LAMMPS data file via write_data, version 29 Oct 2020, timestep = 100000

18000 atoms
4 atom types

-0.18075339553780334 28.074753395537748 xlo xhi
-2.3593044145388444 337.0873044145502 ylo yhi
-0.17293778963283868 28.066937789634412 zlo zhi
0.0 0.0 0.0 xy xz yz

Masses

1 15.9994
2 232.0381
3 15.9994
4 232.0381

Atoms # full

1 0 1 -1.1104 0.9527399822192103 -0.8490027931137556 1.0132912605652689 0 0 0
2 0 1 -1.1104 6.756435249695456 -0.9065564252435429 1.0906549857840935 0 0 0
3 0 1 -1.1104 4.146637666235064 -0.8814024365824585 3.654073301970444 0 0 0
4 0 1 -1.1104 1.0959391022076712 -0.8396519262127967 3.8284485356204008 0 0 0
5 0 1 -1.1104 0.9310554628054104 1.9005847260227386 1.0845233296262984 0 0 0
6 0 1 -1.1104 3.8350344197019 -1.0416225554367773 0.912658532550423 0 0 0
7 0 1 -1.1104 4.12864116440513 1.9989119988017519 3.639517913651283 0 0 0
8 0 1 -1.1104 1.2468619848803202 1.8783111676981004 3.962489644002473 0 0 0
9 0 1 -1.1104 9.449020487738231 1.9252325201500358 1.1786037059755685 0 0 0
10 0 1 -1.1104 9.574749837486031 -0.9597244460170046 1.0200675778611108 0 0 0
11 0 1 -1.1104 9.652629861001751 -0.733307062986156 3.779423049470265 0 0 0
12 0 1 -1.1104 6.916137889419312 -0.9558288322143332 3.7250110265729504 0 0 0
13 0 1 -1.1104 6.756464798198728 2.092845416357966 3.7636665557564695 0 0 0
14 0 1 -1.1104 12.694648289112662 4.693605720335678 0.7978344288171063 0 0 0
15 0 1 -1.1104 9.673773745386988 2.0576329145650702 3.8211035982000103 0 0 0
16 0 1 -1.1104 6.673616282572149 2.1204315255640185 6.737297768280877 0 0 0
17 0 1 -1.1104 12.329160726570874 -0.7817301432265311 0.9286455027871409 0 0 0
18 0 1 -1.1104 12.271097931216463 -0.8879582458459679 3.7469749550593625 0 0 0
15146 0 2 2.2208 13.693855483661967 20.206774453890684 13.896503702954046 0 0 0
20 0 1 -1.1104 12.532181833491018 1.900943471243109 3.811623791077612 0 0 0
21 0 1 -1.1104 1.0621974669135497 4.768745746515225 1.1814725989608348 0 0 0
22 0 1 -1.1104 3.9462982439119925 4.736387759051392 1.0496977169895951 0 0 0
23 0 1 -1.1104 4.100856916965365 4.981443618436695 3.853497988893391 0 0 0
24 0 1 -1.1104 1.2402153758632006 4.858991410388633 3.878671190076927 0 0 0
25 0 1 -1.1104 1.081111543484217 7.660686783638587 0.957272943309877 0 0 0
26 0 1 -1.1104 3.8587360579876684 7.690390566686044 0.8738029436327855 0 0 0
27 0 1 -1.1104 3.920401685329622 7.605778332266794 3.6650771253169303 0 0 0
28 0 1 -1.1104 1.077608544291071 7.787956853555438 3.6318976286291664 0 0 0
29 0 1 -1.1104 6.905202105288669 4.859913857581907 1.0225809974508775 0 0 0
30 0 1 -1.1104 9.683190974114583 7.720916360071198 1.0150747763307302 0 0 0
31 0 1 -1.1104 9.753840968473668 4.665379862945581 3.7411571728204396 0 0 0
32 0 1 -1.1104 7.045104823673863 4.925169693686882 3.9091109904863535 0 0 0
33 0 1 -1.1104 6.721484775745108 7.860020155106796 1.1215929566041916 0 0 0
34 0 1 -1.1104 12.309472970994062 7.402779568554577 1.0560430203086144 0 0 0
35 0 1 -1.1104 9.635290345478344 7.692829913955395 3.766778399488341 0 0 0
36 0 1 -1.1104 6.680888561650628 7.804885519875243 3.6430387424030695 0 0 0
12144 0 2 2.2208 5.237829908144224 17.48982284038604 13.75966921765426 0 0 0
38 0 1 -1.1104 12.671375671658248 5.147429697778389 3.6826513781548904 0 0 0
39 0 1 -1.1104 12.36122018019337 10.492513248665686 0.9884211608992785 0 0 0
40 0 1 -1.1104 12.366707523237542 7.926842987457724 6.772320488641698 0 0 0
41 0 1 -1.1104 0.9532077744954308 10.575215698029734 1.0950303101509307 0 0 0
42 0 1 -1.1104 3.7652065274785436 10.276413121661848 0.7918855896354695 0 0 0
43 0 1 -1.1104 3.95337244415438 10.613283120025503 3.618963497353646 0 0 0
44 0 1 -1.1104 1.2135795032125478 10.71451608563099 3.7214261525945096 0 0 0
45 0 1 -1.1104 1.1730918274673845 13.296504307451933 0.9140332184385825 0 0 0
46 0 1 -1.1104 4.0659480107237895 13.318599112651151 1.0174595558814281 0 0 0
47 0 1 -1.1104 3.811394238795226 13.345700396078115 3.7608061892904443 0 0 0
48 0 1 -1.1104 1.0253645901272919 13.470247677687661 3.9446103314684358 0 0 0
49 0 1 -1.1104 6.621822133919901 10.45565629601185 0.7371996860024207 0 0 0
50 0 1 -1.1104 9.567146063802944 10.473728553685318 0.8120845601269401 0 0 0
51 0 1 -1.1104 9.85323135794495 10.282665409070075 3.636288706265187 0 0 0
52 0 1 -1.1104 6.8458344372184285 10.61602482657939 3.4504662613427657 0 0 0
53 0 1 -1.1104 6.833740034762709 13.45495860177584 1.1668187611263616 0 0 0
54 0 1 -1.1104 9.556111015178965 13.275804840252354 1.069370357788621 0 0 0
55 0 1 -1.1104 9.59330055591415 13.219519897656324 3.939893199495988 0 0 0
56 0 1 -1.1104 6.608213306199006 13.572469071044823 3.910317061874069 0 0 0
57 0 1 -1.1104 12.401518446525248 13.281019745607027 1.0385280665972132 0 0 0
58 0 1 -1.1104 12.383545984513098 10.638027516265714 3.7141064447788965 0 0 0
59 0 1 -1.1104 12.477542108367214 16.11932767824617 0.9656284933127242 0 0 0
60 0 1 -1.1104 12.583498647918304 13.400110833025877 3.9995416028033985 0 0 0
61 0 1 -1.1104 1.0053576091820813 16.005209527920076 1.0717436105735505 0 0 0
62 0 1 -1.1104 4.11788211384087 16.13772398211819 0.8434357008506094 0 0 0
63 0 1 -1.1104 3.959351317254333 16.016033988306518 3.802384220380872 0 0 0
64 0 1 -1.1104 1.1728462239058923 16.26575697038807 3.721636273255788 0 0 0
65 0 1 -1.1104 1.1499332167591991 18.721887766963917 0.8957812585394646 0 0 0
66 0 1 -1.1104 3.817152182000237 18.97617963263432 1.2851267263328081 0 0 0
67 0 1 -1.1104 3.820157344010876 18.968427846873237 4.003373950707688 0 0 0
68 0 1 -1.1104 0.965822151117826 18.9584407252772 3.891218520041304 0 0 0
69 0 1 -1.1104 6.7469854714849085 16.2054212759349 1.0920262006135268 0 0 0
70 0 1 -1.1104 9.64672923299575 16.102754785848678 0.8479126271210816 0 0 0
71 0 1 -1.1104 9.612685821957383 16.07201914779132 3.8119368582755135 0 0 0
72 0 1 -1.1104 6.648334451521326 16.238071358752396 3.7856357972016705 0 0 0
73 0 1 -1.1104 6.6382434032002555 19.010677511557617 1.085322393345549 0 0 0
74 0 1 -1.1104 9.425926859791243 18.72454391889581 1.0845365613901603 0 0 0
75 0 1 -1.1104 9.693192265722642 18.92693929957767 3.925348418962035 0 0 0
76 0 1 -1.1104 6.487228770192104 18.995065992328154 3.7831174192573602 0 0 0
77 0 1 -1.1104 12.308768170375725 18.765651071029346 1.17837169949682 0 0 0
78 0 1 -1.1104 12.394580119465129 16.112007853081284 3.876791644628177 0 0 0
79 0 1 -1.1104 12.415019426395563 21.658180279556056 1.1299487081442638 0 0 0
80 0 1 -1.1104 12.409437925029765 18.967972995525 4.096384032971089 0 0 0
81 0 1 -1.1104 1.2466757271878157 21.723514859229496 1.3554009585593756 0 0 0
82 0 1 -1.1104 3.8709007366137427 21.619078274944872 1.0995290922151992 0 0 0
83 0 1 -1.1104 3.745843964361106 21.7341045073855 3.876388605608524 0 0 0
84 0 1 -1.1104 0.9575100004253275 21.794198285852595 3.916136287530223 0 0 0
85 0 1 -1.1104 6.70634234809813 22.081173467690206 1.2343210109026492 0 0 0
86 0 1 -1.1104 9.684573203240205 21.67507646291668 1.221224314928392 0 0 0
87 0 1 -1.1104 9.536663158903554 21.800233169080286 3.894130346520595 0 0 0
88 0 1 -1.1104 6.633692987476016 21.83229368672275 3.8556593971697457 0 0 0
12130 0 2 2.2208 10.701529964465756 0.4989573070557154 13.68503269789844 0 0 0
90 0 1 -1.1104 12.506009072987792 21.992158540393522 3.7342489955752316 0 0 0
91 0 1 -1.1104 1.0668507058422292 -0.7842799096529117 6.4550602539432305 0 0 0
92 0 1 -1.1104 3.799947474626257 -1.3492209814578702 6.6736997655937325 0 0 0
93 0 1 -1.1104 3.899522198506082 1.9174746431690044 9.259699512657154 0 0 0
94 0 1 -1.1104 1.1570025725842896 -0.8458625045377046 9.170796972826688 0 0 0
95 0 1 -1.1104 1.1518448571528839 1.9141765164170965 6.7797079066915105 0 0 0
96 0 1 -1.1104 4.109971594367403 1.6937540475989483 6.417186144913332 0 0 0
97 0 1 -1.1104 3.917945199303881 4.679903952574516 9.470460386703877 0 0 0
98 0 1 -1.1104 1.1014750184843087 2.032032810589067 9.423926781111923 0 0 0
99 0 1 -1.1104 7.04741265705793 4.809736417156818 6.755566739080606 0 0 0
100 0 1 -1.1104 9.569874876940146 -0.9721950712467878 6.563802907912685 0 0 0
101 0 1 -1.1104 9.652227766823698 -0.8646570947972161 9.499219919021964 0 0 0
102 0 1 -1.1104 6.829140204612752 1.6768547335807582 9.354307344668397 0 0 0
103 0 1 -1.1104 5.131995482407111 7.305502515359778 6.345871208171243 0 0 0
104 0 1 -1.1104 9.56141830903941 1.9605518765524717 6.683852159055194 0 0 0
105 0 1 -1.1104 9.637955984300284 1.806892662867867 9.288033641904121 0 0 0
106 0 1 -1.1104 6.893182307290561 4.365428089482216 9.567875615224818 0 0 0
107 0 1 -1.1104 12.478886634691657 -1.0277261057345677 6.747187610206567 0 0 0
108 0 1 -1.1104 12.404866989463128 -0.9434123307899305 9.355683151332503 0 0 0
109 0 1 -1.1104 12.451503431552243 1.8160904085167282 6.469883306532159 0 0 0
110 0 1 -1.1104 12.573586781390546 1.8971377088419838 9.467176584311167 0 0 0
111 0 1 -1.1104 0.9639801666629136 4.708501177293099 6.611010271753524 0 0 0
112 0 1 -1.1104 4.054194865961891 4.569887911090551 6.74611611247436 0 0 0
113 0 1 -1.1104 5.351436281575131 7.029604027965493 9.9990016463007 0 0 0
114 0 1 -1.1104 1.0999151315072477 4.942185777653034 9.37649867148002 0 0 0
115 0 1 -1.1104 1.1706124122348276 7.52713237533751 6.586679710057024 0 0 0
116 0 1 -1.1104 3.277993125771234 7.190209220080929 8.368989358992229 0 0 0
117 0 1 -1.1104 3.835390855870867 9.3042245418213 9.718785378973138 0 0 0
118 0 1 -1.1104 0.8062461778894955 7.777936483181093 9.49977425627753 0 0 0
119 0 1 -1.1104 7.151381367782825 8.936294506231642 6.0638231643639084 0 0 0
120 0 1 -1.1104 9.783775937207876 4.783622743333734 6.721476781363279 0 0 0
121 0 1 -1.1104 9.654099792932984 5.02870170978279 9.441826911051658 0 0 0
122 0 1 -1.1104 7.000660617616826 9.137800905220724 9.83995548856128 0 0 0
123 0 1 -1.1104 3.4197485557225917 9.447566133895291 6.175394343892892 0 0 0
124 0 1 -1.1104 7.3421296554769135 7.096732677935635 8.190396724091524 0 0 0
125 0 1 -1.1104 9.615592235122579 7.768908446877962 9.436897408627233 0 0 0
126 0 2 2.2208 5.269422278999109 8.775338709385112 8.077415494217002 0 0 0
127 0 1 -1.1104 12.552995768779141 4.849869562568802 6.523449621683224 0 0 0
128 0 1 -1.1104 12.39272875498315 4.90714700967631 9.245630430845985 0 0 0
129 0 1 -1.1104 9.64635260685451 7.674127436113515 6.626904145027182 0 0 0
130 0 1 -1.1104 12.341463308244615 7.671756852697369 9.434454765781606 0 0 0
131 0 1 -1.1104 0.8402125412786655 10.227374244466558 6.5717860611747145 0 0 0
132 0 1 -1.1104 3.2359056060749865 11.452100916918923 8.029975800051398 0 0 0
133 0 1 -1.1104 6.763677121114161 13.540462654541926 9.275793975532743 0 0 0
134 0 1 -1.1104 0.7901318183292272 10.438227179088527 9.362396925012112 0 0 0
135 0 1 -1.1104 0.8786593552290035 13.299256590490579 6.834506102016281 0 0 0
136 0 1 -1.1104 3.826131670773375 16.244959712369912 6.681851711496794 0 0 0
137 0 1 -1.1104 3.842711578679987 13.63836466921313 9.601226999980247 0 0 0
138 0 1 -1.1104 1.0258358257298634 13.148652382187223 9.830303725620364 0 0 0
139 0 1 -1.1104 6.905343022919112 10.987668474029915 7.674826073873025 0 0 0
140 0 1 -1.1104 9.540841438675818 10.801253540393736 6.719247971629031 0 0 0
141 0 1 -1.1104 9.676402464570423 10.483521965994433 9.40794937318369 0 0 0
142 0 1 -1.1104 5.5618629811505444 11.547103768749167 10.409813556990043 0 0 0
143 0 1 -1.1104 5.265203994763352 11.199524051763408 5.8543666539078645 0 0 0
144 0 1 -1.1104 9.586942320801334 13.451986860692848 7.0436639887200165 0 0 0
145 0 1 -1.1104 9.525526949579818 13.292425084908219 9.586017839337611 0 0 0
146 0 1 -1.1104 3.8045383122908722 13.751161249868918 6.7191987082640585 0 0 0
147 0 1 -1.1104 12.329543049903808 10.631457407122603 6.6938758232112505 0 0 0
148 0 1 -1.1104 12.42216223515981 10.568094297165741 9.59565586279973 0 0 0
149 0 1 -1.1104 12.480664005190855 13.434574091604317 6.615469048584897 0 0 0
150 0 1 -1.1104 12.557456641791084 13.314130593037122 9.475231987674979 0 0 0
151 0 1 -1.1104 1.0198053006964494 16.311643611063104 6.445818974550602 0 0 0
152 0 1 -1.1104 3.852703497848859 16.37548137475359 9.851107608000818 0 0 0
153 0 1 -1.1104 6.71916818430909 16.42374806243085 9.38706257061069 0 0 0
154 0 1 -1.1104 1.0371531058883676 16.097131205489816 9.364589064947216 0 0 0
155 0 1 -1.1104 1.0375507653619847 18.872210780311658 6.662651695977438 0 0 0
156 0 1 -1.1104 3.7101182104787025 18.947101201982505 6.811114041758735 0 0 0
157 0 1 -1.1104 3.8420352923861207 18.932615102840977 9.595050683169198 0 0 0
158 0 1 -1.1104 1.0403042303050145 19.15157105066098 9.401180662218666 0 0 0
159 0 1 -1.1104 6.661297567111695 13.609556821426896 6.619683914518121 0 0 0
160 0 1 -1.1104 9.506680117153849 16.530244964516974 6.500167895358871 0 0 0
161 0 1 -1.1104 9.727897809393568 16.191672239656242 9.555348647240857 0 0 0
162 0 1 -1.1104 6.759914881323595 16.500709711842806 6.607261916864448 0 0 0
163 0 1 -1.1104 6.680746629455529 19.023607765583737 6.534291702778423 0 0 0
164 0 1 -1.1104 9.377498093709336 19.13294798686792 6.7866036857551055 0 0 0
165 0 1 -1.1104 9.601070732636245 19.08797782190832 9.75215775603488 0 0 0
166 0 1 -1.1104 6.611173302033838 19.208921402303968 9.344262638504484 0 0 0
167 0 1 -1.1104 12.150927460080007 16.24029329637116 6.635559247065005 0 0 0
168 0 1 -1.1104 12.416729964081668 16.184972713620297 9.519049220509531 0 0 0
169 0 1 -1.1104 12.439046395769337 18.969134547087734 6.710444909113652 0 0 0
170 0 1 -1.1104 12.344342683543756 19.151058607335468 9.582298439657036 0 0 0
171 0 1 -1.1104 0.8700602773676135 21.95625683006784 6.684044677270022 0 0 0
172 0 1 -1.1104 3.655268671367882 21.77374036827752 6.651902858027667 0 0 0
173 0 1 -1.1104 3.772366472773104 21.8460970809231 9.596988945727347 0 0 0
174 0 1 -1.1104 1.0237821570630234 21.968008243640536 9.557407237051688 0 0 0
175 0 1 -1.1104 6.4488318963744575 21.81291502500737 6.510084082926758 0 0 0
176 0 1 -1.1104 9.465073669645166 21.88792155867725 6.4642043067382 0 0 0
177 0 1 -1.1104 9.605490201829562 21.796757278670306 9.124931087296916 0 0 0
178 0 1 -1.1104 6.80573351302413 21.77563617242823 9.298226450850853 0 0 0
179 0 1 -1.1104 12.355188294744023 21.825313200727585 6.487427838108686 0 0 0
180 0 1 -1.1104 12.322720780165161 21.804736455400295 9.6057776723636 0 0 0
181 0 1 -1.1104 0.9316248671789512 -0.8115322498775129 12.09415783470176 0 0 0
182 0 1 -1.1104 3.8603840387232866 -0.7079549198512424 12.467518300226661 0 0 0
183 0 1 -1.1104 1.1394733677097655 2.0711554884042047 12.258489409891919 0 0 0
184 0 1 -1.1104 3.738139436383488 1.9832035844474871 11.978786582100165 0 0 0
185 0 1 -1.1104 6.664495900493471 -0.9012594347207015 12.394461746579152 0 0 0
186 0 1 -1.1104 9.488090172629963 -0.9310913901820904 12.529935468167563 0 0 0
187 0 1 -1.1104 6.653004104337022 1.902228214569943 12.2022069439127 0 0 0
188 0 1 -1.1104 9.680152682473278 1.9970343915905313 12.090211712849639 0 0 0
189 0 1 -1.1104 12.06409650233925 -0.6716255677311878 12.065331883130296 0 0 0
190 0 1 -1.1104 12.333756094920581 2.1119405030306164 12.173312516523131 0 0 0
191 0 1 -1.1104 1.0729110198412093 4.914652069789906 12.180658912164624 0 0 0
192 0 1 -1.1104 4.032956337817053 4.759192369106222 12.393137587534012 0 0 0
193 0 1 -1.1104 0.824029123097282 7.792549847593534 12.437675877998137 0 0 0
194 0 1 -1.1104 3.781513762702936 7.659954874929621 12.410355303705146 0 0 0
195 0 1 -1.1104 6.6777694605496425 4.7854888646766955 12.190547563297027 0 0 0
196 0 1 -1.1104 9.670662457240013 4.819802322039077 12.034043830445878 0 0 0
197 0 1 -1.1104 6.996748975508068 7.541639661423511 12.698200454927061 0 0 0
198 0 1 -1.1104 9.71047143238235 7.6853432450184345 12.286687622958478 0 0 0
199 0 1 -1.1104 12.410817882560156 4.805314841485355 12.27124690156341 0 0 0
200 0 1 -1.1104 12.4095250941664 7.571741127309269 12.436947064260906 0 0 0
201 0 1 -1.1104 1.3045578771754622 10.447761260845576 12.238270448459627 0 0 0
202 0 1 -1.1104 3.854101253836072 10.408310815998146 12.465176736292499 0 0 0
203 0 1 -1.1104 1.093478164578967 13.280716822603688 12.46570114440642 0 0 0
204 0 1 -1.1104 3.9173504492317788 13.440898754976134 12.434973989071443 0 0 0
205 0 1 -1.1104 6.81113113929747 10.449573169941687 12.638157231013254 0 0 0
206 0 1 -1.1104 9.623546498972209 10.594315508098845 12.152463663900603 0 0 0
207 0 1 -1.1104 6.679715061395629 13.52452618007785 12.390211281575677 0 0 0
208 0 1 -1.1104 9.56047687701142 13.449482700548474 12.357349183277883 0 0 0
209 0 1 -1.1104 12.536946287005817 10.510677470273333 12.5297237047623 0 0 0
210 0 1 -1.1104 12.451205366537666 13.33160101760143 12.242240474020106 0 0 0
211 0 1 -1.1104 0.7235536944948342 16.27576792962001 12.149253047906203 0 0 0
212 0 1 -1.1104 4.069723137518692 16.161784517641614 12.431926977093411 0 0 0
213 0 1 -1.1104 0.9610445596741293 19.06162668598702 12.551360932115504 0 0 0
214 0 1 -1.1104 3.7922137983722197 19.029620312335748 12.453067264943964 0 0 0
215 0 1 -1.1104 6.739256025087254 16.287882866288612 12.360930078005161 0 0 0
216 0 1 -1.1104 9.508524703377896 16.092987328491752 12.245553018908033 0 0 0
217 0 1 -1.1104 6.50339346835364 19.05086473541045 12.423109771602137 0 0 0
218 0 1 -1.1104 9.162353595665818 18.790598426440813 12.5778490751719 0 0 0
219 0 1 -1.1104 12.288369159854765 15.894830660255561 12.489786773230401 0 0 0
220 0 1 -1.1104 12.148073065137602 18.860177993900614 12.442400268034266 0 0 0
221 0 1 -1.1104 1.0040132270954518 21.868756475333576 12.366464922738208 0 0 0
222 0 1 -1.1104 3.891378965824061 21.84917492031211 12.503511286971705 0 0 0
223 0 1 -1.1104 6.838693572231742 21.85601640684757 12.222597671676143 0 0 0
224 0 1 -1.1104 9.728688655246934 21.715696479916904 12.21903846079479 0 0 0
225 0 1 -1.1104 12.543416008437429 21.901247814088695 12.70632243792843 0 0 0
12125 0 2 2.2208 11.007114969135547 20.340426332575746 10.97143828012047 0 0 0
12110 0 2 2.2208 11.093451263388454 3.3381937073748413 10.695009466587084 0 0 0
12140 0 2 2.2208 10.94010172923592 11.901446746482202 13.585950240715977 0 0 0
12124 0 2 2.2208 8.294436251620217 23.294003892020843 10.964715304857895 0 0 0
15081 0 2 2.2208 13.70987147762251 17.446194809354225 5.420983358365615 0 0 0
12109 0 2 2.2208 7.99287469683082 6.175984615451622 10.703309843490704 0 0 0
12057 0 2 2.2208 8.16835804108342 -2.348297141882765 7.903449987528791 0 0 0
12008 0 2 2.2208 5.25744115365582 0.5995713712703279 2.3165932523360473 0 0 0
5717 0 1 -1.1104 3.7959216956180093 -0.9180729825041916 9.800458085880788 0 1 0
12010 0 2 2.2208 10.86710970429678 0.6213755175321145 2.2092233205019642 0 0 0
12123 0 2 2.2208 5.287778033581667 20.359619899976195 10.945404521307173 0 0 0
12108 0 2 2.2208 5.299544481738141 3.3463016491045097 10.828061527315262 0 0 0
12013 0 2 2.2208 2.476673391664488 3.3879544911664308 2.5795814165605266 0 0 0
12122 0 2 2.2208 2.3721228711120133 23.079849207165037 10.856233862309157 0 0 0
12107 0 2 2.2208 2.673248894911513 6.371816185745168 10.611367626137604 0 0 0
12112 0 2 2.2208 2.6388715148396544 11.537460119097064 10.712802623189175 0 0 0
12017 0 2 2.2208 8.224552476778978 3.4572881984327575 2.4872221867842943 0 0 0
12018 0 2 2.2208 5.4108681024705465 6.24338255142581 2.176436160454447 0 0 0
12104 0 2 2.2208 8.23324568840205 0.38480803738612057 10.936300056705557 0 0 0
12020 0 2 2.2208 11.2238633034894 6.200044308282432 2.3518681195596534 0 0 0
12136 0 2 2.2208 2.4533330717358837 8.96278801246808 13.666234296290854 0 0 0
15071 0 2 2.2208 13.784382891929548 11.84592345600274 5.210798391309428 0 0 0
12023 0 2 2.2208 2.407045234282701 9.127830066805709 2.3375574157792602 0 0 0
12120 0 2 2.2208 10.88387822330201 14.571263045939137 11.030883098279162 0 0 0
12102 0 2 2.2208 2.3947939834174763 0.5552444612885097 10.74317537792057 0 0 0
12113 0 2 2.2208 5.495193127375528 8.847370672264676 11.547459682311036 0 0 0
12027 0 2 2.2208 8.350126890667184 8.968317674904164 2.351731018779395 0 0 0
12028 0 2 2.2208 5.3379244968452095 11.991459160702043 2.385552938700064 0 0 0
12100 0 2 2.2208 11.092238081441266 23.289735316866096 8.030599458581232 0 0 0
12030 0 2 2.2208 10.932382502562007 11.789715955302551 2.3330178336884395 0 0 0
12099 0 2 2.2208 10.939926565594057 20.424260999824984 5.158393984104812 0 0 0
12098 0 2 2.2208 5.415104955167544 23.359817132018126 8.13302672382702 0 0 0
12033 0 2 2.2208 2.4606770978161494 14.607425411163888 2.3780484774765043 0 0 0
15082 0 2 2.2208 13.612228189015815 14.767709390868703 8.099524264054812 0 0 0
12097 0 2 2.2208 8.013163335394307 20.403570464793326 7.925168792021036 0 0 0
12096 0 2 2.2208 8.14640747081126 23.221341522151405 5.29720316091369 0 0 0
12037 0 2 2.2208 8.070262446201305 14.889646176908421 2.3195489696470863 0 0 0
12038 0 2 2.2208 5.274348250581764 17.506837761403638 2.5202934270076973 0 0 0
12095 0 2 2.2208 5.278691410558085 20.31091436217832 5.351782041614656 0 0 0
12040 0 2 2.2208 11.106662656930045 17.352816668931343 2.387696883451026 0 0 0
12133 0 2 2.2208 8.163235994689476 3.2910172667112634 13.50340883958412 0 0 0
12093 0 2 2.2208 2.544955802436779 20.35007064480164 8.142291649713355 0 0 0
12043 0 2 2.2208 2.487218126006149 20.401235547277427 2.6000788797087933 0 0 0
15116 0 2 2.2208 13.327073054099225 17.494104227336013 11.118864049465603 0 0 0
12143 0 2 2.2208 8.078183386481976 14.741806127933874 13.60632889310978 0 0 0
5726 0 1 -1.1104 6.821464070847459 -1.1533969939808713 9.484833673383513 0 1 0
12047 0 2 2.2208 8.126759671009996 20.395406615399118 2.4772847176088177 0 0 0
12048 0 2 2.2208 5.299193722983305 23.16902492136993 2.5549901443902256 0 0 0
12090 0 2 2.2208 10.71866603587058 17.720248120273336 8.122561606024318 0 0 0
12050 0 2 2.2208 10.825764543083716 23.27270758357807 2.603779166730798 0 0 0
12119 0 2 2.2208 8.083567752224075 17.506581020615833 10.97526328112929 0 0 0
12052 0 2 2.2208 2.6448915087099287 0.3174680845334023 5.279567094139401 0 0 0
371 0 1 -1.1104 12.139714384616685 2.0926806958727755 0.88644617911296 0 0 1
12118 0 2 2.2208 5.346326260843127 14.859616582208258 10.832393827094199 0 0 0
15126 0 2 2.2208 13.758415157009743 -2.2897589307436275 13.736182959274878 0 0 0
12056 0 2 2.2208 8.213619975529014 0.5711829676893221 5.045001779011457 0 0 0
372 0 1 -1.1104 6.557147104691876 2.0439268981206298 0.8588636296528591 0 0 1
12058 0 2 2.2208 5.44507267580112 0.5497394416185059 8.017489596973922 0 0 0
375 0 1 -1.1104 9.765767468851642 4.830760699210006 0.9587393926917432 0 0 1
12060 0 2 2.2208 11.02343272425271 0.3816954694838442 8.1437838994473 0 0 0
12117 0 2 2.2208 2.311756423900467 17.612417044086374 10.771096242187015 0 0 0
12062 0 2 2.2208 2.734820616029735 6.419605114500005 5.341597264734986 0 0 0
12063 0 2 2.2208 2.4701993014307964 3.3849382466499214 8.088716233298594 0 0 0
12089 0 2 2.2208 10.767267018571642 14.613334469364522 5.164638687096849 0 0 0
12065 0 2 2.2208 5.355230791695674 3.328928891382476 5.283561090528818 0 0 0
12066 0 2 2.2208 8.177734964102628 6.295515706379669 5.3040115801599805 0 0 0
12067 0 2 2.2208 8.193319099729134 3.3528948009144943 8.156582725756339 0 0 0
12068 0 2 2.2208 5.5080120252945175 5.7568790322325665 8.058889856636547 0 0 0
12069 0 2 2.2208 11.086388551440761 3.2028798340537623 5.247227327455856 0 0 0
12070 0 2 2.2208 11.015017393740651 6.407742334851338 7.937864021076467 0 0 0
12115 0 2 2.2208 10.861103768495758 9.082817341604498 10.93563045716085 0 0 0
12072 0 2 2.2208 2.6643914083413747 11.87076118148391 5.517417789194155 0 0 0
12073 0 2 2.2208 2.118885064537629 9.080903320158733 7.923039965367713 0 0 0
12114 0 2 2.2208 7.93942095697854 11.895312757141015 10.812561500960523 0 0 0
12075 0 2 2.2208 5.3075620371536685 9.090886968171912 4.751005431549403 0 0 0
12076 0 2 2.2208 7.594497660700961 11.789319086201772 5.335112546384616 0 0 0
12077 0 2 2.2208 8.440562708950202 9.066587099946108 7.976827342810836 0 0 0
12078 0 2 2.2208 5.221741295529838 12.322785354502383 8.132296704198165 0 0 0
12079 0 2 2.2208 11.030541155663402 9.05409198298036 5.267190333899316 0 0 0
12080 0 2 2.2208 10.98600555597273 11.973499194082846 8.162401300585055 0 0 0
12150 0 2 2.2208 10.75264348155223 23.262718858488682 13.821485117215154 0 0 0
12082 0 2 2.2208 2.349419612319008 17.446014103674276 5.391399127293267 0 0 0
12083 0 2 2.2208 2.19613628735012 14.375665610034385 8.226070098649885 0 0 0
12003 0 2 2.2208 2.3922559683758933 -2.1743456249143147 2.415583868546322 0 0 0
12085 0 2 2.2208 5.285940912957593 14.76740210404364 5.222221106589256 0 0 0
12086 0 2 2.2208 8.11278342550145 17.653957831926316 5.26911491410721 0 0 0
12087 0 2 2.2208 8.171838608531449 14.741830136210321 8.218687756652773 0 0 0
12088 0 2 2.2208 5.184961945397313 17.604304212484152 8.059808268752718 0 0 0
12141 0 2 2.2208 2.3643627251798893 14.7863017570273 13.609725521481991 0 0 0
12139 0 2 2.2208 5.267360375346393 12.073563393434892 13.730721253927898 0 0 0
12131 0 2 2.2208 2.403237746610363 3.323178949887445 13.710355411764569 0 0 0
15062 0 2 2.2208 13.831413716685425 3.296843363613387 8.150904892363213 0 0 0
12129 0 2 2.2208 5.35044372554143 0.6212958502154025 13.500842343911058 0 0 0
5723 0 1 -1.1104 6.5733962207863685 -0.7988914749111362 6.473933583090744 0 1 0
12092 0 2 2.2208 2.415055330824966 23.28350234030645 5.529612472460065 0 0 0
398 0 1 -1.1104 12.672117545502996 7.903491250536073 3.7866594528709774 0 0 1
15061 0 2 2.2208 13.799499149485065 6.34593841587072 5.234265223966139 0 0 0
15012 0 2 2.2208 13.787251016889444 3.438778968623008 2.3588950059661875 0 0 0
367 0 1 -1.1104 3.7593317873483114 1.9380700485234927 0.6761792199525214 0 0 1
12126 0 2 2.2208 2.5076069998944157 -2.2771266121139098 13.690531671375425 0 0 0
15131 0 2 2.2208 13.646798697846888 3.2415640117396904 13.525687234946213 0 0 0
12135 0 2 2.2208 11.068158935267785 6.158411968659755 13.45656440350322 0 0 0
15022 0 2 2.2208 13.73075498382417 9.259179309277199 2.469518151949204 0 0 0
15141 0 2 2.2208 13.933937121117745 14.45251959227381 13.805131061685842 0 0 0
12138 0 2 2.2208 8.292202816965977 8.941894036830204 13.87456532436878 0 0 0
12105 0 2 2.2208 10.954303829969032 -2.1573258719269996 10.882407616209184 0 0 0
15106 0 2 2.2208 13.699926670020925 6.259964884666167 10.842845244485893 0 0 0
12149 0 2 2.2208 5.429453025851473 23.19682624621204 13.64147585010692 0 0 0
15092 0 2 2.2208 13.618682479536924 20.282838681009384 8.145408422836532 0 0 0
12134 0 2 2.2208 5.406136725877489 6.135662461453557 13.751165851136658 0 0 0
15101 0 2 2.2208 13.72981394270658 0.39463319941136454 10.739691627555374 0 0 0
15121 0 2 2.2208 13.563270936600041 23.379623729620175 11.26916876632803 0 0 0
12146 0 2 2.2208 2.5675992911965055 20.3886649741022 13.838443362069645 0 0 0
15042 0 2 2.2208 13.809843947442051 20.279052134543672 2.4002933283042047 0 0 0
12145 0 2 2.2208 10.823410354325436 17.359597147176363 13.931150217158837 0 0 0
12045 0 2 2.2208 5.143763194727627 20.24213511307278 -0.17251497449563719 0 0 0
226 0 1 -1.1104 3.8465071460687446 -0.9773625438338677 15.20134387248826 0 0 0
227 0 1 -1.1104 1.116870592269754 -0.9461571691659616 15.200078568777016 0 0 0
228 0 1 -1.1104 3.6882922223909436 1.9350499307567255 14.986077060327412 0 0 0
229 0 1 -1.1104 1.0194537719850174 2.001297570728544 15.093129538212999 0 0 0
230 0 1 -1.1104 9.40821988959374 -0.7681742092554218 15.236655456583772 0 0 0
231 0 1 -1.1104 6.667501520874501 -0.9434881320879348 15.189292901010104 0 0 0
232 0 1 -1.1104 9.476010516819379 2.106721368505458 15.061347651923244 0 0 0
233 0 1 -1.1104 6.601529115738136 1.9216484361086354 14.862573914156947 0 0 0
234 0 1 -1.1104 12.052958611426128 -0.985405726528174 14.90653772627776 0 0 0
235 0 1 -1.1104 12.446961823013542 1.7813792139046265 14.970647109342577 0 0 0
236 0 1 -1.1104 3.9257679193871082 4.838638680968792 15.034042432129873 0 0 0
237 0 1 -1.1104 1.0259623638295494 4.641602909115664 15.306718945803446 0 0 0
238 0 1 -1.1104 4.328250075700723 7.663837374894593 15.04825669409192 0 0 0
239 0 1 -1.1104 1.1098123418948238 7.230665180145515 15.195015117041219 0 0 0
240 0 1 -1.1104 9.656830269158908 4.904191153793789 14.741797289245891 0 0 0
241 0 1 -1.1104 6.659968113169459 4.5985116309805 15.059265396403454 0 0 0
242 0 1 -1.1104 9.844031534637956 7.500672624912634 15.144749696731475 0 0 0
243 0 1 -1.1104 6.784194237229626 7.5575404892657065 15.30382866975607 0 0 0
244 0 1 -1.1104 12.567886456362052 4.6836468029225164 15.133376848004033 0 0 0
245 0 1 -1.1104 12.723736004164719 7.296582509960086 15.19340192519233 0 0 0
246 0 1 -1.1104 3.950679692783752 10.364881431827826 15.119646961519264 0 0 0
247 0 1 -1.1104 1.1007360238988866 10.2443787969184 15.278877628308482 0 0 0
248 0 1 -1.1104 3.9995832061238854 13.19397780685373 15.175268107550922 0 0 0
249 0 1 -1.1104 1.297373633073414 13.22573829589069 15.250411327554714 0 0 0
250 0 1 -1.1104 9.770687198838564 10.457716850964736 15.181253797209118 0 0 0
251 0 1 -1.1104 6.757499858695659 10.695798919461218 15.337506332863668 0 0 0
252 0 1 -1.1104 9.551218183000858 13.186483109366849 15.069165935851524 0 0 0
253 0 1 -1.1104 6.850955804834847 13.435200537699158 15.24157404641055 0 0 0
254 0 1 -1.1104 12.780119060711346 10.506618840975936 15.181915703724583 0 0 0
255 0 1 -1.1104 12.528851084621259 13.221052343819919 15.093646687301247 0 0 0
256 0 1 -1.1104 3.883491902515369 16.02408173256007 15.29779771918714 0 0 0
257 0 1 -1.1104 1.4044310017209698 15.939876756545933 15.184453315762568 0 0 0
258 0 1 -1.1104 3.9081755619740886 18.803081892775705 15.308641330643898 0 0 0
259 0 1 -1.1104 1.1403777300913007 18.5829685294621 15.241465070068251 0 0 0
260 0 1 -1.1104 9.53001201734515 16.021366249459618 15.132315454538858 0 0 0
261 0 1 -1.1104 6.821350589089814 16.14220457178745 15.07340091691393 0 0 0
262 0 1 -1.1104 9.388435356294357 18.983620216575495 15.27879800481584 0 0 0
263 0 1 -1.1104 6.475174664770185 19.079756709106725 15.283383027604783 0 0 0
264 0 1 -1.1104 12.33720749180589 16.187027965658203 15.394295976221397 0 0 0
265 0 1 -1.1104 12.170542736324983 19.07458587560122 15.270129824231299 0 0 0
266 0 1 -1.1104 3.798574897273866 21.693691587147192 15.2718310816207 0 0 0
267 0 1 -1.1104 1.3203210204825615 21.619933042175724 15.09826084175902 0 0 0