ITEM: TIMESTEP
90000
ITEM: NUMBER OF ATOMS
17910
ITEM: BOX BOUNDS pp pp pp
-3.6066263965191359e-01 2.7700662639652023e+01
-4.3564844723544889e+00 3.3243648447235739e+02
-3.5705101022177116e-01 2.7697051010220825e+01
ITEM: ATOMS id type q x y z
1 2 2.2208 5.07496 1.21334 5.08676
2 1 -1.1104 0.730974 -2.9918 1.06036
3 1 -1.1104 0.904239 2.4708 1.09218
6 1 -1.1104 0.788821 -2.96153 3.74431
7 1 -1.1104 0.764764 2.53969 3.93556
10 1 -1.1104 0.716471 -0.287262 1.02861
12 2 2.2208 5.12763 -1.70038 2.35878
14 1 -1.1104 0.747077 -0.101719 3.85976
16 1 -1.1104 3.52216 -3.09221 0.939052
17 1 -1.1104 3.61499 2.53156 0.949455
18 2 2.2208 2.26343 1.06282 2.50701
19 1 -1.1104 3.67398 -3.17902 3.90739
20 1 -1.1104 3.59922 2.62494 3.79951
21 2 2.2208 2.09826 -1.66368 5.27529
22 2 2.2208 2.18771 3.97987 5.2221
23 1 -1.1104 3.52905 -0.415268 1.11294
24 1 -1.1104 3.60555 -0.284151 3.83996
5 1 -1.1104 6.34654 2.60757 0.991419
4 1 -1.1104 6.40813 -3.00121 1.02541
15 1 -1.1104 6.44874 -0.177638 3.67764
9 1 -1.1104 6.4459 2.63003 3.764
8473 2 2.2208 2.02779 -4.34788 13.6064
332 2 2.2208 5.08417 15.1414 13.6674
163 1 -1.1104 9.42135 16.5234 6.57015
8 1 -1.1104 6.48369 -3.16431 3.76372
13 2 2.2208 5.11529 3.95034 2.54057
11 1 -1.1104 6.43072 -0.177772 0.91118
170 1 -1.1104 0.629732 -0.401859 6.62418
167 1 -1.1104 0.630419 2.39708 6.74109
31 2 2.2208 10.4864 1.164 5.39169
32 1 -1.1104 12.1297 -3.2186 1.02112
33 1 -1.1104 11.9983 2.46018 1.12729
34 1 -1.1104 12.0928 -3.08139 3.88449
35 1 -1.1104 11.8707 2.45645 3.96284
36 1 -1.1104 12.1165 -0.341377 1.08832
37 2 2.2208 10.7341 -1.56977 2.45656
39 1 -1.1104 11.9894 -0.240635 3.8876
40 1 -1.1104 9.18688 -3.03832 1.16272
41 1 -1.1104 9.20336 2.65415 0.878843
42 2 2.2208 7.75421 1.08796 2.30554
43 1 -1.1104 9.40464 -3.10524 4.02376
44 1 -1.1104 9.09522 2.47723 3.82251
45 2 2.2208 7.82528 -1.77988 5.23268
47 1 -1.1104 9.23213 -0.230603 1.02986
48 1 -1.1104 9.264 -0.306465 3.85098
38 2 2.2208 10.4611 3.99483 2.43752
46 2 2.2208 7.78296 3.92841 5.21095
334 2 2.2208 10.9296 15.3899 13.6459
50 2 2.2208 13.4052 -1.70411 5.34998
311 1 -1.1104 9.44624 13.9042 9.44386
8881 2 2.2208 13.2385 3.84223 5.3241
9178 2 2.2208 13.44 1.10653 2.45306
330 2 2.2208 2.31272 18.0221 13.5814
9216 2 2.2208 13.3419 3.93162 -0.29839
206 1 -1.1104 11.9178 2.46785 6.75901
207 1 -1.1104 12.0404 -0.325188 6.69434
209 1 -1.1104 9.12297 2.64144 6.69556
336 2 2.2208 13.5894 17.9438 13.6599
54 2 2.2208 5.03001 6.73791 5.39934
55 2 2.2208 5.11128 12.3704 5.19044
56 1 -1.1104 0.800032 8.25541 1.16666
58 1 -1.1104 0.749331 8.18744 3.97921
60 1 -1.1104 0.743257 5.42885 1.01951
61 1 -1.1104 0.751817 11.103 1.02099
66 2 2.2208 5.01029 9.59072 2.51383
67 1 -1.1104 0.788606 5.37308 3.8422
68 1 -1.1104 0.776674 10.9875 3.78326
71 1 -1.1104 3.64635 8.12816 1.00843
72 2 2.2208 2.14691 6.76044 2.54722
73 2 2.2208 2.23411 12.2955 2.47453
74 1 -1.1104 3.48018 8.14883 3.82241
75 2 2.2208 2.20051 9.47512 5.40459
76 1 -1.1104 3.68888 5.28785 1.13838
77 1 -1.1104 3.59928 10.9223 1.06375
79 1 -1.1104 3.58664 5.42391 3.92643
80 1 -1.1104 3.6301 10.8547 3.88732
57 1 -1.1104 6.55393 8.24998 1.16123
59 1 -1.1104 6.32576 8.19601 3.96297
64 1 -1.1104 6.42143 11.0716 1.06913
63 1 -1.1104 6.3987 5.3765 1.07681
232 1 -1.1104 9.30868 19.3282 9.43184
9187 2 2.2208 13.5193 9.49885 -0.295662
70 1 -1.1104 6.5443 11.0547 3.89602
69 1 -1.1104 6.45685 5.38675 3.84356
239 1 -1.1104 3.57974 5.41971 6.69638
236 1 -1.1104 0.749921 5.22624 6.76925
234 1 -1.1104 0.823615 7.97773 6.82059
65 1 -1.1104 6.46146 11.0002 6.72794
136 1 -1.1104 9.3975 13.7298 12.2496
84 2 2.2208 10.5005 6.64271 5.35517
85 2 2.2208 10.7833 12.3995 5.21703
86 1 -1.1104 12.0892 8.21273 1.06978
87 1 -1.1104 11.9792 8.05664 3.90059
88 1 -1.1104 11.8809 5.30733 1.2024
89 1 -1.1104 12.1301 11.0065 1.16374
91 2 2.2208 10.7891 9.59739 2.54051
92 1 -1.1104 11.923 5.19254 3.98776
93 1 -1.1104 12.1287 10.9737 3.9072
94 1 -1.1104 9.32727 8.19129 1.14792
95 2 2.2208 7.79415 6.78223 2.52186
96 2 2.2208 7.94707 12.3154 2.38094
97 1 -1.1104 9.05509 8.11944 3.97666
98 2 2.2208 7.81456 9.57635 5.34503
99 1 -1.1104 9.05716 5.47219 1.01748
100 1 -1.1104 9.46098 11.1058 1.17612
102 1 -1.1104 9.28692 5.38218 3.73931
103 1 -1.1104 9.28567 10.9757 3.84585
9076 2 2.2208 13.3869 6.67885 2.55429
9077 2 2.2208 13.4538 12.2985 2.51518
149 1 -1.1104 12.1038 16.6058 6.7391
8910 2 2.2208 13.467 9.4971 5.18536
25 2 2.2208 13.5609 15.3312 10.7294
106 2 2.2208 5.00122 17.8316 5.27511
107 1 -1.1104 0.834923 13.9261 0.90037
109 1 -1.1104 0.823884 19.2957 0.983922
113 1 -1.1104 0.739162 13.722 3.75653
114 1 -1.1104 0.962852 19.4425 3.75059
116 1 -1.1104 0.865805 16.5893 0.834087
119 2 2.2208 4.97665 15.2137 2.49069
120 2 2.2208 5.09474 20.6718 2.39423
121 1 -1.1104 0.783985 16.5496 3.719
123 1 -1.1104 3.6369 13.663 1.04655
125 1 -1.1104 3.57569 19.2342 1.10352
127 2 2.2208 2.13979 17.8198 2.49578
128 1 -1.1104 3.48395 13.654 3.92749
129 1 -1.1104 3.65399 19.4071 3.73589
130 2 2.2208 2.21778 15.0747 5.24383
131 2 2.2208 2.28613 20.7743 5.06625
132 1 -1.1104 3.52818 16.4967 0.974543
134 1 -1.1104 3.59231 16.4541 3.62411
140 1 -1.1104 6.44716 16.5753 1.00225
138 1 -1.1104 6.44066 19.2964 1.01263
115 1 -1.1104 6.42264 13.782 3.8603
110 1 -1.1104 6.38278 13.7627 1.09034
108 1 -1.1104 0.824755 13.6586 6.74494
302 1 -1.1104 0.787278 19.3905 6.60701
133 1 -1.1104 3.54524 16.6028 6.57819
139 1 -1.1104 6.35147 19.2396 3.85379
122 1 -1.1104 6.34073 16.5009 3.79826
111 1 -1.1104 6.33507 13.8074 6.65505
126 1 -1.1104 3.62033 19.3016 6.51456
118 1 -1.1104 6.45056 16.7147 6.63178
8958 2 2.2208 13.5107 20.8871 5.28346
141 2 2.2208 10.6265 17.8748 5.21448
142 1 -1.1104 12.0634 13.8789 1.10878
144 1 -1.1104 12.1618 19.3004 0.912587
146 1 -1.1104 12.2279 13.5964 3.79318
147 1 -1.1104 11.9594 19.3929 3.86807
148 1 -1.1104 12.1533 16.6672 0.930924
150 2 2.2208 10.6572 15.1835 2.33739
151 2 2.2208 10.7885 20.7756 2.31786
152 1 -1.1104 11.9579 16.4712 3.74245
153 1 -1.1104 9.29883 13.735 0.956674
155 1 -1.1104 9.28755 19.1477 1.01526
157 2 2.2208 7.84171 17.9629 2.33692
158 1 -1.1104 9.31446 13.7436 3.91888
159 1 -1.1104 9.13088 19.4143 3.64716
160 2 2.2208 7.86402 15.0742 5.22681
161 2 2.2208 7.81332 20.6424 5.16418
162 1 -1.1104 9.30886 16.4357 1.07181
164 1 -1.1104 9.05914 16.659 3.70588
352 2 2.2208 7.84861 15.0613 -0.30723
8908 2 2.2208 13.6052 18.0053 2.44018
8979 2 2.2208 13.4689 15.0739 5.26664
342 2 2.2208 2.27349 20.7775 -0.28103
145 1 -1.1104 12.2091 19.3483 6.71307
156 1 -1.1104 9.47741 19.3268 6.63104
81 1 -1.1104 12.2417 13.8118 9.4466
171 1 -1.1104 6.34413 -0.370797 6.64246
173 1 -1.1104 3.67186 2.53432 6.64346
169 1 -1.1104 6.47324 2.47465 6.59697
174 1 -1.1104 3.40094 -0.280598 6.55009
172 1 -1.1104 3.60311 -2.99296 6.63533
166 1 -1.1104 0.788989 -3.10072 6.679
168 1 -1.1104 6.34037 -3.13469 6.54985
175 2 2.2208 4.92213 1.20347 10.8012
176 1 -1.1104 0.657881 -3.03128 12.166
177 1 -1.1104 0.84345 2.45749 12.3307
180 1 -1.1104 0.484979 -3.05416 9.45753
181 1 -1.1104 0.94962 2.36359 9.43956
184 1 -1.1104 0.952668 -0.291006 12.2973
186 2 2.2208 5.01268 -1.62345 8.05817
187 2 2.2208 4.95449 3.93618 8.02009
188 1 -1.1104 0.665751 -0.39298 9.42936
190 1 -1.1104 3.44456 -3.09592 12.2613
191 1 -1.1104 3.63665 2.62188 12.2046
192 2 2.2208 2.12375 1.0619 8.0589
193 1 -1.1104 3.41614 -3.04589 9.38594
194 1 -1.1104 3.69276 2.48529 9.39467
195 2 2.2208 2.20483 -1.57322 10.9021
197 1 -1.1104 3.64075 -0.231903 12.2513
198 1 -1.1104 3.5824 -0.332456 9.45537
196 2 2.2208 2.21437 3.89214 10.949
189 1 -1.1104 6.41659 -0.15973 9.62948
182 1 -1.1104 6.36331 -3.0354 9.38337
179 1 -1.1104 6.55529 2.41761 12.2729
185 1 -1.1104 6.43011 -0.193714 12.2449
183 1 -1.1104 6.5218 2.66873 9.47294
178 1 -1.1104 6.28839 -3.02316 12.2299
210 1 -1.1104 9.09555 -0.335765 6.6591
53 2 2.2208 13.3538 3.87888 10.7871
205 1 -1.1104 12.0363 -3.21548 6.70979
208 1 -1.1104 9.28828 -3.04601 6.73567
211 2 2.2208 10.5912 1.05287 10.9831
212 1 -1.1104 12.0757 -3.05309 12.2803
213 1 -1.1104 12.1233 2.59956 12.2748
214 1 -1.1104 12.0273 -3.03736 9.53292
215 1 -1.1104 12.1362 2.5746 9.48118
216 1 -1.1104 12.0886 -0.274352 12.2879
217 2 2.2208 10.6017 -1.70273 8.02153
218 2 2.2208 10.5711 3.89663 8.13836
219 1 -1.1104 12.0131 -0.204261 9.48526
220 1 -1.1104 9.11147 -3.21852 12.1985
221 1 -1.1104 9.28396 2.58466 12.2561
222 2 2.2208 7.73357 1.13461 8.04571
223 1 -1.1104 9.11407 -3.01078 9.44421
224 1 -1.1104 9.28651 2.49983 9.59566
225 2 2.2208 7.85784 -1.57114 10.9425
226 2 2.2208 7.77499 4.02669 10.9036
227 1 -1.1104 9.30026 -0.376224 12.3983
228 1 -1.1104 9.17805 -0.236388 9.5737
229 2 2.2208 13.4585 1.14895 8.09942
230 2 2.2208 13.3975 -1.69677 10.9052
135 1 -1.1104 12.1251 16.5844 9.55427
82 1 -1.1104 12.0814 19.3663 9.40817
154 1 -1.1104 9.202 13.7925 6.69535
62 1 -1.1104 0.748001 10.8359 6.71971
78 1 -1.1104 3.52763 10.9621 6.78632
237 1 -1.1104 6.37914 5.18846 6.69086
238 1 -1.1104 3.73746 8.2487 6.62741
240 2 2.2208 5.03754 6.68919 10.8741
241 2 2.2208 5.10356 12.3486 10.8623
242 1 -1.1104 0.912641 8.15473 12.4307
244 1 -1.1104 0.871294 8.168 9.6317
246 1 -1.1104 0.672827 5.31579 12.2415
247 1 -1.1104 0.847045 11.1275 12.25
250 2 2.2208 5.0638 9.64855 8.11075
251 1 -1.1104 0.779467 5.30057 9.62679
252 1 -1.1104 0.949247 10.9534 9.61435
255 1 -1.1104 3.6454 8.05822 12.1827
256 2 2.2208 2.18276 6.77141 8.24981
257 2 2.2208 2.22938 12.3298 8.12559
258 1 -1.1104 3.69911 8.08069 9.57143
259 2 2.2208 2.22744 9.63486 10.9928
260 1 -1.1104 3.53277 5.33821 12.467
261 1 -1.1104 3.7631 10.9458 12.2537
262 1 -1.1104 3.63603 5.24046 9.51423
263 1 -1.1104 3.67707 10.9575 9.53178
253 1 -1.1104 6.43325 5.43073 9.53011
245 1 -1.1104 6.30473 8.22441 9.58843
243 1 -1.1104 6.53277 8.20205 12.3123
254 1 -1.1104 6.52379 11.057 9.38616
248 1 -1.1104 6.43031 5.15458 12.472
235 1 -1.1104 6.49633 8.0166 6.7698
249 1 -1.1104 6.4941 11.0148 12.2547
105 2 2.2208 10.681 20.8018 8.12206
101 1 -1.1104 9.10468 10.9805 6.6124
90 1 -1.1104 12.096 11.0817 6.57493
267 1 -1.1104 9.21133 8.17058 6.86299
266 1 -1.1104 11.957 5.3638 6.72838
265 1 -1.1104 12.113 8.36387 6.7787
269 1 -1.1104 9.08661 5.24156 6.62759
52 2 2.2208 13.3789 6.65796 8.1087
51 2 2.2208 13.5242 9.57525 10.9112
9093 2 2.2208 13.5056 12.3324 8.16951
264 1 -1.1104 9.50886 11.0154 9.51695
268 1 -1.1104 9.29727 5.38563 9.49939
270 1 -1.1104 9.19654 10.8546 12.3762
271 1 -1.1104 9.24454 5.29002 12.2527
272 2 2.2208 7.81461 9.59015 10.8737
273 1 -1.1104 9.11794 8.20037 9.65393
274 2 2.2208 7.85446 12.4612 8.0751
275 2 2.2208 7.93026 6.69304 8.14343
276 2 2.2208 10.6361 6.75846 10.9477
277 2 2.2208 10.7804 12.3541 10.9228
278 1 -1.1104 11.9882 8.03175 12.2523
279 1 -1.1104 11.9902 8.14853 9.47921
280 1 -1.1104 11.9891 5.40542 12.3405
281 1 -1.1104 12.0919 11.1202 12.3306
282 2 2.2208 10.5617 9.57781 8.0986
283 1 -1.1104 11.9304 5.34534 9.49422
284 1 -1.1104 12.1768 11.0624 9.49475
285 1 -1.1104 9.21966 8.10347 12.2862
83 1 -1.1104 12.3366 16.7564 12.1504
124 1 -1.1104 3.55374 13.7354 6.76853
112 1 -1.1104 6.64073 19.3461 6.72531
297 1 -1.1104 6.56082 13.7482 12.1756
290 1 -1.1104 6.58403 13.7928 9.5397
117 1 -1.1104 0.97915 16.5024 6.61615
306 1 -1.1104 6.43914 16.6354 12.2453
286 1 -1.1104 3.58365 19.3099 12.1778
287 1 -1.1104 3.63904 13.7012 12.3132
291 1 -1.1104 0.754277 19.2847 9.395
292 1 -1.1104 0.95248 16.553 9.42716
293 2 2.2208 5.03949 20.7524 7.82773
294 1 -1.1104 0.866367 13.7774 9.46121
295 2 2.2208 5.02589 15.0845 8.06245
298 1 -1.1104 0.754602 19.4181 12.2324
299 1 -1.1104 0.859436 13.9662 12.358
300 2 2.2208 5.07399 17.8851 10.8731
301 1 -1.1104 3.72233 19.2765 9.42624
303 2 2.2208 2.10047 18.0315 8.0377
304 1 -1.1104 3.70228 16.4319 9.40726
305 1 -1.1104 3.71429 13.6898 9.48163
307 1 -1.1104 1.04833 16.5788 12.1733
308 1 -1.1104 3.78045 16.4604 12.2702
309 2 2.2208 2.2984 20.7629 10.8497
310 2 2.2208 2.325 15.1008 10.8312
296 1 -1.1104 6.36841 19.3793 12.253
288 1 -1.1104 6.52799 19.1698 9.50065
28 2 2.2208 13.4032 20.856 10.9411
289 1 -1.1104 6.60497 16.3989 9.34789
9176 2 2.2208 13.5097 18.0216 8.06171
165 2 2.2208 7.9145 18.0002 8.08673
231 1 -1.1104 9.29173 16.597 9.4227
204 1 -1.1104 9.47562 16.5126 12.3258
137 1 -1.1104 9.07302 19.2946 12.3143
49 1 -1.1104 12.0693 19.4268 12.1932
202 2 2.2208 7.97758 15.1915 10.84
26 2 2.2208 10.6916 18.0057 10.7499
27 1 -1.1104 12.2084 13.8386 12.1948
104 2 2.2208 10.6918 15.1701 8.00857
203 2 2.2208 7.85534 20.7614 10.9011
143 1 -1.1104 12.1153 13.7317 6.64668
329 2 2.2208 7.95528 12.4709 13.611
349 2 2.2208 4.93115 6.86195 -0.302637
344 2 2.2208 10.701 1.04681 -0.325758
314 2 2.2208 13.5233 6.7056 13.5721
321 2 2.2208 7.84833 1.23596 13.6023
331 2 2.2208 5.08268 20.7305 13.6275
339 2 2.2208 2.34855 4.041 -0.346886
354 2 2.2208 10.6544 6.807 -0.300904
325 2 2.2208 5.12888 9.52205 13.6339
338 2 2.2208 2.17806 -1.71292 -0.314032
348 2 2.2208 13.5405 -1.63824 -0.330039
355 2 2.2208 7.86649 9.63022 -0.334099
356 2 2.2208 10.6636 12.4266 -0.272529
353 2 2.2208 10.7139 17.9382 -0.352778
350 2 2.2208 2.22393 9.6413 -0.313203
358 2 2.2208 5.08733 1.19214 16.6139
359 1 -1.1104 0.819771 -3.11573 17.7537
360 1 -1.1104 1.0055 2.62455 17.872
363 1 -1.1104 1.02322 -2.85696 14.9811
365 1 -1.1104 0.800082 2.64985 14.9781
371 1 -1.1104 0.807011 -0.211357 17.8634
373 2 2.2208 5.23472 -1.70688 19.4239
375 1 -1.1104 0.867556 -0.163148 15.1615
379 1 -1.1104 3.56359 -3.04642 17.9346
380 1 -1.1104 3.64688 2.55284 17.7875
381 2 2.2208 2.39624 1.14946 19.283
382 1 -1.1104 3.68608 -2.96439 15.0225
384 1 -1.1104 3.65561 2.51931 15.0005
386 2 2.2208 2.24919 -1.54796 16.4772
387 2 2.2208 2.16693 3.95564 16.5323
388 1 -1.1104 3.76412 -0.183935 17.9951
389 1 -1.1104 3.71105 -0.201253 15.1373
374 2 2.2208 5.08281 3.93906 19.3403
372 1 -1.1104 6.37291 -0.242195 18.071
369 1 -1.1104 6.34768 2.54406 15.2226
362 1 -1.1104 6.50529 2.53349 18.0425
361 1 -1.1104 6.49902 -3.06763 17.7135
367 1 -1.1104 6.33456 -3.00875 14.9462
377 1 -1.1104 6.48004 -0.110243 15.0832
327 2 2.2208 7.87896 6.66591 13.7017
318 2 2.2208 13.4815 1.27465 13.7537
593 2 2.2208 13.5154 15.0042 22.0456
364 1 -1.1104 0.710346 -2.94824 20.5424
316 2 2.2208 5.02137 -1.62218 13.7642
398 2 2.2208 13.4905 1.12168 19.4016
333 2 2.2208 10.8151 20.7237 13.6893
401 2 2.2208 10.7308 1.00929 16.5617
402 1 -1.1104 11.8952 -3.01447 17.8701
403 1 -1.1104 12.072 2.58989 18.0136
404 1 -1.1104 12.0019 -3.02783 15.0606
406 1 -1.1104 12.0872 2.37109 15.1753
408 1 -1.1104 12.0842 -0.210338 17.9249
409 2 2.2208 10.609 -1.6163 19.2308
410 2 2.2208 10.6171 3.85521 19.3332
411 1 -1.1104 12.057 -0.312054 15.1179
413 1 -1.1104 9.23217 -3.01233 17.759
414 1 -1.1104 9.33656 2.46227 18.0096
415 2 2.2208 7.83988 1.22583 19.3152
416 1 -1.1104 9.13379 -3.09606 14.9014
418 1 -1.1104 9.23739 2.50644 15.0717
420 2 2.2208 7.84925 -1.62341 16.5028
421 2 2.2208 7.76498 3.92222 16.4663
422 1 -1.1104 9.18357 -0.284443 17.9711
423 1 -1.1104 9.27623 -0.188999 15.1313
399 2 2.2208 13.3553 3.90733 16.6034
400 1 -1.1104 12.1752 13.8974 26.369
429 2 2.2208 13.483 -1.6579 16.4071
405 1 -1.1104 11.9845 -3.08317 20.7231
556 1 -1.1104 9.25435 16.4144 20.6002
412 1 -1.1104 12.0754 -0.389879 20.6677
684 1 -1.1104 6.39495 16.3973 26.3227
431 1 -1.1104 12.0259 16.483 23.3503
434 2 2.2208 4.99484 6.75162 16.4996
435 2 2.2208 5.11235 12.3775 16.484
436 1 -1.1104 0.741835 8.19526 17.8518
438 1 -1.1104 1.00409 8.08141 15.104
442 1 -1.1104 0.730847 5.27352 17.8276
443 1 -1.1104 1.01934 11.1156 17.788
446 2 2.2208 5.05441 9.67941 19.3415
447 1 -1.1104 0.729968 5.43271 15.0655
449 1 -1.1104 0.943396 10.8626 15.1114
455 1 -1.1104 3.59826 8.16234 17.886
456 2 2.2208 2.14389 6.81399 19.2292
457 2 2.2208 2.28338 12.4331 19.304
458 1 -1.1104 3.79212 8.14015 15.1371
460 2 2.2208 2.32058 9.62493 16.4757
461 1 -1.1104 3.4926 5.33711 17.9705
462 1 -1.1104 3.79899 10.9895 17.8983
463 1 -1.1104 3.57408 5.36435 15.2089
465 1 -1.1104 3.73299 10.8318 15.145
357 2 2.2208 7.81878 20.7658 27.5853
451 1 -1.1104 6.42074 5.35259 15.0803
453 1 -1.1104 6.41618 11.0409 15.0971
560 1 -1.1104 11.9605 19.2774 23.453
440 1 -1.1104 6.55312 8.20746 15.111
444 1 -1.1104 6.35782 5.32218 17.8707
437 1 -1.1104 6.5113 8.14707 18.0314
445 1 -1.1104 6.63367 10.9951 17.9045
450 1 -1.1104 0.793297 10.991 20.6583
464 1 -1.1104 3.72314 5.47296 20.5178
459 1 -1.1104 3.62138 8.20675 20.6531
441 1 -1.1104 6.40222 8.23194 20.8334
454 1 -1.1104 6.40968 11.0077 20.7112
470 2 2.2208 10.6171 6.87989 16.5743
471 2 2.2208 10.8526 12.4614 16.4356
472 1 -1.1104 12.0728 8.06542 18.0462
473 1 -1.1104 12.1565 8.13597 15.1524
475 1 -1.1104 11.9277 5.20179 18.0934
476 1 -1.1104 12.2871 10.8538 17.8622
477 2 2.2208 10.7271 9.45624 19.4382
478 1 -1.1104 11.9968 5.26224 15.2682
480 1 -1.1104 12.19 11.0176 15.0141
482 1 -1.1104 9.18196 8.2846 17.9147
483 2 2.2208 7.91102 6.76848 19.4746
484 2 2.2208 8.00907 12.3107 19.1919
485 1 -1.1104 9.26876 8.29487 15.2243
487 2 2.2208 7.91284 9.71164 16.5068
488 1 -1.1104 9.11313 5.32922 17.9541
489 1 -1.1104 9.50893 11.0837 17.9591
490 1 -1.1104 9.26211 5.38439 15.0741
492 1 -1.1104 9.38463 11.1274 15.1198
481 1 -1.1104 11.9857 10.8405 20.6789
620 2 2.2208 13.5274 12.341 19.2801
396 2 2.2208 13.5689 9.53254 16.4331
496 1 -1.1104 9.30279 13.6782 26.2944
621 2 2.2208 13.4558 6.54818 19.3058
653 2 2.2208 13.5078 20.7186 22.1896
549 1 -1.1104 9.45335 13.626 20.8197
469 1 -1.1104 9.22033 19.3091 23.4505
491 1 -1.1104 9.33051 5.32818 20.8296
493 1 -1.1104 9.29677 10.944 20.7374
497 2 2.2208 5.03092 17.8931 16.462
498 1 -1.1104 0.981253 13.7361 17.8518
499 1 -1.1104 1.0453 19.4076 17.895
502 1 -1.1104 0.868778 13.809 15.0835
504 1 -1.1104 0.920279 19.4526 15.0117
510 1 -1.1104 0.948547 16.6103 17.5969
512 2 2.2208 5.02318 15.2415 19.2765
513 2 2.2208 5.04905 20.7061 19.2289
514 1 -1.1104 0.822755 16.7051 15.0111
518 1 -1.1104 3.77675 13.6889 17.923
519 1 -1.1104 3.60576 19.4059 17.9258
520 2 2.2208 2.25746 17.9954 19.3783
521 1 -1.1104 3.72733 13.7279 15.0761
523 1 -1.1104 3.67463 19.3479 15.0317
525 2 2.2208 2.36972 15.1691 16.3909
526 2 2.2208 2.15838 20.7244 16.3876
527 1 -1.1104 3.616 16.5124 17.8274
528 1 -1.1104 3.6989 16.5786 14.8778
468 1 -1.1104 9.45863 13.8392 23.4677
508 1 -1.1104 6.45536 19.4189 15.0945
516 1 -1.1104 6.59458 16.5809 15.0892
506 1 -1.1104 6.61434 13.8398 14.985
500 1 -1.1104 6.53077 13.8315 17.8302
501 1 -1.1104 6.32946 19.2758 17.8969
509 1 -1.1104 6.50411 19.4173 20.6418
529 1 -1.1104 3.57195 16.59 20.7214
511 1 -1.1104 6.30477 16.5767 17.8576
524 1 -1.1104 3.68955 19.2278 20.7331
522 1 -1.1104 3.75448 13.7729 20.6097
505 1 -1.1104 0.760592 19.2427 20.6974
515 1 -1.1104 0.835552 16.4668 20.6605
433 2 2.2208 10.6254 20.6956 24.913
533 2 2.2208 10.7219 17.9925 16.4916
534 1 -1.1104 12.0643 13.7751 17.8456
535 1 -1.1104 12.2373 19.4076 17.976
536 1 -1.1104 12.1719 13.9799 15.023
538 1 -1.1104 12.0327 19.4679 15.2146
540 1 -1.1104 11.9595 16.5817 17.9119
541 2 2.2208 10.5708 15.009 19.4036
542 2 2.2208 10.8054 20.701 19.2648
543 1 -1.1104 12.1062 16.7628 14.9969
545 1 -1.1104 9.31014 13.8154 17.9627
546 1 -1.1104 9.34981 19.3745 17.831
547 2 2.2208 7.87562 17.9536 19.2332
548 1 -1.1104 9.41449 13.952 15.036
550 1 -1.1104 9.20727 19.345 15.1447
552 2 2.2208 7.8628 15.2709 16.3949
553 2 2.2208 7.88364 20.7642 16.4892
554 1 -1.1104 9.15701 16.6063 17.7619
555 1 -1.1104 9.465 16.6448 15.1034
537 1 -1.1104 12.284 13.5889 20.8481
589 2 2.2208 13.5426 15.2323 16.6582
430 2 2.2208 13.5422 20.7026 16.4887
588 2 2.2208 13.5738 17.8684 19.3404
530 1 -1.1104 9.23484 19.353 26.3636
425 1 -1.1104 12.0445 19.3034 26.1697
376 1 -1.1104 0.903248 -0.187178 20.6844
366 1 -1.1104 0.787035 2.70684 20.7785
383 1 -1.1104 3.73235 -3.00804 20.8023
390 1 -1.1104 3.7869 -0.137106 20.7409
368 1 -1.1104 6.50302 -3.14499 20.5901
531 2 2.2208 7.91774 15.1747 21.972
385 1 -1.1104 3.56117 2.65849 20.6928
561 2 2.2208 5.0162 1.11735 22.1531
562 1 -1.1104 0.750914 -3.05195 23.4227
563 1 -1.1104 0.856767 2.68391 23.4136
566 1 -1.1104 0.942978 -3.16784 26.3658
567 1 -1.1104 0.763071 2.71873 26.3223
570 1 -1.1104 0.787695 -0.204888 23.4215
572 2 2.2208 5.09279 -1.66461 24.8651
574 1 -1.1104 0.763911 -0.180898 26.3303
576 1 -1.1104 3.58867 -3.01788 23.5469
577 1 -1.1104 3.7473 2.75849 23.3166
578 2 2.2208 2.04707 1.30634 24.8283
579 1 -1.1104 3.53325 -3.23126 26.3808
580 1 -1.1104 3.59429 2.49031 26.2265
581 2 2.2208 2.22984 -1.6484 22.1008
583 1 -1.1104 3.61629 -0.174612 23.5228
584 1 -1.1104 3.60914 -0.53219 26.3158
582 2 2.2208 2.2208 4.07592 22.0052
573 2 2.2208 5.03216 4.02455 24.774
370 1 -1.1104 6.41578 2.61063 20.7152
568 1 -1.1104 6.38141 -3.1666 26.0791
571 1 -1.1104 6.3964 -0.291662 23.5262
565 1 -1.1104 6.49392 2.5818 23.4888
378 1 -1.1104 6.5495 -0.275631 20.7781
575 1 -1.1104 6.58144 -0.33849 26.3246
569 1 -1.1104 6.41937 2.57095 26.2022
564 1 -1.1104 6.32659 -3.06195 23.4649
586 2 2.2208 10.6393 17.8884 22.0168
557 1 -1.1104 9.30393 16.564 23.3332
558 1 -1.1104 9.30134 16.5719 26.2655
419 1 -1.1104 9.29816 2.59663 20.6303
407 1 -1.1104 12.0885 2.50184 20.7323
424 1 -1.1104 9.22526 -0.24875 20.8664
623 2 2.2208 13.4193 -1.80712 22.0989
417 1 -1.1104 9.34947 -3.11213 20.5866
597 2 2.2208 10.7422 1.13543 22.1196
598 1 -1.1104 11.9946 -2.9792 23.5549
599 1 -1.1104 12.3061 2.3696 23.3823
600 1 -1.1104 12.0444 -3.11582 26.3586
601 1 -1.1104 11.9073 2.5787 26.2652
602 1 -1.1104 11.9212 -0.322529 23.5251
603 2 2.2208 10.6525 -1.74305 24.9723
604 2 2.2208 10.5268 3.90218 24.9889
605 1 -1.1104 12.1767 -0.264104 26.4256
606 1 -1.1104 9.3404 -3.03122 23.6255
607 1 -1.1104 9.41389 2.58915 23.4879
608 2 2.2208 7.8885 1.12572 24.9916
609 1 -1.1104 9.17953 -3.09498 26.3319
610 1 -1.1104 9.20669 2.50231 26.2903
611 2 2.2208 7.89743 -1.6824 22.0663
612 2 2.2208 7.86596 4.08792 22.0648
613 1 -1.1104 9.21722 -0.12567 23.543
614 1 -1.1104 9.30904 -0.313279 26.3909
624 2 2.2208 13.4565 1.11503 24.8566
393 2 2.2208 13.5259 3.88921 22.0918
432 2 2.2208 10.7118 15.2082 24.9204
439 1 -1.1104 0.787355 8.32078 20.8258
466 1 -1.1104 3.58849 11.0327 20.8044
448 1 -1.1104 0.804779 5.46978 20.6071
452 1 -1.1104 6.52608 5.33117 20.6268
626 2 2.2208 5.10186 6.81518 22.0806
627 2 2.2208 5.11147 12.4312 22.0377
628 1 -1.1104 0.845833 8.33329 23.5078
630 1 -1.1104 0.708527 8.22582 26.4583
632 1 -1.1104 0.811591 5.51249 23.3933
633 1 -1.1104 0.980318 11.0125 23.4859
636 2 2.2208 5.12872 9.67892 24.9623
637 1 -1.1104 0.863991 5.41572 26.1718
638 1 -1.1104 0.853082 11.0222 26.1744
641 1 -1.1104 3.6602 8.15334 23.5297
642 2 2.2208 2.19309 6.80483 24.8348
643 2 2.2208 2.27686 12.3227 24.9685
644 1 -1.1104 3.67329 8.16044 26.2242
645 2 2.2208 2.26386 9.65777 22.1408
646 1 -1.1104 3.56375 5.36659 23.4901
647 1 -1.1104 3.67128 11.0048 23.5803
648 1 -1.1104 3.66762 5.40313 26.2864
649 1 -1.1104 3.61887 10.8289 26.3391
639 1 -1.1104 6.38505 5.48207 26.3403
629 1 -1.1104 6.45967 8.26323 23.5944
634 1 -1.1104 6.40328 5.42687 23.5464
635 1 -1.1104 6.44745 11.0981 23.4524
631 1 -1.1104 6.3966 8.22282 26.5417
640 1 -1.1104 6.4261 10.8946 26.2654
474 1 -1.1104 12.2159 8.16093 20.6665
479 1 -1.1104 12.1599 5.37443 20.8821
486 1 -1.1104 9.27519 8.17363 20.9122
680 2 2.2208 13.4994 6.68038 25.0172
392 2 2.2208 13.5128 9.48672 22.1118
657 1 -1.1104 9.2653 10.9911 26.529
658 1 -1.1104 9.17108 5.35298 26.332
659 1 -1.1104 9.32271 11.0422 23.6911
660 1 -1.1104 9.2529 5.45377 23.4927
661 2 2.2208 7.87436 9.59377 22.1315
662 1 -1.1104 9.16213 8.1911 26.3581
663 2 2.2208 7.89325 12.4537 24.8374
664 2 2.2208 7.74899 6.8738 25.0292
665 2 2.2208 10.6215 6.7039 22.2217
666 2 2.2208 10.6743 12.2811 22.1614
667 1 -1.1104 12.0588 8.26398 23.7171
668 1 -1.1104 12.0461 8.16754 26.4471
669 1 -1.1104 12.027 5.16389 23.5356
670 1 -1.1104 12.1318 10.8936 23.4801
671 2 2.2208 10.7283 9.61725 25.079
672 1 -1.1104 11.9974 5.42081 26.5446
673 1 -1.1104 12.0267 11.105 26.4543
674 1 -1.1104 9.24198 8.36527 23.581
678 2 2.2208 13.4667 12.3115 24.9944
467 1 -1.1104 12.1296 16.6165 26.1947
585 1 -1.1104 12.1836 13.6543 23.5731
679 1 -1.1104 6.49639 19.2839 23.4918
503 1 -1.1104 0.697571 13.6701 20.6099
517 1 -1.1104 6.45089 16.6064 20.7604
587 2 2.2208 2.29606 15.1582 22.1138
590 2 2.2208 2.28736 20.6248 22.1344
615 1 -1.1104 3.53482 16.4737 23.5551
616 1 -1.1104 0.801246 16.4497 23.4943
619 1 -1.1104 3.60706 13.7302 26.2567
622 1 -1.1104 3.6087 16.6383 26.234
650 2 2.2208 2.20487 18.0336 24.877
651 1 -1.1104 3.71334 19.5044 26.2842
652 2 2.2208 4.92548 17.8087 22.212
654 1 -1.1104 0.796087 13.779 23.5485
656 1 -1.1104 0.806981 19.5085 23.4558
676 2 2.2208 4.99201 15.1353 24.9012
677 2 2.2208 5.09963 20.7706 24.9111
681 1 -1.1104 3.61724 19.127 23.4689
683 1 -1.1104 3.61225 13.789 23.3929
685 1 -1.1104 0.855629 19.3581 26.3268
686 1 -1.1104 0.812923 16.6553 26.2274
687 1 -1.1104 0.801953 13.8458 26.1533
617 1 -1.1104 6.47775 16.613 23.5764
675 1 -1.1104 6.28787 13.7752 23.4055
682 1 -1.1104 6.42981 13.593 26.2241
539 1 -1.1104 12.0421 19.1902 20.7745
507 1 -1.1104 6.6406 13.7594 20.602
495 1 -1.1104 6.32284 19.2521 26.3448
544 1 -1.1104 12.2878 16.3469 20.4926
625 2 2.2208 13.3581 17.9252 24.7385
494 2 2.2208 7.83335 17.9819 24.8909
532 2 2.2208 7.93209 20.6741 21.9596
551 1 -1.1104 9.32175 19.2382 20.5391
341 2 2.2208 4.95836 17.9 27.6662
345 2 2.2208 7.84921 -1.77972 27.6711
351 2 2.2208 4.97211 12.4074 27.6774
9209 2 2.2208 13.4896 15.1781 27.6984
324 2 2.2208 2.19105 6.76089 13.7285
335 2 2.2208 7.86041 17.9316 13.684
317 2 2.2208 2.26003 1.25426 13.7681
319 2 2.2208 4.90823 3.96481 13.7371
340 2 2.2208 2.19605 15.1501 27.557
328 2 2.2208 10.6841 9.57662 13.7461
346 2 2.2208 7.79576 3.9371 27.6555
323 2 2.2208 10.7362 3.90012 13.7618
322 2 2.2208 10.6708 -1.67485 13.6911
337 2 2.2208 4.96482 1.11314 27.6493
9208 2 2.2208 13.5231 20.7366 27.6557
326 2 2.2208 2.26959 12.4455 13.7593
347 2 2.2208 13.5643 12.4567 13.7306
688 2 2.2208 5.22158 23.5072 5.18148
689 2 2.2208 5.09569 29.1033 5.21588
690 1 -1.1104 0.788651 24.8277 1.06202
691 1 -1.1104 0.893159 24.8995 3.83632
692 1 -1.1104 1.02643 22.0871 1.04625
693 1 -1.1104 1.02355 27.698 0.972787
694 2 2.2208 5.18219 26.4389 2.43104
695 1 -1.1104 0.958485 22.1297 3.76811
696 1 -1.1104 0.867458 27.7891 3.83496
697 1 -1.1104 3.75829 24.9894 1.11834
698 2 2.2208 2.34614 23.5542 2.50348
699 2 2.2208 2.40752 29.0345 2.402
700 1 -1.1104 3.65681 24.8476 3.96218
701 2 2.2208 2.391 26.3478 5.22744
702 1 -1.1104 3.74087 22.1068 1.06777
703 1 -1.1104 3.76439 27.6648 0.912676
704 1 -1.1104 3.8308 22.1725 3.74022
705 1 -1.1104 3.69633 27.7288 3.76822
714 1 -1.1104 6.58541 27.676 3.79877
709 1 -1.1104 6.47117 25.1661 1.08646
711 1 -1.1104 6.63887 22.246 0.904938
710 1 -1.1104 6.54667 25.0001 3.82271
713 1 -1.1104 6.61991 22.0557 3.72692
9778 2 2.2208 -0.354254 31.9695 8.11127
836 1 -1.1104 3.61425 22.1179 6.52751
712 1 -1.1104 6.50485 27.9824 1.00519
831 1 -1.1104 0.80415 22.1341 6.66938
1021 2 2.2208 7.86968 31.9983 -0.344887
9843 2 2.2208 13.6009 29.2183 2.41994
9844 2 2.2208 13.5796 26.431 5.25291
715 2 2.2208 10.6198 23.4532 5.20178
716 2 2.2208 10.7569 29.1811 5.24882
717 1 -1.1104 11.97 24.9313 1.08586
718 1 -1.1104 12.067 25.0404 3.85155
719 1 -1.1104 12.2055 22.0835 0.997561
720 1 -1.1104 12.0593 27.8037 0.99868
721 2 2.2208 10.6056 26.2705 2.42646
722 1 -1.1104 12.1499 22.0932 3.77975
723 1 -1.1104 12.1765 27.7992 3.71594
724 1 -1.1104 9.30093 24.9367 0.885286
725 2 2.2208 7.83986 23.5538 2.3919
726 2 2.2208 7.85655 29.1481 2.40111
727 1 -1.1104 9.24626 25 3.67617
728 2 2.2208 8.01543 26.4048 5.13779
729 1 -1.1104 9.35197 22.0615 1.01485
730 1 -1.1104 9.12988 27.6088 1.08028
731 1 -1.1104 9.41591 22.1372 3.79432
732 1 -1.1104 9.31221 27.8039 3.82668
865 1 -1.1104 9.38618 24.9914 6.52433
867 1 -1.1104 9.35857 27.7306 6.58497
9842 2 2.2208 13.4593 23.4956 2.56708
833 1 -1.1104 6.53598 22.1074 6.42742
1014 2 2.2208 10.6322 23.5541 -0.334597
989 2 2.2208 10.7102 26.2956 13.6406
736 2 2.2208 5.2333 34.7501 5.22563
737 1 -1.1104 1.02126 30.5586 0.890403
738 1 -1.1104 0.81815 36.2186 1.0089
740 1 -1.1104 0.978197 30.5466 3.79867
741 1 -1.1104 0.881339 36.1902 3.87669
743 1 -1.1104 0.986846 33.3015 0.954142
744 2 2.2208 5.0964 31.9222 2.27362
745 2 2.2208 5.21632 37.5778 2.45081
746 1 -1.1104 0.911727 33.458 3.87166
748 1 -1.1104 3.61228 30.5298 0.997773
749 1 -1.1104 3.69908 36.2174 1.01351
750 2 2.2208 2.36378 34.8248 2.36679
751 1 -1.1104 3.65644 30.4149 3.68195
752 1 -1.1104 3.84585 36.2285 3.7231
753 2 2.2208 2.34074 31.9513 5.23076
754 2 2.2208 2.32332 37.6679 5.15158
755 1 -1.1104 3.80249 33.3738 0.871035
756 1 -1.1104 3.68038 33.3494 3.70605
1523 1 -1.1104 6.79461 47.3962 6.62226
742 1 -1.1104 6.55341 36.0644 3.79058
762 1 -1.1104 6.47964 33.4063 0.970052
761 1 -1.1104 6.56254 30.6204 3.83893
888 1 -1.1104 6.61009 30.6155 6.54862
892 1 -1.1104 3.80697 30.6245 6.66994
890 1 -1.1104 1.03572 33.4427 6.67958
894 1 -1.1104 3.82794 33.4165 6.60275
887 1 -1.1104 0.958983 36.1988 6.66416
984 2 2.2208 7.92065 43.3015 10.8677
739 1 -1.1104 6.36969 36.181 0.990081
747 1 -1.1104 6.59383 33.2393 3.72421
760 1 -1.1104 6.41092 30.5425 1.0672
891 1 -1.1104 6.62876 33.3452 6.55481
763 2 2.2208 10.7637 34.7471 5.33256
764 1 -1.1104 12.171 30.5242 0.922697
765 1 -1.1104 12.2794 36.1221 1.07995
766 1 -1.1104 12.1854 30.411 3.79585
767 1 -1.1104 12.2583 36.2121 3.89602
768 1 -1.1104 11.9804 33.2732 1.19119
769 2 2.2208 10.7131 31.9522 2.47485
770 2 2.2208 10.8373 37.5268 2.53598
771 1 -1.1104 12.2518 33.3661 3.97549
772 1 -1.1104 9.21944 30.6953 1.20217
773 1 -1.1104 9.57135 36.2657 0.974731
774 2 2.2208 7.97754 34.7932 2.53255
775 1 -1.1104 9.3165 30.5264 3.94727
776 1 -1.1104 9.49197 36.224 3.93626
777 2 2.2208 7.96762 31.9025 5.15718
778 2 2.2208 7.96128 37.6285 5.37973
779 1 -1.1104 9.31332 33.5632 0.983854
780 1 -1.1104 9.3757 33.3304 3.79048
9587 2 2.2208 13.5494 31.9559 5.29398
9848 2 2.2208 13.5509 34.7868 2.46825
1331 1 -1.1104 1.03168 47.451 3.86539
1555 1 -1.1104 9.59019 47.4403 6.65527
1346 1 -1.1104 3.84575 47.4033 0.984952
9867 2 2.2208 13.6645 37.6377 -0.250352
920 1 -1.1104 12.1127 30.6689 6.60456
9582 2 2.2208 13.4694 37.6567 5.20908
9854 2 2.2208 -0.329021 37.5091 8.04564