ITEM: TIMESTEP
10000
ITEM: NUMBER OF ATOMS
17910
ITEM: BOX BOUNDS pp pp pp
-3.5901968602808215e-01 2.7699019686027903e+01
-4.3127726087687819e+00 3.3239277260876787e+02
-3.6314355067857851e-01 2.7703143550678451e+01
ITEM: ATOMS id type q x y z
1 2 2.2208 5.06752 1.54177 5.25323
2 1 -1.1104 0.856733 -2.9264 0.989544
3 1 -1.1104 0.750946 2.78871 1.23871
6 1 -1.1104 0.828277 -2.79667 3.85981
7 1 -1.1104 0.920522 2.74212 3.98672
10 1 -1.1104 0.962373 0.0072975 1.101
12 2 2.2208 5.09723 -1.39533 2.39973
13 2 2.2208 5.05778 4.09634 2.51679
14 1 -1.1104 0.985635 -0.00188376 3.81879
16 1 -1.1104 3.67458 -2.7077 1.06202
17 1 -1.1104 3.62014 2.79294 1.02566
18 2 2.2208 2.16431 1.40375 2.41599
19 1 -1.1104 3.70003 -2.82089 3.84553
20 1 -1.1104 3.58074 2.84684 3.9452
21 2 2.2208 2.26965 -1.47549 5.21754
22 2 2.2208 2.23485 4.16305 5.30514
23 1 -1.1104 3.57267 0.167558 1.04885
24 1 -1.1104 3.6897 0.00573939 4.00468
9 1 -1.1104 6.43508 2.80649 3.88439
8 1 -1.1104 6.62724 -2.67556 3.77932
4 1 -1.1104 6.39259 -2.90496 1.11537
11 1 -1.1104 6.52308 -0.0292418 0.911271
50 2 2.2208 13.5669 -1.52217 5.32106
5 1 -1.1104 6.44877 2.84875 1.16227
350 2 2.2208 2.36394 9.71108 -0.246325
345 2 2.2208 7.98276 -1.43838 -0.292319
8450 2 2.2208 10.5877 -4.2464 5.3599
168 1 -1.1104 6.31102 -2.84895 6.44822
170 1 -1.1104 0.906483 0.0344276 6.77754
15 1 -1.1104 6.50547 0.100421 3.72816
31 2 2.2208 10.6032 1.36727 5.24488
32 1 -1.1104 12.0147 -2.93935 0.984743
33 1 -1.1104 12.2044 2.82239 1.1006
34 1 -1.1104 12.1548 -2.85225 3.80657
35 1 -1.1104 12.0869 2.7772 3.79735
36 1 -1.1104 11.9823 -0.181131 1.17362
37 2 2.2208 10.648 -1.44607 2.56117
39 1 -1.1104 12.0363 0.029501 3.91232
40 1 -1.1104 9.33799 -2.86191 1.15373
41 1 -1.1104 9.29808 2.84515 1.10027
42 2 2.2208 7.85462 1.46962 2.45833
43 1 -1.1104 9.33224 -2.78847 3.92432
44 1 -1.1104 9.37607 2.88302 4.00807
45 2 2.2208 7.82385 -1.47495 5.31907
46 2 2.2208 7.99837 4.2074 5.23288
47 1 -1.1104 9.24741 -0.0329164 1.0621
48 1 -1.1104 9.30394 -0.149816 3.96998
38 2 2.2208 10.6747 4.21293 2.60662
8452 2 2.2208 2.33933 -4.1391 8.09155
344 2 2.2208 10.8536 1.41807 -0.358253
8881 2 2.2208 13.4918 4.3165 5.37429
346 2 2.2208 7.95699 4.08581 -0.222843
208 1 -1.1104 9.17634 -2.90344 6.67572
206 1 -1.1104 12.1771 2.86812 6.6175
210 1 -1.1104 9.21394 0.0361548 6.65783
54 2 2.2208 4.98261 6.95327 5.29771
55 2 2.2208 5.26689 12.6953 5.27052
56 1 -1.1104 0.877154 8.37496 1.02686
58 1 -1.1104 0.88877 8.35036 3.86418
60 1 -1.1104 0.945343 5.66218 0.91282
61 1 -1.1104 0.713057 11.2245 1.20714
66 2 2.2208 5.09369 9.80853 2.57013
67 1 -1.1104 0.900065 5.55441 3.76587
68 1 -1.1104 0.964171 11.1968 3.99453
71 1 -1.1104 3.72296 8.34224 1.10036
72 2 2.2208 2.34252 6.9055 2.43265
73 2 2.2208 2.25499 12.509 2.52121
74 1 -1.1104 3.71795 8.42976 3.99032
75 2 2.2208 2.39947 9.71182 5.38189
76 1 -1.1104 3.92449 5.56906 1.06841
77 1 -1.1104 3.74321 11.1822 1.15095
79 1 -1.1104 3.54859 5.6703 3.98987
80 1 -1.1104 3.75557 11.2432 3.83218
69 1 -1.1104 6.33711 5.4226 3.95854
8451 2 2.2208 13.5444 -4.239 2.50556
8910 2 2.2208 13.642 9.87646 5.37085
70 1 -1.1104 6.54788 11.1554 3.90743
63 1 -1.1104 6.57847 5.51464 1.20429
64 1 -1.1104 6.50422 11.0823 1.21608
57 1 -1.1104 6.49063 8.35607 1.06365
59 1 -1.1104 6.37969 8.26607 3.83824
8456 2 2.2208 10.7194 -4.18468 10.9279
356 2 2.2208 10.7279 12.6054 -0.343153
8457 2 2.2208 13.5155 -4.18693 8.12833
84 2 2.2208 10.6659 6.98327 5.35765
85 2 2.2208 10.7063 12.7132 5.27107
86 1 -1.1104 12.313 8.53392 0.970232
87 1 -1.1104 12.1065 8.48454 3.87337
88 1 -1.1104 12.1707 5.4913 1.04056
89 1 -1.1104 12.0985 11.2754 0.992075
91 2 2.2208 10.7521 9.8859 2.57073
92 1 -1.1104 12.1079 5.76547 4.05637
93 1 -1.1104 12.1505 11.2485 3.8856
94 1 -1.1104 9.38971 8.49444 1.14169
95 2 2.2208 7.81807 7.05887 2.54994
96 2 2.2208 7.85437 12.6582 2.48819
97 1 -1.1104 9.17286 8.53148 3.89856
98 2 2.2208 7.85002 9.74457 5.24441
99 1 -1.1104 9.32985 5.59027 1.03863
100 1 -1.1104 9.31054 11.3203 1.02628
102 1 -1.1104 9.36252 5.74421 3.84966
103 1 -1.1104 9.40212 11.179 3.88928
352 2 2.2208 7.86018 15.479 -0.319813
348 2 2.2208 13.5312 -1.47587 -0.302108
266 1 -1.1104 12.0629 5.74221 6.73858
342 2 2.2208 2.34738 20.948 -0.305812
106 2 2.2208 5.07875 18.2897 5.2332
107 1 -1.1104 1.12671 14.0448 1.12969
109 1 -1.1104 0.887657 19.519 1.00394
113 1 -1.1104 0.993855 13.9794 3.93617
114 1 -1.1104 0.935633 19.5655 3.97299
116 1 -1.1104 0.907479 16.8042 1.14888
119 2 2.2208 5.24834 15.4043 2.50686
120 2 2.2208 5.09472 20.938 2.44212
121 1 -1.1104 0.993341 16.8066 3.92383
123 1 -1.1104 3.80341 13.9381 0.982049
125 1 -1.1104 3.57873 19.5422 1.1456
127 2 2.2208 2.34424 18.0841 2.53043
128 1 -1.1104 3.7613 14.008 3.93681
129 1 -1.1104 3.67743 19.6854 3.91129
130 2 2.2208 2.44526 15.3846 5.3077
131 2 2.2208 2.1808 21.001 5.35081
132 1 -1.1104 3.71344 16.6745 1.16579
134 1 -1.1104 3.78839 16.7788 3.74999
122 1 -1.1104 6.61549 16.8487 3.92331
110 1 -1.1104 6.49569 14.0198 0.959528
140 1 -1.1104 6.53885 16.8101 1.10019
341 2 2.2208 5.05817 18.0754 -0.275928
138 1 -1.1104 6.53454 19.543 1.01098
139 1 -1.1104 6.54989 19.715 3.82363
111 1 -1.1104 6.51762 14.048 6.6252
52 2 2.2208 13.5354 7.05553 8.09228
51 2 2.2208 13.4474 9.86606 10.8046
9077 2 2.2208 13.534 12.5738 2.47836
8447 2 2.2208 5.1514 -4.27696 5.1111
8908 2 2.2208 13.508 18.2073 2.52517
115 1 -1.1104 6.57084 14.0726 3.90477
141 2 2.2208 10.8576 18.2408 5.34971
142 1 -1.1104 12.0651 14.0874 1.01035
144 1 -1.1104 12.111 19.5784 1.13528
146 1 -1.1104 12.2002 14.0482 3.87327
147 1 -1.1104 12.1797 19.5522 3.86037
148 1 -1.1104 12.1515 16.9078 1.17609
150 2 2.2208 10.6926 15.4073 2.55794
151 2 2.2208 10.7484 21.072 2.43314
152 1 -1.1104 12.2322 16.8578 4.00254
153 1 -1.1104 9.26464 14.177 1.19838
155 1 -1.1104 9.2923 19.616 1.27304
157 2 2.2208 7.92696 18.2302 2.54236
158 1 -1.1104 9.37334 14.0907 3.85535
159 1 -1.1104 9.41449 19.568 3.9084
160 2 2.2208 7.99422 15.3497 5.27419
161 2 2.2208 8.00999 21.0698 5.32531
162 1 -1.1104 9.34304 16.8706 1.18054
164 1 -1.1104 9.3533 16.8087 3.92119
8979 2 2.2208 13.5647 15.3623 5.29589
8958 2 2.2208 13.5669 20.9022 5.27735
145 1 -1.1104 12.154 19.5627 6.78825
143 1 -1.1104 12.0342 14.0076 6.67093
149 1 -1.1104 12.2424 16.8174 6.76202
166 1 -1.1104 0.743315 -2.90804 6.63372
172 1 -1.1104 3.54228 -2.78988 6.63479
53 2 2.2208 13.6209 4.22767 10.8999
8465 2 2.2208 5.06329 -4.1597 -0.280715
81 1 -1.1104 12.2277 14.1644 9.49004
167 1 -1.1104 0.803891 2.78855 6.80704
171 1 -1.1104 6.53428 -0.113737 6.80273
174 1 -1.1104 3.75262 0.130316 6.79797
173 1 -1.1104 3.63793 2.8536 6.74297
175 2 2.2208 5.1789 1.49227 11.0523
176 1 -1.1104 0.992825 -2.87484 12.1052
177 1 -1.1104 0.820323 2.79086 12.3544
180 1 -1.1104 0.848619 -2.88647 9.38411
181 1 -1.1104 0.993406 2.78472 9.5574
184 1 -1.1104 1.05229 -0.124666 12.3157
186 2 2.2208 5.03493 -1.36007 8.03485
187 2 2.2208 5.15347 4.18851 8.09537
188 1 -1.1104 0.911623 -0.0872787 9.49479
190 1 -1.1104 3.64573 -2.83066 12.3581
191 1 -1.1104 3.73812 2.77656 12.5879
192 2 2.2208 2.3233 1.40239 8.17669
193 1 -1.1104 3.74656 -2.92782 9.50216
194 1 -1.1104 3.8347 2.80127 9.50367
195 2 2.2208 2.3769 -1.45101 10.8371
196 2 2.2208 2.30788 4.16127 11.023
197 1 -1.1104 3.66486 0.0353616 12.3983
198 1 -1.1104 3.63011 -0.100893 9.53952
179 1 -1.1104 6.57067 2.94888 12.4165
185 1 -1.1104 6.41341 0.124031 12.3669
178 1 -1.1104 6.61573 -2.56993 12.2185
183 1 -1.1104 6.5947 2.70653 9.61327
189 1 -1.1104 6.38861 0.0947354 9.43516
9076 2 2.2208 13.6073 7.10198 2.50136
169 1 -1.1104 6.62001 2.79641 6.73468
182 1 -1.1104 6.51424 -2.72846 9.32842
207 1 -1.1104 12.1486 -0.0293109 6.61923
205 1 -1.1104 11.9584 -2.92019 6.7032
209 1 -1.1104 9.43428 2.73076 6.82007
154 1 -1.1104 9.34532 14.1178 6.71259
230 2 2.2208 13.5214 -1.50211 11.004
211 2 2.2208 10.8108 1.32186 10.9915
212 1 -1.1104 12.1152 -2.93456 12.2816
213 1 -1.1104 12.2152 2.83641 12.2805
214 1 -1.1104 12.2747 -2.72007 9.43836
215 1 -1.1104 12.0644 2.91201 9.53069
216 1 -1.1104 12.0592 -0.0958826 12.4173
217 2 2.2208 10.6679 -1.47369 8.01917
218 2 2.2208 10.6624 4.10049 8.18589
219 1 -1.1104 12.1745 0.134596 9.48615
220 1 -1.1104 9.28653 -2.70883 12.2789
221 1 -1.1104 9.40338 2.66988 12.3248
222 2 2.2208 7.94947 1.33576 8.10322
223 1 -1.1104 9.48267 -2.84133 9.47587
224 1 -1.1104 9.30466 2.65662 9.50661
225 2 2.2208 7.93581 -1.36337 10.9737
226 2 2.2208 8.00547 4.15297 10.9128
227 1 -1.1104 9.28387 -0.0147431 12.2948
228 1 -1.1104 9.33841 -0.214681 9.53164
9208 2 2.2208 13.5902 20.9816 -0.293219
234 1 -1.1104 1.07326 8.28314 6.7982
235 1 -1.1104 6.63726 8.38284 6.60969
78 1 -1.1104 3.85697 11.1598 6.81936
65 1 -1.1104 6.58332 11.1593 6.80709
62 1 -1.1104 0.952522 11.2055 6.60195
239 1 -1.1104 3.7277 5.56182 6.76369
238 1 -1.1104 3.8223 8.40908 6.7659
236 1 -1.1104 0.830998 5.53154 6.59799
240 2 2.2208 5.27851 6.85061 11.0226
241 2 2.2208 5.11887 12.5765 10.9095
242 1 -1.1104 0.878054 8.45156 12.2629
244 1 -1.1104 1.032 8.29034 9.52935
246 1 -1.1104 1.01881 5.62029 12.1904
247 1 -1.1104 0.920942 11.2037 12.3253
250 2 2.2208 5.17489 9.86515 8.2654
251 1 -1.1104 0.792915 5.52302 9.44293
252 1 -1.1104 1.06228 11.3352 9.49746
255 1 -1.1104 3.65967 8.43501 12.4426
256 2 2.2208 2.48369 6.88927 8.32253
257 2 2.2208 2.33548 12.6043 8.00685
258 1 -1.1104 3.92834 8.34361 9.62211
259 2 2.2208 2.41627 9.79876 10.9114
260 1 -1.1104 3.84128 5.46927 12.3919
261 1 -1.1104 3.85003 11.1639 12.2352
262 1 -1.1104 3.93184 5.61016 9.56041
263 1 -1.1104 3.75635 11.1762 9.59339
245 1 -1.1104 6.64522 8.36483 9.47964
249 1 -1.1104 6.46264 11.1195 12.4616
254 1 -1.1104 6.4887 11.2205 9.6201
253 1 -1.1104 6.65699 5.55702 9.68624
243 1 -1.1104 6.56885 8.42027 12.3198
248 1 -1.1104 6.5997 5.68963 12.4683
237 1 -1.1104 6.53357 5.49407 6.76316
265 1 -1.1104 12.4039 8.52481 6.72519
101 1 -1.1104 9.26148 11.3375 6.82566
269 1 -1.1104 9.20998 5.56533 6.72048
267 1 -1.1104 9.43327 8.31642 6.79167
311 1 -1.1104 9.22538 14.0225 9.52276
82 1 -1.1104 12.0386 19.6429 9.57275
90 1 -1.1104 12.114 11.1649 6.6924
264 1 -1.1104 9.34329 11.235 9.62626
268 1 -1.1104 9.44094 5.60298 9.6169
270 1 -1.1104 9.49125 10.9845 12.3067
271 1 -1.1104 9.35197 5.54051 12.3762
272 2 2.2208 7.96719 9.6119 10.8874
273 1 -1.1104 9.36794 8.40733 9.5817
274 2 2.2208 7.86643 12.7272 8.13709
275 2 2.2208 7.98677 7.0285 8.0909
276 2 2.2208 10.8347 7.06519 10.8017
277 2 2.2208 10.8347 12.7164 10.9361
278 1 -1.1104 12.3192 8.39386 12.5185
279 1 -1.1104 12.1143 8.52037 9.47835
280 1 -1.1104 12.0584 5.66826 12.3103
281 1 -1.1104 12.073 11.0831 12.2525
282 2 2.2208 10.7007 9.96689 8.17306
283 1 -1.1104 12.2102 5.79118 9.30512
284 1 -1.1104 12.1454 11.4357 9.48319
285 1 -1.1104 9.52059 8.28044 12.3077
9093 2 2.2208 13.5097 12.6365 7.95104
9178 2 2.2208 13.403 1.35593 2.47273
117 1 -1.1104 1.03525 16.8897 6.64083
108 1 -1.1104 0.849889 14.0369 6.63287
112 1 -1.1104 6.47108 19.673 6.73628
289 1 -1.1104 6.50894 16.7251 9.45351
124 1 -1.1104 3.6284 14.0968 6.607
302 1 -1.1104 0.696263 19.6632 6.72713
133 1 -1.1104 3.67807 16.9196 6.59562
126 1 -1.1104 3.63803 19.7612 6.63109
286 1 -1.1104 3.86495 19.6538 12.2095
287 1 -1.1104 3.68981 13.9545 12.1124
291 1 -1.1104 0.84082 19.7357 9.52316
292 1 -1.1104 1.0067 16.9513 9.53062
293 2 2.2208 5.06538 21.0067 8.14546
294 1 -1.1104 0.814379 14.1631 9.44531
295 2 2.2208 5.02478 15.4394 8.15264
298 1 -1.1104 0.83314 19.4487 12.4408
299 1 -1.1104 0.990875 14.0681 12.2111
300 2 2.2208 5.12427 18.2633 10.8269
301 1 -1.1104 3.64888 19.7749 9.44397
303 2 2.2208 2.33044 18.3024 8.03862
304 1 -1.1104 3.7832 16.9917 9.41479
305 1 -1.1104 3.65827 14.0264 9.45276
307 1 -1.1104 1.09973 16.8454 12.2717
308 1 -1.1104 3.86616 16.7229 12.1798
309 2 2.2208 2.35924 21.0092 10.9713
310 2 2.2208 2.41169 15.4454 10.8138
306 1 -1.1104 6.65664 16.7856 12.2691
297 1 -1.1104 6.60492 14.0142 12.2624
296 1 -1.1104 6.5541 19.6587 12.4447
288 1 -1.1104 6.53711 19.5793 9.54012
290 1 -1.1104 6.31843 13.9297 9.29356
118 1 -1.1104 6.4465 16.8187 6.6928
229 2 2.2208 13.5728 1.4177 8.01671
203 2 2.2208 7.87814 20.9014 10.8179
9176 2 2.2208 13.4705 18.1746 8.28972
163 1 -1.1104 9.27052 16.952 6.74592
104 2 2.2208 10.6876 15.5187 8.16492
105 2 2.2208 10.7552 21.0345 8.12673
231 1 -1.1104 9.35438 16.9372 9.53758
26 2 2.2208 10.7185 18.3294 10.8793
337 2 2.2208 4.9806 1.32141 -0.30652
137 1 -1.1104 9.3557 19.4987 12.2354
135 1 -1.1104 12.1663 16.7208 9.69679
204 1 -1.1104 9.51767 16.7608 12.2852
27 1 -1.1104 12.2873 13.8883 12.3136
49 1 -1.1104 12.1033 19.5982 12.2984
165 2 2.2208 7.87725 18.2872 8.03567
83 1 -1.1104 12.161 16.6544 12.5102
156 1 -1.1104 9.42448 19.6906 6.60255
232 1 -1.1104 9.42021 19.6686 9.4197
202 2 2.2208 8.05399 15.4579 10.8595
136 1 -1.1104 9.33805 13.959 12.2447
25 2 2.2208 13.5837 15.304 10.9225
8455 2 2.2208 7.72632 -4.24899 8.13018
339 2 2.2208 2.33071 4.16403 -0.329529
8449 2 2.2208 7.90698 -4.26614 2.43484
8453 2 2.2208 5.15777 -4.17136 10.9897
8446 2 2.2208 2.22437 -4.23413 2.4037
9209 2 2.2208 13.3789 15.5399 -0.299094
28 2 2.2208 13.458 20.9739 10.8831
353 2 2.2208 10.8128 18.2511 -0.272555
355 2 2.2208 7.98904 9.81565 -0.254295
351 2 2.2208 5.03635 12.5818 -0.319435
340 2 2.2208 2.39056 15.4744 -0.30189
349 2 2.2208 5.14001 6.97049 -0.214595
320 2 2.2208 -0.310407 15.4376 13.6513
8473 2 2.2208 2.30078 -4.31547 13.5675
326 2 2.2208 2.40317 12.5427 13.5115
332 2 2.2208 5.14161 15.3935 13.647
335 2 2.2208 7.92794 18.132 13.6177
357 2 2.2208 7.92752 20.9416 -0.274353
354 2 2.2208 10.7731 6.98771 -0.354436
328 2 2.2208 10.7608 9.7506 13.6671
358 2 2.2208 5.22122 1.41695 16.637
359 1 -1.1104 0.94567 -2.92674 17.7941
360 1 -1.1104 1.00266 2.61704 18.005
363 1 -1.1104 0.967703 -2.90798 14.9874
365 1 -1.1104 0.89673 2.92959 15.2187
371 1 -1.1104 0.958597 -0.00221622 17.9739
373 2 2.2208 5.16368 -1.45235 19.294
374 2 2.2208 5.14397 4.25266 19.3698
375 1 -1.1104 0.996041 -0.0173801 15.133
379 1 -1.1104 3.75528 -2.85164 17.8571
380 1 -1.1104 3.74801 2.77261 18.0939
381 2 2.2208 2.45281 1.23002 19.3539
382 1 -1.1104 3.81701 -2.96631 15.1584
384 1 -1.1104 3.73521 2.6656 15.3695
386 2 2.2208 2.39799 -1.45089 16.4408
387 2 2.2208 2.37666 4.06333 16.5589
388 1 -1.1104 3.78286 -0.175704 17.9535
389 1 -1.1104 3.77827 -0.0625893 15.1614
369 1 -1.1104 6.55914 2.80054 15.2286
377 1 -1.1104 6.62174 -0.126021 15.1113
362 1 -1.1104 6.5131 2.78129 17.9641
361 1 -1.1104 6.55262 -3.00371 17.9731
372 1 -1.1104 6.46783 -0.102624 18.0988
8679 2 2.2208 5.12093 -4.2491 22.1684
367 1 -1.1104 6.61751 -2.82473 15.0476
398 2 2.2208 13.387 1.60909 19.2576
314 2 2.2208 13.5829 6.98785 13.7929
370 1 -1.1104 6.60954 2.82901 20.6374
385 1 -1.1104 3.72364 2.72437 20.7275
625 2 2.2208 13.559 18.2691 24.8272
396 2 2.2208 13.5016 9.75532 16.6239
401 2 2.2208 10.7047 1.40636 16.5389
402 1 -1.1104 12.0491 -2.76772 17.8659
403 1 -1.1104 11.9142 2.76168 17.8526
404 1 -1.1104 12.1768 -3.1081 15.15
406 1 -1.1104 12.1334 2.69454 15.1916
408 1 -1.1104 12.061 -0.0319863 17.8014
409 2 2.2208 10.7595 -1.59188 19.3384
410 2 2.2208 10.6312 4.25111 19.3943
411 1 -1.1104 12.1791 -0.030204 15.0011
413 1 -1.1104 9.15392 -2.81881 17.9602
414 1 -1.1104 9.20245 2.71774 18.0113
415 2 2.2208 7.90842 1.35238 19.3692
416 1 -1.1104 9.39985 -2.83391 15.1046
418 1 -1.1104 9.38499 2.8401 15.1356
420 2 2.2208 7.85949 -1.54317 16.5998
421 2 2.2208 7.98367 4.21846 16.63
422 1 -1.1104 9.19423 -0.038663 17.7843
423 1 -1.1104 9.29396 0.00446109 14.9706
399 2 2.2208 13.5182 4.24325 16.4792
588 2 2.2208 13.6677 18.2001 19.4704
429 2 2.2208 13.5311 -1.35614 16.6042
325 2 2.2208 5.1083 9.70714 13.7573
591 2 2.2208 -0.343633 6.89138 16.6313
680 2 2.2208 13.5201 7.20851 24.915
623 2 2.2208 13.5195 -1.45706 22.1587
405 1 -1.1104 12.2335 -2.78242 20.7562
434 2 2.2208 5.03827 6.99607 16.5629
435 2 2.2208 5.24011 12.5654 16.5809
436 1 -1.1104 0.988348 8.36441 18.033
438 1 -1.1104 0.93931 8.2769 15.1318
442 1 -1.1104 1.0315 5.52879 18.0263
443 1 -1.1104 1.0132 11.2109 17.9849
446 2 2.2208 5.17614 9.79646 19.3593
447 1 -1.1104 0.904501 5.67012 15.1769
449 1 -1.1104 0.921493 11.1944 15.2013
455 1 -1.1104 3.54704 8.28095 17.7948
456 2 2.2208 2.28679 7.01401 19.4674
457 2 2.2208 2.37049 12.6402 19.3071
458 1 -1.1104 3.7131 8.35374 14.9892
460 2 2.2208 2.2819 9.74093 16.503
461 1 -1.1104 3.7877 5.52252 17.9634
462 1 -1.1104 3.82136 11.2078 18.0083
463 1 -1.1104 3.69751 5.56478 15.169
465 1 -1.1104 3.6938 11.1695 15.2468
440 1 -1.1104 6.47564 8.32011 15.2266
444 1 -1.1104 6.51167 5.51107 18.0272
437 1 -1.1104 6.43736 8.37065 18.0383
445 1 -1.1104 6.47506 11.2297 17.9578
8825 2 2.2208 2.38002 -4.23959 19.3664
451 1 -1.1104 6.51557 5.53877 15.2202
323 2 2.2208 10.7769 4.24084 13.6904
453 1 -1.1104 6.54018 11.1188 15.1901
452 1 -1.1104 6.6377 5.65519 20.7358
439 1 -1.1104 0.755185 8.35368 20.8275
8612 2 2.2208 7.88756 -4.31104 25.0002
496 1 -1.1104 9.31261 13.9402 26.2856
620 2 2.2208 13.5848 12.5869 19.3371
470 2 2.2208 10.7748 7.01257 16.5581
471 2 2.2208 10.7053 12.6412 16.5375
472 1 -1.1104 12.1445 8.39057 17.9824
473 1 -1.1104 12.162 8.27029 15.3169
475 1 -1.1104 12.1843 5.57096 17.9956
476 1 -1.1104 11.995 11.2039 18.1594
477 2 2.2208 10.676 9.73908 19.3773
478 1 -1.1104 12.2278 5.43942 15.0316
480 1 -1.1104 12.1623 11.0292 15.241
482 1 -1.1104 9.30085 8.48557 17.9274
483 2 2.2208 7.97273 7.05183 19.3994
484 2 2.2208 7.89113 12.4744 19.4253
485 1 -1.1104 9.25538 8.28504 15.1379
487 2 2.2208 7.90505 9.70132 16.5093
488 1 -1.1104 9.24583 5.60976 17.9589
489 1 -1.1104 9.29981 11.0777 17.9605
490 1 -1.1104 9.37563 5.61393 15.1415
492 1 -1.1104 9.34297 11.0745 15.1466
318 2 2.2208 13.5402 1.30383 13.7862
474 1 -1.1104 12.1558 8.45271 20.6568
586 2 2.2208 10.8141 18.0757 22.1435
8818 2 2.2208 13.575 -4.28373 19.4166
481 1 -1.1104 12.1773 11.2184 20.8589
479 1 -1.1104 12.1341 5.74098 20.8059
333 2 2.2208 10.688 20.9877 13.7114
467 1 -1.1104 12.127 16.8932 26.2405
497 2 2.2208 5.24209 18.0406 16.6284
498 1 -1.1104 0.874919 13.9985 17.8596
499 1 -1.1104 1.00599 19.5422 18.0709
502 1 -1.1104 1.11027 13.9013 14.9267
504 1 -1.1104 1.1548 19.6123 15.1426
510 1 -1.1104 0.935558 16.8333 17.8905
512 2 2.2208 5.18356 15.3219 19.3137
513 2 2.2208 5.21573 20.941 19.2911
514 1 -1.1104 1.1123 16.692 15.2115
518 1 -1.1104 3.83862 14.0587 17.8551
519 1 -1.1104 3.84236 19.6935 17.8479
520 2 2.2208 2.35724 18.1151 19.2394
521 1 -1.1104 3.8082 14.0029 14.9013
523 1 -1.1104 3.75963 19.6854 15.1148
525 2 2.2208 2.40956 15.3054 16.4263
526 2 2.2208 2.49298 21.0138 16.5312
527 1 -1.1104 3.77822 16.6804 17.881
528 1 -1.1104 3.85709 16.8031 15.23
500 1 -1.1104 6.74985 13.7937 17.8917
506 1 -1.1104 6.64394 13.8376 15.0717
508 1 -1.1104 6.49202 19.3986 15.2014
516 1 -1.1104 6.65821 16.5998 15.1136
507 1 -1.1104 6.45739 14.0158 20.6837
511 1 -1.1104 6.60539 16.5669 18.0291
503 1 -1.1104 1.03751 13.9571 20.7564
8836 2 2.2208 5.14581 -4.28914 16.6242
501 1 -1.1104 6.54755 19.5928 18.012
533 2 2.2208 10.7323 18.2355 16.4815
534 1 -1.1104 12.2598 13.8951 18.0269
535 1 -1.1104 12.2478 19.564 17.9716
536 1 -1.1104 12.1053 13.9219 15.0752
538 1 -1.1104 12.1373 19.564 15.1912
540 1 -1.1104 12.2781 16.791 17.9719
541 2 2.2208 10.831 15.3949 19.2384
542 2 2.2208 10.7505 20.9965 19.3495
543 1 -1.1104 12.2265 16.8108 15.268
545 1 -1.1104 9.42712 14.168 17.7657
546 1 -1.1104 9.34262 19.5856 17.9476
547 2 2.2208 8.01109 18.1607 19.3803
548 1 -1.1104 9.42325 13.9906 15.0337
550 1 -1.1104 9.28732 19.5168 14.9544
552 2 2.2208 7.96535 15.3533 16.4478
553 2 2.2208 7.92341 20.8718 16.6013
554 1 -1.1104 9.40569 16.7691 17.9449
555 1 -1.1104 9.42345 16.8978 15.0953
430 2 2.2208 13.6191 21.036 16.6866
549 1 -1.1104 9.18295 13.9781 20.6558
544 1 -1.1104 12.2714 16.8054 20.7013
621 2 2.2208 13.5323 6.94214 19.3774
557 1 -1.1104 9.35895 16.7004 23.494
539 1 -1.1104 12.3842 19.5253 20.9322
537 1 -1.1104 12.2478 14.0821 20.8066
392 2 2.2208 13.5744 9.7886 22.1635
390 1 -1.1104 3.64063 -0.0184167 20.8068
376 1 -1.1104 0.891032 -0.0560356 20.7396
383 1 -1.1104 3.85909 -2.8751 20.5838
364 1 -1.1104 1.06645 -2.98636 20.7186
366 1 -1.1104 0.84518 2.84838 20.7973
561 2 2.2208 5.19201 1.46515 22.1598
562 1 -1.1104 1.01928 -2.91068 23.5873
563 1 -1.1104 0.978262 2.64687 23.4281
566 1 -1.1104 1.04799 -2.97537 26.3618
567 1 -1.1104 0.831743 2.6926 26.3859
570 1 -1.1104 1.03234 -0.090462 23.5721
572 2 2.2208 5.18648 -1.48442 25.0051
573 2 2.2208 5.14548 4.23624 24.9883
574 1 -1.1104 0.920268 -0.0589273 26.2786
576 1 -1.1104 3.82344 -2.82831 23.4866
577 1 -1.1104 3.81441 2.86857 23.4553
578 2 2.2208 2.38543 1.28835 24.8695
579 1 -1.1104 3.82872 -2.91348 26.2191
580 1 -1.1104 3.65033 2.78631 26.3435
581 2 2.2208 2.45602 -1.45235 22.2583
583 1 -1.1104 3.76746 -0.00155883 23.5535
584 1 -1.1104 3.68233 -0.12105 26.3278
582 2 2.2208 2.44544 4.13327 22.1597
575 1 -1.1104 6.41131 -0.0375229 26.2487
368 1 -1.1104 6.62936 -2.92098 20.8643
569 1 -1.1104 6.47217 2.78955 26.4338
378 1 -1.1104 6.43772 0.0593697 20.7666
564 1 -1.1104 6.43447 -2.88671 23.5131
571 1 -1.1104 6.69753 -0.108916 23.6106
565 1 -1.1104 6.50781 2.6947 23.6191
407 1 -1.1104 12.1748 2.92281 20.7761
551 1 -1.1104 9.37641 19.5789 20.6459
558 1 -1.1104 9.38447 16.839 26.3545
568 1 -1.1104 6.61414 -2.82257 26.464
424 1 -1.1104 9.26086 -0.0802041 20.7136
417 1 -1.1104 9.47769 -2.88721 20.765
412 1 -1.1104 12.0226 -0.183525 20.8233
419 1 -1.1104 9.27657 2.87229 20.6522
393 2 2.2208 13.4809 4.19655 22.1478
624 2 2.2208 13.4577 1.36041 24.87
597 2 2.2208 10.5882 1.29826 22.2363
598 1 -1.1104 12.0234 -2.97793 23.4617
599 1 -1.1104 12.0683 2.89138 23.5649
600 1 -1.1104 12.2466 -2.89587 26.2526
601 1 -1.1104 12.1413 2.74332 26.2487
602 1 -1.1104 12.1293 -0.15723 23.6438
603 2 2.2208 10.739 -1.57938 25.0804
604 2 2.2208 10.7608 4.26173 24.8471
605 1 -1.1104 12.1421 -0.106559 26.4047
606 1 -1.1104 9.14642 -2.81076 23.7603
607 1 -1.1104 9.35274 2.77578 23.4908
608 2 2.2208 7.91705 1.31119 24.9913
609 1 -1.1104 9.48071 -2.8595 26.4316
610 1 -1.1104 9.46006 2.6828 26.3591
611 2 2.2208 7.92511 -1.38619 22.1228
612 2 2.2208 7.92643 4.26741 22.1884
613 1 -1.1104 9.2915 -0.0413168 23.6476
614 1 -1.1104 9.32414 -0.0711003 26.3926
530 1 -1.1104 9.34986 19.5715 26.4712
532 2 2.2208 7.80513 20.9455 22.1354
494 2 2.2208 7.95862 18.2546 24.9908
464 1 -1.1104 3.8106 5.64901 20.7433
450 1 -1.1104 0.985504 11.1313 20.8699
466 1 -1.1104 3.65886 11.2246 20.785
454 1 -1.1104 6.49027 11.0291 20.8674
448 1 -1.1104 1.1227 5.60304 20.7967
459 1 -1.1104 3.68632 8.50239 20.7729
626 2 2.2208 5.01202 7.03294 22.1818
627 2 2.2208 5.01955 12.5835 22.2404
628 1 -1.1104 0.905744 8.30205 23.7089
630 1 -1.1104 0.864879 8.42607 26.3254
632 1 -1.1104 0.988573 5.42552 23.5263
633 1 -1.1104 0.903981 11.2683 23.6311
636 2 2.2208 5.17795 9.78382 25.0012
637 1 -1.1104 1.03774 5.61543 26.488
638 1 -1.1104 1.0618 11.2535 26.3811
641 1 -1.1104 3.71961 8.43825 23.6426
642 2 2.2208 2.32247 6.98179 25.0221
643 2 2.2208 2.35114 12.7078 24.9961
644 1 -1.1104 3.56379 8.35972 26.4018
645 2 2.2208 2.28862 9.81047 22.2427
646 1 -1.1104 3.72266 5.52479 23.5734
647 1 -1.1104 3.77481 11.2643 23.6374
648 1 -1.1104 3.78826 5.63457 26.3604
649 1 -1.1104 3.92055 11.1866 26.3492
631 1 -1.1104 6.55596 8.39571 26.5251
634 1 -1.1104 6.41239 5.49456 23.4922
635 1 -1.1104 6.47088 11.1239 23.5299
640 1 -1.1104 6.67066 11.2136 26.3565
629 1 -1.1104 6.36566 8.25016 23.7263
639 1 -1.1104 6.64365 5.61159 26.3375
441 1 -1.1104 6.4826 8.37454 20.7917
317 2 2.2208 2.3188 1.43377 13.8098
327 2 2.2208 7.96211 6.89062 13.7605
486 1 -1.1104 9.36811 8.52699 20.812
493 1 -1.1104 9.40435 11.2732 20.66
491 1 -1.1104 9.3422 5.65003 20.7464
556 1 -1.1104 9.54537 16.8821 20.5589
657 1 -1.1104 9.32305 11.1324 26.3616
658 1 -1.1104 9.3052 5.62371 26.3039
659 1 -1.1104 9.31099 11.2503 23.5416
660 1 -1.1104 9.32358 5.65074 23.5947
661 2 2.2208 7.90112 9.79723 22.2082
662 1 -1.1104 9.29691 8.44256 26.3718
663 2 2.2208 7.98576 12.5867 24.8607
664 2 2.2208 7.94355 6.98555 24.9418
665 2 2.2208 10.746 7.08916 22.2788
666 2 2.2208 10.7549 12.6159 22.0709
667 1 -1.1104 12.0983 8.4695 23.4791
668 1 -1.1104 12.0849 8.3658 26.3727
669 1 -1.1104 12.2182 5.64227 23.4548
670 1 -1.1104 12.0158 11.2202 23.518
671 2 2.2208 10.6565 9.75676 25.0925
672 1 -1.1104 12.1436 5.64494 26.1754
673 1 -1.1104 12.1793 11.1564 26.2928
674 1 -1.1104 9.26287 8.52842 23.5771
433 2 2.2208 10.7957 21.013 24.958
529 1 -1.1104 3.8423 16.6291 20.6469
522 1 -1.1104 3.762 14.0195 20.7779
517 1 -1.1104 6.77937 16.8558 20.8185
524 1 -1.1104 3.71282 19.401 20.8469
505 1 -1.1104 0.81707 19.542 20.7646
684 1 -1.1104 6.49031 16.7503 26.2859
515 1 -1.1104 0.925058 16.7007 20.7232
675 1 -1.1104 6.53703 13.8962 23.4228
587 2 2.2208 2.31526 15.4106 22.1599
590 2 2.2208 2.31647 20.9513 22.0716
615 1 -1.1104 3.6738 16.8764 23.4912
616 1 -1.1104 0.981081 16.7131 23.6675
619 1 -1.1104 3.78964 14.062 26.3573
622 1 -1.1104 3.74166 16.7996 26.2288
650 2 2.2208 2.26542 18.2713 25.0602
651 1 -1.1104 3.77741 19.4808 26.552
652 2 2.2208 5.21188 18.1867 22.1804
654 1 -1.1104 0.803673 14.0406 23.5409
656 1 -1.1104 0.998383 19.4275 23.5633
676 2 2.2208 5.16011 15.3877 24.8751
677 2 2.2208 5.11502 21.0149 25.0216
681 1 -1.1104 3.76294 19.601 23.666
683 1 -1.1104 3.74567 14.0305 23.6327
685 1 -1.1104 0.866062 19.4878 26.3668
686 1 -1.1104 0.888389 16.8453 26.441
687 1 -1.1104 1.01553 13.9758 26.3697
682 1 -1.1104 6.46357 13.9879 26.1916
617 1 -1.1104 6.64939 16.8067 23.5464
509 1 -1.1104 6.58087 19.7054 20.6754
585 1 -1.1104 12.243 13.9798 23.4224
400 1 -1.1104 12.1368 14.1171 26.3414
469 1 -1.1104 9.39523 19.593 23.5649
531 2 2.2208 8.04048 15.3749 22.0519
321 2 2.2208 7.97658 1.34846 13.7176
560 1 -1.1104 12.1926 19.7413 23.5038
425 1 -1.1104 12.1315 19.6355 26.4004
679 1 -1.1104 6.53888 19.5424 23.5231
495 1 -1.1104 6.56174 19.7114 26.2591
468 1 -1.1104 9.45844 13.9624 23.4638
432 2 2.2208 10.7554 15.3759 24.7569
431 1 -1.1104 12.1716 16.8162 23.61
678 2 2.2208 13.5509 12.7161 24.8735
322 2 2.2208 10.6723 -1.40926 13.7397
329 2 2.2208 7.96557 12.4175 13.6698
593 2 2.2208 13.6211 15.4118 22.0627
9216 2 2.2208 13.5879 4.15691 27.6513
8469 2 2.2208 7.95299 -4.21776 13.7648
9187 2 2.2208 13.5955 9.90503 27.6397
336 2 2.2208 13.5451 18.1168 13.8076
324 2 2.2208 2.35696 6.93367 13.6878
319 2 2.2208 5.2321 4.07976 13.8475
316 2 2.2208 5.16967 -1.42979 13.763
330 2 2.2208 2.46035 18.2231 13.685
331 2 2.2208 5.07649 21.0665 13.6832
338 2 2.2208 2.33331 -1.50813 27.6547
334 2 2.2208 10.8337 15.2957 13.7576
347 2 2.2208 13.5627 12.3984 13.7186
688 2 2.2208 5.15117 23.6539 5.19982
689 2 2.2208 5.09209 29.3756 5.28685
690 1 -1.1104 0.992505 25.1731 1.07655
691 1 -1.1104 0.792655 25.0822 3.89688
692 1 -1.1104 0.938146 22.3197 0.999909
693 1 -1.1104 1.05198 28.027 0.907736
694 2 2.2208 5.06382 26.5815 2.3762
695 1 -1.1104 1.02647 22.3743 3.80389
696 1 -1.1104 0.830194 27.9227 3.77351
697 1 -1.1104 3.74978 25.1999 0.997941
698 2 2.2208 2.30916 23.6777 2.43082
699 2 2.2208 2.35164 29.4404 2.39724
700 1 -1.1104 3.80705 25.1406 3.87121
701 2 2.2208 2.44005 26.4868 5.17217
702 1 -1.1104 3.64513 22.2777 0.994434
703 1 -1.1104 3.66376 28.0249 1.06109
704 1 -1.1104 3.75746 22.3123 3.81328
705 1 -1.1104 3.63942 27.9558 3.91836
712 1 -1.1104 6.43995 27.8858 1.00043
1554 1 -1.1104 12.2147 47.4346 6.72111
710 1 -1.1104 6.41392 25.2315 3.8962
711 1 -1.1104 6.47851 22.3094 1.15824
713 1 -1.1104 6.54269 22.3231 3.83045
1326 1 -1.1104 1.06867 47.4531 0.95018
714 1 -1.1104 6.42332 27.9738 3.64353
709 1 -1.1104 6.51639 25.1706 1.04658
829 1 -1.1104 0.960779 25.0978 6.71651
830 1 -1.1104 6.39516 25.1076 6.9092
9842 2 2.2208 13.635 23.7145 2.60897
715 2 2.2208 10.8481 23.8203 5.28277
716 2 2.2208 10.8343 29.3711 5.33884
717 1 -1.1104 12.2102 25.0654 1.23077
718 1 -1.1104 12.1314 25.2 3.97787
719 1 -1.1104 12.2183 22.3404 1.031
720 1 -1.1104 12.117 27.8506 1.11151
721 2 2.2208 10.8345 26.6008 2.42445
722 1 -1.1104 12.1808 22.4416 3.98565
723 1 -1.1104 12.1244 27.9709 3.85833
724 1 -1.1104 9.42901 25.1615 1.10886
725 2 2.2208 7.87182 23.9007 2.35883
726 2 2.2208 7.95723 29.3366 2.51069
727 1 -1.1104 9.33808 25.0765 3.93758
728 2 2.2208 7.93383 26.5805 5.26458
729 1 -1.1104 9.31078 22.3798 1.10521
730 1 -1.1104 9.2117 28.0195 1.08985
731 1 -1.1104 9.40981 22.4335 4.04646
732 1 -1.1104 9.30768 27.901 3.91602
1015 2 2.2208 7.89695 26.551 -0.302555
9844 2 2.2208 13.5041 26.6485 5.28997
1014 2 2.2208 10.8012 23.8417 -0.160486
9843 2 2.2208 13.5328 29.4137 2.46866
865 1 -1.1104 9.46718 25.2725 6.76878
866 1 -1.1104 9.33205 22.4396 6.70482
1011 2 2.2208 5.10975 23.7698 -0.355994
736 2 2.2208 5.09924 35.0205 5.35315
737 1 -1.1104 0.88659 30.7591 0.998897
738 1 -1.1104 0.891854 36.2846 1.09997
740 1 -1.1104 0.884173 30.7429 3.76946
741 1 -1.1104 1.03262 36.4582 3.82231
743 1 -1.1104 0.774533 33.5555 1.16299
744 2 2.2208 5.09936 32.0692 2.55959
745 2 2.2208 5.03445 37.8065 2.45273
746 1 -1.1104 0.913804 33.7071 3.87232
748 1 -1.1104 3.75816 30.7771 1.02629
749 1 -1.1104 3.80488 36.3009 1.09223
750 2 2.2208 2.35456 34.8807 2.47116
751 1 -1.1104 3.73507 30.7642 3.8215
752 1 -1.1104 3.88811 36.4119 3.92136
753 2 2.2208 2.28288 32.0619 5.31877
754 2 2.2208 2.31211 37.7566 5.2385
755 1 -1.1104 3.70962 33.5911 1.04539
756 1 -1.1104 3.66296 33.5624 3.9975
1019 2 2.2208 5.12205 34.972 -0.258793
1018 2 2.2208 2.32136 37.8432 -0.348545
761 1 -1.1104 6.52309 30.6155 3.87344
742 1 -1.1104 6.62283 36.1772 3.96457
747 1 -1.1104 6.71065 33.4027 3.87475
762 1 -1.1104 6.46556 33.47 1.09109
739 1 -1.1104 6.51251 36.2322 1.15733
760 1 -1.1104 6.38049 30.6775 1.0536
894 1 -1.1104 3.81702 33.4861 6.75276
893 1 -1.1104 3.60832 36.5595 6.70926
890 1 -1.1104 0.868203 33.507 6.82611
9848 2 2.2208 13.657 35.0789 2.61467
9582 2 2.2208 13.5428 37.838 5.21605
763 2 2.2208 10.8412 35.0375 5.29617
764 1 -1.1104 12.1306 30.8546 1.08361
765 1 -1.1104 12.1971 36.5024 0.977975
766 1 -1.1104 12.2047 30.6796 3.87659
767 1 -1.1104 12.2066 36.4233 3.76736
768 1 -1.1104 12.2829 33.5925 1.26731
769 2 2.2208 10.8679 32.1822 2.62623
770 2 2.2208 10.8536 37.7607 2.49506
771 1 -1.1104 12.3236 33.6205 4.0827
772 1 -1.1104 9.34759 30.6373 1.20148
773 1 -1.1104 9.38848 36.2712 1.01252