ITEM: TIMESTEP
20000
ITEM: NUMBER OF ATOMS
17910
ITEM: BOX BOUNDS pp pp pp
-3.6647986927581211e-01 2.7706479869275437e+01
-4.2043902482841826e+00 3.3228439024827992e+02
-3.5585479409553905e-01 2.7695854794095535e+01
ITEM: ATOMS id type q x y z
1 2 2.2208 5.18065 1.26637 5.21942
2 1 -1.1104 0.954654 -2.88637 1.14197
3 1 -1.1104 0.883792 2.84191 0.884267
6 1 -1.1104 1.10454 -2.94501 3.75896
7 1 -1.1104 1.03641 2.57081 3.75226
10 1 -1.1104 1.10273 -0.0416972 0.931673
12 2 2.2208 5.13579 -1.59617 2.48963
13 2 2.2208 5.22396 4.12233 2.39666
14 1 -1.1104 0.938014 -0.148021 3.94841
16 1 -1.1104 3.80486 -2.96498 0.944308
17 1 -1.1104 3.71738 2.77208 1.02296
18 2 2.2208 2.30088 1.26625 2.38206
19 1 -1.1104 3.75643 -2.97335 3.84219
20 1 -1.1104 3.75091 2.83704 3.81655
21 2 2.2208 2.48837 -1.51896 5.18129
22 2 2.2208 2.4063 4.17873 5.25719
23 1 -1.1104 3.77356 -0.20315 1.24841
24 1 -1.1104 3.65643 -0.144321 3.83104
173 1 -1.1104 3.8636 2.6934 6.66459
167 1 -1.1104 1.09236 2.78747 6.6038
174 1 -1.1104 3.84436 -0.0301085 6.57411
172 1 -1.1104 3.72478 -2.86182 6.55882
9177 2 2.2208 -0.39699 4.06493 2.43796
11 1 -1.1104 6.56019 -0.146133 0.979945
5 1 -1.1104 6.56929 2.75207 1.08778
169 1 -1.1104 6.60419 2.67038 6.48147
168 1 -1.1104 6.53076 -2.88597 6.79395
170 1 -1.1104 1.01684 -0.0951878 6.91124
8446 2 2.2208 2.32329 -4.38518 2.45394
201 2 2.2208 -0.435614 1.34019 10.8155
28 2 2.2208 13.5574 20.8627 10.99
4 1 -1.1104 6.71508 -2.85215 1.21781
9 1 -1.1104 6.42484 2.64042 3.76792
8 1 -1.1104 6.6048 -2.98841 3.95892
15 1 -1.1104 6.59723 -0.0785966 3.72644
31 2 2.2208 10.8713 1.29101 5.29074
32 1 -1.1104 12.0319 -2.83653 0.985513
33 1 -1.1104 12.3335 2.74056 1.25685
34 1 -1.1104 12.1877 -3.01138 3.7694
35 1 -1.1104 12.2752 2.56184 3.94693
36 1 -1.1104 12.2567 -0.0393929 1.06614
37 2 2.2208 10.751 -1.60302 2.50426
39 1 -1.1104 12.1131 -0.256531 3.8987
40 1 -1.1104 9.4131 -2.93386 1.18499
41 1 -1.1104 9.43297 2.7673 1.03583
42 2 2.2208 7.98277 1.26852 2.62301
43 1 -1.1104 9.438 -2.99748 4.08167
44 1 -1.1104 9.39538 2.76698 3.78502
45 2 2.2208 7.98992 -1.70182 5.28047
46 2 2.2208 7.99282 4.16975 5.10169
47 1 -1.1104 9.32165 0.00410676 1.11921
48 1 -1.1104 9.47909 -0.19372 3.78141
38 2 2.2208 10.817 4.12269 2.39683
206 1 -1.1104 12.2383 2.73947 6.77347
207 1 -1.1104 12.1315 -0.131208 6.70638
205 1 -1.1104 12.1758 -2.89223 6.6327
208 1 -1.1104 9.3013 -2.96568 6.78287
50 2 2.2208 13.6106 -1.38931 5.21911
53 2 2.2208 13.5422 4.10636 10.8898
345 2 2.2208 8.04021 -1.54001 -0.349074
210 1 -1.1104 9.35342 -0.20841 6.69651
9178 2 2.2208 13.6279 1.24316 2.5069
297 1 -1.1104 6.63955 13.8093 12.1575
229 2 2.2208 13.5815 1.29946 8.26649
135 1 -1.1104 12.397 16.6212 9.44836
54 2 2.2208 5.18708 6.90453 5.25273
55 2 2.2208 5.27307 12.5657 5.21592
56 1 -1.1104 1.10407 8.32567 1.11719
58 1 -1.1104 1.06348 8.36908 3.88051
60 1 -1.1104 1.06406 5.60673 0.961708
61 1 -1.1104 1.00997 11.0138 0.887735
66 2 2.2208 5.3076 9.81527 2.36921
67 1 -1.1104 1.09691 5.58303 3.84887
68 1 -1.1104 1.01396 11.1528 3.64815
71 1 -1.1104 3.92342 8.56131 0.939573
72 2 2.2208 2.47098 6.86955 2.46226
73 2 2.2208 2.48013 12.599 2.28752
74 1 -1.1104 3.74915 8.30183 3.69307
75 2 2.2208 2.38607 9.87833 5.02143
76 1 -1.1104 3.81016 5.80424 1.0553
77 1 -1.1104 3.86046 11.2661 0.927854
79 1 -1.1104 3.75565 5.65136 3.81728
80 1 -1.1104 3.94576 11.1654 3.80186
234 1 -1.1104 1.02575 8.48437 6.53136
81 1 -1.1104 12.2565 14.0079 9.44382
9181 2 2.2208 -0.338583 12.5029 5.11759
59 1 -1.1104 6.58793 8.38651 3.77128
236 1 -1.1104 1.00669 5.499 6.73311
238 1 -1.1104 3.83758 8.4463 6.44534
239 1 -1.1104 3.91191 5.60465 6.68611
69 1 -1.1104 6.5403 5.44092 3.85353
57 1 -1.1104 6.65309 8.36882 1.15421
63 1 -1.1104 6.60379 5.51933 1.10424
70 1 -1.1104 6.59846 11.2018 3.85856
64 1 -1.1104 6.68651 11.1873 1.01299
84 2 2.2208 10.844 6.85693 5.18411
85 2 2.2208 10.8366 12.5859 5.23464
86 1 -1.1104 12.1787 8.35563 1.08574
87 1 -1.1104 12.2304 8.47164 3.89113
88 1 -1.1104 12.3403 5.60904 1.0088
89 1 -1.1104 12.3175 11.0532 1.06605
91 2 2.2208 10.8232 9.85936 2.4956
92 1 -1.1104 12.2275 5.4314 3.79553
93 1 -1.1104 12.0744 11.2077 3.8896
94 1 -1.1104 9.32487 8.5053 1.02046
95 2 2.2208 8.03742 7.0278 2.32983
96 2 2.2208 8.04151 12.6178 2.42484
97 1 -1.1104 9.42594 8.20868 3.82782
98 2 2.2208 7.99047 9.71267 5.27649
99 1 -1.1104 9.37252 5.73221 0.863836
100 1 -1.1104 9.50903 11.29 1.07331
102 1 -1.1104 9.31773 5.46558 3.65039
103 1 -1.1104 9.28469 11.0745 3.88515
269 1 -1.1104 9.51757 5.69731 6.61721
65 1 -1.1104 6.60658 11.0686 6.6234
101 1 -1.1104 9.5438 11.1722 6.73056
235 1 -1.1104 6.59268 8.31683 6.6442
9041 2 2.2208 -0.353309 20.7886 2.48279
8909 2 2.2208 -0.375063 18.2461 5.22554
106 2 2.2208 5.25642 18.182 5.27939
107 1 -1.1104 0.92588 14.0445 0.973548
109 1 -1.1104 1.0219 19.5707 1.10801
113 1 -1.1104 1.22624 14.1199 3.71687
114 1 -1.1104 1.01107 19.5202 3.84762
116 1 -1.1104 1.08455 16.7455 1.19377
119 2 2.2208 5.28726 15.4471 2.33524
120 2 2.2208 5.22245 21.037 2.48704
121 1 -1.1104 0.978214 16.9163 3.84711
123 1 -1.1104 3.80773 14.0763 0.958869
125 1 -1.1104 3.75463 19.3846 0.903719
127 2 2.2208 2.43564 18.1715 2.48587
128 1 -1.1104 3.85568 14.0095 3.80574
129 1 -1.1104 3.88471 19.6388 3.77657
130 2 2.2208 2.5169 15.3343 5.17974
131 2 2.2208 2.55199 20.9827 5.36635
132 1 -1.1104 3.91361 16.8306 1.05018
134 1 -1.1104 3.93991 16.7516 3.80447
9042 2 2.2208 -0.363231 15.4996 2.6192
124 1 -1.1104 3.77916 13.9961 6.60757
122 1 -1.1104 6.69241 16.7583 3.78492
118 1 -1.1104 6.66149 16.8037 6.67778
342 2 2.2208 2.39111 21.001 -0.304797
302 1 -1.1104 1.09477 19.6801 6.62055
9076 2 2.2208 13.7124 6.92462 2.34445
341 2 2.2208 5.23681 18.0831 -0.424553
140 1 -1.1104 6.66718 16.7606 0.954833
139 1 -1.1104 6.70105 19.5103 3.90469
138 1 -1.1104 6.50383 19.4816 1.01907
115 1 -1.1104 6.67567 13.9556 3.787
110 1 -1.1104 6.69921 13.9628 0.862145
141 2 2.2208 10.8578 18.107 5.34367
142 1 -1.1104 12.4226 13.9971 1.0409
144 1 -1.1104 12.2202 19.4889 1.11215
146 1 -1.1104 12.3248 13.9258 3.91992
147 1 -1.1104 12.3974 19.4875 3.82456
148 1 -1.1104 12.3692 16.767 1.25151
150 2 2.2208 10.9112 15.4128 2.4706
151 2 2.2208 10.9252 20.813 2.48302
152 1 -1.1104 12.292 16.7065 3.9477
153 1 -1.1104 9.48035 13.9902 1.07462
155 1 -1.1104 9.48815 19.459 1.13675
157 2 2.2208 8.04502 18.0371 2.3496
158 1 -1.1104 9.54644 13.9657 3.76222
159 1 -1.1104 9.54643 19.582 4.03258
160 2 2.2208 8.05706 15.3547 5.12927
161 2 2.2208 7.99177 21.0596 5.21655
162 1 -1.1104 9.50042 16.6926 0.876105
164 1 -1.1104 9.41589 16.6044 3.83246
163 1 -1.1104 9.39147 16.6645 6.72263
111 1 -1.1104 6.64694 14.01 6.59456
156 1 -1.1104 9.53755 19.535 6.7708
136 1 -1.1104 9.41075 13.7268 12.2093
143 1 -1.1104 12.2889 14.0185 6.6454
149 1 -1.1104 12.3471 16.8971 6.55852
145 1 -1.1104 12.2601 19.5466 6.6407
9077 2 2.2208 13.6967 12.5334 2.43465
166 1 -1.1104 0.940824 -2.9815 6.63684
204 1 -1.1104 9.47319 16.5845 12.2929
175 2 2.2208 5.21832 1.42982 10.9366
176 1 -1.1104 1.11955 -2.82635 12.243
177 1 -1.1104 1.10668 2.65304 12.392
180 1 -1.1104 1.08946 -3.00441 9.58368
181 1 -1.1104 1.00724 2.76353 9.53152
184 1 -1.1104 0.947589 -0.126303 12.3527
186 2 2.2208 5.30631 -1.50173 8.05363
187 2 2.2208 5.31251 4.14286 8.10922
188 1 -1.1104 1.0716 -0.0661394 9.52098
190 1 -1.1104 3.94006 -2.78987 12.138
191 1 -1.1104 3.88629 2.78987 12.2598
192 2 2.2208 2.48822 1.3335 8.11004
193 1 -1.1104 3.77729 -2.82437 9.32008
194 1 -1.1104 3.93851 2.73249 9.61661
195 2 2.2208 2.56266 -1.46529 10.7839
196 2 2.2208 2.42913 4.24756 10.9744
197 1 -1.1104 3.85747 0.0863048 12.3672
198 1 -1.1104 3.94158 0.0353746 9.47737
82 1 -1.1104 12.3424 19.5089 9.54529
316 2 2.2208 5.2501 -1.40864 13.7016
189 1 -1.1104 6.68365 -0.0496238 9.38554
185 1 -1.1104 6.62007 0.0160697 12.2146
183 1 -1.1104 6.63389 2.79686 9.35765
9175 2 2.2208 -0.394863 1.25353 5.47744
171 1 -1.1104 6.59636 -0.204412 6.3284
209 1 -1.1104 9.38516 2.65141 6.49704
230 2 2.2208 13.7578 -1.53302 10.939
179 1 -1.1104 6.61326 2.81778 12.2637
178 1 -1.1104 6.79744 -2.72398 12.3127
182 1 -1.1104 6.68352 -3.00536 9.61583
211 2 2.2208 10.7676 1.28722 10.7506
212 1 -1.1104 12.2911 -2.79376 12.2645
213 1 -1.1104 12.2767 2.72563 12.2849
214 1 -1.1104 12.2709 -2.79309 9.44895
215 1 -1.1104 12.3545 2.74333 9.55147
216 1 -1.1104 12.1903 0.128216 12.2993
217 2 2.2208 10.7161 -1.47279 8.05125
218 2 2.2208 10.9732 4.19211 8.0182
219 1 -1.1104 12.2967 -0.10025 9.42802
220 1 -1.1104 9.56674 -3.0407 12.2965
221 1 -1.1104 9.48254 2.68836 12.0852
222 2 2.2208 7.94698 1.3576 7.88816
223 1 -1.1104 9.48782 -2.93807 9.50629
224 1 -1.1104 9.36012 2.76725 9.39866
225 2 2.2208 8.04933 -1.49693 10.9136
226 2 2.2208 8.04829 4.18819 10.7912
227 1 -1.1104 9.58442 -0.133502 12.175
228 1 -1.1104 9.43253 -0.116955 9.39439
343 2 2.2208 -0.324539 9.67868 13.6307
78 1 -1.1104 3.91903 11.1211 6.5868
62 1 -1.1104 1.05273 11.1878 6.411
237 1 -1.1104 6.82887 5.39622 6.72182
105 2 2.2208 10.9308 20.9387 8.0449
30 2 2.2208 -0.337151 12.5293 10.7505
29 2 2.2208 -0.341937 6.84406 10.9092
240 2 2.2208 5.2998 6.90817 10.8518
241 2 2.2208 5.32339 12.5111 10.7691
242 1 -1.1104 1.04626 8.26252 12.0991
244 1 -1.1104 0.980474 8.2935 9.27008
246 1 -1.1104 0.940449 5.48234 12.293
247 1 -1.1104 1.11206 11.0796 12.0953
250 2 2.2208 5.09816 9.71126 7.95524
251 1 -1.1104 1.06846 5.59696 9.48738
252 1 -1.1104 0.985299 11.0802 9.14255
255 1 -1.1104 3.73567 8.14313 12.1813
256 2 2.2208 2.35847 7.06425 7.9774
257 2 2.2208 2.31357 12.6183 8.01103
258 1 -1.1104 3.72044 8.519 9.37053
259 2 2.2208 2.48399 9.64815 10.8123
260 1 -1.1104 3.77824 5.5967 12.438
261 1 -1.1104 3.99301 10.985 12.1747
262 1 -1.1104 3.80763 5.57034 9.56932
263 1 -1.1104 3.83102 11.3765 9.3324
248 1 -1.1104 6.56198 5.47365 12.1278
26 2 2.2208 10.8787 18.047 10.8905
83 1 -1.1104 12.1455 16.7745 12.2035
266 1 -1.1104 12.3312 5.4889 6.55005
267 1 -1.1104 9.40477 8.49143 6.59835
265 1 -1.1104 12.1142 8.2913 6.58798
90 1 -1.1104 12.2937 11.2876 6.60433
249 1 -1.1104 6.81226 11.1382 12.1995
254 1 -1.1104 6.65871 11.2301 9.39133
245 1 -1.1104 6.4809 8.46138 9.43129
243 1 -1.1104 6.57318 8.4398 12.1493
253 1 -1.1104 6.66621 5.56849 9.44178
264 1 -1.1104 9.46446 11.1623 9.45446
268 1 -1.1104 9.43325 5.63478 9.28428
270 1 -1.1104 9.57847 11.0237 12.4451
271 1 -1.1104 9.37938 5.57119 12.068
272 2 2.2208 8.21111 9.79662 10.8683
273 1 -1.1104 9.51484 8.3735 9.44656
274 2 2.2208 8.02656 12.4913 8.02358
275 2 2.2208 8.05005 6.99114 8.04095
276 2 2.2208 10.8645 6.91456 10.8535
277 2 2.2208 10.8172 12.5178 10.8486
278 1 -1.1104 12.2011 8.24892 12.274
279 1 -1.1104 12.3364 8.31554 9.3522
280 1 -1.1104 12.181 5.51761 12.1797
281 1 -1.1104 12.2341 11.0401 12.1611
282 2 2.2208 10.8713 9.73198 7.98741
283 1 -1.1104 12.1762 5.55624 9.32528
284 1 -1.1104 12.2656 11.0272 9.19119
285 1 -1.1104 9.43277 8.24311 12.2471
329 2 2.2208 8.0033 12.5363 13.6225
27 1 -1.1104 12.3453 13.8737 12.2504
108 1 -1.1104 1.14067 13.9396 6.56374
126 1 -1.1104 3.89044 19.6504 6.73219
112 1 -1.1104 6.66085 19.6479 6.60552
289 1 -1.1104 6.77564 16.6818 9.62603
133 1 -1.1104 3.85013 16.8587 6.57845
232 1 -1.1104 9.45899 19.4844 9.64735
117 1 -1.1104 1.03122 16.6764 6.60436
286 1 -1.1104 3.92886 19.5013 12.2124
287 1 -1.1104 3.94999 13.904 12.1103
291 1 -1.1104 0.895535 19.474 9.43949
292 1 -1.1104 0.999775 16.6059 9.36184
293 2 2.2208 5.35394 20.9985 8.00991
294 1 -1.1104 1.05327 13.9359 9.41448
295 2 2.2208 5.29913 15.4374 7.90238
298 1 -1.1104 1.18154 19.5463 12.2335
299 1 -1.1104 1.21613 14.0087 12.1878
300 2 2.2208 5.26868 18.121 10.9325
301 1 -1.1104 3.80151 19.6257 9.32673
303 2 2.2208 2.42069 18.0811 8.20852
304 1 -1.1104 3.92818 16.8615 9.40102
305 1 -1.1104 3.79748 14.0626 9.46603
307 1 -1.1104 0.833535 16.7372 12.1692
308 1 -1.1104 3.76083 16.7785 12.2177
309 2 2.2208 2.54127 20.913 10.9392
310 2 2.2208 2.48432 15.3753 10.8065
8882 2 2.2208 -0.437256 15.2591 8.04968
306 1 -1.1104 6.57852 16.6724 12.353
288 1 -1.1104 6.78498 19.5205 9.35286
296 1 -1.1104 6.74112 19.3992 12.2351
202 2 2.2208 8.07383 15.2113 10.8772
104 2 2.2208 10.8944 15.2908 8.08585
290 1 -1.1104 6.67871 14.1387 9.37777
137 1 -1.1104 9.4702 19.3125 12.4281
203 2 2.2208 8.20921 20.9282 10.9659
154 1 -1.1104 9.34369 13.8656 6.59287
311 1 -1.1104 9.53576 13.9008 9.32936
49 1 -1.1104 12.0885 19.5263 12.2033
165 2 2.2208 8.14373 18.1292 8.03912
231 1 -1.1104 9.67563 16.6972 9.46334
317 2 2.2208 2.40202 1.24377 13.6497
323 2 2.2208 10.8056 4.1066 13.5601
321 2 2.2208 8.0371 1.35512 13.7008
322 2 2.2208 10.8919 -1.43039 13.6013
326 2 2.2208 2.49168 12.4283 13.468
325 2 2.2208 5.3356 9.76501 13.549
320 2 2.2208 -0.369756 15.2619 13.6434
332 2 2.2208 5.23037 15.2674 13.5774
347 2 2.2208 13.6261 12.4464 13.5848
334 2 2.2208 10.8776 15.4525 13.7571
337 2 2.2208 5.232 1.28731 -0.290506
344 2 2.2208 10.7114 1.32322 -0.253243
9210 2 2.2208 -0.404347 12.5712 -0.328646
351 2 2.2208 5.27656 12.5929 -0.446835
354 2 2.2208 10.8232 7.0051 -0.355363
9182 2 2.2208 -0.455033 18.1924 -0.251385
353 2 2.2208 10.9952 18.0419 -0.306813
358 2 2.2208 5.2524 1.46669 16.4299
359 1 -1.1104 1.07006 -2.88591 17.8568
360 1 -1.1104 0.93708 2.90994 17.9715
363 1 -1.1104 1.07571 -2.76873 15.0811
365 1 -1.1104 1.09296 2.68071 15.1809
371 1 -1.1104 0.982524 -0.024486 17.8792
373 2 2.2208 5.25805 -1.40165 19.2198
375 1 -1.1104 0.89627 -0.0121339 15.0764
379 1 -1.1104 3.92387 -2.74282 17.8801
380 1 -1.1104 3.97011 2.82391 17.7969
381 2 2.2208 2.47845 1.4158 19.2413
382 1 -1.1104 3.97203 -2.84258 15.1728
384 1 -1.1104 3.88195 2.88202 15.0506
386 2 2.2208 2.37356 -1.297 16.3495
387 2 2.2208 2.39265 4.16967 16.5262
388 1 -1.1104 3.90447 0.151184 17.8257
389 1 -1.1104 3.9338 -0.0486205 15.0822
374 2 2.2208 5.32438 4.09743 19.3114
364 1 -1.1104 1.03527 -2.70878 20.6637
366 1 -1.1104 0.958718 2.7308 20.733
390 1 -1.1104 3.93765 -0.07535 20.5739
369 1 -1.1104 6.68494 2.86521 15.0391
362 1 -1.1104 6.87938 2.80246 17.8482
361 1 -1.1104 6.62019 -2.85862 17.9158
8843 2 2.2208 -0.280611 -4.21587 16.5449
9250 2 2.2208 -0.222557 20.9978 25.0052
682 1 -1.1104 6.68597 13.8756 26.2724
9294 2 2.2208 -0.29198 9.76195 24.7848
558 1 -1.1104 9.73164 16.6404 26.1335
625 2 2.2208 13.7026 18.163 24.9148
377 1 -1.1104 6.65945 -0.00772599 15.0825
367 1 -1.1104 6.66385 -2.8112 15.1128
372 1 -1.1104 6.64939 0.0163107 17.7946
401 2 2.2208 10.7972 1.3281 16.5582
402 1 -1.1104 12.3867 -2.95198 17.8887
403 1 -1.1104 12.3101 2.80473 17.9707
404 1 -1.1104 12.4538 -2.92334 15.0756
406 1 -1.1104 12.2173 2.74904 15.2165
408 1 -1.1104 12.4061 -0.0631515 17.9143
409 2 2.2208 11.0312 -1.5504 19.3039
410 2 2.2208 10.8775 4.1787 19.3485
411 1 -1.1104 12.2303 -0.0767613 15.0505
413 1 -1.1104 9.44881 -2.91747 17.9187
414 1 -1.1104 9.56011 2.58088 17.8923
415 2 2.2208 8.18026 1.2079 19.3322
416 1 -1.1104 9.63593 -2.85948 15.1366
418 1 -1.1104 9.44718 2.79233 15.0009
420 2 2.2208 8.03275 -1.50326 16.5084
421 2 2.2208 8.13703 4.11293 16.5017
422 1 -1.1104 9.47172 -0.102085 17.8516
423 1 -1.1104 9.43775 -0.0749755 15.0192
419 1 -1.1104 9.56747 2.64612 20.6675
370 1 -1.1104 6.64599 2.69563 20.7247
417 1 -1.1104 9.68954 -3.03715 20.7029
405 1 -1.1104 12.4766 -2.78566 20.6395
407 1 -1.1104 12.187 2.90557 20.8112
431 1 -1.1104 12.3743 16.6891 23.4699
585 1 -1.1104 12.1682 13.8943 23.379
594 2 2.2208 -0.310823 -1.50373 24.8072
399 2 2.2208 13.6047 4.16928 16.475
624 2 2.2208 13.6074 1.28222 24.9481
430 2 2.2208 13.8039 20.9188 16.5247
336 2 2.2208 13.6618 18.1275 13.6889
434 2 2.2208 5.20758 6.94346 16.4143
435 2 2.2208 5.18192 12.5379 16.4053
436 1 -1.1104 1.00209 8.31478 17.8232
438 1 -1.1104 0.946531 8.28406 15.0138
442 1 -1.1104 1.04184 5.57745 17.9225
443 1 -1.1104 1.14696 10.9924 17.8199
446 2 2.2208 5.30633 9.75739 19.1806
447 1 -1.1104 0.858784 5.49075 15.1136
449 1 -1.1104 1.02161 11.0166 15.0718
455 1 -1.1104 3.98754 8.33185 17.8037
456 2 2.2208 2.47167 6.93923 19.1715
457 2 2.2208 2.56228 12.5244 19.2814
458 1 -1.1104 3.86298 8.43799 15.0359
460 2 2.2208 2.44243 9.71399 16.4548
461 1 -1.1104 3.95877 5.55339 17.8844
462 1 -1.1104 3.92021 11.2112 17.8991
463 1 -1.1104 3.63974 5.6559 15.1861
465 1 -1.1104 3.83657 11.0144 14.872
464 1 -1.1104 4.04036 5.43095 20.8129
459 1 -1.1104 3.76012 8.23434 20.6054
450 1 -1.1104 1.06356 11.2876 20.5887
466 1 -1.1104 3.89182 11.1532 20.6937
494 2 2.2208 8.16545 18.2516 24.9412
592 2 2.2208 -0.274063 9.65658 19.1335
532 2 2.2208 8.09867 20.9356 22.0841
444 1 -1.1104 6.66622 5.49721 17.7755
440 1 -1.1104 6.70058 8.41459 14.9335
445 1 -1.1104 6.78268 11.2386 17.7937
451 1 -1.1104 6.54315 5.57806 14.9326
453 1 -1.1104 6.58862 11.1722 15.1082
437 1 -1.1104 6.63635 8.20398 17.7704
470 2 2.2208 10.8518 6.98379 16.4981
471 2 2.2208 10.8555 12.7122 16.4858
472 1 -1.1104 12.2511 8.28333 17.8703
473 1 -1.1104 12.219 8.15889 15.0738
475 1 -1.1104 12.3323 5.5704 17.9023
476 1 -1.1104 12.2523 11.2548 17.8438
477 2 2.2208 10.9094 9.81054 19.3479
478 1 -1.1104 12.0849 5.57129 15.0234
480 1 -1.1104 12.2164 10.9967 15.0817
482 1 -1.1104 9.44656 8.467 18.009
483 2 2.2208 8.11821 6.86539 19.2679
484 2 2.2208 7.95157 12.5696 19.3533
485 1 -1.1104 9.43208 8.39016 15.0942
487 2 2.2208 8.0477 9.74389 16.4019
488 1 -1.1104 9.48558 5.4548 17.8883
489 1 -1.1104 9.58281 11.2957 17.8579
490 1 -1.1104 9.37905 5.49832 15.0049
492 1 -1.1104 9.43371 11.0833 15.0531
454 1 -1.1104 6.60252 11.1258 20.6872
493 1 -1.1104 9.34664 11.0317 20.6199
491 1 -1.1104 9.54894 5.52794 20.7555
479 1 -1.1104 12.3072 5.56937 20.6651
474 1 -1.1104 12.2217 8.32193 20.7069
469 1 -1.1104 9.47359 19.5401 23.4944
496 1 -1.1104 9.59498 13.9632 26.282
497 2 2.2208 5.21937 18.0692 16.5053
498 1 -1.1104 1.05642 13.8016 17.9156
499 1 -1.1104 0.943058 19.4391 18.0923
502 1 -1.1104 1.06969 13.8493 15.0356
504 1 -1.1104 0.9982 19.547 15.1672
510 1 -1.1104 1.09222 16.6015 17.8314
512 2 2.2208 5.19851 15.4847 19.1862
513 2 2.2208 5.18438 20.9804 19.2495
514 1 -1.1104 0.802746 16.7694 14.9715
518 1 -1.1104 3.88375 14.0108 17.9195
519 1 -1.1104 3.83112 19.4554 17.8917
520 2 2.2208 2.4021 18.1139 19.2423
521 1 -1.1104 3.76358 13.8894 15.0513
523 1 -1.1104 3.88684 19.5297 14.8879
525 2 2.2208 2.48485 15.2953 16.4009
526 2 2.2208 2.40465 20.927 16.5735
527 1 -1.1104 3.83076 16.6882 17.7934
528 1 -1.1104 3.62739 16.5936 14.9769
529 1 -1.1104 3.83204 16.8016 20.7191
675 1 -1.1104 6.76495 14.1118 23.5121
506 1 -1.1104 6.59642 13.871 14.9078
515 1 -1.1104 0.991007 16.7877 20.6989
501 1 -1.1104 6.60477 19.5179 17.9372
522 1 -1.1104 3.73908 13.9509 20.7366
618 2 2.2208 -0.341895 12.5635 16.4968
331 2 2.2208 5.28341 21.0011 13.6462
396 2 2.2208 13.5747 9.71055 16.5401
500 1 -1.1104 6.57188 13.901 17.8084
509 1 -1.1104 6.70109 19.6541 20.8145
544 1 -1.1104 12.1921 16.8191 20.595
508 1 -1.1104 6.65423 19.4636 15.0896
516 1 -1.1104 6.44027 16.6722 15.1435
511 1 -1.1104 6.6248 16.7996 17.8615
533 2 2.2208 10.8793 18.191 16.5179
534 1 -1.1104 12.1174 13.929 17.8672
535 1 -1.1104 12.2136 19.5149 17.9458
536 1 -1.1104 12.1829 13.984 15.0124
538 1 -1.1104 12.1526 19.5122 15.1977
540 1 -1.1104 12.2567 16.6042 17.8621
541 2 2.2208 10.6693 15.3561 19.2868
542 2 2.2208 10.835 20.9583 19.289
543 1 -1.1104 12.2577 16.7457 15.0954
545 1 -1.1104 9.40423 14.0708 17.8971
546 1 -1.1104 9.44653 19.5763 17.8982
547 2 2.2208 8.09589 18.1386 19.3025
548 1 -1.1104 9.44458 14.0664 14.9546
550 1 -1.1104 9.31711 19.5502 15.1217
552 2 2.2208 8.05246 15.1991 16.4868
553 2 2.2208 7.98693 20.8625 16.5328
554 1 -1.1104 9.52886 16.883 17.9506
555 1 -1.1104 9.30471 16.6467 15.0569
507 1 -1.1104 6.44566 14.0268 20.4916
395 2 2.2208 -0.406781 -1.41436 19.1928
537 1 -1.1104 12.1395 13.9156 20.5448
376 1 -1.1104 0.999844 -0.0296136 20.5952
378 1 -1.1104 6.77184 -0.205006 20.7383
383 1 -1.1104 4.03284 -2.69225 20.6048
385 1 -1.1104 3.80407 2.7606 20.5936
397 2 2.2208 -0.476035 4.13129 19.3095
561 2 2.2208 5.2169 1.33372 22.1317
562 1 -1.1104 1.13146 -2.69558 23.4733
563 1 -1.1104 1.12171 2.68053 23.532
566 1 -1.1104 1.03456 -2.79503 26.3321
567 1 -1.1104 0.908588 2.6869 26.2619
570 1 -1.1104 0.960114 -0.0985543 23.4547
572 2 2.2208 5.29799 -1.4598 24.8328
574 1 -1.1104 1.10818 -0.0552774 26.263
576 1 -1.1104 3.84064 -2.86297 23.3452
577 1 -1.1104 3.73867 2.80021 23.4267
578 2 2.2208 2.52565 1.30679 24.9289
579 1 -1.1104 3.82857 -2.88254 26.2514
580 1 -1.1104 3.96706 2.64602 26.2805
581 2 2.2208 2.45558 -1.42524 22.0614
583 1 -1.1104 3.80827 0.0689405 23.3822
584 1 -1.1104 3.92632 -0.177339 26.344
582 2 2.2208 2.35966 4.11015 22.0986
573 2 2.2208 5.22857 4.10518 24.8061
338 2 2.2208 2.47166 -1.58408 27.7372
368 1 -1.1104 6.73253 -3.01171 20.6644
569 1 -1.1104 6.59602 2.75286 26.329
568 1 -1.1104 6.63144 -2.91346 26.3206
564 1 -1.1104 6.67732 -2.83667 23.4867
412 1 -1.1104 12.2947 -0.0543559 20.71
424 1 -1.1104 9.54075 -0.197235 20.7526
551 1 -1.1104 9.52977 19.547 20.7325
539 1 -1.1104 12.1115 19.5816 20.6812
571 1 -1.1104 6.77589 -0.0615829 23.357
593 2 2.2208 13.6446 15.3953 21.936
575 1 -1.1104 6.60171 -0.188815 26.1108
565 1 -1.1104 6.65458 2.71218 23.4971
597 2 2.2208 10.844 1.19893 22.0429
598 1 -1.1104 12.2944 -2.9409 23.5006
599 1 -1.1104 12.2777 2.60529 23.6044
600 1 -1.1104 12.2151 -2.88632 26.1657
601 1 -1.1104 12.3388 2.7178 26.4141
602 1 -1.1104 12.2291 -0.144359 23.4806
603 2 2.2208 10.7786 -1.48712 24.8406
604 2 2.2208 10.7856 4.04299 24.8714
605 1 -1.1104 12.265 -0.0810062 26.3139
606 1 -1.1104 9.48359 -2.89698 23.5522
607 1 -1.1104 9.26252 2.734 23.5857
608 2 2.2208 8.01358 1.38879 25.002
609 1 -1.1104 9.38787 -2.97306 26.3627
610 1 -1.1104 9.48989 2.67663 26.3994
611 2 2.2208 8.10936 -1.49774 22.1308
612 2 2.2208 8.11973 4.14836 22.1316
613 1 -1.1104 9.48136 -0.0297584 23.5721
614 1 -1.1104 9.45705 -0.229757 26.3565
9188 2 2.2208 -0.287205 6.94249 27.679
531 2 2.2208 8.11416 15.4622 22.1153
448 1 -1.1104 1.1031 5.53802 20.7319
439 1 -1.1104 1.06321 8.41557 20.6036
452 1 -1.1104 6.79899 5.54836 20.4755
467 1 -1.1104 12.4071 16.6957 26.4069
655 2 2.2208 -0.378458 12.504 21.9766
350 2 2.2208 2.54624 9.85524 27.6698
349 2 2.2208 5.26411 7.08135 27.6636
626 2 2.2208 5.26934 6.92143 22.0655
627 2 2.2208 5.23625 12.4899 22.0719
628 1 -1.1104 1.14616 8.32952 23.4886
630 1 -1.1104 0.967763 8.30413 26.1532
632 1 -1.1104 1.07431 5.41431 23.5077
633 1 -1.1104 0.936642 11.1367 23.3624
636 2 2.2208 5.37062 9.76996 24.8959
637 1 -1.1104 1.08941 5.42227 26.2789
638 1 -1.1104 1.17251 11.2898 26.0847
641 1 -1.1104 4.09501 8.38972 23.4746
642 2 2.2208 2.51588 6.97727 24.8876
643 2 2.2208 2.41165 12.6404 24.678
644 1 -1.1104 3.78338 8.6089 26.2057
645 2 2.2208 2.4469 9.74811 22.0346
646 1 -1.1104 4.01087 5.69131 23.5465
647 1 -1.1104 3.80332 11.1198 23.546
648 1 -1.1104 3.87274 5.60216 26.3362
649 1 -1.1104 4.14427 11.3561 26.1427
629 1 -1.1104 6.84263 8.25886 23.3469
635 1 -1.1104 6.76815 11.1411 23.4925
640 1 -1.1104 6.88746 11.083 26.2804
356 2 2.2208 10.9138 12.4848 27.6783
441 1 -1.1104 6.63666 8.41015 20.5254
486 1 -1.1104 9.48728 8.33169 20.7564
355 2 2.2208 8.20411 9.89019 27.7336
481 1 -1.1104 12.4391 11.0893 20.7303
631 1 -1.1104 6.80746 8.36396 26.4081
634 1 -1.1104 6.74895 5.54052 23.3095
639 1 -1.1104 6.55792 5.4637 26.1808
657 1 -1.1104 9.57726 11.1969 26.1894
658 1 -1.1104 9.26568 5.54135 26.2235
659 1 -1.1104 9.46877 11.115 23.4051
660 1 -1.1104 9.42139 5.45294 23.5249
661 2 2.2208 8.10341 9.71345 22.1241
662 1 -1.1104 9.49797 8.29821 26.2343
663 2 2.2208 8.23357 12.5453 24.7858
664 2 2.2208 8.04448 6.96576 24.748
665 2 2.2208 10.8565 6.9172 22.1185
666 2 2.2208 10.8814 12.5678 21.9601
667 1 -1.1104 12.4071 8.35084 23.4776
668 1 -1.1104 12.2562 8.39407 26.2664
669 1 -1.1104 12.0806 5.57507 23.6312
670 1 -1.1104 12.2388 11.0951 23.5231
671 2 2.2208 10.8699 9.75243 24.8544
672 1 -1.1104 12.1744 5.44794 26.3308
673 1 -1.1104 12.3562 11.1342 26.3054
674 1 -1.1104 9.47708 8.4873 23.49
433 2 2.2208 10.8767 20.8931 25.014
557 1 -1.1104 9.54229 16.7987 23.4678
503 1 -1.1104 1.03165 13.9309 20.6606
524 1 -1.1104 3.82495 19.5516 20.7079
505 1 -1.1104 1.04205 19.6417 20.7954
517 1 -1.1104 6.60481 16.782 20.582
587 2 2.2208 2.50265 15.277 22.0254
590 2 2.2208 2.38497 20.9963 22.1354
615 1 -1.1104 3.88048 16.871 23.5263
616 1 -1.1104 0.954675 16.6946 23.5481
619 1 -1.1104 3.85657 14.183 26.3021
622 1 -1.1104 3.82325 16.7881 26.2841
650 2 2.2208 2.41899 18.2116 24.9194
651 1 -1.1104 3.91691 19.7191 26.2115
652 2 2.2208 5.30376 18.1666 22.1121
654 1 -1.1104 1.13379 13.952 23.4776
656 1 -1.1104 1.04346 19.6578 23.5244
676 2 2.2208 5.22276 15.3805 24.8676
677 2 2.2208 5.35332 20.9772 24.85
681 1 -1.1104 3.91074 19.7138 23.442
683 1 -1.1104 3.9613 13.8428 23.4322
685 1 -1.1104 1.11819 19.4933 26.4209
686 1 -1.1104 1.07289 16.7695 26.3811
687 1 -1.1104 0.957727 14.0224 26.2459
684 1 -1.1104 6.73381 16.6998 26.2807
549 1 -1.1104 9.24272 13.8795 20.8414
425 1 -1.1104 12.397 19.3864 26.3721
556 1 -1.1104 9.38444 16.8394 20.7329
530 1 -1.1104 9.58075 19.4936 26.5246
468 1 -1.1104 9.53633 13.9746 23.4525
357 2 2.2208 8.12414 20.9773 27.7484
560 1 -1.1104 12.2353 19.6916 23.5249
432 2 2.2208 10.9855 15.3415 24.7555
679 1 -1.1104 6.77069 19.5077 23.5255
495 1 -1.1104 6.98383 19.5868 26.1934
617 1 -1.1104 6.74256 16.863 23.4633
586 2 2.2208 10.7995 18.1127 22.0929
400 1 -1.1104 12.2543 14.0185 26.1383
339 2 2.2208 2.47584 4.15228 27.6345
8473 2 2.2208 2.43074 -4.15925 13.6958
9218 2 2.2208 -0.416294 1.31288 27.7275
335 2 2.2208 8.04269 17.9645 13.7243
318 2 2.2208 13.5117 1.32155 13.6779
346 2 2.2208 7.94565 4.21805 27.7623
340 2 2.2208 2.35412 15.4052 27.7379
9187 2 2.2208 13.7629 9.73588 27.6947
352 2 2.2208 8.2443 15.3633 27.5312
319 2 2.2208 5.19442 4.22799 13.6999
324 2 2.2208 2.34337 6.92217 13.6499
348 2 2.2208 13.5254 -1.47723 27.6033
327 2 2.2208 7.97958 6.93488 13.634
328 2 2.2208 10.8485 9.72691 13.7554
330 2 2.2208 2.34314 18.1552 13.7677
333 2 2.2208 10.7517 20.8623 13.7086
688 2 2.2208 5.30404 23.8257 5.188
689 2 2.2208 5.40227 29.418 5.38384
690 1 -1.1104 1.09575 25.1723 1.13977
691 1 -1.1104 0.941281 25.0313 3.92097
692 1 -1.1104 1.01773 22.3519 0.994027
693 1 -1.1104 1.11032 27.9472 1.11555
694 2 2.2208 5.31197 26.6317 2.62356
695 1 -1.1104 1.03389 22.3076 3.85732
696 1 -1.1104 1.05912 28.0114 3.8805
697 1 -1.1104 3.87966 25.2758 1.11261
698 2 2.2208 2.30426 23.7453 2.5214
699 2 2.2208 2.5644 29.477 2.51786
700 1 -1.1104 3.68139 25.2492 3.85462
701 2 2.2208 2.31951 26.4611 5.38522
702 1 -1.1104 3.87612 22.4051 1.13664
703 1 -1.1104 3.9596 27.9525 1.29923
704 1 -1.1104 3.82709 22.4522 4.02254
705 1 -1.1104 3.86 27.9901 4.16568
9838 2 2.2208 -0.405431 29.3281 5.32987
1010 2 2.2208 10.9556 43.3391 13.7898
713 1 -1.1104 6.7145 22.5066 3.86016
712 1 -1.1104 6.83386 27.9708 1.03645
714 1 -1.1104 6.72992 28.1337 3.85737
709 1 -1.1104 6.72461 25.2496 1.20271
831 1 -1.1104 0.993714 22.3338 6.65272
830 1 -1.1104 6.63188 25.1284 6.78506
9841 2 2.2208 -0.352123 26.6779 2.59829
733 1 -1.1104 12.2077 41.835 9.47199
1013 2 2.2208 5.4167 29.2703 -0.277068
710 1 -1.1104 6.7852 25.1783 4.01956
711 1 -1.1104 6.67901 22.3373 1.06062
715 2 2.2208 10.9055 23.8197 5.15952
716 2 2.2208 10.7748 29.4861 5.2527
717 1 -1.1104 12.3184 25.1584 0.935804
718 1 -1.1104 12.3951 25.324 3.84371
719 1 -1.1104 12.3901 22.3163 0.949907
720 1 -1.1104 12.3215 27.9132 1.0319
721 2 2.2208 11.0196 26.6631 2.49314
722 1 -1.1104 12.2242 22.4744 3.85171
723 1 -1.1104 12.2888 28.0648 4.02375
724 1 -1.1104 9.46243 25.3938 1.02298
725 2 2.2208 8.1997 23.8277 2.45869
726 2 2.2208 8.15509 29.4412 2.40861
727 1 -1.1104 9.46189 25.2051 3.84929
728 2 2.2208 8.19973 26.5966 5.29857
729 1 -1.1104 9.60043 22.3872 1.16445
730 1 -1.1104 9.67734 28.1074 1.07335
731 1 -1.1104 9.46362 22.2495 3.93272
732 1 -1.1104 9.52759 28.0937 3.78533
1555 1 -1.1104 9.4071 47.6109 6.61956
707 2 2.2208 11.0047 46.094 10.9566
954 1 -1.1104 6.73359 44.7046 12.3806
1014 2 2.2208 10.9581 23.7466 -0.362003
9845 2 2.2208 -0.366608 37.8507 2.60906
736 2 2.2208 5.2949 35.0365 5.41239
737 1 -1.1104 1.09271 30.7363 1.08094
738 1 -1.1104 1.1234 36.5325 1.23902
740 1 -1.1104 1.16407 30.7765 3.88353
741 1 -1.1104 0.943063 36.4682 4.00844
743 1 -1.1104 1.34715 33.7573 1.17433
744 2 2.2208 5.32649 32.2152 2.51645
745 2 2.2208 5.3387 37.7153 2.57036
746 1 -1.1104 0.978638 33.5551 3.88904
748 1 -1.1104 3.91751 30.7865 1.11689
749 1 -1.1104 3.78682 36.3118 1.13487
750 2 2.2208 2.44271 35.0441 2.66346
751 1 -1.1104 3.86874 30.7432 3.93777
752 1 -1.1104 3.75677 36.4386 4.11654
753 2 2.2208 2.4512 32.1959 5.38786
754 2 2.2208 2.46542 37.8245 5.35251
755 1 -1.1104 3.93681 33.4608 1.269
756 1 -1.1104 3.80403 33.5564 4.00097
760 1 -1.1104 6.77662 30.8752 0.985437
981 1 -1.1104 9.44077 39.1116 9.62678
1019 2 2.2208 5.19704 35.0037 -0.125778
10050 2 2.2208 -0.324808 34.9572 -0.343261
1295 2 2.2208 2.53342 32.1815 -0.27838
761 1 -1.1104 6.7124 30.9127 3.83273
742 1 -1.1104 6.67265 36.3512 3.9494
739 1 -1.1104 6.77433 36.4402 1.18397
747 1 -1.1104 6.70138 33.5835 4.0031
888 1 -1.1104 6.69913 30.8877 6.77106
762 1 -1.1104 6.68123 33.6055 1.18779
763 2 2.2208 10.942 35.022 5.29443
764 1 -1.1104 12.3822 30.7493 1.09187
765 1 -1.1104 12.2373 36.4055 0.893523
766 1 -1.1104 12.336 30.7569 4.09401
767 1 -1.1104 12.1776 36.3916 3.73113
768 1 -1.1104 12.2477 33.3428 0.970936
769 2 2.2208 10.9364 32.2111 2.58141
770 2 2.2208 10.8071 37.8161 2.35401
771 1 -1.1104 12.359 33.68 3.8867
772 1 -1.1104 9.58208 30.8356 1.23549
773 1 -1.1104 9.41567 36.3071 1.07628
774 2 2.2208 8.09666 34.9192 2.49589
775 1 -1.1104 9.4306 30.8921 4.0467
776 1 -1.1104 9.55799 36.2629 3.79906
777 2 2.2208 8.06133 32.2129 5.36748
778 2 2.2208 8.05828 37.778 5.32932
779 1 -1.1104 9.43474 33.6426 1.12753
780 1 -1.1104 9.57849 33.5945 3.85426
925 1 -1.1104 9.45426 33.6055 6.79607
949 1 -1.1104 6.66611 38.9876 9.49137
889 1 -1.1104 6.87655 36.4454 6.80463
1022 2 2.2208 10.9132 34.9255 -0.350659
1021 2 2.2208 8.12171 32.2775 -0.298526
982 1 -1.1104 9.49907 44.7742 12.2254
9849 2 2.2208 -0.461523 43.5799 2.44934
994 2 2.2208 2.4878 43.35 -0.411973
782 2 2.2208 5.26113 40.5391 5.25085
783 2 2.2208 5.38469 46.1723 5.3413
784 1 -1.1104 1.00659 42.1332 1.13769
786 1 -1.1104 1.06302 41.9889 3.90615