ITEM: TIMESTEP
50000
ITEM: NUMBER OF ATOMS
17910
ITEM: BOX BOUNDS pp pp pp
-3.5007112434450516e-01 2.7690071124344691e+01
-4.3107644732474633e+00 3.3239076447324186e+02
-3.5496718392008614e-01 2.7694967183919861e+01
ITEM: ATOMS id type q x y z
1 2 2.2208 5.0538 1.25076 5.24668
2 1 -1.1104 0.800792 -3.13021 1.27762
3 1 -1.1104 0.784992 2.46988 1.11029
6 1 -1.1104 0.742494 -2.99535 3.99167
7 1 -1.1104 0.909695 2.56801 3.79307
10 1 -1.1104 1.0432 -0.276654 1.01661
12 2 2.2208 5.07487 -1.68402 2.48597
13 2 2.2208 5.10912 4.01284 2.45495
14 1 -1.1104 0.920381 -0.338989 3.73889
16 1 -1.1104 3.57349 -2.96445 1.04607
17 1 -1.1104 3.69182 2.66562 1.04186
18 2 2.2208 2.34231 1.18024 2.54228
19 1 -1.1104 3.59691 -3.11269 3.93467
20 1 -1.1104 3.64787 2.61334 3.93176
21 2 2.2208 2.24437 -1.53265 5.26345
22 2 2.2208 2.23587 3.9283 5.19253
23 1 -1.1104 3.7417 -0.296777 1.10023
24 1 -1.1104 3.75314 -0.304472 3.92636
15 1 -1.1104 6.47232 -0.314453 3.8968
5 1 -1.1104 6.48276 2.65181 1.02807
4 1 -1.1104 6.42346 -2.93201 1.12584
9 1 -1.1104 6.47273 2.52258 3.99977
11 1 -1.1104 6.34385 0.00292298 0.951023
8 1 -1.1104 6.41322 -3.10018 3.91904
337 2 2.2208 4.99146 1.22074 -0.375564
339 2 2.2208 2.16225 4.04197 -0.378718
349 2 2.2208 4.97829 6.96019 -0.286379
354 2 2.2208 10.6813 6.81291 -0.338682
31 2 2.2208 10.6258 1.24756 5.24312
32 1 -1.1104 12.0035 -3.02609 0.992614
33 1 -1.1104 11.9368 2.63144 1.1326
34 1 -1.1104 11.9812 -3.05912 3.85333
35 1 -1.1104 12.0895 2.51589 3.815
36 1 -1.1104 12.117 -0.116854 1.19535
37 2 2.2208 10.6354 -1.61877 2.48712
39 1 -1.1104 11.9922 -0.208861 3.89782
40 1 -1.1104 9.17503 -3.09411 1.06876
41 1 -1.1104 9.12321 2.46618 0.983232
42 2 2.2208 7.84567 1.18853 2.45562
43 1 -1.1104 9.17694 -2.9724 4.04121
44 1 -1.1104 9.20881 2.62085 3.84977
45 2 2.2208 7.71477 -1.65464 5.35905
47 1 -1.1104 9.18818 -0.298239 1.13069
48 1 -1.1104 9.30342 -0.155534 3.79715
38 2 2.2208 10.6746 4.0144 2.51675
46 2 2.2208 7.82712 4.03948 5.31165
9178 2 2.2208 13.4014 1.24041 2.41678
209 1 -1.1104 9.16791 2.6192 6.59363
50 2 2.2208 13.445 -1.60065 5.1998
8881 2 2.2208 13.3644 3.98271 5.2976
8461 2 2.2208 10.7057 -4.50561 -0.394886
346 2 2.2208 7.80779 3.958 -0.339603
9216 2 2.2208 13.3221 4.10207 -0.440103
206 1 -1.1104 11.8746 2.73228 6.64373
207 1 -1.1104 12.0943 -0.216084 6.68781
208 1 -1.1104 9.20274 -2.98322 6.84088
345 2 2.2208 7.89473 -1.68219 -0.367044
54 2 2.2208 4.97823 6.71322 5.26522
55 2 2.2208 4.88425 12.39 5.30442
56 1 -1.1104 0.84826 8.28646 1.14421
58 1 -1.1104 0.641804 8.25177 3.96776
60 1 -1.1104 0.84825 5.38607 0.965145
61 1 -1.1104 0.707957 11.07 1.10937
66 2 2.2208 5.00564 9.63588 2.44617
67 1 -1.1104 0.840476 5.43723 3.83466
68 1 -1.1104 0.902822 11.0228 4.02214
71 1 -1.1104 3.64268 8.32402 1.1399
72 2 2.2208 2.22215 6.84913 2.45001
73 2 2.2208 2.05253 12.3717 2.30618
74 1 -1.1104 3.69619 8.36091 3.82567
75 2 2.2208 2.24902 9.68802 5.21461
76 1 -1.1104 3.60538 5.4424 1.01218
77 1 -1.1104 3.4739 11.0002 0.990938
79 1 -1.1104 3.6887 5.47371 3.88361
80 1 -1.1104 3.58621 11.1208 3.89446
63 1 -1.1104 6.42202 5.39962 1.11874
70 1 -1.1104 6.40484 10.9547 3.83291
57 1 -1.1104 6.45928 8.32463 0.938239
64 1 -1.1104 6.39388 11.138 1.10728
59 1 -1.1104 6.37922 8.31651 3.86095
238 1 -1.1104 3.44971 8.30399 6.56182
239 1 -1.1104 3.53712 5.3801 6.76669
69 1 -1.1104 6.49719 5.30178 3.92861
62 1 -1.1104 0.99509 11.0733 6.85709
237 1 -1.1104 6.38551 5.45183 6.69469
235 1 -1.1104 6.18724 8.17348 6.62632
84 2 2.2208 10.5688 6.77877 5.20863
85 2 2.2208 10.5526 12.4204 5.17154
86 1 -1.1104 11.9899 8.1968 1.02405
87 1 -1.1104 12.0307 8.29366 3.90145
88 1 -1.1104 12.0158 5.44701 1.08313
89 1 -1.1104 12.137 10.919 1.09002
91 2 2.2208 10.591 9.57101 2.49453
92 1 -1.1104 11.9823 5.38739 3.88084
93 1 -1.1104 12.0638 11.107 4.01715
94 1 -1.1104 9.2114 8.2957 0.970924
95 2 2.2208 7.85122 6.82304 2.40091
96 2 2.2208 7.79066 12.4987 2.52496
97 1 -1.1104 9.11941 8.27775 3.76806
98 2 2.2208 7.72214 9.65098 5.13156
99 1 -1.1104 9.26836 5.47448 1.00751
100 1 -1.1104 9.16197 11.0626 1.19513
102 1 -1.1104 9.18934 5.40748 3.87634
103 1 -1.1104 9.08711 11.1831 3.86132
355 2 2.2208 7.81161 9.76831 -0.315614
9077 2 2.2208 13.423 12.471 2.44182
8910 2 2.2208 13.4502 9.67189 5.3049
9076 2 2.2208 13.3905 6.8465 2.35356
269 1 -1.1104 9.19601 5.58026 6.73711
8469 2 2.2208 7.85794 -4.3081 13.6929
8446 2 2.2208 2.22517 -4.37892 2.5267
106 2 2.2208 4.99649 17.8961 5.38971
107 1 -1.1104 0.74362 13.7863 0.991145
109 1 -1.1104 0.874977 19.5241 0.894333
113 1 -1.1104 0.837236 13.8314 3.70441
114 1 -1.1104 0.99734 19.3402 3.90459
116 1 -1.1104 0.827929 16.6399 1.00141
119 2 2.2208 4.93048 15.3424 2.49795
120 2 2.2208 5.11891 20.9218 2.49238
121 1 -1.1104 0.95097 16.6416 3.83271
123 1 -1.1104 3.52781 13.8953 1.11234
125 1 -1.1104 3.72417 19.6534 1.11015
127 2 2.2208 2.20121 18.0607 2.45017
128 1 -1.1104 3.51252 13.8975 3.91341
129 1 -1.1104 3.84618 19.3989 3.94732
130 2 2.2208 2.25478 15.3371 5.20574
131 2 2.2208 2.25046 20.8285 5.3785
132 1 -1.1104 3.56231 16.858 1.11707
134 1 -1.1104 3.63674 16.6892 4.00405
139 1 -1.1104 6.64777 19.5523 3.85987
110 1 -1.1104 6.37699 13.9042 0.948269
138 1 -1.1104 6.41565 19.3664 1.07176
140 1 -1.1104 6.40612 16.6177 1.20654
115 1 -1.1104 6.32834 13.7121 4.0071
126 1 -1.1104 3.64281 19.3207 6.71272
118 1 -1.1104 6.32356 16.5294 6.80384
133 1 -1.1104 3.48782 16.5694 6.76209
302 1 -1.1104 0.706454 19.6352 6.65966
112 1 -1.1104 6.46779 19.2818 6.79354
342 2 2.2208 2.225 20.8855 -0.31989
122 1 -1.1104 6.49901 16.6512 4.04385
141 2 2.2208 10.8164 17.9129 5.34971
142 1 -1.1104 11.9574 13.7026 1.05901
144 1 -1.1104 12.061 19.485 1.08234
146 1 -1.1104 11.9607 13.8899 3.74568
147 1 -1.1104 12.0189 19.4973 3.82398
148 1 -1.1104 12.0422 16.64 0.976699
150 2 2.2208 10.6669 15.2631 2.37994
151 2 2.2208 10.6435 20.8437 2.48856
152 1 -1.1104 12.1075 16.6214 3.73873
153 1 -1.1104 9.04311 13.9563 1.09753
155 1 -1.1104 9.16244 19.683 0.9569
157 2 2.2208 7.94441 18.0902 2.48872
158 1 -1.1104 9.23203 13.957 3.8046
159 1 -1.1104 9.43905 19.3674 3.81785
160 2 2.2208 7.80941 15.1731 5.23893
161 2 2.2208 8.02418 20.8156 5.28172
162 1 -1.1104 9.36781 16.8931 0.983706
164 1 -1.1104 9.3667 16.6312 3.73876
347 2 2.2208 13.3535 12.4375 13.7707
8979 2 2.2208 13.4683 15.2471 5.1846
8958 2 2.2208 13.5453 20.8177 5.27581
8908 2 2.2208 13.4457 18.0147 2.49773
167 1 -1.1104 0.714399 2.47527 6.66718
174 1 -1.1104 3.59255 -0.259212 6.70681
171 1 -1.1104 6.435 -0.227063 6.75569
9209 2 2.2208 13.5392 15.2946 -0.37492
169 1 -1.1104 6.47399 2.68485 6.76039
172 1 -1.1104 3.71425 -3.01549 6.51825
170 1 -1.1104 0.877418 -0.123578 6.5302
168 1 -1.1104 6.52266 -2.96552 6.82431
166 1 -1.1104 0.85741 -3.01506 6.91447
173 1 -1.1104 3.601 2.49431 6.62473
175 2 2.2208 4.78934 1.10571 10.9324
176 1 -1.1104 0.786567 -3.02227 12.3763
177 1 -1.1104 0.651874 2.64307 12.151
180 1 -1.1104 0.689407 -2.99832 9.62056
181 1 -1.1104 0.718002 2.63535 9.39546
184 1 -1.1104 0.654648 -0.0799333 12.4003
186 2 2.2208 5.00672 -1.53199 8.18007
187 2 2.2208 4.87658 4.02957 8.06859
188 1 -1.1104 0.768664 -0.206647 9.59803
190 1 -1.1104 3.51839 -2.92436 12.1715
191 1 -1.1104 3.41894 2.6015 12.3117
192 2 2.2208 2.05638 1.21224 8.0883
193 1 -1.1104 3.44799 -2.96526 9.41647
194 1 -1.1104 3.48437 2.63197 9.55475
195 2 2.2208 2.01884 -1.52238 10.9956
197 1 -1.1104 3.50504 -0.306263 12.3619
198 1 -1.1104 3.53707 -0.2309 9.52178
196 2 2.2208 2.17163 3.98493 10.93
189 1 -1.1104 6.3986 -0.301635 9.39704
179 1 -1.1104 6.26423 2.49109 12.2167
178 1 -1.1104 6.52031 -3.03646 12.3191
185 1 -1.1104 6.39167 -0.172876 12.211
183 1 -1.1104 6.06273 2.39768 9.54894
135 1 -1.1104 11.9798 16.6124 9.49671
205 1 -1.1104 11.9761 -2.91248 6.7641
182 1 -1.1104 6.30607 -2.94193 9.47453
53 2 2.2208 13.3948 3.91799 10.8222
229 2 2.2208 13.3346 1.18586 8.04453
210 1 -1.1104 9.24319 -0.257013 6.6492
211 2 2.2208 10.5544 1.23739 10.8993
212 1 -1.1104 12.0582 -2.75154 12.3034
213 1 -1.1104 12.0008 2.67596 12.2537
214 1 -1.1104 12.0941 -3.13159 9.58943
215 1 -1.1104 11.894 2.50109 9.43171
216 1 -1.1104 12.0051 0.00421482 12.2378
217 2 2.2208 10.6095 -1.57228 8.19016
218 2 2.2208 10.4184 3.90516 8.01615
219 1 -1.1104 12.0005 -0.197332 9.5506
220 1 -1.1104 9.28275 -2.91833 12.2649
221 1 -1.1104 9.04843 2.74278 12.1577
222 2 2.2208 7.75021 1.16174 8.05218
223 1 -1.1104 9.2461 -3.00655 9.52757
224 1 -1.1104 8.96734 2.5746 9.38387
225 2 2.2208 7.89464 -1.54348 10.8837
226 2 2.2208 7.63834 3.88329 10.8916
227 1 -1.1104 9.25822 -0.0612688 12.253
228 1 -1.1104 9.24862 -0.179516 9.51251
230 2 2.2208 13.4596 -1.50057 10.8763
236 1 -1.1104 0.875234 5.35522 6.69093
78 1 -1.1104 3.63098 11.0144 6.67351
234 1 -1.1104 0.739872 8.24584 6.71821
240 2 2.2208 5.07581 6.72323 10.8761
241 2 2.2208 5.06787 12.4552 10.795
242 1 -1.1104 0.804253 8.1687 12.4125
244 1 -1.1104 0.90251 8.24489 9.60234
246 1 -1.1104 0.868553 5.26973 12.4645
247 1 -1.1104 0.95746 10.9732 12.4171
250 2 2.2208 4.91918 9.55707 8.0593
251 1 -1.1104 0.645351 5.49701 9.6897
252 1 -1.1104 0.775542 11.062 9.57876
255 1 -1.1104 3.58193 8.20043 12.2951
256 2 2.2208 2.17005 6.77702 8.10461
257 2 2.2208 2.11076 12.4736 8.1225
258 1 -1.1104 3.65449 8.08585 9.38056
259 2 2.2208 2.30876 9.62881 10.9195
260 1 -1.1104 3.68984 5.5104 12.3067
261 1 -1.1104 3.66989 10.9661 12.3158
262 1 -1.1104 3.54122 5.42068 9.5261
263 1 -1.1104 3.51432 10.9471 9.44634
249 1 -1.1104 6.38409 10.8769 12.3038
243 1 -1.1104 6.42187 8.17633 12.2565
253 1 -1.1104 6.36659 5.27557 9.43811
248 1 -1.1104 6.3539 5.32155 12.3306
65 1 -1.1104 6.45489 10.9216 6.7436
254 1 -1.1104 6.4169 10.8648 9.47958
245 1 -1.1104 6.38989 8.0393 9.56549
348 2 2.2208 13.4587 -1.53563 -0.427747
297 1 -1.1104 6.39489 13.8012 12.2771
267 1 -1.1104 9.09322 8.34714 6.56917
101 1 -1.1104 9.16846 11.0272 6.53885
51 2 2.2208 13.3633 9.61344 10.8705
265 1 -1.1104 12.0554 8.18068 6.58281
90 1 -1.1104 12.0405 10.939 6.70512
52 2 2.2208 13.3571 6.83404 8.02779
9093 2 2.2208 13.4285 12.3372 7.97821
266 1 -1.1104 11.6896 5.37241 6.5926
264 1 -1.1104 9.20892 10.9949 9.37886
268 1 -1.1104 9.11895 5.33597 9.75793
270 1 -1.1104 9.03567 11.0049 12.1658
271 1 -1.1104 9.34022 5.47527 12.431
272 2 2.2208 7.72805 9.59637 10.8296
273 1 -1.1104 9.23571 8.16174 9.30821
274 2 2.2208 7.8793 12.3376 8.02165
275 2 2.2208 7.75298 6.85817 8.09668
276 2 2.2208 10.5827 6.86277 10.8377
277 2 2.2208 10.5573 12.3859 10.9222
278 1 -1.1104 12.0473 8.27761 12.2504
279 1 -1.1104 11.9532 8.12913 9.42643
280 1 -1.1104 11.9544 5.43188 12.3229
281 1 -1.1104 12.0942 10.9222 12.3313
282 2 2.2208 10.6086 9.65354 8.00128
283 1 -1.1104 11.8718 5.40212 9.50403
284 1 -1.1104 12.022 10.9255 9.44384
285 1 -1.1104 9.12985 8.23258 12.2817
105 2 2.2208 10.7913 20.7202 8.09778
232 1 -1.1104 9.33734 19.3775 9.43238
124 1 -1.1104 3.68647 13.8778 6.61821
108 1 -1.1104 0.808023 13.9189 6.69823
288 1 -1.1104 6.43815 19.3261 9.52077
117 1 -1.1104 0.880716 16.7628 6.5334
290 1 -1.1104 6.46219 13.6858 9.54666
286 1 -1.1104 3.70598 19.329 12.1715
287 1 -1.1104 3.55453 13.7484 12.3073
291 1 -1.1104 0.874804 19.4437 9.51788
292 1 -1.1104 0.947703 16.5482 9.4735
293 2 2.2208 5.17406 20.8298 8.12499
294 1 -1.1104 0.960003 13.7409 9.44028
295 2 2.2208 4.97775 15.1065 8.05161
298 1 -1.1104 0.863539 19.3802 12.3554
299 1 -1.1104 0.682908 13.731 12.2848
300 2 2.2208 5.06094 18.0257 10.9314
301 1 -1.1104 3.73235 19.4557 9.38031
303 2 2.2208 2.26915 17.949 8.09962
304 1 -1.1104 3.77415 16.568 9.66907
305 1 -1.1104 3.66516 13.772 9.51256
307 1 -1.1104 0.906852 16.6604 12.2013
308 1 -1.1104 3.69091 16.5112 12.3634
309 2 2.2208 2.32778 20.7622 10.7675
310 2 2.2208 2.36028 15.0917 10.8817
111 1 -1.1104 6.36896 13.7632 6.77337
289 1 -1.1104 6.54513 16.5405 9.41244
202 2 2.2208 7.82984 15.3484 10.8147
203 2 2.2208 7.96086 20.843 10.9128
28 2 2.2208 13.5113 20.9608 10.9086
83 1 -1.1104 12.0473 16.5849 12.2949
25 2 2.2208 13.3295 15.1537 10.8316
145 1 -1.1104 12.1893 19.2989 6.64418
154 1 -1.1104 9.21644 13.8735 6.53509
311 1 -1.1104 9.24565 13.7738 9.37237
27 1 -1.1104 11.9895 13.6358 12.2083
306 1 -1.1104 6.47832 16.6436 12.3348
296 1 -1.1104 6.43679 19.4309 12.2949
165 2 2.2208 7.88391 17.9142 8.0696
231 1 -1.1104 9.3121 16.5497 9.54898
49 1 -1.1104 12.0659 19.4979 12.4301
156 1 -1.1104 9.34332 19.314 6.66164
149 1 -1.1104 11.957 16.5738 6.65354
82 1 -1.1104 12.0987 19.3625 9.63516
137 1 -1.1104 9.26838 19.4107 12.3352
204 1 -1.1104 9.16719 16.5636 12.2847
143 1 -1.1104 12.0942 13.7749 6.6272
104 2 2.2208 10.5848 15.1668 8.03422
163 1 -1.1104 9.17407 16.6601 6.71017
9176 2 2.2208 13.6053 18.0635 8.16466
26 2 2.2208 10.7832 17.997 10.9422
136 1 -1.1104 9.14183 13.7574 12.3137
81 1 -1.1104 12.0226 13.6672 9.43121
317 2 2.2208 2.11095 1.26651 13.8195
313 2 2.2208 -0.732689 20.9552 13.6497
324 2 2.2208 2.2794 6.77961 13.7195
323 2 2.2208 10.6708 4.00751 13.756
318 2 2.2208 13.4391 1.21823 13.6761
332 2 2.2208 5.09075 15.1668 13.7514
352 2 2.2208 7.83911 15.2653 -0.377534
350 2 2.2208 2.16569 9.70477 -0.370874
328 2 2.2208 10.5637 9.57915 13.5944
329 2 2.2208 7.69242 12.3093 13.6345
330 2 2.2208 2.19742 18.0696 13.7029
338 2 2.2208 2.31417 -1.68165 -0.311517
344 2 2.2208 10.6306 1.22221 -0.350478
341 2 2.2208 5.05059 18.2447 -0.266608
358 2 2.2208 5.03417 1.17812 16.4564
359 1 -1.1104 0.973839 -2.93506 17.8191
360 1 -1.1104 0.807847 2.54098 18.0763
363 1 -1.1104 0.758897 -2.93789 15.1228
365 1 -1.1104 0.71764 2.74724 15.1148
371 1 -1.1104 0.901324 -0.197516 17.9991
373 2 2.2208 4.96876 -1.58436 19.3904
375 1 -1.1104 0.868089 0.0808367 15.2614
379 1 -1.1104 3.60875 -2.91015 18.0218
380 1 -1.1104 3.58519 2.56309 17.8405
381 2 2.2208 2.14368 1.03339 19.3782
382 1 -1.1104 3.62963 -2.93045 15.1044
384 1 -1.1104 3.64463 2.70215 15.0937
386 2 2.2208 2.35172 -1.53577 16.4695
387 2 2.2208 2.23683 4.07215 16.48
388 1 -1.1104 3.71354 -0.199083 17.9513
389 1 -1.1104 3.62411 -0.175418 15.2044
374 2 2.2208 5.08056 3.99009 19.2714
372 1 -1.1104 6.4412 -0.249696 18.1399
377 1 -1.1104 6.41378 -0.207117 15.0077
369 1 -1.1104 6.31193 2.46802 14.8624
361 1 -1.1104 6.3958 -2.929 18.0615
367 1 -1.1104 6.46612 -2.79717 15.0595
319 2 2.2208 4.938 4.02417 13.6446
8650 2 2.2208 13.4758 -4.46652 24.9275
335 2 2.2208 7.86941 17.9285 13.8298
362 1 -1.1104 6.48483 2.53945 17.7895
366 1 -1.1104 0.929222 2.73002 20.8009
399 2 2.2208 13.4339 3.96518 16.5508
401 2 2.2208 10.6302 1.20103 16.4342
402 1 -1.1104 12.0931 -3.02014 17.957
403 1 -1.1104 12.2438 2.62237 18.0094
404 1 -1.1104 11.9362 -3.04239 15.0341
406 1 -1.1104 12.0313 2.58973 15.0925
408 1 -1.1104 12.0443 -0.439638 17.9085
409 2 2.2208 10.6943 -1.62993 19.3798
410 2 2.2208 10.6451 3.98382 19.2706
411 1 -1.1104 11.9881 -0.174461 15.025
413 1 -1.1104 9.1567 -2.92052 17.931
414 1 -1.1104 9.36787 2.7228 17.6974
415 2 2.2208 7.84735 1.13802 19.3615
416 1 -1.1104 9.1717 -2.9177 15.1455
418 1 -1.1104 9.11389 2.74516 14.8943
420 2 2.2208 7.86945 -1.5008 16.5052
421 2 2.2208 7.90818 3.98757 16.4208
422 1 -1.1104 9.27988 -0.206734 18.0211
423 1 -1.1104 9.24181 -0.156684 15.0666
398 2 2.2208 13.5636 1.17951 19.348
336 2 2.2208 13.5357 18.1012 13.8103
429 2 2.2208 13.3243 -1.69483 16.415
333 2 2.2208 10.6718 20.8509 13.8604
322 2 2.2208 10.6484 -1.55456 13.5601
321 2 2.2208 7.75487 1.20576 13.5698
419 1 -1.1104 9.26915 2.60919 20.4214
405 1 -1.1104 12.0125 -2.95767 20.6458
537 1 -1.1104 12.299 13.7374 20.6297
434 2 2.2208 5.12113 6.83242 16.432
435 2 2.2208 5.04806 12.4784 16.6241
436 1 -1.1104 0.705453 8.26013 17.8957
438 1 -1.1104 0.877188 8.08038 15.1375
442 1 -1.1104 1.01536 5.37 18.0027
443 1 -1.1104 0.657684 11.1535 17.8089
446 2 2.2208 5.11983 9.5524 19.2998
447 1 -1.1104 0.850048 5.30996 15.1706
449 1 -1.1104 0.806815 10.8479 15.0978
455 1 -1.1104 3.62134 8.21966 17.847
456 2 2.2208 2.3325 6.7955 19.3182
457 2 2.2208 2.27548 12.3564 19.3489
458 1 -1.1104 3.68305 8.30924 14.9365
460 2 2.2208 2.07753 9.58268 16.4131
461 1 -1.1104 3.6114 5.23146 18.118
462 1 -1.1104 3.60818 11.0925 17.8093
463 1 -1.1104 3.72501 5.472 15.259
465 1 -1.1104 3.48035 11.0857 15.1307
453 1 -1.1104 6.22125 11.0682 15.0934
440 1 -1.1104 6.51791 8.18287 15.1501
444 1 -1.1104 6.44556 5.50306 17.9186
451 1 -1.1104 6.37924 5.3413 15.0838
437 1 -1.1104 6.40081 8.30047 17.9277
445 1 -1.1104 6.40323 10.9654 17.8541
464 1 -1.1104 3.69087 5.30214 20.8804
459 1 -1.1104 3.6913 8.23394 20.633
466 1 -1.1104 3.60822 11.0495 20.7438
331 2 2.2208 5.03823 20.8143 13.5891
470 2 2.2208 10.6352 6.77463 16.5537
471 2 2.2208 10.6381 12.4779 16.4837
472 1 -1.1104 11.9552 8.23089 17.8504
473 1 -1.1104 11.9854 8.14163 15.0373
475 1 -1.1104 11.9626 5.47419 17.9243
476 1 -1.1104 11.999 11.1401 17.8845
477 2 2.2208 10.594 9.70005 19.195
478 1 -1.1104 12.1951 5.36485 15.1402
480 1 -1.1104 11.896 11.0191 15.0236
482 1 -1.1104 9.27453 8.30058 17.9981
483 2 2.2208 7.81804 6.86046 19.1972
484 2 2.2208 7.88118 12.3818 19.4576
485 1 -1.1104 9.22353 8.19041 15.1284
487 2 2.2208 7.76279 9.64023 16.4333
488 1 -1.1104 9.2787 5.47091 17.9467
489 1 -1.1104 9.11041 11.0354 17.7064
490 1 -1.1104 9.24876 5.50143 15.1285
492 1 -1.1104 9.04961 10.9781 14.923
621 2 2.2208 13.3753 6.92361 19.1738
620 2 2.2208 13.4319 12.3223 19.2024
327 2 2.2208 7.85834 6.85645 13.6493
396 2 2.2208 13.2694 9.45997 16.3911
325 2 2.2208 5.00138 9.66125 13.6931
9208 2 2.2208 13.536 20.9796 27.7463
469 1 -1.1104 9.29067 19.493 23.3733
497 2 2.2208 5.0391 17.967 16.4759
498 1 -1.1104 1.10619 14.035 17.9051
499 1 -1.1104 1.01269 19.469 18.0344
502 1 -1.1104 0.924921 13.7737 15.2506
504 1 -1.1104 0.782647 19.524 15.1386
510 1 -1.1104 0.850668 16.8588 17.8573
512 2 2.2208 5.20431 15.2032 19.3923
513 2 2.2208 5.07795 20.7705 19.3919
514 1 -1.1104 0.854088 16.5976 15.0702
518 1 -1.1104 3.75461 13.8987 17.9952
519 1 -1.1104 3.78156 19.3072 17.8849
520 2 2.2208 2.35599 17.9748 19.3779
521 1 -1.1104 3.77617 13.8233 15.1369
523 1 -1.1104 3.56313 19.4205 15.0512
525 2 2.2208 2.4741 15.2731 16.5824
526 2 2.2208 2.34546 20.8697 16.4501
527 1 -1.1104 3.70708 16.549 18.0278
528 1 -1.1104 3.70294 16.5979 15.1723
500 1 -1.1104 6.3685 13.7589 18.0262
508 1 -1.1104 6.4107 19.2836 15.1101
506 1 -1.1104 6.46291 13.7703 15.1931
524 1 -1.1104 3.7795 19.4203 20.719
517 1 -1.1104 6.5269 16.6511 20.6644
501 1 -1.1104 6.45688 19.3408 17.8832
516 1 -1.1104 6.46731 16.5392 15.0434
522 1 -1.1104 3.79069 13.9174 20.8402
507 1 -1.1104 6.47374 13.8309 20.8238
509 1 -1.1104 6.60514 19.3983 20.7563
529 1 -1.1104 3.6785 16.6348 20.8536
511 1 -1.1104 6.64399 16.6937 17.8237
425 1 -1.1104 12.1358 19.4094 26.3457
316 2 2.2208 5.07149 -1.61877 13.5276
557 1 -1.1104 9.21333 16.6971 23.6041
533 2 2.2208 10.6313 18.0811 16.6627
534 1 -1.1104 12.0139 13.8423 17.8439
535 1 -1.1104 12.0024 19.3448 17.9778
536 1 -1.1104 11.9684 13.767 15.0264
538 1 -1.1104 12.1087 19.4703 15.0213
540 1 -1.1104 12.2409 16.5718 17.8804
541 2 2.2208 10.8081 15.1229 19.3571
542 2 2.2208 10.7907 20.8306 19.2939
543 1 -1.1104 12.095 16.6875 15.1892
545 1 -1.1104 9.08647 13.9225 18.0375
546 1 -1.1104 9.27745 19.4853 17.9203
547 2 2.2208 7.95657 18.0137 19.3432
548 1 -1.1104 9.23595 13.8404 15.215
550 1 -1.1104 9.23242 19.5684 15.1364
552 2 2.2208 7.75516 15.1437 16.5794
553 2 2.2208 7.81316 20.7408 16.6087
554 1 -1.1104 9.39234 16.6479 17.9346
555 1 -1.1104 9.27766 16.505 15.0965
588 2 2.2208 13.6251 18.0573 19.423
589 2 2.2208 13.5445 15.2033 16.4834
430 2 2.2208 13.3924 20.7895 16.5395
314 2 2.2208 13.4577 6.71143 13.6043
364 1 -1.1104 0.946248 -2.79375 20.5209
383 1 -1.1104 3.56915 -3.15424 20.7314
378 1 -1.1104 6.43716 -0.193293 20.7226
385 1 -1.1104 3.71447 2.40885 20.6053
370 1 -1.1104 6.48132 2.7135 20.6445
376 1 -1.1104 0.893111 -0.108086 20.7865
390 1 -1.1104 3.69811 -0.281171 20.8068
561 2 2.2208 5.04354 1.21203 22.0552
562 1 -1.1104 0.887291 -2.87264 23.5577
563 1 -1.1104 0.906958 2.52707 23.4833
566 1 -1.1104 0.877329 -3.05527 26.5219
567 1 -1.1104 0.636056 2.68132 26.3586
570 1 -1.1104 0.778851 -0.230556 23.6655
572 2 2.2208 5.0531 -1.54826 24.9948
574 1 -1.1104 0.803468 -0.217027 26.4935
576 1 -1.1104 3.60701 -2.94822 23.6104
577 1 -1.1104 3.72669 2.83385 23.4238
578 2 2.2208 2.28156 1.35618 24.7783
579 1 -1.1104 3.74559 -3.00477 26.3702
580 1 -1.1104 3.54607 2.61662 26.252
581 2 2.2208 2.2598 -1.60997 22.1415
583 1 -1.1104 3.67979 -0.00340435 23.5892
584 1 -1.1104 3.5725 -0.156958 26.2672
582 2 2.2208 2.20386 4.0305 22.0688
573 2 2.2208 5.05984 4.17801 24.9537
569 1 -1.1104 6.43482 2.58845 26.2936
565 1 -1.1104 6.37514 2.60039 23.4616
568 1 -1.1104 6.33254 -3.02997 26.4068
368 1 -1.1104 6.25144 -2.94163 20.6893
575 1 -1.1104 6.39877 -0.245604 26.3364
564 1 -1.1104 6.46187 -3.05231 23.5789
571 1 -1.1104 6.44741 -0.13866 23.5679
625 2 2.2208 13.5382 18.0255 24.8579
393 2 2.2208 13.395 3.92686 21.9869
424 1 -1.1104 9.32146 -0.283296 20.7854
623 2 2.2208 13.5381 -1.55909 22.0125
624 2 2.2208 13.383 1.17729 24.9284
417 1 -1.1104 9.24463 -3.07208 20.6877
412 1 -1.1104 12.1414 -0.223837 20.5582
407 1 -1.1104 12.0349 2.52179 20.6881
597 2 2.2208 10.6327 1.23376 22.0693
598 1 -1.1104 12.0644 -2.96012 23.496
599 1 -1.1104 12.1071 2.58968 23.4603
600 1 -1.1104 12.1267 -2.98675 26.398
601 1 -1.1104 12.0889 2.55665 26.3016
602 1 -1.1104 12.0374 -0.19892 23.4397
603 2 2.2208 10.7205 -1.55426 24.8176
604 2 2.2208 10.5202 4.02537 24.8432
605 1 -1.1104 12.0319 -0.18824 26.2323
606 1 -1.1104 9.30948 -2.91577 23.595
607 1 -1.1104 9.15342 2.58194 23.3907
608 2 2.2208 7.85857 1.23723 24.8793
609 1 -1.1104 9.31172 -3.18902 26.218
610 1 -1.1104 9.29214 2.75974 26.2622
611 2 2.2208 7.76072 -1.64251 22.2117
612 2 2.2208 7.64803 4.06812 22.0923
613 1 -1.1104 9.31942 -0.135099 23.5955
614 1 -1.1104 9.19428 -0.170797 26.3691
539 1 -1.1104 12.3521 19.3303 20.738
448 1 -1.1104 0.919804 5.46123 20.5704
452 1 -1.1104 6.48217 5.46056 20.6868
585 1 -1.1104 12.1801 13.7941 23.5231
441 1 -1.1104 6.41545 8.17045 20.6906
450 1 -1.1104 0.82079 10.9224 20.5821
454 1 -1.1104 6.41533 10.9066 20.7158
439 1 -1.1104 0.897438 8.19107 20.7142
626 2 2.2208 5.00235 6.89151 22.1399
627 2 2.2208 5.0811 12.4936 22.1683
628 1 -1.1104 0.78454 8.14859 23.5859
630 1 -1.1104 0.680242 8.25644 26.5414
632 1 -1.1104 0.843569 5.41331 23.5086
633 1 -1.1104 0.925968 10.869 23.4205
636 2 2.2208 5.00486 9.61471 24.9166
637 1 -1.1104 0.787091 5.42001 26.3028
638 1 -1.1104 0.852753 11.0706 26.3423
641 1 -1.1104 3.60317 8.34983 23.6394
642 2 2.2208 2.22283 6.798 24.9534
643 2 2.2208 2.15439 12.3674 24.8402
644 1 -1.1104 3.56683 8.30249 26.3136
645 2 2.2208 2.32245 9.4611 22.161
646 1 -1.1104 3.5672 5.51048 23.6946
647 1 -1.1104 3.69988 11.0395 23.4801
648 1 -1.1104 3.62342 5.49303 26.409
649 1 -1.1104 3.57705 11.1766 26.2043
639 1 -1.1104 6.40243 5.33415 26.4156
635 1 -1.1104 6.55078 11.0097 23.5031
631 1 -1.1104 6.38087 8.1704 26.2409
640 1 -1.1104 6.32146 11.0767 26.3174
400 1 -1.1104 12.1619 13.7765 26.3821
629 1 -1.1104 6.34806 8.30562 23.5022
531 2 2.2208 7.80379 15.3972 22.1516
680 2 2.2208 13.3189 6.82689 24.9196
486 1 -1.1104 9.02911 8.25423 20.7336
634 1 -1.1104 6.40226 5.55664 23.5736
491 1 -1.1104 9.31164 5.49502 20.7919
479 1 -1.1104 12.0645 5.49719 20.6509
474 1 -1.1104 11.917 8.33494 20.6777
481 1 -1.1104 12.0076 11.0769 20.6506
392 2 2.2208 13.4971 9.79016 22.1405
678 2 2.2208 13.488 12.2976 24.8824
493 1 -1.1104 9.36349 11.0715 20.7313
657 1 -1.1104 9.09762 10.9256 26.2403
658 1 -1.1104 9.20719 5.4296 26.2882
659 1 -1.1104 9.4851 11.0586 23.5518
660 1 -1.1104 8.99053 5.35558 23.6653
661 2 2.2208 7.92507 9.6906 22.2163
662 1 -1.1104 9.32977 8.38656 26.3702
663 2 2.2208 7.83058 12.4654 24.9658
664 2 2.2208 7.82162 6.84654 25.0721
665 2 2.2208 10.5758 6.79398 22.1136
666 2 2.2208 10.6821 12.5408 22.1971
667 1 -1.1104 11.9772 8.23702 23.4078
668 1 -1.1104 12.0613 8.25702 26.2151
669 1 -1.1104 11.7863 5.37945 23.6468
670 1 -1.1104 12.262 11.108 23.5414
671 2 2.2208 10.702 9.58135 24.9853
672 1 -1.1104 11.9738 5.50323 26.3214
673 1 -1.1104 11.9947 11.0386 26.3366
674 1 -1.1104 9.17071 8.16974 23.6589
431 1 -1.1104 12.063 16.65 23.4687
467 1 -1.1104 12.0784 16.5961 26.2761
505 1 -1.1104 0.777084 19.2967 20.7496
679 1 -1.1104 6.40768 19.442 23.5334
503 1 -1.1104 0.933059 13.6561 20.6513
515 1 -1.1104 0.814872 16.5384 20.7987
587 2 2.2208 2.29326 15.3243 22.1082
590 2 2.2208 2.20651 20.7998 22.1447
615 1 -1.1104 3.58494 16.7683 23.6444
616 1 -1.1104 0.894478 16.6123 23.545
619 1 -1.1104 3.67487 13.8709 26.4308
622 1 -1.1104 3.5715 16.7356 26.3238
650 2 2.2208 2.17902 18.0872 25.0041
651 1 -1.1104 3.60588 19.5154 26.4373
652 2 2.2208 5.02485 18.1179 22.1701
654 1 -1.1104 0.749685 13.8 23.4355
656 1 -1.1104 0.961559 19.487 23.5247
676 2 2.2208 4.92148 15.2569 24.9089
677 2 2.2208 4.97788 20.8116 24.8674
681 1 -1.1104 3.61677 19.4543 23.6015
683 1 -1.1104 3.46008 13.8975 23.5181
685 1 -1.1104 0.785825 19.3826 26.2377
686 1 -1.1104 0.716397 16.5484 26.2641
687 1 -1.1104 0.968593 13.7987 26.2047
682 1 -1.1104 6.45421 13.883 26.2223
495 1 -1.1104 6.38978 19.5809 26.3368
617 1 -1.1104 6.36431 16.6456 23.446
675 1 -1.1104 6.37394 13.8433 23.4924
684 1 -1.1104 6.30475 16.659 26.2709
433 2 2.2208 10.7083 20.8805 24.854
530 1 -1.1104 9.20727 19.5841 26.2191
551 1 -1.1104 9.25766 19.44 20.6055
532 2 2.2208 7.94783 20.8821 22.1358
496 1 -1.1104 9.32604 13.831 26.4029
549 1 -1.1104 9.3906 13.918 20.6939
432 2 2.2208 10.6951 15.238 24.9022
586 2 2.2208 10.642 18.0659 22.1133
494 2 2.2208 7.82217 18.1126 24.9406
468 1 -1.1104 9.25211 13.8219 23.4693
558 1 -1.1104 9.06442 16.6786 26.2661
556 1 -1.1104 9.29161 16.6244 20.7133
560 1 -1.1104 12.1669 19.3669 23.4661
653 2 2.2208 13.662 20.7345 22.1769
544 1 -1.1104 12.1467 16.559 20.5638
593 2 2.2208 13.6159 15.0874 22.0956
326 2 2.2208 2.23662 12.4762 13.7548
9187 2 2.2208 13.476 9.64776 27.7955
340 2 2.2208 2.25182 15.2964 27.6949
356 2 2.2208 10.5961 12.4042 27.7609
334 2 2.2208 10.5274 15.1226 13.6543
351 2 2.2208 4.9426 12.5215 27.7133
353 2 2.2208 10.6336 18.0889 27.701
357 2 2.2208 7.8456 20.9498 27.699
688 2 2.2208 5.16273 23.7168 5.28583
689 2 2.2208 5.18823 29.239 5.25227
690 1 -1.1104 0.958948 25.0531 1.1407
691 1 -1.1104 0.951896 24.9305 4.11711
692 1 -1.1104 0.914029 22.2993 1.12079
693 1 -1.1104 1.0589 28.0058 1.00335
694 2 2.2208 5.26756 26.4669 2.45401
695 1 -1.1104 1.00558 22.1968 3.82804
696 1 -1.1104 0.941778 27.8304 3.97381
697 1 -1.1104 3.95526 25.1454 1.23247
698 2 2.2208 2.45936 23.7249 2.49731
699 2 2.2208 2.43283 29.2318 2.43866
700 1 -1.1104 3.74734 25.1197 3.9033
701 2 2.2208 2.21326 26.4429 5.40565
702 1 -1.1104 3.75068 22.5195 0.922306
703 1 -1.1104 3.78953 27.9014 1.04846
704 1 -1.1104 3.77969 22.2247 3.80109
705 1 -1.1104 3.75959 27.8408 3.80857
709 1 -1.1104 6.61025 25.1017 0.941073
714 1 -1.1104 6.71606 27.8876 3.85366
713 1 -1.1104 6.42318 22.3652 3.7514
712 1 -1.1104 6.64999 27.9065 1.03327
710 1 -1.1104 6.60481 25.0418 3.8588
1002 2 2.2208 10.8185 40.5424 -0.425067
711 1 -1.1104 6.59491 22.2159 1.06921
831 1 -1.1104 0.910223 22.3541 6.63737
835 1 -1.1104 3.63224 24.9058 6.54048
829 1 -1.1104 0.946186 25.0626 6.8501
837 1 -1.1104 3.6219 27.7601 6.72022
833 1 -1.1104 6.51048 22.1622 6.64488
715 2 2.2208 10.8127 23.6107 5.29503
716 2 2.2208 10.6887 29.2371 5.34411
717 1 -1.1104 12.2482 24.9684 1.00664
718 1 -1.1104 12.1798 24.998 3.79452
719 1 -1.1104 11.989 22.1738 0.999081
720 1 -1.1104 12.2661 27.9046 1.12165
721 2 2.2208 10.713 26.4467 2.47838
722 1 -1.1104 12.1983 22.2383 3.81147
723 1 -1.1104 12.1255 27.7841 3.95701
724 1 -1.1104 9.42729 25.1256 1.08371
725 2 2.2208 7.97161 23.6148 2.43592
726 2 2.2208 8.04515 29.235 2.50498
727 1 -1.1104 9.31591 25.0044 3.92989
728 2 2.2208 8.01275 26.432 5.25166
729 1 -1.1104 9.21173 22.4555 1.08476
730 1 -1.1104 9.30084 27.9094 1.06038
731 1 -1.1104 9.38637 22.0935 3.96298
732 1 -1.1104 9.43981 27.8405 3.87875
9844 2 2.2208 13.5928 26.55 5.25705
9582 2 2.2208 13.5496 37.7463 5.22886
866 1 -1.1104 9.30733 22.3675 6.71022
9843 2 2.2208 13.599 29.2437 2.47778
9856 2 2.2208 -0.473724 46.2156 10.787
9842 2 2.2208 13.4721 23.8038 2.44368
867 1 -1.1104 9.30304 27.8501 6.64602
736 2 2.2208 5.08864 34.934 5.29301
737 1 -1.1104 0.923764 30.7798 1.16182
738 1 -1.1104 0.764807 36.2716 1.19244
740 1 -1.1104 1.09227 30.6486 3.87865
741 1 -1.1104 0.817066 36.4231 3.9248
743 1 -1.1104 0.971894 33.4499 1.03867
744 2 2.2208 5.15548 32.1023 2.49461
745 2 2.2208 5.06882 37.7526 2.45672
746 1 -1.1104 0.936545 33.4463 3.84623
748 1 -1.1104 3.826 30.6203 1.16565
749 1 -1.1104 3.6052 36.2381 1.08555
750 2 2.2208 2.26201 34.8792 2.51645
751 1 -1.1104 3.80681 30.7409 3.92404
752 1 -1.1104 3.59747 36.2741 3.93188
753 2 2.2208 2.37469 32.0924 5.28624
754 2 2.2208 2.28521 37.6382 5.27963
755 1 -1.1104 3.736 33.4351 1.1393
756 1 -1.1104 3.81264 33.5958 3.91918
739 1 -1.1104 6.45795 36.2416 1.02715
761 1 -1.1104 6.56343 30.6363 3.88394
762 1 -1.1104 6.57975 33.5458 1.12394
760 1 -1.1104 6.59374 30.7503 1.1246
742 1 -1.1104 6.53418 36.2271 3.86341
747 1 -1.1104 6.62207 33.429 3.99328
1522 1 -1.1104 0.941415 47.3693 6.5869
890 1 -1.1104 0.915769 33.5701 6.68247
888 1 -1.1104 6.65196 30.46 6.58442
1523 1 -1.1104 6.47085 47.537 6.748
763 2 2.2208 10.8692 34.8665 5.07495
764 1 -1.1104 12.2181 30.6366 1.07877
765 1 -1.1104 12.15 36.2362 0.967895
766 1 -1.1104 12.1538 30.5382 3.90337
767 1 -1.1104 12.1749 36.2449 3.89673
768 1 -1.1104 12.2571 33.4555 1.11768
769 2 2.2208 10.7732 32.1435 2.48065
770 2 2.2208 10.8088 37.7388 2.42095
771 1 -1.1104 12.2965 33.3829 3.91718
772 1 -1.1104 9.38909 30.6316 1.00773
773 1 -1.1104 9.26795 36.4099 1.05367
774 2 2.2208 7.97056 34.9419 2.49276
775 1 -1.1104 9.46895 30.6484 3.95095
776 1 -1.1104 9.47436 36.3348 3.73922
777 2 2.2208 8.04025 32.0605 5.35008
778 2 2.2208 7.90586 37.7185 5.22675
779 1 -1.1104 9.28801 33.5026 1.09801
780 1 -1.1104 9.4263 33.5289 3.9294
1331 1 -1.1104 0.937829 47.5617 3.82773
9848 2 2.2208 13.736 34.8632 2.52826
1007 2 2.2208 5.20285 46.2162 -0.342249
9587 2 2.2208 13.6467 32.0005 5.28137
1524 1 -1.1104 3.7445 47.68 6.80932
924 1 -1.1104 9.33115 36.2833 6.66628
922 1 -1.1104 12.2821 33.4253 6.69146
9739 2 2.2208 13.5382 37.6868 10.7736
1295 2 2.2208 2.38783 32.1291 -0.279081