ITEM: TIMESTEP
30000
ITEM: NUMBER OF ATOMS
17910
ITEM: BOX BOUNDS pp pp pp
-3.6326214572425886e-01 2.7703262145724093e+01
-4.2987509421422621e+00 3.3237875094214002e+02
-3.5762869070260433e-01 2.7697628690702455e+01
ITEM: ATOMS id type q x y z
1 2 2.2208 5.34282 1.2944 5.26113
2 1 -1.1104 1.12294 -2.9665 1.00759
3 1 -1.1104 1.18483 2.60122 1.07628
6 1 -1.1104 1.29717 -3.02023 3.96838
7 1 -1.1104 1.20766 2.7848 3.80503
10 1 -1.1104 1.18508 -0.179663 1.05976
12 2 2.2208 5.41449 -1.53136 2.49629
13 2 2.2208 5.3456 4.0871 2.44286
14 1 -1.1104 1.21793 -0.113594 3.79435
16 1 -1.1104 3.90678 -3.03843 1.10101
17 1 -1.1104 3.97228 2.78887 0.996049
18 2 2.2208 2.50591 1.26436 2.42549
19 1 -1.1104 4.03182 -2.92728 3.85582
20 1 -1.1104 3.94187 2.60027 3.78313
21 2 2.2208 2.67171 -1.57265 5.27613
22 2 2.2208 2.58522 4.02224 5.13898
23 1 -1.1104 3.93778 -0.255433 1.0564
24 1 -1.1104 4.03055 -0.0998764 3.92881
173 1 -1.1104 3.89941 2.78671 6.60378
167 1 -1.1104 1.17684 2.60006 6.59424
9175 2 2.2208 -0.202158 1.11828 5.08463
9177 2 2.2208 -0.226442 4.10194 2.44165
9174 2 2.2208 -0.20418 -1.56526 2.4519
8447 2 2.2208 5.28113 -4.3089 5.32892
8448 2 2.2208 -0.291353 -4.20003 5.32784
8446 2 2.2208 2.60641 -4.32316 2.34784
172 1 -1.1104 3.9768 -2.90887 6.67494
8455 2 2.2208 8.28202 -4.30064 8.05273
9218 2 2.2208 -0.16434 1.25199 -0.440195
8465 2 2.2208 5.50548 -4.41496 -0.364231
8450 2 2.2208 10.9977 -4.33218 5.2506
8449 2 2.2208 8.33324 -4.40773 2.45367
11 1 -1.1104 6.77562 -0.235559 0.982531
5 1 -1.1104 6.67374 2.52589 0.957587
15 1 -1.1104 6.68399 -0.0399278 3.68503
9 1 -1.1104 6.70571 2.70509 3.86601
4 1 -1.1104 6.81109 -2.9585 1.03262
8 1 -1.1104 6.88829 -2.94957 3.85532
171 1 -1.1104 6.77054 -0.110418 6.5739
31 2 2.2208 10.9568 1.20382 5.20462
32 1 -1.1104 12.3676 -2.89388 1.18397
33 1 -1.1104 12.3954 2.90928 1.01317
34 1 -1.1104 12.3328 -2.96788 3.81732
35 1 -1.1104 12.1694 2.62456 3.92968
36 1 -1.1104 12.3132 -0.261766 1.06142
37 2 2.2208 10.9369 -1.5442 2.50888
39 1 -1.1104 12.3497 -0.0926544 3.86294
40 1 -1.1104 9.65049 -3.04752 1.02248
41 1 -1.1104 9.37401 2.462 0.925735
42 2 2.2208 8.18142 1.28446 2.3765
43 1 -1.1104 9.60473 -2.92455 3.9211
44 1 -1.1104 9.37829 2.70893 3.6151
45 2 2.2208 8.12707 -1.5713 5.28471
46 2 2.2208 8.15582 4.17581 5.19003
47 1 -1.1104 9.51139 -0.171034 1.05583
48 1 -1.1104 9.56349 -0.137285 3.86777
38 2 2.2208 10.9189 4.05695 2.49118
169 1 -1.1104 6.70644 2.7003 6.68918
205 1 -1.1104 12.3153 -2.85281 6.45434
345 2 2.2208 8.19989 -1.59014 -0.260166
9181 2 2.2208 -0.309716 12.5421 5.20842
54 2 2.2208 5.41644 6.92528 5.1612
55 2 2.2208 5.23879 12.5171 5.09152
56 1 -1.1104 1.16909 8.28403 0.994287
58 1 -1.1104 1.06566 8.27494 3.84615
60 1 -1.1104 1.17094 5.53884 1.06574
61 1 -1.1104 0.927968 10.9764 0.971265
66 2 2.2208 5.3091 9.66489 2.21981
67 1 -1.1104 1.0828 5.43652 3.7502
68 1 -1.1104 1.1416 11.143 3.69583
71 1 -1.1104 3.79477 8.3692 0.985399
72 2 2.2208 2.53961 6.84945 2.37799
73 2 2.2208 2.48316 12.4666 2.31331
74 1 -1.1104 3.93696 8.25231 3.78489
75 2 2.2208 2.58189 9.71771 5.13228
76 1 -1.1104 4.00873 5.52407 0.87623
77 1 -1.1104 3.86646 11.0619 0.978941
79 1 -1.1104 3.91871 5.49785 3.74206
80 1 -1.1104 3.88629 10.9698 3.63917
78 1 -1.1104 3.8184 11.249 6.49675
234 1 -1.1104 1.12386 8.35312 6.62571
236 1 -1.1104 1.21085 5.48441 6.62386
239 1 -1.1104 3.97021 5.49503 6.51702
62 1 -1.1104 1.2398 11.2394 6.59368
9180 2 2.2208 -0.305082 9.71325 2.46268
9179 2 2.2208 -0.263401 6.92915 5.28713
9176 2 2.2208 13.6272 18.1416 7.99052
59 1 -1.1104 6.68351 8.2949 3.75636
69 1 -1.1104 6.79555 5.48143 3.67432
64 1 -1.1104 6.6531 11.1302 0.767175
57 1 -1.1104 6.74493 8.24049 0.89177
63 1 -1.1104 6.83424 5.55549 0.933135
70 1 -1.1104 6.67914 10.9627 3.69442
235 1 -1.1104 6.77065 8.50007 6.57021
84 2 2.2208 11.0991 6.96613 5.13793
85 2 2.2208 10.9998 12.6509 5.12041
86 1 -1.1104 12.3979 8.43618 0.982007
87 1 -1.1104 12.3418 8.32922 3.74444
88 1 -1.1104 12.2585 5.69944 0.891372
89 1 -1.1104 12.3743 11.1001 0.984625
91 2 2.2208 10.9308 9.75885 2.35122
92 1 -1.1104 12.3264 5.41758 3.83889
93 1 -1.1104 12.3472 11.1685 3.73278
94 1 -1.1104 9.66518 8.34529 1.00189
95 2 2.2208 8.25386 6.98503 2.31148
96 2 2.2208 8.1166 12.5362 2.42722
97 1 -1.1104 9.60373 8.36429 3.86033
98 2 2.2208 8.01526 9.64373 5.12909
99 1 -1.1104 9.58612 5.25591 1.01681
100 1 -1.1104 9.55676 11.1265 0.938371
102 1 -1.1104 9.55688 5.57212 3.87091
103 1 -1.1104 9.4347 11.1157 3.65718
266 1 -1.1104 12.299 5.57413 6.46442
265 1 -1.1104 12.3719 8.22986 6.4486
237 1 -1.1104 6.80062 5.51502 6.56223
90 1 -1.1104 12.2171 11.0987 6.5586
269 1 -1.1104 9.47128 5.29245 6.56819
267 1 -1.1104 9.52958 8.16432 6.41388
82 1 -1.1104 12.2031 19.4262 9.43128
106 2 2.2208 5.22871 18.1781 5.2583
107 1 -1.1104 1.29438 13.8254 0.876478
109 1 -1.1104 1.20051 19.5749 1.1081
113 1 -1.1104 1.1361 14.0051 3.76361
114 1 -1.1104 1.18934 19.5495 3.82498
116 1 -1.1104 1.13199 16.8584 0.977531
119 2 2.2208 5.34069 15.2965 2.41668
120 2 2.2208 5.28014 20.9976 2.47613
121 1 -1.1104 1.19547 16.8401 3.78329
123 1 -1.1104 4.0299 13.8674 0.940942
125 1 -1.1104 4.03329 19.4457 1.21683
127 2 2.2208 2.60622 18.1876 2.39349
128 1 -1.1104 3.81174 13.7971 3.71004
129 1 -1.1104 3.85591 19.5815 3.8329
130 2 2.2208 2.50159 15.3716 5.07625
131 2 2.2208 2.64154 20.9411 5.20789
132 1 -1.1104 4.00586 16.6075 0.967001
134 1 -1.1104 3.86895 16.6631 3.84276
108 1 -1.1104 1.21525 13.9303 6.58251
302 1 -1.1104 1.29717 19.4297 6.58132
8909 2 2.2208 -0.183047 18.1695 5.13648
9042 2 2.2208 -0.170614 15.3129 2.30464
9041 2 2.2208 -0.27916 20.9961 2.43547
204 1 -1.1104 9.45538 16.8367 12.1756
133 1 -1.1104 3.97475 16.8237 6.48199
289 1 -1.1104 6.65959 16.7536 9.38309
154 1 -1.1104 9.71082 13.7596 6.76719
138 1 -1.1104 6.63574 19.3854 1.07061
140 1 -1.1104 6.82251 16.583 0.955269
122 1 -1.1104 6.6142 16.7792 3.85129
139 1 -1.1104 6.76449 19.4417 3.89971
115 1 -1.1104 6.78064 13.8536 3.80812
110 1 -1.1104 6.65518 13.8054 1.09252
141 2 2.2208 10.9129 18.1003 5.24306
142 1 -1.1104 12.341 13.8349 1.15014
144 1 -1.1104 12.3323 19.5082 1.04613
146 1 -1.1104 12.3537 13.948 3.7769
147 1 -1.1104 12.4935 19.5471 3.81965
148 1 -1.1104 12.527 16.5849 1.04426
150 2 2.2208 10.9657 15.2794 2.37387
151 2 2.2208 10.9331 20.9438 2.48738
152 1 -1.1104 12.3647 16.7488 3.83988
153 1 -1.1104 9.5556 13.8472 1.17078
155 1 -1.1104 9.54121 19.5587 1.03546
157 2 2.2208 8.11932 18.0199 2.41763
158 1 -1.1104 9.56107 13.8937 3.83258
159 1 -1.1104 9.50537 19.4296 3.84636
160 2 2.2208 8.18236 15.2517 5.22685
161 2 2.2208 8.17665 20.9916 5.29797
162 1 -1.1104 9.62055 16.5942 0.940698
164 1 -1.1104 9.54652 16.6276 3.74325
49 1 -1.1104 12.3629 19.4726 12.2249
163 1 -1.1104 9.58722 16.6544 6.46605
174 1 -1.1104 4.04663 0.0271537 6.73628
170 1 -1.1104 0.996724 -0.20944 6.47227
8453 2 2.2208 5.32615 -4.35071 10.9491
166 1 -1.1104 1.18011 -3.05384 6.81738
175 2 2.2208 5.2547 1.21847 10.8806
176 1 -1.1104 1.0685 -2.95443 12.3448
177 1 -1.1104 1.17358 2.65703 12.1796
180 1 -1.1104 1.25986 -3.03605 9.51138
181 1 -1.1104 1.00081 2.69973 9.37351
184 1 -1.1104 1.21332 -0.148553 12.1777
186 2 2.2208 5.31997 -1.45956 8.07994
187 2 2.2208 5.26853 4.00271 8.06234
188 1 -1.1104 1.17261 -0.278883 9.53348
190 1 -1.1104 3.95559 -3.10902 12.3649
191 1 -1.1104 4.00197 2.54805 12.3375
192 2 2.2208 2.44589 1.30813 8.01787
193 1 -1.1104 4.09413 -2.9038 9.66175
194 1 -1.1104 3.90237 2.69323 9.36862
195 2 2.2208 2.63011 -1.6468 10.8922
197 1 -1.1104 3.94796 -0.318242 12.4457
198 1 -1.1104 3.95607 -0.298738 9.56566
199 2 2.2208 -0.354258 4.0556 7.9576
200 2 2.2208 -0.316045 -1.50438 7.90623
201 2 2.2208 -0.164594 1.29349 10.8227
8454 2 2.2208 -0.219099 -4.38303 10.8937
8452 2 2.2208 2.55233 -4.32636 7.96567
202 2 2.2208 8.01191 15.2192 10.7569
315 2 2.2208 -0.285765 4.11085 13.6148
168 1 -1.1104 6.87056 -2.97831 6.63713
210 1 -1.1104 9.55137 0.016927 6.71614
209 1 -1.1104 9.34964 2.623 6.40494
207 1 -1.1104 12.3911 -0.148757 6.79111
182 1 -1.1104 6.80326 -2.7887 9.34034
206 1 -1.1104 12.4402 2.54283 6.64397
208 1 -1.1104 9.54583 -2.90229 6.67155
8456 2 2.2208 11.0247 -4.25624 10.9547
179 1 -1.1104 6.82316 2.74738 12.3129
189 1 -1.1104 6.62027 -0.0426223 9.39346
185 1 -1.1104 6.7587 -0.138927 12.3097
183 1 -1.1104 6.66844 2.74198 9.54404
178 1 -1.1104 6.63303 -2.90223 12.2205
211 2 2.2208 11.0012 1.46592 10.8204
212 1 -1.1104 12.2768 -2.75822 12.1636
213 1 -1.1104 12.5522 2.99418 12.2878
214 1 -1.1104 12.2974 -2.90185 9.46859
215 1 -1.1104 12.3006 2.65946 9.38724
216 1 -1.1104 12.2845 0.179781 12.2755
217 2 2.2208 10.9268 -1.48602 8.04524
218 2 2.2208 10.9492 3.88596 7.88368
219 1 -1.1104 12.3922 -0.082485 9.54444
220 1 -1.1104 9.43209 -2.88392 12.2292
221 1 -1.1104 9.67101 2.76371 12.2569
222 2 2.2208 7.99724 1.26103 7.99755
223 1 -1.1104 9.6029 -2.7472 9.30562
224 1 -1.1104 9.37509 2.5674 9.31303
225 2 2.2208 8.14305 -1.53045 10.8312
226 2 2.2208 8.17168 4.10257 10.8647
227 1 -1.1104 9.38162 -0.0819986 12.3668
228 1 -1.1104 9.63919 0.0544043 9.52045
104 2 2.2208 10.8659 15.2859 8.1099
238 1 -1.1104 3.95352 8.42516 6.66369
196 2 2.2208 2.49491 4.11552 10.7744
326 2 2.2208 2.4728 12.6708 13.7018
29 2 2.2208 -0.292968 6.88447 10.8064
30 2 2.2208 -0.266347 12.4869 10.8307
9110 2 2.2208 -0.135879 9.65408 8.09696
240 2 2.2208 5.39524 6.90625 10.8329
241 2 2.2208 5.3449 12.5017 10.8913
242 1 -1.1104 1.16722 8.34606 12.3028
244 1 -1.1104 1.0723 8.12376 9.48838
246 1 -1.1104 1.11286 5.43299 12.2304
247 1 -1.1104 1.23955 11.2097 12.3527
250 2 2.2208 5.37567 9.77111 8.05719
251 1 -1.1104 1.15954 5.39751 9.35397
252 1 -1.1104 1.22754 11.1112 9.3311
255 1 -1.1104 3.90159 8.47371 12.2392
256 2 2.2208 2.56911 6.80889 7.90768
257 2 2.2208 2.60608 12.6137 7.89836
258 1 -1.1104 4.0432 8.35546 9.49223
259 2 2.2208 2.61707 9.85576 10.9088
260 1 -1.1104 3.9144 5.51797 12.1009
261 1 -1.1104 3.99895 11.2406 12.2083
262 1 -1.1104 3.95043 5.56844 9.42511
263 1 -1.1104 3.97166 11.1145 9.39577
243 1 -1.1104 6.88984 8.31844 12.2455
253 1 -1.1104 6.88593 5.67443 9.54008
343 2 2.2208 -0.299889 9.63087 13.6526
325 2 2.2208 5.30801 9.80904 13.6649
65 1 -1.1104 6.61027 11.1714 6.53261
101 1 -1.1104 9.57679 11.0456 6.45682
245 1 -1.1104 6.87257 8.29582 9.5407
249 1 -1.1104 6.72382 11.1172 12.1819
254 1 -1.1104 6.66813 11.1462 9.45408
248 1 -1.1104 6.68792 5.50402 12.3273
264 1 -1.1104 9.48739 11.2219 9.37717
268 1 -1.1104 9.70241 5.60349 9.42863
270 1 -1.1104 9.45375 11.0632 12.2084
271 1 -1.1104 9.48262 5.45993 12.1616
272 2 2.2208 8.22116 9.71771 10.8933
273 1 -1.1104 9.67965 8.47688 9.37389
274 2 2.2208 8.07132 12.4011 7.95766
275 2 2.2208 8.14617 6.92132 7.88043
276 2 2.2208 11.0977 7.06675 10.6621
277 2 2.2208 10.9037 12.4576 10.8997
278 1 -1.1104 12.2919 8.25154 12.2482
279 1 -1.1104 12.4497 8.31614 9.35516
280 1 -1.1104 12.3946 5.52219 12.1236
281 1 -1.1104 12.2301 11.0833 12.2001
282 2 2.2208 10.8955 9.74551 7.9423
283 1 -1.1104 12.4681 5.45557 9.1737
284 1 -1.1104 12.4236 11.0689 9.39351
285 1 -1.1104 9.61638 8.38273 12.291
327 2 2.2208 8.08608 6.96327 13.5881
329 2 2.2208 8.19229 12.561 13.58
297 1 -1.1104 6.88374 13.7725 12.0687
124 1 -1.1104 3.95562 14.0395 6.48316
126 1 -1.1104 3.96547 19.5595 6.73011
117 1 -1.1104 1.09276 16.7162 6.59226
233 2 2.2208 -0.314314 18.112 10.9222
8883 2 2.2208 -0.26464 20.7998 7.92084
8882 2 2.2208 -0.283315 15.2986 8.02617
286 1 -1.1104 3.77117 19.4918 12.2338
287 1 -1.1104 4.03287 14.0417 12.3399
291 1 -1.1104 1.19523 19.4566 9.61451
292 1 -1.1104 0.982116 16.6792 9.52521
293 2 2.2208 5.22002 20.9811 8.01502
294 1 -1.1104 1.11058 13.8566 9.43464
295 2 2.2208 5.40657 15.3342 8.03908
298 1 -1.1104 1.12059 19.5585 12.334
299 1 -1.1104 1.20667 13.9291 12.2358
300 2 2.2208 5.33576 18.1728 10.8022
301 1 -1.1104 3.83752 19.542 9.53633
303 2 2.2208 2.49169 17.9726 8.125
304 1 -1.1104 3.94406 16.6982 9.36401
305 1 -1.1104 3.8805 13.9301 9.32615
307 1 -1.1104 1.18767 16.6831 12.3074
308 1 -1.1104 3.97356 16.8084 12.1746
309 2 2.2208 2.48906 20.8139 10.9735
310 2 2.2208 2.59367 15.3667 10.7862
332 2 2.2208 5.37654 15.4147 13.6849
165 2 2.2208 8.18582 18.1229 7.994
135 1 -1.1104 12.2432 16.7553 9.50768
111 1 -1.1104 6.84193 13.883 6.5726
290 1 -1.1104 6.65293 13.9648 9.35515
296 1 -1.1104 6.65983 19.5985 12.1473
137 1 -1.1104 9.52672 19.6888 12.4244
81 1 -1.1104 12.2988 13.8843 9.48768
156 1 -1.1104 9.51482 19.637 6.67531
143 1 -1.1104 12.4433 13.8721 6.67659
118 1 -1.1104 6.84248 16.6117 6.71813
112 1 -1.1104 6.60744 19.5338 6.67068
232 1 -1.1104 9.50005 19.4621 9.56096
203 2 2.2208 8.07808 20.9089 10.8632
26 2 2.2208 10.9886 18.1741 10.9572
334 2 2.2208 10.8805 15.3125 13.5929
27 1 -1.1104 12.2538 13.8844 12.1358
306 1 -1.1104 6.67986 16.6441 12.1813
288 1 -1.1104 6.75678 19.5325 9.48042
311 1 -1.1104 9.43453 13.9449 9.459
145 1 -1.1104 12.3614 19.4914 6.6232
105 2 2.2208 11.0555 21.0005 7.99757
231 1 -1.1104 9.44694 16.6708 9.30034
83 1 -1.1104 12.3878 16.663 12.3074
149 1 -1.1104 12.3793 16.6444 6.66428
136 1 -1.1104 9.63708 13.904 12.2148
316 2 2.2208 5.40995 -1.57049 13.7615
312 2 2.2208 -0.305499 -1.41709 13.6608
321 2 2.2208 8.16657 1.37698 13.7353
8461 2 2.2208 11.0908 -4.35319 -0.414041
322 2 2.2208 10.886 -1.5218 13.7165
328 2 2.2208 11.078 9.6636 13.6728
331 2 2.2208 5.29345 21.0218 13.6354
330 2 2.2208 2.54527 18.1317 13.6142
320 2 2.2208 -0.259387 15.2441 13.7198
337 2 2.2208 5.44865 1.24382 -0.345566
346 2 2.2208 8.11741 3.93752 -0.40574
344 2 2.2208 10.8942 1.275 -0.487924
349 2 2.2208 5.40682 6.78821 -0.512604
9188 2 2.2208 -0.248014 6.86763 -0.395859
356 2 2.2208 11.0686 12.3747 -0.327487
352 2 2.2208 8.22478 15.0829 -0.347852
358 2 2.2208 5.41831 1.3305 16.5355
359 1 -1.1104 1.11891 -2.93136 17.848
360 1 -1.1104 1.13321 2.66121 17.8619
363 1 -1.1104 1.01847 -2.86324 15.0724
365 1 -1.1104 1.03966 2.61436 14.9617
371 1 -1.1104 1.05412 -0.148586 17.6718
373 2 2.2208 5.36369 -1.49952 19.3177
375 1 -1.1104 1.20373 -0.0692346 15.0045
379 1 -1.1104 3.94466 -2.84468 17.7966
380 1 -1.1104 4.02242 2.59432 17.8442
381 2 2.2208 2.64042 1.19864 19.174
382 1 -1.1104 3.9372 -2.93797 15.0641
384 1 -1.1104 3.83954 2.67352 15.1555
386 2 2.2208 2.48984 -1.55617 16.389
387 2 2.2208 2.53185 4.11223 16.519
388 1 -1.1104 3.99623 -0.0727026 17.8511
389 1 -1.1104 4.01905 -0.0550039 15.3251
374 2 2.2208 5.30395 4.12468 19.2591
364 1 -1.1104 1.11472 -3.04469 20.6671
397 2 2.2208 -0.247981 3.85949 19.217
385 1 -1.1104 3.84952 2.56309 20.663
395 2 2.2208 -0.231765 -1.48833 19.2421
8836 2 2.2208 5.38561 -4.23695 16.4678
390 1 -1.1104 4.02939 -0.193335 20.6043
376 1 -1.1104 1.22051 -0.258897 20.636
383 1 -1.1104 4.05426 -2.9604 20.5972
366 1 -1.1104 1.04199 2.53706 20.5585
617 1 -1.1104 6.82688 16.7597 23.4469
394 2 2.2208 -0.197449 1.26905 16.3119
8843 2 2.2208 -0.25184 -4.35687 16.5593
317 2 2.2208 2.58974 1.28055 13.7008
8473 2 2.2208 2.52439 -4.30843 13.6959
8612 2 2.2208 8.28926 -4.42699 24.8705
8614 2 2.2208 11.0383 -4.22535 22.0434
361 1 -1.1104 6.77669 -2.79985 17.9674
367 1 -1.1104 6.92985 -2.9232 15.2325
372 1 -1.1104 6.73991 -0.0217612 17.8574
362 1 -1.1104 6.78836 2.85748 17.9476
369 1 -1.1104 6.66675 2.72438 15.1572
377 1 -1.1104 6.88465 -0.154154 15.0637
401 2 2.2208 10.9605 1.28241 16.4367
402 1 -1.1104 12.3732 -2.80896 17.9053
403 1 -1.1104 12.4213 2.66556 17.7446
404 1 -1.1104 12.3634 -2.87298 14.9368
406 1 -1.1104 12.4431 2.65039 14.9879
408 1 -1.1104 12.5192 -0.117149 17.8445
409 2 2.2208 10.9853 -1.54997 19.2944
410 2 2.2208 10.9321 4.15257 19.2283
411 1 -1.1104 12.5207 -0.137615 15.1826
413 1 -1.1104 9.63887 -2.89185 17.8908
414 1 -1.1104 9.57313 2.70923 17.8609
415 2 2.2208 8.27678 1.27053 19.3141
416 1 -1.1104 9.66291 -2.90947 15.0458
418 1 -1.1104 9.52531 2.78965 15.0069
420 2 2.2208 8.25626 -1.54078 16.4808
421 2 2.2208 8.15621 4.1644 16.541
422 1 -1.1104 9.66359 -0.0990789 17.8054
423 1 -1.1104 9.77498 -0.090626 15.0799
424 1 -1.1104 9.57819 -0.0450936 20.5267
370 1 -1.1104 6.76971 2.75791 20.7615
368 1 -1.1104 6.92219 -2.89882 20.7217
8815 2 2.2208 11.1371 -4.28456 16.563
378 1 -1.1104 6.93266 -0.111766 20.7025
407 1 -1.1104 12.391 2.6526 20.6944
419 1 -1.1104 9.62019 2.7966 20.541
8814 2 2.2208 8.25752 -4.25132 19.3721
530 1 -1.1104 9.53163 19.3319 26.3181
8469 2 2.2208 8.05765 -4.25754 13.5994
434 2 2.2208 5.3017 6.86353 16.4208
435 2 2.2208 5.3556 12.5925 16.5951
436 1 -1.1104 1.07781 8.24507 17.8976
438 1 -1.1104 1.10043 8.1214 15.116
442 1 -1.1104 1.15918 5.42329 17.7455
443 1 -1.1104 1.14784 11.173 17.8585
446 2 2.2208 5.27169 9.67001 19.2642
447 1 -1.1104 1.22065 5.43177 15.0442
449 1 -1.1104 1.0975 11.0121 15.1563
455 1 -1.1104 3.91697 8.15497 17.8932
456 2 2.2208 2.47065 6.84902 19.2355
457 2 2.2208 2.50267 12.5589 19.2768
458 1 -1.1104 3.95391 8.29626 15.0215
460 2 2.2208 2.54388 9.60467 16.4181
461 1 -1.1104 3.9371 5.43864 17.7894
462 1 -1.1104 3.90274 11.0515 18.0035
463 1 -1.1104 3.8401 5.48027 15.0419
465 1 -1.1104 3.78478 11.3171 15.0655
618 2 2.2208 -0.290997 12.5961 16.5496
592 2 2.2208 -0.265144 9.77051 19.269
464 1 -1.1104 3.92096 5.38342 20.5785
459 1 -1.1104 3.9638 8.23969 20.7395
591 2 2.2208 -0.221713 6.83063 16.5503
448 1 -1.1104 1.0339 5.52888 20.6499
466 1 -1.1104 3.8891 11.1283 20.7419
450 1 -1.1104 1.15283 11.0281 20.6808
324 2 2.2208 2.62142 6.97056 13.625
445 1 -1.1104 6.71475 11.1491 17.8756
453 1 -1.1104 6.75014 11.2478 14.8552
444 1 -1.1104 6.72689 5.607 17.9289
440 1 -1.1104 6.56702 8.46075 14.9809
437 1 -1.1104 6.7017 8.37489 17.7507
451 1 -1.1104 6.65209 5.44093 15.1738
454 1 -1.1104 6.76268 11.1862 20.6371
470 2 2.2208 10.92 6.91874 16.4507
471 2 2.2208 11.0263 12.5281 16.3406
472 1 -1.1104 12.3715 8.45049 17.7973
473 1 -1.1104 12.3239 8.26362 15.1043
475 1 -1.1104 12.289 5.57373 17.9376
476 1 -1.1104 12.337 11.1308 17.7231
477 2 2.2208 10.9389 9.78952 19.1458
478 1 -1.1104 12.4735 5.53593 15.044
480 1 -1.1104 12.4166 11.0791 15.0021
482 1 -1.1104 9.5168 8.54326 17.7841
483 2 2.2208 8.07569 7.04157 19.3088
484 2 2.2208 8.12668 12.573 19.289
485 1 -1.1104 9.6538 8.24072 14.9614
487 2 2.2208 8.08024 9.78803 16.4152
488 1 -1.1104 9.43392 5.6483 17.8797
489 1 -1.1104 9.45017 11.2134 17.7858
490 1 -1.1104 9.52745 5.54552 15.0752
492 1 -1.1104 9.49403 11.0982 15.0793
479 1 -1.1104 12.4478 5.51545 20.6141
452 1 -1.1104 6.76185 5.58209 20.6978
493 1 -1.1104 9.38404 11.0841 20.6806
491 1 -1.1104 9.62946 5.46273 20.6572
467 1 -1.1104 12.4373 16.9204 26.1781
486 1 -1.1104 9.36989 8.36084 20.5358
441 1 -1.1104 6.56901 8.23278 20.6182
497 2 2.2208 5.494 18.1625 16.505
498 1 -1.1104 1.07961 13.9799 17.9211
499 1 -1.1104 1.16675 19.4275 18.0568
502 1 -1.1104 1.03628 13.8918 15.092
504 1 -1.1104 1.09869 19.5177 15.1143
510 1 -1.1104 1.14804 16.6834 17.968
512 2 2.2208 5.3107 15.3701 19.3224
513 2 2.2208 5.34176 20.9673 19.3661
514 1 -1.1104 1.10512 16.5668 15.0495
518 1 -1.1104 3.99233 14.0016 17.8444
519 1 -1.1104 4.05358 19.4872 17.948
520 2 2.2208 2.51458 18.0478 19.3375
521 1 -1.1104 3.91107 14.0902 15.0326
523 1 -1.1104 3.8525 19.4924 15.1241
525 2 2.2208 2.59904 15.4551 16.4369
526 2 2.2208 2.65526 21.0031 16.6163
527 1 -1.1104 4.02049 16.753 17.8599
528 1 -1.1104 3.94229 16.7795 14.9213
522 1 -1.1104 3.97813 13.8237 20.5799
426 2 2.2208 -0.284964 18.0935 16.3996
427 2 2.2208 -0.34455 15.2816 19.2885
500 1 -1.1104 6.67991 13.9184 17.8241
428 2 2.2208 -0.208634 20.9022 19.315
505 1 -1.1104 1.20212 19.4652 20.6834
503 1 -1.1104 1.13839 13.9721 20.7643
515 1 -1.1104 1.15056 16.713 20.66
532 2 2.2208 8.19858 20.8277 22.0967
531 2 2.2208 8.1097 15.3366 22.0438
495 1 -1.1104 6.75213 19.4632 26.3372
516 1 -1.1104 6.71634 16.7526 15.0488
511 1 -1.1104 6.85224 16.7984 17.9779
506 1 -1.1104 6.80265 14.0283 15.0391
501 1 -1.1104 6.8726 19.5026 17.8797
508 1 -1.1104 6.75849 19.4714 15.0222
533 2 2.2208 10.9993 18.0913 16.4077
534 1 -1.1104 12.4756 13.9548 17.7616
535 1 -1.1104 12.5198 19.6186 17.7553
536 1 -1.1104 12.3835 13.7622 14.8825
538 1 -1.1104 12.2982 19.5177 14.9589
540 1 -1.1104 12.3315 16.8509 17.9308
541 2 2.2208 10.9298 15.274 19.274
542 2 2.2208 10.9798 20.9188 19.1124
543 1 -1.1104 12.1768 16.6049 15.0953
545 1 -1.1104 9.55408 13.8715 17.7822
546 1 -1.1104 9.78131 19.577 17.8548
547 2 2.2208 8.23877 18.1094 19.3119
548 1 -1.1104 9.51418 13.9974 15.0443
550 1 -1.1104 9.52528 19.59 15.0686
552 2 2.2208 8.14917 15.2863 16.5282
553 2 2.2208 8.17667 20.9088 16.4978
554 1 -1.1104 9.61822 16.7153 17.7606
555 1 -1.1104 9.51079 16.7663 15.0421
551 1 -1.1104 9.54793 19.3543 20.7556
544 1 -1.1104 12.3079 16.8074 20.7994
335 2 2.2208 8.19745 18.0988 13.6586
556 1 -1.1104 9.52788 16.6101 20.7511
549 1 -1.1104 9.54985 13.9172 20.601
517 1 -1.1104 6.59657 16.7335 20.7566
509 1 -1.1104 6.75145 19.4721 20.7547
8681 2 2.2208 -0.273834 -4.29257 22.1104
8653 2 2.2208 2.56056 -4.31041 24.8967
595 2 2.2208 -0.205405 1.29476 22.0983
594 2 2.2208 -0.178568 -1.57867 24.8772
561 2 2.2208 5.42014 1.25737 22.1397
562 1 -1.1104 1.24327 -3.02591 23.3803
563 1 -1.1104 1.05637 2.60485 23.4606
566 1 -1.1104 1.12391 -2.957 26.2301
567 1 -1.1104 1.18969 2.841 26.2063
570 1 -1.1104 1.29337 -0.220666 23.4313
572 2 2.2208 5.52876 -1.45575 25.004
574 1 -1.1104 1.14421 -0.131743 26.2081
576 1 -1.1104 4.1047 -2.86374 23.5743
577 1 -1.1104 3.90707 2.64127 23.4792
578 2 2.2208 2.4993 1.19252 24.8664
579 1 -1.1104 4.01974 -2.89239 26.2437
580 1 -1.1104 3.9355 2.678 26.236
581 2 2.2208 2.70858 -1.71964 22.0936
583 1 -1.1104 3.98142 -0.0666907 23.3408
584 1 -1.1104 3.96624 -0.188291 26.3215
582 2 2.2208 2.55676 4.063 22.0462
573 2 2.2208 5.30825 4.10526 24.9019
596 2 2.2208 -0.349736 4.18179 24.863
8679 2 2.2208 5.36938 -4.38311 22.1497
339 2 2.2208 2.56291 4.12642 27.5688
675 1 -1.1104 6.68735 13.8691 23.2923
405 1 -1.1104 12.4785 -2.94763 20.7484
417 1 -1.1104 9.5996 -2.80158 20.747
412 1 -1.1104 12.4564 -0.151239 20.662
571 1 -1.1104 6.85403 -0.125275 23.4458
575 1 -1.1104 6.77515 -0.0926617 26.3089
569 1 -1.1104 6.7198 2.62512 26.3412
565 1 -1.1104 6.84733 2.78287 23.6338
568 1 -1.1104 6.88658 -2.85036 26.3254
564 1 -1.1104 6.81492 -2.95626 23.5626
597 2 2.2208 11.0199 1.25659 22.0775
598 1 -1.1104 12.428 -2.88224 23.4963
599 1 -1.1104 12.3323 2.63677 23.52
600 1 -1.1104 12.4901 -2.9891 26.356
601 1 -1.1104 12.3864 2.77427 26.2761
602 1 -1.1104 12.3456 -0.0178359 23.5189
603 2 2.2208 10.9072 -1.56999 24.83
604 2 2.2208 10.9127 4.09186 24.7669
605 1 -1.1104 12.2952 -0.0139092 26.3618
606 1 -1.1104 9.64246 -3.05272 23.4262
607 1 -1.1104 9.54464 2.64258 23.3047
608 2 2.2208 8.1005 1.3346 24.8877
609 1 -1.1104 9.70309 -2.891 26.3534
610 1 -1.1104 9.54279 2.60629 26.2231
611 2 2.2208 8.21861 -1.47462 22.1076
612 2 2.2208 8.1694 4.12177 21.9377
613 1 -1.1104 9.63639 -0.147686 23.3954
614 1 -1.1104 9.5513 -0.333707 26.3357
684 1 -1.1104 6.83336 16.6103 26.2726
682 1 -1.1104 6.78322 13.7651 26.2717
391 2 2.2208 -0.436358 6.88371 21.8641
439 1 -1.1104 1.02376 8.10084 20.686
655 2 2.2208 -0.244456 12.5251 22.1986
9294 2 2.2208 -0.338872 9.6908 24.877
626 2 2.2208 5.3087 6.79312 22.0579
627 2 2.2208 5.34856 12.4892 21.9519
628 1 -1.1104 1.14779 8.28863 23.4976
630 1 -1.1104 1.05311 8.3249 26.2407
632 1 -1.1104 1.0615 5.49972 23.3761
633 1 -1.1104 1.13367 11.0217 23.4993
636 2 2.2208 5.17463 9.65022 24.7804
637 1 -1.1104 1.14328 5.49 26.2602
638 1 -1.1104 0.982684 11.1772 26.1938
641 1 -1.1104 3.90237 8.2299 23.4715
642 2 2.2208 2.51683 6.86735 24.8105
643 2 2.2208 2.5447 12.5734 24.841
644 1 -1.1104 3.82107 8.25625 26.2698
645 2 2.2208 2.53104 9.56992 22.1655
646 1 -1.1104 3.92413 5.57803 23.3848
647 1 -1.1104 3.92719 11.1603 23.4814
648 1 -1.1104 4.00397 5.52408 26.2185
649 1 -1.1104 3.8004 11.0528 26.3288
9210 2 2.2208 -0.318936 12.5106 27.6475
496 1 -1.1104 9.67699 13.789 26.2887
560 1 -1.1104 12.3513 19.4521 23.4209
350 2 2.2208 2.53584 9.68941 27.7009
481 1 -1.1104 12.1342 11.0388 20.5567
474 1 -1.1104 12.1255 8.21751 20.5995
634 1 -1.1104 6.72205 5.37774 23.4428
640 1 -1.1104 6.67417 11.0245 26.0163
629 1 -1.1104 6.64606 8.18106 23.355
631 1 -1.1104 6.5798 8.26931 26.0512
639 1 -1.1104 6.74629 5.38392 26.3298
635 1 -1.1104 6.72259 10.9965 23.324
657 1 -1.1104 9.62276 10.9515 26.1027
658 1 -1.1104 9.62777 5.42978 26.203
659 1 -1.1104 9.54105 10.9642 23.312
660 1 -1.1104 9.45825 5.35873 23.4667
661 2 2.2208 8.0875 9.60794 21.9822
662 1 -1.1104 9.35082 8.16544 26.1673
663 2 2.2208 8.16946 12.4181 24.755
664 2 2.2208 8.12937 6.84339 24.7633
665 2 2.2208 10.9326 6.83208 21.994
666 2 2.2208 10.9678 12.3755 22.0287
667 1 -1.1104 12.1805 8.17298 23.3724
668 1 -1.1104 12.3495 8.19774 26.2991
669 1 -1.1104 12.3533 5.47742 23.3024
670 1 -1.1104 12.4102 11.0016 23.4252
671 2 2.2208 10.7839 9.45996 24.8055
672 1 -1.1104 12.4898 5.48087 26.1679
673 1 -1.1104 12.4952 10.9025 26.2627
674 1 -1.1104 9.39669 8.13821 23.3552
679 1 -1.1104 6.68008 19.312 23.4182
355 2 2.2208 8.09833 9.7715 27.5675
9250 2 2.2208 -0.353881 20.9782 25.0499
9257 2 2.2208 -0.209701 15.4009 24.9673
524 1 -1.1104 3.88497 19.5895 20.6805
529 1 -1.1104 3.79888 16.7021 20.6768
559 2 2.2208 -0.199645 18.1811 22.0836
587 2 2.2208 2.53851 15.3073 22.0606
590 2 2.2208 2.53792 20.9068 22.0727
615 1 -1.1104 4.05017 16.6436 23.4636
616 1 -1.1104 1.26846 16.7191 23.5635
619 1 -1.1104 3.94343 13.9332 26.2199
622 1 -1.1104 3.92328 16.6847 26.3308
650 2 2.2208 2.51157 18.1448 24.9332
651 1 -1.1104 3.83047 19.445 26.3834
652 2 2.2208 5.28491 18.1473 22.084
654 1 -1.1104 1.14229 13.94 23.5364
656 1 -1.1104 1.10673 19.6237 23.5579
676 2 2.2208 5.35272 15.3511 24.8599
677 2 2.2208 5.40594 20.8833 24.9501
681 1 -1.1104 3.89892 19.4904 23.5652
683 1 -1.1104 3.99767 14.036 23.4553
685 1 -1.1104 1.15004 19.7764 26.3722
686 1 -1.1104 1.16537 17.0137 26.3853
687 1 -1.1104 1.13099 13.9437 26.2609
507 1 -1.1104 6.72558 14.0526 20.6934
342 2 2.2208 2.64794 20.9663 27.8103
357 2 2.2208 8.19002 20.9088 27.7329
469 1 -1.1104 9.49212 19.4037 23.6153
468 1 -1.1104 9.51851 13.7694 23.3785
433 2 2.2208 11.0104 20.8959 24.9465
557 1 -1.1104 9.47491 16.7115 23.4431
425 1 -1.1104 12.3106 19.5842 26.2605
494 2 2.2208 8.14208 18.1129 24.9006
432 2 2.2208 10.9492 15.2174 24.8112
537 1 -1.1104 12.4329 13.9331 20.6201
558 1 -1.1104 9.73328 16.4736 26.2922
539 1 -1.1104 12.4398 19.5581 20.7471
585 1 -1.1104 12.3357 13.8534 23.4586
431 1 -1.1104 12.4449 16.494 23.5308
400 1 -1.1104 12.3826 13.8647 26.316
586 2 2.2208 10.8991 18.0233 22.1393
338 2 2.2208 2.58519 -1.65836 27.7192
8467 2 2.2208 -0.234939 -4.28684 27.6319
351 2 2.2208 5.27022 12.4883 27.6193
354 2 2.2208 10.9489 6.78302 27.5991
333 2 2.2208 10.9213 21.0108 13.7343
340 2 2.2208 2.61193 15.3834 27.632
341 2 2.2208 5.32038 18.0051 27.6262
353 2 2.2208 10.9849 17.968 27.7333
319 2 2.2208 5.32789 4.14408 13.6739
323 2 2.2208 11.0636 4.26901 13.6387
313 2 2.2208 -0.373594 20.9419 13.7176
688 2 2.2208 5.39251 23.774 5.29232
689 2 2.2208 5.44238 29.3366 5.16875
690 1 -1.1104 1.18747 25.17 0.9661
691 1 -1.1104 1.06924 25.3008 3.86098
692 1 -1.1104 1.09858 22.3406 0.95086
693 1 -1.1104 1.10058 27.7918 0.800387
694 2 2.2208 5.46171 26.5953 2.36626
695 1 -1.1104 1.18236 22.3273 3.7148
696 1 -1.1104 1.21106 27.9656 3.71417
697 1 -1.1104 3.97032 25.165 1.16124
698 2 2.2208 2.57973 23.7882 2.38476
699 2 2.2208 2.60101 29.2836 2.42857
700 1 -1.1104 3.8883 25.209 3.97641
701 2 2.2208 2.4761 26.6465 5.28535
702 1 -1.1104 3.99595 22.3549 0.949753
703 1 -1.1104 4.03971 27.9845 1.00612
704 1 -1.1104 3.90887 22.397 3.81564
705 1 -1.1104 4.00388 27.9825 3.99427
837 1 -1.1104 4.02253 27.9667 6.62587
835 1 -1.1104 3.89675 25.1091 6.67357
9838 2 2.2208 -0.289276 29.3401 5.3386
712 1 -1.1104 6.78962 27.9799 0.954745
9840 2 2.2208 -0.194649 23.6946 5.2198
1012 2 2.2208 2.67004 26.3839 -0.238447
714 1 -1.1104 6.81658 27.997 3.75681
832 1 -1.1104 1.0769 27.9368 6.52226
836 1 -1.1104 3.96728 22.405 6.6303
829 1 -1.1104 1.13759 25.0745 6.66361
9841 2 2.2208 -0.300455 26.5716 2.37476
1381 1 -1.1104 9.5254 47.5831 0.865411
713 1 -1.1104 6.6416 22.6405 3.76313
711 1 -1.1104 6.89077 22.238 0.94258
709 1 -1.1104 6.78979 25.0089 0.915815
710 1 -1.1104 6.78928 25.3113 3.73309
715 2 2.2208 10.8851 23.7186 5.1932
716 2 2.2208 11.0609 29.4084 5.31702
717 1 -1.1104 12.4836 25.1831 1.04159
718 1 -1.1104 12.4177 25.1562 3.78207
719 1 -1.1104 12.304 22.3905 1.00739
720 1 -1.1104 12.4528 28.0536 1.03284
721 2 2.2208 10.9733 26.5627 2.37646
722 1 -1.1104 12.2981 22.2687 3.86553
723 1 -1.1104 12.62 27.9651 3.82766
724 1 -1.1104 9.59189 25.2641 0.968116
725 2 2.2208 8.23635 23.7541 2.27071
726 2 2.2208 8.25932 29.421 2.44301
727 1 -1.1104 9.55507 25.0305 3.66165
728 2 2.2208 8.24264 26.6146 5.09568
729 1 -1.1104 9.66536 22.4578 1.13825
730 1 -1.1104 9.61447 28.0697 1.09971
731 1 -1.1104 9.39237 22.186 3.80995
732 1 -1.1104 9.77638 27.9877 3.90207
1331 1 -1.1104 1.15606 47.6128 3.89945
830 1 -1.1104 6.7344 25.2534 6.78679
833 1 -1.1104 6.93115 22.403 6.48975
867 1 -1.1104 9.5825 28.1538 6.67467
1015 2 2.2208 8.20224 26.6602 -0.420162
736 2 2.2208 5.32877 35.0688 5.21701
737 1 -1.1104 1.03974 30.6143 0.911618
738 1 -1.1104 1.06024 36.3628 1.03221
740 1 -1.1104 1.13969 30.6977 3.85287
741 1 -1.1104 1.16799 36.406 3.86745
743 1 -1.1104 0.978337 33.5348 1.03197
744 2 2.2208 5.36456 32.1477 2.33913
745 2 2.2208 5.3906 37.8066 2.56391
746 1 -1.1104 1.16084 33.5369 3.73933
748 1 -1.1104 3.97792 30.7897 1.12729
749 1 -1.1104 4.02024 36.4087 1.21827
750 2 2.2208 2.59154 35.0252 2.4738
751 1 -1.1104 4.06684 30.8626 3.89666
752 1 -1.1104 4.03317 36.507 3.96744
753 2 2.2208 2.59339 32.171 5.20579
754 2 2.2208 2.51164 37.8644 5.21584
755 1 -1.1104 3.9365 33.5593 1.09471
756 1 -1.1104 3.95687 33.7366 3.81252
9850 2 2.2208 -0.316649 46.1631 5.30224
9845 2 2.2208 -0.232131 37.7145 2.41029
739 1 -1.1104 6.69017 36.4622 0.894981
9846 2 2.2208 -0.346995 32.0683 2.41237
9859 2 2.2208 -0.273286 40.5518 -0.201722
894 1 -1.1104 4.1043 33.4958 6.46726
9847 2 2.2208 -0.257881 34.9803 5.23473
762 1 -1.1104 6.91224 33.5036 0.874165
742 1 -1.1104 6.82915 36.425 3.75238
747 1 -1.1104 6.83232 33.5759 3.90169
760 1 -1.1104 6.8779 30.7569 1.09974
761 1 -1.1104 6.82823 30.7606 3.85654
763 2 2.2208 11.1302 35.0505 5.2035
764 1 -1.1104 12.4085 30.9088 0.983075