ITEM: TIMESTEP
40000
ITEM: NUMBER OF ATOMS
17910
ITEM: BOX BOUNDS pp pp pp
-3.4495928042213775e-01 2.7684959280422380e+01
-4.3102390327634330e+00 3.3239023903276029e+02
-3.5818936175314015e-01 2.7698189361752988e+01
ITEM: ATOMS id type q x y z
1 2 2.2208 5.40646 1.40999 5.18761
2 1 -1.1104 1.16255 -2.69295 1.06187
3 1 -1.1104 1.01126 2.71734 1.0445
6 1 -1.1104 1.18701 -2.9041 3.84557
7 1 -1.1104 1.14747 2.83364 3.91416
10 1 -1.1104 1.25391 -0.00243855 0.89746
12 2 2.2208 5.24751 -1.58386 2.40004
13 2 2.2208 5.4954 4.10993 2.39123
14 1 -1.1104 1.23182 -0.0429389 3.66528
16 1 -1.1104 3.88614 -2.88511 0.961897
17 1 -1.1104 4.02179 2.71816 1.12673
18 2 2.2208 2.58132 1.39255 2.37742
19 1 -1.1104 3.84032 -2.82552 3.90524
20 1 -1.1104 4.01456 2.89935 3.81445
21 2 2.2208 2.43529 -1.51204 5.28424
22 2 2.2208 2.65333 4.18361 5.19007
23 1 -1.1104 4.04495 -0.0180266 0.963263
24 1 -1.1104 3.99327 -0.0228458 3.63118
11 1 -1.1104 6.72915 -0.0959449 1.11699
5 1 -1.1104 6.83523 2.67041 0.949054
9 1 -1.1104 6.79859 2.77912 3.88068
8 1 -1.1104 6.74162 -2.99169 3.76384
167 1 -1.1104 0.968764 2.61929 6.65347
170 1 -1.1104 1.03214 -0.135677 6.51982
168 1 -1.1104 6.66242 -2.74648 6.5034
8456 2 2.2208 11.0624 -4.21834 10.8149
8449 2 2.2208 8.12772 -4.27535 2.3459
169 1 -1.1104 6.70679 2.75937 6.52527
171 1 -1.1104 6.68316 0.10557 6.6857
172 1 -1.1104 3.91681 -2.93285 6.65937
166 1 -1.1104 1.13743 -2.81683 6.63511
8450 2 2.2208 10.9674 -4.11765 5.17028
311 1 -1.1104 9.58454 14.1967 9.43345
15 1 -1.1104 6.83395 -0.178627 3.81746
4 1 -1.1104 6.67558 -2.8626 0.957341
31 2 2.2208 10.9581 1.38833 5.1969
32 1 -1.1104 12.5924 -2.78232 1.05708
33 1 -1.1104 12.2552 2.93755 0.848254
34 1 -1.1104 12.4386 -2.7941 3.93786
35 1 -1.1104 12.2364 2.7606 3.74609
36 1 -1.1104 12.3819 0.0339115 0.990489
37 2 2.2208 11.0749 -1.34984 2.4121
39 1 -1.1104 12.4062 -0.0457997 3.74639
40 1 -1.1104 9.52361 -2.88612 1.10978
41 1 -1.1104 9.53044 2.97964 1.07351
42 2 2.2208 8.20391 1.32835 2.38988
43 1 -1.1104 9.50959 -2.67562 3.89724
44 1 -1.1104 9.48688 2.84022 3.76775
45 2 2.2208 8.09761 -1.38188 5.23163
46 2 2.2208 8.13444 4.18638 5.23129
47 1 -1.1104 9.58065 0.0831681 0.934808
48 1 -1.1104 9.58201 0.0571596 3.68388
156 1 -1.1104 9.50915 19.6886 6.71209
83 1 -1.1104 12.4315 16.7836 12.2093
210 1 -1.1104 9.50097 0.131434 6.55865
143 1 -1.1104 12.3217 14.1166 6.57556
38 2 2.2208 10.8925 4.32726 2.40261
8452 2 2.2208 2.56119 -4.23117 8.00192
206 1 -1.1104 12.2966 2.90045 6.63383
205 1 -1.1104 12.3669 -2.76286 6.71122
208 1 -1.1104 9.56473 -2.70489 6.53854
209 1 -1.1104 9.64209 2.92755 6.59977
54 2 2.2208 5.30048 7.04776 5.22138
55 2 2.2208 5.18979 12.7469 5.30249
56 1 -1.1104 1.20985 8.21515 1.00886
58 1 -1.1104 1.05856 8.29313 3.76655
60 1 -1.1104 1.29588 5.61174 0.853098
61 1 -1.1104 1.11336 11.0675 0.976417
66 2 2.2208 5.25311 9.73237 2.48628
67 1 -1.1104 1.1154 5.47876 3.6984
68 1 -1.1104 1.14818 11.0815 3.8031
71 1 -1.1104 4.015 8.3562 1.14546
72 2 2.2208 2.53818 6.96618 2.49082
73 2 2.2208 2.39802 12.5079 2.28325
74 1 -1.1104 3.83994 8.48047 3.89693
75 2 2.2208 2.43282 9.78281 5.25614
76 1 -1.1104 3.98532 5.61678 1.04105
77 1 -1.1104 3.95847 11.0917 0.952727
79 1 -1.1104 3.91913 5.61609 4.03753
80 1 -1.1104 3.95542 11.2728 3.76379
63 1 -1.1104 6.70677 5.54356 1.11716
70 1 -1.1104 6.68589 11.2627 3.84942
239 1 -1.1104 3.82509 5.6063 6.6505
8447 2 2.2208 5.25571 -4.18183 5.21109
236 1 -1.1104 0.952454 5.47868 6.50533
62 1 -1.1104 1.02653 11.1326 6.68914
238 1 -1.1104 3.93845 8.38653 6.7407
135 1 -1.1104 12.4658 16.7889 9.61408
9179 2 2.2208 -0.262155 6.87543 5.20448
203 2 2.2208 8.08207 20.8771 10.9023
8446 2 2.2208 2.60803 -4.31922 2.37389
232 1 -1.1104 9.52674 19.6531 9.51151
59 1 -1.1104 6.73093 8.35622 3.86738
57 1 -1.1104 6.74428 8.46107 1.06395
69 1 -1.1104 6.86718 5.57085 3.93029
64 1 -1.1104 6.61984 11.2068 1.04907
235 1 -1.1104 6.62047 8.57417 6.60548
65 1 -1.1104 6.62604 11.3752 6.60001
84 2 2.2208 10.8561 7.05085 5.26778
85 2 2.2208 11.0013 12.6917 5.29027
86 1 -1.1104 12.3541 8.27993 1.05513
87 1 -1.1104 12.2573 8.35523 3.90115
88 1 -1.1104 12.2761 5.62001 1.07287
89 1 -1.1104 12.2103 11.2304 0.933643
91 2 2.2208 10.9543 9.75135 2.46388
92 1 -1.1104 12.3176 5.58573 3.80752
93 1 -1.1104 12.292 11.1361 3.82417
94 1 -1.1104 9.58875 8.47927 1.18054
95 2 2.2208 8.10207 6.92918 2.39209
96 2 2.2208 7.95739 12.5915 2.59821
97 1 -1.1104 9.5181 8.38954 3.86157
98 2 2.2208 8.09322 9.80096 5.15833
99 1 -1.1104 9.48345 5.66554 1.11588
100 1 -1.1104 9.42034 11.2312 0.948582
102 1 -1.1104 9.58745 5.59453 3.90429
103 1 -1.1104 9.54514 11.2315 3.72472
137 1 -1.1104 9.41587 19.5345 12.3109
237 1 -1.1104 6.53945 5.64234 6.70445
101 1 -1.1104 9.54817 11.4655 6.7027
106 2 2.2208 5.12461 18.151 5.22185
107 1 -1.1104 1.03925 14.0417 1.02438
109 1 -1.1104 1.12938 19.6554 0.86761
113 1 -1.1104 0.928385 13.9418 3.93503
114 1 -1.1104 1.06644 19.5863 3.66683
116 1 -1.1104 1.14002 16.8862 0.952719
119 2 2.2208 5.1846 15.3612 2.45251
120 2 2.2208 5.15287 20.9617 2.41429
121 1 -1.1104 0.923255 16.8113 3.5899
123 1 -1.1104 3.81812 13.9324 1.0272
125 1 -1.1104 3.84254 19.5755 0.868948
127 2 2.2208 2.39777 18.1821 2.29115
128 1 -1.1104 3.76228 14.0468 3.74523
129 1 -1.1104 3.75525 19.5577 3.78626
130 2 2.2208 2.40164 15.4157 5.14606
131 2 2.2208 2.42687 21.0693 5.13967
132 1 -1.1104 3.92204 16.6734 1.00004
134 1 -1.1104 3.61304 16.789 3.83491
110 1 -1.1104 6.51449 14.0301 1.04636
126 1 -1.1104 3.91251 19.5986 6.62918
108 1 -1.1104 1.27527 13.9587 6.64613
117 1 -1.1104 1.03681 16.7643 6.40512
302 1 -1.1104 1.05998 19.5603 6.52846
104 2 2.2208 11.0294 15.4232 8.09147
81 1 -1.1104 12.3392 13.95 9.37845
355 2 2.2208 8.0752 9.75388 -0.35296
354 2 2.2208 10.9395 6.93714 -0.356543
140 1 -1.1104 6.66941 16.7285 1.05647
115 1 -1.1104 6.79713 14.1663 3.86942
139 1 -1.1104 6.55083 19.6378 3.90198
122 1 -1.1104 6.52341 16.8921 3.8322
138 1 -1.1104 6.51363 19.5202 1.03736
141 2 2.2208 10.9273 18.3039 5.23863
142 1 -1.1104 12.1918 14.1591 0.990776
144 1 -1.1104 12.071 19.613 1.08185
146 1 -1.1104 12.2659 14.1024 3.81196
147 1 -1.1104 12.4284 19.5115 3.78792
148 1 -1.1104 12.3477 16.9377 0.965558
150 2 2.2208 10.8369 15.4937 2.45283
151 2 2.2208 10.8506 21.0618 2.56006
152 1 -1.1104 12.2789 16.8653 3.90173
153 1 -1.1104 9.3188 14.1066 1.05113
155 1 -1.1104 9.30221 19.7132 0.989933
157 2 2.2208 8.00024 18.2227 2.43345
158 1 -1.1104 9.60209 14.0433 3.92688
159 1 -1.1104 9.50043 19.673 3.75804
160 2 2.2208 8.1138 15.4463 5.26264
161 2 2.2208 7.89786 20.9907 5.20285
162 1 -1.1104 9.52202 16.9425 1.16927
164 1 -1.1104 9.41181 16.8393 3.90363
8455 2 2.2208 8.19849 -4.23421 7.97602
112 1 -1.1104 6.58603 19.5226 6.60004
118 1 -1.1104 6.67025 16.8956 6.62096
9175 2 2.2208 -0.133894 1.31718 5.19181
9174 2 2.2208 -0.196557 -1.35735 2.42154
343 2 2.2208 -0.323093 9.79703 13.6402
9180 2 2.2208 -0.207613 9.68511 2.33577
8453 2 2.2208 5.36554 -4.29599 10.7647
316 2 2.2208 5.31202 -1.45459 13.6415
173 1 -1.1104 3.85222 2.70848 6.58974
174 1 -1.1104 3.89267 -0.0188385 6.47773
175 2 2.2208 5.22705 1.31928 10.9591
176 1 -1.1104 1.08025 -2.92457 12.0416
177 1 -1.1104 1.09485 2.68622 12.2184
180 1 -1.1104 1.11792 -2.97346 9.3286
181 1 -1.1104 1.10977 2.73738 9.47643
184 1 -1.1104 1.04819 -0.122308 12.3193
186 2 2.2208 5.40107 -1.42943 8.00172
187 2 2.2208 5.2924 4.08147 8.00663
188 1 -1.1104 0.999643 -0.0752393 9.30565
190 1 -1.1104 3.89204 -2.61885 12.0905
191 1 -1.1104 3.89083 2.87469 12.0631
192 2 2.2208 2.43726 1.28332 8.10062
193 1 -1.1104 4.12727 -3.01029 9.37311
194 1 -1.1104 4.04191 2.59409 9.36067
195 2 2.2208 2.4115 -1.54755 10.788
197 1 -1.1104 3.86701 0.0709272 12.3051
198 1 -1.1104 3.79435 -0.208431 9.41795
178 1 -1.1104 6.67701 -2.98661 12.2044
183 1 -1.1104 6.78539 2.8446 9.33062
182 1 -1.1104 6.8869 -2.89828 9.49155
179 1 -1.1104 6.77533 2.62352 12.087
196 2 2.2208 2.51284 4.22499 10.8323
9181 2 2.2208 -0.347246 12.4464 5.18272
27 1 -1.1104 12.2678 14.026 12.3215
317 2 2.2208 2.4208 1.36343 13.6731
8473 2 2.2208 2.45654 -4.21072 13.5936
207 1 -1.1104 12.4446 -0.10082 6.54908
356 2 2.2208 10.7474 12.6695 -0.344944
185 1 -1.1104 6.66887 -0.169222 12.2103
189 1 -1.1104 6.6272 -0.0804285 9.44517
211 2 2.2208 10.9551 1.38 10.8334
212 1 -1.1104 12.4537 -2.89754 12.2501
213 1 -1.1104 12.4771 2.57575 12.2258
214 1 -1.1104 12.3325 -2.75327 9.3882
215 1 -1.1104 12.4482 2.88055 9.47128
216 1 -1.1104 12.2248 -0.0371372 12.3605
217 2 2.2208 10.92 -1.26997 7.91475
218 2 2.2208 10.9043 4.29709 8.12915
219 1 -1.1104 12.2068 0.110728 9.47107
220 1 -1.1104 9.57981 -2.92706 12.1622
221 1 -1.1104 9.54242 2.75463 12.2353
222 2 2.2208 8.21035 1.42981 8.05845
223 1 -1.1104 9.59053 -2.68215 9.38466
224 1 -1.1104 9.62905 2.86617 9.38458
225 2 2.2208 8.05519 -1.46578 10.8667
226 2 2.2208 8.09687 4.05996 10.8205
227 1 -1.1104 9.4235 -0.108938 12.1192
228 1 -1.1104 9.58711 0.0427908 9.39938
352 2 2.2208 7.98883 15.5301 -0.325549
165 2 2.2208 8.17182 18.1554 8.08572
52 2 2.2208 13.6584 7.06358 8.02875
322 2 2.2208 10.8398 -1.51929 13.5313
8909 2 2.2208 -0.352939 18.2127 5.18827
326 2 2.2208 2.60195 12.5578 13.6143
8448 2 2.2208 -0.145936 -4.28991 5.12541
78 1 -1.1104 3.73846 11.108 6.60862
234 1 -1.1104 1.07828 8.35386 6.77776
240 2 2.2208 5.33361 6.97981 10.9077
241 2 2.2208 5.37113 12.6635 10.8849
242 1 -1.1104 1.11294 8.43404 12.192
244 1 -1.1104 1.07422 8.2534 9.38306
246 1 -1.1104 1.13796 5.55857 12.0724
247 1 -1.1104 1.14815 11.1443 12.2452
250 2 2.2208 5.32231 9.86848 7.89492
251 1 -1.1104 1.21797 5.39446 9.20081
252 1 -1.1104 0.92728 11.0899 9.40974
255 1 -1.1104 3.88005 8.42754 12.3194
256 2 2.2208 2.54309 6.94164 8.04535
257 2 2.2208 2.53528 12.5379 8.1258
258 1 -1.1104 3.8707 8.32292 9.41953
259 2 2.2208 2.5135 9.70749 10.8857
260 1 -1.1104 4.01367 5.64801 12.2283
261 1 -1.1104 3.96202 11.2771 12.2637
262 1 -1.1104 3.94053 5.51676 9.42416
263 1 -1.1104 3.84607 11.1083 9.42643
243 1 -1.1104 6.73932 8.32134 12.1632
245 1 -1.1104 6.62375 8.52696 9.3857
9110 2 2.2208 -0.321501 9.80379 8.04685
29 2 2.2208 -0.255079 6.95925 10.8279
30 2 2.2208 -0.293551 12.5824 10.9006
266 1 -1.1104 12.3677 5.60731 6.60702
269 1 -1.1104 9.3245 5.60397 6.71774
8910 2 2.2208 13.6955 9.73188 5.19057
253 1 -1.1104 6.62675 5.5353 9.5732
248 1 -1.1104 6.7156 5.45431 12.3537
249 1 -1.1104 6.70074 11.1442 12.3725
254 1 -1.1104 6.64922 11.3106 9.3879
265 1 -1.1104 12.1993 8.45351 6.65286
90 1 -1.1104 12.3035 11.3601 6.66773
267 1 -1.1104 9.46712 8.49582 6.51258
264 1 -1.1104 9.51549 11.3523 9.60766
268 1 -1.1104 9.49192 5.70714 9.50738
270 1 -1.1104 9.57057 11.0587 12.2831
271 1 -1.1104 9.54821 5.66437 12.2491
272 2 2.2208 8.0419 9.78196 10.8724
273 1 -1.1104 9.47313 8.44672 9.30615
274 2 2.2208 8.06825 12.6913 8.15508
275 2 2.2208 7.96155 7.00563 8.06234
276 2 2.2208 10.8969 6.95044 10.7596
277 2 2.2208 11.0237 12.6215 10.8348
278 1 -1.1104 12.2718 8.25377 12.2628
279 1 -1.1104 12.213 8.40242 9.45318
280 1 -1.1104 12.2613 5.43793 12.3609
281 1 -1.1104 12.4361 11.2705 12.2124
282 2 2.2208 10.9207 9.85498 8.08582
283 1 -1.1104 12.2133 5.56923 9.4973
284 1 -1.1104 12.3916 11.0511 9.48869
285 1 -1.1104 9.47328 8.27674 12.0386
105 2 2.2208 10.9175 21.0772 8.04139
8882 2 2.2208 -0.32665 15.3467 7.87397
330 2 2.2208 2.42303 18.2657 13.5847
332 2 2.2208 5.44342 15.2764 13.6381
8881 2 2.2208 13.5931 4.30446 5.26048
133 1 -1.1104 3.8899 16.8463 6.604
290 1 -1.1104 6.65956 14.0946 9.53607
124 1 -1.1104 4.06298 14.0394 6.768
297 1 -1.1104 6.75777 14.0132 12.2619
289 1 -1.1104 6.82879 16.8095 9.49455
286 1 -1.1104 3.93473 19.7296 12.2039
287 1 -1.1104 3.96052 14.0607 12.3034
291 1 -1.1104 1.04301 19.6724 9.30448
292 1 -1.1104 1.06957 16.869 9.33494
293 2 2.2208 5.31952 21.0572 8.07528
294 1 -1.1104 1.0547 14.0349 9.31612
295 2 2.2208 5.28021 15.4726 8.0967
298 1 -1.1104 0.994595 19.616 12.1933
299 1 -1.1104 1.22409 13.9378 12.1226
300 2 2.2208 5.28488 18.2389 10.8595
301 1 -1.1104 3.84167 19.5674 9.44398
303 2 2.2208 2.54116 18.3003 7.83039
304 1 -1.1104 3.96475 16.6725 9.53769
305 1 -1.1104 4.0019 13.8123 9.51359
307 1 -1.1104 0.925048 16.8827 12.2017
308 1 -1.1104 3.72162 16.9737 12.2763
309 2 2.2208 2.46003 20.9384 10.7736
310 2 2.2208 2.46512 15.4575 10.9218
296 1 -1.1104 6.82878 19.5323 12.2203
201 2 2.2208 -0.30672 1.26393 10.9654
49 1 -1.1104 12.2604 19.6187 12.4046
202 2 2.2208 8.18835 15.4704 10.7294
111 1 -1.1104 6.68549 14.148 6.74444
149 1 -1.1104 12.4008 16.832 6.72324
163 1 -1.1104 9.49396 16.7723 6.66807
231 1 -1.1104 9.59849 16.882 9.50105
26 2 2.2208 10.842 18.2443 10.9341
145 1 -1.1104 12.4291 19.5878 6.50894
154 1 -1.1104 9.45183 14.0108 6.62711
136 1 -1.1104 9.53422 13.9318 12.0924
82 1 -1.1104 12.2576 19.6414 9.4374
288 1 -1.1104 6.524 19.5502 9.49517
204 1 -1.1104 9.45382 16.7 12.343
306 1 -1.1104 6.63317 16.7968 12.2747
315 2 2.2208 -0.266133 4.20225 13.5524
327 2 2.2208 8.16203 6.94733 13.5416
8467 2 2.2208 -0.246642 -4.29965 -0.379651
323 2 2.2208 10.9179 4.08799 13.6554
353 2 2.2208 10.8158 18.3584 -0.300161
8883 2 2.2208 -0.335655 21.0066 7.94706
351 2 2.2208 5.40235 12.5805 -0.363885
329 2 2.2208 8.28449 12.6034 13.6168
331 2 2.2208 5.2934 20.9237 13.5892
334 2 2.2208 10.994 15.4494 13.5887
328 2 2.2208 10.8967 9.69627 13.6622
345 2 2.2208 8.12082 -1.4476 -0.356912
8461 2 2.2208 10.9945 -4.18508 -0.341683
321 2 2.2208 8.17425 1.22063 13.61
9210 2 2.2208 -0.268952 12.5924 -0.335151
358 2 2.2208 5.27793 1.4352 16.3791
359 1 -1.1104 1.16491 -2.82895 18.085
360 1 -1.1104 1.24261 2.8778 17.9471
363 1 -1.1104 1.10505 -2.86949 15.1485
365 1 -1.1104 0.967429 2.85929 14.9964
371 1 -1.1104 1.24699 0.181274 17.8318
373 2 2.2208 5.4051 -1.40571 19.2024
375 1 -1.1104 1.20873 -0.0804766 15.1084
379 1 -1.1104 3.93714 -2.8601 17.8218
380 1 -1.1104 3.99976 2.74639 17.8768
381 2 2.2208 2.60581 1.50057 19.2287
382 1 -1.1104 3.98489 -2.81529 14.941
384 1 -1.1104 3.81701 2.87979 15.0284
386 2 2.2208 2.69278 -1.40365 16.5171
387 2 2.2208 2.5403 4.23555 16.4571
388 1 -1.1104 4.00573 -0.136768 17.8578
389 1 -1.1104 3.8398 0.07782 15.1011
374 2 2.2208 5.35446 4.19461 19.2383
372 1 -1.1104 6.85969 -0.0284891 17.7999
362 1 -1.1104 6.64357 2.82921 17.7066
377 1 -1.1104 6.7399 -0.00876234 14.9703
364 1 -1.1104 1.06593 -2.92789 20.6992
383 1 -1.1104 4.02482 -2.93643 20.5281
390 1 -1.1104 3.84217 -0.0999491 20.6119
378 1 -1.1104 6.63615 -0.206257 20.6674
385 1 -1.1104 3.90648 2.71245 20.7242
8825 2 2.2208 2.61923 -4.30572 19.2361
8653 2 2.2208 2.50925 -4.11892 24.7406
397 2 2.2208 -0.256412 4.30716 19.2232
313 2 2.2208 -0.328496 20.9407 13.7405
531 2 2.2208 8.0439 15.4301 21.9789
593 2 2.2208 13.6729 15.3666 22.123
369 1 -1.1104 6.61864 2.64754 14.8155
361 1 -1.1104 6.65046 -2.88598 17.8498
367 1 -1.1104 6.57879 -2.66935 15.188
370 1 -1.1104 6.79015 2.75019 20.6754
401 2 2.2208 11.0027 1.34992 16.4466
402 1 -1.1104 12.3169 -2.7819 17.8511
403 1 -1.1104 12.1909 2.81246 17.7495
404 1 -1.1104 12.159 -2.74878 15.0256
406 1 -1.1104 12.5753 2.98269 15.0685
408 1 -1.1104 12.5332 -0.0162598 17.8624
409 2 2.2208 10.9585 -1.4609 19.2683
410 2 2.2208 10.986 4.22149 19.2275
411 1 -1.1104 12.509 0.114182 15.1456
413 1 -1.1104 9.565 -2.7579 18.0038
414 1 -1.1104 9.49306 2.66455 17.7547
415 2 2.2208 8.04082 1.46774 19.2396
416 1 -1.1104 9.35944 -2.88265 15.0686
418 1 -1.1104 9.71229 2.72722 15.0984
420 2 2.2208 8.11815 -1.41725 16.6141
421 2 2.2208 8.10691 4.17385 16.4623
422 1 -1.1104 9.72051 -0.0643927 17.9387
423 1 -1.1104 9.55625 -0.0546003 15.0614
618 2 2.2208 -0.296707 12.6545 16.301
8465 2 2.2208 5.35293 -4.25211 27.5869
592 2 2.2208 -0.266426 9.86895 19.2354
424 1 -1.1104 9.47048 -0.081296 20.7797
417 1 -1.1104 9.60746 -2.95577 20.7449
8815 2 2.2208 10.9245 -4.23232 16.4702
368 1 -1.1104 6.87342 -2.95148 20.6782
407 1 -1.1104 12.4262 2.785 20.6055
405 1 -1.1104 12.3598 -2.90639 20.5968
419 1 -1.1104 9.46979 2.86978 20.5945
412 1 -1.1104 12.2779 -0.142739 20.7015
357 2 2.2208 7.99422 21.0577 27.6308
434 2 2.2208 5.24692 6.91093 16.4445
435 2 2.2208 5.28248 12.4962 16.4913
436 1 -1.1104 1.15017 8.50053 17.9232
438 1 -1.1104 0.992928 8.38602 15.0411
442 1 -1.1104 1.13795 5.71938 17.7828
443 1 -1.1104 1.00205 11.2758 17.6549
446 2 2.2208 5.26072 9.72391 19.2977
447 1 -1.1104 1.15483 5.69922 15.0102
449 1 -1.1104 1.1913 11.0443 14.9744
455 1 -1.1104 3.94967 8.48873 17.8556
456 2 2.2208 2.51972 6.97557 19.2871
457 2 2.2208 2.43636 12.5903 19.2339
458 1 -1.1104 3.73092 8.27224 15.2257
460 2 2.2208 2.37291 9.65459 16.4542
461 1 -1.1104 3.85454 5.62465 17.8213
462 1 -1.1104 3.82216 11.2628 17.9563
463 1 -1.1104 3.84476 5.63703 14.9839
465 1 -1.1104 3.92039 11.1728 15.0772
445 1 -1.1104 6.68689 11.0711 17.9334
437 1 -1.1104 6.78189 8.34795 17.871
454 1 -1.1104 6.72891 11.1306 20.6777
319 2 2.2208 5.39336 4.18844 13.7171
450 1 -1.1104 1.22703 11.0983 20.6568
452 1 -1.1104 6.70036 5.60314 20.627
448 1 -1.1104 1.17762 5.57433 20.5215
459 1 -1.1104 3.84699 8.33958 20.8589
466 1 -1.1104 4.02203 11.1621 20.8731
394 2 2.2208 -0.327362 1.45537 16.5352
585 1 -1.1104 12.2116 14.0677 23.5361
440 1 -1.1104 6.65863 8.34772 15.0368
453 1 -1.1104 6.82603 11.1943 15.1979
451 1 -1.1104 6.61446 5.41736 15.1381
441 1 -1.1104 6.62769 8.44795 20.6706
444 1 -1.1104 6.64694 5.51961 17.9044
470 2 2.2208 10.8398 6.93475 16.5943
471 2 2.2208 10.8913 12.6266 16.4869
472 1 -1.1104 12.4775 8.54637 17.8883
473 1 -1.1104 12.1898 8.48547 15.1176
475 1 -1.1104 12.2278 5.70654 17.8319
476 1 -1.1104 12.2502 11.3185 17.8201
477 2 2.2208 11.0086 9.78822 19.2736
478 1 -1.1104 12.1963 5.71618 15.1018
480 1 -1.1104 12.0748 11.1909 14.88
482 1 -1.1104 9.47498 8.1906 17.8785
483 2 2.2208 8.05406 6.96609 19.3524
484 2 2.2208 8.03424 12.5548 19.2171
485 1 -1.1104 9.586 8.24552 15.1013
487 2 2.2208 8.12856 9.72619 16.4064
488 1 -1.1104 9.3848 5.44274 17.9037
489 1 -1.1104 9.52651 11.0345 17.717
490 1 -1.1104 9.42876 5.45964 15.0178
492 1 -1.1104 9.48331 11.1434 15.0521
395 2 2.2208 -0.222925 -1.42907 19.2607
431 1 -1.1104 12.2942 16.7041 23.477
491 1 -1.1104 9.4395 5.5206 20.7809
556 1 -1.1104 9.55274 16.7717 20.6817
497 2 2.2208 5.28724 18.1444 16.4762
498 1 -1.1104 1.09596 14.1766 17.8573
499 1 -1.1104 1.13475 19.6687 17.9932
502 1 -1.1104 0.94668 14.1073 14.9986
504 1 -1.1104 1.07116 19.537 14.992
510 1 -1.1104 1.13457 16.8872 17.73
512 2 2.2208 5.30393 15.4466 19.092
513 2 2.2208 5.31697 20.9958 19.3109
514 1 -1.1104 1.09686 16.8178 14.8468
518 1 -1.1104 3.87995 13.9801 17.9084
519 1 -1.1104 3.91609 19.6378 17.7927
520 2 2.2208 2.46455 18.1941 19.2921
521 1 -1.1104 3.8967 14.0236 15.2015
523 1 -1.1104 3.86056 19.526 15.0614
525 2 2.2208 2.54923 15.4182 16.4333
526 2 2.2208 2.44868 21.0143 16.479
527 1 -1.1104 3.94699 16.8511 17.9527
528 1 -1.1104 4.02633 16.7753 15.0405
516 1 -1.1104 6.83914 16.717 14.9936
522 1 -1.1104 3.90781 14.1397 20.6206
529 1 -1.1104 3.63936 16.795 20.9292
507 1 -1.1104 6.66984 14.0158 20.746
524 1 -1.1104 3.83685 19.7466 20.5895
517 1 -1.1104 6.53179 16.7812 20.6296
344 2 2.2208 11.0032 1.3828 27.6065
560 1 -1.1104 12.3928 19.59 23.4231
312 2 2.2208 -0.300437 -1.4448 13.7193
347 2 2.2208 13.6212 12.6875 13.664
9294 2 2.2208 -0.287715 9.72585 24.8387
508 1 -1.1104 6.71626 19.5372 15.014
500 1 -1.1104 6.69926 14.0531 17.7517
506 1 -1.1104 6.70361 13.934 15.0438
501 1 -1.1104 6.63587 19.6679 17.8588
511 1 -1.1104 6.62309 16.8039 17.815
544 1 -1.1104 12.5054 16.9069 20.747
346 2 2.2208 8.12975 4.09246 27.6819
533 2 2.2208 10.8829 18.3452 16.4922
534 1 -1.1104 12.1932 14.1225 17.7856
535 1 -1.1104 12.278 19.7805 17.7507
536 1 -1.1104 12.4112 13.9984 14.9938
538 1 -1.1104 12.4973 19.6798 14.9625
540 1 -1.1104 12.2066 16.8514 17.8999
541 2 2.2208 10.8922 15.4502 19.1671
542 2 2.2208 10.9978 21.0909 19.2941
543 1 -1.1104 12.3028 16.7822 14.981
545 1 -1.1104 9.39984 13.9687 17.6869
546 1 -1.1104 9.49894 19.6091 17.9116
547 2 2.2208 8.15331 18.2753 19.3964
548 1 -1.1104 9.64691 14.0135 14.9183
550 1 -1.1104 9.38821 19.4617 15.0522
552 2 2.2208 8.14155 15.4364 16.4835
553 2 2.2208 8.14408 21.0542 16.428
554 1 -1.1104 9.41008 16.905 17.9731
555 1 -1.1104 9.56009 16.7385 15.1958
9209 2 2.2208 13.6408 15.4046 27.6662
653 2 2.2208 13.6242 20.9098 22.1152
549 1 -1.1104 9.46557 13.9626 20.3664
537 1 -1.1104 12.2623 13.9208 20.6602
532 2 2.2208 8.07352 21.0791 22.084
366 1 -1.1104 1.03292 2.73908 20.7097
539 1 -1.1104 12.3435 19.6014 20.6707
376 1 -1.1104 1.06153 0.0167182 20.649
561 2 2.2208 5.29741 1.26497 22.0395
562 1 -1.1104 1.04752 -2.8519 23.518
563 1 -1.1104 1.16107 2.68419 23.462
566 1 -1.1104 1.13108 -2.95517 26.3158
567 1 -1.1104 1.24089 2.67288 26.198
570 1 -1.1104 1.14026 -0.1471 23.35
572 2 2.2208 5.2852 -1.52528 24.7875
574 1 -1.1104 0.905779 0.00898595 26.1897
576 1 -1.1104 3.902 -2.81376 23.4339
577 1 -1.1104 3.95095 2.77631 23.4422
578 2 2.2208 2.52471 1.44805 24.8619
579 1 -1.1104 3.9787 -2.83076 26.2899
580 1 -1.1104 3.99553 2.70922 26.338
581 2 2.2208 2.41194 -1.43929 21.9329
583 1 -1.1104 3.85251 -0.0252259 23.4372
584 1 -1.1104 3.92686 -0.139959 26.2154
582 2 2.2208 2.53543 4.11629 21.9332
573 2 2.2208 5.39225 4.11083 24.9014
575 1 -1.1104 6.77073 -0.0104652 26.2771
551 1 -1.1104 9.60795 19.6071 20.7529
9182 2 2.2208 -0.228794 18.2388 27.6734
496 1 -1.1104 9.37381 14.0967 26.203
596 2 2.2208 -0.180644 4.19368 24.7167
349 2 2.2208 5.43057 6.90505 27.6852
425 1 -1.1104 12.2959 19.643 26.3471
337 2 2.2208 5.25454 1.36186 27.6661
494 2 2.2208 8.08302 18.1614 24.8852
8614 2 2.2208 10.885 -4.1783 22.071
568 1 -1.1104 6.60553 -2.89829 26.2486
565 1 -1.1104 6.79747 2.62421 23.4038
564 1 -1.1104 6.67696 -2.9232 23.4456
569 1 -1.1104 6.73102 2.68838 26.2935
571 1 -1.1104 6.74113 -0.0327097 23.4975
8612 2 2.2208 8.15798 -4.27132 24.9561
558 1 -1.1104 9.27654 16.9766 26.4539
597 2 2.2208 10.9433 1.36327 22.1006
598 1 -1.1104 12.3817 -2.7937 23.4228
599 1 -1.1104 12.4782 2.81895 23.3843
600 1 -1.1104 12.2689 -2.75711 26.2098
601 1 -1.1104 12.2967 2.88274 26.1495
602 1 -1.1104 12.3615 0.0194099 23.6632
603 2 2.2208 10.9951 -1.38636 24.8258
604 2 2.2208 10.9067 4.10418 24.7931
605 1 -1.1104 12.4188 -0.0593676 26.2647
606 1 -1.1104 9.48688 -2.73927 23.4302
607 1 -1.1104 9.53409 2.83435 23.4368
608 2 2.2208 8.1192 1.3499 24.8606
609 1 -1.1104 9.37183 -2.91517 26.3528
610 1 -1.1104 9.43014 2.62963 26.2834
611 2 2.2208 8.20759 -1.37005 22.1092
612 2 2.2208 8.08237 4.08947 22.0435
613 1 -1.1104 9.62523 0.0121463 23.3513
614 1 -1.1104 9.58707 -0.0648163 26.141
557 1 -1.1104 9.58176 16.7546 23.6118
340 2 2.2208 2.28513 15.4024 27.6481
335 2 2.2208 8.09171 18.0262 13.6781
433 2 2.2208 10.9253 20.9546 24.9452
439 1 -1.1104 1.14389 8.23422 20.7223
464 1 -1.1104 4.03211 5.44486 20.6037
626 2 2.2208 5.43664 6.9954 22.1029
627 2 2.2208 5.29192 12.6565 22.0283
628 1 -1.1104 1.0785 8.33207 23.541
630 1 -1.1104 1.27462 8.33499 26.3397
632 1 -1.1104 1.11632 5.58785 23.2927
633 1 -1.1104 1.03457 11.0573 23.4659
636 2 2.2208 5.35451 9.77676 24.8661
637 1 -1.1104 1.16948 5.50127 26.1697
638 1 -1.1104 1.1091 11.1614 26.2921
641 1 -1.1104 4.02088 8.27779 23.5355
642 2 2.2208 2.53923 6.96287 24.9419
643 2 2.2208 2.54846 12.4674 24.9089
644 1 -1.1104 4.07121 8.41347 26.2439
645 2 2.2208 2.56029 9.69979 22.1397
646 1 -1.1104 3.93289 5.53999 23.541
647 1 -1.1104 3.89463 11.2179 23.5119
648 1 -1.1104 3.95344 5.53685 26.2634
649 1 -1.1104 3.90223 11.1622 26.2784
634 1 -1.1104 6.70244 5.43958 23.4746
629 1 -1.1104 6.80065 8.38552 23.5324
639 1 -1.1104 6.69921 5.53255 26.3111
635 1 -1.1104 6.67508 11.2034 23.3734
631 1 -1.1104 6.82438 8.28295 26.3683
467 1 -1.1104 12.0373 16.8493 26.1846
333 2 2.2208 11.001 21.0462 13.756
400 1 -1.1104 12.1579 14.1716 26.2584
684 1 -1.1104 6.65334 16.677 26.2667
474 1 -1.1104 12.4024 8.42281 20.6714
479 1 -1.1104 12.2882 5.50991 20.5618
640 1 -1.1104 6.73437 11.1172 26.2077
486 1 -1.1104 9.6866 8.10262 20.6797
586 2 2.2208 10.9906 18.1866 22.1583
481 1 -1.1104 12.3317 11.2728 20.6642
493 1 -1.1104 9.53707 11.1269 20.5146
657 1 -1.1104 9.37725 11.1433 26.2375
658 1 -1.1104 9.47542 5.58705 26.4634
659 1 -1.1104 9.50888 11.2311 23.4388
660 1 -1.1104 9.62172 5.52655 23.5698
661 2 2.2208 8.09209 9.67169 22.0736
662 1 -1.1104 9.58672 8.3133 26.3663
663 2 2.2208 8.05586 12.6023 24.7829
664 2 2.2208 8.14571 6.87495 25.0169
665 2 2.2208 11.139 6.87887 22.0797
666 2 2.2208 10.7968 12.5557 22.0292
667 1 -1.1104 12.231 8.37908 23.5089
668 1 -1.1104 12.3916 8.35996 26.4049
669 1 -1.1104 12.4664 5.67589 23.4069
670 1 -1.1104 12.2884 11.3239 23.542
671 2 2.2208 10.8505 9.78576 24.9686
672 1 -1.1104 12.1902 5.59243 26.131
673 1 -1.1104 12.2447 11.2305 26.236
674 1 -1.1104 9.49691 8.46182 23.6123
9188 2 2.2208 -0.189123 7.01845 27.6232
594 2 2.2208 -0.24418 -1.43941 24.8896
468 1 -1.1104 9.48502 13.9516 23.2966
342 2 2.2208 2.48102 21.1203 27.6662
509 1 -1.1104 6.82904 19.7767 20.6501
505 1 -1.1104 0.995579 19.5774 20.7119
675 1 -1.1104 6.61528 14.0582 23.4446
682 1 -1.1104 6.797 13.849 26.2944
515 1 -1.1104 0.928508 16.7918 20.6248
503 1 -1.1104 0.921539 14.0835 20.5979
587 2 2.2208 2.39281 15.2547 22.2119
590 2 2.2208 2.41107 20.9493 22.0029
615 1 -1.1104 3.90489 16.7018 23.6055
616 1 -1.1104 1.06695 16.6181 23.3977
619 1 -1.1104 3.81557 14.0037 26.3457
622 1 -1.1104 3.78987 16.704 26.2806
650 2 2.2208 2.45656 18.0671 24.8215
651 1 -1.1104 3.80535 19.5605 26.2722
652 2 2.2208 5.21613 18.1647 22.0437
654 1 -1.1104 0.985839 13.7464 23.5584
656 1 -1.1104 0.938783 19.579 23.5225
676 2 2.2208 5.32711 15.2962 24.9097
677 2 2.2208 5.15783 20.8797 24.9185
681 1 -1.1104 3.79759 19.4932 23.3405
683 1 -1.1104 3.83707 13.9273 23.3936
685 1 -1.1104 1.04564 19.5419 26.1143
686 1 -1.1104 1.08795 16.8515 26.1822
687 1 -1.1104 0.992528 14.1351 26.306
495 1 -1.1104 6.57977 19.483 26.2946
617 1 -1.1104 6.78694 16.764 23.3929
679 1 -1.1104 6.64313 19.4641 23.4645
469 1 -1.1104 9.53854 19.4523 23.5484
432 2 2.2208 10.8459 15.4398 24.9161
530 1 -1.1104 9.45253 19.8075 26.3794
8843 2 2.2208 -0.164955 -4.22616 16.49
338 2 2.2208 2.58646 -1.41788 27.6887
9218 2 2.2208 -0.333407 1.32033 27.6416
391 2 2.2208 -0.299795 7.01975 22.0249
324 2 2.2208 2.4761 7.03807 13.6976
325 2 2.2208 5.3815 9.74148 13.8219
339 2 2.2208 2.44973 3.99264 27.6697
341 2 2.2208 5.21894 18.0933 27.5879
350 2 2.2208 2.65748 9.64487 27.6666
688 2 2.2208 5.25751 23.8461 5.24527
689 2 2.2208 5.33951 29.3494 5.20476
690 1 -1.1104 0.957108 25.2504 1.02732
691 1 -1.1104 1.06023 25.2088 3.82825
692 1 -1.1104 1.14879 22.4269 0.998738
693 1 -1.1104 1.0315 28.064 0.928775
694 2 2.2208 5.31078 26.5571 2.3455
695 1 -1.1104 0.988125 22.3272 3.80977
696 1 -1.1104 1.02001 27.9988 3.8489
697 1 -1.1104 3.87497 25.2803 0.944442
698 2 2.2208 2.44235 23.8774 2.53091
699 2 2.2208 2.56481 29.4253 2.39208
700 1 -1.1104 3.87516 25.3138 3.86813
701 2 2.2208 2.51406 26.6211 5.29115
702 1 -1.1104 3.93719 22.5368 1.01113
703 1 -1.1104 3.77538 28.0934 1.03697
704 1 -1.1104 3.72384 22.378 3.85324
705 1 -1.1104 3.82226 27.9622 3.74382
714 1 -1.1104 6.69298 27.9575 3.82166
712 1 -1.1104 6.60751 28.0463 1.13719
831 1 -1.1104 1.0722 22.395 6.55824
827 1 -1.1104 12.2503 39.3043 9.58153
1013 2 2.2208 5.28204 29.4884 -0.272703
1021 2 2.2208 8.15033 32.335 -0.29883
713 1 -1.1104 6.49401 22.605 3.76661
709 1 -1.1104 6.7988 25.1541 1.06951
710 1 -1.1104 6.77344 25.2049 3.88277
711 1 -1.1104 6.67972 22.308 0.953847
715 2 2.2208 10.9353 23.8072 5.16766
716 2 2.2208 10.8837 29.4081 5.39186
717 1 -1.1104 12.2573 25.3137 1.05893
718 1 -1.1104 12.3505 25.1593 3.80842
719 1 -1.1104 12.5463 22.3667 1.0771
720 1 -1.1104 12.1857 28.1427 1.2484
721 2 2.2208 10.9087 26.6276 2.48697
722 1 -1.1104 12.2411 22.5011 3.77547
723 1 -1.1104 12.3331 28.035 3.94327
724 1 -1.1104 9.46525 25.3327 1.11447
725 2 2.2208 8.10069 23.8309 2.43352
726 2 2.2208 8.13667 29.4584 2.48388
727 1 -1.1104 9.54744 25.2353 3.68263
728 2 2.2208 8.09438 26.6162 5.09036
729 1 -1.1104 9.57392 22.4407 1.01492
730 1 -1.1104 9.46536 28.014 1.06281
731 1 -1.1104 9.28617 22.4609 3.92943
732 1 -1.1104 9.47811 28.1631 3.92698
983 1 -1.1104 9.49407 39.1934 12.5257
9841 2 2.2208 -0.271728 26.6751 2.36244
9715 2 2.2208 -0.213036 29.418 10.9221
867 1 -1.1104 9.45906 27.9124 6.74162
9846 2 2.2208 -0.165978 32.1267 2.46181
1017 2 2.2208 10.9592 29.4875 -0.27772
9845 2 2.2208 -0.255787 37.8815 2.57039
757 1 -1.1104 9.20552 42.1036 6.79535
736 2 2.2208 5.2041 35.0422 5.44176
737 1 -1.1104 1.08478 30.7867 1.17531
738 1 -1.1104 0.821623 36.3627 1.19245
740 1 -1.1104 1.20103 30.6677 3.80643
741 1 -1.1104 1.13591 36.3157 3.91267
743 1 -1.1104 1.06774 33.648 1.16246
744 2 2.2208 5.28544 32.2107 2.4106
745 2 2.2208 5.23127 37.8473 2.43375
746 1 -1.1104 1.18668 33.5637 4.00078
748 1 -1.1104 3.89022 30.892 0.983045
749 1 -1.1104 3.70228 36.4379 1.23539
750 2 2.2208 2.46388 34.9673 2.55026
751 1 -1.1104 3.92032 30.7824 3.79091
752 1 -1.1104 3.83953 36.3527 3.97151
753 2 2.2208 2.49348 32.1898 5.33552
754 2 2.2208 2.40128 37.8841 5.25941
755 1 -1.1104 3.81467 33.5822 0.945409
756 1 -1.1104 3.80114 33.6769 3.96833
762 1 -1.1104 6.71685 33.7344 1.09949
739 1 -1.1104 6.57583 36.4893 1.08574
760 1 -1.1104 6.70966 30.8421 1.1481
747 1 -1.1104 6.68482 33.5831 3.84807
886 1 -1.1104 1.32377 30.6251 6.59729
1018 2 2.2208 2.51553 37.7433 -0.301333
808 2 2.2208 10.7319 43.5515 8.16051
893 1 -1.1104 3.70235 36.6288 6.84628
706 2 2.2208 10.9043 40.6343 10.9858
1019 2 2.2208 5.28576 35.0321 -0.222145
9717 2 2.2208 -0.234886 23.7161 10.9012
761 1 -1.1104 6.83519 30.7217 4.00922
742 1 -1.1104 6.53618 36.4167 3.97829
888 1 -1.1104 6.7331 30.906 6.7283
763 2 2.2208 10.7288 35.038 5.29831
764 1 -1.1104 12.3429 30.8743 1.00246
765 1 -1.1104 12.1954 36.5393 1.29127
766 1 -1.1104 12.4084 30.7442 3.99014
767 1 -1.1104 12.2453 36.5078 4.01118
768 1 -1.1104 12.3279 33.7995 1.16795
769 2 2.2208 11.0316 32.1761 2.47171
770 2 2.2208 10.8841 37.914 2.52091
771 1 -1.1104 12.3854 33.6783 3.90364
772 1 -1.1104 9.44526 30.8883 1.10734
773 1 -1.1104 9.51523 36.6287 1.24024
774 2 2.2208 8.00966 35.0332 2.66194
775 1 -1.1104 9.65905 30.7995 3.86762
776 1 -1.1104 9.41479 36.5375 3.87593
777 2 2.2208 8.1132 32.2157 5.26687
778 2 2.2208 8.02719 37.9322 5.41277
779 1 -1.1104 9.52338 33.6365 1.09014