ITEM: TIMESTEP
100000
ITEM: NUMBER OF ATOMS
17910
ITEM: BOX BOUNDS pp pp pp
-3.5986225670312161e-01 2.7699862256703206e+01
-4.3153588165345855e+00 3.3239535881653592e+02
-3.5510895829913736e-01 2.7695108958298039e+01
ITEM: ATOMS id type q x y z
1 2 2.2208 5.14649 1.40006 5.25135
2 1 -1.1104 1.00128 -2.90749 0.989447
3 1 -1.1104 1.0311 2.7872 1.11001
6 1 -1.1104 0.733278 -2.73025 3.8941
7 1 -1.1104 0.977433 2.72315 3.95479
10 1 -1.1104 0.787659 -0.0746563 1.13653
12 2 2.2208 5.1688 -1.38398 2.56859
14 1 -1.1104 0.859934 0.0265723 3.97747
16 1 -1.1104 3.71212 -2.76021 1.08836
17 1 -1.1104 3.75009 2.7933 1.24801
18 2 2.2208 2.24438 1.32123 2.52653
19 1 -1.1104 3.64213 -2.83608 3.85554
20 1 -1.1104 3.78069 2.82433 3.97986
21 2 2.2208 2.31161 -1.38062 5.26362
22 2 2.2208 2.31101 4.04957 5.35598
23 1 -1.1104 3.84448 -0.0110192 1.18255
24 1 -1.1104 3.74024 0.0168028 3.94594
13 2 2.2208 5.04986 4.16769 2.68294
9177 2 2.2208 -0.456238 4.20187 2.62078
8455 2 2.2208 7.97102 -4.20226 8.12236
9174 2 2.2208 -0.660493 -1.36697 2.54531
9175 2 2.2208 -0.509349 1.31467 5.37751
170 1 -1.1104 0.81065 -0.0400011 6.78243
173 1 -1.1104 3.62744 2.67563 6.82812
172 1 -1.1104 3.68801 -2.90697 6.61939
8456 2 2.2208 10.8319 -4.22415 10.8983
11 1 -1.1104 6.59986 -0.0719309 1.16288
8 1 -1.1104 6.40229 -2.76943 3.88262
4 1 -1.1104 6.58285 -2.85093 1.16249
15 1 -1.1104 6.65882 0.0493904 3.95951
9 1 -1.1104 6.54596 2.76125 3.83642
5 1 -1.1104 6.6425 2.74118 1.22424
31 2 2.2208 10.8352 1.31898 5.27509
32 1 -1.1104 12.0627 -2.76624 1.14091
33 1 -1.1104 12.1922 2.71821 0.955404
34 1 -1.1104 12.1639 -2.91835 3.96938
35 1 -1.1104 12.3762 2.87075 3.81534
36 1 -1.1104 12.1086 -0.0673777 1.07193
37 2 2.2208 10.8735 -1.45524 2.54983
39 1 -1.1104 12.3106 0.0560727 3.99797
40 1 -1.1104 9.26154 -2.78634 1.19708
41 1 -1.1104 9.51678 2.77623 1.19458
42 2 2.2208 8.09458 1.23164 2.56165
43 1 -1.1104 9.31079 -2.87659 3.95919
44 1 -1.1104 9.52906 2.61955 3.99134
45 2 2.2208 7.88768 -1.45657 5.26331
47 1 -1.1104 9.43419 -0.0880475 1.04095
48 1 -1.1104 9.55664 -0.0499528 3.94521
38 2 2.2208 10.9214 4.19113 2.53551
171 1 -1.1104 6.54271 0.188841 6.53092
46 2 2.2208 7.97387 4.09947 5.23551
210 1 -1.1104 9.37004 -0.0710034 6.63453
206 1 -1.1104 12.3324 2.83459 6.80276
209 1 -1.1104 9.46389 2.62457 6.79
8449 2 2.2208 7.96243 -4.35987 2.39684
334 2 2.2208 10.7852 15.2185 13.8095
54 2 2.2208 5.10168 6.90624 5.45678
55 2 2.2208 5.13472 12.5585 5.29572
56 1 -1.1104 0.845971 8.45991 1.10371
58 1 -1.1104 0.799172 8.41195 3.97116
60 1 -1.1104 1.08876 5.72711 1.24972
61 1 -1.1104 0.882165 11.0901 1.12683
66 2 2.2208 5.19331 9.76617 2.59175
67 1 -1.1104 0.849403 5.68937 3.97177
68 1 -1.1104 1.06039 10.9709 4.09231
71 1 -1.1104 3.8331 8.42958 1.10092
72 2 2.2208 2.38635 7.02738 2.52674
73 2 2.2208 2.36341 12.6075 2.55748
74 1 -1.1104 3.81668 8.249 3.93529
75 2 2.2208 2.38162 9.68843 5.36241
76 1 -1.1104 3.87322 5.51103 0.913616
77 1 -1.1104 3.82539 11.2208 1.24035
79 1 -1.1104 3.61491 5.50821 4.02386
80 1 -1.1104 3.77774 11.1068 4.02738
236 1 -1.1104 0.896261 5.52336 6.80776
62 1 -1.1104 0.971997 10.9928 6.75186
9179 2 2.2208 -0.476795 6.88837 5.42559
78 1 -1.1104 3.89521 11.109 6.74314
9181 2 2.2208 -0.385728 12.5154 5.3778
234 1 -1.1104 0.916374 8.10981 6.77541
238 1 -1.1104 3.76043 8.32335 6.88403
57 1 -1.1104 6.6473 8.39832 1.22193
70 1 -1.1104 6.49077 11.2515 3.90371
239 1 -1.1104 3.71839 5.40843 6.87188
8450 2 2.2208 10.7673 -4.24167 5.30421
8447 2 2.2208 5.11015 -4.34875 5.25692
69 1 -1.1104 6.55426 5.62061 3.96592
64 1 -1.1104 6.48231 11.1306 1.04641
59 1 -1.1104 6.52834 8.52725 4.09952
63 1 -1.1104 6.53546 5.61647 1.27474
84 2 2.2208 10.652 6.93569 5.31757
85 2 2.2208 10.8438 12.5554 5.36637
86 1 -1.1104 12.0581 8.40974 1.1068
87 1 -1.1104 12.1694 8.29859 3.92069
88 1 -1.1104 12.2112 5.57336 1.18133
89 1 -1.1104 12.0181 11.2694 1.23575
91 2 2.2208 10.6464 9.76778 2.46119
92 1 -1.1104 12.2239 5.60254 3.94882
93 1 -1.1104 12.2387 11.1686 3.90874
94 1 -1.1104 9.3998 8.23119 1.26369
95 2 2.2208 7.96725 6.85145 2.58888
96 2 2.2208 8.08419 12.6178 2.59387
97 1 -1.1104 9.33633 8.33462 4.01113
98 2 2.2208 8.03309 9.77064 5.48573
99 1 -1.1104 9.404 5.39901 1.16465
100 1 -1.1104 9.27383 11.1235 1.13862
102 1 -1.1104 9.5197 5.56394 3.89178
103 1 -1.1104 9.39205 11.1311 3.96138
265 1 -1.1104 12.0404 8.24629 6.76813
237 1 -1.1104 6.60301 5.51071 6.82057
235 1 -1.1104 6.64942 8.3173 6.76887
269 1 -1.1104 9.34659 5.5344 6.64852
65 1 -1.1104 6.60329 11.1435 6.78426
101 1 -1.1104 9.45489 11.1558 6.76784
267 1 -1.1104 9.33558 8.33211 6.8449
9041 2 2.2208 -0.416488 20.8609 2.67136
106 2 2.2208 5.01124 18.2919 5.38993
107 1 -1.1104 0.942085 13.9271 1.10506
109 1 -1.1104 0.874128 19.4149 1.29337
113 1 -1.1104 0.971212 13.7946 3.92162
114 1 -1.1104 0.978257 19.4102 4.06489
116 1 -1.1104 0.978158 16.8611 1.16239
119 2 2.2208 5.18549 15.5107 2.6044
120 2 2.2208 5.0654 20.9854 2.41845
121 1 -1.1104 0.909017 16.6127 3.95945
123 1 -1.1104 3.71527 14.1231 1.15612
125 1 -1.1104 3.70479 19.6258 1.14128
127 2 2.2208 2.32763 18.173 2.66018
128 1 -1.1104 3.80392 13.9959 3.98548
129 1 -1.1104 3.72352 19.6335 3.93788
130 2 2.2208 2.39992 15.3602 5.39218
131 2 2.2208 2.2827 21.0002 5.41618
132 1 -1.1104 3.72435 16.8632 1.13501
134 1 -1.1104 3.77993 16.7884 4.00265
117 1 -1.1104 0.857005 16.7804 6.69373
108 1 -1.1104 1.04585 13.9686 6.68171
9042 2 2.2208 -0.486918 15.3524 2.59985
8909 2 2.2208 -0.474862 18.1639 5.35132
124 1 -1.1104 3.90122 14.1006 6.72758
302 1 -1.1104 0.951398 19.7867 6.75978
126 1 -1.1104 3.62778 19.5715 6.72842
133 1 -1.1104 3.63335 16.8379 6.76534
140 1 -1.1104 6.55594 16.8464 1.29188
156 1 -1.1104 9.35027 19.6008 6.78947
110 1 -1.1104 6.47666 14.034 0.956938
111 1 -1.1104 6.53229 13.9752 6.69162
138 1 -1.1104 6.48258 19.7343 1.09423
115 1 -1.1104 6.54615 13.9181 3.70056
139 1 -1.1104 6.45508 19.7438 4.03097
122 1 -1.1104 6.55173 16.9107 4.03008
141 2 2.2208 10.8808 18.2784 5.2795
142 1 -1.1104 12.2708 14.0745 1.2058
144 1 -1.1104 12.2481 19.6558 1.25897
146 1 -1.1104 12.2782 14.0005 3.94079
147 1 -1.1104 12.1992 19.6082 4.02867
148 1 -1.1104 12.201 16.8675 1.13767
150 2 2.2208 10.8143 15.4781 2.68897
151 2 2.2208 10.7566 20.9458 2.46947
152 1 -1.1104 12.3337 16.7561 3.99006
153 1 -1.1104 9.3795 14.0966 1.20984
155 1 -1.1104 9.23167 19.5531 1.21407
157 2 2.2208 7.97796 18.1725 2.63957
158 1 -1.1104 9.44396 13.9759 3.90294
159 1 -1.1104 9.37977 19.558 3.9399
160 2 2.2208 8.04716 15.3948 5.41159
161 2 2.2208 7.98416 20.9634 5.38861
162 1 -1.1104 9.48697 16.9694 1.44434
164 1 -1.1104 9.48944 16.7208 4.20935
112 1 -1.1104 6.26107 19.6813 6.87458
118 1 -1.1104 6.62636 16.8429 6.75959
143 1 -1.1104 12.0707 13.9314 6.79448
149 1 -1.1104 12.1182 16.8719 6.72563
154 1 -1.1104 9.3099 13.9147 6.66624
145 1 -1.1104 12.2303 19.5278 6.8689
8979 2 2.2208 13.6771 15.2815 5.43444
8453 2 2.2208 5.23547 -4.25179 10.922
167 1 -1.1104 0.990036 2.75608 6.78928
174 1 -1.1104 3.80297 -0.0308175 6.79146
9077 2 2.2208 13.498 12.5012 2.53623
166 1 -1.1104 0.964114 -2.8052 6.60199
8452 2 2.2208 2.42482 -4.22605 8.08334
199 2 2.2208 -0.493254 4.19579 8.08522
175 2 2.2208 5.1668 1.43226 10.9644
176 1 -1.1104 1.10988 -2.79592 12.2273
177 1 -1.1104 0.989959 2.67504 12.1572
180 1 -1.1104 0.962306 -2.96315 9.46079
181 1 -1.1104 1.06621 2.61453 9.49586
184 1 -1.1104 0.938404 0.0141261 12.2452
186 2 2.2208 5.12232 -1.43453 8.02228
187 2 2.2208 5.21598 4.18796 8.24286
188 1 -1.1104 0.873194 -0.214926 9.47575
190 1 -1.1104 3.80016 -2.78313 12.3085
191 1 -1.1104 3.82148 2.79298 12.3877
192 2 2.2208 2.41429 1.27061 8.08349
193 1 -1.1104 3.80778 -2.91434 9.42825
194 1 -1.1104 3.79704 2.87201 9.50431
195 2 2.2208 2.33076 -1.35445 10.8592
197 1 -1.1104 3.76744 0.136204 12.33
198 1 -1.1104 3.66711 -0.15158 9.48211
196 2 2.2208 2.31269 4.10971 10.7944
200 2 2.2208 -0.394919 -1.44107 8.10149
8454 2 2.2208 -0.380717 -4.37092 10.8304
201 2 2.2208 -0.483944 1.32412 10.8803
333 2 2.2208 10.8066 21.0524 13.6928
51 2 2.2208 13.5273 9.73827 11.0216
207 1 -1.1104 12.1039 -0.15145 6.7284
321 2 2.2208 7.95369 1.39758 13.6962
169 1 -1.1104 6.48724 2.88 6.64444
205 1 -1.1104 12.0661 -2.89491 6.75048
208 1 -1.1104 9.32296 -2.88877 6.75915
168 1 -1.1104 6.58649 -2.87681 6.74061
182 1 -1.1104 6.53015 -2.82253 9.44554
183 1 -1.1104 6.68003 2.76507 9.53067
189 1 -1.1104 6.50923 0.0271926 9.39809
179 1 -1.1104 6.63723 2.8376 12.4151
185 1 -1.1104 6.54967 -0.0861663 12.1289
178 1 -1.1104 6.61408 -2.89581 12.1529
211 2 2.2208 10.8432 1.41107 10.8946
212 1 -1.1104 12.188 -2.87433 12.2099
213 1 -1.1104 12.2768 2.73344 12.4271
214 1 -1.1104 12.3569 -2.92052 9.46086
215 1 -1.1104 12.1658 2.90274 9.50415
216 1 -1.1104 12.1743 0.0908977 12.3883
217 2 2.2208 10.7971 -1.48943 8.01765
218 2 2.2208 10.8685 4.2565 8.03425
219 1 -1.1104 12.0443 0.170304 9.61753
220 1 -1.1104 9.40275 -2.84593 12.3892
221 1 -1.1104 9.36387 2.90819 12.2892
222 2 2.2208 7.96708 1.32792 8.13966
223 1 -1.1104 9.45147 -2.79352 9.51595
224 1 -1.1104 9.50585 2.80713 9.54004
225 2 2.2208 8.05045 -1.45888 10.9115
226 2 2.2208 8.10448 4.16078 10.8741
227 1 -1.1104 9.27283 0.0395338 12.4678
228 1 -1.1104 9.27161 -0.0908459 9.55479
323 2 2.2208 10.9213 4.27371 13.7529
322 2 2.2208 10.8609 -1.47491 13.7959
324 2 2.2208 2.36545 6.91282 13.659
326 2 2.2208 2.29544 12.5704 13.4787
325 2 2.2208 5.17447 9.71296 13.7764
29 2 2.2208 -0.537306 6.9696 10.8862
9110 2 2.2208 -0.352454 9.75568 8.12523
30 2 2.2208 -0.499497 12.5757 11.0083
240 2 2.2208 5.28526 6.86213 11.08
241 2 2.2208 5.23345 12.6303 10.9049
242 1 -1.1104 0.864805 8.36569 12.1922
244 1 -1.1104 0.978385 8.37742 9.551
246 1 -1.1104 0.99072 5.44068 12.4093
247 1 -1.1104 1.00702 11.1054 12.2475
250 2 2.2208 5.20463 9.70271 8.16723
251 1 -1.1104 0.828169 5.53406 9.46321
252 1 -1.1104 0.957862 11.3564 9.51093
255 1 -1.1104 3.83722 8.37523 12.3713
256 2 2.2208 2.33508 6.92802 8.15777
257 2 2.2208 2.42419 12.5231 8.16638
258 1 -1.1104 3.83529 8.34316 9.64294
259 2 2.2208 2.40535 9.7555 10.8551
260 1 -1.1104 3.81243 5.61525 12.4074
261 1 -1.1104 3.84303 11.2917 12.1991
262 1 -1.1104 3.76015 5.59683 9.69469
263 1 -1.1104 3.82345 11.0655 9.4182
343 2 2.2208 -0.449384 9.70281 13.6704
253 1 -1.1104 6.63108 5.47599 9.60725
328 2 2.2208 10.7895 9.76732 13.857
329 2 2.2208 7.93121 12.5828 13.9534
327 2 2.2208 8.05123 7.00867 13.8313
266 1 -1.1104 12.1111 5.50487 6.76968
90 1 -1.1104 12.2155 11.0714 6.69989
245 1 -1.1104 6.48084 8.16008 9.59862
243 1 -1.1104 6.5689 8.35752 12.4609
254 1 -1.1104 6.66953 11.1515 9.57255
249 1 -1.1104 6.64711 11.2326 12.416
248 1 -1.1104 6.66189 5.54317 12.5048
264 1 -1.1104 9.42313 11.1156 9.54943
268 1 -1.1104 9.45687 5.575 9.48562
270 1 -1.1104 9.341 11.1868 12.4238
271 1 -1.1104 9.54343 5.67317 12.3665
272 2 2.2208 7.94183 9.76869 10.9589
273 1 -1.1104 9.26408 8.37545 9.59763
274 2 2.2208 8.0092 12.5479 8.12625
275 2 2.2208 7.94334 6.83982 8.23122
276 2 2.2208 10.8253 6.88299 10.9648
277 2 2.2208 10.7174 12.6327 11.004
278 1 -1.1104 12.1545 8.17296 12.3289
279 1 -1.1104 12.1911 8.60341 9.63467
280 1 -1.1104 12.2403 5.41345 12.2542
281 1 -1.1104 12.2853 10.9958 12.5394
282 2 2.2208 10.8856 9.80491 8.20796
283 1 -1.1104 12.2391 5.55797 9.47819
284 1 -1.1104 12.2142 11.2851 9.57795
285 1 -1.1104 9.58143 8.53431 12.3295
330 2 2.2208 2.34354 18.0942 13.7943
233 2 2.2208 -0.38658 18.093 11.0038
8882 2 2.2208 -0.508218 15.3821 7.99146
286 1 -1.1104 3.62518 19.5165 12.4625
287 1 -1.1104 3.66148 13.9796 12.1884
291 1 -1.1104 0.783121 19.6396 9.46973
292 1 -1.1104 0.844604 16.7973 9.4888
293 2 2.2208 5.03457 20.925 8.27041
294 1 -1.1104 0.959406 14.0047 9.36713
295 2 2.2208 5.08563 15.4228 8.09971
298 1 -1.1104 1.00373 19.6139 12.29
299 1 -1.1104 0.926208 13.9164 12.2472
300 2 2.2208 4.99671 18.1962 10.9303
301 1 -1.1104 3.69269 19.5952 9.59336
303 2 2.2208 2.28583 18.2642 8.1517
304 1 -1.1104 3.72826 16.8299 9.50262
305 1 -1.1104 3.64879 13.9939 9.41118
307 1 -1.1104 0.963704 16.694 12.2783
308 1 -1.1104 3.66666 16.8399 12.2734
309 2 2.2208 2.37932 21.0456 10.9559
310 2 2.2208 2.2686 15.3843 10.7488
8883 2 2.2208 -0.588829 20.9474 8.21062
306 1 -1.1104 6.56296 16.7236 12.4964
204 1 -1.1104 9.23298 16.9881 12.2352
331 2 2.2208 5.1537 20.9278 13.7835
320 2 2.2208 -0.444028 15.399 13.7694
296 1 -1.1104 6.62461 19.6335 12.43
288 1 -1.1104 6.433 19.5552 9.60196
289 1 -1.1104 6.50874 16.7263 9.50373
165 2 2.2208 7.95342 18.3359 8.17472
137 1 -1.1104 9.45479 19.6823 12.2665
163 1 -1.1104 9.30179 16.793 6.9016
335 2 2.2208 8.00702 18.1592 13.6774
231 1 -1.1104 9.34218 16.6685 9.50708
202 2 2.2208 7.84771 15.4086 10.9341
82 1 -1.1104 12.115 19.491 9.54261
27 1 -1.1104 12.0632 13.807 12.4744
135 1 -1.1104 12.2935 16.7322 9.60047
203 2 2.2208 7.93875 20.9942 11.0733
26 2 2.2208 10.7059 18.143 10.8994
104 2 2.2208 10.7321 15.4319 8.06904
290 1 -1.1104 6.58396 13.8994 9.45311
105 2 2.2208 10.7051 21.053 8.14831
311 1 -1.1104 9.33283 14.046 9.45311
232 1 -1.1104 9.26935 19.5817 9.51093
136 1 -1.1104 9.24302 14.1117 12.4013
297 1 -1.1104 6.50442 14.0953 12.2707
81 1 -1.1104 12.0973 14.0359 9.68451
49 1 -1.1104 12.208 19.5353 12.324
83 1 -1.1104 12.1628 16.4455 12.4644
315 2 2.2208 -0.382081 4.17386 13.8207
316 2 2.2208 5.25191 -1.40093 13.6993
313 2 2.2208 -0.392637 20.9233 13.7097
358 2 2.2208 5.22456 1.40268 16.5662
359 1 -1.1104 0.937179 -2.87762 17.9341
360 1 -1.1104 1.07162 2.80926 18.0679
363 1 -1.1104 1.19525 -2.93134 15.1806
365 1 -1.1104 0.890223 2.68058 15.142
371 1 -1.1104 1.00164 0.0096781 17.9959
373 2 2.2208 5.15428 -1.47303 19.3891
375 1 -1.1104 0.974309 -0.022326 15.0458
379 1 -1.1104 3.82984 -2.90014 17.9864
380 1 -1.1104 3.85462 2.75129 17.8976
381 2 2.2208 2.32776 1.44932 19.4307
382 1 -1.1104 3.97408 -2.7933 15.0919
384 1 -1.1104 3.70708 2.81311 15.0093
386 2 2.2208 2.49141 -1.32351 16.6007
387 2 2.2208 2.37969 4.04823 16.5296
388 1 -1.1104 3.77438 0.0730012 18.0833
389 1 -1.1104 3.81166 0.0106176 15.2161
374 2 2.2208 5.19036 4.16418 19.3545
383 1 -1.1104 3.84223 -2.90645 20.832
394 2 2.2208 -0.427401 1.30313 16.4966
366 1 -1.1104 0.948444 2.8744 20.7591
395 2 2.2208 -0.371683 -1.40675 19.3586
397 2 2.2208 -0.531713 4.25523 19.3829
8843 2 2.2208 -0.441125 -4.27616 16.4576
385 1 -1.1104 3.81796 2.7513 20.7263
8681 2 2.2208 -0.487587 -4.23558 22.0554
376 1 -1.1104 0.838879 0.0482896 20.7664
8653 2 2.2208 2.3215 -4.29127 24.9667
312 2 2.2208 -0.385044 -1.4271 13.5921
369 1 -1.1104 6.47264 2.79578 15.2699
372 1 -1.1104 6.43407 0.00388209 17.9931
362 1 -1.1104 6.72793 2.62245 18.0611
361 1 -1.1104 6.57248 -2.92736 18.042
367 1 -1.1104 6.60862 -2.78727 15.1344
377 1 -1.1104 6.61743 -0.0785264 15.1605
401 2 2.2208 10.8095 1.30755 16.6282
402 1 -1.1104 12.1751 -2.89106 18.0004
403 1 -1.1104 12.0863 2.79127 17.9954
404 1 -1.1104 12.1731 -2.84656 15.0016
406 1 -1.1104 12.0253 2.83749 15.2038
408 1 -1.1104 12.0835 0.0427295 18.0395
409 2 2.2208 10.8601 -1.36864 19.3898
410 2 2.2208 10.7595 4.20171 19.3815
411 1 -1.1104 12.1946 0.0164653 15.1735
413 1 -1.1104 9.47779 -2.92748 18.1725
414 1 -1.1104 9.41197 2.81463 17.965
415 2 2.2208 8.02021 1.34381 19.459
416 1 -1.1104 9.37892 -2.87409 15.2979
418 1 -1.1104 9.37702 2.731 15.1209
420 2 2.2208 7.99352 -1.48476 16.6405
422 1 -1.1104 9.31907 -0.153736 18.0753
423 1 -1.1104 9.42982 -0.0624049 15.2222
417 1 -1.1104 9.56592 -2.84992 20.929
421 2 2.2208 8.06439 4.13043 16.5976
405 1 -1.1104 12.377 -2.76539 20.7829
407 1 -1.1104 12.1701 2.7522 20.81
412 1 -1.1104 12.1871 0.0331662 20.8124
424 1 -1.1104 9.46297 -0.142172 20.8782
9257 2 2.2208 -0.476419 15.411 24.9312
370 1 -1.1104 6.46559 2.69719 20.8935
434 2 2.2208 5.05858 7.04027 16.5391
435 2 2.2208 5.08472 12.6303 16.5392
436 1 -1.1104 0.831523 8.20884 17.9488
438 1 -1.1104 0.811193 8.12395 14.9086
442 1 -1.1104 0.95471 5.4723 18.0189
443 1 -1.1104 0.879584 11.1673 17.8914
446 2 2.2208 5.16161 9.74552 19.4661
447 1 -1.1104 1.02655 5.43943 15.0607
449 1 -1.1104 0.932429 11.0888 15.0876
455 1 -1.1104 3.70758 8.39004 17.9072
456 2 2.2208 2.29262 6.99159 19.3896
457 2 2.2208 2.29416 12.5886 19.4612
458 1 -1.1104 3.66847 8.27614 15.1888
460 2 2.2208 2.35947 9.76916 16.7443
461 1 -1.1104 3.82006 5.67928 17.9855
462 1 -1.1104 3.78654 11.1407 18.0612
463 1 -1.1104 3.68443 5.61201 15.1056
465 1 -1.1104 3.59537 11.2075 15.0692
450 1 -1.1104 0.846678 11.1882 20.7276
466 1 -1.1104 3.74471 11.1899 20.7189
591 2 2.2208 -0.512032 6.80138 16.5688
592 2 2.2208 -0.599755 9.75079 19.4174
439 1 -1.1104 0.884792 8.53828 20.6846
453 1 -1.1104 6.59107 11.2355 15.2388
448 1 -1.1104 0.975856 5.70987 20.7512
459 1 -1.1104 3.79115 8.44325 20.7473
451 1 -1.1104 6.5835 5.76945 15.229
440 1 -1.1104 6.51897 8.44071 15.2049
437 1 -1.1104 6.46893 8.26818 18.05
445 1 -1.1104 6.69277 11.235 18.0808
444 1 -1.1104 6.71493 5.42824 18.1206
470 2 2.2208 10.7771 6.84087 16.5386
471 2 2.2208 10.8426 12.5033 16.7623
472 1 -1.1104 12.176 8.35433 17.9585
473 1 -1.1104 12.1019 8.36469 15.1519
475 1 -1.1104 12.2015 5.49863 17.9942
476 1 -1.1104 12.3711 11.1105 18.0618
477 2 2.2208 10.8099 9.70064 19.4506
478 1 -1.1104 12.0738 5.60376 15.1821
480 1 -1.1104 12.226 11.1552 15.3529
482 1 -1.1104 9.32576 8.15287 18.0083
483 2 2.2208 7.92509 6.8874 19.2774
484 2 2.2208 8.07973 12.5129 19.4266
485 1 -1.1104 9.33253 8.38878 15.1539
487 2 2.2208 7.86463 9.63997 16.7944
488 1 -1.1104 9.39095 5.62685 17.9133
489 1 -1.1104 9.48727 11.1711 18.1358
490 1 -1.1104 9.34186 5.56499 15.1788
492 1 -1.1104 9.57237 11.1865 15.2442
493 1 -1.1104 9.41687 11.003 20.8803
486 1 -1.1104 9.3451 8.31635 20.9433
481 1 -1.1104 12.2219 11.2221 20.793
441 1 -1.1104 6.51719 8.45534 20.7961
479 1 -1.1104 12.0463 5.57143 20.8979
452 1 -1.1104 6.48771 5.59405 20.8499
491 1 -1.1104 9.20751 5.56229 20.6481
426 2 2.2208 -0.431829 18.1656 16.581
427 2 2.2208 -0.440639 15.2946 19.3684
497 2 2.2208 5.16516 18.1445 16.6824
498 1 -1.1104 1.00559 13.9817 18.0222
499 1 -1.1104 0.989938 19.6065 18.0794
502 1 -1.1104 0.871451 14.0408 15.0728
504 1 -1.1104 0.948909 19.5941 15.1094
510 1 -1.1104 0.883382 16.944 17.9758
512 2 2.2208 5.11621 15.3915 19.6298
513 2 2.2208 5.16078 20.9137 19.3408
514 1 -1.1104 0.942577 16.7654 15.0956
518 1 -1.1104 3.82108 13.9431 18.029
519 1 -1.1104 3.80216 19.4404 18.1144
520 2 2.2208 2.24976 18.0333 19.4683
521 1 -1.1104 3.70739 13.964 15.1054
523 1 -1.1104 3.75335 19.5442 15.316
525 2 2.2208 2.31476 15.3554 16.5738
526 2 2.2208 2.42076 20.8885 16.5572
527 1 -1.1104 3.63989 16.7027 18.0456
528 1 -1.1104 3.73059 16.7212 15.1357
524 1 -1.1104 3.88644 19.4577 20.7716
522 1 -1.1104 3.79646 13.9978 20.8722
428 2 2.2208 -0.347933 20.9818 19.3752
515 1 -1.1104 0.918526 16.605 20.7559
503 1 -1.1104 1.05165 13.8569 20.7926
505 1 -1.1104 0.944386 19.5363 20.828
529 1 -1.1104 3.76941 16.6606 20.9812
8815 2 2.2208 10.8666 -4.25062 16.5863
357 2 2.2208 8.03687 21.1393 27.8216
506 1 -1.1104 6.40173 14.1125 15.061
516 1 -1.1104 6.54378 16.8101 15.1616
500 1 -1.1104 6.71011 13.8904 17.8146
508 1 -1.1104 6.56809 19.4089 15.0985
501 1 -1.1104 6.62311 19.4909 17.8876
511 1 -1.1104 6.4975 16.7208 17.955
533 2 2.2208 10.6713 18.1127 16.4067
534 1 -1.1104 12.1689 14.0186 17.9718
535 1 -1.1104 12.1456 19.5316 17.8364
536 1 -1.1104 12.3299 13.887 15.1786
538 1 -1.1104 12.079 19.4071 14.9927
540 1 -1.1104 11.9984 16.8098 17.9604
541 2 2.2208 10.6884 15.4352 19.3151
542 2 2.2208 10.7019 20.9967 19.3142
543 1 -1.1104 12.1631 16.5341 15.1225
545 1 -1.1104 9.37444 13.9622 18.0708
546 1 -1.1104 9.42316 19.57 18.0274
547 2 2.2208 8.00734 18.2033 19.3095
548 1 -1.1104 9.42148 14.032 15.283
550 1 -1.1104 9.20045 19.6031 15.148
552 2 2.2208 7.87235 15.2399 16.4864
553 2 2.2208 7.98536 20.9275 16.6155
554 1 -1.1104 9.37468 16.8088 17.9361
555 1 -1.1104 9.47475 16.7449 15.0065
517 1 -1.1104 6.69282 16.7184 20.9341
549 1 -1.1104 9.36191 13.9035 20.7959
556 1 -1.1104 9.42401 16.7987 20.8421
551 1 -1.1104 9.48641 19.7518 20.8242
509 1 -1.1104 6.60574 19.4387 20.6482
544 1 -1.1104 12.1983 16.8251 20.7916
537 1 -1.1104 12.1399 14.1046 20.784
364 1 -1.1104 0.942313 -2.67278 20.8839
9250 2 2.2208 -0.429536 21.0284 24.8898
390 1 -1.1104 3.8236 -0.0913642 20.8395
561 2 2.2208 5.29304 1.40875 22.2288
562 1 -1.1104 1.04001 -2.81121 23.6641
563 1 -1.1104 0.974524 2.80864 23.5519
566 1 -1.1104 0.914277 -2.91622 26.3155
567 1 -1.1104 1.05481 2.69328 26.3635
570 1 -1.1104 0.859844 0.0451621 23.4473
572 2 2.2208 5.07993 -1.32049 25.0886
574 1 -1.1104 0.847543 -0.186947 26.2735
576 1 -1.1104 3.72533 -2.88555 23.6515
577 1 -1.1104 3.62642 2.93666 23.5394
578 2 2.2208 2.24312 1.3173 24.9025
579 1 -1.1104 3.77384 -2.76932 26.3544
580 1 -1.1104 3.61169 2.85568 26.3745
581 2 2.2208 2.44148 -1.40142 22.2464
583 1 -1.1104 3.6392 0.0959768 23.687
584 1 -1.1104 3.68859 0.0645986 26.3886
582 2 2.2208 2.30145 4.20975 22.1655
573 2 2.2208 5.04901 4.12955 25.0386
596 2 2.2208 -0.401435 4.23665 25.0191
594 2 2.2208 -0.414329 -1.37437 24.8327
595 2 2.2208 -0.443219 1.45381 22.1789
9218 2 2.2208 -0.415466 1.35916 27.7064
338 2 2.2208 2.4182 -1.41893 27.7174
337 2 2.2208 5.17671 1.46437 27.8226
392 2 2.2208 13.6863 9.69518 22.2589
378 1 -1.1104 6.64505 -0.146812 20.888
618 2 2.2208 -0.438991 12.4855 16.4954
568 1 -1.1104 6.61274 -2.75437 26.3695
368 1 -1.1104 6.67283 -2.81877 20.6864
419 1 -1.1104 9.34282 2.68964 20.7955
571 1 -1.1104 6.52966 -0.0865891 23.6552
565 1 -1.1104 6.62433 2.65743 23.8367
575 1 -1.1104 6.5534 0.0229937 26.4996
569 1 -1.1104 6.4211 2.77919 26.5305
564 1 -1.1104 6.57259 -2.8447 23.5321
597 2 2.2208 10.9125 1.36378 22.1727
598 1 -1.1104 12.0951 -2.90738 23.6819
599 1 -1.1104 12.2594 2.69875 23.603
600 1 -1.1104 12.2569 -2.88669 26.427
601 1 -1.1104 12.1118 2.79375 26.3306
602 1 -1.1104 12.3123 0.00551176 23.7153
603 2 2.2208 10.7619 -1.35063 24.9752
604 2 2.2208 10.7752 4.13046 24.9981
605 1 -1.1104 12.0929 0.0231095 26.3546
606 1 -1.1104 9.52771 -2.89407 23.5084
607 1 -1.1104 9.48667 2.74823 23.4661
608 2 2.2208 8.02914 1.33486 25.0038
609 1 -1.1104 9.40163 -2.70866 26.4509
610 1 -1.1104 9.28767 2.62877 26.4505
611 2 2.2208 8.11242 -1.43857 22.155
613 1 -1.1104 9.38928 -0.0609227 23.6146
614 1 -1.1104 9.26433 -0.0554225 26.3597
612 2 2.2208 7.8974 4.13923 22.1477
346 2 2.2208 7.82789 4.12487 27.8947
344 2 2.2208 10.7765 1.3913 27.8387
9188 2 2.2208 -0.475354 7.02172 27.8665
391 2 2.2208 -0.44477 6.93681 22.2541
464 1 -1.1104 3.69777 5.514 20.8297
353 2 2.2208 10.6805 18.1204 27.9403
495 1 -1.1104 6.57217 19.6119 26.4175
626 2 2.2208 5.04495 6.97517 22.1443
627 2 2.2208 5.16704 12.5144 22.1753
628 1 -1.1104 0.945093 8.42912 23.6369
630 1 -1.1104 0.929911 8.39874 26.3405
632 1 -1.1104 1.02242 5.57454 23.5919
633 1 -1.1104 1.02687 11.1296 23.6771
636 2 2.2208 5.24675 9.7396 25.0524
637 1 -1.1104 0.976668 5.62191 26.515
638 1 -1.1104 0.830326 11.1504 26.3497
641 1 -1.1104 3.69947 8.42383 23.4864
642 2 2.2208 2.39211 7.06066 24.9738
643 2 2.2208 2.29881 12.4985 25.1157
644 1 -1.1104 3.68617 8.54976 26.3798
645 2 2.2208 2.35914 9.73164 22.1638
646 1 -1.1104 3.69476 5.51966 23.6486
647 1 -1.1104 3.92605 11.2205 23.6206
648 1 -1.1104 3.77869 5.6773 26.303
649 1 -1.1104 3.81864 11.1749 26.4523
635 1 -1.1104 6.60876 11.1623 23.6861
9210 2 2.2208 -0.404543 12.5433 27.7441
350 2 2.2208 2.2922 9.7622 27.723
560 1 -1.1104 11.988 19.557 23.4661
454 1 -1.1104 6.64712 11.0004 20.8598
474 1 -1.1104 12.1707 8.33706 20.9007
640 1 -1.1104 6.63679 11.0377 26.3014
639 1 -1.1104 6.54854 5.5158 26.4379
629 1 -1.1104 6.56823 8.30165 23.6165
634 1 -1.1104 6.46681 5.47505 23.5881
631 1 -1.1104 6.57519 8.39724 26.4465
657 1 -1.1104 9.45589 11.0254 26.537
658 1 -1.1104 9.35766 5.58799 26.4444
659 1 -1.1104 9.39203 11.2393 23.6454
660 1 -1.1104 9.31083 5.50961 23.5513
661 2 2.2208 7.96042 9.71802 22.2942
662 1 -1.1104 9.30669 8.31295 26.3335
663 2 2.2208 7.99338 12.5354 25.0192
664 2 2.2208 7.96978 6.80717 24.9847
665 2 2.2208 10.7037 6.85486 22.3644
666 2 2.2208 10.7937 12.4329 22.2088
667 1 -1.1104 12.2236 8.28748 23.7772
668 1 -1.1104 12.2191 8.40588 26.4465
669 1 -1.1104 12.1045 5.54829 23.6859
670 1 -1.1104 12.1676 11.115 23.7257
671 2 2.2208 10.799 9.76874 25.074
672 1 -1.1104 12.1571 5.55078 26.5539
673 1 -1.1104 12.2199 11.2115 26.4265
674 1 -1.1104 9.32669 8.43483 23.7734
354 2 2.2208 10.7206 6.92531 27.9093
355 2 2.2208 8.02697 9.73306 27.7931
507 1 -1.1104 6.59814 14.0097 20.7054
341 2 2.2208 5.11746 18.1679 27.8297
559 2 2.2208 -0.357416 18.2264 22.2294
587 2 2.2208 2.30208 15.3678 22.3263
590 2 2.2208 2.50076 21.0492 22.0522
615 1 -1.1104 3.75179 16.8421 23.6721
616 1 -1.1104 1.00474 16.8541 23.4992
619 1 -1.1104 3.60378 14.0747 26.4245
622 1 -1.1104 3.7306 16.7824 26.4876
650 2 2.2208 2.30985 18.3076 24.9925
651 1 -1.1104 3.71251 19.6671 26.4026
652 2 2.2208 5.20974 18.179 22.235
654 1 -1.1104 0.881149 13.9274 23.6588
656 1 -1.1104 0.954585 19.6866 23.5169
676 2 2.2208 5.11682 15.4113 24.9571
677 2 2.2208 5.23438 21.0341 25.0008
681 1 -1.1104 3.64564 19.578 23.5601
683 1 -1.1104 3.69282 14.034 23.7909
685 1 -1.1104 0.840929 19.6578 26.3522
686 1 -1.1104 0.990706 16.8725 26.3883
687 1 -1.1104 0.849983 13.9301 26.3406
682 1 -1.1104 6.54441 14.0006 26.2426
340 2 2.2208 2.29214 15.4936 27.8336
342 2 2.2208 2.44752 21.0094 27.7431
400 1 -1.1104 12.0548 14.1001 26.4028
532 2 2.2208 7.87218 21.0114 22.1182
557 1 -1.1104 9.40256 16.8999 23.5966
684 1 -1.1104 6.55046 16.7399 26.4816
617 1 -1.1104 6.47873 16.7303 23.7295
586 2 2.2208 10.6424 18.2659 22.1673
496 1 -1.1104 9.30397 13.9039 26.4176
431 1 -1.1104 12.0327 16.8383 23.6435
679 1 -1.1104 6.48829 19.5861 23.5584
425 1 -1.1104 12.0732 19.6151 26.4218
530 1 -1.1104 9.24208 19.5724 26.4109
539 1 -1.1104 12.2403 19.7775 20.7031
469 1 -1.1104 9.20523 19.6502 23.5573
531 2 2.2208 8.03786 15.1855 22.3156
468 1 -1.1104 9.45253 13.9911 23.6379
433 2 2.2208 10.8261 20.8917 24.99
494 2 2.2208 8.00753 18.2583 25.1038
432 2 2.2208 10.7234 15.5287 25.0281
352 2 2.2208 7.82476 15.345 27.8174
467 1 -1.1104 12.0346 16.8537 26.421
558 1 -1.1104 9.33092 16.7754 26.5446
675 1 -1.1104 6.55349 13.9159 23.5748
585 1 -1.1104 12.3054 13.9841 23.5428
8836 2 2.2208 5.28025 -4.22738 16.57
8465 2 2.2208 5.11606 -4.05495 27.7991
339 2 2.2208 2.38076 4.26094 27.8086
345 2 2.2208 8.02744 -1.40651 27.8076
351 2 2.2208 5.13093 12.6461 27.8197
349 2 2.2208 5.16705 7.0362 27.742
356 2 2.2208 10.8048 12.6686 27.8415
8473 2 2.2208 2.35746 -4.34718 13.6615
9209 2 2.2208 13.5412 15.4836 27.7686
317 2 2.2208 2.34922 1.38896 13.6507
319 2 2.2208 5.11475 4.20884 13.7528
332 2 2.2208 5.06219 15.4011 13.7352
688 2 2.2208 5.16726 23.761 5.32967
689 2 2.2208 5.12629 29.4464 5.19076
690 1 -1.1104 0.784767 25.1573 1.026
691 1 -1.1104 0.903389 25.3963 4.00036
692 1 -1.1104 1.03044 22.3345 1.19099
693 1 -1.1104 0.902268 27.998 1.26084
694 2 2.2208 5.15751 26.6206 2.6282
695 1 -1.1104 0.814172 22.3635 4.04527
696 1 -1.1104 1.01991 28.1096 3.96791
697 1 -1.1104 3.58198 25.218 1.18679
698 2 2.2208 2.27926 23.8629 2.52839
699 2 2.2208 2.45019 29.3667 2.45542
700 1 -1.1104 3.66353 25.0693 3.95203
701 2 2.2208 2.33239 26.5157 5.42059
702 1 -1.1104 3.7204 22.344 1.05129
703 1 -1.1104 3.80826 28.1461 1.00535
704 1 -1.1104 3.63981 22.3582 3.9282
705 1 -1.1104 3.76062 27.936 3.78952
835 1 -1.1104 3.74794 25.2111 6.70816
1555 1 -1.1104 9.20794 47.674 6.80908
9838 2 2.2208 -0.329366 29.3606 5.2078
9841 2 2.2208 -0.467029 26.5966 2.51848
836 1 -1.1104 3.67895 22.4003 6.77589
837 1 -1.1104 3.66576 27.9972 6.69426
714 1 -1.1104 6.57358 28.2049 4.13307
1013 2 2.2208 5.31818 29.5033 -0.307286
831 1 -1.1104 0.726182 22.4441 6.85311
712 1 -1.1104 6.65209 28.0077 1.28692
709 1 -1.1104 6.54339 25.2299 1.19288
711 1 -1.1104 6.55151 22.5299 1.0818
710 1 -1.1104 6.58085 25.173 4.02209
713 1 -1.1104 6.58125 22.5793 3.95535
715 2 2.2208 10.732 23.7413 5.29444
716 2 2.2208 10.6838 29.3776 5.37852
717 1 -1.1104 12.2899 25.3188 1.33021
718 1 -1.1104 12.1978 25.3485 4.07094
719 1 -1.1104 12.1407 22.3765 1.11224
720 1 -1.1104 12.2131 28.1416 1.16473
721 2 2.2208 10.7639 26.5381 2.59918
722 1 -1.1104 12.2276 22.4684 3.77583
723 1 -1.1104 12.2111 27.9886 3.92168
724 1 -1.1104 9.37353 25.1178 1.19196
725 2 2.2208 7.90412 23.7348 2.56227
726 2 2.2208 8.06018 29.5565 2.56442
727 1 -1.1104 9.35525 24.9962 3.77665
728 2 2.2208 7.89643 26.5091 5.37432
729 1 -1.1104 9.31735 22.3758 1.0738
730 1 -1.1104 9.36854 27.9481 1.30826
731 1 -1.1104 9.33422 22.286 3.9714
732 1 -1.1104 9.25362 27.8443 3.94749
863 1 -1.1104 12.0036 22.2655 6.53372
830 1 -1.1104 6.55688 25.2194 6.71417
833 1 -1.1104 6.50189 22.3786 6.81616
866 1 -1.1104 9.23437 22.3892 6.82842
706 2 2.2208 10.7642 40.6268 11.0037
834 1 -1.1104 6.41044 28.083 6.76112
865 1 -1.1104 9.39866 25.1443 6.65026
862 1 -1.1104 12.11 25.1717 6.67118
867 1 -1.1104 9.28159 27.9456 6.79643
864 1 -1.1104 12.0934 27.9132 6.73844
736 2 2.2208 5.18759 34.9953 5.3411
737 1 -1.1104 0.836376 30.7234 1.01312
738 1 -1.1104 0.884675 36.4021 0.969052
740 1 -1.1104 0.950878 30.7454 3.74626
741 1 -1.1104 1.02533 36.376 3.89242
743 1 -1.1104 0.983204 33.6282 1.1557
744 2 2.2208 5.18729 32.167 2.48765
745 2 2.2208 5.12952 37.71 2.58179
746 1 -1.1104 0.793296 33.4476 3.95614
748 1 -1.1104 3.81129 30.7512 1.1079
749 1 -1.1104 3.70924 36.3048 1.21207
750 2 2.2208 2.29639 34.9841 2.51208
751 1 -1.1104 3.73143 30.8283 3.77879
752 1 -1.1104 3.70786 36.3465 3.97823
753 2 2.2208 2.31569 32.17 5.23424
754 2 2.2208 2.35801 37.6593 5.34782
755 1 -1.1104 3.76145 33.7185 1.20068
756 1 -1.1104 3.65657 33.6619 3.81058
9846 2 2.2208 -0.46694 32.2178 2.46362
887 1 -1.1104 1.06835 36.3672 6.77353
9847 2 2.2208 -0.424728 34.9421 5.27894
886 1 -1.1104 1.04218 30.8203 6.68105
948 1 -1.1104 6.6326 45.0046 9.52102
1295 2 2.2208 2.39233 32.1504 -0.27124
1368 1 -1.1104 12.2768 47.3969 1.00663
1020 2 2.2208 7.91997 37.8183 -0.235821
739 1 -1.1104 6.45399 36.5129 1.09482
760 1 -1.1104 6.56264 30.8992 1.0866
762 1 -1.1104 6.60416 33.6619 1.13445
742 1 -1.1104 6.4632 36.36 3.79992
747 1 -1.1104 6.58631 33.5706 3.98915
761 1 -1.1104 6.78038 30.9775 3.92412
888 1 -1.1104 6.56151 30.7647 6.68498
763 2 2.2208 10.8699 34.8843 5.29286
764 1 -1.1104 12.2221 30.995 1.0387
765 1 -1.1104 12.2086 36.3466 1.05919