ITEM: TIMESTEP
70000
ITEM: NUMBER OF ATOMS
17910
ITEM: BOX BOUNDS pp pp pp
-3.6243920243028660e-01 2.7702439202430497e+01
-4.2725151742894827e+00 3.3235251517428475e+02
-3.5830378053070794e-01 2.7698303780530466e+01
ITEM: ATOMS id type q x y z
1 2 2.2208 5.46541 1.51784 5.17082
2 1 -1.1104 1.23465 -2.74612 0.812844
3 1 -1.1104 1.13945 2.92363 1.09087
6 1 -1.1104 1.20048 -2.86985 3.82447
7 1 -1.1104 1.17361 2.74067 3.79971
10 1 -1.1104 1.01293 -0.0487054 1.03079
12 2 2.2208 5.42649 -1.3813 2.38798
13 2 2.2208 5.46998 4.23672 2.48974
14 1 -1.1104 1.3416 -0.158134 3.81728
16 1 -1.1104 3.97305 -2.88725 1.08445
17 1 -1.1104 3.99066 2.82613 0.877437
18 2 2.2208 2.58144 1.30044 2.47437
19 1 -1.1104 4.10044 -2.84591 3.82677
20 1 -1.1104 4.01564 2.79424 3.78062
21 2 2.2208 2.80525 -1.43484 5.28276
22 2 2.2208 2.59232 4.21433 5.2708
23 1 -1.1104 3.91436 -0.0597644 1.04727
24 1 -1.1104 4.06492 0.0459913 3.83666
9174 2 2.2208 -0.207669 -1.47112 2.3566
9177 2 2.2208 -0.302061 4.11596 2.51697
166 1 -1.1104 1.34077 -2.8222 6.49425
8454 2 2.2208 -0.123276 -4.37434 10.8773
9175 2 2.2208 -0.0380596 1.19475 5.17787
233 2 2.2208 -0.24301 18.346 10.9251
347 2 2.2208 13.7732 12.6217 13.5381
8449 2 2.2208 8.28534 -4.24032 2.44044
8450 2 2.2208 11.0632 -4.27564 5.30654
204 1 -1.1104 9.54367 16.8041 12.2417
169 1 -1.1104 6.7992 2.72215 6.78079
9 1 -1.1104 6.93679 2.96678 3.90011
4 1 -1.1104 6.96876 -2.69627 0.916466
15 1 -1.1104 6.89561 0.185862 3.88292
8 1 -1.1104 6.82683 -2.74434 3.87817
5 1 -1.1104 6.75822 2.92927 1.08459
11 1 -1.1104 6.73549 0.0451393 1.06825
31 2 2.2208 11.0458 1.29846 5.19876
32 1 -1.1104 12.2936 -2.80071 0.959556
33 1 -1.1104 12.4726 2.84323 0.895703
34 1 -1.1104 12.3924 -2.66993 3.80909
35 1 -1.1104 12.5834 2.75082 3.81632
36 1 -1.1104 12.4699 0.106436 0.940482
37 2 2.2208 11.1013 -1.33151 2.38856
39 1 -1.1104 12.5234 -0.00294152 3.87178
40 1 -1.1104 9.58488 -2.77655 1.00437
41 1 -1.1104 9.44154 2.82259 1.15719
42 2 2.2208 8.19245 1.45918 2.44616
43 1 -1.1104 9.51221 -2.96712 3.8082
44 1 -1.1104 9.78933 2.8275 3.74957
45 2 2.2208 8.2869 -1.35827 5.24653
47 1 -1.1104 9.51568 0.00701251 0.945097
48 1 -1.1104 9.68157 -0.00552444 3.85308
38 2 2.2208 11.0319 4.34363 2.5027
46 2 2.2208 8.3131 4.10902 5.28282
296 1 -1.1104 6.80482 19.7914 12.287
306 1 -1.1104 6.90437 17.0266 12.178
168 1 -1.1104 6.76258 -2.6963 6.59537
206 1 -1.1104 12.2955 2.8375 6.66814
209 1 -1.1104 9.57247 2.58681 6.49436
54 2 2.2208 5.39314 6.94497 5.34949
55 2 2.2208 5.41567 12.5437 5.27837
56 1 -1.1104 1.10947 8.42324 1.02221
58 1 -1.1104 1.23256 8.22362 3.94026
60 1 -1.1104 1.06137 5.68103 0.929325
61 1 -1.1104 1.02264 11.1896 1.06705
66 2 2.2208 5.26644 9.82597 2.55373
67 1 -1.1104 1.25347 5.50482 3.80403
68 1 -1.1104 1.20152 11.2271 3.96576
71 1 -1.1104 3.79298 8.38439 1.08215
72 2 2.2208 2.53032 6.94236 2.53631
73 2 2.2208 2.54616 12.582 2.49976
74 1 -1.1104 4.03326 8.36326 3.91311
75 2 2.2208 2.74504 9.78477 5.34989
76 1 -1.1104 3.92461 5.4945 1.10286
77 1 -1.1104 3.6662 11.0788 1.08645
79 1 -1.1104 4.0774 5.57279 4.04611
80 1 -1.1104 4.01142 11.2241 3.89498
9180 2 2.2208 -0.205824 9.86104 2.52882
9179 2 2.2208 -0.143432 6.96504 5.30008
8446 2 2.2208 2.61886 -4.32676 2.51669
78 1 -1.1104 4.08379 11.2657 6.51497
69 1 -1.1104 6.81932 5.70738 3.9623
137 1 -1.1104 9.56725 19.8122 12.2629
288 1 -1.1104 6.72061 19.716 9.33785
135 1 -1.1104 12.2963 16.6854 9.41227
8453 2 2.2208 5.51541 -4.17254 10.8747
59 1 -1.1104 6.69683 8.47008 3.92009
57 1 -1.1104 6.69488 8.45843 1.26132
70 1 -1.1104 6.90905 11.1707 3.82618
63 1 -1.1104 6.72119 5.64773 1.12912
64 1 -1.1104 6.54016 11.0544 0.940843
84 2 2.2208 11.0533 7.00885 5.20705
85 2 2.2208 10.9912 12.6423 5.20567
86 1 -1.1104 12.5072 8.45198 0.951415
87 1 -1.1104 12.3782 8.41162 3.77805
88 1 -1.1104 12.3947 5.65189 1.16931
89 1 -1.1104 12.4819 11.1522 1.06902
91 2 2.2208 10.9516 9.94451 2.3876
92 1 -1.1104 12.3638 5.55176 3.84128
93 1 -1.1104 12.4413 11.2716 3.75913
94 1 -1.1104 9.67201 8.394 1.06789
95 2 2.2208 8.15931 7.09908 2.46414
96 2 2.2208 8.15908 12.5559 2.43863
97 1 -1.1104 9.57377 8.46494 3.93448
98 2 2.2208 8.18063 9.67284 5.20435
99 1 -1.1104 9.58156 5.49625 0.999749
100 1 -1.1104 9.51423 11.1201 1.07762
102 1 -1.1104 9.53176 5.59047 3.85126
103 1 -1.1104 9.67552 11.272 3.92637
231 1 -1.1104 9.50369 16.7523 9.5003
269 1 -1.1104 9.68249 5.45092 6.52443
90 1 -1.1104 12.5229 11.2541 6.76436
101 1 -1.1104 9.78349 11.1406 6.66247
266 1 -1.1104 12.5067 5.71874 6.66027
267 1 -1.1104 9.5839 8.39468 6.78018
9042 2 2.2208 -0.349586 15.4253 2.60426
26 2 2.2208 11.0401 18.2107 10.8437
106 2 2.2208 5.49559 18.2371 5.18802
107 1 -1.1104 1.23485 13.9864 1.05307
109 1 -1.1104 1.23337 19.6564 1.00844
113 1 -1.1104 1.10429 14.1114 3.72069
114 1 -1.1104 1.26123 19.4964 3.77884
116 1 -1.1104 1.05528 16.8107 1.1622
119 2 2.2208 5.34055 15.3613 2.40206
120 2 2.2208 5.48963 21.0229 2.48963
121 1 -1.1104 1.08723 16.8911 3.90187
123 1 -1.1104 3.97992 13.9228 1.03768
125 1 -1.1104 3.99755 19.6264 1.10321
127 2 2.2208 2.6056 18.1478 2.37443
128 1 -1.1104 3.89688 14.0355 3.86976
129 1 -1.1104 4.02821 19.6035 3.87063
130 2 2.2208 2.51124 15.5375 5.29199
131 2 2.2208 2.65068 21.0078 5.19168
132 1 -1.1104 3.92319 16.7491 1.024
134 1 -1.1104 3.97054 16.9091 3.87428
124 1 -1.1104 3.88587 14.1367 6.5789
8455 2 2.2208 8.21598 -4.22516 8.10436
108 1 -1.1104 1.04794 14.0723 6.50474
302 1 -1.1104 1.06844 19.6849 6.65862
8909 2 2.2208 -0.244825 18.3729 5.16485
83 1 -1.1104 12.2811 16.929 12.2924
165 2 2.2208 8.16816 18.3117 8.03999
140 1 -1.1104 6.78818 16.7446 1.09618
138 1 -1.1104 6.89478 19.5038 1.13221
122 1 -1.1104 6.82711 16.7934 3.76659
117 1 -1.1104 1.29426 16.7999 6.91726
115 1 -1.1104 6.73922 13.9789 3.84819
110 1 -1.1104 6.66289 13.9792 1.03755
139 1 -1.1104 6.98895 19.7051 3.8925
111 1 -1.1104 6.66209 13.9221 6.65617
141 2 2.2208 11.1014 18.3045 5.16081
142 1 -1.1104 12.3875 14.1304 1.04653
144 1 -1.1104 12.5303 19.6002 0.997625
146 1 -1.1104 12.4503 14.0199 3.80286
147 1 -1.1104 12.5336 19.7938 3.83657
148 1 -1.1104 12.4185 16.8775 1.22591
150 2 2.2208 11.0483 15.4882 2.52134
151 2 2.2208 11.0032 21.0397 2.35108
152 1 -1.1104 12.3687 16.9305 3.86677
153 1 -1.1104 9.56612 13.8708 1.18879
155 1 -1.1104 9.55651 19.6087 0.96901
157 2 2.2208 8.25589 18.2478 2.39716
158 1 -1.1104 9.5989 14.0689 3.73547
159 1 -1.1104 9.78407 19.6493 3.75477
160 2 2.2208 8.16991 15.4076 5.14521
161 2 2.2208 8.34386 21.1167 5.16946
162 1 -1.1104 9.66152 16.7433 1.11388
164 1 -1.1104 9.70662 16.8446 3.85124
163 1 -1.1104 9.80896 17.0989 6.68041
154 1 -1.1104 9.44184 14.0452 6.66349
112 1 -1.1104 6.72584 19.7577 6.59745
8908 2 2.2208 13.9487 18.4132 2.39951
156 1 -1.1104 9.76608 19.9181 6.47205
143 1 -1.1104 12.237 14.0435 6.53988
173 1 -1.1104 4.1262 2.74133 6.5902
172 1 -1.1104 4.01387 -2.83904 6.79375
167 1 -1.1104 1.22864 2.89234 6.50062
170 1 -1.1104 1.27073 0.0227253 6.72062
201 2 2.2208 -0.293943 1.39082 10.8319
82 1 -1.1104 12.348 19.5753 9.35724
200 2 2.2208 0.00407853 -1.40076 8.04503
174 1 -1.1104 4.00269 0.0110173 6.62416
199 2 2.2208 -0.304967 4.22547 8.06229
175 2 2.2208 5.40615 1.31538 10.8303
176 1 -1.1104 1.13703 -2.90031 12.3307
177 1 -1.1104 1.21473 2.79754 12.1621
180 1 -1.1104 1.25369 -2.91955 9.42809
181 1 -1.1104 1.22879 2.76607 9.33214
184 1 -1.1104 1.04204 -0.097967 12.1824
186 2 2.2208 5.34334 -1.36301 7.94711
187 2 2.2208 5.55502 4.09223 8.12694
188 1 -1.1104 1.22407 -0.098888 9.4536
190 1 -1.1104 3.9814 -2.84156 12.2412
191 1 -1.1104 3.94268 2.53121 12.1275
192 2 2.2208 2.72579 1.37374 8.06975
193 1 -1.1104 4.08341 -2.81027 9.51163
194 1 -1.1104 4.08868 2.80001 9.31362
195 2 2.2208 2.58877 -1.48002 10.8879
197 1 -1.1104 3.94882 -0.0705179 12.233
198 1 -1.1104 3.99373 -0.0771717 9.56156
196 2 2.2208 2.654 4.25907 10.8
27 1 -1.1104 12.3997 14.049 12.0497
145 1 -1.1104 12.5318 19.6357 6.56908
290 1 -1.1104 6.81879 13.9902 9.36598
171 1 -1.1104 6.9968 0.000638037 6.75483
208 1 -1.1104 9.76103 -2.74692 6.68365
28 2 2.2208 13.7876 21.1623 10.7585
210 1 -1.1104 9.7296 -0.174595 6.61189
207 1 -1.1104 12.3506 0.056818 6.66896
205 1 -1.1104 12.5606 -2.68895 6.61944
179 1 -1.1104 6.84591 2.82744 12.2036
189 1 -1.1104 6.77873 -0.148891 9.38582
182 1 -1.1104 6.89136 -2.80937 9.36103
183 1 -1.1104 6.9208 2.74767 9.46677
178 1 -1.1104 6.90764 -2.75647 12.238
185 1 -1.1104 6.8355 0.0185957 12.2554
211 2 2.2208 10.9792 1.44713 10.8892
212 1 -1.1104 12.502 -2.73246 12.2612
213 1 -1.1104 12.4104 2.76646 12.2571
214 1 -1.1104 12.6545 -2.85908 9.47195
215 1 -1.1104 12.3219 2.79725 9.38498
216 1 -1.1104 12.3331 -0.00817602 12.1366
217 2 2.2208 11.0563 -1.30911 8.05717
218 2 2.2208 10.9762 4.04866 7.94642
219 1 -1.1104 12.5449 0.0877713 9.55022
220 1 -1.1104 9.70247 -2.81399 12.1769
221 1 -1.1104 9.56037 2.8257 12.2535
222 2 2.2208 8.24773 1.32063 8.08743
223 1 -1.1104 9.69335 -2.81851 9.44999
224 1 -1.1104 9.61083 2.88934 9.49455
225 2 2.2208 8.32405 -1.35142 10.781
226 2 2.2208 8.27575 4.17577 10.9134
227 1 -1.1104 9.5995 -0.143175 12.2618
228 1 -1.1104 9.70171 0.170602 9.39024
202 2 2.2208 8.12519 15.4065 10.8431
49 1 -1.1104 12.4515 19.6226 12.1319
234 1 -1.1104 1.37385 8.4419 6.66018
62 1 -1.1104 1.19092 11.232 6.68489
236 1 -1.1104 1.25086 5.67813 6.6139
29 2 2.2208 -0.241124 7.08996 10.9858
30 2 2.2208 -0.153674 12.6996 10.8268
239 1 -1.1104 4.03802 5.67709 6.74831
238 1 -1.1104 4.01293 8.46344 6.65767
240 2 2.2208 5.43798 6.97504 10.9093
241 2 2.2208 5.47431 12.6908 10.8696
242 1 -1.1104 1.15141 8.45153 12.3985
244 1 -1.1104 1.24293 8.44464 9.471
246 1 -1.1104 1.34622 5.58731 12.2859
247 1 -1.1104 1.29559 11.2355 12.2744
250 2 2.2208 5.44297 9.84137 8.12637
251 1 -1.1104 1.13507 5.62492 9.61143
252 1 -1.1104 1.04863 11.3538 9.40708
255 1 -1.1104 3.96864 8.61897 12.4323
256 2 2.2208 2.60223 6.89989 8.23363
257 2 2.2208 2.59092 12.5678 8.08678
258 1 -1.1104 4.06067 8.29527 9.64295
259 2 2.2208 2.59888 9.85231 10.9484
260 1 -1.1104 4.20088 5.57303 12.1531
261 1 -1.1104 3.98265 11.452 12.2224
262 1 -1.1104 4.05376 5.56121 9.59225
263 1 -1.1104 3.91366 11.244 9.50338
9110 2 2.2208 -0.264288 9.88582 8.05919
243 1 -1.1104 6.65727 8.44976 12.3227
289 1 -1.1104 6.80422 16.8661 9.35066
265 1 -1.1104 12.4722 8.52115 6.53081
235 1 -1.1104 6.85337 8.29925 6.62869
248 1 -1.1104 6.90343 5.58597 12.4193
65 1 -1.1104 6.79038 11.1414 6.67629
237 1 -1.1104 6.94664 5.49134 6.87158
245 1 -1.1104 6.77961 8.36827 9.51829
249 1 -1.1104 6.86865 11.2029 12.2731
253 1 -1.1104 6.87963 5.55185 9.68797
254 1 -1.1104 6.87346 11.221 9.52488
264 1 -1.1104 9.62524 11.3129 9.45882
268 1 -1.1104 9.76094 5.45216 9.46653
270 1 -1.1104 9.68064 11.1776 12.3055
271 1 -1.1104 9.70383 5.73061 12.2789
272 2 2.2208 8.20266 9.70928 10.959
273 1 -1.1104 9.66816 8.33491 9.50582
274 2 2.2208 8.205 12.6148 7.99527
275 2 2.2208 8.29344 6.99302 8.08459
276 2 2.2208 11.1216 6.83836 10.8593
277 2 2.2208 10.9684 12.6384 10.8079
278 1 -1.1104 12.3606 8.43899 12.1059
279 1 -1.1104 12.5149 8.3981 9.3158
280 1 -1.1104 12.5577 5.56992 12.3108
281 1 -1.1104 12.2865 11.2535 12.3816
282 2 2.2208 11.1391 9.83547 8.1015
283 1 -1.1104 12.51 5.54323 9.31133
284 1 -1.1104 12.535 11.3358 9.59665
285 1 -1.1104 9.48686 8.42869 12.4482
329 2 2.2208 8.15697 12.6503 13.7062
328 2 2.2208 10.9175 9.84461 13.6366
133 1 -1.1104 4.24874 16.8913 6.62087
126 1 -1.1104 3.9269 19.5816 6.70961
311 1 -1.1104 9.60178 14.0359 9.35648
8882 2 2.2208 -0.297075 15.5678 8.06793
286 1 -1.1104 4.07991 19.6944 12.3408
287 1 -1.1104 4.04941 14.2875 12.1731
291 1 -1.1104 1.20483 19.7199 9.48135
292 1 -1.1104 1.14884 16.8204 9.50296
293 2 2.2208 5.26423 21.0612 7.97764
294 1 -1.1104 1.24251 14.0374 9.43341
295 2 2.2208 5.42879 15.5023 8.09205
298 1 -1.1104 1.31509 19.8345 12.2708
299 1 -1.1104 1.24687 14.0259 12.2937
300 2 2.2208 5.42192 18.3334 10.8395
301 1 -1.1104 3.94286 19.7316 9.51657
303 2 2.2208 2.57865 18.2132 8.13459
304 1 -1.1104 3.96062 16.9538 9.46846
305 1 -1.1104 4.05478 13.8924 9.40041
307 1 -1.1104 1.20471 16.8648 12.2983
308 1 -1.1104 4.06596 16.9177 12.2268
309 2 2.2208 2.50883 21.0898 10.8633
310 2 2.2208 2.6313 15.4473 10.8197
8883 2 2.2208 -0.179229 21.1611 8.0303
333 2 2.2208 10.9358 21.2141 13.5926
297 1 -1.1104 6.74911 14.238 12.2622
203 2 2.2208 8.06603 21.0948 10.8419
118 1 -1.1104 7.01609 16.8111 6.65752
136 1 -1.1104 9.38451 14.0262 12.1391
105 2 2.2208 11.0333 21.0111 8.05393
104 2 2.2208 10.921 15.4399 7.97887
149 1 -1.1104 12.6342 16.7584 6.76776
81 1 -1.1104 12.3736 13.9884 9.2002
232 1 -1.1104 9.67751 19.5536 9.37284
322 2 2.2208 10.9625 -1.43192 13.6517
327 2 2.2208 8.17241 7.04018 13.8038
326 2 2.2208 2.57844 12.7592 13.7005
8958 2 2.2208 13.8917 21.0526 5.1586
334 2 2.2208 10.9301 15.5142 13.5164
315 2 2.2208 -0.232013 4.22804 13.6525
8467 2 2.2208 -0.166799 -4.31529 -0.445238
317 2 2.2208 2.52317 1.29926 13.5437
323 2 2.2208 11.0723 4.21992 13.7651
8468 2 2.2208 13.8937 -4.2032 13.7191
330 2 2.2208 2.60793 18.2917 13.6462
346 2 2.2208 8.19248 4.09858 -0.287311
319 2 2.2208 5.27402 4.16755 13.6019
335 2 2.2208 8.17803 18.3011 13.6736
331 2 2.2208 5.35185 21.0372 13.6326
354 2 2.2208 11.1177 6.97682 -0.372128
339 2 2.2208 2.40503 4.25816 -0.482164
9218 2 2.2208 -0.251362 1.37178 -0.412995
349 2 2.2208 5.35227 6.98743 -0.394551
350 2 2.2208 2.523 9.77437 -0.307261
9188 2 2.2208 -0.228753 7.03576 -0.430114
358 2 2.2208 5.44517 1.43189 16.3524
359 1 -1.1104 1.28402 -2.71528 17.8803
360 1 -1.1104 1.31648 2.6711 17.8362
363 1 -1.1104 1.25328 -2.74966 15.1004
365 1 -1.1104 1.16433 2.89822 14.9096
371 1 -1.1104 1.2362 0.0263839 17.7939
373 2 2.2208 5.48647 -1.39 19.2346
375 1 -1.1104 1.18295 0.142575 14.9998
379 1 -1.1104 3.97331 -2.76259 17.848
380 1 -1.1104 3.94773 2.79673 17.7683
381 2 2.2208 2.53159 1.43898 19.2878
382 1 -1.1104 4.14023 -2.74053 15.0376
384 1 -1.1104 3.94038 2.69593 14.9975
386 2 2.2208 2.71191 -1.32189 16.5265
387 2 2.2208 2.48845 4.25409 16.4095
388 1 -1.1104 4.13393 0.0620843 17.8552
389 1 -1.1104 4.04927 -0.00813204 14.9666
374 2 2.2208 5.40714 4.14672 19.2061
385 1 -1.1104 4.22114 2.66549 20.5422
397 2 2.2208 -0.389857 4.18707 19.2759
395 2 2.2208 -0.190406 -1.39041 19.298
390 1 -1.1104 4.00212 0.0385292 20.5776
394 2 2.2208 -0.102488 1.3472 16.4112
8825 2 2.2208 2.67418 -4.10098 19.1599
8465 2 2.2208 5.28255 -4.11084 27.696
324 2 2.2208 2.61009 6.99261 13.7906
321 2 2.2208 8.13209 1.4736 13.6839
312 2 2.2208 -0.285351 -1.45517 13.7527
361 1 -1.1104 6.89282 -2.88538 17.8078
370 1 -1.1104 6.84166 2.88499 20.5098
372 1 -1.1104 6.92877 0.0404775 17.8777
367 1 -1.1104 6.79565 -2.73259 14.9417
377 1 -1.1104 6.76992 0.0474333 15.0241
369 1 -1.1104 6.78589 2.86093 14.9917
362 1 -1.1104 6.76447 2.84531 17.7365
401 2 2.2208 10.9595 1.41265 16.4178
402 1 -1.1104 12.347 -2.78701 17.9361
403 1 -1.1104 12.3782 2.73735 17.8243
404 1 -1.1104 12.3853 -2.97894 15.0703
406 1 -1.1104 12.4901 2.84929 15.0613
408 1 -1.1104 12.3224 0.0627513 17.846
409 2 2.2208 10.9226 -1.40556 19.2588
410 2 2.2208 11.0734 4.19996 19.1373
411 1 -1.1104 12.2987 0.0614502 14.969
413 1 -1.1104 9.57345 -2.90828 17.7313
414 1 -1.1104 9.51993 2.89543 17.9072
415 2 2.2208 8.12813 1.45585 19.359
416 1 -1.1104 9.63503 -2.81376 14.8591
418 1 -1.1104 9.61175 2.81582 15.0773
420 2 2.2208 8.17251 -1.33131 16.4496
421 2 2.2208 8.17832 4.39881 16.3668
422 1 -1.1104 9.50556 -0.00587807 17.8381
423 1 -1.1104 9.70371 0.0391766 15.0525
8614 2 2.2208 10.8998 -4.1721 22.0424
8814 2 2.2208 8.18903 -4.26438 19.2889
8815 2 2.2208 11.0011 -4.20493 16.4694
8681 2 2.2208 -0.155369 -4.25649 21.9257
412 1 -1.1104 12.3549 0.0167215 20.7078
417 1 -1.1104 9.57867 -2.74288 20.6636
405 1 -1.1104 12.3833 -2.80053 20.7186
407 1 -1.1104 12.5016 2.7881 20.6356
434 2 2.2208 5.29824 7.03894 16.6306
435 2 2.2208 5.32093 12.6405 16.5867
436 1 -1.1104 1.00264 8.29602 17.982
438 1 -1.1104 1.25733 8.36869 15.1416
442 1 -1.1104 0.974695 5.43224 17.8496
443 1 -1.1104 1.03344 11.2908 17.777
446 2 2.2208 5.32958 9.73922 19.2296
447 1 -1.1104 1.00995 5.55364 15.1655
449 1 -1.1104 1.25147 11.1954 15.1143
455 1 -1.1104 3.90077 8.45797 17.892
456 2 2.2208 2.60589 6.96416 19.3836
457 2 2.2208 2.33488 12.5474 19.3019
458 1 -1.1104 3.98999 8.44625 15.0837
460 2 2.2208 2.60101 9.76326 16.4085
461 1 -1.1104 3.97271 5.64496 17.8443
462 1 -1.1104 3.92787 11.165 18.0462
463 1 -1.1104 3.99622 5.55665 14.9957
465 1 -1.1104 3.99408 11.3802 15.0536
618 2 2.2208 -0.236808 12.5894 16.4328
591 2 2.2208 -0.339072 6.91899 16.5096
316 2 2.2208 5.49105 -1.39475 13.5538
451 1 -1.1104 6.54119 5.62806 15.1278
445 1 -1.1104 6.71547 11.3891 17.9495
437 1 -1.1104 6.67277 8.44446 17.915
453 1 -1.1104 6.68709 11.2354 15.1485
537 1 -1.1104 12.1224 14.0683 20.6853
439 1 -1.1104 1.28469 8.41613 20.7062
559 2 2.2208 -0.306831 18.2816 22.0146
444 1 -1.1104 6.81201 5.64128 17.9228
440 1 -1.1104 6.87774 8.39168 15.1249
470 2 2.2208 11.0383 7.11741 16.576
471 2 2.2208 10.8501 12.6857 16.3732
472 1 -1.1104 12.3412 8.48019 17.8469
473 1 -1.1104 12.3826 8.43141 14.9935
475 1 -1.1104 12.525 5.7404 17.8216
476 1 -1.1104 12.3296 11.1694 17.8337
477 2 2.2208 10.9487 9.88156 19.3418
478 1 -1.1104 12.3831 5.74989 15.0587
480 1 -1.1104 12.3908 11.2019 15.0781
482 1 -1.1104 9.43787 8.36196 17.781
483 2 2.2208 8.1662 7.08569 19.2673
484 2 2.2208 8.09998 12.6326 19.2483
485 1 -1.1104 9.68528 8.43506 15.1702
487 2 2.2208 8.23399 9.82344 16.5247
488 1 -1.1104 9.65281 5.68984 17.9284
489 1 -1.1104 9.58758 11.0724 17.8872
490 1 -1.1104 9.64336 5.69812 15.0057
492 1 -1.1104 9.49716 11.2982 15.0882
491 1 -1.1104 9.70598 5.51126 20.7113
479 1 -1.1104 12.3766 5.69263 20.6112
452 1 -1.1104 6.89283 5.63452 20.6466
496 1 -1.1104 9.53006 13.9329 26.3
474 1 -1.1104 12.3351 8.46924 20.75
481 1 -1.1104 12.3563 11.2429 20.6758
493 1 -1.1104 9.49184 11.271 20.7629
494 2 2.2208 8.22765 18.1592 24.8166
8836 2 2.2208 5.37006 -4.17652 16.3684
497 2 2.2208 5.33896 18.2242 16.5597
498 1 -1.1104 1.14369 14.0697 17.9346
499 1 -1.1104 1.18814 19.6329 17.8918
502 1 -1.1104 1.23226 14.0737 15.0667
504 1 -1.1104 1.13584 19.6461 15.174
510 1 -1.1104 1.13432 16.8658 17.8216
512 2 2.2208 5.2863 15.3657 19.2962
513 2 2.2208 5.36764 20.9765 19.3094
514 1 -1.1104 1.11294 16.8203 15.0827
518 1 -1.1104 3.88537 13.9181 17.9115
519 1 -1.1104 3.88034 19.49 17.9106
520 2 2.2208 2.41444 18.172 19.2846
521 1 -1.1104 3.98331 14.177 15.0964
523 1 -1.1104 3.91921 19.708 15.0768
525 2 2.2208 2.49701 15.4939 16.4231
526 2 2.2208 2.51154 21.0231 16.4966
527 1 -1.1104 3.90209 16.7713 17.8857
528 1 -1.1104 3.89271 16.8954 15.0067
428 2 2.2208 -0.154775 21.0966 19.3003
426 2 2.2208 -0.3157 18.244 16.5418
515 1 -1.1104 0.95421 16.9928 20.7738
506 1 -1.1104 6.76099 13.9687 15.1379
529 1 -1.1104 3.76123 16.7512 20.6416
517 1 -1.1104 6.64532 16.8206 20.6722
509 1 -1.1104 6.87185 19.6537 20.7799
9257 2 2.2208 -0.26521 15.4606 24.9452
511 1 -1.1104 6.67138 16.8554 17.8101
508 1 -1.1104 6.79051 19.5845 15.0014
516 1 -1.1104 6.74693 16.7994 15.0963
500 1 -1.1104 6.76305 14.0577 17.9481
501 1 -1.1104 6.83865 19.5714 17.8635
533 2 2.2208 10.9963 18.3377 16.4317
534 1 -1.1104 12.4288 14.0093 17.9082
535 1 -1.1104 12.4439 19.6464 17.7609
536 1 -1.1104 12.3177 13.9152 14.8466
538 1 -1.1104 12.3537 19.6813 15.0616
540 1 -1.1104 12.1802 16.753 17.9072
541 2 2.2208 10.813 15.3353 19.1887
542 2 2.2208 10.9828 21.0233 19.0305
543 1 -1.1104 12.3941 16.8986 14.987
545 1 -1.1104 9.41391 13.8651 17.8067
546 1 -1.1104 9.55535 19.6637 17.833
547 2 2.2208 8.21563 18.2374 19.2759
548 1 -1.1104 9.50938 14.1065 15.0877
550 1 -1.1104 9.63856 19.727 15.0223
552 2 2.2208 8.11375 15.4347 16.4591
553 2 2.2208 8.12573 21.0599 16.476
554 1 -1.1104 9.38221 16.8708 17.9243
555 1 -1.1104 9.61065 16.8022 15.0763
400 1 -1.1104 12.323 14.1404 26.1847
539 1 -1.1104 12.3943 19.5587 20.5709
544 1 -1.1104 12.2661 16.8683 20.6683
383 1 -1.1104 4.09219 -2.7157 20.5899
376 1 -1.1104 1.11506 0.146249 20.5684
366 1 -1.1104 1.17676 2.89429 20.5123
364 1 -1.1104 1.14542 -2.61326 20.7243
596 2 2.2208 -0.184411 4.17477 24.7983
594 2 2.2208 -0.28582 -1.48513 24.9244
561 2 2.2208 5.36394 1.34998 22.1238
562 1 -1.1104 1.2081 -2.98748 23.4731
563 1 -1.1104 1.20163 2.68494 23.5165
566 1 -1.1104 1.07097 -2.95717 26.1689
567 1 -1.1104 1.03654 2.67082 26.3579
570 1 -1.1104 1.08882 -0.142924 23.5979
572 2 2.2208 5.5403 -1.41026 24.8624
574 1 -1.1104 1.23108 0.0384835 26.2923
576 1 -1.1104 4.04537 -2.78453 23.5328
577 1 -1.1104 3.94807 2.85017 23.3738
578 2 2.2208 2.6359 1.39268 24.8301
579 1 -1.1104 3.91925 -2.85932 26.3035
580 1 -1.1104 3.9264 2.78589 26.1213
581 2 2.2208 2.59338 -1.4441 22.024
583 1 -1.1104 3.98104 0.0385068 23.3752
584 1 -1.1104 4.01077 -0.0193092 26.2259
582 2 2.2208 2.57542 4.17106 22.0217
573 2 2.2208 5.50128 4.22909 24.9029
595 2 2.2208 -0.176727 1.34417 22.0619
8679 2 2.2208 5.43827 -4.17184 22.1586
568 1 -1.1104 6.77217 -2.83816 26.2723
378 1 -1.1104 6.63336 0.104382 20.6653
368 1 -1.1104 6.87181 -2.7445 20.6573
419 1 -1.1104 9.64546 2.82564 20.7665
8612 2 2.2208 8.11891 -4.21618 24.9325
424 1 -1.1104 9.52451 -0.0210836 20.6598
575 1 -1.1104 6.74824 0.0815632 26.2902
571 1 -1.1104 6.88504 0.000709635 23.4052
569 1 -1.1104 6.8093 2.68268 26.2338
565 1 -1.1104 6.70687 2.78897 23.4172
564 1 -1.1104 6.79763 -2.70349 23.4644
597 2 2.2208 11.1009 1.42564 22.0176
598 1 -1.1104 12.3954 -2.81654 23.3906
599 1 -1.1104 12.3732 2.78657 23.4222
600 1 -1.1104 12.3589 -2.84025 26.1418
601 1 -1.1104 12.4135 2.81917 26.0686
602 1 -1.1104 12.4104 0.00383827 23.6465
603 2 2.2208 10.9373 -1.42199 24.9943
604 2 2.2208 11.0012 4.26403 24.7547
605 1 -1.1104 12.438 -0.132713 26.3763
606 1 -1.1104 9.6285 -2.7517 23.5315
607 1 -1.1104 9.49809 2.79579 23.4927
608 2 2.2208 8.17378 1.46026 24.9122
609 1 -1.1104 9.53317 -2.86901 26.4101
610 1 -1.1104 9.5989 2.9173 26.3128
611 2 2.2208 8.12609 -1.48989 22.0806
612 2 2.2208 8.20157 4.15373 21.9185
613 1 -1.1104 9.66199 -0.0915921 23.5036
614 1 -1.1104 9.54634 0.0090141 26.2324
320 2 2.2208 -0.262127 15.465 13.4875
551 1 -1.1104 9.69523 19.5702 20.5882
464 1 -1.1104 3.88241 5.4377 20.6356
466 1 -1.1104 3.81038 10.9028 20.7684
448 1 -1.1104 1.09826 5.60813 20.6751
441 1 -1.1104 6.72829 8.60067 20.7607
459 1 -1.1104 4.09772 8.19991 20.6684
549 1 -1.1104 9.47216 13.9891 20.694
9294 2 2.2208 -0.329404 9.8794 24.9735
450 1 -1.1104 1.05428 11.1224 20.6275
391 2 2.2208 -0.239544 7.02985 22.0416
626 2 2.2208 5.40468 6.85428 22.0874
627 2 2.2208 5.25651 12.5566 22.1652
628 1 -1.1104 0.916415 8.328 23.5701
630 1 -1.1104 1.23003 8.51453 26.2799
632 1 -1.1104 1.22292 5.55931 23.4598
633 1 -1.1104 1.08312 11.198 23.5186
636 2 2.2208 5.24517 9.72867 24.8307
637 1 -1.1104 1.14842 5.62265 26.2413
638 1 -1.1104 1.11877 11.3856 26.2638
641 1 -1.1104 3.87479 8.31037 23.428
642 2 2.2208 2.4716 6.93578 24.8782
643 2 2.2208 2.44458 12.6117 24.912
644 1 -1.1104 3.80837 8.28342 26.1356
645 2 2.2208 2.54172 9.69855 22.2646
646 1 -1.1104 3.8332 5.61552 23.3942
647 1 -1.1104 3.84444 11.2419 23.5335
648 1 -1.1104 3.91737 5.61762 26.2129
649 1 -1.1104 3.89473 11.0485 26.3042
9182 2 2.2208 -0.211157 18.2909 27.7583
454 1 -1.1104 6.68592 11.3182 20.7198
640 1 -1.1104 6.696 11.2231 26.1855
486 1 -1.1104 9.52129 8.31537 20.7567
342 2 2.2208 2.67911 21.1733 27.7189
635 1 -1.1104 6.70693 11.1261 23.5141
634 1 -1.1104 6.72966 5.57336 23.4895
629 1 -1.1104 6.80958 8.4026 23.5503
631 1 -1.1104 6.75253 8.39629 26.3978
639 1 -1.1104 6.7495 5.62167 26.4522
657 1 -1.1104 9.47255 11.2826 26.3167
658 1 -1.1104 9.55701 5.64056 26.3018
659 1 -1.1104 9.59861 11.2557 23.5231
660 1 -1.1104 9.59045 5.57428 23.4419
661 2 2.2208 8.08803 9.84332 22.1731
662 1 -1.1104 9.70135 8.45038 26.2942
663 2 2.2208 8.10126 12.54 24.8254
664 2 2.2208 8.2402 6.96797 24.875
665 2 2.2208 11.032 6.9631 22.1456
666 2 2.2208 10.8955 12.6131 22.1059
667 1 -1.1104 12.556 8.37506 23.5488
668 1 -1.1104 12.5973 8.46377 26.2909
669 1 -1.1104 12.4565 5.65446 23.5003
670 1 -1.1104 12.334 11.1941 23.4355
671 2 2.2208 11.0692 9.803 24.7855
672 1 -1.1104 12.5446 5.5638 26.4731
673 1 -1.1104 12.3131 11.2532 26.2695
674 1 -1.1104 9.56136 8.59094 23.5564
341 2 2.2208 5.37323 18.1287 27.8586
503 1 -1.1104 0.96674 13.9465 20.7237
675 1 -1.1104 6.75753 14.0668 23.5979
524 1 -1.1104 3.94813 19.7886 20.6967
505 1 -1.1104 1.14818 19.6917 20.5983
522 1 -1.1104 3.76219 13.8242 20.7689
9250 2 2.2208 -0.332956 21.0618 24.9407
556 1 -1.1104 9.47453 16.803 20.608
587 2 2.2208 2.51981 15.4426 22.1824
590 2 2.2208 2.49204 21.1259 22.0644
615 1 -1.1104 3.97537 16.8575 23.3726
616 1 -1.1104 1.14527 16.8689 23.4182
619 1 -1.1104 3.97751 13.8816 26.2612
622 1 -1.1104 4.07269 16.7245 26.2599
650 2 2.2208 2.4666 18.2762 24.8785
651 1 -1.1104 3.9727 19.5057 26.3289
652 2 2.2208 5.25656 18.2075 22.1402
654 1 -1.1104 1.1624 14.1227 23.5626
656 1 -1.1104 1.05822 19.6846 23.5068
676 2 2.2208 5.40241 15.524 25.0223
677 2 2.2208 5.31536 20.8761 24.8333
681 1 -1.1104 3.83056 19.576 23.5944
683 1 -1.1104 3.91624 14.0389 23.5211
685 1 -1.1104 1.09214 19.6649 26.1723
686 1 -1.1104 1.18477 16.817 26.3771
687 1 -1.1104 1.19075 14.1023 26.2682
427 2 2.2208 -0.210361 15.5138 19.3042
684 1 -1.1104 6.90601 16.8143 26.4644
679 1 -1.1104 6.60573 19.5767 23.4854
617 1 -1.1104 6.71833 16.7263 23.5126
586 2 2.2208 11.0028 18.1877 22.0336
592 2 2.2208 -0.176995 9.81023 19.2607
557 1 -1.1104 9.63693 16.8013 23.4491
507 1 -1.1104 6.57795 13.981 20.6656
530 1 -1.1104 9.55871 19.5208 26.3171
495 1 -1.1104 6.79869 19.4485 26.2123
682 1 -1.1104 6.79247 14.0794 26.4334
431 1 -1.1104 12.4155 17.0184 23.5193
468 1 -1.1104 9.46561 13.9227 23.5269
585 1 -1.1104 12.3657 14.0499 23.4279
469 1 -1.1104 9.53249 19.5631 23.3992
531 2 2.2208 8.00397 15.3212 22.0343
425 1 -1.1104 12.3959 19.5319 26.3115
432 2 2.2208 10.9906 15.4086 24.8141
433 2 2.2208 11.0112 20.904 24.8894
560 1 -1.1104 12.3475 19.6348 23.4491
558 1 -1.1104 9.65608 16.7384 26.2476
467 1 -1.1104 12.2943 16.7572 26.3524
532 2 2.2208 8.1484 20.9648 22.1104
338 2 2.2208 2.58733 -1.43007 27.5116
655 2 2.2208 -0.314735 12.5515 22.1627
355 2 2.2208 8.27333 9.82204 27.6537
344 2 2.2208 11.0206 1.347 27.6208
345 2 2.2208 8.22066 -1.34081 27.6818
343 2 2.2208 -0.139162 9.87801 13.6858
337 2 2.2208 5.3544 1.35264 27.6784
357 2 2.2208 8.20389 20.9254 27.7308
340 2 2.2208 2.56197 15.388 27.7919
356 2 2.2208 11.0078 12.7655 27.6658
352 2 2.2208 8.14141 15.3817 27.7874
313 2 2.2208 -0.253201 21.038 13.772
353 2 2.2208 10.9955 18.1744 27.7412
351 2 2.2208 5.26096 12.4654 27.7447
332 2 2.2208 5.35622 15.5687 13.567
325 2 2.2208 5.48731 9.92931 13.74
688 2 2.2208 5.41605 23.8479 5.21049
689 2 2.2208 5.23797 29.5311 5.10177
690 1 -1.1104 1.40586 25.3431 1.16139
691 1 -1.1104 1.14865 25.3116 3.83037
692 1 -1.1104 1.30026 22.4464 1.0879
693 1 -1.1104 1.27268 28.2354 0.987511
694 2 2.2208 5.42597 26.6592 2.41366
695 1 -1.1104 1.33412 22.3951 3.80309
696 1 -1.1104 1.05822 28.2257 3.81592
697 1 -1.1104 4.05758 25.25 1.05924
698 2 2.2208 2.66035 23.8764 2.45809
699 2 2.2208 2.63602 29.5058 2.27161
700 1 -1.1104 4.10475 25.2831 3.87043
701 2 2.2208 2.64961 26.7138 5.21483
702 1 -1.1104 4.06998 22.3485 1.03976
703 1 -1.1104 4.24158 28.1917 0.987661
704 1 -1.1104 4.14091 22.2966 3.74655
705 1 -1.1104 3.88601 28.1157 3.7466
9841 2 2.2208 -0.163421 26.7585 2.45211
829 1 -1.1104 1.20588 25.4454 6.65599
9838 2 2.2208 -0.298505 29.4872 5.15898
1368 1 -1.1104 12.4333 47.7204 1.05923
9850 2 2.2208 -0.366879 46.4917 5.23971
833 1 -1.1104 6.68988 22.5841 6.62906
9840 2 2.2208 -0.0448896 23.9378 5.22832
836 1 -1.1104 3.94361 22.4805 6.60419
831 1 -1.1104 1.21614 22.4146 6.6088
832 1 -1.1104 1.12342 28.0136 6.53745
9680 2 2.2208 13.6393 29.5073 8.04437
710 1 -1.1104 6.70443 25.2759 3.80924
713 1 -1.1104 6.94965 22.4489 3.95896
709 1 -1.1104 6.86863 25.3013 1.06949
714 1 -1.1104 6.72186 27.9126 3.79661
711 1 -1.1104 6.8788 22.4504 1.08758
712 1 -1.1104 6.79323 28.0611 0.961833
715 2 2.2208 10.8692 24.002 5.16215
716 2 2.2208 11.0138 29.4653 5.22312
717 1 -1.1104 12.2395 25.2423 0.916354
718 1 -1.1104 12.4373 25.4575 3.66291
719 1 -1.1104 12.2665 22.4417 0.833187
720 1 -1.1104 12.2654 28.1121 1.0119
721 2 2.2208 10.8957 26.7544 2.39523
722 1 -1.1104 12.4581 22.4731 3.61439
723 1 -1.1104 12.4272 28.0164 3.81654
724 1 -1.1104 9.43391 25.2613 0.956287
725 2 2.2208 8.16775 23.9894 2.4508
726 2 2.2208 8.10288 29.5258 2.33763
727 1 -1.1104 9.53858 25.3755 3.8092
728 2 2.2208 8.18692 26.8654 5.23807
729 1 -1.1104 9.57222 22.4737 1.02669
730 1 -1.1104 9.58238 28.1206 0.86515
731 1 -1.1104 9.63147 22.6377 3.82097
732 1 -1.1104 9.57923 28.176 3.83787
9852 2 2.2208 13.788 46.438 2.46546
864 1 -1.1104 12.4265 27.9671 6.53548
862 1 -1.1104 12.4199 25.0896 6.59307
9846 2 2.2208 -0.301958 32.448 2.31755
983 1 -1.1104 9.50596 39.4557 12.2939
736 2 2.2208 5.33956 35.1746 5.26055
737 1 -1.1104 1.19028 30.9245 0.957173
738 1 -1.1104 1.17451 36.5213 0.999302
740 1 -1.1104 1.17588 30.8494 3.75729
741 1 -1.1104 1.15596 36.4613 3.80613
743 1 -1.1104 1.18091 33.6551 0.901244
744 2 2.2208 5.27999 32.4147 2.42722
745 2 2.2208 5.43397 37.868 2.39042
746 1 -1.1104 1.12763 33.6869 3.73742
748 1 -1.1104 3.99937 30.9495 0.959779
749 1 -1.1104 3.91064 36.5611 1.02292
750 2 2.2208 2.47122 35.1021 2.36573
751 1 -1.1104 4.07504 31.0411 3.82664
752 1 -1.1104 3.88268 36.6212 3.92813
753 2 2.2208 2.45616 32.4825 5.26488
754 2 2.2208 2.49924 37.8707 5.19813
755 1 -1.1104 3.8652 33.883 0.930945
756 1 -1.1104 3.96541 33.83 3.82134
893 1 -1.1104 3.91565 36.6121 6.63121
886 1 -1.1104 1.13199 31.0462 6.59593
894 1 -1.1104 4.01232 33.7477 6.65218
890 1 -1.1104 1.18984 33.8345 6.65721
9847 2 2.2208 -0.268692 35.2174 5.1465
887 1 -1.1104 1.13075 36.6332 6.79785
806 1 -1.1104 12.2266 39.3647 12.0315
892 1 -1.1104 3.75455 30.8631 6.41101
985 2 2.2208 13.8117 26.6909 10.7355
762 1 -1.1104 6.77646 33.7261 0.977912
742 1 -1.1104 6.58037 36.5111 3.75701
739 1 -1.1104 6.72014 36.4476 0.940259
760 1 -1.1104 6.79859 30.897 1.06862
761 1 -1.1104 6.73868 30.8593 3.75449
889 1 -1.1104 6.77619 36.6727 6.50895
747 1 -1.1104 6.89381 33.7205 3.81742
763 2 2.2208 10.9416 35.0867 5.27013
764 1 -1.1104 12.5215 30.7464 0.943909
765 1 -1.1104 12.3396 36.5505 0.983064