ITEM: TIMESTEP
60000
ITEM: NUMBER OF ATOMS
17910
ITEM: BOX BOUNDS pp pp pp
-3.5440601085247658e-01 2.7694406010852614e+01
-4.3658335320932693e+00 3.3244583353208805e+02
-3.5523840887063401e-01 2.7695238408870296e+01
ITEM: ATOMS id type q x y z
1 2 2.2208 5.27116 1.28331 5.29652
2 1 -1.1104 1.01227 -3.09922 1.04788
3 1 -1.1104 0.87759 2.64926 1.01075
6 1 -1.1104 1.06825 -2.84761 3.78768
7 1 -1.1104 1.02566 2.59444 3.73951
10 1 -1.1104 0.965838 -0.141793 1.1265
12 2 2.2208 5.20752 -1.47569 2.53575
13 2 2.2208 5.16472 4.03705 2.29366
14 1 -1.1104 1.03338 -0.141979 3.80205
16 1 -1.1104 3.75096 -2.82502 1.20905
17 1 -1.1104 3.64243 2.69247 0.98629
18 2 2.2208 2.39405 1.2025 2.47531
19 1 -1.1104 3.8644 -3.0085 3.87465
20 1 -1.1104 3.79323 2.65702 3.75289
21 2 2.2208 2.35387 -1.55594 5.31146
22 2 2.2208 2.51243 3.94721 5.13543
23 1 -1.1104 3.89086 -0.131266 1.09036
24 1 -1.1104 3.81109 -0.183706 3.89892
8467 2 2.2208 -0.432419 -4.44743 -0.349969
174 1 -1.1104 3.6534 -0.263311 6.69019
9093 2 2.2208 13.6023 12.4818 8.00166
9178 2 2.2208 13.5818 1.10718 2.59509
173 1 -1.1104 3.8819 2.45434 6.59151
167 1 -1.1104 1.01483 2.63508 6.50108
166 1 -1.1104 0.987964 -2.87149 6.68029
4 1 -1.1104 6.47867 -2.93028 0.965838
9 1 -1.1104 6.63905 2.75581 3.80544
11 1 -1.1104 6.58111 -0.123599 1.12244
169 1 -1.1104 6.76885 2.72668 6.69606
8447 2 2.2208 5.28491 -4.3965 5.31349
170 1 -1.1104 0.870183 -0.15511 6.67651
8452 2 2.2208 2.47583 -4.41849 8.00263
9180 2 2.2208 -0.419708 9.56854 2.49239
171 1 -1.1104 6.65571 -0.113509 6.62116
8449 2 2.2208 7.93242 -4.33038 2.52699
15 1 -1.1104 6.54067 -0.0593485 3.97806
5 1 -1.1104 6.53649 2.54911 0.981911
8 1 -1.1104 6.59785 -2.9232 3.8758
31 2 2.2208 10.8171 1.2507 5.21511
32 1 -1.1104 12.1516 -2.97603 1.33431
33 1 -1.1104 12.0605 2.62497 1.16173
34 1 -1.1104 12.2603 -2.94888 4.01836
35 1 -1.1104 12.152 2.47842 3.94785
36 1 -1.1104 12.1307 -0.223014 1.1312
37 2 2.2208 10.7216 -1.6203 2.56099
39 1 -1.1104 12.256 -0.290752 3.87561
40 1 -1.1104 9.4387 -2.95234 1.17464
41 1 -1.1104 9.26409 2.56592 1.10148
42 2 2.2208 7.84796 1.28965 2.47549
43 1 -1.1104 9.52171 -3.0322 4.03218
44 1 -1.1104 9.41075 2.67857 3.81071
45 2 2.2208 8.08018 -1.51268 5.31147
47 1 -1.1104 9.26912 -0.150359 1.05795
48 1 -1.1104 9.3062 -0.112582 3.93231
38 2 2.2208 10.8756 4.05202 2.4795
46 2 2.2208 8.00165 4.08807 5.17234
168 1 -1.1104 6.68162 -2.94474 6.61994
209 1 -1.1104 9.32159 2.72276 6.72902
208 1 -1.1104 9.49336 -2.83571 6.93186
206 1 -1.1104 12.2217 2.75369 6.65983
8453 2 2.2208 5.1333 -4.57444 11.0253
210 1 -1.1104 9.54699 -0.0338411 6.70665
207 1 -1.1104 12.1237 -0.135744 6.67071
8450 2 2.2208 10.9442 -4.34729 5.37599
8909 2 2.2208 -0.476182 17.8712 5.24206
54 2 2.2208 5.20599 6.88274 5.23797
55 2 2.2208 5.12198 12.5089 5.35657
56 1 -1.1104 1.06399 8.35035 0.95505
58 1 -1.1104 1.0766 8.08204 3.83591
60 1 -1.1104 0.950065 5.55213 1.18494
61 1 -1.1104 1.01666 11.0081 1.143
66 2 2.2208 5.41433 9.64945 2.39681
67 1 -1.1104 1.19938 5.3806 3.74203
68 1 -1.1104 0.964187 10.9328 3.86356
71 1 -1.1104 4.00055 8.23605 0.979656
72 2 2.2208 2.49858 6.84199 2.39647
73 2 2.2208 2.49425 12.4082 2.51905
74 1 -1.1104 4.03191 8.26497 3.68663
75 2 2.2208 2.39388 9.61486 5.29976
76 1 -1.1104 3.90352 5.43463 0.770556
77 1 -1.1104 3.85502 11.064 1.18929
79 1 -1.1104 3.90197 5.54024 3.85564
80 1 -1.1104 3.66807 11.0648 4.01792
9181 2 2.2208 -0.384987 12.3747 5.32624
234 1 -1.1104 1.02914 8.17615 6.5337
239 1 -1.1104 3.7428 5.40203 6.69415
29 2 2.2208 -0.359481 6.82524 10.7647
62 1 -1.1104 0.951995 10.988 6.6798
57 1 -1.1104 6.74461 8.17974 0.926678
69 1 -1.1104 6.50476 5.54069 3.87618
349 2 2.2208 5.3277 6.79388 -0.322881
238 1 -1.1104 3.65543 8.12255 6.58894
236 1 -1.1104 1.00787 5.45993 6.66264
8451 2 2.2208 13.5917 -4.41467 2.61337
9077 2 2.2208 13.5691 12.462 2.47852
105 2 2.2208 10.879 20.7464 7.94541
70 1 -1.1104 6.36614 11.185 3.92329
63 1 -1.1104 6.63497 5.36209 1.09244
64 1 -1.1104 6.55955 11.0161 1.03897
59 1 -1.1104 6.6652 8.40886 3.8721
84 2 2.2208 10.8163 6.80899 5.32981
85 2 2.2208 10.7172 12.4531 5.19501
86 1 -1.1104 12.355 8.33326 1.22717
87 1 -1.1104 12.2085 8.27934 4.06001
88 1 -1.1104 12.4308 5.42125 1.27294
89 1 -1.1104 12.2646 11.2819 1.05131
91 2 2.2208 10.8536 9.69472 2.5722
92 1 -1.1104 12.0962 5.28065 3.99801
93 1 -1.1104 12.1034 11.1335 3.91474
94 1 -1.1104 9.60569 8.14394 1.13597
95 2 2.2208 8.08199 6.91919 2.5338
96 2 2.2208 7.96704 12.4261 2.46751
97 1 -1.1104 9.48583 8.44111 3.95125
98 2 2.2208 7.96632 9.64786 5.34368
99 1 -1.1104 9.25609 5.35093 1.04414
100 1 -1.1104 9.52291 10.98 1.02614
102 1 -1.1104 9.40831 5.5962 3.89505
103 1 -1.1104 9.34612 11.0702 3.76297
269 1 -1.1104 9.26733 5.56692 6.6344
267 1 -1.1104 9.41621 8.12881 6.68955
237 1 -1.1104 6.54412 5.51863 6.67398
265 1 -1.1104 12.1623 8.16693 6.76671
266 1 -1.1104 12.1567 5.51922 6.71915
101 1 -1.1104 9.45976 10.9164 6.57626
327 2 2.2208 8.07386 6.75833 13.736
30 2 2.2208 -0.488223 12.2188 10.8933
25 2 2.2208 13.555 15.2148 10.825
106 2 2.2208 5.27011 17.9439 5.38647
107 1 -1.1104 0.989615 13.7012 1.04079
109 1 -1.1104 1.15125 19.4263 1.10245
113 1 -1.1104 0.966673 13.7004 3.87485
114 1 -1.1104 1.0546 19.2214 3.91727
116 1 -1.1104 1.08783 16.5062 1.08439
119 2 2.2208 5.1516 15.3949 2.48472
120 2 2.2208 5.239 20.8074 2.6236
121 1 -1.1104 0.990631 16.4628 3.74324
123 1 -1.1104 3.85404 13.7902 1.10104
125 1 -1.1104 3.91061 19.39 1.19716
127 2 2.2208 2.53722 17.9532 2.60867
128 1 -1.1104 3.73097 13.8658 3.89806
129 1 -1.1104 3.89568 19.3711 3.96411
130 2 2.2208 2.18185 15.099 5.29188
131 2 2.2208 2.39298 20.7527 5.28692
132 1 -1.1104 3.83986 16.6757 1.12945
134 1 -1.1104 3.92213 16.6722 4.01951
9042 2 2.2208 -0.355577 15.1036 2.51329
8461 2 2.2208 10.6781 -4.49716 -0.285905
338 2 2.2208 2.31808 -1.58341 -0.246106
8457 2 2.2208 13.7062 -4.39021 8.13818
137 1 -1.1104 9.58006 19.4428 12.2252
140 1 -1.1104 6.68207 16.7099 1.05635
138 1 -1.1104 6.55732 19.4938 1.07736
115 1 -1.1104 6.58074 13.8924 3.86081
139 1 -1.1104 6.7823 19.5371 3.85456
110 1 -1.1104 6.51843 13.8561 1.02504
122 1 -1.1104 6.64966 16.615 3.73995
141 2 2.2208 10.999 18.0795 5.30028
142 1 -1.1104 12.0278 13.9006 1.04834
144 1 -1.1104 12.314 19.4414 1.13013
146 1 -1.1104 12.2121 13.7881 3.85385
147 1 -1.1104 12.3496 19.308 3.93468
148 1 -1.1104 12.3441 16.6019 1.11343
150 2 2.2208 10.9125 15.2846 2.50583
151 2 2.2208 10.7084 20.8171 2.3581
152 1 -1.1104 12.5243 16.6223 3.90015
153 1 -1.1104 9.35716 13.833 1.13878
155 1 -1.1104 9.45588 19.5387 1.10441
157 2 2.2208 8.06415 18.1543 2.46493
158 1 -1.1104 9.42517 13.8335 3.76588
159 1 -1.1104 9.55413 19.4464 3.85803
160 2 2.2208 7.98342 15.1601 5.28128
161 2 2.2208 8.07292 20.8069 5.15048
162 1 -1.1104 9.65236 16.7807 1.14319
164 1 -1.1104 9.4512 16.6662 3.94742
143 1 -1.1104 12.2203 13.7474 6.64973
154 1 -1.1104 9.33476 13.7624 6.71223
112 1 -1.1104 6.63096 19.3478 6.69677
111 1 -1.1104 6.54674 13.8292 6.54168
149 1 -1.1104 12.3132 16.7414 6.62361
231 1 -1.1104 9.51354 16.5402 9.5856
8979 2 2.2208 13.7433 15.256 5.23333
163 1 -1.1104 9.36181 16.4335 6.68392
165 2 2.2208 8.15948 17.8931 8.12506
172 1 -1.1104 3.8477 -2.93703 6.60758
345 2 2.2208 7.87317 -1.51216 -0.338154
230 2 2.2208 13.7611 -1.61602 10.9416
175 2 2.2208 5.28575 1.06011 11.0115
176 1 -1.1104 0.965925 -2.96213 12.3066
177 1 -1.1104 1.13862 2.46912 12.3087
180 1 -1.1104 1.06961 -2.9679 9.49
181 1 -1.1104 1.06719 2.72825 9.39849
184 1 -1.1104 0.906026 -0.215295 12.2601
186 2 2.2208 5.14794 -1.5801 8.05074
187 2 2.2208 5.25498 3.95881 8.00179
188 1 -1.1104 1.0109 -0.0262015 9.43083
190 1 -1.1104 3.64102 -2.99387 12.3039
191 1 -1.1104 3.85628 2.55944 12.4853
192 2 2.2208 2.43911 1.23198 8.07364
193 1 -1.1104 3.92123 -3.01458 9.35115
194 1 -1.1104 3.68006 2.37673 9.63878
195 2 2.2208 2.3274 -1.55306 10.7702
197 1 -1.1104 3.81538 -0.142165 12.3078
198 1 -1.1104 3.81843 -0.376987 9.44031
196 2 2.2208 2.45257 4.00102 11.0371
178 1 -1.1104 6.68408 -2.9877 12.3698
183 1 -1.1104 6.46968 2.51324 9.59005
182 1 -1.1104 6.73575 -2.97713 9.39586
82 1 -1.1104 12.2553 19.427 9.41008
8908 2 2.2208 13.7842 18.1196 2.52789
27 1 -1.1104 12.3764 13.7746 12.3441
337 2 2.2208 5.13856 1.24024 -0.408364
49 1 -1.1104 12.3932 19.3794 12.325
205 1 -1.1104 12.3019 -2.99043 6.92646
232 1 -1.1104 9.44289 19.3262 9.55042
185 1 -1.1104 6.55464 -0.179789 12.2659
203 2 2.2208 8.13851 20.7966 10.8643
189 1 -1.1104 6.67538 -0.271525 9.49707
179 1 -1.1104 6.61086 2.57574 12.4158
211 2 2.2208 10.6183 1.14924 10.9361
212 1 -1.1104 12.161 -2.98169 12.4599
213 1 -1.1104 12.1613 2.59508 12.1646
214 1 -1.1104 12.1829 -2.84839 9.64346
215 1 -1.1104 12.1875 2.66313 9.46807
216 1 -1.1104 12.1022 -0.123199 12.3812
217 2 2.2208 10.8579 -1.53196 8.21559
218 2 2.2208 10.7668 4.06491 8.10859
219 1 -1.1104 12.1755 -0.0873131 9.5549
220 1 -1.1104 9.48757 -2.93419 12.3503
221 1 -1.1104 9.48818 2.5644 12.4689
222 2 2.2208 7.936 1.23758 8.08972
223 1 -1.1104 9.44722 -2.87497 9.63503
224 1 -1.1104 9.3891 2.65297 9.57794
225 2 2.2208 7.92869 -1.64794 10.8858
226 2 2.2208 8.03227 4.03484 10.9791
227 1 -1.1104 9.28804 -0.1423 12.5217
228 1 -1.1104 9.43572 -0.19195 9.51589
311 1 -1.1104 9.45617 13.8354 9.53557
306 1 -1.1104 6.69857 16.5276 12.4009
26 2 2.2208 10.8468 18.1158 10.9204
135 1 -1.1104 12.2253 16.5728 9.34883
297 1 -1.1104 6.54921 13.8148 12.3032
78 1 -1.1104 3.94004 10.9582 6.67092
296 1 -1.1104 6.75598 19.2777 12.2492
81 1 -1.1104 12.1823 13.7664 9.38672
240 2 2.2208 5.243 6.67377 11.0099
241 2 2.2208 5.28701 12.4366 10.8651
242 1 -1.1104 1.09943 8.0674 12.1561
244 1 -1.1104 0.907537 8.29404 9.39814
246 1 -1.1104 0.938883 5.39877 12.2466
247 1 -1.1104 0.996534 10.9027 12.333
250 2 2.2208 5.2899 9.5734 8.13673
251 1 -1.1104 1.0671 5.46618 9.44504
252 1 -1.1104 0.845857 10.9781 9.38087
255 1 -1.1104 3.81498 8.14874 12.3222
256 2 2.2208 2.39252 6.77251 8.08432
257 2 2.2208 2.33009 12.2248 8.11647
258 1 -1.1104 3.83195 8.12636 9.49857
259 2 2.2208 2.43746 9.50939 10.8125
260 1 -1.1104 3.71731 5.40669 12.3826
261 1 -1.1104 3.73576 10.8777 12.3562
262 1 -1.1104 3.79289 5.23377 9.44784
263 1 -1.1104 3.63206 10.9001 9.4485
245 1 -1.1104 6.67036 8.07082 9.56556
249 1 -1.1104 6.54466 10.9142 12.3329
243 1 -1.1104 6.68696 8.14256 12.2993
202 2 2.2208 8.09276 15.2234 10.868
290 1 -1.1104 6.61963 13.756 9.5053
235 1 -1.1104 6.61107 8.23121 6.73534
254 1 -1.1104 6.62426 11.0459 9.64957
90 1 -1.1104 12.154 11.0206 6.80934
65 1 -1.1104 6.70246 11.0646 6.95922
253 1 -1.1104 6.59687 5.27555 9.48721
248 1 -1.1104 6.66182 5.35982 12.3069
264 1 -1.1104 9.43003 10.9422 9.42507
268 1 -1.1104 9.40469 5.46068 9.44868
270 1 -1.1104 9.30287 10.9992 12.2767
271 1 -1.1104 9.50025 5.38624 12.2593
272 2 2.2208 8.00413 9.59582 10.9509
273 1 -1.1104 9.41538 8.27446 9.7061
274 2 2.2208 8.1407 12.4202 8.04901
275 2 2.2208 8.04648 6.83401 8.17557
276 2 2.2208 10.8272 6.80919 10.8942
277 2 2.2208 10.8302 12.3601 10.8247
278 1 -1.1104 12.1215 8.1931 12.2303
279 1 -1.1104 12.1475 8.34873 9.51541
280 1 -1.1104 12.2541 5.44269 12.325
281 1 -1.1104 12.2209 10.9931 12.3376
282 2 2.2208 10.8169 9.58468 8.11083
283 1 -1.1104 12.2764 5.59674 9.50849
284 1 -1.1104 12.2302 11.1497 9.49126
285 1 -1.1104 9.45094 8.13361 12.4098
50 2 2.2208 13.6415 -1.62971 5.38901
289 1 -1.1104 6.77578 16.6873 9.6958
108 1 -1.1104 0.864819 13.8119 6.75701
8881 2 2.2208 13.5668 4.06941 5.40707
126 1 -1.1104 3.69724 19.2416 6.67058
133 1 -1.1104 3.72918 16.4721 6.67016
124 1 -1.1104 3.70499 13.6624 6.7308
302 1 -1.1104 0.879144 19.2552 6.67603
233 2 2.2208 -0.416105 17.9062 10.8927
204 1 -1.1104 9.45179 16.5407 12.3553
117 1 -1.1104 0.948981 16.6151 6.751
286 1 -1.1104 3.95083 19.3301 12.3428
287 1 -1.1104 3.80131 13.763 12.3807
291 1 -1.1104 1.05895 19.4066 9.38806
292 1 -1.1104 0.8248 16.4511 9.56002
293 2 2.2208 5.29433 20.7463 8.01219
294 1 -1.1104 0.99994 13.7679 9.59081
295 2 2.2208 5.07563 15.1625 8.16953
298 1 -1.1104 1.06898 19.3643 12.2447
299 1 -1.1104 1.01061 13.8093 12.311
300 2 2.2208 5.24633 18.0394 10.9135
301 1 -1.1104 3.85926 19.4015 9.56281
303 2 2.2208 2.31012 17.9665 8.07626
304 1 -1.1104 3.77207 16.5895 9.50141
305 1 -1.1104 3.78592 13.6767 9.59903
307 1 -1.1104 1.04338 16.472 12.3367
308 1 -1.1104 3.91372 16.6279 12.2513
309 2 2.2208 2.41358 20.7485 10.9281
310 2 2.2208 2.35204 15.243 10.9533
288 1 -1.1104 6.65568 19.3764 9.43026
104 2 2.2208 10.9287 15.1918 8.02308
136 1 -1.1104 9.3221 13.7806 12.194
83 1 -1.1104 12.224 16.6322 12.2193
156 1 -1.1104 9.37159 19.3591 6.57929
118 1 -1.1104 6.66621 16.6215 6.75077
145 1 -1.1104 12.1917 19.5017 6.54843
28 2 2.2208 13.6458 20.7905 10.8133
8883 2 2.2208 -0.385619 20.7283 8.0321
9208 2 2.2208 13.7552 20.6679 -0.393114
335 2 2.2208 8.07418 17.9973 13.7009
322 2 2.2208 10.7836 -1.48005 13.7933
352 2 2.2208 8.02423 15.2191 -0.307582
9176 2 2.2208 13.6956 18.1154 8.00874
319 2 2.2208 5.27934 3.99905 13.7881
9179 2 2.2208 -0.277817 6.7943 5.18149
53 2 2.2208 13.5608 4.00468 10.9033
9110 2 2.2208 -0.500597 9.54877 8.04585
8910 2 2.2208 13.6743 9.69444 5.26884
9076 2 2.2208 13.6669 6.81043 2.59266
9177 2 2.2208 -0.390563 4.00141 2.55554
332 2 2.2208 5.32242 15.2178 13.7375
321 2 2.2208 7.94996 1.24584 13.8629
316 2 2.2208 5.23862 -1.56606 13.6591
9210 2 2.2208 -0.475402 12.1941 -0.349644
313 2 2.2208 -0.340059 20.7478 13.6845
333 2 2.2208 10.9321 20.8609 13.7992
341 2 2.2208 5.21528 18.0968 -0.296671
355 2 2.2208 8.07337 9.59051 -0.349888
324 2 2.2208 2.409 6.75229 13.6679
339 2 2.2208 2.31122 4.00827 -0.526587
357 2 2.2208 8.05282 20.8736 -0.324513
8465 2 2.2208 5.1528 -4.35876 -0.260323
351 2 2.2208 5.17048 12.5057 -0.364745
358 2 2.2208 5.10451 1.27945 16.5023
359 1 -1.1104 1.13917 -3.05494 17.8231
360 1 -1.1104 0.9564 2.46229 18.0202
363 1 -1.1104 0.785414 -3.00708 15.0807
365 1 -1.1104 1.00531 2.48329 15.1767
371 1 -1.1104 0.927962 -0.221819 17.9393
373 2 2.2208 5.26182 -1.6861 19.2463
375 1 -1.1104 0.978985 -0.172985 15.1012
379 1 -1.1104 3.88328 -3.07779 17.958
380 1 -1.1104 3.79158 2.63153 17.9732
381 2 2.2208 2.35471 1.10029 19.2715
382 1 -1.1104 3.76044 -3.04644 15.0745
384 1 -1.1104 3.66573 2.51752 15.1247
386 2 2.2208 2.41047 -1.5376 16.5832
387 2 2.2208 2.20782 3.89926 16.5383
388 1 -1.1104 3.87998 -0.355769 17.919
389 1 -1.1104 3.8335 -0.404812 15.1254
374 2 2.2208 5.1466 4.13232 19.3482
8836 2 2.2208 5.22252 -4.5047 16.4374
364 1 -1.1104 1.00621 -3.06552 20.6707
390 1 -1.1104 3.83475 -0.204417 20.6497
385 1 -1.1104 3.83472 2.61843 20.7015
427 2 2.2208 -0.331853 15.1695 19.2635
372 1 -1.1104 6.43646 -0.159795 17.8826
383 1 -1.1104 3.89938 -2.95373 20.7482
376 1 -1.1104 1.01556 -0.225489 20.7131
8650 2 2.2208 13.6905 -4.34576 24.991
366 1 -1.1104 1.04207 2.53063 20.822
369 1 -1.1104 6.48664 2.6559 15.2134
378 1 -1.1104 6.6334 -0.107613 20.729
370 1 -1.1104 6.61908 2.76342 20.5175
430 2 2.2208 13.6655 20.9724 16.6148
361 1 -1.1104 6.53596 -2.96392 17.8139
367 1 -1.1104 6.62833 -3.04455 15.0029
362 1 -1.1104 6.63829 2.5744 17.9319
377 1 -1.1104 6.54386 -0.176604 15.1237
401 2 2.2208 10.7434 1.1602 16.5656
402 1 -1.1104 12.1514 -3.01864 18.1482
403 1 -1.1104 12.3467 2.66918 17.8215
404 1 -1.1104 12.132 -2.86967 15.1915
406 1 -1.1104 12.31 2.77701 15.0004
408 1 -1.1104 12.2585 -0.250487 17.9804
409 2 2.2208 10.802 -1.52282 19.4777
410 2 2.2208 10.9051 4.03476 19.2319
411 1 -1.1104 12.1349 0.0640346 15.1763
413 1 -1.1104 9.29511 -2.94358 18.1061
414 1 -1.1104 9.45597 2.61311 17.9702
415 2 2.2208 8.0216 1.19088 19.3778
416 1 -1.1104 9.42286 -3.01147 15.3506
418 1 -1.1104 9.48401 2.71539 15.1634
420 2 2.2208 7.93045 -1.5553 16.5006
421 2 2.2208 8.01139 4.09144 16.5471
422 1 -1.1104 9.32705 -0.165983 17.9425
423 1 -1.1104 9.37091 -0.203093 15.1193
317 2 2.2208 2.39811 1.08611 13.7625
424 1 -1.1104 9.37384 -0.158112 20.7398
407 1 -1.1104 12.256 2.65118 20.4966
412 1 -1.1104 12.1126 -0.231294 20.8315
400 1 -1.1104 12.2056 13.871 26.2685
368 1 -1.1104 6.51371 -3.03231 20.6562
330 2 2.2208 2.58028 17.9578 13.6288
434 2 2.2208 5.13421 6.80736 16.5992
435 2 2.2208 5.22555 12.3823 16.4818
436 1 -1.1104 0.989431 8.04696 17.9966
438 1 -1.1104 0.945228 8.17153 15.1165
442 1 -1.1104 0.948169 5.37854 17.8115
443 1 -1.1104 0.988026 10.838 18.0212
446 2 2.2208 5.05576 9.61362 19.3887
447 1 -1.1104 0.895191 5.41044 15.1332
449 1 -1.1104 0.893795 10.9426 14.9771
455 1 -1.1104 3.76618 8.20953 17.9102
456 2 2.2208 2.39366 6.77415 19.4157
457 2 2.2208 2.49406 12.3473 19.319
458 1 -1.1104 3.93386 8.05079 15.0813
460 2 2.2208 2.40121 9.55028 16.5654
461 1 -1.1104 3.72613 5.53667 17.9299
462 1 -1.1104 3.81048 11.1563 17.8978
463 1 -1.1104 3.6386 5.35134 15.1462
465 1 -1.1104 3.70302 10.984 15.0966
466 1 -1.1104 3.75888 10.9486 20.8601
459 1 -1.1104 3.72442 8.1272 20.8479
451 1 -1.1104 6.56367 5.45357 15.0306
9187 2 2.2208 13.6168 9.68073 27.843
464 1 -1.1104 3.90938 5.35315 20.8361
450 1 -1.1104 0.974957 10.943 20.8278
585 1 -1.1104 12.216 13.8529 23.5302
625 2 2.2208 13.7011 17.9487 24.876
445 1 -1.1104 6.56847 10.8811 17.8238
453 1 -1.1104 6.5806 10.8407 15.0557
444 1 -1.1104 6.4783 5.366 17.9333
437 1 -1.1104 6.61451 8.22718 18.0001
440 1 -1.1104 6.64495 8.10082 15.2554
470 2 2.2208 10.7943 6.84016 16.4596
471 2 2.2208 10.7364 12.3341 16.4907
472 1 -1.1104 12.264 8.2421 17.7092
473 1 -1.1104 12.1944 8.27304 14.9081
475 1 -1.1104 12.1177 5.61719 17.8677
476 1 -1.1104 12.168 11.1006 18.0333
477 2 2.2208 10.9835 9.58357 19.2689
478 1 -1.1104 12.1893 5.50016 15.0934
480 1 -1.1104 12.3401 11.1274 15.2177
482 1 -1.1104 9.42163 8.14836 17.8425
483 2 2.2208 8.09823 6.90107 19.3845
484 2 2.2208 7.96375 12.2279 19.3531
485 1 -1.1104 9.37145 8.22496 15.1172
487 2 2.2208 8.08011 9.52743 16.5571
488 1 -1.1104 9.34281 5.53962 17.8443
489 1 -1.1104 9.45968 10.8984 17.9275
490 1 -1.1104 9.38335 5.34597 15.0601
492 1 -1.1104 9.3621 10.9977 15.0765
486 1 -1.1104 9.44948 8.18766 20.6685
474 1 -1.1104 12.4455 8.14177 20.6656
491 1 -1.1104 9.44331 5.42693 20.7677
9250 2 2.2208 -0.242281 20.861 24.9974
9294 2 2.2208 -0.323232 9.53712 24.8711
593 2 2.2208 13.6896 15.1726 22.1799
8612 2 2.2208 7.95853 -4.369 24.8366
497 2 2.2208 5.4085 18.0961 16.497
498 1 -1.1104 1.0656 13.7549 17.9935
499 1 -1.1104 1.19466 19.3118 18.0387
502 1 -1.1104 1.07631 13.6692 15.1913
504 1 -1.1104 1.02154 19.3547 15.0982
510 1 -1.1104 1.19308 16.5212 17.962
512 2 2.2208 5.24325 15.1608 19.3222
513 2 2.2208 5.25741 20.8004 19.4371
514 1 -1.1104 1.14966 16.5015 15.0898
518 1 -1.1104 3.83745 13.866 17.9402
519 1 -1.1104 3.90714 19.3114 17.9059
520 2 2.2208 2.43792 17.8856 19.39
521 1 -1.1104 3.94042 13.846 15.1473
523 1 -1.1104 3.827 19.4652 15.0811
525 2 2.2208 2.40195 15.1356 16.5191
526 2 2.2208 2.60924 20.6373 16.442
527 1 -1.1104 4.00166 16.6186 17.7692
528 1 -1.1104 3.97725 16.7398 15.0694
682 1 -1.1104 6.6269 13.6502 26.2404
515 1 -1.1104 0.973297 16.5221 20.7935
329 2 2.2208 7.90267 12.4003 13.7251
529 1 -1.1104 3.91618 16.4946 20.5889
506 1 -1.1104 6.82376 13.736 15.2356
508 1 -1.1104 6.7061 19.3923 15.0299
516 1 -1.1104 6.70174 16.5462 15.1731
500 1 -1.1104 6.63521 13.6561 18.127
511 1 -1.1104 6.73887 16.4957 17.8645
501 1 -1.1104 6.71752 19.4667 17.9098
533 2 2.2208 10.9074 18.0473 16.4867
534 1 -1.1104 12.1666 13.9532 17.9501
535 1 -1.1104 12.2065 19.5248 17.9148
536 1 -1.1104 12.4904 13.9573 14.9957
538 1 -1.1104 12.1946 19.595 15.2637
540 1 -1.1104 12.3857 16.6965 17.7751
541 2 2.2208 10.7896 15.2647 19.179
542 2 2.2208 10.7116 20.9434 19.173
543 1 -1.1104 12.2226 16.885 14.9491
545 1 -1.1104 9.3669 13.5627 17.8071
546 1 -1.1104 9.30855 19.5475 18.0787
547 2 2.2208 8.05012 17.995 19.2706
548 1 -1.1104 9.60033 13.822 15.0638
550 1 -1.1104 9.55225 19.4688 15.2509
552 2 2.2208 8.15453 15.2107 16.4672
553 2 2.2208 7.92391 20.8124 16.5383
554 1 -1.1104 9.60291 16.664 17.9087
555 1 -1.1104 9.49828 16.7044 15.1082
551 1 -1.1104 9.45821 19.4357 20.6163
544 1 -1.1104 12.2238 16.5894 20.5419
549 1 -1.1104 9.42334 13.6379 20.7432
588 2 2.2208 13.6832 18.0769 19.4654
558 1 -1.1104 9.5098 16.5188 26.4597
342 2 2.2208 2.47145 20.8773 27.6661
679 1 -1.1104 6.48355 19.4379 23.4367
429 2 2.2208 13.5408 -1.58279 16.5964
561 2 2.2208 5.26436 1.22137 22.0369
562 1 -1.1104 1.00391 -2.97726 23.5009
563 1 -1.1104 1.11149 2.65914 23.6338
566 1 -1.1104 0.921535 -2.96175 26.4717
567 1 -1.1104 1.07364 2.51204 26.2973
570 1 -1.1104 1.09669 -0.145019 23.454
572 2 2.2208 5.26101 -1.47726 24.8574
574 1 -1.1104 1.00257 -0.302412 26.3469
576 1 -1.1104 3.87292 -2.92282 23.5672
577 1 -1.1104 3.8995 2.61926 23.3277
578 2 2.2208 2.45643 1.25696 24.8698
579 1 -1.1104 3.77907 -2.94028 26.4635
580 1 -1.1104 3.7911 2.60137 26.2369
581 2 2.2208 2.49035 -1.53758 22.0643
583 1 -1.1104 3.8203 -0.142632 23.4771
584 1 -1.1104 3.77193 -0.173579 26.2845
582 2 2.2208 2.39492 3.93353 22.2605
573 2 2.2208 5.20059 4.00213 24.9008
568 1 -1.1104 6.66188 -2.80406 26.1236
575 1 -1.1104 6.49596 -0.0934636 26.2633
617 1 -1.1104 6.48385 16.7572 23.5349
623 2 2.2208 13.5884 -1.54771 22.2086
530 1 -1.1104 9.5194 19.3634 26.325
678 2 2.2208 13.7473 12.4202 24.9031
432 2 2.2208 10.8644 15.2016 24.8414
318 2 2.2208 13.4351 1.17926 13.7633
419 1 -1.1104 9.49373 2.55237 20.7194
405 1 -1.1104 12.2868 -2.99298 20.913
326 2 2.2208 2.31405 12.2901 13.6099
564 1 -1.1104 6.7214 -3.02919 23.3564
571 1 -1.1104 6.66073 -0.29136 23.5088
417 1 -1.1104 9.46316 -3.07798 20.7613
569 1 -1.1104 6.586 2.58582 26.2964
565 1 -1.1104 6.74129 2.54921 23.5086
597 2 2.2208 10.8488 1.33042 22.1078
598 1 -1.1104 12.1882 -3.07731 23.6675
599 1 -1.1104 12.4369 2.71626 23.4039
600 1 -1.1104 12.2529 -2.99952 26.4334
601 1 -1.1104 12.1136 2.49839 26.3211
602 1 -1.1104 12.1803 -0.216232 23.598
603 2 2.2208 10.8277 -1.5721 25.049
604 2 2.2208 10.9014 4.00206 24.9906
605 1 -1.1104 12.1064 -0.139535 26.2468
606 1 -1.1104 9.47898 -3.00361 23.7143
607 1 -1.1104 9.51571 2.69134 23.6034
608 2 2.2208 8.15136 1.27522 24.9586
609 1 -1.1104 9.42437 -3.13542 26.4461
610 1 -1.1104 9.34616 2.64714 26.2986
611 2 2.2208 7.99602 -1.56157 22.2319
612 2 2.2208 8.1267 4.09842 22.1808
613 1 -1.1104 9.39336 -0.0619134 23.3908
614 1 -1.1104 9.43983 -0.173412 26.2316
531 2 2.2208 8.05085 15.2574 22.1044
433 2 2.2208 10.9441 20.8012 24.9566
559 2 2.2208 -0.360769 17.9599 22.0777
560 1 -1.1104 12.1847 19.3416 23.4978
334 2 2.2208 10.9707 15.2773 13.7278
684 1 -1.1104 6.65122 16.5306 26.3987
448 1 -1.1104 1.05924 5.30532 20.732
454 1 -1.1104 6.53243 11.039 20.6272
398 2 2.2208 13.6767 1.30018 19.2493
439 1 -1.1104 1.04808 8.20765 20.7515
626 2 2.2208 5.21482 6.88101 22.1601
627 2 2.2208 5.23796 12.4299 22.1983
628 1 -1.1104 1.07652 8.20612 23.547
630 1 -1.1104 0.934432 8.22874 26.3173
632 1 -1.1104 1.03739 5.5104 23.4106
633 1 -1.1104 0.981231 10.9201 23.5251
636 2 2.2208 5.2544 9.53891 24.9373
637 1 -1.1104 0.998232 5.38101 26.3842
638 1 -1.1104 0.966212 10.9833 26.3743
641 1 -1.1104 3.78166 8.15722 23.5446
642 2 2.2208 2.35095 6.80073 24.9139
643 2 2.2208 2.41457 12.405 24.9256
644 1 -1.1104 3.82689 8.36184 26.3305
645 2 2.2208 2.42738 9.70208 22.2183
646 1 -1.1104 3.84176 5.51182 23.5647
647 1 -1.1104 3.88496 10.8608 23.6146
648 1 -1.1104 3.84663 5.36646 26.2374
649 1 -1.1104 3.6911 11.185 26.2823
468 1 -1.1104 9.3207 13.8333 23.5382
635 1 -1.1104 6.70058 10.9964 23.401
323 2 2.2208 10.8408 3.92542 13.6387
631 1 -1.1104 6.76681 8.22575 26.2039
639 1 -1.1104 6.70104 5.51066 26.2248
640 1 -1.1104 6.61686 10.8739 26.3299
441 1 -1.1104 6.52529 8.32473 20.7997
452 1 -1.1104 6.63349 5.54299 20.6219
356 2 2.2208 10.8506 12.5059 27.6285
493 1 -1.1104 9.33889 10.8763 20.657
479 1 -1.1104 12.2685 5.49296 20.6801
481 1 -1.1104 12.1813 11.0852 20.7922
629 1 -1.1104 6.78223 8.18237 23.4402
634 1 -1.1104 6.53546 5.4282 23.4571
657 1 -1.1104 9.47687 10.9997 26.1563
658 1 -1.1104 9.45346 5.44526 26.3106
659 1 -1.1104 9.54872 10.94 23.5062
660 1 -1.1104 9.44092 5.46742 23.5709
661 2 2.2208 7.9853 9.56589 22.1133
662 1 -1.1104 9.61632 8.36234 26.5065
663 2 2.2208 8.0712 12.502 25.0963
664 2 2.2208 8.04876 6.81299 24.8818
665 2 2.2208 10.9181 6.98382 22.1883
666 2 2.2208 10.7549 12.4428 22.156
667 1 -1.1104 12.3073 8.34069 23.4213
668 1 -1.1104 12.2601 8.25286 26.4367
669 1 -1.1104 12.2725 5.58658 23.6406
670 1 -1.1104 12.2693 11.1196 23.4464
671 2 2.2208 10.9462 9.58181 24.964
672 1 -1.1104 12.3456 5.41728 26.4391
673 1 -1.1104 12.3117 11.0744 26.3523
674 1 -1.1104 9.48774 8.1829 23.6641
586 2 2.2208 10.8528 18.0147 22.0219
469 1 -1.1104 9.27431 19.3695 23.4679
505 1 -1.1104 1.10537 19.2388 20.74
522 1 -1.1104 3.78519 13.5704 20.7344
524 1 -1.1104 4.00666 19.2802 20.7408
495 1 -1.1104 6.69562 19.4114 26.3553
503 1 -1.1104 1.01899 13.8387 20.8119
557 1 -1.1104 9.3657 16.5775 23.6559
587 2 2.2208 2.38418 15.1252 22.1388
590 2 2.2208 2.42543 20.6923 22.167
615 1 -1.1104 3.82067 16.6491 23.4367
616 1 -1.1104 1.01393 16.5831 23.6216
619 1 -1.1104 3.79241 13.9489 26.3413
622 1 -1.1104 4.00442 16.7742 26.315
650 2 2.2208 2.38431 18.0235 24.9691
651 1 -1.1104 3.85823 19.4667 26.426
652 2 2.2208 5.20536 17.9605 22.0764
654 1 -1.1104 0.991363 13.7598 23.5823
656 1 -1.1104 0.938905 19.3496 23.4575
676 2 2.2208 5.18432 15.3103 24.8751
677 2 2.2208 5.17207 20.8487 24.8708
681 1 -1.1104 3.73586 19.4037 23.4984
683 1 -1.1104 3.71343 13.7339 23.5556
685 1 -1.1104 1.11321 19.4843 26.3937
686 1 -1.1104 1.12172 16.6581 26.4304
687 1 -1.1104 0.975156 13.778 26.3959
517 1 -1.1104 6.63559 16.6293 20.6047
675 1 -1.1104 6.53818 13.9403 23.5076
425 1 -1.1104 12.3115 19.4563 26.3429
431 1 -1.1104 12.2454 16.6223 23.6285
532 2 2.2208 8.08088 20.8496 22.1469
494 2 2.2208 8.03678 18.0187 24.9677
496 1 -1.1104 9.411 13.8562 26.3311
509 1 -1.1104 6.76564 19.3589 20.697
537 1 -1.1104 12.1488 13.9189 20.8079
507 1 -1.1104 6.51835 13.7464 20.8063
556 1 -1.1104 9.38304 16.5432 20.7878
539 1 -1.1104 12.3009 19.4205 20.6063
467 1 -1.1104 12.287 16.8097 26.4099
655 2 2.2208 -0.309704 12.3346 22.1883
343 2 2.2208 -0.481771 9.54924 13.6864
325 2 2.2208 5.31473 9.50395 13.7294
331 2 2.2208 5.17993 20.7964 13.6832
354 2 2.2208 10.8624 6.8977 27.7755
8468 2 2.2208 13.565 -4.39125 13.7645
596 2 2.2208 -0.431957 3.97733 24.8897
340 2 2.2208 2.38115 15.0512 27.8344
346 2 2.2208 8.00127 4.05808 27.6602
336 2 2.2208 13.7126 18.0303 13.6858
9188 2 2.2208 -0.471264 6.83005 27.7591
350 2 2.2208 2.51464 9.63397 27.6144
344 2 2.2208 10.7667 1.20571 27.8413
353 2 2.2208 10.9647 18.0087 27.7891
328 2 2.2208 10.6527 9.61342 13.6568
9216 2 2.2208 13.6956 3.99217 27.8376
688 2 2.2208 5.35515 23.5846 5.41649
689 2 2.2208 5.2932 29.3771 5.21991
690 1 -1.1104 0.989978 24.9959 1.09186
691 1 -1.1104 1.27733 24.9789 3.92278
692 1 -1.1104 1.01965 22.2211 1.08399
693 1 -1.1104 0.996987 27.8171 1.16639
694 2 2.2208 5.46387 26.3995 2.48297
695 1 -1.1104 1.1085 22.1523 3.76523
696 1 -1.1104 0.981424 27.7479 3.91874
697 1 -1.1104 4.01119 25.006 1.21869
698 2 2.2208 2.53696 23.6268 2.49007
699 2 2.2208 2.50313 29.1939 2.485
700 1 -1.1104 4.12086 24.9902 3.88027
701 2 2.2208 2.47648 26.3955 5.21609
702 1 -1.1104 3.87893 22.187 1.20063
703 1 -1.1104 3.83287 27.7493 1.01481
704 1 -1.1104 3.97118 22.3773 3.8737
705 1 -1.1104 3.85213 27.7584 3.79113
832 1 -1.1104 1.10321 27.571 6.60407
994 2 2.2208 2.59081 43.1678 -0.229541
708 1 -1.1104 12.4158 41.8891 12.438
1021 2 2.2208 8.11976 31.9965 -0.277664
919 1 -1.1104 9.56677 41.8622 12.1567
711 1 -1.1104 6.66546 22.2272 1.29269
710 1 -1.1104 6.97486 24.9642 3.96492
709 1 -1.1104 6.6887 24.9196 0.931555
714 1 -1.1104 6.70588 27.8745 3.69568
713 1 -1.1104 6.60428 22.2089 3.92133
712 1 -1.1104 6.73573 27.8034 0.972185
715 2 2.2208 10.8887 23.7478 5.15787
716 2 2.2208 10.7362 29.2985 5.19147
717 1 -1.1104 12.2804 24.9659 1.06443
718 1 -1.1104 12.3752 24.9995 3.84521
719 1 -1.1104 12.2883 22.2077 1.04961
720 1 -1.1104 12.2778 27.7651 0.937173
721 2 2.2208 10.8819 26.5542 2.40591
722 1 -1.1104 12.3089 22.3232 3.88096
723 1 -1.1104 12.4398 27.8073 3.75072
724 1 -1.1104 9.51725 25.0936 0.933971
725 2 2.2208 8.13799 23.6241 2.41282
726 2 2.2208 8.00109 29.1614 2.39836
727 1 -1.1104 9.62312 25.0727 3.7185
728 2 2.2208 8.06563 26.4089 5.15213
729 1 -1.1104 9.35538 22.3432 1.0021
730 1 -1.1104 9.49463 27.7688 0.979858
731 1 -1.1104 9.31565 22.3402 3.82559
732 1 -1.1104 9.49105 27.7838 3.8236
866 1 -1.1104 9.37291 22.0942 6.60478
863 1 -1.1104 12.2238 22.2781 6.58093
830 1 -1.1104 6.86988 25.0243 6.70012
867 1 -1.1104 9.43701 27.7726 6.66626
9884 2 2.2208 -0.419466 43.3284 13.7848
736 2 2.2208 5.20306 35.0025 5.24305
737 1 -1.1104 0.888593 30.6997 0.912957
738 1 -1.1104 0.979417 36.2298 1.08893
740 1 -1.1104 1.04954 30.6229 3.71997
741 1 -1.1104 1.15493 36.1641 3.91066
743 1 -1.1104 0.940132 33.4339 1.06873
744 2 2.2208 5.30234 32.0385 2.51867
745 2 2.2208 5.22067 37.6186 2.50157
746 1 -1.1104 1.23452 33.4341 3.86484
748 1 -1.1104 3.85133 30.6464 1.16352
749 1 -1.1104 3.89367 36.1917 1.04516
750 2 2.2208 2.45089 34.7414 2.46692
751 1 -1.1104 3.84096 30.5911 3.86314
752 1 -1.1104 3.90155 36.3572 3.95095
753 2 2.2208 2.45586 32.0184 5.26118
754 2 2.2208 2.46808 37.6088 5.3019
755 1 -1.1104 3.84011 33.3169 1.25213
756 1 -1.1104 4.0294 33.43 3.87976
892 1 -1.1104 3.80751 30.5952 6.55037
9805 2 2.2208 13.6188 46.0308 8.15563
893 1 -1.1104 3.89716 36.1609 6.78967
894 1 -1.1104 3.87872 33.4692 6.69117
889 1 -1.1104 6.77299 36.3099 6.67545
1019 2 2.2208 5.3101 34.8642 -0.28965
886 1 -1.1104 0.886849 30.5024 6.47787
1555 1 -1.1104 9.37179 47.6384 6.75143
10050 2 2.2208 -0.42212 34.8276 -0.331219
747 1 -1.1104 6.78854 33.4015 3.84975
742 1 -1.1104 6.70832 36.2327 3.88467
739 1 -1.1104 6.62139 36.2647 1.11333
761 1 -1.1104 6.70403 30.6156 3.68937
762 1 -1.1104 6.60775 33.3799 1.0458
760 1 -1.1104 6.71663 30.5169 1.0266
763 2 2.2208 10.864 34.9593 5.3434
764 1 -1.1104 12.457 30.5669 1.11552
765 1 -1.1104 12.3205 36.3084 1.25032
766 1 -1.1104 12.341 30.6024 3.97524
767 1 -1.1104 12.3904 36.2644 4.01369
768 1 -1.1104 12.2893 33.3715 1.10678
769 2 2.2208 10.9773 32.0616 2.43391
770 2 2.2208 10.9536 37.6221 2.63162
771 1 -1.1104 12.1688 33.5123 3.9059
772 1 -1.1104 9.47247 30.6597 1.16184
773 1 -1.1104 9.43455 36.2663 1.07401
774 2 2.2208 8.06226 34.9278 2.48003