ITEM: TIMESTEP
80000
ITEM: NUMBER OF ATOMS
17910
ITEM: BOX BOUNDS pp pp pp
-3.5775603908902803e-01 2.7697756039089306e+01
-4.2531842692893020e+00 3.3233318426928940e+02
-3.5415271083586497e-01 2.7694152710835237e+01
ITEM: ATOMS id type q x y z
1 2 2.2208 5.46505 1.36928 5.05879
2 1 -1.1104 1.16319 -2.68955 0.901671
3 1 -1.1104 1.34631 2.91256 0.969854
6 1 -1.1104 1.0194 -2.99477 3.66916
7 1 -1.1104 1.27498 2.80058 3.77105
10 1 -1.1104 1.26624 0.0737311 0.998056
12 2 2.2208 5.3862 -1.54608 2.35111
13 2 2.2208 5.50185 4.17096 2.43423
14 1 -1.1104 1.20985 -0.173793 3.69282
16 1 -1.1104 4.15035 -2.88999 0.977169
17 1 -1.1104 4.15603 2.72402 1.1537
18 2 2.2208 2.67827 1.43876 2.4131
19 1 -1.1104 3.85451 -2.80007 3.82027
20 1 -1.1104 4.06285 2.82586 3.97401
21 2 2.2208 2.58093 -1.33616 5.3125
22 2 2.2208 2.52823 4.25787 5.26748
23 1 -1.1104 4.03854 -0.0112635 1.04591
24 1 -1.1104 3.74929 -0.0790216 3.7964
338 2 2.2208 2.57958 -1.37668 -0.376178
174 1 -1.1104 3.9582 0.029061 6.5675
337 2 2.2208 5.51903 1.23042 -0.329693
8447 2 2.2208 5.34274 -4.27405 5.13773
166 1 -1.1104 1.19173 -2.74419 6.6471
172 1 -1.1104 3.88615 -2.72825 6.70685
173 1 -1.1104 3.98691 2.87743 6.72358
167 1 -1.1104 1.17026 2.89808 6.69388
170 1 -1.1104 1.06785 -0.0627463 6.67209
9177 2 2.2208 -0.108785 4.1927 2.35238
9175 2 2.2208 -0.136202 1.34295 5.11892
9174 2 2.2208 -0.210038 -1.38981 2.36914
8448 2 2.2208 -0.272988 -4.23934 5.19866
5 1 -1.1104 6.81986 2.78968 0.995019
9 1 -1.1104 6.8816 2.8107 3.83625
15 1 -1.1104 6.89269 -0.0369209 3.75458
4 1 -1.1104 6.96012 -2.99257 1.00403
8 1 -1.1104 6.73875 -2.77249 3.68315
11 1 -1.1104 6.86248 -0.150352 1.04047
31 2 2.2208 10.9846 1.47074 5.24423
32 1 -1.1104 12.4879 -2.55388 1.18927
33 1 -1.1104 12.4719 2.82383 0.962467
34 1 -1.1104 12.3564 -2.80042 3.81253
35 1 -1.1104 12.4019 2.86895 3.75397
36 1 -1.1104 12.4318 0.118636 0.869734
37 2 2.2208 11.0494 -1.35096 2.45562
39 1 -1.1104 12.4323 -0.0447804 3.70841
40 1 -1.1104 9.63315 -2.79883 0.877991
41 1 -1.1104 9.68884 2.82217 1.00403
42 2 2.2208 8.24355 1.29143 2.44124
43 1 -1.1104 9.59406 -2.94519 3.73433
44 1 -1.1104 9.70409 3.00558 3.82269
45 2 2.2208 8.1879 -1.48682 5.10207
47 1 -1.1104 9.66515 -0.14154 0.906415
48 1 -1.1104 9.60709 0.0418282 3.895
38 2 2.2208 10.9211 4.32206 2.34375
46 2 2.2208 8.14368 4.26808 5.28115
207 1 -1.1104 12.2919 -0.134107 6.46889
171 1 -1.1104 6.78037 -0.110547 6.58054
210 1 -1.1104 9.5042 0.120069 6.56832
206 1 -1.1104 12.4064 2.88088 6.64933
205 1 -1.1104 12.4211 -2.96661 6.64877
208 1 -1.1104 9.61372 -2.7124 6.48599
54 2 2.2208 5.33626 6.92582 5.24427
55 2 2.2208 5.3894 12.5198 5.14978
56 1 -1.1104 1.11127 8.3885 1.02472
58 1 -1.1104 1.0168 8.37589 3.81186
60 1 -1.1104 1.13662 5.57239 1.0342
61 1 -1.1104 1.09987 11.2192 1.03368
66 2 2.2208 5.27961 9.68916 2.36193
67 1 -1.1104 1.07628 5.48441 3.88424
68 1 -1.1104 1.17318 11.2216 3.87663
71 1 -1.1104 3.91163 8.30151 0.918225
72 2 2.2208 2.62796 6.90088 2.5085
73 2 2.2208 2.43783 12.5866 2.33271
74 1 -1.1104 3.96794 8.22482 3.68502
75 2 2.2208 2.55024 9.74553 5.21006
76 1 -1.1104 3.96448 5.53247 1.09419
77 1 -1.1104 3.68758 11.0934 1.16997
79 1 -1.1104 3.83264 5.61909 3.92498
80 1 -1.1104 4.02682 11.1388 3.73154
64 1 -1.1104 6.62965 11.1648 0.986796
78 1 -1.1104 3.95463 11.1924 6.55658
234 1 -1.1104 1.30095 8.27797 6.58933
349 2 2.2208 5.34288 6.87931 -0.374816
238 1 -1.1104 3.9641 8.45158 6.57433
236 1 -1.1104 1.20233 5.68195 6.74393
9180 2 2.2208 -0.287662 9.73858 2.4619
9181 2 2.2208 -0.318234 12.5044 5.18817
63 1 -1.1104 6.7026 5.65383 1.07396
69 1 -1.1104 6.61084 5.52577 3.95638
57 1 -1.1104 6.72944 8.33001 0.957745
59 1 -1.1104 6.74846 8.453 3.77872
70 1 -1.1104 6.87532 11.073 3.7667
84 2 2.2208 11.0614 7.1092 5.25557
85 2 2.2208 10.9783 12.5706 5.18565
86 1 -1.1104 12.4932 8.34655 1.0258
87 1 -1.1104 12.3493 8.68758 3.9521
88 1 -1.1104 12.3879 5.4931 1.00403
89 1 -1.1104 12.2176 11.2104 0.95562
91 2 2.2208 10.9134 9.88658 2.41313
92 1 -1.1104 12.4985 5.76002 3.88368
93 1 -1.1104 12.4388 11.417 3.79296
94 1 -1.1104 9.56807 8.47281 1.12281
95 2 2.2208 8.23558 7.07166 2.51967
96 2 2.2208 8.02708 12.4493 2.37285
97 1 -1.1104 9.56987 8.31798 3.78339
98 2 2.2208 8.22991 9.71193 5.30317
99 1 -1.1104 9.58413 5.68462 0.927629
100 1 -1.1104 9.39891 11.0841 1.068
102 1 -1.1104 9.56541 5.62636 3.82782
103 1 -1.1104 9.51609 11.0514 3.91428
269 1 -1.1104 9.56091 5.63617 6.62571
101 1 -1.1104 9.65325 11.1565 6.67241
266 1 -1.1104 12.2552 5.6939 6.60362
235 1 -1.1104 6.82442 8.27992 6.61021
90 1 -1.1104 12.3647 11.2829 6.7382
265 1 -1.1104 12.4704 8.4768 6.73378
106 2 2.2208 5.42337 18.2374 5.39487
107 1 -1.1104 1.07714 14.0805 0.969746
109 1 -1.1104 1.17838 19.6031 1.1614
113 1 -1.1104 0.943096 13.8071 3.72597
114 1 -1.1104 1.15419 19.6386 3.91526
116 1 -1.1104 1.05455 16.7995 1.08522
119 2 2.2208 5.31869 15.4339 2.42989
120 2 2.2208 5.37861 21.0602 2.70602
121 1 -1.1104 1.19559 16.6606 3.87018
123 1 -1.1104 3.85057 14.0265 0.945916
125 1 -1.1104 4.00631 19.6312 1.07909
127 2 2.2208 2.59457 18.1393 2.56657
128 1 -1.1104 3.73117 14.1914 3.70412
129 1 -1.1104 3.91871 19.5362 4.02148
130 2 2.2208 2.52601 15.4478 5.28593
131 2 2.2208 2.55438 21.0104 5.43384
132 1 -1.1104 3.87848 16.811 1.12072
134 1 -1.1104 3.93875 16.7448 3.97315
117 1 -1.1104 1.06858 16.6488 6.72062
124 1 -1.1104 4.00202 13.8817 6.55326
9042 2 2.2208 -0.340423 15.3832 2.48673
8909 2 2.2208 -0.188679 18.0498 5.23405
9041 2 2.2208 -0.294631 21.112 2.4289
108 1 -1.1104 1.20247 13.9196 6.69131
341 2 2.2208 5.48232 18.344 -0.220678
340 2 2.2208 2.41885 15.4398 -0.255869
342 2 2.2208 2.57194 20.9766 -0.285444
9182 2 2.2208 -0.170936 18.3108 -0.302027
140 1 -1.1104 6.75675 16.9349 1.13846
138 1 -1.1104 6.75924 19.7137 1.31269
115 1 -1.1104 6.63253 13.8903 3.76346
139 1 -1.1104 6.71926 19.5469 4.01183
110 1 -1.1104 6.68616 13.9276 1.01676
122 1 -1.1104 6.74273 16.5958 3.9979
8908 2 2.2208 13.6714 18.1843 2.58906
141 2 2.2208 11.0023 18.1393 5.24551
142 1 -1.1104 12.3659 14.0167 1.16071
144 1 -1.1104 12.3879 19.5867 1.11458
146 1 -1.1104 12.3128 13.9649 4.02946
147 1 -1.1104 12.2851 19.8246 3.96691
148 1 -1.1104 12.314 16.8046 1.27919
150 2 2.2208 11.0371 15.2515 2.59193
151 2 2.2208 11.0513 21.0227 2.54156
152 1 -1.1104 12.3435 16.7401 3.95674
153 1 -1.1104 9.39758 13.7623 1.00547
155 1 -1.1104 9.59595 19.5541 1.14313
157 2 2.2208 8.23964 18.1581 2.63685
158 1 -1.1104 9.50636 13.7678 3.81685
159 1 -1.1104 9.5824 19.4642 3.82172
160 2 2.2208 8.19926 15.385 5.21877
161 2 2.2208 8.12845 21.043 5.26047
162 1 -1.1104 9.54363 16.6922 1.11596
164 1 -1.1104 9.60989 16.6388 3.94571
143 1 -1.1104 12.2901 14.0179 6.81873
156 1 -1.1104 9.57969 19.5518 6.58477
163 1 -1.1104 9.72672 16.8044 6.58131
154 1 -1.1104 9.55433 13.9457 6.59999
353 2 2.2208 10.8588 18.2117 -0.191641
352 2 2.2208 8.16944 15.356 -0.198888
357 2 2.2208 8.30518 20.9766 -0.245003
8452 2 2.2208 2.56879 -4.21272 7.95139
200 2 2.2208 -0.262444 -1.45916 8.10279
199 2 2.2208 -0.205078 4.23108 8.08703
175 2 2.2208 5.38016 1.34623 10.9617
176 1 -1.1104 1.07787 -2.85142 12.167
177 1 -1.1104 1.0118 2.73801 12.2278
180 1 -1.1104 1.19102 -2.79505 9.50734
181 1 -1.1104 1.1635 2.80255 9.44674
184 1 -1.1104 1.01532 0.0220286 12.3753
186 2 2.2208 5.27008 -1.38384 8.02511
187 2 2.2208 5.37348 4.08919 8.04036
188 1 -1.1104 1.27411 0.0653284 9.45862
190 1 -1.1104 3.96766 -2.85354 12.2581
191 1 -1.1104 3.78252 2.77835 12.3047
192 2 2.2208 2.57751 1.39102 7.98572
193 1 -1.1104 4.00484 -2.688 9.40636
194 1 -1.1104 3.95285 2.79382 9.43773
195 2 2.2208 2.66102 -1.39012 10.6911
197 1 -1.1104 3.9062 0.0232869 12.1334
198 1 -1.1104 4.13051 0.166746 9.38283
196 2 2.2208 2.52281 4.08735 10.9016
201 2 2.2208 -0.28322 1.26253 10.8432
317 2 2.2208 2.62893 1.23714 13.6264
315 2 2.2208 -0.285607 4.02539 13.504
312 2 2.2208 -0.137611 -1.49151 13.5708
209 1 -1.1104 9.59694 2.86935 6.57341
179 1 -1.1104 6.68397 2.87673 12.4898
182 1 -1.1104 6.83736 -2.8823 9.25825
185 1 -1.1104 6.72722 -0.0156793 12.2396
169 1 -1.1104 6.89378 2.75303 6.40734
168 1 -1.1104 6.81391 -2.99957 6.3903
183 1 -1.1104 6.72929 2.67857 9.44328
178 1 -1.1104 6.79382 -2.88279 12.0871
189 1 -1.1104 6.83238 -0.0230653 9.38919
322 2 2.2208 11.0363 -1.36236 13.5264
211 2 2.2208 10.8768 1.38081 10.6365
212 1 -1.1104 12.4132 -2.77792 12.2311
213 1 -1.1104 12.4642 2.80749 12.1603
214 1 -1.1104 12.4524 -2.91589 9.43153
215 1 -1.1104 12.242 2.73963 9.40681
216 1 -1.1104 12.4215 -0.0465929 12.026
217 2 2.2208 10.9919 -1.57313 7.92969
218 2 2.2208 10.9398 4.2338 7.93508
219 1 -1.1104 12.3892 -0.100909 9.24931
220 1 -1.1104 9.62575 -2.76055 12.3539
221 1 -1.1104 9.5478 2.74683 12.1043
222 2 2.2208 8.27613 1.31647 7.97604
223 1 -1.1104 9.5696 -2.81856 9.37424
224 1 -1.1104 9.39432 2.78636 9.30739
225 2 2.2208 8.12889 -1.46958 10.7884
226 2 2.2208 8.12698 4.10174 10.8546
227 1 -1.1104 9.51366 -0.00965293 12.2452
228 1 -1.1104 9.58125 -0.030296 9.34745
8469 2 2.2208 8.26672 -4.17961 13.6809
323 2 2.2208 10.9973 4.1773 13.5516
30 2 2.2208 -0.0708546 12.529 11.0019
29 2 2.2208 -0.293213 6.8722 10.7701
9110 2 2.2208 -0.193444 9.69074 8.20275
62 1 -1.1104 1.20084 10.9961 6.54437
239 1 -1.1104 4.06148 5.68683 6.75671
240 2 2.2208 5.40042 6.9408 10.8005
241 2 2.2208 5.47061 12.6447 10.7398
242 1 -1.1104 1.20545 8.41306 12.2636
244 1 -1.1104 1.17619 8.32487 9.48122
246 1 -1.1104 1.12318 5.5895 12.2872
247 1 -1.1104 1.29089 11.2226 12.1857
250 2 2.2208 5.40787 9.86377 8.00121
251 1 -1.1104 1.21729 5.54513 9.37562
252 1 -1.1104 1.55236 11.3095 9.50935
255 1 -1.1104 3.94241 8.38151 12.2045
256 2 2.2208 2.6864 7.03195 8.07596
257 2 2.2208 2.56171 12.5739 7.94908
258 1 -1.1104 4.04036 8.42251 9.47084
259 2 2.2208 2.59199 9.76822 10.851
260 1 -1.1104 3.83926 5.53788 12.2565
261 1 -1.1104 4.02299 11.2546 12.2178
262 1 -1.1104 3.96458 5.52157 9.53219
263 1 -1.1104 4.28337 11.1656 9.52461
325 2 2.2208 5.52406 9.71279 13.5069
324 2 2.2208 2.54999 6.99752 13.6867
343 2 2.2208 -0.191686 9.70616 13.6137
65 1 -1.1104 6.80182 11.0552 6.60543
267 1 -1.1104 9.57588 8.36977 6.82298
237 1 -1.1104 6.83847 5.58242 6.73567
243 1 -1.1104 6.80104 8.37299 12.2249
248 1 -1.1104 6.6741 5.69325 12.2977
245 1 -1.1104 6.80641 8.4805 9.37329
253 1 -1.1104 6.88197 5.67118 9.51696
249 1 -1.1104 6.82638 11.1937 12.183
254 1 -1.1104 6.87232 11.2305 9.41072
264 1 -1.1104 9.65762 11.1311 9.41634
268 1 -1.1104 9.61263 5.47731 9.31076
270 1 -1.1104 9.61028 11.1726 12.2001
271 1 -1.1104 9.47765 5.71588 12.3087
272 2 2.2208 8.10975 9.83585 10.7533
273 1 -1.1104 9.44479 8.41303 9.45056
274 2 2.2208 8.25135 12.5272 7.99183
275 2 2.2208 8.23692 6.93228 8.07779
276 2 2.2208 10.9572 6.97065 10.8296
277 2 2.2208 11.1168 12.6732 10.9773
278 1 -1.1104 12.4691 8.23081 12.1686
279 1 -1.1104 12.3696 8.49127 9.34895
280 1 -1.1104 12.3698 5.44463 12.2146
281 1 -1.1104 12.5007 11.2407 12.3161
282 2 2.2208 10.9682 9.83328 8.14139
283 1 -1.1104 12.4067 5.54456 9.48949
284 1 -1.1104 12.5131 11.3055 9.46244
285 1 -1.1104 9.65003 8.36582 12.1849
329 2 2.2208 8.21528 12.5565 13.5336
328 2 2.2208 10.9532 9.73614 13.5808
327 2 2.2208 8.20311 6.99911 13.6532
8883 2 2.2208 -0.24809 20.8482 7.94745
133 1 -1.1104 3.88071 16.7525 6.81316
302 1 -1.1104 1.26695 19.537 6.58371
233 2 2.2208 -0.272947 18.196 10.762
126 1 -1.1104 3.96499 19.5577 6.67479
286 1 -1.1104 3.98014 19.5154 12.3319
287 1 -1.1104 4.10624 13.9789 12.3382
291 1 -1.1104 1.12112 19.5909 9.27947
292 1 -1.1104 1.06563 16.8555 9.48528
293 2 2.2208 5.2994 20.9321 8.12471
294 1 -1.1104 1.25154 14.0784 9.51649
295 2 2.2208 5.34255 15.3898 7.97451
298 1 -1.1104 1.11798 19.6404 12.2607
299 1 -1.1104 1.28864 14.0275 12.1862
300 2 2.2208 5.33891 18.1713 10.8707
301 1 -1.1104 3.9258 19.4101 9.4845
303 2 2.2208 2.50364 18.1364 8.1068
304 1 -1.1104 3.96461 16.7427 9.44112
305 1 -1.1104 3.99356 13.9411 9.40233
307 1 -1.1104 1.09323 16.9544 12.2771
308 1 -1.1104 3.88264 16.732 12.385
309 2 2.2208 2.45177 20.9563 10.9563
310 2 2.2208 2.64492 15.4331 10.7642
332 2 2.2208 5.35052 15.4222 13.6353
8882 2 2.2208 -0.21936 15.1937 8.05917
320 2 2.2208 -0.236387 15.395 13.5294
135 1 -1.1104 12.2909 16.8662 9.60061
232 1 -1.1104 9.5228 19.5466 9.42135
83 1 -1.1104 12.3858 16.9423 12.2855
81 1 -1.1104 12.4239 14.118 9.61969
82 1 -1.1104 12.3291 19.6427 9.48825
105 2 2.2208 10.9083 20.9608 8.02137
27 1 -1.1104 12.4269 14.0354 12.3981
137 1 -1.1104 9.57267 19.4814 12.2999
111 1 -1.1104 6.77041 13.9833 6.58573
104 2 2.2208 11.0552 15.3844 8.08916
203 2 2.2208 8.13226 20.9757 11
149 1 -1.1104 12.4419 16.7366 6.5113
145 1 -1.1104 12.3244 19.6054 6.69901
204 1 -1.1104 9.58697 16.8052 12.1368
49 1 -1.1104 12.473 19.5804 12.3681
202 2 2.2208 8.19997 15.456 10.7715
231 1 -1.1104 9.54728 16.6619 9.31435
26 2 2.2208 10.9434 18.2832 10.897
165 2 2.2208 8.22042 18.1727 8.08842
311 1 -1.1104 9.69549 13.9131 9.54018
112 1 -1.1104 6.69698 19.5952 6.69917
118 1 -1.1104 6.8409 16.7218 6.60646
289 1 -1.1104 6.75712 16.7017 9.39636
297 1 -1.1104 6.92394 14.1628 12.3247
290 1 -1.1104 6.68831 13.9973 9.4361
296 1 -1.1104 6.82996 19.6827 12.3457
288 1 -1.1104 6.75252 19.4494 9.66176
306 1 -1.1104 6.51879 16.8607 12.3305
136 1 -1.1104 9.68307 13.9819 12.2489
358 2 2.2208 5.5108 1.37726 16.4908
359 1 -1.1104 1.17852 -2.98643 17.8336
360 1 -1.1104 1.16062 2.63153 17.8628
363 1 -1.1104 1.1729 -2.95845 15.027
365 1 -1.1104 1.18261 2.83079 14.9743
371 1 -1.1104 1.28704 -0.0641176 17.8094
373 2 2.2208 5.49921 -1.51126 19.2237
375 1 -1.1104 1.23784 0.00328525 14.9315
379 1 -1.1104 3.91755 -2.79549 17.8868
380 1 -1.1104 4.06075 2.78099 17.7632
381 2 2.2208 2.65101 1.35297 19.2964
382 1 -1.1104 3.88421 -2.85548 15.0349
384 1 -1.1104 4.05673 2.74749 15.0312
386 2 2.2208 2.6536 -1.5058 16.4724
387 2 2.2208 2.56903 4.02249 16.4764
388 1 -1.1104 4.14679 -0.170481 17.7174
389 1 -1.1104 4.09843 -0.0219501 15.0565
374 2 2.2208 5.39055 4.26114 19.2885
316 2 2.2208 5.36371 -1.46633 13.7054
385 1 -1.1104 3.99306 2.89213 20.6859
366 1 -1.1104 1.2289 2.7818 20.633
319 2 2.2208 5.36306 4.21265 13.7229
390 1 -1.1104 4.06754 0.110568 20.664
376 1 -1.1104 1.15052 -0.0653865 20.5976
397 2 2.2208 -0.112231 4.09457 19.2051
394 2 2.2208 -0.150665 1.18897 16.3556
395 2 2.2208 -0.116618 -1.61512 19.1959
372 1 -1.1104 6.9024 -0.0201918 17.909
369 1 -1.1104 6.81521 2.67862 15.1468
362 1 -1.1104 6.96592 2.77593 17.8506
361 1 -1.1104 6.83218 -2.73458 17.7359
367 1 -1.1104 6.87372 -2.75961 14.9367
377 1 -1.1104 6.95924 -0.107574 15.0898
8815 2 2.2208 11.1023 -4.17421 16.5425
8814 2 2.2208 8.25341 -4.09899 19.2191
401 2 2.2208 11.0413 1.49383 16.4818
402 1 -1.1104 12.4601 -2.76959 17.7842
403 1 -1.1104 12.4896 2.81066 17.8774
404 1 -1.1104 12.4335 -2.7277 14.9691
406 1 -1.1104 12.3218 2.67813 15.0284
408 1 -1.1104 12.5263 -0.018238 17.6937
409 2 2.2208 11.0817 -1.4032 19.2703
410 2 2.2208 11.0607 4.13348 19.2155
411 1 -1.1104 12.4054 0.010711 14.8417
413 1 -1.1104 9.65614 -2.78054 17.8707
414 1 -1.1104 9.70593 2.77135 17.8637
415 2 2.2208 8.20556 1.41493 19.2336
416 1 -1.1104 9.6246 -2.8916 15.1273
418 1 -1.1104 9.64212 2.99097 15.1417
420 2 2.2208 8.3868 -1.48233 16.4252
421 2 2.2208 8.09955 4.31159 16.5586
422 1 -1.1104 9.73924 0.101742 17.9501
423 1 -1.1104 9.64411 0.012531 15.1206
424 1 -1.1104 9.66602 -0.0359359 20.6561
417 1 -1.1104 9.6359 -2.74068 20.6682
321 2 2.2208 8.29663 1.27187 13.7123
368 1 -1.1104 6.82986 -2.91639 20.7884
412 1 -1.1104 12.3414 -0.09479 20.5385
405 1 -1.1104 12.5863 -2.89718 20.5046
434 2 2.2208 5.41792 7.02424 16.476
435 2 2.2208 5.31896 12.6642 16.3825
436 1 -1.1104 1.42508 8.47816 17.9431
438 1 -1.1104 1.16521 8.39381 15.0036
442 1 -1.1104 1.25199 5.35516 17.7943
443 1 -1.1104 1.07641 11.1966 17.9511
446 2 2.2208 5.30584 9.88179 19.151
447 1 -1.1104 1.30368 5.52793 15.1161
449 1 -1.1104 1.02681 11.0387 14.9399
455 1 -1.1104 4.11308 8.31894 17.8525
456 2 2.2208 2.62397 6.9352 19.1471
457 2 2.2208 2.51084 12.6309 19.231
458 1 -1.1104 3.89125 8.35171 14.9845
460 2 2.2208 2.53618 9.81166 16.4843
461 1 -1.1104 4.03602 5.53776 17.8314
462 1 -1.1104 3.87968 11.1515 17.8082
463 1 -1.1104 4.08684 5.4248 15.1273
465 1 -1.1104 3.95139 11.2882 15.1034
453 1 -1.1104 6.84091 11.264 14.9015
450 1 -1.1104 1.11177 11.3408 20.6022
464 1 -1.1104 3.98138 5.76225 20.6377
439 1 -1.1104 1.1781 8.45634 20.7034
459 1 -1.1104 4.12428 8.55043 20.5213
618 2 2.2208 -0.274495 12.6305 16.4053
591 2 2.2208 -0.0578418 6.83111 16.4672
592 2 2.2208 -0.330517 9.8439 19.2117
326 2 2.2208 2.67791 12.5611 13.7138
440 1 -1.1104 6.66957 8.31434 14.9473
451 1 -1.1104 6.71723 5.64936 15.1106
444 1 -1.1104 6.87149 5.63454 18.0131
445 1 -1.1104 6.74636 11.1536 17.6291
437 1 -1.1104 6.87636 8.36549 17.7462
452 1 -1.1104 6.79946 5.64486 20.6908
454 1 -1.1104 6.7484 11.2325 20.5798
470 2 2.2208 10.8968 6.93879 16.391
471 2 2.2208 11.0558 12.5789 16.4274
472 1 -1.1104 12.6759 8.34955 17.7915
473 1 -1.1104 12.2115 8.36865 15.0676
475 1 -1.1104 12.2908 5.50005 17.7637
476 1 -1.1104 12.2189 11.1957 17.7867
477 2 2.2208 11.1466 9.69658 19.1331
478 1 -1.1104 12.4123 5.57515 14.9017
480 1 -1.1104 12.5522 11.2491 15.0496
482 1 -1.1104 9.83623 8.34629 17.7987
483 2 2.2208 8.2166 7.01545 19.2923
484 2 2.2208 8.25058 12.5924 19.3561
485 1 -1.1104 9.60904 8.35595 15.0043
487 2 2.2208 8.18134 9.89489 16.3948
488 1 -1.1104 9.48448 5.60945 17.9118
489 1 -1.1104 9.60208 11.0987 17.8084
490 1 -1.1104 9.59165 5.51284 15.1261
492 1 -1.1104 9.74353 11.2945 14.9197
481 1 -1.1104 12.3331 11.1712 20.5385
479 1 -1.1104 12.5977 5.59067 20.6341
491 1 -1.1104 9.66192 5.59284 20.7002
493 1 -1.1104 9.57447 11.2571 20.7521
486 1 -1.1104 9.65192 8.23079 20.6897
474 1 -1.1104 12.5384 8.35951 20.583
497 2 2.2208 5.19119 18.2365 16.5584
498 1 -1.1104 1.12422 13.9676 17.7221
499 1 -1.1104 1.11853 19.5516 17.851
502 1 -1.1104 0.981433 13.967 14.9198
504 1 -1.1104 1.23891 19.6274 15.0653
510 1 -1.1104 1.10707 16.7929 17.8582
512 2 2.2208 5.26507 15.2295 19.2754
513 2 2.2208 5.32914 20.9779 19.2918
514 1 -1.1104 1.14008 16.843 15.0177
518 1 -1.1104 3.88533 14.0464 17.9405
519 1 -1.1104 3.80404 19.7571 17.8617
520 2 2.2208 2.47901 18.1978 19.1702
521 1 -1.1104 3.81806 14.1479 15.1605
523 1 -1.1104 3.8429 19.6112 15.1595
525 2 2.2208 2.49125 15.4915 16.4229
526 2 2.2208 2.39633 21.0517 16.4017
527 1 -1.1104 3.83999 16.8141 17.8274
528 1 -1.1104 3.93237 16.7943 15.0844
511 1 -1.1104 6.76402 16.7342 17.9139
524 1 -1.1104 3.99321 19.5142 20.6839
529 1 -1.1104 3.81443 16.8 20.7102
509 1 -1.1104 6.72929 19.626 20.8161
427 2 2.2208 -0.291278 15.4928 19.4188
428 2 2.2208 -0.285066 21.1872 19.2838
426 2 2.2208 -0.306849 18.2622 16.6135
331 2 2.2208 5.42017 21.0195 13.6601
330 2 2.2208 2.64018 18.2716 13.7094
313 2 2.2208 -0.178476 20.8492 13.6785
508 1 -1.1104 6.74703 19.7166 15.1493
516 1 -1.1104 6.80846 16.814 15.1611
506 1 -1.1104 6.66882 14.1615 15.0442
500 1 -1.1104 6.72119 13.8409 17.9124
501 1 -1.1104 6.7515 19.5567 17.9865
544 1 -1.1104 12.3668 16.7458 20.7093
430 2 2.2208 13.713 20.8461 16.4819
533 2 2.2208 11.0019 18.2361 16.5764
534 1 -1.1104 12.4315 14.1517 17.8277
535 1 -1.1104 12.2935 19.7099 17.9311
536 1 -1.1104 12.3636 14.0464 15.1477
538 1 -1.1104 12.2575 19.5365 15.0836
540 1 -1.1104 12.3417 16.9206 17.9925
541 2 2.2208 10.9866 15.5658 19.3109
542 2 2.2208 10.8865 20.8892 19.3587
543 1 -1.1104 12.4559 16.8414 15.159
545 1 -1.1104 9.63241 14.0065 17.9953
546 1 -1.1104 9.54647 19.5373 17.9903
547 2 2.2208 8.12025 17.9906 19.3321
548 1 -1.1104 9.54045 14.0744 15.1938
550 1 -1.1104 9.52019 19.6537 15.1778
552 2 2.2208 8.15318 15.2882 16.5038
553 2 2.2208 8.26175 20.9701 16.604
554 1 -1.1104 9.63327 16.7479 17.9131
555 1 -1.1104 9.70236 16.8056 15.0856
334 2 2.2208 11.0309 15.4475 13.8058
335 2 2.2208 8.21219 18.0998 13.7876
333 2 2.2208 10.9423 20.9763 13.7269
383 1 -1.1104 4.23595 -2.78575 20.5651
595 2 2.2208 -0.0962978 1.29242 22.0097
596 2 2.2208 -0.211759 4.16159 24.8071
594 2 2.2208 -0.272838 -1.58995 24.8353
364 1 -1.1104 1.34997 -2.82642 20.5411
561 2 2.2208 5.40931 1.49679 22.0224
562 1 -1.1104 1.17008 -2.81191 23.4198
563 1 -1.1104 1.22415 2.66546 23.4167
566 1 -1.1104 1.13934 -2.82093 26.2194
567 1 -1.1104 1.25594 2.79293 26.2328
570 1 -1.1104 1.31534 -0.0787901 23.5257
572 2 2.2208 5.33287 -1.43762 24.9818
574 1 -1.1104 1.11699 0.0430374 26.2695
576 1 -1.1104 4.08235 -3.08081 23.5394
577 1 -1.1104 4.08971 2.72324 23.545
578 2 2.2208 2.68762 1.33087 24.9197
579 1 -1.1104 3.93056 -2.89471 26.3873
580 1 -1.1104 4.16817 2.76871 26.3169
581 2 2.2208 2.65468 -1.43292 22.0545
583 1 -1.1104 4.02575 -0.125233 23.3493
584 1 -1.1104 4.07052 -0.057299 26.3067
582 2 2.2208 2.64343 4.19585 22.045
573 2 2.2208 5.55406 4.10588 24.9519
339 2 2.2208 2.69608 4.18578 27.6661
8467 2 2.2208 -0.271419 -4.1893 27.6609
9218 2 2.2208 -0.244563 1.39616 27.517
370 1 -1.1104 6.759 2.94192 20.5237
407 1 -1.1104 12.3702 2.8143 20.5347
568 1 -1.1104 6.76755 -2.77026 26.3279
571 1 -1.1104 6.61773 0.138891 23.3516
378 1 -1.1104 6.78054 0.075567 20.6681
569 1 -1.1104 6.77442 2.77462 26.2562
565 1 -1.1104 6.90096 2.78454 23.3588
564 1 -1.1104 6.80163 -2.76721 23.5777
575 1 -1.1104 6.86674 -0.0469983 26.366
8614 2 2.2208 11.0151 -4.1053 22.0942
419 1 -1.1104 9.45816 2.82093 20.58
597 2 2.2208 10.9086 1.54885 21.9653
598 1 -1.1104 12.3332 -2.63196 23.4597
599 1 -1.1104 12.4351 2.85474 23.4917
600 1 -1.1104 12.3657 -2.86227 26.2535
601 1 -1.1104 12.3139 2.70129 26.1433
602 1 -1.1104 12.2598 0.148833 23.2788
603 2 2.2208 10.9133 -1.45766 24.8532
604 2 2.2208 10.9135 4.23374 24.8477
605 1 -1.1104 12.3824 -0.117661 26.1549
606 1 -1.1104 9.57705 -2.82893 23.5832
607 1 -1.1104 9.56667 2.77885 23.4815
608 2 2.2208 8.07491 1.38633 24.7528
609 1 -1.1104 9.56756 -2.88552 26.2469
610 1 -1.1104 9.62489 2.79986 26.2935
611 2 2.2208 8.20086 -1.42924 22.1348
612 2 2.2208 8.19072 4.26457 22.0821
613 1 -1.1104 9.37419 -0.120899 23.3995
614 1 -1.1104 9.66426 -0.00292498 26.1614
624 2 2.2208 13.682 1.38066 24.7868
344 2 2.2208 11.0166 1.45302 27.643
345 2 2.2208 8.34794 -1.49022 27.5847
346 2 2.2208 8.17679 4.13724 27.6173
655 2 2.2208 -0.204519 12.6289 22.0572
466 1 -1.1104 3.97747 11.2623 20.593
391 2 2.2208 -0.36625 7.11224 21.902
350 2 2.2208 2.42441 9.78967 27.6154
448 1 -1.1104 1.19533 5.51293 20.6249
626 2 2.2208 5.46362 7.04466 21.8837
627 2 2.2208 5.38227 12.5098 22.1406
628 1 -1.1104 0.973589 8.30132 23.3898
630 1 -1.1104 1.09219 8.41389 26.1801
632 1 -1.1104 1.11104 5.6634 23.5074
633 1 -1.1104 1.18097 11.2444 23.408
636 2 2.2208 5.30504 9.77114 24.8265
637 1 -1.1104 1.21092 5.5268 26.3263
638 1 -1.1104 1.17022 11.2877 26.3004
641 1 -1.1104 3.89855 8.35596 23.4083
642 2 2.2208 2.58619 6.86799 24.8888
643 2 2.2208 2.54862 12.7726 24.8813
644 1 -1.1104 4.00241 8.42904 26.2806
645 2 2.2208 2.55299 9.85489 21.9136
646 1 -1.1104 3.91187 5.54906 23.388
647 1 -1.1104 4.0249 11.204 23.4808
648 1 -1.1104 4.03615 5.48628 26.3056
649 1 -1.1104 3.99967 11.1387 26.1614
351 2 2.2208 5.32843 12.515 27.6771
9294 2 2.2208 -0.195297 9.76768 24.6524
9188 2 2.2208 -0.232706 6.94807 27.6313
9210 2 2.2208 -0.199861 12.641 27.7719
441 1 -1.1104 6.77759 8.34967 20.631
635 1 -1.1104 6.98008 11.3031 23.4363
639 1 -1.1104 6.81893 5.54858 26.2341
631 1 -1.1104 6.79503 8.313 26.2248
629 1 -1.1104 6.69006 8.55293 23.3286
640 1 -1.1104 6.65869 11.0711 26.2896
634 1 -1.1104 6.87741 5.74009 23.4516
657 1 -1.1104 9.54128 11.0622 26.1305
658 1 -1.1104 9.56954 5.45702 26.114
659 1 -1.1104 9.75406 11.0684 23.4245
660 1 -1.1104 9.58657 5.6522 23.3558
661 2 2.2208 8.29038 9.745 22.0285
662 1 -1.1104 9.59474 8.4003 26.3211
663 2 2.2208 8.15473 12.6073 24.9641
664 2 2.2208 8.15766 7.12669 24.7419
665 2 2.2208 11.1023 6.93989 21.981
666 2 2.2208 10.9974 12.6156 22.0378
667 1 -1.1104 12.4435 8.44352 23.2499
668 1 -1.1104 12.2828 8.36766 26.2364
669 1 -1.1104 12.2565 5.61899 23.3705
670 1 -1.1104 12.5039 11.161 23.6074
671 2 2.2208 11.0904 9.87601 24.8716
672 1 -1.1104 12.3299 5.56477 26.1847
673 1 -1.1104 12.4225 11.0915 26.3059
674 1 -1.1104 9.72468 8.40466 23.5079
355 2 2.2208 8.08253 9.83605 27.6125
354 2 2.2208 10.8832 7.00702 27.6479
356 2 2.2208 10.994 12.5063 27.6042
9257 2 2.2208 -0.302841 15.5375 25.0585
522 1 -1.1104 3.81976 13.9498 20.703
503 1 -1.1104 1.03593 14.014 20.6357
515 1 -1.1104 1.2192 16.7547 20.6603
559 2 2.2208 -0.118382 18.213 22.1913
505 1 -1.1104 1.11993 19.5274 20.5623
587 2 2.2208 2.54254 15.3849 22.101
590 2 2.2208 2.58362 20.8951 22.0925
615 1 -1.1104 4.0611 16.7395 23.5163
616 1 -1.1104 1.40277 16.8567 23.5594
619 1 -1.1104 3.86836 13.9885 26.3022
622 1 -1.1104 3.97478 16.781 26.51
650 2 2.2208 2.62383 18.1478 24.9915
651 1 -1.1104 4.07531 19.6492 26.1674
652 2 2.2208 5.39375 18.134 21.982
654 1 -1.1104 0.942758 14.1278 23.5913
656 1 -1.1104 1.04912 19.6889 23.5062
676 2 2.2208 5.35173 15.5406 24.883
677 2 2.2208 5.40623 20.9782 24.9049
681 1 -1.1104 3.90317 19.5606 23.5662
683 1 -1.1104 3.87481 14.0989 23.5212
685 1 -1.1104 1.3211 19.6618 26.2795
686 1 -1.1104 1.22581 16.9271 26.3681
687 1 -1.1104 1.13944 14.0415 26.2468
9250 2 2.2208 -0.183674 21.0929 24.9972
531 2 2.2208 8.22364 15.3152 22.2158
558 1 -1.1104 9.73426 16.6714 26.3651
431 1 -1.1104 12.4517 16.7144 23.5403
532 2 2.2208 8.07886 20.9491 22.156
507 1 -1.1104 6.79416 13.9474 20.8186
496 1 -1.1104 9.58034 13.943 26.2439
468 1 -1.1104 9.49541 13.7607 23.5113
556 1 -1.1104 9.58635 16.7403 20.6662
539 1 -1.1104 12.2814 19.5771 20.606
551 1 -1.1104 9.46352 19.5836 20.7508
517 1 -1.1104 6.70582 16.7169 20.7491
537 1 -1.1104 12.5589 14.066 20.6625
549 1 -1.1104 9.54906 14.0416 20.6744
425 1 -1.1104 12.3383 19.4862 26.2076
467 1 -1.1104 12.5353 16.6493 26.2239
469 1 -1.1104 9.48721 19.4799 23.3877
586 2 2.2208 11.003 18.1494 22.1772
400 1 -1.1104 12.3263 13.8989 26.4161
557 1 -1.1104 9.61424 16.6245 23.6935
530 1 -1.1104 9.64206 19.4014 26.3352
433 2 2.2208 10.9864 20.9541 24.9055
679 1 -1.1104 6.76508 19.6745 23.7206
675 1 -1.1104 6.59155 13.9897 23.5682
495 1 -1.1104 6.86378 19.6125 26.4524
617 1 -1.1104 6.7636 16.86 23.4367
684 1 -1.1104 6.94373 16.7356 26.4986
682 1 -1.1104 6.75055 13.9273 26.2428
560 1 -1.1104 12.242 19.6369 23.3705
432 2 2.2208 11.0681 15.3609 25.0059
585 1 -1.1104 12.3358 13.8201 23.6368
494 2 2.2208 8.18424 18.1479 24.8741
688 2 2.2208 5.28979 23.7521 5.394
689 2 2.2208 5.45506 29.4821 5.32079
690 1 -1.1104 1.06125 25.1416 1.034
691 1 -1.1104 1.09768 25.3719 3.83791
692 1 -1.1104 1.14422 22.3346 1.18522
693 1 -1.1104 0.969641 28.0011 0.892368
694 2 2.2208 5.41844 26.5079 2.52081
695 1 -1.1104 1.22086 22.439 3.91812
696 1 -1.1104 1.13977 27.9354 3.87227
697 1 -1.1104 3.87125 25.1248 1.04688
698 2 2.2208 2.55396 23.7825 2.393
699 2 2.2208 2.50695 29.2613 2.41347
700 1 -1.1104 4.01464 25.1371 4.01388
701 2 2.2208 2.62387 26.6605 5.28442
702 1 -1.1104 3.90992 22.346 1.13219
703 1 -1.1104 3.76068 27.9504 1.01512
704 1 -1.1104 3.92101 22.4146 3.91789
705 1 -1.1104 4.08653 27.9654 3.8205
832 1 -1.1104 1.29139 27.9915 6.68257
836 1 -1.1104 3.95062 22.2878 6.89314
837 1 -1.1104 3.96913 28.0549 6.57992
829 1 -1.1104 1.29875 25.2508 6.59572
9840 2 2.2208 -0.238224 23.735 5.17841
9841 2 2.2208 -0.360601 26.5142 2.4133
9838 2 2.2208 -0.354849 29.3505 5.16973
1011 2 2.2208 5.28242 23.7023 -0.237847
709 1 -1.1104 6.6393 25.1474 1.21048
711 1 -1.1104 6.79899 22.5095 1.07895
710 1 -1.1104 6.78829 25.0625 4.09971
714 1 -1.1104 7.006 27.9014 3.95276
713 1 -1.1104 6.82638 22.2793 3.78711
712 1 -1.1104 6.65313 27.8845 1.09775
715 2 2.2208 11.0658 23.8979 5.33457
716 2 2.2208 11.079 29.3797 5.23589
717 1 -1.1104 12.3715 25.1008 1.02106
718 1 -1.1104 12.3714 25.2609 3.6846
719 1 -1.1104 12.3899 22.2669 1.0132
720 1 -1.1104 12.258 27.8719 1.01205
721 2 2.2208 10.9386 26.4872 2.37858
722 1 -1.1104 12.4196 22.5112 3.88702
723 1 -1.1104 12.4189 28.0245 3.81323
724 1 -1.1104 9.68901 25.0208 1.15605
725 2 2.2208 8.24518 23.7805 2.58998
726 2 2.2208 8.29744 29.3564 2.45189
727 1 -1.1104 9.66815 25.2124 3.92016
728 2 2.2208 8.3215 26.561 5.32015
729 1 -1.1104 9.58065 22.2811 1.16185
730 1 -1.1104 9.51608 27.7926 1.06623
731 1 -1.1104 9.61474 22.3695 4.04555
732 1 -1.1104 9.76654 28.0001 3.8634
862 1 -1.1104 12.4865 25.246 6.72404
865 1 -1.1104 9.64082 25.3214 6.78577
867 1 -1.1104 9.53341 28.1064 6.61367
1014 2 2.2208 10.9784 23.6966 -0.26454
736 2 2.2208 5.29583 34.9488 5.32011
737 1 -1.1104 1.1266 30.7831 1.0762
738 1 -1.1104 0.886327 36.2301 1.1612
740 1 -1.1104 1.05571 30.7014 3.92979
741 1 -1.1104 1.07774 36.415 4.02195
743 1 -1.1104 1.25713 33.6278 0.976079
744 2 2.2208 5.4127 32.1131 2.45255
745 2 2.2208 5.24151 37.7999 2.46107
746 1 -1.1104 1.11233 33.5077 3.91996
748 1 -1.1104 3.95286 30.5987 1.14093
749 1 -1.1104 3.75039 36.3583 1.20583
750 2 2.2208 2.51486 34.8611 2.5365
751 1 -1.1104 3.9671 30.8103 3.88288
752 1 -1.1104 3.8173 36.3228 3.9986
753 2 2.2208 2.52223 32.2386 5.32929
754 2 2.2208 2.4388 37.6114 5.39558
755 1 -1.1104 4.09615 33.48 1.02855
756 1 -1.1104 3.97947 33.472 3.91588
1019 2 2.2208 5.34513 34.9754 -0.201522
890 1 -1.1104 1.16421 33.6841 6.56935
886 1 -1.1104 1.15076 30.7233 6.63186
9847 2 2.2208 -0.334101 35.1627 5.33692
9846 2 2.2208 -0.242395 32.1531 2.49296
1018 2 2.2208 2.33924 37.7992 -0.257633
1295 2 2.2208 2.58626 32.1264 -0.39982
760 1 -1.1104 6.89847 30.6243 1.1395
747 1 -1.1104 6.84548 33.5454 4.00975
762 1 -1.1104 6.84575 33.5423 1.24784
742 1 -1.1104 6.70313 36.4109 3.78375
739 1 -1.1104 6.69114 36.4674 1.13946
761 1 -1.1104 6.7973 30.7833 3.83479
763 2 2.2208 10.9796 35.0694 5.52056
764 1 -1.1104 12.5145 30.682 0.976807
765 1 -1.1104 12.3412 36.4719 1.06899
766 1 -1.1104 12.3743 30.7138 3.84461
767 1 -1.1104 12.3272 36.3244 4.01979
768 1 -1.1104 12.3619 33.615 1.10098
769 2 2.2208 11.0568 32.2142 2.46733
770 2 2.2208 10.9224 37.8673 2.49878
771 1 -1.1104 12.2999 33.5087 3.94811
772 1 -1.1104 9.63175 30.5736 1.06812
773 1 -1.1104 9.46669 36.196 1.02512
774 2 2.2208 8.1734 35.0051 2.65785
775 1 -1.1104 9.63932 30.8891 3.94427
776 1 -1.1104 9.52409 36.2936 3.99355
777 2 2.2208 8.28671 32.1957 5.2132
778 2 2.2208 8.13888 37.7879 5.25459
779 1 -1.1104 9.58471 33.4473 1.07224
780 1 -1.1104 9.72022 33.7044 3.89118
925 1 -1.1104 9.35328 33.6276 6.73237