LAMMPS (29 Oct 2020)
OMP_NUM_THREADS environment is not set. Defaulting to 1 thread. (../comm.cpp:94)
  using 1 OpenMP thread(s) per MPI task
OMP_NUM_THREADS environment is not set. Defaulting to 1 thread. (../comm.cpp:94)
  using 1 OpenMP thread(s) per MPI task
Reading data file ...
  orthogonal box = (-0.35444648 -4.2938386 -0.35709494) to (27.694446 332.37384 27.697095)
  2 by 13 by 2 MPI processor grid
  reading atoms ...
  17910 atoms
  reading velocities ...
  17910 velocities
Finding 1-2 1-3 1-4 neighbors ...
  special bond factors lj:    0.0      0.0      0.0     
  special bond factors coul:  0.0      0.0      0.0     
     0 = max # of 1-2 neighbors
     0 = max # of 1-3 neighbors
     0 = max # of 1-4 neighbors
     1 = max # of special neighbors
  special bonds CPU = 0.003 seconds
  read_data CPU = 0.057 seconds
Setting atom values ...
  11940 settings made for charge
Setting atom values ...
  5970 settings made for charge
PPPM initialization ...
  using 12-bit tables for long-range coulomb (../kspace.cpp:328)
  G vector (1/distance) = 0.29884675
  grid = 40 240 40
  stencil order = 5
  estimated absolute RMS force accuracy = 0.00015721093
  estimated relative force accuracy = 1.0917695e-05
  using single precision MKL FFT
  3d grid and FFT values/proc = 15000 7600
Neighbor list info ...
  update every 1 steps, delay 0 steps, check yes
  max neighbors/atom: 2000, page size: 100000
  master list distance cutoff = 11.3
  ghost atom cutoff = 11.3
  binsize = 5.65, bins = 5 60 5
  2 neighbor lists, perpetual/occasional/extra = 2 0 0
  (1) pair coul/long, perpetual
      attributes: half, newton on
      pair build: half/bin/newton
      stencil: half/bin/3d/newton
      bin: standard
  (2) pair eam/alloy, perpetual, copy from (1)
      attributes: half, newton on
      pair build: copy
      stencil: none
      bin: none
Setting up Verlet run ...
  Unit style    : metal
  Current step  : 0
  Time step     : 0.001
Per MPI rank memory allocation (min/avg/max) = 8.159 | 8.183 | 8.196 Mbytes
Step Temp E_pair E_mol TotEng Press 
       0          600   -234147.15            0    -232758.2    742.35795 
  100000    603.57987   -234153.99            0   -232756.75    652.06202 
Loop time of 657.904 on 52 procs for 100000 steps with 17910 atoms

Performance: 13.133 ns/day, 1.828 hours/ns, 151.998 timesteps/s
99.8% CPU use with 52 MPI tasks x 1 OpenMP threads

MPI task timing breakdown:
Section |  min time  |  avg time  |  max time  |%varavg| %total
---------------------------------------------------------------
Pair    | 441.37     | 451        | 461.6      |  23.0 | 68.55
Bond    | 0.0073239  | 0.010875   | 0.015937   |   2.2 |  0.00
Kspace  | 136.56     | 149.56     | 161.01     |  50.8 | 22.73
Neigh   | 31.946     | 34.592     | 37.279     |  22.7 |  5.26
Comm    | 16.97      | 18.315     | 19.533     |  17.6 |  2.78
Output  | 5.5631e-05 | 6.2112e-05 | 0.00031508 |   0.0 |  0.00
Modify  | 2.0322     | 2.9549     | 4.962      |  53.2 |  0.45
Other   |            | 1.475      |            |       |  0.22

Nlocal:        344.423 ave         368 max         326 min
Histogram: 5 5 11 6 4 7 3 5 4 2
Nghost:        4131.13 ave        4290 max        4037 min
Histogram: 6 11 8 9 6 0 3 5 0 4
Neighs:        69279.5 ave       74723 max       64266 min
Histogram: 3 3 6 10 8 7 3 5 5 2

Total # of neighbors = 3602536
Ave neighs/atom = 201.14662
Ave special neighs/atom = 0.0000000
Neighbor list builds = 16236
Dangerous builds = 0
11940 atoms in group oxygen
PPPM initialization ...
  using 12-bit tables for long-range coulomb (../kspace.cpp:328)
  G vector (1/distance) = 0.29884675
  grid = 40 240 40
  stencil order = 5
  estimated absolute RMS force accuracy = 0.00015721093
  estimated relative force accuracy = 1.0917695e-05
  using single precision MKL FFT
  3d grid and FFT values/proc = 15000 7600
Setting up Verlet run ...
  Unit style    : metal
  Current step  : 0
  Time step     : 0.001
Per MPI rank memory allocation (min/avg/max) = 8.410 | 8.433 | 8.446 Mbytes
Step f_2 Temp v_Tdiff v_deltaT 
       0            0    603.57987            0            0 
  100000    693.38489     599.3559  0.017953336    208.43657 
  200000    1378.5925    602.66982  0.018520085    215.01647 
  300000     2064.412    597.79104  0.019115433     221.9284 
  400000    2748.9774     602.8655  0.019248588    223.47431 
  500000    3431.5739    602.04783  0.019464902     225.9857 
  600000    4114.0593    603.11425  0.018681806    216.89403 
  700000    4794.9126    597.59998  0.019720605     228.9544 
  800000    5480.9314    602.36193   0.01956387    227.13471 
  900000    6171.0689    603.26456  0.018422831    213.88735 
 1000000    6868.4835    606.96329  0.018563684    215.52265 
 1100000    7549.2439    602.68975  0.018960406    220.12855 
 1200000    8233.3016    605.13655   0.01874492    217.62678 
 1300000    8922.5695     602.1627  0.019074826    221.45696 
 1400000    9609.1102    605.93182  0.019451862    225.83432 
 1500000    10296.081    599.46676  0.019058112    221.26291 
Loop time of 9795.4 on 52 procs for 1500000 steps with 17910 atoms

Performance: 13.231 ns/day, 1.814 hours/ns, 153.133 timesteps/s
99.9% CPU use with 52 MPI tasks x 1 OpenMP threads

MPI task timing breakdown:
Section |  min time  |  avg time  |  max time  |%varavg| %total
---------------------------------------------------------------
Pair    | 6598.4     | 6719.2     | 6868.3     |  84.2 | 68.60
Bond    | 0.10459    | 0.15951    | 0.23228    |   7.3 |  0.00
Kspace  | 2039.8     | 2218.1     | 2371.6     | 180.6 | 22.64
Neigh   | 496.1      | 531.17     | 569.24     |  82.0 |  5.42
Comm    | 257.48     | 276.83     | 299.07     |  66.2 |  2.83
Output  | 0.0017306  | 0.0018278  | 0.0035716  |   0.6 |  0.00
Modify  | 8.1661     | 8.8703     | 9.6853     |  13.8 |  0.09
Other   |            | 41         |            |       |  0.42

Nlocal:        344.423 ave         364 max         327 min
Histogram: 3 6 10 5 4 7 6 3 4 4
Nghost:        4164.90 ave        4280 max        4043 min
Histogram: 2 5 8 8 1 6 4 11 3 4
Neighs:        69273.8 ave       73684 max       65300 min
Histogram: 5 4 5 8 7 7 3 5 6 2

Total # of neighbors = 3602239
Ave neighs/atom = 201.13004
Ave special neighs/atom = 0.0000000
Neighbor list builds = 248862
Dangerous builds = 0
Total wall time: 2:54:13
