ITEM: TIMESTEP
30000
ITEM: NUMBER OF ATOMS
17730
ITEM: BOX BOUNDS pp pp pp
-4.4065798330807199e-01 2.7780657983307645e+01
-5.3221066138914264e+00 3.3340210661389341e+02
-4.2649614892129728e-01 2.7766496148921142e+01
ITEM: ATOMS id type q x y z
1 2 2.2208 5.49978 0.289342 5.24565
2 1 -1.1104 1.19463 -3.98392 1.35538
6 1 -1.1104 1.17423 -4.05374 4.06611
10 1 -1.1104 1.63777 -1.09709 1.58141
12 2 2.2208 5.54026 -2.54972 2.60046
14 1 -1.1104 1.05391 -1.27965 4.08828
16 1 -1.1104 3.88445 -3.99614 1.32189
18 2 2.2208 2.72784 0.417245 2.82347
19 1 -1.1104 3.99585 -3.79085 4.06908
21 2 2.2208 2.55704 -2.58677 5.37696
23 1 -1.1104 4.25893 -1.26248 1.24169
24 1 -1.1104 3.93161 -1.16344 4.0532
170 1 -1.1104 1.16395 -1.07518 6.65205
26 2 2.2208 -0.229517 0.212689 5.41976
383 2 2.2208 2.86602 3.31387 0.0628043
372 2 2.2208 11.2975 20.2123 13.5854
381 2 2.2208 5.57795 0.34729 -0.208485
25 2 2.2208 -0.181679 -2.4166 2.7207
394 2 2.2208 2.75542 8.84942 -0.0373709
386 2 2.2208 0.00762049 0.445792 0.00319136
4 1 -1.1104 6.68066 -3.86309 1.06034
377 2 2.2208 8.27539 14.7855 -0.215711
8 1 -1.1104 6.91707 -3.99918 4.17662
11 1 -1.1104 6.86107 -0.969291 1.34115
15 1 -1.1104 6.85014 -1.09211 4.06584
31 2 2.2208 10.9777 0.359381 5.42489
32 1 -1.1104 12.5873 -3.78401 1.2706
34 1 -1.1104 12.3293 -3.79505 4.24472
36 1 -1.1104 12.5368 -0.916292 1.02673
37 2 2.2208 10.9597 -2.49447 2.6855
39 1 -1.1104 12.5162 -0.846482 3.9561
40 1 -1.1104 9.52581 -3.77786 1.37817
42 2 2.2208 8.23251 0.232165 2.58761
43 1 -1.1104 9.63173 -3.73959 4.07242
45 2 2.2208 8.17818 -2.26533 5.54533
47 1 -1.1104 9.78932 -0.938856 1.23268
48 1 -1.1104 9.59939 -1.02043 4.1589
210 1 -1.1104 9.48506 -1.1398 7.02148
387 2 2.2208 11.0222 0.358872 -0.123165
388 2 2.2208 8.32488 -2.39837 -0.27582
379 2 2.2208 8.29579 20.2538 -0.366741
3 1 -1.1104 1.11531 1.80915 1.51171
7 1 -1.1104 1.18726 1.75824 4.27623
13 2 2.2208 5.46408 3.17145 2.71311
17 1 -1.1104 3.98317 1.7578 1.22815
20 1 -1.1104 4.22991 1.72866 3.97172
22 2 2.2208 2.56768 3.07693 5.60825
54 2 2.2208 5.3098 5.96842 5.62263
56 1 -1.1104 1.15465 7.35816 1.55211
60 1 -1.1104 1.34548 4.42714 1.25869
67 1 -1.1104 1.16629 4.76274 4.1961
71 1 -1.1104 4.18268 7.43105 1.17162
72 2 2.2208 2.63412 6.00212 2.89422
74 1 -1.1104 4.14775 7.50777 4.12768
76 1 -1.1104 3.9087 4.82094 1.35886
79 1 -1.1104 3.95147 4.50313 4.23175
58 1 -1.1104 1.34672 7.50553 4.20667
52 2 2.2208 11.058 -5.34455 5.64056
27 2 2.2208 -0.186496 3.25752 2.90055
81 2 2.2208 -0.115263 6.08282 5.62235
393 2 2.2208 5.5347 6.13451 -0.172768
385 2 2.2208 5.34459 -5.31499 -0.132358
57 1 -1.1104 6.95338 7.53596 1.21731
69 1 -1.1104 6.80013 4.61925 4.1333
323 1 -1.1104 12.6061 15.9592 9.60235
9 1 -1.1104 6.8898 1.66303 3.85341
5 1 -1.1104 6.80525 1.87685 1.18925
59 1 -1.1104 6.97709 7.45943 3.92355
63 1 -1.1104 6.96669 4.66688 1.24116
33 1 -1.1104 12.2904 1.93062 1.12273
35 1 -1.1104 12.5209 1.95127 3.89053
38 2 2.2208 11.287 3.38581 2.50839
41 1 -1.1104 9.547 1.99795 1.14697
44 1 -1.1104 9.71786 1.55658 4.05134
46 2 2.2208 8.3485 3.17388 5.43589
84 2 2.2208 11.1687 6.00343 5.46882
86 1 -1.1104 12.6384 7.73536 1.02186
87 1 -1.1104 12.4946 7.40426 4.07305
88 1 -1.1104 12.6839 4.68937 0.97456
92 1 -1.1104 12.6398 4.66234 3.89326
94 1 -1.1104 9.78472 7.71981 1.28462
95 2 2.2208 8.28099 6.15818 2.66179
97 1 -1.1104 9.64818 7.38957 3.99225
99 1 -1.1104 9.90245 4.75437 1.07601
102 1 -1.1104 9.75558 4.58342 3.90137
389 2 2.2208 8.3283 3.45143 -0.326283
267 1 -1.1104 9.88396 7.48431 6.91035
398 2 2.2208 11.2849 5.96949 -0.424388
83 2 2.2208 0.0526778 11.7424 5.27261
55 2 2.2208 5.45221 11.6334 5.20656
61 1 -1.1104 1.22539 10.0901 1.42321
66 2 2.2208 5.69759 8.93784 2.55622
68 1 -1.1104 1.11052 10.2683 4.07441
73 2 2.2208 2.7711 11.6388 2.54111
75 2 2.2208 2.66797 8.93794 5.35413
77 1 -1.1104 4.0244 10.3369 1.17296
80 1 -1.1104 4.1419 10.3877 3.79235
107 1 -1.1104 1.5686 12.9675 1.06886
113 1 -1.1104 1.30591 13.2174 3.82177
123 1 -1.1104 4.17706 13.1846 1.05101
128 1 -1.1104 4.29794 13.3847 4.06168
108 1 -1.1104 1.30452 13.3015 6.74339
82 2 2.2208 -0.110328 8.74943 2.8332
289 1 -1.1104 7.20294 16.0162 9.37767
231 2 2.2208 8.43675 -5.29551 8.27705
399 2 2.2208 8.41591 8.96597 -0.226788
64 1 -1.1104 6.75868 10.3443 1.07543
110 1 -1.1104 6.95019 13.2238 1.18961
115 1 -1.1104 6.85044 13.101 4.11921
70 1 -1.1104 7.23106 10.1702 3.91778
85 2 2.2208 11.2682 11.581 5.34125
89 1 -1.1104 12.6249 10.3612 1.17379
91 2 2.2208 11.2719 8.88028 2.62157
93 1 -1.1104 12.6745 10.2718 3.68248
96 2 2.2208 8.20999 11.7776 2.56827
98 2 2.2208 8.33685 9.01756 5.35094
100 1 -1.1104 9.70024 10.3501 1.08551
103 1 -1.1104 10.0275 10.1384 4.12031
142 1 -1.1104 12.6623 13.1807 1.05504
146 1 -1.1104 12.6512 12.9687 3.78529
153 1 -1.1104 9.67736 13.0588 1.0212
158 1 -1.1104 9.79003 12.7583 3.80726
143 1 -1.1104 12.5285 13.0874 6.58984
130 2 2.2208 2.89229 14.7624 5.31707
119 2 2.2208 5.7007 14.5076 2.58637
106 2 2.2208 5.71061 17.3396 5.29126
109 1 -1.1104 1.53907 18.8198 1.20305
114 1 -1.1104 1.24632 18.9267 4.06384
116 1 -1.1104 1.3063 15.8116 1.06056
120 2 2.2208 5.66377 20.1681 2.46297
121 1 -1.1104 1.33306 16.227 3.86976
125 1 -1.1104 4.12276 18.8892 1.09973
127 2 2.2208 2.90251 17.3994 2.59337
129 1 -1.1104 4.23893 18.8526 4.07033
131 2 2.2208 2.75651 20.3751 5.4464
132 1 -1.1104 4.14113 16.0347 1.21244
134 1 -1.1104 4.45906 16.1236 3.87621
135 2 2.2208 -0.0829034 14.4219 2.68398
137 2 2.2208 -0.184491 17.466 5.38943
29 2 2.2208 5.4432 -5.1282 5.45452
202 2 2.2208 2.6185 -5.2288 8.15863
390 2 2.2208 10.9877 -5.21497 -0.128406
232 2 2.2208 11.0784 -5.30886 11.1771
139 1 -1.1104 6.90393 18.7393 3.89448
118 1 -1.1104 6.88743 16.0423 6.61287
140 1 -1.1104 6.94642 16.2403 1.14542
122 1 -1.1104 7.1663 15.7647 3.84518
138 1 -1.1104 7.22889 18.9203 1.09476
160 2 2.2208 8.41475 14.373 5.32288
150 2 2.2208 11.3107 14.5322 2.58379
141 2 2.2208 11.3401 17.3229 5.46906
144 1 -1.1104 12.548 18.7765 1.23687
147 1 -1.1104 12.6225 18.7897 4.14368
148 1 -1.1104 12.6453 16.0498 1.26683
151 2 2.2208 11.0712 20.0501 2.773
152 1 -1.1104 12.7319 15.9271 3.92495
155 1 -1.1104 9.82814 18.7757 1.2749
157 2 2.2208 8.46936 17.216 2.59628
159 1 -1.1104 9.77938 18.5918 4.07796
161 2 2.2208 8.48862 20.1936 5.42663
162 1 -1.1104 9.77698 15.954 1.13618
164 1 -1.1104 9.79544 15.8509 3.91286
156 1 -1.1104 10.0555 18.8332 6.5872
163 1 -1.1104 9.95505 16.0302 6.66757
316 2 2.2208 8.39006 20.2335 10.875
145 1 -1.1104 12.7732 18.5065 6.80198
172 1 -1.1104 4.0877 -4.01784 6.73258
174 1 -1.1104 3.91645 -1.1952 6.84704
405 2 2.2208 2.61565 20.1876 -0.443059
166 1 -1.1104 1.25036 -3.95375 6.68153
175 2 2.2208 5.33484 0.437925 11.0028
176 1 -1.1104 1.36982 -3.71165 12.5657
180 1 -1.1104 1.13825 -3.76844 9.52817
184 1 -1.1104 1.41384 -1.12099 12.3787
186 2 2.2208 5.64694 -2.56777 8.35045
188 1 -1.1104 1.2478 -1.02155 9.5566
190 1 -1.1104 4.40869 -3.67621 12.246
192 2 2.2208 2.66724 0.285911 8.21045
193 1 -1.1104 3.86161 -3.88054 9.57502
195 2 2.2208 2.79893 -2.4662 10.9194
197 1 -1.1104 4.1236 -0.765086 12.5643
198 1 -1.1104 4.17117 -1.12108 9.7527
201 2 2.2208 -0.0149968 0.161137 11.0901
200 2 2.2208 -0.0912453 -2.53501 8.04738
204 2 2.2208 -0.14093 -5.05633 10.9447
168 1 -1.1104 6.91633 -3.83109 6.95878
207 1 -1.1104 12.2712 -0.903166 6.74904
205 1 -1.1104 12.518 -3.83824 7.00536
401 2 2.2208 0.0645269 17.3823 -0.159569
403 2 2.2208 2.85584 14.5384 -0.238823
185 1 -1.1104 6.85696 -1.18217 12.174
189 1 -1.1104 6.85735 -0.915643 9.63073
171 1 -1.1104 6.54397 -1.15059 6.86602
208 1 -1.1104 9.58585 -3.72721 6.78077
182 1 -1.1104 6.908 -3.77477 9.66474
178 1 -1.1104 7.19234 -4.00411 12.4038
211 2 2.2208 11.1596 0.378543 11.0316
212 1 -1.1104 12.4598 -4.03894 12.5667
214 1 -1.1104 12.5472 -3.91053 9.78489
216 1 -1.1104 12.6346 -1.08767 12.4148
217 2 2.2208 11.1144 -2.37768 8.35116
219 1 -1.1104 12.6297 -1.04766 9.60307
220 1 -1.1104 9.92854 -3.71504 12.4894
222 2 2.2208 8.02523 0.228633 8.18222
223 1 -1.1104 9.82079 -3.82744 9.45638
225 2 2.2208 8.32748 -2.45344 11.0917
227 1 -1.1104 9.82885 -0.879186 12.6554
228 1 -1.1104 9.78496 -1.03126 9.67178
404 2 2.2208 5.35098 17.3823 -0.229778
239 1 -1.1104 3.76751 4.51111 6.99531
234 1 -1.1104 1.34526 7.47425 6.77682
167 1 -1.1104 1.11067 1.70461 7.24938
236 1 -1.1104 1.18939 4.72565 6.95963
173 1 -1.1104 3.91612 1.74746 6.88145
238 1 -1.1104 4.17038 7.4348 6.89271
199 2 2.2208 -0.102723 3.17172 8.5443
177 1 -1.1104 1.0053 1.85354 12.5208
181 1 -1.1104 1.51118 1.71057 10.0247
187 2 2.2208 5.27532 3.2289 8.22965
191 1 -1.1104 4.02712 1.96953 12.4038
194 1 -1.1104 3.99882 1.65396 9.62585
196 2 2.2208 2.75035 3.34886 11.2227
240 2 2.2208 5.60653 6.12798 10.9208
242 1 -1.1104 1.34648 7.34871 12.7236
244 1 -1.1104 1.33307 7.27637 9.9636
246 1 -1.1104 1.26024 4.55388 12.4935
251 1 -1.1104 1.10643 4.68656 9.56716
255 1 -1.1104 4.22387 7.45815 12.3287
256 2 2.2208 2.58293 6.04062 8.29217
260 1 -1.1104 4.27241 4.61061 12.4497
262 1 -1.1104 3.90433 4.70031 9.71246
258 1 -1.1104 4.19149 7.40053 9.67583
344 2 2.2208 -0.144065 6.1558 11.2004
237 1 -1.1104 6.80573 4.63977 6.91119
235 1 -1.1104 6.96371 7.61065 6.85685
169 1 -1.1104 6.56251 1.78526 6.68525
266 1 -1.1104 12.7374 4.60789 6.90249
265 1 -1.1104 12.4694 7.50659 6.77426
209 1 -1.1104 9.49866 1.75627 6.79364
206 1 -1.1104 12.5113 1.81716 6.77383
378 2 2.2208 11.3417 17.2916 -0.164115
245 1 -1.1104 7.26084 7.36759 9.56294
183 1 -1.1104 6.71197 2.00667 9.41162
253 1 -1.1104 7.13945 4.68601 9.5665
179 1 -1.1104 6.90933 1.79324 12.316
248 1 -1.1104 7.02417 4.69514 12.5331
243 1 -1.1104 6.77966 7.47908 12.3574
269 1 -1.1104 9.71845 4.61525 6.88679
213 1 -1.1104 12.5249 1.86022 12.5437
215 1 -1.1104 12.4482 1.69508 9.59607
218 2 2.2208 11.0644 3.09545 8.25133
221 1 -1.1104 9.56528 1.77416 12.4246
224 1 -1.1104 9.72439 1.70946 9.65755
226 2 2.2208 8.29083 3.07115 10.8812
268 1 -1.1104 9.78736 4.67716 9.56326
271 1 -1.1104 9.70441 4.42354 12.4093
273 1 -1.1104 10.0075 7.60882 9.59412
275 2 2.2208 8.50139 6.12587 8.08026
276 2 2.2208 11.1444 5.83724 10.9371
278 1 -1.1104 12.6607 7.36038 12.4521
279 1 -1.1104 12.9099 7.22834 9.75849
280 1 -1.1104 12.5685 4.53204 12.4262
283 1 -1.1104 12.4711 4.38566 9.63669
285 1 -1.1104 9.64486 7.39887 12.362
78 1 -1.1104 4.06723 10.0694 6.72079
62 1 -1.1104 1.18248 10.6818 6.96234
124 1 -1.1104 4.17759 13.1074 6.63324
342 2 2.2208 -0.171212 11.6831 11.0794
287 1 -1.1104 4.3036 13.1316 12.346
305 1 -1.1104 4.0618 13.2445 9.59059
299 1 -1.1104 1.44308 12.7601 12.4741
241 2 2.2208 5.50813 11.8415 10.8742
247 1 -1.1104 1.44453 9.98062 12.7141
250 2 2.2208 5.64593 8.80332 8.20167
252 1 -1.1104 1.26992 9.9474 9.52053
257 2 2.2208 2.80781 11.66 8.17791
259 2 2.2208 2.75444 8.71384 11.105
261 1 -1.1104 4.20092 10.2214 12.3203
263 1 -1.1104 4.44721 10.4879 9.46155
294 1 -1.1104 1.4178 13.1396 9.64864
343 2 2.2208 -0.108932 8.8076 8.1457
111 1 -1.1104 7.03602 13.1528 6.81613
65 1 -1.1104 6.8749 10.4238 6.72007
90 1 -1.1104 12.5817 10.297 6.57826
154 1 -1.1104 9.75621 12.884 6.58559
249 1 -1.1104 6.9911 10.4302 12.4923
297 1 -1.1104 7.06505 13.2505 12.4498
101 1 -1.1104 9.98418 10.1819 6.93855
254 1 -1.1104 7.32055 10.3134 9.45942
290 1 -1.1104 6.84358 13.1743 9.51635
330 1 -1.1104 12.4768 13.1387 12.4337
328 1 -1.1104 12.6537 13.0823 9.63829
322 1 -1.1104 9.78323 13.0106 12.193
319 1 -1.1104 9.99007 13.2568 9.43654
264 1 -1.1104 10.0383 10.4403 9.59712
270 1 -1.1104 9.68485 10.2081 12.3614
272 2 2.2208 8.48648 8.86288 11.0185
274 2 2.2208 8.3779 11.8421 8.15557
277 2 2.2208 11.3235 11.7966 10.9183
281 1 -1.1104 12.6548 10.2715 12.395
282 2 2.2208 11.3793 8.8801 8.21605
284 1 -1.1104 12.7252 10.165 9.39085
396 2 2.2208 0.0339707 11.4854 -0.122389
313 2 2.2208 -0.0398165 14.4928 8.24251
133 1 -1.1104 4.17313 15.9533 6.70855
126 1 -1.1104 4.26744 18.8071 6.95907
117 1 -1.1104 1.339 15.9795 6.71327
311 2 2.2208 0.141171 20.0754 8.19201
302 1 -1.1104 1.43288 18.7885 6.80528
310 2 2.2208 2.78799 14.5957 11.0446
295 2 2.2208 5.67957 14.7201 8.04703
291 1 -1.1104 1.41119 18.7257 9.69382
309 2 2.2208 2.65511 20.2375 11.0076
308 1 -1.1104 4.19365 15.8488 12.4094
307 1 -1.1104 1.35919 16.0073 12.2423
286 1 -1.1104 4.10954 18.7616 12.4592
304 1 -1.1104 4.40455 16.0149 9.48423
303 2 2.2208 2.82809 17.4517 8.03761
301 1 -1.1104 4.20993 18.8283 9.64611
292 1 -1.1104 1.63775 15.9538 9.45979
300 2 2.2208 5.62464 17.3715 11.0307
298 1 -1.1104 1.2412 18.9088 12.4921
293 2 2.2208 5.65053 20.196 8.26058
312 2 2.2208 0.0561043 17.3943 11.0563
324 2 2.2208 11.1972 20.1704 8.24327
288 1 -1.1104 6.98849 18.6885 9.59669
327 1 -1.1104 12.7936 18.7505 9.46529
329 1 -1.1104 12.4361 18.7753 12.1254
112 1 -1.1104 7.01091 18.8009 6.85962
296 1 -1.1104 6.89264 18.6491 12.4051
149 1 -1.1104 12.7967 15.7913 6.89062
314 1 -1.1104 9.88631 16.0518 9.55117
331 2 2.2208 11.2191 17.3559 10.8817
318 1 -1.1104 9.94132 18.8083 9.36832
326 1 -1.1104 12.6646 15.9169 12.4029
321 1 -1.1104 9.62044 18.6056 12.2143
315 1 -1.1104 9.73143 15.7181 12.405
320 2 2.2208 8.36668 17.2336 8.09338
317 2 2.2208 8.56963 14.5527 10.7614
325 2 2.2208 11.3034 14.4649 8.1598
306 1 -1.1104 7.07418 15.8507 12.2537
136 2 2.2208 0.200443 20.2855 2.51759
51 2 2.2208 8.23771 -5.37973 2.6743
203 2 2.2208 5.42825 -5.11018 10.8225
400 2 2.2208 11.1964 11.8149 -0.191346
382 2 2.2208 2.5123 -2.70191 0.0910106
406 2 2.2208 5.48294 0.432099 16.7055
407 1 -1.1104 1.48236 -3.61797 18.1637
411 1 -1.1104 1.34036 -3.59693 15.4191
419 1 -1.1104 1.36151 -0.996262 18.1698
421 2 2.2208 5.65341 -2.38821 19.6199
423 1 -1.1104 1.30273 -1.06382 15.263
427 1 -1.1104 4.22052 -3.81043 18.0989
429 2 2.2208 2.77953 0.343008 19.7697
430 1 -1.1104 4.12365 -3.73971 15.2812
434 2 2.2208 2.80776 -2.27671 16.6944
436 1 -1.1104 4.28686 -0.820566 18.4587
437 1 -1.1104 4.38811 -1.08618 15.607
412 1 -1.1104 1.38313 -4.04615 20.9615
351 2 2.2208 0.0544644 14.4888 13.7753
346 2 2.2208 0.094681 -2.31564 13.8722
442 2 2.2208 -0.154719 0.312147 16.858
395 2 2.2208 5.61402 11.5929 27.8595
350 2 2.2208 -0.206785 20.1527 13.9014
347 2 2.2208 2.76625 -5.19532 13.8172
475 2 2.2208 8.27386 -5.18005 19.6564
443 2 2.2208 -0.0583061 -2.44973 19.5226
665 1 -1.1104 9.69356 18.8284 23.8307
409 1 -1.1104 6.94737 -3.90033 18.2059
415 1 -1.1104 6.90907 -3.79706 15.3234
425 1 -1.1104 6.81917 -0.937466 15.1352
420 1 -1.1104 6.96348 -1.06484 17.9224
449 2 2.2208 11.2993 0.315127 16.5444
450 1 -1.1104 12.4499 -4.00219 18.1201
452 1 -1.1104 12.693 -4.16065 15.3835
456 1 -1.1104 12.6685 -1.12911 18.1386
457 2 2.2208 11.1416 -2.40247 19.6556
459 1 -1.1104 12.8782 -1.2351 15.3492
461 1 -1.1104 9.56646 -3.55366 18.2541
463 2 2.2208 8.51068 0.448797 19.4098
464 1 -1.1104 9.47766 -3.81537 15.3638
468 2 2.2208 8.20324 -2.53642 16.72
470 1 -1.1104 9.81041 -0.790616 18.4007
471 1 -1.1104 9.7599 -1.08859 15.517
472 1 -1.1104 9.72945 -0.894774 21.0232
465 1 -1.1104 9.84751 -3.74599 20.9861
638 2 2.2208 11.1738 14.49 24.9956
699 2 2.2208 8.21395 14.6256 22.1722
747 1 -1.1104 6.97808 15.9728 23.3877
439 2 2.2208 -0.220669 -5.09873 16.5762
544 2 2.2208 -0.150045 3.09289 19.6195
408 1 -1.1104 1.32032 1.71752 18.1094
413 1 -1.1104 1.10515 1.97446 15.3202
422 2 2.2208 5.56847 3.11426 19.5232
428 1 -1.1104 4.13657 1.9484 18.0662
432 1 -1.1104 3.91294 1.63265 15.4114
435 2 2.2208 2.58867 3.15341 16.8407
482 2 2.2208 5.56553 6.07416 16.8493
484 1 -1.1104 1.2549 7.45707 18.2708
486 1 -1.1104 1.28045 7.36346 15.3857
490 1 -1.1104 1.11696 4.76038 18.2408
495 1 -1.1104 1.32263 4.74181 15.3507
503 1 -1.1104 3.95922 7.42963 18.2195
504 2 2.2208 2.71629 5.97969 19.4953
506 1 -1.1104 4.17283 7.53229 15.1267
509 1 -1.1104 4.04834 4.74201 17.969
511 1 -1.1104 4.03441 4.45982 15.4788
352 2 2.2208 5.60233 3.2723 13.9264
481 2 2.2208 -0.17659 6.10854 16.8959
441 2 2.2208 2.77771 -5.21943 19.5741
364 2 2.2208 11.1557 8.85502 13.8178
488 1 -1.1104 6.89701 7.27523 15.1915
417 1 -1.1104 6.88103 1.59416 15.1846
492 1 -1.1104 6.93462 4.63983 18.118
485 1 -1.1104 6.91159 7.41329 18.0064
499 1 -1.1104 7.08156 4.40382 15.4409
410 1 -1.1104 6.92218 1.81231 18.0929
500 1 -1.1104 6.87091 4.4384 20.9645
451 1 -1.1104 12.4186 1.49531 18.0249
454 1 -1.1104 12.6298 1.55826 15.3095
458 2 2.2208 11.1391 3.06544 19.5381
462 1 -1.1104 9.63292 1.93899 18.198
466 1 -1.1104 9.64557 1.5289 15.163
469 2 2.2208 8.34035 2.96199 16.5418
518 2 2.2208 11.2565 6.12627 16.6362
520 1 -1.1104 12.4229 7.32047 18.3969
521 1 -1.1104 12.5778 7.41589 15.4199
523 1 -1.1104 12.6147 4.42495 17.9571
526 1 -1.1104 12.6992 4.51402 15.2424
530 1 -1.1104 9.73873 7.64113 18.2104
531 2 2.2208 8.45571 6.02844 19.5126
533 1 -1.1104 9.89473 7.39515 15.15
536 1 -1.1104 9.62733 4.57017 18.039
538 1 -1.1104 9.90821 4.70588 15.0981
539 1 -1.1104 9.73705 4.46655 20.9777
357 2 2.2208 10.9867 3.15346 13.7983
363 2 2.2208 8.20733 6.12631 13.7283
515 2 2.2208 -0.148107 9.00686 19.3381
483 2 2.2208 5.59558 11.5165 16.6346
491 1 -1.1104 1.34786 10.1549 18.0188
494 2 2.2208 5.49288 8.85067 19.5077
497 1 -1.1104 1.23815 10.2003 15.3672
505 2 2.2208 2.61034 11.5406 19.4339
508 2 2.2208 2.62162 8.85914 16.5823
510 1 -1.1104 4.00442 10.0781 18.1662
513 1 -1.1104 4.21394 10.1924 15.308
546 1 -1.1104 1.24095 13.0088 18.0348
550 1 -1.1104 1.35729 13.0795 15.0915
566 1 -1.1104 3.87507 13.2997 18.0021
569 1 -1.1104 4.29914 13.0644 15.201
360 2 2.2208 5.57856 8.88136 13.7818
516 2 2.2208 -0.145895 11.6687 16.7627
368 2 2.2208 2.6493 17.5533 13.6356
355 2 2.2208 8.15286 0.473687 13.7905
493 1 -1.1104 7.01465 10.2007 18.0011
554 1 -1.1104 6.8899 12.8721 15.1735
548 1 -1.1104 6.7223 13.2109 18.1529
501 1 -1.1104 7.0759 10.1421 15.1451
519 2 2.2208 11.2884 11.6403 16.7057
524 1 -1.1104 12.6599 10.1785 17.9974
525 2 2.2208 11.1417 8.93938 19.5356
528 1 -1.1104 12.5814 10.175 15.0862
532 2 2.2208 8.33406 11.8665 19.1588
535 2 2.2208 8.42491 8.80955 16.7071
537 1 -1.1104 9.85476 10.4821 18.1177
540 1 -1.1104 9.82672 10.1586 15.2994
582 1 -1.1104 12.689 12.9947 18.1565
584 1 -1.1104 12.5427 13.1088 15.3424
593 1 -1.1104 9.96204 13.1865 18.0623
596 1 -1.1104 9.8369 13.2016 15.1621
541 1 -1.1104 9.64494 10.2075 20.8498
585 1 -1.1104 12.5125 13.1556 20.8619
701 1 -1.1104 9.58533 15.8294 23.6792
555 1 -1.1104 6.94385 13.1697 20.8491
597 1 -1.1104 9.70609 13.3056 20.8264
365 2 2.2208 8.37608 11.6399 13.8018
361 2 2.2208 2.79893 11.5731 13.7857
573 2 2.2208 2.69604 14.5008 16.6423
560 2 2.2208 5.26057 14.4126 19.393
545 2 2.2208 5.55581 17.2679 16.7597
547 1 -1.1104 1.44588 18.7419 18.3238
552 1 -1.1104 1.34041 18.8878 15.3725
558 1 -1.1104 1.31736 15.9432 18.0737
561 2 2.2208 5.47291 20.1245 19.5248
562 1 -1.1104 1.54338 15.9473 15.3052
567 1 -1.1104 4.07673 18.8406 18.1243
568 2 2.2208 2.75997 17.3844 19.5952
571 1 -1.1104 4.09412 18.7624 15.2005
574 2 2.2208 2.78162 20.2591 16.771
575 1 -1.1104 4.03896 16.1141 18.2021
576 1 -1.1104 4.42295 15.7615 15.4226
667 2 2.2208 8.42588 17.4738 25.2203
448 2 2.2208 0.061366 14.5273 19.495
577 1 -1.1104 3.94176 15.8149 20.8883
633 1 -1.1104 12.3795 18.8238 23.8515
476 2 2.2208 -0.221727 20.0794 19.5238
359 2 2.2208 2.83298 6.04534 14.0341
369 2 2.2208 5.44011 20.1255 13.8608
604 1 -1.1104 9.57196 15.9931 20.7792
564 1 -1.1104 7.04761 15.8751 15.0127
589 2 2.2208 11.1382 14.6067 19.407
559 1 -1.1104 7.17008 16.0871 17.7342
565 1 -1.1104 6.74066 15.9513 20.7052
549 1 -1.1104 6.98654 18.8606 18.1243
556 1 -1.1104 6.9151 18.6169 15.2742
600 2 2.2208 8.45166 14.5631 16.4504
581 2 2.2208 11.1896 17.2513 16.4297
583 1 -1.1104 12.6143 18.4982 17.8624
586 1 -1.1104 12.6977 18.8214 14.8984
588 1 -1.1104 12.6072 15.6298 18.0071
590 2 2.2208 11.0652 20.0442 19.3309
591 1 -1.1104 12.5674 15.9568 15.128
594 1 -1.1104 9.81044 18.6786 17.9526
595 2 2.2208 8.54267 17.4877 19.4054
598 1 -1.1104 9.93228 18.6704 15.0999
601 2 2.2208 8.41346 20.1102 16.4967
602 1 -1.1104 9.91161 15.9193 17.9482
603 1 -1.1104 9.78719 15.9863 15.1501
599 1 -1.1104 9.92302 18.6773 20.889
376 2 2.2208 8.39836 17.3514 13.7675
367 2 2.2208 -0.178458 3.31161 13.8905
431 1 -1.1104 4.20844 -3.98251 21.1725
438 1 -1.1104 4.23942 -1.011 21.1782
424 1 -1.1104 1.28637 -1.04596 20.9544
642 2 2.2208 -0.0659584 -2.54893 25.329
609 2 2.2208 5.62214 0.429447 22.4657
610 1 -1.1104 1.27772 -3.85149 24.0312
614 1 -1.1104 1.18042 -3.75127 26.9863
618 1 -1.1104 1.39658 -1.04166 23.869
620 2 2.2208 5.42844 -2.4914 25.3656
622 1 -1.1104 1.40718 -1.07481 27.1762
624 1 -1.1104 4.0357 -4.06153 23.9867
626 2 2.2208 2.64013 0.252251 25.268
627 1 -1.1104 3.74538 -3.97109 26.6354
629 2 2.2208 2.78587 -2.50388 22.6191
631 1 -1.1104 4.27148 -1.32893 23.8615
632 1 -1.1104 4.03727 -1.13487 26.7235
643 2 2.2208 -0.156149 0.374637 22.3151
358 2 2.2208 -0.104994 8.99905 13.8861
426 1 -1.1104 7.06866 -1.04103 20.7656
460 1 -1.1104 12.5997 -1.34312 20.8555
416 1 -1.1104 6.68228 -3.77364 21.0744
453 1 -1.1104 12.5243 -4.08336 21.014
616 1 -1.1104 6.62989 -3.97635 26.5137
619 1 -1.1104 6.83405 -1.04844 23.9389
623 1 -1.1104 6.88616 -1.01268 26.7643
612 1 -1.1104 7.08361 -3.84619 23.7164
645 2 2.2208 10.9806 0.310854 22.3578
646 1 -1.1104 12.497 -3.83351 24.0478
648 1 -1.1104 12.5933 -3.78412 26.8363
650 1 -1.1104 12.3073 -1.0184 23.6377
651 2 2.2208 10.8961 -2.37176 25.2249
653 1 -1.1104 12.2646 -0.970071 26.6405
654 1 -1.1104 9.66357 -3.84144 23.8315
656 2 2.2208 8.11443 0.505646 25.1503
657 1 -1.1104 9.50997 -3.87823 26.8186
659 2 2.2208 8.28263 -2.37922 22.4282
661 1 -1.1104 9.5485 -0.989047 23.7867
662 1 -1.1104 9.4676 -1.03519 26.5996
736 1 -1.1104 6.90091 18.741 23.7526
371 2 2.2208 5.68673 14.4552 13.8294
447 2 2.2208 0.0453016 17.3017 16.8153
512 1 -1.1104 4.00251 4.71712 20.903
496 1 -1.1104 1.42172 4.74772 21.1767
414 1 -1.1104 1.22489 1.92559 20.9751
433 1 -1.1104 3.95521 1.93834 21.0965
507 1 -1.1104 4.28807 7.55601 20.9748
611 1 -1.1104 1.23237 1.85226 23.7318
615 1 -1.1104 1.24481 1.61523 26.5285
621 2 2.2208 5.53429 3.23735 25.1664
625 1 -1.1104 4.08826 1.87523 23.7257
628 1 -1.1104 4.12459 1.59024 26.5047
630 2 2.2208 2.58691 3.27514 22.6079
674 2 2.2208 5.54511 5.98831 22.2926
678 1 -1.1104 1.2764 7.52121 26.6951
680 1 -1.1104 1.23912 4.68129 24.0281
685 1 -1.1104 1.33149 4.51081 26.7273
689 1 -1.1104 4.06576 7.46147 23.7908
690 2 2.2208 2.73623 6.1009 25.2865
692 1 -1.1104 4.118 7.36156 26.8605
694 1 -1.1104 4.09696 4.7036 23.8439
696 1 -1.1104 4.24992 4.38902 26.7707
676 1 -1.1104 1.33336 7.42032 23.9656
444 2 2.2208 0.0609722 6.01118 22.6183
644 2 2.2208 -0.210264 3.12875 25.2296
418 1 -1.1104 6.952 1.68834 20.9456
455 1 -1.1104 12.4717 1.53802 20.8106
527 1 -1.1104 12.6422 4.22223 20.7198
534 1 -1.1104 9.79813 7.27721 21.0274
467 1 -1.1104 9.91635 1.82343 21.0295
617 1 -1.1104 6.84786 1.78294 26.4634
489 1 -1.1104 7.05072 7.45686 20.9091
522 1 -1.1104 12.5985 7.17899 20.977
687 1 -1.1104 6.98565 4.64552 26.5681
677 1 -1.1104 6.76891 7.40951 23.6652
682 1 -1.1104 6.91368 4.63645 23.4921
613 1 -1.1104 6.76493 1.77123 23.7525
679 1 -1.1104 6.99891 7.35989 26.6037
647 1 -1.1104 12.482 1.65988 23.681
649 1 -1.1104 12.4994 1.81532 26.5977
652 2 2.2208 11.209 3.1676 25.1957
655 1 -1.1104 9.56612 1.82433 23.7841
658 1 -1.1104 9.60042 1.97031 26.4082
660 2 2.2208 8.3747 3.29299 22.3102
706 1 -1.1104 9.89018 4.63168 26.4672
708 1 -1.1104 9.85304 4.61049 23.7316
712 2 2.2208 8.29976 5.8772 25.0535
713 2 2.2208 11.2904 5.93437 22.304
716 1 -1.1104 12.6568 7.46606 26.5643
717 1 -1.1104 12.5335 4.39358 23.5323
720 1 -1.1104 12.6109 4.63283 26.3364
722 1 -1.1104 9.69301 7.57216 23.7873
710 1 -1.1104 9.96213 7.481 26.6062
715 1 -1.1104 12.6246 7.45929 23.5439
702 2 2.2208 -0.321808 8.93303 25.2628
514 1 -1.1104 3.9298 10.3637 20.8765
570 1 -1.1104 4.19062 12.9624 20.8216
498 1 -1.1104 1.11097 10.1083 20.7617
487 1 -1.1104 1.4196 7.43047 21.1493
551 1 -1.1104 1.43896 12.9866 20.6381
746 1 -1.1104 4.2661 13.0974 26.5299
675 2 2.2208 5.57513 11.6748 22.3369
681 1 -1.1104 1.35846 10.2363 23.5529
684 2 2.2208 5.66032 8.87868 25.1808
686 1 -1.1104 1.38727 10.2044 26.6439
691 2 2.2208 2.73674 11.614 24.9716
693 2 2.2208 2.70484 8.79982 22.4264
695 1 -1.1104 4.25122 10.1579 23.8135
697 1 -1.1104 4.30745 10.2756 26.4086
731 1 -1.1104 4.06242 13.1041 23.7564
735 1 -1.1104 1.38074 12.9398 26.5316
741 1 -1.1104 1.20261 13.1825 23.6367
592 1 -1.1104 12.4609 16.0874 20.6508
703 2 2.2208 -0.223424 11.6354 22.4
502 1 -1.1104 6.76781 10.2057 20.8855
688 1 -1.1104 7.10666 10.3073 26.5588
683 1 -1.1104 6.96521 10.5597 23.6638
529 1 -1.1104 12.4764 10.3524 20.6614
730 1 -1.1104 6.96343 13.2606 26.5327
739 1 -1.1104 6.92284 13.2046 23.6708
673 1 -1.1104 9.72988 13.587 26.3567
664 1 -1.1104 9.7405 12.9618 23.6427
634 1 -1.1104 12.4749 12.9974 26.2167
705 1 -1.1104 10.0856 10.5518 26.5046
707 1 -1.1104 9.6324 10.3849 23.6863
709 2 2.2208 8.25931 8.96934 22.3475
711 2 2.2208 8.35515 11.8751 25.0115
714 2 2.2208 11.3181 11.7193 22.2318
718 1 -1.1104 12.665 10.3195 23.7059
719 2 2.2208 11.1908 8.98522 25.1058
721 1 -1.1104 12.6637 10.3946 26.3924
608 1 -1.1104 12.6212 13.1877 23.6077
356 2 2.2208 11.2911 -2.51761 14.1053
723 2 2.2208 -0.29852 17.2235 22.477
724 2 2.2208 -0.112869 19.8402 25.0465
572 1 -1.1104 4.08662 18.7892 21.15
563 1 -1.1104 1.24381 15.6805 20.9398
553 1 -1.1104 1.16247 18.4466 20.9996
732 1 -1.1104 6.70609 16.0915 26.635
725 2 2.2208 -0.124493 14.3937 25.2833
738 2 2.2208 5.51264 14.5724 25.049
727 2 2.2208 2.71077 14.4542 22.2856
748 1 -1.1104 1.3195 15.9299 23.6345
745 1 -1.1104 4.19689 15.8503 26.6492
744 2 2.2208 2.81052 17.3147 24.9599
743 1 -1.1104 4.08302 18.6187 26.644
750 2 2.2208 2.72362 20.1458 22.3622
749 1 -1.1104 4.06087 15.9579 23.5349
729 1 -1.1104 4.16322 18.8303 23.8052
733 1 -1.1104 1.29889 18.5249 26.4342
734 1 -1.1104 1.36578 15.7089 26.4247
737 2 2.2208 5.58288 20.3621 25.2496
740 1 -1.1104 1.36567 18.6628 23.5591
742 2 2.2208 5.56523 17.3332 22.1055
700 2 2.2208 8.3958 20.0983 22.3634
349 2 2.2208 2.57486 0.809788 13.8469
698 1 -1.1104 9.85885 18.8425 26.6084
670 1 -1.1104 6.9621 18.9163 26.4332
607 2 2.2208 11.1111 17.2217 22.2938
635 1 -1.1104 12.6892 18.624 26.5721
557 1 -1.1104 7.1962 18.707 20.8123
587 1 -1.1104 12.5717 18.7363 20.816
704 1 -1.1104 9.77647 16.2693 26.504
663 1 -1.1104 12.7693 15.8474 26.4634
641 2 2.2208 11.2283 20.1926 25.2182
636 1 -1.1104 12.5746 15.8867 23.5012
348 2 2.2208 5.42668 -2.33676 13.7816
440 2 2.2208 5.53329 -5.16613 16.6929
668 2 2.2208 11.0426 -5.14661 22.3913
639 2 2.2208 5.56655 -5.24587 22.6395
397 2 2.2208 -0.176715 5.98187 27.7475
373 2 2.2208 11.0988 14.6365 13.7874
751 2 2.2208 5.54318 23.0481 5.37173
753 1 -1.1104 1.62938 24.5238 1.06116
754 1 -1.1104 1.21632 24.2102 4.01906
755 1 -1.1104 1.43062 21.658 0.862515
757 2 2.2208 5.47472 25.7853 2.4608
758 1 -1.1104 1.53509 21.5435 3.90388
760 1 -1.1104 4.20187 24.4525 1.13478
761 2 2.2208 2.86968 23.1183 2.35615
763 1 -1.1104 4.16023 24.5751 3.8544
764 2 2.2208 2.66997 25.9554 5.39853
765 1 -1.1104 4.23087 21.7125 0.989349
767 1 -1.1104 4.36342 21.7511 3.92666
1700 1 -1.1104 9.47064 47.0679 6.48204
771 2 2.2208 -0.112689 25.8924 2.44037
1130 2 2.2208 11.0813 34.5498 -0.255579
899 1 -1.1104 4.01814 21.9049 6.53041
892 1 -1.1104 1.13637 24.2951 6.58488
1133 2 2.2208 5.34972 40.1056 -0.261025
770 2 2.2208 -0.109945 22.9257 5.3944
772 1 -1.1104 7.04701 24.5924 1.31116
773 1 -1.1104 6.86622 24.4313 4.15902
776 1 -1.1104 7.27254 21.5999 3.95799
775 1 -1.1104 6.8812 27.3405 0.886789
896 1 -1.1104 7.02009 21.4166 6.68393
774 1 -1.1104 7.00978 21.7442 1.07658
778 2 2.2208 11.0948 23.2341 5.35011
780 1 -1.1104 12.5225 24.4395 0.801235
781 1 -1.1104 12.2747 24.5541 3.83499
782 1 -1.1104 12.9287 21.5226 1.0137
784 2 2.2208 11.06 26.0186 2.63937
785 1 -1.1104 12.5294 21.7318 3.90209
787 1 -1.1104 9.76506 24.1079 1.00707
788 2 2.2208 8.2124 22.8992 2.46495
790 1 -1.1104 9.62287 24.4984 3.945
791 2 2.2208 8.21104 25.7933 5.28652
792 1 -1.1104 9.75126 21.5693 1.16379
794 1 -1.1104 9.88638 21.5558 4.12903
783 1 -1.1104 12.4533 27.0797 1.08327
1052 1 -1.1104 12.948 44.2615 9.30965
769 2 2.2208 -0.270932 28.8318 5.29069
759 1 -1.1104 1.15569 27.3753 4.00131
768 1 -1.1104 4.03735 27.1395 3.86387
756 1 -1.1104 1.0611 27.1873 0.934129
766 1 -1.1104 3.79589 27.6471 1.15841
752 2 2.2208 5.50728 28.5861 5.31318
762 2 2.2208 2.56665 28.5236 2.63385
800 1 -1.1104 1.24961 30.2727 1.07994
803 1 -1.1104 1.2338 30.0172 3.85714
806 1 -1.1104 1.32462 33.138 1.09504
807 2 2.2208 5.31981 31.5625 2.45721
809 1 -1.1104 1.30505 32.8201 3.83216
811 1 -1.1104 4.06148 30.3058 0.918013
814 1 -1.1104 3.95232 30.0461 3.90626
816 2 2.2208 2.7008 31.5956 5.3798
818 1 -1.1104 3.96515 32.8819 1.30747
819 1 -1.1104 4.08635 33.0444 4.14183
953 1 -1.1104 1.29599 32.8524 6.78463
1017 1 -1.1104 7.09996 44.3397 12.6308
1114 2 2.2208 10.9158 39.8106 -0.346616
820 2 2.2208 -0.125296 34.142 5.41752
900 1 -1.1104 4.09048 27.3162 6.92233
777 1 -1.1104 6.90168 27.222 3.86283
793 1 -1.1104 9.50122 27.2485 1.25395
795 1 -1.1104 9.75498 27.3241 3.99335
786 1 -1.1104 12.621 27.1208 4.1074
825 1 -1.1104 6.90907 32.8066 0.992463
1116 2 2.2208 5.42752 28.7932 -0.381878
823 1 -1.1104 6.90851 29.9348 1.07611
810 1 -1.1104 6.67591 32.8677 4.07278
951 1 -1.1104 6.86347 29.9765 6.78834
824 1 -1.1104 6.82305 30.0166 3.88631
779 2 2.2208 11.0737 28.6494 5.45601
789 2 2.2208 8.3073 28.633 2.55768
827 1 -1.1104 12.524 30.1267 1.06282
829 1 -1.1104 12.7116 29.8938 3.87405
831 1 -1.1104 12.4025 32.9499 1.05011
832 2 2.2208 11.1283 31.6857 2.58156
834 1 -1.1104 12.4767 32.8797 3.97025
835 1 -1.1104 9.80609 30.0437 1.00158
838 1 -1.1104 9.70958 30.2232 3.79824
840 2 2.2208 8.3136 31.5275 5.29064
842 1 -1.1104 9.599 32.9985 1.34438
843 1 -1.1104 9.50147 33.0258 4.03677
986 1 -1.1104 9.68663 29.8823 6.75783
1032 1 -1.1104 6.93664 41.5624 12.3247
1125 2 2.2208 5.44421 34.469 -0.256732
799 2 2.2208 5.39871 34.4634 5.42101
801 1 -1.1104 1.20045 36.1783 1.17677
804 1 -1.1104 1.36132 35.8549 4.04836
808 2 2.2208 5.45488 37.2613 2.62119
812 1 -1.1104 4.07996 35.7138 0.977136
813 2 2.2208 2.69308 34.4374 2.7852
815 1 -1.1104 4.05393 35.9582 4.0322
817 2 2.2208 2.66426 37.5042 5.25609
845 2 2.2208 5.51503 40.1825 5.43925
851 1 -1.1104 1.14151 38.6451 1.09665
856 1 -1.1104 1.25661 38.728 3.78081