ITEM: TIMESTEP
50000
ITEM: NUMBER OF ATOMS
17730
ITEM: BOX BOUNDS pp pp pp
-4.3458964312668763e-01 2.7774589643126031e+01
-5.2807525135571556e+00 3.3336075251355800e+02
-4.4495268229387913e-01 2.7784952682293596e+01
ITEM: ATOMS id type q x y z
1 2 2.2208 5.12854 0.371668 5.23444
2 1 -1.1104 0.517617 -3.63299 0.610508
6 1 -1.1104 0.730413 -3.80875 3.68418
10 1 -1.1104 0.841017 -0.840422 0.730964
12 2 2.2208 5.01897 -2.3612 2.25382
14 1 -1.1104 0.83967 -1.06986 3.55361
16 1 -1.1104 3.49471 -3.86582 0.703599
18 2 2.2208 2.34638 0.322304 2.2314
19 1 -1.1104 3.44035 -3.79857 3.63938
21 2 2.2208 2.1502 -2.44899 5.17557
23 1 -1.1104 3.67549 -1.26145 0.820065
24 1 -1.1104 3.73746 -0.886166 3.76401
172 1 -1.1104 3.95019 -3.98709 6.58299
174 1 -1.1104 3.58799 -1.2109 6.6274
8 1 -1.1104 6.18102 -3.67571 3.8882
15 1 -1.1104 6.43694 -1.01787 3.57431
4 1 -1.1104 6.56377 -4.08478 0.932735
11 1 -1.1104 6.44318 -1.22472 0.733804
341 2 2.2208 13.4613 8.78014 10.6912
170 1 -1.1104 0.780862 -1.20723 6.26253
171 1 -1.1104 6.50414 -1.16441 6.5518
31 2 2.2208 10.6877 0.287003 5.04937
32 1 -1.1104 11.9885 -3.98888 0.769563
34 1 -1.1104 11.835 -3.90898 3.7801
36 1 -1.1104 12.0739 -1.23822 0.834242
37 2 2.2208 10.6492 -2.61075 2.4015
39 1 -1.1104 12.012 -1.02619 3.57483
40 1 -1.1104 9.29912 -4.02945 0.744123
42 2 2.2208 7.81233 0.319921 2.26434
43 1 -1.1104 9.25895 -4.26036 3.63354
45 2 2.2208 7.84573 -2.58665 5.00109
47 1 -1.1104 9.30208 -1.2347 0.870867
48 1 -1.1104 9.30428 -1.28944 3.63802
337 2 2.2208 13.6454 14.4347 5.04679
49 2 2.2208 13.3636 0.34055 2.27918
357 2 2.2208 10.6679 3.18343 13.5279
50 2 2.2208 13.3884 -2.49095 5.19928
339 2 2.2208 13.4912 6.0137 8.01526
313 2 2.2208 -0.417692 14.5154 7.87155
229 2 2.2208 13.4969 0.203039 7.83804
3 1 -1.1104 0.960661 1.95215 0.703665
7 1 -1.1104 1.0887 1.54486 3.80178
13 2 2.2208 5.10068 3.16552 2.29988
17 1 -1.1104 3.62753 1.81417 0.907592
20 1 -1.1104 3.99746 1.71791 3.79669
22 2 2.2208 2.41156 2.99892 5.09668
54 2 2.2208 5.16356 5.99499 5.12643
56 1 -1.1104 0.810351 7.50817 0.957348
60 1 -1.1104 0.786279 4.62142 0.769865
67 1 -1.1104 0.995887 4.386 3.78152
72 2 2.2208 2.33377 6.07391 2.3409
76 1 -1.1104 3.66309 4.66951 0.958654
79 1 -1.1104 3.56033 4.49838 3.81898
58 1 -1.1104 1.06649 7.42998 3.73108
71 1 -1.1104 3.544 7.44835 1.00589
74 1 -1.1104 3.9208 7.46097 3.60966
57 1 -1.1104 6.28199 7.17869 0.773505
238 1 -1.1104 3.9245 7.41558 6.42983
173 1 -1.1104 3.83295 1.82222 6.68866
69 1 -1.1104 6.59131 4.50404 3.70428
63 1 -1.1104 6.50191 4.42816 0.760077
5 1 -1.1104 6.29712 1.58473 1.12026
9 1 -1.1104 6.59511 1.49097 3.78978
235 1 -1.1104 6.4836 7.49619 6.29301
59 1 -1.1104 6.67598 7.35171 3.56679
169 1 -1.1104 6.2634 1.79216 6.51896
237 1 -1.1104 6.67313 4.42373 6.51113
136 2 2.2208 -0.427899 20.0548 2.10075
33 1 -1.1104 11.9183 1.67204 1.02982
35 1 -1.1104 12.1109 1.92677 3.81201
38 2 2.2208 10.6304 3.17468 2.22382
41 1 -1.1104 9.20969 1.60267 0.701063
44 1 -1.1104 9.39809 1.70249 3.56983
46 2 2.2208 7.93526 3.04572 4.92071
84 2 2.2208 10.52 5.9036 5.20259
88 1 -1.1104 12.011 4.3371 0.570447
92 1 -1.1104 11.8119 4.80634 3.69556
94 1 -1.1104 9.22621 7.39496 0.768716
95 2 2.2208 7.83987 6.10792 2.10497
97 1 -1.1104 9.34927 7.53143 3.46075
99 1 -1.1104 9.31394 4.69999 0.677185
102 1 -1.1104 9.17772 4.64344 3.63622
86 1 -1.1104 12.0471 7.33656 0.935639
266 1 -1.1104 11.9026 4.2954 6.50293
265 1 -1.1104 12.2676 7.33072 6.37087
267 1 -1.1104 9.38294 7.23025 6.46094
87 1 -1.1104 11.918 7.42119 3.51557
230 2 2.2208 13.4047 -2.49898 11.0497
318 1 -1.1104 9.54529 18.5822 9.36144
55 2 2.2208 5.19895 11.6272 5.14655
61 1 -1.1104 0.887145 10.4326 0.885927
66 2 2.2208 5.18432 8.85889 2.43466
68 1 -1.1104 0.809036 10.2444 3.65736
73 2 2.2208 2.41128 11.5707 2.33239
75 2 2.2208 2.42298 8.74153 5.05213
77 1 -1.1104 3.55417 10.1845 0.892958
80 1 -1.1104 3.67501 10.0877 3.73306
107 1 -1.1104 0.994486 13.11 0.863531
113 1 -1.1104 0.929006 12.9324 3.59849
123 1 -1.1104 3.91531 12.9098 1.10085
128 1 -1.1104 3.81841 13.1012 3.76666
62 1 -1.1104 1.00801 10.3232 6.38711
124 1 -1.1104 3.57889 12.854 6.5756
64 1 -1.1104 6.68487 10.1816 0.975118
110 1 -1.1104 6.57071 13.233 0.857423
115 1 -1.1104 6.44205 12.9198 3.92634
78 1 -1.1104 3.70868 10.0596 6.55712
70 1 -1.1104 6.52186 10.1716 3.77714
111 1 -1.1104 6.49179 13.0717 6.63285
65 1 -1.1104 6.53678 10.1391 6.71933
326 1 -1.1104 12.3042 15.7567 12.069
104 2 2.2208 13.4606 11.4804 2.19879
85 2 2.2208 10.845 11.5601 5.1942
89 1 -1.1104 12.0167 10.0684 0.680579
91 2 2.2208 10.5144 8.94625 2.04605
93 1 -1.1104 12.097 10.1895 3.38863
96 2 2.2208 7.96801 11.5959 2.16958
98 2 2.2208 7.94134 8.88696 5.14132
100 1 -1.1104 9.19194 10.4397 0.591115
103 1 -1.1104 9.46453 10.2416 3.7898
142 1 -1.1104 12.1117 12.8728 0.927396
146 1 -1.1104 11.7964 13.2442 3.8799
153 1 -1.1104 9.18889 12.933 0.757087
158 1 -1.1104 9.07644 12.9207 3.75053
143 1 -1.1104 12.4098 12.9259 6.4472
90 1 -1.1104 12.2022 10.0774 6.30673
101 1 -1.1104 9.33302 10.2046 6.58347
333 2 2.2208 13.542 14.3345 10.6628
154 1 -1.1104 9.53384 13.0609 6.49168
119 2 2.2208 5.23374 14.4666 2.31382
130 2 2.2208 2.50617 14.6511 5.08933
106 2 2.2208 5.41237 17.2714 5.10794
109 1 -1.1104 1.02034 18.3818 0.677715
114 1 -1.1104 0.935505 18.5426 3.64753
116 1 -1.1104 0.654085 15.8212 0.905266
120 2 2.2208 5.19552 19.9887 2.16532
121 1 -1.1104 0.973566 15.8761 3.63281
125 1 -1.1104 3.95831 18.5957 0.94862
127 2 2.2208 2.44712 17.1146 2.21824
129 1 -1.1104 3.92994 18.7496 3.63181
131 2 2.2208 2.48812 20.0036 4.99491
132 1 -1.1104 3.57698 15.7487 0.784497
134 1 -1.1104 3.9179 15.8973 3.54159
133 1 -1.1104 3.8401 15.876 6.70033
140 1 -1.1104 6.4495 15.9821 0.917873
112 1 -1.1104 6.59946 18.6646 6.43142
122 1 -1.1104 6.78651 15.7629 3.74966
138 1 -1.1104 6.63251 18.7594 0.822176
118 1 -1.1104 6.64424 15.617 6.69901
117 1 -1.1104 0.939524 15.8366 6.58106
302 1 -1.1104 0.898554 18.6369 6.52098
105 2 2.2208 13.1801 5.89523 2.24372
391 2 2.2208 13.4017 -2.73768 -0.438445
139 1 -1.1104 6.87694 18.6028 3.48388
334 2 2.2208 13.6262 3.1141 5.22978
160 2 2.2208 8.01971 14.2991 5.30192
150 2 2.2208 10.6693 14.4184 2.35022
141 2 2.2208 10.7971 17.2517 5.08906
144 1 -1.1104 12.2407 18.4097 0.9666
147 1 -1.1104 12.3642 18.7616 3.7866
148 1 -1.1104 11.9213 15.6971 0.739939
151 2 2.2208 11.1749 20.0913 2.2541
152 1 -1.1104 12.2721 15.9467 3.68345
155 1 -1.1104 9.62405 18.5516 0.890804
157 2 2.2208 8.17555 17.3487 2.12963
159 1 -1.1104 9.5108 18.8445 3.64043
161 2 2.2208 8.03737 20.0655 5.1457
162 1 -1.1104 9.3465 15.886 0.906416
164 1 -1.1104 9.54074 15.7953 3.63404
149 1 -1.1104 12.1509 15.9598 6.58897
156 1 -1.1104 9.34193 18.5459 6.7306
145 1 -1.1104 12.3363 18.908 6.52314
163 1 -1.1104 9.34557 16.0624 6.43338
395 2 2.2208 5.0895 11.4636 -0.410901
199 2 2.2208 -0.438752 3.29871 7.88124
166 1 -1.1104 1.00926 -3.91904 6.57303
365 2 2.2208 7.96767 11.8691 13.5305
314 1 -1.1104 9.29669 15.9239 9.4866
175 2 2.2208 5.037 0.345886 10.7552
176 1 -1.1104 0.744844 -3.70215 12.0238
180 1 -1.1104 0.892415 -3.8878 9.27993
184 1 -1.1104 0.877157 -0.923309 11.8979
186 2 2.2208 5.08963 -2.63994 7.89444
188 1 -1.1104 0.929175 -0.864015 9.0336
190 1 -1.1104 3.47867 -3.90539 12.3071
192 2 2.2208 2.33061 0.466112 8.03498
193 1 -1.1104 3.64982 -4.00817 9.26
195 2 2.2208 2.25257 -2.64256 10.6389
197 1 -1.1104 3.6207 -1.01414 12.4137
198 1 -1.1104 3.83559 -1.02807 9.46451
178 1 -1.1104 6.43367 -3.91184 12.1684
182 1 -1.1104 6.49537 -3.95745 9.44776
189 1 -1.1104 6.37824 -1.13316 9.50285
185 1 -1.1104 6.30081 -0.997524 12.3256
320 2 2.2208 7.9842 17.2334 8.09012
327 1 -1.1104 12.2953 18.4863 9.31784
210 1 -1.1104 9.22687 -1.15303 6.45841
207 1 -1.1104 11.9863 -1.04299 6.36671
208 1 -1.1104 9.29985 -4.00029 6.61864
362 2 2.2208 13.5079 11.5941 13.5619
370 2 2.2208 13.4102 0.399077 13.5656
321 1 -1.1104 9.3479 18.6392 12.3371
168 1 -1.1104 6.76199 -3.95142 6.5003
324 2 2.2208 10.8038 20.1672 7.98788
205 1 -1.1104 12.2677 -4.17147 6.53864
211 2 2.2208 10.5422 0.06904 10.8005
212 1 -1.1104 12.2872 -3.96132 12.3294
214 1 -1.1104 11.9291 -4.07304 9.54767
216 1 -1.1104 11.9158 -1.22558 12.2777
217 2 2.2208 10.4679 -2.61947 8.11062
219 1 -1.1104 12.0038 -1.1846 9.68666
220 1 -1.1104 9.44761 -3.89356 12.3648
222 2 2.2208 7.74863 0.311341 8.0414
223 1 -1.1104 9.2071 -3.87804 9.42315
225 2 2.2208 7.68596 -2.37176 10.8957
227 1 -1.1104 9.01985 -0.999532 12.1801
228 1 -1.1104 9.27259 -1.19549 9.45081
323 1 -1.1104 12.1267 15.4592 9.4029
340 2 2.2208 13.6413 11.5019 7.79275
338 2 2.2208 13.4594 3.19664 10.8334
167 1 -1.1104 1.13805 1.7432 6.55146
234 1 -1.1104 1.21226 6.97742 6.49382
239 1 -1.1104 4.0222 4.53973 6.76631
353 2 2.2208 7.89808 -5.15982 13.5595
236 1 -1.1104 1.10887 4.40377 6.57517
177 1 -1.1104 0.862721 1.69891 12.1568
181 1 -1.1104 0.830937 1.98131 9.3577
187 2 2.2208 5.23932 3.13651 8.00972
191 1 -1.1104 3.73797 1.81013 12.4169
194 1 -1.1104 3.64565 1.75821 9.60381
196 2 2.2208 2.49808 3.25129 10.9414
240 2 2.2208 5.16992 5.96654 10.8554
244 1 -1.1104 0.606439 7.35066 9.22209
246 1 -1.1104 1.0126 4.56745 12.189
251 1 -1.1104 1.25702 4.71791 9.37134
255 1 -1.1104 3.67705 7.33345 12.1917
256 2 2.2208 2.53566 5.88532 7.96792
260 1 -1.1104 3.70186 4.84355 12.3103
262 1 -1.1104 4.05286 4.56244 9.48817
258 1 -1.1104 3.75254 7.26911 9.44146
242 1 -1.1104 0.793908 7.45236 12.288
243 1 -1.1104 6.58388 7.4803 12.144
245 1 -1.1104 6.63375 7.15164 9.20548
183 1 -1.1104 6.51559 1.78165 9.29508
179 1 -1.1104 6.44302 1.706 12.0881
253 1 -1.1104 6.77746 4.29959 9.39859
248 1 -1.1104 6.52115 4.39076 12.3378
209 1 -1.1104 9.07948 1.68662 6.4978
269 1 -1.1104 9.2756 4.1864 6.37672
329 1 -1.1104 12.0944 18.5247 12.0206
206 1 -1.1104 12.0031 1.65384 6.41551
213 1 -1.1104 11.9421 1.7054 12.2171
215 1 -1.1104 12.136 1.73384 9.28338
218 2 2.2208 10.6053 2.90388 7.87088
221 1 -1.1104 9.34617 1.57158 12.148
224 1 -1.1104 9.25995 1.62564 9.27882
226 2 2.2208 8.05892 2.96821 10.7831
268 1 -1.1104 9.46049 4.453 9.24058
271 1 -1.1104 9.38725 4.55 12.0175
273 1 -1.1104 9.43851 7.25295 9.04594
275 2 2.2208 8.04101 5.89816 7.79899
276 2 2.2208 10.7121 5.8731 10.6227
280 1 -1.1104 12.1741 4.55375 12.1275
283 1 -1.1104 12.2373 4.6284 9.33482
278 1 -1.1104 11.951 7.40777 12.1825
285 1 -1.1104 9.35492 7.37607 11.952
279 1 -1.1104 12.3126 7.3503 9.34232
335 2 2.2208 13.5104 8.61839 4.94869
315 1 -1.1104 9.44324 15.6719 12.0716
108 1 -1.1104 0.946418 13.1184 6.55693
287 1 -1.1104 3.7103 12.9371 12.1798
305 1 -1.1104 3.30385 12.709 9.5187
299 1 -1.1104 0.884387 12.9623 12.3271
241 2 2.2208 4.95748 11.6662 10.8393
247 1 -1.1104 0.952513 10.25 12.0955
250 2 2.2208 4.96915 8.68128 7.95067
252 1 -1.1104 0.926446 10.168 9.22432
257 2 2.2208 2.18221 11.591 7.94318
259 2 2.2208 2.24946 8.69274 10.6677
261 1 -1.1104 3.69056 10.1564 12.2537
263 1 -1.1104 3.67484 9.93628 9.34438
294 1 -1.1104 0.695655 13.1984 9.45734
297 1 -1.1104 6.51981 13.2961 12.2224
290 1 -1.1104 6.32925 13.0518 9.37031
249 1 -1.1104 6.58018 10.5115 12.1135
316 2 2.2208 8.3025 20.0246 10.9802
28 2 2.2208 2.24213 -5.23822 2.19516
355 2 2.2208 7.72965 0.275272 13.5968
363 2 2.2208 7.89923 6.00711 13.3595
254 1 -1.1104 6.45222 10.0488 9.44837
330 1 -1.1104 12.2146 12.9406 12.0517
328 1 -1.1104 12.2065 12.8412 9.22052
322 1 -1.1104 9.30267 12.9927 11.8048
319 1 -1.1104 9.06244 13.1734 9.14955
264 1 -1.1104 9.44048 10.315 9.44955
270 1 -1.1104 9.39892 10.2609 12.3895
272 2 2.2208 8.05557 8.89685 10.7481
274 2 2.2208 7.83029 11.4025 8.09547
277 2 2.2208 10.7489 11.7124 10.6499
281 1 -1.1104 12.2698 10.1996 12.0249
282 2 2.2208 10.8754 8.75999 7.86998
284 1 -1.1104 12.1057 10.1391 9.32369
331 2 2.2208 10.6301 17.1251 10.8785
348 2 2.2208 5.05003 -2.59265 13.5624
126 1 -1.1104 3.77081 18.564 6.46855
325 2 2.2208 10.8868 14.3599 7.7854
289 1 -1.1104 6.61362 15.9303 9.54237
295 2 2.2208 5.02823 14.587 8.08756
310 2 2.2208 2.27684 14.3096 10.8255
291 1 -1.1104 0.983068 18.668 9.21313
309 2 2.2208 2.32083 19.9833 10.5695
308 1 -1.1104 3.8012 15.6629 12.1975
307 1 -1.1104 0.945598 15.9062 12.1841
286 1 -1.1104 3.89073 18.6921 12.3694
304 1 -1.1104 3.47155 15.8143 9.39332
303 2 2.2208 2.27572 17.2041 8.03765
301 1 -1.1104 3.6284 18.5514 9.70701
292 1 -1.1104 0.599514 15.8791 9.29227
300 2 2.2208 5.02016 17.1707 10.9455
298 1 -1.1104 0.927214 18.7056 12.0597
293 2 2.2208 5.14584 20.0346 7.91546
306 1 -1.1104 6.37558 16.103 12.2491
296 1 -1.1104 6.68204 18.7844 12.055
288 1 -1.1104 6.35112 18.5506 9.11305
380 2 2.2208 13.6228 17.2087 13.4949
317 2 2.2208 7.90387 14.6077 10.6878
373 2 2.2208 10.9076 14.5014 13.2905
82 2 2.2208 -0.426186 8.97403 2.15904
368 2 2.2208 2.35747 17.3453 13.4291
364 2 2.2208 10.7123 8.91575 13.4921
349 2 2.2208 2.25039 0.449643 13.4117
361 2 2.2208 2.29246 11.5599 13.4425
83 2 2.2208 -0.381936 11.5766 4.92998
81 2 2.2208 -0.226391 5.8937 5.07229
165 2 2.2208 13.6528 17.1998 2.24594
372 2 2.2208 11.0528 20.1484 13.6456
379 2 2.2208 8.02224 20.0544 -0.426057
376 2 2.2208 7.8678 17.3124 13.5867
366 2 2.2208 13.5867 6.13959 13.6409
369 2 2.2208 5.14267 20.135 13.578
360 2 2.2208 4.97725 8.70509 13.5852
406 2 2.2208 4.98939 0.377065 16.4625
407 1 -1.1104 0.87427 -4.06549 17.637
411 1 -1.1104 0.745101 -3.76119 14.669
419 1 -1.1104 0.767054 -1.17319 17.5534
421 2 2.2208 4.96395 -2.37952 19.165
423 1 -1.1104 0.978585 -1.11453 14.6655
427 1 -1.1104 3.64228 -4.07982 17.7321
429 2 2.2208 2.25091 0.290966 19.1732
430 1 -1.1104 3.77687 -3.69649 14.8973
434 2 2.2208 2.24514 -2.42446 16.3164
436 1 -1.1104 3.40914 -1.25001 17.952
437 1 -1.1104 3.64469 -1.03533 15.166
420 1 -1.1104 6.28626 -1.09716 17.797
415 1 -1.1104 6.52985 -3.85116 14.8228
425 1 -1.1104 6.40532 -1.17934 15.0869
672 2 2.2208 13.3869 0.210836 24.9324
409 1 -1.1104 6.47327 -3.84204 17.9037
416 1 -1.1104 6.34174 -3.7883 20.6328
394 2 2.2208 2.19841 8.84666 27.4683
426 1 -1.1104 6.35256 -1.09813 20.5859
431 1 -1.1104 3.65774 -3.57746 20.6518
441 2 2.2208 2.19496 -5.14151 19.2318
449 2 2.2208 10.7597 0.37659 16.3139
450 1 -1.1104 12.0851 -3.86004 18.1178
452 1 -1.1104 12.1336 -4.07839 15.285
456 1 -1.1104 12.1283 -0.899473 17.813
457 2 2.2208 10.7097 -2.43553 19.1734
459 1 -1.1104 12.3467 -1.35765 15.189
461 1 -1.1104 9.21581 -4.09971 17.7995
463 2 2.2208 7.95359 0.394881 19.0911
464 1 -1.1104 9.31007 -3.76418 15.066
468 2 2.2208 7.83045 -2.46183 16.4666
470 1 -1.1104 9.10701 -1.073 17.6813
471 1 -1.1104 9.3547 -0.918003 14.8808
378 2 2.2208 10.7273 17.1273 27.7222
445 2 2.2208 13.5644 8.67615 21.7699
704 1 -1.1104 9.47409 15.827 26.2795
398 2 2.2208 10.8095 6.10112 27.5804
405 2 2.2208 2.30343 19.9328 27.6234
641 2 2.2208 10.7299 19.9035 24.9907
408 1 -1.1104 0.918985 1.77259 17.9347
413 1 -1.1104 0.909522 1.70879 15.2044
422 2 2.2208 5.17527 3.23283 19.2525
428 1 -1.1104 3.6033 1.88722 17.8765
432 1 -1.1104 3.61711 1.70532 15.0418
435 2 2.2208 2.19861 3.14784 16.4541
482 2 2.2208 5.11392 5.95423 16.535
484 1 -1.1104 0.887442 7.5302 17.902
486 1 -1.1104 0.798263 7.39988 14.9367
490 1 -1.1104 1.0381 4.54361 17.9184
495 1 -1.1104 0.865312 4.60894 14.9642
503 1 -1.1104 3.52172 7.28886 17.6665
504 2 2.2208 2.30699 5.91714 19.2548
506 1 -1.1104 3.67548 7.4782 14.8962
509 1 -1.1104 3.65334 4.58206 17.6442
511 1 -1.1104 3.74489 4.64726 14.9334
507 1 -1.1104 3.49062 7.33833 20.5116
496 1 -1.1104 0.730447 4.46664 20.6721
433 1 -1.1104 3.66415 1.61851 20.712
485 1 -1.1104 6.40151 7.23224 18.075
512 1 -1.1104 3.69046 4.66298 20.6083
499 1 -1.1104 6.51206 4.65186 14.9743
410 1 -1.1104 6.46443 1.69408 17.7754
417 1 -1.1104 6.50939 1.76853 15.1081
492 1 -1.1104 6.55605 4.42475 17.7608
488 1 -1.1104 6.37822 7.49705 15.1397
517 2 2.2208 13.5034 11.5459 19.3901
451 1 -1.1104 12.0369 1.85095 18.0567
454 1 -1.1104 12.0797 1.74144 14.943
458 2 2.2208 10.5578 3.01981 19.2706
462 1 -1.1104 9.29962 1.63566 17.7584
466 1 -1.1104 9.46937 1.90454 14.8885
469 2 2.2208 8.02233 3.16271 16.3281
518 2 2.2208 10.6714 6.17211 16.3961
520 1 -1.1104 11.9039 7.8496 17.6742
521 1 -1.1104 12.241 7.70403 14.9013
523 1 -1.1104 11.9925 4.64096 17.6912
526 1 -1.1104 12.1934 4.66139 14.9523
530 1 -1.1104 9.38485 7.44592 17.7074
531 2 2.2208 7.9102 6.01401 19.2639
533 1 -1.1104 9.22424 7.54209 14.8436
536 1 -1.1104 9.11168 4.54509 17.91
538 1 -1.1104 9.34751 4.69898 14.9277
534 1 -1.1104 9.32359 7.47797 20.4423
371 2 2.2208 5.11239 14.4951 13.8056
388 2 2.2208 7.84911 -2.56866 27.7054
701 1 -1.1104 9.129 15.8144 23.3988
539 1 -1.1104 9.34191 4.51308 20.7027
467 1 -1.1104 9.29628 1.8484 20.6888
522 1 -1.1104 12.1479 7.31414 20.3148
446 2 2.2208 13.4537 3.10912 21.9298
483 2 2.2208 4.90252 11.6712 16.3936
491 1 -1.1104 0.886547 10.351 17.4948
494 2 2.2208 5.06608 8.81728 19.3279
497 1 -1.1104 0.711765 10.2813 14.8254
505 2 2.2208 2.11769 11.5632 19.1081
508 2 2.2208 2.23915 8.77223 16.4916
510 1 -1.1104 3.54672 10.3557 17.819
513 1 -1.1104 3.64022 10.2071 15.0647
546 1 -1.1104 0.769466 12.9827 17.6635
550 1 -1.1104 0.952449 12.9724 14.8259
566 1 -1.1104 3.514 13.1686 17.7724
569 1 -1.1104 3.68537 13.0872 15.1769
554 1 -1.1104 6.60577 13.1681 15.0879
493 1 -1.1104 6.44543 10.2729 17.7661
548 1 -1.1104 6.301 12.9075 17.9525
555 1 -1.1104 6.52087 13.0565 20.8199
502 1 -1.1104 6.57429 10.2782 20.7395
501 1 -1.1104 6.30604 10.3262 14.9771
551 1 -1.1104 0.821991 13.1003 20.6607
570 1 -1.1104 3.76656 13.0515 20.5812
635 1 -1.1104 12.0478 18.6263 26.3683
728 2 2.2208 13.455 6.06269 24.6784
519 2 2.2208 10.6142 11.854 16.2177
524 1 -1.1104 12.0925 10.4142 17.7832
525 2 2.2208 10.6549 8.95815 19.1886
528 1 -1.1104 12.0781 10.3358 14.7677
532 2 2.2208 7.96214 11.5573 19.1189
535 2 2.2208 7.90177 9.00146 16.2372
537 1 -1.1104 9.25905 10.1714 17.6895
540 1 -1.1104 9.25991 10.4623 14.9707
582 1 -1.1104 12.0351 13.3102 17.6825
584 1 -1.1104 12.2838 13.1637 14.7975
593 1 -1.1104 9.17048 13.0611 17.8552
596 1 -1.1104 9.34346 13.2922 14.8266
529 1 -1.1104 11.9716 10.0761 20.7075
543 2 2.2208 13.5145 8.84812 16.3653
597 1 -1.1104 9.26408 12.9924 20.5837
541 1 -1.1104 9.27324 10.4509 20.6262
585 1 -1.1104 12.094 12.9736 20.5383
387 2 2.2208 10.6164 0.177406 27.7749
573 2 2.2208 2.30882 14.6398 16.3825
560 2 2.2208 5.17631 14.3454 19.319
545 2 2.2208 5.04494 17.3856 16.3659
547 1 -1.1104 0.942009 18.7944 17.5712
552 1 -1.1104 0.989881 18.8114 14.8382
558 1 -1.1104 0.975557 15.7317 17.6437
561 2 2.2208 5.12575 20.1581 19.1776
562 1 -1.1104 0.934453 16.0266 14.9251
567 1 -1.1104 3.70625 18.8707 17.8156
568 2 2.2208 2.35484 17.3429 19.1555
571 1 -1.1104 3.90001 18.7399 14.8964
574 2 2.2208 2.29046 20.0571 16.2929
575 1 -1.1104 3.89028 16.0497 17.9552
576 1 -1.1104 3.62444 15.8962 15.0292
559 1 -1.1104 6.39755 15.7954 17.9545
564 1 -1.1104 6.6634 15.9388 15.0911
549 1 -1.1104 6.59073 18.6944 17.8555
556 1 -1.1104 6.66228 18.5389 15.2142
577 1 -1.1104 3.70089 15.6677 20.7173
563 1 -1.1104 0.794913 15.9157 20.3843
572 1 -1.1104 3.69157 18.6041 20.6591
557 1 -1.1104 6.65508 18.7481 20.4641
633 1 -1.1104 12.1161 18.3586 23.4056
600 2 2.2208 8.02095 14.5641 16.512
589 2 2.2208 10.6464 14.6409 19.082
581 2 2.2208 10.6603 17.1926 16.2956
583 1 -1.1104 12.2012 18.6936 17.6432
586 1 -1.1104 12.3686 18.6693 14.774
588 1 -1.1104 12.3161 15.9165 17.8873
590 2 2.2208 10.886 19.8267 19.2104
591 1 -1.1104 12.0259 15.9152 14.9475
594 1 -1.1104 9.47659 18.6527 17.8721
595 2 2.2208 7.70126 17.3965 19.1712
598 1 -1.1104 9.5806 18.786 15.1315
601 2 2.2208 8.17894 20.124 16.4041
602 1 -1.1104 9.28233 15.8949 17.7249
603 1 -1.1104 9.47079 15.8324 14.6497
587 1 -1.1104 12.0575 18.4976 20.5561
383 2 2.2208 2.24904 3.09624 27.6151
592 1 -1.1104 12.006 15.6679 20.8467
375 2 2.2208 13.442 19.987 27.7605
565 1 -1.1104 6.46507 15.975 20.7079
599 1 -1.1104 9.31303 18.5983 20.7744
604 1 -1.1104 9.09715 15.8691 20.4044
374 2 2.2208 13.4545 14.3578 27.6185
412 1 -1.1104 0.738075 -3.91058 20.4796
424 1 -1.1104 1.03423 -1.26589 20.4975
438 1 -1.1104 3.72712 -0.947907 20.7099
663 1 -1.1104 12.1497 15.8834 26.2449
579 2 2.2208 13.5793 3.16129 16.233
636 1 -1.1104 11.9965 15.6901 23.4878
609 2 2.2208 5.09476 0.259937 22.0056
610 1 -1.1104 0.96202 -3.87967 23.3459
614 1 -1.1104 0.8953 -4.15325 26.2029
618 1 -1.1104 0.670197 -1.00143 23.1502
620 2 2.2208 5.01961 -2.61792 24.8786
622 1 -1.1104 0.811463 -1.25214 26.0207
624 1 -1.1104 3.88343 -4.15109 23.6712
626 2 2.2208 2.21002 0.302175 24.7356
627 1 -1.1104 3.51839 -3.7176 26.3844
629 2 2.2208 2.28358 -2.337 21.9122
631 1 -1.1104 3.79468 -1.20848 23.602
632 1 -1.1104 3.72948 -1.04748 26.3797
623 1 -1.1104 6.52861 -1.10642 26.1209
619 1 -1.1104 6.45561 -1.13639 23.4186
667 2 2.2208 7.95902 17.1984 24.8502
612 1 -1.1104 6.29439 -3.84085 23.4874
616 1 -1.1104 6.38946 -4.03469 26.2503
392 2 2.2208 13.4777 3.0817 27.6869
671 2 2.2208 13.4864 -2.64422 22.1151
472 1 -1.1104 9.05616 -1.26082 20.3806
640 2 2.2208 2.25509 -5.22509 24.9012
606 2 2.2208 13.6096 19.9608 22.1442
460 1 -1.1104 11.9184 -0.903235 20.6131
665 1 -1.1104 9.14826 18.6899 23.4607
404 2 2.2208 5.29517 17.2935 27.5884
465 1 -1.1104 9.21314 -3.97731 20.8451
453 1 -1.1104 12.0094 -3.71978 20.8656
645 2 2.2208 10.7485 0.442143 22.1466
646 1 -1.1104 11.97 -3.98635 23.6279
648 1 -1.1104 12.1014 -4.09955 26.4732
650 1 -1.1104 12.096 -1.11884 23.5094
651 2 2.2208 10.8338 -2.59488 24.9245
653 1 -1.1104 12.1109 -1.40026 26.3498
654 1 -1.1104 8.97333 -3.80811 23.5818
656 2 2.2208 7.8755 0.314616 24.9282
657 1 -1.1104 9.1958 -4.09537 26.2038
659 2 2.2208 7.83964 -2.35487 21.9955
661 1 -1.1104 9.3645 -0.903164 23.6333
662 1 -1.1104 9.11686 -1.08427 26.3395
736 1 -1.1104 6.47988 18.5994 23.4146
699 2 2.2208 7.83353 14.5309 21.9389
487 1 -1.1104 0.9171 7.41329 20.5082
418 1 -1.1104 6.6199 1.67681 20.6022
500 1 -1.1104 6.66717 4.65249 20.7194
489 1 -1.1104 6.55268 7.38067 20.7208
414 1 -1.1104 0.740055 1.61565 20.6138
611 1 -1.1104 0.919043 1.64846 23.3094
615 1 -1.1104 0.74353 1.58231 26.1715
621 2 2.2208 4.9583 3.12614 24.8814
625 1 -1.1104 3.54314 1.74679 23.2229
628 1 -1.1104 3.60345 1.72689 26.0317
630 2 2.2208 2.24854 3.17323 22.1005
674 2 2.2208 5.08438 6.06328 22.0305
678 1 -1.1104 0.943783 7.26695 26.3157
680 1 -1.1104 1.10243 4.39272 23.537
685 1 -1.1104 0.951326 4.48521 26.1493
689 1 -1.1104 3.72504 7.46209 23.2912
690 2 2.2208 2.40167 5.94989 24.739
692 1 -1.1104 3.61551 7.30379 26.1965
694 1 -1.1104 3.93613 4.59698 23.4987
696 1 -1.1104 3.69812 4.46365 26.4075
676 1 -1.1104 0.874746 7.2937 23.2547
679 1 -1.1104 6.43378 7.38878 26.1893
682 1 -1.1104 6.49456 4.34823 23.5238
687 1 -1.1104 6.38892 4.48967 26.1895
613 1 -1.1104 6.41807 1.59632 23.4173
617 1 -1.1104 6.51023 1.75846 26.3264
477 2 2.2208 13.6179 -2.40776 16.5694
455 1 -1.1104 12.1806 1.67569 20.6209
580 2 2.2208 13.5657 14.2469 22.0455
356 2 2.2208 10.7253 -2.40216 13.8346
527 1 -1.1104 12.1777 4.35086 20.4746
647 1 -1.1104 11.8865 1.732 23.4993
649 1 -1.1104 11.9736 1.47725 26.3131
652 2 2.2208 10.7556 3.18105 24.9529
655 1 -1.1104 9.20936 1.83822 23.4049
658 1 -1.1104 9.16564 1.75849 26.3299
660 2 2.2208 7.78703 3.09446 21.9956
706 1 -1.1104 9.53562 4.80339 26.0143
708 1 -1.1104 9.38829 4.74322 23.4597
712 2 2.2208 7.81269 5.85635 24.8116
713 2 2.2208 10.7184 6.00177 22.0154
716 1 -1.1104 12.2661 7.36844 26.1653
717 1 -1.1104 11.9646 4.64718 23.2082
720 1 -1.1104 12.3702 4.36999 25.9805
722 1 -1.1104 9.3874 7.4889 23.3062
710 1 -1.1104 9.32711 7.60434 26.1289
715 1 -1.1104 12.2293 7.3977 23.1501
638 2 2.2208 10.7047 14.4913 24.7756
607 2 2.2208 10.7102 17.2663 21.9776
514 1 -1.1104 3.60117 10.0577 20.6481
498 1 -1.1104 0.769983 10.4001 20.7292
677 1 -1.1104 6.57515 7.26171 23.5221
746 1 -1.1104 3.71805 12.6771 26.3028
675 2 2.2208 5.14531 11.3902 22.1971
681 1 -1.1104 0.908949 10.0882 23.5212
684 2 2.2208 5.21757 8.80041 24.8778
686 1 -1.1104 0.875653 10.1066 26.3269
691 2 2.2208 2.23996 11.6213 24.7528
693 2 2.2208 2.27903 8.76579 21.9942
695 1 -1.1104 3.74341 10.3726 23.4961
697 1 -1.1104 3.56517 10.0053 26.0755
731 1 -1.1104 3.67958 13.1156 23.4927
735 1 -1.1104 0.815979 12.962 26.3171
741 1 -1.1104 0.875917 12.9048 23.5333
688 1 -1.1104 6.45561 10.2045 26.4078
730 1 -1.1104 6.54187 13.0336 26.2605
683 1 -1.1104 6.5344 10.0817 23.6428
739 1 -1.1104 6.32831 12.9233 23.3745
479 2 2.2208 13.658 17.3617 19.1894
578 2 2.2208 13.4784 0.349744 19.245
673 1 -1.1104 9.20677 12.9952 26.0963
664 1 -1.1104 9.30982 13.1931 23.3353
634 1 -1.1104 12.1049 13.0245 26.2037
705 1 -1.1104 9.25689 10.1583 26.1465
707 1 -1.1104 9.30905 10.2288 23.4911
709 2 2.2208 7.93766 8.72968 22.0484
711 2 2.2208 7.87053 11.6914 24.7287
714 2 2.2208 10.6387 11.633 22.0614
718 1 -1.1104 12.4249 9.97744 23.405
719 2 2.2208 10.718 8.81995 24.7133
721 1 -1.1104 12.1515 10.2386 25.9839
608 1 -1.1104 12.0199 12.9315 23.4436
542 2 2.2208 13.5031 6.01317 19.0824
381 2 2.2208 5.09309 0.203086 27.7323
700 2 2.2208 7.97264 19.9191 21.9965
732 1 -1.1104 6.78177 15.717 26.2413
670 1 -1.1104 6.54813 18.7574 26.2796
553 1 -1.1104 0.982015 18.717 20.4606
698 1 -1.1104 9.27304 18.6556 26.3629
747 1 -1.1104 6.6196 15.8258 23.5632
738 2 2.2208 5.14572 14.389 24.9347
727 2 2.2208 2.35136 14.2724 22.0354
748 1 -1.1104 0.858149 15.8507 23.3002
745 1 -1.1104 3.79911 15.6335 26.279
744 2 2.2208 2.23748 17.3275 24.7632
743 1 -1.1104 3.82334 18.5983 26.1868
750 2 2.2208 2.2772 20.1097 21.949
749 1 -1.1104 3.62646 16.0409 23.4514
729 1 -1.1104 3.79691 18.7529 23.2187
733 1 -1.1104 0.814471 18.7891 26.2511
734 1 -1.1104 0.936074 15.9271 26.0836
737 2 2.2208 5.2074 20.2059 24.7365
740 1 -1.1104 0.919847 18.7591 23.4332
742 2 2.2208 5.06881 17.2555 22.0744
403 2 2.2208 2.1636 14.4494 27.6507
605 2 2.2208 13.4798 17.1107 24.7278
393 2 2.2208 4.94116 6.05466 27.6495
399 2 2.2208 7.86661 8.82003 27.5342
389 2 2.2208 7.77321 3.11451 27.5428
359 2 2.2208 2.28513 6.14628 13.8116
377 2 2.2208 7.92279 14.4533 27.602
352 2 2.2208 4.99358 3.30024 13.7189
400 2 2.2208 10.6275 11.6011 27.4214
382 2 2.2208 2.16332 -2.38725 27.6482
347 2 2.2208 2.18722 -5.06015 13.6858
751 2 2.2208 5.20732 22.7576 5.19308
753 1 -1.1104 0.807283 24.3101 0.841045
754 1 -1.1104 1.01902 24.1364 3.83985
755 1 -1.1104 1.04387 21.3882 1.1654
757 2 2.2208 5.09366 25.4872 2.36313
758 1 -1.1104 0.968669 21.3739 3.8468
760 1 -1.1104 3.72536 24.2242 0.89043
761 2 2.2208 2.38666 22.8726 2.33224
763 1 -1.1104 3.84145 24.0824 3.60125
764 2 2.2208 2.2368 25.5639 5.03544
765 1 -1.1104 3.74408 21.4444 0.685843
767 1 -1.1104 3.83595 21.3277 3.48015
766 1 -1.1104 3.66738 26.7458 0.936688
759 1 -1.1104 1.00702 26.9334 4.03427
776 1 -1.1104 6.51899 21.3377 3.7387
898 1 -1.1104 3.68978 24.1126 6.28077
774 1 -1.1104 6.46081 21.5644 0.988548
772 1 -1.1104 6.63333 24.2148 0.866304
892 1 -1.1104 0.718971 24.1403 6.35623
1091 2 2.2208 5.09707 36.9249 13.4222
768 1 -1.1104 3.68403 26.7383 3.68222
756 1 -1.1104 0.713552 27.0616 0.80071
777 1 -1.1104 6.38756 27.0335 3.51212
900 1 -1.1104 3.713 26.9754 6.6184
775 1 -1.1104 6.42207 26.7914 0.760374
894 1 -1.1104 0.783733 21.3395 6.61753
899 1 -1.1104 3.79364 21.4764 6.27764
893 1 -1.1104 6.52128 24.1338 6.56484
895 1 -1.1104 0.900259 27.0679 6.65319
897 1 -1.1104 6.31121 27.2165 6.41555
773 1 -1.1104 6.53158 24.2493 3.76239
778 2 2.2208 10.9656 22.9326 5.01514
780 1 -1.1104 12.2485 24.2993 0.937142
781 1 -1.1104 12.2938 24.2702 3.7469
782 1 -1.1104 12.348 21.4485 0.840898
784 2 2.2208 10.8137 25.7086 2.39574
785 1 -1.1104 12.354 21.4606 3.71293
787 1 -1.1104 9.40155 23.996 1.19865
788 2 2.2208 8.0452 22.9709 2.42941
790 1 -1.1104 9.40807 24.476 3.84005
791 2 2.2208 7.96045 25.6877 5.13108
792 1 -1.1104 9.59523 21.301 0.91487
794 1 -1.1104 9.34236 21.7304 3.82782
786 1 -1.1104 12.1898 27.0202 3.73169
793 1 -1.1104 9.20023 26.8781 1.13903
896 1 -1.1104 6.41748 21.5302 6.68873
925 1 -1.1104 12.4021 24.2502 6.72363
926 1 -1.1104 12.1709 21.5564 6.54716
929 1 -1.1104 9.39202 21.605 6.50733
930 1 -1.1104 9.24395 26.8271 6.66461
1130 2 2.2208 10.8072 33.9898 -0.277152
1123 2 2.2208 2.18598 37.0609 -0.412138
752 2 2.2208 4.79536 28.3946 5.08066
762 2 2.2208 2.40599 28.4097 2.23051
800 1 -1.1104 0.910951 29.8644 0.749104
803 1 -1.1104 0.796844 29.5156 3.71879
806 1 -1.1104 0.848078 32.7029 0.826249
807 2 2.2208 5.04661 31.2629 2.21316
809 1 -1.1104 0.772758 32.5654 3.79351
811 1 -1.1104 3.60014 29.7287 0.89805
814 1 -1.1104 3.75364 29.6243 3.68559
816 2 2.2208 2.19182 31.1997 5.11257
818 1 -1.1104 3.65678 32.7479 0.870806
819 1 -1.1104 3.65261 32.4238 3.53232
953 1 -1.1104 0.977525 32.8082 6.61162
955 1 -1.1104 3.51886 29.7269 6.45228
823 1 -1.1104 6.38921 29.7132 0.965846
949 1 -1.1104 0.702525 29.9583 6.737
810 1 -1.1104 6.2634 32.772 3.51418
951 1 -1.1104 6.45912 29.9708 6.54821
957 1 -1.1104 3.59815 32.6837 6.3557
954 1 -1.1104 6.63603 32.7286 6.31899
825 1 -1.1104 6.39856 32.7484 0.849555
824 1 -1.1104 6.4407 29.6714 3.67388
783 1 -1.1104 12.1043 27.2129 1.04666
795 1 -1.1104 9.34518 27.1937 3.88271
779 2 2.2208 10.7571 28.2888 5.18303
789 2 2.2208 7.9342 28.3974 2.27139
827 1 -1.1104 12.2978 30.0121 0.849673
829 1 -1.1104 12.2576 29.6844 3.76138
831 1 -1.1104 12.0733 32.5083 1.08976
832 2 2.2208 10.7272 31.35 2.33819
834 1 -1.1104 12.2766 32.6686 3.72636
835 1 -1.1104 9.30759 29.9306 0.731537
838 1 -1.1104 9.31816 29.9636 3.44158
840 2 2.2208 7.78513 31.2584 5.04209
842 1 -1.1104 9.23909 32.8734 0.952492
843 1 -1.1104 9.08726 32.6294 3.67124
986 1 -1.1104 9.10964 29.6662 6.62172
988 1 -1.1104 9.23521 32.8034 6.54238
1080 2 2.2208 -0.375023 34.1573 10.7919
1495 1 -1.1104 3.74115 46.7404 3.59956
799 2 2.2208 5.02444 34.0025 5.04211
801 1 -1.1104 0.773251 35.3871 1.10716
804 1 -1.1104 0.867415 35.3907 3.96877
808 2 2.2208 5.20063 37.0264 2.10653
812 1 -1.1104 3.76143 35.5362 0.971845
813 2 2.2208 2.23791 34.053 2.46917
815 1 -1.1104 3.84835 35.4253 3.81712
817 2 2.2208 2.21948 37.0057 5.04812
845 2 2.2208 4.98029 39.6599 5.06862
851 1 -1.1104 1.02263 38.3388 0.879985
856 1 -1.1104 0.924606 38.6596 3.60477
861 2 2.2208 2.32222 39.918 2.085
865 1 -1.1104 3.71098 38.3314 0.780773
867 1 -1.1104 3.49213 38.3885 3.67218
802 1 -1.1104 6.44627 35.4828 0.737699
805 1 -1.1104 6.51439 35.7192 3.53252
858 1 -1.1104 6.33417 38.429 3.3479
950 1 -1.1104 0.737931 35.6158 6.4339
1023 1 -1.1104 0.996286 38.4395 6.55696