ITEM: TIMESTEP
100000
ITEM: NUMBER OF ATOMS
18000
ITEM: BOX BOUNDS xy xz yz pp pp pp
-1.0211998577438558e-01 2.7996119985774499e+01 0.0000000000000000e+00
-1.0892158369696638e+00 3.3581721583696719e+02 0.0000000000000000e+00
-1.1250659655543704e-01 2.8006506596556182e+01 0.0000000000000000e+00
ITEM: ATOMS id type x y z
1 1 1.28522 0.361881 1.27942
2 1 4.00537 0.320995 1.28656
3 1 6.86833 0.332473 4.11104
4 1 1.38821 0.305622 4.0756
5 1 1.16329 3.08192 1.3454
6 1 4.0527 3.19474 1.29997
7 1 4.03738 2.85031 4.11469
8 1 1.27581 3.03987 4.12346
9 1 6.76042 0.106438 1.28056
10 1 9.61806 0.187056 1.20308
11 1 9.69203 0.114807 4.1817
12 1 7.06207 3.04962 3.9795
13 1 6.87157 3.00803 1.25487
14 1 9.7159 3.02109 1.37563
15 1 9.80268 2.89238 4.14191
16 1 6.88033 5.70766 4.01911
17 1 12.4855 0.19139 1.3721
18 1 12.5098 0.172417 4.14652
19 1 12.5035 3.05839 1.22789
20 1 12.516 3.0866 4.06954
21 1 1.35864 5.98487 1.35295
22 1 4.0462 6.03351 1.46869
23 1 4.00239 5.59313 4.20788
24 1 1.24107 6.04506 4.23335
25 1 1.4235 8.74419 1.39768
26 1 4.33073 8.79978 1.48224
27 1 4.17729 8.53016 4.2551
28 1 1.33715 8.96186 4.10495
29 1 6.91947 5.81651 1.31512
30 1 9.75788 5.87211 1.31162
31 1 9.78834 5.76451 3.93711
32 1 6.97144 8.55867 3.99709
33 1 6.9467 8.52427 1.38545
34 1 9.73416 8.66484 1.0945
35 1 9.69442 8.65231 3.89733
36 1 7.00602 11.7721 6.79715
37 1 12.5581 5.9199 1.29063
38 1 12.5885 5.84 4.08857
39 1 12.452 8.63265 1.25299
40 1 12.3553 8.5798 4.15872
41 1 1.49776 11.4341 1.30573
42 1 4.18354 11.5198 1.32574
43 1 4.23188 11.4392 4.3033
44 1 1.47994 11.7281 4.06968
45 1 1.28942 14.2201 1.22989
46 1 4.08567 14.1872 1.47675
47 1 4.23717 14.1814 4.15212
48 1 1.36252 14.451 4.1662
49 1 6.85317 11.4925 1.15851
50 1 9.79567 11.5096 1.06328
51 1 9.68696 11.4742 3.95701
52 1 6.96017 11.4006 4.03582
53 1 7.07167 14.2875 1.3938
54 1 9.8787 14.3882 1.43012
55 1 9.86196 14.3183 4.11892
56 1 6.97567 14.2684 4.0288
57 1 12.5399 11.4441 1.32641
58 1 12.5193 11.5175 4.22056
59 1 12.6046 14.2886 1.29364
60 1 12.5606 14.2209 4.04944
61 1 1.22007 16.9795 1.274
62 1 4.00297 17.1452 1.31806
63 1 4.11936 17.1246 3.948
64 1 1.47827 17.143 4.06154
65 1 1.17198 19.8037 1.30355
66 1 4.05151 19.8901 1.13642
67 1 4.29453 19.9909 3.92992
68 1 1.33231 20.008 4.06557
69 1 6.90563 17.0483 1.3617
70 1 9.71809 17.1357 1.31865
71 1 9.79338 17.0724 4.14996
72 1 6.93773 17.2172 4.08582
73 1 7.04086 19.7982 1.22606
74 1 9.77241 19.9589 1.31791
75 1 9.83725 19.7689 4.13386
76 1 7.01218 19.7545 4.01389
77 1 12.4126 17.2133 1.04023
78 1 12.6726 17.1263 3.93764
79 1 12.6769 22.6665 1.33085
80 1 12.5226 19.9285 1.32755
81 1 1.36819 22.6857 1.30069
82 1 4.21192 22.6481 1.31169
83 1 4.2429 22.7812 4.18309
84 1 1.51424 22.8647 4.02401
85 1 7.09404 22.9163 1.42749
86 1 9.77105 22.6156 1.21511
87 1 9.79364 22.458 4.30885
88 1 6.93068 22.6343 4.18959
12054 2 -0.102032 1.58882 8.22387
90 1 12.6694 22.7026 4.12927
91 1 1.24752 0.164604 6.87708
92 1 3.97869 0.375115 6.99939
93 1 4.23371 2.92078 9.69821
94 1 1.37811 0.268743 9.68399
95 1 1.40436 3.04263 6.96086
96 1 4.19561 3.03852 6.90372
97 1 1.2875 6.01798 9.63746
98 1 1.41543 3.03153 9.65844
99 1 6.89252 0.273541 6.99793
100 1 9.92193 0.167197 7.06424
101 1 9.88712 2.91284 9.91077
102 1 6.96851 2.87904 10.0447
103 1 7.01909 3.17251 6.93599
104 1 10.0203 2.90768 6.95827
105 1 9.68988 5.55645 9.46663
106 1 4.07357 5.72838 9.74245
107 1 12.5811 0.151129 6.9088
108 1 12.6034 2.98305 9.69887
109 1 12.7873 3.03995 7.06483
110 1 12.7997 5.68247 9.73008
111 1 1.08581 5.98613 6.80128
112 1 4.10963 5.7647 6.91251
113 1 9.04369 5.43701 6.93285
114 1 1.22845 8.7476 9.70617
115 1 1.29344 8.94013 6.80596
116 1 4.0211 8.49359 6.88053
117 1 6.33584 9.21476 8.101
118 1 4.11915 8.57168 9.91187
119 1 10.2909 7.42837 6.46576
120 1 10.0842 9.19351 8.2576
121 1 10.3103 7.83446 10.3197
122 1 12.8062 5.78112 7.04702
123 1 6.70042 6.66427 6.7599
124 1 8.22298 9.14268 6.2645
125 1 9.74283 11.5236 9.79889
126 2 8.44732 7.44123 8.2018
12091 2 -0.00490742 21.3713 5.44637
128 1 12.8983 8.6886 9.89306
129 1 12.7753 8.69849 7.04533
130 1 12.67 11.4813 9.81565
131 1 1.24842 11.4501 6.85047
132 1 4.24095 11.4234 6.96623
133 1 4.11599 11.3997 9.76176
134 1 1.18358 11.6813 9.71081
135 1 1.16551 14.2086 6.87515
136 1 4.04999 14.2752 6.86399
137 1 3.96375 14.1311 9.66607
138 1 1.00904 14.4226 9.917
139 1 6.78451 14.4033 6.92666
140 1 12.6006 11.4927 7.0558
141 1 9.91559 11.5664 6.73771
142 1 6.89989 11.6504 9.87685
143 1 9.81558 16.9171 6.84117
144 1 9.73298 14.2891 7.05651
145 1 9.74542 14.3287 9.78158
146 1 6.97398 17.0894 6.83733
12024 2 0.0228816 12.9129 2.78412
5725 1 9.79977 0.155536 9.76437
12146 2 2.70479 21.3564 14.0154
150 1 12.5394 14.2707 9.68402
151 1 1.37024 17.0639 6.92124
152 1 4.21772 17.0288 6.84169
153 1 4.11732 17.0565 9.65993
154 1 1.18671 17.2046 9.71458
155 1 1.31095 19.8989 6.86483
156 1 4.10038 19.9519 6.74525
157 1 4.1802 19.854 9.42651
158 1 1.31126 19.9477 9.67807
159 1 9.6099 19.9064 7.09012
160 1 12.6446 17.1557 6.86742
161 1 9.72159 17.1049 9.72052
162 1 7.00998 17.1111 9.56533
163 1 6.84542 19.9936 6.88311
164 1 12.4325 19.8885 6.90244
165 1 9.67158 20.0791 9.73288
166 1 6.88591 19.9812 9.67475
15082 2 14.0152 15.5679 8.30122
168 1 12.4094 17.0034 9.69508
169 1 12.6462 19.8873 4.12673
170 1 12.379 19.9136 9.84044
171 1 1.29435 22.6937 6.69151
172 1 4.07059 22.9214 6.90359
173 1 4.06603 22.7413 9.70909
174 1 1.32299 22.7016 9.60091
175 1 7.02546 22.9004 7.08931
176 1 9.65937 22.7652 7.01526
177 1 9.75644 22.7662 9.78653
178 1 6.89649 22.6967 9.74108
179 1 12.5842 22.7311 6.98312
180 1 12.4422 22.7549 9.76723
181 1 1.22095 0.133719 12.5901
182 1 4.22561 0.209571 12.5408
183 1 1.30904 2.98037 12.5619
184 1 3.99556 2.96477 12.5131
185 1 7.0264 0.227256 12.4129
186 1 9.71974 0.026616 12.6108
187 1 7.07989 5.99067 9.48057
188 1 9.69212 2.83314 12.6217
189 1 12.5941 0.1549 12.5581
190 1 12.4581 2.74841 12.5658
191 1 1.07187 6.02081 12.542
192 1 4.05818 5.76897 12.5319
193 1 1.15425 8.7084 12.6614
194 1 4.04286 8.69672 12.5973
195 1 7.6911 8.76544 9.96018
196 1 9.80849 5.73387 12.7099
197 1 6.97486 11.3685 12.562
198 1 9.67029 8.68214 12.8837
199 1 12.5718 5.65627 12.5077
200 1 12.5915 8.44178 12.5492
201 1 1.36757 11.4872 12.4053
202 1 4.15697 11.6489 12.4622
203 1 1.36655 14.2683 12.5691
204 1 4.20149 14.4983 12.4656
205 1 6.87289 14.2648 9.7926
206 1 9.94 11.427 12.5075
207 1 7.05187 14.3972 12.5203
208 1 9.84327 14.402 12.5178
209 1 12.6163 11.4842 12.6592
210 1 12.7938 14.2665 12.5426
211 1 1.18361 17.1291 12.4879
212 1 3.93841 17.2595 12.4286
213 1 1.4254 20.0053 12.581
214 1 4.14682 20.1181 12.4136
215 1 6.94586 17.1155 12.3464
216 1 9.69824 17.1847 12.6026
217 1 6.83628 20.0062 12.6223
218 1 9.74297 20.028 12.6236
219 1 12.4164 17.1175 12.6703
220 1 12.4447 20.0001 12.5199
221 1 1.18012 22.8058 12.4094
222 1 4.05634 22.7118 12.5898
223 1 6.97972 22.776 12.4069
224 1 9.65582 22.786 12.6664
225 1 12.4754 22.7807 12.6054
12125 2 11.1083 21.3342 11.206
12110 2 11.2364 4.38709 11.0141
147 1 12.7454 14.2648 6.84689
12124 2 8.48555 24.2096 11.205
15022 2 13.902 9.97353 2.50681
12109 2 8.46277 7.34047 11.5795
12034 2 -0.0877661 18.3604 2.62073
12008 2 5.53745 1.60763 2.68216
12144 2 5.44801 18.6296 13.9924
12010 2 11.1149 1.52047 2.72079
12123 2 5.55955 21.3652 11.0983
12108 2 5.48879 4.38553 11.1958
12013 2 2.57499 4.45005 2.76579
12122 2 2.63001 24.1106 11.1403
12107 2 2.49277 7.34913 11.188
12112 2 2.65169 12.8876 11.1528
12017 2 8.41928 4.45209 2.62259
12018 2 5.51364 7.24582 2.82372
12104 2 8.49385 1.49774 11.2051
12020 2 11.1506 7.24101 2.58162
12081 2 -0.130326 15.7246 5.45051
12084 2 -0.0508422 18.5608 8.38314
12023 2 2.91121 10.137 2.84835
12120 2 11.0553 15.8018 11.121
12102 2 2.75677 1.69114 11.1575
12113 2 5.6287 10.0211 11.131
12027 2 8.39277 10.082 2.64898
12028 2 5.60811 12.8651 2.70658
12100 2 11.2387 24.0822 8.31292
12030 2 11.231 12.7896 2.68014
12099 2 11.1722 21.2595 5.63848
12098 2 5.56981 24.0834 8.38208
12033 2 2.75944 15.6793 2.58554
15081 2 13.9495 18.4505 5.40454
12097 2 8.19764 21.3376 8.39471
12096 2 8.3359 24.0041 5.55816
12037 2 8.33561 15.744 2.80651
12038 2 5.57971 18.5118 2.56565
12095 2 5.58053 21.315 5.57825
12040 2 11.2448 18.4669 2.64834
15116 2 13.7563 18.3247 11.267
12093 2 2.65442 21.2558 8.24543
12043 2 2.72971 21.2283 2.64989
15121 2 13.9448 24.0404 11.083
12092 2 2.66928 24.2175 5.4986
12088 2 5.56066 18.4086 8.17596
12047 2 8.34797 21.222 2.73886
12048 2 5.4955 24.1353 2.75584
12090 2 11.1554 18.5561 8.29307
12050 2 11.2949 23.9035 2.73998
12119 2 8.22145 18.5209 11.1011
12052 2 2.62148 1.61183 5.49935
5726 1 6.96807 0.109246 9.77902
12118 2 5.57301 15.784 11.0314
241 1 7.04188 5.73662 12.552
12056 2 8.42362 1.64264 5.34772
5717 1 4.18164 0.0174953 9.71748
12058 2 5.54418 1.49072 8.3058
12121 2 -0.139604 21.3266 11.114
12060 2 11.3379 1.53085 8.30791
12117 2 2.71827 18.6007 11.0165
12062 2 2.64607 7.19567 5.5214
12063 2 2.72173 4.25932 8.29275
12089 2 11.251 15.6263 5.46715
12065 2 5.58433 4.44732 5.46244
12066 2 8.34336 7.18271 5.1277
12067 2 8.40132 3.95198 8.51643
12068 2 5.10485 7.19741 8.33667
12069 2 11.1655 4.49892 5.4742
12070 2 11.5904 7.33812 8.52715
12115 2 11.2748 9.87145 11.2
12072 2 2.80577 12.83 5.58176
12073 2 2.76576 10.0884 8.24364
12114 2 8.36543 12.9659 11.256
12075 2 5.65822 9.96885 5.72727
12076 2 8.41597 12.8014 5.43172
12077 2 8.2956 10.5531 8.2438
12078 2 5.5597 12.9061 8.36122
12079 2 11.1244 9.73358 5.75314
12080 2 11.259 12.9278 8.41571
12087 2 8.29687 15.6354 8.2897
12082 2 2.82662 18.5342 5.37852
12083 2 2.59745 15.593 8.28915
12142 2 -0.0197188 18.4913 13.9891
12085 2 5.61252 15.7662 5.37109
12086 2 8.41664 18.4234 5.52097
5730 1 12.5542 0.157807 9.89631
233 1 6.91464 2.99021 12.7107
243 1 6.77186 8.49033 12.5419
5627 1 4.14615 0.231007 3.97552
15092 2 13.9068 21.293 8.56576
15071 2 13.9506 12.8318 5.38981
15012 2 13.8391 4.49166 2.59561
15101 2 13.9292 1.56689 11.1583
12035 2 5.71432 15.6246 -0.172113
15111 2 13.8691 12.8186 11.1594
12061 2 -0.13369 4.48651 5.51025
12049 2 11.0593 21.3035 -0.0768224
12042 2 2.62475 23.96 -0.00695544
12009 2 11.1773 -1.04459 -0.0833789
12126 2 2.68812 -1.14228 13.9439
12025 2 5.63176 9.99218 0.0308503
12145 2 11.018 18.4821 13.9122
12141 2 2.59067 15.6811 13.8561
12139 2 5.51937 12.9534 13.7949
12039 2 11.1229 15.646 -0.00469635
12136 2 2.81028 10.0907 13.8862
12026 2 8.41583 12.9175 -0.0504754
12015 2 5.42702 4.36102 -0.0627406
12149 2 5.48998 24.1699 13.8542
12022 2 2.8513 12.8948 -0.102051
12041 2 -0.15944 21.1984 -0.0800535
12012 2 2.7612 7.32565 0.0461801
12021 2 -0.0254748 10.1071 -0.0517702
226 1 4.14468 0.249323 15.3259
227 1 1.32995 0.344583 15.2852
228 1 4.09145 3.17762 15.3233
229 1 1.42492 3.13724 15.3234
230 1 9.67475 0.212585 15.3505
231 1 6.99361 0.226622 15.2877
232 1 9.89799 2.93357 15.3769
12201 2 -0.114559 -1.02817 22.4503
234 1 12.6126 0.203768 15.2973
235 1 12.5254 2.94808 15.5039
236 1 4.09903 5.88147 15.4323
237 1 1.2008 5.8825 15.3944
238 1 4.06081 8.79021 15.4094
239 1 1.21017 8.61193 15.3002
240 1 9.74669 5.80063 15.5467
12203 2 2.6522 -1.19541 25.1824
242 1 9.88619 8.43888 15.4798
12153 2 2.75031 -1.03986 19.4838
244 1 12.4972 5.86082 15.4828
245 1 12.5494 8.64349 15.4243
246 1 4.05307 11.4919 15.2824
247 1 1.37195 11.3414 15.213
248 1 3.94835 14.2381 15.2837
249 1 1.14702 14.2451 15.2144
250 1 9.92191 11.4195 15.2705
251 1 6.85994 11.6518 15.235
252 1 9.66103 14.1101 15.3462
253 1 6.83885 14.2948 15.2493
254 1 12.64 11.5825 15.3255
255 1 12.6213 14.4008 15.45
256 1 4.05156 17.2392 15.1325
257 1 1.31981 17.0753 15.321
258 1 4.14264 20.0251 15.3377
259 1 1.24974 19.8042 15.3366
260 1 9.74509 17.0935 15.4392
261 1 6.8829 17.1359 15.2894
262 1 9.67163 19.7468 15.4164
263 1 6.86579 19.9239 15.4126
264 1 12.4785 17.0486 15.3535
265 1 12.4266 19.7651 15.4624
266 1 3.95382 22.7929 15.2898
267 1 1.21137 22.606 15.3564
268 1 9.68266 22.5198 15.4577
269 1 6.74253 22.6296 15.2479
270 1 12.4495 22.4811 15.3831
271 1 1.28394 0.309258 18.1425
272 1 4.11504 0.390241 18.0985
273 1 4.08917 0.287908 20.8794
274 1 1.26702 0.301358 20.931
275 1 1.35189 3.10746 18.1625
276 1 4.30606 3.15171 18.1921
277 1 4.15285 3.05381 20.9938
278 1 1.42549 3.21391 20.8983
279 1 7.027 2.95312 15.4333
280 1 9.74286 0.167881 18.2438
281 1 9.73646 0.300132 21.1463
282 1 7.07597 3.00447 18.2769
283 1 7.04169 5.8188 15.383
284 1 9.89358 2.82878 18.1157
285 1 9.78205 3.04211 20.931
286 1 7.02275 5.81175 18.2786
287 1 12.5629 0.182886 18.2645
288 1 12.7068 0.36358 20.9406
289 1 12.8613 3.10554 18.1119
290 1 12.4885 3.09608 20.9011
291 1 1.3367 5.86689 18.1324
292 1 4.15776 5.88192 18.1566
293 1 4.15628 5.90172 21.0594
294 1 1.37796 5.84854 20.9144
295 1 1.30259 8.50576 18.1754
296 1 3.97595 8.67246 18.2768
297 1 4.08689 8.74318 20.9665
298 1 1.23897 8.69924 20.8099
299 1 6.79473 8.61651 15.306
300 1 9.89552 5.70763 18.2786
301 1 9.68277 5.83492 20.9201
302 1 6.83059 8.59245 18.269
303 1 8.40774 10.0412 16.7849
304 1 9.91796 8.44073 18.2886
305 1 9.75458 8.6445 21.0496
306 1 6.90073 8.63323 21.0344
307 1 12.7669 5.71107 18.2206
308 1 12.5974 5.84693 21.078
309 1 12.7402 8.59777 18.2804
310 1 12.7418 8.5399 21.0129
311 1 1.23903 11.5605 18.0242
312 1 4.15434 11.4906 18.1266
313 1 4.04017 11.5913 20.9217
314 1 1.29597 11.5253 20.9516
315 1 1.42351 14.3095 18.1047
316 1 4.02975 14.3341 18.2178
317 1 4.06139 14.398 20.9952
318 1 1.37234 14.2026 20.8964
319 1 6.86409 11.5697 18.1687
320 1 9.66975 11.5183 18.4785
321 1 9.8035 11.3363 21.101
322 1 6.75704 11.5822 21.0279
323 1 6.93744 14.422 18.181
324 1 9.80716 14.2841 18.3317
325 1 9.60115 14.2654 21.0981
326 1 6.79788 14.2637 21.1137
327 1 12.5449 11.4102 18.0737
328 1 12.5355 11.3948 20.9943
329 1 12.5489 14.3369 18.2099
330 1 12.5545 14.1122 20.9009
331 1 1.37504 17.0507 18.193
332 1 4.2178 17.1634 18.1293
333 1 4.17812 17.1337 20.7819
334 1 1.39956 17.0954 21.0683
335 1 1.26826 20.0358 18.1565
336 1 3.93685 19.8721 18.1402
337 1 4.25792 19.9312 20.8017
338 1 1.27452 19.9379 20.9779
339 1 6.97745 17.1213 18.1082
340 1 9.73042 17.1467 18.2882
341 1 9.67064 17.1223 21.0218
342 1 6.93114 17.1474 20.9749
343 1 6.8081 19.9649 18.1311
344 1 9.68463 19.8635 18.2189
345 1 9.76811 19.9412 21.0347
346 1 7.03247 19.8661 20.8606
347 1 12.495 17.2192 18.1333
348 1 12.6446 16.9379 21.013
349 1 12.5464 20.0124 18.2653
350 1 12.8201 19.8416 21.003
351 1 1.32981 22.7175 18.2386
352 1 4.0587 22.7727 18.1089
353 1 3.99034 22.7456 20.8922
354 1 1.17316 22.7743 20.9611
355 1 6.94703 22.635 18.195
356 1 9.92321 22.5721 18.1409
357 1 9.7109 22.5862 20.9799
358 1 6.88443 22.7365 20.9838
359 1 12.6529 22.9277 18.2761
360 1 12.4712 22.5637 20.9774
361 1 1.25813 0.291556 23.7185
362 1 4.17717 0.0700216 23.9708
363 1 4.08677 0.341977 26.7218
364 1 1.28605 0.239799 26.5704
365 1 1.11146 3.24894 23.7745
366 1 4.11565 3.04887 23.6662
367 1 4.11076 3.02461 26.5419
368 1 1.36955 3.0229 26.6102
369 1 6.99895 3.01961 21.082
370 1 9.72479 0.384448 23.9162
371 1 9.94536 0.183853 26.6362
372 1 6.97574 2.93754 23.8421
373 1 7.11349 5.90855 21.1389
374 1 9.90879 3.00841 23.7473
375 1 9.74399 3.00885 26.5974
376 1 6.88749 2.96648 26.5364
377 1 12.6652 0.261687 23.7687
378 1 12.6242 0.171967 26.5485
379 1 12.6508 3.16031 23.7289
380 1 12.6743 3.06542 26.4754
381 1 1.39433 6.04105 23.7263
382 1 4.15201 5.91571 23.8473
383 1 4.2086 5.85001 26.6409
384 1 1.4582 5.80918 26.6361
385 1 1.40906 8.89256 23.7206
386 1 4.15815 8.67086 23.9047
387 1 4.24828 8.7704 26.7146
388 1 1.32346 8.66467 26.5948
389 1 6.9009 5.57644 23.7888
390 1 9.76583 5.85954 23.7762
391 1 9.83541 5.70056 26.6376
392 1 7.02275 5.78312 26.5457
393 1 6.94804 8.58581 23.7814
394 1 9.81782 8.62792 23.7505
395 1 9.81384 8.5648 26.5367
396 1 6.96858 8.70662 26.6461
397 1 12.6512 5.87347 23.8191
398 1 12.6591 5.977 26.6636
399 1 12.6871 8.65178 23.8516
400 1 12.502 8.6477 26.709
401 1 1.47931 11.5578 23.7126
402 1 4.22942 11.4302 23.7622
403 1 4.08152 11.4281 26.5843
404 1 1.41486 11.4157 26.5704
405 1 1.44636 14.3319 23.6546
406 1 4.232 14.3427 23.8172
407 1 4.15421 14.1914 26.5432
408 1 1.25024 14.2152 26.5197
409 1 6.94367 11.3424 23.8315
410 1 9.81981 11.37 23.7814
411 1 9.8083 11.4035 26.5564
412 1 6.90992 11.5859 26.5868
413 1 7.00168 14.1693 23.7832
414 1 9.88986 14.1965 23.7801
415 1 9.87258 14.1958 26.6928
416 1 7.01743 14.2964 26.6094
417 1 12.7349 11.5642 23.6671
418 1 12.6312 11.4534 26.5797
419 1 12.5668 14.48 23.7189
420 1 12.6194 14.1887 26.5901
421 1 1.36638 17.0141 23.8211
422 1 4.19133 17.1705 23.7502
423 1 4.30176 16.9485 26.6066
424 1 1.44642 16.9914 26.6512
425 1 1.2668 19.9116 23.7553
426 1 4.08734 19.8548 23.617
427 1 4.05395 19.7563 26.382
428 1 1.27018 19.8022 26.5463
429 1 6.94948 17.0421 23.6761
430 1 9.68779 16.9584 23.7553
431 1 9.61167 17.0847 26.441
432 1 6.95466 17.1967 26.4576
433 1 6.92015 19.8948 23.6379
434 1 9.83586 19.9378 23.8428
435 1 9.72417 19.9003 26.582
436 1 6.9444 19.8765 26.4469
437 1 12.5209 17.2166 23.7408
438 1 12.3422 17.0696 26.5152
439 1 12.4445 20.0104 23.7758
440 1 12.5625 19.9153 26.6542
441 1 1.31566 22.6273 23.8066
442 1 4.13265 22.7296 23.8056
443 1 4.18492 22.5855 26.622
444 1 1.33078 22.6238 26.6206
445 1 6.8773 22.7907 23.7955
446 1 9.7183 22.5067 23.5858
447 1 9.70205 22.7947 26.5245
448 1 6.92155 22.719 26.7377
449 1 12.5649 22.7231 23.777
450 1 12.3419 22.6811 26.7046
12157 2 8.38329 -1.0388 19.6899
12250 2 11.0534 24.167 25.1501
12031 2 -0.0501873 15.5939 28.0131
12205 2 5.46343 -1.11511 22.3075
12209 2 11.2846 -1.13615 22.414
12019 2 11.2023 4.3521 27.8994
12249 2 11.1393 21.2695 22.338
12155 2 5.51159 -1.06821 16.8447
12011 2 -0.105535 4.42883 27.9712
12223 2 2.75978 10.0605 25.2077
12222 2 2.81175 12.9054 22.3706
12248 2 5.53046 24.1323 25.1822
12236 2 8.29435 18.4903 22.3321
5993 1 6.88539 0.275102 23.787
12220 2 11.2623 7.18023 25.2987
12171 2 -0.00634437 10.0459 16.7313
12214 2 -0.138849 7.21351 25.2742
12138 2 8.22655 10.0851 14.1759
12164 2 -0.072342 7.31964 19.5463
15241 2 13.9312 24.1404 22.4263
12129 2 5.52026 1.64564 13.9654
12184 2 -0.0675163 18.5759 19.5201
12211 2 0.0139086 4.63681 22.3482
15151 2 13.9676 1.62895 16.7572
12133 2 8.49678 4.29442 14.0853
12247 2 8.40775 21.2678 25.1942
12152 2 2.748 1.6775 16.6872
12219 2 11.1777 4.45233 22.4144
12246 2 8.34217 24.0786 22.3794
5996 1 6.91189 0.357318 26.6507
12156 2 8.44244 1.51237 16.8014
12225 2 5.50719 10.1081 22.401
12158 2 5.58244 1.66404 19.6745
12232 2 2.73781 18.5603 22.3649
12160 2 11.0958 1.6425 19.6666
12245 2 5.55701 21.3444 22.354
12162 2 2.67377 7.32751 16.7172
12163 2 2.79951 4.44493 19.5112
5906 1 7.04506 0.2313 21.0922
12165 2 5.57196 4.51752 16.7926
12166 2 8.37881 7.17002 16.809
12167 2 8.35021 4.44242 19.5885
12168 2 5.48947 7.25821 19.6614
12169 2 11.2819 4.35931 16.8414
12170 2 11.3624 7.10261 19.6203
12243 2 2.67479 21.2989 25.1509
12172 2 2.67475 12.7585 16.6987
12173 2 2.64207 10.1338 19.6462
12242 2 2.56109 24.149 22.5161
12175 2 5.5425 10.0505 16.7994
12176 2 8.31164 12.6482 16.7328
12177 2 8.28728 10.0403 19.4067
12178 2 5.41799 12.9816 19.5388
12179 2 10.8537 10.067 16.8784
12180 2 11.1675 12.8388 19.5804
12227 2 8.31345 10.0375 25.1422
12182 2 2.70693 18.4992 16.744
12183 2 2.6625 15.7538 19.5246
5903 1 6.88801 0.145157 18.3449
12185 2 5.41368 15.7092 16.7447
12186 2 8.32754 18.4448 16.8545
12187 2 8.23753 15.6857 19.6954
12188 2 5.56489 18.4824 19.4985
12189 2 11.0204 15.551 16.8318
12190 2 11.1257 18.5183 19.5652
12226 2 8.34072 12.8146 22.3524
12192 2 2.64381 24.1095 16.7844
12193 2 2.75819 21.2525 19.5557
12228 2 5.55005 12.8325 25.2247
12195 2 5.50487 21.3146 16.7059
12196 2 8.40346 24.0602 16.8769
12197 2 8.31447 21.2762 19.6887
12198 2 5.42978 23.9666 19.6349
12199 2 11.1054 21.0941 16.8394
12200 2 11.1467 24.0794 19.5877
12240 2 11.09 18.5013 25.1652
12202 2 2.60391 1.61444 22.2969
12230 2 11.1861 12.7874 25.116
12239 2 11.0515 15.5178 22.3491
12229 2 11.2377 9.98845 22.439
12206 2 8.45318 1.65407 22.3819
12233 2 2.80059 15.5651 25.2418
12208 2 5.40991 1.67524 25.1938
12235 2 5.56475 15.6288 22.4788
12210 2 11.1925 1.65316 25.149
12238 2 5.56286 18.4527 25.043
12212 2 2.79134 7.30206 22.3235
12213 2 2.69846 4.49451 25.2638
12237 2 8.4202 15.5696 25.1445
12215 2 5.50144 4.37624 22.3124
12216 2 8.45777 7.29476 22.407
12217 2 8.25518 4.39261 25.2523
12218 2 5.45829 7.14911 25.2694
12181 2 -0.0487204 15.6921 16.6259
12221 2 -0.0478361 10.18 22.2761
12231 2 -0.00258751 15.7221 22.3748
15136 2 13.8019 9.98045 13.9843
12046 2 8.40364 24.1655 27.8782
15242 2 13.8462 21.3041 25.1429
12204 2 -0.0788825 1.62654 25.1682
15192 2 14.0093 21.2888 19.5978
12131 2 2.62 4.50493 14.0422
15011 2 13.9884 7.3109 27.9243
15232 2 13.8322 15.745 25.2203
15171 2 13.9059 12.7615 16.7687
12194 2 -0.175593 24.1587 19.5792
15191 2 13.9572 24.0713 16.7218
15031 2 13.9446 18.5908 28.0689
12224 2 -0.0235255 12.8102 25.1115
15221 2 14.0047 12.8199 22.2465
12150 2 11.1879 24.0794 14.0633
15131 2 13.809 4.48162 13.9815
12032 2 2.69743 18.4857 27.8681
15146 2 13.7852 21.1364 14.0076
15141 2 13.8991 15.8102 14.1165
12134 2 5.4332 7.22148 14.0517
12036 2 8.3373 18.4223 27.9187
15041 2 13.9115 24.029 27.8618
12016 2 8.39223 7.10182 27.89
12130 2 11.1151 1.38131 13.952
12045 2 5.58875 21.2161 27.9182
12143 2 8.37303 15.7467 14.0324
12029 2 11.1291 10.0868 27.9349
12002 2 2.62303 1.51883 27.9892
12006 2 8.32609 1.67631 27.9073
12140 2 11.1813 12.9348 13.9534
12147 2 -0.149337 23.9697 13.9527
12135 2 11.1706 7.16067 13.9957
12148 2 8.28489 21.4169 13.9637
451 1 1.3409 25.5621 1.36845
452 1 4.06902 25.4225 1.4085
453 1 4.02071 25.4901 4.15627
454 1 1.20857 25.6515 4.21057
455 1 7.04803 25.7137 1.23901
456 1 9.85096 25.4974 1.17173
457 1 9.65875 25.3288 4.11251
458 1 6.98562 25.5742 4.1497
459 1 12.5952 28.3214 1.11307
460 1 12.5413 25.416 4.02707
461 1 1.11634 28.2899 1.39601
462 1 4.01707 28.2783 1.36513
463 1 4.17562 28.186 4.0697
464 1 1.17376 28.4233 4.1323
465 1 1.49005 34.077 1.32868
466 1 3.93057 31.2272 1.31629
467 1 4.18504 30.9675 4.08903
468 1 1.34927 31.1871 4.07332
469 1 6.65905 28.4254 1.07518
470 1 9.78034 28.439 1.20786
471 1 9.79416 28.3299 3.98362
472 1 6.96205 28.266 4.04927
473 1 7.07483 31.0745 1.0113
474 1 9.86627 31.4113 1.16054
475 1 9.71037 31.1208 4.13191
476 1 6.80585 30.977 3.94449
477 1 12.6592 31.0069 1.17124
478 1 12.5519 28.2426 3.86722
901 1 1.403 50.7552 1.32453
480 1 12.356 31.1453 4.11179
481 1 1.15913 36.8572 1.61261
482 1 4.25418 33.9692 1.34469
483 1 3.94322 33.9273 4.05204
484 1 1.18547 33.74 4.07303
12279 2 11.1522 38.1606 -0.103432
486 1 3.99158 36.798 1.29195
487 1 4.0322 36.77 4.17372
488 1 1.13774 36.7821 4.11773
489 1 7.04078 33.7837 1.25635
490 1 9.72525 34.1099 1.18288
491 1 9.44747 33.963 4.06459
492 1 6.79075 33.7972 4.16271
493 1 6.72645 36.806 1.37473
494 1 9.61063 36.8741 1.37111
495 1 9.52442 36.8799 4.12836
496 1 6.76594 36.7824 4.1841
497 1 12.5896 33.9248 1.25854
498 1 12.1983 33.9623 4.09616
499 1 12.3823 36.6174 1.21639
500 1 12.3591 36.8936 4.00485
501 1 1.38333 39.411 1.35079
502 1 4.21748 39.6833 1.44818
503 1 4.06738 39.5243 4.27386
504 1 1.32326 39.6245 3.89129
505 1 1.35263 42.3236 1.38535
506 1 4.10311 42.3731 1.20155
507 1 4.0252 42.2759 4.04365
508 1 1.26808 42.4697 4.23256
509 1 6.90641 39.7031 1.32114
510 1 9.66473 39.5727 1.3504
511 1 9.59724 39.5797 4.19448
512 1 6.77958 39.548 4.10859
513 1 6.87818 42.4401 1.42175
514 1 9.5452 42.5116 1.37155
515 1 9.68376 42.3916 4.21416
516 1 6.93444 42.3386 4.29053
517 1 12.5283 39.7878 1.20839
518 1 12.4421 39.5475 4.2872
519 1 12.4522 42.4254 1.53492
520 1 12.6418 42.2109 4.31214
521 1 1.14155 45.2364 1.20903
522 1 3.9402 45.1116 1.31463
523 1 4.13914 44.9603 4.08748
524 1 1.30857 45.2111 4.11209
525 1 1.1972 47.9223 1.29726
526 1 4.13309 47.8782 1.23105
527 1 3.91445 47.7799 4.19472
528 1 1.16448 48.028 4.13327
529 1 6.7639 45.2835 1.41207
530 1 9.59899 45.2609 1.32907
531 1 9.68959 45.317 4.34879
532 1 6.90272 45.1372 4.24689
533 1 6.879 48.0565 1.43299
534 1 9.64091 48.0031 1.49531
535 1 9.55488 47.931 4.2462
536 1 6.75603 48.0069 4.19622
537 1 12.4517 45.1974 1.40665
538 1 12.516 45.0882 4.18764
539 1 12.4792 48.0324 1.4373
540 1 12.4639 47.9815 4.29866
541 1 1.15075 25.5221 6.98562
542 1 4.11032 25.6439 6.98085
543 1 4.0743 25.4888 9.78644
544 1 1.16687 25.3988 9.78102
545 1 6.89694 25.7054 6.8665
546 1 9.88058 25.4181 6.85939
547 1 9.74427 25.6263 9.64903
548 1 6.81342 25.5247 9.81548
549 1 12.5172 25.5626 6.79205
550 1 12.4999 25.4929 9.82338
551 1 1.22294 28.3608 6.87175
552 1 4.11336 28.3808 6.95702
553 1 3.9947 28.1907 9.70476
554 1 1.24596 28.3882 9.57264
555 1 1.21473 31.1416 6.93616
556 1 3.98702 31.1427 6.88862
557 1 4.1663 31.0387 9.85694
558 1 1.37007 31.1828 9.52484
559 1 6.97804 28.4123 7.05647
560 1 9.6678 28.1668 6.84834
561 1 9.55187 28.4309 9.6687
562 1 6.89248 28.3343 9.8298
563 1 7.0056 31.1448 6.85741
564 1 9.65287 31.1258 6.95841
565 1 9.70329 31.2728 9.61977
566 1 6.9479 31.231 9.71407
567 1 12.5256 28.2731 6.8678
568 1 12.5103 28.3526 9.71718
569 1 12.6056 31.2176 6.83077
570 1 12.341 31.2395 9.59994
571 1 1.46036 34.0355 6.85144
572 1 4.16825 34.0691 6.8644
573 1 4.04831 33.8232 9.75993
574 1 1.32815 33.922 9.61818
575 1 1.25652 36.7366 6.91801
576 1 4.00057 36.8029 6.94713
577 1 4.02582 36.6898 9.70297
578 1 1.31335 36.8889 9.90579
579 1 6.88036 34.0041 6.91425
580 1 9.60515 33.9481 6.83244
581 1 9.6428 34.0262 9.65312
582 1 7.00382 34.0916 9.6685
583 1 6.97867 36.8012 6.97886
584 1 9.76169 36.8047 7.11758
585 1 9.59381 36.8689 9.87747
586 1 6.80949 36.8333 9.74849
587 1 12.4083 34.0019 6.94507
588 1 12.5159 34.0088 9.80248
589 1 12.5324 36.7084 6.91157
590 1 12.5275 36.8089 9.68263
591 1 1.33336 39.5315 6.85611
592 1 4.20015 39.5894 6.89823
593 1 3.99032 39.5835 9.55752
594 1 1.17874 39.626 9.51308
595 1 1.26635 42.2955 6.94103
596 1 4.16695 42.3248 6.89206
597 1 4.12231 42.4189 9.80848
598 1 1.30459 42.3686 9.79893
599 1 6.95356 39.5833 6.99848
600 1 9.69843 39.7152 6.92078
601 1 9.54388 39.6844 9.68245
602 1 6.90266 39.5295 9.76252
603 1 6.83575 42.3008 7.14809
604 1 9.53877 42.302 7.05642
605 1 9.7852 42.5551 9.77481
606 1 6.80874 42.2825 9.82357
607 1 12.5568 39.7398 7.05835
608 1 12.4244 39.5473 9.64787
609 1 12.3822 42.5315 7.11057
610 1 12.597 42.3935 9.88692
611 1 1.21966 45.1077 6.99907
612 1 4.04987 45.134 6.87134
613 1 4.12313 45.1846 9.67354
614 1 1.30552 45.1361 9.6535
615 1 1.18555 47.9714 6.89141
616 1 4.0249 47.996 6.88004
617 1 4.21417 47.8059 9.7784
618 1 1.24877 47.9635 9.74312
619 1 6.95147 45.094 6.99745
620 1 9.68633 45.2121 6.88894
621 1 9.71403 45.3061 9.75253
622 1 6.89905 45.2054 9.65882
623 1 6.91533 48.0466 7.04141
624 1 9.70005 47.8969 7.06091
625 1 9.93099 48.0523 9.86314
626 1 7.06628 47.949 9.76168
627 1 12.3293 45.3744 6.958
628 1 12.5795 45.2374 9.66373
629 1 12.3503 48.3011 7.08962
630 1 12.7397 47.8934 9.91959
631 1 1.34611 25.632 12.5886
632 1 4.09365 25.566 12.5411
633 1 6.86591 25.6771 12.6477
634 1 9.62527 25.578 12.607
635 1 12.4275 25.6605 12.8308
636 1 1.19263 28.4753 12.465
637 1 4.0903 28.464 12.4093
638 1 1.28158 31.2272 12.5716
639 1 4.08972 31.0961 12.5559
640 1 6.90937 28.4851 12.6506
641 1 9.70137 28.2346 12.5492
642 1 6.90579 31.1527 12.4799
643 1 9.64366 30.9557 12.6052
644 1 12.4554 28.4262 12.5482
645 1 12.5357 31.0916 12.656
646 1 1.40316 33.922 12.4169
647 1 4.11443 33.9469 12.6022
648 1 1.36979 36.7837 12.567
649 1 4.24829 36.6997 12.5265
650 1 6.99256 33.8498 12.6275
651 1 9.66978 33.8396 12.5009
652 1 6.91141 36.6538 12.4689
653 1 9.79909 36.5916 12.6259
654 1 12.5833 34.0935 12.6272
655 1 12.3716 36.7985 12.5336
656 1 1.44284 39.4362 12.4648
657 1 4.02429 39.4939 12.4692
658 1 1.08353 42.1917 12.6743
659 1 3.93537 42.2486 12.6153
660 1 6.75982 39.6243 12.4903
661 1 9.57529 39.5642 12.5604
662 1 6.9287 42.3845 12.6115
663 1 9.81335 42.4132 12.5752
664 1 12.3595 39.5855 12.4027
665 1 12.6667 42.2907 12.7394
666 1 1.32903 45.064 12.6077
667 1 4.27033 44.966 12.7762
668 1 1.3957 47.9496 12.4906
669 1 4.07406 47.7459 12.4806
670 1 6.98555 45.2141 12.5028
671 1 9.72791 45.1641 12.6254
672 1 6.85636 48.0369 12.4341
673 1 9.78255 47.9964 12.5526
674 1 12.6276 45.1956 12.7486
675 1 12.6324 47.9379 12.6487
12363 2 11.1349 49.3077 11.2664
15296 2 13.9115 29.6551 5.51438
12253 2 2.70444 26.8371 2.85995
12362 2 5.48583 49.3593 11.1746
15297 2 13.8213 26.8957 8.35503
15346 2 13.9556 35.2359 11.1913
12257 2 8.47604 26.807 2.76969
12258 2 5.44571 29.5534 2.66562
903 1 3.78233 50.6694 4.10469
12260 2 11.2507 29.6642 2.61171
12360 2 11.2053 43.8344 11.09
15336 2 13.8348 49.3152 8.38889
12263 2 2.60328 32.4947 2.7227
12359 2 8.35247 46.594 11.0637
89 1 12.4835 25.4389 1.24249
15307 2 13.9438 32.599 8.34163
12267 2 8.14971 32.3971 3.0133
12268 2 5.41442 35.4214 2.82693
12345 2 11.1783 27.0226 11.2292
12270 2 10.9651 35.4251 2.76399
12358 2 5.48553 43.7865 11.1676
12344 2 8.308 29.6204 11.2038
12273 2 2.95096 38.1735 2.7698
12357 2 2.58805 46.4693 11.0675
12343 2 5.46692 26.8902 11.2276
15306 2 13.836 35.3212 5.59584
12277 2 8.30564 38.2796 2.82482
12278 2 5.57015 41.0848 2.77737
15327 2 13.9207 43.7452 8.36567
12280 2 11.1351 40.9228 2.87804
12355 2 11.0346 38.1667 11.2511
15262 2 13.8543 32.5248 2.74632
12283 2 2.83032 43.7582 2.70999
12354 2 8.22256 40.9143 11.2437
12282 2 2.59907 46.5657 -0.15814
12295 2 11.1145 49.391 0.0482418
12287 2 8.35164 44.0481 2.89677
12288 2 5.36716 46.6769 2.81273
15282 2 13.9242 43.7582 2.81422
12290 2 11.081 46.63 2.8089
12353 2 5.37623 38.09 11.2047
12292 2 2.55125 49.325 2.69006
12340 2 11.0589 49.496 5.62024
12294 2 8.15703 49.3966 2.83299
15271 2 13.9418 40.9684 -0.101365
6478 1 1.21037 31.0718 1.33902
12297 2 2.60236 29.7822 5.59877
12298 2 2.63304 26.8871 8.28253
12342 2 2.65926 29.6762 10.9702
12300 2 5.55045 26.8816 5.54427
12301 2 8.3305 29.5874 5.59662
12302 2 8.4062 26.9599 8.37728
12303 2 5.59144 29.6918 8.43258
12304 2 11.2183 26.8509 5.38851
12305 2 11.1537 29.7665 8.25093
12352 2 2.73834 40.9174 11.1176
12307 2 2.66172 35.3233 5.50281
12308 2 2.78934 32.4012 8.36995
909 1 6.902 50.8891 1.52676
12310 2 5.44023 32.358 5.52427