ITEM: TIMESTEP
50000
ITEM: NUMBER OF ATOMS
18000
ITEM: BOX BOUNDS xy xz yz pp pp pp
-1.0118209407846732e-01 2.7995182094078544e+01 0.0000000000000000e+00
-1.1505692216778842e+00 3.3587856922167634e+02 0.0000000000000000e+00
-9.6690390200505988e-02 2.7990690390200644e+01 0.0000000000000000e+00
ITEM: ATOMS id type x y z
1 1 1.19021 0.318565 1.46906
2 1 4.08541 0.526677 1.26119
3 1 6.99366 0.456684 3.98534
4 1 1.36796 0.279633 4.1622
5 1 1.23483 3.20598 1.31288
6 1 4.1369 3.22392 1.35087
7 1 4.05562 3.27778 4.03488
8 1 1.32545 3.20052 4.14072
9 1 6.75172 0.370129 1.28205
10 1 9.68039 0.42691 1.37205
11 1 9.71881 0.210003 4.14223
12 1 6.91551 3.30788 4.18904
13 1 6.87413 3.22301 1.37886
14 1 9.69552 3.17729 1.40245
15 1 9.60682 3.03273 4.17339
16 1 6.76645 6.14815 4.04653
17 1 12.3512 0.347278 1.31726
18 1 12.61 0.313038 4.15787
19 1 12.4846 3.22777 1.55673
20 1 12.5295 3.0614 4.27288
21 1 1.2621 5.93875 1.26865
22 1 4.10094 6.10809 1.26651
23 1 4.03501 6.06223 4.02723
24 1 1.20528 6.04728 4.09976
25 1 1.26948 8.76552 1.38023
26 1 4.0862 8.83962 1.16553
27 1 4.014 8.76552 4.08359
28 1 1.23463 8.80763 4.12422
29 1 6.79817 6.0486 1.18209
30 1 9.85584 6.08292 1.28472
31 1 9.53606 5.87792 4.10143
32 1 6.83358 8.89151 4.25447
33 1 6.93907 8.75422 1.26112
34 1 9.80228 8.83391 1.41356
35 1 9.79117 9.04019 4.07569
36 1 6.96032 11.7979 6.77678
37 1 12.51 6.06089 1.30329
38 1 12.5485 6.03608 4.26347
39 1 12.6495 8.78481 1.42581
40 1 12.542 8.63245 4.26419
41 1 1.23016 11.4753 1.32321
42 1 3.96019 11.6349 1.3828
43 1 4.09095 11.589 4.18306
44 1 1.27615 11.6304 4.35962
45 1 1.25727 14.3387 1.30054
46 1 4.0578 14.1872 1.28658
47 1 3.94504 14.5134 4.03106
48 1 1.14966 14.422 4.13912
49 1 6.72877 11.5501 1.53409
50 1 9.65779 11.7678 1.42381
51 1 9.70593 11.8621 4.38443
52 1 6.92582 11.7162 4.15514
53 1 6.83317 14.4735 1.43558
54 1 9.6758 14.7081 1.33045
55 1 9.71114 14.5109 4.26429
56 1 6.79931 14.5628 4.25166
57 1 12.5361 11.6736 1.52922
58 1 12.6019 11.5492 4.2886
59 1 12.4389 14.5203 1.17736
60 1 12.5175 14.4505 4.08897
61 1 1.12312 17.2293 1.25506
62 1 4.0392 17.1399 1.46793
63 1 3.98762 17.2889 4.3547
64 1 1.13571 17.26 4.13213
65 1 1.17822 19.9913 1.44523
66 1 4.14519 19.9332 1.2462
67 1 4.08885 20.1089 4.03844
68 1 1.24623 20.1728 4.24252
69 1 6.85441 17.1068 1.43743
70 1 9.61944 17.4579 1.51158
71 1 9.61451 17.2951 4.26384
72 1 6.77097 17.2761 4.1773
73 1 6.95742 20.0748 1.24918
74 1 9.72761 20.1475 1.50756
75 1 9.65723 20.1039 4.23615
76 1 6.92361 20.158 4.12348
77 1 12.3574 17.3614 1.47951
78 1 12.4144 17.3354 4.2083
79 1 12.6604 22.9597 1.34212
80 1 12.4712 20.0705 1.4283
81 1 1.24629 22.7355 1.29142
82 1 4.12963 22.8092 1.36013
83 1 4.02166 22.8688 4.2519
84 1 1.17465 22.9291 4.14434
85 1 7.024 22.9538 1.33116
86 1 9.80171 22.9066 1.29281
87 1 9.9572 23.035 4.10813
88 1 6.99697 22.9449 4.1877
15062 2 14.0094 4.37077 8.56141
90 1 12.5148 22.8649 4.2277
91 1 1.21513 0.286456 7.00139
92 1 3.97073 0.369533 6.94524
93 1 4.19062 3.11471 9.73518
94 1 1.1737 0.402255 9.72977
95 1 1.43029 3.15062 6.7769
96 1 4.10161 3.14346 6.92102
97 1 1.27486 6.03175 9.72582
98 1 1.41961 3.14041 9.87865
99 1 6.83496 0.36009 6.74933
100 1 9.7574 0.225097 7.01899
101 1 9.54195 3.02346 9.92945
102 1 6.90554 2.97395 9.83652
103 1 6.75163 3.04528 6.99568
104 1 9.61098 2.9177 6.96601
105 1 10.5023 5.15089 8.06262
106 1 4.09961 5.8733 9.83244
107 1 12.4879 0.36843 6.84111
108 1 12.4188 3.14038 9.98662
109 1 12.4672 2.98415 7.11497
110 1 12.8012 5.87696 10.0461
111 1 1.50575 5.95161 6.92248
112 1 4.28499 5.86613 7.03848
113 1 8.02654 5.43103 6.52173
114 1 1.40782 8.85936 9.90698
115 1 1.18455 8.9018 6.94722
116 1 3.92345 8.79761 6.88327
117 1 5.9566 9.79284 8.35346
118 1 4.07056 8.73916 9.89925
119 1 10.21 7.16167 6.40146
120 1 9.85654 9.01667 9.22664
121 1 9.69762 6.57679 9.95536
122 1 12.932 5.94061 7.12572
123 1 6.59803 7.60296 6.77218
124 1 8.7034 9.17748 6.6855
125 1 9.67321 11.6625 9.78062
126 2 8.49406 7.30058 8.20914
12022 2 2.60747 12.9527 -0.131837
128 1 12.5833 8.90932 9.82585
129 1 12.5211 8.829 7.01159
130 1 12.4575 11.6741 9.88241
131 1 1.24032 11.7868 6.97788
132 1 4.06322 11.6271 6.92352
133 1 4.24877 11.6097 9.86275
134 1 1.36934 11.6969 9.74504
135 1 1.31402 14.4764 7.0431
136 1 4.09311 14.6731 6.94153
137 1 4.06256 14.3721 9.72392
138 1 1.29218 14.5537 9.70165
139 1 6.91557 14.4491 6.97503
140 1 12.7675 11.6389 7.02071
141 1 9.85988 11.7011 7.10189
142 1 6.92786 11.7445 9.91547
143 1 9.64477 17.3129 7.06678
144 1 9.82313 14.5064 7.14287
145 1 9.75981 14.5267 9.86123
146 1 6.93051 17.2688 7.10576
12045 2 5.49781 21.3709 -0.11216
5725 1 9.63727 0.273705 9.76751
12046 2 8.44792 24.2048 -0.0852121
150 1 12.6836 14.4489 9.86605
151 1 1.34113 17.3086 6.90998
152 1 4.0414 17.3818 7.10968
153 1 4.12809 17.3145 9.87469
154 1 1.32314 17.3129 9.70467
155 1 1.16819 20.0974 6.95057
156 1 4.0938 20.045 6.93335
157 1 4.07415 20.0418 9.70344
158 1 1.29031 20.2211 9.78339
159 1 9.68628 20.2423 7.03597
160 1 12.4194 17.2706 7.00444
161 1 9.72389 17.3645 9.61676
162 1 6.9283 17.3032 9.8162
163 1 6.8216 20.1323 6.96152
164 1 12.537 20.159 6.90815
165 1 9.69316 20.0836 9.80023
166 1 6.84254 20.2469 9.73242
12032 2 2.49598 18.5159 -0.149417
168 1 12.4908 17.1713 9.74736
169 1 12.552 20.1213 4.12162
170 1 12.4732 19.974 9.62268
171 1 1.27146 22.9448 6.96569
172 1 4.16444 22.9747 6.96829
173 1 4.19542 22.9124 9.81649
174 1 1.31166 22.9089 9.84587
175 1 6.81705 22.9758 6.88153
176 1 9.43457 22.9917 7.00541
177 1 9.78193 23.0068 9.95024
178 1 6.99522 22.9563 9.76034
179 1 12.3364 22.8802 7.14956
180 1 12.6213 22.8354 9.88815
181 1 1.33704 0.411179 12.7218
182 1 4.10615 0.381086 12.4354
183 1 1.20347 3.17104 12.4835
184 1 4.08903 3.09658 12.6015
185 1 6.88231 0.505302 12.78
186 1 9.74957 0.234541 12.6472
187 1 7.055 5.68549 9.51326
188 1 9.80089 3.12833 12.638
189 1 12.4961 0.299865 12.6327
190 1 12.6905 3.17426 12.8306
191 1 1.51685 5.85693 12.6278
192 1 4.27615 5.86433 12.4623
193 1 1.22508 8.84126 12.6446
194 1 4.11123 8.62252 12.5888
195 1 7.21541 8.43151 9.83589
196 1 9.80276 6.05766 12.5446
197 1 6.81628 11.8892 12.6671
198 1 9.70143 8.94856 12.3198
199 1 12.5126 6.11076 12.672
200 1 12.5503 8.8326 12.6918
201 1 1.39222 11.6321 12.4786
202 1 4.06216 11.6925 12.6635
203 1 1.37971 14.4852 12.506
204 1 4.08744 14.44 12.4808
205 1 6.99947 14.4652 9.75432
206 1 9.64661 11.834 12.6497
207 1 6.85324 14.6538 12.4376
208 1 9.74726 14.7084 12.6833
209 1 12.5231 11.6846 12.6318
210 1 12.5854 14.5089 12.7799
211 1 1.27642 17.1545 12.4958
212 1 4.11139 17.1717 12.7785
213 1 1.37193 19.8676 12.4982
214 1 4.12355 20.1356 12.4299
215 1 7.00602 17.3193 12.5003
216 1 9.90498 17.5523 12.4255
217 1 6.9322 20.0378 12.576
218 1 9.70641 20.2183 12.6109
219 1 12.8486 17.2179 12.7062
220 1 12.4308 20.0676 12.4928
221 1 1.30387 22.7572 12.66
222 1 4.26369 22.8723 12.5971
223 1 6.94128 22.9109 12.6094
224 1 9.84038 22.8775 12.7218
225 1 12.6148 22.7851 12.5311
12125 2 11.0938 21.4003 11.1718
12110 2 11.1518 4.48908 11.2149
147 1 12.6911 14.4307 6.97558
12124 2 8.29114 24.2589 11.3046
15051 2 13.9296 1.61258 5.54502
12109 2 8.40876 7.41878 11.5348
12094 2 -0.121338 24.3068 8.40477
12008 2 5.55525 1.87524 2.85604
12026 2 8.22648 13.0834 -0.0478736
12010 2 11.2163 1.76642 2.90686
12123 2 5.62306 21.4407 11.1623
12108 2 5.56189 4.45339 11.2204
12013 2 2.72011 4.61101 2.66805
12122 2 2.76442 24.2555 11.2832
12107 2 2.79896 7.30125 11.1755
12112 2 2.67 13.0825 11.1188
12017 2 8.24775 4.53259 2.65281
12018 2 5.44436 7.42886 2.68207
12104 2 8.26856 1.69195 11.3962
12020 2 11.1511 7.4359 2.87598
12003 2 2.72454 -1.16458 2.81849
12006 2 8.25216 1.76497 -0.0390748
12023 2 2.80613 10.2099 2.73346
12120 2 11.1914 15.8798 11.2115
12102 2 2.6145 1.75191 11.0763
12113 2 5.58999 10.1526 11.1297
12027 2 8.28278 10.2288 2.77002
12028 2 5.42569 12.9787 2.83965
12100 2 11.1157 24.318 8.50437
12030 2 11.0195 13.0071 2.92856
12099 2 11.114 21.627 5.67846
12098 2 5.54663 24.3747 8.40001
12033 2 2.55093 15.7676 2.72089
12029 2 11.1033 10.191 0.00599499
12097 2 8.28926 21.4703 8.41968
12096 2 8.38791 24.1649 5.60837
12037 2 8.25423 15.85 2.76795
12038 2 5.40726 18.5527 2.72966
12095 2 5.47597 21.4226 5.51949
12040 2 11.0149 18.727 2.97555
12061 2 -0.0560774 4.53291 5.5846
12093 2 2.81403 21.6184 8.36058
12043 2 2.65864 21.4192 2.76961
12091 2 -0.197106 21.5753 5.54463
12092 2 2.6973 24.2666 5.49216
12088 2 5.46159 18.7367 8.27397
12047 2 8.33956 21.4604 2.68657
12048 2 5.65441 24.1847 2.75224
12090 2 11.0312 18.6173 8.24709
12050 2 11.2347 24.312 2.83069
12119 2 8.24912 18.6089 11.1054
12052 2 2.76246 1.82112 5.48314
5726 1 6.91969 0.197705 9.84165
12118 2 5.45666 15.886 11.1329
241 1 6.93274 6.15562 12.5987
12056 2 8.35714 1.62259 5.50963
5717 1 4.02689 0.163389 9.77795
12058 2 5.52846 1.75264 8.37454
15001 2 13.8336 1.78259 0.0740862
12060 2 11.0636 1.68889 8.50067
12117 2 2.71031 18.6803 11.0757
12062 2 2.70206 7.40694 5.38029
12063 2 2.68215 4.47692 8.35513
12089 2 11.1814 15.6644 5.68661
12065 2 5.57333 4.5672 5.50361
12066 2 8.29979 7.47898 5.19613
12067 2 8.3475 4.02016 8.28042
12068 2 5.15785 7.51324 8.46316
12069 2 10.9675 4.69085 5.76849
12070 2 11.6971 7.26912 8.4462
12115 2 11.0821 10.3239 11.289
12072 2 2.71246 13.0971 5.61739
12073 2 2.73024 10.3487 8.34979
12114 2 8.40426 13.253 11.3314
12075 2 5.59562 10.1216 5.74103
12076 2 8.28932 13.1923 5.61483
12077 2 8.163 10.5441 8.4672
12078 2 5.55418 12.8968 8.43681
12079 2 11.029 10.0215 5.80873
12080 2 11.1426 12.9929 8.46249
12087 2 8.26372 15.8513 8.34154
12082 2 2.55731 18.7078 5.56031
12083 2 2.76618 15.878 8.53145
12036 2 8.35989 18.572 0.034698
12085 2 5.41656 15.9329 5.59924
12086 2 8.32083 18.7187 5.58599
15012 2 13.9283 4.63656 2.83266
233 1 6.95664 3.24407 12.5843
12016 2 8.3551 7.32978 -0.110729
5627 1 4.14913 0.463086 4.13894
5730 1 12.5616 0.304308 9.8011
15022 2 13.911 10.1515 2.77295
243 1 6.94184 8.8845 12.6373
12049 2 11.1676 21.5372 -0.0622704
15116 2 13.6876 18.6958 11.0562
12057 2 8.41749 -1.20649 8.34262
12071 2 -0.168544 10.2539 5.5324
12074 2 -0.114177 13.0861 8.35085
12031 2 -0.194714 15.7612 0.00485087
12042 2 2.69401 24.3159 -0.00712825
12035 2 5.44152 15.7312 -0.069691
12025 2 5.46734 10.2018 -0.144625
15092 2 13.8655 21.5056 8.41559
15002 2 13.9551 -1.12692 2.85005
15071 2 14.0607 12.9391 5.40632
12009 2 11.0424 -1.07223 -0.0837759
15031 2 13.8658 18.6876 -0.0951368
12019 2 11.0687 4.42987 -0.0607452
12116 2 -0.217201 15.8088 11.1342
15021 2 14.0557 12.9984 0.0489888
15081 2 13.8472 18.6104 5.48112
12054 2 -0.148094 1.71477 8.40883
15011 2 14.0483 7.4076 -0.0194785
12101 2 -0.247047 -1.06506 11.1343
12064 2 -0.0928485 7.38566 8.27323
15101 2 14.0216 1.76981 11.1723
12139 2 5.32382 13.1385 14.0163
12141 2 2.63588 15.8505 14.0049
12130 2 11.2064 1.66169 14.1083
12002 2 2.71612 1.86015 -0.078412
12126 2 2.66722 -0.95882 14.0109
12039 2 11.1326 15.912 -0.0280468
226 1 4.1608 0.464368 15.4192
227 1 1.25114 0.539201 15.4428
228 1 4.14616 3.18736 15.2307
229 1 1.26711 3.31283 15.1507
230 1 9.76209 0.329338 15.4115
231 1 6.99179 0.35881 15.5004
232 1 9.74585 3.24664 15.3499
12143 2 8.31853 15.936 14.0577
234 1 12.6386 0.361194 15.5346
235 1 12.6895 3.18299 15.4492
236 1 4.11661 5.93214 15.3116
237 1 1.42918 6.04895 15.3935
238 1 4.10306 8.88659 15.3498
239 1 1.28034 8.9182 15.3382
240 1 9.6744 6.19682 15.3743
12131 2 2.7234 4.60092 13.9823
242 1 9.82123 8.75057 15.3027
12147 2 -0.260655 24.1931 14.1633
244 1 12.5073 6.17496 15.5315
245 1 12.5663 8.86723 15.428
246 1 4.10228 11.7234 15.4492
247 1 1.36571 11.9119 15.356
248 1 4.07061 14.5081 15.4242
249 1 1.27315 14.5067 15.3875
250 1 10.0053 11.7137 15.2814
251 1 6.77105 11.8023 15.3651
252 1 9.77689 14.7403 15.2695
253 1 6.95093 14.5748 15.2777
254 1 12.5786 11.6916 15.4915
255 1 12.5891 14.5234 15.5393
256 1 4.07404 17.3102 15.49
257 1 1.32162 17.2179 15.4238
258 1 4.16949 20.0717 15.2869
259 1 1.34034 20.0188 15.3532
260 1 9.80728 17.3204 15.3362
261 1 6.86514 17.5012 15.4179
262 1 9.94747 20.0642 15.4854
263 1 6.92655 20.2397 15.3564
264 1 12.522 17.3245 15.4859
265 1 12.5888 20.113 15.4707
266 1 4.01897 23.0826 15.3785
267 1 1.14632 22.9734 15.3955
268 1 9.75556 22.9238 15.4928
269 1 6.83947 22.9265 15.3884
270 1 12.6574 23.0365 15.2743
271 1 1.2681 0.512091 18.2064
272 1 4.00778 0.423138 18.0615
273 1 4.10919 0.43093 20.9412
274 1 1.32841 0.255613 21.1145
275 1 1.34 3.32692 18.2735
276 1 4.20649 3.16946 18.3159
277 1 4.17816 3.16395 21.0863
278 1 1.34087 3.17321 21.0386
279 1 6.88889 3.05934 15.2401
280 1 9.67921 0.296144 18.1821
281 1 9.66365 0.503358 20.949
282 1 7.0913 3.40835 18.0687
283 1 6.99043 5.93091 15.3251
284 1 9.77548 3.21338 18.1424
285 1 9.77245 3.31683 21.1082
286 1 6.89565 6.06475 18.1588
287 1 12.4727 0.565884 18.3023
288 1 12.4031 0.337601 21.1013
289 1 12.419 3.41262 18.2145
290 1 12.5283 3.2608 20.9438
291 1 1.23843 6.10242 18.0271
292 1 4.0062 5.99335 18.0316
293 1 4.11794 5.9047 20.8973
294 1 1.43297 5.93283 21.0551
295 1 1.39192 8.86969 18.1508
296 1 4.28033 8.85998 18.2009
297 1 3.98281 8.79123 20.9386
298 1 1.1999 8.87749 20.9568
299 1 6.78834 8.75644 15.2888
300 1 9.69181 6.06101 18.264
301 1 9.60792 6.17152 20.9163
302 1 7.08251 8.83757 18.2561
303 1 8.47416 10.3741 16.7751
304 1 9.90751 8.87456 18.3167
305 1 9.65577 8.79206 21.1578
306 1 6.90057 8.77806 21.0648
307 1 12.5434 6.10699 18.3069
308 1 12.4452 6.13074 21.1714
309 1 12.7617 8.80069 18.2342
310 1 12.5312 8.89392 20.9417
311 1 1.38785 11.6126 18.148
312 1 4.1598 11.6221 18.1882
313 1 4.0927 11.5419 21.0078
314 1 1.47851 11.7633 20.9077
315 1 1.29308 14.4706 18.1765
316 1 4.1174 14.4249 18.2364
317 1 4.11664 14.453 20.9167
318 1 1.36747 14.4863 21.006
319 1 6.96488 11.6976 18.3936
320 1 9.87157 11.6999 18.3518
321 1 9.64792 11.6245 21.1376
322 1 6.88632 11.6832 21.0595
323 1 6.94083 14.3708 18.0969
324 1 9.74027 14.5506 18.3398
325 1 9.86379 14.4794 20.9631
326 1 6.99729 14.5545 20.8826
327 1 12.6864 11.5233 18.3363
328 1 12.5094 11.5694 21.2327
329 1 12.5231 14.383 18.2888
330 1 12.5895 14.2642 20.9798
331 1 1.33189 17.308 18.2411
332 1 4.11313 17.2369 18.4489
333 1 4.14557 17.3272 21.1528
334 1 1.40175 17.3571 20.9562
335 1 1.30534 20.0988 18.3113
336 1 4.17766 20.0352 18.054
337 1 4.26512 20.2355 21.0581
338 1 1.39903 20.073 21.002
339 1 7.08346 17.2741 18.1826
340 1 9.8611 17.28 18.1227
341 1 9.71519 17.2982 21.0006
342 1 6.93397 17.2794 20.9743
343 1 6.99831 20.0628 18.2456
344 1 9.77688 20.0904 18.3316
345 1 9.79584 20.1959 20.9998
346 1 6.96423 20.1344 21.033
347 1 12.618 17.2846 18.3585
348 1 12.6217 17.2526 21.1488
349 1 12.6593 20.0873 18.2714
350 1 12.5515 19.9742 21.0772
351 1 1.26731 22.9238 18.3162
352 1 4.07462 22.696 18.2
353 1 4.07374 23.1039 21.0907
354 1 1.38359 22.9158 21.1427
355 1 6.91409 22.9425 18.2084
356 1 9.68754 22.8892 18.2427
357 1 9.93037 22.9355 21.0204
358 1 7.02487 22.8825 21.0283
359 1 12.6309 22.9706 18.2048
360 1 12.6121 22.8712 20.9923
361 1 1.09531 0.411654 23.7362
362 1 3.94731 0.273268 23.5988
363 1 4.0447 0.306499 26.4553
364 1 1.34426 0.430035 26.6248
365 1 1.28672 3.23605 23.8548
366 1 4.04348 3.20431 23.9703
367 1 4.2062 3.20175 26.6712
368 1 1.22131 3.24123 26.6416
369 1 7.07819 3.22943 20.98
370 1 9.76962 0.381411 23.6676
371 1 9.81539 0.289302 26.5644
372 1 6.9127 3.07616 23.7828
373 1 6.88678 5.91024 20.9528
374 1 9.74513 3.36176 23.7452
375 1 9.69514 3.12597 26.5876
376 1 6.94664 3.29831 26.6937
377 1 12.4897 0.21927 23.8364
378 1 12.5871 0.431801 26.6707
379 1 12.5319 3.03912 23.7815
380 1 12.4345 3.12594 26.5834
381 1 1.02652 5.99157 23.8378
382 1 4.05637 5.94842 23.8358
383 1 3.89112 5.8911 26.6437
384 1 1.15058 6.05777 26.6443
385 1 1.28809 8.70701 23.7469
386 1 4.18497 8.65984 23.6936
387 1 3.97592 8.74266 26.6358
388 1 1.17164 8.84262 26.5315
389 1 6.91537 5.87317 23.8279
390 1 9.74399 6.24 23.8138
391 1 9.61159 5.86715 26.6881
392 1 6.68867 5.97868 26.592
393 1 6.84709 8.93184 23.8258
394 1 9.75631 8.90976 23.8626
395 1 9.73786 8.84224 26.4637
396 1 6.89938 8.83851 26.5172
397 1 12.506 5.9006 23.879
398 1 12.5989 5.91627 26.5952
399 1 12.43 8.78285 23.825
400 1 12.5168 8.73466 26.6914
401 1 1.22947 11.6029 23.8129
402 1 4.05889 11.5216 23.8431
403 1 4.11704 11.6694 26.5596
404 1 1.23207 11.4604 26.5898
405 1 1.23762 14.3255 23.7516
406 1 4.09032 14.4289 23.7677
407 1 3.95517 14.5195 26.6703
408 1 1.2262 14.3891 26.585
409 1 7.09625 11.6421 23.7693
410 1 9.72883 11.851 23.916
411 1 9.6978 11.7535 26.8088
412 1 6.89091 11.7831 26.8673
413 1 6.84695 14.5038 23.7515
414 1 9.67418 14.659 23.7164
415 1 9.63893 14.5004 26.4718
416 1 6.79664 14.6365 26.4795
417 1 12.6809 11.6973 23.9385
418 1 12.6968 11.5626 26.8518
419 1 12.5924 14.4465 23.7168
420 1 12.4558 14.4076 26.6062
421 1 1.23773 17.0661 23.7962
422 1 4.03495 17.3367 23.9871
423 1 3.93433 17.1955 26.7737
424 1 1.07784 17.1729 26.5727
425 1 1.29676 19.9709 23.8363
426 1 4.04835 20.1255 23.86
427 1 4.05996 20.1428 26.5999
428 1 1.31384 20.0663 26.8007
429 1 6.8202 17.268 23.9212
430 1 9.79235 17.355 23.8664
431 1 9.70297 17.2447 26.6782
432 1 6.92284 17.2781 26.7222
433 1 6.90432 20.0085 23.5735
434 1 9.70412 19.9798 23.7765
435 1 9.73221 20.157 26.6549
436 1 6.82407 19.996 26.5382
437 1 12.7153 17.2869 23.9272
438 1 12.5776 17.1911 26.7665
439 1 12.508 20.1915 23.9006
440 1 12.5989 19.957 26.5763
441 1 1.22756 22.83 23.8805
442 1 4.21769 23.0268 23.7927
443 1 4.16326 22.8345 26.6629
444 1 1.24096 22.8511 26.6294
445 1 7.01213 22.9246 23.8459
446 1 9.75522 22.6887 23.8124
447 1 9.73386 22.9217 26.6297
448 1 7.01372 22.754 26.6596
449 1 12.646 22.8982 23.8864
450 1 12.5003 22.7891 26.6886
12155 2 5.36757 -0.966332 16.8189
12250 2 11.1141 24.2054 25.1756
12194 2 -0.0393184 24.2441 19.8049
12129 2 5.4301 1.70859 13.9173
12149 2 5.5704 24.3468 14.0547
12203 2 2.5957 -0.989242 25.0634
12249 2 11.1514 21.486 22.4639
12244 2 -0.0982103 24.2307 25.2292
12184 2 -0.0905877 18.625 19.657
12223 2 2.60014 10.1609 25.0985
12222 2 2.73313 13.0042 22.4071
12248 2 5.62408 24.2473 25.318
12236 2 8.36393 18.7619 22.2995
5993 1 6.7315 0.332796 23.6862
12220 2 11.2257 7.33099 25.2638
15202 2 13.8231 -0.939794 25.2352
12144 2 5.55201 18.5841 14.0229
12150 2 11.2456 24.3189 13.919
12134 2 5.45376 7.36538 13.989
12209 2 11.145 -1.13014 22.4003
12145 2 11.1514 18.7649 13.9999
12138 2 8.24953 10.3891 14.1847
15152 2 13.9317 -1.08101 19.6382
15221 2 14.0603 12.9428 22.4541
15146 2 13.9523 21.4606 13.9884
12247 2 8.31131 21.3872 25.2386
12152 2 2.73626 1.82296 16.7833
12219 2 11.1562 4.66589 22.3775
12246 2 8.38565 24.2321 22.384
5996 1 6.9951 0.358269 26.6015
12156 2 8.37116 1.76489 16.7761
12225 2 5.49929 10.2388 22.3636
12158 2 5.66927 1.81019 19.5964
12232 2 2.70036 18.6751 22.4851
12160 2 11.1541 1.74652 19.6271
12245 2 5.55174 21.4632 22.5187
12162 2 2.64421 7.57922 16.7612
12163 2 2.68718 4.60272 19.6119
5906 1 6.78645 0.360588 20.9335
12165 2 5.59042 4.64288 16.6818
12166 2 8.41134 7.68887 16.7784
12167 2 8.36812 4.67735 19.5983
12168 2 5.54546 7.35265 19.5892
12169 2 11.1215 4.78608 16.9088
12170 2 11.1143 7.42668 19.6632
12243 2 2.74676 21.4172 25.2869
12172 2 2.72736 13.0046 16.7975
12173 2 2.7589 10.1725 19.6084
12242 2 2.58695 24.3255 22.5607
12175 2 5.68793 10.1846 16.8305
12176 2 8.30793 12.8748 16.7122
12177 2 8.39625 10.2812 19.6015
12178 2 5.49248 13.0262 19.5929
12179 2 11.1041 10.2759 16.8115
12180 2 11.1847 13.0295 19.6881
12227 2 8.31393 10.092 25.1712
12182 2 2.75644 18.6822 16.8409
12183 2 2.69221 15.9284 19.6938
5903 1 6.91415 0.480586 18.3063
12185 2 5.51142 15.8059 16.8644
12186 2 8.40325 18.6541 17.0019
12187 2 8.30034 15.7882 19.6032
12188 2 5.54335 18.856 19.6556
12189 2 11.1025 15.8381 16.7241
12190 2 11.2538 18.6304 19.5952
12226 2 8.38222 13.0332 22.3791
12192 2 2.6256 24.3003 16.7685
12193 2 2.72533 21.5013 19.6493
12228 2 5.50104 12.9744 25.2893
12195 2 5.54741 21.4326 16.8516
12196 2 8.37376 24.3558 16.7833
12197 2 8.42032 21.5702 19.5131
12198 2 5.47482 24.2912 19.6552
12199 2 11.2238 21.5991 16.8072
12200 2 11.2328 24.2866 19.6247
12240 2 11.0959 18.6249 25.2818
12202 2 2.69791 1.70507 22.3844
12230 2 11.1818 13.0313 25.2542
12239 2 11.2039 15.8866 22.4855
12229 2 11.1006 10.2498 22.464
12206 2 8.3026 1.78763 22.3795
12233 2 2.6319 15.7223 25.141
12208 2 5.5453 1.75269 25.2025
12235 2 5.57366 15.8573 22.3741
12210 2 11.113 1.73019 25.1604
12238 2 5.48385 18.5429 25.3081
12212 2 2.60616 7.21553 22.4924
12213 2 2.60154 4.58882 25.2797
12237 2 8.3343 15.9033 25.325
12215 2 5.46679 4.52347 22.4217
12216 2 8.3438 7.50344 22.4164
12217 2 8.33785 4.55307 25.1056
12218 2 5.4284 7.39541 25.2656
12146 2 2.74264 21.458 13.9605
12136 2 2.67844 10.2635 13.8527
12133 2 8.35893 4.69419 14.0799
12159 2 11.14 -1.00837 16.856
15172 2 14.0542 10.0266 19.5762
12148 2 8.28056 21.5996 13.9608
12205 2 5.53824 -1.01465 22.404
12234 2 -0.229734 18.4521 25.2178
12191 2 -0.000439737 21.3739 16.7363
12128 2 8.32887 -1.04999 14.0888
12157 2 8.27661 -1.01723 19.6203
12140 2 11.1693 13.1373 13.9889
15201 2 13.9553 1.82307 22.4249
15232 2 14.0018 15.7902 25.1907
12135 2 11.1915 7.42854 14.0505
12207 2 8.35696 -0.988359 25.2011
12181 2 -0.0451494 15.7796 16.7867
12224 2 -0.150095 12.9548 25.1809
15241 2 14.0049 24.249 22.4473
12174 2 -0.18327 13.0319 19.644
15151 2 14.0344 1.89449 16.7827
12161 2 -0.203066 4.72736 16.7557
15242 2 13.9052 21.4753 25.2709
15141 2 13.9954 15.8454 14.1234
12142 2 -0.0469324 18.5576 13.9869
12012 2 2.63052 7.33378 27.9873
12015 2 5.44034 4.669 27.9799
451 1 1.25384 25.6888 1.30644
452 1 4.17001 25.6816 1.33919
453 1 4.144 25.6223 4.08748
454 1 1.2895 25.8184 4.15144
455 1 7.08206 25.515 1.38823
456 1 9.95987 25.7961 1.40308
457 1 9.72332 25.7232 4.29381
458 1 6.86562 25.6949 4.28364
459 1 12.5647 28.5204 1.36116
460 1 12.6238 25.7462 4.12938
461 1 1.32307 28.46 1.32115
462 1 4.10038 28.4467 1.42087
463 1 4.12101 28.3633 4.26356
464 1 1.28768 28.4594 4.07151
465 1 1.31801 34.047 1.17766
466 1 4.13171 31.3008 1.44999
467 1 4.14564 31.3431 4.40642
468 1 1.22219 31.4289 4.00185
469 1 6.96694 28.2662 1.31062
470 1 9.82208 28.5486 1.45506
471 1 9.69603 28.5692 4.3364
472 1 7.01591 28.5725 4.09417
473 1 7.02326 31.3105 1.10919
474 1 9.63529 31.3353 1.17962
475 1 9.80933 31.3582 4.03634
476 1 7.06115 31.2525 4.07783
477 1 12.6173 31.2763 1.38087
478 1 12.4722 28.5006 4.19068
15341 2 13.9581 29.8794 11.1031
480 1 12.6101 31.2969 4.16477
481 1 1.25736 37.0024 1.47754
482 1 4.23311 34.0898 1.20287
483 1 4.05547 33.992 4.10115
484 1 1.4585 34.0909 3.99231
485 2 0.0484459 38.3448 2.85111
486 1 4.04537 36.8622 1.16343
487 1 4.33986 36.8657 4.15339
488 1 1.35552 36.8956 4.19183
489 1 6.99398 33.9615 1.49737
490 1 9.73652 34.0722 1.47576
491 1 9.79899 34.1046 4.28702
492 1 6.95337 33.9994 4.27734
493 1 6.97726 36.8579 1.32657
494 1 9.75648 36.967 1.38906
495 1 9.90569 36.989 4.19092
496 1 7.02409 36.9288 4.07756
497 1 12.652 34.1433 1.3831
498 1 12.5868 34.1044 4.26306
499 1 12.556 37.0071 1.368
500 1 12.7979 37.0566 4.14359
501 1 1.28981 39.7326 1.52852
502 1 4.31878 39.8347 1.28679
503 1 4.29968 39.6507 4.0359
504 1 1.52731 39.5131 4.09472
505 1 1.37979 42.5197 1.34973
506 1 4.19691 42.5398 1.52757
507 1 4.26008 42.6284 4.21464
508 1 1.37441 42.5982 4.29338
509 1 7.1892 39.542 1.36283
510 1 9.98642 39.7789 1.23579
511 1 9.94914 39.709 4.09659
512 1 7.18397 39.707 4.1547
513 1 6.98442 42.4218 1.38355
514 1 9.88477 42.4693 1.46617
515 1 9.87435 42.3847 4.13706
516 1 7.03062 42.4271 4.22726
517 1 12.6904 39.7123 1.44573
518 1 12.7973 39.7558 4.21512
519 1 12.7082 42.5539 1.4483
520 1 12.7224 42.5731 4.2745
521 1 1.52182 45.2174 1.40303
522 1 4.3379 45.4237 1.34761
523 1 4.15031 45.257 4.28111
524 1 1.47774 45.3263 4.11709
525 1 1.49577 48.0342 1.23749
526 1 4.29739 48.246 1.35457
527 1 4.15922 48.055 4.28022
528 1 1.38297 48.1177 4.00075
529 1 7.17126 45.048 1.47093
530 1 9.85004 45.226 1.4181
531 1 9.79434 45.0659 4.27024
532 1 6.95995 45.3503 4.22723
533 1 6.94328 47.9136 1.4
534 1 9.8874 47.9403 1.2517
535 1 9.83943 47.8421 4.12943
536 1 7.11714 48.1922 4.08767
537 1 12.7226 45.2856 1.33446
538 1 12.6813 45.3607 4.13532
539 1 12.7309 48.1146 1.42441
540 1 12.4802 48.1664 4.1727
541 1 1.35499 25.6111 6.99713
542 1 4.03885 25.5948 7.0301
543 1 4.11885 25.5744 9.88239
544 1 1.3607 25.6862 9.75276
545 1 6.87227 25.8461 7.13129
546 1 9.83212 25.6784 6.99792
547 1 9.61945 25.7198 9.84866
548 1 6.92051 25.8099 9.88446
549 1 12.484 25.6822 6.92303
550 1 12.4096 25.676 9.80117
551 1 1.31288 28.2948 6.84426
552 1 4.05623 28.375 7.05407
553 1 4.25324 28.4746 9.78815
554 1 1.44069 28.4996 9.71107
555 1 1.4359 30.9905 6.85327
556 1 4.25033 31.2709 7.04265
557 1 4.18233 31.3361 9.81579
558 1 1.3328 31.202 9.74762
559 1 6.80643 28.5201 6.91343
560 1 9.60857 28.572 7.08063
561 1 9.7617 28.4376 9.86869
562 1 6.98824 28.5382 9.81519
563 1 7.01701 31.2658 7.02058
564 1 9.76824 31.3089 6.90367
565 1 9.84987 31.2221 9.62988
566 1 6.93525 31.3187 9.73117
567 1 12.3175 28.3451 7.10132
568 1 12.4233 28.6328 9.83374
569 1 12.4157 30.9254 6.95019
570 1 12.5662 31.3852 9.86351
571 1 1.41731 33.8605 6.83564
572 1 4.39175 34.1899 6.91077
573 1 4.19058 33.9725 9.71413
574 1 1.4256 34.0693 9.69558
575 1 1.39649 36.6635 7.03092
576 1 4.31674 37.0313 6.92128
577 1 4.28028 36.8851 9.68592
578 1 1.28486 36.8303 9.68193
579 1 7.17215 34.0621 7.09922
580 1 9.86964 34.1995 7.00456
581 1 9.97424 34.1747 9.72037
582 1 6.96609 34.1431 9.66283
583 1 7.05403 36.9302 6.85442
584 1 9.87968 36.8877 6.88637
585 1 9.80736 37.0933 9.67932
586 1 7.1073 36.9385 9.68426
587 1 12.5808 34.0713 7.04699
588 1 12.6268 34.2071 9.73712
589 1 12.8345 36.7838 7.03913
590 1 12.6282 37.0275 9.61303
591 1 1.3426 39.7759 6.80764
592 1 4.2499 39.7153 6.92502
593 1 4.15066 39.6723 9.66689
594 1 1.37316 39.7148 9.67436
595 1 1.50396 42.6309 7.11231
596 1 4.33189 42.5207 6.80703
597 1 4.13567 42.4414 9.76155
598 1 1.4312 42.5505 9.85271
599 1 7.04996 39.7492 6.99796
600 1 9.93534 39.6284 6.92157
601 1 9.90315 39.8445 9.76437
602 1 7.04583 39.7412 9.88921
603 1 7.19936 42.4836 7.04847
604 1 9.87458 42.3602 6.95072
605 1 9.75276 42.5911 9.80292
606 1 7.01654 42.4908 9.81868
607 1 12.6635 39.6978 7.11663
608 1 12.7265 39.7623 9.70712
609 1 12.6481 42.4981 7.00048
610 1 12.7448 42.6583 9.79739
611 1 1.54628 45.3579 6.98413
612 1 4.45994 45.291 7.06434
613 1 4.26624 45.361 9.88065
614 1 1.48289 45.2766 9.80975
615 1 1.39418 48.2291 6.91644
616 1 4.23622 48.0339 7.00721
617 1 4.17966 48.1598 9.88471
618 1 1.41589 48.0024 9.7027
619 1 7.20835 45.2585 7.0008
620 1 9.8487 45.2823 7.0677
621 1 9.68153 45.3983 9.9621
622 1 6.96508 45.2871 9.76437
623 1 6.95835 47.888 6.91646
624 1 9.76662 48.1789 7.07591
625 1 9.91039 48.0673 9.79504
626 1 6.97439 48.1507 9.70574
627 1 12.5681 45.2608 6.99767
628 1 12.4159 45.2795 9.76329
629 1 12.7336 48.0672 6.86582
630 1 12.6889 47.9994 9.72268
631 1 1.38045 25.5301 12.779
632 1 4.09086 25.5966 12.7179
633 1 6.92743 25.7146 12.6232
634 1 9.85085 25.7198 12.494
635 1 12.7002 25.6341 12.6235
636 1 1.34966 28.3458 12.6617
637 1 4.06586 28.4768 12.5815
638 1 1.40463 31.2134 12.5956
639 1 4.08729 31.1678 12.4883
640 1 6.93298 28.5029 12.6717
641 1 9.79819 28.4895 12.6808
642 1 6.95844 31.4825 12.6798
643 1 9.6709 31.2606 12.5505
644 1 12.6282 28.5169 12.494
645 1 12.6756 31.2067 12.6051
646 1 1.4275 34.0157 12.4068
647 1 4.16926 34.0622 12.5558
648 1 1.24682 36.9863 12.5129
649 1 3.98513 36.9723 12.4781
650 1 6.95703 34.2765 12.5058
651 1 9.71172 34.0712 12.4549
652 1 6.95277 37.1325 12.5438
653 1 9.7961 36.9967 12.578
654 1 12.4908 34.0491 12.5799
655 1 12.6188 36.8316 12.5248
656 1 1.43285 39.6815 12.6183
657 1 4.27755 39.807 12.5189
658 1 1.37857 42.4919 12.6185
659 1 4.16017 42.4634 12.5771
660 1 7.18639 39.6558 12.71
661 1 9.97753 39.7252 12.605
662 1 7.04824 42.5419 12.5734
663 1 9.80138 42.4337 12.6225
664 1 12.6275 39.6865 12.5271
665 1 12.6537 42.6125 12.7245
666 1 1.34214 45.4194 12.6407
667 1 3.99563 45.3814 12.6958
668 1 1.25428 48.0827 12.5187
669 1 4.0938 48.1021 12.5204
670 1 6.8094 45.3398 12.6267
671 1 9.78272 45.3046 12.7506
672 1 6.97825 48.1074 12.5371
673 1 9.68873 48.074 12.5387
674 1 12.5765 45.2791 12.5852
675 1 12.6086 48.1691 12.6766
12363 2 11.2463 49.4503 11.1502
12319 2 -0.00346963 41.2016 8.36552
12253 2 2.64264 27.0329 2.82296
12362 2 5.59931 49.5615 11.18
12295 2 11.2246 49.4692 -0.0674956
12326 2 -0.0184996 43.9058 5.59537
12257 2 8.43165 27.0753 2.87852
12258 2 5.46526 29.7504 2.95348
12291 2 0.0291533 49.3957 -0.0518338
12260 2 11.2617 29.8314 2.8301
12360 2 11.1416 43.9784 11.1862
12336 2 0.00319846 49.4517 5.44708
12263 2 2.73377 32.5448 2.90297
12359 2 8.24133 46.7327 11.2881
89 1 12.5253 25.706 1.29005
12266 2 8.45291 35.9542 -0.110503
12267 2 8.41272 32.88 3.19136
12268 2 5.50111 35.5027 2.71769
12345 2 11.1566 27.1276 11.1097
12270 2 11.3325 35.6939 2.9704
12358 2 5.55903 43.8691 11.244
12344 2 8.29037 29.8719 11.1654
12273 2 3.14394 38.2179 2.73354
12357 2 2.84238 46.6916 11.1928
12343 2 5.52034 27.0553 11.1836
12254 2 -0.267319 29.8981 2.82999
12277 2 8.58282 38.3674 2.79671
12278 2 5.6138 41.2699 2.86109
12279 2 11.4168 38.3305 -0.0201341
12280 2 11.3252 41.2194 2.76517
12355 2 11.2516 38.3061 11.0985
12341 2 -0.0408635 27.0857 11.2057
12283 2 2.94101 44.0779 2.86887
12354 2 8.4856 41.0773 11.2986
15296 2 13.9147 29.7688 5.55539
12356 2 0.0122695 44.0269 11.2119
12287 2 8.48836 43.8861 2.88773
12288 2 5.69716 46.7548 2.79318
12262 2 2.76437 35.2985 -0.103428
12290 2 11.2516 46.6449 2.69625
12353 2 5.53728 38.4136 11.2246
12292 2 2.79693 49.3525 2.70704
12340 2 11.2375 49.4474 5.65428
12294 2 8.53035 49.48 2.72287
12351 2 -0.0518118 38.2696 11.1471
6478 1 1.38388 31.2151 1.29483
12297 2 2.76039 29.7007 5.56498
12298 2 2.7203 26.9821 8.41618
12342 2 2.92443 29.8048 11.1377
12300 2 5.46116 26.8519 5.6838
12301 2 8.3082 29.8166 5.78842
12302 2 8.3288 27.0771 8.40279
12303 2 5.55955 29.8594 8.38437
12304 2 11.0822 27.1329 5.68109
12305 2 11.0846 29.8769 8.41296
12352 2 2.70917 41.1046 11.2426
12307 2 2.98445 35.418 5.65487
12308 2 2.72559 32.5143 8.28747
12284 2 -0.0478801 46.6018 2.67144