LAMMPS (29 Oct 2020)
OMP_NUM_THREADS environment is not set. Defaulting to 1 thread. (../comm.cpp:94)
  using 1 OpenMP thread(s) per MPI task
OMP_NUM_THREADS environment is not set. Defaulting to 1 thread. (../comm.cpp:94)
  using 1 OpenMP thread(s) per MPI task
Reading data file ...
  orthogonal box = (-0.48646978 -6.0274787 -0.49010547) to (27.826470 334.10748 27.830105)
  2 by 13 by 2 MPI processor grid
  reading atoms ...
  17640 atoms
  reading velocities ...
  17640 velocities
Finding 1-2 1-3 1-4 neighbors ...
  special bond factors lj:    0.0      0.0      0.0     
  special bond factors coul:  0.0      0.0      0.0     
     0 = max # of 1-2 neighbors
     0 = max # of 1-3 neighbors
     0 = max # of 1-4 neighbors
     1 = max # of special neighbors
  special bonds CPU = 0.004 seconds
  read_data CPU = 0.062 seconds
Setting atom values ...
  11760 settings made for charge
Setting atom values ...
  5880 settings made for charge
PPPM initialization ...
  using 12-bit tables for long-range coulomb (../kspace.cpp:328)
  G vector (1/distance) = 0.29827915
  grid = 40 240 40
  stencil order = 5
  estimated absolute RMS force accuracy = 0.00016060426
  estimated relative force accuracy = 1.1153348e-05
  using single precision MKL FFT
  3d grid and FFT values/proc = 15000 7600
Neighbor list info ...
  update every 1 steps, delay 0 steps, check yes
  max neighbors/atom: 2000, page size: 100000
  master list distance cutoff = 11.3
  ghost atom cutoff = 11.3
  binsize = 5.65, bins = 6 61 6
  2 neighbor lists, perpetual/occasional/extra = 2 0 0
  (1) pair coul/long, perpetual
      attributes: half, newton on
      pair build: half/bin/newton
      stencil: half/bin/3d/newton
      bin: standard
  (2) pair eam/alloy, perpetual, copy from (1)
      attributes: half, newton on
      pair build: copy
      stencil: none
      bin: none
Setting up Verlet run ...
  Unit style    : metal
  Current step  : 0
  Time step     : 0.001
Per MPI rank memory allocation (min/avg/max) = 8.138 | 8.163 | 8.177 Mbytes
Step Temp E_pair E_mol TotEng Press 
       0         1500   -227978.53            0    -224558.5   -522.68475 
   50000    1511.1423   -227982.31            0   -224536.87   -372.20141 
Loop time of 339.512 on 52 procs for 50000 steps with 17640 atoms

Performance: 12.724 ns/day, 1.886 hours/ns, 147.270 timesteps/s
99.8% CPU use with 52 MPI tasks x 1 OpenMP threads

MPI task timing breakdown:
Section |  min time  |  avg time  |  max time  |%varavg| %total
---------------------------------------------------------------
Pair    | 216.06     | 226.33     | 233.39     |  26.0 | 66.66
Bond    | 0.0031994  | 0.0051232  | 0.0087481  |   1.5 |  0.00
Kspace  | 69.044     | 78.189     | 89.832     |  53.0 | 23.03
Neigh   | 20.465     | 22.676     | 24.7       |  20.4 |  6.68
Comm    | 9.1444     | 9.9248     | 10.728     |  12.3 |  2.92
Output  | 5.3147e-05 | 5.9924e-05 | 0.0003041  |   0.0 |  0.00
Modify  | 1.1138     | 1.6089     | 2.6001     |  37.4 |  0.47
Other   |            | 0.7766     |            |       |  0.23

Nlocal:        339.231 ave         364 max         306 min
Histogram: 2 0 6 6 5 9 7 6 7 4
Nghost:        3902.23 ave        4057 max        3759 min
Histogram: 2 2 6 8 14 9 3 1 5 2
Neighs:        66913.1 ave       74291 max       57120 min
Histogram: 2 1 4 5 8 6 11 8 2 5

Total # of neighbors = 3479480
Ave neighs/atom = 197.24943
Ave special neighs/atom = 0.0000000
Neighbor list builds = 12489
Dangerous builds = 0
11760 atoms in group oxygen
PPPM initialization ...
  using 12-bit tables for long-range coulomb (../kspace.cpp:328)
  G vector (1/distance) = 0.29827915
  grid = 40 240 40
  stencil order = 5
  estimated absolute RMS force accuracy = 0.00016060426
  estimated relative force accuracy = 1.1153348e-05
  using single precision MKL FFT
  3d grid and FFT values/proc = 15000 7600
Setting up Verlet run ...
  Unit style    : metal
  Current step  : 0
  Time step     : 0.001
Per MPI rank memory allocation (min/avg/max) = 8.390 | 8.414 | 8.428 Mbytes
Step f_2 Temp v_Tdiff v_deltaT 
       0            0    1511.1423            0            0 
  100000    1573.4893    1509.4899  0.069530501    807.24266 
  200000    3037.0918    1517.0123  0.084971638    986.51282 
  300000    4489.6365     1507.399   0.08567964    994.73266 
  400000    5950.9765    1504.2849  0.084325334    979.00929 
  500000    7412.9046     1505.895  0.085895733    997.24149 
  600000    8858.1021    1515.7995  0.086438983    1003.5486 
  700000    10306.242    1503.0672  0.088032013    1022.0435 
  800000    11765.205    1497.1177  0.085812695    996.27741 
  900000     13217.12    1508.0343  0.086858861    1008.4233 
 1000000    14677.122    1507.9586   0.08504046    987.31184 
Loop time of 6715.77 on 52 procs for 1000000 steps with 17640 atoms

Performance: 12.865 ns/day, 1.865 hours/ns, 148.903 timesteps/s
99.8% CPU use with 52 MPI tasks x 1 OpenMP threads

MPI task timing breakdown:
Section |  min time  |  avg time  |  max time  |%varavg| %total
---------------------------------------------------------------
Pair    | 4274.3     | 4459.6     | 4635.4     | 118.2 | 66.41
Bond    | 0.068791   | 0.10407    | 0.18359    |   6.6 |  0.00
Kspace  | 1372       | 1557.6     | 1770.2     | 219.5 | 23.19
Neigh   | 423.6      | 459.26     | 491.97     |  71.8 |  6.84
Comm    | 181.87     | 199.16     | 225.28     |  70.1 |  2.97
Output  | 0.001082   | 0.001148   | 0.0023508  |   0.5 |  0.00
Modify  | 5.3916     | 5.9397     | 6.5579     |  13.0 |  0.09
Other   |            | 34.03      |            |       |  0.51

Nlocal:        339.231 ave         360 max         317 min
Histogram: 3 3 1 7 6 14 9 3 4 2
Nghost:        3901.25 ave        4029 max        3778 min
Histogram: 2 1 7 11 5 10 8 3 3 2
Neighs:        66892.3 ave       73840 max       59827 min
Histogram: 4 2 3 9 5 12 6 5 4 2

Total # of neighbors = 3478398
Ave neighs/atom = 197.18810
Ave special neighs/atom = 0.0000000
Neighbor list builds = 253619
Dangerous builds = 0
Total wall time: 1:57:35
