LAMMPS (29 Oct 2020)
OMP_NUM_THREADS environment is not set. Defaulting to 1 thread. (../comm.cpp:94)
  using 1 OpenMP thread(s) per MPI task
OMP_NUM_THREADS environment is not set. Defaulting to 1 thread. (../comm.cpp:94)
  using 1 OpenMP thread(s) per MPI task
Reading data file ...
  orthogonal box = (-0.36422507 -4.3335210 -0.35634085) to (27.704225 332.41352 27.696341)
  2 by 26 by 2 MPI processor grid
  reading atoms ...
  17820 atoms
  reading velocities ...
  17820 velocities
Finding 1-2 1-3 1-4 neighbors ...
  special bond factors lj:    0.0      0.0      0.0     
  special bond factors coul:  0.0      0.0      0.0     
     0 = max # of 1-2 neighbors
     0 = max # of 1-3 neighbors
     0 = max # of 1-4 neighbors
     1 = max # of special neighbors
  special bonds CPU = 0.383 seconds
  read_data CPU = 0.456 seconds
Setting atom values ...
  11880 settings made for charge
Setting atom values ...
  5940 settings made for charge
PPPM initialization ...
  using 12-bit tables for long-range coulomb (../kspace.cpp:328)
  G vector (1/distance) = 0.29882489
  grid = 40 240 40
  stencil order = 5
  estimated absolute RMS force accuracy = 0.0001569644
  estimated relative force accuracy = 1.0900574e-05
  using single precision MKL FFT
  3d grid and FFT values/proc = 9375 4000
Neighbor list info ...
  update every 1 steps, delay 0 steps, check yes
  max neighbors/atom: 2000, page size: 100000
  master list distance cutoff = 11.3
  ghost atom cutoff = 11.3
  binsize = 5.65, bins = 5 60 5
  2 neighbor lists, perpetual/occasional/extra = 2 0 0
  (1) pair coul/long, perpetual
      attributes: half, newton on
      pair build: half/bin/newton
      stencil: half/bin/3d/newton
      bin: standard
  (2) pair eam/alloy, perpetual, copy from (1)
      attributes: half, newton on
      pair build: copy
      stencil: none
      bin: none
Setting up Verlet run ...
  Unit style    : metal
  Current step  : 0
  Time step     : 0.001
Per MPI rank memory allocation (min/avg/max) = 7.707 | 7.735 | 7.764 Mbytes
Step Temp E_pair E_mol TotEng Press 
       0          600   -232808.63            0   -231426.66    146.82458 
  100000    603.07534   -232811.69            0   -231422.64    43.597084 
Loop time of 728.66 on 104 procs for 100000 steps with 17820 atoms

Performance: 11.857 ns/day, 2.024 hours/ns, 137.238 timesteps/s
99.8% CPU use with 104 MPI tasks x 1 OpenMP threads

MPI task timing breakdown:
Section |  min time  |  avg time  |  max time  |%varavg| %total
---------------------------------------------------------------
Pair    | 234.83     | 244.98     | 256.4      |  31.2 | 33.62
Bond    | 0.0058348  | 0.0083099  | 0.014971   |   1.6 |  0.00
Kspace  | 412.38     | 428.18     | 443.84     |  29.7 | 58.76
Neigh   | 15.383     | 17.493     | 19.449     |  21.5 |  2.40
Comm    | 25.244     | 30.95      | 35.285     |  42.8 |  4.25
Output  | 6.384e-05  | 6.6944e-05 | 0.00027731 |   0.0 |  0.00
Modify  | 2.7669     | 5.68       | 9.73       |  71.7 |  0.78
Other   |            | 1.371      |            |       |  0.19

Nlocal:        171.346 ave         191 max         152 min
Histogram: 5 9 15 10 9 17 19 9 7 4
Nghost:        3101.19 ave        3204 max        2992 min
Histogram: 5 10 8 8 15 24 10 8 11 5
Neighs:        34301.3 ave       38426 max       30032 min
Histogram: 5 7 10 12 12 16 19 14 4 5

Total # of neighbors = 3567333
Ave neighs/atom = 200.18704
Ave special neighs/atom = 0.0000000
Neighbor list builds = 16216
Dangerous builds = 0
11880 atoms in group oxygen
PPPM initialization ...
  using 12-bit tables for long-range coulomb (../kspace.cpp:328)
  G vector (1/distance) = 0.29882489
  grid = 40 240 40
  stencil order = 5
  estimated absolute RMS force accuracy = 0.0001569644
  estimated relative force accuracy = 1.0900574e-05
  using single precision MKL FFT
  3d grid and FFT values/proc = 9375 4000
Setting up Verlet run ...
  Unit style    : metal
  Current step  : 0
  Time step     : 0.001
Per MPI rank memory allocation (min/avg/max) = 7.962 | 7.987 | 8.016 Mbytes
Step f_2 Temp v_Tdiff v_deltaT 
       0            0    603.07534            0            0 
  100000    200.81504    592.23799 0.0053402536    61.999849 
  200000     400.0876    601.11837 0.0062697181    72.790845 
  300000    600.17352    606.18644 0.0059478267    69.053716 
  400000    796.94859     601.6165 0.0059557206    69.145363 
  500000     993.4711    599.31663 0.0061958381    71.933105 
  600000    1192.5515    610.03646 0.0056182666    65.227553 
  700000    1388.4648    599.08753 0.0062308108    72.339134 
  800000    1585.3055    606.41464 0.0064379261    74.743724 
  900000    1784.0531    599.76447 0.0067167105    77.980385 
 1000000    1984.3169    597.96372 0.0061712957     71.64817 
 1100000    2182.6046    599.35061 0.0057873855    67.191008 
 1200000    2379.3518    603.65894 0.0064258026    74.602972 
Loop time of 8789.49 on 104 procs for 1200000 steps with 17820 atoms

Performance: 11.796 ns/day, 2.035 hours/ns, 136.527 timesteps/s
99.8% CPU use with 104 MPI tasks x 1 OpenMP threads

MPI task timing breakdown:
Section |  min time  |  avg time  |  max time  |%varavg| %total
---------------------------------------------------------------
Pair    | 2809.2     | 2917.9     | 3054.4     | 106.2 | 33.20
Bond    | 0.067137   | 0.099311   | 0.17112    |   5.2 |  0.00
Kspace  | 4986.4     | 5189.2     | 5371.7     |  99.9 | 59.04
Neigh   | 188.76     | 216.15     | 241.48     |  78.4 |  2.46
Comm    | 310.48     | 379.98     | 439.72     | 153.8 |  4.32
Output  | 0.0014255  | 0.0014992  | 0.0029228  |   0.4 |  0.00
Modify  | 13.544     | 15.158     | 20.014     |  25.2 |  0.17
Other   |            | 71         |            |       |  0.81

Nlocal:        171.346 ave         189 max         149 min
Histogram: 3 5 9 17 7 7 21 13 13 9
Nghost:        3094.30 ave        3193 max        2995 min
Histogram: 5 7 11 22 14 12 4 7 13 9
Neighs:        34304.9 ave       38357 max       29487 min
Histogram: 3 5 8 11 16 13 23 13 4 8

Total # of neighbors = 3567710
Ave neighs/atom = 200.20819
Ave special neighs/atom = 0.0000000
Neighbor list builds = 195503
Dangerous builds = 0
Total wall time: 2:38:40
