ITEM: TIMESTEP
40000
ITEM: NUMBER OF ATOMS
17730
ITEM: BOX BOUNDS pp pp pp
-3.6474376664060665e-01 2.7704743766640473e+01
-4.2249560344929993e+00 3.3230495603448924e+02
-3.5632062328199327e-01 2.7696320623281764e+01
ITEM: ATOMS id type q x y z
1 2 2.2208 5.16376 1.43774 5.27558
2 1 -1.1104 0.972597 -2.83974 0.92836
3 1 -1.1104 0.997262 2.8498 0.933412
6 1 -1.1104 0.904158 -2.7646 3.70304
7 1 -1.1104 0.86194 2.84675 3.75983
10 1 -1.1104 0.917996 -0.00174074 1.07899
12 2 2.2208 5.19155 -1.09682 2.51537
13 2 2.2208 5.19079 4.19298 2.5642
14 1 -1.1104 0.850367 0.0143741 3.84906
16 1 -1.1104 3.79933 -2.58531 1.04444
17 1 -1.1104 3.69904 2.87964 1.13417
18 2 2.2208 2.3226 1.57948 2.40557
19 1 -1.1104 3.81871 -2.56352 3.71386
20 1 -1.1104 3.84537 2.90317 3.87505
21 2 2.2208 2.29714 -1.30662 5.1581
22 2 2.2208 2.50792 4.26207 5.23852
23 1 -1.1104 3.67613 0.16149 0.85833
24 1 -1.1104 3.65756 0.0862831 3.81015
9 1 -1.1104 6.66909 2.7927 3.66543
5 1 -1.1104 6.67144 2.73874 0.940946
8 1 -1.1104 6.64766 -2.55316 3.94829
11 1 -1.1104 6.59932 -0.0234314 1.11357
4 1 -1.1104 6.5012 -2.77539 1.12224
15 1 -1.1104 6.49732 0.227703 3.91072
174 1 -1.1104 3.80263 0.165783 6.53977
166 1 -1.1104 0.848578 -2.79573 6.49315
171 1 -1.1104 6.63264 -0.0545485 6.6452
169 1 -1.1104 6.63778 2.83737 6.6363
373 2 2.2208 10.9133 15.4209 13.6117
348 2 2.2208 5.12135 -1.37245 13.6125
31 2 2.2208 10.8007 1.43905 5.38909
32 1 -1.1104 12.2091 -2.93281 0.957821
33 1 -1.1104 12.2203 2.92308 0.98699
34 1 -1.1104 12.2269 -2.83571 3.84976
35 1 -1.1104 12.4547 2.83501 3.78126
36 1 -1.1104 12.2092 -0.128086 0.945472
37 2 2.2208 10.8395 -1.50959 2.45157
38 2 2.2208 10.8574 4.35037 2.28742
39 1 -1.1104 12.1092 -0.0316229 3.83438
40 1 -1.1104 9.49752 -2.79527 0.967289
41 1 -1.1104 9.33405 2.92971 0.996978
42 2 2.2208 8.07672 1.42896 2.32237
43 1 -1.1104 9.29459 -2.84452 3.82443
44 1 -1.1104 9.42593 2.78428 3.87611
45 2 2.2208 8.14607 -1.35325 5.20381
46 2 2.2208 8.21098 4.24184 5.19616
47 1 -1.1104 9.40844 0.134857 0.95604
48 1 -1.1104 9.39509 0.035603 3.90414
204 2 2.2208 -0.368592 -4.19374 10.7426
344 2 2.2208 -0.185863 7.02941 10.9451
207 1 -1.1104 12.1882 0.0571011 6.63497
209 1 -1.1104 9.35157 2.80659 6.53225
206 1 -1.1104 12.294 2.78198 6.6652
28 2 2.2208 2.24782 -4.27011 2.42401
54 2 2.2208 5.32352 7.00648 5.14902
55 2 2.2208 5.34962 12.6438 5.31782
56 1 -1.1104 1.12206 8.46767 1.09326
58 1 -1.1104 1.11731 8.50759 3.90719
60 1 -1.1104 1.11575 5.62034 1.00504
61 1 -1.1104 1.06909 11.2958 0.961116
66 2 2.2208 5.4157 9.90332 2.34328
67 1 -1.1104 1.0247 5.66429 3.76302
68 1 -1.1104 1.15054 11.2642 3.78146
71 1 -1.1104 3.95828 8.51832 0.894794
72 2 2.2208 2.59794 7.10764 2.42236
73 2 2.2208 2.42028 12.81 2.49921
74 1 -1.1104 4.13563 8.39936 3.72846
75 2 2.2208 2.51195 9.69019 5.30821
76 1 -1.1104 4.02529 5.67429 1.04995
77 1 -1.1104 3.84769 11.3811 0.948216
79 1 -1.1104 3.83185 5.66427 3.8614
80 1 -1.1104 3.9387 11.1934 3.77895
69 1 -1.1104 6.77516 5.48844 3.75187
63 1 -1.1104 6.69977 5.60741 1.08227
59 1 -1.1104 6.79186 8.39276 3.77479
57 1 -1.1104 6.65012 8.47462 1.04883
64 1 -1.1104 6.54674 11.2522 1.01129
70 1 -1.1104 6.75611 11.2542 3.82303
234 1 -1.1104 1.10355 8.37945 6.62182
78 1 -1.1104 3.91523 11.2188 6.67053
236 1 -1.1104 1.07727 5.45324 6.56248
239 1 -1.1104 4.00166 5.56924 6.51888
238 1 -1.1104 3.93876 8.40842 6.48826
62 1 -1.1104 1.07839 11.2948 6.67519
235 1 -1.1104 6.81042 8.381 6.568
52 2 2.2208 10.8697 -4.24279 5.19278
65 1 -1.1104 6.70774 11.3662 6.52367
84 2 2.2208 11.0346 7.16211 5.15211
85 2 2.2208 10.8027 12.6901 5.32276
86 1 -1.1104 12.2481 8.45431 0.943073
87 1 -1.1104 12.2288 8.59768 3.8293
88 1 -1.1104 12.0713 5.72036 0.770487
89 1 -1.1104 12.1084 11.3429 0.964902
91 2 2.2208 10.6444 9.82122 2.38981
92 1 -1.1104 12.1483 5.73815 3.71242
93 1 -1.1104 12.1977 11.4155 3.80148
94 1 -1.1104 9.51082 8.42886 1.01894
95 2 2.2208 8.04506 6.82201 2.47229
96 2 2.2208 8.16521 12.7006 2.48273
97 1 -1.1104 9.56418 8.36357 3.86723
98 2 2.2208 8.12529 9.70608 5.26119
99 1 -1.1104 9.44124 5.66683 0.796919
100 1 -1.1104 9.34695 11.3078 0.889017
102 1 -1.1104 9.50607 5.61895 3.65429
103 1 -1.1104 9.3484 11.2592 3.72413
356 2 2.2208 10.7348 -1.36747 13.6617
330 1 -1.1104 12.3167 14.0419 12.1164
335 2 2.2208 13.7083 9.98196 5.24936
101 1 -1.1104 9.48095 11.2638 6.57228
90 1 -1.1104 12.1706 11.3172 6.71122
269 1 -1.1104 9.50094 5.49701 6.68016
267 1 -1.1104 9.44312 8.4345 6.82448
265 1 -1.1104 12.2488 8.39975 6.64367
106 2 2.2208 5.25196 18.3256 5.28805
107 1 -1.1104 1.11446 14.1342 1.06929
109 1 -1.1104 0.99623 19.7801 1.07686
113 1 -1.1104 1.11177 14.1833 3.75393
114 1 -1.1104 1.01632 19.7134 3.86849
116 1 -1.1104 1.03449 16.913 1.0422
119 2 2.2208 5.26217 15.4533 2.4548
120 2 2.2208 5.20011 21.0902 2.42606
121 1 -1.1104 1.08966 17.0187 3.79429
123 1 -1.1104 3.89595 14.2008 0.924331
125 1 -1.1104 3.72207 19.6993 0.899869
127 2 2.2208 2.43225 18.254 2.32526
128 1 -1.1104 3.79866 14.0619 3.97555
129 1 -1.1104 3.7428 19.6798 3.78356
130 2 2.2208 2.47668 15.6112 5.20253
131 2 2.2208 2.37835 21.1689 5.13343
132 1 -1.1104 3.79935 16.9255 0.877389
134 1 -1.1104 3.93345 17.0072 3.81066
140 1 -1.1104 6.63536 16.9531 1.19489
115 1 -1.1104 6.65159 14.1349 3.83539
138 1 -1.1104 6.42262 19.6756 1.10995
133 1 -1.1104 3.84888 17.054 6.77917
110 1 -1.1104 6.75876 14.0501 1.15526
108 1 -1.1104 1.05615 14.0451 6.5986
124 1 -1.1104 3.77792 14.1843 6.70452
118 1 -1.1104 6.75164 16.8338 6.60341
126 1 -1.1104 3.8814 19.8823 6.63625
302 1 -1.1104 0.96695 19.8905 6.64517
111 1 -1.1104 6.6183 14.1089 6.49559
117 1 -1.1104 1.1384 16.7897 6.57119
29 2 2.2208 5.3194 -4.01609 5.1732
122 1 -1.1104 6.6578 16.8605 3.93534
139 1 -1.1104 6.77372 19.6635 3.89369
112 1 -1.1104 6.7801 19.7716 6.54595
141 2 2.2208 10.8343 18.365 5.25747
142 1 -1.1104 12.2925 14.0988 1.0864
144 1 -1.1104 12.1918 19.6889 1.03054
146 1 -1.1104 12.322 14.1573 3.76164
147 1 -1.1104 12.2996 19.9619 3.71023
148 1 -1.1104 12.2596 16.9165 1.20375
150 2 2.2208 10.8588 15.4965 2.54283
151 2 2.2208 10.7327 21.0541 2.35168
152 1 -1.1104 12.2176 17.0137 3.82972
153 1 -1.1104 9.49807 14.1373 1.1397
155 1 -1.1104 9.31117 19.7212 1.11855
157 2 2.2208 8.07423 18.3021 2.53438
158 1 -1.1104 9.50795 14.1232 3.88308
159 1 -1.1104 9.47841 19.6933 4.04131
160 2 2.2208 8.00067 15.4861 5.12305
161 2 2.2208 7.98813 21.0953 5.24088
162 1 -1.1104 9.40302 16.8582 1.16186
164 1 -1.1104 9.56239 16.9267 3.9554
337 2 2.2208 13.7006 15.5693 5.12344
143 1 -1.1104 12.3481 14.1546 6.44742
156 1 -1.1104 9.57581 19.872 6.73775
145 1 -1.1104 12.4507 19.6841 6.51177
154 1 -1.1104 9.46009 14.1621 6.64537
163 1 -1.1104 9.55213 16.9658 6.62213
168 1 -1.1104 6.38943 -2.90039 6.68755
173 1 -1.1104 3.81233 2.88311 6.71596
167 1 -1.1104 1.07833 2.7502 6.51224
170 1 -1.1104 0.940421 0.0278263 6.6243
172 1 -1.1104 3.69297 -2.63973 6.48155
175 2 2.2208 5.34001 1.42876 10.8226
176 1 -1.1104 1.10002 -2.72792 12.2062
177 1 -1.1104 1.17653 2.81371 12.1079
180 1 -1.1104 0.852902 -2.78639 9.25262
181 1 -1.1104 0.861759 2.65514 9.31001
184 1 -1.1104 0.890701 -0.00678019 12.124
186 2 2.2208 5.10264 -1.31634 7.96043
188 1 -1.1104 0.860002 -0.0628005 9.38037
190 1 -1.1104 3.77442 -2.78791 11.9797
191 1 -1.1104 3.99173 2.78673 12.2503
192 2 2.2208 2.30088 1.36946 8.04894
193 1 -1.1104 3.7715 -2.68292 9.30161
194 1 -1.1104 3.88357 2.71235 9.39739
195 2 2.2208 2.42952 -1.42721 10.6552
196 2 2.2208 2.48107 4.24216 10.6859
197 1 -1.1104 3.78759 0.054713 12.1769
198 1 -1.1104 3.75089 0.0415048 9.42896
185 1 -1.1104 6.74207 0.0370257 12.085
189 1 -1.1104 6.46478 0.0590146 9.32399
182 1 -1.1104 6.66817 -2.73 9.38334
183 1 -1.1104 6.64613 2.73219 9.34476
179 1 -1.1104 6.83971 2.83442 12.0099
187 2 2.2208 5.23713 4.22863 8.06378
178 1 -1.1104 6.64479 -2.77486 12.1471
378 2 2.2208 10.8032 18.3564 -0.305334
313 2 2.2208 -0.272343 15.5745 7.94268
208 1 -1.1104 9.2971 -2.76598 6.61338
205 1 -1.1104 12.1292 -2.62638 6.70724
388 2 2.2208 7.94335 -1.45342 -0.401217
360 2 2.2208 5.28452 9.96386 13.5109
210 1 -1.1104 9.42277 -0.015156 6.70669
211 2 2.2208 10.8239 1.30613 10.8035
212 1 -1.1104 12.1864 -2.76776 12.2542
213 1 -1.1104 12.4101 2.83259 12.3165
214 1 -1.1104 12.2426 -2.7504 9.48669
215 1 -1.1104 12.3511 2.84257 9.48743
216 1 -1.1104 12.3196 -0.0112776 12.2278
217 2 2.2208 10.7949 -1.31846 8.12496
218 2 2.2208 10.8846 4.04519 8.12264
219 1 -1.1104 12.1754 0.0703719 9.45287
220 1 -1.1104 9.41556 -2.74888 12.2993
221 1 -1.1104 9.54406 2.61502 12.1717
222 2 2.2208 7.95614 1.46861 7.94198
223 1 -1.1104 9.45015 -2.77274 9.46856
224 1 -1.1104 9.44182 2.53946 9.36394
225 2 2.2208 7.99992 -1.34589 10.7538
226 2 2.2208 8.03526 4.1914 10.7232
227 1 -1.1104 9.46387 -0.0638269 12.2055
228 1 -1.1104 9.2694 -0.094928 9.3917
400 2 2.2208 10.7683 12.8145 -0.430565
232 2 2.2208 10.8153 -4.14654 10.8908
343 2 2.2208 -0.262062 9.78244 7.9907
323 1 -1.1104 12.243 16.8315 9.39936
340 2 2.2208 13.6064 12.7407 8.08396
346 2 2.2208 -0.379223 -1.50331 13.658
331 2 2.2208 10.9378 18.2725 10.8052
240 2 2.2208 5.31219 6.90727 10.8579
241 2 2.2208 5.32693 12.6592 10.7111
242 1 -1.1104 1.0929 8.4113 12.2331
244 1 -1.1104 1.20419 8.38031 9.45225
246 1 -1.1104 1.14265 5.54211 12.2057
247 1 -1.1104 1.12428 11.2223 12.1647
250 2 2.2208 5.32658 9.78607 7.98073
251 1 -1.1104 1.14391 5.48601 9.23742
252 1 -1.1104 1.058 11.1523 9.33734
255 1 -1.1104 3.93304 8.4071 12.216
256 2 2.2208 2.56441 7.06135 8.02495
257 2 2.2208 2.45871 12.6609 8.03664
258 1 -1.1104 3.89243 8.31533 9.4381
259 2 2.2208 2.56689 9.81373 10.9544
260 1 -1.1104 3.84706 5.58164 12.2285
261 1 -1.1104 3.90713 11.3879 12.2308
262 1 -1.1104 4.02485 5.59608 9.43655
263 1 -1.1104 3.92108 11.1857 9.41459
243 1 -1.1104 6.77269 8.53208 12.1014
254 1 -1.1104 6.73981 11.2923 9.29886
248 1 -1.1104 6.75895 5.66754 12.2618
253 1 -1.1104 6.71321 5.62088 9.47093
249 1 -1.1104 6.73743 11.328 12.1185
320 2 2.2208 8.21626 18.4148 7.99779
363 2 2.2208 8.17061 6.98334 13.6108
312 2 2.2208 -0.350954 18.3788 10.8819
81 2 2.2208 -0.345648 6.95454 5.14901
237 1 -1.1104 6.70174 5.62141 6.68333
245 1 -1.1104 6.66119 8.46114 9.44011
372 2 2.2208 10.7591 21.046 13.6161
105 2 2.2208 13.6343 7.07123 2.37329
329 1 -1.1104 12.2262 19.6835 12.188
266 1 -1.1104 12.2137 5.61371 6.52127
382 2 2.2208 2.30241 -1.33495 -0.378307
339 2 2.2208 13.7223 7.02014 7.9876
264 1 -1.1104 9.50317 11.1388 9.37591
268 1 -1.1104 9.56077 5.40535 9.31139
270 1 -1.1104 9.47098 11.2683 12.2028
271 1 -1.1104 9.4862 5.50932 12.0927
272 2 2.2208 8.23866 9.76727 10.8046
273 1 -1.1104 9.48429 8.37861 9.42344
274 2 2.2208 8.0404 12.6274 8.00722
275 2 2.2208 8.03093 7.0346 8.09144
276 2 2.2208 11.0096 6.93864 10.7482
277 2 2.2208 10.92 12.562 10.8383
278 1 -1.1104 12.3513 8.32488 12.2776
279 1 -1.1104 12.3547 8.48216 9.49883
280 1 -1.1104 12.3283 5.59071 12.1806
281 1 -1.1104 12.324 11.1681 12.2059
282 2 2.2208 10.8457 9.89442 8.04474
283 1 -1.1104 12.1926 5.55325 9.27908
284 1 -1.1104 12.2392 11.3015 9.47484
285 1 -1.1104 9.57317 8.28045 12.1717
325 2 2.2208 10.9143 15.4709 7.93569
324 2 2.2208 10.8028 21.234 8.0843
322 1 -1.1104 9.53078 14.2181 12.2071
318 1 -1.1104 9.43659 19.7848 9.46823
290 1 -1.1104 6.5185 14.1463 9.28783
306 1 -1.1104 6.67434 16.9925 12.2379
289 1 -1.1104 6.86155 16.9527 9.26287
288 1 -1.1104 6.75649 19.6697 9.39182
292 1 -1.1104 1.05277 16.8408 9.36919
310 2 2.2208 2.51378 15.5524 10.8139
309 2 2.2208 2.46089 21.0985 10.8596
308 1 -1.1104 3.84384 17.0117 12.2265
307 1 -1.1104 0.959766 17.0806 12.1905
291 1 -1.1104 1.19468 19.6776 9.43233
287 1 -1.1104 3.76585 14.2168 12.222
305 1 -1.1104 3.80725 14.0508 9.42313
304 1 -1.1104 3.8965 16.9471 9.54156
303 2 2.2208 2.45375 18.3742 8.02801
301 1 -1.1104 4.07143 19.7721 9.42552
300 2 2.2208 5.25969 18.278 10.7589
299 1 -1.1104 1.21071 14.2307 12.3221
298 1 -1.1104 0.966246 19.8637 12.196
286 1 -1.1104 3.89659 19.591 12.1201
295 2 2.2208 5.28575 15.5579 8.04506
294 1 -1.1104 1.11689 13.966 9.38731
293 2 2.2208 5.26011 21.134 7.97949
296 1 -1.1104 6.67126 19.654 12.1818
297 1 -1.1104 6.7192 14.2224 12.1161
319 1 -1.1104 9.3094 13.9991 9.46141
333 2 2.2208 13.6261 15.5275 10.7853
328 1 -1.1104 12.1302 14.0239 9.41388
316 2 2.2208 7.93086 21.0258 10.7334
321 1 -1.1104 9.35945 19.6984 12.3343
314 1 -1.1104 9.60131 16.9907 9.37925
327 1 -1.1104 12.2292 19.7654 9.35664
149 1 -1.1104 12.367 17.0606 6.5307
317 2 2.2208 8.11358 15.6173 10.7809
315 1 -1.1104 9.41757 17.0125 12.2078
326 1 -1.1104 12.3255 16.8049 12.3816
369 2 2.2208 5.27434 21.0146 13.5862
376 2 2.2208 8.02219 18.3506 13.634
202 2 2.2208 2.28596 -4.07319 7.94649
368 2 2.2208 2.39013 18.2447 13.6101
354 2 2.2208 13.6233 -4.12689 13.5653
51 2 2.2208 8.1589 -4.18874 2.36432
342 2 2.2208 -0.261778 12.5643 10.8054
365 2 2.2208 8.05068 12.6394 13.6582
359 2 2.2208 2.526 7.09401 13.6843
349 2 2.2208 2.42002 1.44802 13.5525
83 2 2.2208 -0.341255 12.6651 5.19607
49 2 2.2208 13.6133 1.39967 2.38887
137 2 2.2208 -0.420517 18.283 5.24219
338 2 2.2208 13.6939 4.30348 10.8245
371 2 2.2208 5.27491 15.5428 13.5135
389 2 2.2208 7.96785 4.28615 -0.414555
311 2 2.2208 -0.391545 21.2187 7.9327
104 2 2.2208 13.5311 12.6853 2.38274
367 2 2.2208 -0.314478 4.20393 13.6248
135 2 2.2208 -0.334438 15.5306 2.41074
27 2 2.2208 -0.32538 4.178 2.40606
50 2 2.2208 13.6076 -1.33205 5.20479
230 2 2.2208 13.6148 -1.38255 10.8151
82 2 2.2208 -0.230114 9.85599 2.53877
377 2 2.2208 8.07436 15.6238 -0.190142
364 2 2.2208 10.8653 9.69315 13.5651
355 2 2.2208 8.03351 1.22436 13.4906
406 2 2.2208 5.26096 1.33384 16.5827
407 1 -1.1104 1.05397 -2.79866 17.9735
408 1 -1.1104 0.900336 2.88904 17.7171
411 1 -1.1104 0.977168 -2.79779 15.1487
413 1 -1.1104 1.06022 2.75619 15.0231
419 1 -1.1104 0.985567 0.00668879 17.7384
421 2 2.2208 5.13896 -1.46509 19.2742
422 2 2.2208 5.19734 4.14713 19.2763
423 1 -1.1104 1.07194 -0.0397432 15.0043
427 1 -1.1104 3.79073 -2.81289 17.7765
428 1 -1.1104 3.68134 2.64164 17.7924
429 2 2.2208 2.35724 1.35329 19.1298
430 1 -1.1104 3.82964 -3.03837 14.77
432 1 -1.1104 3.74645 2.78792 15.0185
434 2 2.2208 2.3167 -1.40241 16.342
435 2 2.2208 2.34533 4.24153 16.3762
436 1 -1.1104 3.77086 -0.0972111 17.8807
437 1 -1.1104 3.87669 -0.102878 14.9724
415 1 -1.1104 6.63708 -2.81405 14.8953
425 1 -1.1104 6.56133 -0.0505777 14.9827
410 1 -1.1104 6.55143 2.81659 17.7995
409 1 -1.1104 6.73282 -2.74826 17.7559
420 1 -1.1104 6.50032 -0.113531 17.8946
416 1 -1.1104 6.65058 -2.79919 20.5993
417 1 -1.1104 6.68296 2.72663 14.8723
414 1 -1.1104 1.00471 2.86352 20.5634
412 1 -1.1104 0.969204 -2.85338 20.6959
426 1 -1.1104 6.7214 0.00334048 20.5565
433 1 -1.1104 3.85615 2.80265 20.7213
473 2 2.2208 13.6642 -4.18563 19.2869
440 2 2.2208 5.28725 -4.16763 16.3428
669 2 2.2208 8.00776 -4.20558 24.8965
449 2 2.2208 10.8422 1.41596 16.4123
450 1 -1.1104 12.2401 -2.6616 17.8173
451 1 -1.1104 12.2109 2.75835 17.7873
452 1 -1.1104 12.2149 -2.86552 14.9937
454 1 -1.1104 12.3615 2.84325 15.1057
456 1 -1.1104 12.1305 0.0581132 17.8182
457 2 2.2208 10.7736 -1.23922 19.2813
459 1 -1.1104 12.1974 -0.0160911 14.96
461 1 -1.1104 9.50919 -2.61334 17.7956
462 1 -1.1104 9.29584 2.84798 17.8307
463 2 2.2208 8.00375 1.51544 19.2339
464 1 -1.1104 9.43554 -2.85309 15.0355
466 1 -1.1104 9.47384 2.77734 15.0148
468 2 2.2208 7.98871 -1.2346 16.2896
469 2 2.2208 8.05394 4.25787 16.3974
470 1 -1.1104 9.39372 0.179598 17.7985
471 1 -1.1104 9.40081 0.0573369 15.0481
458 2 2.2208 10.8835 4.27496 19.1547
477 2 2.2208 13.539 -1.46446 16.3663
640 2 2.2208 2.52002 -4.01251 24.8796
465 1 -1.1104 9.57858 -2.91614 20.8077
453 1 -1.1104 12.3625 -2.69466 20.557
467 1 -1.1104 9.42281 3.01951 20.559
446 2 2.2208 13.5349 4.19547 21.979
460 1 -1.1104 12.1462 0.21632 20.7265
579 2 2.2208 13.6251 4.26157 16.339
482 2 2.2208 5.12021 7.05736 16.4897
483 2 2.2208 5.19371 12.6124 16.4073
484 1 -1.1104 1.03079 8.46914 17.7416
486 1 -1.1104 1.02693 8.43269 15.086
490 1 -1.1104 0.926887 5.63742 17.8627
491 1 -1.1104 0.871009 11.2928 17.8631
494 2 2.2208 5.18613 9.88048 19.0481
495 1 -1.1104 1.07006 5.61165 15.0063
497 1 -1.1104 1.02755 11.1152 15.0305
503 1 -1.1104 3.86182 8.31054 17.715
504 2 2.2208 2.42664 7.05238 19.181
505 2 2.2208 2.35515 12.774 19.3261
506 1 -1.1104 3.9014 8.38727 14.9168
508 2 2.2208 2.44099 9.80749 16.3883
509 1 -1.1104 3.72869 5.62058 17.825
510 1 -1.1104 3.63017 11.2264 17.8668
511 1 -1.1104 3.71281 5.52681 14.9863
513 1 -1.1104 3.85108 11.2194 15.0581
499 1 -1.1104 6.49362 5.65731 15.0205
492 1 -1.1104 6.51137 5.53235 17.8021
493 1 -1.1104 6.52311 11.204 17.7134
501 1 -1.1104 6.82155 11.2339 15.023
488 1 -1.1104 6.64535 8.45135 14.9722
489 1 -1.1104 6.64584 8.54052 20.5535
514 1 -1.1104 3.72407 11.3904 20.5632
507 1 -1.1104 3.77654 8.51866 20.3532
498 1 -1.1104 0.847176 11.2106 20.6109
485 1 -1.1104 6.67106 8.30139 17.8518
512 1 -1.1104 3.81398 5.78871 20.6313
487 1 -1.1104 0.996163 8.44603 20.4887
500 1 -1.1104 6.61222 5.52551 20.4142
606 2 2.2208 13.5189 21.1492 22.0311
518 2 2.2208 10.9375 7.0366 16.4338
519 2 2.2208 10.8516 12.454 16.4955
520 1 -1.1104 12.3868 8.2862 17.7902
521 1 -1.1104 12.3763 8.40837 15.1056
523 1 -1.1104 12.3607 5.63483 17.6816
524 1 -1.1104 12.1908 11.0005 17.878
525 2 2.2208 10.7467 9.76825 19.3808
526 1 -1.1104 12.1975 5.59173 14.8833
528 1 -1.1104 12.2011 11.0509 15.0895
530 1 -1.1104 9.559 8.35135 17.7733
531 2 2.2208 8.09644 6.92703 19.3048
532 2 2.2208 8.03415 12.6188 19.1655
533 1 -1.1104 9.46457 8.3307 14.9003
535 2 2.2208 7.9836 9.72149 16.3436
536 1 -1.1104 9.526 5.59476 17.8355
537 1 -1.1104 9.27269 11.1437 17.842
538 1 -1.1104 9.54424 5.55255 14.9479
540 1 -1.1104 9.47413 11.1111 15.0597
663 1 -1.1104 12.0332 16.9354 26.2887
392 2 2.2208 13.6259 4.32819 27.5655
522 1 -1.1104 12.2626 8.38329 20.6772
529 1 -1.1104 12.2009 11.1088 20.5555
541 1 -1.1104 9.35325 11.3182 20.6456
545 2 2.2208 5.27502 18.1414 16.3776
546 1 -1.1104 0.924271 14.1283 17.8257
547 1 -1.1104 0.990899 19.6417 17.6981
550 1 -1.1104 1.04296 13.9794 14.998
552 1 -1.1104 0.971625 19.6729 15.0082
558 1 -1.1104 1.04182 16.9382 17.7967
560 2 2.2208 5.25532 15.5077 19.2036
561 2 2.2208 5.1962 21.0028 19.1842
562 1 -1.1104 0.9093 16.7551 14.9564
566 1 -1.1104 3.88395 14.0634 17.8575
567 1 -1.1104 3.85585 19.7039 17.6541
568 2 2.2208 2.40346 18.2816 19.1199
569 1 -1.1104 3.71711 14.0152 14.9337
571 1 -1.1104 3.72356 19.7586 14.8801
573 2 2.2208 2.41161 15.4445 16.2788
574 2 2.2208 2.43499 21.0392 16.3541
575 1 -1.1104 3.93863 16.7927 17.7637
576 1 -1.1104 3.71691 16.8405 14.9522
555 1 -1.1104 6.64116 13.9396 20.6011
549 1 -1.1104 6.59529 19.5349 17.8664
564 1 -1.1104 6.59953 16.6986 14.926
548 1 -1.1104 6.67145 14.0143 17.8287
559 1 -1.1104 6.64555 16.7917 17.7899
554 1 -1.1104 6.71267 13.9693 14.9274
565 1 -1.1104 6.581 16.7924 20.7549
570 1 -1.1104 3.79995 14.2897 20.5345
572 1 -1.1104 3.73797 19.9002 20.3927
551 1 -1.1104 0.944028 14.1384 20.7079
563 1 -1.1104 0.969353 17.0708 20.66
557 1 -1.1104 6.48629 19.5924 20.6171
553 1 -1.1104 0.927632 19.7461 20.6115
578 2 2.2208 13.65 1.38841 19.169
556 1 -1.1104 6.62131 19.6282 14.9946
599 1 -1.1104 9.32557 19.6043 20.8025
728 2 2.2208 13.5928 7.12595 24.7634
387 2 2.2208 10.8439 1.34809 27.7746
474 2 2.2208 10.9528 -4.19367 16.4741
581 2 2.2208 10.9133 18.2296 16.4038
582 1 -1.1104 12.1871 14.0032 17.8389
583 1 -1.1104 12.192 19.7031 17.7596
584 1 -1.1104 12.3682 14.0258 14.9197
586 1 -1.1104 12.1305 19.7672 14.9888
588 1 -1.1104 12.1499 16.7504 17.8508
589 2 2.2208 10.7805 15.5797 19.2871
590 2 2.2208 10.7677 21.0687 19.3377
591 1 -1.1104 12.2478 16.8424 15.087
593 1 -1.1104 9.44454 14.0862 17.7809
594 1 -1.1104 9.46168 19.5467 17.8333
595 2 2.2208 7.93862 18.1852 19.2511
596 1 -1.1104 9.61439 13.9192 15.1424
598 1 -1.1104 9.45267 19.6198 15.0651
600 2 2.2208 8.08923 15.3674 16.3512
601 2 2.2208 7.98227 20.9842 16.3827
602 1 -1.1104 9.28635 16.7629 17.8781
603 1 -1.1104 9.45382 16.6819 15.0121
604 1 -1.1104 9.46952 16.873 20.8098
587 1 -1.1104 12.2007 19.7729 20.706
597 1 -1.1104 9.45746 14.1944 20.8689
592 1 -1.1104 12.2959 17.018 20.6506
585 1 -1.1104 12.2433 13.9196 20.5641
605 2 2.2208 13.4072 18.3481 25.0116
424 1 -1.1104 1.01368 0.0856678 20.556
431 1 -1.1104 3.91883 -2.81552 20.7291
438 1 -1.1104 3.73311 -0.0245268 20.6577
418 1 -1.1104 6.51937 2.79897 20.6193
609 2 2.2208 5.16275 1.36522 22.0408
610 1 -1.1104 1.10008 -2.83072 23.4052
611 1 -1.1104 0.923672 2.90573 23.4874
614 1 -1.1104 0.995319 -2.71544 26.175
615 1 -1.1104 0.977099 2.98626 26.2984
618 1 -1.1104 1.1139 -0.114695 23.4195
620 2 2.2208 5.12439 -1.27344 24.8672
621 2 2.2208 5.25977 4.29384 24.8201
622 1 -1.1104 0.994475 0.169769 26.3794
624 1 -1.1104 3.91127 -2.67656 23.4938
625 1 -1.1104 3.75641 2.89347 23.5012
626 2 2.2208 2.37255 1.60887 24.8471
627 1 -1.1104 3.7043 -2.52548 26.3778
628 1 -1.1104 3.89657 2.93318 26.3146
629 2 2.2208 2.47173 -1.4592 22.0177
630 2 2.2208 2.48043 4.25235 22.1173
631 1 -1.1104 3.83331 0.0594307 23.3087
632 1 -1.1104 3.75718 0.0517012 26.1335
613 1 -1.1104 6.55432 2.83548 23.341
617 1 -1.1104 6.6034 2.93165 26.122
619 1 -1.1104 6.66314 0.0466117 23.4289
623 1 -1.1104 6.56957 -0.074016 26.3844
616 1 -1.1104 6.5799 -2.85125 26.2234
479 2 2.2208 13.6065 18.4809 19.3145
543 2 2.2208 13.7168 9.68026 16.4568
607 2 2.2208 10.7237 18.2625 22.2482
472 1 -1.1104 9.41106 -0.0369564 20.5502
638 2 2.2208 10.7586 15.4774 24.8702
612 1 -1.1104 6.72031 -2.77803 23.5086
634 1 -1.1104 12.1529 14.0291 26.3171
455 1 -1.1104 12.2212 2.9359 20.5864
375 2 2.2208 13.6115 21.1967 27.5977
383 2 2.2208 2.47914 4.18175 27.6567
403 2 2.2208 2.32602 15.5678 27.6185
645 2 2.2208 10.7114 1.44865 22.04
646 1 -1.1104 12.1635 -2.90287 23.4786
647 1 -1.1104 12.096 2.78021 23.3529
648 1 -1.1104 12.2766 -2.8145 26.2471
649 1 -1.1104 12.085 2.85808 26.2108
650 1 -1.1104 12.3312 -0.0682605 23.539
651 2 2.2208 10.8243 -1.33728 24.7724
652 2 2.2208 10.7129 4.23823 24.7939
653 1 -1.1104 12.1861 0.0876725 26.3067
654 1 -1.1104 9.40696 -2.87864 23.5317
655 1 -1.1104 9.33101 2.82578 23.2708
656 2 2.2208 8.0725 1.48489 24.8294
657 1 -1.1104 9.52733 -2.71086 26.2695
658 1 -1.1104 9.39231 2.94951 26.0576
659 2 2.2208 8.03051 -1.398 21.9679
660 2 2.2208 8.00662 4.23906 21.9921
661 1 -1.1104 9.49317 -0.0355606 23.4367
662 1 -1.1104 9.37902 0.0488935 26.0375
664 1 -1.1104 9.60749 14.0051 23.5181
441 2 2.2208 2.44995 -4.15225 19.243
357 2 2.2208 10.8588 4.20499 13.6402
398 2 2.2208 10.8545 7.02616 27.4646
633 1 -1.1104 11.9647 19.6082 23.5017
496 1 -1.1104 1.02668 5.66458 20.6378
502 1 -1.1104 6.55134 11.2228 20.6334
674 2 2.2208 5.061 7.08938 21.9648
675 2 2.2208 5.31123 12.7113 21.9191
676 1 -1.1104 0.798329 8.52978 23.3121
678 1 -1.1104 1.08567 8.41697 26.158
680 1 -1.1104 1.0514 5.49923 23.3813
681 1 -1.1104 1.18847 11.2689 23.4635
684 2 2.2208 5.05165 9.89276 24.8296
685 1 -1.1104 0.952846 5.79874 26.2801
686 1 -1.1104 1.07198 11.1954 26.1884
689 1 -1.1104 3.49243 8.43229 23.3236
690 2 2.2208 2.4284 7.02664 24.7788
691 2 2.2208 2.38933 12.751 24.8786
692 1 -1.1104 3.93309 8.39399 26.0942
693 2 2.2208 2.38749 9.89007 21.9743
694 1 -1.1104 3.95491 5.75022 23.4868
695 1 -1.1104 3.95343 11.2709 23.4718
696 1 -1.1104 3.78012 5.55956 26.2788
697 1 -1.1104 3.87961 11.3279 26.2559
682 1 -1.1104 6.60599 5.6734 23.4192
677 1 -1.1104 6.27319 8.38517 23.5087
688 1 -1.1104 6.51073 11.19 26.2311
683 1 -1.1104 6.61349 11.3317 23.4182
687 1 -1.1104 6.63658 5.79439 26.235
679 1 -1.1104 6.6549 8.63519 26.1991
385 2 2.2208 5.24068 -4.04201 27.7455
361 2 2.2208 2.47016 12.66 13.5907
635 1 -1.1104 12.2334 19.8033 26.38
402 2 2.2208 13.6347 9.70466 27.6107
534 1 -1.1104 9.34449 8.49865 20.715
480 2 2.2208 13.5274 15.4387 16.5734
539 1 -1.1104 9.51436 5.69173 20.596
395 2 2.2208 5.1729 12.7522 27.6715
527 1 -1.1104 12.2433 5.74981 20.5921
580 2 2.2208 13.6468 15.4396 22.1075
393 2 2.2208 5.18626 7.04317 27.6869
705 1 -1.1104 9.4409 11.2947 26.0531
706 1 -1.1104 9.3251 5.67598 26.1667
707 1 -1.1104 9.53617 11.2964 23.2417
708 1 -1.1104 9.36999 5.54517 23.329
709 2 2.2208 7.90213 9.83633 21.9885
710 1 -1.1104 9.57761 8.48154 26.2253
711 2 2.2208 8.06304 12.6533 24.8048
712 2 2.2208 7.95785 7.15443 24.8726
713 2 2.2208 10.8392 6.98521 22.0135
714 2 2.2208 10.908 12.6223 21.9882
715 1 -1.1104 12.0905 8.46536 23.3069
716 1 -1.1104 12.3423 8.30832 26.2875
717 1 -1.1104 12.2198 5.56109 23.3895
718 1 -1.1104 12.3723 11.356 23.5204
719 2 2.2208 10.8416 9.96229 24.7941
720 1 -1.1104 12.4254 5.61953 26.0895
721 1 -1.1104 12.2091 11.251 26.1825
722 1 -1.1104 9.22332 8.33381 23.3219
405 2 2.2208 2.38126 21.195 27.6881
577 1 -1.1104 3.68741 16.9734 20.6453
739 1 -1.1104 6.71895 14.1573 23.3777
746 1 -1.1104 3.78125 14.1006 26.136
745 1 -1.1104 3.7706 17.0825 26.2255
744 2 2.2208 2.41083 18.3273 24.9031
743 1 -1.1104 3.87387 19.7987 26.1839
742 2 2.2208 5.13645 18.2074 22.1552
741 1 -1.1104 0.950495 13.9665 23.435
750 2 2.2208 2.42635 21.0264 22.1054
749 1 -1.1104 3.7224 16.7951 23.5612
748 1 -1.1104 0.993997 16.8988 23.565
727 2 2.2208 2.46676 15.5951 22.0995
729 1 -1.1104 3.81905 19.6116 23.2992
731 1 -1.1104 3.76515 14.0152 23.3462
733 1 -1.1104 1.07605 19.8226 26.265
734 1 -1.1104 1.00124 17.0188 26.318
735 1 -1.1104 0.898197 13.976 26.2794
737 2 2.2208 5.20379 21.1269 24.7853
738 2 2.2208 5.25778 15.4706 24.8648
740 1 -1.1104 0.911743 19.6572 23.4315
747 1 -1.1104 6.62654 16.9553 23.5659
736 1 -1.1104 6.49698 19.6076 23.4824
670 1 -1.1104 6.66682 19.7778 26.322
732 1 -1.1104 6.54454 16.7943 26.3651
730 1 -1.1104 6.70728 13.9539 26.3042
391 2 2.2208 13.4914 -1.51537 27.6709
701 1 -1.1104 9.41419 16.9519 23.614
641 2 2.2208 10.6949 21.2359 24.8724
608 1 -1.1104 12.357 13.9957 23.4144
478 2 2.2208 13.5342 21.1706 16.4822
699 2 2.2208 8.19145 15.5315 22.1908
698 1 -1.1104 9.40489 19.9153 26.4614
700 2 2.2208 7.85482 21.0764 22.1046
673 1 -1.1104 9.35244 14.258 26.3346
636 1 -1.1104 12.2127 16.8576 23.4718
667 2 2.2208 7.97123 18.3044 24.9414
665 1 -1.1104 9.19121 19.7637 23.6044
704 1 -1.1104 9.31846 17.1104 26.507
642 2 2.2208 -0.349656 -1.3868 24.8196
374 2 2.2208 13.5435 15.5989 27.6742
381 2 2.2208 5.20965 1.41124 27.6351
404 2 2.2208 5.21783 18.3668 27.6033
379 2 2.2208 8.04191 21.1528 27.6835
399 2 2.2208 7.99921 9.82911 27.5437
352 2 2.2208 5.21084 4.24397 13.6892
394 2 2.2208 2.42103 9.93154 27.6213
401 2 2.2208 -0.359241 18.3546 27.6205
751 2 2.2208 5.24857 23.9882 5.20992
752 2 2.2208 5.3024 29.5573 5.12467
753 1 -1.1104 0.949477 25.479 0.947629
754 1 -1.1104 1.02922 25.4126 3.76355
755 1 -1.1104 1.08263 22.5552 0.951946
756 1 -1.1104 1.01055 28.3445 1.02057
757 2 2.2208 5.14144 26.8275 2.3643
758 1 -1.1104 1.12715 22.6725 3.73765
759 1 -1.1104 0.978229 28.3339 3.77637
760 1 -1.1104 3.75791 25.4497 1.10808
761 2 2.2208 2.43163 24.0521 2.45629
762 2 2.2208 2.41762 29.6237 2.43223
763 1 -1.1104 3.80405 25.446 3.90244
764 2 2.2208 2.45129 26.8235 5.21687
765 1 -1.1104 3.8095 22.5573 0.990751
766 1 -1.1104 3.73591 28.2415 0.808855
767 1 -1.1104 3.82663 22.5769 3.8335
768 1 -1.1104 3.83168 28.1827 3.79765
775 1 -1.1104 6.46173 28.0845 0.867588
774 1 -1.1104 6.66185 22.4297 1.08582
776 1 -1.1104 6.61328 22.4039 3.99601
772 1 -1.1104 6.60696 25.2373 1.03073
773 1 -1.1104 6.4581 25.2986 3.712
777 1 -1.1104 6.59613 28.1502 3.63212
893 1 -1.1104 6.50107 25.379 6.55981
894 1 -1.1104 0.93994 22.6344 6.50419
892 1 -1.1104 0.977599 25.4495 6.65683
899 1 -1.1104 3.72091 22.6395 6.55081
900 1 -1.1104 3.93428 28.152 6.58273
895 1 -1.1104 1.00182 28.1457 6.7216
897 1 -1.1104 6.68523 28.0784 6.67643
1700 1 -1.1104 9.34954 47.4575 6.60781
896 1 -1.1104 6.54405 22.4967 6.65759
778 2 2.2208 10.8761 23.953 5.12756
779 2 2.2208 10.8891 29.513 5.0706
780 1 -1.1104 12.3105 25.6449 1.11022
781 1 -1.1104 12.1549 25.2949 3.87756
782 1 -1.1104 12.093 22.6686 1.09361
783 1 -1.1104 12.1571 28.3448 0.910408
784 2 2.2208 10.9155 26.8087 2.40944
785 1 -1.1104 12.2497 22.6633 3.84872
786 1 -1.1104 12.2392 28.142 3.74153
787 1 -1.1104 9.43562 25.3348 1.02524
788 2 2.2208 8.00469 23.9522 2.43969
789 2 2.2208 8.11297 29.5585 2.32049
790 1 -1.1104 9.39913 25.3847 3.7956
791 2 2.2208 7.92544 26.7244 5.14927
792 1 -1.1104 9.29702 22.5781 0.959425
793 1 -1.1104 9.26704 28.0445 1.17772
794 1 -1.1104 9.4905 22.5322 3.7482
795 1 -1.1104 9.3982 28.0739 3.79226
1133 2 2.2208 5.25398 40.8042 -0.361419
925 1 -1.1104 12.2698 25.3409 6.68695
928 1 -1.1104 9.3994 25.3894 6.50655
930 1 -1.1104 9.38095 28.3355 6.44579
929 1 -1.1104 9.48147 22.6663 6.53254
796 2 2.2208 13.6301 23.9102 2.38352
927 1 -1.1104 12.3199 28.1813 6.63352
1106 2 2.2208 8.00276 40.8943 13.5484
797 2 2.2208 13.64 29.6031 2.29602
799 2 2.2208 5.22977 35.0802 5.14892
800 1 -1.1104 1.0113 31.1613 1.08385
801 1 -1.1104 0.935066 36.5943 1.06343
803 1 -1.1104 0.987202 31.1371 3.86774
804 1 -1.1104 0.77675 36.607 3.7595
806 1 -1.1104 0.996854 33.8875 1.09827
807 2 2.2208 5.30325 32.3335 2.34862
808 2 2.2208 5.17533 38.0061 2.38282
809 1 -1.1104 1.05939 33.8964 3.92258
811 1 -1.1104 3.80822 30.9583 1.12296
812 1 -1.1104 3.72255 36.6875 1.07504
813 2 2.2208 2.41595 35.192 2.49891
814 1 -1.1104 3.89719 30.9303 3.82399
815 1 -1.1104 3.75804 36.6746 3.91878
816 2 2.2208 2.45428 32.371 5.20975
817 2 2.2208 2.40017 37.8485 5.32122
818 1 -1.1104 3.74916 33.9777 1.06055
819 1 -1.1104 3.89737 33.7551 3.69671
954 1 -1.1104 6.66987 33.745 6.67454
823 1 -1.1104 6.67059 30.9514 0.871035
810 1 -1.1104 6.68345 33.5904 3.85556
956 1 -1.1104 3.94631 36.5721 6.61106
957 1 -1.1104 3.7701 33.7564 6.59875
802 1 -1.1104 6.72787 36.6218 1.0303
824 1 -1.1104 6.74082 30.9608 3.75087
952 1 -1.1104 6.8193 36.4436 6.4652
950 1 -1.1104 0.937749 36.5925 6.52467
951 1 -1.1104 6.55649 30.8551 6.54342
1676 1 -1.1104 6.72973 47.6951 9.31243
805 1 -1.1104 6.50229 36.4134 3.6532
825 1 -1.1104 6.64113 33.8406 0.908966
826 2 2.2208 10.7984 35.0727 5.17969
827 1 -1.1104 12.2977 31.0276 1.05306
828 1 -1.1104 12.1534 36.6846 0.879641
829 1 -1.1104 12.2732 30.9687 3.73271
830 1 -1.1104 12.1628 36.5484 3.60856
831 1 -1.1104 12.1602 33.8834 0.987382
832 2 2.2208 10.9449 32.3277 2.37133
833 2 2.2208 10.8494 37.9965 2.33575
834 1 -1.1104 12.1862 33.7978 3.88745
835 1 -1.1104 9.52227 30.9462 0.924543