ITEM: TIMESTEP
30000
ITEM: NUMBER OF ATOMS
17730
ITEM: BOX BOUNDS pp pp pp
-3.5591912411369470e-01 2.7695919124113747e+01
-4.2960521743064701e+00 3.3237605217430416e+02
-3.5744608288144769e-01 2.7697446082881147e+01
ITEM: ATOMS id type q x y z
1 2 2.2208 5.5618 1.25747 5.29597
2 1 -1.1104 1.47394 -2.8425 1.20159
3 1 -1.1104 1.30883 2.72928 1.14592
6 1 -1.1104 1.26003 -2.874 4.08743
7 1 -1.1104 1.1696 2.72665 3.936
10 1 -1.1104 1.47983 -0.0378148 1.14045
12 2 2.2208 5.40186 -1.55504 2.69409
13 2 2.2208 5.60158 4.08046 2.57396
14 1 -1.1104 1.32325 -0.191688 4.04366
16 1 -1.1104 4.15108 -2.97468 1.27319
17 1 -1.1104 4.12035 2.59045 1.06482
18 2 2.2208 2.74056 1.29028 2.53276
19 1 -1.1104 4.0227 -2.93396 4.1229
20 1 -1.1104 4.11384 2.75729 3.8477
21 2 2.2208 2.66383 -1.53278 5.40999
22 2 2.2208 2.72809 4.11796 5.3543
23 1 -1.1104 4.22589 -0.223404 1.12545
24 1 -1.1104 4.10056 -0.0450844 3.89783
167 1 -1.1104 1.40099 2.81391 6.87484
27 2 2.2208 -0.0356282 4.19488 2.63539
26 2 2.2208 -0.0163963 1.34646 5.49478
166 1 -1.1104 1.13856 -2.93271 6.90726
25 2 2.2208 -0.00242989 -1.44706 2.67427
403 2 2.2208 2.72991 15.2129 -0.29992
396 2 2.2208 -0.182789 12.3977 -0.293736
378 2 2.2208 10.9947 18.1915 -0.294948
386 2 2.2208 0.0537154 1.27475 -0.066867
395 2 2.2208 5.58897 12.5659 -0.273957
327 1 -1.1104 12.496 19.4701 9.52234
399 2 2.2208 8.34564 9.75845 -0.279219
4 1 -1.1104 6.93901 -2.8563 1.25628
15 1 -1.1104 6.91354 -0.233697 3.89966
11 1 -1.1104 6.92441 -0.136262 1.16427
9 1 -1.1104 6.99723 2.68186 3.98907
5 1 -1.1104 6.88221 2.84953 1.14404
171 1 -1.1104 6.95988 -0.0660449 6.77605
8 1 -1.1104 6.85227 -2.80272 4.11175
31 2 2.2208 11.2267 1.33476 5.37655
32 1 -1.1104 12.5681 -2.91816 1.23601
33 1 -1.1104 12.5025 2.72494 1.28813
34 1 -1.1104 12.3853 -2.92621 3.92279
35 1 -1.1104 12.3862 2.7861 3.88389
36 1 -1.1104 12.6956 -0.0610995 1.18297
37 2 2.2208 11.201 -1.39489 2.52925
38 2 2.2208 11.0581 4.05842 2.528
39 1 -1.1104 12.5992 -0.135959 4.03181
40 1 -1.1104 9.74504 -2.93474 1.18356
41 1 -1.1104 9.82459 2.8735 1.0385
42 2 2.2208 8.30254 1.12923 2.52809
43 1 -1.1104 9.60503 -2.87612 4.03697
44 1 -1.1104 9.74749 2.63905 3.89931
45 2 2.2208 8.3923 -1.46614 5.29516
46 2 2.2208 8.23955 4.05442 5.37446
47 1 -1.1104 9.72092 -0.0365286 1.14179
48 1 -1.1104 9.78882 -0.153533 3.99147
205 1 -1.1104 12.7033 -2.95967 6.75476
331 2 2.2208 11.1638 18.1285 10.9491
387 2 2.2208 11.1172 1.39718 -0.381734
112 1 -1.1104 6.96929 19.4823 6.65471
389 2 2.2208 8.38817 4.13191 -0.32368
83 2 2.2208 -0.0650847 12.52 5.44237
54 2 2.2208 5.48829 6.84177 5.41788
55 2 2.2208 5.5342 12.5541 5.29392
56 1 -1.1104 1.26917 8.39034 1.22668
58 1 -1.1104 1.20005 8.30476 4.13507
60 1 -1.1104 1.38233 5.64801 1.16539
61 1 -1.1104 1.26121 11.2053 1.07496
66 2 2.2208 5.28483 9.64155 2.70345
67 1 -1.1104 1.32703 5.50558 4.05987
68 1 -1.1104 1.23173 11.2132 3.97912
71 1 -1.1104 4.08501 8.30412 1.09541
72 2 2.2208 2.71142 7.05617 2.69266
73 2 2.2208 2.79179 12.4364 2.56465
74 1 -1.1104 3.9638 8.27841 4.03275
75 2 2.2208 2.67096 9.73576 5.46489
76 1 -1.1104 4.2197 5.47716 1.1702
77 1 -1.1104 4.01362 10.9852 1.2064
79 1 -1.1104 4.04479 5.63271 4.08744
80 1 -1.1104 4.10405 11.1395 4.0463
81 2 2.2208 -0.0842436 6.89715 5.50743
82 2 2.2208 -0.159197 9.65047 2.66704
236 1 -1.1104 1.42908 5.51013 6.83184
51 2 2.2208 8.37085 -4.29141 2.5073
329 1 -1.1104 12.4389 19.5022 12.3696
203 2 2.2208 5.4729 -4.2343 10.9842
70 1 -1.1104 6.96897 11.1688 3.86968
69 1 -1.1104 6.86068 5.40245 4.06298
63 1 -1.1104 7.07332 5.44532 1.27578
59 1 -1.1104 6.77754 8.25536 4.03865
64 1 -1.1104 6.94017 11.2108 1.07908
57 1 -1.1104 6.67811 8.39634 1.10475
84 2 2.2208 11.0732 7.03075 5.35056
85 2 2.2208 11.2145 12.6327 5.26596
86 1 -1.1104 12.3759 8.35918 1.12122
87 1 -1.1104 12.5612 8.33894 3.98376
88 1 -1.1104 12.4665 5.48834 1.20997
89 1 -1.1104 12.4203 11.1117 1.02137
91 2 2.2208 11.0997 9.83858 2.54279
92 1 -1.1104 12.5372 5.62823 3.97148
93 1 -1.1104 12.558 11.1471 3.96616
94 1 -1.1104 9.55251 8.25673 1.12592
95 2 2.2208 8.27721 6.98062 2.65261
96 2 2.2208 8.22868 12.5769 2.51301
97 1 -1.1104 9.59726 8.43529 3.94365
98 2 2.2208 8.28534 9.85098 5.41279
99 1 -1.1104 9.77421 5.56319 1.05165
100 1 -1.1104 9.65838 11.054 1.14869
102 1 -1.1104 9.60116 5.51762 3.99791
103 1 -1.1104 9.70874 11.1417 4.01673
266 1 -1.1104 12.567 5.70784 6.65885
267 1 -1.1104 9.63778 8.29909 6.68616
401 2 2.2208 -0.0205342 18.1746 -0.219051
405 2 2.2208 2.60864 20.9682 -0.321639
319 1 -1.1104 9.55033 13.9496 9.56179
106 2 2.2208 5.57843 18.1962 5.21478
107 1 -1.1104 1.28723 13.9204 1.2985
109 1 -1.1104 1.27223 19.3612 1.11918
113 1 -1.1104 1.24719 13.8294 4.08793
114 1 -1.1104 1.33374 19.5586 3.84421
116 1 -1.1104 1.26035 16.4897 1.15126
119 2 2.2208 5.48787 15.3622 2.50156
120 2 2.2208 5.40618 20.9906 2.5704
121 1 -1.1104 1.39124 16.7446 3.97935
123 1 -1.1104 4.19021 13.8009 1.22057
125 1 -1.1104 3.98469 19.441 1.05097
127 2 2.2208 2.71739 18.0827 2.4359
128 1 -1.1104 4.10823 13.8467 4.00593
129 1 -1.1104 4.18898 19.6154 3.92491
130 2 2.2208 2.74888 15.3456 5.35219
131 2 2.2208 2.6782 20.9341 5.33235
132 1 -1.1104 4.11624 16.6369 1.05929
134 1 -1.1104 4.08706 16.7716 3.82518
135 2 2.2208 -0.175226 15.2461 2.67861
137 2 2.2208 -0.0662008 18.1478 5.22983
136 2 2.2208 -0.127685 21.0019 2.49174
317 2 2.2208 8.28644 15.3945 10.9676
393 2 2.2208 5.39047 6.96848 -0.290031
117 1 -1.1104 1.44368 16.6014 6.81987
133 1 -1.1104 4.04987 16.7665 6.75942
321 1 -1.1104 9.63227 19.5373 12.4303
140 1 -1.1104 6.83319 16.5501 1.10804
138 1 -1.1104 6.68351 19.4296 1.15734
115 1 -1.1104 6.84525 13.9819 3.92929
110 1 -1.1104 6.95235 13.9214 0.976315
139 1 -1.1104 6.87191 19.6188 3.90393
122 1 -1.1104 6.94192 16.7387 3.8454
141 2 2.2208 11.009 17.9815 5.26377
142 1 -1.1104 12.5649 13.9628 1.2582
144 1 -1.1104 12.3464 19.5966 0.971868
146 1 -1.1104 12.5609 13.845 3.82496
147 1 -1.1104 12.2881 19.3992 3.97004
148 1 -1.1104 12.3935 16.6855 1.04392
150 2 2.2208 11.1098 15.2229 2.46028
151 2 2.2208 10.9582 20.8692 2.39318
152 1 -1.1104 12.4499 16.6104 3.96891
153 1 -1.1104 9.65415 13.8299 1.14414
155 1 -1.1104 9.52847 19.5154 1.12321
157 2 2.2208 8.19951 18.0667 2.4876
158 1 -1.1104 9.62909 13.8462 3.8573
159 1 -1.1104 9.53106 19.4452 3.91434
160 2 2.2208 8.34985 15.3008 5.373
161 2 2.2208 8.25433 20.9577 5.30648
162 1 -1.1104 9.61611 16.7534 1.13104
164 1 -1.1104 9.66464 16.5983 3.89382
145 1 -1.1104 12.6299 19.4827 6.84434
149 1 -1.1104 12.474 16.6655 6.7327
30 2 2.2208 -0.175025 -4.15777 5.49514
379 2 2.2208 8.2072 20.8896 -0.266173
170 1 -1.1104 1.18211 -0.181552 6.73177
172 1 -1.1104 4.05867 -3.03467 6.9099
173 1 -1.1104 4.22823 2.64884 6.78831
174 1 -1.1104 3.98281 -0.222231 6.69484
201 2 2.2208 -0.0366094 1.32823 11.0048
199 2 2.2208 -0.0902006 4.13586 8.30601
175 2 2.2208 5.60167 1.3545 11.0226
176 1 -1.1104 1.29529 -3.00545 12.2913
177 1 -1.1104 1.23887 2.92764 12.3926
180 1 -1.1104 1.37938 -2.78676 9.64802
181 1 -1.1104 1.32333 2.83415 9.63868
184 1 -1.1104 1.32835 -0.252691 12.4446
186 2 2.2208 5.52229 -1.55414 8.08639
187 2 2.2208 5.5288 4.1127 8.1405
188 1 -1.1104 1.39107 -0.0677337 9.64619
190 1 -1.1104 4.03021 -2.75213 12.4134
191 1 -1.1104 4.05079 2.68624 12.3535
192 2 2.2208 2.71352 1.39491 8.254
193 1 -1.1104 4.07321 -2.84511 9.70586
194 1 -1.1104 4.08098 2.61295 9.71704
195 2 2.2208 2.71173 -1.45723 11.0758
196 2 2.2208 2.70728 4.20823 11.031
197 1 -1.1104 4.04926 -0.0691106 12.402
198 1 -1.1104 4.12848 -0.113907 9.54953
200 2 2.2208 -0.0896304 -1.50008 8.33484
397 2 2.2208 -0.157382 6.96874 -0.235099
231 2 2.2208 8.31564 -4.19058 8.07607
288 1 -1.1104 6.74813 19.4468 9.43646
202 2 2.2208 2.67905 -4.22772 8.37958
168 1 -1.1104 6.84013 -2.92286 6.83572
169 1 -1.1104 6.946 2.53279 6.74349
207 1 -1.1104 12.6013 -0.178251 6.61961
210 1 -1.1104 9.76946 -0.03177 6.63537
209 1 -1.1104 9.79952 2.65781 6.71002
206 1 -1.1104 12.593 2.76347 6.76153
204 2 2.2208 -0.147406 -4.30585 10.9092
189 1 -1.1104 6.94512 -0.0719089 9.54508
208 1 -1.1104 9.75481 -2.88589 6.738
185 1 -1.1104 6.91174 -0.0544265 12.4907
182 1 -1.1104 6.90014 -2.80773 9.66873
183 1 -1.1104 6.95387 2.58121 9.40943
179 1 -1.1104 6.7257 2.88422 12.2674
178 1 -1.1104 6.67767 -2.88623 12.3586
211 2 2.2208 11.0323 1.29016 10.8675
212 1 -1.1104 12.543 -2.71134 12.3421
213 1 -1.1104 12.5305 2.72027 12.2818
214 1 -1.1104 12.544 -2.98273 9.54584
215 1 -1.1104 12.5101 2.73783 9.45017
216 1 -1.1104 12.4206 0.0672295 12.2713
217 2 2.2208 11.1406 -1.50126 8.0701
218 2 2.2208 11.2488 4.13371 8.05866
219 1 -1.1104 12.5503 -0.141738 9.56624
220 1 -1.1104 9.66732 -2.86476 12.2695
221 1 -1.1104 9.52032 2.67996 12.2288
222 2 2.2208 8.38619 1.12044 8.13495
223 1 -1.1104 9.63104 -2.68807 9.51537
224 1 -1.1104 9.9017 2.68597 9.53114
225 2 2.2208 8.31899 -1.46523 11.0333
226 2 2.2208 8.35532 4.04766 10.8243
227 1 -1.1104 9.73331 -0.0906883 12.4115
228 1 -1.1104 9.77714 -0.0900746 9.5697
330 1 -1.1104 12.4921 13.9623 12.6079
111 1 -1.1104 6.98483 13.9178 6.65321
62 1 -1.1104 1.28716 11.096 6.81316
342 2 2.2208 -0.185155 12.5587 10.922
78 1 -1.1104 4.06308 11.1646 6.82558
238 1 -1.1104 4.0962 8.34474 6.76844
234 1 -1.1104 1.2922 8.3361 6.89893
239 1 -1.1104 4.16323 5.53834 6.90029
240 2 2.2208 5.49679 6.86207 11.0393
241 2 2.2208 5.55475 12.591 11.0401
242 1 -1.1104 1.32137 8.45998 12.4412
244 1 -1.1104 1.27316 8.50758 9.71552
246 1 -1.1104 1.25407 5.56729 12.3836
247 1 -1.1104 1.21698 11.3339 12.3467
250 2 2.2208 5.6504 9.68702 8.23574
251 1 -1.1104 1.24655 5.63934 9.65322
252 1 -1.1104 1.31347 11.2554 9.56233
255 1 -1.1104 4.15172 8.3185 12.4762
256 2 2.2208 2.7155 6.85614 8.24111
257 2 2.2208 2.61646 12.4935 8.1329
258 1 -1.1104 4.09842 8.22759 9.63492
259 2 2.2208 2.84637 9.69676 11.0706
260 1 -1.1104 4.01441 5.53804 12.5806
261 1 -1.1104 4.0097 11.247 12.3606
262 1 -1.1104 4.13681 5.35268 9.82572
263 1 -1.1104 4.22373 10.9751 9.64989
344 2 2.2208 -0.0499828 6.88881 11.0096
343 2 2.2208 -0.201733 9.75222 8.22417
249 1 -1.1104 6.84826 11.1648 12.2747
297 1 -1.1104 7.00691 13.9906 12.3393
65 1 -1.1104 6.85831 11.127 6.82636
269 1 -1.1104 9.75817 5.46297 6.7642
290 1 -1.1104 6.87114 13.9861 9.40527
235 1 -1.1104 6.76033 8.35412 6.80465
101 1 -1.1104 9.60358 11.1465 6.83719
237 1 -1.1104 7.021 5.60014 6.56675
253 1 -1.1104 6.90073 5.45269 9.37323
243 1 -1.1104 6.98028 8.38948 12.5334
254 1 -1.1104 7.03361 11.0367 9.46942
90 1 -1.1104 12.5009 11.1964 6.73359
248 1 -1.1104 6.97575 5.49855 12.3063
245 1 -1.1104 6.90083 8.2662 9.67947
265 1 -1.1104 12.4556 8.41868 6.70539
264 1 -1.1104 9.80678 11.0315 9.65321
268 1 -1.1104 9.74487 5.54598 9.4942
270 1 -1.1104 9.70428 11.0954 12.3733
271 1 -1.1104 9.75697 5.46548 12.3265
272 2 2.2208 8.26786 9.7421 11.0461
273 1 -1.1104 9.57406 8.25527 9.50145
274 2 2.2208 8.28849 12.6301 8.19594
275 2 2.2208 8.34598 6.92385 8.11277
276 2 2.2208 11.0562 7.0013 10.957
277 2 2.2208 11.1372 12.6747 11.0542
278 1 -1.1104 12.3714 8.42741 12.3886
279 1 -1.1104 12.3391 8.20853 9.50699
280 1 -1.1104 12.3864 5.64004 12.3299
281 1 -1.1104 12.5118 11.2867 12.432
282 2 2.2208 10.995 9.59186 8.11985
283 1 -1.1104 12.4939 5.47672 9.48348
284 1 -1.1104 12.5698 11.0169 9.53348
285 1 -1.1104 9.68062 8.2326 12.5059
124 1 -1.1104 4.03798 13.839 6.79752
108 1 -1.1104 1.34165 13.9491 6.8522
313 2 2.2208 -0.149924 15.2766 8.11308
312 2 2.2208 -0.142641 18.1587 10.7608
126 1 -1.1104 4.03549 19.4732 6.66293
311 2 2.2208 -0.216888 20.7642 8.05429
302 1 -1.1104 1.27557 19.443 6.66831
292 1 -1.1104 1.21507 16.871 9.51194
310 2 2.2208 2.5716 15.2212 10.9608
309 2 2.2208 2.64673 20.9723 11.0028
308 1 -1.1104 3.99176 16.6745 12.4078
307 1 -1.1104 1.20608 16.7573 12.2652
291 1 -1.1104 1.33619 19.5784 9.40521
287 1 -1.1104 3.9913 13.877 12.4251
305 1 -1.1104 3.99585 13.9289 9.71719
304 1 -1.1104 4.18016 16.5474 9.52842
303 2 2.2208 2.62622 18.1282 8.10562
301 1 -1.1104 4.04852 19.4489 9.46545
300 2 2.2208 5.33523 18.074 10.8668
299 1 -1.1104 1.10864 14.0701 12.3116
298 1 -1.1104 1.16599 19.5458 12.2877
286 1 -1.1104 3.97389 19.4912 12.3409
295 2 2.2208 5.47306 15.2863 8.05926
294 1 -1.1104 1.24385 13.9409 9.57236
293 2 2.2208 5.44565 20.8085 8.06553
328 1 -1.1104 12.4659 13.8618 9.56772
324 2 2.2208 10.9801 20.8419 8.05255
318 1 -1.1104 9.73802 19.4408 9.54517
323 1 -1.1104 12.6466 16.579 9.55804
296 1 -1.1104 6.73518 19.4322 12.3181
306 1 -1.1104 6.80327 16.8333 12.3896
289 1 -1.1104 6.95336 16.7384 9.49161
118 1 -1.1104 6.82731 16.5459 6.64495
154 1 -1.1104 9.67346 13.9937 6.73742
143 1 -1.1104 12.4633 13.9907 6.58484
163 1 -1.1104 9.60799 16.7229 6.77377
156 1 -1.1104 9.56545 19.5401 6.83281
316 2 2.2208 8.33799 21.0267 10.8172
326 1 -1.1104 12.3132 16.7152 12.3103
314 1 -1.1104 9.8192 16.6432 9.66252
322 1 -1.1104 9.71499 14.0011 12.3903
315 1 -1.1104 9.64516 16.7922 12.4543
320 2 2.2208 8.22285 17.9966 8.14974
325 2 2.2208 11.0821 15.2656 8.30168
385 2 2.2208 5.48424 -4.29036 -0.211435
377 2 2.2208 8.28215 15.3565 -0.27757
381 2 2.2208 5.49868 1.2687 -0.318979
382 2 2.2208 2.86995 -1.54154 -0.317557
384 2 2.2208 -0.0742459 -4.25471 -0.293214
394 2 2.2208 2.60106 9.69086 -0.131032
388 2 2.2208 8.49179 -1.44552 -0.309137
383 2 2.2208 2.68878 4.16167 -0.170049
404 2 2.2208 5.47604 18.0489 -0.328394
398 2 2.2208 11.0911 6.86078 -0.166042
232 2 2.2208 11.0962 -4.19909 10.9212
357 2 2.2208 10.9698 4.09098 13.5847
400 2 2.2208 10.8846 12.5274 -0.197376
406 2 2.2208 5.42808 1.24664 16.5862
407 1 -1.1104 1.14481 -2.97828 18.0157
408 1 -1.1104 1.14342 2.72522 18.0293
411 1 -1.1104 1.21834 -2.88325 15.1901
413 1 -1.1104 1.20747 2.65185 15.1798
419 1 -1.1104 1.17333 -0.0978437 18.0864
421 2 2.2208 5.50171 -1.56274 19.3395
422 2 2.2208 5.53176 4.11866 19.3585
423 1 -1.1104 1.0376 -0.16531 15.2634
427 1 -1.1104 3.93969 -2.9055 18.0154
428 1 -1.1104 4.07652 2.61308 17.8901
429 2 2.2208 2.6183 1.27937 19.495
430 1 -1.1104 4.05985 -3.01317 15.2292
432 1 -1.1104 4.03974 2.65278 15.1339
434 2 2.2208 2.69514 -1.52421 16.5653
435 2 2.2208 2.67272 3.99955 16.6818
436 1 -1.1104 3.88292 -0.0623975 17.9759
437 1 -1.1104 4.03444 -0.167354 15.3565
412 1 -1.1104 1.20599 -2.78877 20.7462
424 1 -1.1104 1.22172 -0.0256471 20.9578
363 2 2.2208 8.25302 6.98945 13.8727
442 2 2.2208 -0.243403 1.27819 16.5723
443 2 2.2208 -0.157692 -1.37418 19.3877
544 2 2.2208 -0.21582 4.12276 19.4005
346 2 2.2208 -0.145545 -1.6237 13.7534
364 2 2.2208 11.0484 9.717 13.7855
349 2 2.2208 2.71579 1.37315 13.774
607 2 2.2208 11.0936 18.1728 22.1868
410 1 -1.1104 6.95964 2.89732 18.1314
409 1 -1.1104 6.88128 -2.84989 18.0108
420 1 -1.1104 6.89151 -0.0196236 18.0603
425 1 -1.1104 6.79288 -0.252663 15.3677
417 1 -1.1104 6.93692 2.75284 15.2031
415 1 -1.1104 6.84271 -2.91608 15.143
449 2 2.2208 11.2156 1.43564 16.4556
450 1 -1.1104 12.5898 -2.82546 17.8361
451 1 -1.1104 12.5886 2.84411 18.0511
452 1 -1.1104 12.6726 -2.88693 15.1266
454 1 -1.1104 12.5673 2.90124 14.9945
456 1 -1.1104 12.5089 -0.0414571 17.9306
457 2 2.2208 11.0845 -1.48108 19.3467
459 1 -1.1104 12.4705 -0.0727149 15.2082
461 1 -1.1104 9.59754 -2.9602 18.0439
462 1 -1.1104 9.758 2.83054 17.8194
463 2 2.2208 8.32528 1.50273 19.3374
464 1 -1.1104 9.87473 -2.98413 15.1376
466 1 -1.1104 9.70347 2.56051 14.8692
468 2 2.2208 8.37413 -1.56759 16.5875
469 2 2.2208 8.22784 4.13047 16.4766
470 1 -1.1104 9.82513 -0.000497727 18.0385
471 1 -1.1104 9.63902 -0.192049 15.2005
458 2 2.2208 11.1801 4.29217 19.4239
455 1 -1.1104 12.6303 2.81174 20.7875
453 1 -1.1104 12.5428 -2.84261 20.6793
356 2 2.2208 11.1632 -1.40156 13.7893
460 1 -1.1104 12.4148 -0.137977 20.8032
418 1 -1.1104 6.97796 2.93888 20.8836
467 1 -1.1104 9.82744 2.82603 20.6797
472 1 -1.1104 9.66723 0.00866345 20.7993
347 2 2.2208 2.68144 -4.2426 13.7945
351 2 2.2208 -0.100311 15.3526 13.7746
639 2 2.2208 5.49884 -4.19414 22.2153
516 2 2.2208 -0.155862 12.4346 16.5877
481 2 2.2208 -0.0600219 6.95827 16.5421
482 2 2.2208 5.44109 6.87425 16.7057
483 2 2.2208 5.39084 12.592 16.6905
484 1 -1.1104 1.2556 8.37783 17.9143
486 1 -1.1104 1.36593 8.34676 15.1993
490 1 -1.1104 1.26639 5.5086 18.0829
491 1 -1.1104 1.17145 11.1437 17.8868
494 2 2.2208 5.50053 9.78667 19.4254
495 1 -1.1104 1.35551 5.49905 15.3071
497 1 -1.1104 1.18557 11.0322 15.0999
503 1 -1.1104 3.99554 8.23209 18.015
504 2 2.2208 2.60852 6.7625 19.3746
505 2 2.2208 2.56408 12.5431 19.4093
506 1 -1.1104 4.06625 8.49606 15.2326
508 2 2.2208 2.64359 9.74304 16.6038
509 1 -1.1104 4.18713 5.51346 18.0008
510 1 -1.1104 4.03771 11.1464 18.1428
511 1 -1.1104 3.97177 5.537 15.3235
513 1 -1.1104 4.00095 11.2981 15.2171
515 2 2.2208 -0.0350366 9.63119 19.3206
499 1 -1.1104 6.77569 5.51032 15.1399
440 2 2.2208 5.4676 -4.21454 16.5665
507 1 -1.1104 4.0707 8.32221 20.8086
514 1 -1.1104 4.07213 10.9786 20.9216
637 2 2.2208 -0.144851 -4.14506 22.1406
350 2 2.2208 -0.0898627 20.7886 13.7997
633 1 -1.1104 12.4688 19.4651 23.548
501 1 -1.1104 6.92138 11.2384 15.1417
492 1 -1.1104 7.01542 5.57379 18.1532
493 1 -1.1104 6.77689 11.152 18.0441
485 1 -1.1104 6.96742 8.3667 17.9642
488 1 -1.1104 6.80906 8.21806 15.3109
518 2 2.2208 11.1234 7.00315 16.5189
519 2 2.2208 11.0962 12.6039 16.6691
520 1 -1.1104 12.531 8.37492 17.8947
521 1 -1.1104 12.4405 8.29305 15.0813
523 1 -1.1104 12.4308 5.63673 18.059
524 1 -1.1104 12.4242 11.223 17.9329
525 2 2.2208 11.1666 9.71281 19.334
526 1 -1.1104 12.5409 5.52091 15.1547
528 1 -1.1104 12.4267 11.0873 15.1013
530 1 -1.1104 9.78474 8.39205 18.0577
531 2 2.2208 8.40628 6.96352 19.4198
532 2 2.2208 8.24457 12.4555 19.4432
533 1 -1.1104 9.83911 8.32908 15.187
535 2 2.2208 8.33439 9.78938 16.6817
536 1 -1.1104 9.71589 5.57704 17.8882
537 1 -1.1104 9.62193 11.1732 18.055
538 1 -1.1104 9.65829 5.64101 15.211
540 1 -1.1104 9.59783 11.1878 15.1667
365 2 2.2208 8.26426 12.6796 13.8856
522 1 -1.1104 12.6939 8.30466 20.8885
539 1 -1.1104 9.76119 5.56742 20.7204
367 2 2.2208 -0.140559 4.13703 13.7795
635 1 -1.1104 12.59 19.5915 26.2991
447 2 2.2208 -0.237079 18.1284 16.6072
476 2 2.2208 -0.228114 21.0192 19.5785
448 2 2.2208 -0.110209 15.3668 19.5031
545 2 2.2208 5.43816 18.1044 16.6
546 1 -1.1104 1.4698 14.0368 18.0592
547 1 -1.1104 1.32063 19.444 18.0105
550 1 -1.1104 1.22745 13.8934 15.2753
552 1 -1.1104 1.182 19.3872 15.2484
558 1 -1.1104 1.08653 16.6936 17.9045
560 2 2.2208 5.40633 15.2068 19.4409
561 2 2.2208 5.5945 20.9024 19.3289
562 1 -1.1104 1.25955 16.6965 15.1018
566 1 -1.1104 4.08008 14.0196 17.9894
567 1 -1.1104 4.19443 19.6145 18.0538
568 2 2.2208 2.61607 18.109 19.4497
569 1 -1.1104 3.99208 13.9677 15.0576
571 1 -1.1104 4.06328 19.4861 15.2008
573 2 2.2208 2.75279 15.4822 16.5654
574 2 2.2208 2.73167 20.9648 16.6413
575 1 -1.1104 3.99015 16.697 18.0673
576 1 -1.1104 4.08521 16.7557 15.1087
371 2 2.2208 5.44496 15.3423 13.6974
376 2 2.2208 8.24473 18.2121 13.7441
664 1 -1.1104 9.57741 13.7872 23.6686
668 2 2.2208 11.051 -4.20746 22.2675
549 1 -1.1104 6.83781 19.4671 17.9056
554 1 -1.1104 6.86044 14.1363 15.2333
564 1 -1.1104 6.84929 16.8983 15.0885
559 1 -1.1104 6.73303 16.7287 17.993
548 1 -1.1104 6.87792 13.8274 17.8664
556 1 -1.1104 6.91885 19.7128 15.0863
592 1 -1.1104 12.4493 16.7179 20.7953
581 2 2.2208 11.036 18.127 16.5672
582 1 -1.1104 12.5002 13.9143 18.0007
583 1 -1.1104 12.3914 19.4171 17.8723
584 1 -1.1104 12.5311 13.8659 15.257
586 1 -1.1104 12.5541 19.4626 14.9175
588 1 -1.1104 12.3955 16.661 17.9609
589 2 2.2208 11.0771 15.3176 19.4495
590 2 2.2208 11.0353 20.8478 19.3042
591 1 -1.1104 12.3128 16.7032 15.106
593 1 -1.1104 9.66023 14.1237 17.8997
594 1 -1.1104 9.72231 19.6416 17.9048
595 2 2.2208 8.26853 18.0735 19.4504
596 1 -1.1104 9.71902 13.8917 15.2434
598 1 -1.1104 9.71789 19.4786 15.1519
600 2 2.2208 8.19246 15.2962 16.5417
601 2 2.2208 8.39706 20.9942 16.4886
602 1 -1.1104 9.70396 16.9183 18.1109
603 1 -1.1104 9.6291 16.6531 15.3752
565 1 -1.1104 6.80871 16.6362 20.8221
585 1 -1.1104 12.6172 13.869 20.6778
599 1 -1.1104 9.76108 19.4163 20.7101
587 1 -1.1104 12.5586 19.4265 20.8199
699 2 2.2208 8.34976 15.2495 22.1932
439 2 2.2208 -0.207438 -4.32228 16.6082
431 1 -1.1104 4.1825 -2.91546 20.8585
433 1 -1.1104 4.2246 2.74704 20.5945
414 1 -1.1104 1.31496 2.66678 20.9364
438 1 -1.1104 4.09594 -0.0712839 20.8477
634 1 -1.1104 12.3525 13.9171 26.4904
643 2 2.2208 -0.276261 1.35848 22.2747
644 2 2.2208 0.0121216 4.14538 24.9971
609 2 2.2208 5.46246 1.33498 22.225
610 1 -1.1104 1.28514 -2.90554 23.5548
611 1 -1.1104 1.27521 2.78398 23.6737
614 1 -1.1104 1.40928 -2.80413 26.3972
615 1 -1.1104 1.36677 2.71881 26.4523
618 1 -1.1104 1.18881 -0.116091 23.7114
620 2 2.2208 5.6051 -1.58531 25.0468
621 2 2.2208 5.49769 4.12384 25.0098
622 1 -1.1104 1.5177 -0.13043 26.5213
624 1 -1.1104 4.06126 -2.83252 23.7712
625 1 -1.1104 4.08908 2.74561 23.5962
626 2 2.2208 2.71992 1.32632 25.044
627 1 -1.1104 4.1366 -2.96164 26.4308
628 1 -1.1104 4.02721 2.77509 26.3768
629 2 2.2208 2.56245 -1.36598 22.2995
630 2 2.2208 2.74269 4.17095 22.2923
631 1 -1.1104 3.97574 0.089177 23.5653
632 1 -1.1104 4.25138 -0.0854094 26.3089
642 2 2.2208 -0.0736889 -1.50116 25.0125
426 1 -1.1104 6.90401 -0.00686209 20.8465
416 1 -1.1104 6.95221 -2.97474 20.8694
623 1 -1.1104 7.10001 -0.132842 26.5164
613 1 -1.1104 6.90231 2.64165 23.8191
465 1 -1.1104 9.7456 -2.75605 20.8145
617 1 -1.1104 6.98227 2.54187 26.5449
612 1 -1.1104 6.90941 -2.95604 23.5476
619 1 -1.1104 6.86693 -0.0988557 23.7614
616 1 -1.1104 7.09375 -2.82264 26.5002
645 2 2.2208 11.1862 1.30315 22.2128
646 1 -1.1104 12.6096 -2.91291 23.7181
647 1 -1.1104 12.4779 2.78942 23.6157
648 1 -1.1104 12.7832 -2.91735 26.3833
649 1 -1.1104 12.5155 2.80304 26.3879
650 1 -1.1104 12.5422 -0.117162 23.6551
651 2 2.2208 11.1548 -1.57005 25.1279
652 2 2.2208 11.0823 4.22855 24.9211
653 1 -1.1104 12.5445 -0.02405 26.4108
654 1 -1.1104 9.66553 -2.70878 23.6005
655 1 -1.1104 9.60417 2.77644 23.4785
656 2 2.2208 8.34921 1.31782 25.0446
657 1 -1.1104 9.80911 -2.96805 26.4893
658 1 -1.1104 9.8213 2.7378 26.2881
659 2 2.2208 8.32964 -1.47817 22.2744
660 2 2.2208 8.29166 4.18771 22.1803
661 1 -1.1104 9.71981 -0.00642581 23.6249
662 1 -1.1104 9.75335 -0.0969257 26.3881
640 2 2.2208 2.6994 -4.25218 24.9957
352 2 2.2208 5.39575 4.15143 13.8115
703 2 2.2208 -0.160487 12.391 22.2207
496 1 -1.1104 1.20981 5.47835 20.7897
702 2 2.2208 -0.260696 9.6142 25.0042
487 1 -1.1104 1.31266 8.1415 20.7426
498 1 -1.1104 1.42373 10.9841 20.7801
512 1 -1.1104 3.87627 5.43781 20.6869
674 2 2.2208 5.47761 7.00073 22.1854
675 2 2.2208 5.44258 12.3429 22.2929
676 1 -1.1104 1.30641 8.2831 23.647
678 1 -1.1104 1.27836 8.42534 26.4488
680 1 -1.1104 1.35405 5.57755 23.5565
681 1 -1.1104 1.20686 11.111 23.6075
684 2 2.2208 5.57353 9.80211 24.9913
685 1 -1.1104 1.17891 5.58758 26.4592
686 1 -1.1104 1.18859 11.1792 26.4567
689 1 -1.1104 4.20154 8.42116 23.6204
690 2 2.2208 2.74368 6.94162 25.0379
691 2 2.2208 2.56027 12.3845 24.9141
692 1 -1.1104 4.06918 8.33295 26.384
693 2 2.2208 2.72678 9.67363 22.2417
694 1 -1.1104 4.0652 5.45264 23.7177
695 1 -1.1104 3.97807 11.0337 23.7162
696 1 -1.1104 4.09779 5.48069 26.3418
697 1 -1.1104 4.03851 11.2393 26.4691
444 2 2.2208 -0.0780589 6.90951 22.1547
698 1 -1.1104 9.87347 19.5949 26.375
641 2 2.2208 11.1234 20.8666 24.9238
682 1 -1.1104 6.83883 5.40058 23.4968
502 1 -1.1104 6.9813 11.066 20.9054
500 1 -1.1104 6.81765 5.68415 20.6855
534 1 -1.1104 9.76005 8.32373 20.9006
529 1 -1.1104 12.5038 11.0582 20.8723
688 1 -1.1104 6.93526 11.139 26.4541
489 1 -1.1104 6.85875 8.28675 20.7577
541 1 -1.1104 9.80853 10.9324 20.7908
527 1 -1.1104 12.6161 5.50335 20.893
687 1 -1.1104 6.86768 5.55501 26.3458
677 1 -1.1104 6.89992 8.27796 23.6728
683 1 -1.1104 6.99803 11.004 23.6833
679 1 -1.1104 6.90279 8.24098 26.3571
705 1 -1.1104 9.62739 11.179 26.2252
706 1 -1.1104 9.57661 5.51028 26.2643
707 1 -1.1104 9.79456 10.9502 23.6044
708 1 -1.1104 9.64634 5.48727 23.5289
709 2 2.2208 8.25803 9.70469 22.2756
710 1 -1.1104 9.84269 8.2256 26.4238
711 2 2.2208 8.29767 12.6033 25.0288
712 2 2.2208 8.26201 6.87362 24.9579
713 2 2.2208 11.2031 6.97156 22.1817
714 2 2.2208 11.177 12.3993 22.1678
715 1 -1.1104 12.6235 8.36395 23.5377
716 1 -1.1104 12.563 8.41369 26.2779
717 1 -1.1104 12.5004 5.60418 23.711
718 1 -1.1104 12.6531 11.102 23.5888
719 2 2.2208 11.1192 9.62365 24.9434
720 1 -1.1104 12.5097 5.54025 26.5446
721 1 -1.1104 12.3913 11.1418 26.4158
722 1 -1.1104 9.63553 8.26691 23.5628
701 1 -1.1104 9.65359 16.7325 23.4789
724 2 2.2208 -0.151082 21.0546 24.9632
553 1 -1.1104 1.23257 19.6926 20.7346
572 1 -1.1104 4.11063 19.4834 20.895
570 1 -1.1104 4.0234 13.6444 20.839
551 1 -1.1104 1.18438 13.8428 20.886
577 1 -1.1104 3.99493 16.5877 20.7828
563 1 -1.1104 1.28509 16.6882 20.82
746 1 -1.1104 4.11537 14.035 26.3706
745 1 -1.1104 4.06052 16.7205 26.4198
744 2 2.2208 2.60693 18.1178 24.9566
743 1 -1.1104 4.10806 19.474 26.3438
742 2 2.2208 5.5187 17.9531 22.1
741 1 -1.1104 1.3235 13.9343 23.7227
750 2 2.2208 2.75434 20.9523 22.2015
749 1 -1.1104 4.1332 16.5811 23.5323
748 1 -1.1104 1.32691 16.8806 23.5635
727 2 2.2208 2.61491 15.2385 22.2601
729 1 -1.1104 4.0715 19.4756 23.6062
731 1 -1.1104 4.00266 13.8122 23.5585
733 1 -1.1104 1.36332 19.7007 26.3617
734 1 -1.1104 1.21072 16.6865 26.3106
735 1 -1.1104 1.20295 13.9198 26.4719
737 2 2.2208 5.26711 20.8936 25.0089
738 2 2.2208 5.47325 15.3056 24.867
740 1 -1.1104 1.16819 19.575 23.5517
723 2 2.2208 -0.140732 18.1744 22.1772
725 2 2.2208 -0.127448 15.2955 25.1285
747 1 -1.1104 6.9659 16.6161 23.5585
736 1 -1.1104 6.92198 19.4217 23.4593
739 1 -1.1104 6.72303 13.8272 23.4332
730 1 -1.1104 6.86625 14.0067 26.2809
670 1 -1.1104 6.92759 19.5456 26.3928
597 1 -1.1104 9.65056 13.7379 20.7014
555 1 -1.1104 6.86145 13.8488 20.7545
732 1 -1.1104 6.80079 16.7648 26.2765
608 1 -1.1104 12.4026 13.9532 23.4357
636 1 -1.1104 12.373 16.6109 23.509
665 1 -1.1104 9.72631 19.4907 23.616
667 2 2.2208 8.24037 18.1897 24.9417
673 1 -1.1104 9.56374 13.9325 26.4216
663 1 -1.1104 12.3032 16.6973 26.2828
604 1 -1.1104 9.63808 16.6288 20.7735
638 2 2.2208 10.9852 15.2627 24.8657
704 1 -1.1104 9.63982 16.7951 26.3368
700 2 2.2208 8.18795 20.9088 22.0795
557 1 -1.1104 6.92138 19.5012 20.7079
369 2 2.2208 5.50691 20.8699 13.657
353 2 2.2208 8.25944 -4.23497 13.8208
360 2 2.2208 5.44268 9.81943 13.8042
441 2 2.2208 2.57545 -4.22752 19.3718
361 2 2.2208 2.63815 12.5878 13.7743
358 2 2.2208 -0.0626667 9.76425 13.7454
669 2 2.2208 8.22552 -4.25099 25.0159
368 2 2.2208 2.667 18.1318 13.861
372 2 2.2208 11.0854 20.8775 13.7972
348 2 2.2208 5.42512 -1.53055 13.823
373 2 2.2208 11.0505 15.2883 13.933
359 2 2.2208 2.70015 7.00789 13.9999
355 2 2.2208 8.23532 1.28803 13.7647
751 2 2.2208 5.45017 23.7057 5.4024
752 2 2.2208 5.48949 29.313 5.31209
753 1 -1.1104 1.10489 25.1646 1.06896
754 1 -1.1104 1.26702 25.2076 3.90834
755 1 -1.1104 1.36118 22.2299 1.22761
756 1 -1.1104 1.36065 28.1111 0.900033
757 2 2.2208 5.35543 26.4931 2.50805
758 1 -1.1104 1.23201 22.3676 3.85939
759 1 -1.1104 1.34604 27.8819 3.73382
760 1 -1.1104 3.94609 25.0748 0.92223
761 2 2.2208 2.65167 23.712 2.47381
762 2 2.2208 2.74217 29.3621 2.42279
763 1 -1.1104 3.98572 25.0772 3.86152
764 2 2.2208 2.64067 26.6288 5.43332
765 1 -1.1104 4.11268 22.4223 1.14468
766 1 -1.1104 4.13038 27.97 1.03226
767 1 -1.1104 4.07503 22.2988 4.04582
768 1 -1.1104 4.01524 27.9141 3.81492
894 1 -1.1104 1.12751 22.2129 6.64113
769 2 2.2208 -0.164168 29.3281 5.19996
770 2 2.2208 -0.16162 23.7522 5.40337
771 2 2.2208 -0.247537 26.4507 2.50403
1685 1 -1.1104 3.80954 47.5203 12.3868
1069 2 2.2208 13.5948 43.2406 5.2882
1671 1 -1.1104 1.18052 47.4757 12.3056
871 2 2.2208 -0.119509 40.7144 5.17915
1065 2 2.2208 10.9722 40.5958 10.7861
776 1 -1.1104 6.89373 22.2311 3.91385
777 1 -1.1104 6.95371 27.8186 3.88061
772 1 -1.1104 6.90237 25.0279 1.10172
775 1 -1.1104 6.77131 27.9318 1.13043
774 1 -1.1104 6.84044 22.3635 1.09865
773 1 -1.1104 7.03338 25.1385 3.85473
778 2 2.2208 11.0583 23.7463 5.25854
779 2 2.2208 11.0253 29.3127 5.17911
780 1 -1.1104 12.4385 25.1703 0.856829
781 1 -1.1104 12.3688 25.2568 3.90498
782 1 -1.1104 12.4862 22.2473 1.17929
783 1 -1.1104 12.5136 27.8774 1.0672
784 2 2.2208 11.04 26.5122 2.40329
785 1 -1.1104 12.4217 22.2665 3.88772
786 1 -1.1104 12.3405 27.9354 3.75255
787 1 -1.1104 9.55103 25.2269 1.09034
788 2 2.2208 8.18589 23.7254 2.45793
789 2 2.2208 8.19502 29.2069 2.44888
790 1 -1.1104 9.74485 25.0995 3.72718
791 2 2.2208 8.38078 26.5537 5.31435
792 1 -1.1104 9.64621 22.3015 0.927064
793 1 -1.1104 9.57085 27.9947 1.14765
794 1 -1.1104 9.62139 22.2038 3.74456
795 1 -1.1104 9.67654 27.8136 3.93198
930 1 -1.1104 9.75766 27.8256 6.74275
927 1 -1.1104 12.443 28.0524 6.51684
1674 1 -1.1104 1.0701 47.5555 9.54544
893 1 -1.1104 6.73936 25.0775 6.86039
1474 1 -1.1104 6.92452 47.3526 1.04493
1700 1 -1.1104 9.37108 47.5 6.78843
799 2 2.2208 5.47603 35.0119 5.34835
800 1 -1.1104 1.1029 30.7116 1.04712
801 1 -1.1104 1.24381 36.3971 1.1027
803 1 -1.1104 1.27699 30.7154 3.82935
804 1 -1.1104 1.22191 36.4667 3.93812
806 1 -1.1104 1.22245 33.5353 1.00323
807 2 2.2208 5.40171 32.1574 2.5536
808 2 2.2208 5.59799 37.7131 2.3967
809 1 -1.1104 1.32028 33.5721 3.68483
811 1 -1.1104 3.98921 30.7483 1.12926
812 1 -1.1104 4.01548 36.3188 0.968688
813 2 2.2208 2.56967 34.9719 2.47572
814 1 -1.1104 4.05151 30.7406 3.85754
815 1 -1.1104 3.99323 36.3054 3.87884
816 2 2.2208 2.59799 32.2783 5.25343
817 2 2.2208 2.59215 37.7632 5.30243
818 1 -1.1104 3.91266 33.6251 1.15767
819 1 -1.1104 4.11322 33.5516 3.84985
956 1 -1.1104 4.14023 36.4211 6.64419
822 2 2.2208 -0.12319 32.0999 2.48528
820 2 2.2208 -0.198057 34.9748 5.39804
955 1 -1.1104 3.99429 30.7749 6.6128
821 2 2.2208 -0.0955712 37.7962 2.39445
805 1 -1.1104 6.8367 36.3588 4.00435
1054 2 2.2208 10.9155 43.4106 8.16612
1011 1 -1.1104 6.58857 44.6868 9.36678
1026 1 -1.1104 6.56875 44.674 6.5756
810 1 -1.1104 7.07736 33.586 3.93082
802 1 -1.1104 6.9581 36.3918 1.09722
824 1 -1.1104 6.75605 30.7706 3.83222
825 1 -1.1104 6.75015 33.5747 1.1152
823 1 -1.1104 6.86681 30.6813 0.974657
826 2 2.2208 10.9788 34.8711 5.27933
827 1 -1.1104 12.4149 30.618 0.969711
828 1 -1.1104 12.399 36.4432 1.02061
829 1 -1.1104 12.4482 30.7549 3.86859
830 1 -1.1104 12.4658 36.3111 3.85537