ITEM: TIMESTEP
70000
ITEM: NUMBER OF ATOMS
17730
ITEM: BOX BOUNDS pp pp pp
-3.5523986575320649e-01 2.7695239865753347e+01
-4.2425720054823772e+00 3.3232257200546616e+02
-3.5733371115365781e-01 2.7697333711153100e+01
ITEM: ATOMS id type q x y z
1 2 2.2208 5.64033 1.28735 5.36213
2 1 -1.1104 1.31407 -2.76665 1.15207
3 1 -1.1104 1.37742 2.72183 1.23701
6 1 -1.1104 1.25681 -2.66956 4.0572
7 1 -1.1104 1.42369 2.8265 3.95159
10 1 -1.1104 1.409 0.0140073 1.17008
12 2 2.2208 5.49507 -1.49998 2.52459
13 2 2.2208 5.4556 4.29968 2.58573
14 1 -1.1104 1.37131 0.0950619 3.81198
16 1 -1.1104 4.285 -3.02905 1.17285
17 1 -1.1104 4.04732 2.7105 1.15507
18 2 2.2208 2.65533 1.39053 2.59502
19 1 -1.1104 4.06941 -2.69934 4.00908
20 1 -1.1104 4.27955 2.90443 3.9743
21 2 2.2208 2.71198 -1.3854 5.33449
22 2 2.2208 2.81967 4.16444 5.44194
23 1 -1.1104 4.16069 -0.203658 1.16287
24 1 -1.1104 4.03353 0.0443479 3.9278
383 2 2.2208 2.7858 4.21714 -0.156761
26 2 2.2208 -0.167554 1.44662 5.32492
27 2 2.2208 -0.0194856 4.19246 2.66277
25 2 2.2208 -0.0121555 -1.2621 2.4237
170 1 -1.1104 1.28178 -0.0554658 6.74708
395 2 2.2208 5.5326 12.6223 -0.205735
118 1 -1.1104 6.92795 16.7726 6.84751
382 2 2.2208 2.64113 -1.57145 -0.331995
381 2 2.2208 5.4711 1.25377 -0.245238
386 2 2.2208 -0.0497296 1.32817 -0.238187
9 1 -1.1104 7.05798 2.82918 3.91688
5 1 -1.1104 6.88876 2.72574 1.1223
15 1 -1.1104 6.86576 -0.15058 3.89537
4 1 -1.1104 7.13903 -2.69091 1.23236
11 1 -1.1104 6.91497 -0.0861065 1.15066
8 1 -1.1104 6.86687 -2.90875 4.03851
31 2 2.2208 11.1084 1.32612 5.38244
32 1 -1.1104 12.5585 -2.79462 1.06987
33 1 -1.1104 12.5485 2.90953 1.22725
34 1 -1.1104 12.4201 -2.72573 3.90552
35 1 -1.1104 12.4629 2.90991 3.94442
36 1 -1.1104 12.6468 0.0551666 1.19478
37 2 2.2208 11.3181 -1.30841 2.58334
38 2 2.2208 11.0347 4.18632 2.62076
39 1 -1.1104 12.6191 0.0636882 4.01086
40 1 -1.1104 9.83899 -2.83732 1.15347
41 1 -1.1104 9.862 2.69944 1.36739
42 2 2.2208 8.26881 1.44678 2.63663
43 1 -1.1104 9.87666 -2.93642 3.9074
44 1 -1.1104 9.68527 2.7522 4.11942
45 2 2.2208 8.39075 -1.49887 5.29673
46 2 2.2208 8.2885 4.27679 5.31628
47 1 -1.1104 9.85557 -0.0166919 1.17861
48 1 -1.1104 9.69427 -0.119312 4.0086
208 1 -1.1104 9.76728 -2.8052 6.79226
210 1 -1.1104 9.6317 -0.0179839 6.85928
145 1 -1.1104 12.4486 19.7539 6.78603
306 1 -1.1104 7.00918 16.8225 12.2645
389 2 2.2208 8.41701 4.14235 -0.200411
388 2 2.2208 8.43092 -1.42963 -0.291738
52 2 2.2208 11.1854 -4.17037 5.40964
290 1 -1.1104 6.7526 14.0305 9.60239
396 2 2.2208 -0.0263145 12.5083 -0.241282
54 2 2.2208 5.58296 7.0846 5.37699
55 2 2.2208 5.54711 12.6088 5.43482
56 1 -1.1104 1.42862 8.52081 1.19211
58 1 -1.1104 1.36275 8.47369 3.98646
60 1 -1.1104 1.31938 5.68893 1.29256
61 1 -1.1104 1.15678 11.227 1.2807
66 2 2.2208 5.55889 9.7533 2.57927
67 1 -1.1104 1.33801 5.62414 3.98127
68 1 -1.1104 1.34833 11.3657 4.06404
71 1 -1.1104 4.12078 8.31446 1.16319
72 2 2.2208 2.64169 7.04612 2.68972
73 2 2.2208 2.8586 12.5822 2.6785
74 1 -1.1104 4.15495 8.38713 4.03947
75 2 2.2208 2.75291 9.87078 5.44335
76 1 -1.1104 3.98197 5.54864 1.23561
77 1 -1.1104 4.16172 11.2186 1.24653
79 1 -1.1104 4.03254 5.70003 3.99426
80 1 -1.1104 4.15154 11.1574 3.92153
83 2 2.2208 -0.0902773 12.6537 5.3987
81 2 2.2208 -0.173361 6.98958 5.39144
82 2 2.2208 -0.0959311 9.80614 2.67192
394 2 2.2208 2.64083 9.80093 -0.164371
393 2 2.2208 5.45394 6.9514 -0.209987
397 2 2.2208 -0.0168064 6.89638 -0.183748
325 2 2.2208 11.0534 15.4029 8.20994
70 1 -1.1104 6.93576 11.2782 3.99145
63 1 -1.1104 6.75193 5.54451 1.22712
57 1 -1.1104 6.9851 8.25665 1.18191
64 1 -1.1104 6.82538 11.1821 1.12584
69 1 -1.1104 6.88067 5.61851 3.96816
59 1 -1.1104 6.90283 8.37951 3.96737
84 2 2.2208 11.085 6.94947 5.39949
85 2 2.2208 11.1724 12.7719 5.42726
86 1 -1.1104 12.5329 8.45955 1.10646
87 1 -1.1104 12.3636 8.48747 3.92741
88 1 -1.1104 12.5205 5.71358 1.10727
89 1 -1.1104 12.486 11.123 1.26995
91 2 2.2208 11.0168 9.93838 2.60006
92 1 -1.1104 12.4858 5.71468 3.99412
93 1 -1.1104 12.3948 11.2333 4.03596
94 1 -1.1104 9.66941 8.4457 1.19568
95 2 2.2208 8.34191 7.0047 2.61599
96 2 2.2208 8.24226 12.6826 2.44288
97 1 -1.1104 9.6818 8.6817 3.94807
98 2 2.2208 8.4098 9.96458 5.36292
99 1 -1.1104 9.7418 5.62637 1.17753
100 1 -1.1104 9.52706 11.2747 1.10501
102 1 -1.1104 9.64529 5.66452 3.9513
103 1 -1.1104 9.71905 11.4771 4.04333
400 2 2.2208 11.125 12.4585 -0.31013
235 1 -1.1104 6.9901 8.51487 6.77611
267 1 -1.1104 9.81573 8.49151 6.76204
398 2 2.2208 11.1474 7.07373 -0.252881
405 2 2.2208 2.53133 21.0032 -0.256838
401 2 2.2208 -0.0695524 18.2233 -0.232535
106 2 2.2208 5.422 18.3388 5.33527
107 1 -1.1104 1.33979 13.9663 1.16752
109 1 -1.1104 1.189 19.5741 1.01646
113 1 -1.1104 1.26686 14.1966 4.06311
114 1 -1.1104 1.17007 19.6694 3.83691
116 1 -1.1104 1.33225 16.8937 1.08928
119 2 2.2208 5.39474 15.614 2.48758
120 2 2.2208 5.47353 21.0578 2.47609
121 1 -1.1104 1.25677 16.8122 3.8606
123 1 -1.1104 4.11781 13.9013 1.19732
125 1 -1.1104 4.06979 19.5405 1.07268
127 2 2.2208 2.69051 18.2539 2.57056
128 1 -1.1104 4.03174 14.0364 4.10416
129 1 -1.1104 3.96064 19.6115 4.05551
130 2 2.2208 2.67467 15.5453 5.28277
131 2 2.2208 2.58574 21.1931 5.35729
132 1 -1.1104 4.10833 16.7421 0.991205
134 1 -1.1104 4.03842 16.83 3.85314
126 1 -1.1104 4.06924 19.6886 6.85357
137 2 2.2208 -0.0735203 18.2566 5.32275
136 2 2.2208 -0.279577 21.0096 2.52898
403 2 2.2208 2.62687 15.4222 -0.257861
135 2 2.2208 -0.215346 15.4628 2.59455
404 2 2.2208 5.43902 18.2029 -0.280863
379 2 2.2208 8.31014 21.0985 -0.258916
139 1 -1.1104 6.87964 19.8151 3.94312
115 1 -1.1104 6.84485 14.1746 3.79513
138 1 -1.1104 6.83446 19.6602 1.19471
110 1 -1.1104 6.78118 14.1108 0.993558
122 1 -1.1104 6.80478 17.0318 4.04133
140 1 -1.1104 6.82803 16.843 1.33496
141 2 2.2208 11.0013 18.2368 5.5209
142 1 -1.1104 12.36 14.0488 0.98613
144 1 -1.1104 12.4089 19.657 1.16747
146 1 -1.1104 12.5571 14.0685 3.88426
147 1 -1.1104 12.3802 19.5274 3.89927
148 1 -1.1104 12.418 16.791 1.23035
150 2 2.2208 10.9706 15.4906 2.57494
151 2 2.2208 10.9547 20.9602 2.64026
152 1 -1.1104 12.4156 16.8265 4.14747
153 1 -1.1104 9.65039 14.0026 1.18628
155 1 -1.1104 9.67496 19.5705 1.25082
157 2 2.2208 8.26545 18.3001 2.62061
158 1 -1.1104 9.6894 14.1934 4.00531
159 1 -1.1104 9.62336 19.7916 4.08499
160 2 2.2208 8.11742 15.5042 5.28548
161 2 2.2208 8.23226 21.1839 5.3538
162 1 -1.1104 9.68417 16.7988 1.05659
164 1 -1.1104 9.65885 16.951 3.96756
377 2 2.2208 8.17266 15.4199 -0.308132
378 2 2.2208 11.1044 18.1696 -0.218246
173 1 -1.1104 4.2206 2.76572 6.86668
322 1 -1.1104 9.73551 13.8617 12.3539
200 2 2.2208 -0.0514407 -1.4185 8.03306
172 1 -1.1104 3.98989 -3.03984 6.69931
167 1 -1.1104 1.43308 2.73464 6.58793
174 1 -1.1104 4.18958 -0.136078 6.77807
166 1 -1.1104 1.23354 -2.87747 6.74778
175 2 2.2208 5.65743 1.36163 10.8865
176 1 -1.1104 1.31277 -2.84201 12.3724
177 1 -1.1104 1.26731 2.79443 12.3815
180 1 -1.1104 1.44426 -2.87925 9.5974
181 1 -1.1104 1.44872 2.82064 9.5831
184 1 -1.1104 1.37754 0.0747595 12.3707
186 2 2.2208 5.57725 -1.48248 8.12132
188 1 -1.1104 1.30318 -0.0747435 9.49868
190 1 -1.1104 4.0789 -2.83942 12.2513
191 1 -1.1104 4.08126 2.75714 12.4391
192 2 2.2208 2.75025 1.29028 8.17317
193 1 -1.1104 4.34026 -2.92019 9.37847
194 1 -1.1104 4.22826 2.76063 9.59992
195 2 2.2208 2.70986 -1.31111 10.9963
196 2 2.2208 2.71557 4.09416 10.9851
197 1 -1.1104 4.10837 -0.005415 12.4921
198 1 -1.1104 4.19634 0.01515 9.69903
187 2 2.2208 5.57248 4.293 8.15781
199 2 2.2208 0.0224451 4.27696 8.12974
178 1 -1.1104 6.70737 -2.8351 12.3479
399 2 2.2208 8.2832 9.79183 -0.264738
201 2 2.2208 -0.0695458 1.42751 10.9131
320 2 2.2208 8.36778 18.1518 8.3032
331 2 2.2208 11.1313 18.1569 11.1905
171 1 -1.1104 6.942 -0.00866405 6.65218
205 1 -1.1104 12.5896 -2.77711 6.7367
207 1 -1.1104 12.434 0.048511 6.76773
209 1 -1.1104 9.71009 2.7515 6.79908
168 1 -1.1104 6.99638 -2.87939 6.84149
206 1 -1.1104 12.6098 2.86127 6.8138
169 1 -1.1104 6.86435 2.99502 6.75723
189 1 -1.1104 7.01984 0.0211549 9.38496
182 1 -1.1104 7.11062 -2.87441 9.61125
185 1 -1.1104 6.92416 -0.0131855 12.2358
183 1 -1.1104 6.97662 3.02621 9.62335
179 1 -1.1104 7.09326 2.63695 12.3075
211 2 2.2208 11.215 1.36836 11.0722
212 1 -1.1104 12.402 -2.7354 12.2656
213 1 -1.1104 12.6778 2.69256 12.3438
214 1 -1.1104 12.6606 -2.95121 9.39744
215 1 -1.1104 12.6992 2.67696 9.62879
216 1 -1.1104 12.6383 0.0101864 12.3956
217 2 2.2208 11.1413 -1.35885 8.16836
219 1 -1.1104 12.6138 -0.0506247 9.73802
220 1 -1.1104 9.63735 -2.9235 12.5305
221 1 -1.1104 9.88166 3.02513 12.3309
222 2 2.2208 8.29299 1.38416 8.16795
223 1 -1.1104 9.86374 -2.73373 9.54019
224 1 -1.1104 9.86587 2.59568 9.46482
225 2 2.2208 8.33292 -1.42595 10.9523
226 2 2.2208 8.32417 4.37918 10.9278
227 1 -1.1104 9.86752 -0.049795 12.3976
228 1 -1.1104 9.73408 -0.0318265 9.58903
218 2 2.2208 11.0584 4.12082 8.11878
289 1 -1.1104 6.97622 16.8187 9.58211
344 2 2.2208 -0.068983 6.9693 11.0583
342 2 2.2208 -0.0209053 12.6695 11.0469
78 1 -1.1104 4.14888 11.1675 6.81738
238 1 -1.1104 4.21677 8.49505 6.86831
62 1 -1.1104 1.25663 11.1595 6.76246
234 1 -1.1104 1.43939 8.32224 6.86128
239 1 -1.1104 4.19717 5.63954 6.82901
236 1 -1.1104 1.32347 5.61778 6.69846
240 2 2.2208 5.59645 6.93356 11.0399
241 2 2.2208 5.45591 12.4735 11.0235
242 1 -1.1104 1.39837 8.44176 12.4396
244 1 -1.1104 1.42607 8.30239 9.67425
246 1 -1.1104 1.32593 5.42481 12.2429
247 1 -1.1104 1.35689 11.2714 12.2573
250 2 2.2208 5.56106 9.83438 8.22698
251 1 -1.1104 1.29054 5.51253 9.52765
252 1 -1.1104 1.54636 10.9879 9.57011
255 1 -1.1104 4.06044 8.35772 12.4546
256 2 2.2208 2.78236 6.98 8.16482
257 2 2.2208 2.62307 12.6952 8.2984
258 1 -1.1104 4.26086 8.34715 9.84041
259 2 2.2208 2.74298 9.86989 11.0829
260 1 -1.1104 4.23674 5.51227 12.4982
261 1 -1.1104 4.06147 11.1466 12.4309
262 1 -1.1104 4.1227 5.52525 9.54775
263 1 -1.1104 4.06104 11.2941 9.60218
343 2 2.2208 -0.0528456 9.63853 8.29165
237 1 -1.1104 6.93858 5.70013 6.8343
65 1 -1.1104 6.96837 11.1973 6.79457
243 1 -1.1104 7.02227 8.42359 12.3799
269 1 -1.1104 9.69072 5.61566 6.73244
90 1 -1.1104 12.5301 11.0982 6.90084
266 1 -1.1104 12.381 5.62997 6.72854
265 1 -1.1104 12.6109 8.30964 6.74454
101 1 -1.1104 9.88797 11.4824 6.83395
245 1 -1.1104 7.00195 8.50397 9.57034
254 1 -1.1104 7.00308 11.3442 9.7257
249 1 -1.1104 6.94393 11.1616 12.4643
253 1 -1.1104 6.86665 5.70043 9.58508
248 1 -1.1104 6.99128 5.58407 12.2886
264 1 -1.1104 9.7901 11.2768 9.5052
268 1 -1.1104 9.53056 5.56829 9.48363
270 1 -1.1104 9.92225 11.1458 12.4221
271 1 -1.1104 9.89912 5.87623 12.3519
272 2 2.2208 8.36917 9.81063 10.9372
273 1 -1.1104 9.99376 8.47449 9.58486
274 2 2.2208 8.26141 12.7377 8.19259
275 2 2.2208 8.38941 7.1352 8.12915
276 2 2.2208 11.2023 7.05268 11.0449
277 2 2.2208 11.1988 12.5411 10.9948
278 1 -1.1104 12.5718 8.40992 12.6186
279 1 -1.1104 12.5676 8.3944 9.63203
280 1 -1.1104 12.7337 5.56809 12.2765
281 1 -1.1104 12.5628 11.1233 12.3226
282 2 2.2208 11.186 9.91062 8.21228
283 1 -1.1104 12.4336 5.36717 9.42426
284 1 -1.1104 12.6299 11.1611 9.60784
285 1 -1.1104 9.75166 8.57139 12.3219
317 2 2.2208 8.28967 15.3664 10.9854
302 1 -1.1104 1.22921 19.7963 6.57324
133 1 -1.1104 4.08627 16.8846 6.68452
124 1 -1.1104 4.09615 14.0636 6.9325
313 2 2.2208 -0.202881 15.5198 8.17829
108 1 -1.1104 1.12215 14.1386 6.88713
117 1 -1.1104 1.09229 16.826 6.74246
292 1 -1.1104 1.43651 16.8305 9.64284
310 2 2.2208 2.7034 15.4356 10.9269
309 2 2.2208 2.63632 21.0496 11.0339
308 1 -1.1104 4.13545 16.6489 12.3691
307 1 -1.1104 1.29275 16.8705 12.3092
291 1 -1.1104 1.22414 19.5433 9.53786
287 1 -1.1104 4.1088 13.8718 12.41
305 1 -1.1104 4.01839 14.1132 9.64597
304 1 -1.1104 4.26986 16.8196 9.58327
303 2 2.2208 2.7659 18.2185 8.11227
301 1 -1.1104 3.96689 19.5855 9.48869
300 2 2.2208 5.53452 18.2383 10.9856
299 1 -1.1104 1.391 14.1211 12.3841
298 1 -1.1104 1.39626 19.5972 12.4441
286 1 -1.1104 4.16116 19.5272 12.4133
295 2 2.2208 5.46871 15.5379 8.1956
294 1 -1.1104 1.16983 13.8518 9.5321
293 2 2.2208 5.48314 21.0709 8.17435
312 2 2.2208 -0.102133 18.2904 10.9866
311 2 2.2208 -0.294804 21.0032 8.18632
296 1 -1.1104 7.02573 19.6233 12.515
321 1 -1.1104 9.83375 19.5962 12.361
323 1 -1.1104 12.5151 16.8597 9.67663
319 1 -1.1104 9.64607 14.039 9.56504
318 1 -1.1104 9.70325 19.644 9.62051
297 1 -1.1104 6.95498 13.9664 12.2974
111 1 -1.1104 6.83937 14.0557 6.65484
149 1 -1.1104 12.4166 16.7201 6.84249
156 1 -1.1104 9.7218 19.5414 6.90441
154 1 -1.1104 9.57024 14.1382 6.71767
327 1 -1.1104 12.3093 19.6209 9.73698
143 1 -1.1104 12.7007 13.9216 6.7308
314 1 -1.1104 9.68154 16.8533 9.72832
329 1 -1.1104 12.5522 19.5257 12.5811
330 1 -1.1104 12.55 13.9804 12.375
326 1 -1.1104 12.5361 16.8018 12.3646
324 2 2.2208 11.0591 20.9753 8.33045
112 1 -1.1104 6.85263 19.7602 6.96933
315 1 -1.1104 9.84765 16.7551 12.4717
316 2 2.2208 8.34946 21.1018 10.9456
163 1 -1.1104 9.70595 16.8271 6.85366
288 1 -1.1104 6.83214 19.7078 9.67954
328 1 -1.1104 12.5107 14.0707 9.59194
387 2 2.2208 11.235 1.35148 -0.198956
30 2 2.2208 -0.0394475 -4.20641 5.306
390 2 2.2208 11.1507 -4.17005 -0.149987
204 2 2.2208 -0.0153772 -4.25726 11.0083
51 2 2.2208 8.33921 -4.17529 2.4912
203 2 2.2208 5.58722 -4.26991 10.9003
29 2 2.2208 5.54628 -4.26025 5.33572
231 2 2.2208 8.38917 -4.16657 8.17399
406 2 2.2208 5.53742 1.39512 16.668
407 1 -1.1104 1.29346 -2.72132 18.2328
408 1 -1.1104 1.36007 2.7389 17.7738
411 1 -1.1104 1.2919 -2.82438 15.1565
413 1 -1.1104 1.40517 2.71968 15.1748
419 1 -1.1104 1.28613 0.0163819 18.0069
421 2 2.2208 5.49948 -1.4357 19.4248
422 2 2.2208 5.58611 4.25121 19.3936
423 1 -1.1104 1.38604 -0.0697357 15.121
427 1 -1.1104 3.96561 -2.79535 17.9121
428 1 -1.1104 4.17189 2.91982 18.0001
429 2 2.2208 2.80031 1.43428 19.3511
430 1 -1.1104 4.04779 -2.89531 14.9114
432 1 -1.1104 4.15061 2.74758 15.1524
434 2 2.2208 2.66042 -1.47626 16.531
435 2 2.2208 2.75571 4.23318 16.518
436 1 -1.1104 4.06748 -0.138493 18.091
437 1 -1.1104 4.18196 -0.00832522 15.343
442 2 2.2208 -0.0205015 1.46394 16.5164
592 1 -1.1104 12.4035 16.754 20.8142
544 2 2.2208 -0.127493 4.17607 19.3859
348 2 2.2208 5.45715 -1.41494 13.9047
443 2 2.2208 -0.138222 -1.27621 19.4493
367 2 2.2208 -0.00859681 4.11906 13.8266
349 2 2.2208 2.72264 1.2737 13.845
352 2 2.2208 5.58418 4.09636 13.7453
410 1 -1.1104 6.80208 2.81952 17.9729
409 1 -1.1104 6.862 -2.77473 17.9222
415 1 -1.1104 6.87005 -2.71329 15.3147
420 1 -1.1104 6.77696 -0.0530595 17.991
417 1 -1.1104 6.92588 2.78206 15.1749
425 1 -1.1104 6.91096 -0.0369278 15.0897
449 2 2.2208 11.0035 1.36557 16.6299
450 1 -1.1104 12.6101 -2.88257 17.9797
451 1 -1.1104 12.5928 2.63264 17.9066
452 1 -1.1104 12.4784 -2.84756 15.0893
454 1 -1.1104 12.6158 2.78669 15.1721
456 1 -1.1104 12.4958 -0.23291 17.8745
457 2 2.2208 11.0261 -1.40625 19.3787
459 1 -1.1104 12.5072 -0.0024615 15.1669
461 1 -1.1104 9.64046 -2.88217 17.9142
462 1 -1.1104 9.57319 2.70755 17.8879
463 2 2.2208 8.21968 1.29778 19.4437
464 1 -1.1104 9.73502 -2.84696 15.1086
466 1 -1.1104 9.79186 2.64332 15.0576
468 2 2.2208 8.26513 -1.38776 16.5333
470 1 -1.1104 9.63701 -0.0688795 17.9296
471 1 -1.1104 9.74779 -0.0777173 15.2579
458 2 2.2208 11.0867 4.0785 19.3777
469 2 2.2208 8.28426 4.10724 16.4112
356 2 2.2208 11.1959 -1.43775 13.7394
355 2 2.2208 8.30598 1.30524 13.7078
357 2 2.2208 11.2511 4.1871 13.7416
358 2 2.2208 -0.0652999 9.87895 13.8736
482 2 2.2208 5.43166 7.05088 16.4481
483 2 2.2208 5.50424 12.6767 16.5924
484 1 -1.1104 1.26578 8.44501 17.9616
486 1 -1.1104 1.3212 8.44479 15.1642
490 1 -1.1104 1.28172 5.47096 17.9134
491 1 -1.1104 1.32153 11.2251 18.0176
494 2 2.2208 5.49774 9.86791 19.345
495 1 -1.1104 1.28648 5.5974 15.1173
497 1 -1.1104 1.41836 11.2089 15.2045
503 1 -1.1104 4.12015 8.47721 17.7861
504 2 2.2208 2.67415 7.07852 19.3668
505 2 2.2208 2.77271 12.5955 19.3494
506 1 -1.1104 4.11461 8.3504 15.0043
508 2 2.2208 2.7334 9.79571 16.5509
509 1 -1.1104 3.97347 5.60922 18.0767
510 1 -1.1104 4.05212 11.1866 17.972
511 1 -1.1104 4.14034 5.57702 15.2049
513 1 -1.1104 4.24126 11.1292 15.1448
481 2 2.2208 -0.18321 7.09874 16.5083
515 2 2.2208 -0.0223045 9.84323 19.4097
516 2 2.2208 -0.0662188 12.7498 16.5853
346 2 2.2208 -0.0824393 -1.43438 13.7914
360 2 2.2208 5.57213 9.85597 13.8431
359 2 2.2208 2.704 6.9952 13.7952
364 2 2.2208 11.1643 9.78196 13.896
485 1 -1.1104 6.86947 8.33187 17.9001
493 1 -1.1104 6.89001 11.2809 17.9899
499 1 -1.1104 6.77173 5.42553 15.2149
365 2 2.2208 8.3494 12.4995 13.7662
501 1 -1.1104 6.94315 11.162 15.1878
492 1 -1.1104 6.80726 5.64949 17.9738
488 1 -1.1104 6.89213 8.45819 15.3021
518 2 2.2208 11.0507 6.95258 16.6441
519 2 2.2208 11.1518 12.6581 16.5908
520 1 -1.1104 12.6328 8.45303 17.9765
521 1 -1.1104 12.5397 8.2313 15.318
523 1 -1.1104 12.4911 5.56511 17.9437
524 1 -1.1104 12.4999 11.1191 17.9589
525 2 2.2208 11.1623 9.87073 19.368
526 1 -1.1104 12.4673 5.57453 15.1983
528 1 -1.1104 12.6548 11.3435 15.2718
530 1 -1.1104 9.74795 8.53491 17.95
531 2 2.2208 8.26311 6.98625 19.237
532 2 2.2208 8.30169 12.6187 19.2566
533 1 -1.1104 9.65353 8.32663 15.2482
535 2 2.2208 8.3174 9.79179 16.7032
536 1 -1.1104 9.66855 5.59198 17.9427
537 1 -1.1104 9.72595 11.3008 18.0444
538 1 -1.1104 9.60949 5.47434 15.0725
540 1 -1.1104 9.88868 11.126 15.2407
529 1 -1.1104 12.5612 11.1895 20.8145
500 1 -1.1104 6.90425 5.58135 20.9608
539 1 -1.1104 9.69918 5.42876 20.6724
522 1 -1.1104 12.3957 8.35886 20.6838
369 2 2.2208 5.40581 21.0361 13.7281
368 2 2.2208 2.80298 18.1945 13.7606
545 2 2.2208 5.4099 18.351 16.5413
546 1 -1.1104 1.40526 14.3019 18.0287
547 1 -1.1104 1.2532 19.659 17.998
550 1 -1.1104 1.34513 13.9766 15.1328
552 1 -1.1104 1.30959 19.5545 15.1752
558 1 -1.1104 1.2302 16.937 18.0418
560 2 2.2208 5.50271 15.3971 19.3177
561 2 2.2208 5.5615 21.0867 19.3555
562 1 -1.1104 1.46962 16.7129 14.9739
566 1 -1.1104 4.28699 14.051 17.9637
567 1 -1.1104 3.97933 19.7223 18.0669
568 2 2.2208 2.70026 18.2966 19.3846
569 1 -1.1104 3.98895 14.1013 15.1174
571 1 -1.1104 4.15975 19.6843 15.2135
573 2 2.2208 2.75385 15.4338 16.6204
574 2 2.2208 2.6248 21.1164 16.5566
575 1 -1.1104 3.86737 16.9893 17.9434
576 1 -1.1104 4.30706 16.7968 15.2283
448 2 2.2208 -0.152318 15.4789 19.3906
351 2 2.2208 -0.113388 15.4554 13.7054
371 2 2.2208 5.53619 15.2844 13.7015
476 2 2.2208 -0.155382 21.079 19.2241
447 2 2.2208 -0.0131329 18.2844 16.5319
551 1 -1.1104 1.1824 14.134 20.7052
350 2 2.2208 -0.154625 21.0502 13.6904
373 2 2.2208 11.0313 15.3652 13.8278
549 1 -1.1104 6.90685 19.5326 17.8632
554 1 -1.1104 6.97892 13.8526 15.1045
548 1 -1.1104 6.98738 13.9688 17.8435
564 1 -1.1104 7.03929 16.6615 15.1465
559 1 -1.1104 6.85691 16.7254 17.9945
556 1 -1.1104 7.05333 19.6623 15.0745
581 2 2.2208 11.1436 18.2734 16.5474
582 1 -1.1104 12.5959 13.975 17.9169
583 1 -1.1104 12.538 19.7702 18.0259
584 1 -1.1104 12.5554 13.9644 15.1427
586 1 -1.1104 12.5025 19.6146 15.2639
588 1 -1.1104 12.4149 16.9133 18.0089
589 2 2.2208 11.1707 15.4064 19.3899
590 2 2.2208 11.1087 20.9663 19.411
591 1 -1.1104 12.5106 16.6873 15.2666
593 1 -1.1104 9.77398 14.0302 17.9883
594 1 -1.1104 9.70084 19.6601 17.9187
595 2 2.2208 8.28537 18.1939 19.1539
596 1 -1.1104 9.78649 13.9035 15.0955
598 1 -1.1104 9.72488 19.5694 15.0379
600 2 2.2208 8.39809 15.3814 16.5338
601 2 2.2208 8.30925 20.9688 16.4998
602 1 -1.1104 9.61957 16.81 17.8761
603 1 -1.1104 9.69769 16.7979 15.2134
585 1 -1.1104 12.3871 14.0556 20.645
372 2 2.2208 11.1136 21.0016 13.7304
376 2 2.2208 8.31277 18.1864 13.7409
424 1 -1.1104 1.2213 0.00346391 20.7457
438 1 -1.1104 4.16001 0.0642784 20.7676
431 1 -1.1104 4.21453 -2.77267 20.8317
412 1 -1.1104 1.25261 -2.79704 20.8567
433 1 -1.1104 4.13468 2.75012 20.8763
414 1 -1.1104 1.34959 2.78291 20.8534
609 2 2.2208 5.55691 1.41527 22.2722
610 1 -1.1104 1.36771 -2.90404 23.5631
611 1 -1.1104 1.39592 2.80116 23.721
614 1 -1.1104 1.22925 -3.02516 26.2429
615 1 -1.1104 1.2023 2.58528 26.3746
618 1 -1.1104 1.30134 -0.18287 23.5092
620 2 2.2208 5.52323 -1.36206 24.964
621 2 2.2208 5.51187 4.26233 25.1103
622 1 -1.1104 1.30999 -0.237314 26.3193
624 1 -1.1104 4.17437 -2.80606 23.7004
625 1 -1.1104 4.13947 2.71942 23.6491
626 2 2.2208 2.77169 1.3486 24.9564
627 1 -1.1104 4.08608 -2.82957 26.4414
628 1 -1.1104 4.11905 2.75514 26.4372
629 2 2.2208 2.78891 -1.42503 22.1761
631 1 -1.1104 4.26242 0.0273641 23.5854
632 1 -1.1104 4.00041 -0.126472 26.4502
630 2 2.2208 2.73061 4.09978 22.2759
643 2 2.2208 -0.115344 1.31065 22.2451
644 2 2.2208 -0.0148333 4.26001 25.0821
642 2 2.2208 -0.177361 -1.50118 24.9673
353 2 2.2208 8.35214 -4.25728 13.8541
416 1 -1.1104 7.05062 -2.80551 20.6857
418 1 -1.1104 6.90728 2.79127 20.8993
472 1 -1.1104 9.74651 -0.0780926 20.8073
453 1 -1.1104 12.6156 -2.82306 20.858
455 1 -1.1104 12.5219 2.72961 20.8098
612 1 -1.1104 7.02511 -2.6551 23.5571
619 1 -1.1104 7.07832 0.130341 23.5394
426 1 -1.1104 6.96757 -0.170667 20.7404
465 1 -1.1104 9.75213 -2.90566 20.7283
460 1 -1.1104 12.488 0.0539819 20.5761
467 1 -1.1104 9.73024 2.77807 20.8406
623 1 -1.1104 6.91379 -0.00051736 26.2626
616 1 -1.1104 6.99191 -2.71607 26.3333
617 1 -1.1104 6.92994 2.87451 26.3696
613 1 -1.1104 6.90195 2.78681 23.6493
645 2 2.2208 11.207 1.41563 22.242
646 1 -1.1104 12.551 -2.73799 23.6094
647 1 -1.1104 12.5755 2.84164 23.5053
648 1 -1.1104 12.449 -2.78954 26.347
649 1 -1.1104 12.7721 2.79357 26.3371
650 1 -1.1104 12.4921 0.0860565 23.6328
651 2 2.2208 11.2105 -1.40278 25.0289
652 2 2.2208 11.2477 4.1807 25.0881
653 1 -1.1104 12.4572 0.0873313 26.4584
654 1 -1.1104 9.87033 -2.73734 23.5602
655 1 -1.1104 9.85204 2.83883 23.6364
656 2 2.2208 8.35097 1.50212 25.0638
657 1 -1.1104 9.73333 -2.79173 26.3953
658 1 -1.1104 9.8836 2.88304 26.5551
659 2 2.2208 8.40816 -1.33407 22.1897
660 2 2.2208 8.33208 4.09929 22.2904
661 1 -1.1104 9.77439 0.0819585 23.807
662 1 -1.1104 9.83303 -0.0590755 26.5301
587 1 -1.1104 12.4725 19.696 20.8156
507 1 -1.1104 4.14545 8.38887 20.7517
498 1 -1.1104 1.36609 11.351 20.9382
496 1 -1.1104 1.11006 5.56384 20.7206
514 1 -1.1104 4.18809 11.2981 20.7625
702 2 2.2208 -0.0068681 9.8072 24.9802
487 1 -1.1104 1.35652 8.43353 20.837
512 1 -1.1104 4.08056 5.42877 20.8778
703 2 2.2208 -0.0674243 12.5882 22.1444
674 2 2.2208 5.51299 6.91197 22.178
675 2 2.2208 5.52197 12.6413 22.0964
676 1 -1.1104 1.48395 8.50492 23.7148
678 1 -1.1104 1.42058 8.38868 26.5407
680 1 -1.1104 1.29368 5.51658 23.6454
681 1 -1.1104 1.42005 11.2599 23.6686
684 2 2.2208 5.53749 9.70815 25.0872
685 1 -1.1104 1.37638 5.55126 26.4763
686 1 -1.1104 1.24549 11.2332 26.3977
689 1 -1.1104 4.26731 8.34938 23.5566
690 2 2.2208 2.74997 7.06894 25.0431
691 2 2.2208 2.65477 12.6177 25.0481
692 1 -1.1104 4.0671 8.41695 26.3213
693 2 2.2208 2.8754 9.86449 22.2476
694 1 -1.1104 4.1192 5.50963 23.6496
695 1 -1.1104 4.13366 11.1751 23.5156
696 1 -1.1104 4.14064 5.65269 26.4593
697 1 -1.1104 4.13918 11.1832 26.4198
444 2 2.2208 -0.111622 6.94323 22.16
565 1 -1.1104 6.8583 16.6187 20.686
534 1 -1.1104 9.59405 8.20962 20.7977
688 1 -1.1104 6.96721 11.1277 26.3649
502 1 -1.1104 6.85619 11.1733 20.8999
489 1 -1.1104 6.80682 8.48632 20.7776
541 1 -1.1104 9.52293 11.1683 20.7502
687 1 -1.1104 6.90563 5.67543 26.5547
679 1 -1.1104 6.91272 8.37949 26.467
682 1 -1.1104 6.9095 5.53813 23.7181
677 1 -1.1104 6.99826 8.34549 23.69
527 1 -1.1104 12.4962 5.69419 20.7685
683 1 -1.1104 6.91659 11.2213 23.7697
705 1 -1.1104 9.70313 11.1508 26.5212
706 1 -1.1104 9.83038 5.57269 26.5131
707 1 -1.1104 9.86879 11.2285 23.683
708 1 -1.1104 9.62102 5.50627 23.6687
709 2 2.2208 8.2879 9.81826 22.2056
710 1 -1.1104 9.78185 8.43958 26.3974
711 2 2.2208 8.33974 12.6399 24.9718
712 2 2.2208 8.20524 6.95733 25.0545
713 2 2.2208 11.0239 6.98347 22.1751
714 2 2.2208 11.087 12.5324 22.2312
715 1 -1.1104 12.3592 8.4418 23.5686
716 1 -1.1104 12.7171 8.22723 26.4555
717 1 -1.1104 12.576 5.59457 23.6327
718 1 -1.1104 12.5381 11.1719 23.644
719 2 2.2208 11.1583 9.75393 25.0178
720 1 -1.1104 12.8158 5.39313 26.4122
721 1 -1.1104 12.5889 11.0696 26.4408
722 1 -1.1104 9.61788 8.29091 23.5457
723 2 2.2208 -0.222371 18.3655 22.0933
563 1 -1.1104 1.27914 16.9983 20.8787
570 1 -1.1104 4.12773 14.0361 20.7184
553 1 -1.1104 1.25219 19.6243 20.6663
577 1 -1.1104 4.03529 16.8387 20.6729
572 1 -1.1104 4.1509 19.6397 20.7726
724 2 2.2208 -0.15043 21.0261 24.9506
746 1 -1.1104 4.03136 13.9237 26.3634
745 1 -1.1104 4.01638 16.8153 26.3128
744 2 2.2208 2.47208 18.1645 24.964
743 1 -1.1104 3.93837 19.502 26.3755
742 2 2.2208 5.40815 18.2651 22.1777
741 1 -1.1104 1.30229 13.9027 23.5426
750 2 2.2208 2.74045 21.0102 22.2417
749 1 -1.1104 3.91852 17.0425 23.3955
748 1 -1.1104 1.14122 16.8829 23.5622
727 2 2.2208 2.58944 15.4776 22.0972
729 1 -1.1104 3.98193 19.6795 23.6962
731 1 -1.1104 3.99423 14.1886 23.835
733 1 -1.1104 1.19122 19.5032 26.4364
734 1 -1.1104 1.09724 16.863 26.3373
735 1 -1.1104 1.4273 14.0598 26.3291
737 2 2.2208 5.42691 20.8635 24.9187
738 2 2.2208 5.52567 15.4683 24.8915
740 1 -1.1104 1.1905 19.618 23.6796
725 2 2.2208 -0.0921338 15.321 25.0331
664 1 -1.1104 9.7764 13.921 23.618
633 1 -1.1104 12.3216 19.7015 23.6998
704 1 -1.1104 9.60634 16.694 26.259
747 1 -1.1104 6.8722 16.7749 23.5095
608 1 -1.1104 12.3665 13.9055 23.5454
557 1 -1.1104 6.77067 19.5787 20.858
555 1 -1.1104 6.90986 13.912 20.5784
597 1 -1.1104 9.73334 13.8534 20.819
604 1 -1.1104 9.71499 16.968 20.6416
607 2 2.2208 11.1626 18.3431 22.2302
599 1 -1.1104 9.67834 19.5055 20.7804
667 2 2.2208 8.28083 18.202 24.9975
673 1 -1.1104 9.55748 13.9775 26.5215
641 2 2.2208 10.9882 21.1478 24.9693
699 2 2.2208 8.44814 15.3931 22.0036
634 1 -1.1104 12.3707 13.9356 26.1883
670 1 -1.1104 6.90144 19.6751 26.383
665 1 -1.1104 9.55802 19.638 23.6355
732 1 -1.1104 6.80803 16.84 26.4446
736 1 -1.1104 6.80414 19.556 23.6129
739 1 -1.1104 6.94441 13.9579 23.5328
701 1 -1.1104 9.66056 16.7454 23.5281
698 1 -1.1104 9.72994 19.599 26.4181
636 1 -1.1104 12.4309 16.7966 23.7191
730 1 -1.1104 6.81618 14.0772 26.291
635 1 -1.1104 12.5381 19.7579 26.3676
700 2 2.2208 8.26684 20.9743 22.1767
663 1 -1.1104 12.4883 16.7819 26.5361
638 2 2.2208 11.0207 15.3775 24.975
361 2 2.2208 2.79655 12.675 13.728
440 2 2.2208 5.42118 -4.17773 16.5859
475 2 2.2208 8.25639 -4.13764 19.3186
668 2 2.2208 11.2352 -4.20525 22.2103
474 2 2.2208 11.1181 -4.17756 16.4923
439 2 2.2208 -0.0984986 -4.16581 16.6711
669 2 2.2208 8.41064 -4.14819 24.9773
639 2 2.2208 5.64465 -4.07783 22.1998
363 2 2.2208 8.32458 7.05419 13.8673
751 2 2.2208 5.3823 23.8444 5.39448
752 2 2.2208 5.27007 29.4813 5.31938
753 1 -1.1104 1.37128 25.2501 1.13987
754 1 -1.1104 1.21367 25.1629 3.89726
755 1 -1.1104 1.07823 22.4325 1.23115
756 1 -1.1104 1.22586 28.1145 0.986971
757 2 2.2208 5.41198 26.6612 2.53608
758 1 -1.1104 1.0322 22.3301 4.03159
759 1 -1.1104 1.14343 28.0194 3.86105
760 1 -1.1104 3.96392 25.2756 1.02597
761 2 2.2208 2.55647 23.7378 2.4907
762 2 2.2208 2.6327 29.4272 2.55919
763 1 -1.1104 3.93568 25.3799 3.87319
764 2 2.2208 2.56463 26.5467 5.24208
765 1 -1.1104 3.93787 22.3915 1.15499
766 1 -1.1104 3.9979 27.938 1.10812
767 1 -1.1104 3.86984 22.3553 3.94606
768 1 -1.1104 3.9203 27.9202 3.80062
769 2 2.2208 -0.169105 29.561 5.23084
770 2 2.2208 -0.248657 23.8605 5.38703
1700 1 -1.1104 9.36216 47.5745 6.56245
777 1 -1.1104 6.62363 28.0883 4.0824
1112 2 2.2208 5.47263 23.8794 -0.235534
1673 1 -1.1104 6.76611 47.5829 12.3108
895 1 -1.1104 1.16351 28.2152 6.53519
1676 1 -1.1104 6.78164 47.5042 9.36657
771 2 2.2208 -0.243356 26.5534 2.46397
774 1 -1.1104 6.72834 22.6143 1.2869
776 1 -1.1104 6.77559 22.6458 3.90554
775 1 -1.1104 6.90586 28.0966 1.1373
772 1 -1.1104 6.92093 25.1536 1.24992
773 1 -1.1104 6.89377 25.3354 4.06419
778 2 2.2208 10.9576 23.9093 5.29262
779 2 2.2208 10.9902 29.4931 5.395
780 1 -1.1104 12.324 25.4891 1.08307
781 1 -1.1104 12.297 25.258 3.94168
782 1 -1.1104 12.3852 22.6557 1.19136
783 1 -1.1104 12.2746 28.0967 0.956346
784 2 2.2208 10.9522 26.7886 2.53007
785 1 -1.1104 12.2956 22.5143 3.79578
786 1 -1.1104 12.4007 28.0715 3.83774
787 1 -1.1104 9.5709 25.3835 1.03887
788 2 2.2208 8.26029 23.9485 2.59303
789 2 2.2208 8.17143 29.5654 2.57148
790 1 -1.1104 9.63079 25.4304 3.79397
791 2 2.2208 8.07526 26.6782 5.52167
792 1 -1.1104 9.40335 22.4248 1.18084
793 1 -1.1104 9.49863 28.1787 1.29212
794 1 -1.1104 9.60838 22.5506 3.95289
795 1 -1.1104 9.46854 28.1556 4.16364
982 2 2.2208 -0.28538 38.0003 7.99465
1122 2 2.2208 11.074 29.5127 -0.318742
1100 2 2.2208 5.37151 43.4459 13.6266
820 2 2.2208 -0.224376 35.1685 5.14605
799 2 2.2208 5.37274 35.0097 5.22775
800 1 -1.1104 1.20211 30.8467 1.01236
801 1 -1.1104 1.13632 36.507 1.0211
803 1 -1.1104 1.17446 30.864 3.7944
804 1 -1.1104 1.26669 36.5486 3.73534
806 1 -1.1104 1.14149 33.7183 0.96931
807 2 2.2208 5.35939 32.2988 2.5309
808 2 2.2208 5.2861 37.6689 2.35834
809 1 -1.1104 1.28659 33.6595 3.72878
811 1 -1.1104 4.07351 30.7252 1.18607
812 1 -1.1104 3.85593 36.3544 1.00567
813 2 2.2208 2.45059 35.047 2.31068
814 1 -1.1104 4.02755 30.7636 3.88376
815 1 -1.1104 3.96578 36.4734 3.89718
816 2 2.2208 2.55791 32.2359 5.25842
817 2 2.2208 2.58243 37.9469 5.19703
818 1 -1.1104 3.88875 33.5396 1.07621
819 1 -1.1104 4.05165 33.7265 3.84009
822 2 2.2208 -0.20544 32.3289 2.42066
957 1 -1.1104 3.98707 33.6989 6.64067
821 2 2.2208 -0.242393 38.0563 2.33442
802 1 -1.1104 6.7779 36.2004 1.01145
824 1 -1.1104 6.80714 30.8571 4.08468
950 1 -1.1104 1.18459 36.6173 6.55903
1091 2 2.2208 5.45723 37.9045 13.6337
1114 2 2.2208 10.9448 40.5815 -0.360398
823 1 -1.1104 6.76692 30.8838 1.08476
810 1 -1.1104 6.7306 33.4592 3.79352
825 1 -1.1104 6.65401 33.477 0.967528
805 1 -1.1104 6.78049 36.3426 3.78164
826 2 2.2208 11.0578 34.9164 5.27396
827 1 -1.1104 12.3923 30.8382 1.14161
828 1 -1.1104 12.2332 36.5036 1.08886
829 1 -1.1104 12.4632 30.8406 3.95337
830 1 -1.1104 12.4235 36.4785 3.85544
831 1 -1.1104 12.4378 33.6764 1.00662
832 2 2.2208 11.0372 32.2807 2.52231
833 2 2.2208 10.8461 37.8858 2.6072
834 1 -1.1104 12.4617 33.6267 3.88279
835 1 -1.1104 9.52549 31.0038 1.22681
836 1 -1.1104 9.50221 36.4093 1.07546
837 2 2.2208 8.1412 34.9297 2.49056
838 1 -1.1104 9.70653 30.8837 4.05302
839 1 -1.1104 9.67843 36.3403 4.01851