ITEM: TIMESTEP
50000
ITEM: NUMBER OF ATOMS
17730
ITEM: BOX BOUNDS pp pp pp
-3.6337929800622609e-01 2.7703379298006148e+01
-4.2351522211552997e+00 3.3231515222115002e+02
-3.5058464265214051e-01 2.7690584642651711e+01
ITEM: ATOMS id type q x y z
1 2 2.2208 4.98691 1.24321 5.34578
2 1 -1.1104 0.760434 -3.04653 1.00381
3 1 -1.1104 0.945454 2.7732 1.08067
6 1 -1.1104 0.873776 -2.84003 3.86133
7 1 -1.1104 0.940369 2.83249 3.8479
10 1 -1.1104 0.706098 -0.207408 1.18891
12 2 2.2208 5.12568 -1.61701 2.52553
13 2 2.2208 5.12756 4.03413 2.49574
14 1 -1.1104 0.892177 -0.0150767 3.91909
16 1 -1.1104 3.57485 -2.85937 1.04084
17 1 -1.1104 3.66094 2.7505 1.01401
18 2 2.2208 2.40608 1.29365 2.53749
19 1 -1.1104 3.61452 -3.00889 3.94662
20 1 -1.1104 3.71991 2.67388 3.81682
21 2 2.2208 2.20167 -1.42196 5.29084
22 2 2.2208 2.3024 4.18061 5.33592
23 1 -1.1104 3.83011 -0.115301 1.01291
24 1 -1.1104 3.76359 -0.249354 4.13402
174 1 -1.1104 3.53061 -0.138038 6.78266
4 1 -1.1104 6.41692 -2.96158 1.0869
9 1 -1.1104 6.51259 2.69964 3.89556
8 1 -1.1104 6.5422 -3.10285 3.82691
11 1 -1.1104 6.42252 -0.215024 0.983697
391 2 2.2208 13.5279 -1.51079 -0.347345
167 1 -1.1104 0.75347 2.66888 6.69064
173 1 -1.1104 3.55495 2.56409 6.61355
5 1 -1.1104 6.51917 2.66164 1.06498
15 1 -1.1104 6.47001 -0.12684 3.95668
339 2 2.2208 13.4803 6.95857 8.14111
334 2 2.2208 13.3652 4.16685 5.38047
31 2 2.2208 10.6179 1.29888 5.48593
32 1 -1.1104 12.0741 -2.88044 0.989411
33 1 -1.1104 12.0919 2.72545 1.1289
34 1 -1.1104 12.0168 -2.8238 3.90947
35 1 -1.1104 12.1007 2.66647 4.10326
36 1 -1.1104 11.9779 -0.0881082 1.15727
37 2 2.2208 10.6542 -1.37548 2.61638
38 2 2.2208 10.6598 4.20702 2.53518
39 1 -1.1104 12.0225 -0.177782 3.91073
40 1 -1.1104 9.22874 -3.02248 1.09249
41 1 -1.1104 9.29116 2.68892 1.20273
42 2 2.2208 7.90342 1.29524 2.52747
43 1 -1.1104 9.3367 -2.88256 3.89545
44 1 -1.1104 9.36651 2.77642 3.89981
45 2 2.2208 7.86461 -1.57923 5.23569
46 2 2.2208 7.77033 3.99936 5.18038
47 1 -1.1104 9.12045 -0.248198 1.25186
48 1 -1.1104 9.23191 -0.0594586 4.02105
49 2 2.2208 13.4536 1.29115 2.61558
398 2 2.2208 10.5812 7.09568 -0.35812
376 2 2.2208 7.75943 18.1002 13.6533
54 2 2.2208 5.06611 6.8726 5.3987
55 2 2.2208 5.06167 12.5077 5.34952
56 1 -1.1104 0.913032 8.39786 0.994989
58 1 -1.1104 0.905427 8.3641 3.89079
60 1 -1.1104 1.01485 5.64774 1.08817
61 1 -1.1104 0.879493 11.12 1.31884
66 2 2.2208 5.05399 9.5901 2.40326
67 1 -1.1104 0.865157 5.61146 3.88942
68 1 -1.1104 0.776191 11.3187 4.00859
71 1 -1.1104 3.63985 8.29296 1.10039
72 2 2.2208 2.40864 6.90292 2.52848
73 2 2.2208 2.26779 12.5611 2.5528
74 1 -1.1104 3.58717 8.22114 4.00951
75 2 2.2208 2.2448 9.73507 5.34972
76 1 -1.1104 3.81619 5.46672 1.22025
77 1 -1.1104 3.68105 10.9985 1.23362
79 1 -1.1104 3.80558 5.46087 4.09435
80 1 -1.1104 3.65686 10.9466 4.03829
63 1 -1.1104 6.67987 5.44418 1.06037
70 1 -1.1104 6.5218 11.0777 3.8422
239 1 -1.1104 3.73241 5.47183 6.79655
64 1 -1.1104 6.31083 11.0919 1.09289
59 1 -1.1104 6.45384 8.18139 3.87894
65 1 -1.1104 6.47904 10.9609 6.72863
50 2 2.2208 13.4705 -1.59694 5.36842
78 1 -1.1104 3.67902 11.0995 6.66653
52 2 2.2208 10.6885 -4.31829 5.29152
69 1 -1.1104 6.36117 5.40524 3.89014
57 1 -1.1104 6.58998 8.4 1.07755
84 2 2.2208 10.674 6.96555 5.31487
85 2 2.2208 10.5965 12.6292 5.23099
86 1 -1.1104 12.0199 8.37472 1.00527
87 1 -1.1104 11.9499 8.36144 3.88775
88 1 -1.1104 12.0932 5.57132 1.31926
89 1 -1.1104 12.0604 11.242 1.11732
91 2 2.2208 10.6528 9.66568 2.37111
92 1 -1.1104 11.9755 5.55462 3.98142
93 1 -1.1104 12.0711 10.9313 3.98875
94 1 -1.1104 9.2607 8.39357 1.08192
95 2 2.2208 7.93386 6.81733 2.46375
96 2 2.2208 7.85407 12.5969 2.39521
97 1 -1.1104 9.25362 8.27864 3.82646
98 2 2.2208 7.83641 9.73744 5.26511
99 1 -1.1104 9.45831 5.55735 1.07454
100 1 -1.1104 9.25812 11.4046 0.97718
102 1 -1.1104 9.07314 5.49407 3.91736
103 1 -1.1104 9.35113 11.1641 3.61312
104 2 2.2208 13.4636 12.5268 2.51162
105 2 2.2208 13.4519 7.02804 2.56115
335 2 2.2208 13.4099 9.81631 5.30266
90 1 -1.1104 12.1488 11.2097 6.76605
267 1 -1.1104 9.29488 8.33611 6.6359
402 2 2.2208 13.5296 9.82084 -0.387832
230 2 2.2208 13.4438 -1.4633 10.9175
106 2 2.2208 5.07653 18.1647 5.20398
107 1 -1.1104 0.792752 13.85 1.10633
109 1 -1.1104 0.787452 19.3679 0.972355
113 1 -1.1104 0.836956 13.9893 3.73871
114 1 -1.1104 0.775487 19.6583 3.80747
116 1 -1.1104 0.859711 16.623 1.17283
119 2 2.2208 5.02388 15.3466 2.65373
120 2 2.2208 4.91183 20.88 2.49845
121 1 -1.1104 0.904123 16.8291 3.90581
123 1 -1.1104 3.73036 13.8973 1.16566
125 1 -1.1104 3.68142 19.5021 1.05066
127 2 2.2208 2.22472 18.0835 2.48685
128 1 -1.1104 3.67799 13.9468 3.88659
129 1 -1.1104 3.58719 19.4853 3.87499
130 2 2.2208 2.16812 15.407 5.22128
131 2 2.2208 2.23885 21.0117 5.28293
132 1 -1.1104 3.70112 16.7632 1.19906
134 1 -1.1104 3.56022 16.8381 3.92529
122 1 -1.1104 6.39401 16.8827 3.9377
140 1 -1.1104 6.5074 16.7451 1.28534
115 1 -1.1104 6.51648 13.7606 3.94079
138 1 -1.1104 6.37705 19.4323 1.03697
110 1 -1.1104 6.26778 13.9006 1.06002
139 1 -1.1104 6.51783 19.5969 3.97257
117 1 -1.1104 0.952145 16.6485 6.65587
319 1 -1.1104 9.25421 13.8244 9.4638
302 1 -1.1104 0.979096 19.4065 6.50435
118 1 -1.1104 6.47068 16.7404 6.67856
336 2 2.2208 13.3936 21.1505 5.27434
145 1 -1.1104 12.1499 19.6635 6.59674
141 2 2.2208 10.629 18.2493 5.31049
142 1 -1.1104 11.9095 14.1426 1.07852
144 1 -1.1104 11.9323 19.4919 1.04195
146 1 -1.1104 12.1912 13.9634 3.90536
147 1 -1.1104 12.0464 19.6431 3.74721
148 1 -1.1104 11.8909 16.8509 1.04292
150 2 2.2208 10.6363 15.5282 2.47549
151 2 2.2208 10.6105 21.0017 2.48796
152 1 -1.1104 12.0369 16.7421 3.97424
153 1 -1.1104 9.17652 14.1151 1.13382
155 1 -1.1104 9.20046 19.6636 1.17677
157 2 2.2208 7.85704 18.2223 2.54362
158 1 -1.1104 9.32748 14.043 3.92551
159 1 -1.1104 9.22409 19.6895 3.9935
160 2 2.2208 7.84349 15.3755 5.24998
161 2 2.2208 7.87859 20.9353 5.32563
162 1 -1.1104 9.15747 16.9022 0.968656
164 1 -1.1104 9.22983 16.852 3.82763
149 1 -1.1104 12.0566 16.7483 6.81606
337 2 2.2208 13.5285 15.4006 5.3776
165 2 2.2208 13.4108 18.1777 2.56271
320 2 2.2208 7.76058 18.0705 8.02887
389 2 2.2208 8.03819 4.12888 -0.302241
394 2 2.2208 2.19692 9.65156 -0.321606
172 1 -1.1104 3.72929 -3.02446 6.66885
170 1 -1.1104 0.882948 -0.143173 6.5825
171 1 -1.1104 6.40758 -0.0416212 6.73873
168 1 -1.1104 6.51747 -2.86269 6.59257
166 1 -1.1104 0.842368 -2.97148 6.64645
169 1 -1.1104 6.33727 2.74963 6.59521
175 2 2.2208 5.07453 1.30528 10.91
176 1 -1.1104 0.897552 -2.78222 12.3575
177 1 -1.1104 1.00975 2.68359 12.3253
180 1 -1.1104 0.713802 -2.87958 9.4736
181 1 -1.1104 0.833434 2.55305 9.5752
184 1 -1.1104 0.755194 -0.0353673 12.3782
186 2 2.2208 4.95874 -1.5298 8.11185
188 1 -1.1104 0.779151 -0.261205 9.46095
190 1 -1.1104 3.6481 -2.9304 12.2098
191 1 -1.1104 3.6565 2.74808 12.1513
192 2 2.2208 2.26303 1.22065 8.1219
193 1 -1.1104 3.44441 -3.01432 9.37912
194 1 -1.1104 3.68447 2.80364 9.35492
195 2 2.2208 2.25508 -1.41747 10.8653
196 2 2.2208 2.31604 4.21026 10.8943
197 1 -1.1104 3.58101 -0.0966743 12.3241
198 1 -1.1104 3.5817 -0.193045 9.54469
187 2 2.2208 5.04382 4.13491 8.03717
185 1 -1.1104 6.35003 -0.181755 12.3141
183 1 -1.1104 6.42891 2.76802 9.48212
189 1 -1.1104 6.5034 -0.0177561 9.51613
178 1 -1.1104 6.48089 -2.83154 12.3471
182 1 -1.1104 6.32764 -2.9222 9.52463
210 1 -1.1104 9.29427 -0.151589 6.71743
322 1 -1.1104 9.21971 13.7634 12.2659
205 1 -1.1104 12.0446 -2.91117 6.63419
338 2 2.2208 13.5412 4.06831 10.965
179 1 -1.1104 6.46909 2.56036 12.3551
208 1 -1.1104 9.21646 -2.8748 6.73192
206 1 -1.1104 11.9309 2.61948 6.87776
207 1 -1.1104 12.1792 -0.138634 6.78768
209 1 -1.1104 9.10896 2.70866 6.66842
211 2 2.2208 10.6399 1.36216 10.8705
212 1 -1.1104 11.9576 -2.95251 12.4244
213 1 -1.1104 12.1659 2.76664 12.3501
214 1 -1.1104 12.0187 -2.83715 9.52067
215 1 -1.1104 12.1371 2.8493 9.5699
216 1 -1.1104 12.1884 -0.0652145 12.4209
217 2 2.2208 10.6725 -1.57735 8.13196
219 1 -1.1104 12.0834 -0.0843788 9.61778
220 1 -1.1104 9.13553 -2.8943 12.4455
221 1 -1.1104 9.22844 2.80276 12.2923
222 2 2.2208 7.82284 1.28985 8.16752
223 1 -1.1104 9.28551 -2.8926 9.64549
224 1 -1.1104 9.29067 2.69757 9.41135
225 2 2.2208 7.92811 -1.48694 10.9525
226 2 2.2208 7.87191 4.10452 10.763
227 1 -1.1104 9.25898 0.0276553 12.3382
228 1 -1.1104 9.32317 -0.148373 9.53202
229 2 2.2208 13.5405 1.26193 8.19736
233 2 2.2208 13.6028 -4.26235 8.16172
218 2 2.2208 10.6531 4.20051 8.18476
238 1 -1.1104 3.60737 8.20223 6.83717
62 1 -1.1104 0.765744 10.9205 6.67474
237 1 -1.1104 6.44135 5.36373 6.74085
234 1 -1.1104 0.805683 8.14189 6.67704
236 1 -1.1104 0.850573 5.38927 6.85521
235 1 -1.1104 6.37989 8.24468 6.63007
240 2 2.2208 5.08745 6.85674 10.8625
241 2 2.2208 5.08254 12.4539 10.7836
242 1 -1.1104 0.830389 8.26099 12.3499
244 1 -1.1104 0.814881 8.27028 9.59342
246 1 -1.1104 1.03348 5.60847 12.3529
247 1 -1.1104 0.715901 11.0308 12.287
250 2 2.2208 5.09411 9.6585 8.09469
251 1 -1.1104 0.998413 5.43771 9.54487
252 1 -1.1104 0.870432 10.8955 9.50049
255 1 -1.1104 3.72987 8.26898 12.4566
256 2 2.2208 2.18976 6.86345 8.14727
257 2 2.2208 2.19799 12.3786 8.03849
258 1 -1.1104 3.58497 8.26636 9.52968
259 2 2.2208 2.23436 9.58634 10.8836
260 1 -1.1104 3.71732 5.51923 12.316
261 1 -1.1104 3.51062 11.0765 12.3116
262 1 -1.1104 3.71449 5.5256 9.43152
263 1 -1.1104 3.69579 10.9157 9.50351
254 1 -1.1104 6.47022 11.1526 9.46105
249 1 -1.1104 6.32174 11.0782 12.295
245 1 -1.1104 6.27378 8.37609 9.52616
253 1 -1.1104 6.55312 5.53581 9.43822
248 1 -1.1104 6.4243 5.4906 12.2874
243 1 -1.1104 6.76909 8.34029 12.4047
340 2 2.2208 13.394 12.5213 8.10553
269 1 -1.1104 9.26759 5.65941 6.76368
266 1 -1.1104 12.0087 5.57364 6.80176
318 1 -1.1104 9.21236 19.3837 9.42356
101 1 -1.1104 9.23028 11.046 6.4392
265 1 -1.1104 12.2047 8.32756 6.58677
341 2 2.2208 13.5407 9.79878 10.8577
264 1 -1.1104 9.32102 11.0493 9.44921
268 1 -1.1104 9.25064 5.48377 9.43384
270 1 -1.1104 9.33052 11.0163 12.2643
271 1 -1.1104 9.30478 5.56727 12.1905
272 2 2.2208 7.87953 9.74841 10.8991
273 1 -1.1104 9.28634 8.2697 9.36867
274 2 2.2208 7.88809 12.4263 8.05916
275 2 2.2208 7.79217 6.91065 8.07567
276 2 2.2208 10.7592 6.96759 10.809
277 2 2.2208 10.6281 12.4044 10.9244
278 1 -1.1104 12.2704 8.4876 12.3234
279 1 -1.1104 12.0803 8.37164 9.54708
280 1 -1.1104 12.1213 5.60591 12.2875
281 1 -1.1104 12.0764 11.1831 12.3713
282 2 2.2208 10.7833 9.63615 8.06506
283 1 -1.1104 12.1529 5.58303 9.54685
284 1 -1.1104 12.0533 11.1026 9.6069
285 1 -1.1104 9.55704 8.30488 12.4423
373 2 2.2208 10.685 15.2798 13.8616
316 2 2.2208 7.82388 20.823 10.9133
317 2 2.2208 7.95067 15.3513 10.7703
126 1 -1.1104 3.7231 19.5692 6.68506
108 1 -1.1104 0.848064 13.7973 6.58978
112 1 -1.1104 6.37361 19.493 6.67746
124 1 -1.1104 3.59415 13.9485 6.49046
133 1 -1.1104 3.67616 16.8118 6.80006
306 1 -1.1104 6.51953 16.7121 12.3473
111 1 -1.1104 6.52145 14.0068 6.6701
297 1 -1.1104 6.31269 13.8471 12.2181
290 1 -1.1104 6.4312 13.882 9.36526
292 1 -1.1104 0.903383 16.5596 9.44159
310 2 2.2208 2.16506 15.2439 10.8527
309 2 2.2208 2.22413 20.9263 10.7782
308 1 -1.1104 3.4983 16.7387 12.4032
307 1 -1.1104 0.626463 16.7967 12.3852
291 1 -1.1104 0.985162 19.5333 9.36457
287 1 -1.1104 3.57718 13.9335 12.0413
305 1 -1.1104 3.51136 13.7845 9.34971
304 1 -1.1104 3.73633 16.5851 9.57867
303 2 2.2208 2.35736 18.1736 8.00125
301 1 -1.1104 3.67819 19.5029 9.32256
300 2 2.2208 5.06985 18.0655 10.8542
299 1 -1.1104 0.80721 13.9367 12.216
298 1 -1.1104 0.806073 19.6522 12.0705
286 1 -1.1104 3.51809 19.6169 12.2227
295 2 2.2208 4.94075 15.294 7.97904
294 1 -1.1104 0.720302 13.7987 9.48702
293 2 2.2208 5.10874 20.8848 7.99293
289 1 -1.1104 6.5744 16.6884 9.46755
288 1 -1.1104 6.42511 19.3855 9.31622
332 2 2.2208 13.4013 18.0818 8.05787
154 1 -1.1104 9.22431 13.9051 6.78281
143 1 -1.1104 12.0531 13.9317 6.63118
156 1 -1.1104 9.2714 19.4546 6.61979
163 1 -1.1104 9.22447 16.6822 6.64502
333 2 2.2208 13.6523 15.2502 10.9405
325 2 2.2208 10.6582 15.372 8.05501
326 1 -1.1104 12.1301 16.7863 12.3761
324 2 2.2208 10.5821 20.9466 8.04957
329 1 -1.1104 11.9244 19.4852 12.301
321 1 -1.1104 9.16139 19.4698 12.2725
323 1 -1.1104 12.1643 16.8567 9.60217
315 1 -1.1104 9.30917 16.678 12.1966
331 2 2.2208 10.6237 18.1231 10.9314
328 1 -1.1104 12.2159 13.9149 9.45954
314 1 -1.1104 9.22254 16.6266 9.27204
327 1 -1.1104 11.9537 19.675 9.43495
330 1 -1.1104 12.0072 13.9726 12.3034
345 2 2.2208 13.344 20.8568 10.7183
296 1 -1.1104 6.2921 19.4855 12.304
399 2 2.2208 7.80906 9.84895 -0.323121
232 2 2.2208 10.752 -4.35461 10.9067
393 2 2.2208 5.17862 6.89538 -0.213957
381 2 2.2208 5.25105 1.22157 -0.31903
382 2 2.2208 2.32103 -1.5855 -0.346507
202 2 2.2208 2.1872 -4.38246 8.01514
388 2 2.2208 7.94708 -1.61418 -0.360698
387 2 2.2208 10.7843 1.25504 -0.349602
378 2 2.2208 10.717 18.1624 -0.359856
374 2 2.2208 13.5324 15.3073 -0.19407
377 2 2.2208 7.75042 15.3754 -0.244105
404 2 2.2208 5.09069 18.0878 -0.379135
352 2 2.2208 5.05452 4.14544 13.6169
368 2 2.2208 2.12129 18.0961 13.6723
383 2 2.2208 2.379 4.10086 -0.305116
392 2 2.2208 13.4442 4.20782 -0.231365
405 2 2.2208 2.14336 20.8882 -0.462655
403 2 2.2208 2.1679 15.2629 -0.246263
395 2 2.2208 5.04144 12.3995 -0.297844
372 2 2.2208 10.7597 20.9695 13.7027
355 2 2.2208 7.84134 1.34101 13.8026
363 2 2.2208 7.995 6.84551 13.6386
365 2 2.2208 7.79107 12.3857 13.6545
379 2 2.2208 7.82884 20.8585 -0.249024
371 2 2.2208 5.04624 15.3148 13.6525
406 2 2.2208 5.04043 1.31735 16.5647
407 1 -1.1104 0.92641 -2.90706 17.8418
408 1 -1.1104 0.906462 2.64903 17.9086
411 1 -1.1104 0.632795 -2.83687 15.1204
413 1 -1.1104 0.803094 2.78221 15.0934
419 1 -1.1104 0.951228 -0.21534 17.9855
421 2 2.2208 5.10344 -1.62067 19.4222
422 2 2.2208 5.13554 4.06727 19.2776
423 1 -1.1104 0.838012 0.103205 15.1624
427 1 -1.1104 3.6476 -2.89387 17.9378
428 1 -1.1104 3.66664 2.77746 17.9842
429 2 2.2208 2.25893 1.22215 19.3498
430 1 -1.1104 3.62642 -2.93282 15.1414
432 1 -1.1104 3.72873 2.64577 14.8966
434 2 2.2208 2.18621 -1.42901 16.5513
435 2 2.2208 2.35048 4.16382 16.5228
436 1 -1.1104 3.85408 0.0285371 17.9352
437 1 -1.1104 3.68157 -0.0703708 15.2216
415 1 -1.1104 6.54769 -2.97612 15.0594
420 1 -1.1104 6.64172 -0.105577 17.8417
425 1 -1.1104 6.51075 -0.222282 15.0661
417 1 -1.1104 6.35023 2.79812 15.1401
410 1 -1.1104 6.50186 2.81892 17.8866
409 1 -1.1104 6.37568 -2.9878 18.0275
414 1 -1.1104 0.871615 2.73146 20.7706
349 2 2.2208 2.25842 1.34836 13.6825
433 1 -1.1104 3.73088 2.53656 20.8231
666 2 2.2208 13.4704 -4.33963 24.9493
635 1 -1.1104 12.1628 19.5962 26.3087
578 2 2.2208 13.471 1.46642 19.414
449 2 2.2208 10.6743 1.23466 16.5833
450 1 -1.1104 11.8967 -2.89523 17.8344
451 1 -1.1104 12.0889 2.69592 17.9906
452 1 -1.1104 12.1019 -2.64601 15.0994
454 1 -1.1104 12.025 2.86292 15.2005
456 1 -1.1104 11.9917 0.0212052 18.0299
457 2 2.2208 10.6631 -1.4441 19.4874
459 1 -1.1104 12.1184 0.116114 15.1859
461 1 -1.1104 9.10096 -2.95239 17.9801
462 1 -1.1104 9.32775 2.57506 18.0823
463 2 2.2208 7.91756 1.24928 19.3843
464 1 -1.1104 9.30975 -2.95432 15.1768
466 1 -1.1104 9.20137 2.64522 15.3039
468 2 2.2208 7.82673 -1.57759 16.5469
470 1 -1.1104 9.26799 -0.180706 18.1418
471 1 -1.1104 9.25555 -0.0494341 15.118
458 2 2.2208 10.6403 4.0316 19.3256
477 2 2.2208 13.34 -1.38316 16.5525
579 2 2.2208 13.4721 4.1719 16.4807
469 2 2.2208 7.92108 4.151 16.5335
460 1 -1.1104 12.0635 -0.208924 20.7341
356 2 2.2208 10.5454 -1.41888 13.7651
357 2 2.2208 10.6266 4.18615 13.6645
605 2 2.2208 13.5188 18.0749 24.957
667 2 2.2208 7.88858 18.0371 24.9367
370 2 2.2208 13.5457 1.38387 13.6767
360 2 2.2208 5.07157 9.62354 13.6223
482 2 2.2208 5.17603 6.94905 16.4308
483 2 2.2208 5.07666 12.439 16.4157
484 1 -1.1104 0.740177 8.30086 17.9137
486 1 -1.1104 0.892904 8.18114 15.0643
490 1 -1.1104 0.855721 5.37093 17.9076
491 1 -1.1104 0.945951 11.0428 17.8428
494 2 2.2208 5.1763 9.63669 19.4134
495 1 -1.1104 0.837075 5.40569 15.1259
497 1 -1.1104 0.863139 11.2044 15.1542
503 1 -1.1104 3.68643 8.48952 17.9674
504 2 2.2208 2.30734 6.86397 19.2428
505 2 2.2208 2.37227 12.54 19.2765
506 1 -1.1104 3.70803 8.33072 15.1351
508 2 2.2208 2.31906 9.61202 16.5603
509 1 -1.1104 3.75093 5.52038 17.9139
510 1 -1.1104 3.71728 11.2718 17.8941
511 1 -1.1104 3.55654 5.59561 15.038
513 1 -1.1104 3.81963 11.0294 15.19
492 1 -1.1104 6.53394 5.50598 17.7744
485 1 -1.1104 6.51391 8.14602 17.9392
499 1 -1.1104 6.42074 5.53118 15.0754
488 1 -1.1104 6.51969 8.22597 15.0306
493 1 -1.1104 6.35864 10.9524 17.9354
501 1 -1.1104 6.69165 10.9402 15.0933
500 1 -1.1104 6.49007 5.35249 20.578
361 2 2.2208 2.19109 12.5272 13.5924
359 2 2.2208 2.26571 6.95604 13.7628
517 2 2.2208 13.4191 12.5196 19.3745
543 2 2.2208 13.518 9.78292 16.5778
518 2 2.2208 10.7779 6.96003 16.5778
519 2 2.2208 10.689 12.397 16.5676
520 1 -1.1104 12.1645 8.21655 18.0603
521 1 -1.1104 12.1983 8.3123 15.0764
523 1 -1.1104 12.2114 5.41625 17.9817
524 1 -1.1104 12.1287 11.0308 17.8259
525 2 2.2208 10.8132 9.60594 19.4053
526 1 -1.1104 12.1795 5.60279 15.0741
528 1 -1.1104 12.1323 11.077 15.1228
530 1 -1.1104 9.44209 8.25356 17.9953
531 2 2.2208 7.87582 6.95792 19.2597
532 2 2.2208 7.84078 12.5482 19.3913
533 1 -1.1104 9.33995 8.31132 15.2918
535 2 2.2208 7.8288 9.64671 16.648
536 1 -1.1104 9.37847 5.4312 17.9248
537 1 -1.1104 9.29111 11.0048 18.0293
538 1 -1.1104 9.27615 5.52066 15.0092
540 1 -1.1104 9.32697 11.0144 15.2412
522 1 -1.1104 12.0708 8.17559 20.911
542 2 2.2208 13.4663 6.91951 19.4177
529 1 -1.1104 12.2767 11.0388 20.6408
698 1 -1.1104 9.27658 19.463 26.3123
633 1 -1.1104 11.8772 19.5609 23.5519
545 2 2.2208 4.98578 18.1552 16.4663
546 1 -1.1104 0.792184 13.9273 17.8382
547 1 -1.1104 0.758543 19.4588 17.9236
550 1 -1.1104 0.867033 14.1399 15.0628
552 1 -1.1104 0.942588 19.5259 14.908
558 1 -1.1104 0.934068 16.7298 17.8997
560 2 2.2208 4.99579 15.3065 19.3213
561 2 2.2208 5.05593 20.8106 19.2668
562 1 -1.1104 0.829238 16.7531 15.1458
566 1 -1.1104 3.53118 13.9815 17.7937
567 1 -1.1104 3.65174 19.5129 17.886
568 2 2.2208 2.35226 18.1828 19.3279
569 1 -1.1104 3.60972 13.8764 14.9275
571 1 -1.1104 3.5089 19.5377 15.096
573 2 2.2208 2.20012 15.3425 16.5279
574 2 2.2208 2.21898 20.9093 16.4922
575 1 -1.1104 3.66825 16.7258 17.8608
576 1 -1.1104 3.59956 16.7719 15.0814
548 1 -1.1104 6.38463 13.7949 17.9142
564 1 -1.1104 6.37796 16.6114 15.2669
559 1 -1.1104 6.48938 16.6158 17.9695
549 1 -1.1104 6.47258 19.3956 17.9363
556 1 -1.1104 6.32376 19.3921 14.9912
563 1 -1.1104 0.892612 16.8008 20.7112
554 1 -1.1104 6.46159 13.7446 14.9965
597 1 -1.1104 9.24279 14.0335 20.7283
728 2 2.2208 13.4125 6.96048 24.9861
478 2 2.2208 13.5342 20.9186 16.4174
581 2 2.2208 10.7728 18.1596 16.5199
582 1 -1.1104 12.0464 13.9288 18.065
583 1 -1.1104 12.0976 19.4733 17.7759
584 1 -1.1104 11.9118 13.7219 15.2224
586 1 -1.1104 12.2157 19.5847 15.1197
588 1 -1.1104 12.0731 16.7937 18.0346
589 2 2.2208 10.5893 15.3184 19.378
590 2 2.2208 10.607 21.0034 19.1547
591 1 -1.1104 12.1931 16.5486 15.1426
593 1 -1.1104 9.12393 13.828 17.8031
594 1 -1.1104 9.23501 19.4148 17.8782
595 2 2.2208 7.83974 18.0976 19.3555
596 1 -1.1104 9.32468 13.9369 15.1351
598 1 -1.1104 9.21346 19.5765 15.1569
600 2 2.2208 7.9767 15.3396 16.5651
601 2 2.2208 7.777 20.9095 16.4026
602 1 -1.1104 9.40416 16.5886 18.0001
603 1 -1.1104 9.36446 16.8013 15.106
479 2 2.2208 13.5232 18.0966 19.3415
592 1 -1.1104 11.9554 16.7054 20.7584
585 1 -1.1104 12.0732 13.9638 20.8672
362 2 2.2208 13.2943 12.6326 13.7975
431 1 -1.1104 3.51902 -2.83786 20.6233
416 1 -1.1104 6.39843 -3.0297 20.7992
412 1 -1.1104 0.86162 -2.8142 20.544
426 1 -1.1104 6.48144 -0.289914 20.7293
438 1 -1.1104 3.55215 -0.219823 20.8183
424 1 -1.1104 0.770051 -0.0276819 20.7605
609 2 2.2208 5.15407 1.20438 22.0386
610 1 -1.1104 0.805537 -2.84499 23.4872
611 1 -1.1104 0.869422 2.75211 23.5646
614 1 -1.1104 0.732354 -2.99847 26.1712
615 1 -1.1104 0.959562 2.76869 26.3976
618 1 -1.1104 0.736527 -0.140275 23.5288
620 2 2.2208 5.05868 -1.51395 24.8975
621 2 2.2208 5.14762 4.16612 24.9335
622 1 -1.1104 0.908295 -0.165342 26.4042
624 1 -1.1104 3.70347 -2.86139 23.4514
625 1 -1.1104 3.76581 2.6223 23.4789
626 2 2.2208 2.33514 1.31117 24.8835
627 1 -1.1104 3.68732 -2.88419 26.2779
628 1 -1.1104 3.64294 2.81949 26.2383
629 2 2.2208 2.20967 -1.41859 22.1484
631 1 -1.1104 3.61764 -0.127352 23.6026
632 1 -1.1104 3.7571 -0.16732 26.3716
630 2 2.2208 2.30362 4.07281 22.1471
623 1 -1.1104 6.41073 -0.172579 26.0991
616 1 -1.1104 6.52719 -2.88442 26.3089
617 1 -1.1104 6.53116 2.69215 26.4921
619 1 -1.1104 6.57766 -0.0728195 23.3385
612 1 -1.1104 6.48181 -2.89118 23.6697
364 2 2.2208 10.7593 9.6086 13.7837
641 2 2.2208 10.4609 20.897 24.8558
638 2 2.2208 10.6559 15.3929 24.8989
472 1 -1.1104 9.30933 -0.0880306 20.837
465 1 -1.1104 9.24372 -2.84828 20.8484
455 1 -1.1104 12.0243 2.72526 20.7991
453 1 -1.1104 11.932 -2.99337 20.8441
480 2 2.2208 13.5428 15.2935 16.6171
418 1 -1.1104 6.52668 2.61649 20.6801
613 1 -1.1104 6.36217 2.71244 23.636
467 1 -1.1104 9.26988 2.73881 20.773
645 2 2.2208 10.7109 1.36956 22.2326
646 1 -1.1104 12.1014 -2.91899 23.5447
647 1 -1.1104 12.0885 2.72979 23.567
648 1 -1.1104 12.1227 -2.93409 26.2517
649 1 -1.1104 12.1323 2.91217 26.4334
650 1 -1.1104 11.9909 -0.0676275 23.5416
651 2 2.2208 10.7056 -1.55162 25.0265
652 2 2.2208 10.6958 4.17368 25.0105
653 1 -1.1104 12.1248 -0.033494 26.4854
654 1 -1.1104 9.12632 -2.84334 23.6527
655 1 -1.1104 9.30074 2.69623 23.5374
656 2 2.2208 7.96615 1.3359 24.8774
657 1 -1.1104 9.28844 -2.955 26.3958
658 1 -1.1104 9.21542 2.78683 26.3241
659 2 2.2208 7.93521 -1.52956 22.1041
660 2 2.2208 7.914 4.0928 22.1637
661 1 -1.1104 9.35509 -0.150361 23.6752
662 1 -1.1104 9.21694 -0.0741709 26.4307
446 2 2.2208 13.5253 4.12664 22.2151
580 2 2.2208 13.3641 15.4728 22.1189
498 1 -1.1104 0.935993 11.2283 20.8873
496 1 -1.1104 0.980386 5.65014 20.6697
487 1 -1.1104 1.06697 8.51097 20.6705
507 1 -1.1104 3.85046 8.14411 20.7012
489 1 -1.1104 6.71786 8.12704 20.8581
512 1 -1.1104 3.72744 5.31334 20.7697
514 1 -1.1104 3.71432 10.9615 20.6771
674 2 2.2208 5.21289 6.88275 22.2078
675 2 2.2208 5.06354 12.4969 22.2169
676 1 -1.1104 0.905066 8.30958 23.5015
678 1 -1.1104 0.893912 8.3687 26.3555
680 1 -1.1104 0.948817 5.4455 23.4423
681 1 -1.1104 0.956102 11.0229 23.7059
684 2 2.2208 5.15187 9.68929 24.9854
685 1 -1.1104 0.910904 5.49423 26.2093
686 1 -1.1104 0.713615 11.0356 26.3362
689 1 -1.1104 3.68208 8.2829 23.5457
690 2 2.2208 2.24544 6.89942 24.8231
691 2 2.2208 2.37769 12.5645 25.0275
692 1 -1.1104 3.639 8.30207 26.4549
693 2 2.2208 2.43417 9.69709 22.2851
694 1 -1.1104 3.59636 5.45154 23.5444
695 1 -1.1104 3.75652 11.1498 23.7678
696 1 -1.1104 3.78615 5.70095 26.3767
697 1 -1.1104 3.56286 11.1676 26.5154
679 1 -1.1104 6.45555 8.2472 26.3687
682 1 -1.1104 6.42468 5.45737 23.5216
677 1 -1.1104 6.42126 8.32864 23.5416
688 1 -1.1104 6.44865 11.1708 26.2736
687 1 -1.1104 6.60852 5.55176 26.3672
683 1 -1.1104 6.4809 11.1573 23.4756
445 2 2.2208 13.4403 9.87037 22.2369
726 2 2.2208 13.3109 12.5852 24.8907
541 1 -1.1104 9.4076 11.0819 20.6744
502 1 -1.1104 6.46177 11.0029 20.7556
636 1 -1.1104 11.9885 16.7863 23.3711
527 1 -1.1104 12.2021 5.55261 20.8006
539 1 -1.1104 9.25205 5.52195 20.784
671 2 2.2208 13.4655 -1.41167 22.1137
534 1 -1.1104 9.41261 8.32829 20.8066
705 1 -1.1104 9.14264 11.0721 26.2206
706 1 -1.1104 9.3339 5.47034 26.2868
707 1 -1.1104 9.21919 10.888 23.4221
708 1 -1.1104 9.2799 5.40492 23.6574
709 2 2.2208 7.88209 9.65017 22.0998
710 1 -1.1104 9.21875 8.3195 26.248
711 2 2.2208 7.7849 12.6045 25.0097
712 2 2.2208 7.79572 6.83449 24.9119
713 2 2.2208 10.7072 6.79855 22.248
714 2 2.2208 10.7683 12.4749 22.1472
715 1 -1.1104 11.9672 8.28507 23.6491
716 1 -1.1104 12.0377 8.51765 26.3938
717 1 -1.1104 12.1032 5.4953 23.6855
718 1 -1.1104 11.9239 10.9678 23.5745
719 2 2.2208 10.5668 9.64663 24.948
720 1 -1.1104 12.0365 5.75348 26.4331
721 1 -1.1104 11.9408 11.1652 26.2641
722 1 -1.1104 8.96776 8.05173 23.4661
672 2 2.2208 13.6028 1.37017 24.954
608 1 -1.1104 11.9357 13.8951 23.599
551 1 -1.1104 0.944158 14.0217 20.6208
572 1 -1.1104 3.66362 19.6107 20.6175
553 1 -1.1104 0.841542 19.4605 20.6597
570 1 -1.1104 3.72456 13.7919 20.7013
577 1 -1.1104 3.62091 16.6968 20.6947
555 1 -1.1104 6.49171 13.8876 20.7799
565 1 -1.1104 6.34274 16.6063 20.6822
736 1 -1.1104 6.35963 19.4536 23.5179
739 1 -1.1104 6.38105 13.8194 23.5933
557 1 -1.1104 6.44366 19.4438 20.737
366 2 2.2208 13.6061 6.96777 13.6433
670 1 -1.1104 6.53039 19.4675 26.2426
746 1 -1.1104 3.71246 13.8783 26.5957
745 1 -1.1104 3.63752 16.5734 26.3624
744 2 2.2208 2.30646 18.0544 25.0261
743 1 -1.1104 3.55494 19.3873 26.3237
742 2 2.2208 5.04414 17.9848 22.1335
741 1 -1.1104 0.869236 13.9027 23.4746
750 2 2.2208 2.25008 20.8325 22.0211
749 1 -1.1104 3.64239 16.696 23.6124
748 1 -1.1104 0.954979 16.6979 23.4531
727 2 2.2208 2.27126 15.3468 22.0945
729 1 -1.1104 3.53505 19.4873 23.4495
731 1 -1.1104 3.74833 13.8376 23.7342
733 1 -1.1104 0.729126 19.4606 26.3043
734 1 -1.1104 0.881338 16.7889 26.2883
735 1 -1.1104 0.657594 13.7976 26.273
737 2 2.2208 4.97768 20.863 24.8489
738 2 2.2208 5.1096 15.2583 24.9942
740 1 -1.1104 0.823786 19.4577 23.4859
732 1 -1.1104 6.33733 16.6833 26.2831
747 1 -1.1104 6.53561 16.478 23.6505
663 1 -1.1104 12.1863 16.6751 26.2184
701 1 -1.1104 9.20832 16.6335 23.4264
606 2 2.2208 13.2709 20.8774 22.1316
599 1 -1.1104 9.15785 19.5855 20.5315
700 2 2.2208 7.71406 20.8665 22.0425
604 1 -1.1104 9.2039 16.7009 20.772
699 2 2.2208 7.83324 15.134 22.1092
664 1 -1.1104 9.15122 13.6461 23.4068
634 1 -1.1104 12.0453 13.9471 26.2706
665 1 -1.1104 9.10093 19.4355 23.4213
607 2 2.2208 10.5983 18.1174 22.084
704 1 -1.1104 9.3965 16.695 26.2206
587 1 -1.1104 11.9213 19.4611 20.8422
673 1 -1.1104 9.24524 13.9238 26.2805
730 1 -1.1104 6.54128 13.8608 26.4293
380 2 2.2208 13.449 17.9756 13.7381
400 2 2.2208 10.6962 12.7442 27.7177
348 2 2.2208 4.99732 -1.5996 13.6897
375 2 2.2208 13.4058 21.0318 27.7359
369 2 2.2208 4.90679 20.8426 13.6402
751 2 2.2208 5.03929 23.7807 5.24127
752 2 2.2208 5.15757 29.2788 5.25522
753 1 -1.1104 0.93091 25.0577 1.01588
754 1 -1.1104 0.874274 25.1183 3.85763
755 1 -1.1104 0.860257 22.1786 0.988276
756 1 -1.1104 0.796164 27.7585 1.11675
757 2 2.2208 5.02467 26.4912 2.39494
758 1 -1.1104 1.01752 22.3231 3.86345
759 1 -1.1104 0.825771 27.984 3.96062
760 1 -1.1104 3.66289 25.1281 1.15015
761 2 2.2208 2.3168 23.8087 2.47359
762 2 2.2208 2.22661 29.2224 2.54312
763 1 -1.1104 3.61959 25.1617 3.84414
764 2 2.2208 2.21817 26.4817 5.3627
765 1 -1.1104 3.61946 22.3728 1.05204
766 1 -1.1104 3.58745 27.9127 0.976256
767 1 -1.1104 3.75125 22.3849 3.93039
768 1 -1.1104 3.71779 27.9005 3.90819
775 1 -1.1104 6.38493 27.8212 0.936579
774 1 -1.1104 6.40069 22.1707 1.18081
776 1 -1.1104 6.41777 22.289 3.83709
773 1 -1.1104 6.44932 25.1664 3.9949
899 1 -1.1104 3.74521 22.2937 6.68401
777 1 -1.1104 6.55638 27.8472 3.8417
893 1 -1.1104 6.5031 25.0052 6.68642
1685 1 -1.1104 3.84963 47.8042 12.2661
1526 1 -1.1104 9.26986 47.6023 1.0093
772 1 -1.1104 6.46314 24.9549 1.07658
778 2 2.2208 10.623 23.8253 5.30517
779 2 2.2208 10.8531 29.4305 5.28094
780 1 -1.1104 12.0971 25.2629 1.05427
781 1 -1.1104 12.0012 25.2144 3.85225
782 1 -1.1104 12.0157 22.318 1.00401
783 1 -1.1104 12.1061 28.0256 1.04993
784 2 2.2208 10.6631 26.5019 2.42924
785 1 -1.1104 12.0581 22.4732 3.88707
786 1 -1.1104 12.074 27.9439 3.76038
787 1 -1.1104 9.20624 25.0818 0.973
788 2 2.2208 7.75367 23.6815 2.5268
789 2 2.2208 7.89735 29.2361 2.3564
790 1 -1.1104 9.27495 25.1813 3.70972
791 2 2.2208 7.95171 26.5079 5.18216
792 1 -1.1104 9.26784 22.4416 1.17728
793 1 -1.1104 9.29398 27.8279 1.08676
794 1 -1.1104 9.27323 22.4938 4.038
795 1 -1.1104 9.22148 27.8653 3.84318
928 1 -1.1104 9.30355 25.2855 6.54203
797 2 2.2208 13.4905 29.3192 2.39915
927 1 -1.1104 12.1029 27.9071 6.58319
1106 2 2.2208 8.03249 40.5307 13.6816
798 2 2.2208 13.4902 26.5828 5.13007
1476 1 -1.1104 0.92459 47.6588 3.78221
1699 1 -1.1104 12.0667 47.5911 6.42342
799 2 2.2208 5.06538 34.8432 5.1544
800 1 -1.1104 0.759011 30.5661 1.08147
801 1 -1.1104 0.826611 36.1728 0.916347
803 1 -1.1104 0.909883 30.8112 3.87555
804 1 -1.1104 0.832554 36.4582 3.81476
806 1 -1.1104 0.931962 33.3465 1.2704
807 2 2.2208 5.19301 32.051 2.37064
808 2 2.2208 5.17335 37.7876 2.49517
809 1 -1.1104 0.86135 33.681 3.88039
811 1 -1.1104 3.69749 30.6668 1.10851
812 1 -1.1104 3.71791 36.2863 0.913351
813 2 2.2208 2.35142 34.8508 2.4211
814 1 -1.1104 3.81494 30.6928 3.8609
815 1 -1.1104 3.72537 36.3831 3.74439
816 2 2.2208 2.27023 32.1858 5.274
817 2 2.2208 2.20157 37.7876 5.12847
818 1 -1.1104 3.69227 33.4351 1.12782
819 1 -1.1104 3.61759 33.4905 3.79591
823 1 -1.1104 6.51501 30.7154 1.02
810 1 -1.1104 6.52765 33.6072 3.83778
805 1 -1.1104 6.56644 36.3557 3.99129
957 1 -1.1104 3.65848 33.5927 6.68175
953 1 -1.1104 0.785957 33.5049 6.72484
825 1 -1.1104 6.52892 33.6625 1.04007
955 1 -1.1104 3.72389 30.6056 6.71248
824 1 -1.1104 6.64715 30.6324 3.78519
890 2 2.2208 13.4725 46.1665 2.50459
1671 1 -1.1104 0.96621 47.6777 12.1242
802 1 -1.1104 6.37608 36.3773 1.18493
1068 2 2.2208 13.6344 32.1834 5.27436
826 2 2.2208 10.8068 34.9167 5.25309
827 1 -1.1104 11.9908 30.818 1.05643
828 1 -1.1104 12.0117 36.3678 1.01782
829 1 -1.1104 12.2484 30.8553 3.90964
830 1 -1.1104 12.1927 36.3471 3.85379
831 1 -1.1104 12.1664 33.5715 1.066
832 2 2.2208 10.6733 32.2238 2.52858
833 2 2.2208 10.8248 37.765 2.48117
834 1 -1.1104 12.2004 33.6066 3.94384
835 1 -1.1104 9.22851 30.6945 1.03547
836 1 -1.1104 9.23823 36.3467 0.971077
837 2 2.2208 7.85922 34.9958 2.5558
838 1 -1.1104 9.45356 30.746 3.70699
839 1 -1.1104 9.28307 36.2285 3.79453
840 2 2.2208 7.97202 32.0925 5.19009
841 2 2.2208 7.99428 37.8159 5.14654
842 1 -1.1104 9.26386 33.6358 1.0887
843 1 -1.1104 9.29955 33.5604 3.83415
988 1 -1.1104 9.49053 33.4679 6.7581
844 2 2.2208 13.6122 34.9539 2.54559
1067 2 2.2208 13.5842 37.9675 5.17038
951 1 -1.1104 6.56014 30.6579 6.56643
1081 2 2.2208 13.5189 40.722 8.08982
1051 1 -1.1104 9.27677 42.1302 12.3008
867 1 -1.1104 3.86139 39.2231 3.84884
856 1 -1.1104 0.901071 39.2815 3.85078