ITEM: TIMESTEP
90000
ITEM: NUMBER OF ATOMS
17730
ITEM: BOX BOUNDS pp pp pp
-3.5123090810758956e-01 2.7691230908107457e+01
-4.3108600530765191e+00 3.3239086005307001e+02
-3.4905475588961649e-01 2.7689054755888904e+01
ITEM: ATOMS id type q x y z
1 2 2.2208 5.01109 1.21071 5.24347
2 1 -1.1104 0.978642 -2.99413 1.02721
3 1 -1.1104 0.729353 2.58595 1.13395
6 1 -1.1104 0.870327 -2.94814 3.85044
7 1 -1.1104 0.865877 2.53103 3.81745
10 1 -1.1104 0.872687 -0.203958 0.950168
12 2 2.2208 5.11353 -1.54808 2.30572
13 2 2.2208 4.99804 4.03995 2.34604
14 1 -1.1104 0.992285 -0.21362 3.84255
16 1 -1.1104 3.72296 -2.9338 1.01178
17 1 -1.1104 3.67112 2.6843 0.83201
18 2 2.2208 2.38027 1.16008 2.35497
19 1 -1.1104 3.63448 -2.95578 3.84324
20 1 -1.1104 3.73708 2.62057 3.55248
21 2 2.2208 2.22607 -1.61972 5.26443
22 2 2.2208 2.19786 3.97553 5.11844
23 1 -1.1104 3.70045 -0.11168 1.14052
24 1 -1.1104 3.68357 -0.118132 3.70983
9 1 -1.1104 6.35235 2.55321 3.76285
5 1 -1.1104 6.52096 2.64577 0.966901
8 1 -1.1104 6.52344 -2.94702 3.88637
172 1 -1.1104 3.79239 -3.06042 6.75546
167 1 -1.1104 0.8275 2.69649 6.496
15 1 -1.1104 6.51727 -0.193084 3.81082
4 1 -1.1104 6.50633 -2.92592 1.00729
11 1 -1.1104 6.52651 -0.190316 0.974318
168 1 -1.1104 6.469 -3.05815 6.66292
170 1 -1.1104 0.880402 -0.248777 6.55602
166 1 -1.1104 0.93617 -3.00807 6.80431
365 2 2.2208 7.94657 12.5451 13.6845
375 2 2.2208 13.6086 20.7938 -0.26998
50 2 2.2208 13.5617 -1.38645 5.13806
49 2 2.2208 13.4524 1.16902 2.31441
31 2 2.2208 10.5776 1.24859 5.30034
32 1 -1.1104 12.0391 -2.84857 1.03743
33 1 -1.1104 12.184 2.66385 0.964472
34 1 -1.1104 12.2111 -2.89471 3.88537
35 1 -1.1104 11.9151 2.60459 3.76957
36 1 -1.1104 12.1763 -0.124128 0.958583
37 2 2.2208 10.7502 -1.54556 2.39739
38 2 2.2208 10.6348 4.13272 2.44102
39 1 -1.1104 12.0793 -0.180827 3.70848
40 1 -1.1104 9.32098 -2.9664 0.977049
41 1 -1.1104 9.35392 2.59135 1.05293
42 2 2.2208 7.87077 1.26711 2.37837
43 1 -1.1104 9.30379 -2.96014 3.78456
44 1 -1.1104 9.17408 2.70663 3.98372
45 2 2.2208 7.81101 -1.43275 5.2504
46 2 2.2208 7.76679 4.05895 5.24125
47 1 -1.1104 9.2952 -0.108931 1.00312
48 1 -1.1104 9.31982 -0.0702122 3.87994
208 1 -1.1104 9.14863 -2.78681 6.70359
210 1 -1.1104 9.36319 -0.160197 6.59348
209 1 -1.1104 9.30133 2.62602 6.62026
207 1 -1.1104 12.1131 -0.00484685 6.53169
314 1 -1.1104 9.36433 16.5586 9.40921
135 2 2.2208 -0.293021 15.2817 2.44527
206 1 -1.1104 12.0142 2.65278 6.69583
334 2 2.2208 13.4336 4.1042 5.14783
388 2 2.2208 7.92099 -1.44288 -0.423814
353 2 2.2208 7.91888 -4.19438 13.7138
377 2 2.2208 7.89179 15.2433 -0.407533
231 2 2.2208 7.82821 -4.34234 8.10089
54 2 2.2208 5.09891 6.88325 5.20584
55 2 2.2208 5.22636 12.5641 5.20053
56 1 -1.1104 0.991581 8.2577 1.24938
58 1 -1.1104 0.810775 8.08249 4.03319
60 1 -1.1104 0.804936 5.57339 1.00163
61 1 -1.1104 0.863097 11.07 1.21572
66 2 2.2208 5.0487 9.77905 2.66841
67 1 -1.1104 0.873695 5.39496 3.91217
68 1 -1.1104 1.06354 10.9616 4.00601
71 1 -1.1104 3.83817 8.3247 1.20882
72 2 2.2208 2.25223 6.89304 2.5081
73 2 2.2208 2.2667 12.5806 2.44004
74 1 -1.1104 3.5663 8.44484 3.95637
75 2 2.2208 2.22949 9.66833 5.41795
76 1 -1.1104 3.55785 5.48793 1.01975
77 1 -1.1104 3.52873 11.1407 1.11933
79 1 -1.1104 3.65168 5.48025 3.80756
80 1 -1.1104 3.70215 11.247 3.97164
59 1 -1.1104 6.33439 8.31034 3.8256
63 1 -1.1104 6.38904 5.53305 1.04952
64 1 -1.1104 6.61702 11.2154 1.10855
57 1 -1.1104 6.50348 8.26723 0.971029
69 1 -1.1104 6.54818 5.47081 3.7658
70 1 -1.1104 6.62507 10.9368 3.88337
237 1 -1.1104 6.54807 5.38552 6.6035
235 1 -1.1104 6.46769 8.18359 6.63925
316 2 2.2208 8.0572 20.9328 10.9904
234 1 -1.1104 0.853151 8.2347 6.77994
402 2 2.2208 13.443 9.59783 -0.368749
104 2 2.2208 13.5879 12.4888 2.4508
65 1 -1.1104 6.57332 11.0306 6.64154
84 2 2.2208 10.7644 6.88831 5.23349
85 2 2.2208 10.6767 12.4847 5.32803
86 1 -1.1104 12.0423 8.35228 1.11545
87 1 -1.1104 12.0546 8.10934 4.04955
88 1 -1.1104 12.0811 5.55488 1.03938
89 1 -1.1104 12.0428 11.1255 1.10198
91 2 2.2208 10.636 9.59676 2.46649
92 1 -1.1104 12.0827 5.33387 3.85523
93 1 -1.1104 12.089 10.7897 3.89006
94 1 -1.1104 9.2718 8.27172 1.03315
95 2 2.2208 7.7529 6.86432 2.43918
96 2 2.2208 8.06419 12.5132 2.45978
97 1 -1.1104 9.26025 8.20775 3.90211
98 2 2.2208 7.94161 9.52922 5.2552
99 1 -1.1104 9.18884 5.43057 1.0544
100 1 -1.1104 9.32584 11.1843 1.0741
102 1 -1.1104 9.30316 5.51667 3.8548
103 1 -1.1104 9.27769 10.8753 3.96145
267 1 -1.1104 9.28448 8.32202 6.63667
90 1 -1.1104 12.0889 11.0315 6.68325
335 2 2.2208 13.4542 9.67924 5.26802
265 1 -1.1104 12.1901 8.4079 6.75518
105 2 2.2208 13.4368 6.82821 2.4539
53 2 2.2208 13.3818 -4.36074 2.43645
327 1 -1.1104 12.3366 19.5229 9.44393
154 1 -1.1104 9.32311 13.919 6.66816
106 2 2.2208 5.26943 18.0404 5.43139
107 1 -1.1104 0.920348 13.8543 1.12557
109 1 -1.1104 0.947812 19.5001 1.00899
113 1 -1.1104 0.976992 13.6959 3.93355
114 1 -1.1104 1.00818 19.4787 3.79536
116 1 -1.1104 0.885581 16.538 1.06892
119 2 2.2208 5.28413 15.3501 2.35255
120 2 2.2208 5.16728 20.887 2.57733
121 1 -1.1104 1.06007 16.5254 3.76602
123 1 -1.1104 3.69444 13.9311 1.16153
125 1 -1.1104 3.73604 19.6131 1.00646
127 2 2.2208 2.38982 18.1484 2.4564
128 1 -1.1104 3.78816 13.9425 3.70942
129 1 -1.1104 3.858 19.4379 3.87218
130 2 2.2208 2.24542 15.2376 5.2334
131 2 2.2208 2.47223 20.8133 5.28122
132 1 -1.1104 3.67034 16.7367 0.874883
134 1 -1.1104 3.86348 16.6743 3.71817
110 1 -1.1104 6.37848 13.9303 1.0356
139 1 -1.1104 6.6965 19.5754 3.89559
122 1 -1.1104 6.63459 16.5735 3.85583
117 1 -1.1104 0.941695 16.7608 6.58657
124 1 -1.1104 3.71996 13.8037 6.59044
138 1 -1.1104 6.64023 19.6317 1.14336
126 1 -1.1104 3.88081 19.4434 6.80771
140 1 -1.1104 6.44326 16.8944 0.997984
133 1 -1.1104 3.70546 16.6637 6.55787
337 2 2.2208 13.5185 15.3208 5.0678
115 1 -1.1104 6.78919 13.9092 3.7741
165 2 2.2208 13.7152 18.1396 2.42101
336 2 2.2208 13.6624 20.8606 5.24226
163 1 -1.1104 9.44725 16.6489 6.62785
141 2 2.2208 10.8762 18.0465 5.14119
142 1 -1.1104 12.084 13.9742 0.974597
144 1 -1.1104 12.2349 19.3609 0.951302
146 1 -1.1104 12.0943 13.7912 3.83947
147 1 -1.1104 12.3212 19.4347 3.88853
148 1 -1.1104 12.1709 16.6659 1.12091
150 2 2.2208 10.808 15.2519 2.39793
151 2 2.2208 10.7662 20.8789 2.45439
152 1 -1.1104 12.2983 16.5586 3.82017
153 1 -1.1104 9.2481 13.8142 0.911018
155 1 -1.1104 9.44485 19.5376 0.995119
157 2 2.2208 8.01615 18.0717 2.62664
158 1 -1.1104 9.38409 13.8573 3.79892
159 1 -1.1104 9.41936 19.4493 3.82729
160 2 2.2208 8.0579 15.2728 5.29457
161 2 2.2208 8.05336 20.8572 5.26675
162 1 -1.1104 9.21494 16.692 1.08993
164 1 -1.1104 9.33483 16.645 3.70935
143 1 -1.1104 12.1722 13.7489 6.61239
145 1 -1.1104 12.1422 19.4706 6.60464
149 1 -1.1104 12.184 16.6692 6.54214
395 2 2.2208 5.14982 12.4095 -0.306704
156 1 -1.1104 9.40799 19.4669 6.67127
173 1 -1.1104 3.63529 2.70685 6.44008
174 1 -1.1104 3.64319 -0.293672 6.66691
169 1 -1.1104 6.39077 2.64553 6.52029
171 1 -1.1104 6.47543 -0.17128 6.66857
175 2 2.2208 5.06643 1.28524 10.7473
176 1 -1.1104 0.610902 -2.79395 12.1505
177 1 -1.1104 0.786164 2.68441 12.2663
180 1 -1.1104 0.825279 -2.85919 9.60171
181 1 -1.1104 0.975433 2.5577 9.38706
184 1 -1.1104 0.95673 -0.0584142 12.2698
186 2 2.2208 5.02843 -1.63609 8.06412
188 1 -1.1104 0.683489 -0.137292 9.36906
190 1 -1.1104 3.46641 -3.03146 12.346
191 1 -1.1104 3.5741 2.75183 12.1539
192 2 2.2208 2.3006 1.21844 8.04084
193 1 -1.1104 3.66599 -2.87559 9.63293
194 1 -1.1104 3.77077 2.68567 9.29428
195 2 2.2208 2.20344 -1.48768 10.9215
196 2 2.2208 2.26093 4.18495 10.7231
197 1 -1.1104 3.78749 -0.188444 12.2693
198 1 -1.1104 3.50192 -0.163704 9.44602
187 2 2.2208 5.08773 4.06502 8.06024
182 1 -1.1104 6.47637 -2.91176 9.59546
179 1 -1.1104 6.23758 2.57687 12.126
189 1 -1.1104 6.33075 -0.0660615 9.50135
183 1 -1.1104 6.60525 2.7991 9.45277
318 1 -1.1104 9.43917 19.472 9.47128
205 1 -1.1104 11.9855 -2.97435 6.65806
230 2 2.2208 13.4425 -1.42256 10.8729
185 1 -1.1104 6.45256 -0.261431 12.2669
178 1 -1.1104 6.40474 -2.9727 12.2415
211 2 2.2208 10.7269 1.32215 10.8959
212 1 -1.1104 11.9999 -2.80788 12.2418
213 1 -1.1104 11.9734 2.66425 12.28
214 1 -1.1104 12.1322 -2.81549 9.49617
215 1 -1.1104 12.0427 2.82861 9.55595
216 1 -1.1104 12.0969 -0.11813 12.3168
217 2 2.2208 10.623 -1.54749 8.11917
219 1 -1.1104 12.0317 0.117466 9.50441
220 1 -1.1104 9.25262 -2.95941 12.2357
221 1 -1.1104 9.14359 2.70657 12.2028
222 2 2.2208 7.98862 1.17793 8.05056
223 1 -1.1104 9.38801 -2.97467 9.38874
224 1 -1.1104 9.3885 2.52006 9.46898
225 2 2.2208 7.71879 -1.46646 10.9289
226 2 2.2208 7.80159 4.09643 10.9282
227 1 -1.1104 9.17463 -0.00530032 12.2359
228 1 -1.1104 9.26851 -0.281924 9.49524
218 2 2.2208 10.695 4.12488 7.99147
229 2 2.2208 13.4606 1.25775 7.89127
338 2 2.2208 13.4836 4.14368 10.7737
356 2 2.2208 10.6538 -1.49173 13.6689
62 1 -1.1104 0.937497 11.1674 6.78308
238 1 -1.1104 3.7446 8.21432 6.75338
78 1 -1.1104 3.59346 10.9824 6.84338
239 1 -1.1104 3.83933 5.41452 6.5988
236 1 -1.1104 0.990799 5.39599 6.5338
240 2 2.2208 5.09994 6.95598 10.8398
241 2 2.2208 5.09279 12.5786 10.7678
242 1 -1.1104 0.945798 8.19847 12.2727
244 1 -1.1104 1.04164 8.3321 9.55702
246 1 -1.1104 0.988406 5.38662 12.1549
247 1 -1.1104 0.810816 10.9477 12.2186
250 2 2.2208 5.08814 9.6833 8.10023
251 1 -1.1104 0.823383 5.49368 9.39663
252 1 -1.1104 1.0026 11.1857 9.50979
255 1 -1.1104 3.75253 8.43523 12.4585
256 2 2.2208 2.26244 6.89258 8.03212
257 2 2.2208 2.31479 12.577 8.00456
258 1 -1.1104 3.61587 8.32448 9.62412
259 2 2.2208 2.23209 9.64685 10.9898
260 1 -1.1104 3.81293 5.83219 12.355
261 1 -1.1104 3.60687 11.186 12.1973
262 1 -1.1104 3.70509 5.50146 9.45511
263 1 -1.1104 3.70768 11.1646 9.54261
253 1 -1.1104 6.54353 5.54802 9.452
245 1 -1.1104 6.56739 8.29286 9.39304
254 1 -1.1104 6.39641 10.9971 9.31059
249 1 -1.1104 6.51373 11.0471 12.1453
243 1 -1.1104 6.44605 8.28132 12.2757
339 2 2.2208 13.4717 7.00526 8.07626
266 1 -1.1104 12.0163 5.5659 6.60164
269 1 -1.1104 9.20934 5.33412 6.76349
340 2 2.2208 13.6325 12.604 8.03812
248 1 -1.1104 6.57529 5.40835 12.4283
101 1 -1.1104 9.3712 11.0397 6.85222
341 2 2.2208 13.5121 9.76436 10.8669
264 1 -1.1104 9.12254 11.0103 9.5536
268 1 -1.1104 9.21197 5.35341 9.38826
270 1 -1.1104 9.41547 11.2752 12.3646
271 1 -1.1104 9.25932 5.4827 12.3123
272 2 2.2208 7.87479 9.62229 10.8591
273 1 -1.1104 9.34698 8.16609 9.46497
274 2 2.2208 7.95162 12.4978 8.10014
275 2 2.2208 7.79813 6.83799 7.96076
276 2 2.2208 10.6904 6.79305 10.9037
277 2 2.2208 10.7915 12.4463 10.9092
278 1 -1.1104 12.0229 8.3679 12.3358
279 1 -1.1104 12.1058 8.21941 9.56218
280 1 -1.1104 12.1878 5.44153 12.2397
281 1 -1.1104 12.1363 11.2101 12.3544
282 2 2.2208 10.7014 9.65707 8.07802
283 1 -1.1104 12.1114 5.53488 9.45643
284 1 -1.1104 12.1771 11.0297 9.61258
285 1 -1.1104 9.30217 8.18759 12.1948
321 1 -1.1104 9.33201 19.5001 12.3256
319 1 -1.1104 9.52193 13.7924 9.39025
28 2 2.2208 2.30849 -4.47117 2.37809
345 2 2.2208 13.5241 20.9597 10.9456
322 1 -1.1104 9.3904 14.0942 12.4136
302 1 -1.1104 1.11739 19.4362 6.67205
108 1 -1.1104 0.850684 13.9611 6.6799
111 1 -1.1104 6.41692 13.9582 6.68199
326 1 -1.1104 12.2386 16.7918 12.2805
118 1 -1.1104 6.66232 16.6481 6.66086
288 1 -1.1104 6.65017 19.4153 9.38396
306 1 -1.1104 6.71777 16.6604 12.276
296 1 -1.1104 6.42203 19.5754 12.2643
289 1 -1.1104 6.59708 16.6478 9.5787
297 1 -1.1104 6.52769 13.7877 12.2638
292 1 -1.1104 1.0294 16.6465 9.36797
310 2 2.2208 2.23427 15.1877 10.9445
309 2 2.2208 2.33199 20.8248 10.8293
308 1 -1.1104 3.59538 16.709 12.1233
307 1 -1.1104 0.793947 16.6676 12.2238
291 1 -1.1104 0.95798 19.4331 9.50058
287 1 -1.1104 3.73387 14.0222 12.293
305 1 -1.1104 3.67178 14.0099 9.45843
304 1 -1.1104 3.90222 16.7675 9.42223
303 2 2.2208 2.43419 18.0409 8.03798
301 1 -1.1104 3.84122 19.519 9.38295
300 2 2.2208 5.08057 18.019 10.8596
299 1 -1.1104 0.991475 13.8403 12.3454
298 1 -1.1104 0.792705 19.5068 12.2388
286 1 -1.1104 3.64889 19.4609 12.3922
295 2 2.2208 5.08875 15.3162 8.08727
294 1 -1.1104 0.74663 13.815 9.51825
293 2 2.2208 5.186 20.9734 8.08243
290 1 -1.1104 6.58465 14.02 9.58482
29 2 2.2208 4.99613 -4.36556 5.24941
333 2 2.2208 13.573 15.3299 10.8946
332 2 2.2208 13.6184 18.148 8.0481
324 2 2.2208 10.841 20.8161 8.06165
329 1 -1.1104 12.1095 19.5474 12.2843
325 2 2.2208 10.8106 15.2383 8.10978
320 2 2.2208 8.10941 18.0594 8.09468
331 2 2.2208 10.75 18.2093 10.8594
315 1 -1.1104 9.34994 16.741 12.4121
323 1 -1.1104 12.0806 16.7827 9.44336
330 1 -1.1104 12.1918 13.9185 12.1008
112 1 -1.1104 6.60544 19.4636 6.61887
317 2 2.2208 7.97674 15.3136 10.833
328 1 -1.1104 12.1602 13.8956 9.41398
362 2 2.2208 13.5319 12.6123 13.571
348 2 2.2208 4.97095 -1.57668 13.6512
372 2 2.2208 10.7864 20.8655 13.8037
357 2 2.2208 10.6691 4.08477 13.5719
392 2 2.2208 13.4144 4.00728 -0.32118
381 2 2.2208 5.0541 1.27434 -0.481002
383 2 2.2208 2.30614 4.05573 -0.358411
389 2 2.2208 7.84255 3.96735 -0.432583
363 2 2.2208 7.85571 6.90679 13.8083
369 2 2.2208 5.05935 20.9087 13.656
391 2 2.2208 13.504 -1.67525 -0.275773
359 2 2.2208 2.35134 7.00334 13.6594
355 2 2.2208 7.88453 1.43854 13.6163
394 2 2.2208 2.32132 9.55103 -0.30935
370 2 2.2208 13.4676 1.43018 13.7227
403 2 2.2208 2.34495 15.2102 -0.433227
406 2 2.2208 4.93283 1.36926 16.5065
407 1 -1.1104 0.836084 -2.98921 17.9691
408 1 -1.1104 0.753683 2.6665 17.8426
411 1 -1.1104 0.848114 -2.95526 15.0556
413 1 -1.1104 0.831085 2.70746 15.1593
419 1 -1.1104 0.916366 -0.0953482 17.98
421 2 2.2208 5.02882 -1.70664 19.3468
422 2 2.2208 4.93115 4.19524 19.3842
423 1 -1.1104 0.884669 -0.133053 15.0765
427 1 -1.1104 3.64115 -3.01127 17.85
428 1 -1.1104 3.50572 2.69254 17.9784
429 2 2.2208 2.25642 1.33181 19.3766
430 1 -1.1104 3.59293 -3.00884 15.0844
432 1 -1.1104 3.59836 2.81033 14.9107
434 2 2.2208 2.27525 -1.46545 16.4875
435 2 2.2208 2.10068 4.09036 16.532
436 1 -1.1104 3.52852 0.0206567 17.7737
437 1 -1.1104 3.66736 -0.101522 15.0676
410 1 -1.1104 6.29705 2.8468 17.9029
425 1 -1.1104 6.39375 -0.0988189 14.9793
420 1 -1.1104 6.35143 0.0296163 17.9163
431 1 -1.1104 3.51931 -2.84804 20.7108
415 1 -1.1104 6.49043 -2.8344 15.1332
409 1 -1.1104 6.3455 -2.95097 17.9402
640 2 2.2208 2.2206 -4.12417 25.0436
418 1 -1.1104 6.5236 2.55369 20.7744
475 2 2.2208 7.84489 -4.22159 19.3057
666 2 2.2208 13.379 -4.36633 24.8584
417 1 -1.1104 6.43604 2.76549 15.11
517 2 2.2208 13.612 12.5213 19.246
578 2 2.2208 13.3769 1.39899 19.3073
449 2 2.2208 10.6081 1.27246 16.4038
450 1 -1.1104 12.0937 -2.86691 17.9738
451 1 -1.1104 12.0055 2.75601 17.8942
452 1 -1.1104 12.0453 -2.74594 15.1471
454 1 -1.1104 12.085 2.7672 15.0291
456 1 -1.1104 12.0993 -0.0744594 17.8736
457 2 2.2208 10.7493 -1.48659 19.3023
459 1 -1.1104 12.0586 -0.0109925 15.0731
461 1 -1.1104 9.12322 -2.79918 17.8396
462 1 -1.1104 9.14005 2.70861 17.9087
463 2 2.2208 7.87272 1.2549 19.2377
464 1 -1.1104 9.30954 -2.95946 15.111
466 1 -1.1104 9.32922 2.58064 15.026
468 2 2.2208 7.7848 -1.50101 16.461
470 1 -1.1104 9.25154 -0.0475656 17.8387
471 1 -1.1104 9.10663 -0.176799 15.0469
458 2 2.2208 10.5474 4.03646 19.3374
469 2 2.2208 7.73571 4.15193 16.5776
460 1 -1.1104 12.0718 -0.156565 20.6496
467 1 -1.1104 9.2937 2.71945 20.742
472 1 -1.1104 9.29323 -0.198923 20.6485
455 1 -1.1104 11.9912 2.73661 20.7048
477 2 2.2208 13.4811 -1.55879 16.5256
465 1 -1.1104 9.35007 -2.81349 20.6674
474 2 2.2208 10.7822 -4.33605 16.5306
368 2 2.2208 2.30311 18.1134 13.7348
441 2 2.2208 2.18298 -4.32531 19.1885
482 2 2.2208 5.0675 6.95564 16.4379
483 2 2.2208 5.06076 12.538 16.4382
484 1 -1.1104 0.870869 8.44131 17.869
486 1 -1.1104 0.830283 8.26956 15.0362
490 1 -1.1104 0.825393 5.58446 17.868
491 1 -1.1104 0.736974 11.2143 17.9678
494 2 2.2208 5.11553 9.78799 19.3089
495 1 -1.1104 0.79145 5.55256 15.0661
497 1 -1.1104 0.875859 11.1079 15.073
503 1 -1.1104 3.69265 8.23065 17.8391
504 2 2.2208 2.22633 6.95447 19.3017
505 2 2.2208 2.26968 12.5042 19.2411
506 1 -1.1104 3.62492 8.42195 15.1506
508 2 2.2208 2.26327 9.74654 16.4592
509 1 -1.1104 3.65754 5.44521 17.9602
510 1 -1.1104 3.57819 11.1247 17.7734
511 1 -1.1104 3.66383 5.46838 15.0393
513 1 -1.1104 3.68764 11.15 15.091
499 1 -1.1104 6.37677 5.51464 15.3034
500 1 -1.1104 6.39199 5.6717 20.6067
512 1 -1.1104 3.59198 5.63513 20.7688
501 1 -1.1104 6.52412 11.1999 14.9993
493 1 -1.1104 6.30574 11.1271 17.8553
492 1 -1.1104 6.40936 5.57852 17.8644
485 1 -1.1104 6.5895 8.31472 17.8452
639 2 2.2208 4.98428 -4.1619 22.0876
473 2 2.2208 13.5415 -4.38607 19.2276
487 1 -1.1104 0.891963 8.32748 20.713
672 2 2.2208 13.467 1.25484 24.8928
488 1 -1.1104 6.45202 8.33557 15.1004
518 2 2.2208 10.7225 6.90857 16.3523
519 2 2.2208 10.8879 12.4723 16.4792
520 1 -1.1104 12.1036 8.33327 17.8001
521 1 -1.1104 12.299 8.48188 15.0004
523 1 -1.1104 12.2046 5.54137 17.904
524 1 -1.1104 12.2977 11.1608 17.7956
525 2 2.2208 10.6482 9.65326 19.2187
526 1 -1.1104 11.9546 5.77064 15.0429
528 1 -1.1104 12.1985 11.1495 14.978
530 1 -1.1104 9.27663 8.31605 17.8969
531 2 2.2208 7.86525 6.90864 19.3546
532 2 2.2208 7.83293 12.5592 19.3121
533 1 -1.1104 9.313 8.30789 15.0836
535 2 2.2208 7.98572 9.7883 16.5212
536 1 -1.1104 9.26169 5.50951 17.9939
537 1 -1.1104 9.37674 11.1064 17.9048
538 1 -1.1104 9.18013 5.57498 15.0807
540 1 -1.1104 9.32255 11.2552 15.1833
522 1 -1.1104 12.151 8.27448 20.5996
542 2 2.2208 13.5749 6.92872 19.2908
541 1 -1.1104 9.2452 11.1728 20.6153
347 2 2.2208 2.25879 -4.3235 13.7025
440 2 2.2208 5.10608 -4.42376 16.4471
529 1 -1.1104 12.1252 11.0876 20.5936
545 2 2.2208 4.99072 18.1775 16.4878
546 1 -1.1104 1.06316 13.9144 17.8761
547 1 -1.1104 0.863336 19.7261 17.985
550 1 -1.1104 0.798513 13.8127 15.1069
552 1 -1.1104 0.980653 19.4748 14.9937
558 1 -1.1104 0.871848 16.6551 18.0039
560 2 2.2208 5.08151 15.371 19.2604
561 2 2.2208 5.13352 20.989 19.3827
562 1 -1.1104 0.904001 16.6459 15.1601
566 1 -1.1104 3.74559 13.8875 17.8009
567 1 -1.1104 3.60325 19.4762 17.9424
568 2 2.2208 2.26386 18.1888 19.351
569 1 -1.1104 3.79568 13.8529 14.9831
571 1 -1.1104 3.7465 19.5374 15.1191
573 2 2.2208 2.29076 15.2874 16.4778
574 2 2.2208 2.20112 20.9498 16.5928
575 1 -1.1104 3.7788 16.6803 17.7024
576 1 -1.1104 3.61583 16.6793 14.9743
548 1 -1.1104 6.69078 13.7376 17.7943
555 1 -1.1104 6.3628 13.9481 20.6703
565 1 -1.1104 6.44294 16.7735 20.7205
549 1 -1.1104 6.41448 19.4807 17.8386
570 1 -1.1104 3.5604 13.7865 20.6104
557 1 -1.1104 6.55693 19.4946 20.6492
559 1 -1.1104 6.53141 16.6748 17.8531
554 1 -1.1104 6.60172 13.926 15.0268
572 1 -1.1104 3.86414 19.6283 20.7817
354 2 2.2208 13.3482 -4.25501 13.753
556 1 -1.1104 6.48356 19.5632 15.0328
564 1 -1.1104 6.37728 16.6934 15.1731
581 2 2.2208 10.7078 18.0077 16.5453
582 1 -1.1104 12.2845 14.0322 17.9025
583 1 -1.1104 12.0521 19.6068 17.8643
584 1 -1.1104 12.2397 13.8931 14.9459
586 1 -1.1104 12.2399 19.5247 14.9405
588 1 -1.1104 12.2993 16.7826 17.902
589 2 2.2208 10.6954 15.2391 19.4398
590 2 2.2208 10.7682 20.868 19.3082
591 1 -1.1104 12.1467 16.6979 15.1447
593 1 -1.1104 9.47073 13.8418 17.8497
594 1 -1.1104 9.13766 19.5571 18.0408
595 2 2.2208 7.82504 18.1565 19.3414
596 1 -1.1104 9.48509 13.9071 15.0246
598 1 -1.1104 9.48606 19.5297 15.2391
600 2 2.2208 8.03593 15.2757 16.555
601 2 2.2208 7.86097 20.9773 16.4331
602 1 -1.1104 9.41258 16.682 17.9833
603 1 -1.1104 9.23365 16.8466 15.2722
599 1 -1.1104 9.30614 19.4978 20.6202
597 1 -1.1104 9.1611 13.7981 20.7767
479 2 2.2208 13.653 17.97 19.2886
480 2 2.2208 13.5362 15.3865 16.5223
478 2 2.2208 13.6247 20.8514 16.5424
587 1 -1.1104 12.0589 19.2785 20.7192
352 2 2.2208 5.01683 4.09589 13.6837
663 1 -1.1104 12.2604 16.6051 26.3626
412 1 -1.1104 0.83215 -2.77158 20.6803
438 1 -1.1104 3.74492 -0.128261 20.5948
414 1 -1.1104 0.67046 2.69767 20.8005
424 1 -1.1104 0.820891 0.0898402 20.7512
726 2 2.2208 13.4746 12.5143 24.9153
669 2 2.2208 7.9152 -4.27035 24.943
433 1 -1.1104 3.57244 2.80652 20.7781
609 2 2.2208 5.05988 1.25843 21.9805
610 1 -1.1104 0.813143 -2.83164 23.4797
611 1 -1.1104 0.795558 2.66323 23.4457
614 1 -1.1104 0.753075 -2.83322 26.378
615 1 -1.1104 0.868966 2.48001 26.2713
618 1 -1.1104 0.780375 -0.113504 23.6614
620 2 2.2208 4.97228 -1.60542 24.7823
621 2 2.2208 4.93858 4.09289 24.8748
622 1 -1.1104 0.735112 -0.113297 26.359
624 1 -1.1104 3.54657 -2.9096 23.4919
625 1 -1.1104 3.57614 2.60119 23.391
626 2 2.2208 2.19723 1.23691 24.9341
627 1 -1.1104 3.59812 -2.78451 26.3435
628 1 -1.1104 3.5386 2.82228 26.1402
629 2 2.2208 2.18692 -1.47242 22.0175
631 1 -1.1104 3.67447 -0.160885 23.5206
632 1 -1.1104 3.50935 -0.0491437 26.3774
630 2 2.2208 2.08818 4.1231 22.0261
619 1 -1.1104 6.46868 -0.096855 23.4093
416 1 -1.1104 6.48144 -2.84479 20.7592
612 1 -1.1104 6.44742 -2.9077 23.5449
613 1 -1.1104 6.25333 2.71677 23.4687
623 1 -1.1104 6.48557 -0.00151334 26.2165
617 1 -1.1104 6.42778 2.72341 26.1753
616 1 -1.1104 6.41718 -2.87308 26.1899
579 2 2.2208 13.4226 4.21676 16.5171
543 2 2.2208 13.629 9.72112 16.4725
453 1 -1.1104 12.2709 -2.93946 20.6389
728 2 2.2208 13.4398 6.88187 24.8693
426 1 -1.1104 6.36517 -0.0514989 20.5482
645 2 2.2208 10.7126 1.33448 22.1046
646 1 -1.1104 11.8264 -2.89979 23.4374
647 1 -1.1104 12.1666 2.65457 23.4433
648 1 -1.1104 12.0378 -2.87061 26.2036
649 1 -1.1104 11.9446 2.61769 26.3118
650 1 -1.1104 12.19 -0.167707 23.442
651 2 2.2208 10.6545 -1.42116 24.8911
652 2 2.2208 10.7408 4.14751 24.9588
653 1 -1.1104 11.9956 -0.134577 26.3172
654 1 -1.1104 9.0302 -2.85766 23.5016
655 1 -1.1104 9.24072 2.55846 23.5049
656 2 2.2208 7.81612 1.26744 24.7899
657 1 -1.1104 9.3492 -2.76869 26.3033
658 1 -1.1104 9.16598 2.62262 26.2591
659 2 2.2208 7.69801 -1.48498 22.0984
660 2 2.2208 7.93955 3.97714 22.1727
661 1 -1.1104 9.36849 -0.130443 23.4774
662 1 -1.1104 9.27659 -0.0275431 26.192
446 2 2.2208 13.4154 4.09697 22.1343
671 2 2.2208 13.5076 -1.57703 22.0271
634 1 -1.1104 12.2698 13.8517 26.2619
361 2 2.2208 2.34136 12.4553 13.6203
514 1 -1.1104 3.65082 11.1133 20.7732
507 1 -1.1104 3.70672 8.40685 20.63
489 1 -1.1104 6.56592 8.37757 20.6005
502 1 -1.1104 6.52683 11.1162 20.7355
496 1 -1.1104 0.814292 5.62331 20.5778
498 1 -1.1104 1.02337 11.1328 20.7524
674 2 2.2208 5.10852 6.93449 22.0905
675 2 2.2208 5.09776 12.5573 22.1364
676 1 -1.1104 0.958201 8.23847 23.5931
678 1 -1.1104 0.829224 8.21153 26.282
680 1 -1.1104 0.732795 5.54657 23.334
681 1 -1.1104 0.817704 11.0798 23.638
684 2 2.2208 5.26545 9.67754 24.8264
685 1 -1.1104 0.805778 5.34537 26.2828
686 1 -1.1104 0.959224 11.037 26.4635
689 1 -1.1104 3.81332 8.39283 23.5047
690 2 2.2208 2.35092 6.94181 24.8126
691 2 2.2208 2.29872 12.3616 24.9361
692 1 -1.1104 3.71632 8.32834 26.3501
693 2 2.2208 2.20485 9.60767 22.0809
694 1 -1.1104 3.43825 5.56495 23.4738
695 1 -1.1104 3.64293 11.1438 23.5444
696 1 -1.1104 3.66038 5.58855 26.3383
697 1 -1.1104 3.73474 11.0246 26.3676
682 1 -1.1104 6.38173 5.61028 23.5617
677 1 -1.1104 6.53143 8.40496 23.4365
687 1 -1.1104 6.44862 5.39788 26.214
683 1 -1.1104 6.37028 11.1813 23.6358
670 1 -1.1104 6.51626 19.4799 26.2818
747 1 -1.1104 6.37485 16.6789 23.4594
534 1 -1.1104 9.22869 8.28587 20.7213
527 1 -1.1104 11.9103 5.49145 20.6431
539 1 -1.1104 8.97311 5.4364 20.754
679 1 -1.1104 6.47849 8.13718 26.2162
688 1 -1.1104 6.44702 11.0289 26.362
445 2 2.2208 13.4732 9.70096 22.0872
705 1 -1.1104 9.3066 11.0762 26.396
706 1 -1.1104 9.36588 5.44553 26.2879
707 1 -1.1104 9.27217 10.921 23.5592
708 1 -1.1104 9.22706 5.4334 23.5368
709 2 2.2208 7.89344 9.63959 22.041
710 1 -1.1104 9.34934 8.20544 26.1354
711 2 2.2208 8.03309 12.4292 24.9274
712 2 2.2208 7.81481 6.92257 24.9452
713 2 2.2208 10.6496 6.88844 22.0936
714 2 2.2208 10.6302 12.4323 22.0694
715 1 -1.1104 11.9764 8.29726 23.3496
716 1 -1.1104 12.0401 8.18409 26.2572
717 1 -1.1104 12.06 5.43216 23.5411
718 1 -1.1104 12.134 11.1 23.5056
719 2 2.2208 10.7109 9.52217 24.8524
720 1 -1.1104 12.1281 5.53353 26.2907
721 1 -1.1104 12.0633 10.8779 26.1735
722 1 -1.1104 9.25252 8.10675 23.4571
673 1 -1.1104 9.41834 14.0268 26.3572
553 1 -1.1104 0.93102 19.5944 20.7726
577 1 -1.1104 3.67041 16.5645 20.6491
633 1 -1.1104 12.0347 19.4074 23.5944
563 1 -1.1104 0.833155 16.7354 20.555
551 1 -1.1104 0.858794 13.8892 20.6286
732 1 -1.1104 6.61731 16.6099 26.2448
746 1 -1.1104 3.79733 13.9228 26.1992
745 1 -1.1104 3.81559 16.5946 26.2268
744 2 2.2208 2.28034 18.1435 24.8886
743 1 -1.1104 3.67406 19.397 26.2731
742 2 2.2208 5.10757 18.1421 22.061
741 1 -1.1104 0.713268 13.8154 23.4239
750 2 2.2208 2.34013 20.9882 22.0776
749 1 -1.1104 3.60359 16.8653 23.4891
748 1 -1.1104 0.912523 16.5726 23.4142
727 2 2.2208 2.22715 15.2043 22.0627
729 1 -1.1104 3.69975 19.6723 23.3882
731 1 -1.1104 3.66118 13.9254 23.4381
733 1 -1.1104 0.933692 19.5528 26.2966
734 1 -1.1104 0.982529 16.7117 26.1908
735 1 -1.1104 0.980682 13.7864 26.3411
737 2 2.2208 5.08573 20.8786 25.025
738 2 2.2208 5.17195 15.2454 24.8597
740 1 -1.1104 0.847231 19.3537 23.5394
736 1 -1.1104 6.52494 19.3464 23.5593
739 1 -1.1104 6.56259 14.0031 23.4651
730 1 -1.1104 6.63291 13.6866 26.2704
376 2 2.2208 7.84366 18.161 13.7775
605 2 2.2208 13.5729 18.1146 24.9244
364 2 2.2208 10.8142 9.80028 13.7547
698 1 -1.1104 9.31795 19.4886 26.4077
580 2 2.2208 13.4983 15.2718 22.1968
664 1 -1.1104 9.44879 13.9105 23.5491
592 1 -1.1104 12.1173 16.5746 20.7018
604 1 -1.1104 9.20295 16.6261 20.7161
585 1 -1.1104 12.1427 13.8603 20.8148
641 2 2.2208 10.6108 20.8335 24.8627
608 1 -1.1104 12.143 13.9717 23.6029
636 1 -1.1104 11.9573 16.6813 23.5454
699 2 2.2208 7.79453 15.3353 22.0887
607 2 2.2208 10.6082 18.1041 22.1275
638 2 2.2208 10.8118 15.3178 24.9455
667 2 2.2208 7.91322 18.0901 24.9361
700 2 2.2208 7.79954 20.905 22.0741
635 1 -1.1104 12.0077 19.3882 26.3174
665 1 -1.1104 9.29668 19.508 23.5457
701 1 -1.1104 9.05164 16.7097 23.5946
704 1 -1.1104 9.47763 16.7027 26.3396
379 2 2.2208 7.96878 20.9757 27.8675
400 2 2.2208 10.8164 12.5036 27.6108
404 2 2.2208 5.15999 18.1319 27.6234
371 2 2.2208 5.18539 15.3832 13.6824
382 2 2.2208 2.18547 -1.55777 27.6922
374 2 2.2208 13.7182 15.368 27.7737
385 2 2.2208 5.10506 -4.27662 27.6547
399 2 2.2208 7.90689 9.79787 27.6879
393 2 2.2208 5.02869 6.89913 27.7576
398 2 2.2208 10.6729 6.80784 27.7874
349 2 2.2208 2.23095 1.32711 13.6653
366 2 2.2208 13.5643 6.91781 13.6074
360 2 2.2208 5.14215 9.76624 13.6251
378 2 2.2208 10.7357 18.0473 27.6822
387 2 2.2208 10.6471 1.18937 27.6115
380 2 2.2208 13.6349 18.1192 13.6578
373 2 2.2208 10.819 15.3415 13.7616
405 2 2.2208 2.37587 21.0684 27.7431
751 2 2.2208 5.18254 23.7558 5.34831
752 2 2.2208 5.21351 29.3886 5.33615
753 1 -1.1104 0.970179 25.1239 1.10366
754 1 -1.1104 0.857237 25.1574 3.89533
755 1 -1.1104 0.826445 22.3129 1.03567
756 1 -1.1104 0.909475 28.049 1.17942
757 2 2.2208 5.24823 26.5197 2.4093
758 1 -1.1104 0.936841 22.3079 3.86537
759 1 -1.1104 0.960929 27.8111 3.82973
760 1 -1.1104 3.7558 25.1272 1.22972
761 2 2.2208 2.28366 23.827 2.52954
762 2 2.2208 2.2954 29.3564 2.47334
763 1 -1.1104 3.90058 25.1338 3.9763
764 2 2.2208 2.39569 26.4599 5.32186
765 1 -1.1104 3.69445 22.3165 1.19543
766 1 -1.1104 3.78396 27.8821 1.03345
767 1 -1.1104 3.78611 22.33 4.03766
768 1 -1.1104 3.66817 27.9137 3.78373
892 1 -1.1104 0.897412 25.06 6.63185
894 1 -1.1104 0.974656 22.2737 6.60996
772 1 -1.1104 6.49732 25.1923 1.03909
773 1 -1.1104 6.66981 25.1601 3.8732
775 1 -1.1104 6.57717 27.8886 1.01385
776 1 -1.1104 6.61456 22.4153 3.9191
893 1 -1.1104 6.67597 25.0712 6.73376
899 1 -1.1104 3.67048 22.3144 6.74667
897 1 -1.1104 6.62722 28.082 6.58232
895 1 -1.1104 1.06329 27.8665 6.70979
777 1 -1.1104 6.66403 27.8124 3.84008
774 1 -1.1104 6.46582 22.34 1.13898
898 1 -1.1104 3.82074 25.1564 6.69226
1070 2 2.2208 13.6657 26.4532 11.0017
890 2 2.2208 13.685 46.0242 2.42121
778 2 2.2208 10.9123 23.7343 5.28976
779 2 2.2208 10.8798 29.2733 5.28897
780 1 -1.1104 12.2544 25.1883 1.07149
781 1 -1.1104 12.1627 25.0275 3.9255
782 1 -1.1104 12.2037 22.2012 1.14116
783 1 -1.1104 12.0759 27.7982 1.08941
784 2 2.2208 10.8496 26.5636 2.53737
785 1 -1.1104 12.1701 22.2057 3.90492
786 1 -1.1104 12.1671 27.7508 4.08787
787 1 -1.1104 9.34283 25.0834 1.11026
788 2 2.2208 7.8389 23.658 2.5224
789 2 2.2208 8.03363 29.3516 2.46408
790 1 -1.1104 9.42836 24.9958 3.86523
791 2 2.2208 8.02159 26.5138 5.28957
792 1 -1.1104 9.53272 22.3467 1.09534
793 1 -1.1104 9.39671 27.9321 0.895596
794 1 -1.1104 9.36818 22.1895 3.89062
795 1 -1.1104 9.41198 28.0293 3.73362
926 1 -1.1104 12.3132 22.3324 6.74189
930 1 -1.1104 9.35867 27.8916 6.51837
798 2 2.2208 13.6766 26.3846 5.38803
796 2 2.2208 13.6748 23.6699 2.38081
927 1 -1.1104 12.203 27.8637 6.87323
1700 1 -1.1104 9.19513 47.3351 6.52699
799 2 2.2208 5.26691 34.8979 5.23033
800 1 -1.1104 0.961422 30.8248 1.05558
801 1 -1.1104 0.990228 36.3298 0.983468
803 1 -1.1104 0.876385 30.6092 3.87269
804 1 -1.1104 1.00282 36.3851 3.8775
806 1 -1.1104 1.01305 33.5229 1.03424
807 2 2.2208 5.09371 31.9967 2.54353
808 2 2.2208 5.22033 37.7059 2.51405
809 1 -1.1104 1.09555 33.4268 4.02078
811 1 -1.1104 3.59972 30.6541 1.05906
812 1 -1.1104 3.85699 36.184 1.07672
813 2 2.2208 2.5822 35.0348 2.44047
814 1 -1.1104 3.71762 30.7484 3.94535
815 1 -1.1104 3.75427 36.3984 3.7853
816 2 2.2208 2.34245 32.0944 5.23794
817 2 2.2208 2.33568 37.712 5.4866
818 1 -1.1104 3.79902 33.4364 0.998333
819 1 -1.1104 3.86122 33.4991 3.84734
949 1 -1.1104 0.838768 30.687 6.51649
823 1 -1.1104 6.56862 30.6138 1.06976
810 1 -1.1104 6.58052 33.3695 3.90872
805 1 -1.1104 6.57583 36.256 3.86662
824 1 -1.1104 6.50259 30.6681 3.91798
802 1 -1.1104 6.59937 36.4356 0.916752
825 1 -1.1104 6.59581 33.473 0.967783
1102 2 2.2208 2.54981 40.5628 13.6147
953 1 -1.1104 0.88416 33.6196 6.63828
954 1 -1.1104 6.56477 33.6215 6.90515
950 1 -1.1104 1.01182 36.3596 6.67812
952 1 -1.1104 6.67817 36.2203 6.67309
1495 1 -1.1104 3.85239 47.5317 3.72587
951 1 -1.1104 6.47529 30.8157 6.75223
1083 2 2.2208 2.54032 29.2835 13.7148
826 2 2.2208 10.8302 34.9473 5.25173
827 1 -1.1104 12.191 30.802 0.989867
828 1 -1.1104 12.1339 36.436 1.00018
829 1 -1.1104 12.1653 30.5838 3.83882
830 1 -1.1104 12.2119 36.3044 3.95661
831 1 -1.1104 12.1803 33.5519 1.08929
832 2 2.2208 10.7482 32.1529 2.45755
833 2 2.2208 10.7602 37.852 2.5048