ITEM: TIMESTEP
20000
ITEM: NUMBER OF ATOMS
17730
ITEM: BOX BOUNDS pp pp pp
-3.5628954518168965e-01 2.7696289545181894e+01
-4.2161318366275982e+00 3.3229613183662872e+02
-3.5897399772847227e-01 2.7698973997728274e+01
ITEM: ATOMS id type q x y z
1 2 2.2208 5.20223 1.31709 5.23922
2 1 -1.1104 1.04169 -3.14034 0.981926
3 1 -1.1104 0.955868 2.5552 0.912794
6 1 -1.1104 0.97208 -2.92761 3.73088
7 1 -1.1104 0.936401 2.6816 3.72982
10 1 -1.1104 1.02311 -0.247929 1.06654
12 2 2.2208 5.23151 -1.52233 2.37183
13 2 2.2208 5.16745 3.98907 2.35299
14 1 -1.1104 1.05842 -0.0831072 3.89287
16 1 -1.1104 3.97036 -2.98494 0.969389
17 1 -1.1104 3.76042 2.63479 0.977567
18 2 2.2208 2.29079 1.29287 2.31303
19 1 -1.1104 3.71257 -2.97285 3.86105
20 1 -1.1104 3.75948 2.61037 3.91996
21 2 2.2208 2.41116 -1.49369 5.19808
22 2 2.2208 2.44665 3.9262 5.25992
23 1 -1.1104 3.60233 -0.140939 1.04311
24 1 -1.1104 3.77474 -0.128011 3.74235
345 2 2.2208 13.555 20.9406 10.7835
53 2 2.2208 13.5888 -4.36251 2.40697
174 1 -1.1104 3.78763 -0.139939 6.67419
167 1 -1.1104 1.11592 2.57688 6.57992
166 1 -1.1104 1.05647 -2.90524 6.58754
170 1 -1.1104 0.948537 -0.183818 6.64012
11 1 -1.1104 6.66097 0.0368429 1.05281
52 2 2.2208 10.8812 -4.26338 5.12326
172 1 -1.1104 3.83691 -2.86287 6.66048
203 2 2.2208 5.20338 -4.23824 10.8075
372 2 2.2208 10.8498 20.9379 13.6607
104 2 2.2208 13.6767 12.5058 2.51653
4 1 -1.1104 6.66171 -2.7993 1.02597
5 1 -1.1104 6.56546 2.71861 1.07496
8 1 -1.1104 6.5064 -2.88916 3.77516
15 1 -1.1104 6.62204 -0.203714 3.70603
9 1 -1.1104 6.49638 2.76924 3.77895
31 2 2.2208 10.7429 1.20047 5.13
32 1 -1.1104 12.2028 -2.94239 1.10975
33 1 -1.1104 12.2668 2.57432 0.990473
34 1 -1.1104 12.2277 -2.87876 3.72756
35 1 -1.1104 12.173 2.72224 3.82743
36 1 -1.1104 12.1829 -0.142674 1.13414
37 2 2.2208 10.6905 -1.49345 2.39233
38 2 2.2208 10.6586 4.14844 2.49762
39 1 -1.1104 12.2832 -0.197377 3.88549
40 1 -1.1104 9.45501 -2.94189 1.19942
41 1 -1.1104 9.3372 2.7445 1.11116
42 2 2.2208 7.98654 1.23688 2.46776
43 1 -1.1104 9.37772 -2.81541 3.91412
44 1 -1.1104 9.40629 2.65027 3.91003
45 2 2.2208 8.00006 -1.53579 5.28233
46 2 2.2208 7.89512 4.06866 5.24083
47 1 -1.1104 9.37094 -0.107998 1.00638
48 1 -1.1104 9.35774 -0.135752 3.72911
208 1 -1.1104 9.47905 -2.85997 6.54045
209 1 -1.1104 9.21594 2.68132 6.74386
171 1 -1.1104 6.50203 -0.17629 6.5667
105 2 2.2208 13.6041 6.82973 2.42157
169 1 -1.1104 6.69471 2.67519 6.68767
210 1 -1.1104 9.44104 -0.0808127 6.62283
168 1 -1.1104 6.6736 -2.80667 6.65801
205 1 -1.1104 12.0598 -3.05888 6.59646
207 1 -1.1104 12.2525 -0.218554 6.81783
206 1 -1.1104 12.1764 2.72711 6.45283
54 2 2.2208 5.12552 6.85732 5.21219
55 2 2.2208 5.16084 12.5795 5.1058
56 1 -1.1104 0.929241 8.24173 0.96822
58 1 -1.1104 0.981938 8.40153 3.69351
60 1 -1.1104 1.01534 5.43655 1.2603
61 1 -1.1104 0.997273 10.9998 1.07959
66 2 2.2208 5.03058 9.57335 2.50937
67 1 -1.1104 0.830993 5.45673 3.94238
68 1 -1.1104 0.993562 11.0264 3.97265
71 1 -1.1104 3.7261 8.1735 1.06552
72 2 2.2208 2.27258 6.85309 2.56578
73 2 2.2208 2.35382 12.5144 2.45644
74 1 -1.1104 3.70431 8.24219 3.84383
75 2 2.2208 2.31225 9.69728 5.28093
76 1 -1.1104 3.76848 5.29996 1.26419
77 1 -1.1104 3.65795 11.0894 1.08589
79 1 -1.1104 3.73918 5.42239 3.90048
80 1 -1.1104 3.68624 11.0335 3.90914
239 1 -1.1104 3.8437 5.26408 6.73103
234 1 -1.1104 0.973255 8.23344 6.56822
238 1 -1.1104 3.90699 8.1326 6.5623
62 1 -1.1104 1.04201 11.1004 6.75358
69 1 -1.1104 6.50164 5.53295 3.67562
63 1 -1.1104 6.518 5.52096 0.880389
59 1 -1.1104 6.48797 8.28104 3.82054
389 2 2.2208 8.01977 4.12193 -0.378489
306 1 -1.1104 6.51883 16.5879 12.1644
236 1 -1.1104 0.938671 5.46549 6.65809
78 1 -1.1104 3.79726 11.0238 6.72329
237 1 -1.1104 6.34726 5.32881 6.54582
316 2 2.2208 8.10799 20.9146 10.8599
387 2 2.2208 10.8547 1.32572 -0.250095
70 1 -1.1104 6.40629 11.1409 3.8103
64 1 -1.1104 6.54202 11.0551 1.03328
57 1 -1.1104 6.49698 8.31021 1.01729
84 2 2.2208 10.8936 6.94983 5.37246
85 2 2.2208 10.7754 12.3944 5.25535
86 1 -1.1104 12.2688 8.16249 1.11879
87 1 -1.1104 12.1295 8.33006 3.77341
88 1 -1.1104 12.1343 5.42187 1.04013
89 1 -1.1104 12.1413 11.0308 1.13573
91 2 2.2208 10.7399 9.65738 2.40934
92 1 -1.1104 12.2629 5.47419 3.79549
93 1 -1.1104 12.2189 11.1829 3.84062
94 1 -1.1104 9.29761 8.37708 0.68659
95 2 2.2208 7.87552 6.92385 2.40002
96 2 2.2208 7.94426 12.4852 2.39553
97 1 -1.1104 9.41788 8.34121 3.74328
98 2 2.2208 7.97025 9.64249 5.25981
99 1 -1.1104 9.33477 5.66185 1.07229
100 1 -1.1104 9.35779 11.1341 1.14442
102 1 -1.1104 9.21617 5.36211 3.79752
103 1 -1.1104 9.1351 11.2449 3.9697
269 1 -1.1104 9.29554 5.60627 6.73876
265 1 -1.1104 12.1841 8.26317 6.76228
101 1 -1.1104 9.46655 11.0631 6.70916
267 1 -1.1104 9.41724 8.308 6.69616
266 1 -1.1104 12.0559 5.4529 6.60363
90 1 -1.1104 12.275 11.1213 6.66857
235 1 -1.1104 6.74307 8.33892 6.64993
106 2 2.2208 5.21804 18.1459 5.25097
107 1 -1.1104 0.961849 13.7884 1.09959
109 1 -1.1104 0.821598 19.5231 1.05756
113 1 -1.1104 0.96503 13.8142 3.85948
114 1 -1.1104 0.966681 19.3621 3.88385
116 1 -1.1104 1.10782 16.6689 1.01673
119 2 2.2208 5.1717 15.3588 2.40863
120 2 2.2208 5.15645 20.8335 2.51752
121 1 -1.1104 1.05722 16.6628 3.7629
123 1 -1.1104 3.75739 13.9485 1.07632
125 1 -1.1104 3.77614 19.4913 0.975674
127 2 2.2208 2.43128 18.1857 2.41547
128 1 -1.1104 3.81645 13.9943 3.8134
129 1 -1.1104 3.70442 19.4894 3.88561
130 2 2.2208 2.33483 15.3409 5.24499
131 2 2.2208 2.38071 20.8711 5.2301
132 1 -1.1104 3.79743 16.7395 1.09733
134 1 -1.1104 3.91548 16.7902 3.92249
110 1 -1.1104 6.56065 13.9067 0.992312
139 1 -1.1104 6.59104 19.4867 3.77965
122 1 -1.1104 6.61872 16.611 3.78424
140 1 -1.1104 6.57372 16.7935 1.0555
115 1 -1.1104 6.76603 13.9364 3.89012
112 1 -1.1104 6.7445 19.6716 6.63506
111 1 -1.1104 6.5272 13.9267 6.54788
126 1 -1.1104 3.95264 19.5208 6.50187
124 1 -1.1104 3.79887 13.8912 6.74402
302 1 -1.1104 1.16248 19.4884 6.48639
108 1 -1.1104 1.14096 13.8758 6.67121
117 1 -1.1104 0.846943 16.6614 6.41321
118 1 -1.1104 6.72495 16.762 6.72803
138 1 -1.1104 6.60435 19.4845 0.991755
141 2 2.2208 10.8809 18.0642 5.30953
142 1 -1.1104 12.448 13.9053 1.17091
144 1 -1.1104 12.2623 19.4899 0.898712
146 1 -1.1104 12.1818 13.8435 3.91721
147 1 -1.1104 12.3865 19.6385 3.69207
148 1 -1.1104 12.2051 16.788 0.985942
150 2 2.2208 10.7952 15.3447 2.45889
151 2 2.2208 10.8913 20.8991 2.40629
152 1 -1.1104 12.1206 16.7864 3.72383
153 1 -1.1104 9.43797 13.9472 0.948086
155 1 -1.1104 9.48752 19.4461 0.986719
157 2 2.2208 8.02939 18.1143 2.4429
158 1 -1.1104 9.5833 13.9766 3.85197
159 1 -1.1104 9.34799 19.5774 3.81467
160 2 2.2208 8.01461 15.3511 5.20362
161 2 2.2208 8.02137 21.0052 5.23603
162 1 -1.1104 9.39952 16.7481 1.01911
164 1 -1.1104 9.45386 16.8605 3.80922
338 2 2.2208 13.5994 3.99604 10.8251
145 1 -1.1104 12.2414 19.4791 6.517
154 1 -1.1104 9.34536 13.8193 6.66004
156 1 -1.1104 9.56061 19.4479 6.68957
143 1 -1.1104 12.1557 13.7227 6.56261
324 2 2.2208 10.7801 21.0286 7.93939
373 2 2.2208 10.9915 15.2181 13.573
337 2 2.2208 13.6454 15.2378 5.19244
173 1 -1.1104 3.94705 2.56955 6.79593
376 2 2.2208 7.93842 18.048 13.6964
369 2 2.2208 5.159 20.977 13.6193
340 2 2.2208 13.5852 12.4396 7.97952
175 2 2.2208 5.16788 1.29813 10.8956
176 1 -1.1104 0.998861 -2.99095 12.397
177 1 -1.1104 0.813191 2.58805 12.2939
180 1 -1.1104 1.03239 -2.83384 9.41422
181 1 -1.1104 0.984919 2.77577 9.45629
184 1 -1.1104 0.9353 -0.215284 12.2434
186 2 2.2208 5.15492 -1.54285 8.08455
187 2 2.2208 5.31319 4.05864 8.12479
188 1 -1.1104 0.769042 -0.100849 9.49537
190 1 -1.1104 3.84635 -2.83265 12.1244
191 1 -1.1104 3.64195 2.68348 12.3952
192 2 2.2208 2.35339 1.34736 8.09318
193 1 -1.1104 3.81411 -2.86617 9.51963
194 1 -1.1104 3.77792 2.70874 9.71238
195 2 2.2208 2.36981 -1.60524 10.8455
196 2 2.2208 2.37494 4.12508 10.9261
197 1 -1.1104 3.69792 -0.0600991 12.2092
198 1 -1.1104 3.79198 -0.207174 9.47278
200 2 2.2208 -0.319277 -1.56172 7.99076
178 1 -1.1104 6.64209 -2.85315 12.3528
357 2 2.2208 10.8594 4.17377 13.5887
149 1 -1.1104 12.4215 16.6173 6.62685
342 2 2.2208 -0.440423 12.457 10.8389
328 1 -1.1104 12.1245 13.8979 9.35744
322 1 -1.1104 9.41665 13.9427 12.1835
326 1 -1.1104 12.3053 16.7126 12.2292
358 2 2.2208 -0.338051 9.658 13.67
183 1 -1.1104 6.61216 2.55314 9.55342
185 1 -1.1104 6.56663 -0.00403886 12.4044
189 1 -1.1104 6.54942 -0.117949 9.38933
182 1 -1.1104 6.60249 -2.78073 9.52386
179 1 -1.1104 6.39941 2.81944 12.2002
211 2 2.2208 10.775 1.38715 10.9436
212 1 -1.1104 12.0936 -2.90983 12.2162
213 1 -1.1104 12.1762 2.58159 12.4071
214 1 -1.1104 12.3479 -2.92171 9.45502
215 1 -1.1104 12.1 2.70456 9.25297
216 1 -1.1104 12.2729 -0.0525202 12.296
217 2 2.2208 10.8493 -1.50904 8.16421
218 2 2.2208 10.7107 4.04739 7.90157
219 1 -1.1104 12.0922 -0.0595605 9.59289
220 1 -1.1104 9.37234 -2.87505 12.1448
221 1 -1.1104 9.33162 2.87724 12.3412
222 2 2.2208 8.07332 1.31571 8.11346
223 1 -1.1104 9.41136 -2.8338 9.331
224 1 -1.1104 9.30149 2.71525 9.41414
225 2 2.2208 8.01597 -1.41212 10.9068
226 2 2.2208 7.89466 4.1739 10.8428
227 1 -1.1104 9.28045 0.0685164 12.2814
228 1 -1.1104 9.41046 -0.0843293 9.53026
325 2 2.2208 10.8503 15.3575 8.00032
229 2 2.2208 13.6437 1.223 7.96624
332 2 2.2208 13.5367 18.2374 8.06762
240 2 2.2208 5.27579 6.79276 10.9339
241 2 2.2208 5.24183 12.6331 10.9387
242 1 -1.1104 1.19117 8.31118 12.1872
244 1 -1.1104 1.06888 8.42014 9.37803
246 1 -1.1104 0.954345 5.44916 12.309
247 1 -1.1104 1.05869 11.029 12.0537
250 2 2.2208 5.12151 9.62431 8.102
251 1 -1.1104 1.03765 5.56656 9.54069
252 1 -1.1104 0.883677 11.1917 9.46938
255 1 -1.1104 3.90784 8.30942 12.313
256 2 2.2208 2.37094 6.71895 7.99815
257 2 2.2208 2.40335 12.4809 8.19556
258 1 -1.1104 3.8109 8.07514 9.50303
259 2 2.2208 2.45068 9.59404 10.7889
260 1 -1.1104 3.81173 5.52065 12.1619
261 1 -1.1104 3.93946 11.1414 12.3344
262 1 -1.1104 3.80371 5.32943 9.43817
263 1 -1.1104 3.82873 11.1248 9.57106
65 1 -1.1104 6.65279 11.0709 6.61805
249 1 -1.1104 6.76665 11.1955 12.1376
366 2 2.2208 13.6945 6.88141 13.7403
320 2 2.2208 8.04703 18.168 8.06237
253 1 -1.1104 6.51692 5.52159 9.36307
243 1 -1.1104 6.69282 8.30145 12.3175
254 1 -1.1104 6.48762 11.2202 9.44234
245 1 -1.1104 6.58416 8.43107 9.46119
248 1 -1.1104 6.68988 5.43686 12.3532
264 1 -1.1104 9.3525 11.0839 9.31246
268 1 -1.1104 9.25742 5.48473 9.46958
270 1 -1.1104 9.43457 11.0014 12.3478
271 1 -1.1104 9.38947 5.62566 12.1912
272 2 2.2208 7.9361 9.83354 10.7326
273 1 -1.1104 9.28366 8.42012 9.35
274 2 2.2208 7.97864 12.6004 8.00595
275 2 2.2208 8.0712 6.87975 8.1317
276 2 2.2208 10.7631 6.86848 10.8107
277 2 2.2208 10.8453 12.4619 10.8586
278 1 -1.1104 12.3507 8.26162 12.3498
279 1 -1.1104 12.2323 8.15469 9.55913
280 1 -1.1104 12.2249 5.4334 12.1445
281 1 -1.1104 12.2111 11.1368 12.2833
282 2 2.2208 10.7792 9.67196 8.05669
283 1 -1.1104 12.015 5.42747 9.2471
284 1 -1.1104 12.1023 10.9834 9.58567
285 1 -1.1104 9.48857 8.40263 12.0661
341 2 2.2208 13.5048 9.65196 10.8771
323 1 -1.1104 12.2794 16.6508 9.5207
334 2 2.2208 13.4679 4.08068 5.21267
297 1 -1.1104 6.66253 13.9214 12.3906
133 1 -1.1104 3.73118 16.5331 6.68221
292 1 -1.1104 0.938992 16.7268 9.17906
310 2 2.2208 2.29668 15.2852 10.8377
309 2 2.2208 2.41422 20.9506 10.8173
308 1 -1.1104 3.75801 16.7028 12.4612
307 1 -1.1104 0.849038 16.772 12.0915
291 1 -1.1104 0.984333 19.5056 9.30524
287 1 -1.1104 3.80004 13.9184 12.345
305 1 -1.1104 3.80109 14.0915 9.53088
304 1 -1.1104 3.78758 16.8149 9.59038
303 2 2.2208 2.4592 18.0682 7.97081
301 1 -1.1104 3.80863 19.4012 9.25106
300 2 2.2208 5.24574 18.1158 10.8825
299 1 -1.1104 1.12485 13.9522 12.2878
298 1 -1.1104 0.967272 19.5059 12.2021
286 1 -1.1104 3.96752 19.5413 12.0934
295 2 2.2208 5.17041 15.2735 7.95002
294 1 -1.1104 0.786441 14.0001 9.4456
293 2 2.2208 5.23936 20.9082 7.88023
290 1 -1.1104 6.60114 13.9706 9.40671
296 1 -1.1104 6.57994 19.445 12.2691
288 1 -1.1104 6.54804 19.5869 9.40881
289 1 -1.1104 6.56912 16.8183 9.43432
327 1 -1.1104 12.097 19.5655 9.43251
163 1 -1.1104 9.45783 16.5748 6.48716
317 2 2.2208 8.05782 15.3031 10.7334
318 1 -1.1104 9.37762 19.6432 9.41598
315 1 -1.1104 9.26201 16.7377 12.1108
321 1 -1.1104 9.33916 19.5344 12.2985
331 2 2.2208 10.7998 18.1568 10.7686
329 1 -1.1104 12.201 19.5742 12.0903
330 1 -1.1104 12.2263 13.8624 11.9902
319 1 -1.1104 9.36538 13.9858 9.34176
314 1 -1.1104 9.4271 16.8834 9.40059
165 2 2.2208 13.6241 18.0258 2.32253
392 2 2.2208 13.5535 4.06562 -0.313021
136 2 2.2208 -0.457656 20.882 2.53019
230 2 2.2208 13.6055 -1.46713 10.8975
365 2 2.2208 8.19213 12.518 13.6716
364 2 2.2208 10.948 9.69661 13.592
405 2 2.2208 2.48675 20.9564 -0.406257
351 2 2.2208 -0.393694 15.3207 13.7043
363 2 2.2208 8.09594 6.97585 13.6607
368 2 2.2208 2.40034 18.0486 13.5469
361 2 2.2208 2.43419 12.4949 13.5627
383 2 2.2208 2.42298 4.14061 -0.388875
349 2 2.2208 2.25913 1.34524 13.6097
393 2 2.2208 5.22703 6.96852 -0.263845
401 2 2.2208 -0.381093 18.224 -0.312711
399 2 2.2208 7.81348 9.77737 -0.376807
406 2 2.2208 5.36872 1.34102 16.4823
407 1 -1.1104 1.15662 -2.82619 17.9127
408 1 -1.1104 1.11882 2.76819 17.9816
411 1 -1.1104 1.0123 -2.91615 15.1939
413 1 -1.1104 0.863053 2.85116 15.1169
419 1 -1.1104 1.01449 0.0955376 17.8962
421 2 2.2208 5.27171 -1.41644 19.2879
422 2 2.2208 5.33741 4.13004 19.3037
423 1 -1.1104 1.02782 -0.0785115 15.0581
427 1 -1.1104 3.96055 -2.96404 17.9215
428 1 -1.1104 3.93189 2.64317 17.7661
429 2 2.2208 2.51203 1.26812 19.2214
430 1 -1.1104 3.74398 -2.89782 14.8156
432 1 -1.1104 3.68967 2.82718 15.1368
434 2 2.2208 2.51899 -1.54623 16.509
435 2 2.2208 2.39744 4.19414 16.4488
436 1 -1.1104 3.95674 -0.22101 17.8933
437 1 -1.1104 3.74287 -0.0118935 15.049
517 2 2.2208 13.6861 12.4821 19.2512
516 2 2.2208 -0.431227 12.4935 16.3623
412 1 -1.1104 1.03155 -3.00285 20.5654
414 1 -1.1104 1.12131 2.57717 20.7749
726 2 2.2208 13.7163 12.5051 24.9151
360 2 2.2208 5.39225 9.76943 13.5188
378 2 2.2208 10.8291 18.0303 27.6635
431 1 -1.1104 3.87207 -3.00332 20.7117
433 1 -1.1104 3.8715 2.74655 20.5906
424 1 -1.1104 0.986858 -0.120508 20.7043
515 2 2.2208 -0.347904 9.80669 19.3675
375 2 2.2208 13.6724 20.8352 27.6038
425 1 -1.1104 6.65974 -0.105347 15.1476
409 1 -1.1104 6.65171 -2.79734 18.0109
410 1 -1.1104 6.75697 2.70895 17.7577
417 1 -1.1104 6.7291 2.78295 15.051
415 1 -1.1104 6.67383 -3.00678 15.1955
420 1 -1.1104 6.8019 -0.0579687 17.9057
449 2 2.2208 10.9705 1.27297 16.638
450 1 -1.1104 12.321 -2.8658 17.7384
451 1 -1.1104 12.3963 2.69098 18.0511
452 1 -1.1104 12.4455 -2.86775 14.9583
454 1 -1.1104 12.3657 2.70048 15.1916
456 1 -1.1104 12.3513 -0.0363925 17.9802
457 2 2.2208 10.9267 -1.42495 19.3414
459 1 -1.1104 12.2533 -0.0880519 15.1014
461 1 -1.1104 9.49577 -2.93348 17.7956
462 1 -1.1104 9.51258 2.55971 17.9879
463 2 2.2208 8.0904 1.31457 19.1932
464 1 -1.1104 9.51697 -2.71932 15.0081
466 1 -1.1104 9.59579 2.77256 15.1572
468 2 2.2208 8.05242 -1.49302 16.4991
469 2 2.2208 8.0213 4.11036 16.4792
470 1 -1.1104 9.6015 -0.282771 17.9097
471 1 -1.1104 9.5716 0.122937 15.1558
472 1 -1.1104 9.49472 0.0242584 20.7769
465 1 -1.1104 9.4704 -2.81754 20.7277
458 2 2.2208 10.8877 4.10548 19.3366
467 1 -1.1104 9.53462 2.79752 20.6684
416 1 -1.1104 6.6863 -2.88195 20.7552
426 1 -1.1104 6.68313 0.0867194 20.6153
418 1 -1.1104 6.63142 2.65593 20.7186
453 1 -1.1104 12.3581 -2.98823 20.4319
482 2 2.2208 5.24955 6.95355 16.4869
483 2 2.2208 5.22188 12.5466 16.36
484 1 -1.1104 1.20402 8.37766 17.8942
486 1 -1.1104 1.19306 8.19265 15.017
490 1 -1.1104 1.05393 5.65027 18.0237
491 1 -1.1104 1.00357 11.1371 17.781
494 2 2.2208 5.19844 9.68445 19.2883
495 1 -1.1104 0.857364 5.44746 15.1219
497 1 -1.1104 0.97108 10.9354 15.0002
503 1 -1.1104 4.03349 8.35713 17.823
504 2 2.2208 2.47408 6.89456 19.3411
505 2 2.2208 2.48379 12.5663 19.2703
506 1 -1.1104 3.94666 8.46628 15.1076
508 2 2.2208 2.46277 9.69409 16.365
509 1 -1.1104 3.82948 5.63883 17.8337
510 1 -1.1104 3.86832 11.1284 17.8544
511 1 -1.1104 3.83113 5.8024 15.0215
513 1 -1.1104 3.95788 11.2677 14.949
487 1 -1.1104 0.994091 8.22913 20.7197
381 2 2.2208 5.1834 1.29653 27.7794
488 1 -1.1104 6.76578 8.33179 14.9985
501 1 -1.1104 6.70901 11.1187 14.8801
493 1 -1.1104 6.57731 11.0978 17.7152
498 1 -1.1104 1.08584 11.1782 20.6053
514 1 -1.1104 3.74065 11.132 20.8084
512 1 -1.1104 3.91473 5.522 20.8122
496 1 -1.1104 1.01631 5.35901 20.8381
507 1 -1.1104 3.8573 8.33548 20.5906
480 2 2.2208 13.6097 15.2972 16.529
403 2 2.2208 2.40507 15.2436 27.7499
702 2 2.2208 -0.502037 9.71401 24.9025
348 2 2.2208 5.26317 -1.42428 13.6792
485 1 -1.1104 6.78464 8.32828 17.8818
492 1 -1.1104 6.67423 5.61 17.9964
499 1 -1.1104 6.64217 5.51047 15.0511
518 2 2.2208 10.9086 6.96429 16.2861
519 2 2.2208 10.8333 12.5644 16.5656
520 1 -1.1104 12.2896 8.49273 17.7602
521 1 -1.1104 12.3728 8.29736 15.0767
523 1 -1.1104 12.3382 5.50024 17.7835
524 1 -1.1104 12.2061 11.1718 17.942
525 2 2.2208 10.8028 9.71875 19.2084
526 1 -1.1104 12.2305 5.4939 14.9358
528 1 -1.1104 12.3087 11.0823 15.1609
530 1 -1.1104 9.39596 8.34934 17.7907
531 2 2.2208 7.98558 6.89284 19.3334
532 2 2.2208 8.08687 12.5582 19.375
533 1 -1.1104 9.56429 8.31545 14.7921
535 2 2.2208 7.99173 9.82691 16.4475
536 1 -1.1104 9.57793 5.51041 17.9009
537 1 -1.1104 9.40761 11.2315 17.9588
538 1 -1.1104 9.59504 5.64664 15.0282
540 1 -1.1104 9.51794 11.1066 15.1934
489 1 -1.1104 6.5974 8.31094 20.6976
747 1 -1.1104 6.60113 16.725 23.3602
500 1 -1.1104 6.68067 5.41871 20.8701
539 1 -1.1104 9.33292 5.45335 20.7346
522 1 -1.1104 12.1032 8.23013 20.5631
529 1 -1.1104 12.1593 11.0755 20.6399
534 1 -1.1104 9.29863 8.31664 20.5291
502 1 -1.1104 6.57134 11.0341 20.7511
643 2 2.2208 -0.249351 1.21977 22.0805
665 1 -1.1104 9.4773 19.4055 23.5854
699 2 2.2208 8.25116 15.1897 22.1478
545 2 2.2208 5.23735 17.9394 16.4156
546 1 -1.1104 0.972307 13.9463 17.9146
547 1 -1.1104 1.00946 19.4103 17.7975
550 1 -1.1104 0.95288 13.8437 14.9626
552 1 -1.1104 0.881898 19.4139 15.0694
558 1 -1.1104 0.932117 16.681 17.6323
560 2 2.2208 5.34303 15.2831 19.296
561 2 2.2208 5.254 20.8861 19.2316
562 1 -1.1104 1.00883 16.7101 14.9285
566 1 -1.1104 3.68493 14.0163 17.8599
567 1 -1.1104 4.05072 19.3716 17.7835
568 2 2.2208 2.45617 18.1072 19.2108
569 1 -1.1104 3.78732 13.8701 15.0727
571 1 -1.1104 3.61885 19.4689 14.8248
573 2 2.2208 2.50167 15.2487 16.3992
574 2 2.2208 2.28319 20.9338 16.3578
575 1 -1.1104 3.97201 16.7109 17.9989
576 1 -1.1104 3.79162 16.6609 14.9886
548 1 -1.1104 6.64264 13.9128 17.8822
556 1 -1.1104 6.49212 19.5627 15.0008
554 1 -1.1104 6.53101 13.9474 15.159
559 1 -1.1104 6.80399 16.6183 17.9037
565 1 -1.1104 6.7685 16.6674 20.5609
555 1 -1.1104 6.88103 13.8879 20.7465
563 1 -1.1104 1.14205 16.7311 20.5268
553 1 -1.1104 0.913379 19.4614 20.5257
570 1 -1.1104 3.92193 13.9116 20.6485
551 1 -1.1104 1.08957 13.7638 20.6985
597 1 -1.1104 9.66294 13.8932 20.7613
564 1 -1.1104 6.65184 16.7393 15.0364
549 1 -1.1104 6.60649 19.4131 17.7439
581 2 2.2208 10.9303 18.2174 16.4735
582 1 -1.1104 12.2874 13.8602 17.7962
583 1 -1.1104 12.3074 19.5639 17.9537
584 1 -1.1104 12.1761 13.8493 14.9798
586 1 -1.1104 12.1939 19.5015 15.0463
588 1 -1.1104 12.2079 16.7539 17.8969
589 2 2.2208 10.8733 15.3711 19.3724
590 2 2.2208 10.9338 20.9365 19.3214
591 1 -1.1104 12.2027 16.5871 15.1332
593 1 -1.1104 9.4866 14.0227 17.9568
594 1 -1.1104 9.59749 19.6295 17.954
595 2 2.2208 8.08039 18.0779 19.2065
596 1 -1.1104 9.46733 13.8363 15.1586
598 1 -1.1104 9.46838 19.4821 15.1034
600 2 2.2208 8.11181 15.2348 16.4581
601 2 2.2208 7.95617 20.8353 16.502
602 1 -1.1104 9.54199 16.7687 17.9721
603 1 -1.1104 9.45247 16.6756 15.0959
599 1 -1.1104 9.43351 19.5527 20.7118
585 1 -1.1104 12.3474 13.9233 20.6799
592 1 -1.1104 12.3051 16.6921 20.7433
604 1 -1.1104 9.57737 16.7743 20.8341
587 1 -1.1104 12.1981 19.4477 20.6847
736 1 -1.1104 6.66725 19.4413 23.4894
700 2 2.2208 7.99224 20.8921 22.0517
382 2 2.2208 2.42391 -1.53973 27.6162
438 1 -1.1104 3.79272 -0.103748 20.5899
544 2 2.2208 -0.279582 4.14015 19.3075
609 2 2.2208 5.15099 1.26855 22.1152
610 1 -1.1104 1.01229 -2.93702 23.3315
611 1 -1.1104 1.07223 2.59666 23.5431
614 1 -1.1104 1.01669 -2.92794 26.2685
615 1 -1.1104 1.00199 2.57854 26.2499
618 1 -1.1104 1.06986 -0.106814 23.5815
620 2 2.2208 5.24824 -1.53327 24.8919
621 2 2.2208 5.21949 4.1005 24.9728
622 1 -1.1104 0.929479 -0.249647 26.3435
624 1 -1.1104 3.8024 -2.9212 23.5405
625 1 -1.1104 3.91866 2.69108 23.4727
626 2 2.2208 2.48958 1.19952 24.9345
627 1 -1.1104 3.76846 -3.05606 26.3464
628 1 -1.1104 3.84343 2.68588 26.253
629 2 2.2208 2.39032 -1.5111 21.9903
630 2 2.2208 2.54286 4.09502 22.1592
631 1 -1.1104 3.84676 -0.134133 23.587
632 1 -1.1104 3.84808 -0.194578 26.3424
379 2 2.2208 8.00955 20.8804 27.7714
616 1 -1.1104 6.66677 -3.09864 26.239
667 2 2.2208 8.11463 18.0368 24.8559
638 2 2.2208 10.9941 15.3495 24.9842
663 1 -1.1104 12.4674 16.7861 26.3026
728 2 2.2208 13.639 6.79267 24.9474
455 1 -1.1104 12.2771 2.66011 20.7316
460 1 -1.1104 12.3458 -0.286229 20.6636
739 1 -1.1104 6.66238 13.9426 23.5064
612 1 -1.1104 6.5973 -2.77957 23.5456
617 1 -1.1104 6.6156 2.76219 26.2687
623 1 -1.1104 6.60995 -0.1599 26.2198
613 1 -1.1104 6.67833 2.74512 23.4678
619 1 -1.1104 6.49456 -0.031927 23.5161
645 2 2.2208 10.9348 1.16449 22.0914
646 1 -1.1104 12.2271 -3.00862 23.1718
647 1 -1.1104 12.2611 2.61173 23.3752
648 1 -1.1104 12.1802 -3.03332 26.115
649 1 -1.1104 12.1842 2.61045 26.2129
650 1 -1.1104 12.3519 -0.270073 23.4485
651 2 2.2208 10.8121 -1.52867 24.9379
652 2 2.2208 10.8169 4.13039 24.9844
653 1 -1.1104 12.1376 -0.0840741 26.2812
654 1 -1.1104 9.3373 -2.80367 23.6267
655 1 -1.1104 9.44381 2.60474 23.5965
656 2 2.2208 8.04624 1.28127 24.8709
657 1 -1.1104 9.56622 -2.91373 26.4471
658 1 -1.1104 9.46681 2.67523 26.4159
659 2 2.2208 8.18069 -1.41732 22.2373
660 2 2.2208 8.08552 4.07807 22.171
661 1 -1.1104 9.59708 -0.127446 23.5578
662 1 -1.1104 9.36288 -0.123228 26.3371
394 2 2.2208 2.23979 9.62589 27.7384
448 2 2.2208 -0.303942 15.3099 19.2497
704 1 -1.1104 9.59552 16.6365 26.3544
701 1 -1.1104 9.50077 16.7176 23.6555
635 1 -1.1104 12.3329 19.6207 26.1625
395 2 2.2208 5.09233 12.4165 27.74
633 1 -1.1104 12.2287 19.4854 23.5176
698 1 -1.1104 9.48343 19.4833 26.3088
608 1 -1.1104 12.5098 14.0132 23.507
674 2 2.2208 5.34931 7.00417 22.1708
675 2 2.2208 5.30854 12.5952 22.075
676 1 -1.1104 1.10416 8.41829 23.4701
678 1 -1.1104 0.858488 8.342 26.2676
680 1 -1.1104 1.03246 5.42513 23.5869
681 1 -1.1104 0.925472 11.1148 23.3801
684 2 2.2208 5.20576 9.61001 24.9687
685 1 -1.1104 0.995244 5.35333 26.3983
686 1 -1.1104 1.03488 11.1729 26.1635
689 1 -1.1104 3.87302 8.33524 23.5878
690 2 2.2208 2.53218 6.93569 24.8721
691 2 2.2208 2.39535 12.4999 24.7658
692 1 -1.1104 3.67274 8.25894 26.4449
693 2 2.2208 2.42483 9.64521 22.0306
694 1 -1.1104 3.88358 5.54539 23.5541
695 1 -1.1104 3.806 11.2116 23.5658
696 1 -1.1104 3.80545 5.53108 26.3656
697 1 -1.1104 3.69866 10.9659 26.2962
679 1 -1.1104 6.61101 8.26799 26.236
687 1 -1.1104 6.47339 5.5264 26.2936
636 1 -1.1104 12.2976 16.7899 23.4798
400 2 2.2208 10.7329 12.4622 27.7429
527 1 -1.1104 12.1529 5.5248 20.6521
670 1 -1.1104 6.61966 19.4318 26.2863
478 2 2.2208 13.6473 21.1674 16.3933
541 1 -1.1104 9.4655 11.0995 20.6773
683 1 -1.1104 6.70456 11.1184 23.5231
682 1 -1.1104 6.63763 5.53329 23.5855
677 1 -1.1104 6.66774 8.43845 23.4271
688 1 -1.1104 6.55604 11.0396 26.2541
705 1 -1.1104 9.49114 11.1152 26.3688
706 1 -1.1104 9.28432 5.59634 26.2905
707 1 -1.1104 9.6138 11.1252 23.4985
708 1 -1.1104 9.46971 5.49267 23.6046
709 2 2.2208 8.16475 9.75487 21.9777
710 1 -1.1104 9.47801 8.21932 26.1861
711 2 2.2208 8.07029 12.4923 24.8323
712 2 2.2208 8.02131 6.88657 24.9047
713 2 2.2208 10.8993 6.78511 22.0401
714 2 2.2208 11.179 12.5502 22.1936
715 1 -1.1104 12.1545 8.10764 23.5257
716 1 -1.1104 12.292 8.31456 26.2639
717 1 -1.1104 12.1684 5.35805 23.5906
718 1 -1.1104 12.4446 10.8725 23.5318
719 2 2.2208 10.8407 9.53546 24.7819
720 1 -1.1104 12.2091 5.57203 26.433
721 1 -1.1104 12.3321 11.1479 26.1992
722 1 -1.1104 9.50255 8.22289 23.4171
607 2 2.2208 10.8948 18.1449 22.1954
404 2 2.2208 5.2926 18.0625 27.7079
732 1 -1.1104 6.92485 16.7509 26.3107
577 1 -1.1104 3.8246 16.7367 20.7482
572 1 -1.1104 3.82699 19.5697 20.6175
746 1 -1.1104 3.70348 13.8155 26.1989
745 1 -1.1104 3.94614 16.7296 26.2276
744 2 2.2208 2.40596 18.2043 24.9834
743 1 -1.1104 3.83723 19.4148 26.2628
742 2 2.2208 5.21478 18.038 22.112
741 1 -1.1104 1.02131 13.9205 23.5151
750 2 2.2208 2.44295 20.9635 21.9778
749 1 -1.1104 3.76356 16.7477 23.5612
748 1 -1.1104 0.968515 16.746 23.4506
727 2 2.2208 2.47918 15.2773 22.1047
729 1 -1.1104 3.94158 19.4771 23.4239
731 1 -1.1104 3.85287 13.9741 23.444
733 1 -1.1104 1.03829 19.6427 26.2395
734 1 -1.1104 1.04589 16.8763 26.3804
735 1 -1.1104 1.00147 13.9511 26.3049
737 2 2.2208 5.25469 20.8045 24.9378
738 2 2.2208 5.18404 15.396 24.8519
740 1 -1.1104 1.06062 19.5497 23.4166
730 1 -1.1104 6.58594 13.9811 26.278
641 2 2.2208 10.8457 20.8897 24.9216
664 1 -1.1104 9.71582 13.8891 23.5659
673 1 -1.1104 9.46796 13.8729 26.2438
634 1 -1.1104 12.2157 13.9649 26.302
557 1 -1.1104 6.63216 19.6216 20.5258
386 2 2.2208 -0.454471 1.18611 27.5835
398 2 2.2208 10.7857 6.90354 27.6467
353 2 2.2208 8.069 -4.15978 13.7213
388 2 2.2208 7.94131 -1.47875 27.6475
352 2 2.2208 5.15189 4.13941 13.6348
377 2 2.2208 8.06317 15.2697 27.6947
356 2 2.2208 10.7766 -1.27965 13.7235
355 2 2.2208 8.05111 1.41143 13.7522
359 2 2.2208 2.52855 6.96529 13.7098
371 2 2.2208 5.20891 15.3216 13.7629
346 2 2.2208 -0.420289 -1.42101 13.8742
402 2 2.2208 13.4824 9.75213 27.763
391 2 2.2208 13.5832 -1.46536 27.7986
751 2 2.2208 5.30322 23.8757 5.29215
752 2 2.2208 5.24145 29.3353 5.33172
753 1 -1.1104 1.08827 24.9976 1.00168
754 1 -1.1104 1.15933 25.147 3.84869
755 1 -1.1104 1.16673 22.1958 1.19789
756 1 -1.1104 1.03602 27.7836 1.10329
757 2 2.2208 5.34337 26.5288 2.40753
758 1 -1.1104 0.950664 22.2638 3.96192
759 1 -1.1104 0.94453 27.9551 3.93928
760 1 -1.1104 3.87072 25.0139 0.965469
761 2 2.2208 2.51774 23.7223 2.61357
762 2 2.2208 2.3498 29.2555 2.45571
763 1 -1.1104 3.74951 25.3068 3.78036
764 2 2.2208 2.46383 26.5653 5.3002
765 1 -1.1104 3.83483 22.2813 1.12491
766 1 -1.1104 3.82502 27.6467 0.883106
767 1 -1.1104 3.78605 22.3571 4.01492
768 1 -1.1104 3.84918 27.9207 3.85393
894 1 -1.1104 0.968147 22.2711 6.57026
776 1 -1.1104 6.62669 22.2437 3.99011
1056 1 -1.1104 12.4112 39.0801 12.1093
892 1 -1.1104 1.04071 25.091 6.78991
897 1 -1.1104 6.59892 27.9509 6.69175
893 1 -1.1104 6.66606 25.1617 6.64879
1043 1 -1.1104 9.36116 44.5531 9.37886
1674 1 -1.1104 1.16946 47.4397 9.49471
1091 2 2.2208 5.26221 37.632 13.6362
775 1 -1.1104 6.80875 27.9184 1.18641
777 1 -1.1104 6.8519 27.9251 3.91373
774 1 -1.1104 6.60092 22.2293 1.14435
772 1 -1.1104 6.82991 24.9057 1.06688
773 1 -1.1104 6.53897 25.1489 3.83529
778 2 2.2208 10.7623 23.7428 5.19784
779 2 2.2208 10.7808 29.37 5.27907
780 1 -1.1104 12.2793 25.1704 1.10368
781 1 -1.1104 12.3382 25.0871 3.87181
782 1 -1.1104 12.1025 22.3217 0.960851
783 1 -1.1104 12.3638 28.0021 1.00915
784 2 2.2208 10.9276 26.5448 2.42599
785 1 -1.1104 12.1951 22.3904 3.82245
786 1 -1.1104 12.3255 27.9646 3.80927
787 1 -1.1104 9.46352 25.0868 0.964435
788 2 2.2208 8.08687 23.6767 2.43711
789 2 2.2208 8.0516 29.347 2.45352
790 1 -1.1104 9.40869 25.1592 3.6402
791 2 2.2208 8.03756 26.5616 5.3456
792 1 -1.1104 9.28361 22.2183 1.01291
793 1 -1.1104 9.53864 27.9967 0.987581
794 1 -1.1104 9.37245 22.2809 3.9101
795 1 -1.1104 9.57549 27.8534 3.89984
930 1 -1.1104 9.44616 27.9514 6.68441
928 1 -1.1104 9.42738 25.2078 6.72633
927 1 -1.1104 12.2488 27.8426 6.60347
926 1 -1.1104 12.1454 22.4069 6.69314
896 1 -1.1104 6.62394 22.372 6.626
929 1 -1.1104 9.48248 22.3982 6.5844
1078 2 2.2208 13.6714 32.0673 10.8568
799 2 2.2208 5.25205 34.812 5.16576
800 1 -1.1104 0.959016 30.7222 1.20428
801 1 -1.1104 1.00881 36.2608 1.01011
803 1 -1.1104 0.993032 30.6616 3.91648
804 1 -1.1104 0.84374 36.3754 3.87373
806 1 -1.1104 0.836015 33.4634 1.06269
807 2 2.2208 5.20678 31.9556 2.34761
808 2 2.2208 5.35362 37.6494 2.32547
809 1 -1.1104 1.08121 33.5138 3.98311
811 1 -1.1104 3.6855 30.5635 1.01206
812 1 -1.1104 3.94187 36.3109 0.829903
813 2 2.2208 2.30806 34.8419 2.47415
814 1 -1.1104 3.87266 30.62 3.91393
815 1 -1.1104 3.75414 36.223 3.6278
816 2 2.2208 2.32678 31.9819 5.13926
817 2 2.2208 2.27755 37.6265 5.10485
818 1 -1.1104 3.732 33.4799 0.966492
819 1 -1.1104 3.71088 33.3498 3.71717
953 1 -1.1104 0.958492 33.2738 6.54658
957 1 -1.1104 3.80524 33.566 6.37049
956 1 -1.1104 3.74386 36.4199 6.39233
950 1 -1.1104 0.907727 36.3441 6.61514
955 1 -1.1104 3.82399 30.6954 6.67291
805 1 -1.1104 6.63202 36.3032 3.84528
823 1 -1.1104 6.51725 30.6272 1.04931
802 1 -1.1104 6.61486 36.2535 0.840231
951 1 -1.1104 6.62986 30.6766 6.68336
949 1 -1.1104 1.00386 30.5591 6.65912
1478 1 -1.1104 6.61182 47.6519 3.80696
1075 2 2.2208 -0.378279 26.4896 8.04373
1667 1 -1.1104 0.853304 47.5786 6.55403
1046 1 -1.1104 9.42885 39.1039 12.1527
825 1 -1.1104 6.54238 33.366 0.94228
824 1 -1.1104 6.62502 30.6714 3.90873
810 1 -1.1104 6.57588 33.4554 3.62683
826 2 2.2208 10.8586 34.8018 5.16373
827 1 -1.1104 12.3032 30.7861 1.14505
828 1 -1.1104 12.1089 36.3022 0.991628
829 1 -1.1104 12.2436 30.6678 4.02335
830 1 -1.1104 12.212 36.2776 3.804
831 1 -1.1104 12.2105 33.4677 1.04471
832 2 2.2208 10.8511 32.0418 2.52036
833 2 2.2208 10.832 37.5952 2.31675
834 1 -1.1104 12.0563 33.5477 3.81627
835 1 -1.1104 9.5418 30.7148 0.99543
836 1 -1.1104 9.31794 36.1253 0.823435
837 2 2.2208 7.93974 34.7337 2.26137
838 1 -1.1104 9.37075 30.7801 3.88325
839 1 -1.1104 9.33324 36.181 3.6408
840 2 2.2208 7.95317 32.1559 5.12687
841 2 2.2208 8.07504 37.4564 5.12231
842 1 -1.1104 9.41568 33.4109 0.928669
843 1 -1.1104 9.37038 33.448 3.77577
987 1 -1.1104 9.41729 36.1106 6.51859
988 1 -1.1104 9.4153 33.4768 6.60149
983 1 -1.1104 12.1984 30.6635 6.68283
954 1 -1.1104 6.59494 33.5093 6.52663
984 1 -1.1104 12.2702 36.3591 6.66234
1668 1 -1.1104 6.44677 47.3975 6.39018
1042 2 2.2208 -0.284522 40.779 10.7009
1471 1 -1.1104 1.13654 47.4448 0.946968
798 2 2.2208 13.7708 26.6144 5.16294