LAMMPS (29 Oct 2020)
OMP_NUM_THREADS environment is not set. Defaulting to 1 thread. (../comm.cpp:94)
  using 1 OpenMP thread(s) per MPI task
OMP_NUM_THREADS environment is not set. Defaulting to 1 thread. (../comm.cpp:94)
  using 1 OpenMP thread(s) per MPI task
Reading data file ...
  triclinic box = (-0.1785711 -2.3485807 -0.20280351) to (28.072571 337.07658 28.096804) with tilt (0.0000000 0.0000000 0.0000000)
  2 by 13 by 2 MPI processor grid
  reading atoms ...
  18000 atoms
  reading velocities ...
  18000 velocities
Finding 1-2 1-3 1-4 neighbors ...
  special bond factors lj:    0.0      0.0      0.0     
  special bond factors coul:  0.0      0.0      0.0     
     0 = max # of 1-2 neighbors
     0 = max # of 1-3 neighbors
     0 = max # of 1-4 neighbors
     1 = max # of special neighbors
  special bonds CPU = 0.004 seconds
  read_data CPU = 0.061 seconds
Setting atom values ...
  12000 settings made for charge
Setting atom values ...
  6000 settings made for charge
PPPM initialization ...
  using 12-bit tables for long-range coulomb (../kspace.cpp:328)
  G vector (1/distance) = 0.29840167
  grid = 40 240 40
  stencil order = 5
  estimated absolute RMS force accuracy = 0.00016128439
  estimated relative force accuracy = 1.1200581e-05
  using single precision MKL FFT
  3d grid and FFT values/proc = 15000 7600
Neighbor list info ...
  update every 1 steps, delay 0 steps, check yes
  max neighbors/atom: 2000, page size: 100000
  master list distance cutoff = 11.3
  ghost atom cutoff = 11.3
  binsize = 5.65, bins = 6 61 6
  2 neighbor lists, perpetual/occasional/extra = 2 0 0
  (1) pair coul/long, perpetual
      attributes: half, newton on
      pair build: half/bin/newton/tri
      stencil: half/bin/3d/newton/tri
      bin: standard
  (2) pair eam/alloy, perpetual, copy from (1)
      attributes: half, newton on
      pair build: copy
      stencil: none
      bin: none
Setting up Verlet run ...
  Unit style    : metal
  Current step  : 0
  Time step     : 0.001
Per MPI rank memory allocation (min/avg/max) = 8.314 | 8.343 | 8.359 Mbytes
Step Temp E_pair E_mol TotEng Press 
       0         1200   -233450.75            0   -230658.89    -464.9404 
  100000    1183.8898   -233454.49            0    -230700.1   -841.48948 
Loop time of 671.756 on 52 procs for 100000 steps with 18000 atoms

Performance: 12.862 ns/day, 1.866 hours/ns, 148.864 timesteps/s
99.8% CPU use with 52 MPI tasks x 1 OpenMP threads

MPI task timing breakdown:
Section |  min time  |  avg time  |  max time  |%varavg| %total
---------------------------------------------------------------
Pair    | 449.14     | 456.21     | 463.63     |  17.2 | 67.91
Bond    | 0.0061143  | 0.010251   | 0.016353   |   2.3 |  0.00
Kspace  | 129.12     | 139.7      | 147.89     |  42.9 | 20.80
Neigh   | 52.404     | 55.184     | 59.165     |  22.2 |  8.21
Comm    | 15.287     | 16.188     | 18.402     |  20.2 |  2.41
Output  | 5.4575e-05 | 6.138e-05  | 0.00029298 |   0.0 |  0.00
Modify  | 1.7937     | 3.1845     | 4.9969     |  58.6 |  0.47
Other   |            | 1.275      |            |       |  0.19

Nlocal:        346.154 ave         369 max         327 min
Histogram: 5 3 5 10 7 8 6 3 2 3
Nghost:        4004.92 ave        4119 max        3931 min
Histogram: 7 11 6 8 3 3 4 1 6 3
Neighs:        69684.0 ave       74429 max       65644 min
Histogram: 4 3 7 7 9 7 8 3 1 3

Total # of neighbors = 3623569
Ave neighs/atom = 201.30939
Ave special neighs/atom = 0.0000000
Neighbor list builds = 21956
Dangerous builds = 0
12000 atoms in group oxygen
PPPM initialization ...
  using 12-bit tables for long-range coulomb (../kspace.cpp:328)
  G vector (1/distance) = 0.29840167
  grid = 40 240 40
  stencil order = 5
  estimated absolute RMS force accuracy = 0.00016128439
  estimated relative force accuracy = 1.1200581e-05
  using single precision MKL FFT
  3d grid and FFT values/proc = 15000 7600
Setting up Verlet run ...
  Unit style    : metal
  Current step  : 0
  Time step     : 0.001
Per MPI rank memory allocation (min/avg/max) = 8.565 | 8.594 | 8.610 Mbytes
Step f_2 Temp v_Tdiff v_deltaT 
       0            0    1183.8898            0            0 
  100000    1279.4986    1208.0315  0.050208834     582.9199 
  200000    2489.2266    1200.5805  0.060619661    703.78863 
  300000     3700.349     1203.591  0.059439545    690.08759 
  400000    4901.7831    1210.7276  0.060366035    700.84406 
  500000    6106.2971    1203.8708  0.060681827    704.51038 
  600000     7319.355    1192.7262  0.060719494    704.94769 
  700000     8531.313    1193.9547  0.060799262    705.87379 
  800000     9749.573    1211.5763  0.060379121    700.99599 
  900000    10943.727     1204.513  0.062230705     722.4927 
 1000000    12153.787    1205.4719  0.061292878    711.60463 
 1100000    13370.634    1202.9203  0.059458157    690.30368 
 1200000    14588.144    1203.4225  0.061909034    718.75813 
 1300000    15809.258    1213.4178  0.060091996     697.6625 
 1400000    17025.427    1203.4068  0.060429861    701.58508 
 1500000    18241.271    1212.5226  0.060902625    707.07381 
Loop time of 10014.1 on 52 procs for 1500000 steps with 18000 atoms

Performance: 12.942 ns/day, 1.854 hours/ns, 149.789 timesteps/s
99.8% CPU use with 52 MPI tasks x 1 OpenMP threads

MPI task timing breakdown:
Section |  min time  |  avg time  |  max time  |%varavg| %total
---------------------------------------------------------------
Pair    | 6657.4     | 6735.1     | 6832.9     |  55.3 | 67.26
Bond    | 0.1089     | 0.15333    | 0.23889    |   7.3 |  0.00
Kspace  | 1951.7     | 2083       | 2185.6     | 119.3 | 20.80
Neigh   | 857.49     | 891.27     | 934.81     |  64.1 |  8.90
Comm    | 232.55     | 249.48     | 294.15     |  97.3 |  2.49
Output  | 0.0015954  | 0.0016838  | 0.0035104  |   0.6 |  0.00
Modify  | 8.0375     | 8.7826     | 9.7278     |  13.5 |  0.09
Other   |            | 46.28      |            |       |  0.46

Nlocal:        346.154 ave         363 max         332 min
Histogram: 2 9 6 5 8 7 6 4 3 2
Nghost:        4013.29 ave        4081 max        3944 min
Histogram: 2 3 5 11 6 8 5 6 2 4
Neighs:        69668.8 ave       73300 max       66935 min
Histogram: 5 7 7 3 9 7 6 4 2 2

Total # of neighbors = 3622778
Ave neighs/atom = 201.26544
Ave special neighs/atom = 0.0000000
Neighbor list builds = 356170
Dangerous builds = 0
Total wall time: 2:58:06
