ITEM: TIMESTEP
20000
ITEM: NUMBER OF ATOMS
18000
ITEM: BOX BOUNDS xy xz yz pp pp pp
-9.4446568686747209e-02 2.7988446568686580e+01 0.0000000000000000e+00
-1.2154346373483507e+00 3.3594343463735112e+02 0.0000000000000000e+00
-8.8827116451872801e-02 2.7982827116451904e+01 0.0000000000000000e+00
ITEM: ATOMS id type q mass x y z
1 4 2.2208 232.038 2.48232 13.6389 2.59302
127 1 -1.1104 15.9994 3.02156 1.7752 0.0907543
9173 4 2.2208 232.038 1.42555 4.61138 2.72334
84 3 -1.1104 15.9994 10.1546 18.5778 0.611797
128 1 -1.1104 15.9994 1.36039 0.107111 4.28359
6 3 -1.1104 15.9994 1.35392 9.3287 0.934768
64 3 -1.1104 15.9994 12.5319 17.2597 1.18094
9237 2 2.2208 232.038 13.8968 13.1094 5.59082
9 4 2.2208 232.038 9.95484 4.52936 3.03794
10 2 2.2208 232.038 11.7839 1.33426 3.04416
142 1 -1.1104 15.9994 12.6194 -0.753876 1.52639
12 4 2.2208 232.038 7.68132 6.70707 2.91403
143 1 -1.1104 15.9994 12.6598 -1.27577 4.5642
14 3 -1.1104 15.9994 8.18898 20.8005 0.47267
15 4 2.2208 232.038 5.47601 3.95301 2.97308
708 2 2.2208 232.038 13.8827 7.41655 -0.134446
17 2 2.2208 232.038 7.94713 4.62038 0.0234856
18 2 2.2208 232.038 4.40342 7.497 2.80235
9314 1 -1.1104 15.9994 13.5738 7.64914 2.09422
20 2 2.2208 232.038 11.3884 7.40819 2.46027
9524 2 2.2208 232.038 14.1044 15.7793 14.0141
22 4 2.2208 232.038 5.75794 13.0375 2.75201
23 2 2.2208 232.038 2.60235 10.2513 2.9784
24 3 -1.1104 15.9994 6.65517 0.133289 6.08761
349 1 -1.1104 15.9994 9.70566 22.9251 12.6823
725 2 2.2208 232.038 2.68959 19.0029 0.118058
27 2 2.2208 232.038 7.57367 10.2643 2.86088
28 2 2.2208 232.038 5.51129 18.3069 2.77292
348 1 -1.1104 15.9994 7.03723 23.0341 12.7547
30 2 2.2208 232.038 11.0755 13.9763 2.71011
96 2 2.2208 232.038 8.13882 24.4357 5.39777
32 4 2.2208 232.038 8.81825 1.33109 1.71481
33 2 2.2208 232.038 2.58168 16.7073 2.77732
338 1 -1.1104 15.9994 1.34652 20.0761 12.5703
347 1 -1.1104 15.9994 4.14724 22.9944 12.5955
36 3 -1.1104 15.9994 4.39543 -0.367231 1.56771
37 2 2.2208 232.038 8.8482 18.9423 2.48809
38 2 2.2208 232.038 5.01117 21.4573 2.67344
341 1 -1.1104 15.9994 9.58778 17.2648 12.6827
40 2 2.2208 232.038 11.796 18.6613 2.83824
41 4 2.2208 232.038 3.05779 1.30681 2.45201
42 4 2.2208 232.038 8.26232 15.6806 2.71919
43 2 2.2208 232.038 1.87395 21.6358 2.78544
346 1 -1.1104 15.9994 1.35848 22.8199 12.5946
345 1 -1.1104 15.9994 12.5174 20.0855 12.5793
21 4 2.2208 232.038 0.249097 7.71242 2.58599
47 2 2.2208 232.038 8.34358 22.1035 2.6468
8476 4 2.2208 232.038 5.86576 0.575842 3.97651
49 1 -1.1104 15.9994 12.5059 22.9643 12.6225
50 2 2.2208 232.038 11.1698 24.3412 2.73914
54 3 -1.1104 15.9994 1.12234 2.24923 2.19545
52 2 2.2208 232.038 2.49381 1.51936 6.01248
344 1 -1.1104 15.9994 12.5489 17.2024 12.6148
343 1 -1.1104 15.9994 9.64651 20.1315 12.6415
16 3 -1.1104 15.9994 2.49672 6.3501 1.49586
56 2 2.2208 232.038 8.52074 1.82833 5.55334
342 1 -1.1104 15.9994 6.99499 20.1645 12.6624
58 2 2.2208 232.038 5.46442 1.05119 8.51251
354 2 2.2208 232.038 5.5637 1.42962 14.1028
60 2 2.2208 232.038 11.2703 1.45342 8.58308
5 3 -1.1104 15.9994 3.60404 11.5257 1.26741
62 2 2.2208 232.038 2.59435 7.10494 5.80887
63 2 2.2208 232.038 2.57626 4.14464 8.71975
340 1 -1.1104 15.9994 6.65447 17.2 12.4807
65 2 2.2208 232.038 5.62832 4.2606 6.20972
66 2 2.2208 232.038 8.2331 7.00859 6.038
67 2 2.2208 232.038 8.61227 4.31603 8.5776
68 2 2.2208 232.038 5.37143 7.17562 8.62556
69 2 2.2208 232.038 11.2835 4.52876 5.95423
70 2 2.2208 232.038 11.2781 7.27059 8.55915
9170 3 -1.1104 15.9994 1.14917 17.654 1.1479
72 2 2.2208 232.038 2.79273 12.8587 5.93854
73 2 2.2208 232.038 2.70048 10.1081 8.35302
74 3 -1.1104 15.9994 6.62936 2.76341 4.56835
75 2 2.2208 232.038 5.45328 9.83309 5.78052
76 2 2.2208 232.038 8.43807 12.787 5.54358
77 2 2.2208 232.038 8.17492 10.0039 8.54433
78 2 2.2208 232.038 5.5714 12.9843 8.53678
79 2 2.2208 232.038 11.0538 10.1904 6.00151
80 2 2.2208 232.038 11.0091 12.9666 8.46649
339 1 -1.1104 15.9994 4.15548 20.255 12.6236
82 2 2.2208 232.038 2.77438 19.0238 5.4818
83 2 2.2208 232.038 2.65046 15.9597 8.42794
34 3 -1.1104 15.9994 3.54024 21.4434 1.05804
85 2 2.2208 232.038 5.43769 15.8677 5.71358
86 2 2.2208 232.038 8.12501 18.8428 5.94186
87 2 2.2208 232.038 8.27204 15.8045 8.39709
88 2 2.2208 232.038 5.37245 18.6446 8.47897
89 2 2.2208 232.038 11.2234 15.887 5.76104
90 2 2.2208 232.038 11.1064 18.5396 8.37948
7 2 2.2208 232.038 13.9242 21.4316 8.27372
333 1 -1.1104 15.9994 9.70731 14.3549 12.6677
93 2 2.2208 232.038 2.66775 21.481 8.35456
94 3 -1.1104 15.9994 12.3832 3.37214 4.07657
95 2 2.2208 232.038 5.62705 21.4135 5.85661
9169 2 2.2208 232.038 -0.231734 15.723 11.0377
97 2 2.2208 232.038 8.38648 21.4951 8.55185
9193 2 2.2208 232.038 -0.177858 7.02703 8.43594
99 2 2.2208 232.038 10.9485 21.2665 5.33064
100 2 2.2208 232.038 11.2327 24.1419 8.42472
336 1 -1.1104 15.9994 1.15597 17.2063 12.4981
102 2 2.2208 232.038 2.7985 1.3083 11.3226
9248 2 2.2208 232.038 14.0934 15.783 8.42328
104 2 2.2208 232.038 8.34471 1.41311 11.3881
4 3 -1.1104 15.9994 6.84758 20.2301 2.58073
106 3 -1.1104 15.9994 4.07373 2.10918 4.37655
107 2 2.2208 232.038 2.74531 7.11815 11.1097
108 2 2.2208 232.038 5.465 4.21787 11.3458
109 2 2.2208 232.038 8.41183 7.3121 11.1623
110 2 2.2208 232.038 11.1286 4.47078 11.2369
111 3 -1.1104 15.9994 1.98599 15.2021 0.992903
112 2 2.2208 232.038 2.63158 13.0095 11.0901
113 2 2.2208 232.038 5.49213 10.1296 11.1801
114 2 2.2208 232.038 8.29366 12.9253 11.2732
115 2 2.2208 232.038 11.1823 10.0395 11.1644
116 4 2.2208 232.038 10.8074 10.8887 2.6409
117 2 2.2208 232.038 2.66902 18.6761 11.2765
118 2 2.2208 232.038 5.39457 15.7838 11.1736
119 2 2.2208 232.038 8.46538 18.6854 11.1756
120 2 2.2208 232.038 11.2057 15.7172 11.2922
121 3 -1.1104 15.9994 10.9316 12.3515 0.803775
122 2 2.2208 232.038 2.77387 24.2791 11.2168
123 2 2.2208 232.038 5.63454 21.581 11.2081
124 2 2.2208 232.038 8.36343 24.3039 11.2263
125 2 2.2208 232.038 11.1539 21.4615 11.252
722 2 2.2208 232.038 8.53085 12.779 -0.24255
29 2 2.2208 232.038 14.0122 21.4339 2.63492
45 3 -1.1104 15.9994 1.58255 -0.322787 1.29209
129 1 -1.1104 15.9994 5.55807 1.878 2.09358
92 2 2.2208 232.038 2.59446 24.4562 5.45542
335 1 -1.1104 15.9994 12.4872 14.2761 12.6326
132 1 -1.1104 15.9994 3.47229 3.70038 1.87325
8 2 2.2208 232.038 5.58767 1.35279 0.0345786
134 1 -1.1104 15.9994 7.11363 -0.224241 1.14055
135 1 -1.1104 15.9994 10.1621 -0.384531 2.53821
136 1 -1.1104 15.9994 7.92605 0.48857 3.65459
137 1 -1.1104 15.9994 11.4901 1.08779 5.19084
13 2 2.2208 232.038 3.35219 4.82017 0.00178382
139 1 -1.1104 15.9994 9.73373 3.49016 1.00332
140 1 -1.1104 15.9994 7.75073 4.39488 2.35705
141 1 -1.1104 15.9994 9.80036 2.40205 3.39253
146 1 -1.1104 15.9994 0.259619 7.04365 0.268608
334 1 -1.1104 15.9994 12.6018 11.4096 12.458
144 1 -1.1104 15.9994 12.4631 2.65294 1.12715
130 1 -1.1104 15.9994 1.18188 4.0717 0.51713
2 3 -1.1104 15.9994 8.99705 10.2965 0.506669
147 1 -1.1104 15.9994 3.84235 5.37578 3.99248
148 1 -1.1104 15.9994 1.45552 3.31915 4.69578
149 1 -1.1104 15.9994 4.64225 7.80964 5.10483
168 1 -1.1104 15.9994 0.15963 9.92902 3.34048
151 1 -1.1104 15.9994 4.07926 8.51493 0.962177
152 1 -1.1104 15.9994 0.808325 6.11435 4.56872
153 1 -1.1104 15.9994 2.30481 8.00861 3.59623
154 1 -1.1104 15.9994 5.67705 5.95628 1.84
155 1 -1.1104 15.9994 9.21667 6.20514 1.26168
156 1 -1.1104 15.9994 6.73707 5.58086 4.60253
157 1 -1.1104 15.9994 9.17236 4.17999 5.15893
158 1 -1.1104 15.9994 6.90307 8.41862 1.33844
159 1 -1.1104 15.9994 9.52407 8.67671 2.54495
160 1 -1.1104 15.9994 7.29169 8.37082 4.2994
161 1 -1.1104 15.9994 9.67472 6.57812 4.19235
162 1 -1.1104 15.9994 11.8767 5.379 1.58725
163 1 -1.1104 15.9994 12.3449 6.01226 4.26752
164 1 -1.1104 15.9994 12.4809 10.016 1.15511
165 1 -1.1104 15.9994 11.8952 9.23249 3.84351
9381 1 -1.1104 15.9994 0.960002 23.2309 4.19539
167 1 -1.1104 15.9994 0.967519 12.6718 1.36198
11 3 -1.1104 15.9994 11.0512 7.92817 0.13001
169 1 -1.1104 15.9994 2.66215 10.2125 5.27136
138 1 -1.1104 15.9994 7.64563 2.3079 0.058731
171 1 -1.1104 15.9994 4.23838 13.9579 1.30989
172 1 -1.1104 15.9994 1.27915 12.3183 4.18106
173 1 -1.1104 15.9994 3.94052 12.2399 3.98423
174 1 -1.1104 15.9994 6.66054 11.5741 1.2478
175 1 -1.1104 15.9994 8.88295 12.3641 2.55899
176 1 -1.1104 15.9994 5.05023 9.75103 3.25364
177 1 -1.1104 15.9994 9.21908 10.4745 4.61328
178 1 -1.1104 15.9994 6.90625 14.5323 1.17709
179 1 -1.1104 15.9994 9.71511 15.0908 1.07916
180 1 -1.1104 15.9994 6.66821 11.7764 4.31195
181 1 -1.1104 15.9994 9.59646 14.8033 4.32712
182 1 -1.1104 15.9994 12.7975 12.016 2.67443
183 1 -1.1104 15.9994 11.0298 12.2695 4.73235
184 1 -1.1104 15.9994 12.5717 14.6933 1.09447
185 1 -1.1104 15.9994 12.7099 14.796 4.23991
186 1 -1.1104 15.9994 0.954642 15.153 3.54249
187 1 -1.1104 15.9994 4.43267 16.8124 1.55056
188 1 -1.1104 15.9994 3.66696 14.8016 4.23776
189 1 -1.1104 15.9994 4.2391 17.2732 4.33806
190 1 -1.1104 15.9994 0.894186 20.3351 4.23065
191 1 -1.1104 15.9994 0.997458 20.2606 1.34743
192 1 -1.1104 15.9994 1.36091 17.6892 4.41997
193 1 -1.1104 15.9994 3.3816 19.2178 2.57836
194 1 -1.1104 15.9994 7.52971 17.5526 1.28196
195 1 -1.1104 15.9994 10.1916 16.9487 2.73265
196 1 -1.1104 15.9994 6.73549 14.7689 4.07539
197 1 -1.1104 15.9994 7.37342 17.4727 3.89129
198 1 -1.1104 15.9994 6.09083 22.8817 4.14477
199 1 -1.1104 15.9994 10.1966 20.7206 2.54427
200 1 -1.1104 15.9994 5.45395 19.5174 4.75479
201 1 -1.1104 15.9994 9.98662 18.9765 4.47916
337 1 -1.1104 15.9994 3.98372 17.2483 12.7407
203 1 -1.1104 15.9994 12.3936 17.2412 4.51635
204 1 -1.1104 15.9994 12.5636 20.1836 1.22787
205 1 -1.1104 15.9994 12.683 20.2565 4.28526
206 1 -1.1104 15.9994 0.839828 22.9877 1.14136
207 1 -1.1104 15.9994 6.05941 22.8731 1.24167
208 1 -1.1104 15.9994 3.49008 21.1184 4.50013
209 1 -1.1104 15.9994 3.45642 23.4645 2.79147
210 1 -1.1104 15.9994 7.92301 24.174 2.80413
211 1 -1.1104 15.9994 9.77379 23.0618 1.15379
212 1 -1.1104 15.9994 8.11718 20.8941 4.79738
213 1 -1.1104 15.9994 9.94667 23.1353 4.22038
214 1 -1.1104 15.9994 12.5436 22.8962 1.26843
215 1 -1.1104 15.9994 12.5854 22.981 3.98727
216 1 -1.1104 15.9994 1.15335 -0.30042 7.07521
217 1 -1.1104 15.9994 3.97195 -0.0392745 7.18807
218 1 -1.1104 15.9994 1.18229 -0.293135 9.7605
219 1 -1.1104 15.9994 4.08858 -0.0424543 9.9449
220 1 -1.1104 15.9994 1.13523 2.73248 7.42996
221 1 -1.1104 15.9994 4.12618 2.75728 7.14157
222 1 -1.1104 15.9994 1.18335 2.64745 9.99192
223 1 -1.1104 15.9994 4.05669 2.85812 9.8319
133 1 -1.1104 15.9994 5.52689 3.94625 -0.0719415
225 1 -1.1104 15.9994 9.4432 0.126732 7.10276
226 1 -1.1104 15.9994 7.01318 -0.0739889 10.0465
227 1 -1.1104 15.9994 9.70985 0.159587 9.70386
228 1 -1.1104 15.9994 7.07222 2.59888 7.33868
229 1 -1.1104 15.9994 9.88293 2.90598 7.22069
230 1 -1.1104 15.9994 6.96485 3.04544 10.035
231 1 -1.1104 15.9994 9.90841 2.964 9.88588
232 1 -1.1104 15.9994 12.6312 0.0701726 7.34142
233 1 -1.1104 15.9994 12.4838 -0.100251 9.95677
234 1 -1.1104 15.9994 12.7641 3.16249 7.09113
235 1 -1.1104 15.9994 12.5393 2.92735 9.82711
236 1 -1.1104 15.9994 1.17137 5.55641 7.16126
237 1 -1.1104 15.9994 3.94115 5.56901 7.16069
238 1 -1.1104 15.9994 1.18734 5.68961 9.9117
239 1 -1.1104 15.9994 4.02505 5.68056 9.95301
240 1 -1.1104 15.9994 1.11952 8.58601 6.892
241 1 -1.1104 15.9994 3.9151 8.57603 7.36237
242 1 -1.1104 15.9994 1.40048 8.53099 9.7151
243 1 -1.1104 15.9994 4.13322 8.56808 10.0855
244 1 -1.1104 15.9994 6.92058 5.65302 7.36069
245 1 -1.1104 15.9994 9.85565 5.93166 7.22608
246 1 -1.1104 15.9994 6.85641 5.79889 10.0936
247 1 -1.1104 15.9994 9.85793 5.82281 9.89948
248 1 -1.1104 15.9994 6.77951 8.52523 7.21611
249 1 -1.1104 15.9994 9.69101 8.63995 7.18067
250 1 -1.1104 15.9994 6.9174 8.64752 9.90263
251 1 -1.1104 15.9994 9.71433 8.76286 9.78508
252 1 -1.1104 15.9994 12.5555 5.92571 7.08899
253 1 -1.1104 15.9994 12.4807 5.84868 9.77269
254 1 -1.1104 15.9994 12.5152 8.74019 6.78684
255 1 -1.1104 15.9994 12.5342 8.72181 9.52194
256 1 -1.1104 15.9994 1.23863 11.5084 7.22596
257 1 -1.1104 15.9994 4.33028 11.4826 7.18058
258 1 -1.1104 15.9994 1.44302 11.3448 9.9852
259 1 -1.1104 15.9994 4.22522 11.476 9.74169
260 1 -1.1104 15.9994 1.15212 14.3476 6.76445
261 1 -1.1104 15.9994 4.12502 14.414 7.03954
262 1 -1.1104 15.9994 1.15261 14.3689 9.57298
263 1 -1.1104 15.9994 4.07081 14.3882 9.62842
264 1 -1.1104 15.9994 7.00252 11.3227 7.03633
265 1 -1.1104 15.9994 9.75183 11.5147 7.21706
266 1 -1.1104 15.9994 6.97488 11.5544 9.90368
267 1 -1.1104 15.9994 9.79726 11.5011 9.82829
268 1 -1.1104 15.9994 6.83029 14.4517 7.00524
269 1 -1.1104 15.9994 9.66786 14.3108 7.14092
270 1 -1.1104 15.9994 6.93932 14.358 9.87038
271 1 -1.1104 15.9994 9.66373 14.5217 9.80091
272 1 -1.1104 15.9994 12.7621 11.4866 6.8842
273 1 -1.1104 15.9994 12.5336 11.5086 9.81029
274 1 -1.1104 15.9994 12.3783 14.4304 7.08697
275 1 -1.1104 15.9994 12.5779 14.1999 9.81292
276 1 -1.1104 15.9994 1.3942 17.2275 7.04892
277 1 -1.1104 15.9994 4.10001 17.2732 7.22426
278 1 -1.1104 15.9994 1.13078 17.1828 9.8346
279 1 -1.1104 15.9994 4.04946 17.1684 10.0075
280 1 -1.1104 15.9994 1.25439 20.0659 7.01068
281 1 -1.1104 15.9994 4.07143 20.1396 7.07469
282 1 -1.1104 15.9994 1.37223 19.95 9.70474
283 1 -1.1104 15.9994 4.18297 20.1459 9.74605
284 1 -1.1104 15.9994 6.82274 17.3971 6.96515
285 1 -1.1104 15.9994 9.64415 17.1928 6.93093
286 1 -1.1104 15.9994 6.99036 17.2557 9.79762
287 1 -1.1104 15.9994 9.77086 17.3332 9.8108
288 1 -1.1104 15.9994 6.97946 20.2018 7.43327
289 1 -1.1104 15.9994 9.83191 19.9803 7.07226
290 1 -1.1104 15.9994 6.97186 20.1448 9.91194
291 1 -1.1104 15.9994 9.88046 20.0976 9.94308
292 1 -1.1104 15.9994 12.6968 17.089 7.18164
293 1 -1.1104 15.9994 12.5621 16.9854 9.80113
294 1 -1.1104 15.9994 12.7331 19.9081 7.08691
295 1 -1.1104 15.9994 12.481 19.9317 9.83366
296 1 -1.1104 15.9994 1.32037 22.9078 6.92371
297 1 -1.1104 15.9994 4.14183 22.9735 6.7915
298 1 -1.1104 15.9994 1.38778 22.9213 9.7169
299 1 -1.1104 15.9994 4.18272 23.0242 9.83054
300 1 -1.1104 15.9994 6.84502 23.1236 6.85423
301 1 -1.1104 15.9994 9.60354 22.8105 7.07815
302 1 -1.1104 15.9994 6.79527 23.02 9.6677
303 1 -1.1104 15.9994 9.68693 22.9753 10.0238
304 1 -1.1104 15.9994 12.4317 22.7027 7.01739
305 1 -1.1104 15.9994 12.4657 22.8287 9.89704
306 1 -1.1104 15.9994 1.38278 -0.0185359 12.6222
307 1 -1.1104 15.9994 4.13332 -0.164694 12.7058
308 1 -1.1104 15.9994 1.28611 2.80883 12.6486
309 1 -1.1104 15.9994 4.15659 2.78202 12.6069
310 1 -1.1104 15.9994 6.94341 0.0507835 12.7025
311 1 -1.1104 15.9994 9.734 0.130445 12.5343
312 1 -1.1104 15.9994 6.89457 2.76185 12.8208
313 1 -1.1104 15.9994 9.67976 3.16281 12.6393
314 1 -1.1104 15.9994 12.5863 0.100833 12.5777
315 1 -1.1104 15.9994 12.5909 2.86178 12.6266
316 1 -1.1104 15.9994 1.37981 5.59217 12.7559
317 1 -1.1104 15.9994 4.08284 5.63262 12.6961
318 1 -1.1104 15.9994 1.37579 8.45007 12.5445
319 1 -1.1104 15.9994 4.1573 8.71041 12.6036
320 1 -1.1104 15.9994 7.04855 5.6857 12.7659
321 1 -1.1104 15.9994 9.70969 5.91602 12.5494
322 1 -1.1104 15.9994 7.02197 8.44422 12.5417
323 1 -1.1104 15.9994 9.81028 8.79194 12.6428
324 1 -1.1104 15.9994 12.6192 5.78639 12.6
325 1 -1.1104 15.9994 12.5315 8.50922 12.3719
326 1 -1.1104 15.9994 1.40006 11.3266 12.6331
327 1 -1.1104 15.9994 4.19085 11.5521 12.3979
328 1 -1.1104 15.9994 1.18987 14.3064 12.3744
329 1 -1.1104 15.9994 3.92008 14.3314 12.5578
330 1 -1.1104 15.9994 6.90446 11.4891 12.5508
331 1 -1.1104 15.9994 9.72004 11.5186 12.6318
332 1 -1.1104 15.9994 6.79471 14.4425 12.5524
81 3 -1.1104 15.9994 5.25616 19.5085 0.684065
126 1 -1.1104 15.9994 3.94195 -0.539885 4.25146
98 2 2.2208 232.038 5.41334 24.333 8.3145
9204 2 2.2208 232.038 0.734732 1.7577 0.0373207
370 2 2.2208 232.038 11.1482 18.617 13.8609
366 2 2.2208 232.038 2.62864 15.7785 13.836
31 3 -1.1104 15.9994 10.1389 0.694717 0.0295741
359 2 2.2208 232.038 5.53256 7.18192 13.984
707 2 2.2208 232.038 13.8363 13.1834 -0.155466
356 2 2.2208 232.038 2.83462 4.3814 14.0277
350 2 2.2208 232.038 -0.100781 7.2183 13.9599
726 2 2.2208 232.038 5.48758 15.7261 27.8336
717 2 2.2208 232.038 8.66494 8.04147 27.8478
721 2 2.2208 232.038 5.2397 10.2858 28.0019
728 2 2.2208 232.038 11.1948 16.0811 27.7394
676 1 -1.1104 15.9994 3.80981 20.0493 23.8467
718 2 2.2208 232.038 11.4089 4.27468 27.6993
716 2 2.2208 232.038 5.47684 4.61227 25.6803
360 2 2.2208 232.038 11.2525 7.24137 13.9921
389 2 2.2208 232.038 -0.0324079 7.46704 19.5683
680 1 -1.1104 15.9994 9.69121 17.1246 23.572
709 2 2.2208 232.038 14.1979 1.5381 28.0153
362 1 -1.1104 15.9994 12.3298 22.9851 26.4699
675 1 -1.1104 15.9994 1.11924 20.2764 23.79
679 1 -1.1104 15.9994 6.68214 17.2918 23.5724
674 1 -1.1104 15.9994 4.03126 17.3054 26.8266
131 1 -1.1104 15.9994 5.44082 1.80354 25.7744
367 1 -1.1104 15.9994 12.3589 22.9796 23.5546
355 2 2.2208 232.038 11.1501 1.52357 13.9201
673 1 -1.1104 15.9994 1.39676 17.4408 26.446
26 3 -1.1104 15.9994 3.49809 3.73814 26.1846
678 1 -1.1104 15.9994 3.8235 20.3324 26.4396
372 1 -1.1104 15.9994 9.41417 23.0027 26.38
720 2 2.2208 232.038 2.46424 13.2067 27.5397
677 1 -1.1104 15.9994 1.05629 20.1814 26.6078
692 1 -1.1104 15.9994 3.93459 23.0094 23.8439
376 1 -1.1104 15.9994 6.7393 23.0065 26.4182
377 2 2.2208 232.038 2.76397 1.52683 16.7575
357 2 2.2208 232.038 13.8516 24.2127 22.3361
613 1 -1.1104 15.9994 1.38507 0.0420619 26.4389
715 2 2.2208 232.038 2.41157 7.82769 27.6794
381 2 2.2208 232.038 8.30288 1.62139 16.7251
723 2 2.2208 232.038 11.1378 10.3095 27.3746
383 2 2.2208 232.038 5.46065 1.52018 19.4177
19 3 -1.1104 15.9994 7.49491 3.66717 26.0686
385 2 2.2208 232.038 11.2314 1.48111 19.5413
684 1 -1.1104 15.9994 9.62311 19.8959 23.5558
387 2 2.2208 232.038 2.71646 7.28908 16.7456
388 2 2.2208 232.038 2.55148 4.61482 19.3784
691 1 -1.1104 15.9994 1.01602 23.1409 23.7553
390 2 2.2208 232.038 5.57704 4.49539 16.8146
391 2 2.2208 232.038 8.32248 7.32734 16.6615
392 2 2.2208 232.038 8.45446 4.55794 19.5121
393 2 2.2208 232.038 5.55775 7.48689 19.4867
394 2 2.2208 232.038 11.1842 4.30128 16.7561
395 2 2.2208 232.038 11.3231 7.26307 19.5398
689 1 -1.1104 15.9994 12.5298 20.1053 23.6836
397 2 2.2208 232.038 2.71424 13.043 16.6071
398 2 2.2208 232.038 2.71934 10.1753 19.4519
710 2 2.2208 232.038 3.14691 1.40802 25.7709
400 2 2.2208 232.038 5.40558 10.0839 16.6085
401 2 2.2208 232.038 8.35933 12.9915 16.7722
402 2 2.2208 232.038 8.38135 10.1819 19.4307
403 2 2.2208 232.038 5.63589 12.9229 19.4378
404 2 2.2208 232.038 11.2247 10.063 16.8345
405 2 2.2208 232.038 11.1962 12.9974 19.5068
406 1 -1.1104 15.9994 9.61895 22.9881 23.6211
407 2 2.2208 232.038 2.71011 18.7727 16.7363
408 2 2.2208 232.038 2.74427 15.8125 19.3898
731 2 2.2208 232.038 5.42264 21.498 27.5621
410 2 2.2208 232.038 5.53491 15.8941 16.6513
411 2 2.2208 232.038 8.35044 18.6647 16.6269
412 2 2.2208 232.038 8.36965 15.8188 19.4383
413 2 2.2208 232.038 5.5597 18.6878 19.5591
414 2 2.2208 232.038 11.156 15.8691 16.6908
415 2 2.2208 232.038 11.1855 18.6785 19.3166
683 1 -1.1104 15.9994 6.94452 20.2805 23.6032
417 2 2.2208 232.038 2.78373 24.2124 16.7449
418 2 2.2208 232.038 2.65482 21.5009 19.6984
688 1 -1.1104 15.9994 12.613 17.3391 26.4161
420 2 2.2208 232.038 5.56805 21.4036 16.9228
421 2 2.2208 232.038 8.33365 24.395 16.9843
422 2 2.2208 232.038 8.23117 21.4624 19.5617
423 2 2.2208 232.038 5.47463 24.4411 19.6008
424 2 2.2208 232.038 11.2244 21.4595 16.8381
425 2 2.2208 232.038 11.1008 24.3427 19.466
426 1 -1.1104 15.9994 6.83332 22.8541 23.7202
427 2 2.2208 232.038 2.59437 1.59173 21.9306
369 2 2.2208 232.038 5.42903 18.6603 14.0303
429 1 -1.1104 15.9994 3.95229 23.0787 26.5394
687 1 -1.1104 15.9994 12.4119 17.3893 23.4103
431 2 2.2208 232.038 8.69032 1.37889 22.0365
682 1 -1.1104 15.9994 9.63775 17.211 26.2852
433 2 2.2208 232.038 5.84984 1.53666 23.6395
712 2 2.2208 232.038 8.43459 1.47764 26.3027
435 2 2.2208 232.038 11.4445 1.342 24.9198
672 1 -1.1104 15.9994 3.90543 17.0043 23.7058
437 2 2.2208 232.038 2.78375 7.40926 22.3064
438 2 2.2208 232.038 2.23337 4.49411 24.5911
439 1 -1.1104 15.9994 1.10589 23.0408 26.5558
440 2 2.2208 232.038 5.68608 4.58408 21.7941
441 2 2.2208 232.038 8.36754 7.27015 22.2045
442 2 2.2208 232.038 8.61994 4.3738 24.3303
443 2 2.2208 232.038 5.63168 7.69925 25.1798
444 2 2.2208 232.038 11.2814 4.39382 22.1068
445 2 2.2208 232.038 11.2002 7.294 25.2107
690 1 -1.1104 15.9994 12.4314 20.0384 26.3977
447 2 2.2208 232.038 2.71688 13.0485 22.2663
448 2 2.2208 232.038 2.66299 10.252 24.9651
641 1 -1.1104 15.9994 6.93948 6.31398 26.7612
450 2 2.2208 232.038 5.44562 10.1275 22.2046
451 2 2.2208 232.038 8.42777 13.0082 22.3269
452 2 2.2208 232.038 8.40558 10.2054 24.8018
453 2 2.2208 232.038 5.47855 13.0379 25.194
454 2 2.2208 232.038 11.2825 10.162 22.3479
455 2 2.2208 232.038 11.3025 13.0878 25.0084
686 1 -1.1104 15.9994 9.77183 19.9839 26.3456
457 2 2.2208 232.038 2.56796 18.6595 22.3817
458 2 2.2208 232.038 2.51088 15.835 25.0301
432 2 2.2208 232.038 8.19412 24.4574 27.9301
460 2 2.2208 232.038 5.37635 15.8189 22.1191
461 2 2.2208 232.038 8.164 18.6404 22.3359
462 2 2.2208 232.038 8.30684 15.6992 24.9132
463 2 2.2208 232.038 5.25221 18.724 25.0055
464 2 2.2208 232.038 11.0191 15.9206 22.1678
465 2 2.2208 232.038 11.1318 18.6576 24.9888
681 1 -1.1104 15.9994 6.7873 17.164 26.4155
467 2 2.2208 232.038 2.59076 24.3666 22.4829
468 2 2.2208 232.038 2.41764 21.5779 25.1436
727 2 2.2208 232.038 8.13137 18.7293 27.4118
470 2 2.2208 232.038 5.40125 21.5345 22.3732
471 2 2.2208 232.038 8.23449 24.3266 22.3409
472 2 2.2208 232.038 8.33487 21.4148 25.0419
473 2 2.2208 232.038 5.44632 24.3393 24.9899
474 2 2.2208 232.038 11.0221 21.5164 22.2476
475 2 2.2208 232.038 10.9677 24.4632 25.232
476 1 -1.1104 15.9994 1.33533 0.136664 15.3844
477 1 -1.1104 15.9994 4.0697 0.0510296 15.3304
478 1 -1.1104 15.9994 1.33301 2.9327 15.4653
479 1 -1.1104 15.9994 4.18538 2.85713 15.3836
480 1 -1.1104 15.9994 6.95311 0.164723 15.3283
481 1 -1.1104 15.9994 9.81458 0.139488 15.2179
482 1 -1.1104 15.9994 6.99391 3.08833 15.5706
483 1 -1.1104 15.9994 9.93522 2.89046 15.2666
484 1 -1.1104 15.9994 12.5454 0.0175359 15.3113
485 1 -1.1104 15.9994 12.6136 2.81471 15.4308
486 1 -1.1104 15.9994 1.46145 5.821 15.4994
487 1 -1.1104 15.9994 4.15599 5.7239 15.5151
488 1 -1.1104 15.9994 1.4148 8.72587 15.3851
489 1 -1.1104 15.9994 4.12542 8.55288 15.4211
490 1 -1.1104 15.9994 6.97139 5.75707 15.3728
491 1 -1.1104 15.9994 9.78437 5.79304 15.3519
492 1 -1.1104 15.9994 6.98778 8.72144 15.425
493 1 -1.1104 15.9994 9.98539 8.53001 15.4096
494 1 -1.1104 15.9994 12.6117 5.65285 15.3503
495 1 -1.1104 15.9994 12.7821 8.43168 15.2023
496 1 -1.1104 15.9994 1.50265 11.4751 15.307
497 1 -1.1104 15.9994 4.02223 11.5806 15.2972
498 1 -1.1104 15.9994 1.39496 14.3842 15.1825
499 1 -1.1104 15.9994 4.05115 14.5444 15.2583
500 1 -1.1104 15.9994 6.93746 11.4242 15.3343
501 1 -1.1104 15.9994 9.76461 11.5072 15.3691
502 1 -1.1104 15.9994 6.94954 14.3893 15.2014
503 1 -1.1104 15.9994 9.82959 14.3751 15.4735
504 1 -1.1104 15.9994 12.3942 11.2433 15.1486
505 1 -1.1104 15.9994 12.6759 14.2392 15.3703
506 1 -1.1104 15.9994 1.34235 17.48 15.244
507 1 -1.1104 15.9994 4.18596 17.555 15.4268
508 1 -1.1104 15.9994 1.24296 20.0841 15.2712
509 1 -1.1104 15.9994 3.94518 20.2457 15.5266
510 1 -1.1104 15.9994 6.96288 17.2985 15.2217
511 1 -1.1104 15.9994 9.85566 17.1937 15.4219
512 1 -1.1104 15.9994 6.83323 20.0539 15.3533
513 1 -1.1104 15.9994 9.78752 19.9385 15.2749
514 1 -1.1104 15.9994 12.5866 17.1128 15.2163
515 1 -1.1104 15.9994 12.4582 19.863 15.5027
516 1 -1.1104 15.9994 1.30267 23.0577 15.319
517 1 -1.1104 15.9994 4.20566 22.9908 15.4707
518 1 -1.1104 15.9994 7.127 23.0351 15.4979
519 1 -1.1104 15.9994 9.83883 22.9224 15.4312
520 1 -1.1104 15.9994 12.5476 22.8326 15.4513
521 1 -1.1104 15.9994 1.38474 0.151312 18.0979
522 1 -1.1104 15.9994 4.13864 0.109243 18.0709
523 1 -1.1104 15.9994 1.19035 0.167109 20.8671
524 1 -1.1104 15.9994 4.0435 0.103688 20.78
525 1 -1.1104 15.9994 1.37801 2.90979 18.1176
526 1 -1.1104 15.9994 4.06289 3.11029 18.1819
527 1 -1.1104 15.9994 1.29096 2.98952 20.5975
528 1 -1.1104 15.9994 4.04916 3.26306 20.9179
529 1 -1.1104 15.9994 6.89978 0.350481 18.0191
530 1 -1.1104 15.9994 9.71421 0.127873 18.0057
531 1 -1.1104 15.9994 6.74357 -0.152455 20.6646
532 1 -1.1104 15.9994 9.57775 -0.0437152 20.6969
533 1 -1.1104 15.9994 6.86287 3.04469 18.4213
534 1 -1.1104 15.9994 9.73191 3.07248 17.9574
535 1 -1.1104 15.9994 8.17579 4.32309 22.0047
536 1 -1.1104 15.9994 9.80213 2.82009 20.5965
537 1 -1.1104 15.9994 12.5118 -0.0736357 18.1259
538 1 -1.1104 15.9994 12.5445 0.0166645 20.9481
539 1 -1.1104 15.9994 12.6537 2.69508 18.1481
540 1 -1.1104 15.9994 12.5642 2.99357 20.7384
541 1 -1.1104 15.9994 0.876043 5.88508 18.0997
542 1 -1.1104 15.9994 3.87872 5.82645 18.0172
543 1 -1.1104 15.9994 1.42482 5.9033 20.7846
544 1 -1.1104 15.9994 4.2357 6.20598 20.8874
545 1 -1.1104 15.9994 1.29184 8.72894 18.0943
546 1 -1.1104 15.9994 4.07371 8.66934 18.2227
547 1 -1.1104 15.9994 1.41261 8.73395 20.8344
548 1 -1.1104 15.9994 4.00588 8.85109 21.0122
549 1 -1.1104 15.9994 6.84873 5.89554 18.1209
550 1 -1.1104 15.9994 9.76746 5.93096 18.3037
551 1 -1.1104 15.9994 6.98268 6.10508 20.5538
552 1 -1.1104 15.9994 9.99659 5.92509 20.8135
553 1 -1.1104 15.9994 7.03638 8.83525 18.0323
554 1 -1.1104 15.9994 9.78486 8.80146 18.1523
555 1 -1.1104 15.9994 6.84644 8.73013 20.9287
556 1 -1.1104 15.9994 9.87225 8.8408 20.8414
557 1 -1.1104 15.9994 12.6357 5.5334 18.0903
558 1 -1.1104 15.9994 12.9146 5.84508 20.9025
559 1 -1.1104 15.9994 12.552 8.5388 18.0456
560 1 -1.1104 15.9994 12.6379 8.74985 20.9397
561 1 -1.1104 15.9994 1.33293 11.5471 18.0638
562 1 -1.1104 15.9994 4.05073 11.535 18.0453
563 1 -1.1104 15.9994 1.47996 11.4755 20.8808
564 1 -1.1104 15.9994 4.28788 11.6216 20.8449
565 1 -1.1104 15.9994 1.45089 14.5197 17.9256
566 1 -1.1104 15.9994 4.14255 14.4138 17.983
567 1 -1.1104 15.9994 1.47895 14.4564 20.8861
568 1 -1.1104 15.9994 4.13478 14.3249 20.8047
569 1 -1.1104 15.9994 6.93189 11.5565 18.0512
570 1 -1.1104 15.9994 9.7947 11.5745 18.0852
571 1 -1.1104 15.9994 7.07361 11.6226 20.8185
572 1 -1.1104 15.9994 9.89272 11.6607 20.8804
573 1 -1.1104 15.9994 6.91005 14.4001 17.9242
574 1 -1.1104 15.9994 9.74305 14.3638 18.1968
575 1 -1.1104 15.9994 7.02662 14.3881 20.7083
576 1 -1.1104 15.9994 9.7511 14.5151 20.8036
577 1 -1.1104 15.9994 12.5609 11.506 18.0296
578 1 -1.1104 15.9994 12.7359 11.6982 20.9673
579 1 -1.1104 15.9994 12.4597 14.3362 18.1029
580 1 -1.1104 15.9994 12.5036 14.4788 20.9157
581 1 -1.1104 15.9994 1.34213 17.2363 18.2057
582 1 -1.1104 15.9994 4.03555 17.3172 18.1815
583 1 -1.1104 15.9994 1.17523 17.2199 20.7771
584 1 -1.1104 15.9994 3.98675 17.047 20.9783
585 1 -1.1104 15.9994 1.11194 20.2361 18.2649
586 1 -1.1104 15.9994 4.01703 20.0421 18.2972
587 1 -1.1104 15.9994 1.31266 20.1322 21.0165
588 1 -1.1104 15.9994 4.07796 19.9932 21.0606
589 1 -1.1104 15.9994 6.91503 17.219 18.1199
590 1 -1.1104 15.9994 9.73854 17.2687 18.1117
591 1 -1.1104 15.9994 6.76189 17.4082 20.9358
592 1 -1.1104 15.9994 9.56904 17.3486 20.7655
593 1 -1.1104 15.9994 6.93863 20.0886 18.1189
594 1 -1.1104 15.9994 9.8 20.0691 18.1369
595 1 -1.1104 15.9994 6.78658 20.2979 20.8905
596 1 -1.1104 15.9994 9.72995 20.3089 20.9457
597 1 -1.1104 15.9994 12.6966 17.1601 18.1236
598 1 -1.1104 15.9994 12.3843 17.3614 20.7229
599 1 -1.1104 15.9994 12.6749 19.9958 18.1691
600 1 -1.1104 15.9994 12.5072 20.1132 20.8955
601 1 -1.1104 15.9994 1.53214 22.8913 18.1388
602 1 -1.1104 15.9994 4.37323 22.8672 18.3482
603 1 -1.1104 15.9994 1.13028 22.8793 20.9001
604 1 -1.1104 15.9994 4.00373 22.976 21.1003
605 1 -1.1104 15.9994 7.08668 22.8895 18.288
606 1 -1.1104 15.9994 9.81887 22.8044 18.132
607 1 -1.1104 15.9994 6.7641 23.1242 20.8308
608 1 -1.1104 15.9994 9.55732 22.9887 21.0004
609 1 -1.1104 15.9994 12.5792 22.8747 18.1056
610 1 -1.1104 15.9994 12.5664 23.079 20.8189
611 1 -1.1104 15.9994 1.36526 0.381462 23.7217
612 1 -1.1104 15.9994 4.13107 0.0349951 23.7322
702 2 2.2208 232.038 13.9232 18.7205 22.2816
614 1 -1.1104 15.9994 4.3313 -0.329962 26.7603
615 1 -1.1104 15.9994 1.01663 3.11584 23.2902
616 1 -1.1104 15.9994 6.41408 2.26537 21.4342
617 1 -1.1104 15.9994 1.23714 2.75923 25.91
618 1 -1.1104 15.9994 3.66734 2.54671 23.6818
619 1 -1.1104 15.9994 7.03378 -0.467953 23.5224
620 1 -1.1104 15.9994 10.102 0.0665302 23.2766
621 1 -1.1104 15.9994 7.12917 -0.369968 26.6513
622 1 -1.1104 15.9994 9.96419 -0.35395 25.7412
623 1 -1.1104 15.9994 6.21073 3.75022 23.8468
624 1 -1.1104 15.9994 10.1678 2.8829 23.4447
625 1 -1.1104 15.9994 8.02701 1.84128 24.1117
626 1 -1.1104 15.9994 10.0933 2.98827 26.1153
627 1 -1.1104 15.9994 12.7183 -0.0549426 23.5838
628 1 -1.1104 15.9994 12.6594 0.100812 26.4749
629 1 -1.1104 15.9994 12.8256 2.88389 23.8246
630 1 -1.1104 15.9994 12.8632 3.05406 26.6226
631 1 -1.1104 15.9994 0.955212 5.99103 23.4584
632 1 -1.1104 15.9994 4.0415 5.79158 23.766
633 1 -1.1104 15.9994 1.55557 5.92578 26.1534
634 1 -1.1104 15.9994 4.1351 6.34528 26.5614
635 1 -1.1104 15.9994 1.40207 8.83329 23.607
636 1 -1.1104 15.9994 4.1228 8.71037 23.7188
637 1 -1.1104 15.9994 1.11463 9.07316 26.128
638 1 -1.1104 15.9994 3.99643 8.92285 26.3746
639 1 -1.1104 15.9994 7.00888 6.16597 23.8568
640 1 -1.1104 15.9994 9.97694 5.90301 23.5283
685 1 -1.1104 15.9994 6.6368 19.9683 26.1855
642 1 -1.1104 15.9994 9.78553 5.73977 26.5313
643 1 -1.1104 15.9994 6.93535 8.92298 23.7174
644 1 -1.1104 15.9994 9.72098 8.78566 23.4539
645 1 -1.1104 15.9994 6.83173 9.04454 26.6588
646 1 -1.1104 15.9994 9.70376 8.79242 26.0522
647 1 -1.1104 15.9994 12.5797 5.9205 23.8379
648 1 -1.1104 15.9994 12.5435 5.86988 26.585
649 1 -1.1104 15.9994 12.6699 8.75841 23.7029
650 1 -1.1104 15.9994 12.5842 8.88381 26.2972
651 1 -1.1104 15.9994 1.14696 11.7016 23.7119
652 1 -1.1104 15.9994 4.01049 11.473 23.6115
653 1 -1.1104 15.9994 1.11389 11.7039 26.513
654 1 -1.1104 15.9994 3.90311 11.74 26.5033
655 1 -1.1104 15.9994 1.19759 14.4116 23.7399
656 1 -1.1104 15.9994 4.02296 14.1691 23.725
657 1 -1.1104 15.9994 1.10047 14.5312 26.3179
658 1 -1.1104 15.9994 4.07207 14.4874 26.42
659 1 -1.1104 15.9994 7.05216 11.7157 23.6071