ITEM: TIMESTEP
80000
ITEM: NUMBER OF ATOMS
17640
ITEM: BOX BOUNDS pp pp pp
-3.7352665160133025e-01 2.7713526651601367e+01
-4.5666484471832822e+00 3.3264664844718664e+02
-3.7511746143421681e-01 2.7715117461433664e+01
ITEM: ATOMS id type q x y z
1 2 2.2208 5.14693 0.934072 5.35829
3 1 -1.1104 0.890015 -0.490442 3.90864
6 2 2.2208 5.20071 -1.7411 2.45612
9 1 -1.1104 3.69795 -0.813896 1.09634
11 2 2.2208 2.31148 0.846769 2.5302
12 1 -1.1104 3.62554 -3.22751 3.49179
14 2 2.2208 2.32334 -1.91197 5.23586
16 1 -1.1104 3.5746 2.15011 1.11403
17 1 -1.1104 3.77785 2.3976 3.88814
22 1 -1.1104 0.864077 2.32878 3.87536
8156 1 -1.1104 0.985611 -0.339596 0.991065
8163 1 -1.1104 0.784626 -3.4575 3.80321
8160 1 -1.1104 3.73075 -0.410935 3.98328
8692 1 -1.1104 1.23912 -3.18504 1.08669
4 1 -1.1104 0.912031 2.50987 1.08068
15 2 2.2208 2.3041 3.84286 5.38298
7 2 2.2208 5.12204 3.79603 2.54971
8172 1 -1.1104 6.39771 -0.319774 1.11024
9243 2 2.2208 13.6492 -1.81265 -0.409591
26 1 -1.1104 6.35362 2.48152 1.09694
603 2 2.2208 10.6762 17.8415 -0.142428
23 1 -1.1104 3.78072 -3.25838 6.51625
8211 1 -1.1104 6.5285 -3.10937 4.08584
46 1 -1.1104 6.55443 2.39251 3.93607
25 1 -1.1104 3.70219 -0.529165 6.6787
18 1 -1.1104 0.778709 -0.327301 6.64201
183 1 -1.1104 6.52891 -3.33462 6.67722
20 1 -1.1104 6.5287 2.26295 6.66584
9378 2 2.2208 13.4003 20.6303 -0.306259
8187 1 -1.1104 6.66306 -0.370918 3.94141
8213 2 2.2208 8.06017 -4.47104 2.65428
8186 1 -1.1104 6.70502 -3.22967 1.39219
8201 1 -1.1104 9.36536 -3.09824 1.02402
28 1 -1.1104 9.34766 2.4064 3.74325
29 2 2.2208 10.7885 1.04631 5.262
31 1 -1.1104 12.1332 2.42974 1.02296
32 1 -1.1104 12.0883 -0.386049 1.02643
33 2 2.2208 10.8449 -1.638 2.50439
36 1 -1.1104 9.21293 -0.402394 0.994018
38 2 2.2208 7.90375 0.980195 2.39348
39 1 -1.1104 9.51712 -3.06469 3.96958
40 1 -1.1104 12.1243 2.33083 3.72784
41 2 2.2208 8.00349 -1.72528 5.40628
43 1 -1.1104 9.31102 2.43981 0.950773
44 1 -1.1104 9.42231 -0.355255 3.85123
8194 1 -1.1104 12.1788 -3.16982 3.75353
8197 1 -1.1104 12.234 -3.17436 0.99315
8200 1 -1.1104 12.3266 -0.299544 3.8385
42 2 2.2208 8.02887 3.77662 5.29625
8905 2 2.2208 13.5186 1.03205 8.14085
533 2 2.2208 2.26338 9.33372 -0.420383
8754 2 2.2208 13.5404 1.06773 2.37959
34 2 2.2208 10.6517 3.8264 2.44115
274 2 2.2208 13.6189 20.5929 10.811
50 1 -1.1104 9.41596 -3.04067 6.76263
294 2 2.2208 -0.601848 6.70526 5.25551
9031 2 2.2208 13.5953 -1.57578 5.18476
9274 2 2.2208 13.5408 9.43201 -0.304915
9032 2 2.2208 13.6876 20.7813 5.36155
13 1 -1.1104 0.89443 5.32527 3.95723
2 1 -1.1104 0.982456 5.25996 1.13059
8 1 -1.1104 1.01753 8.22223 3.85759
10 1 -1.1104 3.84754 5.01361 1.15427
53 2 2.2208 5.25491 6.61325 5.40234
54 2 2.2208 5.42246 12.2394 5.27579
56 1 -1.1104 0.919891 7.99346 1.14171
59 2 2.2208 5.25645 9.44479 2.42052
60 1 -1.1104 1.10697 10.8435 3.74123
62 1 -1.1104 3.9089 10.9725 1.13655
63 2 2.2208 2.45676 6.67754 2.40975
64 2 2.2208 2.52644 12.2234 2.5594
65 1 -1.1104 3.80769 8.0708 3.8774
66 2 2.2208 2.44442 9.50449 5.16421
67 1 -1.1104 3.66248 8.07197 0.939851
70 1 -1.1104 3.69171 5.19841 3.83884
71 1 -1.1104 3.99943 10.977 3.8747
518 1 -1.1104 0.97057 10.8205 0.968521
78 1 -1.1104 6.74037 5.31691 4.05067
73 1 -1.1104 6.55464 8.0341 3.79247
77 1 -1.1104 6.57134 10.9642 1.11618
5 1 -1.1104 6.50496 5.34521 1.27853
92 1 -1.1104 6.69035 10.8975 3.89594
549 1 -1.1104 6.59608 8.0288 1.12629
80 1 -1.1104 6.50606 10.9364 6.83211
602 2 2.2208 7.99738 15.06 -0.292389
8744 2 2.2208 13.5027 3.7145 5.18262
156 1 -1.1104 9.34557 16.4022 6.58501
8814 2 2.2208 13.6359 12.2792 2.50106
8739 1 -1.1104 12.0649 5.27661 0.951094
27 1 -1.1104 9.4026 11.0244 3.73846
37 1 -1.1104 9.26472 5.25724 1.16913
83 2 2.2208 10.8608 6.63575 5.42815
84 2 2.2208 10.7341 12.1027 5.36507
86 1 -1.1104 9.39275 8.15985 1.05303
89 2 2.2208 10.7353 9.46906 2.36034
93 2 2.2208 7.97142 6.61098 2.61055
94 2 2.2208 8.0268 12.2949 2.474
95 1 -1.1104 12.0787 7.8282 3.81685
96 2 2.2208 8.06748 9.38483 5.2544
97 1 -1.1104 9.39506 8.18655 3.94451
98 1 -1.1104 9.2583 10.8846 0.942803
100 1 -1.1104 9.47043 5.4324 3.82215
101 1 -1.1104 12.1145 10.7367 3.9769
8795 1 -1.1104 12.1503 10.9056 1.17145
30 1 -1.1104 12.1896 8.11487 1.01034
35 1 -1.1104 12.2875 5.06778 3.79463
534 2 2.2208 5.19592 12.2796 -0.330633
8808 2 2.2208 13.4754 6.63165 2.48799
106 1 -1.1104 9.33433 5.22192 6.6377
99 1 -1.1104 9.32349 10.7602 6.57219
103 1 -1.1104 12.284 8.00408 6.75972
293 1 -1.1104 9.3727 19.2542 9.38812
283 2 2.2208 10.8066 15.1007 8.12616
277 1 -1.1104 12.2245 13.6682 12.1971
531 1 -1.1104 4.01259 13.8358 1.07309
595 1 -1.1104 3.75284 19.2596 1.10666
55 1 -1.1104 1.03653 13.6033 3.86075
57 1 -1.1104 0.965698 13.6314 1.10177
61 1 -1.1104 3.56898 16.485 3.96897
68 1 -1.1104 3.96218 13.7302 3.93214
107 2 2.2208 5.07888 17.8275 5.30963
108 1 -1.1104 0.958608 16.5564 1.04559
113 1 -1.1104 0.976359 19.3091 1.19735
115 2 2.2208 5.28916 15.0747 2.52524
116 2 2.2208 5.06247 20.7672 2.51962
117 1 -1.1104 0.881873 16.3677 3.83765
122 2 2.2208 2.28804 17.7159 2.47603
125 2 2.2208 2.49801 14.9866 5.35999
126 2 2.2208 2.40499 20.8369 5.19742
127 1 -1.1104 3.69079 16.4485 1.06699
129 1 -1.1104 3.78329 19.3007 3.89862
130 1 -1.1104 1.02149 19.2087 4.0999
82 1 -1.1104 6.68433 13.6126 0.994218
118 1 -1.1104 6.50186 16.5709 1.03005
81 1 -1.1104 6.55885 13.7245 3.82033
132 1 -1.1104 6.4306 19.1398 6.5947
119 1 -1.1104 3.748 13.5716 6.6679
58 1 -1.1104 1.01192 13.8624 6.76327
288 2 2.2208 7.95952 17.8057 8.11514
581 2 2.2208 2.32175 20.5324 -0.226506
280 1 -1.1104 12.2029 13.5866 9.33271
8336 2 2.2208 5.12678 -4.63129 10.9838
131 1 -1.1104 6.38995 16.6244 3.73341
284 2 2.2208 10.6729 20.7669 8.32893
135 1 -1.1104 6.56385 19.3159 1.01294
133 1 -1.1104 6.48919 19.4302 3.75491
620 1 -1.1104 12.0242 16.5937 1.17111
79 1 -1.1104 9.38191 13.8011 3.97846
87 1 -1.1104 12.3768 13.7004 0.917387
136 2 2.2208 10.6479 18.0203 5.32725
137 1 -1.1104 12.0677 19.31 1.20325
91 1 -1.1104 12.2439 16.5625 3.86499
143 2 2.2208 10.7697 15.1789 2.53344
144 2 2.2208 10.7944 20.7449 2.59653
145 1 -1.1104 12.1989 19.4171 3.96027
146 1 -1.1104 9.47337 13.8243 1.22436
148 1 -1.1104 9.27607 19.3609 1.02814
150 2 2.2208 7.93026 18.0076 2.50742
151 1 -1.1104 12.2007 13.5477 3.89282
152 1 -1.1104 9.34828 19.4415 4.00599
153 2 2.2208 7.96604 15.1116 5.24367
154 2 2.2208 7.84165 20.6122 5.31964
155 1 -1.1104 9.30864 16.5672 1.12
157 1 -1.1104 9.23711 16.7596 3.91347
281 1 -1.1104 12.1538 19.1827 9.53872
8847 2 2.2208 13.6555 17.9606 2.55141
147 1 -1.1104 9.40466 13.6911 6.83063
278 1 -1.1104 12.2233 19.3418 12.3036
164 1 -1.1104 1.06863 2.55331 6.78121
273 2 2.2208 -0.443105 15.0542 8.19404
8362 2 2.2208 13.5538 -4.49631 7.89829
8176 1 -1.1104 0.853394 -3.21415 6.58155
24 1 -1.1104 3.69592 2.32668 6.73001
159 2 2.2208 5.22156 0.897385 10.9191
160 1 -1.1104 0.752904 -3.35514 12.5329
161 1 -1.1104 0.770777 2.34816 12.198
163 1 -1.1104 0.912465 -3.223 9.43714
165 1 -1.1104 0.707547 -0.468758 12.1259
166 2 2.2208 5.1867 -1.87269 7.95507
168 1 -1.1104 0.984758 -0.465047 9.32758
170 1 -1.1104 3.52299 -3.25246 12.1253
171 1 -1.1104 3.87406 2.40619 9.53736
172 2 2.2208 2.39701 0.884653 8.12688
173 1 -1.1104 3.78785 -3.36516 9.35207
174 1 -1.1104 0.948593 2.40769 9.42112
175 2 2.2208 2.42917 -1.73534 10.8668
177 1 -1.1104 3.64732 -0.17148 12.0091
178 1 -1.1104 3.80803 -0.358577 9.30209
162 1 -1.1104 3.53949 2.38684 12.1956
167 2 2.2208 5.14593 3.62723 8.13294
8357 1 -1.1104 6.54451 -3.31835 9.25779
321 1 -1.1104 6.45544 2.46458 12.4184
169 1 -1.1104 6.7142 2.45801 9.49108
8320 1 -1.1104 6.47273 -0.3796 6.75632
149 1 -1.1104 9.3494 19.3148 6.71927
8188 1 -1.1104 12.1056 -3.02049 6.59046
47 1 -1.1104 12.0856 -0.313064 6.53109
207 2 2.2208 -0.423993 12.2059 10.9063
287 1 -1.1104 9.49949 19.2331 12.2052
475 2 2.2208 5.07144 1.07637 -0.334963
184 1 -1.1104 6.58004 -0.524932 9.39231
52 1 -1.1104 9.39293 -0.315137 6.7041
48 1 -1.1104 12.1744 2.3661 6.69227
186 1 -1.1104 6.82753 -0.23195 12.2276
51 1 -1.1104 9.26023 2.52285 6.56965
8500 1 -1.1104 6.63399 -3.26193 12.1483
187 2 2.2208 10.6967 1.11639 10.9169
188 1 -1.1104 12.2842 -3.17122 12.3082
189 1 -1.1104 12.0437 2.29079 12.3768
190 1 -1.1104 12.1878 -3.16289 9.4745
191 1 -1.1104 12.1167 2.28919 9.44479
192 1 -1.1104 12.3549 -0.38113 12.335
193 2 2.2208 10.7732 -1.74887 8.20358
195 1 -1.1104 12.1637 -0.348991 9.62321
196 1 -1.1104 9.39058 -3.25009 12.2166
197 1 -1.1104 9.31374 2.46779 12.2375
198 2 2.2208 7.93882 0.92304 8.18672
199 1 -1.1104 9.38523 -3.1758 9.4698
200 1 -1.1104 9.43791 2.4943 9.41804
201 2 2.2208 7.95841 -1.76905 10.8926
203 1 -1.1104 9.5356 -0.441891 12.3075
204 1 -1.1104 9.34088 -0.388418 9.60038
202 2 2.2208 7.88697 3.89126 10.9279
569 2 2.2208 10.7715 6.65637 -0.361752
9033 2 2.2208 13.602 -1.63981 10.9253
176 2 2.2208 2.39824 3.81481 10.7413
102 1 -1.1104 6.66897 8.09713 6.70318
19 1 -1.1104 0.921812 5.36119 6.73577
21 1 -1.1104 6.55837 5.21599 6.77464
72 1 -1.1104 1.01808 10.8941 6.58996
76 1 -1.1104 3.78395 5.09265 6.61242
69 1 -1.1104 3.68333 10.7893 6.72225
74 1 -1.1104 0.942199 8.07635 6.67709
75 1 -1.1104 3.69772 8.15726 6.70659
208 2 2.2208 5.19158 6.45516 10.9359
209 2 2.2208 5.17355 12.2417 10.9156
210 1 -1.1104 0.899032 8.1124 12.3107
212 1 -1.1104 1.084 8.15148 9.32336
213 1 -1.1104 0.980731 5.3143 12.2556
214 1 -1.1104 0.930377 10.8003 12.2002
215 2 2.2208 5.22023 9.51063 8.17101
216 1 -1.1104 1.03442 5.34778 9.43694
217 1 -1.1104 1.03579 10.7763 9.45031
220 1 -1.1104 3.61648 7.92375 12.2562
221 2 2.2208 2.42133 6.63865 8.02372
222 2 2.2208 2.36237 12.181 8.05807
223 1 -1.1104 3.93217 7.87933 9.5484
224 2 2.2208 2.41718 9.39495 10.7772
225 1 -1.1104 3.79781 5.1536 12.2397
226 1 -1.1104 3.77233 10.7604 12.222
227 1 -1.1104 3.75919 5.08696 9.3077
228 1 -1.1104 3.81121 10.9417 9.45795
233 1 -1.1104 6.69158 5.22155 12.3153
185 1 -1.1104 6.60994 5.22711 9.43019
218 1 -1.1104 6.69244 8.00853 9.51309
234 1 -1.1104 6.45173 10.6979 12.2993
232 1 -1.1104 6.63203 10.8297 9.57625
182 2 2.2208 13.5841 3.96488 10.8766
9316 2 2.2208 -0.332027 12.148 -0.298485
9036 2 2.2208 13.6287 9.57717 10.9523
194 2 2.2208 10.772 3.83703 8.11423
211 1 -1.1104 6.36898 8.01344 12.2937
88 1 -1.1104 12.0143 10.6609 6.85923
105 1 -1.1104 9.43265 7.98691 6.80351
231 2 2.2208 13.6084 6.59757 7.99395
104 1 -1.1104 12.2299 5.18734 6.58284
235 1 -1.1104 9.40346 10.7634 9.48947
236 1 -1.1104 9.51331 5.36429 9.40781
237 1 -1.1104 9.27671 10.8313 12.322
238 1 -1.1104 9.37366 5.29792 12.4233
239 2 2.2208 8.02049 9.32904 10.9674
240 1 -1.1104 9.4093 8.12192 9.71698
241 2 2.2208 7.97945 12.1543 8.10662
242 2 2.2208 7.86914 6.49201 8.09286
243 2 2.2208 10.8376 6.70826 10.9489
244 2 2.2208 10.7578 12.1711 10.9121
245 1 -1.1104 12.1281 8.00594 12.4194
246 1 -1.1104 12.2053 7.9624 9.65324
247 1 -1.1104 12.1331 5.11408 12.2646
248 1 -1.1104 12.1214 10.8969 12.4448
249 2 2.2208 10.8093 9.40257 8.35358
250 1 -1.1104 12.1726 5.19799 9.34649
251 1 -1.1104 12.2123 10.7975 9.52053
252 1 -1.1104 9.26696 8.02723 12.4403
289 2 2.2208 8.00519 20.6949 11.0064
229 1 -1.1104 6.63576 19.4259 9.31176
128 1 -1.1104 3.64666 16.3516 6.88591
45 1 -1.1104 6.59212 16.3885 12.2882
111 1 -1.1104 3.63299 19.1118 6.78104
110 1 -1.1104 6.59563 13.7005 6.73111
219 1 -1.1104 6.60636 13.7376 9.49843
158 1 -1.1104 6.55012 13.4412 12.2386
121 1 -1.1104 1.06884 16.9053 6.64814
259 1 -1.1104 0.992808 16.3614 9.5033
253 1 -1.1104 3.55757 18.9828 12.2456
254 1 -1.1104 3.67482 13.6202 12.3089
255 1 -1.1104 3.99781 19.2084 9.50201
256 1 -1.1104 1.18016 19.0523 9.59898
257 1 -1.1104 0.958307 13.5136 9.50044
258 2 2.2208 5.09072 20.5367 8.06155
260 2 2.2208 5.25715 15.038 8.18124
261 1 -1.1104 0.667126 19.4273 12.283
262 1 -1.1104 1.01501 13.6735 12.4017
263 2 2.2208 5.19012 17.8797 11.1443
265 2 2.2208 2.5093 17.8145 8.264
266 1 -1.1104 3.9295 16.4055 9.63895
267 1 -1.1104 3.75648 13.6989 9.51388
268 1 -1.1104 1.06806 16.4518 12.2218
269 1 -1.1104 3.8238 16.3671 12.5272
270 2 2.2208 2.41334 20.4694 11.0046
271 2 2.2208 2.39863 15.0318 10.925
123 1 -1.1104 6.5605 16.471 6.56107
580 2 2.2208 5.15892 17.8147 -0.36893
286 1 -1.1104 9.40876 13.6866 12.2811
282 1 -1.1104 12.1413 16.4767 12.3395
290 1 -1.1104 9.23346 13.6845 9.57498
206 1 -1.1104 6.59923 16.4696 9.47582
292 1 -1.1104 9.36406 16.4808 9.47179
291 1 -1.1104 9.2876 16.4294 12.3895
285 1 -1.1104 12.1987 16.4222 9.42554
276 2 2.2208 10.6964 17.9047 10.8366
138 1 -1.1104 12.1621 16.6764 6.68375
205 1 -1.1104 6.77501 19.138 12.1368
230 2 2.2208 7.91682 15.0563 10.9706
142 1 -1.1104 12.1764 19.3953 6.71066
85 1 -1.1104 12.2088 13.7107 6.62137
8865 2 2.2208 13.5497 15.0477 5.15665
180 2 2.2208 -0.541433 -1.97562 7.98825
9235 2 2.2208 13.4792 3.86068 -0.418589
8816 2 2.2208 -0.420811 12.356 5.27374
398 2 2.2208 7.96749 6.58445 13.895
279 2 2.2208 13.6062 14.9903 10.8627
8958 2 2.2208 13.519 12.2389 7.95247
9035 2 2.2208 -0.397917 9.37911 8.01881
8783 2 2.2208 -0.553545 -1.83569 2.64155
532 2 2.2208 5.15452 6.65635 -0.333236
8702 2 2.2208 10.8938 -4.50696 -0.361138
571 2 2.2208 10.8517 12.3665 -0.186416
9404 2 2.2208 13.6398 1.03456 13.7871
370 2 2.2208 2.42032 12.1832 13.6319
446 2 2.2208 10.8219 15.0509 13.7778
9379 2 2.2208 13.5627 15.1172 -0.353956
509 2 2.2208 10.7676 0.989956 -0.446224
477 2 2.2208 2.28635 3.81189 -0.263154
570 2 2.2208 7.95044 9.40323 -0.354622
579 2 2.2208 2.28857 15.0148 -0.345079
369 2 2.2208 5.11713 9.38866 13.7127
343 2 2.2208 7.89344 0.912251 13.7782
344 2 2.2208 10.757 -1.89865 13.7123
445 2 2.2208 13.6059 17.9211 13.6354
604 2 2.2208 7.83709 20.7723 -0.113553
368 2 2.2208 2.2413 6.68003 13.6766
296 2 2.2208 5.05197 0.976265 16.4893
297 1 -1.1104 1.04798 -3.03689 18.096
298 1 -1.1104 1.00503 2.26199 17.8108
299 1 -1.1104 0.983263 -3.18369 15.2033
300 1 -1.1104 0.862392 2.47409 14.9751
301 1 -1.1104 0.793915 -0.463292 17.9373
302 2 2.2208 5.15778 -1.73655 19.4857
304 1 -1.1104 0.69254 -0.339253 14.8778
305 1 -1.1104 3.81572 -3.23294 18.098
306 1 -1.1104 3.62285 2.51029 17.8257
307 2 2.2208 2.32551 0.951201 19.2432
308 1 -1.1104 3.80085 -3.59391 15.357
309 1 -1.1104 3.73108 2.61533 14.9583
310 2 2.2208 2.39354 -1.75573 16.5416
312 1 -1.1104 3.64471 -0.434887 17.9627
313 1 -1.1104 3.50973 -0.243069 15.1089
311 2 2.2208 2.23538 3.77437 16.5028
303 2 2.2208 5.07882 3.79505 19.3747
636 2 2.2208 13.632 12.2902 13.7633
318 1 -1.1104 6.55275 -3.16983 20.4691
319 1 -1.1104 6.48904 2.37778 18.05
8675 2 2.2208 5.11167 -4.64415 22.2037
320 1 -1.1104 6.63374 -0.190439 15.2003
9376 2 2.2208 13.6487 15.2135 22.2051
454 1 -1.1104 3.78093 -0.267815 20.779
448 1 -1.1104 0.842544 -3.2674 20.8694
453 1 -1.1104 3.6841 2.52286 20.6813
8527 2 2.2208 7.95908 -4.7522 19.2998
9066 2 2.2208 13.5874 -1.70359 16.3873
323 1 -1.1104 6.63586 2.5895 15.1418
8507 1 -1.1104 6.52387 -3.24962 17.5703
322 1 -1.1104 6.40874 -0.353481 18.1085
324 2 2.2208 10.6981 1.03703 16.5935
325 1 -1.1104 12.1514 -3.20639 14.9998
326 1 -1.1104 12.2316 2.40799 17.9223
328 1 -1.1104 12.1258 2.43771 15.2732
329 1 -1.1104 12.1386 -0.50746 17.9408
330 2 2.2208 10.7982 -1.87084 19.4288
332 1 -1.1104 12.1939 -0.425082 15.0544
333 1 -1.1104 9.38653 -3.22463 17.9771
334 1 -1.1104 9.3777 2.62672 18.0052
335 2 2.2208 7.90485 1.09603 19.4918
336 1 -1.1104 8.99947 -3.30508 15.0672
337 1 -1.1104 9.3037 2.34223 15.0891
338 2 2.2208 7.85234 -1.67856 16.5685
340 1 -1.1104 9.33548 -0.276551 17.8497
341 1 -1.1104 9.36602 -0.520052 15.0669
8709 1 -1.1104 12.0625 -3.21736 17.9618
331 2 2.2208 10.6893 3.90523 19.4435
339 2 2.2208 7.91373 3.80282 16.5883
9113 2 2.2208 13.4515 9.31277 16.5417
9114 2 2.2208 13.5333 6.47365 19.3273
485 1 -1.1104 9.25853 2.41158 20.7211
482 1 -1.1104 12.1511 2.49293 20.7146
418 2 2.2208 5.09595 15.0743 13.7882
9384 2 2.2208 -0.480303 15.2039 24.7922
9059 2 2.2208 13.5325 0.834841 19.326
9055 2 2.2208 13.5102 3.86259 16.557
9203 2 2.2208 -0.431083 14.9802 13.7643
479 1 -1.1104 6.53708 2.39569 20.944
486 1 -1.1104 9.36759 -0.34474 20.6983
625 1 -1.1104 12.1909 16.5429 26.4895
419 2 2.2208 13.5251 20.5175 16.5471
476 2 2.2208 2.30783 -1.75643 27.6461
626 1 -1.1104 9.45491 13.7738 23.5639
346 2 2.2208 5.16118 6.75179 16.562
347 2 2.2208 5.19235 12.2191 16.3433
348 1 -1.1104 0.856127 8.01341 18.1112
349 1 -1.1104 0.865531 8.15666 15.2407
351 1 -1.1104 0.927973 5.32497 17.9346
352 1 -1.1104 0.995698 10.8455 18.0712
353 2 2.2208 5.2741 9.52772 19.2271
354 1 -1.1104 0.991754 5.31249 15.1182
356 1 -1.1104 0.944464 10.9031 15.0222
357 1 -1.1104 3.83582 8.04101 17.9501
358 2 2.2208 2.27312 6.68089 19.3964
359 2 2.2208 2.35658 12.2741 19.2455
360 1 -1.1104 3.66114 8.15351 15.1015
362 2 2.2208 2.46367 9.6155 16.5278
363 1 -1.1104 3.78451 5.20292 18.3339
364 1 -1.1104 3.95978 10.9306 17.7456
365 1 -1.1104 3.73066 5.32583 15.1284
367 1 -1.1104 3.7634 10.8686 15.0158
355 1 -1.1104 0.828677 5.17273 20.6077
513 1 -1.1104 0.983512 10.6404 20.8732
373 1 -1.1104 6.66629 8.12638 15.2372
361 1 -1.1104 3.77686 8.18036 20.5886
376 1 -1.1104 6.47998 5.37605 15.1572
9273 2 2.2208 13.5206 6.65599 25.0037
374 1 -1.1104 6.42358 5.17884 18.0031
377 1 -1.1104 6.58335 10.8588 15.105
538 1 -1.1104 6.54283 10.8493 20.7564
606 2 2.2208 10.9534 17.7254 22.2259
632 2 2.2208 8.10028 14.9359 22.2041
8526 2 2.2208 10.8443 -4.55653 16.4054
372 1 -1.1104 6.64931 7.99434 18.1179
375 1 -1.1104 6.69638 10.891 17.7712
572 2 2.2208 13.518 12.3536 25.0241
378 2 2.2208 10.6709 6.52008 16.6682
379 2 2.2208 10.8433 12.1441 16.5537
380 1 -1.1104 12.1117 7.85016 18.2185
381 1 -1.1104 12.0831 8.02193 15.309
382 1 -1.1104 12.0331 5.14917 17.9282
383 1 -1.1104 12.2011 10.6165 18.0675
384 2 2.2208 10.7619 9.43149 19.4384
385 1 -1.1104 12.0851 5.27333 15.1767
386 1 -1.1104 12.1496 10.7755 15.2963
387 1 -1.1104 9.40563 8.10457 18.0484
388 2 2.2208 7.96153 6.68603 19.4358
389 2 2.2208 7.9922 12.2159 19.2427
390 1 -1.1104 9.40673 7.98959 15.1963
391 2 2.2208 8.12154 9.46536 16.5564
392 1 -1.1104 9.18119 5.21015 17.9491
393 1 -1.1104 9.47176 10.7983 17.993
394 1 -1.1104 9.30502 5.17919 15.3155
395 1 -1.1104 9.39713 10.8452 15.1257
544 1 -1.1104 9.44709 10.9965 20.6846
9115 2 2.2208 13.6129 12.1643 19.3342
542 1 -1.1104 9.47726 8.12943 20.8314
537 1 -1.1104 6.48876 5.45578 20.7172
624 2 2.2208 10.6956 20.7195 25.0693
541 1 -1.1104 12.1104 10.7671 20.8517
396 2 2.2208 7.90406 12.1686 13.6105
607 1 -1.1104 12.191 16.4125 23.8432
399 2 2.2208 5.11886 17.9208 16.5266
400 1 -1.1104 1.05361 13.5523 17.7473
401 1 -1.1104 0.882376 19.1024 17.8241
402 1 -1.1104 1.07746 13.6732 15.1136
403 1 -1.1104 0.920123 19.2575 14.9742
404 1 -1.1104 3.34498 16.5106 17.9963
405 2 2.2208 5.19326 15.0353 19.3349
406 2 2.2208 5.16461 20.6631 19.3776
407 1 -1.1104 0.934058 16.304 15.3626
408 1 -1.1104 3.87361 13.6226 17.7664
410 2 2.2208 2.49276 17.9092 19.5601
411 1 -1.1104 3.84357 13.5742 14.9772
412 1 -1.1104 3.55628 19.0199 15.3717
413 2 2.2208 2.38899 14.893 16.3501
414 2 2.2208 2.30516 20.572 16.5683
415 1 -1.1104 3.72357 19.3104 18.2145
416 1 -1.1104 3.6739 16.2849 15.2468
424 1 -1.1104 6.4888 16.5954 17.81
421 1 -1.1104 6.57486 19.4172 18.012
425 1 -1.1104 6.44276 16.4479 14.9963
576 1 -1.1104 3.88006 13.9055 20.6752
605 1 -1.1104 9.35403 16.4138 26.359
422 1 -1.1104 6.56627 13.8074 15.209
575 1 -1.1104 1.02515 16.6181 20.7429
417 2 2.2208 2.45124 17.8279 13.8613
9169 2 2.2208 13.5866 14.9699 16.5356
423 1 -1.1104 6.72302 19.2945 15.2314
420 1 -1.1104 6.67091 13.6374 18.0275
397 2 2.2208 10.6538 9.4112 13.7954
426 2 2.2208 10.9726 17.9698 16.5567
427 1 -1.1104 12.0898 13.5795 17.9366
428 1 -1.1104 12.2158 19.1965 17.9828
429 1 -1.1104 12.2414 13.6181 15.0239
430 1 -1.1104 12.2942 19.1565 15.1115
431 1 -1.1104 12.1928 16.3794 18.1322
432 2 2.2208 10.7173 15.0371 19.3077
433 2 2.2208 10.8583 20.6195 19.3384
434 1 -1.1104 12.2653 16.3893 15.1085
435 1 -1.1104 9.40664 13.6587 17.7997
436 1 -1.1104 9.32268 19.3086 17.9582
437 2 2.2208 8.11309 17.9045 19.4511
438 1 -1.1104 9.48657 13.6546 15.0732
439 1 -1.1104 9.53695 19.3696 15.0268
440 2 2.2208 7.98898 15.0163 16.4308
442 1 -1.1104 9.39848 16.5745 18.0595
443 1 -1.1104 9.41091 16.589 15.216
441 2 2.2208 7.9816 20.5829 16.644
613 1 -1.1104 12.1425 16.248 20.835
601 2 2.2208 13.6386 20.4266 22.2539
444 2 2.2208 10.8913 20.7588 13.5253
616 1 -1.1104 9.56785 16.501 20.8133
614 1 -1.1104 9.43491 13.7004 20.7188
615 1 -1.1104 9.45539 19.2701 20.7388
611 1 -1.1104 12.1701 13.5388 20.5481
451 1 -1.1104 1.08522 -0.389702 20.8462
449 1 -1.1104 0.92646 2.41212 20.5282
8501 2 2.2208 5.18296 -4.83845 16.6226
447 2 2.2208 7.92785 17.9639 13.6886
452 1 -1.1104 3.70892 -3.1036 20.8721
8686 1 -1.1104 0.965842 -3.09175 23.7138
455 2 2.2208 5.20616 1.00676 22.2535
456 1 -1.1104 0.874766 -3.24254 26.5363
457 1 -1.1104 1.25414 2.39702 23.5589
459 1 -1.1104 0.838229 2.40262 26.4265
461 1 -1.1104 0.741268 -0.39213 23.6709
463 2 2.2208 5.1107 -1.86199 25.0379
465 1 -1.1104 0.935163 -0.445356 26.2867
466 1 -1.1104 3.82195 -3.12984 23.5922
467 1 -1.1104 3.91618 3.02344 23.3974
468 2 2.2208 2.31326 1.08237 25.0047
469 1 -1.1104 3.70619 -3.18092 26.3132
470 1 -1.1104 3.65019 2.48456 26.2889
471 2 2.2208 2.41206 -1.75757 22.1459
473 1 -1.1104 3.6695 -0.160539 23.585
474 1 -1.1104 3.73612 -0.300781 26.3786
464 2 2.2208 5.20423 3.74612 25.069
472 2 2.2208 2.3063 3.76422 21.9052
450 1 -1.1104 6.43567 -3.24428 23.4769
489 1 -1.1104 6.57157 -0.163179 26.3788
480 1 -1.1104 6.58054 -0.388564 20.8926
490 1 -1.1104 6.5284 2.47334 26.513
462 1 -1.1104 6.59246 -0.441592 23.68
9377 2 2.2208 13.6523 17.9395 24.9275
481 1 -1.1104 12.1641 -0.367657 20.7438
8713 1 -1.1104 12.1805 -3.17547 20.774
638 2 2.2208 13.5805 0.954725 24.8545
9227 2 2.2208 13.4152 3.80891 22.1463
488 1 -1.1104 6.48204 2.47315 23.6868
9304 2 2.2208 13.4902 9.46757 22.2938
484 1 -1.1104 9.30673 -3.31153 20.6978
9239 2 2.2208 13.6305 -1.94809 22.1243
487 1 -1.1104 6.70485 -2.98028 26.1804
8716 1 -1.1104 12.2813 -3.21062 26.369
483 1 -1.1104 12.0238 -0.296452 23.5665
491 2 2.2208 10.7679 1.0151 22.0739
492 1 -1.1104 12.3405 -3.16588 23.6149
494 1 -1.1104 12.1517 -0.360889 26.2425
496 1 -1.1104 12.1654 2.36467 23.5223
497 2 2.2208 10.7607 -1.86802 24.9627
499 1 -1.1104 12.103 2.35495 26.2862
500 1 -1.1104 9.3647 -3.1102 23.4891
501 1 -1.1104 9.26471 2.51308 23.5318
502 2 2.2208 8.03857 1.09535 25.03
503 1 -1.1104 9.32745 -3.26147 26.1936
504 1 -1.1104 9.32176 2.66753 26.4247
505 2 2.2208 7.93948 -1.84873 22.1223
507 1 -1.1104 9.29492 -0.241073 23.4168
508 1 -1.1104 9.27158 -0.471769 26.2673
498 2 2.2208 10.7039 3.80185 25.0503
506 2 2.2208 7.96933 3.94855 22.151
510 2 2.2208 7.8848 -1.78638 27.7701
619 2 2.2208 7.98087 20.6863 22.195
612 1 -1.1104 12.2353 19.3626 20.6942
514 1 -1.1104 3.82446 10.9872 20.6142
622 1 -1.1104 13.6613 17.8984 22.3021
9333 1 -1.1104 0.690527 8.07403 26.3218
350 1 -1.1104 1.11849 7.84281 20.9792
366 1 -1.1104 3.61957 5.3769 21.2141
515 2 2.2208 5.20012 6.93751 22.0722
517 1 -1.1104 1.02966 10.4422 23.3983
519 1 -1.1104 0.641851 5.10071 23.2894
521 2 2.2208 5.18096 9.44309 25.1114
522 1 -1.1104 0.822504 5.04679 26.4283
523 1 -1.1104 0.975307 10.8807 26.3479
524 1 -1.1104 3.84345 11.0008 23.4996
525 2 2.2208 2.2781 12.2901 24.8005
526 1 -1.1104 3.92642 8.27433 26.5395
527 2 2.2208 2.6071 9.55336 22.0531
528 1 -1.1104 3.7157 8.0892 23.4089
529 1 -1.1104 3.88294 10.9464 26.3597
530 1 -1.1104 3.83856 5.16051 26.488
547 1 -1.1104 6.32905 5.45896 23.6149
516 2 2.2208 5.12686 12.2886 22.1697
550 1 -1.1104 6.64566 10.8453 26.3554
546 1 -1.1104 6.63663 8.01211 26.3972
618 1 -1.1104 12.1849 19.574 23.6506
633 1 -1.1104 6.61729 16.4117 26.2347
536 1 -1.1104 6.61263 8.22659 20.7718
315 2 2.2208 2.28215 0.942193 13.6239
628 2 2.2208 8.00201 17.7865 24.8403
564 1 -1.1104 12.1284 13.7166 23.6294
548 1 -1.1104 6.54673 10.8906 23.5882
539 1 -1.1104 12.2182 8.01545 20.9296
540 1 -1.1104 11.89 5.26096 20.7887
543 1 -1.1104 9.23925 5.38137 20.8189
460 1 -1.1104 6.44917 5.25497 26.4573
545 1 -1.1104 6.70709 8.24847 23.4477
495 1 -1.1104 12.134 5.1999 26.2693
493 1 -1.1104 11.9553 5.15427 23.5911
551 1 -1.1104 9.36384 10.9573 26.4289
552 1 -1.1104 9.26717 5.27927 26.3951
553 1 -1.1104 9.31683 10.945 23.5716
554 1 -1.1104 9.21352 5.51543 23.5812
555 2 2.2208 7.94908 9.55304 22.2004
556 1 -1.1104 9.35935 8.05792 26.3748
557 2 2.2208 7.9919 12.2371 25.0119
558 2 2.2208 7.8847 6.57077 24.9803
559 2 2.2208 10.6347 6.70832 22.1487
560 2 2.2208 10.8643 12.2263 22.0914
561 1 -1.1104 12.0647 10.9301 23.6763
562 1 -1.1104 12.3241 10.9423 26.3702
563 1 -1.1104 12.2588 7.93835 23.6881
565 2 2.2208 10.7436 9.4979 25.0771
566 1 -1.1104 12.1978 8.04645 26.5114
568 1 -1.1104 9.4363 8.24127 23.5459
621 1 -1.1104 12.1381 19.186 26.4284
342 1 -1.1104 6.52286 16.4686 23.4831
609 1 -1.1104 6.61984 19.2031 20.7995
631 1 -1.1104 9.20337 19.4993 26.4519
9381 2 2.2208 -0.309319 20.6217 24.985
574 1 -1.1104 0.876489 19.2697 20.6506
577 1 -1.1104 3.7557 19.5573 20.8038
578 1 -1.1104 3.79618 16.6854 20.8697
573 1 -1.1104 1.19349 13.324 20.9429
600 1 -1.1104 3.76922 16.3989 23.6022
599 1 -1.1104 0.976776 19.2729 23.6186
598 1 -1.1104 3.60015 13.6136 26.2976
588 1 -1.1104 0.987113 16.3322 26.3446
583 2 2.2208 2.28638 20.8349 22.1421
520 1 -1.1104 0.904284 13.6435 23.5015
582 2 2.2208 2.29855 15.0181 22.1407
584 1 -1.1104 3.73265 19.2735 23.4536
586 1 -1.1104 3.67678 13.6465 23.4287
587 1 -1.1104 1.03003 19.1938 26.4542
589 1 -1.1104 0.612003 13.5671 26.3136
590 2 2.2208 5.05724 20.5548 24.9161
591 2 2.2208 5.23103 15.1384 24.8683
592 1 -1.1104 3.67438 19.3108 26.4509
593 1 -1.1104 1.02584 16.4805 23.5211
594 2 2.2208 5.17984 17.8866 22.2204
596 2 2.2208 2.38081 17.7757 25.0051
597 1 -1.1104 3.78666 16.5277 26.3805
608 1 -1.1104 6.69029 13.6597 20.8442
610 1 -1.1104 6.7798 16.4378 20.7001
634 1 -1.1104 6.3863 19.3035 23.4658
627 1 -1.1104 9.4966 19.2631 23.4324
635 1 -1.1104 6.69417 13.5499 23.6275
585 1 -1.1104 6.4442 13.6958 26.3364
630 1 -1.1104 9.50119 13.6347 26.4894
617 1 -1.1104 9.28512 16.4212 23.6007
567 1 -1.1104 12.0971 13.7256 26.3152
629 1 -1.1104 6.61468 19.1342 26.3563
623 2 2.2208 10.7483 15.0467 25.0214
8503 2 2.2208 2.53356 -4.59663 13.8229
511 2 2.2208 7.85419 3.82687 27.8957
316 2 2.2208 5.06916 3.90897 13.764
371 2 2.2208 13.3982 6.66639 13.6866
345 2 2.2208 10.7128 3.69214 13.8754
640 2 2.2208 5.3255 23.5455 5.3179
641 2 2.2208 5.1729 29.1654 5.32944
643 1 -1.1104 1.10034 24.7646 0.996109
645 2 2.2208 5.24688 26.459 2.5463
646 1 -1.1104 0.869792 24.9046 3.77266
648 1 -1.1104 3.67608 27.6904 1.13294
649 2 2.2208 2.42032 23.5536 2.46115
650 2 2.2208 2.3017 29.2609 2.4327
651 1 -1.1104 0.794185 27.6718 0.971255
652 2 2.2208 2.4747 26.3156 5.2178
653 1 -1.1104 4.35319 24.9762 1.14257
655 1 -1.1104 3.74031 25.022 3.77523
656 1 -1.1104 3.86939 27.8645 3.80912
661 1 -1.1104 1.11618 27.675 3.85114
112 1 -1.1104 1.0445 22.2128 3.88359
9452 1 -1.1104 1.01382 22.1145 1.08956
124 1 -1.1104 3.88155 22.2075 3.85457
120 1 -1.1104 3.67878 22.0807 1.0192
1137 2 2.2208 5.11187 29.0433 -0.193331
659 1 -1.1104 6.80897 27.5781 1.28821
668 1 -1.1104 6.73177 27.6958 4.06918
687 1 -1.1104 6.53796 22.0128 6.67101
264 1 -1.1104 3.93762 22.0265 6.57325
663 1 -1.1104 1.00941 24.9143 6.59714
666 1 -1.1104 1.10002 22.1377 6.5784
665 1 -1.1104 3.77465 25.0096 6.61753
807 1 -1.1104 0.871381 27.7629 6.72335
1174 2 2.2208 13.4765 26.3754 -0.226451
658 1 -1.1104 6.6402 24.9282 3.84572
134 1 -1.1104 6.46083 22.3822 1.05938
669 1 -1.1104 6.7909 22.1691 3.9463
1173 2 2.2208 10.8022 23.491 -0.0743473
1158 1 -1.1104 12.2084 24.8605 1.3461
670 2 2.2208 10.8348 23.4615 5.43735
671 2 2.2208 10.8528 29.206 5.31586
672 1 -1.1104 11.9054 27.6388 1.1661
673 1 -1.1104 12.194 22.1441 1.20508
675 2 2.2208 10.837 26.2911 2.67063
676 1 -1.1104 12.2336 27.8944 3.90748
678 1 -1.1104 9.35552 24.9808 1.2031
679 2 2.2208 8.10702 23.6146 2.58939
680 2 2.2208 8.02765 29.1105 2.60074
681 1 -1.1104 9.38823 24.7399 4.06683
682 2 2.2208 8.10882 26.348 5.45443
683 1 -1.1104 9.43739 22.0905 1.21584
685 1 -1.1104 9.59008 22.2079 3.95586
686 1 -1.1104 9.54374 27.6088 3.78758
140 1 -1.1104 12.2189 24.9408 4.06045
141 1 -1.1104 12.2645 22.1155 4.11013
689 1 -1.1104 12.2762 27.7068 6.74222
747 2 2.2208 -0.329484 40.3288 5.27886
694 1 -1.1104 9.40811 27.7491 6.61242
10015 2 2.2208 13.6702 43.18 -0.252514
1244 2 2.2208 7.9726 37.4758 -0.402779
903 1 -1.1104 6.76055 47.3456 9.53657
664 1 -1.1104 0.811875 30.6569 3.9562
642 1 -1.1104 1.08043 30.6025 1.07739
647 1 -1.1104 3.67585 33.3972 1.1354
644 1 -1.1104 0.931002 33.5932 1.14205
654 1 -1.1104 3.69878 30.562 1.0119
695 2 2.2208 5.17603 34.7193 5.27366
697 1 -1.1104 3.78016 33.3844 3.74691
698 1 -1.1104 1.02597 36.218 0.694001
699 2 2.2208 5.13717 32.0283 2.32346
700 2 2.2208 5.1298 37.4661 2.58045
704 1 -1.1104 3.93501 36.2313 1.22912
705 2 2.2208 2.37148 34.7446 2.44087
706 1 -1.1104 3.65547 30.5998 4.0238
707 1 -1.1104 3.73231 36.1776 3.89507
708 2 2.2208 2.26142 32.0508 5.34358
709 2 2.2208 2.36884 37.7144 5.26079
9511 1 -1.1104 1.10628 36.2029 3.79763
713 1 -1.1104 0.762403 33.3369 3.90266
660 1 -1.1104 6.69015 30.5916 3.86597
1209 1 -1.1104 6.53244 33.2861 0.915249
710 1 -1.1104 6.5311 36.0178 0.970518
1203 2 2.2208 2.60225 37.587 -0.207944
702 1 -1.1104 6.63738 36.121 3.91843
1205 2 2.2208 5.22574 34.6862 -0.544606
849 2 2.2208 13.7318 29.2335 8.01509
1491 1 -1.1104 1.02609 47.3354 12.2833
711 1 -1.1104 6.41001 33.342 3.74205
730 1 -1.1104 6.50258 30.482 1.17277
684 1 -1.1104 9.45698 29.9646 0.941172
674 1 -1.1104 12.328 30.6313 1.21203
677 1 -1.1104 12.2879 30.536 4.00775
722 1 -1.1104 9.3911 35.9346 1.13108
723 2 2.2208 10.5911 34.7818 5.2358
725 1 -1.1104 12.2109 33.2907 1.08621
727 2 2.2208 10.7814 31.8874 2.57208
728 2 2.2208 10.8351 37.4471 2.29168
729 1 -1.1104 12.2041 35.9229 3.95057
731 1 -1.1104 12.2231 35.9767 0.970519
732 2 2.2208 7.92693 34.6804 2.38197
733 1 -1.1104 9.4034 30.4462 3.83292
734 1 -1.1104 9.45943 36.2574 3.87102
735 2 2.2208 7.8997 31.9993 5.33684
736 2 2.2208 8.11596 37.6401 5.2292
737 1 -1.1104 9.44052 32.9911 1.12847
738 1 -1.1104 9.33651 33.274 3.8706
740 1 -1.1104 12.0671 33.2383 3.8753
1246 2 2.2208 10.7787 34.6665 -0.331321
9491 2 2.2208 13.3625 34.6046 2.44742