ITEM: TIMESTEP
100000
ITEM: NUMBER OF ATOMS
17640
ITEM: BOX BOUNDS pp pp pp
-3.8125624213597314e-01 2.7721256242135805e+01
-4.4836229922157997e+00 3.3256362299222178e+02
-3.7908326810188098e-01 2.7719083268101109e+01
ITEM: ATOMS id type q x y z
1 2 2.2208 5.21086 1.04226 5.1938
3 1 -1.1104 1.09838 -0.454917 3.90301
6 2 2.2208 5.36639 -1.68209 2.51706
9 1 -1.1104 3.79833 -0.637379 0.894486
11 2 2.2208 2.52872 0.905025 2.46504
12 1 -1.1104 3.81697 -3.27277 3.43976
14 2 2.2208 2.37438 -1.87294 5.17131
16 1 -1.1104 3.95383 2.12951 1.07178
17 1 -1.1104 3.75923 2.61611 3.74696
22 1 -1.1104 0.991354 2.27705 3.81774
8156 1 -1.1104 1.09394 -0.197528 1.04901
8163 1 -1.1104 0.98612 -3.22892 3.82829
8160 1 -1.1104 3.9042 -0.329089 3.71262
8692 1 -1.1104 1.21132 -3.06879 1.11428
4 1 -1.1104 1.06639 2.38843 0.926746
23 1 -1.1104 3.79522 -3.12187 6.44935
7 2 2.2208 5.26314 3.81488 2.38039
15 2 2.2208 2.30943 3.82756 5.15158
25 1 -1.1104 3.90633 -0.311146 6.46194
8320 1 -1.1104 6.7346 -0.409816 6.53753
20 1 -1.1104 6.6331 2.50746 6.54594
278 1 -1.1104 12.224 19.1504 12.2556
8361 2 2.2208 8.17417 -4.47937 8.08329
18 1 -1.1104 0.994363 -0.311755 6.62567
46 1 -1.1104 6.62712 2.39024 3.84795
8186 1 -1.1104 6.84196 -3.13394 1.32388
26 1 -1.1104 6.64381 2.5445 0.991412
8172 1 -1.1104 6.64537 -0.325702 1.05897
8187 1 -1.1104 6.60747 -0.271312 3.8225
8211 1 -1.1104 6.55143 -3.10455 3.9725
8201 1 -1.1104 9.7106 -3.28547 0.993786
28 1 -1.1104 9.43117 2.34816 3.79544
29 2 2.2208 10.7698 1.00929 5.13498
31 1 -1.1104 12.1334 2.54018 0.962206
32 1 -1.1104 12.3784 -0.228603 1.11804
33 2 2.2208 11.0255 -1.75513 2.30515
36 1 -1.1104 9.49681 -0.549549 1.05111
38 2 2.2208 8.04119 0.995988 2.35821
39 1 -1.1104 9.49299 -3.17225 3.77722
40 1 -1.1104 12.4029 2.61888 3.74048
41 2 2.2208 8.02331 -1.82774 5.24399
43 1 -1.1104 9.34974 2.35253 1.03772
44 1 -1.1104 9.38756 -0.423957 3.85011
8194 1 -1.1104 12.2314 -3.17599 3.66866
8197 1 -1.1104 12.3674 -3.06391 0.762027
8200 1 -1.1104 12.1944 -0.287912 3.82373
42 2 2.2208 8.01959 3.77344 5.20354
34 2 2.2208 10.9293 3.89293 2.44463
47 1 -1.1104 12.1688 -0.301607 6.61868
52 1 -1.1104 9.39427 -0.470858 6.53274
8360 2 2.2208 10.8496 -4.41504 10.8408
282 1 -1.1104 12.3959 16.2718 12.3542
13 1 -1.1104 1.02142 5.20653 3.89479
2 1 -1.1104 1.05603 5.38873 1.15304
8 1 -1.1104 1.13294 8.1352 3.95806
10 1 -1.1104 3.93854 5.21122 1.03106
53 2 2.2208 5.3506 6.53234 5.22176
54 2 2.2208 5.26843 12.2417 5.21165
56 1 -1.1104 1.18549 8.08613 1.08264
59 2 2.2208 5.28342 9.36985 2.40172
60 1 -1.1104 1.09434 10.8981 3.95099
62 1 -1.1104 3.87111 10.8507 1.1371
63 2 2.2208 2.58128 6.59092 2.4686
64 2 2.2208 2.47237 12.2218 2.51305
65 1 -1.1104 3.95871 7.9974 3.85195
66 2 2.2208 2.46498 9.40256 5.32526
67 1 -1.1104 4.03286 7.89929 1.02854
70 1 -1.1104 3.90668 5.17415 3.83996
71 1 -1.1104 3.84509 10.8643 3.92673
518 1 -1.1104 1.0115 10.8336 1.2306
418 2 2.2208 5.23863 14.7979 13.5981
9316 2 2.2208 -0.336033 12.1731 -0.173043
8337 2 2.2208 2.63828 -4.43345 8.14913
580 2 2.2208 5.29098 17.6641 -0.364392
549 1 -1.1104 6.66274 8.00568 1.00048
92 1 -1.1104 6.65527 10.8108 3.86917
102 1 -1.1104 6.74244 7.94896 6.47043
8336 2 2.2208 5.3383 -4.47719 10.7058
74 1 -1.1104 0.922619 7.91098 6.57415
603 2 2.2208 10.7753 17.7973 -0.249524
570 2 2.2208 8.00563 9.40927 -0.299407
5 1 -1.1104 6.65275 5.21566 0.960412
73 1 -1.1104 6.74842 7.99884 3.71903
78 1 -1.1104 6.75792 5.11898 3.84765
77 1 -1.1104 6.67951 10.8004 1.11874
8739 1 -1.1104 12.3649 5.23453 1.05226
27 1 -1.1104 9.43899 10.7272 3.75255
37 1 -1.1104 9.52057 5.30628 1.0191
83 2 2.2208 10.833 6.51125 5.26421
84 2 2.2208 10.6796 12.0981 5.14538
86 1 -1.1104 9.61231 7.89935 1.06815
89 2 2.2208 10.8649 9.39234 2.49684
93 2 2.2208 8.18935 6.52803 2.33057
94 2 2.2208 7.975 12.3208 2.31788
95 1 -1.1104 12.3878 7.90276 3.79809
96 2 2.2208 8.05951 9.29058 5.09587
97 1 -1.1104 9.51134 7.9049 3.99291
98 1 -1.1104 9.53579 10.7324 0.9416
100 1 -1.1104 9.44885 5.2162 3.88038
101 1 -1.1104 12.2251 10.8169 3.77184
8795 1 -1.1104 12.4365 10.855 0.989572
30 1 -1.1104 12.25 7.99832 1.05399
35 1 -1.1104 12.1632 5.27613 3.79343
99 1 -1.1104 9.29138 10.8737 6.57228
80 1 -1.1104 6.44526 10.9314 6.73465
21 1 -1.1104 6.69372 5.25392 6.5758
103 1 -1.1104 12.1251 7.95499 6.48194
105 1 -1.1104 9.3661 8.09537 6.6155
230 2 2.2208 8.07359 15.0524 10.8787
581 2 2.2208 2.39299 20.4596 -0.30801
604 2 2.2208 8.11812 20.667 -0.209129
445 2 2.2208 13.6193 17.7621 13.6125
531 1 -1.1104 3.74328 13.7296 1.06904
595 1 -1.1104 3.69284 19.2027 1.22134
55 1 -1.1104 0.86072 13.658 4.1088
57 1 -1.1104 1.09326 13.4421 1.29339
61 1 -1.1104 3.70671 16.5271 3.92302
68 1 -1.1104 3.64372 13.781 3.7327
107 2 2.2208 5.11833 17.8337 5.22419
108 1 -1.1104 0.963747 16.3993 0.942153
113 1 -1.1104 0.919272 19.1773 1.17568
115 2 2.2208 5.13555 15.0019 2.43148
116 2 2.2208 5.23719 20.5636 2.57209
117 1 -1.1104 0.991803 16.5114 3.69316
122 2 2.2208 2.31553 17.8436 2.47662
125 2 2.2208 2.39422 15.0964 5.39499
126 2 2.2208 2.42142 20.7157 5.26465
127 1 -1.1104 3.78042 16.3923 0.962221
129 1 -1.1104 3.6106 19.2897 3.92471
130 1 -1.1104 0.890853 19.3862 4.19662
205 1 -1.1104 6.83918 19.0587 12.0127
370 2 2.2208 2.32186 12.1488 13.6304
81 1 -1.1104 6.52756 13.6144 3.80235
119 1 -1.1104 3.99788 13.7229 6.52667
132 1 -1.1104 6.45867 19.22 6.57532
571 2 2.2208 11.0006 12.1988 -0.286883
85 1 -1.1104 12.354 13.6349 6.59758
9235 2 2.2208 13.6054 3.85666 -0.366319
133 1 -1.1104 6.50024 19.2828 3.90233
118 1 -1.1104 6.61639 16.4204 1.08311
82 1 -1.1104 6.5312 13.697 1.05881
135 1 -1.1104 6.55926 19.3077 1.06806
131 1 -1.1104 6.6575 16.4377 3.74703
620 1 -1.1104 12.2804 16.4117 1.09131
79 1 -1.1104 9.39204 13.6037 3.69688
87 1 -1.1104 12.2946 13.6064 1.06202
136 2 2.2208 10.8318 17.7577 5.25474
137 1 -1.1104 12.1373 19.0346 1.11177
91 1 -1.1104 12.1568 16.4124 3.90176
143 2 2.2208 10.8782 15.0225 2.35794
144 2 2.2208 10.8457 20.5103 2.46811
145 1 -1.1104 12.181 19.1325 3.76164
146 1 -1.1104 9.4368 13.6319 0.978123
148 1 -1.1104 9.29327 19.047 0.952045
150 2 2.2208 7.93656 17.6999 2.46575
151 1 -1.1104 12.289 13.563 3.84359
152 1 -1.1104 9.29084 19.2336 3.87197
153 2 2.2208 7.99527 14.8714 5.20189
154 2 2.2208 8.03877 20.5724 5.29856
155 1 -1.1104 9.41803 16.2934 0.918282
157 1 -1.1104 9.44823 16.3888 3.91765
156 1 -1.1104 9.35081 16.4378 6.61516
110 1 -1.1104 6.78327 13.5392 6.61769
123 1 -1.1104 6.66597 16.4319 6.6271
206 1 -1.1104 6.75225 16.2737 9.38662
179 2 2.2208 -0.26294 3.84944 8.09988
164 1 -1.1104 1.11463 2.56755 6.64234
24 1 -1.1104 3.87968 2.4923 6.46041
8783 2 2.2208 -0.295779 -1.6534 2.27265
8176 1 -1.1104 0.876204 -3.13591 6.6196
159 2 2.2208 5.15489 0.877583 10.8768
160 1 -1.1104 0.95366 -3.2318 12.3081
161 1 -1.1104 0.786427 2.49005 12.1832
163 1 -1.1104 1.10528 -3.14935 9.5017
165 1 -1.1104 0.812281 -0.507473 12.0861
166 2 2.2208 5.27488 -1.78909 7.90039
168 1 -1.1104 0.966323 -0.441156 9.38209
170 1 -1.1104 3.63346 -3.32445 12.0734
171 1 -1.1104 3.87595 2.31449 9.42037
172 2 2.2208 2.50871 1.02798 7.9712
173 1 -1.1104 4.0453 -3.19467 9.40254
174 1 -1.1104 1.04043 2.435 9.52727
175 2 2.2208 2.37257 -1.82907 10.8661
177 1 -1.1104 3.59807 -0.267398 12.0509
178 1 -1.1104 3.85282 -0.448464 9.17835
162 1 -1.1104 3.80553 2.43038 12.3567
176 2 2.2208 2.33232 3.77012 10.891
167 2 2.2208 5.12864 3.77245 7.96302
8357 1 -1.1104 6.72157 -3.14116 9.32432
321 1 -1.1104 6.56724 2.40849 12.2695
219 1 -1.1104 6.60815 13.5541 9.42697
8188 1 -1.1104 12.3399 -3.07697 6.56583
51 1 -1.1104 9.2987 2.39798 6.59608
183 1 -1.1104 6.58944 -3.06555 6.60598
48 1 -1.1104 12.1123 2.41126 6.54598
184 1 -1.1104 6.71503 -0.398431 9.36841
169 1 -1.1104 6.61346 2.53592 9.39542
8500 1 -1.1104 6.93287 -3.41057 12.0578
50 1 -1.1104 9.49793 -3.12644 6.60052
186 1 -1.1104 6.82317 -0.311788 11.9992
187 2 2.2208 10.8336 0.96068 10.8123
188 1 -1.1104 12.5448 -3.15912 12.3229
189 1 -1.1104 12.3134 2.42801 12.2736
190 1 -1.1104 12.3011 -2.98945 9.39914
191 1 -1.1104 12.2994 2.41001 9.40581
192 1 -1.1104 12.1889 -0.324646 12.0863
193 2 2.2208 10.8107 -1.70762 7.94325
195 1 -1.1104 12.2272 -0.31373 9.22461
196 1 -1.1104 9.79186 -3.27787 12.39
197 1 -1.1104 9.44784 2.53307 12.1525
198 2 2.2208 8.00318 1.08223 7.96578
199 1 -1.1104 9.35469 -3.00486 9.45289
200 1 -1.1104 9.50364 2.42636 9.48116
201 2 2.2208 7.94894 -1.72678 10.8542
203 1 -1.1104 9.45287 -0.385754 12.2457
204 1 -1.1104 9.51985 -0.333852 9.3707
194 2 2.2208 10.8381 3.6556 8.04069
202 2 2.2208 8.0005 3.81617 10.8153
293 1 -1.1104 9.43652 19.0779 9.41332
158 1 -1.1104 6.75108 13.5391 12.3123
9379 2 2.2208 13.6659 15.0895 -0.272091
149 1 -1.1104 9.26583 19.2043 6.75002
8903 2 2.2208 -0.295897 15.0438 2.40973
75 1 -1.1104 3.88977 8.07942 6.52945
72 1 -1.1104 1.17612 10.9058 6.68321
286 1 -1.1104 9.39856 13.6191 12.2007
69 1 -1.1104 3.93017 10.8587 6.70228
76 1 -1.1104 3.66321 5.29643 6.66313
19 1 -1.1104 0.84397 5.22536 6.58648
208 2 2.2208 5.315 6.57917 10.8641
209 2 2.2208 5.32594 12.0418 10.8545
210 1 -1.1104 1.03641 7.9718 12.28
212 1 -1.1104 1.00828 8.13861 9.35616
213 1 -1.1104 0.908464 5.05097 12.1326
214 1 -1.1104 1.04512 10.6692 12.2638
215 2 2.2208 5.36054 9.33336 7.99787
216 1 -1.1104 0.936988 5.23226 9.41336
217 1 -1.1104 1.08098 10.745 9.54571
220 1 -1.1104 3.71347 8.0987 12.1626
221 2 2.2208 2.40187 6.62844 8.00738
222 2 2.2208 2.58735 12.0411 8.07756
223 1 -1.1104 3.82921 8.00504 9.3737
224 2 2.2208 2.5017 9.38112 10.8196
225 1 -1.1104 3.82828 5.24052 12.2947
226 1 -1.1104 3.85748 10.7419 12.1998
227 1 -1.1104 3.70054 5.09948 9.39258
228 1 -1.1104 3.94364 10.7422 9.43438
211 1 -1.1104 6.55016 7.8177 12.4445
185 1 -1.1104 6.68858 5.27537 9.42708
232 1 -1.1104 6.7626 10.548 9.5686
106 1 -1.1104 9.54496 5.26466 6.6999
104 1 -1.1104 12.2395 5.15259 6.65413
88 1 -1.1104 12.1143 10.7837 6.57451
234 1 -1.1104 6.78099 10.7334 12.4556
233 1 -1.1104 6.70058 5.09362 12.1893
218 1 -1.1104 6.58669 7.96395 9.57044
235 1 -1.1104 9.51538 10.7286 9.31995
236 1 -1.1104 9.35846 5.2908 9.4154
237 1 -1.1104 9.62475 10.8941 12.1294
238 1 -1.1104 9.46158 5.40758 12.354
239 2 2.2208 8.13402 9.41352 10.9651
240 1 -1.1104 9.4177 8.09092 9.34256
241 2 2.2208 8.03439 12.2814 7.99397
242 2 2.2208 7.97853 6.67315 8.02256
243 2 2.2208 10.8232 6.6333 10.8803
244 2 2.2208 10.8977 12.1576 10.7429
245 1 -1.1104 12.2787 8.10879 12.3965
246 1 -1.1104 12.2648 8.01654 9.43628
247 1 -1.1104 12.1726 5.12245 12.3399
248 1 -1.1104 12.2877 10.8566 12.3763
249 2 2.2208 10.8114 9.35515 8.02566
250 1 -1.1104 12.1362 5.1374 9.5263
251 1 -1.1104 12.255 10.7186 9.44417
252 1 -1.1104 9.40457 7.93658 12.1962
275 2 2.2208 13.6259 17.7753 8.06944
273 2 2.2208 -0.339729 14.9136 8.11892
121 1 -1.1104 0.942842 16.6865 6.52181
142 1 -1.1104 12.1564 19.2823 6.52043
287 1 -1.1104 9.56193 19.2302 12.2609
128 1 -1.1104 3.84018 16.3983 6.74747
111 1 -1.1104 3.50806 19.1856 6.68785
58 1 -1.1104 1.01832 13.7817 6.75838
259 1 -1.1104 1.07536 16.3342 9.34085
253 1 -1.1104 3.71556 19.0114 12.0787
254 1 -1.1104 3.9535 13.638 12.1224
255 1 -1.1104 3.99382 19.1668 9.59019
256 1 -1.1104 1.25468 18.9704 9.59805
257 1 -1.1104 1.11508 13.4529 9.54197
258 2 2.2208 5.20492 20.5083 8.09847
260 2 2.2208 5.34756 15.0258 8.06142
261 1 -1.1104 0.966124 19.1145 12.4275
262 1 -1.1104 1.11953 13.559 12.3052
263 2 2.2208 5.29648 17.6795 10.8478
265 2 2.2208 2.4951 17.7026 8.27781
266 1 -1.1104 3.89189 16.3898 9.67986
267 1 -1.1104 3.89378 13.6821 9.29187
268 1 -1.1104 1.01 16.3026 12.3597
269 1 -1.1104 3.92898 16.2605 12.3437
270 2 2.2208 2.39538 20.3569 10.9289
271 2 2.2208 2.37361 14.8633 10.858
45 1 -1.1104 6.70565 16.3532 12.2526
291 1 -1.1104 9.48591 16.4281 12.2731
288 2 2.2208 8.0108 17.7631 8.10849
292 1 -1.1104 9.57947 16.302 9.48156
284 2 2.2208 10.9819 20.5153 7.93905
281 1 -1.1104 12.2587 19.2442 9.38174
229 1 -1.1104 6.6685 19.0912 9.32091
138 1 -1.1104 12.0871 16.6697 6.68861
147 1 -1.1104 9.49496 13.4713 6.61139
285 1 -1.1104 12.3501 16.4329 9.65631
276 2 2.2208 10.8494 17.7978 10.8143
277 1 -1.1104 12.3596 13.5423 12.1949
289 2 2.2208 8.00028 20.6447 10.8768
290 1 -1.1104 9.26146 13.6257 9.27185
283 2 2.2208 10.7807 14.9964 8.00631
280 1 -1.1104 12.1216 13.6089 9.29838
8815 2 2.2208 13.604 9.37026 5.23774
8784 2 2.2208 -0.342102 1.0782 5.33234
9031 2 2.2208 13.5293 -1.67562 5.12325
9274 2 2.2208 13.5579 9.36537 -0.390009
272 2 2.2208 -0.29714 17.6989 11.0096
182 2 2.2208 13.6033 3.85422 10.9213
231 2 2.2208 13.6027 6.63181 8.02993
8958 2 2.2208 13.5692 12.1418 7.93907
8865 2 2.2208 13.6397 14.8571 5.16621
9034 2 2.2208 -0.341223 6.56705 10.94
345 2 2.2208 10.8046 3.74899 13.6671
9036 2 2.2208 13.5556 9.34353 10.9088
9339 2 2.2208 -0.206602 6.64344 -0.289598
533 2 2.2208 2.49991 9.29453 -0.305377
417 2 2.2208 2.53309 17.7865 13.6498
444 2 2.2208 10.8319 20.5809 13.54
510 2 2.2208 8.05697 -1.98772 -0.352866
534 2 2.2208 5.09722 12.3514 -0.249792
579 2 2.2208 2.2813 14.9294 -0.305805
316 2 2.2208 5.19389 3.67085 13.6445
296 2 2.2208 5.1711 0.880217 16.4268
297 1 -1.1104 1.01072 -3.23815 17.864
298 1 -1.1104 1.00659 2.378 17.8108
299 1 -1.1104 0.918353 -3.21866 15.0445
300 1 -1.1104 1.03992 2.35502 15.0172
301 1 -1.1104 0.847786 -0.48189 17.8846
302 2 2.2208 5.2875 -1.80914 19.2307
304 1 -1.1104 0.923223 -0.355259 14.9359
305 1 -1.1104 3.78713 -3.12711 17.9027
306 1 -1.1104 3.67983 2.36728 17.9711
307 2 2.2208 2.37866 0.91215 19.1639
308 1 -1.1104 3.8447 -3.50859 15.1894
309 1 -1.1104 3.72765 2.349 15.1171
310 2 2.2208 2.43575 -1.88929 16.3904
312 1 -1.1104 3.804 -0.42637 17.9105
313 1 -1.1104 3.68696 -0.373213 15.2455
311 2 2.2208 2.42964 3.70926 16.4729
303 2 2.2208 5.33529 3.78157 19.3225
319 1 -1.1104 6.4219 2.20922 17.8596
448 1 -1.1104 0.927093 -3.06398 20.6546
622 1 -1.1104 13.6015 17.7335 22.2314
9378 2 2.2208 13.5426 20.6434 27.6895
605 1 -1.1104 9.35678 16.5212 26.3287
397 2 2.2208 10.8119 9.3853 13.6788
572 2 2.2208 13.5343 12.2928 24.9002
323 1 -1.1104 6.54765 2.36512 15.0486
9137 2 2.2208 -0.380442 9.32193 13.7982
8507 1 -1.1104 6.68472 -3.32046 17.5371
322 1 -1.1104 6.59506 -0.506484 17.8601
320 1 -1.1104 6.87361 -0.57058 15.0867
324 2 2.2208 10.8995 0.992582 16.4749
325 1 -1.1104 12.1367 -3.15969 15.0536
326 1 -1.1104 12.1021 2.4057 17.8574
328 1 -1.1104 12.1487 2.47393 15.0939
329 1 -1.1104 12.2749 -0.343721 17.822
330 2 2.2208 10.8857 -1.72254 19.3109
332 1 -1.1104 12.3019 -0.430298 15.018
333 1 -1.1104 9.50363 -3.11149 17.8035
334 1 -1.1104 9.20578 2.40465 17.8669
335 2 2.2208 7.84912 0.930721 19.226
336 1 -1.1104 9.14624 -3.06963 15.03
337 1 -1.1104 9.34716 2.41569 15.1084
338 2 2.2208 8.10161 -1.72515 16.5434
340 1 -1.1104 9.56763 -0.305718 18.039
341 1 -1.1104 9.64235 -0.275954 15.1285
8709 1 -1.1104 12.4232 -3.09922 17.8931
331 2 2.2208 10.6942 3.73676 19.2141
339 2 2.2208 7.98072 3.72139 16.3846
481 1 -1.1104 12.0882 -0.287922 20.6439
9114 2 2.2208 13.5855 6.59649 19.232
482 1 -1.1104 12.2041 2.36016 20.7749
632 2 2.2208 7.89743 15.051 22.0769
346 2 2.2208 5.17443 6.54726 16.545
347 2 2.2208 5.05398 11.9527 16.4223
348 1 -1.1104 1.03168 8.00163 17.9844
349 1 -1.1104 1.00032 7.85932 15.1654
351 1 -1.1104 1.2327 5.24287 17.9214
352 1 -1.1104 0.986295 10.8831 17.8309
353 2 2.2208 5.22875 9.37814 19.3414
354 1 -1.1104 1.04388 5.16644 14.9935
356 1 -1.1104 1.01111 10.8769 15.2029
357 1 -1.1104 3.80635 8.02821 17.8339
358 2 2.2208 2.5165 6.61526 19.3151
359 2 2.2208 2.34774 12.1777 19.3337
360 1 -1.1104 3.92198 7.90435 15.1346
362 2 2.2208 2.44449 9.34614 16.4437
363 1 -1.1104 3.97122 5.20323 17.9065
364 1 -1.1104 3.64566 10.6678 17.7424
365 1 -1.1104 3.69977 5.09957 15.0488
367 1 -1.1104 3.68583 10.6925 14.9487
376 1 -1.1104 6.51192 5.07814 15.0432
9113 2 2.2208 13.6154 9.31141 16.354
355 1 -1.1104 1.01916 5.21073 20.6291
514 1 -1.1104 3.85662 10.6997 20.5567
638 2 2.2208 13.6108 1.0072 24.9341
476 2 2.2208 2.31669 -1.63539 27.5668
373 1 -1.1104 6.7608 7.95508 14.9841
8700 2 2.2208 10.9255 -4.45282 21.9902
372 1 -1.1104 6.57157 7.88495 17.9134
375 1 -1.1104 6.59997 10.6643 17.8095
374 1 -1.1104 6.83253 4.97134 17.9394
377 1 -1.1104 6.46792 10.7724 15.1169
378 2 2.2208 10.8636 6.56863 16.4993
379 2 2.2208 10.6937 12.1208 16.4496
380 1 -1.1104 12.2048 7.92806 17.9768
381 1 -1.1104 12.1521 8.06844 15.2311
382 1 -1.1104 12.1942 5.15691 17.9308
383 1 -1.1104 12.2361 10.7077 17.8612
384 2 2.2208 10.7114 9.39922 19.2521
385 1 -1.1104 12.1942 5.2472 15.1424
386 1 -1.1104 12.2872 10.7914 15.0654
387 1 -1.1104 9.43386 7.97732 17.9601
388 2 2.2208 8.08767 6.54837 19.2497
389 2 2.2208 7.95364 12.0864 19.2956
390 1 -1.1104 9.49074 7.95942 14.9944
391 2 2.2208 8.08183 9.33805 16.4496
392 1 -1.1104 9.41694 5.16848 17.8903
393 1 -1.1104 9.31918 10.8168 17.7082
394 1 -1.1104 9.38192 5.11798 15.1315
395 1 -1.1104 9.30785 10.7918 15.0279
624 2 2.2208 10.9022 20.6336 24.9424
543 1 -1.1104 9.48278 5.17391 20.698
540 1 -1.1104 12.2141 5.23676 20.7051
539 1 -1.1104 12.0927 7.97291 20.8065
541 1 -1.1104 12.3281 10.8796 20.6928
477 2 2.2208 2.43429 3.79701 27.684
626 1 -1.1104 9.43681 13.6691 23.5741
9124 2 2.2208 -0.324338 12.3577 16.5626
399 2 2.2208 5.16163 17.8645 16.4865
400 1 -1.1104 1.17938 13.8332 17.7822
401 1 -1.1104 0.871338 18.8232 18.0574
402 1 -1.1104 0.982154 13.8366 15.0147
403 1 -1.1104 0.732512 19.5731 15.2212
404 1 -1.1104 3.56894 16.4697 17.7892
405 2 2.2208 5.16316 15.082 19.1984
406 2 2.2208 5.26913 20.4861 19.3904
407 1 -1.1104 1.12005 16.5997 15.0914
408 1 -1.1104 3.8401 13.4317 17.8887
410 2 2.2208 2.4993 17.8815 19.3821
411 1 -1.1104 3.82656 13.3283 14.9127
412 1 -1.1104 3.59803 18.985 15.1681
413 2 2.2208 2.51139 14.8144 16.3777
414 2 2.2208 2.53734 20.6677 16.2619
415 1 -1.1104 3.75664 19.3653 18.0487
416 1 -1.1104 3.84278 16.2517 14.9931
8502 2 2.2208 2.39931 -4.4591 19.3529
575 1 -1.1104 0.966905 16.4155 20.5934
576 1 -1.1104 3.76271 13.6343 20.6149
9404 2 2.2208 13.5747 1.03307 13.669
621 1 -1.1104 12.2464 19.0841 26.4741
424 1 -1.1104 6.53651 16.4626 17.8772
421 1 -1.1104 6.59766 19.2732 18.1007
425 1 -1.1104 6.67346 16.2161 15.0937
422 1 -1.1104 6.53236 13.3843 15.1844
420 1 -1.1104 6.65819 13.5868 18.0309
423 1 -1.1104 6.7711 18.909 15.4648
426 2 2.2208 10.8827 17.7622 16.4941
427 1 -1.1104 12.2368 13.5922 17.8997
428 1 -1.1104 12.4989 19.314 18.1041
429 1 -1.1104 12.2083 13.5355 15.0377
430 1 -1.1104 12.2538 19.1709 15.1749
431 1 -1.1104 12.2537 16.36 17.7681
432 2 2.2208 10.7802 14.8826 19.179
433 2 2.2208 11.0348 20.6388 19.2339
434 1 -1.1104 12.2595 16.4273 15.0173
435 1 -1.1104 9.37795 13.5141 17.9331
436 1 -1.1104 9.5686 19.1146 18.0162
437 2 2.2208 8.0883 17.7363 19.3653
438 1 -1.1104 9.33829 13.6334 15.1797
439 1 -1.1104 9.49968 19.0633 15.126
440 2 2.2208 7.97112 14.9393 16.5378
442 1 -1.1104 9.4423 16.3552 18.0434
443 1 -1.1104 9.36094 16.3889 15.1461
441 2 2.2208 8.10449 20.4207 16.563
616 1 -1.1104 9.21562 16.3306 20.746
612 1 -1.1104 12.2451 19.4255 20.695
567 1 -1.1104 12.1201 13.6643 26.3929
627 1 -1.1104 9.39341 19.3612 23.8447
9384 2 2.2208 -0.330284 15.0533 24.6765
614 1 -1.1104 9.53739 13.5746 20.731
613 1 -1.1104 12.0811 16.3484 20.5071
639 2 2.2208 -0.335271 1.11098 27.636
9115 2 2.2208 13.6457 12.0962 19.1959
449 1 -1.1104 0.967514 2.39349 20.5772
451 1 -1.1104 0.923544 -0.242225 20.7315
452 1 -1.1104 3.84346 -3.13318 20.6944
454 1 -1.1104 3.70339 -0.376861 20.6525
480 1 -1.1104 6.59992 -0.253959 20.6979
453 1 -1.1104 3.83178 2.49245 20.6366
8686 1 -1.1104 0.765458 -3.27315 23.4022
455 2 2.2208 5.16865 1.03598 22.0208
456 1 -1.1104 0.668284 -3.19111 26.4057
457 1 -1.1104 1.05501 2.42086 23.4148
459 1 -1.1104 1.01041 2.39745 26.3135
461 1 -1.1104 0.947214 -0.415092 23.4441
463 2 2.2208 5.07831 -1.82928 24.8927
465 1 -1.1104 0.994592 -0.364877 26.3116
466 1 -1.1104 3.56596 -3.1142 23.4882
467 1 -1.1104 3.72505 2.71201 23.4361
468 2 2.2208 2.35541 1.03872 24.7901
469 1 -1.1104 3.4961 -2.97198 26.4391
470 1 -1.1104 3.81615 2.3389 26.1412
471 2 2.2208 2.3549 -1.76495 21.9347
473 1 -1.1104 3.8539 -0.164915 23.3255
474 1 -1.1104 3.75923 -0.338945 26.1577
464 2 2.2208 5.29848 3.67556 24.9377
472 2 2.2208 2.35197 3.76022 21.9575
9380 2 2.2208 -0.264783 17.7523 22.0841
489 1 -1.1104 6.64722 -0.284651 26.3424
488 1 -1.1104 6.6286 2.36246 23.6858
478 2 2.2208 -0.265605 4.00402 24.8967
490 1 -1.1104 6.50918 2.39675 26.4889
609 1 -1.1104 6.66193 19.1204 20.835
623 2 2.2208 10.7836 15.0325 25.042
631 1 -1.1104 9.49683 19.3728 26.4089
615 1 -1.1104 9.48678 19.2269 20.8252
607 1 -1.1104 12.2275 16.1153 23.8147
484 1 -1.1104 9.53134 -3.28993 20.5938
8713 1 -1.1104 12.2943 -2.9125 20.7745
462 1 -1.1104 6.71167 -0.516661 23.4835
318 1 -1.1104 6.72686 -3.05146 20.3493
479 1 -1.1104 6.58789 2.41525 20.6747
485 1 -1.1104 9.21726 2.44794 20.6996
450 1 -1.1104 6.60483 -3.21745 23.3231
486 1 -1.1104 9.39705 -0.504953 20.6294
487 1 -1.1104 6.59806 -2.9575 26.1516
8716 1 -1.1104 12.3672 -3.0285 26.209
483 1 -1.1104 12.1169 -0.386495 23.5562
491 2 2.2208 10.7262 1.04055 22.1631
492 1 -1.1104 12.2148 -3.12203 23.3921
494 1 -1.1104 12.1933 -0.300033 26.414
496 1 -1.1104 12.1953 2.48567 23.5732
497 2 2.2208 10.8753 -1.77982 24.8629
499 1 -1.1104 12.2436 2.42344 26.3354
500 1 -1.1104 9.51093 -2.96378 23.3785
501 1 -1.1104 9.43629 2.63227 23.5439
502 2 2.2208 7.90867 1.026 25.0179
503 1 -1.1104 9.40868 -3.22836 26.1838
504 1 -1.1104 9.32956 2.47356 26.2684
505 2 2.2208 8.18797 -1.84744 22.0174
507 1 -1.1104 9.3885 -0.264438 23.5487
508 1 -1.1104 9.41886 -0.445043 26.4559
498 2 2.2208 10.8197 3.84835 24.9496
506 2 2.2208 8.03191 3.8265 22.0912
628 2 2.2208 8.07185 17.916 25.1175
342 1 -1.1104 6.56698 16.2976 23.512
625 1 -1.1104 12.2498 16.3356 26.4506
585 1 -1.1104 6.43099 13.5843 26.3416
608 1 -1.1104 6.68234 13.6165 20.6806
361 1 -1.1104 3.82744 8.05232 20.5887
513 1 -1.1104 1.10399 10.5631 20.5547
9333 1 -1.1104 0.755404 8.35749 26.4608
350 1 -1.1104 0.845745 7.94001 20.8705
366 1 -1.1104 3.78504 5.30227 21.076
515 2 2.2208 5.24225 6.76837 22.0687
517 1 -1.1104 0.950684 10.5589 23.5378
519 1 -1.1104 0.755917 5.13692 23.2407
521 2 2.2208 5.21999 9.36798 24.9312
522 1 -1.1104 0.970252 5.17071 26.3857
523 1 -1.1104 0.938034 11.043 26.496
524 1 -1.1104 3.77339 10.7865 23.6201
525 2 2.2208 2.32873 12.1332 24.9508
526 1 -1.1104 4.09992 8.05074 26.455
527 2 2.2208 2.44663 9.39672 22.0485
528 1 -1.1104 3.59386 7.91783 23.3283
529 1 -1.1104 3.80181 10.8119 26.3614
530 1 -1.1104 4.1666 5.06076 26.2583
547 1 -1.1104 6.416 5.03641 23.2754
516 2 2.2208 5.24776 12.2412 22.0533
548 1 -1.1104 6.66234 10.7679 23.5597
9304 2 2.2208 13.6262 9.46787 21.9812
536 1 -1.1104 6.54908 7.90615 20.7583
545 1 -1.1104 6.49853 7.87592 23.6337
564 1 -1.1104 12.26 13.4936 23.5081
542 1 -1.1104 9.39982 8.07585 20.6769
537 1 -1.1104 6.71545 5.18685 20.5839
538 1 -1.1104 6.61091 10.782 20.6083
550 1 -1.1104 6.7916 10.8202 26.3941
546 1 -1.1104 6.76371 7.99536 26.3656
544 1 -1.1104 9.45215 10.8509 20.5289
460 1 -1.1104 6.92915 5.16845 26.1604
495 1 -1.1104 12.3162 5.30714 26.3322
493 1 -1.1104 12.3646 5.29398 23.5323
551 1 -1.1104 9.49971 10.9807 26.2262
552 1 -1.1104 9.60163 5.35741 26.2932
553 1 -1.1104 9.35377 10.8687 23.4015
554 1 -1.1104 9.45255 5.32175 23.5033
555 2 2.2208 8.07924 9.36562 22.1191
556 1 -1.1104 9.546 8.10063 26.4225
557 2 2.2208 8.09993 12.2395 24.948
558 2 2.2208 8.08649 6.59692 24.9049
559 2 2.2208 10.8687 6.65191 22.1832
560 2 2.2208 10.797 12.1971 22.0378
561 1 -1.1104 12.2668 10.8308 23.4583
562 1 -1.1104 12.194 10.9021 26.2886
563 1 -1.1104 12.3387 8.11741 23.7192
565 2 2.2208 10.903 9.5506 24.9666
566 1 -1.1104 12.288 8.05468 26.4068
568 1 -1.1104 9.40571 7.96589 23.5113
611 1 -1.1104 12.3054 13.7018 20.6687
629 1 -1.1104 6.8013 19.2721 26.5556
617 1 -1.1104 9.47069 16.5944 23.5043
610 1 -1.1104 6.49028 16.2256 20.7391
633 1 -1.1104 6.60144 16.4703 26.217
635 1 -1.1104 6.78614 13.5498 23.5078
574 1 -1.1104 0.983992 19.1527 20.7668
9381 2 2.2208 -0.18113 20.3294 25.0015
578 1 -1.1104 3.64178 16.3846 20.6237
577 1 -1.1104 3.90748 19.1765 20.761
573 1 -1.1104 1.1612 13.1881 21.0463
600 1 -1.1104 3.93524 16.3555 23.3454
599 1 -1.1104 1.1661 19.0693 23.7223
598 1 -1.1104 3.62432 13.5353 26.4087
588 1 -1.1104 1.18939 16.3895 26.1834
583 2 2.2208 2.27076 20.5331 22.0999
520 1 -1.1104 0.932884 13.413 23.655
582 2 2.2208 2.35184 14.9159 21.9447
584 1 -1.1104 3.80134 19.1085 23.4809
586 1 -1.1104 3.86679 13.681 23.3663
587 1 -1.1104 1.16564 19.1061 26.4711
589 1 -1.1104 0.529453 13.7818 26.6474
590 2 2.2208 5.26717 20.3603 24.9284
591 2 2.2208 5.23011 14.898 24.8313
592 1 -1.1104 3.90887 19.0302 26.3596
593 1 -1.1104 1.04646 16.3451 23.5048
594 2 2.2208 5.32798 17.6459 22.1499
596 2 2.2208 2.54823 17.6875 24.9024
597 1 -1.1104 3.85823 16.2345 26.2046
634 1 -1.1104 6.64697 19.0018 23.733
606 2 2.2208 10.9693 17.6962 22.0589
618 1 -1.1104 12.0946 19.1842 23.7244
619 2 2.2208 8.2081 20.5559 22.1858
630 1 -1.1104 9.31406 13.5912 26.4405
9066 2 2.2208 13.5877 -1.80502 16.4063
9376 2 2.2208 13.5902 14.995 22.0685
509 2 2.2208 10.7227 1.06022 27.7121
9377 2 2.2208 13.624 17.8152 24.8637
9059 2 2.2208 13.5594 1.13563 19.359
9227 2 2.2208 13.6457 3.94566 22.0499
17571 2 2.2208 13.5946 -4.45454 24.8637
9055 2 2.2208 13.599 3.75683 16.5266
9171 2 2.2208 13.6421 17.7479 19.4925
569 2 2.2208 11.0128 6.68447 27.6728
447 2 2.2208 7.88031 17.7787 13.8014
369 2 2.2208 5.16504 9.41059 13.731
446 2 2.2208 10.8635 14.9005 13.7431
368 2 2.2208 2.4631 6.48751 13.759
636 2 2.2208 13.6374 12.2229 13.7082
343 2 2.2208 7.90877 1.00781 13.7049
475 2 2.2208 5.15444 0.952722 27.6089
532 2 2.2208 5.25737 6.60776 27.6776
511 2 2.2208 7.96728 3.92985 27.7008
602 2 2.2208 7.94146 15.0038 27.6063
396 2 2.2208 8.02816 12.2443 13.7004
371 2 2.2208 13.5202 6.65635 13.7332
315 2 2.2208 2.44475 0.873631 13.7376
344 2 2.2208 10.7322 -1.75496 13.6823
398 2 2.2208 8.0012 6.45995 13.7222
640 2 2.2208 5.17482 23.5141 5.13356
641 2 2.2208 5.34335 28.9825 5.36223
643 1 -1.1104 1.15005 24.9347 0.977203
645 2 2.2208 5.2111 26.3946 2.50768
646 1 -1.1104 0.936073 24.8755 3.74654
648 1 -1.1104 3.78966 27.6782 0.975319
649 2 2.2208 2.4098 23.5266 2.49621
650 2 2.2208 2.53681 29.1036 2.44407
651 1 -1.1104 1.00172 27.6688 1.17562
652 2 2.2208 2.38559 26.2619 5.36458
653 1 -1.1104 4.42281 24.843 1.00841
655 1 -1.1104 3.88089 24.9964 3.89222
656 1 -1.1104 3.8175 27.5597 3.86842
661 1 -1.1104 1.10886 27.7689 3.86803
112 1 -1.1104 1.07301 22.2989 3.90591
9452 1 -1.1104 1.14673 22.0825 1.05541
124 1 -1.1104 3.71054 22.1907 3.81746
120 1 -1.1104 3.8946 22.0198 1.06175
1137 2 2.2208 5.28987 28.898 -0.339491
665 1 -1.1104 3.79378 24.8363 6.61868
1174 2 2.2208 13.6252 26.3914 -0.377678
779 1 -1.1104 12.3402 47.2145 6.65502
666 1 -1.1104 1.20003 22.1161 6.6115
807 1 -1.1104 1.02562 27.7811 6.67713
663 1 -1.1104 0.980426 25.0999 6.72061
667 1 -1.1104 4.01263 27.5818 6.76374
668 1 -1.1104 6.64526 27.5581 4.00586
662 1 -1.1104 6.58758 24.8852 6.40017
659 1 -1.1104 6.83095 27.5691 1.22114
669 1 -1.1104 6.65904 22.1544 3.82221
658 1 -1.1104 6.63494 24.8195 3.35233
134 1 -1.1104 6.79781 22.2777 1.00952
1158 1 -1.1104 12.5195 24.9414 1.10393
670 2 2.2208 10.7131 23.2999 5.34488
671 2 2.2208 10.9798 29.0735 5.39217
672 1 -1.1104 12.009 27.6564 0.986694
673 1 -1.1104 12.2618 21.9512 1.08557
675 2 2.2208 11.0089 26.2624 2.5198
676 1 -1.1104 12.1959 27.5685 3.98607
678 1 -1.1104 9.59954 24.8735 1.06995
679 2 2.2208 8.1988 23.4144 2.47577
680 2 2.2208 7.98818 29.0785 2.61372
681 1 -1.1104 9.60887 24.8154 3.7112
682 2 2.2208 8.13922 26.1377 5.08607
683 1 -1.1104 9.58891 21.9216 1.17202
685 1 -1.1104 9.35619 22.0443 3.96501
686 1 -1.1104 9.50439 27.5067 3.57738
140 1 -1.1104 12.2611 24.6226 4.00713
141 1 -1.1104 12.1058 21.9473 3.85791
1173 2 2.2208 10.8554 23.5351 -0.140099
692 1 -1.1104 9.19551 24.7296 6.59342
694 1 -1.1104 9.45471 27.6036 6.43367
687 1 -1.1104 6.72783 22.0448 6.62343
684 1 -1.1104 9.60506 30.0648 1.14151
688 1 -1.1104 6.75466 27.6987 6.57082
690 1 -1.1104 12.156 24.6971 6.85637
9708 2 2.2208 13.6575 43.0623 5.23974
664 1 -1.1104 1.06336 30.4175 4.06137
642 1 -1.1104 1.0279 30.5402 1.0986
647 1 -1.1104 3.74708 33.0552 1.11666
644 1 -1.1104 0.90543 33.1422 1.05361
654 1 -1.1104 3.96165 30.3514 0.884339
695 2 2.2208 5.20119 34.6103 5.39034
697 1 -1.1104 3.85733 33.1543 3.94123
698 1 -1.1104 1.06596 36.0118 0.657869
699 2 2.2208 5.29697 31.7398 2.51316
700 2 2.2208 5.45648 37.3686 2.61391
704 1 -1.1104 3.75252 35.8242 1.15503
705 2 2.2208 2.47815 34.4915 2.51874
706 1 -1.1104 3.90354 30.4063 3.91257
707 1 -1.1104 3.76576 36.0061 3.95273
708 2 2.2208 2.48525 31.7781 5.31254
709 2 2.2208 2.5266 37.5386 5.22167
9511 1 -1.1104 0.889452 35.9433 3.59321
713 1 -1.1104 0.997253 33.1078 3.91931
903 1 -1.1104 6.59558 47.341 9.38285
717 1 -1.1104 1.13106 33.4084 6.72055
995 2 2.2208 8.03464 23.4763 13.4918
701 1 -1.1104 1.21837 38.83 3.80759
754 1 -1.1104 6.8493 47.2565 3.84015
714 1 -1.1104 1.27564 36.1859 6.5785
801 1 -1.1104 6.66221 47.2679 6.64936
1370 1 -1.1104 9.45949 47.3105 3.77758
710 1 -1.1104 6.71265 35.9205 1.27885
730 1 -1.1104 6.69594 30.4467 1.28539
711 1 -1.1104 6.64987 33.2445 3.99487
660 1 -1.1104 6.736 30.3523 3.9341
1209 1 -1.1104 6.6571 33.1613 1.14968
702 1 -1.1104 6.76093 36.0332 4.07613
674 1 -1.1104 12.4658 30.1986 1.04863
677 1 -1.1104 12.2373 30.394 3.94353
722 1 -1.1104 9.55279 35.7338 1.0626
723 2 2.2208 10.9127 34.5501 5.18609
725 1 -1.1104 12.3161 32.9402 1.05713
727 2 2.2208 10.8164 31.658 2.43992
728 2 2.2208 10.98 37.3988 2.24993
729 1 -1.1104 12.4426 36.1232 3.82233
731 1 -1.1104 12.305 35.6575 0.943678
732 2 2.2208 8.0899 34.5454 2.51847
733 1 -1.1104 9.38523 30.479 4.01011
734 1 -1.1104 9.67547 36.0593 3.76773
735 2 2.2208 8.11067 31.8441 5.39465
736 2 2.2208 8.0994 37.5248 5.31622
737 1 -1.1104 9.33373 32.9918 1.15672
738 1 -1.1104 9.53238 33.0975 4.00919
740 1 -1.1104 12.149 33.2474 3.72397
715 1 -1.1104 6.63687 33.2592 6.70615
691 1 -1.1104 12.3241 30.594 6.67174
796 1 -1.1104 9.45775 38.6551 0.980812
789 1 -1.1104 12.5212 38.97 3.81459
881 1 -1.1104 12.3652 33.3242 6.52885
744 1 -1.1104 9.47362 36.129 6.44744
1246 2 2.2208 10.9315 34.4587 -0.382744
9581 2 2.2208 -0.324609 42.9721 2.4536
9463 2 2.2208 -0.265552 26.2488 2.52502