ITEM: TIMESTEP
40000
ITEM: NUMBER OF ATOMS
17640
ITEM: BOX BOUNDS pp pp pp
-3.8110416268464453e-01 2.7721104162684803e+01
-4.7063282504352220e+00 3.3278632825043996e+02
-3.7650359985912779e-01 2.7716503599858978e+01
ITEM: ATOMS id type q x y z
1 2 2.2208 5.23286 0.905449 5.37907
3 1 -1.1104 1.11033 -0.674867 3.66026
6 2 2.2208 5.51081 -1.65267 2.66544
9 1 -1.1104 3.94702 -0.748348 1.1087
11 2 2.2208 2.51715 0.800491 2.36602
12 1 -1.1104 3.96625 -3.18138 3.50037
14 2 2.2208 2.52451 -1.87046 5.21502
16 1 -1.1104 3.93045 2.25451 1.01659
17 1 -1.1104 3.7837 2.28773 3.80693
22 1 -1.1104 0.982136 2.11859 3.91331
8156 1 -1.1104 1.14587 -0.470027 1.09708
8163 1 -1.1104 1.1663 -3.36031 4.02218
8160 1 -1.1104 3.88449 -0.456978 4.0414
8692 1 -1.1104 1.38387 -3.43858 1.11341
4 1 -1.1104 1.01072 2.18745 0.931925
15 2 2.2208 2.2762 3.71972 5.3126
23 1 -1.1104 4.03848 -3.27722 6.49807
7 2 2.2208 5.21777 3.70814 2.51069
26 1 -1.1104 6.70214 2.28712 0.923754
8172 1 -1.1104 6.68634 -0.375049 1.20507
8187 1 -1.1104 6.75181 -0.455038 3.97536
8186 1 -1.1104 6.66955 -3.32248 1.34804
8211 1 -1.1104 6.63511 -3.23404 4.13308
8213 2 2.2208 8.09807 -4.58803 2.43628
8176 1 -1.1104 1.08921 -3.24364 6.84186
18 1 -1.1104 0.969187 -0.357533 6.49218
25 1 -1.1104 3.83796 -0.559727 6.71653
24 1 -1.1104 3.70933 2.3056 6.5602
20 1 -1.1104 6.64126 2.46864 6.72505
8320 1 -1.1104 6.62401 -0.253409 6.79311
8865 2 2.2208 13.6076 14.9438 5.23395
8744 2 2.2208 13.5718 3.76294 5.4365
46 1 -1.1104 6.52772 2.3922 3.79868
8201 1 -1.1104 9.32954 -3.32011 1.02547
28 1 -1.1104 9.43979 2.12391 4.13482
29 2 2.2208 10.83 0.818972 5.48737
31 1 -1.1104 12.1144 2.28631 1.12939
32 1 -1.1104 12.4187 -0.564287 1.29231
33 2 2.2208 10.9447 -1.93201 2.51385
34 2 2.2208 10.9764 3.64692 2.55939
36 1 -1.1104 9.65538 -0.672694 1.06251
38 2 2.2208 8.22442 0.803619 2.57947
39 1 -1.1104 9.54685 -3.2713 3.7785
40 1 -1.1104 12.3043 2.32455 4.10916
41 2 2.2208 7.91211 -1.81831 5.5735
42 2 2.2208 8.04198 3.68009 5.32331
43 1 -1.1104 9.40349 2.27815 1.24563
44 1 -1.1104 9.43483 -0.495234 4.03471
8194 1 -1.1104 12.2717 -3.14156 3.92505
8197 1 -1.1104 12.236 -3.42938 1.05567
8200 1 -1.1104 12.2382 -0.445381 3.92724
8815 2 2.2208 13.6158 9.25103 5.27355
8212 2 2.2208 10.8371 -4.60264 5.26504
47 1 -1.1104 12.2549 -0.505913 6.72716
51 1 -1.1104 9.39369 2.2558 6.77052
510 2 2.2208 7.97707 -1.99231 -0.292031
9036 2 2.2208 13.5274 9.36587 10.9248
8754 2 2.2208 13.6145 0.972053 2.60949
636 2 2.2208 13.5776 12.2634 13.6123
579 2 2.2208 2.36133 14.9143 -0.309445
13 1 -1.1104 0.896276 4.99411 3.9717
2 1 -1.1104 0.957078 5.09731 0.972032
8 1 -1.1104 0.85843 7.90316 3.82384
10 1 -1.1104 3.90084 5.00395 1.07095
53 2 2.2208 5.22598 6.36708 5.28041
54 2 2.2208 5.22982 12.0891 5.32534
56 1 -1.1104 1.02197 7.96281 1.03526
59 2 2.2208 5.04233 9.33093 2.5255
60 1 -1.1104 1.00326 10.7256 3.73192
62 1 -1.1104 3.77403 10.8561 0.992575
63 2 2.2208 2.35542 6.47691 2.46008
64 2 2.2208 2.38528 12.0603 2.36136
65 1 -1.1104 3.69201 8.05546 3.8048
66 2 2.2208 2.27774 9.32279 5.20788
67 1 -1.1104 3.95084 7.90512 0.98552
70 1 -1.1104 3.77698 5.15743 3.86412
71 1 -1.1104 3.78491 10.669 3.98946
518 1 -1.1104 1.06072 10.5904 0.933169
549 1 -1.1104 6.67324 8.00623 1.09242
69 1 -1.1104 3.67304 10.5065 6.7546
77 1 -1.1104 6.40794 10.7321 1.12442
72 1 -1.1104 0.800882 10.785 6.59147
580 2 2.2208 5.15573 17.8699 -0.265395
73 1 -1.1104 6.54208 7.87933 3.89103
5 1 -1.1104 6.63328 4.95644 1.12759
78 1 -1.1104 6.68821 5.28257 3.88838
9379 2 2.2208 13.5862 14.9393 -0.363374
509 2 2.2208 10.79 0.841498 -0.17716
21 1 -1.1104 6.62663 5.12297 6.64755
182 2 2.2208 13.6119 3.63776 11.0201
156 1 -1.1104 9.41966 16.2539 6.62107
92 1 -1.1104 6.54456 10.6983 3.86823
8739 1 -1.1104 12.3195 5.03798 1.05144
27 1 -1.1104 9.4277 10.5726 3.88222
37 1 -1.1104 9.55721 5.08789 1.0716
83 2 2.2208 10.8655 6.4321 5.35671
84 2 2.2208 10.7565 12.0635 5.1323
86 1 -1.1104 9.45303 7.86854 1.22067
89 2 2.2208 10.8838 9.34614 2.57034
93 2 2.2208 8.14182 6.53467 2.50162
94 2 2.2208 7.94285 12.1718 2.34489
95 1 -1.1104 12.2702 7.80811 3.88608
96 2 2.2208 8.03251 9.19457 5.27369
97 1 -1.1104 9.42198 7.83247 4.0446
98 1 -1.1104 9.33041 10.7395 1.14463
100 1 -1.1104 9.57344 4.96571 3.88691
101 1 -1.1104 12.1771 10.8086 3.72823
8795 1 -1.1104 12.2172 10.7797 1.09416
30 1 -1.1104 12.2231 8.01354 1.01559
35 1 -1.1104 12.3188 5.05047 3.96924
604 2 2.2208 8.15247 20.5819 -0.325173
102 1 -1.1104 6.61954 7.83275 6.66519
287 1 -1.1104 9.25699 19.1551 12.1823
104 1 -1.1104 12.266 5.15356 6.94364
8958 2 2.2208 13.6119 12.0957 8.0295
8808 2 2.2208 13.6951 6.40626 2.54088
205 1 -1.1104 6.52183 19.0245 12.0788
531 1 -1.1104 3.90004 13.6172 1.0974
595 1 -1.1104 3.75347 19.0862 1.11554
55 1 -1.1104 0.938699 13.4546 3.93209
57 1 -1.1104 1.07022 13.4415 0.989116
61 1 -1.1104 3.86201 16.1798 3.68757
68 1 -1.1104 3.83026 13.4502 3.97617
107 2 2.2208 5.1177 17.674 5.17924
108 1 -1.1104 0.994876 16.235 1.25206
113 1 -1.1104 1.05636 18.9253 1.19176
115 2 2.2208 5.17133 14.883 2.45949
116 2 2.2208 5.14807 20.5825 2.4024
117 1 -1.1104 0.937098 16.4092 4.0459
122 2 2.2208 2.33587 17.5246 2.50289
125 2 2.2208 2.33777 14.8504 5.24128
126 2 2.2208 2.41182 20.5722 5.17823
127 1 -1.1104 3.65978 16.3877 1.05033
129 1 -1.1104 3.66843 19.0055 3.84301
130 1 -1.1104 0.837923 19.1764 4.1433
133 1 -1.1104 6.64967 19.2306 3.73453
118 1 -1.1104 6.47488 16.3758 1.01919
131 1 -1.1104 6.58385 16.4473 3.82778
81 1 -1.1104 6.64165 13.6126 3.88387
135 1 -1.1104 6.69837 19.2972 1.11967
82 1 -1.1104 6.65098 13.5522 1.04834
8337 2 2.2208 2.43405 -4.65151 8.01047
132 1 -1.1104 6.54176 19.1786 6.50218
8336 2 2.2208 5.43107 -4.64715 11.056
277 1 -1.1104 12.2592 13.5985 12.0774
620 1 -1.1104 11.9961 16.2837 1.09109
79 1 -1.1104 9.39588 13.6457 3.62537
87 1 -1.1104 12.2978 13.4649 0.908084
136 2 2.2208 10.8141 17.7051 5.22012
137 1 -1.1104 12.3263 19.0382 1.06848
91 1 -1.1104 12.2355 16.4925 3.85645
143 2 2.2208 10.7816 14.9574 2.37899
144 2 2.2208 10.8919 20.5322 2.49993
145 1 -1.1104 12.4251 19.3281 3.80987
146 1 -1.1104 9.57665 13.5706 0.935004
148 1 -1.1104 9.41816 19.3123 1.12317
150 2 2.2208 8.14791 17.7109 2.52439
151 1 -1.1104 12.1634 13.7145 3.7465
152 1 -1.1104 9.34912 19.1432 3.85846
153 2 2.2208 8.14609 14.9182 5.27068
154 2 2.2208 8.01003 20.4389 5.2535
155 1 -1.1104 9.24785 16.4392 1.05919
157 1 -1.1104 9.41701 16.3264 3.95679
8783 2 2.2208 -0.188255 -1.90677 2.46352
138 1 -1.1104 12.1125 16.3355 6.70819
511 2 2.2208 8.07387 3.73794 -0.252898
123 1 -1.1104 6.45128 16.2543 6.64033
110 1 -1.1104 6.72931 13.4919 6.61249
230 2 2.2208 7.86109 14.6941 10.9708
164 1 -1.1104 0.938178 2.46793 6.79233
159 2 2.2208 5.32433 0.823537 11.0934
160 1 -1.1104 0.884127 -3.20557 12.196
161 1 -1.1104 1.08213 2.24295 12.308
163 1 -1.1104 0.86924 -3.1615 9.57591
165 1 -1.1104 0.86894 -0.398195 12.2488
166 2 2.2208 5.20811 -1.78002 8.20153
168 1 -1.1104 0.883556 -0.280875 9.38174
170 1 -1.1104 3.74597 -3.27277 12.0958
171 1 -1.1104 3.71738 2.25235 9.48249
172 2 2.2208 2.49133 0.950758 8.04935
173 1 -1.1104 3.61233 -3.24031 9.30587
174 1 -1.1104 0.922274 2.45786 9.52715
175 2 2.2208 2.44132 -1.82378 10.9243
177 1 -1.1104 3.66169 -0.265861 12.2735
178 1 -1.1104 3.85184 -0.367062 9.63771
162 1 -1.1104 3.82858 2.455 12.417
176 2 2.2208 2.40859 3.64565 10.9194
169 1 -1.1104 6.69562 2.3672 9.63947
167 2 2.2208 5.18796 3.75182 8.07805
183 1 -1.1104 6.67576 -3.16154 6.92385
321 1 -1.1104 6.64716 2.37333 12.4304
186 1 -1.1104 6.70789 -0.419776 12.3256
8500 1 -1.1104 6.76585 -3.4805 12.4975
475 2 2.2208 5.20513 0.841973 -0.32274
8905 2 2.2208 13.5096 0.889461 8.21031
8361 2 2.2208 8.09612 -4.67579 8.31027
8357 1 -1.1104 6.73264 -3.20302 9.53958
184 1 -1.1104 6.58675 -0.376126 9.4094
48 1 -1.1104 12.1368 2.38803 6.84818
50 1 -1.1104 9.41065 -3.23881 6.76079
52 1 -1.1104 9.42791 -0.576286 6.80212
8188 1 -1.1104 12.1664 -3.2171 6.69751
187 2 2.2208 10.8704 0.897823 11.0727
188 1 -1.1104 12.2463 -3.2481 12.3792
189 1 -1.1104 12.3637 2.45704 12.5288
190 1 -1.1104 12.3412 -3.25066 9.46759
191 1 -1.1104 12.2143 2.30137 9.66829
192 1 -1.1104 12.2602 -0.485986 12.4144
193 2 2.2208 10.8432 -1.87098 8.1837
195 1 -1.1104 12.2182 -0.472219 9.54003
196 1 -1.1104 9.61687 -3.40201 12.3522
197 1 -1.1104 9.50039 2.29691 12.41
198 2 2.2208 8.06426 0.962258 8.27468
199 1 -1.1104 9.53446 -3.27694 9.66632
200 1 -1.1104 9.40191 2.27514 9.60072
201 2 2.2208 8.04327 -1.81651 10.9502
203 1 -1.1104 9.38631 -0.385544 12.2299
204 1 -1.1104 9.49029 -0.582334 9.42896
194 2 2.2208 10.7588 3.68161 8.31284
202 2 2.2208 7.88953 3.63042 11.0348
8814 2 2.2208 13.6028 12.1215 2.39593
74 1 -1.1104 1.19081 7.96241 6.63917
76 1 -1.1104 3.9096 4.98746 6.56895
19 1 -1.1104 0.953655 5.20336 6.74437
75 1 -1.1104 3.80361 7.77821 6.63571
208 2 2.2208 5.12355 6.46174 10.8148
209 2 2.2208 5.11825 11.9148 10.7583
210 1 -1.1104 0.927636 7.91473 12.392
212 1 -1.1104 0.953904 7.7971 9.52324
213 1 -1.1104 0.915612 5.14569 12.4969
214 1 -1.1104 0.873653 10.6188 12.2107
215 2 2.2208 5.1548 9.27788 7.99728
216 1 -1.1104 1.09139 5.21643 9.52279
217 1 -1.1104 1.09823 10.5831 9.44169
220 1 -1.1104 3.71223 8.05011 12.2974
221 2 2.2208 2.36852 6.57617 8.05795
222 2 2.2208 2.44473 12.1728 8.07654
223 1 -1.1104 3.7759 7.86825 9.4734
224 2 2.2208 2.32452 9.19772 10.8603
225 1 -1.1104 3.66058 5.12778 12.364
226 1 -1.1104 3.67263 10.6768 12.3015
227 1 -1.1104 3.62898 5.08061 9.44066
228 1 -1.1104 3.77658 10.6581 9.40651
211 1 -1.1104 6.54602 7.77046 12.2992
185 1 -1.1104 6.5065 5.04599 9.43065
233 1 -1.1104 6.37722 5.21142 12.3843
9031 2 2.2208 13.6156 -1.87477 5.32594
9033 2 2.2208 13.5593 -1.81268 10.8756
218 1 -1.1104 6.61535 7.78575 9.56753
232 1 -1.1104 6.61262 10.5448 9.56594
234 1 -1.1104 6.54068 10.6726 12.3551
99 1 -1.1104 9.3251 10.6712 6.71416
80 1 -1.1104 6.54372 10.6234 6.75476
105 1 -1.1104 9.5174 8.00357 6.71249
106 1 -1.1104 9.45148 5.03793 6.75174
88 1 -1.1104 12.1974 10.6094 6.47047
103 1 -1.1104 12.288 7.91341 6.76554
235 1 -1.1104 9.35736 10.672 9.54298
236 1 -1.1104 9.2856 4.98171 9.5328
237 1 -1.1104 9.30724 10.6419 12.2123
238 1 -1.1104 9.06337 5.03141 12.4549
239 2 2.2208 7.9678 9.10893 10.8731
240 1 -1.1104 9.41028 7.75488 9.49719
241 2 2.2208 8.09506 12.002 7.95277
242 2 2.2208 7.88375 6.43178 8.13256
243 2 2.2208 10.64 6.50059 10.9037
244 2 2.2208 10.7438 12.092 10.7184
245 1 -1.1104 12.2086 8.04316 12.3088
246 1 -1.1104 12.1631 7.97813 9.4039
247 1 -1.1104 11.9479 5.14329 12.3211
248 1 -1.1104 12.1572 10.7889 12.1617
249 2 2.2208 10.7671 9.30674 8.06872
250 1 -1.1104 12.1396 5.2705 9.69582
251 1 -1.1104 12.201 10.8097 9.28421
252 1 -1.1104 9.39388 7.88575 12.3688
283 2 2.2208 10.918 14.9122 8.02393
121 1 -1.1104 0.755159 16.7087 6.70133
111 1 -1.1104 3.55504 19.0847 6.68053
119 1 -1.1104 3.87279 13.3437 6.63127
219 1 -1.1104 6.6113 13.3642 9.36239
229 1 -1.1104 6.71773 19.2839 9.26263
58 1 -1.1104 1.01492 13.6212 6.52668
45 1 -1.1104 6.46238 16.1444 12.2892
128 1 -1.1104 3.60735 16.2061 6.67256
259 1 -1.1104 1.0633 16.2187 9.5793
253 1 -1.1104 3.60982 18.8503 12.2021
254 1 -1.1104 3.77419 13.2215 12.35
255 1 -1.1104 3.90392 18.9902 9.43367
256 1 -1.1104 1.18772 18.9792 9.55826
257 1 -1.1104 0.897933 13.4914 9.39059
258 2 2.2208 5.18528 20.4612 8.10294
260 2 2.2208 5.29466 14.8506 7.98324
261 1 -1.1104 0.870483 18.919 12.407
262 1 -1.1104 0.978421 13.3517 12.1582
263 2 2.2208 5.151 17.5899 10.9021
265 2 2.2208 2.46632 17.6328 8.25131
266 1 -1.1104 3.77601 16.138 9.4063
267 1 -1.1104 3.85847 13.3913 9.40811
268 1 -1.1104 1.00545 16.1956 12.4629
269 1 -1.1104 3.76748 15.9694 12.3193
270 2 2.2208 2.46421 20.3788 10.8846
271 2 2.2208 2.46983 14.8195 10.923
147 1 -1.1104 9.42314 13.479 6.65145
288 2 2.2208 8.13427 17.582 8.15194
293 1 -1.1104 9.52726 18.9924 9.46356
274 2 2.2208 13.594 20.4945 10.9914
291 1 -1.1104 9.28409 16.401 12.3771
284 2 2.2208 10.9031 20.4361 8.03581
289 2 2.2208 7.88354 20.6534 10.8589
85 1 -1.1104 12.1735 13.4361 6.60737
280 1 -1.1104 12.301 13.6428 9.35523
149 1 -1.1104 9.54996 18.9948 6.68845
282 1 -1.1104 12.0923 16.3462 12.3416
142 1 -1.1104 12.34 19.0878 6.51124
292 1 -1.1104 9.53802 16.324 9.46162
206 1 -1.1104 6.71868 16.1754 9.3806
278 1 -1.1104 12.0493 19.1909 12.4213
285 1 -1.1104 12.3234 16.5282 9.60095
286 1 -1.1104 9.48345 13.5052 12.2666
276 2 2.2208 10.8518 17.7103 10.9086
290 1 -1.1104 9.50542 13.4105 9.36837
281 1 -1.1104 12.329 19.1427 9.51934
158 1 -1.1104 6.57814 13.4326 12.284
9235 2 2.2208 13.5628 3.68525 -0.36138
447 2 2.2208 7.77248 17.747 13.6033
581 2 2.2208 2.2977 20.4548 -0.209824
603 2 2.2208 10.8377 17.8094 -0.411556
8847 2 2.2208 13.5655 17.6869 2.46575
9035 2 2.2208 -0.216809 9.16394 8.01857
396 2 2.2208 8.03247 11.8861 13.592
207 2 2.2208 -0.36878 12.0515 10.7615
272 2 2.2208 -0.287312 17.687 10.8666
8362 2 2.2208 13.6395 -4.59819 8.10673
8816 2 2.2208 -0.375705 11.9788 5.23459
344 2 2.2208 10.8714 -1.98481 13.6425
570 2 2.2208 7.91262 9.36278 -0.307283
8503 2 2.2208 2.45571 -4.54601 13.5887
571 2 2.2208 10.7408 12.0659 -0.351745
569 2 2.2208 10.7373 6.5236 -0.338291
296 2 2.2208 5.22205 0.749647 16.6119
297 1 -1.1104 0.984051 -3.30277 17.9532
298 1 -1.1104 1.02437 2.32356 17.9272
299 1 -1.1104 1.10123 -3.26157 15.2323
300 1 -1.1104 1.13717 2.51101 15.0871
301 1 -1.1104 0.969639 -0.544225 17.9919
302 2 2.2208 5.3274 -1.98937 19.3568
303 2 2.2208 5.18984 3.57593 19.5374
304 1 -1.1104 0.946578 -0.42777 15.0939
305 1 -1.1104 3.81808 -3.41731 18.1265
306 1 -1.1104 3.88282 2.29547 18.0956
307 2 2.2208 2.46601 0.759787 19.385
308 1 -1.1104 3.75061 -3.49472 15.3174
309 1 -1.1104 3.94358 2.41378 15.032
310 2 2.2208 2.41853 -2.04397 16.5059
311 2 2.2208 2.54295 3.67505 16.6106
312 1 -1.1104 3.8726 -0.646962 17.9979
313 1 -1.1104 3.62176 -0.32153 15.3879
8507 1 -1.1104 6.57485 -3.2872 17.6755
322 1 -1.1104 6.72525 -0.407517 18.1786
319 1 -1.1104 6.60811 2.29124 18.0749
451 1 -1.1104 1.10954 -0.385625 20.9305
318 1 -1.1104 6.5069 -3.34964 20.7407
323 1 -1.1104 6.60383 2.23671 15.108
320 1 -1.1104 6.91087 -0.510194 15.3937
453 1 -1.1104 3.8754 2.19449 20.9095
8675 2 2.2208 5.27168 -4.70842 22.0982
324 2 2.2208 10.822 0.833972 16.6221
325 1 -1.1104 12.1209 -3.40686 15.109
326 1 -1.1104 12.188 2.17629 18.1971
328 1 -1.1104 12.1102 2.30343 15.2512
329 1 -1.1104 12.3772 -0.562695 17.8466
330 2 2.2208 10.9029 -2.00539 19.3636
332 1 -1.1104 12.318 -0.634248 15.1393
333 1 -1.1104 9.52779 -3.28469 17.9709
334 1 -1.1104 9.47544 2.32459 18.022
335 2 2.2208 8.09853 0.855757 19.4839
336 1 -1.1104 8.96027 -3.55065 15.2228
337 1 -1.1104 9.3416 2.21709 15.238
338 2 2.2208 8.14423 -1.91716 16.6388
340 1 -1.1104 9.50761 -0.452634 17.9586
341 1 -1.1104 9.56589 -0.648311 14.9644
8709 1 -1.1104 12.2735 -3.33732 18.0179
331 2 2.2208 10.7651 3.51073 19.4618
339 2 2.2208 7.97177 3.54932 16.6304
622 1 -1.1104 13.5201 17.8715 22.3111
316 2 2.2208 5.13305 3.74104 13.7259
345 2 2.2208 10.7154 3.66736 13.8345
484 1 -1.1104 9.35466 -3.3345 20.701
9055 2 2.2208 13.5777 3.64977 16.7046
397 2 2.2208 10.6745 9.29715 13.7316
601 2 2.2208 13.426 20.3449 22.1079
346 2 2.2208 5.24206 6.58185 16.6659
347 2 2.2208 5.06831 12.1333 16.4487
348 1 -1.1104 0.803456 7.95833 18.0054
349 1 -1.1104 0.69677 8.03932 15.0912
351 1 -1.1104 1.03826 5.21385 17.9957
352 1 -1.1104 0.837738 10.8316 17.8988
353 2 2.2208 5.11652 9.44583 19.2614
354 1 -1.1104 1.12127 5.1749 15.3788
356 1 -1.1104 0.846444 10.6494 15.103
357 1 -1.1104 3.47409 7.78424 17.9188
358 2 2.2208 2.22746 6.56164 19.4223
359 2 2.2208 2.25262 12.2207 19.2268
360 1 -1.1104 3.7534 7.92765 15.1565
362 2 2.2208 2.23403 9.17698 16.5237
363 1 -1.1104 3.92406 5.22901 18.0975
364 1 -1.1104 3.5669 10.7216 17.8684
365 1 -1.1104 3.79955 5.16441 15.2395
367 1 -1.1104 3.65759 10.7403 15.1593
361 1 -1.1104 3.89033 8.09016 20.5359
372 1 -1.1104 6.43885 7.93569 18.0214
374 1 -1.1104 6.85196 5.0408 18.1039
375 1 -1.1104 6.4779 10.8019 17.9719
376 1 -1.1104 6.61817 5.13228 15.2168
377 1 -1.1104 6.46678 10.7242 15.0818
369 2 2.2208 5.21 9.27109 13.7655
8527 2 2.2208 8.07464 -4.69478 19.3569
355 1 -1.1104 0.88654 5.01168 20.7709
537 1 -1.1104 6.56239 5.10415 20.7938
368 2 2.2208 2.37025 6.54358 13.6943
8700 2 2.2208 10.9004 -4.64702 22.2515
476 2 2.2208 2.44727 -1.85826 27.651
373 1 -1.1104 6.62222 7.9406 15.2115
378 2 2.2208 10.8177 6.4573 16.6722
379 2 2.2208 10.6172 11.9878 16.5018
380 1 -1.1104 12.3269 7.91871 17.9842
381 1 -1.1104 12.1004 8.04847 15.1357
382 1 -1.1104 12.1921 5.07351 18.0962
383 1 -1.1104 11.9994 10.7108 17.9035
384 2 2.2208 10.8409 9.24982 19.2807
385 1 -1.1104 12.2008 5.02431 15.1503
386 1 -1.1104 12.0264 10.7117 14.9937
387 1 -1.1104 9.3918 7.85216 17.9524
388 2 2.2208 8.06138 6.36433 19.4587
389 2 2.2208 7.9936 12.2452 19.4795
390 1 -1.1104 9.25152 7.97739 15.1973
391 2 2.2208 7.90058 9.27486 16.5977
392 1 -1.1104 9.44383 5.147 18.0144
393 1 -1.1104 9.29169 10.5205 17.9143
394 1 -1.1104 9.49689 5.10469 15.1184
395 1 -1.1104 9.36391 10.7224 15.1093
9171 2 2.2208 13.6275 17.7741 19.2083
9113 2 2.2208 13.5029 9.34266 16.4914
541 1 -1.1104 12.1623 10.6469 20.63
540 1 -1.1104 11.9804 5.00799 20.8186
370 2 2.2208 2.30585 11.848 13.6682
398 2 2.2208 8.07276 6.49328 13.8942
399 2 2.2208 5.10393 17.7202 16.4063
400 1 -1.1104 1.06552 13.6091 17.5393
401 1 -1.1104 0.821078 18.9361 17.9921
402 1 -1.1104 1.0316 13.454 14.9647
403 1 -1.1104 0.651806 19.5584 15.2059
404 1 -1.1104 3.4072 16.5224 17.8913
405 2 2.2208 5.11267 14.9437 19.3613
406 2 2.2208 5.25774 20.6483 19.3006
407 1 -1.1104 1.06351 16.4358 15.44
408 1 -1.1104 3.76505 13.6696 17.9557
410 2 2.2208 2.35798 17.8581 19.421
411 1 -1.1104 3.76035 13.3781 15.1278
412 1 -1.1104 3.39929 18.8108 15.5179
413 2 2.2208 2.52359 14.9416 16.4088
414 2 2.2208 2.39532 20.6426 16.5824
415 1 -1.1104 3.88999 19.2907 18.1798
416 1 -1.1104 3.67269 16.1869 15.0215
424 1 -1.1104 6.43015 16.4486 17.9303
608 1 -1.1104 6.51692 13.6985 20.7696
421 1 -1.1104 6.53338 19.2652 17.8501
572 2 2.2208 13.4781 12.1733 24.9502
422 1 -1.1104 6.57524 13.2994 15.0016
425 1 -1.1104 6.35324 16.1375 15.0433
420 1 -1.1104 6.46879 13.6268 17.8154
575 1 -1.1104 0.778111 16.4782 20.7045
609 1 -1.1104 6.50604 19.2998 20.6861
478 2 2.2208 -0.23594 3.74874 25.175
532 2 2.2208 5.18905 6.45374 27.5737
616 1 -1.1104 9.36567 16.6114 20.8173
9169 2 2.2208 13.4833 14.8657 16.478
423 1 -1.1104 6.39588 19.1209 15.1359
610 1 -1.1104 6.6762 16.4609 20.7236
426 2 2.2208 10.712 17.6513 16.4981
427 1 -1.1104 12.1464 13.307 17.849
428 1 -1.1104 12.1032 19.1263 17.9758
429 1 -1.1104 12.1016 13.7049 15.0211
430 1 -1.1104 11.9966 19.1854 15.2147
431 1 -1.1104 12.143 16.3372 17.8767
432 2 2.2208 10.762 14.936 19.1973
433 2 2.2208 10.672 20.5003 19.1446
434 1 -1.1104 11.9477 16.3616 15.2207
435 1 -1.1104 9.32614 13.5348 18.0337
436 1 -1.1104 9.19221 19.0378 17.9466
437 2 2.2208 7.94331 17.7701 19.3572
438 1 -1.1104 9.38818 13.5247 15.0882
439 1 -1.1104 9.31325 19.1416 15.1477
440 2 2.2208 7.84433 14.864 16.372
442 1 -1.1104 9.35333 16.2879 17.7779
443 1 -1.1104 9.18725 16.3091 15.163
441 2 2.2208 7.868 20.4502 16.4416
612 1 -1.1104 11.9246 19.3979 20.6697
615 1 -1.1104 9.36279 19.3632 20.7331
444 2 2.2208 10.6501 20.633 13.7955
371 2 2.2208 13.3543 6.46597 13.7462
449 1 -1.1104 0.965564 2.38322 20.7455
448 1 -1.1104 0.80588 -3.26675 20.7227
9376 2 2.2208 13.5802 15.1895 21.9814
452 1 -1.1104 3.73913 -3.17709 20.8588
454 1 -1.1104 4.00828 -0.357742 20.7203
8686 1 -1.1104 1.12505 -3.26071 23.7249
455 2 2.2208 5.3091 0.864433 22.2459
456 1 -1.1104 0.792163 -3.28991 26.5496
457 1 -1.1104 1.07072 2.1205 23.4825
459 1 -1.1104 1.11695 2.3073 26.3085
461 1 -1.1104 1.08952 -0.483627 23.6032
463 2 2.2208 5.16819 -2.00611 25.0234
465 1 -1.1104 1.11358 -0.524714 26.355
466 1 -1.1104 3.79186 -3.237 23.5959
467 1 -1.1104 3.62291 2.6685 23.7057
468 2 2.2208 2.47089 1.05863 24.8573
469 1 -1.1104 3.71915 -3.17809 26.3943
470 1 -1.1104 3.89323 2.16804 26.3392
471 2 2.2208 2.44692 -1.89112 22.2696
473 1 -1.1104 3.83938 -0.388075 23.4787
474 1 -1.1104 3.8702 -0.431461 26.3179
464 2 2.2208 5.25016 3.62691 24.9453
472 2 2.2208 2.14822 3.69439 22.2306
450 1 -1.1104 6.56282 -3.38996 23.5646
479 1 -1.1104 6.51517 2.21631 20.9106
489 1 -1.1104 6.62482 -0.419585 26.4769
480 1 -1.1104 6.69801 -0.695555 20.8582
488 1 -1.1104 6.57087 2.3652 23.5576
462 1 -1.1104 6.64608 -0.435287 23.6427
343 2 2.2208 7.96556 0.734511 13.8058
607 1 -1.1104 12.4066 16.1987 23.7571
9227 2 2.2208 13.6564 3.50201 22.156
487 1 -1.1104 6.78815 -3.15966 26.1384
482 1 -1.1104 12.3175 2.17623 20.883
634 1 -1.1104 6.70004 19.2707 23.5689
486 1 -1.1104 9.47754 -0.583909 20.913
490 1 -1.1104 6.63907 2.20812 26.3288
485 1 -1.1104 9.4033 2.15485 20.8257
481 1 -1.1104 12.2507 -0.505071 20.7879
8713 1 -1.1104 12.1321 -3.36754 20.7057
8716 1 -1.1104 12.3514 -3.40969 26.3952
483 1 -1.1104 12.3099 -0.647377 23.6816
491 2 2.2208 10.8147 0.82981 22.2355
492 1 -1.1104 12.3497 -3.29253 23.5722
494 1 -1.1104 12.2936 -0.437384 26.5766
496 1 -1.1104 12.0699 2.34118 23.5792
497 2 2.2208 10.9529 -1.98261 24.9644
499 1 -1.1104 12.3287 2.48444 26.2774
500 1 -1.1104 9.36017 -3.44526 23.4323
501 1 -1.1104 9.14377 2.10414 23.626
502 2 2.2208 7.97624 0.740244 25.0332
503 1 -1.1104 9.59286 -3.37424 26.2791
504 1 -1.1104 9.5927 2.29756 26.3381
505 2 2.2208 8.10323 -1.97273 22.3008
507 1 -1.1104 9.59272 -0.738904 23.6424
508 1 -1.1104 9.4765 -0.591862 26.3902
498 2 2.2208 10.8709 3.75511 24.9432
506 2 2.2208 8.01591 3.56655 22.255
419 2 2.2208 13.5546 20.5459 16.5643
9304 2 2.2208 13.5616 9.36652 22.0467
514 1 -1.1104 3.72803 10.894 20.5929
513 1 -1.1104 0.935681 10.7266 20.7272
538 1 -1.1104 6.65587 10.7669 20.6498
9333 1 -1.1104 0.739271 8.13275 26.2935
350 1 -1.1104 1.0099 7.73733 21.158
366 1 -1.1104 3.6332 5.15319 20.9935
515 2 2.2208 5.12503 6.5852 21.931
516 2 2.2208 5.25547 12.1529 22.1581
517 1 -1.1104 0.997666 10.4961 23.381
519 1 -1.1104 0.446115 5.0157 23.4782
521 2 2.2208 5.19559 9.16748 24.9122
522 1 -1.1104 1.01946 5.10527 26.4886
523 1 -1.1104 0.767189 10.767 26.2775
524 1 -1.1104 3.77936 10.6485 23.3655
525 2 2.2208 2.21257 12.0389 24.8678
526 1 -1.1104 3.85027 7.9894 26.3248
527 2 2.2208 2.43332 9.29869 22.004
528 1 -1.1104 3.59336 7.78344 23.1892
529 1 -1.1104 3.63918 10.8623 26.1818
530 1 -1.1104 3.87805 4.81239 26.2057
547 1 -1.1104 6.40982 5.08348 23.3759
545 1 -1.1104 6.45767 7.87238 23.54
548 1 -1.1104 6.74057 10.6706 23.5061
550 1 -1.1104 6.61163 10.798 26.3639
460 1 -1.1104 6.8165 5.18654 26.3172
315 2 2.2208 2.37453 0.97125 13.7839
536 1 -1.1104 6.78089 7.79034 20.8085
564 1 -1.1104 12.0926 13.4902 23.5708
606 2 2.2208 10.878 17.7955 22.1916
542 1 -1.1104 9.45742 7.85093 20.8326
546 1 -1.1104 6.68608 8.11536 26.356
539 1 -1.1104 12.253 7.92462 20.6227
544 1 -1.1104 9.32185 10.8204 20.7403
543 1 -1.1104 9.35336 4.87318 20.9582
495 1 -1.1104 12.1773 5.22796 26.3514
493 1 -1.1104 12.2251 5.05721 23.58
551 1 -1.1104 9.35869 10.8493 26.4553
552 1 -1.1104 9.47137 5.25343 26.3947
553 1 -1.1104 9.45761 10.7205 23.5099
554 1 -1.1104 9.36091 5.09755 23.7005
555 2 2.2208 7.96752 9.35526 21.9707
556 1 -1.1104 9.33345 7.99077 26.4027
557 2 2.2208 7.98356 12.1767 24.8155
558 2 2.2208 7.93713 6.48402 24.9966
559 2 2.2208 10.734 6.41279 22.2581
560 2 2.2208 10.7572 12.2072 22.1582
561 1 -1.1104 11.9862 10.728 23.466
562 1 -1.1104 12.0472 10.8011 26.284
563 1 -1.1104 12.179 8.00647 23.5264
565 2 2.2208 10.625 9.34227 24.8538
566 1 -1.1104 12.1264 7.91704 26.3183
568 1 -1.1104 9.23168 7.93696 23.4238
342 1 -1.1104 6.54393 16.4933 23.6206
576 1 -1.1104 3.99159 13.5704 20.8369
578 1 -1.1104 3.80097 16.4354 20.5434
574 1 -1.1104 0.973462 19.1987 20.8863
623 2 2.2208 10.8198 14.8681 24.9305
618 1 -1.1104 12.1079 19.3741 23.7393
573 1 -1.1104 1.13237 13.5369 20.7777
577 1 -1.1104 3.86214 19.117 20.8551
588 1 -1.1104 1.17612 16.4015 26.3617
583 2 2.2208 2.37879 20.6556 22.1662
520 1 -1.1104 0.840671 13.4301 23.4065
582 2 2.2208 2.32259 15.0643 22.0477
584 1 -1.1104 3.71521 19.1135 23.5801
586 1 -1.1104 3.55146 13.6839 23.7357
587 1 -1.1104 1.01845 19.0712 26.3896
589 1 -1.1104 0.454553 13.6324 26.1504
590 2 2.2208 5.08304 20.5644 24.8938
591 2 2.2208 5.15856 14.8735 24.9695
592 1 -1.1104 3.68466 19.0681 26.5146
593 1 -1.1104 1.14628 16.3341 23.6111
594 2 2.2208 5.18794 17.7481 22.2439
596 2 2.2208 2.4594 17.7628 25.1043
597 1 -1.1104 3.88926 16.446 26.4567
598 1 -1.1104 3.6085 13.6443 26.3572
599 1 -1.1104 1.15178 19.1924 23.607
600 1 -1.1104 3.85615 16.2899 23.4936
585 1 -1.1104 6.57643 13.6484 26.3669
8502 2 2.2208 2.26663 -4.53337 19.368
9115 2 2.2208 13.4002 12.1774 19.3345
624 2 2.2208 10.879 20.6665 25.1392
630 1 -1.1104 9.37677 13.617 26.2828
605 1 -1.1104 9.53093 16.48 26.4797
627 1 -1.1104 9.47338 19.1859 23.5422
621 1 -1.1104 12.2604 19.134 26.3806
628 2 2.2208 8.10841 17.8334 24.9111
632 2 2.2208 8.0981 15.0338 22.3018
631 1 -1.1104 9.43718 19.3788 26.292
619 2 2.2208 8.09768 20.5546 22.1923
567 1 -1.1104 12.0421 13.4393 26.2929
614 1 -1.1104 9.28676 13.6031 20.7924
611 1 -1.1104 12.0333 13.5431 20.7162
613 1 -1.1104 12.1024 16.4249 20.6424
629 1 -1.1104 6.4523 19.3875 26.1831
625 1 -1.1104 12.2292 16.3402 26.3869
617 1 -1.1104 9.53205 16.3131 23.6404
626 1 -1.1104 9.35177 13.5466 23.5281
635 1 -1.1104 6.51926 13.5276 23.4537
633 1 -1.1104 6.7469 16.5657 26.257
477 2 2.2208 2.53723 3.58386 27.7252
602 2 2.2208 7.97618 15.0368 27.7152
8674 2 2.2208 2.56788 -4.6737 24.9636
9404 2 2.2208 13.5182 0.920642 13.9153
9273 2 2.2208 13.5913 6.52295 24.8455
9380 2 2.2208 -0.362207 17.9853 22.1598
9378 2 2.2208 13.6659 20.5601 27.654
9274 2 2.2208 13.4527 9.24469 27.6974
417 2 2.2208 2.38818 17.6441 13.7548
639 2 2.2208 -0.250672 0.835478 27.7231
445 2 2.2208 13.546 17.6487 13.7684
9381 2 2.2208 -0.332978 20.5151 24.9742
9339 2 2.2208 -0.268263 6.50349 27.6312
8702 2 2.2208 10.8119 -4.68156 27.6723
534 2 2.2208 5.12787 12.1207 27.6383
533 2 2.2208 2.32673 9.32998 27.6282
418 2 2.2208 4.99884 14.6641 13.6978
446 2 2.2208 10.6761 14.964 13.7066
640 2 2.2208 5.1208 23.3645 5.13916
641 2 2.2208 5.05842 28.963 5.31664
643 1 -1.1104 1.24005 24.7269 0.896019
645 2 2.2208 5.08392 26.3127 2.48971
646 1 -1.1104 0.909187 24.6692 3.82252
648 1 -1.1104 3.70318 27.6016 1.06711
649 2 2.2208 2.32904 23.3299 2.30502
650 2 2.2208 2.25223 28.9946 2.45587
651 1 -1.1104 1.01614 27.4376 1.165
652 2 2.2208 2.30891 26.2433 5.14287
653 1 -1.1104 4.26507 24.7862 0.943585
655 1 -1.1104 3.62003 24.7506 3.71591
656 1 -1.1104 3.75091 27.6672 3.86013
661 1 -1.1104 0.841277 27.5616 3.94108
112 1 -1.1104 1.09896 21.8209 3.72482
9452 1 -1.1104 0.774415 21.8969 1.03019
124 1 -1.1104 3.7519 21.9167 3.68026
120 1 -1.1104 3.64676 22.1652 0.91164
1270 2 2.2208 5.24176 45.828 -0.290617
663 1 -1.1104 0.767454 24.8421 6.45087
665 1 -1.1104 3.71965 24.7895 6.49409
668 1 -1.1104 6.57291 27.5749 3.83616
872 2 2.2208 -0.334175 34.6725 10.8295
1049 2 2.2208 10.8898 31.648 13.5562
264 1 -1.1104 3.74875 22.0199 6.40974
666 1 -1.1104 1.05766 22.1283 6.45053
922 2 2.2208 -0.321609 40.155 10.9842
688 1 -1.1104 6.5356 27.6812 6.64228
943 1 -1.1104 12.2559 38.8304 9.38391
897 2 2.2208 13.6028 37.4018 10.9176
659 1 -1.1104 6.57494 27.6445 1.00623
134 1 -1.1104 6.61781 22.2671 1.11269
669 1 -1.1104 6.52166 22.0063 3.73136
687 1 -1.1104 6.50306 21.9947 6.49504
658 1 -1.1104 6.62313 24.9262 3.61399
1158 1 -1.1104 12.2678 24.7758 1.14686
670 2 2.2208 10.7094 23.3625 5.28819
671 2 2.2208 10.871 29.0529 5.17515
672 1 -1.1104 11.8202 27.4466 0.884652
673 1 -1.1104 12.0956 21.9616 1.13989
675 2 2.2208 10.9259 26.0954 2.53839
676 1 -1.1104 12.179 27.6177 3.77347
678 1 -1.1104 9.27278 24.7914 1.06478
679 2 2.2208 8.05682 23.3512 2.51728
680 2 2.2208 7.94815 29.0544 2.52022
681 1 -1.1104 9.46768 24.8588 3.92163
682 2 2.2208 7.92563 26.2038 5.09953
683 1 -1.1104 9.35737 21.9517 1.20777
685 1 -1.1104 9.41174 21.9761 3.89476
686 1 -1.1104 9.44566 27.5003 3.37446
140 1 -1.1104 12.303 24.7087 3.96837
141 1 -1.1104 12.1858 22.0191 3.88975
1173 2 2.2208 10.8943 23.4974 -0.166783
684 1 -1.1104 9.41284 30.1218 0.994415
1137 2 2.2208 5.08608 28.994 -0.250262
664 1 -1.1104 1.11929 30.2761 3.79844
642 1 -1.1104 0.860178 30.2627 1.15539
647 1 -1.1104 3.78191 32.9772 1.05016
644 1 -1.1104 0.985098 33.1849 1.2781
654 1 -1.1104 3.70271 30.281 1.16672
695 2 2.2208 5.19019 34.7898 5.23372
697 1 -1.1104 3.94223 33.1591 3.81132
698 1 -1.1104 0.925641 35.9944 0.571825
699 2 2.2208 5.22603 31.7472 2.59534
700 2 2.2208 5.20793 37.4465 2.48311
704 1 -1.1104 3.67108 35.9419 0.971342
705 2 2.2208 2.56326 34.5076 2.33568
706 1 -1.1104 3.79583 30.3764 4.03627
707 1 -1.1104 3.90774 35.9636 3.79413
708 2 2.2208 2.38921 31.6529 5.18991
709 2 2.2208 2.33387 37.4101 5.19266
9511 1 -1.1104 1.05839 35.8887 3.46637
713 1 -1.1104 0.934825 33.1594 3.92599
730 1 -1.1104 6.57213 30.3729 1.1725
714 1 -1.1104 0.872105 36.0243 6.40752
702 1 -1.1104 6.7036 35.998 3.73135
660 1 -1.1104 6.55517 30.3411 3.92493
1506 1 -1.1104 3.97259 47.1348 9.42721
1189 1 -1.1104 1.05342 38.7607 0.909739
716 1 -1.1104 6.64875 38.8665 6.62918
719 1 -1.1104 3.7274 36.0915 6.60655
717 1 -1.1104 1.10248 33.1619 6.63749
855 1 -1.1104 3.73664 30.296 6.78929
739 1 -1.1104 6.51334 36.1412 6.74233
994 2 2.2208 8.09256 29.0006 13.6338
1370 1 -1.1104 9.60936 47.1233 3.80009
711 1 -1.1104 6.72953 33.1387 3.91243
1209 1 -1.1104 6.61132 33.26 1.17796
710 1 -1.1104 6.62894 36.1328 1.03357
674 1 -1.1104 12.2846 30.2575 1.06118
677 1 -1.1104 12.3518 30.3995 3.8961
722 1 -1.1104 9.39902 35.8749 1.10124
723 2 2.2208 10.7859 34.6216 5.32533
725 1 -1.1104 12.1908 33.0569 1.21812
727 2 2.2208 10.8026 31.6421 2.42535
728 2 2.2208 10.8554 37.4182 2.33386
729 1 -1.1104 12.1955 35.9916 3.80563
731 1 -1.1104 12.0585 35.8105 1.07252
732 2 2.2208 8.04984 34.616 2.52495
733 1 -1.1104 9.35009 30.378 3.93541
734 1 -1.1104 9.51706 36.0827 3.88539
735 2 2.2208 8.02854 31.8862 5.38166
736 2 2.2208 8.1251 37.5418 5.07176
737 1 -1.1104 9.41661 32.9611 1.07212
738 1 -1.1104 9.51747 33.1639 3.90953
740 1 -1.1104 12.0988 33.1696 3.84409
1246 2 2.2208 10.7001 34.5305 -0.249454
789 1 -1.1104 12.3744 38.7051 3.88897
9491 2 2.2208 13.4431 34.5477 2.49201