ITEM: TIMESTEP
60000
ITEM: NUMBER OF ATOMS
17640
ITEM: BOX BOUNDS pp pp pp
-3.7944509805726800e-01 2.7719445098057456e+01
-4.5346202891570853e+00 3.3261462028916247e+02
-3.8058198167138285e-01 2.7720581981670872e+01
ITEM: ATOMS id type q x y z
1 2 2.2208 5.23617 1.20895 5.44421
3 1 -1.1104 1.05839 -0.200446 3.85103
6 2 2.2208 5.35425 -1.57605 2.5499
9 1 -1.1104 3.81621 -0.827619 0.958503
11 2 2.2208 2.43202 1.23315 2.57901
12 1 -1.1104 3.79463 -3.03116 3.46278
14 2 2.2208 2.40092 -1.55988 5.15208
16 1 -1.1104 3.75417 2.42789 1.08381
17 1 -1.1104 3.95927 2.5214 3.8622
22 1 -1.1104 1.09277 2.62633 3.86161
8156 1 -1.1104 1.04679 -0.158276 0.985895
8163 1 -1.1104 1.00025 -2.99663 3.80147
8160 1 -1.1104 3.91252 -0.296825 3.92096
8692 1 -1.1104 1.44552 -3.01069 1.07627
4 1 -1.1104 0.837026 2.51578 1.19496
23 1 -1.1104 3.86225 -3.00001 6.47591
15 2 2.2208 2.448 3.96102 5.21206
7 2 2.2208 5.35837 4.03071 2.43147
17097 2 2.2208 13.6509 -4.41407 2.51958
8172 1 -1.1104 6.4776 -0.153881 1.15671
8187 1 -1.1104 6.77087 -0.246676 4.02497
8212 2 2.2208 10.8368 -4.2919 5.30857
8180 2 2.2208 5.23768 -4.32174 5.18199
25 1 -1.1104 3.84221 -0.32882 6.62474
8525 2 2.2208 8.18181 -4.58993 13.5063
8320 1 -1.1104 6.73795 -0.146029 6.67
534 2 2.2208 5.17457 12.442 -0.383226
475 2 2.2208 5.19795 1.1705 -0.293052
46 1 -1.1104 6.81026 2.62509 3.86816
8211 1 -1.1104 6.79253 -2.95429 4.03301
26 1 -1.1104 6.71258 2.79815 1.21943
8186 1 -1.1104 6.61807 -3.10111 1.39305
8201 1 -1.1104 9.55001 -2.90902 1.1606
28 1 -1.1104 9.56402 2.69114 3.91929
29 2 2.2208 10.9784 1.25886 5.27352
31 1 -1.1104 12.2542 2.6159 1.08117
32 1 -1.1104 12.2928 -0.109303 1.06898
33 2 2.2208 11.0792 -1.576 2.48217
36 1 -1.1104 9.47128 -0.262391 1.02173
38 2 2.2208 8.00016 1.20408 2.37485
39 1 -1.1104 9.63167 -2.96934 3.86598
40 1 -1.1104 12.3862 2.55992 4.03289
41 2 2.2208 8.14668 -1.46909 5.33075
43 1 -1.1104 9.30873 2.52454 1.02153
44 1 -1.1104 9.58579 -0.217333 3.88601
8194 1 -1.1104 12.4401 -3.11596 3.915
8197 1 -1.1104 12.3644 -2.91745 1.09339
8200 1 -1.1104 12.5228 -0.225601 3.72259
42 2 2.2208 8.05031 4.10526 5.29488
34 2 2.2208 10.9972 4.07183 2.5814
8847 2 2.2208 13.7424 18.0613 2.51319
20 1 -1.1104 6.62504 2.69388 6.56188
8213 2 2.2208 8.24865 -4.25759 2.52338
274 2 2.2208 13.6814 20.8753 10.9017
47 1 -1.1104 12.2892 -0.124713 6.75537
51 1 -1.1104 9.42382 2.74914 6.543
282 1 -1.1104 12.2839 16.6371 12.2141
8744 2 2.2208 13.7603 4.15335 5.30321
293 1 -1.1104 9.46116 19.6188 9.61205
285 1 -1.1104 12.0899 16.855 9.4795
13 1 -1.1104 1.06051 5.47228 3.80031
2 1 -1.1104 0.88671 5.28525 1.26585
8 1 -1.1104 0.768545 8.28822 3.96451
10 1 -1.1104 3.88254 5.32527 1.17106
53 2 2.2208 5.22689 6.70532 5.297
54 2 2.2208 5.20188 12.4429 5.31383
56 1 -1.1104 1.06778 8.1609 1.05484
59 2 2.2208 5.0692 9.61228 2.48048
60 1 -1.1104 0.989354 11.0325 3.7685
62 1 -1.1104 3.79003 11.1361 1.07614
63 2 2.2208 2.4136 6.64487 2.48283
64 2 2.2208 2.53832 12.5289 2.53712
65 1 -1.1104 3.68374 8.12795 3.90526
66 2 2.2208 2.2991 9.535 5.35842
67 1 -1.1104 3.67714 8.20376 1.10686
70 1 -1.1104 3.91061 5.38961 3.94016
71 1 -1.1104 3.76507 11.0958 3.94572
518 1 -1.1104 1.09258 11.0904 1.05165
9316 2 2.2208 -0.224705 12.4869 -0.293913
8181 2 2.2208 2.40616 -4.49953 2.37174
5 1 -1.1104 6.65001 5.32404 0.972935
78 1 -1.1104 6.65858 5.41688 3.82973
92 1 -1.1104 6.50084 11.0563 3.89115
281 1 -1.1104 12.2006 19.6556 9.40766
77 1 -1.1104 6.44789 11.0762 1.13312
73 1 -1.1104 6.543 8.12126 3.79456
549 1 -1.1104 6.47649 8.24697 0.937059
8739 1 -1.1104 12.3278 5.4894 1.08491
27 1 -1.1104 9.53249 11.0295 3.79036
37 1 -1.1104 9.53585 5.50649 1.05359
83 2 2.2208 10.9275 6.76492 5.1291
84 2 2.2208 10.7866 12.4453 5.30706
86 1 -1.1104 9.37556 8.22059 1.14764
89 2 2.2208 10.8747 9.69943 2.4227
93 2 2.2208 7.93415 6.73051 2.41522
94 2 2.2208 8.01541 12.3121 2.43659
95 1 -1.1104 12.2968 8.27106 3.85103
96 2 2.2208 8.06806 9.64701 5.21901
97 1 -1.1104 9.32584 8.35074 3.80038
98 1 -1.1104 9.60985 11.1166 1.05981
100 1 -1.1104 9.55821 5.37887 3.85808
101 1 -1.1104 12.1963 11.1359 3.90584
8795 1 -1.1104 12.3508 11.1066 0.982091
30 1 -1.1104 12.2694 8.24132 1.07467
35 1 -1.1104 12.5207 5.4273 3.76904
8336 2 2.2208 5.28074 -4.37892 10.8526
636 2 2.2208 13.8153 12.5803 13.6652
88 1 -1.1104 12.0454 11.073 6.7645
275 2 2.2208 13.7367 18.1955 8.18912
8816 2 2.2208 -0.51183 12.4678 5.20411
531 1 -1.1104 3.75786 14.0223 1.09309
595 1 -1.1104 3.98521 19.6943 1.14583
55 1 -1.1104 0.930028 13.9494 3.79239
57 1 -1.1104 1.06284 13.8349 1.08481
61 1 -1.1104 3.925 16.7629 3.7884
68 1 -1.1104 3.80074 13.9904 3.92999
107 2 2.2208 5.36714 18.08 5.32076
108 1 -1.1104 0.916146 16.7058 1.07232
113 1 -1.1104 1.0835 19.4851 1.32878
115 2 2.2208 5.30351 15.2774 2.49097
116 2 2.2208 5.30234 20.9995 2.53515
117 1 -1.1104 0.937726 16.8339 3.8526
122 2 2.2208 2.37486 18.0591 2.56119
125 2 2.2208 2.47319 15.3152 5.2659
126 2 2.2208 2.4779 21.0261 5.29986
127 1 -1.1104 3.81917 16.954 1.12461
129 1 -1.1104 3.99859 19.5457 4.06267
130 1 -1.1104 0.915469 19.6672 4.32003
118 1 -1.1104 6.57343 16.7397 1.0775
82 1 -1.1104 6.6035 14.0214 1.08504
135 1 -1.1104 6.77226 19.7224 1.2521
581 2 2.2208 2.43538 20.8858 -0.142082
273 2 2.2208 -0.461905 15.1317 8.11818
9034 2 2.2208 -0.458702 6.82009 10.9593
8903 2 2.2208 -0.508855 15.3645 2.51609
142 1 -1.1104 12.1902 19.5743 6.56997
131 1 -1.1104 6.67845 16.8206 3.97447
133 1 -1.1104 6.6698 19.6875 4.11204
81 1 -1.1104 6.51293 13.881 3.99129
620 1 -1.1104 12.1825 16.7183 1.01653
79 1 -1.1104 9.47858 13.7106 3.91679
87 1 -1.1104 12.3095 13.902 1.17861
136 2 2.2208 10.9295 18.0267 5.32765
137 1 -1.1104 12.1918 19.503 1.05051
91 1 -1.1104 12.5388 16.8054 3.89406
143 2 2.2208 10.9548 15.3475 2.42809
144 2 2.2208 10.8002 20.7622 2.66404
145 1 -1.1104 12.4856 19.492 3.82058
146 1 -1.1104 9.44408 13.8686 1.08086
148 1 -1.1104 9.43006 19.5878 1.27781
150 2 2.2208 8.0215 18.1476 2.55105
151 1 -1.1104 12.3168 13.9014 4.16461
152 1 -1.1104 9.35742 19.4218 4.08919
153 2 2.2208 8.08076 15.2887 5.40683
154 2 2.2208 7.91924 20.8907 5.55631
155 1 -1.1104 9.52029 16.6597 1.09841
157 1 -1.1104 9.61515 16.6099 3.81508
85 1 -1.1104 12.0617 13.7825 6.83437
156 1 -1.1104 9.70405 16.6761 6.68063
147 1 -1.1104 9.22955 13.8571 6.69781
219 1 -1.1104 6.65948 13.8317 9.66383
8176 1 -1.1104 1.21129 -2.97698 6.53978
24 1 -1.1104 3.78638 2.6509 6.52711
9035 2 2.2208 -0.395176 9.67981 8.10369
182 2 2.2208 13.6736 4.0992 10.8616
18 1 -1.1104 0.991889 -0.187631 6.68281
164 1 -1.1104 1.06282 2.55789 6.60826
159 2 2.2208 5.24902 1.07273 10.8264
160 1 -1.1104 0.881205 -3.09867 12.213
161 1 -1.1104 1.01641 2.41637 12.3285
163 1 -1.1104 1.21591 -3.1285 9.47935
165 1 -1.1104 0.734416 -0.346932 12.2599
166 2 2.2208 5.27243 -1.64692 7.99393
168 1 -1.1104 1.18514 -0.236984 9.34472
170 1 -1.1104 3.68902 -3.35619 12.0075
171 1 -1.1104 3.72797 2.63542 9.39172
172 2 2.2208 2.37557 1.15471 8.04558
173 1 -1.1104 3.79639 -2.89851 9.33136
174 1 -1.1104 1.08029 2.57744 9.60627
175 2 2.2208 2.51447 -1.70539 10.8719
177 1 -1.1104 3.62358 -0.137984 12.0726
178 1 -1.1104 3.96397 -0.10037 9.36537
162 1 -1.1104 3.92336 2.56272 12.2199
176 2 2.2208 2.44559 3.95837 11.0333
167 2 2.2208 5.23865 3.94648 8.04854
8357 1 -1.1104 6.62492 -3.06245 9.44853
169 1 -1.1104 6.62748 2.50146 9.52427
184 1 -1.1104 6.75105 -0.350041 9.48702
397 2 2.2208 10.9618 9.71444 13.7739
8905 2 2.2208 13.68 1.20329 8.08599
8902 2 2.2208 -0.237928 20.9774 2.64493
183 1 -1.1104 6.62802 -3.07298 6.71635
8188 1 -1.1104 12.2121 -2.89111 6.74097
52 1 -1.1104 9.70613 -0.167514 6.80943
50 1 -1.1104 9.50507 -2.86113 6.73293
186 1 -1.1104 6.94765 0.0196289 12.1601
48 1 -1.1104 12.2369 2.82985 6.66194
321 1 -1.1104 6.81052 2.77795 12.4553
8500 1 -1.1104 6.81377 -3.22031 12.2655
187 2 2.2208 10.8035 1.13659 10.8661
188 1 -1.1104 12.3563 -2.95321 12.2621
189 1 -1.1104 12.2491 2.53744 12.3074
190 1 -1.1104 12.2423 -2.99771 9.47765
191 1 -1.1104 12.2882 2.69897 9.45806
192 1 -1.1104 12.3021 -0.196035 12.4003
193 2 2.2208 10.9274 -1.45862 8.18058
195 1 -1.1104 12.2142 -0.115944 9.47134
196 1 -1.1104 9.43001 -3.19293 12.2446
197 1 -1.1104 9.53566 2.67922 12.2331
198 2 2.2208 8.12748 1.10189 7.93399
199 1 -1.1104 9.47017 -2.89707 9.56207
200 1 -1.1104 9.38726 2.69236 9.34764
201 2 2.2208 7.91489 -1.63627 11.0025
203 1 -1.1104 9.66815 -0.218235 12.3454
204 1 -1.1104 9.49751 -0.0354759 9.56623
194 2 2.2208 10.7907 4.09174 8.05921
202 2 2.2208 7.99247 3.99079 10.9542
8865 2 2.2208 13.7408 15.2688 5.37656
8361 2 2.2208 8.19644 -4.3818 8.04651
291 1 -1.1104 9.50866 16.7419 12.1364
123 1 -1.1104 6.92865 16.7674 6.65328
280 1 -1.1104 12.2475 13.8315 9.45706
69 1 -1.1104 3.65839 11.0581 6.71666
288 2 2.2208 7.96904 18.1689 8.12761
19 1 -1.1104 1.17623 5.35378 6.7384
75 1 -1.1104 4.01915 8.2622 6.71975
72 1 -1.1104 0.873864 11.083 6.66772
76 1 -1.1104 3.8229 5.44284 6.66744
74 1 -1.1104 1.09414 8.29586 6.7451
208 2 2.2208 5.2248 6.95766 10.9688
209 2 2.2208 5.23529 12.3437 11.0399
210 1 -1.1104 1.11536 8.09457 12.3292
212 1 -1.1104 0.962398 8.2528 9.62793
213 1 -1.1104 1.08574 5.34649 12.3956
214 1 -1.1104 1.11893 10.9935 12.4159
215 2 2.2208 5.24411 9.69463 8.06128
216 1 -1.1104 1.00371 5.34537 9.75
217 1 -1.1104 0.980107 11.0658 9.49386
220 1 -1.1104 3.85117 8.16286 12.4364
221 2 2.2208 2.54717 6.92847 8.25146
222 2 2.2208 2.39389 12.4089 8.05195
223 1 -1.1104 3.8884 8.13868 9.63352
224 2 2.2208 2.50726 9.57049 11.076
225 1 -1.1104 3.7917 5.39501 12.6106
226 1 -1.1104 3.89467 11.0971 12.234
227 1 -1.1104 3.87225 5.39729 9.57402
228 1 -1.1104 3.94155 10.9038 9.48001
102 1 -1.1104 6.66793 8.2186 6.57625
234 1 -1.1104 6.71106 10.9936 12.507
232 1 -1.1104 6.68717 11.0688 9.64475
149 1 -1.1104 9.37219 19.5584 6.65706
290 1 -1.1104 9.36766 13.7618 9.46432
106 1 -1.1104 9.3895 5.51405 6.56823
80 1 -1.1104 6.61453 11.248 6.74288
185 1 -1.1104 6.69806 5.29702 9.38438
21 1 -1.1104 6.65691 5.49342 6.60384
104 1 -1.1104 12.3013 5.52398 6.61912
103 1 -1.1104 12.248 8.21363 6.57067
233 1 -1.1104 6.59753 5.44705 12.2664
218 1 -1.1104 6.72702 8.3401 9.39218
211 1 -1.1104 6.66826 8.20475 12.3659
105 1 -1.1104 9.56291 8.1406 6.59533
99 1 -1.1104 9.33554 11.0967 6.67412
235 1 -1.1104 9.51683 11.0146 9.46793
236 1 -1.1104 9.56531 5.48951 9.50697
237 1 -1.1104 9.38524 11.3161 12.1942
238 1 -1.1104 9.38048 5.41686 12.3421
239 2 2.2208 8.12847 9.73678 11.0761
240 1 -1.1104 9.49938 8.30097 9.34585
241 2 2.2208 8.07507 12.3695 8.11321
242 2 2.2208 8.13334 6.90209 8.12788
243 2 2.2208 10.9086 6.75385 11.0102
244 2 2.2208 10.8241 12.4941 10.9616
245 1 -1.1104 12.2587 8.11081 12.473
246 1 -1.1104 12.2089 8.1547 9.49475
247 1 -1.1104 12.2741 5.3241 12.2904
248 1 -1.1104 12.2507 10.9192 12.243
249 2 2.2208 10.8438 9.58372 8.11919
250 1 -1.1104 12.373 5.47753 9.5554
251 1 -1.1104 12.2867 10.9878 9.57087
252 1 -1.1104 9.5644 8.30742 12.2901
8785 2 2.2208 -0.493342 3.97494 2.45458
230 2 2.2208 8.04966 15.1519 10.8775
8808 2 2.2208 13.714 7.05484 2.44679
286 1 -1.1104 9.4339 13.8754 12.466
158 1 -1.1104 6.59569 13.8517 12.4041
292 1 -1.1104 9.34248 16.6938 9.36162
128 1 -1.1104 3.94295 16.5882 6.76292
121 1 -1.1104 1.19312 17.0669 6.52
111 1 -1.1104 3.40936 19.5337 6.781
132 1 -1.1104 6.49899 19.6139 6.86941
58 1 -1.1104 0.742584 13.8734 6.65573
119 1 -1.1104 3.56266 13.8453 6.74809
206 1 -1.1104 6.6676 16.8553 9.35697
259 1 -1.1104 1.07821 16.4697 9.3244
253 1 -1.1104 3.62469 19.4055 12.2094
254 1 -1.1104 3.69869 13.8725 12.3941
255 1 -1.1104 3.87799 19.3915 9.55755
256 1 -1.1104 1.12065 19.3944 9.54023
257 1 -1.1104 1.03278 13.8343 9.56236
258 2 2.2208 4.97552 20.938 8.07234
260 2 2.2208 5.17778 15.2487 8.27072
261 1 -1.1104 0.822311 19.4231 12.383
262 1 -1.1104 0.870628 13.8527 12.2492
263 2 2.2208 5.33229 18.1798 11.0395
265 2 2.2208 2.49015 17.8618 8.1913
266 1 -1.1104 3.93806 16.4979 9.51978
267 1 -1.1104 3.84947 13.7492 9.37596
268 1 -1.1104 1.02462 16.6932 12.407
269 1 -1.1104 3.76514 16.6882 12.2654
270 2 2.2208 2.3808 20.7547 11.0328
271 2 2.2208 2.28259 15.248 11.0834
45 1 -1.1104 6.63453 16.6927 12.292
229 1 -1.1104 6.6436 19.6449 9.54124
278 1 -1.1104 12.2771 19.6392 12.1426
284 2 2.2208 10.7918 20.9436 8.01514
276 2 2.2208 10.7839 18.1968 10.8121
110 1 -1.1104 6.43391 14.1326 6.69058
289 2 2.2208 7.89202 20.9858 10.9324
205 1 -1.1104 6.81467 19.2401 12.286
287 1 -1.1104 9.56502 19.4447 12.2598
138 1 -1.1104 12.4189 16.5066 6.72245
283 2 2.2208 10.9292 15.2914 8.12033
277 1 -1.1104 12.2474 13.7829 12.2673
8754 2 2.2208 13.8608 1.35563 2.50543
9031 2 2.2208 13.7836 -1.605 5.27634
396 2 2.2208 8.04006 12.4403 13.8655
8783 2 2.2208 -0.319964 -1.57721 2.41047
8817 2 2.2208 -0.45293 9.69594 2.52803
181 2 2.2208 -0.349579 1.08793 10.8651
602 2 2.2208 8.13929 15.3127 -0.256017
8814 2 2.2208 13.7358 12.5492 2.45768
369 2 2.2208 5.31796 9.5417 13.9145
9033 2 2.2208 13.6709 -1.47778 10.9505
579 2 2.2208 2.54952 15.2472 -0.413961
315 2 2.2208 2.44004 0.898322 13.7093
446 2 2.2208 10.7598 15.2545 13.7806
314 2 2.2208 -0.418915 -1.84605 13.6272
316 2 2.2208 5.29734 3.97325 13.8517
603 2 2.2208 10.8247 18.2086 -0.301792
580 2 2.2208 5.29165 18.1792 -0.286434
296 2 2.2208 5.22221 0.932337 16.4055
297 1 -1.1104 0.871797 -2.9241 17.8032
298 1 -1.1104 0.944084 2.5438 17.9215
299 1 -1.1104 1.0781 -3.10309 14.9862
300 1 -1.1104 1.06787 2.52951 15.1879
301 1 -1.1104 0.763543 -0.153016 17.8099
302 2 2.2208 5.27293 -1.58081 19.3441
304 1 -1.1104 0.775577 -0.306138 15.0394
305 1 -1.1104 3.76254 -3.00946 17.9967
306 1 -1.1104 3.75382 2.48744 17.9517
307 2 2.2208 2.39822 1.12923 19.311
308 1 -1.1104 3.6874 -3.20533 15.1473
309 1 -1.1104 3.89414 2.47679 14.9701
310 2 2.2208 2.36443 -1.71345 16.4468
311 2 2.2208 2.50861 3.75334 16.4683
312 1 -1.1104 3.77388 -0.235889 17.9216
313 1 -1.1104 3.68792 -0.304073 15.3377
303 2 2.2208 5.27441 3.79158 19.1418
448 1 -1.1104 0.914379 -2.99757 20.7788
17605 2 2.2208 -0.417519 -4.36243 22.0107
322 1 -1.1104 6.68042 -0.423662 17.9548
8527 2 2.2208 7.96494 -4.45842 19.2861
8700 2 2.2208 10.8349 -4.5788 22.0485
8699 2 2.2208 8.05293 -4.55703 25.0559
509 2 2.2208 10.9098 1.14605 27.8452
611 1 -1.1104 12.5261 13.9128 20.7697
8507 1 -1.1104 6.68337 -3.0452 17.5584
319 1 -1.1104 6.51527 2.36925 17.9182
323 1 -1.1104 6.69882 2.56267 15.2879
320 1 -1.1104 6.89533 -0.3029 15.1606
324 2 2.2208 11.0587 1.20868 16.5405
325 1 -1.1104 12.148 -3.06171 15.1271
326 1 -1.1104 12.1827 2.62319 18.0576
328 1 -1.1104 12.3792 2.60302 15.0918
329 1 -1.1104 12.4829 -0.166154 17.912
330 2 2.2208 10.8309 -1.63858 19.2789
332 1 -1.1104 12.3176 -0.273484 15.25
333 1 -1.1104 9.37333 -2.96579 17.8875
334 1 -1.1104 9.48062 2.67257 17.8332
335 2 2.2208 7.9877 1.02179 19.3786
336 1 -1.1104 9.15174 -3.03677 15.1912
337 1 -1.1104 9.6006 2.41028 15.1269
338 2 2.2208 8.21396 -1.49416 16.5265
340 1 -1.1104 9.4487 -0.139361 17.9192
341 1 -1.1104 9.61411 -0.249688 15.1685
8709 1 -1.1104 12.2441 -3.04343 17.7867
331 2 2.2208 10.8182 3.98642 19.3174
339 2 2.2208 8.04667 3.88789 16.4702
482 1 -1.1104 12.0929 2.67593 20.7954
606 2 2.2208 11.1921 18.0896 22.2537
318 1 -1.1104 6.56361 -3.0262 20.4679
485 1 -1.1104 9.3793 2.56898 20.5904
627 1 -1.1104 9.41597 19.7943 23.8156
346 2 2.2208 5.30625 6.69856 16.4664
347 2 2.2208 5.14443 12.4924 16.5562
348 1 -1.1104 0.91172 8.17848 17.9448
349 1 -1.1104 1.22808 8.24316 15.1113
351 1 -1.1104 1.00475 5.42338 17.8955
352 1 -1.1104 1.07972 10.8731 17.9929
353 2 2.2208 5.20902 9.52628 19.252
354 1 -1.1104 1.02932 5.39418 15.2559
356 1 -1.1104 1.07943 11.1535 15.1152
357 1 -1.1104 3.76822 8.14099 17.891
358 2 2.2208 2.41968 6.72548 19.3308
359 2 2.2208 2.49093 12.388 19.2886
360 1 -1.1104 4.01047 8.18866 15.2736
362 2 2.2208 2.47021 9.54835 16.5149
363 1 -1.1104 3.89438 5.4146 18.1407
364 1 -1.1104 3.98934 11.0759 17.9227
365 1 -1.1104 3.83054 5.3227 15.4051
367 1 -1.1104 3.86261 10.941 15.077
355 1 -1.1104 0.910538 5.37768 20.7344
8502 2 2.2208 2.48342 -4.46536 19.3718
361 1 -1.1104 3.69293 8.30081 20.5782
513 1 -1.1104 0.984853 10.9217 20.7063
372 1 -1.1104 6.58703 8.11832 17.6908
373 1 -1.1104 6.67906 8.09241 15.0602
375 1 -1.1104 6.78216 10.9086 18.1578
8674 2 2.2208 2.39531 -4.43664 24.7892
9273 2 2.2208 13.7465 6.9097 24.905
343 2 2.2208 8.20125 1.27405 13.7069
374 1 -1.1104 6.63831 5.18112 17.7975
377 1 -1.1104 6.70309 11.1281 15.4366
376 1 -1.1104 6.67934 5.43436 14.9294
378 2 2.2208 10.8238 6.76475 16.4687
379 2 2.2208 10.9576 12.3893 16.4501
380 1 -1.1104 12.2181 8.29896 17.8447
381 1 -1.1104 12.2869 8.34199 15.0796
382 1 -1.1104 12.0826 5.3387 17.8273
383 1 -1.1104 12.2602 11.0121 17.8209
384 2 2.2208 10.9427 9.67035 19.3334
385 1 -1.1104 12.1004 5.49762 15.0401
386 1 -1.1104 12.1809 11.1875 15.1269
387 1 -1.1104 9.37632 8.36181 17.9175
388 2 2.2208 7.94217 6.83613 19.2298
389 2 2.2208 8.07602 12.3542 19.4484
390 1 -1.1104 9.55277 8.18498 15.0572
391 2 2.2208 8.13711 9.56845 16.3422
392 1 -1.1104 9.36726 5.46804 17.8831
393 1 -1.1104 9.57713 11.204 18.02
394 1 -1.1104 9.49666 5.40801 15.0535
395 1 -1.1104 9.55736 10.9441 15.0242
564 1 -1.1104 12.3115 13.8332 23.6221
621 1 -1.1104 12.2322 19.5161 26.2708
399 2 2.2208 5.19619 18.2109 16.5243
400 1 -1.1104 1.3344 13.605 17.8229
401 1 -1.1104 1.02044 19.054 17.9518
402 1 -1.1104 1.1417 13.8684 14.961
403 1 -1.1104 0.827332 19.4071 15.1126
404 1 -1.1104 3.52614 16.8177 17.9469
405 2 2.2208 5.24888 15.2848 19.2951
406 2 2.2208 5.18786 20.9424 19.313
407 1 -1.1104 1.05694 16.7911 15.5133
408 1 -1.1104 3.94033 13.9942 17.8389
410 2 2.2208 2.60434 18.1345 19.466
411 1 -1.1104 3.83375 13.8495 15.0982
412 1 -1.1104 3.64018 19.408 15.1854
413 2 2.2208 2.47548 15.1629 16.4894
414 2 2.2208 2.34209 20.7852 16.3046
415 1 -1.1104 3.85888 19.6121 17.966
416 1 -1.1104 3.72371 16.716 15.1633
9148 2 2.2208 -0.418874 6.75053 16.4489
576 1 -1.1104 3.8351 13.8426 20.6158
578 1 -1.1104 3.90071 16.7997 20.8655
418 2 2.2208 5.14697 15.3176 13.5705
368 2 2.2208 2.48418 6.74428 13.8148
9149 2 2.2208 -0.491649 9.59598 19.2439
424 1 -1.1104 6.42654 16.7845 17.9631
9376 2 2.2208 13.7713 15.4055 22.2386
421 1 -1.1104 6.73059 19.5756 17.9205
425 1 -1.1104 6.48704 16.5624 15.0321
422 1 -1.1104 6.7417 13.844 15.2448
420 1 -1.1104 6.59578 13.7702 18.0974
423 1 -1.1104 6.91543 19.2635 15.3135
426 2 2.2208 10.7864 18.023 16.4718
427 1 -1.1104 12.2389 13.9799 17.9731
428 1 -1.1104 12.3918 19.4593 17.9704
429 1 -1.1104 12.3673 13.8301 15.1413
430 1 -1.1104 12.1887 19.4564 14.9827
431 1 -1.1104 12.2949 16.7252 17.8648
432 2 2.2208 10.7983 15.2748 19.3645
433 2 2.2208 10.9607 20.9335 19.2854
434 1 -1.1104 12.0464 16.7271 15.044
435 1 -1.1104 9.28476 13.8773 17.9393
436 1 -1.1104 9.50935 19.3988 17.9265
437 2 2.2208 8.13754 18.1813 19.4388
438 1 -1.1104 9.51053 13.764 15.1897
439 1 -1.1104 9.64578 19.6353 15.1333
440 2 2.2208 7.96692 15.2333 16.5625
442 1 -1.1104 9.29069 16.7644 17.9351
443 1 -1.1104 9.34705 16.567 15.0916
441 2 2.2208 8.22273 20.8105 16.4635
614 1 -1.1104 9.42727 14.0099 20.6786
613 1 -1.1104 12.1627 16.567 20.6558
616 1 -1.1104 9.57582 16.7177 20.6776
570 2 2.2208 7.97179 9.57549 27.7396
9272 2 2.2208 -0.422102 1.22892 22.0293
449 1 -1.1104 1.05354 2.56335 20.7102
8526 2 2.2208 10.7678 -4.45027 16.5351
451 1 -1.1104 1.05658 -0.160986 20.5465
452 1 -1.1104 3.77532 -3.13129 20.6121
453 1 -1.1104 3.84269 2.47046 20.7094
454 1 -1.1104 3.96997 -0.285284 20.7143
8686 1 -1.1104 0.984384 -3.0074 23.3774
455 2 2.2208 5.18772 1.12736 22.1371
456 1 -1.1104 0.763481 -2.7873 26.2641
457 1 -1.1104 1.02505 2.63707 23.5976
459 1 -1.1104 1.11675 2.59442 26.4269
461 1 -1.1104 1.16289 -0.0818462 23.492
463 2 2.2208 5.17342 -1.65089 25.0882
465 1 -1.1104 0.956992 0.0312549 26.3058
466 1 -1.1104 3.90076 -2.79243 23.4289
467 1 -1.1104 3.64983 3.13977 23.5925
468 2 2.2208 2.41152 1.31775 25.0222
469 1 -1.1104 3.47181 -2.80132 26.2052
470 1 -1.1104 3.90514 2.54743 26.419
471 2 2.2208 2.41443 -1.58336 22.0967
473 1 -1.1104 3.84172 -0.0643349 23.5647
474 1 -1.1104 3.69353 0.0251592 26.4022
464 2 2.2208 5.34811 3.98491 25.0017
472 2 2.2208 2.12322 4.08954 22.2136
480 1 -1.1104 6.69466 -0.297318 20.7933
479 1 -1.1104 6.60979 2.41175 20.6993
488 1 -1.1104 6.61205 2.57352 23.5663
450 1 -1.1104 6.50456 -2.96165 23.5148
489 1 -1.1104 6.35131 -0.301154 26.5296
478 2 2.2208 -0.26839 4.05259 25.155
486 1 -1.1104 9.52119 -0.351681 20.665
8713 1 -1.1104 12.1301 -3.25017 20.6305
342 1 -1.1104 6.79662 16.6803 23.5821
9239 2 2.2208 13.629 -1.62594 22.1333
615 1 -1.1104 9.54329 19.3855 20.9039
484 1 -1.1104 9.29512 -3.17961 20.7838
462 1 -1.1104 6.58994 -0.300487 23.6955
490 1 -1.1104 6.75258 2.49106 26.5437
487 1 -1.1104 6.7211 -3.13835 26.3198
481 1 -1.1104 12.2398 -0.170821 20.607
8716 1 -1.1104 12.2062 -2.97259 26.3449
483 1 -1.1104 12.3237 -0.144568 23.557
491 2 2.2208 10.8635 1.19738 22.1293
492 1 -1.1104 12.2917 -2.98641 23.5098
494 1 -1.1104 12.226 -0.14165 26.4452
496 1 -1.1104 12.2814 2.63303 23.5056
497 2 2.2208 10.8421 -1.6556 24.779
499 1 -1.1104 12.3525 2.74789 26.2948
500 1 -1.1104 9.40841 -3.10263 23.4322
501 1 -1.1104 9.46306 2.71713 23.3634
502 2 2.2208 8.11926 1.27448 24.9681
503 1 -1.1104 9.59529 -2.96384 26.2197
504 1 -1.1104 9.52434 2.66355 26.1939
505 2 2.2208 7.93573 -1.7394 22.1961
507 1 -1.1104 9.41093 -0.204152 23.4573
508 1 -1.1104 9.32308 -0.207041 26.3848
498 2 2.2208 10.8053 4.0369 24.9044
506 2 2.2208 7.95596 4.00032 21.9993
510 2 2.2208 8.00928 -1.75274 27.8018
630 1 -1.1104 9.49668 13.9317 26.4575
514 1 -1.1104 3.86482 11.1036 20.5987
477 2 2.2208 2.48759 3.94583 27.791
9333 1 -1.1104 0.757833 8.3042 26.5056
350 1 -1.1104 1.04717 8.07736 21.2638
366 1 -1.1104 3.49109 5.7217 21.4242
515 2 2.2208 5.06776 6.88303 22.1287
516 2 2.2208 5.28471 12.4707 22.2006
517 1 -1.1104 1.06953 10.5881 23.5156
519 1 -1.1104 0.489976 5.33984 23.5025
521 2 2.2208 5.27276 9.59485 24.9956
522 1 -1.1104 1.01045 5.4001 26.6381
523 1 -1.1104 1.0362 11.1256 26.3576
524 1 -1.1104 3.76899 11.3246 23.4699
525 2 2.2208 2.39128 12.4425 24.7828
526 1 -1.1104 3.94525 8.47531 26.5687
527 2 2.2208 2.56027 9.69118 22.0066
528 1 -1.1104 3.9219 8.43516 23.4032
529 1 -1.1104 3.88596 11.1217 26.2518
530 1 -1.1104 3.99399 5.15413 26.4396
547 1 -1.1104 6.44202 5.55706 23.5637
538 1 -1.1104 6.58031 11.0584 20.7117
550 1 -1.1104 6.68042 10.9797 26.3721
545 1 -1.1104 6.79843 8.2705 23.478
447 2 2.2208 8.00931 17.9626 13.7162
476 2 2.2208 2.2847 -1.51088 27.5897
541 1 -1.1104 12.3159 11.1342 20.6525
540 1 -1.1104 12.2661 5.42509 20.4939
539 1 -1.1104 12.262 8.27499 20.5902
537 1 -1.1104 6.3883 5.22502 20.5728
536 1 -1.1104 6.47997 8.09516 20.6232
543 1 -1.1104 9.31592 5.37305 20.756
544 1 -1.1104 9.62574 11.0104 20.8833
548 1 -1.1104 6.62576 11.0708 23.4989
542 1 -1.1104 9.46048 8.18493 20.6639
546 1 -1.1104 6.62376 8.22536 26.216
460 1 -1.1104 6.94727 5.43581 26.2667
495 1 -1.1104 12.4532 5.52158 26.4354
493 1 -1.1104 12.1052 5.5237 23.3708
551 1 -1.1104 9.42923 11.001 26.3454
552 1 -1.1104 9.61919 5.51744 26.4406
553 1 -1.1104 9.43804 11.2252 23.5097
554 1 -1.1104 9.25408 5.37267 23.591
555 2 2.2208 8.0948 9.66676 22.084
556 1 -1.1104 9.57129 8.27714 26.2876
557 2 2.2208 8.00144 12.4273 25.0303
558 2 2.2208 8.04429 6.92608 24.8138
559 2 2.2208 10.7826 6.78884 22.0129
560 2 2.2208 10.8677 12.5276 22.3289
561 1 -1.1104 12.3164 11.0558 23.4965
562 1 -1.1104 12.171 11.0651 26.2694
563 1 -1.1104 12.2376 8.16979 23.3821
565 2 2.2208 10.9295 9.5722 24.8435
566 1 -1.1104 12.2727 8.20534 26.3888
568 1 -1.1104 9.46983 8.27281 23.5881
609 1 -1.1104 6.82857 19.5628 20.7635
417 2 2.2208 2.38523 18.1251 13.7143
573 1 -1.1104 1.22574 13.6254 20.9964
635 1 -1.1104 6.63677 13.9772 23.6662
9304 2 2.2208 13.6238 9.61388 22.0101
575 1 -1.1104 1.20029 16.8108 20.951
574 1 -1.1104 1.07807 19.6117 20.7899
600 1 -1.1104 3.93493 16.7966 23.7496
599 1 -1.1104 1.06496 19.572 23.8042
598 1 -1.1104 3.81485 13.8256 26.4089
9380 2 2.2208 -0.134396 18.1549 22.3338
9381 2 2.2208 -0.191467 20.907 25.1202
577 1 -1.1104 3.93268 19.7781 20.7462
588 1 -1.1104 1.0783 16.8187 26.4251
583 2 2.2208 2.25002 21.1136 22.1064
520 1 -1.1104 1.05921 13.8426 23.616
582 2 2.2208 2.4012 15.3106 22.0127
584 1 -1.1104 3.77535 19.5727 23.6095
586 1 -1.1104 3.91681 14.0512 23.4781
587 1 -1.1104 1.10556 19.569 26.4784
589 1 -1.1104 0.85156 14.0223 26.3759
590 2 2.2208 5.20998 20.9016 25.0012
591 2 2.2208 5.34209 15.2931 24.93
592 1 -1.1104 3.87136 19.619 26.4689
593 1 -1.1104 1.13689 16.8295 23.7576
594 2 2.2208 5.42707 18.0627 22.1988
596 2 2.2208 2.51739 18.2029 25.0731
597 1 -1.1104 3.99139 16.8552 26.5785
618 1 -1.1104 12.2805 19.6807 23.6368
632 2 2.2208 8.00641 15.3618 22.1104
624 2 2.2208 10.8767 20.9527 24.9671
629 1 -1.1104 6.60299 19.5528 26.3987
17571 2 2.2208 13.6514 -4.34045 24.8739
607 1 -1.1104 12.408 16.503 23.9036
608 1 -1.1104 6.63301 13.9743 20.8146
612 1 -1.1104 12.1494 19.7224 20.7132
628 2 2.2208 8.11499 18.1042 25.0368
626 1 -1.1104 9.3458 13.9756 23.636
585 1 -1.1104 6.58188 13.9008 26.2911
567 1 -1.1104 12.1913 13.8906 26.3848
623 2 2.2208 10.8781 15.3001 24.9696
625 1 -1.1104 12.1881 16.7535 26.4127
619 2 2.2208 8.04548 21.0467 22.152
617 1 -1.1104 9.65365 16.813 23.5613
605 1 -1.1104 9.59309 16.7144 26.4541
633 1 -1.1104 6.81883 16.6729 26.423
610 1 -1.1104 6.70284 16.8019 20.807
634 1 -1.1104 6.64828 19.5488 23.6317
631 1 -1.1104 9.41101 19.7122 26.5702
9384 2 2.2208 -0.198044 15.3545 24.8666
444 2 2.2208 10.9389 20.9003 13.612
9227 2 2.2208 13.5858 4.0596 22.1026
9059 2 2.2208 13.7076 1.27497 19.3226
638 2 2.2208 13.7161 1.20075 25.0007
9066 2 2.2208 13.7067 -1.63199 16.6348
9315 2 2.2208 -0.240275 12.4245 22.0672
9113 2 2.2208 13.7996 9.63665 16.4367
17400 2 2.2208 13.6407 -4.57137 19.2237
9235 2 2.2208 13.7568 4.08086 27.8679
571 2 2.2208 10.9312 12.457 27.7875
9383 2 2.2208 -0.384279 18.0241 27.7568
511 2 2.2208 8.1404 4.07803 27.8283
370 2 2.2208 2.3776 12.334 13.7491
532 2 2.2208 5.18503 6.84428 27.71
398 2 2.2208 8.12819 6.70687 13.647
533 2 2.2208 2.36369 9.62654 27.8542
569 2 2.2208 10.8899 6.81247 27.7744
8702 2 2.2208 10.9017 -4.42283 27.7038
604 2 2.2208 8.09031 20.9957 27.853
345 2 2.2208 10.8392 3.94384 13.7513
344 2 2.2208 10.968 -1.64417 13.7385
640 2 2.2208 5.2513 23.7909 5.18438
641 2 2.2208 5.26558 29.4279 5.29834
643 1 -1.1104 1.29462 25.1774 1.04535
645 2 2.2208 5.14383 26.6496 2.524
646 1 -1.1104 0.974941 25.0733 4.03573
648 1 -1.1104 3.75702 27.9703 1.10482
649 2 2.2208 2.56435 23.8418 2.49087
650 2 2.2208 2.35254 29.5412 2.58053
651 1 -1.1104 1.0534 28.0061 1.02031
652 2 2.2208 2.429 26.7081 5.25978
653 1 -1.1104 4.40959 25.2538 0.969702
655 1 -1.1104 3.75706 25.294 3.94434
656 1 -1.1104 3.84826 28.1067 3.90851
661 1 -1.1104 1.0574 28.0134 3.76293
112 1 -1.1104 1.2086 22.4045 3.85802
9452 1 -1.1104 1.00148 22.2449 1.1962
124 1 -1.1104 3.96441 22.3885 3.86013
120 1 -1.1104 3.88479 22.407 1.00946
663 1 -1.1104 0.958558 25.2453 6.83741
264 1 -1.1104 3.85372 22.4379 6.5108
1137 2 2.2208 5.12309 29.3213 -0.303156
658 1 -1.1104 6.87069 25.2653 3.23066
9757 2 2.2208 -0.319347 40.5557 -0.455611
667 1 -1.1104 3.71797 28.0571 6.63858
1050 2 2.2208 11.0107 37.887 13.6239
9549 2 2.2208 13.6133 40.4647 2.12556
659 1 -1.1104 6.55686 27.8678 1.10127
9464 2 2.2208 -0.166945 23.7018 5.27578
668 1 -1.1104 6.6981 27.96 3.89387
669 1 -1.1104 6.66602 22.4598 3.98681
134 1 -1.1104 6.73093 22.6238 1.11859
1158 1 -1.1104 12.2533 24.9559 1.11893
670 2 2.2208 10.886 23.7574 5.42061
671 2 2.2208 10.8137 29.3699 5.26946
672 1 -1.1104 11.8986 27.8528 0.979365
673 1 -1.1104 12.3217 22.1701 1.20523
675 2 2.2208 10.8817 26.3828 2.33121
676 1 -1.1104 12.2366 27.9233 3.76178
678 1 -1.1104 9.51839 25.0393 0.981354
679 2 2.2208 8.22305 23.7111 2.49435
680 2 2.2208 7.81576 29.364 2.34952
681 1 -1.1104 9.64001 25.1693 3.77996
682 2 2.2208 8.08607 26.6043 5.10857
683 1 -1.1104 9.62639 22.3138 1.1849
685 1 -1.1104 9.54094 22.3213 3.99547
686 1 -1.1104 9.40747 27.9647 3.28194
140 1 -1.1104 12.3507 25.139 3.88264
141 1 -1.1104 12.3751 22.4244 3.96788
694 1 -1.1104 9.44456 27.8836 6.46608
662 1 -1.1104 6.62339 25.2144 6.32818
692 1 -1.1104 9.48047 25.1924 6.56681
689 1 -1.1104 12.2828 27.9602 6.56519
9581 2 2.2208 -0.310953 43.3565 2.39546
896 2 2.2208 13.6179 35.0463 8.26683
664 1 -1.1104 1.01736 30.8224 4.03786
642 1 -1.1104 0.931745 30.9196 1.01859
647 1 -1.1104 3.85921 33.3693 0.998325
644 1 -1.1104 0.896344 33.6143 1.05942
654 1 -1.1104 3.82435 30.7274 1.1648
695 2 2.2208 5.23609 34.9973 5.14384
697 1 -1.1104 3.81722 33.6942 3.68349
698 1 -1.1104 0.961223 36.4815 0.597534
699 2 2.2208 5.11054 32.2672 2.44756
700 2 2.2208 5.3005 37.8808 2.52445
704 1 -1.1104 3.81377 36.4408 1.1352
705 2 2.2208 2.42371 35.0373 2.3638
706 1 -1.1104 3.79053 30.9205 3.89993
707 1 -1.1104 3.86566 36.5678 3.76672
708 2 2.2208 2.40076 32.2423 5.23579
709 2 2.2208 2.30439 37.9287 5.1924
9511 1 -1.1104 1.05265 36.5153 3.69054
713 1 -1.1104 1.05738 33.6203 3.95532
714 1 -1.1104 0.863777 36.3812 6.60461
9522 2 2.2208 -0.319562 37.7388 2.25034
710 1 -1.1104 6.67618 36.3758 1.10698
660 1 -1.1104 6.5981 30.8893 3.84993
9580 2 2.2208 -0.353604 46.2698 5.14005
1244 2 2.2208 8.14497 37.777 -0.434067
9708 2 2.2208 13.6419 43.57 5.43531
718 1 -1.1104 6.65795 30.8128 6.68054
684 1 -1.1104 9.46911 30.3878 0.987937
711 1 -1.1104 6.58374 33.6425 3.91569
702 1 -1.1104 6.63166 36.4647 3.98408
1246 2 2.2208 10.7919 34.7844 -0.135486
730 1 -1.1104 6.54269 30.7489 1.03192
1209 1 -1.1104 6.57671 33.7028 1.14288
674 1 -1.1104 12.39 30.6335 0.944402
677 1 -1.1104 12.1316 30.691 3.73076
722 1 -1.1104 9.45397 36.2675 0.988125
723 2 2.2208 10.8525 35.0263 5.24434
725 1 -1.1104 12.2911 33.3522 1.21494
727 2 2.2208 10.7563 32.046 2.37483
728 2 2.2208 10.8941 37.757 2.40933
729 1 -1.1104 12.1802 36.3027 3.91616
731 1 -1.1104 12.0648 36.0412 1.34593
732 2 2.2208 7.93986 35.0107 2.49903
733 1 -1.1104 9.36178 30.6827 3.69165
734 1 -1.1104 9.40804 36.3219 3.95951
735 2 2.2208 8.07517 32.1921 5.33219
736 2 2.2208 8.0695 37.7193 5.30228
737 1 -1.1104 9.36598 33.3361 1.08425
738 1 -1.1104 9.26546 33.6564 3.86351
740 1 -1.1104 12.1188 33.4194 3.89071
745 1 -1.1104 9.41034 33.5552 6.6064
940 2 2.2208 8.19923 40.7456 8.01507
995 2 2.2208 8.15566 23.8264 13.6192