ITEM: TIMESTEP
20000
ITEM: NUMBER OF ATOMS
17640
ITEM: BOX BOUNDS pp pp pp
-3.8572194622210088e-01 2.7725721946222006e+01
-4.5813559929813641e+00 3.3266135599297917e+02
-3.7003592594925111e-01 2.7710035925949317e+01
ITEM: ATOMS id type q x y z
1 2 2.2208 5.26457 1.04932 5.13182
3 1 -1.1104 1.01632 -0.586115 3.74655
6 2 2.2208 5.46075 -1.92738 2.31674
9 1 -1.1104 4.00034 -0.87013 0.879231
11 2 2.2208 2.44934 0.69322 2.39682
12 1 -1.1104 3.93137 -3.06281 3.32679
14 2 2.2208 2.56875 -1.90103 5.13206
16 1 -1.1104 3.67739 2.13444 0.934447
17 1 -1.1104 3.7925 2.45006 3.73425
22 1 -1.1104 1.18743 2.27722 4.0082
8156 1 -1.1104 1.21697 -0.450205 0.832219
8163 1 -1.1104 0.911064 -3.3473 3.57668
8160 1 -1.1104 3.71659 -0.34534 3.69137
8692 1 -1.1104 1.26128 -3.1342 0.897987
4 1 -1.1104 1.01734 2.35004 1.12663
15 2 2.2208 2.54804 3.61804 5.26209
23 1 -1.1104 3.92251 -3.27743 6.38166
18 1 -1.1104 1.15546 -0.606855 6.5004
7 2 2.2208 5.23335 3.79607 2.44596
8187 1 -1.1104 6.5952 -0.46266 3.7196
8783 2 2.2208 -0.318039 -1.89637 2.27372
8785 2 2.2208 -0.29348 3.561 2.34766
8176 1 -1.1104 1.30398 -3.30572 6.51938
25 1 -1.1104 3.93851 -0.594023 6.56898
24 1 -1.1104 3.73951 2.27363 6.61461
8211 1 -1.1104 6.8203 -3.3103 3.72999
46 1 -1.1104 6.74229 2.36738 3.74066
8186 1 -1.1104 6.76925 -3.40594 0.995652
8172 1 -1.1104 6.82208 -0.711319 0.969196
26 1 -1.1104 6.69699 2.16554 1.0548
8201 1 -1.1104 9.55338 -3.18863 1.00123
28 1 -1.1104 9.55818 2.378 3.78239
29 2 2.2208 10.91 0.938226 5.328
31 1 -1.1104 12.1188 2.32416 1.10688
32 1 -1.1104 12.2269 -0.607468 1.04631
33 2 2.2208 10.9175 -1.86707 2.36151
34 2 2.2208 10.9149 3.8637 2.5093
36 1 -1.1104 9.56854 -0.545399 0.9333
38 2 2.2208 8.22404 0.931418 2.38313
39 1 -1.1104 9.43172 -3.24145 3.86988
40 1 -1.1104 12.2297 2.4235 3.88786
41 2 2.2208 8.14332 -1.93534 5.21719
42 2 2.2208 8.05205 3.69776 5.16131
43 1 -1.1104 9.4809 2.40591 1.12087
44 1 -1.1104 9.65376 -0.490213 3.80209
8194 1 -1.1104 12.2068 -3.23129 3.79944
8197 1 -1.1104 12.4512 -3.33213 1.1746
8200 1 -1.1104 12.3628 -0.465967 3.95295
8212 2 2.2208 10.8361 -4.51975 5.23291
8320 1 -1.1104 6.82307 -0.586538 6.45258
51 1 -1.1104 9.46084 2.30325 6.56039
52 1 -1.1104 9.51508 -0.379724 6.5517
9235 2 2.2208 13.5719 3.73786 -0.278117
511 2 2.2208 8.07847 3.70285 -0.264923
8817 2 2.2208 -0.303792 9.10908 2.65434
13 1 -1.1104 1.17868 4.97754 3.86242
2 1 -1.1104 1.02334 5.05176 1.00925
8 1 -1.1104 0.847436 7.79229 4.12096
10 1 -1.1104 3.86691 5.13464 1.23916
53 2 2.2208 5.19295 6.50732 5.3904
54 2 2.2208 5.10256 11.91 5.27548
56 1 -1.1104 1.0085 7.75336 1.23946
59 2 2.2208 5.2679 9.36218 2.34206
60 1 -1.1104 0.880012 10.4234 4.12039
62 1 -1.1104 3.80845 10.535 1.02155
63 2 2.2208 2.41168 6.46432 2.64702
64 2 2.2208 2.47883 11.906 2.51742
65 1 -1.1104 3.68859 8.09035 3.9352
66 2 2.2208 2.39123 9.25 5.45304
67 1 -1.1104 3.8135 7.77255 1.07837
70 1 -1.1104 3.7904 5.30273 4.07794
71 1 -1.1104 3.75932 10.8031 3.82956
518 1 -1.1104 0.81088 10.7363 1.38804
73 1 -1.1104 6.62662 8.05966 3.77501
92 1 -1.1104 6.5384 10.7666 3.93154
294 2 2.2208 -0.283496 6.40158 5.45328
9316 2 2.2208 -0.361755 11.8155 -0.206237
5 1 -1.1104 6.64047 5.11941 1.02189
78 1 -1.1104 6.58689 5.18903 3.89058
534 2 2.2208 5.20956 11.9403 -0.288525
77 1 -1.1104 6.66606 10.6668 1.10988
549 1 -1.1104 6.69029 7.93849 1.04629
8808 2 2.2208 13.6194 6.61432 2.33547
8739 1 -1.1104 12.4776 5.34517 1.02496
27 1 -1.1104 9.28677 10.7147 3.7931
37 1 -1.1104 9.45813 5.18085 1.07431
83 2 2.2208 10.8876 6.53019 5.29269
84 2 2.2208 10.8397 11.9703 5.4479
86 1 -1.1104 9.50605 7.8956 0.987206
89 2 2.2208 10.7772 9.3738 2.42044
93 2 2.2208 8.13338 6.57382 2.38358
94 2 2.2208 7.96345 12.062 2.59879
95 1 -1.1104 12.3195 7.93994 3.80226
96 2 2.2208 7.88708 9.29425 5.14482
97 1 -1.1104 9.516 7.82543 3.87694
98 1 -1.1104 9.48624 10.8454 0.975638
100 1 -1.1104 9.34731 5.15341 4.07951
101 1 -1.1104 12.1427 10.579 3.91072
8795 1 -1.1104 12.2347 10.7274 0.850936
30 1 -1.1104 12.1604 8.15083 0.927341
35 1 -1.1104 12.1866 5.20045 3.79228
88 1 -1.1104 12.1829 10.5797 6.60877
103 1 -1.1104 12.3467 7.87109 6.63478
104 1 -1.1104 12.1265 5.13284 6.62241
8815 2 2.2208 13.6625 9.24483 5.21634
105 1 -1.1104 9.37718 7.88799 6.63024
21 1 -1.1104 6.73519 5.05397 6.56967
99 1 -1.1104 9.13998 10.8046 6.50016
9274 2 2.2208 13.6036 9.26137 -0.341899
570 2 2.2208 7.99766 9.19421 -0.354116
571 2 2.2208 10.835 12.1205 -0.357223
8902 2 2.2208 -0.201473 20.3249 2.43638
531 1 -1.1104 3.84626 13.2703 0.856386
595 1 -1.1104 4.02653 18.7893 1.15218
55 1 -1.1104 0.863659 13.4112 3.94772
57 1 -1.1104 0.940547 13.2791 1.13422
61 1 -1.1104 3.94445 16.1547 3.89982
68 1 -1.1104 3.69114 13.561 3.79123
107 2 2.2208 5.2268 17.5121 5.10752
108 1 -1.1104 0.94551 16.0099 1.14556
113 1 -1.1104 1.13772 18.9706 1.1806
115 2 2.2208 5.29582 14.7341 2.47998
116 2 2.2208 5.27732 20.4324 2.39872
117 1 -1.1104 1.18524 16.1582 3.95882
122 2 2.2208 2.46888 17.3578 2.42922
125 2 2.2208 2.47046 14.8207 5.33478
126 2 2.2208 2.43168 20.4064 5.22143
127 1 -1.1104 3.76217 16.076 0.977131
129 1 -1.1104 3.78627 19.0562 3.96713
130 1 -1.1104 0.837814 19.0176 4.22129
132 1 -1.1104 6.58443 18.9455 6.47149
110 1 -1.1104 6.58372 13.3312 6.61196
580 2 2.2208 5.31361 17.5215 -0.357668
581 2 2.2208 2.44158 20.3439 -0.331279
128 1 -1.1104 3.42336 16.2785 6.5833
603 2 2.2208 10.9642 17.7492 -0.0812007
9032 2 2.2208 13.6257 20.4392 5.36462
133 1 -1.1104 6.68857 19.17 3.79147
131 1 -1.1104 6.66276 16.2806 3.82547
135 1 -1.1104 6.64954 19.269 0.982601
118 1 -1.1104 6.75292 16.2346 1.10147
602 2 2.2208 8.16152 14.9552 -0.229345
604 2 2.2208 8.08079 20.5592 -0.223295
81 1 -1.1104 6.66505 13.5913 3.99713
82 1 -1.1104 6.65492 13.4949 1.1198
620 1 -1.1104 12.3899 16.3021 0.966715
79 1 -1.1104 9.53787 13.3538 3.85556
87 1 -1.1104 12.3861 13.4436 1.23454
136 2 2.2208 11.0588 17.5368 5.23763
137 1 -1.1104 12.1986 19.0991 1.214
91 1 -1.1104 12.4103 16.0102 3.78345
143 2 2.2208 10.8672 14.8466 2.54249
144 2 2.2208 10.9096 20.3088 2.62801
145 1 -1.1104 12.4088 19.0322 3.86881
146 1 -1.1104 9.49307 13.6242 1.24017
148 1 -1.1104 9.43673 19.1916 1.07065
150 2 2.2208 8.03501 17.6917 2.51096
151 1 -1.1104 12.2659 13.2584 4.05925
152 1 -1.1104 9.55841 18.9333 3.77593
153 2 2.2208 7.89735 14.8109 5.28778
154 2 2.2208 8.1502 20.2604 5.40201
155 1 -1.1104 9.5494 16.4565 1.06524
157 1 -1.1104 9.44837 16.3579 3.77358
156 1 -1.1104 9.50707 16.2442 6.43452
138 1 -1.1104 12.374 16.2311 6.63464
142 1 -1.1104 12.1943 18.9391 6.62827
147 1 -1.1104 9.34096 13.4469 6.62219
164 1 -1.1104 0.948483 2.27063 6.9986
159 2 2.2208 5.21906 0.880621 10.9585
160 1 -1.1104 0.889432 -3.21357 12.2256
161 1 -1.1104 0.780054 2.51729 11.5878
162 1 -1.1104 6.08292 2.68553 11.9117
163 1 -1.1104 0.925321 -3.13092 9.48648
165 1 -1.1104 0.970192 -0.3234 12.1324
166 2 2.2208 5.34347 -1.97503 7.94904
168 1 -1.1104 0.811904 -0.164901 9.35105
170 1 -1.1104 3.63793 -3.40524 12.0108
171 1 -1.1104 3.63242 2.29135 12.3539
172 2 2.2208 2.44959 0.830059 8.00954
173 1 -1.1104 3.77515 -3.28726 9.30132
174 1 -1.1104 3.47345 2.31604 9.45624
175 2 2.2208 2.43045 -1.88224 10.9313
177 1 -1.1104 3.75828 -0.466087 12.0935
178 1 -1.1104 3.71619 -0.304478 9.39296
167 2 2.2208 5.46259 3.76877 8.18464
184 1 -1.1104 6.60661 -0.546577 9.38208
176 2 2.2208 2.57827 3.79433 10.9916
20 1 -1.1104 6.49352 2.31991 6.68475
317 2 2.2208 -0.193363 3.67275 13.6301
315 2 2.2208 2.47255 0.774523 13.5832
182 2 2.2208 13.6587 3.64349 11.0396
183 1 -1.1104 6.75791 -3.32516 6.81107
48 1 -1.1104 12.5838 2.5124 6.71819
8360 2 2.2208 10.9812 -4.52122 10.9757
321 1 -1.1104 7.96821 3.57587 13.4657
169 1 -1.1104 6.76961 2.34755 9.45924
8357 1 -1.1104 6.80932 -3.50452 9.51944
50 1 -1.1104 9.42481 -3.21964 6.68793
47 1 -1.1104 12.4011 -0.389404 6.77826
8188 1 -1.1104 12.2157 -3.14958 6.67158
8500 1 -1.1104 6.78031 -3.40935 12.2446
186 1 -1.1104 7.00298 0.0128928 11.9879
187 2 2.2208 10.9566 0.756903 10.8868
188 1 -1.1104 12.3477 -3.23313 12.3499
189 1 -1.1104 12.3647 2.39457 12.5015
190 1 -1.1104 12.263 -3.14991 9.50848
191 1 -1.1104 12.355 2.29227 9.77245
192 1 -1.1104 12.4569 -0.380746 12.2147
193 2 2.2208 10.9347 -1.98629 8.08341
195 1 -1.1104 12.5371 -0.507692 9.43566
196 1 -1.1104 9.50175 -3.17519 12.2772
197 1 -1.1104 9.43595 2.09141 11.9136
198 2 2.2208 8.10632 0.812458 8.07743
199 1 -1.1104 9.52824 -3.51635 9.50385
200 1 -1.1104 9.59049 2.05063 9.26137
201 2 2.2208 8.0118 -1.87316 10.863
202 2 2.2208 7.96072 3.7538 11.0677
203 1 -1.1104 9.62314 -0.437994 12.3344
204 1 -1.1104 9.57305 -0.634806 9.40976
194 2 2.2208 10.8752 3.53364 8.07972
344 2 2.2208 10.9105 -1.77847 13.5667
9035 2 2.2208 -0.255173 9.21375 8.24359
69 1 -1.1104 3.62412 10.4677 6.70442
72 1 -1.1104 0.968233 10.764 6.72207
80 1 -1.1104 6.40266 10.7129 6.73766
19 1 -1.1104 1.20596 5.07222 6.70809
75 1 -1.1104 3.94415 7.75038 6.70363
74 1 -1.1104 1.23229 7.94939 6.89286
76 1 -1.1104 3.97583 5.03247 6.94024
208 2 2.2208 5.24426 6.59223 10.9572
209 2 2.2208 5.21264 12.0085 10.9597
210 1 -1.1104 1.00851 8.07372 12.3219
212 1 -1.1104 1.20408 7.81736 9.65195
213 1 -1.1104 1.04887 5.19367 12.1725
214 1 -1.1104 1.14553 10.8861 12.1479
215 2 2.2208 5.28917 9.15032 8.19636
216 1 -1.1104 1.03961 5.08266 9.46227
217 1 -1.1104 0.824714 10.5802 9.59081
220 1 -1.1104 3.7166 7.80488 12.2506
221 2 2.2208 2.45891 6.40989 8.26997
222 2 2.2208 2.23614 12.0339 8.13233
223 1 -1.1104 3.89215 7.92138 9.61016
224 2 2.2208 2.4956 9.33153 10.9681
225 1 -1.1104 3.63712 5.09707 12.5834
226 1 -1.1104 3.88612 10.6216 12.3654
227 1 -1.1104 3.79903 4.98952 9.55757
228 1 -1.1104 3.79282 10.5955 9.47892
211 1 -1.1104 6.58844 8.00905 12.2772
185 1 -1.1104 6.46513 5.20995 9.5854
232 1 -1.1104 6.5194 10.7627 9.63535
233 1 -1.1104 6.44364 5.5171 12.375
102 1 -1.1104 6.59189 7.91484 6.87416
234 1 -1.1104 6.55133 10.7649 12.5404
9034 2 2.2208 -0.24803 6.56747 10.8586
9137 2 2.2208 -0.304718 9.41818 13.664
370 2 2.2208 2.52769 11.9264 13.6595
8958 2 2.2208 13.644 12.1352 8.10766
231 2 2.2208 13.6389 6.51447 8.13322
106 1 -1.1104 9.36961 5.01119 6.77712
218 1 -1.1104 6.82616 7.82599 9.61728
235 1 -1.1104 9.32209 10.4581 9.31927
236 1 -1.1104 9.3989 4.8757 9.48607
237 1 -1.1104 9.36376 10.656 12.4165
238 1 -1.1104 9.54576 5.19032 12.0652
239 2 2.2208 7.99821 9.25647 11.0219
240 1 -1.1104 9.54268 7.87478 9.45783
241 2 2.2208 8.0063 12.0844 8.01461
242 2 2.2208 8.10205 6.39015 8.28209
243 2 2.2208 10.9921 6.4898 10.8626
244 2 2.2208 10.8983 11.943 10.9087
245 1 -1.1104 12.1241 7.88605 12.2672
246 1 -1.1104 12.2015 7.88442 9.32316
247 1 -1.1104 12.524 5.14621 12.202
248 1 -1.1104 12.2032 10.5758 12.2034
249 2 2.2208 10.7229 9.15285 7.89668
250 1 -1.1104 12.1229 5.06493 9.3984
251 1 -1.1104 12.2935 10.7244 9.40853
252 1 -1.1104 9.34888 7.89955 12.429
418 2 2.2208 5.2939 14.7856 13.6488
111 1 -1.1104 3.50528 18.9974 6.87518
123 1 -1.1104 6.57292 16.0997 6.74184
121 1 -1.1104 0.64514 16.7988 6.9644
119 1 -1.1104 3.81354 13.3279 6.68479
58 1 -1.1104 1.02189 13.5584 6.79533
158 1 -1.1104 6.51245 13.4292 12.3087
259 1 -1.1104 1.00388 16.1064 9.51936
253 1 -1.1104 3.48219 18.7701 12.3489
254 1 -1.1104 3.62977 13.2524 12.1923
255 1 -1.1104 3.80356 19.3973 9.58079
256 1 -1.1104 1.02948 18.8835 9.42907
257 1 -1.1104 0.81865 13.3036 9.42878
258 2 2.2208 5.32108 20.3305 7.85274
260 2 2.2208 5.28875 14.7793 8.14036
261 1 -1.1104 0.682426 19.3304 12.2391
262 1 -1.1104 0.927717 13.5963 12.194
263 2 2.2208 5.1137 17.8039 11.0723
265 2 2.2208 2.36742 17.588 8.20268
266 1 -1.1104 3.93252 16.3871 9.34814
267 1 -1.1104 3.90963 13.526 9.44253
268 1 -1.1104 0.933904 16.5875 12.3852
269 1 -1.1104 3.85016 16.1143 12.1289
270 2 2.2208 2.26405 20.3208 11.048
271 2 2.2208 2.40554 14.7161 10.8313
206 1 -1.1104 6.59061 16.2818 9.34666
274 2 2.2208 13.661 20.5447 11.0017
205 1 -1.1104 6.87289 18.901 12.2171
289 2 2.2208 7.98818 20.2703 11.0309
446 2 2.2208 10.8501 14.7633 13.5643
281 1 -1.1104 12.2792 19.0726 9.50238
85 1 -1.1104 12.2573 13.4736 6.85538
293 1 -1.1104 9.32188 19.0252 9.33209
282 1 -1.1104 12.2272 16.4052 12.1606
292 1 -1.1104 9.45938 16.1688 9.31464
285 1 -1.1104 12.3855 16.2994 9.56666
286 1 -1.1104 9.40386 13.4089 12.0891
291 1 -1.1104 9.56285 16.0969 12.1602
284 2 2.2208 10.8974 20.3555 8.04351
290 1 -1.1104 9.57239 13.4304 9.41695
149 1 -1.1104 9.67753 18.9485 6.69371
288 2 2.2208 8.04645 17.6263 8.04297
45 1 -1.1104 6.67614 16.2953 12.2196
229 1 -1.1104 6.69353 19.303 9.34198
230 2 2.2208 8.02535 14.8374 10.9191
278 1 -1.1104 12.272 19.2288 12.3462
277 1 -1.1104 12.3705 13.3096 12.2563
219 1 -1.1104 6.79884 13.575 9.45
283 2 2.2208 10.8051 14.8001 7.92019
280 1 -1.1104 12.3613 13.5007 9.67158
276 2 2.2208 10.8637 17.5533 10.7374
287 1 -1.1104 9.50409 18.7798 12.2287
444 2 2.2208 10.7661 20.2487 13.6655
447 2 2.2208 8.06324 17.5814 13.6323
296 2 2.2208 5.28979 0.783792 16.5156
297 1 -1.1104 1.13703 -3.27179 17.7417
298 1 -1.1104 1.01553 2.34427 17.6822
299 1 -1.1104 1.26641 -3.20043 14.861
300 1 -1.1104 0.976132 2.11053 14.8841
301 1 -1.1104 1.0549 -0.437272 17.5656
302 2 2.2208 5.25291 -1.82748 19.249
303 2 2.2208 5.22958 3.75055 19.2987
304 1 -1.1104 0.872421 -0.468738 14.9147
305 1 -1.1104 3.96503 -3.29015 17.9334
306 1 -1.1104 3.82644 2.37033 17.7967
307 2 2.2208 2.42876 0.960555 19.1882
308 1 -1.1104 3.92741 -3.40399 15.134
309 1 -1.1104 3.5961 2.27037 15.0721
310 2 2.2208 2.54904 -1.81528 16.3204
311 2 2.2208 2.50156 3.69127 16.4959
312 1 -1.1104 3.87545 -0.594086 17.919
313 1 -1.1104 3.61999 -0.361628 15.1419
323 1 -1.1104 6.46193 2.24544 15.1728
448 1 -1.1104 0.87381 -3.2818 20.6686
316 2 2.2208 5.15693 3.80045 13.7842
318 1 -1.1104 6.56018 -3.25667 20.5338
322 1 -1.1104 6.63756 -0.478054 17.7995
319 1 -1.1104 6.6282 2.24415 18.0126
9086 2 2.2208 -0.217477 3.63147 19.1094
449 1 -1.1104 1.02591 2.15134 20.6086
480 1 -1.1104 6.49104 -0.60617 20.5978
8501 2 2.2208 5.37676 -4.57098 16.5228
8502 2 2.2208 2.42883 -4.49093 19.0821
451 1 -1.1104 1.09926 -0.632308 20.5498
454 1 -1.1104 3.6837 -0.466619 20.6072
9091 2 2.2208 -0.20859 -1.84102 19.0749
8527 2 2.2208 8.16121 -4.51213 19.2812
8507 1 -1.1104 6.9058 -3.15571 17.5734
320 1 -1.1104 6.94722 -0.592164 15.1847
324 2 2.2208 11.1284 0.808948 16.4781
325 1 -1.1104 12.2552 -3.19848 15.1327
326 1 -1.1104 12.1571 2.28228 17.9189
328 1 -1.1104 12.3513 2.3021 15.2044
329 1 -1.1104 12.413 -0.582584 17.9047
330 2 2.2208 10.951 -1.82737 19.4205
332 1 -1.1104 12.3423 -0.500063 14.9758
333 1 -1.1104 9.58684 -3.21683 17.8008
334 1 -1.1104 9.36879 2.44015 17.7365
335 2 2.2208 8.07873 0.919255 19.0597
336 1 -1.1104 8.71556 -3.31963 15.0871
337 1 -1.1104 9.698 2.26568 15.1131
338 2 2.2208 8.29399 -1.72808 16.5051
339 2 2.2208 8.15295 3.71861 16.2718
340 1 -1.1104 9.6186 -0.303331 18.012
341 1 -1.1104 9.57252 -0.480726 15.0554
8709 1 -1.1104 12.2319 -3.45724 17.8125
343 2 2.2208 7.89505 1.06939 13.7
331 2 2.2208 10.8536 3.64858 19.2377
9066 2 2.2208 13.5766 -2.01005 16.4784
479 1 -1.1104 6.69075 2.26449 20.6657
484 1 -1.1104 9.5556 -3.27801 20.636
485 1 -1.1104 9.51342 2.19821 20.611
486 1 -1.1104 9.38611 -0.561777 20.6353
9059 2 2.2208 13.6279 0.853001 19.37
345 2 2.2208 10.6896 3.65531 13.7543
9148 2 2.2208 -0.301734 6.37661 16.4641
9124 2 2.2208 -0.336006 12.1451 16.6482
346 2 2.2208 5.30382 6.47795 16.6419
347 2 2.2208 5.2932 12.0277 16.4491
348 1 -1.1104 0.820857 7.79757 18.0385
349 1 -1.1104 1.08368 7.65329 15.1577
351 1 -1.1104 1.17575 5.10891 17.7667
352 1 -1.1104 0.998777 10.5898 17.9335
353 2 2.2208 5.25636 9.43806 19.2408
354 1 -1.1104 1.18039 4.9224 15.0484
356 1 -1.1104 0.94528 10.6708 15.1084
357 1 -1.1104 3.73621 7.91811 17.9586
358 2 2.2208 2.42114 6.4452 19.4949
359 2 2.2208 2.49767 12.0044 19.3025
360 1 -1.1104 3.85928 7.95475 15.1492
362 2 2.2208 2.39118 9.25396 16.4824
363 1 -1.1104 3.85778 5.11883 18.2691
364 1 -1.1104 3.90185 10.8162 17.9753
365 1 -1.1104 3.95575 5.01153 15.3438
367 1 -1.1104 3.85169 10.6112 15.1392
355 1 -1.1104 0.999646 4.99486 20.4655
374 1 -1.1104 6.62855 5.07478 17.8887
372 1 -1.1104 6.6368 8.08438 17.9446
361 1 -1.1104 3.89216 7.71428 20.6048
376 1 -1.1104 6.55734 5.23061 15.1627
368 2 2.2208 2.42502 6.46788 13.7691
369 2 2.2208 5.27641 9.24501 13.7936
514 1 -1.1104 3.64074 10.5502 20.6122
9149 2 2.2208 -0.348453 9.26915 19.3761
377 1 -1.1104 6.74169 10.6026 15.214
375 1 -1.1104 6.73625 10.7892 17.8333
371 2 2.2208 13.5546 6.37369 13.7817
538 1 -1.1104 6.64833 10.6683 20.5577
373 1 -1.1104 6.69448 7.92515 15.2393
378 2 2.2208 10.8794 6.49686 16.5285
379 2 2.2208 10.9507 12.1239 16.484
380 1 -1.1104 12.2931 7.87032 17.8131
381 1 -1.1104 12.2204 7.98664 15.0721
382 1 -1.1104 12.3518 5.15478 17.8522
383 1 -1.1104 12.1964 10.712 18.0229
384 2 2.2208 10.7759 9.30234 19.4016
385 1 -1.1104 12.1518 5.23477 15.0746
386 1 -1.1104 12.2585 10.6385 15.2538
387 1 -1.1104 9.63799 7.72909 17.9677
388 2 2.2208 8.07598 6.48393 19.1787
389 2 2.2208 8.16757 12.0716 19.2757
390 1 -1.1104 9.33454 7.88239 15.2623
391 2 2.2208 8.13794 9.17191 16.555
392 1 -1.1104 9.35663 5.13689 17.8608
393 1 -1.1104 9.5692 10.6288 17.927
394 1 -1.1104 9.49009 5.09501 15.1226
395 1 -1.1104 9.59773 10.8472 15.3206
636 2 2.2208 13.6186 11.9777 13.7359
539 1 -1.1104 12.1206 7.79517 20.6241
542 1 -1.1104 9.45355 7.7686 20.6495
543 1 -1.1104 9.38969 4.93235 20.5964
398 2 2.2208 8.09489 6.40441 13.7138
9113 2 2.2208 13.5683 9.20177 16.5456
9115 2 2.2208 13.5357 12.1568 19.3495
396 2 2.2208 7.99782 11.9539 13.7813
397 2 2.2208 10.7857 9.27591 13.7398
417 2 2.2208 2.25678 17.626 13.8212
9201 2 2.2208 -0.236399 20.3494 19.4897
399 2 2.2208 5.15408 17.627 16.3906
400 1 -1.1104 1.15668 13.5253 17.6102
401 1 -1.1104 0.987763 18.6327 18.0373
402 1 -1.1104 1.04366 13.2803 14.7601
403 1 -1.1104 0.846325 19.0791 15.0634
404 1 -1.1104 3.51128 16.2758 17.8716
405 2 2.2208 5.28934 14.8392 19.2469
406 2 2.2208 5.3076 20.4238 19.4198
407 1 -1.1104 1.05387 16.1818 15.2725
408 1 -1.1104 3.95652 13.5289 17.7938
410 2 2.2208 2.54593 17.661 19.5088
411 1 -1.1104 3.85133 13.3936 14.9842
412 1 -1.1104 3.58701 18.9374 15.1658
413 2 2.2208 2.38406 14.654 16.3169
414 2 2.2208 2.52076 20.3564 16.4488
415 1 -1.1104 3.76068 19.0061 17.9204
416 1 -1.1104 3.81269 16.2908 15.0775
424 1 -1.1104 6.58015 16.3638 17.7699
576 1 -1.1104 3.87003 13.4501 20.5571
425 1 -1.1104 6.51893 16.3255 14.9655
423 1 -1.1104 6.52944 19.1183 15.3794
422 1 -1.1104 6.73002 13.4263 15.1114
610 1 -1.1104 6.74147 16.264 20.6396
421 1 -1.1104 6.98003 19.1214 18.1336
420 1 -1.1104 6.72011 13.555 18.0241
426 2 2.2208 10.8307 17.6515 16.5158
427 1 -1.1104 12.2364 13.4401 17.8215
428 1 -1.1104 12.4149 18.9716 18.0151
429 1 -1.1104 12.1287 13.5039 14.9757
430 1 -1.1104 12.2262 18.9758 15.101
431 1 -1.1104 12.2111 16.2777 17.7163
432 2 2.2208 10.8557 14.8294 19.3018
433 2 2.2208 10.9861 20.2645 19.2672
434 1 -1.1104 12.2323 16.2113 14.9386
435 1 -1.1104 9.52614 13.5684 17.8661
436 1 -1.1104 9.60734 18.8866 18.0211
437 2 2.2208 8.22604 17.6406 19.4648
438 1 -1.1104 9.48752 13.4984 15.0472
439 1 -1.1104 9.4118 18.9766 15.1125
440 2 2.2208 8.15945 15.0274 16.455
442 1 -1.1104 9.4494 16.1188 17.8772
443 1 -1.1104 9.48103 16.4373 15.1651
441 2 2.2208 8.14305 20.155 16.6691
613 1 -1.1104 12.1471 15.9948 20.6088
9169 2 2.2208 13.584 14.8985 16.6065
612 1 -1.1104 12.452 19.1127 20.5637
445 2 2.2208 13.625 17.5654 13.675
452 1 -1.1104 3.80237 -3.35087 20.6965
8675 2 2.2208 5.19785 -4.54345 22.1024
476 2 2.2208 2.39259 -1.78997 27.5069
453 1 -1.1104 3.96509 2.34899 20.7034
8686 1 -1.1104 1.16822 -3.29597 23.599
455 2 2.2208 5.23355 0.917062 22.0611
456 1 -1.1104 0.838514 -3.24721 26.1949
457 1 -1.1104 1.01626 2.16111 23.4929
459 1 -1.1104 1.07085 2.40268 26.1728
461 1 -1.1104 1.10824 -0.638264 23.3898
463 2 2.2208 5.33699 -1.78103 24.9849
465 1 -1.1104 1.03417 -0.315173 26.1591
466 1 -1.1104 4.08168 -3.10917 23.4825
467 1 -1.1104 3.72165 2.65686 23.6301
468 2 2.2208 2.38688 0.94616 24.7607
469 1 -1.1104 3.60121 -3.1394 26.4078
470 1 -1.1104 3.89193 2.28402 26.3285
471 2 2.2208 2.49531 -1.94387 22.0399
472 2 2.2208 2.25228 3.49175 22.0288
473 1 -1.1104 3.85882 -0.374826 23.3928
474 1 -1.1104 3.85627 -0.386217 26.2448
464 2 2.2208 5.35083 3.67627 25.0833
488 1 -1.1104 6.56219 2.20403 23.5753
9272 2 2.2208 -0.315692 0.813727 22.0262
478 2 2.2208 -0.286813 3.76317 24.9909
475 2 2.2208 5.19025 0.782006 27.6959
477 2 2.2208 2.53149 3.78559 27.6974
481 1 -1.1104 12.2899 -0.681149 20.8374
510 2 2.2208 8.16529 -1.94432 27.5695
482 1 -1.1104 12.1921 2.09203 20.7376
462 1 -1.1104 6.67885 -0.479512 23.5595
638 2 2.2208 13.5171 0.925957 24.9419
450 1 -1.1104 6.81388 -3.29183 23.3214
8713 1 -1.1104 12.27 -3.37633 20.7326
490 1 -1.1104 6.65619 2.34939 26.2819
489 1 -1.1104 6.75592 -0.361729 26.3254
487 1 -1.1104 7.022 -3.10605 25.9853
8716 1 -1.1104 12.2126 -3.0831 26.4388
483 1 -1.1104 12.1373 -0.666368 23.6762
491 2 2.2208 10.8663 0.768113 22.1136
492 1 -1.1104 12.4234 -3.66212 23.4677
494 1 -1.1104 12.1856 -0.392184 26.3222
496 1 -1.1104 12.1413 2.15546 23.5098
497 2 2.2208 10.7945 -1.94721 25.0277
499 1 -1.1104 12.2863 2.3256 26.4549
500 1 -1.1104 9.54839 -3.3609 23.486
501 1 -1.1104 9.38343 2.23199 23.6201
502 2 2.2208 8.00367 0.878714 24.9983
503 1 -1.1104 9.58026 -3.29826 26.3124
504 1 -1.1104 9.46267 2.37583 26.426
505 2 2.2208 7.99086 -1.88306 22.1241
507 1 -1.1104 9.30233 -0.417932 23.4252
508 1 -1.1104 9.53919 -0.463878 26.3439
498 2 2.2208 10.8534 3.73442 24.9339
506 2 2.2208 8.16854 3.45834 22.0555
9227 2 2.2208 13.6125 3.57208 22.0482
9239 2 2.2208 13.6346 -1.97055 22.3151
509 2 2.2208 10.8128 0.995094 27.6616
533 2 2.2208 2.60674 9.0026 27.6079
513 1 -1.1104 0.978802 10.4498 20.9223
9333 1 -1.1104 0.813419 8.11597 26.5555
350 1 -1.1104 0.956206 7.76251 20.9956
366 1 -1.1104 3.60381 5.08802 21.1135
515 2 2.2208 5.31159 6.41053 21.9443
516 2 2.2208 5.2477 12.3031 22.1489
517 1 -1.1104 1.2094 10.2764 23.8815
519 1 -1.1104 0.766758 5.03249 23.183
521 2 2.2208 5.30155 9.25974 24.7779
522 1 -1.1104 0.987718 4.96639 26.6236
523 1 -1.1104 1.16802 10.6912 26.5791
524 1 -1.1104 3.92321 10.5373 23.3395
525 2 2.2208 2.54053 11.8145 24.891
526 1 -1.1104 4.00481 7.91906 26.226
527 2 2.2208 2.59412 9.1376 22.1105
528 1 -1.1104 3.78115 7.55476 23.3129
529 1 -1.1104 3.88376 10.7548 26.3483
530 1 -1.1104 4.10621 4.9121 26.5184
547 1 -1.1104 6.55388 5.15098 23.4507
550 1 -1.1104 6.56822 10.5229 26.5019
548 1 -1.1104 6.59614 10.7611 23.3768
532 2 2.2208 5.23382 6.46355 27.6911
9339 2 2.2208 -0.244951 6.43588 27.681
569 2 2.2208 10.9432 6.54386 27.699
537 1 -1.1104 6.69131 5.10614 20.8028
544 1 -1.1104 9.34185 10.6832 20.7363
541 1 -1.1104 12.2613 10.6376 20.7975
536 1 -1.1104 6.67224 7.94473 20.8367
545 1 -1.1104 6.70919 7.94331 23.3806
540 1 -1.1104 12.1946 4.96434 20.701
460 1 -1.1104 6.94607 5.15449 26.4035
546 1 -1.1104 6.64517 7.83349 26.2848
495 1 -1.1104 12.2979 5.25289 26.2698
493 1 -1.1104 12.2445 5.10223 23.4027
551 1 -1.1104 9.40876 10.6046 26.4159
552 1 -1.1104 9.58967 5.09503 26.372
553 1 -1.1104 9.49239 10.6267 23.5175
554 1 -1.1104 9.35685 5.17399 23.5211
555 2 2.2208 8.09227 9.27223 21.9939
556 1 -1.1104 9.42171 7.9429 26.4879
557 2 2.2208 8.05914 11.9787 24.9363
558 2 2.2208 8.06886 6.4544 24.9373
559 2 2.2208 10.8081 6.33551 22.0785
560 2 2.2208 10.814 12.0006 22.0334
561 1 -1.1104 12.4361 10.7719 23.4011
562 1 -1.1104 12.2163 10.7284 26.1412
563 1 -1.1104 12.161 7.9634 23.3138
565 2 2.2208 10.9109 9.25347 24.9264
566 1 -1.1104 12.2491 7.98817 26.2167
568 1 -1.1104 9.42679 7.94838 23.9192
9304 2 2.2208 13.6652 9.29837 21.9928
9273 2 2.2208 13.5487 6.52 24.6134
572 2 2.2208 13.6616 12.0543 24.7341
9380 2 2.2208 -0.0841823 17.5763 22.1422
579 2 2.2208 2.36046 14.6543 27.6374
575 1 -1.1104 1.41008 16.3805 20.8231
578 1 -1.1104 4.03142 16.1516 20.6963
629 1 -1.1104 6.59826 18.7603 26.3356
577 1 -1.1104 3.88012 19.1028 20.7495
574 1 -1.1104 1.11556 19.1027 20.9274
9381 2 2.2208 -0.260389 20.2119 25.0721
588 1 -1.1104 1.10349 16.1221 26.4121
573 1 -1.1104 1.05156 13.1954 20.7218
583 2 2.2208 2.2996 20.3765 22.3277
520 1 -1.1104 1.12211 13.0558 23.5092
582 2 2.2208 2.3938 14.6648 21.8936
584 1 -1.1104 3.75114 18.9945 23.6327
586 1 -1.1104 3.71912 13.4494 23.393
587 1 -1.1104 1.1492 18.8367 26.4979
589 1 -1.1104 0.455542 13.2913 26.429
590 2 2.2208 5.15187 20.264 24.8292
591 2 2.2208 5.25986 14.8805 24.9309
592 1 -1.1104 3.93389 19.0303 26.2427
593 1 -1.1104 1.0746 16.0391 23.5341
594 2 2.2208 5.16224 17.6031 22.1866
596 2 2.2208 2.47747 17.4983 25.028
597 1 -1.1104 3.82278 16.1806 26.3689
598 1 -1.1104 3.77958 13.3242 26.1423
599 1 -1.1104 1.01761 18.7809 23.6389
600 1 -1.1104 3.80084 16.3584 23.5064
608 1 -1.1104 6.54342 13.5384 20.8168
342 1 -1.1104 6.47715 16.2615 23.7263
585 1 -1.1104 6.43214 13.4773 26.498
635 1 -1.1104 6.63805 13.5845 23.6594
634 1 -1.1104 6.51831 19.0216 23.5915
633 1 -1.1104 6.58216 16.0677 26.4256
9384 2 2.2208 -0.169245 14.7474 24.7629
9377 2 2.2208 13.5388 17.6703 24.8344
609 1 -1.1104 6.6724 19.0103 20.7944
624 2 2.2208 10.7016 20.5734 24.982
621 1 -1.1104 12.2346 19.1567 26.5545
623 2 2.2208 10.85 14.8648 24.9878
625 1 -1.1104 12.1865 16.3276 26.4098
615 1 -1.1104 9.62379 18.9478 20.7158
617 1 -1.1104 9.24732 16.107 23.7861
564 1 -1.1104 12.4601 13.4927 23.5642
628 2 2.2208 8.11746 17.5372 24.9256
632 2 2.2208 8.03225 14.7022 22.2758
618 1 -1.1104 11.9947 19.1163 23.5807
607 1 -1.1104 12.1812 16.0939 23.7182
567 1 -1.1104 11.9742 13.6477 26.5452
630 1 -1.1104 9.39083 13.5003 26.3935
605 1 -1.1104 9.4251 16.3766 26.4496
627 1 -1.1104 9.24644 18.8723 23.3985
606 2 2.2208 11.1936 17.6813 22.1148
631 1 -1.1104 9.41018 19.307 26.2797
619 2 2.2208 8.09406 20.2465 22.0479
614 1 -1.1104 9.39059 13.47 20.7515
616 1 -1.1104 9.45715 16.2682 20.8967
611 1 -1.1104 12.1368 13.3782 20.7373
626 1 -1.1104 9.55492 13.2396 23.6251
9376 2 2.2208 13.6485 14.8537 22.3114
640 2 2.2208 5.35934 23.0061 5.21991
641 2 2.2208 5.28457 28.8123 5.30736
643 1 -1.1104 1.18697 24.5754 1.04268
645 2 2.2208 5.10572 25.9653 2.5139
646 1 -1.1104 0.817053 24.57 3.81615
648 1 -1.1104 3.5096 27.2801 0.96641
649 2 2.2208 2.50601 23.1611 2.45461
650 2 2.2208 2.3371 28.8301 2.53324
651 1 -1.1104 0.866167 27.3137 1.01351
652 2 2.2208 2.42695 25.9703 5.30072
653 1 -1.1104 4.23952 24.4631 0.850724
655 1 -1.1104 3.77389 24.5898 3.85727
656 1 -1.1104 3.73934 27.3797 3.87282
661 1 -1.1104 0.974156 27.3099 3.76612
112 1 -1.1104 1.1968 21.7448 3.71327
9452 1 -1.1104 1.18238 21.8702 1.0613
124 1 -1.1104 3.97566 21.8672 3.79236
120 1 -1.1104 3.93927 21.6456 1.03598
659 1 -1.1104 6.21813 27.3224 1.20495
663 1 -1.1104 1.06669 24.5995 6.51519
807 1 -1.1104 1.0694 27.3308 6.48793
668 1 -1.1104 6.49639 27.3372 3.99197
687 1 -1.1104 6.59556 21.6194 6.64916
666 1 -1.1104 1.07245 21.9535 6.50218
662 1 -1.1104 6.63788 24.4586 6.49057
1137 2 2.2208 5.09918 28.8883 -0.153317
9463 2 2.2208 -0.350388 25.877 2.26745
9464 2 2.2208 -0.339349 23.1232 5.09758
657 2 2.2208 -0.373107 28.7746 5.24981
134 1 -1.1104 6.73368 22.2014 1.08505
658 1 -1.1104 6.71886 24.4909 3.64124
669 1 -1.1104 6.86639 21.7458 3.85466
1158 1 -1.1104 12.3178 24.6803 1.10821
670 2 2.2208 10.8097 23.1794 5.38534
671 2 2.2208 10.8744 28.7546 5.26016
672 1 -1.1104 12.0068 27.4167 1.168
673 1 -1.1104 12.4443 21.6919 1.15778
675 2 2.2208 10.8302 25.8742 2.55428
676 1 -1.1104 11.9598 27.2991 3.94881
678 1 -1.1104 9.29987 24.5811 1.25751
679 2 2.2208 8.23622 23.0033 2.60689
680 2 2.2208 7.78614 28.6775 2.5072
681 1 -1.1104 9.63444 24.4526 3.90325
682 2 2.2208 8.06088 25.9769 5.34776
683 1 -1.1104 9.62518 21.8427 1.08667
685 1 -1.1104 9.62638 21.6974 3.83876
686 1 -1.1104 9.3076 27.3684 3.63297
140 1 -1.1104 12.2708 24.4358 3.93538
141 1 -1.1104 12.2199 21.809 3.97877
1173 2 2.2208 11.0524 23.1742 -0.121352
684 1 -1.1104 9.1758 29.5772 1.03162
9434 2 2.2208 13.6471 28.9136 2.4589
694 1 -1.1104 9.58218 27.4592 6.51477
1174 2 2.2208 13.5999 26.1104 -0.251138
9435 2 2.2208 13.6159 25.9435 5.25918
9433 2 2.2208 13.6379 23.1065 2.41487
1203 2 2.2208 2.56982 37.2779 -0.358349
664 1 -1.1104 1.01919 30.2236 3.76205
642 1 -1.1104 0.925092 30.3033 0.935341
647 1 -1.1104 3.68294 32.8566 1.03807
644 1 -1.1104 0.932014 33.122 1.1475
654 1 -1.1104 3.73535 30.1532 1.208
695 2 2.2208 5.22449 34.3807 5.10482
697 1 -1.1104 3.80556 32.9092 3.73677
698 1 -1.1104 0.868688 35.7897 0.455296
699 2 2.2208 5.08747 31.5708 2.53115
700 2 2.2208 5.34586 37.26 2.5301
704 1 -1.1104 3.98784 35.8527 1.15049
705 2 2.2208 2.55031 34.3481 2.45541
706 1 -1.1104 3.70846 30.1537 3.82974
707 1 -1.1104 3.79584 35.6162 3.76567
708 2 2.2208 2.4865 31.571 5.0075
709 2 2.2208 2.36337 37.1935 5.18754
9511 1 -1.1104 1.13985 35.839 3.71512
713 1 -1.1104 1.13388 33.0854 3.80863
1209 1 -1.1104 6.52012 33.107 0.928354
719 1 -1.1104 3.73215 36.0878 6.57451
720 1 -1.1104 3.9345 33.1755 6.44777
813 1 -1.1104 1.10272 30.0534 6.46166
855 1 -1.1104 3.98786 30.3692 6.63175
717 1 -1.1104 1.1048 32.8983 6.47585
730 1 -1.1104 6.48192 30.1773 1.15235
711 1 -1.1104 6.54531 33.0836 3.72788
702 1 -1.1104 6.57652 35.9146 3.951
701 1 -1.1104 1.04372 38.6206 3.76598
1189 1 -1.1104 1.09038 38.5871 0.993363
771 1 -1.1104 1.19621 38.5516 6.5301
774 1 -1.1104 3.9165 38.5146 6.45578
716 1 -1.1104 6.46254 38.6088 6.47647
9522 2 2.2208 -0.373036 37.1809 2.2598
9520 2 2.2208 -0.329883 34.5243 5.06507
9521 2 2.2208 -0.29777 31.6381 2.49451
718 1 -1.1104 6.78699 30.1529 6.52664
9491 2 2.2208 13.6072 34.5467 2.43682
710 1 -1.1104 6.79451 35.9002 1.03014
660 1 -1.1104 6.70342 30.21 3.75959
674 1 -1.1104 12.031 30.1509 0.899149
677 1 -1.1104 12.2159 30.1038 3.73831
722 1 -1.1104 9.42205 35.8211 1.18774
723 2 2.2208 10.7776 34.374 5.20076
725 1 -1.1104 12.0154 32.9295 1.09913
727 2 2.2208 10.702 31.5938 2.48992
728 2 2.2208 10.9322 37.2608 2.40834
729 1 -1.1104 12.3454 35.8394 3.978
731 1 -1.1104 12.2086 35.7001 1.11471
732 2 2.2208 7.99703 34.3926 2.60376
733 1 -1.1104 9.45269 30.2177 3.83483
734 1 -1.1104 9.35544 35.8618 3.77731
735 2 2.2208 8.21737 31.4992 5.3388
736 2 2.2208 8.07568 37.2352 5.25838
737 1 -1.1104 9.24933 32.9676 1.06995
738 1 -1.1104 9.39815 33.1073 3.84132
740 1 -1.1104 12.1705 33.0694 3.73744
691 1 -1.1104 12.4534 30.1204 6.58466