ITEM: TIMESTEP
50000
ITEM: NUMBER OF ATOMS
18000
ITEM: BOX BOUNDS xy xz yz pp pp pp
-1.5869690997247671e-01 2.8052696909973271e+01 0.0000000000000000e+00
-2.1637571373337026e+00 3.3689175713733505e+02 0.0000000000000000e+00
-1.6337477281710022e-01 2.8057374772817305e+01 0.0000000000000000e+00
ITEM: ATOMS id type q mass x y z
39 3 -1.1104 15.9994 9.4907 -1.18199 1.10608
9227 1 -1.1104 15.9994 1.00073 19.3327 6.78824
224 1 -1.1104 15.9994 6.83192 -1.23403 6.83258
4 1 -1.1104 15.9994 6.8922 21.6876 12.2238
5 1 -1.1104 15.9994 3.95095 21.8394 12.3251
6 1 -1.1104 15.9994 1.08682 21.7423 12.5748
126 1 -1.1104 15.9994 1.30931 -1.29016 1.167
8 2 2.2208 232.038 5.31809 0.584876 2.65387
9 1 -1.1104 15.9994 12.3682 18.8187 12.2843
10 2 2.2208 232.038 11.0547 0.271235 2.55035
894 1 -1.1104 15.9994 3.91036 21.9969 9.64338
128 1 -1.1104 15.9994 0.876399 -0.966305 3.88177
13 2 2.2208 232.038 2.35674 3.20624 2.47657
42 2 2.2208 232.038 2.62617 23.1804 -0.14559
15 1 -1.1104 15.9994 12.3397 15.8903 12.6806
16 1 -1.1104 15.9994 9.60696 18.8723 12.3223
17 2 2.2208 232.038 8.30048 2.98247 2.63398
18 2 2.2208 232.038 4.98976 6.14902 2.72133
19 1 -1.1104 15.9994 6.85212 18.722 12.3255
20 2 2.2208 232.038 11.3605 5.9889 2.59808
21 4 2.2208 232.038 2.32313 17.6996 2.08908
22 2 2.2208 232.038 2.37344 11.8625 0.376238
23 2 2.2208 232.038 2.43504 9.12094 2.64658
24 4 2.2208 232.038 8.09147 6.20698 2.58454
53 2 2.2208 232.038 13.9154 0.305649 11.0955
26 1 -1.1104 15.9994 9.6008 13.4088 12.7724
27 2 2.2208 232.038 7.98316 9.34532 2.41174
28 2 2.2208 232.038 5.38955 12.0149 2.66108
29 1 -1.1104 15.9994 6.62713 15.8542 12.5141
30 2 2.2208 232.038 11.0879 11.8118 2.53734
31 3 -1.1104 15.9994 6.86282 16.0985 9.57013
32 1 -1.1104 15.9994 4.11858 19.0359 12.2571
33 2 2.2208 232.038 2.40807 14.4346 2.85076
34 3 -1.1104 15.9994 3.91474 4.38277 12.4426
216 1 -1.1104 15.9994 2.50326 -1.70609 6.52078
218 1 -1.1104 15.9994 0.228649 -1.98142 8.28389
37 2 2.2208 232.038 8.35353 14.5686 2.63142
38 2 2.2208 232.038 5.66676 17.599 2.65186
8956 2 2.2208 232.038 13.831 8.87521 2.59019
40 2 2.2208 232.038 11.1955 17.5247 2.45772
41 1 -1.1104 15.9994 1.12509 18.7635 12.3598
273 1 -1.1104 15.9994 13.2328 8.62853 10.416
43 2 2.2208 232.038 2.59848 20.863 2.63014
44 1 -1.1104 15.9994 3.71458 16.196 12.3832
9274 3 -1.1104 15.9994 1.04393 4.46489 6.8682
46 1 -1.1104 15.9994 1.3387 15.6843 10.4304
47 2 2.2208 232.038 8.29921 20.397 2.64649
48 2 2.2208 232.038 5.36644 23.0393 2.69219
499 1 -1.1104 15.9994 9.74292 15.869 12.4107
50 2 2.2208 232.038 10.7883 22.9697 2.65976
9286 2 2.2208 232.038 13.9849 9.04974 13.997
52 2 2.2208 232.038 2.47434 0.433262 4.9722
51 2 2.2208 232.038 13.7826 23.3374 10.9862
54 4 2.2208 232.038 2.77627 0.1389 8.14496
330 1 -1.1104 15.9994 6.75792 10.1044 12.4087
56 2 2.2208 232.038 8.13348 0.24079 5.38202
346 3 -1.1104 15.9994 0.875058 13.4715 1.36542
58 2 2.2208 232.038 5.89586 0.31459 8.22935
648 1 -1.1104 15.9994 6.64483 5.12098 1.24931
60 2 2.2208 232.038 11.0072 0.184283 8.33642
61 1 -1.1104 15.9994 12.519 10.3624 12.6843
62 2 2.2208 232.038 2.40265 6.07803 5.31617
63 2 2.2208 232.038 2.58858 3.43121 8.21557
64 3 -1.1104 15.9994 9.6501 1.38258 6.6924
65 2 2.2208 232.038 5.39085 3.24013 5.3313
66 2 2.2208 232.038 8.431 6.2684 5.88464
67 2 2.2208 232.038 8.35546 3.01089 8.23137
68 2 2.2208 232.038 5.38813 5.66509 8.20911
69 2 2.2208 232.038 11.0703 2.89578 5.58035
70 2 2.2208 232.038 11.0634 5.31978 8.42332
311 1 -1.1104 15.9994 9.86063 -1.39673 12.3845
72 2 2.2208 232.038 2.51034 11.974 5.11839
73 2 2.2208 232.038 2.54465 8.45784 8.28955
74 3 -1.1104 15.9994 3.85915 21.8715 4.04088
75 2 2.2208 232.038 5.34286 8.83656 5.29692
76 2 2.2208 232.038 8.15209 11.7548 5.6742
77 2 2.2208 232.038 7.70373 8.69422 8.18131
78 2 2.2208 232.038 5.84838 11.7497 8.24843
79 2 2.2208 232.038 10.9714 8.9097 4.93133
80 2 2.2208 232.038 10.7232 12.0016 8.31909
81 4 2.2208 232.038 2.34933 11.4681 8.3729
82 2 2.2208 232.038 2.35813 17.4162 5.79602
83 2 2.2208 232.038 2.47707 14.8767 8.34652
385 2 2.2208 232.038 10.8629 0.124406 13.9256
85 2 2.2208 232.038 5.55231 14.7787 5.36069
86 2 2.2208 232.038 8.53068 17.4195 5.27764
87 2 2.2208 232.038 8.24265 14.7437 8.20549
88 2 2.2208 232.038 5.37155 17.4472 8.10077
89 2 2.2208 232.038 11.1414 14.6935 5.3555
90 2 2.2208 232.038 11.0529 17.7537 8.40987
91 3 -1.1104 15.9994 9.5354 21.6748 9.56695
92 2 2.2208 232.038 2.59332 23.2665 5.50248
93 2 2.2208 232.038 2.76561 20.565 8.07067
25 2 2.2208 232.038 5.17947 8.79706 -0.195279
95 2 2.2208 232.038 5.41306 20.3195 5.32716
96 2 2.2208 232.038 8.10559 23.3102 5.42239
97 2 2.2208 232.038 8.15121 20.3342 8.25299
98 2 2.2208 232.038 5.4301 23.2947 8.11431
99 2 2.2208 232.038 11.1444 20.2908 5.32456
100 2 2.2208 232.038 11.1327 23.3022 8.07981
101 3 -1.1104 15.9994 9.56429 13.2484 3.93517
102 2 2.2208 232.038 2.39208 0.0703722 11.6733
333 1 -1.1104 15.9994 10.803 11.1843 10.5773
104 2 2.2208 232.038 8.25889 0.107334 11.35
354 2 2.2208 232.038 7.98672 14.483 13.9616
106 4 2.2208 232.038 11.4006 8.50291 8.16619
107 2 2.2208 232.038 2.48271 5.93075 11.1903
108 2 2.2208 232.038 5.218 2.81499 10.9815
109 2 2.2208 232.038 8.09912 5.91684 11.023
110 2 2.2208 232.038 11.2197 3.00426 10.7815
111 1 -1.1104 15.9994 12.5042 21.7832 12.4686
112 2 2.2208 232.038 2.32995 11.7641 11.7271
113 2 2.2208 232.038 5.41075 8.795 11.053
114 2 2.2208 232.038 8.35607 11.7436 11.0423
115 2 2.2208 232.038 11.1763 9.07224 11.2922
116 1 -1.1104 15.9994 9.60529 21.6782 12.3187
117 2 2.2208 232.038 2.64632 17.6255 10.7204
118 2 2.2208 232.038 5.14976 14.6837 10.9936
119 2 2.2208 232.038 8.16299 17.5258 10.9835
120 2 2.2208 232.038 11.1115 14.6069 10.8863
329 1 -1.1104 15.9994 4.10923 13.2234 12.3574
122 2 2.2208 232.038 2.5259 23.1863 11.0042
123 2 2.2208 232.038 5.30761 20.2847 10.8398
124 2 2.2208 232.038 8.30067 23.1429 10.8564
125 2 2.2208 232.038 11.0993 20.4111 10.9256
222 1 -1.1104 15.9994 2.17169 -1.36178 9.77318
127 1 -1.1104 15.9994 3.89505 -0.851668 1.33744
806 1 -1.1104 15.9994 8.45675 23.1473 2.44533
129 1 -1.1104 15.9994 3.76524 -1.13996 3.97654
130 1 -1.1104 15.9994 1.03988 1.65441 1.35805
131 1 -1.1104 15.9994 4.02484 1.75277 1.12572
132 1 -1.1104 15.9994 1.03818 2.14692 3.93537
133 1 -1.1104 15.9994 3.95514 1.80243 4.04517
134 1 -1.1104 15.9994 6.48794 -0.769163 1.08229
135 1 -1.1104 15.9994 12.3795 -1.10643 1.08627
136 1 -1.1104 15.9994 6.71728 -0.995173 3.91441
137 1 -1.1104 15.9994 9.6835 -1.1084 3.94179
138 1 -1.1104 15.9994 6.67496 2.12223 1.23057
139 1 -1.1104 15.9994 9.68576 1.62127 0.974641
140 1 -1.1104 15.9994 6.72603 1.8332 3.90507
141 1 -1.1104 15.9994 9.64427 1.73186 4.00581
49 1 -1.1104 15.9994 12.3946 13.439 12.5848
143 1 -1.1104 15.9994 12.4082 -1.08108 4.04416
144 1 -1.1104 15.9994 12.4199 1.67215 1.19876
145 1 -1.1104 15.9994 12.3522 1.68716 4.08589
146 1 -1.1104 15.9994 1.00429 4.68146 1.02316
147 1 -1.1104 15.9994 3.89582 4.63438 1.2846
148 1 -1.1104 15.9994 1.03224 4.78348 3.96927
149 1 -1.1104 15.9994 3.76203 4.69885 3.96205
150 1 -1.1104 15.9994 0.882369 7.4721 1.13606
151 1 -1.1104 15.9994 3.70972 7.57936 1.09281
152 1 -1.1104 15.9994 1.05881 7.47145 3.91908
153 1 -1.1104 15.9994 3.8263 7.37165 4.02098
154 1 -1.1104 15.9994 9.66896 4.71905 1.344
155 1 -1.1104 15.9994 9.39627 7.62723 1.12144
156 1 -1.1104 15.9994 6.89888 4.58613 6.75392
157 1 -1.1104 15.9994 6.57491 4.93576 3.87048
158 1 -1.1104 15.9994 6.68683 7.46391 3.98853
159 1 -1.1104 15.9994 6.76439 7.69511 1.20937
160 1 -1.1104 15.9994 8.7306 8.72797 5.995
161 1 -1.1104 15.9994 9.28154 4.86027 3.89623
162 1 -1.1104 15.9994 12.5265 4.65886 1.25951
163 1 -1.1104 15.9994 12.2807 4.4561 3.97142
164 1 -1.1104 15.9994 12.4093 7.65224 1.21835
165 1 -1.1104 15.9994 12.4126 7.23709 3.91732
166 1 -1.1104 15.9994 0.848735 10.438 1.18355
167 1 -1.1104 15.9994 3.84841 10.1957 1.14559
168 1 -1.1104 15.9994 1.11914 10.3179 4.32907
169 1 -1.1104 15.9994 4.10134 10.3394 3.97758
170 1 -1.1104 15.9994 2.4857 12.0156 2.83921
171 1 -1.1104 15.9994 4.14621 13.3295 1.34327
172 1 -1.1104 15.9994 0.748908 13.4349 4.17208
173 1 -1.1104 15.9994 3.98377 13.6758 4.28781
174 1 -1.1104 15.9994 6.47965 10.5065 1.15784
175 1 -1.1104 15.9994 9.63548 7.44263 3.51049
176 1 -1.1104 15.9994 6.66047 10.4155 3.93784
177 1 -1.1104 15.9994 9.46097 10.5028 3.71157
178 1 -1.1104 15.9994 6.95439 13.2704 1.07658
179 1 -1.1104 15.9994 9.6991 13.0989 1.24334
180 1 -1.1104 15.9994 6.7189 13.3977 4.07129
181 1 -1.1104 15.9994 9.38416 10.2171 0.983029
182 1 -1.1104 15.9994 12.2956 10.5612 1.10074
183 1 -1.1104 15.9994 12.4761 10.4479 3.89518
184 1 -1.1104 15.9994 12.5066 13.2001 1.05129
185 1 -1.1104 15.9994 12.3665 13.2471 3.77231
186 1 -1.1104 15.9994 0.580045 16.9379 0.564718
469 1 -1.1104 15.9994 8.35874 0.467061 13.853
188 1 -1.1104 15.9994 0.912781 16.3318 3.12631
189 1 -1.1104 15.9994 3.96505 16.6357 3.76722
190 1 -1.1104 15.9994 0.61465 19.3354 2.46493
191 1 -1.1104 15.9994 2.43363 19.6841 0.537247
360 2 2.2208 232.038 5.25493 23.2311 13.6878
193 1 -1.1104 15.9994 2.29156 18.9533 4.16571
194 1 -1.1104 15.9994 6.86385 15.9227 1.37262
195 1 -1.1104 15.9994 9.55815 16.0051 0.993049
196 1 -1.1104 15.9994 6.99416 16.0052 3.95077
197 1 -1.1104 15.9994 9.81207 16.0006 3.74261
198 1 -1.1104 15.9994 6.88598 18.7922 1.17226
199 1 -1.1104 15.9994 9.73763 18.7205 1.12059
200 1 -1.1104 15.9994 6.92319 18.769 4.19938
201 1 -1.1104 15.9994 9.74698 18.7435 3.96264
202 1 -1.1104 15.9994 12.3548 15.9129 1.31395
203 1 -1.1104 15.9994 12.7832 16.176 4.08051
204 1 -1.1104 15.9994 12.6883 18.9588 1.15173
205 1 -1.1104 15.9994 12.5873 18.8936 3.9207
206 1 -1.1104 15.9994 1.07204 21.9512 1.00993
207 1 -1.1104 15.9994 4.22597 21.8879 1.14827
208 1 -1.1104 15.9994 0.87105 21.6918 4.06272
209 1 -1.1104 15.9994 4.68847 19.5722 3.07357
210 1 -1.1104 15.9994 6.7071 21.4905 1.20182
211 1 -1.1104 15.9994 9.6833 21.4768 0.992105
212 1 -1.1104 15.9994 6.86382 21.6482 4.12616
213 1 -1.1104 15.9994 9.7684 21.5178 4.01286
214 1 -1.1104 15.9994 12.3348 21.621 1.44265
215 1 -1.1104 15.9994 12.358 21.7126 4.06358
332 1 -1.1104 15.9994 6.88814 12.9188 12.6235
225 1 -1.1104 15.9994 9.60085 -1.28669 6.81364
8996 2 2.2208 232.038 13.6924 2.95794 8.1882
331 1 -1.1104 15.9994 9.4129 10.4357 12.6024
220 1 -1.1104 15.9994 0.641315 0.0912114 6.38753
221 1 -1.1104 15.9994 4.35983 0.0679577 6.30478
9040 2 2.2208 232.038 13.642 6.26648 11.0945
223 1 -1.1104 15.9994 4.12679 0.998784 9.91417
344 2 2.2208 232.038 7.94004 3.11439 13.7533
327 1 -1.1104 15.9994 3.89781 10.1356 12.3822
226 1 -1.1104 15.9994 6.93395 -1.19496 9.85713
227 1 -1.1104 15.9994 9.62983 -1.42582 9.72132
228 1 -1.1104 15.9994 6.98558 1.85372 6.61778
229 1 -1.1104 15.9994 11.0915 3.08409 8.48933
230 1 -1.1104 15.9994 6.90967 1.61243 9.55572
231 1 -1.1104 15.9994 9.48776 1.40035 9.74448
232 1 -1.1104 15.9994 12.4219 -1.24775 6.94785
233 1 -1.1104 15.9994 12.5101 -1.28309 9.84139
234 1 -1.1104 15.9994 12.5477 1.54891 6.88678
235 1 -1.1104 15.9994 12.6261 1.424 9.63929
236 1 -1.1104 15.9994 1.22345 1.55455 9.18059
237 1 -1.1104 15.9994 2.2146 2.08299 6.51765
238 1 -1.1104 15.9994 3.88248 4.3066 9.77991
239 1 -1.1104 15.9994 4.58324 2.37065 7.69515
240 1 -1.1104 15.9994 1.08794 7.20069 6.85068
241 1 -1.1104 15.9994 3.86124 4.74202 6.74809
242 1 -1.1104 15.9994 1.15025 4.62764 9.56712
243 1 -1.1104 15.9994 3.91559 7.04692 9.38713
244 1 -1.1104 15.9994 9.55418 4.33748 6.75631
245 1 -1.1104 15.9994 10.7078 7.02934 6.27676
246 1 -1.1104 15.9994 6.84961 4.46074 9.43552
247 1 -1.1104 15.9994 9.60985 4.40444 10.1517
248 1 -1.1104 15.9994 6.22179 7.36508 6.94191
249 1 -1.1104 15.9994 9.08437 6.66328 8.25464
250 1 -1.1104 15.9994 6.64211 7.32228 9.71175
251 1 -1.1104 15.9994 9.6805 8.99813 9.39134
252 1 -1.1104 15.9994 12.4916 4.50226 6.65601
253 1 -1.1104 15.9994 12.8906 4.44754 9.87877
254 1 -1.1104 15.9994 12.9985 6.73563 7.93824
255 1 -1.1104 15.9994 11.3465 6.81382 10.2764
256 1 -1.1104 15.9994 0.840302 9.95794 7.42761
257 1 -1.1104 15.9994 3.7295 7.74146 6.55936
258 1 -1.1104 15.9994 1.26444 7.25761 9.75709
259 1 -1.1104 15.9994 3.47433 13.0672 9.79074
260 1 -1.1104 15.9994 0.797083 12.3732 6.67092
261 1 -1.1104 15.9994 3.63028 10.3781 6.70965
262 1 -1.1104 15.9994 1.44483 10.1274 10.1104
263 1 -1.1104 15.9994 0.886182 12.7304 9.96447
264 1 -1.1104 15.9994 6.6441 10.0134 6.6854
265 1 -1.1104 15.9994 10.6764 10.3756 6.69617
266 1 -1.1104 15.9994 4.13584 10.3611 9.34599
267 1 -1.1104 15.9994 8.3911 11.4353 8.13175
268 1 -1.1104 15.9994 6.78855 13.2822 6.85236
269 1 -1.1104 15.9994 12.9281 8.72343 6.24016
270 1 -1.1104 15.9994 6.4555 13.3017 9.80472
271 1 -1.1104 15.9994 6.71741 10.1372 9.68719
272 1 -1.1104 15.9994 12.6478 10.3016 8.60567
347 2 2.2208 232.038 2.56533 8.96996 13.9149
274 1 -1.1104 15.9994 12.2641 13.137 6.77212
275 1 -1.1104 15.9994 12.5685 13.2256 9.7064
276 1 -1.1104 15.9994 1.63616 15.2551 6.1773
277 1 -1.1104 15.9994 4.13481 15.8678 6.66478
278 1 -1.1104 15.9994 0.0840005 14.8631 8.26984
279 1 -1.1104 15.9994 3.72203 13.0822 7.07455
280 1 -1.1104 15.9994 1.75941 17.2793 8.20373
281 1 -1.1104 15.9994 3.99124 18.9343 6.3586
282 1 -1.1104 15.9994 1.26259 19.5241 9.70041
283 1 -1.1104 15.9994 4.04319 16.0819 9.62746
284 1 -1.1104 15.9994 6.80808 16.1314 6.71487
285 1 -1.1104 15.9994 9.66429 16.1284 6.72775
286 1 -1.1104 15.9994 9.44002 13.5029 9.80539
287 1 -1.1104 15.9994 9.57223 13.4423 6.76712
288 1 -1.1104 15.9994 6.7303 19.0405 6.97097
289 1 -1.1104 15.9994 9.70884 18.9493 6.84198
290 1 -1.1104 15.9994 6.72206 18.8459 9.5941
291 1 -1.1104 15.9994 9.61946 16.2278 9.56931
292 1 -1.1104 15.9994 12.4374 16.1121 6.78404
293 1 -1.1104 15.9994 12.4294 16.0524 9.67777
294 1 -1.1104 15.9994 12.4548 18.9473 6.90807
295 1 -1.1104 15.9994 12.6455 18.9138 9.78204
296 1 -1.1104 15.9994 1.25657 21.9964 7.23009
297 1 -1.1104 15.9994 4.12132 21.7811 6.62142
298 1 -1.1104 15.9994 0.498828 21.9469 9.60483
299 1 -1.1104 15.9994 4.09084 18.9693 9.30467
300 1 -1.1104 15.9994 7.07064 21.8087 6.73998
301 1 -1.1104 15.9994 9.91464 21.6885 6.8368
302 1 -1.1104 15.9994 6.72412 21.6906 9.45943
303 1 -1.1104 15.9994 9.60159 19.0558 9.53755
304 1 -1.1104 15.9994 12.495 21.735 6.86476
305 1 -1.1104 15.9994 12.4328 21.8456 9.63699
328 1 -1.1104 15.9994 1.06648 13.6703 12.6689
307 1 -1.1104 15.9994 4.25495 -1.12812 12.3891
308 1 -1.1104 15.9994 1.19499 2.04006 12.5689
309 1 -1.1104 15.9994 3.83841 1.58558 12.5324
310 1 -1.1104 15.9994 6.84505 -1.47092 12.552
36 2 2.2208 232.038 8.2434 17.4064 0.0613107
312 1 -1.1104 15.9994 6.60695 1.69168 12.3859
313 1 -1.1104 15.9994 9.92738 2.14469 12.6729
314 1 -1.1104 15.9994 12.4223 -1.00212 12.5057
315 1 -1.1104 15.9994 12.4797 1.98277 12.6893
316 1 -1.1104 15.9994 1.2165 4.61512 12.3507
643 1 -1.1104 15.9994 2.88572 15.7164 1.00342
318 1 -1.1104 15.9994 1.20133 7.46506 12.5836
319 1 -1.1104 15.9994 4.12576 7.29383 12.335
320 1 -1.1104 15.9994 6.78277 4.38089 12.2137
321 1 -1.1104 15.9994 9.46737 4.75081 13.0217
322 1 -1.1104 15.9994 6.87465 7.33697 12.6981
323 1 -1.1104 15.9994 9.58442 7.64972 12.5342
324 1 -1.1104 15.9994 12.3529 4.51496 12.3109
325 1 -1.1104 15.9994 12.542 7.49445 12.8342
326 1 -1.1104 15.9994 0.56088 10.2339 12.5309
349 2 2.2208 232.038 8.13904 8.9313 13.8734
217 1 -1.1104 15.9994 4.62269 -1.72771 8.68435
57 2 2.2208 232.038 11.0101 17.867 13.7652
192 1 -1.1104 15.9994 -0.0663041 17.3848 5.67592
9045 2 2.2208 232.038 13.8041 11.6278 10.9068
187 1 -1.1104 15.9994 4.12772 17.8256 0.731119
35 2 2.2208 232.038 5.50452 14.6569 -0.067094
8946 2 2.2208 232.038 13.8786 3.10848 2.65511
336 2 2.2208 232.038 5.3001 6.02508 13.8331
8967 2 2.2208 232.038 14.0236 20.5412 8.40558
9005 2 2.2208 232.038 13.8206 11.7056 5.49536
359 2 2.2208 232.038 8.17024 20.5304 13.7802
9025 2 2.2208 232.038 13.8104 23.0658 5.44957
340 2 2.2208 232.038 5.48458 0.390072 13.9154
357 2 2.2208 232.038 2.63817 20.4182 13.8539
45 2 2.2208 232.038 8.1733 22.985 -0.0111371
84 2 2.2208 232.038 11.0711 23.2757 13.7688
11 2 2.2208 232.038 5.51448 17.5022 13.6314
8995 2 2.2208 232.038 13.6458 6.09093 5.50373
9016 2 2.2208 232.038 13.7508 14.6597 8.20177
352 2 2.2208 232.038 2.58974 14.5544 13.8289
9613 2 2.2208 232.038 -0.255712 6.09622 13.8078
667 1 -1.1104 15.9994 6.68043 13.1726 26.6054
338 4 2.2208 232.038 2.48697 11.6999 25.4344
339 3 -1.1104 15.9994 1.06157 4.71753 26.393
355 2 2.2208 232.038 5.32826 3.31208 27.9622
681 2 2.2208 232.038 2.41721 17.3412 27.2338
631 2 2.2208 232.038 13.9363 11.7789 28.0196
14 3 -1.1104 15.9994 9.61316 10.3711 26.5365
683 2 2.2208 232.038 8.31816 6.46893 27.6432
12 2 2.2208 232.038 2.32183 6.03986 28.0482
666 1 -1.1104 15.9994 9.49729 16.2036 23.8184
9362 2 2.2208 232.038 13.7463 3.09155 25.038
348 3 -1.1104 15.9994 11.1787 11.8618 22.2195
463 1 -1.1104 15.9994 4.06719 -0.936705 15.4488
677 1 -1.1104 15.9994 1.3124 21.7398 23.4673
524 1 -1.1104 15.9994 12.181 -0.975793 20.6778
341 2 2.2208 232.038 13.7028 11.598 22.2415
353 3 -1.1104 15.9994 6.57406 18.3842 26.5989
9633 2 2.2208 232.038 13.8185 6.08342 27.9307
676 1 -1.1104 15.9994 12.4305 18.6792 26.4268
362 2 2.2208 232.038 2.46833 0.468047 27.9073
661 1 -1.1104 15.9994 1.05377 18.8043 23.4362
358 3 -1.1104 15.9994 9.50237 4.55632 21.2721
665 1 -1.1104 15.9994 6.76755 15.7935 23.9452
660 1 -1.1104 15.9994 4.38407 15.7274 26.4127
664 1 -1.1104 15.9994 4.06472 18.9229 26.3476
680 1 -1.1104 15.9994 4.03913 21.8815 26.614
363 2 2.2208 232.038 2.45397 0.295957 16.5642
672 1 -1.1104 15.9994 9.52388 18.7769 26.4664
337 2 2.2208 232.038 13.7057 0.391952 27.9465
659 1 -1.1104 15.9994 0.968175 15.774 26.2648
367 2 2.2208 232.038 8.11903 0.330737 16.7556
523 1 -1.1104 15.9994 12.4386 -1.4082 18.159
369 2 2.2208 232.038 5.48958 0.53606 19.4707
658 1 -1.1104 15.9994 3.98059 15.7035 23.3527
371 2 2.2208 232.038 11.022 0.741013 19.5507
489 1 -1.1104 15.9994 9.72054 13.339 15.3666
373 2 2.2208 232.038 2.47695 5.95444 16.7314
374 2 2.2208 232.038 2.58215 3.0861 19.3015
415 3 -1.1104 15.9994 1.39004 21.3862 26.0726
376 2 2.2208 232.038 5.33822 3.32654 16.6891
377 2 2.2208 232.038 8.27359 6.10141 16.6669
378 2 2.2208 232.038 8.30914 3.18398 19.6273
379 2 2.2208 232.038 5.5679 6.03433 19.4435
380 2 2.2208 232.038 10.9537 3.20534 17.2478
381 2 2.2208 232.038 11.0309 5.96085 19.6678
9285 2 2.2208 232.038 13.9938 8.93903 25.2161
383 2 2.2208 232.038 2.54797 11.6392 16.5558
384 2 2.2208 232.038 2.6088 8.63409 19.4668
679 1 -1.1104 15.9994 0.885123 18.7205 26.4421
386 2 2.2208 232.038 5.57869 8.74949 16.6812
387 2 2.2208 232.038 8.26214 11.8947 16.825
388 2 2.2208 232.038 8.19542 8.78154 19.5201
389 2 2.2208 232.038 5.42912 11.508 19.5011
390 2 2.2208 232.038 10.9788 8.95863 16.973
391 2 2.2208 232.038 10.7935 11.6918 19.6845
675 1 -1.1104 15.9994 12.3537 18.9008 23.6848
393 2 2.2208 232.038 2.58874 17.4223 16.4124
394 2 2.2208 232.038 2.63307 14.4629 19.3058
395 4 2.2208 232.038 8.2915 17.3703 25.1601
396 2 2.2208 232.038 5.20455 14.5672 16.5829
397 2 2.2208 232.038 8.07637 17.4702 16.6033
398 2 2.2208 232.038 8.18313 14.5068 19.5893
399 2 2.2208 232.038 5.43209 17.3705 19.3734
400 2 2.2208 232.038 10.9214 14.7524 17.0787
401 2 2.2208 232.038 11.1378 17.7085 19.5351
657 1 -1.1104 15.9994 1.43623 13.2093 24.0561
403 2 2.2208 232.038 2.5357 23.3638 16.6208
404 2 2.2208 232.038 2.70314 20.2689 19.2826
9321 2 2.2208 232.038 13.9409 11.7679 16.7852
406 2 2.2208 232.038 5.38303 20.4762 16.5883
407 2 2.2208 232.038 8.41398 23.3646 16.5448
408 2 2.2208 232.038 8.18315 20.3873 19.3454
409 2 2.2208 232.038 5.66021 23.2434 19.4179
410 2 2.2208 232.038 11.0907 20.5037 16.7558
411 2 2.2208 232.038 11.123 23.131 19.4208
674 1 -1.1104 15.9994 12.621 15.9859 26.5775
413 2 2.2208 232.038 2.58719 0.469892 22.3356
317 1 -1.1104 15.9994 4.05008 4.61994 15.3335
678 1 -1.1104 15.9994 3.98164 21.5148 23.8699
671 1 -1.1104 15.9994 7.1555 15.939 26.853
417 2 2.2208 232.038 8.1494 0.437004 22.5256
663 1 -1.1104 15.9994 2.69495 17.4513 24.939
419 2 2.2208 232.038 5.37679 0.347116 25.1098
662 1 -1.1104 15.9994 4.1408 18.9329 23.4017
421 2 2.2208 232.038 10.7843 0.525043 25.3381
422 3 -1.1104 15.9994 9.76538 19.1084 15.1026
423 2 2.2208 232.038 2.53605 5.94134 22.2365
424 2 2.2208 232.038 2.43067 3.30031 25.1904
425 4 2.2208 232.038 2.55497 22.8784 24.9857
426 2 2.2208 232.038 5.40539 3.19511 22.1979
427 2 2.2208 232.038 8.26883 6.09999 22.4876
428 2 2.2208 232.038 8.09864 3.31073 25.1969
429 2 2.2208 232.038 5.40925 6.14444 25.1717
430 2 2.2208 232.038 11.1342 3.16227 22.1981
431 2 2.2208 232.038 11.1429 6.1066 25.1005
432 1 -1.1104 15.9994 12.3679 21.5473 26.6246
433 2 2.2208 232.038 2.5797 11.7605 22.0706
434 2 2.2208 232.038 2.53055 8.35975 25.2746
435 1 -1.1104 15.9994 12.7479 21.7186 23.7788
436 2 2.2208 232.038 5.45231 8.73727 22.3306
437 2 2.2208 232.038 8.28336 11.6196 22.344
438 2 2.2208 232.038 8.24656 8.94516 25.0564
439 2 2.2208 232.038 5.57129 11.5305 25.1881
440 2 2.2208 232.038 11.1004 8.97729 22.438
441 2 2.2208 232.038 11.0711 11.7508 25.0962
442 1 -1.1104 15.9994 9.57013 21.7211 26.4931
443 2 2.2208 232.038 2.47284 17.3474 21.9732
444 2 2.2208 232.038 2.57287 15.0239 24.9054
445 1 -1.1104 15.9994 6.7078 21.4503 26.6177
446 2 2.2208 232.038 5.51386 14.4623 22.228
447 2 2.2208 232.038 8.38744 17.4581 21.9976
448 2 2.2208 232.038 8.07376 14.2156 25.1318
449 2 2.2208 232.038 5.05411 17.4173 24.9479
450 2 2.2208 232.038 11.1873 14.3953 22.3249
451 2 2.2208 232.038 11.3078 17.3825 25.0532
452 1 -1.1104 15.9994 9.87703 21.5901 23.7812
453 2 2.2208 232.038 2.73938 23.055 21.8619
454 2 2.2208 232.038 2.58883 19.7602 24.9604
455 1 -1.1104 15.9994 6.85691 21.3503 23.8096
456 2 2.2208 232.038 5.44825 20.1932 22.1812
457 3 -1.1104 15.9994 4.09322 13.0519 15.272
458 2 2.2208 232.038 8.37637 20.5357 24.9982
459 2 2.2208 232.038 5.72383 22.9972 25.1649
460 2 2.2208 232.038 11.1413 20.3703 22.2709
461 2 2.2208 232.038 11.0853 23.0096 25.1352
516 1 -1.1104 15.9994 9.45233 -1.2902 18.2325
372 4 2.2208 232.038 11.1311 3.25637 14.1045
464 1 -1.1104 15.9994 1.11411 2.08669 15.3387
673 1 -1.1104 15.9994 12.4012 15.9367 23.6486
466 1 -1.1104 15.9994 6.68635 -1.26632 15.4331
467 1 -1.1104 15.9994 9.72491 -1.27475 15.4294
468 1 -1.1104 15.9994 6.52984 1.91328 15.2979
656 1 -1.1104 15.9994 12.3237 13.2474 26.4507
470 1 -1.1104 15.9994 12.4119 -0.974132 15.4443
471 1 -1.1104 15.9994 12.5 1.90166 15.4169
472 1 -1.1104 15.9994 1.03309 4.79885 15.1991
473 1 -1.1104 15.9994 3.87231 1.9313 15.2078
474 1 -1.1104 15.9994 1.25071 7.50459 15.2736
475 1 -1.1104 15.9994 3.97242 7.35272 15.1313
476 1 -1.1104 15.9994 6.97552 4.79543 15.1085
477 1 -1.1104 15.9994 9.88058 1.9037 15.5076
478 1 -1.1104 15.9994 6.85361 7.57933 15.3559
479 1 -1.1104 15.9994 9.98187 4.84306 15.5303
480 1 -1.1104 15.9994 12.6076 4.57118 14.9781
481 1 -1.1104 15.9994 12.3364 7.41831 15.7463
482 1 -1.1104 15.9994 0.994967 10.0552 15.3434
483 1 -1.1104 15.9994 4.01763 10.1095 15.4278
484 1 -1.1104 15.9994 1.08126 13.5043 15.4851
9652 3 -1.1104 15.9994 0.950144 16.0485 23.4022
486 1 -1.1104 15.9994 6.91755 10.5742 15.2926
487 1 -1.1104 15.9994 9.52807 10.4367 15.3419
488 1 -1.1104 15.9994 6.78709 13.17 15.3431
1295 1 -1.1104 15.9994 6.90532 24.6021 26.7427
490 1 -1.1104 15.9994 12.5222 10.2535 15.2753
491 1 -1.1104 15.9994 12.3264 13.2892 15.1769
492 1 -1.1104 15.9994 1.17157 16.2444 14.9729
493 1 -1.1104 15.9994 3.96631 15.9444 15.081
494 1 -1.1104 15.9994 1.41479 18.8094 14.9104
495 1 -1.1104 15.9994 4.25612 19.068 15.033
496 1 -1.1104 15.9994 6.93218 16.1496 15.2175
497 1 -1.1104 15.9994 9.57761 16.1897 15.3279
498 1 -1.1104 15.9994 6.93132 18.8105 15.1
670 1 -1.1104 15.9994 9.75203 18.77 23.933
500 1 -1.1104 15.9994 12.2848 16.2378 15.3748
501 1 -1.1104 15.9994 12.811 19.003 15.1948
502 1 -1.1104 15.9994 1.1465 21.8789 15.4743
503 1 -1.1104 15.9994 3.78081 21.7425 15.2366
504 1 -1.1104 15.9994 6.64056 21.7148 14.969
505 1 -1.1104 15.9994 9.68513 21.9067 15.0256
506 1 -1.1104 15.9994 12.3224 22.1162 15.3282
507 1 -1.1104 15.9994 1.02657 -0.912182 18.3399
508 1 -1.1104 15.9994 4.01664 -1.10346 18.3173
509 1 -1.1104 15.9994 1.0923 -0.925689 20.961
510 1 -1.1104 15.9994 4.00539 -1.1028 21.0867
511 1 -1.1104 15.9994 1.06208 1.87628 18.1263
512 1 -1.1104 15.9994 4.01259 1.74481 18.0019
513 1 -1.1104 15.9994 1.27962 1.8489 20.8387
514 1 -1.1104 15.9994 3.99597 1.80656 20.9301
515 1 -1.1104 15.9994 6.79223 -1.03207 18.2626
94 2 2.2208 232.038 10.958 6.44366 13.937
517 1 -1.1104 15.9994 6.92386 -0.788878 20.9177
518 1 -1.1104 15.9994 9.55988 -1.22406 20.8112
519 1 -1.1104 15.9994 6.77175 1.93455 18.2823
520 1 -1.1104 15.9994 9.54439 1.59844 17.9479
521 1 -1.1104 15.9994 6.94014 1.88954 21.03
522 1 -1.1104 15.9994 9.50319 1.56928 21.0015
375 2 2.2208 232.038 8.01677 0.414044 28.0365
350 2 2.2208 232.038 11.0945 14.4923 27.9614
525 1 -1.1104 15.9994 12.6081 1.61846 18.2894
526 1 -1.1104 15.9994 12.6458 1.73006 20.9886
527 1 -1.1104 15.9994 1.14196 4.5364 17.9833
528 1 -1.1104 15.9994 3.9795 4.78076 18.011
529 1 -1.1104 15.9994 1.2038 4.52879 20.73
530 1 -1.1104 15.9994 3.99494 4.66456 21.0057
531 1 -1.1104 15.9994 1.23025 7.37743 18.1361
532 1 -1.1104 15.9994 3.89924 7.39475 18.0564
533 1 -1.1104 15.9994 1.08079 7.39621 20.9266
534 1 -1.1104 15.9994 4.03159 7.36368 20.8539
535 1 -1.1104 15.9994 6.72061 4.73357 17.9168
536 1 -1.1104 15.9994 9.53669 4.82456 18.2354
537 1 -1.1104 15.9994 6.73145 4.60884 20.7183
538 1 -1.1104 15.9994 10.97 3.16842 19.5836
539 1 -1.1104 15.9994 6.7593 7.53189 18.0932
540 1 -1.1104 15.9994 9.73201 7.59918 18.3442
541 1 -1.1104 15.9994 6.77774 7.44406 21.0216
542 1 -1.1104 15.9994 9.50905 7.44185 21.0813
543 1 -1.1104 15.9994 12.436 4.65034 18.0986
544 1 -1.1104 15.9994 12.7628 4.69414 21.081
545 1 -1.1104 15.9994 12.3916 7.56637 18.3233
546 1 -1.1104 15.9994 12.3297 7.46666 20.9423
547 1 -1.1104 15.9994 1.20362 10.2686 18.2139
548 1 -1.1104 15.9994 4.10757 10.2176 18.1705
549 1 -1.1104 15.9994 1.25401 10.0262 21.0855
550 1 -1.1104 15.9994 3.97921 10.2568 20.9165
551 1 -1.1104 15.9994 1.13988 12.9226 18.2087
552 1 -1.1104 15.9994 4.08803 13.1073 18.0629
553 1 -1.1104 15.9994 1.0047 13.0618 21.298
554 1 -1.1104 15.9994 3.82806 12.8935 20.6865
555 1 -1.1104 15.9994 6.91566 10.2509 18.074
556 1 -1.1104 15.9994 9.56482 10.4758 18.2521
557 1 -1.1104 15.9994 6.66148 10.2144 21.0674
558 1 -1.1104 15.9994 9.28123 10.1843 20.9463
559 1 -1.1104 15.9994 6.73111 13.1993 18.1573
560 1 -1.1104 15.9994 9.53164 13.3087 18.0801
561 1 -1.1104 15.9994 6.73209 13.0427 20.9146
562 1 -1.1104 15.9994 9.4142 13.1707 20.8379
563 1 -1.1104 15.9994 12.3526 10.2835 17.9559
564 1 -1.1104 15.9994 12.3821 10.151 20.7568
565 1 -1.1104 15.9994 12.457 13.2892 17.9146
566 1 -1.1104 15.9994 12.5556 13.22 20.7549
567 1 -1.1104 15.9994 1.26937 15.8136 17.912
568 1 -1.1104 15.9994 3.88594 15.9604 17.6708
569 1 -1.1104 15.9994 1.28533 15.7366 20.7433
570 1 -1.1104 15.9994 4.0202 15.9344 20.5576
571 1 -1.1104 15.9994 1.2305 18.8886 17.8419
572 1 -1.1104 15.9994 3.91998 18.8494 17.8883
573 1 -1.1104 15.9994 1.25911 18.841 20.6372
574 1 -1.1104 15.9994 4.05785 18.619 20.7406
575 1 -1.1104 15.9994 6.74433 15.8944 18.1217
576 1 -1.1104 15.9994 9.25458 16.1341 18.0346
577 1 -1.1104 15.9994 6.83472 15.9597 21.0178
578 1 -1.1104 15.9994 9.79912 15.9641 20.8397
579 1 -1.1104 15.9994 6.83429 19.0418 18.1498
580 1 -1.1104 15.9994 9.62952 18.9191 17.8267
581 1 -1.1104 15.9994 6.8365 18.8918 21.0932
582 1 -1.1104 15.9994 9.6782 18.6944 20.8599
583 1 -1.1104 15.9994 12.4032 16.0214 18.2597
584 1 -1.1104 15.9994 12.3824 16.0111 20.8849
585 1 -1.1104 15.9994 12.4494 18.9503 18.0395
586 1 -1.1104 15.9994 12.4653 18.8941 20.9114
587 1 -1.1104 15.9994 1.42208 21.7869 18.0859
588 1 -1.1104 15.9994 4.23233 21.6454 18.1942
589 1 -1.1104 15.9994 1.35385 21.8571 20.6797
590 1 -1.1104 15.9994 3.99677 21.5712 20.8168
591 1 -1.1104 15.9994 7.07662 21.8536 17.6951
592 1 -1.1104 15.9994 9.71462 21.791 18.0192
593 1 -1.1104 15.9994 6.61449 21.5278 20.5769
594 1 -1.1104 15.9994 9.98587 21.2591 20.5738
595 1 -1.1104 15.9994 12.6434 21.5465 18.1266
596 1 -1.1104 15.9994 12.7618 21.9438 20.9655
597 1 -1.1104 15.9994 1.16135 -0.888521 23.694
598 1 -1.1104 15.9994 3.99049 -1.03642 23.8762
599 1 -1.1104 15.9994 0.920187 -0.810177 26.6176
600 1 -1.1104 15.9994 3.86869 -1.09505 26.5928
601 1 -1.1104 15.9994 1.10449 1.81908 23.8834
602 1 -1.1104 15.9994 4.0051 1.78085 23.6077
603 1 -1.1104 15.9994 1.08832 2.0224 26.9311
604 1 -1.1104 15.9994 3.82886 1.77867 26.4171
605 1 -1.1104 15.9994 6.69628 -1.09382 23.738
606 1 -1.1104 15.9994 9.58308 -0.835204 23.8608
607 1 -1.1104 15.9994 6.7052 -0.899812 26.5917
608 1 -1.1104 15.9994 9.32824 -0.899951 26.4959
609 1 -1.1104 15.9994 6.9244 1.74027 23.904
610 1 -1.1104 15.9994 9.63601 2.02685 23.7196
611 1 -1.1104 15.9994 6.68852 1.85793 26.7546
612 1 -1.1104 15.9994 9.41952 2.02349 26.4476
613 1 -1.1104 15.9994 12.5119 -0.870639 23.7387
614 1 -1.1104 15.9994 12.311 -0.830236 26.4997
615 1 -1.1104 15.9994 12.4106 1.77337 23.8388
616 1 -1.1104 15.9994 12.339 1.86976 26.648
617 1 -1.1104 15.9994 1.11332 4.71978 23.6494
618 1 -1.1104 15.9994 3.91395 4.7354 23.8691
619 3 -1.1104 15.9994 9.57985 7.69183 15.3599
620 1 -1.1104 15.9994 3.77143 4.49154 26.7915
621 1 -1.1104 15.9994 1.1216 7.44484 23.7412
622 1 -1.1104 15.9994 3.86893 7.54856 23.7895
623 1 -1.1104 15.9994 1.05223 7.35007 26.6024
624 1 -1.1104 15.9994 3.98793 7.19385 26.6066
625 1 -1.1104 15.9994 6.64011 4.47798 23.6121
626 1 -1.1104 15.9994 9.26782 5.06347 24.2315
627 1 -1.1104 15.9994 6.94104 4.73505 26.5319
628 1 -1.1104 15.9994 9.74819 4.87898 26.8897
629 1 -1.1104 15.9994 6.77855 7.4216 23.7621
630 1 -1.1104 15.9994 9.76653 7.60198 23.7723
669 1 -1.1104 15.9994 7.10064 18.5426 23.7692
632 1 -1.1104 15.9994 9.70506 7.65711 26.429
633 1 -1.1104 15.9994 12.2586 4.74485 23.7718
634 1 -1.1104 15.9994 12.4054 4.70929 26.6561
635 1 -1.1104 15.9994 12.472 7.47703 23.7393
636 1 -1.1104 15.9994 12.4723 7.65916 26.5498
637 1 -1.1104 15.9994 1.05629 10.2523 24.0689
638 1 -1.1104 15.9994 3.84023 10.3176 23.9688
639 1 -1.1104 15.9994 1.07898 10.3426 26.688
640 1 -1.1104 15.9994 3.87641 10.0762 26.3987