LAMMPS (29 Oct 2020)
OMP_NUM_THREADS environment is not set. Defaulting to 1 thread. (../comm.cpp:94)
  using 1 OpenMP thread(s) per MPI task
OMP_NUM_THREADS environment is not set. Defaulting to 1 thread. (../comm.cpp:94)
  using 1 OpenMP thread(s) per MPI task
Reading data file ...
  triclinic box = (-0.22032999 -4.2907158 -0.23322894) to (28.114330 339.01872 28.127229) with tilt (0.0000000 0.0000000 0.0000000)
  2 by 13 by 2 MPI processor grid
  reading atoms ...
  18000 atoms
  reading velocities ...
  18000 velocities
Finding 1-2 1-3 1-4 neighbors ...
  special bond factors lj:    0.0      0.0      0.0     
  special bond factors coul:  0.0      0.0      0.0     
     0 = max # of 1-2 neighbors
     0 = max # of 1-3 neighbors
     0 = max # of 1-4 neighbors
     1 = max # of special neighbors
  special bonds CPU = 0.003 seconds
  read_data CPU = 0.076 seconds
Setting atom values ...
  11880 settings made for charge
Setting atom values ...
  5940 settings made for charge
PPPM initialization ...
  using 12-bit tables for long-range coulomb (../kspace.cpp:328)
  G vector (1/distance) = 0.2980062
  grid = 40 240 40
  stencil order = 5
  estimated absolute RMS force accuracy = 0.00016497699
  estimated relative force accuracy = 1.1457018e-05
  using single precision MKL FFT
  3d grid and FFT values/proc = 15000 7600
Neighbor list info ...
  update every 1 steps, delay 0 steps, check yes
  max neighbors/atom: 2000, page size: 100000
  master list distance cutoff = 11.3
  ghost atom cutoff = 11.3
  binsize = 5.65, bins = 6 61 6
  2 neighbor lists, perpetual/occasional/extra = 2 0 0
  (1) pair coul/long, perpetual
      attributes: half, newton on
      pair build: half/bin/newton/tri
      stencil: half/bin/3d/newton/tri
      bin: standard
  (2) pair eam/alloy, perpetual, copy from (1)
      attributes: half, newton on
      pair build: copy
      stencil: none
      bin: none
Setting up Verlet run ...
  Unit style    : metal
  Current step  : 0
  Time step     : 0.001
Per MPI rank memory allocation (min/avg/max) = 8.313 | 8.339 | 8.361 Mbytes
Step Temp E_pair E_mol TotEng Press 
       0         1500   -232705.06            0   -229215.23   -2532.2055 
  100000    1502.4156   -232671.15            0    -229175.7   -2137.1104 
Loop time of 700.09 on 52 procs for 100000 steps with 18000 atoms

Performance: 12.341 ns/day, 1.945 hours/ns, 142.839 timesteps/s
99.8% CPU use with 52 MPI tasks x 1 OpenMP threads

MPI task timing breakdown:
Section |  min time  |  avg time  |  max time  |%varavg| %total
---------------------------------------------------------------
Pair    | 450.21     | 463.38     | 477.2      |  36.0 | 66.19
Bond    | 0.0067574  | 0.01025    | 0.019819   |   2.3 |  0.00
Kspace  | 133        | 150.3      | 164.54     |  72.5 | 21.47
Neigh   | 59.896     | 64.11      | 70.704     |  33.1 |  9.16
Comm    | 15.749     | 16.895     | 19.777     |  25.0 |  2.41
Output  | 5.2564e-05 | 5.7275e-05 | 0.00025676 |   0.0 |  0.00
Modify  | 1.9332     | 4.09       | 5.8864     |  66.4 |  0.58
Other   |            | 1.307      |            |       |  0.19

Nlocal:        346.154 ave         366 max         328 min
Histogram: 2 5 9 5 9 4 5 7 5 1
Nghost:        3945.21 ave        4053 max        3846 min
Histogram: 4 7 6 7 3 9 3 3 4 6
Neighs:        68956.1 ave       73383 max       64476 min
Histogram: 1 6 5 5 9 7 8 7 2 2

Total # of neighbors = 3585716
Ave neighs/atom = 199.20644
Ave special neighs/atom = 0.0000000
Neighbor list builds = 24993
Dangerous builds = 0
11880 atoms in group oxygen
PPPM initialization ...
  using 12-bit tables for long-range coulomb (../kspace.cpp:328)
  G vector (1/distance) = 0.2980062
  grid = 40 240 40
  stencil order = 5
  estimated absolute RMS force accuracy = 0.00016497699
  estimated relative force accuracy = 1.1457018e-05
  using single precision MKL FFT
  3d grid and FFT values/proc = 15000 7600
Setting up Verlet run ...
  Unit style    : metal
  Current step  : 0
  Time step     : 0.001
Per MPI rank memory allocation (min/avg/max) = 8.564 | 8.590 | 8.612 Mbytes
Step f_2 Temp v_Tdiff v_deltaT 
       0            0    1502.4156            0            0 
  100000    1587.6561    1502.6008  0.068338275    793.40103 
  200000    3031.9153    1497.2571  0.085920382    997.52765 
  300000    4475.1082    1505.7451  0.085822777    996.39447 
  400000    5912.7713    1500.1089  0.085782882     995.9313 
  500000    7363.5718     1499.945  0.086440027    1003.5607 
  600000    8818.7801    1505.3588  0.084630777    982.55546 
  700000    10273.924    1492.5465  0.085697406    994.93893 
  800000     11719.92    1522.0192  0.086095938    999.56584 
  900000    13158.221    1492.6716  0.085353168    990.94235 
 1000000    14612.941    1505.6818  0.084578385    981.94719 
Loop time of 6956.8 on 52 procs for 1000000 steps with 18000 atoms

Performance: 12.420 ns/day, 1.932 hours/ns, 143.744 timesteps/s
99.8% CPU use with 52 MPI tasks x 1 OpenMP threads

MPI task timing breakdown:
Section |  min time  |  avg time  |  max time  |%varavg| %total
---------------------------------------------------------------
Pair    | 4421.4     | 4566.4     | 4729.2     | 140.4 | 65.64
Bond    | 0.06726    | 0.10419    | 0.1781     |   6.7 |  0.00
Kspace  | 1323       | 1524.3     | 1693.1     | 268.6 | 21.91
Neigh   | 613.67     | 653.51     | 737.77     | 107.8 |  9.39
Comm    | 156.02     | 167.43     | 195.53     |  75.2 |  2.41
Output  | 0.0010915  | 0.0011516  | 0.0023681  |   0.5 |  0.00
Modify  | 5.3347     | 6.0445     | 6.759      |  15.1 |  0.09
Other   |            | 38.98      |            |       |  0.56

Nlocal:        346.154 ave         368 max         328 min
Histogram: 2 4 9 7 10 5 5 5 3 2
Nghost:        3967.37 ave        4066 max        3892 min
Histogram: 4 9 6 4 10 6 4 1 5 3
Neighs:        68937.6 ave       73901 max       64676 min
Histogram: 3 1 8 11 9 8 5 3 1 3

Total # of neighbors = 3584753
Ave neighs/atom = 199.15294
Ave special neighs/atom = 0.0000000
Neighbor list builds = 253618
Dangerous builds = 0
Total wall time: 2:07:37
