LAMMPS (29 Oct 2020)
OMP_NUM_THREADS environment is not set. Defaulting to 1 thread. (../comm.cpp:94)
  using 1 OpenMP thread(s) per MPI task
OMP_NUM_THREADS environment is not set. Defaulting to 1 thread. (../comm.cpp:94)
  using 1 OpenMP thread(s) per MPI task
Lattice spacing in x,y,z = 5.5788000 5.5788000 5.5788000
Created orthogonal box = (0.0000000 0.0000000 0.0000000) to (27.894000 334.72800 27.894000)
  2 by 13 by 2 MPI processor grid
Changing box ...
  triclinic box = (0.0000000 0.0000000 0.0000000) to (27.894000 334.72800 27.894000) with tilt (0.0000000 0.0000000 0.0000000)
Created 12000 atoms
  create_atoms CPU = 0.005 seconds
Lattice spacing in x,y,z = 5.5788000 5.5788000 5.5788000
Created 6000 atoms
  create_atoms CPU = 0.001 seconds
12000 atoms in group oxygen
6000 atoms in group uranium
Setting atom values ...
  45 settings made for type/ratio
Setting atom values ...
  45 settings made for type/ratio
45 atoms in group anti_oxygen
45 atoms in group anti_uranium
Setting atom values ...
  45 settings made for type
Setting atom values ...
  45 settings made for type
Setting atom values ...
  12000 settings made for charge
Setting atom values ...
  6000 settings made for charge
PPPM initialization ...
  using 12-bit tables for long-range coulomb (../kspace.cpp:328)
  G vector (1/distance) = 0.29916851
  grid = 40 240 40
  stencil order = 5
  estimated absolute RMS force accuracy = 0.00015502622
  estimated relative force accuracy = 1.0765975e-05
  using single precision MKL FFT
  3d grid and FFT values/proc = 18225 7600
Neighbor list info ...
  update every 1 steps, delay 0 steps, check yes
  max neighbors/atom: 2000, page size: 100000
  master list distance cutoff = 13
  ghost atom cutoff = 13
  binsize = 6.5, bins = 5 52 5
  2 neighbor lists, perpetual/occasional/extra = 2 0 0
  (1) pair coul/long, perpetual
      attributes: half, newton on
      pair build: half/bin/newton/tri
      stencil: half/bin/3d/newton/tri
      bin: standard
  (2) pair eam/alloy, perpetual, copy from (1)
      attributes: half, newton on
      pair build: copy
      stencil: none
      bin: none
Setting up cg style minimization ...
  Unit style    : metal
  Current step  : 0
WARNING: Energy due to 3 extra global DOFs will be included in minimizer energies
Per MPI rank memory allocation (min/avg/max) = 10.42 | 10.45 | 10.47 Mbytes
Step Temp E_pair E_mol TotEng Press Volume 
       0            0   -231588.92            0   -231588.92    19820.881    260443.57 
     623            0   -235362.08            0   -235362.08     28.76818    263894.89 
Loop time of 9.159 on 52 procs for 623 steps with 18000 atoms

99.6% CPU use with 52 MPI tasks x 1 OpenMP threads

Minimization stats:
  Stopping criterion = linesearch alpha is zero
  Energy initial, next-to-last, final = 
     -231588.917151428  -235362.084353346  -235362.084353362
  Force two-norm initial, final = 5677.1781 31.292485
  Force max component initial, final = 3614.4358 10.221723
  Final line search alpha, max atom move = 1.2081061e-11 1.2348926e-10
  Iterations, force evaluations = 623 779

MPI task timing breakdown:
Section |  min time  |  avg time  |  max time  |%varavg| %total
---------------------------------------------------------------
Pair    | 4.998      | 5.1652     | 5.3316     |   3.3 | 56.40
Bond    | 7.3796e-05 | 0.00010112 | 0.00014136 |   0.0 |  0.00
Kspace  | 1.5907     | 1.7611     | 1.9373     |   5.9 | 19.23
Neigh   | 0.040241   | 0.046107   | 0.050474   |   1.0 |  0.50
Comm    | 0.18721    | 0.19109    | 0.19523    |   0.5 |  2.09
Output  | 0          | 0          | 0          |   0.0 |  0.00
Modify  | 0          | 0          | 0          |   0.0 |  0.00
Other   |            | 1.995      |            |       | 21.79

Nlocal:        346.154 ave         380 max         304 min
Histogram: 1 1 6 6 7 7 6 9 7 2
Nghost:        5626.13 ave        5719 max        5527 min
Histogram: 7 11 3 2 2 0 1 8 9 9
Neighs:       111451.0 ave      121831 max       97496 min
Histogram: 1 1 5 7 7 5 8 10 4 4

Total # of neighbors = 5795457
Ave neighs/atom = 321.96983
Ave special neighs/atom = 0.0000000
Neighbor list builds = 12
Dangerous builds = 0
PPPM initialization ...
  using 12-bit tables for long-range coulomb (../kspace.cpp:328)
  G vector (1/distance) = 0.29893969
  grid = 40 240 40
  stencil order = 5
  estimated absolute RMS force accuracy = 0.00015680388
  estimated relative force accuracy = 1.0889427e-05
  using single precision MKL FFT
  3d grid and FFT values/proc = 18225 7600
Setting up Verlet run ...
  Unit style    : metal
  Current step  : 0
  Time step     : 0.001
Per MPI rank memory allocation (min/avg/max) = 10.56 | 10.59 | 10.61 Mbytes
Step Dt Time Atoms Temp PotEng KinEng Press Volume 
       0        0.001            0    18000          900   -235362.09     2093.898    8503.4093    263894.89 
   50000        0.001           50    18000    897.62374   -234176.26    2088.3695   -1526.7873     269164.8 
  100000        0.001          100    18000      904.305   -234217.44    2103.9138     1918.833    268599.92 
  150000        0.001          150    18000    905.34726   -234220.89    2106.3387   -1068.2836    269027.86 
  200000        0.001          200    18000    904.19041   -234194.08    2103.6472    198.06819    268935.79 
  250000        0.001          250    18000    908.57486      -234206    2113.8479    -935.9433    269141.41 
  300000        0.001          300    18000    912.23324   -234215.93    2122.3593   -972.86307    269052.22 
  350000        0.001          350    18000    896.22197   -234228.04    2085.1082   -471.05271    268916.44 
  400000        0.001          400    18000    900.99444   -234209.45    2096.2116   -249.43111    269000.42 
  450000        0.001          450    18000    899.65279   -234210.93    2093.0902   -1884.9572    269196.64 
  500000        0.001          500    18000    907.80228   -234228.55    2112.0504    1551.6125    268612.15 
Loop time of 4690.26 on 52 procs for 500000 steps with 18000 atoms

Performance: 9.211 ns/day, 2.606 hours/ns, 106.604 timesteps/s
99.8% CPU use with 52 MPI tasks x 1 OpenMP threads

MPI task timing breakdown:
Section |  min time  |  avg time  |  max time  |%varavg| %total
---------------------------------------------------------------
Pair    | 2757.9     | 2816.6     | 2882.2     |  51.7 | 60.05
Bond    | 0.046342   | 0.072528   | 0.092708   |   4.4 |  0.00
Kspace  | 977.9      | 1046.5     | 1107.3     |  88.2 | 22.31
Neigh   | 31.707     | 32.829     | 34.688     |  15.9 |  0.70
Comm    | 133.96     | 139.22     | 143.52     |  20.7 |  2.97
Output  | 0.039159   | 0.039197   | 0.040851   |   0.1 |  0.00
Modify  | 575.17     | 605.75     | 635.74     |  63.5 | 12.91
Other   |            | 49.23      |            |       |  1.05

Nlocal:        346.154 ave         368 max         331 min
Histogram: 4 10 11 3 7 3 4 5 1 4
Nghost:        5598.63 ave        5680 max        5508 min
Histogram: 2 7 16 3 0 0 0 2 11 11
Neighs:       108982.0 ave      116238 max      104506 min
Histogram: 6 9 9 8 3 5 5 2 3 2

Total # of neighbors = 5667043
Ave neighs/atom = 314.83572
Ave special neighs/atom = 0.0000000
Neighbor list builds = 8216
Dangerous builds = 0
System init for write_data ...
PPPM initialization ...
  using 12-bit tables for long-range coulomb (../kspace.cpp:328)
  G vector (1/distance) = 0.29859596
  grid = 40 240 40
  stencil order = 5
  estimated absolute RMS force accuracy = 0.00015967279
  estimated relative force accuracy = 1.1088661e-05
  using single precision MKL FFT
  3d grid and FFT values/proc = 18225 7600
Total wall time: 1:18:19
