ITEM: TIMESTEP
50000
ITEM: NUMBER OF ATOMS
18000
ITEM: BOX BOUNDS xy xz yz pp pp pp
-9.7325587447040479e-02 2.7991325587446596e+01 0.0000000000000000e+00
-1.1065103176407169e+00 3.3583451031764082e+02 0.0000000000000000e+00
-1.1618051397861529e-01 2.8010180513978018e+01 0.0000000000000000e+00
ITEM: ATOMS id type x y z
1 1 1.18274 0.42122 1.30545
2 1 4.12114 0.434699 1.37027
3 1 4.00634 0.543884 4.21514
4 1 1.23546 0.441988 3.98386
5 1 1.29258 3.20844 1.2534
6 1 4.03907 3.07941 1.4739
7 1 4.19689 3.19843 4.36371
8 1 1.23866 3.28846 4.20293
9 1 6.81687 0.438011 4.33562
10 1 9.5838 0.352675 1.33481
11 1 9.69518 0.482778 3.94961
12 1 6.90903 0.480712 7.22258
13 1 6.86576 3.09162 1.55403
14 1 9.64599 3.04995 1.45321
15 1 9.88661 3.29669 4.21305
16 1 6.96082 3.13508 4.3348
17 1 12.3224 0.317678 1.54782
18 1 12.51 0.576731 4.20664
19 1 12.5319 3.26562 1.41498
20 1 12.6613 3.15417 4.19865
21 1 1.17935 5.89914 1.62714
22 1 4.07967 5.92369 1.39937
23 1 3.96712 6.01869 4.24221
24 1 1.15427 6.09724 4.29409
25 1 1.29851 8.71937 1.55383
26 1 4.00831 8.76256 1.39727
27 1 4.18272 8.68008 4.21079
28 1 1.38204 8.80978 4.35262
29 1 6.87264 5.92364 1.51627
30 1 9.77182 5.98423 1.46153
31 1 9.76697 6.05263 4.1687
32 1 6.79744 5.87576 4.20502
33 1 6.66858 11.6257 1.33356
34 1 9.58089 8.82474 1.38398
35 1 9.65662 8.82867 4.31464
36 1 6.85949 8.65553 4.15342
37 1 12.3361 8.85318 1.45516
38 1 12.563 5.97733 4.3405
39 1 12.6168 11.5743 1.44769
40 1 12.5679 8.74275 4.3201
41 1 1.37846 11.7 1.35787
42 1 4.06791 11.5457 1.43779
43 1 3.96656 11.5911 4.19492
44 1 1.11644 11.5423 4.23554
45 1 1.27897 14.4891 1.39424
46 1 4.09157 14.3657 1.40539
47 1 4.02237 14.4663 4.14879
48 1 1.12363 14.4579 4.13403
49 1 8.23555 13.2019 2.85943
50 1 9.8772 14.6262 1.45366
51 1 9.94611 11.4047 4.14856
52 1 6.81182 11.4084 4.38312
53 1 6.70956 14.4235 4.39942
54 1 12.6569 14.4062 1.35987
55 1 9.82052 14.4666 4.42928
56 1 9.86015 14.614 7.65769
12026 2 8.30899 13.0099 0.15439
58 1 12.5251 11.5882 4.22164
59 1 12.4817 17.1646 1.30186
60 1 12.4552 14.3698 4.18845
61 1 1.20907 17.2503 1.4183
62 1 3.98136 17.27 1.36386
63 1 3.98789 17.3305 4.13336
64 1 1.22388 17.3419 4.28913
65 1 1.03325 20.0702 1.31021
66 1 3.90249 20.1079 1.40093
67 1 4.13114 20.0352 4.11009
68 1 1.30815 20.0407 4.10492
69 1 6.90246 17.2636 1.44951
70 1 9.81434 17.2772 1.31471
71 1 9.72215 17.1979 4.03064
72 1 6.74025 17.3234 4.17753
73 1 6.85847 19.9953 1.45073
74 1 9.73734 20.1352 1.59469
75 1 9.68005 20.119 4.30936
76 1 6.94856 20.0352 4.18412
77 1 12.6369 20.1491 1.22821
12007 2 8.32602 -0.874926 2.73505
79 1 12.3943 22.9446 1.50251
80 1 12.3546 19.9885 3.98483
81 1 1.23385 22.8073 1.2703
82 1 3.86385 22.9388 1.39797
83 1 4.10671 22.9935 4.13819
84 1 1.32603 22.9077 3.99417
85 1 6.62527 22.9082 1.36462
86 1 9.54946 22.9624 1.43892
87 1 9.54032 22.9691 4.27462
88 1 6.91757 22.8368 4.21246
15002 2 13.8518 -1.0581 2.88918
90 1 12.5515 22.8855 4.21473
91 1 1.22999 0.405878 6.9791
92 1 4.0398 0.428848 7.05169
93 1 4.09904 0.373791 9.96775
94 1 1.31358 0.467018 9.73861
95 1 1.39476 3.27016 7.09222
96 1 4.18659 3.27373 7.07719
97 1 4.01615 5.88553 9.86863
98 1 1.33616 3.2417 9.77345
99 1 6.90074 3.31953 7.01117
100 1 9.74294 3.15577 6.98732
101 1 9.69821 3.17991 9.71979
102 1 3.9606 3.1489 9.90547
103 1 6.92676 6.1087 7.00576
104 1 9.81292 6.04645 7.06099
105 1 9.68314 5.9774 10.0196
106 1 6.83793 3.25188 9.86647
107 1 12.457 0.38383 7.01077
108 1 12.4743 3.27037 9.92808
109 1 12.6031 3.07875 7.06014
110 1 12.5252 6.14226 9.94972
111 1 1.22178 6.15579 7.05221
112 1 4.03223 6.15586 7.09027
113 1 4.10179 8.70645 9.69081
114 1 1.23016 6.12565 9.86738
115 1 1.22002 8.97554 7.10359
116 1 3.99554 8.93265 6.95664
117 1 6.80717 8.63671 9.86292
118 1 1.11963 8.93876 9.94951
119 1 6.84775 8.79371 7.05738
120 1 9.72658 8.83211 6.97899
121 1 9.66731 8.64835 10.033
122 1 6.8337 5.87426 9.85295
123 1 7.0663 11.5123 7.43908
124 1 9.75336 12.0181 6.81425
125 1 7.89296 11.0855 10.4454
126 2 8.35797 9.81771 8.50323
127 1 12.6916 5.92237 7.0964
128 1 12.5192 8.84319 9.81406
129 1 12.566 11.5616 7.08823
130 1 10.1072 11.1309 9.13933
131 1 1.34791 11.8176 7.03804
132 1 4.08249 11.7282 7.0434
133 1 4.30367 11.7165 9.80075
134 1 1.35823 11.684 9.8374
135 1 1.28374 14.3167 6.94865
136 1 4.03682 14.5005 6.77465
137 1 3.86135 14.3613 9.74182
138 1 1.23569 14.4191 9.84918
139 1 7.23566 14.1616 7.19243
140 1 12.6811 14.4614 7.10324
141 1 10.0667 13.3399 10.2898
142 1 6.48307 13.1688 10.1482
143 1 5.68878 15.7575 8.65623
144 1 9.60263 17.3487 6.89786
145 1 9.94636 17.1248 9.54855
146 1 8.12962 14.9096 10.2726
12055 2 5.38563 -0.970633 5.6804
148 1 12.7723 11.6933 9.91718
149 1 12.5036 17.084 6.97274
150 1 12.5257 14.3607 10.1128
151 1 1.41243 17.2909 6.89464
152 1 3.98409 17.336 6.89474
153 1 3.94079 17.3248 9.84906
154 1 1.20068 17.4448 9.82993
155 1 1.33184 20.0456 6.98186
156 1 3.98072 20.0527 6.94164
157 1 3.94545 20.02 9.65489
158 1 1.22555 20.1534 9.80976
159 1 6.92177 17.3494 6.83542
160 1 12.607 17.3017 4.21367
161 1 9.67779 19.8784 9.77762
162 1 6.92801 17.5308 9.90936
163 1 6.9535 20.1132 7.07051
164 1 9.77486 20.0846 7.09234
165 1 8.0739 21.3551 11.2934
166 1 6.62582 20.1181 9.68482
12103 2 5.52888 -0.895565 11.3853
168 1 12.43 17.1674 9.98365
12074 2 -0.0423994 13.012 8.49737
170 1 12.4014 20.3234 10.0187
171 1 1.36086 22.8762 7.04988
172 1 4.09959 23.1574 6.8658
173 1 4.00055 22.8681 9.75993
174 1 1.08915 23.0149 9.76652
175 1 6.82105 22.8877 7.03471
176 1 9.70492 23.0136 7.08623
177 1 9.73496 23.0864 9.89355
178 1 6.69226 23.1674 9.81078
179 1 12.6021 22.9496 6.98757
180 1 12.4796 23.0108 9.86901
181 1 1.41327 0.401674 12.5285
182 1 4.24814 0.381673 12.6677
183 1 1.17958 3.27626 12.5212
184 1 4.01139 3.19194 12.7271
185 1 7.12693 0.368451 12.7644
186 1 9.7199 0.401699 12.6152
187 1 6.97324 3.12008 12.6755
188 1 9.84159 3.17082 12.5547
189 1 12.5953 0.0722674 12.4615
190 1 12.6221 3.03956 12.7813
191 1 1.30482 6.10653 12.7924
192 1 4.11025 6.08564 12.6768
193 1 1.17987 8.90601 12.7747
194 1 3.97266 8.99076 12.5304
195 1 6.93276 5.98583 12.8111
196 1 9.76176 6.0409 12.757
197 1 6.8959 8.90673 12.7547
198 1 9.59437 8.82006 12.7173
199 1 12.7466 5.83966 12.7496
200 1 12.4282 8.76847 12.6378
201 1 1.27263 11.796 12.5914
202 1 4.1193 11.6611 12.7307
203 1 1.18267 14.5747 12.8129
204 1 4.05398 14.7121 12.6113
205 1 6.92807 11.6532 12.9345
206 1 9.73728 11.5807 12.815
207 1 6.75054 14.4179 12.8479
208 1 9.71109 14.6184 12.8474
209 1 12.6113 11.4488 12.9028
210 1 12.3996 14.404 12.7827
211 1 1.21644 17.2436 12.615
212 1 4.01089 17.4437 12.6311
213 1 1.13963 20.1943 12.7534
214 1 4.03557 20.2465 12.4882
215 1 6.93752 17.2045 12.5461
216 1 9.72901 17.3331 12.4871
217 1 6.68816 19.8922 12.8382
218 1 9.7434 20.0871 12.8601
219 1 12.4266 17.3773 12.7812
220 1 12.4919 20.0346 12.6419
221 1 1.1531 22.909 12.4692
222 1 3.99831 23.0691 12.7127
223 1 6.80251 23.087 12.8797
224 1 9.71795 22.9864 12.7307
225 1 12.4311 22.9233 12.7839
12125 2 10.8925 21.3866 11.2194
12110 2 11.2 4.60057 11.3239
15022 2 13.8826 10.1777 2.90485
12124 2 8.15595 24.1599 11.3207
15082 2 13.9168 15.8057 8.47709
12109 2 8.29202 7.39502 11.5429
12016 2 8.2243 7.34713 0.0956439
12008 2 5.44269 1.73638 2.99857
5730 1 12.4502 0.350279 9.80348
12010 2 11.1099 1.88466 2.81487
12123 2 5.66524 21.5296 11.2276
12108 2 5.31629 4.59994 11.1715
12013 2 2.69347 4.57259 2.80437
12122 2 2.64796 24.2292 11.0954
12107 2 2.68543 7.40258 11.193
12112 2 2.75058 13.0031 11.3166
12017 2 8.38632 4.57254 2.79471
12018 2 5.55579 7.31639 2.85086
12104 2 8.20086 1.82607 11.2183
12020 2 11.1138 7.40391 2.81603
12002 2 2.65877 1.82241 -0.0270333
396 1 9.71913 11.5814 1.33495
12023 2 2.77154 10.0549 2.83397
12120 2 10.992 15.7947 11.2201
12102 2 2.70847 1.86271 11.292
12113 2 5.66679 10.3651 11.3057
12027 2 8.31071 10.1899 2.79416
12028 2 5.58957 12.9794 2.81971
12100 2 11.0477 24.3763 8.41651
12030 2 11.1254 12.9009 2.76733
12099 2 11.0564 21.464 5.66305
12098 2 5.4059 24.3638 8.39066
12033 2 2.70453 15.7977 2.80859
415 1 6.89433 14.5326 1.35301
12097 2 8.30554 21.4647 8.43896
12096 2 8.25331 24.2184 5.58148
12037 2 8.2606 15.6468 2.8419
12038 2 5.46651 18.6951 2.77984
12095 2 5.52188 21.4705 5.60846
12040 2 11.1272 18.5781 2.68024
392 1 6.91645 8.72673 1.47529
12093 2 2.7157 21.5364 8.42853
12043 2 2.598 21.4393 2.71642
15052 2 13.7871 -1.08571 8.48601
12092 2 2.67126 24.3248 5.48209
15032 2 13.8245 15.9045 2.74338
12047 2 8.28377 21.45 2.96687
12048 2 5.45917 24.2304 2.67661
12090 2 11.2459 18.6106 8.42267
12050 2 11.0279 24.2308 2.81381
12119 2 8.22943 18.7989 11.2839
12052 2 2.68835 1.79668 5.56736
12088 2 5.31274 18.6156 8.47523
12118 2 5.56473 15.9282 11.077
12019 2 11.1218 4.60077 0.0441783
12056 2 8.3455 1.85297 5.65844
12025 2 5.44695 10.1268 0.0428601
12058 2 5.49522 1.82304 8.47022
12003 2 2.59857 -1.04429 2.68276
12060 2 11.1311 1.75146 8.46081
12117 2 2.64676 18.7874 11.2341
12062 2 2.6409 7.47651 5.64654
12063 2 2.66466 4.72244 8.39873
12089 2 11.1814 15.9006 5.58263
12065 2 5.46493 4.66143 5.69252
12066 2 8.33667 7.47366 5.61324
12067 2 8.32942 4.68474 8.47657
12068 2 5.43147 7.33258 8.41498
12069 2 11.2093 4.53326 5.65654
12070 2 11.0664 7.38327 8.50079
12115 2 11.1419 10.2258 11.2713
12072 2 2.607 12.9037 5.4496
12073 2 2.64023 10.2902 8.48744
12114 2 8.38189 13.1262 11.8463
12075 2 5.45964 10.1255 5.75694
12076 2 8.3166 12.8688 5.15226
12077 2 8.4085 13.0346 8.79954
12078 2 5.23245 13.2302 8.25694
12079 2 11.1602 10.2271 5.62447
12080 2 11.4553 13.0247 8.46915
12087 2 8.09091 16.1693 8.26115
12082 2 2.70587 18.7278 5.51128
12083 2 2.95543 15.952 8.32865
12006 2 8.25393 1.76352 -0.0351223
12085 2 5.40873 15.8844 5.67535
12086 2 8.26063 18.6936 5.53343
398 1 12.5006 6.14003 1.56017
5726 1 6.83194 0.354288 9.96838
5724 1 9.67931 0.311424 7.00355
12053 2 2.58937 -0.916797 8.56679
5633 1 6.90645 0.418276 1.4098
6112 1 12.5382 8.64406 7.10864
5725 1 9.66631 0.352818 9.97552
169 1 12.4595 20.1418 6.82508
12005 2 5.45472 -0.960855 0.0176054
12148 2 8.16206 21.3526 14.0462
12009 2 11.1608 -0.980237 0.0879463
12022 2 2.76197 12.9892 0.0162131
12057 2 8.18154 -0.897698 8.51858
15001 2 13.9255 1.83025 0.0592764
12029 2 11.0184 10.2297 -0.0607051
15012 2 13.9322 4.653 2.80819
15116 2 13.7525 18.5941 11.2744
15061 2 13.9935 7.31051 5.64226
15091 2 13.8474 24.1771 5.62227
12012 2 2.65672 7.29122 0.10414
15062 2 13.9215 4.57947 8.52406
12015 2 5.36859 4.51547 -0.0248203
12081 2 -0.0118563 15.7924 5.67228
12032 2 2.44154 18.4838 -0.0709908
15111 2 13.8545 12.9114 11.4821
12049 2 11.0362 21.3688 -0.0342416
12059 2 11.0786 -0.784197 5.52312
15121 2 13.8395 24.168 11.2914
15042 2 13.8373 21.2221 2.79164
15051 2 13.9039 1.71156 5.62297
15092 2 13.7696 21.4048 8.38995
15011 2 13.7048 7.52332 0.0240707
12021 2 -0.0857478 10.2163 0.0838026
12111 2 -0.136218 10.3085 11.2711
12094 2 -0.179141 24.2229 8.2462
12084 2 -0.139198 18.6804 8.32725
12091 2 0.0658288 21.5282 5.52391
15071 2 13.8378 12.9601 5.55719
12035 2 5.40667 15.7694 0.0808666
12045 2 5.30714 21.4058 0.116319
12036 2 8.32037 18.505 0.0786294
226 1 4.06263 0.32218 15.5084
227 1 1.32464 0.287852 15.2553
228 1 4.18213 3.28951 15.5451
229 1 1.44888 3.17695 15.3493
230 1 9.82299 0.305738 15.4001
231 1 6.97312 0.398611 15.4382
232 1 9.62996 3.18156 15.3967
233 1 6.88954 3.24194 15.5726
234 1 12.6714 0.277122 15.4491
235 1 12.538 3.20778 15.6663
236 1 4.17533 6.18583 15.3285
237 1 1.26503 6.27045 15.5506
238 1 4.16977 8.85921 15.5234
239 1 1.42709 8.91019 15.508
240 1 9.80645 5.90504 15.4306
241 1 6.96876 5.99757 15.625
242 1 9.86574 8.72839 15.417
243 1 7.0004 8.74935 15.5733
244 1 12.5871 5.98512 15.4889
245 1 12.6275 8.76895 15.6766
246 1 3.89324 11.5616 15.49
247 1 1.24111 11.7024 15.4532
248 1 4.06414 14.3749 15.5242
249 1 1.28692 14.5753 15.4954
250 1 9.74771 11.5215 15.6543
251 1 6.71636 11.72 15.5819
252 1 9.59069 14.4436 15.4533
253 1 6.75525 14.5498 15.5432
254 1 12.548 11.6018 15.5631
255 1 12.5359 14.5483 15.6206
256 1 3.95973 17.1718 15.5625
257 1 1.21283 17.4462 15.2967
258 1 4.05666 20.0987 15.4774
259 1 1.22029 20.0746 15.4358
260 1 9.51267 17.1839 15.4221
261 1 6.62026 17.2523 15.3934
262 1 9.54761 19.9476 15.7099
263 1 6.83319 20.0326 15.616
264 1 12.3937 17.2467 15.4701
265 1 12.4748 19.9732 15.5148
266 1 3.803 22.8701 15.4835
267 1 1.0647 22.7535 15.3967
268 1 9.40651 22.7919 15.4002
269 1 6.61231 22.8579 15.6971
270 1 12.3185 23.0138 15.5714
271 1 1.28015 0.387366 18.0978
272 1 4.1321 0.410547 18.4094
273 1 4.05068 0.483587 21.1232
274 1 1.29278 0.375479 21.0567
275 1 1.31196 3.12677 18.3937
276 1 4.1118 3.17612 18.3175
277 1 4.18787 3.23329 20.9881
278 1 1.32619 3.29737 21.0182
279 1 6.8689 0.37197 18.2128
280 1 9.64582 0.437368 18.3931
281 1 9.65007 0.40323 21.1216
282 1 6.87589 0.265283 21.0563
283 1 6.88817 3.19002 18.3881
284 1 9.77468 3.20678 18.2181
285 1 9.71951 3.2571 21.161
286 1 6.92546 3.23588 21.2506
287 1 12.2657 0.291609 18.3514
288 1 12.5313 0.278265 21.4245
289 1 12.7652 3.00412 18.2856
290 1 12.4438 3.20552 21.0728
291 1 1.3484 5.93853 18.2869
292 1 4.10715 5.97403 18.2451
293 1 4.16779 6.13976 21.2399
294 1 1.31738 6.20403 21.1431
295 1 1.41746 8.7157 18.4052
296 1 4.07425 8.72989 18.2482
297 1 4.08622 8.89038 21.023
298 1 1.45809 8.86547 21.2363
299 1 7.03753 5.916 18.444
300 1 9.67458 5.86443 18.3095
301 1 9.79134 6.00386 21.2408
302 1 6.95901 5.91088 21.222
303 1 6.78677 8.8756 18.4467
304 1 9.65624 8.72144 18.432
305 1 9.83844 8.68186 21.3034
306 1 7.00354 8.6146 21.233
307 1 12.5593 5.9222 18.3242
308 1 12.5514 5.98721 21.2394
309 1 12.3991 8.71919 18.3854
310 1 12.5586 8.71138 21.1739
311 1 1.379 11.8069 18.2476
312 1 4.27298 11.651 18.343
313 1 4.20855 11.7227 21.1465
314 1 1.27903 11.5851 20.9963
315 1 1.28936 14.6177 18.4018
316 1 4.12527 14.4918 18.3892
317 1 4.33063 14.4265 21.1359
318 1 1.41445 14.3553 21.1606
319 1 7.08405 11.6027 18.3309
320 1 9.92046 11.5359 18.4904
321 1 9.73935 11.5539 21.1753
322 1 7.00768 11.5511 21.1837
323 1 6.77068 14.4069 18.3161
324 1 9.57517 14.4349 18.2847
325 1 9.62667 14.608 21.1602
326 1 7.06143 14.4021 21.1967
327 1 12.69 11.7074 18.2666
328 1 12.5946 11.6448 21.1583
329 1 12.482 14.4774 18.2183
330 1 12.328 14.4838 21.1159
331 1 1.21083 17.2706 18.235
332 1 3.96877 17.1978 18.1726
333 1 4.09822 17.2947 21.1035
334 1 1.23035 17.1541 21.0063
335 1 1.3138 20.1237 18.2286
336 1 4.07559 20.0818 18.4429
337 1 3.94097 20.0463 21.1595
338 1 1.27199 19.9569 21.0825
339 1 6.9476 17.0981 18.3751
340 1 9.71009 17.2062 18.3124
341 1 9.75218 17.446 21.1686
342 1 6.90601 17.331 21.2026
343 1 6.81603 20.0155 18.4243
344 1 9.68381 19.9745 18.4386
345 1 9.46065 20.1567 21.0731
346 1 6.71886 20.2625 21.0518
347 1 12.619 17.3357 18.3745
348 1 12.5945 17.2951 21.0765
349 1 12.434 20.1757 18.2678
350 1 12.4908 20.1196 21.0631
351 1 1.08853 23.0204 18.2075
352 1 4.0478 22.9545 18.205
353 1 4.09769 23.1034 20.9859
354 1 1.31145 22.8434 21.022
355 1 6.66742 22.8047 18.3488
356 1 9.511 22.8967 18.1701
357 1 9.53773 22.9541 21.0803
358 1 6.80495 22.9517 21.0822
359 1 12.2774 22.9044 18.2718
360 1 12.38 22.8704 21.0002
361 1 1.30462 0.402414 23.913
362 1 4.06506 3.02836 23.8002
363 1 4.06795 0.431952 26.761
364 1 1.18644 0.360938 26.6964
365 1 1.09812 3.16814 23.8478
366 1 3.98684 5.95745 23.9
367 1 4.12063 3.20449 26.614
368 1 1.28339 3.1878 26.5206
369 1 6.98782 3.22655 23.8811
370 1 9.76602 3.15036 23.9334
371 1 9.63026 0.408552 26.6377
372 1 6.86385 0.301986 26.6284
373 1 6.8881 5.97006 26.9398
374 1 9.62653 5.88294 24.1217
375 1 9.6045 3.08812 26.7764
376 1 6.74168 3.0957 26.7631
377 1 12.5527 3.11168 24.0656
378 1 12.5762 0.521492 26.9299
379 1 12.4265 6.03074 26.9075
380 1 12.4833 3.31218 26.7792
381 1 1.19658 6.00094 24.1917
382 1 6.75862 6.01372 23.9903
383 1 4.01075 5.71746 26.8116
384 1 1.29734 5.81736 26.8999
385 1 1.25467 8.77 24.0516
386 1 4.10028 8.80164 23.872
387 1 4.03183 8.60573 26.7604
388 1 1.35301 8.72349 26.8458
389 1 6.79762 8.61739 26.9325
390 1 12.5372 8.92526 23.8936
391 1 9.69328 5.88432 26.9727
12155 2 5.63838 -0.998598 16.8521
393 1 6.96948 8.95723 24.0976
394 1 9.67599 8.76283 24.0583
395 1 9.57122 8.80598 26.6663
12136 2 2.66649 10.2932 13.9593
397 1 12.3003 8.90736 26.6928
12159 2 11.0966 -1.0596 16.8798
399 1 9.7611 11.6704 26.6707
12138 2 8.33737 10.1519 14.205
401 1 1.37557 11.5165 23.9914
402 1 4.20146 11.516 24.0238
403 1 4.10474 11.4008 26.9276
404 1 1.1918 11.6701 26.6478
405 1 1.24057 14.2393 23.8769
406 1 4.1101 14.4225 23.9224
407 1 3.96437 14.2342 26.6596
408 1 1.23866 14.3416 26.7111
409 1 6.99384 11.7001 23.9647
410 1 9.76858 11.5938 24.0095
411 1 9.68195 14.4636 26.7851
412 1 6.89676 11.5746 26.8467
413 1 6.81976 14.5989 24.0764
414 1 9.70068 14.4347 23.8857
12143 2 8.198 16.0995 13.9989
416 1 6.80236 14.4552 26.8224
417 1 12.5336 11.7274 24.0286
418 1 12.5151 11.7874 26.7985
419 1 12.3981 14.4682 23.8859
420 1 12.5498 14.3335 26.538
421 1 1.22769 17.1897 23.8465
422 1 3.81775 17.2728 23.9394
423 1 4.01319 17.062 26.8217
424 1 1.16722 17.0381 26.7874
425 1 1.13279 19.982 23.8943
426 1 3.93801 20.1663 24.0543
427 1 3.88044 19.8851 26.7231
428 1 1.09746 20.0539 26.6291
429 1 6.60036 17.3877 23.8648
430 1 9.48376 17.3066 23.9041
431 1 9.64277 17.2675 26.7435
432 1 6.80099 17.3434 26.8013
433 1 6.67255 20.1066 23.8796
434 1 9.56355 20.0013 23.9085
435 1 9.71804 19.9817 26.7396
436 1 6.88088 20.035 26.7798
437 1 12.3243 17.2316 23.9586
438 1 12.615 17.0876 26.7057
439 1 12.4216 20.2634 23.8664
440 1 12.4435 19.9094 26.5689
441 1 1.32003 22.8751 23.7987
442 1 4.0576 22.9823 23.8562
443 1 4.05333 22.8725 26.5993
444 1 1.31803 23.0635 26.642
445 1 6.82525 22.9018 23.9726
446 1 9.61998 22.8021 23.9232
447 1 9.67742 22.9432 26.8124
448 1 6.80363 22.9842 26.7634
449 1 12.5081 23.0618 23.8956
450 1 12.5234 22.6322 26.7118
12135 2 11.3064 7.302 14.1241
12250 2 11.1121 24.2006 25.3297
12149 2 5.29255 24.2113 14.1715
12134 2 5.51851 7.48666 14.0562
12157 2 8.24756 -0.99067 19.7665
15192 2 13.7331 21.5413 19.6431
12249 2 10.9396 21.4754 22.4311
12150 2 10.9922 24.2519 14.0903
12128 2 8.31259 -1.12362 14.0615
15222 2 13.9023 10.2442 25.3019
12201 2 -0.094026 -0.964229 22.4846
12248 2 5.41413 24.2749 25.3658
12203 2 2.64414 -1.09472 25.2013
15212 2 13.8533 4.69565 25.3751
12153 2 2.65119 -1.12355 19.7086
12146 2 2.51846 21.5269 13.9682
12141 2 2.684 15.9939 13.8705
15191 2 13.7514 24.2457 16.9218
15202 2 13.8537 -1.01089 25.297
5999 1 12.5001 0.376552 24.1027
5993 1 6.82635 0.510539 23.8401
12233 2 2.59767 15.7299 25.2753
12232 2 2.65412 18.5703 22.4556
12235 2 5.53248 15.7172 22.4933
15201 2 13.8309 1.80445 22.6623
12247 2 8.17568 21.3517 25.4377
12152 2 2.84008 1.77743 16.7906
12230 2 11.1351 13.091 25.3275
12246 2 8.24389 24.2666 22.5163
12229 2 11.143 10.1461 22.4511
12156 2 8.27645 1.73943 16.9821
12139 2 5.40135 13.0841 14.1499
12158 2 5.41583 1.83641 19.7523
12222 2 2.74191 12.9156 22.572
12160 2 11.0866 1.68313 19.651
12245 2 5.41774 21.4664 22.5551
12162 2 2.76713 7.40913 16.9184
12163 2 2.65129 4.71548 19.6424
12228 2 5.56022 13.0606 25.3361
12165 2 5.64228 4.50601 17.0711
12166 2 8.31534 7.39078 16.8626
12167 2 8.40806 4.53275 19.7573
12168 2 5.48738 7.45794 19.6425
12169 2 11.1094 4.46287 16.8394
12170 2 11.1517 7.29683 19.6844
12243 2 2.50805 21.4012 25.338
12172 2 2.53349 13.1309 16.8007
12173 2 2.81779 10.2602 19.5809
12242 2 2.65109 24.4107 22.5312
12175 2 5.47813 10.2104 16.9618
12176 2 8.20845 12.9724 16.9898
12177 2 8.33097 10.2346 19.8457
12178 2 5.5269 12.9427 19.7397
12179 2 11.1297 10.1974 17.0605
12180 2 11.1209 13.0836 19.66
5994 1 9.62964 0.276131 24.0535
12182 2 2.57541 18.61 16.7993
12183 2 2.72228 15.8792 19.6159
12223 2 2.68624 10.1516 25.4482
12185 2 5.38759 15.856 16.8977
12186 2 8.16867 18.538 16.9751
12187 2 8.34997 15.8833 19.7126
12188 2 5.49253 18.5837 19.6997
12189 2 11.0267 15.9529 16.8718
12190 2 11.1478 18.6824 19.6949
12227 2 8.37469 10.2609 25.3484
12192 2 2.55995 24.2721 16.8554
12193 2 2.57754 21.3747 19.6877
12236 2 8.14535 18.7745 22.5439
12195 2 5.38024 21.4166 16.928
12196 2 8.1372 24.2585 16.7795
12197 2 8.1422 21.5103 19.5841
12198 2 5.42558 24.2634 19.6086
12199 2 10.9044 21.5098 16.9195
12200 2 10.8985 24.2281 19.5449
12240 2 10.9514 18.5976 25.24
12202 2 2.69082 1.79526 22.4877
6363 1 12.3866 6.08151 24.0754
12239 2 10.9778 15.8886 22.4889
12225 2 5.45503 10.1601 22.6605
12206 2 8.22258 1.7157 22.6601
5986 1 4.18906 0.307009 23.8684
12208 2 5.55403 1.6861 25.3127
12226 2 8.43881 12.9304 22.5346
12210 2 11.0623 1.73775 25.4016
12238 2 5.32924 18.5137 25.3594
12212 2 2.70146 7.47981 22.5722
12213 2 2.66161 4.52771 25.3405
12237 2 8.16797 15.898 25.3269
12215 2 5.45611 4.60226 22.5543
12216 2 8.32606 7.18406 22.6421
12217 2 8.23059 4.59958 25.4927
12218 2 5.40938 7.55186 25.3306
12219 2 11.104 4.64743 22.6106
12220 2 11.0243 7.41471 25.3334
12145 2 11.1527 18.6869 14.0776
12131 2 2.71368 4.80178 14.095
15211 2 13.9609 7.49146 22.5017
12130 2 11.0485 1.73612 14.041
12129 2 5.58072 1.72124 14.0654
12221 2 0.047129 10.2316 22.4919
12133 2 8.21404 4.67781 14.1436
15181 2 13.8409 18.6305 16.882
12205 2 5.37578 -0.975237 22.4887
12144 2 5.33497 18.6271 14.0539
12140 2 11.1097 13.003 14.1813
15162 2 13.816 4.44871 19.6626
15241 2 13.8746 24.1439 22.3869
12209 2 11.047 -0.916718 22.614
15141 2 13.8386 15.8867 14.156
15231 2 13.8929 18.6804 22.6103
15221 2 13.9178 13.0234 22.5661
12164 2 -0.0785248 7.42763 19.8008
15242 2 13.9595 21.4075 25.3495
12154 2 -0.0468355 1.72948 19.6557
12127 2 0.0205822 1.74765 13.9438
12171 2 -0.0149115 10.224 16.9707
15136 2 13.9609 10.1457 14.1743
12039 2 11.1635 15.6666 27.9961
12046 2 8.30398 24.2742 27.9551
15146 2 13.8763 21.4151 14.0593
12042 2 2.54725 24.256 28.1135
15031 2 13.8163 18.4948 28.0277
451 1 1.06797 25.6623 1.35997
452 1 3.97537 25.6789 1.33263
453 1 4.11864 25.7774 4.13916
454 1 1.27738 25.5939 4.05202
455 1 6.85827 25.8156 1.35611
456 1 9.64709 25.7136 1.36379
457 1 9.75313 25.7254 4.20508
458 1 6.98163 25.6646 4.26592
459 1 12.4535 28.5042 1.51402
460 1 12.3619 25.6433 4.11928
461 1 1.13332 28.4251 1.37603
462 1 4.06425 28.6042 1.33608
463 1 3.86914 28.5088 4.06032
464 1 1.15291 28.5091 4.01297
465 1 1.47115 31.483 1.53159
466 1 4.17368 31.4281 1.04532
467 1 4.05449 31.3392 4.04952
468 1 1.20712 31.353 4.25264
469 1 6.85672 28.5668 1.35101
470 1 9.65575 28.435 1.35552
471 1 9.47888 28.6403 4.11628
472 1 6.75617 28.4524 4.19192
473 1 6.81875 31.3013 1.42076
474 1 9.77397 31.2834 1.44088
475 1 9.6623 31.4989 4.2409
476 1 6.80305 31.1951 4.28938
477 1 12.5386 31.1636 1.20564
478 1 12.435 28.2837 4.12564
15341 2 13.7063 29.9133 11.0898
480 1 12.3205 33.8131 1.22329
481 1 1.2981 34.1125 1.32991
482 1 3.85183 34.0647 1.19422
483 1 4.02731 34.2397 4.01705
484 1 1.108 34.2742 4.19345
497 1 13.7197 35.5573 2.55071
486 1 4.10171 36.8047 1.38093
487 1 4.0768 37.1819 4.22114
488 1 1.16088 36.8791 4.21093
489 1 6.87128 34.1605 1.40412
490 1 9.61792 33.9622 1.26654
491 1 9.45843 34.1743 4.16722
492 1 6.81301 34.0948 4.24381
493 1 6.78627 36.9529 1.35647
494 1 9.51805 36.781 1.38819
495 1 9.69469 37.0619 4.25815
496 1 6.74229 36.906 4.35876
15262 2 13.8632 32.8667 3.12077
498 1 12.214 34.0367 4.26642
499 1 12.2493 37.12 1.29494
500 1 12.4057 36.9984 4.30819
501 1 1.12902 37.0479 1.4484
502 1 3.93625 39.6107 1.28141
503 1 3.96978 39.8713 4.0228
504 1 1.16618 39.7591 4.14064
505 1 1.09329 39.9583 1.30416
506 1 3.51556 42.3738 1.57449
507 1 4.03274 42.5405 4.35256
508 1 1.19555 42.6555 3.84909
509 1 6.80606 39.7667 1.38695
510 1 9.63117 39.6472 1.32014
511 1 9.56772 39.7902 4.15521
512 1 6.93979 39.7958 4.1711
513 1 6.60056 42.5969 1.53196
514 1 9.43393 42.5319 1.3354
515 1 9.60972 42.5722 4.03282
516 1 6.84204 42.7042 4.26584
517 1 12.4616 39.8427 1.48053
518 1 12.3883 39.7555 4.09608
519 1 12.3886 42.6248 1.14648
520 1 12.3377 42.4688 4.16143
521 1 1.12469 45.0384 1.40473
522 1 4.09405 45.1332 1.36604
523 1 4.03109 45.3026 4.20705
524 1 1.2295 45.4884 4.16059
525 1 1.09549 47.8842 1.35623
526 1 3.95827 48.0105 1.4085
527 1 3.98969 48.0639 4.24067
528 1 1.19158 48.1825 4.22436
529 1 6.85155 45.331 1.4278
530 1 9.68571 45.4151 1.50657
531 1 9.60141 45.3722 4.08757
532 1 6.87811 45.5409 4.18532
533 1 6.87456 48.1948 1.45594
534 1 9.72427 48.1376 1.37463
535 1 9.78348 48.2095 4.10982
536 1 6.78237 48.346 4.38057
537 1 12.4977 45.5093 1.26381
538 1 12.4098 45.3484 4.23171
539 1 12.5429 48.2127 1.23075
540 1 12.5566 48.0959 4.1541
541 1 1.15268 25.5491 6.85357
542 1 3.91678 25.868 6.83374
543 1 3.75094 25.6871 9.71694
544 1 1.11716 25.8199 9.73667
545 1 6.79069 25.7832 6.95136
546 1 9.68503 25.8943 6.94015
547 1 9.60564 25.8218 9.89746
548 1 6.62677 25.9132 9.82302
549 1 12.4332 25.7861 7.04895
550 1 12.3442 25.8895 9.65386
551 1 1.21589 28.5208 6.84442
552 1 3.92277 28.6157 6.93363
553 1 3.8583 28.5899 9.78801
554 1 0.988674 28.7487 9.61865
555 1 1.18543 31.2524 7.03668
556 1 3.84143 31.45 7.01188
557 1 4.11322 31.4053 9.74512
558 1 1.23824 31.4314 9.75813
559 1 6.66541 28.4996 7.06469
560 1 9.45059 28.584 6.87065
561 1 9.70403 28.6693 9.65587
562 1 6.80868 28.6387 9.77082
563 1 6.65829 31.231 6.96979
564 1 9.52285 31.3469 6.94113
565 1 9.47984 31.3346 9.80121
566 1 6.80244 31.6086 9.81706
567 1 12.3387 28.5697 6.91142
568 1 12.4855 28.6055 9.64999
569 1 12.4002 31.266 4.18157
570 1 12.3415 31.5827 9.73293
571 1 1.1689 34.0536 6.94547
572 1 3.90061 34.2218 6.89819
573 1 3.84753 34.1574 9.81877
574 1 1.13803 34.2315 9.77371
575 1 1.23708 36.9387 7.02338
576 1 4.0984 37.0636 7.03799
577 1 4.00743 37.0479 9.82527
578 1 1.23627 37.0086 9.68213
579 1 6.83916 34.1694 7.01248
580 1 9.53153 34.274 7.09939
581 1 9.56545 34.2183 9.91275
582 1 6.73453 34.1772 9.9067
583 1 6.97804 37.0002 7.05891
584 1 9.74569 36.9565 7.07613
585 1 9.48891 37.1151 9.94743
586 1 6.70691 37.0078 9.95655
587 1 12.4253 34.2347 6.93153
588 1 12.445 34.1981 9.74844
589 1 12.4209 36.9892 6.98537
590 1 12.2717 37 9.81451
591 1 1.05796 39.8805 7.07319
592 1 3.96485 39.8134 7.00289
593 1 3.97558 39.8545 9.61593
594 1 1.06264 39.6273 9.87145
595 1 1.20254 42.7375 6.70648
596 1 3.94125 42.5843 7.0674
597 1 4.12049 42.746 9.7345
598 1 1.24038 42.3122 9.48285
599 1 6.93089 39.867 7.11281
600 1 9.59159 39.9759 7.03179
601 1 9.72062 39.85 9.85463
602 1 6.79409 39.878 9.8828
603 1 6.90146 42.6388 7.04957
604 1 9.70961 42.6076 6.89442
605 1 9.84259 42.7246 9.7076
606 1 6.89139 42.5714 9.82015
607 1 12.4191 39.8655 6.9106
608 1 12.424 39.7102 9.90605
609 1 12.5089 42.6862 6.95371
610 1 12.5103 42.6043 9.84194
611 1 1.219 45.2893 6.95895
612 1 3.96064 45.2631 6.97067
613 1 3.99151 45.4165 9.79155
614 1 1.15563 45.2678 9.84794
615 1 1.24596 48.1326 7.07172
616 1 3.84411 48.0726 7.07091
617 1 4.09609 48.1024 9.88374
618 1 1.16437 48.1495 9.87454
619 1 6.98295 45.3153 6.99199
620 1 9.72789 45.4097 6.93806
621 1 9.63244 45.4634 9.90119
622 1 6.91097 45.3632 9.76982
623 1 6.72115 48.2428 7.09858
624 1 9.54471 48.146 6.94214
625 1 9.58243 48.1042 9.75003
626 1 6.86448 48.08 9.85801
627 1 12.4627 45.4549 6.96101
628 1 12.406 45.3697 9.60363
629 1 12.3674 48.3094 6.88574
630 1 12.38 48.116 9.74534
631 1 1.20407 25.6661 12.4433
632 1 3.85167 25.8225 12.4911
633 1 6.82119 25.8304 12.6061
634 1 9.62463 25.6665 12.7032
635 1 12.3027 25.7698 12.543
636 1 1.12021 28.5303 12.5535
637 1 3.97037 28.466 12.521
638 1 1.08776 31.3004 12.6057
639 1 3.83538 31.4334 12.6
640 1 6.76524 28.6856 12.5388
641 1 9.61691 28.4993 12.4009
642 1 6.6599 31.4359 12.6885
643 1 9.51258 31.436 12.6472
644 1 12.3751 28.5158 12.5409
645 1 12.1929 31.362 12.5411
646 1 1.06153 34.0411 12.6038
647 1 3.93949 34.1922 12.7488
648 1 1.19785 36.7592 12.5747
649 1 3.99256 37.0499 12.6354
650 1 6.7208 34.222 12.6034
651 1 9.44454 34.1778 12.6754
652 1 6.73389 37.1327 12.8351
653 1 9.64669 36.8937 12.7802
654 1 12.3632 34.2919 12.521
655 1 12.3635 37.1116 12.6196
656 1 1.18049 39.7311 12.6523
657 1 3.91094 39.8362 12.5511
658 1 1.0424 42.6151 12.6262
659 1 3.95492 42.6237 12.4426
660 1 6.79009 39.875 12.6394
661 1 9.60109 39.7314 12.7228
662 1 6.73588 42.5069 12.4943
663 1 9.58999 42.5394 12.4047
664 1 12.4705 39.956 12.6049
665 1 12.3284 42.6806 12.7365
666 1 1.19763 45.2678 12.6717
667 1 3.92863 45.5566 12.4665
668 1 1.23033 48.2175 12.7072
669 1 4.08045 48.2084 12.6508
670 1 6.87281 45.2394 12.6629
671 1 9.65057 45.3694 12.6869
672 1 6.81299 48.0077 12.6132
673 1 9.57053 48.1774 12.672
674 1 12.3202 45.3895 12.4884
675 1 12.3149 48.0233 12.6576
12363 2 10.9861 49.515 11.2101
15307 2 13.7545 32.7121 8.40801
12253 2 2.49523 27.01 2.75634
12362 2 5.52512 49.4365 11.2003
12286 2 8.3916 46.9183 -0.0440721
12262 2 2.6249 32.6254 -0.0231094
12257 2 8.3709 27.0573 2.75761
12258 2 5.46175 29.8496 2.77553
15291 2 13.9413 49.4873 2.69986
12260 2 10.9846 29.8074 2.82658
12360 2 11.0885 43.971 11.166
15297 2 13.8399 27.0009 8.33416
12263 2 2.57205 32.8311 3.17072
12359 2 8.24027 46.8127 11.1862
15351 2 13.8731 41.1172 11.1501
15356 2 13.7284 46.7755 11.215
12267 2 8.25581 32.7234 2.7982
12268 2 5.51518 35.6615 2.78926
12345 2 11.0755 27.2215 11.026
12270 2 11.1492 35.6086 2.80119
12358 2 5.48134 44.0027 11.1222
12344 2 8.12331 30.0337 11.073
12273 2 2.55427 38.3441 2.92327
12357 2 2.64268 46.8737 11.2425
12343 2 5.27659 27.0828 11.1333
15326 2 13.796 46.8316 5.63283
12277 2 8.33756 38.2892 2.75585
12278 2 5.37526 41.3064 2.88098
12275 2 5.44933 38.3674 0.0273557
12280 2 10.9869 41.1528 2.77054
12355 2 10.957 38.4636 11.2433
12342 2 2.52712 29.942 11.1793
12283 2 2.70228 44.0398 2.90111
12354 2 8.19285 41.1549 11.2087
15316 2 13.8146 41.1849 5.52434
12252 2 2.59998 29.4895 -0.0652418
12287 2 8.31566 44.0718 2.70311
12288 2 5.59548 46.7085 2.68435
15336 2 13.7799 49.4553 8.40112
12290 2 11.171 46.6339 2.77418
12353 2 5.36529 38.4714 11.2155
12292 2 2.54997 49.471 2.93194
12285 2 5.3693 43.9862 -0.0967634
12294 2 8.29535 49.6414 2.70426
89 1 12.557 25.6686 1.46532
12256 2 8.20026 29.84 -0.0709218
12297 2 2.59404 29.8657 5.55492
12298 2 2.56303 27.1022 8.27078
6553 1 12.3668 31.3632 7.03082
12300 2 5.37591 27.0606 5.60056
12301 2 8.16994 29.9303 5.61869
12302 2 8.10274 27.1202 8.46215