LAMMPS (29 Oct 2020)
OMP_NUM_THREADS environment is not set. Defaulting to 1 thread. (../comm.cpp:94)
  using 1 OpenMP thread(s) per MPI task
OMP_NUM_THREADS environment is not set. Defaulting to 1 thread. (../comm.cpp:94)
  using 1 OpenMP thread(s) per MPI task
Reading data file ...
  triclinic box = (-0.21523554 -3.1716075 -0.24168331) to (28.109236 337.89961 28.135683) with tilt (0.0000000 0.0000000 0.0000000)
  2 by 13 by 2 MPI processor grid
  reading atoms ...
  18000 atoms
  reading velocities ...
  18000 velocities
Finding 1-2 1-3 1-4 neighbors ...
  special bond factors lj:    0.0      0.0      0.0     
  special bond factors coul:  0.0      0.0      0.0     
     0 = max # of 1-2 neighbors
     0 = max # of 1-3 neighbors
     0 = max # of 1-4 neighbors
     1 = max # of special neighbors
  special bonds CPU = 0.003 seconds
  read_data CPU = 0.073 seconds
Setting atom values ...
  11940 settings made for charge
Setting atom values ...
  5970 settings made for charge
PPPM initialization ...
  using 12-bit tables for long-range coulomb (../kspace.cpp:328)
  G vector (1/distance) = 0.29818989
  grid = 40 240 40
  stencil order = 5
  estimated absolute RMS force accuracy = 0.00016313488
  estimated relative force accuracy = 1.132909e-05
  using single precision MKL FFT
  3d grid and FFT values/proc = 15000 7600
Neighbor list info ...
  update every 1 steps, delay 0 steps, check yes
  max neighbors/atom: 2000, page size: 100000
  master list distance cutoff = 11.3
  ghost atom cutoff = 11.3
  binsize = 5.65, bins = 6 61 6
  2 neighbor lists, perpetual/occasional/extra = 2 0 0
  (1) pair coul/long, perpetual
      attributes: half, newton on
      pair build: half/bin/newton/tri
      stencil: half/bin/3d/newton/tri
      bin: standard
  (2) pair eam/alloy, perpetual, copy from (1)
      attributes: half, newton on
      pair build: copy
      stencil: none
      bin: none
Setting up Verlet run ...
  Unit style    : metal
  Current step  : 0
  Time step     : 0.001
Per MPI rank memory allocation (min/avg/max) = 8.312 | 8.341 | 8.360 Mbytes
Step Temp E_pair E_mol TotEng Press 
       0         1500   -232718.32            0   -229228.49   -973.56494 
  100000    1490.9635   -232744.96            0   -229276.16   -1797.1478 
Loop time of 691.022 on 52 procs for 100000 steps with 18000 atoms

Performance: 12.503 ns/day, 1.920 hours/ns, 144.713 timesteps/s
99.8% CPU use with 52 MPI tasks x 1 OpenMP threads

MPI task timing breakdown:
Section |  min time  |  avg time  |  max time  |%varavg| %total
---------------------------------------------------------------
Pair    | 450.87     | 461.62     | 474.06     |  29.5 | 66.80
Bond    | 0.0056446  | 0.010266   | 0.013394   |   1.8 |  0.00
Kspace  | 131.35     | 144.44     | 156.29     |  61.0 | 20.90
Neigh   | 58.716     | 62.814     | 68.79      |  30.9 |  9.09
Comm    | 15.783     | 16.805     | 18.786     |  20.1 |  2.43
Output  | 5.211e-05  | 5.7879e-05 | 0.00028993 |   0.0 |  0.00
Modify  | 1.8689     | 4.0059     | 5.9034     |  66.6 |  0.58
Other   |            | 1.325      |            |       |  0.19

Nlocal:        346.154 ave         367 max         328 min
Histogram: 4 6 8 4 8 3 7 5 4 3
Nghost:        3972.21 ave        4083 max        3883 min
Histogram: 7 10 5 3 4 2 6 6 4 5
Neighs:        69349.8 ave       73804 max       65161 min
Histogram: 6 3 6 4 10 5 2 8 5 3

Total # of neighbors = 3606191
Ave neighs/atom = 200.34394
Ave special neighs/atom = 0.0000000
Neighbor list builds = 24995
Dangerous builds = 0
11940 atoms in group oxygen
PPPM initialization ...
  using 12-bit tables for long-range coulomb (../kspace.cpp:328)
  G vector (1/distance) = 0.29818989
  grid = 40 240 40
  stencil order = 5
  estimated absolute RMS force accuracy = 0.00016313488
  estimated relative force accuracy = 1.132909e-05
  using single precision MKL FFT
  3d grid and FFT values/proc = 15000 7600
Setting up Verlet run ...
  Unit style    : metal
  Current step  : 0
  Time step     : 0.001
Per MPI rank memory allocation (min/avg/max) = 8.563 | 8.591 | 8.611 Mbytes
Step f_2 Temp v_Tdiff v_deltaT 
       0            0    1490.9635            0            0 
  100000    1554.8069    1493.0467  0.068801323    798.77697 
  200000    3037.3155    1495.6606  0.078161909     907.4525 
  300000     4510.594    1487.2466  0.080936543    939.66575 
  400000    5978.4953    1492.6751  0.081337705     944.3232 
  500000     7437.264    1494.3795  0.082086353    953.01493 
  600000    8904.2198    1488.6382  0.081746695    949.07154 
  700000    10370.573     1494.255  0.080604443     935.8101 
  800000     11828.61    1501.8328  0.082430068    957.00544 
  900000    13302.771    1485.8109  0.081969244    951.65531 
 1000000    14785.164    1496.8776  0.081189185    942.59889 
Loop time of 6881.08 on 52 procs for 1000000 steps with 18000 atoms

Performance: 12.556 ns/day, 1.911 hours/ns, 145.326 timesteps/s
99.8% CPU use with 52 MPI tasks x 1 OpenMP threads

MPI task timing breakdown:
Section |  min time  |  avg time  |  max time  |%varavg| %total
---------------------------------------------------------------
Pair    | 4403.8     | 4536.7     | 4698.8     | 117.7 | 65.93
Bond    | 0.051877   | 0.10164    | 0.14214    |   5.7 |  0.00
Kspace  | 1310.6     | 1493.3     | 1651.2     | 225.1 | 21.70
Neigh   | 606.59     | 639.26     | 691.11     |  84.7 |  9.29
Comm    | 157.08     | 167.91     | 187.01     |  69.0 |  2.44
Output  | 0.0010274  | 0.0010777  | 0.0022618  |   0.5 |  0.00
Modify  | 5.3826     | 6.0014     | 6.5362     |  13.5 |  0.09
Other   |            | 37.89      |            |       |  0.55

Nlocal:        346.154 ave         367 max         333 min
Histogram: 7 4 11 7 6 5 5 5 0 2
Nghost:        3965.27 ave        4076 max        3890 min
Histogram: 7 7 4 16 6 0 0 4 2 6
Neighs:        69367.5 ave       75053 max       66496 min
Histogram: 8 10 8 8 6 6 2 1 2 1

Total # of neighbors = 3607110
Ave neighs/atom = 200.39500
Ave special neighs/atom = 0.0000000
Neighbor list builds = 252842
Dangerous builds = 0
Total wall time: 2:06:12
