ITEM: TIMESTEP
100000
ITEM: NUMBER OF ATOMS
18000
ITEM: BOX BOUNDS pp pp pp
-4.1367773139426894e-01 2.7753677731394756e+01
-5.0379884736236411e+00 3.3311798847361223e+02
-4.1409012706698750e-01 2.7754090127067986e+01
ITEM: ATOMS id type x y z
3673 2 5.29437 0.382982 5.27632
5 2 2.51325 -1.96144 2.29273
6 1 1.59342 -0.4312 3.72245
19 1 4.17908 -0.307852 1.54915
14 2 5.56994 -2.28334 2.3343
9 1 1.66673 -0.344658 0.752568
10 1 3.83213 -3.89433 3.5581
3604 2 2.48611 -2.37394 5.49312
12 1 4.06463 -1.34816 4.11298
3547 1 1.06305 -2.89541 0.936883
17952 1 3.95974 -3.02742 0.843942
3548 1 1.0782 -3.11001 3.88714
63 2 2.56887 1.19566 2.32107
3868 2 13.7795 20.2891 5.09275
3609 1 3.90491 -3.80891 6.59513
3605 1 1.04009 -3.68649 6.90979
3617 1 6.68532 -3.67303 6.65633
18 1 6.64763 -3.72911 3.84354
3559 1 6.80263 -3.66753 0.897402
20 1 6.85699 -0.860857 3.74147
3551 1 6.74886 -0.793467 0.730183
17 1 9.43769 -1.08736 1.23194
3685 2 10.8406 0.547866 5.51731
29 2 10.8911 -2.64878 2.3332
30 1 12.4025 -0.881001 3.72985
26 2 11.0809 0.406476 2.38633
21 1 12.1695 -1.09591 0.941766
75 2 7.78792 0.643279 2.18832
22 1 9.84246 -0.981508 3.90083
3616 2 8.09059 -2.26016 5.24869
3564 1 9.34482 -3.68193 3.79709
3571 1 9.49546 -3.89574 1.0416
3572 1 12.1712 -3.73715 3.81762
3569 1 12.3411 -3.75956 0.866557
3619 1 6.69741 -0.861061 6.68863
3629 1 12.3344 -3.71463 6.72911
3621 1 9.64864 -3.50383 6.57428
66 1 0.975453 2.09144 3.868
7 1 1.04819 2.18283 0.935787
70 1 3.99676 1.93969 4.09849
3664 2 2.34105 3.38528 5.34247
11 1 3.99642 2.4764 1.07095
74 2 5.55538 3.6827 2.32983
65 1 0.940154 4.76718 0.995904
69 1 3.80152 4.55963 3.65106
3733 2 5.26588 6.05264 5.34617
126 1 1.1955 7.49256 3.93103
67 1 1.27412 7.40174 0.902652
68 1 1.02866 4.7694 3.77253
80 1 5.97039 6.12382 1.79641
123 2 2.59287 6.15341 2.5387
130 1 3.90031 7.21711 3.86857
71 1 3.7529 5.2029 0.747958
3671 1 3.72301 4.62491 6.71337
77 1 6.75077 2.10807 0.724494
3667 1 0.908691 4.79403 6.76381
3665 1 1.07403 1.95858 6.68766
3625 2 10.8707 -5.07715 5.24767
242 2 -0.396051 20.1859 2.19547
3725 1 0.962287 7.58643 6.86701
7274 2 5.18221 3.34443 13.7659
78 1 6.6182 1.88382 3.71049
32 1 12.2323 1.90743 3.59255
89 1 12.4698 1.43051 0.739699
23 1 9.72489 1.56062 1.12387
72 1 6.6586 4.76817 4.03625
138 1 6.84138 7.45756 4.15413
24 1 9.44535 1.61358 3.70927
3676 2 8.09348 3.34192 5.25178
82 1 8.07068 3.95177 1.95572
35 1 12.7711 4.27527 1.41928
90 1 12.308 4.88875 4.06897
86 2 10.7369 3.71774 2.31964
3745 2 10.8715 6.12679 5.39904
92 1 12.4937 7.485 3.82048
135 2 8.18414 6.22566 2.55798
83 1 10.2008 6.21615 1.96554
84 1 9.59001 4.61023 4.11984
14484 1 8.20889 6.29535 0.005319
91 1 12.6085 7.46498 0.847217
142 1 9.70067 7.81888 4.07542
81 1 10.4251 4.06571 0.0117213
3689 1 12.3663 1.99765 6.54165
3679 1 6.67043 4.50811 6.80775
3681 1 9.50059 1.95152 6.66297
3793 2 5.47906 11.8332 5.08316
125 1 3.54017 8.53971 1.41605
127 1 1.53417 10.3221 0.798321
139 1 5.63622 10.9405 1.58496
134 2 5.72539 8.66959 2.39504
128 1 1.60372 10.4102 3.69773
129 1 5.80648 8.55244 -0.0204019
183 2 3.30998 10.9126 2.12696
3724 2 2.49493 8.95283 5.1583
132 1 4.36207 9.88213 3.92641
122 2 0.27768 9.03867 2.31
131 1 3.52303 12.3011 0.5253
3785 1 1.15248 13.2739 3.93383
186 1 1.00354 13.3511 1.02902
190 1 4.09186 12.7673 3.42774
3784 2 2.6937 14.0682 2.26139
3727 1 1.1711 10.3479 6.55329
197 1 6.79603 13.3313 1.0348
7213 2 5.11866 -5.08172 10.9257
198 1 6.69867 13.4648 3.94738
140 1 7.13429 10.5613 4.03687
141 1 10.1938 8.96168 0.302273
137 1 7.84589 8.65107 1.78133
3805 2 10.915 11.9001 5.08307
149 1 12.2362 10.5452 1.123
146 2 10.9786 8.86284 2.43581
152 1 12.4382 10.3069 3.93423
195 2 8.08692 11.6784 2.25293
3736 2 8.18123 8.94302 5.32541
143 1 8.37052 10.9635 0.164333
144 1 9.84899 10.652 3.42408
151 1 12.3725 13.4124 1.23014
210 1 12.3556 13.2868 3.91499
201 1 9.64436 13.2193 0.93445
202 1 9.56233 13.3062 3.86954
3809 1 12.2981 13.2427 6.85798
3802 1 9.49373 13.2245 6.73159
3794 2 2.41944 14.6336 5.50649
245 1 0.421878 17.8668 1.42735
189 1 4.32493 14.6587 0.737427
249 1 2.48107 19.6432 1.36803
3853 2 5.38555 17.5454 5.29938
246 1 1.02271 18.976 4.00371
187 1 1.93271 15.8274 1.11367
194 2 5.74616 14.7945 2.40122
254 2 5.10287 20.2893 2.18636
188 1 1.13323 15.8614 3.81162
243 2 2.43945 17.6098 2.71727
250 1 3.87236 18.8579 3.8338
3844 2 2.55797 20.3465 5.17941
192 1 3.99329 17.4465 1.12094
3797 1 3.80371 15.6267 3.68077
3791 1 3.93523 16.0436 6.48147
7334 2 5.17809 9.12051 13.6296
3787 1 1.10589 16.1075 6.73044
7441 2 -0.315368 17.6215 10.7817
3615 2 7.96092 -5.05105 8.0095
3862 1 9.39492 19.0083 9.19881
258 1 6.64611 18.9642 3.77845
257 1 6.67388 18.9054 1.12917
3796 2 8.1557 14.7894 5.19052
200 1 6.72703 16.2111 3.8302
206 2 10.8464 14.7145 2.28252
199 1 6.88131 16.2286 0.851343
3865 2 10.898 17.5152 5.16849
269 1 12.286 19.0807 0.859809
270 1 12.3109 18.8412 3.71912
211 1 12.2852 16.2891 0.958219
266 2 10.8873 20.3202 2.28069
212 1 12.1726 16.2692 3.64547
261 1 9.61035 18.9198 0.653684
255 2 8.1318 17.639 2.35854
262 1 9.47293 18.9675 3.63668
3856 2 7.96044 20.3224 5.04698
203 1 9.61035 16.0228 0.858713
204 1 9.45474 16.1466 3.74313
259 2 8.0798 20.4195 -0.151435
3803 1 9.6177 16.1175 6.68144
3811 1 12.4996 15.9779 6.56486
3861 1 9.50245 18.9098 6.36824
3806 2 10.6854 14.6619 8.10086
7346 2 10.8393 8.90011 13.5596
8 1 1.04486 -0.838055 6.55988
3611 1 3.83665 -0.971728 6.72644
7273 2 5.10634 0.567088 10.8558
7205 1 1.05426 -3.64226 12.3165
3606 1 0.929397 -0.839438 9.35421
7207 1 1.01684 -0.800769 12.2532
3614 2 5.29084 -2.33195 8.04832
7209 1 3.8074 -3.64855 12.3025
3663 2 2.45918 0.438199 8.10237
3610 1 3.77158 -3.76295 9.33637
7204 2 2.25835 -2.24267 10.8013
7211 1 3.80588 -0.960839 12.3432
3612 1 3.77846 -0.928678 9.35149
3658 1 1.00143 -3.7614 9.69919
7396 2 8.02148 14.6348 10.7999
7228 2 13.6453 -2.29474 10.9541
7219 1 6.54691 -0.803968 12.2966
182 2 -0.361416 14.9065 1.97612
7217 1 6.59991 -3.65008 12.1122
3620 1 6.67249 -0.84303 9.47234
3631 1 12.3055 -0.784046 6.80622
3618 1 6.63537 -3.61335 9.35946
3623 1 9.3255 -0.784834 6.70381
7172 1 12.2915 -3.65889 9.54377
7285 2 10.9654 0.448414 10.9243
7229 1 12.1338 -3.70609 12.2827
7231 1 12.1712 -0.875752 12.3468
3626 2 10.8853 -2.3087 8.22029
3632 1 12.1367 -0.942174 9.53847
7221 1 9.47104 -3.83056 12.3315
3675 2 8.02616 0.546872 8.14417
3622 1 9.32231 -3.75042 9.5059
7216 2 8.0131 -2.28632 10.898
7223 1 9.17353 -1.05707 12.4477
3624 1 9.3802 -0.876289 9.5091
7468 2 13.5951 20.3551 10.8369
3661 2 -0.284804 0.608758 5.22492
3870 1 12.1549 19.0444 9.24885
7406 2 10.8389 14.7275 13.6765
3669 1 3.95798 1.74335 6.81519
7265 1 1.01174 2.03533 12.3574
3674 2 5.22074 3.19249 8.0689
3608 1 1.06807 2.01027 9.50718
7269 1 3.80697 1.88895 12.3815
3670 1 3.68942 1.89526 9.6318
7264 2 2.39408 3.59082 10.9142
3729 1 3.74642 7.64203 6.73913
3666 1 3.90764 4.72788 9.48138
7333 2 5.10985 6.21748 10.9251
7267 1 0.899447 4.87226 12.528
7329 1 3.61322 7.65638 12.2922
3723 2 2.29541 6.22736 8.06285
3730 1 3.79882 7.58399 9.62913
7271 1 3.68302 4.90143 12.3532
3668 1 0.952392 7.71271 9.5916
7261 1 1.01142 4.93557 9.70199
7325 1 0.914523 7.60219 12.3597
7337 1 6.38894 7.52908 12.2977
3680 1 6.68574 7.64412 9.55171
3672 1 6.62098 4.7018 9.56576
7465 2 10.7065 17.5407 10.8032
3749 1 12.4716 7.53078 6.64131
3677 1 6.60778 1.93 6.46826
3741 1 9.36646 7.5061 6.88575
7277 1 6.60282 2.10747 12.2481
3678 1 6.53959 1.96068 9.39629
3737 1 6.55277 7.52091 6.81767
7289 1 12.3561 2.21155 12.2403
3690 1 12.3086 2.01247 9.48422
3686 2 10.8059 3.38562 8.18313
7281 1 9.52343 1.70176 12.378
3682 1 9.44207 1.96844 9.48579
7276 2 8.01365 3.3533 10.941
7279 1 6.69404 4.8097 12.1856
3691 1 12.2389 4.75573 6.81813
3683 1 9.42749 4.66063 6.74646
3684 1 9.46063 4.6918 9.59379
7283 1 9.64996 4.62054 12.3303
3742 1 9.44228 7.62999 9.49867
3735 2 8.05701 6.09836 8.24481
7345 2 10.7453 6.26942 10.7868
7349 1 12.1745 7.58708 11.9451
7291 1 12.3222 4.9161 9.79146
3692 1 12.3124 7.60947 9.33629
7341 1 9.29451 7.4268 12.1488
3789 1 3.96105 13.221 6.48775
3842 2 -0.474784 20.489 7.83416
7469 1 12.2229 19.0463 12.2632
3786 1 1.12093 13.3225 6.6838
3731 1 3.9481 10.4857 6.68316
7393 2 5.23312 11.9252 10.8333
3726 1 1.04234 10.471 9.50335
7327 1 0.947765 10.3859 12.3469
3734 2 5.16154 9.00839 8.10983
3783 2 2.50422 11.6646 7.90176
7324 2 2.35922 8.95437 10.9297
7331 1 3.90238 10.5414 12.1414
3732 1 3.72942 10.331 9.47284
3728 1 1.00624 13.2356 9.50717
7389 1 3.75997 13.2871 12.0151
7385 1 0.891984 13.2402 12.2126
3790 1 3.80043 13.2465 9.24805
7467 2 13.7706 17.5877 13.4091
7397 1 6.54061 13.3257 12.1101
7383 2 2.3456 11.7532 13.5735
3743 1 9.63716 10.3631 6.40069
3751 1 12.3981 10.4533 6.70006
3812 1 12.2149 16.0264 9.10149
3738 1 6.8839 10.4508 9.35952
3740 1 6.65172 13.2007 9.38215
7339 1 6.72669 10.3654 12.1848
3739 1 6.71628 10.3977 6.73652
3801 1 6.90425 13.2092 6.58918
3810 1 9.45732 13.3174 9.39894
3814 1 12.5102 13.4401 9.56072
3744 1 9.59735 10.5249 9.35346
7343 1 9.39058 10.3441 12.2606
7336 2 8.07646 9.10572 10.806
3795 2 8.14667 11.8126 7.97829
7405 2 10.8065 11.9622 10.8196
3750 1 12.3047 10.3629 9.37669
7351 1 12.1732 10.5338 12.1226
3746 2 10.9766 9.0444 7.9743
7401 1 9.41156 13.2696 12.1969
7409 1 12.2736 13.4166 12.1645
7461 1 9.23091 18.7997 11.9155
7394 2 5.18673 14.7117 13.5397
3845 1 1.02777 18.9241 6.67464
3849 1 3.9279 18.8704 6.5434
3798 2 5.31868 14.6175 8.03595
121 2 -0.31114 6.29051 -0.266654
3858 1 6.50521 18.9994 9.31684
3857 1 6.68697 18.9258 6.59806
7384 2 2.48699 14.6984 10.6442
7449 1 3.74885 18.9307 12.2397
3846 1 1.08968 18.9215 9.42894
3788 1 1.07845 16.2385 9.53717
3854 2 5.19587 20.4279 7.95591
7445 1 0.977098 19.0278 12.2053
7453 2 5.25565 17.555 10.6849
3850 1 3.80078 18.9737 9.40832
3843 2 2.45312 17.5585 8.07408
3792 1 3.96027 16.1001 9.19207
7387 1 0.928072 16.0753 12.1656
7391 1 3.7892 16.2385 11.8866
7444 2 2.56529 20.3394 10.9288
179 2 -0.307979 11.6362 0.101133
7443 2 2.47426 17.5221 13.5513
3869 1 12.2707 18.8858 6.58114
7403 1 9.33179 16.0867 12.1499
3866 2 10.7109 20.3567 7.85738
7456 2 8.03289 20.4929 10.7107
3804 1 9.41097 16.2215 9.48181
7411 1 12.1609 16.1007 12.0482
7399 1 6.61006 16.1132 12.2005
3799 1 6.8228 16.1074 6.55485
7348 2 13.4746 9.02082 10.8031
7457 1 6.57625 18.9943 12.3002
3800 1 6.64783 16.0267 9.46693
3855 2 8.15032 17.617 7.9529
7455 2 7.95081 17.454 13.5629
7408 2 13.772 14.8374 11.1445
7466 2 10.796 20.3987 13.5826
3722 2 -0.35306 9.15572 7.99794
7454 2 5.25494 20.4299 13.6095
14646 1 0.492974 19.8086 -0.373551
145 2 10.7232 6.416 -0.399697
10873 2 5.06863 0.605428 16.6635
10805 1 1.06795 -3.61651 17.8822
7206 1 1.00584 -3.56557 15.1569
10807 1 0.816008 -0.796693 17.927
10814 2 5.03448 -2.16246 19.4519
7208 1 0.954027 -0.770214 15.0989
10809 1 3.83657 -3.61283 18.0313
10863 2 2.23547 0.678124 19.4076
7210 1 3.78167 -3.75298 15.1282
10804 2 2.39913 -2.19025 16.5513
10811 1 3.64448 -0.750346 18.084
7212 1 3.84493 -0.807606 15.2976
10806 1 0.967635 -3.54051 20.7062
10808 1 0.982347 -0.854758 20.7368
10803 2 2.32586 -5.0911 19.2101
7442 2 -0.351561 20.3035 13.6208
10817 1 6.5958 -3.63423 17.8733
191 1 4.44507 19.5459 27.6162
10820 1 6.59901 -0.779099 20.7214
10818 1 6.68187 -3.57882 20.6597
10819 1 6.40247 -0.777196 17.9622
7218 1 6.44808 -3.95951 15.0088
7220 1 6.74704 -1.18896 15.0236
10885 2 10.785 0.521838 16.5801
10829 1 12.4273 -3.79963 18.0662
7230 1 12.2657 -3.74775 15.1861
10831 1 12.2167 -0.91354 17.9303
10826 2 10.8446 -2.45994 19.2816
7232 1 12.2237 -0.934869 15.0905
10821 1 9.43479 -3.77046 17.916
10875 2 7.96949 0.443438 19.333
7222 1 9.27991 -3.63178 15.0958
10816 2 8.02592 -2.25888 16.5869
10823 1 9.30358 -0.956959 18.0586
7224 1 9.44582 -1.08155 15.3766
10822 1 9.51798 -3.83066 20.6537
10824 1 9.39725 -0.848169 20.6878
10830 1 12.156 -3.67441 20.7342
10865 1 0.82382 1.9413 17.9449
7266 1 0.85285 2.10385 15.105
10874 2 5.08093 3.44102 19.3162
10869 1 3.65009 1.97094 17.9957
7270 1 3.70506 1.97323 15.3338
10864 2 2.3032 3.39953 16.4502
10866 1 0.806242 2.02497 20.8121
10933 2 5.20435 6.20034 16.4596
10925 1 1.01262 7.60393 17.9252
10867 1 0.864323 4.62272 17.8359
7268 1 0.869127 4.93446 15.1652
10929 1 3.84536 7.56253 17.7814
10923 2 2.49197 6.29448 19.1943
7330 1 3.87945 7.64158 15.0307
10871 1 3.74708 4.83387 17.8423
7272 1 3.75963 4.7791 15.0829
7326 1 0.987811 7.66237 15.1155
10872 1 3.76388 4.81762 20.5808
10868 1 0.996109 4.96666 20.5716
10870 1 3.69679 2.06806 20.92
7280 1 6.54173 4.63242 15.2018
10926 1 0.997857 7.6978 20.6303
7338 1 6.79557 7.58143 15.1118
10879 1 6.55405 4.73283 17.8955
10938 1 6.51035 7.55787 20.5008
11041 2 -0.425872 17.4964 16.519
10801 2 -0.478841 -4.86401 16.4615
14547 2 13.7149 6.35164 24.9125
10877 1 6.62672 1.93423 17.9392
10878 1 6.47913 1.89188 20.7549
7278 1 6.49254 1.80262 15.1444
10937 1 6.65768 7.62153 17.8862
10889 1 12.1357 1.93862 17.8895
7290 1 12.1605 1.79896 15.0174
10886 2 10.8793 3.32734 19.3288
10881 1 9.43326 1.88914 17.8949
7282 1 9.31261 1.83551 15.1047
10876 2 8.04613 3.40583 16.5453
10945 2 11.0496 6.18917 16.3807
10949 1 12.3861 7.48851 17.7596
10891 1 12.2647 4.80943 17.8575
7292 1 12.0356 4.64508 15.0945
10941 1 9.50386 7.60847 17.7014
10935 2 7.92969 6.11327 19.2147
7342 1 9.49234 7.74866 15.068
10883 1 9.1918 4.66787 17.9122
7284 1 9.38147 4.76529 14.9487
7350 1 12.0993 7.76628 15.0919
10950 1 12.2636 7.71651 20.6237
10942 1 9.44684 7.60053 20.4864
10884 1 9.49953 4.73676 20.6549
10882 1 9.32878 2.05162 20.724
10892 1 12.1687 4.86862 20.6014
7286 2 10.8122 3.24744 13.767
14604 1 7.19482 19.0168 26.4282
14642 2 -0.383534 20.4229 24.7618
14596 2 8.18089 14.709 21.9462
10993 2 5.16407 11.837 16.3713
10927 1 0.977384 10.5355 17.8239
10934 2 5.20039 8.98104 19.1259
7328 1 1.03373 10.5324 14.9679
10983 2 2.39084 11.7696 19.0979
10924 2 2.41717 8.94836 16.4038
10931 1 3.82746 10.2884 17.6097
7332 1 3.76902 10.3839 15.0279
10985 1 0.909166 13.2808 17.6485
7386 1 0.868972 13.2254 14.9767
10989 1 3.81153 13.1294 17.8352
7390 1 3.78485 13.1286 15.0535
10986 1 0.894917 13.2054 20.3481
10990 1 3.83831 13.2078 20.474
10928 1 1.02932 10.4127 20.7103
10932 1 3.79618 10.4439 20.5132
7398 1 6.59786 13.2675 14.8859
7340 1 6.65844 10.3641 15.0246
10997 1 6.73279 13.1078 17.7305
10940 1 6.59472 10.5257 20.5189
10939 1 6.71114 10.4727 17.6959
10998 1 6.74324 13.4271 20.413
11005 2 10.8731 11.9162 16.2904
10951 1 12.1511 10.3739 17.6756
10946 2 10.9616 9.02194 19.0926
7352 1 12.1916 10.5836 14.7753
10995 2 8.1209 11.8137 19.1222
10936 2 8.09866 9.05449 16.4217
10943 1 9.42518 10.5025 17.651
7344 1 9.42222 10.6516 14.9657
11009 1 12.2156 13.1935 17.8
7410 1 12.4078 13.3455 14.8027
11001 1 9.4938 13.2542 17.4552
7402 1 9.50564 13.2823 14.8526
10944 1 9.50834 10.3704 20.4082
14669 1 12.3643 18.6382 23.2894
7214 2 5.22316 -2.36609 13.5865
196 2 8.19994 14.6003 27.6148
14600 1 6.62469 15.8512 26.399
11042 2 -0.354705 20.4396 19.2301
10984 2 2.30377 14.6391 16.4835
10994 2 5.22074 14.5822 19.1472
11053 2 5.2811 17.5316 16.3852
11045 1 0.944104 18.8666 17.8204
7446 1 1.04839 18.9094 14.9999
10987 1 0.976723 16.0512 17.8141
11054 2 5.24216 20.3608 19.1479
7388 1 1.08045 16.0093 14.904
11049 1 3.74265 18.9251 17.7182
11043 2 2.43951 17.5609 19.1441
7450 1 3.743 18.9335 15.0049
11044 2 2.46975 20.4659 16.2948
10991 1 3.86584 16.1578 17.9071
7392 1 3.76942 16.0362 15.0631
10999 1 6.70911 15.9093 17.8482
11050 1 3.852 18.8895 20.4696
10992 1 3.86118 15.9096 20.644
209 2 10.8864 14.5267 24.7692
7400 1 6.62359 15.9759 15.0305
14599 1 6.84403 15.9195 23.4471
14656 2 8.11078 20.3788 21.5585
11000 1 6.74068 16.141 20.6269
7458 1 6.72561 18.6869 15.1479
11057 1 6.62682 18.7737 17.9467
14611 1 12.2825 15.9146 23.3375
11006 2 10.9797 14.6965 19.2298
10996 2 8.12776 14.657 16.4119
11065 2 10.9686 17.6028 16.231
11069 1 12.3288 19.0249 17.6233
7470 1 12.2565 19.1093 14.9374
11011 1 12.1923 16.1376 17.8759
11066 2 11.0002 20.4974 19.094
7412 1 12.3233 16.2563 14.8596
11061 1 9.32475 18.9695 17.6826
11055 2 8.04132 17.4894 19.1084
7462 1 9.51622 19.0054 14.8799
11056 2 8.13375 20.4182 16.3352
11003 1 9.5993 16.0453 17.8679
7404 1 9.48257 16.1028 14.9444
11062 1 9.49691 19.0361 20.5462
14657 1 6.88269 19.0093 23.4969
11004 1 9.55159 16.1374 20.6646
14670 1 12.459 18.8257 26.1549
10812 1 3.80485 -0.841328 20.9559
11068 2 13.6894 20.4435 16.3442
10810 1 3.73491 -3.69714 20.7796
17946 1 0.862415 -3.76977 26.2239
14473 2 5.31147 0.645428 22.1705
14405 1 1.05559 -3.77863 23.4673
14407 1 0.851345 -0.818572 23.3977
14414 2 5.39642 -2.24783 24.8951
14409 1 3.81853 -3.66847 23.4979
14463 2 2.47182 0.464721 25.0232
14410 1 3.97829 -3.8703 26.2767
14404 2 2.37576 -2.31973 22.139
14411 1 3.81439 -1.02727 23.7069
14412 1 1.04731 -1.01726 26.1141
17960 1 3.94525 -1.03592 26.4637
4 2 2.41738 -2.68659 27.288
17964 1 6.59295 -3.72685 26.2646
73 2 5.21019 0.582635 27.7229
14419 1 6.70552 -0.959611 23.4774
10832 1 12.2414 -0.904033 20.7837
14420 1 6.78742 -0.987801 26.2252
7263 2 2.43505 0.504672 13.7906
14417 1 6.71436 -3.64609 23.4786
14485 2 10.8028 0.585088 21.984
14429 1 12.2064 -3.79839 23.5484
14430 1 12.1327 -3.67264 26.3119
14431 1 12.2795 -0.733855 23.2706
14426 2 10.834 -2.37275 24.8399
14432 1 12.3582 -0.738536 26.076
14421 1 9.435 -3.68709 23.5306
14475 2 7.96397 0.646589 24.8517
14422 1 9.37692 -3.67446 26.3175
14416 2 8.13731 -2.30519 21.9868
14423 1 9.44599 -0.795768 23.5041
14424 1 9.61696 -0.75558 26.2116
85 2 10.9276 0.757714 27.2797
181 2 -0.116973 12.3458 24.7695
10930 1 3.77166 7.72319 20.624
10887 2 13.6973 0.530367 19.3977
14462 2 -0.372337 3.19063 24.7586
64 2 2.39795 3.5662 27.706
14418 1 3.69261 1.80703 26.494
14465 1 1.02734 1.9648 23.4776
14466 1 1.06812 1.88107 26.3604
14474 2 5.13415 3.32963 24.9872
14469 1 3.77069 1.75254 23.623
14464 2 2.32247 3.47416 22.1236
14480 1 6.14939 4.37812 26.9279
14518 1 0.396649 4.51429 26.4344
14533 2 5.20789 6.31702 22.0433
14467 1 1.01754 4.75368 23.5204
14468 1 0.987462 7.19304 26.2981
14529 1 3.86053 7.68748 23.3822
14523 2 2.39487 6.19536 24.8326
14530 1 3.82441 7.57499 26.2263
14471 1 3.86043 4.83288 23.4001
14472 1 3.44592 4.57827 25.9337
14525 1 1.13306 7.73431 23.4042
14477 1 6.56327 1.978 23.4159
14479 1 6.5887 4.88945 23.8368
10890 1 12.2851 2.03383 20.6557
10888 2 13.5765 3.38497 16.4686
79 2 8.10251 3.54862 27.7969
14470 1 6.54695 1.73612 26.2246
10880 1 6.55146 4.7826 20.766
14538 1 6.59155 7.42603 25.9802
14537 1 6.73516 7.69537 23.2356
14482 1 9.3838 1.95826 26.31
14489 1 12.3065 1.92669 23.2643
14490 1 12.3474 2.03338 26.0325
14481 1 9.33621 2.07438 23.5355
14476 2 7.96131 3.55216 22.1315
76 2 10.8032 3.56454 24.8122
14478 1 8.97848 4.5902 25.9051
14486 1 12.2422 4.94645 26.2224
14483 1 9.53414 4.92745 23.3103
14542 1 9.5798 7.62853 26.0473
14535 2 8.14516 6.3433 24.7088
14545 2 10.8151 6.26249 21.9228
14549 1 12.3085 7.74644 23.4483
14491 1 12.2695 4.8075 23.4553
14541 1 9.48375 7.79636 23.3227
14550 1 12.2719 7.68608 26.1525
14612 1 12.3083 15.9646 26.2725
14603 1 9.50199 16.2976 23.3009
256 2 8.15285 20.3686 24.7788
14593 2 5.39689 12.0008 21.8661
14526 1 1.43976 9.97375 25.4735
14534 2 5.15794 9.00466 24.8283
14583 2 2.88513 11.7872 24.8266
14524 2 2.41937 9.16435 21.9735
14531 1 4.03029 10.4446 23.3673
14532 1 3.86532 10.5006 26.4696
14527 1 1.49776 12.1589 23.0272
124 2 2.52771 8.89296 27.4608
14528 1 1.21178 12.3181 26.5831
14589 1 4.05393 13.2242 23.3182
14590 1 4.07838 13.324 26.0156
185 2 2.38179 14.3031 27.3139
14585 1 1.56235 14.1662 24.9552
14586 1 0.122287 15.232 27.3456
14665 2 10.9213 17.5245 21.8678
14666 2 11.3574 20.2009 24.7198
11002 1 9.45497 13.4212 20.509
11010 1 12.1785 13.3233 20.5361
10952 1 12.2518 10.4213 20.5881
14539 1 6.8296 10.6626 23.2788
14598 1 6.8201 13.3021 26.1007
14540 1 6.75754 10.4726 26.1757
14597 1 6.71505 13.286 23.4534
14601 1 9.44088 13.4272 23.3394
14602 1 9.54008 13.298 26.2008
14544 1 9.54898 10.5818 25.8144
14543 1 9.55896 10.5142 23.1012
14536 2 8.16148 9.16618 21.9002
14595 2 8.05726 11.8577 24.731
14605 2 10.8518 11.9525 21.9066
14551 1 12.2509 10.5487 23.3791
14546 2 10.8244 9.00627 24.6939
14552 1 12.3093 10.3894 26.34
14610 1 12.3748 13.2756 26.2789
14609 1 12.446 13.2222 23.3721
136 2 8.01168 8.83561 27.4236
265 2 11.0236 17.4904 27.5465
14582 2 -0.31485 15.5672 24.9897
11046 1 1.10204 19.1861 20.6031
10988 1 0.977437 16.261 20.6123
14584 2 2.25301 14.5604 21.8786
14594 2 5.32409 14.7257 24.7045
14654 2 4.69286 20.2994 25.1358
14588 1 0.68527 17.4327 25.9468
14649 1 3.85781 19.0766 23.0682
14591 1 3.81969 16.0929 23.3213
14587 1 0.955928 16.1574 23.2361
14592 1 3.40234 16.2862 26.6403
14643 2 2.52286 17.6467 24.3448
14650 1 2.40447 19.3624 25.8083
14653 2 5.35901 17.5239 22.06
14645 1 1.07462 19.1409 23.4084
14658 1 4.94097 18.0261 25.2416
14644 2 2.46539 20.5188 21.9334
193 2 5.52037 12.0389 27.6119
14662 1 9.70534 18.913 25.7842
14661 1 9.69447 19.2895 23.2859
14606 1 9.37671 16.1065 26.1615
11058 1 6.67578 18.8808 20.6944
11070 1 12.2514 19.1149 20.381
14655 2 8.05541 17.2792 24.8477
11012 1 12.3354 16.1336 20.5255
16 2 8.07938 -2.30368 27.6211
14487 2 13.6562 0.666833 24.5893
14548 2 13.6318 9.15615 21.9884
88 2 13.6817 3.41047 27.5143
14521 2 -0.355618 6.25006 22.1408
10828 2 13.636 -2.38887 16.6381
7275 2 7.95212 0.432575 13.8748
253 2 5.55824 17.5507 27.4646
205 2 10.7381 11.6045 27.6565
7202 2 -0.486143 -2.20575 13.6915
28 2 13.5735 -2.13925 27.5181
133 2 5.24753 6.36566 27.6775
184 2 2.35135 17.8934 27.8349
7226 2 10.7588 -2.25637 13.8168
61 2 -0.332815 0.48236 27.6842
7395 2 7.92827 11.8862 13.7038
7335 2 8.03086 6.20012 13.7014
7323 2 2.33302 6.25473 13.7709
3913 2 5.37584 23.1153 5.02696
305 1 1.85181 25.551 2.13847
306 1 1.46605 24.1888 4.70399
247 1 1.45015 23.165 0.537157
314 2 5.26516 25.9639 2.31018
248 1 1.16261 21.6647 3.47114
309 1 3.96079 24.6019 0.887599
303 2 2.58616 23.4472 2.62847
310 1 4.11314 24.6923 3.89344
3904 2 2.48811 26.1238 5.06218
251 1 3.95297 21.9425 1.11835
252 1 3.99642 21.6496 3.84235
304 2 2.10578 25.6236 -0.199137
377 1 6.64748 27.4571 0.877568
4082 2 -0.530138 43.0176 8.0239
3851 1 3.93309 21.7623 6.58865
7709 1 11.978 41.5086 12.3257
7701 1 9.4483 42.0289 12.2991
546 1 0.975218 47.0999 3.85883
318 1 6.75994 24.5919 3.61567
319 1 6.79522 24.7301 0.672025
317 1 6.67098 21.9674 0.600477
260 1 6.66326 21.775 3.45007
3925 2 10.877 23.1036 4.99599
329 1 12.287 24.408 1.06502
330 1 12.2384 24.5136 3.8671
271 1 12.427 21.7833 0.743963
326 2 10.8745 26.0976 2.254
272 1 12.2354 21.7288 3.65338
321 1 9.48333 24.5475 0.849598
315 2 8.21373 23.2772 2.20515
322 1 9.49201 24.6217 3.56028
3916 2 8.15674 26.0103 5.0579
263 1 9.54015 21.6838 0.938996
264 1 9.5084 21.8109 3.58078
3921 1 9.49929 24.5134 6.43058
320 1 6.67175 27.53 3.75342
324 1 9.50319 27.4602 3.86123
332 1 12.2568 27.2251 3.97174
323 1 9.28997 27.5032 0.957332
3859 1 6.60149 21.8082 6.50525
7563 2 2.63364 28.89 13.6469
4021 2 -0.455184 34.7151 5.27239
312 1 3.97732 27.6549 3.66057
308 1 1.21258 27.6667 3.8729
311 1 3.71924 27.536 0.596242
307 1 1.07075 27.7512 0.786444
3973 2 5.3534 28.7893 5.23885
363 2 2.49415 28.9908 2.5646
425 1 0.972506 33.2388 0.952106
426 1 0.851912 33.3136 3.77716
367 1 1.09545 30.4488 0.611001
374 2 5.27629 31.8604 2.43361
368 1 1.13556 30.5327 3.58571
369 1 3.64948 30.1502 0.864495
370 1 3.7876 30.5846 3.78066
3964 2 2.46267 31.8392 5.22893
371 1 3.9274 33.1552 0.879241
372 1 3.70803 33.323 3.61918
3971 1 3.94576 33.1513 6.47165
3967 1 1.07281 33.1951 6.56986
7527 2 13.5776 23.2029 13.5945
244 2 2.24484 21.1597 -0.376382
422 2 -0.459595 37.3839 2.4278
7503 2 2.43289 23.1741 13.7328
14778 1 6.59263 30.3291 0.85426
379 1 6.72522 33.0738 0.906242
380 1 6.5217 33.0664 3.78122
378 1 6.63225 30.3547 3.77154
3979 1 6.72898 33.0335 6.55237
3977 1 6.76644 30.1775 6.67374
3985 2 10.8899 28.9084 5.24672
375 2 7.9853 28.8721 2.46039
390 1 11.8473 28.3194 1.59859
386 2 10.9294 31.4983 2.37683
392 1 12.0104 32.9168 3.99656
381 1 9.25732 30.2103 0.896008
382 1 9.31838 30.2105 3.69277
3976 2 7.99628 31.6325 5.12787
383 1 9.45452 33.0067 0.971874
384 1 9.31356 33.0537 3.70902
3989 1 12.404 30.1986 3.96758
449 1 12.1532 33.3514 0.921738
447 2 13.5708 34.0162 2.78165
3983 1 9.48006 32.9777 6.43641
3991 1 12.3928 33.2193 6.7359
4022 2 -0.321375 37.2753 8.02333
4033 2 5.31014 34.4647 5.1771
434 2 5.13834 37.3642 2.37311
429 1 3.86825 35.8874 1.03788
423 2 2.35619 34.7216 2.50171
430 1 3.86389 36.0845 3.99797
4024 2 2.50867 37.4876 5.25567
428 1 0.943722 36.1028 3.73443
427 1 1.06178 36.0232 0.91412
4093 2 5.26902 40.1043 5.25892
486 1 0.823094 38.8654 1.06795
483 2 2.42785 40.2122 2.35544
4084 1 0.941459 39.0063 3.86268
431 1 3.79749 38.6336 0.898765
432 1 3.69137 38.9122 3.75613
4025 1 1.19101 35.8661 6.53787
438 1 6.50348 35.8579 3.71524
4031 1 3.82456 38.8726 6.76902
4047 2 13.7767 34.5294 8.17678
4081 2 -0.395 40.3186 5.28974
439 1 6.63422 38.659 0.916739
440 1 6.43775 38.7108 3.82594
437 1 6.81391 35.8909 1.00494
4045 2 10.818 34.4584 5.41584
450 1 12.0593 35.857 4.00573
446 2 10.7683 37.395 2.63067
441 1 9.97813 36.0652 0.891209
435 2 8.06583 34.4547 2.36949
442 1 9.30821 35.9614 3.71334
4036 2 8.00044 37.2291 5.29651
451 1 13.3952 36.0454 1.65709
452 1 12.5233 38.6869 3.90565
509 1 12.1633 38.5144 1.15601
443 1 9.45855 38.8057 1.09171
444 1 9.27274 38.7819 3.93127
495 2 8.08108 40.0818 2.43166
4105 2 10.916 40.0499 5.28052
4037 1 6.55214 35.8157 6.60314
4049 1 12.3745 35.7702 6.73659
4043 1 9.51737 38.5581 6.68299
4051 1 12.3767 38.5626 6.66796
7697 1 6.55729 41.646 12.2403
4155 2 8.03221 45.8746 7.92815
4167 2 13.632 45.8602 8.0099
385 2 10.4711 28.8427 -0.414071
4153 2 5.14247 45.6412 5.29906
485 1 1.14479 41.6074 0.949847
487 1 1.10928 44.5977 1.42798
494 2 5.19599 42.9543 2.40944
488 1 0.94623 42.0718 3.82155
489 1 3.80477 41.4397 1.01525
543 2 2.73523 46.0099 2.31539
490 1 3.84882 41.6094 3.81666
491 1 4.01767 44.4604 1.03879
492 1 3.58065 44.352 3.83861
482 2 2.53179 42.805 5.32222
4087 1 0.981844 44.2897 6.15038
500 1 6.39314 44.3713 3.75479
497 1 6.48426 41.4135 1.18659
4085 1 1.0965 41.479 6.65864
498 1 6.67904 41.4831 3.89379
4106 2 10.7536 42.7756 7.83666
4098 1 6.58026 41.5632 9.49008
4099 1 6.74028 44.292 6.57684
4097 1 6.61822 41.4043 6.66229
4101 1 9.43497 41.3967 6.57921
499 1 6.7244 44.2429 0.928382
569 1 12.3237 44.3476 1.11023
4165 2 10.8599 45.8628 5.28903
510 1 12.1649 41.4833 4.12138
511 1 12.2313 41.2889 0.967543
506 2 10.9537 43.0502 2.44234
501 1 9.34646 41.4805 1.06843
555 2 8.04954 45.6827 2.41334
502 1 9.58937 41.5217 3.66404
4096 2 7.98713 42.9764 5.12434
503 1 9.53051 44.402 1.01392
504 1 9.30917 44.4491 3.94981
565 1 12.0727 44.3783 3.87662
4103 1 9.44086 44.3889 6.63142
4109 1 12.3331 41.5625 6.82397
3847 1 1.23597 21.7485 6.59199
3909 1 3.69961 24.4449 6.54697
7501 2 0.0323524 23.1842 10.7554
7459 1 3.81077 21.6904 9.31546
7513 2 5.30175 23.1063 10.808
7505 1 0.994952 24.4124 12.2293
3906 1 1.14813 24.5958 9.15108
7447 1 1.09119 21.7912 12.1371
3914 2 5.17099 25.9643 7.82494
7509 1 3.69201 24.5148 12.056
3903 2 2.44773 23.0953 7.96086
3910 1 3.95102 24.4271 9.28382
7504 2 2.46258 25.9681 10.7458
7451 1 3.80036 21.6427 12.2412
3852 1 0.988826 21.7673 9.33874
7507 1 1.06403 27.3041 12.118
3908 1 1.01874 27.2711 9.43637
3912 1 3.71306 27.2643 9.21103
7511 1 3.88178 27.4196 12.0124
3907 1 1.27018 27.398 6.56909
7517 1 6.51596 24.644 11.9478
7515 1 6.58055 21.7046 12.0255
3918 1 6.71927 24.7491 9.16642
4111 1 12.3611 44.2198 9.5023
3927 2 13.5635 23.0834 7.96877
4104 1 9.37073 44.3874 9.56413
4110 1 12.1601 41.6186 9.77574
3917 1 6.61233 24.5937 6.44419
3863 1 9.43775 21.6548 6.24049
3871 1 12.2456 21.693 6.47284
3931 1 12.3588 27.4199 6.73165
3923 1 9.44009 27.2508 6.50617
3860 1 6.62515 21.6927 9.38894
3929 1 12.2557 24.549 6.57491
7519 1 6.72132 27.5583 12.2185
7463 1 9.63113 21.5039 11.9903
7525 2 10.7222 23.0846 10.709
7529 1 12.2576 24.545 12.277
3930 1 12.3947 24.5539 9.30744
7471 1 12.3855 21.7212 12.2494
3926 2 10.8116 26.0324 7.92131
3872 1 12.2728 21.8059 9.40271
7521 1 9.60875 24.7166 11.8786
3915 2 8.0081 23.3037 7.94164
3922 1 9.48245 24.5385 9.24255
7516 2 8.06786 26.0171 10.7942
3864 1 9.33073 21.7193 9.05473
7528 2 13.3857 26.0492 10.8706
3965 1 1.00147 30.2783 6.4604
3911 1 3.82431 27.549 6.59857
3920 1 6.53944 27.5334 9.38383
3962 2 -0.321435 31.7402 7.72204
7561 2 -0.10889 28.8515 10.8324
3969 1 3.95659 30.3304 6.62089
7573 2 5.18067 28.9293 10.7602
3963 2 2.56839 28.9058 7.96776
7565 1 1.39072 30.1021 12.0833
3966 1 1.00129 30.2407 9.1325
7567 1 1.37987 33.3509 11.9755
3974 2 5.34932 31.777 8.08207
3968 1 0.752961 33.1589 9.22424
7569 1 3.98143 30.3355 12.1752
3970 1 3.87145 30.2007 9.452
7564 2 2.59326 31.7521 10.9434
7571 1 3.93864 33.1841 12.3006
3972 1 3.68081 32.9983 9.37416
7579 1 6.52029 32.9551 12.1921
4112 2 10.8433 43.0198 10.9524
3902 2 -0.366198 26.1216 7.95067
3919 1 6.61105 27.4152 6.64075
3981 1 9.54261 30.1817 6.52164
7699 1 6.7563 44.5296 12.3019
7531 1 12.2488 27.4707 12.2227
3932 1 12.2704 27.4185 9.34929
3924 1 9.33021 27.3832 9.28849
7523 1 9.50187 27.4564 12.154
3978 1 6.69064 30.3 9.49149
3980 1 6.63425 33.1749 9.40455
7585 2 10.832 28.8173 10.8434
3975 2 8.04836 28.8868 8.06259
7577 1 6.81687 30.3352 12.2718
3990 1 12.3383 30.1877 6.56466
7589 1 12.5 30.1234 12.022
7591 1 12.4995 33.0634 12.3904
3986 2 10.9471 31.6165 8.13691
3992 1 12.3839 33.0875 9.59017
7581 1 9.54082 30.1553 12.172
3982 1 9.60056 30.2018 9.39386
7576 2 8.07615 31.8093 10.9506
7583 1 12.4658 30.2299 9.27178
3984 1 9.47879 33.143 9.14266
7635 1 9.64678 33.0034 11.9935
7765 2 10.773 46.2423 11.0324
3901 2 -0.384618 22.8983 4.90669
4029 1 3.80971 36.1483 6.6901
4027 1 0.977196 38.627 6.72515
7621 2 -0.288922 34.5328 10.8841
512 1 12.2688 44.2789 6.66852
7633 2 5.31386 34.651 11.0671
7625 1 0.930549 35.9827 12.1845
4026 1 1.05489 35.932 9.42559
4034 2 5.25804 37.2652 8.03132
7629 1 3.82325 35.8792 12.2194
4023 2 2.48097 34.5393 8.01869
4030 1 3.7711 35.9523 9.25965
7624 2 2.39863 37.3331 10.9712
7637 1 6.66291 36.2766 12.0276
4083 2 2.42397 40.1119 8.18862
4028 1 1.36144 38.6975 9.49726
7627 1 1.15396 38.9969 12.192
4032 1 3.99146 38.6876 9.50496