ITEM: TIMESTEP
50000
ITEM: NUMBER OF ATOMS
18000
ITEM: BOX BOUNDS xy xz yz pp pp pp
-1.5292225427226688e-01 2.8046922254272030e+01 0.0000000000000000e+00
-1.5630417102298371e+00 3.3629104171023135e+02 0.0000000000000000e+00
-1.4514701751598205e-01 2.8039147017515983e+01 0.0000000000000000e+00
ITEM: ATOMS id type x y z
1 1 1.05677 -0.227245 1.5644
2 1 3.93244 -0.0836943 1.47328
3 1 3.88454 -0.242058 4.21461
4 1 1.01816 -0.354337 4.44817
5 1 1.01662 2.3951 1.42031
6 1 3.89944 2.63425 1.45441
7 1 3.82164 2.49968 4.30104
8 1 0.999631 2.51647 4.18095
9 1 6.88237 2.66358 4.40839
10 1 9.59375 -0.18068 1.53868
11 1 6.68959 -0.261837 4.28105
12 1 6.69998 -0.268935 6.95726
13 1 6.52111 5.30625 4.39886
14 1 9.52261 2.57016 1.53277
15 1 9.56304 2.35416 4.14378
16 1 9.61338 5.31303 7.45742
17 1 12.4085 -0.0980123 1.36939
18 1 12.4439 -0.158223 4.34332
19 1 12.2532 2.85232 1.46836
20 1 12.3895 2.63916 4.3674
21 1 1.01646 5.49547 1.34707
22 1 3.7699 5.37102 1.40205
23 1 3.62716 5.40654 4.25675
24 1 0.871978 5.4584 4.17393
25 1 1.15916 8.36884 1.33173
26 1 3.87041 8.09794 1.2527
27 1 3.89553 8.16022 4.15601
28 1 1.02988 8.29477 4.22618
29 1 9.36401 8.32062 4.49742
30 1 9.65887 5.40971 1.7408
31 1 9.42631 5.16041 4.63857
32 1 6.81068 8.02132 4.19118
33 1 6.77186 10.8587 4.39835
34 1 9.5385 8.04343 1.5003
35 1 9.78905 10.9471 4.28387
36 1 8.16058 10.5757 6.87738
37 1 12.4146 5.68202 1.75864
38 1 12.4155 5.52863 4.51169
39 1 12.2889 8.43523 1.46118
40 1 12.1544 8.29995 4.427
41 1 0.917358 11.1069 1.37437
42 1 3.74161 10.9662 1.32886
43 1 3.95342 10.9599 4.30471
44 1 1.18699 11.0645 4.19346
45 1 1.03715 13.9288 1.31829
46 1 3.68712 13.8373 1.49336
47 1 3.92107 13.9527 4.34644
48 1 0.988181 13.8698 4.23567
49 1 7.92689 12.5249 2.84908
50 1 9.72141 11.0711 1.40072
51 1 10.0679 12.505 6.57129
52 1 6.35339 12.6553 6.74075
53 1 6.39297 13.9183 1.26069
54 1 9.59517 14.0368 1.4151
55 1 9.68443 14.1093 4.3497
56 1 6.50357 14.0283 4.34685
57 1 12.5544 11.267 1.72312
58 1 12.545 10.9289 4.35997
59 1 12.5188 13.9809 1.48539
60 1 12.5119 13.9902 4.35982
61 1 1.29312 16.6416 1.49204
62 1 3.94601 16.7729 1.42183
63 1 3.86192 16.784 4.40256
64 1 1.07538 16.7983 4.47973
65 1 1.03018 19.5535 1.42692
66 1 3.68453 19.6558 1.26355
67 1 3.82587 19.5872 4.31973
68 1 1.17127 19.6284 4.35109
69 1 6.83692 16.8448 1.34449
70 1 9.7652 16.8942 1.17644
71 1 9.55131 16.8255 3.95644
72 1 6.93196 16.7918 4.09713
73 1 6.79596 19.7202 1.54599
74 1 9.64226 20.0039 1.30272
75 1 9.42452 19.7484 4.34962
76 1 6.42725 19.5941 4.30652
77 1 12.6356 16.8709 1.70327
78 1 12.5151 16.7887 4.22861
79 1 12.4206 19.4943 1.26734
80 1 12.3119 19.5666 4.11839
81 1 1.10967 22.262 1.52648
82 1 3.96363 22.3259 1.48035
83 1 4.00621 22.4342 4.27485
84 1 1.27355 22.5819 4.2261
85 1 6.84988 22.4069 1.46213
86 1 9.62184 22.6346 1.34172
87 1 9.6614 22.4845 4.11119
88 1 6.79812 22.3803 4.16733
89 1 12.4696 22.5937 1.54914
90 1 12.2313 22.5271 4.42108
91 1 1.0443 -0.0440905 7.30602
92 1 3.97334 -0.366842 7.23118
93 1 3.91574 -0.0915543 10.013
94 1 0.949135 -0.0497103 10.285
95 1 0.869892 2.78735 7.00243
96 1 3.53617 2.58475 7.13256
97 1 3.82471 2.72274 9.89748
98 1 1.14693 2.74509 9.80982
99 1 6.4533 2.54873 7.14694
100 1 9.49392 0.0169888 7.05588
101 1 9.62298 2.61966 10.0005
102 1 6.5755 2.9491 9.95003
103 1 9.46815 7.91003 7.18218
104 1 9.38683 2.60792 7.06991
105 1 8.79606 5.24338 10.1203
106 1 6.64627 5.48741 7.22425
107 1 12.3296 -0.145562 7.18656
108 1 12.3804 2.73238 9.87595
109 1 12.3003 2.5721 7.05957
110 1 12.3469 5.58385 10.1226
111 1 1.11136 5.51011 6.80556
112 1 3.84279 5.58519 7.05646
113 1 4.4454 5.29313 9.6011
114 1 1.38863 5.75896 9.74272
115 1 1.08695 8.38589 7.10301
116 1 3.82025 8.67678 6.86037
117 1 3.87441 8.27699 9.92971
118 1 1.08035 8.3514 10.0904
119 1 6.61374 8.15606 7.0557
120 1 12.5522 8.11693 7.32377
121 1 9.66834 7.89908 9.95994
122 1 6.79941 7.56652 10.0349
123 1 5.99988 10.1673 8.96058
124 1 9.97575 10.6082 8.65306
125 1 8.36379 10.3459 10.7171
126 2 8.14577 9.0613 8.68137
127 1 12.5581 5.32541 7.15378
128 1 12.4697 8.41055 9.90624
15092 2 13.7616 21.1106 8.70256
130 1 12.5228 11.1038 10.2326
131 1 1.19606 11.006 6.97064
132 1 3.933 11.2316 7.08699
133 1 3.89714 11.2717 10.1313
134 1 1.09435 11.1494 9.63896
135 1 0.854597 14.1654 7.25154
136 1 3.48096 13.9703 7.27745
137 1 3.87369 13.9973 10.1699
138 1 1.14771 13.9704 10.1152
139 1 8.01841 14.5734 6.81592
140 1 12.7265 13.8462 7.11695
141 1 10.4799 14.6988 8.30606
142 1 6.83055 12.5935 9.81252
143 1 5.91902 14.9819 8.89771
144 1 9.73592 16.824 7.03887
145 1 9.89159 16.9418 9.93019
146 1 8.18349 14.8083 10.5951
147 1 12.5008 10.7575 7.31144
148 1 9.9883 12.8068 10.0875
149 1 12.4527 16.7676 7.17793
150 1 12.6967 13.886 10.0627
151 1 1.06014 16.9367 7.23358
152 1 3.8395 16.7537 7.04225
153 1 3.94284 16.9118 9.92072
154 1 1.05985 16.7757 10.1374
155 1 1.16911 19.6673 7.19094
156 1 3.82155 19.6138 7.13345
157 1 4.00943 19.6 9.93601
158 1 1.22276 19.7035 10.1091
159 1 6.7751 16.9995 7.07673
160 1 12.4807 19.4739 6.85851
161 1 9.7342 19.7827 9.89043
162 1 6.81174 17.2378 9.90446
163 1 6.72405 20.0395 7.07174
164 1 9.53259 19.5949 7.15073
165 1 9.53575 22.4793 9.85426
166 1 6.90942 19.7833 9.73727
15001 2 13.8302 1.48084 -0.0701383
168 1 12.525 16.7699 9.92585
15072 2 13.8663 9.58195 8.61536
170 1 12.5972 19.6805 9.87192
171 1 0.995499 22.3231 7.07794
172 1 3.97227 22.4991 7.06161
173 1 3.81798 22.4841 9.79297
174 1 1.06782 22.3731 9.88166
175 1 6.78854 22.8861 7.09115
5635 1 9.73972 -0.250334 4.31209
177 1 9.62872 22.4272 7.04169
178 1 6.66966 22.6931 9.93583
15111 2 13.8537 12.4518 11.4399
180 1 12.4473 22.3202 10.0158
181 1 1.33859 -0.10728 12.9756
182 1 4.03548 -0.038289 12.8394
183 1 1.02253 2.79802 12.6172
184 1 3.65521 2.72762 12.7181
185 1 6.88831 -0.219799 12.7505
186 1 9.49198 -0.245034 12.7852
187 1 6.60395 2.74108 12.9179
188 1 9.47869 2.75773 12.8338
189 1 12.3667 0.0256434 12.7585
190 1 12.347 2.77117 12.6679
191 1 1.01628 5.59488 12.8078
192 1 3.93906 5.47993 12.7495
193 1 1.18883 8.33084 12.9099
194 1 3.83639 8.3701 12.6711
195 1 6.71941 5.50413 12.6828
196 1 9.74998 5.5289 12.623
197 1 6.90049 8.18686 12.9502
198 1 9.64235 8.24584 12.8907
199 1 12.5621 5.49167 12.9539
200 1 12.2996 8.42652 12.6429
201 1 1.15121 11.2905 12.7176
202 1 3.86107 11.3052 12.8774
203 1 1.33177 14.0268 12.7906
204 1 4.02611 14.1621 12.961
205 1 6.67948 11.0715 12.96
206 1 9.4669 11.3214 12.9776
207 1 6.68714 14.0802 12.9531
208 1 9.6348 14.0369 12.8494
209 1 12.4632 11.1511 12.9136
210 1 12.4689 14.0777 12.7763
211 1 1.22146 16.7652 12.7579
212 1 4.05038 16.7873 12.6908
213 1 1.02716 19.6194 12.7664
214 1 3.92176 19.6703 12.7296
215 1 6.85445 16.9329 12.9118
216 1 9.59455 16.7813 12.8579
217 1 6.86155 19.6239 12.6607
218 1 9.7064 19.6079 12.7946
219 1 12.3539 17.0465 12.8542
220 1 12.2734 19.7385 12.6897
221 1 1.19159 22.3526 12.6222
222 1 3.99223 22.4344 12.6005
223 1 6.90243 22.4505 12.706
224 1 9.7534 22.3703 12.6281
225 1 12.4626 22.6008 12.8092
12125 2 10.9237 21.029 11.2583
12110 2 10.8745 4.08724 11.3708
15032 2 13.8194 15.2409 2.94121
12124 2 8.24533 24.015 11.309
169 1 12.291 22.1948 7.06514
12109 2 8.2027 6.86067 11.6076
15002 2 13.7991 -1.53505 2.9667
12008 2 5.34424 1.2279 2.8619
12019 2 10.9017 4.20774 0.168673
12010 2 10.9917 1.15597 2.93474
12123 2 5.5085 20.9432 11.281
12108 2 5.05485 3.90851 11.3557
12013 2 2.43265 4.01774 2.81247
12122 2 2.49028 23.6957 11.2554
12107 2 2.45695 7.04535 11.3979
12112 2 2.61065 12.5829 11.6025
12017 2 8.13102 4.07344 2.95264
12018 2 5.16232 6.82441 2.73162
12104 2 8.13747 1.34331 11.5119
12020 2 10.9209 6.99923 2.93998
5633 1 6.9212 -0.145268 1.33916
15011 2 13.7442 6.81337 0.13325
12023 2 2.53309 9.62066 2.82066
12120 2 10.9041 15.2509 11.3077
12102 2 2.37122 1.18368 11.4395
12113 2 5.44511 9.71211 11.071
12027 2 8.1885 9.60771 2.8593
12028 2 5.34714 12.4457 2.83458
12100 2 10.9347 23.7239 8.50546
12030 2 11.0392 12.4692 2.9359
12099 2 11.0393 20.8853 5.66175
12098 2 5.32421 23.9921 8.4519
12033 2 2.53813 15.2608 2.97672
12039 2 11.172 15.3598 0.0707297
12097 2 8.24656 21.0779 8.4766
12096 2 8.13846 23.8525 5.71462
12037 2 8.12048 15.1622 2.90356
12038 2 5.33402 18.1563 2.91478
12095 2 5.32992 21.0531 5.59257
12040 2 10.9537 18.1531 2.71055
15101 2 13.7461 1.32356 11.2793
12093 2 2.50019 21.0874 8.44177
12043 2 2.42544 20.9658 2.91141
12035 2 5.34572 15.4342 -0.0459799
12092 2 2.50157 23.8213 5.655
12012 2 2.48035 6.80709 -0.142921
12047 2 8.06574 21.0253 2.89862
12048 2 5.26359 23.7143 2.74477
12090 2 11.2103 18.098 8.55662
12050 2 10.8683 23.8371 2.80426
12119 2 8.29384 18.3413 11.2818
12052 2 2.31016 1.16212 5.699
12088 2 5.27636 18.2755 8.48448
12118 2 5.53099 15.4615 11.1021
15091 2 13.8518 23.7043 5.86935
12056 2 8.11453 1.18759 5.5836
392 1 6.50304 8.32028 1.51788
12058 2 5.10163 1.26331 8.4652
12036 2 8.2536 18.1494 -0.124029
12060 2 10.987 1.23224 8.46149
12117 2 2.60987 18.0852 11.305
12062 2 2.47561 6.92982 5.72926
12063 2 2.46284 4.05544 8.40278
12089 2 10.9677 15.1505 6.01188
12065 2 5.27549 3.85732 5.62711
12066 2 8.15003 6.679 5.72715
12067 2 8.0706 3.84138 8.34309
12068 2 5.20165 6.95969 8.28286
12069 2 10.947 4.05399 5.8935
12070 2 11.1755 6.83978 8.60867
12115 2 10.703 9.7142 11.1573
12072 2 2.54011 12.3703 5.60925
12073 2 2.52184 9.78155 8.56928
12114 2 8.23955 12.6473 11.6259
12075 2 5.45769 9.67755 5.72852
12076 2 8.0733 12.4719 5.19728
12077 2 8.41485 12.3345 8.17558
12078 2 4.84593 12.6126 8.59431
12079 2 10.7099 9.69024 5.9429
12080 2 11.5807 12.4764 8.54841
12087 2 8.2951 15.7296 8.62853
12082 2 2.54892 18.2217 5.80142
12083 2 2.50579 15.3397 8.75622
15051 2 13.8003 1.22768 5.82325
12085 2 5.42191 15.1743 5.90984
12086 2 8.23198 18.1503 5.5525
15121 2 13.7365 23.7838 11.3137
15021 2 13.933 12.527 0.032251
376 1 6.61743 2.85436 1.78638
5730 1 12.3711 -0.124136 10.0123
391 1 6.73624 5.49178 1.50766
12045 2 5.35613 20.8926 0.12187
15082 2 13.8588 15.2597 8.55673
5725 1 9.67806 -0.100436 9.92061
12002 2 2.54948 1.17216 0.100301
12026 2 8.05384 12.5458 0.307259
5726 1 6.80772 -0.0821067 9.89699
12016 2 8.02062 6.90864 0.0861977
15081 2 13.8472 18.0753 5.51161
396 1 6.54258 10.8991 1.35277
15106 2 13.8498 6.98404 11.4443
12022 2 2.39141 12.45 0.0812839
15041 2 13.6895 23.8585 0.0306504
12032 2 2.43437 18.1827 0.112883
12005 2 5.45455 -1.51938 0.0881407
12015 2 5.32625 4.07588 0.0977139
12006 2 8.35061 1.13131 0.141778
12049 2 11.0006 21.0854 -0.0596441
12029 2 10.7677 9.76578 0.105752
15022 2 13.6872 9.60938 3.02564
15061 2 13.7201 6.7739 5.73015
15071 2 13.8579 12.3425 5.53769
15012 2 13.881 4.17636 2.99207
12042 2 2.67098 23.6259 -0.0913757
15116 2 13.8003 18.1944 11.444
12046 2 8.25812 23.9686 0.00808742
15062 2 13.8588 4.05731 8.58966
12103 2 5.41823 -1.50774 11.3004
12105 2 10.9655 -1.60983 11.4609
15042 2 13.8285 20.9459 2.67778
12057 2 8.13547 -1.60779 8.5199
15031 2 13.9514 18.1106 0.124208
226 1 4.03904 0.0581256 15.6556
227 1 1.05012 -0.287071 15.8766
228 1 4.07208 2.91591 15.6011
229 1 1.04381 2.57829 15.6484
230 1 9.65859 -0.0498792 15.4868
231 1 6.85118 -0.258642 15.4742
232 1 9.53882 2.69529 15.6256
233 1 6.79659 2.61357 15.6807
234 1 12.2683 -0.338286 15.5947
235 1 12.3772 2.46504 15.3508
236 1 3.79562 5.6321 15.8024
237 1 1.05874 5.4765 15.5403
238 1 3.84162 8.36448 15.3016
239 1 0.963479 8.35615 15.7392
240 1 9.48988 5.58711 15.5549
241 1 6.66399 5.56263 15.6237
242 1 9.56201 8.52579 15.6598
243 1 6.70624 8.22812 15.8394
244 1 12.2689 5.32081 15.5919
245 1 12.5332 8.18838 15.5825
246 1 3.76197 11.3503 15.4218
247 1 1.07834 11.1794 15.6497
248 1 4.07834 14.1206 15.6616
249 1 1.24857 13.9967 15.5277
250 1 9.51849 11.3497 15.7016
251 1 6.84412 11.0814 15.8688
252 1 9.66363 14.2154 15.7007
253 1 6.92332 13.998 15.985
254 1 12.4678 11.0156 15.7403
255 1 12.539 14.1052 15.7572
256 1 3.80286 17.1075 15.477
257 1 1.16561 16.8236 15.7319
258 1 3.99507 19.8116 15.6152
259 1 1.0327 19.8766 15.4294
260 1 9.43765 17.1481 15.6095
261 1 6.65393 16.73 15.7551
262 1 9.47746 19.9476 15.5927
263 1 6.63431 19.6278 15.4118
264 1 12.3993 16.9125 15.6854
265 1 12.2987 19.617 15.3642
266 1 4.00582 22.4945 15.5618
267 1 1.28486 22.7784 15.3398
268 1 9.51596 22.6401 15.4583
269 1 6.71306 22.3779 15.4998
270 1 12.3812 22.6364 15.4534
271 1 1.13181 -0.331926 18.6057
272 1 3.927 -0.529548 18.2929
273 1 3.81208 -0.352605 21.1155
274 1 0.895163 -0.270782 21.1788
275 1 1.0219 2.55362 18.4812
276 1 3.78064 2.58722 18.5466
277 1 3.85216 2.61513 21.2615
278 1 0.926863 2.52669 21.3324
279 1 6.75295 -0.175981 18.3628
280 1 9.52509 -0.2274 18.3672
281 1 9.53886 -0.11548 21.244
282 1 6.6631 -0.15483 21.1282
283 1 6.56137 2.63729 18.6237
284 1 9.41895 2.66689 18.2907
285 1 9.46631 2.58936 21.0025
286 1 6.75094 2.72955 21.2122
287 1 12.3675 -0.0283916 18.5518
288 1 12.3464 0.0859765 21.3841
289 1 12.1623 2.5799 18.211
290 1 12.4392 2.59426 21.1774
291 1 0.912983 5.33659 18.2158
292 1 3.88991 5.40421 18.4748
293 1 3.91989 5.54839 21.2496
294 1 1.08077 5.44563 20.9709
295 1 1.00612 8.48632 18.4045
296 1 3.8918 8.4499 18.332
297 1 3.98867 8.38092 21.2119
298 1 1.06222 8.33707 21.0404
299 1 6.75933 5.63062 18.386
300 1 9.73101 5.60308 18.3084
301 1 9.46318 5.25996 21.1764
302 1 6.73043 5.37243 21.1461
303 1 6.80022 8.28091 18.6285
304 1 9.48727 8.43911 18.4447
305 1 9.64378 8.28547 21.2747
306 1 6.8664 8.36952 21.4358
307 1 12.5328 5.33104 18.2687
308 1 12.2326 5.50634 21.1916
309 1 12.3167 8.13397 18.4419
310 1 12.2198 8.3677 21.3658
311 1 1.15735 11.3369 18.4202
312 1 3.87663 11.0887 18.1374
313 1 4.02043 11.1403 21.2489
314 1 1.02106 11.1727 21.1386
315 1 1.04283 14.0425 18.4676
316 1 3.82963 14.0817 18.486
317 1 3.86833 13.9053 21.2603
318 1 1.08712 14.0329 21.1444
319 1 6.78197 11.2783 18.6133
320 1 9.65945 11.1017 18.3764
321 1 9.57409 10.9147 21.3336
322 1 6.66699 11.2242 21.2847
323 1 6.59827 14.0649 18.5843
324 1 9.69432 13.9339 18.4711
325 1 9.48251 13.8928 21.1626
326 1 6.53909 13.8995 21.3501
327 1 12.3498 11.1625 18.5912
328 1 12.3851 11.1683 21.3492
329 1 12.5619 14.0456 18.371
330 1 12.3858 13.9483 21.386
331 1 1.21077 16.8218 18.3637
332 1 3.94481 16.8458 18.2208
333 1 3.991 16.8113 21.044
334 1 1.14473 16.8023 21.1777
335 1 0.991757 19.5486 18.3149
336 1 4.05423 19.7034 18.4713
337 1 4.12456 19.7367 21.1946
338 1 1.24646 19.5025 21.3635
339 1 6.78395 16.7638 18.5312
340 1 9.6779 16.8423 18.3622
341 1 9.55218 16.5757 21.1076
342 1 6.83992 16.7904 21.4654
343 1 6.66228 19.5126 18.3516
344 1 9.59769 19.6607 18.3774
345 1 9.51087 19.4282 21.2329
346 1 6.92506 19.8586 21.2107
347 1 12.5642 16.8663 18.2964
348 1 12.3604 16.7772 21.1787
349 1 12.4999 19.7455 18.3284
350 1 12.3732 19.7235 21.1271
351 1 1.02073 22.5329 18.2771
352 1 3.7662 22.6073 18.4652
353 1 3.91774 22.3952 21.2829
354 1 1.04453 22.4917 21.1395
355 1 6.72408 22.371 18.3691
356 1 9.69447 22.6357 18.2169
357 1 9.59859 22.2354 21.0927
358 1 6.77574 22.5447 21.16
359 1 12.5404 22.5133 18.4451
360 1 12.3553 22.3511 21.1975
361 1 1.10261 -0.461562 24.0413
362 1 3.96596 2.54575 24.0152
363 1 4.06156 -0.205061 26.9199
364 1 1.27664 -0.101954 26.8921
365 1 0.970379 2.7597 24.0638
366 1 3.86118 5.37279 24.0179
367 1 3.86648 2.58999 26.6631
368 1 1.06512 2.55382 26.6494
369 1 6.73928 2.57231 24.0998
370 1 9.63487 2.71251 23.7754
371 1 9.68835 -0.210251 26.9175
372 1 6.97039 -0.155473 26.6486
373 1 6.736 2.70482 27.0537
374 1 9.41754 5.6198 24.1487
375 1 9.38076 2.62316 26.6095
15242 2 13.6435 21.099 25.2664
377 1 12.3482 2.67623 23.9644
378 1 12.293 -0.0914724 26.8393
379 1 9.61669 5.54722 26.9284
380 1 12.1768 2.70427 26.8684
381 1 0.817612 5.68937 23.8015
382 1 6.82401 5.45456 23.8586
383 1 3.9712 5.41843 26.8186
384 1 0.986086 5.50145 26.662
385 1 1.10473 8.43565 23.9298
386 1 3.95593 8.2955 23.7723
387 1 3.81191 8.4214 26.8096
388 1 1.08982 8.29904 26.7692
389 1 6.85937 5.35525 26.8078
390 1 9.57117 8.45783 24.1761
15171 2 13.9204 12.4167 16.9985
15201 2 13.6209 1.20829 22.7093
393 1 6.59992 8.36783 26.8039
394 1 6.75391 8.24341 24.1216
395 1 9.43379 8.32323 26.9307
15162 2 13.7349 3.95761 19.7499
397 1 12.239 5.45829 23.8788
398 1 12.3964 5.60121 26.8831
399 1 12.2428 8.30945 24.0662
400 1 12.3024 8.21178 26.7815
401 1 1.03755 11.2526 24.0004
402 1 3.71238 11.0378 23.8071
403 1 3.83897 11.1621 26.6563
404 1 1.13912 11.2004 26.797
405 1 0.920716 13.9476 24.0569
406 1 3.8891 13.8111 23.9931
407 1 3.99151 13.941 26.8107
408 1 0.942198 13.8474 26.7945
409 1 6.72128 11.0993 24.1209
410 1 9.44166 11.2563 24.1111
411 1 9.38719 11.0055 26.9059
15182 2 13.9128 15.4273 19.8394
413 1 6.7242 14.0034 24.0925
414 1 9.61951 14.151 24.0139
415 1 9.55778 13.8247 27.005
416 1 6.83714 13.9237 26.8214
417 1 12.3122 11.315 24.2802
418 1 12.2819 11.3733 27.0773
419 1 12.447 14.172 24.2173
420 1 12.5652 14.0524 26.819
421 1 1.31658 16.873 24.1469
422 1 3.99179 16.5912 23.9352
423 1 3.94158 16.6652 26.662
424 1 1.16115 16.684 26.7625
425 1 1.13246 19.6108 24.0577
426 1 4.08857 19.4884 23.9185
427 1 4.0425 19.3251 26.9175
428 1 1.23736 19.4195 26.8296
429 1 6.89263 16.8787 24.2039
430 1 9.55959 17.0145 23.8698
431 1 9.49825 16.6455 26.6202
432 1 6.79405 16.7429 26.6947
433 1 7.06626 19.6871 23.8678
434 1 9.75418 19.8502 24.1069
435 1 9.5496 19.6974 26.8608
436 1 6.72523 19.4223 26.6672
437 1 12.541 16.7475 23.9199
438 1 12.5797 16.8111 27.1226
439 1 12.3288 19.5515 23.9022
440 1 12.4653 19.6136 26.6396
441 1 1.20073 22.4107 24.02
442 1 4.17241 22.5024 23.8985
443 1 4.04406 22.2526 26.7404
444 1 1.19197 22.1719 26.658
445 1 6.89684 22.4695 23.9952
446 1 9.66986 22.6864 23.8104
447 1 9.41164 22.5849 26.6452
448 1 6.82274 22.5617 26.8617
449 1 12.3461 22.5338 24.0988
450 1 12.1655 22.5453 26.9191
12149 2 5.57463 23.7293 13.9562
12250 2 10.9149 23.9311 25.3534
15161 2 13.7639 6.64579 16.7675
12134 2 5.43325 6.8717 14.1901
12230 2 11.0342 12.5562 25.6217
12235 2 5.275 15.3559 22.7117
12249 2 10.9795 20.9388 22.6178
15136 2 13.7196 9.73663 14.227
12229 2 10.9807 9.87807 22.8356
5999 1 12.2522 -0.189729 24.1154
12143 2 8.11812 15.4242 14.0684
12248 2 5.41079 23.7953 25.5665
12141 2 2.61101 15.4829 14.1789
15231 2 13.8608 18.1192 22.5
15172 2 13.6628 9.63166 19.8282
12150 2 11.0013 23.8234 14.1428
12228 2 5.2627 12.6115 25.4483
12135 2 11.0333 6.98884 14.2226
12233 2 2.44018 15.315 25.5535
5994 1 9.43504 -0.191714 24.0124
15151 2 13.7247 1.12947 16.9295
5986 1 3.85462 -0.229399 23.9531
412 1 6.58948 11.2249 26.8002
12139 2 5.30502 12.6442 14.2167
15222 2 13.8295 9.79253 25.335
12247 2 8.24394 21.0244 25.51
12152 2 2.50793 1.12358 17.1611
5993 1 6.59894 -0.280824 24.1339
12246 2 8.20388 23.7802 22.483
12130 2 10.9749 1.26548 14.1205
12156 2 8.06477 1.19375 16.9682
12226 2 8.14086 12.5098 22.6545
12158 2 5.19415 0.996485 19.9045
12223 2 2.54458 9.72001 25.3522
12160 2 10.8209 1.18007 19.6714
12245 2 5.58785 21.1181 22.626
12162 2 2.22507 6.90951 16.9266
12163 2 2.45896 4.03988 19.7607
12146 2 2.60871 21.0839 14.0473
12165 2 5.32805 4.13309 17.0881
12166 2 8.16232 6.93644 17.2157
12167 2 8.13038 3.90594 19.6911
12168 2 5.3888 6.83175 19.7899
12169 2 10.9077 4.0336 17.0387
12170 2 10.9067 6.94489 19.8424
12243 2 2.6825 20.8465 25.3686
12172 2 2.55911 12.7414 16.9082
12173 2 2.53905 9.66809 19.7434
12242 2 2.67141 23.9002 22.647
12175 2 5.22438 9.75585 16.8684
12176 2 8.19209 12.5717 17.1982
12177 2 8.09613 9.7582 19.6991
12178 2 5.17739 12.5511 19.8459
12179 2 11.1149 9.57633 17.0309
12180 2 10.8706 12.4923 19.7239
12133 2 8.03586 4.17448 14.162
12182 2 2.58344 18.2046 16.9661
12183 2 2.50574 15.3646 19.8064
15212 2 13.8655 4.14989 25.2611
12185 2 5.29657 15.3883 17.0146
12186 2 7.94891 18.2251 16.998
12187 2 8.1026 15.2399 19.9199
12188 2 5.41184 18.1529 19.8239
12189 2 11.1099 15.3923 17.0407
12190 2 10.9763 18.1416 19.7317
12222 2 2.43242 12.5073 22.4598
12192 2 2.47996 23.9178 16.9001
12193 2 2.59709 21.0182 19.7658
12220 2 10.913 7.00231 25.4677
12195 2 5.24696 21.1303 16.9241
12196 2 8.18284 23.8418 16.9063
12197 2 8.1706 20.8729 19.6734
12198 2 5.24751 23.7875 19.9188
12199 2 11.0247 21.0888 16.9408
12200 2 11.1083 23.817 19.8103
12240 2 10.9779 18.2089 25.3316
12202 2 2.52918 1.10586 22.4666
12236 2 8.13928 18.1793 22.7269
12239 2 10.9935 15.4651 22.7765
12225 2 5.42081 9.62914 22.5877
12206 2 8.03348 1.28098 22.5106
12232 2 2.57035 18.1847 22.6445
12208 2 5.426 1.27523 25.4615
12227 2 8.05323 9.79851 25.5048
12210 2 10.7584 1.24195 25.3289
12238 2 5.36085 18.1327 25.4991
12212 2 2.49872 6.86635 22.5639
12213 2 2.3697 3.97777 25.4368
12237 2 8.19654 15.2201 25.4363
12215 2 5.37859 3.97557 22.6503
12216 2 8.19182 6.87709 22.544
12217 2 8.26491 4.02812 25.3945
12218 2 5.41381 6.71266 25.297
12219 2 11.0115 4.11055 22.5329
12131 2 2.50355 4.24334 14.181
12129 2 5.37686 1.34509 14.3031
15211 2 13.583 6.94305 22.6276
12138 2 8.11867 9.76938 14.1748
15141 2 13.7109 15.4202 14.2899
12136 2 2.37512 9.71446 14.2244
12194 2 -0.304089 23.8506 19.7389
12140 2 10.9083 12.6017 14.346
12145 2 11.0308 18.1861 14.095
15131 2 13.7499 3.91088 14.0421
15146 2 13.6954 21.1432 14.0997
12148 2 8.16499 20.9625 14.2092
12144 2 5.39926 18.253 14.2179
15191 2 13.8379 23.808 16.9646
15221 2 13.8669 12.6582 22.4756
15241 2 13.8482 23.7585 22.5505
12241 2 -0.235267 20.9702 22.6076
15152 2 13.7703 -1.46048 19.7903
15192 2 13.793 20.9839 19.8333
15126 2 13.9006 -1.61852 14.238
12154 2 -0.410592 1.16448 19.7634
15202 2 13.798 -1.495 25.3107
15181 2 13.6776 18.1727 16.8991
12207 2 8.13439 -1.5788 25.3215
12025 2 5.22464 9.69745 28.0965
451 1 1.17361 25.1405 1.41467
452 1 3.90654 25.1161 1.44701
453 1 3.95417 25.1006 4.19567
454 1 1.19889 25.2961 4.32315
455 1 6.73039 25.1434 1.44663
456 1 9.47797 25.3463 1.46821
457 1 9.47515 25.4562 4.3128
458 1 6.76841 25.2415 4.00363
459 1 12.4932 25.276 1.42049
460 1 12.4062 25.4165 4.17948
461 1 1.00066 28.056 1.2562
462 1 3.72593 27.9671 1.31104
463 1 4.02683 28.1304 4.08687
464 1 1.27371 28.1288 4.07403
465 1 1.18658 31.0036 1.35464
466 1 4.23474 30.995 1.43444
467 1 4.02613 31.0124 4.23745
468 1 1.16492 31.1595 3.92016
469 1 6.55242 28.023 1.25817
470 1 9.62403 28.034 1.33264
471 1 9.46412 27.9887 4.2901
472 1 6.85027 28.1185 4.14616
473 1 6.93498 30.7065 1.48476
474 1 9.70153 30.8836 1.28114
475 1 9.6199 30.939 4.33049
476 1 6.81967 30.9756 4.26597
477 1 12.5538 30.9906 1.20906
478 1 12.6222 28.5077 4.16718
12265 2 5.58932 32.23 0.0133826
480 1 12.126 31.1271 3.73773
481 1 1.44051 33.87 1.4807
482 1 4.22843 33.8164 1.55034
483 1 3.87869 33.8693 4.17094
484 1 1.23225 34.1206 4.02483
485 2 2.85093 35.3524 2.72785
486 1 4.02987 36.6706 1.3439
487 1 4.18729 36.5921 4.01171
488 1 1.57972 36.8129 4.47136
489 1 7.07598 33.5908 1.38068
490 1 9.74991 33.8016 1.43667
491 1 9.59073 33.6865 4.25814
492 1 6.56472 33.6889 4.24385
493 1 6.74301 36.7353 1.3259
494 1 9.61885 36.6634 1.39815
495 1 9.79669 36.4933 4.32176
496 1 6.97893 36.7731 4.2449
497 1 12.3973 33.8205 1.38408
498 1 12.3004 34.1231 4.34292
499 1 12.2814 36.6459 1.38167
500 1 12.3961 36.7487 4.29517
501 1 1.49114 36.586 1.55991
502 1 4.10051 39.5731 1.21074
503 1 3.95021 39.6376 4.13311
504 1 1.06218 39.6414 4.20198
505 1 1.18797 39.3962 1.20826
506 1 4.03914 42.4659 1.33843
507 1 4.04725 42.3002 4.08669
508 1 1.28553 42.2884 4.33544
509 1 6.99158 39.6911 1.32348
510 1 9.94671 39.3221 1.36672
511 1 9.83139 39.3921 3.96278
512 1 6.94145 39.4834 4.01535
513 1 6.92502 42.3838 1.46651
514 1 9.66219 42.0775 1.32434
515 1 9.68077 42.1098 4.32104
516 1 6.81171 42.3631 4.15594
517 1 12.6842 39.4341 1.40789
518 1 12.6771 39.5262 4.14773
519 1 12.348 42.1592 1.24285
520 1 12.4468 42.2302 3.87989
521 1 1.34455 42.2353 1.20502
522 1 1.71877 45.0773 1.40583
523 1 4.19958 44.9953 3.9401
524 1 1.20541 45.1526 4.15355
525 1 1.21826 47.7956 1.33183
526 1 4.02988 47.5378 1.33002
527 1 4.1548 48.0853 4.0539
528 1 1.39143 47.7931 4.13598
529 1 6.50114 45.2073 1.20773
530 1 9.55024 44.9588 1.40806
531 1 9.7702 44.9763 4.26841
532 1 7.01251 45.217 4.20836
533 1 6.90956 47.9864 1.27435
534 1 9.68807 47.693 1.09527
535 1 9.68994 47.856 4.20787
536 1 6.93358 48.0227 4.20395
537 1 12.4903 45.1431 1.3743
538 1 12.6168 44.9103 4.28293
539 1 12.5917 47.9258 1.37772
540 1 12.4385 47.8076 4.27222
541 1 1.10718 25.1338 7.18897
542 1 3.9804 25.3808 6.90568
543 1 3.71931 25.1732 9.84283
544 1 1.10127 24.9205 10.085
545 1 6.75869 25.3875 6.90778
546 1 9.65605 25.3215 7.15932
547 1 9.49622 25.1847 9.88077
548 1 6.63735 25.6602 9.69798
549 1 12.2661 27.8958 6.93158
550 1 12.2774 25.1759 9.95755
551 1 1.42604 27.8955 7.11488
552 1 3.9869 28.2957 6.89349
553 1 4.01541 27.9649 9.68119
554 1 1.16756 28.0307 10.0334
555 1 1.142 30.8418 6.83029
556 1 3.80879 30.9933 7.18055
557 1 3.87573 31.0005 9.90379
558 1 1.18687 30.8588 9.76669
559 1 6.88337 28.2208 6.94808
560 1 9.68118 28.3427 6.9384
561 1 9.71712 28.033 9.69118
562 1 6.8498 28.3268 9.82354
563 1 6.54501 31.0362 7.09622
564 1 9.35281 30.9448 7.19614
565 1 9.66952 30.8074 10.0343
566 1 6.88353 31.066 9.88008
12255 2 5.25341 26.6095 0.0754039
568 1 12.4648 28.0854 9.8767
569 1 12.0177 30.8302 6.77607
570 1 12.125 31.2409 9.85494
571 1 1.39251 33.7716 7.00135
572 1 3.99347 33.7554 6.99427
573 1 4.14893 33.7572 9.95305
574 1 1.36095 33.8205 9.78648
575 1 1.09783 36.5912 7.12926
576 1 3.98568 36.6187 6.87882
577 1 3.97148 36.6418 9.65212
578 1 1.06487 36.6678 9.96081
579 1 6.82291 33.7894 7.11002
580 1 9.4671 33.724 7.16681
581 1 9.64914 33.654 10.0254
582 1 6.91185 33.8204 9.8392
583 1 6.91194 36.7761 7.05634
584 1 9.74508 36.5941 7.12714
585 1 9.56183 36.5571 9.78652
586 1 6.68958 36.6956 9.89832
587 1 12.4262 33.8407 7.19154
588 1 12.3733 33.8305 10.1698
589 1 12.4908 36.8875 7.02847
590 1 12.599 36.6781 10.068
591 1 1.21863 39.4785 7.02035
592 1 4.01006 39.3164 6.86365
593 1 4.20211 39.4321 9.89956
594 1 1.21555 39.5261 9.75101
595 1 1.20987 42.2992 7.04417
596 1 4.07751 42.2056 6.89744
597 1 4.00445 42.1984 9.78048
598 1 1.30468 42.1709 9.94723
599 1 6.80813 39.5737 6.80214
600 1 9.61838 39.4534 7.21188
601 1 9.69985 39.321 10.071
602 1 7.02591 39.4141 9.80981
603 1 6.66676 42.3541 7.05686
604 1 9.6952 42.1539 7.10204
605 1 9.4506 42.1126 10.0019
606 1 6.77257 42.3701 9.73292
607 1 12.5881 39.584 6.95193
608 1 12.5133 39.5047 9.70491
609 1 12.6526 42.3234 6.84363
610 1 12.3498 42.2999 9.95437
611 1 1.25022 45.0235 6.88734
612 1 4.16556 45.1299 6.94761
613 1 4.01648 45.1027 9.73402
614 1 1.30054 44.8937 9.80865
615 1 1.2799 47.9397 6.93321
616 1 4.14154 47.85 6.93521
617 1 4.21925 47.7807 9.87483
618 1 1.26517 47.8672 9.79745
619 1 6.8331 45.0636 6.82433
620 1 9.50312 45.0315 6.94579
621 1 9.6896 45.045 9.82519
622 1 7.00108 45.2228 9.61484
623 1 6.93168 47.9643 7.03879
624 1 9.86303 48.0794 6.84726
625 1 9.71368 47.8591 9.59067
626 1 7.05198 48.0357 9.87568
627 1 12.4285 45.1264 7.04312
628 1 12.4974 45.1906 9.65196
629 1 12.5916 47.8821 7.11939
630 1 12.7009 48.0107 9.91472
631 1 1.08539 25.3872 12.6937
632 1 3.9782 25.4456 12.6595
633 1 6.92416 25.4554 12.5809
634 1 9.64108 25.319 12.7337
635 1 12.5405 25.2284 12.7143
636 1 1.14128 28.2157 12.8677
637 1 3.93498 28.2207 12.5654
638 1 1.32061 30.8782 12.4764
639 1 4.1149 31.0124 12.589
640 1 6.78713 28.219 12.4802
641 1 9.64196 28.1726 12.6912
642 1 6.93982 30.9691 12.6896
643 1 9.86136 31.0219 12.7216
644 1 12.5843 27.9793 12.621
645 1 12.451 30.7091 12.6623
646 1 1.37029 33.8402 12.7269
647 1 4.10475 33.8391 12.6537
648 1 1.24565 36.6778 12.798
649 1 4.24279 36.5404 12.4881
650 1 6.87147 33.9341 12.8501
651 1 9.68699 33.8362 12.8765
652 1 6.75836 36.8077 12.8024
653 1 9.58412 36.7011 12.7109
654 1 12.3602 33.7757 12.8606
655 1 12.2835 36.7374 12.581
656 1 1.17148 39.3259 12.586
657 1 3.8812 39.4121 12.6685
658 1 1.16453 42.1861 12.6379
659 1 4.0921 42.0618 12.6043
660 1 6.75809 39.7828 12.5676
661 1 9.55091 39.3353 12.806
662 1 6.83769 42.3143 12.6292
663 1 9.78888 42.0751 12.7655
664 1 12.5207 39.3931 12.5292
665 1 12.5864 42.1439 12.5496
666 1 1.36347 45.1136 12.5767
667 1 4.15179 45.1109 12.5726
668 1 1.15656 47.9697 12.3591
669 1 3.92351 48.0041 12.6326
670 1 6.86447 45.1128 12.5449
671 1 9.72562 44.8716 12.7106
672 1 6.62198 48.0003 12.6549
673 1 9.4916 47.5454 12.458
674 1 12.5488 45.1111 12.6186
675 1 12.4979 48.0784 12.6428
12363 2 11.0574 49.3114 11.1126
12361 2 -0.112001 49.3074 11.0429
12253 2 2.58554 26.5444 2.9336
12362 2 5.46731 49.4563 11.2912
15261 2 13.7233 35.211 -0.0621266
12269 2 11.0145 32.3271 0.0459934
12257 2 8.09026 26.6126 2.89759
12258 2 5.50787 29.4037 2.82647
12259 2 11.1872 26.7829 -0.0270898
12260 2 10.712 29.3048 2.9095
12360 2 11.1058 43.6601 11.1721
15307 2 13.9307 32.3116 8.41136
12263 2 2.70865 32.1803 2.74556
12359 2 8.17147 46.4752 11.1193
12279 2 11.1917 38.0929 -0.105864
12346 2 -0.101168 32.3095 11.2378
12267 2 8.31302 32.3199 2.85872
12268 2 5.94389 35.1889 2.79553
12345 2 11.1219 26.6289 11.482
12270 2 11.0064 35.3336 2.86789
12358 2 5.53889 43.7179 11.0926
12344 2 8.15201 29.5345 11.09
12273 2 2.63303 38.435 2.86355
12357 2 2.70663 46.4458 11.2579
12343 2 5.16686 26.6163 11.2314
15252 2 13.9919 26.4043 2.78505
12277 2 8.29734 38.0731 2.72082
12278 2 5.47972 40.9964 2.7035
15341 2 13.4573 29.4643 11.1918
12280 2 11.3289 40.7407 2.73721
12355 2 11.0974 38.055 11.297
12284 2 -0.0693799 46.3973 2.69852
12283 2 2.72597 43.679 2.79948
12354 2 8.34034 40.854 11.3447
12342 2 2.64702 29.4233 11.1717
176 1 12.4728 25.148 7.09241
12287 2 8.41481 43.626 2.86315
12288 2 5.67245 46.7189 2.9137
6451 1 12.2052 28.3376 1.48216
12290 2 11.0518 46.5134 2.65297
12353 2 5.50353 38.2116 11.3762
12292 2 2.6146 49.3109 2.61491
12329 2 -0.083779 46.523 8.44827
12294 2 8.30092 49.3689 2.83166
12385 2 8.2778 49.4798 14.0369
12274 2 -0.336003 40.689 2.84342
12297 2 2.54903 29.316 5.59861
12298 2 2.62911 26.5072 8.39103
12340 2 11.1289 49.3955 5.61832
12300 2 5.3051 26.6767 5.54574
12301 2 8.06613 29.6341 5.55207
12302 2 8.04219 26.7505 8.23164
12303 2 5.35216 29.6725 8.44765
12304 2 10.9688 26.5982 5.61449
12305 2 10.9878 29.5913 8.48489
12352 2 2.52586 40.8855 11.2096
12307 2 2.56155 35.2337 5.95194
12308 2 2.69502 32.3796 8.44913
12286 2 8.15666 46.4015 -0.179476
12310 2 5.32495 32.3523 5.62067