ITEM: TIMESTEP
100000
ITEM: NUMBER OF ATOMS
18000
ITEM: BOX BOUNDS xy xz yz pp pp pp
-1.3562060941107032e-01 2.8029620609410362e+01 0.0000000000000000e+00
-1.7589283456833185e+00 3.3648692834568857e+02 0.0000000000000000e+00
-1.4716504133236197e-01 2.8041165041331482e+01 0.0000000000000000e+00
ITEM: ATOMS id type x y z
1 1 1.3827 -0.456082 1.00392
2 1 4.13911 -0.321951 1.14307
3 1 4.24201 -0.290164 3.89367
4 1 1.45646 -0.449321 3.98989
5 1 1.18483 2.51854 1.11553
6 1 4.01963 2.35838 1.10185
7 1 4.17593 2.50799 3.89428
8 1 1.46996 2.39146 3.77981
9 1 7.00651 2.37657 4.03962
10 1 9.81865 -0.269688 1.09131
11 1 7.1125 -0.399522 4.00555
12 1 6.9229 -0.39068 6.85203
13 1 7.15606 5.13187 4.06805
14 1 9.63883 2.42692 0.912222
15 1 9.92252 2.43965 3.98909
16 1 9.83661 5.22064 6.55139
17 1 12.8653 -0.312291 1.05738
18 1 12.7288 -0.341013 3.86148
19 1 12.3837 2.52513 1.06012
20 1 12.7894 2.61956 3.89324
21 1 1.33542 5.36658 1.16133
22 1 4.14641 5.1411 1.11716
23 1 4.28368 5.27885 3.99499
24 1 1.36581 5.16886 3.93273
25 1 1.38739 8.04507 0.98783
26 1 4.04021 7.88604 1.21298
27 1 4.26975 8.02195 3.99118
28 1 1.17806 8.16777 3.81565
29 1 9.81446 8.0614 3.75108
30 1 9.8102 5.23536 1.07134
31 1 9.85653 5.29109 3.68462
32 1 7.0404 7.86553 3.80843
33 1 6.80737 10.6891 3.65858
34 1 9.84344 8.02367 0.979424
35 1 10.0557 10.7554 4.00923
36 1 8.37801 10.5705 6.46484
37 1 12.6025 5.30962 0.816987
38 1 12.6674 5.35004 3.84818
39 1 12.7206 8.0845 0.80173
40 1 12.4166 8.12109 3.6717
41 1 1.43547 10.8129 1.05996
42 1 4.20949 10.8825 1.10807
43 1 4.04077 10.8238 3.97081
44 1 1.37644 10.8064 4.06277
45 1 1.49813 13.625 1.16671
46 1 4.22869 13.6647 1.15115
47 1 4.05728 13.6837 3.98082
48 1 1.208 13.5586 4.3515
49 1 8.51725 12.1934 2.45028
50 1 9.93375 10.6489 1.04143
51 1 10.1406 12.5673 6.32924
52 1 6.18547 12.3474 6.16398
53 1 6.9975 13.8589 0.98491
54 1 9.93167 13.7531 0.924473
55 1 9.90078 13.9767 4.03215
56 1 6.86822 13.9014 3.82695
57 1 12.5531 11.0671 1.0377
58 1 12.858 11.0697 3.66428
59 1 12.6952 13.7569 0.955032
60 1 12.6571 13.8701 3.89972
61 1 1.24547 16.6764 1.22839
62 1 4.22152 16.4897 1.0199
63 1 4.17692 16.4432 3.82062
64 1 1.25385 16.445 4.22901
65 1 1.33895 19.3228 1.22568
66 1 4.26634 19.3348 1.1161
67 1 4.25416 19.1995 3.98997
68 1 1.28535 19.2692 4.10282
69 1 7.03773 16.4092 0.972497
70 1 9.7319 16.5601 1.20319
71 1 10.0269 16.6534 4.01645
72 1 7.07593 16.6752 3.8395
73 1 7.04334 19.2368 1.28531
74 1 9.88523 19.2269 0.913731
75 1 9.77754 19.4278 3.78136
76 1 6.94984 19.5887 3.90256
77 1 12.632 16.6164 0.984726
78 1 12.887 16.633 3.6898
79 1 12.6415 19.5081 1.0242
80 1 12.5575 19.4578 4.11114
81 1 1.28278 22.3201 1.12101
82 1 4.12424 22.0989 1.21214
83 1 3.98799 22.2201 3.93077
84 1 1.16946 22.0339 3.97097
85 1 6.75941 22.2102 1.32499
86 1 9.57644 21.9868 1.06744
87 1 9.71604 22.3128 4.05041
88 1 6.91649 22.3249 4.15328
89 1 12.6236 22.3454 1.10364
90 1 12.5737 22.2084 3.73102
91 1 1.53771 -0.35187 6.70175
92 1 4.27003 -0.505856 6.60271
93 1 4.44868 -0.499487 9.58353
94 1 1.46288 -0.455097 9.48515
95 1 1.59741 2.47992 6.64651
96 1 4.45095 2.22909 6.7
97 1 4.39327 2.36169 9.47611
98 1 1.46213 2.37569 9.57217
99 1 7.12136 2.36459 6.75723
100 1 9.84682 -0.324609 6.68496
101 1 9.87128 2.57692 9.4755
102 1 7.1517 3.03291 9.55332
103 1 9.90166 7.94769 6.65304
104 1 10.0219 2.34654 6.75413
105 1 9.66062 5.25664 9.58892
106 1 6.91036 5.17272 7.13703
107 1 12.8562 -0.419552 6.56319
108 1 12.7763 2.43001 9.58172
109 1 12.6764 2.44026 6.79271
110 1 12.5816 5.31851 9.33613
111 1 1.42552 5.40057 6.80539
112 1 4.25907 5.25706 6.57332
113 1 4.26676 5.21579 9.49686
114 1 1.48883 5.26446 9.50549
115 1 1.24781 8.11299 6.81421
116 1 4.11171 8.02922 6.76097
117 1 4.2212 8.24441 9.58645
118 1 1.15185 8.01804 9.61467
119 1 6.96566 7.78102 6.51125
120 1 12.7865 7.98662 6.59433
121 1 9.98207 7.99299 9.58972
122 1 6.93311 7.51262 9.66047
123 1 6.16844 9.99846 7.95229
124 1 10.3569 10.3336 8.28343
125 1 8.22819 10.1833 9.93947
126 2 8.27522 8.93064 8.06441
127 1 12.6053 5.30018 6.54144
128 1 12.812 7.98333 9.32774
12147 2 -0.0416032 23.6401 13.7536
130 1 12.886 10.7011 9.67188
131 1 1.08164 10.9391 6.78232
132 1 3.63651 10.7955 6.78846
133 1 4.04618 10.9339 9.87337
134 1 1.184 11.1068 9.70012
135 1 0.836713 13.9256 7.13135
136 1 3.75349 13.6966 6.81585
137 1 3.85488 13.8598 9.76876
138 1 1.24931 13.8033 9.71123
139 1 8.12713 14.1082 6.67976
140 1 12.563 13.6383 6.53683
141 1 10.7016 14.9702 8.28759
142 1 6.91331 12.3406 9.59458
143 1 6.00799 14.6404 8.4432
144 1 9.45839 16.7882 6.62583
145 1 9.64673 16.9828 9.37149
146 1 8.38847 14.5876 10.2597
147 1 12.8334 10.6783 6.61993
148 1 10.1145 12.4817 9.739
149 1 12.6692 16.6658 6.70725
150 1 12.8393 13.5571 9.5192
151 1 1.31089 16.6721 6.92933
152 1 4.0405 16.4274 6.69814
153 1 3.9906 16.6412 9.57646
154 1 1.09419 16.7954 9.80274
155 1 1.28138 19.4151 6.80672
156 1 4.07369 19.5223 6.69035
157 1 4.05401 19.4012 9.36801
158 1 1.18271 19.5562 9.62537
159 1 6.68863 16.6844 6.61575
160 1 12.8353 19.3396 6.89283
161 1 9.69197 19.6164 9.62353
162 1 6.84846 16.9721 9.71297
163 1 6.91434 19.3666 6.62608
164 1 9.7773 19.439 6.73361
165 1 9.64703 22.2085 9.47438
166 1 6.87053 19.5349 9.35948
12150 2 10.9913 23.6162 13.8897
168 1 12.5632 16.569 9.58713
12111 2 -0.0147405 9.47644 11.027
170 1 12.3628 19.4507 9.66184
171 1 1.33571 22.2027 6.66585
172 1 4.32886 22.4988 6.48916
173 1 3.9908 22.3094 9.40167
174 1 1.39892 22.3087 9.46772
175 1 7.04596 22.2654 6.97699
5635 1 9.9357 -0.188374 3.93083
177 1 9.68286 22.3038 6.75266
178 1 6.84099 22.2227 9.63507
12127 2 -0.0266774 1.14015 13.6793
180 1 12.4283 22.3988 9.54707
181 1 1.62269 -0.373812 12.1665
182 1 4.41439 -0.536051 12.39
183 1 1.70792 2.50986 12.3046
184 1 4.25813 2.24426 12.47
185 1 7.33192 -0.0801797 12.4722
186 1 9.98615 -0.21363 12.2661
187 1 6.93221 2.69899 12.3607
188 1 9.72474 2.67443 12.4289
189 1 12.5952 -0.461711 12.3436
190 1 12.5007 2.60243 12.405
191 1 1.31939 5.36891 12.4666
192 1 4.10987 5.20214 12.3552
193 1 1.51018 8.22925 12.41
194 1 4.21075 8.21475 12.3566
195 1 7.01411 5.41357 12.2086
196 1 9.87408 5.36191 12.3011
197 1 7.06517 8.24914 12.4601
198 1 9.84344 8.18115 12.5824
199 1 12.5995 5.41379 12.1695
200 1 12.8137 8.26137 12.1003
201 1 1.1719 10.8544 12.4574
202 1 3.91885 10.9688 12.7003
203 1 1.21804 13.728 12.425
204 1 4.17228 13.7817 12.4668
205 1 6.84375 10.9611 12.5143
206 1 9.60855 10.8195 12.3516
207 1 6.94552 13.868 12.6012
208 1 9.72173 13.7081 12.5579
209 1 12.6366 10.7626 12.353
210 1 12.6451 13.6542 12.1573
211 1 1.19767 16.6362 12.423
212 1 4.05395 16.6849 12.3724
213 1 1.39053 19.4875 12.4113
214 1 4.15028 19.5295 12.2203
215 1 6.81833 16.7873 12.4014
216 1 9.56288 16.818 12.5165
217 1 6.90143 19.6545 12.2611
218 1 9.68626 19.5822 12.4151
219 1 12.4635 16.5717 12.289
220 1 12.6615 19.4882 12.3275
221 1 1.49575 22.4094 12.4397
222 1 4.21108 22.1275 12.4563
223 1 6.96999 22.1625 12.4282
224 1 9.53121 22.1766 12.5497
225 1 12.4782 22.4459 12.2481
12125 2 11.042 20.9696 10.992
12110 2 11.2717 3.94877 10.8479
12057 2 8.50537 -1.65943 8.08482
12124 2 8.1366 23.5312 10.9992
169 1 12.3243 22.1472 6.72772
12109 2 8.49791 6.95845 11.1467
12074 2 -0.157015 12.2964 8.24901
12008 2 5.47935 1.14713 2.50091
12144 2 5.4916 18.1031 13.7467
12010 2 11.3034 1.00666 2.55828
12123 2 5.47502 20.701 10.7494
12108 2 5.47543 3.83786 10.9593
12013 2 2.75295 3.87808 2.50444
12122 2 2.83266 23.6271 10.8994
12107 2 2.66831 6.77177 11.0976
12112 2 2.62283 12.4388 11.1405
12017 2 8.38282 3.73231 2.53355
12018 2 5.57923 6.48371 2.4349
12104 2 8.42825 1.27678 11.0335
12020 2 11.2359 6.59967 2.36397
5633 1 6.90966 -0.291484 0.943889
12130 2 11.3725 1.22196 13.7942
12023 2 2.85985 9.50336 2.45705
12120 2 10.9319 14.868 10.6021
12102 2 2.92431 0.954336 10.8645
12113 2 5.76684 9.67956 10.9157
12027 2 8.42249 9.48009 2.39438
12028 2 5.78889 12.2339 2.38941
12100 2 10.9524 23.5269 8.2377
12030 2 11.1137 12.3805 2.52443
12099 2 11.0668 20.7491 5.44969
12098 2 5.55529 23.704 8.14809
12033 2 2.96677 14.9666 2.63767
15081 2 13.9221 17.9036 5.20003
12097 2 8.3287 20.6639 8.03731
12096 2 8.42733 23.6109 5.5372
12037 2 8.55142 14.9698 2.48328
12038 2 5.64443 17.808 2.59131
12095 2 5.41443 20.818 5.38595
12040 2 11.2817 17.9983 2.45496
12149 2 5.51482 23.6877 13.7854
12093 2 2.64008 20.7686 8.182
12043 2 2.87028 20.4703 2.59964
12121 2 -0.108209 20.9273 11.0804
12092 2 2.64159 23.6441 5.19352
12143 2 8.37327 15.3756 13.7564
12047 2 8.36548 20.7645 2.60927
12048 2 5.40628 23.5795 2.6729
12090 2 11.2994 17.707 8.04159
12050 2 11.2071 23.4679 2.54514
12119 2 8.39113 18.0922 10.9489
12052 2 2.82781 0.968785 5.19201
12088 2 5.46225 18.0302 8.02084
12118 2 5.51211 15.1742 10.8922
12094 2 0.0490855 23.5545 8.08296
12056 2 8.46306 1.00721 5.39764
392 1 6.90719 7.88898 0.808943
12058 2 5.6867 0.925654 8.11284
12071 2 -0.0831313 9.4821 5.41257
12060 2 11.3594 1.08497 8.19292
12117 2 2.83704 18.0618 11.0691
12062 2 2.75171 6.69208 5.31567
12063 2 2.9496 3.86772 8.15544
12089 2 10.8485 15.0093 5.62477
12065 2 5.62999 3.8052 5.32783
12066 2 8.45037 6.7119 5.20806
12067 2 8.55657 3.72321 7.90194
12068 2 5.54437 6.71529 7.94875
12069 2 11.192 3.85141 5.21906
12070 2 11.1946 6.50473 8.0603
12115 2 11.131 9.6184 10.7536
12072 2 2.70299 12.3145 5.35997
12073 2 2.70978 9.22712 8.30032
12114 2 8.32859 12.4214 11.3774
12075 2 5.56974 9.69223 5.43734
12076 2 8.44331 12.154 4.73914
12077 2 8.52167 12.2584 8.07298
12078 2 5.21209 12.2623 8.09093
12079 2 11.3543 9.44338 5.31928
12080 2 11.7949 11.9944 7.97993
12087 2 8.1156 15.7456 8.29993
12082 2 2.80313 17.7169 5.39823
12083 2 2.57112 15.1813 8.26337
15136 2 13.9091 9.41017 13.6339
12085 2 5.66133 14.8588 5.5351
12086 2 8.35628 18.0028 5.06824
12139 2 5.58468 12.4058 13.7466
12129 2 5.71851 1.11856 13.9058
376 1 6.87477 2.48223 1.24758
5730 1 12.7638 -0.222537 9.38142
391 1 6.96868 5.25125 1.14056
12135 2 11.2385 6.7051 13.7915
12148 2 8.22312 20.7791 13.8456
5725 1 9.8821 -0.306518 9.53526
12140 2 11.2397 12.3532 13.7492
12053 2 2.89633 -1.76617 7.98418
5726 1 7.12522 -0.361337 9.55751
12136 2 2.69678 9.64239 13.8471
396 1 6.91453 10.8256 0.923656
12133 2 8.3407 3.92217 13.6215
12084 2 -0.10574 18.0275 8.33337
12061 2 0.119325 3.68808 5.218
12024 2 -0.0481909 12.0967 2.54335
12134 2 5.50341 6.83025 13.766
12007 2 8.3536 -1.72744 2.61603
12014 2 0.00807928 6.66462 2.5725
15071 2 13.9443 12.3608 5.2507
12034 2 -0.0979595 17.8583 2.60248
12146 2 2.78611 20.7955 13.8256
12132 2 -0.0421813 6.79432 13.7701
12116 2 -0.160619 15.1682 11.1971
12145 2 11.0937 18.0418 13.7012
15092 2 13.8253 20.8639 8.28841
12106 2 0.126795 3.93179 10.8306
12054 2 -0.00866084 0.955593 8.04049
12064 2 -0.0765675 6.69199 8.01792
15141 2 13.8156 15.0951 13.5689
15032 2 13.9153 15.0716 2.35832
15012 2 14.0122 3.8601 2.31787
15116 2 13.7785 18.0133 11.0716
15082 2 13.8466 15.0253 8.03108
15121 2 13.7917 23.6081 10.9877
15022 2 13.9099 9.60069 2.29212
12022 2 2.9091 12.2971 -0.126645
12141 2 2.57819 15.2087 13.7972
12046 2 8.26541 23.6085 -0.249527
226 1 4.27051 -0.285975 15.098
227 1 1.42385 -0.218395 14.9758
228 1 4.29678 2.42814 15.2403
229 1 1.3297 2.51902 15.2107
230 1 9.95146 -0.285707 15.2525
231 1 6.95233 -0.327642 15.1892
232 1 9.7263 2.49831 15.095
233 1 6.94341 2.66236 15.1337
234 1 12.767 -0.188731 15.2859
235 1 12.7565 2.6939 15.1005
236 1 4.13898 5.37008 15.0394
237 1 1.44918 5.37891 15.1996
238 1 4.2035 8.17703 15.2002
239 1 1.27791 8.18617 15.1954
240 1 9.82353 5.19289 15.1676
241 1 7.12341 5.45418 15.0244
242 1 9.72779 7.95113 15.4693
243 1 6.94568 8.13974 15.1609
244 1 12.8496 5.33904 14.9135
245 1 12.5089 7.96986 15.2912
246 1 4.16973 11.088 15.1883
247 1 1.32223 10.9838 15.2541
248 1 4.06833 13.6797 15.1764
249 1 1.07081 13.7641 15.2787
250 1 9.74115 11.0359 15.2013
251 1 6.87338 11.0046 15.3811
252 1 9.88603 13.778 15.2883
253 1 6.97007 13.8243 15.2285
254 1 12.6011 10.7703 15.1435
255 1 12.5875 13.7183 14.9083
256 1 3.98847 16.7136 15.0181
257 1 1.18859 16.5249 15.533
258 1 4.04493 19.6083 15.2961
259 1 1.16799 19.3726 15.0634
260 1 9.81236 16.6762 15.1997
261 1 6.89349 16.688 15.2042
262 1 9.84128 19.5091 15.0185
263 1 6.79292 19.411 15.1908
264 1 12.4359 16.5002 15.0103
265 1 12.5814 19.4818 15.0417
266 1 4.14955 22.2501 15.1492
267 1 1.19512 22.2336 15.1529
268 1 9.66667 22.2828 15.2964
269 1 6.79093 22.3827 15.2565
270 1 12.5932 22.2529 15.0676
271 1 1.37705 -0.371436 17.9222
272 1 4.18103 -0.468152 17.9929
273 1 4.12274 -0.356663 20.7313
274 1 1.38099 -0.527511 21.0028
275 1 1.31226 2.51691 17.941
276 1 4.21726 2.38627 18.0271
277 1 4.31416 2.35473 20.8803
278 1 1.5636 2.46113 20.6796
279 1 6.99633 -0.515132 17.8776
280 1 9.77931 -0.268098 17.9545
281 1 9.81588 -0.383597 20.7487
282 1 6.88288 -0.22515 20.8525
283 1 7.02288 2.35292 18.0413
284 1 9.7648 2.49305 17.9741
285 1 9.95484 2.58995 20.6527
286 1 7.0004 2.38768 20.8699
287 1 12.3711 -0.301667 17.9771
288 1 12.7381 -0.196694 20.7387
289 1 12.8048 2.53956 17.7681
290 1 12.6369 2.54316 20.9765
291 1 1.4093 5.46147 17.8782
292 1 4.19414 5.47686 17.7892
293 1 3.94106 5.33714 20.4949
294 1 1.12594 5.34549 20.8405
295 1 1.23766 8.27857 17.9382
296 1 4.15599 8.29433 18.1269
297 1 4.08687 8.09754 21.0151
298 1 1.26679 8.2398 20.8145
299 1 6.95254 5.20891 17.999
300 1 9.72884 5.32441 18.0219
301 1 9.764 5.23576 20.9292
302 1 6.91618 5.2185 20.9691
303 1 7.08816 8.31402 17.8334
304 1 9.73823 7.91375 18.0513
305 1 9.78983 7.97784 20.8323
306 1 7.01287 8.09343 20.5102
307 1 12.5111 5.22182 17.9918
308 1 12.7373 5.31023 20.7489
309 1 12.44 8.27045 17.945
310 1 12.7368 7.99909 20.8035
311 1 1.18283 11.0132 17.9977
312 1 4.04707 10.8968 18.1602
313 1 3.99546 10.8724 20.8892
314 1 1.44274 10.8457 20.8747
315 1 1.20333 13.6618 18.1367
316 1 3.82818 13.8716 18.0537
317 1 4.13488 13.8907 20.8831
318 1 1.15251 13.6965 20.8262
319 1 6.85912 10.8953 18.09
320 1 9.72323 10.6817 17.9483
321 1 9.63314 10.8942 20.8231
322 1 6.96546 10.9304 20.9117
323 1 6.72009 13.7056 18.0325
324 1 9.759 13.4356 18.0292
325 1 9.69511 13.7664 21.0072
326 1 6.80742 13.5675 20.7708
327 1 12.5768 10.9881 17.8641
328 1 12.7005 10.8673 20.7264
329 1 12.5581 13.7922 18.0116
330 1 12.356 13.709 20.7574
331 1 1.51623 16.7486 18.1334
332 1 4.35855 16.6039 17.7329
333 1 4.01304 16.5421 20.7878
334 1 1.22829 16.4632 20.8322
335 1 1.38147 19.4798 17.9083
336 1 4.24045 19.4428 17.9436
337 1 4.23056 19.3711 20.7569
338 1 1.26003 19.3203 20.8128
339 1 6.99208 16.4881 18.1701
340 1 9.78213 16.3504 17.8817
341 1 9.66018 16.5204 20.6313
342 1 6.90706 16.3328 20.8976
343 1 6.9542 19.4864 17.989
344 1 9.66075 19.3821 17.95
345 1 9.67392 19.2523 20.853
346 1 6.82094 19.2057 20.9528
347 1 12.5124 16.4454 17.9067
348 1 12.4369 16.438 20.8478
349 1 12.4699 19.4007 17.9268
350 1 12.2942 19.3155 20.7449
351 1 1.53147 22.2519 18.1731
352 1 4.28345 22.2636 17.8643
353 1 4.11403 22.2344 20.8332
354 1 1.34135 22.1576 20.9597
355 1 6.95042 22.4054 18.0144
356 1 9.72386 22.3422 17.938
357 1 9.58326 22.1119 20.7598
358 1 6.84999 22.0908 21.0447
359 1 12.4097 22.1826 17.9931
360 1 12.2638 22.0284 20.8767
361 1 1.53596 -0.272589 23.7519
362 1 4.03469 2.4051 23.603
363 1 4.12621 -0.410783 26.2698
364 1 1.24518 -0.196491 26.5883
365 1 1.28255 2.46675 23.5094
366 1 4.18031 5.1036 23.4946
367 1 4.10685 2.34261 26.6984
368 1 1.35553 2.70879 26.618
369 1 7.0912 2.50467 23.6045
370 1 9.71639 2.55134 23.6974
371 1 9.8113 -0.397247 26.5299
372 1 7.01334 -0.379037 26.3444
373 1 6.90872 2.40024 26.3566
374 1 9.58677 5.32743 23.8852
375 1 9.7411 2.44102 26.522
12012 2 2.81584 6.66776 27.8931
377 1 12.5726 2.46983 23.7277
378 1 12.4954 -0.465239 26.5248
379 1 9.80355 5.16004 26.5041
380 1 12.7391 2.28899 26.3609
381 1 1.41442 5.40667 23.7091
382 1 6.87486 5.43945 23.7003
383 1 4.21104 5.21284 26.5315
384 1 1.2738 5.34957 26.6346
385 1 1.44164 8.13803 23.7986
386 1 4.17231 7.93802 23.7418
387 1 4.09666 8.10514 26.4665
388 1 1.29349 7.95021 26.5363
389 1 7.06108 5.11115 26.4783
390 1 9.84144 7.94149 23.6812
12009 2 11.1842 -1.64181 27.8685
12207 2 8.49047 -1.65066 25.0778
393 1 7.0785 8.12804 26.204
394 1 7.1049 8.16998 23.3381
395 1 9.79351 8.06391 26.4748
12019 2 11.1275 3.76332 27.7652
397 1 12.4575 5.21887 23.4966
398 1 12.5913 5.05446 26.2306
399 1 12.7874 8.27962 23.6066
400 1 12.7284 8.23263 26.3412
401 1 1.4953 11.0914 23.6907
402 1 4.10415 10.6981 23.7871
403 1 4.22996 10.8714 26.4955
404 1 1.51283 10.9625 26.4628
405 1 1.3211 13.9281 23.7068
406 1 4.18749 13.6839 23.7307
407 1 4.25626 13.8162 26.5396
408 1 1.25693 13.6891 26.5907
409 1 6.77762 11.088 23.4852
410 1 9.80282 10.8749 23.7515
411 1 9.88825 10.9995 26.6314
12161 2 -0.0643957 3.91129 16.533
413 1 6.94994 13.7336 23.6669
414 1 9.76625 13.6207 23.7174
415 1 9.49892 13.8413 26.4337
416 1 6.91495 13.7975 26.2792
417 1 12.5608 11.0727 23.5897
418 1 12.7067 11.2202 26.2294
419 1 12.675 13.7263 23.4208
420 1 12.4213 13.9575 26.2655
421 1 1.27303 16.7962 23.7468
422 1 4.09533 16.5341 23.5094
423 1 4.03254 16.6289 26.2441
424 1 1.31851 16.4167 26.5625
425 1 1.08557 19.5673 23.8424
426 1 3.85543 19.2561 23.6276
427 1 4.10055 19.4302 26.3768
428 1 1.45154 19.4421 26.6486
429 1 6.95979 16.568 23.7605
430 1 9.81624 16.3953 23.7381
431 1 9.83775 16.5889 26.556
432 1 6.94639 16.5162 26.3451
433 1 6.64632 19.366 23.7882
434 1 9.60603 19.2212 23.4772
435 1 9.80805 19.5083 26.3731
436 1 6.90906 19.2991 26.5878
437 1 12.5476 16.5889 23.5666
438 1 12.6429 16.8626 26.3624
439 1 12.4343 19.3673 23.5961
440 1 12.4715 19.4698 26.3932
441 1 1.33625 22.3012 23.8679
442 1 3.98487 22.1978 23.6249
443 1 4.25845 22.133 26.5072
444 1 1.26495 22.2476 26.5029
445 1 6.87836 22.1484 23.7968
446 1 9.62969 22.1171 23.6697
447 1 9.72147 22.486 26.427
448 1 7.07444 22.0265 26.7352
449 1 12.3058 22.2221 23.5779
450 1 12.6327 22.1448 26.4346
12039 2 11.0872 15.2584 27.7048
12250 2 11.1754 23.6674 25.0357
12159 2 11.2977 -1.62844 16.4324
12016 2 8.48543 6.59021 27.8625
12230 2 11.2207 12.3476 25.0055
12235 2 5.4845 14.9709 22.2353
12249 2 10.9705 20.7106 22.2589
12138 2 8.3403 9.42421 13.8101
12229 2 11.2452 9.43 22.0736
5999 1 12.6099 -0.248236 23.708
12026 2 8.45765 12.357 27.9211
12248 2 5.43606 23.5104 25.1597
15191 2 13.9006 23.5128 16.6619
12204 2 0.0798664 1.18051 25.1297
12035 2 5.50331 14.9806 27.9503
12036 2 8.31873 17.8523 27.924
12228 2 5.7466 12.3094 25.023
12211 2 -0.220114 3.91053 22.0374
12233 2 2.82728 15.153 25.0639
5994 1 9.71478 -0.165111 23.7925
12151 2 -0.160058 -1.69342 16.4985
5986 1 4.21121 -0.267854 23.4433
412 1 7.09049 10.9177 26.2949
15242 2 13.8332 20.7557 24.928
12219 2 11.3791 3.88818 22.07
12247 2 8.25777 20.7621 25.0612
12152 2 2.886 0.987607 16.3902
5993 1 6.98649 -0.377626 23.6487
12246 2 8.32634 23.6278 22.271
12029 2 11.3792 9.52112 27.7538
12156 2 8.25221 1.06094 16.4117
12226 2 8.25461 12.4151 22.2328
12158 2 5.70108 0.989567 19.4649
12223 2 2.79677 9.51568 25.1024
12160 2 11.177 1.09434 19.3554
12245 2 5.43644 20.7948 22.3414
12162 2 2.64468 6.98409 16.5961
12163 2 2.82329 3.79742 19.2523
12164 2 -0.122612 6.68055 19.2425
12165 2 5.68392 3.95468 16.5824
12166 2 8.43495 6.54696 16.7787
12167 2 8.40406 3.88585 19.3499
12168 2 5.43883 6.71926 19.3482
12169 2 11.1398 3.83882 16.6317
12170 2 11.2004 6.65981 19.4133
12243 2 2.69506 20.66 25.0089
12172 2 2.68321 12.2262 16.7091
12173 2 2.66076 9.43528 19.4848
12242 2 2.84572 23.6863 22.324
12175 2 5.67835 9.51979 16.5895
12176 2 8.31463 12.4119 16.5156
12177 2 8.39152 9.53144 19.2734
12178 2 5.44973 12.301 19.3918
12179 2 11.2479 9.57699 16.5443
12180 2 11.1681 12.2285 19.5162
12217 2 8.2649 3.92454 25.0234
12182 2 2.78043 18.0205 16.759
12183 2 2.53765 15.1117 19.3403
12218 2 5.68354 6.63983 25.165
12185 2 5.53445 15.1861 16.5356
12186 2 8.28483 17.9507 16.5056
12187 2 8.28208 14.9654 19.4636
12188 2 5.4463 17.8892 19.4642
12189 2 11.2943 15.1846 16.4733
12190 2 11.1251 17.7417 19.3391
12222 2 2.80116 12.3871 22.2517
12192 2 2.69316 23.6006 16.6026
12193 2 2.69882 20.7745 19.4024
12220 2 11.1942 6.49733 25.077
12195 2 5.4204 20.8439 16.5376
12196 2 8.18412 23.5909 16.6834
12197 2 8.23015 20.7649 19.5318
12198 2 5.49573 23.5561 19.3649
12199 2 11.0518 20.9645 16.5176
12200 2 11.0604 23.4818 19.4555
12240 2 11.1835 17.9412 24.9958
12202 2 2.69387 1.05273 22.2704
12236 2 8.21015 17.656 22.2698
12239 2 11.1328 15.0519 22.2821
12225 2 5.46873 9.38324 22.2745
12206 2 8.57987 1.04068 22.1326
12232 2 2.66708 17.9669 22.1151
12208 2 5.59225 1.01342 24.8398
12227 2 8.55517 9.49113 25.0951
12210 2 11.1875 0.984753 24.9905
12238 2 5.51645 17.9353 25.1318
12212 2 2.58726 6.66679 22.2706
12213 2 2.84831 3.83945 25.1425
12237 2 8.30345 15.1522 25.0586
12215 2 5.64633 3.74073 22.2503
12216 2 8.2792 6.75758 22.2216
12005 2 5.48304 -1.75049 27.7628
15181 2 13.9015 18.0909 16.4368
12205 2 5.51634 -1.71674 22.324
12049 2 11.1485 20.7028 27.9221
12011 2 -0.130351 3.8501 27.7715
12042 2 2.7319 23.5272 27.8663
12221 2 0.0158691 9.59249 22.2981
12234 2 -0.00143305 17.9241 25.1776
15241 2 13.7329 23.6993 22.1729
12201 2 0.0600753 -1.76533 22.2947
12041 2 0.00343506 20.7171 27.8654
12002 2 2.67669 1.02949 28.0485
12015 2 5.43158 3.77492 27.8274
12045 2 5.6039 20.72 28.0504
12214 2 0.0766873 6.69225 25.129
12021 2 -0.0188868 9.46635 27.9701
12006 2 8.36856 1.08737 27.7812
12025 2 5.66637 9.40084 27.7087
12154 2 0.113473 0.901953 19.4082
12031 2 0.134953 14.9919 27.9672
12241 2 -0.0232461 20.8132 22.3872
15231 2 13.8548 17.9762 22.1981
15192 2 13.6882 20.7501 19.5166
12224 2 0.107265 12.3229 25.1087
12032 2 2.73522 17.8577 27.8657
12131 2 2.91305 3.75916 13.8734
451 1 1.27706 25.095 1.0828
452 1 3.96787 24.9447 1.15883
453 1 4.05381 25.1898 4.01642
454 1 1.18532 24.919 3.71071
455 1 6.90024 25.0247 1.14147
456 1 9.77003 24.9442 1.37427
457 1 9.57377 25.077 4.14767
458 1 6.77101 25.0884 3.80974
459 1 12.5255 25.1524 1.16392
460 1 12.3835 25.069 3.92738
461 1 1.17121 27.9357 1.19892
462 1 4.06828 28.0524 1.0646
463 1 4.19048 27.9194 3.97412
464 1 1.29212 28.0036 3.95197
465 1 1.29122 30.6045 1.16661
466 1 4.28444 30.7853 1.44429
467 1 3.94533 30.6027 4.06579
468 1 0.988883 30.826 3.97448
469 1 6.9238 27.7512 1.316
470 1 9.68638 27.8125 1.16007
471 1 9.67839 27.8728 4.06607
472 1 6.95459 27.8603 4.01194
473 1 6.96141 30.612 1.26787
474 1 9.63716 30.8642 1.29504
475 1 9.66206 30.7077 4.1562
476 1 6.69423 30.9882 3.89756
477 1 13.0377 30.7024 0.809409
478 1 12.638 27.8686 3.94114
12366 2 8.24831 26.4759 13.9612
480 1 12.5089 30.6696 3.55526
481 1 1.23019 33.3948 1.28975
482 1 4.01145 33.6246 1.48159
483 1 3.95188 33.7897 4.06863
484 1 1.00227 33.6859 4.04045
485 2 2.45629 34.8594 2.50483
486 1 4.07577 36.2216 1.25241
487 1 3.74471 36.4195 3.94842
488 1 1.15055 36.3408 3.79037
489 1 6.90255 33.4653 1.07793
490 1 9.5943 33.6666 1.29385
491 1 9.55762 33.3614 3.98927
492 1 6.68478 33.7187 4.19039
493 1 7.00244 36.435 1.08468
494 1 9.8818 36.4554 1.40665
495 1 9.50893 36.2518 4.18261
496 1 6.72217 36.4558 4.04131
497 1 12.4077 33.467 1.38427
498 1 12.2756 33.6945 4.00483
499 1 12.4499 36.6106 1.35134
500 1 12.543 36.3636 4.2707
501 1 1.14442 36.1644 1.19265
502 1 4.05759 39.3028 1.16869
503 1 4.16482 39.2105 3.80559
504 1 1.37623 39.2941 3.87688
505 1 1.3154 39.2139 1.08032
506 1 4.13449 42.0896 1.22151
507 1 4.22317 41.985 3.96922
508 1 1.44001 41.9986 3.94833
509 1 6.82733 39.172 1.19035
510 1 9.73572 39.288 1.10329
511 1 9.86247 39.2311 3.93748
512 1 7.05111 39.1763 3.97846
513 1 6.93726 42.0843 1.34913
514 1 9.93367 41.9446 1.11493
515 1 9.88917 41.9071 4.02945
516 1 6.95722 41.9949 3.99045
517 1 12.6746 39.2652 1.29914
518 1 12.7416 39.0522 4.33312
519 1 12.57 42.0776 1.18139
520 1 12.642 41.9252 3.88276
521 1 1.32934 42.0335 1.15154
522 1 1.27102 44.915 1.20324
523 1 4.21094 44.9452 4.13251
524 1 1.6117 44.9277 3.96834
525 1 1.25219 47.6885 1.43221
526 1 4.11618 44.9046 1.21192
527 1 4.22234 47.5181 4.12224
528 1 1.47505 47.4484 4.1753
529 1 6.85724 44.821 1.13319
530 1 9.67659 44.609 1.3443
531 1 9.96481 44.5426 4.0439
532 1 6.83625 44.7006 3.9844
533 1 6.98214 47.6414 1.22715
534 1 9.77611 47.5694 1.30847
535 1 9.68792 47.5109 4.08169
536 1 6.92376 47.4172 4.2051
537 1 12.6073 44.844 1.29925
538 1 12.6414 44.7138 4.21757
539 1 12.5951 47.5709 1.09538
540 1 12.6171 47.4128 4.03729
541 1 1.25476 25.0107 6.78901
542 1 4.01954 25.1437 6.92788
543 1 4.31204 25.1113 9.70174
544 1 1.34109 25.1749 9.6131
545 1 6.85762 25.1691 6.89065
546 1 9.88721 25.1227 6.91309
547 1 9.57961 25.08 9.63339
548 1 7.05686 25.019 9.66453
549 1 12.4972 27.8029 6.68378
550 1 12.4907 25.0269 9.33362
551 1 1.38901 27.972 6.73363
552 1 4.15515 27.8102 6.80806
553 1 4.27174 27.8931 9.81173
554 1 1.38831 28.0028 9.87492
555 1 1.43798 30.8749 6.57575
556 1 4.25897 30.6718 6.966
557 1 4.03536 30.8094 9.76226
558 1 1.25344 30.7457 9.5649
559 1 6.78644 27.9365 6.87186
560 1 9.62811 27.8741 6.71805
561 1 9.86691 27.8747 9.49182
562 1 6.83142 27.8481 9.55242
563 1 6.7553 30.7433 6.68179
564 1 9.55569 30.6506 6.92859
565 1 9.58008 30.6853 9.89473
566 1 6.82631 30.8577 9.65678
15262 2 13.8176 32.4054 2.97406
568 1 12.4481 27.7925 9.44299
569 1 12.1651 30.5739 6.72041
570 1 12.4168 30.5041 9.65023
571 1 1.24768 33.6003 6.92695
572 1 4.22941 33.6336 6.80499
573 1 4.06003 33.5456 9.39307
574 1 1.36541 33.5022 9.54635
575 1 1.18544 36.3568 6.70192
576 1 4.02769 36.3835 6.81652
577 1 4.04814 36.4009 9.59985
578 1 1.18862 36.2379 9.32556
579 1 6.89804 33.6346 6.90132
580 1 9.5379 33.3293 6.90738
581 1 9.62082 33.435 9.64564
582 1 6.85532 33.666 9.70799
583 1 6.88524 36.4884 6.90741
584 1 9.65563 36.3544 7.09683
585 1 9.61681 36.4733 9.65899
586 1 6.86359 36.4671 9.69592
587 1 12.524 33.6096 6.82157
588 1 12.4672 33.5471 9.59318
589 1 12.5872 36.4168 7.0085
590 1 12.5882 36.2271 9.55246
591 1 1.17942 39.2758 6.79748
592 1 4.00746 39.0133 6.62331
593 1 3.98975 39.0999 9.62525
594 1 1.12667 39.0428 9.52214
595 1 1.32531 42.0624 6.9094
596 1 4.23192 41.8022 6.71416
597 1 4.13055 41.7716 9.52191
598 1 1.32441 42.0311 9.68608
599 1 6.97255 39.2454 6.79721
600 1 9.651 39.0436 6.66133
601 1 9.50503 39.2078 9.63903
602 1 6.73531 39.2662 9.7581
603 1 6.98497 42.0057 6.81
604 1 9.88438 41.847 6.75995
605 1 9.90464 42.0046 9.73973
606 1 7.04632 42.045 9.59183
607 1 12.5628 39.2697 6.87711
608 1 12.3803 39.2275 9.70378
609 1 12.7647 42.1778 6.67344
610 1 12.6557 41.9623 9.588
611 1 1.31478 44.7827 6.81752
612 1 4.0952 44.6002 7.06428
613 1 4.15626 44.6901 9.7727
614 1 1.18919 44.8409 9.67762
615 1 1.27601 47.5616 7.09996
616 1 4.18033 47.5203 6.92359
617 1 4.09648 47.8001 9.75881
618 1 1.14904 47.5859 9.87837
619 1 6.87237 44.7604 6.88657
620 1 9.62608 44.5065 6.72949
621 1 9.7395 44.755 9.63771
622 1 6.9447 44.8053 9.70011
623 1 6.91261 47.4128 7.10852
624 1 9.53492 47.6594 6.77453
625 1 9.64504 47.4289 9.6153
626 1 6.75885 47.4836 10.0251
627 1 12.448 44.8969 6.91131
628 1 12.4877 44.8339 9.59236
629 1 12.412 47.7901 6.86982
630 1 12.5549 47.6331 9.71663
631 1 1.34685 25.1746 12.3088
632 1 4.07069 25.1835 12.3465
633 1 6.79197 25.2349 12.6158
634 1 9.83194 25.13 12.4769
635 1 12.7201 25.176 12.2183
636 1 1.08501 28.0529 12.5464
637 1 3.95621 28.1159 12.5476
638 1 1.26923 30.6023 12.4184
639 1 3.90999 30.9958 12.5912
640 1 6.91545 27.994 12.6803
641 1 9.8066 27.9747 12.2562
642 1 6.90019 30.8204 12.4393
643 1 9.74266 30.8612 12.4737
644 1 12.7738 27.9524 12.3935
645 1 12.5338 30.7029 12.4181
646 1 1.36105 33.5126 12.4826
647 1 4.15372 33.6024 12.3889
648 1 1.218 36.3273 12.3484
649 1 3.96863 36.4042 12.3833
650 1 6.90785 33.4323 12.6294
651 1 9.63536 33.5475 12.5751
652 1 6.78109 36.4455 12.5318
653 1 9.80639 36.1545 12.5685
654 1 12.4508 33.3886 12.3228
655 1 12.7185 36.2643 12.3276
656 1 1.04375 39.1245 12.3576
657 1 3.95861 39.1684 12.4502
658 1 1.28192 41.9066 12.4907
659 1 4.12854 41.8753 12.4256
660 1 6.90805 39.1553 12.4291
661 1 9.68814 39.1236 12.6139
662 1 6.78609 41.7615 12.3006
663 1 9.87518 41.7707 12.4603
664 1 12.5067 39.1374 12.5436
665 1 12.6432 42.014 12.1472
666 1 1.2895 44.617 12.7633
667 1 4.01028 44.7235 12.3738
668 1 1.44915 47.5557 12.7115
669 1 4.12667 47.5251 12.5609
670 1 6.78292 44.4946 12.5222
671 1 9.68863 44.7242 12.4512
672 1 7.08999 47.5781 12.6578
673 1 9.87394 47.4206 12.4254
674 1 12.4954 44.7767 12.4654
675 1 12.7513 47.6234 12.7397
12363 2 11.2007 48.9438 11.0956
12326 2 -0.0403304 43.3764 5.5035
12253 2 2.64714 26.4643 2.46405
12362 2 5.5041 49.0245 11.2732
12369 2 2.66568 32.1656 13.9111
12375 2 -0.138665 40.4039 13.9026
12257 2 8.23939 26.4154 2.61169
12258 2 5.58904 29.3622 2.69159
12374 2 2.5758 37.7695 13.8663
12260 2 10.7742 29.2516 2.67035
12360 2 11.1636 43.3844 11.0074
902 1 4.27311 47.7109 1.22838
12263 2 2.68267 31.6802 2.63791
12359 2 8.34265 46.1477 11.2621
1011 1 9.77572 50.1892 9.61186
12381 2 8.46259 43.3433 13.8307
12267 2 8.37135 32.0945 2.57899
12268 2 5.72831 35.0225 2.65082
12345 2 11.1368 26.4173 10.8388
12270 2 10.9792 34.9445 2.67699
12358 2 5.54021 43.13 10.9773
12344 2 8.16332 29.2421 11.0921
12273 2 2.77491 38.0941 2.52764
12357 2 2.70435 46.3004 11.0904
12343 2 5.49346 26.4987 11.2051
12286 2 8.39093 46.2234 -0.144351
12277 2 8.35634 37.9177 2.56941
12278 2 5.53801 40.677 2.54333
12383 2 11.3172 46.1869 13.9857
12280 2 11.2776 40.5947 2.55652
12355 2 10.9826 37.6645 10.962
1009 1 7.00662 50.0576 6.75175
12283 2 2.78883 43.4219 2.59595
12354 2 8.19875 40.5555 11.1567
12342 2 2.6513 29.3874 11.209
176 1 12.388 24.9549 6.63022
12287 2 8.4081 43.3351 2.64717
12288 2 5.5576 46.2617 2.65842
6451 1 12.2189 28.2092 1.18354
12290 2 11.0939 46.0198 2.58118
12353 2 5.31922 37.7656 11.0029
12292 2 2.58013 48.9758 2.84212
12377 2 5.56484 40.5437 13.7878
12294 2 8.3843 48.9446 2.57879
12339 2 8.38201 48.8615 8.33228
15341 2 13.6827 29.2278 10.823
12297 2 2.60797 29.1884 5.37551
12298 2 2.71861 26.5037 8.45539
12340 2 11.1232 48.9717 5.5606
12300 2 5.59809 26.3952 5.49278
12301 2 8.13241 29.3029 5.47365
12302 2 8.27029 26.4332 8.16424
12303 2 5.60057 29.1945 8.17568
12304 2 10.9989 26.344 5.34726
12305 2 11.1248 29.2559 8.10517
12352 2 2.66026 40.5904 11.0209
12307 2 2.65531 35.0162 5.60884