LAMMPS (29 Oct 2020)
OMP_NUM_THREADS environment is not set. Defaulting to 1 thread. (../comm.cpp:94)
  using 1 OpenMP thread(s) per MPI task
OMP_NUM_THREADS environment is not set. Defaulting to 1 thread. (../comm.cpp:94)
  using 1 OpenMP thread(s) per MPI task
Reading data file ...
  orthogonal box = (-0.35643069 -4.3093200 -0.35430999) to (27.696431 332.38932 27.694310)
  2 by 13 by 2 MPI processor grid
  reading atoms ...
  17820 atoms
  reading velocities ...
  17820 velocities
Finding 1-2 1-3 1-4 neighbors ...
  special bond factors lj:    0.0      0.0      0.0     
  special bond factors coul:  0.0      0.0      0.0     
     0 = max # of 1-2 neighbors
     0 = max # of 1-3 neighbors
     0 = max # of 1-4 neighbors
     1 = max # of special neighbors
  special bonds CPU = 0.003 seconds
  read_data CPU = 0.067 seconds
Setting atom values ...
  11880 settings made for charge
Setting atom values ...
  5940 settings made for charge
PPPM initialization ...
  using 12-bit tables for long-range coulomb (../kspace.cpp:328)
  G vector (1/distance) = 0.29883878
  grid = 40 240 40
  stencil order = 5
  estimated absolute RMS force accuracy = 0.00015686032
  estimated relative force accuracy = 1.0893346e-05
  using single precision MKL FFT
  3d grid and FFT values/proc = 15000 7600
Neighbor list info ...
  update every 1 steps, delay 0 steps, check yes
  max neighbors/atom: 2000, page size: 100000
  master list distance cutoff = 11.3
  ghost atom cutoff = 11.3
  binsize = 5.65, bins = 5 60 5
  2 neighbor lists, perpetual/occasional/extra = 2 0 0
  (1) pair coul/long, perpetual
      attributes: half, newton on
      pair build: half/bin/newton
      stencil: half/bin/3d/newton
      bin: standard
  (2) pair eam/alloy, perpetual, copy from (1)
      attributes: half, newton on
      pair build: copy
      stencil: none
      bin: none
Setting up Verlet run ...
  Unit style    : metal
  Current step  : 0
  Time step     : 0.001
Per MPI rank memory allocation (min/avg/max) = 8.143 | 8.181 | 8.199 Mbytes
Step Temp E_pair E_mol TotEng Press 
       0          600   -233021.79            0   -231639.81   -371.32787 
  100000     604.5132   -233024.05            0   -231631.68    -491.2595 
Loop time of 607.242 on 52 procs for 100000 steps with 17820 atoms

Performance: 14.228 ns/day, 1.687 hours/ns, 164.679 timesteps/s
99.8% CPU use with 52 MPI tasks x 1 OpenMP threads

MPI task timing breakdown:
Section |  min time  |  avg time  |  max time  |%varavg| %total
---------------------------------------------------------------
Pair    | 383.46     | 411.61     | 425.62     |  38.3 | 67.78
Bond    | 0.0061864  | 0.0093546  | 0.013471   |   1.9 |  0.00
Kspace  | 127.58     | 142.8      | 175.81     |  78.6 | 23.52
Neigh   | 25.845     | 33.571     | 36.643     |  39.0 |  5.53
Comm    | 13.845     | 14.921     | 16.998     |  23.4 |  2.46
Output  | 6.427e-05  | 6.9643e-05 | 0.00027705 |   0.0 |  0.00
Modify  | 1.718      | 3.0715     | 4.9831     |  61.1 |  0.51
Other   |            | 1.267      |            |       |  0.21

Nlocal:        342.692 ave         373 max         302 min
Histogram: 3 1 0 2 11 13 8 6 5 3
Nghost:        4137.40 ave        4272 max        3827 min
Histogram: 4 0 4 0 0 0 15 9 8 12
Neighs:        68772.1 ave       75235 max       52876 min
Histogram: 2 0 1 0 1 3 14 15 11 5

Total # of neighbors = 3576151
Ave neighs/atom = 200.68187
Ave special neighs/atom = 0.0000000
Neighbor list builds = 16213
Dangerous builds = 0
11880 atoms in group oxygen
PPPM initialization ...
  using 12-bit tables for long-range coulomb (../kspace.cpp:328)
  G vector (1/distance) = 0.29883878
  grid = 40 240 40
  stencil order = 5
  estimated absolute RMS force accuracy = 0.00015686032
  estimated relative force accuracy = 1.0893346e-05
  using single precision MKL FFT
  3d grid and FFT values/proc = 15000 7600
Setting up Verlet run ...
  Unit style    : metal
  Current step  : 0
  Time step     : 0.001
Per MPI rank memory allocation (min/avg/max) = 8.394 | 8.432 | 8.449 Mbytes
Step f_2 Temp v_Tdiff v_deltaT 
       0            0     604.5132            0            0 
  100000    714.76631    603.02203  0.017442951    202.51104 
  200000    1408.1863    605.12276  0.019317892    224.27894 
  300000    2107.6672    601.07141  0.018234672    211.70285 
  400000    2804.1559    602.79235  0.019069459    221.39465 
  500000    3500.9751    606.74781  0.018748448    217.66774 
  600000    4200.1059    602.74243  0.018530999    215.14318 
  700000    4903.6667    602.18846  0.018501224    214.79749 
  800000    5601.3031    605.32811  0.018869529    219.07348 
  900000    6296.5922    603.79306  0.019362476    224.79655 
 1000000    6997.6366    602.71107  0.017865039    207.41145 
Loop time of 6072.8 on 52 procs for 1000000 steps with 17820 atoms

Performance: 14.227 ns/day, 1.687 hours/ns, 164.669 timesteps/s
99.9% CPU use with 52 MPI tasks x 1 OpenMP threads

MPI task timing breakdown:
Section |  min time  |  avg time  |  max time  |%varavg| %total
---------------------------------------------------------------
Pair    | 3852.7     | 4107.1     | 4262.6     | 117.1 | 67.63
Bond    | 0.064255   | 0.093512   | 0.13411    |   5.6 |  0.00
Kspace  | 1265.6     | 1436.9     | 1743.2     | 235.8 | 23.66
Neigh   | 266.17     | 343.94     | 377.32     | 119.5 |  5.66
Comm    | 139.54     | 149.66     | 170.87     |  70.3 |  2.46
Output  | 0.0010455  | 0.0011367  | 0.0023168  |   0.5 |  0.00
Modify  | 5.4561     | 5.8893     | 6.3692     |  10.2 |  0.10
Other   |            | 29.13      |            |       |  0.48

Nlocal:        342.692 ave         369 max         298 min
Histogram: 1 2 1 0 2 18 10 6 8 4
Nghost:        4156.12 ave        4302 max        3830 min
Histogram: 4 0 4 0 0 4 8 7 15 10
Neighs:        68773.0 ave       74778 max       53817 min
Histogram: 2 1 0 1 0 2 14 16 10 6

Total # of neighbors = 3576198
Ave neighs/atom = 200.68451
Ave special neighs/atom = 0.0000000
Neighbor list builds = 166204
Dangerous builds = 0
Total wall time: 1:51:20
