ITEM: TIMESTEP
40000
ITEM: NUMBER OF ATOMS
18000
ITEM: BOX BOUNDS pp pp pp
-3.9824334647625603e-01 2.7738243346475738e+01
-4.7240789584875245e+00 3.3280407895848413e+02
-3.9915087153380635e-01 2.7739150871533973e+01
ITEM: ATOMS id type q x y z
1 2 2.2208 5.01302 0.888753 5.17267
3 1 -1.1104 1.15441 -3.04643 1.09083
15 1 -1.1104 0.857671 -3.12317 3.92478
21 2 2.2208 5.17679 -1.90777 2.31316
23 1 -1.1104 0.896042 -0.323588 1.22712
31 1 -1.1104 0.981883 -0.647545 4.00141
35 2 2.2208 2.41145 0.885217 2.53216
37 1 -1.1104 3.95244 -2.98148 0.846345
43 1 -1.1104 3.744 -3.31595 3.80021
46 2 2.2208 2.42689 -1.91305 5.25517
48 1 -1.1104 3.67368 -0.292113 0.892823
52 1 -1.1104 3.86826 -0.621777 3.79269
2 2 2.2208 5.28392 6.44535 5.34075
5 1 -1.1104 0.778566 2.37152 0.963101
7 1 -1.1104 0.958502 8.02723 1.20646
16 1 -1.1104 1.0569 2.21464 3.86579
22 2 2.2208 5.14301 3.72664 2.36556
25 1 -1.1104 0.922455 5.06994 0.996543
32 1 -1.1104 0.931588 5.31819 3.91364
36 2 2.2208 2.35077 6.75898 2.5308
39 1 -1.1104 3.92322 2.43048 0.916684
41 1 -1.1104 3.84792 7.93254 0.839223
44 1 -1.1104 3.60465 2.28579 3.83854
45 1 -1.1104 3.75085 8.20468 3.7082
47 2 2.2208 2.4276 3.80045 5.2764
50 1 -1.1104 3.54263 5.15941 0.924375
53 1 -1.1104 3.63825 5.30886 3.93601
17 1 -1.1104 0.899018 8.1244 3.97479
6 1 -1.1104 0.90105 2.40964 6.58467
4 1 -1.1104 1.19721 -3.11621 6.70337
49 1 -1.1104 3.72867 -0.493082 6.54821
26 1 -1.1104 1.10725 5.17056 6.58424
51 1 -1.1104 3.73464 5.16825 6.80666
111 2 2.2208 13.428 0.801928 2.48715
14 1 -1.1104 6.51897 7.8778 6.75765
24 1 -1.1104 0.793498 -0.341592 6.69824
11 1 -1.1104 6.56559 2.40333 1.00243
18 1 -1.1104 6.51955 -3.42163 3.75909
161 2 2.2208 2.26795 0.884504 13.7007
13 1 -1.1104 6.76918 8.24584 1.22416
66 2 2.2208 2.26603 -4.6371 2.34533
65 2 2.2208 5.18681 -4.72129 5.04308
169 2 2.2208 5.16656 -4.55837 10.8422
212 2 2.2208 7.88909 -4.75203 8.03561
112 2 2.2208 13.6358 6.48708 2.44974
159 2 2.2208 5.12821 -1.76937 13.7338
33 1 -1.1104 6.52349 -0.607775 3.92176
27 1 -1.1104 6.40627 -0.547005 1.05123
28 1 -1.1104 6.45478 -0.242067 6.77997
9 1 -1.1104 6.54655 -3.46506 0.868154
34 1 -1.1104 6.51226 5.01141 3.80977
29 1 -1.1104 6.45651 5.10202 1.01495
114 2 2.2208 13.4779 3.75851 5.15843
19 1 -1.1104 6.26981 2.31352 3.65304
74 1 -1.1104 12.2326 2.25486 6.86212
69 2 2.2208 10.7568 0.806769 5.15231
71 1 -1.1104 12.1653 -3.34154 0.902187
77 1 -1.1104 12.0509 -3.26308 3.7232
80 2 2.2208 10.5401 -1.86147 2.37493
82 1 -1.1104 12.2097 -0.610262 1.0362
86 1 -1.1104 12.0973 -0.48752 3.83036
88 2 2.2208 7.92117 0.84529 2.28943
90 1 -1.1104 9.41832 -3.37374 1.03229
96 1 -1.1104 9.17682 -3.35204 3.74076
99 2 2.2208 7.90573 -1.88579 5.16942
101 1 -1.1104 9.44427 -0.532994 0.896205
105 1 -1.1104 9.15615 -0.508578 3.6111
70 2 2.2208 10.7396 6.50866 5.10393
73 1 -1.1104 12.2718 2.23476 1.06812
75 1 -1.1104 12.2943 7.84327 1.05961
78 1 -1.1104 11.9534 2.24292 3.84042
79 1 -1.1104 12.0871 7.71972 3.66691
81 2 2.2208 10.7286 3.76789 2.52225
84 1 -1.1104 12.1255 5.01036 1.03224
87 1 -1.1104 12.0619 4.96376 3.75735
89 2 2.2208 7.87872 6.48177 2.46515
92 1 -1.1104 9.42755 2.07893 0.920944
94 1 -1.1104 9.47292 7.96522 1.06907
97 1 -1.1104 9.14835 2.3594 3.85423
100 2 2.2208 7.98851 3.59518 5.19103
103 1 -1.1104 9.49519 4.99225 0.934912
106 1 -1.1104 9.15101 4.96701 3.74664
98 1 -1.1104 9.30193 7.92954 3.75917
76 1 -1.1104 12.1525 8.11441 6.55994
93 1 -1.1104 9.4119 2.42056 6.77746
102 1 -1.1104 9.31907 -0.518361 6.4146
91 1 -1.1104 9.37347 -3.16894 6.55105
104 1 -1.1104 9.3595 5.38724 6.516
72 1 -1.1104 11.9917 -3.23875 6.52523
178 2 2.2208 7.96268 0.878321 8.09386
184 1 -1.1104 12.3248 -0.4601 9.50116
38 1 -1.1104 3.85113 -3.19387 6.70597
40 1 -1.1104 3.75786 2.29773 6.74663
63 2 2.2208 -0.469105 6.66718 -0.330966
42 1 -1.1104 3.77183 7.96007 6.74257
181 1 -1.1104 12.1013 7.92706 12.3294
134 1 -1.1104 6.57997 2.35482 9.44089
30 1 -1.1104 6.39804 5.00628 6.61238
12 1 -1.1104 6.58784 2.41497 6.59633
144 1 -1.1104 6.66295 -0.387485 9.53902
122 2 2.2208 5.14015 1.08799 11.018
124 1 -1.1104 0.991539 -3.18228 12.2825
130 1 -1.1104 0.8619 -3.1734 9.42825
136 2 2.2208 5.14403 -1.63774 8.04701
138 1 -1.1104 1.04271 -0.485888 12.3722
142 1 -1.1104 1.06222 -0.534424 9.55365
146 2 2.2208 2.30588 0.994646 8.14193
148 1 -1.1104 3.75915 -3.13581 12.3184
151 1 -1.1104 3.81314 -3.03001 9.61504
154 2 2.2208 2.39847 -1.81777 10.9668
156 1 -1.1104 3.88497 -0.210007 12.359
158 1 -1.1104 3.73415 -0.234061 9.42046
126 1 -1.1104 0.895757 7.89919 12.4255
121 1 -1.1104 3.80435 5.30827 9.72494
123 2 2.2208 5.15798 6.58893 10.8294
125 1 -1.1104 0.883612 2.17384 12.3585
131 1 -1.1104 0.945078 2.39324 9.4408
137 2 2.2208 4.95612 3.75244 8.17202
139 1 -1.1104 0.97101 5.18779 12.2763
143 1 -1.1104 0.833957 5.18195 9.48074
147 2 2.2208 2.30105 6.7136 7.95211
149 1 -1.1104 3.64593 2.44613 12.2409
152 1 -1.1104 3.63035 2.47669 9.47003
155 2 2.2208 2.26233 3.7469 10.9395
157 1 -1.1104 3.71104 5.18434 12.5672
150 1 -1.1104 3.57806 8.0607 12.2873
132 1 -1.1104 1.06054 7.81711 9.49871
153 1 -1.1104 3.85281 8.05211 9.37946
170 2 2.2208 -0.455637 -4.52447 10.8717
197 1 -1.1104 9.50437 -3.33024 12.2466
193 1 -1.1104 9.44345 -3.33784 9.46553
174 1 -1.1104 9.24168 5.03614 12.0963
168 2 2.2208 2.36206 -4.65896 8.01669
207 2 2.2208 13.6051 6.7082 7.91497
118 2 2.2208 7.89004 -4.90553 2.38756
177 2 2.2208 8.09943 -1.91244 10.8802
8 1 -1.1104 0.913926 8.07687 6.71709
180 1 -1.1104 12.1479 -3.37123 9.32657
10 1 -1.1104 6.45251 -3.077 6.62799
85 1 -1.1104 12.1465 5.19556 6.45458
95 1 -1.1104 9.47744 8.02927 6.43725
83 1 -1.1104 12.2535 -0.380225 6.58777
127 1 -1.1104 6.47467 -3.24461 12.2885
188 1 -1.1104 12.1642 -0.553331 12.3243
141 1 -1.1104 6.46507 5.33259 12.2324
129 1 -1.1104 6.50821 8.07413 12.2568
145 1 -1.1104 6.36971 5.05054 9.38025
175 1 -1.1104 9.39062 -0.696436 12.118
135 1 -1.1104 6.62576 7.97514 9.54465
140 1 -1.1104 6.72441 -0.297904 12.4057
173 1 -1.1104 9.47852 -0.460134 9.30012
194 1 -1.1104 9.35996 7.99449 12.0889
183 1 -1.1104 9.3667 2.40555 9.55085
195 1 -1.1104 9.23594 2.09298 12.4183
176 2 2.2208 7.85458 3.77216 10.7525
192 1 -1.1104 12.1266 2.4041 9.63479
191 2 2.2208 10.874 3.64098 8.15713
189 2 2.2208 10.7309 6.43082 10.6829
182 1 -1.1104 9.34841 8.06976 9.2495
179 1 -1.1104 12.206 5.09035 9.33817
128 1 -1.1104 6.43588 2.39257 12.3373
133 1 -1.1104 6.60408 -3.23312 9.56999
187 1 -1.1104 12.0178 5.20062 12.261
172 1 -1.1104 9.20707 5.17661 9.32056
185 1 -1.1104 12.0904 2.36027 12.3075
198 2 2.2208 7.99111 6.55555 8.00743
196 2 2.2208 10.8596 -1.8828 8.03778
190 2 2.2208 10.7952 0.760444 10.8151
186 1 -1.1104 12.2539 -3.37621 12.2211
199 1 -1.1104 12.2655 7.88711 9.48945
110 2 2.2208 10.8825 0.921746 -0.468152
56 2 2.2208 5.11718 6.57264 -0.581227
115 2 2.2208 13.6087 -1.90899 -0.454391
113 2 2.2208 13.4757 -2.0271 5.18834
206 2 2.2208 13.6059 0.929187 8.01999
209 2 2.2208 13.5355 3.76777 10.9014
210 2 2.2208 10.88 -4.74388 10.6376
205 2 2.2208 13.5822 0.946147 13.681
252 2 2.2208 2.28411 -4.55363 13.6788
213 2 2.2208 8.00298 -4.63362 13.6254
162 2 2.2208 2.3958 6.5679 13.7135
203 2 2.2208 7.88663 6.42416 13.4738
202 2 2.2208 10.7477 3.70031 13.6142
201 2 2.2208 7.95338 1.01895 13.8154
214 2 2.2208 5.1021 0.923102 16.4716
216 1 -1.1104 1.00409 -3.26248 17.9743
222 1 -1.1104 0.901278 -3.18773 15.0992
228 2 2.2208 5.00037 -2.00887 19.2297
230 1 -1.1104 0.848989 -0.40567 17.8839
234 1 -1.1104 0.823901 -0.465233 14.9127
238 2 2.2208 2.2054 0.984042 19.3438
240 1 -1.1104 3.75306 -3.37226 17.7465
243 1 -1.1104 3.75665 -3.23157 15.0596
246 2 2.2208 2.25443 -1.71207 16.4813
248 1 -1.1104 3.65213 -0.549914 17.7358
250 1 -1.1104 3.67429 -0.440521 15.0261
215 2 2.2208 5.24279 6.62087 16.4649
217 1 -1.1104 0.843765 2.28833 17.9239
218 1 -1.1104 0.893331 8.12254 17.8385
223 1 -1.1104 0.935108 2.24186 15.0088
229 2 2.2208 5.0702 3.74465 19.1833
231 1 -1.1104 1.00099 5.31167 17.8816
235 1 -1.1104 0.891947 5.23182 14.9447
239 2 2.2208 2.39859 6.61363 19.2698
241 1 -1.1104 3.61819 2.21921 18.0015
242 1 -1.1104 3.74042 7.8559 17.7946
244 1 -1.1104 3.61457 2.29932 15.2605
247 2 2.2208 2.27779 3.75846 16.4741
249 1 -1.1104 3.80078 5.16746 17.7249
251 1 -1.1104 3.84004 5.21248 15.2088
245 1 -1.1104 3.75717 8.10511 14.9863
224 1 -1.1104 0.994619 8.04673 15.0614
300 1 -1.1104 0.916165 -0.473663 20.6173
304 1 -1.1104 3.68774 -3.23993 20.6677
305 1 -1.1104 3.78447 2.49866 20.8368
295 1 -1.1104 0.808672 2.63868 20.8212
306 1 -1.1104 3.83975 8.06189 20.4035
307 1 -1.1104 3.81695 -0.380727 20.495
257 2 2.2208 2.40855 -4.64177 19.4836
54 2 2.2208 2.31711 3.73664 27.9328
9617 2 2.2208 13.6678 -4.78377 19.2961
109 2 2.2208 10.8356 6.52876 27.769
296 1 -1.1104 0.952241 7.9843 20.5868
108 2 2.2208 7.94067 -2.10777 27.5706
291 2 2.2208 7.9616 -4.6451 19.1944
389 1 -1.1104 9.39475 2.21134 23.458
353 2 2.2208 2.27898 -4.69475 24.8667
397 2 2.2208 7.91853 -4.90159 24.8483
233 1 -1.1104 6.60631 5.08321 17.8646
237 1 -1.1104 6.42499 5.04997 14.9688
227 1 -1.1104 6.48327 8.06782 15.0402
225 1 -1.1104 6.65641 -3.19869 15.3046
221 1 -1.1104 6.48164 7.84238 17.8961
219 1 -1.1104 6.46568 -3.25284 17.9126
232 1 -1.1104 6.49233 -0.391579 17.9847
298 1 -1.1104 6.64483 2.48416 20.7068
303 1 -1.1104 6.40258 5.22774 20.6038
220 1 -1.1104 6.54218 2.20338 17.995
226 1 -1.1104 6.58384 2.34675 15.2583
236 1 -1.1104 6.4199 -0.370246 15.2012
371 1 -1.1104 12.1666 7.88702 20.5836
260 2 2.2208 10.6475 0.845514 16.531
262 1 -1.1104 12.2212 -3.42411 17.9411
265 1 -1.1104 12.2505 -3.21426 15.0588
268 2 2.2208 10.8625 -1.91063 19.2695
270 1 -1.1104 12.1987 -0.56529 17.851
272 1 -1.1104 12.1183 -0.469363 15.0576
274 2 2.2208 7.99011 1.08115 19.3375
276 1 -1.1104 9.4327 -3.26484 17.8253
279 1 -1.1104 9.33005 -3.11386 15.134
282 2 2.2208 7.868 -1.75129 16.5844
284 1 -1.1104 9.29004 -0.483807 17.95
286 1 -1.1104 9.38696 -0.406728 15.1361
380 1 -1.1104 9.40585 -3.13088 20.5392
261 2 2.2208 10.7016 6.41626 16.4116
263 1 -1.1104 12.113 2.17917 17.9169
264 1 -1.1104 12.1219 7.84799 17.762
266 1 -1.1104 12.2026 2.33469 15.1279
267 1 -1.1104 11.9691 7.86335 15.0684
269 2 2.2208 10.6471 3.83071 19.2893
271 1 -1.1104 12.1025 5.04808 18.0175
273 1 -1.1104 12.0311 5.03778 15.1244
275 2 2.2208 7.98876 6.6205 19.2972
277 1 -1.1104 9.38559 2.39791 17.7967
278 1 -1.1104 9.30006 7.9593 17.9167
280 1 -1.1104 9.36172 2.50876 15.1295
281 1 -1.1104 9.21674 7.92788 14.8122
283 2 2.2208 8.03728 3.70186 16.5363
285 1 -1.1104 9.20217 5.24081 17.7956
287 1 -1.1104 9.29057 5.05658 15.0179
374 1 -1.1104 12.1857 -0.647423 20.6668
370 1 -1.1104 11.9514 2.35937 20.7626
375 1 -1.1104 12.2032 5.17485 20.775
381 1 -1.1104 9.33912 2.60206 20.7151
383 1 -1.1104 9.27505 -0.39245 20.6587
384 1 -1.1104 9.43273 5.47917 20.7972
382 1 -1.1104 9.21637 8.1156 20.7013
369 1 -1.1104 12.2997 -3.32822 20.6721
259 2 2.2208 5.18037 -4.66612 16.3679
290 2 2.2208 13.6579 3.60056 16.6248
301 1 -1.1104 0.882042 5.44241 20.8696
308 1 -1.1104 3.56325 5.27838 20.539
350 2 2.2208 -0.616548 1.09549 22.2269
294 1 -1.1104 0.99889 -3.13989 20.657
258 2 2.2208 -0.420706 -4.57097 16.6032
309 2 2.2208 5.17984 1.14542 21.9916
311 1 -1.1104 0.903187 -3.41729 23.6533
317 1 -1.1104 0.801787 -3.08717 26.5379
323 2 2.2208 5.13102 -1.89907 24.8276
325 1 -1.1104 0.735173 -0.593733 23.3197
329 1 -1.1104 0.814478 -0.345573 26.2039
333 2 2.2208 2.32809 1.11482 24.909
335 1 -1.1104 3.68267 -3.23593 23.5032
338 1 -1.1104 3.6208 -3.34057 26.26
341 2 2.2208 2.26516 -1.78512 22.0262
343 1 -1.1104 3.58157 -0.34729 23.3064
345 1 -1.1104 3.6615 -0.354908 26.1435
310 2 2.2208 5.11883 6.67801 22.1547
312 1 -1.1104 0.885996 2.51844 23.5025
313 1 -1.1104 1.10663 8.23468 23.6533
318 1 -1.1104 0.992068 2.56408 26.4026
319 1 -1.1104 0.997528 8.10733 26.5022
324 2 2.2208 5.27731 3.87496 24.8734
326 1 -1.1104 1.07333 5.54014 23.6397
330 1 -1.1104 1.01896 5.48708 26.4148
334 2 2.2208 2.38286 6.87927 24.9853
336 1 -1.1104 3.80754 2.46963 23.5361
337 1 -1.1104 3.80143 8.15418 23.43
339 1 -1.1104 3.6787 2.5027 26.2343
342 2 2.2208 2.47615 3.88735 22.3045
344 1 -1.1104 3.94409 5.38975 23.5392
346 1 -1.1104 3.69834 5.32299 26.2436
340 1 -1.1104 3.74201 8.19566 26.3248
107 2 2.2208 7.94141 3.64472 27.8292
394 2 2.2208 13.5725 -1.87831 22.1076
314 1 -1.1104 6.57892 -3.38212 23.5174
392 2 2.2208 13.4858 0.922713 24.9019
357 2 2.2208 8.14399 6.74319 25.0229
393 2 2.2208 13.6866 6.47462 24.9199
396 2 2.2208 11.0133 -4.64752 22.134
358 1 -1.1104 9.32073 -0.759952 23.4897
372 1 -1.1104 12.1111 -3.3676 26.3596
297 1 -1.1104 6.46688 -3.38677 20.7408
299 1 -1.1104 6.42966 8.10244 20.8228
361 1 -1.1104 9.63471 7.9987 26.3727
376 1 -1.1104 12.0285 5.21571 23.4668
368 1 -1.1104 12.2879 -0.576057 26.2371
321 1 -1.1104 6.54986 2.34735 26.3278
320 1 -1.1104 6.40192 -3.31246 26.2184
355 1 -1.1104 9.47893 -0.46619 26.2232
364 2 2.2208 7.93852 0.788981 24.9004
378 1 -1.1104 12.1877 8.07699 23.3721
302 1 -1.1104 6.51798 -0.416043 20.6617
385 1 -1.1104 9.46322 2.27749 26.3317
373 2 2.2208 10.7343 0.926373 22.1565
379 1 -1.1104 12.283 8.05671 26.376
391 2 2.2208 10.7834 -1.92489 24.8785
316 1 -1.1104 6.46761 8.05742 23.5821
328 1 -1.1104 6.51383 5.17915 23.4039
362 1 -1.1104 12.4195 2.44739 26.447
332 1 -1.1104 6.6727 5.13423 26.3083
322 1 -1.1104 6.66344 7.97899 26.3258
390 1 -1.1104 9.24641 -3.44594 23.4111
365 1 -1.1104 12.265 5.16499 26.3098
386 1 -1.1104 9.40564 -3.42027 26.3063
366 1 -1.1104 12.2161 -3.10928 23.4304
363 1 -1.1104 12.1696 2.29356 23.576
331 1 -1.1104 6.53468 -0.525455 26.2288
327 1 -1.1104 6.51774 -0.359762 23.4449
315 1 -1.1104 6.6917 2.43449 23.5471
359 2 2.2208 7.94745 3.90036 22.1117
356 1 -1.1104 9.38048 5.12395 23.7313
367 2 2.2208 10.9334 6.6579 22.184
387 1 -1.1104 9.23765 8.16236 23.5647
388 2 2.2208 10.7668 3.71781 24.9389
360 2 2.2208 7.91183 -1.96932 22.0081
377 1 -1.1104 12.1232 -0.441958 23.5201
354 1 -1.1104 9.30661 5.07211 26.4486
289 2 2.2208 13.5837 -1.86118 16.5305
9616 2 2.2208 13.5578 6.59588 19.4087
288 2 2.2208 13.5877 0.816228 19.4792
351 2 2.2208 5.18936 -4.61096 22.1248
349 2 2.2208 -0.371933 6.78751 22.1697
55 2 2.2208 2.2823 -1.75683 27.6686
67 2 2.2208 5.16525 -4.79142 27.6048
116 2 2.2208 13.6207 3.8048 27.7961
200 2 2.2208 10.7505 -1.83663 13.6556
57 2 2.2208 5.03428 1.10793 27.6926
160 2 2.2208 5.12145 3.79091 13.7115
398 2 2.2208 5.11895 12.1129 5.28861
400 1 -1.1104 1.09817 13.6475 1.09881
406 1 -1.1104 1.01646 13.6323 3.913
410 2 2.2208 5.24106 9.41517 2.34628
413 1 -1.1104 0.883505 10.8478 1.10431
421 1 -1.1104 1.07853 10.729 3.82435
425 2 2.2208 2.48724 12.3776 2.34347
427 1 -1.1104 3.80041 13.6535 1.01586
430 1 -1.1104 3.93379 13.7909 3.85702
432 2 2.2208 2.40851 9.40794 5.26323
435 1 -1.1104 3.85578 10.8873 1.00368
439 1 -1.1104 3.85257 10.9767 3.55346
399 2 2.2208 5.15854 17.6989 5.26252
402 1 -1.1104 1.00859 19.3047 1.28242
407 1 -1.1104 1.14078 19.3619 3.85175
411 2 2.2208 5.30165 15.0352 2.41239
412 2 2.2208 5.17439 20.6133 2.36681
415 1 -1.1104 1.10218 16.4717 0.988969
422 1 -1.1104 0.973381 16.4281 3.97715
426 2 2.2208 2.41875 17.7581 2.58288
429 1 -1.1104 3.92264 19.2319 1.0702
431 1 -1.1104 3.79243 19.065 3.86992
433 2 2.2208 2.2428 14.9903 5.29469
434 2 2.2208 2.39523 20.5994 5.18057
437 1 -1.1104 3.88487 16.378 1.10685
440 1 -1.1104 3.78678 16.3078 3.86367
438 1 -1.1104 3.79019 16.3318 6.6733
498 1 -1.1104 3.9463 19.1992 6.57927
416 1 -1.1104 0.937928 16.5139 6.58975
419 1 -1.1104 6.74196 16.438 0.896955
436 1 -1.1104 3.76768 10.8763 6.53637
401 1 -1.1104 1.00307 13.6227 6.77123
534 2 2.2208 5.27116 14.9709 13.5934
559 2 2.2208 10.8779 15.1814 8.10046
497 1 -1.1104 6.68903 19.1696 6.81226
409 1 -1.1104 6.58359 19.2539 3.74454
428 1 -1.1104 3.62501 13.5833 6.58542
414 1 -1.1104 1.0464 10.9262 6.56271
545 2 2.2208 -0.340079 20.6232 13.6852
488 2 2.2208 10.8604 17.7653 -0.448045
424 1 -1.1104 6.74765 16.2015 3.79468
420 1 -1.1104 6.40891 16.4806 6.57524
423 1 -1.1104 6.62725 10.7177 3.9764
417 1 -1.1104 6.65315 10.8981 1.07899
408 1 -1.1104 6.84418 13.4611 4.00863
403 1 -1.1104 6.74008 13.7014 1.09771
404 1 -1.1104 6.55181 13.631 6.74096
405 1 -1.1104 6.71278 19.0696 1.08528
453 2 2.2208 10.8456 12.0651 5.30895
455 1 -1.1104 12.3976 13.5122 0.843494
458 1 -1.1104 12.2623 13.5704 3.86264
460 2 2.2208 10.8786 9.40426 2.49347
463 1 -1.1104 12.2449 10.6684 1.11961
467 1 -1.1104 12.327 10.6159 3.87873
469 2 2.2208 8.02681 12.1238 2.41717
471 1 -1.1104 9.3836 13.5363 0.844857
474 1 -1.1104 9.50695 13.5726 3.76544
476 2 2.2208 7.99619 9.35173 5.16687
479 1 -1.1104 9.35424 10.6737 1.09142
483 1 -1.1104 9.28703 10.7232 3.77241
454 2 2.2208 10.8162 17.7707 5.16753
457 1 -1.1104 12.2072 19.3004 1.0505
459 1 -1.1104 12.4145 19.0801 3.72924
461 2 2.2208 10.7464 14.8775 2.41563
462 2 2.2208 10.9198 20.7275 2.49927
465 1 -1.1104 12.2699 16.3723 1.00802
468 1 -1.1104 12.0721 16.3716 3.6492
470 2 2.2208 8.12313 17.7055 2.40418
473 1 -1.1104 9.40597 19.1883 1.01233
475 1 -1.1104 9.46052 19.3142 3.74186
477 2 2.2208 8.04216 14.983 5.23194
478 2 2.2208 8.03735 20.6372 5.284
481 1 -1.1104 9.57164 16.4065 1.11759
484 1 -1.1104 9.41955 16.3701 3.94072
560 1 -1.1104 12.1379 19.2707 6.59654
480 1 -1.1104 9.32642 10.809 6.53841
472 1 -1.1104 9.35688 13.5782 6.61485
482 1 -1.1104 9.24898 16.4519 6.74588
464 1 -1.1104 12.4054 10.8431 6.51596
456 1 -1.1104 12.3475 13.5742 6.53327
561 1 -1.1104 9.43337 19.3205 6.59337
466 1 -1.1104 12.112 16.4395 6.5579
573 1 -1.1104 12.2223 19.1797 12.2059
562 2 2.2208 10.8665 9.36226 7.93411
496 1 -1.1104 1.18662 19.1065 6.66223
566 1 -1.1104 9.53508 13.5831 9.34695
536 2 2.2208 2.48974 12.2005 13.79
442 2 2.2208 2.44124 15.0907 -0.465108
499 2 2.2208 5.25807 12.3032 10.8388
501 1 -1.1104 0.972909 13.5585 12.4237
505 1 -1.1104 0.934717 13.6959 9.55406
509 2 2.2208 5.10065 9.39484 8.09436
512 1 -1.1104 1.02934 10.8251 12.3009
516 1 -1.1104 1.13567 10.8181 9.56719
520 2 2.2208 2.493 12.2548 8.09944
522 1 -1.1104 3.74604 13.6213 12.3443
524 1 -1.1104 3.9273 13.6177 9.40746
526 2 2.2208 2.3775 9.4743 10.9368
527 2 2.2208 2.34705 14.9058 10.9899
529 1 -1.1104 3.88375 10.9528 12.0604
531 1 -1.1104 3.9431 10.821 9.26944
500 2 2.2208 5.21861 17.8043 10.6671
502 1 -1.1104 1.03159 19.2432 12.3008
506 1 -1.1104 1.01697 19.1979 9.43969
510 2 2.2208 5.20429 14.9869 8.01556
511 2 2.2208 5.29393 20.6794 7.96696
513 1 -1.1104 0.993988 16.3883 12.2827
517 1 -1.1104 0.978721 16.3395 9.53819
521 2 2.2208 2.42411 17.6979 8.16444
523 1 -1.1104 3.75004 19.053 12.1854
525 1 -1.1104 3.66988 19.1591 9.24457
528 2 2.2208 2.61328 20.6019 10.6833
530 1 -1.1104 3.76328 16.3706 12.2655
532 1 -1.1104 3.746 16.3565 9.58969
489 2 2.2208 10.899 12.1182 -0.402514
533 2 2.2208 2.45201 17.6787 13.7222
563 1 -1.1104 12.3913 19.4309 9.36454
550 2 2.2208 8.14374 12.2405 7.98431
508 1 -1.1104 6.68819 19.2022 9.45041
555 1 -1.1104 12.1183 10.6853 9.481
549 1 -1.1104 9.45218 10.7083 12.1777
546 1 -1.1104 9.50924 16.5429 9.66179
20 1 -1.1104 6.59214 7.76789 3.95628
570 2 2.2208 10.9184 12.102 10.8117
551 1 -1.1104 12.2209 16.2884 9.45044
418 1 -1.1104 6.55447 10.7038 6.82896
446 2 2.2208 -0.340519 20.7696 2.44618
514 1 -1.1104 6.68574 10.9483 12.4076
567 1 -1.1104 9.36438 19.1105 12.3453
565 1 -1.1104 9.41212 19.254 9.40552
571 2 2.2208 10.742 17.748 11.0783
556 1 -1.1104 12.342 16.4611 12.2637
519 1 -1.1104 6.83913 16.4696 9.5043
518 1 -1.1104 6.62767 10.7372 9.63984
507 1 -1.1104 6.6428 13.5273 9.48801
503 1 -1.1104 6.53593 13.5431 12.2632
515 1 -1.1104 6.56806 16.4922 12.071
553 2 2.2208 8.13284 15.0056 10.8603
552 2 2.2208 7.9911 20.5525 10.9097
558 2 2.2208 10.8553 20.6655 8.01496
548 1 -1.1104 9.5238 16.4301 12.4092
568 1 -1.1104 9.53634 13.7406 12.1939
504 1 -1.1104 6.4272 19.1877 12.1265
572 1 -1.1104 12.2473 13.5166 12.2673
547 1 -1.1104 9.37693 10.8244 9.28315
569 2 2.2208 8.10684 17.8632 8.01917
490 2 2.2208 13.7857 12.1937 2.42459
540 2 2.2208 -0.445637 9.3448 7.99996
564 1 -1.1104 12.371 13.6212 9.53109
557 1 -1.1104 12.2733 10.7509 12.2971
554 2 2.2208 8.05849 9.42468 10.8464
578 2 2.2208 10.6567 9.27019 13.6262
574 2 2.2208 13.7301 20.632 10.9269
539 2 2.2208 -0.398472 9.42349 13.7536
579 2 2.2208 8.05647 12.2065 13.815
441 2 2.2208 2.54378 20.8318 -0.519138
542 2 2.2208 -0.337584 18.0211 10.8745
452 2 2.2208 -0.44774 12.1828 5.20768
580 2 2.2208 13.5412 9.29412 10.9654
444 2 2.2208 5.20071 17.7874 -0.328953
577 2 2.2208 10.8451 14.8854 13.5952
485 2 2.2208 8.11754 20.4892 -0.297405
586 2 2.2208 5.24041 12.2842 16.382
588 1 -1.1104 0.905312 13.4071 18.0646
592 1 -1.1104 1.16442 13.7531 15.1598
596 2 2.2208 5.23962 9.42183 19.1285
599 1 -1.1104 0.999859 10.7516 17.7878
603 1 -1.1104 1.09111 10.8683 15.1051
607 2 2.2208 2.62851 12.2426 19.2333
609 1 -1.1104 3.75153 13.6636 17.7892
611 1 -1.1104 4.07276 13.7045 14.9477
613 2 2.2208 2.55912 9.45033 16.4673
616 1 -1.1104 3.88821 10.8345 17.6773
618 1 -1.1104 3.8042 10.8026 14.9177
662 1 -1.1104 1.04964 10.9208 20.7573
587 2 2.2208 5.28593 17.8706 16.3748
589 1 -1.1104 1.15161 19.1423 18.0411
593 1 -1.1104 0.949134 19.0365 15.0752
597 2 2.2208 5.3313 15.0297 19.371
598 2 2.2208 5.29556 20.6862 19.3995
600 1 -1.1104 1.1339 16.4285 17.7309
604 1 -1.1104 0.992828 16.2618 15.0214
608 2 2.2208 2.52633 17.7754 19.3387
610 1 -1.1104 3.89955 19.2985 17.7075
612 1 -1.1104 3.9643 19.2809 14.949
614 2 2.2208 2.57994 15.1107 16.4559
615 2 2.2208 2.41527 20.6314 16.6017
617 1 -1.1104 4.01591 16.5747 17.9391
619 1 -1.1104 3.99083 16.5696 15.0888
659 1 -1.1104 0.806302 19.4131 20.8744
667 1 -1.1104 3.74696 19.3452 20.6895
666 1 -1.1104 3.93663 13.709 20.8705
669 1 -1.1104 3.7586 16.4545 20.8596
658 1 -1.1104 1.23224 13.7581 20.601
663 1 -1.1104 1.09923 16.5619 20.5858
621 2 2.2208 -0.466733 20.4995 19.2749
661 1 -1.1104 6.71761 19.4069 20.7302
665 1 -1.1104 6.52141 16.5002 20.5914
602 1 -1.1104 6.84716 16.465 17.7795
445 2 2.2208 5.33781 12.2541 27.8574
623 2 2.2208 -0.489888 12.1649 16.4769
583 2 2.2208 13.6786 17.7721 13.7574
655 2 2.2208 13.7142 9.28074 16.4472
605 1 -1.1104 6.72976 10.7898 15.2591
660 1 -1.1104 6.76247 13.6449 20.4957
606 1 -1.1104 6.62145 16.3261 14.9703
664 1 -1.1104 6.5999 10.9084 20.6223
590 1 -1.1104 6.5778 13.8155 17.8947
594 1 -1.1104 6.67023 13.5302 15.1243
591 1 -1.1104 6.65047 19.1709 17.9552
601 1 -1.1104 6.59037 10.8114 17.8532
595 1 -1.1104 6.78724 19.2351 15.1283
625 2 2.2208 10.9852 12.0555 16.4366
627 1 -1.1104 12.2574 13.4074 17.6808
629 1 -1.1104 12.4003 13.4959 14.9523
632 2 2.2208 10.722 9.35711 19.3094
635 1 -1.1104 12.2163 10.5862 17.8018
637 1 -1.1104 12.3691 10.6589 15.2154
639 2 2.2208 8.04224 12.2836 19.1543
641 1 -1.1104 9.42523 13.5785 17.6359
643 1 -1.1104 9.61425 13.4978 14.9326
646 2 2.2208 8.06684 9.34784 16.3783
649 1 -1.1104 9.51079 10.8894 17.8079
651 1 -1.1104 9.51516 10.6547 15.0347
626 2 2.2208 10.8347 17.7896 16.6032
628 1 -1.1104 12.2122 19.132 17.8472
630 1 -1.1104 12.3607 19.2838 15.1072
633 2 2.2208 10.7845 15.0273 19.1492
634 2 2.2208 10.9108 20.651 19.4734
636 1 -1.1104 12.2002 16.2407 17.8038
638 1 -1.1104 12.2213 16.4141 15.0227
640 2 2.2208 8.08582 17.8226 19.2531
642 1 -1.1104 9.39045 19.2544 17.878
644 1 -1.1104 9.49429 19.0093 15.062
647 2 2.2208 8.06481 15.0086 16.3082
648 2 2.2208 8.1526 20.6157 16.6367
650 1 -1.1104 9.39935 16.4123 17.9291
652 1 -1.1104 9.48829 16.2929 15.1349
732 1 -1.1104 9.30646 16.3611 20.5858
731 1 -1.1104 9.35491 10.9302 20.5626
730 1 -1.1104 9.48807 13.5382 20.5782
645 1 -1.1104 9.34845 19.334 20.7343
727 1 -1.1104 12.2407 16.2365 20.7218
722 1 -1.1104 12.2702 13.4443 20.566
726 1 -1.1104 12.092 10.6502 20.6949
585 2 2.2208 10.9368 20.5011 13.6664
668 1 -1.1104 3.91621 10.8668 20.7067
493 2 2.2208 13.7038 9.4124 27.7582
735 1 -1.1104 9.40049 13.7115 23.4217
620 2 2.2208 -0.431763 17.7357 16.4705
710 1 -1.1104 9.39704 10.8636 26.4782
670 2 2.2208 5.30476 12.2871 22.171
672 1 -1.1104 1.10224 13.7427 23.6217
676 1 -1.1104 0.981665 13.3847 26.3424
680 2 2.2208 5.2347 9.56355 25.0006
683 1 -1.1104 1.14183 11.0541 23.4273
687 1 -1.1104 1.12745 10.7578 26.4733
691 2 2.2208 2.52948 12.1474 24.9527
693 1 -1.1104 3.97609 13.714 23.4241
695 1 -1.1104 3.83793 13.8632 26.4028
697 2 2.2208 2.38303 9.42917 22.0449
700 1 -1.1104 3.73875 10.7963 23.5692
702 1 -1.1104 3.87955 10.9809 26.3496
671 2 2.2208 5.26103 17.9237 22.0337
673 1 -1.1104 0.979208 19.3989 23.6145
677 1 -1.1104 1.00971 19.3313 26.3889
681 2 2.2208 5.43477 15.1769 25.0947
682 2 2.2208 5.26841 20.5516 25.1153
684 1 -1.1104 1.05585 16.6075 23.4852
688 1 -1.1104 1.20072 16.4294 26.2181
692 2 2.2208 2.42176 18.0235 24.8218
694 1 -1.1104 3.9201 19.4979 23.4144
696 1 -1.1104 3.74564 19.3215 26.2131
698 2 2.2208 2.42607 15.0817 22.2266
699 2 2.2208 2.28923 20.8156 22.0943
701 1 -1.1104 3.76291 16.6826 23.4939
703 1 -1.1104 4.00392 16.4803 26.3751
544 2 2.2208 5.26304 20.6531 13.7105
729 1 -1.1104 12.3881 10.833 23.6296
685 1 -1.1104 6.56878 11.0315 23.55
719 1 -1.1104 12.2948 16.4547 26.2673
738 2 2.2208 10.8459 12.3018 21.9938
675 1 -1.1104 6.65137 19.1782 23.5376
715 2 2.2208 7.92469 9.46993 22.0568
723 1 -1.1104 12.1653 13.6344 26.2823
674 1 -1.1104 6.69582 13.7599 23.4427
718 2 2.2208 10.8184 20.7524 24.9098
631 1 -1.1104 12.3522 19.1793 20.8354
717 2 2.2208 10.9255 9.3669 24.954
686 1 -1.1104 6.76823 16.5437 23.6107
678 1 -1.1104 6.69836 13.6076 26.4213
713 2 2.2208 7.96017 20.7418 22.2621
712 1 -1.1104 9.45124 10.9061 23.7096
736 2 2.2208 8.30418 18.0085 24.8892
728 1 -1.1104 12.3052 19.335 23.5101
733 1 -1.1104 9.47531 13.753 26.1821
679 1 -1.1104 6.65177 19.2184 26.5632
690 1 -1.1104 6.88648 16.4807 26.4659
739 2 2.2208 10.8872 18.0499 22.0855
656 2 2.2208 13.5801 14.8602 16.3372
716 1 -1.1104 9.57464 19.3238 26.2512
709 1 -1.1104 9.63078 16.5642 26.1916
734 1 -1.1104 9.57296 19.4808 23.6077
689 1 -1.1104 6.76946 10.8247 26.4376
725 1 -1.1104 12.2289 16.38 23.4103
724 2 2.2208 10.9448 14.8529 24.8387
714 2 2.2208 8.00724 15.0161 22.0131
711 1 -1.1104 9.58734 16.5076 23.2758
720 1 -1.1104 12.2285 19.1743 26.265
721 1 -1.1104 12.4519 10.8835 26.3752
740 1 -1.1104 12.2969 13.5887 23.5346
737 2 2.2208 7.97605 12.3298 25.0431
743 2 2.2208 13.6904 9.35345 22.0259
581 2 2.2208 13.7996 12.026 13.6134
443 2 2.2208 2.4477 9.45278 28.0126
487 2 2.2208 8.12146 9.41073 27.8091
704 2 2.2208 -0.28126 20.658 24.9752
576 2 2.2208 7.97351 17.803 13.6141
450 2 2.2208 -0.287146 17.8227 27.8715
654 2 2.2208 13.7481 17.7662 19.5487
657 2 2.2208 13.5454 20.7483 16.5219
535 2 2.2208 5.1222 9.36131 13.6158
486 2 2.2208 8.07478 15.0595 27.6585
541 2 2.2208 -0.456453 15.0483 13.6548
746 2 2.2208 5.16969 23.3432 5.23143
749 1 -1.1104 1.10558 24.833 1.11681
753 1 -1.1104 1.04889 24.9196 3.89992
757 2 2.2208 5.21309 26.2364 2.55814
759 1 -1.1104 1.04995 22.0191 1.07126
760 1 -1.1104 1.08673 27.6269 1.0635
765 1 -1.1104 1.03925 22.0963 3.97251
766 1 -1.1104 1.12379 27.8147 3.8488
771 2 2.2208 2.40795 23.4039 2.4383
773 1 -1.1104 3.89435 24.9485 1.11871
775 1 -1.1104 3.85741 24.8393 3.91059
778 2 2.2208 2.4979 26.2075 5.1777
780 1 -1.1104 3.76079 22.0049 0.931558
781 1 -1.1104 3.72178 27.7675 1.01635
783 1 -1.1104 3.80475 21.9885 3.8452
784 1 -1.1104 3.9799 27.8441 3.74138
748 2 2.2208 5.39622 29.1568 5.31291
750 1 -1.1104 0.999893 30.483 1.00745
754 1 -1.1104 0.835285 30.5893 3.83794
758 2 2.2208 5.2987 31.7434 2.56727
761 1 -1.1104 1.09577 33.2527 1.10165
767 1 -1.1104 1.23026 33.4272 3.9448
772 2 2.2208 2.36029 29.109 2.54223
774 1 -1.1104 3.83063 30.5466 1.09833
776 1 -1.1104 3.57234 30.5003 3.9022
779 2 2.2208 2.22124 31.822 5.29473
782 1 -1.1104 4.01124 33.3091 1.07701
785 1 -1.1104 3.71963 33.349 3.93044
842 1 -1.1104 3.76236 33.2642 6.90766
840 1 -1.1104 3.80108 22.0582 6.53429
839 1 -1.1104 3.76865 30.4371 6.58271
833 1 -1.1104 0.96357 27.487 6.76017
829 1 -1.1104 0.98245 30.3402 6.52289
838 1 -1.1104 3.89375 24.9236 6.64887
832 1 -1.1104 1.29563 21.96 6.73234
834 1 -1.1104 0.969051 33.2395 6.63047
828 1 -1.1104 0.914248 24.8987 6.58694
831 1 -1.1104 6.77126 30.4222 6.875
770 1 -1.1104 6.67744 33.5087 4.23061
769 1 -1.1104 6.91523 27.6434 3.80212
763 1 -1.1104 6.64363 27.5846 1.01807
768 1 -1.1104 6.5266 22.0244 3.69747
752 1 -1.1104 6.78909 30.2662 1.2295
762 1 -1.1104 6.79671 21.7711 1.0746
830 1 -1.1104 6.54768 24.7687 6.88029
787 2 2.2208 -0.409583 23.5398 5.23325
751 1 -1.1104 6.7335 24.9323 1.18523
756 1 -1.1104 6.59758 30.4603 4.12117
843 2 2.2208 -0.471268 28.9462 10.8767
837 1 -1.1104 6.65095 33.2023 6.93159
755 1 -1.1104 6.69736 24.749 3.92328
835 1 -1.1104 6.66734 21.931 6.59213
764 1 -1.1104 6.65552 33.2267 1.00164
899 1 -1.1104 12.1816 33.2245 6.67419
793 2 2.2208 11.0861 23.3891 5.2839
795 1 -1.1104 12.4378 24.837 1.07549
797 1 -1.1104 12.3879 24.795 3.86122
799 2 2.2208 10.9891 26.2364 2.48239
801 1 -1.1104 12.2691 22.2494 1.14813
802 1 -1.1104 12.4131 27.6997 0.970196
804 1 -1.1104 12.215 21.7715 3.8779
805 1 -1.1104 12.3318 27.6246 4.03491
807 2 2.2208 7.94115 23.285 2.50837
809 1 -1.1104 9.58833 24.7774 0.928141
811 1 -1.1104 9.22522 25.0159 3.80128
814 2 2.2208 8.15913 26.3041 5.31174
816 1 -1.1104 9.53926 21.9618 1.09607
817 1 -1.1104 9.58652 27.5657 1.22268
819 1 -1.1104 9.31738 22.2123 3.86469
820 1 -1.1104 9.6706 27.6272 3.78203
794 2 2.2208 10.9465 29.163 5.30573
796 1 -1.1104 12.2404 30.5617 1.00129
798 1 -1.1104 12.0249 30.4556 3.85836
800 2 2.2208 10.8129 32.0416 2.41216
803 1 -1.1104 12.1795 33.35 1.02221
806 1 -1.1104 12.2825 33.3015 3.66038
808 2 2.2208 8.23347 28.9345 2.50069
810 1 -1.1104 9.49294 30.5796 1.07896
812 1 -1.1104 9.39167 30.4923 4.00207
815 2 2.2208 8.16288 32.0929 5.4522
818 1 -1.1104 9.3243 33.3276 0.99274
821 1 -1.1104 9.47186 33.2936 3.97951
904 1 -1.1104 9.5589 27.7853 6.59572
897 1 -1.1104 12.3772 22.1133 6.64837
903 1 -1.1104 9.41405 21.9694 6.58679
901 1 -1.1104 9.50897 30.621 6.88394
895 1 -1.1104 12.3044 24.7109 6.74092
896 1 -1.1104 12.4614 30.5449 6.64783
898 1 -1.1104 12.2541 27.6287 6.69946
920 1 -1.1104 12.2993 33.1913 12.2528
913 1 -1.1104 12.3576 30.4051 12.3447
841 1 -1.1104 4.09873 27.6384 6.61037
1113 2 2.2208 7.99313 31.8728 -0.299692
986 2 2.2208 5.13014 31.7318 13.9285
987 2 2.2208 2.2206 29.1558 13.7431
844 2 2.2208 5.2901 23.4014 10.7474