LAMMPS (29 Oct 2020)
OMP_NUM_THREADS environment is not set. Defaulting to 1 thread. (../comm.cpp:94)
  using 1 OpenMP thread(s) per MPI task
#---------------------------------------
#
# This script is used to calculate the thermal conuctivity of UO2 using Muller-Plathe method
# By Ziqiang Wang on 03/18/2022 on Jilin university
#
#---------------------------------------

variable     Nevery    equal   50
variable     T         equal   900

clear
OMP_NUM_THREADS environment is not set. Defaulting to 1 thread. (../comm.cpp:94)
  using 1 OpenMP thread(s) per MPI task
units          metal
boundary       p p p
atom_style     full

read_data vac_0.005_relaxed.dat
Reading data file ...
  orthogonal box = (-0.40622506 -4.8109573 -0.40757049) to (27.746225 332.89096 27.747570)
  2 by 13 by 2 MPI processor grid
  reading atoms ...
  17910 atoms
  reading velocities ...
  17910 velocities
Finding 1-2 1-3 1-4 neighbors ...
  special bond factors lj:    0.0      0.0      0.0     
  special bond factors coul:  0.0      0.0      0.0     
     0 = max # of 1-2 neighbors
     0 = max # of 1-3 neighbors
     0 = max # of 1-4 neighbors
     1 = max # of special neighbors
  special bonds CPU = 0.003 seconds
  read_data CPU = 0.079 seconds

set           type     1    charge     -1.1104
Setting atom values ...
  11940 settings made for charge
set           type     2    charge      2.2208
Setting atom values ...
  5970 settings made for charge

kspace_style    pppm   1.0e-05
pair_style      hybrid/overlay  coul/long  11.0  eam/alloy
pair_coeff      * * coul/long
pair_coeff      * * eam/alloy CeThUNpPuAmCmO.eam.alloy O Th
newton          on
neighbor        0.3 bin
neigh_modify    delay 0 check yes every 1

#The first equilation
velocity        all create $T 10005 mom yes rot yes dist gaussian
velocity        all create 900 10005 mom yes rot yes dist gaussian
fix             nvt  all  nvt  temp  $T $T  0.1
fix             nvt  all  nvt  temp  900 $T  0.1
fix             nvt  all  nvt  temp  900 900  0.1

run             100000
PPPM initialization ...
  using 12-bit tables for long-range coulomb (../kspace.cpp:328)
  G vector (1/distance) = 0.2986594
  grid = 40 240 40
  stencil order = 5
  estimated absolute RMS force accuracy = 0.00015871146
  estimated relative force accuracy = 1.1021901e-05
  using single precision MKL FFT
  3d grid and FFT values/proc = 15000 7600
Neighbor list info ...
  update every 1 steps, delay 0 steps, check yes
  max neighbors/atom: 2000, page size: 100000
  master list distance cutoff = 11.3
  ghost atom cutoff = 11.3
  binsize = 5.65, bins = 5 60 5
  2 neighbor lists, perpetual/occasional/extra = 2 0 0
  (1) pair coul/long, perpetual
      attributes: half, newton on
      pair build: half/bin/newton
      stencil: half/bin/3d/newton
      bin: standard
  (2) pair eam/alloy, perpetual, copy from (1)
      attributes: half, newton on
      pair build: copy
      stencil: none
      bin: none
Per MPI rank memory allocation (min/avg/max) = 8.154 | 8.177 | 8.189 Mbytes
Step Temp E_pair E_mol TotEng Press 
       0          900   -233358.55            0   -231275.12    -1483.055 
  100000    903.31635   -233367.68            0   -231276.57   -1493.4641 
Loop time of 663.347 on 52 procs for 100000 steps with 17910 atoms

Performance: 13.025 ns/day, 1.843 hours/ns, 150.751 timesteps/s
99.8% CPU use with 52 MPI tasks x 1 OpenMP threads

MPI task timing breakdown:
Section |  min time  |  avg time  |  max time  |%varavg| %total
---------------------------------------------------------------
Pair    | 441.8      | 448.87     | 457.59     |  19.8 | 67.67
Bond    | 0.0055748  | 0.0096994  | 0.016619   |   2.0 |  0.00
Kspace  | 138.09     | 148.86     | 158.37     |  42.5 | 22.44
Neigh   | 39.493     | 41.695     | 44.186     |  19.2 |  6.29
Comm    | 17.828     | 19.381     | 21.301     |  18.4 |  2.92
Output  | 6.3158e-05 | 6.8773e-05 | 0.00027432 |   0.0 |  0.00
Modify  | 2.1096     | 3.047      | 5.061      |  53.3 |  0.46
Other   |            | 1.482      |            |       |  0.22

Nlocal:        344.423 ave         368 max         327 min
Histogram: 2 6 9 9 9 6 4 2 4 1
Nghost:        4074.94 ave        4154 max        3995 min
Histogram: 2 7 9 5 2 9 2 6 3 7
Neighs:        69203.2 ave       73612 max       65114 min
Histogram: 2 3 8 9 6 9 8 2 0 5

Total # of neighbors = 3598564
Ave neighs/atom = 200.92485
Ave special neighs/atom = 0.0000000
Neighbor list builds = 19767
Dangerous builds = 0
unfix           nvt
reset_timestep  0

# the second run
fix             1 all nve

group           oxygen type 1
11940 atoms in group oxygen
fix             2 oxygen thermal/conductivity ${Nevery} y 20
fix             2 oxygen thermal/conductivity 50 y 20

compute         ke all ke/atom
variable        temp atom c_ke/1.5
compute         layers all chunk/atom bin/1d y lower 0.05 units reduced
fix             3      all ave/chunk  2000 50 100000 layers v_temp file profile_${T}K.mp
fix             3      all ave/chunk  2000 50 100000 layers v_temp file profile_900K.mp

variable        Tdiff    equal     f_3[11][3]-f_3[1][3]
variable        deltaT   equal     v_Tdiff*1.5/0.0001292

timestep        0.001
thermo_style    custom step f_2 temp v_Tdiff v_deltaT
thermo          100000

run             1500000
PPPM initialization ...
  using 12-bit tables for long-range coulomb (../kspace.cpp:328)
  G vector (1/distance) = 0.2986594
  grid = 40 240 40
  stencil order = 5
  estimated absolute RMS force accuracy = 0.00015871146
  estimated relative force accuracy = 1.1021901e-05
  using single precision MKL FFT
  3d grid and FFT values/proc = 15000 7600
Per MPI rank memory allocation (min/avg/max) = 8.404 | 8.427 | 8.440 Mbytes
Step f_2 Temp v_Tdiff v_deltaT 
       0            0    903.31635            0            0 
  100000    1012.3341    902.47245  0.030991997    359.81421 
  200000    1998.6869    897.34726  0.036248818    420.84541 
  300000    2971.6806     901.2553  0.036984365    429.38504 
  400000    3949.7008    902.75937   0.03630203     421.4632 
  500000    4931.5047    897.93434  0.036662539    425.64868 
  600000    5912.2842     914.6947  0.035656437    413.96792 
  700000    6891.7305    903.24304  0.036736248    426.50443 
  800000    7865.6444    894.52275  0.036717903    426.29144 
  900000    8840.4268    902.17468    0.0365417    424.24574 
 1000000    9824.0568    903.73166  0.036093883    419.04663 
 1100000     10798.97    900.12087  0.036984849    429.39066 
 1200000    11783.921    909.14768  0.036491871    423.66723 
 1300000      12767.8    907.11643  0.037189896    431.77124 
 1400000    13734.895     907.7225  0.036422795    422.86527 
 1500000    14716.326    904.02876  0.036087921    418.97741 
Loop time of 9910.18 on 52 procs for 1500000 steps with 17910 atoms

Performance: 13.077 ns/day, 1.835 hours/ns, 151.360 timesteps/s
99.8% CPU use with 52 MPI tasks x 1 OpenMP threads

MPI task timing breakdown:
Section |  min time  |  avg time  |  max time  |%varavg| %total
---------------------------------------------------------------
Pair    | 6562.9     | 6698       | 6866.9     |  76.5 | 67.59
Bond    | 0.097153   | 0.14564    | 0.23616    |   6.6 |  0.00
Kspace  | 2051.8     | 2227.6     | 2369.9     | 145.6 | 22.48
Neigh   | 606.12     | 638.66     | 678.36     |  66.6 |  6.44
Comm    | 270.22     | 294.55     | 328.92     |  76.7 |  2.97
Output  | 0.0016162  | 0.0017055  | 0.0034904  |   0.6 |  0.00
Modify  | 8.6659     | 9.4521     | 10.174     |  10.2 |  0.10
Other   |            | 41.76      |            |       |  0.42

Nlocal:        344.423 ave         365 max         331 min
Histogram: 6 7 6 10 3 10 2 4 3 1
Nghost:        4081.79 ave        4155 max        3994 min
Histogram: 4 5 3 0 5 9 8 10 6 2
Neighs:        69196.6 ave       72370 max       65785 min
Histogram: 2 6 4 10 3 7 4 6 3 7

Total # of neighbors = 3598225
Ave neighs/atom = 200.90592
Ave special neighs/atom = 0.0000000
Neighbor list builds = 302446
Dangerous builds = 0

Total wall time: 2:56:14
