LAMMPS (29 Oct 2020)
OMP_NUM_THREADS environment is not set. Defaulting to 1 thread. (../comm.cpp:94)
  using 1 OpenMP thread(s) per MPI task
OMP_NUM_THREADS environment is not set. Defaulting to 1 thread. (../comm.cpp:94)
  using 1 OpenMP thread(s) per MPI task
Reading data file ...
  orthogonal box = (-0.27717828 -3.4472206 -0.27717828) to (27.617178 331.52722 27.617178)
  2 by 13 by 2 MPI processor grid
  reading atoms ...
  18000 atoms
  reading velocities ...
  18000 velocities
Finding 1-2 1-3 1-4 neighbors ...
  special bond factors lj:    0.0      0.0      0.0     
  special bond factors coul:  0.0      0.0      0.0     
     0 = max # of 1-2 neighbors
     0 = max # of 1-3 neighbors
     0 = max # of 1-4 neighbors
     1 = max # of special neighbors
  special bonds CPU = 0.004 seconds
  read_data CPU = 0.057 seconds
45 atoms in group sphere
2 atoms in group oxygen
2 atoms in group thorium
43 atoms in group 1
45 atoms in group cluster
6000 atoms in group Th
12000 atoms in group O
15 atoms in group Th_group
30 atoms in group O_group
WARNING: Ignoring 'compress yes' for molecular system (../delete_atoms.cpp:125)
Deleted 45 atoms, new total = 17955
45 atoms in group sphere
2 atoms in group oxygen
2 atoms in group thorium
43 atoms in group 1
45 atoms in group cluster
5985 atoms in group Th
11970 atoms in group O
15 atoms in group Th_group
30 atoms in group O_group
WARNING: Ignoring 'compress yes' for molecular system (../delete_atoms.cpp:125)
Deleted 45 atoms, new total = 17910
45 atoms in group sphere
2 atoms in group oxygen
2 atoms in group thorium
43 atoms in group 1
45 atoms in group cluster
5970 atoms in group Th
11940 atoms in group O
15 atoms in group Th_group
30 atoms in group O_group
WARNING: Ignoring 'compress yes' for molecular system (../delete_atoms.cpp:125)
Deleted 45 atoms, new total = 17865
45 atoms in group sphere
2 atoms in group oxygen
2 atoms in group thorium
43 atoms in group 1
45 atoms in group cluster
5955 atoms in group Th
11910 atoms in group O
15 atoms in group Th_group
30 atoms in group O_group
WARNING: Ignoring 'compress yes' for molecular system (../delete_atoms.cpp:125)
Deleted 45 atoms, new total = 17820
45 atoms in group sphere
2 atoms in group oxygen
2 atoms in group thorium
43 atoms in group 1
45 atoms in group cluster
5940 atoms in group Th
11880 atoms in group O
15 atoms in group Th_group
30 atoms in group O_group
WARNING: Ignoring 'compress yes' for molecular system (../delete_atoms.cpp:125)
Deleted 45 atoms, new total = 17775
45 atoms in group sphere
2 atoms in group oxygen
2 atoms in group thorium
43 atoms in group 1
45 atoms in group cluster
5925 atoms in group Th
11850 atoms in group O
15 atoms in group Th_group
30 atoms in group O_group
WARNING: Ignoring 'compress yes' for molecular system (../delete_atoms.cpp:125)
Deleted 45 atoms, new total = 17730
Setting atom values ...
  11820 settings made for charge
Setting atom values ...
  5910 settings made for charge
PPPM initialization ...
  using 12-bit tables for long-range coulomb (../kspace.cpp:328)
  G vector (1/distance) = 0.29912852
  grid = 40 240 40
  stencil order = 5
  estimated absolute RMS force accuracy = 0.00015413022
  estimated relative force accuracy = 1.0703751e-05
  using single precision MKL FFT
  3d grid and FFT values/proc = 18225 7600
Neighbor list info ...
  update every 1 steps, delay 0 steps, check yes
  max neighbors/atom: 2000, page size: 100000
  master list distance cutoff = 13
  ghost atom cutoff = 13
  binsize = 6.5, bins = 5 52 5
  2 neighbor lists, perpetual/occasional/extra = 2 0 0
  (1) pair coul/long, perpetual
      attributes: half, newton on
      pair build: half/bin/newton
      stencil: half/bin/3d/newton
      bin: standard
  (2) pair eam/alloy, perpetual, copy from (1)
      attributes: half, newton on
      pair build: copy
      stencil: none
      bin: none
Setting up cg style minimization ...
  Unit style    : metal
  Current step  : 0
WARNING: Energy due to 3 extra global DOFs will be included in minimizer energies
Per MPI rank memory allocation (min/avg/max) = 9.476 | 10.13 | 10.28 Mbytes
Step Temp E_pair E_mol TotEng Press Volume 
       0            0   -232973.15            0   -232973.15   -1799.0252    260641.98 
      33            0   -233066.05            0   -233066.05    167.32226    260496.12 
Loop time of 1.0509 on 52 procs for 33 steps with 17730 atoms

98.9% CPU use with 52 MPI tasks x 1 OpenMP threads

Minimization stats:
  Stopping criterion = linesearch alpha is zero
  Energy initial, next-to-last, final = 
     -232973.148427899  -233066.052753882  -233066.052753882
  Force two-norm initial, final = 571.25038 60.514174
  Force max component initial, final = 499.84263 48.098984
  Final line search alpha, max atom move = 3.0607867e-12 1.4722073e-10
  Iterations, force evaluations = 33 93

MPI task timing breakdown:
Section |  min time  |  avg time  |  max time  |%varavg| %total
---------------------------------------------------------------
Pair    | 0.60506    | 0.63352    | 0.66405    |   2.1 | 60.28
Bond    | 7.5987e-06 | 1.3045e-05 | 2.3521e-05 |   0.0 |  0.00
Kspace  | 0.17081    | 0.2015     | 0.23033    |   3.8 | 19.17
Neigh   | 0          | 0          | 0          |   0.0 |  0.00
Comm    | 0.014354   | 0.015466   | 0.016248   |   0.4 |  1.47
Output  | 0          | 0          | 0          |   0.0 |  0.00
Modify  | 0          | 0          | 0          |   0.0 |  0.00
Other   |            | 0.2004     |            |       | 19.07

Nlocal:        340.962 ave         404 max         289 min
Histogram: 3 5 9 7 5 7 5 8 2 1
Nghost:        5578.54 ave        5754 max        5399 min
Histogram: 2 5 7 8 7 5 2 4 6 6
Neighs:       108456.0 ave      130204 max       89925 min
Histogram: 4 4 7 8 5 7 5 6 5 1

Total # of neighbors = 5639700
Ave neighs/atom = 318.08799
Ave special neighs/atom = 0.0000000
Neighbor list builds = 0
Dangerous builds = 0
Resetting atom IDs ...
PPPM initialization ...
  using 12-bit tables for long-range coulomb (../kspace.cpp:328)
  G vector (1/distance) = 0.29914441
  grid = 40 240 40
  stencil order = 5
  estimated absolute RMS force accuracy = 0.0001539758
  estimated relative force accuracy = 1.0693028e-05
  using single precision MKL FFT
  3d grid and FFT values/proc = 18225 7600
Finding 1-2 1-3 1-4 neighbors ...
  special bond factors lj:    0.0      0.0      0.0     
  special bond factors coul:  0.0      0.0      0.0     
     0 = max # of 1-2 neighbors
     0 = max # of 1-3 neighbors
     0 = max # of 1-4 neighbors
     1 = max # of special neighbors
  special bonds CPU = 0.001 seconds
PPPM initialization ...
  using 12-bit tables for long-range coulomb (../kspace.cpp:328)
  G vector (1/distance) = 0.29914441
  grid = 40 240 40
  stencil order = 5
  estimated absolute RMS force accuracy = 0.0001539758
  estimated relative force accuracy = 1.0693028e-05
  using single precision MKL FFT
  3d grid and FFT values/proc = 18225 7600
Setting up Verlet run ...
  Unit style    : metal
  Current step  : 33
  Time step     : 0.001
Per MPI rank memory allocation (min/avg/max) = 8.352 | 9.093 | 9.157 Mbytes
Step Dt Time Atoms Temp PotEng KinEng Press Volume 
      33        0.001            0    17730         1200   -233066.05    2749.9837    11443.175    260496.12 
   10000        0.001        9.967    17730    1197.7632   -230162.19    2744.8578   -471.56672    269909.22 
   20000        0.001       19.967    17730    1192.1369   -230195.21    2731.9643    303.18874    269720.31 
   30000        0.001       29.967    17730     1197.177   -230177.37    2743.5144    1750.0623    269517.57 
   40000        0.001       39.967    17730    1195.1688   -230178.29    2738.9122    74.823528    269741.81 
   50000        0.001       49.967    17730    1200.4063   -230160.06    2750.9148    1739.9632    269502.34 
   60000        0.001       59.967    17730    1195.5431   -230181.01    2739.7702   -1412.7147    269956.75 
   70000        0.001       69.967    17730    1193.4089   -230209.63    2734.8793   -1578.0193    269876.93 
   80000        0.001       79.967    17730    1200.2536   -230212.68     2750.565   -1216.6097    269916.12 
   90000        0.001       89.967    17730    1199.3973   -230184.81    2748.6025     1001.041    269633.54 
  100000        0.001       99.967    17730     1196.915   -230219.97     2742.914    936.91655    269401.57 
  100033        0.001          100    17730    1200.2388   -230220.42    2750.5311   -244.82554    269612.69 
Loop time of 816.111 on 52 procs for 100000 steps with 17730 atoms

Performance: 10.587 ns/day, 2.267 hours/ns, 122.532 timesteps/s
99.8% CPU use with 52 MPI tasks x 1 OpenMP threads

MPI task timing breakdown:
Section |  min time  |  avg time  |  max time  |%varavg| %total
---------------------------------------------------------------
Pair    | 517.06     | 525.77     | 541.13     |  23.8 | 64.42
Bond    | 0.0099104  | 0.013627   | 0.019783   |   1.8 |  0.00
Kspace  | 146.85     | 162.68     | 171.92     |  44.7 | 19.93
Neigh   | 7.0064     | 7.5297     | 8.023      |   8.4 |  0.92
Comm    | 16.282     | 16.696     | 17.124     |   5.8 |  2.05
Output  | 0.045641   | 0.045685   | 0.047572   |   0.1 |  0.01
Modify  | 91.771     | 95.802     | 99.787     |  22.7 | 11.74
Other   |            | 7.573      |            |       |  0.93

Nlocal:        340.962 ave         363 max         323 min
Histogram: 5 1 9 7 9 7 7 0 4 3
Nghost:        5494.54 ave        5675 max        5385 min
Histogram: 6 11 8 7 10 2 0 0 0 8
Neighs:       105255.0 ave      114140 max       96321 min
Histogram: 3 4 5 7 5 7 9 5 6 1

Total # of neighbors = 5473252
Ave neighs/atom = 308.70006
Ave special neighs/atom = 0.0000000
Neighbor list builds = 2650
Dangerous builds = 0
WARNING: Shell command 'mkdir' failed with error 'File exists' (../input.cpp:1197)
System init for write_data ...
PPPM initialization ...
  using 12-bit tables for long-range coulomb (../kspace.cpp:328)
  G vector (1/distance) = 0.2985055
  grid = 40 240 40
  stencil order = 5
  estimated absolute RMS force accuracy = 0.00015915354
  estimated relative force accuracy = 1.1052602e-05
  using single precision MKL FFT
  3d grid and FFT values/proc = 18225 7600
Total wall time: 0:13:37
