LAMMPS (29 Oct 2020)
OMP_NUM_THREADS environment is not set. Defaulting to 1 thread. (../comm.cpp:94)
  using 1 OpenMP thread(s) per MPI task
#-------------------------
#
#This script is used to create different concentrations of vacancies in thorium dioxide
#By Ziqiang Wang on 07/03/2023
#
#-------------------------

clear
OMP_NUM_THREADS environment is not set. Defaulting to 1 thread. (../comm.cpp:94)
  using 1 OpenMP thread(s) per MPI task
units                        metal
dimension                        3
boundary                     p p p
atom_style                   full
atom_modify                  map array

read_data                   ThO2_unitcell.dat
Reading data file ...
  orthogonal box = (0.0000000 0.0000000 0.0000000) to (5.4680000 5.4680000 5.4680000)
  2 by 2 by 13 MPI processor grid
  reading atoms ...
  12 atoms
Finding 1-2 1-3 1-4 neighbors ...
  special bond factors lj:    0.0      0.0      0.0     
  special bond factors coul:  0.0      0.0      0.0     
     0 = max # of 1-2 neighbors
     0 = max # of 1-3 neighbors
     0 = max # of 1-4 neighbors
     1 = max # of special neighbors
  special bonds CPU = 0.003 seconds
  read_data CPU = 0.014 seconds
replicate                   5  60  5
Replicating atoms ...
  orthogonal box = (0.0000000 0.0000000 0.0000000) to (27.340000 328.08000 27.340000)
  2 by 13 by 2 MPI processor grid
  18000 atoms
Finding 1-2 1-3 1-4 neighbors ...
  special bond factors lj:    0.0      0.0      0.0     
  special bond factors coul:  0.0      0.0      0.0     
     0 = max # of 1-2 neighbors
     0 = max # of 1-3 neighbors
     0 = max # of 1-4 neighbors
     1 = max # of special neighbors
  special bonds CPU = 0.002 seconds
  replicate CPU = 0.009 seconds

set                         type    1      charge   -1.1104
Setting atom values ...
  12000 settings made for charge
set                         type    2      charge    2.2208
Setting atom values ...
  6000 settings made for charge

kspace_style                pppm     1.0e-05
pair_style                  hybrid/overlay    coul/long   11.0  eam/alloy
pair_coeff                  * * coul/long
pair_coeff                  * * eam/alloy CeThUNpPuAmCmO.eam.alloy O Th Th O
neighbor                    2.0  bin
neigh_modify                every  1  delay  0  check  yes

# Fully relaxing the perfect crystal at 0K
fix                         box_relax  all  box/relax  aniso  0.0  vmax  0.001
min_style                   cg
minimize                    1.0e-30 1.0e-30 10000 10000
PPPM initialization ...
  using 12-bit tables for long-range coulomb (../kspace.cpp:328)
  G vector (1/distance) = 0.30025168
  grid = 40 240 40
  stencil order = 5
  estimated absolute RMS force accuracy = 0.00014651476
  estimated relative force accuracy = 1.0174887e-05
  using single precision MKL FFT
  3d grid and FFT values/proc = 18225 7600
Neighbor list info ...
  update every 1 steps, delay 0 steps, check yes
  max neighbors/atom: 2000, page size: 100000
  master list distance cutoff = 13
  ghost atom cutoff = 13
  binsize = 6.5, bins = 5 51 5
  2 neighbor lists, perpetual/occasional/extra = 2 0 0
  (1) pair coul/long, perpetual
      attributes: half, newton on
      pair build: half/bin/newton
      stencil: half/bin/3d/newton
      bin: standard
  (2) pair eam/alloy, perpetual, copy from (1)
      attributes: half, newton on
      pair build: copy
      stencil: none
      bin: none
Per MPI rank memory allocation (min/avg/max) = 10.26 | 10.29 | 10.30 Mbytes
Step Temp E_pair E_mol TotEng Press Volume 
       0            0   -236328.77            0   -236328.77    136383.26    245231.79 
      25            0   -236946.21            0   -236946.21   -61.950544    260641.98 
Loop time of 1.63279 on 52 procs for 25 steps with 18000 atoms

99.2% CPU use with 52 MPI tasks x 1 OpenMP threads

Minimization stats:
  Stopping criterion = linesearch alpha is zero
  Energy initial, next-to-last, final = 
     -236328.767350088   -236946.20956156   -236946.20956156
  Force two-norm initial, final = 36156.645 224.47628
  Force max component initial, final = 20875.510 192.58738
  Final line search alpha, max atom move = 1.5474702e-13 2.9802322e-11
  Iterations, force evaluations = 25 142

MPI task timing breakdown:
Section |  min time  |  avg time  |  max time  |%varavg| %total
---------------------------------------------------------------
Pair    | 0.93521    | 0.97085    | 1.0245     |   2.2 | 59.46
Bond    | 1.2057e-05 | 1.8221e-05 | 2.563e-05  |   0.0 |  0.00
Kspace  | 0.27127    | 0.32393    | 0.35917    |   3.8 | 19.84
Neigh   | 0.014483   | 0.016601   | 0.018094   |   0.6 |  1.02
Comm    | 0.027016   | 0.02819    | 0.029036   |   0.3 |  1.73
Output  | 0          | 0          | 0          |   0.0 |  0.00
Modify  | 0          | 0          | 0          |   0.0 |  0.00
Other   |            | 0.2932     |            |       | 17.96

Nlocal:        346.154 ave         399 max         311 min
Histogram: 5 10 5 3 9 9 4 6 0 1
Nghost:        5659.08 ave        5821 max        5513 min
Histogram: 5 10 5 0 2 10 12 0 4 4
Neighs:       111692.0 ave      128687 max       99408 min
Histogram: 4 8 6 3 10 11 3 6 0 1

Total # of neighbors = 5808000
Ave neighs/atom = 322.66667
Ave special neighs/atom = 0.0000000
Neighbor list builds = 5
Dangerous builds = 0
unfix                       box_relax
reset_timestep              0
# randomly create vacancies in the relaxed perfect crystal
group                       thorium     type  2
6000 atoms in group thorium
group                       oxygen      type  1
12000 atoms in group oxygen

variable           vac_ratio   equal    0
variable           tot         equal    count(all)
variable           tot_vac     equal    round(${tot}*${vac_ratio})
variable           tot_vac     equal    round(18000*${vac_ratio})
variable           tot_vac     equal    round(18000*0)
variable           th_vac      equal    round(${tot_vac}*0.333333)
variable           th_vac      equal    round(0*0.333333)
variable           oxy_vac     equal    2*${th_vac}
variable           oxy_vac     equal    2*0
set                group    thorium   type/subset  3   ${th_vac}  1252
set                group    thorium   type/subset  3   0  1252
Setting atom values ...
  0 settings made for type/subset
set                group    oxygen    type/subset  4   ${oxy_vac} 45558
set                group    oxygen    type/subset  4   0 45558
Setting atom values ...
  0 settings made for type/subset

group              delete     type    3 4
0 atoms in group delete
delete_atoms       group      delete
WARNING: Ignoring 'compress yes' for molecular system (../delete_atoms.cpp:125)
Deleted 0 atoms, new total = 18000

# fully relaxing the defect configuration at 0K
fix                box_relax  all  box/relax aniso 0.0 vmax 0.001
min_style          cg
minimize           1.0e-30 1.0e-30 10000 10000
PPPM initialization ...
  using 12-bit tables for long-range coulomb (../kspace.cpp:328)
  G vector (1/distance) = 0.2991486
  grid = 40 240 40
  stencil order = 5
  estimated absolute RMS force accuracy = 0.00015521489
  estimated relative force accuracy = 1.0779078e-05
  using single precision MKL FFT
  3d grid and FFT values/proc = 18225 7600
Per MPI rank memory allocation (min/avg/max) = 10.26 | 10.28 | 10.30 Mbytes
Step Temp E_pair E_mol TotEng Press Volume 
       0            0   -236946.26            0   -236946.26   -64.518622    260641.98 
       1            0   -236946.26            0   -236946.26   -64.518622    260641.98 
Loop time of 0.485852 on 52 procs for 1 steps with 18000 atoms

99.8% CPU use with 52 MPI tasks x 1 OpenMP threads

Minimization stats:
  Stopping criterion = linesearch alpha is zero
  Energy initial, next-to-last, final = 
     -236946.259346064  -236946.259346064  -236946.259346064
  Force two-norm initial, final = 229.28956 229.28956
  Force max component initial, final = 197.12066 197.12066
  Final line search alpha, max atom move = 1.5118822e-13 2.9802322e-11
  Iterations, force evaluations = 1 44

MPI task timing breakdown:
Section |  min time  |  avg time  |  max time  |%varavg| %total
---------------------------------------------------------------
Pair    | 0.27966    | 0.29653    | 0.3178     |   1.6 | 61.03
Bond    | 3.3486e-06 | 5.3533e-06 | 7.6124e-06 |   0.0 |  0.00
Kspace  | 0.072862   | 0.094045   | 0.11093    |   2.9 | 19.36
Neigh   | 0          | 0          | 0          |   0.0 |  0.00
Comm    | 0.0076799  | 0.0080823  | 0.008487   |   0.2 |  1.66
Output  | 0          | 0          | 0          |   0.0 |  0.00
Modify  | 0          | 0          | 0          |   0.0 |  0.00
Other   |            | 0.08719    |            |       | 17.95

Nlocal:        346.154 ave         404 max         297 min
Histogram: 6 5 7 5 5 6 8 4 3 3
Nghost:        5659.08 ave        5840 max        5508 min
Histogram: 4 9 7 1 6 8 9 2 3 3
Neighs:       111692.0 ave      130396 max       96415 min
Histogram: 8 3 6 7 5 8 4 4 4 3

Total # of neighbors = 5808000
Ave neighs/atom = 322.66667
Ave special neighs/atom = 0.0000000
Neighbor list builds = 0
Dangerous builds = 0
unfix              box_relax
reset_timestep     0

# apply the temperature into the system and relaxing system at the temperature of interest
reset_atom_ids
Resetting atom IDs ...
PPPM initialization ...
  using 12-bit tables for long-range coulomb (../kspace.cpp:328)
  G vector (1/distance) = 0.2991486
  grid = 40 240 40
  stencil order = 5
  estimated absolute RMS force accuracy = 0.00015521489
  estimated relative force accuracy = 1.0779078e-05
  using single precision MKL FFT
  3d grid and FFT values/proc = 18225 7600
Finding 1-2 1-3 1-4 neighbors ...
  special bond factors lj:    0.0      0.0      0.0     
  special bond factors coul:  0.0      0.0      0.0     
     0 = max # of 1-2 neighbors
     0 = max # of 1-3 neighbors
     0 = max # of 1-4 neighbors
     1 = max # of special neighbors
  special bonds CPU = 0.001 seconds
variable                    temp      equal    600
velocity                    all  create   ${temp}  402382  dist  gaussian  rot  yes  mom  yes
velocity                    all  create   600  402382  dist  gaussian  rot  yes  mom  yes
fix                         npt  all  npt  temp  ${temp}  ${temp}  $(100*dt) aniso  0.0  0.0  $(1000*dt)
fix                         npt  all  npt  temp  600  ${temp}  $(100*dt) aniso  0.0  0.0  $(1000*dt)
fix                         npt  all  npt  temp  600  600  $(100*dt) aniso  0.0  0.0  $(1000*dt)
fix                         npt  all  npt  temp  600  600  0.10000000000000000555 aniso  0.0  0.0  $(1000*dt)
fix                         npt  all  npt  temp  600  600  0.10000000000000000555 aniso  0.0  0.0  1

thermo                      10000
thermo_style                custom   step dt time atoms temp pe ke press vol

shell                       mkdir vac_${vac_ratio}_${temp}K
shell                       mkdir vac_0_${temp}K
shell                       mkdir vac_0_600K
dump                        1  all  custom  10000  ./vac_${vac_ratio}_${temp}K/dump_relax.atom.* id type q x y z
dump                        1  all  custom  10000  ./vac_0_${temp}K/dump_relax.atom.* id type q x y z
dump                        1  all  custom  10000  ./vac_0_600K/dump_relax.atom.* id type q x y z
dump_modify                 1  element  O  Th Th O

run                         100000
PPPM initialization ...
  using 12-bit tables for long-range coulomb (../kspace.cpp:328)
  G vector (1/distance) = 0.2991486
  grid = 40 240 40
  stencil order = 5
  estimated absolute RMS force accuracy = 0.00015521489
  estimated relative force accuracy = 1.0779078e-05
  using single precision MKL FFT
  3d grid and FFT values/proc = 18225 7600
Per MPI rank memory allocation (min/avg/max) = 10.40 | 10.43 | 10.44 Mbytes
Step Dt Time Atoms Temp PotEng KinEng Press Volume 
       0        0.001            0    18000          600   -236946.26     1395.932    5656.0473    260641.98 
   10000        0.001           10    18000    598.12075   -235513.19    1391.5598   -523.55309    264919.46 
   20000        0.001           20    18000    599.82103   -235495.02    1395.5156   -143.26109     264904.8 
   30000        0.001           30    18000    589.35689   -235504.39    1371.1703    750.76866    264748.91 
   40000        0.001           40    18000    594.11248      -235516    1382.2344   -361.87474    264890.52 
   50000        0.001           50    18000     599.8037   -235488.93    1395.4753    130.67433    264902.11 
   60000        0.001           60    18000     600.4623   -235500.12    1397.0076    75.215346    264870.56 
   70000        0.001           70    18000    595.18692   -235497.44    1384.7341   -421.06281    264948.92 
   80000        0.001           80    18000    603.42704   -235510.01    1403.9052   -310.29066    264898.51 
   90000        0.001           90    18000      596.359   -235507.94     1387.461    15.599845    264861.07 
  100000        0.001          100    18000    601.16484   -235509.95    1398.6421    -1309.772    265028.45 
Loop time of 848.945 on 52 procs for 100000 steps with 18000 atoms

Performance: 10.177 ns/day, 2.358 hours/ns, 117.793 timesteps/s
99.8% CPU use with 52 MPI tasks x 1 OpenMP threads

MPI task timing breakdown:
Section |  min time  |  avg time  |  max time  |%varavg| %total
---------------------------------------------------------------
Pair    | 530.53     | 542.02     | 553.75     |  24.8 | 63.85
Bond    | 0.0097431  | 0.014853   | 0.021646   |   2.1 |  0.00
Kspace  | 170.71     | 182.47     | 193.73     |  42.5 | 21.49
Neigh   | 0.21808    | 0.22554    | 0.23721    |   1.2 |  0.03
Comm    | 17.996     | 18.381     | 18.771     |   4.2 |  2.17
Output  | 0.057464   | 0.057502   | 0.059165   |   0.1 |  0.01
Modify  | 92.828     | 97.332     | 103.3      |  26.3 | 11.47
Other   |            | 8.449      |            |       |  1.00

Nlocal:        346.154 ave         365 max         335 min
Histogram: 11 5 8 5 9 2 0 5 2 5
Nghost:        5631.27 ave        5704 max        5547 min
Histogram: 12 8 0 0 3 2 3 1 6 17
Neighs:       111064.0 ave      118816 max      106428 min
Histogram: 9 6 10 4 8 3 4 4 2 2

Total # of neighbors = 5775332
Ave neighs/atom = 320.85178
Ave special neighs/atom = 0.0000000
Neighbor list builds = 77
Dangerous builds = 0
write_data                  vac_${vac_ratio}_relaxed.dat
write_data                  vac_0_relaxed.dat
System init for write_data ...
PPPM initialization ...
  using 12-bit tables for long-range coulomb (../kspace.cpp:328)
  G vector (1/distance) = 0.29884946
  grid = 40 240 40
  stencil order = 5
  estimated absolute RMS force accuracy = 0.00015758794
  estimated relative force accuracy = 1.0943877e-05
  using single precision MKL FFT
  3d grid and FFT values/proc = 18225 7600
include                     in.mp
#---------------------------------------
#
# This script is used to calculate the thermal conuctivity of UO2 using Muller-Plathe method
# By Ziqiang Wang on 03/18/2022 on Jilin university
#
#---------------------------------------

variable     Nevery    equal   200
variable     T         equal   600

clear
OMP_NUM_THREADS environment is not set. Defaulting to 1 thread. (../comm.cpp:94)
  using 1 OpenMP thread(s) per MPI task
units          metal
boundary       p p p
atom_style     full

read_data      vac_0_relaxed.dat
Reading data file ...
  orthogonal box = (-0.3506768 -4.2619558 -0.36926481) to (27.690677 332.34196 27.709265)
  2 by 13 by 2 MPI processor grid
  reading atoms ...
  18000 atoms
  reading velocities ...
  18000 velocities
Finding 1-2 1-3 1-4 neighbors ...
  special bond factors lj:    0.0      0.0      0.0     
  special bond factors coul:  0.0      0.0      0.0     
     0 = max # of 1-2 neighbors
     0 = max # of 1-3 neighbors
     0 = max # of 1-4 neighbors
     1 = max # of special neighbors
  special bonds CPU = 0.001 seconds
  read_data CPU = 0.033 seconds

set           type     1    charge     -1.1104
Setting atom values ...
  12000 settings made for charge
set           type     2    charge      2.2208
Setting atom values ...
  6000 settings made for charge

kspace_style    pppm   1.0e-05
pair_style      hybrid/overlay  coul/long  11.0  eam/alloy
pair_coeff      * * coul/long
pair_coeff      * * eam/alloy CeThUNpPuAmCmO.eam.alloy O Th Th O
newton          on
neighbor        0.3 bin
neigh_modify    delay 0 check yes every 1

#The first equilation
#fix             nvt  all  nvt  temp  $T $T  0.1

#run             100000
#unfix           nvt
#reset_timestep  0

# the second run
fix             1 all nve

group           oxygen type 1
12000 atoms in group oxygen
fix             2 oxygen thermal/conductivity ${Nevery} y 20
fix             2 oxygen thermal/conductivity 200 y 20

compute         ke all ke/atom
variable        atom_temp atom c_ke/1.5
compute         layers all chunk/atom bin/1d y lower 0.05 units reduced
fix             3      all ave/chunk  2 50000 100000 layers v_atom_temp file profile_${T}K.mp
fix             3      all ave/chunk  2 50000 100000 layers v_atom_temp file profile_600K.mp

variable        Tdiff    equal     f_3[11][3]-f_3[1][3]
variable        deltaT   equal     v_Tdiff*1.5/0.0001292

timestep        0.001
thermo_style    custom step f_2 temp v_Tdiff v_deltaT
thermo          100000

run             1200000
PPPM initialization ...
  using 12-bit tables for long-range coulomb (../kspace.cpp:328)
  G vector (1/distance) = 0.29884946
  grid = 40 240 40
  stencil order = 5
  estimated absolute RMS force accuracy = 0.00015758794
  estimated relative force accuracy = 1.0943877e-05
  using single precision MKL FFT
  3d grid and FFT values/proc = 15000 7600
Neighbor list info ...
  update every 1 steps, delay 0 steps, check yes
  max neighbors/atom: 2000, page size: 100000
  master list distance cutoff = 11.3
  ghost atom cutoff = 11.3
  binsize = 5.65, bins = 5 60 5
  2 neighbor lists, perpetual/occasional/extra = 2 0 0
  (1) pair coul/long, perpetual
      attributes: half, newton on
      pair build: half/bin/newton
      stencil: half/bin/3d/newton
      bin: standard
  (2) pair eam/alloy, perpetual, copy from (1)
      attributes: half, newton on
      pair build: copy
      stencil: none
      bin: none
Per MPI rank memory allocation (min/avg/max) = 8.408 | 8.433 | 8.446 Mbytes
Step f_2 Temp v_Tdiff v_deltaT 
       0            0    601.16484            0            0 
  100000    204.70405    598.18305 0.0037863472    43.959139 
  200000    405.93686    601.48471  0.004629597    53.749191 
  300000    607.00254    598.07291 0.0045753986    53.119953 
  400000     807.6154    598.47848 0.0052306784    60.727691 
  500000    1008.5239    601.91806 0.0050029286    58.083537 
  600000    1209.0816    598.91812  0.004434931    51.489137 
  700000    1410.4907    598.68531 0.0042702983    49.577766 
  800000    1611.4646    601.20737 0.0050439553    58.559853 
  900000    1811.9098    596.24722 0.0049358635    57.304916 
 1000000    2012.4233    601.78904 0.0049539416    57.514802 
 1100000    2214.7626    599.06128 0.0047123643    54.710112 
 1200000    2414.5674    598.15464 0.0043650517    50.677845 
Loop time of 7755.99 on 52 procs for 1200000 steps with 18000 atoms

Performance: 13.368 ns/day, 1.795 hours/ns, 154.719 timesteps/s
99.8% CPU use with 52 MPI tasks x 1 OpenMP threads

MPI task timing breakdown:
Section |  min time  |  avg time  |  max time  |%varavg| %total
---------------------------------------------------------------
Pair    | 5262.5     | 5394.2     | 5511.9     |  82.6 | 69.55
Bond    | 0.090031   | 0.12969    | 0.18032    |   5.9 |  0.00
Kspace  | 1560.3     | 1693.5     | 1832.7     | 165.8 | 21.83
Neigh   | 404.32     | 420.8      | 449.22     |  61.7 |  5.43
Comm    | 178.25     | 189.67     | 206.71     |  52.5 |  2.45
Output  | 0.0013999  | 0.0014917  | 0.0028296  |   0.5 |  0.00
Modify  | 21.587     | 23.591     | 26.474     |  24.2 |  0.30
Other   |            | 34.09      |            |       |  0.44

Nlocal:        346.154 ave         369 max         332 min
Histogram: 4 12 10 6 3 5 5 3 2 2
Nghost:        4162.17 ave        4265 max        4070 min
Histogram: 7 4 3 6 9 6 9 0 2 6
Neighs:        69914.1 ave       74612 max       66603 min
Histogram: 2 8 12 8 3 6 7 2 2 2

Total # of neighbors = 3635535
Ave neighs/atom = 201.97417
Ave special neighs/atom = 0.0000000
Neighbor list builds = 194900
Dangerous builds = 0

Total wall time: 2:23:27
