ITEM: TIMESTEP
500000
ITEM: NUMBER OF ATOMS
18000
ITEM: BOX BOUNDS xy xz yz pp pp pp
-1.4523451947434193e-01 2.8039234519472654e+01 0.0000000000000000e+00
-1.7383051786901451e+00 3.3646630517868891e+02 0.0000000000000000e+00
-1.4284704797121717e-01 2.8036847047971417e+01 0.0000000000000000e+00
ITEM: ATOMS id type x y z
1 1 1.38752 -0.373616 1.24772
2 1 4.21156 -0.335421 1.11413
3 1 4.14725 -0.616809 4.04987
4 1 1.17522 -0.195776 4.07963
5 1 1.36118 2.49398 1.07531
6 1 4.12833 2.35565 1.05979
7 1 3.82119 2.18612 4.00289
8 1 1.18032 2.58921 3.96156
9 1 6.94203 -0.339835 1.25516
10 1 9.78884 -0.397978 1.06443
11 1 9.9012 -0.430481 3.91308
12 1 6.90265 -0.329739 3.93352
13 1 6.83985 2.61412 1.38406
14 1 9.66033 2.39435 1.05355
15 1 9.8753 2.52132 3.73877
16 1 7.04147 2.36836 4.16715
17 1 12.6292 -0.451447 1.0371
18 1 12.603 -0.362035 3.83996
19 1 12.4559 2.30608 1.0741
20 1 12.6186 2.33234 3.84704
21 1 1.26631 5.16432 1.12035
22 1 4.14183 5.21718 1.19155
23 1 4.04712 5.10008 3.97666
24 1 1.20462 5.47292 3.94042
25 1 1.21878 8.0409 1.02028
26 1 4.28199 8.15891 0.922815
27 1 4.26083 8.13553 3.89707
28 1 1.16678 8.17027 3.92524
29 1 6.90643 5.27832 1.09123
30 1 9.74801 5.27992 1.1947
31 1 9.73722 5.25028 4.21404
32 1 6.77143 5.18973 3.8922
33 1 7.23288 8.1734 1.19009
34 1 9.79594 8.13224 1.26253
35 1 9.84905 7.94855 3.97684
36 1 6.95904 7.88458 4.07899
37 1 12.508 5.45973 1.13388
38 1 12.4832 5.17491 3.75165
39 1 12.4754 8.24109 1.17122
12094 2 -0.0284744 23.6643 8.22906
41 1 1.37324 10.756 0.993978
42 1 4.1766 10.902 1.09937
43 1 4.14078 10.9907 3.80008
44 1 1.36007 11.0029 3.70696
12130 2 11.2822 0.948328 13.7323
46 1 4.4037 13.5842 0.856557
47 1 4.45225 13.8458 3.77273
48 1 1.49995 13.8711 4.14119
49 1 6.91085 10.8373 1.1041
50 1 9.85948 10.8487 1.24861
51 1 9.93859 10.8264 3.84661
52 1 7.03187 10.649 4.02249
53 1 7.08037 13.6526 1.16773
54 1 9.68485 13.7686 1.36975
55 1 9.89679 13.5879 4.16342
56 1 7.09997 13.4931 4.13954
57 1 12.605 11.1959 1.14942
58 1 12.7128 11.03 4.05942
59 1 12.3344 14.0154 1.35802
60 1 12.7176 14.0282 4.13103
61 1 1.2224 16.3079 1.29674
62 1 4.12321 16.4444 1.23836
63 1 4.24768 16.5689 3.91469
64 1 1.16056 16.5273 4.20613
65 1 1.19196 19.1746 1.19798
66 1 4.09919 19.3765 1.13618
67 1 4.254 19.275 3.91869
68 1 1.43432 19.2033 3.85778
69 1 7.04625 16.8357 1.18461
70 1 9.73166 16.7469 1.2142
71 1 9.81955 16.6137 4.13504
72 1 6.9788 16.3745 3.7429
73 1 6.88625 19.5192 1.23402
74 1 9.78032 19.5519 1.14669
75 1 9.87513 19.4175 3.84313
76 1 7.12463 19.3746 3.9947
77 1 12.7907 16.8389 1.20129
78 1 12.6047 16.6015 3.97442
79 1 12.5715 22.6777 1.12076
80 1 12.5977 19.4225 3.97886
81 1 1.25628 22.017 0.949565
82 1 4.02705 22.2261 1.12251
83 1 4.26852 22.4347 3.88647
84 1 1.49033 22.1688 4.0656
85 1 7.03479 22.4904 1.10292
86 1 9.88198 22.3448 1.19723
87 1 9.97866 22.408 3.81495
88 1 7.07072 22.1848 3.96241
12141 2 2.83983 15.1472 13.9015
90 1 12.7374 22.2468 4.08958
91 1 1.38018 -0.280568 6.82848
92 1 4.35278 -0.261424 6.82101
93 1 4.20873 -0.269167 9.59013
94 1 1.31512 -0.35594 9.63651
95 1 1.17561 2.47279 6.93024
96 1 3.97518 2.72288 6.80482
97 1 4.34557 2.54972 9.40919
98 1 1.56532 2.45081 9.77375
99 1 7.13633 -0.441358 6.70577
100 1 9.88161 -0.331081 6.85727
101 1 9.88449 -0.424269 9.57802
102 1 7.10571 -0.272611 9.57434
103 1 7.05201 2.48334 6.78366
104 1 9.94155 2.38699 6.7019
105 1 9.90122 2.49531 9.66794
106 1 7.08959 2.5103 9.67963
107 1 12.6899 -0.20037 6.90978
108 1 12.7816 -0.297434 9.59199
109 1 12.5903 2.54473 6.7021
110 1 12.6603 2.29025 9.39235
111 1 1.41973 5.25922 6.77083
112 1 4.24168 5.37582 6.76563
113 1 4.11233 5.42854 9.61027
114 1 1.30397 5.54041 9.66767
115 1 1.41693 8.20845 6.6266
116 1 4.23107 8.01659 6.83703
117 1 4.45625 8.18099 9.55778
118 1 1.48825 8.29037 9.45602
119 1 7.11079 5.15607 6.91575
120 1 9.84987 5.19686 6.99536
121 1 9.63647 5.24304 9.84975
122 1 6.87089 5.17771 9.69293
123 1 7.09803 7.94105 6.87198
124 1 9.77677 8.13353 6.98617
125 1 9.97685 8.13063 9.51362
126 1 7.10425 8.04296 9.69316
127 1 12.7094 5.25977 6.54531
128 1 12.4514 5.29471 9.58555
129 1 12.5247 8.15906 6.59559
130 1 12.7542 7.99026 9.6566
131 1 1.38967 10.855 6.82945
132 1 4.10394 10.8692 6.59402
133 1 4.08223 10.9583 9.50622
134 1 1.36724 11.1246 9.86175
135 1 1.26713 13.6887 6.85349
136 1 4.02964 13.824 6.52321
137 1 4.43545 13.8783 9.46565
138 1 1.58106 13.9474 9.36545
139 1 6.8762 10.9246 6.61898
140 1 9.73244 10.7584 6.77546
141 1 9.82342 10.9146 9.75139
142 1 6.72231 10.8264 9.43215
143 1 6.74994 13.859 6.9455
144 1 9.61645 13.5668 6.87919
145 1 9.91075 13.704 9.74034
146 1 7.24396 13.5699 9.74256
147 1 12.5196 10.9669 6.64724
148 1 12.7117 10.8474 9.50574
149 1 12.5441 13.7136 6.99927
150 1 12.7458 13.8402 9.82335
151 1 1.35899 16.5552 7.08291
152 1 4.1847 16.5598 6.83489
153 1 4.17561 16.6581 9.67486
154 1 1.42704 16.6552 9.77521
155 1 1.58101 19.3743 6.80132
156 1 4.3962 19.3594 6.52401
157 1 4.06601 19.3886 9.52377
158 1 1.23358 19.6869 9.6631
159 1 7.03288 16.6268 6.70103
160 1 9.76394 16.3227 6.75466
161 1 9.77692 16.4574 9.63039
162 1 6.94769 16.6856 9.55867
163 1 7.18425 19.5796 6.609
164 1 9.85233 19.3192 6.74566
165 1 9.81206 19.5673 9.67692
166 1 6.81022 19.4535 9.38581
167 1 12.6446 16.5646 6.84902
168 1 12.4933 16.5757 9.67389
169 1 12.6115 19.3146 6.72786
170 1 12.5394 19.4497 9.49326
171 1 1.242 22.206 6.8193
172 1 4.27215 22.1917 6.65984
173 1 4.21577 22.0564 9.68887
174 1 1.28524 22.3327 9.59072
175 1 7.00446 22.1956 6.78231
176 1 9.87319 22.3077 6.79403
177 1 9.78597 22.2726 9.61593
178 1 6.94 22.1955 9.57865
179 1 12.7736 22.2429 7.03361
180 1 12.4675 22.3005 9.84836
181 1 1.5258 -0.378253 12.4642
182 1 4.29597 -0.294861 12.4084
183 1 1.11335 2.54315 12.5373
184 1 4.06948 2.3676 12.2413
185 1 7.30378 -0.357397 12.4375
186 1 9.99694 -0.285115 12.4646
187 1 6.9917 2.46884 12.6621
188 1 9.8467 2.56601 12.6773
189 1 12.7362 -0.543 12.4474
190 1 12.8134 2.43124 12.3303
191 1 1.41783 5.22218 12.3663
192 1 4.22095 5.38265 12.4243
193 1 1.34985 8.1927 12.318
194 1 3.99978 8.01583 12.372
195 1 6.94841 5.32285 12.4626
196 1 9.77428 5.41396 12.5291
197 1 6.83907 8.15316 12.6027
198 1 9.59716 8.13188 12.2432
199 1 12.5223 5.30243 12.3217
200 1 12.6027 8.1232 12.5204
201 1 1.45841 10.8556 12.3946
202 1 4.14795 10.9143 12.3854
203 1 1.69791 13.7018 12.3195
204 1 4.41834 13.7826 12.3226
205 1 6.81736 11.008 12.3548
206 1 9.97987 10.8347 12.5366
207 1 7.06535 13.8206 12.2953
208 1 9.76865 13.7009 12.6761
209 1 12.8603 11.1424 12.2925
210 1 12.5089 13.9362 12.5411
211 1 1.47316 16.4547 12.6962
212 1 4.38766 16.6009 12.3808
213 1 1.36258 19.4531 12.4556
214 1 4.27491 19.3453 12.4667
215 1 7.04274 16.6475 12.3062
216 1 9.80447 16.6887 12.4583
217 1 7.1377 19.5145 12.3607
218 1 9.79455 19.4861 12.455
219 1 12.7228 16.5847 12.4938
220 1 12.6989 19.3644 12.388
221 1 1.28449 22.4149 12.4866
222 1 4.254 22.1625 12.5096
223 1 7.01601 22.311 12.4388
224 1 9.77815 22.2854 12.5326
225 1 12.5651 22.2843 12.4932
12074 2 -0.0500646 12.3715 8.23407
12106 2 -0.117856 3.89539 11.1556
12084 2 -0.0131323 17.9947 8.35281
12131 2 2.61911 3.78414 13.7894
12145 2 11.1168 17.9988 13.8786
12132 2 -0.128172 6.61304 13.7482
12053 2 2.83972 -1.62168 8.21844
12008 2 5.4948 0.853698 2.64959
12004 2 -0.0274751 1.13981 2.63142
12010 2 11.1071 1.05386 2.43177
12125 2 11.1298 20.9254 11.0014
12136 2 2.72615 9.59145 13.7106
12013 2 2.60484 3.866 2.51759
12124 2 8.22039 23.5983 11.1013
15116 2 13.8856 18.0458 11.0886
6054 1 1.24231 13.7046 1.4414
12017 2 8.31784 3.76273 2.66156
12018 2 5.47538 6.64607 2.54806
12061 2 -0.0437194 3.85847 5.38682
12020 2 11.1346 6.59466 2.48572
12113 2 5.45931 9.52657 11.0886
12104 2 8.5223 0.939828 11.0127
12023 2 2.76659 9.44405 2.58443
12135 2 11.3808 6.54509 13.945
40 1 13.1203 8.181 4.02978
12107 2 2.75913 6.84591 10.9198
12027 2 8.38192 9.34514 2.61669
12028 2 5.59766 12.2919 2.46683
15022 2 13.8966 9.62718 2.31836
12030 2 11.2605 12.469 2.53006
12102 2 2.7919 0.973488 11.0637
12114 2 8.62251 12.3064 11.2405
12033 2 3.00352 15.1488 2.65184
12064 2 -0.0857167 6.82544 8.2451
12100 2 11.1119 23.6407 8.23707
12099 2 11.1642 20.715 5.34305
12037 2 8.2856 14.9969 2.64377
12038 2 5.63339 18.1093 2.56293
12098 2 5.51014 23.6666 8.17707
12040 2 11.2022 17.8944 2.58561
12097 2 8.39668 20.8817 8.11567
12014 2 -0.111811 6.74032 2.46238
12043 2 2.65822 20.7729 2.49071
12123 2 5.61764 20.7706 11.0195
12096 2 8.39309 23.494 5.38863
12095 2 5.65346 20.8445 5.21396
12047 2 8.39795 20.8649 2.53371
12048 2 5.53094 23.7678 2.45812
12115 2 11.2887 9.391 11.0857
12050 2 11.1757 23.8293 2.52688
12139 2 5.6703 12.362 13.7164
12052 2 2.69026 1.12899 5.48658
12112 2 3.02616 12.5294 10.994
12122 2 2.71282 23.5307 11.0821
12110 2 11.2162 3.84096 11.1088
12056 2 8.59585 1.03253 5.34532
12109 2 8.40537 6.60703 11.0485
12058 2 5.72071 1.1101 8.09242
12108 2 5.65024 3.91292 11.0919
12060 2 11.2042 1.09077 8.21247
12120 2 11.2664 15.1514 11.0632
12062 2 2.70392 6.64786 5.42412
12063 2 2.72715 3.93482 8.32653
12119 2 8.51953 18.0193 10.9778
12065 2 5.53232 3.70171 5.3474
12066 2 8.34931 6.57957 5.4989
12067 2 8.42189 3.818 8.29447
12068 2 5.68019 6.5328 8.20094
12069 2 11.3029 3.71394 5.2843
12070 2 11.2037 6.69159 8.22944
12129 2 5.80075 0.981487 13.7453
12072 2 2.74595 12.293 5.38283
12073 2 2.87116 9.56464 8.11699
12118 2 5.79467 15.1629 10.9641
12075 2 5.61332 9.42909 5.49584
12076 2 8.56034 12.1482 5.36634
12077 2 8.32463 9.52652 8.28211
12078 2 5.55491 12.2554 8.21787
12079 2 11.4062 9.39642 5.22069
12080 2 11.0609 12.1956 8.26264
12148 2 8.42464 20.8619 13.7806
12082 2 2.81921 17.9766 5.26471
12083 2 2.78437 15.1971 8.13243
12117 2 2.774 17.8888 11.2044
12085 2 5.69348 15.1684 5.36135
12086 2 8.5214 17.9171 5.30478
12087 2 8.21857 14.9954 8.26614
12088 2 5.59149 17.8272 8.14326
12089 2 11.3432 15.0342 5.5048
12090 2 11.2099 17.8747 8.13991
440 1 12.4474 19.5955 1.30531
12092 2 2.86412 23.6933 5.3859
12093 2 2.98422 20.6373 8.11177
12071 2 -0.0487055 9.55387 5.39686
12054 2 -0.106365 0.974712 8.19044
12116 2 0.155413 15.0501 11.0059
12015 2 5.57633 3.85029 -0.144587
12133 2 8.42539 3.90848 14.0591
12143 2 8.42085 15.2094 13.8092
12144 2 5.63849 17.887 13.7392
12121 2 -0.0199522 20.831 10.9805
12137 2 -0.090319 12.3584 13.7331
12091 2 -0.10873 20.7932 5.72902
12111 2 0.0140426 9.56489 10.9592
12146 2 2.79704 20.7627 13.8818
12081 2 -0.143832 15.127 5.72966
15042 2 13.8296 20.8635 2.55988
12049 2 11.2219 20.9543 -0.190741
12032 2 2.77329 17.9309 -0.143627
12138 2 8.49528 9.50248 13.7142
12026 2 8.47123 12.1675 -0.105433
12016 2 8.37817 6.68261 -0.105271
12140 2 11.4602 12.4209 13.8503
15011 2 13.8288 6.7391 -0.103554
226 1 4.3473 -0.503656 15.3015
227 1 1.46756 -0.346167 15.2985
228 1 4.24835 2.41208 14.9988
229 1 1.34842 2.32381 15.4412
230 1 9.83297 -0.615458 15.433
231 1 7.03934 -0.403328 15.2738
232 1 9.98975 2.38349 15.3733
233 1 7.0782 2.43854 15.4099
234 1 12.9557 -0.26439 15.0981
235 1 12.7324 2.60249 15.1512
236 1 4.32299 5.15267 15.1239
237 1 1.45216 5.11848 15.3604
238 1 4.1558 8.12184 15.0714
239 1 1.25776 7.97594 15.2311
240 1 9.91917 5.10628 15.3233
241 1 7.19723 5.44654 15.3486
242 1 9.96098 8.07961 15.0191
243 1 7.20079 8.11507 15.4785
244 1 12.6591 5.26984 15.2455
245 1 12.9155 8.20744 15.0729
246 1 4.36622 10.9523 15.1922
247 1 1.46592 10.8768 15.2541
248 1 4.18797 13.8447 15.1452
249 1 1.4138 13.9049 15.2367
250 1 9.94963 10.9135 15.1702
251 1 7.09123 10.8771 15.1324
252 1 9.77305 13.8245 15.411
253 1 7.12465 13.646 15.252
254 1 12.7353 11.0753 15.2121
255 1 12.732 13.834 15.2325
256 1 4.3089 16.5886 15.0366
257 1 1.66186 16.7575 15.1088
258 1 4.14948 19.3394 15.2621
259 1 1.3864 19.5394 15.0854
260 1 9.65958 16.5158 15.2625
261 1 6.99789 16.4936 15.2589
262 1 9.62705 19.2676 15.1775
263 1 6.90056 19.2777 15.2275
264 1 12.5383 16.7666 15.2897
265 1 12.5245 19.5675 15.2408
266 1 4.27059 22.3019 15.3188
267 1 1.27858 22.3151 15.1602
268 1 9.77376 22.3512 15.1327
269 1 6.92042 22.0844 15.1779
270 1 12.4686 22.5927 15.4656
271 1 1.29549 -0.214791 18.1308
272 1 4.30508 -0.256722 17.9694
273 1 4.30149 -0.327268 20.7926
274 1 1.44641 -0.41503 20.8384
275 1 1.25969 2.27214 18.2968
276 1 4.07564 2.40588 18.0096
277 1 4.40996 2.33152 21.0439
278 1 1.42736 2.48072 20.8818
279 1 7.1535 -0.42743 18.1062
280 1 9.81295 -0.164572 18.2362
281 1 9.69986 -0.199603 21.1049
282 1 7.03235 -0.561161 20.9755
283 1 6.94033 2.42955 18.2152
284 1 9.84787 2.52676 17.9781
285 1 9.86555 2.59681 20.7372
286 1 7.11341 2.51011 20.9248
287 1 12.7621 -0.603861 17.9737
288 1 12.5545 -0.291399 20.8599
289 1 12.611 2.26703 17.8215
290 1 12.6355 2.49964 20.8222
291 1 1.47487 5.02754 18.0151
292 1 4.07065 5.01118 17.8895
293 1 4.25398 5.18557 20.8218
294 1 1.32526 5.28933 20.8175
295 1 1.52402 8.02721 17.988
296 1 4.39843 8.35373 17.8767
297 2 5.70678 9.60069 19.4316
298 1 4.42989 8.21911 20.6847
299 1 7.04197 5.18996 18.0379
300 1 9.80485 5.22936 18.2479
301 1 9.94597 5.3775 20.946
302 1 7.00524 5.37711 21.0118
303 1 7.13869 7.9888 18.7091
304 1 9.99304 8.22102 17.9749
305 1 9.99759 8.10017 20.732
306 1 7.23004 8.60331 21.0391
307 1 12.695 5.16758 17.9712
308 1 12.85 5.4116 20.8752
309 1 12.7713 7.94258 18.0122
310 1 12.7301 8.16234 20.8949
311 1 1.27935 10.8709 18.0768
312 1 4.07052 11.1459 18.2646
313 1 4.28451 11.1482 20.6742
314 1 1.36934 10.7619 20.7616
315 1 1.34271 13.8521 18.2207
316 1 4.18962 13.8083 17.9279
317 1 3.99918 13.9359 20.9764
318 1 1.34751 13.7257 20.7498
319 1 6.97116 10.7285 17.9541
320 1 9.94098 11.0335 18.016
321 1 9.98356 10.9877 20.9572
322 1 7.06136 11.2347 20.3899
323 1 6.95712 13.738 17.8876
324 1 9.83225 14.1211 18.1303
325 1 9.61602 13.542 20.8912
326 1 6.84437 13.9771 20.8854
327 1 12.7657 10.8173 17.9441
328 1 12.6731 10.8511 20.9316
329 1 12.5343 13.7042 18.0843
330 1 12.7577 13.6374 20.6812
331 1 1.20293 16.7752 17.9059
332 1 4.04268 16.4897 17.9883
333 1 4.1093 16.7302 20.6725
334 1 1.24268 16.4388 21.1092
335 1 1.52271 19.6017 17.9546
336 1 4.1542 19.3477 17.9911
337 1 4.36673 19.5186 20.787
338 1 1.59752 19.3907 20.7041
339 1 6.97618 16.47 18.1778
340 1 9.93641 16.966 18.0796
341 1 9.64794 16.8473 20.8109
342 1 6.95119 16.559 20.9535
343 1 7.00305 19.285 18.1028
344 1 9.93331 19.6712 17.9392
345 1 10.0004 19.6461 20.7783
346 1 7.24322 19.5751 20.9269
347 1 12.7103 16.4248 17.8753
348 1 12.8592 16.8491 20.8769
349 1 12.658 19.3521 18.1076
350 1 12.8719 19.4987 20.9315
351 1 1.51035 22.3723 18.107
352 1 4.08025 22.2154 18.025
353 1 4.18493 22.216 20.8901
354 1 1.19572 22.1286 20.8879
355 1 6.93608 22.2779 17.9329
356 1 9.84361 22.4885 18.0424
357 1 9.97425 22.394 20.8891
358 1 7.14909 22.3484 20.6822
359 1 12.6892 22.1939 18.2598
360 1 12.6068 22.3145 20.8767
361 1 1.54332 -0.431102 23.7056
362 1 4.36205 -0.438638 23.6457
363 1 4.15485 -0.545389 26.5636
364 1 1.42863 -0.307285 26.4687
365 1 1.43708 2.41648 23.6661
366 1 4.20413 2.40685 23.7651
367 1 4.29369 2.33218 26.5738
368 1 1.396 2.51108 26.4856
369 1 7.18992 -0.231596 23.7263
370 1 9.8747 -0.450058 23.791
371 1 9.68605 -0.24369 26.5904
372 1 6.88227 -0.386312 26.4979
373 1 7.12002 2.49053 23.8202
374 1 9.85363 2.50036 23.6527
375 1 9.83349 2.44986 26.4487
376 1 7.05036 2.38385 26.5872
377 1 12.5005 -0.486444 23.6446
378 1 12.4966 -0.348538 26.2204
379 1 12.5579 2.42184 23.6516
380 1 12.6854 2.39435 26.3559
381 1 1.17172 5.26211 23.4387
382 1 4.04866 5.23211 23.5496
383 1 4.13832 5.11167 26.4726
384 1 1.25928 5.18196 26.3779
385 1 1.2795 7.86568 23.5266
386 1 4.07661 7.87033 23.6791
387 1 4.22687 7.99789 26.4333
388 1 1.24275 8.00101 26.3987
389 1 6.85489 5.32163 23.7456
390 1 9.64808 5.23415 23.8237
391 1 9.68708 5.40698 26.5332
392 1 6.9578 5.43996 26.6637
393 1 6.91812 7.99081 23.8353
394 1 9.59165 8.03947 23.8618
395 1 9.73454 8.14173 26.7822
396 1 6.90825 8.10866 26.6324
397 1 12.453 5.16207 23.7009
398 1 12.4204 5.29482 26.4973
399 1 12.6649 8.09579 23.6683
400 1 12.5203 8.0353 26.4932
401 1 1.29688 10.8256 23.506
402 1 4.0915 10.7148 23.3143
403 1 4.3129 10.9245 26.0867
404 1 1.55782 10.9708 26.3255
405 1 1.52055 13.6008 23.643
406 1 4.2039 13.4853 23.6414
407 1 4.20516 13.4924 26.4234
408 1 1.48676 13.7216 26.7325
409 1 6.91654 10.9182 23.6446
410 1 9.84331 10.8165 23.7884
411 1 9.67773 10.7618 26.6904
412 1 7.06337 11.029 26.2995
413 1 6.96968 13.7774 23.6293
414 1 9.46239 13.5378 24.1036
415 1 9.75572 13.5083 26.796
416 1 6.90062 13.8584 26.2907
417 1 12.362 10.9223 23.8642
418 1 12.4788 10.6823 26.4671
419 1 12.8873 13.6647 24.0842
420 1 12.6256 13.8784 26.7779
421 1 1.38889 16.4963 24.0542
422 1 4.08786 16.3038 23.5526
423 1 3.94641 16.6381 26.4535
424 1 1.38268 16.4598 26.613
425 1 1.29784 19.4748 23.5819
426 1 4.17605 19.3263 23.7196
427 1 4.29459 19.3997 26.5836
428 1 1.51523 19.4344 26.4263
429 1 6.78802 16.636 23.7116
430 1 9.74562 19.6626 23.5844
431 1 9.6213 16.3486 26.685
432 1 6.63923 16.6813 26.4351
433 1 7.03226 19.4368 23.8486
434 1 12.6454 19.7747 26.6011
435 1 9.88813 19.5212 26.4461
436 1 7.07729 19.5678 26.5672
437 1 12.9056 16.9797 24.1818
438 1 12.4872 16.7075 26.6487
439 1 12.7116 19.6086 23.6815
12231 2 0.146377 15.0001 22.4071
441 1 1.30892 22.252 23.4312
442 1 4.01136 22.1863 23.7093
443 1 4.15199 22.261 26.5206
444 1 1.2997 22.3418 26.3637
445 1 6.92262 22.0937 23.6797
446 1 9.85023 22.4137 23.8245
447 1 9.96159 22.3683 26.6537
448 1 7.05105 22.4423 26.4696
449 1 12.6796 22.4194 23.5513
450 1 12.8382 22.4384 26.4189
12046 2 8.40707 23.7569 27.8679
12250 2 11.4524 23.6662 24.9319
12019 2 11.0586 3.80666 27.9489
12221 2 -0.0408991 9.49941 22.1716
12009 2 11.303 -1.76643 27.8399
12227 2 8.55309 9.45336 25.279
12249 2 11.2584 20.7328 22.2105
12226 2 8.39482 12.3325 22.3233
12225 2 5.62311 9.37584 22.8086
12006 2 8.34874 0.972826 27.9842
12223 2 2.75254 9.44447 24.9744
12248 2 5.38859 23.449 25.0199
12222 2 2.71139 12.2731 22.0904
12228 2 5.60618 12.4022 25.0642
12154 2 -0.106833 0.948176 19.5077
12220 2 11.1024 6.62301 25.2412
12247 2 8.54068 21.0445 25.0704
12201 2 -0.0866069 -1.69509 22.3603
12244 2 0.0352832 23.6341 24.9731
15222 2 13.9205 9.52195 25.179
12219 2 11.1521 3.83511 22.2541
12246 2 8.58173 23.6349 22.2655
12150 2 11.202 23.7108 14.0108
12218 2 5.48228 6.56923 25.1009
12217 2 8.39705 3.83052 25.2598
12245 2 5.75335 20.8585 22.1682
12152 2 2.89207 1.02453 16.5938
12216 2 8.46096 6.58158 22.3143
12243 2 2.82202 20.8115 25.085
12215 2 5.69563 3.79979 22.488
12156 2 8.35703 0.965172 16.6965
12211 2 -0.0911871 3.86533 22.0853
12158 2 5.71756 1.08472 19.6061
12229 2 11.1795 9.52375 22.403
12160 2 11.392 1.11758 19.2345
12242 2 2.57709 23.4085 22.1477
12162 2 2.76145 6.5236 16.5421
12163 2 2.75095 3.71895 19.4093
12240 2 11.0716 18.0622 25.0392
12165 2 5.53491 3.85846 16.545
12166 2 8.7873 6.60713 16.676
12167 2 8.42109 3.74736 19.4254
12168 2 5.62451 6.24776 19.357
12169 2 11.2866 3.7119 16.5689
12170 2 11.4138 6.62193 19.5416
12239 1 9.52696 16.8637 23.9458
12172 2 2.81329 12.3951 16.5047
12173 2 2.5405 9.50889 19.2792
12238 2 5.46534 18.0324 24.9784
12175 2 5.57076 9.47635 16.2797
12176 2 8.36288 12.4372 16.5863
12177 2 8.84298 9.4985 19.436
12178 2 5.53418 12.8112 19.3539
12179 2 11.4034 9.71657 16.7027
12180 2 11.3513 12.331 19.5857
12237 2 8.39023 15.1639 25.1339
12182 2 2.76831 17.957 16.6308
12183 2 2.58226 15.2169 19.4734
12236 2 8.45501 18.055 22.2916
12185 2 5.64187 15.2794 16.5276
12186 2 8.38008 17.8084 16.6504
12187 2 8.54042 15.2738 19.6134
12188 2 5.61204 17.9163 19.3717
12189 2 11.3716 15.1621 16.7128
12190 2 11.2634 18.1192 19.4926
12235 2 5.59967 15.1733 22.1748
12192 2 2.7138 23.5613 16.5726
12193 2 2.88785 20.7919 19.3789
12241 2 -0.037998 20.7419 22.2524
12195 2 5.69005 20.6938 16.5974
12196 2 8.51169 23.699 16.6361
12197 2 8.54015 20.92 19.1734
12198 2 5.69835 23.6751 19.4674
12199 2 11.3919 20.9323 16.6394
12200 2 11.2504 23.7548 19.4759
12233 2 2.81022 15.0099 25.0447
12202 2 2.70493 1.00692 22.2744
12134 2 5.65126 6.57659 13.9586
12232 2 2.80737 17.9243 22.2443
12042 2 2.5634 23.6855 27.8402
12206 2 8.53577 1.10181 22.3663
6309 1 1.62995 8.04216 20.6902
12208 2 5.64665 1.00441 25.1761
12171 2 0.0419684 9.53475 16.6314
12210 2 11.1118 1.10066 25.2028
12230 2 11.1581 12.3122 25.0917
12212 2 2.79262 6.63918 22.2721
12213 2 2.74444 3.81662 25.0348
12045 2 5.71328 20.843 27.9347
12011 2 -0.073955 3.75135 27.9455
12022 2 2.84415 12.0665 27.853
12181 2 -0.142952 15.0889 16.736
12025 2 5.60032 9.48273 27.8315
12164 2 0.0196907 6.68647 19.4875
12029 2 11.2033 9.46063 27.9521
12191 2 -0.10522 20.7728 16.4997
15242 2 13.9105 20.8552 24.9946
12002 2 2.83073 0.932701 28.0318
12194 2 0.050274 23.5081 19.3638
12214 2 -0.0695004 6.59096 24.9658
12012 2 2.68791 6.4592 27.8612
12035 2 5.6354 15.1759 27.904
12204 2 -0.117493 1.0038 25.14
12036 2 8.36248 18.1518 27.9969
15221 2 13.8295 12.4435 22.4273
15212 2 13.9535 3.90709 25.0166
12224 2 0.0812599 12.2436 25.0353
12174 2 -0.077961 12.2901 19.5067
12184 2 0.0164189 17.8892 19.3899
12234 2 -0.0361529 18.0051 25.1358
15182 2 13.9797 15.1633 19.625
12127 2 0.0390302 0.954127 13.9845
12147 2 -0.104848 23.7526 13.9598
12001 2 0.0642373 -1.77678 27.9439
12039 2 11.103 15.2287 27.9224
12149 2 5.66376 23.6899 13.9528
451 1 1.30423 25.0182 1.01869
452 1 4.16043 25.051 1.31821
453 1 4.22466 25.1921 3.92616
454 1 1.12829 25.0079 3.92068
455 1 6.91351 25.2568 1.07418
456 1 9.73422 25.1195 1.26405
457 1 9.80793 25.0252 4.08585
458 1 6.98368 24.9782 4.08896
459 1 12.6366 28.133 1.58078
460 1 12.549 25.1268 3.9763
461 1 1.12591 27.9321 1.43473
462 1 4.0418 27.712 1.02243
463 1 4.26761 27.8476 3.88842
464 1 1.27201 27.6973 3.95905
465 1 1.24604 30.6918 1.46417
466 1 3.97817 30.7951 1.19151
467 1 4.22403 30.6446 3.86377
468 1 1.48388 30.8919 4.60379
469 1 6.86518 28.0317 1.27476
470 1 9.7388 28.0482 0.983914
471 1 9.75246 27.8663 4.0076
472 1 6.97333 27.7462 4.07267
473 1 6.95622 30.7474 1.14909
474 1 9.64514 30.8523 1.19253
475 1 9.74947 30.7039 4.14318
476 1 7.13746 30.7736 4.03847
477 1 12.6624 30.6898 1.17595
478 1 12.8442 27.8784 4.16331
12341 2 0.0784133 26.1711 11.0871
480 1 12.4626 30.8306 4.02948
481 1 1.2341 36.4713 1.42812
482 1 1.46394 33.4814 1.16902
483 1 4.06842 33.4397 3.91832
484 1 4.14984 36.1122 4.15039
485 2 2.79527 37.6622 2.81784
486 1 4.17668 36.4495 1.33454
487 1 6.9818 36.6549 4.21721
488 1 1.25767 36.3015 4.22425
489 1 4.0923 33.4715 1.15779
490 1 6.89128 33.4988 1.42399
491 1 9.60719 33.5999 4.00937
492 1 6.9475 33.6277 4.27524
493 1 6.90358 36.3305 1.22211
494 1 9.54544 36.4458 1.23364
495 1 12.0327 37.9035 1.94529
496 1 9.59322 36.2871 3.95073
497 1 9.69383 33.7277 1.17673
12351 2 -0.035898 37.7687 11.0546
12384 2 2.87261 48.9597 14.0284
15327 2 13.8349 43.495 8.30077
501 1 1.39421 39.1385 1.1546
502 1 4.14571 39.2416 1.29564
503 1 4.12346 38.9251 4.21525
504 1 1.3329 39.2114 4.03562
505 1 1.25999 42.0556 1.17005
506 1 3.89706 41.8938 1.43153
507 1 4.18687 42.0496 4.03653
508 1 1.41292 42.0589 4.07114
509 1 6.99617 39.0865 1.296
510 1 9.72626 39.3396 1.29296
511 1 9.79112 39.1377 4.14377
512 1 6.93757 39.3006 4.10034
513 1 6.6923 42.0796 1.08192
514 1 9.56993 42.2575 1.21823
515 1 9.74586 41.9171 4.03897
516 1 7.01937 42.0037 4.0843
479 2 13.9066 29.5968 2.8464
89 1 12.6241 25.4135 1.00214
519 1 12.5387 42.3664 1.38654
520 1 12.5393 41.9851 4.16056
521 1 1.22613 44.8731 1.22487
522 1 4.13919 44.7601 1.42286
523 1 4.03815 44.8004 4.08705
524 1 1.33224 44.9995 4.23389
525 1 1.4465 47.7854 1.31076
526 1 4.20451 47.7453 1.50996
527 1 4.37862 47.8277 4.24183
528 1 1.21511 47.611 4.1826
529 1 7.04228 44.9272 1.47335
530 1 9.64577 44.8555 1.10842
531 1 9.7431 44.8019 4.11682
532 1 6.80354 44.7158 4.16625
533 1 6.93762 47.6009 1.23303
534 1 9.65126 47.4927 1.2102
535 1 9.69456 47.5904 4.03554
536 1 7.08666 47.5288 4.04416
537 1 12.5429 44.9899 1.10447
538 1 12.6429 44.8199 4.03586
539 1 12.6597 47.7556 1.15614
540 1 12.6405 47.5276 4.15447
541 1 1.39133 25.015 6.96578
542 1 4.29785 25.091 6.64305
543 1 4.18033 25.1589 9.40826
544 1 1.47755 24.8671 9.7429
545 1 7.0676 25.023 6.9571
546 1 9.80534 25.0203 6.8864
547 1 9.71547 25.0466 9.73796
548 1 7.00627 24.9745 9.64527
549 1 12.5462 24.9636 6.91977
550 1 12.6335 24.8597 9.64641
551 1 1.55315 27.6072 6.75565
552 1 4.48584 27.864 6.67977
553 1 4.32862 27.9019 9.59464
554 1 1.64981 27.58 9.81586
555 1 1.40164 33.5262 3.97838
556 1 3.83683 30.7202 6.60131
557 1 4.48218 30.817 9.44299
558 1 1.56068 30.8814 9.71582
559 1 7.28854 27.8791 6.9184
560 1 9.89584 28.0128 6.94477
561 1 9.75954 27.9798 9.7004
562 1 7.03984 27.9456 9.6444
563 1 6.80247 30.7242 6.80523
564 1 9.74555 30.7061 7.01428
565 1 9.70159 30.7575 9.6588
566 1 6.9435 30.7349 9.66877
567 1 12.3707 27.8415 6.98936
568 1 12.3774 27.7991 9.69781
569 1 12.5969 30.6241 6.80941
570 1 12.6113 30.6719 9.63943
571 1 1.50734 36.2079 7.00338
572 1 4.10971 33.6223 6.77528
573 1 4.28758 33.7175 9.68269
574 1 1.44238 33.6312 9.6665
575 1 4.31057 36.4668 7.01724
576 1 6.88302 36.1808 6.92093
577 1 4.17108 36.4962 9.84469
578 1 1.49011 36.4854 9.61639
579 1 6.78663 33.3969 6.87274
580 1 9.62658 33.6236 6.81617
581 1 9.6679 33.7962 9.56311
582 1 6.92604 33.4559 9.69822
583 1 9.88965 36.2706 6.77747
584 1 12.6483 36.5149 7.11479
585 1 9.63628 36.4686 9.82316
586 1 7.04766 36.2326 9.74371
587 1 12.3228 33.6166 6.92175
588 1 12.5659 33.5772 9.60251
589 1 12.4682 36.251 4.24694
590 1 12.8533 36.5975 9.73605
591 1 1.44519 39.2353 6.72564
592 1 4.26846 39.2853 7.00568
593 1 4.09072 39.2438 9.72924
594 1 1.22143 39.2901 9.75406
595 1 1.21983 42.1359 7.02179
596 1 4.07521 42.1691 6.82642
597 1 4.35127 41.737 9.76246
598 1 1.4404 42.212 9.77164
599 1 7.2294 39.0968 6.85556
600 1 9.87027 39.1843 6.77587
601 1 9.9418 39.1649 9.66957
602 1 7.08471 39.2104 9.55351
603 1 6.93058 41.9103 6.79037
604 1 9.68364 44.7972 6.91126
605 1 9.86115 41.9963 9.65124
606 1 7.16115 41.9835 9.8224
607 1 12.7799 39.4512 7.03962
608 1 12.675 39.3923 9.69559
609 1 12.5737 42.2009 6.80019
610 1 12.6018 42.1043 9.76106
611 1 1.48864 45.004 6.89619
612 1 4.27356 44.8974 6.99144
613 1 4.25663 44.9411 9.96623
614 1 1.28986 45.0435 9.84103
615 1 1.51569 47.7653 6.92175
616 1 4.31915 47.6658 7.02463
617 1 4.11225 47.761 9.75068
618 1 1.40975 47.8157 9.5668
619 1 7.03521 44.8191 6.86604
620 1 9.86788 47.5473 6.80614
621 1 9.7769 44.8311 9.56848
622 1 6.91012 44.748 9.56998
623 1 7.14562 47.6624 6.81383
12377 2 5.74572 40.5947 13.989
625 1 9.93389 47.6193 9.56733
626 1 6.96185 47.8993 9.59514
627 1 12.6631 44.9032 6.96041
628 1 12.5081 45.0144 9.72365
629 1 12.6384 47.6372 7.07856
630 1 12.5998 47.7938 9.82585
631 1 1.5029 25.1583 12.5658
632 1 4.20121 25.239 12.4247
633 1 7.00648 24.9108 12.4258
634 1 9.93714 25.1377 12.6004
635 1 12.7098 25.0672 12.4626
636 1 1.28029 27.9915 12.514
637 1 4.28416 28.1412 12.4164
638 1 1.14061 30.6912 12.4266
639 1 3.84038 30.808 12.2509
640 1 7.08681 27.798 12.4761
641 1 9.81762 27.8359 12.5173
642 1 6.91185 30.6442 12.3791
643 1 9.77663 30.6648 12.6369
644 1 12.4665 27.8007 12.56
645 1 12.6678 30.6808 12.4485
646 1 1.48256 33.5489 12.43
647 1 4.07322 33.8795 12.5771
648 1 1.2351 36.3693 12.2467
649 1 4.04695 36.7136 12.6008
650 1 6.86067 33.5654 12.5933
651 1 9.78041 33.6255 12.3306
652 1 6.91262 36.4887 12.6248
653 1 9.73974 36.3916 12.5957
654 1 12.7546 33.5555 12.314
655 1 12.4935 36.2914 12.5543
656 1 1.28675 39.2598 12.608
657 1 4.40865 39.2633 12.802
658 1 1.28946 41.926 12.5304
659 1 4.05311 42.166 12.3346
660 1 7.12575 39.2026 12.4516
661 1 9.92399 39.1981 12.494
662 1 7.05317 42.1215 12.5736
663 1 9.75002 42.0578 12.5604
664 1 12.6682 39.18 12.4143
665 1 12.7812 41.9096 12.4358
666 1 1.16919 44.6663 12.5665
667 1 3.95168 44.8636 12.6281
668 1 1.28653 47.6969 12.5896
669 1 4.11681 47.5377 12.5904
670 1 6.95466 45.001 12.6415
671 1 9.80304 44.9935 12.436
672 1 7.06217 47.7118 12.3235
673 1 10.0086 47.8232 12.4354
674 1 12.5484 44.7689 12.5429
675 1 12.8516 47.697 12.5663
12363 2 11.3537 49.1454 11.133
12274 2 0.0885827 40.5229 2.5757
12253 2 2.59614 26.2705 2.60912
12362 2 5.61804 49.1057 11.1274
12366 2 8.43684 26.4452 13.9185
12348 2 5.35693 32.0461 11.1276
12257 2 8.14611 26.5185 2.62027
12258 2 5.48838 29.3346 2.46097
12347 2 2.68996 35.1047 11.0615
12260 2 10.8245 29.3191 2.52208
12326 2 -0.0645885 43.5849 5.51859
15316 2 14.0036 40.8023 5.50234
12263 2 2.66575 32.0606 2.69573
12360 2 11.1269 43.3517 11.0919
12319 2 -0.0371191 40.7213 8.23667
917 1 12.6004 50.5922 1.31034
12267 2 8.38355 32.0935 2.65934
12268 2 5.56672 34.9186 2.69767
12309 2 0.151485 34.9418 8.32465
12270 2 11.1253 35.2334 2.57938
12359 2 8.5386 46.4609 11.0997
6463 1 12.5217 33.3532 1.18332
12273 2 5.57365 37.7768 5.63708
12358 2 5.70855 43.4561 11.1728
12367 2 5.52604 29.1825 13.9306
12284 2 0.015935 46.2592 2.63982
12277 2 8.42208 37.8427 2.69997
12278 2 5.54629 40.5455 2.74226
12316 2 0.00325703 37.8457 5.61194
12280 2 11.3534 40.4682 2.65977
15452 2 13.7949 37.8916 0.0450754
500 1 12.5879 39.1495 4.42057
12283 2 2.71265 43.4366 2.73332
15326 2 13.9292 46.1891 5.51175
12345 2 11.1945 26.312 11.0092
15341 2 13.8874 29.1948 11.1311
12287 2 8.36088 43.4989 2.7763
12288 2 5.49268 46.1455 2.65098
499 1 11.9407 35.6951 0.140842
12290 2 10.9959 46.1463 2.50936
12350 2 11.3512 32.1149 11.1052
12292 2 2.66546 49.0736 2.80978
12352 2 2.82347 40.5722 11.2161
12294 2 8.48514 48.9968 2.51741
12368 2 11.011 29.0787 13.9282
12357 2 2.61291 46.1643 11.0932
12297 2 2.92488 28.861 5.4617
12298 2 2.93983 26.6314 8.27671
12299 1 1.43917 33.4904 6.92095
12300 2 5.78356 26.4535 5.51171
12301 2 8.45137 29.3547 5.50358
12302 2 8.45599 26.4745 8.32583
12303 2 5.79244 29.2046 8.21988
12304 2 11.0978 26.3777 5.44659
12305 2 11.0481 29.2004 8.38325
12329 2 -0.0587563 46.1963 8.35091
12307 2 2.75337 34.885 5.58062
12308 2 2.93018 32.1654 8.34787
12355 2 11.2902 37.8107 11.086
12310 2 5.43597 32.1058 5.24873
12311 2 8.29726 34.9478 5.51826
12312 2 8.21092 32.1116 8.12844
12313 2 5.63291 34.9701 8.28719
12314 2 11.092 32.0817 5.38112
12315 2 11.0502 35.0306 8.3665
12354 2 8.50603 40.6496 11.1308
12317 2 2.78735 40.6863 5.59004
12318 2 2.78246 37.9778 8.3324
6571 1 12.4665 33.5331 4.13203