ITEM: TIMESTEP
450000
ITEM: NUMBER OF ATOMS
18000
ITEM: BOX BOUNDS xy xz yz pp pp pp
-1.5872001106638114e-01 2.8052720011064608e+01 0.0000000000000000e+00
-1.7212674921389772e+00 3.3644926749213806e+02 0.0000000000000000e+00
-1.6142798826071933e-01 2.8055427988260455e+01 0.0000000000000000e+00
ITEM: ATOMS id type x y z
1 1 1.04218 -0.169112 1.18217
2 1 3.93096 -0.355355 1.15654
3 1 3.81467 -0.390695 3.96795
4 1 1.16973 -0.224916 4.12721
5 1 1.08915 2.64556 1.02402
6 1 3.89029 2.54523 1.34982
7 1 4.10442 2.53718 4.15246
8 1 1.19946 2.47677 4.20027
9 1 6.73414 -0.206622 1.1964
10 1 9.3713 -0.340394 1.33319
11 1 9.60139 -0.274779 4.1809
12 1 6.7856 -0.308986 4.1559
13 1 6.63246 2.48815 1.37537
14 1 9.50831 2.47852 1.21582
15 1 9.63042 2.56296 4.05849
16 1 6.93239 2.39672 4.20664
17 1 12.3338 -0.372553 1.26204
18 1 12.5547 -0.559504 4.12523
19 1 12.3762 2.33431 1.28813
20 1 12.3317 2.20035 3.9629
21 1 1.10283 5.21818 1.20796
22 1 3.83494 5.46875 1.15132
23 1 4.0258 5.28218 4.09298
24 1 1.3221 5.17906 4.10031
25 1 1.01153 8.07542 1.20177
26 1 4.042 8.13628 1.36074
27 1 4.00953 8.10381 4.25002
28 1 1.13079 8.00783 4.12718
29 1 6.59857 5.31308 1.24803
30 1 9.46365 5.18579 1.174
31 1 9.61875 5.15508 3.93119
32 1 6.73816 5.35284 4.19092
33 1 6.8588 7.99279 1.45314
34 1 9.60151 8.11268 1.33295
35 1 9.64978 8.01207 4.19515
36 1 6.78645 8.38847 4.04186
37 1 12.0398 5.43023 1.0854
38 1 12.4189 5.2468 3.98194
39 1 12.5214 8.22899 1.26013
12022 2 2.70588 12.3209 -0.0700422
41 1 1.19753 10.9109 1.34334
42 1 4.07817 10.8628 1.15674
43 1 4.15888 10.7406 4.05216
44 1 1.34088 11.0218 4.16811
12084 2 -0.152439 17.9939 8.30319
46 1 4.04869 13.7901 1.35634
47 1 4.12304 13.6329 3.98491
48 1 1.3026 14.0601 4.10103
49 1 6.75372 10.8032 1.4039
50 1 9.75469 10.8785 1.08896
51 1 9.62823 10.8461 4.04946
52 1 6.92615 10.9775 4.2747
53 1 6.80429 13.7313 1.38883
54 1 9.68431 13.8443 1.28291
55 1 9.48837 13.8637 3.9837
56 1 6.85662 13.7596 4.12865
57 1 12.6273 10.8836 1.296
58 1 12.5694 11.1634 3.88349
59 1 12.4997 13.6426 1.39441
60 1 12.3914 14.0543 4.10783
61 1 1.37552 16.1143 1.3981
62 1 4.28519 16.6305 1.3104
63 1 4.02355 16.6982 4.15466
64 1 0.774852 16.8449 4.15109
65 1 1.19778 19.5085 1.31331
66 1 4.00114 19.3548 1.31392
67 1 4.11962 19.4375 4.10966
68 1 1.09023 19.69 3.97333
69 1 6.92655 16.544 1.12848
70 1 9.69781 16.6505 1.36061
71 1 9.5837 16.7335 4.18898
72 1 6.8197 16.5743 3.98144
73 1 6.81062 19.4359 1.22417
74 1 9.72016 19.5028 1.12465
75 1 9.68491 19.5918 4.24798
76 1 6.89345 19.6108 3.82306
77 1 12.5611 16.6268 1.39758
78 1 12.4835 16.7005 4.19718
79 1 12.4694 22.3593 1.17927
80 1 12.5246 19.5866 4.02805
81 1 1.15894 22.348 1.03225
82 1 4.00057 22.1831 1.2297
83 1 3.92919 22.3337 4.19006
84 1 1.19646 22.4946 4.12907
85 1 6.80665 22.4016 1.32968
86 1 9.59123 22.2978 1.17995
87 1 9.56274 22.3392 3.96418
88 1 6.98002 22.2974 3.90152
12006 2 8.15031 1.0986 -0.130682
90 1 12.4237 22.4354 4.1315
91 1 1.33967 -0.279515 6.72777
92 1 4.1306 -0.319887 6.95535
93 1 4.33518 -0.180235 9.83267
94 1 1.24836 -0.475189 9.5519
95 1 1.49149 2.47048 6.88552
96 1 4.29495 2.50163 7.00082
97 1 4.13105 2.52743 9.71921
98 1 1.39743 2.40503 9.59445
99 1 6.73599 0.0436114 6.87104
100 1 9.55228 -0.221055 6.98558
101 1 9.67068 -0.115213 9.73337
102 1 6.97077 -0.0343477 9.66642
103 1 6.86392 2.5944 7.00491
104 1 9.58108 2.63549 6.82523
105 1 9.52284 2.7341 9.7353
106 1 6.79139 2.72982 9.78747
107 1 12.5049 -0.302941 6.79685
108 1 12.4074 -0.144077 9.75187
109 1 12.3773 2.63159 6.87454
110 1 12.4757 2.51314 9.87136
111 1 1.13387 5.18827 6.8698
112 1 4.1513 5.30453 6.79533
113 1 4.11363 5.42025 9.81018
114 1 1.2361 5.32079 9.77398
115 1 1.34116 7.92789 6.9342
116 1 4.08154 8.13756 7.01139
117 1 4.05502 8.44291 10.0662
118 1 1.276 8.06345 9.6503
119 1 6.82707 5.34584 6.97825
120 1 9.53932 5.6102 6.80181
121 1 9.80865 5.49364 9.89806
122 1 6.89853 5.54374 9.77029
123 1 6.86818 8.31305 6.99374
124 1 9.7857 8.3966 6.94928
125 1 9.85164 8.18164 9.90395
126 1 6.91215 8.49099 9.82466
127 1 12.1636 5.46859 6.70857
128 1 12.4019 5.41325 9.73345
129 1 12.6966 8.21325 7.00488
130 1 12.6472 8.24327 9.73661
131 1 1.42593 11.1502 6.81558
132 1 4.19224 11.0661 6.95186
133 1 4.16719 11.2578 9.74345
134 1 1.36828 10.8565 9.754
135 1 1.17906 13.8431 7.01029
136 1 4.13821 14.0367 6.67216
137 1 4.12201 13.9858 9.41447
138 1 1.34728 13.7545 9.66412
139 1 6.95938 11.2099 7.00151
140 1 9.77855 11.1357 6.96035
141 1 9.86842 10.9155 9.75074
142 1 7.02335 11.2559 9.89792
143 1 6.82776 13.9828 6.90366
144 1 9.79267 13.7722 6.94513
145 1 9.7554 14.1795 9.72892
146 1 6.94451 13.944 9.67551
147 1 12.7264 10.7377 6.57624
148 1 12.6217 11.0168 9.59062
149 1 12.4213 13.6004 6.97902
150 1 12.5365 13.6805 9.76756
151 1 1.28024 16.5096 6.72562
152 1 3.84972 16.8406 6.90412
153 1 4.14218 16.8047 9.76813
154 1 1.29377 16.8419 9.57459
155 1 1.22742 19.4065 6.92223
156 1 4.14459 19.4938 7.01479
157 1 4.09113 19.4565 9.98221
158 1 1.18253 19.5511 9.79487
159 1 6.81878 16.7905 6.83394
160 1 9.38798 16.6083 6.72245
161 1 9.67771 16.9076 9.62144
162 1 6.72192 16.6964 9.75159
163 1 6.75551 19.6207 6.78196
164 1 9.60122 19.5626 7.04363
165 1 9.57673 19.5996 9.91167
166 1 6.83029 19.4967 9.64189
167 1 12.3479 16.4735 6.90685
168 1 12.5169 16.4265 9.73599
169 1 12.4023 19.5396 6.92296
170 1 12.4765 19.6344 9.52898
171 1 1.17342 22.1229 7.03463
172 1 3.90003 22.1917 7.01315
173 1 4.04411 22.4779 9.98394
174 1 1.39773 22.3162 9.90338
175 1 6.59952 22.4758 6.77971
176 1 9.51529 22.2071 6.88822
177 1 9.506 22.3899 9.51557
178 1 6.7677 22.2435 9.60088
179 1 12.3346 22.3089 6.81697
180 1 12.2803 22.4859 9.58144
181 1 1.1308 -0.130512 12.4289
182 1 4.13922 -0.234908 12.5691
183 1 1.14561 2.51943 12.3574
184 1 3.78336 2.7289 12.36
185 1 6.89563 -0.294738 12.4939
186 1 9.59579 -0.233411 12.4478
187 1 6.93956 2.37791 12.7526
188 1 9.80237 2.59425 12.6501
189 1 12.3105 -0.110867 12.5973
190 1 12.4372 2.73442 12.6896
191 1 1.32301 5.50491 12.5012
192 1 4.04372 5.44408 12.5548
193 1 1.35065 8.37262 12.4037
194 1 4.24919 8.33137 12.7321
195 1 6.72765 5.38727 12.61
196 1 9.47476 5.52723 12.6981
197 1 7.05214 8.25087 12.608
198 1 9.88687 8.39553 12.6026
199 1 12.3449 5.36545 12.606
200 1 12.571 8.31696 12.6698
201 1 1.24899 11.0813 12.2808
202 1 3.96328 11.0007 12.6279
203 1 1.25914 13.9659 12.4492
204 1 4.05418 13.8472 12.4016
205 1 6.91135 11.1058 12.5379
206 1 9.93315 11.149 12.582
207 1 7.11504 13.8718 12.5578
208 1 9.83921 13.9364 12.4599
209 1 12.5881 11.1103 12.5879
210 1 12.6651 13.9452 12.4751
211 1 1.25417 16.7163 12.508
212 1 4.09135 16.5729 12.4838
213 1 1.23381 19.525 12.7328
214 1 3.99091 19.4484 12.7213
215 1 6.99929 16.7807 12.493
216 1 9.66528 16.8082 12.4178
217 1 6.91022 19.8133 12.4031
218 1 9.6577 19.6841 12.5907
219 1 12.3593 16.7822 12.3117
220 1 12.3014 19.5419 12.4803
221 1 1.28175 22.2177 12.6091
222 1 4.08292 22.2421 12.8803
223 1 6.83463 22.4515 12.6309
224 1 9.76936 22.4561 12.481
225 1 12.6664 22.3187 12.5972
15101 2 13.9545 1.03282 11.0391
12016 2 8.15321 6.62712 -0.0330757
12012 2 2.63268 6.89052 -0.166628
12024 2 -0.165071 11.9192 2.68471
15092 2 13.8832 20.9915 8.32907
12140 2 11.0859 12.4283 13.9085
15001 2 13.8304 1.02201 -0.0113283
12008 2 5.26153 1.16296 2.48965
12015 2 5.36799 3.90187 -0.141436
12010 2 10.8655 0.977832 2.66853
12125 2 11.0849 20.9519 11.053
12071 2 -0.01851 9.35348 5.64553
12013 2 2.66939 3.91782 2.69413
12124 2 8.21513 23.6508 11.161
12101 2 -0.0486595 -1.61789 11.1381
6054 1 1.15651 13.5813 1.28508
12017 2 8.13447 3.76701 2.71634
12018 2 5.25932 6.77336 2.76168
15061 2 13.9272 6.6698 5.51135
12020 2 11.0195 6.65799 2.53952
12113 2 5.46523 9.83588 11.1698
12104 2 8.305 1.10719 11.1528
12023 2 2.52626 9.30266 2.66167
12003 2 2.58801 -1.74329 2.73912
40 1 12.7408 8.24014 4.16329
12107 2 2.64844 6.72193 11.1447
12027 2 8.2387 9.50988 2.77558
12028 2 5.65232 12.2437 2.87564
12064 2 -0.103196 6.68081 8.37834
12030 2 11.0547 12.3623 2.55897
12102 2 2.74412 0.903628 11.202
12114 2 8.52812 12.5601 11.0815
12033 2 3.00003 15.1428 2.71141
15121 2 13.8495 23.6773 10.9781
12100 2 10.9797 23.6972 8.24117
12099 2 10.8244 20.9124 5.66568
12037 2 8.07801 15.1981 2.57732
12038 2 5.46931 18.1677 2.69089
12098 2 5.39656 23.807 8.39531
12040 2 11.0031 18.0945 2.64965
12097 2 8.28822 20.8021 8.40119
12134 2 5.55683 6.80252 13.8836
12043 2 2.6107 20.7638 2.59592
12123 2 5.31762 20.9499 11.3079
12096 2 8.20428 23.5584 5.48096
12095 2 5.3319 20.9381 5.36031
12047 2 8.36241 20.8382 2.52098
12048 2 5.34078 23.5393 2.64975
12115 2 11.2345 9.65816 11.2183
12050 2 11.0428 23.6779 2.64887
15091 2 13.8027 23.6011 5.49175
12052 2 2.74886 1.05857 5.52745
12112 2 2.65286 12.4239 11.0619
12122 2 2.60327 23.7293 11.3093
12110 2 11.0385 3.93848 11.197
12056 2 8.20336 1.09986 5.58192
12109 2 8.34192 6.86734 11.1432
12058 2 5.54733 1.10161 8.37824
12108 2 5.49432 4.16269 11.2539
12060 2 11.0195 1.08044 8.37207
12120 2 11.2083 15.2815 11.1591
12062 2 2.64987 6.63677 5.52372
12063 2 2.7713 3.7294 8.28134
12119 2 8.3156 18.2641 11.0441
12065 2 5.50779 3.76508 5.5231
12066 2 8.21313 6.77721 5.52103
12067 2 8.38963 4.09582 8.34488
12068 2 5.54252 6.78176 8.37026
12069 2 10.972 3.84769 5.42088
12070 2 11.1436 6.88475 8.29665
15051 2 13.8541 1.05784 5.42614
12072 2 2.71097 12.5094 5.55645
12073 2 2.76074 9.52676 8.3037
12118 2 5.49551 15.3861 11.223
12075 2 5.39936 9.63075 5.50686
12076 2 8.3024 12.3203 5.55408
12077 2 8.35087 9.69169 8.33898
12078 2 5.52671 12.5489 8.31633
12079 2 11.1922 9.50441 5.30314
12080 2 11.0608 12.3569 8.30255
12105 2 11.0542 -1.59053 11.0781
12082 2 2.52638 18.0781 5.44949
12083 2 2.67981 15.3805 8.31162
12117 2 2.77346 18.0297 11.1796
12085 2 5.49243 15.2624 5.5113
12086 2 8.2373 18.1657 5.45012
12087 2 8.16149 15.2452 8.25198
12088 2 5.49778 18.1496 8.28899
12089 2 10.9957 15.2122 5.37793
12090 2 11.1548 17.9273 8.32148
440 1 12.5456 19.5546 1.31002
12092 2 2.63797 23.75 5.58734
12093 2 2.71203 20.9372 8.4879
15062 2 13.7917 3.88772 8.42025
15042 2 13.9437 20.8264 2.71365
12137 2 -0.244405 12.4929 13.7426
15022 2 13.9547 9.44663 2.56256
15032 2 13.8902 15.179 2.68258
12032 2 2.79323 18.047 -0.136593
15081 2 13.9148 17.9659 5.34204
15116 2 13.7927 17.995 11.0751
15106 2 13.8226 6.59211 11.2436
12045 2 5.36388 20.6997 -0.214088
12054 2 -0.0756607 1.00572 8.26153
12029 2 11.1607 9.68631 -0.22162
12074 2 -0.156212 12.4049 8.43471
12091 2 -0.173983 21 5.65097
12025 2 5.42309 9.54147 -0.039292
12059 2 11.0463 -1.68822 5.40084
15082 2 13.8953 14.9181 8.10086
15012 2 13.7893 3.7706 2.59408
12026 2 8.1762 12.4506 -0.203121
12136 2 2.65729 9.48799 13.9121
12129 2 5.43641 1.22102 13.9103
12145 2 10.9917 18.1724 13.8247
12139 2 5.58911 12.5023 13.8337
12141 2 2.76388 15.1265 13.7729
12142 2 -0.0709441 17.9602 13.9957
12143 2 8.40748 15.4426 13.7874
12144 2 5.47944 18.2172 13.9251
15146 2 13.9401 20.6734 13.8863
12131 2 2.50138 4.0531 13.8184
226 1 3.93154 -0.151898 15.4615
227 1 1.20905 -0.181721 15.1882
228 1 3.88995 2.70876 15.3505
229 1 1.1681 2.61944 15.2659
230 1 9.72406 -0.336722 15.431
231 1 6.74586 -0.0878929 15.444
232 1 9.44489 2.6278 15.637
233 1 6.66238 2.52858 15.4649
234 1 12.4 -0.280388 15.5626
235 1 12.2745 2.47382 15.5004
236 1 4.16707 5.44524 15.37
237 1 1.25989 5.28815 15.3729
238 1 4.07324 8.2442 15.686
239 1 1.21743 8.21495 15.2141
240 1 9.80295 5.37811 15.6658
241 1 6.91698 5.37531 15.4203
242 1 9.75037 8.09633 15.3335
243 1 6.97454 8.16248 15.3671
244 1 12.5876 5.38769 15.4841
245 1 12.5528 8.23096 15.3678
246 1 4.05199 11.0006 15.2916
247 1 1.18688 11.2038 15.144
248 1 4.20139 13.8837 15.0753
249 1 1.2616 13.9453 15.4159
250 1 9.6828 10.9384 15.4001
251 1 6.86452 11.0558 15.2521
252 1 9.58167 13.8594 15.3134
253 1 6.79374 14.0157 15.2547
254 1 12.3925 10.9247 15.2485
255 1 12.3858 13.8946 15.253
256 1 4.05521 16.8069 15.2326
257 1 1.45265 16.7596 15.2938
258 1 4.15013 19.6755 15.45
259 1 1.31756 19.5349 15.4708
260 1 9.53783 16.7619 15.1968
261 1 6.68897 16.8013 15.1434
262 1 9.67727 19.5302 15.3689
263 1 6.91548 19.7898 15.4311
264 1 12.3217 16.6378 15.1677
265 1 12.5306 19.4027 15.275
266 1 4.07758 22.3494 15.622
267 1 1.23842 22.3663 15.5341
268 1 9.59208 22.5024 15.2168
269 1 6.97798 22.3434 15.3656
270 1 12.4105 22.3134 15.5611
271 1 1.30418 -0.199672 18.1094
272 1 3.93361 -0.228324 18.1767
273 1 3.82735 -0.24772 20.868
274 1 1.15197 -0.418923 20.6524
275 1 1.12569 2.70031 18.0574
276 1 3.89273 2.51931 17.9878
277 1 3.82606 2.70056 20.9995
278 1 1.0724 2.53183 20.9358
279 1 6.87813 -0.145483 18.1376
280 1 9.5207 -0.324633 18.4037
281 1 9.61598 -0.3849 21.0567
282 1 6.72924 -0.138913 21.0956
283 1 6.47477 2.78059 18.3152
284 1 9.4797 2.62324 18.2576
285 1 9.51932 2.48236 21.0332
286 1 6.6751 2.65585 20.9831
287 1 12.3763 -0.256626 18.3148
288 1 12.387 -0.316384 21
289 1 12.5777 2.39737 18.3538
290 1 12.1942 2.43985 20.9385
291 1 1.26235 5.46982 18.1774
292 1 4.20763 5.38047 18.1579
293 1 3.93713 5.34322 20.9053
294 1 1.26596 5.36112 20.9405
295 1 1.34266 8.18526 17.9566
296 1 4.03898 8.18818 18.5185
297 2 5.32496 9.7172 19.8231
298 1 4.03871 8.44174 21.2547
299 1 6.95897 5.61865 18.2969
300 1 9.60866 5.38559 18.4708
301 1 9.64615 5.35616 21.2609
302 1 6.76935 5.3869 21.0695
303 1 6.76296 8.50362 18.2526
304 1 9.65804 8.06554 18.2463
305 1 9.53833 8.29146 21.2767
306 1 6.69064 8.36665 21.0747
307 1 12.3509 5.30457 18.2141
308 1 12.4567 5.32664 20.9
309 1 12.5142 8.09936 18.0673
310 1 12.1981 8.26625 21.0112
311 1 1.07524 11.0593 17.9515
312 1 4.3011 10.9628 18.0683
313 1 3.8363 11.0813 20.7658
314 1 0.916521 11.0101 20.9818
315 1 1.33819 13.7006 18.4076
316 1 4.03351 13.9904 17.8348
317 1 3.88037 13.8405 20.8669
318 1 1.09199 13.859 21.0641
319 1 6.94394 10.9956 18.3185
320 1 9.62843 10.9572 18.1613
321 1 9.57405 10.9536 21.0447
322 1 6.50963 10.9139 21.1142
323 1 6.88342 13.9952 18.0256
324 1 9.47577 13.7915 18.0751
325 1 9.47302 13.5971 20.7936
326 1 6.71842 13.6573 21.0317
327 1 12.4755 10.9466 18.2278
328 1 12.2276 10.9054 21.0348
329 1 12.3396 13.8022 17.9704
330 1 12.6127 13.7288 20.6776
331 1 1.1351 16.6529 18.0265
332 1 4.03042 16.7052 18.2634
333 1 3.99778 16.6498 21.0264
334 1 1.23377 16.5395 21.1522
335 1 1.23626 19.587 18.4218
336 1 4.05959 19.4701 18.2198
337 1 3.98465 19.4211 21.1065
338 1 1.24966 19.5261 21.0998
339 1 6.97137 16.7132 18.1874
340 1 9.71985 16.8962 17.971
341 1 9.43032 16.8829 20.7089
342 1 6.79355 16.5398 20.8978
343 1 6.70523 19.542 18.314
344 1 9.62378 19.5681 18.1425
345 1 9.57241 19.6516 21.0248
346 1 6.80684 19.4978 20.9386
347 1 12.4768 16.6358 17.9877
348 1 12.6781 16.8506 20.7132
349 1 12.3958 19.5054 18.2204
350 1 12.4806 19.5378 21.0622
351 1 1.17068 22.242 18.1292
352 1 4.03097 22.3457 18.2416
353 1 4.00032 22.2087 20.9245
354 1 1.22258 22.2747 21.0176
355 1 6.88414 22.5973 18.3401
356 1 9.76582 22.4078 18.0522
357 1 9.65101 22.4476 20.9446
358 1 6.64415 22.3693 21.0432
359 1 12.6098 22.2648 18.2602
360 1 12.5232 22.4767 21.0381
361 1 1.12151 -0.0974553 23.6174
362 1 3.87283 -0.478436 23.6172
363 1 4.02204 -0.316323 26.6606
364 1 1.24111 -0.224235 26.5409
365 1 1.45979 2.63569 23.6754
366 1 4.20293 2.44766 23.9603
367 1 3.85704 2.48508 26.5049
368 1 1.00652 2.50516 26.4131
369 1 6.79369 -0.368139 23.9967
370 1 9.61408 -0.346912 23.9575
371 1 9.55376 -0.440637 26.7606
372 1 6.76072 -0.322619 26.7457
373 1 6.94774 2.65691 23.7179
374 1 9.64504 2.52889 23.8577
375 1 9.48902 2.36523 26.5873
376 1 6.77617 2.58018 26.6926
377 1 12.1701 -0.142426 23.9056
378 1 12.4234 -0.345126 26.6739
379 1 12.4032 2.68223 23.6567
380 1 12.2347 2.48282 26.6969
381 1 1.06589 5.32084 23.6748
382 1 4.01777 5.30932 23.705
383 1 3.97625 5.38311 26.6925
384 1 1.31362 5.43884 26.4191
385 1 1.21628 8.11496 23.8539
386 1 3.99185 8.14809 24.1643
387 1 4.09018 8.19791 26.7971
388 1 1.21147 8.09673 26.7533
389 1 6.72981 5.42488 23.9037
390 1 9.50121 5.33365 23.949
391 1 9.46008 5.53371 26.4678
392 1 6.70376 5.28069 26.7025
393 1 6.86065 8.08415 24.0194
394 1 9.69279 8.03255 23.9192
395 1 9.90036 8.34064 26.7027
396 1 6.91914 8.14543 26.8478
397 1 12.2327 5.57937 23.6848
398 1 12.2674 5.30323 26.5968
399 1 12.5074 8.08019 23.8982
400 1 12.7185 7.99883 26.6978
401 1 1.22699 10.8335 23.7384
402 1 4.04933 11.1234 23.756
403 1 4.20311 10.9905 26.7337
404 1 1.05849 10.8721 26.574
405 1 1.30729 13.7299 23.9326
406 1 4.00928 13.8935 23.7866
407 1 3.8203 13.6783 26.7185
408 1 1.05068 13.7513 26.6404
409 1 6.76909 10.9754 23.9209
410 1 9.74669 10.8432 23.9156
411 1 9.72437 11.2722 26.6453
412 1 6.99007 11.0625 26.6596
413 1 6.83709 13.7058 23.7949
414 1 9.58333 14.0157 23.7761
415 1 9.52116 13.9847 26.7818
416 1 6.40967 13.6603 26.6905
417 1 12.3299 10.7792 23.917
418 1 12.6605 10.9498 26.7406
419 1 12.5773 13.5719 23.9598
420 1 12.4612 13.797 26.7143
421 1 0.911546 16.4726 24.0295
422 1 3.85283 16.6228 23.8463
423 1 3.96835 16.5633 26.6193
424 1 1.14013 16.8313 26.9188
425 1 1.29191 19.4486 23.8787
426 1 4.05358 19.2197 23.8214
427 1 4.0532 19.4532 26.588
428 1 1.2293 19.6464 26.8849
429 1 6.64931 16.4114 23.658
430 1 9.74176 19.6792 23.8046
431 1 9.92906 16.7952 26.7446
432 1 6.99067 16.3436 26.5834
433 1 6.87083 19.1534 23.8528
434 1 12.6014 19.5735 26.7708
435 1 9.78466 19.5079 26.5428
436 1 6.95832 19.3799 26.7409
437 1 12.5152 16.7046 23.9048
438 1 12.636 16.7498 26.4938
439 1 12.7954 19.3852 23.7472
15231 2 14.0076 18.0502 22.374
441 1 1.49658 22.4801 23.868
442 1 4.08179 22.0477 23.6723
443 1 3.80366 22.1465 26.587
444 1 0.983 22.3364 26.4319
445 1 6.93097 22.2236 23.8485
446 1 9.55797 22.392 23.7316
447 1 9.40409 22.5178 26.3939
448 1 6.47656 22.1357 26.6552
449 1 12.4834 22.2319 23.7509
450 1 12.4515 22.3797 26.513
12046 2 8.13048 23.6068 28.2317
12250 2 11.0494 23.6672 25.0666
12147 2 -0.130674 23.6998 14.0132
15162 2 13.7947 3.83739 19.7384
15161 2 13.9499 6.77157 16.697
12227 2 8.40303 9.5291 25.232
12249 2 11.0293 20.8888 22.266
12226 2 8.34385 12.3135 22.4307
12225 2 5.46505 9.52562 22.9734
12039 2 11.0986 15.2879 28.0915
12223 2 2.54449 9.64854 25.2258
12248 2 5.30231 23.7164 25.2188
12222 2 2.43373 12.3296 22.4019
12228 2 5.409 12.4631 25.2156
12157 2 8.10979 -1.63783 19.751
12220 2 11.0991 6.7286 25.2844
12247 2 8.15957 20.8755 25.2155
12207 2 8.19566 -1.78462 25.3501
15191 2 13.7872 23.6776 16.7232
15171 2 13.6922 12.3474 16.7415
12219 2 10.9395 3.9067 22.4315
12246 2 8.06257 23.7286 22.2904
12203 2 2.60208 -1.7672 25.1716
12218 2 5.37735 6.68078 25.4503
12217 2 8.16478 4.01476 25.2766
12245 2 5.41765 20.7224 22.3934
12152 2 2.5272 1.27877 16.607
12216 2 8.21951 6.66881 22.5125
12243 2 2.59552 20.8367 25.2836
12215 2 5.41835 3.95491 22.466
12156 2 8.19241 1.16489 16.8107
15211 2 13.6128 6.89623 22.2386
12158 2 5.28463 1.14249 19.6012
12229 2 11.0717 9.51453 22.5113
12160 2 10.9667 1.06801 19.6332
12242 2 2.64532 23.6495 22.3244
12162 2 2.56784 6.77143 16.692
12163 2 2.63542 3.92149 19.4573
12240 2 11.3022 18.0297 25.2106
12165 2 5.42288 4.01166 16.7373
12166 2 8.26029 6.7561 16.7117
12167 2 8.14402 4.01149 19.5299
12168 2 5.42068 6.60838 19.6263
12169 2 11.1692 3.81122 16.9839
12170 2 10.9975 6.74282 19.7008
12239 1 9.45562 16.9795 24.0425
12172 2 2.54388 12.5403 16.5915
12173 2 2.13847 9.76327 19.4889
12238 2 5.57243 17.7708 25.011
12175 2 5.54737 9.685 16.4712
12176 2 8.21612 12.5149 16.6305
12177 2 8.5606 9.50745 19.5529
12178 2 5.40199 12.7682 19.387
12179 2 11.1284 9.49161 16.7628
12180 2 11.1046 12.5432 19.7548
12237 2 8.36059 15.163 25.148
12182 2 2.67614 17.9213 16.8099
12183 2 2.49167 15.3432 19.5521
12236 2 8.20354 17.9813 22.4112
12185 2 5.46672 15.4837 16.5283
12186 2 8.21308 18.1395 16.7819
12187 2 8.4119 15.2431 19.5965
12188 2 5.64325 17.9466 19.6796
12189 2 11.0066 15.3025 16.7177
12190 2 11.0824 18.0202 19.6533
12235 2 5.42183 15.0421 22.2668
12192 2 2.63769 23.576 16.7877
12193 2 2.79294 20.7998 19.5577
12154 2 -0.120704 1.17802 19.4857
12195 2 5.53838 21.0454 16.8771
12196 2 8.4238 23.6954 16.7639
12197 2 8.07136 20.9157 19.7434
12198 2 5.32422 23.7634 19.607
12199 2 11.1699 20.8238 16.7853
12200 2 11.0746 23.7034 19.6757
12233 2 2.65969 15.1114 25.1822
12202 2 2.63082 1.17465 22.4068
12130 2 11.0341 1.07665 14.0742
12232 2 2.54899 17.9896 22.4821
12128 2 8.25786 -1.55854 13.9914
12206 2 8.30249 1.17762 22.5783
6309 1 1.19294 8.25556 20.7746
12208 2 5.41408 0.947591 25.2561
12153 2 2.59353 -1.73266 19.5209
12210 2 10.9872 1.06216 25.3004
12230 2 11.1581 12.482 25.1907
12212 2 2.48744 6.63585 22.4244
12213 2 2.56549 3.96072 25.2198
15202 2 13.7662 -1.69985 25.2891
12002 2 2.57293 1.0692 28.0534
12155 2 5.35588 -1.53068 16.8615
12150 2 11.2465 23.6845 13.9463
15152 2 13.9221 -1.79693 19.7078
15181 2 13.7475 18.0925 16.791
15201 2 13.8391 1.10266 22.4389
15212 2 13.7011 4.01255 25.236
12148 2 8.42148 20.9528 13.9216
12135 2 11.1056 6.79788 14.0755
12138 2 8.47794 9.78355 13.8976
15172 2 13.8619 9.64064 19.5189
15151 2 13.69 1.1549 17.0053
15222 2 13.8485 9.48315 25.3588
15221 2 13.7229 12.4124 22.3252
15131 2 13.9178 3.89993 14.0419
12035 2 5.50315 15.1273 28.1045
12036 2 8.39667 18.0729 28.0101
12049 2 11.002 21.0615 27.851
15041 2 13.8262 23.6955 27.9462
12042 2 2.66691 23.6435 27.8593
12019 2 10.9099 3.7874 28.1008
12133 2 8.18715 3.87773 14.0832
15141 2 13.8344 15.3277 13.9479
12146 2 2.71097 20.9204 14.2513
12149 2 5.59202 23.7665 14.1073
451 1 1.26873 25.1562 1.26696
452 1 3.97309 24.9298 1.18914
453 1 4.03511 25.1578 4.14634
454 1 1.3147 25.499 4.28054
455 1 6.79512 24.9397 1.47974
456 1 9.63939 25.1643 1.49949
457 1 9.58637 25.1098 4.05897
458 1 6.73837 25.0225 4.35847
459 1 12.6872 27.683 1.38708
460 1 12.2969 25.0108 4.07942
461 1 1.05955 27.862 1.13346
462 1 3.91836 27.9834 1.32235
463 1 4.01207 27.8851 4.13015
464 1 1.21446 27.9556 3.93178
465 1 1.38522 30.6226 1.50461
466 1 4.23238 30.8869 1.33669
467 1 4.2514 30.7637 4.10859
468 1 1.31138 30.7107 4.40545
469 1 6.67468 27.8716 1.45934
470 1 9.52409 27.8071 1.37472
471 1 9.62478 28.032 4.16918
472 1 6.84829 27.9673 4.20009
473 1 6.76044 30.666 1.18229
474 1 9.61755 30.7622 1.11666
475 1 9.78744 30.754 4.03839
476 1 6.92107 30.7437 4.14466
477 1 12.38 30.2835 0.855774
478 1 12.5851 28.094 4.13499
910 1 9.70135 50.524 1.40604
480 1 12.7374 30.7335 3.70371
481 1 1.21505 36.4226 1.43465
482 1 1.13476 33.6026 1.36204
483 1 3.86408 33.406 4.28596
484 1 3.90467 36.1673 4.24913
485 2 2.75695 37.7948 2.86522
486 1 3.89576 36.4135 1.47779
487 1 6.93678 36.3928 4.15678
488 1 0.989392 36.5165 3.99887
489 1 3.85814 33.6143 1.38495
490 1 6.61719 33.6458 1.28174
491 1 9.78926 33.4619 4.03175
492 1 6.92844 33.5876 3.99604
493 1 6.59575 36.5182 1.45525
494 1 9.27927 36.1884 1.49221
495 1 11.9001 37.9043 1.89666
496 1 9.51745 36.4789 4.28371
497 1 9.64821 33.3383 1.25027
1017 1 12.521 50.3266 7.054
498 1 14.094 36.1299 1.59996
911 1 9.65737 50.2533 4.16054
501 1 1.22501 39.1828 1.55879
502 1 4.07448 39.3296 1.39755
503 1 3.92925 39.1806 4.05573
504 1 1.36242 39.1706 4.40094
505 1 1.28603 41.9639 1.33747
506 1 3.95457 42.0756 1.4384
507 1 4.18115 41.8367 4.21881
508 1 1.28322 41.962 4.33625
509 1 6.77365 39.4199 1.21275
510 1 9.48534 39.18 1.10209
511 1 9.58529 39.2742 4.07332
512 1 6.73063 39.1869 3.99417
513 1 6.81508 42.188 1.18143
514 1 9.49031 42.0582 0.999956
515 1 9.69936 41.9837 3.92665
516 1 6.94369 41.9751 4.02143
15317 2 13.8146 37.6162 8.35981
89 1 12.4598 24.9882 1.22479
519 1 12.2385 42.0344 1.30177
520 1 12.5055 41.9327 4.11507
521 1 1.03946 44.9194 1.14892
522 1 4.04127 44.9975 1.55356
523 1 4.18995 44.7556 4.18168
524 1 1.3555 44.8615 4.20952
525 1 1.10519 47.8582 1.28746
526 1 4.09991 47.6564 1.2429
527 1 4.10021 47.6301 4.24503
528 1 1.21222 47.61 4.30343
529 1 6.78647 44.7346 1.42828
530 1 9.56249 44.8239 0.984088
531 1 9.62307 44.767 4.10878
532 1 6.90399 44.7359 4.19705
533 1 6.88195 47.5975 1.12773
534 1 9.53669 47.6217 1.2148
535 1 9.61544 47.504 3.87638
536 1 6.78703 47.525 4.01889
537 1 12.6013 44.7181 1.31304
538 1 12.3977 44.4941 4.01591
539 1 12.5726 47.6959 1.10251
540 1 12.3212 47.6158 4.00084
541 1 1.19135 25.1702 7.03561
542 1 3.96998 25.0416 7.02991
543 1 3.95297 25.0477 9.90593
544 1 1.07408 24.9571 9.84038
545 1 6.85248 25.3316 6.9367
546 1 9.58903 25.2303 6.98289
547 1 9.64698 25.2792 9.85943
548 1 6.87932 25.2649 9.76582
549 1 12.5585 25.1118 6.83941
550 1 12.3963 25.0973 9.56518
551 1 1.38473 27.9544 6.94052
552 1 4.06798 27.8107 6.91635
553 1 3.76928 27.9047 9.7642
554 1 0.73578 27.8273 9.83332
555 1 0.941639 33.4507 4.11294
556 1 3.74758 30.5618 6.89581
557 1 4.14446 30.6219 9.82479
558 1 1.44975 30.9267 9.96767
559 1 6.73731 28.1144 7.05789
560 1 9.68817 27.8804 6.94638
561 1 9.66235 28.0194 9.63598
562 1 6.80384 27.9201 9.80656
563 1 6.93915 30.9024 6.7773
564 1 9.64103 30.7905 6.87475
565 1 9.55232 30.6125 9.69952
566 1 6.8881 30.7606 9.63615
567 1 12.5368 27.8177 6.87826
568 1 12.5084 28.0196 9.53497
569 1 12.4448 30.5982 6.66158
570 1 12.2366 30.7829 9.44077
571 1 1.1293 36.284 6.91462
572 1 4.09049 33.5296 6.92942
573 1 4.18744 33.5245 9.68723
574 1 1.16409 33.6448 9.65751
575 1 4.16934 36.5439 7.01401
576 1 6.97626 36.4856 6.88439
577 1 3.93026 36.3371 9.83467
578 1 1.25736 36.5006 9.58187
579 1 6.80955 33.476 6.83068
580 1 9.6516 33.6562 6.90012
581 1 9.6053 33.5648 9.80761
582 1 6.88332 33.5364 9.87078
583 1 9.73565 36.4386 7.21754
584 1 12.4697 36.4611 6.82136
585 1 9.51408 36.4476 10.0136
586 1 6.80109 36.394 9.65901
587 1 12.4825 33.5343 6.87743
588 1 12.6862 33.4848 9.74851
589 1 12.398 36.1663 4.14668
590 1 12.5803 36.2967 9.73608
591 1 1.27635 39.1857 7.12517
592 1 4.01788 39.1904 7.02157
593 1 4.2054 39.2361 9.73585
594 1 1.28384 39.195 9.5927
595 1 1.17539 42.0176 7.2084
596 1 4.01458 42.1178 7.19187
597 1 3.89045 42.2245 9.95491
598 1 1.08269 41.9261 9.96306
599 1 6.88119 39.4587 6.8541
600 1 9.54954 39.2223 7.11699
601 1 10.0485 39.2413 9.89152
602 1 7.01362 39.2032 9.76421
603 1 6.76829 42.1694 7.01027
604 1 9.7772 44.6354 6.99373
605 1 9.59971 42.0612 9.87326
606 1 6.9012 42.0479 9.71933
607 1 12.3669 39.0968 7.11735
608 1 12.6328 39.1659 9.63194
609 1 12.4611 41.9078 7.02801
610 1 12.5522 42.077 10.0016
611 1 1.4939 44.902 6.84869
612 1 4.15071 44.8569 6.92891
613 1 4.12126 45.1673 9.83361
614 1 1.26539 44.803 9.72299
615 1 1.16929 47.9071 6.88892
616 1 4.01963 47.6775 6.94116
617 1 4.07819 47.8521 9.63033
618 1 1.2068 47.4887 9.68265
619 1 6.90068 44.8299 7.07892
620 1 9.82406 47.5647 6.75904
621 1 9.59912 44.8526 9.89657
622 1 6.777 45.0412 9.9032
623 1 6.97286 47.5767 6.85785
15272 2 13.842 37.6889 3.23251
625 1 9.69304 47.5715 9.64855
626 1 6.91502 47.741 9.58322
627 1 12.563 44.7549 6.80077
628 1 12.4802 44.8003 9.67382
629 1 12.5634 47.4522 7.12659
630 1 12.4402 47.5841 9.78298
631 1 1.3065 25.1558 12.5673
632 1 4.19478 25.0136 12.7426
633 1 6.88218 25.0657 12.646
634 1 9.62907 25.3868 12.5079
635 1 12.4928 25.0898 12.3811
636 1 0.974024 27.9937 12.6785
637 1 3.93321 27.7653 12.5717
638 1 1.15786 30.951 12.6239
639 1 3.81843 30.6304 12.4467
640 1 6.6963 27.9166 12.7012
641 1 9.62967 28.0734 12.6585
642 1 6.75742 30.797 12.5915
643 1 9.53471 30.7629 12.6427
644 1 12.4844 27.738 12.5075
645 1 12.3583 30.756 12.4
646 1 1.10303 33.7203 12.6507
647 1 3.74804 33.33 12.477
648 1 1.19662 36.3729 12.3818
649 1 4.06006 36.0033 12.6081
650 1 6.73252 33.6216 12.6499
651 1 9.6346 33.4542 12.4008
652 1 6.84154 36.3774 12.5606
653 1 9.5933 36.2901 12.7697
654 1 12.4302 33.5979 12.694
655 1 12.6052 36.2097 12.6583
656 1 0.934591 39.1664 12.5763
657 1 3.89187 38.8791 12.4899
658 1 1.18497 42.07 12.5391
659 1 4.00529 41.8927 12.6849
660 1 6.87272 39.1683 12.5873
661 1 9.5849 39.0938 12.7006
662 1 6.66425 42.0343 12.5426
663 1 9.54221 42.1269 12.6776
664 1 12.54 39.1435 12.7106
665 1 12.3334 42.0341 12.7968
666 1 1.17253 44.8941 12.5602
667 1 3.99631 45.0469 12.5217
668 1 1.17853 47.6422 12.4564
669 1 4.11157 47.7052 12.4893
670 1 6.70279 44.9253 12.5668
671 1 9.54979 44.9412 12.6923
672 1 6.79735 47.6877 12.6708
673 1 9.71713 47.6185 12.5508
674 1 12.4678 44.8814 12.3969
675 1 12.4226 47.6205 12.5634
12363 2 11.0586 48.8797 11.1921
15368 2 13.8173 31.9832 13.9463
12253 2 2.6447 26.5112 2.68927
12362 2 5.45645 49.023 11.1103
15252 2 13.807 26.0929 2.76193
12348 2 5.28456 32.1802 11.169
12257 2 8.10631 26.3039 2.79027
12258 2 5.48718 29.338 2.74757
12347 2 2.53631 34.9205 11.141
12260 2 10.7892 29.2677 2.62856
12265 2 5.38275 32.227 -0.125598
912 1 6.79867 50.3585 4.23213
12263 2 2.55673 32.1564 2.76873
12360 2 11.1119 43.5173 11.1509
12356 2 -0.181326 43.4431 11.1669
15291 2 13.8819 48.9699 2.52346
12267 2 8.14107 32.1383 2.5688
12268 2 5.31349 35.0247 2.79361
15326 2 13.8768 46.1002 5.53588
12270 2 11.061 34.7325 2.50055
12359 2 8.26061 46.3057 11.1759
6463 1 12.2931 33.1192 1.11765
12273 2 5.36903 37.7698 5.56838
12358 2 5.33427 43.575 11.0553
15351 2 13.8403 40.4107 11.2389
15316 2 13.8521 40.6229 5.84083
12277 2 8.21346 37.844 2.76962
12278 2 5.50115 40.7165 2.67459
12285 2 5.2785 43.4563 -0.0426806
12280 2 10.9508 40.301 2.49739
15341 2 13.8441 29.1888 11.1682
500 1 12.4025 39.0934 4.38021
12283 2 2.68054 43.1953 2.99448
499 1 11.6535 35.4208 0.188691
12345 2 11.1313 26.6155 11.1948
12272 2 2.6586 40.674 -0.00523781
12287 2 8.31804 43.4415 2.62899
12288 2 5.49108 46.2025 2.83888
12384 2 2.54667 49.0383 13.929
12290 2 11.0555 46.0649 2.69542
12350 2 10.9517 32.0929 11.035
12292 2 2.56768 49.004 2.65169
12352 2 2.64074 40.5956 11.1742
12294 2 8.38008 48.9774 2.62595
15356 2 13.843 46.1048 11.1121
12357 2 2.69236 46.2545 11.2117
12297 2 2.62487 29.1488 5.46713
12298 2 2.49973 26.5609 8.46419
12299 1 1.28777 33.3204 6.92545
12300 2 5.54369 26.5189 5.57545
12301 2 8.15877 29.3521 5.59931
12302 2 8.29119 26.5626 8.40621
12303 2 5.39964 29.335 8.38009
12304 2 11.0747 26.4164 5.56623
12305 2 11.1375 29.2001 8.19782
15327 2 13.8022 43.2799 8.39426
12307 2 2.56951 34.8117 5.62869
12308 2 2.6575 31.9604 8.53971
12355 2 11.0732 37.6125 11.3043
12310 2 5.52109 32.0728 5.51753
12311 2 8.2734 35.0223 5.48583
12312 2 8.39696 32.057 8.35543
12313 2 5.53517 34.8769 8.50817
12314 2 11.0668 32.1031 5.42423
12315 2 11.1611 34.9371 8.27773