ITEM: TIMESTEP
400000
ITEM: NUMBER OF ATOMS
18000
ITEM: BOX BOUNDS xy xz yz pp pp pp
-1.4856442345292206e-01 2.8042564423451356e+01 0.0000000000000000e+00
-1.9577162311623100e+00 3.3668571623116378e+02 0.0000000000000000e+00
-1.4160005497601375e-01 2.8035600054975454e+01 0.0000000000000000e+00
ITEM: ATOMS id type x y z
1 1 1.23696 -0.849988 1.23892
2 1 4.02932 -0.641991 1.35573
3 1 4.26361 -0.654691 4.09312
4 1 1.24965 -0.641826 4.01797
5 1 1.22165 2.02389 1.23164
6 1 4.08997 2.21178 1.26315
7 1 4.20655 2.14332 4.08894
8 1 1.37605 2.24888 3.95127
9 1 6.80202 -0.619574 1.10723
10 1 9.80552 -0.613938 1.13231
11 1 9.66963 -0.711513 3.91136
12 1 6.88446 -0.558671 3.92247
13 1 6.89284 2.20487 1.17852
14 1 9.72943 2.18964 1.37732
15 1 9.71351 2.15983 3.99705
16 1 6.93187 2.11183 3.9534
17 1 12.4936 -0.500125 1.19927
18 1 12.4703 -0.665094 3.8998
19 1 12.6897 2.33834 1.17013
20 1 12.3522 2.16263 3.93684
21 1 1.20239 5.0249 1.15905
22 1 3.99231 4.96226 1.13995
23 1 4.03253 4.92112 4.06173
24 1 1.04162 5.03485 3.83163
25 1 1.24519 7.65701 0.992763
26 1 4.20694 7.82499 1.17941
27 1 4.17653 7.7426 3.95845
28 1 1.18453 7.70692 4.03466
29 1 6.76136 4.95719 1.12591
30 1 9.65504 4.87817 1.19024
31 1 9.69635 4.95388 4.07128
32 1 6.787 4.9258 3.9017
33 1 6.79344 7.87702 1.10094
34 1 9.6571 7.7272 1.06565
35 1 9.72506 7.76578 3.8244
36 1 7.01093 7.73606 3.99371
37 1 12.4066 5.06789 1.16645
38 1 12.464 5.18145 4.0427
39 1 12.3725 7.82768 1.11511
12145 2 11.2573 17.7386 13.8423
41 1 1.49344 10.4884 1.2258
42 1 4.2788 10.7928 1.1576
43 1 4.05412 10.5725 3.79516
44 1 1.13594 10.5334 3.93475
6058 2 -0.0701239 14.9708 2.63167
46 1 4.2028 13.5318 1.42984
47 1 4.27345 13.3865 4.06463
48 1 1.49394 13.5441 3.81372
49 1 7.05543 10.5513 1.20145
50 1 9.84368 10.44 1.42233
51 1 9.82161 10.695 4.1883
52 1 6.91747 10.5936 3.95122
53 1 7.04426 13.2879 1.05455
54 1 9.73769 13.4122 1.33075
55 1 9.82446 13.5485 4.05874
56 1 7.1594 13.3658 4.03862
57 1 12.5097 10.6381 1.13516
58 1 12.5709 10.6762 3.82617
59 1 12.6511 13.498 1.3316
60 1 12.5465 13.5637 4.12342
61 1 1.54253 16.448 1.52679
62 1 4.31679 16.2414 1.22653
63 1 4.15284 16.2372 4.18068
64 1 1.13773 16.1419 4.25735
65 1 1.24245 19.0894 1.2683
66 1 4.13115 19.1534 1.40958
67 1 3.91941 19.0689 4.14486
68 1 1.15658 19.1286 4.07417
69 1 6.87035 16.1057 1.37151
70 1 9.81915 16.2147 1.34911
71 1 9.66743 16.4057 4.04026
72 1 7.01378 16.1695 4.08286
73 1 6.97035 19.0303 1.01933
74 1 9.84538 19.122 1.24165
75 1 9.53795 19.0717 4.12
76 1 6.79837 18.9699 3.9925
77 1 12.6522 16.4351 1.45465
78 1 12.3211 16.3047 3.96445
79 1 12.5656 21.8319 1.21839
80 1 12.579 19.1329 4.0183
81 1 1.27363 21.7521 1.35857
82 1 3.88983 21.8832 1.31111
83 1 3.89648 22.1158 3.90489
84 1 1.26254 21.8321 4.19378
85 1 6.96429 21.8068 1.15513
86 1 9.72598 22.0373 1.56872
87 1 9.88582 22.248 4.19362
88 1 6.75701 21.8168 3.86304
12140 2 11.0532 12.0917 13.9248
90 1 12.5177 21.9075 3.9572
91 1 1.26517 -0.671696 7.03173
92 1 3.95011 -0.831025 6.88258
93 1 4.0154 -0.576783 9.66111
94 1 0.971515 -0.571314 9.61661
95 1 1.16107 2.14548 6.77062
96 1 4.01553 2.22108 6.92401
97 1 4.24167 2.14287 9.65063
98 1 1.33012 2.0715 9.61127
99 1 6.95384 -0.494798 6.79258
100 1 9.70365 -0.337836 6.7412
101 1 9.62113 -0.482271 9.37008
102 1 6.91226 -0.33519 9.60891
103 1 6.88524 2.2219 6.95705
104 1 9.60656 2.31058 6.80407
105 1 9.78632 2.27826 9.82623
106 1 7.00518 2.55484 9.63201
107 1 12.5433 -0.274651 6.69026
108 1 12.3839 -0.745374 9.75964
109 1 12.4488 2.5112 6.8321
110 1 12.5266 2.20575 9.79611
111 1 1.18561 4.96549 6.70742
112 1 4.06209 5.16576 6.90954
113 1 3.97545 5.05393 9.3699
114 1 1.27025 5.0422 9.57102
115 1 1.279 7.88517 6.85394
116 1 3.98241 7.89695 6.62064
117 1 3.9384 8.08126 9.69986
118 1 1.22239 8.04807 9.52229
119 1 6.75089 5.0399 6.59328
120 1 9.6261 5.05727 6.841
121 1 9.57561 5.08626 9.56863
122 1 6.75511 5.19096 9.62006
123 1 6.9062 7.89726 6.73971
124 1 9.56905 7.76384 6.70632
125 1 9.76456 7.87943 9.59565
126 1 6.79817 8.08314 9.55741
127 1 12.4706 5.16588 6.85794
128 1 12.41 5.03842 9.73653
129 1 12.4617 7.94224 7.05202
130 1 12.7552 8.02952 9.65313
131 1 1.50289 10.828 6.62156
132 1 4.37945 10.687 6.6541
133 1 4.0766 10.8202 9.73417
134 1 1.45901 10.7175 9.57189
135 1 1.37561 13.3738 6.79223
136 1 4.30814 13.3523 6.85879
137 1 3.83091 13.4984 9.68885
138 1 1.06643 13.4674 9.75378
139 1 7.07289 10.7645 6.85375
140 1 9.84603 10.5576 6.81458
141 1 9.71653 10.7459 9.72389
142 1 6.85133 10.6882 9.47162
143 1 7.1103 13.5363 6.78207
144 1 9.89458 13.4277 6.93496
145 1 9.73764 13.4955 9.53279
146 1 6.64274 13.4315 9.54329
147 1 12.6902 10.7011 6.75947
148 1 12.6747 10.7265 9.7254
149 1 12.6981 13.4184 6.72752
150 1 12.5874 13.576 9.70087
151 1 1.15707 16.179 7.05635
152 1 4.04886 16.3054 7.06842
153 1 4.02283 16.4165 9.71749
154 1 1.31277 16.466 9.82774
155 1 1.25835 18.9287 6.85898
156 1 4.10628 19.0167 6.94019
157 1 4.12899 19.1711 9.81457
158 1 1.20939 19.2473 9.614
159 1 6.70991 16.3453 6.86239
160 1 9.54776 16.188 6.90787
161 1 9.82268 16.0908 9.62743
162 1 6.88283 16.2846 9.64242
163 1 6.95931 19.1554 6.92622
164 1 9.68609 19.1797 6.91571
165 1 9.72323 19.0455 9.62426
166 1 6.86228 19.1502 9.71995
167 1 12.5605 16.3414 6.77411
168 1 12.5319 16.3192 9.62253
169 1 12.5004 19.2672 6.75228
170 1 12.5804 19.1038 9.69957
171 1 1.36275 22.0031 6.87729
172 1 4.08437 21.824 6.98715
173 1 4.17233 22.0886 9.91463
174 1 1.23099 21.8121 9.80076
175 1 6.96608 22.116 6.89518
176 1 9.65453 21.9894 6.9111
177 1 9.84483 21.8924 9.5995
178 1 6.93977 21.9496 9.74934
179 1 12.458 22.0205 6.95378
180 1 12.5861 22.0953 9.70179
181 1 1.08166 -0.625115 12.4271
182 1 3.94231 -0.493722 12.5579
183 1 1.32244 2.17522 12.4382
184 1 4.06689 2.22885 12.3724
185 1 6.84924 -0.544926 12.3606
186 1 9.56605 -0.717101 12.4529
187 1 6.98334 2.02731 12.3661
188 1 9.70555 2.24281 12.547
189 1 12.3512 -0.814321 12.5848
190 1 12.4705 2.2507 12.5483
191 1 1.31994 5.17081 12.2748
192 1 4.2148 5.07345 12.2471
193 1 1.32714 7.96441 12.4051
194 1 3.98363 7.88386 12.4713
195 1 6.97731 5.00025 12.3463
196 1 9.76178 5.0273 12.2746
197 1 6.84629 7.80306 12.1565
198 1 9.63326 8.10454 12.3947
199 1 12.5298 4.824 12.4679
200 1 12.5213 7.65589 12.4705
201 1 1.02815 10.6656 12.4154
202 1 4.01572 10.9015 12.5222
203 1 1.36375 13.4551 12.4743
204 1 4.24333 13.6059 12.4544
205 1 6.87299 10.5892 12.2563
206 1 9.62022 10.7877 12.386
207 1 6.92891 13.4015 12.3977
208 1 9.6413 13.6495 12.3386
209 1 12.6114 10.8861 12.6205
210 1 12.7105 13.7657 12.3688
211 1 1.54908 16.2963 12.5084
212 1 4.20915 16.2989 12.4364
213 1 1.10476 18.903 12.5691
214 1 4.04197 18.9324 12.6078
215 1 7.02904 16.221 12.3652
216 1 9.72518 16.5024 12.5251
217 1 6.94754 19.0454 12.4562
218 1 9.87953 19.2288 12.4363
219 1 12.4271 16.5586 12.4092
220 1 12.7235 19.3155 12.4888
221 1 1.06514 21.9533 12.7942
222 1 3.93667 21.862 12.5716
223 1 6.75014 22.0484 12.505
224 1 9.58693 21.9129 12.2984
225 1 12.4068 22.113 12.5047
12137 2 -0.185498 11.9747 13.9205
12039 2 11.1258 14.6534 -0.08407
12044 2 -0.0855618 23.3339 2.86352
12015 2 5.53936 3.4412 -0.1979
12138 2 8.24354 9.30578 13.6036
12094 2 -0.0661767 23.2125 8.28004
15121 2 13.9833 23.3603 11.1614
12008 2 5.41284 0.784239 2.62706
12106 2 0.0595009 3.52639 10.9081
12010 2 11.0811 0.775253 2.64046
12125 2 11.252 20.5863 11.1073
15101 2 13.8926 0.813844 11.0453
12013 2 2.58722 3.43089 2.55483
12124 2 8.32913 23.3478 11.212
15141 2 14.0839 14.8104 13.9163
6054 1 1.21037 13.6012 1.06538
12017 2 8.36907 3.54737 2.55684
12018 2 5.45466 6.21779 2.52406
12148 2 8.27931 20.3939 13.8506
12020 2 11.1655 6.34652 2.5965
12113 2 5.42256 9.229 10.9451
12104 2 8.32156 0.78773 10.9282
12023 2 2.77666 9.12998 2.58725
12042 2 2.58868 23.1915 -0.12591
40 1 12.5554 8.00153 4.16872
12107 2 2.66003 6.65845 10.8337
12027 2 8.32354 9.15073 2.64651
12028 2 5.65404 12.0506 2.62092
12131 2 2.67996 3.58185 13.7827
12030 2 11.1892 12.017 2.68124
12102 2 2.77049 0.64634 11.0587
12114 2 8.27713 12.0957 10.8701
12033 2 2.99966 14.9238 2.67669
12149 2 5.32912 23.2825 13.9731
12100 2 11.1818 23.4751 8.3822
12099 2 11.1578 20.6407 5.52022
12037 2 8.40704 14.9148 2.661
12038 2 5.65471 17.4303 2.70438
12098 2 5.55718 23.3376 8.31949
12040 2 11.1942 17.7853 2.74556
12097 2 8.41687 20.6467 8.38367
12091 2 -0.0807795 20.5158 5.6143
12043 2 2.60394 20.4038 2.71235
12123 2 5.38842 20.5905 10.9642
12096 2 8.29907 23.4365 5.47907
12095 2 5.60945 20.4161 5.4433
12047 2 8.23114 20.3902 2.64612
12048 2 5.42317 23.1631 2.53504
12115 2 11.2604 9.27977 10.9426
12050 2 11.2198 23.2681 2.79537
15062 2 13.9532 3.55635 8.21359
12052 2 2.78515 0.553872 5.45829
12112 2 2.62331 12.0348 11.1599
12122 2 2.47845 23.4266 11.2351
12110 2 11.1021 3.49329 11.2548
12056 2 8.33536 0.854082 5.37988
12109 2 8.38822 6.41583 10.9289
12058 2 5.49266 0.660073 8.12246
12108 2 5.50264 3.57256 10.9173
12060 2 10.9952 0.978921 8.22481
12120 2 11.0976 14.9659 10.9967
12062 2 2.63395 6.37013 5.46768
12063 2 2.65816 3.50954 8.15745
12119 2 8.37199 17.7897 11.004
12065 2 5.46156 3.53465 5.38326
12066 2 8.28497 6.33812 5.42318
12067 2 8.11399 3.79038 8.24511
12068 2 5.42591 6.60177 8.08677
12069 2 11.0166 3.62157 5.47744
12070 2 11.0389 6.30392 8.15129
12139 2 5.53703 12.1103 13.8702
12072 2 2.95775 11.9411 5.28104
12073 2 2.67276 9.36252 8.07927
12118 2 5.44074 14.9323 10.9906
12075 2 5.55504 9.33404 5.34308
12076 2 8.4591 12.0717 5.62143
12077 2 8.39556 9.20465 8.19874
12078 2 5.51599 12.0613 8.24707
12079 2 11.194 9.27119 5.35745
12080 2 11.2541 11.9864 8.33569
12032 2 2.90538 17.5783 -0.177488
12082 2 2.63007 17.6828 5.60215
12083 2 2.59049 14.8848 8.53117
12117 2 2.66631 17.6998 11.2395
12085 2 5.61301 14.9618 5.49233
12086 2 8.28713 17.6802 5.5226
12087 2 8.14582 14.8442 8.40524
12088 2 5.5392 17.8227 8.28714
12089 2 11.1897 14.8061 5.43778
12090 2 11.1271 17.7403 8.25998
440 1 12.6245 19.1135 1.26192
12092 2 2.82279 23.3132 5.50436
12093 2 2.60061 20.4904 8.28482
15091 2 13.9505 23.4553 5.59059
12127 2 -0.257856 0.854943 13.941
12024 2 -0.0724295 11.6727 2.56838
12135 2 11.198 6.27344 13.8163
12134 2 5.39728 6.3198 13.6011
12136 2 2.62193 9.23987 13.8718
15061 2 13.8825 6.44116 5.41843
12133 2 8.46861 3.48231 13.8281
15012 2 13.933 3.55758 2.58477
15082 2 13.9923 14.9262 8.26894
12129 2 5.45556 0.805732 13.7472
12064 2 -0.153207 6.2049 8.09996
15106 2 13.9601 6.2563 11.1234
12084 2 -0.132843 17.6852 8.49634
12143 2 8.26649 14.8346 13.827
15051 2 13.825 0.841775 5.31865
12132 2 0.100717 6.45872 13.761
15032 2 13.8038 14.9204 2.66961
12074 2 0.108135 11.857 8.30315
12041 2 -0.118433 20.5262 -0.167068
15031 2 14.0582 17.8102 -0.0799032
12026 2 8.48568 11.8469 -0.0699784
12049 2 11.2907 20.5078 -0.139927
12144 2 5.74759 17.8519 13.8592
226 1 4.25339 -0.380846 15.4548
227 1 1.22102 -0.621429 15.2106
228 1 3.97534 2.1762 15.1007
229 1 1.14751 2.2032 15.2018
230 1 9.71699 -0.7612 15.2606
231 1 6.99507 -0.532007 15.6206
232 1 9.77239 2.09991 15.2741
233 1 6.92557 2.14703 15.0877
234 1 12.5409 -0.634252 15.4186
235 1 12.4761 2.09042 15.3011
236 1 4.15406 4.99008 15.1158
237 1 1.4228 5.21069 15.1688
238 1 3.93457 8.01986 15.2437
239 1 1.28466 7.88533 15.1936
240 1 9.76957 4.91153 15.2567
241 1 6.96505 4.86428 15.2147
242 1 9.79015 7.86231 15.1134
243 1 6.90408 7.55891 14.8725
244 1 12.4905 5.20833 15.3663
245 1 12.5461 7.98647 15.2615
246 1 4.26748 10.7065 15.3023
247 1 1.21587 10.4092 15.432
248 1 4.29254 13.5233 15.1828
249 1 1.47778 13.3182 15.3245
250 1 9.87432 10.8172 15.2436
251 1 6.95737 10.6688 15.1804
252 1 9.84071 13.5496 15.2269
253 1 7.05317 13.4055 15.2684
254 1 12.584 10.8106 15.3419
255 1 12.7362 13.6605 15.2152
256 1 4.185 16.3318 15.6058
257 1 1.42666 15.9757 15.6347
258 1 3.94084 19.2813 15.4629
259 1 1.24488 18.8769 15.4795
260 1 9.91085 16.2417 15.4203
261 1 6.90569 16.3134 15.2246
262 1 9.78414 19.1153 15.2706
263 1 7.05259 19.1272 15.2205
264 1 12.6633 16.6517 15.3125
265 1 12.7348 19.2627 15.2676
266 1 4.05318 21.9757 15.4528
267 1 1.26993 21.667 15.614
268 1 9.87086 21.9959 15.2639
269 1 6.85174 21.8685 15.4192
270 1 12.7225 21.9878 15.3427
271 1 1.19392 -0.738916 18.1902
272 1 3.83877 -0.593715 18.275
273 1 3.95776 -0.669254 20.9952
274 1 1.01618 -0.724701 20.9436
275 1 1.25516 2.20183 17.8954
276 1 4.05887 2.06242 18.1567
277 1 4.02982 2.25548 20.9403
278 1 1.17533 2.00992 20.7816
279 1 6.76731 -0.350298 18.282
280 1 9.39919 -0.609006 18.1175
281 1 9.7303 -0.569666 20.8727
282 1 6.88789 -0.607511 21.0992
283 1 6.81227 2.45052 18.2157
284 1 9.62828 2.19146 18.063
285 1 9.79009 2.14143 20.9278
286 1 6.93814 2.14904 20.9963
287 1 12.2821 -0.625551 18.0769
288 1 12.6108 -0.759018 20.9263
289 1 12.4235 2.0256 18.1534
290 1 12.5501 2.10944 20.8912
291 1 1.44145 4.98876 17.9607
292 1 4.04508 4.92942 18.0616
293 1 4.08087 4.86493 20.8283
294 1 1.30676 4.77182 20.8944
295 1 1.1629 7.66342 18.0936
296 1 4.12265 7.75587 18.1059
297 2 5.40822 9.22263 19.4487
298 1 4.00308 7.83405 20.7732
299 1 7.00423 5.16772 18.0508
300 1 9.65427 4.9276 18.0463
301 1 9.58912 4.82756 20.8956
302 1 6.74969 5.0441 21.0956
303 1 6.87191 8.0716 18.0748
304 1 9.75089 7.74331 18.0459
305 1 9.59847 7.67083 21.0905
306 1 6.93222 7.76509 20.7374
307 1 12.3852 4.87855 18.2031
308 1 12.4425 4.86508 21.0692
309 1 12.5376 7.63108 18.1802
310 1 12.3498 7.68906 20.93
311 1 1.06889 10.6215 18.1621
312 1 3.85004 10.4082 18.317
313 1 4.33912 10.5209 20.9073
314 1 1.35726 10.7568 21.027
315 1 1.17563 13.3882 18.0552
316 1 4.00251 13.3717 17.8344
317 1 3.99001 13.4516 20.8926
318 1 1.35431 13.3206 20.8884
319 1 6.59543 10.722 18.0079
320 1 9.41613 10.7771 18.1425
321 1 9.91244 10.4955 20.9171
322 1 6.86995 10.6758 20.6478
323 1 6.94124 13.6071 17.9614
324 1 9.95494 13.5361 18.1524
325 1 9.27359 13.1958 20.7925
326 1 6.62798 13.8005 20.6591
327 1 12.4586 10.3683 18.2339
328 1 12.4628 10.5737 21.1764
329 1 12.5775 13.3952 18.025
330 1 12.7766 13.2674 20.9296
331 1 1.41937 16.4723 18.4571
332 1 4.26658 16.1862 18.2316
333 1 3.85269 16.2132 21.0492
334 1 1.03622 16.1676 20.967
335 1 1.23937 19.1159 18.2739
336 1 4.17526 19.2101 18.0983
337 1 4.00821 19.2377 21.2165
338 1 1.08498 19.0969 21.217
339 1 7.03127 16.4257 18.2504
340 1 9.8885 16.174 18.1933
341 1 9.68596 16.4293 20.8203
342 1 6.85581 16.3842 21.1815
343 1 6.96708 19.1972 17.9747
344 1 9.81538 19.2 17.9692
345 1 9.67639 19.054 20.8575
346 1 6.77221 19.012 21.0388
347 1 12.8683 16.3016 18.1179
348 1 12.7894 16.5211 20.8293
349 1 12.7213 18.9287 18.238
350 1 12.5252 19.2623 20.924
351 1 1.26761 21.9992 18.3321
352 1 4.11967 22.0427 18.2562
353 1 4.2121 21.9934 21.0282
354 1 1.39581 22.0278 20.9086
355 1 6.88086 21.9455 18.2194
356 1 9.6957 21.9926 18.1995
357 1 9.57456 21.8074 21.0859
358 1 7.02068 22.03 20.9911
359 1 12.4472 21.8922 18.0358
360 1 12.5591 22.1093 20.8559
361 1 1.42992 -0.730204 23.715
362 1 4.05717 -0.845232 23.7652
363 1 4.10467 -0.600363 26.7062
364 1 1.17123 -0.670829 26.5081
365 1 1.2397 2.1181 23.7029
366 1 3.95192 2.03284 23.9656
367 1 4.03759 2.27821 26.4721
368 1 1.45418 2.32957 26.4645
369 1 6.71144 -0.678586 23.6998
370 1 9.58949 -0.721639 23.8118
371 1 9.87456 -0.678012 26.6131
372 1 6.82617 -0.618947 26.5852
373 1 6.80317 2.04118 23.7774
374 1 9.79356 2.00681 23.877
375 1 9.50097 2.09079 26.5852
376 1 6.8689 2.10098 26.6992
377 1 12.4453 -0.869242 23.7204
378 1 12.708 -0.649736 26.4908
379 1 12.585 2.0017 23.7278
380 1 12.4538 2.12031 26.5522
381 1 1.29051 4.90488 23.7007
382 1 4.20566 4.86245 23.7663
383 1 3.94206 4.94667 26.5108
384 1 1.19225 5.14414 26.5762
385 1 1.37224 7.74323 23.6891
386 1 3.96835 7.86187 23.4991
387 1 4.1075 7.8212 26.4828
388 1 1.27577 7.94978 26.5676
389 1 6.83917 4.86548 23.8046
390 1 9.71335 5.0642 23.6915
391 1 9.75643 4.79677 26.5784
392 1 6.79028 5.04685 26.6797
393 1 6.88768 7.79397 23.7158
394 1 9.72482 7.86302 23.8441
395 1 9.7148 7.69055 26.3981
396 1 6.90268 7.92249 26.335
397 1 12.5822 4.81766 23.8604
398 1 12.5195 4.85791 26.6632
399 1 12.6058 7.85615 23.6788
400 1 12.6009 7.76027 26.5371
401 1 1.25285 10.5187 23.6065
402 1 4.07074 10.7437 23.7742
403 1 4.00423 10.6403 26.6022
404 1 1.31435 10.7172 26.6138
405 1 1.07907 13.3018 23.686
406 1 3.86786 13.6177 23.6749
407 1 4.03409 13.5345 26.5624
408 1 1.26314 13.3488 26.442
409 1 7.04259 10.5898 23.5889
410 1 9.70873 10.5757 23.8301
411 1 9.75525 10.5203 26.7575
412 1 7.01804 10.8129 26.4362
413 1 6.56149 13.1978 23.5423
414 1 9.61049 13.367 23.9526
415 1 9.73562 13.3103 26.8328
416 1 7.01445 13.5748 26.5235
417 1 12.5994 10.7952 23.9879
418 1 12.38 10.5879 26.7655
419 1 12.784 13.4858 24.0274
420 1 12.6196 13.4571 26.7472
421 1 1.19993 16.2097 23.7409
422 1 3.83134 16.2508 23.8191
423 1 4.09027 16.2614 26.6047
424 1 1.32401 16.1455 26.5975
425 1 1.31729 19.0605 23.9651
426 1 4.24937 19.1137 24.0382
427 1 4.00924 19.07 26.6132
428 1 1.17449 19.2055 26.794
429 1 6.57293 16.2876 23.9433
430 1 9.70665 19.2474 23.5697
431 1 9.73965 16.0948 26.6481
432 1 6.95655 16.5391 26.6834
433 1 7.03189 19.1813 23.8468
434 1 12.6229 19.1911 26.5815
435 1 9.75616 19.0938 26.7298
436 1 6.86163 19.2537 26.5789
437 1 12.7335 16.6283 24.0676
438 1 12.5031 16.3569 26.8791
439 1 12.702 19.3219 23.7029
12155 2 5.39737 -1.9004 16.6276
441 1 1.27523 22.0837 23.7003
442 1 4.10808 21.8455 23.7973
443 1 4.08741 21.9532 26.7957
444 1 1.18387 21.8508 26.7081
445 1 6.64829 21.9637 23.9695
446 1 9.53865 22.1055 23.8755
447 1 10.0097 21.8383 26.6717
448 1 7.12921 21.9598 26.7242
449 1 12.6215 22.0799 23.837
450 1 12.8162 22.0276 26.6228
12029 2 11.1908 9.19723 27.9833
12250 2 11.1997 23.3278 25.3341
12150 2 11.3129 23.413 14.0238
15001 2 14.0162 0.792419 28.0334
12146 2 2.45667 20.4632 14.0031
12227 2 8.36274 9.25587 25.14
12249 2 11.1079 20.4471 22.2237
12226 2 8.30887 11.9001 22.385
12225 2 5.55345 9.24294 22.5707
12234 2 -0.0316047 17.565 25.3704
12223 2 2.50026 9.31678 25.1477
12248 2 5.37306 23.4004 25.2827
12222 2 2.75344 12.1389 22.3512
12228 2 5.32003 12.2497 25.117
15011 2 13.9796 6.19036 28.0652
12220 2 11.1557 6.4086 25.2586
12247 2 8.42522 20.5196 25.0892
12006 2 8.33523 0.68347 28.0873
12019 2 11.049 3.52216 28.0048
15211 2 13.9536 6.22018 22.2791
12219 2 11.2003 3.56204 22.4792
12246 2 8.33251 23.2835 22.3496
12045 2 5.51758 20.3696 28.0018
12218 2 5.46168 6.38032 25.2391
12217 2 8.3145 3.63719 25.1548
12245 2 5.63373 20.4967 22.4458
12152 2 2.61637 0.689467 16.8072
12216 2 8.35196 6.25257 22.4219
12243 2 2.68735 20.5973 25.1324
12215 2 5.37879 3.45997 22.4162
12156 2 8.24541 0.921258 16.8252
12141 2 2.92479 14.9715 14.0161
12158 2 5.45458 0.863361 19.734
12229 2 11.1104 9.14 22.3873
12160 2 11.087 0.56335 19.3996
12242 2 2.78052 23.3034 22.3892
12162 2 2.72361 6.50403 16.5908
12163 2 2.55573 3.47022 19.3361
12240 2 11.1882 17.5758 25.3347
12165 2 5.3939 3.46022 16.5412
12166 2 8.41432 6.37884 16.6125
12167 2 8.32782 3.50638 19.3693
12168 2 5.48037 5.95978 19.4442
12169 2 11.1848 3.47871 16.6562
12170 2 11.0515 6.20945 19.6116
12239 1 9.52424 16.5508 23.908
12172 2 2.53343 11.9006 16.585
12173 2 2.3192 9.23375 19.4655
12238 2 5.51194 17.8108 25.2534
12175 2 5.71895 9.21881 16.3117
12176 2 8.41849 12.2388 16.7926
12177 2 8.66375 9.11242 19.5352
12178 2 5.53755 12.3336 19.2558
12179 2 11.2442 9.27349 16.5251
12180 2 11.1486 12.2776 19.7678
12237 2 8.33722 14.9344 25.0549
12182 2 2.55971 17.6478 16.7683
12183 2 2.62076 14.7208 19.5007
12236 2 8.45263 17.644 22.3197
12185 2 5.64192 14.8937 16.6031
12186 2 8.51644 17.6822 16.7754
12187 2 8.4224 14.8981 19.5719
12188 2 5.559 17.673 19.5088
12189 2 11.3097 14.9197 16.7477
12190 2 11.3015 17.7503 19.5699
12235 2 5.44195 14.9484 22.3268
12192 2 2.57168 23.1537 16.8168
12193 2 2.92256 20.4826 19.5568
15201 2 13.7908 0.582063 22.2916
12195 2 5.46377 20.5883 16.8222
12196 2 8.29034 23.1309 16.5544
12197 2 8.34104 20.469 19.5735
12198 2 5.66787 23.3568 19.5747
12199 2 11.2504 20.3762 16.6326
12200 2 11.0771 23.3047 19.6013
12233 2 2.64257 14.8149 25.147
12202 2 2.64429 0.692043 22.3356
15151 2 13.8179 0.719709 16.7027
12232 2 2.54481 17.6194 22.3853
12036 2 8.46546 17.594 28.0338
12206 2 8.38453 0.720248 22.4607
6309 1 1.23006 7.6938 20.9193
12208 2 5.59032 0.70429 25.3142
12016 2 8.26599 6.45841 27.9636
12210 2 11.2391 0.511337 25.1786
12230 2 11.0286 12.0642 25.2306
12212 2 2.69258 6.24899 22.268
12213 2 2.60691 3.61281 25.1683
15221 2 13.8432 12.1581 22.5615
12130 2 11.1963 0.636025 13.9044
12022 2 2.66125 11.9313 28.0132
12012 2 2.63572 6.30102 27.9596
12035 2 5.59568 14.8604 27.9431
12194 2 -0.102749 23.2808 19.5826
12002 2 2.68347 0.803319 27.8086
15192 2 14.1018 20.3892 19.7216
12184 2 -0.208708 17.7169 19.58
12174 2 -0.0801447 11.9594 19.5038
12025 2 5.57108 9.34242 27.994
15172 2 13.8227 9.12228 19.6902
15212 2 13.9213 3.49456 25.1184
12046 2 8.37098 23.2248 27.9969
451 1 1.13695 24.6926 1.22219
452 1 3.95051 24.5778 1.18824
453 1 4.16299 24.8421 4.22038
454 1 1.34111 24.7492 3.97916
455 1 6.71006 24.632 1.442
456 1 9.60652 24.8503 1.02307
457 1 9.79216 24.817 4.26568
458 1 6.80969 24.8551 4.27561
459 1 12.6573 27.8121 1.40675
460 1 12.4345 24.9036 4.0654
461 1 1.38967 27.4278 1.40397
462 1 4.2278 27.513 1.50781
463 1 4.18612 27.7349 4.26285
464 1 1.17385 27.6034 4.04765
465 1 1.14065 30.5378 1.27491
466 1 4.23218 30.3398 1.29673
467 1 4.1506 30.5152 3.9839
468 1 1.3625 30.7947 4.49479
469 1 7.0213 27.4422 1.34935
470 1 9.83893 27.505 1.41947
471 1 9.7847 27.7643 4.58416
472 1 7.02931 27.6524 4.134
473 1 6.84674 30.2768 1.48939
474 1 9.73326 30.2027 1.25093
475 1 9.96154 30.4688 4.02826
476 1 6.97625 30.5563 4.25054
477 1 12.7068 30.3607 1.03875
478 1 12.6364 27.8169 4.14864
12380 2 -0.0461711 45.9546 13.9244
480 1 12.7379 30.3682 3.80203
481 1 1.20694 36.2383 1.16417
482 1 1.20744 33.4496 1.54361
483 1 4.15267 33.3554 3.98093
484 1 4.1303 36.1214 4.30546
485 2 2.64781 37.4058 2.80245
486 1 4.04942 36.081 1.26737
487 1 6.76332 36.2547 4.1286
488 1 1.16433 36.0876 4.16924
489 1 4.10676 33.2261 1.28497
490 1 6.89408 33.0632 1.49467
491 1 9.82165 33.2501 4.12062
492 1 6.95677 33.396 4.2438
493 1 6.8359 35.9886 1.15373
494 1 9.55651 35.836 1.2657
495 1 11.7264 37.7279 2.10949
496 1 9.57666 36.099 4.1442
497 1 9.85215 33.0646 1.45193
12265 2 5.49775 31.6758 -0.0402364
15363 2 13.9466 26.1904 13.9942
12272 2 2.75388 40.3825 0.0451265
501 1 1.34147 39.0822 1.25162
502 1 4.00651 38.9448 1.47729
503 1 4.21257 38.8589 4.28948
504 1 1.1956 38.7779 4.18734
505 1 1.42733 41.8878 1.21262
506 1 4.39462 41.6236 1.31958
507 1 4.11887 41.7291 4.15169
508 1 1.19813 41.7781 3.8666
509 1 6.76667 38.6854 1.48629
510 1 9.49654 39.0102 1.72652
511 1 9.88368 38.7625 4.34723
512 1 6.92796 38.9697 4.33223
513 1 6.995 41.7046 1.47885
514 1 9.71646 41.8168 1.08197
515 1 9.96953 41.6132 4.05542
516 1 6.92182 41.9337 4.08876
12375 2 -0.148956 40.1251 14.0478
89 1 12.3482 25.0044 1.26118
519 1 12.5168 41.8614 1.44194
520 1 12.7934 41.8858 4.34143
521 1 1.32474 44.5965 1.38366
522 1 4.12614 44.4582 1.33364
523 1 3.96544 44.5485 4.0957
524 1 1.23068 44.5378 4.18621
525 1 1.15744 47.4907 1.28404
526 1 4.06192 47.3577 1.07271
527 1 3.99471 47.3117 3.98612
528 1 1.34726 47.5178 4.14702
529 1 7.06664 44.5505 1.51656
530 1 9.73656 44.8574 1.30862
531 1 9.78114 44.7267 4.36163
532 1 7.01258 44.6249 4.15278
533 1 6.93646 47.4386 1.63471
534 1 9.95575 47.6265 1.40867
535 1 9.61003 47.3986 4.14904
536 1 6.80752 47.5503 4.30297
537 1 12.4812 44.5183 1.41184
538 1 12.6844 44.6243 4.30519
539 1 12.8431 47.436 1.29525
540 1 12.5025 47.4422 4.35715
541 1 1.44954 24.7351 6.77266
542 1 4.20811 24.6774 6.92836
543 1 3.80487 24.8509 9.58852
544 1 1.16292 24.6776 9.7467
545 1 7.08936 24.8823 7.00195
546 1 9.79575 24.6812 7.04397
547 1 9.57709 24.9328 9.79424
548 1 6.78091 24.9056 9.57802
549 1 12.4837 24.7371 6.75711
550 1 12.4102 24.955 9.65328
551 1 1.50996 27.4526 6.66215
552 1 4.0397 27.4829 7.07797
553 1 3.9774 27.6552 9.88988
554 1 1.11419 27.5215 9.78093
555 1 1.43557 33.326 4.13022
556 1 3.80687 30.2984 6.70096
557 1 4.2392 30.5428 9.82629
558 1 1.51576 30.7515 9.7933
559 1 6.77597 27.5839 6.90151
560 1 9.62363 27.8097 7.13667
561 1 9.72414 27.7839 9.6962
562 1 6.87775 27.9089 9.75099
563 1 6.84757 30.5411 7.2231
564 1 9.50011 30.5814 6.92577
565 1 9.83197 30.739 9.77935
566 1 6.96877 30.5429 10.0024
567 1 12.3802 27.7118 7.02253
568 1 12.453 27.5744 9.72519
569 1 12.556 30.6641 6.97177
570 1 12.6274 30.4214 9.77847
571 1 1.27897 36.1522 7.05714
572 1 4.13929 33.1671 6.9321
573 1 4.04351 33.4095 9.73038
574 1 1.31692 33.3776 9.87613
575 1 3.89875 35.9179 7.08819
576 1 6.74151 36.0426 6.92736
577 1 4.11721 36.1976 9.89749
578 1 1.09639 36.1382 9.84089
579 1 6.79422 33.3661 6.90321
580 1 9.68939 33.4908 6.94243
581 1 9.60188 33.4573 9.86616
582 1 6.81882 33.3807 9.90796
583 1 9.63349 36.2625 6.92623
584 1 12.5935 36.0755 7.24593
585 1 9.79108 36.0553 9.78412
586 1 6.88174 36.1214 9.96501
587 1 12.4501 33.2411 7.0902
588 1 12.4806 33.3418 9.81918
589 1 12.4088 35.9353 4.46297
590 1 12.732 36.1586 9.78243
591 1 1.36056 39.1376 6.94635
592 1 3.98252 38.9022 6.82097
593 1 4.00658 39.2356 9.70493
594 1 1.33876 39.0698 9.71995
595 1 1.44652 41.7971 6.64708
596 1 4.11392 41.7678 6.9433
597 1 4.16007 42.0517 9.92603
598 1 1.23759 41.9541 9.67155
599 1 6.88887 38.9294 7.16739
600 1 9.80869 39.0381 7.01645
601 1 9.78086 39.1048 9.98191
602 1 6.8573 39.0558 9.71034
603 1 6.8722 41.7304 6.94023
604 1 9.78368 44.6452 7.12451
605 1 9.59846 41.706 9.77277
606 1 6.92182 41.7658 9.75302
607 1 12.741 38.8768 7.12247
608 1 12.6402 38.8517 9.86533
609 1 12.4537 41.8891 7.02299
610 1 12.628 41.84 9.76518
611 1 1.13605 44.7273 6.81802
612 1 3.96708 44.5543 6.84633
613 1 4.09355 44.5436 9.41527
614 1 1.35777 44.7248 9.72952
615 1 1.2694 47.5555 6.93432
616 1 4.12695 47.3777 6.89956
617 1 4.15956 47.409 9.63934
618 1 1.29556 47.403 9.58576
619 1 6.95596 44.6663 6.88379
620 1 9.76068 47.405 7.00058
621 1 9.65092 44.4997 9.70447
622 1 6.85251 44.6813 9.71596
623 1 6.84588 47.6131 6.93375
12271 2 -0.187894 37.7167 0.00881131
625 1 9.73443 47.3031 9.76506
626 1 6.95789 47.4435 9.67221
627 1 12.8124 44.5247 7.1353
628 1 12.4852 44.5497 9.84381
629 1 12.5354 47.3382 6.93149
630 1 12.456 47.3809 9.7467
631 1 1.18065 24.7991 12.6296
632 1 3.83076 24.7664 12.5322
633 1 6.79327 24.7113 12.4325
634 1 9.67845 24.9346 12.6419
635 1 12.5275 24.8183 12.531
636 1 1.27245 27.6701 12.6505
637 1 4.15064 27.5046 12.542
638 1 1.31829 30.4805 12.5086
639 1 3.98866 30.3374 12.6874
640 1 6.8714 27.4868 12.5296
641 1 9.83789 27.7176 12.5726
642 1 6.83405 30.478 12.6384
643 1 9.73211 30.4171 12.7577
644 1 12.5539 27.5949 12.4303
645 1 12.4892 30.4963 12.4856
646 1 1.47596 33.2913 12.6402
647 1 4.12858 33.1909 12.5352
648 1 1.40899 36.2292 12.3534
649 1 4.07221 36.0034 12.5685
650 1 6.90664 33.2618 12.756
651 1 9.9129 33.1605 12.5481
652 1 6.89106 36.1027 12.6469
653 1 9.75875 36.1693 12.5399
654 1 12.5978 33.4181 12.5571
655 1 12.6113 36.0709 12.5182
656 1 1.2372 39.0165 12.5578
657 1 3.90812 38.8196 12.5485
658 1 1.26577 41.8417 12.5942
659 1 4.08254 41.5755 12.6814
660 1 6.83678 39.1163 12.6141
661 1 9.42364 38.8289 12.6869
662 1 6.88697 41.811 12.4732
663 1 9.77255 41.7278 12.7965
664 1 12.627 38.8557 12.744
665 1 12.5369 41.698 12.4986
666 1 1.26646 44.5886 12.4872
667 1 4.27793 44.6476 12.2416
668 1 1.42384 47.3048 12.6222
669 1 3.99993 47.5893 12.4246
670 1 7.08509 44.4226 12.7117
671 1 9.8644 44.5949 12.453
672 1 6.87969 47.2064 12.3625
673 1 9.92911 47.2928 12.6707
674 1 12.6109 44.608 12.6571
675 1 12.4756 47.337 12.6865
12363 2 11.2032 48.6011 11.175
12289 2 11.194 43.2519 -0.0752905
12253 2 2.68689 26.0381 2.7821
12362 2 5.57477 48.8098 11.1041
12341 2 -0.00203816 26.0544 11.2438
12348 2 5.56636 31.8132 11.2708
12257 2 8.22682 25.9185 2.7075
12258 2 5.50875 28.877 2.71704
12347 2 2.72509 34.6649 11.1363
12260 2 10.89 28.9036 2.75439
12316 2 -0.204847 37.5433 5.63541
12279 2 10.6918 37.5851 0.0320903
12263 2 2.64298 31.8891 2.71173
12360 2 11.068 43.1047 11.1667
12266 2 8.36088 34.5185 -0.0811062
12346 2 0.0560589 31.8362 11.121
12267 2 8.36613 31.7285 2.71445
12268 2 5.53567 34.7785 2.79126
12296 2 -0.125892 26.1569 5.46182
12270 2 11.1941 34.7119 2.72372
12359 2 8.4542 45.813 11.1666
6463 1 12.4855 32.9345 1.15495
12273 2 5.45433 37.5977 5.52921
12358 2 5.52148 43.2192 11.21
12361 2 -0.0879056 48.8129 11.1658
12293 2 5.44856 48.7168 -0.135584
12277 2 8.29423 37.5448 2.76564
12278 2 5.59445 40.2857 2.73225
12251 2 -0.0925059 26.0714 0.0131694
12280 2 11.3971 40.1363 2.84558
498 1 13.7583 34.9424 2.37821
500 1 12.7143 38.7475 4.46762
12283 2 2.63924 43.1886 2.68815
12252 2 2.68468 29.0001 -0.0385751
12345 2 11.1141 26.1933 11.2749
15282 2 13.9916 43.1767 2.81507
12287 2 8.35603 43.01 2.67127
12288 2 5.62714 45.8676 2.85705
12329 2 -0.169269 46.0974 8.25304
12290 2 11.1436 46.0257 2.77663
12350 2 11.2043 31.8734 11.1974
12292 2 2.66185 48.6846 2.65063
12352 2 2.65263 40.4218 11.2146
12294 2 8.20745 48.9007 2.79444
12286 2 8.3284 45.9009 -0.0680147
12357 2 2.80102 45.9685 10.8649
12297 2 2.53823 28.9325 5.50678
12298 2 2.45265 26.1719 8.32768
12299 1 1.25536 33.1357 6.9974
12300 2 5.43778 26.1349 5.55387
12301 2 8.18147 28.9445 5.77592
12302 2 8.30281 26.2248 8.46881
12303 2 5.30399 29.0493 8.37008
12304 2 11.008 26.1795 5.77748
12305 2 10.9914 29.0681 8.52623
15341 2 13.8465 29.0388 11.1686
12307 2 2.76222 34.6375 5.56804
12308 2 2.9355 31.8626 8.38417
12355 2 11.2265 37.4255 11.1972
12310 2 5.32459 31.8768 5.44951
12311 2 8.23065 34.8185 5.446
12312 2 8.11457 32.0446 8.30821
12313 2 5.4227 34.8366 8.46174
12314 2 11.0643 31.9517 5.68648
12315 2 11.1141 34.8402 8.4313
12354 2 8.2111 40.3658 11.265
12317 2 2.67893 40.2042 5.35658
12318 2 2.67222 37.5297 8.4974
6571 1 12.5177 33.2633 4.25636
12320 2 8.17615 37.5278 8.43988
12321 2 8.49165 40.3283 5.61533
12322 1 9.62957 41.9094 6.90705
12323 2 5.55797 40.3786 8.30596
12324 2 11.1087 37.4995 5.79838
12325 2 11.206 40.338 8.45435
12349 2 8.31989 34.7369 11.375
12327 2 2.65101 45.8812 5.47733
12328 2 2.72999 43.0875 8.28222
12344 2 8.38205 29.1413 11.1805
12330 2 5.52085 43.0217 5.53236
12331 2 8.22089 45.9628 5.63471