ITEM: TIMESTEP
250000
ITEM: NUMBER OF ATOMS
18000
ITEM: BOX BOUNDS xy xz yz pp pp pp
-1.5312822085471772e-01 2.8047128220854201e+01 0.0000000000000000e+00
-1.7720466410412330e+00 3.3650004664103994e+02 0.0000000000000000e+00
-1.5989044162042337e-01 2.8053890441619327e+01 0.0000000000000000e+00
ITEM: ATOMS id type x y z
1 1 1.3104 -0.61537 1.12866
2 1 4.12111 -0.374031 1.40615
3 1 4.10044 -0.414264 4.15575
4 1 1.36499 -0.534061 4.00912
5 1 1.24396 2.33711 1.17808
6 1 4.00789 2.47638 1.04113
7 1 4.10829 2.23587 3.87783
8 1 1.40194 2.32055 3.93853
9 1 6.93923 -0.561353 1.25741
10 1 9.76089 -0.371266 1.21559
11 1 9.57858 -0.279662 3.95161
12 1 6.86027 -0.585311 4.23208
13 1 6.89401 2.28437 1.30307
14 1 9.5826 2.38167 1.1296
15 1 9.77659 2.35011 4.06123
16 1 6.79993 2.45039 3.99695
17 1 12.685 -0.484053 1.14853
18 1 12.4292 -0.515947 3.9383
19 1 12.5789 2.3593 0.978796
20 1 12.6252 2.38856 3.94813
21 1 1.25054 5.29757 1.10423
22 1 4.06671 5.53066 1.28974
23 1 4.12762 5.00517 4.02125
24 1 1.43372 5.26024 3.82572
25 1 1.17143 7.97384 1.35212
26 1 3.99807 8.21826 1.09966
27 1 4.01908 8.0046 3.97859
28 1 1.14964 8.00914 4.17196
29 1 6.92271 5.24303 1.36585
30 1 9.76917 5.04413 1.36355
31 1 9.69316 5.1886 4.29567
32 1 6.9186 5.15828 4.08829
33 1 6.85255 7.93534 1.17392
34 1 9.69485 7.9148 1.27101
35 1 9.85369 8.02906 3.91245
36 1 6.83693 7.83274 3.97969
37 1 12.4813 5.24354 1.15185
38 1 12.5778 5.20203 4.11161
39 1 12.237 8.12807 1.46589
12127 2 -0.0429953 1.04566 13.8444
41 1 1.24229 10.8781 1.04623
42 1 4.00229 10.9559 1.32903
43 1 4.09834 10.9578 4.08528
44 1 1.30394 10.7158 3.86368
12091 2 -0.0729574 20.8594 5.52175
46 1 4.11052 13.5749 0.95842
47 1 4.29223 13.7146 3.8965
48 1 1.36165 13.4451 3.86067
49 1 6.79473 10.894 1.15902
50 1 9.91079 10.8483 1.37351
51 1 9.7663 10.7625 3.90043
52 1 6.93519 10.78 3.96929
53 1 7.01556 13.5674 1.12608
54 1 9.95392 13.7773 1.17934
55 1 9.93306 13.6251 3.95812
56 1 6.87376 13.8149 4.10854
57 1 12.5231 11.0609 1.25059
58 1 12.6433 10.9408 3.97561
59 1 12.8087 13.8523 1.1327
60 1 12.931 13.8054 4.15802
61 1 1.26166 16.2777 1.2629
62 1 4.08168 16.4405 1.05053
63 1 4.2853 16.4672 3.96973
64 1 1.49466 16.0829 3.95182
65 1 1.35078 19.4694 1.01831
66 1 4.16703 19.1092 1.17215
67 1 4.08872 19.253 4.12114
68 1 1.30818 19.188 3.81756
69 1 6.88857 16.6502 1.08489
70 1 9.86518 16.5005 1.23861
71 1 9.70178 16.52 3.94374
72 1 6.91992 16.5212 3.95467
73 1 6.88107 19.4416 1.21152
74 1 9.59623 19.168 1.13754
75 1 9.78613 19.3716 4.09116
76 1 6.89294 19.4427 4.15265
77 1 12.6958 16.647 1.10933
78 1 12.7443 16.3025 3.95264
79 1 12.6305 22.1178 1.10174
80 1 12.6007 19.1634 3.91251
81 1 1.23751 22.1589 1.21636
82 1 3.99718 22.0799 1.22447
83 1 4.08905 21.9865 4.05159
84 1 1.27176 21.9708 4.12923
85 1 6.77245 22.0881 1.14223
86 1 9.50289 21.8707 0.900857
87 1 9.85811 22.157 3.81428
88 1 7.05258 22.1229 4.01282
12014 2 -0.138329 6.66884 2.65534
90 1 12.5266 22.0374 3.90044
91 1 1.30805 -0.619332 6.7528
92 1 4.13287 -0.482776 7.09138
93 1 4.2398 -0.626097 9.88472
94 1 1.28578 -0.398647 9.58765
95 1 1.39524 2.38611 6.75183
96 1 4.14739 2.3504 6.91398
97 1 4.24457 2.30192 9.73118
98 1 1.53809 2.34284 9.55285
99 1 6.9617 -0.429623 7.03498
100 1 9.9041 -0.484873 6.77111
101 1 9.92137 -0.697314 9.55438
102 1 7.02453 -0.491817 9.764
103 1 6.93059 2.20102 6.87574
104 1 9.88922 2.33348 6.98335
105 1 9.77071 2.20925 9.75438
106 1 6.80427 2.38652 9.85224
107 1 12.6168 -0.276466 6.68044
108 1 12.5158 -0.600072 9.58996
109 1 12.5414 2.27282 6.83037
110 1 12.598 2.49546 9.67895
111 1 1.12567 5.14969 6.90738
112 1 3.9459 5.36685 6.93228
113 1 4.07776 5.19213 9.63963
114 1 1.37522 5.05617 9.68326
115 1 1.42005 8.02293 6.91761
116 1 4.14566 8.15667 7.01505
117 1 4.04658 8.05719 9.65116
118 1 1.30204 7.97664 9.65893
119 1 6.85749 5.10209 6.89828
120 1 9.87436 5.19644 6.88484
121 1 9.78904 5.27342 9.59429
122 1 6.86167 5.16419 9.77137
123 1 6.85512 7.99483 7.03007
124 1 9.72489 8.05883 6.64654
125 1 9.68556 8.06441 9.66981
126 1 6.9505 8.02185 9.73877
127 1 12.5878 5.08619 6.75215
128 1 12.6142 5.28701 9.51076
129 1 12.5791 7.92798 6.87055
130 1 12.743 8.05093 9.61706
131 1 1.378 10.7721 6.71269
132 1 4.28217 10.8022 6.73418
133 1 4.20554 10.9361 9.53867
134 1 1.55447 10.8501 9.42309
135 1 1.28258 13.5259 6.95239
136 1 4.15609 13.6869 6.67565
137 1 4.35138 13.562 9.39365
138 1 1.53977 13.683 9.70553
139 1 7.1366 10.8279 6.88926
140 1 9.98566 10.9314 6.64089
141 1 9.7511 10.7829 9.49716
142 1 6.84155 10.834 9.66104
143 1 7.09506 13.6596 6.7805
144 1 9.86072 13.6202 6.70647
145 1 9.9738 13.6742 9.44402
146 1 7.07586 13.5515 9.55844
147 1 12.862 10.8271 6.70942
148 1 12.6088 10.9518 9.57567
149 1 12.4894 13.6994 6.98435
150 1 12.8045 13.6671 9.54151
151 1 1.39815 16.3826 6.83283
152 1 4.05459 16.441 6.92549
153 1 4.15674 16.4536 9.57293
154 1 1.23008 16.5719 9.63164
155 1 1.48074 19.3276 6.5483
156 1 4.17344 19.1463 6.91361
157 1 4.13852 19.3068 9.70418
158 1 1.38698 19.3781 9.45507
159 1 6.84397 16.6249 6.57242
160 1 9.89422 16.4467 6.54433
161 1 9.89978 16.3816 9.47744
162 1 6.85152 16.4645 9.40264
163 1 6.93058 19.3679 6.98449
164 1 9.79803 19.1493 6.74787
165 1 9.88679 19.3312 9.64237
166 1 6.99209 19.2459 9.67871
167 1 12.7376 16.6274 6.72248
168 1 12.7277 16.2922 9.49384
169 1 12.6613 19.3612 6.5732
170 1 12.6581 19.2233 9.48089
171 1 1.40119 21.9149 6.84156
172 1 4.28743 22.1299 6.75177
173 1 4.29554 21.9511 9.58766
174 1 1.43124 22.2011 9.67939
175 1 6.98858 22.1133 6.91151
176 1 9.64274 22.2123 6.55979
177 1 9.69783 22.1155 9.46394
178 1 6.97798 22.0586 9.70324
179 1 12.6733 22.1457 6.71661
180 1 12.5894 22.074 9.42962
181 1 1.40802 -0.575808 12.3296
182 1 4.09229 -0.41252 12.5728
183 1 1.39438 2.34611 12.453
184 1 4.09772 2.47611 12.4721
185 1 6.87622 -0.507964 12.4755
186 1 9.62798 -0.542008 12.2036
187 1 6.93011 2.15248 12.4596
188 1 9.79389 2.34832 12.6472
189 1 12.5896 -0.395611 12.4694
190 1 12.6739 2.37821 12.5995
191 1 1.28704 5.19219 12.3776
192 1 4.11897 4.97668 12.5253
193 1 1.43832 7.92654 12.5806
194 1 4.28474 7.92555 12.3585
195 1 6.91978 5.15948 12.3594
196 1 9.74228 5.10046 12.5225
197 1 6.94301 7.87694 12.5326
198 1 9.74255 7.99019 12.3692
199 1 12.6781 5.17629 12.4736
200 1 12.6021 7.92317 12.5686
201 1 1.1679 10.8267 12.3629
202 1 3.86107 10.7953 12.4683
203 1 1.51613 13.7406 12.2703
204 1 4.25815 13.5856 12.2556
205 1 6.80988 10.7247 12.4831
206 1 9.76788 10.9325 12.1968
207 1 6.90552 13.4964 12.4569
208 1 9.56335 13.6836 12.2063
209 1 12.5974 10.7847 12.3342
210 1 12.5311 13.6136 12.3311
211 1 1.29874 16.6793 12.5259
212 1 4.30047 16.4536 12.4682
213 1 1.52384 19.4822 12.4951
214 1 4.17751 19.2254 12.261
215 1 7.08551 16.4649 12.1687
216 1 10.0495 16.5458 12.266
217 1 7.07437 19.2286 12.6322
218 1 9.69093 19.427 12.3735
219 1 12.7688 16.6181 12.2277
220 1 12.8815 19.2401 12.1211
221 1 1.59366 22.4037 12.5004
222 1 4.34265 22.2438 12.4369
223 1 7.00519 22.168 12.4161
224 1 9.99137 22.1154 12.2135
225 1 12.6498 21.9759 12.488
12134 2 5.5753 6.50851 13.819
15042 2 13.8289 20.6102 2.59751
12139 2 5.41137 12.2328 13.7151
12130 2 11.1732 1.01996 13.9309
12131 2 2.65749 3.70546 13.7982
12074 2 -0.0202644 12.1402 8.18872
12138 2 8.26118 9.37242 13.7715
12008 2 5.55544 0.803015 2.73497
12146 2 2.75696 20.8673 13.8008
12010 2 11.3318 0.93125 2.54133
12125 2 11.3094 20.6571 10.9978
12135 2 11.0955 6.50309 13.8803
12013 2 2.77568 3.78367 2.35852
12124 2 8.3989 23.5932 10.9855
12064 2 -0.048836 6.41422 8.3543
6054 1 1.43815 13.6772 1.28675
12017 2 8.3977 3.73288 2.76494
12018 2 5.40425 6.56894 2.68841
12136 2 2.69569 9.23945 13.8736
12020 2 11.203 6.50824 2.6544
12113 2 5.58058 9.41204 10.9258
12104 2 8.38848 0.846724 11.0291
12023 2 2.60879 9.35168 2.69096
12016 2 8.53122 6.40625 -0.0114767
40 1 13.1294 8.09202 4.21513
12107 2 2.79899 6.56742 11.1166
12027 2 8.22731 9.41657 2.72862
12028 2 5.56937 12.1178 2.69715
6058 2 -0.0280066 14.7991 2.46782
12030 2 11.1204 12.2736 2.62182
12102 2 2.9205 0.982562 11.0966
12114 2 8.3119 12.0956 10.8764
12033 2 3.0434 14.9861 2.48906
12029 2 11.0614 9.55577 -0.0908368
12100 2 11.1792 23.5767 8.15558
12099 2 11.2589 20.6164 5.33101
12037 2 8.36022 15.1503 2.4853
12038 2 5.47639 17.9415 2.50453
12098 2 5.59478 23.3828 8.26708
12040 2 11.2914 17.7143 2.50232
12097 2 8.26272 20.7526 8.35313
12081 2 0.123788 15.0142 5.60231
12043 2 2.75698 20.6316 2.69607
12123 2 5.50511 20.6549 11.0493
12096 2 8.40818 23.6203 5.31376
12095 2 5.5312 20.6462 5.58025
12047 2 8.32167 20.6192 2.52306
12048 2 5.59287 23.3221 2.64903
12115 2 11.1581 9.42603 11.0742
12050 2 11.2533 23.4541 2.68577
12015 2 5.69979 3.78954 -0.0993055
12052 2 2.77764 0.941773 5.39896
12112 2 2.60812 12.285 10.9965
12122 2 2.9071 23.4426 11.0472
12110 2 11.2175 3.78356 11.0518
12056 2 8.38751 0.870975 5.58242
12109 2 8.43991 6.53475 10.9894
12058 2 5.51535 0.745481 8.35737
12108 2 5.56425 3.74157 11.01
12060 2 11.3218 0.773364 8.27366
12120 2 11.2636 14.9902 10.7666
12062 2 2.72977 6.56397 5.40949
12063 2 2.73618 3.76861 8.14882
12119 2 8.47399 17.9424 11.12
12065 2 5.58912 3.67848 5.41039
12066 2 8.42377 6.42101 5.49026
12067 2 8.36648 3.74863 8.26882
12068 2 5.5256 6.60788 8.40724
12069 2 11.1867 3.56118 5.50681
12070 2 11.2798 6.59317 8.08366
12143 2 8.30535 15.1471 13.6456
12072 2 2.80803 12.2283 5.27006
12073 2 2.82057 9.44982 8.23805
12118 2 5.56175 15.0548 10.9894
12075 2 5.54308 9.33769 5.47382
12076 2 8.36785 12.2968 5.47897
12077 2 8.47021 9.29373 8.2062
12078 2 5.56568 12.1414 8.09399
12079 2 11.3808 9.41557 5.3658
12080 2 11.255 12.1902 8.22609
12148 2 8.43278 20.8153 13.7616
12082 2 2.79069 17.8431 5.48715
12083 2 2.73236 15.0185 8.2936
12117 2 2.65178 17.7647 11.0632
12085 2 5.39818 15.1249 5.41824
12086 2 8.42258 17.8048 5.25986
12087 2 8.36471 15.0989 8.14041
12088 2 5.66463 17.9841 8.30707
12089 2 11.1982 14.974 5.42197
12090 2 11.257 17.7712 8.13528
440 1 12.3801 19.3733 1.12619
12092 2 2.64395 23.3434 5.40178
12093 2 2.78279 20.6626 8.30757
12054 2 -0.00831773 0.940469 8.12693
12094 2 -0.0140631 23.5462 8.36164
12149 2 5.68024 23.5327 13.8592
12144 2 5.61267 17.9509 13.8726
12106 2 -0.0556602 3.67554 11.075
12141 2 2.80548 15.073 13.853
12121 2 0.023651 20.8661 10.9635
12147 2 -0.0318375 23.5593 13.8477
12061 2 0.100461 3.80235 5.20388
12145 2 11.2993 17.8945 13.6055
12150 2 11.4193 23.5282 13.8206
12004 2 0.0168951 0.901269 2.52729
12084 2 -0.0624009 17.8059 8.19507
12140 2 11.2644 12.1657 13.7415
12006 2 8.40838 0.959999 -0.114771
15051 2 13.9519 0.853917 5.4477
15106 2 13.939 6.70099 11.0789
12111 2 0.0120172 9.271 10.8963
12071 2 -0.116797 9.31062 5.50638
15022 2 13.9238 9.37745 2.37393
12129 2 5.58576 0.942692 13.7756
12005 2 5.60867 -1.78007 -0.115407
226 1 4.16802 -0.309468 15.2658
227 1 1.23681 -0.376353 15.2297
228 1 4.23955 2.34234 15.0545
229 1 1.32382 2.41358 15.1385
230 1 9.74012 -0.370313 15.2268
231 1 6.87397 -0.394859 15.1767
232 1 9.68383 2.35655 15.2651
233 1 6.81888 2.49565 15.2292
234 1 12.5663 -0.318307 15.1543
235 1 12.4709 2.42715 15.3186
236 1 3.95823 5.28987 15.4796
237 1 1.18741 5.21066 15.0927
238 1 4.23312 7.93236 15.228
239 1 1.37456 7.95519 15.3417
240 1 9.95278 5.18491 15.6041
241 1 7.05576 5.34474 15.3133
242 1 9.64046 8.06338 14.9918
243 1 7.00526 8.10494 15.2883
244 1 12.6477 5.22411 15.2604
245 1 12.4944 8.04933 15.2214
246 1 3.98101 10.7899 15.4169
247 1 1.17067 10.8033 15.2062
248 1 4.16032 13.6092 15.2124
249 1 1.33647 13.5802 15.0401
250 1 9.62411 10.6962 15.2016
251 1 6.82783 10.8907 15.2724
252 1 9.85082 13.6115 14.9794
253 1 7.04578 13.7638 15.2944
254 1 12.3894 10.8961 15.1537
255 1 12.577 13.7041 15.1079
256 1 4.21687 16.5447 15.1444
257 1 1.30214 16.2553 15.2545
258 1 4.19988 19.3477 15.0579
259 1 1.31956 19.3421 15.3456
260 1 9.90644 16.5623 15.0937
261 1 6.97372 16.5492 14.8529
262 1 9.86383 19.5055 15.1674
263 1 7.02017 19.4325 15.4961
264 1 12.5707 16.4668 15.0274
265 1 12.5695 19.2273 14.9093
266 1 3.99143 22.2135 15.2772
267 1 1.21343 22.1104 15.238
268 1 9.74661 22.0887 15.2117
269 1 6.88115 21.994 15.0633
270 1 12.5909 22.1974 15.0866
271 1 1.24605 -0.411391 18.1609
272 1 4.1707 -0.204608 17.9586
273 1 3.9491 -0.371281 20.8184
274 1 1.25469 -0.309903 20.8752
275 1 1.01789 2.4307 18.3242
276 1 3.9184 2.56286 17.8916
277 1 4.13546 2.28002 20.8689
278 1 1.27974 2.51526 21.0553
279 1 6.97958 -0.343181 18.2225
280 1 9.844 -0.437802 18.1098
281 1 9.7032 -0.472359 20.9162
282 1 6.69965 -0.543273 21.1059
283 1 6.95028 2.43213 18.0827
284 1 9.70336 2.30796 18.186
285 1 9.89631 2.4587 21.0296
286 1 7.12696 2.31917 20.9827
287 1 12.5744 -0.441213 18.1685
288 1 12.4716 -0.611541 20.9547
289 1 12.5607 2.27604 17.9706
290 1 12.8085 2.1625 20.8141
291 1 1.28479 5.14086 18.0321
292 1 3.95395 5.33892 18.1724
293 1 4.03942 5.02103 20.9878
294 1 1.31579 5.2098 20.9215
295 1 1.39156 8.00769 18.2405
296 1 3.93686 8.38153 17.9429
297 2 5.54473 9.60363 19.5568
298 1 4.08874 7.8613 20.5822
299 1 6.82709 5.24941 17.8599
300 1 9.58499 5.24675 18.3568
301 1 9.50372 5.12706 21.1614
302 1 6.86158 5.19857 20.8753
303 1 6.74007 8.36756 18.0635
304 1 9.62052 7.98639 17.9837
305 1 9.69919 8.03038 20.8266
306 1 6.79673 8.21792 20.7838
307 1 12.4143 5.31992 18.1227
308 1 12.4362 5.15774 21.0486
309 1 12.46 7.99803 18.2039
310 1 12.4862 8.00322 20.7345
311 1 1.30049 10.7444 18.1097
312 1 4.39678 11.0524 18.4204
313 1 4.20044 10.617 21.1761
314 1 1.20436 10.822 21.0151
315 1 1.30049 13.5983 17.9453
316 1 4.10499 13.7106 17.9342
317 1 4.00284 13.7445 21.0461
318 1 1.29741 13.6417 20.8621
319 1 6.93066 11.0196 18.038
320 1 9.84173 10.7244 17.9462
321 1 9.86926 11.0613 20.8408
322 1 6.94595 10.8588 20.9433
323 1 6.98376 14.0963 18.0844
324 1 9.78786 13.646 17.7138
325 1 9.76274 13.6689 20.4908
326 1 6.76767 13.8487 20.9907
327 1 12.5527 10.8426 17.9699
328 1 12.6264 10.6692 20.898
329 1 12.5986 13.6879 17.8365
330 1 12.892 13.286 20.7173
331 1 1.32098 16.543 17.973
332 1 3.99356 16.2916 17.8881
333 1 4.22024 16.4475 20.7797
334 1 1.48565 16.543 20.8259
335 1 1.32194 19.3664 18.0521
336 1 4.00988 19.3918 17.8893
337 1 4.14242 19.392 20.8235
338 1 1.36784 19.3135 21.1295
339 1 6.72547 16.8232 17.5857
340 1 9.64361 16.4693 17.8528
341 1 9.55327 16.7861 20.6688
342 1 6.75947 16.6557 20.9083
343 1 6.72724 19.4873 18.2839
344 1 9.78659 19.3363 17.9023
345 1 10.0453 19.5147 20.5045
346 1 7.06498 19.3954 20.9761
347 1 12.3997 16.3077 17.8447
348 1 12.7003 16.5456 20.6149
349 1 12.6125 19.2771 17.9468
350 1 12.7592 19.3045 20.9205
351 1 1.19754 22.0414 18.0364
352 1 4.05473 22.2517 18.1155
353 1 4.23629 22.1251 21.0191
354 1 1.37973 22.2125 20.8241
355 1 6.9824 22.1733 17.9281
356 1 9.8433 22.3019 17.98
357 1 9.76033 22.1168 21.0001
358 1 7.00266 22.2405 20.6436
359 1 12.513 22.186 17.7201
360 1 12.5783 22.0627 20.78
361 1 1.35441 -0.266088 23.6908
362 1 4.16927 -0.472677 23.8096
363 1 4.00388 -0.52191 26.6793
364 1 1.23828 -0.391866 26.3029
365 1 1.29745 2.51369 23.7461
366 1 4.28019 2.23794 23.7513
367 1 4.32371 2.51862 26.6532
368 1 1.45238 2.56037 26.629
369 1 7.13299 -0.670308 23.7459
370 1 9.84964 -0.624696 23.6902
371 1 9.83648 -0.531797 26.6334
372 1 6.84412 -0.240016 26.8524
373 1 6.9109 2.22112 23.7304
374 1 9.5522 2.22398 23.8838
375 1 9.89243 2.26031 26.4974
376 1 7.11286 2.45333 26.8041
377 1 12.6335 -0.394022 23.6622
378 1 12.6414 -0.644998 26.5403
379 1 12.4214 2.53697 23.8351
380 1 12.6161 2.32917 26.5592
381 1 1.43025 5.28334 23.7382
382 1 4.28555 5.053 23.9175
383 1 4.06431 5.3225 26.7755
384 1 1.16021 5.1313 26.5604
385 1 1.26573 8.20063 23.9876
386 1 4.06305 7.89302 23.5569
387 1 4.14963 7.96771 26.6913
388 1 1.39532 8.0324 26.6376
389 1 7.17704 4.84853 23.7339
390 1 9.78216 5.35843 23.8298
391 1 9.96862 4.91953 26.5437
392 1 6.95735 5.02825 26.7032
393 1 6.87208 7.89077 23.6451
394 1 9.81561 8.10923 23.8277
395 1 9.67142 7.89789 26.6512
396 1 6.83897 7.86758 26.4251
397 1 12.4196 5.22259 24.0773
398 1 12.5227 5.06956 26.7321
399 1 12.4398 8.00667 23.7114
400 1 12.6154 7.97707 26.7364
401 1 1.167 10.8868 23.7424
402 1 4.20353 10.7978 23.7469
403 1 4.15954 10.9262 26.5447
404 1 1.43437 10.8291 26.5618
405 1 1.1357 13.5094 23.6799
406 1 4.10137 13.6387 23.7647
407 1 4.01725 13.527 26.5486
408 1 1.23045 13.5685 26.5305
409 1 6.96774 10.7505 23.849
410 1 9.71626 10.9864 23.7716
411 1 9.68792 10.8231 26.639
412 1 6.98083 10.7816 26.6052
413 1 6.80639 13.6463 23.5923
414 1 9.71189 13.7754 23.9243
415 1 9.72474 13.7288 26.6293
416 1 6.95641 13.6539 26.4133
417 1 12.4569 10.6867 23.8554
418 1 12.5158 10.7666 26.6818
419 1 12.88 13.3755 23.8768
420 1 12.561 13.6034 26.6684
421 1 1.44075 16.5401 23.6374
422 1 3.95818 16.4824 23.6786
423 1 4.12283 16.5839 26.5468
424 1 1.17158 16.3497 26.5996
425 1 1.27063 19.2598 23.8226
426 1 4.06715 19.2964 23.6545
427 1 4.22604 19.4722 26.519
428 1 1.3721 19.157 26.4688
429 1 6.62405 16.6039 23.7722
430 1 9.71071 19.5186 23.4645
431 1 9.76893 16.4859 26.8459
432 1 6.90815 16.3751 26.5128
433 1 6.87924 19.5293 23.7635
434 1 12.5345 19.3326 26.3344
435 1 9.8521 19.122 26.2391
436 1 7.00882 19.1881 26.5402
437 1 12.783 16.5574 23.7525
438 1 12.539 16.5878 26.4823
439 1 12.5113 19.3383 23.4036
12026 2 8.41704 12.2786 27.9931
441 1 1.33015 22.1334 23.7369
442 1 4.0019 22.1757 23.789
443 1 4.13499 22.1123 26.7193
444 1 1.28231 22.3367 26.5253
445 1 6.89703 22.3418 23.6642
446 1 9.76077 22.4118 23.6768
447 1 9.86499 22.103 26.5377
448 1 6.91614 22.2286 26.4882
449 1 12.575 22.1153 23.4536
450 1 12.5229 22.2377 26.5123
12012 2 2.7032 6.58645 28.041
12250 2 11.0386 23.5156 25.0895
12046 2 8.29201 23.4733 27.9459
12032 2 2.71644 17.7137 27.9192
12133 2 8.2521 3.78414 13.9491
12227 2 8.33017 9.32824 25.2586
12249 2 11.1259 20.7227 22.1394
12226 2 8.36907 12.3804 22.3362
12225 2 5.5434 9.2883 22.6843
12224 2 -0.117555 12.1087 25.0908
12223 2 2.70853 9.58123 25.1697
12248 2 5.47606 23.5299 25.0462
12222 2 2.80809 12.2268 22.4207
12228 2 5.50638 12.2309 25.2637
12171 2 -0.0616451 9.28207 16.6437
12220 2 11.1705 6.64821 25.3222
12247 2 8.41712 20.8128 24.9661
12045 2 5.561 20.5492 27.9621
12039 2 11.3031 15.1367 28.0082
15232 2 13.8593 15.067 25.0198
12219 2 11.0565 3.77158 22.6184
12246 2 8.30141 23.465 22.1506
12022 2 2.75257 12.1917 27.9024
12218 2 5.40557 6.54497 25.3601
12217 2 8.37885 3.6473 25.2246
12245 2 5.55903 20.6838 22.3676
12152 2 2.64807 1.02743 16.5601
12216 2 8.36066 6.37368 22.5359
12243 2 2.80142 20.7594 25.2104
12215 2 5.60028 3.6463 22.3704
12156 2 8.28989 1.01436 16.778
15222 2 13.8718 9.23073 25.2036
12158 2 5.49034 1.08307 19.4603
12229 2 11.1943 9.53093 22.3458
12160 2 11.2726 0.91723 19.6191
12242 2 2.69881 23.6058 22.3917
12162 2 2.57667 6.62532 16.7109
12163 2 2.67156 3.58217 19.53
12240 2 11.1934 17.856 24.935
12165 2 5.33238 3.80476 16.5469
12166 2 8.44818 6.5935 16.5844
12167 2 8.48775 3.58529 19.5211
12168 2 5.60214 6.3136 19.4559
12169 2 11.1941 3.66412 16.8263
12170 2 11.0089 6.56198 19.5672
12239 1 9.42184 16.796 23.8221
12172 2 2.62889 12.373 16.48
12173 2 2.39211 9.4654 19.6455
12238 2 5.47027 17.816 25.153
12175 2 5.44836 9.58133 16.3933
12176 2 8.49199 12.2361 16.4531
12177 2 8.562 9.5018 19.4645
12178 2 5.67642 12.7168 19.2874
12179 2 11.1808 9.40733 16.5314
12180 2 11.3035 12.3571 19.4187
12237 2 8.33625 15.2076 25.0684
12182 2 2.71759 17.9035 16.5447
12183 2 2.7586 14.9488 19.5134
12236 2 8.36227 17.9165 22.1798
12185 2 5.49165 15.1672 16.3975
12186 2 8.46578 17.9855 16.5358
12187 2 8.39566 15.3688 19.467
12188 2 5.40607 17.9644 19.3357
12189 2 11.0241 15.1087 16.4165
12190 2 11.3433 17.6735 19.329
12235 2 5.39555 15.253 22.2634
12192 2 2.75253 23.5122 16.6994
12193 2 2.81863 20.7358 19.4512
15162 2 13.8339 3.64283 19.552
12195 2 5.41943 20.7936 16.4998
12196 2 8.43396 23.5047 16.6224
12197 2 8.4262 20.6619 19.3448
12198 2 5.56469 23.5179 19.3426
12199 2 11.2082 20.6855 16.6298
12200 2 11.2401 23.4918 19.4106
12233 2 2.7159 15.0391 25.048
12202 2 2.63045 1.01018 22.3466
12036 2 8.434 17.9951 27.9356
12232 2 2.64267 17.8744 22.3543
12241 2 -0.113415 20.7723 22.3218
12206 2 8.38905 0.770258 22.4862
6309 1 1.14026 7.83971 20.9947
12208 2 5.67844 0.892621 25.1854
12244 2 -0.115425 23.6135 25.1045
12210 2 11.2694 0.860072 25.2194
12230 2 11.1063 12.3154 24.9922
12212 2 2.62343 6.51514 22.3258
12213 2 2.74279 3.67198 25.2038
12155 2 5.51524 -1.69471 16.802
15172 2 13.7914 9.36738 19.4495
12049 2 11.0789 20.7454 28.0046
12011 2 -0.0771439 3.87206 27.9967
12214 2 -0.129534 6.60938 25.2107
15211 2 13.7955 6.58868 22.1208
15181 2 13.943 17.6424 16.4531
12035 2 5.65453 14.9508 28.0164
12042 2 2.70004 23.53 27.925
12025 2 5.62445 9.28771 27.9404
15021 2 13.9553 12.1862 27.9776
12184 2 0.0793875 17.9335 19.4704
12041 2 0.0674083 20.7628 27.8611
15242 2 13.8397 20.6607 24.8846
15011 2 13.9164 6.49171 27.9608
15212 2 13.8658 3.67331 25.1765
15151 2 13.9092 0.89372 16.6984
12019 2 11.116 3.71157 28.0029
12002 2 2.76728 0.93439 27.9488
12021 2 -0.0055837 9.41507 27.9046
451 1 1.36436 25.0634 0.827896
452 1 3.98734 24.9904 1.14419
453 1 4.17263 24.7777 4.03674
454 1 1.30415 24.7763 3.97564
455 1 6.80021 24.8361 1.3164
456 1 9.77799 24.7544 1.22737
457 1 9.99383 25.0648 3.96613
458 1 7.01143 25.005 4.15351
459 1 12.5757 27.629 1.1341
460 1 12.7595 25.0126 4.29791
461 1 1.34248 27.9981 1.26783
462 1 4.18775 27.7462 1.25442
463 1 4.25656 27.5672 3.88058
464 1 1.29955 27.5984 3.84282
465 1 1.3682 30.6666 1.22727
466 1 4.11122 30.6894 1.22056
467 1 4.00684 30.6325 4.07754
468 1 1.32079 30.627 4.18575
469 1 6.99873 27.6675 1.22464
470 1 9.8214 27.69 1.18375
471 1 9.74451 27.6803 3.91865
472 1 7.12965 27.8797 3.88913
473 1 6.93334 30.6096 1.30959
474 1 9.75802 30.6148 1.20718
475 1 9.5982 30.581 4.16653
476 1 6.74041 30.5165 4.17693
477 1 12.4452 30.2945 0.761627
478 1 12.6758 27.9273 3.99909
12364 2 2.76593 26.4321 13.8891
480 1 12.5284 30.5864 3.70511
481 1 1.40326 36.2512 1.16002
482 1 1.35193 33.5204 1.16059
483 1 4.07913 33.4571 4.09402
484 1 4.04693 36.1025 4.12855
485 2 2.71708 37.6104 2.62427
486 1 4.08184 36.3424 1.2227
487 1 6.89537 36.1551 4.02863
488 1 1.21081 36.2496 3.94742
489 1 4.27826 33.3579 1.30866
490 1 6.96407 33.6852 1.5614
491 1 9.90956 33.415 3.85267
492 1 6.90416 33.6024 4.24685
493 1 6.81294 36.4489 1.31667
494 1 9.48143 36.2187 1.39959
495 1 12.416 37.4811 1.41759
496 1 9.49767 36.3721 4.26788
497 1 9.73447 33.4125 1.11351
1106 1 9.74309 50.2219 12.5727
12285 2 5.52503 43.2507 -0.126249
12254 2 -0.0531748 29.1656 2.68846
501 1 1.12677 39.1847 1.25478
502 1 3.77716 39.2091 1.32459
503 1 4.17877 38.9208 4.12698
504 1 1.44566 39.2838 4.16907
505 1 1.28751 41.9081 1.38292
506 1 4.17663 41.8299 1.30799
507 1 3.96445 41.7323 4.05865
508 1 1.21771 42.1796 3.97689
509 1 6.90193 38.9951 1.18397
510 1 9.69818 39.1115 1.2353
511 1 9.87152 39.0431 3.95694
512 1 6.9534 39.2292 3.98602
513 1 7.08862 41.8962 1.27097
514 1 9.87957 41.8636 1.03168
515 1 9.77667 41.7534 3.98922
516 1 6.92178 42.1213 4.23119
15356 2 13.8064 46.1169 11.048
89 1 12.679 24.8816 1.44434
519 1 12.4725 42.3548 1.47574
520 1 12.592 42.1044 4.21021
521 1 1.32487 44.4913 1.33095
522 1 4.21693 44.7067 1.35968
523 1 4.34989 44.6535 4.11428
524 1 1.45159 44.9462 4.046
525 1 1.29742 47.387 1.50261
526 1 4.05869 47.5419 1.39205
527 1 4.1114 47.6168 4.23616
528 1 1.38337 47.7372 4.34962
529 1 6.96519 44.8136 1.15046
530 1 9.69845 44.7128 1.30662
531 1 9.95145 44.5244 4.03345
532 1 7.23271 44.9472 3.81277
533 1 7.07307 47.5676 1.36051
534 1 9.64843 47.4708 1.4179
535 1 9.78854 47.3613 4.15052
536 1 6.91769 47.749 4.23649
537 1 12.5139 44.8934 1.25362
538 1 12.6297 44.9554 4.19783
539 1 12.3875 47.5449 1.3582
540 1 12.7793 47.7197 4.1386
541 1 1.33453 24.8149 6.84834
542 1 4.2266 24.8663 6.84235
543 1 4.00204 24.7889 9.67573
544 1 1.35167 24.9276 9.65985
545 1 7.03956 24.96 6.78797
546 1 9.79293 25.232 6.62063
547 1 9.7755 25.0754 9.58906
548 1 7.01504 25.0343 9.84139
549 1 12.4061 25.15 6.96065
550 1 12.458 24.834 9.77604
551 1 1.51881 27.6259 6.77703
552 1 4.3315 27.8643 6.71683
553 1 4.28313 27.7743 9.39807
554 1 1.39028 27.6515 9.89141
555 1 1.30239 33.4773 3.99927
556 1 3.83231 30.5257 7.05191
557 1 4.11997 30.6171 9.72955
558 1 1.38698 30.5845 9.65978
559 1 6.91793 27.9001 6.71175
560 1 9.82387 28.0285 6.66779
561 1 9.70947 27.947 9.76408
562 1 7.04785 27.8823 9.47329
563 1 6.97882 30.8153 6.86902
564 1 9.88616 30.7484 6.91265
565 1 9.77791 30.8205 9.66997
566 1 7.00066 30.7207 9.67016
567 1 12.6157 27.9831 6.94763
568 1 12.4709 28.0174 9.73146
569 1 12.5703 30.6606 6.8953
570 1 12.639 30.6035 9.62094
571 1 1.45101 36.2812 6.72181
572 1 4.14826 33.4103 6.85381
573 1 3.98738 33.5496 9.77875
574 1 1.25212 33.5004 9.68064
575 1 4.23279 36.2001 6.79584
576 1 6.85644 36.2555 6.85186
577 1 4.11361 36.255 9.94091
578 1 1.28549 36.3811 9.6271
579 1 6.91112 33.5338 6.90062
580 1 9.60758 33.3555 6.78048
581 1 9.69728 33.5953 9.78107
582 1 6.80727 33.5282 9.79279
583 1 9.76374 36.3751 7.06089
584 1 12.6551 36.2869 7.05136
585 1 9.77872 36.3453 9.68164
586 1 6.8855 36.3464 9.61963
587 1 12.3542 33.7137 6.87618
588 1 12.5998 33.4921 9.69395
589 1 12.5511 36.2199 4.20499
590 1 12.6167 36.3562 9.75208
591 1 1.27825 38.9888 7.02908
592 1 4.05601 38.9594 6.92727
593 1 4.12313 39.1366 9.7964
594 1 1.53608 38.9869 9.88426
595 1 1.26317 41.9429 6.9036
596 1 4.12753 41.878 6.82845
597 1 4.12096 41.9865 9.74147
598 1 1.37325 41.9455 9.60905
599 1 6.95101 39.0105 6.97624
600 1 9.57179 39.1873 6.98357
601 1 9.69034 39.0872 9.79168
602 1 6.99278 39.091 9.90204
603 1 6.8772 41.7144 6.90869
604 1 9.74468 44.6568 6.91129
605 1 9.7799 41.8794 9.67973
606 1 6.92666 41.919 9.81603
607 1 12.482 39.2513 6.78943
608 1 12.4888 39.0639 9.62672
609 1 12.6345 41.9428 6.85921
610 1 12.7169 41.9231 9.71642
611 1 1.30951 44.764 6.75972
612 1 4.14043 44.8384 6.81642
613 1 4.1649 44.7036 9.68643
614 1 1.3749 44.7738 9.92008
615 1 1.13811 47.4868 7.13494
616 1 4.1601 47.6506 6.88166
617 1 3.98855 47.5346 9.8145
618 1 1.31826 47.711 9.75253
619 1 6.98017 44.5863 6.84994
620 1 9.82302 47.4899 6.72013
621 1 9.43652 44.7035 9.43126
622 1 6.91355 44.7287 9.6865
623 1 6.92418 47.5128 7.05646
12372 2 5.42794 34.8566 13.8828
625 1 9.43424 47.3924 9.55046
626 1 6.75461 47.5085 9.77274
627 1 12.6703 44.7387 7.11689
628 1 12.5171 44.6509 9.7047
629 1 12.5791 47.5725 6.86028
630 1 12.2847 47.5727 9.66147
631 1 1.42668 25.169 12.4977
632 1 4.50712 24.7812 12.364
633 1 7.00036 25.0088 12.6829
634 1 9.62551 24.9946 12.5603
635 1 12.658 25.0223 12.4366
636 1 1.38355 27.904 12.6754
637 1 3.98293 27.8518 12.421
638 1 1.36554 30.7445 12.454
639 1 4.10507 30.7829 12.4716
640 1 6.9312 27.8104 12.3065
641 1 9.60676 27.6992 12.5255
642 1 6.92128 30.6069 12.4126
643 1 9.68416 30.7706 12.5434
644 1 12.5399 28.0289 12.6393
645 1 12.5483 30.6301 12.3524
646 1 1.26995 33.607 12.6084
647 1 4.06273 33.7583 12.4197
648 1 1.22724 36.2914 12.6341
649 1 4.08176 36.522 12.5977
650 1 6.89151 33.5231 12.3989
651 1 9.65813 33.7171 12.6199
652 1 6.83631 36.2232 12.6032
653 1 9.66526 36.3461 12.4566
654 1 12.3507 33.5177 12.4778
655 1 12.5196 36.2667 12.6586
656 1 1.32043 39.3288 12.8761
657 1 4.04307 39.3143 12.5155
658 1 1.29994 42.0128 12.5496
659 1 4.06265 42.1086 12.5012
660 1 6.91325 39.2147 12.5181
661 1 9.6752 39.1181 12.6855
662 1 6.90082 41.8978 12.5154
663 1 9.67746 42.1363 12.4961
664 1 12.7659 39.0503 12.4651
665 1 12.4756 41.8547 12.4624
666 1 1.25252 44.9464 12.5118
667 1 4.07529 44.9435 12.5297
668 1 1.31784 47.7936 12.6515
669 1 3.87291 47.7769 12.6427
670 1 6.98729 44.7027 12.3051
671 1 9.81177 44.7601 12.5031
672 1 6.78409 47.6285 12.5538
673 1 9.67173 47.4439 12.4847
674 1 12.3395 44.7417 12.4769
675 1 12.5162 47.5364 12.6379
12363 2 11.0411 48.8897 11.1449
499 1 11.6929 35.2529 0.00275766
12253 2 2.80625 26.2153 2.69674
12362 2 5.34946 48.8897 11.1358
12365 2 -0.0235509 29.2514 13.8513
12348 2 5.53304 32.0886 11.1175
12257 2 8.39335 26.3203 2.50315
12258 2 5.51296 29.0667 2.60742
12347 2 2.48387 34.9742 11.1119
12260 2 10.7091 29.2233 2.75087
12264 2 -0.152593 34.9478 2.6736
12284 2 -0.0239912 45.9611 2.76253
12263 2 2.66557 31.9477 2.78414
12360 2 11.0831 43.3896 10.9334
12276 2 8.31675 40.4004 -0.145229
498 1 13.6192 35.2168 2.16092
12267 2 8.23174 32.1148 2.71169
12268 2 5.48376 34.818 2.66392
12282 2 2.68987 45.9704 0.0691624
12270 2 11.2382 34.7396 2.63244
12359 2 8.20772 46.1153 10.9983
6463 1 12.601 32.9309 1.27843
12273 2 5.63511 37.6627 5.43729
12358 2 5.68676 43.2162 11.0974
12319 2 -0.0503482 40.4519 8.36033
12272 2 2.57023 40.5221 -0.076306
12277 2 8.29013 37.6731 2.61413
12278 2 5.56933 40.4918 2.55621
15346 2 13.9311 34.8332 11.2148
12280 2 11.4335 40.3483 2.54418
1011 1 9.59977 50.2431 9.66095
500 1 12.6936 39.0328 4.19487
12283 2 2.75275 43.2568 2.7157
12381 2 8.37778 43.3954 13.9172
12345 2 11.0929 26.2122 11.1899
12379 2 2.61781 43.2499 13.9167
12287 2 8.40308 43.203 2.62064
12288 2 5.57534 46.0807 2.65917
1109 1 12.5474 50.1776 12.4247
12290 2 11.2749 46.1305 2.69232
12350 2 11.0411 32.0422 11.2094
12292 2 2.67142 48.9324 2.8093
12352 2 2.65781 40.5739 11.206
12294 2 8.27382 48.865 2.55193
12367 2 5.62785 29.2432 13.8428
12357 2 2.60809 46.2114 11.2431
12297 2 2.81686 29.0236 5.46309
12298 2 2.63325 26.2948 8.22619
12299 1 1.34208 33.02 6.91103
12300 2 5.53507 26.2358 5.43142
12301 2 8.30962 29.2072 5.42212
12302 2 8.38187 26.3715 8.02979
12303 2 5.60645 29.2489 8.19659
12304 2 11.2106 26.4445 5.48065
12305 2 11.2157 29.1817 8.30461
12291 2 -0.0150654 48.9484 0.0240605
12307 2 2.75273 34.8243 5.46504
12308 2 2.7661 32.0601 8.38664
12355 2 11.0862 37.6534 11.1081
12310 2 5.409 31.9561 5.53148
12311 2 8.34411 34.7548 5.52713
12312 2 8.34213 31.9808 8.32249
12313 2 5.47439 34.9073 8.35421
12314 2 11.107 32.1304 5.47827
12315 2 11.1849 34.9746 8.4256
12354 2 8.41216 40.5135 11.1761
12317 2 2.72628 40.469 5.63
12318 2 2.92687 37.5164 8.3828
6571 1 12.7093 33.3589 4.24287
12320 2 8.19029 37.6807 8.30421
12321 2 8.28317 40.4075 5.33441
12322 1 9.69422 41.9843 6.82993
12323 2 5.61337 40.3914 8.48419
12324 2 11.0203 37.6682 5.64765
12325 2 11.1146 40.5439 8.22776
12349 2 8.22969 34.9399 11.1572
12327 2 2.89088 46.066 5.33332