ITEM: TIMESTEP
50000
ITEM: NUMBER OF ATOMS
18000
ITEM: BOX BOUNDS xy xz yz pp pp pp
-1.6208113244676134e-01 2.8056081132447076e+01 0.0000000000000000e+00
-1.7122925097106338e+00 3.3644029250970954e+02 0.0000000000000000e+00
-1.5714722763352515e-01 2.8051147227633408e+01 0.0000000000000000e+00
ITEM: ATOMS id type x y z
1 1 1.24962 -0.30851 1.28284
2 1 3.96179 -0.581897 1.15187
3 1 3.92027 -0.288469 3.8229
4 1 1.33723 -0.312918 4.12196
5 1 1.34322 2.44591 1.0344
6 1 3.90553 2.52806 1.11671
7 1 3.98626 2.43088 4.09755
8 1 1.19408 2.52481 4.06444
9 1 6.73159 -0.361481 1.34002
10 1 9.66221 -0.436795 1.0737
11 1 9.49955 -0.0847462 3.79012
12 1 6.48931 -0.255998 4.28446
13 1 6.8524 2.40473 1.20113
14 1 9.66119 2.49054 1.01157
15 1 9.47707 2.65349 3.97481
16 1 6.54677 2.68563 3.77951
17 1 12.4387 -0.387476 1.10314
18 1 12.1722 -0.515051 3.87798
19 1 12.5016 2.35753 0.877622
20 1 12.4067 2.46978 3.86819
21 1 1.04325 5.30657 1.317
22 1 3.9355 5.21781 1.14543
23 1 3.95273 5.43357 4.02599
24 1 0.958164 5.31409 4.16012
25 1 1.16735 8.0839 1.07831
26 1 3.91796 8.08943 1.1179
27 1 4.21206 8.42763 3.73019
28 1 1.28313 8.07944 3.86702
29 1 6.67349 5.52166 1.03346
30 1 9.64883 5.25891 0.978721
31 1 9.60497 5.40566 3.68756
32 1 6.91863 5.4129 3.83335
33 1 6.76473 8.21518 1.12571
34 1 9.48205 8.13424 1.19412
35 1 9.87127 8.0294 3.87648
36 1 6.91688 7.94817 3.84451
37 1 12.3861 5.06338 1.1973
38 1 12.2319 5.22033 3.84367
39 1 12.2357 8.13073 1.08143
40 1 13.1396 8.06285 4.1629
41 1 1.22816 10.8253 1.03171
42 1 4.12234 10.7899 1.16391
43 1 3.91169 10.9335 4.12015
44 1 1.07185 10.8445 4.04251
15111 2 13.9178 12.239 11.1868
46 1 3.92343 13.6419 1.18133
47 1 4.08384 13.6905 4.15862
48 1 1.1882 13.8844 4.28213
49 1 6.97761 10.9669 1.30999
50 1 9.69765 11.0267 1.03915
51 1 9.81026 10.979 3.98964
52 1 7.02098 10.9246 4.09255
53 1 6.52252 13.8351 1.32423
54 1 9.54305 13.8274 1.43649
55 1 9.62946 13.745 4.11908
56 1 6.83113 13.6584 4.16958
57 1 12.4506 10.9275 1.14828
58 1 12.6248 10.8706 3.79435
59 1 12.3565 13.746 1.23311
60 1 12.4604 13.6797 4.06991
61 1 1.22996 16.3966 1.08493
62 1 3.94967 16.6312 1.12131
63 1 4.10675 16.5134 4.00452
64 1 1.20615 16.6577 3.81959
65 1 1.2076 19.1673 1.1845
66 1 4.01612 19.4252 1.18695
67 1 3.88268 19.3643 4.07589
68 1 0.994102 19.4198 4.03851
69 1 6.69193 16.4685 1.36717
70 1 9.46653 16.4668 1.4784
71 1 9.72825 16.5703 4.27419
72 1 7.02363 16.5384 3.97804
73 1 6.85794 19.2689 1.33112
74 1 9.53644 19.2929 1.21579
75 1 9.70625 19.4383 4.05716
76 1 6.8676 19.374 4.21808
77 1 12.4779 16.5797 1.25884
78 1 12.5871 16.548 3.90656
79 1 12.3047 22.1484 1.34274
80 1 12.3498 19.4862 4.2009
81 1 1.35187 22.0992 1.29134
82 1 3.89461 22.0371 1.28907
83 1 4.08127 22.2482 4.01323
84 1 1.30494 22.1876 4.03465
85 1 6.75103 22.0811 1.1897
86 1 9.46489 22.1524 1.18758
87 1 9.65773 22.1697 4.04201
88 1 6.83834 22.0832 3.88765
15022 2 13.8994 9.62139 2.44262
90 1 12.3058 22.4028 4.16698
91 1 0.931407 -0.774861 6.94011
92 1 4.11791 -0.232869 6.77067
93 1 4.21826 -0.2258 9.69545
94 1 1.24481 -0.282474 9.73732
95 1 1.14645 2.30662 6.81771
96 1 4.06127 2.48461 6.9872
97 1 4.03058 2.4914 9.69551
98 1 1.27044 2.24703 9.59929
99 1 7.05259 -0.09599 6.97552
100 1 9.67591 -0.114084 6.67715
101 1 9.66841 -0.375108 9.47949
102 1 6.93317 -0.316847 9.61907
103 1 6.93271 2.68989 6.64867
104 1 9.64323 2.53939 6.74433
105 1 9.56821 2.58349 9.53086
106 1 6.88714 2.50101 9.63091
107 1 12.4178 -0.124984 6.80414
108 1 12.4527 -0.328527 9.76582
109 1 12.3284 2.48091 6.7601
110 1 12.2908 2.43225 9.52652
111 1 1.03026 5.40889 6.79748
112 1 3.71734 5.31866 6.90679
113 1 4.12174 5.32348 9.48091
114 1 1.31265 5.29919 9.61477
115 1 1.27441 8.03217 6.92834
116 1 4.14657 7.96677 6.51267
117 1 4.00877 8.11152 9.75591
118 1 1.26688 8.0489 9.77737
119 1 6.83302 5.3381 6.85034
120 1 9.51252 5.43759 6.61794
121 1 9.64734 5.33888 9.46237
122 1 6.81127 5.39494 9.38873
123 1 6.78257 8.16714 6.69453
124 1 9.63986 8.11072 6.55357
125 1 9.84483 8.04945 9.70126
126 1 6.85304 8.00053 9.59953
127 1 12.4535 5.22722 6.55475
128 1 12.3788 5.14132 9.48496
129 1 12.739 7.78879 6.88826
130 1 12.5749 8.04973 9.59714
131 1 1.04831 11.0144 6.92179
132 1 4.01151 10.6757 6.81751
133 1 4.09503 10.9328 9.71039
134 1 1.11954 10.8617 9.82403
135 1 1.25163 13.6775 7.0269
136 1 4.06318 13.5623 6.9435
137 1 4.22689 13.7077 9.72519
138 1 1.29644 13.602 9.68587
139 1 6.82404 10.986 6.65266
140 1 9.80769 10.9341 6.68355
141 1 9.64159 10.6877 9.62607
142 1 6.89078 10.7371 9.58088
143 1 6.70756 13.6377 6.87298
144 1 9.75648 13.7375 7.02307
145 1 9.68833 13.7239 9.86981
146 1 7.15329 13.5451 9.79341
147 1 12.4322 10.7267 6.86981
148 1 12.5503 10.9877 9.87062
149 1 12.4053 13.4512 6.88727
150 1 12.5442 13.7684 9.8884
151 1 0.904277 16.637 6.58929
152 1 3.71361 16.3309 6.7795
153 1 3.98869 16.7128 9.65139
154 1 1.32848 16.4892 9.668
155 1 1.08494 19.3408 6.65058
156 1 3.94164 19.2739 6.98076
157 1 3.94432 19.3216 9.95435
158 1 1.0799 19.2865 9.63548
159 1 6.78209 16.5462 6.95301
160 1 9.5827 16.4812 6.86421
161 1 9.7034 16.7363 9.63281
162 1 6.82086 16.3191 9.78478
163 1 6.54666 19.4487 7.02389
164 1 9.33446 19.3513 6.9705
165 1 9.771 19.5271 9.7197
166 1 6.87685 19.2487 9.95312
167 1 12.4681 16.4978 6.83288
168 1 12.5249 16.4075 9.65582
169 1 12.2135 19.3758 6.96053
170 1 12.5771 19.1694 9.69407
171 1 1.33509 22.1438 6.94403
172 1 4.0497 22.2776 6.86759
173 1 4.02731 22.227 9.80849
174 1 1.34189 22.136 9.76041
175 1 6.80974 22.1901 6.93714
176 1 9.81646 22.1839 6.87799
177 1 9.56126 22.2345 9.77756
178 1 6.68424 22.0994 9.84668
179 1 12.5879 22.2025 7.17817
180 1 12.485 22.2955 9.83707
181 1 1.18743 -0.419592 12.4636
182 1 4.02917 -0.495804 12.5471
183 1 1.15302 2.32019 12.362
184 1 3.96791 2.44531 12.4802
185 1 6.87177 -0.362084 12.5266
186 1 9.46725 -0.506272 12.3302
187 1 6.88753 2.59504 12.5485
188 1 9.72102 2.39663 12.4104
189 1 12.17 -0.647588 12.6951
190 1 12.3708 2.2326 12.3676
191 1 1.25608 5.17915 12.434
192 1 4.00387 5.2134 12.6242
193 1 1.3318 8.0677 12.5775
194 1 4.04133 8.42666 12.5097
195 1 6.79491 5.53239 12.2698
196 1 9.58303 5.12935 12.2424
197 1 6.88486 8.09464 12.2924
198 1 9.81165 8.10679 12.5367
199 1 12.6069 5.35709 12.2932
200 1 12.5567 8.13269 12.225
201 1 1.16209 10.867 12.5482
202 1 3.937 11.2418 12.5137
203 1 1.40262 13.5916 12.4336
204 1 4.0579 13.9241 12.5795
205 1 6.83596 10.7963 12.3885
206 1 9.6515 10.8417 12.5208
207 1 6.82055 13.5375 12.5761
208 1 9.54131 13.7663 12.6477
209 1 12.5037 10.932 12.6732
210 1 12.4097 13.718 12.5461
211 1 1.34651 16.4595 12.4761
212 1 4.08631 16.5865 12.5217
213 1 0.981416 19.2377 12.5948
214 1 4.02379 19.259 12.6816
215 1 6.89215 16.4575 12.4933
216 1 9.76284 16.5319 12.4933
217 1 6.86021 19.4524 12.69
218 1 9.68663 19.5047 12.6595
219 1 12.4713 16.5204 12.5896
220 1 12.3848 19.3794 12.4634
221 1 1.2336 22.1459 12.555
222 1 4.23847 22.0717 12.5922
223 1 7.10191 22.1946 12.7283
224 1 9.90796 22.3056 12.5955
225 1 12.6664 22.0985 12.6246
15121 2 13.9559 23.5387 11.1472
12044 2 -0.123996 23.5737 2.58468
12141 2 2.65412 15.2888 13.8858
12116 2 -0.108562 15.1902 11.2807
15131 2 13.7459 4.08147 13.7818
15032 2 13.8521 15.0202 2.58326
12138 2 8.28542 9.391 13.7725
12008 2 5.4718 0.998858 2.55881
15091 2 13.8393 23.5892 5.60676
12010 2 10.9238 1.21879 2.38883
12125 2 11.1558 20.8591 11.0877
15042 2 13.7594 20.7585 2.65966
12013 2 2.53392 3.76475 2.59285
12124 2 8.29072 23.5197 11.166
15051 2 13.7427 1.04458 5.32104
6054 1 1.21268 13.6963 1.46996
12017 2 8.12011 3.96389 2.49728
12018 2 5.33938 6.74358 2.53302
12129 2 5.45685 1.08662 13.9014
12020 2 11.0835 6.51082 2.33954
12113 2 5.57222 9.45618 10.974
12104 2 8.27153 0.974 11.0093
12023 2 2.50892 9.43416 2.537
12139 2 5.27587 12.3562 13.8461
15116 2 13.8874 17.7848 11.2118
12107 2 2.71935 6.60042 11.0606
12027 2 8.37834 9.60176 2.57124
12028 2 5.38566 12.1472 2.72273
15101 2 13.9547 1.02102 10.944
12030 2 11.1227 12.29 2.50512
12102 2 2.79315 1.04937 11.095
12114 2 8.31663 12.2421 11.2474
12033 2 2.97567 15.0286 2.61715
15071 2 13.8491 12.1728 5.49132
12100 2 11.0539 23.6122 8.37539
12099 2 10.9383 20.7376 5.58736
12037 2 8.07762 15.0112 2.81396
12038 2 5.38458 18.0152 2.76369
12098 2 5.27122 23.5771 8.44653
12040 2 11.038 17.78 2.71664
12097 2 8.20467 20.7039 8.41665
12131 2 2.58117 3.78316 13.8939
12043 2 2.52315 20.7606 2.7501
12123 2 5.43427 20.7878 11.2679
12096 2 8.23381 23.4799 5.34446
12095 2 5.24475 20.7751 5.59458
12047 2 8.14191 20.7676 2.53888
12048 2 5.34847 23.5734 2.55843
12115 2 11.0253 9.42124 11.0047
12050 2 10.8651 23.3654 2.61899
15012 2 13.8418 3.78806 2.55663
12052 2 2.69211 1.10522 5.36188
12112 2 2.68877 12.3384 11.0783
12122 2 2.68162 23.6059 11.1567
12110 2 10.9373 3.73892 10.866
12056 2 8.11294 1.06635 5.31738
12109 2 8.28077 6.55943 10.9161
12058 2 5.59354 1.07923 8.37162
12108 2 5.41854 3.83191 10.96
12060 2 11.0148 1.07087 8.22183
12120 2 11.1175 15.2017 11.2353
12062 2 2.44743 6.6386 5.30423
12063 2 2.57115 3.80834 8.22804
12119 2 8.27291 17.8996 11.3771
12065 2 5.35225 3.93927 5.32405
12066 2 8.34378 6.61431 5.16376
12067 2 8.15375 3.83729 8.0612
12068 2 5.3409 6.77488 8.02435
12069 2 10.8928 3.87345 5.3266
12070 2 11.0266 6.59057 8.02904
15062 2 13.6658 3.79281 8.17947
12072 2 2.56484 12.2611 5.57616
12073 2 2.47859 9.45929 8.29818
12118 2 5.54461 14.941 11.1074
12075 2 5.45872 9.47465 5.40283
12076 2 8.39312 12.2448 5.33309
12077 2 8.12051 9.32001 8.18067
12078 2 5.65946 12.285 8.25639
12079 2 11.1984 9.36844 5.4763
12080 2 10.9724 12.2238 8.37838
12136 2 2.57256 9.52239 13.9156
12082 2 2.56597 17.9189 5.39655
12083 2 2.61845 14.9152 8.2647
12117 2 2.56034 17.9615 11.0198
12085 2 5.56144 15.0591 5.57265
12086 2 8.31756 18.0653 5.51465
12087 2 8.27337 15.0374 8.42211
12088 2 5.42742 17.9452 8.52047
12089 2 11.1107 15.0845 5.31043
12090 2 10.888 17.8357 8.27978
440 1 12.2788 19.3894 1.26914
12092 2 2.68446 23.5854 5.37077
12093 2 2.56084 20.7578 8.27711
15082 2 13.7468 14.8647 8.23394
12130 2 11.0212 0.800991 13.811
6058 2 -0.126565 15.1931 2.66157
12049 2 11.0281 20.7208 -0.132572
12134 2 5.3714 6.73306 13.7586
12094 2 -0.061861 23.5082 8.17298
15081 2 13.8884 17.8614 5.4958
12135 2 11.1538 6.57192 13.7029
12025 2 5.47184 9.4785 -0.114195
12035 2 5.49817 15.1218 -0.116347
12149 2 5.45821 23.5708 13.8228
12039 2 11.1762 15.2761 -0.0266776
12036 2 8.2623 17.8806 -0.0597533
12140 2 11.1278 12.1973 13.836
226 1 3.89681 -0.302854 15.3329
227 1 1.13656 -0.499816 15.2765
228 1 3.88642 2.5272 15.2152
229 1 1.02908 2.53536 15.3135
230 1 9.57978 -0.44124 15.3438
231 1 6.80618 -0.314855 15.3019
232 1 9.59185 2.57942 15.3911
233 1 6.80191 2.65125 15.3437
234 1 12.4764 -0.244955 15.4785
235 1 12.3993 2.49704 15.1827
236 1 4.14075 5.53429 15.4604
237 1 1.15072 5.22871 15.2082
238 1 3.88106 8.2362 15.3348
239 1 1.13879 8.03737 15.4415
240 1 9.8617 5.26046 15.1788
241 1 6.88852 5.52455 15.1498
242 1 9.81518 7.876 15.2021
243 1 6.77249 8.27303 15.1569
244 1 12.4756 5.19751 15.3168
245 1 12.6569 7.89734 15.1956
246 1 4.05941 10.9602 15.3402
247 1 1.09609 10.9025 15.4556
248 1 4.02043 13.8173 15.2411
249 1 1.35257 13.8642 15.2197
250 1 9.74546 10.6833 15.3473
251 1 7.023 10.8893 15.2778
252 1 9.50511 13.5476 15.3756
253 1 6.9339 13.84 15.1427
254 1 12.3758 10.8431 15.3778
255 1 12.4456 13.6005 15.1902
256 1 4.01348 16.5865 15.1935
257 1 1.26387 16.7695 15.1389
258 1 3.98637 19.238 15.4175
259 1 1.17142 19.4603 15.333
260 1 9.55068 16.4539 15.4144
261 1 6.77163 16.5896 15.1615
262 1 9.87001 19.4059 15.3922
263 1 6.87167 19.4055 15.2899
264 1 12.481 16.6275 15.4626
265 1 12.5636 19.2606 15.3431
266 1 4.09546 22.2289 15.1712
267 1 1.13268 22.1925 15.3462
268 1 9.92015 22.2459 15.4697
269 1 6.95895 22.0318 15.2758
270 1 12.6013 22.1482 15.4487
271 1 1.21291 -0.547607 18.0873
272 1 4.02522 -0.198731 18.0805
273 1 3.95633 -0.323591 20.9565
274 1 1.05834 -0.50886 20.7881
275 1 0.980054 2.4066 18.1707
276 1 3.93264 2.72747 17.9434
277 1 3.93947 2.55621 20.9001
278 1 1.24281 2.38068 21.1258
279 1 6.87328 -0.471201 18.1723
280 1 9.55981 -0.453866 18.2179
281 1 9.64895 -0.352863 20.9765
282 1 6.59358 -0.448502 20.7977
283 1 6.63925 2.42309 18.2889
284 1 9.60086 2.30023 18.1964
285 1 9.74971 2.35298 20.8575
286 1 6.80834 2.52231 20.9555
287 1 12.3315 -0.38889 18.1868
288 1 12.3455 -0.184975 21.0291
289 1 12.5921 2.43657 18.1451
290 1 12.508 2.40477 20.6644
291 1 1.40035 4.96507 17.9302
292 1 4.02437 5.32302 18.2351
293 1 3.9764 5.36397 21.2096
294 1 1.17235 5.22664 21.0145
295 1 1.21353 7.77567 18.2271
296 1 4.01618 8.30709 17.9844
297 2 5.53582 9.54543 19.4172
298 1 4.13549 8.32222 20.8973
299 1 6.90495 5.37234 18.0554
300 1 9.83307 5.09569 18.055
301 1 9.87581 5.29995 20.7212
302 1 7.09116 5.10265 21.0593
303 1 6.99996 8.3102 18.0846
304 1 9.74482 7.8098 18.1097
305 1 9.95817 8.09812 21.053
306 1 6.82422 8.02414 20.5236
307 1 12.6495 5.26519 17.9422
308 1 12.663 5.22722 20.8189
309 1 12.664 8.0951 17.9369
310 1 12.664 7.93092 20.7251
311 1 1.01563 10.7935 18.2769
312 1 3.89949 10.9665 18.2686
313 1 4.32079 10.9478 21.0166
314 1 1.21498 10.8402 21.0664
315 1 1.16906 13.6552 18.0764
316 1 3.81558 13.8917 18.0857
317 1 3.86105 13.7762 21.0515
318 1 1.18107 13.5789 20.8866
319 1 6.43417 10.8586 17.9408
320 1 9.43096 10.8032 18.0476
321 1 9.68817 11.0754 20.9127
322 1 7.03049 10.6634 20.8045
323 1 6.70519 13.8373 18.0178
324 1 9.55224 13.8134 18.1236
325 1 9.40117 13.6635 20.8232
326 1 6.70117 13.4512 20.7917
327 1 12.2856 10.8776 18.3133
328 1 12.4348 10.6004 21.1113
329 1 12.4944 13.6398 17.9617
330 1 12.6928 13.3834 20.6898
331 1 1.25895 16.7141 18.2372
332 1 4.08281 16.7056 18.0098
333 1 3.77583 16.4564 20.8682
334 1 0.943136 16.5068 21.0216
335 1 1.31569 19.4351 18.1909
336 1 4.13136 19.5667 18.319
337 1 4.03954 19.3837 20.9857
338 1 1.26348 19.3534 20.8938
339 1 6.79801 16.4503 17.9786
340 1 9.8439 16.6537 18.0087
341 1 9.32671 16.9146 20.5104
342 1 6.66414 16.2727 20.8846
343 1 6.78588 19.4361 18.0653
344 1 9.61582 19.4014 18.0064
345 1 9.51721 19.5684 20.9737
346 1 6.77372 19.3357 20.7121
347 1 12.6028 16.6716 18.0259
348 1 12.5191 16.5361 20.9476
349 1 12.4863 19.3769 18.295
350 1 12.413 19.4301 20.8428
351 1 1.11303 22.2863 18.2446
352 1 3.86615 22.3543 18.0191
353 1 4.05871 22.094 20.9341
354 1 1.25259 22.1745 21.0835
355 1 6.71957 22.3404 18.0631
356 1 9.60913 22.2642 17.9953
357 1 9.60572 22.32 21.0074
358 1 6.83601 22.1277 20.9082
359 1 12.5234 22.0953 18.1369
360 1 12.4579 22.1293 20.9422
361 1 1.19108 -0.37813 23.7746
362 1 3.92107 -0.271474 23.6928
363 1 3.90573 -0.130214 26.4964
364 1 1.03939 -0.3922 26.6139
365 1 1.12847 2.40682 23.7711
366 1 3.96608 2.56153 23.7434
367 1 4.05219 2.52425 26.5723
368 1 1.16056 2.27001 26.4952
369 1 6.77042 -0.249842 23.7623
370 1 9.61609 -0.355326 23.8057
371 1 9.5206 -0.370557 26.553
372 1 6.62221 -0.390145 26.5598
373 1 6.71375 2.52063 23.881
374 1 9.43354 2.38678 23.6999
375 1 9.70626 2.33984 26.5634
376 1 6.8956 2.33392 26.7367
377 1 12.509 -0.335198 23.6645
378 1 12.3743 -0.602054 26.4872
379 1 12.1774 2.39593 23.58
380 1 12.3224 2.33764 26.2649
381 1 1.19785 5.32587 23.8678
382 1 3.93546 5.18397 23.892
383 1 4.25818 5.50863 26.7267
384 1 1.29406 5.1247 26.612
385 1 1.17526 8.1371 23.8894
386 1 3.93188 7.96604 23.6971
387 1 4.19756 8.2472 26.396
388 1 1.03636 7.92865 26.5776
389 1 6.90946 5.18069 23.8654
390 1 9.72165 5.09286 23.6473
391 1 9.74516 5.1221 26.3584
392 1 6.80642 5.32925 26.4954
393 1 6.73346 8.2766 23.7561
394 1 9.57277 7.98238 23.7887
395 1 9.66116 8.16394 26.4364
396 1 7.07419 8.13933 26.5516
397 1 12.4569 5.14034 23.7942
398 1 12.3945 5.37874 26.5353
399 1 12.4646 7.86981 23.715
400 1 12.5685 8.3073 26.5926
401 1 0.92299 10.8574 23.7097
402 1 3.89144 11.0046 23.7467
403 1 3.88307 10.9524 26.4556
404 1 1.26571 10.88 26.5839
405 1 0.954599 13.6516 23.6161
406 1 3.76981 13.5329 23.9091
407 1 4.02672 13.8503 26.7242
408 1 1.168 13.7544 26.5422
409 1 6.65761 11.0909 23.8477
410 1 9.80955 10.8218 23.8559
411 1 9.59051 11.1448 26.6347
412 1 6.94343 11.0119 26.5573
413 1 6.70101 13.6135 23.6138
414 1 9.26507 13.4117 24.1383
415 1 9.5463 14.0093 26.8621
416 1 6.57615 13.6932 26.6271
417 1 12.429 10.5778 23.9056
418 1 12.3698 11.0411 26.6587
419 1 12.5591 13.5265 23.9219
420 1 12.3392 13.7418 26.6938
421 1 0.858422 16.3059 24.0424
422 1 3.91882 16.4326 23.7059
423 1 3.91792 16.5831 26.6085
424 1 1.21865 16.6177 26.5215
425 1 1.00983 19.0616 23.7506
426 1 3.91991 19.3471 23.7757
427 1 4.07065 19.4256 26.5078
428 1 1.20621 19.4948 26.5524
429 1 6.68881 16.3973 23.6818
430 1 9.65087 19.4946 23.7554
431 1 9.82641 16.7327 26.7881
432 1 6.90645 16.6418 26.669
433 1 6.68956 19.2874 23.8129
434 1 12.4335 19.3997 26.7474
435 1 9.61537 19.5968 26.6784
436 1 6.85267 19.3125 26.5539
437 1 12.7564 16.8002 24.142
438 1 12.671 16.4384 26.7607
439 1 12.3811 19.4535 23.8454
15182 2 13.8502 15.1747 19.6962
441 1 1.06999 22.0034 23.8731
442 1 4.07711 22.2396 23.7819
443 1 3.92023 22.2272 26.553
444 1 1.00019 22.2767 26.8758
445 1 6.74467 22.176 23.7229
446 1 9.55872 22.3149 23.606
447 1 9.54959 22.4781 26.4406
448 1 6.84434 22.2746 26.5454
449 1 12.4271 22.1588 23.6928
450 1 12.3504 22.4381 26.6555
12046 2 8.20506 23.7601 27.7991
12250 2 11.038 23.6244 25.0089
15211 2 13.911 6.54623 22.3154
12150 2 11.2366 23.5703 14.0336
15222 2 13.8502 9.41363 25.186
12227 2 8.4266 9.65067 25.2406
12249 2 10.9503 20.7334 22.3233
12226 2 8.38943 12.2063 22.4294
12225 2 5.39011 9.59306 22.7266
12203 2 2.45458 -1.67388 25.1132
12223 2 2.5915 9.35145 25.1428
12248 2 5.40502 23.6619 25.0909
12222 2 2.44474 12.3562 22.2328
12228 2 5.35076 12.2443 25.274
15201 2 13.8125 1.05191 22.4046
12220 2 10.989 6.55687 25.0233
12247 2 8.19919 20.7546 25.1997
12019 2 11.1826 3.782 27.7961
15232 2 13.73 15.0878 25.2102
15191 2 13.9396 23.465 16.7668
12219 2 11.1525 3.75987 22.1829
12246 2 8.16043 23.4882 22.3223
12026 2 8.25906 12.4245 27.9725
12218 2 5.53884 6.66385 25.1242
12015 2 5.41077 3.94479 27.9545
12245 2 5.44786 20.6413 22.1903
12152 2 2.43754 1.04472 16.6022
15021 2 13.8994 12.3638 27.9208
12243 2 2.69497 20.7875 25.3144
12155 2 5.26305 -1.6265 16.7749
12156 2 8.31237 0.93072 16.7051
12148 2 8.39364 20.8413 14.0442
12158 2 5.34583 1.04135 19.5978
15212 2 13.8594 3.83612 25.1214
12160 2 11.1057 0.887109 19.5425
12242 2 2.63362 23.5533 22.5022
12162 2 2.54979 6.62685 16.5614
12163 2 2.60582 3.7645 19.4273
12240 2 10.8547 17.9608 25.2017
12165 2 5.42346 4.01685 16.7019
12166 2 8.35314 6.56521 16.7615
12167 2 8.42441 3.68444 19.5632
12168 2 5.51861 6.22534 19.6755
12169 2 11.3198 3.75958 16.6946
12170 2 11.2176 6.51045 19.3869
12239 1 9.39227 16.7338 23.9992
12172 2 2.45176 12.3463 16.7542
12173 2 2.32498 9.23179 19.5396
12238 2 5.31457 17.9398 25.1755
12175 2 5.47153 9.57717 16.3251
12176 2 8.11387 12.2221 16.6418
12177 2 8.65237 9.2699 19.5697
12178 2 5.29465 12.6536 19.3199
12179 2 11.2006 9.22648 16.5572
12180 2 10.9239 12.3579 19.4544
12237 2 8.12495 15.007 25.0327
12182 2 2.56092 17.8718 16.7391
12183 2 2.41038 15.2072 19.4813
12236 2 8.20712 17.8446 22.2485
12185 2 5.31221 15.1508 16.5336
12186 2 8.24173 18.0226 16.7679
12187 2 8.28612 15.0924 19.4479
12188 2 5.46605 17.9164 19.3578
12189 2 11.0633 15.1227 16.8141
12190 2 11.2016 17.8502 19.3922
12235 2 5.2837 14.904 22.2461
12192 2 2.46978 23.6854 16.7089
12193 2 2.49028 20.9158 19.4869
15151 2 13.8399 1.07004 16.8294
12195 2 5.37627 20.9205 16.8789
12196 2 8.2928 23.4908 16.7432
12197 2 8.28788 20.7666 19.4493
12198 2 5.48719 23.6792 19.4843
12199 2 11.1803 20.6835 16.7554
12200 2 11.1143 23.5857 19.5383
12233 2 2.57749 15.1012 25.1444
12202 2 2.5584 1.1744 22.5551
12143 2 8.27723 15.1393 14.0061
12232 2 2.57076 17.8718 22.2791
12181 2 -0.154467 15.1741 16.759
12206 2 8.10927 0.967418 22.3679
6309 1 1.05272 8.0648 21.0486
12208 2 5.37656 1.05069 25.1343
12045 2 5.50299 20.6042 28.0577
12210 2 10.9628 0.879017 25.2278
12230 2 11.1776 12.3586 25.349
12212 2 2.45953 6.62462 22.3812
12213 2 2.66374 3.86793 25.2209
12229 2 11.0952 9.36353 22.5495
12215 2 5.45399 3.84131 22.5163
12216 2 8.37997 6.52424 22.306
12217 2 8.22607 3.70237 25.1875
12042 2 2.65902 23.4575 28.016
12146 2 2.61599 20.6046 14.0657
12191 2 -0.0933571 20.8103 16.6322
15231 2 13.8544 18.0137 22.5266
15171 2 13.6866 12.3394 16.6627
15241 2 13.7726 23.4714 22.3507
15242 2 13.7678 20.6774 25.2235
12002 2 2.53495 0.927815 28.0454
12006 2 8.36819 1.03027 28.0541
12016 2 8.23096 6.82134 28.0418
12029 2 10.9552 9.58219 27.9049
15221 2 13.8052 12.2096 22.3515
15172 2 13.8268 9.48089 19.5796
15001 2 13.9409 0.752758 27.9848
12022 2 2.68432 12.2739 27.9545
12012 2 2.46069 6.51109 27.9959
12133 2 8.40771 3.84586 13.9483
15141 2 13.8703 15.0195 14.122
12144 2 5.41665 18.0646 14.019
12032 2 2.64714 17.925 27.9794
12145 2 10.9929 17.9118 14.0465
451 1 1.29719 25.0155 1.13396
452 1 3.96522 24.9387 1.25749
453 1 4.02805 25.0609 4.02563
454 1 1.22684 25.2124 3.99783
455 1 6.77745 25.0443 0.992438
456 1 9.53471 24.9246 1.10594
457 1 9.73039 24.8277 3.92559
458 1 6.84935 24.92 3.95563
459 1 12.365 27.6088 1.45948
460 1 12.6244 25.3962 4.14838
461 1 1.11623 27.8966 1.11686
462 1 3.97362 27.8282 1.07244
463 1 4.13025 27.89 3.91711
464 1 1.13087 27.8962 3.79109
465 1 1.23783 30.7414 1.35959
466 1 4.22619 30.7207 1.49021
467 1 4.06745 30.6724 4.18753
468 1 1.35881 30.6859 4.29243
469 1 7.00455 27.9159 1.09626
470 1 9.77654 27.6993 1.27154
471 1 9.7783 27.7119 4.22955
472 1 6.95562 27.6846 4.06429
473 1 6.97365 30.4591 1.3133
474 1 9.71797 30.4901 1.4158
475 1 9.90088 30.702 4.31165
476 1 7.02059 30.667 4.17265
477 1 12.5466 30.0917 0.852981
478 1 12.7075 27.9458 4.12372
499 1 12.1016 35.8983 -0.0228896
480 1 12.6888 30.6241 3.65361
481 1 1.15464 36.283 1.24282
482 1 1.24128 33.4887 1.27927
483 1 4.17535 33.4194 4.21345
484 1 3.9355 36.2791 4.01956
485 2 2.53283 37.6435 2.73536
486 1 4.0054 36.2026 1.20937
487 1 6.82459 36.2162 4.25243
488 1 1.22175 36.3043 4.01269
489 1 3.94715 33.4188 1.30424
490 1 6.94297 33.3522 1.23349
491 1 9.63516 33.3046 4.35715
492 1 6.70582 33.5776 4.0927
493 1 6.88905 36.2127 1.35104
494 1 9.44297 35.979 1.61268
495 1 12.1637 37.659 1.70327
496 1 9.76912 36.2387 4.3098
497 1 10.0505 33.3496 1.53911
15368 2 13.8639 31.9789 13.8914
15327 2 13.9001 43.382 8.39078
12265 2 5.38277 32.0177 -0.0661721
501 1 1.21026 39.0584 1.41735
502 1 4.02666 38.9828 1.42724
503 1 3.91994 39.167 4.14313
504 1 1.06784 39.0914 4.13655
505 1 1.28138 41.9122 1.06846
506 1 4.02292 41.8787 1.31945
507 1 4.00054 41.8919 4.20465
508 1 1.22393 41.8244 4.00504
509 1 6.7218 38.9725 1.33908
510 1 9.53346 39.0963 1.44411
511 1 9.84605 39.0938 4.11673
512 1 6.88451 39.0764 4.05276
513 1 6.55783 42.0203 1.42535
514 1 9.64499 41.8239 1.09571
515 1 9.69849 41.7638 3.92509
516 1 6.83829 41.7217 4.21716
12379 2 2.65531 43.2076 13.9238
89 1 12.5113 24.9814 1.35958
519 1 12.4967 42.0439 1.16605
520 1 12.5245 41.768 3.85774
521 1 1.25602 44.779 1.27668
522 1 3.98299 44.8751 1.21038
523 1 4.13929 44.7096 4.19255
524 1 1.32622 44.6238 4.18883
525 1 1.16118 47.4735 1.07167
526 1 4.01278 47.6165 1.20031
527 1 4.02612 47.487 4.00963
528 1 1.14214 47.4718 4.14222
529 1 6.93217 44.636 1.09395
530 1 9.67637 44.5217 1.35827
531 1 9.49471 44.6129 4.12365
532 1 6.66166 44.6421 3.97886
533 1 6.75916 47.7044 1.28451
534 1 9.59982 47.2786 1.29605
535 1 9.72205 47.4043 4.12567
536 1 6.76945 47.3786 4.05706
537 1 12.4101 44.7056 1.37984
538 1 12.811 44.6572 4.13436
539 1 12.2745 47.5511 1.20046
540 1 12.5774 47.6206 4.11539
541 1 1.27186 25.0322 6.88954
542 1 4.13058 25.0667 7.07465
543 1 4.05366 25.1764 9.62235
544 1 1.35221 24.9245 9.83561
545 1 6.89342 24.6511 6.73514
546 1 9.62615 25.1179 6.84169
547 1 9.73478 24.8615 9.60852
548 1 6.96439 25.053 9.72318
549 1 12.4165 24.8353 6.90143
550 1 12.5503 25.1342 9.72624
551 1 1.42592 27.811 6.5515
552 1 4.08722 27.8003 6.80378
553 1 4.38205 28.035 9.56668
554 1 1.40938 27.73 9.85575
555 1 1.20679 33.5922 3.99306
556 1 3.86486 30.5747 6.88214
557 1 4.20986 30.7462 9.837
558 1 1.41374 30.7179 9.60945
559 1 7.06377 27.7719 6.78846
560 1 9.91677 27.9176 6.97001
561 1 9.76589 27.7829 9.7821
562 1 7.04749 27.8262 9.52316
563 1 6.87259 30.7129 6.91632
564 1 9.60345 30.614 6.8791
565 1 9.66511 30.712 9.82816
566 1 6.85569 30.7495 9.7057
567 1 12.5828 27.7257 6.92918
568 1 12.6333 27.8733 9.84202
569 1 12.4912 30.5504 6.78547
570 1 12.6212 30.6665 9.4917
571 1 1.04851 36.2347 7.01073
572 1 4.19534 33.4775 7.06863
573 1 4.07625 33.6927 9.70142
574 1 1.27224 33.3708 9.64143
575 1 4.10481 36.2716 7.02318
576 1 6.99855 36.2311 7.07288
577 1 4.16887 36.3673 9.77807
578 1 1.42824 36.4363 9.81143
579 1 6.90443 33.5922 6.89344
580 1 9.74541 33.5199 7.11721
581 1 9.7176 33.4614 9.7442
582 1 6.92233 33.5245 9.82655
583 1 9.83327 36.3258 7.05138
584 1 12.5748 36.2965 7.18932
585 1 9.83047 36.3015 9.90031
586 1 7.02049 36.1843 9.84856
587 1 12.4936 33.4114 6.90225
588 1 12.689 33.5509 9.81422
589 1 12.3451 36.0249 4.37594
590 1 12.6139 36.5836 9.82775
591 1 1.34684 39.1694 6.77087
592 1 4.12745 39.0155 7.01719
593 1 4.03882 39.1124 9.72009
594 1 1.19647 39.1832 9.61298
595 1 1.33569 41.9415 6.71154
596 1 3.99371 41.9323 7.00284
597 1 4.19254 41.9838 9.83757
598 1 1.33549 41.9922 9.54876
599 1 6.95516 39.0906 6.96366
600 1 9.67138 39.0858 7.04562
601 1 9.68898 39.212 9.78133
602 1 6.86329 39.0805 9.56117
603 1 6.86325 41.9522 7.05553
604 1 9.56948 44.7007 6.67954
605 1 9.96364 41.9941 9.60854
606 1 7.09403 42.0303 9.81509
607 1 12.513 39.1599 6.91927
608 1 12.5179 39.2769 9.82101
609 1 12.5374 42.0546 6.7225
610 1 12.6001 42.0271 9.58242
611 1 1.03733 44.7392 6.93704
612 1 3.90087 44.4976 7.1059
613 1 3.98462 44.6437 9.85573
614 1 1.16978 44.7787 9.62966
615 1 1.24653 47.5946 6.87266
616 1 4.06591 47.4537 6.86476
617 1 3.86777 47.4311 9.71285
618 1 1.25844 47.6292 9.73069
619 1 6.81014 44.7521 6.83343
620 1 9.55763 47.605 6.79903
621 1 9.84794 44.8166 9.62045
622 1 7.03805 44.6849 9.65857
623 1 6.76909 47.5118 6.96255
1106 1 9.78897 50.2444 12.4716
625 1 9.50289 47.6656 9.69
626 1 6.76182 47.2967 9.66227
627 1 12.4904 44.9705 6.88651
628 1 12.4452 44.9765 9.75294
629 1 12.5596 47.5233 6.78064
630 1 12.3305 47.6856 9.49338
631 1 1.27291 25.2294 12.4916
632 1 4.1648 25.1104 12.5243
633 1 6.87823 24.9691 12.4794
634 1 9.68188 25.0069 12.554
635 1 12.6817 25.1381 12.4843
636 1 1.25594 28.1832 12.5327
637 1 4.12087 27.9009 12.4376
638 1 1.1431 30.7926 12.5012
639 1 4.1324 30.7586 12.6036
640 1 6.83173 27.9257 12.3163
641 1 9.69816 27.7308 12.6329
642 1 7.01592 30.3911 12.6136
643 1 9.73049 30.5956 12.3868
644 1 12.6306 28.0072 12.7093
645 1 12.6594 30.738 12.103
646 1 1.36234 33.5707 12.5277
647 1 4.09266 33.5574 12.3898
648 1 1.10893 36.4631 12.5198
649 1 3.92494 36.4171 12.431
650 1 7.10159 33.2489 12.4231
651 1 9.87147 33.4133 12.5685
652 1 6.80479 36.3267 12.5579
653 1 9.75702 36.1987 12.7076
654 1 12.4196 33.7087 12.6035
655 1 12.3152 36.314 12.7341
656 1 1.26294 39.229 12.5331
657 1 4.10264 39.3097 12.3645
658 1 1.18642 42.0329 12.501
659 1 4.09283 42.0783 12.7376
660 1 6.96669 38.9828 12.5078
661 1 9.77702 39.1209 12.6308
662 1 6.93506 41.9443 12.607
663 1 9.67726 41.9987 12.6545
664 1 12.5207 39.2073 12.6427
665 1 12.5045 42.0438 12.5523
666 1 1.15117 44.6386 12.4522
667 1 3.92511 44.9615 12.6373
668 1 0.914954 47.5433 12.481
669 1 3.88684 47.6635 12.4769
670 1 6.89809 44.796 12.3874
671 1 9.63231 44.7347 12.6138
672 1 6.89188 47.5922 12.5418
673 1 9.72779 47.4823 12.6352
674 1 12.665 44.7606 12.5062
675 1 12.693 47.4426 12.4169
12363 2 10.9862 48.6915 11.0971
12346 2 -0.0544826 31.9514 11.0045
12253 2 2.63086 26.3963 2.53155
12362 2 5.30801 48.9166 11.1197
15351 2 13.9033 40.63 11.0846
12348 2 5.49202 32.0403 11.0843
12257 2 8.23132 26.0479 2.5988
12258 2 5.57407 29.2013 2.79052
12347 2 2.70335 35.0096 11.1286
12260 2 10.9635 29.1435 2.73231
12366 2 8.29205 26.4575 13.8798
912 1 6.78699 50.2324 4.07406
12263 2 2.55843 32.159 2.76767
12360 2 11.1192 43.4284 11.1829
15261 2 13.9377 34.503 0.0241534
15383 2 13.8163 48.8658 13.819
12267 2 8.45929 31.959 2.75188
12268 2 5.47434 34.9369 2.6189
15281 2 13.8267 46.0748 -0.145242
12270 2 11.1985 34.7889 2.75126
12359 2 8.30425 46.0852 11.0588
6463 1 12.545 32.8462 1.07453
12273 2 5.6126 37.5256 5.78703
12358 2 5.50999 43.3551 11.2253
12377 2 5.51199 40.6246 13.9628
903 1 4.07307 50.4837 4.03013
12277 2 8.313 37.5071 2.8431
12278 2 5.35252 40.4542 2.68022
12364 2 2.66865 26.6659 13.8725
12280 2 11.3406 40.1411 2.40794
12368 2 11.0507 29.2288 13.7765
500 1 12.6173 38.8675 4.26831
12283 2 2.67231 43.2809 2.70647
498 1 13.5865 35.0689 2.08212
12345 2 11.0045 26.2332 11.203
12374 2 2.56095 37.7076 13.9425
12287 2 8.24575 43.0566 2.49136
12288 2 5.41217 46.2582 2.59937
911 1 9.6283 50.3739 4.01959
12290 2 11.0048 46.0147 2.60629
12350 2 11.1297 32.0951 11.2033
12292 2 2.66322 48.9155 2.81045
12352 2 2.69863 40.5344 10.9973
12294 2 8.31797 48.8302 2.55635
1002 1 3.98072 50.3949 6.9144
12357 2 2.52742 46.1047 11.0868
12297 2 2.78555 29.1912 5.42347
12298 2 2.61888 26.4938 8.29505
12299 1 1.32735 33.1714 6.82622
12300 2 5.49563 26.2883 5.42665
12301 2 8.34701 29.2243 5.52175
12302 2 8.32711 26.3017 8.27716
12303 2 5.58051 29.3021 8.25923
12304 2 11.1846 26.4583 5.54528
12305 2 11.1922 29.1497 8.41619
1101 1 1.27543 50.2405 12.6306
12307 2 2.81967 34.8109 5.60061
12308 2 2.83081 32.1829 8.41181
12355 2 11.0632 37.6935 11.3084
12310 2 5.62675 32.0673 5.48866
12311 2 8.36446 34.9006 5.64795
12312 2 8.32281 32.0428 8.34873
12313 2 5.49642 34.8436 8.38081
12314 2 11.1129 32.1042 5.69818
12315 2 11.14 34.864 8.44423
12354 2 8.48446 40.4775 11.144
12317 2 2.61178 40.3918 5.42703
12318 2 2.57282 37.7649 8.24207
6571 1 12.5252 33.5138 4.1725
12320 2 8.45855 37.6031 8.42978
12321 2 8.31642 40.4865 5.52527
12322 1 9.63545 41.9828 6.82188
12323 2 5.55349 40.4887 8.36732
12324 2 11.1318 37.75 5.68947
12325 2 11.2408 40.6016 8.22939
12349 2 8.40155 34.8717 11.1902
12327 2 2.58478 45.9664 5.62301
12328 2 2.67185 43.2879 8.31001
12344 2 8.39247 29.0383 10.9591
12330 2 5.53041 43.2513 5.3786
12331 2 8.20356 46.0961 5.43271
12332 2 8.37983 43.3655 8.21066