ITEM: TIMESTEP
350000
ITEM: NUMBER OF ATOMS
18000
ITEM: BOX BOUNDS xy xz yz pp pp pp
-1.5566075258565282e-01 2.8049660752584330e+01 0.0000000000000000e+00
-1.7486306968916761e+00 3.3647663069689014e+02 0.0000000000000000e+00
-1.4751926685265473e-01 2.8041519266851896e+01 0.0000000000000000e+00
ITEM: ATOMS id type x y z
1 1 1.30242 -0.389472 1.02427
2 1 4.12267 -0.340255 1.22448
3 1 4.12639 -0.31784 4.19421
4 1 1.21801 -0.580439 3.86927
5 1 1.41118 2.47249 1.08817
6 1 4.05711 2.48896 1.12447
7 1 4.23591 2.52431 4.03481
8 1 1.30179 2.49169 3.82721
9 1 7.00255 -0.228494 0.989778
10 1 9.87054 -0.242297 1.12115
11 1 9.64296 0.0836486 3.84735
12 1 6.86445 -0.196492 3.87303
13 1 7.05732 2.44449 1.221
14 1 9.93838 2.51233 1.26055
15 1 9.719 2.8179 3.96784
16 1 6.81855 2.45936 4.09139
17 1 12.6874 -0.409042 1.16787
18 1 12.6742 -0.366895 3.95301
19 1 12.6221 2.50171 1.43355
20 1 12.4803 2.56009 4.18805
21 1 1.65666 5.37114 1.29197
22 1 4.18433 5.35128 0.913804
23 1 4.06918 5.64442 3.84681
24 1 1.34932 5.26052 3.85945
25 1 1.11117 8.04289 1.12766
26 1 4.01151 8.21212 0.976932
27 1 4.34913 8.32466 3.813
28 1 1.49086 8.03825 4.04922
29 1 6.87404 5.20326 1.04953
30 1 9.6905 5.35859 1.20202
31 1 9.88157 5.63214 4.12585
32 1 6.91776 5.2743 3.95378
33 1 6.96362 8.01653 1.19899
34 1 9.88722 7.94772 1.07978
35 1 9.94608 8.21014 4.1989
36 1 7.1315 7.95496 4.09785
37 1 12.6506 5.30715 1.32968
38 1 12.7089 5.21673 4.11383
39 1 12.7398 8.26083 1.25712
12059 2 11.2226 -1.7599 5.50314
41 1 1.51578 10.7882 1.11821
42 1 4.21972 10.9584 1.35123
43 1 4.41672 11.091 4.21042
44 1 1.60944 10.8313 3.95593
12141 2 2.75057 15.1469 13.8347
46 1 4.26983 13.7287 1.12575
47 1 4.2803 13.7145 4.11099
48 1 1.29687 13.5075 4.05281
49 1 7.02014 10.7561 1.41604
50 1 9.76765 10.9908 1.25393
51 1 9.79017 10.9292 4.00079
52 1 7.12114 10.8233 4.04915
53 1 6.90933 13.9205 1.50719
54 1 9.86286 13.7284 1.19184
55 1 9.81186 13.7969 4.13111
56 1 7.15258 13.6777 4.08596
57 1 12.5959 11.232 1.21928
58 1 12.5594 11.0727 3.88307
59 1 12.8254 13.8783 1.13299
60 1 12.6987 13.8404 4.05493
61 1 1.31853 16.5814 1.45435
62 1 4.36255 16.585 1.19747
63 1 4.42152 16.5846 3.98563
64 1 1.75479 16.1497 3.95607
65 1 1.34712 19.4471 1.20984
66 1 4.13534 19.3847 1.25611
67 1 4.24485 19.3305 3.97799
68 1 1.22734 19.1576 4.00372
69 1 7.20199 16.7111 1.0835
70 1 9.80752 16.5119 1.26211
71 1 9.89034 16.5461 4.01154
72 1 7.07794 16.5855 3.90634
73 1 7.05434 19.3602 1.30489
74 1 9.89538 19.3479 1.38678
75 1 9.8362 19.4124 4.17967
76 1 7.20626 19.5325 3.9781
77 1 12.5451 16.5973 1.3617
78 1 12.8899 16.8619 4.10446
79 1 12.7287 22.2179 1.0813
80 1 12.8842 19.6509 4.17728
81 1 1.40716 22.1983 1.16156
82 1 4.16018 22.11 1.22843
83 1 4.23088 22.0838 3.88518
84 1 1.3861 22.0367 4.11053
85 1 6.91428 22.2636 1.13278
86 1 9.89976 22.1439 1.15998
87 1 9.80861 22.1955 4.019
88 1 7.16563 22.161 3.9853
12081 2 0.0252345 15.08 5.81845
90 1 12.4908 22.3973 3.9945
91 1 1.24613 -0.276212 6.65207
92 1 3.96452 -0.26988 6.98052
93 1 4.15139 -0.370728 9.73515
94 1 1.36656 -0.310034 9.57769
95 1 1.32236 2.64059 6.63498
96 1 4.08293 2.42065 6.84321
97 1 4.17021 2.62692 9.71707
98 1 1.41323 2.46533 9.83484
99 1 6.71451 -0.138091 6.77861
100 1 9.83353 -0.231872 6.68285
101 1 9.77118 -0.0482912 9.47588
102 1 6.92949 -0.253008 9.66899
103 1 6.98912 2.81647 6.92027
104 1 9.64133 2.53454 6.93774
105 1 9.96937 2.60856 9.7834
106 1 7.02851 2.35183 9.66455
107 1 12.6291 -0.382646 6.87529
108 1 12.5821 -0.468706 9.64843
109 1 12.6518 2.41594 6.84876
110 1 12.7252 2.36593 9.80833
111 1 1.16343 5.26752 6.81721
112 1 4.13756 5.32063 6.90688
113 1 4.37958 5.46712 9.73408
114 1 1.36974 5.4397 9.57841
115 1 1.36174 8.0607 6.86862
116 1 4.38466 8.27445 6.69669
117 1 4.30121 8.19738 9.69196
118 1 1.31707 8.33516 9.49875
119 1 6.85555 5.5905 6.73635
120 1 9.66513 5.31279 6.95997
121 1 9.85577 5.34548 9.87313
122 1 7.18575 5.2393 9.5795
123 1 7.18246 8.26176 7.04751
124 1 9.91229 8.04455 7.02809
125 1 9.8401 8.06812 9.7335
126 1 7.02647 8.29821 9.62912
127 1 12.4125 5.14304 6.86734
128 1 12.6835 5.12812 9.48228
129 1 12.581 8.01379 6.91673
130 1 12.7124 7.92896 9.70554
131 1 1.34798 11.0715 6.63258
132 1 4.11156 11.1036 6.96159
133 1 4.34528 10.8677 9.61584
134 1 1.46819 11.0801 9.73256
135 1 1.5815 13.8706 7.01097
136 1 4.27428 13.8195 6.90736
137 1 4.24826 13.6334 9.64748
138 1 1.22728 13.6691 9.79579
139 1 6.93637 11.1118 6.98519
140 1 9.83987 10.882 6.91432
141 1 10.0179 11.1094 9.73568
142 1 7.21963 11.0667 9.6117
143 1 7.09754 13.8146 6.64769
144 1 10.0477 13.6077 6.93489
145 1 9.88926 13.898 9.55794
146 1 7.12381 13.9442 9.64323
147 1 12.8007 10.9055 6.77454
148 1 12.8534 10.8413 9.64329
149 1 12.8896 13.7641 6.73966
150 1 12.6263 13.6116 9.58076
151 1 1.48263 16.5987 6.9061
152 1 4.57002 16.6505 6.59188
153 1 4.37144 16.4912 9.49422
154 1 1.69081 16.6504 9.50006
155 1 1.30769 19.4673 6.9235
156 1 3.90806 19.504 6.83252
157 1 4.2829 19.3578 9.67055
158 1 1.44007 19.365 9.7349
159 1 7.31082 16.7329 6.74251
160 1 10.0749 16.8042 6.73495
161 1 9.87442 16.6809 9.53529
162 1 6.94528 16.8041 9.62312
163 1 6.8025 19.6253 6.87971
164 1 9.85471 19.6282 6.91486
165 1 10.0538 19.4076 9.7096
166 1 7.15895 19.522 9.66548
167 1 12.8501 16.5048 6.91235
168 1 12.8419 16.5955 9.75995
169 1 12.6996 19.4663 6.91982
170 1 12.6963 19.5305 9.79892
171 1 1.28331 22.2421 6.92276
172 1 4.26674 22.2665 6.85404
173 1 4.12113 22.3045 9.74509
174 1 1.57638 22.1084 9.69211
175 1 7.18824 22.4213 6.9007
176 1 10.0403 22.3557 6.84718
177 1 9.72174 22.3822 9.68431
178 1 6.81497 22.296 9.68473
179 1 12.5924 22.3264 7.03633
180 1 12.7394 22.1794 9.7557
181 1 1.31777 -0.567834 12.384
182 1 3.9777 -0.361618 12.5054
183 1 1.29597 2.38275 12.5082
184 1 4.14011 2.56065 12.4413
185 1 6.89186 -0.302096 12.3759
186 1 9.55839 -0.522659 12.4214
187 1 6.84212 2.4088 12.3265
188 1 9.83973 2.26925 12.4115
189 1 12.5483 -0.592554 12.6059
190 1 12.5789 2.38781 12.3713
191 1 1.10489 5.38086 12.4113
192 1 4.02198 5.37238 12.4679
193 1 1.34076 8.20737 12.3163
194 1 4.28435 8.0123 12.4638
195 1 6.93549 5.23085 12.5403
196 1 9.74647 5.25222 12.633
197 1 6.97097 7.92454 12.4284
198 1 9.75933 8.13103 12.5542
199 1 12.769 5.30593 12.4885
200 1 12.5517 8.158 12.5566
201 1 1.38393 11.1716 12.5862
202 1 4.12558 10.9638 12.4389
203 1 1.38409 13.9435 12.5584
204 1 4.25333 13.7888 12.4769
205 1 7.20625 10.7264 12.2881
206 1 9.89678 10.9658 12.4855
207 1 7.1106 13.4821 12.4226
208 1 10.119 13.8165 12.3687
209 1 12.5279 10.7731 12.4972
210 1 12.7518 13.8343 12.6394
211 1 1.37933 16.5916 12.4358
212 1 4.251 16.3875 12.4042
213 1 1.21487 19.1853 12.6497
214 1 4.0057 19.505 12.4521
215 1 7.15212 16.6116 12.3039
216 1 9.88943 16.4592 12.3581
217 1 7.01124 19.2717 12.2958
218 1 9.70446 19.61 12.5274
219 1 12.616 16.5882 12.4512
220 1 12.5625 19.3593 12.6982
221 1 1.27405 22.3061 12.4875
222 1 3.98631 22.3218 12.3729
223 1 6.91161 22.1491 12.5804
224 1 9.80798 22.4388 12.5222
225 1 12.6415 22.1695 12.6201
12139 2 5.6303 12.2026 13.6748
12131 2 2.61794 3.71329 13.8649
12044 2 -0.0231991 23.7069 2.72593
12071 2 0.166022 9.3835 5.43071
12053 2 2.7319 -1.80535 8.33367
12024 2 0.252776 11.9226 2.65886
12034 2 -0.166557 18.2692 2.5497
12008 2 5.62309 1.14669 2.41005
12129 2 5.41183 0.871744 13.7666
12010 2 11.2308 1.18039 2.61637
12125 2 11.3327 20.7627 11.0671
12094 2 -0.0373623 23.6864 8.23656
12013 2 2.74575 3.80258 2.69814
12124 2 8.31575 23.6329 11.0976
15061 2 13.9765 6.5145 5.62004
6054 1 1.51681 13.6617 1.43145
12017 2 8.2065 4.06688 2.44897
12018 2 5.50342 6.7558 2.37171
12084 2 -0.078935 18.0569 8.31632
12020 2 11.4604 6.5837 2.62661
12113 2 5.73899 9.39543 11.0804
12104 2 8.43857 0.945358 11.0364
12023 2 2.90746 9.37279 2.55342
12054 2 0.0359605 1.12119 8.2912
40 1 12.969 8.206 4.11155
12107 2 2.73851 6.80098 11.0376
12027 2 8.32568 9.26835 2.71008
12028 2 5.6911 12.2377 2.73505
12143 2 8.42049 15.0466 13.7318
12030 2 11.2547 12.4595 2.64357
12102 2 2.82892 1.05693 11.0557
12114 2 8.70656 12.283 11.0288
12033 2 3.28463 14.9713 2.66184
12142 2 -0.155039 17.9618 14.0078
12100 2 11.2349 23.641 8.31969
12099 2 11.2657 21.0181 5.50114
12037 2 8.60055 15.0959 2.68868
12038 2 5.72915 18.0298 2.79441
12098 2 5.55809 23.7317 8.38679
12040 2 11.284 17.9799 2.83083
12097 2 8.41522 20.8626 8.4323
12074 2 -0.0451352 12.2623 8.34035
12043 2 2.8357 20.8511 2.6707
12123 2 5.54573 20.7351 11.1526
12096 2 8.47807 23.5598 5.34188
12095 2 5.56403 20.9395 5.39826
12047 2 8.48676 20.6692 2.59162
12048 2 5.54641 23.5128 2.57951
12115 2 11.2808 9.3829 11.1571
12050 2 11.1667 23.4484 2.60528
12106 2 -0.036218 3.8507 11.1517
12052 2 2.68299 1.0013 5.42368
12112 2 2.8187 12.2599 11.1731
12122 2 2.81281 23.6633 11.0245
12110 2 11.3248 3.61052 11.0133
12056 2 8.14482 1.11722 5.37715
12109 2 8.46161 6.62056 11.0544
12058 2 5.4563 1.19483 8.18192
12108 2 5.57289 3.97963 11.0037
12060 2 11.2248 1.10414 8.20178
12120 2 11.3615 15.2038 11.0382
12062 2 2.73933 6.62738 5.38063
12063 2 2.87287 3.9639 8.15059
12119 2 8.45501 18.004 10.9708
12065 2 5.46604 4.0773 5.33371
12066 2 8.4752 6.68606 5.62981
12067 2 8.52212 3.86767 8.40165
12068 2 5.67422 6.81441 8.3279
12069 2 11.0889 3.99109 5.47176
12070 2 11.1577 6.65162 8.26946
12145 2 11.2434 17.9768 13.8981
12072 2 2.82583 12.394 5.59105
12073 2 2.74873 9.60109 8.19495
12118 2 5.61417 15.2415 10.9314
12075 2 5.84733 9.41236 5.44084
12076 2 8.51934 12.2781 5.44405
12077 2 8.54856 9.50879 8.40725
12078 2 5.80122 12.3511 8.40671
12079 2 11.4229 9.5883 5.46182
12080 2 11.4107 12.2849 8.2459
12133 2 8.28579 3.77601 13.8593
12082 2 2.685 17.8955 5.32613
12083 2 2.99564 15.0456 8.43071
12117 2 2.77209 17.9471 11.0235
12085 2 5.70968 15.0918 5.41696
12086 2 8.38181 18.1157 5.45327
12087 2 8.52976 15.1012 8.20676
12088 2 5.46407 18.1529 8.10856
12089 2 11.3624 15.2509 5.56302
12090 2 11.3649 18.0976 8.22953
440 1 12.5036 19.3604 1.20031
12092 2 2.72884 23.662 5.64418
12093 2 2.71043 20.8545 8.24131
12019 2 11.2829 3.67168 -0.151532
12140 2 11.3039 12.2336 13.9584
12136 2 2.69789 9.44228 13.8266
12111 2 -0.0600472 9.52805 11.0873
12134 2 5.54335 6.62182 13.8977
12091 2 -0.0621809 20.8559 5.53327
12064 2 0.0295591 6.76515 8.18807
12103 2 5.61626 -1.67406 11.0487
12121 2 -0.0496839 20.7549 11.1665
6058 2 0.192214 15.1007 2.64624
12014 2 -0.0492317 6.57498 2.55374
12144 2 5.78302 17.862 13.707
12130 2 11.1882 0.836019 13.7948
12035 2 5.73302 15.2013 -0.0820072
12026 2 8.47365 12.3465 -0.0754751
12149 2 5.58566 23.5739 13.9035
12135 2 11.3123 6.56673 13.8484
12002 2 2.73529 0.980177 -0.0990951
12146 2 2.79167 20.7523 13.9112
226 1 4.22637 -0.633591 15.2792
227 1 1.42647 -0.519959 15.213
228 1 3.79233 2.27 15.1567
229 1 1.11889 2.26788 15.5055
230 1 9.77938 -0.610024 15.1106
231 1 6.89927 -0.41082 15.4705
232 1 9.77023 2.40455 15.2499
233 1 6.79547 2.36569 15.3142
234 1 12.5834 -0.635228 15.6225
235 1 12.6788 2.13548 15.1804
236 1 4.21949 5.10938 15.4071
237 1 1.23826 5.17341 15.2062
238 1 4.24743 8.13277 15.4505
239 1 1.3825 7.96577 15.2122
240 1 9.69576 5.21538 15.378
241 1 6.81668 5.10216 15.3136
242 1 9.88989 8.216 15.4032
243 1 7.08604 8.09387 15.3166
244 1 12.6277 4.89805 15.2334
245 1 12.553 7.7078 15.3791
246 1 4.30769 10.9029 15.312
247 1 1.47404 10.5955 15.4151
248 1 4.40851 13.5695 15.3253
249 1 1.60716 13.6897 15.4484
250 1 9.9259 10.932 15.321
251 1 7.07116 10.8339 15.209
252 1 9.84992 13.766 14.9986
253 1 7.00087 13.6228 15.3443
254 1 12.7354 10.7874 15.3902
255 1 12.8437 13.6466 15.4062
256 1 4.12977 16.4352 15.1062
257 1 1.31898 16.3679 15.1871
258 1 4.20563 19.2922 15.3194
259 1 1.55397 19.3647 15.2247
260 1 9.58387 16.5867 15.033
261 1 7.05737 16.4912 15.2521
262 1 9.73261 19.2592 15.3203
263 1 6.837 19.3726 15.1645
264 1 12.5454 16.4205 15.3372
265 1 12.7334 19.3319 15.401
266 1 4.21598 22.2182 15.2499
267 1 1.30729 22.2837 15.3562
268 1 9.61971 22.1326 15.2605
269 1 6.87826 22.2428 15.4248
270 1 12.648 22.2274 15.2967
271 1 1.17982 -0.438857 17.9098
272 1 4.14438 -0.435984 18.0976
273 1 4.14843 -0.372698 20.9156
274 1 1.14829 -0.619468 20.7838
275 1 1.0362 2.39648 18.1728
276 1 3.99818 2.35005 17.9782
277 1 4.14302 2.54966 20.7547
278 1 1.44323 2.29433 20.9667
279 1 6.83584 -0.317692 18.2253
280 1 9.71111 -0.342018 17.9213
281 1 10.0764 -0.497054 20.7226
282 1 7.13409 -0.391404 20.9685
283 1 6.92336 2.54444 18.185
284 1 10.0029 2.31423 17.9723
285 1 9.68822 2.30328 20.9617
286 1 6.90818 2.29083 21.059
287 1 12.53 -0.339343 18.2286
288 1 12.7537 -0.55179 21.0119
289 1 12.4999 2.5895 18.1013
290 1 12.6136 2.25668 20.92
291 1 1.30229 5.15973 17.9095
292 1 4.05064 5.26562 18.1129
293 1 4.24754 5.3831 20.8289
294 1 1.1741 5.15274 20.7854
295 1 1.20061 8.03771 18.083
296 1 4.2562 8.1066 18.3398
297 2 5.66626 9.39725 19.5759
298 1 4.15528 8.41425 20.9171
299 1 7.0806 5.10203 18.0554
300 1 9.8186 5.20994 18.2177
301 1 9.97765 5.12394 20.9326
302 1 7.17302 5.20115 20.9019
303 1 6.77929 7.99513 18.2242
304 1 9.8785 7.93637 18.0159
305 1 9.9339 8.05886 20.9835
306 1 6.98813 7.95194 20.9016
307 1 12.7312 5.28043 18.0103
308 1 12.6662 5.05875 20.9525
309 1 12.597 8.08291 18.2625
310 1 12.7755 7.82675 21.0954
311 1 1.55312 11.0689 18.1655
312 1 4.40632 10.7473 18.1643
313 1 4.20624 10.9506 20.8352
314 1 1.48779 10.7044 20.9786
315 1 1.2682 13.7044 18.1947
316 1 3.93543 13.5056 18.2417
317 1 4.10056 13.8985 20.8997
318 1 1.18 13.7793 21.0199
319 1 7.22669 10.6076 18.2277
320 1 10.0793 10.7388 17.9219
321 1 9.88877 10.9983 20.8905
322 1 7.05057 10.7483 20.6732
323 1 6.86919 13.6465 18.0948
324 1 9.73474 13.6206 18.1662
325 1 9.70352 13.5568 20.7293
326 1 6.94508 13.622 21.0303
327 1 12.7369 10.801 18.4313
328 1 12.5424 10.6813 21.1001
329 1 12.5797 13.7319 18.006
330 1 12.9091 13.3606 20.7174
331 1 1.36092 16.4931 18.0286
332 1 4.14303 16.3606 17.9204
333 1 4.07843 16.5606 21.0353
334 1 1.4418 16.5122 20.8501
335 1 1.46029 19.2679 18.0059
336 1 4.21693 19.32 18.1588
337 1 4.26716 19.3783 21.0654
338 1 1.44155 19.3837 20.7865
339 1 6.80901 16.516 18.0491
340 1 9.69749 16.3937 17.8724
341 1 9.45384 16.8216 20.7374
342 1 6.86004 16.4229 20.8404
343 1 7.00202 19.2432 18.0428
344 1 9.63395 19.1998 18.1496
345 1 9.85173 19.4945 21.0724
346 1 6.9113 19.2976 20.9911
347 1 12.6614 16.674 18.1176
348 1 12.8391 16.4533 20.8169
349 1 12.599 19.4537 18.0917
350 1 12.6556 19.2432 20.9046
351 1 1.32008 22.1008 18.0986
352 1 4.29113 22.3209 18.2369
353 1 4.05064 22.1789 21.0521
354 1 1.41331 22.1208 21.0236
355 1 7.02815 22.0969 18.1969
356 1 9.8808 21.911 18.0678
357 1 9.66106 22.2209 20.8205
358 1 6.82377 22.2001 20.9733
359 1 12.6979 22.0968 18.2187
360 1 12.4889 22.0718 21.0529
361 1 1.57297 -0.300136 23.7959
362 1 4.40827 -0.125743 23.6387
363 1 4.18603 -0.386906 26.6592
364 1 1.50166 -0.276619 26.3099
365 1 1.42939 2.434 23.5815
366 1 4.28633 2.55349 23.7694
367 1 4.23419 2.47437 26.562
368 1 1.32058 2.51083 26.4165
369 1 7.15557 -0.442914 23.7688
370 1 10.0104 -0.271243 23.632
371 1 9.75104 -0.434128 26.568
372 1 6.9685 -0.177398 26.4701
373 1 6.97892 2.40899 23.7595
374 1 9.82743 2.40701 23.8258
375 1 10.0499 2.3651 26.6811
376 1 7.1983 2.53488 26.6842
377 1 12.6391 -0.393569 23.7877
378 1 12.5472 -0.280078 26.6196
379 1 12.7814 2.35443 23.7735
380 1 12.842 2.58694 26.8752
381 1 1.34457 5.2869 23.6697
382 1 4.31975 5.2757 23.5267
383 1 4.29497 5.2092 26.3729
384 1 1.41826 5.14726 26.4477
385 1 1.41233 8.0965 23.6899
386 1 4.29107 8.10279 23.7821
387 1 4.26302 8.14686 26.4539
388 1 1.32366 7.89831 26.5015
389 1 7.06462 5.22831 23.7638
390 1 9.75733 5.26146 23.798
391 1 9.74041 5.15407 26.4648
392 1 7.01777 5.47174 26.5809
393 1 7.01344 8.14296 23.7851
394 1 9.69894 8.02237 23.7441
395 1 9.7603 8.19187 26.5052
396 1 7.05892 8.18061 26.484
397 1 12.5394 5.03849 23.7592
398 1 12.6905 5.30546 26.6217
399 1 12.7653 8.05559 23.7483
400 1 12.5865 8.27302 26.5157
401 1 1.56772 10.8269 23.6627
402 1 4.16731 10.857 23.7837
403 1 3.94237 10.8077 26.5024
404 1 1.00338 10.8324 26.496
405 1 1.24545 13.6492 23.7681
406 1 4.08662 13.7016 23.8919
407 1 4.22966 13.7466 26.6921
408 1 1.53432 13.7026 26.616
409 1 6.88859 11.184 23.8133
410 1 9.71183 10.7637 23.7376
411 1 9.81934 10.918 26.7111
412 1 6.84153 11.0337 26.7789
413 1 6.82574 13.8686 23.9966
414 1 9.56309 13.4494 24.1434
415 1 9.88888 13.6798 26.6668
416 1 7.03131 13.7399 26.7877
417 1 12.5674 10.7685 23.8931
418 1 12.8022 11.0798 26.612
419 1 12.9468 13.6267 23.8858
420 1 12.8316 13.878 26.8233
421 1 1.37108 16.7121 23.6258
422 1 4.09497 16.5353 23.8361
423 1 4.11262 16.5739 26.5944
424 1 1.31529 16.6016 26.7491
425 1 1.36514 19.4549 23.8189
426 1 4.168 19.4931 23.8595
427 1 4.28443 19.4419 26.5986
428 1 1.453 19.4757 26.6595
429 1 6.96273 16.5482 23.8304
430 1 9.64011 19.3107 23.7083
431 1 9.8286 16.428 26.7075
432 1 6.92781 16.5071 26.5851
433 1 6.83916 19.4212 23.7609
434 1 12.641 19.4044 26.5849
435 1 9.88637 19.4143 26.4876
436 1 7.09137 19.3669 26.7524
437 1 12.8622 16.6703 23.9743
438 1 12.8732 16.6274 26.692
439 1 12.972 19.4039 23.7763
12191 2 -0.169666 20.8213 16.7617
441 1 1.36899 22.2072 23.7577
442 1 4.0754 22.2223 23.9179
443 1 4.11602 22.2804 26.6267
444 1 1.33013 22.3616 26.5803
445 1 6.82952 22.3096 23.6872
446 1 9.85202 21.97 23.6842
447 1 9.77626 21.9979 26.4537
448 1 7.10535 22.326 26.4958
449 1 12.5479 21.912 23.8456
450 1 12.7492 22.2589 26.5359
12194 2 0.02765 23.6338 19.4827
12250 2 11.2397 23.289 24.9447
12016 2 8.47194 6.63075 27.8872
12015 2 5.58982 3.76793 27.8944
12041 2 0.0422908 20.8361 27.9905
12227 2 8.35882 9.52426 25.1086
12249 2 11.2899 20.3928 22.4176
12226 2 8.52237 12.5063 22.3883
12225 2 5.69191 9.47841 22.7126
12049 2 11.3542 20.6998 27.8924
12223 2 2.79427 9.55141 25.0514
12248 2 5.57917 23.5493 25.1958
12222 2 2.85054 12.3054 22.1937
12228 2 5.75549 12.3843 25.217
12029 2 11.1227 9.42223 27.9204
12220 2 11.1459 6.60833 25.0483
12247 2 8.36856 20.7232 25.1599
12025 2 5.68639 9.45767 28.0041
12171 2 -0.0961693 9.2909 16.4296
12012 2 2.71575 6.52768 27.8858
12219 2 11.2642 3.69955 22.416
12246 2 8.3796 23.4372 22.2791
12147 2 0.0282636 23.6679 13.9275
12218 2 5.5707 6.72667 25.1889
12217 2 8.31076 3.85095 25.2074
12245 2 5.44293 20.8038 22.3604
12152 2 2.56815 0.939771 16.6955
12216 2 8.42532 6.58126 22.2528
12243 2 2.74027 20.6917 25.2062
12215 2 5.73274 3.82055 22.235
12156 2 8.38545 0.975305 16.6194
12203 2 2.92765 -1.75299 25.3127
12158 2 5.54921 0.895028 19.7153
12229 2 11.2438 9.36239 22.4487
12160 2 11.2254 0.884808 19.3535
12242 2 2.703 23.6738 22.3598
12162 2 2.7059 6.62619 16.6431
12163 2 2.5695 3.70437 19.4447
12240 2 11.3033 17.7579 25.0599
12165 2 5.48143 3.63339 16.6718
12166 2 8.32793 6.45008 16.6712
12167 2 8.68371 3.59593 19.4459
12168 2 5.75801 6.19836 19.365
12169 2 11.2556 3.77833 16.5829
12170 2 11.4118 6.52147 19.491
12239 1 9.64364 16.5724 24.0136
12172 2 2.77431 12.2753 16.5259
12173 2 2.4924 9.45186 19.3432
12238 2 5.60301 17.8232 25.1894
12175 2 5.63699 9.60364 16.4583
12176 2 8.49888 12.1661 16.7916
12177 2 9.03969 9.43568 19.5154
12178 2 5.50039 12.6464 19.505
12179 2 11.4013 9.36814 16.5825
12180 2 11.2942 12.2801 19.4518
12237 2 8.33796 15.0776 25.2241
12182 2 2.7746 17.8333 16.7064
12183 2 2.636 15.162 19.5063
12236 2 8.23686 17.9957 22.4409
12185 2 5.65004 15.0877 16.4552
12186 2 8.27033 17.8232 16.6202
12187 2 8.3993 15.1146 19.4802
12188 2 5.53784 17.7941 19.5596
12189 2 11.1807 15.1032 16.6018
12190 2 11.2148 17.8063 19.5103
12235 2 5.48726 15.1216 22.326
12192 2 2.67869 23.532 16.7793
12193 2 2.76668 20.7507 19.4639
12150 2 11.171 23.5812 13.8598
12195 2 5.4375 20.6001 16.6989
12196 2 8.30937 23.5766 16.9555
12197 2 8.37271 20.6151 19.668
12198 2 5.56057 23.6422 19.7227
12199 2 11.0982 20.5789 16.6932
12200 2 11.2989 23.5286 19.2879
12233 2 2.85445 15.218 25.0912
12202 2 2.81693 0.947256 22.3764
12127 2 -0.0820081 0.94505 13.9956
12232 2 2.8515 18.0023 22.3603
15182 2 13.9329 15.0491 19.4882
12206 2 8.40883 1.03614 22.3956
6309 1 1.24405 7.94664 20.6949
12208 2 5.68705 1.08378 25.1929
12042 2 2.78068 23.5447 28.0858
12210 2 11.4311 1.05158 25.1782
12230 2 11.3757 12.467 25.1738
12212 2 2.75101 6.60408 22.2356
12213 2 2.77118 3.9427 24.9916
12224 2 -0.00793165 12.0617 24.8657
12148 2 8.37739 20.8742 13.9966
12221 2 -0.0459426 9.475 22.1708
15151 2 13.9282 0.894295 16.7044
12244 2 -0.0440534 23.53 25.2417
12214 2 -0.0238488 6.72782 25.0232
12204 2 0.0350034 1.01657 25.0448
12011 2 -0.0332781 3.87666 27.8608
12211 2 -0.0582087 3.78377 22.2404
12184 2 0.0195294 18.0582 19.4086
12032 2 2.77635 17.9524 27.9924
12031 2 0.0408281 15.0179 27.7195
12234 2 -0.0337669 17.8788 25.1186
12022 2 2.81415 12.3424 27.9555
12036 2 8.72305 17.8759 28.0221
12006 2 8.51764 0.9751 28.008
12046 2 8.33213 23.532 27.965
12231 2 -0.118156 15.1831 22.2714
12174 2 -0.0502656 12.3148 19.3385
12241 2 -0.00346531 20.8472 22.3591
12045 2 5.6176 20.6794 28.0091
12138 2 8.59743 9.46641 14.0148
12039 2 11.2159 15.0262 28.0523
451 1 1.57364 24.9751 1.19275
452 1 4.31224 24.9351 1.33016
453 1 4.0113 24.8987 4.13731
454 1 1.29082 24.8633 4.2231
455 1 7.03261 25.0023 1.20727
456 1 9.80297 24.996 1.1733
457 1 9.95045 25.0542 4.03276
458 1 7.03427 25.0679 4.00459
459 1 12.9578 27.7673 1.06139
460 1 12.6926 24.9889 3.88621
461 1 1.41996 27.65 1.25219
462 1 4.22006 27.5751 1.31364
463 1 4.02769 27.5861 4.15291
464 1 1.50545 27.7275 4.02272
465 1 1.28923 30.3576 1.34587
466 1 4.12386 30.429 1.21207
467 1 4.20085 30.5353 4.17567
468 1 1.4541 30.7252 4.48659
469 1 7.02239 27.7297 1.39691
470 1 10.1014 27.751 1.11879
471 1 9.57465 27.7128 4.00931
472 1 6.93166 27.6885 4.05439
473 1 6.96012 30.4523 1.5046
474 1 9.73412 30.6521 1.36727
475 1 9.94575 30.701 4.31304
476 1 7.05204 30.5376 4.21814
477 1 12.438 30.2398 1.1115
478 1 12.3763 28.0993 3.76599
12378 2 11.0839 40.6484 13.8708
480 1 12.6476 30.5142 3.93253
481 1 1.31078 36.5024 1.42717
482 1 1.36098 33.3719 1.2401
483 1 4.39418 33.3573 4.12793
484 1 4.24534 36.1708 3.94942
485 2 2.87024 37.5974 2.659
486 1 4.01383 36.2186 1.17869
487 1 7.01712 36.18 4.08392
488 1 1.34793 36.2662 4.15134
489 1 4.06303 33.2747 1.2907
490 1 6.90599 33.3518 1.33376
491 1 9.94045 33.4713 4.14273
492 1 7.09937 33.3804 4.13701
493 1 6.78897 36.3649 1.33229
494 1 9.34982 36.1657 1.35337
495 1 12.3453 37.847 1.47477
496 1 9.62253 36.3466 4.00596
497 1 9.81739 33.2313 1.19199
12254 2 -0.0929787 29.0264 2.70329
12272 2 2.74739 40.5895 -0.147524
12382 2 5.67259 46.1463 13.8122
501 1 1.38241 39.1828 1.12538
502 1 4.19835 39.134 1.49014
503 1 4.15605 39.2047 4.17698
504 1 1.38693 39.0363 4.02213
505 1 1.44688 41.8581 1.37591
506 1 4.13363 41.9904 1.45088
507 1 4.12579 42.0052 4.24761
508 1 1.3778 41.9708 4.14795
509 1 6.8846 39.1229 1.28434
510 1 9.61759 39.0851 1.47269
511 1 10.0835 39.1967 4.24588
512 1 7.04279 39.0561 4.19589
513 1 6.81803 41.9398 1.40473
514 1 9.81898 42.0308 1.2462
515 1 9.74023 41.7875 4.06834
516 1 6.98132 41.9134 4.14304
12316 2 -0.0728803 37.8764 5.45657
89 1 12.5744 24.8872 1.0941
519 1 12.7064 42.3478 1.21912
520 1 12.471 42.0679 3.8709
521 1 1.30399 44.8263 1.28037
522 1 4.20209 44.7572 1.3465
523 1 4.07535 44.8212 4.10969
524 1 1.37472 44.607 4.05181
525 1 1.25395 47.542 1.2107
526 1 3.9915 47.6233 1.2209
527 1 4.24051 47.6468 3.99788
528 1 1.31983 47.4685 4.11977
529 1 7.15657 44.5516 1.15208
530 1 9.77876 44.7552 1.08513
531 1 9.74266 44.6922 3.92759
532 1 6.95046 44.9858 3.99811
533 1 6.8652 47.4995 1.23255
534 1 9.52934 47.6556 1.23482
535 1 9.68239 47.522 4.02177
536 1 6.91764 47.6965 3.98611
537 1 12.6286 45.0454 1.06328
538 1 12.6642 44.5513 4.00757
539 1 12.5189 47.7186 1.43117
540 1 12.4169 47.7661 4.28921
541 1 1.40401 25.1454 6.86304
542 1 4.09861 25.036 7.18183
543 1 3.88244 25.2974 9.86261
544 1 1.3326 25.0547 9.62407
545 1 6.85627 25.1418 6.97659
546 1 9.71598 25.1421 6.92237
547 1 9.67841 25.0153 9.65138
548 1 6.88919 24.9436 9.82149
549 1 12.7203 25.2296 6.89827
550 1 12.6747 24.9929 9.61504
551 1 1.53849 28.0274 6.84782
552 1 4.25817 27.9729 6.85553
553 1 4.27425 27.8774 9.6773
554 1 1.5027 27.5649 9.76486
555 1 1.32829 33.4058 3.97003
556 1 3.76344 30.7534 6.87237
557 1 4.18364 30.8467 9.5867
558 1 1.62504 30.9142 9.73067
559 1 6.9862 28.0334 6.95624
560 1 9.80995 27.8103 6.88766
561 1 9.895 28.0125 9.82793
562 1 7.1572 27.7362 9.84649
563 1 7.04622 30.66 7.18533
564 1 9.77416 30.6765 6.91049
565 1 9.51692 30.6982 9.78801
566 1 6.96202 30.7448 9.81451
567 1 12.5173 27.866 6.71794
568 1 12.5446 27.957 9.55319
569 1 12.4792 30.5321 6.80452
570 1 12.6734 30.6078 9.69865
571 1 1.15331 36.1877 6.75573
572 1 4.15859 33.53 7.06801
573 1 4.23392 33.6351 9.84314
574 1 1.37142 33.6167 9.49832
575 1 3.89094 36.481 6.6845
576 1 6.84767 36.3629 6.94765
577 1 4.24991 36.3354 9.50786
578 1 1.30174 36.2312 9.55185
579 1 7.0055 33.4307 6.97236
580 1 9.89071 33.5602 6.77512
581 1 9.90747 33.5807 9.74096
582 1 7.14746 33.7076 9.70087
583 1 9.68571 36.348 6.93865
584 1 12.5181 36.1419 6.91933
585 1 9.67596 36.2928 9.77866
586 1 6.99527 36.4151 9.76093
587 1 12.5624 33.2275 6.86963
588 1 12.655 33.4832 9.61649
589 1 12.5689 36.39 4.18761
590 1 12.4954 36.4163 9.65281
591 1 1.22938 39.0621 6.86073
592 1 4.11464 39.2056 7.00122
593 1 4.05416 39.1611 9.68491
594 1 1.13072 39.1858 9.656
595 1 1.331 41.8445 7.11436
596 1 4.09337 42.0299 7.03333
597 1 4.1935 42.0183 9.85626
598 1 1.09387 41.819 9.85432
599 1 6.88281 39.1122 7.03952
600 1 9.6749 39.039 6.97518
601 1 9.72626 39.1631 9.66073
602 1 6.79742 39.0773 9.69935
603 1 6.94899 41.8144 6.84555
604 1 9.70162 44.8932 6.84091
605 1 9.88906 41.7681 9.75786
606 1 6.98695 41.8501 9.6022
607 1 12.5321 38.9013 6.71904
608 1 12.5615 39.1306 9.46708
609 1 12.7668 41.9187 6.69443
610 1 12.4835 41.8966 9.56842
611 1 1.26827 44.4989 6.76795
612 1 4.11799 44.8207 6.95623
613 1 4.061 44.815 9.76502
614 1 1.26004 44.7239 9.63664
615 1 1.18216 47.5479 6.93226
616 1 3.99214 47.544 6.89274
617 1 4.13069 47.7259 9.71092
618 1 1.12879 47.5114 9.82662
619 1 6.82658 44.8048 6.83402
620 1 9.85447 47.9246 6.95277
621 1 9.87923 44.7456 9.71102
622 1 6.86352 44.7293 9.57524
623 1 7.01962 47.5429 6.70294
12252 2 2.67045 29.168 -0.162821
625 1 9.59876 47.5416 9.67041
626 1 6.95122 47.5699 9.57709
627 1 12.635 44.9318 6.7277
628 1 12.738 44.6955 9.55188
629 1 12.5467 47.7531 7.15644
630 1 12.5045 47.3998 9.67961
631 1 1.45011 25.1827 12.4716
632 1 4.21856 25.0012 12.547
633 1 7.01583 25.1517 12.5064
634 1 9.86439 25.2042 12.5634
635 1 12.7017 25.0551 12.3317
636 1 1.49147 27.8727 12.7773
637 1 4.30986 28.0287 12.4174
638 1 1.25525 30.6883 12.5885
639 1 3.99149 30.6895 12.4403
640 1 6.97747 27.826 12.6302
641 1 9.60563 27.9648 12.6687
642 1 6.95756 30.6808 12.5915
643 1 9.8022 30.6415 12.4815
644 1 12.5416 27.8983 12.5178
645 1 12.6948 30.756 12.4804
646 1 1.31639 33.5317 12.499
647 1 4.38536 33.5359 12.7312
648 1 1.39676 36.3851 12.4418
649 1 4.04942 36.4006 12.2689
650 1 7.11057 33.3621 12.698
651 1 9.8353 33.3408 12.3821
652 1 7.09369 36.0145 12.8224
653 1 9.85438 36.437 12.5453
654 1 12.812 33.4892 12.4608
655 1 12.5596 36.3339 12.6572
656 1 1.49417 39.1155 12.4857
657 1 4.16351 39.1477 12.4267
658 1 1.37003 41.9471 12.5161
659 1 4.29287 42.0473 12.4263
660 1 6.96346 38.9623 12.4627
661 1 9.71166 39.1702 12.6122
662 1 7.01827 41.798 12.479
663 1 9.72806 42.0666 12.4684
664 1 12.4944 39.076 12.4253
665 1 12.7399 42.0071 12.3379
666 1 1.24501 44.8752 12.4784
667 1 4.17688 44.7231 12.2957
668 1 1.43812 47.7513 12.5599
669 1 4.19386 47.628 12.4203
670 1 7.22974 44.6975 12.4437
671 1 10.0293 44.9132 12.5407
672 1 7.01879 47.4334 12.2953
673 1 9.68222 47.6446 12.4756
674 1 12.7418 44.7492 12.3852
675 1 12.6073 47.6158 12.3489
12363 2 11.1708 48.9327 11.0202
12351 2 0.0412726 37.7259 11.0476
12253 2 2.82483 26.2256 2.69577
12362 2 5.63258 48.9511 11.112
12271 2 -0.105377 37.6614 -0.128203
12348 2 5.63529 32.2243 11.2547
12257 2 8.44943 26.2628 2.58712
12258 2 5.4313 29.103 2.73797
12347 2 2.75429 35.0058 10.9374
12260 2 10.8249 29.156 2.63913
1106 1 9.7276 50.4956 12.3146
12374 2 2.81777 37.703 13.9288
12263 2 2.67083 31.9549 2.68658
12360 2 11.3143 43.4086 11.0064
12326 2 0.0124712 43.2985 5.47153
12341 2 0.00902893 26.2627 11.1416
12267 2 8.36601 32.0966 2.62615
12268 2 5.56551 34.7793 2.59647
12264 2 -0.14646 35.0087 2.76502
12270 2 11.3046 34.7224 2.46295
12359 2 8.506 46.1514 11.059
6463 1 12.5335 33.0676 1.11408
12273 2 5.73282 37.5672 5.36698
12358 2 5.65168 43.3425 11.0402
12380 2 -0.113729 46.1351 13.8971
12265 2 5.41879 32.118 -0.170562
12277 2 8.37775 37.6932 2.76252
12278 2 5.71706 40.4843 2.76093
12296 2 0.0459968 26.5284 5.69368
12280 2 11.3014 40.5139 2.39263
12274 2 0.0389628 40.4772 2.64352
500 1 12.679 39.2938 3.85301
12283 2 2.86774 43.2822 2.77511
1003 1 4.1728 50.3262 9.60991
12345 2 11.1804 26.373 11.0149
6844 1 12.0999 40.0291 0.0795634
12287 2 8.4875 43.2844 2.64925
12288 2 5.59535 46.1252 2.63038
15373 2 13.9721 37.787 13.9581
12290 2 11.169 46.1021 2.69538
12350 2 11.1454 31.9573 11.0116
12292 2 2.6191 48.9737 2.5033
12352 2 2.78903 40.4501 10.989
12294 2 8.34934 48.8972 2.59411
12319 2 -0.18059 40.4997 8.28581
12357 2 2.75765 46.1751 11.0901
12297 2 2.7991 29.0645 5.39521
12298 2 2.77731 26.6233 8.40408
12299 1 1.34161 33.3082 6.71387
12300 2 5.55054 26.401 5.56306
12301 2 8.2828 29.0832 5.58722
12302 2 8.48235 26.3269 8.42833
12303 2 5.59127 29.2078 8.50838
12304 2 11.1592 26.4298 5.45272
12305 2 11.0614 29.3238 8.22375
12361 2 -0.107351 48.9877 11.1058
12307 2 2.73991 34.8977 5.55737
12308 2 2.87011 32.2029 8.45162
12355 2 11.1872 37.842 11.1457
12310 2 5.59524 32.0112 5.6462
12311 2 8.43736 34.8588 5.41157
12312 2 8.36754 32.0247 8.20958
12313 2 5.68356 34.8847 8.3526
12314 2 11.084 32.105 5.48597
12315 2 11.1143 34.8683 8.35815
12354 2 8.29618 40.4653 11.1058
12317 2 2.75858 40.3983 5.4433
12318 2 2.72224 37.7449 8.10877
6571 1 12.6828 33.5045 4.08988
12320 2 8.32686 37.7414 8.53106
12321 2 8.33988 40.4538 5.54156
12322 1 9.97674 42.1579 6.76978
12323 2 5.49325 40.42 8.19244
12324 2 11.0148 37.5779 5.56359
12325 2 11.1852 40.4693 8.24126
12349 2 8.56555 34.8835 11.2717
12327 2 2.8157 46.1119 5.29749
12328 2 2.77141 43.3766 8.30372