LAMMPS (29 Oct 2020)
OMP_NUM_THREADS environment is not set. Defaulting to 1 thread. (../comm.cpp:94)
  using 1 OpenMP thread(s) per MPI task
#---------------------------------------
#
# This script is used to calculate the thermal conuctivity of UO2 using Muller-Plathe method
# By Ziqiang Wang on 03/18/2022 on Jilin university
#
#---------------------------------------

variable     Nevery    equal   50
variable     T         equal   600

clear
OMP_NUM_THREADS environment is not set. Defaulting to 1 thread. (../comm.cpp:94)
  using 1 OpenMP thread(s) per MPI task
units          metal
boundary       p p p
atom_style     full

read_data vac_0.02_relaxed.dat
Reading data file ...
  orthogonal box = (-0.05631756 -0.89579287 -0.06958273) to (27.396318 328.97579 27.409583)
  2 by 13 by 2 MPI processor grid
  reading atoms ...
  17640 atoms
  reading velocities ...
  17640 velocities
Finding 1-2 1-3 1-4 neighbors ...
  special bond factors lj:    0.0      0.0      0.0     
  special bond factors coul:  0.0      0.0      0.0     
     0 = max # of 1-2 neighbors
     0 = max # of 1-3 neighbors
     0 = max # of 1-4 neighbors
     1 = max # of special neighbors
  special bonds CPU = 0.004 seconds
  read_data CPU = 0.066 seconds

set           type     1    charge     -1.1104
Setting atom values ...
  11760 settings made for charge
set           type     2    charge      2.2208
Setting atom values ...
  5880 settings made for charge

kspace_style    pppm   1.0e-05
pair_style      hybrid/overlay  coul/long  11.0  eam/alloy
pair_coeff      * * coul/long
pair_coeff      * * eam/alloy CeThUNpPuAmCmO.eam.alloy O U
newton          on
neighbor        0.3 bin
neigh_modify    delay 0 check yes every 1

#The first equilation
velocity        all create $T 10003 mom yes rot yes dist gaussian
velocity        all create 600 10003 mom yes rot yes dist gaussian
fix             nvt  all  nvt  temp  $T $T  0.1
fix             nvt  all  nvt  temp  600 $T  0.1
fix             nvt  all  nvt  temp  600 600  0.1

run             100000
PPPM initialization ...
  using 12-bit tables for long-range coulomb (../kspace.cpp:328)
  G vector (1/distance) = 0.29995431
  grid = 40 240 40
  stencil order = 5
  estimated absolute RMS force accuracy = 0.00014723913
  estimated relative force accuracy = 1.0225192e-05
  using single precision MKL FFT
  3d grid and FFT values/proc = 15000 7600
Neighbor list info ...
  update every 1 steps, delay 0 steps, check yes
  max neighbors/atom: 2000, page size: 100000
  master list distance cutoff = 11.3
  ghost atom cutoff = 11.3
  binsize = 5.65, bins = 5 59 5
  2 neighbor lists, perpetual/occasional/extra = 2 0 0
  (1) pair coul/long, perpetual
      attributes: half, newton on
      pair build: half/bin/newton
      stencil: half/bin/3d/newton
      bin: standard
  (2) pair eam/alloy, perpetual, copy from (1)
      attributes: half, newton on
      pair build: copy
      stencil: none
      bin: none
Per MPI rank memory allocation (min/avg/max) = 8.167 | 8.189 | 8.208 Mbytes
Step Temp E_pair E_mol TotEng Press 
       0          600   -237119.41            0    -235751.4   -753.72932 
  100000    599.89853   -237125.93            0   -235758.15    -834.2848 
Loop time of 623.573 on 52 procs for 100000 steps with 17640 atoms

Performance: 13.856 ns/day, 1.732 hours/ns, 160.366 timesteps/s
99.8% CPU use with 52 MPI tasks x 1 OpenMP threads

MPI task timing breakdown:
Section |  min time  |  avg time  |  max time  |%varavg| %total
---------------------------------------------------------------
Pair    | 418.27     | 427.04     | 441.16     |  24.6 | 68.48
Bond    | 0.0060128  | 0.01008    | 0.013325   |   1.8 |  0.00
Kspace  | 126.99     | 141.86     | 153.44     |  49.0 | 22.75
Neigh   | 32.929     | 34.864     | 37.066     |  14.8 |  5.59
Comm    | 14.221     | 15.356     | 17.767     |  23.0 |  2.46
Output  | 5.7589e-05 | 6.3519e-05 | 0.00029728 |   0.0 |  0.00
Modify  | 1.7037     | 3.1361     | 5.378      |  65.4 |  0.50
Other   |            | 1.3        |            |       |  0.21

Nlocal:        339.231 ave         365 max         322 min
Histogram: 4 7 8 5 9 12 5 1 0 1
Nghost:        4227.81 ave        4288 max        4149 min
Histogram: 3 3 3 5 7 5 6 8 9 3
Neighs:        71230.1 ave       77437 max       66756 min
Histogram: 3 6 8 5 10 14 3 2 0 1

Total # of neighbors = 3703964
Ave neighs/atom = 209.97528
Ave special neighs/atom = 0.0000000
Neighbor list builds = 16193
Dangerous builds = 0
unfix           nvt
reset_timestep  0

# the second run
fix             1 all nve

group           oxygen type 1
11760 atoms in group oxygen
fix             2 oxygen thermal/conductivity ${Nevery} y 20
fix             2 oxygen thermal/conductivity 50 y 20

compute         ke all ke/atom
variable        temp atom c_ke/1.5
compute         layers all chunk/atom bin/1d y lower 0.05 units reduced
fix             3      all ave/chunk  2000 50 100000 layers v_temp file profile_${T}K.mp
fix             3      all ave/chunk  2000 50 100000 layers v_temp file profile_600K.mp

variable        Tdiff    equal     f_3[11][3]-f_3[1][3]
variable        deltaT   equal     v_Tdiff*1.5/0.0001292

timestep        0.001
thermo_style    custom step f_2 temp v_Tdiff v_deltaT
thermo          100000

run             1000000
PPPM initialization ...
  using 12-bit tables for long-range coulomb (../kspace.cpp:328)
  G vector (1/distance) = 0.29995431
  grid = 40 240 40
  stencil order = 5
  estimated absolute RMS force accuracy = 0.00014723913
  estimated relative force accuracy = 1.0225192e-05
  using single precision MKL FFT
  3d grid and FFT values/proc = 15000 7600
Per MPI rank memory allocation (min/avg/max) = 8.418 | 8.440 | 8.459 Mbytes
Step f_2 Temp v_Tdiff v_deltaT 
       0            0    599.89853            0            0 
  100000    656.56312    602.84648  0.024214578      281.129 
  200000    1276.1952    603.38354  0.028074184    325.93867 
  300000    1896.6437    603.96592  0.028250126    327.98134 
  400000    2519.5635     606.1069  0.027845961    323.28902 
  500000    3136.6006    603.08198  0.028620121    332.27694 
  600000    3763.1606    605.50481  0.027915911    324.10113 
  700000    4384.7223    602.97894  0.028410583    329.84423 
  800000    5011.8169    609.60457  0.027549352    319.84542 
  900000    5642.9873    605.40438  0.027735074    322.00163 
 1000000    6272.1893    610.37985  0.028250673    327.98769 
Loop time of 6179.46 on 52 procs for 1000000 steps with 17640 atoms

Performance: 13.982 ns/day, 1.717 hours/ns, 161.826 timesteps/s
99.9% CPU use with 52 MPI tasks x 1 OpenMP threads

MPI task timing breakdown:
Section |  min time  |  avg time  |  max time  |%varavg| %total
---------------------------------------------------------------
Pair    | 4094.8     | 4202.8     | 4346.7     |  83.9 | 68.01
Bond    | 0.060713   | 0.10193    | 0.14057    |   5.7 |  0.00
Kspace  | 1267.9     | 1424.8     | 1540.3     | 158.2 | 23.06
Neigh   | 344.26     | 362.61     | 387.95     |  46.5 |  5.87
Comm    | 142.74     | 153.37     | 180.1      |  78.7 |  2.48
Output  | 0.0011063  | 0.0011767  | 0.002451   |   0.5 |  0.00
Modify  | 5.3406     | 5.7994     | 6.5003     |  11.2 |  0.09
Other   |            | 29.98      |            |       |  0.49

Nlocal:        339.231 ave         359 max         324 min
Histogram: 2 4 13 4 10 7 4 2 3 3
Nghost:        4228.02 ave        4282 max        4146 min
Histogram: 1 4 2 2 7 10 8 2 8 8
Neighs:        71241.5 ave       75751 max       67458 min
Histogram: 2 5 7 7 10 6 7 5 1 2

Total # of neighbors = 3704558
Ave neighs/atom = 210.00896
Ave special neighs/atom = 0.0000000
Neighbor list builds = 168724
Dangerous builds = 0

Total wall time: 1:53:23
