LAMMPS (29 Oct 2020)
OMP_NUM_THREADS environment is not set. Defaulting to 1 thread. (../comm.cpp:94)
  using 1 OpenMP thread(s) per MPI task
#-------------------------
#
#This script is used to create different concentrations of vacancies in thorium dioxide
#By Ziqiang Wang on 07/03/2023
#
#-------------------------

clear
OMP_NUM_THREADS environment is not set. Defaulting to 1 thread. (../comm.cpp:94)
  using 1 OpenMP thread(s) per MPI task
units                        metal
dimension                        3
boundary                     p p p
atom_style                   full
atom_modify                  map array

read_data                   perfect_relaxed.dat
Reading data file ...
  orthogonal box = (-0.27717828 -3.4472206 -0.27717828) to (27.617178 331.52722 27.617178)
  2 by 13 by 2 MPI processor grid
  reading atoms ...
  18000 atoms
  reading velocities ...
  18000 velocities
Finding 1-2 1-3 1-4 neighbors ...
  special bond factors lj:    0.0      0.0      0.0     
  special bond factors coul:  0.0      0.0      0.0     
     0 = max # of 1-2 neighbors
     0 = max # of 1-3 neighbors
     0 = max # of 1-4 neighbors
     1 = max # of special neighbors
  special bonds CPU = 0.005 seconds
  read_data CPU = 0.055 seconds

# randomly create vacancies in the relaxed perfect crystal
variable                   vac_ratio    equal  0.02
group                      Th_delete    id  17547  3145  5857  2259  2641 17042 10322 10321 15675  1285 12376 12375                                              4369  4360  3338  6997 17740 14150  2930  2991  3676  3733 11125 11056                                              16131 16130 16021 15962  8078  8067  8943 12544 16576 16574  2306  2367                                               4525   926  6829  6772 16286 16287 14737 14727 16741 16742 14032 14029                                              17968 17965 13791 13792  9698 13300  7096  7094  5846  9505 16492 16441                                               8438  8487 17726 17715 16407 16417 11752 11751 14329 14260  1705  1636                                               5749  5750 11308 11318  6615 10213   556   613  9904  9973  4096  4155                                              13621  9962 17294 17353  3878  3877  9207 12805 13022 13072  4288  4285                                               7192  7191  1311  1310 17162 17164  1323  1262 15303 15254 10708 10717                                               1189 15590  9376  9374 10633 10635  3397  3340  3279  3278  4502  4503
120 atoms in group Th_delete

group                       O_delete    id  17491 17492 17484 17542  2196  2204  2203  2207 16988 17046 17045 17047                                              10325 10326  6668  6726 15619 15620 15624 15632  8778  8780 12319 12320                                                708   716   762   764  3333  3334  3336  3344 14142 14144 14145 14146                                               2925  2926  2935  2936    78    80    72   130  7464  7472  7458  7460                                              16075 16076 16125 16126 12368 12426 15965 15966  8073  8074  8011  8012                                               8887  8888  8946  8948 12978 12980 16569 16570  2301  2302  2311  2312                                                864   872   921   922  3168  3176  3174  3178 16281 16282 16231 16232                                              11076 11084 14671 14672 13088 13146 16745 16746 10434 10436 10368 10376                                              14370 14372 14304 14312 13735 13736 10194 10196  9693  9694  9702  9704                                               3498  3500  7089  7090  5841  5842  5844  5852 12894 12896 12840 12898                                               8433  8434  8431  8432 17721 17722 17659 17660 16351 16352 12756 12764                                               8154  8156 11695 11696 10668 10676 10662 10664 16044 16052 16038 16040                                               2088  2096  5745  5746  7710  7712 11313 11314  6559  6560  6552  6610                                              14958 14960 14952 15010  6306  6308  6312  6320   498   500  4099  4100                                               9968 10026  9965  9966 17289 17290 13692 13700  3873  3874   216   224                                               9151  9152  9144  9202 13077 13078  9474  9476   690   692   624   632                                               3594  3596  7135  7136  1255  1256  1305  1306 17165 17166 13566 13568                                               1267  1268  1265  1266 15247 15248 15249 15250  7110  7112  7056  7064                                              15528 15536 15585 15586  5778  5780  9369  9370  6972  6980 10579 10580                                              17736 17744 17742 17746  3223  3224  3273  3274  4505  4506  4447  4448
240 atoms in group O_delete

group                       delete      union   Th_delete  O_delete
360 atoms in group delete
delete_atoms                group       delete
WARNING: Ignoring 'compress yes' for molecular system (../delete_atoms.cpp:125)
Deleted 360 atoms, new total = 17640

set                         type    1      charge   -1.1104
Setting atom values ...
  11760 settings made for charge
set                         type    2      charge    2.2208
Setting atom values ...
  5880 settings made for charge
kspace_style                pppm     1.0e-05
pair_style                  hybrid/overlay    coul/long   11.0  eam/alloy
pair_coeff                  * * coul/long
pair_coeff                  * * eam/alloy CeThUNpPuAmCmO.eam.alloy O Th
neighbor                    2.0  bin
neigh_modify                every  1  delay  0  check  yes

# fully relaxing the defect configuration at 0K
fix                box_relax  all  box/relax aniso 0.0 vmax 0.001
min_style          cg
minimize           1.0e-30 1.0e-30 10000 10000
PPPM initialization ...
  using 12-bit tables for long-range coulomb (../kspace.cpp:328)
  G vector (1/distance) = 0.29912164
  grid = 40 240 40
  stencil order = 5
  estimated absolute RMS force accuracy = 0.00015376724
  estimated relative force accuracy = 1.0678544e-05
  using single precision MKL FFT
  3d grid and FFT values/proc = 18225 7600
Neighbor list info ...
  update every 1 steps, delay 0 steps, check yes
  max neighbors/atom: 2000, page size: 100000
  master list distance cutoff = 13
  ghost atom cutoff = 13
  binsize = 6.5, bins = 5 52 5
  2 neighbor lists, perpetual/occasional/extra = 2 0 0
  (1) pair coul/long, perpetual
      attributes: half, newton on
      pair build: half/bin/newton
      stencil: half/bin/3d/newton
      bin: standard
  (2) pair eam/alloy, perpetual, copy from (1)
      attributes: half, newton on
      pair build: copy
      stencil: none
      bin: none
Per MPI rank memory allocation (min/avg/max) = 9.469 | 10.11 | 10.28 Mbytes
Step Temp E_pair E_mol TotEng Press Volume 
       0            0   -230541.87            0   -230541.87   -4689.2733    260641.98 
     205            0   -231308.53            0   -231308.53    47.682571    261624.22 
Loop time of 3.6776 on 52 procs for 205 steps with 17640 atoms

99.4% CPU use with 52 MPI tasks x 1 OpenMP threads

Minimization stats:
  Stopping criterion = linesearch alpha is zero
  Energy initial, next-to-last, final = 
     -230541.870980035  -231308.529373678  -231308.529373678
  Force two-norm initial, final = 1350.4475 14.523505
  Force max component initial, final = 910.88202 10.042492
  Final line search alpha, max atom move = 4.9519652e-11 4.9730070e-10
  Iterations, force evaluations = 205 353

MPI task timing breakdown:
Section |  min time  |  avg time  |  max time  |%varavg| %total
---------------------------------------------------------------
Pair    | 2.1098     | 2.227      | 2.3492     |   3.6 | 60.55
Bond    | 3.1028e-05 | 4.5161e-05 | 6.6068e-05 |   0.0 |  0.00
Kspace  | 0.60076    | 0.72302    | 0.84062    |   6.3 | 19.66
Neigh   | 0.0025254  | 0.002843   | 0.0031726  |   0.3 |  0.08
Comm    | 0.055135   | 0.058803   | 0.063076   |   0.8 |  1.60
Output  | 0          | 0          | 0          |   0.0 |  0.00
Modify  | 0          | 0          | 0          |   0.0 |  0.00
Other   |            | 0.6659     |            |       | 18.11

Nlocal:        339.231 ave         372 max         301 min
Histogram: 2 1 4 10 8 5 7 7 4 4
Nghost:        5516.52 ave        5679 max        5377 min
Histogram: 7 5 7 3 7 3 8 6 4 2
Neighs:       107357.0 ave      119301 max       94914 min
Histogram: 3 1 9 7 6 6 9 3 3 5

Total # of neighbors = 5582569
Ave neighs/atom = 316.47217
Ave special neighs/atom = 0.0000000
Neighbor list builds = 1
Dangerous builds = 0
unfix              box_relax

# apply the temperature into the system and relaxing at the temperature of interest
reset_atom_ids
Resetting atom IDs ...
PPPM initialization ...
  using 12-bit tables for long-range coulomb (../kspace.cpp:328)
  G vector (1/distance) = 0.29905828
  grid = 40 240 40
  stencil order = 5
  estimated absolute RMS force accuracy = 0.00015424657
  estimated relative force accuracy = 1.0711831e-05
  using single precision MKL FFT
  3d grid and FFT values/proc = 18225 7600
Finding 1-2 1-3 1-4 neighbors ...
  special bond factors lj:    0.0      0.0      0.0     
  special bond factors coul:  0.0      0.0      0.0     
     0 = max # of 1-2 neighbors
     0 = max # of 1-3 neighbors
     0 = max # of 1-4 neighbors
     1 = max # of special neighbors
  special bonds CPU = 0.001 seconds
variable                    temp      equal    600
velocity                    all  create   ${temp}  4542  dist  gaussian  rot  yes  mom  yes
velocity                    all  create   600  4542  dist  gaussian  rot  yes  mom  yes
fix                         npt  all  npt  temp  ${temp}  ${temp}  $(100*dt) aniso  0.0  0.0  $(1000*dt)
fix                         npt  all  npt  temp  600  ${temp}  $(100*dt) aniso  0.0  0.0  $(1000*dt)
fix                         npt  all  npt  temp  600  600  $(100*dt) aniso  0.0  0.0  $(1000*dt)
fix                         npt  all  npt  temp  600  600  0.10000000000000000555 aniso  0.0  0.0  $(1000*dt)
fix                         npt  all  npt  temp  600  600  0.10000000000000000555 aniso  0.0  0.0  1

thermo                      20000
thermo_style                custom   step dt time atoms temp pe ke press vol

shell                       mkdir vac_${vac_ratio}_${temp}K
shell                       mkdir vac_0.02_${temp}K
shell                       mkdir vac_0.02_600K
dump                        1  all  custom  20000  ./vac_${vac_ratio}_${temp}K/dump_relax.atom.* id type q x y z
dump                        1  all  custom  20000  ./vac_0.02_${temp}K/dump_relax.atom.* id type q x y z
dump                        1  all  custom  20000  ./vac_0.02_600K/dump_relax.atom.* id type q x y z
dump_modify                 1  element  O  Th

run                         100000
PPPM initialization ...
  using 12-bit tables for long-range coulomb (../kspace.cpp:328)
  G vector (1/distance) = 0.29905828
  grid = 40 240 40
  stencil order = 5
  estimated absolute RMS force accuracy = 0.00015424657
  estimated relative force accuracy = 1.0711831e-05
  using single precision MKL FFT
  3d grid and FFT values/proc = 18225 7600
Per MPI rank memory allocation (min/avg/max) = 9.105 | 9.135 | 9.153 Mbytes
Step Dt Time Atoms Temp PotEng KinEng Press Volume 
     205        0.001            0    17640          600   -231308.53    1368.0118    5632.6486    261624.22 
   20000        0.001       19.795    17640     607.9025   -230039.16    1386.0297    744.96765    265517.31 
   40000        0.001       39.795    17640    598.61992   -230078.85    1364.8652   -335.56902    265591.42 
   60000        0.001       59.795    17640    598.37575   -230076.31    1364.3085    919.88274    265423.85 
   80000        0.001       79.795    17640    598.14732   -230080.22    1363.7877    762.18663    265444.87 
  100000        0.001       99.795    17640    602.78932   -230078.21    1374.3715    -868.6109    265672.54 
  100205        0.001          100    17640    597.70534   -230085.57      1362.78    -710.8179    265602.84 
Loop time of 792.108 on 52 procs for 100000 steps with 17640 atoms

Performance: 10.908 ns/day, 2.200 hours/ns, 126.245 timesteps/s
99.8% CPU use with 52 MPI tasks x 1 OpenMP threads

MPI task timing breakdown:
Section |  min time  |  avg time  |  max time  |%varavg| %total
---------------------------------------------------------------
Pair    | 482.67     | 499.3      | 515.03     |  33.5 | 63.03
Bond    | 0.011199   | 0.01604    | 0.024944   |   2.3 |  0.00
Kspace  | 164.99     | 180.91     | 197.65     |  56.1 | 22.84
Neigh   | 2.136      | 2.2732     | 2.4202     |   5.2 |  0.29
Comm    | 16.183     | 16.779     | 17.322     |   6.5 |  2.12
Output  | 0.033045   | 0.033071   | 0.034179   |   0.1 |  0.00
Modify  | 79.681     | 84.082     | 88.105     |  25.0 | 10.61
Other   |            | 8.718      |            |       |  1.10

Nlocal:        339.231 ave         370 max         316 min
Histogram: 4 3 6 11 10 11 1 1 4 1
Nghost:        5508.73 ave        5643 max        5373 min
Histogram: 5 7 4 5 4 4 3 11 3 6
Neighs:       106198.0 ave      115647 max       96607 min
Histogram: 2 3 1 8 12 14 6 1 0 5

Total # of neighbors = 5522309
Ave neighs/atom = 313.05607
Ave special neighs/atom = 0.0000000
Neighbor list builds = 818
Dangerous builds = 0
shell                       mkdir thermal_condu
write_data                  thermal_condu/vac_${vac_ratio}_relaxed.dat
write_data                  thermal_condu/vac_0.02_relaxed.dat
System init for write_data ...
PPPM initialization ...
  using 12-bit tables for long-range coulomb (../kspace.cpp:328)
  G vector (1/distance) = 0.29877717
  grid = 40 240 40
  stencil order = 5
  estimated absolute RMS force accuracy = 0.00015652205
  estimated relative force accuracy = 1.0869855e-05
  using single precision MKL FFT
  3d grid and FFT values/proc = 18225 7600
Total wall time: 0:13:16
