LAMMPS (29 Oct 2020)
OMP_NUM_THREADS environment is not set. Defaulting to 1 thread. (../comm.cpp:94)
  using 1 OpenMP thread(s) per MPI task
OMP_NUM_THREADS environment is not set. Defaulting to 1 thread. (../comm.cpp:94)
  using 1 OpenMP thread(s) per MPI task
Reading data file ...
  orthogonal box = (-0.27717828 -3.4472206 -0.27717828) to (27.617178 331.52722 27.617178)
  2 by 13 by 2 MPI processor grid
  reading atoms ...
  18000 atoms
  reading velocities ...
  18000 velocities
Finding 1-2 1-3 1-4 neighbors ...
  special bond factors lj:    0.0      0.0      0.0     
  special bond factors coul:  0.0      0.0      0.0     
     0 = max # of 1-2 neighbors
     0 = max # of 1-3 neighbors
     0 = max # of 1-4 neighbors
     1 = max # of special neighbors
  special bonds CPU = 0.005 seconds
  read_data CPU = 0.055 seconds
120 atoms in group Th_delete
240 atoms in group O_delete
360 atoms in group delete
WARNING: Ignoring 'compress yes' for molecular system (../delete_atoms.cpp:125)
Deleted 360 atoms, new total = 17640
Setting atom values ...
  11760 settings made for charge
Setting atom values ...
  5880 settings made for charge
PPPM initialization ...
  using 12-bit tables for long-range coulomb (../kspace.cpp:328)
  G vector (1/distance) = 0.29912164
  grid = 40 240 40
  stencil order = 5
  estimated absolute RMS force accuracy = 0.00015376724
  estimated relative force accuracy = 1.0678544e-05
  using single precision MKL FFT
  3d grid and FFT values/proc = 18225 7600
Neighbor list info ...
  update every 1 steps, delay 0 steps, check yes
  max neighbors/atom: 2000, page size: 100000
  master list distance cutoff = 13
  ghost atom cutoff = 13
  binsize = 6.5, bins = 5 52 5
  2 neighbor lists, perpetual/occasional/extra = 2 0 0
  (1) pair coul/long, perpetual
      attributes: half, newton on
      pair build: half/bin/newton
      stencil: half/bin/3d/newton
      bin: standard
  (2) pair eam/alloy, perpetual, copy from (1)
      attributes: half, newton on
      pair build: copy
      stencil: none
      bin: none
Setting up cg style minimization ...
  Unit style    : metal
  Current step  : 0
WARNING: Energy due to 3 extra global DOFs will be included in minimizer energies
Per MPI rank memory allocation (min/avg/max) = 9.469 | 10.11 | 10.28 Mbytes
Step Temp E_pair E_mol TotEng Press Volume 
       0            0   -230541.87            0   -230541.87   -4689.2733    260641.98 
     205            0   -231308.53            0   -231308.53    47.682571    261624.22 
Loop time of 3.6776 on 52 procs for 205 steps with 17640 atoms

99.4% CPU use with 52 MPI tasks x 1 OpenMP threads

Minimization stats:
  Stopping criterion = linesearch alpha is zero
  Energy initial, next-to-last, final = 
     -230541.870980035  -231308.529373678  -231308.529373678
  Force two-norm initial, final = 1350.4475 14.523505
  Force max component initial, final = 910.88202 10.042492
  Final line search alpha, max atom move = 4.9519652e-11 4.9730070e-10
  Iterations, force evaluations = 205 353

MPI task timing breakdown:
Section |  min time  |  avg time  |  max time  |%varavg| %total
---------------------------------------------------------------
Pair    | 2.1098     | 2.227      | 2.3492     |   3.6 | 60.55
Bond    | 3.1028e-05 | 4.5161e-05 | 6.6068e-05 |   0.0 |  0.00
Kspace  | 0.60076    | 0.72302    | 0.84062    |   6.3 | 19.66
Neigh   | 0.0025254  | 0.002843   | 0.0031726  |   0.3 |  0.08
Comm    | 0.055135   | 0.058803   | 0.063076   |   0.8 |  1.60
Output  | 0          | 0          | 0          |   0.0 |  0.00
Modify  | 0          | 0          | 0          |   0.0 |  0.00
Other   |            | 0.6659     |            |       | 18.11

Nlocal:        339.231 ave         372 max         301 min
Histogram: 2 1 4 10 8 5 7 7 4 4
Nghost:        5516.52 ave        5679 max        5377 min
Histogram: 7 5 7 3 7 3 8 6 4 2
Neighs:       107357.0 ave      119301 max       94914 min
Histogram: 3 1 9 7 6 6 9 3 3 5

Total # of neighbors = 5582569
Ave neighs/atom = 316.47217
Ave special neighs/atom = 0.0000000
Neighbor list builds = 1
Dangerous builds = 0
Resetting atom IDs ...
PPPM initialization ...
  using 12-bit tables for long-range coulomb (../kspace.cpp:328)
  G vector (1/distance) = 0.29905828
  grid = 40 240 40
  stencil order = 5
  estimated absolute RMS force accuracy = 0.00015424657
  estimated relative force accuracy = 1.0711831e-05
  using single precision MKL FFT
  3d grid and FFT values/proc = 18225 7600
Finding 1-2 1-3 1-4 neighbors ...
  special bond factors lj:    0.0      0.0      0.0     
  special bond factors coul:  0.0      0.0      0.0     
     0 = max # of 1-2 neighbors
     0 = max # of 1-3 neighbors
     0 = max # of 1-4 neighbors
     1 = max # of special neighbors
  special bonds CPU = 0.001 seconds
PPPM initialization ...
  using 12-bit tables for long-range coulomb (../kspace.cpp:328)
  G vector (1/distance) = 0.29905828
  grid = 40 240 40
  stencil order = 5
  estimated absolute RMS force accuracy = 0.00015424657
  estimated relative force accuracy = 1.0711831e-05
  using single precision MKL FFT
  3d grid and FFT values/proc = 18225 7600
Setting up Verlet run ...
  Unit style    : metal
  Current step  : 205
  Time step     : 0.001
Per MPI rank memory allocation (min/avg/max) = 9.105 | 9.135 | 9.153 Mbytes
Step Dt Time Atoms Temp PotEng KinEng Press Volume 
     205        0.001            0    17640          600   -231308.53    1368.0118    5632.6486    261624.22 
   20000        0.001       19.795    17640     607.9025   -230039.16    1386.0297    744.96765    265517.31 
   40000        0.001       39.795    17640    598.61992   -230078.85    1364.8652   -335.56902    265591.42 
   60000        0.001       59.795    17640    598.37575   -230076.31    1364.3085    919.88274    265423.85 
   80000        0.001       79.795    17640    598.14732   -230080.22    1363.7877    762.18663    265444.87 
  100000        0.001       99.795    17640    602.78932   -230078.21    1374.3715    -868.6109    265672.54 
  100205        0.001          100    17640    597.70534   -230085.57      1362.78    -710.8179    265602.84 
Loop time of 792.108 on 52 procs for 100000 steps with 17640 atoms

Performance: 10.908 ns/day, 2.200 hours/ns, 126.245 timesteps/s
99.8% CPU use with 52 MPI tasks x 1 OpenMP threads

MPI task timing breakdown:
Section |  min time  |  avg time  |  max time  |%varavg| %total
---------------------------------------------------------------
Pair    | 482.67     | 499.3      | 515.03     |  33.5 | 63.03
Bond    | 0.011199   | 0.01604    | 0.024944   |   2.3 |  0.00
Kspace  | 164.99     | 180.91     | 197.65     |  56.1 | 22.84
Neigh   | 2.136      | 2.2732     | 2.4202     |   5.2 |  0.29
Comm    | 16.183     | 16.779     | 17.322     |   6.5 |  2.12
Output  | 0.033045   | 0.033071   | 0.034179   |   0.1 |  0.00
Modify  | 79.681     | 84.082     | 88.105     |  25.0 | 10.61
Other   |            | 8.718      |            |       |  1.10

Nlocal:        339.231 ave         370 max         316 min
Histogram: 4 3 6 11 10 11 1 1 4 1
Nghost:        5508.73 ave        5643 max        5373 min
Histogram: 5 7 4 5 4 4 3 11 3 6
Neighs:       106198.0 ave      115647 max       96607 min
Histogram: 2 3 1 8 12 14 6 1 0 5

Total # of neighbors = 5522309
Ave neighs/atom = 313.05607
Ave special neighs/atom = 0.0000000
Neighbor list builds = 818
Dangerous builds = 0
System init for write_data ...
PPPM initialization ...
  using 12-bit tables for long-range coulomb (../kspace.cpp:328)
  G vector (1/distance) = 0.29877717
  grid = 40 240 40
  stencil order = 5
  estimated absolute RMS force accuracy = 0.00015652205
  estimated relative force accuracy = 1.0869855e-05
  using single precision MKL FFT
  3d grid and FFT values/proc = 18225 7600
Total wall time: 0:13:16
