 # Bcc Fe oriented X=[11-2] Y=[1-10] Z=[111].
 
       27300  atoms
           1  atom types
 
      0.000000000000     489.584107683342  xlo xhi
      0.000000000000     262.471408050373  ylo yhi
      0.000000000000       2.472773160743  zlo zhi
 
Masses
 
            1   55.84500000             # Fe
 
Atoms # atomic
 
         1    1        3.497029340595       2.019010831157       0.000000000000
         2    1        4.662705787460       0.000000000000       1.648515440496
         3    1        0.000000000000       0.000000000000       0.000000000000
         4    1        1.165676446865       2.019010831157       1.648515440496
         5    1        5.828382234325       2.019010831157       0.824257720248
         6    1        2.331352893730       0.000000000000       0.824257720248
         7    1       10.491088021786       2.019010831157       0.000000000000
         8    1       11.656764468651       0.000000000000       1.648515440496
         9    1        6.994058681191       0.000000000000       0.000000000000
        10    1        8.159735128056       2.019010831157       1.648515440496
        11    1       12.822440915516       2.019010831157       0.824257720248
        12    1        9.325411574921       0.000000000000       0.824257720248
        13    1       17.485146702976       2.019010831157       0.000000000000
        14    1       18.650823149842       0.000000000000       1.648515440496
        15    1       13.988117362381       0.000000000000       0.000000000000
        16    1       15.153793809246       2.019010831157       1.648515440496
        17    1       19.816499596707       2.019010831157       0.824257720248
        18    1       16.319470256111       0.000000000000       0.824257720248
        19    1       24.479205384167       2.019010831157       0.000000000000
        20    1       25.644881831032       0.000000000000       1.648515440496
        21    1       20.982176043572       0.000000000000       0.000000000000
        22    1       22.147852490437       2.019010831157       1.648515440496
        23    1       26.810558277897       2.019010831157       0.824257720248
        24    1       23.313528937302       0.000000000000       0.824257720248
        25    1       31.473264065358       2.019010831157       0.000000000000
        26    1       32.638940512223       0.000000000000       1.648515440496
        27    1       27.976234724762       0.000000000000       0.000000000000
        28    1       29.141911171627       2.019010831157       1.648515440496
        29    1       33.804616959088       2.019010831157       0.824257720248
        30    1       30.307587618493       0.000000000000       0.824257720248
        31    1       38.467322746548       2.019010831157       0.000000000000
        32    1       39.632999193413       0.000000000000       1.648515440496
        33    1       34.970293405953       0.000000000000       0.000000000000
        34    1       36.135969852818       2.019010831157       1.648515440496
        35    1       40.798675640278       2.019010831157       0.824257720248
        36    1       37.301646299683       0.000000000000       0.824257720248
        37    1       45.461381427739       2.019010831157       0.000000000000
        38    1       46.627057874604       0.000000000000       1.648515440496
        39    1       41.964352087144       0.000000000000       0.000000000000
        40    1       43.130028534009       2.019010831157       1.648515440496
        41    1       47.792734321469       2.019010831157       0.824257720248
        42    1       44.295704980874       0.000000000000       0.824257720248
        43    1       52.455440108929       2.019010831157       0.000000000000
        44    1       53.621116555795       0.000000000000       1.648515440496
        45    1       48.958410768334       0.000000000000       0.000000000000
        46    1       50.124087215199       2.019010831157       1.648515440496
        47    1       54.786793002660       2.019010831157       0.824257720248
        48    1       51.289763662064       0.000000000000       0.824257720248
        49    1       59.449498790120       2.019010831157       0.000000000000
        50    1       60.615175236985       0.000000000000       1.648515440496
        51    1       55.952469449525       0.000000000000       0.000000000000
        52    1       57.118145896390       2.019010831157       1.648515440496
        53    1       61.780851683850       2.019010831157       0.824257720248
        54    1       58.283822343255       0.000000000000       0.824257720248
        55    1       66.443557471311       2.019010831157       0.000000000000
        56    1       67.609233918176       0.000000000000       1.648515440496
        57    1       62.946528130715       0.000000000000       0.000000000000
        58    1       64.112204577580       2.019010831157       1.648515440496
        59    1       68.774910365041       2.019010831157       0.824257720248
        60    1       65.277881024446       0.000000000000       0.824257720248
        61    1       73.437616152501       2.019010831157       0.000000000000
        62    1       74.603292599366       0.000000000000       1.648515440496
        63    1       69.940586811906       0.000000000000       0.000000000000
        64    1       71.106263258771       2.019010831157       1.648515440496
        65    1       75.768969046231       2.019010831157       0.824257720248
        66    1       72.271939705636       0.000000000000       0.824257720248
        67    1       80.431674833692       2.019010831157       0.000000000000
        68    1       81.597351280557       0.000000000000       1.648515440496
        69    1       76.934645493097       0.000000000000       0.000000000000
        70    1       78.100321939962       2.019010831157       1.648515440496
        71    1       82.763027727422       2.019010831157       0.824257720248
        72    1       79.265998386827       0.000000000000       0.824257720248
        73    1       87.425733514882       2.019010831157       0.000000000000
        74    1       88.591409961748       0.000000000000       1.648515440496
        75    1       83.928704174287       0.000000000000       0.000000000000
        76    1       85.094380621152       2.019010831157       1.648515440496
        77    1       89.757086408613       2.019010831157       0.824257720248
        78    1       86.260057068017       0.000000000000       0.824257720248
        79    1       94.419792196073       2.019010831157       0.000000000000
        80    1       95.585468642938       0.000000000000       1.648515440496
        81    1       90.922762855478       0.000000000000       0.000000000000
        82    1       92.088439302343       2.019010831157       1.648515440496
        83    1       96.751145089803       2.019010831157       0.824257720248
        84    1       93.254115749208       0.000000000000       0.824257720248
        85    1      101.413850877264       2.019010831157       0.000000000000
        86    1      102.579527324129       0.000000000000       1.648515440496
        87    1       97.916821536668       0.000000000000       0.000000000000
        88    1       99.082497983533       2.019010831157       1.648515440496
        89    1      103.745203770994       2.019010831157       0.824257720248
        90    1      100.248174430399       0.000000000000       0.824257720248
        91    1      108.407909558454       2.019010831157       0.000000000000
        92    1      109.573586005319       0.000000000000       1.648515440496
        93    1      104.910880217859       0.000000000000       0.000000000000
        94    1      106.076556664724       2.019010831157       1.648515440496
        95    1      110.739262452184       2.019010831157       0.824257720248
        96    1      107.242233111589       0.000000000000       0.824257720248
        97    1      115.401968239645       2.019010831157       0.000000000000
        98    1      116.567644686510       0.000000000000       1.648515440496
        99    1      111.904938899050       0.000000000000       0.000000000000
       100    1      113.070615345915       2.019010831157       1.648515440496
       101    1      117.733321133375       2.019010831157       0.824257720248
       102    1      114.236291792780       0.000000000000       0.824257720248
       103    1      122.396026920835       2.019010831157       0.000000000000
       104    1      123.561703367701       0.000000000000       1.648515440496
       105    1      118.898997580240       0.000000000000       0.000000000000
       106    1      120.064674027105       2.019010831157       1.648515440496
       107    1      124.727379814566       2.019010831157       0.824257720248
       108    1      121.230350473970       0.000000000000       0.824257720248
       109    1      129.390085602026       2.019010831157       0.000000000000
       110    1      130.555762048891       0.000000000000       1.648515440496
       111    1      125.893056261431       0.000000000000       0.000000000000
       112    1      127.058732708296       2.019010831157       1.648515440496
       113    1      131.721438495756       2.019010831157       0.824257720248
       114    1      128.224409155161       0.000000000000       0.824257720248
       115    1      136.384144283217       2.019010831157       0.000000000000
       116    1      137.549820730082       0.000000000000       1.648515440496
       117    1      132.887114942621       0.000000000000       0.000000000000
       118    1      134.052791389486       2.019010831157       1.648515440496
       119    1      138.715497176947       2.019010831157       0.824257720248
       120    1      135.218467836351       0.000000000000       0.824257720248
       121    1      143.378202964407       2.019010831157       0.000000000000
       122    1      144.543879411272       0.000000000000       1.648515440496
       123    1      139.881173623812       0.000000000000       0.000000000000
       124    1      141.046850070677       2.019010831157       1.648515440496
       125    1      145.709555858137       2.019010831157       0.824257720248
       126    1      142.212526517542       0.000000000000       0.824257720248
       127    1      150.372261645598       2.019010831157       0.000000000000
       128    1      151.537938092463       0.000000000000       1.648515440496
       129    1      146.875232305002       0.000000000000       0.000000000000
       130    1      148.040908751868       2.019010831157       1.648515440496
       131    1      152.703614539328       2.019010831157       0.824257720248
       132    1      149.206585198733       0.000000000000       0.824257720248
       133    1      157.366320326788       2.019010831157       0.000000000000
       134    1      158.531996773653       0.000000000000       1.648515440496
       135    1      153.869290986193       0.000000000000       0.000000000000
       136    1      155.034967433058       2.019010831157       1.648515440496
       137    1      159.697673220519       2.019010831157       0.824257720248
       138    1      156.200643879923       0.000000000000       0.824257720248
       139    1      164.360379007979       2.019010831157       0.000000000000
       140    1      165.526055454844       0.000000000000       1.648515440496
       141    1      160.863349667384       0.000000000000       0.000000000000
       142    1      162.029026114249       2.019010831157       1.648515440496
       143    1      166.691731901709       2.019010831157       0.824257720248
       144    1      163.194702561114       0.000000000000       0.824257720248
       145    1      171.354437689170       2.019010831157       0.000000000000
       146    1      172.520114136035       0.000000000000       1.648515440496
       147    1      167.857408348574       0.000000000000       0.000000000000
       148    1      169.023084795439       2.019010831157       1.648515440496
       149    1      173.685790582900       2.019010831157       0.824257720248
       150    1      170.188761242304       0.000000000000       0.824257720248
       151    1      178.348496370360       2.019010831157       0.000000000000
       152    1      179.514172817225       0.000000000000       1.648515440496
       153    1      174.851467029765       0.000000000000       0.000000000000
       154    1      176.017143476630       2.019010831157       1.648515440496
       155    1      180.679849264090       2.019010831157       0.824257720248
       156    1      177.182819923495       0.000000000000       0.824257720248
       157    1      185.342555051551       2.019010831157       0.000000000000
       158    1      186.508231498416       0.000000000000       1.648515440496
       159    1      181.845525710955       0.000000000000       0.000000000000
       160    1      183.011202157821       2.019010831157       1.648515440496
       161    1      187.673907945281       2.019010831157       0.824257720248
       162    1      184.176878604686       0.000000000000       0.824257720248
       163    1      192.336613732741       2.019010831157       0.000000000000
       164    1      193.502290179606       0.000000000000       1.648515440496
       165    1      188.839584392146       0.000000000000       0.000000000000
       166    1      190.005260839011       2.019010831157       1.648515440496
       167    1      194.667966626472       2.019010831157       0.824257720248
       168    1      191.170937285876       0.000000000000       0.824257720248
       169    1      199.330672413932       2.019010831157       0.000000000000
       170    1      200.496348860797       0.000000000000       1.648515440496
       171    1      195.833643073337       0.000000000000       0.000000000000
       172    1      196.999319520202       2.019010831157       1.648515440496
       173    1      201.662025307662       2.019010831157       0.824257720248
       174    1      198.164995967067       0.000000000000       0.824257720248
       175    1      206.324731095123       2.019010831157       0.000000000000
       176    1      207.490407541988       0.000000000000       1.648515440496
       177    1      202.827701754527       0.000000000000       0.000000000000
       178    1      203.993378201392       2.019010831157       1.648515440496
       179    1      208.656083988853       2.019010831157       0.824257720248
       180    1      205.159054648257       0.000000000000       0.824257720248
       181    1      213.318789776313       2.019010831157       0.000000000000
       182    1      214.484466223178       0.000000000000       1.648515440496
       183    1      209.821760435718       0.000000000000       0.000000000000
       184    1      210.987436882583       2.019010831157       1.648515440496
       185    1      215.650142670043       2.019010831157       0.824257720248
       186    1      212.153113329448       0.000000000000       0.824257720248
       187    1      220.312848457504       2.019010831157       0.000000000000
       188    1      221.478524904369       0.000000000000       1.648515440496
       189    1      216.815819116908       0.000000000000       0.000000000000
       190    1      217.981495563774       2.019010831157       1.648515440496
       191    1      222.644201351234       2.019010831157       0.824257720248
       192    1      219.147172010639       0.000000000000       0.824257720248
       193    1      227.306907138694       2.019010831157       0.000000000000
       194    1      228.472583585559       0.000000000000       1.648515440496
       195    1      223.809877798099       0.000000000000       0.000000000000
       196    1      224.975554244964       2.019010831157       1.648515440496
       197    1      229.638260032425       2.019010831157       0.824257720248
       198    1      226.141230691829       0.000000000000       0.824257720248
       199    1      234.300965819885       2.019010831157       0.000000000000
       200    1      235.466642266750       0.000000000000       1.648515440496
       201    1      230.803936479290       0.000000000000       0.000000000000
       202    1      231.969612926155       2.019010831157       1.648515440496
       203    1      236.632318713615       2.019010831157       0.824257720248
       204    1      233.135289373020       0.000000000000       0.824257720248
       205    1      241.295024501076       2.019010831157       0.000000000000
       206    1      242.460700947941       0.000000000000       1.648515440496
       207    1      237.797995160480       0.000000000000       0.000000000000
       208    1      238.963671607345       2.019010831157       1.648515440496
       209    1      243.626377394806       2.019010831157       0.824257720248
       210    1      240.129348054210       0.000000000000       0.824257720248
       211    1      248.289083182266       2.019010831157       0.000000000000
       212    1      249.454759629131       0.000000000000       1.648515440496
       213    1      244.792053841671       0.000000000000       0.000000000000
       214    1      245.957730288536       2.019010831157       1.648515440496
       215    1      250.620436075996       2.019010831157       0.824257720248
       216    1      247.123406735401       0.000000000000       0.824257720248
       217    1      255.283141863457       2.019010831157       0.000000000000
       218    1      256.448818310322       0.000000000000       1.648515440496
       219    1      251.786112522861       0.000000000000       0.000000000000
       220    1      252.951788969726       2.019010831157       1.648515440496
       221    1      257.614494757187       2.019010831157       0.824257720248
       222    1      254.117465416592       0.000000000000       0.824257720248
       223    1      262.277200544647       2.019010831157       0.000000000000
       224    1      263.442876991512       0.000000000000       1.648515440496
       225    1      258.780171204052       0.000000000000       0.000000000000
       226    1      259.945847650917       2.019010831157       1.648515440496
       227    1      264.608553438377       2.019010831157       0.824257720248
       228    1      261.111524097782       0.000000000000       0.824257720248
       229    1      269.271259225838       2.019010831157       0.000000000000
       230    1      270.436935672703       0.000000000000       1.648515440496
       231    1      265.774229885243       0.000000000000       0.000000000000
       232    1      266.939906332108       2.019010831157       1.648515440496
       233    1      271.602612119568       2.019010831157       0.824257720248
       234    1      268.105582778973       0.000000000000       0.824257720248
       235    1      276.265317907028       2.019010831157       0.000000000000
       236    1      277.430994353894       0.000000000000       1.648515440496
       237    1      272.768288566433       0.000000000000       0.000000000000
       238    1      273.933965013298       2.019010831157       1.648515440496
       239    1      278.596670800759       2.019010831157       0.824257720248
       240    1      275.099641460163       0.000000000000       0.824257720248
       241    1      283.259376588219       2.019010831157       0.000000000000
       242    1      284.425053035084       0.000000000000       1.648515440496
       243    1      279.762347247624       0.000000000000       0.000000000000
       244    1      280.928023694489       2.019010831157       1.648515440496
       245    1      285.590729481949       2.019010831157       0.824257720248
       246    1      282.093700141354       0.000000000000       0.824257720248
       247    1      290.253435269410       2.019010831157       0.000000000000
       248    1      291.419111716275       0.000000000000       1.648515440496
       249    1      286.756405928814       0.000000000000       0.000000000000
       250    1      287.922082375680       2.019010831157       1.648515440496
       251    1      292.584788163140       2.019010831157       0.824257720248
       252    1      289.087758822545       0.000000000000       0.824257720248
       253    1      297.247493950600       2.019010831157       0.000000000000
       254    1      298.413170397465       0.000000000000       1.648515440496
       255    1      293.750464610005       0.000000000000       0.000000000000
       256    1      294.916141056870       2.019010831157       1.648515440496
       257    1      299.578846844330       2.019010831157       0.824257720248
       258    1      296.081817503735       0.000000000000       0.824257720248
       259    1      304.241552631791       2.019010831157       0.000000000000
       260    1      305.407229078656       0.000000000000       1.648515440496
       261    1      300.744523291196       0.000000000000       0.000000000000
       262    1      301.910199738061       2.019010831157       1.648515440496
       263    1      306.572905525521       2.019010831157       0.824257720248
       264    1      303.075876184926       0.000000000000       0.824257720248
       265    1      311.235611312981       2.019010831157       0.000000000000
       266    1      312.401287759847       0.000000000000       1.648515440496
       267    1      307.738581972386       0.000000000000       0.000000000000
       268    1      308.904258419251       2.019010831157       1.648515440496
       269    1      313.566964206712       2.019010831157       0.824257720248
       270    1      310.069934866116       0.000000000000       0.824257720248
       271    1      318.229669994172       2.019010831157       0.000000000000
       272    1      319.395346441037       0.000000000000       1.648515440496
       273    1      314.732640653577       0.000000000000       0.000000000000
       274    1      315.898317100442       2.019010831157       1.648515440496
       275    1      320.561022887902       2.019010831157       0.824257720248
       276    1      317.063993547307       0.000000000000       0.824257720248
       277    1      325.223728675363       2.019010831157       0.000000000000
       278    1      326.389405122228       0.000000000000       1.648515440496
       279    1      321.726699334767       0.000000000000       0.000000000000
       280    1      322.892375781632       2.019010831157       1.648515440496
       281    1      327.555081569093       2.019010831157       0.824257720248
       282    1      324.058052228498       0.000000000000       0.824257720248
       283    1      332.217787356553       2.019010831157       0.000000000000
       284    1      333.383463803418       0.000000000000       1.648515440496
       285    1      328.720758015958       0.000000000000       0.000000000000
       286    1      329.886434462823       2.019010831157       1.648515440496
       287    1      334.549140250283       2.019010831157       0.824257720248
       288    1      331.052110909688       0.000000000000       0.824257720248
       289    1      339.211846037744       2.019010831157       0.000000000000
       290    1      340.377522484609       0.000000000000       1.648515440496
       291    1      335.714816697149       0.000000000000       0.000000000000
       292    1      336.880493144014       2.019010831157       1.648515440496
       293    1      341.543198931474       2.019010831157       0.824257720248
       294    1      338.046169590879       0.000000000000       0.824257720248
       295    1      346.205904718934       2.019010831157       0.000000000000
       296    1      347.371581165800       0.000000000000       1.648515440496
       297    1      342.708875378339       0.000000000000       0.000000000000
       298    1      343.874551825204       2.019010831157       1.648515440496
       299    1      348.537257612665       2.019010831157       0.824257720248
       300    1      345.040228272069       0.000000000000       0.824257720248
       301    1      353.199963400125       2.019010831157       0.000000000000
       302    1      354.365639846990       0.000000000000       1.648515440496
       303    1      349.702934059530       0.000000000000       0.000000000000
       304    1      350.868610506395       2.019010831157       1.648515440496
       305    1      355.531316293855       2.019010831157       0.824257720248
       306    1      352.034286953260       0.000000000000       0.824257720248
       307    1      360.194022081316       2.019010831157       0.000000000000
       308    1      361.359698528181       0.000000000000       1.648515440496
       309    1      356.696992740720       0.000000000000       0.000000000000
       310    1      357.862669187585       2.019010831157       1.648515440496
       311    1      362.525374975046       2.019010831157       0.824257720248
       312    1      359.028345634450       0.000000000000       0.824257720248
       313    1      367.188080762506       2.019010831157       0.000000000000
       314    1      368.353757209371       0.000000000000       1.648515440496
       315    1      363.691051421911       0.000000000000       0.000000000000
       316    1      364.856727868776       2.019010831157       1.648515440496
       317    1      369.519433656236       2.019010831157       0.824257720248
       318    1      366.022404315641       0.000000000000       0.824257720248
       319    1      374.182139443697       2.019010831157       0.000000000000
       320    1      375.347815890562       0.000000000000       1.648515440496
       321    1      370.685110103102       0.000000000000       0.000000000000
       322    1      371.850786549967       2.019010831157       1.648515440496
       323    1      376.513492337427       2.019010831157       0.824257720248
       324    1      373.016462996832       0.000000000000       0.824257720248
       325    1      381.176198124887       2.019010831157       0.000000000000
       326    1      382.341874571752       0.000000000000       1.648515440496
       327    1      377.679168784292       0.000000000000       0.000000000000
       328    1      378.844845231157       2.019010831157       1.648515440496
       329    1      383.507551018618       2.019010831157       0.824257720248
       330    1      380.010521678022       0.000000000000       0.824257720248
       331    1      388.170256806078       2.019010831157       0.000000000000
       332    1      389.335933252943       0.000000000000       1.648515440496
       333    1      384.673227465483       0.000000000000       0.000000000000
       334    1      385.838903912348       2.019010831157       1.648515440496
       335    1      390.501609699808       2.019010831157       0.824257720248
       336    1      387.004580359213       0.000000000000       0.824257720248
       337    1      395.164315487269       2.019010831157       0.000000000000
       338    1      396.329991934134       0.000000000000       1.648515440496
       339    1      391.667286146673       0.000000000000       0.000000000000
       340    1      392.832962593538       2.019010831157       1.648515440496
       341    1      397.495668380999       2.019010831157       0.824257720248
       342    1      393.998639040403       0.000000000000       0.824257720248
       343    1      402.158374168459       2.019010831157       0.000000000000
       344    1      403.324050615324       0.000000000000       1.648515440496
       345    1      398.661344827864       0.000000000000       0.000000000000
       346    1      399.827021274729       2.019010831157       1.648515440496
       347    1      404.489727062189       2.019010831157       0.824257720248
       348    1      400.992697721594       0.000000000000       0.824257720248
       349    1      409.152432849650       2.019010831157       0.000000000000
       350    1      410.318109296515       0.000000000000       1.648515440496
       351    1      405.655403509055       0.000000000000       0.000000000000
       352    1      406.821079955920       2.019010831157       1.648515440496
       353    1      411.483785743380       2.019010831157       0.824257720248
       354    1      407.986756402785       0.000000000000       0.824257720248
       355    1      416.146491530840       2.019010831157       0.000000000000
       356    1      417.312167977705       0.000000000000       1.648515440496
       357    1      412.649462190245       0.000000000000       0.000000000000
       358    1      413.815138637110       2.019010831157       1.648515440496
       359    1      418.477844424571       2.019010831157       0.824257720248
       360    1      414.980815083975       0.000000000000       0.824257720248
       361    1      423.140550212031       2.019010831157       0.000000000000
       362    1      424.306226658896       0.000000000000       1.648515440496
       363    1      419.643520871436       0.000000000000       0.000000000000
       364    1      420.809197318301       2.019010831157       1.648515440496
       365    1      425.471903105761       2.019010831157       0.824257720248
       366    1      421.974873765166       0.000000000000       0.824257720248
       367    1      430.134608893222       2.019010831157       0.000000000000
       368    1      431.300285340087       0.000000000000       1.648515440496
       369    1      426.637579552626       0.000000000000       0.000000000000
       370    1      427.803255999491       2.019010831157       1.648515440496