LAMMPS (29 Oct 2020)
OMP_NUM_THREADS environment is not set. Defaulting to 1 thread. (../comm.cpp:94)
  using 1 OpenMP thread(s) per MPI task
#---------------------------------------
#
# This script is used to calculate the thermal conuctivity of UO2 using Muller-Plathe method
# By Ziqiang Wang on 03/18/2022 on Jilin university
#
#---------------------------------------

variable     Nevery    equal   40
variable     T         equal   600

clear
OMP_NUM_THREADS environment is not set. Defaulting to 1 thread. (../comm.cpp:94)
  using 1 OpenMP thread(s) per MPI task
units          metal
boundary       p p p
atom_style     full

read_data vac_0.02_relaxed.dat
Reading data file ...
  orthogonal box = (-0.35516565 -4.2468482 -0.35447675) to (27.695166 332.32685 27.694477)
  2 by 13 by 2 MPI processor grid
  reading atoms ...
  17640 atoms
  reading velocities ...
  17640 velocities
Finding 1-2 1-3 1-4 neighbors ...
  special bond factors lj:    0.0      0.0      0.0     
  special bond factors coul:  0.0      0.0      0.0     
     0 = max # of 1-2 neighbors
     0 = max # of 1-3 neighbors
     0 = max # of 1-4 neighbors
     1 = max # of special neighbors
  special bonds CPU = 0.004 seconds
  read_data CPU = 0.080 seconds

set           type     1    charge     -1.1104
Setting atom values ...
  11760 settings made for charge
set           type     2    charge      2.2208
Setting atom values ...
  5880 settings made for charge

kspace_style    pppm   1.0e-05
pair_style      hybrid/overlay  coul/long  11.0  eam/alloy
pair_coeff      * * coul/long
pair_coeff      * * eam/alloy CeThUNpPuAmCmO.eam.alloy O Th
newton          on
neighbor        0.3 bin
neigh_modify    delay 0 check yes every 1

#The first equilation
velocity        all create $T 10001 mom yes rot yes dist gaussian
velocity        all create 600 10001 mom yes rot yes dist gaussian
fix             nvt  all  nvt  temp  $T $T  0.1
fix             nvt  all  nvt  temp  600 $T  0.1
fix             nvt  all  nvt  temp  600 600  0.1

run             100000
PPPM initialization ...
  using 12-bit tables for long-range coulomb (../kspace.cpp:328)
  G vector (1/distance) = 0.29883693
  grid = 40 240 40
  stencil order = 5
  estimated absolute RMS force accuracy = 0.00015601772
  estimated relative force accuracy = 1.0834831e-05
  using single precision MKL FFT
  3d grid and FFT values/proc = 15000 7600
Neighbor list info ...
  update every 1 steps, delay 0 steps, check yes
  max neighbors/atom: 2000, page size: 100000
  master list distance cutoff = 11.3
  ghost atom cutoff = 11.3
  binsize = 5.65, bins = 5 60 5
  2 neighbor lists, perpetual/occasional/extra = 2 0 0
  (1) pair coul/long, perpetual
      attributes: half, newton on
      pair build: half/bin/newton
      stencil: half/bin/3d/newton
      bin: standard
  (2) pair eam/alloy, perpetual, copy from (1)
      attributes: half, newton on
      pair build: copy
      stencil: none
      bin: none
Per MPI rank memory allocation (min/avg/max) = 8.142 | 8.178 | 8.198 Mbytes
Step Temp E_pair E_mol TotEng Press 
       0          600   -230565.12            0   -229197.11    96.489836 
  100000    601.66876   -230566.26            0   -229194.44    76.624578 
Loop time of 654.844 on 52 procs for 100000 steps with 17640 atoms

Performance: 13.194 ns/day, 1.819 hours/ns, 152.708 timesteps/s
99.8% CPU use with 52 MPI tasks x 1 OpenMP threads

MPI task timing breakdown:
Section |  min time  |  avg time  |  max time  |%varavg| %total
---------------------------------------------------------------
Pair    | 419.47     | 446.82     | 459.22     |  41.7 | 68.23
Bond    | 0.0060426  | 0.0097579  | 0.013048   |   1.6 |  0.00
Kspace  | 137.14     | 151.87     | 185.69     |  89.9 | 23.19
Neigh   | 25.628     | 33.506     | 37.195     |  48.0 |  5.12
Comm    | 16.75      | 18.056     | 19.446     |  16.3 |  2.76
Output  | 5.3944e-05 | 5.9508e-05 | 0.00025794 |   0.0 |  0.00
Modify  | 2.1837     | 3.1511     | 5.2168     |  56.2 |  0.48
Other   |            | 1.433      |            |       |  0.22

Nlocal:        339.231 ave         369 max         300 min
Histogram: 5 1 2 0 6 17 7 3 4 7
Nghost:        4082.71 ave        4285 max        3844 min
Histogram: 5 6 2 4 3 8 4 8 6 6
Neighs:        67633.6 ave       74641 max       51541 min
Histogram: 3 0 2 1 2 1 8 21 3 11

Total # of neighbors = 3516949
Ave neighs/atom = 199.37353
Ave special neighs/atom = 0.0000000
Neighbor list builds = 16206
Dangerous builds = 0
unfix           nvt
reset_timestep  0

# the second run
fix             1 all nve

group           oxygen type 1
11760 atoms in group oxygen
fix             2 oxygen thermal/conductivity ${Nevery} y 20
fix             2 oxygen thermal/conductivity 40 y 20

compute         ke all ke/atom
variable        temp atom c_ke/1.5
compute         layers all chunk/atom bin/1d y lower 0.05 units reduced
fix             3      all ave/chunk  2000 50 100000 layers v_temp file profile_${T}K.mp
fix             3      all ave/chunk  2000 50 100000 layers v_temp file profile_600K.mp

variable        Tdiff    equal     f_3[11][3]-f_3[1][3]
variable        deltaT   equal     v_Tdiff*1.5/0.0001292

timestep        0.001
thermo_style    custom step f_2 temp v_Tdiff v_deltaT
thermo          100000

run             1000000
PPPM initialization ...
  using 12-bit tables for long-range coulomb (../kspace.cpp:328)
  G vector (1/distance) = 0.29883693
  grid = 40 240 40
  stencil order = 5
  estimated absolute RMS force accuracy = 0.00015601772
  estimated relative force accuracy = 1.0834831e-05
  using single precision MKL FFT
  3d grid and FFT values/proc = 15000 7600
Per MPI rank memory allocation (min/avg/max) = 8.393 | 8.429 | 8.449 Mbytes
Step f_2 Temp v_Tdiff v_deltaT 
       0            0    601.66876            0            0 
  100000    840.32993    599.06322  0.022294124    258.83271 
  200000    1661.7989    601.31806  0.024852755    288.53817 
  300000    2481.1689    598.26843  0.024843975    288.43625 
  400000    3310.4741    603.65203   0.02452374    284.71834 
  500000    4136.8537    599.92781  0.024201478    280.97691 
  600000    4962.8383    600.74761  0.023764459    275.90317 
  700000    5796.6774    606.46344   0.02425946    281.65008 
  800000    6626.2628    606.74552   0.02471687    286.96056 
  900000    7451.5814    601.98181  0.024471614    284.11317 
 1000000    8280.3631    602.34108  0.023933301    277.86341 
Loop time of 6546.92 on 52 procs for 1000000 steps with 17640 atoms

Performance: 13.197 ns/day, 1.819 hours/ns, 152.744 timesteps/s
99.9% CPU use with 52 MPI tasks x 1 OpenMP threads

MPI task timing breakdown:
Section |  min time  |  avg time  |  max time  |%varavg| %total
---------------------------------------------------------------
Pair    | 4174.1     | 4444.7     | 4596.6     | 130.1 | 67.89
Bond    | 0.064501   | 0.095744   | 0.15201    |   5.2 |  0.00
Kspace  | 1362.6     | 1536.4     | 1877.5     | 277.1 | 23.47
Neigh   | 265.44     | 348.07     | 386.86     | 154.5 |  5.32
Comm    | 167.07     | 182.84     | 197.53     |  57.9 |  2.79
Output  | 0.0011309  | 0.0012038  | 0.0022822  |   0.4 |  0.00
Modify  | 5.6371     | 6.2087     | 6.7274     |  10.1 |  0.09
Other   |            | 28.6       |            |       |  0.44

Nlocal:        339.231 ave         364 max         294 min
Histogram: 1 3 3 1 0 7 16 8 4 9
Nghost:        4080.04 ave        4264 max        3777 min
Histogram: 4 0 6 6 0 4 0 17 8 7
Neighs:        67622.2 ave       73735 max       50791 min
Histogram: 3 1 0 1 2 1 5 19 9 11

Total # of neighbors = 3516355
Ave neighs/atom = 199.33985
Ave special neighs/atom = 0.0000000
Neighbor list builds = 167912
Dangerous builds = 0

Total wall time: 2:00:02
