ITEM: TIMESTEP
80000
ITEM: NUMBER OF ATOMS
17640
ITEM: BOX BOUNDS pp pp pp
-3.1726329275140414e-01 2.7657263292752237e+01
-3.8251722469302814e+00 3.3190517224693303e+02
-3.1584313722871682e-01 2.7655843137229024e+01
ITEM: ATOMS id type q x y z
1 2 2.2208 5.29949 1.75462 5.33554
2 1 -1.1104 1.05432 -2.42233 1.07503
3 1 -1.1104 1.40638 3.07988 1.01861
6 1 -1.1104 1.13073 -2.56459 3.89748
7 1 -1.1104 1.15672 3.10196 3.84174
10 1 -1.1104 1.31642 0.274035 1.11313
12 2 2.2208 5.32556 -1.0409 2.49271
13 2 2.2208 5.40134 4.4528 2.42972
14 1 -1.1104 1.12803 0.298344 3.90298
16 1 -1.1104 3.90739 -2.42575 1.05312
17 1 -1.1104 4.07705 3.16789 1.11713
18 2 2.2208 2.63336 1.65753 2.46989
19 1 -1.1104 3.94905 -2.35729 3.82991
20 1 -1.1104 3.97814 3.14634 3.89574
21 2 2.2208 2.57798 -1.01125 5.24017
22 2 2.2208 2.5731 4.51717 5.28539
23 1 -1.1104 3.98687 0.314522 1.00927
24 1 -1.1104 3.92855 0.32804 3.80755
365 2 2.2208 2.55466 -1.04898 -0.324004
8 1 -1.1104 6.79389 -2.42899 3.78718
8993 2 2.2208 5.31739 -3.88456 5.33091
8994 2 2.2208 -0.242109 -3.91974 5.26883
364 2 2.2208 5.37603 1.76728 -0.349574
4 1 -1.1104 6.66902 -2.42034 1.05646
5 1 -1.1104 6.80494 3.13164 0.887015
9 1 -1.1104 6.65975 3.10768 3.82139
11 1 -1.1104 6.73864 0.382793 1.04532
15 1 -1.1104 6.74867 0.413395 3.90455
8992 2 2.2208 2.50442 -3.85259 2.45668
167 1 -1.1104 1.23908 3.08508 6.66537
168 1 -1.1104 6.68787 -2.39956 6.66475
31 2 2.2208 11.005 1.70938 5.23512
32 1 -1.1104 12.2799 -2.47903 1.12139
33 1 -1.1104 12.428 3.12804 1.24405
34 1 -1.1104 12.3831 -2.46375 3.86584
35 1 -1.1104 12.3745 3.18485 3.86215
36 1 -1.1104 12.5148 0.391348 1.0805
37 2 2.2208 10.9214 -1.01128 2.48602
38 2 2.2208 10.9929 4.52277 2.50346
39 1 -1.1104 12.3524 0.359877 3.8417
40 1 -1.1104 9.47906 -2.41653 1.14754
41 1 -1.1104 9.65085 3.20302 1.12103
42 2 2.2208 8.16832 1.81975 2.47024
43 1 -1.1104 9.56597 -2.37977 3.9655
44 1 -1.1104 9.51209 3.2487 3.82303
45 2 2.2208 8.18451 -1.00931 5.29144
46 2 2.2208 8.17435 4.5221 5.3359
47 1 -1.1104 9.61695 0.372591 1.12781
48 1 -1.1104 9.50122 0.471142 3.94635
8995 2 2.2208 8.10529 -3.80036 2.55201
8996 2 2.2208 10.9868 -3.88704 5.38757
210 1 -1.1104 9.66906 0.366881 6.645
171 1 -1.1104 6.76598 0.446706 6.59877
207 1 -1.1104 12.3056 0.319184 6.60726
50 2 2.2208 13.7576 -1.06077 5.22913
49 2 2.2208 13.9151 1.77942 2.49274
233 2 2.2208 13.7433 4.55288 5.29503
369 2 2.2208 10.9919 1.77417 -0.236404
54 2 2.2208 5.37277 7.2422 5.32356
55 2 2.2208 5.38205 12.9235 5.25764
56 1 -1.1104 1.27703 8.72554 1.01382
58 1 -1.1104 1.31691 8.69331 3.85739
60 1 -1.1104 1.1348 5.88003 1.06779
61 1 -1.1104 1.08318 11.4997 1.15098
66 2 2.2208 5.43458 10.1622 2.50266
67 1 -1.1104 1.23056 5.91247 3.92994
68 1 -1.1104 1.24581 11.4578 3.90159
71 1 -1.1104 3.96276 8.71365 1.21588
72 2 2.2208 2.62128 7.26226 2.53221
73 2 2.2208 2.53639 12.8203 2.51167
74 1 -1.1104 4.12237 8.76589 3.93527
75 2 2.2208 2.57989 10.0684 5.23237
76 1 -1.1104 4.05693 5.91504 1.13434
77 1 -1.1104 3.95271 11.5434 1.03226
79 1 -1.1104 3.93497 5.88825 3.91913
80 1 -1.1104 4.04333 11.528 3.93643
379 2 2.2208 5.33885 7.37315 -0.296838
62 1 -1.1104 1.21297 11.4735 6.60657
78 1 -1.1104 4.02252 11.5675 6.655
239 1 -1.1104 3.94821 5.92639 6.74397
81 2 2.2208 -0.243194 7.23198 5.29915
59 1 -1.1104 6.8922 8.70323 3.93425
63 1 -1.1104 6.77566 6.02465 1.09022
64 1 -1.1104 6.68567 11.4755 1.04412
69 1 -1.1104 6.85053 5.8698 3.95201
57 1 -1.1104 6.88195 8.77853 1.07826
70 1 -1.1104 6.78002 11.5713 3.84675
382 2 2.2208 -0.253459 12.923 -0.247761
381 2 2.2208 5.32864 12.952 -0.373773
84 2 2.2208 10.9219 7.34826 5.36884
85 2 2.2208 10.9906 12.9422 5.28749
86 1 -1.1104 12.4214 8.67993 1.10501
87 1 -1.1104 12.3483 8.81327 3.8754
88 1 -1.1104 12.3634 5.90103 1.05063
89 1 -1.1104 12.3411 11.5677 1.12866
91 2 2.2208 10.9914 10.1334 2.5786
92 1 -1.1104 12.3531 5.93277 3.86362
93 1 -1.1104 12.4367 11.488 4.01363
94 1 -1.1104 9.67819 8.67511 1.13622
95 2 2.2208 8.15939 7.38433 2.56312
96 2 2.2208 8.19396 12.8868 2.48168
97 1 -1.1104 9.66561 8.76249 3.92145
98 2 2.2208 8.15671 10.1738 5.23017
99 1 -1.1104 9.59514 5.96304 1.09814
100 1 -1.1104 9.58724 11.509 1.13376
102 1 -1.1104 9.58262 5.97445 3.8661
103 1 -1.1104 9.45152 11.4845 3.82571
101 1 -1.1104 9.59636 11.5866 6.63231
267 1 -1.1104 9.60199 8.8038 6.71636
265 1 -1.1104 12.3625 8.68414 6.66723
269 1 -1.1104 9.45577 5.92251 6.73592
90 1 -1.1104 12.3954 11.5094 6.67101
232 2 2.2208 13.7897 10.0717 5.28405
105 2 2.2208 13.716 7.2286 2.47401
104 2 2.2208 13.7423 12.9477 2.51666
384 2 2.2208 11.0366 7.33012 -0.388551
106 2 2.2208 5.33254 18.5501 5.27677
107 1 -1.1104 1.16135 14.3137 1.06183
109 1 -1.1104 1.07051 19.9167 1.07818
113 1 -1.1104 1.16396 14.3125 3.88993
114 1 -1.1104 1.14576 19.8595 3.928
116 1 -1.1104 1.21764 17.1887 1.05248
119 2 2.2208 5.302 15.6884 2.4621
120 2 2.2208 5.42804 21.2869 2.44681
121 1 -1.1104 1.14469 17.1671 3.9208
123 1 -1.1104 3.84995 14.2917 1.03169
125 1 -1.1104 3.89653 20.0141 1.10703
127 2 2.2208 2.50306 18.5538 2.51157
128 1 -1.1104 3.82571 14.2608 3.82152
129 1 -1.1104 4.01064 19.8746 3.82154
130 2 2.2208 2.56384 15.7089 5.25832
131 2 2.2208 2.56968 21.3443 5.26582
132 1 -1.1104 3.91165 17.1795 1.07317
134 1 -1.1104 4.00197 17.0744 3.86923
302 1 -1.1104 1.23279 19.9166 6.74433
126 1 -1.1104 3.98421 19.9381 6.63067
133 1 -1.1104 3.90187 17.098 6.65735
374 2 2.2208 5.34481 18.4833 -0.327213
110 1 -1.1104 6.68615 14.3093 1.01528
122 1 -1.1104 6.74654 17.1586 3.82591
115 1 -1.1104 6.71356 14.3391 3.88411
138 1 -1.1104 6.72552 19.9587 1.01265
139 1 -1.1104 6.80347 19.9575 3.91075
140 1 -1.1104 6.66605 17.1478 1.07107
111 1 -1.1104 6.75087 14.2993 6.71932
117 1 -1.1104 1.08845 17.0945 6.64045
118 1 -1.1104 6.7416 16.996 6.7071
373 2 2.2208 2.50481 15.763 -0.426091
375 2 2.2208 2.54657 21.2558 -0.300902
143 1 -1.1104 12.4104 14.3191 6.71205
156 1 -1.1104 9.60887 19.9036 6.67206
141 2 2.2208 10.9745 18.5262 5.19335
142 1 -1.1104 12.3443 14.3829 1.05132
144 1 -1.1104 12.2286 19.9707 1.11085
146 1 -1.1104 12.2886 14.3018 3.91492
147 1 -1.1104 12.387 19.8967 3.90542
148 1 -1.1104 12.2985 17.1403 1.02407
150 2 2.2208 10.9156 15.7868 2.47685
151 2 2.2208 11.01 21.3034 2.50572
152 1 -1.1104 12.3549 17.1263 3.87833
153 1 -1.1104 9.59551 14.3056 1.09636
155 1 -1.1104 9.52679 19.8811 1.02652
157 2 2.2208 8.15802 18.4969 2.33567
158 1 -1.1104 9.50804 14.3253 3.86304
159 1 -1.1104 9.61924 19.9361 3.8324
160 2 2.2208 8.08919 15.7074 5.25482
161 2 2.2208 8.17873 21.2994 5.20168
162 1 -1.1104 9.46057 17.0393 0.977391
164 1 -1.1104 9.48508 17.1477 3.72239
149 1 -1.1104 12.404 17.0749 6.63296
347 2 2.2208 8.10813 15.6749 -0.340581
344 2 2.2208 13.7522 15.7713 -0.369173
163 1 -1.1104 9.56767 17.1908 6.62206
204 2 2.2208 13.8145 15.7487 5.27372
231 2 2.2208 13.7281 21.297 5.23486
165 2 2.2208 13.7893 18.5244 2.45281
349 2 2.2208 8.08298 21.4026 -0.307309
170 1 -1.1104 1.20677 0.246734 6.6338
172 1 -1.1104 3.90955 -2.50911 6.53353
173 1 -1.1104 3.93207 3.15225 6.8006
174 1 -1.1104 3.99223 0.288731 6.65972
8999 2 2.2208 5.32843 -3.85265 10.8922
169 1 -1.1104 6.72072 3.1951 6.75032
166 1 -1.1104 1.2201 -2.49071 6.60077
175 2 2.2208 5.42042 1.6291 10.8061
176 1 -1.1104 1.08226 -2.41237 12.2715
177 1 -1.1104 1.20391 3.13134 12.2063
180 1 -1.1104 1.16035 -2.4247 9.45462
181 1 -1.1104 1.15512 3.21567 9.43285
184 1 -1.1104 1.21198 0.354782 12.2283
186 2 2.2208 5.38077 -1.06638 8.05868
187 2 2.2208 5.40152 4.53731 8.11547
188 1 -1.1104 1.19208 0.415082 9.4053
190 1 -1.1104 3.9258 -2.42166 12.2386
191 1 -1.1104 4.08631 2.98802 12.2392
192 2 2.2208 2.59294 1.68565 8.05208
193 1 -1.1104 4.0226 -2.47377 9.43751
194 1 -1.1104 4.00337 3.05584 9.4821
195 2 2.2208 2.56268 -1.05776 10.9075
196 2 2.2208 2.49663 4.49977 10.8795
197 1 -1.1104 4.03868 0.32877 12.2365
198 1 -1.1104 3.94146 0.276869 9.44984
182 1 -1.1104 6.7916 -2.53082 9.47791
334 2 2.2208 -0.265895 -1.03308 13.6073
178 1 -1.1104 6.74689 -2.45431 12.2162
183 1 -1.1104 6.81807 3.1294 9.4506
179 1 -1.1104 6.81014 3.20534 12.1355
185 1 -1.1104 6.87067 0.33836 12.1541
339 2 2.2208 2.52374 1.71728 13.596
9019 2 2.2208 2.53282 -3.90172 13.6887
206 1 -1.1104 12.3673 3.1099 6.62788
189 1 -1.1104 6.70151 0.317635 9.33778
9003 2 2.2208 13.7749 -3.95682 8.04528
9001 2 2.2208 8.23527 -3.85044 8.01791
208 1 -1.1104 9.57475 -2.40504 6.70048
205 1 -1.1104 12.2759 -2.42766 6.72687
203 2 2.2208 13.7973 4.47436 10.9523
9002 2 2.2208 10.8782 -3.88056 10.8622
209 1 -1.1104 9.5334 3.12016 6.69319
211 2 2.2208 11.0208 1.69455 10.8077
212 1 -1.1104 12.3414 -2.56818 12.3084
213 1 -1.1104 12.374 3.02254 12.3877
214 1 -1.1104 12.3594 -2.51363 9.43376
215 1 -1.1104 12.4119 3.19421 9.49182
216 1 -1.1104 12.3216 0.248558 12.2556
217 2 2.2208 10.9232 -1.06686 8.09322
218 2 2.2208 10.924 4.52037 8.04958
219 1 -1.1104 12.4941 0.277407 9.50935
220 1 -1.1104 9.50367 -2.47247 12.3371
221 1 -1.1104 9.59767 3.05023 12.2297
222 2 2.2208 8.18744 1.7424 7.97889
223 1 -1.1104 9.49046 -2.49373 9.47313
224 1 -1.1104 9.59624 3.22048 9.37697
225 2 2.2208 8.16263 -1.10059 10.8294
226 2 2.2208 8.19019 4.54403 10.8208
227 1 -1.1104 9.63745 0.261435 12.1913
228 1 -1.1104 9.55826 0.313099 9.37346
350 2 2.2208 10.9795 4.51885 13.6301
229 2 2.2208 13.8604 1.66908 8.05313
340 2 2.2208 13.7287 1.57093 13.7033
238 1 -1.1104 4.02415 8.75769 6.60308
234 1 -1.1104 1.16128 8.66574 6.67074
65 1 -1.1104 6.77057 11.5535 6.6216
236 1 -1.1104 1.03132 5.91788 6.60634
240 2 2.2208 5.30956 7.32604 10.8451
241 2 2.2208 5.28306 12.9669 10.8291
242 1 -1.1104 1.19516 8.80326 12.1573
244 1 -1.1104 1.11138 8.84524 9.33777
246 1 -1.1104 0.97456 5.97011 12.1587
247 1 -1.1104 1.10536 11.595 12.1492
250 2 2.2208 5.35502 10.2406 8.04393
251 1 -1.1104 1.15124 5.97135 9.43531
252 1 -1.1104 1.1742 11.6109 9.43052
255 1 -1.1104 3.97518 8.73588 12.3554
256 2 2.2208 2.58071 7.35366 8.05031
257 2 2.2208 2.51474 12.9306 8.06166
258 1 -1.1104 4.00094 8.7165 9.46736
259 2 2.2208 2.5743 10.2404 10.8243
260 1 -1.1104 3.84963 5.90423 12.3357
261 1 -1.1104 3.81227 11.5603 12.3549
262 1 -1.1104 3.94855 5.96022 9.49273
263 1 -1.1104 3.92219 11.5508 9.45488
352 2 2.2208 5.37736 10.0955 13.6565
351 2 2.2208 2.49668 7.32845 13.7195
249 1 -1.1104 6.60111 11.4936 12.212
235 1 -1.1104 6.74979 8.86137 6.70795
245 1 -1.1104 6.77182 8.82032 9.48599
248 1 -1.1104 6.70296 5.88106 12.2336
253 1 -1.1104 6.8249 5.98883 9.49796
254 1 -1.1104 6.7287 11.5789 9.41284
237 1 -1.1104 6.69336 5.96719 6.72304
266 1 -1.1104 12.3182 5.97678 6.59371
376 2 2.2208 13.6793 13.0232 13.6621
336 2 2.2208 13.7696 7.2704 13.6918
53 2 2.2208 13.7514 12.8495 8.14931
52 2 2.2208 13.6462 10.1068 10.9502
202 2 2.2208 13.638 7.38909 8.12443
243 1 -1.1104 6.76036 8.66501 12.1998
264 1 -1.1104 9.56826 11.5273 9.45161
268 1 -1.1104 9.56114 6.02517 9.46472
270 1 -1.1104 9.54495 11.4935 12.2291
271 1 -1.1104 9.6145 5.97694 12.3249
272 2 2.2208 8.20253 10.1137 10.8102
273 1 -1.1104 9.60551 8.84729 9.45533
274 2 2.2208 8.13123 12.8947 8.09484
275 2 2.2208 8.11634 7.43065 8.12497
276 2 2.2208 10.876 7.35767 10.9271
277 2 2.2208 10.9197 13.0366 10.9405
278 1 -1.1104 12.2395 8.73648 12.3154
279 1 -1.1104 12.333 8.67646 9.5284
280 1 -1.1104 12.3883 6.0142 12.1755
281 1 -1.1104 12.2931 11.588 12.3628
282 2 2.2208 10.9766 10.1749 8.01006
283 1 -1.1104 12.3178 5.91693 9.40381
284 1 -1.1104 12.395 11.4563 9.56515
285 1 -1.1104 9.49761 8.63119 12.4058
355 2 2.2208 10.9385 10.088 13.6715
356 2 2.2208 8.12411 12.9173 13.7001
354 2 2.2208 8.1555 7.25528 13.7336
290 1 -1.1104 6.7196 14.2372 9.51632
296 1 -1.1104 6.78751 19.9187 12.2681
306 1 -1.1104 6.77891 17.0772 12.3175
108 1 -1.1104 1.2304 14.379 6.67117
124 1 -1.1104 3.98601 14.3175 6.63342
112 1 -1.1104 6.77003 19.8551 6.64377
288 1 -1.1104 6.79579 19.928 9.48056
289 1 -1.1104 6.73965 17.0987 9.49409
310 2 2.2208 2.53315 15.6889 10.8793
308 1 -1.1104 3.98629 17.0299 12.2094
309 2 2.2208 2.61294 21.2944 10.9555
307 1 -1.1104 1.15549 17.1971 12.2948
305 1 -1.1104 3.92926 14.372 9.39625
304 1 -1.1104 3.91473 17.2145 9.43757
286 1 -1.1104 3.91038 19.8883 12.4014
287 1 -1.1104 3.9229 14.2745 12.2575
291 1 -1.1104 1.18682 19.9232 9.50166
292 1 -1.1104 1.15129 17.1368 9.41709
293 2 2.2208 5.31721 21.2244 8.02875
294 1 -1.1104 1.2477 14.3503 9.48026
295 2 2.2208 5.28084 15.6787 8.04505
298 1 -1.1104 1.18917 19.9953 12.2856
299 1 -1.1104 1.20178 14.3344 12.287
300 2 2.2208 5.3298 18.541 10.8541
301 1 -1.1104 4.04498 20.0048 9.52018
303 2 2.2208 2.46595 18.5439 8.05737
358 2 2.2208 5.38597 21.3465 13.6918
357 2 2.2208 2.54168 18.4558 13.6583
322 1 -1.1104 9.55093 14.2868 12.2698
321 1 -1.1104 9.63003 19.8734 12.213
320 2 2.2208 8.11127 18.4456 8.06358
319 1 -1.1104 9.58241 14.3651 9.55616
318 1 -1.1104 9.56353 19.9886 9.33752
317 2 2.2208 8.10856 15.6978 10.8432
145 1 -1.1104 12.4316 19.8657 6.61923
333 2 2.2208 13.6832 15.7998 10.8601
316 2 2.2208 8.17625 21.3775 10.7869
315 1 -1.1104 9.65023 17.0574 12.2777
331 2 2.2208 10.9262 18.4847 10.7851
314 1 -1.1104 9.43257 17.0593 9.39673
297 1 -1.1104 6.76539 14.2087 12.3291
330 1 -1.1104 12.3717 14.4457 12.355
329 1 -1.1104 12.5524 20.197 12.3017
328 1 -1.1104 12.309 14.4051 9.52224
360 2 2.2208 10.9904 21.3283 13.5883
362 2 2.2208 8.17031 18.5253 13.7003
323 1 -1.1104 12.284 17.2277 9.43734
324 2 2.2208 10.9508 21.2311 8.00278
325 2 2.2208 10.917 15.7188 8.01848
154 1 -1.1104 9.47917 14.2933 6.68973
326 1 -1.1104 12.4686 17.3174 12.3181
327 1 -1.1104 12.3602 19.8622 9.52633
361 2 2.2208 10.9901 15.7467 13.6883
363 2 2.2208 13.8273 18.5862 13.6683
388 2 2.2208 5.38319 1.71947 16.3686
389 1 -1.1104 1.30688 -2.35211 17.7915
390 1 -1.1104 1.18989 3.18416 17.7472
393 1 -1.1104 1.21785 -2.48833 14.9949
395 1 -1.1104 1.16723 3.19426 14.9496
401 1 -1.1104 1.16269 0.429286 17.8375
403 2 2.2208 5.39356 -1.0238 19.2462
404 2 2.2208 5.33548 4.56798 19.2156
405 1 -1.1104 1.18715 0.436072 15.0546
409 1 -1.1104 4.02401 -2.49228 17.7947
410 1 -1.1104 4.07551 3.17123 17.7279
411 2 2.2208 2.67384 1.84711 19.1778
412 1 -1.1104 3.95412 -2.42834 15.0312
414 1 -1.1104 3.96087 3.17621 15.0457
416 2 2.2208 2.59224 -1.08936 16.4414
417 2 2.2208 2.63318 4.58582 16.4359
418 1 -1.1104 3.93975 0.406696 17.8002
419 1 -1.1104 4.02419 0.299462 15.0339
413 1 -1.1104 3.89505 -2.29251 20.6072
424 2 2.2208 -0.198419 1.82114 16.4941
427 2 2.2208 -0.179971 4.50886 19.1931
402 1 -1.1104 6.75161 0.224716 17.8589
391 1 -1.1104 6.85029 -2.52437 17.72
399 1 -1.1104 6.74777 3.08297 15.0472
407 1 -1.1104 6.79469 0.366797 14.9775
9157 2 2.2208 2.55201 -3.84956 19.2321
415 1 -1.1104 4.04851 3.1942 20.5417
408 1 -1.1104 6.85141 0.319699 20.6988
341 2 2.2208 5.38358 4.51291 13.6252
338 2 2.2208 5.40134 -1.04317 13.6377
9014 2 2.2208 13.7733 -3.83977 13.7671
392 1 -1.1104 6.76975 3.08101 17.8553
397 1 -1.1104 6.82788 -2.33155 14.9926
431 2 2.2208 10.9214 1.7794 16.4356
432 1 -1.1104 12.4405 -2.47595 17.9506
433 1 -1.1104 12.3396 3.20598 17.9488
434 1 -1.1104 12.2874 -2.52823 15.1445
436 1 -1.1104 12.2904 3.11132 15.0863
438 1 -1.1104 12.3702 0.351149 17.8498
439 2 2.2208 10.9789 -1.00028 19.3327
440 2 2.2208 10.8803 4.56793 19.2301
441 1 -1.1104 12.3989 0.283144 15.1315
443 1 -1.1104 9.67911 -2.44299 17.8369
444 1 -1.1104 9.45521 3.11207 17.7626
445 2 2.2208 8.2082 1.69458 19.2723
446 1 -1.1104 9.56804 -2.52473 15.1401
448 1 -1.1104 9.40578 3.16136 15.0168
450 2 2.2208 8.26957 -1.0051 16.4012
451 2 2.2208 8.13508 4.53629 16.4677
452 1 -1.1104 9.60393 0.30449 17.8097
453 1 -1.1104 9.57055 0.321433 15.0036
454 1 -1.1104 9.65744 0.416366 20.6331
9128 2 2.2208 10.9459 -3.81974 16.4655
346 2 2.2208 10.9331 -1.13803 13.7268
447 1 -1.1104 9.48934 -2.41054 20.658
437 1 -1.1104 12.2816 3.10493 20.6315
449 1 -1.1104 9.53679 3.17206 20.5677
442 1 -1.1104 12.4802 0.356936 20.5823
429 2 2.2208 13.752 4.51409 16.4784
343 2 2.2208 8.20181 1.72208 13.5476
464 2 2.2208 5.31837 7.33757 16.4435
465 2 2.2208 5.29702 12.8656 16.4731
466 1 -1.1104 1.14036 8.73537 17.7175
468 1 -1.1104 1.04586 8.80602 15.0351
472 1 -1.1104 1.11876 5.96107 17.8303
473 1 -1.1104 1.225 11.5578 17.7371
476 2 2.2208 5.32419 10.1513 19.3117
477 1 -1.1104 1.16694 5.9569 14.9865
479 1 -1.1104 1.12624 11.6079 14.9902
485 1 -1.1104 3.93523 8.80279 17.7799
486 2 2.2208 2.53126 7.31177 19.2673
487 2 2.2208 2.51658 12.962 19.2432
488 1 -1.1104 3.90408 8.68409 15.0669
490 2 2.2208 2.54122 10.1122 16.3859
491 1 -1.1104 3.94063 5.94367 17.9694
492 1 -1.1104 3.96542 11.5224 17.8637
493 1 -1.1104 3.97741 5.96882 15.1414
495 1 -1.1104 4.05433 11.4077 15.1024
496 1 -1.1104 3.88575 11.721 20.6548
480 1 -1.1104 1.19112 11.4169 20.7192
478 1 -1.1104 1.21166 5.9377 20.6816
467 1 -1.1104 6.76831 8.75523 17.8936
475 1 -1.1104 6.75887 11.5687 17.8372
481 1 -1.1104 6.84655 5.83761 15.0577
482 1 -1.1104 6.76176 5.98567 20.6779
353 2 2.2208 2.49746 12.9432 13.688
470 1 -1.1104 6.81883 8.71355 15.0684
474 1 -1.1104 6.67985 5.96604 17.8435
483 1 -1.1104 6.73303 11.5231 15.0082
484 1 -1.1104 6.79299 11.5825 20.6646
500 2 2.2208 10.9506 7.3127 16.4532
501 2 2.2208 10.9984 12.9512 16.4492
502 1 -1.1104 12.3071 8.68289 17.7826
503 1 -1.1104 12.338 8.64594 15.1478
505 1 -1.1104 12.3685 5.98871 17.8602
506 1 -1.1104 12.3803 11.5869 17.7329
507 2 2.2208 10.972 10.1635 19.2354
508 1 -1.1104 12.3146 5.81812 15.0803
510 1 -1.1104 12.309 11.5165 15.0098
512 1 -1.1104 9.58422 8.76004 17.9367
513 2 2.2208 8.06158 7.4541 19.3601
514 2 2.2208 8.15372 13.016 19.2317
515 1 -1.1104 9.51225 8.72429 15.0264
517 2 2.2208 8.12456 10.1233 16.51
518 1 -1.1104 9.55021 5.99413 17.7531
519 1 -1.1104 9.67878 11.616 17.8516
520 1 -1.1104 9.52686 5.98327 15.095
522 1 -1.1104 9.63419 11.5403 15.125
521 1 -1.1104 9.50839 5.94182 20.5704
523 1 -1.1104 9.52472 11.6484 20.7048
511 1 -1.1104 12.3325 11.6188 20.6053
516 1 -1.1104 9.60908 8.83388 20.7441
471 1 -1.1104 6.73129 8.83175 20.6815
509 1 -1.1104 12.3893 5.91523 20.647
457 2 2.2208 -0.273756 15.6868 19.3704
527 2 2.2208 5.32267 18.5443 16.4691
528 1 -1.1104 1.08049 14.3434 17.8704
529 1 -1.1104 1.19382 19.8679 17.8572
532 1 -1.1104 1.14917 14.4149 15.087
534 1 -1.1104 1.0634 19.9698 15.0696
540 1 -1.1104 1.07873 17.0989 17.9518
542 2 2.2208 5.33134 15.6909 19.2862
543 2 2.2208 5.42085 21.2408 19.1743
544 1 -1.1104 1.12372 17.186 15.0807
548 1 -1.1104 3.95304 14.3479 17.8621
549 1 -1.1104 4.02956 19.9273 17.8944
550 2 2.2208 2.5628 18.5293 19.2406
551 1 -1.1104 3.97085 14.218 15.0852
553 1 -1.1104 3.91675 19.8338 15.0777
555 2 2.2208 2.5124 15.7856 16.5884
556 2 2.2208 2.58843 21.3282 16.3859
557 1 -1.1104 3.92317 17.1834 17.8181
558 1 -1.1104 3.92738 17.1227 15.0663
456 2 2.2208 -0.176088 18.4758 16.4743
533 1 -1.1104 1.07933 14.359 20.6739
554 1 -1.1104 3.92421 19.9317 20.6783
559 1 -1.1104 3.96024 17.1096 20.5839
545 1 -1.1104 1.21596 17.0782 20.7634
335 2 2.2208 -0.238072 21.372 13.6309
359 2 2.2208 5.30632 15.6557 13.7107
546 1 -1.1104 6.64351 17.1201 15.0899
530 1 -1.1104 6.72947 14.3901 17.8991
531 1 -1.1104 6.84779 19.8648 17.9362
536 1 -1.1104 6.78316 14.3774 15.0656
535 1 -1.1104 1.18914 19.9133 20.6251
538 1 -1.1104 6.72328 19.9483 15.0401
541 1 -1.1104 6.76864 17.1678 17.8529
563 2 2.2208 10.9595 18.5419 16.3895
564 1 -1.1104 12.3888 14.3317 17.9271
565 1 -1.1104 12.421 19.9201 17.8896
566 1 -1.1104 12.4296 14.376 15.1613
568 1 -1.1104 12.3589 20.0874 15.0665
570 1 -1.1104 12.3252 17.1718 17.8051
571 2 2.2208 10.9776 15.704 19.1326
572 2 2.2208 10.9559 21.3968 19.2084
573 1 -1.1104 12.3557 17.2077 15.1607
575 1 -1.1104 9.60119 14.396 17.7893
576 1 -1.1104 9.6592 19.8935 17.7817
577 2 2.2208 8.14802 18.5238 19.2996
578 1 -1.1104 9.54954 14.3314 15.0204
580 1 -1.1104 9.57083 19.9346 14.9615
582 2 2.2208 8.15478 15.7698 16.393
583 2 2.2208 8.14398 21.3309 16.3864
584 1 -1.1104 9.53009 17.0845 17.8282
585 1 -1.1104 9.48787 17.215 15.0698
537 1 -1.1104 6.88726 14.3146 20.7316
460 2 2.2208 13.7761 21.2765 16.5878
618 2 2.2208 13.7049 18.5271 19.2097
619 2 2.2208 13.7681 15.7758 16.4379
574 1 -1.1104 12.2645 17.1908 20.6495
581 1 -1.1104 9.61779 19.968 20.5649
579 1 -1.1104 9.66194 14.3685 20.6942
396 1 -1.1104 1.22005 3.08485 20.5615
406 1 -1.1104 1.22856 0.297394 20.5924
398 1 -1.1104 6.7753 -2.31972 20.5718
400 1 -1.1104 6.77205 3.18999 20.6687
394 1 -1.1104 1.15707 -2.43274 20.6765
420 1 -1.1104 4.07997 0.36114 20.596
591 2 2.2208 5.42349 1.72843 22.0413
592 1 -1.1104 1.07949 -2.36064 23.5217
593 1 -1.1104 1.26743 3.20835 23.4271
596 1 -1.1104 1.1125 -2.3484 26.2618
597 1 -1.1104 1.16016 3.25076 26.2751
600 1 -1.1104 1.11125 0.379716 23.435
602 2 2.2208 5.3487 -1.15026 24.8592
603 2 2.2208 5.49831 4.62191 24.8852
604 1 -1.1104 1.17158 0.401427 26.2574
606 1 -1.1104 3.92689 -2.46751 23.4076
607 1 -1.1104 3.93473 3.25337 23.3154
608 2 2.2208 2.55916 1.69839 24.7889
609 1 -1.1104 3.95069 -2.48125 26.146
610 1 -1.1104 4.00871 3.04371 26.1953
611 2 2.2208 2.6098 -1.02188 21.9733
612 2 2.2208 2.61004 4.61132 22.1264
613 1 -1.1104 3.91675 0.388484 23.3754
614 1 -1.1104 3.92509 0.247333 26.1535
595 1 -1.1104 6.74129 3.13975 23.3797
598 1 -1.1104 6.7898 -2.38764 26.1693
605 1 -1.1104 6.70558 0.319161 26.1788
594 1 -1.1104 6.68206 -2.45359 23.3503
601 1 -1.1104 6.704 0.29811 23.4719
366 2 2.2208 2.631 4.58134 27.5881
435 1 -1.1104 12.2626 -2.41675 20.7836
599 1 -1.1104 6.78293 3.15093 26.1962
627 2 2.2208 10.9474 1.67849 22.0214
628 1 -1.1104 12.2926 -2.50887 23.4925
629 1 -1.1104 12.4051 3.18879 23.4467
630 1 -1.1104 12.371 -2.48388 26.3461
631 1 -1.1104 12.5011 3.14694 26.3114
632 1 -1.1104 12.3663 0.30477 23.4303
633 2 2.2208 10.9125 -1.04608 24.9622
634 2 2.2208 11.0147 4.5069 24.8803
635 1 -1.1104 12.3134 0.323862 26.3003
636 1 -1.1104 9.50776 -2.40423 23.5735
637 1 -1.1104 9.56965 3.09942 23.3623
638 2 2.2208 8.094 1.73083 24.8335
639 1 -1.1104 9.54967 -2.48456 26.3469
640 1 -1.1104 9.76859 3.16293 26.2103
641 2 2.2208 8.12121 -1.06417 22.0292
642 2 2.2208 8.17648 4.53216 22.0105
643 1 -1.1104 9.499 0.370659 23.4138
644 1 -1.1104 9.43508 0.296242 26.2982
372 2 2.2208 8.27546 4.58272 27.6603
654 2 2.2208 13.7796 1.79295 24.9182
653 2 2.2208 13.7476 -1.04554 22.029
9090 2 2.2208 13.7209 -3.84955 24.9429
370 2 2.2208 8.14866 -1.06544 27.6924
378 2 2.2208 13.8995 4.57789 27.7105
377 2 2.2208 13.7976 -1.11193 27.6008
489 1 -1.1104 3.92434 8.8351 20.5875
494 1 -1.1104 3.98877 6.03971 20.6416
685 2 2.2208 -0.251899 12.8752 22.0396
469 1 -1.1104 1.16468 8.68956 20.6027
656 2 2.2208 5.34308 7.33251 22.0728
657 2 2.2208 5.39858 12.9396 22.0049
658 1 -1.1104 1.28645 8.65696 23.4391
660 1 -1.1104 1.20312 8.863 26.2278
662 1 -1.1104 1.20674 5.90306 23.534
663 1 -1.1104 1.30556 11.5002 23.4459
666 2 2.2208 5.37037 10.1548 24.8169
667 1 -1.1104 1.25659 6.06358 26.3495
668 1 -1.1104 1.17915 11.5895 26.1906
671 1 -1.1104 3.91488 8.68583 23.4947
672 2 2.2208 2.54823 7.37215 24.911
673 2 2.2208 2.57928 12.9286 24.7608
674 1 -1.1104 3.99633 8.72696 26.3171
675 2 2.2208 2.49623 10.1491 22.0758
676 1 -1.1104 4.01336 5.987 23.5874
677 1 -1.1104 4.00892 11.4805 23.3218
678 1 -1.1104 4.06094 5.90992 26.3081
679 1 -1.1104 3.99159 11.5785 26.1852
661 1 -1.1104 6.71949 8.68144 26.2427
380 2 2.2208 2.63452 10.1715 27.6322
665 1 -1.1104 6.79486 11.5422 23.4655
664 1 -1.1104 6.77631 5.99592 23.2972
669 1 -1.1104 6.82963 5.93985 26.2229
504 1 -1.1104 12.3109 8.83398 20.73
708 2 2.2208 13.7357 13.0418 24.9708
670 1 -1.1104 6.74548 11.5436 26.314
659 1 -1.1104 6.80178 8.79376 23.4632
710 2 2.2208 13.7837 7.32666 24.853
687 1 -1.1104 9.4965 11.461 26.3692
688 1 -1.1104 9.6535 5.90748 26.2255
689 1 -1.1104 9.6169 11.5911 23.5289
690 1 -1.1104 9.64929 5.82377 23.3364
691 2 2.2208 8.21274 10.1412 22.1111
692 1 -1.1104 9.50766 8.69482 26.2309
693 2 2.2208 8.19518 12.9091 24.8717
694 2 2.2208 8.20176 7.27291 24.7891
695 2 2.2208 11.055 7.3598 22.0058
696 2 2.2208 11.0108 12.9355 22.0694
697 1 -1.1104 12.3776 8.74607 23.4368
698 1 -1.1104 12.305 8.78512 26.1977
699 1 -1.1104 12.4541 5.87454 23.4532
700 1 -1.1104 12.2645 11.5889 23.5106
701 2 2.2208 10.9326 10.1117 24.8798
702 1 -1.1104 12.436 5.90056 26.2217
703 1 -1.1104 12.3057 11.5536 26.3785
704 1 -1.1104 9.58902 8.64038 23.4282
386 2 2.2208 10.9765 12.9206 27.7137
385 2 2.2208 8.10426 10.1661 27.7156
552 1 -1.1104 3.9367 14.3281 20.615
714 1 -1.1104 6.8024 17.0818 26.2438
709 1 -1.1104 6.63543 14.2946 23.461
712 1 -1.1104 6.81492 14.3413 26.2297
718 1 -1.1104 6.73838 19.9804 23.368
645 2 2.2208 -0.226849 21.3874 24.8512
647 2 2.2208 2.54277 15.6454 22.008
649 2 2.2208 2.64933 21.364 22.0412
652 1 -1.1104 3.9773 17.0975 23.3485
655 1 -1.1104 1.1437 17.086 23.4791
681 1 -1.1104 4.04622 14.4141 26.1514
682 1 -1.1104 3.96341 17.1304 26.1553
683 2 2.2208 2.56558 18.5072 24.7537
686 1 -1.1104 4.05442 19.9946 26.34
705 2 2.2208 5.32708 18.5016 21.9739
706 1 -1.1104 1.04827 14.2663 23.4235
707 1 -1.1104 1.21673 19.927 23.4178
711 1 -1.1104 3.99226 19.859 23.413
713 1 -1.1104 3.85145 14.2982 23.4651
715 1 -1.1104 1.23201 19.9803 26.2073
716 1 -1.1104 1.15533 17.0957 26.2216
717 1 -1.1104 1.12155 14.2905 26.3076
719 2 2.2208 5.37639 21.3294 24.9151
720 2 2.2208 5.42502 15.7692 24.8501
539 1 -1.1104 6.75809 19.9183 20.6713
680 1 -1.1104 6.82248 17.2444 23.4895
462 2 2.2208 10.954 18.5221 22.0281
463 1 -1.1104 12.3251 14.3935 23.5239
497 1 -1.1104 12.3736 19.998 23.4142
498 1 -1.1104 12.3645 14.3085 26.3293
499 1 -1.1104 12.398 20.0014 26.202
524 1 -1.1104 12.3958 17.2227 23.4485
547 1 -1.1104 6.83158 17.1086 20.7228
569 1 -1.1104 12.4076 19.9896 20.6849
567 1 -1.1104 12.3507 14.3656 20.6886
586 1 -1.1104 9.52763 17.1326 20.6864
430 2 2.2208 13.7241 15.7499 22.086
525 2 2.2208 10.9875 15.7105 24.9349
526 2 2.2208 10.943 21.3877 24.8889
345 2 2.2208 13.7466 21.451 27.5771
455 2 2.2208 13.7421 18.5836 24.7581
560 1 -1.1104 12.3815 17.1942 26.2219
561 1 -1.1104 9.47286 14.2695 23.3832
588 1 -1.1104 6.83947 19.9151 26.1883
562 1 -1.1104 9.58649 19.9927 23.4628
587 2 2.2208 8.12542 18.5697 24.8935
589 1 -1.1104 9.55721 14.2629 26.2931
590 1 -1.1104 9.47273 19.9399 26.3055
615 2 2.2208 8.20779 15.7064 22.165
616 2 2.2208 8.11916 21.3106 22.0756
617 1 -1.1104 9.58138 17.1553 23.5355
620 1 -1.1104 9.5932 17.0753 26.294
348 2 2.2208 10.9729 18.543 27.6026
721 2 2.2208 5.33421 24.1405 5.19373
722 2 2.2208 5.35487 29.7754 5.33368
723 1 -1.1104 1.11924 25.5533 1.0759
724 1 -1.1104 1.15095 25.5716 3.89637
725 1 -1.1104 1.11409 22.7203 1.03635
726 1 -1.1104 1.17335 28.349 1.07376
727 2 2.2208 5.30661 26.9122 2.46589
728 1 -1.1104 1.18911 22.7324 3.75528
729 1 -1.1104 1.13906 28.3483 3.97872
730 1 -1.1104 3.89561 25.5751 1.04164
731 2 2.2208 2.5252 24.0919 2.43629
732 2 2.2208 2.51763 29.7891 2.5485
733 1 -1.1104 3.90263 25.5306 3.88495
734 2 2.2208 2.5684 26.9262 5.33164
735 1 -1.1104 3.87573 22.7918 1.02131
736 1 -1.1104 3.90044 28.421 1.1352
737 1 -1.1104 3.98336 22.6864 3.80532
738 1 -1.1104 3.86395 28.3451 3.91601
866 1 -1.1104 6.847 22.6018 6.60915
746 1 -1.1104 6.89892 22.7024 3.85652
863 1 -1.1104 6.68467 25.5343 6.5617
1069 2 2.2208 5.23537 24.26 -0.278156
743 1 -1.1104 6.78374 25.4783 3.68715
745 1 -1.1104 6.75417 28.3683 1.11699
747 1 -1.1104 6.71341 28.326 3.85496
862 1 -1.1104 0.99173 25.4685 6.62802
868 1 -1.1104 3.93329 25.5585 6.68633
869 1 -1.1104 4.00465 22.7734 6.55343
864 1 -1.1104 1.22391 22.6928 6.70446
865 1 -1.1104 1.19594 28.3188 6.68186
867 1 -1.1104 6.76446 28.2458 6.60904
1070 2 2.2208 2.48005 27.0203 -0.329132
742 1 -1.1104 6.73154 25.4739 0.99122
744 1 -1.1104 6.71782 22.7613 1.1626
748 2 2.2208 11.0245 24.1438 5.21308
749 2 2.2208 10.9017 29.6665 5.2637
750 1 -1.1104 12.3537 25.4187 1.11578
751 1 -1.1104 12.3097 25.6036 3.9244
752 1 -1.1104 12.2863 22.6945 1.05276
753 1 -1.1104 12.214 28.2575 1.06494
754 2 2.2208 10.9039 26.941 2.48106
755 1 -1.1104 12.4564 22.7115 3.89049
756 1 -1.1104 12.398 28.377 3.97368
757 1 -1.1104 9.59551 25.5532 1.08846
758 2 2.2208 8.23904 24.0883 2.44042
759 2 2.2208 8.08361 29.7471 2.48767
760 1 -1.1104 9.57371 25.5362 3.93763
761 2 2.2208 8.10484 26.8919 5.20871
762 1 -1.1104 9.55711 22.7139 1.11794
763 1 -1.1104 9.53881 28.3321 1.03676
764 1 -1.1104 9.66075 22.7775 3.8379
765 1 -1.1104 9.5492 28.3054 3.83613
898 1 -1.1104 9.50338 25.3593 6.62453
1076 2 2.2208 8.10999 26.9724 -0.303222
767 2 2.2208 13.7122 29.7288 2.51024
1075 2 2.2208 10.8957 24.1883 -0.34305
768 2 2.2208 13.7654 26.891 5.34199
1077 2 2.2208 13.7242 26.9756 -0.295062
769 2 2.2208 5.26668 35.379 5.27883
770 1 -1.1104 1.10262 31.0612 1.1385
771 1 -1.1104 1.09383 36.7157 1.12977
773 1 -1.1104 1.13872 31.1516 3.9655
774 1 -1.1104 0.942401 36.8224 3.89106
776 1 -1.1104 1.1421 33.8826 1.04891
777 2 2.2208 5.2876 32.5836 2.49958
778 2 2.2208 5.19553 38.147 2.48363
779 1 -1.1104 1.14823 33.862 3.85805
781 1 -1.1104 3.9038 31.254 1.12694
782 1 -1.1104 3.80937 36.625 1.0337
783 2 2.2208 2.48525 35.3382 2.50869
784 1 -1.1104 3.92685 31.2056 3.85421
785 1 -1.1104 3.79697 36.7521 3.90168
786 2 2.2208 2.46339 32.5791 5.34981
787 2 2.2208 2.58375 38.1496 5.39821
788 1 -1.1104 3.9244 34.0535 1.17823
789 1 -1.1104 3.80964 33.9906 3.97601
918 1 -1.1104 1.13378 33.9456 6.6916
919 1 -1.1104 6.56112 34.0205 6.62835
921 1 -1.1104 3.98696 36.802 6.8114
1079 2 2.2208 2.43044 38.1543 -0.308345
1081 2 2.2208 5.269 35.294 -0.304742
780 1 -1.1104 6.77058 33.8914 3.85837
775 1 -1.1104 6.60331 36.7198 3.75738
922 1 -1.1104 3.8842 33.9998 6.79996
915 1 -1.1104 1.13806 36.7538 6.70208
914 1 -1.1104 1.17308 31.0441 6.70647
917 1 -1.1104 6.72805 36.8083 6.57973
916 1 -1.1104 6.77166 31.1194 6.61064
794 1 -1.1104 6.69069 31.1497 3.93522
795 1 -1.1104 6.76566 33.8736 1.10225
793 1 -1.1104 6.71251 31.1445 1.04997
772 1 -1.1104 6.68852 36.7083 1.01325
796 2 2.2208 10.8752 35.313 5.16267
797 1 -1.1104 12.3298 31.1164 1.08603
798 1 -1.1104 12.3132 36.7268 1.07638
799 1 -1.1104 12.2536 31.035 3.97653
800 1 -1.1104 12.2613 36.6543 3.78277
801 1 -1.1104 12.3244 33.8657 1.00181
802 2 2.2208 10.9611 32.4769 2.52962
803 2 2.2208 10.9975 38.1802 2.42317
804 1 -1.1104 12.2253 33.899 3.76546
805 1 -1.1104 9.53573 31.1743 1.13882
806 1 -1.1104 9.53162 36.8162 1.11336
807 2 2.2208 8.12879 35.3866 2.4629
808 1 -1.1104 9.53124 31.0275 3.89565
809 1 -1.1104 9.47438 36.6032 3.82652