LAMMPS (29 Oct 2020)
OMP_NUM_THREADS environment is not set. Defaulting to 1 thread. (../comm.cpp:94)
  using 1 OpenMP thread(s) per MPI task
OMP_NUM_THREADS environment is not set. Defaulting to 1 thread. (../comm.cpp:94)
  using 1 OpenMP thread(s) per MPI task
Reading data file ...
  orthogonal box = (-0.36063715 -4.2335687 -0.36418032) to (27.700637 332.31357 27.704180)
  2 by 13 by 2 MPI processor grid
  reading atoms ...
  17820 atoms
  reading velocities ...
  17820 velocities
Finding 1-2 1-3 1-4 neighbors ...
  special bond factors lj:    0.0      0.0      0.0     
  special bond factors coul:  0.0      0.0      0.0     
     0 = max # of 1-2 neighbors
     0 = max # of 1-3 neighbors
     0 = max # of 1-4 neighbors
     1 = max # of special neighbors
  special bonds CPU = 0.004 seconds
  read_data CPU = 0.053 seconds
Setting atom values ...
  11880 settings made for charge
Setting atom values ...
  5940 settings made for charge
PPPM initialization ...
  using 12-bit tables for long-range coulomb (../kspace.cpp:328)
  G vector (1/distance) = 0.29883648
  grid = 40 240 40
  stencil order = 5
  estimated absolute RMS force accuracy = 0.0001568404
  estimated relative force accuracy = 1.0891963e-05
  using single precision MKL FFT
  3d grid and FFT values/proc = 15000 7600
Neighbor list info ...
  update every 1 steps, delay 0 steps, check yes
  max neighbors/atom: 2000, page size: 100000
  master list distance cutoff = 11.3
  ghost atom cutoff = 11.3
  binsize = 5.65, bins = 5 60 5
  2 neighbor lists, perpetual/occasional/extra = 2 0 0
  (1) pair coul/long, perpetual
      attributes: half, newton on
      pair build: half/bin/newton
      stencil: half/bin/3d/newton
      bin: standard
  (2) pair eam/alloy, perpetual, copy from (1)
      attributes: half, newton on
      pair build: copy
      stencil: none
      bin: none
Setting up Verlet run ...
  Unit style    : metal
  Current step  : 0
  Time step     : 0.001
Per MPI rank memory allocation (min/avg/max) = 8.156 | 8.182 | 8.196 Mbytes
Step Temp E_pair E_mol TotEng Press 
       0          600    -232978.2            0   -231596.22     -1323.46 
  100000    591.46312   -232959.72            0   -231597.41   -1083.8089 
Loop time of 620.633 on 52 procs for 100000 steps with 17820 atoms

Performance: 13.921 ns/day, 1.724 hours/ns, 161.126 timesteps/s
99.8% CPU use with 52 MPI tasks x 1 OpenMP threads

MPI task timing breakdown:
Section |  min time  |  avg time  |  max time  |%varavg| %total
---------------------------------------------------------------
Pair    | 396.2      | 412.21     | 424.16     |  28.9 | 66.42
Bond    | 0.0056792  | 0.011018   | 0.019939   |   3.0 |  0.00
Kspace  | 137.73     | 151.29     | 170.66     |  57.3 | 24.38
Neigh   | 29.136     | 33.688     | 36.227     |  29.5 |  5.43
Comm    | 17.556     | 18.775     | 20.2       |  16.2 |  3.03
Output  | 6.1111e-05 | 6.7562e-05 | 0.00027485 |   0.0 |  0.00
Modify  | 2.2851     | 3.1369     | 5.0684     |  50.4 |  0.51
Other   |            | 1.515      |            |       |  0.24

Nlocal:        342.692 ave         367 max         313 min
Histogram: 2 0 2 9 12 11 4 2 2 8
Nghost:        4121.62 ave        4293 max        3937 min
Histogram: 3 1 4 12 3 14 3 0 6 6
Neighs:        68694.5 ave       74598 max       57517 min
Histogram: 2 0 1 1 3 10 15 9 2 9

Total # of neighbors = 3572116
Ave neighs/atom = 200.45544
Ave special neighs/atom = 0.0000000
Neighbor list builds = 16222
Dangerous builds = 0
11880 atoms in group oxygen
PPPM initialization ...
  using 12-bit tables for long-range coulomb (../kspace.cpp:328)
  G vector (1/distance) = 0.29883648
  grid = 40 240 40
  stencil order = 5
  estimated absolute RMS force accuracy = 0.0001568404
  estimated relative force accuracy = 1.0891963e-05
  using single precision MKL FFT
  3d grid and FFT values/proc = 15000 7600
Setting up Verlet run ...
  Unit style    : metal
  Current step  : 0
  Time step     : 0.001
Per MPI rank memory allocation (min/avg/max) = 8.406 | 8.433 | 8.446 Mbytes
Step f_2 Temp v_Tdiff v_deltaT 
       0            0    591.46312            0            0 
  100000    703.96365    598.98227   0.01799617    208.93387 
  200000    1393.5937    600.75868  0.019831434    230.24111 
  300000     2085.939    603.57808  0.019079226    221.50805 
  400000     2783.631    596.62875  0.018071474    209.80813 
  500000    3476.8935    599.84653  0.019653293     228.1729 
  600000    4168.8121    602.36114  0.019411469    225.36536 
  700000    4860.0749    603.58596  0.019103673    221.79187 
  800000    5545.9265     599.9891  0.018818881    218.48546 
  900000    6236.9485    598.24859  0.019262405    223.63473 
 1000000    6933.8197    599.21216  0.018849255     218.8381 
Loop time of 6162.93 on 52 procs for 1000000 steps with 17820 atoms

Performance: 14.019 ns/day, 1.712 hours/ns, 162.261 timesteps/s
99.8% CPU use with 52 MPI tasks x 1 OpenMP threads

MPI task timing breakdown:
Section |  min time  |  avg time  |  max time  |%varavg| %total
---------------------------------------------------------------
Pair    | 3914.7     | 4078.7     | 4218.7     |  92.3 | 66.18
Bond    | 0.061528   | 0.10876    | 0.19868    |   8.3 |  0.00
Kspace  | 1366.8     | 1517       | 1717.2     | 174.5 | 24.62
Neigh   | 294.13     | 342.16     | 372.04     |  96.1 |  5.55
Comm    | 173.42     | 188.05     | 203.88     |  61.6 |  3.05
Output  | 0.0011849  | 0.0012716  | 0.0024382  |   0.5 |  0.00
Modify  | 5.7408     | 6.7937     | 8.1483     |  26.2 |  0.11
Other   |            | 30.04      |            |       |  0.49

Nlocal:        342.692 ave         366 max         317 min
Histogram: 2 2 2 12 7 12 3 4 3 5
Nghost:        4132.63 ave        4249 max        3948 min
Histogram: 4 0 6 4 6 4 0 11 4 13
Neighs:        68676.7 ave       73839 max       58724 min
Histogram: 3 1 0 0 2 12 12 8 8 6

Total # of neighbors = 3571187
Ave neighs/atom = 200.40331
Ave special neighs/atom = 0.0000000
Neighbor list builds = 165899
Dangerous builds = 0
Total wall time: 1:53:03
