ITEM: TIMESTEP
100000
ITEM: NUMBER OF ATOMS
18000
ITEM: BOX BOUNDS pp pp pp
-5.5015893202009680e-01 2.7890158932020007e+01
-6.4572033299821525e+00 3.3453720332996096e+02
-5.4192823790966438e-01 2.7881928237910021e+01
ITEM: ATOMS id type x y z
3673 2 5.14898 -0.647306 5.50828
5 2 2.25922 -3.54796 2.46958
14 2 5.57136 -3.45958 2.6486
63 2 2.3477 -0.460652 2.68307
10 1 3.29124 -4.89912 4.05202
3604 2 2.50747 -3.57299 5.94868
17952 1 0.684539 -4.3382 0.672358
11 1 3.96624 -2.27709 1.73352
17 1 3.71808 -2.20238 4.25762
9 1 3.50324 -4.85786 1.21704
58 1 1.20484 -1.8536 0.970185
3548 1 0.673679 -4.97259 3.46323
12 1 0.898941 -2.13675 3.69894
20 1 6.64118 -2.31904 1.00301
3571 1 6.38343 -2.23143 4.34222
24 1 5.98408 -0.0893568 2.80869
17964 1 6.51291 -5.13671 1.03814
3747 2 13.7254 5.13953 7.96314
28 2 13.5369 -3.76997 -0.322836
145 2 10.4379 4.64929 0.136806
13 2 5.37264 -6.47063 -0.301944
3551 1 6.51386 -5.31508 4.16444
3687 2 13.5311 -0.721535 8.15825
3685 2 10.9791 -0.682083 5.53424
29 2 10.6686 -3.81363 2.83945
30 1 8.07291 -3.66127 2.90229
31 1 12.1859 -2.2324 1.21995
26 2 8.14881 -1.39916 2.5903
21 1 9.50964 -2.42346 1.02981
3616 2 7.9536 -3.80332 5.30519
3564 1 9.42102 -5.22549 1.18416
3569 1 12.1393 -5.00479 1.22003
3572 1 12.4719 -5.19503 3.926
36 1 12.3743 -2.18881 3.93766
18 1 9.68367 -5.22521 4.34199
22 1 9.77394 -2.28379 4.38114
23 1 10.007 0.173368 2.02558
78 1 7.93263 0.432628 0.960538
149 1 9.12262 9.4303 0.975475
193 2 8.06742 10.7727 -0.234909
85 2 11.0013 -0.667131 -0.23281
3806 2 11.0329 13.7051 8.27854
7411 1 12.0621 15.1709 12.5775
3867 2 13.4556 16.5554 8.08059
244 2 2.22038 19.3085 -0.264149
70 1 3.76521 0.692921 4.42367
66 1 1.07088 0.801479 4.08973
69 1 3.59579 0.663589 1.09953
6 1 0.859922 0.714349 1.07708
74 2 4.9067 2.032 2.68534
3664 2 2.21259 2.19685 5.55801
3733 2 5.28849 4.59204 5.52647
123 2 2.20124 4.82646 2.49683
71 1 3.73475 3.63837 1.14107
72 1 3.67799 3.56869 3.79877
65 1 0.955678 3.57003 0.924285
68 1 1.05447 3.61061 3.93847
129 1 1.04144 6.33391 4.01321
14520 1 1.36986 6.64539 0.876238
80 1 6.06006 2.1122 4.65877
7468 2 13.7474 19.3798 11.0798
19 1 5.91138 2.12538 0.267348
133 2 5.48199 4.5349 -0.509189
141 1 6.73662 6.65715 1.40234
130 1 3.59026 6.85173 2.96026
260 1 6.72525 18.1236 0.974912
7287 2 13.6308 -0.793154 13.6512
82 1 8.22699 0.175813 4.50397
138 1 6.46499 6.57275 4.33773
77 1 6.78687 3.37736 2.44031
32 1 12.5946 0.657592 3.87541
89 1 12.5208 0.464432 1.06497
75 2 8.21672 1.8252 2.7493
90 1 10.0351 4.04286 2.65433
86 2 11.332 2.16436 2.45671
3676 2 7.91458 1.91429 5.92885
3745 2 10.6909 4.73998 5.04741
91 1 12.3673 3.71103 1.14991
135 2 7.9095 5.23664 2.53493
84 1 10.0236 2.09938 4.39706
81 1 9.9103 2.37717 0.641927
152 1 12.6824 3.50504 3.75268
83 1 7.76771 4.04822 4.86236
14492 1 12.0942 6.45937 1.12607
147 2 13.4575 5.19177 2.32865
92 1 12.5115 6.39941 3.89088
139 1 8.10987 4.41074 0.386482
16 2 8.0792 -3.77332 -0.523073
207 2 13.3964 10.77 2.7975
7396 2 8.04239 13.2562 11.4394
3793 2 5.07104 10.6487 5.63338
127 1 3.92639 9.44112 1.33954
134 2 5.3545 8.29403 2.66291
128 1 1.10962 9.25325 4.47988
183 2 2.26937 10.8381 2.81445
3724 2 2.68694 7.70368 4.95867
132 1 3.69062 9.35767 3.94956
3785 1 0.88893 12.2002 4.03545
180 1 0.734854 9.37648 1.71643
190 1 3.66663 11.9292 4.10743
186 1 3.63874 12.3527 1.30388
14586 1 0.840359 12.1414 1.23196
144 1 6.77661 9.38716 3.97816
137 1 6.62526 12.2025 0.372966
185 2 4.7585 10.8689 -0.22977
259 2 8.10115 19.7679 2.40451
3790 1 6.91243 14.7714 9.0742
7399 1 6.40682 14.9051 12.19
3789 1 3.764 11.9087 7.03515
142 1 9.32718 6.55395 1.03731
3754 1 9.65571 6.54074 3.81058
140 1 6.5238 12.5078 4.30822
14484 1 6.53218 9.89952 1.25043
198 1 10.0222 11.1298 2.41559
3805 2 10.6703 10.7893 5.60646
7225 2 10.8882 -6.41762 10.9216
151 1 12.3738 12.0725 0.983675
146 2 10.7446 8.01233 2.58918
195 2 8.13842 11.024 3.35867
3736 2 8.23113 7.60342 5.38313
210 1 12.2139 9.54973 4.19284
3743 1 9.21205 12.3572 4.85244
14552 1 12.1892 9.21751 1.2123
212 1 12.2042 12.3676 3.85071
3751 1 9.26622 9.35315 4.10179
205 2 11.1495 10.6952 -0.0342214
3739 1 6.46943 9.22985 6.58156
136 2 7.87407 7.58448 -0.325047
201 1 9.81506 12.4548 0.110425
3784 2 2.25837 13.5575 5.44646
194 2 5.16787 13.5006 2.47092
254 2 4.91904 19.138 2.67659
3844 2 2.3803 19.2106 5.22494
3853 2 4.94862 16.0753 5.5989
245 1 0.708987 17.6957 1.09683
246 1 1.32373 18.03 3.53547
187 1 0.955338 14.7968 1.31202
188 1 0.70389 15.0414 4.14274
243 2 2.4462 16.1358 2.57742
250 1 4.04497 17.4614 3.7845
191 1 3.42664 15.0636 0.993853
192 1 3.72818 14.7147 3.98458
249 1 3.67442 17.6666 1.14056
257 1 6.46458 15.3333 3.83213
258 1 5.62591 19.2708 5.77323
197 1 6.27356 15.1493 1.04639
3862 1 8.97143 17.2626 10.2032
7457 1 6.34043 17.7127 12.8002
7321 2 -0.487133 4.79752 10.8764
253 2 5.04339 16.2996 -0.265979
3922 1 7.95112 19.245 7.84458
3807 2 13.5322 10.7645 8.26311
199 1 6.79249 18.1282 3.5658
206 2 10.7433 13.4352 2.22902
202 1 8.15675 13.4112 2.33318
266 2 11.2869 19.2541 2.43113
3796 2 8.03423 14.3065 4.94725
3799 1 8.26494 16.8943 5.87067
14662 1 12.3562 17.8922 0.87721
3865 2 10.7677 16.8569 5.4024
270 1 12.3147 14.9276 3.61953
211 1 12.3244 15.0123 0.767237
255 2 7.86162 16.2437 2.19958
3856 2 7.81812 19.0954 5.65523
203 1 9.59645 15.2081 0.973374
204 1 9.43349 15.8276 3.81206
14604 1 9.48007 18.4548 3.68316
261 1 12.2566 17.7516 3.70277
321 1 8.97319 17.9733 1.02635
196 2 8.04761 13.878 -0.333106
265 2 11.1502 16.6853 -0.465659
3721 2 -0.455771 5.11861 5.41885
3605 1 0.868021 -4.96983 6.68762
3611 1 3.97312 -2.31225 7.1807
8 1 0.943567 -2.09102 6.66651
3609 1 3.91194 -5.07879 6.98418
7208 1 0.869837 -2.05677 12.3535
3607 1 0.76209 -2.39579 9.48711
7273 2 5.15921 -0.665331 11.3146
7205 1 3.88617 -5.13361 12.8221
3606 1 0.758936 -5.10118 9.80889
7207 1 0.891096 -4.97344 12.5978
3614 2 5.2397 -3.69254 8.40294
7209 1 3.44605 -2.31234 12.6865
3663 2 2.27863 -0.706299 8.49751
3610 1 3.41856 -4.86412 9.48284
7204 2 2.25935 -3.60374 11.0792
7211 1 3.84842 -2.22007 9.94778
3618 1 6.56778 -5.06404 9.65454
3617 1 6.52349 -5.25935 7.06535
7284 1 8.94073 3.34351 12.7829
7219 1 6.04814 -2.11679 12.6844
3619 1 6.73255 -2.51273 7.06314
3612 1 6.67071 -2.13366 9.98908
7217 1 6.7678 -5.20327 12.4961
3629 1 12.2822 -5.15174 6.73605
3631 1 12.1341 -2.20206 6.76509
3621 1 9.29363 -5.0479 6.94996
3623 1 9.32276 -2.10623 7.20491
7172 1 12.0948 -4.9534 9.4609
7285 2 10.7093 -0.728012 10.9429
7229 1 12.2512 -4.92622 12.2591
7231 1 12.2643 -2.22228 12.5136
3626 2 10.7051 -3.59144 8.24412
3632 1 12.2983 -2.15769 9.63229
7221 1 9.45089 -5.10945 12.4839
3675 2 7.8576 -0.905869 8.30595
3622 1 9.37798 -4.96134 9.56637
7216 2 8.16865 -3.71064 11.1676
7223 1 9.5453 -2.35638 12.5614
3624 1 9.26182 -2.23632 9.85674
3667 1 0.908872 3.66347 6.71334
3669 1 3.58784 0.486107 7.10809
126 1 1.13124 6.63821 6.72561
3679 1 6.48746 3.32203 7.09678
3665 1 0.720934 0.719596 6.84402
3729 1 4.08404 6.23014 6.18032
3671 1 3.64659 3.25727 6.81144
3670 1 3.51721 0.64301 9.80394
7269 1 3.56953 0.631887 12.6963
7265 1 0.641807 0.749704 12.5941
3666 1 0.880599 3.39292 9.68611
3674 2 4.94723 1.99736 8.30972
3608 1 0.803631 0.499255 9.78444
7264 2 2.31762 1.84977 11.3025
7333 2 4.96008 5.04472 10.9043
7267 1 1.00073 3.586 12.3436
3723 2 2.30188 4.94202 8.19835
7271 1 3.63602 3.38498 12.4018
3672 1 3.62364 3.63355 9.4014
3668 1 0.789712 6.34387 9.5566
7329 1 3.73654 6.50637 12.3673
3730 1 3.63081 6.45278 9.15975
7325 1 1.04423 6.37646 12.5346
3737 1 6.93624 6.33257 6.98565
3680 1 6.43988 6.31425 9.7104
7277 1 6.61569 0.563597 12.7779
3620 1 6.26572 0.751131 9.66361
3678 1 6.67341 3.39176 9.86038
3861 1 10.1444 17.2077 7.61631
162 1 12.2668 6.43943 6.73717
3691 1 12.2731 3.62886 6.42026
7337 1 6.55317 6.24786 12.649
3689 1 12.4426 0.723612 6.72866
3677 1 6.57009 0.553642 7.07057
7279 1 6.38288 3.50079 12.4935
3749 1 9.44567 6.18728 6.71615
3681 1 9.73726 0.421347 7.07139
3683 1 9.63098 3.27893 6.80231
7281 1 9.3367 0.676555 12.3626
7289 1 12.1166 0.647078 12.4419
3690 1 12.0269 0.536733 9.58941
3686 2 11.0128 2.10963 8.13857
3682 1 8.98699 0.74038 9.77143
7276 2 8.06636 2.04495 11.2348
3684 1 9.69597 3.51326 9.80047
7283 1 11.9093 3.44404 12.491
3735 2 8.12696 4.83756 8.1322
7345 2 10.9847 5.07297 10.9955
7291 1 12.4768 3.45171 9.53537
3750 1 12.4949 6.17089 9.5444
7341 1 9.34241 6.15342 12.5426
3742 1 9.71279 6.19698 9.46444
7349 1 12.1988 6.64024 12.1881
3808 2 13.3369 13.7024 5.28766
3725 1 0.814145 9.44019 6.97496
3727 1 0.793806 12.1894 6.73952
3731 1 3.80252 9.03781 6.71678
7393 2 4.89923 10.4864 11.0721
3726 1 0.770607 9.37519 9.68935
7327 1 0.915423 9.15434 12.4031
3734 2 5.35916 7.73811 8.16847
3728 1 3.66354 11.9936 9.69415
3783 2 2.29413 10.5569 8.29256
7324 2 2.2596 7.84972 11.0938
7331 1 3.70807 9.12248 12.5225
3732 1 3.60468 9.13705 9.6319
7389 1 3.51688 12.0402 12.5376
3786 1 0.78821 12.4003 9.68001
7385 1 0.622744 11.8495 12.4689
3740 1 6.31932 12.1569 9.76498
184 2 1.96709 13.4604 -0.344015
3803 1 9.25923 14.2286 6.78249
124 2 2.08145 8.24353 -0.334959
7339 1 6.59005 8.92267 12.5722
3738 1 6.65887 8.96746 9.49111
3741 1 9.65031 8.89207 6.90367
3809 1 12.0767 12.1099 6.6721
7397 1 6.52067 11.8525 12.4331
3797 1 6.45084 11.606 7.23466
154 1 12.1522 9.3894 6.85291
3801 1 9.38794 11.4045 7.58225
7401 1 9.62453 12.3034 12.8324
3744 1 9.76739 8.86995 9.74775
7343 1 9.50915 9.05196 12.5358
7336 2 8.05648 7.6892 11.16
3795 2 8.14341 9.91031 8.30445
7405 2 10.9725 10.7127 11.0584
7351 1 12.3885 9.24538 12.4554
3746 2 11.1514 7.55028 8.32935
3752 1 12.5865 9.06698 9.55859
3802 1 8.96456 11.7441 10.2917
7409 1 12.3218 12.1278 12.5912
3810 1 12.2102 12.2431 9.65124
3791 1 3.68689 14.6605 6.95431
3787 1 0.759747 14.9288 6.89557
3845 1 0.581415 17.6829 6.69807
3849 1 3.14862 17.4955 6.37749
7384 2 2.18147 13.5685 11.2596
3858 1 6.50305 18.0747 9.78646
3857 1 5.59175 17.0155 7.56455
3794 2 4.81942 13.2593 8.38714
3854 2 5.14175 19.1029 8.09291
7449 1 3.50509 17.7498 12.2694
3846 1 0.527407 17.6726 9.68285
3788 1 0.922811 14.9597 10.0082
7445 1 0.767964 17.7117 12.1016
7453 2 5.08843 16.2575 10.9873
3850 1 3.58996 17.8732 9.45146
3843 2 2.25039 16.3653 8.16836
3792 1 3.62 14.7728 9.70989
7387 1 0.896756 14.9109 12.5893
7391 1 3.60576 15.0685 12.5288
7444 2 2.32426 19.3234 10.9456
7403 1 9.14935 14.938 12.6611
7469 1 9.60327 17.581 12.8826
200 1 6.35154 14.4389 6.72392
3800 1 9.50931 14.5665 9.60544
3855 2 7.93181 16.6403 8.39398
3798 2 7.95945 13.0882 8.28748
3866 2 11.0313 19.3908 8.38784
7456 2 7.97447 19.3775 11.1745
7471 1 12.3214 17.9496 12.52
3661 2 -0.412299 -0.638844 5.35783
3811 1 12.0886 14.9641 6.68941
3869 1 12.2715 18.0598 6.70091
7465 2 10.8301 16.6456 11.1895
3870 1 12.1208 17.9123 10.003
3804 1 12.5071 15.2093 9.62331
64 2 2.44839 2.10304 -0.470807
61 2 -0.472686 -0.889415 -0.413829
73 2 5.40038 -0.570161 0.103393
242 2 -0.346799 19.1856 2.62135
3748 2 13.532 7.97849 5.32648
7228 2 13.5933 -3.46477 10.8201
62 2 -0.41998 2.12728 2.40769
7202 2 -0.608454 -3.48028 13.6838
10873 2 5.26168 -0.696973 16.9403
10805 1 0.826749 -4.86505 18.2525
7206 1 0.90651 -2.165 15.4403
10807 1 0.809135 -2.09451 18.3883
10814 2 5.68442 -3.38948 19.5839
10809 1 3.77578 -5.38864 18.3353
10863 2 2.58598 -0.728198 19.685
7210 1 3.69649 -4.94321 15.3227
10804 2 2.18468 -3.55126 16.8843
10811 1 3.69276 -2.10299 18.2488
7212 1 3.56246 -2.20376 15.3732
7258 1 0.885808 -4.95979 15.3581
10819 1 6.58458 -1.77059 18.3629
7220 1 6.49392 -2.36205 15.5729
10817 1 6.48436 -4.88583 18.1329
7218 1 6.4513 -5.3161 15.5127
14403 2 2.20128 -6.37014 25.1723
14526 1 -0.339791 12.395 27.0785
14667 2 13.6484 16.3955 25.262
4 2 2.35879 -3.46931 27.5857
10885 2 10.9001 -0.594702 16.7497
10829 1 12.3626 -4.98511 17.9674
7230 1 12.1978 -5.01891 15.1182
10831 1 12.2835 -2.31878 18.2263
10826 2 10.887 -3.58656 19.5173
7232 1 12.2706 -1.85964 15.5187
10821 1 9.46794 -4.93297 18.2586
10875 2 8.33572 -0.659526 19.6495
7222 1 9.63794 -4.91314 15.2397
10816 2 8.03312 -3.80194 16.4715
10823 1 9.35726 -2.18845 18.0683
7224 1 9.25201 -2.30992 15.2593
10832 1 12.218 -2.15344 21.0165
7275 2 7.87512 -0.786243 14.1316
7286 2 10.7787 2.07481 13.84
7226 2 10.8075 -3.6466 13.7037
14612 1 9.28435 17.6501 26.2694
14579 1 -0.276123 12.6954 22.8621
10869 1 4.09737 0.822419 18.3206
7266 1 0.715327 0.812307 15.5467
10865 1 1.23055 0.576417 18.0369
10874 2 5.26228 2.12169 19.7537
7270 1 3.78743 0.826254 15.4511
10864 2 2.3906 2.11846 16.9064
10933 2 5.11258 4.76943 16.8651
10867 1 0.707455 3.45859 17.9147
7268 1 0.965775 3.68791 15.1862
10923 2 2.14991 4.76181 19.3727
10871 1 3.65042 3.55529 18.13
7272 1 3.89675 3.66667 15.3736
7330 1 3.69971 6.33387 15.1714
7326 1 0.863098 6.45003 15.6473
10877 1 7.03581 1.00372 18.4504
10879 1 6.59134 3.62023 18.1075
10925 1 0.910216 6.1504 18.1221
10929 1 3.71197 6.26684 17.8407
7323 2 2.37173 4.93831 13.7747
7443 2 2.20689 16.4024 13.7179
7274 2 5.19051 2.09388 14.0149
7262 2 -0.519784 2.1862 13.9676
7466 2 10.8333 19.3672 13.8967
10938 1 6.54868 6.23525 20.9807
10937 1 6.47204 6.44865 18.1842
7278 1 6.49347 0.62153 15.5672
7280 1 6.61036 3.34885 15.4726
7338 1 6.45925 6.18995 15.4854
7290 1 12.0914 1.04369 15.3641
10881 1 9.63837 0.813309 18.1597
7282 1 9.24245 0.680941 15.3333
10889 1 12.371 0.664804 18.0701
10886 2 11.0806 2.06041 19.6279
10876 2 8.05225 2.17972 16.8977
10945 2 10.8703 4.99146 17.2086
10891 1 12.2465 3.44361 17.6854
7292 1 9.78449 3.58938 15.6923
10935 2 7.97431 4.91417 19.5452
7342 1 9.36084 6.24954 15.4921
10883 1 9.28957 3.48509 18.3644
7383 2 2.24753 10.6144 13.8804
10941 1 9.29844 6.17871 18.3148
10949 1 12.0843 6.06059 18.8355
7350 1 12.1844 6.48573 15.6314
7335 2 7.80126 4.93989 14.0252
7214 2 5.0137 -3.60817 14.1118
10882 1 9.59336 0.591371 21.1755
11007 2 13.6437 10.6577 19.764
10993 2 5.17848 10.6008 16.6676
10927 1 0.607469 9.03489 17.8106
10934 2 5.06451 7.75179 19.4137
7328 1 0.912784 9.27839 15.1858
10983 2 2.2346 10.639 19.3078
10924 2 2.34332 7.87784 16.7237
10931 1 3.84713 9.24928 18.15
7332 1 3.56738 9.28849 15.4004
10985 1 0.852084 11.9828 17.9005
7386 1 1.11256 12.2447 15.2841
10989 1 3.97424 12.22 18.0506
7390 1 3.92021 12.0519 15.2459
10928 1 0.701386 9.34071 20.3265
14425 2 10.7824 -6.23677 22.3219
10940 1 6.45968 9.24651 20.9237
7334 2 5.16472 7.55248 14.0476
7346 2 10.9785 7.76311 13.9165
7398 1 6.69034 12.1132 15.3332
7340 1 6.42226 8.99105 15.3223
7227 2 13.6193 -6.39915 13.7972
10997 1 6.70113 11.9625 17.8417
10939 1 6.57347 9.3871 18.096
11005 2 10.9446 10.5776 16.9054
10951 1 12.2383 9.23458 18.3365
10946 2 10.919 7.87077 19.7588
7352 1 12.233 9.22573 15.4437
10995 2 8.16829 10.5514 19.4677
10936 2 7.98936 7.57427 16.7697
10943 1 9.74424 9.28592 18.4879
7344 1 9.25175 9.08184 15.5761
11009 1 12.2039 12.2124 18.4288
7410 1 12.2893 12.1834 15.4094
11001 1 9.54233 11.9346 18.0558
7402 1 9.56377 12.0214 15.3
11002 1 9.51644 11.759 20.8858
7263 2 2.30302 -0.774597 14.167
7394 2 5.12863 13.5368 14.0021
7395 2 7.89382 10.4979 14.082
7454 2 5.18061 19.2526 13.9308
14607 2 13.6515 10.7146 25.2297
10984 2 2.41291 13.6439 16.6505
10994 2 5.08818 13.3177 19.6867
11053 2 5.31301 16.465 16.856
11045 1 0.901777 17.682 17.8827
7446 1 0.963074 17.6653 14.9909
10987 1 0.980497 14.7212 18.3067
11054 2 5.41937 19.1638 19.5736
7388 1 0.70854 14.9878 15.3319
11049 1 3.85064 18.136 18.1681
11043 2 2.2225 16.4468 19.5871
7450 1 3.78512 17.7692 15.3232
11044 2 2.49645 19.1658 16.6179
10991 1 3.91308 15.063 18.4643
7392 1 3.60389 15.0162 15.4251
10992 1 3.7833 14.6304 21.2647
11057 1 6.66131 17.6695 18.2613
7400 1 6.56662 14.8496 15.159
11046 1 0.732253 17.7908 20.8221
7203 2 2.37146 -6.36512 14.0278
14655 2 7.96347 16.1923 25.2281
14548 2 13.6945 7.7913 22.3736
10999 1 6.45281 15.0577 18.204
7458 1 6.64607 17.7551 15.4154
7455 2 7.78058 16.408 13.8383
7406 2 10.9009 13.6342 14.2858
10996 2 7.96249 13.3495 16.73
7462 1 9.58386 18.2425 15.5533
11006 2 10.9325 13.3675 19.7451
11065 2 10.8524 16.373 16.8698
11069 1 12.2785 17.7383 18.3026
7470 1 12.3825 18.0725 15.4963
11011 1 12.2741 15.0034 18.1975
11066 2 10.7919 18.9594 19.4716
7412 1 12.4437 14.9907 15.4679
11061 1 9.32963 17.9404 18.0917
11055 2 7.98686 16.1999 19.4814
11003 1 9.31428 14.8483 18.0049
7404 1 9.51185 15.1019 15.3639
11056 2 7.90001 19.1865 16.6134
11012 1 12.2085 14.8534 21.1988
14585 1 -0.0128773 8.76246 23.0693
10808 1 1.0527 -2.07578 20.8801
10812 1 3.97346 -2.03398 21.0678
119 1 4.08783 6.31393 26.9028
10810 1 3.77176 -5.09834 21.2554
10806 1 0.952066 -5.0449 20.8353
14547 2 13.4313 5.24755 25.1155
17950 1 0.942356 -5.00148 26.4985
14473 2 5.42121 -0.741301 22.373
14405 1 0.685967 -4.91122 23.6043
14407 1 1.0113 -2.1176 23.7154
14414 2 5.23335 -3.80535 25.0241
14409 1 3.56061 -4.74967 23.9644
14463 2 2.36527 -0.858888 25.1247
14410 1 3.55779 -5.34152 26.8601
14404 2 2.31847 -3.58252 22.372
14411 1 3.99946 -2.0671 23.8767
14412 1 3.92137 -2.07758 26.8771
14406 1 1.09898 -2.18023 26.3352
10820 1 7.00995 -2.17045 20.9826
10830 1 12.1533 -4.88344 20.8721
10818 1 6.5028 -5.02051 21.1531
17960 1 6.54256 -5.10074 26.7864
14418 1 6.9197 -2.40665 26.5204
14419 1 6.52484 -2.26941 23.7254
10824 1 9.52727 -2.24617 21.1604
14417 1 6.73672 -5.446 23.8418
10822 1 9.04473 -4.90479 20.9387
14430 1 12.4061 -5.09851 26.7536
14485 2 10.751 -0.946356 22.6322
14429 1 12.4847 -4.92816 23.8755
14431 1 12.5043 -2.38925 23.8658
14426 2 11.0593 -3.38913 25.2315
14432 1 12.3944 -2.2582 26.8606
14421 1 9.44968 -4.97065 23.9225
14475 2 8.05076 -0.85463 25.2812
14422 1 9.40024 -4.97652 26.4628
14416 2 8.12635 -3.61253 22.4071
14423 1 9.48921 -2.38814 23.9115
14424 1 9.72688 -1.80096 26.5241
10802 2 -0.496272 -3.44612 19.6252
10870 1 3.62963 0.552616 21.1767
10926 1 1.02006 6.36264 21.051
10868 1 0.722175 3.48916 20.7667
10866 1 1.00477 0.785083 21.2341
10878 1 6.59352 0.56026 21.1947
10872 1 3.51222 3.15936 20.8843
14469 1 3.68106 0.718079 23.8435
10930 1 3.90268 6.16534 20.6798
14408 1 0.869893 0.520498 26.5614
14465 1 0.953704 0.808831 23.9083
14470 1 3.84072 0.544855 26.8752
14466 1 1.02487 3.42648 26.6066
14474 2 5.23944 1.81787 25.2299
14464 2 2.41339 1.94727 22.4291
14533 2 5.19051 4.95221 22.4719
14467 1 1.22278 3.49324 23.6078
14523 2 2.5168 4.90789 25.306
14471 1 4.05384 3.72662 23.9648
14472 1 3.72162 3.46659 26.5961
14577 1 1.19869 6.31973 26.4771
14525 1 1.07805 6.12212 23.8391
14529 1 3.75771 6.46692 23.6653
14538 1 6.66741 6.11646 26.6615
14477 1 6.77572 0.465165 23.8415
10884 1 9.59847 3.36471 21.0425
10950 1 12.1242 6.4673 21.2812
14479 1 6.65942 3.49147 23.7504
14537 1 6.6489 6.30924 23.8255
10880 1 6.69427 3.46664 21.0401
10942 1 9.29724 6.38035 21.0415
14480 1 6.58553 3.42028 26.1527
14420 1 6.49818 0.316593 26.4327
10890 1 12.7405 0.678083 21.0484
10892 1 12.4788 3.41503 20.8372
14482 1 9.38421 0.645778 26.5746
14489 1 12.133 0.496932 23.8835
14490 1 12.2043 0.586306 26.7123
14478 1 9.33299 3.31861 26.6132
14481 1 9.30372 0.358099 23.9774
14476 2 8.12668 1.82403 22.5026
76 2 10.8906 2.03374 25.2145
14486 1 12.1936 3.40249 26.7521
14483 1 9.68568 3.35088 23.8069
14535 2 8.09624 4.75653 25.2251
14545 2 10.9139 4.90881 22.3445
14491 1 12.3806 3.30995 23.7598
14541 1 9.4668 6.25598 23.7927
14549 1 12.171 6.41316 23.8705
14550 1 12.3379 6.46089 26.7531
14542 1 9.46542 6.1554 26.4942
79 2 7.96155 2.00312 27.9033
14528 1 1.90637 10.4939 27.696
10828 2 13.5801 -3.39604 16.5166
10986 1 1.31367 12.3733 20.593
10990 1 4.09155 11.6685 20.7294
181 2 -0.383132 10.8509 25.2402
10932 1 3.6608 9.21451 20.9245
67 1 3.92742 9.0123 26.7814
14527 1 1.16027 9.16813 25.4715
14530 1 5.83267 11.3678 25.8372
14593 2 5.20122 10.4793 22.329
14534 2 5.18936 7.59139 25.3336
14583 2 2.9245 10.6612 25.0666
14524 2 2.35552 8.20453 22.4726
14531 1 4.04489 9.03921 23.9244
14532 1 1.32984 12.3206 25.0514
14589 1 3.91743 12.0739 23.5893
14598 1 3.60831 12.2641 26.6309
189 1 1.78272 10.6479 23.0045
11070 1 12.1266 17.7497 21.2647
14658 1 6.52649 17.446 26.5951
10862 2 -0.342356 1.94223 19.4911
10952 1 12.3202 9.34114 21.1396
11010 1 12.307 11.9579 21.2151
14539 1 6.46782 8.96035 23.7088
10998 1 7.00968 12.3134 20.5271
14597 1 6.61992 11.8114 23.3078
10944 1 9.3905 9.29037 21.105
143 1 9.31395 9.48068 26.5796
131 1 8.50938 12.2221 26.1784
14540 1 6.84568 9.0616 26.953
14601 1 9.43515 11.9666 23.6721
14609 1 12.1574 11.8194 24.0615
14544 1 12.2052 9.3474 26.764
14543 1 9.49949 9.37923 23.9716
14536 2 7.82831 7.64729 22.231
14595 2 7.90506 10.7003 24.7595
14605 2 10.8058 10.5066 22.4886
14551 1 12.6381 9.16921 24.1821
14546 2 10.8038 7.82089 25.4861
14610 1 12.2644 12.2449 26.8799
11050 1 3.59412 17.8019 21.0781
10988 1 0.907731 15.0928 21.0911
14522 2 -0.342369 7.41412 25.1146
11058 1 6.58764 17.9732 21.1397
14584 2 2.2198 13.2681 22.4956
14594 2 4.9775 13.3966 25.2908
14592 1 3.75884 14.7826 26.6089
14587 1 1.04621 14.9899 23.9498
14591 1 3.74102 14.9071 23.8636
14650 1 3.7514 17.6746 26.6336
14588 1 0.897126 15.1588 26.7392
14646 1 0.905936 17.9344 26.7784
14645 1 0.692569 17.7532 23.6381
14644 2 2.21872 19.1826 22.123
14649 1 3.76685 17.9285 23.7965
14643 2 2.34685 16.3365 25.1341
14654 2 5.09733 19.1435 25.3124
14653 2 5.0251 16.4326 22.5302
14665 2 10.8661 16.3306 22.4994
14670 1 12.2785 18.165 26.6521
10982 2 -0.432045 13.7019 19.7662
14656 2 8.21924 19.0667 22.2081
11000 1 6.24759 15.02 21.256
11062 1 9.399 17.6856 20.7261
11004 1 9.17092 14.7795 20.7791
14602 1 9.63709 15.1419 26.697
14611 1 11.9968 15.039 24.0125
14606 1 12.5387 15.0895 26.6181
14669 1 12.2049 17.7871 24.0244
14666 2 10.8136 19.2605 25.1026
14600 1 6.63985 14.8948 26.8562
14661 1 9.72641 17.7465 23.6122
208 2 10.6254 13.463 25.2929
14596 2 7.87193 13.4979 22.234
14657 1 6.40139 17.5451 23.8508
14603 1 9.44605 14.9827 23.7254
256 2 7.89434 19.1254 27.7478
14599 1 6.8141 14.4465 23.9494
10922 2 -0.554575 7.42499 19.4192
14642 2 -0.609304 19.2643 25.0342
14608 2 13.4645 13.1364 22.649
7442 2 -0.570293 19.2634 13.8293
14462 2 -0.455557 2.10122 25.1895
14521 2 -0.31531 4.75872 22.4318
7322 2 -0.449539 7.53414 13.8932
11067 2 13.6762 16.257 19.8692
14582 2 -0.464529 13.9835 25.3446
7467 2 13.5189 16.4636 14.1416
10825 2 10.9225 -6.36312 16.7497
10815 2 7.95607 -6.4683 19.6202
125 1 -0.540795 8.55306 27.4866
121 2 -0.293812 4.99257 27.7226
3913 2 5.27797 21.9406 5.46909
305 1 0.973035 23.6875 1.17103
306 1 0.840857 23.5433 4.05484
314 2 5.30874 24.9427 2.68257
248 1 0.792788 20.7538 4.26181
309 1 3.79861 23.3921 1.0358
303 2 2.26857 22.1881 2.61633
310 1 3.7488 23.4812 4.11451
3904 2 2.67782 25.0713 5.50092
251 1 3.79729 20.4974 1.02864
252 1 3.57029 20.6098 3.83019
247 1 0.865399 20.8941 1.10601
3847 1 1.10843 20.4244 7.01211
319 1 6.71682 23.7676 1.17793
3918 1 6.34524 20.952 3.3144
311 1 3.78705 26.1368 1.31579
318 1 6.58594 23.6351 4.19218
307 1 0.928295 26.2203 1.07026
308 1 1.20037 26.5874 3.95618
312 1 3.96561 26.3855 4.00215
304 2 2.48433 24.7771 -0.368809
263 1 9.8164 20.537 0.837813
4107 2 13.4015 39.0061 8.11893
3905 1 0.999317 23.5183 6.77334
313 2 5.18391 22.0261 -0.301584
4110 1 12.3504 40.7849 12.5601
3864 1 7.35015 21.3302 6.06408
264 1 9.58289 23.5271 1.13056
3925 2 11.1903 21.8523 5.51487
329 1 12.3321 23.7063 1.07149
330 1 12.4035 23.5165 3.93219
326 2 10.8007 24.7764 2.68283
272 1 12.1856 20.5995 4.00853
315 2 8.0649 22.9884 2.72058
322 1 9.74514 23.7178 4.32131
3916 2 7.97803 25.022 5.5298
271 1 12.5038 20.7356 0.807141
262 1 9.45223 21.1909 3.44885
323 1 8.07563 25.1202 2.84493
3859 1 7.06663 20.9102 0.496414
316 2 8.04589 24.757 -0.322117
381 1 6.6265 26.1485 0.582277
484 2 2.06272 41.8062 -0.361645
325 2 10.9382 22.0964 -0.232756
3863 1 9.78026 20.1183 6.58017
3962 2 -0.419628 30.669 8.03174
3973 2 5.30649 27.9676 5.3158
363 2 2.45316 27.6802 2.61728
425 1 0.769708 32.1713 0.852482
366 1 0.624605 29.5945 4.1058
426 1 1.18043 32.1317 4.00747
367 1 0.734052 29.1332 1.47396
374 2 5.2556 30.8015 2.4501
368 1 3.8029 29.3267 1.00454
370 1 3.5389 29.2411 3.90247
3964 2 2.42262 30.7267 5.23072
371 1 3.89929 32.112 0.988527
372 1 3.90443 32.0716 3.89588
3971 1 3.6355 31.993 6.78342
302 2 -0.503989 24.8943 2.49439
379 1 6.81333 32.0843 0.957084
320 1 6.34104 26.5564 4.01062
7708 2 13.5991 41.7174 11.0734
424 2 2.26527 36.2877 -0.406479
7648 2 13.4562 36.3635 11.0899
331 1 12.041 26.4284 1.33035
390 1 9.36257 26.5794 0.722932
380 1 6.43416 31.9158 3.95948
378 1 6.59058 29.2424 3.85214
14724 1 6.55001 29.1612 0.849548
324 1 9.73758 26.7408 3.79091
332 1 12.5906 26.248 3.96441
3985 2 10.8903 27.8651 5.38404
375 2 8.08443 27.7372 2.76614
391 1 12.2904 32.3036 1.0753
386 2 10.8083 30.7011 2.37856
392 1 12.2476 32.0984 3.97083
382 1 9.549 29.4686 3.778
3976 2 8.06671 30.6941 5.28496
383 1 9.43927 32.2443 0.95957
384 1 9.11304 32.3459 4.00508
3989 1 12.3208 29.1391 3.87874
393 1 11.9973 29.4658 0.846677
14773 1 9.08536 29.2202 1.1591
3981 1 9.2353 29.0968 6.64273
3991 1 12.2666 32.0495 6.61653
373 2 4.67324 27.4885 -0.273397
447 2 13.6196 33.4108 2.47977
7621 2 -0.579817 33.4989 11.0938
359 2 -0.38239 27.6237 0.0701824
4033 2 5.06148 33.334 5.28031
434 2 5.04603 36.3725 2.71322
429 1 3.8316 34.9078 1.01971
423 2 2.52579 33.4619 2.42681
430 1 3.71217 34.8575 3.85367
4024 2 2.03729 36.1509 5.2004
428 1 0.855623 34.8362 3.69295
427 1 0.827119 34.8908 0.87644
4084 1 0.860604 37.7532 3.9003
431 1 3.64494 37.8722 0.881106
432 1 3.68506 37.8692 3.99533
486 1 0.769645 37.7091 1.13838
483 2 2.11933 39.1502 2.45866
4093 2 5.03942 39.2093 5.38932
440 1 6.45244 37.953 3.97781
4048 2 13.5732 36.2759 5.12771
437 1 6.59112 34.7937 0.739979
438 1 6.56225 34.8335 3.85846
4031 1 3.68599 37.5495 6.57994
389 2 11.2068 27.7476 -0.217795
4047 2 13.5335 33.4003 8.26142
553 2 5.00731 44.5946 -0.358243
4081 2 -0.567988 39.1293 5.5065
439 1 6.50303 37.7522 1.17497
4045 2 10.829 33.4607 5.46213
449 1 12.1278 34.9996 1.16607
450 1 12.2316 34.5915 3.97062
446 2 10.6576 36.3742 2.41046
441 1 9.37736 35.0379 0.83384
435 2 7.98324 33.5153 2.40438
442 1 9.18667 34.8821 3.68513
4036 2 7.84514 36.224 5.30506
509 1 12.1272 37.9021 0.863936
452 1 11.8985 37.4971 3.90613
443 1 9.3931 37.8976 1.3008
444 1 9.02916 37.659 3.92163
4105 2 10.6187 38.8713 5.1702
495 2 7.80407 39.0918 2.41202
376 2 7.93975 30.8843 -0.43929
4043 1 9.30255 37.6571 6.75296
4112 2 13.4594 44.9174 11.028
4109 1 12.1968 40.7362 6.91397
487 1 3.5492 43.2868 0.9116
4153 2 4.82355 44.9227 5.27163
485 1 0.747996 40.5826 3.96125
494 2 5.17911 41.8596 2.52041
488 1 0.315939 43.2338 3.93207
489 1 0.640657 40.6419 0.997081
543 2 2.26047 44.7305 2.23851
490 1 3.5822 40.5495 3.86627
491 1 3.66375 40.5818 1.00412
492 1 3.68493 43.6251 3.75282
482 2 2.12178 41.9007 5.29332
14940 1 0.726158 43.5045 0.973966
499 1 6.43215 43.1181 0.933144
498 1 6.40654 40.6975 4.06099
301 2 -0.52357 21.9057 -0.296089
497 1 6.47554 40.4469 0.832201
3927 2 13.703 22.0713 8.31453
4085 1 0.875026 40.5373 6.87154
507 2 13.5403 39.2384 2.31861
500 1 6.37337 43.5185 4.04786
4097 1 6.13497 40.5867 6.90531
4165 2 10.6248 44.8197 5.20961
510 1 12.0575 40.1911 3.67866
511 1 12.3175 40.7449 0.772396
506 2 10.5582 41.9593 2.32604
512 1 11.9182 43.2216 3.87375
501 1 9.49621 40.6375 0.834355
555 2 7.62398 44.7681 2.40332
502 1 9.1213 40.2841 3.85824
4096 2 7.76285 42.0377 5.4448
503 1 9.32704 43.2859 0.687764
504 1 9.06269 43.1472 3.60525
565 1 12.1268 43.5131 0.928247
7502 2 -0.458346 24.7904 13.6031
4108 2 13.6278 41.6893 5.21333
3907 1 1.13773 26.3295 6.65948
3851 1 3.69959 20.5467 6.74129
7447 1 1.09316 20.4154 12.5044
3909 1 4.12697 23.5245 6.84022
7501 2 -0.0473274 22.0687 11.0253
3852 1 0.937887 20.536 9.52962
7513 2 5.08331 22.016 11.1728
7505 1 1.22983 23.347 12.4912
3906 1 1.0169 23.4995 9.57921
3914 2 5.28909 25.0817 8.30706
7509 1 3.86251 23.2804 12.462
3903 2 2.33519 21.9732 8.06059
3910 1 3.71499 23.6501 9.41207
7504 2 2.30179 24.9511 10.7505
7459 1 3.69569 20.6716 9.47688
7451 1 3.67299 20.506 12.4514
3908 1 0.939213 26.3604 9.26086
7517 1 6.41429 23.6713 10.1882
3860 1 6.42108 20.9301 9.29747
7519 1 6.51106 26.0616 12.48
7507 1 0.726442 25.961 12.1373
3871 1 12.6487 20.7028 7.03379
7701 1 9.70567 40.907 11.8937
7515 1 6.51937 20.5321 12.6305
3917 1 6.94617 23.8803 7.3009
3929 1 12.5489 23.6503 6.68786
3921 1 10.0074 23.0016 7.39793
7461 1 9.45695 20.4782 12.4401
7463 1 9.44736 20.582 9.92628
7529 1 12.4088 23.2158 12.3997
7525 2 10.5894 22.0536 11.3523
3930 1 12.2684 23.3129 9.53523
3926 2 11.1312 24.9441 8.25042
3872 1 12.2177 20.7628 9.84446
7521 1 9.45956 23.56 9.99668
3915 2 8.36309 21.8176 8.30646
7516 2 8.05718 25.0561 10.8302
7523 1 9.5246 23.9045 12.5506
7528 2 13.1114 24.8729 11.3258
7745 1 0.609997 46.2706 12.5529
3965 1 1.06411 29.1061 6.72798
3979 1 6.59918 32.1751 6.6949
3912 1 3.87082 26.6253 9.63454
3969 1 3.87985 29.1559 6.74115
3911 1 3.95576 26.6093 6.94548
3967 1 0.907245 32.1755 6.55456
7511 1 3.52389 26.439 12.2376
7565 1 0.841032 28.8741 12.404
7573 2 5.13398 27.9348 10.9643
3963 2 2.25225 28.003 8.21775
3966 1 0.92025 29.3248 9.71915
7567 1 1.38355 32.1806 12.3291
3974 2 5.10932 30.8148 8.14413
3968 1 1.09568 32.1053 9.30481
7569 1 3.60523 29.2946 12.1789
3970 1 3.81329 29.4245 9.60154
7564 2 2.2618 30.673 10.9554
3972 1 3.85351 32.3583 9.55005
7571 1 5.64931 31.4586 11.9822
3978 1 6.44982 29.3786 9.61538
3977 1 6.56266 29.3895 6.79394
3919 1 6.70484 26.6183 6.89281
3920 1 6.72076 26.4795 9.66316
7579 1 6.48827 28.9692 12.5385
567 2 13.4243 44.554 2.56888
7588 2 13.6494 30.6915 10.9844
7531 1 12.3275 26.5549 12.4645
7577 1 9.42358 26.3292 12.4801
3932 1 12.6272 26.1133 9.45026
3983 1 9.38869 31.9892 6.89469
3923 1 9.43909 26.1892 6.56295
3931 1 12.0988 26.5099 6.87604
3924 1 9.68549 26.2652 9.53088
3990 1 12.019 29.2752 6.7314
3980 1 6.57908 32.2354 9.55885
7585 2 10.5837 27.9618 11.1513
3975 2 7.97319 27.9111 8.21112
7589 1 12.1027 29.4085 12.503
3986 2 10.5185 30.6437 8.31015
3992 1 12.0266 31.9214 9.72539
7581 1 9.21692 29.1012 12.5544
3982 1 9.44326 29.1546 9.64685
7576 2 7.85263 30.7077 11.1739
7583 1 12.0925 28.8645 9.49494
3984 1 9.18798 32.089 9.79785
7635 1 9.35409 32.0004 12.5927
7591 1 12.2602 31.9951 12.4849
7472 1 12.2934 20.5278 12.554
4037 1 6.40245 34.9837 6.56664
4039 1 6.38783 37.9992 6.78471