LAMMPS (29 Oct 2020)
OMP_NUM_THREADS environment is not set. Defaulting to 1 thread. (../comm.cpp:94)
  using 1 OpenMP thread(s) per MPI task
OMP_NUM_THREADS environment is not set. Defaulting to 1 thread. (../comm.cpp:94)
  using 1 OpenMP thread(s) per MPI task
Reading data file ...
  triclinic box = (-0.21114122 -2.5338005 -0.20710258) to (28.105141 337.26180 28.101103) with tilt (0.0000000 0.0000000 0.0000000)
  2 by 13 by 2 MPI processor grid
  reading atoms ...
  18000 atoms
  reading velocities ...
  18000 velocities
Finding 1-2 1-3 1-4 neighbors ...
  special bond factors lj:    0.0      0.0      0.0     
  special bond factors coul:  0.0      0.0      0.0     
     0 = max # of 1-2 neighbors
     0 = max # of 1-3 neighbors
     0 = max # of 1-4 neighbors
     1 = max # of special neighbors
  special bonds CPU = 0.004 seconds
  read_data CPU = 0.064 seconds
Setting atom values ...
  11880 settings made for charge
Setting atom values ...
  5940 settings made for charge
PPPM initialization ...
  using 12-bit tables for long-range coulomb (../kspace.cpp:328)
  G vector (1/distance) = 0.29833389
  grid = 40 240 40
  stencil order = 5
  estimated absolute RMS force accuracy = 0.00016183572
  estimated relative force accuracy = 1.1238868e-05
  using single precision MKL FFT
  3d grid and FFT values/proc = 15000 7600
Neighbor list info ...
  update every 1 steps, delay 0 steps, check yes
  max neighbors/atom: 2000, page size: 100000
  master list distance cutoff = 11.3
  ghost atom cutoff = 11.3
  binsize = 5.65, bins = 6 61 6
  2 neighbor lists, perpetual/occasional/extra = 2 0 0
  (1) pair coul/long, perpetual
      attributes: half, newton on
      pair build: half/bin/newton/tri
      stencil: half/bin/3d/newton/tri
      bin: standard
  (2) pair eam/alloy, perpetual, copy from (1)
      attributes: half, newton on
      pair build: copy
      stencil: none
      bin: none
Setting up Verlet run ...
  Unit style    : metal
  Current step  : 0
  Time step     : 0.001
Per MPI rank memory allocation (min/avg/max) = 8.312 | 8.342 | 8.361 Mbytes
Step Temp E_pair E_mol TotEng Press 
       0         1200   -233162.54            0   -230370.67   -627.47453 
  100000     1201.294   -233192.06            0   -230397.19   -1053.9612 
Loop time of 703.918 on 52 procs for 100000 steps with 18000 atoms

Performance: 12.274 ns/day, 1.955 hours/ns, 142.062 timesteps/s
99.8% CPU use with 52 MPI tasks x 1 OpenMP threads

MPI task timing breakdown:
Section |  min time  |  avg time  |  max time  |%varavg| %total
---------------------------------------------------------------
Pair    | 452.13     | 463.61     | 476.93     |  30.4 | 65.86
Bond    | 0.0074265  | 0.010589   | 0.016931   |   2.0 |  0.00
Kspace  | 142.09     | 159.76     | 171.67     |  66.7 | 22.70
Neigh   | 51.318     | 54.945     | 59.284     |  23.4 |  7.81
Comm    | 19.34      | 21.037     | 23.833     |  22.3 |  2.99
Output  | 5.9173e-05 | 6.4197e-05 | 0.00027722 |   0.0 |  0.00
Modify  | 2.1298     | 3.0481     | 4.819      |  53.8 |  0.43
Other   |            | 1.511      |            |       |  0.21

Nlocal:        346.154 ave         368 max         330 min
Histogram: 4 5 8 7 8 9 5 2 2 2
Nghost:        3993.23 ave        4073 max        3874 min
Histogram: 2 2 2 6 1 7 13 10 4 5
Neighs:        69571.5 ave       73947 max       66021 min
Histogram: 5 7 5 5 4 15 2 4 3 2

Total # of neighbors = 3617716
Ave neighs/atom = 200.98422
Ave special neighs/atom = 0.0000000
Neighbor list builds = 22040
Dangerous builds = 0
11880 atoms in group oxygen
PPPM initialization ...
  using 12-bit tables for long-range coulomb (../kspace.cpp:328)
  G vector (1/distance) = 0.29833389
  grid = 40 240 40
  stencil order = 5
  estimated absolute RMS force accuracy = 0.00016183572
  estimated relative force accuracy = 1.1238868e-05
  using single precision MKL FFT
  3d grid and FFT values/proc = 15000 7600
Setting up Verlet run ...
  Unit style    : metal
  Current step  : 0
  Time step     : 0.001
Per MPI rank memory allocation (min/avg/max) = 8.563 | 8.593 | 8.612 Mbytes
Step f_2 Temp v_Tdiff v_deltaT 
       0            0     1201.294            0            0 
  100000    1256.9481    1195.7082  0.052821297    613.25035 
  200000    2422.9619    1206.9676  0.063374432    735.77127 
  300000    3575.6281    1203.1025  0.064240925    745.83118 
  400000     4745.438    1205.2683  0.064519949    749.07061 
  500000    5925.5006    1208.3933  0.065167074    756.58367 
  600000    7096.6404    1197.2127  0.062996937    731.38859 
  700000    8270.6566    1212.3798  0.064172638    745.03836 
  800000    9445.4018    1206.2169  0.065774302    763.63354 
  900000    10607.184    1219.3051  0.064789792    752.20347 
 1000000    11786.077    1203.8902  0.063189378    733.62281 
Loop time of 7029.25 on 52 procs for 1000000 steps with 18000 atoms

Performance: 12.292 ns/day, 1.953 hours/ns, 142.263 timesteps/s
99.8% CPU use with 52 MPI tasks x 1 OpenMP threads

MPI task timing breakdown:
Section |  min time  |  avg time  |  max time  |%varavg| %total
---------------------------------------------------------------
Pair    | 4483.8     | 4596.7     | 4701.9     |  92.2 | 65.39
Bond    | 0.066678   | 0.10561    | 0.169      |   6.6 |  0.00
Kspace  | 1435.9     | 1585.9     | 1720.2     | 195.2 | 22.56
Neigh   | 567.99     | 597.71     | 634.78     |  69.3 |  8.50
Comm    | 198.27     | 213.4      | 237.75     |  68.2 |  3.04
Output  | 0.0011819  | 0.0012434  | 0.0024648  |   0.5 |  0.00
Modify  | 5.9828     | 6.5145     | 7.2515     |  11.8 |  0.09
Other   |            | 28.88      |            |       |  0.41

Nlocal:        346.154 ave         367 max         330 min
Histogram: 4 3 9 6 10 8 4 6 1 1
Nghost:        3987.96 ave        4129 max        3912 min
Histogram: 7 9 8 7 10 7 0 0 1 3
Neighs:        69585.6 ave       75170 max       65892 min
Histogram: 3 4 11 7 13 6 3 3 1 1

Total # of neighbors = 3618450
Ave neighs/atom = 201.02500
Ave special neighs/atom = 0.0000000
Neighbor list builds = 238781
Dangerous builds = 0
Total wall time: 2:08:53
