30000
Atoms. Timestep: 2000000
2 26.0986 23.0967 135.041
2 15.8709 14.9446 456.727
2 4.92598 17.5032 68.491
2 26.1778 11.4406 68.7423
1 11.2224 -2.20681 481.565
1 1.83463 5.79235 57.2083
1 13.4495 4.75152 174.411
1 -0.02895 22.5306 68.6724
1 18.6652 24.5881 400.503
1 12.6066 0.13681 70.0749
1 17.4709 17.1281 123.809
1 3.06487 9.99663 83.1468
2 3.81549 7.34596 466.21
2 23.4719 15.4792 167.518
2 22.8106 10.3074 71.7174
2 11.6517 1.68438 55.0479
1 25.6625 12.4491 461.36
1 28.9354 25.5485 108.949
1 13.3882 14.8201 476.231
1 24.0205 28.7952 64.494
1 11.5413 3.88788 347.268
1 23.7637 7.35638 442.61
1 23.0922 17.6162 468.493
1 -1.59158 0.412668 491.811
2 25.6055 15.447 59.1822
2 17.8026 17.711 91.6789
2 11.6834 27.0869 79.8204
2 14.1717 27.3391 479.111
1 3.12859 13.1236 377.223
1 20.1274 25.741 136.109
1 23.3889 -0.658365 132.805
1 18.0092 16.3315 464.069
1 25.4224 2.35619 475.154
1 21.4214 13.6718 487.953
1 5.11213 12.6562 410.935
1 8.70844 6.28268 83.154
2 13.6374 12.0429 55.7223
2 13.4456 24.3519 55.0251
2 24.4762 24.5875 57.7283
2 4.89951 0.0899678 95.0832
1 20.1418 21.0341 398.989
1 0.584327 1.96409 70.0415
1 27.3883 29.2025 438.773
1 0.841907 27.5756 139.443
1 4.29252 22.8542 142.942
1 26.0847 12.6611 158.857
1 28.796 2.1999 484.934
1 -1.64207 11.378 159.008
2 4.83318 23.7511 86.1114
2 3.52922 10.447 464.113
2 24.7895 12.5986 490.2
2 26.5492 9.72978 480.289
1 9.32472 10.9926 144.414
1 4.54382 18.8932 417.781
1 9.33022 25.9286 453.169
1 10.7541 8.04505 157.376
1 8.0901 28.2713 76.1628
1 7.24857 26.2173 443.371
1 10.2871 -0.716219 99.6083
1 27.8465 19.3367 357.592
2 10.0949 10.0254 432.214
2 4.13328 1.73619 64.1782
2 17.3337 2.39927 71.8209
2 6.68641 -0.616122 102.136
1 0.971976 20.3713 316.335
1 16.0313 8.57776 452.553
1 1.73986 3.02974 442.919
1 2.92709 28.9513 99.9211
1 4.6545 23.0705 421.359
1 22.9196 -0.198079 118.621
1 15.247 17.4568 437.641
1 2.24693 18.9566 54.8597
2 26.1582 0.42308 53.2567
2 12.0739 1.84016 486.109
2 10.6754 13.8317 434.276
2 2.86277 16.7388 54.3286
1 3.63022 3.5568 100.155
1 8.23083 1.42865 472.203
1 11.5177 9.31131 79.7015
1 22.2053 19.1134 70.4635
1 8.53038 11.4481 180.311
1 27.9363 24.05 408.82
1 23.5104 12.6002 446.837
1 7.81962 16.9894 122.038
2 8.48821 27.6058 471.936
2 10.2279 0.961294 478.068
2 7.01321 3.79912 63.2247
2 3.38166 25.1583 112.602
1 23.4285 7.8438 463.04
1 17.7283 -1.67823 59.5287
1 12.4145 6.93114 444.453
1 15.7865 22.5236 96.2729
1 24.0637 25.135 62.4849
1 29.4458 15.8008 477.371
1 25.6724 16.9348 108.272
1 10.4597 2.40581 59.7991
2 12.6753 27.9912 101.884
2 20.6079 17.0644 87.2468
2 17.1863 25.9755 469.5
2 1.22137 18.1185 430.518
1 27.3066 12.3476 474.426
1 16.9099 3.25026 54.5087
1 9.53624 18.4567 482.346
1 20.0724 22.2475 68.681
1 0.11377 10.0549 54.5621
1 0.410813 20.6156 108.671
1 5.14295 24.5349 158.039
1 10.3222 2.62273 87.4823
2 23.4589 5.13615 481.246
2 4.04833 0.405775 480.774
2 21.0263 16.8714 462.858
2 5.00491 28.1309 448.154
1 0.270868 18.1351 96.9451
1 13.9573 12.9616 127.631
1 -2.32722 10.734 444.356
1 20.1754 -0.514893 481.417
1 24.0708 20.1828 77.9791
1 9.05896 0.0900455 399.809
1 29.2555 25.3516 482.191
1 2.44925 11.5589 55.5771
2 -1.23438 26.4515 487.306
2 7.72035 12.4382 493.501
2 14.8589 27.3946 475.371
2 2.04382 7.32203 67.8776
1 5.07306 12.069 465.822
1 24.9689 8.20617 473.56
1 23.3764 26.026 56.4012
1 16.4533 28.3858 427.255
1 7.34228 1.8351 83.8115
1 11.5152 27.2159 117.509
1 -0.794252 3.57775 77.6569
1 22.3072 12.9886 475.131
2 1.3469 1.16672 54.5228
2 8.426 14.8464 447.127
2 20.0599 14.1381 448.33
2 23.2963 23.6107 492.967
1 23.6005 25.8224 71.3878
1 24.1886 22.8308 384.579
1 1.51826 26.1361 413.42
1 22.2961 8.13951 60.9882
1 3.30188 6.14724 440.149
1 24.2882 9.47699 397.556
1 18.2536 10.3471 118.6
1 -1.33826 -1.6427 115.595
2 -1.50256 19.4035 97.4391
2 -0.887726 23.2398 468.541
2 3.35827 15.2993 98.1773
2 15.6523 -0.755822 451.274
1 0.235314 0.409516 122.452
1 10.3313 21.4924 66.2508
1 16.2787 26.4047 446.347
1 18.4578 14.9056 191.296
1 15.8991 9.40456 151.086
1 15.9935 7.66849 81.562
1 15.1473 -1.71234 78.8699
1 10.3754 -0.0258902 56.3901
2 4.68193 9.04279 84.6354
2 26.6459 3.29991 72.531
2 24.536 21.5834 65.3817
2 3.10755 13.9634 488.023
1 1.03186 21.8285 245.561
1 22.7073 13.4227 112.773
1 24.418 7.75254 200.61
1 15.1931 8.17819 169.659
1 28.4743 17.5229 67.7845
1 18.2867 -1.32023 492.695
1 29.2359 28.822 430.769
1 16.4466 19.8777 54.8165
2 14.586 2.67785 472.735
2 9.16926 22.9362 489.134
2 13.9527 13.4907 474.492
2 7.34521 26.2143 483.484
1 13.6595 21.5711 111.714
1 -1.59579 2.08672 88.4087
1 17.442 7.40147 138.579
1 12.0968 -1.91914 124.178
1 1.22786 21.5721 450.317
1 4.88902 27.4071 73.4263
1 5.1488 6.4819 485.198
1 -2.26676 27.8251 140.27
2 17.0218 24.8384 88.6215
2 10.3811 9.89302 62.784
2 27.5541 1.90612 468.641
2 9.78159 3.9516 90.6773
1 15.9256 -1.81743 190.388
1 26.1431 0.778381 96.4261
1 5.07161 2.43568 488.295
1 10.7631 5.41203 66.8231
1 28.3333 10.5079 67.902
1 6.28002 9.46305 72.5539
1 6.65922 1.77544 459.581
1 12.9145 26.7868 491.144
2 2.35909 21.1895 438.458
2 2.61624 25.8414 56.4028
2 -0.594629 1.35709 71.8424
2 1.40865 -2.25907 93.887
1 13.145 4.81097 465.613
1 26.7984 22.2664 454.009
1 21.7111 25.9002 405.847
1 10.579 23.5932 84.9379
1 10.9831 12.7169 477.845
1 21.5269 15.4011 459.114
1 10.5477 20.2775 455.963
1 4.00554 13.0838 57.3558
2 19.7946 10.8091 466.225
2 27.6672 17.9744 480.71
2 27.1556 16.2744 477.22
2 25.1376 1.38585 439.856
1 22.0964 5.67916 78.0589
1 -1.68655 28.8774 60.6575
1 23.878 3.29736 105.139
1 7.87022 25.2673 459.293
1 13.938 8.93799 415.687
1 1.18342 -2.08126 451.199
1 6.52352 22.4284 60.3571
1 9.26519 6.0244 54.6924
2 -2.28355 13.694 459.423
2 20.5354 25.6103 87.0324
2 20.0043 9.45333 429.589
2 2.42775 -1.10389 411.691
1 18.1733 26.8165 71.8075
1 19.2353 9.7977 83.3739
1 1.61559 23.7812 81.4275
1 26.0065 20.9817 189.422
1 15.3006 10.384 88.5566
1 25.107 24.7559 158.554
1 0.37142 17.1906 78.3427
1 26.957 11.947 452.434
2 8.63242 18.3592 463.155
2 20.1557 3.17702 75.5881
2 24.9042 11.0594 80.6844
2 16.6039 25.6123 462.14
1 5.06698 9.7579 62.9177
1 6.84264 25.9755 456.94
1 27.2599 4.32572 64.1765
1 13.8425 5.30902 91.7788
1 29.0159 19.2568 174.156
1 14.8117 23.4015 87.8891
1 25.1769 23.1241 143.181
1 6.62874 4.08646 461.909
2 1.1719 8.89275 82.5981
2 18.478 14.0827 88.6046
2 27.2626 20.1631 477.633
2 4.89638 15.02 484.626
1 28.9718 10.1986 91.9768
1 18.9385 12.9543 102.248
1 26.4382 20.2262 437.357
1 6.71559 17.1703 70.5339
1 6.07575 5.96039 67.4524
1 25.9333 11.0221 110.794
1 4.66069 4.47998 456.083
1 17.1886 -1.57791 64.7908
2 20.911 6.91376 81.3877
2 29.2589 -0.90859 78.1068
2 6.53282 11.6154 63.5325
2 4.78311 18.3088 400.32
1 19.1312 18.4687 462.684
1 15.7695 0.839541 71.4377
1 7.68826 5.35873 57.1383
1 1.81515 3.55566 122.286
1 15.1841 23.5841 59.7345
1 8.03846 25.7555 109.969
1 13.8656 10.121 126.377
1 14.6467 4.7078 57.9811
2 0.373339 9.40915 86.3653
2 0.297548 -1.83831 418.748
2 14.9387 4.63833 484.769
2 1.64594 6.63775 488.4
1 13.6138 -2.24806 459.231
1 10.8939 11.6034 437.782
1 0.62575 6.17687 478.413
1 20.2452 -0.13647 458.44
1 26.9136 7.22266 58.768
1 26.6637 0.959688 472.449
1 28.2498 22.8494 483.73
1 17.9765 23.8355 70.3448
2 8.70283 21.0033 466.502
2 10.1637 25.7787 414.895
2 5.88665 24.753 442.166
2 11.1371 25.6214 448.153
1 10.0373 10.639 82.0193
1 7.50467 6.5074 86.9039
1 4.20458 19.0404 472.118
1 6.77463 17.5518 490.554
1 29.6586 10.0319 106.381
1 22.2035 9.67315 461.777
1 6.42724 24.169 440.204
1 11.0153 18.6493 61.4496
2 28.454 26.7458 467.547
2 3.37901 24.8619 89.6842
2 24.5106 0.768463 86.3257
2 1.97905 15.0336 444.216
1 6.45974 12.9421 461.315
1 13.1797 14.5265 421.819
1 6.10015 20.8064 466.826
1 28.2596 9.00144 83.9031
1 18.4756 16.9339 477.936
1 13.2457 25.285 422.621
1 28.009 26.2244 91.8007
1 11.0495 29.0907 100.999
2 -0.754376 27.9809 77.8255
2 22.1145 6.82189 143.207
2 20.7642 27.9157 485.262
2 21.2844 0.292142 449.006
1 3.99448 -0.204789 81.0629
1 0.975959 24.8841 133.992
1 27.0016 27.4341 377.501
1 6.72556 21.4911 474.412
1 0.469881 12.2901 484.525
1 2.57138 28.1796 411.834
1 27.4393 13.7569 463.145
1 2.40364 7.01439 450.249
2 29.208 17.9674 114.347
2 3.78345 9.20799 103.508
2 15.0822 14.5957 109.281
2 12.4541 13.924 465.207
1 6.51342 12.6239 95.5921
1 13.0058 4.79059 483.517
1 1.52116 19.2761 447.473
1 12.8919 2.6271 425.204
1 29.4084 9.90646 453.193
1 9.92051 6.84692 85.4296
1 25.7088 14.3556 236.74
1 18.0762 4.10897 103.4
2 24.3386 0.258269 474.473
2 1.99515 12.0198 124.203
2 22.3878 6.35011 457.195
2 23.0632 9.06164 472.647
1 8.84993 0.9337 218.251
1 0.0662796 8.01835 84.5598
1 21.5542 13.6926 483.102
1 10.4753 13.2559 484.917
1 21.1636 -0.12165 429.128
1 5.49122 22.7924 120.837
1 21.691 25.7392 473.781
1 24.413 3.27039 482.326
2 14.0836 23.9439 477.369
2 17.178 9.64775 82.1418
2 12.1456 0.625432 463.92
2 1.51365 11.6774 156.177
1 19.474 0.259714 91.4274
1 14.8006 6.48019 78.3858
1 16.233 0.185799 95.9564
1 22.1679 18.071 59.8083
1 22.8293 24.7187 107.958
1 9.1928 18.0842 85.2788
1 -0.514646 17.5461 151.634
1 15.2031 7.94683 490.849
2 26.5995 23.0366 452.014
2 9.3371 15.5426 146.263
2 26.0742 -0.818017 72.7173
2 11.5501 6.06481 485.368
1 10.7924 24.483 88.7683
1 24.6276 25.9712 474.754
1 22.8768 7.07763 165.661
1 20.142 22.1429 457.275
1 15.8594 16.4272 471.218
1 4.01786 -0.889372 71.812
1 -2.35003 -0.0364122 388.872
1 1.71434 10.0649 88.8052
2 10.9776 29.2667 458.553
2 5.21331 -1.19928 79.5882
2 8.12498 -0.178272 130.496
2 0.880766 28.0937 106.544
1 -2.10123 -0.25635 453.704
1 23.9092 17.3468 128.017
1 15.2585 28.9817 451.513
1 4.04775 -2.02059 56.8117
1 2.47009 23.1266 475.006
1 24.4821 3.59832 79.0536
1 25.2011 2.91936 430.286
1 5.50303 14.8224 463.402
2 0.561927 19.6763 110.891
2 -0.284098 3.91483 485.903
2 19.7463 29.3932 60.5233
2 20.7316 7.95088 62.6271
1 22.1011 6.8493 64.3861
1 9.34071 9.72627 447.522
1 4.36096 22.7398 480.898
1 26.9768 0.342894 100.495
1 1.12126 18.9143 76.1034
1 25.3929 6.53567 82.3739
1 5.23785 18.7947 115.977
1 16.7003 4.91065 67.1706
2 1.23386 25.0731 125.667
2 10.3703 18.286 477.154
2 28.7739 22.6406 492.027
2 -0.684681 27.0215 59.3269
1 15.2109 0.195577 215.773
1 6.16701 20.7605 461.506
1 -0.545899 23.9448 451.466
1 15.7685 1.34446 467.643
1 23.8894 27.4818 61.4074
1 18.0919 14.5861 67.778
1 3.57262 27.1663 64.7019
1 15.9727 2.32383 491.781
2 6.51867 18.5397 62.9776
2 10.5378 10.6974 130.431
2 13.8543 0.814891 64.5843
2 10.9729 13.2605 490.949
1 0.403697 20.004 159.484
1 2.53991 1.75312 115.025
1 14.5161 23.5547 148.495
1 24.991 28.9641 482.742
1 16.3674 15.3604 430.629
1 11.34 14.9432 116.164
1 17.2134 -0.487327 146.07
1 15.8585 4.81572 442.505
2 23.6375 1.25185 64.11
2 19.477 1.34352 435.908
2 18.2856 23.3884 456.513
2 29.1993 5.31533 70.4666
1 3.66075 24.5205 73.7555
1 19.0918 18.8224 454.791
1 20.7137 11.5052 85.6406
1 23.0417 26.3084 115.578
1 18.5364 27.8462 131.826
1 9.64032 17.0647 117.071
1 18.3977 27.0336 399.29
1 -1.28081 6.26083 72.0162
2 17.6418 18.535 66.6772
2 28.5797 11.4292 79.4521
2 22.5386 3.65175 157.063
2 27.8059 5.01286 475.612
1 16.7726 7.54753 135.446
1 -1.55744 20.9187 492.086
1 18.5653 7.20825 73.7705
1 10.8424 27.417 125.029
1 7.50602 8.97255 486.619
1 1.43008 7.98537 223.207
1 4.15076 11.7085 75.8509
1 1.51031 23.643 459.94
2 25.5438 1.65981 78.6206
2 25.9951 11.9524 483.246
2 -0.258707 12.7136 99.3192
2 5.58275 27.313 81.8197
1 0.201184 26.8309 473.359
1 15.9998 10.1068 131.599
1 13.6542 21.5552 72.0957
1 3.40028 4.25986 91.3252
1 15.8849 7.78151 478.634
1 5.02655 1.6063 75.0468
1 10.0581 26.473 136.435
1 6.20901 6.39867 118.035
2 25.1906 29.6034 84.0995
2 8.99793 1.25691 113.397
2 8.01516 3.7979 70.2171
2 6.51617 12.7465 441.848
1 25.3269 16.9665 434.875
1 19.1457 25.2676 54.4185
1 22.5721 15.4237 485.942
1 16.603 8.82188 92.7972
1 16.9501 1.45805 485.295
1 21.6581 8.92058 142.125
1 27.5866 11.3772 53.4446
1 3.26073 27.8533 460.607
2 13.8215 22.7796 460.184
2 11.4067 24.3402 82.8532
2 21.8466 21.0779 62.5739
2 23.8611 0.541398 481.205
1 26.2084 16.2825 461.693
1 8.56264 -1.15302 113.054
1 16.5945 6.28786 450.986
1 21.1376 -1.7994 137.405
1 15.1456 -0.507696 104.846
1 10.0665 28.3782 423.897
1 -1.83588 7.0387 438.022
1 4.62438 0.972096 492.503
2 11.1782 3.54399 106.295
2 7.75662 19.344 489.224
2 29.6567 26.2214 85.234
2 20.3034 23.4718 70.6477
1 15.0942 28.4072 81.8391
1 15.9154 8.48849 68.0359
1 0.382857 -1.54484 87.0011
1 23.5919 3.61438 470.292
1 1.79356 9.72708 71.1842
1 19.8626 12.4147 109.337
1 1.65311 19.5676 471.767
1 14.1 3.93733 114.064
2 8.28537 10.0794 490.609
2 25.3707 4.43772 477.893
2 13.1497 19.4457 62.1842
2 12.8767 24.831 445.277
1 11.3731 7.07516 118.127
1 -0.2261 19.4906 67.1716
1 25.0272 4.03854 108.605
1 7.68449 25.8835 74.5037
1 26.976 11.4694 441.117
1 9.80154 14.33 415.991
1 10.3005 19.2706 108.344
1 0.389202 0.438269 133.685
2 14.9226 5.06333 70.7875
2 8.27276 0.47525 55.6416
2 18.2518 13.2355 150.929
2 14.9065 20.4709 65.7806
1 25.9866 1.6229 63.7972
1 26.3719 4.14046 67.0054
1 9.92729 15.912 424.793
1 3.47742 -1.78807 462.793
1 19.0135 17.7943 441.8
1 11.661 19.2332 76.3173
1 10.6418 19.1961 94.1856
1 20.9901 -1.36708 68.9937
2 6.71063 10.2349 390.556
2 20.4447 8.82625 117.95
2 17.4314 7.52624 490.53
2 25.5198 6.96285 60.672
1 15.3133 1.95637 448.259
1 -1.87069 0.919782 469.481
1 4.64848 15.0228 456.831
1 9.48035 27.7393 383.093
1 18.254 -0.999605 122.089
1 17.1544 -0.432369 487.232
1 13.3562 1.02583 106.884
1 21.6425 14.2838 130.73
2 23.0016 1.9545 490.557
2 5.32422 26.5763 54.457
2 6.01809 -2.25241 412.189
2 25.8636 12.0207 106.775
1 24.7595 19.4754 492.404
1 6.65529 15.1517 90.0722
1 24.6741 23.7384 477.638
1 14.0429 5.72866 68.6253
1 1.2337 8.17053 117.457
1 13.368 23.9233 464.345
1 8.83886 3.17434 107.02
1 5.38242 -1.63065 74.691
2 8.06924 11.6714 478.774
2 19.375 4.33327 61.6417
2 27.8895 23.5777 64.4392
2 6.99328 -2.01992 67.4146
1 5.18886 16.425 103.773
1 16.3191 28.4074 469.275
1 6.11749 -0.214219 56.1609
1 27.3021 28.8901 57.9423
1 23.1741 7.12584 213.788
1 13.8177 18.1502 60.3708
1 28.3805 21.8002 106.233
1 11.3993 1.88167 384.215
2 9.01326 17.0978 112.575
2 7.33422 27.4792 409.463
2 14.968 0.944848 483.367
2 4.40747 24.8841 78.9848
1 5.95218 10.4656 58.3614
1 0.350264 4.41707 75.0885
1 24.9669 0.134483 66.2081
1 13.8097 11.4796 67.4235
1 24.5366 17.939 171.334
1 27.7295 11.415 86.0473
1 11.5652 13.9796 471.59
1 -0.732761 0.478311 120.055
2 1.30578 24.9756 484.607
2 13.4335 29.1131 59.243
2 17.6374 28.8653 478.153
2 19.2529 28.1119 79.2666
1 29.6007 14.5594 386.248
1 21.9465 18.2068 486.195
1 2.90448 4.24585 60.2554
1 24.991 16.9079 159.007
1 24.2127 26.0167 74.3286
1 10.7143 25.6933 150.156
1 28.2656 1.26295 409.479
1 24.8092 10.1998 53.5545
2 18.234 15.7754 60.6105
2 1.62238 18.452 452.378
2 17.3629 16.0034 144.359
2 14.3023 16.7305 482.616
1 11.9877 -0.871372 90.1278
1 16.9957 18.6267 332.044
1 29.6551 0.893843 95.3862
1 20.2338 2.2931 402.321
1 8.82308 21.2342 58.0422
1 2.52251 1.35595 90.6032
1 9.10719 20.8773 126.046
1 8.94224 20.7346 139.967
2 12.2633 26.0105 61.6891
2 29.7111 14.9777 102.381
2 6.88751 9.33307 472.197
2 13.8182 21.7204 141.445
1 4.39163 10.7686 482.361
1 5.0875 16.5642 435.255
1 3.12199 18.0904 459.84
1 5.32753 24.4412 487.837
1 15.5401 29.1835 74.4706
1 3.05202 16.5221 67.0799
1 21.4099 20.755 487.661
1 16.8844 26.4229 93.8106
2 14.4122 23.7609 473.551
2 7.55667 2.60664 96.3096
2 11.5209 17.845 55.0656
2 7.24218 8.85992 466.097
1 27.6808 4.95609 140.495
1 25.9568 -0.99463 132.217
1 26.2152 29.3562 477.708
1 13.5953 17.248 63.0093
1 14.8885 2.36416 96.9824
1 1.94332 9.63275 110.615
1 27.5199 21.3659 410.172
1 0.177062 16.5438 444.136
2 11.4492 20.4328 68.1318
2 7.8312 20.5995 476.31
2 7.7769 -0.443451 459.374
2 9.7844 28.2563 445.523
1 8.4601 12.4391 446.951
1 12.1009 22.9891 93.6959
1 20.0834 20.3017 100.446
1 11.7315 16.0021 465.966
1 8.67503 23.4833 491.159
1 3.61588 7.09277 104.633
1 25.7883 12.2577 455.135
1 11.9201 6.4124 153.671
2 -0.462957 9.77251 453.419
2 4.10332 9.23055 71.0921
2 15.8441 7.3929 101.669
2 20.8749 24.0765 80.7552
1 18.6333 2.62783 58.4431
1 2.11643 10.0988 102.085
1 -1.26209 10.3696 421.865
1 4.89587 26.5418 92.796
1 0.378711 9.25798 115.1
1 4.20742 17.0326 127.971
1 16.7827 20.6755 100.867
1 20.5385 15.8142 466.234
2 4.79049 21.2187 61.2652
2 -0.165528 29.1344 465.79
2 14.9623 11.9929 65.4791
2 14.8376 -0.689813 128.229
1 5.67539 3.0296 469.352
1 7.79424 27.0893 89.7142
1 10.3108 -1.87716 70.1832
1 13.8552 23.8949 66.0163
1 -1.31327 19.3814 436.747
1 24.23 17.9606 119.285
1 -2.24026 25.1421 74.5001
1 3.37551 9.7853 466.665
2 11.2729 0.945887 81.7176
2 2.411 13.302 61.0176
2 2.15561 0.249953 463.218
2 8.25321 5.91537 66.4334
1 12.984 24.0283 158.102
1 17.4061 8.24103 469.114
1 5.41531 17.3109 458.638
1 28.5114 15.38 425.439
1 28.4416 20.5528 148.36
1 0.507887 21.5414 74.1782
1 26.7911 -0.567802 113.047
1 13.6439 22.4919 102.204
2 7.86355 -2.20812 490.228
2 19.5985 24.8048 442.806
2 20.9098 22.9809 459.594
2 25.4914 18.0061 115.19
1 7.96561 7.1999 477.889
1 21.3443 10.9057 88.4124
1 10.9613 -0.797425 53.741
1 23.816 29.616 76.5361
1 28.1717 28.4253 115.006
1 8.72687 8.24629 409.191
1 22.2295 5.51578 83.0646
1 2.7485 4.26169 94.0416
2 20.6848 12.9457 111.485
2 4.00062 5.44166 416.893
2 10.2096 27.9345 64.8127
2 4.48633 19.0238 94.3471
1 22.8904 10.97 426.534
1 0.446111 18.6838 147.166
1 13.3268 6.86448 57.1681
1 -1.71134 1.96404 452.001
1 11.1072 25.2754 65.2338
1 25.254 3.09301 57.5309
1 17.2383 28.3367 100.175
1 23.9016 2.54129 113.856
2 1.93078 22.6378 481.312
2 0.888789 9.16829 100.633
2 10.9004 19.3516 64.8191
2 23.7067 19.7389 59.3067
1 25.0683 16.2506 111.047
1 2.73826 28.589 402.419
1 27.1117 19.7013 482.387
1 10.2819 22.7161 96.447
1 9.01152 11.8841 86.7711
1 11.0219 24.4641 116.674
1 5.88155 1.99145 406.033
1 27.5671 11.4113 136.593
2 2.40036 27.5242 62.3673
2 4.78043 9.94547 492.527
2 8.31164 5.23132 93.8395
2 15.3046 14.6757 452.74
1 29.6289 24.2506 448.103
1 4.50049 -1.56283 172.087
1 19.8656 3.72113 77.9695
1 22.2376 1.16698 65.8548
1 11.2992 2.68845 477.354
1 9.5866 1.34774 101.84
1 15.5523 20.9986 215.527
1 14.8512 2.50426 463.488
2 15.2478 14.367 485.355
2 25.241 11.808 65.122
2 -1.53039 2.32074 97.1787
2 22.9048 -0.692558 67.3629
1 -1.17888 20.2546 103.063
1 23.7769 4.66297 95.6992
1 7.5485 23.3042 461.314
1 19.3054 -1.96677 99.1826
1 0.00866623 14.146 103.264
1 5.78983 -0.354555 430.457
1 28.5445 9.44841 481.115
1 28.985 17.5436 111.591
2 11.1186 7.19537 490.605
2 23.8026 13.9837 83.0615
2 7.15821 -0.978269 107.874
2 11.2292 5.90476 76.5325
1 11.028 14.6303 168.38
1 22.0049 21.6055 470.349
1 0.257831 1.53692 454.277
1 19.0433 9.04504 134.486
1 12.8202 0.700917 484.291
1 19.9774 15.6687 102.965
1 4.92081 7.02641 71.7125
1 11.9206 5.40729 447.768
2 13.9527 11.2372 84.685
2 17.5288 26.1171 69.6583
2 12.4979 -1.6376 71.1679
2 20.4635 5.8992 111.326
1 -1.50291 11.1746 140.924
1 8.20055 -1.6104 97.4894
1 11.256 20.0171 396.132
1 29.1771 12.1605 71.9558
1 20.0962 6.89141 468.299
1 22.8984 4.12901 58.6399
1 4.94395 17.9026 54.2617
1 4.63704 7.54188 112.286
2 11.2073 17.1601 115.455
2 14.2912 -0.163966 101.507
2 24.9323 29.0389 491.779
2 16.5674 15.8241 79.2415
1 4.22796 10.9301 137.497
1 7.57303 16.1008 481.248
1 20.3377 5.92376 93.2177
1 20.3791 5.9331 85.646
1 27.9789 22.5672 56.6549
1 22.6059 15.8123 480.862
1 4.73377 19.2152 77.4845
1 20.4688 20.986 55.4353
2 11.1268 8.20487 474.135
2 22.6881 3.12942 67.2856
2 21.5223 -0.942644 91.4297
2 6.24884 29.4262 56.8824
1 13.4286 16.2861 384.099
1 4.5552 8.86277 87.6082
1 9.24144 20.1301 478.418
1 -0.934782 19.5132 106.672
1 12.7168 29.0126 91.9202
1 28.0448 14.7575 141.526
1 21.8025 18.3888 475.695
1 17.5923 9.73733 489.565
2 0.27374 16.9335 60.04
2 13.8396 15.8711 61.0522
2 8.5328 20.1482 105.194
2 -2.06783 14.1133 75.35
1 11.9881 14.3298 239.294
1 22.9293 26.3676 409.668
1 9.23769 9.43181 104.188
1 8.08826 29.0277 108.714
1 16.8682 26.7202 59.4265
1 22.7846 22.9946 110.292
1 6.37945 1.52743 474.678
1 12.4389 25.2353 438.597
2 17.2231 6.92789 61.4501
2 20.2942 20.8589 92.997
2 13.1662 15.928 64.9452
2 1.80806 3.98702 491.839
1 3.14391 16.6883 77.323
1 20.9557 11.0143 127.143
1 6.75232 1.74044 195.494
1 16.4643 4.11434 486.155
1 19.5981 22.5162 454.477
1 1.38237 1.89061 155.575
1 24.1284 1.59075 94.7614
1 19.421 5.91508 493.549
2 -0.634285 7.02385 470.329
2 15.6778 10.1609 99.3485
2 28.9657 0.660442 74.0072
2 -1.75656 2.36799 119.436
1 10.4627 27.6134 426.411
1 9.28412 20.8541 441.742
1 5.28182 -0.424439 437.769
1 25.145 -2.23767 418.579
1 24.7286 17.3902 88.0749
1 20.9877 26.1078 122.124
1 22.8154 9.05968 69.4553
1 25.2027 15.5961 143.838
2 13.5942 4.33742 74.2839
2 7.27563 -1.48261 119.429
2 19.4458 -0.519863 77.6408
2 23.0862 -1.41411 54.2316
1 22.9053 26.9871 445.764
1 0.645166 5.76643 185.194
1 23.0891 19.2268 437.314
1 21.662 25.3753 94.4439
1 28.12 12.3655 431.073
1 18.3726 8.95847 485.194
1 20.6664 2.73494 119.895
1 29.6824 16.0155 433.371
2 20.6816 29.0873 85.3931
2 0.118069 9.76886 66.465
2 5.30802 5.46978 90.7214
2 19.3464 6.41019 121.1
1 14.3439 14.7979 466.052
1 28.3772 0.424929 107.296
1 6.27179 24.7065 466.068
1 5.85793 17.143 135.753
1 11.8852 10.0239 95.6475
1 27.6072 15.6482 458.772
1 29.1049 16.0652 89.0165
1 9.78855 3.25703 73.2409
2 -0.978788 25.3314 98.5404
2 15.843 26.1301 488.813
2 15.4796 13.3202 58.9737
2 -0.735669 25.6508 63.1101
1 13.8543 6.66812 441.867
1 25.4212 24.4699 402.092
1 11.0336 0.446978 491.206
1 29.1415 23.02 480.935
1 0.545684 8.74202 140.307
1 15.7542 24.825 393.362
1 29.347 3.59163 439.163
1 29.1445 3.26434 117.384
2 26.3265 15.8938 483.707
2 2.53422 21.7172 80.8235
2 0.0745738 2.3039 79.8573
2 24.356 22.2815 475.685
1 12.908 14.502 461
1 26.1329 18.0735 62.404
1 24.8559 25.2894 457.159
1 -2.19145 20.4832 139.493
1 7.99034 -0.192881 464.832
1 6.30541 13.2876 468.716
1 27.5136 18.4013 88.0046
1 20.1621 14.9759 456.484
2 20.1041 22.1658 96.9403
2 0.54078 15.2428 63.4756
2 19.7131 13.0205 492.546
2 11.2392 21.2092 94.9381
1 14.6235 1.18573 90.4318
1 18.9302 12.4846 461.873
1 10.3065 0.735004 111.008
1 22.7095 28.7288 84.3526
1 12.8975 11.6198 64.4232
1 7.95049 19.5369 182.326
1 14.7281 2.1597 62.5269
1 0.0171763 3.83659 93.3693
2 22.8379 15.7476 94.3963
2 11.3482 9.13175 487.307
2 28.1532 13.8653 99.1618
2 -0.21009 20.1116 69.697
1 1.72646 19.4005 477.386
1 12.121 6.96651 427.536
1 13.2454 27.025 136.107
1 2.15953 25.8913 435.028
1 8.44231 -0.567586 479.822
1 20.9194 0.330879 437.643
1 18.8255 12.0996 78.6622
1 29.2078 23.1328 411.737
2 13.5087 -1.12611 493.565
2 2.41455 7.46478 106.464
2 9.82495 4.37897 80.1556
2 16.6128 -1.98359 69.7827
1 27.4526 -1.15619 54.694
1 2.74913 24.2498 91.9062
1 18.4501 9.53679 86.1316
1 13.1083 20.9391 410.978
1 20.5069 27.4195 456.971
1 19.8414 13.2987 83.7245
1 23.2251 28.2659 68.8971
1 -1.17582 25.1173 69.1076
2 1.48658 13.3551 475.99
2 8.21343 6.4526 473.002
2 -1.83252 26.9924 475.28
2 3.85675 19.8512 89.9655
1 24.0083 4.49622 101.591
1 23.4096 15.8327 206.567
1 17.7794 18.1956 446.647
1 17.7308 18.7638 97.1185
1 -1.98076 11.0773 65.3848
1 13.4378 24.8059 160.79
1 1.92463 -2.16778 466.98
1 22.6311 6.48803 454.702
2 17.3708 1.86349 83.263
2 14.3452 7.21825 83.064
2 15.1563 29.2085 103.822
2 2.69022 27.1784 73.0199
1 25.3027 22.1381 493.026
1 17.0757 -0.156951 77.4494
1 25.8168 18.1417 469.872
1 15.881 1.70954 148.077
1 13.5932 -0.833377 154.05
1 18.353 29.42 440.245
1 29.6137 -2.07253 464.145
1 4.64419 2.12828 179.061
2 26.9911 -1.51912 467.967
2 7.33778 21.3197 93.9717
2 1.96725 1.09027 153.517
2 29.5693 3.60697 63.9273
1 28.8657 15.2912 91.7812
1 1.12812 19.0663 136.838
1 12.9238 21.3996 56.7158
1 29.318 6.64758 60.1795
1 10.728 12.384 57.3474
1 23.0901 6.33894 74.696
1 3.82931 12.3532 218.958
1 7.91934 28.6429 99.3736
2 12.2587 14.4153 83.7534
2 13.5856 9.2646 104.88
2 0.351262 16.9691 80.6983
2 2.93244 16.8525 466.772
1 5.19435 0.544232 59.3537
1 9.88005 5.68748 188.046
1 12.4401 13.8873 449.552
1 14.4616 29.6132 108.978
1 15.7628 9.12209 128.737
1 15.5845 9.39729 475.393
1 29.1637 10.3147 491.799
1 5.53076 25.1242 83.1223
2 9.24019 16.7191 100.424
2 2.24287 25.3964 467.134
2 2.25712 12.0766 84.0448
2 10.3419 0.651895 68.863
1 17.3487 27.7272 463.36
1 12.6677 22.0112 487.923
1 1.90333 12.2433 471.972
1 25.5965 23.4159 474.154
1 0.236507 21.1974 407.682
1 13.0071 22.2932 131.943
1 22.3309 1.48002 87.1789
1 8.13634 11.3779 484.14
2 3.76828 11.7044 473.469
2 25.9293 8.99689 109.402
2 22.1292 26.2229 69.6428
2 -2.30093 16.7055 485.462
1 3.79498 2.85 116.947
1 3.94641 19.7695 402.29
1 17.447 9.03251 143.17
1 0.421564 4.97256 404.382
1 12.4991 17.2936 126.422
1 26.6278 21.0595 440.352
1 4.56847 -2.09173 59.477
1 1.06319 1.00437 88.1976
2 23.6721 5.09028 441.643
2 19.5722 24.5139 492.528
2 21.4156 7.3806 158.262
2 27.2072 24.9996 440.91
1 23.4671 6.96036 71.9567
1 0.472419 4.77829 468.128
1 12.7799 21.9956 477.88
1 13.1498 15.15 108.316
1 26.5773 9.04385 95.3986
1 14.2325 13.3715 437.697
1 28.604 12.5166 142.827
1 19.6421 6.87351 113.329
2 25.6889 29.097 69.1509
2 28.6154 21.544 448.325
2 13.5984 24.9548 103.904
2 14.2195 17.3886 82.076
1 28.5249 12.403 486.701
1 22.6518 0.77674 123.819
1 29.0866 7.33869 92.6367
1 11.1222 5.50866 358.958
1 12.8403 17.3365 93.2491
1 12.9878 22.0757 79.7403
1 27.7044 3.59379 487.226
1 23.6051 24.4344 487.399
2 16.2465 5.91239 92.259
2 6.85026 7.79095 63.3698
2 -2.26351 1.69128 60.6004
2 25.8658 25.1296 91.9118
1 12.986 28.2252 424.435
1 5.12975 3.81454 141.364
1 -1.50873 23.803 492.652
1 12.7296 7.94786 103.295
1 5.85424 21.706 485.141
1 4.33473 4.09785 114.298
1 9.17439 -0.924205 91.9968
1 12.8603 11.3308 99.901
2 22.6223 28.1122 57.047
2 17.1236 25.4959 104.538
2 -1.54935 6.15621 66.9547
2 8.2825 7.97158 75.7638
1 10.4445 25.0604 134.127
1 -1.47191 10.4708 136.717
1 2.70014 24.1746 87.5056
1 11.0624 14.698 68.6906
1 22.283 2.85829 151.36
1 18.1058 6.68604 111.345
1 6.93263 -2.0122 463.111
1 26.8715 1.42795 441.524
2 20.0144 21.1816 124.041
2 7.47741 22.9965 102.696
2 0.877522 11.8748 450.447
2 21.1002 22.4924 58.5932
1 27.3964 6.35445 69.4662
1 7.68021 23.0798 111.466
1 2.72687 16.2 484.789
1 17.6051 20.1342 168.805
1 -1.69424 1.33976 69.2796
1 14.2633 4.48113 492.675
1 23.0784 13.4294 123.242
1 26.6366 26.5089 58.7018
2 19.7375 25.5597 66.7313
2 13.8556 10.0575 490.152
2 4.10418 2.21834 77.2382
2 7.09737 14.9395 63.0575
1 29.2126 19.6843 56.5472
1 21.876 -1.20423 86.3516
1 13.8593 14.2809 71.0376
1 29.2687 19.0966 75.5631
1 8.93043 27.8565 451.324
1 9.79616 10.3034 98.2427
1 17.5017 27.8134 458.13
1 28.784 17.4898 413.563
2 11.6624 19.6943 106.162
2 1.81793 2.34268 103.477
2 22.5302 12.9323 67.9248
2 14.2155 0.963375 444.047
1 15.0216 26.1633 473.446
1 29.1931 27.9784 68.1935
1 7.12723 28.6833 115.075
1 23.7046 28.5296 73.3135
1 14.8473 28.9602 485.639
1 19.7578 11.4406 60.2768
1 20.0665 13.1088 465.408
1 20.0474 13.2833 169.821
2 18.3486 27.9474 92.3301
2 14.3657 13.3164 492.507
2 15.2358 11.8868 119.611
2 3.06893 5.74382 134.877
1 13.6275 -2.10631 126.377
1 19.3042 22.256 476.089
1 23.205 9.78294 112.947
1 27.5686 10.6815 59.8812
1 9.03779 0.375714 63.5533
1 25.0221 17.7092 83.6933
1 1.13543 10.6367 75.3662
1 19.4687 22.6025 468.155
2 18.9413 12.3659 66.8177
2 0.564143 28.9387 489.456
2 -0.407521 18.0487 128.291
2 5.71381 21.9265 73.0272
1 2.9872 13.5516 102.606
1 28.2982 20.3409 479.714
1 20.2163 24.083 425.082
1 12.912 1.74207 493.441
1 10.9875 -0.46389 462.47
1 6.66549 10.3784 152.061
1 7.57904 5.89459 101.072
1 4.56902 -0.335041 63.3691
2 -0.993356 10.8428 72.8913
2 13.603 2.84804 91.7381
2 24.8539 9.6028 93.909
2 15.15 8.66763 72.5742
1 17.4372 1.61601 463.976
1 13.8044 18.721 80.562
1 16.4446 13.5274 117.15
1 6.40735 25.878 80.1364
1 4.40143 13.774 99.4728
1 16.1233 24.8665 63.179
1 7.06777 6.73147 434.858
1 21.675 7.83866 444.524
2 22.372 11.7847 454.568
2 7.77333 25.7504 84.4207
2 11.6046 4.81248 68.776
2 12.1604 16.9176 95.4333
1 10.5764 23.6155 451.249
1 29.018 25.4676 477.586
1 3.84916 25.3959 120.753
1 26.6797 3.50235 115.343
1 29.5458 18.7611 484.571
1 12.2366 2.98942 141.963
1 -1.99396 5.00187 484.507
1 6.10576 13.8422 70.7485
2 15.3565 22.9456 74.648
2 26.9203 14.0822 82.0009
2 21.059 -0.758809 474.692
2 4.84542 14.0602 477.74
1 13.4862 24.2589 81.7663
1 10.0378 27.214 169.723
1 10.0669 8.47806 153.971
1 24.0549 17.3877 429.686
1 9.88609 20.8393 154.829
1 7.90496 3.77369 476.186
1 23.8636 20.2464 109.172
1 29.6943 17.1948 142.47
2 11.4409 26.1278 473.374
2 9.005 19.5616 60.6748
2 20.2045 12.4151 62.3705
2 -2.34583 -1.69431 106.611
1 11.5042 22.9058 149.102
1 18.5605 25.5317 99.3217
1 21.5989 7.50867 122.475
1 -1.74847 0.00677678 66.6589
1 22.4647 21.3587 477.18
1 5.16144 25.1862 105.648
1 29.5142 18.595 128.012
1 0.368179 28.7645 460.441
2 10.9879 10.9002 476.569
2 2.16759 21.2151 484.777
2 8.33958 4.52117 490.919
2 21.3202 14.5231 55.7972
1 28.0984 11.1707 94.7526
1 22.7261 5.47688 92.0205
1 5.43373 14.1862 127.357
1 5.28704 16.1676 124.873
1 25.0022 22.5404 108.437
1 9.83762 21.5678 87.2766
1 9.54915 17.8422 479.69
1 8.00225 27.5979 103.699
2 -1.79633 19.8422 58.5789
2 -0.343395 26.5185 94.9847
2 11.5744 11.7354 467.484
2 6.23264 2.98506 73.6257
1 27.6633 13.1104 69.8333
1 11.5661 -0.791085 459.4
1 2.23716 2.14997 74.908
1 6.79441 20.1934 73.8906
1 20.3631 15.9765 85.339
1 3.97861 3.56501 134.712
1 -0.171282 27.0597 75.6736
1 7.54247 26.738 473.981
2 4.82364 24.8412 70.7747
2 8.62906 19.4403 53.5245
2 9.23212 5.71482 73.1691
2 9.0639 3.15627 462.781
1 10.3441 9.34198 482.88
1 13.6588 13.7791 146.199
1 16.2819 6.2105 108.633
1 12.5232 28.8812 69.3623
1 7.69976 13.1423 92.9296
1 4.79826 27.6604 487.325
1 19.5226 4.49336 147.744
1 -1.92897 0.952855 441.131
2 -1.59098 18.5098 62.5879
2 29.0311 -1.78475 59.0639
2 29.5128 7.9544 73.1964
2 26.8774 16.8697 77.1859
1 2.7264 12.5945 81.8821
1 24.7879 13.1801 431.318
1 19.7141 22.9757 486.38
1 10.4569 6.70121 80.5288
1 12.4641 15.2957 176.583
1 20.3437 16.822 159.98
1 15.0814 22.1001 64.0739
1 14.009 26.7251 175.748
2 18.8891 28.2251 103.957
2 26.9911 11.3261 72.1946
2 10.0459 4.39187 475.992