ITEM: TIMESTEP
100000
ITEM: NUMBER OF ATOMS
18000
ITEM: BOX BOUNDS pp pp pp
-3.5300525211346689e-01 2.7693005252113881e+01
-4.2747510305492922e+00 3.3235475103055660e+02
-3.6507874784795563e-01 2.7705078747847597e+01
ITEM: ATOMS id type q x y z
1 2 2.2208 5.50242 1.30782 5.2394
2 2 2.2208 5.39026 6.96934 5.25879
3 1 -1.1104 1.13348 -3.0387 1.00535
5 1 -1.1104 1.24236 2.72218 1.04253
7 1 -1.1104 0.927785 8.3176 1.03766
15 1 -1.1104 0.923421 -2.86463 3.79994
16 1 -1.1104 1.30826 2.84661 3.65619
17 1 -1.1104 1.00741 8.27178 3.79763
21 2 2.2208 5.23147 -1.61862 2.39858
22 2 2.2208 5.38709 3.99514 2.44432
23 1 -1.1104 1.10801 -0.201567 0.995354
25 1 -1.1104 1.07662 5.61307 0.992091
31 1 -1.1104 1.17216 -0.136728 3.79583
32 1 -1.1104 1.25324 5.49499 3.76321
35 2 2.2208 2.57958 1.24224 2.36138
36 2 2.2208 2.41545 6.86572 2.43364
37 1 -1.1104 3.89372 -2.92741 0.956093
39 1 -1.1104 4.02232 2.7274 0.949545
41 1 -1.1104 3.93041 8.22619 1.11259
43 1 -1.1104 3.79068 -2.88618 3.7829
44 1 -1.1104 3.98643 2.54174 3.78191
45 1 -1.1104 3.80542 8.27627 3.84435
46 2 2.2208 2.54079 -1.50907 5.29393
47 2 2.2208 2.54468 4.04753 5.22547
48 1 -1.1104 3.92702 -0.105558 1.06365
50 1 -1.1104 3.85169 5.57553 1.02361
52 1 -1.1104 4.04677 -0.198123 3.88313
53 1 -1.1104 4.00687 5.50403 3.82656
13 1 -1.1104 6.73276 8.1212 1.25365
62 2 2.2208 -0.179597 1.29292 5.21811
49 1 -1.1104 3.93257 -0.130652 6.72204
14 1 -1.1104 6.8433 8.30543 6.56755
8 1 -1.1104 1.10369 8.22367 6.70319
40 1 -1.1104 3.97418 2.82454 6.65349
59 2 2.2208 -0.176566 4.20735 2.38848
58 2 2.2208 -0.163792 -4.34107 5.22975
20 1 -1.1104 6.72265 8.36584 3.85285
60 2 2.2208 -0.294245 -1.47151 2.45164
61 2 2.2208 -0.326675 6.82621 5.23929
38 1 -1.1104 3.99052 -2.93606 6.78156
67 2 2.2208 5.28568 -4.39662 -0.40132
63 2 2.2208 -0.54165 6.98671 -0.393682
34 1 -1.1104 6.80379 5.37557 3.8415
33 1 -1.1104 6.78632 -0.187413 3.93352
18 1 -1.1104 6.6949 -2.92175 4.04075
27 1 -1.1104 6.75624 -0.272186 1.00142
9 1 -1.1104 6.52276 -2.95346 1.06495
11 1 -1.1104 6.79035 2.49918 0.946243
29 1 -1.1104 6.8385 5.29153 1.09487
19 1 -1.1104 6.83911 2.66891 3.82219
108 2 2.2208 8.07356 -1.43644 -0.26641
69 2 2.2208 10.9537 1.19848 5.27758
70 2 2.2208 10.9806 6.81619 5.26806
71 1 -1.1104 12.1256 -2.97722 0.966383
73 1 -1.1104 12.4423 2.52958 1.0624
75 1 -1.1104 12.3218 8.15806 1.23947
77 1 -1.1104 12.3769 -2.91996 3.74897
78 1 -1.1104 12.2663 2.65138 3.81444
79 1 -1.1104 12.1797 8.31323 4.07655
80 2 2.2208 11.0159 -1.54244 2.36852
81 2 2.2208 10.978 3.96395 2.51699
82 1 -1.1104 12.4083 -0.163795 0.902411
84 1 -1.1104 12.4645 5.38735 1.13632
86 1 -1.1104 12.4235 -0.244832 3.72899
87 1 -1.1104 12.3857 5.53084 3.88393
88 2 2.2208 8.08907 1.19345 2.47072
89 2 2.2208 8.24813 6.70938 2.44604
90 1 -1.1104 9.40652 -2.88023 1.09257
92 1 -1.1104 9.65655 2.68515 1.15444
94 1 -1.1104 9.40943 8.17273 0.979708
96 1 -1.1104 9.47389 -2.9953 3.9119
97 1 -1.1104 9.50669 2.55212 3.99535
98 1 -1.1104 9.50512 8.23861 3.89495
99 2 2.2208 8.22166 -1.46883 5.41487
100 2 2.2208 8.17348 4.14043 5.27174
101 1 -1.1104 9.52646 -0.0540502 1.01614
103 1 -1.1104 9.6357 5.38922 1.14691
105 1 -1.1104 9.55559 -0.143002 3.97455
106 1 -1.1104 9.63658 5.43082 3.8884
83 1 -1.1104 12.4114 -0.310704 6.59711
118 2 2.2208 8.11546 -4.3533 2.55194
114 2 2.2208 13.7707 3.99773 5.36057
10 1 -1.1104 6.68956 -2.88737 6.76349
76 1 -1.1104 12.2788 8.20412 6.67881
95 1 -1.1104 9.55796 8.25403 6.67265
12 1 -1.1104 6.80383 2.7413 6.65175
72 1 -1.1104 12.3257 -2.97156 6.54855
85 1 -1.1104 12.3506 5.39863 6.75271
74 1 -1.1104 12.2365 2.62457 6.77416
109 2 2.2208 10.8638 6.8396 -0.154802
107 2 2.2208 8.19305 3.95521 -0.222365
51 1 -1.1104 3.97826 5.66199 6.69353
42 1 -1.1104 3.95455 8.43411 6.72851
6 1 -1.1104 1.16736 2.65621 6.69416
4 1 -1.1104 1.13475 -2.94664 6.60526
26 1 -1.1104 1.12128 5.38651 6.53646
167 2 2.2208 -0.361034 1.26866 10.8877
163 2 2.2208 -0.258558 4.11992 8.0007
30 1 -1.1104 6.69313 5.47489 6.62812
165 2 2.2208 -0.363996 7.0321 10.7993
164 2 2.2208 -0.298245 -1.49972 8.00247
24 1 -1.1104 1.23287 0.0138921 6.66468
121 1 -1.1104 3.81902 5.30757 9.5157
122 2 2.2208 5.34819 1.34647 10.8641
123 2 2.2208 5.24283 7.03672 10.8312
124 1 -1.1104 1.14303 -2.90455 12.2683
125 1 -1.1104 1.10062 2.72408 12.3125
130 1 -1.1104 1.39293 -2.69415 9.41426
131 1 -1.1104 1.15851 2.66149 9.59871
132 1 -1.1104 0.998032 8.32404 9.47191
136 2 2.2208 5.2472 -1.52483 8.15933
137 2 2.2208 5.27456 4.26451 8.01857
138 1 -1.1104 1.08963 -0.194429 12.1584
139 1 -1.1104 1.03783 5.57098 12.2181
142 1 -1.1104 1.09904 -0.0126714 9.44439
143 1 -1.1104 1.21382 5.52551 9.41808
146 2 2.2208 2.56341 1.24026 8.22734
147 2 2.2208 2.44801 7.00855 8.13205
148 1 -1.1104 4.00764 -2.86238 12.2834
149 1 -1.1104 3.82645 2.80808 12.2025
150 1 -1.1104 3.84978 8.37492 12.4188
151 1 -1.1104 4.05433 -2.92324 9.57286
152 1 -1.1104 3.97291 2.52125 9.40835
153 1 -1.1104 3.79345 8.29335 9.58566
154 2 2.2208 2.4709 -1.48106 10.8969
155 2 2.2208 2.44199 4.17843 10.9244
156 1 -1.1104 3.95587 -0.0374654 12.3211
157 1 -1.1104 3.87499 5.72593 12.2677
158 1 -1.1104 3.81682 -0.130494 9.61224
144 1 -1.1104 6.69282 -0.0169145 9.49443
166 2 2.2208 -0.347611 4.12159 13.6305
161 2 2.2208 2.61645 1.30232 13.5628
28 1 -1.1104 6.81008 -0.0897725 6.77072
102 1 -1.1104 9.45817 0.0123862 6.70481
104 1 -1.1104 9.5482 5.53424 6.71339
93 1 -1.1104 9.54504 2.7052 6.84206
194 1 -1.1104 9.42808 8.18069 12.2923
209 2 2.2208 13.6025 3.94537 11.0511
145 1 -1.1104 6.62076 5.51964 9.45678
140 1 -1.1104 6.66273 -0.0410041 12.3515
133 1 -1.1104 6.78769 -2.84018 9.53944
128 1 -1.1104 6.6578 2.65384 12.1716
135 1 -1.1104 6.64121 8.2324 9.37564
129 1 -1.1104 6.72769 8.28506 12.2277
91 1 -1.1104 9.60763 -2.7732 6.66639
177 2 2.2208 8.13786 -1.32238 10.9198
175 1 -1.1104 9.55383 -0.161247 12.3395
184 1 -1.1104 12.395 -0.218031 9.41061
182 1 -1.1104 9.5092 8.29124 9.50716
181 1 -1.1104 12.3643 8.22268 12.221
196 2 2.2208 10.9912 -1.56587 8.1265
134 1 -1.1104 6.73751 2.87412 9.28548
141 1 -1.1104 6.70848 5.4621 12.2863
178 2 2.2208 8.01537 1.29199 8.09102
127 1 -1.1104 6.85364 -2.85291 12.1078
172 1 -1.1104 9.40734 5.62171 9.67894
180 1 -1.1104 12.3629 -2.99272 9.44916
207 2 2.2208 13.6258 6.87888 8.15817
176 2 2.2208 8.11012 4.14891 10.8844
199 1 -1.1104 12.2612 8.24774 9.36287
190 2 2.2208 10.8807 1.24476 10.821
183 1 -1.1104 9.54453 2.81093 9.60534
204 2 2.2208 13.6438 6.86039 13.6832
173 1 -1.1104 9.42238 -0.00478575 9.45881
185 1 -1.1104 12.2217 2.61901 12.3651
195 1 -1.1104 9.31223 2.73442 12.4452
189 2 2.2208 10.8745 6.85014 10.8973
187 1 -1.1104 12.2127 5.5255 12.2952
198 2 2.2208 8.09851 6.84961 8.11604
186 1 -1.1104 12.4482 -2.96584 12.1396
192 1 -1.1104 12.429 2.61005 9.47668
188 1 -1.1104 12.3331 -0.139568 12.1379
197 1 -1.1104 9.68893 -2.97577 12.3968
193 1 -1.1104 9.54415 -2.78004 9.49805
174 1 -1.1104 9.51217 5.47278 12.3267
191 2 2.2208 10.8564 4.0812 8.17353
179 1 -1.1104 12.1931 5.4479 9.54265
213 2 2.2208 8.17899 -4.4804 13.8164
205 2 2.2208 13.59 1.19254 13.6736
202 2 2.2208 10.7997 4.12332 13.8427
200 2 2.2208 11.0383 -1.53517 13.712
214 2 2.2208 5.35622 1.42168 16.4204
215 2 2.2208 5.30497 7.13011 16.5162
216 1 -1.1104 1.23456 -2.92048 17.9023
217 1 -1.1104 1.14498 2.56679 17.9362
218 1 -1.1104 1.13637 8.24 17.9821
222 1 -1.1104 1.06929 -2.88578 14.984
223 1 -1.1104 1.2063 2.66604 15.1015
224 1 -1.1104 1.03464 8.28729 15.015
228 2 2.2208 5.21083 -1.52186 19.2903
229 2 2.2208 5.27507 4.05864 19.3182
230 1 -1.1104 1.04437 -0.0504187 17.8698
231 1 -1.1104 1.09653 5.27977 17.8706
234 1 -1.1104 1.00695 0.0165742 14.9677
235 1 -1.1104 1.1396 5.52916 15.0112
238 2 2.2208 2.56144 1.1731 19.3709
239 2 2.2208 2.54609 6.88479 19.3371
240 1 -1.1104 3.89947 -2.8454 17.9607
241 1 -1.1104 3.92588 2.74369 17.9139
242 1 -1.1104 3.90385 8.3242 17.9973
243 1 -1.1104 3.80921 -2.81122 15.1087
244 1 -1.1104 3.94425 2.68265 15.0201
245 1 -1.1104 3.83479 8.51155 15.0988
246 2 2.2208 2.48762 -1.4598 16.4519
247 2 2.2208 2.44786 4.11764 16.5582
248 1 -1.1104 3.82784 0.0446241 17.7924
249 1 -1.1104 3.93053 5.59248 17.9644
250 1 -1.1104 3.93722 -0.182719 15.0722
251 1 -1.1104 3.77705 5.74991 15.1419
233 1 -1.1104 6.65651 5.6413 17.8151
221 1 -1.1104 6.67086 8.43491 17.8305
253 2 2.2208 -0.346194 4.04248 19.2825
305 1 -1.1104 3.86791 2.6436 20.7062
304 1 -1.1104 3.81323 -2.9632 20.7556
303 1 -1.1104 6.72489 5.45823 20.8413
255 2 2.2208 -0.349369 6.89965 16.5891
219 1 -1.1104 6.72549 -2.9084 17.8057
257 2 2.2208 2.52993 -4.36597 19.3802
227 1 -1.1104 6.6548 8.33887 15.0087
256 2 2.2208 -0.29367 1.34003 16.5085
294 1 -1.1104 1.00837 -2.82086 20.6955
307 1 -1.1104 3.84218 -0.209514 20.6688
300 1 -1.1104 0.973381 -0.128357 20.7661
254 2 2.2208 -0.28177 -1.42289 19.289
160 2 2.2208 5.25617 4.11263 13.4848
162 2 2.2208 2.4269 6.97892 13.6821
159 2 2.2208 5.28815 -1.5061 13.6349
236 1 -1.1104 6.65999 -0.0299482 15.2287
225 1 -1.1104 6.68479 -2.82406 14.9774
226 1 -1.1104 6.81233 2.80294 15.0707
232 1 -1.1104 6.67578 -0.198271 17.9428
9617 2 2.2208 13.7295 -4.30867 19.3206
237 1 -1.1104 6.53745 5.43004 14.9069
220 1 -1.1104 6.65362 2.72358 17.8687
302 1 -1.1104 6.68846 -0.163015 20.7471
260 2 2.2208 10.7903 1.2776 16.4855
261 2 2.2208 10.8976 6.9498 16.6261
262 1 -1.1104 12.4293 -2.98735 18.0724
263 1 -1.1104 12.2873 2.67729 18.1301
264 1 -1.1104 12.2504 8.19634 18.074
265 1 -1.1104 12.3926 -2.96622 15.0911
266 1 -1.1104 12.1692 2.66895 15.1545
267 1 -1.1104 12.3295 8.26725 15.1197
268 2 2.2208 11.0591 -1.53095 19.3393
269 2 2.2208 10.9217 4.11138 19.2775
270 1 -1.1104 12.3596 -0.0990752 17.7792
271 1 -1.1104 12.2403 5.62971 17.8911
272 1 -1.1104 12.21 -0.135536 15.0995
273 1 -1.1104 12.3008 5.42684 15.1773
274 2 2.2208 8.0345 1.26085 19.3059
275 2 2.2208 8.03476 6.90251 19.4347
276 1 -1.1104 9.60073 -2.87683 17.8258
277 1 -1.1104 9.46118 2.88197 18.0336
278 1 -1.1104 9.40812 8.54253 17.8876
279 1 -1.1104 9.51064 -3.02848 15.1487
280 1 -1.1104 9.53071 2.64195 15.1587
281 1 -1.1104 9.48022 8.37136 15.0699
282 2 2.2208 8.07192 -1.61215 16.4482
283 2 2.2208 8.01887 4.21282 16.4722
284 1 -1.1104 9.40254 -0.101557 17.8067
285 1 -1.1104 9.38032 5.62604 18.0445
286 1 -1.1104 9.55007 -0.0762569 14.9659
287 1 -1.1104 9.48827 5.54437 15.1819
291 2 2.2208 8.15784 -4.33021 19.267
289 2 2.2208 13.9014 -1.49325 16.472
9616 2 2.2208 13.6513 6.9186 19.3748
290 2 2.2208 13.6391 4.02302 16.4607
288 2 2.2208 13.7646 1.37451 19.3417
298 1 -1.1104 6.69689 2.49917 20.6579
380 1 -1.1104 9.5382 -3.06292 20.5585
383 1 -1.1104 9.62294 -0.322212 20.8319
370 1 -1.1104 12.2623 2.69995 20.8355
369 1 -1.1104 12.3911 -2.87498 20.7546
374 1 -1.1104 12.3862 -0.0902052 20.7843
384 1 -1.1104 9.49108 5.34604 20.823
375 1 -1.1104 12.1756 5.50458 20.8057
371 1 -1.1104 12.2902 8.25698 20.8207
203 2 2.2208 8.01362 6.82546 13.61
201 2 2.2208 8.08249 1.23986 13.7548
348 2 2.2208 -0.258614 -1.55631 24.8353
295 1 -1.1104 1.09133 2.76659 20.7672
299 1 -1.1104 6.73728 8.20663 20.7815
308 1 -1.1104 3.97759 5.37919 20.7796
301 1 -1.1104 1.10061 5.59738 20.6254
347 2 2.2208 -0.292752 4.16252 25.0454
350 2 2.2208 -0.392701 1.30135 22.2095
353 2 2.2208 2.55292 -4.45145 24.9611
306 1 -1.1104 3.85306 8.29717 20.8033
296 1 -1.1104 0.919669 8.34473 20.7925
309 2 2.2208 5.23505 1.3397 22.136
310 2 2.2208 5.39616 6.99154 22.1831
311 1 -1.1104 1.07139 -3.06729 23.4802
312 1 -1.1104 0.942607 2.53931 23.6705
313 1 -1.1104 1.01801 8.20713 23.533
317 1 -1.1104 1.08054 -2.89381 26.3417
318 1 -1.1104 1.09693 2.86445 26.4598
319 1 -1.1104 0.949498 8.304 26.3452
323 2 2.2208 5.38473 -1.55366 24.9417
324 2 2.2208 5.24695 4.18603 25.0086
325 1 -1.1104 1.10561 -0.149259 23.6146
326 1 -1.1104 1.01882 5.48625 23.4405
329 1 -1.1104 1.12829 -0.0340672 26.395
330 1 -1.1104 1.04005 5.69341 26.3609
333 2 2.2208 2.42009 1.41676 24.9572
334 2 2.2208 2.49946 6.99396 24.8818
335 1 -1.1104 3.77603 -2.90337 23.5961
336 1 -1.1104 3.83076 2.70221 23.5056
337 1 -1.1104 3.86886 8.40395 23.5382
338 1 -1.1104 3.93664 -2.93496 26.272
339 1 -1.1104 3.83389 2.86069 26.2496
340 1 -1.1104 3.85852 8.38554 26.2689
341 2 2.2208 2.40667 -1.55936 22.1449
342 2 2.2208 2.473 4.12113 22.1781
343 1 -1.1104 3.98623 0.0308332 23.5547
344 1 -1.1104 3.80859 5.54325 23.6045
345 1 -1.1104 3.86111 -0.109312 26.2545
346 1 -1.1104 3.98192 5.66518 26.189
328 1 -1.1104 6.68875 5.46162 23.5791
297 1 -1.1104 6.73788 -2.9111 20.5754
315 1 -1.1104 6.53354 2.69731 23.4596
322 1 -1.1104 6.59614 8.20815 26.3853
56 2 2.2208 5.34186 6.84272 27.8434
57 2 2.2208 5.30604 1.19172 27.7054
54 2 2.2208 2.51632 4.23562 27.6327
316 1 -1.1104 6.7826 8.25917 23.5263
55 2 2.2208 2.41647 -1.47099 27.6434
64 2 2.2208 -0.278761 1.35857 27.6885
382 1 -1.1104 9.43119 8.31948 20.7306
377 1 -1.1104 12.3429 -0.15 23.3116
332 1 -1.1104 6.71917 5.41224 26.4932
331 1 -1.1104 6.71266 -0.127319 26.2626
321 1 -1.1104 6.75531 2.72695 26.1383
314 1 -1.1104 6.67745 -2.95626 23.4902
327 1 -1.1104 6.77375 -0.201855 23.4791
376 1 -1.1104 12.2512 5.49306 23.5473
356 1 -1.1104 9.48682 5.50205 23.5021
373 2 2.2208 10.9429 1.27769 22.0508
362 1 -1.1104 12.3771 2.48718 26.3775
389 1 -1.1104 9.5282 2.58921 23.6212
386 1 -1.1104 9.4646 -2.93804 26.3381
364 2 2.2208 8.08001 1.25834 24.9399
397 2 2.2208 8.06138 -4.36265 24.8675
378 1 -1.1104 12.326 8.31501 23.6701
391 2 2.2208 10.8796 -1.47838 24.8394
388 2 2.2208 10.9494 3.98891 24.9418
358 1 -1.1104 9.5258 -0.122081 23.3903
357 2 2.2208 8.1027 6.82647 24.9702
110 2 2.2208 11.0274 1.23661 27.7617
320 1 -1.1104 6.68133 -2.88663 26.3369
365 1 -1.1104 12.3209 5.31792 26.4717
366 1 -1.1104 12.3889 -3.06524 23.5403
360 2 2.2208 8.1219 -1.60173 22.128
361 1 -1.1104 9.42103 8.208 26.2506
387 1 -1.1104 9.50157 8.27332 23.4959
354 1 -1.1104 9.54264 5.30839 26.3159
381 1 -1.1104 9.46237 2.626 20.6345
372 1 -1.1104 12.3126 -3.09504 26.3311
367 2 2.2208 10.8574 6.82806 22.1129
390 1 -1.1104 9.47076 -3.00377 23.592
355 1 -1.1104 9.42627 -0.047463 26.3368
385 1 -1.1104 9.58027 2.55254 26.3736
368 1 -1.1104 12.2432 -0.327825 26.2051
379 1 -1.1104 12.3397 8.15366 26.3277
363 1 -1.1104 12.3091 2.71232 23.5783
359 2 2.2208 8.02419 4.08808 22.0875
398 2 2.2208 5.29776 12.4074 5.25742
399 2 2.2208 5.42629 18.1528 5.30333
400 1 -1.1104 1.02867 13.894 1.05725
402 1 -1.1104 1.08959 19.4805 1.08588
406 1 -1.1104 0.942853 13.849 3.87928
407 1 -1.1104 1.03485 19.546 3.89739
410 2 2.2208 5.32243 9.69222 2.4865
411 2 2.2208 5.33589 15.2215 2.56345
412 2 2.2208 5.26484 20.8089 2.5481
413 1 -1.1104 1.05459 11.0799 1.11384
415 1 -1.1104 1.01633 16.7159 1.29689
421 1 -1.1104 0.993974 11.0072 3.92788
422 1 -1.1104 1.12323 16.7301 3.95293
425 2 2.2208 2.40426 12.4615 2.44774
426 2 2.2208 2.49409 18.205 2.6031
427 1 -1.1104 3.96503 13.8778 1.16022
429 1 -1.1104 3.89029 19.4266 1.12724
430 1 -1.1104 3.91928 13.9809 3.91534
431 1 -1.1104 3.82102 19.5428 3.88918
432 2 2.2208 2.40252 9.76061 5.45559
433 2 2.2208 2.42162 15.3506 5.24712
434 2 2.2208 2.64952 20.9557 5.3903
435 1 -1.1104 3.98614 11.06 1.20456
437 1 -1.1104 3.9092 16.6987 1.11966
439 1 -1.1104 3.8038 11.2396 3.84721
440 1 -1.1104 3.95751 16.8491 4.06645
423 1 -1.1104 6.59317 11.0992 4.01648
452 2 2.2208 -0.305983 12.5253 5.30698
409 1 -1.1104 6.57919 19.5516 3.85104
424 1 -1.1104 6.83693 16.6005 3.90951
408 1 -1.1104 6.74625 13.7851 3.87433
441 2 2.2208 2.62049 20.8212 -0.286427
416 1 -1.1104 1.05872 16.7305 6.88418
419 1 -1.1104 6.86434 16.7493 1.07152
447 2 2.2208 -0.284773 15.3754 2.6471
448 2 2.2208 -0.421913 9.72987 2.46603
444 2 2.2208 5.34665 18.0856 -0.326441
442 2 2.2208 2.49475 15.4187 -0.210542
403 1 -1.1104 6.85887 13.9873 1.11208
417 1 -1.1104 6.63455 11.1268 1.03981
405 1 -1.1104 6.58806 19.464 1.16146
453 2 2.2208 10.895 12.6165 5.2937
454 2 2.2208 10.9897 17.9754 5.32791
455 1 -1.1104 12.398 13.8173 0.94114
457 1 -1.1104 12.3471 19.5522 0.919201
458 1 -1.1104 12.3287 14.0342 3.82079
459 1 -1.1104 12.374 19.5417 3.65304
460 2 2.2208 10.9106 9.61206 2.52491
461 2 2.2208 10.8573 15.3782 2.48488
462 2 2.2208 11.023 21.055 2.49389
463 1 -1.1104 12.3656 10.9277 0.943445
465 1 -1.1104 12.4134 16.6831 1.25239
467 1 -1.1104 12.4033 11.1699 3.81527
468 1 -1.1104 12.5934 16.8598 4.03068
469 2 2.2208 8.24841 12.4148 2.4584
470 2 2.2208 8.19612 18.1356 2.5202
471 1 -1.1104 9.5966 13.968 1.1264
473 1 -1.1104 9.67461 19.5166 1.09806
474 1 -1.1104 9.45532 13.8939 3.80068
475 1 -1.1104 9.51442 19.63 3.9674
476 2 2.2208 8.17053 9.80093 5.27664
477 2 2.2208 8.07718 15.1724 5.20969
478 2 2.2208 8.23791 21.0325 5.32503
479 1 -1.1104 9.40107 10.9145 1.2423
481 1 -1.1104 9.6701 16.6991 0.982279
483 1 -1.1104 9.60031 11.0924 3.87167
484 1 -1.1104 9.58944 16.8193 3.84256
491 2 2.2208 13.6579 9.75023 5.26339
561 1 -1.1104 9.6541 19.5156 6.68909
456 1 -1.1104 12.2554 13.8047 6.61343
482 1 -1.1104 9.50734 16.6849 6.53934
420 1 -1.1104 6.6075 16.6455 6.60534
464 1 -1.1104 12.3339 11.0779 6.67177
560 1 -1.1104 12.3691 19.481 6.76604
489 2 2.2208 10.9263 12.4352 -0.329267
485 2 2.2208 8.21762 20.9856 -0.33014
487 2 2.2208 7.9854 9.60489 -0.383027
498 1 -1.1104 4.13152 19.5593 6.74291
414 1 -1.1104 1.07094 11.0233 6.77588
438 1 -1.1104 3.77106 16.7133 6.75641
436 1 -1.1104 3.90525 11.1884 6.76291
496 1 -1.1104 1.12672 19.5588 6.72785
126 1 -1.1104 0.920819 8.3866 12.1163
540 2 2.2208 -0.408014 9.7256 8.07294
535 2 2.2208 5.29898 9.68722 13.6661
534 2 2.2208 5.33369 15.3575 13.6547
401 1 -1.1104 1.12002 13.886 6.68623
428 1 -1.1104 3.86128 13.8533 6.67149
499 2 2.2208 5.21058 12.4354 10.8298
500 2 2.2208 5.23543 18.2264 10.8652
501 1 -1.1104 1.07768 13.987 12.2618
502 1 -1.1104 1.07622 19.5176 12.2382
505 1 -1.1104 1.08813 13.8799 9.48569
506 1 -1.1104 1.24059 19.4894 9.4103
509 2 2.2208 5.30814 9.73707 7.96829
510 2 2.2208 5.3311 15.3269 8.08325
511 2 2.2208 5.45695 20.9688 8.08144
512 1 -1.1104 1.0553 11.225 12.2419
513 1 -1.1104 0.920078 16.7227 12.3624
516 1 -1.1104 0.949546 11.1371 9.31846
517 1 -1.1104 1.12247 16.6058 9.48664
520 2 2.2208 2.45523 12.5236 8.20475
521 2 2.2208 2.45025 18.199 8.07861
522 1 -1.1104 3.91185 13.9639 12.3406
523 1 -1.1104 3.9803 19.4554 12.4406
524 1 -1.1104 3.79851 14.0335 9.52674
525 1 -1.1104 3.94505 19.7155 9.47716
526 2 2.2208 2.35728 9.76095 10.9387
527 2 2.2208 2.61805 15.3207 10.9324
528 2 2.2208 2.55811 20.8737 10.87
529 1 -1.1104 3.88286 11.0822 12.1528
530 1 -1.1104 3.88363 16.6888 12.2834
531 1 -1.1104 3.90382 11.1104 9.5417
532 1 -1.1104 3.87351 16.8984 9.55417
518 1 -1.1104 6.70596 11.0736 9.42628
503 1 -1.1104 6.59206 13.9717 12.45
497 1 -1.1104 7.01847 19.5617 6.64131
541 2 2.2208 -0.389322 15.2994 13.5896
504 1 -1.1104 6.56214 19.5923 12.2815
514 1 -1.1104 6.72477 11.087 12.2334
536 2 2.2208 2.45484 12.5586 13.6652
533 2 2.2208 2.42197 18.1331 13.7427
539 2 2.2208 -0.337657 9.79108 13.6476
576 2 2.2208 8.18073 18.0556 13.7527
404 1 -1.1104 6.73785 13.9258 6.75437
574 2 2.2208 13.7533 21.023 10.8339
466 1 -1.1104 12.3607 16.7285 6.77705
564 1 -1.1104 12.344 13.8885 9.47788
472 1 -1.1104 9.43315 14.0385 6.6212
418 1 -1.1104 6.71818 11.0546 6.75732
519 1 -1.1104 6.84059 16.6631 9.41128
508 1 -1.1104 6.5772 19.5241 9.56612
575 2 2.2208 13.8577 15.3037 10.9708
556 1 -1.1104 12.4317 16.6868 12.3208
563 1 -1.1104 12.3625 19.6035 9.63738
551 1 -1.1104 12.3511 16.6983 9.47873
558 2 2.2208 11.0197 20.9512 8.13178
571 2 2.2208 10.9682 18.1151 10.9582
573 1 -1.1104 12.296 19.5243 12.2869
550 2 2.2208 8.13171 12.4723 8.0096
515 1 -1.1104 6.89053 16.8504 12.2245
507 1 -1.1104 6.62495 13.8563 9.54491
548 1 -1.1104 9.66334 16.864 12.4084
555 1 -1.1104 12.3535 10.923 9.54958
572 1 -1.1104 12.3773 13.866 12.367
547 1 -1.1104 9.59747 11.1284 9.42788
552 2 2.2208 8.26759 21.0338 10.911
568 1 -1.1104 9.51884 14.015 12.2562
480 1 -1.1104 9.48394 11.1863 6.55469
562 2 2.2208 10.9885 9.67441 8.07919
557 1 -1.1104 12.2751 11.1542 12.5186
569 2 2.2208 8.18709 18.0232 8.02727
549 1 -1.1104 9.59844 11.0786 12.215
546 1 -1.1104 9.6429 16.6123 9.50078
553 2 2.2208 8.1376 15.3026 10.8047
570 2 2.2208 11.0271 12.4681 10.9097
565 1 -1.1104 9.52351 19.3697 9.47125
559 2 2.2208 10.8843 15.3025 8.02711
566 1 -1.1104 9.49176 13.8528 9.53759
554 2 2.2208 8.19714 9.75339 10.8731
567 1 -1.1104 9.54137 19.5597 12.2687
586 2 2.2208 5.30912 12.5592 16.5824
587 2 2.2208 5.32439 18.0584 16.4167
588 1 -1.1104 1.03116 14.07 17.8725
589 1 -1.1104 1.30397 19.6313 17.864
592 1 -1.1104 1.00658 13.9408 14.9652
593 1 -1.1104 1.09938 19.471 15.0734
596 2 2.2208 5.26554 9.72343 19.317
597 2 2.2208 5.342 15.2857 19.3544
598 2 2.2208 5.27004 20.9138 19.3333
599 1 -1.1104 0.970946 11.0562 17.8138
600 1 -1.1104 0.944462 16.8002 17.9933
603 1 -1.1104 1.11812 10.9919 15.0169
604 1 -1.1104 1.12394 16.728 15.1168
607 2 2.2208 2.4726 12.6415 19.2972
608 2 2.2208 2.5527 18.152 19.4057
609 1 -1.1104 3.98024 13.8057 18.0498
610 1 -1.1104 4.05713 19.5043 18.0381
611 1 -1.1104 3.86197 13.9493 15.1706
612 1 -1.1104 4.002 19.5852 15.191
613 2 2.2208 2.46988 9.66623 16.4955
614 2 2.2208 2.42016 15.3906 16.4716
615 2 2.2208 2.54833 20.9767 16.518
616 1 -1.1104 3.7106 11.0959 17.8062
617 1 -1.1104 3.97342 16.5199 18.0211
618 1 -1.1104 3.98654 11.1156 15.0067
619 1 -1.1104 3.82589 16.7647 15.1735
623 2 2.2208 -0.351358 12.5998 16.4745
620 2 2.2208 -0.246086 18.1864 16.478
664 1 -1.1104 6.68856 11.1945 20.6915
662 1 -1.1104 1.00555 11.2314 20.6829
621 2 2.2208 -0.362125 20.942 19.3986
591 1 -1.1104 6.77251 19.6269 17.8991
595 1 -1.1104 6.64161 19.5344 15.1791
594 1 -1.1104 6.60447 13.9322 15.1658
590 1 -1.1104 6.78419 13.8848 17.9741
658 1 -1.1104 1.04264 13.9891 20.8215
669 1 -1.1104 3.81574 16.7924 20.8216
622 2 2.2208 -0.311278 15.3471 19.4071
624 2 2.2208 -0.416163 9.6817 19.2706
544 2 2.2208 5.3044 21.0223 13.6345
606 1 -1.1104 6.64818 16.7717 15.0548
605 1 -1.1104 6.72181 11.0982 14.9651
601 1 -1.1104 6.62577 11.222 17.9437
577 2 2.2208 10.8803 15.2577 13.7798
602 1 -1.1104 6.71566 16.8552 17.9102
625 2 2.2208 11.023 12.4767 16.6656
626 2 2.2208 10.9113 18.1031 16.6397
627 1 -1.1104 12.3892 13.921 17.997
628 1 -1.1104 12.3546 19.6705 17.9247
629 1 -1.1104 12.3245 13.9345 15.2682
630 1 -1.1104 12.4269 19.6438 15.086
632 2 2.2208 10.9443 9.7008 19.4444
633 2 2.2208 10.8951 15.2864 19.4031
634 2 2.2208 10.7721 20.9352 19.2718
635 1 -1.1104 12.4012 11.1745 18.0659
636 1 -1.1104 12.348 16.9069 18.0215
637 1 -1.1104 12.2452 11.044 15.2186
638 1 -1.1104 12.2608 16.7024 15.1871
639 2 2.2208 8.19122 12.4371 19.4168
640 2 2.2208 8.06568 18.0116 19.3741
641 1 -1.1104 9.59566 13.921 17.9947
642 1 -1.1104 9.45749 19.4038 17.9654
643 1 -1.1104 9.51666 13.8407 15.113
644 1 -1.1104 9.67124 19.4612 15.0854
646 2 2.2208 8.0174 9.85385 16.4656
647 2 2.2208 8.09258 15.2266 16.4937
648 2 2.2208 7.98966 20.9061 16.4989
649 1 -1.1104 9.55756 11.2049 17.9132
650 1 -1.1104 9.61153 16.7105 17.9914
651 1 -1.1104 9.35798 11.0137 15.0583
652 1 -1.1104 9.5505 16.5556 15.1994
653 2 2.2208 13.7501 12.5685 19.3594
660 1 -1.1104 6.71531 13.9302 20.712
722 1 -1.1104 12.3868 13.8777 20.7888
730 1 -1.1104 9.6462 13.8679 20.7669
581 2 2.2208 13.622 12.6853 13.8693
654 2 2.2208 13.7703 18.3687 19.2688
657 2 2.2208 13.7817 21.0056 16.4325
656 2 2.2208 13.6542 15.3888 16.6156
579 2 2.2208 8.09765 12.512 13.6808
578 2 2.2208 10.8319 9.6637 13.6714
583 2 2.2208 13.6777 18.2392 13.6283
585 2 2.2208 10.9147 20.8398 13.7493
706 2 2.2208 -0.467634 9.76549 25.0323
663 1 -1.1104 0.967118 16.7687 20.9093
668 1 -1.1104 3.79173 11.0594 20.6199
659 1 -1.1104 1.18909 19.4469 20.7818
667 1 -1.1104 3.93947 19.547 20.8358
708 2 2.2208 -0.41369 12.51 22.0758
661 1 -1.1104 6.75342 19.5405 20.5977
665 1 -1.1104 6.55551 16.6928 20.7758
666 1 -1.1104 3.89593 13.9574 20.7861
674 1 -1.1104 6.49399 13.8246 23.5237
670 2 2.2208 5.25382 12.4325 22.1844
671 2 2.2208 5.32974 18.1377 22.1136
672 1 -1.1104 1.05878 13.8732 23.5644
673 1 -1.1104 1.10891 19.5203 23.6652
676 1 -1.1104 1.11606 13.8677 26.2608
677 1 -1.1104 1.16762 19.4223 26.3951
680 2 2.2208 5.25136 9.68498 24.9464
681 2 2.2208 5.18889 15.2467 25.0571
682 2 2.2208 5.37214 20.9703 24.9767
683 1 -1.1104 0.969778 11.1194 23.6554
684 1 -1.1104 1.15404 16.7312 23.7798
687 1 -1.1104 0.949678 11.1458 26.4251
688 1 -1.1104 1.03664 16.6052 26.5088
691 2 2.2208 2.34593 12.5313 24.8281
692 2 2.2208 2.49559 18.1935 25.0152
693 1 -1.1104 3.86403 13.9013 23.5914
694 1 -1.1104 3.94936 19.4476 23.6063
695 1 -1.1104 3.75675 14.0682 26.3633
696 1 -1.1104 4.03801 19.5674 26.492
697 2 2.2208 2.28358 9.71518 22.049
698 2 2.2208 2.5202 15.3631 22.2135
699 2 2.2208 2.43311 20.866 22.2195
700 1 -1.1104 3.80062 11.1657 23.4183
701 1 -1.1104 4.01819 16.6468 23.6466
702 1 -1.1104 3.7466 11.1924 26.2761
703 1 -1.1104 3.72159 16.8074 26.4701
686 1 -1.1104 6.58914 16.6684 23.6606
675 1 -1.1104 6.82237 19.4823 23.3304
689 1 -1.1104 6.64576 11.0618 26.3554
679 1 -1.1104 6.76485 19.4252 26.3521
445 2 2.2208 5.01427 12.4704 27.7477
443 2 2.2208 2.35663 9.61631 27.7368
685 1 -1.1104 6.70033 11.0617 23.5672
690 1 -1.1104 6.72813 16.5904 26.3434
486 2 2.2208 8.23587 15.3948 27.7189
645 1 -1.1104 9.47341 19.4425 20.7379
726 1 -1.1104 12.2989 11.0163 20.7678
631 1 -1.1104 12.161 19.5729 20.5095
732 1 -1.1104 9.42272 16.663 20.7306
743 2 2.2208 13.6412 9.69708 22.1626
678 1 -1.1104 6.60859 13.9323 26.4191
735 1 -1.1104 9.43904 13.8328 23.6697
745 2 2.2208 13.7306 20.8843 22.1028
734 1 -1.1104 9.63132 19.5315 23.5076
713 2 2.2208 8.1932 20.9066 22.0208
736 2 2.2208 8.10506 18.0621 24.9432
727 1 -1.1104 12.3932 16.7028 20.797
720 1 -1.1104 12.2119 19.5986 26.2028
714 2 2.2208 8.00162 15.2556 22.1868
737 2 2.2208 7.99093 12.5019 24.9995
740 1 -1.1104 12.3556 13.8576 23.5504
741 2 2.2208 13.76 12.4242 25.0083
744 2 2.2208 13.8324 15.3944 22.1381
723 1 -1.1104 12.3185 13.869 26.3431
731 1 -1.1104 9.54511 11.0538 20.8013
733 1 -1.1104 9.48898 13.9003 26.4498
712 1 -1.1104 9.43131 11.0073 23.7804
711 1 -1.1104 9.53219 16.6679 23.5428
719 1 -1.1104 12.3924 16.8891 26.4805
718 2 2.2208 10.8684 20.9689 24.9313
721 1 -1.1104 12.4095 10.9034 26.3735
717 2 2.2208 10.9226 9.54798 25.0098
738 2 2.2208 10.9195 12.45 22.17
724 2 2.2208 10.9812 15.276 25.0565
729 1 -1.1104 12.327 11.112 23.6096
728 1 -1.1104 12.4216 19.4515 23.3197
725 1 -1.1104 12.3343 16.7042 23.6238
716 1 -1.1104 9.46553 19.621 26.2772
715 2 2.2208 8.05544 9.71831 22.2972
709 1 -1.1104 9.67188 16.7248 26.268
710 1 -1.1104 9.51542 11.122 26.4555
739 2 2.2208 10.9358 18.1325 22.094
488 2 2.2208 11.0023 18.2586 27.6892
746 2 2.2208 5.37527 23.6822 5.21453
748 2 2.2208 5.41314 29.3489 5.24352
749 1 -1.1104 1.25763 25.0018 1.16634
750 1 -1.1104 1.231 30.8365 1.18096
753 1 -1.1104 1.25615 25.2117 3.86342
754 1 -1.1104 0.989091 30.6431 3.86484
757 2 2.2208 5.45066 26.5209 2.51779
758 2 2.2208 5.28925 32.1375 2.4796
759 1 -1.1104 1.04831 22.3089 1.10806
760 1 -1.1104 1.18024 27.8819 1.09664
761 1 -1.1104 1.05052 33.655 1.06085
765 1 -1.1104 1.14143 22.4313 3.93906
766 1 -1.1104 1.1669 27.9321 3.9555
767 1 -1.1104 0.894653 33.5905 3.87255
771 2 2.2208 2.66647 23.7103 2.49844
772 2 2.2208 2.50085 29.2356 2.49738
773 1 -1.1104 4.08854 25.1271 1.10687
774 1 -1.1104 3.93787 30.7093 1.15227
775 1 -1.1104 3.97745 25.1701 3.85151
776 1 -1.1104 4.02521 30.8669 3.92087
778 2 2.2208 2.61245 26.5087 5.23821
779 2 2.2208 2.52394 32.1183 5.21014
780 1 -1.1104 3.87506 22.3963 1.04538
781 1 -1.1104 3.92021 27.9201 1.17081
782 1 -1.1104 3.92524 33.554 1.11134
783 1 -1.1104 3.95305 22.2482 3.81112
784 1 -1.1104 3.90339 27.9739 3.93925
785 1 -1.1104 3.67935 33.7198 3.85503
769 1 -1.1104 6.64067 27.9477 3.76836
763 1 -1.1104 6.82653 27.9645 1.1843
756 1 -1.1104 6.82598 30.8362 3.84887
752 1 -1.1104 6.80475 30.8746 1.01928
747 2 2.2208 5.34546 29.3986 -0.215606
768 1 -1.1104 6.83825 22.2753 3.88365
751 1 -1.1104 6.81312 25.1089 1.15673
770 1 -1.1104 6.57191 33.4742 3.76452
764 1 -1.1104 6.65926 33.6163 1.04945
786 2 2.2208 -0.145801 26.4955 2.48773
787 2 2.2208 -0.273329 23.7698 5.23518
777 2 2.2208 2.62134 26.4644 -0.226277
788 2 2.2208 -0.216313 29.3228 -0.235456
1080 2 2.2208 2.48154 32.1761 -0.325922
762 1 -1.1104 6.67998 22.2744 1.19012
755 1 -1.1104 6.77222 25.1557 4.02235
793 2 2.2208 11.1389 23.6496 5.29834
794 2 2.2208 11.1275 29.3037 5.24303
795 1 -1.1104 12.3316 25.1748 1.10428
796 1 -1.1104 12.2935 30.7987 1.0546
797 1 -1.1104 12.4571 25.0533 3.92748
798 1 -1.1104 12.453 30.645 3.77507
799 2 2.2208 11.0528 26.4516 2.45636
800 2 2.2208 10.8881 32.2112 2.43223
801 1 -1.1104 12.3358 22.3516 0.985277
802 1 -1.1104 12.3445 27.9108 1.09276
803 1 -1.1104 12.4168 33.6102 1.00061
804 1 -1.1104 12.3297 22.3222 4.01015
805 1 -1.1104 12.2626 27.8063 4.04088
806 1 -1.1104 12.0124 33.5673 3.75472
807 2 2.2208 8.22435 23.7289 2.53168
808 2 2.2208 8.19054 29.4271 2.47128
809 1 -1.1104 9.54404 25.1975 1.12078
810 1 -1.1104 9.4267 30.8586 1.03005
811 1 -1.1104 9.69851 25.1957 3.87372
812 1 -1.1104 9.69274 30.8325 3.84995
814 2 2.2208 8.27724 26.5687 5.28356
815 2 2.2208 8.14704 32.1325 5.26906
816 1 -1.1104 9.59081 22.4597 0.997667
817 1 -1.1104 9.66243 27.9867 0.99796
818 1 -1.1104 9.57847 33.6621 1.10729
819 1 -1.1104 9.49852 22.3611 3.87563
820 1 -1.1104 9.52044 28.0612 3.87369
821 1 -1.1104 9.40232 33.6613 3.90972
827 2 2.2208 13.7316 26.3825 5.38942
824 2 2.2208 13.4608 32.3915 5.28858
1115 2 2.2208 11.0068 29.458 -0.380883
1113 2 2.2208 8.14431 32.1379 -0.454188
1114 2 2.2208 13.8117 32.1863 -0.297964
823 2 2.2208 13.8415 26.5706 -0.365272
822 2 2.2208 10.9811 23.8094 -0.378575
838 1 -1.1104 4.00045 25.1324 6.63
832 1 -1.1104 1.30464 22.3878 6.77534
839 1 -1.1104 3.96093 30.7129 6.66725
837 1 -1.1104 6.56826 33.5578 6.49888
833 1 -1.1104 1.16566 28.1136 6.75278
834 1 -1.1104 1.07179 33.5264 6.64907
829 1 -1.1104 1.14091 30.72 6.68846
828 1 -1.1104 1.31663 25.1969 6.7116
840 1 -1.1104 4.05174 22.2508 6.63367
884 2 2.2208 -0.382556 26.6263 8.12597
843 2 2.2208 -0.344167 29.5209 10.8743
842 1 -1.1104 3.76483 33.6084 6.60492
841 1 -1.1104 4.08786 27.8528 6.5601
844 2 2.2208 5.28652 23.7729 10.9076
845 2 2.2208 5.40209 29.4988 10.9196
846 1 -1.1104 1.12389 25.0864 12.1473
847 1 -1.1104 1.02441 30.7209 12.3327
850 1 -1.1104 1.03239 25.341 9.39699
851 1 -1.1104 1.14475 30.8638 9.45467