ITEM: TIMESTEP
80000
ITEM: NUMBER OF ATOMS
18000
ITEM: BOX BOUNDS pp pp pp
-3.5177140352668096e-01 2.7691771403526808e+01
-4.2528927077837873e+00 3.3233289270779437e+02
-3.5951006848680755e-01 2.7699510068486461e+01
ITEM: ATOMS id type q x y z
1 2 2.2208 5.06698 1.46437 5.3744
2 2 2.2208 5.21818 7.06863 5.35666
3 1 -1.1104 0.840364 -2.75013 1.11005
5 1 -1.1104 0.98627 2.65435 1.03164
7 1 -1.1104 1.14193 8.49936 1.08101
15 1 -1.1104 0.903767 -2.73421 4.00218
16 1 -1.1104 0.945236 2.75316 4.02256
17 1 -1.1104 1.05462 8.41222 3.91941
21 2 2.2208 5.14304 -1.29823 2.58068
22 2 2.2208 5.19973 4.1708 2.45561
23 1 -1.1104 1.01281 -0.0121157 1.14986
25 1 -1.1104 0.912041 5.64496 0.99474
31 1 -1.1104 0.858184 -0.088923 3.916
32 1 -1.1104 1.00014 5.57624 3.76701
35 2 2.2208 2.41092 1.38303 2.48088
36 2 2.2208 2.37676 7.01771 2.58392
37 1 -1.1104 3.78325 -2.7811 0.96071
39 1 -1.1104 3.84036 2.69573 1.0274
41 1 -1.1104 3.89323 8.4383 1.05631
43 1 -1.1104 3.81278 -2.71622 3.90148
44 1 -1.1104 3.77542 2.82539 3.73897
45 1 -1.1104 3.81648 8.42938 3.95524
46 2 2.2208 2.36102 -1.32987 5.31729
47 2 2.2208 2.21426 4.26128 5.24253
48 1 -1.1104 3.67297 0.0185756 1.13264
50 1 -1.1104 3.83157 5.41403 1.03945
52 1 -1.1104 3.72343 0.0811858 3.99164
53 1 -1.1104 3.92945 5.66179 3.86174
20 1 -1.1104 6.49075 8.47347 3.86752
11 1 -1.1104 6.70528 2.68806 1.14147
34 1 -1.1104 6.59594 5.67875 3.80692
33 1 -1.1104 6.63399 0.103543 3.97805
57 2 2.2208 5.28156 1.462 -0.341713
29 1 -1.1104 6.57605 5.55621 1.12647
58 2 2.2208 -0.350962 -4.10492 5.31836
51 1 -1.1104 3.60078 5.67615 6.57456
42 1 -1.1104 3.90305 8.47123 6.83349
6 1 -1.1104 1.04356 2.78427 6.85757
4 1 -1.1104 0.899249 -2.72754 6.82752
49 1 -1.1104 3.76842 -0.0142632 6.72897
24 1 -1.1104 0.925199 0.111068 6.74274
67 2 2.2208 5.16903 -4.17747 -0.435386
65 2 2.2208 5.18729 -4.18153 5.19912
60 2 2.2208 -0.44425 -1.33568 2.4295
62 2 2.2208 -0.405794 1.45556 5.48221
55 2 2.2208 2.30408 -1.37517 -0.368374
63 2 2.2208 -0.400114 6.9234 -0.329527
27 1 -1.1104 6.54794 0.0791756 1.07912
13 1 -1.1104 6.70339 8.3868 0.970144
18 1 -1.1104 6.65478 -2.7816 3.90352
19 1 -1.1104 6.47308 2.8812 4.04912
108 2 2.2208 8.01382 -1.40798 -0.212946
9 1 -1.1104 6.636 -2.75526 1.12104
69 2 2.2208 10.7517 1.2514 5.22544
70 2 2.2208 10.8408 6.99866 5.24425
71 1 -1.1104 12.1828 -2.86765 1.1572
73 1 -1.1104 12.1733 2.87492 1.06736
75 1 -1.1104 12.1081 8.49204 1.02724
77 1 -1.1104 12.3311 -2.86854 3.902
78 1 -1.1104 11.8921 2.82402 3.89365
79 1 -1.1104 12.2149 8.33091 3.86963
80 2 2.2208 10.7781 -1.49161 2.41486
81 2 2.2208 10.776 4.11769 2.44016
82 1 -1.1104 12.2418 -0.0995665 1.00869
84 1 -1.1104 12.0686 5.52531 1.13718
86 1 -1.1104 12.2043 -0.210308 3.86577
87 1 -1.1104 12.1437 5.59201 3.91422
88 2 2.2208 8.00484 1.39363 2.49822
89 2 2.2208 8.08043 7.10584 2.3778
90 1 -1.1104 9.37937 -2.82429 0.909161
92 1 -1.1104 9.48389 2.82854 0.974932
94 1 -1.1104 9.46197 8.38948 0.965544
96 1 -1.1104 9.44864 -2.83761 3.86347
97 1 -1.1104 9.1723 2.84317 3.72058
98 1 -1.1104 9.41318 8.47564 3.89704
99 2 2.2208 7.99765 -1.36859 5.36569
100 2 2.2208 7.90491 4.26988 5.24797
101 1 -1.1104 9.51002 -0.0714801 1.07781
103 1 -1.1104 9.31034 5.56711 1.1617
105 1 -1.1104 9.36696 0.0161886 3.80652
106 1 -1.1104 9.40572 5.7577 3.88491
112 2 2.2208 13.5948 6.91922 2.50222
14 1 -1.1104 6.52011 8.32231 6.87733
113 2 2.2208 13.653 -1.30807 5.25161
118 2 2.2208 7.95954 -4.29605 2.37452
102 1 -1.1104 9.4212 0.135188 6.70432
72 1 -1.1104 12.0208 -2.76306 6.69711
110 2 2.2208 10.7512 1.38227 -0.366061
8 1 -1.1104 0.862729 8.34678 6.54483
12 1 -1.1104 6.5208 2.77309 6.86271
26 1 -1.1104 0.948415 5.67948 6.62518
163 2 2.2208 -0.533695 4.25208 8.27878
167 2 2.2208 -0.548491 1.44311 10.8625
168 2 2.2208 2.45664 -4.18091 8.05905
170 2 2.2208 -0.396042 -4.20902 10.8512
28 1 -1.1104 6.55469 -0.0605499 6.67517
38 1 -1.1104 3.75889 -2.78242 6.60468
40 1 -1.1104 3.70703 2.99545 6.4845
121 1 -1.1104 3.74315 5.62884 9.46671
122 2 2.2208 5.09482 1.51663 10.8142
123 2 2.2208 5.23779 7.03473 10.771
124 1 -1.1104 0.922886 -2.70691 12.3396
125 1 -1.1104 0.905609 2.80437 12.1895
126 1 -1.1104 0.911227 8.41524 12.2909
130 1 -1.1104 0.905882 -2.69392 9.59
131 1 -1.1104 0.857627 2.93148 9.56266
132 1 -1.1104 0.898776 8.40927 9.41865
136 2 2.2208 5.11994 -1.425 8.11961
137 2 2.2208 5.1403 4.2838 8.10869
138 1 -1.1104 0.760171 0.138712 12.3257
139 1 -1.1104 1.03619 5.55423 12.2084
142 1 -1.1104 0.963454 0.0317029 9.49825
143 1 -1.1104 0.822114 5.71197 9.45315
146 2 2.2208 2.4156 1.45655 8.11249
147 2 2.2208 2.36737 7.01752 8.08177
148 1 -1.1104 3.7022 -3.00367 12.2374
149 1 -1.1104 3.63815 2.82556 12.2841
150 1 -1.1104 3.67045 8.46622 12.295
151 1 -1.1104 3.60273 -2.73549 9.35139
152 1 -1.1104 3.75169 2.91076 9.37438
153 1 -1.1104 3.8559 8.44244 9.62778
154 2 2.2208 2.29062 -1.38528 10.9203
155 2 2.2208 2.3397 4.22646 10.9334
156 1 -1.1104 3.56463 -0.0666136 12.3228
157 1 -1.1104 3.79221 5.72857 12.2956
158 1 -1.1104 3.78114 0.0184908 9.49495
145 1 -1.1104 6.58463 5.74343 9.59294
134 1 -1.1104 6.64211 2.93586 9.5679
161 2 2.2208 2.32331 1.46448 13.683
141 1 -1.1104 6.49079 5.51949 12.3108
164 2 2.2208 -0.379378 -1.39012 8.1418
171 2 2.2208 -0.490767 -1.3261 13.6664
162 2 2.2208 2.26983 6.91669 13.744
252 2 2.2208 2.25687 -4.09533 13.7809
10 1 -1.1104 6.5491 -2.79873 6.70486
212 2 2.2208 7.93599 -4.21016 8.11172
76 1 -1.1104 12.0725 8.38595 6.67788
104 1 -1.1104 9.40085 5.68714 6.60005
93 1 -1.1104 9.15588 2.85182 6.55594
30 1 -1.1104 6.53668 5.66572 6.69967
74 1 -1.1104 12.0962 2.76606 6.61874
189 2 2.2208 10.8476 6.9982 10.8677
210 2 2.2208 10.8063 -4.22012 10.7316
198 2 2.2208 8.05186 6.99522 8.09954
140 1 -1.1104 6.41187 -0.0961536 12.2187
133 1 -1.1104 6.45234 -2.75464 9.46386
128 1 -1.1104 6.51085 2.75471 12.26
135 1 -1.1104 6.62761 8.53376 9.57375
186 1 -1.1104 12.2633 -2.74426 12.2564
192 1 -1.1104 12.2039 2.81355 9.4377
188 1 -1.1104 12.258 -0.0277309 12.3517
197 1 -1.1104 9.4161 -2.79579 12.144
193 1 -1.1104 9.30925 -2.72928 9.40614
174 1 -1.1104 9.31695 5.6857 12.2492
191 2 2.2208 10.7085 4.21328 7.94359
179 1 -1.1104 12.2227 5.56851 9.39448
95 1 -1.1104 9.28002 8.36392 6.59504
207 2 2.2208 13.5786 7.04553 7.9444
91 1 -1.1104 9.30673 -2.7898 6.74791
190 2 2.2208 10.8084 1.42613 10.9208
176 2 2.2208 7.97581 4.18824 10.954
127 1 -1.1104 6.4963 -2.78308 12.1601
194 1 -1.1104 9.39869 8.52769 12.236
129 1 -1.1104 6.54273 8.34183 12.1528
187 1 -1.1104 12.1635 5.62002 12.2135
180 1 -1.1104 12.1892 -2.75119 9.48219
172 1 -1.1104 9.35321 5.49432 9.43398
184 1 -1.1104 12.0175 0.00476906 9.6148
195 1 -1.1104 9.23834 2.79248 12.3403
83 1 -1.1104 12.1658 -0.0530579 6.71839
182 1 -1.1104 9.44047 8.35881 9.54401
177 2 2.2208 7.95408 -1.31053 10.874
178 2 2.2208 7.87593 1.39237 8.1048
196 2 2.2208 10.7505 -1.46577 8.14978
181 1 -1.1104 12.3081 8.42993 12.4703
175 1 -1.1104 9.34167 0.0475243 12.2846
144 1 -1.1104 6.39784 0.0509379 9.4611
185 1 -1.1104 12.06 2.77343 12.2493
173 1 -1.1104 9.1615 0.105403 9.58117
183 1 -1.1104 9.4665 2.77498 9.47127
85 1 -1.1104 12.1359 5.61173 6.60714
199 1 -1.1104 12.2137 8.31689 9.54386
206 2 2.2208 13.507 1.39902 7.94676
213 2 2.2208 7.92429 -4.06534 13.5939
200 2 2.2208 10.949 -1.31789 13.7122
214 2 2.2208 5.12445 1.33208 16.4029
215 2 2.2208 5.24598 6.96457 16.4488
216 1 -1.1104 0.981558 -2.75813 17.9636
217 1 -1.1104 0.814913 2.78759 17.9419
218 1 -1.1104 0.999856 8.40232 17.9163
222 1 -1.1104 0.978221 -2.60927 15.0378
223 1 -1.1104 1.03135 2.87175 15.0709
224 1 -1.1104 1.04664 8.34252 14.963
228 2 2.2208 5.20929 -1.50344 19.1726
229 2 2.2208 5.23146 4.14867 19.331
230 1 -1.1104 0.875542 -0.084702 17.8519
231 1 -1.1104 0.843505 5.7112 17.9357
234 1 -1.1104 0.958742 0.0650998 15.0771
235 1 -1.1104 0.781363 5.74215 15.1315
238 2 2.2208 2.31995 1.41729 19.2964
239 2 2.2208 2.50097 7.12477 19.3877
240 1 -1.1104 3.7175 -2.79315 17.8758
241 1 -1.1104 3.61604 2.73307 18.0439
242 1 -1.1104 3.80654 8.33919 17.864
243 1 -1.1104 3.70098 -2.69046 15.174
244 1 -1.1104 3.78072 2.72611 15.0307
245 1 -1.1104 3.76588 8.39223 15.1421
246 2 2.2208 2.23192 -1.3503 16.4482
247 2 2.2208 2.34177 4.12503 16.5924
248 1 -1.1104 3.71727 0.174228 17.7309
249 1 -1.1104 3.68906 5.60734 18.1156
250 1 -1.1104 3.62925 0.000382447 15.0243
251 1 -1.1104 3.76872 5.53477 15.1157
219 1 -1.1104 6.6541 -2.89461 17.7762
307 1 -1.1104 3.67697 -0.158493 20.5874
236 1 -1.1104 6.54239 -0.0286016 14.9664
258 2 2.2208 -0.49191 -4.22601 16.5971
225 1 -1.1104 6.51867 -2.77453 14.9312
237 1 -1.1104 6.62823 5.65779 15.0657
302 1 -1.1104 6.47931 0.0180595 20.7979
308 1 -1.1104 3.71021 5.58129 20.8022
301 1 -1.1104 0.932072 5.71555 20.6695
300 1 -1.1104 1.09962 0.0432482 20.7322
159 2 2.2208 5.03079 -1.39216 13.603
233 1 -1.1104 6.5901 5.56021 17.9704
160 2 2.2208 5.1583 4.31678 13.611
256 2 2.2208 -0.476242 1.36534 16.6273
294 1 -1.1104 0.96001 -2.83458 20.7934
306 1 -1.1104 4.01144 8.42728 20.7799
253 2 2.2208 -0.484382 4.19877 19.3046
254 2 2.2208 -0.418066 -1.33289 19.5333
259 2 2.2208 5.10833 -4.28029 16.5694
166 2 2.2208 -0.420761 4.25165 13.6455
221 1 -1.1104 6.64311 8.25456 17.8099
226 1 -1.1104 6.57624 2.84796 14.9806
232 1 -1.1104 6.57063 -0.0383684 17.9401
227 1 -1.1104 6.57443 8.41935 15.0705
220 1 -1.1104 6.47412 2.74309 17.9344
260 2 2.2208 10.8119 1.42645 16.6081
261 2 2.2208 10.7999 6.90482 16.441
262 1 -1.1104 12.0889 -2.77735 17.7337
263 1 -1.1104 12.193 2.70662 17.8933
264 1 -1.1104 12.3418 8.42315 17.8393
265 1 -1.1104 12.1733 -2.76555 15.061
266 1 -1.1104 12.0616 2.8227 14.9975
267 1 -1.1104 12.1837 8.39656 15.0744
268 2 2.2208 10.7119 -1.38121 19.3145
269 2 2.2208 10.8457 4.08728 19.3678
270 1 -1.1104 12.2004 -0.111824 17.7681
271 1 -1.1104 12.1175 5.52166 17.8264
272 1 -1.1104 12.3442 0.0723433 15.0989
273 1 -1.1104 12.095 5.679 15.0164
274 2 2.2208 7.97409 1.32473 19.2767
275 2 2.2208 8.0418 6.95934 19.2826
276 1 -1.1104 9.35506 -2.79308 17.8319
277 1 -1.1104 9.4667 2.81724 18.0049
278 1 -1.1104 9.50988 8.32676 17.7226
279 1 -1.1104 9.44012 -2.80508 14.9554
280 1 -1.1104 9.19192 2.74982 15.2282
281 1 -1.1104 9.42186 8.30832 14.9733
282 2 2.2208 8.1152 -1.44037 16.4803
283 2 2.2208 7.90747 4.24494 16.5787
284 1 -1.1104 9.36593 -0.0697668 17.9867
285 1 -1.1104 9.34156 5.57867 17.8338
286 1 -1.1104 9.48494 -0.0506304 15.2413
287 1 -1.1104 9.31554 5.51193 15.0439
298 1 -1.1104 6.48133 2.83687 20.7771
370 1 -1.1104 12.1847 2.76447 20.6744
369 1 -1.1104 12.1579 -2.77005 20.6
201 2 2.2208 7.88291 1.38608 13.6337
380 1 -1.1104 9.33217 -2.81668 20.7204
374 1 -1.1104 12.1448 -0.0485219 20.6704
299 1 -1.1104 6.72437 8.46723 20.6257
202 2 2.2208 10.7214 4.31846 13.5964
203 2 2.2208 7.97641 6.95706 13.5851
305 1 -1.1104 3.58563 2.70809 20.7231
296 1 -1.1104 1.17313 8.55153 20.7603
56 2 2.2208 5.16904 6.9649 27.7674
295 1 -1.1104 0.878147 3.02788 20.6489
349 2 2.2208 -0.295443 7.1144 22.095
347 2 2.2208 -0.46723 4.12514 24.8269
304 1 -1.1104 3.7822 -2.93937 20.5508
309 2 2.2208 5.06324 1.37523 22.0959
310 2 2.2208 5.36085 6.99472 22.2001
311 1 -1.1104 0.86631 -2.88238 23.6012
312 1 -1.1104 0.880246 2.66042 23.4913
313 1 -1.1104 1.05385 8.24136 23.5528
317 1 -1.1104 0.857916 -2.83633 26.4241
318 1 -1.1104 1.07676 2.8561 26.3195
319 1 -1.1104 0.97965 8.39415 26.4302
323 2 2.2208 5.28072 -1.43062 24.9099
324 2 2.2208 5.19809 4.20095 24.9185
325 1 -1.1104 0.900616 -0.182551 23.4732
326 1 -1.1104 0.913254 5.50136 23.4641
329 1 -1.1104 0.843741 0.0145056 26.3297
330 1 -1.1104 1.00034 5.65428 26.2969
333 2 2.2208 2.2998 1.42479 24.8827
334 2 2.2208 2.49649 6.99151 25.0168
335 1 -1.1104 3.84854 -2.816 23.6403
336 1 -1.1104 3.69741 2.8257 23.4649
337 1 -1.1104 3.81924 8.41757 23.5995
338 1 -1.1104 3.74382 -2.74148 26.2764
339 1 -1.1104 3.89233 2.87554 26.2517
340 1 -1.1104 3.8828 8.48641 26.3505
341 2 2.2208 2.40702 -1.44461 22.0825
342 2 2.2208 2.27397 4.23806 22.1017
343 1 -1.1104 3.80172 -0.0656619 23.4653
344 1 -1.1104 3.79597 5.71049 23.585
345 1 -1.1104 3.70811 0.151051 26.3766
346 1 -1.1104 3.7879 5.68029 26.3636
328 1 -1.1104 6.67953 5.51267 23.5587
348 2 2.2208 -0.478128 -1.39104 24.9235
352 2 2.2208 -0.451856 -4.15881 22.1871
332 1 -1.1104 6.64353 5.63207 26.4074
68 2 2.2208 -0.453901 -4.20364 27.7608
54 2 2.2208 2.45149 4.14917 27.6468
297 1 -1.1104 6.523 -2.79005 20.7668
303 1 -1.1104 6.55746 5.83109 20.7451
384 1 -1.1104 9.41686 5.62845 20.7684
375 1 -1.1104 12.3244 5.53813 20.6842
331 1 -1.1104 6.5147 -0.00941051 26.2701
315 1 -1.1104 6.49005 2.70812 23.3892
321 1 -1.1104 6.6778 2.90743 26.3171
320 1 -1.1104 6.59602 -2.87188 26.3492
314 1 -1.1104 6.69835 -2.93911 23.4961
322 1 -1.1104 6.72342 8.43702 26.2318
316 1 -1.1104 6.73377 8.30131 23.4999
327 1 -1.1104 6.70325 -0.106412 23.5838
365 1 -1.1104 12.1627 5.60192 26.3468
366 1 -1.1104 12.1995 -2.83564 23.5623
360 2 2.2208 7.9784 -1.40869 22.1031
361 1 -1.1104 9.4939 8.50956 26.2757
387 1 -1.1104 9.4172 8.39473 23.464
354 1 -1.1104 9.37917 5.44834 26.3667
382 1 -1.1104 9.4634 8.42402 20.7104
383 1 -1.1104 9.36345 0.0112582 20.8098
381 1 -1.1104 9.25564 2.8594 20.6606
372 1 -1.1104 12.2635 -2.77682 26.2883
371 1 -1.1104 12.3117 8.37691 20.6357
367 2 2.2208 10.9222 7.05245 22.0737
390 1 -1.1104 9.52128 -2.80871 23.4772
355 1 -1.1104 9.30983 0.020871 26.337
385 1 -1.1104 9.46812 2.86509 26.2729
368 1 -1.1104 12.1694 0.16561 26.2872
379 1 -1.1104 12.1573 8.39168 26.3854
109 2 2.2208 10.8263 6.96604 27.7969
359 2 2.2208 7.93936 4.22799 22.1068
363 1 -1.1104 12.1959 2.86245 23.5034
356 1 -1.1104 9.43796 5.60495 23.5134
376 1 -1.1104 12.1533 5.6523 23.603
377 1 -1.1104 12.0827 0.121579 23.48
373 2 2.2208 10.711 1.47331 22.1373
362 1 -1.1104 12.3005 2.8906 26.3727
357 2 2.2208 8.16078 6.93421 24.9644
358 1 -1.1104 9.31361 0.0906398 23.4745
388 2 2.2208 10.6868 4.19174 24.9645
391 2 2.2208 10.6927 -1.48867 24.8264
378 1 -1.1104 12.3508 8.31677 23.5047
364 2 2.2208 7.97903 1.43306 24.873
386 1 -1.1104 9.37715 -2.72238 26.2946
389 1 -1.1104 9.33791 2.7923 23.5645
107 2 2.2208 8.08033 4.22269 27.7298
115 2 2.2208 13.5784 -1.42273 27.7123
398 2 2.2208 5.14237 12.6801 5.27173
399 2 2.2208 5.31399 18.2512 5.2975
400 1 -1.1104 0.980317 13.8737 0.954184
402 1 -1.1104 1.05249 19.5956 0.884862
406 1 -1.1104 0.903952 13.9846 3.87281
407 1 -1.1104 0.992074 19.5531 3.54962
410 2 2.2208 5.22915 9.8776 2.4397
411 2 2.2208 5.19898 15.4917 2.40907
412 2 2.2208 5.19178 20.8828 2.56214
413 1 -1.1104 0.887931 11.1617 1.15591
415 1 -1.1104 0.928384 16.716 0.995861
421 1 -1.1104 1.01867 11.1675 3.81928
422 1 -1.1104 1.08214 16.7293 3.92536
425 2 2.2208 2.37667 12.5945 2.4879
426 2 2.2208 2.50645 18.2117 2.41945
427 1 -1.1104 3.92061 14.0066 1.20658
429 1 -1.1104 3.82052 19.5862 1.08802
430 1 -1.1104 3.80518 14.0162 3.83558
431 1 -1.1104 3.806 19.6794 3.91627
432 2 2.2208 2.51026 9.7603 5.32556
433 2 2.2208 2.38435 15.3867 5.36789
434 2 2.2208 2.46809 21.059 5.27982
435 1 -1.1104 3.68806 11.2833 1.04349
437 1 -1.1104 3.72945 16.772 1.00246
439 1 -1.1104 3.81216 11.1744 3.87476
440 1 -1.1104 3.87381 16.7831 3.82122
423 1 -1.1104 6.56051 11.354 3.9272
443 2 2.2208 2.45498 9.85111 -0.398341
419 1 -1.1104 6.53693 16.6886 1.15112
452 2 2.2208 -0.439471 12.6387 5.19796
446 2 2.2208 -0.409574 20.9778 2.32573
448 2 2.2208 -0.352354 9.83147 2.51053
449 2 2.2208 -0.261357 18.1483 5.15435
441 2 2.2208 2.49361 21.0188 -0.386738
444 2 2.2208 5.22408 18.1052 -0.339403
451 2 2.2208 -0.325971 12.5515 -0.393211
417 1 -1.1104 6.67271 11.1227 1.20159
409 1 -1.1104 6.65018 19.5147 4.02975
403 1 -1.1104 6.47027 13.9647 1.13981
405 1 -1.1104 6.62131 19.5755 1.17068
424 1 -1.1104 6.62104 16.8419 3.80921
408 1 -1.1104 6.58576 14.1408 3.89552
453 2 2.2208 10.8367 12.7345 5.38599
454 2 2.2208 10.8398 18.2639 5.2893
455 1 -1.1104 12.139 13.9836 1.1037
457 1 -1.1104 12.3151 19.5597 1.29901
458 1 -1.1104 12.3056 13.9767 3.92823
459 1 -1.1104 12.2553 19.6514 3.91684
460 2 2.2208 10.8587 9.79441 2.6095
461 2 2.2208 10.8649 15.3118 2.53763
462 2 2.2208 10.8081 21.0276 2.67874
463 1 -1.1104 12.1324 11.2896 1.15839
465 1 -1.1104 12.3244 16.6749 1.22001
467 1 -1.1104 12.3136 11.1775 3.85707
468 1 -1.1104 12.2549 16.7928 3.90079
469 2 2.2208 8.10711 12.6511 2.61726
470 2 2.2208 8.05473 18.0995 2.58663
471 1 -1.1104 9.37725 13.9646 1.24242
473 1 -1.1104 9.34007 19.5184 1.0317
474 1 -1.1104 9.35685 14.2202 3.99532
475 1 -1.1104 9.27004 19.6938 3.85514
476 2 2.2208 7.94533 9.83674 5.36966
477 2 2.2208 7.97039 15.5485 5.34257
478 2 2.2208 7.94837 21.0876 5.43297
479 1 -1.1104 9.58281 11.1868 1.13369
481 1 -1.1104 9.36395 16.6989 1.16657
483 1 -1.1104 9.38469 11.3875 4.05707
484 1 -1.1104 9.50483 16.9448 4.04101
480 1 -1.1104 9.44189 11.0374 6.7794
464 1 -1.1104 12.2866 11.1673 6.59838
456 1 -1.1104 12.2238 14.0964 6.72287
488 2 2.2208 10.7488 18.2101 -0.17866
482 1 -1.1104 9.46234 16.8023 6.80751
492 2 2.2208 13.6352 15.584 5.23888
491 2 2.2208 13.6519 9.8887 5.26996
485 2 2.2208 8.06742 21.0243 -0.22318
494 2 2.2208 13.5718 15.3194 -0.26666
489 2 2.2208 10.8759 12.592 -0.216302
487 2 2.2208 7.97054 9.75231 -0.355051
498 1 -1.1104 3.85182 19.6215 6.6545
401 1 -1.1104 1.023 13.9473 6.61848
414 1 -1.1104 1.04166 11.2038 6.70548
543 2 2.2208 -0.47079 12.6713 10.9344
438 1 -1.1104 3.84934 16.7266 6.79849
436 1 -1.1104 3.93742 11.2542 6.74738
428 1 -1.1104 3.7534 13.8879 6.74803
538 2 2.2208 -0.406743 15.3886 8.11729
542 2 2.2208 -0.338947 18.2016 10.9729
416 1 -1.1104 0.95655 16.688 6.58197
496 1 -1.1104 1.14716 19.5527 6.50427
499 2 2.2208 5.36167 12.5048 10.9045
500 2 2.2208 5.20635 18.1741 10.8228
501 1 -1.1104 1.07726 13.9864 12.2396
502 1 -1.1104 1.00487 19.5179 12.2404
505 1 -1.1104 0.929132 14.0386 9.52747
506 1 -1.1104 1.09247 19.5627 9.38888
509 2 2.2208 5.1951 9.88268 8.16617
510 2 2.2208 5.22452 15.4108 8.17243
511 2 2.2208 5.2238 21.1188 8.11015
512 1 -1.1104 1.02559 11.2252 12.2187
513 1 -1.1104 0.952209 16.7288 12.3029
516 1 -1.1104 1.02107 11.3797 9.42996
517 1 -1.1104 1.06384 16.6579 9.35279
520 2 2.2208 2.39065 12.7104 8.21999
521 2 2.2208 2.39255 18.193 7.91936
522 1 -1.1104 3.85523 14.1215 12.4022
523 1 -1.1104 3.68219 19.622 12.3702
524 1 -1.1104 3.88583 13.997 9.65211
525 1 -1.1104 3.72995 19.5463 9.4405
526 2 2.2208 2.38345 9.82335 11.0367
527 2 2.2208 2.4051 15.352 10.8913
528 2 2.2208 2.42119 20.9695 10.7684
529 1 -1.1104 3.94361 11.2908 12.3174
530 1 -1.1104 3.82951 16.9117 12.2562
531 1 -1.1104 3.84236 11.2347 9.54979
532 1 -1.1104 3.85385 16.666 9.49575
518 1 -1.1104 6.70324 11.3244 9.5636
503 1 -1.1104 6.69183 13.9046 12.458
540 2 2.2208 -0.36026 9.88392 8.14545
533 2 2.2208 2.50397 18.2639 13.7114
535 2 2.2208 5.11875 9.75379 13.7793
537 2 2.2208 -0.378704 20.9837 8.06437
585 2 2.2208 10.8483 21.1607 13.7555
420 1 -1.1104 6.54636 16.9074 6.75337
497 1 -1.1104 6.65456 19.713 6.65916
577 2 2.2208 10.8387 15.5101 13.6523
560 1 -1.1104 12.1979 19.5899 6.78235
466 1 -1.1104 12.3667 16.8001 6.75426
514 1 -1.1104 6.78818 11.1786 12.4001
576 2 2.2208 8.03422 18.2106 13.6658
546 1 -1.1104 9.39211 16.7951 9.50035
553 2 2.2208 7.91926 15.278 10.9392
570 2 2.2208 10.887 12.5245 10.8317
561 1 -1.1104 9.44725 19.5639 6.5152
515 1 -1.1104 6.55695 16.6939 12.2146
565 1 -1.1104 9.36051 19.6741 9.48686
559 2 2.2208 10.8525 15.3719 8.10206
566 1 -1.1104 9.61616 13.9176 9.52196
418 1 -1.1104 6.75599 11.3595 6.72308
507 1 -1.1104 6.65489 14.0227 9.63132
404 1 -1.1104 6.64897 14.1578 6.78705
554 2 2.2208 8.03713 9.80951 10.8443
567 1 -1.1104 9.30486 19.7693 12.3471
472 1 -1.1104 9.34296 14.0672 6.72825
549 1 -1.1104 9.47527 11.1906 12.281
508 1 -1.1104 6.6151 19.6015 9.44997
556 1 -1.1104 12.4175 16.7285 12.3394
564 1 -1.1104 12.2588 13.888 9.42533
552 2 2.2208 7.98326 21.1046 10.9571
573 1 -1.1104 12.2064 19.5453 12.3228
563 1 -1.1104 12.3224 19.5564 9.48498
548 1 -1.1104 9.30101 16.9146 12.3461
551 1 -1.1104 12.1358 16.8617 9.56613
562 2 2.2208 10.8576 9.73148 8.02494
550 2 2.2208 8.16429 12.6133 8.07739
571 2 2.2208 10.6897 18.1345 11.0392
558 2 2.2208 10.6754 21.0035 8.00326
504 1 -1.1104 6.52856 19.6451 12.26
519 1 -1.1104 6.71197 16.8061 9.59735
569 2 2.2208 8.02768 18.249 8.05982
557 1 -1.1104 12.4259 11.208 12.2481
568 1 -1.1104 9.26679 14.0894 12.368
547 1 -1.1104 9.45415 11.1555 9.478
572 1 -1.1104 12.1716 13.9813 12.2521
555 1 -1.1104 12.0921 11.0647 9.49707
586 2 2.2208 5.27954 12.5915 16.4295
587 2 2.2208 5.22336 18.2461 16.569
588 1 -1.1104 0.919049 14.0032 18.0351
589 1 -1.1104 0.989578 19.5822 17.9476
592 1 -1.1104 0.953882 13.9746 15.1814
593 1 -1.1104 1.16088 19.6646 15.0585
596 2 2.2208 5.28411 9.8504 19.2523
597 2 2.2208 5.10708 15.3977 19.365
598 2 2.2208 5.21457 20.9612 19.3353
599 1 -1.1104 1.02378 11.2345 17.9175
600 1 -1.1104 0.942965 16.9568 17.9263
603 1 -1.1104 0.967003 11.1697 15.0291
604 1 -1.1104 1.07583 16.8111 15.2143
607 2 2.2208 2.30157 12.5372 19.2692
608 2 2.2208 2.32792 18.198 19.3169
609 1 -1.1104 3.82377 13.8773 17.9101
610 1 -1.1104 3.85465 19.6194 17.9672
611 1 -1.1104 3.70194 14.1956 15.1875
612 1 -1.1104 3.79006 19.6083 15.1439
613 2 2.2208 2.31663 9.79245 16.4978
614 2 2.2208 2.30487 15.4466 16.6082
615 2 2.2208 2.48226 20.9733 16.5527
616 1 -1.1104 3.72501 11.0711 17.8693
617 1 -1.1104 3.72297 16.7215 18.0629
618 1 -1.1104 3.63568 11.3301 15.174
619 1 -1.1104 3.81195 16.9068 15.1795
590 1 -1.1104 6.69226 13.9685 17.7766
663 1 -1.1104 1.06514 16.7801 20.727
601 1 -1.1104 6.63644 11.194 17.8578
664 1 -1.1104 6.657 11.3196 20.6625
658 1 -1.1104 0.983586 14.0164 20.8676
660 1 -1.1104 6.50386 13.9362 20.5725
668 1 -1.1104 3.66823 11.3525 20.7316
669 1 -1.1104 3.91559 16.8169 20.7477
621 2 2.2208 -0.543417 20.9188 19.3033
624 2 2.2208 -0.298933 9.86127 19.364
545 2 2.2208 -0.216287 21.0183 13.6704
622 2 2.2208 -0.576579 15.4829 19.4301
623 2 2.2208 -0.482905 12.5773 16.5905
536 2 2.2208 2.41576 12.6734 13.7074
534 2 2.2208 5.25446 15.493 13.7472
544 2 2.2208 5.18582 21.073 13.7821
591 1 -1.1104 6.56512 19.6037 17.9515
595 1 -1.1104 6.58869 19.6541 15.1657
602 1 -1.1104 6.52788 16.8126 17.9523
581 2 2.2208 13.6247 12.737 13.6865
594 1 -1.1104 6.55564 14.0774 15.1114
661 1 -1.1104 6.43973 19.6036 20.8615
606 1 -1.1104 6.65342 16.9336 15.1361
605 1 -1.1104 6.41699 11.1098 15.068
625 2 2.2208 10.7974 12.713 16.5233
626 2 2.2208 10.7876 18.2205 16.4934
627 1 -1.1104 12.2597 14.1542 17.8994
628 1 -1.1104 12.19 19.5921 17.9024
629 1 -1.1104 12.2711 14.0512 15.1765
630 1 -1.1104 12.2348 19.6675 15.1709
632 2 2.2208 10.8804 9.75208 19.2528
633 2 2.2208 10.809 15.4174 19.3512
634 2 2.2208 10.8871 20.9279 19.3166
635 1 -1.1104 12.1701 11.2964 17.885
636 1 -1.1104 12.3381 16.9951 17.9505
637 1 -1.1104 12.2486 11.2664 15.2063
638 1 -1.1104 12.216 16.7824 15.1047
639 2 2.2208 7.94536 12.5237 19.3646
640 2 2.2208 7.9504 18.1013 19.4121
641 1 -1.1104 9.54441 14.0008 17.9833
642 1 -1.1104 9.40364 19.6341 17.7859
643 1 -1.1104 9.31273 14.1599 15.138
644 1 -1.1104 9.37715 19.6997 15.0344
646 2 2.2208 8.09636 9.69573 16.4773
647 2 2.2208 8.02439 15.5455 16.6024
648 2 2.2208 8.03952 20.997 16.5441
649 1 -1.1104 9.3203 11.2283 17.9217
650 1 -1.1104 9.29977 16.6976 18.0418
651 1 -1.1104 9.35645 11.2207 15.1331
652 1 -1.1104 9.29463 16.8798 15.2359
722 1 -1.1104 12.1855 13.9542 20.7794
653 2 2.2208 13.5906 12.5047 19.4
654 2 2.2208 13.5565 18.2042 19.3943
731 1 -1.1104 9.36131 11.2051 20.7259
631 1 -1.1104 12.1951 19.5943 20.679
732 1 -1.1104 9.50664 16.8161 20.6757
645 1 -1.1104 9.21581 19.693 20.79
730 1 -1.1104 9.31867 14.015 20.8098
583 2 2.2208 13.5961 18.2238 13.7143
579 2 2.2208 7.98795 12.5688 13.7497
578 2 2.2208 10.9271 9.80666 13.7193
705 2 2.2208 -0.522877 15.5102 24.876
659 1 -1.1104 0.987762 19.5928 20.7661
708 2 2.2208 -0.427069 12.6191 22.1207
707 2 2.2208 -0.446297 18.3873 22.143
662 1 -1.1104 0.87058 11.2214 20.8732
666 1 -1.1104 3.62306 14.1213 20.6985
667 1 -1.1104 3.74206 19.5314 20.6899
674 1 -1.1104 6.60752 13.9849 23.4461
442 2 2.2208 2.32441 15.394 27.847
450 2 2.2208 -0.335046 18.3722 27.6425
670 2 2.2208 5.15658 12.4964 22.166
671 2 2.2208 5.19213 18.2567 22.1867
672 1 -1.1104 1.04172 13.9234 23.5581
673 1 -1.1104 0.998891 19.5569 23.5623
676 1 -1.1104 1.02099 14.0312 26.1726
677 1 -1.1104 1.01084 19.8129 26.358
680 2 2.2208 5.29491 9.83312 25.0593
681 2 2.2208 5.13317 15.3957 25.0122
682 2 2.2208 5.17247 21.0164 25.1068
683 1 -1.1104 1.27728 11.0659 23.6789
684 1 -1.1104 1.01877 16.8312 23.4409
687 1 -1.1104 1.02006 11.1997 26.2714
688 1 -1.1104 0.862013 16.9457 26.3402
691 2 2.2208 2.47739 12.6196 24.9536
692 2 2.2208 2.39164 18.1949 24.9533
693 1 -1.1104 3.8835 14.0283 23.4725
694 1 -1.1104 3.91653 19.6652 23.6831
695 1 -1.1104 3.79703 13.9416 26.3571
696 1 -1.1104 3.76578 19.5263 26.3473
697 2 2.2208 2.59192 9.78065 22.2501
698 2 2.2208 2.33331 15.3081 22.1337
699 2 2.2208 2.41614 20.9863 22.0768
700 1 -1.1104 3.93304 11.1391 23.7033
701 1 -1.1104 3.67349 16.8859 23.7333
702 1 -1.1104 3.95646 11.3281 26.41
703 1 -1.1104 3.82134 16.7317 26.2943
678 1 -1.1104 6.54938 14.0977 26.3071
706 2 2.2208 -0.381709 9.85505 24.9723
686 1 -1.1104 6.47292 17.0992 23.5711
675 1 -1.1104 6.65694 19.7794 23.6205
704 2 2.2208 -0.268943 21.1822 24.8681
445 2 2.2208 5.19205 12.6383 27.8894
738 2 2.2208 10.7374 12.5878 22.2044
727 1 -1.1104 12.2557 16.7872 20.7627
724 2 2.2208 10.6856 15.3883 25.0177
689 1 -1.1104 6.54397 11.2411 26.4412
729 1 -1.1104 12.1673 11.121 23.4776
728 1 -1.1104 12.2538 19.6461 23.6549
665 1 -1.1104 6.76995 16.6965 20.7158
493 2 2.2208 13.4714 9.76076 27.7718
716 1 -1.1104 9.35281 19.5588 26.3928
715 2 2.2208 8.09123 9.79049 22.0468
709 1 -1.1104 9.17621 16.7307 26.5439
710 1 -1.1104 9.37452 11.2127 26.3673
739 2 2.2208 10.8751 18.2796 22.2625
714 2 2.2208 7.9573 15.2719 22.135
720 1 -1.1104 12.0458 19.5383 26.5184
726 1 -1.1104 12.0218 11.0588 20.6531
679 1 -1.1104 6.5659 19.6749 26.5554
713 2 2.2208 7.97387 20.98 22.2463
685 1 -1.1104 6.62616 11.0608 23.4757
734 1 -1.1104 9.36278 19.5444 23.5077
733 1 -1.1104 9.39137 14.0702 26.3932
737 2 2.2208 7.91406 12.5552 25.0614
740 1 -1.1104 12.2158 13.9977 23.5899
736 2 2.2208 7.98214 18.1589 24.9125
690 1 -1.1104 6.56381 16.8309 26.387
735 1 -1.1104 9.37265 13.9735 23.6903
725 1 -1.1104 12.1602 16.8197 23.6923
717 2 2.2208 10.7662 9.87618 24.7951
721 1 -1.1104 12.1126 11.1683 26.2055
718 2 2.2208 10.8098 20.9311 25.0557
719 1 -1.1104 12.119 16.7854 26.4852
711 1 -1.1104 9.2531 16.8152 23.5915
712 1 -1.1104 9.31906 11.1786 23.5972
723 1 -1.1104 12.1589 13.966 26.4799
741 2 2.2208 13.6054 12.6079 25.0236
743 2 2.2208 13.5953 9.7625 22.1228
486 2 2.2208 7.92333 15.3599 27.7688
746 2 2.2208 5.26115 23.9034 5.27629
748 2 2.2208 5.24013 29.4271 5.33521
749 1 -1.1104 0.988654 25.2383 0.97546
750 1 -1.1104 1.19545 30.9064 1.00563
753 1 -1.1104 1.00718 25.3957 3.89888
754 1 -1.1104 0.910683 30.9828 3.78678
757 2 2.2208 5.36289 26.642 2.58126
758 2 2.2208 5.30907 32.3062 2.50521
759 1 -1.1104 1.02355 22.4313 0.944717
760 1 -1.1104 0.990732 28.0162 1.01383
761 1 -1.1104 0.978744 33.6423 1.09362
765 1 -1.1104 1.16835 22.3192 3.75651
766 1 -1.1104 1.12877 28.0902 3.98516
767 1 -1.1104 0.957666 33.8279 3.83032
771 2 2.2208 2.49215 23.819 2.48488
772 2 2.2208 2.36222 29.508 2.46336
773 1 -1.1104 3.84833 25.2403 1.24913
774 1 -1.1104 3.92734 31.0408 1.08299
775 1 -1.1104 3.86086 25.3627 3.97173
776 1 -1.1104 3.69846 30.8109 3.91797
778 2 2.2208 2.50144 26.7213 5.199
779 2 2.2208 2.40823 32.3508 5.22357
780 1 -1.1104 3.84601 22.3895 1.04404
781 1 -1.1104 3.80956 28.0115 1.25424
782 1 -1.1104 3.70776 33.8897 1.13437
783 1 -1.1104 3.9048 22.5332 3.82875
784 1 -1.1104 3.99229 28.0357 3.93516
785 1 -1.1104 3.97732 33.5942 3.89234
787 2 2.2208 -0.315187 23.7869 5.34167
786 2 2.2208 -0.455607 26.5887 2.39443
768 1 -1.1104 6.53927 22.2958 3.90844
833 1 -1.1104 1.12234 27.9309 6.69267
769 1 -1.1104 6.77224 27.9914 3.81608
789 2 2.2208 -0.324949 29.4653 5.26782
751 1 -1.1104 6.49664 25.1916 1.12778
790 2 2.2208 -0.331774 32.3157 2.45867
791 2 2.2208 5.26919 23.8742 -0.213439
777 2 2.2208 2.54556 26.5842 -0.294631
788 2 2.2208 -0.372027 29.4811 -0.473517
1080 2 2.2208 2.34659 32.3714 -0.389697
762 1 -1.1104 6.65983 22.3703 1.29192
770 1 -1.1104 6.81705 33.517 3.85131
764 1 -1.1104 6.5449 33.5458 1.0979
763 1 -1.1104 6.60283 27.9236 1.13216
756 1 -1.1104 6.72859 30.8031 4.02246
755 1 -1.1104 6.89964 25.234 3.94291
752 1 -1.1104 6.61573 30.7355 1.25817
793 2 2.2208 10.7807 23.8346 5.40026
794 2 2.2208 10.9104 29.4666 5.22597
795 1 -1.1104 12.158 25.1772 0.945852
796 1 -1.1104 12.3278 30.7998 1.07406
797 1 -1.1104 12.1836 25.4623 3.91202
798 1 -1.1104 12.3116 31.1573 3.79799
799 2 2.2208 10.7368 26.5167 2.40738
800 2 2.2208 10.8474 32.2591 2.35122
801 1 -1.1104 12.062 22.3165 1.15865
802 1 -1.1104 12.2644 27.9152 1.20876
803 1 -1.1104 12.2349 33.7013 1.09511
804 1 -1.1104 12.2245 22.5211 3.9932
805 1 -1.1104 12.3088 28.0548 3.95849
806 1 -1.1104 12.1954 33.8825 3.95969
807 2 2.2208 8.05415 23.7515 2.53094
808 2 2.2208 8.02859 29.513 2.5521
809 1 -1.1104 9.35692 25.1508 1.13666
810 1 -1.1104 9.43888 30.6303 1.09891
811 1 -1.1104 9.5316 25.2828 3.8808
812 1 -1.1104 9.66616 30.7817 3.8506
814 2 2.2208 8.21376 26.6836 5.25812
815 2 2.2208 8.17487 32.1025 5.24677
816 1 -1.1104 9.39739 22.4226 1.07308
817 1 -1.1104 9.39091 27.9641 1.07322
818 1 -1.1104 9.25984 33.693 1.03703
819 1 -1.1104 9.46175 22.438 4.02426
820 1 -1.1104 9.45338 28.0824 3.83959
821 1 -1.1104 9.62322 33.462 3.87302
901 1 -1.1104 9.55365 30.8763 6.7446
899 1 -1.1104 12.3103 33.7116 6.74274
895 1 -1.1104 12.228 25.1199 6.61097
827 2 2.2208 13.6816 26.6227 5.3075
813 2 2.2208 7.97995 26.6704 -0.224333
822 2 2.2208 10.8164 23.8237 -0.429732
1113 2 2.2208 7.85128 32.1752 -0.180072
1115 2 2.2208 10.7956 29.3245 -0.212956
838 1 -1.1104 3.87155 25.1025 6.76587
841 1 -1.1104 3.8672 28.1037 6.76535
834 1 -1.1104 1.11576 33.6057 6.7094
832 1 -1.1104 1.00408 22.5158 6.68661
989 2 2.2208 -0.350501 26.6784 13.686
831 1 -1.1104 6.69968 30.8413 6.66521
839 1 -1.1104 3.84665 30.813 6.69017
842 1 -1.1104 3.94386 33.6538 6.69825
829 1 -1.1104 0.989741 30.8745 6.69038
828 1 -1.1104 1.02323 25.155 6.63273
837 1 -1.1104 6.7871 33.729 6.55988
840 1 -1.1104 3.8339 22.4516 6.80794