LAMMPS (29 Oct 2020)
OMP_NUM_THREADS environment is not set. Defaulting to 1 thread. (../comm.cpp:94)
  using 1 OpenMP thread(s) per MPI task
OMP_NUM_THREADS environment is not set. Defaulting to 1 thread. (../comm.cpp:94)
  using 1 OpenMP thread(s) per MPI task
Reading data file ...
  orthogonal box = (-0.36065559 -4.3231929 -0.3557321) to (27.700656 332.40319 27.695732)
  2 by 13 by 2 MPI processor grid
  reading atoms ...
  17910 atoms
  reading velocities ...
  17910 velocities
Finding 1-2 1-3 1-4 neighbors ...
  special bond factors lj:    0.0      0.0      0.0     
  special bond factors coul:  0.0      0.0      0.0     
     0 = max # of 1-2 neighbors
     0 = max # of 1-3 neighbors
     0 = max # of 1-4 neighbors
     1 = max # of special neighbors
  special bonds CPU = 0.003 seconds
  read_data CPU = 0.093 seconds
Setting atom values ...
  11940 settings made for charge
Setting atom values ...
  5970 settings made for charge
PPPM initialization ...
  using 12-bit tables for long-range coulomb (../kspace.cpp:328)
  G vector (1/distance) = 0.29883711
  grid = 40 240 40
  stencil order = 5
  estimated absolute RMS force accuracy = 0.00015728919
  estimated relative force accuracy = 1.092313e-05
  using single precision MKL FFT
  3d grid and FFT values/proc = 15000 7600
Neighbor list info ...
  update every 1 steps, delay 0 steps, check yes
  max neighbors/atom: 2000, page size: 100000
  master list distance cutoff = 11.3
  ghost atom cutoff = 11.3
  binsize = 5.65, bins = 5 60 5
  2 neighbor lists, perpetual/occasional/extra = 2 0 0
  (1) pair coul/long, perpetual
      attributes: half, newton on
      pair build: half/bin/newton
      stencil: half/bin/3d/newton
      bin: standard
  (2) pair eam/alloy, perpetual, copy from (1)
      attributes: half, newton on
      pair build: copy
      stencil: none
      bin: none
Setting up Verlet run ...
  Unit style    : metal
  Current step  : 0
  Time step     : 0.001
Per MPI rank memory allocation (min/avg/max) = 8.153 | 8.182 | 8.200 Mbytes
Step Temp E_pair E_mol TotEng Press 
       0          600   -234174.92            0   -232785.97   -374.60947 
  100000    600.96408   -234186.38            0    -232795.2   -735.98877 
Loop time of 641.421 on 52 procs for 100000 steps with 17910 atoms

Performance: 13.470 ns/day, 1.782 hours/ns, 155.904 timesteps/s
99.8% CPU use with 52 MPI tasks x 1 OpenMP threads

MPI task timing breakdown:
Section |  min time  |  avg time  |  max time  |%varavg| %total
---------------------------------------------------------------
Pair    | 434.53     | 448.05     | 458.31     |  23.7 | 69.85
Bond    | 0.0066968  | 0.010009   | 0.014639   |   1.9 |  0.00
Kspace  | 126.67     | 139.21     | 155        |  51.0 | 21.70
Neigh   | 32.962     | 34.929     | 37.252     |  17.5 |  5.45
Comm    | 13.894     | 14.914     | 17.316     |  23.0 |  2.33
Output  | 5.2731e-05 | 5.8536e-05 | 0.00030929 |   0.0 |  0.00
Modify  | 1.6159     | 3.0548     | 5.1185     |  63.3 |  0.48
Other   |            | 1.255      |            |       |  0.20

Nlocal:        344.423 ave         367 max         323 min
Histogram: 2 1 6 12 8 9 5 4 2 3
Nghost:        4126.42 ave        4252 max        4021 min
Histogram: 4 6 3 7 10 9 4 5 0 4
Neighs:        69260.3 ave       74402 max       64795 min
Histogram: 3 2 5 10 10 8 6 3 3 2

Total # of neighbors = 3601536
Ave neighs/atom = 201.09079
Ave special neighs/atom = 0.0000000
Neighbor list builds = 16203
Dangerous builds = 0
11940 atoms in group oxygen
PPPM initialization ...
  using 12-bit tables for long-range coulomb (../kspace.cpp:328)
  G vector (1/distance) = 0.29883711
  grid = 40 240 40
  stencil order = 5
  estimated absolute RMS force accuracy = 0.00015728919
  estimated relative force accuracy = 1.092313e-05
  using single precision MKL FFT
  3d grid and FFT values/proc = 15000 7600
Setting up Verlet run ...
  Unit style    : metal
  Current step  : 0
  Time step     : 0.001
Per MPI rank memory allocation (min/avg/max) = 8.404 | 8.433 | 8.450 Mbytes
Step f_2 Temp v_Tdiff v_deltaT 
       0            0    600.96408            0            0 
  100000    691.84558    599.90257  0.017261605    200.40563 
  200000    1378.6081    600.32125  0.018610393    216.06494 
  300000    2067.7556    599.00888  0.018135834    210.55535 
  400000     2757.075    592.51602  0.018156254    210.79243 
  500000     3446.884    601.33057  0.017913338    207.97219 
  600000     4129.744    597.04337  0.018072035    209.81464 
  700000    4814.0502    599.07493  0.018341357    212.94145 
  800000     5500.223    598.23828  0.018825596    218.56342 
  900000    6186.8189    600.08663    0.0177328    205.87616 
 1000000    6876.1887    597.10942  0.017562496    203.89895 
 1100000    7563.8155    600.08426  0.018672841    216.78995 
 1200000    8248.3868    598.74534  0.018244688    211.81913 
 1300000     8937.161    604.72005  0.017588473    204.20054 
 1400000    9630.9473    595.44482  0.018001915    209.00056 
 1500000    10316.998    597.66345   0.01836653    213.23371 
Loop time of 9496.37 on 52 procs for 1500000 steps with 17910 atoms

Performance: 13.647 ns/day, 1.759 hours/ns, 157.955 timesteps/s
99.8% CPU use with 52 MPI tasks x 1 OpenMP threads

MPI task timing breakdown:
Section |  min time  |  avg time  |  max time  |%varavg| %total
---------------------------------------------------------------
Pair    | 6486.2     | 6602.6     | 6740.9     |  79.0 | 69.53
Bond    | 0.10117    | 0.15157    | 0.2195     |   7.2 |  0.00
Kspace  | 1913.8     | 2083.9     | 2243.5     | 170.7 | 21.94
Neigh   | 506.79     | 533.82     | 562.7      |  61.1 |  5.62
Comm    | 207.81     | 222.97     | 261.79     |  94.1 |  2.35
Output  | 0.0015476  | 0.0016732  | 0.0035028  |   0.6 |  0.00
Modify  | 8.116      | 8.7033     | 9.4768     |  12.5 |  0.09
Other   |            | 44.19      |            |       |  0.47

Nlocal:        344.423 ave         367 max         329 min
Histogram: 4 7 7 13 4 4 6 4 1 2
Nghost:        4156.69 ave        4247 max        4065 min
Histogram: 8 5 2 4 5 3 10 5 6 4
Neighs:        69260.5 ave       73196 max       66090 min
Histogram: 7 6 4 7 5 7 4 6 4 2

Total # of neighbors = 3601546
Ave neighs/atom = 201.09135
Ave special neighs/atom = 0.0000000
Neighbor list builds = 247975
Dangerous builds = 0
Total wall time: 2:48:58
