LAMMPS (29 Oct 2020)
OMP_NUM_THREADS environment is not set. Defaulting to 1 thread. (../comm.cpp:94)
  using 1 OpenMP thread(s) per MPI task
OMP_NUM_THREADS environment is not set. Defaulting to 1 thread. (../comm.cpp:94)
  using 1 OpenMP thread(s) per MPI task
Reading data file ...
  triclinic box = (-0.14931728 -3.8773819 -0.16986773) to (28.043317 338.60538 28.063868) with tilt (0.0000000 0.0000000 0.0000000)
  2 by 13 by 2 MPI processor grid
  reading atoms ...
  18000 atoms
  reading velocities ...
  18000 velocities
Finding 1-2 1-3 1-4 neighbors ...
  special bond factors lj:    0.0      0.0      0.0     
  special bond factors coul:  0.0      0.0      0.0     
     0 = max # of 1-2 neighbors
     0 = max # of 1-3 neighbors
     0 = max # of 1-4 neighbors
     1 = max # of special neighbors
  special bonds CPU = 0.003 seconds
  read_data CPU = 0.071 seconds
Setting atom values ...
  12000 settings made for charge
Setting atom values ...
  5820 settings made for charge
Setting atom values ...
  0 settings made for charge
Setting atom values ...
  180 settings made for charge
PPPM initialization ...
  using 12-bit tables for long-range coulomb (../kspace.cpp:328)
  G vector (1/distance) = 0.29821044
  grid = 40 240 40
  stencil order = 5
  estimated absolute RMS force accuracy = 0.00016337673
  estimated relative force accuracy = 1.1345886e-05
  using single precision MKL FFT
  3d grid and FFT values/proc = 15000 7600
Neighbor list info ...
  update every 1 steps, delay 0 steps, check yes
  max neighbors/atom: 2000, page size: 100000
  master list distance cutoff = 11.3
  ghost atom cutoff = 11.3
  binsize = 5.65, bins = 5 61 5
  2 neighbor lists, perpetual/occasional/extra = 2 0 0
  (1) pair coul/long, perpetual
      attributes: half, newton on
      pair build: half/bin/newton/tri
      stencil: half/bin/3d/newton/tri
      bin: standard
  (2) pair eam/alloy, perpetual, copy from (1)
      attributes: half, newton on
      pair build: copy
      stencil: none
      bin: none
Setting up Verlet run ...
  Unit style    : metal
  Current step  : 0
  Time step     : 0.001
Per MPI rank memory allocation (min/avg/max) = 8.314 | 8.343 | 8.368 Mbytes
Step Temp E_pair E_mol TotEng Press 
       0          600   -233703.78            0   -232307.85    764.11312 
  100000    602.75201   -233739.98            0   -232337.64   -828.76101 
Loop time of 736.755 on 52 procs for 100000 steps with 18000 atoms

Performance: 11.727 ns/day, 2.047 hours/ns, 135.730 timesteps/s
99.8% CPU use with 52 MPI tasks x 1 OpenMP threads

MPI task timing breakdown:
Section |  min time  |  avg time  |  max time  |%varavg| %total
---------------------------------------------------------------
Pair    | 447.15     | 476.45     | 515.57     | 105.0 | 64.67
Bond    | 0.0062422  | 0.01074    | 0.014966   |   1.9 |  0.00
Kspace  | 139.7      | 186.31     | 220.65     | 188.0 | 25.29
Neigh   | 45.418     | 50.015     | 56.646     |  43.0 |  6.79
Comm    | 17.325     | 19.027     | 22.252     |  23.1 |  2.58
Output  | 5.4716e-05 | 5.993e-05  | 0.00025613 |   0.0 |  0.00
Modify  | 1.8597     | 3.431      | 5.231      |  55.5 |  0.47
Other   |            | 1.505      |            |       |  0.20

Nlocal:        346.154 ave         377 max         321 min
Histogram: 2 5 7 8 8 10 6 3 1 2
Nghost:        4010.37 ave        4205 max        3856 min
Histogram: 5 4 5 13 9 0 7 2 3 4
Neighs:        68886.5 ave       79286 max       62187 min
Histogram: 3 8 10 9 7 5 6 1 1 2

Total # of neighbors = 3582096
Ave neighs/atom = 199.00533
Ave special neighs/atom = 0.0000000
Neighbor list builds = 16220
Dangerous builds = 0
12000 atoms in group oxygen
PPPM initialization ...
  using 12-bit tables for long-range coulomb (../kspace.cpp:328)
  G vector (1/distance) = 0.29821044
  grid = 40 240 40
  stencil order = 5
  estimated absolute RMS force accuracy = 0.00016337673
  estimated relative force accuracy = 1.1345886e-05
  using single precision MKL FFT
  3d grid and FFT values/proc = 15000 7600
Setting up Verlet run ...
  Unit style    : metal
  Current step  : 0
  Time step     : 0.001
Per MPI rank memory allocation (min/avg/max) = 8.564 | 8.594 | 8.619 Mbytes
Step f_2 Temp v_Tdiff v_deltaT 
       0            0    602.75201            0            0 
  100000    604.51412    607.90776   0.02819045    327.28851 
  200000    1144.9346    609.66998  0.035392122    410.89925 
  300000    1684.4205    611.76378  0.034717203     403.0635 
  400000    2228.8732    611.86632   0.03506679    407.12218 
  500000    2774.7194    615.05114  0.035184104    408.48418 
  600000    3318.8482    614.45592  0.035792174    415.54382 
  700000    3857.0253     612.6332  0.034876878    404.91731 
  800000    4400.0712    621.07334  0.036275932     421.1602 
  900000    4950.3116    618.38696  0.034583029    401.50575 
 1000000    5506.1093    622.17269  0.034864453    404.77306 
Loop time of 7428.05 on 52 procs for 1000000 steps with 18000 atoms

Performance: 11.632 ns/day, 2.063 hours/ns, 134.625 timesteps/s
99.8% CPU use with 52 MPI tasks x 1 OpenMP threads

MPI task timing breakdown:
Section |  min time  |  avg time  |  max time  |%varavg| %total
---------------------------------------------------------------
Pair    | 4448       | 4761.6     | 5185.8     | 348.5 | 64.10
Bond    | 0.066228   | 0.1049     | 0.16557    |   6.0 |  0.00
Kspace  | 1397.5     | 1905.2     | 2256.9     | 619.3 | 25.65
Neigh   | 481.14     | 528.57     | 602.42     | 149.1 |  7.12
Comm    | 174.58     | 192.25     | 225.22     |  79.4 |  2.59
Output  | 0.0011317  | 0.0011986  | 0.002325   |   0.5 |  0.00
Modify  | 5.6289     | 6.3663     | 7.1633     |  15.3 |  0.09
Other   |            | 34         |            |       |  0.46

Nlocal:        346.154 ave         371 max         319 min
Histogram: 1 5 6 7 5 5 7 8 7 1
Nghost:        4001.13 ave        4172 max        3879 min
Histogram: 10 4 6 9 6 1 2 5 5 4
Neighs:        68913.7 ave       78001 max       61917 min
Histogram: 2 11 6 6 6 9 1 6 3 2

Total # of neighbors = 3583510
Ave neighs/atom = 199.08389
Ave special neighs/atom = 0.0000000
Neighbor list builds = 170999
Dangerous builds = 0
Total wall time: 2:16:05
