LAMMPS (29 Oct 2020)
OMP_NUM_THREADS environment is not set. Defaulting to 1 thread. (../comm.cpp:94)
  using 1 OpenMP thread(s) per MPI task
#---------------------------------------
#
# This script is used to calculate the thermal conuctivity of UO2 using Muller-Plathe method
# By Ziqiang Wang on 03/18/2022 on Jilin university
#
#---------------------------------------

variable     Nevery    equal   50
variable     T         equal   1200

clear
OMP_NUM_THREADS environment is not set. Defaulting to 1 thread. (../comm.cpp:94)
  using 1 OpenMP thread(s) per MPI task
units          metal
boundary       p p p
atom_style     full

read_data Frenkel_0.0025_relaxed.dat
Reading data file ...
  triclinic box = (-0.17574415 -2.2371655 -0.17776064) to (28.069744 336.96517 28.071761) with tilt (0.0000000 0.0000000 0.0000000)
  2 by 13 by 2 MPI processor grid
  reading atoms ...
  18000 atoms
  reading velocities ...
  18000 velocities
Finding 1-2 1-3 1-4 neighbors ...
  special bond factors lj:    0.0      0.0      0.0     
  special bond factors coul:  0.0      0.0      0.0     
     0 = max # of 1-2 neighbors
     0 = max # of 1-3 neighbors
     0 = max # of 1-4 neighbors
     1 = max # of special neighbors
  special bonds CPU = 0.003 seconds
  read_data CPU = 0.061 seconds

set           type     1    charge     -1.1104
Setting atom values ...
  11970 settings made for charge
set           type     2    charge      2.2208
Setting atom values ...
  5985 settings made for charge
set           type     3    charge     -1.1104
Setting atom values ...
  30 settings made for charge
set           type     4    charge      2.2208
Setting atom values ...
  15 settings made for charge

kspace_style    pppm   1.0e-05
pair_style      hybrid/overlay  coul/long  11.0  eam/alloy
pair_coeff      * * coul/long
pair_coeff      * * eam/alloy CeThUNpPuAmCmO.eam.alloy O Th O Th
newton          on
neighbor        0.3 bin
neigh_modify    delay 0 check yes every 1

#The first equilation
velocity        all create $T 10002 mom yes rot yes dist gaussian
velocity        all create 1200 10002 mom yes rot yes dist gaussian
fix             nvt  all  nvt  temp  $T $T  0.1
fix             nvt  all  nvt  temp  1200 $T  0.1
fix             nvt  all  nvt  temp  1200 1200  0.1

run             100000
PPPM initialization ...
  using 12-bit tables for long-range coulomb (../kspace.cpp:328)
  G vector (1/distance) = 0.2984483
  grid = 40 240 40
  stencil order = 5
  estimated absolute RMS force accuracy = 0.00016091325
  estimated relative force accuracy = 1.1174807e-05
  using single precision MKL FFT
  3d grid and FFT values/proc = 15000 7600
Neighbor list info ...
  update every 1 steps, delay 0 steps, check yes
  max neighbors/atom: 2000, page size: 100000
  master list distance cutoff = 11.3
  ghost atom cutoff = 11.3
  binsize = 5.65, bins = 5 61 5
  2 neighbor lists, perpetual/occasional/extra = 2 0 0
  (1) pair coul/long, perpetual
      attributes: half, newton on
      pair build: half/bin/newton/tri
      stencil: half/bin/3d/newton/tri
      bin: standard
  (2) pair eam/alloy, perpetual, copy from (1)
      attributes: half, newton on
      pair build: copy
      stencil: none
      bin: none
Per MPI rank memory allocation (min/avg/max) = 8.316 | 8.344 | 8.360 Mbytes
Step Temp E_pair E_mol TotEng Press 
       0         1200   -233728.07            0   -230936.21    -770.0496 
  100000     1197.357   -233727.06            0   -230941.34   -947.27277 
Loop time of 716.082 on 52 procs for 100000 steps with 18000 atoms

Performance: 12.066 ns/day, 1.989 hours/ns, 139.649 timesteps/s
99.8% CPU use with 52 MPI tasks x 1 OpenMP threads

MPI task timing breakdown:
Section |  min time  |  avg time  |  max time  |%varavg| %total
---------------------------------------------------------------
Pair    | 458.21     | 466.5      | 476.75     |  21.0 | 65.15
Bond    | 0.006979   | 0.010714   | 0.016134   |   2.0 |  0.00
Kspace  | 143.83     | 158.21     | 168.74     |  50.5 | 22.09
Neigh   | 62.706     | 65.499     | 69.807     |  28.3 |  9.15
Comm    | 18.958     | 20.909     | 24.941     |  29.6 |  2.92
Output  | 5.3192e-05 | 5.8955e-05 | 0.00026726 |   0.0 |  0.00
Modify  | 1.9984     | 3.4226     | 5.6394     |  64.8 |  0.48
Other   |            | 1.536      |            |       |  0.21

Nlocal:        346.154 ave         365 max         329 min
Histogram: 3 4 9 6 5 7 7 4 5 2
Nghost:        4021.08 ave        4110 max        3951 min
Histogram: 9 7 3 2 7 8 4 5 4 3
Neighs:        69718.4 ave       73591 max       66026 min
Histogram: 4 4 6 7 5 7 9 5 2 3

Total # of neighbors = 3625356
Ave neighs/atom = 201.40867
Ave special neighs/atom = 0.0000000
Neighbor list builds = 22000
Dangerous builds = 0
unfix           nvt
reset_timestep  0

# the second run
fix             1 all nve

group           oxygen type 1
11970 atoms in group oxygen
fix             2 oxygen thermal/conductivity ${Nevery} y 20
fix             2 oxygen thermal/conductivity 50 y 20

compute         ke all ke/atom
variable        temp atom c_ke/1.5
compute         layers all chunk/atom bin/1d y lower 0.05 units reduced
fix             3      all ave/chunk  2000 50 100000 layers v_temp file profile_${T}K.mp
fix             3      all ave/chunk  2000 50 100000 layers v_temp file profile_1200K.mp

variable        Tdiff    equal     f_3[11][3]-f_3[1][3]
variable        deltaT   equal     v_Tdiff*1.5/0.0001292

timestep        0.001
thermo_style    custom step f_2 temp v_Tdiff v_deltaT
thermo          100000

run             1000000
PPPM initialization ...
  using 12-bit tables for long-range coulomb (../kspace.cpp:328)
  G vector (1/distance) = 0.2984483
  grid = 40 240 40
  stencil order = 5
  estimated absolute RMS force accuracy = 0.00016091325
  estimated relative force accuracy = 1.1174807e-05
  using single precision MKL FFT
  3d grid and FFT values/proc = 15000 7600
Per MPI rank memory allocation (min/avg/max) = 8.566 | 8.594 | 8.610 Mbytes
Step f_2 Temp v_Tdiff v_deltaT 
       0            0     1197.357            0            0 
  100000    1322.8413    1206.6635  0.045790466    531.62306 
  200000    2586.4777    1198.6649  0.053584787     622.1144 
  300000    3840.7009    1204.9979  0.056215308    652.65451 
  400000     5097.078    1204.7816  0.053366422    619.57921 
  500000    6369.5215    1203.3686  0.052430611    608.71453 
  600000    7633.6588    1212.5313  0.052961557    614.87875 
  700000     8906.352     1203.672  0.053497293    621.09861 
  800000    10176.853     1194.823  0.052951532    614.76237 
  900000    11441.265    1198.1757     0.054567     633.5178 
 1000000    12713.144    1201.5171  0.053780668    624.38856 
Loop time of 7135.01 on 52 procs for 1000000 steps with 18000 atoms

Performance: 12.109 ns/day, 1.982 hours/ns, 140.154 timesteps/s
99.8% CPU use with 52 MPI tasks x 1 OpenMP threads

MPI task timing breakdown:
Section |  min time  |  avg time  |  max time  |%varavg| %total
---------------------------------------------------------------
Pair    | 4525.7     | 4615       | 4679.3     |  60.5 | 64.68
Bond    | 0.069914   | 0.10481    | 0.15945    |   6.2 |  0.00
Kspace  | 1455.3     | 1570.6     | 1686.1     | 137.5 | 22.01
Neigh   | 670.24     | 698.69     | 740.84     |  76.9 |  9.79
Comm    | 194.82     | 212.32     | 250.94     |  88.0 |  2.98
Output  | 0.0011628  | 0.0012159  | 0.0024253  |   0.5 |  0.00
Modify  | 5.8032     | 6.3268     | 7.2371     |  12.1 |  0.09
Other   |            | 32.02      |            |       |  0.45

Nlocal:        346.154 ave         364 max         325 min
Histogram: 1 1 5 9 9 4 11 4 5 3
Nghost:        4021.06 ave        4108 max        3953 min
Histogram: 6 4 7 6 8 7 4 5 3 2
Neighs:        69725.5 ave       73109 max       65399 min
Histogram: 1 3 4 5 10 6 7 5 5 6

Total # of neighbors = 3625728
Ave neighs/atom = 201.42933
Ave special neighs/atom = 0.0000000
Neighbor list builds = 234407
Dangerous builds = 0

Total wall time: 2:10:51
