ITEM: TIMESTEP
50000
ITEM: NUMBER OF ATOMS
18000
ITEM: BOX BOUNDS xy xz yz pp pp pp
-2.2528192561049443e-01 2.8119281925610522e+01 0.0000000000000000e+00
-2.7587444790422979e+00 3.3748674447902948e+02 0.0000000000000000e+00
-2.3456274853565173e-01 2.8128562748535877e+01 0.0000000000000000e+00
ITEM: ATOMS id type x y z
1 1 1.22813 -1.15617 1.05318
2 1 4.14616 -1.03688 0.760999
3 1 4.18854 -1.19344 4.03569
4 1 1.42986 -1.13238 3.8989
5 1 1.65969 1.77841 1.10681
6 1 4.39409 1.54677 1.06677
7 1 3.84202 1.37395 3.89586
8 1 0.989718 1.98748 3.72162
9 1 6.9262 -1.25533 1.32976
10 1 9.86141 -1.25691 1.04022
11 1 9.37146 -0.542207 3.65844
12 1 6.77453 -0.979448 4.03802
13 1 7.1046 1.56258 1.13408
14 1 9.76623 1.75744 1.74787
15 1 9.16623 2.14192 4.4876
16 1 6.57287 1.68797 3.7305
17 1 12.5915 -1.28804 1.4243
18 1 12.4869 -0.992256 4.13992
19 1 12.5337 1.60036 1.32299
20 1 12.089 1.8412 4.03797
21 1 1.23956 4.35601 1.11192
22 1 4.02128 4.50191 1.22315
23 1 4.04768 4.46977 4.00411
24 1 0.906905 4.57834 4.21644
25 1 1.52258 7.13153 1.21355
26 1 4.08224 7.3467 1.23797
27 1 3.81661 7.11195 3.99938
28 1 1.06586 7.21623 4.11171
29 1 6.82183 4.23026 0.970508
30 1 9.59727 4.66616 1.05367
31 1 9.97625 4.41192 3.75704
32 1 6.99867 4.53937 3.89853
33 1 6.68772 7.3028 1.13541
34 1 9.43809 7.29152 0.857715
35 1 9.24407 7.3692 3.86842
36 1 6.5601 7.19983 4.00517
37 1 12.3954 4.55216 1.71456
12025 2 5.32744 8.48847 -0.118968
39 1 12.3029 7.44124 1.26631
40 1 12.0778 6.82163 4.39789
12007 2 8.32317 -2.43144 2.5838
42 1 4.19051 10.3059 1.11734
43 1 3.90894 9.8152 4.13107
44 1 1.10797 9.96019 4.13524
12106 2 -0.185841 2.73811 10.9796
46 1 3.90961 13.1877 1.303
47 1 3.97757 12.9684 4.17298
48 1 1.14362 12.9128 4.38415
49 1 6.74781 10.2017 1.41062
50 1 9.64855 10.0621 1.1327
51 1 9.52271 9.9508 4.03562
52 1 6.57803 10.2135 4.16118
53 1 6.81373 13.0249 1.12786
54 1 9.78251 13.0333 1.53343
55 1 9.63356 12.7903 4.2823
56 1 6.69632 13.1496 4.14638
57 1 12.1685 10.2188 0.898033
58 1 12.3565 9.82359 3.82924
59 1 12.4547 12.764 1.30753
60 1 12.3279 12.7974 3.92052
61 1 0.950404 18.5821 1.29731
62 1 3.93765 15.8328 1.31324
63 1 4.12711 15.6851 3.85164
64 1 1.32887 15.9953 4.14618
65 1 1.21223 18.6294 4.0676
66 1 3.91149 18.5629 1.24233
67 1 4.22635 18.5237 4.2544
68 1 1.25733 18.4164 6.82036
69 1 6.73979 15.7724 1.06045
70 1 9.66421 15.7366 1.20793
71 1 9.88435 15.5032 4.19302
72 1 7.11672 16.0277 3.81467
73 1 6.87321 18.5357 1.09647
74 1 9.42308 18.5115 1.29194
75 1 9.89732 18.5082 3.74442
76 1 6.97577 18.6385 3.94163
77 1 12.2949 15.5279 1.01686
78 1 12.7339 15.6723 4.1429
79 1 12.2202 21.0965 1.19766
80 1 12.4377 18.4972 1.22919
81 1 1.17264 21.4584 1.13975
82 1 3.88274 21.437 1.12218
83 1 3.79359 21.233 4.08595
84 1 0.95696 21.3913 4.20265
85 1 6.76092 21.3601 1.25859
86 1 9.2544 21.4271 1.25265
87 1 9.70945 21.5742 3.83221
88 1 6.87362 21.2789 4.09222
12138 2 8.46939 8.60266 13.7998
90 1 12.3393 21.3471 4.14731
91 1 1.15707 -1.39655 6.80343
92 1 4.18862 -0.958339 6.94935
93 1 4.27751 -1.39359 9.68156
94 1 1.46939 -1.28237 9.84153
95 1 1.09655 1.48231 6.63159
96 1 3.51762 2.1119 6.5235
97 1 4.01105 1.39358 9.42956
98 1 1.25914 1.41371 9.69688
99 1 6.98048 -1.25817 6.99276
100 1 10.014 -0.943521 6.37588
101 1 9.53859 -1.32256 9.42502
102 1 6.87353 -1.17314 9.95375
103 1 6.86779 1.47484 6.77963
104 1 9.94626 1.733 7.00343
105 1 9.9278 1.43115 10.0208
106 1 7.15018 1.5309 9.69308
107 1 12.5505 -1.11516 6.83745
108 1 12.2667 -1.08503 9.58415
109 1 12.5986 2.0105 6.76398
110 1 12.5192 1.77808 9.68783
111 1 1.09882 4.29597 7.20435
112 1 4.07252 4.47571 6.99258
113 1 4.06392 4.41144 9.85658
114 1 1.42284 4.40049 9.80565
115 1 0.999935 7.1838 7.0789
116 1 3.89573 7.19292 6.86075
117 1 4.08501 7.19288 9.73646
118 1 1.27331 7.27984 10.0349
119 1 6.82428 4.25954 7.05361
120 1 9.70146 4.37853 7.05493
121 1 9.63882 4.58982 9.76333
122 1 6.99481 4.26241 9.55212
123 1 6.70838 7.22126 6.88276
124 1 9.81046 7.28656 6.63956
125 1 9.61067 7.52792 9.2978
126 1 6.91922 7.23021 9.35636
127 1 12.052 4.83953 6.37523
128 1 12.434 4.28538 9.74349
129 1 12.5536 7.84435 7.08521
130 1 12.329 7.19869 9.83553
131 1 1.15063 9.83269 6.97871
132 1 3.90744 10.1161 6.89612
133 1 4.09976 10.1772 9.39783
134 1 1.05864 10.0777 9.59703
135 1 0.918244 12.7471 7.03698
136 1 3.98726 12.7599 6.972
137 1 4.22351 13.0132 9.76676
138 1 1.2094 13.0048 9.93253
139 1 6.79827 9.75145 6.87719
140 1 9.67144 10.1127 6.86478
141 1 9.60225 10.3221 9.49699
142 1 6.9823 9.86388 9.8977
143 1 6.7968 12.8195 6.85305
144 1 9.63391 12.6407 7.01643
145 1 9.63134 12.8106 9.56938
146 1 6.93456 12.6742 9.87661
147 1 12.5649 10.5083 7.07566
148 1 12.6322 10.2638 9.66137
149 1 12.4441 13.3159 6.90035
150 1 12.5549 13.1856 9.58718
151 1 1.43693 15.4826 6.8168
152 1 4.09185 15.7194 6.74349
153 1 3.8325 15.8668 9.59689
154 1 1.07389 15.775 9.70138
155 1 1.2528 21.4727 6.88395
156 1 3.89531 18.7475 6.89576
157 1 3.78271 18.6886 9.73556
158 1 0.982699 18.5496 9.49028
159 1 6.68668 15.5215 6.88831
160 1 9.30041 15.7886 7.08547
161 1 9.74652 15.6831 9.85443
162 1 6.51353 15.4926 9.67872
163 1 6.83255 18.6921 6.77958
164 1 9.85515 18.196 6.4978
165 1 9.68244 18.6089 9.35666
166 1 6.94252 18.5378 9.68192
167 1 12.4165 16.0109 6.88847
168 1 12.6687 16.0071 9.69404
169 1 12.6298 18.31 3.85519
170 1 12.3677 18.8225 9.62358
15042 2 13.6664 20.0389 2.65135
172 1 4.00378 21.372 6.94408
173 1 4.08055 21.408 9.68553
174 1 1.07833 21.2654 9.77111
175 1 6.89309 21.4309 6.8228
176 1 9.66402 21.288 6.7372
177 1 9.6454 21.4167 9.38767
178 1 6.59963 21.3881 9.43058
179 1 12.4654 21.3462 6.9057
180 1 12.4996 21.4773 9.7053
181 1 1.06794 -1.43052 12.4843
182 1 4.05382 -1.14325 12.6364
183 1 1.0474 1.69644 12.5983
184 1 4.08465 1.52619 12.4123
185 1 6.69674 -1.41034 12.6807
186 1 9.58881 -1.07892 12.4714
187 1 6.84918 1.34578 12.495
188 1 9.83808 1.76117 12.6452
189 1 12.5069 -1.34181 12.3914
190 1 12.5916 1.42878 12.4274
191 1 1.15317 4.49315 12.6682
192 1 4.11849 4.27188 12.4931
193 1 1.15489 7.28475 12.4727
194 1 4.06744 7.18728 12.3786
195 1 6.74022 4.38371 12.4611
196 1 9.68902 4.49408 12.4764
197 1 6.83977 7.16269 12.4206
198 1 9.7165 7.27268 12.372
199 1 12.6521 4.16852 12.7427
200 1 12.3054 6.96547 12.4234
201 1 1.14102 10.0525 12.4679
202 1 4.07811 9.78376 12.3818
203 1 1.27271 12.9782 12.7301
204 1 4.07025 12.7138 12.5032
205 1 6.75078 10.1546 12.6162
206 1 9.36639 9.99943 12.2924
207 1 7.05622 12.8519 12.4866
208 1 9.76431 12.881 12.4069
209 1 12.3333 10.0186 12.261
210 1 12.4978 13.1432 12.4684
211 1 1.29962 15.86 12.6068
212 1 4.11115 15.569 12.6394
213 1 0.902552 18.7157 12.5129
214 1 3.80199 18.4086 12.8159
215 1 6.85531 15.4971 12.5817
216 1 9.77053 15.7901 12.636
217 1 6.69596 18.4428 12.3891
218 1 9.59636 18.5829 12.6175
219 1 12.527 15.9624 12.4624
220 1 12.6385 18.5353 12.1815
221 1 1.24527 21.6259 12.5422
222 1 4.1483 21.5464 12.559
223 1 6.84235 21.2946 12.1746
224 1 9.45034 21.2067 12.4034
225 1 12.3741 21.2678 12.4825
15032 2 13.7813 14.357 2.30902
12055 2 5.58268 -2.62537 5.30734
6059 1 1.02036 15.8797 1.32044
6419 1 0.908981 13.0085 1.02562
15011 2 13.8379 5.97099 -0.142556
12004 2 -0.266104 0.18016 2.33765
15002 2 13.9002 -2.54836 2.75605
12008 2 5.48429 -0.113459 2.52071
45 1 2.44732 11.432 2.59603
12010 2 11.1342 0.240487 2.66159
12125 2 10.8509 19.8073 11.0622
41 1 0.811528 10.2261 0.950406
12013 2 2.67136 3.14814 2.5209
12124 2 8.03149 22.6928 11.1257
12059 2 11.2724 -2.62229 5.39186
12142 2 -0.133432 17.1803 13.7848
12017 2 8.18298 3.02076 2.57274
12018 2 5.33328 5.84014 2.7293
12022 2 2.76561 11.7951 -0.000504247
12020 2 10.7928 6.17383 2.42523
12113 2 5.50903 8.65624 11.1635
12104 2 8.39228 0.14158 11.1356
12023 2 2.45681 8.6895 2.6999
12045 2 5.48955 19.9191 -0.227778
12105 2 11.0147 -2.47091 10.991
12107 2 2.6783 5.64906 11.1833
12027 2 7.89324 8.63114 2.61945
12028 2 5.05496 11.638 2.79226
12136 2 2.75712 8.60908 13.7683
12030 2 10.9685 11.4186 2.78243
12102 2 2.63908 0.0488865 11.1569
12114 2 8.07658 11.3889 11.228
12033 2 2.53294 14.3524 2.76799
12019 2 11.2351 3.0881 0.131449
12100 2 10.9746 22.7714 8.2124
12099 2 11.2072 19.7132 5.2554
12037 2 8.26909 14.2402 2.51151
12038 2 5.27716 17.2356 2.5395
12098 2 5.43321 22.8128 8.02671
12040 2 10.9239 16.925 2.58534
12097 2 8.15847 19.9644 8.30304
6153 1 12.7695 18.7472 6.49364
12043 2 2.21696 20.1415 2.64527
12123 2 5.30109 19.9644 11.1436
12096 2 8.20195 22.6575 5.42206
12095 2 5.48523 19.9035 5.36814
12047 2 8.22583 19.9185 2.70331
12048 2 5.37038 22.6445 2.56405
12115 2 10.9621 8.64485 10.9629
12050 2 10.9651 22.6946 2.51333
12116 2 -0.0629347 14.3944 11.2438
12052 2 2.66796 0.231204 5.39735
12112 2 2.52244 11.5519 10.8843
12122 2 2.523 22.7596 11.01
12110 2 11.1366 2.97511 11.0475
12056 2 8.30112 0.229639 5.46794
12109 2 8.12201 5.76293 10.9032
12058 2 5.53208 0.170496 8.22028
12108 2 5.39829 2.76913 11.1124
12060 2 11.2995 0.361516 8.001
12120 2 11.1384 14.3607 11.1658
12062 2 2.38428 5.80507 5.48638
12063 2 2.60671 3.0137 8.32534
12119 2 8.11578 17.0777 11.2622
12065 2 5.45059 2.91092 5.60606
12066 2 8.24367 5.78252 5.43799
12067 2 8.39454 2.86734 8.3263
12068 2 5.43545 5.79593 8.16814
12069 2 10.9646 2.99795 5.51948
12070 2 11.0534 5.95094 8.23439
12039 2 11.045 14.0049 -0.199415
12072 2 2.58925 11.3036 5.50831
12073 2 2.43067 8.50742 8.40668
12118 2 5.57552 14.1037 11.201
12075 2 5.15762 8.54085 5.57929
12076 2 8.14213 11.3822 5.43596
12077 2 8.31355 8.75316 8.11112
12078 2 5.61923 11.4666 8.39717
12079 2 10.9039 8.7734 5.45461
12080 2 11.0704 11.677 8.24718
12032 2 2.40375 17.2288 0.0308912
12082 2 2.77842 17.1459 5.57076
12083 2 2.57719 14.0995 8.17579
12117 2 2.58666 17.1475 11.0279
12085 2 5.32935 14.2746 5.48271
12086 2 8.26581 17.1208 5.45267
12087 2 8.142 14.3446 8.41576
12088 2 5.20399 17.2429 8.41814
12089 2 11.1287 14.1591 5.25943
12090 2 10.9044 16.8671 8.26318
12015 2 5.62533 2.83506 -0.114684
12092 2 2.61408 22.7489 5.19714
12093 2 2.53346 19.8596 8.1945
15121 2 13.7373 22.8319 11.24
12135 2 11.0617 5.72402 13.8457
15092 2 13.8827 19.8962 8.16008
12071 2 -0.197563 8.58372 5.58855
12009 2 11.1369 -2.67124 -0.114458
12149 2 5.36113 22.9509 13.8928
15091 2 13.5993 22.6628 5.32864
15106 2 13.9583 5.81895 11.0798
15012 2 13.8676 3.05036 2.44077
12024 2 0.130478 11.5732 2.79848
15061 2 13.7293 6.18108 5.67485
12148 2 8.14462 19.7669 13.7711
15052 2 13.8166 -2.6001 8.29121
15022 2 13.8857 8.66889 2.69443
15072 2 13.9265 8.90156 8.20224
12003 2 2.69671 -2.50477 2.44183
12101 2 -0.206258 -2.68408 11.0473
15051 2 13.9004 0.331916 5.43991
12021 2 -0.0580726 8.29431 -0.135995
15146 2 13.8978 19.929 13.8813
12140 2 11.2275 11.5925 13.5848
12128 2 8.19933 -2.66464 13.9142
12026 2 8.11095 11.4177 -0.197421
12134 2 5.45253 5.73186 13.863
12029 2 10.8672 8.62911 -0.108144
12129 2 5.50667 0.00330562 13.8999
12130 2 11.2236 0.19051 13.9027
12141 2 2.63786 14.2309 13.8249
12133 2 8.48126 2.95111 13.8977
226 1 4.06783 -1.37117 15.3582
227 1 1.26157 -1.4477 15.2583
228 1 3.92183 1.60055 15.2191
229 1 1.30599 1.31516 15.5139
230 1 9.69045 -1.4121 15.4645
231 1 6.6616 -1.30534 15.4694
232 1 9.44407 1.38251 15.7122
233 1 6.67462 1.70306 15.5834
234 1 12.5787 -1.15019 15.2968
235 1 12.3277 1.75738 15.3474
236 1 4.02872 4.29176 15.2103
237 1 1.09178 4.26717 15.4726
238 1 4.37312 7.16843 15.1951
239 1 1.40237 6.80977 18.2028
240 1 9.96684 4.04727 15.3804
241 1 7.14752 4.57867 15.3665
242 1 9.83315 7.02654 15.2617
243 1 7.28102 7.63092 15.5111
244 1 12.6823 4.37671 15.6607
245 1 12.6488 7.17606 15.124
246 1 3.84349 9.95695 15.2862
247 1 1.14318 7.10585 15.439
248 1 4.03091 12.8096 15.4615
249 1 0.989568 9.71755 15.22
250 1 10.1075 10.0883 14.9792
251 1 6.68757 10.1643 15.423
252 1 9.59449 12.695 15.1075
253 1 6.74934 12.8315 15.175
254 1 12.8028 10.3854 14.8191
255 1 12.4315 13.1272 15.0824
256 1 3.98869 15.8278 15.4345
257 1 1.18527 15.7799 15.3394
258 1 4.21878 18.5632 15.5664
259 1 1.47916 18.5478 15.4615
260 1 9.63342 15.6205 15.397
261 1 6.82252 15.5177 15.6097
262 1 9.80052 18.3144 15.4764
263 1 7.00978 18.466 15.1963
264 1 12.4437 15.864 15.3516
265 1 12.6097 18.6865 15.205
266 1 4.18502 21.5496 15.4067
267 1 1.17367 21.3984 15.5719
268 1 9.73033 21.2287 15.4028
269 1 6.83205 21.4374 15.146
270 1 12.3129 21.3579 15.4235
271 1 1.22056 -1.54698 18.1904
272 1 3.95801 -1.33436 18.1744
273 1 3.88913 -1.10271 20.9946
274 1 1.01045 -1.247 21.0261
275 1 1.22929 1.48618 18.0741
276 1 4.32973 1.61831 18.4372
277 1 4.00048 1.8412 21.0409
278 1 1.16648 1.47464 20.8057
279 1 6.88167 -1.41536 18.3576
280 1 9.71472 -1.26462 18.407
281 1 9.45629 -1.11082 21.1707
282 1 6.88458 -1.28552 21.1188
283 1 6.986 1.33493 18.3552
284 1 9.88175 1.60168 18.3
285 1 9.95061 1.62656 21.1362
286 1 6.87934 1.36657 21.1698
287 1 12.4438 -1.29195 18.1049
288 1 12.6553 -0.995356 20.8293
289 1 12.5571 1.48714 18.2986
290 1 12.6486 1.71443 21.1897
291 1 1.25893 4.35056 18.2674
292 1 4.11255 4.40299 18.266
293 1 3.92128 4.46022 20.9036
294 1 1.23803 4.37661 21.1418
295 1 1.31884 7.26204 21.0039
296 1 4.09912 7.28743 18.2506
297 2 5.0234 8.94579 22.478
298 1 4.36183 7.23954 20.9895
299 1 6.91373 4.31306 18.396
300 1 9.7576 4.48902 18.1479
301 1 9.70705 4.28547 20.8707
302 1 6.84145 4.19065 21.0825
303 1 6.75835 7.26935 18.2142
304 1 9.4838 7.31509 18.404
305 1 9.52187 7.03944 21.243
306 1 7.0985 7.24555 21.0522
307 1 12.4076 4.59236 18.3036
308 1 12.4776 4.36181 21.1578
309 1 12.2921 7.47821 18.192
310 1 12.3711 7.26627 21.0205
311 1 1.17247 9.83497 18.5399
312 1 4.00751 10.2761 18.0787
313 1 3.70752 9.88272 20.8623
314 1 0.956492 9.92702 20.8546
315 1 0.900284 12.9212 18.0154
316 1 3.8902 13.0256 18.0935
317 1 3.74705 12.6077 20.7302
318 1 1.21128 12.7679 20.9388
319 1 6.73632 10.2939 18.2254
320 1 9.46082 10.2821 18.0929
321 1 9.47461 9.71544 21.1012
322 1 6.63553 9.93432 21.0435
323 1 6.93166 12.7997 18.0701
324 1 9.80234 13.0685 17.9067
325 1 9.44482 12.6648 20.8029
326 1 6.57591 12.9643 20.9226
327 1 12.3006 10.0982 17.5683
328 1 12.1791 10.0696 20.94
329 1 12.5084 12.945 17.8312
330 1 13.0755 12.5947 20.4207
331 1 1.00872 15.9651 18.4284
332 1 3.83481 15.8522 18.3161
333 1 3.74246 15.6029 21.2471
334 1 1.08787 15.8173 21.3439
335 1 1.0601 18.6273 18.3492
336 1 3.87776 18.8585 18.3875
337 1 4.13237 18.4377 21.013
338 1 0.858487 18.6734 21.327
339 1 6.7055 15.8014 18.2492
340 1 9.62888 15.7613 18.0958
341 1 9.11248 15.7024 20.8037
342 1 6.41667 15.5847 20.9167
343 1 6.7738 18.5715 17.9947
344 1 9.71128 18.3502 18.175
345 1 9.59601 18.5959 21.0096
346 1 6.83984 18.5499 20.7004
347 1 12.6292 15.6845 17.9849
348 1 12.4875 15.6282 20.7979
349 1 12.469 18.6799 18.3787
350 1 12.4034 18.6368 20.9899
351 1 1.18467 21.5577 18.3608
352 1 4.13611 21.5977 18.191
353 1 3.88982 21.3457 20.9691
354 1 0.704863 21.5043 21.1595
355 1 6.85227 21.3081 18.0009
356 1 9.37001 21.5039 18.1894
357 1 9.72658 21.4469 20.9117
358 1 6.68135 21.4347 21.0053
359 1 12.3688 21.3786 18.1867
360 1 12.5182 21.7911 21.2229
361 1 1.42608 -1.44578 23.6412
362 1 4.04641 -1.24896 24.127
363 1 3.86427 -1.32156 26.5723
364 1 1.13171 -1.43122 26.602
365 1 1.12284 1.52196 23.8677
366 1 4.07336 1.61942 23.598
367 1 4.15435 1.70763 26.5581
368 1 1.45384 1.61127 26.7288
369 1 7.05551 -1.16981 24.049
370 1 9.73973 -1.26535 23.9856
371 1 9.87434 -1.25712 26.5952
372 1 6.76247 -0.990555 26.681
373 1 6.83282 1.56367 23.7926
374 1 9.67728 1.34498 24.1607
375 1 9.87812 1.60814 27.1275
376 1 6.94227 1.64734 26.6331
377 1 12.6578 -1.17265 23.81
378 1 12.5121 -1.34338 26.538
379 1 12.5109 1.49387 24.1709
380 1 12.6777 1.94843 26.8401
381 1 1.40215 4.32827 23.6763
382 1 4.15002 4.39769 23.8835
383 1 3.99247 4.66427 26.7774
384 1 1.30739 4.38951 26.2945
385 1 1.34915 7.15557 23.8668
386 1 4.24461 7.2496 23.7092
387 1 4.16179 7.59365 26.6366
388 1 1.16359 7.00001 26.7345
389 1 6.74487 4.71988 23.6472
390 1 9.50065 4.25537 23.5819
391 1 9.75151 4.11716 26.6779
392 1 7.00933 4.61781 26.6044
393 1 6.91432 7.85786 24.0576
394 1 9.44987 7.51537 23.74
395 1 9.73441 7.14943 26.6456
396 1 6.7692 7.20003 26.6705
397 1 12.5807 4.4724 24.1277
398 1 12.4313 4.63768 26.9766
399 1 12.4413 7.21507 23.7195
400 1 12.5383 7.38985 26.5925
401 1 1.09958 9.78396 23.7923
402 1 3.80439 10.4221 23.9038
403 1 3.56911 10.2553 26.6898
12042 2 2.59738 22.7557 27.9208
405 1 0.820773 12.536 23.5559
406 1 3.84912 13.0184 23.8286
407 1 4.00816 13.1957 26.919
12203 2 2.50881 -2.758 25.2503
409 1 6.55178 10.4707 23.4811
410 1 9.35257 10.0947 23.682
411 1 9.48556 10.0603 26.7652
412 1 6.52235 10.1364 26.9121
413 1 6.73506 13.2112 23.9971
414 1 9.47844 12.8029 24.1748
415 1 9.78171 12.73 26.9854
416 1 6.82165 12.8629 26.621
417 1 12.3741 9.98739 23.653
418 1 12.4675 9.95435 26.4826
419 1 12.5595 12.5025 23.8649
420 1 12.6252 12.8948 26.7201
421 1 0.905663 15.6943 24.324
422 1 3.68536 15.816 24.0148
423 1 3.93783 15.7626 26.9919
424 1 1.30393 15.7757 26.9589
425 1 1.15607 18.4762 24.1522
426 1 3.54229 18.654 23.9081
427 1 3.92467 18.6444 26.83
428 1 1.05522 18.415 26.8328
429 1 6.49387 15.9815 23.9909
430 1 9.56453 18.5679 23.6214
431 1 9.5852 15.6087 26.7125
432 1 6.75884 15.8583 26.8308
433 1 6.43098 18.5926 23.9719
434 1 9.61966 21.4431 23.8419
435 1 9.84549 18.6265 26.4532
436 1 6.88644 18.7192 26.7124
437 1 13.0032 15.8028 23.8649
438 1 12.2809 15.9269 26.6114
439 1 12.4562 18.7596 23.7503
440 1 12.5935 18.506 26.6329
441 1 1.05791 21.2553 23.9037
442 1 3.96844 21.1988 23.6916
443 1 3.97863 21.2873 26.6679
444 1 1.34795 21.1262 26.5864
445 1 6.78315 21.5183 23.8883
12209 2 11.1469 -2.5819 22.3999
447 1 9.35884 21.4949 26.5112
448 1 6.70902 21.4326 26.545
449 1 12.2141 21.3844 23.9529
450 1 11.9989 21.5129 26.9293
12205 2 5.41988 -2.70707 22.4824
12250 2 10.9633 23.0424 25.1834
12159 2 11.1406 -2.75689 16.9512
12126 2 2.73963 -2.74126 13.9965
12016 2 8.2535 5.67857 27.8956
12227 2 8.10498 8.54571 25.7621
12249 2 11.108 19.9926 22.378
12226 2 8.18744 12.0815 22.5289
12225 2 8.04531 8.84489 22.4
15041 2 13.745 22.3899 27.9884
12223 2 2.73287 8.71086 25.1915
12248 2 5.25897 22.6323 25.0773
12222 2 2.46427 11.4162 22.279
12228 2 5.30134 11.6696 25.1403
15241 2 13.8856 22.7242 22.6
12220 2 11.2543 5.87091 25.3717
12247 2 8.14946 19.9101 25.1848
15031 2 13.8227 17.1207 28.0915
12244 2 -0.13468 22.8975 25.2639
12036 2 8.36921 17.1313 28.0687
12219 2 11.1283 2.71419 22.6405
12246 2 8.18453 22.8262 22.2768
6254 1 1.18123 12.8999 15.5346
12218 2 5.40089 6.00784 25.1865
12144 2 5.5399 17.0825 14.1561
12245 2 5.4265 19.9193 22.2867
12152 2 2.52188 -0.0533292 16.6339
15211 2 13.884 5.76965 22.5258
12243 2 2.4738 19.7665 25.3861
12207 2 8.26077 -2.68271 25.1187
12156 2 8.03384 -0.054971 16.8067
15021 2 13.967 11.3876 28.051
12158 2 5.41509 0.146768 19.6915
12151 2 -0.147162 -2.71999 16.8491
12160 2 11.0877 0.0530315 19.7488
12242 2 2.47861 22.7247 22.4699
12162 2 2.64105 5.83005 16.6518
12163 2 2.58707 2.95053 19.607
12240 2 11.3113 17.0809 24.8969
12165 2 5.40188 2.73959 16.9487
12166 2 8.50862 5.80138 16.7581
12167 2 8.30177 2.60963 19.6553
12168 2 5.58924 5.77247 19.6357
12169 2 11.1521 2.9105 16.9154
12170 2 11.0162 5.7895 19.8086
12239 1 9.72195 15.9064 23.8493
12172 2 2.31613 11.5282 16.8078
12173 2 2.61278 8.42015 19.4873
12238 2 5.31619 17.2171 25.49
12175 2 5.36267 8.7831 16.736
12176 2 8.33278 11.4265 16.566
12177 2 8.14921 8.59684 19.4387
12178 2 5.35354 11.7111 19.4764
12179 2 11.0895 8.67643 16.5082
12180 2 11.1658 11.509 19.4875
12237 2 8.43578 14.244 25.5828
12182 2 2.58099 17.0005 16.9522
12183 2 2.52018 14.2575 19.5174
12236 2 7.98454 16.8985 22.4986
12185 2 5.26291 14.2656 16.9623
12186 2 8.26818 17.0522 16.8174
12187 2 8.26016 14.2924 19.3472
12188 2 5.31078 17.3173 19.4758
12189 2 11.1782 14.4543 16.7267
12190 2 10.9179 17.1927 19.8109
12235 2 5.24096 14.6156 22.6129
12192 2 2.57369 22.9717 16.9441
12193 2 2.50211 20.0154 19.5774
12012 2 2.71715 5.82496 28.0754
12195 2 5.44017 20.0793 16.743
12196 2 8.27742 22.8527 16.5981
12197 2 8.12728 19.8934 19.5168
12198 2 5.47521 22.8204 19.4998
12199 2 11.0046 19.7672 16.7958
12200 2 11.0373 22.9221 19.6063
12233 2 2.48705 14.4931 25.6554
12202 2 2.62969 0.105769 22.4608
12011 2 0.0681878 3.21487 27.9456
12232 2 2.39097 17.2527 22.4227
404 1 0.652031 10.1936 26.7405
12206 2 8.16158 0.0737455 22.6854
12157 2 8.22462 -2.63391 19.763
12208 2 5.4662 0.141725 25.3025
12046 2 8.02255 22.7181 28.0248
12210 2 11.1623 -0.00553349 25.3032
12230 2 11.0996 11.5205 25.1065
12212 2 2.55568 5.71977 22.428
12213 2 2.93522 3.1674 25.1497
12229 2 11.1491 8.77769 22.395
12215 2 5.44468 2.86696 22.3681
12216 2 8.24734 5.5074 22.2468
12217 2 8.41319 2.9353 25.2593
15201 2 13.8155 0.253512 22.4553
12005 2 5.30143 -2.62212 27.7847
15242 2 13.732 19.9662 25.1324
12174 2 -0.128829 11.447 19.4432
408 1 1.03762 12.8932 26.8791
12155 2 5.29818 -2.72538 16.891
15192 2 13.91 19.8909 19.8879
15151 2 13.796 0.17164 16.864
15222 2 13.9076 8.66539 25.195
12214 2 -0.12187 5.76554 24.9431
12150 2 11.0675 22.4502 13.9986
12035 2 5.53259 14.3547 28.0569
12049 2 11.0192 19.7872 28.0855
15162 2 13.8614 3.18261 19.6015
12131 2 2.53626 2.89179 13.9594
15221 2 13.853 11.5857 22.2527
12143 2 8.24608 14.2317 13.9946
12139 2 5.32124 11.4896 14.0384
12145 2 11.1853 17.0771 13.9227
12231 2 -0.118533 14.1528 22.3227
12002 2 2.48776 0.240894 28.0045
15172 2 13.7715 8.53105 19.6542
15191 2 13.7606 22.6478 16.6508
12204 2 -0.0882472 0.0699586 25.22
12171 2 -0.176938 8.47304 16.8615
12191 2 -0.195615 19.9041 16.8995
15141 2 13.8843 14.6323 13.9862
12146 2 2.47527 20.0979 13.9914
12041 2 -0.185915 19.9879 28.0812
12006 2 8.33025 0.038804 28.0725
451 1 0.767699 24.113 1.08689
452 1 3.53974 24.1855 1.24312
453 1 3.84677 24.1776 3.99717
454 1 1.03809 24.1926 4.16391
455 1 6.26986 24.2475 1.14397
456 1 9.4797 24.0932 0.994176
457 1 9.61574 24.236 4.00421
458 1 6.84255 23.9836 3.76189
15262 2 13.9631 31.9953 2.63691
460 1 12.5079 24.3446 4.26007
461 1 1.21847 27.1049 1.00088
462 1 3.90362 27.153 0.88904
463 1 3.7546 26.9165 3.69801
464 1 0.969869 29.2754 4.23635
12382 2 5.35133 45.57 13.9038
466 1 4.0488 29.9954 1.17625
467 1 3.72033 29.7789 3.87039
468 1 1.05192 29.763 1.39283
469 1 6.56323 27.0444 1.27749
470 1 9.52004 26.9377 1.14266
471 1 9.86881 27.1498 4.22922
472 1 6.81215 26.7842 3.84789
473 1 6.79014 29.7912 1.10575
474 1 9.5222 29.7906 0.929566
475 1 9.66659 30.0626 4.07656
476 1 6.61696 29.9657 3.86594
477 1 12.5104 27.207 1.56616
478 1 12.665 27.2656 4.20507
15336 2 13.7644 48.071 8.33249
480 1 12.8062 29.9833 4.22501
481 1 1.09512 32.4626 0.818714
591 1 1.2081 41.1402 6.5515
483 1 3.6912 32.5497 4.034
15306 2 13.7372 34.095 5.63045
171 1 1.04425 24.5174 6.96638
486 1 1.07529 35.2075 1.4297
487 1 4.03966 35.4309 4.29518
12295 2 10.8948 47.9632 -0.208861
489 1 6.86175 32.5292 1.26037
490 1 9.56528 32.5643 1.29258
491 1 9.6718 32.9915 4.32262
492 1 6.63743 32.8291 4.11828
493 1 6.64725 35.4077 1.24941
12372 2 5.43352 34.2542 13.7875
495 1 9.72307 35.384 1.26058
496 1 6.92458 35.6732 3.92653
497 1 12.6776 32.9722 1.09491
498 1 12.5603 32.7387 4.08622
15291 2 13.6229 48.0241 2.41773
500 1 12.8003 35.3978 3.96271
501 1 0.9334 38.2177 1.33991
502 1 3.73297 37.9939 0.971448
503 1 3.88642 38.2957 3.77497
504 1 1.04235 37.9265 4.27861
505 1 1.00988 41.1357 1.23941
506 1 3.82818 41.1424 1.33252
507 1 3.85528 41.1946 4.04643
508 1 1.025 41.0677 3.78666
509 1 6.61324 38.4988 1.35094
510 1 9.59221 38.3444 3.85485
511 1 9.77711 38.7014 6.40301
512 1 6.68092 38.4864 3.94
513 1 6.65158 41.2656 1.16185
514 1 9.40101 41.122 1.34562
515 1 9.78465 41.1872 3.86147
516 1 6.75459 41.0805 3.96951
517 1 12.429 38.4033 1.07297
518 1 12.2945 38.2354 3.77351
519 1 12.3629 41.124 1.10951
520 1 12.4916 41.1969 3.79029
521 1 1.10185 43.8588 1.23319
522 1 3.77567 44.1748 1.19688
523 1 4.00188 43.9285 4.22319
524 1 1.20604 43.8467 4.13608
525 1 0.975312 46.6531 1.20232
526 1 3.72255 46.8922 1.01859
12367 2 5.11518 28.5532 13.6528
528 1 0.765442 46.937 3.98106
529 1 6.4702 43.9157 1.45449
530 1 9.43938 43.9889 1.45656
531 1 9.62952 44.0371 4.2658
532 1 6.84715 43.8809 4.02777
533 1 6.79783 46.8266 1.2695
534 1 9.89184 46.7146 1.48934
535 1 9.677 46.7654 3.92078
536 1 6.68237 46.6493 4.08495
537 1 12.3412 43.9661 1.31892
538 1 12.2844 43.8129 4.18761
539 1 12.4642 46.4606 1.20986
540 1 12.3727 46.7606 4.01874
541 1 0.85685 27.1545 6.82929
542 1 4.04903 24.1955 6.81805
543 1 3.7351 24.0373 9.49241
544 1 1.1111 24.1404 9.70447
545 1 6.9849 24.3351 6.51545
546 1 9.56996 24.1542 6.86648
547 1 9.72679 23.9938 9.8874
548 1 6.92404 24.1296 9.56619
549 1 12.447 24.2124 6.88726
550 1 12.4199 24.2904 9.62058
551 1 1.03066 26.7313 3.69768
552 1 3.8541 26.853 6.87684
553 1 3.92192 27.0623 9.45654
554 1 0.855734 26.8869 9.70244
12286 2 8.11191 45.402 -0.157043
556 1 4.16731 29.5527 6.85193
557 1 3.81421 29.9111 9.4741
558 1 1.54512 32.7818 10.0888
559 1 6.77842 27.0758 6.87299
560 1 9.7196 27.1554 7.0537
561 1 9.87762 26.7346 9.81673
562 1 6.7833 26.855 9.70813
563 1 6.88539 29.87 6.81314
564 1 9.7682 29.892 6.53959
565 1 9.80841 29.9238 9.78467
566 1 6.88152 29.8595 9.75351
567 1 12.4731 26.9625 6.78095
568 1 12.5097 27.1213 9.69295
569 1 12.4046 30.0999 6.80817
570 1 12.627 29.8679 9.60337
571 1 1.0353 35.1492 4.31347
572 1 4.06017 32.5619 7.04748
573 1 4.11629 32.7209 9.81195
574 1 1.07022 32.5904 7.03942
575 1 1.17182 38.2966 6.73895
576 1 4.05006 35.2715 6.91756
577 1 3.71816 35.5033 9.64036
616 1 3.85099 49.632 6.98486
579 1 6.78087 32.5649 6.83114
580 1 9.441 33.0507 6.97496
581 1 9.61455 32.5184 9.61392
582 1 6.93013 32.6933 9.74266
583 1 6.79983 35.8134 6.69209
584 1 9.73481 35.4895 4.49209
585 1 9.79493 35.5412 9.60641
586 1 6.79735 35.39 9.95769
587 1 12.2866 32.7721 7.07092
588 1 12.4519 32.9484 9.80144
589 1 12.0111 35.396 6.59944
590 1 12.6602 35.7238 9.82116
12366 2 8.34201 25.7499 13.9256
592 1 3.90553 38.335 9.80281
593 1 1.19801 38.3717 9.5291
15327 2 13.8128 42.6173 8.33395
15341 2 13.7785 28.3605 11.2334
596 1 3.86857 43.8591 7.05766
597 1 3.76771 40.7748 7.08096
598 1 3.99137 41.2706 9.72732
599 1 3.89287 38.1963 6.86106
600 1 9.26459 41.1983 6.63562
601 1 10.1964 38.9701 10.231
602 1 6.7306 38.6524 9.75648
603 1 6.72633 41.2937 7.14963
604 1 9.44054 44.0897 6.90987
605 1 9.43823 41.28 9.49503
606 1 6.91257 41.2496 9.83409
607 1 12.7185 38.1883 6.49672
608 1 12.5573 38.618 9.182
609 1 12.4278 40.9983 6.62141
610 1 12.173 41.1483 9.61886
611 1 3.83873 46.6146 6.7425
612 1 3.80368 46.6487 3.86538
613 1 3.95508 43.9456 9.74863
614 1 1.23309 43.8968 9.72843
615 1 1.02062 46.5467 6.90031
12279 2 11.0474 36.7873 0.116122
617 1 3.94109 46.545 9.51344
618 1 1.12593 46.9528 9.75321
619 1 6.61749 44.1686 6.76468
620 1 9.65962 47.2097 6.58008
621 1 9.63437 44.1655 9.76807
622 1 6.80689 44.0689 9.74981
623 1 6.80014 46.9161 6.87172
527 1 6.85079 49.3917 4.02392
625 1 9.79109 46.7102 9.34349
626 1 6.81607 46.8158 9.81121
627 1 12.4458 43.6956 6.7599
628 1 12.457 43.9919 9.68803
629 1 12.4098 46.4887 6.91363
630 1 12.3542 46.7372 9.73997
631 1 1.32325 24.218 12.3383
632 1 3.90617 24.5517 12.3783
633 1 6.93692 24.272 12.4412
634 1 9.80864 23.9064 12.5674
635 1 12.5692 24.4531 12.5552
636 1 1.06561 27.1655 12.4971
637 1 3.74214 27.2342 12.5328
638 1 1.11256 30.108 12.1493
639 1 3.75865 30.1672 12.3303
640 1 6.71607 27.0785 12.159
641 1 9.63266 27.1521 12.6472
642 1 6.65055 30.0126 12.5302
643 1 9.86364 29.7415 12.6595
644 1 12.4387 27.1077 12.5845
645 1 12.4152 29.8902 12.6769
646 1 1.22222 33.1063 12.8205
647 1 4.04134 32.9029 12.4633
648 1 1.14891 35.7067 12.78
649 1 3.81141 35.8733 12.5901
650 1 7.02043 32.628 12.3056
651 1 9.92277 32.6369 12.3188
652 1 6.8325 35.6515 12.6515
653 1 9.59188 35.4667 12.6544
654 1 12.613 32.8446 12.623
655 1 12.4544 35.5839 12.7552
656 1 1.29389 38.342 12.4644
657 1 3.86723 38.7238 12.6048
12266 2 8.23703 33.9917 -0.0722248
659 1 3.99195 41.5153 12.4857
660 1 6.41613 38.4794 12.6361
661 1 9.53634 38.372 12.6157
662 1 6.83561 41.2655 12.7205
663 1 9.565 41.3413 12.5884
664 1 12.2574 38.4326 12.346
665 1 12.5172 41.2027 12.3501
666 1 1.14706 44.0604 12.5135
667 1 3.86696 44.1618 12.4318
668 1 1.01884 46.8908 12.759
669 1 3.78666 47.0131 12.4848
670 1 6.5498 44.2051 12.4718
671 1 9.32214 44.1264 12.6633
672 1 6.72019 46.8603 12.4951
673 1 9.4444 46.9334 12.5102
674 1 12.1882 44.3026 12.5496
675 1 12.3703 47.036 12.3636
12363 2 10.9191 48.1939 11.0482
12293 2 5.3505 48.2267 -0.235175
12253 2 2.29999 25.5048 2.58613
12362 2 5.15503 48.0133 11.0886
1001 1 1.04274 49.5301 6.84107
6482 1 12.6593 35.5564 1.24457
12257 2 8.0676 25.4003 2.46319
12258 2 5.10997 28.4604 2.43675
840 1 12.1883 30.1537 1.65264
12260 2 10.6398 28.4256 2.57043
595 1 1.10004 43.877 7.02712
12269 2 10.9459 31.2739 -0.0748707
12263 2 2.47312 31.1119 2.50722
12360 2 10.9097 42.5285 10.9787
482 1 3.94871 35.4587 1.53143
6588 1 0.853147 35.3697 6.90697
12267 2 7.91762 31.3673 2.78271
12268 2 5.19952 33.9797 2.72737
6499 1 1.51859 29.9218 6.90878
12270 2 10.9263 34.3022 2.71339
12359 2 8.13282 45.3256 11.1027
12285 2 5.32858 42.7768 -0.0826421
12273 2 2.39798 36.6628 2.82429
12358 2 5.41519 42.7112 11.1885
15326 2 13.8583 45.2519 5.50121
15373 2 13.8458 37.0316 13.7819
12277 2 7.99976 37.12 2.46726
12278 2 5.1808 39.6544 2.59863
12378 2 11.0119 39.7575 13.7932
12280 2 10.9857 39.6751 2.56259
484 1 1.09215 32.349 4.21484
89 1 12.1715 24.3624 1.31385
12283 2 2.45092 42.4968 2.64632
1018 1 12.4698 49.4989 9.75796
12349 2 8.38031 34.0985 10.9918
594 1 0.808006 41.1598 9.49295
12287 2 8.10145 42.7626 2.69172
12288 2 5.17466 45.321 2.70376
465 1 3.88141 32.6135 1.14281
12290 2 10.9084 45.2646 2.70968
12384 2 2.45529 48.3555 13.8857
12292 2 2.3776 48.1783 2.43222
12352 2 2.65832 39.8646 11.125
12294 2 8.30083 48.1631 2.7248
479 2 13.8076 28.7104 2.86574
12357 2 2.53104 45.5957 11.1985
12297 2 2.4563 28.3333 5.61146
12298 2 2.41437 25.416 8.07037
12299 1 0.918692 30.0117 9.51912
12300 2 5.53569 25.465 5.13981
12301 2 8.36662 28.33 5.3988
12302 2 8.14888 25.6901 8.11059
12303 2 5.40913 28.5501 8.43194
12304 2 11.1191 25.5161 5.58092
12305 2 11.1245 28.5478 8.25808
855 1 9.41503 38.205 0.913441
12307 2 2.65543 33.8436 5.65845