LAMMPS (29 Oct 2020)
OMP_NUM_THREADS environment is not set. Defaulting to 1 thread. (../comm.cpp:94)
  using 1 OpenMP thread(s) per MPI task
OMP_NUM_THREADS environment is not set. Defaulting to 1 thread. (../comm.cpp:94)
  using 1 OpenMP thread(s) per MPI task
Lattice spacing in x,y,z = 5.5788000 5.5788000 5.5788000
Created orthogonal box = (0.0000000 0.0000000 0.0000000) to (27.894000 334.72800 27.894000)
  2 by 13 by 2 MPI processor grid
Changing box ...
  triclinic box = (0.0000000 0.0000000 0.0000000) to (27.894000 334.72800 27.894000) with tilt (0.0000000 0.0000000 0.0000000)
Created 12000 atoms
  create_atoms CPU = 0.006 seconds
Lattice spacing in x,y,z = 5.5788000 5.5788000 5.5788000
Created 6000 atoms
  create_atoms CPU = 0.001 seconds
12000 atoms in group oxygen
6000 atoms in group uranium
Setting atom values ...
  45 settings made for type/ratio
Setting atom values ...
  45 settings made for type/ratio
45 atoms in group anti_oxygen
45 atoms in group anti_uranium
Setting atom values ...
  45 settings made for type
Setting atom values ...
  45 settings made for type
Setting atom values ...
  12000 settings made for charge
Setting atom values ...
  6000 settings made for charge
PPPM initialization ...
  using 12-bit tables for long-range coulomb (../kspace.cpp:328)
  G vector (1/distance) = 0.29916851
  grid = 40 240 40
  stencil order = 5
  estimated absolute RMS force accuracy = 0.00015502622
  estimated relative force accuracy = 1.0765975e-05
  using single precision MKL FFT
  3d grid and FFT values/proc = 18225 7600
Neighbor list info ...
  update every 1 steps, delay 0 steps, check yes
  max neighbors/atom: 2000, page size: 100000
  master list distance cutoff = 13
  ghost atom cutoff = 13
  binsize = 6.5, bins = 5 52 5
  2 neighbor lists, perpetual/occasional/extra = 2 0 0
  (1) pair coul/long, perpetual
      attributes: half, newton on
      pair build: half/bin/newton/tri
      stencil: half/bin/3d/newton/tri
      bin: standard
  (2) pair eam/alloy, perpetual, copy from (1)
      attributes: half, newton on
      pair build: copy
      stencil: none
      bin: none
Setting up cg style minimization ...
  Unit style    : metal
  Current step  : 0
WARNING: Energy due to 3 extra global DOFs will be included in minimizer energies
Per MPI rank memory allocation (min/avg/max) = 10.42 | 10.45 | 10.47 Mbytes
Step Temp E_pair E_mol TotEng Press Volume 
       0            0   -231588.92            0   -231588.92    19820.881    260443.57 
     623            0   -235362.08            0   -235362.08     28.76818    263894.89 
Loop time of 9.11512 on 52 procs for 623 steps with 18000 atoms

99.6% CPU use with 52 MPI tasks x 1 OpenMP threads

Minimization stats:
  Stopping criterion = linesearch alpha is zero
  Energy initial, next-to-last, final = 
     -231588.917151428  -235362.084353346  -235362.084353362
  Force two-norm initial, final = 5677.1781 31.292485
  Force max component initial, final = 3614.4358 10.221723
  Final line search alpha, max atom move = 1.2081061e-11 1.2348926e-10
  Iterations, force evaluations = 623 779

MPI task timing breakdown:
Section |  min time  |  avg time  |  max time  |%varavg| %total
---------------------------------------------------------------
Pair    | 4.9886     | 5.1799     | 5.331      |   3.4 | 56.83
Bond    | 7.3954e-05 | 9.9468e-05 | 0.00014387 |   0.0 |  0.00
Kspace  | 1.5527     | 1.7082     | 1.9067     |   6.1 | 18.74
Neigh   | 0.039963   | 0.046018   | 0.049926   |   1.0 |  0.50
Comm    | 0.18338    | 0.18876    | 0.19298    |   0.5 |  2.07
Output  | 0          | 0          | 0          |   0.0 |  0.00
Modify  | 0          | 0          | 0          |   0.0 |  0.00
Other   |            | 1.992      |            |       | 21.85

Nlocal:        346.154 ave         380 max         304 min
Histogram: 1 1 6 6 7 7 6 9 7 2
Nghost:        5626.13 ave        5719 max        5527 min
Histogram: 7 11 3 2 2 0 1 8 9 9
Neighs:       111451.0 ave      121831 max       97496 min
Histogram: 1 1 5 7 7 5 8 10 4 4

Total # of neighbors = 5795457
Ave neighs/atom = 321.96983
Ave special neighs/atom = 0.0000000
Neighbor list builds = 12
Dangerous builds = 0
PPPM initialization ...
  using 12-bit tables for long-range coulomb (../kspace.cpp:328)
  G vector (1/distance) = 0.29893969
  grid = 40 240 40
  stencil order = 5
  estimated absolute RMS force accuracy = 0.00015680388
  estimated relative force accuracy = 1.0889427e-05
  using single precision MKL FFT
  3d grid and FFT values/proc = 18225 7600
Setting up Verlet run ...
  Unit style    : metal
  Current step  : 0
  Time step     : 0.001
Per MPI rank memory allocation (min/avg/max) = 10.56 | 10.59 | 10.61 Mbytes
Step Dt Time Atoms Temp PotEng KinEng Press Volume 
       0        0.001            0    18000          600   -235362.09     1395.932    5678.3837    263894.89 
   50000        0.001           50    18000    607.39406   -234879.18    1413.1347   -1019.3912    266910.34 
  100000        0.001          100    18000    600.62702   -234896.84    1397.3908    1109.6443    266545.31 
  150000        0.001          150    18000    597.57039   -234918.53    1390.2794    833.41663    266493.55 
  200000        0.001          200    18000    602.97697   -234911.68    1402.8581    1285.8258    266481.71 
  250000        0.001          250    18000    603.55912   -234945.13    1404.2125    525.18641    266503.06 
  300000        0.001          300    18000    599.24553   -234941.67    1394.1767   -83.937903    266586.62 
  350000        0.001          350    18000    599.75999   -234958.59    1395.3736   -580.63374    266653.31 
  400000        0.001          400    18000    604.35565   -234949.61    1406.0657    358.37665     266543.3 
  450000        0.001          450    18000    597.13647   -234953.25    1389.2699    1564.1538    266308.24 
  500000        0.001          500    18000    599.58946   -234971.17    1394.9769    83.153156    266534.87 
Loop time of 4684.91 on 52 procs for 500000 steps with 18000 atoms

Performance: 9.221 ns/day, 2.603 hours/ns, 106.726 timesteps/s
99.8% CPU use with 52 MPI tasks x 1 OpenMP threads

MPI task timing breakdown:
Section |  min time  |  avg time  |  max time  |%varavg| %total
---------------------------------------------------------------
Pair    | 2802.2     | 2845.4     | 2920.1     |  57.8 | 60.73
Bond    | 0.045667   | 0.069149   | 0.094243   |   3.6 |  0.00
Kspace  | 961        | 1038.7     | 1084.2     |  97.3 | 22.17
Neigh   | 14.236     | 14.819     | 15.798     |  10.5 |  0.32
Comm    | 130.29     | 135.68     | 142.04     |  22.0 |  2.90
Output  | 0.058211   | 0.058251   | 0.05992    |   0.1 |  0.00
Modify  | 570.76     | 608.11     | 632.6      |  61.6 | 12.98
Other   |            | 42.14      |            |       |  0.90

Nlocal:        346.154 ave         372 max         328 min
Histogram: 5 4 5 11 9 6 6 4 1 1
Nghost:        5616.71 ave        5702 max        5536 min
Histogram: 8 12 7 1 0 0 0 1 14 9
Neighs:       110297.0 ave      118284 max      104071 min
Histogram: 4 4 5 12 8 6 5 7 0 1

Total # of neighbors = 5735427
Ave neighs/atom = 318.63483
Ave special neighs/atom = 0.0000000
Neighbor list builds = 3689
Dangerous builds = 0
System init for write_data ...
PPPM initialization ...
  using 12-bit tables for long-range coulomb (../kspace.cpp:328)
  G vector (1/distance) = 0.29874114
  grid = 40 240 40
  stencil order = 5
  estimated absolute RMS force accuracy = 0.00015848406
  estimated relative force accuracy = 1.1006109e-05
  using single precision MKL FFT
  3d grid and FFT values/proc = 18225 7600
Total wall time: 1:18:14
