LAMMPS (29 Oct 2020)
OMP_NUM_THREADS environment is not set. Defaulting to 1 thread. (../comm.cpp:94)
  using 1 OpenMP thread(s) per MPI task
OMP_NUM_THREADS environment is not set. Defaulting to 1 thread. (../comm.cpp:94)
  using 1 OpenMP thread(s) per MPI task
Reading data file ...
  orthogonal box = (-0.27717828 -3.4472206 -0.27717828) to (27.617178 331.52722 27.617178)
  2 by 13 by 2 MPI processor grid
  reading atoms ...
  18000 atoms
  reading velocities ...
  18000 velocities
Finding 1-2 1-3 1-4 neighbors ...
  special bond factors lj:    0.0      0.0      0.0     
  special bond factors coul:  0.0      0.0      0.0     
     0 = max # of 1-2 neighbors
     0 = max # of 1-3 neighbors
     0 = max # of 1-4 neighbors
     1 = max # of special neighbors
  special bonds CPU = 0.003 seconds
  read_data CPU = 0.060 seconds
45 atoms in group sphere
2 atoms in group oxygen
2 atoms in group thorium
43 atoms in group 1
45 atoms in group cluster
6000 atoms in group Th
12000 atoms in group O
15 atoms in group Th_group
30 atoms in group O_group
WARNING: Ignoring 'compress yes' for molecular system (../delete_atoms.cpp:125)
Deleted 45 atoms, new total = 17955
45 atoms in group sphere
2 atoms in group oxygen
2 atoms in group thorium
43 atoms in group 1
45 atoms in group cluster
5985 atoms in group Th
11970 atoms in group O
15 atoms in group Th_group
30 atoms in group O_group
WARNING: Ignoring 'compress yes' for molecular system (../delete_atoms.cpp:125)
Deleted 45 atoms, new total = 17910
45 atoms in group sphere
2 atoms in group oxygen
2 atoms in group thorium
43 atoms in group 1
45 atoms in group cluster
5970 atoms in group Th
11940 atoms in group O
15 atoms in group Th_group
30 atoms in group O_group
WARNING: Ignoring 'compress yes' for molecular system (../delete_atoms.cpp:125)
Deleted 45 atoms, new total = 17865
45 atoms in group sphere
2 atoms in group oxygen
2 atoms in group thorium
43 atoms in group 1
45 atoms in group cluster
5955 atoms in group Th
11910 atoms in group O
15 atoms in group Th_group
30 atoms in group O_group
WARNING: Ignoring 'compress yes' for molecular system (../delete_atoms.cpp:125)
Deleted 45 atoms, new total = 17820
45 atoms in group sphere
2 atoms in group oxygen
2 atoms in group thorium
43 atoms in group 1
45 atoms in group cluster
5940 atoms in group Th
11880 atoms in group O
15 atoms in group Th_group
30 atoms in group O_group
WARNING: Ignoring 'compress yes' for molecular system (../delete_atoms.cpp:125)
Deleted 45 atoms, new total = 17775
45 atoms in group sphere
2 atoms in group oxygen
2 atoms in group thorium
43 atoms in group 1
45 atoms in group cluster
5925 atoms in group Th
11850 atoms in group O
15 atoms in group Th_group
30 atoms in group O_group
WARNING: Ignoring 'compress yes' for molecular system (../delete_atoms.cpp:125)
Deleted 45 atoms, new total = 17730
Setting atom values ...
  11820 settings made for charge
Setting atom values ...
  5910 settings made for charge
PPPM initialization ...
  using 12-bit tables for long-range coulomb (../kspace.cpp:328)
  G vector (1/distance) = 0.29912852
  grid = 40 240 40
  stencil order = 5
  estimated absolute RMS force accuracy = 0.00015413022
  estimated relative force accuracy = 1.0703751e-05
  using single precision MKL FFT
  3d grid and FFT values/proc = 18225 7600
Neighbor list info ...
  update every 1 steps, delay 0 steps, check yes
  max neighbors/atom: 2000, page size: 100000
  master list distance cutoff = 13
  ghost atom cutoff = 13
  binsize = 6.5, bins = 5 52 5
  2 neighbor lists, perpetual/occasional/extra = 2 0 0
  (1) pair coul/long, perpetual
      attributes: half, newton on
      pair build: half/bin/newton
      stencil: half/bin/3d/newton
      bin: standard
  (2) pair eam/alloy, perpetual, copy from (1)
      attributes: half, newton on
      pair build: copy
      stencil: none
      bin: none
Setting up cg style minimization ...
  Unit style    : metal
  Current step  : 0
WARNING: Energy due to 3 extra global DOFs will be included in minimizer energies
Per MPI rank memory allocation (min/avg/max) = 9.476 | 10.13 | 10.28 Mbytes
Step Temp E_pair E_mol TotEng Press Volume 
       0            0   -232973.15            0   -232973.15   -1799.0252    260641.98 
      33            0   -233068.24            0   -233068.24    86.220272    260515.53 
Loop time of 1.03329 on 52 procs for 33 steps with 17730 atoms

98.7% CPU use with 52 MPI tasks x 1 OpenMP threads

Minimization stats:
  Stopping criterion = linesearch alpha is zero
  Energy initial, next-to-last, final = 
     -232973.148427909  -233068.240130863  -233068.240130863
  Force two-norm initial, final = 571.25038 35.680941
  Force max component initial, final = 499.84263 23.912148
  Final line search alpha, max atom move = 6.7770484e-12 1.6205379e-10
  Iterations, force evaluations = 33 93

MPI task timing breakdown:
Section |  min time  |  avg time  |  max time  |%varavg| %total
---------------------------------------------------------------
Pair    | 0.58278    | 0.61554    | 0.66142    |   2.5 | 59.57
Bond    | 6.604e-06  | 1.151e-05  | 1.8382e-05 |   0.0 |  0.00
Kspace  | 0.16256    | 0.2083     | 0.24123    |   4.3 | 20.16
Neigh   | 0          | 0          | 0          |   0.0 |  0.00
Comm    | 0.014226   | 0.01513    | 0.015993   |   0.4 |  1.46
Output  | 0          | 0          | 0          |   0.0 |  0.00
Modify  | 0          | 0          | 0          |   0.0 |  0.00
Other   |            | 0.1943     |            |       | 18.81

Nlocal:        340.962 ave         404 max         289 min
Histogram: 3 5 9 7 5 7 5 8 2 1
Nghost:        5578.54 ave        5754 max        5399 min
Histogram: 2 5 7 8 7 5 2 4 6 6
Neighs:       108456.0 ave      130204 max       89925 min
Histogram: 4 4 7 8 5 7 5 6 5 1

Total # of neighbors = 5639700
Ave neighs/atom = 318.08799
Ave special neighs/atom = 0.0000000
Neighbor list builds = 0
Dangerous builds = 0
Resetting atom IDs ...
PPPM initialization ...
  using 12-bit tables for long-range coulomb (../kspace.cpp:328)
  G vector (1/distance) = 0.2991434
  grid = 40 240 40
  stencil order = 5
  estimated absolute RMS force accuracy = 0.00015398219
  estimated relative force accuracy = 1.0693471e-05
  using single precision MKL FFT
  3d grid and FFT values/proc = 18225 7600
Finding 1-2 1-3 1-4 neighbors ...
  special bond factors lj:    0.0      0.0      0.0     
  special bond factors coul:  0.0      0.0      0.0     
     0 = max # of 1-2 neighbors
     0 = max # of 1-3 neighbors
     0 = max # of 1-4 neighbors
     1 = max # of special neighbors
  special bonds CPU = 0.001 seconds
PPPM initialization ...
  using 12-bit tables for long-range coulomb (../kspace.cpp:328)
  G vector (1/distance) = 0.2991434
  grid = 40 240 40
  stencil order = 5
  estimated absolute RMS force accuracy = 0.00015398219
  estimated relative force accuracy = 1.0693471e-05
  using single precision MKL FFT
  3d grid and FFT values/proc = 18225 7600
Setting up Verlet run ...
  Unit style    : metal
  Current step  : 33
  Time step     : 0.001
Per MPI rank memory allocation (min/avg/max) = 8.352 | 9.064 | 9.157 Mbytes
Step Dt Time Atoms Temp PotEng KinEng Press Volume 
      33        0.001            0    17730          600   -233068.24    1374.9919    5723.7425    260515.53 
   10000        0.001        9.967    17730    596.21088    -231698.9    1366.3085   -146.12486    264922.35 
   20000        0.001       19.967    17730    602.46015   -231708.15    1380.6297   -752.61182    265009.43 
   30000        0.001       29.967    17730     598.1983   -231708.16     1370.863    1203.4797    264734.96 
   40000        0.001       39.967    17730    601.23614   -231711.38    1377.8247    657.13048    264788.27 
   50000        0.001       49.967    17730    593.92455   -231710.33     1361.069    698.84387    264753.14 
   60000        0.001       59.967    17730    598.60916   -231706.66    1371.8045    715.44675    264749.29 
   70000        0.001       69.967    17730    601.96733   -231699.18    1379.5003   -441.55545    264954.13 
   80000        0.001       79.967    17730    601.59735   -231695.49    1378.6524   -1368.7838    265139.75 
   90000        0.001       89.967    17730    597.72846   -231688.41    1369.7863    816.03766    264833.62 
  100000        0.001       99.967    17730    597.81405   -231695.21    1369.9824    552.48708    264802.52 
  100033        0.001          100    17730    594.02375   -231693.23    1361.2964   -232.20475    264914.39 
Loop time of 773.532 on 52 procs for 100000 steps with 17730 atoms

Performance: 11.170 ns/day, 2.149 hours/ns, 129.277 timesteps/s
99.8% CPU use with 52 MPI tasks x 1 OpenMP threads

MPI task timing breakdown:
Section |  min time  |  avg time  |  max time  |%varavg| %total
---------------------------------------------------------------
Pair    | 486.07     | 496.17     | 517.24     |  32.2 | 64.14
Bond    | 0.0091449  | 0.014314   | 0.020504   |   2.2 |  0.00
Kspace  | 148.77     | 169.83     | 180.1      |  55.4 | 21.96
Neigh   | 1.2204     | 1.3304     | 1.4313     |   4.2 |  0.17
Comm    | 15.324     | 15.909     | 16.506     |   7.4 |  2.06
Output  | 0.05888    | 0.058924   | 0.06084    |   0.1 |  0.01
Modify  | 78.958     | 83.498     | 86.98      |  24.6 | 10.79
Other   |            | 6.718      |            |       |  0.87

Nlocal:        340.962 ave         367 max         317 min
Histogram: 1 3 5 6 14 9 8 3 1 2
Nghost:        5551.08 ave        5700 max        5436 min
Histogram: 4 10 6 4 11 5 4 0 0 8
Neighs:       107799.0 ave      116803 max       95705 min
Histogram: 1 1 3 8 4 10 13 4 5 3

Total # of neighbors = 5605529
Ave neighs/atom = 316.16069
Ave special neighs/atom = 0.0000000
Neighbor list builds = 477
Dangerous builds = 0
WARNING: Shell command 'mkdir' failed with error 'File exists' (../input.cpp:1197)
System init for write_data ...
PPPM initialization ...
  using 12-bit tables for long-range coulomb (../kspace.cpp:328)
  G vector (1/distance) = 0.29883935
  grid = 40 240 40
  stencil order = 5
  estimated absolute RMS force accuracy = 0.00015640553
  estimated relative force accuracy = 1.0861763e-05
  using single precision MKL FFT
  3d grid and FFT values/proc = 18225 7600
Total wall time: 0:12:55
