ITEM: TIMESTEP
80000
ITEM: NUMBER OF ATOMS
17820
ITEM: BOX BOUNDS pp pp pp
-3.5783690158253106e-01 2.7697836901582082e+01
-4.2394939980309267e+00 3.3231949399804932e+02
-3.6158322459324022e-01 2.7701583224593406e+01
ITEM: ATOMS id type q x y z
1 2 2.2208 5.37294 1.34838 5.18274
2 1 -1.1104 1.10385 -2.88985 1.06918
3 1 -1.1104 0.960276 2.7446 1.06556
6 1 -1.1104 0.943267 -2.74941 3.93603
7 1 -1.1104 1.07383 2.64079 3.85401
10 1 -1.1104 1.04242 -0.0858823 1.0069
12 2 2.2208 5.31304 -1.3833 2.50741
14 1 -1.1104 0.92176 -0.0140976 3.93582
16 1 -1.1104 3.78696 -2.86929 1.17098
17 1 -1.1104 3.87734 2.78294 1.15204
18 2 2.2208 2.50615 1.42546 2.51085
19 1 -1.1104 3.97981 -2.85974 3.88042
20 1 -1.1104 3.94455 2.76916 3.99327
21 2 2.2208 2.39624 -1.34954 5.26779
22 2 2.2208 2.45954 4.15376 5.36525
23 1 -1.1104 3.86688 -0.0207786 1.04103
24 1 -1.1104 3.87523 -0.0409516 3.73764
13 2 2.2208 5.35531 4.25737 2.38743
4 1 -1.1104 6.6294 -2.78342 1.10791
5 1 -1.1104 6.76286 2.84652 1.05886
15 1 -1.1104 6.67446 -0.102827 3.77458
173 1 -1.1104 3.74882 2.68838 6.6937
166 1 -1.1104 1.12156 -2.76559 6.68783
167 1 -1.1104 0.993662 2.77069 6.73446
170 1 -1.1104 1.02426 -0.0293374 6.70398
8356 2 2.2208 10.9107 -4.13897 10.8443
8772 2 2.2208 -0.44642 20.9314 8.00578
313 2 2.2208 -0.235296 15.3511 7.99705
29 2 2.2208 13.7335 9.84508 10.8342
333 2 2.2208 2.46828 4.10339 -0.470619
9 1 -1.1104 6.82445 2.61965 3.94184
8 1 -1.1104 6.74443 -2.944 3.7732
11 1 -1.1104 6.64474 0.0850362 1.09819
31 2 2.2208 11.1192 1.33048 5.19091
32 1 -1.1104 12.3634 -2.81069 0.892503
33 1 -1.1104 12.2344 2.82475 1.03833
34 1 -1.1104 12.2887 -2.82827 3.8557
35 1 -1.1104 12.4108 2.74066 3.87212
36 1 -1.1104 12.3198 0.0336216 0.968142
37 2 2.2208 10.8903 -1.37921 2.33878
38 2 2.2208 10.9472 4.10517 2.49658
39 1 -1.1104 12.443 0.0224041 3.76617
40 1 -1.1104 9.59158 -2.8625 0.981366
41 1 -1.1104 9.48147 2.73992 1.15907
42 2 2.2208 8.12442 1.47096 2.41041
43 1 -1.1104 9.42414 -2.87387 3.75006
44 1 -1.1104 9.60725 2.84599 3.90411
45 2 2.2208 8.17375 -1.44927 5.13696
46 2 2.2208 8.13871 4.16957 5.33085
47 1 -1.1104 9.44899 -0.0531617 1.1374
48 1 -1.1104 9.52383 0.00943458 3.81552
205 1 -1.1104 12.2429 -2.90534 6.66411
206 1 -1.1104 12.4329 2.69946 6.67966
230 2 2.2208 10.8685 15.4326 8.04947
49 2 2.2208 13.7818 1.3857 2.47177
229 2 2.2208 13.7339 1.47871 8.1714
82 2 2.2208 -0.316988 9.66277 2.46902
54 2 2.2208 5.28093 6.95968 5.2077
55 2 2.2208 5.21244 12.5276 5.27237
56 1 -1.1104 0.986262 8.25746 0.976756
58 1 -1.1104 1.22448 8.20086 3.88355
60 1 -1.1104 1.10694 5.59819 1.04842
61 1 -1.1104 0.927537 11.1157 1.05017
66 2 2.2208 5.19921 9.6659 2.45252
67 1 -1.1104 1.06039 5.37614 3.84828
68 1 -1.1104 1.18887 11.132 3.94049
71 1 -1.1104 3.94937 8.25472 1.12149
72 2 2.2208 2.48841 6.86667 2.42855
73 2 2.2208 2.41784 12.6054 2.41057
74 1 -1.1104 4.01916 8.38024 3.88256
75 2 2.2208 2.4311 9.73295 5.21083
76 1 -1.1104 3.95627 5.4766 1.02696
77 1 -1.1104 3.6932 11.0623 0.98056
79 1 -1.1104 3.93193 5.51331 3.78439
80 1 -1.1104 3.82743 11.1401 3.78074
63 1 -1.1104 6.62092 5.72915 0.973328
59 1 -1.1104 6.7444 8.30516 3.75424
57 1 -1.1104 6.69608 8.43318 1.04663
64 1 -1.1104 6.6451 11.3796 1.19853
235 1 -1.1104 6.59754 8.27421 6.69639
239 1 -1.1104 3.88398 5.60671 6.62378
204 1 -1.1104 9.42776 14.0981 9.61474
81 2 2.2208 -0.27499 6.81729 5.31701
69 1 -1.1104 6.74483 5.44786 3.81948
70 1 -1.1104 6.52759 11.2313 3.89516
84 2 2.2208 10.9471 7.11778 5.23531
85 2 2.2208 10.8686 12.6681 5.14786
86 1 -1.1104 12.1849 8.39038 0.992615
87 1 -1.1104 12.345 8.341 3.83196
88 1 -1.1104 12.2218 5.63915 1.05598
89 1 -1.1104 12.2726 11.1689 1.05884
91 2 2.2208 10.8538 9.82313 2.43031
92 1 -1.1104 12.5013 5.56147 3.88995
93 1 -1.1104 12.2783 11.287 3.86303
94 1 -1.1104 9.45841 8.46311 1.18817
95 2 2.2208 8.1086 6.93386 2.49931
96 2 2.2208 7.98872 12.698 2.51497
97 1 -1.1104 9.45938 8.53851 3.85374
98 2 2.2208 8.11358 9.69866 5.31605
99 1 -1.1104 9.50451 5.58056 1.04966
100 1 -1.1104 9.52098 11.2272 0.947338
102 1 -1.1104 9.51017 5.56466 3.90068
103 1 -1.1104 9.4441 11.3856 3.75221
136 1 -1.1104 12.1139 14.0445 9.39733
265 1 -1.1104 12.3671 8.48447 6.63597
101 1 -1.1104 9.4709 11.1764 6.62078
267 1 -1.1104 9.59092 8.43017 6.65776
269 1 -1.1104 9.435 5.51842 6.60666
51 2 2.2208 13.7093 9.64867 5.18803
53 1 -1.1104 9.3175 14.0807 12.4346
90 1 -1.1104 12.2901 11.2981 6.63742
106 2 2.2208 5.25187 18.2161 5.24918
107 1 -1.1104 0.958671 14.0335 1.14815
109 1 -1.1104 1.03393 19.8039 0.932259
113 1 -1.1104 1.09842 13.9227 3.81804
114 1 -1.1104 0.957496 19.4929 3.69612
116 1 -1.1104 0.994312 16.8932 1.02128
119 2 2.2208 5.18215 15.3725 2.47672
120 2 2.2208 5.23839 20.9699 2.45625
121 1 -1.1104 1.1211 16.6465 3.8057
123 1 -1.1104 3.71604 13.7701 0.955464
125 1 -1.1104 3.7749 19.5039 0.975859
127 2 2.2208 2.34794 18.2105 2.4498
128 1 -1.1104 3.7463 13.8932 3.73026
129 1 -1.1104 3.80268 19.6613 3.82174
130 2 2.2208 2.40682 15.4441 5.28041
131 2 2.2208 2.39546 20.9457 5.19631
132 1 -1.1104 3.98402 16.7181 1.10251
134 1 -1.1104 3.82777 16.8702 3.76676
140 1 -1.1104 6.62289 16.7695 0.817293
138 1 -1.1104 6.61501 19.4946 1.14027
133 1 -1.1104 3.80702 16.8565 6.68402
139 1 -1.1104 6.6114 19.7123 3.91031
126 1 -1.1104 3.87082 19.5119 6.70162
110 1 -1.1104 6.69339 14.0809 1.17216
122 1 -1.1104 6.59414 16.8053 3.85812
124 1 -1.1104 3.98533 13.9627 6.58208
302 1 -1.1104 1.09864 19.547 6.52905
137 1 -1.1104 12.2751 19.7004 9.50897
25 2 2.2208 -0.411069 -1.44262 2.44939
8868 2 2.2208 13.5354 15.4772 5.22202
115 1 -1.1104 6.5166 14.0589 3.86483
141 2 2.2208 10.9033 18.3553 5.15998
142 1 -1.1104 12.3739 14.103 0.973966
144 1 -1.1104 12.2917 19.7485 0.985968
146 1 -1.1104 12.2029 14.0536 3.84473
147 1 -1.1104 12.1774 19.7411 3.82202
148 1 -1.1104 12.1116 16.9637 1.1168
150 2 2.2208 10.8249 15.5645 2.38579
151 2 2.2208 10.8744 21.0572 2.33431
152 1 -1.1104 12.1234 16.866 3.86968
153 1 -1.1104 9.60235 14.0741 1.01344
155 1 -1.1104 9.47114 19.6467 1.05971
157 2 2.2208 7.96845 18.2013 2.53388
158 1 -1.1104 9.27581 14.1488 3.88947
159 1 -1.1104 9.4399 19.7256 3.72433
160 2 2.2208 8.05229 15.3942 5.32322
161 2 2.2208 8.172 21.1262 5.16906
162 1 -1.1104 9.435 16.9996 1.00579
164 1 -1.1104 9.41753 16.8812 3.85158
163 1 -1.1104 9.29128 16.8536 6.72206
154 1 -1.1104 9.51837 13.981 6.64064
145 1 -1.1104 12.2984 19.7655 6.70662
8798 2 2.2208 13.5528 18.2818 2.47537
8847 2 2.2208 13.6707 21.0601 5.30203
201 2 2.2208 -0.372114 1.45925 10.8443
174 1 -1.1104 3.95749 0.0285913 6.49597
171 1 -1.1104 6.78551 -0.0547046 6.60052
172 1 -1.1104 3.86789 -2.85433 6.54089
168 1 -1.1104 6.85435 -2.79611 6.67747
175 2 2.2208 5.2533 1.37733 10.9377
176 1 -1.1104 1.05275 -2.80664 12.1433
177 1 -1.1104 1.12076 2.97223 12.3302
180 1 -1.1104 0.949872 -2.54514 9.36884
181 1 -1.1104 1.16267 2.82835 9.39911
184 1 -1.1104 1.12774 0.0315613 12.2007
186 2 2.2208 5.29618 -1.55718 8.03118
188 1 -1.1104 1.18135 0.190355 9.59246
190 1 -1.1104 3.83835 -2.79206 12.1178
191 1 -1.1104 3.84668 2.91619 12.3364
192 2 2.2208 2.50467 1.36351 7.9846
193 1 -1.1104 3.88935 -2.89237 9.34313
194 1 -1.1104 3.9718 2.62178 9.53354
195 2 2.2208 2.47316 -1.48659 10.7175
196 2 2.2208 2.44774 4.18073 10.7976
197 1 -1.1104 3.91543 -0.0798182 12.2629
198 1 -1.1104 3.87481 -0.10434 9.4112
187 2 2.2208 5.27713 4.05852 7.99451
189 1 -1.1104 6.68915 -0.00359432 9.52344
182 1 -1.1104 6.77124 -2.85645 9.49725
178 1 -1.1104 6.64501 -2.78753 12.2913
183 1 -1.1104 6.74707 2.58853 9.25914
50 2 2.2208 13.7066 -1.54027 5.42348
386 2 2.2208 2.47972 1.34704 13.623
8352 2 2.2208 2.51852 -4.2799 8.04178
104 1 -1.1104 12.0807 13.9889 12.1873
315 1 -1.1104 9.42577 16.9047 12.2218
8992 2 2.2208 -0.370576 12.5772 10.7243
210 1 -1.1104 9.46883 -0.0669985 6.58609
209 1 -1.1104 9.53901 2.74807 6.65231
9070 2 2.2208 13.6078 7.09267 13.7232
169 1 -1.1104 6.70725 2.77208 6.68036
185 1 -1.1104 6.6853 -0.00761543 12.3078
179 1 -1.1104 6.70656 2.81045 12.3146
207 1 -1.1104 12.2819 -0.0608249 6.62456
30 2 2.2208 13.6169 4.10763 10.9455
208 1 -1.1104 9.48814 -2.94256 6.48447
211 2 2.2208 10.8796 1.28541 11.006
212 1 -1.1104 12.3018 -2.94252 12.3212
213 1 -1.1104 12.3301 2.79638 12.4372
214 1 -1.1104 12.2421 -2.90733 9.39171
215 1 -1.1104 12.2349 2.6797 9.62515
216 1 -1.1104 12.2912 -0.0886208 12.3662
217 2 2.2208 10.8052 -1.56732 8.00246
219 1 -1.1104 12.2967 -0.137317 9.49321
220 1 -1.1104 9.46364 -2.85683 12.242
221 1 -1.1104 9.47279 2.79156 12.3842
222 2 2.2208 8.23128 1.29738 7.964
223 1 -1.1104 9.60561 -2.76959 9.3946
224 1 -1.1104 9.53595 2.85321 9.47393
225 2 2.2208 8.08715 -1.42825 10.9089
227 1 -1.1104 9.51304 -0.0186448 12.1722
228 1 -1.1104 9.39988 -0.0903437 9.41323
226 2 2.2208 7.93053 4.15743 10.8244
218 2 2.2208 10.8346 4.00887 8.0585
8797 2 2.2208 13.714 -1.38696 10.9162
202 1 -1.1104 9.56829 19.6145 12.286
288 1 -1.1104 6.75701 19.7623 9.3597
78 1 -1.1104 3.7503 11.2177 6.68023
238 1 -1.1104 3.87147 8.38629 6.60211
236 1 -1.1104 1.09497 5.44418 6.66733
234 1 -1.1104 0.976251 8.3067 6.65656
233 2 2.2208 8.05313 20.9319 11.0453
62 1 -1.1104 1.12862 11.2024 6.56979
240 2 2.2208 5.22835 7.07414 10.908
241 2 2.2208 5.25 12.6424 10.8468
242 1 -1.1104 0.952059 8.53336 12.2604
244 1 -1.1104 0.994341 8.33821 9.41097
246 1 -1.1104 1.01208 5.60296 12.2384
247 1 -1.1104 1.09688 11.3168 12.1781
250 2 2.2208 5.18693 9.80709 8.07568
251 1 -1.1104 1.04387 5.46955 9.43139
252 1 -1.1104 1.0808 11.0617 9.40951
255 1 -1.1104 3.85476 8.53665 12.2383
256 2 2.2208 2.49735 6.97193 8.06299
257 2 2.2208 2.53295 12.5495 8.04738
258 1 -1.1104 3.8599 8.35051 9.3284
259 2 2.2208 2.52582 9.848 10.9551
260 1 -1.1104 3.84949 5.65923 12.3429
261 1 -1.1104 3.83143 11.1356 12.2494
262 1 -1.1104 3.93258 5.49914 9.45579
263 1 -1.1104 3.78488 11.2383 9.53547
243 1 -1.1104 6.6697 8.506 12.288
248 1 -1.1104 6.66483 5.51378 12.2429
249 1 -1.1104 6.69013 11.3717 12.1683
454 2 2.2208 2.47631 7.04078 13.6058
319 2 2.2208 5.19771 9.82699 13.7179
65 1 -1.1104 6.6018 11.1959 6.72389
320 2 2.2208 2.42843 12.6345 13.6351
481 2 2.2208 7.95185 6.97326 13.6676
237 1 -1.1104 6.69114 5.61914 6.72054
266 1 -1.1104 12.2344 5.46714 6.63037
297 1 -1.1104 6.40251 13.9823 12.2996
231 1 -1.1104 9.4164 19.602 9.52443
245 1 -1.1104 6.558 8.24908 9.40355
253 1 -1.1104 6.62223 5.50782 9.48117
254 1 -1.1104 6.69633 11.2043 9.29134
264 1 -1.1104 9.43086 11.1464 9.41761
268 1 -1.1104 9.42009 5.48264 9.45618
270 1 -1.1104 9.35913 11.1466 12.1949
271 1 -1.1104 9.54519 5.56008 12.222
272 2 2.2208 8.01099 9.87117 10.874
273 1 -1.1104 9.3592 8.46683 9.5393
274 2 2.2208 8.102 12.7189 8.0895
275 2 2.2208 8.03696 7.00541 7.96383
276 2 2.2208 10.8817 6.90818 10.9011
277 2 2.2208 10.7403 12.5392 10.9304
278 1 -1.1104 12.4323 8.32166 12.2232
279 1 -1.1104 12.1724 8.51084 9.40376
280 1 -1.1104 12.3585 5.53433 12.3304
281 1 -1.1104 12.2457 11.1411 12.3074
282 2 2.2208 10.8053 9.89178 8.17805
283 1 -1.1104 12.1276 5.56027 9.48718
284 1 -1.1104 12.2329 11.25 9.53344
285 1 -1.1104 9.43148 8.42087 12.3795
203 2 2.2208 8.04636 18.297 8.01572
8981 2 2.2208 13.574 6.98253 8.09235
289 1 -1.1104 6.63536 16.8286 9.57943
8771 2 2.2208 -0.27797 18.1873 10.9059
108 1 -1.1104 1.13256 13.9102 6.65428
118 1 -1.1104 6.56157 16.7494 6.57157
112 1 -1.1104 6.78449 19.7003 6.62349
327 2 2.2208 5.24908 21.0659 13.659
117 1 -1.1104 1.00588 16.8094 6.62768
296 1 -1.1104 6.84826 19.5132 12.2674
310 2 2.2208 2.36177 15.3549 10.9192
286 1 -1.1104 3.8179 19.5369 12.5274
287 1 -1.1104 3.80306 14.0453 12.3424
291 1 -1.1104 1.12351 19.6375 9.57303
292 1 -1.1104 0.840641 16.861 9.43333
293 2 2.2208 5.31054 20.9725 8.00597
294 1 -1.1104 1.07933 13.9808 9.48387
295 2 2.2208 5.20773 15.4013 8.11647
298 1 -1.1104 1.06754 19.6096 12.4355
299 1 -1.1104 0.896188 14.2269 12.2247
300 2 2.2208 5.2158 18.0497 11.0705
301 1 -1.1104 3.86879 19.4813 9.54877
303 2 2.2208 2.46258 18.2459 8.06153
304 1 -1.1104 3.6501 16.7758 9.69424
305 1 -1.1104 3.81583 14.0359 9.40001
307 1 -1.1104 1.22441 16.9589 12.2669
308 1 -1.1104 3.80846 16.7241 12.3872
309 2 2.2208 2.43331 21.0592 10.8405
290 1 -1.1104 6.62063 14.0769 9.4287
306 1 -1.1104 6.76503 16.8456 12.3295
326 2 2.2208 2.54401 18.2393 13.8001
165 1 -1.1104 12.1234 16.4946 12.3347
311 2 2.2208 10.8487 21.1134 8.06341
111 1 -1.1104 6.67775 13.9254 6.66087
149 1 -1.1104 12.176 16.8592 6.57233
232 2 2.2208 8.04673 15.4894 10.9316
83 2 2.2208 10.8189 18.087 10.8955
143 1 -1.1104 12.318 14.0981 6.64495
156 1 -1.1104 9.57398 19.6774 6.50634
9032 2 2.2208 13.6769 21.0164 10.8531
9065 2 2.2208 13.6002 15.4661 10.827
312 1 -1.1104 12.1752 16.8229 9.4604
314 1 -1.1104 9.38545 16.9063 9.40394
135 1 -1.1104 12.3735 19.3736 12.1568
387 2 2.2208 5.30988 4.13197 13.7097
420 2 2.2208 10.9629 4.20335 13.7633
483 2 2.2208 8.00642 12.492 13.7077
329 2 2.2208 10.7826 20.929 13.6576
335 2 2.2208 8.09021 4.18894 -0.340177
337 2 2.2208 5.31592 6.92098 -0.460606
341 2 2.2208 10.8626 7.04234 -0.305379
323 2 2.2208 2.36971 15.3533 -0.374599
345 2 2.2208 5.28666 1.30843 16.2861
346 1 -1.1104 1.11309 -2.85903 17.9682
347 1 -1.1104 1.17431 2.84788 17.9311
350 1 -1.1104 1.29218 -2.90566 15.2055
352 1 -1.1104 1.10745 2.82001 15.1792
358 1 -1.1104 1.06676 -0.153185 17.8649
360 2 2.2208 5.38928 -1.4758 19.174
362 1 -1.1104 0.94935 -0.055743 15.0298
366 1 -1.1104 3.91556 -2.8082 17.8055
367 1 -1.1104 3.98789 2.8056 17.8734
368 2 2.2208 2.61595 1.45417 19.2331
369 1 -1.1104 4.01 -3.02859 15.1146
371 1 -1.1104 3.83818 2.62503 15.1148
373 2 2.2208 2.45629 -1.36512 16.553
374 2 2.2208 2.49858 4.1128 16.4114
375 1 -1.1104 3.93549 -0.0505973 17.9132
376 1 -1.1104 3.74329 -0.0122721 15.0775
361 2 2.2208 5.25309 4.26387 19.2329
359 1 -1.1104 6.70059 -0.144308 17.7837
356 1 -1.1104 6.67291 2.81294 15.0418
370 1 -1.1104 3.92987 -2.81275 20.6204
363 1 -1.1104 1.1806 0.274631 20.8075
372 1 -1.1104 3.97218 2.92196 20.6536
357 1 -1.1104 6.7736 2.72501 20.684
377 1 -1.1104 3.81563 0.12708 20.5461
355 1 -1.1104 6.84112 -2.85151 20.6259
8524 2 2.2208 10.8646 -4.39824 22.0876
349 1 -1.1104 6.6266 2.83402 17.9522
348 1 -1.1104 6.76076 -2.79823 17.8012
364 1 -1.1104 6.64028 -0.0125379 14.9584
354 1 -1.1104 6.71175 -2.87472 15.0205
9420 2 2.2208 -0.280334 6.99571 22.0755
388 2 2.2208 11.0952 1.26281 16.4957
389 1 -1.1104 12.5182 -2.90798 17.8368
390 1 -1.1104 12.3701 2.66512 17.9341
391 1 -1.1104 12.4144 -2.91576 15.1537
393 1 -1.1104 12.3382 2.7957 15.0075
395 1 -1.1104 12.2874 -0.0991759 17.9345
396 2 2.2208 10.9306 -1.39141 19.3212
397 2 2.2208 10.8883 4.12824 19.3257
398 1 -1.1104 12.3918 -0.0800433 15.142
400 1 -1.1104 9.56891 -2.81264 17.7499
401 1 -1.1104 9.46 2.87321 17.8555
402 2 2.2208 7.92116 1.22579 19.1713
403 1 -1.1104 9.47045 -2.86322 15.0342
405 1 -1.1104 9.5338 2.66416 15.2494
407 2 2.2208 8.08112 -1.45151 16.3076
409 1 -1.1104 9.4931 0.0178556 17.8648
410 1 -1.1104 9.4741 -0.133148 14.9786
408 2 2.2208 8.09125 4.16494 16.4754
406 1 -1.1104 9.58684 2.73934 20.643
8639 2 2.2208 8.28251 -4.20214 19.212
394 1 -1.1104 12.3422 2.82347 20.7245
9348 2 2.2208 13.4674 21.0897 22.0159
399 1 -1.1104 12.3568 -0.0481815 20.6934
610 2 2.2208 10.7788 21.0301 24.904
8612 2 2.2208 5.35768 -4.29278 22.042
419 2 2.2208 10.9252 -1.51966 13.7336
421 2 2.2208 5.30276 6.92338 16.5194
422 2 2.2208 5.3541 12.655 16.6222
423 1 -1.1104 1.08405 8.45025 18.0394
425 1 -1.1104 0.950256 8.52144 15.1188
429 1 -1.1104 1.14943 5.51795 17.7904
430 1 -1.1104 1.2534 11.2306 18.026
433 2 2.2208 5.16908 9.71036 19.3074
434 1 -1.1104 1.12982 5.70768 15.1276
436 1 -1.1104 0.982946 11.2781 15.1151
442 1 -1.1104 3.77264 8.46258 17.7948
443 2 2.2208 2.55474 6.98889 19.2784
444 2 2.2208 2.53736 12.6153 19.4
445 1 -1.1104 3.77162 8.40638 14.9498
447 2 2.2208 2.38417 9.80094 16.5844
448 1 -1.1104 3.90459 5.69369 17.8286
449 1 -1.1104 3.90765 11.172 17.9565
450 1 -1.1104 3.87575 5.57444 15.0353
452 1 -1.1104 3.7824 11.308 15.0286
432 1 -1.1104 6.68782 11.1034 17.9113
440 1 -1.1104 6.70475 11.2424 15.1529
438 1 -1.1104 6.62872 5.58017 15.0644
427 1 -1.1104 6.47439 8.41673 15.1002
453 1 -1.1104 3.87824 11.0676 20.8424
426 1 -1.1104 1.10774 8.31239 20.802
451 1 -1.1104 4.03268 5.54563 20.8378
435 1 -1.1104 1.14292 5.62884 20.5426
439 1 -1.1104 6.74457 5.45324 20.6884
378 2 2.2208 13.5926 15.3993 22.003
446 1 -1.1104 3.94231 8.29762 20.6552
417 2 2.2208 13.7252 12.5958 19.227
424 1 -1.1104 6.62101 8.32957 17.8312
431 1 -1.1104 6.68854 5.66062 17.9609
457 2 2.2208 11.0124 7.00219 16.5819
458 2 2.2208 10.8778 12.5558 16.4368
459 1 -1.1104 12.2658 8.47555 17.9585
460 1 -1.1104 12.296 8.49841 15.0488
462 1 -1.1104 12.564 5.64562 17.8795
463 1 -1.1104 12.3229 11.2668 17.9521
464 2 2.2208 10.9605 9.86257 19.3372
465 1 -1.1104 12.2379 5.51252 15.2074
467 1 -1.1104 12.1651 11.2109 15.0353
469 1 -1.1104 9.47977 8.44323 17.9436
470 2 2.2208 8.21222 7.02352 19.2016
471 2 2.2208 8.12261 12.4917 19.3499
472 1 -1.1104 9.57432 8.26345 15.2375
474 2 2.2208 8.0666 9.76569 16.6123
475 1 -1.1104 9.60416 5.67969 17.8898
476 1 -1.1104 9.59355 11.1056 17.8985
477 1 -1.1104 9.29732 5.56942 14.9914
479 1 -1.1104 9.44741 11.0315 15.0946
480 1 -1.1104 9.45151 11.0177 20.6026
466 1 -1.1104 12.2662 5.63684 20.5404
473 1 -1.1104 9.42722 8.32398 20.6898
461 1 -1.1104 12.2002 8.40268 20.6592
478 1 -1.1104 9.48002 5.67294 20.6859
580 1 -1.1104 12.3408 14.0279 26.2951
547 1 -1.1104 12.2058 14.1041 23.4062
441 1 -1.1104 6.63425 11.1374 20.7259
8662 2 2.2208 2.54783 -4.17175 19.3709
484 2 2.2208 5.32912 18.1476 16.7463
485 1 -1.1104 1.15587 14.0044 17.9962
486 1 -1.1104 1.00641 19.6105 17.8732
489 1 -1.1104 1.15304 14.0206 15.2381
491 1 -1.1104 0.984899 19.413 15.1989
497 1 -1.1104 1.08376 16.8181 18.0801
499 2 2.2208 5.25534 15.3663 19.3329
500 2 2.2208 5.24228 21.0432 19.3355
501 1 -1.1104 1.11371 16.6517 15.1357
505 1 -1.1104 3.95054 14.0008 17.992
506 1 -1.1104 3.9524 19.6271 18.0782
507 2 2.2208 2.51541 18.2453 19.1891
508 1 -1.1104 3.91795 14.1006 15.1731
510 1 -1.1104 3.74079 19.6351 15.275
512 2 2.2208 2.5115 15.4191 16.5691
513 2 2.2208 2.47411 20.9926 16.6675
514 1 -1.1104 3.83854 16.8028 17.9722
515 1 -1.1104 3.98129 16.8451 15.2995
487 1 -1.1104 6.65655 14.0211 17.9948
495 1 -1.1104 6.7224 19.5702 15.169
498 1 -1.1104 6.72405 16.7779 17.8935
509 1 -1.1104 3.89925 13.9667 20.7298
511 1 -1.1104 3.84946 19.654 20.7777
492 1 -1.1104 0.900727 19.5512 20.7123
493 1 -1.1104 6.65867 13.9548 15.0818
496 1 -1.1104 6.56311 19.6947 20.7917
607 2 2.2208 8.03878 15.3679 22.0546
502 1 -1.1104 0.992496 16.7327 20.8339
516 1 -1.1104 4.09926 16.8702 20.5716
330 2 2.2208 10.7566 15.3523 13.6517
488 1 -1.1104 6.68423 19.7184 17.9113
503 1 -1.1104 6.71101 16.7462 15.1207
538 1 -1.1104 9.4106 19.8033 20.6465
536 1 -1.1104 9.53267 13.828 20.6834
9270 2 2.2208 13.6059 15.3143 16.4301
520 2 2.2208 10.8606 18.1237 16.4195
521 1 -1.1104 12.2739 13.8343 17.8688
522 1 -1.1104 12.1466 19.6061 17.8339
523 1 -1.1104 12.2892 13.9239 14.9893
525 1 -1.1104 12.392 19.5494 14.977
527 1 -1.1104 12.26 16.7778 18.0381
528 2 2.2208 10.9899 15.3291 19.298
529 2 2.2208 10.8275 21.0619 19.1535
530 1 -1.1104 12.2233 16.8198 15.0926
532 1 -1.1104 9.49699 13.8767 17.7553
533 1 -1.1104 9.49313 19.5543 17.9088
534 2 2.2208 8.02349 18.2434 19.2959
535 1 -1.1104 9.50412 13.8717 15.0951
537 1 -1.1104 9.51291 19.5343 15.0107
539 2 2.2208 8.03628 15.3095 16.4698
540 2 2.2208 8.0732 21.0132 16.4377
541 1 -1.1104 9.4393 16.5875 17.8476
542 1 -1.1104 9.44438 16.8455 15.0503
524 1 -1.1104 12.286 14.0676 20.6468
526 1 -1.1104 12.1155 19.7636 20.6143
531 1 -1.1104 12.1909 16.9162 20.7583
384 2 2.2208 13.4902 18.3134 19.3008
543 1 -1.1104 9.42496 16.755 20.5928
8663 2 2.2208 5.42102 -4.21792 16.4621
353 1 -1.1104 1.18208 2.88344 20.6054
605 2 2.2208 10.823 15.4625 24.8182
351 1 -1.1104 1.14964 -2.63935 20.6205
641 2 2.2208 -0.555147 9.80186 24.9709
548 2 2.2208 5.32153 1.38088 22.038
549 1 -1.1104 1.16487 -2.77275 23.4708
550 1 -1.1104 1.20014 2.84978 23.3668
553 1 -1.1104 1.00855 -2.71962 26.2469
554 1 -1.1104 1.08206 2.74153 26.0872
557 1 -1.1104 1.12866 -0.00124871 23.6421
559 2 2.2208 5.33803 -1.41125 24.9732
560 2 2.2208 5.31354 4.16947 24.7915
561 1 -1.1104 1.16023 0.0849574 26.2419
563 1 -1.1104 4.02511 -2.7238 23.4997
564 1 -1.1104 3.94779 2.95932 23.3943
565 2 2.2208 2.64962 1.50764 24.7901
566 1 -1.1104 3.92201 -2.78947 26.3742
567 1 -1.1104 4.01402 2.8106 26.3119
568 2 2.2208 2.56919 -1.30424 22.0618
569 2 2.2208 2.51859 4.30654 22.0568
570 1 -1.1104 3.8454 0.145211 23.3511
571 1 -1.1104 3.95907 -0.0440815 26.2173
558 1 -1.1104 6.63312 -0.0913429 23.4001
551 1 -1.1104 6.61755 -2.88177 23.3934
606 1 -1.1104 9.3735 19.6764 26.3571
365 1 -1.1104 6.73297 -0.121185 20.5832
316 2 2.2208 8.2294 15.523 27.6791
411 1 -1.1104 9.50457 -0.0255435 20.6688
392 1 -1.1104 12.4198 -3.06288 20.6247
404 1 -1.1104 9.53627 -2.75166 20.6525
556 1 -1.1104 6.83314 2.82421 26.2389
562 1 -1.1104 6.60354 0.165072 26.2177
555 1 -1.1104 6.68447 -2.63975 26.3603
334 2 2.2208 11.013 1.34783 27.6933
576 1 -1.1104 12.2519 19.6812 23.4305
552 1 -1.1104 6.81457 2.7034 23.4053
9166 2 2.2208 13.6857 1.20774 24.9434
584 2 2.2208 10.9284 1.40949 22.0649
585 1 -1.1104 12.2579 -2.87919 23.3589
586 1 -1.1104 12.3115 2.71473 23.5326
587 1 -1.1104 12.2614 -2.82683 26.1533
588 1 -1.1104 12.4555 2.68539 26.1931
589 1 -1.1104 12.3853 -0.263752 23.4025
590 2 2.2208 10.8585 -1.45328 24.8334
592 1 -1.1104 12.355 0.00917412 26.2879
593 1 -1.1104 9.33989 -2.8418 23.3479
594 1 -1.1104 9.59916 2.70998 23.6049
595 2 2.2208 8.08143 1.30321 24.9082
596 1 -1.1104 9.4615 -2.82961 26.272
597 1 -1.1104 9.73881 2.70066 26.3965
598 2 2.2208 8.15424 -1.46035 21.9809
600 1 -1.1104 9.5476 0.00351508 23.4133
601 1 -1.1104 9.4221 -0.0242352 26.3071
591 2 2.2208 10.956 4.18019 24.8134
599 2 2.2208 8.17695 4.24594 22.111
9089 2 2.2208 13.7508 18.1741 13.6629
611 1 -1.1104 12.2918 16.9217 26.3725
344 2 2.2208 13.5976 9.7714 27.7573
437 1 -1.1104 0.885045 11.1892 20.8336
339 2 2.2208 5.15581 12.5111 27.7682
9273 2 2.2208 13.6645 20.9803 16.4509
613 2 2.2208 5.46398 7.05422 22.1155
614 2 2.2208 5.16948 12.5139 22.0547
615 1 -1.1104 1.06146 8.46215 23.5125
617 1 -1.1104 0.946621 8.33259 26.1917
619 1 -1.1104 1.12413 5.76726 23.3952
620 1 -1.1104 1.12747 11.1785 23.4564
623 2 2.2208 5.18696 9.83731 24.8946
624 1 -1.1104 1.0611 5.59691 26.2107
625 1 -1.1104 0.879837 11.1419 26.3588
628 1 -1.1104 3.72627 8.41647 23.4553
629 2 2.2208 2.35458 7.11105 24.9014
630 2 2.2208 2.29658 12.6164 24.9551
631 1 -1.1104 3.79254 8.31636 26.4245
632 2 2.2208 2.46751 9.82466 22.0743
633 1 -1.1104 4.11081 5.72143 23.6788
634 1 -1.1104 3.81988 11.2383 23.5417
635 1 -1.1104 4.00168 5.51104 26.2761
636 1 -1.1104 3.7347 11.1915 26.3309
616 1 -1.1104 6.58024 8.49485 23.4362
618 1 -1.1104 6.521 8.48524 26.1845
621 1 -1.1104 6.91559 5.63305 23.4362
626 1 -1.1104 6.70691 5.49807 26.3466
622 1 -1.1104 6.66836 11.2236 23.5838
627 1 -1.1104 6.5745 11.256 26.403
428 1 -1.1104 6.69324 8.31836 20.5582
342 2 2.2208 8.08633 9.83748 27.7598
468 1 -1.1104 12.2664 11.3584 20.8783
343 2 2.2208 10.858 12.6032 27.8718
644 1 -1.1104 9.55749 11.1394 26.2932
645 1 -1.1104 9.41684 5.54433 26.2967
646 1 -1.1104 9.43725 11.1236 23.5613
647 1 -1.1104 9.68456 5.65901 23.5446
648 2 2.2208 8.02309 9.79178 22.0699
649 1 -1.1104 9.533 8.32891 26.3818
650 2 2.2208 8.14412 12.5167 24.8974
651 2 2.2208 8.10933 6.97032 24.9566
652 2 2.2208 10.9216 6.95946 22.0859
653 2 2.2208 10.8292 12.5369 22.1415
654 1 -1.1104 12.2597 8.44274 23.4158
655 1 -1.1104 12.2869 8.3917 26.2265
656 1 -1.1104 12.4251 5.62935 23.3896
657 1 -1.1104 12.2463 11.2665 23.6253
658 2 2.2208 10.9059 9.85241 24.8857
659 1 -1.1104 12.2486 5.41852 26.3164
660 1 -1.1104 12.3405 11.2392 26.3729
661 1 -1.1104 9.3502 8.28889 23.4603
9125 2 2.2208 13.6423 12.6058 24.9528
414 2 2.2208 -0.342611 9.74767 19.3731
490 1 -1.1104 1.06569 14.0734 20.828
504 1 -1.1104 6.73834 16.8538 20.6336
494 1 -1.1104 6.60373 13.9031 20.786
669 1 -1.1104 6.69525 14.1009 26.4229
324 2 2.2208 5.22368 18.2434 27.7263
637 1 -1.1104 6.69747 14.0088 23.5324
667 2 2.2208 13.6827 7.11855 24.9372
544 1 -1.1104 6.46341 16.9285 23.4523
640 1 -1.1104 6.82299 19.7701 23.4463
666 1 -1.1104 6.72985 16.7477 26.1637
670 1 -1.1104 3.86305 13.9797 23.3084
482 2 2.2208 2.47122 15.439 22.1201
517 2 2.2208 2.39073 20.9923 22.0768
518 1 -1.1104 3.84955 16.9905 23.4224
519 1 -1.1104 0.996184 16.8167 23.5913
545 1 -1.1104 3.76656 14.1029 26.225
546 1 -1.1104 3.80534 16.9407 26.3122
572 2 2.2208 2.47449 18.2692 24.9008
574 1 -1.1104 3.82764 19.7024 26.3601
602 2 2.2208 5.2677 18.2211 22.0612
604 1 -1.1104 0.967891 14.1172 23.5106
612 1 -1.1104 0.982241 19.6534 23.5711
638 2 2.2208 5.28353 15.4661 25.0043
639 2 2.2208 5.25259 21.0087 24.8915
662 1 -1.1104 0.909492 13.945 26.4136
663 1 -1.1104 1.05039 16.8738 26.2199
664 1 -1.1104 1.14272 19.637 26.3694
668 1 -1.1104 3.88579 19.5855 23.4956
578 1 -1.1104 6.59096 19.5212 26.2481
381 1 -1.1104 9.26756 16.7851 23.5248
456 2 2.2208 7.99779 18.1894 24.8486
583 1 -1.1104 12.1103 16.8147 23.4879
412 2 2.2208 10.7633 18.2711 22.0575
579 1 -1.1104 9.57573 14.0357 26.1721
9173 2 2.2208 13.5326 18.2353 24.8322
581 1 -1.1104 12.2019 19.7284 26.22
665 1 -1.1104 9.53335 19.6774 23.3847
9071 2 2.2208 13.6486 20.9848 27.7021
382 1 -1.1104 9.52783 16.8427 26.2599
318 2 2.2208 7.99959 21.0019 27.7437
317 2 2.2208 10.7721 18.2689 27.6479
608 2 2.2208 8.08691 21.2549 22.0968
642 1 -1.1104 9.4249 13.9795 23.4644
9132 2 2.2208 13.7135 1.32339 19.3868
9392 2 2.2208 13.6524 9.96903 22.1819
9198 2 2.2208 -0.280527 1.39011 16.5186
9169 2 2.2208 -0.209036 4.21255 19.3533
573 2 2.2208 2.45422 -1.47267 27.678
332 2 2.2208 5.2698 1.45231 27.7557
8638 2 2.2208 8.07872 -4.28074 13.5502
609 2 2.2208 13.7712 -1.49129 27.6937
603 2 2.2208 8.07916 -1.34572 27.6518
9068 2 2.2208 13.6161 15.4239 27.6432
643 2 2.2208 -0.404211 7.06202 27.6666
338 2 2.2208 2.36188 9.86606 27.7586
325 2 2.2208 2.41526 20.9482 27.7331
385 2 2.2208 5.21444 -1.48332 13.5413
418 2 2.2208 8.10122 1.30092 13.6811
9130 2 2.2208 13.7219 1.24495 13.6908
322 2 2.2208 10.8935 9.75172 13.6373
328 2 2.2208 5.22004 15.4132 13.7255
331 2 2.2208 8.10947 18.1552 13.6588
671 2 2.2208 5.28277 23.8196 5.21867
672 2 2.2208 5.29946 29.3813 5.24532
673 1 -1.1104 0.997351 25.2704 1.01587
674 1 -1.1104 0.979716 25.0736 3.72675
675 1 -1.1104 1.07899 22.4728 1.09961
676 1 -1.1104 1.04481 28.1132 1.03461
677 2 2.2208 5.21986 26.611 2.28124
678 1 -1.1104 1.11667 22.278 3.75541
679 1 -1.1104 0.923479 28.0486 3.8223
680 1 -1.1104 3.90297 25.2784 0.786748
681 2 2.2208 2.51783 23.8468 2.32958
682 2 2.2208 2.47242 29.4989 2.35125
683 1 -1.1104 3.90657 25.2781 3.65848
684 2 2.2208 2.39805 26.6365 5.15172
685 1 -1.1104 3.9741 22.3939 1.03125
686 1 -1.1104 3.93806 28.0781 1.03304
687 1 -1.1104 3.83505 22.4824 3.82893
688 1 -1.1104 3.81471 28.0946 3.82121
818 1 -1.1104 3.8426 25.2464 6.63311
695 1 -1.1104 6.7424 28.1215 0.888136
692 1 -1.1104 6.6648 25.2851 0.878716
697 1 -1.1104 6.61947 28.0576 3.67376
819 1 -1.1104 3.87516 22.4985 6.62632
812 1 -1.1104 1.14249 25.1807 6.4228
813 1 -1.1104 6.66421 25.24 6.52689
693 1 -1.1104 6.59583 25.1918 3.72435
815 1 -1.1104 0.9071 27.9699 6.64038
820 1 -1.1104 3.84109 28.02 6.62749
814 1 -1.1104 1.01146 22.3701 6.55322
989 2 2.2208 2.56684 26.7101 -0.462023
9915 2 2.2208 13.5864 40.584 13.8004
694 1 -1.1104 6.71653 22.4763 0.881084
696 1 -1.1104 6.64597 22.3473 3.80022
816 1 -1.1104 6.61632 22.4368 6.62563
817 1 -1.1104 6.70992 28.0494 6.69191
698 2 2.2208 10.9696 23.7998 5.35029
699 2 2.2208 10.7838 29.4204 5.12174
700 1 -1.1104 12.3713 25.2308 0.965791
701 1 -1.1104 12.3158 25.2023 3.90439
702 1 -1.1104 12.2002 22.4217 1.10467
703 1 -1.1104 12.3039 28.0499 1.12961
704 2 2.2208 10.9209 26.6219 2.48007
705 1 -1.1104 12.2028 22.3711 3.81021
706 1 -1.1104 12.2533 27.9876 3.92602
707 1 -1.1104 9.39924 25.3243 1.01311
708 2 2.2208 8.09329 23.9554 2.41691
709 2 2.2208 7.95523 29.4925 2.35049
710 1 -1.1104 9.59822 25.2735 3.931
711 2 2.2208 8.03105 26.6383 5.17544
712 1 -1.1104 9.38863 22.585 1.04372
713 1 -1.1104 9.43971 28.1586 1.09909
714 1 -1.1104 9.51504 22.5279 3.82059
715 1 -1.1104 9.40381 28.0012 3.79767
849 1 -1.1104 9.55501 22.3678 6.53357
850 1 -1.1104 9.34291 27.981 6.64672
9744 2 2.2208 13.5767 29.4525 2.5123
718 2 2.2208 13.6712 26.6468 5.22859
1578 1 -1.1104 12.2378 47.4088 12.3629
848 1 -1.1104 9.44862 25.2651 6.58597
846 1 -1.1104 12.2996 22.4634 6.79391
845 1 -1.1104 12.3484 25.2428 6.76567
719 2 2.2208 5.17971 34.9372 5.15264
720 1 -1.1104 1.21821 30.8043 1.02255
721 1 -1.1104 0.958156 36.4837 0.899176
723 1 -1.1104 1.17795 30.7784 3.81116
724 1 -1.1104 1.0067 36.3377 3.75802
726 1 -1.1104 1.08005 33.8241 0.899781
727 2 2.2208 5.13841 32.2158 2.40075
728 2 2.2208 5.20139 37.7868 2.47876
729 1 -1.1104 1.00846 33.556 3.9057
731 1 -1.1104 3.81684 30.8836 0.85499
732 1 -1.1104 3.84449 36.5262 1.07195
733 2 2.2208 2.31429 35.1171 2.32183
734 1 -1.1104 3.84342 30.8154 3.65299
735 1 -1.1104 3.70454 36.3669 3.87674
736 2 2.2208 2.46936 32.1349 5.15138
737 2 2.2208 2.43758 37.8476 5.31372
738 1 -1.1104 3.80641 33.6037 0.907136
739 1 -1.1104 3.82859 33.7043 3.74405
730 1 -1.1104 6.66555 33.6435 3.73511
873 1 -1.1104 0.96268 33.6217 6.63853
745 1 -1.1104 6.53416 33.6019 0.903995
725 1 -1.1104 6.55067 36.3838 3.73583
877 1 -1.1104 3.9476 33.6019 6.46429
875 1 -1.1104 3.96933 30.8415 6.53213
722 1 -1.1104 6.5636 36.3983 1.08162
874 1 -1.1104 6.77155 33.5521 6.67375
870 1 -1.1104 0.96048 36.4028 6.75419
869 1 -1.1104 1.23731 30.8189 6.39524
744 1 -1.1104 6.69333 30.8337 3.70614
871 1 -1.1104 6.59723 30.7184 6.42251
716 2 2.2208 10.7667 40.59 10.8952
876 1 -1.1104 3.73677 36.3897 6.66981
9745 2 2.2208 13.7019 35.0127 2.3153
743 1 -1.1104 6.63089 30.8348 0.973704
746 2 2.2208 10.831 35.1877 5.22158
747 1 -1.1104 12.0932 30.8796 0.916604
748 1 -1.1104 12.3716 36.3801 0.857491
749 1 -1.1104 12.1854 30.9288 3.60375
750 1 -1.1104 12.2338 36.6086 3.8827
751 1 -1.1104 12.3371 33.6764 0.950366
752 2 2.2208 10.8108 32.3003 2.33427
753 2 2.2208 10.8517 37.7832 2.37619
754 1 -1.1104 12.2806 33.7649 3.67369
755 1 -1.1104 9.40738 30.9196 1.03518
756 1 -1.1104 9.56623 36.4435 0.840228