ITEM: TIMESTEP
10000
ITEM: NUMBER OF ATOMS
17820
ITEM: BOX BOUNDS pp pp pp
-3.5455694366644691e-01 2.7694556943666299e+01
-4.1772333182569010e+00 3.3225723331825657e+02
-3.5603090266360216e-01 2.7696030902663782e+01
ITEM: ATOMS id type q x y z
1 2 2.2208 5.10325 1.48743 5.26515
2 1 -1.1104 0.887982 -2.79854 1.18888
3 1 -1.1104 0.939203 2.89246 1.07387
6 1 -1.1104 1.05925 -2.89167 3.88319
7 1 -1.1104 0.924699 2.81443 3.75466
10 1 -1.1104 1.02712 0.0860275 1.05446
12 2 2.2208 5.21756 -1.31475 2.30779
13 2 2.2208 5.3663 4.28262 2.33636
14 1 -1.1104 0.912424 -0.140422 3.86111
16 1 -1.1104 3.81212 -2.79266 0.896532
17 1 -1.1104 3.8944 2.81982 1.09969
18 2 2.2208 2.39213 1.40033 2.46394
19 1 -1.1104 3.87349 -2.58572 3.86103
20 1 -1.1104 3.74881 2.84695 3.80568
21 2 2.2208 2.28836 -1.34761 5.26595
22 2 2.2208 2.2716 4.21557 5.21311
23 1 -1.1104 3.77919 -0.00712529 0.983727
24 1 -1.1104 3.78974 0.054815 3.69504
5 1 -1.1104 6.64034 2.90454 0.985048
11 1 -1.1104 6.51025 -0.033323 1.04719
15 1 -1.1104 6.57683 0.0290483 3.90434
9 1 -1.1104 6.61696 2.81258 3.66676
4 1 -1.1104 6.57917 -2.89075 1.0451
8 1 -1.1104 6.47586 -2.73021 3.84655
8798 2 2.2208 13.6836 18.2595 2.40356
167 1 -1.1104 0.969417 2.94606 6.60081
173 1 -1.1104 3.61473 2.9283 6.59668
174 1 -1.1104 3.5801 0.17179 6.50755
31 2 2.2208 10.6887 1.48751 5.38485
32 1 -1.1104 12.1798 -2.77552 1.07433
33 1 -1.1104 12.1906 2.76187 0.908515
34 1 -1.1104 12.2469 -2.98056 3.90663
35 1 -1.1104 12.1563 2.76242 3.79513
36 1 -1.1104 12.0568 0.0622687 0.944539
37 2 2.2208 10.7662 -1.39596 2.35749
38 2 2.2208 10.7698 4.17656 2.4494
39 1 -1.1104 12.2144 -0.0197335 3.826
40 1 -1.1104 9.27493 -2.66671 1.13335
41 1 -1.1104 9.33261 2.85617 1.02298
42 2 2.2208 8.03819 1.41509 2.4259
43 1 -1.1104 9.45226 -2.8049 3.92903
44 1 -1.1104 9.37429 2.63701 3.81526
45 2 2.2208 7.91637 -1.39236 5.11982
46 2 2.2208 7.9609 4.30277 5.27532
47 1 -1.1104 9.30122 0.0843354 0.886418
48 1 -1.1104 9.38541 0.0249374 3.81977
50 2 2.2208 13.5656 -1.40623 5.25559
8361 2 2.2208 10.6323 -4.19328 -0.31279
203 2 2.2208 7.94948 18.2666 8.06264
49 2 2.2208 13.5907 1.43357 2.42817
209 1 -1.1104 9.21023 2.82723 6.7595
205 1 -1.1104 12.0388 -2.65644 6.78364
207 1 -1.1104 12.1443 0.129947 6.63719
52 2 2.2208 13.4476 4.28608 5.1705
105 2 2.2208 13.629 7.08152 2.30085
30 2 2.2208 13.4927 4.12018 10.6985
54 2 2.2208 5.14791 6.99598 5.13705
55 2 2.2208 5.23357 12.5644 5.16584
56 1 -1.1104 0.992192 8.39448 0.917703
58 1 -1.1104 0.850866 8.42527 3.82368
60 1 -1.1104 1.03174 5.54802 0.969789
61 1 -1.1104 1.02789 11.2416 0.961866
66 2 2.2208 5.19867 9.80656 2.30048
67 1 -1.1104 0.914871 5.6535 3.89527
68 1 -1.1104 1.05446 11.2639 3.56165
71 1 -1.1104 3.74142 8.43722 1.02596
72 2 2.2208 2.43001 7.02265 2.47101
73 2 2.2208 2.54697 12.5763 2.26538
74 1 -1.1104 3.72974 8.49924 3.69125
75 2 2.2208 2.4525 9.85507 5.08941
76 1 -1.1104 3.88279 5.57377 0.959786
77 1 -1.1104 3.7383 11.1446 0.884938
79 1 -1.1104 3.96681 5.69445 3.67962
80 1 -1.1104 3.86944 11.1014 3.70713
70 1 -1.1104 6.66227 11.0516 3.76808
59 1 -1.1104 6.6213 8.32407 3.8135
57 1 -1.1104 6.54229 8.53222 0.915546
64 1 -1.1104 6.56182 11.4429 0.949696
238 1 -1.1104 3.74812 8.34968 6.48564
235 1 -1.1104 6.54805 8.40268 6.58602
62 1 -1.1104 1.03491 11.222 6.44618
234 1 -1.1104 1.01825 8.30068 6.61696
236 1 -1.1104 0.703182 5.65099 6.66922
143 1 -1.1104 12.0397 13.9549 6.61907
229 2 2.2208 13.6139 1.38022 8.16048
154 1 -1.1104 9.23908 14.0517 6.561
69 1 -1.1104 6.75161 5.66645 3.75403
63 1 -1.1104 6.66286 5.68676 0.905374
84 2 2.2208 10.6474 7.20922 5.22272
85 2 2.2208 10.783 12.7328 5.09323
86 1 -1.1104 12.0911 8.45081 0.978408
87 1 -1.1104 12.0633 8.33048 3.80338
88 1 -1.1104 12.0654 5.64816 0.925867
89 1 -1.1104 12.3307 11.2734 1.08818
91 2 2.2208 10.8213 9.84082 2.35304
92 1 -1.1104 12.0866 5.75647 3.74673
93 1 -1.1104 12.227 11.107 3.79457
94 1 -1.1104 9.26582 8.31894 0.964438
95 2 2.2208 8.03722 7.056 2.33907
96 2 2.2208 7.95234 12.6213 2.39161
97 1 -1.1104 9.39144 8.51821 3.72578
98 2 2.2208 8.0201 9.78018 5.16283
99 1 -1.1104 9.37062 5.52803 1.08664
100 1 -1.1104 9.46378 11.14 0.940289
102 1 -1.1104 9.34637 5.53165 3.81377
103 1 -1.1104 9.46359 11.3525 3.64948
29 2 2.2208 13.366 9.82919 10.789
8966 2 2.2208 13.5515 12.6904 2.4555
90 1 -1.1104 12.1008 11.1956 6.65555
204 1 -1.1104 9.43821 13.9559 9.41372
101 1 -1.1104 9.29001 11.3201 6.48207
266 1 -1.1104 12.0561 5.69086 6.53192
104 1 -1.1104 12.1254 13.884 12.1763
8346 2 2.2208 2.40633 -4.05642 2.45586
106 2 2.2208 5.03344 18.3717 5.08738
107 1 -1.1104 0.98633 14.003 0.992123
109 1 -1.1104 0.933224 19.5097 0.94185
113 1 -1.1104 1.10994 13.9848 3.73598
114 1 -1.1104 1.04571 19.5498 3.70834
116 1 -1.1104 0.891725 16.7183 0.891293
119 2 2.2208 5.2692 15.4196 2.29738
120 2 2.2208 5.28078 21.1556 2.36281
121 1 -1.1104 1.04164 16.7635 3.76322
123 1 -1.1104 3.78942 14.058 0.878764
125 1 -1.1104 3.80976 19.6932 0.824288
127 2 2.2208 2.3232 18.2196 2.32921
128 1 -1.1104 3.76055 13.9722 3.69505
129 1 -1.1104 3.71963 19.8048 3.60333
130 2 2.2208 2.47073 15.3482 5.19378
131 2 2.2208 2.36937 20.998 5.22151
132 1 -1.1104 3.78891 16.8833 0.975092
134 1 -1.1104 3.79526 16.89 3.59765
115 1 -1.1104 6.63971 14.0946 3.75192
138 1 -1.1104 6.639 19.6536 1.02239
139 1 -1.1104 6.55538 19.7189 3.74814
302 1 -1.1104 0.990683 19.6667 6.54632
140 1 -1.1104 6.64806 16.9414 0.976526
110 1 -1.1104 6.58461 14.0473 0.979194
126 1 -1.1104 3.70498 19.5627 6.50294
122 1 -1.1104 6.70137 16.9653 3.80282
108 1 -1.1104 0.981548 14.1353 6.52338
124 1 -1.1104 3.84069 13.956 6.46342
112 1 -1.1104 6.28233 19.7994 6.52235
202 1 -1.1104 9.3484 19.6247 12.2844
328 2 2.2208 5.10392 15.4199 13.648
141 2 2.2208 10.81 18.2622 5.20602
142 1 -1.1104 12.1957 14.0599 0.944008
144 1 -1.1104 12.0057 19.8555 0.832333
146 1 -1.1104 12.219 13.9231 3.78333
147 1 -1.1104 12.0708 19.5453 3.65989
148 1 -1.1104 12.3335 16.8872 0.993337
150 2 2.2208 10.7878 15.4782 2.22852
151 2 2.2208 10.787 20.9967 2.45265
152 1 -1.1104 12.2777 16.8286 3.78891
153 1 -1.1104 9.35873 13.9418 0.858565
155 1 -1.1104 9.3 19.6585 0.968437
157 2 2.2208 7.96078 18.2922 2.33543
158 1 -1.1104 9.44767 14.2545 3.77936
159 1 -1.1104 9.34103 19.8466 3.73876
160 2 2.2208 8.00049 15.5802 5.1327
161 2 2.2208 7.94092 21.1687 5.24353
162 1 -1.1104 9.3277 16.7712 0.94818
164 1 -1.1104 9.5913 16.8712 3.70752
8847 2 2.2208 13.5866 21.0508 5.34616
163 1 -1.1104 9.42613 16.9447 6.5566
111 1 -1.1104 6.6123 14.1274 6.4295
149 1 -1.1104 12.312 16.7144 6.68593
314 1 -1.1104 9.30968 16.8152 9.39851
232 2 2.2208 7.96938 15.3555 10.7987
169 1 -1.1104 6.44698 2.88266 6.5269
170 1 -1.1104 0.839344 0.105428 6.60069
166 1 -1.1104 0.817698 -2.56785 6.6619
171 1 -1.1104 6.49331 0.135487 6.71888
172 1 -1.1104 3.70717 -2.57232 6.79999
175 2 2.2208 5.02373 1.45217 10.8625
176 1 -1.1104 0.821265 -2.57827 12.2111
177 1 -1.1104 0.8648 3.01868 12.1985
180 1 -1.1104 0.768261 -2.84816 9.52079
181 1 -1.1104 0.980729 2.80073 9.45514
184 1 -1.1104 0.811577 0.195338 12.1651
186 2 2.2208 5.02205 -1.20469 8.01439
187 2 2.2208 5.03659 4.1814 7.97363
188 1 -1.1104 0.956788 0.0558085 9.43951
190 1 -1.1104 3.70059 -2.743 12.2804
191 1 -1.1104 3.74968 2.88541 12.1883
192 2 2.2208 2.28341 1.51524 7.89935
193 1 -1.1104 3.51067 -2.7183 9.58687
194 1 -1.1104 3.81761 2.77587 9.35671
195 2 2.2208 2.27161 -1.26336 10.8595
196 2 2.2208 2.32139 4.08964 10.787
197 1 -1.1104 3.56338 0.152448 12.2149
198 1 -1.1104 3.75866 0.135585 9.30188
168 1 -1.1104 6.61348 -2.69242 6.66331
179 1 -1.1104 6.51961 2.86961 12.305
185 1 -1.1104 6.45161 -0.0272686 12.2471
182 1 -1.1104 6.42361 -2.98872 9.42285
178 1 -1.1104 6.55866 -2.74271 12.3338
183 1 -1.1104 6.57414 2.82448 9.19562
315 1 -1.1104 9.48609 16.9957 12.2111
9070 2 2.2208 13.3836 6.9194 13.5756
206 1 -1.1104 12.1045 2.92987 6.68312
311 2 2.2208 10.6409 20.9754 8.02272
189 1 -1.1104 6.54955 -0.0890099 9.6396
208 1 -1.1104 9.27853 -2.8389 6.63072
210 1 -1.1104 9.28233 0.078658 6.60417
9032 2 2.2208 13.4821 20.8737 10.8509
8797 2 2.2208 13.5202 -1.29281 10.8886
211 2 2.2208 10.6738 1.41687 10.8487
212 1 -1.1104 12.0852 -2.80572 12.3647
213 1 -1.1104 12.0656 2.84835 12.0974
214 1 -1.1104 12.1771 -2.8981 9.58798
215 1 -1.1104 12.1099 2.57959 9.45337
216 1 -1.1104 12.0645 0.0208377 12.3958
217 2 2.2208 10.5946 -1.38085 8.03207
218 2 2.2208 10.6439 4.2068 7.99879
219 1 -1.1104 12.0041 -0.00899532 9.51469
220 1 -1.1104 9.33414 -2.78731 12.236
221 1 -1.1104 9.24198 2.83456 12.309
222 2 2.2208 7.82947 1.40383 8.09486
223 1 -1.1104 9.43158 -2.84357 9.38512
224 1 -1.1104 9.36413 2.74808 9.45555
225 2 2.2208 7.95731 -1.49901 10.9164
226 2 2.2208 7.90024 4.10784 10.8307
227 1 -1.1104 9.35079 0.0662686 12.123
228 1 -1.1104 9.33669 -0.0874147 9.39479
8982 2 2.2208 13.4979 12.6147 7.99032
51 2 2.2208 13.5923 9.89624 5.20873
78 1 -1.1104 3.87211 11.0479 6.45089
65 1 -1.1104 6.62697 11.09 6.44984
239 1 -1.1104 3.61328 5.56908 6.55891
240 2 2.2208 5.01577 6.96175 10.7591
241 2 2.2208 5.05052 12.4382 10.7859
242 1 -1.1104 0.973889 8.39513 12.2933
244 1 -1.1104 0.939327 8.42526 9.55025
246 1 -1.1104 0.85305 5.68378 12.2252
247 1 -1.1104 1.08568 11.1936 12.2335
250 2 2.2208 5.19962 9.71193 8.05026
251 1 -1.1104 0.980352 5.68665 9.36583
252 1 -1.1104 0.92691 11.2224 9.30937
255 1 -1.1104 3.86228 8.3363 12.3485
256 2 2.2208 2.41793 7.06789 8.03466
257 2 2.2208 2.30573 12.5591 7.97509
258 1 -1.1104 3.78609 8.3594 9.46752
259 2 2.2208 2.43966 9.80245 10.8867
260 1 -1.1104 3.79793 5.51341 12.2598
261 1 -1.1104 3.80946 11.1095 12.231
262 1 -1.1104 3.71085 5.53142 9.35157
263 1 -1.1104 3.65246 11.1001 9.36933
254 1 -1.1104 6.53854 11.1456 9.2915
249 1 -1.1104 6.48776 11.2843 12.1574
245 1 -1.1104 6.46101 8.27249 9.48575
243 1 -1.1104 6.51322 8.36586 12.1906
253 1 -1.1104 6.51204 5.59427 9.36698
237 1 -1.1104 6.39658 5.6589 6.55027
135 1 -1.1104 12.1855 19.5054 12.2639
267 1 -1.1104 9.23146 8.54669 6.63758
483 2 2.2208 7.92362 12.6152 13.6108
248 1 -1.1104 6.52264 5.61736 12.1004
8981 2 2.2208 13.4858 6.99657 7.98617
269 1 -1.1104 9.36973 5.78625 6.55638
265 1 -1.1104 12.0353 8.43948 6.66587
264 1 -1.1104 9.36119 11.1346 9.40285
268 1 -1.1104 9.40422 5.64064 9.23688
270 1 -1.1104 9.24314 11.1287 12.3429
271 1 -1.1104 9.3057 5.60128 12.1583
272 2 2.2208 7.97955 9.73302 10.8289
273 1 -1.1104 9.28426 8.38866 9.4272
274 2 2.2208 7.97943 12.5532 7.94066
275 2 2.2208 7.80632 7.09175 8.06525
276 2 2.2208 10.6461 6.89487 10.8575
277 2 2.2208 10.6777 12.4651 10.8772
278 1 -1.1104 12.1032 8.42628 12.3953
279 1 -1.1104 12.0095 8.33974 9.52808
280 1 -1.1104 12.0068 5.54905 12.2516
281 1 -1.1104 12.1113 11.1147 12.0959
282 2 2.2208 10.7515 9.83246 7.92242
283 1 -1.1104 12.2145 5.61146 9.35792
284 1 -1.1104 12.0887 11.1629 9.34842
285 1 -1.1104 9.1843 8.47593 12.2148
8351 2 2.2208 13.621 -4.13865 2.52225
8357 2 2.2208 13.4707 -4.11902 8.09996
290 1 -1.1104 6.68559 13.9515 9.36068
133 1 -1.1104 4.02539 16.7791 6.42779
117 1 -1.1104 1.21886 16.7693 6.73944
118 1 -1.1104 6.7725 16.8412 6.6249
9065 2 2.2208 13.572 15.377 10.8889
286 1 -1.1104 3.7755 19.4965 12.0462
287 1 -1.1104 3.73232 13.9635 12.0036
291 1 -1.1104 0.964918 19.5325 9.35625
292 1 -1.1104 0.894095 16.6587 9.48494
293 2 2.2208 5.03646 21.0039 7.9831
294 1 -1.1104 0.972138 13.8229 9.44404
295 2 2.2208 5.30019 15.4224 7.94151
298 1 -1.1104 0.858861 19.6228 12.2276
299 1 -1.1104 1.05566 14.0383 12.3776
300 2 2.2208 5.1683 18.0102 10.7415
301 1 -1.1104 3.70438 19.5254 9.42961
303 2 2.2208 2.42896 18.204 8.05602
304 1 -1.1104 3.69844 16.7142 9.384
305 1 -1.1104 3.80919 13.9797 9.26192
307 1 -1.1104 0.990793 16.7886 12.3153
308 1 -1.1104 3.62189 16.8318 12.2291
309 2 2.2208 2.31917 20.9721 10.7658
310 2 2.2208 2.2665 15.3681 10.8042
289 1 -1.1104 6.56033 16.8673 9.34189
297 1 -1.1104 6.54883 13.8919 12.2156
296 1 -1.1104 6.53171 19.4492 12.0746
288 1 -1.1104 6.50727 19.6298 9.28573
306 1 -1.1104 6.78086 16.7692 12.3484
420 2 2.2208 10.6493 3.97376 13.6197
330 2 2.2208 10.7314 15.4255 13.642
327 2 2.2208 5.18536 20.8985 13.5417
137 1 -1.1104 12.1847 19.5104 9.44412
165 1 -1.1104 12.2256 16.7694 12.3326
136 1 -1.1104 12.1674 13.9004 9.49724
233 2 2.2208 7.96551 20.9419 10.7464
156 1 -1.1104 9.14115 19.6311 6.49813
145 1 -1.1104 12.141 19.4669 6.63345
231 1 -1.1104 9.27038 19.5281 9.49566
230 2 2.2208 10.8091 15.3481 8.00551
312 1 -1.1104 12.2153 16.676 9.42691
53 1 -1.1104 9.38068 14.1844 12.2004
331 2 2.2208 8.0004 18.2558 13.5315
83 2 2.2208 10.9367 18.1048 10.8239
332 2 2.2208 5.19417 1.43351 -0.327094
8352 2 2.2208 2.23823 -4.08151 8.15011
326 2 2.2208 2.26048 18.1886 13.5876
8347 2 2.2208 5.11828 -4.11248 5.29289
9130 2 2.2208 13.4587 1.40002 13.5936
385 2 2.2208 5.14455 -1.4712 13.6432
334 2 2.2208 10.7255 1.53475 -0.320163
9071 2 2.2208 13.5738 21.0958 -0.303656
333 2 2.2208 2.34224 4.13317 -0.290528
481 2 2.2208 7.8532 6.98688 13.5848
323 2 2.2208 2.33026 15.5163 -0.37727
386 2 2.2208 2.09067 1.58308 13.5588
319 2 2.2208 5.20709 9.71679 13.5966
9073 2 2.2208 13.5115 12.5708 13.629
345 2 2.2208 5.06153 1.35851 16.4189
346 1 -1.1104 0.928557 -2.71263 17.7528
347 1 -1.1104 0.717237 2.81538 17.7802
350 1 -1.1104 0.823656 -2.62987 14.9999
352 1 -1.1104 0.744155 2.73794 14.9655
358 1 -1.1104 0.973724 0.03718 17.8138
360 2 2.2208 4.93583 -1.42451 19.1784
361 2 2.2208 5.15345 4.07081 19.3253
362 1 -1.1104 0.943226 -0.0638465 14.9104
366 1 -1.1104 3.6173 -2.72489 17.6642
367 1 -1.1104 3.5904 2.92439 18.0437
368 2 2.2208 2.31968 1.42612 19.3201
369 1 -1.1104 3.67013 -2.72672 14.9345
371 1 -1.1104 3.57714 2.73932 15.1763
373 2 2.2208 2.39619 -1.32369 16.3556
374 2 2.2208 2.27514 4.14158 16.5639
375 1 -1.1104 3.68693 -0.0742947 17.834
376 1 -1.1104 3.81319 -0.0141298 14.8657
348 1 -1.1104 6.66784 -3.0288 17.8207
364 1 -1.1104 6.61856 0.0513635 15.2258
363 1 -1.1104 0.687366 -0.0394757 20.6688
359 1 -1.1104 6.41238 -0.146818 17.8639
354 1 -1.1104 6.52953 -2.85178 14.9599
356 1 -1.1104 6.49486 2.76952 15.0814
370 1 -1.1104 3.53662 -2.85775 20.5293
353 1 -1.1104 0.857606 2.75211 20.5115
351 1 -1.1104 0.837909 -2.72312 20.6479
341 2 2.2208 10.7316 6.98938 27.6458
349 1 -1.1104 6.44312 2.75254 17.7851
416 2 2.2208 13.6501 -1.32219 16.5631
388 2 2.2208 10.576 1.35547 16.5844
389 1 -1.1104 11.9326 -3.02493 17.9291
390 1 -1.1104 12.0552 2.68649 17.8059
391 1 -1.1104 12.1405 -2.91789 15.1507
393 1 -1.1104 11.9778 2.62196 15.0211
395 1 -1.1104 12.0552 -0.0706505 17.9013
396 2 2.2208 10.7036 -1.40923 19.2584
397 2 2.2208 10.6813 4.20793 19.3397
398 1 -1.1104 12.2428 -0.0673488 15.2388
400 1 -1.1104 9.31817 -2.87598 17.7274
401 1 -1.1104 9.19187 2.78699 17.9479
402 2 2.2208 7.89718 1.32906 19.2898
403 1 -1.1104 9.36585 -2.87091 15.0229
405 1 -1.1104 9.2 2.64318 15.1978
407 2 2.2208 7.96104 -1.45003 16.3797
408 2 2.2208 7.88666 4.25156 16.4706
409 1 -1.1104 9.22494 -0.0906017 17.9031
410 1 -1.1104 9.4064 -0.0689182 14.9291
9132 2 2.2208 13.5064 1.34505 19.3672
394 1 -1.1104 12.0866 2.87799 20.71
9270 2 2.2208 13.4994 15.4479 16.5375
406 1 -1.1104 9.45988 2.8681 20.6539
9126 2 2.2208 13.4309 4.08227 16.4009
9313 2 2.2208 -0.327253 18.173 16.3557
342 2 2.2208 7.97767 9.98199 27.5906
421 2 2.2208 5.18683 7.09948 16.4952
422 2 2.2208 5.02342 12.5407 16.3519
423 1 -1.1104 0.757245 8.35888 17.9783
425 1 -1.1104 0.923259 8.40164 15.1402
429 1 -1.1104 0.935293 5.52292 17.9104
430 1 -1.1104 0.99144 11.2397 17.8204
433 2 2.2208 5.19485 9.79171 19.2392
434 1 -1.1104 0.956495 5.57405 15.1912
436 1 -1.1104 0.863043 11.2012 15.0814
442 1 -1.1104 3.71176 8.39938 17.8232
443 2 2.2208 2.24303 6.93086 19.2756
444 2 2.2208 2.25375 12.5782 19.2464
445 1 -1.1104 3.75382 8.35355 15.0473
447 2 2.2208 2.3112 9.81992 16.5057
448 1 -1.1104 3.62886 5.6074 17.8
449 1 -1.1104 3.72383 11.0879 17.8749
450 1 -1.1104 3.82896 5.49498 15.1038
452 1 -1.1104 3.65195 11.2174 15.0002
432 1 -1.1104 6.63827 11.0741 17.8701
427 1 -1.1104 6.63345 8.41961 14.97
424 1 -1.1104 6.53914 8.29686 17.8672
438 1 -1.1104 6.52704 5.67408 14.9278
446 1 -1.1104 3.47618 8.39833 20.5889
440 1 -1.1104 6.3567 10.9827 15.1276
437 1 -1.1104 0.811978 11.297 20.7279
428 1 -1.1104 6.46971 8.3375 20.6437
435 1 -1.1104 0.818103 5.49642 20.7625
382 1 -1.1104 9.36202 16.9432 26.194
17734 2 2.2208 13.5409 -4.1868 24.9326
343 2 2.2208 10.8461 12.6663 27.6619
417 2 2.2208 13.4951 12.6562 19.241
431 1 -1.1104 6.45752 5.48168 17.9012
9200 2 2.2208 13.5163 9.74675 16.4218
457 2 2.2208 10.7745 6.8719 16.5112
458 2 2.2208 10.7249 12.6054 16.3984
459 1 -1.1104 12.1436 8.30702 18.0282
460 1 -1.1104 12.1435 8.30606 15.1648
462 1 -1.1104 12.0964 5.48638 17.9226
463 1 -1.1104 12.2433 11.12 17.8074
464 2 2.2208 10.8205 9.84974 19.2614
465 1 -1.1104 12.0603 5.49433 15.0704
467 1 -1.1104 12.0032 11.154 14.8409
469 1 -1.1104 9.50163 8.29968 17.9083
470 2 2.2208 7.84197 7.02008 19.3729
471 2 2.2208 7.95378 12.6223 19.1602
472 1 -1.1104 9.31088 8.18441 15.0253
474 2 2.2208 7.98471 9.6407 16.5766
475 1 -1.1104 9.34147 5.51308 17.9505
476 1 -1.1104 9.5886 11.1391 17.7949
477 1 -1.1104 9.26444 5.41149 15.129
479 1 -1.1104 9.22845 11.104 15.1343
575 2 2.2208 13.647 6.8871 19.1929
466 1 -1.1104 12.0571 5.70963 20.5533
468 1 -1.1104 12.0648 11.296 20.6499
473 1 -1.1104 9.41793 8.58628 20.6719
9348 2 2.2208 13.6196 21.0282 22.1363
339 2 2.2208 5.08484 12.6406 27.5946
316 2 2.2208 7.97595 15.5051 27.6015
496 1 -1.1104 6.64559 19.6473 20.5486
484 2 2.2208 5.18491 18.1236 16.3538
485 1 -1.1104 0.960812 14.0509 17.8533
486 1 -1.1104 1.01878 19.5739 17.743
489 1 -1.1104 0.913188 13.9758 15.0695
491 1 -1.1104 0.913827 19.5605 14.8601
497 1 -1.1104 0.958811 16.7506 17.8718
499 2 2.2208 5.06385 15.3979 19.1726
500 2 2.2208 5.1121 21.147 19.17
501 1 -1.1104 1.05195 16.837 15.1843
505 1 -1.1104 3.58032 13.8826 17.7403
506 1 -1.1104 3.87522 19.3735 17.8351
507 2 2.2208 2.25413 18.1792 19.2618
508 1 -1.1104 3.70295 14.133 15.0262
510 1 -1.1104 3.68124 19.5089 14.9732
512 2 2.2208 2.30817 15.4279 16.5032
513 2 2.2208 2.36641 21.0007 16.3809
514 1 -1.1104 3.71919 16.7373 17.8627
515 1 -1.1104 3.77099 16.7806 14.9876
493 1 -1.1104 6.57701 13.952 15.0648
487 1 -1.1104 6.55667 14.0302 17.811
488 1 -1.1104 6.61929 19.8206 17.834
511 1 -1.1104 3.7305 19.6387 20.6138
502 1 -1.1104 0.886635 16.7895 20.6008
509 1 -1.1104 3.77342 14.0068 20.5743
492 1 -1.1104 0.845569 19.5383 20.6368
498 1 -1.1104 6.4666 16.8765 17.695
516 1 -1.1104 3.69387 16.878 20.6962
495 1 -1.1104 6.55301 19.5425 15.0248
503 1 -1.1104 6.61726 16.6198 14.9956
504 1 -1.1104 6.47718 16.7878 20.6903
384 2 2.2208 13.6324 18.153 19.2652
524 1 -1.1104 12.1543 13.9077 20.5866
8662 2 2.2208 2.28818 -4.12149 19.1034
583 1 -1.1104 12.2097 16.8659 23.4214
538 1 -1.1104 9.35012 19.5333 20.8637
9273 2 2.2208 13.5469 21.0232 16.485
520 2 2.2208 10.7192 18.1903 16.4727
521 1 -1.1104 12.0185 14.0474 17.8699
522 1 -1.1104 12.1339 19.6706 17.7974
523 1 -1.1104 12.0844 14.0379 14.9829
525 1 -1.1104 12.1033 19.5011 15.0453
527 1 -1.1104 12.0397 16.929 17.8798
528 2 2.2208 10.6805 15.4212 19.2206
529 2 2.2208 10.7158 20.997 19.2541
530 1 -1.1104 12.1827 16.8186 15.1559
532 1 -1.1104 9.29675 14.0367 17.7328
533 1 -1.1104 9.38776 19.6298 17.9032
534 2 2.2208 7.88197 18.2869 19.1266
535 1 -1.1104 9.36981 13.9404 14.9945
537 1 -1.1104 9.37521 19.5751 15.2431
539 2 2.2208 8.00876 15.3972 16.3079
540 2 2.2208 7.88404 20.9201 16.3803
541 1 -1.1104 9.27861 16.8828 17.7659
542 1 -1.1104 9.45563 16.7506 14.9128
526 1 -1.1104 12.3743 19.6845 20.6487
531 1 -1.1104 12.2641 16.861 20.6738
536 1 -1.1104 9.37341 14.0252 20.5418
543 1 -1.1104 9.37016 16.8162 20.3507
372 1 -1.1104 3.68356 2.85137 20.7632
355 1 -1.1104 6.30946 -2.72758 20.6245
377 1 -1.1104 3.60281 -0.0293408 20.5595
357 1 -1.1104 6.52134 2.82331 20.626
548 2 2.2208 4.93791 1.49254 22.0759
549 1 -1.1104 0.948591 -2.97058 23.5268
550 1 -1.1104 0.967567 2.74579 23.393
553 1 -1.1104 0.920386 -2.78102 26.3438
554 1 -1.1104 0.893181 2.75708 26.2551
557 1 -1.1104 0.876897 0.0818118 23.4358
559 2 2.2208 5.09738 -1.38831 24.8479
560 2 2.2208 5.22836 4.0778 24.9696
561 1 -1.1104 0.971883 0.0631334 26.1682
563 1 -1.1104 3.76516 -2.97991 23.4258
564 1 -1.1104 3.915 2.7635 23.5913
565 2 2.2208 2.34308 1.38966 24.8169
566 1 -1.1104 3.5991 -2.95513 26.1314
567 1 -1.1104 3.8216 2.64898 26.2279
568 2 2.2208 2.24396 -1.35439 22.0077
569 2 2.2208 2.32824 4.17883 22.1292
570 1 -1.1104 3.65708 -0.109592 23.4427
571 1 -1.1104 3.66514 0.014052 26.1424
556 1 -1.1104 6.6153 2.87273 26.3497
365 1 -1.1104 6.32663 0.0714694 20.6552
558 1 -1.1104 6.5394 0.00650759 23.5574
555 1 -1.1104 6.37246 -2.80704 26.3679
562 1 -1.1104 6.44719 0.0240062 26.3425
552 1 -1.1104 6.54865 2.8347 23.4513
551 1 -1.1104 6.55669 -2.82852 23.4867
9173 2 2.2208 13.5158 18.264 24.8198
344 2 2.2208 13.4662 9.88854 27.6872
381 1 -1.1104 9.43449 16.8519 23.2368
399 1 -1.1104 12.0166 0.0742151 20.7008
338 2 2.2208 2.35932 9.80009 27.6003
9166 2 2.2208 13.4497 1.46673 24.9187
411 1 -1.1104 9.29129 0.100545 20.803
392 1 -1.1104 11.9168 -2.8812 20.6569
404 1 -1.1104 9.27627 -2.62521 20.6038
9167 2 2.2208 13.5037 -1.4586 22.1073
584 2 2.2208 10.5103 1.44848 22.2209
585 1 -1.1104 12.0915 -2.77178 23.6189
586 1 -1.1104 11.8841 2.84699 23.5437
587 1 -1.1104 12.0647 -2.66736 26.4045
588 1 -1.1104 12.106 2.75324 26.4022
589 1 -1.1104 12.0498 0.126832 23.4003
590 2 2.2208 10.5913 -1.43788 24.96
591 2 2.2208 10.7845 4.3567 24.7932
592 1 -1.1104 11.9592 0.111685 26.0622
593 1 -1.1104 9.24473 -2.84936 23.5361
594 1 -1.1104 9.30004 2.89808 23.5022
595 2 2.2208 7.78165 1.43973 25.0228
596 1 -1.1104 9.30429 -2.90765 26.3125
597 1 -1.1104 9.27542 2.85598 26.2388
598 2 2.2208 7.97084 -1.43041 22.1849
599 2 2.2208 7.9873 4.19046 22.1109
600 1 -1.1104 9.24293 -0.112314 23.634
601 1 -1.1104 9.27973 0.00884474 26.4083
9333 2 2.2208 13.4713 4.40343 22.1099
9125 2 2.2208 13.4824 12.6655 24.8512
580 1 -1.1104 12.0616 14.0754 26.2236
426 1 -1.1104 0.748083 8.43139 20.7068
441 1 -1.1104 6.58407 11.1466 20.5093
453 1 -1.1104 3.7022 11.3011 20.7039
451 1 -1.1104 3.6538 5.53637 20.668
613 2 2.2208 5.02065 7.0621 22.0564
614 2 2.2208 5.15881 12.6846 21.9151
615 1 -1.1104 0.863479 8.20141 23.4279
617 1 -1.1104 0.960529 8.44991 26.2482
619 1 -1.1104 0.782511 5.462 23.4285
620 1 -1.1104 0.991561 11.1755 23.5018
623 2 2.2208 5.0483 9.72306 24.8221
624 1 -1.1104 0.825149 5.54886 26.2854
625 1 -1.1104 0.741374 11.1644 26.2538
628 1 -1.1104 3.6879 8.34034 23.4136
629 2 2.2208 2.21956 6.87892 24.8945
630 2 2.2208 2.40569 12.7011 24.8257
631 1 -1.1104 3.63655 8.36127 26.1725
632 2 2.2208 2.20158 9.80327 22.1049
633 1 -1.1104 3.62896 5.46621 23.5278
634 1 -1.1104 3.68339 11.1028 23.4523
635 1 -1.1104 3.69752 5.44402 26.3775
636 1 -1.1104 3.68091 11.2737 26.1859
439 1 -1.1104 6.40745 5.55952 20.7428
616 1 -1.1104 6.48019 8.40157 23.4371
621 1 -1.1104 6.63046 5.68763 23.4433
627 1 -1.1104 6.59621 11.2327 26.1601
618 1 -1.1104 6.50758 8.4656 26.2294
622 1 -1.1104 6.34327 11.1453 23.3214
667 2 2.2208 13.5615 7.24603 24.909
480 1 -1.1104 9.29612 11.299 20.5724
626 1 -1.1104 6.71129 5.65513 26.1965
9392 2 2.2208 13.497 9.99425 22.0554
317 2 2.2208 10.7447 18.3309 27.6728
478 1 -1.1104 9.12546 5.6949 20.735
461 1 -1.1104 12.1483 8.54 20.7939
644 1 -1.1104 9.35298 11.4446 26.218
645 1 -1.1104 9.46095 5.6957 26.1807
646 1 -1.1104 9.23279 11.3309 23.5617
647 1 -1.1104 9.37467 5.7874 23.2743
648 2 2.2208 7.98385 9.78362 22.036
649 1 -1.1104 9.45987 8.50567 26.3435
650 2 2.2208 7.94214 12.7711 24.7381
651 2 2.2208 7.95408 7.1116 24.7428
652 2 2.2208 10.7495 7.13014 21.9486
653 2 2.2208 10.7031 12.6379 21.956
654 1 -1.1104 12.1303 8.55046 23.6079
655 1 -1.1104 12.0813 8.51892 26.476
656 1 -1.1104 12.0694 5.82941 23.317
657 1 -1.1104 12.0085 11.3417 23.4584
658 2 2.2208 10.6246 9.84835 24.8866
659 1 -1.1104 12.1955 5.7165 26.0803
660 1 -1.1104 12.284 11.2252 26.2567
661 1 -1.1104 9.31152 8.56141 23.443
378 2 2.2208 13.5424 15.3698 22.1408
640 1 -1.1104 6.59239 19.7008 23.4596
490 1 -1.1104 0.891797 14.0645 20.6859
666 1 -1.1104 6.54396 16.7642 26.2135
544 1 -1.1104 6.65483 16.9579 23.4662
669 1 -1.1104 6.47418 13.9755 26.2551
494 1 -1.1104 6.5506 14.0258 20.5642
482 2 2.2208 2.40521 15.3678 22.0232
517 2 2.2208 2.18503 21.0195 22.0942
518 1 -1.1104 3.75538 16.7494 23.4288
519 1 -1.1104 0.830765 16.724 23.3993
545 1 -1.1104 3.61857 14.0384 26.2479
546 1 -1.1104 3.79438 16.822 26.2012
572 2 2.2208 2.37253 18.2057 24.8693
574 1 -1.1104 3.64342 19.7364 26.1255
602 2 2.2208 5.08347 18.3218 22.0422
604 1 -1.1104 0.937679 13.9977 23.4417
612 1 -1.1104 0.925787 19.637 23.4425
638 2 2.2208 5.1981 15.3219 24.868
639 2 2.2208 5.09191 21.2828 24.7862
662 1 -1.1104 0.921605 13.9224 26.23
663 1 -1.1104 1.00486 16.6125 26.1814
664 1 -1.1104 0.882008 19.5184 26.2236
668 1 -1.1104 3.6971 19.582 23.344
670 1 -1.1104 3.72454 14.0792 23.3994
578 1 -1.1104 6.54943 19.6247 26.2779
637 1 -1.1104 6.57549 13.9738 23.395
337 2 2.2208 5.18218 7.07559 27.5794
547 1 -1.1104 12.0802 14.104 23.3858
611 1 -1.1104 12.1934 16.8441 26.2525
610 2 2.2208 10.8402 21.234 24.9568
318 2 2.2208 7.92647 20.9968 27.6052
579 1 -1.1104 9.2885 14.1753 26.2153
606 1 -1.1104 9.26699 19.6658 26.262
412 2 2.2208 10.8718 18.2056 22.0081
581 1 -1.1104 12.0791 19.7347 26.1562
665 1 -1.1104 9.47611 19.7291 23.5133
607 2 2.2208 7.89934 15.5315 21.9796
605 2 2.2208 10.6918 15.5027 24.8086
576 1 -1.1104 12.2401 19.8283 23.5573
324 2 2.2208 5.11181 18.2664 27.5737
642 1 -1.1104 9.23072 14.0997 23.3319
456 2 2.2208 7.98064 18.3996 24.74
608 2 2.2208 8.0179 20.9273 22.0742
9068 2 2.2208 13.5526 15.4768 27.6325
335 2 2.2208 8.0643 4.31705 27.635
573 2 2.2208 2.35293 -1.37412 27.6974
325 2 2.2208 2.28876 20.9568 27.7173
419 2 2.2208 10.8771 -1.41592 13.6717
336 2 2.2208 13.4938 4.29212 27.5726
329 2 2.2208 10.7769 20.8933 13.7533
387 2 2.2208 5.11175 4.19052 13.7205
320 2 2.2208 2.35961 12.5392 13.7068
418 2 2.2208 7.88245 1.29966 13.6987
454 2 2.2208 2.35615 6.92155 13.7575
609 2 2.2208 13.5166 -1.30357 27.5993
322 2 2.2208 10.642 9.61022 13.7289
9089 2 2.2208 13.574 18.261 13.7903
603 2 2.2208 7.87528 -1.41929 27.6217
671 2 2.2208 5.24271 23.9484 5.22854
672 2 2.2208 5.02825 29.3898 5.21461
673 1 -1.1104 0.945649 25.077 0.915176
674 1 -1.1104 0.923174 25.2243 3.72481
675 1 -1.1104 1.02894 22.299 1.03299
676 1 -1.1104 1.04642 27.7193 0.959969
677 2 2.2208 5.19093 26.7668 2.37859
678 1 -1.1104 0.972086 22.4464 3.84159
679 1 -1.1104 0.87733 28.0785 3.74356
680 1 -1.1104 3.70851 25.1757 1.00937
681 2 2.2208 2.33638 23.8208 2.40249
682 2 2.2208 2.25007 29.409 2.3445
683 1 -1.1104 3.80403 25.1825 3.90954
684 2 2.2208 2.32722 26.5113 5.18579
685 1 -1.1104 3.74256 22.3632 0.977438
686 1 -1.1104 3.72413 28.1625 0.906974
687 1 -1.1104 3.83206 22.5253 3.67453
688 1 -1.1104 3.7608 28.0016 3.78236
693 1 -1.1104 6.62707 25.3592 3.93462
692 1 -1.1104 6.53712 25.3747 1.07881
694 1 -1.1104 6.57593 22.4842 0.938234
696 1 -1.1104 6.66513 22.5368 3.66679
814 1 -1.1104 1.01854 22.3385 6.59488
815 1 -1.1104 0.894034 28.0341 6.51258
819 1 -1.1104 3.77026 22.4434 6.57434
813 1 -1.1104 6.52149 25.3009 6.68865
697 1 -1.1104 6.52687 28.1015 3.75708
817 1 -1.1104 6.46075 27.8852 6.54948
812 1 -1.1104 0.960814 25.1941 6.58345
820 1 -1.1104 3.60593 28.0595 6.57565
818 1 -1.1104 3.65784 25.2074 6.6562
816 1 -1.1104 6.62323 22.5219 6.53399
695 1 -1.1104 6.5313 27.9931 0.924563
698 2 2.2208 10.6455 23.857 5.20862
699 2 2.2208 10.6522 29.4048 5.21257
700 1 -1.1104 12.2755 25.1537 1.02408
701 1 -1.1104 12.1328 25.2061 3.72647
702 1 -1.1104 12.254 22.4608 0.883776
703 1 -1.1104 12.2936 27.986 1.1065
704 2 2.2208 10.7983 26.612 2.39406
705 1 -1.1104 12.1853 22.3219 3.69406
706 1 -1.1104 12.0031 28.0458 3.78671
707 1 -1.1104 9.37318 25.235 1.0122
708 2 2.2208 7.94141 23.8956 2.33952
709 2 2.2208 7.96973 29.4076 2.28143
710 1 -1.1104 9.3351 25.2647 3.73641
711 2 2.2208 8.035 26.5979 5.12839
712 1 -1.1104 9.43229 22.5763 0.948867
713 1 -1.1104 9.38415 28.0672 0.792785
714 1 -1.1104 9.44935 22.4532 3.81489
715 1 -1.1104 9.30391 28.0026 3.70112
850 1 -1.1104 9.35733 27.9893 6.58367
847 1 -1.1104 12.1429 27.7137 6.63264
846 1 -1.1104 12.0887 22.4368 6.50831
845 1 -1.1104 12.1311 25.16 6.48847
1039 2 2.2208 2.34583 23.7546 13.6391
848 1 -1.1104 9.34299 25.1516 6.56156
9493 2 2.2208 13.4956 32.191 5.26688
9742 2 2.2208 13.6424 23.8384 2.48028
849 1 -1.1104 9.40963 22.4454 6.76562
719 2 2.2208 5.10741 34.9605 5.09085
720 1 -1.1104 0.916029 30.6446 0.804929
721 1 -1.1104 0.862933 36.2781 1.03777
723 1 -1.1104 0.980285 30.8315 3.91923
724 1 -1.1104 0.983688 36.4617 3.81882
726 1 -1.1104 0.871049 33.5632 1.00099
727 2 2.2208 5.13729 32.2398 2.22846
728 2 2.2208 4.94897 37.9025 2.31
729 1 -1.1104 0.941499 33.5111 3.90103
731 1 -1.1104 3.76969 30.9484 0.894921
732 1 -1.1104 3.56464 36.5402 0.877255
733 2 2.2208 2.30975 34.9541 2.48461
734 1 -1.1104 3.65985 30.7206 3.66285
735 1 -1.1104 3.65892 36.3202 3.66726
736 2 2.2208 2.33739 32.2076 5.28111
737 2 2.2208 2.21547 37.8542 5.12537
738 1 -1.1104 3.5765 33.5914 0.953346
739 1 -1.1104 3.77261 33.5512 3.79968
743 1 -1.1104 6.64694 30.8777 0.82235
725 1 -1.1104 6.37893 36.4986 3.64024
745 1 -1.1104 6.38064 33.7899 0.990694
730 1 -1.1104 6.60489 33.7238 3.77285
744 1 -1.1104 6.3767 30.9991 3.72085
877 1 -1.1104 3.66832 33.6343 6.6487
871 1 -1.1104 6.49002 30.6844 6.49918
872 1 -1.1104 6.46684 36.4002 6.46702
870 1 -1.1104 0.812967 36.4813 6.71983
874 1 -1.1104 6.58353 33.6257 6.62774
876 1 -1.1104 3.71064 36.3911 6.50176
869 1 -1.1104 0.775744 30.8638 6.71035
873 1 -1.1104 1.02636 33.6636 6.66646
9743 2 2.2208 13.5646 43.3919 10.9096
1196 2 2.2208 7.906 40.5628 13.4952
722 1 -1.1104 6.31968 36.5484 0.693307
9488 2 2.2208 13.5638 37.8595 5.03792
746 2 2.2208 10.7481 35.1206 5.20469
747 1 -1.1104 12.2579 30.8268 0.928977
748 1 -1.1104 12.0579 36.4463 0.765903
749 1 -1.1104 12.1509 30.7632 3.87228
750 1 -1.1104 12.1656 36.4186 3.73628
751 1 -1.1104 12.1135 33.5693 0.801187
752 2 2.2208 10.6923 32.1707 2.32851
753 2 2.2208 10.7315 37.7606 2.30499
754 1 -1.1104 12.0463 33.5551 3.74701
755 1 -1.1104 9.44812 30.8919 0.943033
756 1 -1.1104 9.18691 36.3583 0.809205
757 2 2.2208 7.76807 35.0375 2.22581