ITEM: TIMESTEP
70000
ITEM: NUMBER OF ATOMS
17820
ITEM: BOX BOUNDS pp pp pp
-3.5819888052241156e-01 2.7698198880521961e+01
-4.1945501064202730e+00 3.3227455010643791e+02
-3.6334123428956966e-01 2.7703341234289546e+01
ITEM: ATOMS id type q x y z
1 2 2.2208 5.41544 1.43107 5.20035
2 1 -1.1104 1.15045 -2.96453 1.04972
3 1 -1.1104 1.1884 2.8206 0.986674
6 1 -1.1104 1.17456 -2.69191 3.86518
7 1 -1.1104 1.20121 2.89203 3.9264
10 1 -1.1104 1.00218 -0.0804368 1.09231
12 2 2.2208 5.37848 -1.40649 2.35227
14 1 -1.1104 1.29444 0.13141 3.80891
16 1 -1.1104 3.897 -2.9112 1.0858
17 1 -1.1104 3.86714 2.73789 0.868662
18 2 2.2208 2.53219 1.33319 2.23859
19 1 -1.1104 3.91651 -2.83116 3.70505
20 1 -1.1104 3.98697 2.71222 3.83356
21 2 2.2208 2.61909 -1.27732 5.20173
22 2 2.2208 2.48518 4.29659 5.29499
23 1 -1.1104 3.87481 -0.118869 1.03785
24 1 -1.1104 4.10301 -0.00547098 3.80595
13 2 2.2208 5.29832 4.1057 2.46818
25 2 2.2208 -0.318883 -1.40135 2.4862
26 2 2.2208 -0.195622 1.48862 5.23271
27 2 2.2208 -0.291967 4.25483 2.36293
137 1 -1.1104 12.2763 19.5651 9.22014
172 1 -1.1104 3.95531 -2.71995 6.57303
170 1 -1.1104 1.02117 0.166914 6.73973
166 1 -1.1104 1.04732 -2.81403 6.69068
135 1 -1.1104 12.3751 19.352 12.1676
8 1 -1.1104 6.67173 -2.88819 3.75567
9 1 -1.1104 6.69047 2.77127 3.69621
11 1 -1.1104 6.7894 0.0138699 0.919183
4 1 -1.1104 6.64828 -2.82452 0.920551
5 1 -1.1104 6.90523 2.70607 0.944273
171 1 -1.1104 6.80008 -0.17157 6.63846
15 1 -1.1104 6.82846 -0.107512 3.81671
31 2 2.2208 10.9502 1.33944 5.29827
32 1 -1.1104 12.4086 -2.84736 0.916519
33 1 -1.1104 12.4126 2.75645 1.04639
34 1 -1.1104 12.3424 -2.98353 3.80897
35 1 -1.1104 12.2826 2.93393 3.96581
36 1 -1.1104 12.3966 -0.0155801 0.990823
37 2 2.2208 11.021 -1.49712 2.38663
38 2 2.2208 10.9267 4.24058 2.50909
39 1 -1.1104 12.3208 -0.0598899 3.89482
40 1 -1.1104 9.51077 -2.94814 0.968198
41 1 -1.1104 9.59809 2.90475 1.06606
42 2 2.2208 8.23379 1.42597 2.39645
43 1 -1.1104 9.49907 -2.85626 3.83838
44 1 -1.1104 9.44046 2.75898 3.91779
45 2 2.2208 8.11401 -1.51506 5.31119
46 2 2.2208 8.12687 4.18298 5.17988
47 1 -1.1104 9.51115 0.0632441 1.03791
48 1 -1.1104 9.57564 0.120925 3.85525
210 1 -1.1104 9.52075 -0.164 6.68956
209 1 -1.1104 9.51689 2.61508 6.52022
169 1 -1.1104 6.91373 2.59444 6.66891
208 1 -1.1104 9.62265 -2.87709 6.74623
168 1 -1.1104 6.65234 -2.96026 6.73267
104 1 -1.1104 12.5131 13.9724 11.9842
8999 2 2.2208 -0.166141 9.80781 8.17646
54 2 2.2208 5.43268 6.97813 5.25826
55 2 2.2208 5.44428 12.6058 5.26304
56 1 -1.1104 1.02118 8.24334 1.04006
58 1 -1.1104 0.968703 8.38506 3.81336
60 1 -1.1104 1.16489 5.58044 0.999965
61 1 -1.1104 1.01819 11.071 1.14429
66 2 2.2208 5.35859 9.91618 2.35133
67 1 -1.1104 0.99528 5.74856 3.79417
68 1 -1.1104 1.08968 11.0938 3.89742
71 1 -1.1104 3.82665 8.35541 0.994328
72 2 2.2208 2.48287 6.93095 2.53554
73 2 2.2208 2.52034 12.5235 2.48125
74 1 -1.1104 3.84548 8.40025 3.89864
75 2 2.2208 2.54563 9.73314 5.39544
76 1 -1.1104 4.01951 5.55371 0.99765
77 1 -1.1104 3.89622 11.1933 1.04146
79 1 -1.1104 3.82986 5.47023 3.72015
80 1 -1.1104 4.10128 11.3051 3.88846
82 2 2.2208 -0.347278 9.71304 2.45177
9064 2 2.2208 -0.355925 12.5876 5.39317
81 2 2.2208 -0.17375 7.00377 5.31271
28 2 2.2208 -0.184733 6.89919 11.0054
234 1 -1.1104 1.22752 8.39296 6.72095
236 1 -1.1104 1.1212 5.56595 6.62754
8356 2 2.2208 10.9355 -4.24794 10.8848
312 1 -1.1104 12.4858 16.7823 9.5304
70 1 -1.1104 6.81235 11.304 3.71095
57 1 -1.1104 6.74808 8.37065 0.878759
59 1 -1.1104 6.71268 8.37241 3.70841
63 1 -1.1104 6.78072 5.57405 1.13159
64 1 -1.1104 6.70087 11.2131 0.926305
69 1 -1.1104 6.77514 5.60812 3.89183
84 2 2.2208 10.9956 6.94976 5.27413
85 2 2.2208 10.921 12.5081 5.3092
86 1 -1.1104 12.4257 8.46557 0.919126
87 1 -1.1104 12.3727 8.44494 3.75373
88 1 -1.1104 12.3735 5.47702 1.06395
89 1 -1.1104 12.4296 11.1601 1.09466
91 2 2.2208 11.0012 9.83013 2.43307
92 1 -1.1104 12.4885 5.77081 3.90684
93 1 -1.1104 12.378 11.1996 3.86923
94 1 -1.1104 9.52578 8.41585 1.10215
95 2 2.2208 8.09781 7.03673 2.34363
96 2 2.2208 8.1868 12.7172 2.28764
97 1 -1.1104 9.62042 8.26499 3.98047
98 2 2.2208 8.21401 9.72318 5.26824
99 1 -1.1104 9.66508 5.70168 1.03318
100 1 -1.1104 9.54756 11.2019 0.98827
102 1 -1.1104 9.54149 5.5048 3.87967
103 1 -1.1104 9.54703 11.0126 3.84657
235 1 -1.1104 6.86655 8.4068 6.59353
267 1 -1.1104 9.53997 8.32343 6.71128
269 1 -1.1104 9.52139 5.60032 6.63627
232 2 2.2208 8.1247 15.5464 10.8876
8931 2 2.2208 -0.148929 20.8878 2.4583
8930 2 2.2208 -0.256961 18.1388 5.11701
106 2 2.2208 5.39934 18.188 5.26002
107 1 -1.1104 1.09192 14.001 1.05492
109 1 -1.1104 1.2704 19.4595 0.970264
113 1 -1.1104 1.22544 13.9834 3.92485
114 1 -1.1104 1.14674 19.435 3.85476
116 1 -1.1104 1.17179 16.781 1.25463
119 2 2.2208 5.51147 15.4351 2.47803
120 2 2.2208 5.38841 20.958 2.4254
121 1 -1.1104 1.2323 16.8113 3.91093
123 1 -1.1104 4.13577 14.0584 0.849282
125 1 -1.1104 4.08918 19.5535 1.00132
127 2 2.2208 2.5913 18.235 2.41351
128 1 -1.1104 4.05681 14.128 3.78995
129 1 -1.1104 3.92207 19.6171 3.88085
130 2 2.2208 2.72206 15.4518 5.1398
131 2 2.2208 2.61065 20.9093 5.19911
132 1 -1.1104 4.03002 16.9332 0.908178
134 1 -1.1104 4.01433 16.889 3.72583
133 1 -1.1104 3.98265 16.844 6.63459
8965 2 2.2208 -0.187467 15.1874 2.54789
8354 2 2.2208 -0.383054 -4.1937 10.9489
290 1 -1.1104 6.70068 14.1895 9.52976
8348 2 2.2208 -0.249994 -4.24084 5.23703
306 1 -1.1104 6.75407 16.768 12.2582
165 1 -1.1104 12.3379 16.6148 12.2588
8347 2 2.2208 5.32712 -4.14009 5.25846
53 1 -1.1104 9.58452 13.9817 12.2102
138 1 -1.1104 6.72729 19.5365 0.977007
110 1 -1.1104 6.95804 13.9763 0.942975
122 1 -1.1104 6.62955 16.8487 3.92599
140 1 -1.1104 6.94412 16.6788 1.0665
139 1 -1.1104 6.7196 19.5563 3.8921
115 1 -1.1104 6.83462 14.1041 3.81963
141 2 2.2208 10.9298 18.163 5.17389
142 1 -1.1104 12.4063 14.0933 1.1543
144 1 -1.1104 12.3723 19.6293 0.943615
146 1 -1.1104 12.2309 14.0449 3.98574
147 1 -1.1104 12.2792 19.4947 3.68967
148 1 -1.1104 12.3558 16.7432 0.925967
150 2 2.2208 11.0125 15.3808 2.46724
151 2 2.2208 11.0882 20.917 2.45122
152 1 -1.1104 12.5155 16.7737 3.86483
153 1 -1.1104 9.66129 14.0669 1.00489
155 1 -1.1104 9.49249 19.4747 0.995005
157 2 2.2208 8.12314 18.1465 2.51139
158 1 -1.1104 9.47175 13.9199 3.78297
159 1 -1.1104 9.44684 19.4303 3.85476
160 2 2.2208 8.23586 15.3622 5.28762
161 2 2.2208 8.2535 20.9912 5.31486
162 1 -1.1104 9.64834 16.7333 1.05099
164 1 -1.1104 9.58894 16.7597 3.77732
111 1 -1.1104 6.82337 14.038 6.74644
143 1 -1.1104 12.3381 13.9055 6.61752
163 1 -1.1104 9.57226 16.9166 6.63133
167 1 -1.1104 1.26095 2.99585 6.8393
173 1 -1.1104 4.06337 2.82575 6.6503
174 1 -1.1104 3.9485 0.00188757 6.48802
199 2 2.2208 -0.198957 4.16968 7.95941
175 2 2.2208 5.36344 1.40046 10.8127
176 1 -1.1104 1.06805 -2.72138 12.2915
177 1 -1.1104 1.02229 2.69837 12.4028
180 1 -1.1104 1.10742 -2.73193 9.40931
181 1 -1.1104 1.03659 2.82327 9.66026
184 1 -1.1104 1.11161 0.00944772 12.2158
186 2 2.2208 5.24539 -1.36635 7.99654
188 1 -1.1104 1.30495 0.092743 9.52953
190 1 -1.1104 3.81011 -2.81983 12.3028
191 1 -1.1104 3.80391 2.82291 12.3235
192 2 2.2208 2.54156 1.38503 8.12118
193 1 -1.1104 3.66201 -2.76737 9.4326
194 1 -1.1104 4.03761 2.72748 9.28954
195 2 2.2208 2.47662 -1.44393 10.7996
196 2 2.2208 2.60051 4.16495 10.927
197 1 -1.1104 3.99128 0.150985 12.2074
198 1 -1.1104 3.981 0.049198 9.4495
187 2 2.2208 5.40239 4.16614 8.01531
324 2 2.2208 5.46022 18.1699 -0.346682
418 2 2.2208 8.25006 1.35142 13.6746
233 2 2.2208 8.10645 21.0028 10.8734
202 1 -1.1104 9.76726 19.4328 12.3568
325 2 2.2208 2.65361 20.8651 -0.341954
330 2 2.2208 11.0527 15.2957 13.7016
154 1 -1.1104 9.6679 14.0747 6.69159
112 1 -1.1104 6.76913 19.7343 6.60296
207 1 -1.1104 12.3194 -0.0981235 6.71055
420 2 2.2208 11.0377 4.20133 13.6573
206 1 -1.1104 12.398 2.56939 6.70233
183 1 -1.1104 6.82095 2.77584 9.50968
179 1 -1.1104 6.6542 2.84178 12.0963
185 1 -1.1104 6.70573 0.131962 12.1967
189 1 -1.1104 6.75063 0.0471505 9.37338
182 1 -1.1104 6.64825 -2.76561 9.55169
205 1 -1.1104 12.3919 -2.80042 6.56335
178 1 -1.1104 6.70578 -2.66728 12.1963
211 2 2.2208 10.923 1.4656 10.8027
212 1 -1.1104 12.5597 -2.73618 12.2095
213 1 -1.1104 12.3432 2.83246 12.2401
214 1 -1.1104 12.3089 -2.72769 9.51449
215 1 -1.1104 12.4379 2.75175 9.53829
216 1 -1.1104 12.2633 -0.0503269 12.1199
217 2 2.2208 10.9256 -1.40502 8.07213
218 2 2.2208 11.0228 3.99371 7.92799
219 1 -1.1104 12.418 0.0156009 9.39553
220 1 -1.1104 9.67726 -2.90573 12.2636
221 1 -1.1104 9.65823 2.88085 12.229
222 2 2.2208 8.19843 1.33941 8.00928
223 1 -1.1104 9.33989 -2.81402 9.55846
224 1 -1.1104 9.58055 2.65987 9.36995
225 2 2.2208 8.0517 -1.36051 10.8771
227 1 -1.1104 9.45206 -0.0939246 12.2695
228 1 -1.1104 9.5108 -0.0350893 9.50373
226 2 2.2208 8.19538 4.13931 10.8579
136 1 -1.1104 12.4262 14.0437 9.29068
8992 2 2.2208 -0.299493 12.6355 10.879
62 1 -1.1104 1.19713 11.176 6.70901
78 1 -1.1104 4.16145 11.1564 6.72487
238 1 -1.1104 3.92861 8.29523 6.70241
239 1 -1.1104 3.94087 5.55683 6.59009
314 1 -1.1104 9.64121 16.9215 9.34723
240 2 2.2208 5.47137 6.86902 10.743
241 2 2.2208 5.42873 12.6221 10.9451
242 1 -1.1104 1.14915 8.39359 12.2052
244 1 -1.1104 1.37627 8.41387 9.57442
246 1 -1.1104 1.15953 5.54318 12.4172
247 1 -1.1104 1.20546 11.208 12.3986
250 2 2.2208 5.58428 9.74158 8.02229
251 1 -1.1104 1.24536 5.51755 9.57381
252 1 -1.1104 1.11311 11.1747 9.61431
255 1 -1.1104 4.04346 8.55219 12.2758
256 2 2.2208 2.52922 7.03261 8.24568
257 2 2.2208 2.66933 12.5396 8.07548
258 1 -1.1104 4.06501 8.35908 9.40754
259 2 2.2208 2.59148 9.94186 11.0327
260 1 -1.1104 4.0188 5.6958 12.1493
261 1 -1.1104 4.05601 11.2849 12.4283
262 1 -1.1104 4.0571 5.60491 9.37817
263 1 -1.1104 3.95472 11.3136 9.57362
118 1 -1.1104 6.75614 16.8678 6.67717
149 1 -1.1104 12.4037 16.7281 6.77941
90 1 -1.1104 12.3846 10.9707 6.54957
65 1 -1.1104 6.87397 11.2004 6.59052
248 1 -1.1104 6.77907 5.54016 12.4109
243 1 -1.1104 6.81715 8.43466 12.332
265 1 -1.1104 12.4696 8.24236 6.54306
237 1 -1.1104 6.79402 5.54188 6.63586
245 1 -1.1104 7.00157 8.25009 9.43215
266 1 -1.1104 12.3186 5.31998 6.46293
253 1 -1.1104 6.88483 5.54532 9.51051
249 1 -1.1104 6.82951 11.2391 12.1673
254 1 -1.1104 6.79247 11.245 9.35774
101 1 -1.1104 9.49587 11.2308 6.5775
264 1 -1.1104 9.64435 11.1221 9.5329
268 1 -1.1104 9.72769 5.45722 9.46891
270 1 -1.1104 9.66305 11.3801 12.1682
271 1 -1.1104 9.69642 5.69712 12.2875
272 2 2.2208 8.24977 9.77881 10.7935
273 1 -1.1104 9.60004 8.4435 9.36515
274 2 2.2208 8.24566 12.7016 8.1842
275 2 2.2208 8.29659 6.98479 8.02424
276 2 2.2208 11.0393 6.94535 10.8597
277 2 2.2208 11.0093 12.5098 10.8546
278 1 -1.1104 12.2921 8.41563 12.2321
279 1 -1.1104 12.4269 8.43151 9.39168
280 1 -1.1104 12.3972 5.58279 12.088
281 1 -1.1104 12.4651 11.132 12.1897
282 2 2.2208 11.0054 9.79962 8.05907
283 1 -1.1104 12.5199 5.63939 9.23858
284 1 -1.1104 12.4086 11.2565 9.29978
285 1 -1.1104 9.54749 8.39687 12.2657
203 2 2.2208 8.14637 18.2616 8.02996
124 1 -1.1104 4.10257 13.9228 6.61588
8772 2 2.2208 -0.246655 20.9612 7.97027
8771 2 2.2208 -0.142856 18.0769 10.9048
313 2 2.2208 -0.197319 15.3412 7.85752
108 1 -1.1104 1.26548 13.8894 6.66822
117 1 -1.1104 1.27732 16.7318 6.62111
126 1 -1.1104 4.0656 19.6013 6.65887
302 1 -1.1104 1.30251 19.5277 6.5976
310 2 2.2208 2.59261 15.2307 10.7266
286 1 -1.1104 4.02822 19.4281 12.2426
287 1 -1.1104 3.94559 13.9643 12.2894
291 1 -1.1104 1.28141 19.4597 9.50429
292 1 -1.1104 1.19526 16.7025 9.47552
293 2 2.2208 5.4247 21.0792 8.15197
294 1 -1.1104 1.1975 13.8037 9.47843
295 2 2.2208 5.3273 15.4706 8.07839
298 1 -1.1104 1.09498 19.6759 12.3142
299 1 -1.1104 0.909889 14.161 12.2392
300 2 2.2208 5.56348 18.1119 10.8307
301 1 -1.1104 3.91135 19.559 9.48555
303 2 2.2208 2.57303 18.1895 8.02878
304 1 -1.1104 4.00537 16.7723 9.47696
305 1 -1.1104 3.99199 13.9748 9.43417
307 1 -1.1104 1.14436 16.8198 12.3684
308 1 -1.1104 4.05353 16.6295 12.2786
309 2 2.2208 2.39595 20.8885 10.8754
230 2 2.2208 10.9686 15.3778 8.00563
296 1 -1.1104 6.94292 19.5237 12.2388
9085 2 2.2208 -0.243803 20.8909 13.6557
204 1 -1.1104 9.62071 13.9795 9.47301
289 1 -1.1104 6.7615 16.8641 9.48497
297 1 -1.1104 6.90096 14.0256 12.391
311 2 2.2208 10.8684 20.9494 7.9694
156 1 -1.1104 9.37748 19.5292 6.71845
288 1 -1.1104 6.64924 19.6053 9.4552
145 1 -1.1104 12.3024 19.4369 6.38376
231 1 -1.1104 9.48754 19.6025 9.47023
83 2 2.2208 10.9113 18.0259 10.856
315 1 -1.1104 9.54285 16.8225 12.2256
328 2 2.2208 5.36039 15.3009 13.7907
326 2 2.2208 2.67094 18.1318 13.6396
323 2 2.2208 2.59363 15.4015 -0.352264
337 2 2.2208 5.28413 7.04417 -0.374697
327 2 2.2208 5.33039 20.8128 13.7158
329 2 2.2208 11.0284 20.8445 13.7113
9077 2 2.2208 -0.268234 9.75989 13.7504
321 2 2.2208 -0.272372 18.0988 -0.289826
483 2 2.2208 8.2239 12.5929 13.7198
316 2 2.2208 8.25384 15.3481 -0.39893
334 2 2.2208 10.9108 1.50576 -0.352578
419 2 2.2208 10.8785 -1.54028 13.6368
345 2 2.2208 5.3013 1.27599 16.5499
346 1 -1.1104 1.05684 -2.81902 17.8834
347 1 -1.1104 1.04835 2.68775 17.8123
350 1 -1.1104 1.11617 -2.96536 15.0208
352 1 -1.1104 1.21509 2.70326 15.1739
358 1 -1.1104 1.18143 -0.0952256 17.9522
360 2 2.2208 5.373 -1.40394 19.267
362 1 -1.1104 1.04763 0.00267406 15.0334
366 1 -1.1104 3.95245 -2.77701 17.8654
367 1 -1.1104 3.98775 2.64779 17.9271
368 2 2.2208 2.69197 1.35573 19.3126
369 1 -1.1104 3.89667 -2.74132 15.0847
371 1 -1.1104 4.02251 2.63911 15.1082
373 2 2.2208 2.51505 -1.44619 16.526
374 2 2.2208 2.53562 4.16003 16.6004
375 1 -1.1104 4.02346 -0.0334192 17.9235
376 1 -1.1104 3.68222 -0.103258 14.9794
361 2 2.2208 5.28671 4.16947 19.2256
9198 2 2.2208 -0.169518 1.26542 16.6412
8524 2 2.2208 10.8563 -4.1782 22.1094
370 1 -1.1104 3.99009 -2.9664 20.5222
372 1 -1.1104 3.96567 2.83641 20.7438
9345 2 2.2208 -0.359471 -1.4713 19.2396
377 1 -1.1104 3.99443 -0.0022813 20.6814
359 1 -1.1104 6.75327 -0.0649311 17.9736
365 1 -1.1104 6.77587 0.0163191 20.756
348 1 -1.1104 6.82089 -2.72527 17.9412
356 1 -1.1104 6.80136 2.83041 15.0031
354 1 -1.1104 6.79639 -2.7463 14.963
364 1 -1.1104 6.65033 -0.0109472 15.0353
349 1 -1.1104 6.64758 2.68465 17.8532
388 2 2.2208 10.9387 1.3969 16.4932
389 1 -1.1104 12.3552 -2.74312 17.8866
390 1 -1.1104 12.4083 2.81364 17.6929
391 1 -1.1104 12.3085 -2.88922 15.1199
393 1 -1.1104 12.4231 2.90907 14.9534
395 1 -1.1104 12.3672 0.115574 17.8727
396 2 2.2208 11.0493 -1.39016 19.2401
397 2 2.2208 10.9974 4.17971 19.1325
398 1 -1.1104 12.3907 0.0812297 15.1806
400 1 -1.1104 9.64408 -2.97606 17.9485
401 1 -1.1104 9.62567 2.78854 17.9408
402 2 2.2208 8.04808 1.33727 19.3092
403 1 -1.1104 9.41958 -2.86985 15.082
405 1 -1.1104 9.65655 2.80378 14.9974
407 2 2.2208 8.1428 -1.44612 16.3622
409 1 -1.1104 9.61473 -0.124815 17.7038
410 1 -1.1104 9.54468 -0.0392577 14.973
408 2 2.2208 8.27045 4.19896 16.3967
404 1 -1.1104 9.67545 -2.82308 20.7254
406 1 -1.1104 9.52161 2.73809 20.62
355 1 -1.1104 6.90353 -2.75288 20.6915
357 1 -1.1104 6.81982 2.77373 20.7215
576 1 -1.1104 12.3299 19.4652 23.4934
399 1 -1.1104 12.6099 -0.0116575 20.6978
411 1 -1.1104 9.67472 -0.0842815 20.6792
394 1 -1.1104 12.4228 2.8209 20.6422
8640 2 2.2208 10.9195 -4.32863 16.4924
9169 2 2.2208 -0.278946 4.19727 19.1328
421 2 2.2208 5.50569 6.98424 16.4385
422 2 2.2208 5.28987 12.5667 16.4991
423 1 -1.1104 1.17385 8.32399 17.8726
425 1 -1.1104 1.01883 8.46964 15.0555
429 1 -1.1104 1.10478 5.43092 17.8699
430 1 -1.1104 1.07677 11.2088 17.9148
433 2 2.2208 5.33399 9.75428 19.2511
434 1 -1.1104 1.16808 5.55239 15.146
436 1 -1.1104 0.977716 11.204 15.1144
442 1 -1.1104 3.8605 8.45228 17.7254
443 2 2.2208 2.6235 7.10619 19.2883
444 2 2.2208 2.63196 12.6305 19.23
445 1 -1.1104 4.11988 8.23097 15.0397
447 2 2.2208 2.36479 9.81532 16.4166
448 1 -1.1104 3.99368 5.61104 17.8795
449 1 -1.1104 3.97326 11.2509 17.9293
450 1 -1.1104 3.92463 5.44975 15.0864
452 1 -1.1104 3.87503 11.1483 15.1708
413 2 2.2208 -0.308818 6.95753 16.5859
415 2 2.2208 -0.255951 12.6897 16.4423
414 2 2.2208 -0.298761 9.75581 19.3118
435 1 -1.1104 1.28213 5.53862 20.6579
453 1 -1.1104 3.9792 11.0601 20.7998
319 2 2.2208 5.40491 9.73945 13.8007
446 1 -1.1104 4.01723 8.43143 20.6097
605 2 2.2208 10.9723 15.3472 24.963
440 1 -1.1104 6.80303 11.1168 14.965
424 1 -1.1104 6.77656 8.36935 17.8989
432 1 -1.1104 6.72964 11.2305 17.8767
438 1 -1.1104 6.79093 5.65134 15.1339
427 1 -1.1104 6.78089 8.45272 15.1641
431 1 -1.1104 6.8486 5.55461 17.9616
457 2 2.2208 11.0541 7.04241 16.378
458 2 2.2208 10.927 12.549 16.4436
459 1 -1.1104 12.5058 8.31568 17.7799
460 1 -1.1104 12.4878 8.4306 14.9483
462 1 -1.1104 12.3498 5.50403 17.9242
463 1 -1.1104 12.225 11.2318 17.8459
464 2 2.2208 11.0543 9.75081 19.2742
465 1 -1.1104 12.4514 5.68656 15.1597
467 1 -1.1104 12.5156 11.1607 15.1048
469 1 -1.1104 9.63284 8.33059 17.6681
470 2 2.2208 8.27197 6.97939 19.2966
471 2 2.2208 8.22647 12.511 19.2142
472 1 -1.1104 9.63815 8.39609 14.9735
474 2 2.2208 8.18089 9.79066 16.4469
475 1 -1.1104 9.55109 5.6649 17.7655
476 1 -1.1104 9.49135 11.1581 17.7448
477 1 -1.1104 9.62126 5.53714 14.9855
479 1 -1.1104 9.72974 11.2851 14.8948
473 1 -1.1104 9.62664 8.19443 20.6915
466 1 -1.1104 12.3248 5.71542 20.5678
461 1 -1.1104 12.5578 8.28113 20.6583
439 1 -1.1104 6.73836 5.67143 20.607
383 2 2.2208 -0.262541 18.1995 22.1219
8639 2 2.2208 8.20708 -4.20872 19.2736
380 2 2.2208 -0.25985 20.8969 19.2901
484 2 2.2208 5.36349 18.006 16.4433
485 1 -1.1104 1.0824 14.1166 17.9007
486 1 -1.1104 1.20417 19.5896 17.9414
489 1 -1.1104 1.20776 13.8754 15.14
491 1 -1.1104 1.1465 19.5431 15.1675
497 1 -1.1104 1.17917 16.8216 17.9547
499 2 2.2208 5.41151 15.3514 19.3916
500 2 2.2208 5.27314 20.9666 19.4476
501 1 -1.1104 1.23292 16.8405 15.0587
505 1 -1.1104 3.9401 14.0558 17.8438
506 1 -1.1104 3.88604 19.5409 17.9454
507 2 2.2208 2.59282 18.2139 19.3034
508 1 -1.1104 3.90043 14.0093 15.131
510 1 -1.1104 3.95886 19.5642 15.1522
512 2 2.2208 2.54209 15.4026 16.5508
513 2 2.2208 2.48593 21.0098 16.4442
514 1 -1.1104 3.95486 16.747 17.9024
515 1 -1.1104 4.07482 16.702 15.1083
9313 2 2.2208 -0.158083 18.2609 16.5575
379 2 2.2208 -0.32958 15.4779 19.2819
490 1 -1.1104 1.24862 13.8811 20.7238
502 1 -1.1104 1.12246 16.7681 20.6366
17550 2 2.2208 -0.253432 -4.29631 16.5126
538 1 -1.1104 9.45126 19.3619 20.6582
536 1 -1.1104 9.76294 13.9429 20.6595
494 1 -1.1104 6.95995 13.9701 20.5973
610 2 2.2208 11.0656 20.956 24.8441
580 1 -1.1104 12.4931 14.1112 26.3232
493 1 -1.1104 6.87545 13.7611 15.1325
495 1 -1.1104 6.69966 19.3129 14.9373
503 1 -1.1104 6.88552 16.5945 14.9601
488 1 -1.1104 6.63397 19.4991 17.7414
498 1 -1.1104 6.71944 16.7313 17.7906
487 1 -1.1104 6.72085 13.9377 17.8857
520 2 2.2208 11.085 18.0766 16.4673
521 1 -1.1104 12.3534 13.8917 17.8589
522 1 -1.1104 12.3856 19.4689 17.8558
523 1 -1.1104 12.4637 13.8753 14.9251
525 1 -1.1104 12.4772 19.5762 14.9814
527 1 -1.1104 12.3648 16.6467 17.7899
528 2 2.2208 10.9863 15.3499 19.2163
529 2 2.2208 10.8863 20.8147 19.2798
530 1 -1.1104 12.4708 16.8135 15.048
532 1 -1.1104 9.61975 13.9826 17.7394
533 1 -1.1104 9.43425 19.5644 17.9858
534 2 2.2208 7.97708 18.1703 19.2848
535 1 -1.1104 9.59105 13.9143 15.1089
537 1 -1.1104 9.65562 19.5179 15.3708
539 2 2.2208 8.22091 15.2762 16.4003
540 2 2.2208 8.08908 20.935 16.4725
541 1 -1.1104 9.60649 16.7724 17.8365
542 1 -1.1104 9.67959 16.6286 15.08
531 1 -1.1104 12.384 16.7815 20.6264
504 1 -1.1104 6.74049 16.7979 20.73
363 1 -1.1104 1.18617 -0.015573 20.7157
351 1 -1.1104 1.20944 -2.81892 20.6405
353 1 -1.1104 1.22251 2.76667 20.8221
9168 2 2.2208 -0.127823 4.27067 24.7223
582 2 2.2208 -0.221831 1.28392 22.1105
548 2 2.2208 5.35919 1.28238 22.0997
549 1 -1.1104 1.14897 -2.84131 23.4103
550 1 -1.1104 1.29287 2.72952 23.5253
553 1 -1.1104 1.23599 -2.89416 26.2872
554 1 -1.1104 1.11394 2.78565 26.3178
557 1 -1.1104 1.31095 -0.0803172 23.46
559 2 2.2208 5.51378 -1.46044 24.7342
560 2 2.2208 5.50156 4.18579 24.8443
561 1 -1.1104 1.14318 -0.109464 26.2536
563 1 -1.1104 3.78016 -2.90178 23.387
564 1 -1.1104 3.99995 2.69143 23.4408
565 2 2.2208 2.61506 1.22501 24.9106
566 1 -1.1104 4.02789 -2.97097 26.1754
567 1 -1.1104 4.00655 2.71728 26.231
568 2 2.2208 2.6699 -1.48804 22.0205
569 2 2.2208 2.56079 4.17253 22.1026
570 1 -1.1104 4.03432 -0.172531 23.4671
571 1 -1.1104 3.98067 -0.171188 26.2802
9316 2 2.2208 -0.172304 -1.47589 24.8499
583 1 -1.1104 12.3539 16.6916 23.3705
412 2 2.2208 10.9727 18.0539 21.9664
603 2 2.2208 8.18778 -1.43158 27.7462
392 1 -1.1104 12.44 -2.83785 20.8174
551 1 -1.1104 6.72789 -2.84741 23.3342
556 1 -1.1104 6.71945 2.67334 26.2608
558 1 -1.1104 6.72425 -0.00986918 23.5295
555 1 -1.1104 6.85532 -2.9361 26.1911
552 1 -1.1104 6.85448 2.73491 23.4839
562 1 -1.1104 6.83996 -0.0764247 26.1873
584 2 2.2208 10.8964 1.37737 22.0435
585 1 -1.1104 12.4144 -2.82765 23.484
586 1 -1.1104 12.3108 2.75737 23.4317
587 1 -1.1104 12.4134 -2.86813 26.2113
588 1 -1.1104 12.3249 2.79718 26.166
589 1 -1.1104 12.4776 0.13399 23.4139
590 2 2.2208 11.0843 -1.3335 24.8729
592 1 -1.1104 12.3079 0.0895353 26.3604
593 1 -1.1104 9.5122 -2.70883 23.6717
594 1 -1.1104 9.56733 2.77712 23.4416
595 2 2.2208 8.09826 1.34508 24.9104
596 1 -1.1104 9.64843 -2.6345 26.3094
597 1 -1.1104 9.49418 2.86704 26.1926
598 2 2.2208 8.26585 -1.56752 22.1161
600 1 -1.1104 9.5028 -0.164257 23.3457
601 1 -1.1104 9.66001 0.114212 26.1433
591 2 2.2208 10.9566 4.25749 24.8878
599 2 2.2208 8.28692 4.07774 21.9479
335 2 2.2208 8.13671 4.25939 27.6818
9420 2 2.2208 -0.22162 6.98395 22.0961
426 1 -1.1104 1.102 8.38067 20.7844
641 2 2.2208 -0.194682 9.78901 24.7804
437 1 -1.1104 1.23503 11.2374 20.5219
451 1 -1.1104 3.99625 5.64309 20.5079
613 2 2.2208 5.4652 6.8862 22.0216
614 2 2.2208 5.48688 12.4618 22.1161
615 1 -1.1104 1.10779 8.40936 23.489
617 1 -1.1104 1.24033 8.38014 26.2094
619 1 -1.1104 1.32157 5.58229 23.493
620 1 -1.1104 1.22774 11.1797 23.4701
623 2 2.2208 5.51026 9.79425 24.8916
624 1 -1.1104 1.14317 5.67034 26.2432
625 1 -1.1104 1.17256 11.1833 26.4037
628 1 -1.1104 4.0991 8.26397 23.3891
629 2 2.2208 2.60103 6.93448 24.8203
630 2 2.2208 2.5741 12.4031 24.8697
631 1 -1.1104 4.02267 8.40278 26.2952
632 2 2.2208 2.66008 9.76043 22.0686
633 1 -1.1104 4.06646 5.67994 23.5437
634 1 -1.1104 3.99877 11.0994 23.3049
635 1 -1.1104 3.82875 5.51639 26.3095
636 1 -1.1104 4.01369 11.0439 26.0786
338 2 2.2208 2.54279 9.69594 27.6267
9131 2 2.2208 -0.0864446 12.6013 22.0567
468 1 -1.1104 12.3833 11.0008 20.7474
480 1 -1.1104 9.53012 10.9334 20.5412
341 2 2.2208 11.0559 7.01961 27.6713
478 1 -1.1104 9.50857 5.39536 20.7272
627 1 -1.1104 6.7633 11.2812 26.375
626 1 -1.1104 6.76055 5.65706 26.2945
622 1 -1.1104 6.9703 11.0549 23.5657
428 1 -1.1104 6.84586 8.52644 20.6111
618 1 -1.1104 6.7133 8.43043 26.0959
621 1 -1.1104 6.9112 5.47047 23.455
616 1 -1.1104 6.92364 8.20701 23.4223
441 1 -1.1104 6.8284 11.2097 20.5934
644 1 -1.1104 9.69697 11.11 26.2997
645 1 -1.1104 9.60136 5.72828 26.2381
646 1 -1.1104 9.59539 11.296 23.3936
647 1 -1.1104 9.52199 5.60832 23.5974
648 2 2.2208 8.31385 9.73607 22.0335
649 1 -1.1104 9.53858 8.43103 26.2087
650 2 2.2208 8.23613 12.5017 24.9133
651 2 2.2208 8.27144 7.07788 24.8244
652 2 2.2208 11.1167 6.87732 22.0486
653 2 2.2208 11.0948 12.6017 22.0903
654 1 -1.1104 12.5458 8.39828 23.4415
655 1 -1.1104 12.4573 8.48352 26.267
656 1 -1.1104 12.4819 5.51907 23.543
657 1 -1.1104 12.4961 11.2392 23.3844
658 2 2.2208 11.1282 9.86134 24.8296
659 1 -1.1104 12.4175 5.63153 26.2664
660 1 -1.1104 12.3818 11.2712 26.1593
661 1 -1.1104 9.79142 8.4065 23.3751
578 1 -1.1104 6.8217 19.5473 26.2675
455 2 2.2208 -0.232908 20.9919 24.817
342 2 2.2208 8.1484 9.82649 27.6492
516 1 -1.1104 3.98433 16.6988 20.6637
9124 2 2.2208 -0.306149 15.4744 24.9987
509 1 -1.1104 4.1541 13.8342 20.818
492 1 -1.1104 1.21096 19.6776 20.5945
511 1 -1.1104 4.02869 19.6121 20.8227
670 1 -1.1104 3.99757 13.8147 23.6438
482 2 2.2208 2.66816 15.2615 22.218
517 2 2.2208 2.55665 21.0487 22.1381
518 1 -1.1104 3.99759 16.6701 23.5828
519 1 -1.1104 1.13821 16.8867 23.5732
545 1 -1.1104 3.86325 13.8514 26.3051
546 1 -1.1104 3.93967 16.7587 26.4278
572 2 2.2208 2.61236 18.142 24.9504
574 1 -1.1104 4.00055 19.5131 26.2989
602 2 2.2208 5.2875 18.1587 22.0827
604 1 -1.1104 1.17626 13.9366 23.5556
612 1 -1.1104 1.02937 19.5821 23.3724
638 2 2.2208 5.4068 15.3574 25.0562
639 2 2.2208 5.42959 21.0435 24.8653
662 1 -1.1104 1.34288 14.0199 26.3721
663 1 -1.1104 1.14142 16.7169 26.459
664 1 -1.1104 1.27884 19.5327 26.1514
668 1 -1.1104 3.8603 19.5239 23.5672
543 1 -1.1104 9.38979 16.6626 20.5808
606 1 -1.1104 9.58382 19.7144 26.2768
581 1 -1.1104 12.4768 19.6164 26.2265
524 1 -1.1104 12.4817 13.8852 20.6955
456 2 2.2208 8.19989 18.0722 24.8836
642 1 -1.1104 9.66233 13.9424 23.5094
666 1 -1.1104 6.88335 16.8321 26.3668
496 1 -1.1104 6.68634 19.4445 20.6558
526 1 -1.1104 12.2834 19.4708 20.6973
640 1 -1.1104 6.84272 19.6129 23.5025
608 2 2.2208 8.18003 20.9114 22.151
607 2 2.2208 8.15829 15.3193 22.1083
665 1 -1.1104 9.60203 19.4744 23.4331
637 1 -1.1104 6.85747 13.7517 23.5063
544 1 -1.1104 6.7363 16.574 23.5098
669 1 -1.1104 6.73307 13.9668 26.2312
382 1 -1.1104 9.55046 16.7575 26.285
611 1 -1.1104 12.3229 16.795 26.143
579 1 -1.1104 9.61483 14.0198 26.2271
547 1 -1.1104 12.4577 13.9879 23.6021
381 1 -1.1104 9.48768 16.6478 23.5118
8663 2 2.2208 5.41346 -4.12196 16.5719
385 2 2.2208 5.24848 -1.24796 13.7346
317 2 2.2208 10.9093 18.2377 27.6528
339 2 2.2208 5.32549 12.576 27.6489
643 2 2.2208 -0.215827 6.91199 27.5899
343 2 2.2208 11.0674 12.6352 27.6659
318 2 2.2208 8.159 20.8713 27.703
9088 2 2.2208 -0.230737 1.36278 27.7195
333 2 2.2208 2.55873 4.11126 27.6245
454 2 2.2208 2.61424 6.92736 13.7811
332 2 2.2208 5.37813 1.35218 27.5225
573 2 2.2208 2.52348 -1.50955 27.6654
386 2 2.2208 2.4844 1.41063 13.7157
331 2 2.2208 8.23315 18.1064 13.7247
9343 2 2.2208 -0.249291 -1.3742 13.7097
322 2 2.2208 11.0726 9.80641 13.5788
320 2 2.2208 2.52601 12.5856 13.6958
481 2 2.2208 8.20633 7.0467 13.6213
9084 2 2.2208 -0.319835 15.4372 13.7014
387 2 2.2208 5.35755 4.09361 13.7621
671 2 2.2208 5.39069 23.7004 5.30317
672 2 2.2208 5.36249 29.2848 5.36744
673 1 -1.1104 1.12142 25.1649 1.12164
674 1 -1.1104 1.12066 25.078 3.86638
675 1 -1.1104 1.14054 22.2488 1.03258
676 1 -1.1104 1.04373 28.009 1.22349
677 2 2.2208 5.37903 26.4545 2.56981
678 1 -1.1104 1.27584 22.2851 3.80157
679 1 -1.1104 1.05724 27.8525 4.07893
680 1 -1.1104 3.81494 25.17 1.15689
681 2 2.2208 2.55898 23.771 2.46163
682 2 2.2208 2.43338 29.294 2.6939
683 1 -1.1104 3.95543 25.1922 3.948
684 2 2.2208 2.51117 26.6964 5.4961
685 1 -1.1104 3.94277 22.4051 1.03239
686 1 -1.1104 3.89798 27.8128 1.29641
687 1 -1.1104 3.9213 22.3369 3.85672
688 1 -1.1104 3.95939 27.9557 4.21881
691 2 2.2208 -0.407619 26.4674 2.47458
695 1 -1.1104 6.64518 27.8863 1.21146
1545 1 -1.1104 6.61803 47.6975 12.3075
690 2 2.2208 -0.280155 23.7411 5.19745
689 2 2.2208 -0.453747 29.3572 5.37933
1580 1 -1.1104 12.4574 47.5935 9.50855
694 1 -1.1104 6.82723 22.3179 1.14129
693 1 -1.1104 6.68152 25.0976 3.82115
692 1 -1.1104 6.78334 25.0282 1.0633
696 1 -1.1104 6.88214 22.3434 3.87945
697 1 -1.1104 6.64857 28.0361 4.08559
698 2 2.2208 11.0204 23.7985 5.23635
699 2 2.2208 10.9526 29.4308 5.36382
700 1 -1.1104 12.3501 25.2127 1.18336
701 1 -1.1104 12.348 25.2958 3.94579
702 1 -1.1104 12.3947 22.5382 1.02167
703 1 -1.1104 12.3913 27.9735 0.906518
704 2 2.2208 10.8493 26.5176 2.59478
705 1 -1.1104 12.4801 22.3645 3.71996
706 1 -1.1104 12.2195 28.0145 3.96912
707 1 -1.1104 9.52716 25.1048 1.00891
708 2 2.2208 8.16892 23.7382 2.41333
709 2 2.2208 8.03207 29.3809 2.40252
710 1 -1.1104 9.45891 25.1107 3.8777
711 2 2.2208 8.0723 26.55 5.40372
712 1 -1.1104 9.67449 22.3562 1.07269
713 1 -1.1104 9.47287 27.9753 1.19966
714 1 -1.1104 9.66868 22.3709 3.95042
715 1 -1.1104 9.29337 27.9355 3.95624
846 1 -1.1104 12.2717 22.2335 6.59538
850 1 -1.1104 9.49337 27.8992 6.65183
845 1 -1.1104 12.4689 25.2348 6.75265
1591 1 -1.1104 9.70486 47.5194 9.49711
996 2 2.2208 10.9492 29.249 -0.293224
994 2 2.2208 8.08236 26.4637 -0.359207
1308 2 2.2208 11.0203 34.9683 -0.190615
740 2 2.2208 -0.335408 37.9552 2.43092
719 2 2.2208 5.39916 35.0002 5.35244
720 1 -1.1104 1.12949 30.7928 1.15264
721 1 -1.1104 1.21696 36.5686 1.12619
723 1 -1.1104 1.07223 30.6114 3.91897
724 1 -1.1104 1.14998 36.428 4.08645
726 1 -1.1104 1.08378 33.5872 1.22079
727 2 2.2208 5.29316 32.0907 2.53727
728 2 2.2208 5.37257 37.8071 2.47894
729 1 -1.1104 1.06869 33.6633 3.91824
731 1 -1.1104 3.88526 30.7088 1.12342
732 1 -1.1104 4.10568 36.5403 1.06449
733 2 2.2208 2.54733 34.9518 2.52677
734 1 -1.1104 3.94078 30.6155 3.99337
735 1 -1.1104 3.93434 36.3916 3.82519
736 2 2.2208 2.56588 32.2045 5.31869
737 2 2.2208 2.54038 37.7259 5.45009
738 1 -1.1104 3.96629 33.6613 1.10022
739 1 -1.1104 3.75171 33.3424 3.83123
744 1 -1.1104 6.7463 30.7165 3.90473
1276 2 2.2208 2.60951 37.9117 -0.311116
790 2 2.2208 -0.411064 46.2247 5.32901
741 2 2.2208 -0.323168 32.2264 2.61234
742 2 2.2208 -0.30089 35.0212 5.35055
725 1 -1.1104 6.64835 36.3796 3.9099
730 1 -1.1104 6.6601 33.582 3.89095
743 1 -1.1104 6.61795 30.7826 1.11667
745 1 -1.1104 6.53915 33.6627 1.2155
722 1 -1.1104 6.77372 36.4658 0.976591
746 2 2.2208 10.9105 34.9149 5.40063
747 1 -1.1104 12.2692 30.7357 0.983566
748 1 -1.1104 12.158 36.4108 1.23975
749 1 -1.1104 12.3328 30.8201 3.76916
750 1 -1.1104 12.3787 36.4214 4.04685
751 1 -1.1104 12.4198 33.4907 1.18531
752 2 2.2208 10.8659 32.2411 2.66241
753 2 2.2208 10.9159 37.8129 2.47842
754 1 -1.1104 12.4042 33.7172 4.00192
755 1 -1.1104 9.43799 30.8125 1.10544
756 1 -1.1104 9.37378 36.604 1.18225
757 2 2.2208 8.02904 35.0467 2.4269
758 1 -1.1104 9.60768 30.7304 3.99145
759 1 -1.1104 9.39728 36.3089 3.99616
760 2 2.2208 8.13978 32.1507 5.33731
761 2 2.2208 8.1426 37.8433 5.29303
762 1 -1.1104 9.48007 33.592 1.29247
763 1 -1.1104 9.40975 33.4916 4.00752
907 1 -1.1104 9.61049 36.2356 6.69334
999 2 2.2208 8.16409 32.1186 -0.349145
871 1 -1.1104 6.66986 30.5807 6.65063
905 1 -1.1104 12.1464 33.4479 6.59734
906 1 -1.1104 9.45132 30.6714 6.70069
872 1 -1.1104 6.74601 36.3379 6.57688
1004 2 2.2208 5.37421 46.2932 -0.350561
966 1 -1.1104 9.63715 39.26 12.3833