ITEM: TIMESTEP
60000
ITEM: NUMBER OF ATOMS
17820
ITEM: BOX BOUNDS pp pp pp
-3.5537013601631062e-01 2.7695370136016056e+01
-4.1604361553896707e+00 3.3224043615540666e+02
-3.5967454889895289e-01 2.7699674548898823e+01
ITEM: ATOMS id type q x y z
1 2 2.2208 5.36274 1.59976 5.3956
2 1 -1.1104 0.938949 -2.74355 1.18491
3 1 -1.1104 0.992331 2.82529 1.24349
6 1 -1.1104 0.991002 -2.68957 3.82657
7 1 -1.1104 1.0443 2.86342 3.99699
10 1 -1.1104 1.1243 0.063176 1.09403
12 2 2.2208 5.16737 -1.31111 2.54393
13 2 2.2208 5.20192 4.4869 2.44832
14 1 -1.1104 1.09146 0.174853 3.96146
16 1 -1.1104 3.77569 -2.7634 1.23543
17 1 -1.1104 3.78041 3.05707 1.36933
18 2 2.2208 2.55252 1.57096 2.57904
19 1 -1.1104 3.85712 -2.70921 4.04042
20 1 -1.1104 3.91082 2.93686 3.99286
21 2 2.2208 2.48249 -1.24735 5.27483
22 2 2.2208 2.5212 4.41962 5.41936
23 1 -1.1104 3.89275 0.0632769 1.09039
24 1 -1.1104 3.88445 0.149685 3.76494
9 1 -1.1104 6.71649 3.0507 3.91814
8364 2 2.2208 5.22177 -4.11838 -0.35019
338 2 2.2208 2.49632 9.96052 -0.292127
11 1 -1.1104 6.60684 0.16191 1.08173
5 1 -1.1104 6.45548 2.99454 1.01927
8 1 -1.1104 6.6438 -2.82529 3.83762
8356 2 2.2208 10.7469 -4.05964 10.8814
173 1 -1.1104 3.74413 3.03698 6.82671
170 1 -1.1104 1.00627 0.155767 6.74974
166 1 -1.1104 0.93506 -2.70764 6.5828
168 1 -1.1104 6.66504 -2.64445 6.72381
8346 2 2.2208 2.41201 -4.21269 2.49534
4 1 -1.1104 6.66114 -2.7304 1.07819
8992 2 2.2208 -0.460292 12.7568 11.0021
15 1 -1.1104 6.68362 0.255547 3.86514
8350 2 2.2208 10.6838 -4.20516 5.28405
31 2 2.2208 10.9263 1.53058 5.2548
32 1 -1.1104 12.2668 -2.46911 1.01249
33 1 -1.1104 12.1275 3.01581 1.20546
34 1 -1.1104 12.1118 -2.59348 3.84695
35 1 -1.1104 12.2387 2.95625 3.90865
36 1 -1.1104 12.1612 0.147222 1.202
37 2 2.2208 10.7342 -1.27482 2.44636
38 2 2.2208 10.823 4.46598 2.43382
39 1 -1.1104 12.3228 0.152144 4.06905
40 1 -1.1104 9.32515 -2.63917 0.960664
41 1 -1.1104 9.3826 3.0721 1.0881
42 2 2.2208 8.05634 1.59957 2.46349
43 1 -1.1104 9.27813 -2.82015 3.77365
44 1 -1.1104 9.55896 3.06791 3.87297
45 2 2.2208 8.03662 -1.23648 5.1393
46 2 2.2208 8.07964 4.36922 5.25927
47 1 -1.1104 9.4226 0.144027 1.10625
48 1 -1.1104 9.46003 0.150212 3.93885
8355 2 2.2208 7.9215 -4.06168 8.1475
8349 2 2.2208 8.01689 -4.15077 2.4764
8347 2 2.2208 5.20909 -4.04028 5.37293
573 2 2.2208 2.3677 -1.39488 -0.240508
171 1 -1.1104 6.69774 0.0469315 6.68407
205 1 -1.1104 12.3644 -2.79917 6.67519
208 1 -1.1104 9.49413 -2.68246 6.51133
341 2 2.2208 10.806 7.20833 -0.280943
8361 2 2.2208 10.7487 -3.93529 -0.379791
481 2 2.2208 8.19245 7.20213 13.7832
54 2 2.2208 5.21752 7.19602 5.3106
55 2 2.2208 5.22989 12.6491 5.24174
56 1 -1.1104 1.0779 8.47862 1.02333
58 1 -1.1104 0.976998 8.44778 3.88267
60 1 -1.1104 0.863297 5.67695 1.21805
61 1 -1.1104 0.978302 11.3611 1.16691
66 2 2.2208 5.26539 9.95255 2.40191
67 1 -1.1104 0.966752 5.62694 3.948
68 1 -1.1104 1.0063 11.2959 3.87614
71 1 -1.1104 3.86089 8.57646 1.10409
72 2 2.2208 2.20755 7.08837 2.52311
73 2 2.2208 2.3095 12.7514 2.47363
74 1 -1.1104 3.73566 8.45618 3.91585
75 2 2.2208 2.42741 9.88617 5.23205
76 1 -1.1104 3.7215 5.86086 1.06889
77 1 -1.1104 3.78517 11.363 1.05634
79 1 -1.1104 3.79565 5.69161 3.923
80 1 -1.1104 3.75813 11.3987 3.69029
234 1 -1.1104 1.13392 8.55767 6.72116
238 1 -1.1104 3.83878 8.6885 6.80753
64 1 -1.1104 6.59279 11.3315 1.09613
8357 2 2.2208 13.6148 -4.02597 8.1061
63 1 -1.1104 6.7012 5.66535 1.06257
57 1 -1.1104 6.62266 8.54955 1.13217
236 1 -1.1104 1.01106 5.79903 6.80606
237 1 -1.1104 6.84557 5.72292 6.55034
83 2 2.2208 10.8568 18.2846 10.9243
202 1 -1.1104 9.39655 19.8281 12.2531
339 2 2.2208 5.16184 12.7666 -0.312697
8981 2 2.2208 13.5471 7.20242 7.97499
203 2 2.2208 8.02259 18.2971 8.01717
335 2 2.2208 7.98614 4.27575 -0.350786
70 1 -1.1104 6.64615 11.2148 3.88629
59 1 -1.1104 6.5865 8.40465 3.92151
69 1 -1.1104 6.57554 5.74931 3.89843
84 2 2.2208 10.8416 7.26936 5.32493
85 2 2.2208 10.786 12.7158 5.17434
86 1 -1.1104 12.2217 8.52467 1.03774
87 1 -1.1104 12.1295 8.5451 3.77073
88 1 -1.1104 12.1524 5.85012 1.15994
89 1 -1.1104 12.0653 11.4203 1.17903
91 2 2.2208 10.6963 9.99449 2.44069
92 1 -1.1104 12.3334 5.90621 4.02251
93 1 -1.1104 12.2585 11.3603 3.86404
94 1 -1.1104 9.37596 8.67964 1.0873
95 2 2.2208 8.00634 7.10965 2.48927
96 2 2.2208 7.88135 12.7827 2.36449
97 1 -1.1104 9.40999 8.64427 3.93533
98 2 2.2208 8.11446 9.9619 5.42035
99 1 -1.1104 9.41261 5.79677 1.10793
100 1 -1.1104 9.4283 11.4436 1.07436
102 1 -1.1104 9.39046 5.89771 3.96248
103 1 -1.1104 9.42061 11.3942 3.90802
267 1 -1.1104 9.50623 8.51662 6.81526
269 1 -1.1104 9.52174 5.74986 6.85192
101 1 -1.1104 9.49775 11.4138 6.76735
266 1 -1.1104 12.1365 5.67588 6.77017
289 1 -1.1104 6.62572 16.9263 9.36987
8351 2 2.2208 13.5912 -4.10781 2.5876
8868 2 2.2208 13.8183 15.6504 5.20388
81 2 2.2208 -0.35114 7.11328 5.29598
342 2 2.2208 8.05163 10.1258 -0.422497
106 2 2.2208 5.21434 18.3202 5.27703
107 1 -1.1104 1.04102 14.1134 0.95406
109 1 -1.1104 1.07374 19.6928 0.89409
113 1 -1.1104 1.04989 14.1562 3.78593
114 1 -1.1104 0.879116 19.8078 3.64195
116 1 -1.1104 1.09063 16.9623 0.981755
119 2 2.2208 5.22433 15.5228 2.47048
120 2 2.2208 5.17266 21.1362 2.51923
121 1 -1.1104 1.03446 16.8854 3.83396
123 1 -1.1104 3.71981 14.0958 1.17751
125 1 -1.1104 3.83846 19.826 0.972985
127 2 2.2208 2.46388 18.1947 2.42333
128 1 -1.1104 3.86865 14.1783 4.05286
129 1 -1.1104 3.70453 19.7119 3.79339
130 2 2.2208 2.51494 15.6162 5.23538
131 2 2.2208 2.24729 21.1316 5.22866
132 1 -1.1104 3.86705 16.8385 1.0465
134 1 -1.1104 3.9088 16.8842 3.78652
108 1 -1.1104 0.85589 14.3082 6.64064
124 1 -1.1104 3.8853 14.1226 6.72786
302 1 -1.1104 0.915778 19.81 6.54714
138 1 -1.1104 6.55912 19.8535 1.00883
126 1 -1.1104 3.76564 19.776 6.58993
337 2 2.2208 5.25592 7.18431 -0.312159
332 2 2.2208 5.14249 1.48538 -0.278163
9032 2 2.2208 13.7876 21.1477 10.9479
230 2 2.2208 10.8287 15.4568 8.05412
112 1 -1.1104 6.49772 19.6239 6.6591
115 1 -1.1104 6.6748 14.1742 3.72634
122 1 -1.1104 6.60843 16.954 3.7846
140 1 -1.1104 6.58339 17.0022 1.00409
139 1 -1.1104 6.66992 19.7913 3.86926
110 1 -1.1104 6.54553 14.0963 1.0711
141 2 2.2208 10.9414 18.3227 5.22495
142 1 -1.1104 12.266 14.3296 1.09287
144 1 -1.1104 12.1475 19.8053 0.993907
146 1 -1.1104 12.3474 14.2178 3.79501
147 1 -1.1104 12.2776 19.8612 3.94461
148 1 -1.1104 12.2465 17.0649 0.94484
150 2 2.2208 10.7479 15.6954 2.43888
151 2 2.2208 10.901 21.1482 2.47138
152 1 -1.1104 12.357 17.0549 3.88468
153 1 -1.1104 9.53407 14.2442 1.06071
155 1 -1.1104 9.23849 19.7389 0.966002
157 2 2.2208 7.88661 18.3382 2.4005
158 1 -1.1104 9.48366 14.1656 3.69793
159 1 -1.1104 9.46602 19.8206 3.78887
160 2 2.2208 8.17843 15.5363 5.26056
161 2 2.2208 8.03138 21.1649 5.33056
162 1 -1.1104 9.37589 17.0277 0.995592
164 1 -1.1104 9.38422 17.0141 3.87095
156 1 -1.1104 9.6122 19.7537 6.58057
143 1 -1.1104 12.19 14.0237 6.58447
145 1 -1.1104 12.3269 19.7432 6.70388
169 1 -1.1104 6.67715 3.10967 6.79985
8352 2 2.2208 2.36905 -4.08406 8.12738
50 2 2.2208 13.6202 -1.22929 5.28817
290 1 -1.1104 6.64771 14.1958 9.44471
172 1 -1.1104 3.89062 -2.6151 6.85175
167 1 -1.1104 1.02468 2.98572 6.77722
174 1 -1.1104 3.82328 0.242415 6.50212
175 2 2.2208 5.3433 1.58772 10.9044
176 1 -1.1104 1.06596 -2.61284 12.312
177 1 -1.1104 0.915532 2.96582 12.3416
180 1 -1.1104 0.958782 -2.69671 9.53534
181 1 -1.1104 1.11599 3.01285 9.67519
184 1 -1.1104 0.98216 0.0372627 12.3765
186 2 2.2208 5.10634 -1.29169 8.13738
187 2 2.2208 5.19598 4.42068 8.12634
188 1 -1.1104 1.0237 0.143981 9.47087
190 1 -1.1104 3.84756 -2.60471 12.3889
191 1 -1.1104 3.84894 2.85998 12.3779
192 2 2.2208 2.47056 1.57859 8.07848
193 1 -1.1104 3.73558 -2.58091 9.60117
194 1 -1.1104 3.88606 2.898 9.52161
195 2 2.2208 2.45975 -1.16686 10.9737
196 2 2.2208 2.427 4.41576 10.9814
197 1 -1.1104 3.76839 0.258885 12.3505
198 1 -1.1104 3.79442 0.187311 9.44295
182 1 -1.1104 6.42855 -2.84956 9.55289
189 1 -1.1104 6.63596 0.0577956 9.60702
178 1 -1.1104 6.58039 -2.48756 12.3022
312 1 -1.1104 12.2094 16.9056 9.54321
8847 2 2.2208 13.6352 21.1441 5.28962
49 2 2.2208 13.7121 1.50145 2.47769
29 2 2.2208 13.5573 9.93376 10.8558
206 1 -1.1104 12.258 2.69026 6.64604
209 1 -1.1104 9.38506 2.78031 6.70744
27 2 2.2208 -0.342908 4.32257 2.57979
26 2 2.2208 -0.391072 1.49628 5.35474
179 1 -1.1104 6.671 2.87828 12.2724
207 1 -1.1104 12.0747 0.0781159 6.82281
185 1 -1.1104 6.56409 0.238186 12.4571
210 1 -1.1104 9.37126 0.0750976 6.71209
183 1 -1.1104 6.79665 2.87064 9.48606
211 2 2.2208 10.8928 1.54144 10.8975
212 1 -1.1104 12.1701 -2.62634 12.2541
213 1 -1.1104 12.2467 2.92224 12.4212
214 1 -1.1104 12.2515 -2.73358 9.3791
215 1 -1.1104 12.293 2.8907 9.46919
216 1 -1.1104 12.3374 0.140494 12.2138
217 2 2.2208 10.8014 -1.36912 8.07128
218 2 2.2208 10.9083 4.1417 8.09543
219 1 -1.1104 12.1005 0.111087 9.44752
220 1 -1.1104 9.44314 -2.78237 12.3202
221 1 -1.1104 9.45932 2.95474 12.3808
222 2 2.2208 8.0343 1.42018 8.149
223 1 -1.1104 9.5398 -2.70831 9.45958
224 1 -1.1104 9.58864 3.02177 9.6326
225 2 2.2208 8.14734 -1.16342 11.1532
227 1 -1.1104 9.56612 0.193852 12.5023
228 1 -1.1104 9.36579 0.0392793 9.64224
226 2 2.2208 8.13981 4.32053 10.9081
165 1 -1.1104 12.2744 16.7166 12.1887
105 2 2.2208 13.6686 7.18684 2.58093
111 1 -1.1104 6.67645 14.1611 6.66404
314 1 -1.1104 9.31573 17.0181 9.57322
149 1 -1.1104 12.3861 16.7899 6.65881
315 1 -1.1104 9.36748 16.9323 12.3395
78 1 -1.1104 3.73294 11.3503 6.69772
239 1 -1.1104 3.81825 5.88265 6.7818
62 1 -1.1104 1.10511 11.384 6.71155
240 2 2.2208 5.24754 7.09476 11.0083
241 2 2.2208 5.32818 12.794 10.9057
242 1 -1.1104 1.10741 8.60551 12.5029
244 1 -1.1104 0.96673 8.69365 9.58942
246 1 -1.1104 1.07775 5.74746 12.264
247 1 -1.1104 1.03043 11.3431 12.3173
250 2 2.2208 5.16593 10.0755 8.17956
251 1 -1.1104 0.981045 5.7846 9.57743
252 1 -1.1104 0.955094 11.4776 9.41217
255 1 -1.1104 3.74832 8.53565 12.2019
256 2 2.2208 2.4845 7.19504 8.20718
257 2 2.2208 2.43827 12.7802 8.12126
258 1 -1.1104 3.8195 8.56874 9.56915
259 2 2.2208 2.45452 10.0244 10.9664
260 1 -1.1104 3.91789 5.69551 12.3836
261 1 -1.1104 3.92594 11.4322 12.3663
262 1 -1.1104 3.87747 5.80174 9.58922
263 1 -1.1104 3.85369 11.4631 9.4238
235 1 -1.1104 6.59366 8.65796 6.7735
253 1 -1.1104 6.67177 5.69796 9.41749
254 1 -1.1104 6.62809 11.4723 9.51305
135 1 -1.1104 12.3244 19.6927 12.1777
90 1 -1.1104 12.2205 11.244 6.63945
163 1 -1.1104 9.54109 16.9385 6.72864
104 1 -1.1104 12.1484 13.952 12.3829
65 1 -1.1104 6.68724 11.3858 6.7487
265 1 -1.1104 12.4341 8.5766 6.51734
245 1 -1.1104 6.62117 8.54513 9.65334
249 1 -1.1104 6.77544 11.3637 12.2729
248 1 -1.1104 6.6216 5.6061 12.3109
243 1 -1.1104 6.61544 8.49007 12.3519
264 1 -1.1104 9.38943 11.4446 9.59452
268 1 -1.1104 9.53129 5.734 9.59956
270 1 -1.1104 9.41123 11.4399 12.3443
271 1 -1.1104 9.47855 5.86026 12.2787
272 2 2.2208 8.08715 10.0632 10.9033
273 1 -1.1104 9.45376 8.68961 9.59985
274 2 2.2208 8.0089 12.8156 8.08712
275 2 2.2208 7.96632 7.11118 8.09526
276 2 2.2208 10.909 7.14663 10.891
277 2 2.2208 10.7677 12.7364 10.9281
278 1 -1.1104 12.2468 8.35307 12.1804
279 1 -1.1104 12.3041 8.59423 9.46151
280 1 -1.1104 12.0997 5.7714 12.3949
281 1 -1.1104 12.1422 11.1191 12.2411
282 2 2.2208 10.8038 9.90828 8.12821
283 1 -1.1104 12.3552 5.73508 9.49199
284 1 -1.1104 12.2078 11.4226 9.52749
285 1 -1.1104 9.49073 8.50243 12.377
154 1 -1.1104 9.41164 14.1657 6.59493
53 1 -1.1104 9.30837 14.1348 12.3392
9066 2 2.2208 13.6073 18.4176 8.14939
204 1 -1.1104 9.33911 14.2739 9.36646
117 1 -1.1104 1.16019 17.0442 6.60457
118 1 -1.1104 6.64132 17.005 6.51726
133 1 -1.1104 3.889 16.99 6.67362
288 1 -1.1104 6.56748 19.7318 9.39418
286 1 -1.1104 3.8014 19.7452 12.0996
287 1 -1.1104 3.86755 14.2621 12.3731
291 1 -1.1104 0.861366 19.8513 9.31898
292 1 -1.1104 0.875218 17.0671 9.50963
293 2 2.2208 5.17048 21.2378 8.08507
294 1 -1.1104 0.934009 14.2075 9.58088
295 2 2.2208 5.13597 15.6546 8.1142
298 1 -1.1104 1.02148 19.7365 12.1746
299 1 -1.1104 0.940877 14.0984 12.4054
300 2 2.2208 5.20957 18.3417 10.7398
301 1 -1.1104 3.75862 19.8469 9.37168
303 2 2.2208 2.27554 18.5287 8.11574
304 1 -1.1104 3.64858 17.1331 9.52324
305 1 -1.1104 3.73658 14.3823 9.399
307 1 -1.1104 0.957895 16.9932 12.3311
308 1 -1.1104 3.66074 17.0228 12.2446
309 2 2.2208 2.41027 21.1613 10.823
310 2 2.2208 2.3204 15.5678 10.9336
306 1 -1.1104 6.54453 16.9795 12.1329
297 1 -1.1104 6.43677 14.3362 12.2841
25 2 2.2208 -0.39053 -1.22857 2.51046
232 2 2.2208 7.98842 15.5397 10.9035
136 1 -1.1104 12.1826 14.1275 9.61651
296 1 -1.1104 6.60047 19.8211 12.1052
311 2 2.2208 10.7821 21.1341 8.04205
231 1 -1.1104 9.49639 19.6233 9.38859
137 1 -1.1104 12.1276 19.7113 9.47092
233 2 2.2208 7.99881 21.1669 10.8102
51 2 2.2208 13.7466 10.0585 5.21333
200 2 2.2208 -0.449556 -1.13227 8.10618
603 2 2.2208 7.97722 -1.23359 -0.275411
334 2 2.2208 10.9977 1.64901 -0.325126
328 2 2.2208 5.21582 15.59 13.8254
330 2 2.2208 10.8187 15.5783 13.6785
327 2 2.2208 5.24723 21.1406 13.5938
318 2 2.2208 7.80903 21.2174 -0.413344
336 2 2.2208 13.7153 4.39271 -0.245502
345 2 2.2208 5.19505 1.61815 16.5501
346 1 -1.1104 1.01275 -2.58448 17.861
347 1 -1.1104 1.03562 3.02891 18.1052
350 1 -1.1104 0.945241 -2.76487 15.0682
352 1 -1.1104 1.01179 3.02791 15.1729
358 1 -1.1104 0.904641 0.276693 17.9647
360 2 2.2208 5.03988 -1.22689 19.2282
361 2 2.2208 5.14936 4.26597 19.3806
362 1 -1.1104 0.953454 0.136548 15.2894
366 1 -1.1104 3.86591 -2.64548 17.8476
367 1 -1.1104 3.90222 2.90497 17.9294
368 2 2.2208 2.33498 1.56469 19.357
369 1 -1.1104 3.77774 -2.67899 15.1802
371 1 -1.1104 3.75028 2.81504 15.1449
373 2 2.2208 2.38266 -1.24403 16.5499
374 2 2.2208 2.37489 4.36549 16.5322
375 1 -1.1104 3.53937 0.0808432 17.9838
376 1 -1.1104 3.78252 0.115166 15.2744
331 2 2.2208 7.9564 18.3898 13.5712
8611 2 2.2208 2.31392 -4.04282 24.994
8662 2 2.2208 2.40679 -4.19257 19.4158
356 1 -1.1104 6.65679 2.95805 15.0997
364 1 -1.1104 6.57955 0.209948 15.2387
349 1 -1.1104 6.72447 2.90408 18.0294
359 1 -1.1104 6.3863 0.195972 17.968
8524 2 2.2208 10.6798 -4.10669 22.0995
8663 2 2.2208 5.31314 -4.09402 16.6197
547 1 -1.1104 12.3367 14.2477 23.548
357 1 -1.1104 6.61193 2.92245 20.8153
326 2 2.2208 2.36271 18.4662 13.6162
8638 2 2.2208 7.93947 -3.97818 13.731
8639 2 2.2208 8.03092 -4.28988 19.4193
354 1 -1.1104 6.6145 -2.69711 15.0976
348 1 -1.1104 6.53804 -2.83456 18.0015
388 2 2.2208 10.9215 1.62449 16.5631
389 1 -1.1104 12.1108 -2.59157 17.9103
390 1 -1.1104 12.2321 2.96961 18.0646
391 1 -1.1104 12.3522 -2.60446 15.0383
393 1 -1.1104 12.1702 2.98651 15.2248
395 1 -1.1104 12.2348 0.230253 17.9586
396 2 2.2208 10.8431 -1.17737 19.337
397 2 2.2208 10.8774 4.36563 19.3628
398 1 -1.1104 12.3076 0.068818 14.9687
400 1 -1.1104 9.28805 -2.76805 17.904
401 1 -1.1104 9.52338 2.92673 17.9562
402 2 2.2208 7.94646 1.47874 19.3596
403 1 -1.1104 9.47433 -2.47558 15.2135
405 1 -1.1104 9.43782 2.97774 15.0325
407 2 2.2208 7.95513 -1.25511 16.5736
409 1 -1.1104 9.36704 0.0922766 17.7731
410 1 -1.1104 9.49487 0.249659 15.2884
408 2 2.2208 8.1264 4.26925 16.5035
320 2 2.2208 2.38065 12.7499 13.7265
420 2 2.2208 10.9143 4.46838 13.7701
9071 2 2.2208 13.598 21.2009 27.7469
404 1 -1.1104 9.30869 -2.78943 20.6942
411 1 -1.1104 9.29779 -0.0359269 20.4699
417 2 2.2208 13.5899 12.7214 19.4085
611 1 -1.1104 12.2381 16.9783 26.1525
419 2 2.2208 10.9346 -1.25704 13.7735
576 1 -1.1104 12.0421 19.9439 23.341
412 2 2.2208 10.7388 18.3776 22.1439
421 2 2.2208 5.20286 7.27436 16.529
422 2 2.2208 5.10909 12.7171 16.6151
423 1 -1.1104 1.06904 8.52809 18.024
425 1 -1.1104 1.00859 8.53062 15.2988
429 1 -1.1104 0.911061 5.87439 17.8833
430 1 -1.1104 0.855562 11.5595 17.8693
433 2 2.2208 5.21767 9.94097 19.3554
434 1 -1.1104 0.96299 5.82868 15.1064
436 1 -1.1104 1.10788 11.4057 15.0963
442 1 -1.1104 3.78053 8.53773 17.9428
443 2 2.2208 2.39685 7.0933 19.4334
444 2 2.2208 2.28403 12.679 19.2931
445 1 -1.1104 3.86951 8.41058 15.0062
447 2 2.2208 2.35797 10.0195 16.599
448 1 -1.1104 3.77287 5.60939 18.0942
449 1 -1.1104 3.72967 11.229 17.8784
450 1 -1.1104 3.79231 5.74757 15.2055
452 1 -1.1104 3.63281 11.2723 15.0134
424 1 -1.1104 6.55316 8.34434 17.9557
440 1 -1.1104 6.47753 11.3213 15.1848
427 1 -1.1104 6.74517 8.45767 15.1806
431 1 -1.1104 6.67434 5.68977 17.9244
438 1 -1.1104 6.56215 5.76388 15.1629
637 1 -1.1104 6.56449 14.266 23.4738
446 1 -1.1104 4.02537 8.37333 20.7375
451 1 -1.1104 3.83779 5.54227 20.8134
9200 2 2.2208 13.5962 9.98393 16.606
378 2 2.2208 13.5199 15.6632 22.1152
432 1 -1.1104 6.70109 11.2869 17.9455
457 2 2.2208 10.8528 7.12534 16.6741
458 2 2.2208 10.8197 12.7221 16.4585
459 1 -1.1104 12.1794 8.53482 17.9386
460 1 -1.1104 12.1692 8.53198 15.0663
462 1 -1.1104 12.1644 5.82803 18.0907
463 1 -1.1104 12.1462 11.3228 17.9981
464 2 2.2208 10.8045 9.92014 19.4278
465 1 -1.1104 12.2627 5.80011 15.2422
467 1 -1.1104 12.295 11.2654 15.1864
469 1 -1.1104 9.35866 8.37655 18.0741
470 2 2.2208 7.92674 7.07313 19.3105
471 2 2.2208 8.06858 12.7768 19.3737
472 1 -1.1104 9.45838 8.64299 15.2842
474 2 2.2208 8.04594 9.86384 16.6549
475 1 -1.1104 9.42286 5.56373 17.8474
476 1 -1.1104 9.37257 11.332 17.9924
477 1 -1.1104 9.47211 5.7794 15.1611
479 1 -1.1104 9.25792 11.277 15.1818
461 1 -1.1104 12.2651 8.52787 20.6723
382 1 -1.1104 9.43593 17.0569 26.1945
473 1 -1.1104 9.46133 8.68312 20.7346
466 1 -1.1104 12.2985 5.6991 20.8028
386 2 2.2208 2.33895 1.52948 13.8329
484 2 2.2208 5.16563 18.3731 16.4416
485 1 -1.1104 1.02538 14.2056 17.9694
486 1 -1.1104 0.90598 19.9224 17.9691
489 1 -1.1104 0.829775 14.133 15.2296
491 1 -1.1104 1.06277 19.8103 15.1837
497 1 -1.1104 1.04997 16.9887 17.8659
499 2 2.2208 5.14352 15.5531 19.157
500 2 2.2208 5.22472 21.1365 19.2396
501 1 -1.1104 1.03907 16.993 15.057
505 1 -1.1104 3.70305 14.1509 18.0307
506 1 -1.1104 3.79712 19.7752 17.8454
507 2 2.2208 2.37646 18.4115 19.2768
508 1 -1.1104 3.74461 14.1101 15.0803
510 1 -1.1104 3.87472 19.7674 15.0207
512 2 2.2208 2.30928 15.5332 16.5032
513 2 2.2208 2.42573 21.1789 16.4705
514 1 -1.1104 3.77291 16.9977 17.8592
515 1 -1.1104 3.90121 17.0251 15.0739
495 1 -1.1104 6.59558 19.8713 14.8254
498 1 -1.1104 6.55775 16.9642 17.9843
493 1 -1.1104 6.56474 14.1657 15.1117
665 1 -1.1104 9.22244 19.7328 23.4206
490 1 -1.1104 0.830769 14.0693 20.5514
509 1 -1.1104 3.75189 13.9454 20.676
502 1 -1.1104 1.05283 16.8513 20.5899
492 1 -1.1104 0.905724 19.6666 20.6885
17709 2 2.2208 13.5979 -3.97351 19.355
322 2 2.2208 10.7086 9.83496 13.7372
503 1 -1.1104 6.5991 16.9755 15.0416
488 1 -1.1104 6.76196 19.6992 17.7079
487 1 -1.1104 6.38304 14.1322 17.9003
520 2 2.2208 10.8669 18.4677 16.3232
521 1 -1.1104 12.0933 14.1824 17.9264
522 1 -1.1104 12.1609 19.7365 17.6586
523 1 -1.1104 12.2244 14.0146 15.0537
525 1 -1.1104 12.1754 19.8691 14.9301
527 1 -1.1104 12.2229 16.9395 17.7749
528 2 2.2208 10.8302 15.5762 19.2924
529 2 2.2208 10.7192 21.1603 19.2575
530 1 -1.1104 12.1509 17.0307 14.926
532 1 -1.1104 9.3335 14.2143 17.8719
533 1 -1.1104 9.48896 19.8053 17.7809
534 2 2.2208 8.02079 18.4413 19.3023
535 1 -1.1104 9.4334 14.1695 15.1093
537 1 -1.1104 9.30882 19.8 15.067
539 2 2.2208 7.99751 15.6557 16.5223
540 2 2.2208 7.96889 21.1554 16.4527
541 1 -1.1104 9.33613 17.1339 17.8704
542 1 -1.1104 9.54366 16.9703 15.1459
496 1 -1.1104 6.46881 19.83 20.5438
543 1 -1.1104 9.43156 16.9221 20.4927
538 1 -1.1104 9.39197 19.7879 20.7047
9125 2 2.2208 13.5883 12.8097 24.9544
329 2 2.2208 10.866 21.2237 13.6516
8642 2 2.2208 2.36831 -4.01982 13.8254
319 2 2.2208 5.15108 9.90564 13.6487
324 2 2.2208 5.15606 18.3638 27.7052
377 1 -1.1104 3.68297 0.0697103 20.7113
372 1 -1.1104 3.73177 2.84897 20.8226
370 1 -1.1104 3.6415 -2.71507 20.7056
353 1 -1.1104 0.816893 3.18732 20.7725
363 1 -1.1104 0.886862 0.362913 20.6016
351 1 -1.1104 0.944149 -2.62404 20.7588
548 2 2.2208 5.09551 1.48084 22.2258
549 1 -1.1104 0.859681 -2.64843 23.4772
550 1 -1.1104 1.11455 3.03218 23.6337
553 1 -1.1104 1.01174 -2.6807 26.3664
554 1 -1.1104 1.01396 3.0062 26.4836
557 1 -1.1104 0.93212 0.154886 23.5403
559 2 2.2208 5.15374 -1.28017 24.9976
560 2 2.2208 5.30121 4.18762 24.9907
561 1 -1.1104 1.03923 0.0881265 26.3158
563 1 -1.1104 3.77035 -2.69504 23.6229
564 1 -1.1104 3.86203 3.01534 23.6966
565 2 2.2208 2.46762 1.58241 25.0109
566 1 -1.1104 3.82006 -2.75529 26.4234
567 1 -1.1104 3.75786 2.8659 26.4389
568 2 2.2208 2.31387 -1.20001 22.116
569 2 2.2208 2.50604 4.4006 22.1718
570 1 -1.1104 3.6727 0.197231 23.6844
571 1 -1.1104 3.62493 0.072061 26.4268
558 1 -1.1104 6.57611 0.19148 23.6401
562 1 -1.1104 6.4504 0.253845 26.4565
355 1 -1.1104 6.42535 -2.56605 20.8117
551 1 -1.1104 6.43606 -2.51281 23.6143
555 1 -1.1104 6.53627 -2.69615 26.4069
552 1 -1.1104 6.68563 2.82977 23.5869
642 1 -1.1104 9.4397 14.1384 23.4639
325 2 2.2208 2.39131 21.1331 27.7336
8640 2 2.2208 10.7311 -4.04741 16.4037
399 1 -1.1104 12.0878 0.233809 20.8322
8521 2 2.2208 7.84536 -3.96221 24.9551
343 2 2.2208 10.8113 12.7138 27.8217
581 1 -1.1104 12.1169 19.9428 26.2085
406 1 -1.1104 9.38129 2.78339 20.6697
392 1 -1.1104 12.3183 -2.46736 20.6213
394 1 -1.1104 12.285 2.95555 20.9584
365 1 -1.1104 6.43663 -0.0396541 20.8039
556 1 -1.1104 6.67356 2.89812 26.385
584 2 2.2208 10.8288 1.56584 22.314
585 1 -1.1104 12.1465 -2.73208 23.4866
586 1 -1.1104 12.2968 3.06301 23.6135
587 1 -1.1104 12.2199 -2.63889 26.3084
588 1 -1.1104 12.3625 3.02333 26.4628
589 1 -1.1104 12.227 0.260828 23.6876
590 2 2.2208 10.812 -1.06875 25.0076
592 1 -1.1104 12.1802 0.171929 26.415
593 1 -1.1104 9.35733 -2.44644 23.5749
594 1 -1.1104 9.58771 3.17317 23.512
595 2 2.2208 7.9396 1.59839 24.9945
596 1 -1.1104 9.36325 -2.57676 26.2504
597 1 -1.1104 9.52675 3.09555 26.3688
598 2 2.2208 8.01877 -1.23699 22.1368
600 1 -1.1104 9.49687 0.280286 23.5687
601 1 -1.1104 9.42505 0.334566 26.3388
591 2 2.2208 10.9234 4.49506 24.9477
385 2 2.2208 5.15014 -1.17733 13.8305
333 2 2.2208 2.34655 4.28063 27.9731
605 2 2.2208 10.7914 15.5143 24.9549
9132 2 2.2208 13.676 1.62352 19.4582
608 2 2.2208 7.94887 21.2372 22.0378
439 1 -1.1104 6.63275 5.62494 20.7452
453 1 -1.1104 3.84212 11.2417 20.7143
441 1 -1.1104 6.55752 11.282 20.7082
435 1 -1.1104 0.954272 5.7741 20.6645
437 1 -1.1104 0.895049 11.2851 20.6946
426 1 -1.1104 1.21784 8.56985 20.8684
613 2 2.2208 5.37417 7.08155 22.178
614 2 2.2208 5.16397 12.7531 22.0051
615 1 -1.1104 1.11811 8.59917 23.5472
617 1 -1.1104 1.08844 8.44764 26.3201
619 1 -1.1104 1.21644 5.72163 23.4743
620 1 -1.1104 0.908708 11.2786 23.361
623 2 2.2208 5.22027 9.94709 24.9142
624 1 -1.1104 1.17953 5.75189 26.4095
625 1 -1.1104 1.03062 11.2451 26.3032
628 1 -1.1104 3.86818 8.54088 23.6288
629 2 2.2208 2.53204 7.013 24.9601
630 2 2.2208 2.37732 12.6409 24.851
631 1 -1.1104 3.93385 8.52596 26.2699
632 2 2.2208 2.53652 9.83231 22.157
633 1 -1.1104 3.89751 5.82593 23.4841
634 1 -1.1104 3.71841 11.2308 23.5471
635 1 -1.1104 3.98122 5.64785 26.452
636 1 -1.1104 3.92877 11.3459 26.2648
627 1 -1.1104 6.63984 11.4874 26.3843
622 1 -1.1104 6.6627 11.3668 23.422
626 1 -1.1104 6.72076 5.60666 26.3384
606 1 -1.1104 9.18652 19.8651 26.1755
428 1 -1.1104 6.58639 8.51901 20.7848
468 1 -1.1104 12.1846 11.3522 20.8682
610 2 2.2208 10.7284 21.3396 24.8601
599 2 2.2208 8.03553 4.24629 22.0788
621 1 -1.1104 6.65548 5.70368 23.4767
616 1 -1.1104 6.58168 8.48208 23.5893
480 1 -1.1104 9.35036 11.3024 20.6728
478 1 -1.1104 9.38108 5.63971 20.6313
618 1 -1.1104 6.75775 8.49807 26.4059
644 1 -1.1104 9.52289 11.4853 26.167
645 1 -1.1104 9.40605 5.79518 26.3969
646 1 -1.1104 9.48185 11.4948 23.4556
647 1 -1.1104 9.43429 6.03969 23.4364
648 2 2.2208 8.00382 9.99892 22.1133
649 1 -1.1104 9.39734 8.74577 26.3816
650 2 2.2208 8.04912 12.8738 24.7389
651 2 2.2208 8.13311 7.20954 25.1077
652 2 2.2208 10.7566 7.14233 22.0053
653 2 2.2208 10.8714 12.7898 22.0861
654 1 -1.1104 12.2133 8.66952 23.3948
655 1 -1.1104 12.1372 8.62088 26.1882
656 1 -1.1104 12.2104 5.87378 23.4549
657 1 -1.1104 12.2029 11.493 23.6201
658 2 2.2208 10.8459 10.0307 24.7112
659 1 -1.1104 12.2732 5.89638 26.3143
660 1 -1.1104 12.2622 11.5601 26.5209
661 1 -1.1104 9.38043 8.82239 23.4935
607 2 2.2208 7.98112 15.5364 22.0222
583 1 -1.1104 12.0652 17.0604 23.4641
531 1 -1.1104 12.2488 16.9713 20.734
494 1 -1.1104 6.67768 14.0588 20.6775
578 1 -1.1104 6.5082 19.7451 26.3065
640 1 -1.1104 6.42078 19.736 23.5208
8613 2 2.2208 13.6855 -3.99635 13.7126
666 1 -1.1104 6.44782 16.9329 26.3972
516 1 -1.1104 3.91823 16.9767 20.5776
511 1 -1.1104 3.83036 19.6439 20.5281
482 2 2.2208 2.40133 15.6124 21.9902
517 2 2.2208 2.3688 21.1465 21.9729
518 1 -1.1104 3.57415 16.8702 23.4897
519 1 -1.1104 0.891729 16.9979 23.3488
545 1 -1.1104 3.75277 14.0347 26.3324
546 1 -1.1104 3.66087 16.8263 26.3614
572 2 2.2208 2.25586 18.3355 24.7988
574 1 -1.1104 3.7094 19.6764 26.23
602 2 2.2208 5.14807 18.3569 22.0772
604 1 -1.1104 1.0512 14.2189 23.2974
612 1 -1.1104 0.944498 19.8506 23.4391
638 2 2.2208 5.0374 15.562 24.9976
639 2 2.2208 5.05577 21.1266 24.8657
662 1 -1.1104 0.908294 14.0055 26.1877
663 1 -1.1104 0.907837 16.9404 26.2934
664 1 -1.1104 0.79112 19.7903 26.2035
668 1 -1.1104 3.67338 19.6966 23.3338
670 1 -1.1104 3.84219 14.1285 23.4533
669 1 -1.1104 6.34993 14.182 26.228
579 1 -1.1104 9.37648 14.3243 26.3641
580 1 -1.1104 12.1843 14.2017 26.2979
524 1 -1.1104 12.0547 14.2112 20.7032
544 1 -1.1104 6.40797 17.0997 23.6503
456 2 2.2208 7.9208 18.4311 24.9067
526 1 -1.1104 12.1986 19.7756 20.4036
536 1 -1.1104 9.43872 14.1953 20.6604
504 1 -1.1104 6.64323 17.0989 20.8494
381 1 -1.1104 9.42498 16.8255 23.4358
9073 2 2.2208 13.6776 12.735 13.6333
387 2 2.2208 5.28167 4.28277 13.8038
575 2 2.2208 13.6869 7.33038 19.4929
9166 2 2.2208 13.8263 1.513 25.0324
9131 2 2.2208 -0.457154 12.7656 22.1002
383 2 2.2208 -0.454205 18.4193 22.0035
9173 2 2.2208 13.6106 18.3685 24.8536
416 2 2.2208 13.6399 -1.23912 16.5604
641 2 2.2208 -0.389577 9.80799 24.8679
384 2 2.2208 13.557 18.4828 19.2122
577 2 2.2208 -0.408618 4.45138 13.647
9270 2 2.2208 13.5235 15.456 16.4794
17734 2 2.2208 13.5712 -4.06687 24.806
9070 2 2.2208 13.6617 7.17716 13.7303
483 2 2.2208 7.90209 12.7753 13.7661
323 2 2.2208 2.37012 15.4497 27.6262
454 2 2.2208 2.39979 7.1424 13.7228
418 2 2.2208 8.05762 1.64245 13.824
344 2 2.2208 13.5553 9.91991 27.7787
316 2 2.2208 7.91939 15.5923 27.6187
317 2 2.2208 10.7184 18.445 27.5816
9068 2 2.2208 13.6423 15.5856 27.7183
671 2 2.2208 5.28119 23.918 5.2782
672 2 2.2208 5.31358 29.6507 5.17557
673 1 -1.1104 0.999624 25.4662 1.13914
674 1 -1.1104 1.05239 25.4166 3.95135
675 1 -1.1104 0.818379 22.638 1.02284
676 1 -1.1104 0.90598 28.2762 1.12363
677 2 2.2208 5.23248 26.6832 2.46224
678 1 -1.1104 0.855082 22.7015 3.84829
679 1 -1.1104 1.16715 28.2155 3.78107
680 1 -1.1104 3.81827 25.3725 1.13149
681 2 2.2208 2.28091 24.0926 2.48208
682 2 2.2208 2.42502 29.6176 2.46081
683 1 -1.1104 3.85244 25.2924 3.78257
684 2 2.2208 2.4231 26.747 5.19605
685 1 -1.1104 3.59291 22.5897 1.10277
686 1 -1.1104 3.67799 28.1341 1.16857
687 1 -1.1104 3.68865 22.4255 3.93635
688 1 -1.1104 4.06351 28.1973 3.92011
819 1 -1.1104 3.71953 22.6551 6.70524
976 1 -1.1104 12.2181 39.2504 12.2374
695 1 -1.1104 6.56881 28.1401 1.04418
971 1 -1.1104 9.54649 42.1687 12.2128
694 1 -1.1104 6.46627 22.5836 1.02647
693 1 -1.1104 6.61767 25.313 3.84641
999 2 2.2208 8.05189 32.3862 -0.440884
1543 1 -1.1104 0.913686 47.8959 12.2352
690 2 2.2208 -0.578309 23.946 5.23979
816 1 -1.1104 6.57871 22.3805 6.70504
696 1 -1.1104 6.60404 22.5077 3.90009
692 1 -1.1104 6.70164 25.357 1.1095
697 1 -1.1104 6.60508 28.3053 3.73587
698 2 2.2208 10.9015 23.9293 5.27235
699 2 2.2208 10.9245 29.503 5.22169
700 1 -1.1104 12.1911 25.2507 1.07265
701 1 -1.1104 12.296 25.3758 3.83857
702 1 -1.1104 12.1983 22.6124 1.07348
703 1 -1.1104 12.2825 28.1825 0.953231
704 2 2.2208 10.8104 26.6597 2.38005
705 1 -1.1104 12.4429 22.5264 3.8622
706 1 -1.1104 12.2797 28.1549 3.77928
707 1 -1.1104 9.48606 25.1937 1.09989
708 2 2.2208 7.98158 23.776 2.51954
709 2 2.2208 8.12225 29.6525 2.27524
710 1 -1.1104 9.27904 25.233 3.93759
711 2 2.2208 7.99853 26.7672 5.21605
712 1 -1.1104 9.39088 22.4926 1.0052
713 1 -1.1104 9.37997 28.0512 0.944443
714 1 -1.1104 9.48772 22.5697 3.89518
715 1 -1.1104 9.48625 28.0242 3.72592
846 1 -1.1104 12.3385 22.6123 6.5955
848 1 -1.1104 9.42259 25.2392 6.64381
9987 2 2.2208 -0.334882 43.5097 13.6101
952 1 -1.1104 6.58382 42.1105 12.208
849 1 -1.1104 9.51914 22.5269 6.57169
9751 2 2.2208 13.7509 32.4233 -0.41858
719 2 2.2208 5.42598 35.1647 5.16805
720 1 -1.1104 1.03051 31.1227 0.95612
721 1 -1.1104 1.06065 36.5525 0.852688
723 1 -1.1104 1.01503 30.9809 3.87054
724 1 -1.1104 1.02316 36.5881 3.51568
726 1 -1.1104 1.14329 33.7935 0.879033
727 2 2.2208 5.34603 32.3043 2.33495
728 2 2.2208 5.35849 37.9612 2.3595
729 1 -1.1104 1.13853 33.9288 3.7563
731 1 -1.1104 3.93621 30.9325 1.07098
732 1 -1.1104 3.90997 36.7341 0.944846
733 2 2.2208 2.45466 35.1394 2.36119
734 1 -1.1104 3.81139 31.0843 3.77608
735 1 -1.1104 3.88886 36.6962 3.70832
736 2 2.2208 2.49258 32.3908 5.14845
737 2 2.2208 2.58895 37.9489 5.22735
738 1 -1.1104 3.77192 33.832 1.00753
739 1 -1.1104 3.98147 33.8134 3.80671
875 1 -1.1104 3.89878 30.7834 6.58453
722 1 -1.1104 6.69709 36.4624 1.08573
9586 2 2.2208 13.6103 29.4918 8.23629
902 2 2.2208 -0.298804 37.9084 8.08352
1167 2 2.2208 2.47431 40.621 13.4805
982 2 2.2208 -0.434437 35.0847 10.7686
789 2 2.2208 -0.261878 43.586 2.37185
725 1 -1.1104 6.7255 36.4443 3.81803
730 1 -1.1104 6.67481 33.7551 3.66457
745 1 -1.1104 6.71921 33.6644 1.05491
743 1 -1.1104 6.67861 31.0334 0.810588
744 1 -1.1104 6.70179 31.0438 3.6852
746 2 2.2208 10.9614 35.1693 5.27279
747 1 -1.1104 12.3223 31.0221 0.944276
748 1 -1.1104 12.3887 36.7411 1.01416
749 1 -1.1104 12.2685 31.1128 3.69131
750 1 -1.1104 12.3838 36.6337 3.98443
751 1 -1.1104 12.158 33.9174 1.09983
752 2 2.2208 10.8237 32.4939 2.36281
753 2 2.2208 11.0254 37.9903 2.45528
754 1 -1.1104 12.15 33.7736 3.82486
755 1 -1.1104 9.49025 30.9642 0.967626
756 1 -1.1104 9.47621 36.6161 1.16459
757 2 2.2208 8.11115 35.1772 2.40934
758 1 -1.1104 9.49115 30.8489 3.82065
759 1 -1.1104 9.64063 36.6143 4.03744
760 2 2.2208 8.22057 32.3266 5.19077