ITEM: TIMESTEP
30000
ITEM: NUMBER OF ATOMS
17820
ITEM: BOX BOUNDS pp pp pp
-3.6214808396223930e-01 2.7702148083962005e+01
-4.1790527617569913e+00 3.3225905276176780e+02
-3.5731266362146802e-01 2.7697312663621229e+01
ITEM: ATOMS id type q x y z
1 2 2.2208 5.42291 1.44448 5.34538
2 1 -1.1104 1.3048 -2.6969 0.993642
3 1 -1.1104 1.32051 2.83357 0.884688
6 1 -1.1104 1.25681 -2.87177 3.85398
7 1 -1.1104 1.31459 2.89366 3.78592
10 1 -1.1104 1.34577 0.0220185 1.01929
12 2 2.2208 5.47063 -1.35405 2.55402
13 2 2.2208 5.39132 4.30311 2.55628
14 1 -1.1104 1.23919 0.0975155 3.94663
16 1 -1.1104 4.05283 -2.86992 1.14293
17 1 -1.1104 4.02688 2.89575 1.08397
18 2 2.2208 2.74504 1.52716 2.48003
19 1 -1.1104 4.10703 -2.73479 3.89083
20 1 -1.1104 3.99657 2.95767 3.95804
21 2 2.2208 2.56226 -1.29896 5.23424
22 2 2.2208 2.59906 4.3235 5.24718
23 1 -1.1104 4.04975 0.0235329 1.0147
24 1 -1.1104 3.93518 0.129713 3.78012
8356 2 2.2208 11.0978 -4.12471 10.8851
27 2 2.2208 -0.0569879 4.20027 2.39669
26 2 2.2208 -0.160175 1.46382 5.12791
8999 2 2.2208 -0.305353 9.93989 8.18125
232 2 2.2208 8.19113 15.4322 10.9324
167 1 -1.1104 1.28321 2.96105 6.6385
312 1 -1.1104 12.3786 16.8859 9.55064
296 1 -1.1104 7.04852 19.7152 12.4573
233 2 2.2208 8.23871 21.1771 10.9503
8347 2 2.2208 5.35029 -4.00017 5.25702
104 1 -1.1104 12.4664 14.0265 12.2599
137 1 -1.1104 12.3715 19.6323 9.64323
9 1 -1.1104 6.81439 2.8058 3.92082
5 1 -1.1104 6.84309 2.95225 1.01048
15 1 -1.1104 6.88087 -0.105625 3.84063
11 1 -1.1104 6.82731 0.00474477 1.0315
4 1 -1.1104 6.67421 -2.72227 1.0515
8 1 -1.1104 6.80401 -2.7844 3.89609
31 2 2.2208 10.9756 1.40113 5.28833
32 1 -1.1104 12.2525 -2.85988 1.18335
33 1 -1.1104 12.4816 2.79816 1.05835
34 1 -1.1104 12.5053 -2.66282 3.85213
35 1 -1.1104 12.3828 2.81155 3.85203
36 1 -1.1104 12.4328 0.11033 1.03345
37 2 2.2208 10.9957 -1.43906 2.46656
38 2 2.2208 10.943 4.16511 2.48498
39 1 -1.1104 12.4783 0.123547 3.97367
40 1 -1.1104 9.56959 -2.73473 1.03307
41 1 -1.1104 9.58242 2.92966 1.08791
42 2 2.2208 8.29421 1.42734 2.40725
43 1 -1.1104 9.70066 -2.84745 3.93138
44 1 -1.1104 9.74717 2.85477 3.84446
45 2 2.2208 8.04273 -1.31419 5.27234
46 2 2.2208 8.30189 4.2119 5.31361
47 1 -1.1104 9.61611 0.110323 0.990184
48 1 -1.1104 9.54788 -0.0133628 3.88247
207 1 -1.1104 12.4363 -0.0386434 6.67298
8354 2 2.2208 -0.104935 -4.10411 10.8768
209 1 -1.1104 9.66136 2.84605 6.63814
8353 2 2.2208 5.3918 -4.08375 10.9404
321 2 2.2208 -0.17078 18.3219 -0.203301
136 1 -1.1104 12.4289 14.0889 9.52099
9064 2 2.2208 -0.35572 12.7635 5.30331
54 2 2.2208 5.34913 7.09494 5.39801
55 2 2.2208 5.29255 12.7264 5.27235
56 1 -1.1104 1.07721 8.56263 1.15343
58 1 -1.1104 1.20144 8.47116 3.96851
60 1 -1.1104 1.32568 5.75141 1.22087
61 1 -1.1104 1.33204 11.2977 1.03478
66 2 2.2208 5.38984 9.84358 2.4049
67 1 -1.1104 1.11413 5.6414 3.89903
68 1 -1.1104 1.16437 11.2435 3.874
71 1 -1.1104 4.00425 8.59321 1.11442
72 2 2.2208 2.61818 7.23719 2.60726
73 2 2.2208 2.56694 12.6912 2.46874
74 1 -1.1104 4.06711 8.58198 3.87537
75 2 2.2208 2.5491 10.0644 5.25951
76 1 -1.1104 4.01622 5.761 1.01364
77 1 -1.1104 4.14627 11.3005 1.15085
79 1 -1.1104 3.94588 5.68276 3.90637
80 1 -1.1104 3.85978 11.3518 3.8857
78 1 -1.1104 3.86299 11.493 6.55916
238 1 -1.1104 3.828 8.67672 6.61341
82 2 2.2208 -0.157176 9.83119 2.49976
81 2 2.2208 -0.226483 7.0446 5.23291
62 1 -1.1104 1.09649 11.3845 6.69575
59 1 -1.1104 6.81349 8.39513 3.84628
236 1 -1.1104 1.17119 5.70357 6.74047
25 2 2.2208 -0.135324 -1.47651 2.48837
8349 2 2.2208 8.18104 -4.08238 2.46568
63 1 -1.1104 6.99331 5.53933 1.13215
64 1 -1.1104 6.88135 11.2519 0.871752
70 1 -1.1104 6.66119 11.2302 3.77816
57 1 -1.1104 6.88364 8.51565 1.07876
69 1 -1.1104 6.84629 5.63219 4.0193
84 2 2.2208 11.039 6.99529 5.2395
85 2 2.2208 10.9549 12.6825 5.26407
86 1 -1.1104 12.4744 8.53732 1.1131
87 1 -1.1104 12.5213 8.25158 3.91223
88 1 -1.1104 12.5825 5.62924 0.977136
89 1 -1.1104 12.4036 11.2278 1.17072
91 2 2.2208 11.0742 9.76733 2.46338
92 1 -1.1104 12.3706 5.58622 3.80906
93 1 -1.1104 12.2519 11.2485 3.93122
94 1 -1.1104 9.69927 8.47329 1.02079
95 2 2.2208 8.38456 6.94326 2.52003
96 2 2.2208 8.06741 12.5979 2.4284
97 1 -1.1104 9.66582 8.4788 3.7272
98 2 2.2208 8.28423 9.82063 5.1756
99 1 -1.1104 9.74748 5.55605 1.16492
100 1 -1.1104 9.55346 11.1391 1.0744
102 1 -1.1104 9.64989 5.65697 3.95723
103 1 -1.1104 9.64839 11.2239 3.78924
265 1 -1.1104 12.3348 8.46437 6.72362
267 1 -1.1104 9.57071 8.39754 6.43898
237 1 -1.1104 6.72989 5.61926 6.77758
101 1 -1.1104 9.61545 11.1365 6.69825
90 1 -1.1104 12.2961 11.303 6.66042
235 1 -1.1104 6.8164 8.50034 6.61267
266 1 -1.1104 12.4317 5.63645 6.7174
8965 2 2.2208 -0.152998 15.4529 2.52001
106 2 2.2208 5.29437 18.2729 5.27061
107 1 -1.1104 1.04709 14.0768 1.11025
109 1 -1.1104 1.26608 19.7874 1.1046
113 1 -1.1104 1.21205 13.9558 3.7872
114 1 -1.1104 1.1752 19.95 4.0286
116 1 -1.1104 1.21597 16.9308 1.21902
119 2 2.2208 5.39941 15.494 2.57382
120 2 2.2208 5.45765 21.0937 2.46271
121 1 -1.1104 1.09427 16.9306 3.88375
123 1 -1.1104 3.89688 14.0594 1.23046
125 1 -1.1104 4.07249 19.7208 1.18328
127 2 2.2208 2.59342 18.4642 2.65862
128 1 -1.1104 4.10426 14.1273 3.85804
129 1 -1.1104 3.92183 19.6946 4.04258
130 2 2.2208 2.43265 15.5427 5.23069
131 2 2.2208 2.63148 21.3423 5.39983
132 1 -1.1104 4.00319 17.0115 1.0918
134 1 -1.1104 3.7825 16.8938 3.96247
124 1 -1.1104 3.79976 14.2687 6.7843
8931 2 2.2208 -0.150835 21.1639 2.49995
8930 2 2.2208 -0.183635 18.4494 5.30849
133 1 -1.1104 3.96566 17.0404 6.70645
302 1 -1.1104 1.05414 19.8423 6.71539
139 1 -1.1104 6.88227 19.6024 4.08246
117 1 -1.1104 1.20158 17.0825 6.72289
126 1 -1.1104 4.03094 19.6957 6.74851
288 1 -1.1104 6.68577 19.786 9.66581
135 1 -1.1104 12.5137 19.7341 12.3507
140 1 -1.1104 6.82767 17.0846 1.06828
138 1 -1.1104 6.8662 19.8361 1.16036
122 1 -1.1104 6.68416 16.916 3.73114
143 1 -1.1104 12.3186 14.1227 6.71312
110 1 -1.1104 6.67242 14.111 1.06489
115 1 -1.1104 6.9102 14.0849 3.75472
141 2 2.2208 11.0811 18.4192 5.40934
142 1 -1.1104 12.3564 13.9755 1.20498
144 1 -1.1104 12.5391 19.6155 1.16776
146 1 -1.1104 12.2789 14.0605 3.99346
147 1 -1.1104 12.4785 19.5974 4.06084
148 1 -1.1104 12.3648 16.6766 1.24159
150 2 2.2208 11.0522 15.3212 2.49858
151 2 2.2208 11.0373 21.1189 2.59083
152 1 -1.1104 12.428 16.9086 4.02842
153 1 -1.1104 9.51427 14.0163 1.10051
155 1 -1.1104 9.74168 19.6616 1.04698
157 2 2.2208 8.30134 18.3499 2.42139
158 1 -1.1104 9.73425 14.1195 3.86206
159 1 -1.1104 9.56708 19.9463 3.88337
160 2 2.2208 8.22541 15.4954 5.22387
161 2 2.2208 8.33493 21.0954 5.46756
162 1 -1.1104 9.62006 16.8367 1.12068
164 1 -1.1104 9.37337 16.8717 3.90943
111 1 -1.1104 6.67752 14.1995 6.54178
118 1 -1.1104 6.74871 17.0104 6.64901
149 1 -1.1104 12.3992 16.9156 6.89343
156 1 -1.1104 9.85449 19.6478 6.72609
154 1 -1.1104 9.55657 13.8941 6.63784
163 1 -1.1104 9.6084 16.859 6.82528
343 2 2.2208 10.8463 12.6337 -0.251764
8350 2 2.2208 10.9606 -4.04174 5.32345
204 1 -1.1104 9.64546 14.0738 9.56056
325 2 2.2208 2.73699 21.1751 -0.32369
8346 2 2.2208 2.659 -4.1456 2.30022
145 1 -1.1104 12.4222 19.5563 6.86673
166 1 -1.1104 1.32338 -2.76429 6.6379
172 1 -1.1104 4.06915 -2.80227 6.72051
173 1 -1.1104 4.15085 2.8377 6.70385
170 1 -1.1104 1.19054 0.120069 6.83266
174 1 -1.1104 4.08522 -0.0152084 6.53825
175 2 2.2208 5.43706 1.49007 10.9172
176 1 -1.1104 1.30202 -2.6554 12.3209
177 1 -1.1104 1.14324 2.92197 12.3565
180 1 -1.1104 1.35419 -2.82324 9.48381
181 1 -1.1104 1.09373 2.84818 9.43295
184 1 -1.1104 1.03654 0.12404 12.157
186 2 2.2208 5.49972 -1.34997 8.11081
187 2 2.2208 5.50781 4.33493 8.19052
188 1 -1.1104 1.43401 0.0320131 9.43225
190 1 -1.1104 3.98037 -2.70812 12.3649
191 1 -1.1104 3.96982 2.93742 12.3574
192 2 2.2208 2.58884 1.54782 8.0974
193 1 -1.1104 4.25466 -2.66541 9.52675
194 1 -1.1104 3.84238 2.9233 9.50943
195 2 2.2208 2.70096 -1.27365 10.7871
196 2 2.2208 2.45532 4.31579 10.8459
197 1 -1.1104 4.07116 0.131853 12.231
198 1 -1.1104 4.04408 0.056963 9.47666
200 2 2.2208 -0.0974721 -1.31636 8.0807
201 2 2.2208 -0.211538 1.57302 10.9275
199 2 2.2208 -0.257389 4.32126 8.07616
165 1 -1.1104 12.4354 16.8112 12.4075
289 1 -1.1104 6.72434 16.9645 9.54728
290 1 -1.1104 6.96279 14.2363 9.45149
314 1 -1.1104 9.52281 16.9172 9.61731
208 1 -1.1104 9.52343 -2.85228 6.87542
8348 2 2.2208 -0.0771914 -4.16108 5.21011
202 1 -1.1104 9.75477 19.7374 12.2618
171 1 -1.1104 6.81323 0.1271 6.56958
206 1 -1.1104 12.4428 2.86757 6.73315
183 1 -1.1104 6.82812 2.89979 9.59673
169 1 -1.1104 6.86597 2.87526 6.7765
168 1 -1.1104 6.676 -2.59761 6.47774
178 1 -1.1104 6.84513 -2.79408 12.2369
179 1 -1.1104 6.87879 2.72414 12.3874
210 1 -1.1104 9.67393 0.0722447 6.67939
182 1 -1.1104 6.99773 -2.75222 9.23396
185 1 -1.1104 6.86034 -0.0391514 12.2119
189 1 -1.1104 6.84924 0.0692218 9.39587
205 1 -1.1104 12.3844 -2.87281 6.65447
211 2 2.2208 10.989 1.48427 10.6848
212 1 -1.1104 12.419 -2.77109 12.3213
213 1 -1.1104 12.3334 2.95869 12.1822
214 1 -1.1104 12.4656 -2.80108 9.43594
215 1 -1.1104 12.4416 2.80083 9.4421
216 1 -1.1104 12.4569 0.149596 12.2394
217 2 2.2208 11.1052 -1.37896 8.07847
218 2 2.2208 11.0948 4.31414 7.99001
219 1 -1.1104 12.5032 0.0296829 9.50506
220 1 -1.1104 9.70225 -2.70427 12.2579
221 1 -1.1104 9.60153 2.9039 12.1111
222 2 2.2208 8.21091 1.44864 8.07215
223 1 -1.1104 9.78572 -2.73838 9.6154
224 1 -1.1104 9.57441 2.92903 9.41569
225 2 2.2208 8.32744 -1.38672 10.8388
227 1 -1.1104 9.70449 0.218167 12.2427
228 1 -1.1104 9.7168 0.0379649 9.52721
306 1 -1.1104 6.75106 16.957 12.2634
234 1 -1.1104 1.10053 8.47235 6.74828
8992 2 2.2208 -0.159923 12.744 10.9548
239 1 -1.1104 3.86964 5.8285 6.78048
315 1 -1.1104 9.65961 16.9931 12.2851
28 2 2.2208 -0.189092 7.04215 10.8222
240 2 2.2208 5.32818 7.28962 11.0019
241 2 2.2208 5.31666 12.7074 10.6688
242 1 -1.1104 1.27601 8.57641 12.2619
244 1 -1.1104 0.990177 8.39916 9.46419
246 1 -1.1104 0.99778 5.84414 12.4152
247 1 -1.1104 1.34887 11.4139 12.339
250 2 2.2208 5.42371 9.90754 8.02152
251 1 -1.1104 1.26007 5.63723 9.48152
252 1 -1.1104 1.13075 11.1609 9.62817
255 1 -1.1104 4.06502 8.62694 12.3231
256 2 2.2208 2.4964 7.07532 8.08572
257 2 2.2208 2.44837 12.7566 7.97732
258 1 -1.1104 3.92891 8.56271 9.50706
259 2 2.2208 2.66018 9.84494 10.8856
260 1 -1.1104 3.83285 5.7829 12.2479
261 1 -1.1104 4.11371 11.2996 12.1168
262 1 -1.1104 3.93309 5.69824 9.55253
263 1 -1.1104 4.00725 11.2458 9.32313
112 1 -1.1104 7.026 19.8634 7.02251
53 1 -1.1104 9.71297 14.2057 12.4125
65 1 -1.1104 6.73215 11.3056 6.62179
226 2 2.2208 8.33436 4.24814 10.9474
249 1 -1.1104 6.96 11.4025 12.3235
269 1 -1.1104 9.53988 5.72704 6.60612
245 1 -1.1104 6.84737 8.55777 9.61432
243 1 -1.1104 6.78375 8.39545 12.4232
248 1 -1.1104 6.64778 5.7174 12.364
254 1 -1.1104 6.72168 11.3984 9.43577
253 1 -1.1104 6.81039 5.66768 9.52111
264 1 -1.1104 9.50639 11.2448 9.46912
268 1 -1.1104 9.73738 5.71987 9.51141
270 1 -1.1104 9.61542 11.3704 12.3291
271 1 -1.1104 9.57891 5.64407 12.4037
272 2 2.2208 8.27821 9.95359 10.8873
273 1 -1.1104 9.62886 8.45574 9.35194
274 2 2.2208 8.1406 12.7628 8.11976
275 2 2.2208 8.20556 7.03483 8.07562
276 2 2.2208 10.9758 7.12568 10.8958
277 2 2.2208 11.0131 12.6702 10.9552
278 1 -1.1104 12.2852 8.43902 12.224
279 1 -1.1104 12.4276 8.3957 9.50928
280 1 -1.1104 12.536 5.5991 12.2788
281 1 -1.1104 12.4634 11.1828 12.3701
282 2 2.2208 10.93 9.831 8.06775
283 1 -1.1104 12.4633 5.57963 9.42276
284 1 -1.1104 12.3436 11.2017 9.57773
285 1 -1.1104 9.55355 8.49045 12.2561
231 1 -1.1104 9.54756 19.6871 9.4112
108 1 -1.1104 0.936577 14.1108 6.58094
8772 2 2.2208 -0.245621 21.0008 8.16366
313 2 2.2208 -0.240371 15.5651 8.15858
8771 2 2.2208 -0.145354 18.2504 10.957
286 1 -1.1104 3.98092 19.7948 12.3638
287 1 -1.1104 4.02573 14.2032 12.1012
291 1 -1.1104 1.09761 19.6802 9.57488
292 1 -1.1104 1.17574 16.8536 9.50033
293 2 2.2208 5.36885 21.0864 8.18917
294 1 -1.1104 1.07979 13.9987 9.43834
295 2 2.2208 5.40465 15.6232 8.03162
298 1 -1.1104 1.00218 19.745 12.4186
299 1 -1.1104 1.10082 14.2206 12.2281
300 2 2.2208 5.3235 18.3302 10.9232
301 1 -1.1104 3.9509 19.7358 9.51327
303 2 2.2208 2.51168 18.3613 8.14399
304 1 -1.1104 3.90207 16.9628 9.50319
305 1 -1.1104 3.93677 14.118 9.42178
307 1 -1.1104 1.08991 16.9812 12.247
308 1 -1.1104 3.92827 16.8508 12.4004
309 2 2.2208 2.50802 21.1708 11.0473
310 2 2.2208 2.52011 15.4998 10.8197
297 1 -1.1104 6.68286 14.1416 12.2343
311 2 2.2208 11.0597 21.049 8.26727
203 2 2.2208 8.22108 18.3127 8.17087
230 2 2.2208 10.9417 15.4983 8.22687
83 2 2.2208 10.9795 18.2491 10.9322
8355 2 2.2208 8.13359 -4.17107 8.07966
8352 2 2.2208 2.70575 -4.1897 7.95686
317 2 2.2208 11.1356 18.2415 -0.295057
8365 2 2.2208 -0.226312 -4.16716 -0.300995
340 2 2.2208 -0.23876 12.7322 -0.305759
338 2 2.2208 2.52192 9.89048 -0.327437
323 2 2.2208 2.54767 15.5188 -0.356349
9343 2 2.2208 -0.157286 -1.28739 13.6594
9088 2 2.2208 -0.0639679 1.39939 -0.250735
385 2 2.2208 5.45691 -1.42511 13.6396
643 2 2.2208 -0.0324486 7.07405 -0.231349
418 2 2.2208 8.32121 1.41837 13.4972
386 2 2.2208 2.56216 1.49883 13.471
341 2 2.2208 11.1149 7.07222 -0.343409
339 2 2.2208 5.40476 12.596 -0.334133
316 2 2.2208 8.12337 15.3984 -0.245505
328 2 2.2208 5.42205 15.5612 13.6668
419 2 2.2208 11.0573 -1.26774 13.5112
345 2 2.2208 5.39751 1.41347 16.3407
346 1 -1.1104 1.31688 -2.59591 17.8313
347 1 -1.1104 1.19111 2.90287 17.8411
350 1 -1.1104 1.20162 -2.62126 15.0527
352 1 -1.1104 1.13223 2.94584 15.0915
358 1 -1.1104 1.16052 0.095503 17.8726
360 2 2.2208 5.38516 -1.41962 19.2067
361 2 2.2208 5.50649 4.27311 19.2026
362 1 -1.1104 1.25219 0.20035 14.996
366 1 -1.1104 3.9745 -2.85693 17.83
367 1 -1.1104 4.01092 2.70374 17.9465
368 2 2.2208 2.67965 1.32426 19.2842
369 1 -1.1104 3.89358 -2.79956 15.061
371 1 -1.1104 3.80064 2.60584 15.0593
373 2 2.2208 2.5807 -1.37935 16.3965
374 2 2.2208 2.55598 4.31706 16.4859
375 1 -1.1104 3.94291 -0.0682237 17.8463
376 1 -1.1104 4.10959 -0.0617452 14.9844
377 1 -1.1104 3.85493 -0.0418023 20.7564
9345 2 2.2208 -0.280818 -1.37531 19.2325
9198 2 2.2208 -0.193892 1.45087 16.5587
9169 2 2.2208 -0.234366 4.32002 19.2112
524 1 -1.1104 12.4911 14.2854 20.6796
606 1 -1.1104 9.7212 19.659 26.4928
326 2 2.2208 2.44911 18.2388 13.8658
372 1 -1.1104 4.01834 2.7092 20.6798
370 1 -1.1104 4.05735 -2.75277 20.6455
665 1 -1.1104 9.57831 19.7985 23.6743
578 1 -1.1104 6.92661 19.5953 26.3891
320 2 2.2208 2.76584 12.7668 13.6992
356 1 -1.1104 6.72684 2.90292 15.0647
349 1 -1.1104 6.7639 2.91601 17.8595
348 1 -1.1104 6.75474 -2.80484 17.8767
354 1 -1.1104 6.76339 -2.7738 14.9269
359 1 -1.1104 6.76289 0.0806407 17.826
364 1 -1.1104 6.726 0.042937 14.9681
388 2 2.2208 10.9473 1.42361 16.3659
389 1 -1.1104 12.3192 -2.74151 17.9786
390 1 -1.1104 12.4319 2.87651 17.7618
391 1 -1.1104 12.4055 -2.64393 15.0581
393 1 -1.1104 12.3058 2.84269 15.0113
395 1 -1.1104 12.3842 0.0787514 17.8777
396 2 2.2208 11.0425 -1.30596 19.2167
397 2 2.2208 11.0906 4.22707 19.1112
398 1 -1.1104 12.5409 0.164676 15.0571
400 1 -1.1104 9.54894 -2.78859 17.7963
401 1 -1.1104 9.65278 2.8257 17.8006
402 2 2.2208 8.05369 1.42057 19.2358
403 1 -1.1104 9.68801 -2.73639 15.0406
405 1 -1.1104 9.61797 2.80914 15.0328
407 2 2.2208 8.20223 -1.32509 16.3942
408 2 2.2208 8.26501 4.24393 16.4398
409 1 -1.1104 9.33709 0.0346173 17.7997
410 1 -1.1104 9.55882 0.143561 14.9925
17713 2 2.2208 -0.235687 -4.11155 22.1799
669 1 -1.1104 6.68837 13.8845 26.4055
8612 2 2.2208 5.35605 -4.12532 22.0435
411 1 -1.1104 9.74568 0.090279 20.7132
406 1 -1.1104 9.64267 2.851 20.5966
357 1 -1.1104 6.77392 2.85339 20.6501
365 1 -1.1104 6.86126 -0.00297419 20.7341
17550 2 2.2208 -0.197744 -4.04446 16.4166
8640 2 2.2208 10.9625 -4.14582 16.3591
415 2 2.2208 -0.316838 12.553 16.5044
421 2 2.2208 5.47463 7.00411 16.4304
422 2 2.2208 5.38068 12.7178 16.6192
423 1 -1.1104 1.20774 8.65131 18.0145
425 1 -1.1104 1.28593 8.46261 15.23
429 1 -1.1104 1.11285 5.99118 17.9756
430 1 -1.1104 1.27383 11.3286 17.9539
433 2 2.2208 5.45921 9.84524 19.2692
434 1 -1.1104 1.26685 5.69139 15.1573
436 1 -1.1104 1.28593 11.1392 15.3173
442 1 -1.1104 4.02616 8.44548 17.9494
443 2 2.2208 2.68189 7.08113 19.4201
444 2 2.2208 2.59691 12.7495 19.3733
445 1 -1.1104 4.03604 8.38235 15.017
447 2 2.2208 2.70914 9.85288 16.5527
448 1 -1.1104 3.95531 5.61087 18.0385
449 1 -1.1104 4.19336 11.299 17.9738
450 1 -1.1104 4.01565 5.50029 15.2008
452 1 -1.1104 4.06817 11.2905 15.0884
413 2 2.2208 -0.237824 7.08644 16.5174
414 2 2.2208 -0.217895 9.92947 19.3346
435 1 -1.1104 1.35203 5.71477 20.8317
432 1 -1.1104 6.8536 11.3344 17.9568
437 1 -1.1104 1.18343 11.173 20.5947
446 1 -1.1104 4.10958 8.66207 20.7162
453 1 -1.1104 3.98144 11.4099 20.7067
451 1 -1.1104 4.17624 5.614 20.8309
426 1 -1.1104 1.34292 8.40248 20.902
427 1 -1.1104 6.77655 8.54821 15.1829
431 1 -1.1104 6.72678 5.63017 17.7502
424 1 -1.1104 6.81006 8.43568 17.8057
438 1 -1.1104 6.95849 5.76507 15.1391
440 1 -1.1104 6.66126 11.3406 15.1892
457 2 2.2208 11.1759 7.13252 16.4731
458 2 2.2208 10.8998 12.7288 16.5895
459 1 -1.1104 12.4835 8.54609 17.7586
460 1 -1.1104 12.4203 8.50865 14.9842
462 1 -1.1104 12.3806 5.73133 17.8132
463 1 -1.1104 12.4762 11.2075 18.0279
464 2 2.2208 11.0059 9.86908 19.2495
465 1 -1.1104 12.4394 5.71142 15.1305
467 1 -1.1104 12.2975 11.5197 15.1773
469 1 -1.1104 9.70707 8.66996 17.8405
470 2 2.2208 8.29469 7.11932 19.1264
471 2 2.2208 8.20389 12.6536 19.2519
472 1 -1.1104 9.63051 8.60947 14.9933
474 2 2.2208 8.18494 9.86596 16.5255
475 1 -1.1104 9.54117 5.69684 17.6973
476 1 -1.1104 9.54511 11.4621 17.7982
477 1 -1.1104 9.62924 5.82917 14.9924
479 1 -1.1104 9.45931 11.2809 15.1009
441 1 -1.1104 6.8375 11.3623 20.7064
468 1 -1.1104 12.3909 11.3627 20.6993
478 1 -1.1104 9.71405 5.60911 20.5066
439 1 -1.1104 7.02146 5.68902 20.5591
428 1 -1.1104 6.86415 8.42819 20.5831
466 1 -1.1104 12.4645 5.65861 20.5072
603 2 2.2208 8.19047 -1.36011 27.6482
327 2 2.2208 5.47897 20.9952 13.7877
9313 2 2.2208 -0.194316 18.2857 16.6484
484 2 2.2208 5.451 18.1976 16.56
485 1 -1.1104 1.19347 14.0827 17.8411
486 1 -1.1104 1.30773 19.5973 17.9353
489 1 -1.1104 1.06965 13.9806 14.9926
491 1 -1.1104 1.14968 19.6034 15.1211
497 1 -1.1104 1.15661 16.9557 17.9288
499 2 2.2208 5.25841 15.5279 19.3331
500 2 2.2208 5.35002 21.0653 19.3301
501 1 -1.1104 1.12815 16.8319 15.0559
505 1 -1.1104 3.94018 14.0773 17.9387
506 1 -1.1104 4.00053 19.6367 18.0663
507 2 2.2208 2.55396 18.1426 19.4642
508 1 -1.1104 3.94948 14.0449 14.9633
510 1 -1.1104 4.0968 19.4973 15.1299
512 2 2.2208 2.53446 15.4747 16.4565
513 2 2.2208 2.66888 20.9544 16.5326
514 1 -1.1104 3.91969 16.7581 17.9416
515 1 -1.1104 4.00317 16.7337 15.2677
502 1 -1.1104 1.19355 16.8383 20.8254
509 1 -1.1104 4.06004 14.1737 20.6834
380 2 2.2208 -0.188875 21.0215 19.3894
516 1 -1.1104 3.92887 16.8713 20.7985
379 2 2.2208 -0.219028 15.5475 19.3253
511 1 -1.1104 4.02389 19.5554 20.7162
8524 2 2.2208 11.0767 -4.15363 22.0771
490 1 -1.1104 1.0363 14.103 20.7355
492 1 -1.1104 1.21328 19.5912 20.7862
8662 2 2.2208 2.64648 -4.18532 19.3624
329 2 2.2208 10.9944 21.1301 13.7575
503 1 -1.1104 6.91597 16.9548 15.0725
487 1 -1.1104 6.79838 14.1869 17.9087
495 1 -1.1104 6.6622 19.6251 15.2152
498 1 -1.1104 6.7913 16.8802 17.8647
493 1 -1.1104 6.77556 14.1812 15.1233
488 1 -1.1104 6.73394 19.5226 18.0028
520 2 2.2208 11.1011 18.3409 16.4907
521 1 -1.1104 12.5129 14.1094 18.0337
522 1 -1.1104 12.3614 19.7701 17.8575
523 1 -1.1104 12.4561 14.2072 15.2654
525 1 -1.1104 12.3445 19.8586 15.1351
527 1 -1.1104 12.4745 16.9025 17.9141
528 2 2.2208 11.0151 15.6184 19.3035
529 2 2.2208 10.9421 21.1483 19.3636
530 1 -1.1104 12.5145 16.956 15.2226
532 1 -1.1104 9.54424 14.293 18.077
533 1 -1.1104 9.63987 19.6884 17.6855
534 2 2.2208 8.14357 18.3016 19.3476
535 1 -1.1104 9.69272 14.132 15.1363
537 1 -1.1104 9.63964 19.6971 14.9294
539 2 2.2208 8.28207 15.704 16.4763
540 2 2.2208 8.38282 20.9584 16.4453
541 1 -1.1104 9.68425 16.9999 18.0189
542 1 -1.1104 9.77573 16.9231 15.197
538 1 -1.1104 9.52834 19.7667 20.8585
531 1 -1.1104 12.3598 17.0635 20.6745
330 2 2.2208 11.0816 15.4553 13.7863
351 1 -1.1104 1.23108 -2.7389 20.7184
8639 2 2.2208 8.26107 -4.08215 19.1654
363 1 -1.1104 1.25109 0.149267 20.7062
353 1 -1.1104 1.1962 2.94136 20.5411
548 2 2.2208 5.35687 1.34976 22.0779
549 1 -1.1104 1.21005 -2.7236 23.4302
550 1 -1.1104 1.36096 2.77565 23.4529
553 1 -1.1104 1.33283 -2.84446 26.1478
554 1 -1.1104 1.23891 2.81584 26.3467
557 1 -1.1104 1.14541 0.0862289 23.565
559 2 2.2208 5.40337 -1.37373 24.8563
560 2 2.2208 5.62974 4.12381 24.7806
561 1 -1.1104 1.18975 -0.00442212 26.3425
563 1 -1.1104 3.96124 -2.70941 23.564
564 1 -1.1104 4.06802 2.85369 23.534
565 2 2.2208 2.61527 1.41294 24.9298
566 1 -1.1104 4.04448 -2.8987 26.3103
567 1 -1.1104 4.02296 2.76239 26.3418
568 2 2.2208 2.59459 -1.4147 22.0962
569 2 2.2208 2.74306 4.17052 22.1174
570 1 -1.1104 3.88771 0.0311998 23.5018
571 1 -1.1104 4.05312 0.0583647 26.2184
9316 2 2.2208 -0.124678 -1.25225 24.9548
9168 2 2.2208 -0.0467675 4.27746 25.0348
582 2 2.2208 -0.0450471 1.54781 22.0258
583 1 -1.1104 12.442 16.8784 23.5145
607 2 2.2208 8.23281 15.5289 22.0281
392 1 -1.1104 12.4553 -2.75023 20.7371
404 1 -1.1104 9.68709 -2.64099 20.5529
640 1 -1.1104 6.84743 19.7261 23.5962
412 2 2.2208 11.065 18.4382 22.1755
355 1 -1.1104 7.03158 -2.63743 20.4891
394 1 -1.1104 12.5866 2.74669 20.6957
552 1 -1.1104 6.8219 2.95195 23.2921
555 1 -1.1104 6.81901 -2.71088 26.2002
558 1 -1.1104 6.7102 0.154035 23.5341
399 1 -1.1104 12.5095 0.137845 20.7398
556 1 -1.1104 6.87247 2.96942 26.2237
551 1 -1.1104 6.72945 -2.72425 23.3673
562 1 -1.1104 6.83274 0.0305469 26.394
584 2 2.2208 11.1092 1.46926 22.0932
585 1 -1.1104 12.4459 -2.80805 23.5668
586 1 -1.1104 12.4956 2.79964 23.6173
587 1 -1.1104 12.3423 -2.75824 26.3943
588 1 -1.1104 12.4819 2.84942 26.2955
589 1 -1.1104 12.4234 0.0535127 23.5131
590 2 2.2208 11.0955 -1.34502 24.8562
592 1 -1.1104 12.3808 -0.0828313 26.336
593 1 -1.1104 9.58887 -2.76648 23.3843
594 1 -1.1104 9.62477 2.94972 23.5225
595 2 2.2208 8.31885 1.57617 24.8653
596 1 -1.1104 9.65746 -2.78647 26.0282
597 1 -1.1104 9.70005 2.87067 26.3398
598 2 2.2208 8.2881 -1.34455 22.0259
599 2 2.2208 8.37313 4.27945 21.9835
600 1 -1.1104 9.49304 0.0818913 23.5244
601 1 -1.1104 9.61251 0.153027 26.3384
591 2 2.2208 11.2545 4.3446 24.7857
331 2 2.2208 8.38621 18.3137 13.6831
9131 2 2.2208 -0.202414 12.6885 22.0525
9420 2 2.2208 -0.106613 7.05547 22.27
613 2 2.2208 5.5472 6.97043 22.0238
614 2 2.2208 5.47425 12.6966 22.1351
615 1 -1.1104 1.23287 8.56554 23.7806
617 1 -1.1104 1.34347 8.51339 26.3663
619 1 -1.1104 1.32701 5.64113 23.5458
620 1 -1.1104 1.30433 11.2898 23.4476
623 2 2.2208 5.2151 9.92877 24.8354
624 1 -1.1104 1.33598 5.69377 26.4101
625 1 -1.1104 1.14872 11.2451 26.3901
628 1 -1.1104 3.93063 8.51496 23.404
629 2 2.2208 2.79476 6.9729 24.9654
630 2 2.2208 2.61041 12.6331 24.9485
631 1 -1.1104 4.04381 8.30104 26.336
632 2 2.2208 2.60547 9.86241 22.0719
633 1 -1.1104 4.22391 5.63554 23.6282
634 1 -1.1104 4.00011 11.4248 23.5307
635 1 -1.1104 4.09642 5.53569 26.2711
636 1 -1.1104 3.9154 11.184 26.3617
641 2 2.2208 -0.176601 9.99778 24.966
382 1 -1.1104 9.59977 16.8215 26.3303
580 1 -1.1104 12.3685 14.1676 26.5813
608 2 2.2208 8.25064 21.2155 22.1239
481 2 2.2208 8.18244 7.07431 13.7484
480 1 -1.1104 9.64355 11.1271 20.5899
611 1 -1.1104 12.4972 16.7867 26.4559
461 1 -1.1104 12.3816 8.53755 20.6099
627 1 -1.1104 6.73303 11.1195 26.2284
626 1 -1.1104 6.93797 5.76283 26.305
616 1 -1.1104 6.85602 8.47106 23.4249
473 1 -1.1104 9.64907 8.42199 20.6112
621 1 -1.1104 6.86265 5.73388 23.4673
618 1 -1.1104 6.98537 8.39238 26.199
622 1 -1.1104 6.83502 11.2766 23.5186
644 1 -1.1104 9.59992 11.2007 26.4183
645 1 -1.1104 9.81159 5.62764 26.4505
646 1 -1.1104 9.69161 11.3437 23.5045
647 1 -1.1104 9.66926 5.69352 23.4407
648 2 2.2208 8.34542 9.86982 22.126
649 1 -1.1104 9.69654 8.35876 26.2076
650 2 2.2208 8.26989 12.7241 24.8905
651 2 2.2208 8.21947 7.10154 24.8187
652 2 2.2208 11.0112 7.08049 21.9983
653 2 2.2208 11.1027 12.7805 22.0839
654 1 -1.1104 12.5741 8.66591 23.4937
655 1 -1.1104 12.5865 8.49366 26.2178
656 1 -1.1104 12.4156 5.8832 23.4136
657 1 -1.1104 12.5141 11.3448 23.4322
658 2 2.2208 11.0799 9.85755 24.8533
659 1 -1.1104 12.6324 5.79191 26.2498
660 1 -1.1104 12.482 11.4156 26.3393
661 1 -1.1104 9.67952 8.50047 23.4074
581 1 -1.1104 12.4979 19.6744 26.3418
383 2 2.2208 -0.0926888 18.2193 22.2148
455 2 2.2208 -0.138057 21.0565 25.0228
9124 2 2.2208 -0.253084 15.6189 25.2453
482 2 2.2208 2.68406 15.4941 22.216
517 2 2.2208 2.65649 21.16 22.2129
518 1 -1.1104 3.957 16.9487 23.4774
519 1 -1.1104 1.14053 17.0032 23.6918
545 1 -1.1104 3.99487 14.1195 26.4156
546 1 -1.1104 4.09572 16.9138 26.1596
572 2 2.2208 2.62053 18.3177 24.9524
574 1 -1.1104 4.07603 19.7509 26.2661
602 2 2.2208 5.3748 18.2996 22.0865
604 1 -1.1104 1.18607 14.2395 23.6186
612 1 -1.1104 1.30196 19.6394 23.6254
638 2 2.2208 5.51131 15.3491 24.958
639 2 2.2208 5.46297 21.132 24.8502
662 1 -1.1104 1.285 14.027 26.3622
663 1 -1.1104 1.19765 16.9207 26.6253
664 1 -1.1104 1.28824 19.726 26.398
668 1 -1.1104 3.95775 19.7256 23.5964
670 1 -1.1104 4.15386 14.2015 23.5278
496 1 -1.1104 6.83336 19.7637 20.7528
547 1 -1.1104 12.3391 14.1499 23.5938
576 1 -1.1104 12.5087 19.6399 23.5719
504 1 -1.1104 6.75606 16.9084 20.6785
536 1 -1.1104 9.59618 13.9942 20.8349
494 1 -1.1104 6.79761 14.0519 20.5848
543 1 -1.1104 9.52591 16.8775 20.5995
526 1 -1.1104 12.3353 19.7813 20.6163
605 2 2.2208 11.0047 15.5965 25.041
381 1 -1.1104 9.61795 17.1034 23.5288
544 1 -1.1104 6.83885 16.8225 23.6058
642 1 -1.1104 9.55147 14.2843 23.4993
456 2 2.2208 8.32328 18.2969 25.0469
666 1 -1.1104 6.98347 16.7774 26.3611
610 2 2.2208 11.1478 21.0497 25.0658
579 1 -1.1104 9.51122 14.0295 26.3871
637 1 -1.1104 6.81738 14.0356 23.4938
9077 2 2.2208 -0.174451 9.95662 13.7217
322 2 2.2208 11.029 9.891 13.7102
8521 2 2.2208 8.24726 -4.16612 24.7207
335 2 2.2208 8.27375 4.35027 27.7047
577 2 2.2208 -0.147665 4.40204 13.7978
9085 2 2.2208 -0.226672 21.0981 13.7269
334 2 2.2208 10.9712 1.50728 27.6745
332 2 2.2208 5.49073 1.47687 27.6629
342 2 2.2208 8.20683 9.88575 27.6398
454 2 2.2208 2.60167 7.10025 13.7378
319 2 2.2208 5.45273 9.95152 13.7265
318 2 2.2208 8.32857 21.0681 27.7155
324 2 2.2208 5.46031 18.3959 27.7037
483 2 2.2208 8.06764 12.7051 13.8161
333 2 2.2208 2.75259 4.25977 27.6171
420 2 2.2208 11.0257 4.32033 13.6813
387 2 2.2208 5.26611 4.1946 13.6911
573 2 2.2208 2.68101 -1.30359 27.5807
8642 2 2.2208 2.51917 -4.21467 13.7833
337 2 2.2208 5.56108 7.04115 27.6425
8638 2 2.2208 8.24106 -4.14678 13.7278
671 2 2.2208 5.35191 23.9526 5.2267
672 2 2.2208 5.35188 29.4962 5.41278
673 1 -1.1104 1.25307 25.2536 1.30337
674 1 -1.1104 1.19867 25.5114 4.04947
675 1 -1.1104 1.11476 22.5938 1.12111
676 1 -1.1104 1.11347 28.0011 1.11026
677 2 2.2208 5.37523 26.6517 2.55645
678 1 -1.1104 1.15301 22.709 3.80896
679 1 -1.1104 1.13785 28.411 3.90552
680 1 -1.1104 4.01945 25.3866 1.07143
681 2 2.2208 2.64754 23.9869 2.5816
682 2 2.2208 2.67946 29.628 2.53567
683 1 -1.1104 4.01246 25.3656 3.85322
684 2 2.2208 2.63686 26.8142 5.30576
685 1 -1.1104 4.17325 22.699 1.07949
686 1 -1.1104 3.92873 28.2602 1.12107
687 1 -1.1104 3.92251 22.4738 3.85903
688 1 -1.1104 3.88998 28.0995 4.00759
812 1 -1.1104 1.40493 25.2967 6.71739
690 2 2.2208 -0.213266 23.9653 5.40749
691 2 2.2208 -0.196584 26.744 2.54285
814 1 -1.1104 1.13842 22.5238 6.82871
1003 2 2.2208 -0.294539 46.3245 -0.337167
689 2 2.2208 -0.148022 29.5502 5.37919
790 2 2.2208 -0.122128 46.2867 5.31402
819 1 -1.1104 3.97388 22.5498 6.87497
820 1 -1.1104 3.95642 28.0779 6.89375
9645 2 2.2208 13.6425 37.9167 11.0352
697 1 -1.1104 6.66849 27.9545 3.83739
695 1 -1.1104 6.78923 28.1839 1.01687
694 1 -1.1104 6.83241 22.5124 1.16066
696 1 -1.1104 6.76597 22.3805 3.99208
692 1 -1.1104 6.86667 25.3907 1.1031
693 1 -1.1104 6.70812 25.2063 3.81386
698 2 2.2208 11.0642 23.89 5.33453
699 2 2.2208 10.9859 29.4636 5.18317
700 1 -1.1104 12.2862 25.2438 1.29414
701 1 -1.1104 12.5642 25.3963 4.01661
702 1 -1.1104 12.3072 22.4505 1.15113
703 1 -1.1104 12.2869 27.9385 1.05768
704 2 2.2208 10.9417 26.6401 2.58513
705 1 -1.1104 12.3814 22.5998 3.86224
706 1 -1.1104 12.3501 28.0192 3.81277
707 1 -1.1104 9.48579 25.2694 1.20751
708 2 2.2208 8.18482 23.8318 2.48586
709 2 2.2208 8.25138 29.4518 2.53667
710 1 -1.1104 9.60836 25.3164 4.02403
711 2 2.2208 8.14218 26.6515 5.35738
712 1 -1.1104 9.60689 22.4484 1.27956
713 1 -1.1104 9.59237 27.9559 1.21255
714 1 -1.1104 9.57828 22.6725 4.11613
715 1 -1.1104 9.56467 28.0866 3.90635
847 1 -1.1104 12.3194 28.228 6.60882
813 1 -1.1104 6.84104 25.2571 6.64328
850 1 -1.1104 9.50663 28.1301 6.65049
849 1 -1.1104 9.68976 22.5253 6.76325
993 2 2.2208 10.9695 23.8412 -0.244414
719 2 2.2208 5.47822 35.1587 5.33534
720 1 -1.1104 1.23085 30.8793 1.10612
721 1 -1.1104 1.35956 36.4986 1.12887
723 1 -1.1104 1.14112 31.0434 3.94683
724 1 -1.1104 1.139 36.5412 3.87651
726 1 -1.1104 1.25835 33.8314 1.29007
727 2 2.2208 5.54032 32.2689 2.42378
728 2 2.2208 5.33043 37.8884 2.45856
729 1 -1.1104 1.23542 33.8404 3.95335
731 1 -1.1104 4.05367 31.0411 1.10708
732 1 -1.1104 3.96261 36.5661 0.981077
733 2 2.2208 2.67047 35.1543 2.5615
734 1 -1.1104 4.20732 30.8355 3.93303
735 1 -1.1104 4.11899 36.6472 3.89537
736 2 2.2208 2.57369 32.3483 5.20205
737 2 2.2208 2.60329 38.0314 5.36223
738 1 -1.1104 3.80539 33.8917 1.10238
739 1 -1.1104 4.06017 33.7214 3.88253
1002 2 2.2208 -0.341428 40.7933 -0.262366
991 2 2.2208 -0.205842 29.4559 -0.340562
742 2 2.2208 -0.295584 35.1106 5.28138
1278 2 2.2208 5.2605 35.1302 -0.345538
1276 2 2.2208 2.64462 37.8391 -0.365653
1279 2 2.2208 -0.158914 35.1196 -0.247809
9762 2 2.2208 13.5895 43.5795 -0.188901
745 1 -1.1104 6.71589 33.5674 0.955282
966 1 -1.1104 9.41778 39.3212 12.3073
730 1 -1.1104 6.89398 33.5213 3.88698
725 1 -1.1104 6.89435 36.4177 3.86975
743 1 -1.1104 6.84599 30.8545 1.12443
722 1 -1.1104 6.71413 36.4885 1.06076
744 1 -1.1104 6.8633 30.8487 3.83176
746 2 2.2208 10.8192 35.0361 5.15746
747 1 -1.1104 12.3186 30.7252 1.11902
748 1 -1.1104 12.3949 36.5237 1.01434
749 1 -1.1104 12.4722 30.8487 3.8358