ITEM: TIMESTEP
50000
ITEM: NUMBER OF ATOMS
17820
ITEM: BOX BOUNDS pp pp pp
-3.5954786530053878e-01 2.7699547865300360e+01
-4.2641704994656138e+00 3.3234417049947876e+02
-3.6387458752414270e-01 2.7703874587523980e+01
ITEM: ATOMS id type q x y z
1 2 2.2208 5.07069 1.43378 5.34601
2 1 -1.1104 0.859552 -2.97562 0.971588
3 1 -1.1104 0.867434 2.56932 1.01912
6 1 -1.1104 0.859091 -2.86839 3.92682
7 1 -1.1104 0.919387 2.59496 4.01589
10 1 -1.1104 0.996993 -0.258628 1.10914
12 2 2.2208 5.02053 -1.45529 2.51216
13 2 2.2208 5.01624 4.10518 2.41475
14 1 -1.1104 0.991684 -0.0262502 3.90312
16 1 -1.1104 3.57818 -2.99884 1.00346
17 1 -1.1104 3.63486 2.57246 1.07119
18 2 2.2208 2.35582 1.30217 2.51237
19 1 -1.1104 3.54214 -2.94139 3.93259
20 1 -1.1104 3.6162 2.79649 3.83382
21 2 2.2208 2.22917 -1.49294 5.29345
22 2 2.2208 2.22592 4.18179 5.31492
23 1 -1.1104 3.68769 -0.116469 1.04743
24 1 -1.1104 3.86338 -0.0735735 4.06316
9 1 -1.1104 6.44284 2.72299 3.97309
5 1 -1.1104 6.47471 2.76922 1.20803
8 1 -1.1104 6.31554 -2.76173 3.85951
4 1 -1.1104 6.29145 -2.80792 0.986804
15 1 -1.1104 6.5944 0.0357407 3.74343
170 1 -1.1104 0.766337 -0.0757612 6.64959
168 1 -1.1104 6.55982 -2.9749 6.81215
11 1 -1.1104 6.53954 0.0660243 1.02788
167 1 -1.1104 1.0684 2.76313 6.84153
173 1 -1.1104 3.85604 2.87342 6.77667
8361 2 2.2208 10.5877 -4.14482 -0.361279
31 2 2.2208 10.7821 1.28923 5.19198
32 1 -1.1104 11.921 -2.80456 1.02248
33 1 -1.1104 12.0359 2.8268 0.902056
34 1 -1.1104 12.1209 -2.83812 3.91888
35 1 -1.1104 12.0395 2.90958 3.81686
36 1 -1.1104 12.055 0.101963 1.06571
37 2 2.2208 10.7295 -1.44135 2.44092
38 2 2.2208 10.6783 4.27374 2.40552
39 1 -1.1104 12.1442 -0.0845604 3.92018
40 1 -1.1104 9.04173 -2.74466 1.05349
41 1 -1.1104 9.22674 2.83091 1.13656
42 2 2.2208 7.9344 1.40113 2.5328
43 1 -1.1104 9.32659 -2.9936 3.89387
44 1 -1.1104 9.38688 2.6445 3.90115
45 2 2.2208 7.91435 -1.52096 5.2279
46 2 2.2208 7.79405 4.15075 5.19165
47 1 -1.1104 9.22537 -0.0400424 1.22381
48 1 -1.1104 9.47674 -0.218502 3.9403
207 1 -1.1104 12.208 -0.112462 6.80004
50 2 2.2208 13.5064 -1.50087 5.36607
49 2 2.2208 13.3852 1.35867 2.61956
205 1 -1.1104 12.0789 -2.98701 6.85058
52 2 2.2208 13.4896 4.16196 5.30735
210 1 -1.1104 9.32591 -0.180756 6.74471
206 1 -1.1104 12.049 2.65502 6.54007
9065 2 2.2208 13.5711 15.3523 10.8734
8351 2 2.2208 13.4092 -4.17722 2.42842
209 1 -1.1104 9.37155 2.63051 6.7561
137 1 -1.1104 12.236 19.5565 9.39552
9032 2 2.2208 13.3273 20.8654 10.8426
54 2 2.2208 5.02212 6.8541 5.32385
55 2 2.2208 5.08152 12.3916 5.14789
56 1 -1.1104 0.710683 8.29894 1.09279
58 1 -1.1104 0.899956 8.28548 3.81428
60 1 -1.1104 0.88776 5.43442 0.96902
61 1 -1.1104 0.787281 11.1063 0.925198
66 2 2.2208 4.98904 9.60375 2.42705
67 1 -1.1104 0.852193 5.51239 3.92823
68 1 -1.1104 0.657016 10.9404 3.9217
71 1 -1.1104 3.44905 8.17142 0.89673
72 2 2.2208 2.218 6.93316 2.3149
73 2 2.2208 2.26617 12.4137 2.48551
74 1 -1.1104 3.53806 8.32922 3.73792
75 2 2.2208 2.23872 9.70202 5.23268
76 1 -1.1104 3.66611 5.5445 0.896984
77 1 -1.1104 3.63682 10.9291 0.87756
79 1 -1.1104 3.69236 5.48257 3.68988
80 1 -1.1104 3.64675 11.2087 3.71438
64 1 -1.1104 6.42005 11.0527 1.18094
70 1 -1.1104 6.53011 10.8855 3.86205
63 1 -1.1104 6.44925 5.60284 1.1353
57 1 -1.1104 6.44178 8.38805 1.04486
59 1 -1.1104 6.33069 8.17098 3.87236
69 1 -1.1104 6.41913 5.54104 3.88466
78 1 -1.1104 3.66224 11.0702 6.55036
238 1 -1.1104 3.81052 8.28997 6.62067
237 1 -1.1104 6.37825 5.43974 6.58765
236 1 -1.1104 0.795927 5.55561 6.77903
239 1 -1.1104 3.64777 5.57494 6.75351
234 1 -1.1104 0.903788 8.27953 6.58109
30 2 2.2208 13.4487 4.21235 10.9352
65 1 -1.1104 6.48526 10.9746 6.73742
105 2 2.2208 13.4892 6.94715 2.44865
8966 2 2.2208 13.5252 12.5045 2.43294
51 2 2.2208 13.493 9.74675 5.24667
84 2 2.2208 10.6371 6.93213 5.33902
85 2 2.2208 10.759 12.5021 5.35512
86 1 -1.1104 12.1281 8.31495 1.01343
87 1 -1.1104 12.1098 8.58835 3.81395
88 1 -1.1104 12.115 5.55766 1.01215
89 1 -1.1104 12.0331 11.0971 1.03967
91 2 2.2208 10.7321 9.69479 2.36922
92 1 -1.1104 12.0539 5.74302 3.8354
93 1 -1.1104 11.996 11.2632 3.96789
94 1 -1.1104 9.32244 8.31668 0.929459
95 2 2.2208 7.82136 6.95669 2.38943
96 2 2.2208 7.84118 12.3928 2.44765
97 1 -1.1104 9.24565 8.29058 3.83144
98 2 2.2208 7.81873 9.58566 5.27332
99 1 -1.1104 9.30241 5.54656 1.0318
100 1 -1.1104 9.23796 11.1413 1.01753
102 1 -1.1104 9.22559 5.59559 3.78353
103 1 -1.1104 9.21088 11.038 3.86429
265 1 -1.1104 12.1665 8.25447 6.60481
269 1 -1.1104 9.19108 5.53847 6.61461
267 1 -1.1104 9.35482 8.28183 6.68119
90 1 -1.1104 12.1101 11.1154 6.8074
101 1 -1.1104 9.27133 11.1377 6.57798
8350 2 2.2208 10.7177 -4.38164 5.28874
8347 2 2.2208 4.94534 -4.20604 5.33083
106 2 2.2208 5.01273 18.1554 4.94533
107 1 -1.1104 0.99337 13.8514 1.00301
109 1 -1.1104 0.858814 19.5304 0.980135
113 1 -1.1104 0.861714 13.7287 3.77662
114 1 -1.1104 0.846707 19.3595 3.83311
116 1 -1.1104 0.898637 16.634 0.85056
119 2 2.2208 5.12268 15.2578 2.37317
120 2 2.2208 5.22458 20.874 2.44182
121 1 -1.1104 0.763191 16.5281 3.64325
123 1 -1.1104 3.77645 13.7847 1.04657
125 1 -1.1104 3.66337 19.3472 0.850816
127 2 2.2208 2.2115 18.0017 2.31978
128 1 -1.1104 3.6688 13.9787 3.93243
129 1 -1.1104 3.65746 19.5262 3.65369
130 2 2.2208 2.1507 15.1712 5.22539
131 2 2.2208 2.30937 20.9587 5.14731
132 1 -1.1104 3.73784 16.6081 0.895697
134 1 -1.1104 3.55228 16.6491 3.6206
138 1 -1.1104 6.67871 19.4861 0.820047
140 1 -1.1104 6.3987 16.4699 0.923772
139 1 -1.1104 6.52705 19.3928 3.69368
122 1 -1.1104 6.47657 16.7165 3.69181
115 1 -1.1104 6.39822 13.8566 3.83249
111 1 -1.1104 6.3922 13.786 6.56497
117 1 -1.1104 0.962406 16.7748 6.72959
302 1 -1.1104 0.939234 19.5593 6.67799
126 1 -1.1104 3.81491 19.586 6.5344
110 1 -1.1104 6.43421 13.8594 0.860593
8352 2 2.2208 2.13778 -4.24866 8.24231
603 2 2.2208 7.71442 -1.39555 -0.293621
8868 2 2.2208 13.6016 15.2978 5.22803
141 2 2.2208 10.6453 18.115 5.29919
142 1 -1.1104 11.869 13.9023 1.02737
144 1 -1.1104 12.215 19.5861 0.926626
146 1 -1.1104 12.1084 14.0198 3.77218
147 1 -1.1104 12.1759 19.3264 3.9298
148 1 -1.1104 12.1155 16.7962 1.15935
150 2 2.2208 10.6023 15.2976 2.44903
151 2 2.2208 10.8897 20.7915 2.43402
152 1 -1.1104 12.1309 16.619 3.95356
153 1 -1.1104 9.10163 13.9443 1.12013
155 1 -1.1104 9.37188 19.4602 0.971267
157 2 2.2208 7.9083 18.0458 2.27052
158 1 -1.1104 9.23087 13.9339 3.83118
159 1 -1.1104 9.32637 19.4612 3.82812
160 2 2.2208 7.84298 15.2881 5.26206
161 2 2.2208 7.96998 20.9092 5.24362
162 1 -1.1104 9.32793 16.7422 0.946164
164 1 -1.1104 9.28857 16.6927 3.81488
154 1 -1.1104 9.36899 13.9229 6.78871
8847 2 2.2208 13.5646 20.9211 5.29969
156 1 -1.1104 9.25139 19.4962 6.60132
149 1 -1.1104 12.2762 16.7339 6.71739
312 1 -1.1104 12.0981 16.707 9.61653
174 1 -1.1104 3.61412 0.148518 6.75425
171 1 -1.1104 6.50307 -0.173183 6.59663
172 1 -1.1104 3.63832 -2.63437 6.76765
166 1 -1.1104 0.649042 -2.81388 6.69481
8349 2 2.2208 7.67938 -4.20757 2.36767
143 1 -1.1104 12.2218 13.9616 6.78904
175 2 2.2208 5.08244 1.2712 11.0482
176 1 -1.1104 0.900618 -2.7857 12.279
177 1 -1.1104 0.81241 2.73929 12.4041
180 1 -1.1104 0.872748 -2.94177 9.5733
181 1 -1.1104 0.948599 2.78047 9.53828
184 1 -1.1104 0.744696 -0.0184043 12.4053
186 2 2.2208 5.0578 -1.44433 8.1434
187 2 2.2208 5.18025 4.13601 8.08071
188 1 -1.1104 0.95081 -0.129081 9.51754
190 1 -1.1104 3.74171 -2.97207 12.64
191 1 -1.1104 3.57538 2.75295 12.3372
192 2 2.2208 2.37724 1.36623 8.1085
193 1 -1.1104 3.65484 -2.90536 9.67546
194 1 -1.1104 3.81261 2.67611 9.52947
195 2 2.2208 2.28505 -1.43453 10.9723
196 2 2.2208 2.28739 4.14901 10.9374
197 1 -1.1104 3.53681 -0.0767702 12.3788
198 1 -1.1104 3.60091 -0.112768 9.56334
178 1 -1.1104 6.44842 -2.8944 12.3957
185 1 -1.1104 6.5191 -0.113201 12.2982
169 1 -1.1104 6.49574 2.72125 6.69663
183 1 -1.1104 6.54763 2.78214 9.55474
182 1 -1.1104 6.46064 -2.83081 9.55878
189 1 -1.1104 6.39464 0.0848533 9.47374
231 1 -1.1104 9.17207 19.514 9.31079
8798 2 2.2208 13.5414 18.0853 2.46871
208 1 -1.1104 9.21252 -2.83311 6.6745
8356 2 2.2208 10.7059 -4.26953 10.9405
311 2 2.2208 10.7661 20.8588 8.03393
9073 2 2.2208 13.5914 12.497 13.6432
327 2 2.2208 5.15102 21.0001 13.6708
8797 2 2.2208 13.4433 -1.52373 10.9386
8355 2 2.2208 7.82215 -4.28682 8.16608
179 1 -1.1104 6.45332 2.69258 12.347
229 2 2.2208 13.4842 1.32737 8.1744
211 2 2.2208 10.7235 1.30935 10.871
212 1 -1.1104 12.0533 -2.81055 12.3351
213 1 -1.1104 12.0925 2.69528 12.3329
214 1 -1.1104 12.0633 -2.89261 9.47898
215 1 -1.1104 12.0858 2.70606 9.42343
216 1 -1.1104 12.1022 -0.0630027 12.4818
217 2 2.2208 10.6623 -1.52581 8.15607
218 2 2.2208 10.6064 4.14354 8.07277
219 1 -1.1104 11.9826 -0.0434393 9.44532
220 1 -1.1104 9.27057 -2.91928 12.2014
221 1 -1.1104 9.16359 2.60134 12.277
222 2 2.2208 7.89364 1.29973 8.01386
223 1 -1.1104 9.20026 -2.88076 9.51382
224 1 -1.1104 9.26492 2.79415 9.45789
225 2 2.2208 7.84133 -1.54289 10.8917
227 1 -1.1104 9.3891 -0.0117925 12.3856
228 1 -1.1104 9.16929 -0.107913 9.55263
226 2 2.2208 7.89387 4.16767 10.8594
204 1 -1.1104 9.15043 13.9262 9.61045
135 1 -1.1104 11.9792 19.4722 12.0961
315 1 -1.1104 9.19982 16.7603 12.2535
62 1 -1.1104 0.823767 11.1321 6.71852
235 1 -1.1104 6.41017 8.39711 6.70065
240 2 2.2208 4.99824 7.01388 10.9613
241 2 2.2208 5.02953 12.6793 10.753
242 1 -1.1104 0.837663 8.17529 12.3918
244 1 -1.1104 0.815784 8.33352 9.47541
246 1 -1.1104 0.990541 5.55327 12.4613
247 1 -1.1104 0.794909 11.1235 12.2692
250 2 2.2208 5.06647 9.69107 8.21248
251 1 -1.1104 0.950305 5.55713 9.50822
252 1 -1.1104 0.938232 11.1609 9.48637
255 1 -1.1104 3.53503 8.5076 12.4036
256 2 2.2208 2.26976 6.92608 8.00269
257 2 2.2208 2.22165 12.4834 7.98258
258 1 -1.1104 3.58686 8.32138 9.47442
259 2 2.2208 2.08456 9.72546 10.9139
260 1 -1.1104 3.82748 5.56995 12.2629
261 1 -1.1104 3.65621 11.2574 12.331
262 1 -1.1104 3.81811 5.54019 9.56037
263 1 -1.1104 3.57756 11.1234 9.39483
245 1 -1.1104 6.41054 8.36846 9.49987
243 1 -1.1104 6.49015 8.3474 12.1647
253 1 -1.1104 6.6865 5.49244 9.47274
249 1 -1.1104 6.70443 11.0767 12.1092
248 1 -1.1104 6.45315 5.54571 12.2243
104 1 -1.1104 12.1108 13.9406 12.2622
29 2 2.2208 13.5715 9.63372 11.0425
266 1 -1.1104 12.021 5.43012 6.60687
8981 2 2.2208 13.4436 6.8949 8.03024
254 1 -1.1104 6.39472 11.3697 9.37449
202 1 -1.1104 9.18272 19.5247 12.2029
8982 2 2.2208 13.5343 12.6084 8.08166
264 1 -1.1104 9.18248 11.2341 9.49318
268 1 -1.1104 9.28118 5.52372 9.48688
270 1 -1.1104 9.42896 10.8401 12.1999
271 1 -1.1104 9.2657 5.37597 12.2814
272 2 2.2208 7.90869 9.73601 10.7348
273 1 -1.1104 9.28951 8.38783 9.44095
274 2 2.2208 7.94154 12.5671 8.12532
275 2 2.2208 7.85016 6.92604 8.0503
276 2 2.2208 10.7252 6.854 10.9805
277 2 2.2208 10.638 12.499 10.8697
278 1 -1.1104 12.1733 8.25048 12.3899
279 1 -1.1104 12.0762 8.26416 9.46481
280 1 -1.1104 12.1487 5.54023 12.4598
281 1 -1.1104 12.2199 11.0065 12.3563
282 2 2.2208 10.6434 9.76169 8.09413
283 1 -1.1104 11.9822 5.42529 9.47102
284 1 -1.1104 12.0339 11.0201 9.6149
285 1 -1.1104 9.27819 8.18441 12.2513
165 1 -1.1104 12.128 16.7037 12.2872
133 1 -1.1104 3.71744 16.6494 6.39828
108 1 -1.1104 0.814276 14.0043 6.59779
118 1 -1.1104 6.59549 16.7206 6.52024
112 1 -1.1104 6.44347 19.5815 6.4687
232 2 2.2208 7.72467 15.284 10.9096
290 1 -1.1104 6.35243 14.0907 9.43953
124 1 -1.1104 3.52722 13.9281 6.52342
306 1 -1.1104 6.47177 16.6592 12.2673
286 1 -1.1104 3.76738 19.4325 12.3315
287 1 -1.1104 3.80579 13.9427 12.3049
291 1 -1.1104 0.979236 19.4823 9.41986
292 1 -1.1104 0.849825 16.7227 9.39289
293 2 2.2208 5.19261 20.8569 7.97635
294 1 -1.1104 0.753782 13.8188 9.44555
295 2 2.2208 5.02659 15.3495 7.80716
298 1 -1.1104 0.910988 19.4568 12.1738
299 1 -1.1104 0.895052 13.8201 12.1001
300 2 2.2208 5.02946 18.1618 10.9439
301 1 -1.1104 3.76294 19.5097 9.27003
303 2 2.2208 2.39277 18.092 8.00407
304 1 -1.1104 3.80241 16.6823 9.31383
305 1 -1.1104 3.66756 13.9197 9.33602
307 1 -1.1104 0.995357 16.7556 12.1775
308 1 -1.1104 3.62422 16.728 12.2944
309 2 2.2208 2.38974 20.9003 10.7504
310 2 2.2208 2.33243 15.3474 10.7982
288 1 -1.1104 6.46608 19.5126 9.34727
296 1 -1.1104 6.52806 19.5447 12.2582
297 1 -1.1104 6.46484 13.7686 12.2744
289 1 -1.1104 6.42986 16.7722 9.4171
314 1 -1.1104 9.3401 16.8724 9.44241
136 1 -1.1104 11.9187 13.8618 9.71305
163 1 -1.1104 9.3154 16.7253 6.64961
145 1 -1.1104 12.0241 19.6062 6.73391
233 2 2.2208 7.96483 20.8056 10.6808
83 2 2.2208 10.544 17.9806 10.9575
53 1 -1.1104 9.21969 13.8243 12.2693
203 2 2.2208 7.88224 18.1711 7.87784
8346 2 2.2208 2.1293 -4.3611 2.48811
8353 2 2.2208 4.96258 -4.2903 10.9567
230 2 2.2208 10.6946 15.3926 8.06132
329 2 2.2208 10.5742 20.8648 13.6222
8771 2 2.2208 -0.453955 18.1731 10.8091
326 2 2.2208 2.22581 18.0062 13.7512
328 2 2.2208 5.03036 15.4379 13.6747
342 2 2.2208 7.94242 9.76104 -0.482099
573 2 2.2208 2.23324 -1.59882 -0.367657
330 2 2.2208 10.6409 15.3879 13.6325
332 2 2.2208 5.03376 1.27438 -0.395355
331 2 2.2208 7.80345 18.1842 13.6203
483 2 2.2208 7.90593 12.4301 13.6833
334 2 2.2208 10.5593 1.42334 -0.367782
344 2 2.2208 13.5398 9.60893 -0.460644
338 2 2.2208 2.16726 9.73735 -0.565621
343 2 2.2208 10.7048 12.5351 -0.423386
339 2 2.2208 5.02531 12.3946 -0.399366
324 2 2.2208 5.10263 17.9822 -0.49837
419 2 2.2208 10.7263 -1.3785 13.8459
320 2 2.2208 2.38644 12.6133 13.5905
9130 2 2.2208 13.4752 1.34062 13.7082
609 2 2.2208 13.4016 -1.33594 -0.341025
345 2 2.2208 5.07026 1.29716 16.4803
346 1 -1.1104 0.914085 -2.94638 17.9006
347 1 -1.1104 0.839144 2.72063 17.9072
350 1 -1.1104 0.864169 -2.96731 15.1943
352 1 -1.1104 0.924595 2.81118 15.2995
358 1 -1.1104 0.805509 -0.225482 17.9016
360 2 2.2208 5.13062 -1.54357 19.4408
361 2 2.2208 5.0693 4.09134 19.2669
362 1 -1.1104 0.881988 -0.119042 15.259
366 1 -1.1104 3.68362 -2.80275 17.9936
367 1 -1.1104 3.73739 2.63133 17.9061
368 2 2.2208 2.34136 1.16642 19.2979
369 1 -1.1104 3.66062 -2.99943 15.3449
371 1 -1.1104 3.70154 2.76379 15.1252
373 2 2.2208 2.29475 -1.59006 16.5386
374 2 2.2208 2.36075 4.23578 16.4587
375 1 -1.1104 3.72375 -0.0839618 17.6509
376 1 -1.1104 3.70908 -0.158047 15.048
348 1 -1.1104 6.45867 -3.01797 18.1492
364 1 -1.1104 6.54557 -0.069316 15.2563
417 2 2.2208 13.4718 12.5044 19.1125
370 1 -1.1104 3.79962 -2.92336 20.6047
353 1 -1.1104 0.905502 2.65494 20.6081
354 1 -1.1104 6.44557 -2.88053 15.3276
359 1 -1.1104 6.37335 0.000413168 18.1312
349 1 -1.1104 6.36482 2.74984 17.9254
357 1 -1.1104 6.50435 2.75714 20.7308
9071 2 2.2208 13.5784 20.9294 27.7093
363 1 -1.1104 0.841568 -0.217586 20.6486
351 1 -1.1104 1.16548 -2.88145 20.7197
9173 2 2.2208 13.5993 18.0335 24.8912
611 1 -1.1104 12.101 16.6014 26.21
583 1 -1.1104 12.0463 16.6355 23.3644
9126 2 2.2208 13.455 3.96418 16.4419
356 1 -1.1104 6.48942 2.70463 15.0859
388 2 2.2208 10.6878 1.36049 16.5905
389 1 -1.1104 12.0296 -2.84287 17.9146
390 1 -1.1104 12.1814 2.62474 18.0557
391 1 -1.1104 12.3128 -2.70892 15.1851
393 1 -1.1104 12.1175 2.64994 15.095
395 1 -1.1104 12.0319 -0.0375993 17.9636
396 2 2.2208 10.7551 -1.50974 19.3294
397 2 2.2208 10.6843 3.93501 19.2551
398 1 -1.1104 12.1573 0.0744845 15.2328
400 1 -1.1104 9.17521 -2.99342 17.9447
401 1 -1.1104 9.31248 2.59196 17.9328
402 2 2.2208 7.83012 1.26024 19.4709
403 1 -1.1104 9.27135 -2.8926 15.1304
405 1 -1.1104 9.22047 2.71697 15.1041
407 2 2.2208 7.82145 -1.4095 16.7702
409 1 -1.1104 9.25588 -0.0694338 18.1804
410 1 -1.1104 9.3717 -0.085068 15.2668
318 2 2.2208 8.11785 20.8484 27.5799
411 1 -1.1104 9.27906 -0.00260251 20.9784
404 1 -1.1104 9.38424 -2.74235 20.7774
8640 2 2.2208 10.6381 -4.32702 16.5835
9132 2 2.2208 13.5085 1.25874 19.3444
394 1 -1.1104 12.0384 2.62664 20.7332
399 1 -1.1104 12.2843 -0.149059 20.6931
416 2 2.2208 13.5812 -1.3816 16.4809
408 2 2.2208 7.84214 4.11743 16.4729
9273 2 2.2208 13.2919 21.0449 16.4126
481 2 2.2208 7.92747 6.89151 13.5251
378 2 2.2208 13.5535 15.3076 22.0133
421 2 2.2208 5.11636 6.99406 16.4478
422 2 2.2208 5.17612 12.6148 16.4706
423 1 -1.1104 0.838645 8.41289 17.907
425 1 -1.1104 1.02344 8.37978 15.1941
429 1 -1.1104 0.924334 5.61897 17.8595
430 1 -1.1104 0.93872 11.137 17.7996
433 2 2.2208 5.18033 9.68173 19.3776
434 1 -1.1104 0.931689 5.59929 15.0905
436 1 -1.1104 1.03136 11.1967 15.04
442 1 -1.1104 3.49463 8.29532 17.8602
443 2 2.2208 2.24335 6.8654 19.2968
444 2 2.2208 2.33335 12.4234 19.2609
445 1 -1.1104 3.83819 8.49039 15.0116
447 2 2.2208 2.42238 9.73623 16.5303
448 1 -1.1104 3.78102 5.51325 17.7767
449 1 -1.1104 3.86511 11.0705 17.9528
450 1 -1.1104 3.7262 5.57443 15.0224
452 1 -1.1104 3.86551 11.2567 15.0877
431 1 -1.1104 6.39438 5.46848 17.8388
424 1 -1.1104 6.32213 8.20287 18.006
432 1 -1.1104 6.58561 11.0904 17.8445
427 1 -1.1104 6.47598 8.12147 14.9796
438 1 -1.1104 6.44221 5.55943 15.0753
441 1 -1.1104 6.53587 11.1276 20.681
451 1 -1.1104 3.7065 5.60073 20.6553
435 1 -1.1104 0.971333 5.47459 20.753
453 1 -1.1104 3.60822 11.0747 20.8084
428 1 -1.1104 6.63593 8.26759 20.7788
440 1 -1.1104 6.63625 11.1338 15.0086
457 2 2.2208 10.6432 6.79897 16.4202
458 2 2.2208 10.6833 12.5343 16.3696
459 1 -1.1104 11.993 8.27057 17.9699
460 1 -1.1104 12.0237 8.33524 15.1477
462 1 -1.1104 11.9255 5.42768 17.8612
463 1 -1.1104 11.9737 11.2447 17.8619
464 2 2.2208 10.5835 9.6518 19.1622
465 1 -1.1104 12.0683 5.48658 15.0029
467 1 -1.1104 12.0507 11.0427 15.0256
469 1 -1.1104 9.08611 8.25863 17.9199
470 2 2.2208 7.81744 6.80044 19.3581
471 2 2.2208 7.89344 12.4572 19.0889
472 1 -1.1104 9.3086 8.24577 15.1063
474 2 2.2208 7.92948 9.67577 16.5025
475 1 -1.1104 9.12719 5.483 17.8856
476 1 -1.1104 9.24665 11.0601 17.8087
477 1 -1.1104 9.32797 5.55509 15.0506
479 1 -1.1104 9.34224 11.0528 15.1163
461 1 -1.1104 12.19 8.19484 20.6411
325 2 2.2208 2.29585 20.7362 27.6509
466 1 -1.1104 12.1384 5.4224 20.5913
382 1 -1.1104 9.21208 16.6325 26.2028
575 2 2.2208 13.3779 6.85831 19.2095
480 1 -1.1104 9.31672 11.0738 20.7515
319 2 2.2208 5.17647 9.88103 13.5769
642 1 -1.1104 9.3113 13.8303 23.6375
456 2 2.2208 7.99271 18.0081 24.7804
9348 2 2.2208 13.4994 20.814 22.0402
494 1 -1.1104 6.34302 13.9056 20.5127
484 2 2.2208 5.17643 18.0784 16.396
485 1 -1.1104 0.842559 13.8618 17.9046
486 1 -1.1104 0.738766 19.4487 17.7657
489 1 -1.1104 1.11542 13.953 15.0449
491 1 -1.1104 0.803575 19.338 14.904
497 1 -1.1104 0.952047 16.8286 17.8317
499 2 2.2208 4.93567 15.2887 19.1695
500 2 2.2208 5.10539 20.8723 19.2702
501 1 -1.1104 0.964551 16.5814 14.9591
505 1 -1.1104 3.58153 13.9596 17.9316
506 1 -1.1104 3.75781 19.6251 17.8803
507 2 2.2208 2.33977 18.1308 19.2336
508 1 -1.1104 3.767 14.09 15.0359
510 1 -1.1104 3.56366 19.383 15.1742
512 2 2.2208 2.24699 15.2864 16.4286
513 2 2.2208 2.24089 20.8114 16.4883
514 1 -1.1104 3.84305 16.7314 17.7959
515 1 -1.1104 3.77995 16.7749 15.1942
503 1 -1.1104 6.49398 16.8153 15.011
498 1 -1.1104 6.53157 16.5853 17.809
488 1 -1.1104 6.49566 19.4296 17.8457
495 1 -1.1104 6.42597 19.6089 14.9743
493 1 -1.1104 6.51703 13.8213 15.0212
490 1 -1.1104 0.849275 13.9638 20.809
492 1 -1.1104 0.845945 19.3619 20.4727
516 1 -1.1104 3.53754 16.8068 20.5898
502 1 -1.1104 0.91173 16.6833 20.518
511 1 -1.1104 3.69914 19.5353 20.7047
496 1 -1.1104 6.38499 19.5179 20.606
509 1 -1.1104 3.70566 14.029 20.6064
504 1 -1.1104 6.34268 16.6876 20.6437
547 1 -1.1104 12.1982 13.8386 23.4518
487 1 -1.1104 6.45612 13.855 17.8412
387 2 2.2208 5.2151 4.1079 13.7099
520 2 2.2208 10.6148 18.2718 16.3956
521 1 -1.1104 11.9854 14.0636 17.9266
522 1 -1.1104 12.0318 19.5972 17.917
523 1 -1.1104 12.0126 13.9423 14.9519
525 1 -1.1104 11.9876 19.5311 14.9148
527 1 -1.1104 11.9822 16.9323 17.9524
528 2 2.2208 10.5617 15.3121 19.1789
529 2 2.2208 10.6365 20.9121 19.2494
530 1 -1.1104 12.0494 16.793 14.9694
532 1 -1.1104 9.20587 13.8817 17.7819
533 1 -1.1104 9.21612 19.4305 17.8893
534 2 2.2208 7.83837 17.9474 19.3276
535 1 -1.1104 9.32398 13.7876 15.1128
537 1 -1.1104 9.18392 19.3919 15.0254
539 2 2.2208 7.78366 15.3356 16.3771
540 2 2.2208 7.7192 20.9792 16.4737
541 1 -1.1104 9.20143 16.7934 17.8387
542 1 -1.1104 9.2186 16.676 15.1231
9270 2 2.2208 13.4345 15.2764 16.5391
524 1 -1.1104 11.9506 13.8371 20.7193
543 1 -1.1104 9.22223 16.5684 20.6785
384 2 2.2208 13.4171 18.1716 19.2558
538 1 -1.1104 9.26501 19.3885 20.7356
323 2 2.2208 2.21116 15.1957 27.6254
605 2 2.2208 10.6498 15.3136 24.8627
377 1 -1.1104 3.66024 -0.236644 20.7282
9200 2 2.2208 13.3973 9.8563 16.5008
365 1 -1.1104 6.54317 -0.0603625 20.7751
372 1 -1.1104 3.70302 2.73795 20.6685
548 2 2.2208 5.10246 1.28123 22.1411
549 1 -1.1104 0.898046 -2.95031 23.4307
550 1 -1.1104 1.02678 2.66592 23.4404
553 1 -1.1104 0.917466 -3.08521 26.2121
554 1 -1.1104 0.92674 2.75624 26.1897
557 1 -1.1104 0.891715 -0.0354069 23.561
559 2 2.2208 5.19227 -1.56355 24.9407
560 2 2.2208 4.95848 4.09715 24.8061
561 1 -1.1104 1.07518 -0.18189 26.3024
563 1 -1.1104 3.71084 -3.03534 23.4715
564 1 -1.1104 3.73931 2.64512 23.4745
565 2 2.2208 2.28743 1.27828 24.9481
566 1 -1.1104 3.57696 -2.99596 26.2403
567 1 -1.1104 3.60705 2.57513 26.3472
568 2 2.2208 2.31105 -1.64477 22.1945
569 2 2.2208 2.32524 4.03859 22.0644
570 1 -1.1104 3.60456 -0.171935 23.4325
571 1 -1.1104 3.7965 -0.258909 26.3094
562 1 -1.1104 6.48912 0.0134557 26.3564
558 1 -1.1104 6.43937 -0.112592 23.5759
551 1 -1.1104 6.56631 -2.87088 23.6248
555 1 -1.1104 6.41539 -2.82649 26.3439
552 1 -1.1104 6.45826 2.6371 23.3893
576 1 -1.1104 12.1193 19.4976 23.4082
556 1 -1.1104 6.208 2.84171 26.3774
580 1 -1.1104 12.1263 13.8653 26.2687
381 1 -1.1104 9.25345 16.6686 23.5317
355 1 -1.1104 6.64306 -2.97098 20.9846
392 1 -1.1104 12.0626 -2.94674 20.7981
607 2 2.2208 7.84601 15.2428 21.9823
9333 2 2.2208 13.3958 4.06597 22.1323
406 1 -1.1104 9.34394 2.75913 20.6471
9166 2 2.2208 13.499 1.37381 24.9202
584 2 2.2208 10.7302 1.27355 22.1047
585 1 -1.1104 11.9448 -2.83039 23.595
586 1 -1.1104 12.011 2.6819 23.4996
587 1 -1.1104 12.0791 -2.88613 26.3985
588 1 -1.1104 11.9781 2.80711 26.2621
589 1 -1.1104 12.2029 -0.0371092 23.4881
590 2 2.2208 10.7531 -1.46191 24.9409
592 1 -1.1104 12.0578 -0.0446553 26.2712
593 1 -1.1104 9.33369 -3.0315 23.5806
594 1 -1.1104 9.14174 2.66082 23.4288
595 2 2.2208 7.81092 1.34564 24.9574
596 1 -1.1104 9.35436 -2.80628 26.2627
597 1 -1.1104 9.18025 2.76059 26.2845
598 2 2.2208 8.01996 -1.55556 22.258
599 2 2.2208 7.85926 4.0784 22.0795
600 1 -1.1104 9.17669 -0.184526 23.7913
601 1 -1.1104 9.21289 -0.11388 26.4491
591 2 2.2208 10.6874 4.24695 24.9373
610 2 2.2208 10.68 21.0074 24.7426
581 1 -1.1104 12.1622 19.3965 26.2868
9167 2 2.2208 13.6336 -1.44622 22.1608
17734 2 2.2208 13.5386 -4.24371 25.0013
531 1 -1.1104 12.1576 16.6658 20.5822
437 1 -1.1104 0.901344 11.1874 20.7664
426 1 -1.1104 0.784579 8.17788 20.7036
439 1 -1.1104 6.39649 5.5061 20.5977
446 1 -1.1104 3.65906 8.45691 20.6247
613 2 2.2208 5.10128 7.01287 21.9393
614 2 2.2208 5.09895 12.491 22.1136
615 1 -1.1104 0.826765 8.19 23.5212
617 1 -1.1104 0.574582 8.27159 26.3567
619 1 -1.1104 0.939022 5.43874 23.4102
620 1 -1.1104 0.690323 11.0037 23.5009
623 2 2.2208 4.98064 9.69163 24.8552
624 1 -1.1104 0.774543 5.59246 26.128
625 1 -1.1104 0.798519 11.1599 26.2516
628 1 -1.1104 3.60844 8.2803 23.2843
629 2 2.2208 2.26767 6.87443 24.7782
630 2 2.2208 2.21134 12.5189 24.8345
631 1 -1.1104 3.51379 8.43242 26.157
632 2 2.2208 2.15282 9.68027 22.1217
633 1 -1.1104 3.51597 5.4981 23.3377
634 1 -1.1104 3.59345 11.0278 23.5
635 1 -1.1104 3.54858 5.53114 26.1987
636 1 -1.1104 3.64967 11.1332 26.2224
618 1 -1.1104 6.25646 8.31062 26.3243
621 1 -1.1104 6.42897 5.49968 23.2734
627 1 -1.1104 6.418 11.1066 26.4141
622 1 -1.1104 6.35173 11.0967 23.576
626 1 -1.1104 6.25535 5.59128 26.2613
616 1 -1.1104 6.32088 8.34764 23.586
579 1 -1.1104 9.20365 13.8229 26.4241
665 1 -1.1104 9.37161 19.4733 23.5034
606 1 -1.1104 9.38918 19.49 26.1986
536 1 -1.1104 9.11797 13.745 20.6159
478 1 -1.1104 9.29246 5.43418 20.6677
473 1 -1.1104 9.31887 8.2815 20.6403
667 2 2.2208 13.4292 6.99313 24.8824
608 2 2.2208 7.89235 20.8878 22.0707
9125 2 2.2208 13.504 12.5615 24.8617
468 1 -1.1104 12.0529 10.9403 20.5924
644 1 -1.1104 9.31054 11.1039 26.1427
645 1 -1.1104 8.98787 5.59412 26.305
646 1 -1.1104 9.22479 11.1985 23.5621
647 1 -1.1104 9.22988 5.4606 23.531
648 2 2.2208 7.89659 9.84332 22.0635
649 1 -1.1104 9.11813 8.32818 26.4196
650 2 2.2208 7.78582 12.5003 24.9071
651 2 2.2208 7.71791 6.94512 24.7836
652 2 2.2208 10.6777 6.94995 22.0459
653 2 2.2208 10.6447 12.4361 22.162
654 1 -1.1104 11.9754 8.20992 23.4678
655 1 -1.1104 11.9739 8.3274 26.3505
656 1 -1.1104 12.0141 5.39103 23.2934
657 1 -1.1104 12.1323 11.0181 23.4911
658 2 2.2208 10.6891 9.75872 24.8558
659 1 -1.1104 12.0377 5.55492 26.331
660 1 -1.1104 12.1169 11.1418 26.3011
661 1 -1.1104 9.03142 8.30081 23.4962
9392 2 2.2208 13.5861 9.73528 21.9733
526 1 -1.1104 12.1811 19.5331 20.6778
412 2 2.2208 10.7308 18.107 22.0534
637 1 -1.1104 6.44301 13.8922 23.3836
544 1 -1.1104 6.42723 16.6365 23.4888
669 1 -1.1104 6.36354 13.8599 26.2326
578 1 -1.1104 6.58368 19.4047 26.1114
640 1 -1.1104 6.41716 19.3952 23.259
482 2 2.2208 2.36514 15.2972 22.0266
517 2 2.2208 2.32339 20.8491 22.2028
518 1 -1.1104 3.72504 16.5987 23.4642
519 1 -1.1104 0.971582 16.7496 23.3859
545 1 -1.1104 3.54346 13.8047 26.3029
546 1 -1.1104 3.65026 16.6077 26.2506
572 2 2.2208 2.35822 18.1015 24.8398
574 1 -1.1104 3.69587 19.3996 26.2217
602 2 2.2208 5.03181 18.0538 21.9729
604 1 -1.1104 0.919941 13.8394 23.5767
612 1 -1.1104 0.824138 19.4811 23.4484
638 2 2.2208 5.10688 15.2754 24.8448
639 2 2.2208 5.15335 20.8253 24.9159
662 1 -1.1104 0.712186 13.876 26.3589
663 1 -1.1104 0.872259 16.6638 26.1224
664 1 -1.1104 0.951391 19.2493 26.3105
668 1 -1.1104 3.67139 19.357 23.4584
670 1 -1.1104 3.71114 13.8623 23.4398
666 1 -1.1104 6.57689 16.6246 26.1177
17709 2 2.2208 13.4907 -4.31709 19.3215
8524 2 2.2208 10.6019 -4.26359 22.2248
9089 2 2.2208 13.5079 18.0697 13.6163
385 2 2.2208 5.08874 -1.49061 13.8501
8638 2 2.2208 7.77579 -4.36313 13.843
9068 2 2.2208 13.3776 15.1974 27.7864
418 2 2.2208 7.85143 1.21807 13.7923
335 2 2.2208 7.8069 4.21244 27.8124
333 2 2.2208 2.37731 4.18411 27.706
336 2 2.2208 13.4566 4.16154 27.661
337 2 2.2208 4.99884 6.97393 27.695
317 2 2.2208 10.7472 18.1234 27.5993
322 2 2.2208 10.669 9.65234 13.647
341 2 2.2208 10.6367 6.91094 27.6745
454 2 2.2208 2.48598 6.98441 13.67
9070 2 2.2208 13.4927 6.87695 13.7632
386 2 2.2208 2.26583 1.31048 13.7904
420 2 2.2208 10.5824 4.02703 13.6511
8613 2 2.2208 13.5616 -4.14334 13.7093
316 2 2.2208 7.90515 15.3013 27.7152
671 2 2.2208 5.11523 23.5032 5.16109
672 2 2.2208 5.15662 29.2146 5.15927
673 1 -1.1104 0.964789 25.1412 0.889682
674 1 -1.1104 0.883651 25.1332 3.84644
675 1 -1.1104 0.903261 22.4577 0.868733
676 1 -1.1104 0.841856 27.9843 0.916391
677 2 2.2208 5.23242 26.3123 2.28201
678 1 -1.1104 0.946354 22.2028 3.68009
679 1 -1.1104 0.846573 27.8618 3.77605
680 1 -1.1104 3.82562 25.0774 0.952685
681 2 2.2208 2.29522 23.6821 2.28427
682 2 2.2208 2.44514 29.298 2.44134
683 1 -1.1104 3.56295 25.0449 3.69885
684 2 2.2208 2.32699 26.4064 5.11392
685 1 -1.1104 3.75774 22.1717 0.954924
686 1 -1.1104 3.58232 27.86 1.08574
687 1 -1.1104 3.74083 22.2975 3.75487
688 1 -1.1104 3.77305 27.8508 3.82292
692 1 -1.1104 6.78204 25.1109 1.15847
694 1 -1.1104 6.66129 22.3026 1.01681
814 1 -1.1104 0.890745 22.223 6.41725
693 1 -1.1104 6.50539 24.8411 3.83156
697 1 -1.1104 6.58795 27.7349 3.78601
812 1 -1.1104 0.893243 24.9615 6.67918
815 1 -1.1104 0.853167 27.8035 6.49118
696 1 -1.1104 6.59909 22.2465 3.74094
819 1 -1.1104 3.76936 22.402 6.6236
9742 2 2.2208 13.5969 23.7018 2.39969
820 1 -1.1104 3.72723 27.7897 6.62546
818 1 -1.1104 3.83105 25.0179 6.60138
813 1 -1.1104 6.77576 24.9964 6.56779
1196 2 2.2208 7.87941 40.4562 13.6978
695 1 -1.1104 6.41717 27.8181 0.881996
698 2 2.2208 10.8128 23.675 5.31859
699 2 2.2208 10.6538 29.2841 5.21299
700 1 -1.1104 12.252 24.9885 0.979709
701 1 -1.1104 12.2781 25.0963 3.83974
702 1 -1.1104 12.2447 22.34 1.1052
703 1 -1.1104 12.088 27.8929 1.02573
704 2 2.2208 10.7552 26.5825 2.37313
705 1 -1.1104 12.1881 22.234 3.89457
706 1 -1.1104 12.1879 28.0348 3.89784
707 1 -1.1104 9.44664 25.1307 0.865772
708 2 2.2208 8.00175 23.5803 2.41871
709 2 2.2208 8.03263 29.1649 2.3887
710 1 -1.1104 9.4186 25.0564 3.82864
711 2 2.2208 7.95449 26.3473 5.18294
712 1 -1.1104 9.49707 22.2286 0.937361
713 1 -1.1104 9.22708 27.8577 0.882501
714 1 -1.1104 9.4292 22.4018 3.8862
715 1 -1.1104 9.47919 27.7903 3.88824
847 1 -1.1104 12.0755 27.8316 6.64163
1348 1 -1.1104 1.15763 47.4103 3.74754
9744 2 2.2208 13.6456 29.2452 2.49275
846 1 -1.1104 12.1005 22.2619 6.73127
849 1 -1.1104 9.29225 22.2271 6.65219
848 1 -1.1104 9.39897 25.114 6.63869
845 1 -1.1104 12.2457 25.099 6.75391
1588 1 -1.1104 9.35562 47.4722 12.2305
979 1 -1.1104 12.1344 44.8424 6.72347
719 2 2.2208 5.11704 34.7374 5.16927
720 1 -1.1104 0.990927 30.8333 1.0899
721 1 -1.1104 0.975293 36.2951 0.99439
723 1 -1.1104 0.962849 30.8019 3.74525
724 1 -1.1104 0.958813 36.2102 3.81946
726 1 -1.1104 0.801521 33.5079 1.08579
727 2 2.2208 5.22401 31.9561 2.40496
728 2 2.2208 5.14512 37.6836 2.38543
729 1 -1.1104 0.96885 33.4372 3.86512
731 1 -1.1104 3.7606 30.7182 1.12684
732 1 -1.1104 3.79322 36.2922 1.02417
733 2 2.2208 2.34325 34.7613 2.41899
734 1 -1.1104 3.91308 30.6669 3.92571
735 1 -1.1104 3.91387 36.2326 3.79031
736 2 2.2208 2.23438 32.0034 5.2388
737 2 2.2208 2.44534 37.6796 5.19313
738 1 -1.1104 3.69796 33.4633 0.883376
739 1 -1.1104 3.67258 33.3446 3.66137
725 1 -1.1104 6.62423 36.355 3.60278
743 1 -1.1104 6.61409 30.7003 0.975038
730 1 -1.1104 6.50024 33.4792 3.82143
869 1 -1.1104 0.802196 30.5539 6.53277
744 1 -1.1104 6.56297 30.586 3.66671
745 1 -1.1104 6.50457 33.4601 0.964554
722 1 -1.1104 6.51932 36.3893 0.881742
877 1 -1.1104 3.58664 33.4312 6.52625
874 1 -1.1104 6.38558 33.3534 6.61915
1167 2 2.2208 2.13331 40.5299 13.5696
9488 2 2.2208 13.6357 37.9178 5.21354
961 1 -1.1104 9.3442 38.8777 6.56189
9745 2 2.2208 13.57 34.8406 2.48781
746 2 2.2208 10.7107 34.8668 5.1591
747 1 -1.1104 12.2663 30.6855 1.01998
748 1 -1.1104 11.8832 36.2881 0.966647
749 1 -1.1104 12.2341 30.7408 3.90537
750 1 -1.1104 12.2211 36.3665 3.68426
751 1 -1.1104 12.1741 33.5081 0.979022