ITEM: TIMESTEP
90000
ITEM: NUMBER OF ATOMS
17820
ITEM: BOX BOUNDS pp pp pp
-3.5283410468383164e-01 2.7692834104683435e+01
-4.1403677680594067e+00 3.3222036776807829e+02
-3.5292294876591490e-01 2.7692922948765784e+01
ITEM: ATOMS id type q x y z
1 2 2.2208 5.12822 1.521 5.22321
2 1 -1.1104 0.97101 -2.59346 1.00777
3 1 -1.1104 0.935586 3.0032 1.03305
6 1 -1.1104 1.13219 -2.64662 3.81263
7 1 -1.1104 0.959712 3.13701 3.95047
10 1 -1.1104 0.945675 0.158595 0.997722
12 2 2.2208 5.18203 -1.22743 2.41032
14 1 -1.1104 0.886203 0.143065 3.65019
16 1 -1.1104 3.81738 -2.67872 1.05489
17 1 -1.1104 3.86268 2.91928 1.15748
18 2 2.2208 2.31447 1.5729 2.44801
19 1 -1.1104 3.93553 -2.85673 3.68773
20 1 -1.1104 3.8446 2.80325 3.87679
21 2 2.2208 2.41145 -1.35765 5.19706
22 2 2.2208 2.26267 4.44552 5.28463
23 1 -1.1104 3.76297 0.102484 0.884857
24 1 -1.1104 3.75053 -0.0394086 3.72128
13 2 2.2208 5.18742 4.34237 2.43111
4 1 -1.1104 6.68337 -2.84236 0.921062
15 1 -1.1104 6.61735 0.20101 3.75332
9 1 -1.1104 6.61234 2.98532 3.96014
166 1 -1.1104 1.1015 -2.52932 6.75034
8 1 -1.1104 6.79396 -2.62573 3.82383
167 1 -1.1104 0.955597 3.01459 6.70549
330 2 2.2208 10.7715 15.6346 13.6063
8347 2 2.2208 5.23326 -4.12247 5.26762
5 1 -1.1104 6.5718 2.79833 1.09915
105 2 2.2208 13.5535 7.11489 2.44292
174 1 -1.1104 3.73665 0.0216039 6.71266
173 1 -1.1104 3.73597 3.05589 6.62579
9066 2 2.2208 13.6393 18.3122 8.0234
8351 2 2.2208 13.6542 -4.01211 2.37601
314 1 -1.1104 9.32449 16.9262 9.5915
323 2 2.2208 2.39747 15.5374 -0.318224
11 1 -1.1104 6.55236 0.0824825 1.0594
31 2 2.2208 10.716 1.507 5.28926
32 1 -1.1104 12.3298 -2.70152 1.04205
33 1 -1.1104 12.2107 2.95298 1.09243
34 1 -1.1104 12.1897 -2.68641 3.8466
35 1 -1.1104 12.1273 2.76488 3.92079
36 1 -1.1104 12.2594 0.117003 0.955672
37 2 2.2208 10.883 -1.32459 2.37178
38 2 2.2208 10.8422 4.34674 2.52378
39 1 -1.1104 12.1301 0.0056591 3.88213
40 1 -1.1104 9.50991 -2.6362 0.949965
41 1 -1.1104 9.35167 2.89661 0.880515
42 2 2.2208 7.97941 1.54088 2.38931
43 1 -1.1104 9.47165 -2.81236 3.91487
44 1 -1.1104 9.38368 2.9007 3.73926
45 2 2.2208 8.08758 -1.26181 5.25039
46 2 2.2208 7.97515 4.3675 5.27371
47 1 -1.1104 9.42069 0.0659555 1.08252
48 1 -1.1104 9.4641 0.0709709 3.77354
52 2 2.2208 13.5754 4.34565 5.2002
50 2 2.2208 13.6551 -1.21951 5.33785
206 1 -1.1104 12.301 2.95483 6.71367
8346 2 2.2208 2.49288 -4.03362 2.34712
231 1 -1.1104 9.29206 19.7499 9.49596
8353 2 2.2208 5.1664 -3.95626 10.8361
49 2 2.2208 13.5252 1.40369 2.45836
209 1 -1.1104 9.28072 2.79856 6.52957
210 1 -1.1104 9.40067 0.0347786 6.69797
208 1 -1.1104 9.35677 -2.74313 6.65368
8350 2 2.2208 10.8362 -4.08086 5.24392
54 2 2.2208 5.14516 7.08158 5.20162
55 2 2.2208 5.30491 12.8415 5.32834
56 1 -1.1104 0.936863 8.60969 0.962242
58 1 -1.1104 1.14381 8.48866 3.78117
60 1 -1.1104 1.15666 5.70614 0.901483
61 1 -1.1104 0.910224 11.3665 1.03628
66 2 2.2208 5.21938 10.0468 2.39994
67 1 -1.1104 0.918787 5.84659 3.80111
68 1 -1.1104 1.01591 11.4382 3.76347
71 1 -1.1104 3.83709 8.55603 1.04231
72 2 2.2208 2.49539 7.0413 2.42471
73 2 2.2208 2.44871 12.7689 2.44014
74 1 -1.1104 3.921 8.55802 3.82093
75 2 2.2208 2.37156 9.96837 5.22602
76 1 -1.1104 3.81127 5.7823 1.04029
77 1 -1.1104 3.77268 11.3549 1.03622
79 1 -1.1104 3.68022 5.65742 3.85718
80 1 -1.1104 3.85013 11.4073 3.80049
70 1 -1.1104 6.63014 11.3242 3.94072
69 1 -1.1104 6.54851 5.77505 3.85426
63 1 -1.1104 6.57668 5.57252 1.0205
64 1 -1.1104 6.66712 11.3873 1.16163
57 1 -1.1104 6.72785 8.4172 0.865925
339 2 2.2208 5.21294 12.693 -0.326547
239 1 -1.1104 3.75238 5.77744 6.60281
78 1 -1.1104 3.8044 11.298 6.67512
62 1 -1.1104 0.945007 11.3121 6.70056
236 1 -1.1104 1.01989 5.8501 6.55442
65 1 -1.1104 6.63684 11.3973 6.68096
104 1 -1.1104 12.0924 14.3316 12.2782
135 1 -1.1104 11.9336 19.7411 12.3458
59 1 -1.1104 6.55344 8.57315 3.64967
237 1 -1.1104 6.57894 5.66847 6.63521
8966 2 2.2208 13.6391 12.648 2.51943
51 2 2.2208 13.6678 9.79444 5.29912
230 2 2.2208 10.7822 15.5841 8.15736
84 2 2.2208 10.7516 7.18123 5.25908
85 2 2.2208 10.9528 12.8474 5.13715
86 1 -1.1104 12.1418 8.47505 0.992231
87 1 -1.1104 12.2605 8.50655 3.89975
88 1 -1.1104 12.1892 5.75344 1.21346
89 1 -1.1104 12.1444 11.2732 1.23283
91 2 2.2208 10.8426 9.91865 2.56823
92 1 -1.1104 12.1416 5.75004 3.99809
93 1 -1.1104 12.2175 11.3252 4.00483
94 1 -1.1104 9.50439 8.61222 1.18982
95 2 2.2208 7.93284 7.20359 2.53591
96 2 2.2208 7.98455 12.7851 2.53168
97 1 -1.1104 9.4917 8.72224 3.9411
98 2 2.2208 8.01043 10.0175 5.25966
99 1 -1.1104 9.43934 5.69837 1.15049
100 1 -1.1104 9.42417 11.35 0.999044
102 1 -1.1104 9.33625 5.80573 4.00233
103 1 -1.1104 9.43433 11.4852 3.86022
265 1 -1.1104 12.237 8.49182 6.56574
101 1 -1.1104 9.32134 11.3243 6.73274
8355 2 2.2208 8.02993 -4.06072 8.05174
106 2 2.2208 5.16006 18.334 5.21118
107 1 -1.1104 1.01163 14.1222 1.00708
109 1 -1.1104 1.09564 19.839 1.08469
113 1 -1.1104 0.982976 14.1996 3.86951
114 1 -1.1104 0.893392 19.7459 3.81681
116 1 -1.1104 1.01898 17.0111 1.05041
119 2 2.2208 5.22954 15.4607 2.48622
120 2 2.2208 4.97903 21.1387 2.53329
121 1 -1.1104 0.914468 16.9456 3.79917
123 1 -1.1104 3.86136 14.1196 1.11647
125 1 -1.1104 3.72879 19.697 1.04263
127 2 2.2208 2.45107 18.3772 2.47573
128 1 -1.1104 3.74473 14.1816 3.97099
129 1 -1.1104 3.80793 19.7066 3.82688
130 2 2.2208 2.31453 15.5377 5.22949
131 2 2.2208 2.22256 21.325 5.15861
132 1 -1.1104 3.75373 16.9345 0.985497
134 1 -1.1104 3.8612 16.9666 3.75667
110 1 -1.1104 6.57193 14.1436 1.05892
122 1 -1.1104 6.50857 16.9466 3.88292
138 1 -1.1104 6.53509 19.7567 1.13077
115 1 -1.1104 6.62365 14.1004 3.74025
140 1 -1.1104 6.69284 16.9584 1.1352
108 1 -1.1104 1.14588 14.1806 6.5542
165 1 -1.1104 12.2656 17.0746 12.1413
139 1 -1.1104 6.60197 19.7007 3.84915
118 1 -1.1104 6.65124 17.0115 6.6489
124 1 -1.1104 3.88074 14.1906 6.65018
111 1 -1.1104 6.64872 14.2862 6.66666
126 1 -1.1104 3.71689 19.8391 6.5507
203 2 2.2208 7.89859 18.4027 8.07628
8847 2 2.2208 13.5432 21.2167 5.24763
8798 2 2.2208 13.5488 18.2565 2.29207
141 2 2.2208 10.7678 18.3852 5.19683
142 1 -1.1104 12.0733 14.1687 0.995492
144 1 -1.1104 11.9844 19.9021 0.923592
146 1 -1.1104 12.1752 14.1788 3.75664
147 1 -1.1104 12.2282 19.6937 3.80802
148 1 -1.1104 11.984 16.9895 0.916222
150 2 2.2208 10.7858 15.6666 2.4248
151 2 2.2208 10.7873 21.1743 2.48192
152 1 -1.1104 12.2668 16.9956 3.75443
153 1 -1.1104 9.41175 14.2347 1.05027
155 1 -1.1104 9.19344 19.7521 1.08981
157 2 2.2208 7.93263 18.4498 2.43983
158 1 -1.1104 9.33901 14.3971 3.83148
159 1 -1.1104 9.35508 19.9386 3.97119
160 2 2.2208 8.08604 15.7061 5.22541
161 2 2.2208 7.98861 21.2762 5.2599
162 1 -1.1104 9.40046 16.9313 1.09955
164 1 -1.1104 9.41927 17.1361 3.86818
149 1 -1.1104 12.1253 17.1147 6.59879
8868 2 2.2208 13.5949 15.6678 5.15302
143 1 -1.1104 12.2129 14.2539 6.5702
163 1 -1.1104 9.42128 16.9437 6.77592
154 1 -1.1104 9.50547 14.0799 6.67218
156 1 -1.1104 9.40951 19.7255 6.70113
172 1 -1.1104 3.74439 -2.74175 6.55763
8352 2 2.2208 2.4235 -4.08541 7.88847
334 2 2.2208 10.7413 1.48579 -0.330668
312 1 -1.1104 12.302 16.9615 9.2155
170 1 -1.1104 1.0414 0.179877 6.33493
168 1 -1.1104 6.47942 -2.49613 6.54109
175 2 2.2208 5.27511 1.60916 10.8787
176 1 -1.1104 0.994196 -2.64979 12.1829
177 1 -1.1104 1.07648 2.96441 12.1468
180 1 -1.1104 1.10335 -2.61258 9.46883
181 1 -1.1104 0.969543 3.00245 9.32419
184 1 -1.1104 0.998517 0.0713535 12.2898
186 2 2.2208 5.25147 -1.27613 7.98606
188 1 -1.1104 0.93983 0.232415 9.27168
190 1 -1.1104 3.82034 -2.69452 12.1281
191 1 -1.1104 3.86311 2.92585 12.2889
192 2 2.2208 2.44457 1.49877 7.97792
193 1 -1.1104 3.78525 -2.51491 9.31548
194 1 -1.1104 3.70753 2.91155 9.43179
195 2 2.2208 2.45459 -1.22594 10.6999
196 2 2.2208 2.29754 4.35659 10.8206
197 1 -1.1104 3.84682 0.0992325 12.2003
198 1 -1.1104 3.9189 0.0753264 9.46263
185 1 -1.1104 6.41498 0.172015 12.2484
187 2 2.2208 5.25574 4.4554 8.11901
178 1 -1.1104 6.58276 -2.60803 12.2045
182 1 -1.1104 6.55664 -2.52802 9.45934
179 1 -1.1104 6.66472 3.0384 12.2784
183 1 -1.1104 6.55639 2.99912 9.56144
171 1 -1.1104 6.55623 0.25464 6.51867
189 1 -1.1104 6.68048 0.114256 9.37358
8642 2 2.2208 2.36295 -4.1085 13.5684
344 2 2.2208 13.5211 9.81113 -0.333875
207 1 -1.1104 12.2031 0.183245 6.67996
169 1 -1.1104 6.51988 2.98051 6.7016
8356 2 2.2208 10.9485 -4.1019 10.8985
205 1 -1.1104 12.2093 -2.6209 6.54146
8797 2 2.2208 13.564 -1.27565 10.8527
229 2 2.2208 13.5751 1.53504 8.02397
211 2 2.2208 10.8187 1.65957 10.8532
212 1 -1.1104 12.1314 -2.67498 12.2205
213 1 -1.1104 12.375 3.05885 12.256
214 1 -1.1104 12.3789 -2.69995 9.44687
215 1 -1.1104 12.2388 3.04366 9.4253
216 1 -1.1104 12.2317 0.180274 12.244
217 2 2.2208 10.9574 -1.24048 8.04613
219 1 -1.1104 12.2901 0.236326 9.5333
220 1 -1.1104 9.3854 -2.62283 12.2458
221 1 -1.1104 9.48033 2.85265 12.2284
222 2 2.2208 7.92656 1.55907 8.05398
223 1 -1.1104 9.35486 -2.74957 9.55197
224 1 -1.1104 9.50381 3.00356 9.41758
225 2 2.2208 7.95232 -1.32254 10.8423
227 1 -1.1104 9.2289 0.122134 12.2529
228 1 -1.1104 9.4381 0.125405 9.4365
226 2 2.2208 8.04946 4.35648 10.946
218 2 2.2208 10.8407 4.35755 8.1645
320 2 2.2208 2.32399 12.7141 13.6391
137 1 -1.1104 12.2396 19.8631 9.48981
145 1 -1.1104 12.1639 19.7931 6.54675
238 1 -1.1104 3.81773 8.63423 6.5708
234 1 -1.1104 1.0026 8.61892 6.56666
240 2 2.2208 5.08507 7.24977 10.9536
241 2 2.2208 5.10015 12.6923 10.821
242 1 -1.1104 0.932331 8.4633 12.1264
244 1 -1.1104 0.904638 8.5844 9.29456
246 1 -1.1104 1.06902 5.81206 12.1912
247 1 -1.1104 1.02699 11.2691 12.254
250 2 2.2208 5.27735 9.93448 7.97094
251 1 -1.1104 0.749748 5.81424 9.40603
252 1 -1.1104 1.01177 11.4243 9.52029
255 1 -1.1104 3.75459 8.47846 12.2542
256 2 2.2208 2.40667 7.28146 7.96156
257 2 2.2208 2.60179 12.7386 8.11957
258 1 -1.1104 3.73276 8.6654 9.51075
259 2 2.2208 2.32606 9.94806 10.8074
260 1 -1.1104 3.95101 5.718 12.3493
261 1 -1.1104 3.86469 11.321 12.2109
262 1 -1.1104 3.80229 5.7131 9.55305
263 1 -1.1104 3.8334 11.3057 9.54399
249 1 -1.1104 6.6554 11.424 12.1239
254 1 -1.1104 6.6625 11.2691 9.35936
248 1 -1.1104 6.62869 5.83906 12.2514
243 1 -1.1104 6.61087 8.7329 12.3626
245 1 -1.1104 6.59495 8.3507 9.48783
83 2 2.2208 10.7719 18.3805 10.7994
8354 2 2.2208 -0.301963 -3.95076 10.6498
235 1 -1.1104 6.48094 8.63502 6.44725
267 1 -1.1104 9.37902 8.44507 6.75308
8981 2 2.2208 13.6292 7.14116 8.07432
253 1 -1.1104 6.64115 5.82926 9.44101
269 1 -1.1104 9.39731 5.71435 6.87033
90 1 -1.1104 12.2661 11.2508 6.69222
266 1 -1.1104 12.1063 5.76673 6.74084
264 1 -1.1104 9.46696 11.5436 9.40605
268 1 -1.1104 9.49683 5.83619 9.61885
270 1 -1.1104 9.48152 11.1924 12.3485
271 1 -1.1104 9.31759 5.7105 12.2991
272 2 2.2208 8.00326 10.0145 10.8446
273 1 -1.1104 9.33588 8.7146 9.51449
274 2 2.2208 8.08629 12.8819 8.05859
275 2 2.2208 7.97244 7.1381 8.17989
276 2 2.2208 10.9385 7.15011 10.8254
277 2 2.2208 10.7622 12.8265 10.8969
278 1 -1.1104 12.303 8.66525 12.3357
279 1 -1.1104 12.1769 8.67132 9.50596
280 1 -1.1104 12.1119 5.90758 12.2834
281 1 -1.1104 12.1805 11.4629 12.3494
282 2 2.2208 10.7496 9.88975 8.00819
283 1 -1.1104 12.3255 5.81023 9.59039
284 1 -1.1104 12.0592 11.3944 9.45199
285 1 -1.1104 9.46394 8.55467 12.3295
29 2 2.2208 13.5248 10.1056 10.9441
202 1 -1.1104 9.3736 19.6753 12.3815
204 1 -1.1104 9.34647 14.2269 9.43332
133 1 -1.1104 3.71206 16.9691 6.58018
302 1 -1.1104 0.980909 19.7548 6.63116
112 1 -1.1104 6.54059 19.7793 6.66519
8982 2 2.2208 13.4777 12.8381 8.12297
297 1 -1.1104 6.3114 13.97 12.3912
290 1 -1.1104 6.40179 14.1002 9.46227
289 1 -1.1104 6.56059 17.0246 9.33131
296 1 -1.1104 6.6715 19.7896 12.1274
117 1 -1.1104 0.924373 16.8952 6.64868
310 2 2.2208 2.31836 15.5733 10.7744
286 1 -1.1104 3.81149 19.674 12.1585
287 1 -1.1104 3.53467 14.1398 12.1955
291 1 -1.1104 0.949817 19.7213 9.51297
292 1 -1.1104 0.916771 16.9633 9.64575
293 2 2.2208 5.15544 21.1155 8.04874
294 1 -1.1104 0.98866 14.0387 9.32082
295 2 2.2208 5.11442 15.6278 7.9581
298 1 -1.1104 1.1299 19.8929 12.3247
299 1 -1.1104 0.891744 14.1261 12.2106
300 2 2.2208 5.23912 18.3137 10.7973
301 1 -1.1104 3.70348 19.7198 9.43647
303 2 2.2208 2.32261 18.3725 8.03791
304 1 -1.1104 3.75285 17.0351 9.43311
305 1 -1.1104 3.79398 14.0735 9.50937
307 1 -1.1104 0.853829 16.9158 12.3592
308 1 -1.1104 3.85912 16.8771 12.1529
309 2 2.2208 2.48444 21.2083 10.895
306 1 -1.1104 6.58722 16.7807 12.2194
233 2 2.2208 8.07305 21.2012 10.9151
311 2 2.2208 10.7345 21.1007 8.09598
9032 2 2.2208 13.476 21.3284 10.8871
331 2 2.2208 7.95752 18.3325 13.6535
53 1 -1.1104 9.12825 14.0941 12.2164
315 1 -1.1104 9.31907 17.042 12.3569
288 1 -1.1104 6.58305 19.8154 9.43144
232 2 2.2208 7.79184 15.5102 10.8814
136 1 -1.1104 12.2058 14.2899 9.50076
386 2 2.2208 2.48279 1.55263 13.5541
200 2 2.2208 -0.308947 -1.10909 7.87078
420 2 2.2208 10.7857 4.36168 13.6376
9343 2 2.2208 -0.325176 -1.28517 13.5974
9064 2 2.2208 -0.347053 12.7825 5.32229
27 2 2.2208 -0.339698 4.43706 2.43318
9073 2 2.2208 13.5457 12.8066 13.6284
25 2 2.2208 -0.340326 -1.32979 2.33481
316 2 2.2208 8.04999 15.616 -0.318815
326 2 2.2208 2.28292 18.362 13.599
419 2 2.2208 10.6746 -1.28451 13.6192
454 2 2.2208 2.3951 7.16037 13.6457
328 2 2.2208 5.21144 15.468 13.5671
318 2 2.2208 7.93226 21.1403 -0.265925
8365 2 2.2208 -0.314477 -4.06328 -0.258479
338 2 2.2208 2.34765 9.88818 -0.173506
9071 2 2.2208 13.5257 21.2059 -0.317552
343 2 2.2208 10.8439 12.6915 -0.250639
603 2 2.2208 7.92955 -1.34577 -0.266257
387 2 2.2208 5.27684 4.31483 13.6055
9085 2 2.2208 -0.259879 21.2334 13.5329
345 2 2.2208 5.23201 1.54819 16.5599
346 1 -1.1104 1.02382 -2.63018 17.9329
347 1 -1.1104 0.968911 2.78127 17.8814
350 1 -1.1104 1.14858 -2.77202 14.8937
352 1 -1.1104 1.0244 3.00991 14.9541
358 1 -1.1104 1.00885 0.0612814 17.7693
360 2 2.2208 5.17193 -1.24604 19.1503
362 1 -1.1104 1.061 0.0769315 14.9293
366 1 -1.1104 3.74911 -2.71539 17.875
367 1 -1.1104 3.87556 3.07161 17.9988
368 2 2.2208 2.32538 1.54064 19.3576
369 1 -1.1104 3.87174 -2.75088 14.9867
371 1 -1.1104 3.84874 2.9154 15.1366
373 2 2.2208 2.41539 -1.18808 16.4704
374 2 2.2208 2.35249 4.31322 16.5522
375 1 -1.1104 3.59583 0.165026 17.9629
376 1 -1.1104 3.89086 0.0207339 15.228
359 1 -1.1104 6.48967 0.105769 17.7258
361 2 2.2208 5.12989 4.37833 19.4968
348 1 -1.1104 6.59824 -2.6735 17.7468
364 1 -1.1104 6.7416 -0.0259245 15.0729
354 1 -1.1104 6.54927 -2.73929 14.9577
357 1 -1.1104 6.5261 2.8614 20.7523
8639 2 2.2208 7.93837 -4.11035 19.2032
8521 2 2.2208 7.94342 -4.01058 24.8836
8663 2 2.2208 5.14364 -4.09821 16.5247
8524 2 2.2208 10.9135 -4.01817 21.9685
372 1 -1.1104 3.68276 2.99413 20.6999
8662 2 2.2208 2.39237 -4.04678 19.3127
356 1 -1.1104 6.5007 2.93711 15.0648
349 1 -1.1104 6.66759 2.90847 17.927
388 2 2.2208 10.8248 1.57906 16.3046
389 1 -1.1104 12.2937 -2.5279 18.0239
390 1 -1.1104 12.1977 3.11709 17.7069
391 1 -1.1104 12.173 -2.55767 15.0874
393 1 -1.1104 12.0905 2.87351 14.8929
395 1 -1.1104 12.1859 0.322012 17.9325
396 2 2.2208 10.7559 -1.13506 19.3531
397 2 2.2208 10.7153 4.39967 19.2233
398 1 -1.1104 12.3154 0.089755 15.0986
400 1 -1.1104 9.32595 -2.6688 17.9083
401 1 -1.1104 9.42046 2.96659 17.909
402 2 2.2208 7.92088 1.4621 19.2728
403 1 -1.1104 9.37092 -2.75097 15.0761
405 1 -1.1104 9.48267 2.93027 15.0549
407 2 2.2208 7.95974 -1.32235 16.4993
409 1 -1.1104 9.27316 0.170821 17.7896
410 1 -1.1104 9.54782 0.0752843 15.0015
408 2 2.2208 8.05482 4.32905 16.4042
17550 2 2.2208 -0.28634 -4.01631 16.3898
9126 2 2.2208 13.5317 4.27148 16.2916
378 2 2.2208 13.621 15.5962 22.0596
17709 2 2.2208 13.6378 -4.05209 19.2282
404 1 -1.1104 9.43076 -2.68211 20.6671
392 1 -1.1104 12.3142 -2.56769 20.6848
406 1 -1.1104 9.23181 2.92959 20.6593
412 2 2.2208 10.7432 18.405 22.0199
17734 2 2.2208 13.5337 -3.98949 24.8679
610 2 2.2208 10.6534 21.1132 24.712
322 2 2.2208 10.8426 10.0031 13.7548
421 2 2.2208 5.16559 7.15802 16.436
422 2 2.2208 5.20437 12.7776 16.4708
423 1 -1.1104 1.00135 8.55603 18.0187
425 1 -1.1104 1.00335 8.45452 15.1183
429 1 -1.1104 0.9495 5.75967 17.8837
430 1 -1.1104 1.03691 11.4179 17.892
433 2 2.2208 5.1615 9.97931 19.3026
434 1 -1.1104 1.08814 5.83697 15.1185
436 1 -1.1104 0.849269 11.4269 15.0248
442 1 -1.1104 3.86272 8.57192 17.899
443 2 2.2208 2.32738 7.27387 19.3852
444 2 2.2208 2.30106 12.7732 19.381
445 1 -1.1104 3.68191 8.4626 15.1557
447 2 2.2208 2.26438 9.89266 16.5537
448 1 -1.1104 3.67044 5.79717 17.9795
449 1 -1.1104 3.76631 11.3651 18.0698
450 1 -1.1104 3.84246 5.67104 15.0637
452 1 -1.1104 3.62318 11.2703 15.0431
438 1 -1.1104 6.708 5.73614 15.0584
440 1 -1.1104 6.38867 11.3156 15.0722
427 1 -1.1104 6.52414 8.53391 15.0981
431 1 -1.1104 6.61636 5.78042 17.9583
547 1 -1.1104 12.1459 14.2088 23.3265
9132 2 2.2208 13.6019 1.62652 19.2146
453 1 -1.1104 3.82126 11.4051 20.7067
437 1 -1.1104 1.1807 11.3498 20.7583
435 1 -1.1104 0.982399 5.91528 20.8302
446 1 -1.1104 3.80239 8.62406 20.6738
575 2 2.2208 13.5417 7.13605 19.2801
432 1 -1.1104 6.58525 11.5112 17.8016
424 1 -1.1104 6.65926 8.54332 17.8955
457 2 2.2208 10.8846 7.1793 16.5063
458 2 2.2208 10.8159 12.7789 16.4407
459 1 -1.1104 12.1132 8.41265 17.9764
460 1 -1.1104 12.2335 8.70221 15.2142
462 1 -1.1104 12.1666 5.67217 17.802
463 1 -1.1104 12.2264 11.2931 17.8526
464 2 2.2208 10.8358 10.0413 19.2536
465 1 -1.1104 12.2082 5.84631 15.143
467 1 -1.1104 12.0937 11.3804 15.1065
469 1 -1.1104 9.2802 8.6874 17.8467
470 2 2.2208 7.97451 7.15812 19.2998
471 2 2.2208 8.05833 12.7528 19.2876
472 1 -1.1104 9.30294 8.56997 15.158
474 2 2.2208 8.00345 10.1031 16.5821
475 1 -1.1104 9.4081 5.83906 17.8909
476 1 -1.1104 9.4145 11.5821 17.8019
477 1 -1.1104 9.40196 5.77272 15.0399
479 1 -1.1104 9.36598 11.5132 15.1014
9200 2 2.2208 13.6565 10.0055 16.4735
478 1 -1.1104 9.38617 5.79815 20.8974
608 2 2.2208 7.89732 21.2078 22.0765
579 1 -1.1104 9.35055 13.944 26.3367
466 1 -1.1104 12.157 5.84548 20.5712
480 1 -1.1104 9.472 11.3458 20.7684
605 2 2.2208 10.8911 15.5431 24.8324
484 2 2.2208 5.06416 18.3233 16.4542
485 1 -1.1104 0.696544 14.2505 17.7799
486 1 -1.1104 0.892007 19.8205 17.7976
489 1 -1.1104 1.01815 14.1509 15.0572
491 1 -1.1104 1.01766 19.7041 15.0356
497 1 -1.1104 1.10694 16.9707 17.8476
499 2 2.2208 5.04587 15.6371 19.2261
500 2 2.2208 5.29462 21.2752 19.195
501 1 -1.1104 0.874352 17.0048 14.9375
505 1 -1.1104 3.65829 14.2107 17.8303
506 1 -1.1104 3.70865 19.7433 17.8191
507 2 2.2208 2.26849 18.4054 19.1412
508 1 -1.1104 3.82536 13.9226 14.9357
510 1 -1.1104 3.66664 19.7602 14.96
512 2 2.2208 2.30212 15.5355 16.3372
513 2 2.2208 2.40528 21.1283 16.3689
514 1 -1.1104 3.77554 17.0384 17.6139
515 1 -1.1104 3.70691 16.8834 14.9657
487 1 -1.1104 6.50411 14.2127 17.84
495 1 -1.1104 6.41047 19.7262 15.0708
498 1 -1.1104 6.49146 17.037 17.8752
503 1 -1.1104 6.62852 16.8904 15.112
488 1 -1.1104 6.4974 19.7733 17.8413
493 1 -1.1104 6.51691 14.1402 15.0944
494 1 -1.1104 6.46734 14.2544 20.614
490 1 -1.1104 1.0014 14.0685 20.729
516 1 -1.1104 3.6516 16.9822 20.4668
9392 2 2.2208 13.5433 9.96025 22.1457
531 1 -1.1104 12.0437 17.1262 20.6763
526 1 -1.1104 12.322 19.8622 20.5728
543 1 -1.1104 9.35041 16.96 20.7587
520 2 2.2208 10.7689 18.4166 16.5191
521 1 -1.1104 12.22 14.1459 17.8164
522 1 -1.1104 12.2471 19.7197 17.7981
523 1 -1.1104 12.1085 14.2084 15.0104
525 1 -1.1104 12.2226 19.8462 15.0415
527 1 -1.1104 12.0076 16.913 17.8225
528 2 2.2208 10.715 15.6789 19.3519
529 2 2.2208 10.8257 21.2163 19.1872
530 1 -1.1104 12.2329 17.0232 15.0864
532 1 -1.1104 9.50459 14.2651 17.9418
533 1 -1.1104 9.39401 19.7512 17.9184
534 2 2.2208 7.9169 18.2961 19.2431
535 1 -1.1104 9.37818 14.2535 14.9696
537 1 -1.1104 9.202 19.9267 15.0531
539 2 2.2208 7.90227 15.5733 16.5368
540 2 2.2208 7.97484 21.141 16.4088
541 1 -1.1104 9.24688 17.0295 17.9514
542 1 -1.1104 9.53755 17.0592 15.1306
9270 2 2.2208 13.458 15.5932 16.4344
9273 2 2.2208 13.5967 21.2143 16.4067
504 1 -1.1104 6.52778 16.9669 20.7126
536 1 -1.1104 9.36111 14.1654 20.7618
384 2 2.2208 13.5158 18.3232 19.2401
355 1 -1.1104 6.60215 -2.51015 20.5507
353 1 -1.1104 1.10625 2.98565 20.6692
365 1 -1.1104 6.61083 0.0256848 20.6209
370 1 -1.1104 3.7479 -2.7251 20.5957
325 2 2.2208 2.29394 21.2237 27.6366
8612 2 2.2208 5.25598 -3.91081 22.0108
611 1 -1.1104 12.2018 17.041 26.2758
377 1 -1.1104 3.76963 0.0677865 20.6624
351 1 -1.1104 1.04208 -2.69732 20.6986
363 1 -1.1104 0.867623 0.194517 20.7602
548 2 2.2208 5.13522 1.52049 22.0955
549 1 -1.1104 1.14637 -2.53257 23.5943
550 1 -1.1104 1.01357 2.92103 23.4852
553 1 -1.1104 0.936568 -2.66195 26.2865
554 1 -1.1104 0.88792 3.08647 26.3894
557 1 -1.1104 0.937863 0.247246 23.4218
559 2 2.2208 5.03988 -1.25754 24.6825
560 2 2.2208 5.18938 4.24181 24.8788
561 1 -1.1104 0.955211 0.241764 26.1412
563 1 -1.1104 3.78589 -2.60819 23.3443
564 1 -1.1104 3.85947 2.90281 23.565
565 2 2.2208 2.35254 1.63939 24.8648
566 1 -1.1104 3.7552 -2.66599 26.2218
567 1 -1.1104 3.70462 2.94284 26.3553
568 2 2.2208 2.35666 -1.32007 22.0888
569 2 2.2208 2.31015 4.41542 22.0248
570 1 -1.1104 3.73315 0.173955 23.3925
571 1 -1.1104 3.79568 0.294569 26.193
551 1 -1.1104 6.68188 -2.60332 23.4436
558 1 -1.1104 6.46086 0.152211 23.4489
555 1 -1.1104 6.56708 -2.76081 26.157
552 1 -1.1104 6.53119 2.87882 23.4875
556 1 -1.1104 6.60625 2.84147 26.322
456 2 2.2208 8.05039 18.4297 24.8846
9173 2 2.2208 13.5863 18.2906 24.9314
9348 2 2.2208 13.5566 21.14 21.9588
399 1 -1.1104 12.0322 0.332408 20.6795
411 1 -1.1104 9.33247 0.338674 20.7376
483 2 2.2208 7.93994 12.6874 13.7186
9167 2 2.2208 13.5812 -1.19594 21.9369
562 1 -1.1104 6.53045 0.0948466 26.2727
394 1 -1.1104 12.2262 3.01186 20.7062
9333 2 2.2208 13.6116 4.33456 22.0446
584 2 2.2208 10.7287 1.66523 22.0798
585 1 -1.1104 12.2563 -2.52812 23.3527
586 1 -1.1104 12.2174 2.90448 23.473
587 1 -1.1104 12.2376 -2.65981 26.3268
588 1 -1.1104 12.1856 2.97222 26.1699
589 1 -1.1104 12.1196 0.207605 23.3794
590 2 2.2208 10.7794 -1.22784 24.8206
592 1 -1.1104 12.2446 0.186931 26.1189
593 1 -1.1104 9.42143 -2.60247 23.3836
594 1 -1.1104 9.40759 3.03121 23.5586
595 2 2.2208 8.03137 1.3704 24.9765
596 1 -1.1104 9.45022 -2.68042 26.2328
597 1 -1.1104 9.42177 2.70956 26.4213
598 2 2.2208 7.97322 -1.11148 21.9798
600 1 -1.1104 9.29185 0.163456 23.4164
601 1 -1.1104 9.42467 0.0557699 26.3536
591 2 2.2208 10.8479 4.33177 24.9699
599 2 2.2208 8.08758 4.28315 22.1948
642 1 -1.1104 9.37105 14.1194 23.4732
607 2 2.2208 7.93202 15.554 22.1283
580 1 -1.1104 12.09 14.1892 26.2529
441 1 -1.1104 6.66537 11.4929 20.5729
428 1 -1.1104 6.53402 8.59261 20.7146
439 1 -1.1104 6.65671 5.65289 20.7792
538 1 -1.1104 9.40437 19.8039 20.748
451 1 -1.1104 3.80247 5.82762 20.7555
426 1 -1.1104 0.94047 8.66454 20.7624
613 2 2.2208 5.29334 7.19975 22.1411
614 2 2.2208 5.19677 12.7714 22.071
615 1 -1.1104 0.907157 8.57758 23.5978
617 1 -1.1104 1.11417 8.52309 26.281
619 1 -1.1104 0.755932 5.71198 23.4934
620 1 -1.1104 0.972489 11.2656 23.5416
623 2 2.2208 5.21727 10.0108 24.9897
624 1 -1.1104 1.06709 5.75918 26.192
625 1 -1.1104 1.04653 11.3181 26.2941
628 1 -1.1104 3.7606 8.7183 23.5144
629 2 2.2208 2.44296 7.18692 24.8665
630 2 2.2208 2.32647 12.6821 24.8229
631 1 -1.1104 3.90302 8.4404 26.2502
632 2 2.2208 2.48805 10.0287 22.1566
633 1 -1.1104 3.76447 5.78186 23.5133
634 1 -1.1104 3.78627 11.4735 23.4729
635 1 -1.1104 3.90025 5.7382 26.2031
636 1 -1.1104 3.73431 11.4756 26.3953
622 1 -1.1104 6.50489 11.4007 23.4637
626 1 -1.1104 6.68118 5.79061 26.229
627 1 -1.1104 6.5169 11.4207 26.2891
618 1 -1.1104 6.62218 8.58715 26.2457
576 1 -1.1104 12.2185 19.8104 23.2296
606 1 -1.1104 9.29103 19.7498 26.3169
665 1 -1.1104 9.38377 19.7383 23.5157
616 1 -1.1104 6.57053 8.59748 23.5209
621 1 -1.1104 6.68082 5.60781 23.4931
573 2 2.2208 2.33202 -1.27623 27.6773
461 1 -1.1104 12.0232 8.74986 20.8368
667 2 2.2208 13.5847 7.13738 24.8711
473 1 -1.1104 9.22847 8.61527 20.6609
468 1 -1.1104 12.2541 11.5012 20.652
644 1 -1.1104 9.252 11.2496 26.1721
645 1 -1.1104 9.45341 5.69607 26.3124
646 1 -1.1104 9.35285 11.2843 23.5234
647 1 -1.1104 9.42919 5.7181 23.5605
648 2 2.2208 8.04441 10.0235 22.0756
649 1 -1.1104 9.47794 8.38289 26.4437
650 2 2.2208 7.90196 12.7338 24.8981
651 2 2.2208 7.98768 7.084 24.8241
652 2 2.2208 10.7554 7.1595 22.1114
653 2 2.2208 10.7723 12.7358 22.1372
654 1 -1.1104 12.0331 8.64419 23.4624
655 1 -1.1104 12.184 8.48307 26.2409
656 1 -1.1104 12.1311 5.84083 23.5669
657 1 -1.1104 11.9887 11.4506 23.6199
658 2 2.2208 10.7226 9.83691 24.9128
659 1 -1.1104 12.1085 5.67409 26.3188
660 1 -1.1104 12.194 11.4141 26.4495
661 1 -1.1104 9.32342 8.46042 23.4645
583 1 -1.1104 12.2594 16.9897 23.3357
382 1 -1.1104 9.50936 16.8564 26.1831
578 1 -1.1104 6.43353 19.7833 26.4602
640 1 -1.1104 6.56776 19.9128 23.5495
496 1 -1.1104 6.47985 19.8224 20.5666
511 1 -1.1104 3.809 19.7382 20.6287
509 1 -1.1104 3.83955 14.1817 20.6217
492 1 -1.1104 0.914734 19.7042 20.5156
502 1 -1.1104 1.06973 16.8419 20.7295
544 1 -1.1104 6.72389 17.0859 23.4265
669 1 -1.1104 6.61915 14.244 26.2473
637 1 -1.1104 6.51666 14.2236 23.4099
670 1 -1.1104 3.63281 14.2087 23.5408
482 2 2.2208 2.4337 15.5625 22.0377
517 2 2.2208 2.26621 21.1121 21.9939
518 1 -1.1104 3.85933 17.0079 23.3885
519 1 -1.1104 0.977911 16.8703 23.4383
545 1 -1.1104 3.85895 14.355 26.2902
546 1 -1.1104 3.76945 17.0229 26.1417
572 2 2.2208 2.31187 18.3741 24.9121
574 1 -1.1104 3.60997 19.7271 26.2664
602 2 2.2208 5.23599 18.434 22.0655
604 1 -1.1104 0.797255 14.0109 23.6494
612 1 -1.1104 1.08982 19.6176 23.4757
638 2 2.2208 5.18003 15.657 24.8456
639 2 2.2208 5.032 21.1396 24.9617
662 1 -1.1104 0.971465 14.1998 26.301
663 1 -1.1104 0.940691 17.0429 26.3857
664 1 -1.1104 0.78334 19.8749 26.288
668 1 -1.1104 3.71602 19.7229 23.5504
666 1 -1.1104 6.7227 17.039 26.3605
8640 2 2.2208 10.9373 -3.96119 16.5084
8364 2 2.2208 5.21672 -4.10299 27.6241
381 1 -1.1104 9.34513 16.8696 23.5188
524 1 -1.1104 12.2333 14.3337 20.6223
581 1 -1.1104 12.2198 19.8372 26.0667
9070 2 2.2208 13.505 7.24327 13.6876
8611 2 2.2208 2.43988 -4.01386 24.8813
336 2 2.2208 13.6063 4.35723 27.6266
319 2 2.2208 5.17753 9.93977 13.6736
9125 2 2.2208 13.518 12.7574 24.81
9198 2 2.2208 -0.327024 1.59594 16.4895
9316 2 2.2208 -0.332937 -1.17165 24.7258
414 2 2.2208 -0.330977 9.98422 19.3792
329 2 2.2208 10.7211 21.2163 13.6915
341 2 2.2208 10.7614 7.05495 27.6878
8361 2 2.2208 10.844 -3.99613 27.6881
340 2 2.2208 -0.350771 12.7169 27.6477
335 2 2.2208 8.03981 4.22636 27.6688
342 2 2.2208 7.99937 9.96061 27.6825
337 2 2.2208 5.15805 7.12536 27.5551
333 2 2.2208 2.3746 4.2662 27.5889
9068 2 2.2208 13.5038 15.3713 27.5947
327 2 2.2208 5.1301 21.0611 13.6854
332 2 2.2208 5.14985 1.40321 27.6381
317 2 2.2208 10.7903 18.3493 27.5747
385 2 2.2208 5.16993 -1.33493 13.6918
418 2 2.2208 7.99207 1.52132 13.6911
9089 2 2.2208 13.5451 18.4065 13.7057
324 2 2.2208 5.12341 18.3156 27.6909
481 2 2.2208 7.93319 7.1191 13.731
671 2 2.2208 5.28919 23.8895 5.24627
672 2 2.2208 5.23767 29.5296 5.15599
673 1 -1.1104 0.930239 25.3979 0.969194
674 1 -1.1104 0.806149 25.3819 3.75546
675 1 -1.1104 0.917775 22.5246 0.881133
676 1 -1.1104 0.778452 28.2707 1.12805
677 2 2.2208 4.99073 26.6684 2.34259
678 1 -1.1104 0.974089 22.5562 3.73046
679 1 -1.1104 0.925658 28.1373 3.71196
680 1 -1.1104 3.5776 25.2267 0.908051
681 2 2.2208 2.26718 23.916 2.25626
682 2 2.2208 2.33954 29.4227 2.35063
683 1 -1.1104 3.65407 25.3758 3.6657
684 2 2.2208 2.22626 26.6712 5.00184
685 1 -1.1104 3.67123 22.5216 1.25129
686 1 -1.1104 3.67294 27.9411 0.933079
687 1 -1.1104 3.65368 22.6108 3.96399
688 1 -1.1104 3.70155 28.0914 3.6602
695 1 -1.1104 6.46222 28.1216 0.783192
697 1 -1.1104 6.46532 28.1817 3.69839
694 1 -1.1104 6.4777 22.4043 0.955552
696 1 -1.1104 6.48985 22.4305 3.84344
819 1 -1.1104 3.61413 22.4146 6.65934
815 1 -1.1104 1.06393 28.344 6.57648
813 1 -1.1104 6.61896 25.3329 6.60326
814 1 -1.1104 0.843534 22.7237 6.58146
812 1 -1.1104 1.01759 25.4477 6.62243
817 1 -1.1104 6.5792 28.2505 6.59023
816 1 -1.1104 6.60179 22.5064 6.66519
1166 2 2.2208 5.13287 43.6544 13.5878
692 1 -1.1104 6.46355 25.3087 1.11018
693 1 -1.1104 6.41848 25.3339 3.78263
698 2 2.2208 10.7731 24.1132 5.20352
699 2 2.2208 10.7292 29.5291 5.15034
700 1 -1.1104 12.2624 25.4272 0.953849
701 1 -1.1104 12.1892 25.4057 3.82059
702 1 -1.1104 12.2606 22.639 1.05025
703 1 -1.1104 12.042 28.1032 1.17008
704 2 2.2208 10.7695 26.8383 2.47871
705 1 -1.1104 12.1832 22.5959 3.79455
706 1 -1.1104 12.1528 28.1173 3.9382
707 1 -1.1104 9.30413 25.3719 1.06283
708 2 2.2208 7.89109 23.8509 2.36938
709 2 2.2208 7.83937 29.5842 2.34371
710 1 -1.1104 9.21262 25.447 3.76803
711 2 2.2208 7.92899 26.7894 5.1082
712 1 -1.1104 9.50656 22.4968 1.0969
713 1 -1.1104 9.3176 28.2762 0.910997
714 1 -1.1104 9.24405 22.5978 3.85491
715 1 -1.1104 9.32238 28.1463 3.77887
850 1 -1.1104 9.3221 28.1074 6.62021
718 2 2.2208 13.6592 26.7667 5.18927
845 1 -1.1104 12.147 25.4025 6.63201
846 1 -1.1104 12.2959 22.7276 6.45178
9744 2 2.2208 13.4975 29.5601 2.46745
847 1 -1.1104 12.1266 28.1574 6.56676
848 1 -1.1104 9.31147 25.4248 6.53326
9742 2 2.2208 13.6366 23.9812 2.4378
1197 2 2.2208 10.6705 43.6658 13.5572
719 2 2.2208 5.2692 34.9815 5.14867
720 1 -1.1104 0.938584 30.9829 1.01623
721 1 -1.1104 0.915718 36.634 0.98534
723 1 -1.1104 0.86114 30.9915 3.76775
724 1 -1.1104 0.847335 36.4538 3.73193
726 1 -1.1104 0.914538 33.8513 1.03449
727 2 2.2208 5.06491 32.392 2.45943
728 2 2.2208 5.1135 37.9683 2.29661
729 1 -1.1104 1.12786 33.6682 3.68086
731 1 -1.1104 3.63536 30.7278 0.890854
732 1 -1.1104 3.72439 36.4963 0.935805
733 2 2.2208 2.37016 35.1157 2.4161
734 1 -1.1104 3.69835 30.9551 3.85266
735 1 -1.1104 3.66227 36.4724 3.68727
736 2 2.2208 2.25972 32.3675 5.14629
737 2 2.2208 2.31377 37.9833 5.09307
738 1 -1.1104 3.63456 33.6829 1.009
739 1 -1.1104 3.8089 33.7822 3.88414
744 1 -1.1104 6.46922 31.0043 3.78691
725 1 -1.1104 6.53448 36.6341 3.86594
871 1 -1.1104 6.53722 30.9605 6.5677
745 1 -1.1104 6.40857 33.7146 1.0563
730 1 -1.1104 6.62838 33.6762 3.77516
722 1 -1.1104 6.60634 36.5864 0.930252
743 1 -1.1104 6.39084 30.916 0.883009
875 1 -1.1104 3.77771 30.9843 6.65283
876 1 -1.1104 3.88819 36.5257 6.51894
874 1 -1.1104 6.51028 33.6789 6.62908
981 2 2.2208 -0.255038 32.3298 8.01505