ITEM: TIMESTEP
40000
ITEM: NUMBER OF ATOMS
17820
ITEM: BOX BOUNDS pp pp pp
-3.5775216213616934e-01 2.7697752162135991e+01
-4.1278578010050113e+00 3.3220785780101437e+02
-3.5412030881992296e-01 2.7694120308819521e+01
ITEM: ATOMS id type q x y z
1 2 2.2208 5.36585 1.57718 5.27724
2 1 -1.1104 1.02817 -2.80842 0.969984
3 1 -1.1104 1.01408 2.93843 1.01019
6 1 -1.1104 0.97215 -2.69918 3.91557
7 1 -1.1104 1.13757 2.93815 3.74392
10 1 -1.1104 1.07696 0.218194 1.11931
12 2 2.2208 5.27916 -1.36795 2.30868
13 2 2.2208 5.28748 4.26132 2.49512
14 1 -1.1104 1.08581 -0.000214924 3.79574
16 1 -1.1104 4.04027 -2.60673 0.955867
17 1 -1.1104 3.94615 2.95731 1.05845
18 2 2.2208 2.57111 1.5408 2.37566
19 1 -1.1104 3.8028 -2.68589 3.81597
20 1 -1.1104 3.9186 3.03606 3.88056
21 2 2.2208 2.45866 -1.1741 5.14134
22 2 2.2208 2.55043 4.44232 5.16951
23 1 -1.1104 3.99757 0.0356428 0.925677
24 1 -1.1104 3.84658 0.258751 3.84324
8 1 -1.1104 6.67805 -2.69578 3.83593
4 1 -1.1104 6.77739 -2.6824 0.92482
11 1 -1.1104 6.79035 0.0699235 0.869824
15 1 -1.1104 6.6625 0.0160801 3.65361
166 1 -1.1104 0.977801 -2.63958 6.63049
167 1 -1.1104 1.21417 3.03034 6.75116
172 1 -1.1104 3.77838 -2.60809 6.69033
169 1 -1.1104 6.77457 2.82118 6.611
8797 2 2.2208 13.6443 -1.36657 10.862
171 1 -1.1104 6.75356 0.158753 6.60246
173 1 -1.1104 3.99309 2.95863 6.5843
8351 2 2.2208 13.559 -4.08378 2.41485
9 1 -1.1104 6.60454 2.9843 3.87256
5 1 -1.1104 6.84025 3.04302 1.04745
31 2 2.2208 10.9127 1.56292 5.24081
32 1 -1.1104 12.2108 -2.71986 1.13143
33 1 -1.1104 12.2879 2.85859 1.01851
34 1 -1.1104 12.1071 -2.67513 3.9601
35 1 -1.1104 12.3673 2.70459 3.7083
36 1 -1.1104 12.3683 -0.00438665 1.09752
37 2 2.2208 10.8366 -1.27681 2.4768
38 2 2.2208 10.9726 4.15151 2.43519
39 1 -1.1104 12.2622 0.0257845 3.84509
40 1 -1.1104 9.47464 -2.59184 0.967313
41 1 -1.1104 9.56615 2.89152 1.00426
42 2 2.2208 8.12738 1.56289 2.43226
43 1 -1.1104 9.2864 -2.75792 3.76792
44 1 -1.1104 9.54527 2.90784 3.88947
45 2 2.2208 7.95884 -1.21975 5.1536
46 2 2.2208 8.18512 4.40686 5.20874
47 1 -1.1104 9.5451 0.168165 0.999444
48 1 -1.1104 9.43065 0.0603436 3.8949
8348 2 2.2208 -0.317127 -4.10634 5.25926
168 1 -1.1104 6.58896 -2.6438 6.71537
8355 2 2.2208 8.02543 -4.13695 8.10544
54 2 2.2208 5.25025 7.10684 5.21613
55 2 2.2208 5.31611 12.6255 5.25084
56 1 -1.1104 0.878765 8.41985 1.12491
58 1 -1.1104 1.13856 8.60173 3.9012
60 1 -1.1104 1.14822 5.60017 0.969375
61 1 -1.1104 1.03286 11.3026 1.13359
66 2 2.2208 5.16072 9.899 2.42922
67 1 -1.1104 1.20489 5.70386 3.79842
68 1 -1.1104 1.00433 11.3776 3.80422
71 1 -1.1104 3.79076 8.45852 1.08005
72 2 2.2208 2.54758 7.08958 2.33328
73 2 2.2208 2.44023 12.8021 2.47521
74 1 -1.1104 3.8325 8.51485 3.88643
75 2 2.2208 2.4362 9.94845 5.23942
76 1 -1.1104 3.98375 5.56309 0.86255
77 1 -1.1104 3.78553 11.2225 0.762243
79 1 -1.1104 4.01065 5.94157 3.65057
80 1 -1.1104 3.83637 11.2841 3.7292
62 1 -1.1104 1.00547 11.4717 6.61617
64 1 -1.1104 6.54506 11.2549 0.995577
78 1 -1.1104 3.90154 11.1758 6.64325
236 1 -1.1104 1.17869 5.94207 6.58719
238 1 -1.1104 3.82703 8.49364 6.73744
239 1 -1.1104 4.02225 5.59789 6.52469
8356 2 2.2208 10.804 -4.12351 10.8943
105 2 2.2208 13.6557 7.06948 2.2844
57 1 -1.1104 6.5289 8.38876 0.942658
69 1 -1.1104 6.80819 5.72262 3.94495
63 1 -1.1104 6.72514 5.66787 1.01161
70 1 -1.1104 6.59858 11.2637 3.82671
59 1 -1.1104 6.53999 8.58627 3.8894
84 2 2.2208 10.8668 7.00429 5.23591
85 2 2.2208 10.8263 12.6164 5.13027
86 1 -1.1104 12.1089 8.66142 0.890191
87 1 -1.1104 12.0661 8.45382 3.80182
88 1 -1.1104 12.2803 5.70929 1.00616
89 1 -1.1104 12.1851 11.4015 0.989027
91 2 2.2208 10.7809 9.90771 2.38706
92 1 -1.1104 12.3356 5.5869 3.82789
93 1 -1.1104 12.1416 11.1821 3.75083
94 1 -1.1104 9.34179 8.51596 0.954759
95 2 2.2208 8.04076 6.97629 2.32839
96 2 2.2208 7.94358 12.5824 2.37884
97 1 -1.1104 9.3581 8.55164 3.72479
98 2 2.2208 8.01177 9.88932 5.24532
99 1 -1.1104 9.45405 5.79572 1.05996
100 1 -1.1104 9.28717 11.2531 0.960412
102 1 -1.1104 9.6358 5.727 3.77963
103 1 -1.1104 9.37055 11.269 3.8443
265 1 -1.1104 12.3437 8.45238 6.59871
266 1 -1.1104 12.3277 5.58943 6.5701
235 1 -1.1104 6.72169 8.48242 6.63606
65 1 -1.1104 6.65413 11.3024 6.61878
9085 2 2.2208 -0.443066 21.2215 13.5496
8352 2 2.2208 2.4047 -4.0667 8.03664
8353 2 2.2208 5.08394 -4.03518 10.7719
329 2 2.2208 10.8095 21.1454 13.6546
106 2 2.2208 5.3688 18.2833 5.17066
107 1 -1.1104 1.18505 14.1594 0.98303
109 1 -1.1104 1.09178 19.7504 0.929503
113 1 -1.1104 0.991707 14.0219 3.74213
114 1 -1.1104 0.858642 19.6164 3.80849
116 1 -1.1104 0.948178 16.8989 0.848659
119 2 2.2208 5.22484 15.5085 2.46143
120 2 2.2208 5.23284 21.0792 2.32787
121 1 -1.1104 1.14593 16.7913 3.76874
123 1 -1.1104 3.98531 14.012 0.996871
125 1 -1.1104 3.96252 19.6517 0.823459
127 2 2.2208 2.41109 18.2766 2.2662
128 1 -1.1104 3.95093 14.1167 3.86877
129 1 -1.1104 3.64196 19.7443 3.57142
130 2 2.2208 2.37808 15.4862 5.24972
131 2 2.2208 2.28254 21.0293 5.07464
132 1 -1.1104 3.88938 16.8346 1.047
134 1 -1.1104 3.93504 17.0348 3.72699
140 1 -1.1104 6.71786 16.8796 0.970154
122 1 -1.1104 6.75219 16.8569 3.78065
138 1 -1.1104 6.83342 19.5929 1.04651
118 1 -1.1104 6.50751 16.8183 6.52502
126 1 -1.1104 3.74856 19.4995 6.45947
133 1 -1.1104 3.88141 16.8089 6.40019
139 1 -1.1104 6.63725 19.5221 3.72123
112 1 -1.1104 6.5763 19.6551 6.5482
108 1 -1.1104 1.12417 14.1163 6.66239
163 1 -1.1104 9.54925 16.8729 6.74104
115 1 -1.1104 6.74261 13.9997 3.86954
110 1 -1.1104 6.66365 13.9654 0.946239
319 2 2.2208 5.34999 9.88406 13.749
141 2 2.2208 10.862 18.4195 5.27199
142 1 -1.1104 12.2463 14.0399 1.1076
144 1 -1.1104 12.3026 19.6001 1.04599
146 1 -1.1104 12.2486 14.1291 3.75555
147 1 -1.1104 12.3095 19.7547 3.77628
148 1 -1.1104 12.1661 16.8068 1.0721
150 2 2.2208 10.8925 15.5741 2.52904
151 2 2.2208 10.8219 21.1059 2.39679
152 1 -1.1104 12.2309 17.0576 3.8632
153 1 -1.1104 9.53854 14.0836 1.02511
155 1 -1.1104 9.4825 19.7886 0.854477
157 2 2.2208 8.14177 18.2372 2.37425
158 1 -1.1104 9.43567 14.198 4.0042
159 1 -1.1104 9.48565 19.7152 3.7622
160 2 2.2208 8.10615 15.5552 5.32463
161 2 2.2208 7.97041 21.0937 5.15323
162 1 -1.1104 9.45574 16.8805 0.957479
164 1 -1.1104 9.41739 17.0194 3.83433
154 1 -1.1104 9.47419 14.0434 6.63308
143 1 -1.1104 12.3534 13.9922 6.64455
149 1 -1.1104 12.2997 16.8617 6.63932
156 1 -1.1104 9.39068 19.6777 6.62356
8349 2 2.2208 8.15171 -4.14962 2.35675
170 1 -1.1104 1.09612 0.173308 6.61301
203 2 2.2208 8.05612 18.236 7.99117
174 1 -1.1104 3.95826 0.127696 6.54859
175 2 2.2208 5.21945 1.65702 10.71
176 1 -1.1104 1.03803 -2.82056 12.1791
177 1 -1.1104 0.95837 2.91706 12.3029
180 1 -1.1104 0.974302 -2.67726 9.34541
181 1 -1.1104 1.13124 2.84165 9.48537
184 1 -1.1104 1.16859 0.0717286 12.2979
186 2 2.2208 5.32239 -1.31335 8.04116
187 2 2.2208 5.32986 4.31897 8.04061
188 1 -1.1104 1.24204 0.109467 9.38014
190 1 -1.1104 3.81599 -2.68393 12.2396
191 1 -1.1104 3.86575 2.80746 12.2881
192 2 2.2208 2.56892 1.52904 8.0086
193 1 -1.1104 3.77815 -2.71318 9.52331
194 1 -1.1104 3.99383 2.9571 9.42011
195 2 2.2208 2.50571 -1.23223 10.8286
196 2 2.2208 2.48368 4.29708 10.8165
197 1 -1.1104 3.81888 -0.0608714 12.2898
198 1 -1.1104 4.05076 0.0964521 9.45432
183 1 -1.1104 6.81841 2.90145 9.33424
179 1 -1.1104 6.61086 3.01185 12.2922
182 1 -1.1104 6.57357 -2.86294 9.46216
185 1 -1.1104 6.58102 0.245768 12.2372
178 1 -1.1104 6.72739 -2.65549 12.2477
386 2 2.2208 2.47777 1.47199 13.6505
420 2 2.2208 10.8999 4.3093 13.726
189 1 -1.1104 6.63243 0.0348278 9.44797
205 1 -1.1104 12.2944 -2.75929 6.76891
209 1 -1.1104 9.52227 3.05956 6.56459
206 1 -1.1104 12.4081 2.7724 6.61519
208 1 -1.1104 9.47608 -2.68625 6.77295
202 1 -1.1104 9.37725 19.7049 12.2523
210 1 -1.1104 9.60042 0.228785 6.73406
207 1 -1.1104 12.3717 0.045833 6.62439
211 2 2.2208 10.9667 1.49622 10.8076
212 1 -1.1104 12.2557 -2.74922 12.2292
213 1 -1.1104 12.367 2.97894 12.268
214 1 -1.1104 12.1764 -2.6508 9.42883
215 1 -1.1104 12.4497 2.84301 9.31753
216 1 -1.1104 12.3172 0.139868 12.2417
217 2 2.2208 10.846 -1.2679 8.116
218 2 2.2208 10.9798 4.25916 7.98358
219 1 -1.1104 12.4167 0.0520011 9.3233
220 1 -1.1104 9.47283 -2.73557 12.3979
221 1 -1.1104 9.5577 2.74844 12.2306
222 2 2.2208 8.17631 1.56199 7.97164
223 1 -1.1104 9.32418 -2.72396 9.56973
224 1 -1.1104 9.59312 2.84449 9.48127
225 2 2.2208 8.01947 -1.25546 10.8632
227 1 -1.1104 9.52581 -0.0030734 12.2024
228 1 -1.1104 9.51541 0.109279 9.44793
226 2 2.2208 8.16343 4.20685 10.9206
311 2 2.2208 10.9823 21.1317 8.03195
8347 2 2.2208 5.16905 -4.17606 5.21042
145 1 -1.1104 12.2822 19.7248 6.86913
234 1 -1.1104 0.978238 8.64708 6.67741
9130 2 2.2208 13.7494 1.49655 13.7276
240 2 2.2208 5.20863 7.03869 10.9201
241 2 2.2208 5.28399 12.6834 10.847
242 1 -1.1104 1.00085 8.42446 12.1344
244 1 -1.1104 1.06437 8.50993 9.55313
246 1 -1.1104 1.09434 5.71029 12.2524
247 1 -1.1104 0.901592 11.2464 12.2918
250 2 2.2208 5.28411 9.85493 8.1119
251 1 -1.1104 1.1522 5.69309 9.43959
252 1 -1.1104 1.17111 11.2657 9.50115
255 1 -1.1104 3.86383 8.50889 12.3099
256 2 2.2208 2.49941 7.09314 7.99663
257 2 2.2208 2.44234 12.6902 8.0422
258 1 -1.1104 3.94567 8.628 9.54561
259 2 2.2208 2.43905 9.89569 10.8277
260 1 -1.1104 3.84124 5.47784 12.3259
261 1 -1.1104 3.73855 11.2578 12.117
262 1 -1.1104 3.91047 5.7188 9.44032
263 1 -1.1104 4.0161 11.43 9.43964
243 1 -1.1104 6.77101 8.54307 12.3105
249 1 -1.1104 6.56217 11.206 12.269
253 1 -1.1104 6.65676 5.66442 9.43248
248 1 -1.1104 6.48942 5.68763 12.3289
8350 2 2.2208 10.7166 -4.10752 5.24631
483 2 2.2208 8.08398 12.7031 13.6218
137 1 -1.1104 12.2541 19.7623 9.53478
9064 2 2.2208 -0.424195 12.7427 5.2422
237 1 -1.1104 6.7311 5.6549 6.54291
245 1 -1.1104 6.74454 8.41486 9.53696
254 1 -1.1104 6.66602 11.2666 9.51387
269 1 -1.1104 9.5794 5.69451 6.73938
267 1 -1.1104 9.49536 8.48233 6.73185
101 1 -1.1104 9.56558 11.3585 6.59117
90 1 -1.1104 12.2895 11.2852 6.5715
330 2 2.2208 11.094 15.4763 13.6033
264 1 -1.1104 9.54143 11.1645 9.29497
268 1 -1.1104 9.43077 5.6985 9.57228
270 1 -1.1104 9.47484 11.2343 12.2375
271 1 -1.1104 9.44514 5.50786 12.3798
272 2 2.2208 8.1042 9.87523 10.7503
273 1 -1.1104 9.55792 8.45996 9.46418
274 2 2.2208 8.14211 12.6199 7.95524
275 2 2.2208 8.16985 6.94507 8.13789
276 2 2.2208 10.8506 7.04949 10.8143
277 2 2.2208 10.9583 12.6855 10.7819
278 1 -1.1104 12.3372 8.62341 12.3689
279 1 -1.1104 12.207 8.54265 9.38609
280 1 -1.1104 12.1814 5.80233 12.2256
281 1 -1.1104 12.3192 11.3764 12.2454
282 2 2.2208 10.8771 9.85482 7.91339
283 1 -1.1104 12.2519 5.62236 9.52984
284 1 -1.1104 12.2292 11.2981 9.37101
285 1 -1.1104 9.53582 8.40727 12.3052
204 1 -1.1104 9.60215 13.9572 9.31486
289 1 -1.1104 6.69822 16.7318 9.3163
117 1 -1.1104 1.03564 16.7683 6.72028
111 1 -1.1104 6.6876 14.0579 6.68591
124 1 -1.1104 3.77157 14.1225 6.62382
315 1 -1.1104 9.44711 16.7994 12.2841
302 1 -1.1104 0.847389 19.6799 6.54472
290 1 -1.1104 6.82101 14.0319 9.41609
306 1 -1.1104 6.67338 16.8846 12.1462
286 1 -1.1104 3.75611 19.784 12.1129
287 1 -1.1104 4.05556 14.1258 12.0349
291 1 -1.1104 1.02107 19.6615 9.45935
292 1 -1.1104 1.01424 16.8792 9.4892
293 2 2.2208 5.15255 21.0938 8.02127
294 1 -1.1104 1.2122 14.0729 9.50905
295 2 2.2208 5.358 15.4248 7.99782
298 1 -1.1104 0.959653 19.6796 12.1607
299 1 -1.1104 1.19862 14.1317 12.2887
300 2 2.2208 5.34951 18.309 10.835
301 1 -1.1104 3.90946 19.567 9.33699
303 2 2.2208 2.52074 18.2507 7.95991
304 1 -1.1104 3.92187 16.8357 9.37837
305 1 -1.1104 4.03291 14.0735 9.28924
307 1 -1.1104 1.10295 16.8976 12.2357
308 1 -1.1104 3.91845 16.9936 12.1856
309 2 2.2208 2.38161 21.123 10.8254
310 2 2.2208 2.53715 15.4859 10.8755
297 1 -1.1104 6.61064 14.0599 12.1664
296 1 -1.1104 6.54681 19.7854 12.241
288 1 -1.1104 6.77851 19.6104 9.43669
233 2 2.2208 8.16512 21.166 10.7305
165 1 -1.1104 12.3791 16.9482 12.2321
8772 2 2.2208 -0.395186 21.0408 7.98275
49 2 2.2208 13.7417 1.41771 2.46118
232 2 2.2208 8.21477 15.3974 10.8132
312 1 -1.1104 12.1947 16.8846 9.37988
230 2 2.2208 10.9261 15.4004 7.93854
53 1 -1.1104 9.58563 13.9882 12.2633
136 1 -1.1104 12.2466 14.1727 9.36177
135 1 -1.1104 12.2127 19.7523 12.2088
51 2 2.2208 13.6523 9.8932 5.19392
104 1 -1.1104 12.2816 14.1081 12.1807
314 1 -1.1104 9.50046 16.8245 9.43193
83 2 2.2208 10.8958 18.2808 10.7949
231 1 -1.1104 9.55319 19.6882 9.38373
385 2 2.2208 5.33114 -1.15942 13.5552
8847 2 2.2208 13.699 21.109 5.23304
8966 2 2.2208 13.6213 12.6929 2.36524
9070 2 2.2208 13.786 7.17297 13.6866
8798 2 2.2208 13.7383 18.3127 2.41734
8982 2 2.2208 13.6828 12.7378 8.06121
9032 2 2.2208 13.7137 21.0863 10.9526
387 2 2.2208 5.20091 4.30095 13.7719
8930 2 2.2208 -0.454111 18.3255 5.17475
25 2 2.2208 -0.40931 -1.41718 2.50123
8771 2 2.2208 -0.250073 18.2931 10.8914
199 2 2.2208 -0.232306 4.30062 7.87862
577 2 2.2208 -0.51333 4.20975 13.7205
327 2 2.2208 5.30828 21.2154 13.6609
8638 2 2.2208 7.97148 -4.13132 13.5854
8642 2 2.2208 2.40824 -4.16992 13.7347
8361 2 2.2208 10.9295 -4.10693 -0.474441
331 2 2.2208 7.99657 18.1046 13.6048
317 2 2.2208 10.9016 18.2524 -0.41833
609 2 2.2208 13.6962 -1.24129 -0.386762
8364 2 2.2208 5.19752 -4.24833 -0.565296
345 2 2.2208 5.19945 1.4819 16.5358
346 1 -1.1104 1.01373 -2.59223 17.8433
347 1 -1.1104 0.961694 2.89979 17.8534
350 1 -1.1104 1.00887 -2.69751 14.9905
352 1 -1.1104 0.913659 2.90741 15.0687
358 1 -1.1104 1.06452 0.173555 17.6939
360 2 2.2208 5.12784 -1.19283 19.3514
361 2 2.2208 5.21113 4.26762 19.2475
362 1 -1.1104 0.980344 0.198382 15.036
366 1 -1.1104 3.70765 -2.64377 17.8182
367 1 -1.1104 3.7908 2.86294 17.9385
368 2 2.2208 2.35544 1.58605 19.282
369 1 -1.1104 4.00298 -2.65868 14.9821
371 1 -1.1104 3.69791 2.93126 15.1023
373 2 2.2208 2.41309 -1.32085 16.3213
374 2 2.2208 2.37406 4.28334 16.4532
375 1 -1.1104 3.87243 0.159703 17.9588
376 1 -1.1104 3.88571 0.0435797 15.1899
364 1 -1.1104 6.60873 0.262278 15.004
349 1 -1.1104 6.50199 2.79361 17.7433
354 1 -1.1104 6.79912 -2.65005 15.0824
356 1 -1.1104 6.66988 2.98507 15.1401
359 1 -1.1104 6.75726 0.047451 17.8289
348 1 -1.1104 6.52782 -2.6788 17.8979
363 1 -1.1104 0.901306 0.0429396 20.7135
9420 2 2.2208 -0.398952 7.12741 22.0463
416 2 2.2208 13.7436 -1.1914 16.4781
339 2 2.2208 5.21619 12.7123 27.481
388 2 2.2208 10.8969 1.45775 16.4586
389 1 -1.1104 12.2097 -2.60273 17.7637
390 1 -1.1104 12.2768 2.92919 17.847
391 1 -1.1104 12.3042 -2.69211 14.9857
393 1 -1.1104 12.2889 2.87095 15.1582
395 1 -1.1104 12.2819 0.102427 17.9051
396 2 2.2208 10.8362 -1.3258 19.2103
397 2 2.2208 10.8742 4.36268 19.4069
398 1 -1.1104 12.3024 0.0742103 14.9824
400 1 -1.1104 9.47964 -2.79793 17.7404
401 1 -1.1104 9.44317 3.0557 17.9417
402 2 2.2208 8.0784 1.59143 19.22
403 1 -1.1104 9.36767 -2.80446 15.0332
405 1 -1.1104 9.44348 2.86544 15.0215
407 2 2.2208 8.0382 -1.28288 16.4319
408 2 2.2208 8.0879 4.28395 16.5335
409 1 -1.1104 9.44083 0.0926838 17.9725
410 1 -1.1104 9.4865 0.0330256 15.069
316 2 2.2208 8.16658 15.4628 27.6199
343 2 2.2208 10.832 12.5482 27.6933
9126 2 2.2208 13.7174 4.25702 16.4544
394 1 -1.1104 12.5129 2.98306 20.6019
392 1 -1.1104 12.1553 -2.58223 20.6378
411 1 -1.1104 9.63199 0.0174859 20.6456
399 1 -1.1104 12.4214 0.237326 20.7271
333 2 2.2208 2.5001 4.20389 27.6335
335 2 2.2208 8.03769 4.33406 27.6325
334 2 2.2208 10.7796 1.40569 27.6559
421 2 2.2208 5.30045 6.96018 16.5043
422 2 2.2208 5.18163 12.6978 16.3932
423 1 -1.1104 1.04965 8.48993 17.9434
425 1 -1.1104 1.03939 8.5009 15.1057
429 1 -1.1104 1.05903 5.59215 17.8773
430 1 -1.1104 0.958968 11.2601 18.0391
433 2 2.2208 5.11583 9.76239 19.1753
434 1 -1.1104 1.0112 5.64878 14.9612
436 1 -1.1104 0.913497 11.2306 15.1795
442 1 -1.1104 3.82469 8.28223 17.9075
443 2 2.2208 2.44451 7.07763 19.3142
444 2 2.2208 2.42533 12.6823 19.2592
445 1 -1.1104 3.75394 8.45309 15.2101
447 2 2.2208 2.32131 9.93819 16.5116
448 1 -1.1104 3.83776 5.5751 17.8288
449 1 -1.1104 3.76659 11.2454 17.8712
450 1 -1.1104 3.94848 5.73459 15.0862
452 1 -1.1104 3.9065 11.2171 15.0516
431 1 -1.1104 6.66613 5.54374 17.906
438 1 -1.1104 6.74447 5.62755 14.9674
440 1 -1.1104 6.64488 11.3581 15.0241
427 1 -1.1104 6.67979 8.46051 15.0556
424 1 -1.1104 6.64005 8.45654 17.7846
437 1 -1.1104 1.14073 11.5557 20.5857
325 2 2.2208 2.527 21.187 27.599
8521 2 2.2208 8.06685 -4.08702 24.7679
610 2 2.2208 10.8799 21.082 24.8699
9132 2 2.2208 13.7843 1.63513 19.1794
432 1 -1.1104 6.52846 11.2869 17.8626
457 2 2.2208 10.861 7.25867 16.4762
458 2 2.2208 10.8279 12.7196 16.43
459 1 -1.1104 12.3371 8.56166 17.8192
460 1 -1.1104 12.3863 8.4209 15.0365
462 1 -1.1104 12.2202 5.87067 17.9873
463 1 -1.1104 12.1992 11.2807 17.9123
464 2 2.2208 10.8781 9.90657 19.2661
465 1 -1.1104 12.283 5.75982 15.1676
467 1 -1.1104 12.3174 11.2869 15.138
469 1 -1.1104 9.3639 8.49512 17.8258
470 2 2.2208 7.92008 7.06936 19.1832
471 2 2.2208 7.92733 12.6425 19.1826
472 1 -1.1104 9.41666 8.44866 15.0838
474 2 2.2208 8.09687 9.88008 16.3744
475 1 -1.1104 9.39849 5.85402 17.8439
476 1 -1.1104 9.2533 11.3981 17.6363
477 1 -1.1104 9.36129 5.64991 15.1563
479 1 -1.1104 9.4389 11.3235 14.967
323 2 2.2208 2.49378 15.3979 27.5487
473 1 -1.1104 9.40582 8.4463 20.5305
9166 2 2.2208 13.6252 1.58804 24.9949
466 1 -1.1104 12.3256 5.87018 20.6325
480 1 -1.1104 9.44377 11.2599 20.5352
456 2 2.2208 8.19112 18.294 24.7199
337 2 2.2208 5.17348 7.13271 27.5915
642 1 -1.1104 9.58725 14.0619 23.432
484 2 2.2208 5.19964 18.3115 16.2648
485 1 -1.1104 1.08492 14.1165 17.8507
486 1 -1.1104 1.09556 19.7587 17.7696
489 1 -1.1104 0.93719 14.0798 15.097
491 1 -1.1104 0.923059 19.8262 14.9584
497 1 -1.1104 1.00964 16.9669 17.7257
499 2 2.2208 5.29611 15.4329 19.152
500 2 2.2208 5.27294 21.0079 19.0059
501 1 -1.1104 1.00584 16.934 15.0025
505 1 -1.1104 3.7177 14.1707 17.7439
506 1 -1.1104 3.751 19.7699 17.6874
507 2 2.2208 2.45348 18.2939 19.12
508 1 -1.1104 3.68475 14.0804 14.9619
510 1 -1.1104 3.78533 19.8737 14.9334
512 2 2.2208 2.44733 15.4784 16.3616
513 2 2.2208 2.3285 21.2577 16.27
514 1 -1.1104 3.77018 17.003 17.7317
515 1 -1.1104 3.84045 17.0379 14.8529
493 1 -1.1104 6.60554 14.038 15.0115
495 1 -1.1104 6.73491 19.685 14.9709
503 1 -1.1104 6.63012 16.8086 15.0065
487 1 -1.1104 6.7325 14.2409 17.8525
511 1 -1.1104 3.85357 19.6696 20.451
488 1 -1.1104 6.78363 19.689 17.6603
502 1 -1.1104 1.11685 16.9826 20.503
490 1 -1.1104 1.04171 14.172 20.6245
583 1 -1.1104 12.3079 16.7575 23.5373
382 1 -1.1104 9.52046 16.8897 26.1647
498 1 -1.1104 6.65687 16.9521 17.78
8662 2 2.2208 2.42935 -4.06948 19.11
504 1 -1.1104 6.55806 16.7875 20.5435
531 1 -1.1104 12.3934 16.9601 20.6287
547 1 -1.1104 12.3548 13.9715 23.453
520 2 2.2208 10.8773 18.3849 16.327
521 1 -1.1104 12.2781 14.1663 17.8365
522 1 -1.1104 12.1755 19.8058 17.7514
523 1 -1.1104 12.42 14.0686 15.1535
525 1 -1.1104 12.2137 19.6434 15.0176
527 1 -1.1104 12.3132 17.1051 17.8775
528 2 2.2208 10.8089 15.5056 19.2433
529 2 2.2208 10.8796 21.0552 19.3314
530 1 -1.1104 12.3455 16.9103 15.0291
532 1 -1.1104 9.48675 14.1851 17.8735
533 1 -1.1104 9.59322 19.7717 17.8342
534 2 2.2208 8.05014 18.2904 19.1397
535 1 -1.1104 9.53183 14.1198 15.0875
537 1 -1.1104 9.52897 19.6006 15.0326
539 2 2.2208 8.12267 15.5003 16.4167
540 2 2.2208 8.1818 21.154 16.4139
541 1 -1.1104 9.46676 16.8069 17.6741
542 1 -1.1104 9.40167 16.9095 14.9378
536 1 -1.1104 9.53261 14.0511 20.5541
8639 2 2.2208 8.01259 -4.03309 19.2351
526 1 -1.1104 12.3911 19.8097 20.7105
494 1 -1.1104 6.68868 14.0481 20.6714
524 1 -1.1104 12.4404 14.1695 20.6083
607 2 2.2208 8.0999 15.4487 21.9846
372 1 -1.1104 3.78167 2.93999 20.6844
357 1 -1.1104 6.6599 3.01707 20.5248
365 1 -1.1104 6.63078 0.286002 20.4999
351 1 -1.1104 1.094 -2.62903 20.6547
377 1 -1.1104 3.6715 0.0974201 20.7162
353 1 -1.1104 1.00136 2.99649 20.6832
370 1 -1.1104 3.838 -2.68385 20.6777
548 2 2.2208 5.27273 1.56909 22.1775
549 1 -1.1104 1.08621 -2.50983 23.5204
550 1 -1.1104 1.03537 3.0859 23.3653
553 1 -1.1104 1.0625 -2.76341 26.2465
554 1 -1.1104 1.08867 2.75485 26.1746
557 1 -1.1104 1.02172 0.351412 23.4075
559 2 2.2208 5.31255 -1.30682 24.8088
560 2 2.2208 5.19751 4.27258 24.8737
561 1 -1.1104 1.07774 0.0165056 26.4196
563 1 -1.1104 3.91617 -2.61073 23.4486
564 1 -1.1104 3.88215 2.8936 23.3723
565 2 2.2208 2.45079 1.41466 24.781
566 1 -1.1104 3.77763 -2.73276 26.1862
567 1 -1.1104 3.85801 2.77091 26.1369
568 2 2.2208 2.33408 -1.2077 22.0107
569 2 2.2208 2.47274 4.29 22.0966
570 1 -1.1104 3.82898 0.0648186 23.5696
571 1 -1.1104 3.8396 0.045585 26.1815
555 1 -1.1104 6.54984 -2.76468 26.1431
562 1 -1.1104 6.66358 0.159637 26.0959
551 1 -1.1104 6.81186 -2.65526 23.3977
552 1 -1.1104 6.70816 2.89242 23.4679
556 1 -1.1104 6.57967 2.89184 26.3509
384 2 2.2208 13.8188 18.3363 19.2091
404 1 -1.1104 9.32332 -2.60641 20.5184
355 1 -1.1104 6.70305 -2.68162 20.7678
558 1 -1.1104 6.59882 0.0310605 23.2112
406 1 -1.1104 9.52831 2.84346 20.7008
8663 2 2.2208 5.21204 -4.11775 16.4889
342 2 2.2208 7.8845 9.95761 27.6272
584 2 2.2208 10.9567 1.55251 22.062
585 1 -1.1104 12.2385 -2.67923 23.2856
586 1 -1.1104 12.3024 2.95017 23.5843
587 1 -1.1104 12.3542 -2.60124 26.2121
588 1 -1.1104 12.1478 2.92017 26.2901
589 1 -1.1104 12.3942 0.168811 23.5277
590 2 2.2208 10.935 -1.38672 24.8798
592 1 -1.1104 12.3022 0.08547 26.3581
593 1 -1.1104 9.49614 -2.68831 23.3486
594 1 -1.1104 9.67343 2.9036 23.5581
595 2 2.2208 8.15312 1.41013 24.7297
596 1 -1.1104 9.5641 -2.80339 26.1431
597 1 -1.1104 9.39742 2.87453 26.2568
598 2 2.2208 8.06412 -1.1996 21.9613
599 2 2.2208 7.962 4.39701 22.1228
600 1 -1.1104 9.34431 0.186993 23.3509
601 1 -1.1104 9.40796 -0.0646853 26.1521
591 2 2.2208 10.9016 4.2483 24.8592
669 1 -1.1104 6.7721 14.0145 26.2306
640 1 -1.1104 6.77347 19.6286 23.3531
9313 2 2.2208 -0.422394 18.3741 16.3456
451 1 -1.1104 3.80366 5.7612 20.6031
453 1 -1.1104 3.73633 11.1176 20.5451
446 1 -1.1104 3.73659 8.40133 20.7222
435 1 -1.1104 0.994714 5.75934 20.6711
426 1 -1.1104 0.941804 8.46967 20.678
439 1 -1.1104 6.62871 5.66026 20.6439
428 1 -1.1104 6.58848 8.47118 20.5737
613 2 2.2208 5.27577 7.07785 22.0711
614 2 2.2208 5.25019 12.628 21.8773
615 1 -1.1104 0.959934 8.53736 23.4051
617 1 -1.1104 0.96556 8.51451 26.2966
619 1 -1.1104 1.1178 5.84788 23.37
620 1 -1.1104 1.06516 11.3198 23.3951
623 2 2.2208 5.14303 9.81947 24.7674
624 1 -1.1104 0.986867 5.60537 26.2203
625 1 -1.1104 1.0594 11.3612 26.2203
628 1 -1.1104 3.65743 8.48226 23.2664
629 2 2.2208 2.42233 7.163 24.8016
630 2 2.2208 2.54565 12.6611 24.7569
631 1 -1.1104 3.87323 8.52187 26.0759
632 2 2.2208 2.39886 9.91445 21.9575
633 1 -1.1104 3.79425 5.67903 23.482
634 1 -1.1104 3.99041 11.3381 23.2769
635 1 -1.1104 3.84442 5.68965 26.2312
636 1 -1.1104 3.80817 11.2649 26.0504
627 1 -1.1104 6.52741 11.3642 26.1543
622 1 -1.1104 6.68454 11.2101 23.2666
616 1 -1.1104 6.5121 8.32695 23.4362
618 1 -1.1104 6.47137 8.4793 26.0248
621 1 -1.1104 6.7517 5.73402 23.4083
381 1 -1.1104 9.63501 16.9243 23.4521
608 2 2.2208 8.09256 20.9675 21.9723
605 2 2.2208 10.8658 15.3639 24.8924
478 1 -1.1104 9.40781 5.64135 20.6875
468 1 -1.1104 12.1764 11.1894 20.8279
461 1 -1.1104 12.1102 8.51654 20.5688
9198 2 2.2208 -0.464965 1.47468 16.3337
441 1 -1.1104 6.56017 11.1795 20.5126
626 1 -1.1104 6.62887 5.74259 26.2421
380 2 2.2208 -0.445607 21.0126 19.3003
644 1 -1.1104 9.36875 11.2929 26.2302
645 1 -1.1104 9.43655 5.71223 26.1312
646 1 -1.1104 9.50406 11.3025 23.2538
647 1 -1.1104 9.62898 5.71045 23.4474
648 2 2.2208 8.05594 9.96817 21.8448
649 1 -1.1104 9.3621 8.48286 26.4351
650 2 2.2208 8.06736 12.6014 24.7167
651 2 2.2208 8.05449 7.18233 24.8149
652 2 2.2208 10.8161 7.19424 22.0538
653 2 2.2208 10.9343 12.7065 22.1012
654 1 -1.1104 12.2214 8.53967 23.2395
655 1 -1.1104 12.1268 8.48337 26.1711
656 1 -1.1104 12.4043 5.71998 23.4182
657 1 -1.1104 12.2949 11.2922 23.5093
658 2 2.2208 10.8709 10.0286 24.8426
659 1 -1.1104 12.2198 5.70214 26.2419
660 1 -1.1104 12.302 11.2804 26.2274
661 1 -1.1104 9.29715 8.67101 23.4829
492 1 -1.1104 0.959567 19.7104 20.7389
509 1 -1.1104 3.82846 14.0352 20.5211
496 1 -1.1104 6.63795 19.6764 20.4388
606 1 -1.1104 9.53053 19.6474 26.1789
516 1 -1.1104 3.87088 16.8921 20.6074
637 1 -1.1104 6.82046 14.0422 23.4547
482 2 2.2208 2.49541 15.5098 22.0006
517 2 2.2208 2.50208 21.116 22.0073
518 1 -1.1104 3.95539 16.8072 23.4919
519 1 -1.1104 1.05867 16.8851 23.3448
545 1 -1.1104 3.91711 14.0399 26.1674
546 1 -1.1104 3.91825 16.9609 26.3095
572 2 2.2208 2.34247 18.2891 24.9315
574 1 -1.1104 3.81983 19.7186 26.117
602 2 2.2208 5.29433 18.1878 22.1058
604 1 -1.1104 1.13646 14.1774 23.4065
612 1 -1.1104 1.02242 19.691 23.4998
638 2 2.2208 5.37962 15.3511 24.8916
639 2 2.2208 5.17059 21.0422 24.6547
662 1 -1.1104 1.04737 14.1352 26.2514
663 1 -1.1104 1.02962 16.9276 26.2145
664 1 -1.1104 1.04131 19.8766 26.3413
668 1 -1.1104 3.85925 19.6212 23.4036
670 1 -1.1104 3.94047 13.9587 23.5068
666 1 -1.1104 6.59668 16.7604 26.2408
578 1 -1.1104 6.74167 19.5173 26.2022
544 1 -1.1104 6.73073 16.8492 23.3856
332 2 2.2208 5.36184 1.51474 27.6075
665 1 -1.1104 9.65742 19.7196 23.3378
378 2 2.2208 13.8077 15.5139 21.9968
576 1 -1.1104 12.2892 19.6869 23.444
543 1 -1.1104 9.45474 16.9828 20.7266
581 1 -1.1104 12.3105 19.6781 26.2261
580 1 -1.1104 12.3985 13.9857 26.2107
611 1 -1.1104 12.1366 16.8658 26.2801
579 1 -1.1104 9.56768 13.9686 26.19
538 1 -1.1104 9.45072 19.6244 20.5838
412 2 2.2208 11.0245 18.2924 22.0644
9348 2 2.2208 13.6286 21.0983 22.0743
8612 2 2.2208 5.3405 -4.06092 21.9675
9345 2 2.2208 -0.363668 -1.27222 19.2317
455 2 2.2208 -0.304613 21.1662 24.8555
415 2 2.2208 -0.467651 12.7033 16.5159
667 2 2.2208 13.5848 7.15731 24.7706
321 2 2.2208 -0.457309 18.3415 27.5481
9125 2 2.2208 13.7873 12.6007 24.8118
9200 2 2.2208 13.6732 9.93731 16.438
9131 2 2.2208 -0.388802 12.6424 21.9874
9124 2 2.2208 -0.334721 15.5718 24.7172
8640 2 2.2208 10.805 -4.13891 16.3551
324 2 2.2208 5.3515 18.1497 27.6873
320 2 2.2208 2.40828 12.4939 13.6242
454 2 2.2208 2.33421 7.07424 13.6174
338 2 2.2208 2.27688 9.87156 27.641
573 2 2.2208 2.60985 -1.39084 27.6095
341 2 2.2208 10.7917 7.04606 27.766
322 2 2.2208 10.8909 9.8625 13.5548
481 2 2.2208 8.08596 6.9578 13.637
326 2 2.2208 2.4082 18.3295 13.5098
603 2 2.2208 8.06761 -1.29813 27.6046
328 2 2.2208 5.32024 15.4706 13.6058
418 2 2.2208 7.98818 1.53892 13.6633
419 2 2.2208 10.9337 -1.32874 13.5854
318 2 2.2208 7.93713 21.0515 27.6637
671 2 2.2208 5.23197 23.8061 5.21464
672 2 2.2208 5.24686 29.4181 5.20858
673 1 -1.1104 0.918857 25.3893 0.881703
674 1 -1.1104 0.854603 25.2687 3.88935
675 1 -1.1104 0.934716 22.6061 0.984963
676 1 -1.1104 0.994203 28.1233 1.08418
677 2 2.2208 5.21178 26.667 2.46183
678 1 -1.1104 0.853486 22.4992 3.87887
679 1 -1.1104 0.899431 28.0413 3.74446
680 1 -1.1104 3.76841 25.4048 1.15156
681 2 2.2208 2.32803 23.9681 2.44502
682 2 2.2208 2.44559 29.5115 2.44082
683 1 -1.1104 3.8295 25.3606 3.81093
684 2 2.2208 2.31434 26.7255 5.17142
685 1 -1.1104 3.85759 22.4753 0.92884
686 1 -1.1104 3.7771 28.0706 1.02647
687 1 -1.1104 3.81164 22.6 3.67813
688 1 -1.1104 3.82224 28.0556 3.83297
697 1 -1.1104 6.68266 28.0567 3.75151
696 1 -1.1104 6.5235 22.3354 3.74982
693 1 -1.1104 6.57541 25.1802 3.90643
694 1 -1.1104 6.50037 22.4017 1.01432
692 1 -1.1104 6.67213 25.1551 0.975287
695 1 -1.1104 6.5666 28.1246 1.0869
814 1 -1.1104 1.19446 22.4368 6.62038
820 1 -1.1104 3.77873 28.1411 6.60707
812 1 -1.1104 0.903812 25.3326 6.70397
9650 2 2.2208 13.7484 32.3617 10.9369
1539 1 -1.1104 1.1112 47.66 6.69728
698 2 2.2208 10.7785 23.9276 5.09923
699 2 2.2208 10.7717 29.5261 5.22149
700 1 -1.1104 12.1706 25.3234 0.919026
701 1 -1.1104 12.1326 25.4186 3.81235
702 1 -1.1104 12.1056 22.632 0.903728
703 1 -1.1104 12.1361 28.1555 0.943125
704 2 2.2208 10.8364 26.7555 2.31459
705 1 -1.1104 12.2713 22.6094 3.84414
706 1 -1.1104 12.2454 28.2069 3.81149
707 1 -1.1104 9.52764 25.4733 0.947581
708 2 2.2208 8.04006 23.9018 2.32345
709 2 2.2208 8.05824 29.5106 2.3534
710 1 -1.1104 9.36826 25.3241 3.72988
711 2 2.2208 7.99767 26.6522 5.21519
712 1 -1.1104 9.46085 22.5653 1.08569
713 1 -1.1104 9.21789 28.2849 0.928727
714 1 -1.1104 9.38433 22.5893 3.81991
715 1 -1.1104 9.59759 28.0103 3.77722
9528 2 2.2208 13.6511 43.6716 5.37345
9587 2 2.2208 13.6824 23.9953 7.95526
848 1 -1.1104 9.50663 25.4761 6.45393
9585 2 2.2208 13.6886 26.5866 10.8423
849 1 -1.1104 9.4078 22.6374 6.48982
850 1 -1.1104 9.35255 28.1454 6.62278
1348 1 -1.1104 1.12257 47.6106 3.78563
817 1 -1.1104 6.59994 28.0667 6.64179
9742 2 2.2208 13.5906 24 2.44104
719 2 2.2208 5.27548 35.0338 5.36967
720 1 -1.1104 1.04082 30.9134 1.00094
721 1 -1.1104 1.21083 36.3644 1.14837
723 1 -1.1104 1.01986 30.8455 3.76859
724 1 -1.1104 1.096 36.5555 3.85726
726 1 -1.1104 1.05103 33.6506 1.02887
727 2 2.2208 5.24002 32.3798 2.50751
728 2 2.2208 5.29247 37.974 2.45747
729 1 -1.1104 1.13226 33.7274 3.90123
731 1 -1.1104 3.91702 30.8301 1.08965
732 1 -1.1104 4.01716 36.3963 1.23255
733 2 2.2208 2.50102 35.1453 2.5735
734 1 -1.1104 3.80411 30.9741 3.91714
735 1 -1.1104 3.81802 36.5345 4.08085
736 2 2.2208 2.51742 32.3809 5.34288
737 2 2.2208 2.54864 38.0265 5.40856
738 1 -1.1104 3.8095 33.7793 1.0131
739 1 -1.1104 3.9958 33.7219 3.85881
873 1 -1.1104 1.04953 33.7672 6.75378
745 1 -1.1104 6.5247 33.737 1.07316
744 1 -1.1104 6.73008 30.9631 3.83356
876 1 -1.1104 3.80549 36.3997 6.69214
869 1 -1.1104 1.06627 30.9276 6.80516
722 1 -1.1104 6.68237 36.6019 1.13401
877 1 -1.1104 3.87959 33.6713 6.76884
1039 2 2.2208 2.35411 23.9274 13.5496
963 1 -1.1104 9.48629 44.7652 9.42791
730 1 -1.1104 6.60396 33.6755 3.93919
725 1 -1.1104 6.6485 36.549 3.81725
743 1 -1.1104 6.54242 31.0501 0.995344
1004 2 2.2208 5.19109 46.2864 -0.325453
746 2 2.2208 10.8808 35.1061 5.27876
747 1 -1.1104 11.9754 30.8941 0.984949
748 1 -1.1104 12.314 36.4675 1.09252
749 1 -1.1104 12.1178 30.9081 3.87455
750 1 -1.1104 12.1873 36.6652 3.90696
751 1 -1.1104 12.2942 33.7439 1.11467
752 2 2.2208 10.8201 32.2634 2.39715
753 2 2.2208 10.8392 37.9834 2.61912
754 1 -1.1104 12.2192 33.7559 3.79147
755 1 -1.1104 9.38983 31.0978 0.957148
756 1 -1.1104 9.51967 36.6645 1.00996
757 2 2.2208 8.06695 35.0972 2.43852
758 1 -1.1104 9.38953 30.7569 3.74497
759 1 -1.1104 9.55758 36.5293 3.83712
760 2 2.2208 8.08111 32.2797 5.3272