ITEM: TIMESTEP
100000
ITEM: NUMBER OF ATOMS
17820
ITEM: BOX BOUNDS pp pp pp
-3.6180690213723971e-01 2.7701806902136759e+01
-4.3063963899543891e+00 3.3238639638997324e+02
-3.5720633549641834e-01 2.7697206335496627e+01
ITEM: ATOMS id type q x y z
1 2 2.2208 5.10695 1.28304 5.46823
2 1 -1.1104 0.77373 -2.75071 1.09724
3 1 -1.1104 0.99512 2.5857 0.943834
6 1 -1.1104 0.861196 -2.87049 4.0344
7 1 -1.1104 0.855659 2.66452 3.86398
10 1 -1.1104 1.08792 -0.220723 1.15614
12 2 2.2208 5.22937 -1.52217 2.53348
14 1 -1.1104 0.712235 -0.22016 3.98718
16 1 -1.1104 3.5678 -2.84715 0.994691
17 1 -1.1104 3.76446 2.61766 1.05011
18 2 2.2208 2.3707 1.14349 2.50558
19 1 -1.1104 3.71591 -3.1649 3.81805
20 1 -1.1104 3.65507 2.59146 3.96392
21 2 2.2208 2.32105 -1.46892 5.34619
22 2 2.2208 2.34368 4.05766 5.38521
23 1 -1.1104 3.88382 -0.317015 0.998294
24 1 -1.1104 3.62482 -0.199295 3.92219
13 2 2.2208 5.15628 4.05212 2.70341
202 1 -1.1104 9.41464 19.3784 12.2045
15 1 -1.1104 6.58598 -0.0199373 4.04031
4 1 -1.1104 6.40399 -2.89368 1.05083
9 1 -1.1104 6.35324 2.72986 4.08137
168 1 -1.1104 6.383 -3.1128 6.78631
8966 2 2.2208 13.5652 12.4599 2.56064
8347 2 2.2208 5.06381 -4.43457 5.30198
173 1 -1.1104 3.76177 2.72036 6.76354
171 1 -1.1104 6.48772 -0.28022 6.71099
8 1 -1.1104 6.65036 -2.98883 3.90027
5 1 -1.1104 6.50975 2.72647 1.23924
11 1 -1.1104 6.60629 -0.105234 1.04002
31 2 2.2208 10.7124 1.21939 5.23262
32 1 -1.1104 12.1212 -2.96524 1.11357
33 1 -1.1104 12.15 2.60413 0.972052
34 1 -1.1104 12.1515 -3.02645 3.89886
35 1 -1.1104 11.9951 2.57906 3.99806
36 1 -1.1104 12.1454 -0.0926512 1.0646
37 2 2.2208 10.7918 -1.62347 2.45873
38 2 2.2208 10.6492 4.04995 2.46278
39 1 -1.1104 12.0002 -0.186799 3.87059
40 1 -1.1104 9.20078 -2.93057 1.05102
41 1 -1.1104 9.24681 2.55871 1.06965
42 2 2.2208 7.94738 1.20109 2.55298
43 1 -1.1104 9.34706 -2.9137 3.82492
44 1 -1.1104 9.15559 2.59865 3.77604
45 2 2.2208 7.92612 -1.5824 5.34973
47 1 -1.1104 9.48577 -0.0880852 1.16957
48 1 -1.1104 9.30632 -0.191137 3.95319
46 2 2.2208 7.96115 4.05926 5.33349
205 1 -1.1104 12.0817 -2.88065 6.59553
210 1 -1.1104 9.41725 -0.253379 6.78828
50 2 2.2208 13.5625 -1.60281 5.27287
206 1 -1.1104 12.1233 2.63284 6.67857
603 2 2.2208 7.99253 -1.54735 -0.280235
8355 2 2.2208 7.96161 -4.40645 7.97742
8982 2 2.2208 13.6013 12.4563 8.07134
54 2 2.2208 5.20111 6.82261 5.23477
55 2 2.2208 5.17355 12.4478 5.32597
56 1 -1.1104 1.07914 8.33351 1.13577
58 1 -1.1104 1.01475 8.21034 3.94841
60 1 -1.1104 1.0233 5.35733 1.16519
61 1 -1.1104 0.928534 11.1877 1.04469
66 2 2.2208 5.30196 9.71323 2.46338
67 1 -1.1104 0.977704 5.37904 4.14644
68 1 -1.1104 0.953287 11.0159 4.00021
71 1 -1.1104 3.86536 8.22178 1.09601
72 2 2.2208 2.45881 6.89311 2.52302
73 2 2.2208 2.37941 12.3393 2.47705
74 1 -1.1104 3.89301 8.29477 3.92159
75 2 2.2208 2.45738 9.54894 5.38863
76 1 -1.1104 3.66319 5.45356 1.28888
77 1 -1.1104 3.86597 11.2078 1.04092
79 1 -1.1104 3.70234 5.47915 4.05019
80 1 -1.1104 3.74799 10.9079 4.01331
57 1 -1.1104 6.71378 8.2082 1.14546
59 1 -1.1104 6.65191 8.27009 4.05238
63 1 -1.1104 6.45483 5.48065 1.2124
235 1 -1.1104 6.58247 8.20084 6.72524
239 1 -1.1104 3.82721 5.48267 6.87844
234 1 -1.1104 0.994642 8.26868 6.69241
62 1 -1.1104 0.959762 11.003 6.4966
29 2 2.2208 13.6579 9.74777 10.8395
230 2 2.2208 10.7827 15.3113 8.15935
70 1 -1.1104 6.59666 11.062 3.78957
69 1 -1.1104 6.62794 5.33851 3.99549
64 1 -1.1104 6.63984 11.1506 1.20592
84 2 2.2208 10.796 6.75155 5.27924
85 2 2.2208 10.7932 12.3539 5.38329
86 1 -1.1104 12.2197 8.28176 1.12044
87 1 -1.1104 12.1522 8.20134 3.83663
88 1 -1.1104 11.9801 5.54308 1.06442
89 1 -1.1104 12.1733 11.1265 1.02301
91 2 2.2208 10.7501 9.5965 2.3705
92 1 -1.1104 12.2206 5.35874 3.9531
93 1 -1.1104 12.204 11.0335 3.9793
94 1 -1.1104 9.36234 8.35824 1.02805
95 2 2.2208 7.95081 6.83894 2.58165
96 2 2.2208 7.98459 12.485 2.48851
97 1 -1.1104 9.44413 8.1591 3.91652
98 2 2.2208 7.96468 9.66623 5.30371
99 1 -1.1104 9.29608 5.4918 1.1087
100 1 -1.1104 9.37636 11.1339 1.10636
102 1 -1.1104 9.39318 5.30987 3.99661
103 1 -1.1104 9.51099 10.9347 3.91026
269 1 -1.1104 9.47378 5.38777 6.72824
90 1 -1.1104 12.2215 11.0087 6.76811
65 1 -1.1104 6.55995 10.9969 6.60279
101 1 -1.1104 9.35157 10.9144 6.66418
237 1 -1.1104 6.66053 5.34262 6.77879
265 1 -1.1104 12.1464 8.20623 6.66999
8798 2 2.2208 13.6771 18.0406 2.35211
8931 2 2.2208 -0.416876 20.9865 2.44884
106 2 2.2208 5.07957 18.0733 5.30953
107 1 -1.1104 0.917436 14.0602 1.03285
109 1 -1.1104 1.09052 19.595 1.01362
113 1 -1.1104 1.0985 13.8879 3.87383
114 1 -1.1104 0.824894 19.5529 3.73663
116 1 -1.1104 0.884825 16.8857 1.09434
119 2 2.2208 5.07066 15.3265 2.47758
120 2 2.2208 5.22803 20.9455 2.43526
121 1 -1.1104 1.00299 16.695 3.86528
123 1 -1.1104 3.64099 13.8261 1.09736
125 1 -1.1104 3.85902 19.611 1.0544
127 2 2.2208 2.42967 18.2705 2.46203
128 1 -1.1104 3.88626 13.7297 3.74495
129 1 -1.1104 3.72104 19.5115 3.81939
130 2 2.2208 2.37122 15.2374 5.19299
131 2 2.2208 2.3382 20.8039 5.2487
132 1 -1.1104 3.65716 16.7163 1.08434
134 1 -1.1104 3.68172 16.638 3.73905
110 1 -1.1104 6.6484 13.9354 0.898417
204 1 -1.1104 9.51788 13.9103 9.71499
122 1 -1.1104 6.38056 16.5677 3.97279
140 1 -1.1104 6.65798 16.6778 1.13117
124 1 -1.1104 3.92387 14.0158 6.60504
302 1 -1.1104 0.950389 19.4159 6.58982
117 1 -1.1104 1.07407 16.749 6.60786
126 1 -1.1104 3.6723 19.4502 6.56291
133 1 -1.1104 3.90563 16.6678 6.72702
108 1 -1.1104 1.05645 13.8625 6.67849
9066 2 2.2208 13.6824 18.0796 7.99638
312 1 -1.1104 12.2057 16.7141 9.47195
137 1 -1.1104 12.1978 19.5534 9.49667
138 1 -1.1104 6.57681 19.476 1.22288
139 1 -1.1104 6.38339 19.2937 3.80373
115 1 -1.1104 6.66922 13.8597 3.9323
141 2 2.2208 10.9191 17.9347 5.21313
142 1 -1.1104 12.1097 14.0032 1.05027
144 1 -1.1104 12.2633 19.5958 0.936901
146 1 -1.1104 12.2037 13.681 3.98537
147 1 -1.1104 12.277 19.2788 3.80573
148 1 -1.1104 12.1897 16.7819 0.975835
150 2 2.2208 10.7068 15.1811 2.51054
151 2 2.2208 10.8543 20.8362 2.34325
152 1 -1.1104 12.256 16.4223 3.76107
153 1 -1.1104 9.35154 13.8011 0.978635
155 1 -1.1104 9.41762 19.4522 1.08753
157 2 2.2208 8.03 17.9992 2.51522
158 1 -1.1104 9.43485 13.7975 3.91734
159 1 -1.1104 9.45139 19.5101 3.74247
160 2 2.2208 7.92497 15.2278 5.32589
161 2 2.2208 8.10384 20.7894 5.22142
162 1 -1.1104 9.32759 16.519 1.09452
164 1 -1.1104 9.42943 16.6221 4.00723
112 1 -1.1104 6.568 19.4943 6.52706
118 1 -1.1104 6.71023 16.6809 6.76695
156 1 -1.1104 9.56688 19.3611 6.54488
163 1 -1.1104 9.29862 16.583 6.85185
334 2 2.2208 10.6541 1.26484 -0.209661
174 1 -1.1104 3.61023 -0.0434662 6.67145
172 1 -1.1104 3.63001 -2.87206 6.70688
167 1 -1.1104 1.01515 2.68005 6.7574
166 1 -1.1104 0.89596 -3.00344 6.60446
165 1 -1.1104 12.0166 16.7499 12.2421
170 1 -1.1104 0.876763 -0.0857034 6.77769
175 2 2.2208 4.99675 1.25773 11.0002
176 1 -1.1104 0.967914 -2.95734 12.1819
177 1 -1.1104 0.734288 2.7362 12.3692
180 1 -1.1104 0.94007 -3.0689 9.47973
181 1 -1.1104 0.937861 2.66709 9.52981
184 1 -1.1104 0.899747 -0.0995009 12.4221
186 2 2.2208 5.041 -1.65486 8.11754
188 1 -1.1104 0.843881 -0.0726535 9.57016
190 1 -1.1104 3.75154 -2.9495 12.3271
191 1 -1.1104 3.61692 2.63278 12.3778
192 2 2.2208 2.26883 1.2617 8.13764
193 1 -1.1104 3.67985 -3.09476 9.52382
194 1 -1.1104 3.82286 2.5907 9.50514
195 2 2.2208 2.34013 -1.55819 11.0181
196 2 2.2208 2.35258 4.01053 10.9517
197 1 -1.1104 3.59129 -0.223697 12.4582
198 1 -1.1104 3.69494 -0.239166 9.57318
187 2 2.2208 5.13811 4.02421 8.18778
169 1 -1.1104 6.51007 2.72217 6.8387
185 1 -1.1104 6.41115 -0.229637 12.4306
179 1 -1.1104 6.4281 2.63068 12.5475
178 1 -1.1104 6.57489 -3.09609 12.2588
30 2 2.2208 13.5583 4.0671 10.8039
207 1 -1.1104 12.1179 -0.195816 6.63261
8797 2 2.2208 13.597 -1.6245 10.8623
229 2 2.2208 13.5432 1.2295 7.9338
189 1 -1.1104 6.51146 -0.266326 9.5867
208 1 -1.1104 9.2839 -2.97697 6.57911
209 1 -1.1104 9.3322 2.45333 6.79057
183 1 -1.1104 6.56942 2.49666 9.78981
182 1 -1.1104 6.57972 -3.21152 9.57394
211 2 2.2208 10.733 1.06049 11.0347
212 1 -1.1104 12.2504 -3.16621 12.2358
213 1 -1.1104 12.2027 2.53578 12.2913
214 1 -1.1104 12.118 -2.99461 9.40489
215 1 -1.1104 12.2217 2.70656 9.46093
216 1 -1.1104 12.1904 -0.242299 12.2512
217 2 2.2208 10.7409 -1.56922 7.99863
219 1 -1.1104 12.2677 -0.339283 9.31258
220 1 -1.1104 9.44387 -3.06439 12.2009
221 1 -1.1104 9.23607 2.53446 12.4453
222 2 2.2208 7.94909 1.10693 8.24224
223 1 -1.1104 9.27341 -2.83615 9.39733
224 1 -1.1104 9.37128 2.62303 9.52689
225 2 2.2208 7.88744 -1.6453 10.9857
227 1 -1.1104 9.19775 -0.34444 12.3129
228 1 -1.1104 9.39423 -0.211782 9.58219
226 2 2.2208 8.0165 3.9579 11.0111
218 2 2.2208 10.9365 4.05338 8.05047
8868 2 2.2208 13.6109 15.1758 5.20542
231 1 -1.1104 9.55633 19.4731 9.3783
154 1 -1.1104 9.50279 13.8335 6.74631
238 1 -1.1104 3.74417 8.24394 6.76333
236 1 -1.1104 0.969622 5.62944 6.85375
78 1 -1.1104 3.83734 10.9773 6.81335
240 2 2.2208 5.2403 6.70528 11.031
241 2 2.2208 5.2093 12.4127 10.6927
242 1 -1.1104 0.880362 8.31801 12.5413
244 1 -1.1104 0.9197 8.31878 9.42778
246 1 -1.1104 0.843393 5.46362 12.3017
247 1 -1.1104 0.874762 10.9196 12.2543
250 2 2.2208 5.24538 9.47223 8.09955
251 1 -1.1104 0.826622 5.5538 9.49504
252 1 -1.1104 0.91958 11.103 9.44167
255 1 -1.1104 3.70383 8.24024 12.4441
256 2 2.2208 2.42904 6.89258 8.18539
257 2 2.2208 2.39163 12.3793 8.11042
258 1 -1.1104 3.86798 8.2606 9.61871
259 2 2.2208 2.31453 9.68451 10.8866
260 1 -1.1104 3.72042 5.36313 12.4513
261 1 -1.1104 3.90353 11.153 12.209
262 1 -1.1104 3.69026 5.37716 9.62736
263 1 -1.1104 3.63679 10.9297 9.55796
253 1 -1.1104 6.44308 5.3877 9.57938
245 1 -1.1104 6.65621 8.17028 9.51339
249 1 -1.1104 6.52733 10.8462 12.2231
248 1 -1.1104 6.51146 5.39811 12.3688
573 2 2.2208 2.30448 -1.51055 -0.408617
289 1 -1.1104 6.66525 16.6172 9.36331
82 2 2.2208 -0.335228 9.67516 2.43972
267 1 -1.1104 9.31633 8.2034 6.77871
266 1 -1.1104 12.276 5.52603 6.64635
306 1 -1.1104 6.63451 16.6496 12.1459
254 1 -1.1104 6.63024 10.9058 9.37036
243 1 -1.1104 6.57209 8.08518 12.2943
264 1 -1.1104 9.30781 10.9767 9.42989
268 1 -1.1104 9.45038 5.25269 9.48707
270 1 -1.1104 9.21698 10.8133 12.2289
271 1 -1.1104 9.43397 5.39946 12.3592
272 2 2.2208 7.96627 9.45782 10.8197
273 1 -1.1104 9.45562 8.09086 9.59058
274 2 2.2208 8.03924 12.4325 8.08391
275 2 2.2208 8.06955 6.67004 8.16153
276 2 2.2208 10.9813 6.80425 10.7365
277 2 2.2208 10.7794 12.4057 10.8289
278 1 -1.1104 12.1871 8.18761 12.2042
279 1 -1.1104 12.1312 8.36848 9.50285
280 1 -1.1104 12.0758 5.43263 12.1899
281 1 -1.1104 12.1099 10.9973 12.1881
282 2 2.2208 10.7578 9.61588 8.15987
283 1 -1.1104 12.3343 5.51175 9.2954
284 1 -1.1104 12.1347 10.9975 9.47905
285 1 -1.1104 9.37461 7.94813 12.2763
327 2 2.2208 5.16145 20.7887 13.5289
8981 2 2.2208 13.6848 6.95224 8.10059
232 2 2.2208 7.9764 15.221 10.9198
296 1 -1.1104 6.56692 19.5492 12.2071
310 2 2.2208 2.39233 15.1133 10.8224
286 1 -1.1104 3.85396 19.376 12.2986
287 1 -1.1104 3.85307 14.0117 12.1662
291 1 -1.1104 1.13327 19.5793 9.28985
292 1 -1.1104 0.963906 16.6691 9.52006
293 2 2.2208 5.16464 20.9077 8.06009
294 1 -1.1104 1.01278 13.8307 9.45789
295 2 2.2208 5.30877 15.3342 8.05053
298 1 -1.1104 1.083 19.4514 12.2127
299 1 -1.1104 1.00079 13.6586 12.1604
300 2 2.2208 5.25878 18.0724 10.7962
301 1 -1.1104 3.88777 19.5422 9.42626
303 2 2.2208 2.49555 17.9553 8.03227
304 1 -1.1104 3.90178 16.7443 9.46263
305 1 -1.1104 3.73914 13.732 9.41142
307 1 -1.1104 0.957069 16.4703 12.1758
308 1 -1.1104 3.77382 16.771 12.1533
309 2 2.2208 2.45556 20.8452 10.8583
143 1 -1.1104 12.2907 14.0462 6.82062
297 1 -1.1104 6.75564 13.8072 12.2399
290 1 -1.1104 6.71322 13.9045 9.46634
288 1 -1.1104 6.66182 19.6631 9.36317
9089 2 2.2208 13.6254 18.035 13.7109
83 2 2.2208 10.9162 18.094 10.7693
314 1 -1.1104 9.37083 16.6907 9.64194
331 2 2.2208 7.96988 18.0335 13.6503
311 2 2.2208 10.9315 20.9344 8.02216
315 1 -1.1104 9.48936 16.6233 12.3329
105 2 2.2208 13.4873 6.82909 2.38489
104 1 -1.1104 12.2401 13.8992 12.3085
135 1 -1.1104 12.306 19.7683 12.1696
203 2 2.2208 8.02945 18.1741 8.08222
111 1 -1.1104 6.72403 13.9071 6.69301
145 1 -1.1104 12.3795 19.4773 6.61462
149 1 -1.1104 12.2445 16.6986 6.66742
53 1 -1.1104 9.44597 13.604 12.3044
136 1 -1.1104 12.2714 13.8687 9.59724
9032 2 2.2208 13.7115 20.9738 10.8473
233 2 2.2208 8.06904 20.9396 10.8584
49 2 2.2208 13.5392 1.20834 2.47279
52 2 2.2208 13.5931 4.00815 5.35654
51 2 2.2208 13.5531 9.60649 5.20905
483 2 2.2208 7.93557 12.3273 13.6601
9070 2 2.2208 13.5577 6.8026 13.6095
420 2 2.2208 10.8527 3.93972 13.62
418 2 2.2208 7.79502 1.11226 13.7635
320 2 2.2208 2.4009 12.3619 13.6074
481 2 2.2208 7.87593 6.8424 13.6227
386 2 2.2208 2.33464 1.12211 13.7963
336 2 2.2208 13.5601 4.01155 -0.429161
322 2 2.2208 10.7061 9.52165 13.4889
9085 2 2.2208 -0.365219 20.7942 13.6208
609 2 2.2208 13.4626 -1.5334 -0.389608
343 2 2.2208 10.7309 12.5483 -0.323346
317 2 2.2208 10.8426 18.0971 -0.387194
335 2 2.2208 7.77081 4.09487 -0.251517
345 2 2.2208 5.12219 1.32463 16.6442
346 1 -1.1104 1.0508 -2.97688 17.8507
347 1 -1.1104 0.787972 2.75582 17.7898
350 1 -1.1104 0.942916 -3.00377 15.0625
352 1 -1.1104 1.05481 2.69222 14.9733
358 1 -1.1104 1.05154 -0.017469 17.9615
360 2 2.2208 5.21106 -1.53681 19.345
362 1 -1.1104 0.943171 -0.292951 15.2034
366 1 -1.1104 3.7758 -3.0158 17.8821
367 1 -1.1104 3.65866 2.69293 17.9105
368 2 2.2208 2.44023 1.2523 19.2565
369 1 -1.1104 3.76245 -2.94002 15.1795
371 1 -1.1104 3.67579 2.5278 15.2298
373 2 2.2208 2.44221 -1.58433 16.6011
374 2 2.2208 2.20958 4.02489 16.6141
375 1 -1.1104 3.66481 -0.157879 17.9489
376 1 -1.1104 3.74769 -0.135578 15.128
361 2 2.2208 5.14584 4.11524 19.3725
359 1 -1.1104 6.42969 -0.15254 17.9439
356 1 -1.1104 6.52757 2.68829 15.3466
364 1 -1.1104 6.49996 -0.189399 15.1261
365 1 -1.1104 6.63244 -0.115328 20.797
348 1 -1.1104 6.52153 -3.06736 17.8367
354 1 -1.1104 6.43499 -2.866 15.1075
355 1 -1.1104 6.66541 -2.9234 20.6718
318 2 2.2208 7.92408 20.8391 27.7712
579 1 -1.1104 9.3009 13.8425 26.1654
385 2 2.2208 5.08539 -1.61764 13.8162
9073 2 2.2208 13.6207 12.3834 13.7043
8611 2 2.2208 2.38823 -4.32572 24.8875
669 1 -1.1104 6.46439 13.9239 26.2088
344 2 2.2208 13.4322 9.76295 27.773
384 2 2.2208 13.6949 17.9907 19.1528
349 1 -1.1104 6.57662 2.74056 18.0967
415 2 2.2208 -0.617103 12.4272 16.518
388 2 2.2208 10.7073 1.28048 16.4937
389 1 -1.1104 12.3216 -2.99429 17.8041
390 1 -1.1104 12.1371 2.61719 17.9708
391 1 -1.1104 12.1462 -2.88343 15.1501
393 1 -1.1104 12.1572 2.58723 15.1273
395 1 -1.1104 12.1454 -0.120286 17.981
396 2 2.2208 10.7036 -1.53738 19.2444
397 2 2.2208 10.6939 4.08829 19.3065
398 1 -1.1104 12.1949 -0.208507 15.0212
400 1 -1.1104 9.54061 -2.9043 17.8035
401 1 -1.1104 9.45534 2.80998 17.9208
402 2 2.2208 7.87597 1.33525 19.3043
403 1 -1.1104 9.35498 -2.93992 15.1659
405 1 -1.1104 9.31438 2.60432 15.1469
407 2 2.2208 7.94328 -1.617 16.4603
409 1 -1.1104 9.2681 -0.0650387 18.0015
410 1 -1.1104 9.17988 -0.109519 15.2992
408 2 2.2208 7.98846 4.06779 16.47
404 1 -1.1104 9.43118 -2.90751 20.6994
406 1 -1.1104 9.30568 2.6217 20.7524
9126 2 2.2208 13.5405 3.96737 16.5279
576 1 -1.1104 12.0554 19.4691 23.2816
419 2 2.2208 10.6869 -1.73911 13.7762
9071 2 2.2208 13.6179 20.9141 27.7157
9173 2 2.2208 13.5665 18.0545 24.8496
421 2 2.2208 5.07519 6.86591 16.6778
422 2 2.2208 5.0655 12.4411 16.564
423 1 -1.1104 0.791431 8.18899 18.0023
425 1 -1.1104 0.839319 8.31553 15.2506
429 1 -1.1104 0.820194 5.50958 17.8625
430 1 -1.1104 1.01588 10.9888 17.7624
433 2 2.2208 5.14394 9.68766 19.4556
434 1 -1.1104 0.829334 5.4329 15.1416
436 1 -1.1104 0.906097 11.0263 14.8846
442 1 -1.1104 3.66562 8.30861 17.979
443 2 2.2208 2.21145 6.8291 19.4292
444 2 2.2208 2.34282 12.379 19.2997
445 1 -1.1104 3.68823 8.22854 15.2079
447 2 2.2208 2.32927 9.61716 16.5347
448 1 -1.1104 3.63224 5.44765 18.1459
449 1 -1.1104 3.73029 10.9582 18.023
450 1 -1.1104 3.60699 5.31642 15.2635
452 1 -1.1104 3.75969 11.1208 15.0492
454 2 2.2208 2.29958 6.79764 13.7962
441 1 -1.1104 6.50054 11.1392 20.6634
607 2 2.2208 7.87053 15.2474 22.0586
424 1 -1.1104 6.58552 8.31766 18.1071
432 1 -1.1104 6.49564 11.1418 17.8172
427 1 -1.1104 6.39202 8.39731 15.1761
438 1 -1.1104 6.37106 5.54148 15.0943
440 1 -1.1104 6.4307 11.0728 15.1279
431 1 -1.1104 6.49915 5.51106 17.8853
439 1 -1.1104 6.44532 5.48584 20.7557
435 1 -1.1104 0.925651 5.40828 20.6906
446 1 -1.1104 3.84696 8.32785 20.7517
428 1 -1.1104 6.57503 8.22173 20.8265
9125 2 2.2208 13.559 12.5717 24.8206
641 2 2.2208 -0.469511 9.65955 24.8576
457 2 2.2208 10.6475 6.83489 16.4498
458 2 2.2208 10.7934 12.5082 16.4158
459 1 -1.1104 12.135 8.23287 17.8108
460 1 -1.1104 12.122 8.19926 14.8562
462 1 -1.1104 12.0801 5.50113 17.7338
463 1 -1.1104 12.1001 11.0554 17.9396
464 2 2.2208 10.6751 9.67066 19.4155
465 1 -1.1104 12.1429 5.24808 14.993
467 1 -1.1104 12.2154 11.041 15.0231
469 1 -1.1104 9.40303 8.23998 17.955
470 2 2.2208 7.93414 6.89467 19.3336
471 2 2.2208 7.87564 12.5605 19.2703
472 1 -1.1104 9.18873 8.34007 14.9158
474 2 2.2208 7.86436 9.68796 16.6339
475 1 -1.1104 9.31431 5.41766 17.9109
476 1 -1.1104 9.17829 11.0618 18.0612
477 1 -1.1104 9.1454 5.39294 15.011
479 1 -1.1104 9.26836 11.1348 15.2039
461 1 -1.1104 12.1752 8.38758 20.7145
480 1 -1.1104 9.2063 11.002 20.9387
468 1 -1.1104 12.1284 11.027 20.7187
319 2 2.2208 5.17758 9.59636 13.7056
478 1 -1.1104 9.24478 5.4899 20.7066
473 1 -1.1104 9.42815 8.07102 20.6591
466 1 -1.1104 12.0879 5.5311 20.6849
575 2 2.2208 13.5643 6.91505 19.3744
316 2 2.2208 8.00612 15.3433 27.7404
9166 2 2.2208 13.5284 1.22945 25.0105
484 2 2.2208 5.16322 18.0229 16.4803
485 1 -1.1104 0.919092 13.7753 17.7754
486 1 -1.1104 1.01184 19.461 17.7963
489 1 -1.1104 0.923365 13.8283 15.0839
491 1 -1.1104 1.05196 19.3009 14.958
497 1 -1.1104 0.833158 16.6369 17.7953
499 2 2.2208 5.16029 15.5193 19.3628
500 2 2.2208 5.21141 20.9476 19.114
501 1 -1.1104 0.992383 16.6743 14.9202
505 1 -1.1104 3.6095 13.8832 17.9673
506 1 -1.1104 3.80949 19.5244 18.0284
507 2 2.2208 2.37254 18.1601 19.2022
508 1 -1.1104 3.74786 13.8194 14.9558
510 1 -1.1104 3.85417 19.4978 15.0927
512 2 2.2208 2.31827 15.1636 16.5813
513 2 2.2208 2.36589 20.8252 16.3596
514 1 -1.1104 3.71127 16.7229 17.9629
515 1 -1.1104 3.86405 16.5739 15.206
488 1 -1.1104 6.47632 19.6192 17.7143
490 1 -1.1104 0.922636 13.7456 20.575
583 1 -1.1104 12.1362 16.5319 23.4788
487 1 -1.1104 6.35193 13.9081 18.0252
493 1 -1.1104 6.48765 13.8644 15.174
511 1 -1.1104 3.76062 19.3899 20.5771
516 1 -1.1104 3.77357 16.8023 20.7758
504 1 -1.1104 6.59656 16.6973 20.6249
496 1 -1.1104 6.57715 19.5823 20.6488
502 1 -1.1104 1.06943 16.5364 20.7641
492 1 -1.1104 0.911138 19.4681 20.5985
538 1 -1.1104 9.32333 19.465 20.6579
610 2 2.2208 10.7292 20.8217 24.7289
379 2 2.2208 -0.517922 15.101 19.2906
9167 2 2.2208 13.3852 -1.54325 22.082
606 1 -1.1104 9.29559 19.4173 26.5043
382 1 -1.1104 9.317 16.5743 26.3355
543 1 -1.1104 9.28405 16.5846 20.6176
536 1 -1.1104 9.19461 13.7679 20.6793
524 1 -1.1104 12.1913 13.8721 20.6644
503 1 -1.1104 6.59441 16.6797 15.0647
495 1 -1.1104 6.56207 19.3906 15.0849
498 1 -1.1104 6.51199 16.7633 17.9925
520 2 2.2208 10.8618 18.0185 16.4637
521 1 -1.1104 11.9913 13.8393 17.9217
522 1 -1.1104 12.1975 19.4463 17.788
523 1 -1.1104 12.309 13.8592 14.9917
525 1 -1.1104 12.2047 19.3374 14.9372
527 1 -1.1104 12.3661 16.6416 17.7898
528 2 2.2208 10.6979 15.3194 19.2884
529 2 2.2208 10.7701 20.7208 19.1003
530 1 -1.1104 12.0633 16.5987 15.0765
532 1 -1.1104 9.2074 13.9282 17.884
533 1 -1.1104 9.42843 19.4005 17.7308
534 2 2.2208 7.88995 18.1701 19.2187
535 1 -1.1104 9.34258 13.8785 15.1057
537 1 -1.1104 9.41715 19.5351 14.9491
539 2 2.2208 7.99887 15.2543 16.4197
540 2 2.2208 7.90041 20.8495 16.2788
541 1 -1.1104 9.51294 16.7998 17.9268
542 1 -1.1104 9.36778 16.6404 15.1186
494 1 -1.1104 6.43052 13.9686 20.7838
351 1 -1.1104 0.748731 -2.94751 20.7291
370 1 -1.1104 3.68497 -2.97709 20.7161
372 1 -1.1104 3.74895 2.67234 20.8289
363 1 -1.1104 1.04525 -0.0526367 20.7779
353 1 -1.1104 1.02197 2.6169 20.7521
377 1 -1.1104 3.87788 -0.237907 20.6742
548 2 2.2208 5.14618 1.33891 22.2289
549 1 -1.1104 0.908164 -3.00146 23.3548
550 1 -1.1104 0.925763 2.56723 23.4935
553 1 -1.1104 0.915717 -3.01212 26.3337
554 1 -1.1104 1.03506 2.58737 26.3119
557 1 -1.1104 1.10569 -0.227465 23.602
559 2 2.2208 5.20577 -1.49736 24.8751
561 1 -1.1104 1.01403 -0.228924 26.4173
563 1 -1.1104 3.69007 -2.8534 23.3619
564 1 -1.1104 3.64793 2.62046 23.5867
565 2 2.2208 2.37353 1.1522 24.9941
566 1 -1.1104 3.88241 -2.85752 26.1313
567 1 -1.1104 3.82195 2.64124 26.343
568 2 2.2208 2.40756 -1.49675 22.1434
569 2 2.2208 2.22947 4.05457 22.2117
570 1 -1.1104 3.8772 -0.173944 23.5276
571 1 -1.1104 3.74399 -0.216706 26.3021
560 2 2.2208 5.08473 4.04376 24.9943
552 1 -1.1104 6.4748 2.75602 23.6568
556 1 -1.1104 6.53003 2.6538 26.4026
551 1 -1.1104 6.52352 -2.82555 23.4199
555 1 -1.1104 6.56772 -2.95887 26.3193
558 1 -1.1104 6.60749 0.0174536 23.6225
9270 2 2.2208 13.5023 15.2229 16.4732
9169 2 2.2208 -0.526256 4.14793 19.2935
411 1 -1.1104 9.44864 -0.0785055 20.6858
9348 2 2.2208 13.5694 20.8285 22.1027
9132 2 2.2208 13.5399 1.26635 19.3693
9273 2 2.2208 13.6437 20.7211 16.4928
9124 2 2.2208 -0.390138 15.2351 24.8363
357 1 -1.1104 6.54312 2.74714 20.8014
562 1 -1.1104 6.56282 -0.125723 26.3029
392 1 -1.1104 12.0344 -2.84218 20.6351
399 1 -1.1104 12.2348 -0.0396877 20.6021
394 1 -1.1104 12.0449 2.77692 20.7796
584 2 2.2208 10.6909 1.25139 22.0756
585 1 -1.1104 12.0836 -2.88246 23.5431
586 1 -1.1104 12.1593 2.54473 23.598
587 1 -1.1104 11.974 -2.93975 26.2945
588 1 -1.1104 11.9232 2.64457 26.3398
589 1 -1.1104 12.0195 -0.158451 23.3856
590 2 2.2208 10.6209 -1.53221 24.7843
592 1 -1.1104 12.1775 -0.214861 26.1976
593 1 -1.1104 9.3756 -2.92929 23.3917
594 1 -1.1104 9.27189 2.59658 23.5523
595 2 2.2208 7.9775 1.30032 25.1341
596 1 -1.1104 9.20235 -2.98785 26.1746
597 1 -1.1104 9.24589 2.84323 26.3836
598 2 2.2208 8.00408 -1.47921 22.008
600 1 -1.1104 9.35399 0.0119609 23.4993
601 1 -1.1104 9.32149 -0.10864 26.3697
591 2 2.2208 10.7113 3.9645 25.1043
599 2 2.2208 7.94314 4.04837 22.1383
453 1 -1.1104 3.73091 11.1335 20.7861
426 1 -1.1104 0.888252 8.19648 20.7493
437 1 -1.1104 0.760951 10.9651 20.6038
451 1 -1.1104 3.6682 5.46923 20.8286
613 2 2.2208 4.99474 6.75365 22.1925
614 2 2.2208 5.17236 12.4812 22.069
615 1 -1.1104 1.00722 8.14932 23.4652
617 1 -1.1104 0.975576 8.21524 26.3111
619 1 -1.1104 0.855063 5.45219 23.5481
620 1 -1.1104 1.00362 10.9798 23.5537
623 2 2.2208 4.99279 9.80958 24.8783
624 1 -1.1104 0.982313 5.51009 26.3733
625 1 -1.1104 1.04957 11.1534 26.3846
628 1 -1.1104 3.65994 8.18006 23.5328
629 2 2.2208 2.39874 6.89687 25.0422
630 2 2.2208 2.30267 12.5519 24.7588
631 1 -1.1104 3.69341 8.33499 26.3928
632 2 2.2208 2.39452 9.5266 22.0867
633 1 -1.1104 3.61901 5.4029 23.5932
634 1 -1.1104 3.73923 11.0595 23.4547
635 1 -1.1104 3.74514 5.5703 26.4056
636 1 -1.1104 3.58913 11.1939 26.2092
626 1 -1.1104 6.51036 5.45792 26.3622
618 1 -1.1104 6.47367 8.38573 26.412
616 1 -1.1104 6.39975 8.25764 23.5425
621 1 -1.1104 6.5138 5.45121 23.5983
627 1 -1.1104 6.43828 11.2141 26.2925
341 2 2.2208 10.6624 6.88582 27.7149
337 2 2.2208 5.15592 6.97216 27.765
9392 2 2.2208 13.5924 9.75702 22.0939
622 1 -1.1104 6.36723 11.0881 23.5378
644 1 -1.1104 9.22376 11.0033 26.3553
645 1 -1.1104 9.31288 5.44554 26.5279
646 1 -1.1104 9.0973 11.1327 23.5463
647 1 -1.1104 9.43713 5.39923 23.7092
648 2 2.2208 7.87024 9.63586 22.1357
649 1 -1.1104 9.20196 8.09033 26.3502
650 2 2.2208 7.88588 12.5925 24.9459
651 2 2.2208 7.83386 6.89284 24.8807
652 2 2.2208 10.7617 6.79855 22.1686
653 2 2.2208 10.7273 12.4945 22.0465
654 1 -1.1104 12.13 8.26264 23.535
655 1 -1.1104 11.9819 8.46147 26.3862
656 1 -1.1104 12.1904 5.29799 23.576
657 1 -1.1104 12.1612 11.1295 23.3976
658 2 2.2208 10.5518 9.75374 24.762
659 1 -1.1104 12.2114 5.41494 26.3592
660 1 -1.1104 12.1228 11.1678 26.0922
661 1 -1.1104 9.22611 8.35319 23.437
667 2 2.2208 13.5162 6.84604 24.9818
581 1 -1.1104 12.0628 19.3156 26.1558
324 2 2.2208 5.2343 18.0781 27.7845
544 1 -1.1104 6.6087 16.7457 23.532
666 1 -1.1104 6.42008 16.6796 26.2664
640 1 -1.1104 6.54246 19.4017 23.7187
509 1 -1.1104 3.65508 13.843 20.5969
670 1 -1.1104 3.86575 13.7922 23.4316
482 2 2.2208 2.37066 15.2603 22.1089
517 2 2.2208 2.41209 20.8339 22.0396
518 1 -1.1104 3.82952 16.5494 23.5228
519 1 -1.1104 0.927831 16.7652 23.4991
545 1 -1.1104 3.65968 13.9238 26.2661
546 1 -1.1104 3.67011 16.7465 26.3043
572 2 2.2208 2.3316 18.1314 24.8946
574 1 -1.1104 3.75712 19.7045 26.4112
602 2 2.2208 5.12997 18.1154 22.0607
604 1 -1.1104 0.933196 13.9462 23.4281
612 1 -1.1104 0.893522 19.4959 23.4151
638 2 2.2208 5.10981 15.3083 24.9776
639 2 2.2208 5.27757 20.8 25.0223
662 1 -1.1104 0.872495 13.8687 26.2261
663 1 -1.1104 1.04148 16.6026 26.3599
664 1 -1.1104 1.02332 19.4587 26.2208
668 1 -1.1104 3.781 19.5044 23.4933
637 1 -1.1104 6.50632 14.022 23.4897
526 1 -1.1104 12.161 19.2892 20.528
580 1 -1.1104 11.9411 13.8934 26.328
333 2 2.2208 2.35425 3.9659 27.7852
547 1 -1.1104 12.2117 13.7728 23.4593
608 2 2.2208 7.98559 20.8999 22.0956
339 2 2.2208 5.14053 12.6046 27.7151
412 2 2.2208 10.8537 18.0426 21.9036
611 1 -1.1104 12.259 16.6494 26.2699
605 2 2.2208 10.7434 15.2595 24.8665
381 1 -1.1104 9.33828 16.726 23.3851
578 1 -1.1104 6.54571 19.481 26.533
531 1 -1.1104 12.1834 16.5441 20.6355
665 1 -1.1104 9.29074 19.4902 23.5403
642 1 -1.1104 9.32963 13.9577 23.4907
456 2 2.2208 7.95782 18.0037 24.844
332 2 2.2208 5.05699 1.24611 27.7513
323 2 2.2208 2.35311 15.304 27.6751
342 2 2.2208 8.02346 9.79569 27.7293
338 2 2.2208 2.42293 9.75519 27.6679
325 2 2.2208 2.4485 21.0343 27.7708
9130 2 2.2208 13.6437 1.26586 13.5816
326 2 2.2208 2.42728 17.9401 13.5884
328 2 2.2208 5.1357 15.2925 13.6821
329 2 2.2208 10.9126 20.9646 13.6312
330 2 2.2208 10.7217 15.2591 13.6531
387 2 2.2208 5.01456 4.08168 13.864
671 2 2.2208 5.18738 23.6482 5.06928
672 2 2.2208 5.17504 29.3329 5.25433
673 1 -1.1104 0.984084 25.1613 0.975842
674 1 -1.1104 0.918918 25.1529 3.90396
675 1 -1.1104 1.02124 22.423 1.06188
676 1 -1.1104 1.10773 27.9849 1.02283
677 2 2.2208 5.2198 26.6172 2.39933
678 1 -1.1104 0.850865 22.482 3.77107
679 1 -1.1104 1.05843 27.8594 3.87154
680 1 -1.1104 3.69613 25.1121 1.05123
681 2 2.2208 2.21611 23.8721 2.56772
682 2 2.2208 2.34736 29.3498 2.37193
683 1 -1.1104 3.67972 25.2028 3.82192
684 2 2.2208 2.43649 26.4976 5.25381
685 1 -1.1104 3.9681 22.3148 1.17969
686 1 -1.1104 3.88287 27.9031 0.951932
687 1 -1.1104 3.77337 22.38 3.95441
688 1 -1.1104 3.77904 28.0399 3.76117
693 1 -1.1104 6.50796 25.203 3.81016
1588 1 -1.1104 9.69227 47.4804 12.2587
692 1 -1.1104 6.55926 25.1404 0.962453
697 1 -1.1104 6.73001 28.0855 3.95435
696 1 -1.1104 6.69623 22.284 3.7429
817 1 -1.1104 6.61994 27.9871 6.74451
691 2 2.2208 -0.359826 26.5615 2.34681
816 1 -1.1104 6.77043 22.3025 6.64561
819 1 -1.1104 3.97023 22.2501 6.59336
813 1 -1.1104 6.77599 25.087 6.61695
689 2 2.2208 -0.323493 29.144 5.30967
1195 2 2.2208 8.27203 46.2843 13.7169
694 1 -1.1104 6.62772 22.3341 0.883676
695 1 -1.1104 6.66112 27.978 1.02884
698 2 2.2208 10.9152 23.6416 5.17595
699 2 2.2208 10.8182 29.4049 5.27108
700 1 -1.1104 12.2791 25.0994 0.854955
701 1 -1.1104 12.2469 25.0649 3.67397
702 1 -1.1104 12.193 22.3875 1.01963
703 1 -1.1104 12.1101 27.8091 1.02399
704 2 2.2208 10.8699 26.486 2.392
705 1 -1.1104 12.233 22.1663 3.74654
706 1 -1.1104 12.3555 28.0258 3.88458
707 1 -1.1104 9.43466 25.1751 1.19137
708 2 2.2208 8.05912 23.6647 2.50103
709 2 2.2208 8.0503 29.3529 2.49065
710 1 -1.1104 9.36098 25.0951 3.8039
711 2 2.2208 8.00353 26.5084 5.30759
712 1 -1.1104 9.31344 22.4279 0.786539
713 1 -1.1104 9.55088 28.0505 0.905294
714 1 -1.1104 9.51366 22.2528 3.89995
715 1 -1.1104 9.49082 28.067 3.69434
849 1 -1.1104 9.54344 22.162 6.64436
846 1 -1.1104 12.2103 22.3164 6.53297
845 1 -1.1104 11.9612 25.2243 6.53883
850 1 -1.1104 9.44872 27.9958 6.5807
848 1 -1.1104 9.3705 24.9164 6.35425
718 2 2.2208 13.5842 26.4747 5.29616
719 2 2.2208 5.28367 35.0203 5.26846
720 1 -1.1104 1.11693 30.6683 0.927179
721 1 -1.1104 1.14289 36.4379 1.16994
723 1 -1.1104 1.01227 30.7377 3.92413
724 1 -1.1104 1.02211 36.1409 3.91204
726 1 -1.1104 0.933215 33.5948 0.977703
727 2 2.2208 5.21274 32.2146 2.46447
728 2 2.2208 5.37363 37.6897 2.50495
729 1 -1.1104 1.04208 33.3759 3.83653
731 1 -1.1104 3.82067 30.7021 1.06108
732 1 -1.1104 4.11031 36.4138 1.0381
733 2 2.2208 2.37145 34.8543 2.47109
734 1 -1.1104 3.68949 30.7544 3.82447
735 1 -1.1104 3.81396 36.2426 3.76617
736 2 2.2208 2.54168 32.075 5.15267
737 2 2.2208 2.45658 37.7251 5.26444
738 1 -1.1104 3.67526 33.332 0.979855
739 1 -1.1104 3.74491 33.5678 3.83924
745 1 -1.1104 6.56615 33.493 1.18551
730 1 -1.1104 6.50682 33.554 3.94071
1545 1 -1.1104 6.86328 47.5897 12.3554
742 2 2.2208 -0.318062 34.8564 5.31345
872 1 -1.1104 6.65431 36.4579 6.67794
740 2 2.2208 -0.257557 37.6891 2.53656
741 2 2.2208 -0.444742 32.0655 2.33903
725 1 -1.1104 6.70432 36.3764 3.99514
743 1 -1.1104 6.64032 30.7395 1.153
722 1 -1.1104 6.92293 36.449 1.20434
744 1 -1.1104 6.63653 30.8051 3.93419
746 2 2.2208 11.047 34.9391 5.28487
747 1 -1.1104 12.2321 30.6593 0.826042
748 1 -1.1104 12.3892 36.4265 1.04686
749 1 -1.1104 12.2938 30.7829 3.93141
750 1 -1.1104 12.3057 36.2758 3.83654
751 1 -1.1104 12.4169 33.5011 0.975233
752 2 2.2208 10.9122 32.1822 2.42113
753 2 2.2208 10.9665 37.9452 2.44833
754 1 -1.1104 12.3814 33.4847 3.81152
755 1 -1.1104 9.43074 30.7813 0.992477
756 1 -1.1104 9.68932 36.5201 1.00288
757 2 2.2208 8.22799 35.0383 2.53041
758 1 -1.1104 9.51331 31.0107 3.80014
759 1 -1.1104 9.50079 36.6445 3.80114
760 2 2.2208 7.96483 32.2471 5.23142
761 2 2.2208 8.19035 37.87 5.22184
762 1 -1.1104 9.70341 33.7305 1.20231
763 1 -1.1104 9.37836 33.7247 4.03358
904 1 -1.1104 12.3609 36.4646 6.6931
903 1 -1.1104 12.2733 30.92 6.72784
905 1 -1.1104 12.2998 33.7503 6.67163
908 1 -1.1104 9.48755 33.6109 6.70959
871 1 -1.1104 6.6482 30.7539 6.64562
907 1 -1.1104 9.53217 36.3422 6.66577
1398 1 -1.1104 9.61178 47.6409 1.09854
1572 1 -1.1104 9.65135 47.4382 6.76589
938 1 -1.1104 6.6751 39.1071 12.273