ITEM: TIMESTEP
20000
ITEM: NUMBER OF ATOMS
17820
ITEM: BOX BOUNDS pp pp pp
-3.5790525189386058e-01 2.7697905251893598e+01
-4.2566651076385833e+00 3.3233666510764323e+02
-3.6098241542876486e-01 2.7700982415428768e+01
ITEM: ATOMS id type q x y z
1 2 2.2208 5.2017 1.42634 5.27972
2 1 -1.1104 1.03332 -2.95445 1.0994
3 1 -1.1104 0.905904 2.71953 1.01972
6 1 -1.1104 0.936593 -2.78187 3.94545
7 1 -1.1104 0.827211 2.64325 3.77113
10 1 -1.1104 0.839978 -0.143979 1.0997
12 2 2.2208 5.15732 -1.41686 2.41901
13 2 2.2208 5.10383 4.10819 2.43442
14 1 -1.1104 0.813364 -0.152018 3.69763
16 1 -1.1104 3.86715 -2.87279 0.932376
17 1 -1.1104 3.62356 2.63952 1.02747
18 2 2.2208 2.3759 1.24317 2.33683
19 1 -1.1104 3.88215 -2.76799 3.77811
20 1 -1.1104 3.73633 2.61098 3.86357
21 2 2.2208 2.40761 -1.49056 5.21388
22 2 2.2208 2.23341 3.99431 5.15794
23 1 -1.1104 3.78881 -0.134372 1.03987
24 1 -1.1104 3.62159 -0.0472166 3.77361
313 2 2.2208 -0.354221 15.2844 8.13889
341 2 2.2208 10.7905 6.89438 -0.328321
9 1 -1.1104 6.58074 2.86491 3.77971
15 1 -1.1104 6.53325 -0.00643351 3.70789
577 2 2.2208 -0.281052 4.09091 13.664
83 2 2.2208 10.7982 18.1381 10.8435
170 1 -1.1104 0.960755 -0.164263 6.52315
328 2 2.2208 5.1982 15.2706 13.5089
29 2 2.2208 13.4725 9.75024 10.9432
30 2 2.2208 13.5256 4.12913 10.8933
143 1 -1.1104 12.4006 14.0122 6.7505
5 1 -1.1104 6.43225 2.62023 1.01922
8357 2 2.2208 13.662 -4.23055 7.98755
8 1 -1.1104 6.72334 -2.82621 3.81491
11 1 -1.1104 6.56192 -0.188195 1.01995
4 1 -1.1104 6.63541 -2.93504 1.09655
31 2 2.2208 10.8839 1.3869 5.14526
32 1 -1.1104 12.2832 -2.93566 0.969217
33 1 -1.1104 12.0746 2.82726 1.08748
34 1 -1.1104 12.283 -2.94315 3.83214
35 1 -1.1104 12.097 2.65682 3.83949
36 1 -1.1104 11.9508 -0.06387 0.955307
37 2 2.2208 10.8391 -1.51499 2.52447
38 2 2.2208 10.6836 4.08009 2.34945
39 1 -1.1104 12.1506 -0.0644023 3.74159
40 1 -1.1104 9.53999 -2.89182 1.06898
41 1 -1.1104 9.26891 2.70389 0.962525
42 2 2.2208 8.02858 1.36826 2.37542
43 1 -1.1104 9.56417 -2.81095 3.99836
44 1 -1.1104 9.39357 2.67509 3.69416
45 2 2.2208 7.92021 -1.46956 5.24816
46 2 2.2208 7.99414 4.14817 5.37076
47 1 -1.1104 9.2435 -0.135196 1.10432
48 1 -1.1104 9.31826 -0.116152 3.77192
209 1 -1.1104 9.5495 2.81978 6.49787
205 1 -1.1104 12.2141 -2.90746 6.7043
207 1 -1.1104 12.1424 -0.0840974 6.71601
229 2 2.2208 13.546 1.25156 8.06572
315 1 -1.1104 9.2531 16.7699 12.1838
50 2 2.2208 13.4532 -1.46041 5.27052
54 2 2.2208 5.13541 6.88727 5.22688
55 2 2.2208 5.17939 12.4693 5.24842
56 1 -1.1104 0.890098 8.34668 1.06761
58 1 -1.1104 1.03194 8.34066 3.84521
60 1 -1.1104 1.03653 5.47658 0.915767
61 1 -1.1104 0.881436 11.1342 1.07523
66 2 2.2208 5.14947 9.7135 2.52981
67 1 -1.1104 0.959311 5.54421 3.67339
68 1 -1.1104 0.942245 10.9442 3.87828
71 1 -1.1104 3.66389 8.39993 1.10197
72 2 2.2208 2.39129 6.88875 2.46052
73 2 2.2208 2.36004 12.4528 2.49975
74 1 -1.1104 3.81776 8.1358 3.82987
75 2 2.2208 2.39837 9.8109 5.29921
76 1 -1.1104 3.79015 5.519 0.951387
77 1 -1.1104 3.8329 11.265 0.940534
79 1 -1.1104 3.73634 5.36461 3.85089
80 1 -1.1104 3.81476 11.129 3.90754
64 1 -1.1104 6.59549 10.9599 1.04473
236 1 -1.1104 1.04693 5.4752 6.60308
57 1 -1.1104 6.65422 8.16536 1.04302
49 2 2.2208 13.5329 1.40048 2.4187
81 2 2.2208 -0.340151 6.91604 5.18868
238 1 -1.1104 3.70365 8.23848 6.47853
59 1 -1.1104 6.61011 8.42573 3.90018
69 1 -1.1104 6.60504 5.63435 3.96859
63 1 -1.1104 6.59489 5.54563 1.1606
70 1 -1.1104 6.59268 10.976 3.81041
84 2 2.2208 10.8937 6.84435 5.28291
85 2 2.2208 10.8111 12.3967 5.26391
86 1 -1.1104 12.2546 8.20663 1.12133
87 1 -1.1104 12.125 8.28505 3.88907
88 1 -1.1104 12.279 5.5357 1.09186
89 1 -1.1104 12.2139 11.0655 0.860174
91 2 2.2208 10.8088 9.57891 2.48725
92 1 -1.1104 12.2966 5.48321 3.86306
93 1 -1.1104 12.1569 11.129 3.76675
94 1 -1.1104 9.388 8.26975 1.01282
95 2 2.2208 7.9447 7.00154 2.44921
96 2 2.2208 8.01661 12.3723 2.44664
97 1 -1.1104 9.29499 8.30267 3.86252
98 2 2.2208 7.97701 9.68831 5.32595
99 1 -1.1104 9.30392 5.5743 1.01779
100 1 -1.1104 9.43495 11.0472 1.04468
102 1 -1.1104 9.47449 5.48388 3.81512
103 1 -1.1104 9.40161 11.1005 3.99566
237 1 -1.1104 6.47519 5.50207 6.69546
8797 2 2.2208 13.5787 -1.50033 10.9195
203 2 2.2208 7.98482 18.0959 8.00936
104 1 -1.1104 12.1639 13.7906 12.2228
233 2 2.2208 8.13471 20.9752 10.8023
106 2 2.2208 5.1085 18.0551 5.18554
107 1 -1.1104 1.02933 13.9766 1.18869
109 1 -1.1104 1.0918 19.6144 1.08186
113 1 -1.1104 1.04919 13.7091 4.02539
114 1 -1.1104 1.03146 19.4766 3.82705
116 1 -1.1104 0.91818 16.8808 0.937294
119 2 2.2208 5.09161 15.2453 2.42028
120 2 2.2208 5.22132 20.7878 2.32881
121 1 -1.1104 0.937256 16.6749 3.84429
123 1 -1.1104 3.89786 13.9313 0.993269
125 1 -1.1104 3.8269 19.4105 0.93207
127 2 2.2208 2.38711 18.0028 2.4252
128 1 -1.1104 3.79606 13.7092 3.6938
129 1 -1.1104 3.82649 19.3495 3.87094
130 2 2.2208 2.34459 15.1349 5.34369
131 2 2.2208 2.54487 20.8873 5.25009
132 1 -1.1104 3.69341 16.5961 0.98326
134 1 -1.1104 3.71336 16.5474 3.78526
302 1 -1.1104 0.98993 19.4608 6.5547
140 1 -1.1104 6.66938 16.6435 0.976294
110 1 -1.1104 6.71164 13.8029 0.817638
138 1 -1.1104 6.64043 19.4781 1.05118
139 1 -1.1104 6.46054 19.4797 3.86628
326 2 2.2208 2.30208 18.051 13.6283
122 1 -1.1104 6.65658 16.8294 3.88201
145 1 -1.1104 12.3849 19.4326 6.64459
115 1 -1.1104 6.50488 13.9182 3.74241
141 2 2.2208 10.8328 18.0842 5.15767
142 1 -1.1104 12.1457 13.7762 0.985381
144 1 -1.1104 12.3615 19.4819 1.00735
146 1 -1.1104 12.2989 14.0235 3.82253
147 1 -1.1104 12.3225 19.5826 3.8769
148 1 -1.1104 12.3283 16.5938 1.17079
150 2 2.2208 10.894 15.176 2.41318
151 2 2.2208 10.9858 20.7586 2.50789
152 1 -1.1104 12.2227 16.7584 3.85174
153 1 -1.1104 9.45708 13.7448 0.880191
155 1 -1.1104 9.55595 19.4056 0.92681
157 2 2.2208 8.04443 17.9886 2.35613
158 1 -1.1104 9.33941 13.8273 3.71812
159 1 -1.1104 9.40711 19.3714 3.7972
160 2 2.2208 7.95604 15.2682 5.18824
161 2 2.2208 8.05693 20.7896 5.22217
162 1 -1.1104 9.39043 16.4658 0.953963
164 1 -1.1104 9.51418 16.587 3.88207
156 1 -1.1104 9.40491 19.4003 6.54344
163 1 -1.1104 9.33192 16.6339 6.4723
118 1 -1.1104 6.52314 16.7007 6.69158
230 2 2.2208 10.8327 15.1969 8.00892
231 1 -1.1104 9.50008 19.3824 9.38222
306 1 -1.1104 6.6001 16.6469 12.2329
204 1 -1.1104 9.39 13.8291 9.51488
387 2 2.2208 5.16577 4.15186 13.5932
166 1 -1.1104 1.03466 -2.83235 6.72406
169 1 -1.1104 6.6193 2.69269 6.54264
9065 2 2.2208 13.5986 15.4028 10.9339
167 1 -1.1104 1.00018 2.6072 6.68923
173 1 -1.1104 3.73954 2.61821 6.66807
174 1 -1.1104 3.66565 -0.136447 6.44641
172 1 -1.1104 3.90018 -2.86022 6.61408
175 2 2.2208 5.36917 1.3204 10.8867
176 1 -1.1104 1.10865 -2.76464 12.3407
177 1 -1.1104 1.11247 2.62196 12.3308
180 1 -1.1104 1.00799 -2.88649 9.579
181 1 -1.1104 0.86406 2.70075 9.4063
184 1 -1.1104 1.13611 -0.226437 12.3381
186 2 2.2208 5.17531 -1.50158 8.00036
187 2 2.2208 5.11438 4.05665 8.1066
188 1 -1.1104 1.13181 -0.056489 9.49276
190 1 -1.1104 3.87112 -2.98141 12.3119
191 1 -1.1104 3.89118 2.67376 12.2459
192 2 2.2208 2.36333 1.21382 8.11632
193 1 -1.1104 3.76934 -3.00117 9.50712
194 1 -1.1104 3.88359 2.5716 9.44037
195 2 2.2208 2.48631 -1.47301 10.8515
196 2 2.2208 2.41065 4.01855 10.6804
197 1 -1.1104 3.85646 -0.0914588 12.2334
198 1 -1.1104 3.90363 -0.247033 9.46826
202 1 -1.1104 9.28981 19.6181 12.3257
182 1 -1.1104 6.52786 -2.93544 9.48814
179 1 -1.1104 6.71655 2.61235 12.322
8868 2 2.2208 13.6363 15.3557 5.28414
419 2 2.2208 10.7208 -1.58097 13.6487
290 1 -1.1104 6.47639 13.7432 9.29787
8772 2 2.2208 -0.249439 20.8862 7.94888
208 1 -1.1104 9.49139 -2.74904 6.62349
206 1 -1.1104 12.5039 2.60607 6.60577
168 1 -1.1104 6.6793 -2.80856 6.62901
171 1 -1.1104 6.54953 -0.0130734 6.6704
178 1 -1.1104 6.66374 -2.94726 12.2384
210 1 -1.1104 9.45159 0.00323357 6.68054
185 1 -1.1104 6.54274 -0.161168 12.3278
183 1 -1.1104 6.5786 2.78272 9.41405
189 1 -1.1104 6.63605 -0.0479365 9.3867
211 2 2.2208 10.7214 1.32117 10.9435
212 1 -1.1104 12.2366 -3.00056 12.2152
213 1 -1.1104 12.1929 2.79969 12.3729
214 1 -1.1104 12.2213 -3.00623 9.41507
215 1 -1.1104 12.1363 2.62199 9.59433
216 1 -1.1104 12.1327 -0.0786219 12.2517
217 2 2.2208 10.7182 -1.47016 8.1226
218 2 2.2208 10.9318 4.06604 8.04304
219 1 -1.1104 12.0312 -0.181216 9.57924
220 1 -1.1104 9.47443 -2.95376 12.1897
221 1 -1.1104 9.39003 2.72001 12.1967
222 2 2.2208 8.07236 1.26229 7.92088
223 1 -1.1104 9.53545 -2.87305 9.38155
224 1 -1.1104 9.30133 2.74937 9.33547
225 2 2.2208 8.01218 -1.50608 10.937
226 2 2.2208 8.04361 4.1913 10.9208
227 1 -1.1104 9.31402 -0.214973 12.3556
228 1 -1.1104 9.30581 -0.0200116 9.57835
331 2 2.2208 7.92027 18.1373 13.5788
9070 2 2.2208 13.5215 6.91267 13.6169
314 1 -1.1104 9.49915 16.7118 9.151
62 1 -1.1104 1.02801 11.0706 6.69455
78 1 -1.1104 3.88025 11.0826 6.76778
239 1 -1.1104 3.84209 5.48624 6.63402
136 1 -1.1104 12.3392 14.0646 9.40466
9130 2 2.2208 13.5693 1.32655 13.66
234 1 -1.1104 0.880884 8.25067 6.72429
240 2 2.2208 5.0855 6.84257 10.8906
241 2 2.2208 5.1513 12.3794 10.7992
242 1 -1.1104 1.00824 8.18102 12.2177
244 1 -1.1104 0.999632 8.24156 9.5382
246 1 -1.1104 1.0195 5.48933 12.2626
247 1 -1.1104 1.04732 10.8563 12.2336
250 2 2.2208 5.13816 9.63593 8.10067
251 1 -1.1104 1.05146 5.47864 9.48474
252 1 -1.1104 1.03549 11.0372 9.4692
255 1 -1.1104 3.81602 8.33554 12.2037
256 2 2.2208 2.43431 6.88939 7.98375
257 2 2.2208 2.38195 12.4447 8.22422
258 1 -1.1104 3.69879 8.19335 9.36466
259 2 2.2208 2.31288 9.57038 10.8362
260 1 -1.1104 3.78462 5.42971 12.2482
261 1 -1.1104 3.74836 11.28 12.2749
262 1 -1.1104 3.7082 5.30814 9.36629
263 1 -1.1104 3.76025 10.9532 9.53699
327 2 2.2208 5.15723 20.9218 13.5574
8966 2 2.2208 13.619 12.6089 2.34341
266 1 -1.1104 12.3923 5.43441 6.77048
90 1 -1.1104 12.3019 11.179 6.66894
265 1 -1.1104 12.0735 8.32261 6.5393
267 1 -1.1104 9.30183 8.22761 6.55125
235 1 -1.1104 6.5473 8.32335 6.5749
254 1 -1.1104 6.56933 10.975 9.40583
248 1 -1.1104 6.51064 5.51745 12.2084
269 1 -1.1104 9.44708 5.48304 6.67273
101 1 -1.1104 9.49124 11.0212 6.70007
65 1 -1.1104 6.60227 11.1752 6.64364
249 1 -1.1104 6.60559 10.996 12.2973
245 1 -1.1104 6.4976 8.16275 9.45268
243 1 -1.1104 6.59337 8.15564 12.2908
253 1 -1.1104 6.44714 5.4694 9.37808
264 1 -1.1104 9.34342 11.0556 9.47554
268 1 -1.1104 9.47198 5.47853 9.40976
270 1 -1.1104 9.35607 11.0571 12.2151
271 1 -1.1104 9.45794 5.59976 12.3076
272 2 2.2208 7.96353 9.55524 10.7833
273 1 -1.1104 9.36457 8.24121 9.46901
274 2 2.2208 7.929 12.4143 8.03579
275 2 2.2208 7.9276 6.84629 7.98069
276 2 2.2208 10.8043 6.88169 10.8385
277 2 2.2208 10.7213 12.4606 10.7468
278 1 -1.1104 12.1783 8.2341 12.23
279 1 -1.1104 12.2814 8.27316 9.41793
280 1 -1.1104 12.2081 5.56528 12.1978
281 1 -1.1104 12.1523 11.0422 12.362
282 2 2.2208 10.8094 9.72505 8.01526
283 1 -1.1104 12.1451 5.25914 9.43224
284 1 -1.1104 12.2192 11.143 9.42323
285 1 -1.1104 9.47503 8.29594 12.3002
342 2 2.2208 8.02308 9.66781 -0.292885
297 1 -1.1104 6.58109 13.7793 12.1518
289 1 -1.1104 6.6631 16.6018 9.46156
124 1 -1.1104 3.84077 13.7784 6.6969
133 1 -1.1104 3.65985 16.5826 6.58114
117 1 -1.1104 0.891913 16.7054 6.63394
126 1 -1.1104 3.80349 19.6387 6.62381
108 1 -1.1104 1.1975 13.8227 6.7787
286 1 -1.1104 3.7663 19.3438 12.1926
287 1 -1.1104 3.80423 13.8737 12.0892
291 1 -1.1104 1.24721 19.551 9.46312
292 1 -1.1104 0.977448 16.6466 9.36081
293 2 2.2208 5.35812 20.9389 8.11304
294 1 -1.1104 0.98785 13.9967 9.66675
295 2 2.2208 5.19607 15.2514 8.00524
298 1 -1.1104 1.01374 19.5601 12.206
299 1 -1.1104 1.02748 13.7924 12.3858
300 2 2.2208 5.38449 18.1078 10.7119
301 1 -1.1104 4.05852 19.5605 9.4963
303 2 2.2208 2.39245 18.0669 8.02209
304 1 -1.1104 3.87434 16.7662 9.41872
305 1 -1.1104 3.80234 13.8499 9.53716
307 1 -1.1104 0.857351 16.5921 12.1985
308 1 -1.1104 3.86592 16.7119 12.3041
309 2 2.2208 2.43635 20.8919 10.7658
310 2 2.2208 2.47737 15.3975 10.898
51 2 2.2208 13.5694 9.6426 5.25541
333 2 2.2208 2.43549 4.11574 -0.333925
296 1 -1.1104 6.65215 19.4853 12.0155
288 1 -1.1104 6.76822 19.5729 9.39529
137 1 -1.1104 12.3082 19.3946 9.52793
112 1 -1.1104 6.4917 19.5212 6.61729
312 1 -1.1104 12.2893 16.7746 9.4484
53 1 -1.1104 9.32207 13.7924 12.2671
165 1 -1.1104 12.0364 16.6797 12.4089
135 1 -1.1104 12.1788 19.5353 12.3146
232 2 2.2208 7.98745 15.1822 10.7821
111 1 -1.1104 6.6274 13.9316 6.69505
311 2 2.2208 10.9811 20.8291 8.00035
154 1 -1.1104 9.44372 13.7428 6.69956
149 1 -1.1104 12.1699 16.691 6.53779
337 2 2.2208 5.22912 7.01987 -0.330282
320 2 2.2208 2.27885 12.4597 13.6623
8642 2 2.2208 2.47396 -4.22143 13.5621
418 2 2.2208 7.94785 1.12472 13.5986
9089 2 2.2208 13.4868 18.145 13.6338
323 2 2.2208 2.45546 15.1742 -0.336098
318 2 2.2208 8.05966 20.8507 -0.315004
338 2 2.2208 2.32233 9.76471 -0.299659
386 2 2.2208 2.56609 1.23234 13.6225
9085 2 2.2208 -0.32528 20.952 13.5856
9073 2 2.2208 13.5131 12.5139 13.643
317 2 2.2208 10.8596 17.9626 -0.324355
335 2 2.2208 7.85369 4.17443 -0.28726
483 2 2.2208 7.89674 12.4495 13.6241
609 2 2.2208 13.6205 -1.51161 -0.296639
603 2 2.2208 7.95204 -1.52594 -0.243996
573 2 2.2208 2.3432 -1.62355 -0.321972
345 2 2.2208 5.36955 1.37976 16.4251
346 1 -1.1104 1.12055 -2.80087 17.7308
347 1 -1.1104 0.907091 2.75403 17.8808
350 1 -1.1104 1.04364 -2.9488 15.1045
352 1 -1.1104 1.0695 2.5405 15.0765
358 1 -1.1104 1.10947 0.000411333 17.9632
360 2 2.2208 5.15472 -1.57336 19.3392
361 2 2.2208 5.12266 4.27789 19.3185
362 1 -1.1104 1.00027 -0.143985 15.1317
366 1 -1.1104 3.81528 -2.79724 17.9793
367 1 -1.1104 3.84563 2.68771 17.7985
368 2 2.2208 2.47659 1.36184 19.1808
369 1 -1.1104 3.8923 -2.97217 15.1461
371 1 -1.1104 3.84113 2.6786 15.0502
373 2 2.2208 2.43981 -1.53006 16.5774
374 2 2.2208 2.42515 4.09099 16.4621
375 1 -1.1104 3.80489 -0.0788015 17.9397
376 1 -1.1104 3.95472 -0.184084 15.1172
363 1 -1.1104 0.907156 -0.0773102 20.8042
416 2 2.2208 13.6382 -1.59588 16.3838
354 1 -1.1104 6.70231 -2.74685 15.1613
8663 2 2.2208 5.25918 -4.22768 16.4975
9077 2 2.2208 -0.326979 9.61692 13.6663
8521 2 2.2208 8.06914 -4.15904 24.9316
9200 2 2.2208 13.6087 9.61664 16.5023
417 2 2.2208 13.5179 12.5923 19.3191
9198 2 2.2208 -0.316018 1.21792 16.4535
370 1 -1.1104 3.79406 -3.03712 20.7621
9131 2 2.2208 -0.334287 12.4268 22.081
8639 2 2.2208 7.99038 -4.17179 19.3004
414 2 2.2208 -0.303557 9.68937 19.4061
349 1 -1.1104 6.49848 2.6958 17.9102
544 1 -1.1104 6.69514 16.6734 23.6802
356 1 -1.1104 6.711 2.81839 15.0269
348 1 -1.1104 6.66582 -2.88869 18.0032
359 1 -1.1104 6.5478 -0.0977856 17.7838
364 1 -1.1104 6.50965 -0.127217 15.0973
388 2 2.2208 10.8069 1.34193 16.4089
389 1 -1.1104 12.1304 -3.03944 17.7971
390 1 -1.1104 12.193 2.85377 17.874
391 1 -1.1104 12.141 -2.81665 14.9959
393 1 -1.1104 12.264 2.83082 15.2037
395 1 -1.1104 12.3188 -0.00718737 17.8725
396 2 2.2208 10.8561 -1.52577 19.1761
397 2 2.2208 10.6802 4.03449 19.2862
398 1 -1.1104 12.123 -0.0161995 14.9643
400 1 -1.1104 9.35427 -2.85027 17.8074
401 1 -1.1104 9.42108 2.77869 17.9183
402 2 2.2208 7.93385 1.40219 19.3481
403 1 -1.1104 9.43098 -2.94572 14.9591
405 1 -1.1104 9.44532 2.68672 15.0192
407 2 2.2208 7.93762 -1.44774 16.5457
408 2 2.2208 7.91328 4.06804 16.5293
409 1 -1.1104 9.30053 0.0592903 17.813
410 1 -1.1104 9.24586 -0.194405 15.1855
404 1 -1.1104 9.36944 -3.01382 20.668
8524 2 2.2208 10.7678 -4.25297 22.0668
355 1 -1.1104 6.54972 -2.81007 20.7481
9167 2 2.2208 13.5705 -1.51362 22.0344
413 2 2.2208 -0.32781 6.78577 16.5295
421 2 2.2208 5.22213 6.87579 16.5396
422 2 2.2208 5.15597 12.5747 16.4769
423 1 -1.1104 1.08117 8.27111 17.846
425 1 -1.1104 0.976038 8.26013 15.0731
429 1 -1.1104 1.04078 5.49503 18.0298
430 1 -1.1104 1.03147 11.0831 17.9002
433 2 2.2208 5.20384 9.75099 19.3792
434 1 -1.1104 0.943348 5.42683 15.0982
436 1 -1.1104 0.922049 11.24 15.116
442 1 -1.1104 3.95924 8.23018 17.9294
443 2 2.2208 2.34599 6.93214 19.4484
444 2 2.2208 2.48276 12.4298 19.2366
445 1 -1.1104 3.75043 8.32443 15.0439
447 2 2.2208 2.24178 9.74518 16.3174
448 1 -1.1104 3.67913 5.4632 17.7959
449 1 -1.1104 3.78075 11.0631 17.7663
450 1 -1.1104 3.68642 5.40841 14.9659
452 1 -1.1104 3.78915 10.939 14.9013
610 2 2.2208 10.9288 20.8855 24.9188
451 1 -1.1104 3.86697 5.55667 20.5795
424 1 -1.1104 6.70061 8.34119 17.9849
607 2 2.2208 8.14395 15.3085 22.0682
446 1 -1.1104 3.8306 8.50121 20.6324
384 2 2.2208 13.6208 18.0408 19.3306
9392 2 2.2208 13.4989 9.62305 22.044
432 1 -1.1104 6.51127 11.2872 18.0044
431 1 -1.1104 6.60094 5.53966 17.9712
438 1 -1.1104 6.45025 5.51508 15.1665
427 1 -1.1104 6.62921 8.3628 15.1125
440 1 -1.1104 6.61431 11.0918 15.1638
457 2 2.2208 10.9199 6.81853 16.5501
458 2 2.2208 10.7482 12.6302 16.5144
459 1 -1.1104 12.1039 8.60799 17.7718
460 1 -1.1104 12.1922 8.19692 15.196
462 1 -1.1104 12.1764 5.65499 18.0407
463 1 -1.1104 12.2558 11.2891 17.8483
464 2 2.2208 10.8401 9.8067 19.2699
465 1 -1.1104 12.1283 5.50513 15.1217
467 1 -1.1104 11.9918 11.0926 15.0869
469 1 -1.1104 9.3387 8.26671 17.7844
470 2 2.2208 8.06357 6.86212 19.1848
471 2 2.2208 8.05984 12.507 19.2544
472 1 -1.1104 9.41093 8.33864 15.0716
474 2 2.2208 8.03268 9.72699 16.4959
475 1 -1.1104 9.35459 5.46694 17.7823
476 1 -1.1104 9.48776 11.1598 18.0093
477 1 -1.1104 9.39403 5.50728 15.1071
479 1 -1.1104 9.32082 11.1359 14.9248
9270 2 2.2208 13.3616 15.3232 16.3626
478 1 -1.1104 9.32569 5.47597 20.5899
9132 2 2.2208 13.5672 1.34077 19.2552
9166 2 2.2208 13.4885 1.19617 24.8935
484 2 2.2208 5.15097 18.1458 16.3551
485 1 -1.1104 0.88306 13.9135 17.7496
486 1 -1.1104 1.06008 19.4829 17.9225
489 1 -1.1104 0.980263 13.7877 15.1807
491 1 -1.1104 0.822397 19.4804 15.0692
497 1 -1.1104 0.938361 16.6453 17.8271
499 2 2.2208 5.22683 15.3558 19.1763
500 2 2.2208 5.24559 20.921 19.2135
501 1 -1.1104 0.922631 16.7133 14.9242
505 1 -1.1104 3.8092 14.0539 17.872
506 1 -1.1104 3.84319 19.6099 17.9867
507 2 2.2208 2.54395 18.2082 19.2524
508 1 -1.1104 3.78146 13.847 14.9784
510 1 -1.1104 3.62831 19.4238 15.0874
512 2 2.2208 2.21649 15.2469 16.444
513 2 2.2208 2.27873 20.9306 16.4974
514 1 -1.1104 3.81754 16.75 17.7545
515 1 -1.1104 3.59617 16.5889 15.0053
493 1 -1.1104 6.5225 13.9147 15.0131
498 1 -1.1104 6.67059 16.8611 17.8823
503 1 -1.1104 6.49034 16.8614 14.8935
495 1 -1.1104 6.51755 19.608 15.0188
488 1 -1.1104 6.5886 19.5734 17.8178
487 1 -1.1104 6.60689 13.933 17.7931
496 1 -1.1104 6.62631 19.4217 20.6759
502 1 -1.1104 1.13981 16.7587 20.6641
511 1 -1.1104 3.81006 19.4096 20.6445
509 1 -1.1104 3.7839 13.9167 20.6245
575 2 2.2208 13.5614 6.94874 19.2934
380 2 2.2208 -0.286596 20.9184 19.2958
637 1 -1.1104 6.61126 13.9204 23.3633
9126 2 2.2208 13.547 4.03151 16.4895
9333 2 2.2208 13.5663 4.06137 22.1213
520 2 2.2208 10.8644 18.2459 16.5674
521 1 -1.1104 12.1875 13.9949 17.9056
522 1 -1.1104 12.1049 19.5085 17.9722
523 1 -1.1104 12.0005 14.0459 15.127
525 1 -1.1104 12.3217 19.5971 15.0986
527 1 -1.1104 12.1488 16.7096 17.8701
528 2 2.2208 10.8212 15.4186 19.2649
529 2 2.2208 10.8219 20.9583 19.4398
530 1 -1.1104 11.9349 16.8315 15.0932
532 1 -1.1104 9.28947 13.9592 17.7912
533 1 -1.1104 9.30086 19.5491 17.8634
534 2 2.2208 8.03188 18.1497 19.25
535 1 -1.1104 9.27719 14.0176 15.0468
537 1 -1.1104 9.36631 19.5691 15.0353
539 2 2.2208 7.95515 15.4084 16.4643
540 2 2.2208 8.02192 20.8974 16.4674
541 1 -1.1104 9.33375 16.7699 17.8766
542 1 -1.1104 9.26713 16.843 15.0282
536 1 -1.1104 9.4775 13.8462 20.6475
526 1 -1.1104 12.2064 19.5097 20.7207
538 1 -1.1104 9.44015 19.5051 20.6499
543 1 -1.1104 9.43957 16.7843 20.6467
531 1 -1.1104 12.2374 16.7635 20.7598
325 2 2.2208 2.36633 20.8946 27.6578
524 1 -1.1104 12.3335 13.9959 20.6476
9125 2 2.2208 13.598 12.4646 24.8818
377 1 -1.1104 3.84199 -0.247749 20.7364
365 1 -1.1104 6.69177 0.0355158 20.7761
547 1 -1.1104 12.3103 13.9822 23.4423
372 1 -1.1104 3.86983 2.67859 20.665
351 1 -1.1104 0.970991 -2.87599 20.5446
665 1 -1.1104 9.54466 19.4172 23.5431
353 1 -1.1104 1.09468 2.65389 20.7052
548 2 2.2208 5.12722 1.27169 22.057
549 1 -1.1104 0.815085 -2.8571 23.4802
550 1 -1.1104 0.957889 2.86869 23.628
553 1 -1.1104 0.905012 -3.08376 26.2598
554 1 -1.1104 0.874959 2.73128 26.2709
557 1 -1.1104 0.852491 0.0256399 23.5211
559 2 2.2208 5.15342 -1.49764 24.8882
560 2 2.2208 5.17413 4.01525 24.788
561 1 -1.1104 0.941708 -0.23747 26.2504
563 1 -1.1104 3.74552 -3.0097 23.485
564 1 -1.1104 3.75589 2.69027 23.455
565 2 2.2208 2.33699 1.33261 24.9659
566 1 -1.1104 3.748 -3.01543 26.22
567 1 -1.1104 3.69748 2.68324 26.3343
568 2 2.2208 2.22749 -1.56507 22.1914
569 2 2.2208 2.33989 4.22193 22.0454
570 1 -1.1104 3.7127 -0.0801875 23.6371
571 1 -1.1104 3.73971 -0.0281659 26.4371
556 1 -1.1104 6.46217 2.67375 26.3626
558 1 -1.1104 6.54576 -0.122802 23.5268
667 2 2.2208 13.4163 6.79232 24.8942
669 1 -1.1104 6.54473 13.8322 26.1418
580 1 -1.1104 11.98 14.0264 26.2885
394 1 -1.1104 11.9853 2.52902 20.7115
392 1 -1.1104 12.1839 -2.94337 20.6057
357 1 -1.1104 6.39984 2.75181 20.722
562 1 -1.1104 6.53184 -0.225606 26.2849
552 1 -1.1104 6.44713 2.63898 23.4868
399 1 -1.1104 12.0972 -0.271113 20.6141
411 1 -1.1104 9.36251 -0.111644 20.6796
406 1 -1.1104 9.11759 2.76616 20.7753
555 1 -1.1104 6.62299 -2.90872 26.4566
551 1 -1.1104 6.70334 -2.87565 23.6681
584 2 2.2208 10.6367 1.29481 21.9937
585 1 -1.1104 12.2367 -2.84765 23.5284
586 1 -1.1104 12.049 2.66503 23.6125
587 1 -1.1104 12.0544 -2.88167 26.2773
588 1 -1.1104 12.0509 2.7008 26.3687
589 1 -1.1104 12.0236 -0.166638 23.4806
590 2 2.2208 10.7221 -1.51728 24.8944
592 1 -1.1104 12.1715 -0.114909 26.3683
593 1 -1.1104 9.38838 -2.80547 23.5873
594 1 -1.1104 9.2734 2.60213 23.4642
595 2 2.2208 7.89244 1.20263 24.7773
596 1 -1.1104 9.38241 -2.98428 26.2364
597 1 -1.1104 9.25152 2.69975 26.1425
598 2 2.2208 7.9938 -1.56585 22.0796
599 2 2.2208 7.89654 4.10552 22.1607
600 1 -1.1104 9.39595 -0.154217 23.33
601 1 -1.1104 9.2287 -0.0879228 26.2608
591 2 2.2208 10.7041 4.0512 24.8854
605 2 2.2208 10.7837 15.2945 24.8856
382 1 -1.1104 9.42868 16.6916 26.2284
381 1 -1.1104 9.43656 16.7638 23.506
583 1 -1.1104 12.2315 16.7954 23.6273
581 1 -1.1104 12.3677 19.4975 26.3291
426 1 -1.1104 0.936064 8.19258 20.7577
437 1 -1.1104 0.994369 10.9695 20.844
428 1 -1.1104 6.61328 8.42064 20.8137
608 2 2.2208 8.09624 20.9203 22.1614
412 2 2.2208 10.8755 18.0698 22.0945
435 1 -1.1104 0.835775 5.48322 20.7107
453 1 -1.1104 3.67831 11.1478 20.6471
613 2 2.2208 5.15831 7.01841 22.0836
614 2 2.2208 5.18757 12.5405 22.016
615 1 -1.1104 0.905779 8.39902 23.6581
617 1 -1.1104 0.803999 8.44841 26.3509
619 1 -1.1104 0.814453 5.63708 23.51
620 1 -1.1104 0.912015 11.2088 23.5985
623 2 2.2208 5.08813 9.67967 24.9715
624 1 -1.1104 0.911025 5.54131 26.3943
625 1 -1.1104 0.925719 11.1224 26.3565
628 1 -1.1104 3.73335 8.36068 23.5217
629 2 2.2208 2.32513 6.92654 24.9673
630 2 2.2208 2.34647 12.4704 24.9822
631 1 -1.1104 3.69322 8.15241 26.3563
632 2 2.2208 2.26254 9.65145 22.2073
633 1 -1.1104 3.6464 5.58537 23.4018
634 1 -1.1104 3.6619 11.1088 23.4279
635 1 -1.1104 3.82073 5.45432 26.1429
636 1 -1.1104 3.68064 10.9795 26.2735
622 1 -1.1104 6.50189 11.0156 23.6124
621 1 -1.1104 6.42867 5.48395 23.579
627 1 -1.1104 6.74342 11.0644 26.2874
626 1 -1.1104 6.40281 5.46152 26.4028
494 1 -1.1104 6.60295 14.0109 20.6498
579 1 -1.1104 9.34944 13.9096 26.2046
468 1 -1.1104 12.1285 11.1083 20.7518
473 1 -1.1104 9.31036 8.36208 20.6321
578 1 -1.1104 6.54663 19.5159 26.4117
439 1 -1.1104 6.62544 5.67217 20.7862
461 1 -1.1104 12.1539 8.29775 20.5129
466 1 -1.1104 12.0453 5.41334 20.7935
441 1 -1.1104 6.55261 11.3278 20.8205
616 1 -1.1104 6.40409 8.19709 23.6389
618 1 -1.1104 6.66535 8.43729 26.4349
480 1 -1.1104 9.24257 11.2131 20.8646
644 1 -1.1104 9.39753 11.0453 26.2524
645 1 -1.1104 9.29496 5.5473 26.4139
646 1 -1.1104 9.42519 10.952 23.5109
647 1 -1.1104 9.35111 5.20848 23.445
648 2 2.2208 7.98059 9.76995 22.0754
649 1 -1.1104 9.39535 8.28729 26.2841
650 2 2.2208 7.98943 12.5004 24.88
651 2 2.2208 7.89364 6.87278 24.9063
652 2 2.2208 10.7397 6.82935 22.0163
653 2 2.2208 10.8701 12.5329 22.1142
654 1 -1.1104 12.1459 8.12223 23.4239
655 1 -1.1104 12.0131 8.29041 26.2997
656 1 -1.1104 12.0998 5.4022 23.5546
657 1 -1.1104 12.3087 11.1721 23.4018
658 2 2.2208 10.7599 9.63546 24.8305
659 1 -1.1104 12.1239 5.55999 26.3608
660 1 -1.1104 12.1663 11.1459 26.1155
661 1 -1.1104 9.29141 8.20456 23.3964
611 1 -1.1104 12.1339 16.5864 26.3435
576 1 -1.1104 12.4307 19.5866 23.4965
606 1 -1.1104 9.51163 19.5391 26.2654
642 1 -1.1104 9.39287 13.8388 23.4634
666 1 -1.1104 6.70228 16.7677 26.3744
492 1 -1.1104 1.06589 19.4912 20.5554
516 1 -1.1104 3.88673 16.7067 20.5601
490 1 -1.1104 1.08562 13.8093 20.6124
482 2 2.2208 2.65906 15.3434 21.9532
517 2 2.2208 2.60883 20.9062 22.0242
518 1 -1.1104 3.95606 16.8944 23.4532
519 1 -1.1104 1.14759 16.6759 23.3916
545 1 -1.1104 3.91413 13.801 26.2138
546 1 -1.1104 3.78118 16.5451 26.1783
572 2 2.2208 2.32142 17.9985 24.7093
574 1 -1.1104 3.71571 19.4302 26.1763
602 2 2.2208 5.31716 18.0565 22.0652
604 1 -1.1104 1.00383 14.0708 23.5004
612 1 -1.1104 0.918654 19.4996 23.4125
638 2 2.2208 5.27134 15.2721 24.8848
639 2 2.2208 5.28215 20.9195 24.959
662 1 -1.1104 1.0262 13.8464 26.5081
663 1 -1.1104 1.03155 16.6291 26.2436
664 1 -1.1104 0.825406 19.6585 26.1789
668 1 -1.1104 3.83989 19.5917 23.532
670 1 -1.1104 3.90232 14.0351 23.3279
640 1 -1.1104 6.69839 19.5169 23.5954
504 1 -1.1104 6.72889 16.7044 20.7845
456 2 2.2208 8.14631 18.0433 24.9261
329 2 2.2208 10.7141 20.8691 13.7002
344 2 2.2208 13.5268 9.85672 27.595
324 2 2.2208 5.20204 17.9036 27.5646
332 2 2.2208 5.14729 1.31093 27.6624
9343 2 2.2208 -0.298916 -1.4788 13.6698
319 2 2.2208 5.25594 9.72075 13.7363
454 2 2.2208 2.36472 6.92938 13.7294
9068 2 2.2208 13.6206 15.3228 27.6516
322 2 2.2208 10.7265 9.6999 13.7564
385 2 2.2208 5.23799 -1.55301 13.7631
420 2 2.2208 10.8385 4.23234 13.7051
481 2 2.2208 8.03126 6.90278 13.7475
343 2 2.2208 10.7073 12.4532 27.6326
336 2 2.2208 13.5743 4.00389 27.6068
330 2 2.2208 10.59 15.3122 13.717
334 2 2.2208 10.5955 1.34571 27.6547
339 2 2.2208 5.32332 12.4256 27.6449
316 2 2.2208 8.02796 15.1882 27.6376
671 2 2.2208 5.17531 23.6828 5.10468
672 2 2.2208 5.16806 29.2741 5.24564
673 1 -1.1104 1.06487 25.1214 0.998499
674 1 -1.1104 0.979003 25.0452 3.82726
675 1 -1.1104 0.932652 22.2558 0.967974
676 1 -1.1104 0.924076 27.8038 0.990229
677 2 2.2208 5.27689 26.5242 2.22269
678 1 -1.1104 1.02661 22.4216 3.7559
679 1 -1.1104 0.95446 27.9942 3.78431
680 1 -1.1104 3.85184 25.0953 1.07849
681 2 2.2208 2.39946 23.6653 2.35293
682 2 2.2208 2.34623 29.3387 2.36087
683 1 -1.1104 3.79405 24.9657 3.68228
684 2 2.2208 2.39959 26.4272 5.22434
685 1 -1.1104 3.8489 22.2172 0.8917
686 1 -1.1104 3.69947 27.8979 0.969252
687 1 -1.1104 3.91527 22.1071 3.90845
688 1 -1.1104 3.75851 27.827 3.78855
818 1 -1.1104 3.82818 25.1958 6.52556
695 1 -1.1104 6.73094 27.8274 1.07688
697 1 -1.1104 6.67765 27.7968 3.95927
692 1 -1.1104 6.6668 25.0055 0.945784
694 1 -1.1104 6.68018 22.3335 1.06229
1578 1 -1.1104 12.2249 47.5049 12.3694
812 1 -1.1104 1.05291 24.9646 6.68728
1548 1 -1.1104 6.52938 47.47 9.47767
693 1 -1.1104 6.69633 25.1017 3.76051
696 1 -1.1104 6.72768 22.3215 3.70137
698 2 2.2208 10.7953 23.7966 5.30102
699 2 2.2208 10.9049 29.2785 5.26746
700 1 -1.1104 12.2413 24.9666 1.10631
701 1 -1.1104 12.271 25.2823 3.99603
702 1 -1.1104 12.236 22.1476 1.29036
703 1 -1.1104 12.3019 27.727 1.193
704 2 2.2208 10.8599 26.564 2.44325
705 1 -1.1104 12.3097 22.4978 3.93151
706 1 -1.1104 12.3534 27.8394 3.99201
707 1 -1.1104 9.35218 25.1017 1.10686
708 2 2.2208 8.12056 23.6751 2.4075
709 2 2.2208 8.06823 29.228 2.53137
710 1 -1.1104 9.48476 25.1428 3.85389
711 2 2.2208 8.02934 26.3981 5.31532
712 1 -1.1104 9.38113 22.3441 1.07572
713 1 -1.1104 9.50837 27.9558 0.876611
714 1 -1.1104 9.49254 22.3068 3.8302
715 1 -1.1104 9.61237 28.0796 3.77618
848 1 -1.1104 9.39042 24.9932 6.76251
816 1 -1.1104 6.63129 22.4348 6.58023
849 1 -1.1104 9.43348 22.132 6.7264
1278 2 2.2208 5.16481 34.8127 -0.235536
1545 1 -1.1104 6.61695 47.5162 12.2575
846 1 -1.1104 12.1179 22.2144 6.61379
845 1 -1.1104 12.1932 25.1124 6.88515
997 2 2.2208 2.32939 32.1818 -0.30384
1571 1 -1.1104 12.2472 47.4306 6.66041
719 2 2.2208 5.31397 34.9095 5.2458
720 1 -1.1104 0.97938 30.6989 1.19704
721 1 -1.1104 1.04254 36.4616 1.15253
723 1 -1.1104 1.16927 30.7982 3.92589
724 1 -1.1104 1.04523 36.3903 4.05288
726 1 -1.1104 0.923157 33.5716 1.23124
727 2 2.2208 5.19946 32.1313 2.38475
728 2 2.2208 5.13935 37.6258 2.41566
729 1 -1.1104 1.10765 33.4838 4.02055
731 1 -1.1104 3.73139 30.6801 1.05782
732 1 -1.1104 3.77595 36.3467 1.15868
733 2 2.2208 2.32568 34.9611 2.5623
734 1 -1.1104 3.899 30.5895 3.77792
735 1 -1.1104 3.78672 36.2767 3.96365
736 2 2.2208 2.51622 32.1813 5.25116
737 2 2.2208 2.43962 37.7432 5.32628
738 1 -1.1104 3.74881 33.5874 1.05613
739 1 -1.1104 3.87828 33.3873 3.87171
722 1 -1.1104 6.44566 36.23 1.16293
873 1 -1.1104 1.10863 33.6157 6.75547
875 1 -1.1104 3.87126 30.7395 6.63533
877 1 -1.1104 3.97707 33.5478 6.70094
1543 1 -1.1104 1.13144 47.5188 12.1278
1388 1 -1.1104 12.2694 47.4477 3.79783
1588 1 -1.1104 9.34551 47.4484 12.291
990 2 2.2208 5.20826 29.3091 -0.301648
1363 1 -1.1104 3.9943 47.5183 0.924176
743 1 -1.1104 6.58556 30.5628 1.18777
730 1 -1.1104 6.60135 33.4386 4.00381
725 1 -1.1104 6.67908 36.2694 3.93229
744 1 -1.1104 6.65388 30.5417 4.03096
745 1 -1.1104 6.66188 33.3344 1.08848
746 2 2.2208 10.8262 34.9151 5.33553
747 1 -1.1104 12.1932 30.6694 1.13232
748 1 -1.1104 12.2723 36.2817 1.18328
749 1 -1.1104 12.3459 30.6191 3.90556
750 1 -1.1104 12.3213 36.3091 3.90106
751 1 -1.1104 12.2938 33.4729 1.06711
752 2 2.2208 10.8887 32.0927 2.50058
753 2 2.2208 10.8675 37.6716 2.47024
754 1 -1.1104 12.3936 33.5614 3.87953
755 1 -1.1104 9.40112 30.6581 1.00321
756 1 -1.1104 9.31091 36.1236 1.09347
757 2 2.2208 7.97768 34.8275 2.60572
758 1 -1.1104 9.52676 30.7235 3.85629
759 1 -1.1104 9.43883 36.2186 3.85212
760 2 2.2208 7.96485 32.0557 5.34064
761 2 2.2208 8.04036 37.6619 5.3632
762 1 -1.1104 9.44665 33.3114 1.1244
763 1 -1.1104 9.51193 33.4429 3.94878
903 1 -1.1104 12.1696 30.645 6.78504
1557 1 -1.1104 3.82566 47.5107 12.2191
765 2 2.2208 5.25444 40.6249 5.33849
766 2 2.2208 5.24816 46.2027 5.20057