ITEM: TIMESTEP
20000
ITEM: NUMBER OF ATOMS
17640
ITEM: BOX BOUNDS pp pp pp
-3.5981177961157157e-01 2.7699811779611451e+01
-4.3933656737274465e+00 3.3247336567372224e+02
-3.6268209617207492e-01 2.7702682096172364e+01
ITEM: ATOMS id type q x y z
1 2 2.2208 5.34076 1.20972 5.29424
2 1 -1.1104 1.13084 -3.12305 1.04635
3 1 -1.1104 1.11768 2.69005 1.11291
6 1 -1.1104 1.17516 -3.0932 3.85775
7 1 -1.1104 1.0507 2.60537 3.86046
10 1 -1.1104 1.09176 -0.204949 0.925605
12 2 2.2208 5.29864 -1.54042 2.4557
13 2 2.2208 5.21695 4.07192 2.4486
14 1 -1.1104 1.04439 -0.0913714 3.66753
16 1 -1.1104 3.84184 -2.87747 0.986719
17 1 -1.1104 3.87058 2.61218 0.952929
18 2 2.2208 2.52635 1.20581 2.23281
19 1 -1.1104 3.93643 -3.11687 3.61284
20 1 -1.1104 3.93664 2.54346 3.79304
21 2 2.2208 2.43989 -1.7455 5.16425
22 2 2.2208 2.40692 3.91066 5.11635
23 1 -1.1104 4.02146 -0.212299 1.02066
24 1 -1.1104 3.88922 -0.427782 3.81024
174 1 -1.1104 3.81853 -0.395096 6.54613
172 1 -1.1104 3.86895 -3.19961 6.60419
170 1 -1.1104 1.1785 -0.223649 6.4667
166 1 -1.1104 0.971668 -3.1078 6.60867
173 1 -1.1104 3.88509 2.57966 6.76435
9144 2 2.2208 -0.342841 12.3974 5.26568
9308 2 2.2208 -0.328669 9.59116 13.5061
167 1 -1.1104 0.937238 2.52263 6.7126
8450 2 2.2208 13.7341 -4.37562 8.16936
25 2 2.2208 -0.129788 -1.66207 2.38876
332 2 2.2208 13.6044 6.78373 2.36643
9 1 -1.1104 6.78909 2.60914 3.77038
4 1 -1.1104 6.63218 -3.01884 1.15854
11 1 -1.1104 6.81412 -0.192281 0.991885
8 1 -1.1104 6.675 -3.0277 3.72708
5 1 -1.1104 6.80742 2.61363 0.996518
15 1 -1.1104 6.63634 -0.288183 3.93826
31 2 2.2208 10.7576 1.20578 5.2413
32 1 -1.1104 12.2492 -2.95161 0.882232
33 1 -1.1104 12.3171 2.53276 0.930257
34 1 -1.1104 12.4321 -2.92758 3.80116
35 1 -1.1104 12.1686 2.69152 3.75158
36 1 -1.1104 12.2942 -0.109063 1.04199
37 2 2.2208 10.9949 -1.48725 2.47641
38 2 2.2208 10.887 4.01644 2.27775
39 1 -1.1104 12.1989 -0.205395 3.89546
40 1 -1.1104 9.28815 -2.99023 1.04919
41 1 -1.1104 9.55605 2.58104 0.84576
42 2 2.2208 8.01952 1.24254 2.41521
43 1 -1.1104 9.65801 -2.96156 3.7861
44 1 -1.1104 9.54839 2.60847 3.85835
45 2 2.2208 8.12527 -1.69092 5.12669
46 2 2.2208 8.24247 4.06344 5.3243
47 1 -1.1104 9.6288 -0.224868 0.957996
48 1 -1.1104 9.35942 -0.207402 3.77786
205 1 -1.1104 12.2723 -3.03747 6.60183
206 1 -1.1104 12.324 2.53846 6.38671
168 1 -1.1104 6.64843 -3.09523 6.52852
208 1 -1.1104 9.45641 -3.0245 6.55603
169 1 -1.1104 6.74906 2.57356 6.62266
207 1 -1.1104 12.2872 -0.142002 6.58618
321 2 2.2208 10.7698 14.9984 13.5941
54 2 2.2208 5.08229 6.78711 5.17778
55 2 2.2208 5.23776 12.3248 5.25448
56 1 -1.1104 0.806722 8.15068 1.14673
58 1 -1.1104 0.982874 8.13368 3.94502
60 1 -1.1104 1.12953 5.40005 0.975407
61 1 -1.1104 1.11447 10.9592 1.07508
66 2 2.2208 5.44326 9.68408 2.42306
67 1 -1.1104 1.15607 5.4189 3.7226
68 1 -1.1104 1.0664 10.998 3.83976
71 1 -1.1104 3.73115 8.26679 1.18365
72 2 2.2208 2.42388 6.77282 2.30632
73 2 2.2208 2.48049 12.3469 2.4038
74 1 -1.1104 3.79438 8.06268 3.72281
75 2 2.2208 2.45913 9.50149 5.16711
76 1 -1.1104 3.8766 5.46519 1.17789
77 1 -1.1104 3.90231 11.074 0.842834
79 1 -1.1104 3.82562 5.34379 3.83084
80 1 -1.1104 3.89317 10.912 3.70108
236 1 -1.1104 0.916545 5.22663 6.50437
238 1 -1.1104 4.00327 8.18589 6.52167
378 2 2.2208 5.242 3.98995 13.6
199 2 2.2208 -0.397167 3.93688 8.00188
62 1 -1.1104 1.06351 11.0046 6.76413
306 1 -1.1104 6.82525 16.5021 12.3124
64 1 -1.1104 6.73688 11.0115 1.10382
70 1 -1.1104 6.61716 11.0885 4.03685
237 1 -1.1104 6.63053 5.42035 6.62058
57 1 -1.1104 6.70401 8.21615 0.936114
59 1 -1.1104 6.73131 8.23615 3.73656
63 1 -1.1104 6.64782 5.39633 1.05216
69 1 -1.1104 6.59119 5.53169 3.94037
84 2 2.2208 10.9106 6.74433 5.16677
85 2 2.2208 10.8691 12.4512 5.3236
86 1 -1.1104 12.2006 8.18399 1.08564
87 1 -1.1104 12.3742 8.32862 3.80153
88 1 -1.1104 12.3365 5.42206 0.853047
89 1 -1.1104 12.3641 11.1163 1.00905
91 2 2.2208 10.736 9.60383 2.38873
92 1 -1.1104 12.2422 5.48243 3.68719
93 1 -1.1104 12.2638 10.9981 3.77566
94 1 -1.1104 9.52053 8.27127 1.05042
95 2 2.2208 8.07903 6.84469 2.41666
96 2 2.2208 8.17106 12.4517 2.50793
97 1 -1.1104 9.51723 8.06467 3.75017
98 2 2.2208 8.14128 9.67751 5.28931
99 1 -1.1104 9.48202 5.41345 1.10302
100 1 -1.1104 9.48131 10.9546 1.01936
102 1 -1.1104 9.45239 5.3564 3.77213
103 1 -1.1104 9.58294 10.8883 3.8364
235 1 -1.1104 6.72148 8.45366 6.92139
266 1 -1.1104 12.2503 5.38505 6.50614
90 1 -1.1104 12.3668 11.0909 6.49147
101 1 -1.1104 9.5526 11.0401 6.82521
267 1 -1.1104 9.45513 8.178 6.42186
297 1 -1.1104 6.717 13.8927 12.3236
8843 2 2.2208 -0.311793 15.0873 8.01009
106 2 2.2208 5.18183 18.0662 5.03789
107 1 -1.1104 1.1063 13.779 1.08327
109 1 -1.1104 0.927424 19.3173 0.869152
113 1 -1.1104 1.06678 13.7501 3.82448
114 1 -1.1104 0.947729 19.3909 3.77364
116 1 -1.1104 1.0535 16.5436 0.953332
119 2 2.2208 5.20788 15.2368 2.46467
120 2 2.2208 5.24531 20.7304 2.41265
121 1 -1.1104 0.975311 16.5914 3.78748
123 1 -1.1104 4.04396 13.9067 1.09118
125 1 -1.1104 3.84634 19.5113 0.89268
127 2 2.2208 2.41437 17.9302 2.36169
128 1 -1.1104 3.79721 13.7973 3.73417
129 1 -1.1104 3.78133 19.4069 3.79765
130 2 2.2208 2.35058 15.12 5.20587
131 2 2.2208 2.23293 20.9544 5.14179
132 1 -1.1104 3.96222 16.6929 1.0476
134 1 -1.1104 3.71307 16.6466 3.84971
126 1 -1.1104 3.79877 19.436 6.47063
111 1 -1.1104 6.68078 13.7619 6.57614
124 1 -1.1104 3.78342 13.6859 6.77287
117 1 -1.1104 1.0761 16.7119 6.59992
138 1 -1.1104 6.68462 19.3419 0.953251
52 2 2.2208 8.04445 20.6971 10.8763
133 1 -1.1104 3.97218 16.5446 6.56624
9037 2 2.2208 -0.316183 15.1653 2.39833
9104 2 2.2208 13.6028 20.7079 10.8608
139 1 -1.1104 6.66269 19.3535 3.79007
140 1 -1.1104 6.87305 16.5206 0.964842
122 1 -1.1104 6.50953 16.6681 3.70553
115 1 -1.1104 6.63282 13.915 3.75856
110 1 -1.1104 6.9109 13.8597 1.00358
143 1 -1.1104 12.2244 13.9038 6.65772
141 2 2.2208 10.9438 18.0164 5.08056
142 1 -1.1104 12.3224 13.7402 1.08205
144 1 -1.1104 12.1106 19.4794 1.1189
146 1 -1.1104 12.1744 13.7723 3.87803
147 1 -1.1104 12.2214 19.3897 3.64953
148 1 -1.1104 12.1536 16.5634 1.00993
150 2 2.2208 10.9231 15.0795 2.47184
151 2 2.2208 10.7065 20.7772 2.34952
152 1 -1.1104 12.2971 16.5283 3.70382
153 1 -1.1104 9.55196 13.8563 1.05681
155 1 -1.1104 9.34475 19.372 0.97697
157 2 2.2208 8.1274 17.9109 2.36432
158 1 -1.1104 9.45241 13.7765 3.99362
159 1 -1.1104 9.39678 19.3252 3.87479
160 2 2.2208 8.04471 15.2376 5.25642
161 2 2.2208 8.02749 20.803 5.23826
162 1 -1.1104 9.59431 16.5694 1.07355
164 1 -1.1104 9.56925 16.4749 3.8175
156 1 -1.1104 9.44803 19.5387 6.52475
118 1 -1.1104 6.69565 16.7047 6.53426
149 1 -1.1104 12.1664 16.5357 6.46761
163 1 -1.1104 9.43601 16.5506 6.64277
154 1 -1.1104 9.43023 13.7445 6.66452
112 1 -1.1104 6.53104 19.4892 6.54755
8644 2 2.2208 7.98309 -4.37562 13.6092
171 1 -1.1104 6.59542 -0.120897 6.69443
26 2 2.2208 -0.287282 1.19666 5.12917
8442 2 2.2208 8.10547 -4.39528 2.40379
175 2 2.2208 5.26425 1.18423 10.9251
176 1 -1.1104 0.944128 -2.88464 12.3347
177 1 -1.1104 0.966257 2.71581 12.328
180 1 -1.1104 0.92451 -3.00921 9.46593
181 1 -1.1104 1.10813 2.49461 9.47408
184 1 -1.1104 1.01563 -0.138861 12.1364
186 2 2.2208 5.18654 -1.70561 7.99762
187 2 2.2208 5.27615 4.06144 8.02907
188 1 -1.1104 0.892932 -0.213458 9.41518
190 1 -1.1104 3.67429 -2.95136 12.1967
191 1 -1.1104 3.87862 2.70222 12.2136
192 2 2.2208 2.36182 1.09254 8.02264
193 1 -1.1104 3.69894 -2.98252 9.36104
194 1 -1.1104 3.74428 2.57824 9.54697
195 2 2.2208 2.2679 -1.5362 10.8365
196 2 2.2208 2.36874 4.0564 10.7992
197 1 -1.1104 3.81947 -0.0846438 12.237
198 1 -1.1104 3.78071 -0.370257 9.34858
230 2 2.2208 13.7387 -1.66298 10.9235
183 1 -1.1104 6.56592 2.60334 9.44041
185 1 -1.1104 6.61534 -0.332471 12.3133
189 1 -1.1104 6.59356 -0.260144 9.40823
182 1 -1.1104 6.70394 -3.19199 9.36421
201 2 2.2208 -0.293706 1.29879 10.8323
9071 2 2.2208 -0.220541 9.58694 8.01947
445 2 2.2208 2.44179 6.80871 13.5208
335 2 2.2208 2.52685 1.26936 13.7199
209 1 -1.1104 9.56909 2.56549 6.66969
210 1 -1.1104 9.32597 -0.233444 6.51387
409 2 2.2208 8.11079 1.26429 13.66
8449 2 2.2208 10.8689 -4.23843 10.8854
8445 2 2.2208 2.38515 -4.47858 8.05939
178 1 -1.1104 6.60205 -3.16307 12.194
179 1 -1.1104 6.60676 2.68852 12.205
211 2 2.2208 10.9001 1.38899 10.8048
212 1 -1.1104 12.3109 -3.12557 12.2203
213 1 -1.1104 12.2292 2.61376 12.2256
214 1 -1.1104 12.3847 -2.89658 9.53457
215 1 -1.1104 12.4231 2.68046 9.28058
216 1 -1.1104 12.3249 -0.249718 12.3563
217 2 2.2208 10.9218 -1.62187 8.03438
218 2 2.2208 10.9106 3.94529 8.02695
219 1 -1.1104 12.1359 -0.115006 9.48233
220 1 -1.1104 9.39021 -2.81204 12.1847
221 1 -1.1104 9.4425 2.64231 12.2147
222 2 2.2208 8.08971 1.13967 8.03846
223 1 -1.1104 9.60238 -3.01422 9.45526
224 1 -1.1104 9.45629 2.51863 9.44528
225 2 2.2208 8.08905 -1.60502 10.7875
226 2 2.2208 8.10609 4.02783 10.7668
227 1 -1.1104 9.5275 -0.0195101 12.3198
228 1 -1.1104 9.42359 -0.190618 9.47416
8443 2 2.2208 10.9206 -4.37715 5.20934
239 1 -1.1104 3.8003 5.38428 6.61471
78 1 -1.1104 3.789 10.9237 6.63614
289 1 -1.1104 6.76567 16.6468 9.38755
446 2 2.2208 5.24064 9.63281 13.6921
234 1 -1.1104 1.18823 8.05025 6.58914
65 1 -1.1104 6.62254 11.0763 6.61873
240 2 2.2208 5.32251 6.70464 10.7014
241 2 2.2208 5.27364 12.4363 10.8526
242 1 -1.1104 1.07436 8.31396 11.964
244 1 -1.1104 1.06763 8.21935 9.40683
246 1 -1.1104 1.05074 5.52319 12.2105
247 1 -1.1104 1.03939 11.2575 12.3759
250 2 2.2208 5.23258 9.67135 8.11492
251 1 -1.1104 1.10249 5.31819 9.46707
252 1 -1.1104 1.08778 10.9945 9.36568
255 1 -1.1104 3.86277 8.32185 12.1916
256 2 2.2208 2.5002 6.7063 7.88739
257 2 2.2208 2.4435 12.4963 8.15817
258 1 -1.1104 3.75487 8.26897 9.32137
259 2 2.2208 2.48762 9.71367 10.8032
260 1 -1.1104 3.83763 5.45456 12.0468
261 1 -1.1104 3.78222 11.0248 12.1827
262 1 -1.1104 3.93377 5.35449 9.2875
263 1 -1.1104 3.87491 11.0436 9.37983
8919 2 2.2208 13.6137 20.6844 5.08674
9058 2 2.2208 13.6985 9.42077 10.9227
9141 2 2.2208 13.5826 18.0386 8.04473
265 1 -1.1104 12.3654 8.17352 6.67889
269 1 -1.1104 9.58309 5.40206 6.80511
204 2 2.2208 8.06592 17.9776 7.87821
254 1 -1.1104 6.63619 11.0611 9.42161
245 1 -1.1104 6.56413 8.22419 9.56722
253 1 -1.1104 6.78538 5.45506 9.33161
243 1 -1.1104 6.65851 8.155 12.2668
249 1 -1.1104 6.68269 10.9419 12.2525
248 1 -1.1104 6.67139 5.46935 12.1318
264 1 -1.1104 9.40781 11.1267 9.60925
268 1 -1.1104 9.59713 5.36252 9.55483
270 1 -1.1104 9.50804 10.955 12.2115
271 1 -1.1104 9.58366 5.37525 12.3361
272 2 2.2208 8.0037 9.5819 10.7899
273 1 -1.1104 9.36531 8.21745 9.40123
274 2 2.2208 8.06128 12.3871 8.01806
275 2 2.2208 8.07486 6.80574 8.00834
276 2 2.2208 10.9223 6.70715 10.8463
277 2 2.2208 10.8999 12.2926 10.7739
278 1 -1.1104 12.2322 8.08756 12.2786
279 1 -1.1104 12.2177 8.13598 9.3403
280 1 -1.1104 12.3714 5.23251 12.1581
281 1 -1.1104 12.2817 10.8968 12.1357
282 2 2.2208 10.889 9.54321 7.89094
283 1 -1.1104 12.4481 5.42278 9.43577
284 1 -1.1104 12.2811 11.0139 9.23099
285 1 -1.1104 9.53502 8.07205 12.1804
316 2 2.2208 10.9473 9.57859 13.5732
318 2 2.2208 5.24583 20.7531 13.509
315 2 2.2208 8.09778 12.3503 13.5336
53 1 -1.1104 9.59461 16.6611 12.3676
296 1 -1.1104 6.61913 19.3052 12.1895
108 1 -1.1104 0.981305 13.863 6.60228
302 1 -1.1104 1.04718 19.4834 6.56968
136 2 2.2208 10.7402 20.914 8.02161
8870 2 2.2208 13.5091 18.0266 2.25116
319 2 2.2208 5.27373 15.1195 13.5181
83 1 -1.1104 12.4106 13.8607 9.46059
232 2 2.2208 2.37739 15.2452 10.731
233 2 2.2208 2.29893 20.889 10.8993
286 1 -1.1104 3.86718 19.5036 12.1652
287 1 -1.1104 3.84498 13.8568 12.1978
291 1 -1.1104 1.05587 19.5833 9.50084
292 1 -1.1104 1.07263 16.5947 9.29406
293 2 2.2208 5.09389 20.7866 7.90692
294 1 -1.1104 1.09179 13.8114 9.43693
295 2 2.2208 5.31166 15.1631 7.89
298 1 -1.1104 1.05198 19.5282 12.2645
299 1 -1.1104 1.09279 14.1121 12.1558
300 2 2.2208 5.24898 18.0914 10.662
301 1 -1.1104 3.80468 19.4455 9.29451
303 2 2.2208 2.43616 18.0341 7.96743
304 1 -1.1104 3.86936 16.6285 9.30378
305 1 -1.1104 3.98375 13.8097 9.51749
307 1 -1.1104 1.11189 16.841 12.1369
308 1 -1.1104 3.90659 16.7221 12.0513
8940 2 2.2208 13.6024 15.2506 5.20875
82 1 -1.1104 12.2992 19.3834 12.4321
288 1 -1.1104 6.56959 19.4196 9.42212
290 1 -1.1104 6.6746 13.8269 9.33285
333 2 2.2208 -0.271708 3.98139 13.7158
145 1 -1.1104 12.2139 19.4215 6.55909
81 1 -1.1104 12.3375 13.7423 12.4152
27 2 2.2208 10.8947 17.9559 10.8229
51 2 2.2208 8.04125 15.176 10.7962
135 2 2.2208 10.8342 15.1285 8.06183
105 1 -1.1104 12.4735 16.6984 11.9688
30 1 -1.1104 9.28114 19.3442 9.49078
660 2 2.2208 10.7819 20.8067 13.5353
165 1 -1.1104 9.44577 13.7649 12.0929
203 1 -1.1104 9.48164 13.8118 9.45794
231 1 -1.1104 9.36516 19.3837 12.1912
137 1 -1.1104 12.2857 16.5833 9.28935
104 1 -1.1104 12.0767 19.5126 9.52647
202 1 -1.1104 9.55535 16.6072 9.45147
29 2 2.2208 13.686 4.00128 5.03326
9002 2 2.2208 -0.320894 18.0495 5.19188
49 2 2.2208 13.6448 1.22877 2.38561
9382 2 2.2208 -0.257576 15.3313 13.591
661 2 2.2208 13.5368 9.60398 -0.340403
9139 2 2.2208 -0.343355 4.09201 2.34861
329 2 2.2208 5.27705 12.6103 -0.320326
447 2 2.2208 2.37117 12.542 13.7194
317 2 2.2208 2.56971 18.1719 13.5336
9412 2 2.2208 -0.334658 12.4823 -0.371591
322 2 2.2208 8.06364 17.9898 13.6258
328 2 2.2208 10.9226 12.4468 -0.324568
324 2 2.2208 8.17916 15.2399 -0.411374
8471 2 2.2208 2.49535 -4.39461 13.5052
331 2 2.2208 8.06244 9.73337 -0.495365
336 2 2.2208 5.28163 1.25502 16.5428
337 1 -1.1104 0.964721 -2.93308 17.8795
338 1 -1.1104 1.17251 2.75921 17.7777
341 1 -1.1104 1.15347 -2.92346 15.0003
343 1 -1.1104 1.11264 2.63391 14.9972
349 1 -1.1104 1.10987 -0.106037 17.8097
351 2 2.2208 5.18078 -1.52117 19.284
353 1 -1.1104 1.0551 -0.0272814 15.0338
357 1 -1.1104 3.80411 -2.77153 17.7538
358 1 -1.1104 3.85522 2.81571 17.8379
359 2 2.2208 2.51289 1.25094 19.1949
360 1 -1.1104 3.73572 -3.02658 15.0234
362 1 -1.1104 3.96214 2.62055 15.039
364 2 2.2208 2.45333 -1.44147 16.419
365 2 2.2208 2.45599 4.15388 16.3765
366 1 -1.1104 3.91795 -0.113796 17.8053
367 1 -1.1104 3.95481 -0.165682 15.0523
352 2 2.2208 5.30813 3.97976 19.3472
361 1 -1.1104 3.86887 -2.89992 20.7209
363 1 -1.1104 4.0481 2.51723 20.7536
354 1 -1.1104 1.11174 -0.175863 20.5137
342 1 -1.1104 1.15328 -3.03224 20.6602
368 1 -1.1104 3.98291 -0.0823149 20.4849
9237 2 2.2208 -0.241702 4.13501 19.2604
344 1 -1.1104 1.26134 2.70489 20.614
325 2 2.2208 10.8272 18.0163 27.6723
355 1 -1.1104 6.73884 -0.0725261 15.1194
340 1 -1.1104 6.68931 2.71855 17.9165
345 1 -1.1104 6.65141 -2.96457 15.0657
347 1 -1.1104 6.68074 2.6361 14.9575
339 1 -1.1104 6.49246 -3.11136 17.9384
350 1 -1.1104 6.7006 -0.151088 17.8037
379 2 2.2208 10.8362 1.29402 16.6063
380 1 -1.1104 12.3226 -2.97243 18.0451
381 1 -1.1104 12.2202 2.60047 17.958
382 1 -1.1104 12.3483 -2.98753 15.128
384 1 -1.1104 12.3382 2.63689 15.0915
386 1 -1.1104 12.389 -0.295147 17.9981
387 2 2.2208 10.8728 -1.56287 19.3663
388 2 2.2208 10.9015 4.15228 19.3562
389 1 -1.1104 12.3646 -0.113572 15.2051
391 1 -1.1104 9.45221 -2.95408 17.9534
392 1 -1.1104 9.44452 2.79663 17.9535
393 2 2.2208 8.12846 1.2791 19.3004
394 1 -1.1104 9.44557 -2.94145 15.0771
396 1 -1.1104 9.48886 2.80146 15.1284
398 2 2.2208 8.16282 -1.51197 16.5461
399 2 2.2208 8.17691 3.97301 16.525
400 1 -1.1104 9.45391 -0.0386514 17.8021
401 1 -1.1104 9.42827 0.0175826 15.2443
402 1 -1.1104 9.4986 -0.2454 20.6828
385 1 -1.1104 12.2594 2.71124 20.94
397 1 -1.1104 9.56466 2.64422 20.6367
390 1 -1.1104 12.381 -0.0982104 20.6932
383 1 -1.1104 12.3389 -2.94187 20.6829
9197 2 2.2208 -0.246832 1.35857 21.9874
598 2 2.2208 10.7537 20.8392 24.7671
8745 2 2.2208 2.56362 -4.28003 19.2344
633 1 -1.1104 12.1328 13.7621 26.2133
412 2 2.2208 5.28899 6.73356 16.5677
413 2 2.2208 5.22438 12.4106 16.3403
414 1 -1.1104 1.12263 8.24508 17.7624
416 1 -1.1104 1.15941 8.22729 14.8652
420 1 -1.1104 1.03402 5.36289 17.7941
421 1 -1.1104 0.997535 11.1845 17.7982
424 2 2.2208 5.30899 9.67653 19.3342
425 1 -1.1104 1.17654 5.41196 14.9364
427 1 -1.1104 1.0394 10.9708 14.936
433 1 -1.1104 3.89881 8.25657 17.8196
434 2 2.2208 2.52842 6.91737 19.3058
435 2 2.2208 2.44877 12.5118 19.2627
436 1 -1.1104 3.95263 8.0117 15.1302
438 2 2.2208 2.46811 9.51089 16.3662
439 1 -1.1104 3.86329 5.47916 17.945
440 1 -1.1104 3.81606 10.9688 17.9691
441 1 -1.1104 3.9827 5.33421 14.9948
443 1 -1.1104 3.77737 11.0134 15.1128
426 1 -1.1104 1.01013 5.45949 20.7254
444 1 -1.1104 3.87931 11.0935 20.8027
9338 2 2.2208 13.7204 15.3014 16.4281
423 1 -1.1104 6.68936 10.986 17.7519
431 1 -1.1104 6.62228 11.1424 14.9353
432 1 -1.1104 6.67575 11.0602 20.6432
429 1 -1.1104 6.74702 5.43238 15.0553
442 1 -1.1104 3.83038 5.44296 20.6828
437 1 -1.1104 4.0377 8.15405 20.6488
9311 2 2.2208 -0.320648 9.61833 19.2399
415 1 -1.1104 6.70104 8.18295 17.9949
418 1 -1.1104 6.7862 8.32477 15.0012
422 1 -1.1104 6.76352 5.39573 17.8553
448 2 2.2208 10.973 6.88737 16.4669
449 2 2.2208 10.8219 12.3568 16.422
450 1 -1.1104 12.2553 8.20658 17.909
451 1 -1.1104 12.3907 8.27411 15.2101
453 1 -1.1104 12.3681 5.42495 17.7706
454 1 -1.1104 12.2002 11.219 17.7951
455 2 2.2208 10.8402 9.55638 19.2377
456 1 -1.1104 12.3943 5.5402 14.9677
458 1 -1.1104 12.3496 10.9177 15.0531
460 1 -1.1104 9.52593 8.24718 17.8612
461 2 2.2208 8.12566 6.80659 19.2503
462 2 2.2208 7.96676 12.375 19.2383
463 1 -1.1104 9.52147 8.36437 15.0609
465 2 2.2208 8.03123 9.69977 16.38
466 1 -1.1104 9.72879 5.54914 17.8725
467 1 -1.1104 9.50939 11.0575 17.7821
468 1 -1.1104 9.61155 5.49153 15.1085
470 1 -1.1104 9.52387 11.0529 15.0318
471 1 -1.1104 9.4229 11.0444 20.6452
452 1 -1.1104 12.4287 8.23717 20.6785
430 1 -1.1104 6.64827 5.40689 20.6464
419 1 -1.1104 6.66984 8.34411 20.7455
459 1 -1.1104 12.3242 11.1835 20.6506
464 1 -1.1104 9.49572 8.31314 20.6081
469 1 -1.1104 9.39344 5.55538 20.8802
457 1 -1.1104 12.3506 5.48289 20.6837
475 2 2.2208 5.31306 18.025 16.3704
476 1 -1.1104 1.04726 14.027 17.8457
477 1 -1.1104 1.03332 19.6062 17.7695
480 1 -1.1104 0.994023 13.7665 15.1169
482 1 -1.1104 1.09831 19.5254 15.0323
488 1 -1.1104 0.936414 16.815 17.6821
490 2 2.2208 5.27188 15.2267 19.2039
491 2 2.2208 5.20459 20.7381 19.1608
492 1 -1.1104 1.03032 16.7759 14.9289
496 1 -1.1104 3.87791 13.713 17.863
497 1 -1.1104 3.86979 19.3861 17.783
498 2 2.2208 2.43767 18.0393 19.1791
499 1 -1.1104 3.66569 13.8579 15.0282
501 1 -1.1104 3.9098 19.5902 14.8643
503 2 2.2208 2.36099 15.3796 16.3959
504 2 2.2208 2.37018 20.9582 16.3722
505 1 -1.1104 3.91893 16.6377 17.7695
506 1 -1.1104 3.85038 16.6532 14.8385
507 1 -1.1104 3.86235 16.5665 20.5835
483 1 -1.1104 0.905816 19.549 20.4674
493 1 -1.1104 0.910046 16.684 20.4402
495 1 -1.1104 6.77675 16.4884 20.6018
502 1 -1.1104 3.8392 19.3685 20.5481
484 1 -1.1104 6.61924 13.7508 15.0729
481 1 -1.1104 0.927169 13.917 20.6278
500 1 -1.1104 3.86746 13.9395 20.7354
569 2 2.2208 2.53224 -4.34755 24.8019
528 1 -1.1104 9.5601 19.3778 20.6048
494 1 -1.1104 6.754 16.4715 14.8008
478 1 -1.1104 6.72531 13.8321 17.8561
479 1 -1.1104 6.73299 19.3937 17.7383
485 1 -1.1104 6.67571 13.7586 20.7259
533 1 -1.1104 9.51637 16.7141 20.6799
486 1 -1.1104 6.64059 19.3831 15.0209
489 1 -1.1104 6.64852 16.5565 17.6031
511 2 2.2208 10.8688 17.9501 16.434
512 1 -1.1104 12.3312 14.0325 18.0023
513 1 -1.1104 12.3577 19.5235 18.2872
514 1 -1.1104 12.2894 13.7483 15.1947
516 1 -1.1104 12.4168 19.2645 15.3731
517 1 -1.1104 12.2544 16.5823 17.8103
518 2 2.2208 10.8819 15.4162 19.2363
519 2 2.2208 10.8066 21.1005 19.171
520 1 -1.1104 12.1153 16.5526 14.9648
522 1 -1.1104 9.57794 13.753 17.8147
523 1 -1.1104 9.51721 19.3807 17.9861
524 2 2.2208 8.07479 17.9968 19.3072
525 1 -1.1104 9.41001 13.668 15.0318
527 1 -1.1104 9.52783 19.4436 15.0514
529 2 2.2208 8.13639 15.1583 16.4874
530 2 2.2208 8.10938 20.8202 16.4855
531 1 -1.1104 9.5247 16.546 17.7783
532 1 -1.1104 9.40201 16.4383 15.0692
526 1 -1.1104 9.41624 13.9098 20.5975
515 1 -1.1104 12.2107 14.1196 20.8034
521 1 -1.1104 12.4062 17.0344 20.7121
487 1 -1.1104 6.58083 19.4248 20.612
9233 2 2.2208 -0.356261 15.2334 24.8532
9410 2 2.2208 -0.362268 9.54988 24.9192
563 2 2.2208 2.48368 -1.59238 27.6219
562 2 2.2208 5.33312 1.18121 27.6268
538 2 2.2208 5.30202 1.23794 22.1168
539 1 -1.1104 1.0215 -2.96078 23.5534
540 1 -1.1104 1.23789 2.61022 23.4482
543 1 -1.1104 0.995551 -2.90222 26.463
544 1 -1.1104 1.22561 2.69576 26.2431
547 1 -1.1104 0.936895 -0.150579 23.3664
549 2 2.2208 5.308 -1.60401 24.9174
550 2 2.2208 5.39295 3.9726 24.9227
551 1 -1.1104 1.05796 -0.0872616 26.2746
553 1 -1.1104 3.95476 -2.99414 23.5225
554 1 -1.1104 4.05379 2.66991 23.4772
555 2 2.2208 2.43582 1.24871 24.8811
556 1 -1.1104 3.81489 -2.86632 26.2566
557 1 -1.1104 3.98804 2.60981 26.3145
558 2 2.2208 2.47104 -1.60051 22.0678
559 2 2.2208 2.55356 4.07895 21.9731
560 1 -1.1104 3.94719 -0.215243 23.4132
561 1 -1.1104 3.89088 -0.136864 26.3048
564 2 2.2208 2.45079 3.98234 27.7704
566 2 2.2208 8.10339 20.8099 21.9794
370 2 2.2208 10.9714 -4.3769 16.4592
473 1 -1.1104 6.75207 16.6986 23.4169
346 1 -1.1104 6.61437 -3.04718 20.6371
348 1 -1.1104 6.83372 2.60813 20.7811
356 1 -1.1104 6.78697 -0.128435 20.6279
541 1 -1.1104 6.79295 -3.1771 23.5472
377 2 2.2208 5.37013 -4.38222 22.1243
545 1 -1.1104 6.56747 -3.16299 26.3812
395 1 -1.1104 9.39093 -3.09492 20.6678
542 1 -1.1104 6.7983 2.58823 23.6032
548 1 -1.1104 6.7642 -0.357575 23.5395
546 1 -1.1104 6.76791 2.66713 26.2246
552 1 -1.1104 6.67502 -0.253986 26.2601
574 2 2.2208 10.8965 1.24192 22.107
575 1 -1.1104 12.5002 -2.91663 23.4664
576 1 -1.1104 12.3401 2.71649 23.5451
577 1 -1.1104 12.3049 -3.00081 26.2286
578 1 -1.1104 12.4723 2.75154 26.2966
579 1 -1.1104 12.4763 -0.107229 23.3736
580 2 2.2208 10.9947 -1.70931 24.7495
581 2 2.2208 11.0839 3.97629 24.9466
582 1 -1.1104 12.2852 -0.164315 26.1922
583 1 -1.1104 9.59044 -3.06025 23.3866
584 1 -1.1104 9.52595 2.60829 23.4779
585 2 2.2208 8.11892 1.11824 24.9329
586 1 -1.1104 9.44034 -2.98122 26.1329
587 1 -1.1104 9.75228 2.46624 26.1646
588 2 2.2208 8.0222 -1.70532 22.18
589 2 2.2208 8.09618 3.9979 22.0969
590 1 -1.1104 9.53381 -0.300789 23.5323
591 1 -1.1104 9.55996 -0.207228 26.2555
9273 2 2.2208 -0.411658 -1.61961 19.1555
9312 2 2.2208 -0.312638 6.78337 16.3931
9480 2 2.2208 -0.319326 6.81689 22.1604
593 2 2.2208 8.03667 -1.60659 27.6797
9149 2 2.2208 13.6201 15.1073 27.5886
628 2 2.2208 2.34444 9.68673 27.6828
595 1 -1.1104 9.34724 19.5162 23.463
627 2 2.2208 5.26981 6.87339 27.7486
417 1 -1.1104 1.15428 8.29426 20.6977
428 1 -1.1104 0.989638 11.0791 20.5396
594 2 2.2208 8.04763 4.02501 27.7784
405 1 -1.1104 6.70391 19.3239 26.1565
603 2 2.2208 5.39448 6.8394 22.0558
604 2 2.2208 5.20742 12.5258 22.2666
605 1 -1.1104 0.979242 8.40113 23.5022
607 1 -1.1104 1.20566 8.15598 26.282
609 1 -1.1104 1.31129 5.54873 23.5275
610 1 -1.1104 1.02918 11.1652 23.4428
613 2 2.2208 5.29307 9.73187 24.9578
614 1 -1.1104 0.993909 5.43892 26.3045
615 1 -1.1104 1.05977 11.0812 26.194
618 1 -1.1104 3.91433 8.25706 23.6228
619 2 2.2208 2.55952 6.82209 24.8721
620 2 2.2208 2.47933 12.5065 25.0133
621 1 -1.1104 3.88596 8.36075 26.3436
622 2 2.2208 2.4744 9.7735 22.2404
623 1 -1.1104 3.9406 5.46034 23.4183
624 1 -1.1104 3.92159 11.1414 23.6149
625 1 -1.1104 3.86434 5.47081 26.3567
626 1 -1.1104 3.83071 11.2096 26.277
608 1 -1.1104 6.51891 8.23782 26.0071
311 2 2.2208 5.30759 18.0824 27.5281
573 2 2.2208 7.94605 20.6795 27.7578
612 1 -1.1104 6.77885 11.0302 23.5244
617 1 -1.1104 6.70577 11.1972 26.2799
616 1 -1.1104 6.70269 5.50384 26.4421
606 1 -1.1104 6.68309 8.27365 23.3851
611 1 -1.1104 6.68561 5.45465 23.5567
634 1 -1.1104 9.57946 11.0921 26.3718
635 1 -1.1104 9.59284 5.32953 26.4431
636 1 -1.1104 9.5421 10.9657 23.4849
637 1 -1.1104 9.47449 5.40317 23.5738
638 2 2.2208 8.07363 9.66643 22.0915
639 1 -1.1104 9.31761 8.31227 26.2448
640 2 2.2208 8.10162 12.5118 24.9257
641 2 2.2208 8.01743 6.84012 24.9259
642 2 2.2208 10.9548 6.89093 22.126
643 2 2.2208 10.9287 12.5933 21.8635
644 1 -1.1104 12.3588 8.36332 23.3854
645 1 -1.1104 12.2124 8.1147 26.1675
646 1 -1.1104 12.2446 5.4587 23.5342
647 1 -1.1104 12.2705 11.2352 23.3905
648 2 2.2208 10.9093 9.69132 24.9282
649 1 -1.1104 12.319 5.43279 26.3202
650 1 -1.1104 12.25 10.9246 26.165
651 1 -1.1104 9.57099 8.17505 23.4464
601 2 2.2208 10.8147 15.1055 24.8237
571 1 -1.1104 6.5504 13.9067 23.5469
537 2 2.2208 13.5388 17.9606 24.7281
334 2 2.2208 2.43912 15.3402 27.6173
312 2 2.2208 2.32543 20.8607 27.4466
374 2 2.2208 2.36703 15.3011 21.9597
410 2 2.2208 2.28908 20.7974 21.9883
411 1 -1.1104 3.76479 16.672 23.3582
472 1 -1.1104 0.973277 16.6706 23.3964
508 1 -1.1104 3.84756 14.0356 26.2837
509 1 -1.1104 3.91368 16.844 26.296
510 2 2.2208 2.3369 17.9946 24.806
534 1 -1.1104 3.81203 19.6125 26.2921
535 2 2.2208 5.1734 17.8957 21.9615
536 1 -1.1104 1.02878 14.0483 23.5967
570 1 -1.1104 0.786679 19.3635 23.2901
572 2 2.2208 5.31676 15.3335 24.9521
592 2 2.2208 5.25258 20.7297 24.7322
600 1 -1.1104 3.69945 19.3387 23.3653
602 1 -1.1104 1.10226 13.8492 26.4127
629 1 -1.1104 0.988917 16.7053 26.2798
652 1 -1.1104 0.905836 19.2955 26.0941
654 1 -1.1104 3.80778 13.9236 23.5348
655 1 -1.1104 12.4827 19.1478 26.3863
597 1 -1.1104 12.2863 16.4951 26.14
632 1 -1.1104 12.1226 19.2184 23.7222
565 2 2.2208 8.05422 15.1599 22.156
9341 2 2.2208 13.6505 20.7765 16.4784
631 1 -1.1104 12.331 13.8728 23.3818
656 1 -1.1104 12.3009 16.4928 23.407
599 1 -1.1104 6.57434 19.3873 23.3228
653 1 -1.1104 6.76623 16.7293 26.1592
630 2 2.2208 10.9335 17.9511 22.2145
404 2 2.2208 8.01188 18.0788 24.6796
373 1 -1.1104 6.62758 13.9104 26.3026
406 1 -1.1104 9.45283 13.7886 26.3535
408 1 -1.1104 9.51553 19.2658 26.2779
596 1 -1.1104 9.50911 13.7311 23.3329
567 1 -1.1104 9.53603 16.6092 23.3864
568 1 -1.1104 9.55414 16.5447 26.1417
407 2 2.2208 13.6718 -1.61512 16.4992
376 2 2.2208 5.20415 -1.63804 13.7889
323 2 2.2208 13.6236 21.0041 27.6001
662 2 2.2208 10.9371 1.09477 27.6301
8462 2 2.2208 10.9412 -4.33655 27.5803
314 2 2.2208 10.9226 3.99708 13.7303
659 2 2.2208 10.7683 -1.4069 13.7477
330 2 2.2208 10.7851 6.78196 27.6198
474 2 2.2208 8.19035 6.80695 13.6293
9199 2 2.2208 -0.334934 1.17554 27.6374
663 2 2.2208 5.12731 23.6825 5.22769
664 2 2.2208 5.14128 29.0673 5.25028
665 1 -1.1104 0.96606 24.9063 0.955967
666 1 -1.1104 1.09081 25.1007 3.74866
667 1 -1.1104 0.903512 22.1398 0.777177
668 1 -1.1104 1.02006 27.9076 1.02248
669 2 2.2208 5.08291 26.2724 2.37724
670 1 -1.1104 1.02698 22.3018 3.63964
671 1 -1.1104 1.04481 27.8292 3.83009
672 1 -1.1104 3.82638 25.0278 0.869041
673 2 2.2208 2.43491 23.5907 2.35768
674 2 2.2208 2.48885 29.2492 2.40714
675 1 -1.1104 3.80537 24.968 3.86309
676 2 2.2208 2.26789 26.4041 5.151
677 1 -1.1104 3.81863 22.247 1.01776
678 1 -1.1104 3.74967 27.8151 0.824678
679 1 -1.1104 3.74997 22.2683 3.81036
680 1 -1.1104 3.86117 27.6506 3.65983
809 1 -1.1104 3.65014 22.1877 6.48725
810 1 -1.1104 3.58744 27.7518 6.49945
805 1 -1.1104 0.940694 27.7776 6.55605
1341 1 -1.1104 9.44647 47.4018 1.00218
685 1 -1.1104 6.64518 24.9921 3.64439
687 1 -1.1104 6.51478 27.6997 0.959921
807 1 -1.1104 6.35821 27.8527 6.80329
977 2 2.2208 5.07862 45.9317 -0.338121
808 1 -1.1104 3.79551 24.9885 6.56272
804 1 -1.1104 0.852199 22.241 6.45188
708 1 -1.1104 12.258 41.8234 9.43702
686 1 -1.1104 6.6656 22.1373 1.10101
689 1 -1.1104 6.57186 27.6489 3.86157
684 1 -1.1104 6.68402 24.9177 0.924695
688 1 -1.1104 6.6605 22.2011 3.77799
690 2 2.2208 10.6475 23.6089 5.16421
691 2 2.2208 10.6724 29.1366 5.11306
692 1 -1.1104 12.2524 25.0404 1.11631
693 1 -1.1104 12.2568 24.9923 3.8402
694 1 -1.1104 12.159 22.2403 0.942362
695 1 -1.1104 12.1613 27.9015 1.04026
696 2 2.2208 10.7553 26.3351 2.39746
697 1 -1.1104 12.1101 22.2455 3.70408
698 1 -1.1104 12.1548 27.7208 3.81158
699 1 -1.1104 9.33227 24.9416 0.895536
700 2 2.2208 7.98802 23.5368 2.45747
701 2 2.2208 7.89029 29.15 2.42524
702 1 -1.1104 9.40318 25.0144 3.66042
703 2 2.2208 7.97933 26.292 5.14918
704 1 -1.1104 9.45941 22.0996 0.986056
705 1 -1.1104 9.38502 27.7693 0.977657
706 1 -1.1104 9.37001 22.1736 3.82499
707 1 -1.1104 9.26509 27.6441 3.84489
891 1 -1.1104 11.9505 27.6398 6.43648
803 1 -1.1104 6.41092 25.064 6.55691
838 1 -1.1104 9.41202 22.3206 6.60859
806 1 -1.1104 6.63225 22.2351 6.69278
837 1 -1.1104 9.19713 25.0956 6.569
839 1 -1.1104 9.27059 27.7921 6.63663
955 2 2.2208 8.0493 43.2552 10.8855
1486 1 -1.1104 0.795528 47.3828 12.3293
712 2 2.2208 5.3108 34.8811 5.21632
713 1 -1.1104 1.02876 30.6557 1.05525
714 1 -1.1104 1.00691 36.3716 0.936399
716 1 -1.1104 1.16055 30.6835 3.76357
717 1 -1.1104 0.952723 36.4155 3.79719
719 1 -1.1104 0.942993 33.408 0.860693
720 2 2.2208 5.19292 32.0531 2.3731
721 2 2.2208 5.27147 37.5338 2.5075
722 1 -1.1104 0.967801 33.5692 3.67746
724 1 -1.1104 4.06761 30.4905 1.00047
725 1 -1.1104 3.98437 36.1254 1.08223
726 2 2.2208 2.418 34.8811 2.39154
727 1 -1.1104 3.86847 30.6262 3.77447
728 1 -1.1104 3.81797 36.209 3.84945
729 2 2.2208 2.43266 32.1061 5.24122
730 2 2.2208 2.36291 37.6749 5.23511
731 1 -1.1104 3.76323 33.233 0.829552
732 1 -1.1104 3.88498 33.4005 3.73652
863 1 -1.1104 3.87437 30.6459 6.62098
864 1 -1.1104 3.74716 36.3407 6.66391
718 1 -1.1104 6.78216 36.1918 3.9549
861 1 -1.1104 0.980997 33.4612 6.61026
857 1 -1.1104 1.05672 30.5848 6.64887
865 1 -1.1104 3.81446 33.5834 6.56043
736 1 -1.1104 6.53364 30.5704 3.85989
737 1 -1.1104 6.62441 33.5011 0.967611
735 1 -1.1104 6.66978 30.6396 1.00289
715 1 -1.1104 6.60984 36.2408 1.1285
962 2 2.2208 10.8224 40.4213 -0.290728
862 1 -1.1104 6.57945 33.4424 6.74035
858 1 -1.1104 0.978277 36.2344 6.51843
860 1 -1.1104 6.54399 36.0742 6.72049
1528 1 -1.1104 9.3752 47.431 12.1766
723 1 -1.1104 6.72078 33.4739 3.8547
738 2 2.2208 10.7409 34.8875 5.37449
739 1 -1.1104 12.1084 30.6476 0.921945
740 1 -1.1104 12.2524 36.129 0.99173
741 1 -1.1104 12.1751 35.4831 3.85093
742 1 -1.1104 12.1765 33.3478 1.36308
743 2 2.2208 10.6575 31.9442 2.49387
744 2 2.2208 10.7483 37.6229 2.46066
745 1 -1.1104 9.41694 30.5239 1.03396
746 1 -1.1104 9.35654 36.2083 1.10296
747 2 2.2208 8.1028 34.772 2.49397
748 1 -1.1104 9.22151 30.4892 3.94541
749 1 -1.1104 9.4162 36.2043 3.90701
750 2 2.2208 8.0568 32.0168 5.28914
751 2 2.2208 8.09024 37.6176 5.20953
752 1 -1.1104 9.32305 33.3597 0.961331