LAMMPS (29 Oct 2020)
OMP_NUM_THREADS environment is not set. Defaulting to 1 thread. (../comm.cpp:94)
  using 1 OpenMP thread(s) per MPI task
#---------------------------------------
#
# This script is used to calculate the thermal conuctivity of UO2 using Muller-Plathe method
# By Ziqiang Wang on 03/18/2022 on Jilin university
#
#---------------------------------------

variable     Nevery    equal   50
variable     T         equal   1500

clear
OMP_NUM_THREADS environment is not set. Defaulting to 1 thread. (../comm.cpp:94)
  using 1 OpenMP thread(s) per MPI task
units          metal
boundary       p p p
atom_style     full

read_data vac_0_relaxed.dat
Reading data file ...
  orthogonal box = (-0.48219989 -9.7424330 -0.49396027) to (27.822200 556.54243 27.833960)
  1 by 26 by 2 MPI processor grid
  reading atoms ...
  30000 atoms
  reading velocities ...
  30000 velocities
Finding 1-2 1-3 1-4 neighbors ...
  special bond factors lj:    0.0      0.0      0.0     
  special bond factors coul:  0.0      0.0      0.0     
     0 = max # of 1-2 neighbors
     0 = max # of 1-3 neighbors
     0 = max # of 1-4 neighbors
     1 = max # of special neighbors
  special bonds CPU = 0.004 seconds
  read_data CPU = 0.084 seconds

set           type     1    charge     -1.1104
Setting atom values ...
  20000 settings made for charge
set           type     2    charge      2.2208
Setting atom values ...
  10000 settings made for charge

kspace_style    pppm   1.0e-05
pair_style      hybrid/overlay  coul/long  11.0  eam/alloy
pair_coeff      * * coul/long
pair_coeff      * * eam/alloy CeThUNpPuAmCmO.eam.alloy O Th Th O
newton          on
neighbor        0.3 bin
neigh_modify    delay 0 check yes every 1

#The first equilation
velocity        all create $T 10001 mom yes rot yes dist gaussian
velocity        all create 1500 10001 mom yes rot yes dist gaussian
fix             nvt  all  nvt  temp  $T $T  0.1
fix             nvt  all  nvt  temp  1500 $T  0.1
fix             nvt  all  nvt  temp  1500 1500  0.1

run             100000
PPPM initialization ...
  using 12-bit tables for long-range coulomb (../kspace.cpp:328)
  G vector (1/distance) = 0.29729502
  grid = 40 375 40
  stencil order = 5
  estimated absolute RMS force accuracy = 0.00017564525
  estimated relative force accuracy = 1.2197887e-05
  using single precision MKL FFT
  3d grid and FFT values/proc = 22500 12000
Neighbor list info ...
  update every 1 steps, delay 0 steps, check yes
  max neighbors/atom: 2000, page size: 100000
  master list distance cutoff = 11.3
  ghost atom cutoff = 11.3
  binsize = 5.65, bins = 6 101 6
  2 neighbor lists, perpetual/occasional/extra = 2 0 0
  (1) pair coul/long, perpetual
      attributes: half, newton on
      pair build: half/bin/newton
      stencil: half/bin/3d/newton
      bin: standard
  (2) pair eam/alloy, perpetual, copy from (1)
      attributes: half, newton on
      pair build: copy
      stencil: none
      bin: none
Per MPI rank memory allocation (min/avg/max) = 9.482 | 9.519 | 9.555 Mbytes
Step Temp E_pair E_mol TotEng Press 
       0         1500   -388577.81            0    -382761.3   -820.51339 
  100000    1500.1097   -388632.99            0   -382816.05   -1864.1462 
Loop time of 1110.42 on 52 procs for 100000 steps with 30000 atoms

Performance: 7.781 ns/day, 3.084 hours/ns, 90.056 timesteps/s
99.8% CPU use with 52 MPI tasks x 1 OpenMP threads

MPI task timing breakdown:
Section |  min time  |  avg time  |  max time  |%varavg| %total
---------------------------------------------------------------
Pair    | 702.52     | 722.53     | 739.91     |  33.7 | 65.07
Bond    | 0.010446   | 0.0139     | 0.01808    |   1.5 |  0.00
Kspace  | 256.57     | 273.38     | 295.76     |  61.0 | 24.62
Neigh   | 70.325     | 75.207     | 78.748     |  24.9 |  6.77
Comm    | 27.578     | 30.464     | 33.125     |  27.3 |  2.74
Output  | 6.0061e-05 | 6.638e-05  | 0.00031562 |   0.0 |  0.00
Modify  | 2.7842     | 5.8302     | 10.331     |  93.8 |  0.53
Other   |            | 2.994      |            |       |  0.27

Nlocal:        576.923 ave         599 max         549 min
Histogram: 8 2 1 1 5 11 3 7 5 9
Nghost:        4900.69 ave        4983 max        4791 min
Histogram: 5 4 2 3 4 12 4 3 6 9
Neighs:       116059.0 ave      124703 max      106827 min
Histogram: 4 1 7 10 5 6 2 6 7 4

Total # of neighbors = 6035063
Ave neighs/atom = 201.16877
Ave special neighs/atom = 0.0000000
Neighbor list builds = 25069
Dangerous builds = 0
unfix           nvt
reset_timestep  0

# the second run
fix             1 all nve

group           oxygen type 1
20000 atoms in group oxygen
fix             2 oxygen thermal/conductivity ${Nevery} y 20
fix             2 oxygen thermal/conductivity 50 y 20

compute         ke all ke/atom
variable        temp atom c_ke/1.5
compute         layers all chunk/atom bin/1d y lower 0.05 units reduced
fix             3      all ave/chunk  2000 50 100000 layers v_temp file profile_${T}K.mp
fix             3      all ave/chunk  2000 50 100000 layers v_temp file profile_1500K.mp

variable        Tdiff    equal     f_3[11][3]-f_3[1][3]
variable        deltaT   equal     v_Tdiff*1.5/0.0001292

timestep        0.001
thermo_style    custom step f_2 temp v_Tdiff v_deltaT
thermo          100000

run             1500000
PPPM initialization ...
  using 12-bit tables for long-range coulomb (../kspace.cpp:328)
  G vector (1/distance) = 0.29729502
  grid = 40 375 40
  stencil order = 5
  estimated absolute RMS force accuracy = 0.00017564525
  estimated relative force accuracy = 1.2197887e-05
  using single precision MKL FFT
  3d grid and FFT values/proc = 22500 12000
Per MPI rank memory allocation (min/avg/max) = 9.732 | 9.770 | 9.806 Mbytes
Step f_2 Temp v_Tdiff v_deltaT 
       0            0    1500.1097            0            0 
  100000    1679.5562    1495.2224  0.067575542    784.54577 
  200000    3128.0677     1493.885   0.10018314    1163.1169 
  300000    4542.5682    1491.4094   0.10430353    1210.9543 
  400000    5957.3549    1483.2376    0.1054287    1224.0175 
  500000    7358.5642     1490.085   0.10731827    1245.9551 
  600000    8782.5234    1494.4815   0.10407411    1208.2907 
  700000    10188.538    1494.1692    0.1049551     1218.519 
  800000    11602.166    1489.9521   0.10533352    1222.9124 
  900000    13020.198    1485.4834   0.10560918    1226.1128 
 1000000    14433.293    1491.5527   0.10532398    1222.8016 
 1100000     15857.32    1487.4119    0.1046692    1215.1997 
 1200000    17260.104    1491.4449   0.10627368    1233.8276 
 1300000    18664.417    1483.0043   0.10516942    1221.0072 
 1400000    20064.476    1484.6916   0.10548814    1224.7075 
 1500000    21473.043     1491.043   0.10652396    1236.7333 
Loop time of 16480.8 on 52 procs for 1500000 steps with 30000 atoms

Performance: 7.864 ns/day, 3.052 hours/ns, 91.015 timesteps/s
99.8% CPU use with 52 MPI tasks x 1 OpenMP threads

MPI task timing breakdown:
Section |  min time  |  avg time  |  max time  |%varavg| %total
---------------------------------------------------------------
Pair    | 10395      | 10661      | 10936      | 135.0 | 64.69
Bond    | 0.15063    | 0.2065     | 0.2626     |   5.4 |  0.00
Kspace  | 3819.4     | 4095.9     | 4406.4     | 252.0 | 24.85
Neigh   | 1084.2     | 1158.6     | 1231.8     |  95.3 |  7.03
Comm    | 399.35     | 458.02     | 495.11     | 129.4 |  2.78
Output  | 0.001777   | 0.0018601  | 0.0038692  |   0.7 |  0.00
Modify  | 13.959     | 20.128     | 28.186     |  96.3 |  0.12
Other   |            | 87.27      |            |       |  0.53

Nlocal:        576.923 ave         609 max         543 min
Histogram: 1 5 0 4 9 18 8 3 2 2
Nghost:        4892.21 ave        4992 max        4778 min
Histogram: 3 6 4 5 5 5 7 8 6 3
Neighs:       115983.0 ave      124246 max      105998 min
Histogram: 2 0 8 8 8 3 3 10 7 3

Total # of neighbors = 6031103
Ave neighs/atom = 201.03677
Ave special neighs/atom = 0.0000000
Neighbor list builds = 390194
Dangerous builds = 0

Total wall time: 4:53:11
