LAMMPS (29 Oct 2020)
OMP_NUM_THREADS environment is not set. Defaulting to 1 thread. (../comm.cpp:94)
  using 1 OpenMP thread(s) per MPI task
OMP_NUM_THREADS environment is not set. Defaulting to 1 thread. (../comm.cpp:94)
  using 1 OpenMP thread(s) per MPI task
Reading data file ...
  triclinic box = (-0.083202556 -1.0368296 -0.092329646) to (27.977203 335.76483 27.986330) with tilt (0.0000000 0.0000000 0.0000000)
  2 by 13 by 2 MPI processor grid
  reading atoms ...
  18000 atoms
  reading velocities ...
  18000 velocities
Finding 1-2 1-3 1-4 neighbors ...
  special bond factors lj:    0.0      0.0      0.0     
  special bond factors coul:  0.0      0.0      0.0     
     0 = max # of 1-2 neighbors
     0 = max # of 1-3 neighbors
     0 = max # of 1-4 neighbors
     1 = max # of special neighbors
  special bonds CPU = 0.004 seconds
  read_data CPU = 0.057 seconds
Setting atom values ...
  11820 settings made for charge
Setting atom values ...
  6000 settings made for charge
PPPM initialization ...
  using 12-bit tables for long-range coulomb (../kspace.cpp:328)
  G vector (1/distance) = 0.29882385
  grid = 40 240 40
  stencil order = 5
  estimated absolute RMS force accuracy = 0.00015780591
  estimated relative force accuracy = 1.0959014e-05
  using single precision MKL FFT
  3d grid and FFT values/proc = 15000 7600
Neighbor list info ...
  update every 1 steps, delay 0 steps, check yes
  max neighbors/atom: 2000, page size: 100000
  master list distance cutoff = 11.3
  ghost atom cutoff = 11.3
  binsize = 5.65, bins = 5 60 5
  2 neighbor lists, perpetual/occasional/extra = 2 0 0
  (1) pair coul/long, perpetual
      attributes: half, newton on
      pair build: half/bin/newton/tri
      stencil: half/bin/3d/newton/tri
      bin: standard
  (2) pair eam/alloy, perpetual, copy from (1)
      attributes: half, newton on
      pair build: copy
      stencil: none
      bin: none
Setting up Verlet run ...
  Unit style    : metal
  Current step  : 0
  Time step     : 0.001
Per MPI rank memory allocation (min/avg/max) = 8.327 | 8.357 | 8.381 Mbytes
Step Temp E_pair E_mol TotEng Press 
       0          600   -235323.97            0   -233928.04   -850.18541 
  100000    603.85497   -235373.48            0   -233968.58   -1451.8791 
Loop time of 678.269 on 52 procs for 100000 steps with 18000 atoms

Performance: 12.738 ns/day, 1.884 hours/ns, 147.434 timesteps/s
99.8% CPU use with 52 MPI tasks x 1 OpenMP threads

MPI task timing breakdown:
Section |  min time  |  avg time  |  max time  |%varavg| %total
---------------------------------------------------------------
Pair    | 457.92     | 465.31     | 472.22     |  17.0 | 68.60
Bond    | 0.0070261  | 0.010512   | 0.016759   |   1.9 |  0.00
Kspace  | 131.18     | 141.27     | 152.03     |  43.4 | 20.83
Neigh   | 47.991     | 51.283     | 54.264     |  21.5 |  7.56
Comm    | 14.415     | 15.476     | 17.265     |  18.1 |  2.28
Output  | 6.4478e-05 | 7.0068e-05 | 0.00027817 |   0.0 |  0.00
Modify  | 1.8343     | 3.6408     | 5.6765     |  60.8 |  0.54
Other   |            | 1.28       |            |       |  0.19

Nlocal:        346.154 ave         368 max         325 min
Histogram: 1 3 6 11 8 6 7 4 2 4
Nghost:        4144.17 ave        4251 max        4037 min
Histogram: 3 4 7 6 5 7 8 4 6 2
Neighs:        69927.7 ave       74437 max       64936 min
Histogram: 1 2 6 9 7 8 7 4 5 3

Total # of neighbors = 3636239
Ave neighs/atom = 202.01328
Ave special neighs/atom = 0.0000000
Neighbor list builds = 16238
Dangerous builds = 0
11820 atoms in group oxygen
PPPM initialization ...
  using 12-bit tables for long-range coulomb (../kspace.cpp:328)
  G vector (1/distance) = 0.29882385
  grid = 40 240 40
  stencil order = 5
  estimated absolute RMS force accuracy = 0.00015780591
  estimated relative force accuracy = 1.0959014e-05
  using single precision MKL FFT
  3d grid and FFT values/proc = 15000 7600
Setting up Verlet run ...
  Unit style    : metal
  Current step  : 0
  Time step     : 0.001
Per MPI rank memory allocation (min/avg/max) = 8.578 | 8.608 | 8.631 Mbytes
Step f_2 Temp v_Tdiff v_deltaT 
       0            0    603.85497            0            0 
  100000    693.48137    600.50385   0.01751338    203.32872 
  200000    1369.1048     609.3833  0.019441284     225.7115 
  300000     2049.639    606.23191  0.018845825    218.79828 
  400000     2734.194    611.14385   0.01941356    225.38963 
  500000    3422.7855    604.99176  0.018183586    211.10974 
  600000    4106.5257    610.22575  0.019017306    220.78915 
  700000    4793.4733    607.49244  0.018824039    218.54535 
  800000    5480.4561    610.08534  0.019140296    222.21705 
  900000    6169.9071    609.54131  0.018917086    219.62561 
 1000000    6855.4715    607.55141  0.018849578    218.84185 
Loop time of 6721.64 on 52 procs for 1000000 steps with 18000 atoms

Performance: 12.854 ns/day, 1.867 hours/ns, 148.773 timesteps/s
99.8% CPU use with 52 MPI tasks x 1 OpenMP threads

MPI task timing breakdown:
Section |  min time  |  avg time  |  max time  |%varavg| %total
---------------------------------------------------------------
Pair    | 4517.7     | 4590.4     | 4680.9     |  64.0 | 68.29
Bond    | 0.07289    | 0.10539    | 0.15576    |   6.2 |  0.00
Kspace  | 1303.8     | 1412.2     | 1506.9     | 153.0 | 21.01
Neigh   | 494.18     | 525.22     | 552.13     |  72.1 |  7.81
Comm    | 143.56     | 154.11     | 170.14     |  57.6 |  2.29
Output  | 0.001033   | 0.0010969  | 0.0024017  |   0.6 |  0.00
Modify  | 5.3539     | 5.9539     | 6.3911     |  11.3 |  0.09
Other   |            | 33.59      |            |       |  0.50

Nlocal:        346.154 ave         367 max         329 min
Histogram: 3 4 16 6 1 4 3 6 7 2
Nghost:        4173.23 ave        4281 max        4082 min
Histogram: 5 6 5 5 12 5 1 2 8 3
Neighs:        69920.5 ave       73621 max       66274 min
Histogram: 4 3 10 9 2 5 2 6 3 8

Total # of neighbors = 3635866
Ave neighs/atom = 201.99256
Ave special neighs/atom = 0.0000000
Neighbor list builds = 166273
Dangerous builds = 0
Total wall time: 2:03:20
