LAMMPS (29 Oct 2020)
OMP_NUM_THREADS environment is not set. Defaulting to 1 thread. (../comm.cpp:94)
  using 1 OpenMP thread(s) per MPI task
OMP_NUM_THREADS environment is not set. Defaulting to 1 thread. (../comm.cpp:94)
  using 1 OpenMP thread(s) per MPI task
Reading data file ...
  orthogonal box = (-0.4437009 -5.2519249 -0.44055416) to (27.783701 333.33192 27.780554)
  2 by 13 by 2 MPI processor grid
  reading atoms ...
  17730 atoms
  reading velocities ...
  17730 velocities
Finding 1-2 1-3 1-4 neighbors ...
  special bond factors lj:    0.0      0.0      0.0     
  special bond factors coul:  0.0      0.0      0.0     
     0 = max # of 1-2 neighbors
     0 = max # of 1-3 neighbors
     0 = max # of 1-4 neighbors
     1 = max # of special neighbors
  special bonds CPU = 0.004 seconds
  read_data CPU = 0.076 seconds
Setting atom values ...
  11820 settings made for charge
Setting atom values ...
  5910 settings made for charge
PPPM initialization ...
  using 12-bit tables for long-range coulomb (../kspace.cpp:328)
  G vector (1/distance) = 0.29850448
  grid = 40 240 40
  stencil order = 5
  estimated absolute RMS force accuracy = 0.00015913128
  estimated relative force accuracy = 1.1051056e-05
  using single precision MKL FFT
  3d grid and FFT values/proc = 15000 7600
Neighbor list info ...
  update every 1 steps, delay 0 steps, check yes
  max neighbors/atom: 2000, page size: 100000
  master list distance cutoff = 11.3
  ghost atom cutoff = 11.3
  binsize = 5.65, bins = 5 60 5
  2 neighbor lists, perpetual/occasional/extra = 2 0 0
  (1) pair coul/long, perpetual
      attributes: half, newton on
      pair build: half/bin/newton
      stencil: half/bin/3d/newton
      bin: standard
  (2) pair eam/alloy, perpetual, copy from (1)
      attributes: half, newton on
      pair build: copy
      stencil: none
      bin: none
Setting up Verlet run ...
  Unit style    : metal
  Current step  : 0
  Time step     : 0.001
Per MPI rank memory allocation (min/avg/max) = 8.143 | 8.169 | 8.188 Mbytes
Step Temp E_pair E_mol TotEng Press 
       0         1200   -230202.27            0   -227452.28   -19.683091 
   50000    1207.7359   -230235.51            0    -227467.8   -730.86323 
Loop time of 335.815 on 52 procs for 50000 steps with 17730 atoms

Performance: 12.864 ns/day, 1.866 hours/ns, 148.891 timesteps/s
99.8% CPU use with 52 MPI tasks x 1 OpenMP threads

MPI task timing breakdown:
Section |  min time  |  avg time  |  max time  |%varavg| %total
---------------------------------------------------------------
Pair    | 214.47     | 223.09     | 230.93     |  26.7 | 66.43
Bond    | 0.0031496  | 0.0049406  | 0.0064108  |   1.1 |  0.00
Kspace  | 68.776     | 77.922     | 86.755     |  49.8 | 23.20
Neigh   | 19.969     | 22.689     | 24.624     |  22.7 |  6.76
Comm    | 9.0558     | 9.7148     | 10.54      |  11.7 |  2.89
Output  | 5.2101e-05 | 5.7324e-05 | 0.00025914 |   0.0 |  0.00
Modify  | 1.1271     | 1.6366     | 2.649      |  37.0 |  0.49
Other   |            | 0.7579     |            |       |  0.23

Nlocal:        340.962 ave         363 max         318 min
Histogram: 2 2 6 3 12 12 6 2 3 4
Nghost:        3979.23 ave        4118 max        3847 min
Histogram: 6 4 5 4 7 7 8 4 2 5
Neighs:        67933.7 ave       73067 max       59219 min
Histogram: 4 1 0 2 3 9 13 11 2 7

Total # of neighbors = 3532553
Ave neighs/atom = 199.24157
Ave special neighs/atom = 0.0000000
Neighbor list builds = 10990
Dangerous builds = 0
11820 atoms in group oxygen
PPPM initialization ...
  using 12-bit tables for long-range coulomb (../kspace.cpp:328)
  G vector (1/distance) = 0.29850448
  grid = 40 240 40
  stencil order = 5
  estimated absolute RMS force accuracy = 0.00015913128
  estimated relative force accuracy = 1.1051056e-05
  using single precision MKL FFT
  3d grid and FFT values/proc = 15000 7600
Setting up Verlet run ...
  Unit style    : metal
  Current step  : 0
  Time step     : 0.001
Per MPI rank memory allocation (min/avg/max) = 8.394 | 8.420 | 8.439 Mbytes
Step f_2 Temp v_Tdiff v_deltaT 
       0            0    1207.7359            0            0 
  100000    1310.9041    1195.6895  0.047380353     550.0815 
  200000    2568.7822    1198.4122  0.057434885    666.81368 
  300000    3817.0517     1198.438  0.056467138    655.57823 
  400000    5060.5859    1207.5818  0.059342175    688.95714 
  500000    6320.5461    1209.8747    0.0558782    648.74072 
  600000    7565.7743    1195.2305  0.056300809    653.64716 
  700000    8813.5838    1197.8609  0.057175958    663.80756 
  800000    10067.195     1195.168  0.057083774    662.73731 
  900000    11320.631     1186.276  0.057011851     661.9023 
 1000000    12577.311    1209.5324  0.055328715    642.36124 
Loop time of 6740.76 on 52 procs for 1000000 steps with 17730 atoms

Performance: 12.818 ns/day, 1.872 hours/ns, 148.351 timesteps/s
99.8% CPU use with 52 MPI tasks x 1 OpenMP threads

MPI task timing breakdown:
Section |  min time  |  avg time  |  max time  |%varavg| %total
---------------------------------------------------------------
Pair    | 4250.3     | 4467.7     | 4637.2     | 106.9 | 66.28
Bond    | 0.056716   | 0.097681   | 0.14132    |   5.6 |  0.00
Kspace  | 1350.7     | 1543.6     | 1774       | 208.4 | 22.90
Neigh   | 422.61     | 491.11     | 533.53     | 113.8 |  7.29
Comm    | 186.85     | 202.19     | 225.07     |  65.1 |  3.00
Output  | 0.0011043  | 0.0011696  | 0.0022926  |   0.5 |  0.00
Modify  | 5.8639     | 6.2007     | 6.7849     |   8.9 |  0.09
Other   |            | 29.88      |            |       |  0.44

Nlocal:        340.962 ave         363 max         309 min
Histogram: 3 1 3 4 4 10 7 8 7 5
Nghost:        3987.12 ave        4120 max        3844 min
Histogram: 3 3 12 2 3 4 10 7 1 7
Neighs:        67929.7 ave       74019 max       57073 min
Histogram: 3 0 3 0 6 5 12 7 13 3

Total # of neighbors = 3532343
Ave neighs/atom = 199.22972
Ave special neighs/atom = 0.0000000
Neighbor list builds = 236461
Dangerous builds = 0
Total wall time: 1:57:57
