LAMMPS (29 Oct 2020)
OMP_NUM_THREADS environment is not set. Defaulting to 1 thread. (../comm.cpp:94)
  using 1 OpenMP thread(s) per MPI task
OMP_NUM_THREADS environment is not set. Defaulting to 1 thread. (../comm.cpp:94)
  using 1 OpenMP thread(s) per MPI task
Reading data file ...
  orthogonal box = (-0.27717828 -3.4472206 -0.27717828) to (27.617178 331.52722 27.617178)
  2 by 13 by 2 MPI processor grid
  reading atoms ...
  18000 atoms
  reading velocities ...
  18000 velocities
Finding 1-2 1-3 1-4 neighbors ...
  special bond factors lj:    0.0      0.0      0.0     
  special bond factors coul:  0.0      0.0      0.0     
     0 = max # of 1-2 neighbors
     0 = max # of 1-3 neighbors
     0 = max # of 1-4 neighbors
     1 = max # of special neighbors
  special bonds CPU = 0.004 seconds
  read_data CPU = 0.043 seconds
Setting atom values ...
  12000 settings made for charge
Setting atom values ...
  6000 settings made for charge
30 atoms in group Th_delete
60 atoms in group O_delete
90 atoms in group delete
WARNING: Ignoring 'compress yes' for molecular system (../delete_atoms.cpp:125)
Deleted 90 atoms, new total = 17910
PPPM initialization ...
  using 12-bit tables for long-range coulomb (../kspace.cpp:328)
  G vector (1/distance) = 0.299142
  grid = 40 240 40
  stencil order = 5
  estimated absolute RMS force accuracy = 0.00015485404
  estimated relative force accuracy = 1.0754018e-05
  using single precision MKL FFT
  3d grid and FFT values/proc = 18225 7600
Neighbor list info ...
  update every 1 steps, delay 0 steps, check yes
  max neighbors/atom: 2000, page size: 100000
  master list distance cutoff = 13
  ghost atom cutoff = 13
  binsize = 6.5, bins = 5 52 5
  2 neighbor lists, perpetual/occasional/extra = 2 0 0
  (1) pair coul/long, perpetual
      attributes: half, newton on
      pair build: half/bin/newton
      stencil: half/bin/3d/newton
      bin: standard
  (2) pair eam/alloy, perpetual, copy from (1)
      attributes: half, newton on
      pair build: copy
      stencil: none
      bin: none
Setting up cg style minimization ...
  Unit style    : metal
  Current step  : 0
WARNING: Energy due to 3 extra global DOFs will be included in minimizer energies
Per MPI rank memory allocation (min/avg/max) = 9.481 | 10.19 | 10.28 Mbytes
Step Temp E_pair E_mol TotEng Press Volume 
       0            0   -235355.65            0   -235355.65   -1083.0658    260641.98 
      17            0   -235412.65            0   -235412.65    470.46639     260447.5 
Loop time of 0.820376 on 52 procs for 17 steps with 17910 atoms

98.7% CPU use with 52 MPI tasks x 1 OpenMP threads

Minimization stats:
  Stopping criterion = linesearch alpha is zero
  Energy initial, next-to-last, final = 
     -235355.648442343  -235412.650334819  -235412.650334819
  Force two-norm initial, final = 404.37333 153.52274
  Force max component initial, final = 379.39233 92.167595
  Final line search alpha, max atom move = 2.8325991e-13 2.6107385e-11
  Iterations, force evaluations = 17 74

MPI task timing breakdown:
Section |  min time  |  avg time  |  max time  |%varavg| %total
---------------------------------------------------------------
Pair    | 0.47109    | 0.5006     | 0.53606    |   2.0 | 61.02
Bond    | 6.087e-06  | 8.9185e-06 | 1.3778e-05 |   0.0 |  0.00
Kspace  | 0.122      | 0.15726    | 0.18672    |   3.6 | 19.17
Neigh   | 0          | 0          | 0          |   0.0 |  0.00
Comm    | 0.011464   | 0.012403   | 0.012956   |   0.3 |  1.51
Output  | 0          | 0          | 0          |   0.0 |  0.00
Modify  | 0          | 0          | 0          |   0.0 |  0.00
Other   |            | 0.1501     |            |       | 18.30

Nlocal:        344.423 ave         404 max         297 min
Histogram: 6 6 6 5 6 7 6 7 0 3
Nghost:        5630.13 ave        5797 max        5471 min
Histogram: 4 8 7 1 2 8 8 6 3 5
Neighs:       110582.0 ave      128858 max       96058 min
Histogram: 8 3 7 7 4 9 3 5 4 2

Total # of neighbors = 5750286
Ave neighs/atom = 321.06566
Ave special neighs/atom = 0.0000000
Neighbor list builds = 0
Dangerous builds = 0
Resetting atom IDs ...
PPPM initialization ...
  using 12-bit tables for long-range coulomb (../kspace.cpp:328)
  G vector (1/distance) = 0.29916109
  grid = 40 240 40
  stencil order = 5
  estimated absolute RMS force accuracy = 0.00015467471
  estimated relative force accuracy = 1.0741564e-05
  using single precision MKL FFT
  3d grid and FFT values/proc = 18225 7600
Finding 1-2 1-3 1-4 neighbors ...
  special bond factors lj:    0.0      0.0      0.0     
  special bond factors coul:  0.0      0.0      0.0     
     0 = max # of 1-2 neighbors
     0 = max # of 1-3 neighbors
     0 = max # of 1-4 neighbors
     1 = max # of special neighbors
  special bonds CPU = 0.001 seconds
PPPM initialization ...
  using 12-bit tables for long-range coulomb (../kspace.cpp:328)
  G vector (1/distance) = 0.29916109
  grid = 40 240 40
  stencil order = 5
  estimated absolute RMS force accuracy = 0.00015467471
  estimated relative force accuracy = 1.0741564e-05
  using single precision MKL FFT
  3d grid and FFT values/proc = 18225 7600
Setting up Verlet run ...
  Unit style    : metal
  Current step  : 17
  Time step     : 0.001
Per MPI rank memory allocation (min/avg/max) = 9.115 | 9.141 | 9.157 Mbytes
Step Dt Time Atoms Temp PotEng KinEng Press Volume 
      17        0.001            0    17910          600   -235412.65     1388.952    6166.7239     260447.5 
   10000        0.001        9.983    17910    597.58295   -234159.74    1383.3567   -890.93771    265150.56 
   20000        0.001       19.983    17910    600.50117   -234173.97    1390.1121    14.133639    264983.07 
   30000        0.001       29.983    17910    603.88773   -234167.76    1397.9517   -622.59119    265104.43 
   40000        0.001       39.983    17910    596.13636   -234171.38     1380.008    1279.3358    264787.32 
   50000        0.001       49.983    17910     597.2748    -234190.8    1382.6434    681.08738    264823.88 
   60000        0.001       59.983    17910    601.99147   -234185.13     1393.562   -198.30408    264997.54 
   70000        0.001       69.983    17910    605.16276   -234185.21    1400.9033   -682.55083    265060.33 
   80000        0.001       79.983    17910    599.80856   -234176.39    1388.5088    674.64658    264863.04 
   90000        0.001       89.983    17910     597.6528    -234176.8    1383.5184   -789.33648    265135.31 
  100000        0.001       99.983    17910    603.69895   -234180.15    1397.5147   -153.70891    265018.74 
  100017        0.001          100    17910    601.12227   -234174.91    1391.5499   -363.58697    265057.83 
Loop time of 823.42 on 52 procs for 100000 steps with 17910 atoms

Performance: 10.493 ns/day, 2.287 hours/ns, 121.445 timesteps/s
99.8% CPU use with 52 MPI tasks x 1 OpenMP threads

MPI task timing breakdown:
Section |  min time  |  avg time  |  max time  |%varavg| %total
---------------------------------------------------------------
Pair    | 527.91     | 541.33     | 552.95     |  23.6 | 65.74
Bond    | 0.010165   | 0.013803   | 0.019604   |   1.8 |  0.00
Kspace  | 148.97     | 160.73     | 174.05     |  43.7 | 19.52
Neigh   | 0.94354    | 0.99389    | 1.0522     |   2.4 |  0.12
Comm    | 16.176     | 16.704     | 17.111     |   5.7 |  2.03
Output  | 0.10024    | 0.10028    | 0.10217    |   0.1 |  0.01
Modify  | 92.179     | 96.21      | 100.49     |  21.9 | 11.68
Other   |            | 7.341      |            |       |  0.89

Nlocal:        344.423 ave         365 max         328 min
Histogram: 4 3 13 7 5 7 4 2 2 5
Nghost:        5601.17 ave        5701 max        5493 min
Histogram: 8 6 5 1 4 3 5 6 4 10
Neighs:       109881.0 ave      117028 max      103100 min
Histogram: 2 3 4 11 11 3 9 3 4 2

Total # of neighbors = 5713791
Ave neighs/atom = 319.02797
Ave special neighs/atom = 0.0000000
Neighbor list builds = 336
Dangerous builds = 0
System init for write_data ...
PPPM initialization ...
  using 12-bit tables for long-range coulomb (../kspace.cpp:328)
  G vector (1/distance) = 0.29883711
  grid = 40 240 40
  stencil order = 5
  estimated absolute RMS force accuracy = 0.00015728919
  estimated relative force accuracy = 1.092313e-05
  using single precision MKL FFT
  3d grid and FFT values/proc = 18225 7600
Total wall time: 0:13:45
