LAMMPS (29 Oct 2020)
OMP_NUM_THREADS environment is not set. Defaulting to 1 thread. (../comm.cpp:94)
  using 1 OpenMP thread(s) per MPI task
#-------------------------
#
#This script is used to create different concentrations of vacancies in thorium dioxide
#By Ziqiang Wang on 07/03/2023
#
#-------------------------

clear
OMP_NUM_THREADS environment is not set. Defaulting to 1 thread. (../comm.cpp:94)
  using 1 OpenMP thread(s) per MPI task
units                        metal
dimension                        3
boundary                     p p p
atom_style                   full
atom_modify                  map array

read_data                   perfect_relaxed.dat
Reading data file ...
  orthogonal box = (-0.27717828 -3.4472206 -0.27717828) to (27.617178 331.52722 27.617178)
  2 by 13 by 2 MPI processor grid
  reading atoms ...
  18000 atoms
  reading velocities ...
  18000 velocities
Finding 1-2 1-3 1-4 neighbors ...
  special bond factors lj:    0.0      0.0      0.0     
  special bond factors coul:  0.0      0.0      0.0     
     0 = max # of 1-2 neighbors
     0 = max # of 1-3 neighbors
     0 = max # of 1-4 neighbors
     1 = max # of special neighbors
  special bonds CPU = 0.004 seconds
  read_data CPU = 0.059 seconds

# randomly create vacancies in the relaxed perfect crystal
variable         vac_ratio       equal    0.02
region           sphere    sphere     13.67 119.377 13.67 8.5  units box
group            sphere     region  sphere
191 atoms in group sphere
group            oxygen     id 4880 8539 4938 8477 4832 8423 5010 8601 4908 8567 4966 8443 8505 4836 8621 5014
16 atoms in group oxygen
group            thorium    id 8533 8608 8569 8428 8570
5 atoms in group thorium
group            1          subtract sphere oxygen
175 atoms in group 1
group            cluster          union    1 thorium
180 atoms in group cluster
group            Th       type     2
6000 atoms in group Th
group            O        type     1
12000 atoms in group O
group            Th_group   intersect  cluster   Th
60 atoms in group Th_group
group            O_group    intersect  cluster   O
120 atoms in group O_group
delete_atoms     group      cluster
WARNING: Ignoring 'compress yes' for molecular system (../delete_atoms.cpp:125)
Deleted 180 atoms, new total = 17820

region           sphere     delete
group            sphere     delete
group            oxygen     delete
group            thorium    delete
group            1          delete
group            cluster    delete
group            Th         delete
group            O          delete
group            Th_group   delete
group            O_group    delete

region           sphere    sphere     13.67 214.286 13.67 8.5  units box
group            sphere     region  sphere
191 atoms in group sphere
group            oxygen     id 9621 6030 9497 5852 9443 5958 9559 5900 6034 9463 9525 5856 5986 9587 5928 9641
16 atoms in group oxygen
group            thorium    id 9553 9628 9448 9589 9590
5 atoms in group thorium
group            1          subtract sphere oxygen
175 atoms in group 1
group            cluster          union    1 thorium
180 atoms in group cluster
group            Th       type     2
5940 atoms in group Th
group            O        type     1
11880 atoms in group O
group            Th_group   intersect  cluster   Th
60 atoms in group Th_group
group            O_group    intersect  cluster   O
120 atoms in group O_group
delete_atoms     group      cluster
WARNING: Ignoring 'compress yes' for molecular system (../delete_atoms.cpp:125)
Deleted 180 atoms, new total = 17640
region           sphere     delete
group            sphere     delete
group            oxygen     delete
group            thorium    delete
group            1          delete
group            cluster    delete
group            Th         delete
group            O          delete
group            Th_group   delete
group            O_group    delete

set                         type    1      charge   -1.1104
Setting atom values ...
  11760 settings made for charge
set                         type    2      charge    2.2208
Setting atom values ...
  5880 settings made for charge
kspace_style                pppm     1.0e-05
pair_style                  hybrid/overlay    coul/long   11.0  eam/alloy
pair_coeff                  * * coul/long
pair_coeff                  * * eam/alloy CeThUNpPuAmCmO.eam.alloy O Th
neighbor                    2.0  bin
neigh_modify                every  1  delay  0  check  yes

# fully relaxing the defect configuration at 0K
fix                box_relax  all  box/relax aniso 0.0 vmax 0.001
min_style          cg
minimize           1.0e-30 1.0e-30 10000 10000
PPPM initialization ...
  using 12-bit tables for long-range coulomb (../kspace.cpp:328)
  G vector (1/distance) = 0.29912164
  grid = 40 240 40
  stencil order = 5
  estimated absolute RMS force accuracy = 0.00015376724
  estimated relative force accuracy = 1.0678544e-05
  using single precision MKL FFT
  3d grid and FFT values/proc = 18225 7600
Neighbor list info ...
  update every 1 steps, delay 0 steps, check yes
  max neighbors/atom: 2000, page size: 100000
  master list distance cutoff = 13
  ghost atom cutoff = 13
  binsize = 6.5, bins = 5 52 5
  2 neighbor lists, perpetual/occasional/extra = 2 0 0
  (1) pair coul/long, perpetual
      attributes: half, newton on
      pair build: half/bin/newton
      stencil: half/bin/3d/newton
      bin: standard
  (2) pair eam/alloy, perpetual, copy from (1)
      attributes: half, newton on
      pair build: copy
      stencil: none
      bin: none
Per MPI rank memory allocation (min/avg/max) = 9.463 | 10.11 | 10.28 Mbytes
Step Temp E_pair E_mol TotEng Press Volume 
       0            0   -231486.22            0   -231486.22   -1084.9907    260641.98 
      12            0   -231534.52            0   -231534.52    -377.5026    260546.93 
Loop time of 1.1994 on 52 procs for 12 steps with 17640 atoms

99.1% CPU use with 52 MPI tasks x 1 OpenMP threads

Minimization stats:
  Stopping criterion = linesearch alpha is zero
  Energy initial, next-to-last, final = 
     -231486.220450492  -231534.523543099  -231534.523543099
  Force two-norm initial, final = 443.01790 152.81466
  Force max component initial, final = 354.34119 66.633991
  Final line search alpha, max atom move = 4.4725405e-13 2.9802322e-11
  Iterations, force evaluations = 12 107

MPI task timing breakdown:
Section |  min time  |  avg time  |  max time  |%varavg| %total
---------------------------------------------------------------
Pair    | 0.66468    | 0.72224    | 0.77509    |   2.8 | 60.22
Bond    | 9.3104e-06 | 1.3449e-05 | 2.1962e-05 |   0.0 |  0.00
Kspace  | 0.18496    | 0.23762    | 0.29513    |   4.9 | 19.81
Neigh   | 0          | 0          | 0          |   0.0 |  0.00
Comm    | 0.01647    | 0.017561   | 0.019011   |   0.4 |  1.46
Output  | 0          | 0          | 0          |   0.0 |  0.00
Modify  | 0          | 0          | 0          |   0.0 |  0.00
Other   |            | 0.222      |            |       | 18.51

Nlocal:        339.231 ave         404 max         272 min
Histogram: 2 2 7 7 8 6 7 5 6 2
Nghost:        5541.27 ave        5737 max        5320 min
Histogram: 5 4 2 1 7 14 7 1 6 5
Neighs:       107780.0 ave      130396 max       74136 min
Histogram: 2 2 0 2 8 13 5 11 7 2

Total # of neighbors = 5604558
Ave neighs/atom = 317.71871
Ave special neighs/atom = 0.0000000
Neighbor list builds = 0
Dangerous builds = 0
unfix              box_relax

# apply the temperature into the system and relaxing at the temperature of interest
reset_atom_ids
Resetting atom IDs ...
PPPM initialization ...
  using 12-bit tables for long-range coulomb (../kspace.cpp:328)
  G vector (1/distance) = 0.29913028
  grid = 40 240 40
  stencil order = 5
  estimated absolute RMS force accuracy = 0.00015368878
  estimated relative force accuracy = 1.0673095e-05
  using single precision MKL FFT
  3d grid and FFT values/proc = 18225 7600
Finding 1-2 1-3 1-4 neighbors ...
  special bond factors lj:    0.0      0.0      0.0     
  special bond factors coul:  0.0      0.0      0.0     
     0 = max # of 1-2 neighbors
     0 = max # of 1-3 neighbors
     0 = max # of 1-4 neighbors
     1 = max # of special neighbors
  special bonds CPU = 0.001 seconds
variable                    temp      equal    300
velocity                    all  create   ${temp}  4542  dist  gaussian  rot  yes  mom  yes
velocity                    all  create   300  4542  dist  gaussian  rot  yes  mom  yes
fix                         npt  all  npt  temp  ${temp}  ${temp}  $(100*dt) aniso  0.0  0.0  $(1000*dt)
fix                         npt  all  npt  temp  300  ${temp}  $(100*dt) aniso  0.0  0.0  $(1000*dt)
fix                         npt  all  npt  temp  300  300  $(100*dt) aniso  0.0  0.0  $(1000*dt)
fix                         npt  all  npt  temp  300  300  0.10000000000000000555 aniso  0.0  0.0  $(1000*dt)
fix                         npt  all  npt  temp  300  300  0.10000000000000000555 aniso  0.0  0.0  1

thermo                      20000
thermo_style                custom   step dt time atoms temp pe ke press vol

shell                       mkdir vac_${vac_ratio}_${temp}K
shell                       mkdir vac_0.02_${temp}K
shell                       mkdir vac_0.02_300K
dump                        1  all  custom  20000  ./vac_${vac_ratio}_${temp}K/dump_relax.atom.* id type q x y z
dump                        1  all  custom  20000  ./vac_0.02_${temp}K/dump_relax.atom.* id type q x y z
dump                        1  all  custom  20000  ./vac_0.02_300K/dump_relax.atom.* id type q x y z
dump_modify                 1  element  O  Th

run                         100000
PPPM initialization ...
  using 12-bit tables for long-range coulomb (../kspace.cpp:328)
  G vector (1/distance) = 0.29913028
  grid = 40 240 40
  stencil order = 5
  estimated absolute RMS force accuracy = 0.00015368878
  estimated relative force accuracy = 1.0673095e-05
  using single precision MKL FFT
  3d grid and FFT values/proc = 18225 7600
Per MPI rank memory allocation (min/avg/max) = 8.366 | 9.061 | 9.157 Mbytes
Step Dt Time Atoms Temp PotEng KinEng Press Volume 
      12        0.001            0    17640          300   -231534.52    684.00591    2426.6142    260546.93 
   20000        0.001       19.988    17640    303.60944   -231269.62    692.23551   -932.20251    262851.72 
   40000        0.001       39.988    17640    297.52645   -231274.65    678.36618   -28.332308    262666.47 
   60000        0.001       59.988    17640    299.35026   -231274.38    682.52448   -860.91251    262842.77 
   80000        0.001       79.988    17640    302.65297   -231265.96    690.05472   -550.94536     262794.6 
  100000        0.001       99.988    17640    298.81504   -231277.88    681.30418    162.73897    262618.55 
  100012        0.001          100    17640    296.69793   -231272.59    676.47712    334.51942    262630.45 
Loop time of 824.815 on 52 procs for 100000 steps with 17640 atoms

Performance: 10.475 ns/day, 2.291 hours/ns, 121.239 timesteps/s
99.8% CPU use with 52 MPI tasks x 1 OpenMP threads

MPI task timing breakdown:
Section |  min time  |  avg time  |  max time  |%varavg| %total
---------------------------------------------------------------
Pair    | 502.91     | 538.77     | 557.69     |  51.4 | 65.32
Bond    | 0.0095221  | 0.013656   | 0.018731   |   1.9 |  0.00
Kspace  | 147.11     | 166.07     | 202.35     |  93.9 | 20.13
Neigh   | 0.38747    | 0.49669    | 0.53853    |   5.5 |  0.06
Comm    | 15.16      | 16.206     | 16.797     |   9.8 |  1.96
Output  | 0.026168   | 0.026194   | 0.02722    |   0.1 |  0.00
Modify  | 92.882     | 96.227     | 99.529     |  20.9 | 11.67
Other   |            | 7.007      |            |       |  0.85

Nlocal:        339.231 ave         368 max         297 min
Histogram: 5 0 3 0 4 16 8 4 5 7
Nghost:        5537.62 ave        5702 max        5329 min
Histogram: 8 4 0 2 2 9 15 0 0 12
Neighs:       107934.0 ave      118906 max       81037 min
Histogram: 3 1 0 2 2 1 6 16 10 11

Total # of neighbors = 5612546
Ave neighs/atom = 318.17154
Ave special neighs/atom = 0.0000000
Neighbor list builds = 172
Dangerous builds = 0
shell                       mkdir thermal_condu
WARNING: Shell command 'mkdir' failed with error 'File exists' (../input.cpp:1197)
write_data                  thermal_condu/vac_${vac_ratio}_relaxed.dat
write_data                  thermal_condu/vac_0.02_relaxed.dat
System init for write_data ...
PPPM initialization ...
  using 12-bit tables for long-range coulomb (../kspace.cpp:328)
  G vector (1/distance) = 0.2989959
  grid = 40 240 40
  stencil order = 5
  estimated absolute RMS force accuracy = 0.00015470696
  estimated relative force accuracy = 1.0743804e-05
  using single precision MKL FFT
  3d grid and FFT values/proc = 18225 7600
Total wall time: 0:13:46
