LAMMPS (29 Oct 2020)
OMP_NUM_THREADS environment is not set. Defaulting to 1 thread. (../comm.cpp:94)
  using 1 OpenMP thread(s) per MPI task
OMP_NUM_THREADS environment is not set. Defaulting to 1 thread. (../comm.cpp:94)
  using 1 OpenMP thread(s) per MPI task
Lattice spacing in x,y,z = 5.5788000 5.5788000 5.5788000
Created orthogonal box = (0.0000000 0.0000000 0.0000000) to (27.894000 334.72800 27.894000)
  2 by 13 by 2 MPI processor grid
Changing box ...
  triclinic box = (0.0000000 0.0000000 0.0000000) to (27.894000 334.72800 27.894000) with tilt (0.0000000 0.0000000 0.0000000)
Created 12000 atoms
  create_atoms CPU = 0.008 seconds
Lattice spacing in x,y,z = 5.5788000 5.5788000 5.5788000
Created 6000 atoms
  create_atoms CPU = 0.001 seconds
12000 atoms in group oxygen
6000 atoms in group uranium
Setting atom values ...
  45 settings made for type/ratio
Setting atom values ...
  45 settings made for type/ratio
45 atoms in group anti_oxygen
45 atoms in group anti_uranium
Setting atom values ...
  45 settings made for type
Setting atom values ...
  45 settings made for type
Setting atom values ...
  12000 settings made for charge
Setting atom values ...
  6000 settings made for charge
PPPM initialization ...
  using 12-bit tables for long-range coulomb (../kspace.cpp:328)
  G vector (1/distance) = 0.29916851
  grid = 40 240 40
  stencil order = 5
  estimated absolute RMS force accuracy = 0.00015502622
  estimated relative force accuracy = 1.0765975e-05
  using single precision MKL FFT
  3d grid and FFT values/proc = 18225 7600
Neighbor list info ...
  update every 1 steps, delay 0 steps, check yes
  max neighbors/atom: 2000, page size: 100000
  master list distance cutoff = 13
  ghost atom cutoff = 13
  binsize = 6.5, bins = 5 52 5
  2 neighbor lists, perpetual/occasional/extra = 2 0 0
  (1) pair coul/long, perpetual
      attributes: half, newton on
      pair build: half/bin/newton/tri
      stencil: half/bin/3d/newton/tri
      bin: standard
  (2) pair eam/alloy, perpetual, copy from (1)
      attributes: half, newton on
      pair build: copy
      stencil: none
      bin: none
Setting up cg style minimization ...
  Unit style    : metal
  Current step  : 0
WARNING: Energy due to 3 extra global DOFs will be included in minimizer energies
Per MPI rank memory allocation (min/avg/max) = 10.42 | 10.45 | 10.47 Mbytes
Step Temp E_pair E_mol TotEng Press Volume 
       0            0   -231588.92            0   -231588.92    19820.881    260443.57 
     623            0   -235362.08            0   -235362.08     28.76818    263894.89 
Loop time of 8.70935 on 52 procs for 623 steps with 18000 atoms

99.6% CPU use with 52 MPI tasks x 1 OpenMP threads

Minimization stats:
  Stopping criterion = linesearch alpha is zero
  Energy initial, next-to-last, final = 
     -231588.917151428  -235362.084353346  -235362.084353362
  Force two-norm initial, final = 5677.1781 31.292485
  Force max component initial, final = 3614.4358 10.221723
  Final line search alpha, max atom move = 1.2081061e-11 1.2348926e-10
  Iterations, force evaluations = 623 779

MPI task timing breakdown:
Section |  min time  |  avg time  |  max time  |%varavg| %total
---------------------------------------------------------------
Pair    | 5.0121     | 5.1576     | 5.3369     |   3.3 | 59.22
Bond    | 6.7211e-05 | 0.0001035  | 0.00014855 |   0.0 |  0.00
Kspace  | 1.222      | 1.4041     | 1.5528     |   6.5 | 16.12
Neigh   | 0.039371   | 0.045193   | 0.049446   |   1.0 |  0.52
Comm    | 0.13767    | 0.14183    | 0.14522    |   0.4 |  1.63
Output  | 0          | 0          | 0          |   0.0 |  0.00
Modify  | 0          | 0          | 0          |   0.0 |  0.00
Other   |            | 1.961      |            |       | 22.51

Nlocal:        346.154 ave         380 max         304 min
Histogram: 1 1 6 6 7 7 6 9 7 2
Nghost:        5626.13 ave        5719 max        5527 min
Histogram: 7 11 3 2 2 0 1 8 9 9
Neighs:       111451.0 ave      121831 max       97496 min
Histogram: 1 1 5 7 7 5 8 10 4 4

Total # of neighbors = 5795457
Ave neighs/atom = 321.96983
Ave special neighs/atom = 0.0000000
Neighbor list builds = 12
Dangerous builds = 0
PPPM initialization ...
  using 12-bit tables for long-range coulomb (../kspace.cpp:328)
  G vector (1/distance) = 0.29893969
  grid = 40 240 40
  stencil order = 5
  estimated absolute RMS force accuracy = 0.00015680388
  estimated relative force accuracy = 1.0889427e-05
  using single precision MKL FFT
  3d grid and FFT values/proc = 18225 7600
Setting up Verlet run ...
  Unit style    : metal
  Current step  : 0
  Time step     : 0.001
Per MPI rank memory allocation (min/avg/max) = 10.56 | 10.59 | 10.61 Mbytes
Step Dt Time Atoms Temp PotEng KinEng Press Volume v_latt 
       0        0.001            0    18000          900   -235362.09     2093.898    8503.4093    263894.89    5.6033365 
   50000        0.001           50    18000    889.29781   -234168.06    2068.9988   -1035.9619    269142.62    5.6402338 
  100000        0.001          100    18000    902.75262    -234154.4    2100.3021   -641.92886    269143.89    5.6402433 
Loop time of 874.732 on 52 procs for 100000 steps with 18000 atoms

Performance: 9.877 ns/day, 2.430 hours/ns, 114.321 timesteps/s
99.8% CPU use with 52 MPI tasks x 1 OpenMP threads

MPI task timing breakdown:
Section |  min time  |  avg time  |  max time  |%varavg| %total
---------------------------------------------------------------
Pair    | 550.1      | 557.9      | 571.05     |  23.5 | 63.78
Bond    | 0.009435   | 0.014373   | 0.018635   |   1.9 |  0.00
Kspace  | 152.13     | 165.49     | 173.69     |  44.6 | 18.92
Neigh   | 6.6676     | 6.9155     | 7.3684     |   7.5 |  0.79
Comm    | 17.111     | 17.654     | 18.176     |   6.9 |  2.02
Output  | 0.0092666  | 0.009278   | 0.0096056  |   0.0 |  0.00
Modify  | 111.76     | 118.54     | 122.93     |  27.4 | 13.55
Other   |            | 8.208      |            |       |  0.94

Nlocal:        346.154 ave         372 max         330 min
Histogram: 5 11 5 9 9 2 6 1 3 1
Nghost:        5573.29 ave        5670 max        5478 min
Histogram: 4 13 6 4 1 0 1 7 8 8
Neighs:       108753.0 ave      116815 max      103477 min
Histogram: 5 6 9 7 10 5 4 2 2 2

Total # of neighbors = 5655162
Ave neighs/atom = 314.17567
Ave special neighs/atom = 0.0000000
Neighbor list builds = 1735
Dangerous builds = 0
System init for write_data ...
PPPM initialization ...
  using 12-bit tables for long-range coulomb (../kspace.cpp:328)
  G vector (1/distance) = 0.29856836
  grid = 40 240 40
  stencil order = 5
  estimated absolute RMS force accuracy = 0.00015985364
  estimated relative force accuracy = 1.1101221e-05
  using single precision MKL FFT
  3d grid and FFT values/proc = 18225 7600
Total wall time: 0:14:43
