LAMMPS (29 Oct 2020)
OMP_NUM_THREADS environment is not set. Defaulting to 1 thread. (../comm.cpp:94)
  using 1 OpenMP thread(s) per MPI task
OMP_NUM_THREADS environment is not set. Defaulting to 1 thread. (../comm.cpp:94)
  using 1 OpenMP thread(s) per MPI task
Reading data file ...
  orthogonal box = (-0.36222628 -4.3144892 -0.35866595) to (27.702226 332.39449 27.698666)
  2 by 13 by 2 MPI processor grid
  reading atoms ...
  17730 atoms
  reading velocities ...
  17730 velocities
Finding 1-2 1-3 1-4 neighbors ...
  special bond factors lj:    0.0      0.0      0.0     
  special bond factors coul:  0.0      0.0      0.0     
     0 = max # of 1-2 neighbors
     0 = max # of 1-3 neighbors
     0 = max # of 1-4 neighbors
     1 = max # of special neighbors
  special bonds CPU = 0.004 seconds
  read_data CPU = 0.082 seconds
Setting atom values ...
  11820 settings made for charge
Setting atom values ...
  5910 settings made for charge
PPPM initialization ...
  using 12-bit tables for long-range coulomb (../kspace.cpp:328)
  G vector (1/distance) = 0.2988212
  grid = 40 240 40
  stencil order = 5
  estimated absolute RMS force accuracy = 0.00015656749
  estimated relative force accuracy = 1.087301e-05
  using single precision MKL FFT
  3d grid and FFT values/proc = 15000 7600
Neighbor list info ...
  update every 1 steps, delay 0 steps, check yes
  max neighbors/atom: 2000, page size: 100000
  master list distance cutoff = 11.3
  ghost atom cutoff = 11.3
  binsize = 5.65, bins = 5 60 5
  2 neighbor lists, perpetual/occasional/extra = 2 0 0
  (1) pair coul/long, perpetual
      attributes: half, newton on
      pair build: half/bin/newton
      stencil: half/bin/3d/newton
      bin: standard
  (2) pair eam/alloy, perpetual, copy from (1)
      attributes: half, newton on
      pair build: copy
      stencil: none
      bin: none
Setting up Verlet run ...
  Unit style    : metal
  Current step  : 0
  Time step     : 0.001
Per MPI rank memory allocation (min/avg/max) = 8.154 | 8.183 | 8.202 Mbytes
Step Temp E_pair E_mol TotEng Press 
       0          600   -231735.42            0   -230360.43   -1366.8846 
  100000    596.03679   -231720.82            0   -230354.91   -1273.4023 
Loop time of 640.333 on 52 procs for 100000 steps with 17730 atoms

Performance: 13.493 ns/day, 1.779 hours/ns, 156.169 timesteps/s
99.8% CPU use with 52 MPI tasks x 1 OpenMP threads

MPI task timing breakdown:
Section |  min time  |  avg time  |  max time  |%varavg| %total
---------------------------------------------------------------
Pair    | 429.79     | 442.12     | 458.93     |  28.9 | 69.04
Bond    | 0.0067979  | 0.0099034  | 0.015772   |   2.1 |  0.00
Kspace  | 126.35     | 144.44     | 156.82     |  51.7 | 22.56
Neigh   | 31.601     | 34.404     | 37.143     |  19.7 |  5.37
Comm    | 13.638     | 14.846     | 17.147     |  24.7 |  2.32
Output  | 5.7044e-05 | 6.2431e-05 | 0.00027166 |   0.0 |  0.00
Modify  | 1.729      | 3.2297     | 5.3115     |  67.5 |  0.50
Other   |            | 1.282      |            |       |  0.20

Nlocal:        340.962 ave         369 max         319 min
Histogram: 1 2 6 11 15 9 4 2 1 1
Nghost:        4128.46 ave        4218 max        3976 min
Histogram: 7 1 2 2 0 4 8 7 13 8
Neighs:        67990.3 ave       73861 max       62633 min
Histogram: 4 3 4 6 8 11 8 5 2 1

Total # of neighbors = 3535497
Ave neighs/atom = 199.40761
Ave special neighs/atom = 0.0000000
Neighbor list builds = 16209
Dangerous builds = 0
11820 atoms in group oxygen
PPPM initialization ...
  using 12-bit tables for long-range coulomb (../kspace.cpp:328)
  G vector (1/distance) = 0.2988212
  grid = 40 240 40
  stencil order = 5
  estimated absolute RMS force accuracy = 0.00015656749
  estimated relative force accuracy = 1.087301e-05
  using single precision MKL FFT
  3d grid and FFT values/proc = 15000 7600
Setting up Verlet run ...
  Unit style    : metal
  Current step  : 0
  Time step     : 0.001
Per MPI rank memory allocation (min/avg/max) = 8.405 | 8.433 | 8.453 Mbytes
Step f_2 Temp v_Tdiff v_deltaT 
       0            0    596.03679            0            0 
  100000    700.95414     601.3867  0.017884002     207.6316 
  200000    1382.0956    597.61893   0.02038526    236.67098 
  300000    2070.4219     598.8775  0.020245674    235.05039 
  400000    2755.1378     608.7411  0.019295927    224.02392 
  500000    3438.5582    604.82417   0.01970463    228.76893 
  600000    4127.9726    598.56248  0.019969325      231.842 
  700000    4818.1632    604.26106   0.01996217    231.75894 
  800000    5508.6462    603.32095  0.020036359    232.62026 
  900000    6193.7784     604.7649  0.019497999    226.36996 
 1000000    6885.7273    602.37736  0.019606604    227.63085 
Loop time of 6349.48 on 52 procs for 1000000 steps with 17730 atoms

Performance: 13.607 ns/day, 1.764 hours/ns, 157.493 timesteps/s
99.8% CPU use with 52 MPI tasks x 1 OpenMP threads

MPI task timing breakdown:
Section |  min time  |  avg time  |  max time  |%varavg| %total
---------------------------------------------------------------
Pair    | 4245       | 4373.1     | 4540.7     |  93.8 | 68.87
Bond    | 0.069713   | 0.10087    | 0.14493    |   6.0 |  0.00
Kspace  | 1256.7     | 1439.2     | 1559.1     | 166.5 | 22.67
Neigh   | 326.25     | 353.06     | 382.01     |  62.7 |  5.56
Comm    | 136.96     | 148.24     | 173.56     |  77.9 |  2.33
Output  | 0.001042   | 0.0011114  | 0.0022627  |   0.5 |  0.00
Modify  | 5.3714     | 5.7614     | 6.2708     |  10.5 |  0.09
Other   |            | 29.99      |            |       |  0.47

Nlocal:        340.962 ave         364 max         322 min
Histogram: 3 2 6 11 9 8 8 1 2 2
Nghost:        4129.19 ave        4240 max        3993 min
Histogram: 8 4 0 4 5 6 2 9 7 7
Neighs:        67983.5 ave       72760 max       62198 min
Histogram: 3 4 2 4 5 11 9 7 3 4

Total # of neighbors = 3535141
Ave neighs/atom = 199.38754
Ave special neighs/atom = 0.0000000
Neighbor list builds = 166298
Dangerous builds = 0
Total wall time: 1:56:30
