LAMMPS (29 Oct 2020)
OMP_NUM_THREADS environment is not set. Defaulting to 1 thread. (../comm.cpp:94)
  using 1 OpenMP thread(s) per MPI task
OMP_NUM_THREADS environment is not set. Defaulting to 1 thread. (../comm.cpp:94)
  using 1 OpenMP thread(s) per MPI task
Reading data file ...
  orthogonal box = (-0.39520105 -4.8078732 -0.38989521) to (27.735201 332.88787 27.729895)
  2 by 13 by 2 MPI processor grid
  reading atoms ...
  17910 atoms
  reading velocities ...
  17910 velocities
Finding 1-2 1-3 1-4 neighbors ...
  special bond factors lj:    0.0      0.0      0.0     
  special bond factors coul:  0.0      0.0      0.0     
     0 = max # of 1-2 neighbors
     0 = max # of 1-3 neighbors
     0 = max # of 1-4 neighbors
     1 = max # of special neighbors
  special bonds CPU = 0.004 seconds
  read_data CPU = 0.061 seconds
Setting atom values ...
  11940 settings made for charge
Setting atom values ...
  5970 settings made for charge
PPPM initialization ...
  using 12-bit tables for long-range coulomb (../kspace.cpp:328)
  G vector (1/distance) = 0.29868921
  grid = 40 240 40
  stencil order = 5
  estimated absolute RMS force accuracy = 0.00015850952
  estimated relative force accuracy = 1.1007877e-05
  using single precision MKL FFT
  3d grid and FFT values/proc = 15000 7600
Neighbor list info ...
  update every 1 steps, delay 0 steps, check yes
  max neighbors/atom: 2000, page size: 100000
  master list distance cutoff = 11.3
  ghost atom cutoff = 11.3
  binsize = 5.65, bins = 5 60 5
  2 neighbor lists, perpetual/occasional/extra = 2 0 0
  (1) pair coul/long, perpetual
      attributes: half, newton on
      pair build: half/bin/newton
      stencil: half/bin/3d/newton
      bin: standard
  (2) pair eam/alloy, perpetual, copy from (1)
      attributes: half, newton on
      pair build: copy
      stencil: none
      bin: none
Setting up Verlet run ...
  Unit style    : metal
  Current step  : 0
  Time step     : 0.001
Per MPI rank memory allocation (min/avg/max) = 8.154 | 8.177 | 8.191 Mbytes
Step Temp E_pair E_mol TotEng Press 
       0          900   -233438.91            0   -231355.48    1119.0797 
  100000    904.78288   -233454.11            0   -231359.61    769.91137 
Loop time of 651.746 on 52 procs for 100000 steps with 17910 atoms

Performance: 13.257 ns/day, 1.810 hours/ns, 153.434 timesteps/s
99.8% CPU use with 52 MPI tasks x 1 OpenMP threads

MPI task timing breakdown:
Section |  min time  |  avg time  |  max time  |%varavg| %total
---------------------------------------------------------------
Pair    | 437.91     | 449.19     | 459.13     |  23.8 | 68.92
Bond    | 0.0069919  | 0.010161   | 0.017958   |   2.2 |  0.00
Kspace  | 128.75     | 140.12     | 152.76     |  52.2 | 21.50
Neigh   | 39.305     | 42.556     | 45.309     |  21.2 |  6.53
Comm    | 14.308     | 15.448     | 17.905     |  21.1 |  2.37
Output  | 5.5281e-05 | 6.0522e-05 | 0.00027031 |   0.0 |  0.00
Modify  | 1.6797     | 3.1453     | 4.9069     |  62.5 |  0.48
Other   |            | 1.281      |            |       |  0.20

Nlocal:        344.423 ave         365 max         322 min
Histogram: 2 2 5 8 10 8 6 3 3 5
Nghost:        4085.06 ave        4201 max        3975 min
Histogram: 2 3 9 6 5 12 4 6 2 3
Neighs:        69237.1 ave       73745 max       63797 min
Histogram: 3 1 3 7 9 7 8 5 5 4

Total # of neighbors = 3600331
Ave neighs/atom = 201.02351
Ave special neighs/atom = 0.0000000
Neighbor list builds = 19789
Dangerous builds = 0
11940 atoms in group oxygen
PPPM initialization ...
  using 12-bit tables for long-range coulomb (../kspace.cpp:328)
  G vector (1/distance) = 0.29868921
  grid = 40 240 40
  stencil order = 5
  estimated absolute RMS force accuracy = 0.00015850952
  estimated relative force accuracy = 1.1007877e-05
  using single precision MKL FFT
  3d grid and FFT values/proc = 15000 7600
Setting up Verlet run ...
  Unit style    : metal
  Current step  : 0
  Time step     : 0.001
Per MPI rank memory allocation (min/avg/max) = 8.404 | 8.428 | 8.442 Mbytes
Step f_2 Temp v_Tdiff v_deltaT 
       0            0    904.78288            0            0 
  100000    1028.0246    905.55051  0.030806434    357.65984 
  200000    2020.0055     905.3098  0.033930425    393.92909 
  300000    3019.9442    899.01351  0.034299981     398.2196 
  400000    4017.1939    900.18563  0.035293757    409.75724 
  500000    5022.8007    905.96143  0.035625387    413.60743 
  600000     6019.489    900.95556  0.034649787    402.28081 
  700000     7018.194    897.13925  0.034444236    399.89438 
  800000    8020.0159    904.00336  0.034253559    397.68064 
  900000    9012.5688    907.01676  0.034795897    403.97713 
 1000000    10012.999    904.68266  0.034185086    396.88568 
 1100000    11012.342    903.90353  0.034309687    398.33228 
 1200000    12014.582    901.96182  0.034038604    395.18503 
 1300000    13021.359    900.89765  0.034673536    402.55653 
 1400000    14020.729    908.05998  0.035020871    406.58906 
 1500000     15018.55    902.72736  0.035187333    408.52167 
Loop time of 9657.25 on 52 procs for 1500000 steps with 17910 atoms

Performance: 13.420 ns/day, 1.788 hours/ns, 155.324 timesteps/s
99.9% CPU use with 52 MPI tasks x 1 OpenMP threads

MPI task timing breakdown:
Section |  min time  |  avg time  |  max time  |%varavg| %total
---------------------------------------------------------------
Pair    | 6451.3     | 6614.3     | 6802.9     |  89.7 | 68.49
Bond    | 0.094451   | 0.15756    | 0.27156    |   9.1 |  0.00
Kspace  | 1896.8     | 2108.4     | 2272.3     | 179.8 | 21.83
Neigh   | 602.14     | 648.08     | 690.45     |  76.2 |  6.71
Comm    | 214.39     | 232.19     | 278.73     |  95.2 |  2.40
Output  | 0.0015561  | 0.0016625  | 0.0035111  |   0.6 |  0.00
Modify  | 8.0057     | 8.6781     | 9.6733     |  13.3 |  0.09
Other   |            | 45.45      |            |       |  0.47

Nlocal:        344.423 ave         366 max         323 min
Histogram: 2 2 5 10 5 12 8 4 2 2
Nghost:        4085.02 ave        4163 max        3955 min
Histogram: 1 1 6 8 0 3 5 9 14 5
Neighs:        69235.5 ave       73848 max       63074 min
Histogram: 2 2 3 1 10 8 13 6 4 3

Total # of neighbors = 3600247
Ave neighs/atom = 201.01882
Ave special neighs/atom = 0.0000000
Neighbor list builds = 302207
Dangerous builds = 0
Total wall time: 2:51:49
