LAMMPS (29 Oct 2020)
OMP_NUM_THREADS environment is not set. Defaulting to 1 thread. (../comm.cpp:94)
  using 1 OpenMP thread(s) per MPI task
#---------------------------------------
#
# This script is used to calculate the thermal conuctivity of UO2 using Muller-Plathe method
# By Ziqiang Wang on 03/18/2022 on Jilin university
#
#---------------------------------------

variable     Nevery    equal   25
variable     T         equal   600

clear
OMP_NUM_THREADS environment is not set. Defaulting to 1 thread. (../comm.cpp:94)
  using 1 OpenMP thread(s) per MPI task
units          metal
boundary       p p p
atom_style     full

read_data vac_0.02_relaxed.dat
Reading data file ...
  orthogonal box = (-0.35522144 -4.2685639 -0.35644664) to (27.695221 332.34856 27.696447)
  2 by 13 by 2 MPI processor grid
  reading atoms ...
  17640 atoms
  reading velocities ...
  17640 velocities
Finding 1-2 1-3 1-4 neighbors ...
  special bond factors lj:    0.0      0.0      0.0     
  special bond factors coul:  0.0      0.0      0.0     
     0 = max # of 1-2 neighbors
     0 = max # of 1-3 neighbors
     0 = max # of 1-4 neighbors
     1 = max # of special neighbors
  special bonds CPU = 0.005 seconds
  read_data CPU = 0.075 seconds

set           type     1    charge     -1.1104
Setting atom values ...
  11760 settings made for charge
set           type     2    charge      2.2208
Setting atom values ...
  5880 settings made for charge

kspace_style    pppm   1.0e-05
pair_style      hybrid/overlay  coul/long  11.0  eam/alloy
pair_coeff      * * coul/long
pair_coeff      * * eam/alloy CeThUNpPuAmCmO.eam.alloy O Th
newton          on
neighbor        0.3 bin
neigh_modify    delay 0 check yes every 1

#The first equilation
velocity        all create $T 10001 mom yes rot yes dist gaussian
velocity        all create 600 10001 mom yes rot yes dist gaussian
fix             nvt  all  nvt  temp  $T $T  0.1
fix             nvt  all  nvt  temp  600 $T  0.1
fix             nvt  all  nvt  temp  600 600  0.1

run             100000
PPPM initialization ...
  using 12-bit tables for long-range coulomb (../kspace.cpp:328)
  G vector (1/distance) = 0.29883141
  grid = 40 240 40
  stencil order = 5
  estimated absolute RMS force accuracy = 0.00015606446
  estimated relative force accuracy = 1.0838077e-05
  using single precision MKL FFT
  3d grid and FFT values/proc = 15000 7600
Neighbor list info ...
  update every 1 steps, delay 0 steps, check yes
  max neighbors/atom: 2000, page size: 100000
  master list distance cutoff = 11.3
  ghost atom cutoff = 11.3
  binsize = 5.65, bins = 5 60 5
  2 neighbor lists, perpetual/occasional/extra = 2 0 0
  (1) pair coul/long, perpetual
      attributes: half, newton on
      pair build: half/bin/newton
      stencil: half/bin/3d/newton
      bin: standard
  (2) pair eam/alloy, perpetual, copy from (1)
      attributes: half, newton on
      pair build: copy
      stencil: none
      bin: none
Per MPI rank memory allocation (min/avg/max) = 8.152 | 8.179 | 8.200 Mbytes
Step Temp E_pair E_mol TotEng Press 
       0          600   -230450.93            0   -229082.92    544.64604 
  100000    601.78118   -230457.89            0   -229085.82    86.233316 
Loop time of 653.005 on 52 procs for 100000 steps with 17640 atoms

Performance: 13.231 ns/day, 1.814 hours/ns, 153.138 timesteps/s
99.8% CPU use with 52 MPI tasks x 1 OpenMP threads

MPI task timing breakdown:
Section |  min time  |  avg time  |  max time  |%varavg| %total
---------------------------------------------------------------
Pair    | 424.17     | 441.47     | 461.92     |  38.6 | 67.61
Bond    | 0.006743   | 0.0097154  | 0.013965   |   1.7 |  0.00
Kspace  | 133.19     | 155.45     | 172.81     |  66.4 | 23.81
Neigh   | 29.856     | 33.594     | 36.752     |  26.1 |  5.14
Comm    | 16.737     | 18.117     | 19.87      |  17.7 |  2.77
Output  | 5.4611e-05 | 5.9706e-05 | 0.00026203 |   0.0 |  0.00
Modify  | 1.8107     | 2.9504     | 4.5339     |  48.5 |  0.45
Other   |            | 1.413      |            |       |  0.22

Nlocal:        339.231 ave         365 max         320 min
Histogram: 3 3 8 6 18 7 3 0 1 3
Nghost:        4096.44 ave        4265 max        3955 min
Histogram: 5 5 4 10 6 8 2 7 2 3
Neighs:        67455.5 ave       73518 max       59525 min
Histogram: 2 4 2 1 5 11 15 8 0 4

Total # of neighbors = 3507684
Ave neighs/atom = 198.84830
Ave special neighs/atom = 0.0000000
Neighbor list builds = 16218
Dangerous builds = 0
unfix           nvt
reset_timestep  0

# the second run
fix             1 all nve

group           oxygen type 1
11760 atoms in group oxygen
fix             2 oxygen thermal/conductivity ${Nevery} y 20
fix             2 oxygen thermal/conductivity 25 y 20

compute         ke all ke/atom
variable        temp atom c_ke/1.5
compute         layers all chunk/atom bin/1d y lower 0.05 units reduced
fix             3      all ave/chunk  2000 50 100000 layers v_temp file profile_${T}K.mp
fix             3      all ave/chunk  2000 50 100000 layers v_temp file profile_600K.mp

variable        Tdiff    equal     f_3[11][3]-f_3[1][3]
variable        deltaT   equal     v_Tdiff*1.5/0.0001292

timestep        0.001
thermo_style    custom step f_2 temp v_Tdiff v_deltaT
thermo          100000

run             1000000
PPPM initialization ...
  using 12-bit tables for long-range coulomb (../kspace.cpp:328)
  G vector (1/distance) = 0.29883141
  grid = 40 240 40
  stencil order = 5
  estimated absolute RMS force accuracy = 0.00015606446
  estimated relative force accuracy = 1.0838077e-05
  using single precision MKL FFT
  3d grid and FFT values/proc = 15000 7600
Per MPI rank memory allocation (min/avg/max) = 8.402 | 8.429 | 8.451 Mbytes
Step f_2 Temp v_Tdiff v_deltaT 
       0            0    601.78118            0            0 
  100000    1178.6264    601.89933  0.030888664    358.61452 
  200000    2311.5073    601.70445  0.033624766    390.38041 
  300000    3436.0998    601.50566  0.034340539    398.69046 
  400000    4550.3095    595.23242  0.034487592    400.39773 
  500000    5677.5641    601.06027  0.033802888    392.44839 
  600000    6805.4881    607.28147  0.035024678    406.63325 
  700000    7931.9381    600.43681  0.034734481     403.2641 
  800000    9057.9371     597.1386  0.035105464    407.57118 
  900000    10184.985    604.15299  0.034243397    397.56266 
 1000000    11311.613    601.74813  0.035081386    407.29163 
Loop time of 6542.09 on 52 procs for 1000000 steps with 17640 atoms

Performance: 13.207 ns/day, 1.817 hours/ns, 152.856 timesteps/s
99.8% CPU use with 52 MPI tasks x 1 OpenMP threads

MPI task timing breakdown:
Section |  min time  |  avg time  |  max time  |%varavg| %total
---------------------------------------------------------------
Pair    | 4210.8     | 4415.9     | 4619.9     | 131.9 | 67.50
Bond    | 0.068643   | 0.096797   | 0.13473    |   5.2 |  0.00
Kspace  | 1334.5     | 1553       | 1766.2     | 229.5 | 23.74
Neigh   | 313.26     | 354.02     | 390.07     |  90.7 |  5.41
Comm    | 170.1      | 183.63     | 207.97     |  67.9 |  2.81
Output  | 0.0011671  | 0.0012249  | 0.0023401  |   0.4 |  0.00
Modify  | 6.3281     | 7.0415     | 7.8326     |  13.4 |  0.11
Other   |            | 28.4       |            |       |  0.43

Nlocal:        339.231 ave         368 max         312 min
Histogram: 3 5 6 4 6 12 8 1 4 3
Nghost:        4111.75 ave        4241 max        3935 min
Histogram: 4 0 2 7 4 16 2 1 12 4
Neighs:        67467.5 ave       74522 max       57629 min
Histogram: 3 2 2 4 3 8 11 12 4 3

Total # of neighbors = 3508312
Ave neighs/atom = 198.88390
Ave special neighs/atom = 0.0000000
Neighbor list builds = 171017
Dangerous builds = 0

Total wall time: 1:59:55
