LAMMPS (29 Oct 2020)
OMP_NUM_THREADS environment is not set. Defaulting to 1 thread. (../comm.cpp:94)
  using 1 OpenMP thread(s) per MPI task
OMP_NUM_THREADS environment is not set. Defaulting to 1 thread. (../comm.cpp:94)
  using 1 OpenMP thread(s) per MPI task
Reading data file ...
  orthogonal box = (-0.33207899 -4.0102839 -0.32946371) to (27.672079 332.09028 27.669464)
  2 by 13 by 2 MPI processor grid
  reading atoms ...
  17640 atoms
  reading velocities ...
  17640 velocities
Finding 1-2 1-3 1-4 neighbors ...
  special bond factors lj:    0.0      0.0      0.0     
  special bond factors coul:  0.0      0.0      0.0     
     0 = max # of 1-2 neighbors
     0 = max # of 1-3 neighbors
     0 = max # of 1-4 neighbors
     1 = max # of special neighbors
  special bonds CPU = 0.007 seconds
  read_data CPU = 0.080 seconds
Setting atom values ...
  11760 settings made for charge
Setting atom values ...
  5880 settings made for charge
PPPM initialization ...
  using 12-bit tables for long-range coulomb (../kspace.cpp:328)
  G vector (1/distance) = 0.29892348
  grid = 40 240 40
  stencil order = 5
  estimated absolute RMS force accuracy = 0.0001553339
  estimated relative force accuracy = 1.0787343e-05
  using single precision MKL FFT
  3d grid and FFT values/proc = 15000 7600
Neighbor list info ...
  update every 1 steps, delay 0 steps, check yes
  max neighbors/atom: 2000, page size: 100000
  master list distance cutoff = 11.3
  ghost atom cutoff = 11.3
  binsize = 5.65, bins = 5 60 5
  2 neighbor lists, perpetual/occasional/extra = 2 0 0
  (1) pair coul/long, perpetual
      attributes: half, newton on
      pair build: half/bin/newton
      stencil: half/bin/3d/newton
      bin: standard
  (2) pair eam/alloy, perpetual, copy from (1)
      attributes: half, newton on
      pair build: copy
      stencil: none
      bin: none
Setting up Verlet run ...
  Unit style    : metal
  Current step  : 0
  Time step     : 0.001
Per MPI rank memory allocation (min/avg/max) = 8.154 | 8.180 | 8.196 Mbytes
Step Temp E_pair E_mol TotEng Press 
       0          300    -230739.3            0    -230055.3   -59.186264 
   50000    298.49894   -230737.99            0   -230057.41   -114.94964 
Loop time of 318.357 on 52 procs for 50000 steps with 17640 atoms

Performance: 13.570 ns/day, 1.769 hours/ns, 157.056 timesteps/s
99.8% CPU use with 52 MPI tasks x 1 OpenMP threads

MPI task timing breakdown:
Section |  min time  |  avg time  |  max time  |%varavg| %total
---------------------------------------------------------------
Pair    | 214.1      | 220.44     | 228.79     |  22.1 | 69.24
Bond    | 0.0033373  | 0.005111   | 0.0096069  |   1.6 |  0.00
Kspace  | 67.159     | 75.426     | 82.514     |  41.0 | 23.69
Neigh   | 10.99      | 11.856     | 12.907     |  13.8 |  3.72
Comm    | 7.7665     | 8.4993     | 9.6436     |  13.4 |  2.67
Output  | 4.8612e-05 | 5.3605e-05 | 0.00026551 |   0.0 |  0.00
Modify  | 1.0004     | 1.4417     | 2.1938     |  29.2 |  0.45
Other   |            | 0.6874     |            |       |  0.22

Nlocal:        339.231 ave         368 max         318 min
Histogram: 4 4 7 10 7 7 4 7 0 2
Nghost:        4110.44 ave        4221 max        4007 min
Histogram: 5 6 8 3 6 3 6 5 6 4
Neighs:        67330.5 ave       74033 max       62086 min
Histogram: 2 7 4 9 11 6 9 2 1 1

Total # of neighbors = 3501187
Ave neighs/atom = 198.47999
Ave special neighs/atom = 0.0000000
Neighbor list builds = 5760
Dangerous builds = 0
11760 atoms in group oxygen
PPPM initialization ...
  using 12-bit tables for long-range coulomb (../kspace.cpp:328)
  G vector (1/distance) = 0.29892348
  grid = 40 240 40
  stencil order = 5
  estimated absolute RMS force accuracy = 0.0001553339
  estimated relative force accuracy = 1.0787343e-05
  using single precision MKL FFT
  3d grid and FFT values/proc = 15000 7600
Setting up Verlet run ...
  Unit style    : metal
  Current step  : 0
  Time step     : 0.001
Per MPI rank memory allocation (min/avg/max) = 8.405 | 8.431 | 8.446 Mbytes
Step f_2 Temp v_Tdiff v_deltaT 
       0            0    298.49894            0            0 
  100000    333.46177    300.48385 0.0096803023    112.38741 
  200000    658.08623     300.7397   0.01075347    124.84679 
  300000    981.50437    301.26201  0.010538272    122.34836 
  400000    1310.5046    300.07098  0.011001839    127.73033 
  500000    1635.2808    302.19387  0.010718346      124.439 
  600000    1961.8762     304.2623  0.011006439    127.78374 
  700000    2287.3328    303.45042  0.011110408    128.99081 
  800000     2614.815     304.8354  0.010887528    126.40318 
  900000    2946.5263    303.38171  0.010970723    127.36908 
 1000000    3274.4972    302.55558  0.011089373    128.74659 
Loop time of 6366 on 52 procs for 1000000 steps with 17640 atoms

Performance: 13.572 ns/day, 1.768 hours/ns, 157.084 timesteps/s
99.8% CPU use with 52 MPI tasks x 1 OpenMP threads

MPI task timing breakdown:
Section |  min time  |  avg time  |  max time  |%varavg| %total
---------------------------------------------------------------
Pair    | 4255.9     | 4400.9     | 4590.8     | 107.6 | 69.13
Bond    | 0.064588   | 0.10378    | 0.19899    |   7.2 |  0.00
Kspace  | 1326.6     | 1515.6     | 1652.3     | 194.2 | 23.81
Neigh   | 228.58     | 244.6      | 267.81     |  61.4 |  3.84
Comm    | 154.34     | 171.87     | 196.09     |  63.5 |  2.70
Output  | 0.0010991  | 0.0011648  | 0.0023393  |   0.5 |  0.00
Modify  | 5.8817     | 6.3815     | 7.146      |  11.8 |  0.10
Other   |            | 26.55      |            |       |  0.42

Nlocal:        339.231 ave         365 max         320 min
Histogram: 4 7 4 6 13 6 5 2 3 2
Nghost:        4118.62 ave        4246 max        4030 min
Histogram: 7 7 5 7 6 6 4 7 2 1
Neighs:        67333.1 ave       72888 max       63241 min
Histogram: 8 5 4 7 7 8 6 4 1 2

Total # of neighbors = 3501322
Ave neighs/atom = 198.48764
Ave special neighs/atom = 0.0000000
Neighbor list builds = 118496
Dangerous builds = 0
Total wall time: 1:51:24
