LAMMPS (29 Oct 2020)
OMP_NUM_THREADS environment is not set. Defaulting to 1 thread. (../comm.cpp:94)
  using 1 OpenMP thread(s) per MPI task
OMP_NUM_THREADS environment is not set. Defaulting to 1 thread. (../comm.cpp:94)
  using 1 OpenMP thread(s) per MPI task
Reading data file ...
  triclinic box = (-0.16405575 -2.0623759 -0.16347012) to (28.058056 336.79038 28.057470) with tilt (0.0000000 0.0000000 0.0000000)
  2 by 13 by 2 MPI processor grid
  reading atoms ...
  18001 atoms
  reading velocities ...
  18001 velocities
Finding 1-2 1-3 1-4 neighbors ...
  special bond factors lj:    0.0      0.0      0.0     
  special bond factors coul:  0.0      0.0      0.0     
     0 = max # of 1-2 neighbors
     0 = max # of 1-3 neighbors
     0 = max # of 1-4 neighbors
     1 = max # of special neighbors
  special bonds CPU = 0.004 seconds
  read_data CPU = 0.063 seconds
Setting atom values ...
  12000 settings made for charge
Setting atom values ...
  6001 settings made for charge
PPPM initialization ...
WARNING: System is not charge neutral, net charge = 2.2208000 (../kspace.cpp:313)
  using 12-bit tables for long-range coulomb (../kspace.cpp:328)
  G vector (1/distance) = 0.2985034
  grid = 40 240 40
  stencil order = 5
  estimated absolute RMS force accuracy = 0.00016046877
  estimated relative force accuracy = 1.1143939e-05
  using single precision MKL FFT
  3d grid and FFT values/proc = 15000 7600
Neighbor list info ...
  update every 1 steps, delay 0 steps, check yes
  max neighbors/atom: 2000, page size: 100000
  master list distance cutoff = 11.3
  ghost atom cutoff = 11.3
  binsize = 5.65, bins = 5 60 5
  2 neighbor lists, perpetual/occasional/extra = 2 0 0
  (1) pair coul/long, perpetual
      attributes: half, newton on
      pair build: half/bin/newton/tri
      stencil: half/bin/3d/newton/tri
      bin: standard
  (2) pair eam/alloy, perpetual, copy from (1)
      attributes: half, newton on
      pair build: copy
      stencil: none
      bin: none
Setting up Verlet run ...
  Unit style    : metal
  Current step  : 0
  Time step     : 0.001
Per MPI rank memory allocation (min/avg/max) = 8.317 | 8.345 | 8.362 Mbytes
Step Temp E_pair E_mol TotEng Press 
       0          900   -233948.74            0   -231854.73   -649.20986 
  100000    897.32068   -233969.07            0   -231881.29   -746.97903 
Loop time of 689.583 on 52 procs for 100000 steps with 18001 atoms

Performance: 12.529 ns/day, 1.916 hours/ns, 145.015 timesteps/s
99.8% CPU use with 52 MPI tasks x 1 OpenMP threads

MPI task timing breakdown:
Section |  min time  |  avg time  |  max time  |%varavg| %total
---------------------------------------------------------------
Pair    | 452.25     | 465.15     | 478.02     |  26.0 | 67.45
Bond    | 0.0071259  | 0.010755   | 0.016045   |   1.9 |  0.00
Kspace  | 127.03     | 143.03     | 156.22     |  57.7 | 20.74
Neigh   | 58.523     | 61.106     | 66         |  25.0 |  8.86
Comm    | 15.017     | 15.887     | 17.738     |  20.5 |  2.30
Output  | 5.4858e-05 | 5.979e-05  | 0.00025014 |   0.0 |  0.00
Modify  | 1.8345     | 3.1454     | 4.8532     |  59.3 |  0.46
Other   |            | 1.262      |            |       |  0.18

Nlocal:        346.173 ave         372 max         326 min
Histogram: 2 2 10 10 9 8 4 3 3 1
Nghost:        4041.56 ave        4152 max        3962 min
Histogram: 5 7 8 9 6 5 2 3 4 3
Neighs:        69754.6 ave       75647 max       65049 min
Histogram: 2 4 6 8 15 7 3 4 2 1

Total # of neighbors = 3627239
Ave neighs/atom = 201.50208
Ave special neighs/atom = 0.0000000
Neighbor list builds = 19791
Dangerous builds = 0
12000 atoms in group oxygen
PPPM initialization ...
  using 12-bit tables for long-range coulomb (../kspace.cpp:328)
  G vector (1/distance) = 0.2985034
  grid = 40 240 40
  stencil order = 5
  estimated absolute RMS force accuracy = 0.00016046877
  estimated relative force accuracy = 1.1143939e-05
  using single precision MKL FFT
  3d grid and FFT values/proc = 15000 7600
Setting up Verlet run ...
  Unit style    : metal
  Current step  : 0
  Time step     : 0.001
Per MPI rank memory allocation (min/avg/max) = 8.568 | 8.596 | 8.613 Mbytes
Step f_2 Temp v_Tdiff v_deltaT 
       0            0    897.32068            0            0 
  100000    956.64892    893.22345  0.038208924    443.60206 
  200000    1854.7313    898.25776  0.045435137    527.49772 
  300000    2758.4274    904.72066  0.044207278    513.24239 
  400000    3671.2141    908.33294  0.044864437    520.87195 
  500000    4581.5016    899.92769  0.044750466    519.54875 
  600000    5497.6488    906.21241  0.043936612    510.09998 
  700000    6414.4418    907.35593  0.044457153    516.14341 
  800000    7321.1011    904.33543  0.044245077    513.68124 
  900000     8227.879    906.95019  0.044659102    518.48803 
 1000000    9151.0755     905.1418  0.043967793    510.46199 
 1100000    10065.985    907.01579  0.044971547    522.11548 
 1200000    10978.688    904.80292  0.045613615    529.56983 
 1300000    11891.795     907.1115  0.045262319    525.49132 
 1400000    12813.561    904.75538  0.043924324    509.95733 
 1500000    13727.304    908.42654  0.044971866    522.11919 
Loop time of 10191.2 on 52 procs for 1500000 steps with 18001 atoms

Performance: 12.717 ns/day, 1.887 hours/ns, 147.186 timesteps/s
99.8% CPU use with 52 MPI tasks x 1 OpenMP threads

MPI task timing breakdown:
Section |  min time  |  avg time  |  max time  |%varavg| %total
---------------------------------------------------------------
Pair    | 6678.1     | 6818.5     | 7023.8     |  91.1 | 66.91
Bond    | 0.099256   | 0.15697    | 0.23742    |   7.2 |  0.00
Kspace  | 1897.8     | 2140.8     | 2277.3     | 181.0 | 21.01
Neigh   | 888.21     | 939.28     | 1004.9     |  82.0 |  9.22
Comm    | 223.42     | 238.12     | 278.83     |  96.9 |  2.34
Output  | 0.0015625  | 0.0016537  | 0.0033209  |   0.6 |  0.00
Modify  | 8.2222     | 8.8342     | 9.5714     |  11.4 |  0.09
Other   |            | 45.48      |            |       |  0.45

Nlocal:        346.173 ave         368 max         329 min
Histogram: 1 6 7 9 11 8 2 4 3 1
Nghost:        4043.44 ave        4120 max        3976 min
Histogram: 5 3 5 6 10 11 3 2 4 3
Neighs:        69751.6 ave       75220 max       65726 min
Histogram: 1 6 7 10 11 7 6 2 1 1

Total # of neighbors = 3627083
Ave neighs/atom = 201.49342
Ave special neighs/atom = 0.0000000
Neighbor list builds = 304373
Dangerous builds = 0
Total wall time: 3:01:21
