ITEM: TIMESTEP
40000
ITEM: NUMBER OF ATOMS
17730
ITEM: BOX BOUNDS pp pp pp
-4.4598146636148606e-01 2.7785981466361225e+01
-5.3400232923344610e+00 3.3342002329233623e+02
-4.5522024713625420e-01 2.7795220247135909e+01
ITEM: ATOMS id type q x y z
1 2 2.2208 5.2069 0.379576 5.3319
2 1 -1.1104 0.949069 -3.93393 0.987061
6 1 -1.1104 1.01766 -3.97118 3.75737
10 1 -1.1104 0.971725 -1.126 0.829804
12 2 2.2208 5.25215 -2.47985 2.28209
14 1 -1.1104 0.887079 -1.10788 3.59247
16 1 -1.1104 3.99887 -4.00468 0.919124
18 2 2.2208 2.46185 0.197931 2.40611
19 1 -1.1104 3.9778 -3.98348 3.53042
21 2 2.2208 2.22324 -2.52592 5.09699
23 1 -1.1104 3.84176 -1.1427 0.982976
24 1 -1.1104 3.83279 -1.23913 3.76065
162 1 -1.1104 3.75624 -0.996724 6.53543
160 1 -1.1104 3.73621 -3.95309 6.35785
8 1 -1.1104 6.62342 -4.07238 3.88135
11 1 -1.1104 6.61319 -1.37757 0.77404
15 1 -1.1104 6.62728 -1.09508 3.86347
159 1 -1.1104 6.65415 -1.12816 6.62919
4 1 -1.1104 6.58707 -4.05132 0.931901
314 2 2.2208 13.5393 5.8869 2.03188
31 2 2.2208 10.8343 0.372909 5.18377
32 1 -1.1104 12.1297 -3.91498 1.03862
34 1 -1.1104 12.4665 -3.71609 3.8393
36 1 -1.1104 12.1979 -1.1201 0.799835
37 2 2.2208 10.9617 -2.43863 2.29488
39 1 -1.1104 12.3186 -1.00712 3.5237
40 1 -1.1104 9.20046 -3.89146 0.778787
42 2 2.2208 7.78917 0.125546 2.31398
43 1 -1.1104 9.59971 -3.87269 3.62704
45 2 2.2208 7.94232 -2.37732 5.20952
47 1 -1.1104 9.33185 -1.16147 0.707647
48 1 -1.1104 9.38315 -1.10475 3.89681
195 1 -1.1104 12.5032 -1.13939 6.46671
196 1 -1.1104 9.29832 -3.992 6.67989
193 1 -1.1104 12.0313 -3.90522 6.40428
431 2 2.2208 5.07053 8.61168 13.5758
427 2 2.2208 2.08096 11.6124 13.5235
198 1 -1.1104 9.4098 -1.17846 6.64509
25 2 2.2208 13.5615 14.3201 11.0711
151 1 -1.1104 9.45934 16.0261 6.57231
9039 2 2.2208 13.4164 3.17181 10.751
3 1 -1.1104 0.834387 1.50156 1.26588
7 1 -1.1104 0.50193 2.25821 3.81943
13 2 2.2208 5.1645 2.99552 2.53848
17 1 -1.1104 3.66981 1.68556 1.21497
20 1 -1.1104 3.54041 1.48866 3.9279
22 2 2.2208 2.07959 3.07524 5.45603
54 2 2.2208 5.02566 5.93998 5.12723
74 1 -1.1104 3.35872 4.00173 3.71869
8976 1 -1.1104 0.517661 4.15193 0.701
56 1 -1.1104 0.438887 7.34705 0.745773
61 1 -1.1104 6.1708 4.62743 1.04243
70 1 -1.1104 3.59701 7.57868 3.78742
227 1 -1.1104 3.70279 4.38604 6.34915
155 1 -1.1104 0.811714 1.52463 6.47604
222 1 -1.1104 1.00457 7.58846 6.71794
223 1 -1.1104 6.50517 7.00026 6.60326
68 1 -1.1104 3.66751 7.52678 0.675511
224 1 -1.1104 1.07682 4.34376 6.86342
157 1 -1.1104 6.56054 1.59851 6.6306
5 1 -1.1104 6.56677 1.50999 0.825416
9 1 -1.1104 6.3828 1.41912 3.86047
66 1 -1.1104 6.57834 4.26685 3.67045
9115 2 2.2208 13.5479 5.965 7.90399
58 1 -1.1104 6.42591 7.20936 3.68376
57 1 -1.1104 6.40372 7.47314 1.05885
33 1 -1.1104 12.3444 1.70455 0.782134
35 1 -1.1104 11.9498 1.86903 3.83802
38 2 2.2208 10.6129 3.00195 2.39846
41 1 -1.1104 9.27455 1.59697 1.06099
44 1 -1.1104 8.98685 1.65697 3.57997
46 2 2.2208 7.85633 2.89453 5.12553
78 2 2.2208 10.8126 5.96501 4.96362
82 1 -1.1104 11.8929 4.56615 0.907096
86 1 -1.1104 12.2912 4.34426 3.58195
88 1 -1.1104 9.22304 7.34233 0.988501
89 2 2.2208 7.85795 5.9828 2.45344
91 1 -1.1104 9.27198 7.44093 3.62874
93 1 -1.1104 8.94264 4.62749 0.901454
96 1 -1.1104 9.39037 4.54029 3.56321
81 1 -1.1104 12.0943 7.33003 3.45065
197 1 -1.1104 9.34608 1.45365 6.91231
194 1 -1.1104 12.3828 1.7183 6.77296
80 1 -1.1104 12.1154 7.28003 0.823589
257 1 -1.1104 9.23567 4.53342 6.25228
225 1 -1.1104 6.44902 4.19634 6.54083
316 2 2.2208 13.4735 17.2057 13.5176
253 1 -1.1104 12.1818 7.2543 6.19281
254 1 -1.1104 12.0738 4.46243 6.44303
306 2 2.2208 2.10055 0.253347 13.4898
55 2 2.2208 5.10846 11.5194 5.09497
59 1 -1.1104 0.66804 10.4199 0.980551
64 2 2.2208 4.96228 8.87215 2.33948
65 1 -1.1104 0.72377 9.77473 3.65658
69 2 2.2208 2.32707 11.3814 2.49983
71 2 2.2208 2.21747 8.95216 5.22004
72 1 -1.1104 3.68592 10.3378 0.92084
75 1 -1.1104 3.53505 10.0861 3.84185
100 1 -1.1104 1.71325 13.025 1.04539
106 1 -1.1104 0.610129 12.9014 3.65135
114 1 -1.1104 3.19493 13.0931 3.84231
101 1 -1.1104 0.820726 13.129 6.50388
60 1 -1.1104 0.934273 10.3611 6.40901
122 1 -1.1104 3.64837 12.9468 6.54504
62 1 -1.1104 6.23379 10.2038 0.969682
104 1 -1.1104 6.48152 12.8143 6.57925
119 2 2.2208 2.13242 14.3568 5.11667
73 1 -1.1104 3.52531 10.1977 6.49698
67 1 -1.1104 6.39502 10.1902 3.62022
103 1 -1.1104 6.19916 12.9591 0.686363
108 1 -1.1104 6.55925 12.8868 3.88052
79 2 2.2208 10.7845 11.6592 5.10293
83 1 -1.1104 12.2092 10.1804 0.960803
85 2 2.2208 10.6361 8.75072 2.24381
87 1 -1.1104 12.1429 10.4142 3.6255
90 2 2.2208 7.79074 11.6843 2.17269
92 2 2.2208 7.97784 8.79456 5.13669
94 1 -1.1104 9.22919 10.1208 0.783783
97 1 -1.1104 9.30913 10.367 3.53081
130 1 -1.1104 12.2904 12.9079 0.982762
134 1 -1.1104 12.0115 13.1591 3.90236
141 1 -1.1104 9.23653 12.9213 0.989099
146 1 -1.1104 9.34404 13.3253 3.78168
26 2 2.2208 13.5375 20.1002 10.7347
84 1 -1.1104 12.1804 10.0142 6.31599
434 2 2.2208 10.611 8.88963 13.4897
163 1 -1.1104 12.0361 15.9902 9.14278
102 1 -1.1104 0.559206 18.6992 0.793246
107 1 -1.1104 0.562258 18.6844 3.90265
109 1 -1.1104 0.620712 15.9865 0.992712
112 2 2.2208 5.08083 19.9374 2.33476
113 1 -1.1104 1.09733 15.9701 3.69411
115 1 -1.1104 3.36474 18.6374 0.630854
117 2 2.2208 2.07148 17.3193 2.15999
118 1 -1.1104 3.4303 18.8561 3.39741
120 2 2.2208 2.17098 20.124 4.95603
121 1 -1.1104 3.43531 15.9726 0.680526
292 1 -1.1104 3.21292 15.5513 6.89383
110 1 -1.1104 0.525356 15.8863 6.39557
126 1 -1.1104 6.49565 19.0297 0.922777
28 2 2.2208 13.5104 17.1051 7.84549
290 1 -1.1104 1.03379 18.7678 6.56235
164 2 2.2208 13.4816 14.3364 4.97968
219 1 -1.1104 8.81012 15.7188 12.2819
128 1 -1.1104 6.54998 16.2051 0.710454
148 2 2.2208 7.897 14.4429 5.27329
138 2 2.2208 10.7141 14.4426 2.27967
127 1 -1.1104 6.52678 18.5514 3.55897
129 2 2.2208 10.6543 17.2372 5.12984
132 1 -1.1104 12.2902 18.7287 0.750899
135 1 -1.1104 12.044 18.7846 3.64172
136 1 -1.1104 11.9486 15.7387 0.816034
139 2 2.2208 10.736 20.0612 2.287
140 1 -1.1104 11.924 15.9021 3.68491
143 1 -1.1104 9.3087 18.6709 0.67069
145 2 2.2208 7.90339 17.459 2.10718
147 1 -1.1104 9.31519 18.6303 3.54232
149 2 2.2208 7.71701 19.8055 5.12028
150 1 -1.1104 9.39933 16.1107 1.03964
152 1 -1.1104 8.84609 16.0338 3.93021
144 1 -1.1104 9.14874 18.461 6.34857
133 1 -1.1104 11.9938 18.5876 6.41971
17352 2 2.2208 13.5464 -5.41034 7.97616
76 1 -1.1104 12.1177 18.6715 9.31917
8519 2 2.2208 10.5957 -5.28645 10.8232
154 1 -1.1104 1.01992 -4.04504 6.44512
158 1 -1.1104 0.914518 -1.26542 6.53921
156 1 -1.1104 6.43358 -3.76746 6.55553
166 2 2.2208 4.87091 0.183147 10.5741
167 1 -1.1104 0.842412 -4.04091 12.1717
171 1 -1.1104 0.811955 -3.69499 9.41102
175 1 -1.1104 0.683732 -1.15559 12.0111
177 2 2.2208 5.1564 -2.57431 7.85309
179 1 -1.1104 0.633645 -1.08327 9.24056
181 1 -1.1104 3.73557 -4.21746 12.0522
183 2 2.2208 2.13064 0.187665 7.99129
184 1 -1.1104 3.71928 -3.92178 9.21584
186 2 2.2208 2.16423 -2.49495 10.7817
188 1 -1.1104 3.48106 -1.25715 12.0955
189 1 -1.1104 3.38919 -0.94765 9.4651
173 1 -1.1104 6.58239 -4.02509 9.3423
169 1 -1.1104 6.36393 -3.86304 12.1421
180 1 -1.1104 6.33416 -1.1668 9.40723
176 1 -1.1104 6.27208 -0.853148 12.4102
9230 2 2.2208 13.4436 8.66193 10.6786
201 2 2.2208 10.5531 0.102293 10.9097
202 1 -1.1104 12.019 -3.94424 12.04
204 1 -1.1104 12.2157 -3.81787 9.08553
206 1 -1.1104 12.0531 -1.16923 12.2617
207 2 2.2208 10.6653 -2.60466 8.0629
209 1 -1.1104 11.9269 -1.05409 9.49284
210 1 -1.1104 9.14285 -3.96141 12.3633
212 2 2.2208 7.76137 0.236048 8.16264
213 1 -1.1104 9.39085 -3.88045 9.51531
215 2 2.2208 7.89639 -2.5435 10.8257
217 1 -1.1104 9.1517 -1.14847 12.3877
218 1 -1.1104 9.08031 -1.20756 9.48074
8520 2 2.2208 7.91297 -5.29196 7.96658
8524 2 2.2208 10.8055 -5.30548 -0.401582
321 2 2.2208 13.5965 3.14019 5.08851
658 2 2.2208 7.67465 17.3828 13.6101
161 1 -1.1104 3.58644 1.76173 7.01288
226 1 -1.1104 3.69206 7.0832 6.66291
168 1 -1.1104 0.519397 1.68625 12.161
172 1 -1.1104 0.684509 1.70323 9.34826
178 2 2.2208 5.09173 3.11876 8.14657
182 1 -1.1104 3.47951 1.63728 12.3325
185 1 -1.1104 3.71837 1.80779 9.45917
187 2 2.2208 2.08175 3.2214 10.6627
228 2 2.2208 5.04146 5.95369 10.691
234 1 -1.1104 0.900582 4.33865 12.3511
239 1 -1.1104 0.653829 4.7225 9.58722
244 2 2.2208 2.01748 6.04591 7.9294
248 1 -1.1104 3.75005 4.54886 12.2272
250 1 -1.1104 3.59883 4.85714 9.30194
232 1 -1.1104 0.796937 7.21475 9.49549
243 1 -1.1104 3.69059 7.24096 12.1659
246 1 -1.1104 3.49212 7.43459 9.36539
236 1 -1.1104 6.5269 4.33662 12.731
230 1 -1.1104 0.664104 7.15798 12.2937
241 1 -1.1104 6.30685 4.32818 9.6102
170 1 -1.1104 6.3011 1.62497 12.2824
174 1 -1.1104 6.52784 1.63406 9.36791
496 2 2.2208 10.6298 14.1463 13.5652
255 1 -1.1104 9.26733 7.26991 6.85015
8515 2 2.2208 10.74 -5.12965 4.9855
231 1 -1.1104 6.40095 6.95544 12.0877
233 1 -1.1104 6.50983 7.17482 9.31462
203 1 -1.1104 11.7727 1.76229 12.3795
205 1 -1.1104 12.2024 1.75111 9.37686
208 2 2.2208 10.8435 2.97517 7.88468
211 1 -1.1104 9.1018 1.62666 12.3974
214 1 -1.1104 9.46426 1.70187 9.68013
216 2 2.2208 7.87749 2.94435 10.9153
256 1 -1.1104 9.20312 4.48907 9.29317
259 1 -1.1104 9.28455 4.53598 12.2402
263 2 2.2208 7.81383 5.75358 7.85586
264 2 2.2208 10.5555 5.8124 10.8275
266 1 -1.1104 12.0675 7.20266 12.196
268 1 -1.1104 12.0225 4.42975 12.3109
271 1 -1.1104 12.1275 4.65238 9.10437
261 1 -1.1104 9.22462 7.24472 9.52492
267 1 -1.1104 12.0391 7.38773 9.35774
273 1 -1.1104 9.21401 7.26873 12.1253
8905 2 2.2208 13.5013 -2.4997 10.6148
324 2 2.2208 13.5674 5.93445 13.5367
63 1 -1.1104 6.63549 9.92846 6.3949
309 2 2.2208 7.8458 0.325215 13.7328
229 2 2.2208 5.16445 11.5912 10.6656
235 1 -1.1104 0.709868 9.89973 12.2076
238 2 2.2208 5.00183 8.57212 8.03439
240 1 -1.1104 0.984808 10.1569 9.15098
245 2 2.2208 2.17125 11.7964 7.89571
247 2 2.2208 2.19111 8.77857 10.7577
249 1 -1.1104 3.53449 10.4115 12.0032
251 1 -1.1104 3.60844 10.101 9.29845
275 1 -1.1104 3.36298 13.3587 12.2421
282 1 -1.1104 0.828442 13.0157 9.26918
287 1 -1.1104 0.731504 13.1127 12.2062
293 1 -1.1104 3.74458 12.91 9.34999
237 1 -1.1104 6.33529 10.2027 12.1059
242 1 -1.1104 6.3658 9.9734 9.38279
278 1 -1.1104 6.50597 12.9699 9.3818
285 1 -1.1104 6.46688 13.1287 12.238
165 2 2.2208 13.4905 20.1392 5.08487
582 2 2.2208 13.5808 11.5506 13.5852
142 1 -1.1104 9.22653 12.9899 6.66814
52 2 2.2208 13.5793 0.244882 2.20296
111 1 -1.1104 6.54025 15.8621 6.4585
131 1 -1.1104 12.0345 12.9673 6.69507
95 1 -1.1104 9.39714 10.051 6.56479
199 1 -1.1104 9.35232 13.1631 9.40751
252 1 -1.1104 9.27975 10.3132 9.30565
258 1 -1.1104 9.37397 10.1367 12.0723
260 2 2.2208 7.84692 8.77685 10.754
262 2 2.2208 7.74554 11.6229 7.87596
265 2 2.2208 10.7494 11.656 10.6235
269 1 -1.1104 12.2104 10.0447 12.011
270 2 2.2208 10.5976 8.78566 7.98183
272 1 -1.1104 11.9832 10.2572 9.44806
190 1 -1.1104 9.43735 12.7045 12.2836
30 1 -1.1104 12.0047 12.8493 12.2016
53 1 -1.1104 12.1226 13.1844 9.40256
493 2 2.2208 5.10435 20.2197 13.6241
315 2 2.2208 2.20138 17.3098 13.4252
51 2 2.2208 13.4858 11.6141 7.82238
298 2 2.2208 2.07861 14.4093 10.7165
283 2 2.2208 4.97811 14.3904 7.96665
116 1 -1.1104 3.71752 18.3666 9.03836
274 1 -1.1104 3.4526 18.7122 12.0769
279 1 -1.1104 1.00448 18.6481 9.49939
280 1 -1.1104 0.566654 15.6973 9.14516
281 2 2.2208 5.1028 20.0941 8.24231
286 1 -1.1104 0.761797 18.6702 12.0594
288 2 2.2208 4.9813 17.2489 10.5874
289 1 -1.1104 3.4727 15.7265 9.57042
291 2 2.2208 1.97568 17.0751 8.13907
295 1 -1.1104 0.69969 16.0617 11.9173
296 1 -1.1104 3.57184 15.8715 12.3166
297 2 2.2208 2.22388 20.0898 10.8271
276 1 -1.1104 6.40575 18.8067 9.48299
77 1 -1.1104 11.8458 15.632 12.0191
105 1 -1.1104 6.29062 18.8039 6.73956
123 2 2.2208 10.8684 19.9257 7.77897
302 1 -1.1104 9.2087 16.003 9.37262
98 2 2.2208 13.6189 11.6631 2.0853
49 1 -1.1104 12.0926 18.3219 12.115
200 2 2.2208 7.88277 20.2905 10.5912
220 1 -1.1104 9.48405 18.7539 9.13617
221 2 2.2208 7.92151 14.3831 10.8198
192 2 2.2208 7.86204 17.1484 7.85283
153 2 2.2208 13.4134 17.2441 2.2466
29 2 2.2208 10.6685 17.2927 10.605
284 1 -1.1104 6.30789 18.9692 11.9754
99 2 2.2208 10.85 14.4139 7.87744
277 1 -1.1104 6.40306 15.7445 9.41571
294 1 -1.1104 6.06546 15.9129 12.3267
137 1 -1.1104 12.2321 15.5531 6.44784
191 1 -1.1104 9.1841 18.565 12.1269
8933 2 2.2208 13.635 8.69712 5.03165
433 2 2.2208 8.00238 11.5524 13.46
657 2 2.2208 5.00458 14.3694 13.5506
521 2 2.2208 10.6903 19.8831 13.415
305 2 2.2208 5.1401 -2.72234 13.644
637 2 2.2208 7.81616 8.78804 -0.420041
9198 2 2.2208 -0.285852 -2.47721 2.21881
311 2 2.2208 13.3223 0.294894 13.6629
299 2 2.2208 -0.348851 19.9531 7.81325
312 2 2.2208 2.28012 5.99892 13.5287
611 2 2.2208 5.06739 6.14102 -0.517186
307 2 2.2208 4.78304 3.03299 13.5404
50 2 2.2208 2.10772 8.98858 -0.37275
327 2 2.2208 5.0979 0.334063 16.485
328 1 -1.1104 0.802327 -4.19909 17.7709
332 1 -1.1104 0.867614 -4.22024 15.0818
340 1 -1.1104 1.17748 -1.55127 17.8739
342 2 2.2208 5.26727 -2.52533 19.1601
344 1 -1.1104 0.760167 -1.13 14.9084
348 1 -1.1104 3.68263 -3.84391 17.6391
350 2 2.2208 2.08215 0.162688 19.3535
351 1 -1.1104 3.62104 -4.2224 14.856
355 2 2.2208 2.35711 -2.6878 16.3655
357 1 -1.1104 3.80367 -0.926499 18.1109
358 1 -1.1104 3.68303 -1.46232 15.0994
346 1 -1.1104 6.50345 -1.10719 15.3011
330 1 -1.1104 6.35054 -4.04451 17.7676
341 1 -1.1104 6.67411 -1.20167 18.0442
352 1 -1.1104 3.79075 -4.05031 20.9228
333 1 -1.1104 0.991116 -4.18494 20.6172
359 1 -1.1104 3.55973 -1.17304 20.7733
613 2 2.2208 4.99882 11.6658 27.6106
336 1 -1.1104 6.43329 -3.97942 15.0295
370 2 2.2208 10.6907 0.436672 16.4958
371 1 -1.1104 11.9279 -3.91525 17.7678
373 1 -1.1104 12.1935 -3.90156 14.8889
377 1 -1.1104 12.0042 -1.16555 18.022
378 2 2.2208 10.5332 -2.65743 19.3064
380 1 -1.1104 12.0394 -0.94069 15.1018
382 1 -1.1104 9.2364 -4.092 17.9073
384 2 2.2208 7.96288 0.337993 19.5385
385 1 -1.1104 9.33049 -4.12947 15.0109
389 2 2.2208 7.84197 -2.63697 16.4042
391 1 -1.1104 9.35179 -1.03196 17.7959
392 1 -1.1104 9.27233 -1.09991 14.9611
386 1 -1.1104 9.39175 -3.83711 20.6946
393 1 -1.1104 9.31166 -1.06529 20.6094
362 2 2.2208 13.5624 3.22882 22.0661
581 2 2.2208 13.4572 8.86056 16.494
550 2 2.2208 2.08573 2.85783 27.643
552 2 2.2208 13.4985 14.4625 16.4108
353 1 -1.1104 3.72508 1.61009 15.051
329 1 -1.1104 0.712942 1.2146 17.824
334 1 -1.1104 0.710082 1.67508 14.8488
343 2 2.2208 4.75903 3.09597 19.5908
349 1 -1.1104 3.38017 1.96397 18.2088
356 2 2.2208 2.29724 3.04427 16.4806
406 1 -1.1104 0.853232 4.25768 15.1982
414 1 -1.1104 3.62464 4.40323 15.1717
425 1 -1.1104 1.2 3.96268 18.2302
338 1 -1.1104 6.5945 1.90798 15.4036
422 1 -1.1104 0.587875 7.52808 14.9958
407 1 -1.1104 0.7924 7.15522 20.5547
409 1 -1.1104 6.71639 7.33467 20.9295
404 1 -1.1104 1.15149 7.23907 17.6302
420 1 -1.1104 3.59452 7.52434 14.8035
331 1 -1.1104 6.28618 1.66053 18.0358
411 1 -1.1104 6.31647 4.34334 18.1747
405 1 -1.1104 6.49593 7.39564 18.0525
423 1 -1.1104 4.15456 7.6481 20.9837
8567 2 2.2208 10.6694 -5.17716 22.2492
580 2 2.2208 13.5659 6.14978 19.2648
408 1 -1.1104 6.39978 7.57176 15.0604
372 1 -1.1104 11.9032 1.76642 18.0529
375 1 -1.1104 12.1683 1.77902 15.113
379 2 2.2208 10.618 3.11994 19.5193
383 1 -1.1104 9.22322 1.66595 18.3088
387 1 -1.1104 9.34642 1.87455 15.2782
390 2 2.2208 7.8765 3.15558 16.7708
435 2 2.2208 10.5036 6.14206 16.5213
437 1 -1.1104 12.3362 7.58542 17.8088
438 1 -1.1104 12.1333 7.40523 14.8348
440 1 -1.1104 12.1282 4.5946 18.2168
443 1 -1.1104 11.823 4.76559 15.3032
448 2 2.2208 7.8261 5.86149 19.4564
450 1 -1.1104 9.30766 7.57451 14.9395
453 1 -1.1104 9.37219 4.62616 18.0283
455 1 -1.1104 8.82899 4.80588 15.2642
447 1 -1.1104 9.30111 7.49113 17.8756
376 1 -1.1104 12.1236 1.76969 20.7964
388 1 -1.1104 9.53098 1.76296 21.1552
417 1 -1.1104 6.69638 4.41052 21.0059
444 1 -1.1104 12.0871 4.66114 20.7791
609 1 -1.1104 3.73778 4.18414 27.2355
366 2 2.2208 13.4023 3.40426 16.4468
546 2 2.2208 13.5192 20.2473 22.0435
365 2 2.2208 13.4642 0.130398 19.4282
403 2 2.2208 4.7998 11.5822 16.063
410 1 -1.1104 0.812534 10.055 17.6795
413 2 2.2208 5.26099 8.87419 19.313
415 1 -1.1104 0.763442 10.3244 14.9657
421 2 2.2208 2.16221 11.6067 19.1696
424 2 2.2208 2.22809 8.72142 16.1162
426 1 -1.1104 3.72388 9.4711 17.6856
429 1 -1.1104 3.52057 10.2267 14.7607
462 1 -1.1104 0.708562 13.0464 17.8122
466 1 -1.1104 0.788221 13.0317 14.9815
480 1 -1.1104 3.51451 12.8605 18.0141
483 1 -1.1104 3.34824 12.9749 14.9433
430 1 -1.1104 3.68557 10.2807 20.3553
464 1 -1.1104 6.28476 13.0382 17.7978
412 1 -1.1104 6.33576 10.4995 17.9166
469 1 -1.1104 6.40372 13.0045 14.9687
467 1 -1.1104 0.825612 12.8508 20.7085
418 1 -1.1104 6.31325 10.1898 14.8636
470 1 -1.1104 6.59383 12.9677 20.8752
484 1 -1.1104 3.68886 13.1908 20.7335
655 2 2.2208 13.6791 8.71544 27.7679
436 2 2.2208 10.7155 11.7258 16.4158
441 1 -1.1104 12.0409 10.2693 17.9441
442 2 2.2208 10.7661 8.93688 19.1852
445 1 -1.1104 11.9903 10.3946 15.0753
449 2 2.2208 7.90468 11.6588 19.0679
452 2 2.2208 7.59294 8.8567 16.4316
454 1 -1.1104 9.14699 10.1987 17.7602
457 1 -1.1104 9.34441 10.2444 14.9296
498 1 -1.1104 12.1188 13.1092 17.826
500 1 -1.1104 12.202 13.1459 14.9885
509 1 -1.1104 9.28735 13.0467 17.7954
512 1 -1.1104 9.1246 13.0124 14.9755
458 1 -1.1104 9.44082 10.2259 20.5824
446 1 -1.1104 12.0708 10.141 20.837
513 1 -1.1104 9.4599 12.8713 20.6524
501 1 -1.1104 12.1086 13.2149 20.6302
363 2 2.2208 13.7546 17.3591 24.6802
396 2 2.2208 13.5615 20.0733 16.3452
475 2 2.2208 5.02071 14.2419 19.2153
487 2 2.2208 2.15898 14.5068 16.2013
461 2 2.2208 5.09077 17.2612 16.606
463 1 -1.1104 0.915817 18.7926 17.7513
468 1 -1.1104 0.936451 18.598 14.8749
473 1 -1.1104 0.707178 15.9787 17.8253
476 2 2.2208 4.91674 20.0962 19.2644
477 1 -1.1104 0.919523 15.9851 14.9115
481 1 -1.1104 3.63419 18.6549 17.628
482 2 2.2208 2.02158 17.3743 19.2073
485 1 -1.1104 3.68487 18.7194 14.8036
488 2 2.2208 2.27387 20.1044 16.2257
489 1 -1.1104 3.56175 15.845 18.2134
490 1 -1.1104 3.90457 15.6749 15.373
486 1 -1.1104 3.91846 18.2813 20.3664
491 1 -1.1104 0.890468 15.8168 20.5327
474 1 -1.1104 6.46241 16.0606 18.1023
465 1 -1.1104 6.55805 18.9164 18.1443
478 1 -1.1104 6.67761 15.8601 15.3727
471 1 -1.1104 6.29245 18.6821 15.111
516 2 2.2208 7.9149 14.4164 16.5321
505 2 2.2208 10.8138 14.4432 19.2537
497 2 2.2208 10.576 17.3085 16.2934
499 1 -1.1104 12.2149 18.7889 17.5752
502 1 -1.1104 12.1132 18.6138 14.7837
504 1 -1.1104 12.0152 15.8381 17.7645
506 2 2.2208 10.92 19.9576 19.1304
507 1 -1.1104 11.8814 16.0052 14.8817
510 1 -1.1104 9.2661 18.7652 17.743
511 2 2.2208 8.02169 17.336 19.0744
514 1 -1.1104 9.09301 18.6766 14.9946
517 2 2.2208 7.74079 20.0711 16.3253
518 1 -1.1104 9.30998 15.7154 17.7595
519 1 -1.1104 9.32605 15.855 15.1133
515 1 -1.1104 9.42839 18.5635 20.5782
503 1 -1.1104 12.5635 18.6377 20.5107
520 1 -1.1104 9.24681 15.7597 20.694
360 2 2.2208 13.5664 14.4042 22.1572
368 2 2.2208 10.8252 20.0734 24.8359
345 1 -1.1104 0.67101 -1.08251 20.6759
347 1 -1.1104 6.4271 -1.16585 20.7422
522 2 2.2208 5.13173 0.165603 22.1932
523 1 -1.1104 1.00562 -3.9866 23.5777
527 1 -1.1104 0.966167 -4.24135 26.2813
531 1 -1.1104 0.8938 -0.942579 23.3726
533 2 2.2208 5.3276 -2.73499 24.9438
535 1 -1.1104 0.790756 -1.30079 26.3354
537 1 -1.1104 4.02685 -4.05181 23.57
539 2 2.2208 2.36685 0.354175 24.6283
540 1 -1.1104 3.87091 -3.97483 26.3165
542 2 2.2208 2.25618 -2.73696 22.0129
544 1 -1.1104 4.05455 -1.05669 23.8777
545 1 -1.1104 3.63724 -1.18586 26.5306
337 1 -1.1104 6.38996 -4.04869 20.4672
532 1 -1.1104 6.75635 -1.04603 23.7749
536 1 -1.1104 6.48476 -0.965535 26.4742
529 1 -1.1104 6.86113 -3.72166 26.0959
525 1 -1.1104 6.71713 -3.97746 23.2308
659 2 2.2208 10.7109 17.2629 27.6114
495 1 -1.1104 9.26115 15.7749 26.5032
374 1 -1.1104 12.2167 -4.14712 20.6656
381 1 -1.1104 12.0832 -1.32233 20.834
9539 2 2.2208 13.3437 -2.53158 16.4344
584 2 2.2208 13.524 -2.55579 22.1866
558 2 2.2208 10.6472 0.157663 22.2315
559 1 -1.1104 12.2246 -3.88784 23.6281
561 1 -1.1104 12.1711 -4.05923 26.215
563 1 -1.1104 12.3344 -0.969148 23.5585
564 2 2.2208 10.7488 -2.42704 24.8637
566 1 -1.1104 12.1881 -1.22689 26.3419
567 1 -1.1104 9.44135 -4.0262 23.7413
569 2 2.2208 7.96068 0.157506 25.028
570 1 -1.1104 9.46242 -3.96419 26.4858
572 2 2.2208 7.97532 -2.4855 22.0482
574 1 -1.1104 9.56145 -1.45425 23.2865
575 1 -1.1104 9.49437 -1.12501 26.293
560 1 -1.1104 12.397 1.7925 23.397
508 1 -1.1104 12.0736 16.1849 20.3336
9540 2 2.2208 13.6855 0.408988 24.8704
428 1 -1.1104 3.92973 4.4728 21.0536
354 1 -1.1104 3.60868 1.47581 20.8599
339 1 -1.1104 6.62353 1.69932 20.7939
335 1 -1.1104 0.909247 1.89527 20.7911
524 1 -1.1104 0.846052 1.89771 23.6434
528 1 -1.1104 0.870167 1.52593 26.3669
534 2 2.2208 5.1183 3.10576 25.1267
538 1 -1.1104 3.72352 1.76285 23.5405
541 1 -1.1104 3.90998 1.61459 26.3511
543 2 2.2208 2.34514 3.17306 22.2538
587 2 2.2208 5.25902 5.97759 22.1263
593 1 -1.1104 0.760062 4.52284 23.136
598 1 -1.1104 1.04145 4.60824 26.1418
603 2 2.2208 2.15845 6.02947 24.8202
605 1 -1.1104 3.38459 7.41602 26.3703
607 1 -1.1104 3.38671 4.31162 24.1925
589 1 -1.1104 0.881486 7.41936 23.3497
591 1 -1.1104 0.535498 7.31447 26.0483
636 2 2.2208 10.7647 6.10665 27.6699
530 1 -1.1104 6.64122 1.81341 26.3035
600 1 -1.1104 6.57095 4.64551 26.4226
595 1 -1.1104 6.62565 4.43325 23.6815
526 1 -1.1104 6.60822 1.64605 23.5991
590 1 -1.1104 6.55962 7.20796 23.5348
602 1 -1.1104 3.58411 7.12774 23.5471
549 1 -1.1104 12.1045 15.6677 23.3075
492 2 2.2208 7.9919 19.9151 22.0021
361 2 2.2208 13.4367 8.7348 22.2325
641 2 2.2208 13.4433 6.1294 24.9147
456 1 -1.1104 9.38155 4.38334 20.7576
548 2 2.2208 5.09235 0.26083 27.793
661 2 2.2208 10.8254 0.312594 27.7385
439 1 -1.1104 12.4116 7.4202 20.7019
451 1 -1.1104 9.5699 7.36671 20.6827
562 1 -1.1104 12.2752 1.6637 26.1707
565 2 2.2208 10.8871 3.125 24.967
568 1 -1.1104 9.50118 1.38463 23.9687
571 1 -1.1104 9.50926 1.87101 26.4611
573 2 2.2208 7.90299 2.94289 22.4142
619 1 -1.1104 9.65707 4.80992 26.3079
621 1 -1.1104 9.46897 4.29378 23.5786
625 2 2.2208 8.07144 5.86033 24.8802
626 2 2.2208 10.7078 5.92946 22.1702
630 1 -1.1104 12.3229 4.52995 23.807
633 1 -1.1104 12.3385 4.72523 26.3975
623 1 -1.1104 9.318 7.60272 26.3637
628 1 -1.1104 11.8785 7.34664 23.4107
635 1 -1.1104 9.39537 7.29646 23.4752
629 1 -1.1104 12.1501 7.64281 26.5654
592 1 -1.1104 6.30782 7.43954 26.33
551 1 -1.1104 12.2309 18.601 26.3503
416 1 -1.1104 0.917252 10.1641 20.3982
125 2 2.2208 13.3203 -2.7053 27.5004
399 2 2.2208 13.5471 20.0854 27.7939
419 1 -1.1104 6.57894 10.0718 20.8699
612 1 -1.1104 3.602 13.0847 26.4461
588 2 2.2208 4.85302 11.7774 22.0483
594 1 -1.1104 0.918564 10.2192 23.2343
597 2 2.2208 4.83015 8.78416 24.878
599 1 -1.1104 0.700341 10.2621 26.1604
604 2 2.2208 2.07254 11.5667 24.9414
606 2 2.2208 2.24479 8.67056 21.7806
608 1 -1.1104 3.58074 10.306 23.6208
610 1 -1.1104 3.46421 10.128 26.381
644 1 -1.1104 3.3543 13.0819 23.5725
648 1 -1.1104 0.93139 13.0138 26.4217
654 1 -1.1104 0.417691 12.922 23.6022
652 1 -1.1104 6.14486 12.92 23.5979
651 2 2.2208 4.9355 14.3946 24.7801
596 1 -1.1104 6.37574 10.1562 23.5587
643 1 -1.1104 6.60934 12.935 26.2669
577 2 2.2208 1.9828 14.4304 22.2238
326 2 2.2208 10.7863 11.5899 27.8129
556 2 2.2208 7.72352 20.1597 27.5667
601 1 -1.1104 6.30712 10.1211 26.3891
617 1 -1.1104 12.0969 13.038 26.2624
615 1 -1.1104 11.8601 12.9745 23.4686
618 1 -1.1104 9.26656 10.2391 26.3708
620 1 -1.1104 9.39044 10.1871 23.5616
622 2 2.2208 7.94911 8.83661 22.4152
624 2 2.2208 7.94282 11.4313 24.9142
627 2 2.2208 10.7172 11.6916 22.0004
631 1 -1.1104 12.1023 10.2453 23.5583
632 2 2.2208 10.5907 8.76724 24.9824
634 1 -1.1104 12.4447 10.3126 26.3883
432 1 -1.1104 9.35182 12.8771 26.4237
395 1 -1.1104 9.13036 13.0666 23.5701
645 1 -1.1104 6.50916 15.8629 26.2772
579 2 2.2208 13.4114 11.6911 19.4023
303 2 2.2208 13.5713 14.4846 27.6112
369 1 -1.1104 12.0109 15.7851 26.3197
319 2 2.2208 2.37319 -2.56169 27.712
9301 2 2.2208 -0.520912 5.98484 27.5437
479 1 -1.1104 5.38735 15.4634 20.9938
472 1 -1.1104 6.75893 17.976 20.9691
494 1 -1.1104 9.39747 15.6876 23.6888
554 2 2.2208 2.18067 14.6074 27.5289
649 1 -1.1104 6.60694 18.7697 23.6609
660 2 2.2208 7.9903 -2.54046 27.7589
586 1 -1.1104 6.61382 15.7953 23.5521
653 1 -1.1104 0.925009 15.7264 23.5599
576 2 2.2208 1.95493 17.2848 24.7246
578 1 -1.1104 3.64382 18.7464 26.1543
583 1 -1.1104 3.55633 15.6234 23.1998
638 2 2.2208 5.03198 17.3418 22.3512
640 1 -1.1104 3.70988 15.9158 25.9599
642 1 -1.1104 3.49814 18.4951 23.5437
646 1 -1.1104 0.546449 18.722 25.8944
647 1 -1.1104 0.804559 16.01 26.2744
650 2 2.2208 4.99048 20.0191 24.8466
402 1 -1.1104 6.26769 18.602 26.2691
459 1 -1.1104 9.37602 18.5365 25.9231
124 2 2.2208 13.5843 3.00876 27.5828
400 1 -1.1104 9.36088 18.6265 23.3288
367 2 2.2208 10.7489 14.431 25.0361
616 1 -1.1104 12.2038 18.6542 23.3302
614 2 2.2208 10.7642 17.2127 22.0695
460 2 2.2208 7.82226 14.3424 22.1433
401 2 2.2208 7.85052 17.1386 24.9027
313 2 2.2208 7.75977 5.89707 13.6749
322 2 2.2208 4.89523 17.2411 27.6491
656 2 2.2208 10.6822 3.22681 13.7701
639 2 2.2208 13.3869 11.5268 24.7064
310 2 2.2208 10.5866 -2.5943 13.7035
323 2 2.2208 2.13501 20.0952 27.5584
318 2 2.2208 7.71937 14.5203 27.7265
325 2 2.2208 7.86574 3.08828 27.7686
662 2 2.2208 5.07201 22.8867 5.24944
664 1 -1.1104 1.0565 24.3968 1.11237
665 1 -1.1104 0.552946 24.368 3.7612
666 1 -1.1104 0.712068 21.5637 0.724704
668 2 2.2208 4.906 25.4629 2.36583
669 1 -1.1104 1.02984 21.4953 3.55056
671 1 -1.1104 3.73959 24.3508 0.891046
672 2 2.2208 2.35455 23.0153 2.35206
674 1 -1.1104 3.51932 24.4978 3.88038
675 2 2.2208 1.95367 25.6632 5.08051
676 1 -1.1104 3.62339 21.6172 0.932609
678 1 -1.1104 3.61109 21.4944 3.77617
805 1 -1.1104 0.829983 21.4132 6.5307
809 1 -1.1104 3.76025 24.1454 6.53276
806 1 -1.1104 0.802966 27.2396 6.4095
685 1 -1.1104 6.34617 21.6861 0.746053
677 1 -1.1104 3.90951 27.1075 0.865047
811 1 -1.1104 3.66419 27.1396 6.38903
803 1 -1.1104 0.889438 24.4195 6.6477
684 1 -1.1104 6.32752 23.8822 3.61426
683 1 -1.1104 6.58348 24.3913 0.748098
670 1 -1.1104 0.700513 27.0799 3.5119
667 1 -1.1104 0.895107 27.248 0.780674
687 1 -1.1104 6.29534 21.1212 3.94492
807 1 -1.1104 6.40238 21.4403 6.95076
679 1 -1.1104 3.63923 27.1565 3.75337
810 1 -1.1104 3.70792 21.1359 6.4228
688 1 -1.1104 6.50376 26.9953 3.77999
689 2 2.2208 10.5487 22.8172 5.14491
691 1 -1.1104 11.9948 24.15 0.64643
692 1 -1.1104 12.1742 24.1571 3.50184
693 1 -1.1104 12.0058 21.2918 0.769606
695 2 2.2208 10.687 25.5376 2.1622
696 1 -1.1104 11.8864 21.414 3.73801
698 1 -1.1104 9.44172 24.2571 0.6987
699 2 2.2208 7.83258 22.7709 2.23811
701 1 -1.1104 9.21504 24.0732 3.60696
702 2 2.2208 7.92355 25.6073 5.10911
703 1 -1.1104 9.16209 21.565 0.880473
705 1 -1.1104 9.05678 21.3316 3.49582
838 1 -1.1104 9.43778 24.2512 6.46536
706 1 -1.1104 9.48927 26.9924 3.47804
839 1 -1.1104 9.35097 21.24 6.51001
840 1 -1.1104 9.31206 27.1372 6.33319
808 1 -1.1104 6.46102 26.8997 6.46114
694 1 -1.1104 12.2599 27.0183 0.88738
704 1 -1.1104 9.31648 27.0177 0.763877
697 1 -1.1104 12.1189 26.9427 3.56761
837 1 -1.1104 12.1889 27.0034 6.41871
988 2 2.2208 13.6333 45.6228 7.88769
686 1 -1.1104 6.39082 27.0525 0.636429
663 2 2.2208 5.12105 28.5101 5.04954
673 2 2.2208 2.42422 28.5723 2.29843
712 1 -1.1104 1.08456 30.0077 1.04178
715 1 -1.1104 0.568193 29.6736 3.62749
718 1 -1.1104 1.00349 32.9378 0.817248
719 2 2.2208 5.25583 31.3935 2.3697
721 1 -1.1104 0.813786 32.8746 3.54672
723 1 -1.1104 3.74893 30.1105 1.04675
726 1 -1.1104 3.6261 30.0769 3.6028
728 2 2.2208 2.2721 31.326 4.93364
730 1 -1.1104 4.00804 32.8231 0.871547
731 1 -1.1104 3.67341 32.7612 3.66629
859 1 -1.1104 0.823142 30.1765 6.40626
867 1 -1.1104 3.80015 32.7983 6.51819
722 1 -1.1104 6.51517 32.7116 3.78729
864 1 -1.1104 6.37157 32.7088 6.6085
865 1 -1.1104 3.87617 29.9259 6.2207
863 1 -1.1104 1.03809 32.7305 6.32968
735 1 -1.1104 6.54303 29.7926 3.58998
861 1 -1.1104 6.56159 29.9286 6.30184
961 2 2.2208 10.6504 42.5128 7.87734
736 1 -1.1104 6.60057 32.8578 0.876978
734 1 -1.1104 6.73671 29.97 0.938991
690 2 2.2208 10.8478 28.4445 4.99549
700 2 2.2208 8.00712 28.4583 2.27807
738 1 -1.1104 12.2452 30.0331 0.956998
740 1 -1.1104 12.2172 29.9798 3.73615
742 1 -1.1104 12.0366 32.7073 0.793595
743 2 2.2208 10.8019 31.3092 2.22215
745 1 -1.1104 12.1146 32.7518 3.60115
746 1 -1.1104 9.37595 29.9876 0.795516
749 1 -1.1104 9.34852 29.93 3.73681
751 2 2.2208 8.0764 31.3429 5.01467
753 1 -1.1104 9.39954 32.7422 0.785803
754 1 -1.1104 9.35645 32.7541 3.70737
895 1 -1.1104 12.2767 32.5465 6.41453
896 1 -1.1104 9.43473 29.934 6.37428
893 1 -1.1104 12.1145 29.722 6.29445
969 2 2.2208 13.3645 22.8931 7.95161
898 1 -1.1104 9.31113 32.751 6.25313
1333 2 2.2208 13.4441 22.7373 13.569
711 2 2.2208 5.14522 34.186 5.06575
713 1 -1.1104 0.816923 35.6712 0.745246
716 1 -1.1104 1.18992 35.578 3.621
720 2 2.2208 4.99926 37.1068 2.293
724 1 -1.1104 3.74801 35.7534 0.949543
725 2 2.2208 2.3716 34.0507 2.11676
727 1 -1.1104 3.92235 35.7151 3.74657
729 2 2.2208 2.35006 36.9089 5.10927
756 2 2.2208 5.1483 39.8549 5.24602
762 1 -1.1104 0.742792 38.2874 0.654866
767 1 -1.1104 0.873026 38.3839 3.59807
772 2 2.2208 2.50817 39.8428 2.27607
776 1 -1.1104 3.71499 38.5499 0.939672
778 1 -1.1104 3.6462 38.6622 3.90455
860 1 -1.1104 0.699159 35.3414 6.45537
932 1 -1.1104 0.913527 38.149 6.53542
866 1 -1.1104 3.57272 35.644 6.52198
938 1 -1.1104 3.79003 38.3521 6.75755
934 1 -1.1104 6.48387 38.2234 6.69647
714 1 -1.1104 6.69415 35.7261 0.595082
769 1 -1.1104 6.22257 38.4117 3.8691
862 1 -1.1104 6.46128 35.5325 6.32198
1110 2 2.2208 10.6676 37.046 13.6306
764 1 -1.1104 6.44228 38.619 0.986806
717 1 -1.1104 6.46163 35.5317 3.63957
737 2 2.2208 10.5514 34.1846 5.09285
739 1 -1.1104 12.0926 35.5023 0.599583
741 1 -1.1104 12.2754 35.6009 3.54363
744 2 2.2208 10.9223 36.885 2.18009
747 1 -1.1104 9.305 35.7848 0.777604
748 2 2.2208 7.89346 34.2237 2.18707
750 1 -1.1104 9.5962 35.5596 3.6725
752 2 2.2208 7.88892 36.9488 5.07344
783 2 2.2208 10.5391 39.7099 5.27568
787 1 -1.1104 12.1071 38.5349 0.616645
790 1 -1.1104 12.0291 38.3668 3.71193
797 1 -1.1104 9.43873 38.4346 1.08565
799 1 -1.1104 9.07515 38.325 3.6189