ITEM: TIMESTEP
60000
ITEM: NUMBER OF ATOMS
17730
ITEM: BOX BOUNDS pp pp pp
-4.3601036976755581e-01 2.7776010369767121e+01
-5.5029171004516844e+00 3.3358291710044733e+02
-4.4741866735113789e-01 2.7787418667350721e+01
ITEM: ATOMS id type q x y z
1 2 2.2208 5.21708 0.162353 5.31376
2 1 -1.1104 0.920403 -4.02815 0.981324
6 1 -1.1104 1.06763 -3.83668 3.86266
10 1 -1.1104 0.800928 -1.22751 1.27954
12 2 2.2208 5.16111 -2.56671 2.38349
14 1 -1.1104 1.02331 -0.943237 4.41061
16 1 -1.1104 3.88715 -3.98914 0.974772
18 2 2.2208 2.30937 0.107356 2.54179
19 1 -1.1104 3.8178 -3.96708 3.97546
21 2 2.2208 2.59664 -2.6023 5.52335
23 1 -1.1104 3.72278 -1.31295 1.15412
24 1 -1.1104 3.76429 -1.2266 4.08221
322 2 2.2208 5.13769 16.8782 -0.145794
154 1 -1.1104 0.812761 -4.02854 6.74925
17360 2 2.2208 13.5226 -5.3041 2.4155
15 1 -1.1104 6.61105 -1.0946 3.94249
4 1 -1.1104 6.76259 -3.81032 1.14804
323 2 2.2208 2.63151 19.9159 -0.426237
301 2 2.2208 8.08775 -5.20056 2.30716
8519 2 2.2208 11.075 -5.3729 10.91
219 1 -1.1104 9.36227 15.7612 12.325
11 1 -1.1104 6.6877 -1.175 1.15659
8 1 -1.1104 6.78521 -3.8027 3.98738
31 2 2.2208 10.8324 0.274199 5.3833
32 1 -1.1104 12.1315 -3.97623 0.997724
34 1 -1.1104 12.4033 -3.92161 3.88792
36 1 -1.1104 12.06 -1.20707 0.936264
37 2 2.2208 10.8324 -2.50184 2.52037
39 1 -1.1104 12.1913 -1.14332 3.88807
40 1 -1.1104 9.39708 -3.87704 0.864748
42 2 2.2208 8.01272 0.364426 2.57497
43 1 -1.1104 9.54029 -4.18641 3.74079
45 2 2.2208 7.94744 -2.47945 5.351
47 1 -1.1104 9.38285 -0.988969 1.16041
48 1 -1.1104 9.4242 -1.24065 3.79513
660 2 2.2208 7.97128 -2.54776 -0.241936
318 2 2.2208 8.08274 14.5568 -0.283371
163 1 -1.1104 12.4114 16.1341 9.65933
195 1 -1.1104 12.377 -1.3137 6.86267
125 2 2.2208 13.4702 -2.57027 -0.391814
20 1 -1.1104 3.91169 1.53357 3.96097
3 1 -1.1104 0.805234 1.49626 1.25188
7 1 -1.1104 0.939925 2.11998 3.77538
13 2 2.2208 5.22999 3.11272 2.41192
17 1 -1.1104 3.72746 1.24145 1.17254
22 2 2.2208 2.47059 2.83588 5.44621
54 2 2.2208 5.04569 5.92718 5.04471
74 1 -1.1104 3.83672 4.31425 4.14904
8976 1 -1.1104 0.391624 4.12651 0.915058
70 1 -1.1104 3.81581 7.66413 3.95333
56 1 -1.1104 0.691694 7.39706 0.953671
68 1 -1.1104 4.22269 8.00227 0.706116
61 1 -1.1104 6.7048 4.52741 0.857899
5 1 -1.1104 6.64423 1.66053 1.19892
58 1 -1.1104 6.55421 7.22003 3.86296
9 1 -1.1104 6.78527 1.4666 4.05526
57 1 -1.1104 6.68701 7.36899 1.25322
155 1 -1.1104 0.902642 1.46134 6.67049
222 1 -1.1104 1.18883 7.35785 6.82728
227 1 -1.1104 4.07645 4.47513 6.91017
161 1 -1.1104 3.8129 1.56955 6.81021
9134 2 2.2208 -0.367775 6.01675 10.8755
66 1 -1.1104 6.47776 4.39759 3.73949
33 1 -1.1104 12.2182 1.50407 1.28922
35 1 -1.1104 12.2039 1.53732 3.93532
38 2 2.2208 10.8587 3.07191 2.55451
41 1 -1.1104 9.3244 1.70482 1.28299
44 1 -1.1104 9.48141 1.89329 3.95968
46 2 2.2208 8.19912 3.06802 5.38273
78 2 2.2208 10.873 5.88612 5.37587
82 1 -1.1104 12.1724 4.42973 1.11532
86 1 -1.1104 12.1062 4.51643 3.85325
88 1 -1.1104 9.39096 7.15778 0.882156
89 2 2.2208 7.97273 5.9878 2.54991
93 1 -1.1104 9.35288 4.17744 1.00951
96 1 -1.1104 9.41616 4.66766 3.86746
81 1 -1.1104 12.1535 7.49995 3.87556
80 1 -1.1104 12.2326 7.26624 0.989348
91 1 -1.1104 9.37801 7.39654 3.68292
255 1 -1.1104 9.57693 7.35598 6.52223
225 1 -1.1104 6.71064 4.5039 6.78911
197 1 -1.1104 9.42619 1.72771 6.724
157 1 -1.1104 6.72867 1.67157 7.17142
299 2 2.2208 -0.40288 20.1686 8.07791
493 2 2.2208 5.04785 19.8866 13.6347
658 2 2.2208 8.0861 17.0908 13.6202
55 2 2.2208 5.23527 11.8032 5.22235
59 1 -1.1104 0.974442 10.2604 1.2525
64 2 2.2208 5.32004 8.90096 2.56157
65 1 -1.1104 0.907788 9.71952 4.00828
69 2 2.2208 2.26235 11.6623 2.80537
71 2 2.2208 2.47521 8.7112 5.55995
72 1 -1.1104 4.00625 11.0688 1.10671
75 1 -1.1104 3.80346 10.3534 3.83161
100 1 -1.1104 1.1511 12.8862 1.02915
106 1 -1.1104 0.804776 13.1038 3.88261
114 1 -1.1104 3.51991 13.1461 3.86174
60 1 -1.1104 1.09083 10.4613 6.6095
103 1 -1.1104 6.84525 12.896 0.783487
63 1 -1.1104 6.55165 10.3048 6.73245
50 2 2.2208 2.36154 8.99229 -0.296824
191 1 -1.1104 9.47965 18.6062 12.1899
62 1 -1.1104 6.65562 10.1669 1.01955
67 1 -1.1104 6.72304 10.1347 3.95893
108 1 -1.1104 6.74706 13.0116 3.72713
79 2 2.2208 10.8596 11.4517 5.3067
83 1 -1.1104 12.0891 10.2327 1.01058
85 2 2.2208 10.7922 8.85594 2.57924
87 1 -1.1104 12.4899 10.2069 3.73503
90 2 2.2208 8.12601 11.7791 2.34524
92 2 2.2208 8.15059 8.7863 5.32819
94 1 -1.1104 9.48452 10.1231 0.904203
97 1 -1.1104 9.51301 10.0805 3.88979
130 1 -1.1104 12.3445 13.0929 0.98446
134 1 -1.1104 12.249 13.008 3.91978
141 1 -1.1104 9.68392 13.187 1.12735
146 1 -1.1104 9.69551 13.09 3.96693
661 2 2.2208 10.7971 0.33884 -0.219779
554 2 2.2208 2.31543 14.4296 -0.277298
52 2 2.2208 13.6518 0.286355 2.57489
119 2 2.2208 2.19523 14.4862 5.41005
102 1 -1.1104 1.15439 18.447 1.01585
107 1 -1.1104 0.825615 18.7522 3.80133
109 1 -1.1104 0.763929 15.8824 1.1542
112 2 2.2208 5.36447 19.955 2.53981
113 1 -1.1104 1.31123 15.8838 4.08654
115 1 -1.1104 4.15921 18.5849 1.16543
117 2 2.2208 2.37673 17.3973 2.4655
118 1 -1.1104 3.56959 18.6986 3.75381
120 2 2.2208 2.38798 19.9683 4.99505
121 1 -1.1104 3.45341 15.7939 1.07544
110 1 -1.1104 0.736906 15.9587 6.82112
200 2 2.2208 8.05464 19.9675 11.0212
126 1 -1.1104 6.78835 18.4921 0.909822
220 1 -1.1104 9.37621 18.7184 9.339
319 2 2.2208 2.34265 -2.72066 -0.236033
292 1 -1.1104 3.80213 15.9222 6.49468
27 2 2.2208 -0.263094 11.5235 10.7519
548 2 2.2208 5.12814 0.256155 -0.310242
148 2 2.2208 8.15329 14.057 5.13218
138 2 2.2208 10.9949 14.487 2.36111
556 2 2.2208 8.1603 19.9033 -0.36198
111 1 -1.1104 6.95484 15.8401 6.47821
128 1 -1.1104 6.77273 15.88 1.25866
127 1 -1.1104 6.82591 18.5791 3.74284
129 2 2.2208 10.7609 17.1457 5.36019
132 1 -1.1104 12.3666 18.7405 0.715187
135 1 -1.1104 12.5139 18.8237 3.73285
136 1 -1.1104 12.375 15.999 1.12146
139 2 2.2208 11.1381 19.9747 2.31248
140 1 -1.1104 12.2215 15.8947 3.80863
143 1 -1.1104 9.58814 18.6997 1.03464
145 2 2.2208 8.23054 17.3361 2.31664
147 1 -1.1104 9.4962 18.6368 4.05408
149 2 2.2208 8.15724 19.8716 5.40946
150 1 -1.1104 9.5533 15.9365 0.973844
152 1 -1.1104 9.48006 15.7838 3.7523
144 1 -1.1104 9.54917 18.6284 6.85048
133 1 -1.1104 12.3277 18.3716 6.72829
8517 2 2.2208 5.24322 -5.25477 10.7883
315 2 2.2208 2.30583 17.2229 13.7063
8514 2 2.2208 2.49731 -5.39149 2.60862
221 2 2.2208 8.08241 14.4445 10.9338
550 2 2.2208 2.12535 2.89418 0.0424044
9230 2 2.2208 13.5266 8.75098 10.8411
314 2 2.2208 13.5761 6.04394 2.52513
162 1 -1.1104 4.02281 -1.24998 6.78315
160 1 -1.1104 3.82494 -4.1797 6.81208
158 1 -1.1104 1.16073 -1.19442 7.08643
166 2 2.2208 5.2222 0.100386 11.0586
167 1 -1.1104 1.17301 -3.97136 12.3652
171 1 -1.1104 0.737657 -3.93582 9.72359
175 1 -1.1104 0.693881 -1.1054 12.3355
177 2 2.2208 5.54321 -2.60326 8.22257
179 1 -1.1104 1.03812 -1.05874 9.81163
181 1 -1.1104 4.07227 -3.84755 12.2317
183 2 2.2208 2.54696 0.228463 8.21023
184 1 -1.1104 3.78655 -4.11466 9.59505
186 2 2.2208 2.43352 -2.64206 11.0432
188 1 -1.1104 3.87962 -1.14762 12.5012
189 1 -1.1104 4.03566 -1.35517 9.56011
76 1 -1.1104 12.2057 18.7486 9.62591
51 2 2.2208 13.6061 11.6594 8.31035
8513 2 2.2208 5.38386 -5.28796 5.32923
123 2 2.2208 10.859 20.0824 8.16865
9197 2 2.2208 -0.411566 8.74475 2.48165
196 1 -1.1104 9.26471 -4.05972 6.48254
156 1 -1.1104 6.65487 -4.06596 6.75784
611 2 2.2208 5.32827 6.19654 -0.249934
9133 2 2.2208 -0.291967 8.93821 8.00055
180 1 -1.1104 6.6965 -0.971474 9.43501
198 1 -1.1104 9.55069 -1.21084 6.61093
159 1 -1.1104 6.87212 -0.99421 6.79081
176 1 -1.1104 6.65739 -1.15935 12.3266
173 1 -1.1104 6.89297 -3.7953 9.51131
193 1 -1.1104 12.2298 -4.0313 6.63197
169 1 -1.1104 7.03171 -3.79973 12.1357
201 2 2.2208 10.8424 0.394117 10.9823
202 1 -1.1104 12.4327 -3.93291 12.4203
204 1 -1.1104 12.4575 -3.77339 9.48242
206 1 -1.1104 12.3044 -1.00181 12.4383
207 2 2.2208 10.9537 -2.486 8.00942
209 1 -1.1104 12.2529 -1.07409 9.53794
210 1 -1.1104 9.79864 -3.83449 12.0832
212 2 2.2208 8.23918 0.44579 8.11192
213 1 -1.1104 9.70218 -4.08925 9.22386
215 2 2.2208 8.35157 -2.41201 10.9279
217 1 -1.1104 9.68224 -1.16352 12.5284
218 1 -1.1104 9.51981 -1.17796 9.62064
226 1 -1.1104 3.9139 7.38474 6.72465
8515 2 2.2208 10.9165 -5.51226 5.2216
224 1 -1.1104 1.38263 4.10224 7.07571
168 1 -1.1104 1.06491 1.6191 12.3086
172 1 -1.1104 1.31348 1.72747 9.50537
178 2 2.2208 5.37027 3.12531 8.28271
182 1 -1.1104 3.79804 1.57698 12.3867
185 1 -1.1104 4.06987 1.69832 9.71257
187 2 2.2208 2.41023 3.05759 11.078
228 2 2.2208 5.24206 5.9304 11.0734
234 1 -1.1104 0.78763 4.34431 12.5131
239 1 -1.1104 0.953294 4.50946 9.82161
244 2 2.2208 2.42894 5.78619 8.05641
248 1 -1.1104 3.74882 4.44887 12.2406
250 1 -1.1104 3.82124 4.53936 9.68007
230 1 -1.1104 0.97659 7.45034 12.2756
232 1 -1.1104 1.26942 7.1752 9.52568
246 1 -1.1104 3.9263 7.44566 9.47825
243 1 -1.1104 3.7685 7.1137 12.3131
241 1 -1.1104 6.88646 4.45086 9.63165
8932 2 2.2208 -0.425316 -2.70637 8.20947
124 2 2.2208 13.7089 3.01634 -0.201701
223 1 -1.1104 6.74558 7.48606 6.91749
253 1 -1.1104 12.2064 7.37711 6.78104
170 1 -1.1104 6.57701 1.54436 12.3187
254 1 -1.1104 12.3573 4.37525 6.67139
236 1 -1.1104 6.48553 4.56202 12.7068
231 1 -1.1104 6.75831 7.37387 12.3973
233 1 -1.1104 6.6488 7.7189 9.53261
174 1 -1.1104 6.84452 1.65833 9.72263
257 1 -1.1104 9.51418 4.49934 6.69992
194 1 -1.1104 12.3681 1.46296 6.77848
203 1 -1.1104 12.1906 1.65989 12.5043
205 1 -1.1104 12.4104 1.90125 9.59769
208 2 2.2208 10.7801 3.15305 8.03102
211 1 -1.1104 9.27018 1.73772 12.4719
214 1 -1.1104 9.75829 1.82981 9.64539
216 2 2.2208 8.20115 3.10968 10.9458
256 1 -1.1104 9.60703 4.53053 9.34948
259 1 -1.1104 9.39466 4.6138 12.1474
263 2 2.2208 8.03898 5.91753 8.11724
264 2 2.2208 10.8583 5.94584 10.902
268 1 -1.1104 12.328 4.57881 12.4779
271 1 -1.1104 12.2581 4.41444 9.62118
261 1 -1.1104 9.31248 7.29875 9.44276
267 1 -1.1104 12.0442 7.37857 9.4978
273 1 -1.1104 9.74828 7.40465 12.2179
266 1 -1.1104 12.2184 7.46849 12.2449
9198 2 2.2208 -0.391005 -2.75542 2.61785
609 1 -1.1104 4.03584 4.13675 0.599434
8931 2 2.2208 -0.394841 0.458086 10.9467
73 1 -1.1104 3.91242 10.2155 6.77023
49 1 -1.1104 12.4628 18.6519 12.2958
8905 2 2.2208 13.5942 -2.40222 10.9843
122 1 -1.1104 3.91792 13.0794 6.51941
101 1 -1.1104 1.04946 13.1686 6.74416
229 2 2.2208 5.31217 11.6015 11.1335
235 1 -1.1104 1.05983 10.1886 11.9358
238 2 2.2208 5.3093 8.84057 8.0683
240 1 -1.1104 1.00839 10.2692 9.11561
245 2 2.2208 2.67872 11.7227 8.02952
247 2 2.2208 2.3403 8.79692 10.7654
249 1 -1.1104 3.94376 10.031 12.4111
251 1 -1.1104 3.76331 10.4296 9.62568
275 1 -1.1104 3.77884 12.842 12.201
282 1 -1.1104 0.933875 13.077 9.57694
287 1 -1.1104 0.908334 12.8715 12.3456
293 1 -1.1104 3.86303 13.2291 9.3816
278 1 -1.1104 6.72077 12.9933 9.55634
285 1 -1.1104 6.65921 13.0302 12.5497
104 1 -1.1104 6.65169 13.0342 6.55355
142 1 -1.1104 9.48887 12.8483 6.79368
84 1 -1.1104 12.4302 10.1771 6.45922
131 1 -1.1104 12.2799 12.9082 6.76496
95 1 -1.1104 9.44019 9.98492 6.76637
302 1 -1.1104 9.71044 15.8443 9.66341
242 1 -1.1104 6.64995 10.3393 9.59803
237 1 -1.1104 6.72602 10.2113 12.3576
199 1 -1.1104 9.56004 12.9317 9.57415
252 1 -1.1104 9.30593 10.3283 9.63216
258 1 -1.1104 9.5473 10.1299 12.2682
260 2 2.2208 8.09813 8.86175 10.9537
262 2 2.2208 7.91078 11.6895 8.13458
265 2 2.2208 10.7107 11.5352 11.0249
269 1 -1.1104 12.2109 10.3203 12.3605
270 2 2.2208 10.8205 8.71409 8.12101
272 1 -1.1104 12.1636 10.2159 9.686
190 1 -1.1104 9.40908 13.0094 12.4734
30 1 -1.1104 12.3081 13.1653 12.3032
53 1 -1.1104 12.6089 13.136 9.39181
290 1 -1.1104 1.20307 18.4973 6.6225
298 2 2.2208 2.49172 14.3446 10.8488
276 1 -1.1104 6.62381 18.6095 9.81713
283 2 2.2208 5.21478 14.6809 7.89465
116 1 -1.1104 3.77037 18.8526 9.20884
274 1 -1.1104 3.71879 18.6215 12.1905
279 1 -1.1104 1.04048 18.6969 9.39315
280 1 -1.1104 1.24437 15.7836 9.58354
281 2 2.2208 5.35654 20.2169 8.25761
286 1 -1.1104 0.886934 18.5166 12.3295
288 2 2.2208 5.20803 17.0805 10.8764
289 1 -1.1104 3.86731 15.9639 9.38268
291 2 2.2208 2.41297 17.2193 8.22747
295 1 -1.1104 1.0328 15.6738 12.6507
296 1 -1.1104 3.79149 15.715 12.1019
297 2 2.2208 2.29408 20.057 11.012
294 1 -1.1104 6.79506 15.8618 12.2337
277 1 -1.1104 6.50769 15.6245 9.53239
284 1 -1.1104 6.52596 18.6176 12.4056
137 1 -1.1104 12.283 15.808 6.88335
105 1 -1.1104 6.5608 18.5845 7.10777
29 2 2.2208 10.911 17.2898 10.9518
99 2 2.2208 10.9573 14.459 8.16536
192 2 2.2208 8.09851 17.1918 8.13562
77 1 -1.1104 12.1055 15.9506 12.19
151 1 -1.1104 9.54891 15.58 6.71896
637 2 2.2208 8.08878 8.70458 -0.31696
326 2 2.2208 11.028 11.7391 -0.430734
8520 2 2.2208 8.23398 -5.30715 8.10297
8904 2 2.2208 -0.430452 14.3811 8.03184
320 2 2.2208 -0.3804 3.07074 8.12495
9218 2 2.2208 -0.373576 17.3572 5.20492
313 2 2.2208 8.10288 6.09584 13.5321
309 2 2.2208 8.0427 0.172477 13.6608
9205 2 2.2208 -0.345143 8.77786 13.6213
8534 2 2.2208 2.62099 -5.48362 13.5745
8530 2 2.2208 8.30763 -5.17912 13.4488
9039 2 2.2208 13.6716 3.09435 10.9394
9222 2 2.2208 -0.41933 20.0629 2.47586
657 2 2.2208 5.27336 14.3355 13.6605
434 2 2.2208 10.9369 8.88541 13.6154
8524 2 2.2208 10.7328 -5.49416 -0.37648
636 2 2.2208 11.0141 5.80589 -0.338113
327 2 2.2208 5.29024 0.228103 16.53
328 1 -1.1104 0.909419 -3.97142 17.7698
332 1 -1.1104 1.2904 -4.36943 15.1261
340 1 -1.1104 1.12063 -1.34264 17.9129
342 2 2.2208 5.39821 -2.8077 19.4956
344 1 -1.1104 1.12874 -1.18327 15.2562
348 1 -1.1104 3.8105 -3.97504 17.8728
350 2 2.2208 2.62531 0.107411 19.348
351 1 -1.1104 4.06226 -3.80386 15.0041
355 2 2.2208 2.5564 -2.54013 16.4216
357 1 -1.1104 3.78083 -1.29119 17.9075
358 1 -1.1104 3.76393 -1.14171 15.2254
346 1 -1.1104 6.6468 -1.153 15.1181
639 2 2.2208 13.6229 11.5859 25.0019
579 2 2.2208 13.6108 11.3963 19.4122
352 1 -1.1104 4.02729 -3.99963 20.8539
398 2 2.2208 -0.3217 8.83134 25.1611
311 2 2.2208 13.5545 0.319873 13.8592
9379 2 2.2208 -0.344874 5.81505 16.7275
649 1 -1.1104 6.71381 18.8016 23.6383
341 1 -1.1104 6.67579 -1.23445 18.0084
336 1 -1.1104 6.75772 -3.90464 15.0414
330 1 -1.1104 6.69795 -4.10846 17.8748
370 2 2.2208 10.828 0.211587 16.785
371 1 -1.1104 12.401 -3.87434 17.9044
373 1 -1.1104 12.3716 -3.86128 15.1354
377 1 -1.1104 12.2916 -1.1534 18.1484
378 2 2.2208 11.0599 -2.68364 19.4951
380 1 -1.1104 12.2056 -1.08443 15.3796
382 1 -1.1104 9.61474 -3.97276 17.8034
384 2 2.2208 8.11213 0.137504 19.2506
385 1 -1.1104 9.61321 -3.90855 15.0099
389 2 2.2208 8.24475 -2.674 16.5224
391 1 -1.1104 9.48197 -1.23624 18.0975
392 1 -1.1104 9.50697 -1.36265 15.2338
347 1 -1.1104 6.68826 -1.17148 20.7691
393 1 -1.1104 9.44991 -1.29585 21.002
381 1 -1.1104 12.4421 -1.21146 20.8329
310 2 2.2208 11.1194 -2.59389 13.8283
308 2 2.2208 -0.406369 19.8562 13.8794
8567 2 2.2208 10.8629 -5.38418 22.1798
353 1 -1.1104 3.98474 1.51426 15.2939
329 1 -1.1104 1.00429 1.53457 18.0229
334 1 -1.1104 1.16386 1.55214 14.9799
343 2 2.2208 5.32856 3.03551 19.5024
349 1 -1.1104 3.94239 2.01466 17.9413
356 2 2.2208 2.39785 2.93456 16.5785
406 1 -1.1104 1.26386 4.24222 15.3222
414 1 -1.1104 3.63697 4.38366 15.0263
425 1 -1.1104 1.10038 4.23061 18.0972
420 1 -1.1104 3.63066 7.49079 15.4767
422 1 -1.1104 0.811121 7.11587 15.1151
335 1 -1.1104 1.11251 1.95147 20.8316
404 1 -1.1104 0.727669 7.45364 17.9033
8672 2 2.2208 2.48224 -5.44366 19.365
397 2 2.2208 13.6514 17.1507 19.3494
580 2 2.2208 13.5804 5.86294 19.2773
656 2 2.2208 10.8527 3.08154 13.8082
338 1 -1.1104 6.73677 1.8377 15.1116
405 1 -1.1104 6.77713 7.43249 18.1538
331 1 -1.1104 6.64999 1.40892 18.0817
411 1 -1.1104 6.48108 4.28886 18.0356
408 1 -1.1104 6.81014 7.47679 15.0985
372 1 -1.1104 12.2386 1.6326 18.1493
375 1 -1.1104 12.148 1.57067 15.3394
379 2 2.2208 10.7796 3.05098 19.3459
383 1 -1.1104 9.39142 1.50676 18.0811
387 1 -1.1104 9.59936 1.64126 15.2002
390 2 2.2208 8.08541 2.96918 16.5727
435 2 2.2208 10.9448 5.91488 16.5824
437 1 -1.1104 12.1088 7.24003 17.9653
438 1 -1.1104 12.2378 7.38719 15.2188
440 1 -1.1104 12.1377 4.45154 17.8841
443 1 -1.1104 12.2521 4.3828 15.2715
448 2 2.2208 8.00175 5.84628 19.2447
450 1 -1.1104 9.6516 7.39909 14.9651
453 1 -1.1104 9.29315 4.54476 17.9035
455 1 -1.1104 9.15816 4.38324 15.0825
447 1 -1.1104 9.36395 7.42699 17.8347
304 2 2.2208 -0.274826 14.3367 13.9288
403 2 2.2208 5.3352 11.4238 16.4999
410 1 -1.1104 1.09998 10.4702 17.687
413 2 2.2208 5.43114 8.60479 19.3758
415 1 -1.1104 0.923716 10.133 14.9424
421 2 2.2208 2.47293 11.6723 19.3389
424 2 2.2208 2.2302 8.73357 16.6155
426 1 -1.1104 3.74991 9.97789 18.0259
429 1 -1.1104 3.6085 10.0186 14.9932
462 1 -1.1104 1.29432 13.136 18.0564
466 1 -1.1104 1.07154 13.0007 15.277
480 1 -1.1104 4.15068 12.8774 18.0552
483 1 -1.1104 4.00767 12.9797 15.0254
418 1 -1.1104 6.56293 10.1693 15.1751
464 1 -1.1104 6.77666 12.9113 18.0729
469 1 -1.1104 6.59879 12.8136 15.215
582 2 2.2208 13.6117 11.5247 13.6778
430 1 -1.1104 4.02921 10.2734 20.9082
416 1 -1.1104 0.993439 10.5929 20.6559
412 1 -1.1104 6.62174 10.0817 17.8669
436 2 2.2208 10.8974 11.5575 16.7698
441 1 -1.1104 12.2615 10.0355 18.0021
442 2 2.2208 10.8696 8.55483 19.231
445 1 -1.1104 12.3538 10.3069 15.1901
449 2 2.2208 8.1559 11.5315 19.2676
452 2 2.2208 7.97845 8.76959 16.4832
454 1 -1.1104 9.3169 10.3554 17.9669
457 1 -1.1104 9.55904 10.2415 15.1151
498 1 -1.1104 12.4872 12.8127 17.9029
500 1 -1.1104 12.1323 13.0614 14.9172
509 1 -1.1104 9.51075 12.8245 18.1373
512 1 -1.1104 9.30772 12.908 15.4087
492 2 2.2208 8.05639 20.0703 22.2814
446 1 -1.1104 12.3772 10.0598 20.8551
368 2 2.2208 11.0761 20.2201 24.9454
616 1 -1.1104 12.4179 18.7462 23.6051
549 1 -1.1104 12.2003 15.8907 23.8248
475 2 2.2208 5.28286 14.2054 19.3936
487 2 2.2208 2.69357 14.3838 16.3877
461 2 2.2208 5.34151 17.2718 16.582
463 1 -1.1104 1.57123 18.5711 17.7676
468 1 -1.1104 0.976005 18.7356 15.1639
473 1 -1.1104 1.07743 15.847 17.8977
476 2 2.2208 5.33139 20.1514 19.3517
477 1 -1.1104 0.925047 15.8306 15.3287
481 1 -1.1104 4.10414 18.7175 17.8598
482 2 2.2208 2.81496 17.2328 19.1261
485 1 -1.1104 3.75323 18.4514 14.9389
488 2 2.2208 2.62469 20.1497 16.5005
489 1 -1.1104 3.9349 15.7314 17.8372
490 1 -1.1104 3.74388 15.5639 14.9776
486 1 -1.1104 3.59449 18.7798 20.6322
474 1 -1.1104 6.7041 15.7034 17.7876
427 2 2.2208 2.34762 11.4037 13.7323
491 1 -1.1104 3.1315 15.8496 20.8553
394 2 2.2208 -0.455964 17.1817 16.6823
496 2 2.2208 10.7879 14.3763 13.7712
478 1 -1.1104 6.70623 15.5788 14.8715
465 1 -1.1104 6.68945 18.4992 17.9727
396 2 2.2208 13.5186 19.8635 16.8542
9443 2 2.2208 -0.390242 14.4773 19.2871
471 1 -1.1104 6.76627 18.5291 15.2302
516 2 2.2208 8.12729 14.3007 16.5512
505 2 2.2208 10.8499 14.2383 19.494
497 2 2.2208 10.7977 17.0338 16.5884
499 1 -1.1104 12.0662 18.4156 17.9579
502 1 -1.1104 12.1791 18.4772 15.1592
504 1 -1.1104 12.173 15.7206 18.101
506 2 2.2208 10.8951 19.8924 19.5626
507 1 -1.1104 12.4031 15.6093 15.1724
510 1 -1.1104 9.23226 18.5615 17.9442
511 2 2.2208 7.81939 17.2085 19.5682
514 1 -1.1104 9.48849 18.4121 15.1256
517 2 2.2208 7.92665 19.9382 16.5682
518 1 -1.1104 9.33778 15.684 17.9531
519 1 -1.1104 9.62681 15.6472 15.3163
581 2 2.2208 13.7297 8.76192 16.6102
503 1 -1.1104 12.2272 18.5186 20.8541
431 2 2.2208 5.22185 8.50422 13.9257
345 1 -1.1104 1.1599 -1.1475 20.8624
585 2 2.2208 -0.467049 0.384544 22.2652
364 2 2.2208 -0.305588 -2.61127 19.2239
359 1 -1.1104 3.77425 -1.12274 20.7104
333 1 -1.1104 1.19871 -3.92999 20.6524
522 2 2.2208 5.40058 0.19654 22.1381
523 1 -1.1104 1.01425 -3.9889 23.6616
527 1 -1.1104 0.838586 -4.06213 26.4852
531 1 -1.1104 1.17741 -1.1362 23.7762
533 2 2.2208 5.28045 -2.61011 25.0524
535 1 -1.1104 0.924649 -1.56516 26.685
537 1 -1.1104 3.84716 -4.08923 23.6931
539 2 2.2208 2.45822 0.164624 25.099
540 1 -1.1104 3.78964 -3.93312 26.3732
542 2 2.2208 2.45198 -2.40378 22.2188
544 1 -1.1104 3.89637 -1.43925 23.698
545 1 -1.1104 3.75257 -1.03549 26.5418
536 1 -1.1104 6.45454 -1.1836 26.59
555 2 2.2208 -0.334224 11.802 16.5664
8621 2 2.2208 -0.0804258 -5.27605 22.1463
374 1 -1.1104 12.5146 -3.9484 20.6782
337 1 -1.1104 6.79512 -4.09861 20.9115
525 1 -1.1104 6.59269 -3.96142 23.7575
532 1 -1.1104 6.83652 -1.05018 23.6116
386 1 -1.1104 9.75317 -3.93775 20.6378
529 1 -1.1104 6.57731 -4.38736 26.5974
558 2 2.2208 10.7575 0.00920481 22.3046
559 1 -1.1104 12.3458 -3.97624 23.6129
561 1 -1.1104 12.113 -4.08561 26.3392
563 1 -1.1104 12.1409 -1.31011 23.6274
564 2 2.2208 10.8448 -2.51461 25.0405
566 1 -1.1104 12.3176 -1.10936 26.4564
567 1 -1.1104 9.49941 -3.92485 23.5585
569 2 2.2208 7.92095 0.185832 25.0441
570 1 -1.1104 9.31702 -4.27301 26.442
572 2 2.2208 8.09809 -2.69336 22.1392
574 1 -1.1104 9.43068 -1.23177 23.7983
575 1 -1.1104 9.09969 -1.2211 26.5893
521 2 2.2208 10.8826 19.7779 13.7676
316 2 2.2208 13.6482 17.1629 13.7704
366 2 2.2208 13.701 2.95466 16.6085
8712 2 2.2208 5.16494 -5.18417 16.4287
423 1 -1.1104 3.83719 7.68984 20.9143
17436 2 2.2208 -0.148334 -5.52023 16.4845
354 1 -1.1104 3.81631 1.62746 20.9526
407 1 -1.1104 0.731765 7.83752 20.7151
428 1 -1.1104 4.09161 4.29498 20.9133
524 1 -1.1104 0.846366 1.88301 23.8015
528 1 -1.1104 0.623585 1.49912 26.668
534 2 2.2208 5.2239 2.9223 25.0859
538 1 -1.1104 3.88159 1.4502 23.9351
541 1 -1.1104 3.5966 1.65672 26.5951
543 2 2.2208 2.56831 2.88232 22.558
587 2 2.2208 5.06127 6.00459 22.0628
593 1 -1.1104 1.66832 5.02352 22.6851
598 1 -1.1104 1.05191 4.3803 26.4638
603 2 2.2208 2.32398 6.04274 24.825
605 1 -1.1104 4.10246 6.43986 26.118
607 1 -1.1104 3.56288 4.3158 24.3204
591 1 -1.1104 1.1027 7.38658 26.4179
589 1 -1.1104 0.914662 7.4673 23.6282
602 1 -1.1104 3.66377 7.53869 23.5056
600 1 -1.1104 6.57119 4.42425 26.295
590 1 -1.1104 6.47459 6.94577 23.652
526 1 -1.1104 6.57326 1.63607 23.6123
369 1 -1.1104 12.4713 15.8232 26.6493
456 1 -1.1104 9.47282 4.12437 20.8664
376 1 -1.1104 12.386 1.34223 20.8985
595 1 -1.1104 6.34114 4.25871 23.3613
451 1 -1.1104 9.40642 7.22003 20.747
592 1 -1.1104 6.76448 7.43898 26.4216
439 1 -1.1104 11.8465 7.24819 20.7373
339 1 -1.1104 6.67986 1.76767 20.7715
409 1 -1.1104 6.64842 7.43359 20.8751
530 1 -1.1104 6.58999 1.48993 26.5735
444 1 -1.1104 12.2435 4.52365 20.516
417 1 -1.1104 6.70994 4.61057 20.751
388 1 -1.1104 9.3463 1.48232 21.057
560 1 -1.1104 12.4204 1.56044 23.7409
562 1 -1.1104 12.1481 1.67317 26.7838
565 2 2.2208 10.8595 3.03698 24.9545
568 1 -1.1104 9.51389 1.69136 23.7256
571 1 -1.1104 9.16349 1.51846 26.483
573 2 2.2208 7.96713 3.15899 22.2888
619 1 -1.1104 9.627 4.65073 26.3469
621 1 -1.1104 9.36627 4.37507 23.6239
625 2 2.2208 7.81867 5.9557 25.1597
626 2 2.2208 10.6994 5.90248 22.1383
630 1 -1.1104 12.3806 4.37153 23.7108
633 1 -1.1104 12.3242 4.14309 26.617
623 1 -1.1104 9.51788 7.60344 26.5018
635 1 -1.1104 9.19916 7.23235 23.6707
629 1 -1.1104 12.1742 7.19719 26.3338
628 1 -1.1104 12.1813 7.15779 23.5246
306 2 2.2208 2.42478 0.244168 13.8048
484 1 -1.1104 3.97833 13.0422 20.9144
419 1 -1.1104 6.80669 10.2588 20.5343
515 1 -1.1104 9.33733 18.5344 20.9918
312 2 2.2208 2.3729 5.99398 13.8487
467 1 -1.1104 0.902138 13.3412 20.8529
612 1 -1.1104 3.85119 12.9279 26.8659
588 2 2.2208 5.53032 11.3551 22.1037
594 1 -1.1104 1.32649 10.1412 23.9874
597 2 2.2208 5.30648 8.64325 24.8268
599 1 -1.1104 1.27383 10.457 26.6472
604 2 2.2208 2.70187 11.6191 25.2735
606 2 2.2208 2.47384 8.94061 22.1109
608 1 -1.1104 4.02494 10.4402 23.7505
610 1 -1.1104 3.78916 9.83808 26.5542
644 1 -1.1104 4.03587 13.1713 23.9604
648 1 -1.1104 0.869847 13.0787 26.4306
654 1 -1.1104 1.11274 12.9285 23.6868
652 1 -1.1104 6.86028 12.6966 23.6995
643 1 -1.1104 6.96743 12.9078 26.3721
601 1 -1.1104 6.86369 10.0985 26.0711
9301 2 2.2208 -0.200986 5.86161 27.7574
470 1 -1.1104 6.80118 13.056 20.8445
458 1 -1.1104 9.66319 10.0718 20.4654
501 1 -1.1104 12.444 12.7979 20.8832
596 1 -1.1104 6.78703 9.88202 23.2869
513 1 -1.1104 9.43663 12.8969 20.9099
617 1 -1.1104 12.3104 12.9427 26.3455
615 1 -1.1104 12.5013 12.9462 23.6445
618 1 -1.1104 9.75898 10.3184 26.3535
620 1 -1.1104 9.46249 9.74188 23.6153
622 2 2.2208 8.24509 8.81081 22.0052
624 2 2.2208 8.39102 11.5298 24.9917
627 2 2.2208 11.0067 11.4539 22.1556
631 1 -1.1104 12.2433 10.1651 23.6658
632 2 2.2208 10.8959 8.62418 25.0909
634 1 -1.1104 12.5052 10.2524 26.5375
432 1 -1.1104 9.61547 13.0635 26.5389
395 1 -1.1104 9.66645 12.9244 23.546
401 2 2.2208 7.99512 17.4091 25.0038
9265 2 2.2208 -0.44994 11.7964 22.1317
645 1 -1.1104 6.65151 15.7315 26.6147
586 1 -1.1104 6.91427 15.5711 23.6263
577 2 2.2208 2.56679 14.2828 22.3849
651 2 2.2208 5.56732 14.3818 25.1839
653 1 -1.1104 1.37943 15.7129 23.7133
576 2 2.2208 2.55157 17.0067 25.2321
578 1 -1.1104 3.9568 18.4689 26.6348
583 1 -1.1104 4.09409 15.8845 23.8353
638 2 2.2208 4.86909 17.421 22.2107
640 1 -1.1104 3.81351 15.5139 26.6626
642 1 -1.1104 3.91715 18.4641 24.0061
646 1 -1.1104 1.00452 18.6009 26.267
647 1 -1.1104 0.999424 15.9961 26.74
650 2 2.2208 5.28799 20.077 25.0593
479 1 -1.1104 6.04107 15.8049 20.7617
402 1 -1.1104 6.56745 18.3931 26.3556
472 1 -1.1104 6.63945 18.6203 20.8365
508 1 -1.1104 12.187 15.3754 20.8502
520 1 -1.1104 9.40028 15.9285 20.7563
460 2 2.2208 8.21369 14.2663 22.1288
400 1 -1.1104 9.64732 18.6838 23.7457
367 2 2.2208 10.9019 14.4606 25.08
551 1 -1.1104 12.3166 18.8215 26.2898
307 2 2.2208 4.90073 3.03268 13.7843
494 1 -1.1104 9.36103 15.8658 23.6438
614 2 2.2208 10.9525 17.0966 22.2551
495 1 -1.1104 9.67978 16.0904 26.3251
459 1 -1.1104 9.48028 18.8296 26.4189
305 2 2.2208 5.32252 -2.32339 13.7356
613 2 2.2208 5.64436 11.3593 27.6077
659 2 2.2208 10.9444 17.241 27.6584
433 2 2.2208 8.08287 11.589 13.7239
325 2 2.2208 7.95834 3.15494 27.6875
662 2 2.2208 5.42503 22.8132 5.26043
664 1 -1.1104 1.16277 24.3388 1.03752
665 1 -1.1104 1.06701 24.189 4.08593
666 1 -1.1104 0.964309 21.3385 0.954661
668 2 2.2208 5.3431 25.7565 2.55262
669 1 -1.1104 1.14204 21.4668 3.762
671 1 -1.1104 3.75221 24.1714 1.10798
672 2 2.2208 2.48755 22.8583 2.64576
674 1 -1.1104 4.04851 24.3628 3.93394
675 2 2.2208 2.45474 25.554 5.33083
676 1 -1.1104 3.86649 21.3501 1.26668
678 1 -1.1104 4.00408 21.4719 4.12062
670 1 -1.1104 1.11941 26.8301 3.76711
677 1 -1.1104 3.97219 27.0971 0.932023
684 1 -1.1104 6.8733 24.256 4.02371
687 1 -1.1104 6.87632 21.3291 3.96206
685 1 -1.1104 6.52722 21.3618 1.07913
804 1 -1.1104 6.58476 24.3083 6.84899
667 1 -1.1104 1.06561 27.1889 1.06135
780 2 2.2208 -0.291883 40.0003 5.36433
1199 2 2.2208 5.23183 28.6394 -0.423517
680 2 2.2208 -0.466835 28.4687 5.14146
683 1 -1.1104 6.6242 24.1534 1.22807
689 2 2.2208 10.9767 22.9806 5.20732
691 1 -1.1104 12.1876 24.4746 0.95334
692 1 -1.1104 12.1337 24.4432 3.77683
693 1 -1.1104 12.7562 21.5661 0.973792
695 2 2.2208 10.9491 25.8158 2.25181
696 1 -1.1104 12.6045 21.6097 4.06629
698 1 -1.1104 9.47794 24.4502 1.03137
699 2 2.2208 8.25528 22.7689 2.61252
701 1 -1.1104 9.4953 24.235 3.88525
702 2 2.2208 8.13335 25.9206 5.34108
703 1 -1.1104 9.49712 21.3618 1.06942
705 1 -1.1104 9.76254 21.3637 3.81081
837 1 -1.1104 12.3006 27.1399 6.46514
706 1 -1.1104 9.49402 27.2114 3.70412
704 1 -1.1104 9.46342 27.0831 0.947426
10178 2 2.2208 13.6815 42.8368 -0.323881
1255 2 2.2208 2.40313 37.18 -0.324544
1225 2 2.2208 10.9955 22.8754 -0.47107
679 1 -1.1104 3.79992 27.0147 3.84434
686 1 -1.1104 6.66808 27.2334 0.846776
663 2 2.2208 5.11272 28.3047 5.41902
673 2 2.2208 2.45587 28.483 2.36453
712 1 -1.1104 1.0291 30.0875 0.969121
715 1 -1.1104 1.12686 29.7198 3.71966
718 1 -1.1104 0.796333 32.8342 1.22725
719 2 2.2208 5.15853 31.4279 2.40854
721 1 -1.1104 0.842493 32.5033 3.85782
723 1 -1.1104 3.87389 29.8794 1.02183
726 1 -1.1104 4.12199 30.0574 3.73372
728 2 2.2208 2.5558 31.2218 5.20291
730 1 -1.1104 3.63344 32.9023 0.893711
731 1 -1.1104 3.81462 32.8137 3.6255
734 1 -1.1104 6.65893 30.0787 1.0129
736 1 -1.1104 6.3439 32.816 1.08932
735 1 -1.1104 6.86126 29.8834 3.89699
9843 2 2.2208 -0.420109 39.8258 10.8334
977 2 2.2208 13.595 31.2726 10.8508
865 1 -1.1104 3.76264 29.8195 6.59646
688 1 -1.1104 6.73418 27.2223 4.0278
694 1 -1.1104 12.4538 27.3824 1.00864
697 1 -1.1104 12.5127 27.19 3.86976
1144 2 2.2208 11.0134 40.0298 -0.31809
722 1 -1.1104 6.5545 32.9395 3.71639
1145 2 2.2208 5.24416 42.5739 13.6277
690 2 2.2208 10.8853 28.7353 5.24064
700 2 2.2208 7.89628 28.5251 2.34333
738 1 -1.1104 12.4132 30.1229 1.01362
740 1 -1.1104 12.2124 30.074 3.94801
742 1 -1.1104 12.3527 33.0424 1.00354
743 2 2.2208 10.7536 31.6224 2.49174
745 1 -1.1104 12.1891 32.995 3.89105
746 1 -1.1104 9.49447 30.0219 1.00632
749 1 -1.1104 9.57526 30.0934 3.8902
751 2 2.2208 8.05586 31.5116 5.20886
753 1 -1.1104 9.34157 32.9001 1.00503
754 1 -1.1104 9.22171 32.8433 3.65812
9839 2 2.2208 13.3206 45.6784 2.42847
861 1 -1.1104 6.39299 30.2057 6.63404
1231 2 2.2208 10.894 28.6718 -0.327318
1198 2 2.2208 -0.134942 22.8264 -0.301769
732 2 2.2208 -0.42915 31.4172 2.36439
711 2 2.2208 5.16827 34.299 5.26288
713 1 -1.1104 0.749076 35.7091 1.10173
716 1 -1.1104 0.774538 35.6213 3.96835
720 2 2.2208 5.12726 37.021 2.37187
724 1 -1.1104 3.6317 35.7945 1.04486
725 2 2.2208 2.37019 34.3425 2.3368
727 1 -1.1104 3.61224 35.6621 4.19845
729 2 2.2208 2.04673 36.9648 5.47954
756 2 2.2208 5.00837 39.9855 5.12068
762 1 -1.1104 0.966241 38.4395 0.991158
767 1 -1.1104 0.929231 38.5125 3.80262
772 2 2.2208 2.33261 39.8668 2.38552
776 1 -1.1104 3.73121 38.417 1.08355
778 1 -1.1104 3.7092 38.6206 3.7284
714 1 -1.1104 6.41803 35.7071 1.10624
717 1 -1.1104 6.64521 35.7705 3.95826
860 1 -1.1104 0.775829 35.5392 6.78825
769 1 -1.1104 6.55266 38.3462 3.70752
1324 2 2.2208 10.6132 45.4339 -0.365423
1196 2 2.2208 5.27099 22.8946 -0.427532
938 1 -1.1104 3.71743 38.3622 6.42001
1109 2 2.2208 10.9564 31.4943 13.6512
1285 2 2.2208 8.06937 31.3641 -0.414961
1286 2 2.2208 10.8412 34.2785 -0.360287
892 1 -1.1104 12.3513 41.5145 9.52641
764 1 -1.1104 6.41955 38.6467 1.09474
737 2 2.2208 10.9871 34.2478 5.38066
739 1 -1.1104 12.0871 35.697 1.00545
741 1 -1.1104 12.5517 35.75 3.7552
744 2 2.2208 10.8108 37.1392 2.36327
747 1 -1.1104 9.42202 35.6433 1.12238
748 2 2.2208 7.94186 34.197 2.34966
750 1 -1.1104 9.6364 35.9807 4.04464
752 2 2.2208 8.02589 37.0606 5.27759
783 2 2.2208 10.877 39.9518 5.21261
787 1 -1.1104 12.1851 38.4812 1.10807
790 1 -1.1104 12.3181 38.6689 3.74518