ITEM: TIMESTEP
60000
ITEM: NUMBER OF ATOMS
17820
ITEM: BOX BOUNDS pp pp pp
-4.3643479161996251e-01 2.7776434791619359e+01
-5.2227002591996001e+00 3.3330270025919862e+02
-4.3091713419719946e-01 2.7770917134197550e+01
ITEM: ATOMS id type q x y z
1 2 2.2208 5.4662 0.48171 5.22637
2 1 -1.1104 1.30509 -3.84081 1.07489
6 1 -1.1104 0.805481 -3.68794 3.8438
10 1 -1.1104 0.901509 -1.11302 0.939479
12 2 2.2208 5.33273 -2.25792 2.36725
14 1 -1.1104 0.949616 -0.7984 4.06519
16 1 -1.1104 3.91481 -3.51527 1.08096
18 2 2.2208 2.47626 0.437648 2.48798
19 1 -1.1104 3.88737 -3.67561 3.94295
21 2 2.2208 2.65141 -2.23713 5.43076
23 1 -1.1104 3.9354 -0.793239 0.997963
24 1 -1.1104 3.9123 -1.05645 3.66598
166 1 -1.1104 1.42025 -3.76017 6.50377
8502 2 2.2208 2.76417 -5.14792 2.47963
174 1 -1.1104 3.97024 -0.892019 6.68941
9198 2 2.2208 -0.457229 14.5642 2.40351
705 2 2.2208 2.53395 20.3012 -0.423176
26 2 2.2208 -0.30196 0.478755 5.50835
172 1 -1.1104 3.97966 -3.75116 7.05146
29 2 2.2208 -0.406225 6.19415 11.1286
8 1 -1.1104 6.53997 -3.57673 4.00201
4 1 -1.1104 6.58996 -3.81131 1.13298
15 1 -1.1104 6.87183 -0.874686 3.80847
11 1 -1.1104 6.75135 -1.017 1.17543
31 2 2.2208 10.8689 0.40222 5.24857
32 1 -1.1104 12.21 -3.8838 1.14066
34 1 -1.1104 12.3813 -3.92773 4.04643
36 1 -1.1104 12.8375 -1.20564 1.37881
37 2 2.2208 11.0688 -2.43646 2.56582
39 1 -1.1104 12.5587 -0.90736 4.04871
40 1 -1.1104 9.42342 -3.75873 1.25525
42 2 2.2208 8.09431 0.44735 2.42884
43 1 -1.1104 9.58301 -3.98991 4.04119
45 2 2.2208 8.23319 -2.52855 5.35959
47 1 -1.1104 9.69782 -1.11851 1.06588
48 1 -1.1104 9.81867 -1.14564 3.89922
208 1 -1.1104 9.59715 -3.95966 6.69919
371 2 2.2208 8.10588 -2.38989 -0.316985
9345 2 2.2208 -0.254824 17.475 -0.449537
8503 2 2.2208 5.25728 -5.00887 5.42851
364 2 2.2208 8.08059 20.4375 -0.39564
3 1 -1.1104 0.759343 1.89933 0.954303
7 1 -1.1104 1.06769 1.90436 3.86558
13 2 2.2208 5.17013 3.31086 2.42517
17 1 -1.1104 3.83643 2.02909 1.10686
20 1 -1.1104 3.95672 1.70174 3.77584
22 2 2.2208 2.5846 3.18011 5.36152
54 2 2.2208 5.23446 5.98612 5.35781
60 1 -1.1104 1.06396 4.6031 1.0356
67 1 -1.1104 1.13246 4.71603 3.98773
71 1 -1.1104 3.76209 7.54268 1.15773
72 2 2.2208 2.32004 6.08178 2.54945
74 1 -1.1104 3.82229 7.27845 4.01631
76 1 -1.1104 3.90987 4.79548 1.10486
79 1 -1.1104 3.82393 4.43553 3.93718
56 1 -1.1104 1.00523 7.37484 0.79798
58 1 -1.1104 1.11215 7.67016 3.59499
9180 2 2.2208 -0.166853 14.6377 13.5068
52 2 2.2208 -0.341638 9.06066 13.6248
200 2 2.2208 -0.190077 -2.30844 8.08965
8504 2 2.2208 8.10043 -4.99693 2.53607
63 1 -1.1104 6.60385 4.69058 1.16532
69 1 -1.1104 6.65562 4.71533 3.90687
9 1 -1.1104 6.6875 1.97741 3.69378
5 1 -1.1104 6.69885 1.84029 0.967886
57 1 -1.1104 6.68495 7.46912 1.42997
59 1 -1.1104 6.66644 7.21998 4.14007
33 1 -1.1104 12.5012 1.8712 0.948861
35 1 -1.1104 12.2838 1.86515 3.75634
38 2 2.2208 10.6908 3.17583 2.6823
41 1 -1.1104 9.57751 1.8275 1.23432
44 1 -1.1104 9.34798 1.63753 3.90345
46 2 2.2208 8.07958 3.29803 5.41019
84 2 2.2208 10.8421 6.07476 5.47669
86 1 -1.1104 12.4377 7.44006 1.17065
88 1 -1.1104 12.084 4.60904 1.17111
92 1 -1.1104 12.4165 4.56693 3.94868
95 2 2.2208 8.04805 6.02965 2.6081
99 1 -1.1104 9.45373 4.57745 1.40162
102 1 -1.1104 9.65174 4.52708 4.21563
94 1 -1.1104 9.32221 7.41985 1.40423
87 1 -1.1104 12.2379 7.22323 4.08243
97 1 -1.1104 9.56011 7.33084 4.1621
237 1 -1.1104 6.60638 4.61124 6.7624
235 1 -1.1104 6.40978 7.50229 6.80459
169 1 -1.1104 6.74695 1.88521 6.80399
701 2 2.2208 10.9342 17.4238 -0.360902
340 2 2.2208 4.94538 11.6219 -0.427532
105 2 2.2208 13.5943 5.99294 2.47429
55 2 2.2208 5.19081 11.9789 5.37162
61 1 -1.1104 0.983436 10.1233 0.923477
66 2 2.2208 5.1715 8.97279 2.41847
68 1 -1.1104 0.841118 10.2231 3.72126
73 2 2.2208 2.36962 11.618 2.4138
75 2 2.2208 2.52365 9.07973 5.16299
77 1 -1.1104 3.79982 10.3034 1.13921
80 1 -1.1104 3.8519 10.4503 3.73638
107 1 -1.1104 0.896381 13.0229 1.09217
113 1 -1.1104 1.11097 12.9912 3.83901
123 1 -1.1104 3.77448 13.4046 1.14316
128 1 -1.1104 3.81773 13.1755 3.88987
8506 2 2.2208 2.50685 -5.07319 8.18342
115 1 -1.1104 6.72741 12.9426 3.95983
81 2 2.2208 -0.434254 6.25086 5.15918
62 1 -1.1104 0.937566 10.2795 6.653
202 2 2.2208 13.5275 9.19755 11.08
70 1 -1.1104 6.81564 10.1392 3.9003
110 1 -1.1104 6.84283 13.0621 1.10277
64 1 -1.1104 6.44213 10.3159 1.00117
85 2 2.2208 10.7352 11.9189 5.27213
89 1 -1.1104 12.1522 10.588 1.00605
91 2 2.2208 11.0418 8.86176 2.44693
93 1 -1.1104 12.366 10.056 3.84757
96 2 2.2208 8.08135 11.7109 2.50151
98 2 2.2208 8.09418 8.7569 5.28001
100 1 -1.1104 9.38398 10.1356 1.28273
103 1 -1.1104 9.73039 10.2138 4.0591
142 1 -1.1104 12.4563 13.2073 1.2001
146 1 -1.1104 12.3372 13.1394 3.95878
153 1 -1.1104 9.68939 13.1843 1.07817
158 1 -1.1104 9.70377 13.2004 3.79644
150 2 2.2208 11.0106 14.5163 2.40225
65 1 -1.1104 6.59784 10.2861 6.70854
312 2 2.2208 -0.436779 6.06048 -0.276926
111 1 -1.1104 6.68472 13.2294 6.62532
702 2 2.2208 7.99046 14.5602 -0.243031
119 2 2.2208 5.24748 14.51 2.55861
83 2 2.2208 7.8189 8.77238 -0.190625
130 2 2.2208 2.31426 14.625 5.33133
106 2 2.2208 5.23304 17.3523 5.25394
109 1 -1.1104 1.06053 18.8451 1.1148
114 1 -1.1104 1.20983 18.6904 3.94776
116 1 -1.1104 1.14288 16.0395 0.795162
120 2 2.2208 5.22109 20.247 2.28137
121 1 -1.1104 1.17597 15.8913 3.68711
125 1 -1.1104 3.97995 18.8152 0.974465
127 2 2.2208 2.59191 17.5766 2.56781
129 1 -1.1104 4.11512 18.8909 3.71549
131 2 2.2208 2.21874 20.5222 5.21662
132 1 -1.1104 3.79795 16.1311 1.359
134 1 -1.1104 3.83333 16.1865 4.10664
334 2 2.2208 8.27774 3.30068 -0.282881
9199 2 2.2208 -0.398649 17.4555 10.7571
231 2 2.2208 13.6929 6.21852 8.29448
139 1 -1.1104 6.79594 18.9122 3.6888
122 1 -1.1104 6.51516 15.6389 3.8528
138 1 -1.1104 6.71637 19.0289 1.0109
140 1 -1.1104 6.79489 16.0261 1.18994
160 2 2.2208 8.12582 14.3977 5.1102
141 2 2.2208 10.8962 17.2767 5.22499
144 1 -1.1104 12.315 19.0673 1.23588
147 1 -1.1104 12.3601 18.6698 3.96772
148 1 -1.1104 12.3577 15.9746 0.919869
151 2 2.2208 10.8322 20.2101 2.52346
152 1 -1.1104 12.1969 15.8606 3.98124
155 1 -1.1104 9.61465 18.9972 1.0321
157 2 2.2208 8.08432 17.3866 2.59458
159 1 -1.1104 9.6781 18.6328 3.83612
161 2 2.2208 8.08128 20.255 5.40353
162 1 -1.1104 9.62306 16.1375 1.15246
164 1 -1.1104 9.30843 15.9541 3.84958
170 1 -1.1104 1.20688 -0.862618 6.86058
25 2 2.2208 -0.422025 -2.25048 2.38403
8507 2 2.2208 5.38736 -5.18624 10.8514
175 2 2.2208 5.31916 0.478834 11.1669
176 1 -1.1104 0.965801 -3.85892 12.5753
180 1 -1.1104 1.15268 -3.63266 9.45952
184 1 -1.1104 1.04064 -0.894885 12.476
186 2 2.2208 5.37405 -2.36464 8.24417
188 1 -1.1104 1.30395 -0.643962 9.7254
190 1 -1.1104 3.84919 -3.51083 12.3975
192 2 2.2208 2.49392 0.627855 8.313
193 1 -1.1104 4.11869 -3.61372 9.63978
195 2 2.2208 2.50915 -2.14614 10.9745
197 1 -1.1104 3.82305 -0.883678 12.2976
198 1 -1.1104 4.0542 -0.76181 9.53773
361 2 2.2208 5.3723 0.567492 -0.393813
205 1 -1.1104 12.4299 -3.78223 6.75974
171 1 -1.1104 6.70341 -1.04025 6.65235
168 1 -1.1104 6.67708 -3.92001 6.8539
210 1 -1.1104 9.37998 -0.900969 6.75439
207 1 -1.1104 12.071 -0.784989 6.90007
178 1 -1.1104 6.74799 -3.87776 12.2405
189 1 -1.1104 7.02201 -0.928771 9.54571
182 1 -1.1104 7.0054 -3.86467 9.43006
185 1 -1.1104 6.64118 -1.07618 12.2866
211 2 2.2208 11.0098 0.501555 11.0116
212 1 -1.1104 12.3946 -3.96531 12.3027
214 1 -1.1104 12.4331 -3.96659 9.60874
216 1 -1.1104 12.3661 -0.911023 12.2098
217 2 2.2208 10.8845 -2.52028 8.20668
219 1 -1.1104 12.6068 -0.911741 9.33544
220 1 -1.1104 9.60438 -3.92814 12.422
222 2 2.2208 8.20168 0.382722 8.18402
223 1 -1.1104 9.66318 -3.94025 9.67063
225 2 2.2208 8.12369 -2.38717 10.8647
227 1 -1.1104 9.57751 -0.77004 12.3315
228 1 -1.1104 9.62629 -1.18818 9.47884
238 1 -1.1104 3.97791 7.81974 6.75782
173 1 -1.1104 3.94672 1.91968 6.57329
234 1 -1.1104 1.17097 7.45957 6.70386
239 1 -1.1104 3.8149 4.68847 6.66951
167 1 -1.1104 1.12321 1.83009 6.7813
703 2 2.2208 10.7583 11.5826 -0.291826
236 1 -1.1104 0.683011 4.59655 7.10094
177 1 -1.1104 1.33968 2.22715 12.4668
181 1 -1.1104 0.917792 2.06817 9.85938
187 2 2.2208 5.42039 3.12955 8.1998
191 1 -1.1104 4.15021 1.95942 12.2916
194 1 -1.1104 3.57805 1.93725 9.57833
196 2 2.2208 2.37456 3.44046 10.9369
240 2 2.2208 5.0485 5.99481 10.9164
242 1 -1.1104 0.9013 7.63959 12.2676
246 1 -1.1104 0.816671 4.88706 12.595
251 1 -1.1104 0.918948 4.87506 9.79491
256 2 2.2208 2.24813 6.17403 8.31568
260 1 -1.1104 4.03843 4.6651 12.3399
262 1 -1.1104 3.54004 4.65424 9.32097
255 1 -1.1104 3.57083 7.74948 12.43
244 1 -1.1104 1.0102 7.61476 9.55763
258 1 -1.1104 3.81108 7.48298 9.66727
311 2 2.2208 -0.371604 20.491 8.04953
265 1 -1.1104 12.3251 7.45966 6.85365
206 1 -1.1104 12.3006 1.92158 6.61224
266 1 -1.1104 12.2349 4.66057 6.87306
267 1 -1.1104 9.28455 7.63547 7.09176
8509 2 2.2208 10.8401 -5.3529 10.9718
209 1 -1.1104 9.62162 1.84902 6.51131
269 1 -1.1104 9.44032 4.58943 6.95557
253 1 -1.1104 6.32951 4.82731 9.4985
245 1 -1.1104 6.69273 7.61617 9.74331
248 1 -1.1104 6.84495 4.56925 12.3376
179 1 -1.1104 6.57076 1.83557 12.5672
183 1 -1.1104 6.71623 1.81022 9.60366
243 1 -1.1104 6.39014 7.41414 12.5079
213 1 -1.1104 12.2396 1.91114 12.4732
215 1 -1.1104 12.2848 2.0361 9.3755
218 2 2.2208 10.965 3.29683 8.04671
221 1 -1.1104 9.50972 1.84271 12.1491
224 1 -1.1104 9.58021 1.81521 9.4536
226 2 2.2208 8.05102 3.17697 11.0422
268 1 -1.1104 9.35254 4.67679 9.63615
271 1 -1.1104 9.38212 4.96126 12.5702
275 2 2.2208 7.86681 6.21625 8.1155
276 2 2.2208 10.8054 6.04819 11.0846
278 1 -1.1104 12.2303 7.55832 12.3234
280 1 -1.1104 12.1841 4.65769 12.5232
283 1 -1.1104 12.1657 4.67574 9.77934
285 1 -1.1104 9.45541 7.63314 12.552
273 1 -1.1104 9.37656 7.27583 9.77373
279 1 -1.1104 12.2533 7.66391 9.55513
124 1 -1.1104 3.64964 13.2679 6.80291
108 1 -1.1104 0.935456 13.2416 6.82826
78 1 -1.1104 3.72574 10.5158 6.68262
353 2 2.2208 7.85172 11.861 13.6574
241 2 2.2208 5.07898 11.7951 10.7362
247 1 -1.1104 0.98483 10.4259 12.3555
250 2 2.2208 5.18563 9.06517 8.05173
252 1 -1.1104 0.994742 10.5416 9.47708
257 2 2.2208 2.20106 11.7924 8.10634
259 2 2.2208 2.34688 8.95352 10.879
261 1 -1.1104 3.65927 10.3418 12.2443
263 1 -1.1104 3.71308 10.4261 9.46261
287 1 -1.1104 3.77959 13.2021 12.2547
294 1 -1.1104 0.94886 13.2607 9.44184
299 1 -1.1104 1.02733 13.2761 12.3771
305 1 -1.1104 3.79567 13.3016 9.5231
53 2 2.2208 13.7214 17.5114 8.09758
254 1 -1.1104 6.58116 10.513 9.4105
154 1 -1.1104 9.59297 13.0696 6.76941
101 1 -1.1104 9.36204 10.3017 6.77006
90 1 -1.1104 12.1491 10.4763 6.69433
143 1 -1.1104 12.3377 13.1585 6.74444
249 1 -1.1104 6.53719 10.4288 12.2625
297 1 -1.1104 6.59612 13.1881 12.1052
290 1 -1.1104 6.7463 13.0261 9.31316
264 1 -1.1104 9.41219 10.3783 9.82843
270 1 -1.1104 9.24996 10.3546 12.5192
272 2 2.2208 8.079 8.83632 11.1341
274 2 2.2208 8.06441 11.8485 8.01113
277 2 2.2208 10.8807 11.9948 10.907
281 1 -1.1104 12.2013 10.4348 12.543
282 2 2.2208 10.7944 9.07913 8.19998
284 1 -1.1104 12.121 10.5378 9.66141
328 1 -1.1104 12.2784 13.3343 9.62275
322 1 -1.1104 9.34765 13.2663 12.2183
319 1 -1.1104 9.41118 13.2046 9.49248
233 1 -1.1104 12.4494 13.2974 12.4414
302 1 -1.1104 0.807876 19.1542 6.71045
133 1 -1.1104 3.69748 16.1274 6.77592
324 2 2.2208 10.8426 20.3365 8.0268
117 1 -1.1104 0.874348 16.1695 6.55505
365 2 2.2208 -0.287652 0.477824 -0.385758
126 1 -1.1104 3.57858 19.3028 6.70423
304 1 -1.1104 4.12641 16.1731 9.45807
309 2 2.2208 2.42665 20.3607 11.012
308 1 -1.1104 3.88276 16.2583 12.292
307 1 -1.1104 1.05789 16.1511 12.1515
310 2 2.2208 2.58599 14.7719 10.6653
286 1 -1.1104 3.79448 19.0743 12.4675
291 1 -1.1104 1.03373 18.9908 9.41503
292 1 -1.1104 0.978036 16.2039 9.4803
293 2 2.2208 5.20684 20.4732 8.14054
295 2 2.2208 5.40134 14.7167 8.04654
298 1 -1.1104 0.882858 18.8767 12.1257
300 2 2.2208 5.28418 17.5955 11.0492
301 1 -1.1104 3.96331 19.1548 9.62502
303 2 2.2208 2.42787 17.7165 8.00865
9200 2 2.2208 -0.325237 8.98948 8.05556
320 2 2.2208 8.10118 17.4709 8.16547
323 1 -1.1104 12.3755 15.9461 9.63911
296 1 -1.1104 6.54353 19.0382 12.3913
325 2 2.2208 10.8165 14.4763 8.11742
112 1 -1.1104 6.59604 18.8511 6.70882
145 1 -1.1104 12.3136 18.6917 6.58056
118 1 -1.1104 6.67532 16.1097 6.62049
156 1 -1.1104 9.3939 18.8558 6.87144
306 1 -1.1104 6.73882 16.0799 12.3549
317 2 2.2208 8.0708 14.4652 10.8341
329 1 -1.1104 12.3548 18.92 12.3767
326 1 -1.1104 12.3274 16.0794 12.4547
149 1 -1.1104 12.2271 15.8711 6.60418
316 2 2.2208 8.06867 20.4648 10.9903
321 1 -1.1104 9.37819 19.1506 12.3195
327 1 -1.1104 12.2744 18.8913 9.45483
204 2 2.2208 11.0642 17.3878 10.7564
163 1 -1.1104 9.40404 15.9488 6.78844
289 1 -1.1104 6.84838 15.9006 9.50695
318 1 -1.1104 9.55584 18.7277 9.46162
288 1 -1.1104 6.60181 18.7436 9.41403
314 1 -1.1104 9.65775 15.9603 9.60685
315 1 -1.1104 9.39457 16.1638 12.3649
362 2 2.2208 2.52725 -2.4071 -0.17879
9196 2 2.2208 -0.223482 11.8739 11.0214
17419 2 2.2208 -0.0899915 -5.23964 5.40626
203 2 2.2208 13.5461 11.7734 8.21962
367 2 2.2208 11.1259 0.329258 -0.232105
135 2 2.2208 10.7001 5.98565 -0.0648099
232 2 2.2208 13.691 3.34621 11.0297
368 2 2.2208 2.38652 14.4929 -0.202371
366 2 2.2208 5.20042 5.99891 -0.243488
330 2 2.2208 13.6996 3.47596 5.32417
704 2 2.2208 13.7211 14.389 -0.45531
136 2 2.2208 -0.28761 20.1156 2.51201
354 2 2.2208 2.39972 17.4336 13.688
706 2 2.2208 13.5663 9.07783 -0.164299
372 2 2.2208 5.25451 0.580783 16.6545
373 1 -1.1104 1.20572 -4.06858 17.9751
377 1 -1.1104 0.85293 -3.70117 15.3036
385 1 -1.1104 1.11395 -1.09616 17.8873
387 2 2.2208 5.17319 -2.20992 19.4275
389 1 -1.1104 0.965065 -0.884118 15.1375
393 1 -1.1104 3.81836 -3.7432 17.9519
395 2 2.2208 2.57655 0.662262 19.2075
396 1 -1.1104 3.75517 -3.85127 15.0939
400 2 2.2208 2.39066 -2.35384 16.4845
402 1 -1.1104 3.95575 -0.705755 17.8509
403 1 -1.1104 3.88817 -0.89188 15.097
335 2 2.2208 -0.461845 -2.35102 14.0056
352 2 2.2208 10.9445 8.82785 13.8286
378 1 -1.1104 1.18378 -4.03545 20.6971
404 1 -1.1104 3.74599 -0.843918 20.8262
8581 2 2.2208 10.8343 -5.20101 22.2934
358 2 2.2208 10.8611 14.7683 13.5954
386 1 -1.1104 6.70122 -0.967377 17.7892
375 1 -1.1104 6.7047 -3.82217 17.8898
391 1 -1.1104 6.70824 -0.894338 14.8763
381 1 -1.1104 6.76389 -3.73759 15.0143
415 2 2.2208 10.7944 0.565009 16.5435
416 1 -1.1104 12.3578 -3.76869 17.9569
418 1 -1.1104 12.3349 -4.01581 15.0483
422 1 -1.1104 12.1748 -0.924207 17.8123
423 2 2.2208 10.7086 -1.97663 19.4752
425 1 -1.1104 12.209 -0.904178 15.0558
427 1 -1.1104 9.54125 -3.70059 18.2315
429 2 2.2208 8.02083 0.401321 19.4991
430 1 -1.1104 9.61037 -3.7071 15.1953
434 2 2.2208 8.13054 -2.47261 16.5405
436 1 -1.1104 9.40588 -0.808745 17.9709
437 1 -1.1104 9.38314 -0.973011 15.1246
392 1 -1.1104 6.37852 -0.687107 20.7186
438 1 -1.1104 9.27114 -1.02069 20.7332
431 1 -1.1104 9.48834 -3.81232 20.7872
8636 2 2.2208 5.15642 -5.21229 16.6203
382 1 -1.1104 6.72395 -3.55404 20.8574
602 1 -1.1104 12.0951 18.6597 23.7082
339 2 2.2208 5.26967 3.2709 13.8046
374 1 -1.1104 0.817143 1.76501 17.9378
379 1 -1.1104 0.832933 1.88433 15.2806
388 2 2.2208 5.13286 3.46304 19.295
394 1 -1.1104 3.73595 2.16593 17.9283
398 1 -1.1104 3.72323 1.9098 15.2047
401 2 2.2208 2.2435 3.48369 16.5554
448 2 2.2208 5.12107 6.05667 16.4376
456 1 -1.1104 0.878449 4.69339 18.1351
461 1 -1.1104 0.875001 4.71655 15.1223
469 1 -1.1104 3.63848 7.68955 18.0613
470 2 2.2208 2.21413 6.1298 19.4456
475 1 -1.1104 3.65668 4.75775 17.9729
477 1 -1.1104 3.76741 4.66613 15.2968
450 1 -1.1104 0.974011 7.57036 17.9084
472 1 -1.1104 3.67554 7.585 15.2522
452 1 -1.1104 0.935233 7.5382 15.145
338 2 2.2208 13.636 11.9353 13.9695
8520 2 2.2208 2.55974 -5.09703 13.8105
574 2 2.2208 8.04581 20.3501 22.1397
399 1 -1.1104 3.87769 2.05611 20.8431
634 2 2.2208 13.629 14.6695 16.524
558 1 -1.1104 12.2659 15.9515 20.888
383 1 -1.1104 6.55638 2.07655 15.3246
451 1 -1.1104 6.28713 7.65763 17.9386
465 1 -1.1104 6.57175 4.62807 15.3244
454 1 -1.1104 6.52494 7.50776 14.9384
376 1 -1.1104 6.721 1.88745 18.1252
458 1 -1.1104 6.64055 4.77943 18.0362
417 1 -1.1104 12.2224 1.92777 18.062
420 1 -1.1104 12.2145 1.84358 15.1463
424 2 2.2208 10.8509 3.36601 19.375
428 1 -1.1104 9.44758 2.00122 17.8343
432 1 -1.1104 9.30381 1.98791 15.0139
435 2 2.2208 8.00254 3.28013 16.6212
484 2 2.2208 10.8155 6.09952 16.7931
489 1 -1.1104 12.2372 4.73899 18.0205
492 1 -1.1104 12.3404 4.60992 15.4626
497 2 2.2208 7.98999 6.11398 19.5007
499 1 -1.1104 9.35754 7.36163 15.3397
502 1 -1.1104 9.43181 4.85653 18.1471
504 1 -1.1104 9.28449 4.6932 15.286
496 1 -1.1104 9.29262 7.60801 18.1097
487 1 -1.1104 12.1932 7.50365 15.3124
486 1 -1.1104 12.3425 7.73547 18.1985
637 2 2.2208 13.5791 -2.38012 22.1869
337 2 2.2208 2.47185 0.635415 13.8099
449 2 2.2208 5.28979 11.7984 16.8297
457 1 -1.1104 0.910807 10.3013 17.8811
460 2 2.2208 5.09769 8.93561 19.3473
463 1 -1.1104 1.0134 10.5552 15.2006
471 2 2.2208 2.48781 11.7872 19.3718
474 2 2.2208 2.38168 9.06765 16.6827
476 1 -1.1104 3.79474 10.5345 18.0511
479 1 -1.1104 3.70987 10.5021 15.2054
512 1 -1.1104 0.987056 13.0812 18.0487
516 1 -1.1104 0.966749 13.2494 15.1508
532 1 -1.1104 3.92428 13.2011 17.9812
535 1 -1.1104 3.58052 13.1511 15.1666
8617 2 2.2208 8.16005 -5.27592 19.4913
464 1 -1.1104 1.10107 10.535 20.937
412 2 2.2208 -0.40025 11.8961 16.5787
572 1 -1.1104 9.31892 19.0528 26.3045
17603 2 2.2208 13.6405 -5.09457 25.1548
409 2 2.2208 -0.31829 -2.39469 19.3229
459 1 -1.1104 6.65565 10.5084 18.132
467 1 -1.1104 6.60681 10.3891 15.3877
520 1 -1.1104 6.38238 13.0695 15.1326
514 1 -1.1104 6.59464 13.1374 18.0612
485 2 2.2208 10.7143 11.875 16.4176
490 1 -1.1104 12.1028 10.4896 18.0235
491 2 2.2208 10.6523 9.04031 19.3494
494 1 -1.1104 12.0539 10.3572 15.2651
498 2 2.2208 7.93184 11.7293 19.467
501 2 2.2208 7.97542 9.068 16.5326
503 1 -1.1104 9.33577 10.3688 17.8234
506 1 -1.1104 9.45167 10.237 15.1663
548 1 -1.1104 12.3469 13.3496 17.9478
550 1 -1.1104 12.1014 13.385 15.0086
559 1 -1.1104 9.59916 13.2966 17.9939
562 1 -1.1104 9.3207 13.1122 15.2687
349 2 2.2208 5.04963 8.97125 13.845
357 2 2.2208 10.8995 20.4503 13.6942
356 2 2.2208 5.14036 14.393 13.734
9226 2 2.2208 -0.288508 20.2145 25.0662
606 2 2.2208 13.6988 20.342 16.6088
539 2 2.2208 2.52939 14.6346 16.5212
526 2 2.2208 5.20783 14.7491 19.3634
511 2 2.2208 5.33228 17.3646 16.5537
513 1 -1.1104 1.17166 18.696 17.852
518 1 -1.1104 1.00637 18.628 14.9716
524 1 -1.1104 0.90576 15.9158 17.8229
527 2 2.2208 5.21337 20.2856 19.3392
528 1 -1.1104 1.28435 15.9054 15.0757
533 1 -1.1104 3.94063 18.6093 17.995
534 2 2.2208 2.48748 17.3735 19.4062
537 1 -1.1104 3.89446 18.8248 15.2679
540 2 2.2208 2.57425 20.3277 16.4923
541 1 -1.1104 3.63574 16.0304 18.0538
542 1 -1.1104 4.09195 15.9542 15.2482
344 2 2.2208 8.14755 0.524157 13.6304
483 2 2.2208 10.7626 14.6456 25.1262
543 1 -1.1104 3.76275 16.0001 20.9603
519 1 -1.1104 0.960169 18.9843 20.8558
350 2 2.2208 2.26458 11.8588 13.8806
348 2 2.2208 2.34265 6.15564 13.7242
522 1 -1.1104 6.73931 18.9482 15.0883
530 1 -1.1104 6.78456 15.8989 15.2082
525 1 -1.1104 6.56112 16.0571 18.0688
515 1 -1.1104 6.56885 19.1193 17.8222
566 2 2.2208 7.93587 14.5141 16.6648
555 2 2.2208 10.8545 14.586 19.6234
547 2 2.2208 10.7919 17.4255 16.5517
549 1 -1.1104 12.3922 18.8717 17.9134
552 1 -1.1104 12.2738 19.1084 15.2849
554 1 -1.1104 12.3947 15.9352 18.1656
556 2 2.2208 10.7337 20.2768 19.3791
557 1 -1.1104 12.1783 16.114 15.2628
560 1 -1.1104 9.51416 18.8722 18.0489
561 2 2.2208 8.07286 17.6634 19.3371
564 1 -1.1104 9.24033 18.789 15.5481
567 2 2.2208 8.0083 20.2722 16.6354
568 1 -1.1104 9.28614 16.0053 17.7428
569 1 -1.1104 9.51712 16.1103 15.1289
347 2 2.2208 10.7334 3.39156 13.8849
636 1 -1.1104 6.6058 16.0534 23.7505
359 2 2.2208 8.09484 17.517 13.7683
573 2 2.2208 8.09767 14.6072 22.2649
397 1 -1.1104 3.93239 -3.81071 20.7399
390 1 -1.1104 0.996599 -0.996826 20.7997
355 2 2.2208 5.27509 20.3448 13.852
608 2 2.2208 -0.296589 -2.33822 25.0888
575 2 2.2208 5.16284 0.453777 22.3455
576 1 -1.1104 0.913679 -3.82627 23.5457
580 1 -1.1104 1.22629 -3.73998 26.5977
584 1 -1.1104 1.03683 -1.01595 23.556
586 2 2.2208 5.21153 -2.52561 25.1075
588 1 -1.1104 1.05037 -0.981908 26.3967
590 1 -1.1104 3.64428 -3.79791 23.6972
592 2 2.2208 2.33269 0.443259 25.0048
593 1 -1.1104 3.85892 -3.70215 26.4162
595 2 2.2208 2.34075 -2.45763 22.1254
597 1 -1.1104 3.85655 -0.837718 23.8751
598 1 -1.1104 3.77447 -1.03908 26.5647
585 1 -1.1104 6.78091 -1.13964 23.8257
426 1 -1.1104 12.239 -0.963948 20.9688
553 1 -1.1104 12.0414 18.8034 20.6549
419 1 -1.1104 12.1941 -3.75592 20.8954
589 1 -1.1104 6.7486 -0.849212 26.5348
582 1 -1.1104 6.7612 -3.90427 26.4438
578 1 -1.1104 6.06993 -3.80425 23.4972
611 2 2.2208 10.8653 0.499193 22.5802
612 1 -1.1104 12.1762 -3.52698 23.5831
614 1 -1.1104 12.3501 -3.79312 26.4031
616 1 -1.1104 12.1402 -0.734841 24.0306
617 2 2.2208 10.7233 -2.45667 25.1725
619 1 -1.1104 12.4046 -1.07672 26.727
620 1 -1.1104 9.34594 -3.68758 23.6889
622 2 2.2208 8.11029 0.45601 25.1825
623 1 -1.1104 9.55698 -3.95066 26.5496
625 2 2.2208 7.86503 -2.3017 22.417
627 1 -1.1104 9.40948 -0.967306 23.7463
628 1 -1.1104 9.54574 -0.98202 26.5316
478 1 -1.1104 3.76473 4.8953 20.8288
473 1 -1.1104 3.68705 7.66099 20.8963
462 1 -1.1104 0.984676 4.77822 20.8393
453 1 -1.1104 0.905411 7.69099 20.8455
380 1 -1.1104 1.05078 1.96077 20.5299
442 2 2.2208 -0.279397 17.4085 16.6347
694 2 2.2208 13.355 6.18507 25.1236
577 1 -1.1104 1.08526 2.02473 23.3633
581 1 -1.1104 0.941149 1.80083 26.29
587 2 2.2208 5.2639 3.35663 25.0824
591 1 -1.1104 3.86959 1.94603 23.5776
594 1 -1.1104 3.79835 1.8425 26.4182
596 2 2.2208 2.38222 3.32955 22.0006
640 2 2.2208 5.21731 6.14675 22.2587
646 1 -1.1104 0.964061 4.63133 23.4488
651 1 -1.1104 1.07224 4.53166 26.3337
656 2 2.2208 2.28014 5.84392 24.9678
660 1 -1.1104 3.8894 4.78981 23.7421
662 1 -1.1104 4.01865 4.66431 26.4699
642 1 -1.1104 0.956291 7.50269 23.7521
644 1 -1.1104 0.93141 7.40384 26.4446
658 1 -1.1104 3.90996 7.35761 26.3565
655 1 -1.1104 3.67947 7.70729 23.5377
488 1 -1.1104 12.4489 7.35258 20.8987
384 1 -1.1104 6.68954 2.16589 20.9042
455 1 -1.1104 6.59663 7.71944 20.9078
421 1 -1.1104 12.2855 1.67595 21.006
433 1 -1.1104 9.49376 1.72479 20.855
466 1 -1.1104 6.68439 4.82228 20.9682
500 1 -1.1104 9.41142 7.36792 20.8887
493 1 -1.1104 12.2567 4.46735 20.8509
583 1 -1.1104 6.98913 1.96376 26.5451
643 1 -1.1104 6.55081 7.55394 23.7154
648 1 -1.1104 6.50528 4.73387 23.66
579 1 -1.1104 6.46663 1.63624 23.7262
653 1 -1.1104 6.69484 4.62621 26.6578
645 1 -1.1104 6.60832 7.37949 26.4934
505 1 -1.1104 9.48492 4.52841 20.8305
613 1 -1.1104 12.2743 1.91634 23.7147
615 1 -1.1104 12.4308 2.00479 26.4624
618 2 2.2208 10.9773 3.25329 25.1098
621 1 -1.1104 9.16093 1.79159 23.8427
624 1 -1.1104 9.77158 1.98028 26.8766
626 2 2.2208 8.08436 3.29628 22.2077
672 1 -1.1104 9.74004 4.84775 26.3447
674 1 -1.1104 9.45627 4.73272 23.5001
678 2 2.2208 7.98913 6.01951 25.1039
679 2 2.2208 10.711 6.03089 22.1753
683 1 -1.1104 12.4476 4.70362 23.5723
686 1 -1.1104 12.3847 4.80237 26.7548
688 1 -1.1104 9.19261 7.71665 23.9575
676 1 -1.1104 9.17574 7.38205 26.7422
682 1 -1.1104 11.8402 7.56876 26.6013
681 1 -1.1104 11.9573 7.48242 23.6605
544 1 -1.1104 9.31522 19.0391 23.5735
600 1 -1.1104 9.41913 15.9587 26.3937
536 1 -1.1104 3.86976 13.3025 20.6706
480 1 -1.1104 3.63141 10.4503 21.0486
363 2 2.2208 2.5608 3.16198 27.7951
517 1 -1.1104 0.935006 13.2545 20.875
482 1 -1.1104 12.2178 16.0179 23.5465
641 2 2.2208 5.20346 11.8546 22.1754
647 1 -1.1104 0.96263 10.3215 23.6143
650 2 2.2208 5.25743 8.86299 25.0126
652 1 -1.1104 1.13975 10.3044 26.4523
657 2 2.2208 2.4445 11.801 25.1362
659 2 2.2208 2.22459 9.04291 22.1783
661 1 -1.1104 3.99297 10.371 23.8764
663 1 -1.1104 3.80884 10.2084 26.3831
639 1 -1.1104 3.79253 13.0908 26.4242
670 1 -1.1104 0.999147 13.218 23.8371
692 1 -1.1104 0.926525 13.066 26.394
697 1 -1.1104 3.84111 13.2449 23.4911
690 1 -1.1104 6.67018 13.2004 23.9838
531 1 -1.1104 6.57274 16.2411 20.8281
481 1 -1.1104 12.3181 18.891 26.4406
495 1 -1.1104 12.065 10.1016 21.0557
521 1 -1.1104 6.78623 13.1814 20.9914
563 1 -1.1104 9.56533 13.1889 20.8871
551 1 -1.1104 12.3593 13.1004 20.5589
507 1 -1.1104 9.42182 10.4762 20.7642
468 1 -1.1104 6.51053 10.2302 20.8518
654 1 -1.1104 6.42832 10.2044 26.5469
696 1 -1.1104 6.57047 12.9472 26.7398
649 1 -1.1104 6.82065 10.3999 23.701
571 1 -1.1104 9.33052 13.1349 26.5695
671 1 -1.1104 9.31628 10.2427 26.7032
673 1 -1.1104 9.26345 10.4201 23.8225
675 2 2.2208 8.07881 8.94062 22.2752
677 2 2.2208 7.92355 11.6855 25.2282
680 2 2.2208 10.7913 11.7261 22.2778
684 1 -1.1104 12.2334 10.237 23.8516
685 2 2.2208 10.6423 8.93915 25.1191
687 1 -1.1104 11.9141 10.3338 26.5738
632 1 -1.1104 12.3189 13.207 23.4701
447 1 -1.1104 12.2659 13.0923 26.29
510 1 -1.1104 9.46138 13.318 23.6942
529 1 -1.1104 0.99503 16.2064 20.7595
629 2 2.2208 2.4508 14.6339 22.1204
538 1 -1.1104 3.87795 18.7821 20.7707
369 2 2.2208 5.09028 17.2421 27.8085
336 2 2.2208 5.29336 -2.3266 13.6427
565 1 -1.1104 9.3657 18.7801 20.8177
601 1 -1.1104 1.17399 15.9763 26.1645
605 1 -1.1104 1.10467 18.8308 26.4896
630 2 2.2208 2.35183 20.3105 22.1184
631 1 -1.1104 3.7766 15.9396 23.5849
635 1 -1.1104 0.919657 15.9916 23.3292
664 1 -1.1104 3.78713 15.7698 26.5109
665 2 2.2208 2.20917 17.4166 24.8999
666 1 -1.1104 3.83267 18.6273 26.3337
667 2 2.2208 5.39453 17.7328 22.2496
689 1 -1.1104 1.0721 18.8473 23.5744
691 2 2.2208 5.24007 14.7445 25.1082
693 2 2.2208 5.1767 20.3138 24.9888
695 1 -1.1104 3.69463 19.0994 23.537
570 1 -1.1104 9.35995 16.004 20.8928
523 1 -1.1104 6.61179 19.0281 20.6501
603 2 2.2208 10.804 17.3065 22.051
546 1 -1.1104 6.53184 18.7143 26.4324
698 1 -1.1104 6.61686 16.0532 26.4799
545 2 2.2208 8.10325 17.3981 25.0817
633 1 -1.1104 6.6911 18.8974 23.6098
508 2 2.2208 10.9139 20.1971 24.9683
599 1 -1.1104 9.34664 16.179 23.5206
509 1 -1.1104 12.2415 15.9478 26.502
341 2 2.2208 2.49683 8.6894 27.8833
351 2 2.2208 7.99607 6.19743 13.839
609 2 2.2208 -0.277604 0.395777 22.2039
440 2 2.2208 -0.427469 20.0104 13.786
345 2 2.2208 11.0039 -2.37892 13.6966
343 2 2.2208 -0.435989 3.36999 13.8379
8582 2 2.2208 2.29443 -5.11225 25.0245
346 2 2.2208 13.6864 0.564461 13.963
446 2 2.2208 13.7493 3.41541 16.8221
410 2 2.2208 -0.361698 9.00004 19.4544
9377 2 2.2208 -0.180191 20.3105 19.3073
342 2 2.2208 13.6188 6.07229 13.9025
9379 2 2.2208 -0.365351 17.4692 22.1757
699 2 2.2208 13.5227 17.3453 25.0464
607 2 2.2208 -0.328716 14.6207 25.0575
407 2 2.2208 13.5896 8.83423 22.3503
439 2 2.2208 13.5349 8.94318 16.6421
9227 2 2.2208 13.6027 20.1801 22.2522
414 2 2.2208 13.5346 6.06005 19.5221
8516 2 2.2208 5.28222 -5.21999 27.7053
707 2 2.2208 5.23294 23.4386 5.25089
709 1 -1.1104 0.961916 24.5111 1.11113
710 1 -1.1104 1.07761 24.5461 3.91934
711 1 -1.1104 0.799343 21.8086 1.01768
713 2 2.2208 5.23504 26.0428 2.45526
714 1 -1.1104 1.02402 21.7614 3.83974
716 1 -1.1104 3.88129 24.5099 1.07234
717 2 2.2208 2.42081 23.3095 2.42121
719 1 -1.1104 3.93868 24.619 3.8358
720 2 2.2208 2.53244 25.95 5.30173
721 1 -1.1104 3.82871 21.7428 0.936065
723 1 -1.1104 3.7176 21.7265 3.53783
712 1 -1.1104 0.779101 27.2007 1.02724
722 1 -1.1104 3.67884 27.4176 1.0217
724 1 -1.1104 3.88884 27.3138 3.78561
851 1 -1.1104 0.97964 27.4302 6.72385
1154 2 2.2208 -0.429124 34.2685 -0.256096
715 1 -1.1104 1.24182 27.2458 4.00672
998 2 2.2208 -0.347921 40.0227 10.9911
848 1 -1.1104 1.10474 24.6521 6.6354
1054 2 2.2208 10.866 34.2196 -0.0528281
1380 2 2.2208 10.9689 31.5987 13.7381
730 1 -1.1104 6.63276 21.7796 0.964865
728 1 -1.1104 6.72201 24.4214 1.10895
729 1 -1.1104 6.72287 24.81 3.80294
732 1 -1.1104 6.59221 21.7836 3.86183
734 2 2.2208 10.8892 23.1893 5.0361
736 1 -1.1104 12.3016 24.4176 1.10156
737 1 -1.1104 12.4658 24.3151 3.69405
738 1 -1.1104 12.5301 21.6307 1.09458
740 2 2.2208 11.1089 25.8459 2.41312
741 1 -1.1104 12.2746 21.6663 3.759
743 1 -1.1104 9.35753 24.5923 1.16328
744 2 2.2208 8.05309 22.9115 2.39555
746 1 -1.1104 9.5509 24.3721 3.7299
747 2 2.2208 8.31008 25.8566 5.15779
748 1 -1.1104 9.63564 21.6549 0.971502
750 1 -1.1104 9.50405 21.3889 3.98626
749 1 -1.1104 9.70845 27.1976 0.790793
739 1 -1.1104 12.82 27.0915 1.11521
742 1 -1.1104 12.5543 27.3517 3.90782
731 1 -1.1104 6.82831 27.3709 1.08416
852 1 -1.1104 6.76579 21.6133 6.66987
881 1 -1.1104 12.5221 24.5464 6.64634
733 1 -1.1104 6.76865 27.4678 3.71806
849 1 -1.1104 6.81994 24.5207 6.5031
751 1 -1.1104 9.76875 27.0555 3.89219
1050 2 2.2208 11.1821 23.0462 -0.271966
9796 2 2.2208 -0.459851 31.5423 2.54445
708 2 2.2208 5.3036 28.5566 5.43343
718 2 2.2208 2.37944 28.7276 2.6697
756 1 -1.1104 1.10117 30.2102 1.04397
762 1 -1.1104 1.25862 32.8296 1.10753
763 2 2.2208 5.22451 31.3952 2.6962
765 1 -1.1104 0.799065 32.9199 3.63484
767 1 -1.1104 3.77386 30.2099 1.33271
770 1 -1.1104 3.95794 29.9233 4.01884
772 2 2.2208 2.42843 31.4907 5.5692
774 1 -1.1104 4.13922 32.7625 0.964394
775 1 -1.1104 3.76647 32.8865 4.07382
905 1 -1.1104 1.1243 30.1465 4.01643
1015 1 -1.1104 12.1514 44.3482 7.08072
909 1 -1.1104 1.14026 33.1973 6.50905
919 1 -1.1104 0.998786 29.9868 6.69866
766 1 -1.1104 6.60022 32.7809 3.98362
1031 2 2.2208 2.43884 42.8383 -0.397463
1039 2 2.2208 2.46121 31.5682 -0.297837
777 2 2.2208 5.17394 45.5888 -0.369659
1182 2 2.2208 2.27704 26.0367 -0.227927
781 1 -1.1104 6.74239 32.867 1.29907
907 1 -1.1104 6.57224 29.9892 6.87998
1027 2 2.2208 8.08699 31.5566 -0.230788
779 1 -1.1104 6.77131 30.2191 1.17938
780 1 -1.1104 6.74271 30.1636 3.99107
735 2 2.2208 11.0098 28.6774 5.19569
745 2 2.2208 8.2694 28.8004 2.34781
785 1 -1.1104 12.3026 30.2283 3.79481
787 1 -1.1104 12.454 32.6936 1.25593
788 2 2.2208 10.9372 31.6357 2.56679
790 1 -1.1104 12.2646 32.8829 4.18219
791 1 -1.1104 9.62745 30.2276 1.19299
794 1 -1.1104 9.46952 30.0335 3.98886
796 2 2.2208 8.16912 31.3674 5.26814
798 1 -1.1104 9.49121 32.9867 1.20639
799 1 -1.1104 9.58852 32.7671 3.90522
939 1 -1.1104 12.4274 30.0741 6.75092
941 1 -1.1104 12.2901 33.0625 6.97113
944 1 -1.1104 9.35983 32.8403 6.65792
755 2 2.2208 5.36817 34.2725 5.43755
757 1 -1.1104 0.884407 35.8224 1.2444
760 1 -1.1104 1.11024 35.6521 4.00485
764 2 2.2208 5.27785 37.1623 2.62674
768 1 -1.1104 3.92487 35.8665 1.06795