ITEM: TIMESTEP
80000
ITEM: NUMBER OF ATOMS
17640
ITEM: BOX BOUNDS pp pp pp
-3.5805991037060297e-01 2.7698059910370642e+01
-4.3326432088974576e+00 3.3241264320889394e+02
-3.6031096611009034e-01 2.7700310966110052e+01
ITEM: ATOMS id type q x y z
1 2 2.2208 5.05082 1.21587 5.22352
2 1 -1.1104 0.868766 -2.93254 1.03031
3 1 -1.1104 0.958438 2.75308 1.12929
6 1 -1.1104 0.835653 -3.0063 3.87114
7 1 -1.1104 1.01627 2.54834 4.01334
10 1 -1.1104 0.774607 -0.0106211 1.07973
12 2 2.2208 5.00758 -1.55902 2.55747
13 2 2.2208 4.92189 4.1485 2.48734
14 1 -1.1104 0.857287 -0.275951 3.93211
16 1 -1.1104 3.56907 -2.86566 0.996551
17 1 -1.1104 3.67319 2.61212 1.10879
18 2 2.2208 2.27277 1.16046 2.51198
19 1 -1.1104 3.63959 -2.99833 3.82435
20 1 -1.1104 3.64542 2.66755 3.84692
21 2 2.2208 2.10194 -1.43568 5.34461
23 1 -1.1104 3.61707 -0.247527 1.1125
24 1 -1.1104 3.58922 -0.221717 4.00179
22 2 2.2208 2.3077 4.08963 5.23502
11 1 -1.1104 6.37913 -0.185232 1.1315
15 1 -1.1104 6.5112 -0.152233 3.83376
4 1 -1.1104 6.16523 -2.98512 1.16449
9 1 -1.1104 6.29165 2.62197 3.82834
8 1 -1.1104 6.37958 -3.15766 4.084
167 1 -1.1104 0.839403 2.76854 6.73472
5 1 -1.1104 6.44583 2.74595 1.03977
52 2 2.2208 10.5098 -4.29477 5.17987
173 1 -1.1104 3.70491 2.7247 6.6517
170 1 -1.1104 0.735828 -0.155944 6.69914
172 1 -1.1104 3.62118 -2.87388 6.64227
203 2 2.2208 4.89441 -4.28785 10.8282
362 2 2.2208 13.3438 12.4688 13.6087
49 2 2.2208 13.4102 1.24532 2.47325
31 2 2.2208 10.6199 1.21981 5.36726
32 1 -1.1104 11.8938 -2.99782 1.24394
33 1 -1.1104 12.1707 2.71286 1.1426
34 1 -1.1104 11.9506 -3.03943 3.94113
35 1 -1.1104 11.9651 2.53591 3.87677
36 1 -1.1104 11.8944 -0.22039 0.893626
37 2 2.2208 10.602 -1.60896 2.55154
39 1 -1.1104 12.0779 -0.256402 3.7806
40 1 -1.1104 9.13997 -2.88228 1.02829
41 1 -1.1104 9.36342 2.57202 0.977734
42 2 2.2208 7.81771 1.34172 2.54183
43 1 -1.1104 9.11062 -2.94324 3.88702
44 1 -1.1104 9.0707 2.73049 3.80986
45 2 2.2208 7.72113 -1.58571 5.30218
46 2 2.2208 7.80655 4.04418 5.1987
47 1 -1.1104 9.02694 -0.0233372 1.27205
48 1 -1.1104 9.30026 -0.157894 4.13239
38 2 2.2208 10.8194 4.11711 2.49501
334 2 2.2208 13.4074 4.02174 5.17559
50 2 2.2208 13.3383 -1.5974 5.31496
208 1 -1.1104 9.19249 -2.99227 6.75713
209 1 -1.1104 9.21465 2.52282 6.62971
207 1 -1.1104 12.0515 -0.180307 6.49183
329 1 -1.1104 12.0776 19.4746 12.1708
322 1 -1.1104 9.32787 13.8125 12.2506
345 2 2.2208 13.5695 20.8433 10.7832
145 1 -1.1104 12.084 19.3011 6.47888
54 2 2.2208 5.26663 6.80651 5.24792
55 2 2.2208 5.03758 12.4523 5.17254
56 1 -1.1104 0.87886 8.33615 1.07966
58 1 -1.1104 0.918188 8.24347 3.83437
60 1 -1.1104 1.02175 5.58097 1.12379
61 1 -1.1104 0.82912 10.9444 0.81997
66 2 2.2208 5.14461 9.56326 2.29555
67 1 -1.1104 0.915467 5.42852 3.74552
68 1 -1.1104 0.926955 10.9702 3.85893
71 1 -1.1104 3.79458 8.35435 0.9035
72 2 2.2208 2.43068 6.89703 2.4054
73 2 2.2208 2.4029 12.3622 2.26637
74 1 -1.1104 3.71886 8.2782 3.77029
75 2 2.2208 2.4019 9.59646 5.21213
76 1 -1.1104 3.75645 5.55462 1.14417
77 1 -1.1104 3.72995 11.1843 0.872154
79 1 -1.1104 3.65615 5.52379 3.89352
80 1 -1.1104 3.549 10.9219 3.70214
59 1 -1.1104 6.49969 8.20074 3.74988
63 1 -1.1104 6.45333 5.48912 1.20805
64 1 -1.1104 6.45688 10.9453 0.905194
69 1 -1.1104 6.453 5.5161 3.96218
57 1 -1.1104 6.71274 8.14535 1.0193
236 1 -1.1104 0.925548 5.49279 6.52097
238 1 -1.1104 3.86372 7.98036 6.63196
70 1 -1.1104 6.3546 11.0361 3.86536
234 1 -1.1104 0.949753 8.21418 6.50566
62 1 -1.1104 0.992002 11.0278 6.73399
65 1 -1.1104 6.50683 11.0004 6.7394
28 2 2.2208 2.19505 -4.31549 2.46436
232 2 2.2208 10.7084 -4.2505 10.8775
105 2 2.2208 13.6269 6.92579 2.36179
104 2 2.2208 13.5505 12.5004 2.44742
335 2 2.2208 13.4745 9.70812 5.15338
84 2 2.2208 10.7166 6.86544 5.1882
85 2 2.2208 10.6107 12.5697 5.20423
86 1 -1.1104 11.9887 8.37495 1.13001
87 1 -1.1104 12.198 8.29416 3.83704
88 1 -1.1104 12.1153 5.55189 1.14337
89 1 -1.1104 12.0157 11.1278 0.855811
91 2 2.2208 10.5888 9.71323 2.38112
92 1 -1.1104 12.2215 5.41644 3.75737
93 1 -1.1104 12.0792 11.1424 3.69916
94 1 -1.1104 9.31619 8.25759 1.0256
95 2 2.2208 7.94713 6.76391 2.42844
96 2 2.2208 7.81247 12.3758 2.23087
97 1 -1.1104 9.42419 8.22987 3.80817
98 2 2.2208 7.88164 9.58956 5.27409
99 1 -1.1104 9.32943 5.36631 0.961898
100 1 -1.1104 9.27104 11.0085 0.936037
102 1 -1.1104 9.33436 5.5032 3.88984
103 1 -1.1104 9.21248 10.9933 3.86283
267 1 -1.1104 9.37205 8.05214 6.65348
266 1 -1.1104 12.0755 5.49143 6.56629
90 1 -1.1104 12.0484 11.2195 6.50457
314 1 -1.1104 9.24175 16.5107 9.42655
106 2 2.2208 4.90412 17.8662 5.10536
107 1 -1.1104 0.871121 13.6733 0.931751
109 1 -1.1104 0.767432 19.3178 0.987184
113 1 -1.1104 0.867302 13.6934 3.6683
114 1 -1.1104 0.710091 19.1106 3.73417
116 1 -1.1104 0.864759 16.4536 0.947705
119 2 2.2208 5.13478 15.3276 2.2578
120 2 2.2208 5.07831 20.7823 2.37536
121 1 -1.1104 0.853353 16.3163 3.86613
123 1 -1.1104 3.76832 14.0003 0.95984
125 1 -1.1104 3.49201 19.3733 1.1029
127 2 2.2208 2.12158 17.8881 2.37065
128 1 -1.1104 3.64125 13.7005 3.8134
129 1 -1.1104 3.57391 19.3976 3.70996
130 2 2.2208 2.21138 15.0386 5.12716
131 2 2.2208 2.2293 20.7865 5.25554
132 1 -1.1104 3.63284 16.5533 1.03839
134 1 -1.1104 3.68361 16.5164 3.74695
115 1 -1.1104 6.4226 13.7761 3.60226
122 1 -1.1104 6.41665 16.5923 3.80036
138 1 -1.1104 6.24513 19.4305 0.888392
140 1 -1.1104 6.52615 16.7332 1.03088
108 1 -1.1104 0.939026 13.8216 6.52077
139 1 -1.1104 6.42166 19.2305 3.74978
133 1 -1.1104 3.66091 16.4044 6.50721
124 1 -1.1104 3.69455 13.7228 6.62911
110 1 -1.1104 6.61587 13.864 0.731182
112 1 -1.1104 6.50526 19.2051 6.64997
331 2 2.2208 10.7277 17.9812 10.8936
202 2 2.2208 2.21879 -4.2913 8.04908
165 2 2.2208 13.5259 18.0077 2.38907
336 2 2.2208 13.5128 20.8877 5.18675
337 2 2.2208 13.506 15.1933 5.10691
141 2 2.2208 10.6594 17.9775 5.14999
142 1 -1.1104 12.2 13.8019 1.0396
144 1 -1.1104 11.911 19.463 0.953158
146 1 -1.1104 12.0808 13.9176 3.81265
147 1 -1.1104 12.1764 19.4114 3.59119
148 1 -1.1104 12.0425 16.6376 0.862055
150 2 2.2208 10.6839 15.3079 2.33709
151 2 2.2208 10.735 20.7673 2.3624
152 1 -1.1104 12.0437 16.7204 3.70804
153 1 -1.1104 9.32735 13.87 0.885162
155 1 -1.1104 9.20896 19.4519 0.904185
157 2 2.2208 7.96693 17.9047 2.48642
158 1 -1.1104 9.23839 13.8842 3.84323
159 1 -1.1104 9.34679 19.3508 3.6777
160 2 2.2208 7.85271 15.1304 5.12635
161 2 2.2208 7.82709 20.7138 5.23359
162 1 -1.1104 9.21739 16.4772 1.01507
164 1 -1.1104 9.26407 16.5474 3.78317
163 1 -1.1104 9.29382 16.3985 6.62947
154 1 -1.1104 9.31198 13.6892 6.59057
156 1 -1.1104 9.28763 19.177 6.41992
149 1 -1.1104 11.9735 16.7091 6.57853
326 1 -1.1104 12.1664 16.5927 12.3212
143 1 -1.1104 12.0166 14.0493 6.57871
383 2 2.2208 2.34173 4.04976 -0.370283
166 1 -1.1104 0.778471 -2.86648 6.68127
372 2 2.2208 10.7395 20.99 13.602
171 1 -1.1104 6.47205 -0.162878 6.5836
168 1 -1.1104 6.39272 -2.94761 6.74078
174 1 -1.1104 3.59166 -0.129906 6.67375
175 2 2.2208 5.14473 1.28598 10.834
176 1 -1.1104 0.69406 -2.81565 12.2461
177 1 -1.1104 0.753503 2.77949 12.2685
180 1 -1.1104 0.756579 -2.99866 9.40967
181 1 -1.1104 0.790963 2.73299 9.5181
184 1 -1.1104 0.775475 -0.0321397 12.1019
186 2 2.2208 5.004 -1.53338 8.07825
187 2 2.2208 5.10969 4.02937 7.95752
188 1 -1.1104 0.794516 -0.195793 9.29323
190 1 -1.1104 3.56056 -2.78387 12.2992
191 1 -1.1104 3.75756 2.65336 12.3501
192 2 2.2208 2.11391 1.26211 8.03043
193 1 -1.1104 3.59767 -2.90555 9.37686
194 1 -1.1104 3.59225 2.65827 9.39801
195 2 2.2208 2.18943 -1.50081 10.7857
196 2 2.2208 2.33597 4.05488 10.7745
197 1 -1.1104 3.54777 -0.0425478 12.173
198 1 -1.1104 3.66147 -0.143483 9.40277
189 1 -1.1104 6.42524 -0.114427 9.44042
179 1 -1.1104 6.42617 2.60866 12.1824
185 1 -1.1104 6.43603 0.0104422 12.1388
182 1 -1.1104 6.49556 -2.91412 9.59281
178 1 -1.1104 6.33315 -2.87951 12.1565
169 1 -1.1104 6.62757 2.63579 6.53283
183 1 -1.1104 6.56282 2.72192 9.48028
323 1 -1.1104 12.0276 16.5091 9.4341
376 2 2.2208 7.97373 18.1085 13.486
361 2 2.2208 2.22807 12.3644 13.6319
205 1 -1.1104 12.1421 -3.07669 6.60047
210 1 -1.1104 9.18455 -0.253877 6.74065
229 2 2.2208 13.3685 1.23662 8.09598
206 1 -1.1104 12.0163 2.69432 6.78354
230 2 2.2208 13.5574 -1.53567 10.8959
211 2 2.2208 10.6112 1.27528 10.9068
212 1 -1.1104 12.0456 -2.83001 12.2331
213 1 -1.1104 12.0917 2.62385 12.3353
214 1 -1.1104 12.1813 -2.89709 9.36618
215 1 -1.1104 11.9551 2.65542 9.50259
216 1 -1.1104 12.079 -0.0524334 12.2443
217 2 2.2208 10.6659 -1.54266 8.1666
219 1 -1.1104 12.0209 -0.122638 9.43003
220 1 -1.1104 9.24606 -2.79797 12.3287
221 1 -1.1104 9.24068 2.6969 12.1753
222 2 2.2208 7.87057 1.28946 8.03103
223 1 -1.1104 9.32563 -2.8197 9.57889
224 1 -1.1104 9.23252 2.71836 9.37829
225 2 2.2208 7.8992 -1.44276 10.9085
226 2 2.2208 7.89812 4.04019 10.7399
227 1 -1.1104 9.16037 -0.00658624 12.3887
228 1 -1.1104 9.22701 -0.141448 9.52764
218 2 2.2208 10.6347 4.17587 8.00889
338 2 2.2208 13.3492 4.01019 10.8106
328 1 -1.1104 12.1769 13.8072 9.39049
235 1 -1.1104 6.50369 8.31298 6.70268
239 1 -1.1104 3.74851 5.37033 6.68573
237 1 -1.1104 6.49381 5.52679 6.72243
78 1 -1.1104 3.79806 10.9506 6.56548
240 2 2.2208 5.07271 6.81368 10.8395
241 2 2.2208 5.04657 12.5067 10.7571
242 1 -1.1104 0.881889 8.3875 12.3274
244 1 -1.1104 0.787476 8.23144 9.55009
246 1 -1.1104 0.958361 5.41709 12.3465
247 1 -1.1104 0.768938 11.2534 12.181
250 2 2.2208 5.09785 9.58626 8.03695
251 1 -1.1104 0.860436 5.54674 9.42658
252 1 -1.1104 0.735896 11.0426 9.42804
255 1 -1.1104 3.63063 8.2186 12.2199
256 2 2.2208 2.31186 6.73636 8.01918
257 2 2.2208 2.41003 12.3281 7.96308
258 1 -1.1104 3.49327 8.21446 9.43837
259 2 2.2208 2.31657 9.75696 10.9826
260 1 -1.1104 3.64805 5.35211 12.2717
261 1 -1.1104 3.723 11.0432 12.469
262 1 -1.1104 3.66931 5.43548 9.45783
263 1 -1.1104 3.51892 10.9833 9.41502
253 1 -1.1104 6.54251 5.50284 9.35288
245 1 -1.1104 6.38145 8.32105 9.55192
248 1 -1.1104 6.54954 5.52475 12.1801
249 1 -1.1104 6.41125 11.2016 12.3548
243 1 -1.1104 6.44227 8.40144 12.3264
254 1 -1.1104 6.40395 10.9795 9.45914
339 2 2.2208 13.6066 6.8565 8.08487
269 1 -1.1104 9.24218 5.43714 6.64281
265 1 -1.1104 12.0954 8.3139 6.59391
340 2 2.2208 13.4925 12.5485 7.95474
101 1 -1.1104 9.25867 10.9886 6.42554
283 1 -1.1104 12.1011 5.48925 9.29028
282 2 2.2208 10.6961 9.69969 7.8938
280 1 -1.1104 12.1111 5.47789 12.1085
285 1 -1.1104 9.25212 8.17283 12.2322
284 1 -1.1104 11.9209 11.2067 9.38149
281 1 -1.1104 12.1204 11.0678 12.2311
264 1 -1.1104 9.3085 11.1026 9.25149
268 1 -1.1104 9.29421 5.40405 9.40682
270 1 -1.1104 9.38621 11.0615 12.1036
271 1 -1.1104 9.31935 5.46336 12.2219
272 2 2.2208 7.79048 9.76502 10.7806
273 1 -1.1104 9.22842 8.22476 9.50679
274 2 2.2208 7.92763 12.4678 7.99114
275 2 2.2208 7.95188 6.88794 8.08569
276 2 2.2208 10.7079 6.84578 10.8462
277 2 2.2208 10.6273 12.4412 10.7208
278 1 -1.1104 11.9313 8.31819 12.0693
279 1 -1.1104 12.1355 8.27571 9.36572
341 2 2.2208 13.2916 9.7196 10.7265
371 2 2.2208 5.02546 15.2555 13.6194
330 1 -1.1104 12.0286 13.8366 12.1586
320 2 2.2208 7.86813 17.9256 7.87859
332 2 2.2208 13.4863 18.0475 7.96617
117 1 -1.1104 0.868158 16.6309 6.60955
302 1 -1.1104 0.714404 19.5467 6.61177
111 1 -1.1104 6.53918 13.8121 6.50648
118 1 -1.1104 6.45873 16.5516 6.48088
126 1 -1.1104 3.66587 19.2412 6.65331
297 1 -1.1104 6.43725 13.9782 12.2413
296 1 -1.1104 6.4828 19.4531 12.1686
289 1 -1.1104 6.54324 16.6138 9.22349
288 1 -1.1104 6.42937 19.2564 9.58512
290 1 -1.1104 6.41855 13.8358 9.38331
306 1 -1.1104 6.60261 16.667 12.0972
310 2 2.2208 2.23627 15.1655 10.8375
309 2 2.2208 2.25534 20.6737 10.9368
308 1 -1.1104 3.66581 16.5683 12.1032
307 1 -1.1104 0.880445 16.6871 12.2028
286 1 -1.1104 3.57026 19.443 12.2814
305 1 -1.1104 3.68085 13.7378 9.33669
304 1 -1.1104 3.65522 16.419 9.42719
303 2 2.2208 2.21568 17.8354 8.09535
301 1 -1.1104 3.63854 19.3497 9.36967
300 2 2.2208 5.04049 17.947 10.9448
299 1 -1.1104 0.88135 14.0038 12.2923
298 1 -1.1104 0.814164 19.4347 12.3305
295 2 2.2208 5.0924 15.3176 8.01466
294 1 -1.1104 0.798717 13.8797 9.39116
293 2 2.2208 4.97868 20.6208 8.13446
292 1 -1.1104 0.950529 16.5452 9.43501
291 1 -1.1104 0.832677 19.2978 9.39176
287 1 -1.1104 3.72311 13.8532 12.3006
231 2 2.2208 7.79016 -4.30165 8.1166
369 2 2.2208 5.12017 20.9086 13.5402
325 2 2.2208 10.7249 15.2518 8.00102
321 1 -1.1104 9.28485 19.4824 12.2171
315 1 -1.1104 9.30518 16.6982 12.1994
317 2 2.2208 7.87306 15.2737 10.8884
327 1 -1.1104 12.0453 19.4001 9.32795
319 1 -1.1104 9.26849 13.8471 9.37387
316 2 2.2208 7.94472 20.8154 10.7224
324 2 2.2208 10.6426 20.7061 7.95582
333 2 2.2208 13.5225 15.2125 10.7722
318 1 -1.1104 9.2705 19.3269 9.26606
381 2 2.2208 5.12586 1.31599 -0.290368
388 2 2.2208 7.71267 -1.53324 -0.365807
391 2 2.2208 13.4059 -1.50266 -0.313256
352 2 2.2208 5.03972 3.94544 13.6478
389 2 2.2208 7.92883 4.12898 -0.271623
379 2 2.2208 7.95924 20.7635 -0.335174
347 2 2.2208 2.15227 -4.16713 13.5914
387 2 2.2208 10.5562 1.19869 -0.304808
366 2 2.2208 13.3798 6.85565 13.5198
359 2 2.2208 2.18089 6.77233 13.5937
349 2 2.2208 2.15427 1.22595 13.6129
365 2 2.2208 7.78752 12.4238 13.6236
353 2 2.2208 7.8238 -4.30861 13.5665
393 2 2.2208 5.14002 6.91135 -0.344163
392 2 2.2208 13.6292 4.07162 -0.226228
380 2 2.2208 13.5741 18.054 13.5034
364 2 2.2208 10.7184 9.71593 13.5752
348 2 2.2208 4.95116 -1.43248 13.664
406 2 2.2208 4.96644 1.31546 16.4395
407 1 -1.1104 0.779534 -2.93908 17.8355
408 1 -1.1104 0.783944 2.75904 17.7998
411 1 -1.1104 0.786931 -2.85203 15.0783
413 1 -1.1104 0.904436 2.50757 14.9961
419 1 -1.1104 0.859334 -0.0253298 17.8207
421 2 2.2208 4.88525 -1.45057 19.2924
422 2 2.2208 4.95385 4.07811 19.2847
423 1 -1.1104 0.584359 -0.211415 15.0147
427 1 -1.1104 3.6546 -2.94549 17.8779
428 1 -1.1104 3.58885 2.67613 17.8865
429 2 2.2208 2.16331 1.26034 19.293
430 1 -1.1104 3.59255 -2.82527 15.1054
432 1 -1.1104 3.58844 2.82347 15.0361
434 2 2.2208 2.28176 -1.49245 16.4743
436 1 -1.1104 3.64675 -0.115446 17.7519
437 1 -1.1104 3.41621 -0.0485259 14.9649
435 2 2.2208 2.19036 4.05083 16.5024
409 1 -1.1104 6.23649 -2.9432 17.9543
425 1 -1.1104 6.30925 -0.137094 15.0171
410 1 -1.1104 6.27044 2.68931 17.9301
417 1 -1.1104 6.47942 2.68304 15.0457
415 1 -1.1104 6.40758 -2.82713 15.1693
420 1 -1.1104 6.4799 -0.089571 17.8584
418 1 -1.1104 6.2596 2.78512 20.7522
356 2 2.2208 10.5268 -1.43712 13.7411
438 1 -1.1104 3.54355 0.0605734 20.6085
424 1 -1.1104 0.779857 -0.0371323 20.6763
412 1 -1.1104 0.776909 -2.85764 20.4441
416 1 -1.1104 6.17199 -2.88596 20.8739
640 2 2.2208 2.22307 -4.28474 24.8751
475 2 2.2208 7.78267 -4.21989 19.134
402 2 2.2208 13.4513 9.80076 27.6513
477 2 2.2208 13.272 -1.44204 16.4975
382 2 2.2208 2.24792 -1.50125 27.7237
449 2 2.2208 10.5627 1.4219 16.4465
450 1 -1.1104 12.039 -2.93204 17.8548
451 1 -1.1104 11.9644 2.81683 17.9565
452 1 -1.1104 11.9776 -2.81134 14.9586
454 1 -1.1104 11.9806 2.67284 15.1014
456 1 -1.1104 11.9654 -0.10703 17.8461
457 2 2.2208 10.5615 -1.47069 19.3066
458 2 2.2208 10.6061 4.06641 19.3939
459 1 -1.1104 12.0817 -0.104327 15.0391
461 1 -1.1104 9.21107 -2.78817 17.848
462 1 -1.1104 9.05664 2.70324 17.9112
463 2 2.2208 7.79761 1.11094 19.4335
464 1 -1.1104 9.26823 -2.77556 15.1757
466 1 -1.1104 9.29144 2.71499 15.1046
468 2 2.2208 7.75356 -1.49969 16.5777
469 2 2.2208 7.79076 4.0395 16.5394
470 1 -1.1104 9.16876 -0.0039337 17.9364
471 1 -1.1104 9.14969 -0.106616 15.1279
578 2 2.2208 13.3562 1.28146 19.3791
579 2 2.2208 13.27 4.0583 16.5351
666 2 2.2208 13.2347 -4.2278 24.8995
370 2 2.2208 13.4252 1.16692 13.7164
467 1 -1.1104 9.12265 2.67866 20.7488
455 1 -1.1104 12.0295 2.66531 20.7808
472 1 -1.1104 9.26156 -0.215831 20.7516
639 2 2.2208 4.99125 -4.29319 22.082
605 2 2.2208 13.6106 18.0902 24.8978
636 1 -1.1104 12.109 16.8281 23.4956
482 2 2.2208 4.97468 6.69027 16.4856
483 2 2.2208 5.19185 12.5037 16.577
484 1 -1.1104 0.8959 8.23094 17.7185
486 1 -1.1104 0.741303 8.12838 14.949
490 1 -1.1104 0.745403 5.38557 17.8918
491 1 -1.1104 0.920451 11.138 17.7048
494 2 2.2208 5.01741 9.64181 19.2878
495 1 -1.1104 0.782346 5.49962 15.0039
497 1 -1.1104 0.835459 11.0034 15.0246
503 1 -1.1104 3.46744 8.26936 17.7065
504 2 2.2208 2.1025 6.85424 19.1499
505 2 2.2208 2.23821 12.4846 19.2909
506 1 -1.1104 3.74154 8.24418 14.9544
508 2 2.2208 2.28425 9.66459 16.4438
509 1 -1.1104 3.48436 5.57382 17.8225
510 1 -1.1104 3.70865 11.1898 17.9538
511 1 -1.1104 3.56495 5.47294 15.1061
513 1 -1.1104 3.66277 11.0494 15.0722
501 1 -1.1104 6.60378 11.0259 15.242
488 1 -1.1104 6.5612 8.23572 15.1905
499 1 -1.1104 6.30339 5.37109 14.9612
492 1 -1.1104 6.52438 5.3658 18.0146
493 1 -1.1104 6.55498 11.0404 18.0213
485 1 -1.1104 6.50362 8.00887 17.8761
500 1 -1.1104 6.40414 5.57554 20.8766
496 1 -1.1104 0.721646 5.51876 20.7617
502 1 -1.1104 6.40073 11.0807 20.6576
487 1 -1.1104 0.806906 8.25063 20.6842
507 1 -1.1104 3.61905 8.24949 20.7679
512 1 -1.1104 3.61595 5.52796 20.6534
638 2 2.2208 10.626 15.4588 24.8858
665 1 -1.1104 9.39796 19.6043 23.2457
542 2 2.2208 13.3885 6.76999 19.2436
518 2 2.2208 10.6028 6.90093 16.5128
519 2 2.2208 10.6606 12.2754 16.3873
520 1 -1.1104 12.0435 8.30924 17.9138
521 1 -1.1104 12.1289 8.25077 15.0791
523 1 -1.1104 11.9294 5.52689 17.9529
524 1 -1.1104 12.0528 11.0991 17.8164
525 2 2.2208 10.6414 9.58474 19.3498
526 1 -1.1104 11.7847 5.49658 15.0146
528 1 -1.1104 12.0143 11.1475 14.9615
530 1 -1.1104 9.30074 8.08591 18.0316
531 2 2.2208 7.85884 6.96688 19.3233
532 2 2.2208 7.87673 12.4908 19.3003
533 1 -1.1104 9.31727 8.2723 15.0688
535 2 2.2208 7.93329 9.59245 16.5594
536 1 -1.1104 9.31108 5.47035 17.842
537 1 -1.1104 9.38592 10.9788 17.8043
538 1 -1.1104 9.07352 5.36857 15.1532
540 1 -1.1104 9.10004 10.9411 14.9894
517 2 2.2208 13.4955 12.4594 19.1972
527 1 -1.1104 12.0206 5.32587 20.7439
522 1 -1.1104 12.0361 8.26183 20.8188
541 1 -1.1104 9.10806 11.0999 20.674
543 2 2.2208 13.3903 9.69906 16.3722
539 1 -1.1104 9.15023 5.47372 20.7907
529 1 -1.1104 12.0431 11.19 20.6503
701 1 -1.1104 9.09007 16.849 23.2972
545 2 2.2208 5.044 18.0366 16.3513
546 1 -1.1104 0.8995 13.7717 17.9064
547 1 -1.1104 0.794143 19.4331 17.734
550 1 -1.1104 0.915499 13.7925 15.0443
552 1 -1.1104 0.884825 19.531 14.9981
558 1 -1.1104 0.821516 16.5547 17.933
560 2 2.2208 5.06177 15.2907 19.1853
561 2 2.2208 5.12718 20.9472 19.2321
562 1 -1.1104 0.759423 16.5714 15.0326
566 1 -1.1104 3.62341 13.9164 17.8636
567 1 -1.1104 3.63892 19.5333 17.9375
568 2 2.2208 2.18344 18.0832 19.2288
569 1 -1.1104 3.73423 13.932 15.0681
571 1 -1.1104 3.72197 19.5631 15.1394
573 2 2.2208 2.24448 15.1837 16.5237
574 2 2.2208 2.2659 20.9216 16.3428
575 1 -1.1104 3.62713 16.6242 17.8177
576 1 -1.1104 3.58626 16.6905 14.9254
556 1 -1.1104 6.52533 19.4544 14.9408
564 1 -1.1104 6.43529 16.7032 15.036
549 1 -1.1104 6.51494 19.4701 17.8836
548 1 -1.1104 6.52384 13.8822 17.8037
554 1 -1.1104 6.49635 13.8499 15.1533
559 1 -1.1104 6.28003 16.755 17.865
565 1 -1.1104 6.48468 16.6117 20.5401
570 1 -1.1104 3.56356 13.818 20.7839
557 1 -1.1104 6.41552 19.5834 20.7064
577 1 -1.1104 3.71029 16.7439 20.4483
572 1 -1.1104 3.66401 19.7176 20.7831
563 1 -1.1104 0.795784 16.7013 20.6806
555 1 -1.1104 6.3612 13.8919 20.5485
473 2 2.2208 13.3788 -4.2938 19.2361
698 1 -1.1104 9.37115 19.4781 26.1681
587 1 -1.1104 12.0724 19.5741 20.5385
478 2 2.2208 13.5579 20.8073 16.4131
581 2 2.2208 10.7191 18.0839 16.3066
582 1 -1.1104 12.172 13.8118 18.0333
583 1 -1.1104 12.1386 19.419 17.6162
584 1 -1.1104 12.0199 13.917 15.049
586 1 -1.1104 12.1449 19.5401 14.9867
588 1 -1.1104 12.143 16.7094 17.7542
589 2 2.2208 10.8222 15.2933 19.2044
590 2 2.2208 10.7497 20.9163 19.1579
591 1 -1.1104 12.001 16.7005 14.9839
593 1 -1.1104 9.29218 13.7032 17.7771
594 1 -1.1104 9.29259 19.4843 17.5802
595 2 2.2208 7.84704 18.1791 19.1432
596 1 -1.1104 9.26412 13.7017 15.0522
598 1 -1.1104 9.41732 19.5128 14.8757
600 2 2.2208 7.89571 15.1988 16.4593
601 2 2.2208 7.83811 20.8302 16.3995
602 1 -1.1104 9.2409 16.6484 17.8632
603 1 -1.1104 9.32076 16.5706 15.0139
479 2 2.2208 13.4685 18.0278 19.2557
604 1 -1.1104 9.28203 16.7381 20.6031
597 1 -1.1104 9.26836 13.8442 20.6404
480 2 2.2208 13.4882 15.334 16.4096
592 1 -1.1104 12.1114 16.6785 20.6447
585 1 -1.1104 12.1055 13.9088 20.7428
599 1 -1.1104 9.2095 19.5271 20.3412
433 1 -1.1104 3.59907 2.81182 20.5902
431 1 -1.1104 3.44228 -2.90009 20.7183
414 1 -1.1104 0.827518 2.61245 20.6504
609 2 2.2208 4.94901 1.34654 22.1059
610 1 -1.1104 0.887976 -3.00747 23.4663
611 1 -1.1104 0.901196 2.62933 23.5882
614 1 -1.1104 0.828506 -3.00799 26.2662
615 1 -1.1104 0.765633 2.66807 26.4683
618 1 -1.1104 0.937798 -0.265168 23.639
620 2 2.2208 4.94879 -1.38649 24.8643
621 2 2.2208 5.17046 4.19479 24.8241
622 1 -1.1104 0.774805 -0.202664 26.3635
624 1 -1.1104 3.72556 -2.92432 23.5633
625 1 -1.1104 3.67849 2.71227 23.4936
626 2 2.2208 2.28533 1.30917 24.8941
627 1 -1.1104 3.70383 -2.89983 26.2006
628 1 -1.1104 3.59638 2.68871 26.2784
629 2 2.2208 2.1735 -1.45411 22.0569
630 2 2.2208 2.26221 4.06767 22.1162
631 1 -1.1104 3.68869 -0.0338417 23.4058
632 1 -1.1104 3.57803 -0.107794 26.3748
612 1 -1.1104 6.54266 -2.89946 23.6152
613 1 -1.1104 6.52063 2.67317 23.5799
616 1 -1.1104 6.17245 -2.89904 26.3484
623 1 -1.1104 6.34639 0.106223 26.2646
617 1 -1.1104 6.54282 2.89384 26.2732
426 1 -1.1104 6.4097 -0.147971 20.5703
619 1 -1.1104 6.34243 -0.164825 23.3567
668 2 2.2208 10.6198 -4.2052 22.0137
403 2 2.2208 2.15611 15.1614 27.6698
664 1 -1.1104 9.1906 13.9917 23.3739
635 1 -1.1104 12.2528 19.5801 26.1314
446 2 2.2208 13.3733 4.0704 22.1022
460 1 -1.1104 11.8233 -0.0690006 20.794
355 2 2.2208 7.81748 1.319 13.7668
453 1 -1.1104 12.0272 -2.72731 20.7079
465 1 -1.1104 9.10619 -3.02743 20.6278
645 2 2.2208 10.6266 1.32646 22.2251
646 1 -1.1104 11.9873 -2.90722 23.4888
647 1 -1.1104 12.0801 2.69348 23.5305
648 1 -1.1104 11.8851 -3.00049 26.4433
649 1 -1.1104 12.123 2.77426 26.3404
650 1 -1.1104 11.9694 -0.100276 23.6041
651 2 2.2208 10.5594 -1.54782 25.0251
653 1 -1.1104 11.9312 -0.0499449 26.178
654 1 -1.1104 9.3568 -2.87734 23.4875
655 1 -1.1104 9.32283 2.65271 23.5347
656 2 2.2208 7.9363 1.28926 24.9489
657 1 -1.1104 9.09027 -2.91329 26.3631
658 1 -1.1104 9.32333 2.73388 26.3325
659 2 2.2208 7.86491 -1.66284 22.0945
660 2 2.2208 7.76053 4.12538 22.1829
661 1 -1.1104 9.23715 -0.160496 23.4877
662 1 -1.1104 9.2669 -0.171882 26.3866
652 2 2.2208 10.7711 4.17465 24.978
671 2 2.2208 13.425 -1.34392 22.101
672 2 2.2208 13.434 1.35178 24.902
704 1 -1.1104 9.30554 16.6952 26.2903
363 2 2.2208 7.87993 6.95892 13.7002
700 2 2.2208 7.95543 21.0466 22.0187
580 2 2.2208 13.4738 15.3997 21.9679
699 2 2.2208 7.8304 15.3587 21.9792
667 2 2.2208 7.78905 18.1774 24.7664
489 1 -1.1104 6.35126 8.26421 20.7275
514 1 -1.1104 3.61149 11.0924 20.7013
498 1 -1.1104 0.757278 11.0866 20.5309
674 2 2.2208 4.96652 6.98744 22.1658
675 2 2.2208 5.0517 12.4813 21.9971
676 1 -1.1104 0.764226 8.24149 23.5745
678 1 -1.1104 1.02955 8.2156 26.3236
680 1 -1.1104 0.904421 5.37416 23.5193
681 1 -1.1104 0.784218 10.8827 23.4002
684 2 2.2208 5.04673 9.73406 24.8866
685 1 -1.1104 0.936917 5.27316 26.3579
686 1 -1.1104 0.798272 11.0829 26.1412
689 1 -1.1104 3.62658 8.34028 23.3805
690 2 2.2208 2.26138 6.93328 24.8657
691 2 2.2208 2.26593 12.5 24.845
692 1 -1.1104 3.7936 8.16343 26.2229
693 2 2.2208 2.23277 9.51501 22.0668
694 1 -1.1104 3.51528 5.50406 23.5746
695 1 -1.1104 3.74221 11.1638 23.4056
696 1 -1.1104 3.7641 5.38657 26.4944
697 1 -1.1104 3.62966 11.0028 26.188
683 1 -1.1104 6.5743 11.0951 23.3773
687 1 -1.1104 6.57439 5.54521 26.4301
688 1 -1.1104 6.53235 11.1762 26.3098
682 1 -1.1104 6.51039 5.56185 23.6187
677 1 -1.1104 6.51454 8.12419 23.4532
679 1 -1.1104 6.37724 8.38297 26.2514
607 2 2.2208 10.7182 18.2555 21.9257
726 2 2.2208 13.4849 12.5397 24.7965
728 2 2.2208 13.3916 7.02616 24.9672
534 1 -1.1104 9.15997 8.30138 20.6828
445 2 2.2208 13.4232 9.73071 22.0366
705 1 -1.1104 9.23917 11.1372 26.2074
706 1 -1.1104 9.27736 5.49392 26.3084
707 1 -1.1104 9.24668 10.9767 23.3693
708 1 -1.1104 9.19655 5.4415 23.5576
709 2 2.2208 7.80089 9.68027 22.0426
710 1 -1.1104 9.36222 8.2856 26.4114
711 2 2.2208 7.95109 12.4592 24.5968
712 2 2.2208 7.86169 6.79649 24.9741
713 2 2.2208 10.6458 6.86812 22.2638
714 2 2.2208 10.5955 12.5104 22.0469
715 1 -1.1104 11.9541 8.4563 23.5889
716 1 -1.1104 12.0397 8.25356 26.3122
717 1 -1.1104 12.0358 5.412 23.6041
718 1 -1.1104 11.957 11.1614 23.4535
719 2 2.2208 10.6336 9.77443 24.9133
720 1 -1.1104 12.1263 5.4713 26.4584
721 1 -1.1104 11.9973 11.1227 26.2007
722 1 -1.1104 9.24039 8.31078 23.608
634 1 -1.1104 12.2334 13.9074 26.2477
405 2 2.2208 2.1728 20.9411 27.5783
608 1 -1.1104 12.0245 14.0435 23.3889
551 1 -1.1104 0.852032 13.8466 20.8388
739 1 -1.1104 6.37372 13.883 23.2934
553 1 -1.1104 0.910439 19.5049 20.7467
747 1 -1.1104 6.33112 16.7258 23.4662
670 1 -1.1104 6.45228 19.449 26.3596
727 2 2.2208 2.23244 15.2467 22.0685
729 1 -1.1104 3.76359 19.4525 23.4329
731 1 -1.1104 3.53997 13.8191 23.4554
733 1 -1.1104 0.936405 19.5302 26.3151
734 1 -1.1104 0.853302 16.6884 26.0906
735 1 -1.1104 0.752181 13.8467 26.2166
737 2 2.2208 5.05164 20.924 24.836
738 2 2.2208 5.06405 15.28 24.8151
740 1 -1.1104 0.845361 19.6093 23.5021
741 1 -1.1104 0.814591 13.7634 23.5589
742 2 2.2208 5.01352 18.0937 21.9676
743 1 -1.1104 3.7153 19.5035 26.2673
744 2 2.2208 2.24107 18.1288 24.7126
745 1 -1.1104 3.74082 16.7233 26.3227
746 1 -1.1104 3.66934 13.8964 26.3172
748 1 -1.1104 0.83678 16.6571 23.3788
749 1 -1.1104 3.59548 16.6765 23.3353
750 2 2.2208 2.29043 21.0685 21.9571
732 1 -1.1104 6.5026 16.6082 26.166
730 1 -1.1104 6.63955 13.9173 26.0252
736 1 -1.1104 6.55163 19.6005 23.5899
641 2 2.2208 10.7022 20.8734 24.7654
663 1 -1.1104 12.105 16.724 26.1158
606 2 2.2208 13.4838 20.8078 21.9938
633 1 -1.1104 12.1052 19.44 23.246
673 1 -1.1104 9.46839 14.0274 26.1045
394 2 2.2208 2.36193 9.75001 27.6504
399 2 2.2208 7.89194 9.63476 27.6574
377 2 2.2208 8.00489 15.2547 27.6227
395 2 2.2208 5.16251 12.5859 27.5244
398 2 2.2208 10.7153 6.82709 27.6959
357 2 2.2208 10.5181 4.11462 13.6949
400 2 2.2208 10.7348 12.6293 27.6735
374 2 2.2208 13.5344 15.2785 27.722
375 2 2.2208 13.423 20.9171 27.6808
440 2 2.2208 4.97492 -4.22783 16.4155
404 2 2.2208 5.1122 17.9581 27.6522
474 2 2.2208 10.581 -4.29345 16.449
373 2 2.2208 10.72 15.2281 13.6925
354 2 2.2208 13.2641 -4.11853 13.7908
385 2 2.2208 4.91835 -4.24134 27.6776
378 2 2.2208 10.7657 18.1607 27.5861
368 2 2.2208 2.12625 18.0076 13.7103
360 2 2.2208 5.16831 9.74838 13.7967
751 2 2.2208 5.12865 23.6359 5.14231
752 2 2.2208 5.06841 29.1259 5.19377
753 1 -1.1104 0.910893 25.0674 0.890529
754 1 -1.1104 0.936783 24.9942 3.66306
755 1 -1.1104 0.947719 22.2211 0.966722
756 1 -1.1104 1.02169 27.8395 0.991009
757 2 2.2208 5.22713 26.4529 2.2559
758 1 -1.1104 0.787894 22.0345 3.85525
759 1 -1.1104 0.941332 27.7609 3.89633
760 1 -1.1104 3.82663 25.0119 0.99255
761 2 2.2208 2.34947 23.5737 2.35956
762 2 2.2208 2.26878 29.2718 2.39773
763 1 -1.1104 3.87242 24.8934 3.64944
764 2 2.2208 2.40513 26.3494 5.23017
765 1 -1.1104 3.69226 22.2516 0.877845
766 1 -1.1104 3.78099 27.9038 1.04426
767 1 -1.1104 3.41422 22.2736 3.87428
768 1 -1.1104 3.63589 27.7565 3.79151
776 1 -1.1104 6.4089 22.1349 3.79175
772 1 -1.1104 6.60116 25.0881 0.954557
775 1 -1.1104 6.60602 28.0227 0.848147
777 1 -1.1104 6.46129 27.8213 3.75017
774 1 -1.1104 6.54018 22.2389 1.16314
899 1 -1.1104 3.61683 22.0322 6.70798
773 1 -1.1104 6.57876 25.0833 3.71742
893 1 -1.1104 6.62948 24.8666 6.53092
895 1 -1.1104 1.02039 27.9056 6.57261
892 1 -1.1104 0.96929 24.9669 6.61194
900 1 -1.1104 3.92072 27.755 6.53513
897 1 -1.1104 6.63549 27.7116 6.52264
896 1 -1.1104 6.38448 22.0752 6.6911
778 2 2.2208 10.7964 23.5202 5.20574
779 2 2.2208 10.8288 29.2139 5.17565
780 1 -1.1104 12.0726 24.9646 0.949805
781 1 -1.1104 12.1178 24.9889 3.69692
782 1 -1.1104 12.034 22.2209 1.0498
783 1 -1.1104 12.244 27.8624 0.980252
784 2 2.2208 10.8092 26.5364 2.34214
785 1 -1.1104 12.0921 22.1646 3.86496
786 1 -1.1104 12.2415 27.8596 3.72982
787 1 -1.1104 9.38809 25.0887 1.03747
788 2 2.2208 7.87842 23.5377 2.39997
789 2 2.2208 7.83688 29.1856 2.33336
790 1 -1.1104 9.33779 24.8416 3.91782
791 2 2.2208 8.08977 26.3345 5.19415
792 1 -1.1104 9.31842 22.1696 1.01648
793 1 -1.1104 9.43146 27.9104 0.899029
794 1 -1.1104 9.2233 22.1565 3.80238
795 1 -1.1104 9.33239 27.796 3.76925
1101 2 2.2208 -0.304182 43.2913 13.6383
798 2 2.2208 13.5342 26.5361 5.22956
929 1 -1.1104 9.35195 21.9595 6.49478
927 1 -1.1104 12.2226 27.8068 6.62348
930 1 -1.1104 9.43215 27.7382 6.58713
926 1 -1.1104 12.1697 22.1647 6.66876
928 1 -1.1104 9.34711 24.9258 6.61298
796 2 2.2208 13.5147 23.7965 2.40454
799 2 2.2208 5.19133 34.9145 5.16378
800 1 -1.1104 1.03617 30.6864 1.00452
801 1 -1.1104 0.973847 36.2773 1.09595
803 1 -1.1104 1.0176 30.7202 3.91329
804 1 -1.1104 1.02937 36.2656 3.83188
806 1 -1.1104 0.919317 33.534 0.964306
807 2 2.2208 5.15925 31.9919 2.43867
808 2 2.2208 5.16342 37.6447 2.26928
809 1 -1.1104 1.07045 33.4731 3.82015
811 1 -1.1104 3.71231 30.5728 1.07888
812 1 -1.1104 3.8032 36.1905 0.821119
813 2 2.2208 2.44941 34.9269 2.40717
814 1 -1.1104 3.65164 30.5931 3.85144
815 1 -1.1104 3.72182 36.3818 3.76344
816 2 2.2208 2.34366 32.0348 5.32693
817 2 2.2208 2.52558 37.745 5.17758
818 1 -1.1104 3.72126 33.4585 1.01311
819 1 -1.1104 3.81627 33.3894 3.82988
824 1 -1.1104 6.5641 30.5754 3.8254
810 1 -1.1104 6.54933 33.3811 3.78041
805 1 -1.1104 6.60445 36.1418 3.61206
823 1 -1.1104 6.60333 30.8539 1.01987
825 1 -1.1104 6.47028 33.4328 1.00531
952 1 -1.1104 6.63376 36.0683 6.63038
950 1 -1.1104 1.13465 36.2466 6.50078
949 1 -1.1104 1.00385 30.5323 6.92231
954 1 -1.1104 6.64489 33.3814 6.63192
957 1 -1.1104 3.77555 33.3362 6.62718
802 1 -1.1104 6.60012 36.2142 0.937613
891 2 2.2208 13.5569 40.4734 2.41748
826 2 2.2208 10.7867 34.9244 5.16588
827 1 -1.1104 12.2343 30.7338 1.00665
828 1 -1.1104 12.2156 36.3164 0.93805
829 1 -1.1104 12.2271 30.6352 3.89817
830 1 -1.1104 12.16 36.2057 3.7369
831 1 -1.1104 12.0292 33.5055 0.974264
832 2 2.2208 10.8227 31.9968 2.41419
833 2 2.2208 10.8148 37.6246 2.30327
834 1 -1.1104 12.1278 33.3892 3.71689