ITEM: TIMESTEP
60000
ITEM: NUMBER OF ATOMS
17640
ITEM: BOX BOUNDS pp pp pp
-3.5218042628987617e-01 2.7692180426289859e+01
-4.2862986428125094e+00 3.3236629864280911e+02
-3.5543287901055676e-01 2.7695432879010855e+01
ITEM: ATOMS id type q x y z
1 2 2.2208 5.1073 1.2826 5.22722
2 1 -1.1104 0.948923 -2.79882 1.0903
3 1 -1.1104 1.02257 2.68763 1.00727
6 1 -1.1104 0.963619 -2.88742 3.81497
7 1 -1.1104 0.978014 2.75022 3.85912
10 1 -1.1104 0.965243 0.0840506 1.20019
12 2 2.2208 5.17558 -1.45089 2.53293
13 2 2.2208 5.07666 4.12641 2.52553
14 1 -1.1104 1.07353 0.043681 3.90908
16 1 -1.1104 3.71846 -2.87888 1.06201
17 1 -1.1104 3.89212 2.66343 1.10714
18 2 2.2208 2.30993 1.3993 2.42651
19 1 -1.1104 3.58259 -2.85511 3.83541
20 1 -1.1104 3.81347 2.69947 3.92287
21 2 2.2208 2.32978 -1.53173 5.28551
22 2 2.2208 2.42197 4.18733 5.41857
23 1 -1.1104 3.80617 -0.0863148 1.23333
24 1 -1.1104 3.75258 -0.204697 3.95771
202 2 2.2208 2.39013 -4.25487 8.20395
311 2 2.2208 -0.247954 20.9624 8.03397
166 1 -1.1104 0.988974 -2.93976 6.65444
9 1 -1.1104 6.5191 2.7611 3.8008
357 2 2.2208 10.968 4.07935 13.6415
51 2 2.2208 7.96446 -4.14902 2.51907
29 2 2.2208 5.24359 -4.21414 5.44069
232 2 2.2208 10.8395 -4.30212 11.0019
233 2 2.2208 13.6077 -4.26931 7.97719
350 2 2.2208 -0.221384 20.9852 13.6361
52 2 2.2208 10.8035 -4.24372 5.25414
15 1 -1.1104 6.55721 0.0119907 4.02703
11 1 -1.1104 6.66838 -0.0748581 1.23104
4 1 -1.1104 6.66938 -2.89197 1.21899
5 1 -1.1104 6.49081 2.84776 1.01625
8 1 -1.1104 6.52963 -2.82245 3.84567
31 2 2.2208 10.8021 1.35455 5.19092
32 1 -1.1104 12.0607 -2.85498 0.871653
33 1 -1.1104 12.017 2.83399 1.04969
34 1 -1.1104 12.0981 -2.94024 3.76525
35 1 -1.1104 12.321 2.6846 3.82708
36 1 -1.1104 12.3017 0.0051041 1.01966
37 2 2.2208 10.6646 -1.37211 2.42843
38 2 2.2208 10.8844 4.25524 2.42126
39 1 -1.1104 12.1709 -0.170582 3.7321
40 1 -1.1104 9.30153 -2.73412 1.07242
41 1 -1.1104 9.26514 2.77383 0.986076
42 2 2.2208 7.87997 1.4777 2.52658
43 1 -1.1104 9.39985 -2.79054 3.92446
44 1 -1.1104 9.42564 2.80002 3.78082
45 2 2.2208 8.08981 -1.37851 5.35803
46 2 2.2208 8.05732 4.06066 5.12637
47 1 -1.1104 9.3815 0.041008 1.0351
48 1 -1.1104 9.35713 0.0654723 3.8525
53 2 2.2208 13.4729 -4.20662 2.51995
209 1 -1.1104 9.43881 2.73102 6.57421
169 1 -1.1104 6.59215 2.72051 6.79323
210 1 -1.1104 9.40056 -0.00659451 6.63566
206 1 -1.1104 12.301 2.68532 6.68548
381 2 2.2208 5.26648 1.30006 -0.266236
323 1 -1.1104 12.2004 16.7193 9.40375
333 2 2.2208 13.6583 15.3265 10.8769
54 2 2.2208 5.1185 6.95045 5.32742
55 2 2.2208 5.35483 12.5368 5.33392
56 1 -1.1104 0.998623 8.25642 1.10577
58 1 -1.1104 1.02275 8.33112 3.79725
60 1 -1.1104 0.963024 5.4105 1.0228
61 1 -1.1104 1.24357 11.0696 1.16247
66 2 2.2208 5.24347 9.76637 2.55445
67 1 -1.1104 0.994273 5.56133 3.92881
68 1 -1.1104 1.00211 11.1472 3.90651
71 1 -1.1104 3.8392 8.40391 1.12277
72 2 2.2208 2.45784 6.91953 2.3922
73 2 2.2208 2.41983 12.6526 2.50858
74 1 -1.1104 3.84036 8.37796 4.02814
75 2 2.2208 2.43026 9.79589 5.27059
76 1 -1.1104 3.86498 5.47308 1.01284
77 1 -1.1104 4.13647 11.0698 0.968
79 1 -1.1104 3.71631 5.60741 3.9603
80 1 -1.1104 3.86343 11.3809 3.79781
50 2 2.2208 13.5165 -1.47483 5.13161
329 1 -1.1104 12.3794 19.4832 12.228
342 2 2.2208 -0.334889 12.6438 11.01
69 1 -1.1104 6.59442 5.36358 3.79542
64 1 -1.1104 6.81172 11.0994 0.951792
238 1 -1.1104 3.82882 8.34972 6.71548
239 1 -1.1104 3.7632 5.55565 6.78657
201 2 2.2208 -0.365568 1.3508 10.8282
320 2 2.2208 8.08499 18.1877 8.01876
63 1 -1.1104 6.7261 5.65338 1.07152
59 1 -1.1104 6.46882 8.2788 3.9017
57 1 -1.1104 6.68129 8.38664 1.07691
70 1 -1.1104 6.49088 11.0656 3.89972
84 2 2.2208 10.9467 6.87444 5.31191
85 2 2.2208 10.7808 12.4957 5.22066
86 1 -1.1104 12.1894 8.15441 1.21426
87 1 -1.1104 12.3333 8.2272 3.87919
88 1 -1.1104 12.365 5.55326 1.20414
89 1 -1.1104 12.3542 11.1837 1.06219
91 2 2.2208 10.7926 9.63075 2.48708
92 1 -1.1104 12.2961 5.60606 3.82626
93 1 -1.1104 12.3307 11.0427 3.80691
94 1 -1.1104 9.42933 8.29156 1.08721
95 2 2.2208 8.07497 7.007 2.54905
96 2 2.2208 7.89572 12.4471 2.54426
97 1 -1.1104 9.37983 8.3652 3.81828
98 2 2.2208 7.99926 9.64591 5.23344
99 1 -1.1104 9.46185 5.58865 1.16475
100 1 -1.1104 9.55547 11.1264 1.0808
102 1 -1.1104 9.49029 5.58839 3.88301
103 1 -1.1104 9.25158 11.1982 3.85233
266 1 -1.1104 12.2123 5.46844 6.66347
265 1 -1.1104 12.3142 8.22874 6.62093
269 1 -1.1104 9.2863 5.50818 6.61564
90 1 -1.1104 12.2049 11.1661 6.57364
267 1 -1.1104 9.63851 8.26306 6.64185
237 1 -1.1104 6.56601 5.62031 6.65951
235 1 -1.1104 6.70665 8.31179 6.65705
318 1 -1.1104 9.61878 19.6377 9.46667
315 1 -1.1104 9.40881 16.6028 12.2361
325 2 2.2208 10.7989 15.3343 8.20524
106 2 2.2208 5.21048 18.0964 5.24157
107 1 -1.1104 0.909711 13.8492 1.02877
109 1 -1.1104 0.926821 19.3551 1.00002
113 1 -1.1104 1.09372 14.1703 3.90022
114 1 -1.1104 1.12795 19.5252 3.81792
116 1 -1.1104 1.02794 16.6219 1.04068
119 2 2.2208 5.24553 15.3529 2.49286
120 2 2.2208 5.19987 20.9374 2.35706
121 1 -1.1104 0.978613 16.806 3.85655
123 1 -1.1104 3.77096 14.0224 1.12105
125 1 -1.1104 3.83625 19.6785 0.88976
127 2 2.2208 2.35243 18.1275 2.42981
128 1 -1.1104 3.79711 14.0464 3.89435
129 1 -1.1104 4.0026 19.6846 3.9411
130 2 2.2208 2.45858 15.3935 5.34989
131 2 2.2208 2.54982 20.9579 5.15364
132 1 -1.1104 3.73872 16.9486 1.16964
134 1 -1.1104 3.85365 16.8006 3.88883
139 1 -1.1104 6.73017 19.549 3.81591
140 1 -1.1104 6.60205 16.7882 0.973627
302 1 -1.1104 1.05518 19.5454 6.67727
82 2 2.2208 -0.308303 9.6866 2.47757
290 1 -1.1104 6.64756 13.907 9.53977
149 1 -1.1104 12.1486 16.6701 6.45892
110 1 -1.1104 6.47825 13.8839 1.11258
122 1 -1.1104 6.48566 16.6944 3.93315
138 1 -1.1104 6.63033 19.6501 0.966721
115 1 -1.1104 6.70485 13.8975 4.02732
141 2 2.2208 10.8575 18.2723 5.21782
142 1 -1.1104 12.3234 14.0019 1.10511
144 1 -1.1104 12.2375 19.4081 1.16886
146 1 -1.1104 12.1839 13.8873 3.89222
147 1 -1.1104 12.4925 19.5548 3.82066
148 1 -1.1104 12.399 16.7983 0.945706
150 2 2.2208 10.8611 15.2887 2.45933
151 2 2.2208 10.9827 20.9733 2.38873
152 1 -1.1104 12.1746 16.7527 3.75112
153 1 -1.1104 9.41273 13.9565 1.09422
155 1 -1.1104 9.43069 19.509 0.933218
157 2 2.2208 8.01452 18.1657 2.45838
158 1 -1.1104 9.44463 13.9809 3.81773
159 1 -1.1104 9.58681 19.6681 3.7946
160 2 2.2208 8.03017 15.3967 5.28165
161 2 2.2208 8.03124 21.0023 5.20264
162 1 -1.1104 9.4435 16.6999 1.14749
164 1 -1.1104 9.43518 16.9291 3.95128
118 1 -1.1104 6.64974 16.6916 6.72753
145 1 -1.1104 12.26 19.4127 6.66328
156 1 -1.1104 9.45296 19.5638 6.79517
172 1 -1.1104 3.95624 -2.82672 6.71113
171 1 -1.1104 6.698 -0.0777755 6.82973
340 2 2.2208 13.6299 12.5555 8.06224
170 1 -1.1104 1.03473 -0.111171 6.65627
167 1 -1.1104 0.91441 2.71409 6.65828
173 1 -1.1104 3.69568 2.70707 6.77015
112 1 -1.1104 6.69006 19.4796 6.69076
174 1 -1.1104 3.82625 -0.0745638 6.72593
175 2 2.2208 5.25136 1.33722 10.9156
176 1 -1.1104 1.00174 -2.79815 12.3347
177 1 -1.1104 1.15176 2.74394 12.2456
180 1 -1.1104 1.07362 -2.84823 9.4137
181 1 -1.1104 1.22365 2.67325 9.5631
184 1 -1.1104 1.18819 -0.0526208 12.3445
186 2 2.2208 5.28574 -1.45327 8.16861
187 2 2.2208 5.26749 4.04113 8.08016
188 1 -1.1104 1.05999 -0.103109 9.46462
190 1 -1.1104 3.8143 -2.91619 12.4113
191 1 -1.1104 3.9076 2.77805 12.1207
192 2 2.2208 2.50311 1.20439 8.12577
193 1 -1.1104 3.7878 -3.02222 9.50041
194 1 -1.1104 3.93918 2.69254 9.35883
195 2 2.2208 2.45182 -1.50153 10.9765
196 2 2.2208 2.5085 4.21416 10.9092
197 1 -1.1104 3.82264 -0.0349305 12.431
198 1 -1.1104 3.81183 -0.106354 9.56405
154 1 -1.1104 9.43989 13.9584 6.71573
189 1 -1.1104 6.58533 -0.0371765 9.41246
183 1 -1.1104 6.64437 2.8456 9.53426
179 1 -1.1104 6.6436 2.5977 12.3737
339 2 2.2208 13.6388 6.91418 8.01393
165 2 2.2208 13.635 18.1623 2.39768
330 1 -1.1104 12.1906 14.0301 12.3502
207 1 -1.1104 12.2365 -0.0369629 6.5136
168 1 -1.1104 6.669 -2.99146 6.79598
208 1 -1.1104 9.38405 -2.79139 6.68503
205 1 -1.1104 12.1551 -2.93638 6.64441
185 1 -1.1104 6.79346 -0.134965 12.0943
178 1 -1.1104 6.59158 -2.82234 12.4743
182 1 -1.1104 6.59767 -2.89546 9.51979
211 2 2.2208 11.0099 1.32322 10.8811
212 1 -1.1104 12.2727 -3.05686 12.3264
213 1 -1.1104 12.3058 2.64581 12.2633
214 1 -1.1104 12.2599 -2.83793 9.43348
215 1 -1.1104 12.333 2.71463 9.32675
216 1 -1.1104 12.2939 -0.208046 12.3012
217 2 2.2208 10.7788 -1.44053 8.07216
219 1 -1.1104 12.2428 -0.0962628 9.49518
220 1 -1.1104 9.40807 -2.93692 12.1372
221 1 -1.1104 9.55428 2.71739 12.3352
222 2 2.2208 8.05537 1.30131 8.11564
223 1 -1.1104 9.52208 -2.92174 9.31436
224 1 -1.1104 9.44686 2.78372 9.49848
225 2 2.2208 8.08404 -1.46935 10.9355
226 2 2.2208 8.06254 4.08618 10.7679
227 1 -1.1104 9.65829 -0.0337612 12.1509
228 1 -1.1104 9.48894 -0.132357 9.50568
218 2 2.2208 10.8309 4.0483 8.02743
28 2 2.2208 2.39795 -4.28349 2.48798
389 2 2.2208 8.06272 4.15011 -0.333922
78 1 -1.1104 3.88001 11.0367 6.61363
236 1 -1.1104 0.838815 5.6276 6.71259
306 1 -1.1104 6.72006 16.7023 12.33
400 2 2.2208 10.7869 12.554 -0.35872
393 2 2.2208 5.39579 7.00393 -0.331976
234 1 -1.1104 1.01907 8.3829 6.73126
62 1 -1.1104 0.947317 11.0774 6.67909
240 2 2.2208 5.23767 7.11128 11.0337
241 2 2.2208 5.19226 12.6199 10.8075
242 1 -1.1104 1.12106 8.45091 12.3234
244 1 -1.1104 1.02819 8.41605 9.59431
246 1 -1.1104 1.01707 5.73189 12.253
247 1 -1.1104 1.07837 11.3261 12.2689
250 2 2.2208 5.25388 9.69698 8.14885
251 1 -1.1104 1.08067 5.60028 9.4169
252 1 -1.1104 1.04402 11.1821 9.46738
255 1 -1.1104 3.87816 8.34471 12.4067
256 2 2.2208 2.3965 6.93022 8.12646
257 2 2.2208 2.34865 12.5565 8.13746
258 1 -1.1104 3.7728 8.31527 9.54858
259 2 2.2208 2.48194 9.80133 10.9884
260 1 -1.1104 3.888 5.54837 12.2659
261 1 -1.1104 3.85842 11.1193 12.2538
262 1 -1.1104 3.97744 5.58407 9.57579
263 1 -1.1104 3.79176 11.1378 9.44247
26 2 2.2208 -0.267768 1.36115 5.29682
326 1 -1.1104 12.2391 16.8001 12.2808
65 1 -1.1104 6.64031 10.9856 6.75536
101 1 -1.1104 9.39264 11.1436 6.58938
254 1 -1.1104 6.56136 11.1597 9.35474
245 1 -1.1104 6.66794 8.31201 9.5852
243 1 -1.1104 6.89099 8.2261 12.3137
249 1 -1.1104 6.57596 11.0225 12.2396
253 1 -1.1104 6.79988 5.63014 9.58858
248 1 -1.1104 6.72206 5.53582 12.3219
283 1 -1.1104 12.2711 5.42785 9.43685
282 2 2.2208 10.8348 9.76362 8.03187
280 1 -1.1104 12.2981 5.3164 12.3658
285 1 -1.1104 9.43123 8.27277 12.1748
284 1 -1.1104 12.2774 11.0862 9.3077
281 1 -1.1104 12.3347 11.0591 12.2587
264 1 -1.1104 9.40416 11.1349 9.50855
268 1 -1.1104 9.44662 5.55463 9.46403
270 1 -1.1104 9.40393 11.0458 12.3514
271 1 -1.1104 9.48575 5.53629 12.3636
272 2 2.2208 8.06134 9.73381 10.8618
273 1 -1.1104 9.31309 8.37538 9.33902
274 2 2.2208 8.04033 12.6752 8.12037
275 2 2.2208 7.92751 6.86204 8.05288
276 2 2.2208 10.8175 6.82581 10.8157
277 2 2.2208 10.8316 12.4376 10.8859
278 1 -1.1104 12.3342 8.24172 12.07
279 1 -1.1104 12.0547 8.28435 9.51833
341 2 2.2208 13.5809 9.72459 10.7725
319 1 -1.1104 9.45417 14.0488 9.47158
143 1 -1.1104 12.2352 13.9314 6.76034
331 2 2.2208 10.9516 18.1139 10.9517
199 2 2.2208 -0.29168 4.07556 8.12478
328 1 -1.1104 12.2628 13.8194 9.57108
126 1 -1.1104 3.90509 19.5031 6.62251
108 1 -1.1104 1.00447 13.8566 6.66169
321 1 -1.1104 9.4816 19.4596 12.437
117 1 -1.1104 0.92161 16.7758 6.62556
124 1 -1.1104 3.81545 13.8784 6.56898
332 2 2.2208 13.62 18.07 7.99034
133 1 -1.1104 3.78716 16.8216 6.66864
310 2 2.2208 2.33565 15.3586 10.8838
309 2 2.2208 2.4437 20.8793 10.8436
308 1 -1.1104 3.89085 16.6088 12.3072
307 1 -1.1104 1.07635 16.9069 12.339
286 1 -1.1104 3.83899 19.4507 12.2517
305 1 -1.1104 3.82406 13.9261 9.43496
304 1 -1.1104 3.69472 16.6336 9.52626
303 2 2.2208 2.33196 18.1052 8.06045
301 1 -1.1104 3.62298 19.466 9.55085
300 2 2.2208 5.05318 18.0633 10.9208
299 1 -1.1104 1.07426 14.0567 12.2647
298 1 -1.1104 1.12524 19.6204 12.2198
295 2 2.2208 5.13349 15.4513 7.99556
294 1 -1.1104 1.06984 14.1093 9.43485
293 2 2.2208 5.25869 20.9326 7.96863
292 1 -1.1104 1.0431 16.7893 9.4908
291 1 -1.1104 1.06994 19.559 9.44616
287 1 -1.1104 3.72681 13.911 12.2029
111 1 -1.1104 6.56754 14.0002 6.8073
297 1 -1.1104 6.54067 13.8632 12.2348
296 1 -1.1104 6.68029 19.4387 12.3545
317 2 2.2208 7.91048 15.3489 10.8552
288 1 -1.1104 6.58529 19.4704 9.32389
316 2 2.2208 8.18899 20.8326 10.8172
314 1 -1.1104 9.51476 16.9061 9.49177
327 1 -1.1104 12.1881 19.5404 9.40844
324 2 2.2208 10.9241 20.9186 8.07553
289 1 -1.1104 6.61425 16.7738 9.43843
322 1 -1.1104 9.37469 13.7855 12.1712
163 1 -1.1104 9.40115 16.7962 6.81278
396 2 2.2208 -0.324974 12.4054 -0.197691
344 2 2.2208 -0.354081 7.0302 10.9464
352 2 2.2208 5.24174 4.12328 13.6646
49 2 2.2208 13.6521 1.31744 2.45783
312 2 2.2208 -0.157492 18.2579 10.8891
337 2 2.2208 13.6203 15.317 5.22168
383 2 2.2208 2.40848 4.11322 -0.328387
402 2 2.2208 13.6402 9.71185 -0.33644
373 2 2.2208 10.9186 15.2819 13.6605
392 2 2.2208 13.5753 4.14814 -0.259774
356 2 2.2208 10.9502 -1.54429 13.6519
364 2 2.2208 10.8514 9.52995 13.5635
377 2 2.2208 8.05933 15.2798 -0.319484
398 2 2.2208 10.9251 6.95808 -0.32854
355 2 2.2208 8.21733 1.37152 13.5675
378 2 2.2208 10.7597 18.0665 -0.318929
379 2 2.2208 8.06591 21 -0.303725
360 2 2.2208 5.23247 9.80005 13.66
403 2 2.2208 2.42138 15.2907 -0.339196
358 2 2.2208 -0.345697 9.79459 13.6803
372 2 2.2208 10.9588 20.8812 13.6002
406 2 2.2208 5.24527 1.41315 16.5305
407 1 -1.1104 1.06115 -2.89764 17.9209
408 1 -1.1104 1.04737 2.66101 17.9322
411 1 -1.1104 0.977299 -2.90237 15.2234
413 1 -1.1104 0.968694 2.70877 15.2378
419 1 -1.1104 0.986797 -0.052979 17.8057
421 2 2.2208 5.10105 -1.31362 19.3122
422 2 2.2208 5.14029 4.1455 19.0846
423 1 -1.1104 1.03358 -0.0163218 15.0912
427 1 -1.1104 3.79557 -2.79397 17.8707
428 1 -1.1104 3.83118 2.84054 17.8956
429 2 2.2208 2.44563 1.42238 19.3751
430 1 -1.1104 3.64816 -2.74822 15.0413
432 1 -1.1104 3.79738 2.73948 15.2379
434 2 2.2208 2.41159 -1.40934 16.467
436 1 -1.1104 3.7524 0.0170676 17.9214
437 1 -1.1104 3.95285 0.0185106 15.1037
435 2 2.2208 2.35141 4.16642 16.4799
639 2 2.2208 5.20657 -4.21482 22.167
361 2 2.2208 2.48251 12.648 13.7992
672 2 2.2208 13.511 1.41763 24.9361
475 2 2.2208 7.93028 -4.12728 19.1855
544 2 2.2208 -0.3447 4.06291 19.2914
440 2 2.2208 5.10538 -4.1454 16.5605
410 1 -1.1104 6.59508 2.66049 17.8181
425 1 -1.1104 6.78634 0.0883776 14.7447
447 2 2.2208 -0.307933 18.2084 16.4657
433 1 -1.1104 3.86626 2.86526 20.6028
438 1 -1.1104 3.91405 0.0695961 20.7947
701 1 -1.1104 9.54816 16.7678 23.57
723 2 2.2208 -0.27285 18.2214 22.014
409 1 -1.1104 6.57115 -2.75243 17.8701
415 1 -1.1104 6.57153 -2.75822 15.2177
417 1 -1.1104 6.64712 2.76123 15.1116
420 1 -1.1104 6.79576 -0.155378 17.805
449 2 2.2208 10.936 1.29948 16.3515
450 1 -1.1104 12.4088 -2.87369 17.9411
451 1 -1.1104 12.3089 2.73282 17.9122
452 1 -1.1104 12.2158 -2.90474 15.0366
454 1 -1.1104 12.2765 2.66438 15.0229
456 1 -1.1104 12.2009 0.0596706 17.9426
457 2 2.2208 10.9755 -1.55519 19.3665
458 2 2.2208 10.7664 4.11378 19.069
459 1 -1.1104 12.4329 -0.0969112 15.1673
461 1 -1.1104 9.54871 -2.84785 17.911
462 1 -1.1104 9.38059 2.6958 17.7609
463 2 2.2208 8.04845 1.35493 19.2092
464 1 -1.1104 9.53105 -2.93449 15.0099
466 1 -1.1104 9.55007 2.73815 14.996
468 2 2.2208 8.16282 -1.50972 16.5418
469 2 2.2208 7.97746 4.18343 16.3866
470 1 -1.1104 9.61985 -0.183381 17.9247
471 1 -1.1104 9.7036 -0.164978 14.9856
663 1 -1.1104 12.0961 16.6343 26.3322
477 2 2.2208 13.6213 -1.49122 16.5015
587 1 -1.1104 12.1931 19.55 20.9225
418 1 -1.1104 6.57992 2.87666 20.4086
472 1 -1.1104 9.19485 -0.117721 20.7109
467 1 -1.1104 9.29429 2.62644 20.712
426 1 -1.1104 6.60528 0.162666 20.7354
465 1 -1.1104 9.49756 -2.90791 20.8011
455 1 -1.1104 12.0632 2.57469 20.6827
476 2 2.2208 -0.275222 20.9231 19.2537
747 1 -1.1104 6.58613 16.6752 23.6083
669 2 2.2208 7.96341 -4.31642 25.0007
482 2 2.2208 5.13539 7.00971 16.5856
483 2 2.2208 5.34817 12.5583 16.6067
484 1 -1.1104 1.12393 8.32982 17.9446
486 1 -1.1104 1.07916 8.31464 14.9532
490 1 -1.1104 0.972855 5.56547 17.8961
491 1 -1.1104 1.14475 11.0349 17.7502
494 2 2.2208 5.20146 9.76655 19.2763
495 1 -1.1104 0.976081 5.44054 14.9606
497 1 -1.1104 0.988318 11.2015 15.1024
503 1 -1.1104 3.82276 8.39698 17.8718
504 2 2.2208 2.40819 7.06275 19.3286
505 2 2.2208 2.29481 12.5288 19.3191
506 1 -1.1104 3.81007 8.27252 15.1755
508 2 2.2208 2.5016 9.77895 16.4776
509 1 -1.1104 3.81947 5.61173 17.888
510 1 -1.1104 3.9703 11.1436 17.8805
511 1 -1.1104 3.8662 5.42106 14.94
513 1 -1.1104 3.78892 11.2517 15.0489
448 2 2.2208 -0.32654 15.4015 19.3624
351 2 2.2208 -0.268985 15.4467 13.8083
492 1 -1.1104 6.51618 5.42456 17.8772
499 1 -1.1104 6.60902 5.66012 15.1639
488 1 -1.1104 6.67108 8.49477 15.2145
485 1 -1.1104 6.55404 8.18718 18.0586
514 1 -1.1104 3.76743 11.1232 20.8314
641 2 2.2208 10.8667 20.8884 24.8267
634 1 -1.1104 12.4098 13.8467 26.3872
640 2 2.2208 2.395 -4.23987 24.9355
493 1 -1.1104 6.6813 11.0515 17.9199
501 1 -1.1104 6.78253 11.1506 15.1687
518 2 2.2208 10.7933 6.92135 16.4653
519 2 2.2208 10.8193 12.436 16.5213
520 1 -1.1104 12.0554 8.18245 17.9128
521 1 -1.1104 12.2392 8.29342 15.0901
523 1 -1.1104 12.0608 5.39873 17.7777
524 1 -1.1104 12.1888 11.0533 17.8193
525 2 2.2208 10.9022 9.82161 19.2431
526 1 -1.1104 12.1959 5.54515 15.1205
528 1 -1.1104 12.3842 11.0543 15.1076
530 1 -1.1104 9.28244 8.33248 17.9515
531 2 2.2208 8.00412 6.79644 19.2783
532 2 2.2208 8.20026 12.4152 19.456
533 1 -1.1104 9.42684 8.31317 15.1611
535 2 2.2208 8.01264 9.69942 16.6379
536 1 -1.1104 9.27972 5.4748 17.7694
537 1 -1.1104 9.48483 11.1277 18.0183
538 1 -1.1104 9.47183 5.46272 14.971
540 1 -1.1104 9.48719 11.1195 15.1148
541 1 -1.1104 9.49854 11.1204 20.9532
502 1 -1.1104 6.70856 11.0702 20.6674
534 1 -1.1104 9.54219 8.29057 20.6392
539 1 -1.1104 9.3197 5.39042 20.5364
522 1 -1.1104 12.227 8.24406 20.7389
529 1 -1.1104 12.3256 11.1265 20.7646
441 2 2.2208 2.384 -4.14082 19.3854
545 2 2.2208 5.34547 18.0803 16.5525
546 1 -1.1104 1.03217 13.9443 17.9182
547 1 -1.1104 1.08873 19.4426 17.9106
550 1 -1.1104 1.16501 13.9979 15.1695
552 1 -1.1104 1.05525 19.565 15.1852
558 1 -1.1104 1.0748 16.718 17.9751
560 2 2.2208 5.26216 15.169 19.28
561 2 2.2208 5.39058 20.8973 19.2154
562 1 -1.1104 1.0962 16.8107 15.0762
566 1 -1.1104 3.76028 13.8016 18.133
567 1 -1.1104 3.98138 19.5182 17.9648
568 2 2.2208 2.54801 18.116 19.3483
569 1 -1.1104 4.00335 14.0725 15.3228
571 1 -1.1104 3.84419 19.3272 15.1636
573 2 2.2208 2.54932 15.4197 16.5636
574 2 2.2208 2.55102 20.8421 16.3621
575 1 -1.1104 4.01839 16.6794 17.8313
576 1 -1.1104 3.9863 16.7496 15.0725
564 1 -1.1104 6.76814 16.8095 15.0816
699 2 2.2208 7.96769 15.2641 22.087
572 1 -1.1104 4.05197 19.6687 20.7004
563 1 -1.1104 1.04288 16.6785 20.5958
553 1 -1.1104 1.11446 19.526 20.6944
570 1 -1.1104 3.83956 14.0424 20.723
664 1 -1.1104 9.42703 13.965 23.5238
585 1 -1.1104 12.2206 13.9221 20.6679
597 1 -1.1104 9.47445 13.8182 20.7995
554 1 -1.1104 6.68794 14.0033 15.0759
548 1 -1.1104 6.7375 13.8732 17.8928
556 1 -1.1104 6.78439 19.6867 15.0052
559 1 -1.1104 6.61443 16.5162 18.0137
549 1 -1.1104 6.81408 19.3681 17.7609
581 2 2.2208 10.8403 18.0622 16.4771
582 1 -1.1104 12.3098 13.8541 17.9171
583 1 -1.1104 12.34 19.6067 17.9792
584 1 -1.1104 12.1962 13.8393 15.1101
586 1 -1.1104 12.2783 19.4319 15.1133
588 1 -1.1104 12.2554 16.7092 17.8452
589 2 2.2208 10.9076 15.3836 19.3523
590 2 2.2208 10.9378 20.9361 19.5231
591 1 -1.1104 12.2636 16.6993 15.0329
593 1 -1.1104 9.50684 13.9131 17.9779
594 1 -1.1104 9.62873 19.4468 17.8402
595 2 2.2208 8.09655 18.1145 19.4128
596 1 -1.1104 9.52878 13.9013 15.0521
598 1 -1.1104 9.62389 19.3987 15.0197
600 2 2.2208 8.11327 15.3635 16.4662
601 2 2.2208 8.16974 20.8472 16.4389
602 1 -1.1104 9.40113 16.7996 17.8854
603 1 -1.1104 9.54912 16.5051 15.0158
592 1 -1.1104 12.2489 16.7959 20.6289
604 1 -1.1104 9.4452 16.5872 20.7461
557 1 -1.1104 6.73917 19.5132 20.5883
633 1 -1.1104 12.3038 19.5696 23.5495
599 1 -1.1104 9.53536 19.4112 20.7087
369 2 2.2208 5.25613 20.9189 13.6578
424 1 -1.1104 1.10842 -0.141399 20.801
412 1 -1.1104 1.05367 -2.8816 20.7641
431 1 -1.1104 3.79749 -2.86491 20.7359
608 1 -1.1104 12.284 13.855 23.47
414 1 -1.1104 0.973352 2.7495 20.6904
609 2 2.2208 5.28639 1.40663 22.0758
610 1 -1.1104 1.16256 -2.81057 23.5179
611 1 -1.1104 1.03926 2.64277 23.4873
614 1 -1.1104 1.01321 -2.83713 26.2987
615 1 -1.1104 0.930603 2.69025 26.1703
618 1 -1.1104 1.00647 -0.0874064 23.5772
620 2 2.2208 5.19699 -1.38558 25.0188
621 2 2.2208 5.16498 4.265 24.9474
622 1 -1.1104 1.02061 -0.0378761 26.2975
624 1 -1.1104 3.80803 -2.84783 23.6262
625 1 -1.1104 3.80059 2.73777 23.4332
626 2 2.2208 2.38181 1.30197 24.8525
627 1 -1.1104 3.8048 -2.77554 26.4348
628 1 -1.1104 3.93772 2.77191 26.375
629 2 2.2208 2.40061 -1.43638 22.198
630 2 2.2208 2.38819 4.16675 22.0288
631 1 -1.1104 3.7494 -0.128869 23.5768
632 1 -1.1104 3.82277 0.0886939 26.2507
698 1 -1.1104 9.46801 19.4486 26.1628
371 2 2.2208 5.29931 15.3826 13.76
605 2 2.2208 13.6244 18.0057 24.8659
542 2 2.2208 13.5422 6.94249 19.2343
376 2 2.2208 8.15817 18.1014 13.6428
636 1 -1.1104 12.1362 16.7348 23.5446
460 1 -1.1104 12.1409 -0.264921 20.8549
416 1 -1.1104 6.60383 -2.74783 20.7591
453 1 -1.1104 12.1919 -2.94317 20.6171
617 1 -1.1104 6.60272 2.96551 26.2778
623 1 -1.1104 6.56324 0.141544 26.3302
613 1 -1.1104 6.53919 2.8137 23.5178
612 1 -1.1104 6.59809 -2.91454 23.7079
616 1 -1.1104 6.5397 -2.74713 26.4174
619 1 -1.1104 6.60593 -0.19597 23.5185
645 2 2.2208 10.6551 1.20814 22.0263
646 1 -1.1104 12.2152 -2.83837 23.4916
647 1 -1.1104 12.1913 2.71595 23.4429
648 1 -1.1104 12.1239 -2.82169 26.2875
649 1 -1.1104 12.1472 2.69316 26.2153
650 1 -1.1104 12.2677 0.119333 23.5124
651 2 2.2208 10.7203 -1.47388 24.9077
653 1 -1.1104 12.0288 -0.0825418 26.2388
654 1 -1.1104 9.55433 -2.97954 23.5162
655 1 -1.1104 9.25494 2.6931 23.4705
656 2 2.2208 7.96999 1.3372 24.8944
657 1 -1.1104 9.28392 -2.84308 26.1875
658 1 -1.1104 9.34562 2.82556 26.1574
659 2 2.2208 8.05051 -1.58752 22.1686
660 2 2.2208 7.91412 4.10082 22.0209
661 1 -1.1104 9.39103 -0.211905 23.4837
662 1 -1.1104 9.23234 -0.203084 26.2557
652 2 2.2208 10.7382 4.12595 24.9031
726 2 2.2208 13.6678 12.5446 24.9779
359 2 2.2208 2.45641 6.88785 13.7159
635 1 -1.1104 12.3908 19.4827 26.4491
667 2 2.2208 8.03108 18.0924 24.8389
607 2 2.2208 10.8216 18.1117 22.0105
496 1 -1.1104 0.80592 5.58072 20.6837
489 1 -1.1104 6.63019 8.33335 20.7719
507 1 -1.1104 3.82627 8.3888 20.734
512 1 -1.1104 3.63273 5.67887 20.754
498 1 -1.1104 0.960683 11.04 20.6009
445 2 2.2208 13.5993 9.70716 22.1589
579 2 2.2208 13.6 4.10092 16.4295
487 1 -1.1104 0.873915 8.27892 20.7767
674 2 2.2208 5.21431 6.90409 22.1038
675 2 2.2208 5.21068 12.415 22.169
676 1 -1.1104 0.998372 8.42305 23.5622
678 1 -1.1104 1.00523 8.34815 26.3596
680 1 -1.1104 1.04059 5.55192 23.5203
681 1 -1.1104 1.03851 11.2424 23.5035
684 2 2.2208 5.30967 9.82014 24.8663
685 1 -1.1104 0.938154 5.56666 26.3074
686 1 -1.1104 0.965072 11.1007 26.3108
689 1 -1.1104 3.79261 8.25764 23.4717
690 2 2.2208 2.37664 6.8887 24.8773
691 2 2.2208 2.42285 12.5337 24.966
692 1 -1.1104 3.87463 8.29893 26.2939
693 2 2.2208 2.4563 9.70918 22.2046
694 1 -1.1104 3.82366 5.57278 23.5526
695 1 -1.1104 3.86029 11.1576 23.5702
696 1 -1.1104 3.85752 5.5055 26.3863
697 1 -1.1104 3.84378 11.1157 26.3672
683 1 -1.1104 6.64838 10.9823 23.4347
730 1 -1.1104 6.67258 13.7918 26.2267
527 1 -1.1104 12.2448 5.50036 20.5029
500 1 -1.1104 6.49376 5.59853 20.6202
677 1 -1.1104 6.65248 8.27832 23.5138
682 1 -1.1104 6.63753 5.56134 23.5291
679 1 -1.1104 6.89601 8.36047 26.2478
687 1 -1.1104 6.65721 5.6474 26.288
688 1 -1.1104 6.62817 11.1246 26.2204
705 1 -1.1104 9.56173 11.2379 26.2488
706 1 -1.1104 9.38218 5.55138 26.2432
707 1 -1.1104 9.41877 11.118 23.5357
708 1 -1.1104 9.40014 5.47601 23.4372
709 2 2.2208 7.99323 9.64755 22.1139
710 1 -1.1104 9.5316 8.38665 26.3388
711 2 2.2208 8.04325 12.5687 24.9332
712 2 2.2208 8.17295 6.98885 24.8487
713 2 2.2208 10.8574 6.92776 22.0165
714 2 2.2208 10.9096 12.4958 22.1036
715 1 -1.1104 12.1776 8.1737 23.4075
716 1 -1.1104 12.3075 8.26424 26.2923
717 1 -1.1104 12.2048 5.49015 23.4447
718 1 -1.1104 12.201 11.0073 23.6152
719 2 2.2208 10.8369 9.73514 24.8678
720 1 -1.1104 12.1708 5.50432 26.3974
721 1 -1.1104 12.3617 11.0383 26.3394
722 1 -1.1104 9.47671 8.28101 23.4208
739 1 -1.1104 6.54688 13.8831 23.3993
728 2 2.2208 13.5888 6.91213 24.8769
673 1 -1.1104 9.44793 14.0089 26.3573
665 1 -1.1104 9.38529 19.4858 23.3742
670 1 -1.1104 6.68091 19.432 26.187
577 1 -1.1104 3.72988 16.675 20.7315
724 2 2.2208 -0.348899 20.8697 24.917
736 1 -1.1104 6.6091 19.5061 23.4444
551 1 -1.1104 1.10727 13.876 20.7621
727 2 2.2208 2.45434 15.2263 22.206
729 1 -1.1104 3.70579 19.6122 23.386
731 1 -1.1104 3.86702 13.9931 23.6446
733 1 -1.1104 1.06033 19.5325 26.0663
734 1 -1.1104 0.956102 16.7607 26.2618
735 1 -1.1104 0.928753 13.8629 26.331
737 2 2.2208 5.1831 21.0006 24.8557
738 2 2.2208 5.21714 15.2569 24.897
740 1 -1.1104 1.06781 19.5542 23.378
741 1 -1.1104 0.998825 13.8376 23.5598
742 2 2.2208 5.26325 18.201 22.0515
743 1 -1.1104 3.91542 19.5909 26.3212
744 2 2.2208 2.36426 18.1641 24.8036
745 1 -1.1104 3.77253 16.6799 26.2553
746 1 -1.1104 3.91895 13.8595 26.3429
748 1 -1.1104 1.12025 16.5996 23.5043
749 1 -1.1104 4.00693 16.8401 23.495
750 2 2.2208 2.60091 21.0281 21.9504
555 1 -1.1104 6.58932 13.8219 20.6191
700 2 2.2208 7.99092 21.005 22.1316
638 2 2.2208 10.8476 15.3723 24.8898
704 1 -1.1104 9.34102 16.7276 26.4151
732 1 -1.1104 6.51819 16.6329 26.2329
565 1 -1.1104 6.65272 16.8191 20.8039
446 2 2.2208 13.4907 4.15875 22.0057
349 2 2.2208 2.37636 1.30242 13.739
348 2 2.2208 5.27367 -1.30914 13.6584
478 2 2.2208 13.6263 20.8927 16.4222
479 2 2.2208 13.6338 18.1215 19.1978
543 2 2.2208 13.6402 9.68068 16.5044
580 2 2.2208 13.5985 15.3584 21.9855
346 2 2.2208 -0.376074 -1.4377 13.8239
578 2 2.2208 13.6364 1.3875 19.2864
443 2 2.2208 -0.278019 -1.42557 19.2833
399 2 2.2208 8.1192 9.73043 27.7049
390 2 2.2208 10.7556 -4.18737 27.6259
391 2 2.2208 13.5112 -1.30876 27.5986
353 2 2.2208 7.9751 -4.31177 13.8491
388 2 2.2208 7.91664 -1.39448 27.6763
363 2 2.2208 8.0783 7.01267 13.7594
405 2 2.2208 2.37665 20.8972 27.5825
382 2 2.2208 2.34968 -1.38746 27.6628
366 2 2.2208 13.5983 6.90405 13.7283
387 2 2.2208 10.6611 1.33756 27.648
394 2 2.2208 2.5137 9.67537 27.5683
404 2 2.2208 5.18014 18.0893 27.6199
365 2 2.2208 8.09303 12.577 13.8203
368 2 2.2208 2.44084 18.1837 13.741
395 2 2.2208 5.26852 12.485 27.6781
362 2 2.2208 13.6681 12.503 13.7344
751 2 2.2208 5.27012 23.6675 5.16576
752 2 2.2208 5.36494 29.3259 5.23552
753 1 -1.1104 0.935613 25.0738 0.926929
754 1 -1.1104 0.997544 25.0977 3.8127
755 1 -1.1104 1.01948 22.2513 1.03546
756 1 -1.1104 0.995933 27.7416 1.05921
757 2 2.2208 5.29485 26.5673 2.53491
758 1 -1.1104 1.11698 22.3733 3.84461
759 1 -1.1104 1.05508 27.9214 3.7345
760 1 -1.1104 3.72905 25.1126 0.95582
761 2 2.2208 2.45925 23.7883 2.32823
762 2 2.2208 2.57221 29.4381 2.47306
763 1 -1.1104 3.80441 25.2034 3.7346
764 2 2.2208 2.49447 26.5773 5.05716
765 1 -1.1104 3.83385 22.2841 1.03068
766 1 -1.1104 3.88191 27.9034 1.08836
767 1 -1.1104 3.92136 22.4076 3.74278
768 1 -1.1104 3.92983 27.9492 3.84263
769 2 2.2208 -0.309471 29.3241 5.21211
820 2 2.2208 -0.16922 35.0817 5.281
1067 2 2.2208 13.6089 37.686 5.35149
898 1 -1.1104 3.91917 25.1017 6.54749
1110 2 2.2208 11.1167 43.366 13.6253
773 1 -1.1104 6.69695 25.2501 3.64879
900 1 -1.1104 3.79776 27.864 6.43218
895 1 -1.1104 1.16401 27.878 6.55322
899 1 -1.1104 3.78131 22.1944 6.52568
1113 2 2.2208 10.8473 46.2917 -0.307389
1074 2 2.2208 -0.0896741 29.3159 10.7155
1078 2 2.2208 13.6585 32.21 10.9303
1109 2 2.2208 13.6745 23.5889 13.6217
772 1 -1.1104 6.62142 25.2124 0.922549
774 1 -1.1104 6.74864 22.3926 0.996227
776 1 -1.1104 6.68059 22.4316 3.78176
777 1 -1.1104 6.75567 28.0318 3.83495
775 1 -1.1104 6.87102 28.0596 1.13747
778 2 2.2208 10.968 23.7825 5.27213
779 2 2.2208 10.9341 29.186 5.22811
780 1 -1.1104 12.1032 24.9681 1.01983
781 1 -1.1104 12.3687 25.2361 3.96474
782 1 -1.1104 12.3077 22.4026 0.97441
783 1 -1.1104 12.4231 27.9285 1.07637
784 2 2.2208 11.0019 26.4397 2.43421
785 1 -1.1104 12.3871 22.3688 3.77194
786 1 -1.1104 12.1401 27.8402 3.77006
787 1 -1.1104 9.49033 25.2391 1.15461
788 2 2.2208 8.10355 23.773 2.42863
789 2 2.2208 8.24398 29.4193 2.46155
790 1 -1.1104 9.62093 25.0628 3.90207
791 2 2.2208 8.07473 26.5503 5.23029
792 1 -1.1104 9.62928 22.4067 0.915424
793 1 -1.1104 9.58625 28.0213 1.0866
794 1 -1.1104 9.55891 22.282 3.79114
795 1 -1.1104 9.51838 27.9102 3.88933
897 1 -1.1104 6.6692 27.9023 6.66421
927 1 -1.1104 12.3245 27.9983 6.64419
928 1 -1.1104 9.40997 25.1446 6.56557
893 1 -1.1104 6.75952 25.0871 6.6553
930 1 -1.1104 9.4777 27.8853 6.80071
1534 1 -1.1104 9.57196 47.4385 3.93861
1520 1 -1.1104 12.2511 47.5074 3.69643
799 2 2.2208 5.42396 35.0038 5.2644
800 1 -1.1104 1.09263 30.7003 1.0492
801 1 -1.1104 1.12931 36.1955 1.08659
803 1 -1.1104 1.18381 30.9403 3.8874
804 1 -1.1104 1.10925 36.2598 3.88382
806 1 -1.1104 1.10484 33.6052 1.03593
807 2 2.2208 5.3558 32.1701 2.36852
808 2 2.2208 5.41651 37.7283 2.39272
809 1 -1.1104 1.16602 33.6116 3.81316
811 1 -1.1104 3.83011 30.7209 1.0021
812 1 -1.1104 3.96214 36.4683 0.998677
813 2 2.2208 2.62779 34.9414 2.4792
814 1 -1.1104 4.00824 30.7492 3.83754
815 1 -1.1104 4.0349 36.479 3.83037
816 2 2.2208 2.59066 32.2466 5.27081
817 2 2.2208 2.62958 37.7857 5.14766
818 1 -1.1104 4.10398 33.6024 0.931067
819 1 -1.1104 3.97922 33.6629 3.84803
1106 2 2.2208 2.53603 46.0192 13.4895
955 1 -1.1104 4.04701 30.651 6.5797
949 1 -1.1104 1.30301 30.8956 6.61994
1071 2 2.2208 13.602 29.3657 8.07653
1084 1 -1.1104 12.3797 47.3664 6.44981
1073 2 2.2208 -0.335407 23.9147 10.7872
1102 2 2.2208 5.41905 43.3173 13.6543
1123 2 2.2208 8.11076 26.4514 -0.317507
1079 2 2.2208 -0.229731 32.2709 7.90812
825 1 -1.1104 6.75666 33.4335 0.944647
802 1 -1.1104 6.84579 36.3334 1.12016
823 1 -1.1104 6.83296 30.7222 1.01266
810 1 -1.1104 6.60849 33.5786 3.86738
805 1 -1.1104 6.80197 36.3753 3.86922
824 1 -1.1104 6.6387 30.7347 3.77776
826 2 2.2208 10.8366 34.8551 5.21211
827 1 -1.1104 12.3669 30.7297 0.816326
828 1 -1.1104 12.2449 36.3597 1.10523