ITEM: TIMESTEP
40000
ITEM: NUMBER OF ATOMS
17640
ITEM: BOX BOUNDS pp pp pp
-3.5146129833103856e-01 2.7691461298330932e+01
-4.3011133143249580e+00 3.3238111331431708e+02
-3.5122332448082322e-01 2.7691223324480966e+01
ITEM: ATOMS id type q x y z
1 2 2.2208 5.05637 1.26404 5.05995
2 1 -1.1104 0.932184 -3.1448 0.92886
3 1 -1.1104 0.902348 2.90161 0.799197
6 1 -1.1104 0.832508 -2.92464 3.75357
7 1 -1.1104 0.80392 2.6284 3.66758
10 1 -1.1104 0.943017 -0.165279 1.04311
12 2 2.2208 5.07329 -1.51584 2.343
13 2 2.2208 5.27221 4.17281 2.32669
14 1 -1.1104 0.701261 -0.263361 3.71074
16 1 -1.1104 3.79868 -2.88565 1.00549
17 1 -1.1104 3.74175 2.79324 0.822834
18 2 2.2208 2.21609 1.37171 2.29501
19 1 -1.1104 3.67783 -2.99027 3.70872
20 1 -1.1104 3.65466 2.74312 3.61705
21 2 2.2208 2.15167 -1.50993 5.16394
22 2 2.2208 2.34815 4.16397 5.07617
23 1 -1.1104 3.66209 -0.137408 0.869009
24 1 -1.1104 3.66811 -0.0535123 3.80174
8 1 -1.1104 6.42468 -3.02595 3.69743
5 1 -1.1104 6.55375 2.78938 1.07115
4 1 -1.1104 6.49694 -2.98836 0.889979
11 1 -1.1104 6.40472 -0.0674383 0.998233
172 1 -1.1104 3.66305 -2.82872 6.45324
9 1 -1.1104 6.5959 2.76209 3.77038
170 1 -1.1104 0.846465 -0.127703 6.50864
171 1 -1.1104 6.43704 -0.188428 6.56209
173 1 -1.1104 3.78206 2.71546 6.49853
174 1 -1.1104 3.69596 -0.115077 6.61946
167 1 -1.1104 0.990246 2.69591 6.43658
15 1 -1.1104 6.48789 -0.109455 3.67379
169 1 -1.1104 6.4114 2.60171 6.50492
168 1 -1.1104 6.37264 -3.08964 6.47006
166 1 -1.1104 0.819703 -2.96027 6.72936
376 2 2.2208 7.83882 18.268 13.5441
31 2 2.2208 10.7275 1.22503 5.23211
32 1 -1.1104 12.1464 -3.11489 1.16815
33 1 -1.1104 12.2223 2.65916 1.025
34 1 -1.1104 12.2113 -2.69906 3.75955
35 1 -1.1104 12.1853 2.78755 3.79055
36 1 -1.1104 12.0818 -0.101191 0.917781
37 2 2.2208 10.7831 -1.35421 2.40672
38 2 2.2208 10.7761 4.04178 2.30418
39 1 -1.1104 12.1461 0.0131945 3.81642
40 1 -1.1104 9.21263 -3.07571 0.920752
41 1 -1.1104 9.40886 2.80111 0.948213
42 2 2.2208 7.91789 1.36125 2.3127
43 1 -1.1104 9.1976 -2.91096 3.83903
44 1 -1.1104 9.36381 2.73438 3.77908
45 2 2.2208 7.74347 -1.57143 5.22844
46 2 2.2208 7.93744 4.17209 5.22322
47 1 -1.1104 9.31358 -0.131421 0.926257
48 1 -1.1104 9.2994 -0.0853819 3.68473
334 2 2.2208 13.493 4.06371 5.23489
50 2 2.2208 13.4975 -1.4763 5.18622
205 1 -1.1104 12.0826 -2.85319 6.45607
49 2 2.2208 13.679 1.44684 2.44938
209 1 -1.1104 9.15348 2.64756 6.59158
210 1 -1.1104 9.20878 -0.0923874 6.49674
206 1 -1.1104 11.9912 2.45891 6.62843
325 2 2.2208 10.8011 15.3943 7.96989
207 1 -1.1104 12.1428 -0.186239 6.62512
336 2 2.2208 13.6298 20.8799 5.17631
323 1 -1.1104 12.2058 16.7755 9.4241
321 1 -1.1104 9.24399 19.5613 12.1336
54 2 2.2208 5.10612 6.853 5.21732
55 2 2.2208 5.14738 12.6522 5.31392
56 1 -1.1104 0.817171 8.35304 0.881146
58 1 -1.1104 0.798837 8.38335 3.91746
60 1 -1.1104 0.896881 5.65039 1.03666
61 1 -1.1104 1.00933 11.2339 0.948493
66 2 2.2208 5.21527 9.82214 2.41844
67 1 -1.1104 0.915705 5.58787 3.7255
68 1 -1.1104 1.01779 10.9921 3.76345
71 1 -1.1104 3.63564 8.44613 0.862464
72 2 2.2208 2.27285 6.90076 2.28451
73 2 2.2208 2.34199 12.578 2.49518
74 1 -1.1104 3.74852 8.39206 3.77095
75 2 2.2208 2.34314 9.7644 5.168
76 1 -1.1104 3.57375 5.60755 0.940819
77 1 -1.1104 3.75542 11.1675 1.16595
79 1 -1.1104 3.68672 5.567 3.73213
80 1 -1.1104 3.66251 11.3074 3.92468
69 1 -1.1104 6.61144 5.51105 3.78598
57 1 -1.1104 6.42269 8.41384 1.01678
63 1 -1.1104 6.43226 5.6817 1.05512
70 1 -1.1104 6.43391 11.1419 3.78279
239 1 -1.1104 3.71818 5.55923 6.5352
59 1 -1.1104 6.55939 8.21497 3.82094
65 1 -1.1104 6.54138 11.1759 6.5638
234 1 -1.1104 1.13284 8.33825 6.68822
236 1 -1.1104 0.958421 5.45045 6.65359
238 1 -1.1104 3.87725 8.30811 6.53465
237 1 -1.1104 6.53094 5.59996 6.63296
235 1 -1.1104 6.6854 8.46679 6.66372
64 1 -1.1104 6.50867 11.1563 0.836258
335 2 2.2208 13.6612 9.72513 5.32404
104 2 2.2208 13.6403 12.5852 2.42234
105 2 2.2208 13.5432 6.83568 2.43401
84 2 2.2208 10.84 6.91411 5.28091
85 2 2.2208 10.7736 12.5622 5.36453
86 1 -1.1104 12.1567 8.27064 1.15687
87 1 -1.1104 12.2189 8.40254 3.88916
88 1 -1.1104 12.241 5.39066 0.92774
89 1 -1.1104 12.0146 11.1345 1.02956
91 2 2.2208 10.6982 9.73915 2.51209
92 1 -1.1104 12.2407 5.46694 3.84522
93 1 -1.1104 12.3024 11.1934 3.88475
94 1 -1.1104 9.29476 8.33609 1.04405
95 2 2.2208 8.02033 6.94159 2.41644
96 2 2.2208 7.83959 12.5555 2.31995
97 1 -1.1104 9.34826 8.44328 3.87607
98 2 2.2208 8.11301 9.77418 5.20447
99 1 -1.1104 9.36188 5.615 1.06854
100 1 -1.1104 9.37836 11.1488 0.942882
102 1 -1.1104 9.3857 5.64835 3.93545
103 1 -1.1104 9.50382 11.3155 3.79562
266 1 -1.1104 12.1222 5.25354 6.68168
90 1 -1.1104 12.058 11.0216 6.59787
267 1 -1.1104 9.34 8.26103 6.68079
265 1 -1.1104 12.208 8.16634 6.64737
269 1 -1.1104 9.33583 5.38233 6.67561
320 2 2.2208 7.86597 18.2274 8.1352
106 2 2.2208 5.05893 18.2318 5.2832
107 1 -1.1104 0.898425 14.1218 0.967067
109 1 -1.1104 1.01217 19.6161 1.01789
113 1 -1.1104 1.01896 13.9942 3.80001
114 1 -1.1104 0.834465 19.6258 3.75001
116 1 -1.1104 0.861768 16.8906 0.964141
119 2 2.2208 5.08773 15.3489 2.5958
120 2 2.2208 5.10831 20.9503 2.43077
121 1 -1.1104 0.866714 16.8131 3.7513
123 1 -1.1104 3.69155 13.8625 1.25243
125 1 -1.1104 3.72531 19.5478 1.13358
127 2 2.2208 2.27014 18.2638 2.44687
128 1 -1.1104 3.69943 13.9469 3.90184
129 1 -1.1104 3.72867 19.6093 3.83665
130 2 2.2208 2.23142 15.4691 5.1572
131 2 2.2208 2.29204 20.9781 5.22058
132 1 -1.1104 3.75799 16.8956 1.00132
134 1 -1.1104 3.69197 16.771 3.79928
110 1 -1.1104 6.34522 14.0263 1.11363
115 1 -1.1104 6.50904 13.8539 3.94033
140 1 -1.1104 6.55289 16.8654 1.21638
108 1 -1.1104 0.852462 13.8385 6.75059
122 1 -1.1104 6.50952 16.7898 3.92889
139 1 -1.1104 6.62237 19.4689 3.99384
117 1 -1.1104 0.958714 16.8227 6.61996
126 1 -1.1104 3.6523 19.611 6.61225
118 1 -1.1104 6.44379 16.7211 6.66914
302 1 -1.1104 0.902781 19.7151 6.63413
133 1 -1.1104 3.70896 16.826 6.70264
124 1 -1.1104 3.70193 14.1496 6.59752
112 1 -1.1104 6.46533 19.5299 6.74471
138 1 -1.1104 6.69674 19.7697 1.20371
229 2 2.2208 13.5072 1.27446 7.9338
337 2 2.2208 13.623 15.3721 5.27946
141 2 2.2208 10.7558 18.1762 5.23558
142 1 -1.1104 12.0994 14.0109 0.951079
144 1 -1.1104 12.3506 19.4242 1.06084
146 1 -1.1104 12.1974 13.89 3.89162
147 1 -1.1104 12.2477 19.4613 3.83121
148 1 -1.1104 12.2626 16.7722 1.07443
150 2 2.2208 10.7309 15.2953 2.41985
151 2 2.2208 10.8823 20.9342 2.48837
152 1 -1.1104 12.3224 16.7671 3.91678
153 1 -1.1104 9.2722 14.0265 1.08828
155 1 -1.1104 9.51282 19.6513 1.19932
157 2 2.2208 8.00401 18.2247 2.53092
158 1 -1.1104 9.20356 14.1371 3.73713
159 1 -1.1104 9.42049 19.5772 3.96303
160 2 2.2208 7.9228 15.4159 5.23609
161 2 2.2208 7.94834 20.943 5.2052
162 1 -1.1104 9.38644 16.8227 1.03743
164 1 -1.1104 9.27527 16.7615 3.78821
149 1 -1.1104 12.1648 16.7171 6.55287
143 1 -1.1104 12.2296 13.9537 6.69847
145 1 -1.1104 12.1847 19.5524 6.63348
156 1 -1.1104 9.35702 19.5196 6.773
154 1 -1.1104 9.34078 13.9937 6.55931
163 1 -1.1104 9.3959 16.7939 6.57477
165 2 2.2208 13.8213 17.9973 2.40433
333 2 2.2208 13.6034 15.3328 10.7576
348 2 2.2208 5.0988 -1.52488 13.5429
175 2 2.2208 5.05018 1.19219 10.7357
176 1 -1.1104 0.793655 -3.00143 12.2671
177 1 -1.1104 0.827996 2.66408 12.1502
180 1 -1.1104 0.946166 -2.97327 9.49054
181 1 -1.1104 0.755731 2.50848 9.43539
184 1 -1.1104 0.794658 -0.147167 12.0754
186 2 2.2208 5.11547 -1.49199 7.90653
187 2 2.2208 5.15375 4.12406 7.95306
188 1 -1.1104 0.945298 -0.104798 9.31993
190 1 -1.1104 3.73175 -3.02287 12.1451
191 1 -1.1104 3.71367 2.52002 12.21
192 2 2.2208 2.31358 1.2901 7.96472
193 1 -1.1104 3.71482 -2.86936 9.2933
194 1 -1.1104 3.47966 2.53547 9.39193
195 2 2.2208 2.33427 -1.63755 10.7384
196 2 2.2208 2.36109 3.90338 10.7369
197 1 -1.1104 3.71627 -0.183873 12.2663
198 1 -1.1104 3.7014 -0.197957 9.37726
183 1 -1.1104 6.45385 2.56078 9.26857
179 1 -1.1104 6.39897 2.70389 12.0749
178 1 -1.1104 6.51093 -3.03967 12.2758
182 1 -1.1104 6.55855 -2.86321 9.42528
189 1 -1.1104 6.53678 -0.122994 9.33509
185 1 -1.1104 6.58771 -0.110315 12.1414
352 2 2.2208 5.11203 4.0641 13.5574
349 2 2.2208 2.21611 1.27162 13.5377
328 1 -1.1104 12.0858 14.0109 9.41514
357 2 2.2208 10.6368 4.1008 13.6915
331 2 2.2208 10.6685 18.2032 10.8436
345 2 2.2208 13.4845 21.082 10.9356
53 2 2.2208 13.5781 -4.37185 2.52218
208 1 -1.1104 9.03751 -2.93006 6.62903
329 1 -1.1104 12.1601 19.5509 12.3179
355 2 2.2208 7.91304 1.43633 13.5534
230 2 2.2208 13.485 -1.45351 10.8459
211 2 2.2208 10.661 1.37299 10.734
212 1 -1.1104 11.9594 -2.86798 12.2526
213 1 -1.1104 12.0066 2.85886 12.3015
214 1 -1.1104 12.1412 -2.93407 9.42794
215 1 -1.1104 12.0892 2.65067 9.40549
216 1 -1.1104 12.0434 -0.075815 12.2371
217 2 2.2208 10.7197 -1.40666 7.98613
218 2 2.2208 10.6777 4.02722 7.96161
219 1 -1.1104 12.1168 -0.110514 9.32533
220 1 -1.1104 9.24823 -2.87405 12.2765
221 1 -1.1104 9.30576 2.72668 12.1924
222 2 2.2208 7.80719 1.28399 7.90597
223 1 -1.1104 9.51906 -2.91446 9.48166
224 1 -1.1104 9.26273 2.59983 9.28796
225 2 2.2208 8.05745 -1.53342 10.791
226 2 2.2208 7.84416 4.1761 10.8019
227 1 -1.1104 9.3099 -0.0714664 12.226
228 1 -1.1104 9.29672 -0.0340977 9.42176
380 2 2.2208 13.4274 18.1272 13.5801
338 2 2.2208 13.489 4.07263 10.9812
356 2 2.2208 10.6405 -1.41735 13.603
370 2 2.2208 13.4277 1.32225 13.6758
360 2 2.2208 5.11412 9.65814 13.6248
78 1 -1.1104 3.70707 11.2053 6.75775
62 1 -1.1104 0.922357 11.2474 6.50851
240 2 2.2208 4.97782 6.83351 10.791
241 2 2.2208 5.08913 12.6144 10.7844
242 1 -1.1104 1.11871 8.38721 12.2839
244 1 -1.1104 0.802758 8.4199 9.50419
246 1 -1.1104 0.814193 5.4393 12.1374
247 1 -1.1104 0.970174 11.1724 12.1599
250 2 2.2208 5.20962 9.69956 8.01226
251 1 -1.1104 1.13401 5.36951 9.41438
252 1 -1.1104 0.907705 11.172 9.27389
255 1 -1.1104 3.90205 8.39144 12.1791
256 2 2.2208 2.4159 6.80955 8.00127
257 2 2.2208 2.33849 12.5086 8.00916
258 1 -1.1104 3.63848 8.17171 9.38288
259 2 2.2208 2.37639 9.7514 10.7895
260 1 -1.1104 3.58918 5.39194 12.0627
261 1 -1.1104 3.71533 11.1836 12.2014
262 1 -1.1104 3.77028 5.48592 9.33629
263 1 -1.1104 3.78806 11.0198 9.42296
254 1 -1.1104 6.44598 11.1931 9.43733
243 1 -1.1104 6.62087 8.25748 12.3163
253 1 -1.1104 6.41113 5.45489 9.34821
245 1 -1.1104 6.59085 8.22025 9.47112
248 1 -1.1104 6.47071 5.36881 12.1404
249 1 -1.1104 6.4387 11.2681 12.0126
359 2 2.2208 2.35225 6.92276 13.5897
51 2 2.2208 7.8525 -4.39843 2.4059
362 2 2.2208 13.5079 12.5992 13.6143
28 2 2.2208 2.36701 -4.44798 2.3533
341 2 2.2208 13.552 9.82666 10.9117
101 1 -1.1104 9.27039 11.2432 6.76145
339 2 2.2208 13.5087 6.84336 8.10039
283 1 -1.1104 12.1128 5.45092 9.49611
282 2 2.2208 10.6351 9.70211 8.09421
280 1 -1.1104 12.037 5.46494 12.3341
285 1 -1.1104 9.50963 8.36632 12.1118
284 1 -1.1104 12.0455 11.0791 9.40173
281 1 -1.1104 12.1532 11.1137 12.2468
264 1 -1.1104 9.29564 11.0986 9.49701
268 1 -1.1104 9.41447 5.3428 9.52475
270 1 -1.1104 9.26658 11.0612 12.1469
271 1 -1.1104 9.18043 5.45404 12.3016
272 2 2.2208 7.84874 9.72456 10.7432
273 1 -1.1104 9.4002 8.24086 9.27734
274 2 2.2208 7.84799 12.6706 7.96471
275 2 2.2208 7.92638 6.93608 8.12952
276 2 2.2208 10.7394 6.78899 10.8225
277 2 2.2208 10.647 12.4488 10.9102
278 1 -1.1104 12.1974 8.30188 12.2541
279 1 -1.1104 12.1166 8.27491 9.57376
340 2 2.2208 13.4952 12.505 8.09914
363 2 2.2208 7.92878 6.83085 13.769
316 2 2.2208 7.83912 20.9868 10.8402
233 2 2.2208 13.429 -4.24231 7.88889
372 2 2.2208 10.8449 20.9908 13.7474
318 1 -1.1104 9.29318 19.7135 9.33132
296 1 -1.1104 6.44649 19.628 12.221
111 1 -1.1104 6.48167 13.9898 6.68246
288 1 -1.1104 6.42265 19.5276 9.49517
290 1 -1.1104 6.52968 14.0249 9.51837
310 2 2.2208 2.26677 15.4876 10.8968
309 2 2.2208 2.34667 21.0675 10.7508
308 1 -1.1104 3.75904 16.8449 12.235
307 1 -1.1104 0.867574 16.9479 12.2467
286 1 -1.1104 3.5951 19.5582 12.2403
305 1 -1.1104 3.87391 14.0226 9.38182
304 1 -1.1104 3.69541 16.7729 9.52897
303 2 2.2208 2.18549 18.1253 8.01005
301 1 -1.1104 3.45745 19.5996 9.42358
300 2 2.2208 5.07661 18.2411 10.8728
299 1 -1.1104 0.812849 13.9677 12.1178
298 1 -1.1104 0.843912 19.5737 12.2572
295 2 2.2208 5.14883 15.4146 8.04348
294 1 -1.1104 1.03232 13.9664 9.49549
293 2 2.2208 5.07716 21.0463 8.10704
292 1 -1.1104 0.84266 16.713 9.37493
291 1 -1.1104 0.819415 19.6465 9.32599
287 1 -1.1104 3.68597 14.0529 12.219
297 1 -1.1104 6.61304 14.0207 12.2627
306 1 -1.1104 6.47372 16.8763 12.2223
289 1 -1.1104 6.56243 16.8077 9.46419
368 2 2.2208 2.26169 18.225 13.6745
330 1 -1.1104 12.225 13.9417 12.2919
317 2 2.2208 7.90973 15.2975 10.8433
326 1 -1.1104 12.1586 16.8444 12.1079
315 1 -1.1104 9.30561 16.8581 12.153
322 1 -1.1104 9.33625 13.8419 12.1798
319 1 -1.1104 9.4467 13.9109 9.36091
332 2 2.2208 13.5586 18.0723 8.08325
314 1 -1.1104 9.38551 16.8364 9.38132
324 2 2.2208 10.7556 20.945 7.92403
327 1 -1.1104 12.2396 19.547 9.35597
231 2 2.2208 7.78636 -4.43549 7.96592
361 2 2.2208 2.23877 12.6079 13.5925
387 2 2.2208 10.7284 1.22095 -0.443441
374 2 2.2208 13.6022 15.2831 -0.411935
403 2 2.2208 2.31 15.6156 -0.402593
392 2 2.2208 13.576 4.05365 -0.490534
371 2 2.2208 5.07582 15.457 13.547
366 2 2.2208 13.4899 6.90974 13.7824
399 2 2.2208 7.87017 9.72241 -0.534146
369 2 2.2208 5.03647 20.9236 13.7065
406 2 2.2208 4.98017 1.20914 16.3408
407 1 -1.1104 0.905301 -2.89855 17.8512
408 1 -1.1104 0.924383 2.85068 17.7259
411 1 -1.1104 0.794723 -2.87962 14.9372
413 1 -1.1104 0.963105 2.7159 15.009
419 1 -1.1104 0.853582 -0.00744164 17.6809
421 2 2.2208 4.95445 -1.54849 19.124
422 2 2.2208 5.17137 3.9045 19.2475
423 1 -1.1104 0.836777 -0.0710794 14.807
427 1 -1.1104 3.69924 -2.94259 17.6625
428 1 -1.1104 3.66463 2.81695 17.8247
429 2 2.2208 2.26411 1.30081 19.164
430 1 -1.1104 3.59303 -2.95646 14.87
432 1 -1.1104 3.6527 2.58963 14.9177
434 2 2.2208 2.2109 -1.59376 16.3104
436 1 -1.1104 3.60972 -0.13656 17.8561
437 1 -1.1104 3.79722 -0.217477 14.9131
435 2 2.2208 2.29456 4.20338 16.3403
420 1 -1.1104 6.46883 -0.0517556 17.7621
410 1 -1.1104 6.42873 2.55304 17.8579
425 1 -1.1104 6.41753 -0.0378302 14.782
416 1 -1.1104 6.42309 -2.82006 20.579
415 1 -1.1104 6.47979 -2.93783 15.1253
417 1 -1.1104 6.41793 2.87313 15.1439
431 1 -1.1104 3.66032 -2.84626 20.5818
409 1 -1.1104 6.51372 -2.86422 17.8193
418 1 -1.1104 6.57226 2.60804 20.5656
412 1 -1.1104 0.904834 -2.91744 20.5742
426 1 -1.1104 6.45616 -0.086603 20.6516
438 1 -1.1104 3.65207 -0.0492624 20.5262
414 1 -1.1104 1.00515 2.72818 20.4203
424 1 -1.1104 0.842966 -0.078468 20.4355
433 1 -1.1104 3.78569 2.6385 20.6378
400 2 2.2208 10.6563 12.639 27.6247
579 2 2.2208 13.513 3.99996 16.497
477 2 2.2208 13.42 -1.57806 16.435
449 2 2.2208 10.6404 1.14865 16.4214
450 1 -1.1104 11.9989 -2.96151 17.9375
451 1 -1.1104 12.0771 2.55006 17.732
452 1 -1.1104 12.1021 -2.97259 15.0515
454 1 -1.1104 12.1192 2.73728 15.0107
456 1 -1.1104 11.9144 -0.335717 17.7889
457 2 2.2208 10.5578 -1.54574 19.2289
458 2 2.2208 10.593 4.02379 19.3209
459 1 -1.1104 12.0515 -0.189015 15.0234
461 1 -1.1104 9.29721 -2.89418 17.7485
462 1 -1.1104 9.35931 2.6235 17.8577
463 2 2.2208 7.77197 1.23484 19.2212
464 1 -1.1104 9.31383 -3.00107 14.9941
466 1 -1.1104 9.35387 2.6546 15.0869
468 2 2.2208 7.85862 -1.56639 16.4119
469 2 2.2208 7.79762 4.02273 16.5391
470 1 -1.1104 9.20072 -0.215855 17.7817
471 1 -1.1104 9.24771 -0.210971 15.0628
381 2 2.2208 5.10055 1.40571 27.6426
578 2 2.2208 13.3658 1.19223 19.2387
467 1 -1.1104 9.20601 2.59748 20.5978
460 1 -1.1104 12.017 -0.02241 20.6695
472 1 -1.1104 9.41222 -0.0834369 20.5686
453 1 -1.1104 11.9035 -2.78705 20.6712
580 2 2.2208 13.4974 15.3913 21.8847
482 2 2.2208 5.13142 6.91099 16.4628
483 2 2.2208 4.96642 12.5852 16.2677
484 1 -1.1104 0.866262 8.50446 17.8745
486 1 -1.1104 0.91208 8.33116 15.1547
490 1 -1.1104 0.95954 5.45918 17.6997
491 1 -1.1104 0.916136 11.2888 17.8369
494 2 2.2208 4.91042 9.77013 19.2255
495 1 -1.1104 0.987251 5.53617 14.8665
497 1 -1.1104 0.815864 11.1896 14.998
503 1 -1.1104 3.66997 8.30387 17.7905
504 2 2.2208 2.37469 6.89615 19.193
505 2 2.2208 2.2765 12.5667 19.2827
506 1 -1.1104 3.67667 8.27796 15.1645
508 2 2.2208 2.3194 9.71397 16.5094
509 1 -1.1104 3.64198 5.62203 17.7101
510 1 -1.1104 3.65983 11.2014 17.8145
511 1 -1.1104 3.73524 5.40628 14.8509
513 1 -1.1104 3.64081 11.0105 14.9531
485 1 -1.1104 6.4553 8.41538 17.9
492 1 -1.1104 6.45459 5.52139 17.7821
499 1 -1.1104 6.3233 5.58854 14.9681
501 1 -1.1104 6.48206 11.0608 14.943
493 1 -1.1104 6.49646 11.2026 17.8094
488 1 -1.1104 6.72983 8.41005 15.1022
512 1 -1.1104 3.77576 5.511 20.603
498 1 -1.1104 0.958297 10.9428 20.6601
500 1 -1.1104 6.53734 5.44593 20.6529
514 1 -1.1104 3.70126 11.1844 20.6667
496 1 -1.1104 1.055 5.45624 20.5785
507 1 -1.1104 3.88127 8.16589 20.591
502 1 -1.1104 6.2886 11.1414 20.458
489 1 -1.1104 6.54164 8.45729 20.5664
487 1 -1.1104 1.05216 8.23091 20.5936
517 2 2.2208 13.6291 12.4468 19.2921
543 2 2.2208 13.5732 9.7913 16.4237
518 2 2.2208 10.7609 6.79398 16.5113
519 2 2.2208 10.5872 12.4674 16.4606
520 1 -1.1104 12.1783 8.26545 18.0601
521 1 -1.1104 12.244 8.30492 15.1407
523 1 -1.1104 12.1893 5.34971 17.8374
524 1 -1.1104 12.0456 11.0505 17.895
525 2 2.2208 10.7255 9.71052 19.321
526 1 -1.1104 12.1468 5.47028 15.1983
528 1 -1.1104 12.002 11.212 15.0144
530 1 -1.1104 9.38306 8.17318 17.7906
531 2 2.2208 7.8166 6.97647 19.2267
532 2 2.2208 7.80099 12.6452 19.1666
533 1 -1.1104 9.40997 8.25209 14.9448
535 2 2.2208 7.973 9.75394 16.5378
536 1 -1.1104 9.16764 5.56562 17.9878
537 1 -1.1104 9.26003 11.0737 17.9317
538 1 -1.1104 9.26229 5.4389 15.1035
540 1 -1.1104 9.25163 11.1462 15.0373
542 2 2.2208 13.4349 6.8982 19.3695
541 1 -1.1104 9.33375 10.9468 20.5716
534 1 -1.1104 9.37537 8.14757 20.6325
529 1 -1.1104 12.2622 11.2578 20.8082
522 1 -1.1104 12.1108 8.48327 20.8309
545 2 2.2208 5.20028 18.0567 16.4413
546 1 -1.1104 0.710678 14.1309 17.7958
547 1 -1.1104 1.06571 19.5794 17.8359
550 1 -1.1104 0.850714 13.994 15.0194
552 1 -1.1104 0.855174 19.5798 15.0943
558 1 -1.1104 0.813378 16.8926 17.6942
560 2 2.2208 5.12373 15.4184 19.3402
561 2 2.2208 5.03034 20.9264 19.248
562 1 -1.1104 0.874756 16.8338 14.9776
566 1 -1.1104 3.53667 14.0391 17.801
567 1 -1.1104 3.78231 19.3899 17.8333
568 2 2.2208 2.29038 18.1882 19.1635
569 1 -1.1104 3.73968 13.844 14.9209
571 1 -1.1104 3.69721 19.4181 15.1174
573 2 2.2208 2.20714 15.372 16.4132
574 2 2.2208 2.3204 21.0394 16.4784
575 1 -1.1104 3.72465 16.7199 17.792
576 1 -1.1104 3.71444 16.5477 15.0117
554 1 -1.1104 6.53054 13.8897 15.0078
548 1 -1.1104 6.35144 14.0655 17.8763
556 1 -1.1104 6.54742 19.4224 14.9992
549 1 -1.1104 6.47526 19.6007 17.8262
559 1 -1.1104 6.48933 16.8545 17.9116
564 1 -1.1104 6.54531 16.7514 14.8284
577 1 -1.1104 3.73397 16.8031 20.7179
555 1 -1.1104 6.64996 13.8425 20.5959
551 1 -1.1104 0.908936 13.8397 20.6645
565 1 -1.1104 6.5785 16.5917 20.7227
553 1 -1.1104 0.832879 19.5027 20.6414
563 1 -1.1104 0.937796 16.7262 20.5339
572 1 -1.1104 3.66319 19.5444 20.5408
557 1 -1.1104 6.47875 19.675 20.4958
570 1 -1.1104 3.73981 14.061 20.6944
478 2 2.2208 13.4935 20.9167 16.4826
604 1 -1.1104 9.40537 16.7346 20.7806
597 1 -1.1104 9.29381 13.9461 20.6421
587 1 -1.1104 12.0504 19.7935 20.6856
479 2 2.2208 13.5521 18.1293 19.2293
480 2 2.2208 13.4676 15.274 16.3495
581 2 2.2208 10.7357 18.0758 16.5058
582 1 -1.1104 12.1071 13.8266 17.7989
583 1 -1.1104 12.1269 19.5045 17.9469
584 1 -1.1104 12.1128 13.9103 15.094
586 1 -1.1104 12.2024 19.5703 15.0707
588 1 -1.1104 12.1959 16.6461 17.7302
589 2 2.2208 10.6385 15.2576 19.1233
590 2 2.2208 10.6038 20.985 19.2998
591 1 -1.1104 12.1471 16.6846 14.9344
593 1 -1.1104 9.22689 13.8696 17.7308
594 1 -1.1104 9.32167 19.4986 17.9563
595 2 2.2208 7.77659 18.1729 19.3181
596 1 -1.1104 9.3484 13.9366 14.9644
598 1 -1.1104 9.35559 19.5234 14.987
600 2 2.2208 7.81961 15.2729 16.3577
601 2 2.2208 7.94271 20.8707 16.4438
602 1 -1.1104 9.35446 16.725 17.9748
603 1 -1.1104 9.41185 16.816 14.9746
592 1 -1.1104 12.1378 16.9282 20.557
599 1 -1.1104 9.47062 19.5726 20.6753
585 1 -1.1104 12.1217 13.9678 20.5684
383 2 2.2208 2.41366 4.24412 27.5981
699 2 2.2208 7.87213 15.3397 22.132
395 2 2.2208 5.01219 12.6853 27.7419
609 2 2.2208 5.03701 1.23033 22.076
610 1 -1.1104 1.0743 -2.97693 23.2967
611 1 -1.1104 1.01838 2.56255 23.2363
614 1 -1.1104 0.859475 -2.90181 26.3301
615 1 -1.1104 0.858475 2.73916 26.0661
618 1 -1.1104 0.89648 -0.165478 23.2777
620 2 2.2208 5.12426 -1.50626 24.9261
621 2 2.2208 5.16821 4.08037 24.8667
622 1 -1.1104 0.957171 -0.0382077 26.2276
624 1 -1.1104 3.81374 -2.99355 23.5271
625 1 -1.1104 3.79925 2.79438 23.3995
626 2 2.2208 2.30312 1.26361 24.7623
627 1 -1.1104 3.70008 -2.94996 26.3602
628 1 -1.1104 3.74586 2.74905 26.0942
629 2 2.2208 2.32098 -1.49042 22.0101
630 2 2.2208 2.32981 4.04774 21.9547
631 1 -1.1104 3.7679 -0.272303 23.4918
632 1 -1.1104 3.65588 -0.116045 26.3224
619 1 -1.1104 6.50438 -0.0822341 23.4523
617 1 -1.1104 6.61047 2.83922 26.3867
616 1 -1.1104 6.44122 -3.02626 26.2694
623 1 -1.1104 6.5458 -0.119966 26.3533
613 1 -1.1104 6.47452 2.64079 23.4618
612 1 -1.1104 6.54679 -2.92477 23.405
382 2 2.2208 2.2865 -1.4619 27.6638
636 1 -1.1104 12.0843 16.7264 23.3887
405 2 2.2208 2.32326 20.9815 27.6122
633 1 -1.1104 12.221 19.6373 23.3364
377 2 2.2208 7.91997 15.4647 27.7713
455 1 -1.1104 12.1435 2.80389 20.7473
446 2 2.2208 13.5258 4.03277 22.0451
672 2 2.2208 13.604 1.27175 24.8513
671 2 2.2208 13.4393 -1.57324 22.0752
465 1 -1.1104 9.10654 -2.7881 20.5958
645 2 2.2208 10.7572 1.27693 22.05
646 1 -1.1104 12.1809 -2.88547 23.5297
647 1 -1.1104 12.0508 2.71603 23.6066
648 1 -1.1104 12.0247 -2.945 26.3418
649 1 -1.1104 12.2392 2.5986 26.3789
650 1 -1.1104 12.1501 -0.182324 23.3234
651 2 2.2208 10.7592 -1.63648 24.8462
653 1 -1.1104 12.223 -0.102109 26.0688
654 1 -1.1104 9.37106 -2.96019 23.4459
655 1 -1.1104 9.35728 2.6704 23.4817
656 2 2.2208 7.85004 1.3072 24.8527
657 1 -1.1104 9.32616 -3.05035 26.1769
658 1 -1.1104 9.34311 2.82902 26.3008
659 2 2.2208 7.87267 -1.50632 22.0125
660 2 2.2208 7.87753 3.98252 22.0012
661 1 -1.1104 9.24248 -0.120892 23.3932
662 1 -1.1104 9.32593 -0.0378773 26.2739
652 2 2.2208 10.711 4.17445 24.8245
389 2 2.2208 7.92948 4.26821 27.6828
388 2 2.2208 7.91206 -1.63056 27.6812
385 2 2.2208 5.11208 -4.41767 27.671
665 1 -1.1104 9.41101 19.558 23.6355
674 2 2.2208 5.16162 6.81623 22.0521
675 2 2.2208 5.15213 12.5848 22.0482
676 1 -1.1104 0.843655 8.5582 23.3755
678 1 -1.1104 0.847981 8.30728 26.3427
680 1 -1.1104 0.882444 5.60936 23.4087
681 1 -1.1104 0.969257 11.3388 23.3182
684 2 2.2208 5.27887 9.77199 24.8797
685 1 -1.1104 1.08642 5.53261 26.1152
686 1 -1.1104 0.945109 11.111 26.1944
689 1 -1.1104 3.80089 8.4304 23.3904
690 2 2.2208 2.25002 7.04828 24.6904
691 2 2.2208 2.26921 12.618 24.7915
692 1 -1.1104 3.72045 8.42312 26.1712
693 2 2.2208 2.39497 9.74508 22.1063
694 1 -1.1104 3.57841 5.54756 23.4127
695 1 -1.1104 3.89261 11.12 23.5208
696 1 -1.1104 3.81652 5.57095 26.1654
697 1 -1.1104 3.68859 11.3109 26.2444
683 1 -1.1104 6.59443 11.0004 23.3664
682 1 -1.1104 6.50682 5.49797 23.5128
688 1 -1.1104 6.63951 11.1646 26.1559
687 1 -1.1104 6.46938 5.53738 26.3319
677 1 -1.1104 6.72051 8.15657 23.4066
679 1 -1.1104 6.53914 8.28973 26.1828
394 2 2.2208 2.33419 9.83929 27.5386
608 1 -1.1104 12.1337 13.9874 23.347
379 2 2.2208 8.03359 21.0774 27.7301
539 1 -1.1104 9.46188 5.35211 20.7449
669 2 2.2208 7.91352 -4.32768 24.8297
728 2 2.2208 13.6178 6.84862 24.9111
726 2 2.2208 13.5335 12.5257 24.8793
445 2 2.2208 13.5896 9.80004 22.0661
527 1 -1.1104 12.1195 5.48224 20.7163
705 1 -1.1104 9.32493 11.0273 26.1447
706 1 -1.1104 9.34422 5.45157 26.2151
707 1 -1.1104 9.40743 11.1418 23.3326
708 1 -1.1104 9.23862 5.49122 23.415
709 2 2.2208 7.96102 9.71336 22.0195
710 1 -1.1104 9.23516 8.13479 26.3599
711 2 2.2208 8.06233 12.4563 24.9505
712 2 2.2208 7.96059 6.79062 24.7816
713 2 2.2208 10.7364 6.86416 22.116
714 2 2.2208 10.6845 12.5832 22.0263
715 1 -1.1104 12.1106 8.31865 23.4301
716 1 -1.1104 12.0879 8.44678 26.2823
717 1 -1.1104 12.2582 5.4695 23.4801
718 1 -1.1104 12.067 11.2464 23.6565
719 2 2.2208 10.6648 9.77087 24.8601
720 1 -1.1104 12.1731 5.57737 26.1544
721 1 -1.1104 12.009 11.2225 26.2973
722 1 -1.1104 9.4563 8.34136 23.4866
701 1 -1.1104 9.21672 16.7431 23.5908
668 2 2.2208 10.6616 -4.38122 21.9556
404 2 2.2208 5.21302 18.2111 27.818
635 1 -1.1104 12.0975 19.4942 26.2045
670 1 -1.1104 6.54908 19.6456 26.424
732 1 -1.1104 6.60108 16.7314 26.3903
747 1 -1.1104 6.51538 16.6893 23.4952
727 2 2.2208 2.37215 15.3661 21.9778
729 1 -1.1104 3.64891 19.648 23.3529
731 1 -1.1104 3.77835 14.0295 23.3804
733 1 -1.1104 0.804457 19.7461 26.217
734 1 -1.1104 0.817829 16.9116 26.2861
735 1 -1.1104 0.941015 14.1308 26.2905
737 2 2.2208 5.21664 21.0953 24.8822
738 2 2.2208 5.08289 15.321 24.9148
740 1 -1.1104 0.925485 19.5004 23.4237
741 1 -1.1104 0.973315 14.024 23.6002
742 2 2.2208 5.16051 18.1017 22.0872
743 1 -1.1104 3.61932 19.3471 26.3957
744 2 2.2208 2.37966 18.1976 24.7662
745 1 -1.1104 3.70127 16.658 26.1964
746 1 -1.1104 3.60729 14.0325 26.3449
748 1 -1.1104 1.1262 16.8285 23.3471
749 1 -1.1104 3.88648 16.8375 23.4831
750 2 2.2208 2.21677 20.9363 22.0031
739 1 -1.1104 6.48404 13.8112 23.4839
730 1 -1.1104 6.44217 13.9969 26.3745
736 1 -1.1104 6.72968 19.5469 23.4372
667 2 2.2208 7.92853 18.1421 25.0221
673 1 -1.1104 9.32911 13.8515 26.212
698 1 -1.1104 9.41312 19.5562 26.2716
378 2 2.2208 10.7637 18.1219 27.6903
641 2 2.2208 10.6858 21.0142 24.9015
607 2 2.2208 10.7041 18.0971 22.088
700 2 2.2208 7.92126 21.0136 22.0326
375 2 2.2208 13.4784 20.9168 27.6216
605 2 2.2208 13.5173 18.1587 24.7929
663 1 -1.1104 12.0419 16.7591 26.1726
704 1 -1.1104 9.27128 16.8183 26.4013
664 1 -1.1104 9.28147 13.976 23.5282
634 1 -1.1104 12.0515 13.8884 26.1684
606 2 2.2208 13.6168 21.0045 21.9659
638 2 2.2208 10.7027 15.4192 24.8518
398 2 2.2208 10.8772 7.01484 27.7
390 2 2.2208 10.6743 -4.40447 27.6545
373 2 2.2208 10.6806 15.3214 13.5879
365 2 2.2208 7.96603 12.4622 13.5399
364 2 2.2208 10.7222 9.64823 13.5432
393 2 2.2208 4.90078 6.94776 27.6133
391 2 2.2208 13.6571 -1.44455 27.6788
402 2 2.2208 13.5213 9.73572 27.6575
751 2 2.2208 5.07595 23.8776 5.32892
752 2 2.2208 5.20759 29.4345 5.30169
753 1 -1.1104 0.836655 25.2515 0.952776
754 1 -1.1104 0.804639 25.1653 3.75972
755 1 -1.1104 0.712882 22.4872 1.03887
756 1 -1.1104 0.82911 28.0087 1.04559
757 2 2.2208 5.07491 26.6193 2.45615
758 1 -1.1104 0.876756 22.4413 3.95002
759 1 -1.1104 0.917364 27.9004 3.70274
760 1 -1.1104 3.6492 25.2338 1.02818
761 2 2.2208 2.26805 23.7652 2.42663
762 2 2.2208 2.32048 29.4101 2.3273
763 1 -1.1104 3.70287 25.2454 3.90921
764 2 2.2208 2.38764 26.5429 5.1771
765 1 -1.1104 3.85819 22.4552 1.12717
766 1 -1.1104 3.65501 28.0325 0.836269
767 1 -1.1104 3.65523 22.4435 4.03842
768 1 -1.1104 3.69047 28.0865 3.7512
777 1 -1.1104 6.39431 27.9636 3.97359
774 1 -1.1104 6.54468 22.385 0.938157
772 1 -1.1104 6.5143 25.1222 0.986387
776 1 -1.1104 6.40564 22.4019 3.74508
775 1 -1.1104 6.32835 28.0778 1.17664
773 1 -1.1104 6.52149 25.2483 3.77333
900 1 -1.1104 3.80007 28.0292 6.64309
897 1 -1.1104 6.62335 27.9996 6.63739
892 1 -1.1104 0.859943 25.227 6.59349
898 1 -1.1104 3.6739 25.2017 6.56555
1680 1 -1.1104 6.77151 47.3305 9.51296
798 2 2.2208 13.5972 26.7268 5.27943
778 2 2.2208 10.73 23.776 5.19117
779 2 2.2208 10.7532 29.5163 5.25332
780 1 -1.1104 12.1686 25.2022 0.825143
781 1 -1.1104 12.0597 25.21 3.62196
782 1 -1.1104 12.1721 22.3271 1.03614
783 1 -1.1104 12.0683 28.0173 0.943727
784 2 2.2208 10.8131 26.6903 2.36247
785 1 -1.1104 12.1735 22.3027 3.80066
786 1 -1.1104 12.1505 27.9943 3.81001
787 1 -1.1104 9.3576 25.1562 0.720475
788 2 2.2208 7.9336 23.6619 2.47764
789 2 2.2208 7.90413 29.4346 2.42601
790 1 -1.1104 9.41176 25.2935 3.68831
791 2 2.2208 7.99056 26.7516 5.32146
792 1 -1.1104 9.45468 22.2581 1.19006
793 1 -1.1104 9.32161 27.9752 1.09012
794 1 -1.1104 9.29469 22.4657 3.9524
795 1 -1.1104 9.34869 28.0671 3.81951
797 2 2.2208 13.4701 29.5191 2.41899
796 2 2.2208 13.656 23.6965 2.43177
928 1 -1.1104 9.32436 25.2615 6.63135
930 1 -1.1104 9.42414 27.9751 6.69108
1067 2 2.2208 13.6583 37.8933 5.11558
1090 2 2.2208 7.98228 29.5146 13.609
890 2 2.2208 13.7162 46.24 2.61304
799 2 2.2208 5.04075 35.0293 5.20142
800 1 -1.1104 0.850618 31.0958 1.10569
801 1 -1.1104 0.932055 36.5438 1.06881
803 1 -1.1104 0.911133 30.6467 3.86531
804 1 -1.1104 1.03484 36.3661 3.91644
806 1 -1.1104 0.9745 33.7411 1.08431
807 2 2.2208 5.15772 32.2678 2.42887
808 2 2.2208 5.24363 37.8319 2.4666
809 1 -1.1104 0.819515 33.7562 3.85424
811 1 -1.1104 3.72247 30.8722 0.971279
812 1 -1.1104 3.69508 36.1763 0.887317
813 2 2.2208 2.35576 34.9304 2.39049
814 1 -1.1104 3.68836 30.9079 3.66946
815 1 -1.1104 3.88909 36.6259 3.8868
816 2 2.2208 2.2547 32.2941 5.10882
817 2 2.2208 2.40633 37.8603 5.2034
818 1 -1.1104 3.79804 33.5397 1.02993
819 1 -1.1104 3.63391 33.7065 3.74541
802 1 -1.1104 6.48874 36.4333 1.08012
825 1 -1.1104 6.59938 33.7007 1.01537
823 1 -1.1104 6.49779 30.8989 1.11259
805 1 -1.1104 6.62575 36.3357 3.83403
824 1 -1.1104 6.62869 30.6916 3.85632
810 1 -1.1104 6.35209 33.5914 3.77477
1084 1 -1.1104 12.3206 47.3626 6.41145
955 1 -1.1104 3.63985 30.8999 6.39552
951 1 -1.1104 6.59925 31.0819 6.49092
1098 2 2.2208 10.8401 32.3319 13.6244
870 2 2.2208 -0.362242 46.2646 5.24503
826 2 2.2208 10.7449 35.0451 5.3167
827 1 -1.1104 12.0697 30.7856 1.10977
828 1 -1.1104 12.1532 36.2913 0.998654
829 1 -1.1104 12.1268 30.8501 3.79024
830 1 -1.1104 12.1568 36.4212 3.83164
831 1 -1.1104 12.2627 33.518 0.95536
832 2 2.2208 10.7247 32.2018 2.52742
833 2 2.2208 10.7538 37.7992 2.3703
834 1 -1.1104 12.1396 33.7434 3.91357
835 1 -1.1104 9.25648 30.743 1.04227
836 1 -1.1104 9.25986 36.4202 1.01191
837 2 2.2208 7.92356 35.0177 2.43604
838 1 -1.1104 9.25145 30.8953 3.92849
839 1 -1.1104 9.3793 36.4174 3.76116
840 2 2.2208 8.00114 32.2979 5.21068
841 2 2.2208 8.0445 37.8409 5.23585
842 1 -1.1104 9.39957 33.5636 0.918493
843 1 -1.1104 9.47828 33.6128 3.81385
1068 2 2.2208 13.6113 32.1983 5.1518
844 2 2.2208 13.4936 34.8999 2.47574
983 1 -1.1104 12.2443 30.7599 6.4089
986 1 -1.1104 9.33764 30.7511 6.72861
1111 2 2.2208 13.6207 29.4353 13.6844