ITEM: TIMESTEP
100000
ITEM: NUMBER OF ATOMS
17640
ITEM: BOX BOUNDS pp pp pp
-3.5668629525688011e-01 2.7696686295257052e+01
-4.3194585312320006e+00 3.3239945853122367e+02
-3.5314494244900724e-01 2.7693144942449557e+01
ITEM: ATOMS id type q x y z
1 2 2.2208 5.27845 1.33385 5.35098
2 1 -1.1104 1.05476 -2.99711 1.10973
3 1 -1.1104 1.09832 2.70086 0.964447
6 1 -1.1104 0.97412 -2.96169 3.97475
7 1 -1.1104 0.967012 2.66095 3.89457
10 1 -1.1104 1.17198 -0.12144 1.10321
12 2 2.2208 5.26457 -1.43946 2.54811
13 2 2.2208 5.43237 4.07911 2.53174
14 1 -1.1104 1.01471 -0.270825 3.89393
16 1 -1.1104 3.89285 -2.90624 1.1122
17 1 -1.1104 3.83233 2.56646 1.00863
18 2 2.2208 2.52207 1.27275 2.52231
19 1 -1.1104 3.79676 -2.80611 3.84113
20 1 -1.1104 3.95222 2.71321 3.75414
21 2 2.2208 2.44653 -1.39671 5.32927
23 1 -1.1104 3.99338 -0.165088 1.09159
24 1 -1.1104 3.82464 -0.0620638 3.8625
22 2 2.2208 2.35409 4.06609 5.37991
204 2 2.2208 -0.349203 -4.42259 10.9039
231 2 2.2208 7.94553 -4.2412 8.04966
203 2 2.2208 5.23264 -4.42462 10.791
296 1 -1.1104 6.67502 19.4584 12.3235
25 2 2.2208 -0.426578 -1.58084 2.51473
290 1 -1.1104 6.70818 13.8262 9.60634
339 2 2.2208 13.7799 6.96807 8.16143
167 1 -1.1104 1.05601 2.65908 6.75941
170 1 -1.1104 0.828042 -0.0551624 6.6791
137 2 2.2208 -0.193023 18.0397 5.22468
9 1 -1.1104 6.67055 2.6372 4.04238
5 1 -1.1104 6.74477 2.62164 1.20963
4 1 -1.1104 6.81606 -3.06206 1.03333
15 1 -1.1104 6.68756 0.0377457 3.86491
8 1 -1.1104 6.59535 -2.92244 3.82465
11 1 -1.1104 6.67887 -0.139345 1.08715
31 2 2.2208 10.9321 1.29661 5.33198
32 1 -1.1104 12.2299 -2.87423 1.23791
33 1 -1.1104 12.1487 2.77643 0.987176
34 1 -1.1104 12.1952 -2.96788 4.05406
35 1 -1.1104 12.3705 2.95352 3.85588
36 1 -1.1104 12.395 -0.0292086 1.20765
37 2 2.2208 10.9016 -1.49884 2.4984
39 1 -1.1104 12.1903 -0.145797 3.88466
40 1 -1.1104 9.51929 -2.95585 1.13122
41 1 -1.1104 9.42404 2.83965 1.17413
42 2 2.2208 8.09278 1.3019 2.43635
43 1 -1.1104 9.41859 -2.86073 3.82595
44 1 -1.1104 9.51261 2.77848 4.08674
45 2 2.2208 8.01746 -1.519 5.25923
46 2 2.2208 8.10557 4.13898 5.15618
47 1 -1.1104 9.57523 0.00430627 1.10677
48 1 -1.1104 9.33206 0.00332004 4.01718
38 2 2.2208 10.9808 4.298 2.55035
205 1 -1.1104 12.1823 -2.89521 6.71391
210 1 -1.1104 9.34421 -0.245742 6.86703
209 1 -1.1104 9.4509 2.76725 6.81091
169 1 -1.1104 6.61658 2.82107 6.83223
168 1 -1.1104 6.55748 -3.01546 6.67128
206 1 -1.1104 12.3349 2.68483 6.74688
396 2 2.2208 -0.430544 12.5637 -0.343693
52 2 2.2208 10.7848 -4.2537 5.34485
54 2 2.2208 5.21161 6.88791 5.2285
55 2 2.2208 5.41358 12.4805 5.19975
56 1 -1.1104 1.03314 8.29331 1.02164
58 1 -1.1104 1.13598 8.23943 3.815
60 1 -1.1104 1.0576 5.46028 1.11111
61 1 -1.1104 1.30638 11.0422 0.982194
66 2 2.2208 5.43227 9.72162 2.40464
67 1 -1.1104 0.95003 5.31287 3.93399
68 1 -1.1104 1.10658 11.2067 3.78561
71 1 -1.1104 4.11673 8.29106 1.09223
72 2 2.2208 2.50701 6.84524 2.46797
73 2 2.2208 2.63382 12.5969 2.46423
74 1 -1.1104 3.8637 8.31244 3.80427
75 2 2.2208 2.34464 9.75881 5.20345
76 1 -1.1104 3.77807 5.48929 0.973361
77 1 -1.1104 4.05422 11.1131 1.14171
79 1 -1.1104 3.74921 5.48471 3.85564
80 1 -1.1104 3.90398 11.2198 3.92183
29 2 2.2208 5.21516 -4.32888 5.19465
82 2 2.2208 -0.344743 9.65248 2.4879
81 2 2.2208 -0.336153 6.95641 5.27913
78 1 -1.1104 3.82962 11.0537 6.654
338 2 2.2208 13.6781 4.05458 11.0076
50 2 2.2208 13.6229 -1.57092 5.31802
83 2 2.2208 -0.242308 12.5852 5.24456
69 1 -1.1104 6.5833 5.50113 3.795
70 1 -1.1104 6.91053 11.0187 3.86864
64 1 -1.1104 6.87608 11.1577 1.08371
57 1 -1.1104 6.79154 8.36927 1.01857
63 1 -1.1104 6.67257 5.49832 1.10246
59 1 -1.1104 6.7085 8.21892 3.8767
84 2 2.2208 10.949 6.94114 5.33793
85 2 2.2208 10.9581 12.6139 5.26857
86 1 -1.1104 12.456 8.41523 1.03125
87 1 -1.1104 12.3547 8.40547 3.86424
88 1 -1.1104 12.2633 5.65216 1.21419
89 1 -1.1104 12.3882 11.1216 0.994387
91 2 2.2208 11.0078 9.7062 2.43087
92 1 -1.1104 12.2501 5.7314 4.03084
93 1 -1.1104 12.4096 11.133 3.74012
94 1 -1.1104 9.55439 8.34495 1.05003
95 2 2.2208 8.13351 6.89 2.45868
96 2 2.2208 8.17073 12.4389 2.56759
97 1 -1.1104 9.4082 8.29919 3.89919
98 2 2.2208 8.07128 9.65032 5.31608
99 1 -1.1104 9.50915 5.58411 1.00303
100 1 -1.1104 9.6234 11.0563 1.08112
102 1 -1.1104 9.37738 5.57129 3.86148
103 1 -1.1104 9.63865 11.2556 3.88605
266 1 -1.1104 12.4108 5.58102 6.73423
101 1 -1.1104 9.56497 11.1107 6.51902
235 1 -1.1104 6.79428 8.31216 6.6541
65 1 -1.1104 6.66303 11.0949 6.71381
269 1 -1.1104 9.47771 5.45106 6.61275
90 1 -1.1104 12.4039 11.2445 6.71242
397 2 2.2208 -0.309462 6.76974 -0.310335
403 2 2.2208 2.54083 15.1898 -0.29208
135 2 2.2208 -0.113551 15.2899 2.45904
106 2 2.2208 5.3749 18.25 5.24343
107 1 -1.1104 1.14014 13.9238 1.19099
109 1 -1.1104 1.20906 19.5527 1.05403
113 1 -1.1104 1.26686 13.9033 3.96235
114 1 -1.1104 1.13608 19.529 3.82671
116 1 -1.1104 1.07951 16.7071 1.07643
119 2 2.2208 5.52331 15.3676 2.67785
120 2 2.2208 5.37044 20.9447 2.43576
121 1 -1.1104 1.29545 16.8083 3.98959
123 1 -1.1104 4.09399 13.9545 1.11814
125 1 -1.1104 3.91384 19.5295 1.27659
127 2 2.2208 2.6051 18.1172 2.46988
128 1 -1.1104 3.99237 14.0279 3.84549
129 1 -1.1104 3.99438 19.5739 3.97392
130 2 2.2208 2.63421 15.3331 5.45284
131 2 2.2208 2.52804 20.9648 5.22955
132 1 -1.1104 4.01328 16.6852 1.11171
134 1 -1.1104 4.04744 16.8618 4.08059
136 2 2.2208 -0.381877 20.9063 2.55235
51 2 2.2208 8.1186 -4.25231 2.43701
133 1 -1.1104 4.05149 16.7845 6.80599
126 1 -1.1104 4.04566 19.4768 6.72621
117 1 -1.1104 1.15672 16.8844 6.72017
143 1 -1.1104 12.4076 13.9169 6.67436
156 1 -1.1104 9.63603 19.3613 6.74537
138 1 -1.1104 6.73997 19.4918 0.940755
122 1 -1.1104 6.67684 16.7893 3.96451
115 1 -1.1104 6.75459 14.0117 3.96062
140 1 -1.1104 6.88492 16.5885 1.05804
110 1 -1.1104 6.75222 13.9597 1.28459
139 1 -1.1104 6.82023 19.5553 3.73287
141 2 2.2208 11.0033 17.9909 5.24137
142 1 -1.1104 12.5463 13.8295 1.06346
144 1 -1.1104 12.3121 19.4892 1.01641
146 1 -1.1104 12.244 13.9361 3.76851
147 1 -1.1104 12.2782 19.6392 3.86881
148 1 -1.1104 12.2942 16.5984 0.979598
150 2 2.2208 10.952 15.2515 2.40372
151 2 2.2208 10.9718 20.8472 2.51258
152 1 -1.1104 12.45 16.7311 3.91507
153 1 -1.1104 9.59588 13.8077 1.06736
155 1 -1.1104 9.56793 19.569 1.0462
157 2 2.2208 8.17807 18.0922 2.46616
158 1 -1.1104 9.48475 14.0371 3.93191
159 1 -1.1104 9.64068 19.4987 3.9817
160 2 2.2208 8.14157 15.3689 5.30908
161 2 2.2208 8.20011 20.8746 5.18933
162 1 -1.1104 9.61865 16.7861 1.03764
164 1 -1.1104 9.57656 16.8476 3.78719
111 1 -1.1104 6.8061 14.0021 6.74931
118 1 -1.1104 6.93211 16.6774 6.6416
149 1 -1.1104 12.4561 16.5902 6.66168
145 1 -1.1104 12.3726 19.4751 6.64912
154 1 -1.1104 9.48483 13.9222 6.70823
324 2 2.2208 10.8739 20.8341 8.0356
201 2 2.2208 -0.426434 1.34964 10.933
163 1 -1.1104 9.62687 16.6436 6.56897
173 1 -1.1104 3.7881 2.61925 6.59266
172 1 -1.1104 3.90721 -2.86665 6.67873
166 1 -1.1104 1.02986 -2.88784 6.65132
174 1 -1.1104 3.67965 -0.116561 6.79074
199 2 2.2208 -0.357269 4.12401 8.08081
200 2 2.2208 -0.422456 -1.59911 8.02518
175 2 2.2208 5.24746 1.24457 10.9077
176 1 -1.1104 0.969525 -3.02245 12.4368
177 1 -1.1104 0.961838 2.75902 12.227
180 1 -1.1104 0.916583 -2.95932 9.43626
181 1 -1.1104 1.00081 2.74361 9.46988
184 1 -1.1104 1.02411 -0.160305 12.1613
186 2 2.2208 5.20632 -1.59701 8.09785
187 2 2.2208 5.23431 4.15371 8.14209
188 1 -1.1104 0.909096 -0.103671 9.6651
190 1 -1.1104 3.80806 -2.9775 12.3677
191 1 -1.1104 3.95442 2.835 12.2337
192 2 2.2208 2.45561 1.39645 8.12288
193 1 -1.1104 3.83828 -2.93596 9.49961
194 1 -1.1104 3.8226 2.84151 9.64635
195 2 2.2208 2.43039 -1.59286 11.0106
196 2 2.2208 2.43841 4.24062 10.8226
197 1 -1.1104 3.83001 -0.122905 12.3018
198 1 -1.1104 3.7609 -0.0584298 9.45772
232 2 2.2208 10.9358 -4.30575 10.9138
208 1 -1.1104 9.41962 -2.86873 6.63511
207 1 -1.1104 12.2818 -0.0922772 6.70709
171 1 -1.1104 6.59934 -0.196392 6.63248
183 1 -1.1104 6.67896 2.49615 9.56458
179 1 -1.1104 6.70821 2.79866 12.368
189 1 -1.1104 6.58573 -0.140282 9.41305
185 1 -1.1104 6.75086 -0.0971941 12.2395
182 1 -1.1104 6.55105 -2.9511 9.50551
178 1 -1.1104 6.58449 -2.78004 12.3382
211 2 2.2208 10.7794 1.42906 10.9105
212 1 -1.1104 12.326 -2.95295 12.341
213 1 -1.1104 12.1949 2.67183 12.4241
214 1 -1.1104 12.2334 -2.9352 9.58425
215 1 -1.1104 12.2703 2.75499 9.56374
216 1 -1.1104 12.2645 -0.0182578 12.4589
217 2 2.2208 10.6224 -1.63805 8.19788
219 1 -1.1104 12.0735 -0.179823 9.49981
220 1 -1.1104 9.65846 -2.80877 12.3162
221 1 -1.1104 9.52897 2.7737 12.3802
222 2 2.2208 8.05374 1.29214 8.08231
223 1 -1.1104 9.36282 -3.12833 9.67834
224 1 -1.1104 9.43941 2.64721 9.51027
225 2 2.2208 8.09213 -1.46758 11.0292
226 2 2.2208 8.00735 4.14024 10.922
227 1 -1.1104 9.52319 -0.0452358 12.4265
228 1 -1.1104 9.36265 -0.0285733 9.53549
218 2 2.2208 10.8511 4.18766 8.06189
62 1 -1.1104 1.22855 11.1244 6.79088
236 1 -1.1104 1.03717 5.47337 6.80632
234 1 -1.1104 1.09021 8.30651 6.59415
239 1 -1.1104 3.88972 5.52286 6.72314
388 2 2.2208 8.18459 -1.5379 -0.432433
238 1 -1.1104 3.92408 8.2103 6.82415
240 2 2.2208 5.22974 6.89608 10.9106
241 2 2.2208 5.32201 12.4892 10.87
242 1 -1.1104 1.04319 8.29194 12.2464
244 1 -1.1104 1.15712 8.42805 9.63956
246 1 -1.1104 1.07711 5.43853 12.3491
247 1 -1.1104 1.10395 11.1908 12.4741
250 2 2.2208 5.26704 9.67071 8.07943
251 1 -1.1104 1.10944 5.73761 9.48508
252 1 -1.1104 1.08383 11.0516 9.62706
255 1 -1.1104 3.75937 8.34013 12.3963
256 2 2.2208 2.54977 6.98461 8.23379
257 2 2.2208 2.5763 12.4184 8.07968
258 1 -1.1104 4.0132 8.41842 9.51585
259 2 2.2208 2.44825 9.74492 10.9602
260 1 -1.1104 3.68147 5.64586 12.1482
261 1 -1.1104 3.98288 11.1329 12.4188
262 1 -1.1104 3.92471 5.53669 9.38788
263 1 -1.1104 3.87294 11.1617 9.42605
342 2 2.2208 -0.248627 12.5667 11.025
343 2 2.2208 -0.328393 9.63389 8.27018
267 1 -1.1104 9.64756 8.2905 6.67301
237 1 -1.1104 6.63756 5.61095 6.70528
245 1 -1.1104 6.72269 8.17803 9.49845
253 1 -1.1104 6.73438 5.44035 9.5255
254 1 -1.1104 6.63985 10.9208 9.51112
265 1 -1.1104 12.2925 8.33633 6.60827
248 1 -1.1104 6.51673 5.54651 12.2737
249 1 -1.1104 6.89881 11.0523 12.1769
243 1 -1.1104 6.67077 8.30207 12.2291
283 1 -1.1104 12.209 5.56287 9.53583
282 2 2.2208 10.9882 9.66461 8.02365
280 1 -1.1104 12.0802 5.3966 12.2687
285 1 -1.1104 9.6784 8.32628 12.3267
284 1 -1.1104 12.3129 11.0735 9.48318
281 1 -1.1104 12.3133 10.9604 12.1562
264 1 -1.1104 9.60236 11.1844 9.34094
268 1 -1.1104 9.43391 5.56027 9.41973
270 1 -1.1104 9.60359 10.9747 12.3491
271 1 -1.1104 9.34006 5.65531 12.346
272 2 2.2208 8.17323 9.6368 10.9622
273 1 -1.1104 9.56878 8.37795 9.47421
274 2 2.2208 8.1394 12.5534 8.09297
275 2 2.2208 8.06668 6.83354 7.99818
276 2 2.2208 10.93 6.97225 10.715
277 2 2.2208 10.9875 12.5009 10.8531
278 1 -1.1104 12.4716 8.21433 12.3261
279 1 -1.1104 12.3352 8.35495 9.40588
327 1 -1.1104 12.3589 19.3997 9.36422
322 1 -1.1104 9.608 13.8749 12.3101
302 1 -1.1104 1.21256 19.6448 6.5684
108 1 -1.1104 1.14392 13.977 6.71264
320 2 2.2208 8.24244 17.9824 8.01986
313 2 2.2208 -0.191444 15.3329 8.23737
311 2 2.2208 -0.358787 20.8627 8.098
312 2 2.2208 -0.285061 18.0718 10.8382
124 1 -1.1104 4.01193 13.9267 6.73304
310 2 2.2208 2.61707 15.2784 10.94
309 2 2.2208 2.47995 20.951 10.8943
308 1 -1.1104 3.98056 16.5298 12.3977
307 1 -1.1104 1.18311 16.6415 12.3396
286 1 -1.1104 3.97962 19.5313 12.2107
305 1 -1.1104 3.91939 13.9483 9.53049
304 1 -1.1104 3.90048 16.771 9.50852
303 2 2.2208 2.45733 18.1198 8.09387
301 1 -1.1104 3.7978 19.6176 9.5015
300 2 2.2208 5.35796 18.0577 11.0234
299 1 -1.1104 1.20844 13.8618 12.3823
298 1 -1.1104 1.09512 19.4655 12.2554
295 2 2.2208 5.36199 15.358 8.13307
294 1 -1.1104 1.15628 13.8036 9.64309
293 2 2.2208 5.35882 20.8764 8.11861
292 1 -1.1104 1.20589 16.7041 9.64324
291 1 -1.1104 1.04123 19.4262 9.48097
287 1 -1.1104 3.90987 13.7551 12.2806
317 2 2.2208 8.24227 15.276 10.8339
330 1 -1.1104 12.2681 13.9134 12.2249
319 1 -1.1104 9.69401 14.006 9.4994
306 1 -1.1104 6.77925 16.5227 12.2851
288 1 -1.1104 6.76108 19.4481 9.63575
289 1 -1.1104 6.84108 16.6106 9.45345
318 1 -1.1104 9.5809 19.4395 9.57128
321 1 -1.1104 9.44588 19.5233 12.4399
315 1 -1.1104 9.53745 16.707 12.1587
325 2 2.2208 11.0673 15.2518 8.06575
326 1 -1.1104 12.3374 16.6338 12.2185
328 1 -1.1104 12.4642 13.8977 9.45812
316 2 2.2208 8.18699 20.8992 10.9137
112 1 -1.1104 6.84195 19.5836 6.68114
297 1 -1.1104 6.84566 13.8887 12.4401
323 1 -1.1104 12.3887 16.7061 9.47678
329 1 -1.1104 12.1885 19.5293 12.2831
331 2 2.2208 11.0118 18.0762 10.803
314 1 -1.1104 9.62198 16.7876 9.30905
350 2 2.2208 -0.194197 20.8518 13.7241
353 2 2.2208 8.16342 -4.29916 13.7266
369 2 2.2208 5.36734 20.8402 13.553
364 2 2.2208 10.9734 9.52816 13.5984
351 2 2.2208 -0.281542 15.2307 13.8077
379 2 2.2208 8.18865 20.9113 -0.285734
405 2 2.2208 2.57268 20.8686 -0.343659
394 2 2.2208 2.51745 9.62042 -0.348635
387 2 2.2208 10.9328 1.36291 -0.292584
382 2 2.2208 2.49802 -1.49643 -0.318266
404 2 2.2208 5.4569 18.1828 -0.294192
372 2 2.2208 10.989 20.8797 13.6735
381 2 2.2208 5.3971 1.21343 -0.272536
386 2 2.2208 -0.287274 1.38328 -0.355752
373 2 2.2208 10.9363 15.3348 13.6979
395 2 2.2208 5.47975 12.6209 -0.259746
389 2 2.2208 8.04328 4.21411 -0.367955
361 2 2.2208 2.56239 12.4863 13.9379
406 2 2.2208 5.31106 1.25353 16.4906
407 1 -1.1104 1.00222 -2.96325 17.8723
408 1 -1.1104 0.872756 2.72845 17.7776
411 1 -1.1104 1.00958 -2.69237 15.124
413 1 -1.1104 0.982666 2.68735 15.0832
419 1 -1.1104 1.18199 -0.0847828 18.0263
421 2 2.2208 5.26319 -1.59543 19.3763
422 2 2.2208 5.18679 3.98991 19.3267
423 1 -1.1104 0.978841 -0.0426981 14.988
427 1 -1.1104 3.85227 -2.85391 17.8651
428 1 -1.1104 3.79453 2.633 17.9508
429 2 2.2208 2.36764 1.31588 19.3365
430 1 -1.1104 3.76847 -3.00941 15.1372
432 1 -1.1104 3.75826 2.47704 15.044
434 2 2.2208 2.41681 -1.58423 16.573
436 1 -1.1104 3.82497 -0.0470735 17.8065
437 1 -1.1104 3.95394 -0.138816 15.1058
435 2 2.2208 2.50611 4.06103 16.5664
348 2 2.2208 5.21687 -1.45321 13.7842
672 2 2.2208 13.6513 1.25829 25.0482
447 2 2.2208 -0.268929 17.9823 16.6251
544 2 2.2208 -0.406912 4.0469 19.3179
360 2 2.2208 5.24509 9.73806 13.6242
642 2 2.2208 -0.328785 -1.55354 24.9737
639 2 2.2208 5.35986 -4.32935 22.1561
667 2 2.2208 8.20567 18.2227 24.8757
431 1 -1.1104 3.80281 -2.97178 20.7946
433 1 -1.1104 3.70577 2.63813 20.8184
412 1 -1.1104 1.09691 -3.06879 20.6742
480 2 2.2208 13.796 15.1661 16.4707
365 2 2.2208 8.0383 12.4324 13.6268
376 2 2.2208 8.03295 17.9891 13.574
698 1 -1.1104 9.72637 19.4146 26.3285
410 1 -1.1104 6.78716 2.69061 17.8499
415 1 -1.1104 6.61367 -3.08408 15.0604
420 1 -1.1104 6.76719 -0.0563365 17.8205
409 1 -1.1104 6.77377 -2.91183 18.016
425 1 -1.1104 6.73164 -0.22018 14.9706
417 1 -1.1104 6.66514 2.62479 15.1689
449 2 2.2208 10.936 1.30891 16.4987
450 1 -1.1104 12.2146 -3.12406 18.0175
451 1 -1.1104 12.4348 2.84028 18.0685
452 1 -1.1104 12.3124 -2.99399 15.2849
454 1 -1.1104 12.417 2.62174 15.2988
456 1 -1.1104 12.2861 -0.126809 17.9248
457 2 2.2208 10.8893 -1.55915 19.366
458 2 2.2208 11.0326 4.09995 19.4194
459 1 -1.1104 12.4359 -0.182884 15.172
461 1 -1.1104 9.53454 -2.91301 18.0237
462 1 -1.1104 9.59931 2.58645 18.0868
463 2 2.2208 8.14717 1.37869 19.3499
464 1 -1.1104 9.45586 -3.04272 15.2762
466 1 -1.1104 9.53269 2.606 15.1674
468 2 2.2208 8.19469 -1.59936 16.6064
469 2 2.2208 8.16664 4.11647 16.5916
470 1 -1.1104 9.48528 -0.190847 18.0056
471 1 -1.1104 9.53073 -0.142193 15.2204
640 2 2.2208 2.5347 -4.40656 24.9599
426 1 -1.1104 6.7464 0.00810451 20.7577
472 1 -1.1104 9.54144 -0.255757 20.8036
465 1 -1.1104 9.5676 -3.00575 20.7024
357 2 2.2208 10.8723 4.16126 13.715
349 2 2.2208 2.35599 1.32718 13.6367
515 2 2.2208 -0.262115 9.68995 19.2947
516 2 2.2208 -0.311376 12.513 16.5528
482 2 2.2208 5.30818 6.92401 16.4174
483 2 2.2208 5.33055 12.352 16.4501
484 1 -1.1104 1.13022 8.20778 17.8616
486 1 -1.1104 1.01005 8.15963 15.1255
490 1 -1.1104 1.13815 5.54793 18.0822
491 1 -1.1104 1.06132 11.1045 17.8276
494 2 2.2208 5.27361 9.65262 19.4077
495 1 -1.1104 0.955428 5.38175 15.0805
497 1 -1.1104 1.13712 11.0231 15.2566
503 1 -1.1104 4.02504 8.11161 18.008
504 2 2.2208 2.56562 6.87013 19.3247
505 2 2.2208 2.37692 12.3757 19.3682
506 1 -1.1104 3.9292 8.2751 15.0859
508 2 2.2208 2.5502 9.6771 16.5445
509 1 -1.1104 3.83739 5.33007 17.9563
510 1 -1.1104 3.89866 11.0023 18.1072
511 1 -1.1104 3.75145 5.43679 15.0239
513 1 -1.1104 3.89937 11.1798 15.2433
481 2 2.2208 -0.392327 6.83674 16.469
514 1 -1.1104 3.79155 11.1852 20.7557
507 1 -1.1104 3.90731 8.27848 20.6337
498 1 -1.1104 1.10954 11.1284 20.8071
496 1 -1.1104 1.04072 5.42381 20.8685
512 1 -1.1104 3.89769 5.33768 20.7456
597 1 -1.1104 9.68649 13.7669 20.852
359 2 2.2208 2.39703 6.84786 13.7538
585 1 -1.1104 12.4234 13.7968 20.7525
669 2 2.2208 8.23686 -4.36732 24.8877
599 1 -1.1104 9.70051 19.4011 20.6153
488 1 -1.1104 6.56712 8.38333 14.925
501 1 -1.1104 6.6742 11.1951 15.0088
499 1 -1.1104 6.61472 5.37859 15.2609
492 1 -1.1104 6.69921 5.46514 17.9684
493 1 -1.1104 6.6665 11.0172 17.7518
485 1 -1.1104 6.87277 8.12939 17.8909
518 2 2.2208 10.9428 6.90346 16.5522
519 2 2.2208 10.8643 12.5384 16.4879
520 1 -1.1104 12.3974 8.32471 17.8876
521 1 -1.1104 12.3566 8.18622 15.1176
523 1 -1.1104 12.3884 5.57531 17.9827
524 1 -1.1104 12.375 10.9931 17.7612
525 2 2.2208 10.9359 9.69537 19.2449
526 1 -1.1104 12.3177 5.57285 14.9758
528 1 -1.1104 12.4006 11.0371 15.1244
530 1 -1.1104 9.53423 8.30108 17.8733
531 2 2.2208 8.06389 6.84542 19.3527
532 2 2.2208 8.17604 12.371 19.32
533 1 -1.1104 9.55505 8.32779 15.0266
535 2 2.2208 8.13272 9.5899 16.5231
536 1 -1.1104 9.65816 5.53022 17.8739
537 1 -1.1104 9.43168 11.0552 17.9616
538 1 -1.1104 9.42421 5.40013 15.2046
540 1 -1.1104 9.5325 11.1453 15.2545
500 1 -1.1104 6.57113 5.39685 20.7187
529 1 -1.1104 12.2956 10.9631 20.7095
489 1 -1.1104 6.59486 8.13091 20.6675
539 1 -1.1104 9.47384 5.56473 20.6089
448 2 2.2208 -0.190986 15.2404 19.332
363 2 2.2208 8.0488 7.02257 13.6126
355 2 2.2208 8.06309 1.36436 13.8173
368 2 2.2208 2.50589 17.9649 13.6193
367 2 2.2208 -0.30545 4.13785 13.7352
545 2 2.2208 5.32678 18.0999 16.4746
546 1 -1.1104 1.30822 13.8299 17.9457
547 1 -1.1104 1.1011 19.4683 18.0355
550 1 -1.1104 1.17045 13.8115 15.1532
552 1 -1.1104 1.04703 19.4517 15.0574
558 1 -1.1104 1.24953 16.5783 17.8003
560 2 2.2208 5.33748 15.1006 19.3691
561 2 2.2208 5.37491 20.8457 19.3359
562 1 -1.1104 1.17683 16.5905 14.9578
566 1 -1.1104 3.97336 13.9234 17.8644
567 1 -1.1104 3.88548 19.6485 17.7459
568 2 2.2208 2.57686 18.0592 19.2363
569 1 -1.1104 4.0412 13.8762 15.0007
571 1 -1.1104 3.96206 19.4507 14.8614
573 2 2.2208 2.63018 15.2565 16.4215
574 2 2.2208 2.55281 20.8834 16.2614
575 1 -1.1104 3.91665 16.7915 17.8669
576 1 -1.1104 3.88149 16.662 15.1846
476 2 2.2208 -0.116223 20.9613 19.3599
577 1 -1.1104 4.00498 16.7034 20.707
563 1 -1.1104 1.14743 16.5893 20.651
572 1 -1.1104 4.04356 19.4133 20.7081
555 1 -1.1104 6.84866 13.8735 20.691
556 1 -1.1104 6.7357 19.3726 15.0451
554 1 -1.1104 6.8238 13.764 15.2366
549 1 -1.1104 6.62028 19.4349 17.8431
548 1 -1.1104 6.7095 13.7063 18.0077
559 1 -1.1104 6.70427 16.584 17.942
564 1 -1.1104 6.65348 16.5519 15.1944
581 2 2.2208 10.8922 18.0669 16.399
582 1 -1.1104 12.2794 13.7839 17.9853
583 1 -1.1104 12.3026 19.2789 17.8144
584 1 -1.1104 12.4218 13.8846 15.1091
586 1 -1.1104 12.4357 19.392 15.0692
588 1 -1.1104 12.3156 16.5577 17.8261
589 2 2.2208 10.9972 15.2408 19.3374
590 2 2.2208 10.9189 20.8518 19.2411
591 1 -1.1104 12.295 16.5348 15.0105
593 1 -1.1104 9.4911 13.7943 17.8525
594 1 -1.1104 9.58082 19.4493 17.8761
595 2 2.2208 8.1906 18.0586 19.2882
596 1 -1.1104 9.60808 13.8181 14.9329
598 1 -1.1104 9.47416 19.3818 14.9933
600 2 2.2208 8.10236 15.2121 16.5257
601 2 2.2208 8.10738 20.8355 16.4105
602 1 -1.1104 9.44 16.677 17.8507
603 1 -1.1104 9.59795 16.678 14.9753
587 1 -1.1104 12.469 19.3206 20.6226
604 1 -1.1104 9.69309 16.647 20.6201
565 1 -1.1104 6.86428 16.681 20.6861
443 2 2.2208 -0.261172 -1.64411 19.3248
699 2 2.2208 8.17369 15.2527 22.1745
414 1 -1.1104 0.895103 2.64363 20.6508
424 1 -1.1104 1.15067 -0.285646 20.9137
438 1 -1.1104 3.90403 -0.259727 20.6829
609 2 2.2208 5.29345 1.34225 22.1465
610 1 -1.1104 1.04947 -3.04704 23.576
611 1 -1.1104 1.0734 2.52253 23.583
614 1 -1.1104 1.12991 -2.83561 26.3583
615 1 -1.1104 1.08871 2.71345 26.1845
618 1 -1.1104 1.21384 -0.272571 23.5558
620 2 2.2208 5.28106 -1.47489 24.9372
621 2 2.2208 5.30604 4.06128 24.9495
622 1 -1.1104 0.932871 -0.0660057 26.2892
624 1 -1.1104 3.72033 -2.81825 23.7023
625 1 -1.1104 3.93456 2.70989 23.6422
626 2 2.2208 2.5096 1.18304 24.9748
627 1 -1.1104 3.82241 -3.09539 26.4049
628 1 -1.1104 3.93863 2.47382 26.3117
629 2 2.2208 2.49779 -1.55161 22.1924
630 2 2.2208 2.57167 4.08052 22.2246
631 1 -1.1104 3.96885 -0.173246 23.4204
632 1 -1.1104 3.82977 -0.333049 26.4277
643 2 2.2208 -0.352332 1.37991 22.0398
644 2 2.2208 -0.277022 4.0784 24.7925
474 2 2.2208 10.9003 -4.45081 16.5887
613 1 -1.1104 6.67757 2.81245 23.4331
619 1 -1.1104 6.74385 0.0327683 23.4903
664 1 -1.1104 9.56223 14.0545 23.6072
723 2 2.2208 -0.213801 18.0734 22.0576
701 1 -1.1104 9.7371 16.6614 23.4159
455 1 -1.1104 12.2496 2.55594 20.7662
460 1 -1.1104 12.4562 -0.0391063 20.8253
418 1 -1.1104 6.74989 2.7462 20.764
467 1 -1.1104 9.48123 2.65132 20.7581
416 1 -1.1104 6.75992 -2.90573 20.7572
453 1 -1.1104 12.38 -2.90341 20.8243
616 1 -1.1104 6.86911 -3.00151 26.3463
623 1 -1.1104 6.76992 0.0133698 26.2271
617 1 -1.1104 6.74787 2.77977 26.3284
612 1 -1.1104 6.57667 -2.9239 23.6117
645 2 2.2208 10.8979 1.23384 22.1201
646 1 -1.1104 12.3185 -2.86002 23.5973
647 1 -1.1104 12.3173 2.77787 23.5654
648 1 -1.1104 12.3109 -3.00078 26.2467
649 1 -1.1104 12.2277 2.62949 26.2966
650 1 -1.1104 12.286 -0.0781587 23.6509
651 2 2.2208 10.8796 -1.44719 25.0068
653 1 -1.1104 12.2422 -0.141843 26.5375
654 1 -1.1104 9.37617 -2.92245 23.5708
655 1 -1.1104 9.54461 2.65761 23.5506
656 2 2.2208 8.11654 1.50884 24.9912
657 1 -1.1104 9.64639 -2.89969 26.3676
658 1 -1.1104 9.46501 2.93233 26.3334
659 2 2.2208 8.03572 -1.48145 22.1457
660 2 2.2208 8.12778 4.19664 22.0177
661 1 -1.1104 9.55973 -0.187736 23.5727
662 1 -1.1104 9.56285 0.114442 26.3291
652 2 2.2208 10.8499 4.09857 24.8871
592 1 -1.1104 12.3898 16.6398 20.661
703 2 2.2208 -0.230433 12.4314 22.1744
607 2 2.2208 11.1162 18.058 22.115
487 1 -1.1104 1.05169 8.37075 20.7809
674 2 2.2208 5.35453 6.85748 22.1594
675 2 2.2208 5.35533 12.4472 22.2146
676 1 -1.1104 1.08544 8.21643 23.5486
678 1 -1.1104 1.15572 8.26814 26.3269
680 1 -1.1104 1.27834 5.48785 23.7197
681 1 -1.1104 1.12098 10.9731 23.5264
684 2 2.2208 5.34868 9.78187 24.9902
685 1 -1.1104 1.10916 5.4516 26.4061
686 1 -1.1104 1.30981 11.0165 26.2223
689 1 -1.1104 3.88483 8.23312 23.5056
690 2 2.2208 2.54407 6.95092 24.9453
691 2 2.2208 2.54301 12.4955 25.0177
692 1 -1.1104 4.00913 8.22149 26.3433
693 2 2.2208 2.48391 9.62583 22.1958
694 1 -1.1104 3.92683 5.52681 23.4996
695 1 -1.1104 3.92177 11.0808 23.5509
696 1 -1.1104 3.89071 5.32441 26.2479
697 1 -1.1104 3.92428 11.0282 26.3022
636 1 -1.1104 12.473 16.7161 23.3891
739 1 -1.1104 6.7477 13.9153 23.6026
557 1 -1.1104 6.86928 19.4578 20.6194
638 2 2.2208 11.1126 15.2872 24.8419
502 1 -1.1104 6.63845 11.0259 20.7902
541 1 -1.1104 9.36662 11.0828 20.6763
522 1 -1.1104 12.3597 8.26602 20.725
527 1 -1.1104 12.3561 5.51395 20.8424
534 1 -1.1104 9.26864 8.33232 20.7574
688 1 -1.1104 6.68424 11.3476 26.3676
687 1 -1.1104 6.87585 5.63626 26.3259
683 1 -1.1104 6.88128 11.1296 23.599
677 1 -1.1104 6.8285 8.46348 23.6376
679 1 -1.1104 6.89427 8.56309 26.2591
682 1 -1.1104 6.84723 5.71585 23.4763
705 1 -1.1104 9.53244 11.228 26.2657
706 1 -1.1104 9.53626 5.66761 26.2832
707 1 -1.1104 9.63417 11.1106 23.5458
708 1 -1.1104 9.58959 5.41582 23.3505
709 2 2.2208 8.19901 9.72258 22.2008
710 1 -1.1104 9.66522 8.32154 26.2808
711 2 2.2208 8.22695 12.656 24.961
712 2 2.2208 8.28993 7.01312 24.9845
713 2 2.2208 10.8766 6.9555 22.1674
714 2 2.2208 10.9905 12.5042 22.1335
715 1 -1.1104 12.4026 8.20887 23.4401
716 1 -1.1104 12.4656 8.3453 26.2886
717 1 -1.1104 12.353 5.57422 23.5127
718 1 -1.1104 12.3518 11.1308 23.58
719 2 2.2208 11.0716 9.72919 24.8543
720 1 -1.1104 12.2707 5.48279 26.2929
721 1 -1.1104 12.4719 11.1179 26.2271
722 1 -1.1104 9.55393 8.35447 23.5962
700 2 2.2208 8.21863 20.768 22.1908
663 1 -1.1104 12.3607 16.6526 26.1511
725 2 2.2208 -0.242418 15.3335 24.8613
551 1 -1.1104 1.05189 13.8873 20.8295
553 1 -1.1104 1.15724 19.3677 20.8432
633 1 -1.1104 12.4101 19.5612 23.4572
570 1 -1.1104 3.95722 13.983 20.9199
727 2 2.2208 2.55656 15.2175 22.1989
729 1 -1.1104 3.96832 19.363 23.5658
731 1 -1.1104 3.98986 13.7686 23.6026
733 1 -1.1104 1.13435 19.6032 26.3915
734 1 -1.1104 1.08109 16.8098 26.3491
735 1 -1.1104 1.09332 13.819 26.5046
737 2 2.2208 5.39494 20.96 24.9636
738 2 2.2208 5.35754 15.3478 24.8796
740 1 -1.1104 1.08088 19.4547 23.637
741 1 -1.1104 1.15727 13.9249 23.6518
742 2 2.2208 5.39331 17.9658 22.095
743 1 -1.1104 4.08869 19.4704 26.3931
744 2 2.2208 2.60227 17.9721 24.9158
745 1 -1.1104 3.86452 16.5282 26.2572
746 1 -1.1104 3.90385 13.7493 26.3428
748 1 -1.1104 1.16233 16.7102 23.5307
749 1 -1.1104 3.98924 16.6281 23.5066
750 2 2.2208 2.63583 20.735 22.1917
724 2 2.2208 -0.189114 20.9402 24.9321
704 1 -1.1104 9.45271 16.8562 26.217
641 2 2.2208 10.9085 20.9141 24.8933
635 1 -1.1104 12.4263 19.4897 26.2326
670 1 -1.1104 6.95177 19.6131 26.1773
730 1 -1.1104 6.89616 14.0739 26.4484
747 1 -1.1104 6.72477 16.6804 23.4619
608 1 -1.1104 12.6161 13.7742 23.4297
736 1 -1.1104 6.67895 19.5452 23.498
732 1 -1.1104 6.66701 16.7706 26.2616
673 1 -1.1104 9.75008 14.0167 26.4502
634 1 -1.1104 12.3764 13.8774 26.1888
665 1 -1.1104 9.54775 19.4629 23.4332
377 2 2.2208 8.21973 15.4666 27.7982
399 2 2.2208 8.29137 9.7493 27.7188
383 2 2.2208 2.55544 3.99986 27.6857
400 2 2.2208 10.9406 12.5497 27.8561
398 2 2.2208 11.0002 6.99103 27.685
352 2 2.2208 5.21201 4.03096 13.6924
356 2 2.2208 10.9284 -1.50144 13.7554
371 2 2.2208 5.38946 15.1795 13.8453
358 2 2.2208 -0.324819 9.7257 13.7057
385 2 2.2208 5.23161 -4.31415 27.6859
401 2 2.2208 -0.103849 18.1176 27.7852
378 2 2.2208 11.042 18.1817 27.7261
393 2 2.2208 5.38673 6.90949 27.7546
751 2 2.2208 5.2694 23.7728 5.20559
752 2 2.2208 5.2281 29.2309 5.28007
753 1 -1.1104 1.00056 25.0941 1.09383
754 1 -1.1104 1.08538 25.2502 3.88248
755 1 -1.1104 1.0625 22.2803 1.15946
756 1 -1.1104 1.05763 27.8783 0.93671
757 2 2.2208 5.28631 26.4317 2.44662
758 1 -1.1104 1.11412 22.4501 3.98756
759 1 -1.1104 0.97903 27.9901 3.98843
760 1 -1.1104 3.82456 25.1272 1.02326
761 2 2.2208 2.2894 23.7749 2.48775
762 2 2.2208 2.39587 29.1912 2.40322
763 1 -1.1104 3.75793 25.0642 3.81506
764 2 2.2208 2.40165 26.5367 5.23282
765 1 -1.1104 3.94035 22.2229 0.974839
766 1 -1.1104 3.79823 27.9609 1.02081
767 1 -1.1104 3.84084 22.267 3.72651
768 1 -1.1104 3.8304 27.7746 3.94432
771 2 2.2208 -0.427068 26.5617 2.53419
769 2 2.2208 -0.407061 29.2257 5.36457
1131 2 2.2208 8.16627 37.8241 -0.353648
899 1 -1.1104 3.89554 22.3174 6.59693
894 1 -1.1104 1.0011 22.3425 6.65864
1081 2 2.2208 13.795 40.6364 7.98545
1113 2 2.2208 11.0174 46.1588 -0.35508
1072 2 2.2208 13.7739 23.6833 8.08995
1126 2 2.2208 2.56645 37.7318 -0.317224
773 1 -1.1104 6.81166 25.012 3.86745
775 1 -1.1104 6.70718 27.7489 0.947059
777 1 -1.1104 6.66356 27.7762 3.81962
772 1 -1.1104 6.82583 25.0052 0.988157
776 1 -1.1104 6.60583 22.2061 3.94984
774 1 -1.1104 6.74391 22.2799 1.11176
778 2 2.2208 10.836 23.7344 5.40122
779 2 2.2208 10.9974 29.2637 5.30787
780 1 -1.1104 12.3623 25.1393 1.15329
781 1 -1.1104 12.3365 24.9927 3.95024
782 1 -1.1104 12.2844 22.3567 1.17559
783 1 -1.1104 12.4139 27.9388 1.06662
784 2 2.2208 10.9911 26.5416 2.55154
785 1 -1.1104 12.3113 22.322 3.95519
786 1 -1.1104 12.2889 27.8204 4.01755
787 1 -1.1104 9.59529 25.1434 1.19692
788 2 2.2208 8.25837 23.7029 2.48289
789 2 2.2208 8.13654 29.2606 2.35021
790 1 -1.1104 9.57094 24.9963 3.82718
791 2 2.2208 8.17048 26.4821 5.22607
792 1 -1.1104 9.56167 22.2333 1.04817
793 1 -1.1104 9.604 27.8752 1.1177
794 1 -1.1104 9.51406 22.2477 3.89903
795 1 -1.1104 9.6756 27.9047 3.9326
926 1 -1.1104 12.243 22.2148 6.73688
896 1 -1.1104 6.75251 22.2958 6.63264
925 1 -1.1104 12.3068 25.0294 6.82398
1680 1 -1.1104 6.75133 47.3268 9.45809
1060 1 -1.1104 9.44898 41.8831 6.62028
799 2 2.2208 5.18442 34.8287 5.26288
800 1 -1.1104 1.34572 30.7624 1.04618
801 1 -1.1104 1.05849 36.3155 1.15861
803 1 -1.1104 1.01521 30.6618 3.7345
804 1 -1.1104 0.931214 36.3112 3.92544
806 1 -1.1104 0.908267 33.6402 1.02569
807 2 2.2208 5.39144 31.9919 2.40481
808 2 2.2208 5.35027 37.5865 2.47208
809 1 -1.1104 1.02808 33.4911 3.89498
811 1 -1.1104 4.02021 30.6362 0.968685
812 1 -1.1104 3.7745 36.3148 1.08637
813 2 2.2208 2.38845 34.9027 2.42372
814 1 -1.1104 3.672 30.6335 3.85048
815 1 -1.1104 3.76387 36.2729 3.79952
816 2 2.2208 2.32386 32.0372 5.11534
817 2 2.2208 2.42607 37.544 5.22587
818 1 -1.1104 3.95595 33.5269 1.17097
819 1 -1.1104 3.89727 33.4174 3.93479
821 2 2.2208 -0.21008 37.8953 2.38212
820 2 2.2208 -0.395448 34.8505 5.41765
822 2 2.2208 -0.333838 32.2578 2.47103
956 1 -1.1104 3.95046 36.2094 6.67363
825 1 -1.1104 6.71237 33.4566 1.08223
950 1 -1.1104 1.07438 36.2164 6.71967
957 1 -1.1104 3.91586 33.4653 6.79901
949 1 -1.1104 1.05275 30.7119 6.45094
1043 1 -1.1104 9.55903 44.9084 9.46668
1055 1 -1.1104 12.7405 44.5823 12.5578
824 1 -1.1104 6.7489 30.6014 3.95215
805 1 -1.1104 6.59756 36.3417 3.89833
810 1 -1.1104 6.6809 33.3947 3.80089
802 1 -1.1104 6.60558 36.3211 1.00582
823 1 -1.1104 6.74119 30.7017 1.08215
826 2 2.2208 10.8768 34.8893 5.35143
827 1 -1.1104 12.1857 30.7532 1.07135
828 1 -1.1104 12.4087 36.2628 1.05468
829 1 -1.1104 12.434 30.7185 3.86746
830 1 -1.1104 12.2361 36.2951 4.07294
831 1 -1.1104 12.2226 33.446 1.0807
832 2 2.2208 11.0032 32.0592 2.49173
833 2 2.2208 10.8164 37.7708 2.48609
834 1 -1.1104 12.3701 33.4707 3.99384
835 1 -1.1104 9.36493 30.5342 0.827689
836 1 -1.1104 9.6035 36.1502 1.15702
837 2 2.2208 8.02815 34.9249 2.46489
838 1 -1.1104 9.56126 30.6715 3.81663
839 1 -1.1104 9.41157 36.3842 3.95363