ITEM: TIMESTEP
20000
ITEM: NUMBER OF ATOMS
17640
ITEM: BOX BOUNDS pp pp pp
-3.5988453098880779e-01 2.7699884530988644e+01
-4.2247084550923235e+00 3.3230470845509080e+02
-3.5147736228680820e-01 2.7691477362286886e+01
ITEM: ATOMS id type q x y z
1 2 2.2208 5.09107 1.3335 5.34323
2 1 -1.1104 1.0664 -2.89717 1.23274
3 1 -1.1104 0.857754 2.84847 0.96775
6 1 -1.1104 1.04455 -2.79839 4.06794
7 1 -1.1104 0.876144 2.76458 3.82259
10 1 -1.1104 0.922243 -0.0187881 1.12657
12 2 2.2208 5.03808 -1.46158 2.44709
13 2 2.2208 5.13025 4.1242 2.58486
14 1 -1.1104 1.02391 0.0846158 4.00743
16 1 -1.1104 3.70484 -2.88653 1.11007
17 1 -1.1104 3.78539 2.75548 1.16014
18 2 2.2208 2.30407 1.38607 2.50061
19 1 -1.1104 3.89324 -2.93005 3.95758
20 1 -1.1104 3.66136 2.579 3.96114
21 2 2.2208 2.38134 -1.40534 5.42029
22 2 2.2208 2.37418 4.1684 5.25774
23 1 -1.1104 3.68335 0.0263162 1.13404
24 1 -1.1104 3.77667 -0.159822 4.04709
135 2 2.2208 -0.313283 15.4526 2.45815
4 1 -1.1104 6.66319 -2.74773 1.07397
8 1 -1.1104 6.60137 -2.71083 3.94799
11 1 -1.1104 6.60862 0.0152539 1.24483
5 1 -1.1104 6.68705 2.7254 1.03551
9 1 -1.1104 6.54131 2.8996 3.85755
312 2 2.2208 -0.402497 18.1146 10.8341
311 2 2.2208 -0.295756 21.127 8.13628
170 1 -1.1104 0.969141 -0.0126057 6.81251
172 1 -1.1104 3.82054 -2.84176 6.78579
382 2 2.2208 2.20985 -1.40542 -0.377204
335 2 2.2208 13.6293 9.78708 5.31635
230 2 2.2208 13.5547 -1.32316 11.0517
15 1 -1.1104 6.39655 -0.044232 4.04211
31 2 2.2208 10.7601 1.29513 5.2722
32 1 -1.1104 12.1488 -2.90248 1.18128
33 1 -1.1104 12.2396 2.80121 1.20313
34 1 -1.1104 12.0742 -2.77921 3.9169
35 1 -1.1104 12.1646 2.76031 3.9485
36 1 -1.1104 12.2485 -0.0818621 1.09219
37 2 2.2208 10.8112 -1.32985 2.51307
38 2 2.2208 10.9019 4.22394 2.63901
39 1 -1.1104 12.2869 -0.0335907 3.95184
40 1 -1.1104 9.43567 -2.82444 1.06481
41 1 -1.1104 9.42601 2.97491 1.27133
42 2 2.2208 8.0113 1.42764 2.62312
43 1 -1.1104 9.45062 -2.68305 3.97079
44 1 -1.1104 9.46071 2.80852 4.0602
45 2 2.2208 7.94258 -1.38756 5.40809
46 2 2.2208 7.93971 4.19169 5.39815
47 1 -1.1104 9.38265 0.00457895 1.35834
48 1 -1.1104 9.46004 0.0424224 3.96226
231 2 2.2208 8.12052 -4.44222 8.2074
104 2 2.2208 13.6614 12.5713 2.46268
339 2 2.2208 13.7057 6.92185 8.06855
205 1 -1.1104 12.2337 -3.00755 6.8621
210 1 -1.1104 9.41427 0.0341648 6.71724
137 2 2.2208 -0.363602 18.2576 5.31961
396 2 2.2208 -0.379362 12.4979 -0.310948
345 2 2.2208 13.6764 21.1146 10.7579
54 2 2.2208 5.04022 6.99945 5.49788
55 2 2.2208 5.1328 12.5743 5.31145
56 1 -1.1104 1.03571 8.58245 0.99551
58 1 -1.1104 0.90187 8.40563 3.8585
60 1 -1.1104 0.886108 5.61407 1.24395
61 1 -1.1104 1.05462 11.3509 0.92268
66 2 2.2208 5.19523 9.75915 2.66506
67 1 -1.1104 0.938819 5.47123 3.86038
68 1 -1.1104 1.02467 11.3083 3.78638
71 1 -1.1104 3.68275 8.35331 1.25547
72 2 2.2208 2.44202 7.06186 2.53626
73 2 2.2208 2.48992 12.7114 2.40791
74 1 -1.1104 3.76319 8.30801 3.99218
75 2 2.2208 2.39389 9.7523 5.30816
76 1 -1.1104 3.75488 5.61472 1.13433
77 1 -1.1104 3.88602 11.1897 1.18334
79 1 -1.1104 3.73698 5.61145 4.12096
80 1 -1.1104 3.68986 11.2085 3.80627
239 1 -1.1104 3.71961 5.41914 6.82316
63 1 -1.1104 6.46714 5.65305 1.20492
64 1 -1.1104 6.66668 11.2907 1.15816
69 1 -1.1104 6.37739 5.60521 4.10868
59 1 -1.1104 6.5648 8.42919 4.00649
57 1 -1.1104 6.56047 8.46802 1.14054
313 2 2.2208 -0.403106 15.4362 8.01534
78 1 -1.1104 3.76289 11.2059 6.6646
232 2 2.2208 10.9781 -4.27647 10.9202
378 2 2.2208 10.8588 18.317 -0.47425
401 2 2.2208 -0.345696 18.1684 -0.354007
70 1 -1.1104 6.66707 11.1608 3.93413
84 2 2.2208 10.6905 6.9998 5.41028
85 2 2.2208 10.8503 12.632 5.2889
86 1 -1.1104 12.1999 8.24593 1.20106
87 1 -1.1104 12.1095 8.37539 3.8834
88 1 -1.1104 12.3292 5.47589 1.09583
89 1 -1.1104 12.2964 11.1071 1.1394
91 2 2.2208 10.7832 9.76295 2.47397
92 1 -1.1104 12.1546 5.64125 4.01831
93 1 -1.1104 12.3373 11.1752 3.94809
94 1 -1.1104 9.27069 8.32428 0.976497
95 2 2.2208 7.87817 6.89323 2.72558
96 2 2.2208 7.97336 12.5534 2.52095
97 1 -1.1104 9.47042 8.45252 4.0262
98 2 2.2208 8.0774 9.80189 5.34384
99 1 -1.1104 9.46102 5.60012 1.45357
100 1 -1.1104 9.56211 11.1479 1.08109
102 1 -1.1104 9.34432 5.71905 4.11759
103 1 -1.1104 9.38992 11.2004 3.95462
306 1 -1.1104 6.59304 16.6653 12.2246
266 1 -1.1104 12.182 5.61753 6.78741
200 2 2.2208 -0.554092 -1.37954 8.1592
202 2 2.2208 2.36171 -4.32612 8.12746
27 2 2.2208 -0.478963 4.21012 2.52176
118 1 -1.1104 6.67302 16.8546 6.83616
106 2 2.2208 5.23296 18.2216 5.31457
107 1 -1.1104 0.921648 14.2609 1.0029
109 1 -1.1104 1.19464 19.71 1.03614
113 1 -1.1104 1.10894 14.0881 3.83711
114 1 -1.1104 1.06276 19.6521 3.90586
116 1 -1.1104 1.1859 16.8717 1.05923
119 2 2.2208 5.26 15.4705 2.41767
120 2 2.2208 5.22943 20.9664 2.55935
121 1 -1.1104 1.08114 16.8996 3.89358
123 1 -1.1104 3.79542 14.0981 1.02141
125 1 -1.1104 3.96586 19.5394 1.16768
127 2 2.2208 2.41184 18.1135 2.43774
128 1 -1.1104 3.93087 14.1134 3.76894
129 1 -1.1104 3.81731 19.5487 3.99575
130 2 2.2208 2.3958 15.544 5.32777
131 2 2.2208 2.43521 21.0127 5.31999
132 1 -1.1104 3.8875 16.809 0.962641
134 1 -1.1104 3.77923 16.8048 3.79497
302 1 -1.1104 1.0657 19.5606 6.70996
110 1 -1.1104 6.64761 14.0844 1.12872
122 1 -1.1104 6.5315 16.8344 3.95882
138 1 -1.1104 6.86004 19.7798 1.07092
115 1 -1.1104 6.61061 14.0674 4.02007
108 1 -1.1104 0.806804 13.9089 6.69022
133 1 -1.1104 3.91334 16.8323 6.64831
143 1 -1.1104 12.2816 14.0133 6.74415
140 1 -1.1104 6.73935 16.926 1.28759
139 1 -1.1104 6.74679 19.5791 3.82955
141 2 2.2208 10.9053 18.1771 5.24348
142 1 -1.1104 12.2189 13.7539 1.24662
144 1 -1.1104 12.3317 19.751 1.07776
146 1 -1.1104 12.3064 14.0908 4.02202
147 1 -1.1104 12.3586 19.6102 3.77699
148 1 -1.1104 12.4302 16.8371 0.948582
150 2 2.2208 10.906 15.4407 2.61216
151 2 2.2208 10.8213 21.0759 2.50667
152 1 -1.1104 12.2551 16.8249 3.84975
153 1 -1.1104 9.48829 13.9872 1.15107
155 1 -1.1104 9.66028 19.5837 1.04179
157 2 2.2208 8.03852 18.3202 2.58086
158 1 -1.1104 9.35605 13.9908 3.914
159 1 -1.1104 9.458 19.6 3.90669
160 2 2.2208 7.90608 15.376 5.344
161 2 2.2208 8.0772 21.0559 5.41419
162 1 -1.1104 9.64269 16.8092 1.1594
164 1 -1.1104 9.40608 16.8008 3.85031
112 1 -1.1104 6.65829 19.6811 6.63007
391 2 2.2208 13.6439 -1.43608 -0.279912
163 1 -1.1104 9.47536 16.7618 6.51527
156 1 -1.1104 9.50468 19.6299 6.62418
145 1 -1.1104 12.3871 19.6471 6.77377
149 1 -1.1104 12.27 16.9311 6.70318
321 1 -1.1104 9.40441 19.5661 12.2061
344 2 2.2208 -0.518563 6.97766 10.8174
388 2 2.2208 7.95376 -1.43488 -0.234373
167 1 -1.1104 0.959955 2.84935 6.53662
173 1 -1.1104 3.81324 2.89646 6.6126
166 1 -1.1104 0.958631 -2.67392 6.72181
174 1 -1.1104 3.75573 0.0730074 6.83417
175 2 2.2208 5.28753 1.30791 11.0175
176 1 -1.1104 1.03825 -2.73184 12.4644
177 1 -1.1104 1.00641 2.72953 12.3502
180 1 -1.1104 0.907198 -2.74318 9.42883
181 1 -1.1104 0.839367 2.90218 9.44449
184 1 -1.1104 0.884825 0.0182916 12.4127
186 2 2.2208 5.10894 -1.38274 8.15218
187 2 2.2208 5.25181 4.13398 8.05478
188 1 -1.1104 0.870038 0.105689 9.55238
190 1 -1.1104 3.77674 -2.9034 12.6369
191 1 -1.1104 3.65113 2.71025 12.4024
192 2 2.2208 2.34797 1.3971 8.10244
193 1 -1.1104 3.76461 -2.99296 9.62352
194 1 -1.1104 3.84256 2.74363 9.49987
195 2 2.2208 2.33311 -1.45543 10.8959
196 2 2.2208 2.45247 4.13322 10.9841
197 1 -1.1104 3.86253 -0.0498647 12.4843
198 1 -1.1104 3.82353 -0.126623 9.75148
171 1 -1.1104 6.54778 -0.063974 6.78954
169 1 -1.1104 6.58529 2.63945 6.71563
182 1 -1.1104 6.55723 -2.96491 9.43655
185 1 -1.1104 6.67838 -0.123603 12.3853
178 1 -1.1104 6.5853 -2.76453 12.3222
392 2 2.2208 13.5584 4.20611 -0.385164
207 1 -1.1104 12.2797 -0.118155 6.77201
168 1 -1.1104 6.66081 -2.84003 6.80623
206 1 -1.1104 12.1538 2.74141 6.50395
208 1 -1.1104 9.538 -2.78798 6.72287
209 1 -1.1104 9.35258 2.93573 6.84897
183 1 -1.1104 6.59546 2.82499 9.39081
179 1 -1.1104 6.57056 2.71506 12.328
189 1 -1.1104 6.56147 0.013469 9.59743
211 2 2.2208 10.701 1.38438 10.8462
212 1 -1.1104 12.1964 -2.89454 12.3823
213 1 -1.1104 12.1486 2.84985 12.3674
214 1 -1.1104 12.5493 -2.69262 9.57182
215 1 -1.1104 12.2222 2.77223 9.43805
216 1 -1.1104 12.1492 -0.0734406 12.2295
217 2 2.2208 10.8736 -1.48585 8.27276
218 2 2.2208 10.7558 4.24926 8.03469
219 1 -1.1104 12.1188 -0.1142 9.62275
220 1 -1.1104 9.34309 -2.97192 12.4352
221 1 -1.1104 9.39655 2.94815 12.2836
222 2 2.2208 8.03634 1.34728 8.07527
223 1 -1.1104 9.37736 -2.89121 9.56478
224 1 -1.1104 9.24787 2.83556 9.60745
225 2 2.2208 8.02693 -1.45757 10.8217
226 2 2.2208 7.92901 4.26165 11.0143
227 1 -1.1104 9.4034 0.0177326 12.2386
228 1 -1.1104 9.26057 -0.0944046 9.47158
319 1 -1.1104 9.61663 14.2451 9.6502
332 2 2.2208 13.7224 18.2724 8.15331
381 2 2.2208 5.05478 1.39497 -0.31403
323 1 -1.1104 12.3285 16.7179 9.57133
327 1 -1.1104 12.2702 19.5608 9.63792
236 1 -1.1104 1.13252 5.57551 6.61789
62 1 -1.1104 1.06879 10.9957 6.82976
238 1 -1.1104 3.78261 8.45908 6.70775
234 1 -1.1104 1.01591 8.29161 6.6629
240 2 2.2208 5.20067 7.02494 10.9175
241 2 2.2208 5.22008 12.5503 10.959
242 1 -1.1104 0.893517 8.29147 12.3465
244 1 -1.1104 0.914272 8.41372 9.45684
246 1 -1.1104 0.980934 5.5382 12.1304
247 1 -1.1104 1.05008 11.0734 12.2356
250 2 2.2208 5.25832 9.8805 8.08278
251 1 -1.1104 0.910019 5.64297 9.49027
252 1 -1.1104 1.01038 11.2446 9.51225
255 1 -1.1104 3.76968 8.37997 12.1889
256 2 2.2208 2.35175 6.93337 8.09309
257 2 2.2208 2.29242 12.6281 8.09021
258 1 -1.1104 3.63453 8.31744 9.63201
259 2 2.2208 2.37214 9.71384 10.8879
260 1 -1.1104 3.77703 5.49346 12.5263
261 1 -1.1104 3.75794 11.2302 12.4275
262 1 -1.1104 3.78549 5.58827 9.57634
263 1 -1.1104 3.87347 11.1231 9.52799
237 1 -1.1104 6.60672 5.41786 6.89905
65 1 -1.1104 6.66545 11.0982 6.62888
249 1 -1.1104 6.57983 11.2418 12.2464
253 1 -1.1104 6.73445 5.62792 9.58766
248 1 -1.1104 6.53663 5.56205 12.3777
243 1 -1.1104 6.76257 8.39209 12.3408
254 1 -1.1104 6.72782 11.1529 9.47855
229 2 2.2208 13.6333 1.41938 8.07618
154 1 -1.1104 9.3408 13.8779 6.75841
235 1 -1.1104 6.69385 8.30027 6.74616
90 1 -1.1104 12.3519 11.0598 6.70112
265 1 -1.1104 12.2131 8.32137 6.70441
101 1 -1.1104 9.63042 11.1276 6.72316
245 1 -1.1104 6.66241 8.40432 9.45311
267 1 -1.1104 9.3563 8.34088 6.77998
269 1 -1.1104 9.4375 5.53837 6.76726
283 1 -1.1104 12.0546 5.45124 9.4292
282 2 2.2208 10.8733 9.78941 8.11313
280 1 -1.1104 12.3086 5.63633 12.3332
285 1 -1.1104 9.4171 8.51647 12.2254
284 1 -1.1104 12.2243 11.144 9.51431
281 1 -1.1104 12.3569 11.3181 12.3164
264 1 -1.1104 9.45741 11.4261 9.58497
268 1 -1.1104 9.39906 5.56858 9.56615
270 1 -1.1104 9.59356 11.3142 12.2759
271 1 -1.1104 9.36248 5.75124 12.3301
272 2 2.2208 8.07359 9.93372 11.02
273 1 -1.1104 9.41957 8.45709 9.54851
274 2 2.2208 8.17537 12.5113 8.15885
275 2 2.2208 8.0334 6.96962 8.24877
276 2 2.2208 10.9659 6.94701 10.87
277 2 2.2208 10.7856 12.7721 10.9317
278 1 -1.1104 12.3389 8.41954 12.1607
279 1 -1.1104 12.2711 8.34021 9.36974
324 2 2.2208 10.8895 21.0938 8.19095
325 2 2.2208 10.9302 15.5423 8.13012
111 1 -1.1104 6.43554 13.9084 6.79206
290 1 -1.1104 6.76796 14.0796 9.43143
315 1 -1.1104 9.43809 16.8774 12.2027
297 1 -1.1104 6.65679 14.0119 12.3059
328 1 -1.1104 12.391 13.9189 9.52031
124 1 -1.1104 3.65723 14.0862 6.69043
126 1 -1.1104 3.9297 19.7699 6.67831
117 1 -1.1104 1.12502 16.7452 6.62652
310 2 2.2208 2.38812 15.3434 10.7666
309 2 2.2208 2.50017 20.9822 10.9095
308 1 -1.1104 3.90937 16.7829 12.39
307 1 -1.1104 1.14707 16.8674 12.1715
286 1 -1.1104 3.86935 19.6464 12.2511
305 1 -1.1104 3.80548 13.9264 9.52439
304 1 -1.1104 3.63695 16.8739 9.49197
303 2 2.2208 2.31782 18.1032 8.05164
301 1 -1.1104 4.02019 19.58 9.49105
300 2 2.2208 5.29832 18.1149 10.8987
299 1 -1.1104 1.04134 14.0444 12.4095
298 1 -1.1104 1.06972 19.7608 12.217
295 2 2.2208 5.2673 15.4259 7.94734
294 1 -1.1104 0.845941 14.1885 9.48553
293 2 2.2208 5.23836 21.1437 8.13304
292 1 -1.1104 0.838162 16.7267 9.37751
291 1 -1.1104 1.08707 19.5646 9.45961
287 1 -1.1104 3.80359 13.9982 12.1992
289 1 -1.1104 6.48279 16.7942 9.46267
330 1 -1.1104 12.1204 14.1164 12.2111
322 1 -1.1104 9.28941 14.0591 12.1501
288 1 -1.1104 6.72101 19.5919 9.47839
331 2 2.2208 10.9162 18.2842 10.755
329 1 -1.1104 12.107 19.7029 12.296
316 2 2.2208 8.11507 20.9465 10.8758
317 2 2.2208 8.03959 15.4361 10.7771
296 1 -1.1104 6.70397 19.5729 12.3688
314 1 -1.1104 9.46976 16.9543 9.24172
326 1 -1.1104 12.3135 16.8573 12.2471
320 2 2.2208 7.96934 18.2988 8.10359
318 1 -1.1104 9.50484 19.7298 9.54043
398 2 2.2208 10.7847 6.98262 -0.15337
379 2 2.2208 8.13084 21.0418 -0.348992
352 2 2.2208 5.30448 4.16334 13.7254
361 2 2.2208 2.39632 12.7203 13.784
348 2 2.2208 5.34551 -1.55997 13.9217
387 2 2.2208 10.7619 1.43821 -0.22938
365 2 2.2208 8.0933 12.6157 13.7044
360 2 2.2208 5.26108 9.85392 13.7414
394 2 2.2208 2.49109 9.8457 -0.340777
403 2 2.2208 2.37212 15.4281 -0.312822
371 2 2.2208 5.23074 15.4489 13.6875
402 2 2.2208 13.626 9.73093 -0.191455
405 2 2.2208 2.47796 21.0539 -0.371183
362 2 2.2208 13.7422 12.514 13.7966
372 2 2.2208 10.8803 21.1148 13.723
404 2 2.2208 5.32073 18.281 -0.302551
406 2 2.2208 5.30928 1.29687 16.6631
407 1 -1.1104 1.12547 -2.71071 17.9023
408 1 -1.1104 1.0825 2.71842 18.1621
411 1 -1.1104 1.10655 -2.78849 15.1592
413 1 -1.1104 1.00833 2.71353 15.1591
419 1 -1.1104 1.06575 0.102361 17.9393
421 2 2.2208 5.19371 -1.46712 19.3412
422 2 2.2208 5.24365 4.14565 19.416
423 1 -1.1104 0.902412 -0.141766 15.2293
427 1 -1.1104 3.6999 -2.82845 18.0737
428 1 -1.1104 3.9165 2.79423 17.8897
429 2 2.2208 2.57654 1.38233 19.3392
430 1 -1.1104 3.94706 -2.87186 15.3633
432 1 -1.1104 3.77648 2.82987 15.0431
434 2 2.2208 2.4482 -1.36988 16.504
435 2 2.2208 2.44146 4.15177 16.5773
436 1 -1.1104 3.89429 -0.120377 17.9661
437 1 -1.1104 3.71421 0.104518 15.3835
433 1 -1.1104 3.79687 2.69785 20.9041
414 1 -1.1104 1.07651 2.92645 20.788
415 1 -1.1104 6.82318 -3.11515 15.1884
417 1 -1.1104 6.61988 2.86096 15.1253
347 2 2.2208 2.30134 -4.30497 13.7302
542 2 2.2208 13.5872 6.92348 19.3092
356 2 2.2208 10.8807 -1.54069 13.6773
633 1 -1.1104 12.1547 19.5105 23.5711
478 2 2.2208 13.6324 21.0521 16.548
474 2 2.2208 10.7434 -4.34259 16.5448
580 2 2.2208 13.7219 15.3671 22.0948
669 2 2.2208 7.89856 -4.21371 24.9015
373 2 2.2208 10.8135 15.3872 13.5818
640 2 2.2208 2.38287 -4.16823 24.8581
636 1 -1.1104 12.2734 16.8287 23.3211
420 1 -1.1104 6.69289 -0.158717 18.052
410 1 -1.1104 6.6775 2.6873 17.8991
425 1 -1.1104 6.48588 -0.0985305 15.2417
409 1 -1.1104 6.54671 -2.91013 17.8828
449 2 2.2208 10.9109 1.40288 16.3802
450 1 -1.1104 12.3009 -2.97612 17.8763
451 1 -1.1104 12.2743 2.80991 17.9575
452 1 -1.1104 12.2912 -2.76532 15.1178
454 1 -1.1104 12.3236 2.77982 15.1079
456 1 -1.1104 12.3354 -0.0299297 17.8121
457 2 2.2208 10.8521 -1.23471 19.2938
458 2 2.2208 10.8942 4.12538 19.494
459 1 -1.1104 12.2332 -0.0864203 14.9363
461 1 -1.1104 9.37578 -2.99673 17.9231
462 1 -1.1104 9.47915 2.70054 17.9574
463 2 2.2208 8.07476 1.42772 19.3379
464 1 -1.1104 9.42052 -2.9099 15.058
466 1 -1.1104 9.56202 2.62248 15.0161
468 2 2.2208 8.07483 -1.48075 16.5809
469 2 2.2208 7.99713 4.2139 16.5509
470 1 -1.1104 9.5905 0.00789426 17.8682
471 1 -1.1104 9.26412 -0.189614 15.1734
460 1 -1.1104 12.2377 0.19711 20.7861
453 1 -1.1104 12.2297 -2.7025 20.7549
578 2 2.2208 13.6495 1.50086 19.4139
479 2 2.2208 13.5101 18.2401 19.3479
639 2 2.2208 5.15904 -4.16323 22.2477
728 2 2.2208 13.6172 6.91881 24.9089
482 2 2.2208 5.17083 7.07548 16.4254
483 2 2.2208 5.1733 12.5316 16.4586
484 1 -1.1104 0.963579 8.2036 17.7927
486 1 -1.1104 0.874548 8.31212 15.0576
490 1 -1.1104 1.01163 5.5187 18.018
491 1 -1.1104 0.977597 10.9206 17.759
494 2 2.2208 5.26461 9.82724 19.2135
495 1 -1.1104 0.864482 5.38247 15.2919
497 1 -1.1104 0.994143 11.3461 15.1068
503 1 -1.1104 3.77392 8.29065 17.7702
504 2 2.2208 2.29577 7.09139 19.1721
505 2 2.2208 2.40805 12.6262 19.2693
506 1 -1.1104 3.76426 8.3883 15.0338
508 2 2.2208 2.36854 9.70387 16.3644
509 1 -1.1104 3.67232 5.59277 17.9162
510 1 -1.1104 3.8372 11.1724 17.956
511 1 -1.1104 3.56768 5.60053 15.1489
513 1 -1.1104 3.74369 11.1385 15.1807
499 1 -1.1104 6.63644 5.67677 15.0952
501 1 -1.1104 6.68721 11.274 15.0484
493 1 -1.1104 6.66798 11.2787 17.8144
488 1 -1.1104 6.61779 8.57597 15.0735
663 1 -1.1104 12.3762 16.6722 26.1519
664 1 -1.1104 9.49007 13.897 23.5435
366 2 2.2208 13.7353 6.9685 13.7575
485 1 -1.1104 6.6542 8.45972 17.8451
492 1 -1.1104 6.49771 5.71625 17.911
518 2 2.2208 10.8031 7.04308 16.6478
519 2 2.2208 10.7851 12.662 16.534
520 1 -1.1104 12.2517 8.46785 17.8467
521 1 -1.1104 12.3693 8.48379 15.0437
523 1 -1.1104 12.164 5.6116 18.1209
524 1 -1.1104 12.2998 11.2292 18.0274
525 2 2.2208 10.8489 9.76469 19.3798
526 1 -1.1104 12.1635 5.62093 15.205
528 1 -1.1104 12.2751 11.3113 15.2155
530 1 -1.1104 9.45013 8.40308 17.894
531 2 2.2208 8.04753 7.00597 19.3219
532 2 2.2208 8.07534 12.5579 19.3367
533 1 -1.1104 9.50207 8.3552 15.1113
535 2 2.2208 8.03696 9.77611 16.4523
536 1 -1.1104 9.44498 5.6678 18.0304
537 1 -1.1104 9.41514 11.1933 17.9054
538 1 -1.1104 9.51179 5.52357 15.1648
540 1 -1.1104 9.57069 11.2513 14.9794
522 1 -1.1104 12.3334 8.2982 20.7811
529 1 -1.1104 12.2116 11.1692 20.7738
665 1 -1.1104 9.35124 19.5547 23.2674
399 2 2.2208 8.05383 9.79222 27.8306
543 2 2.2208 13.7233 9.86936 16.5581
642 2 2.2208 -0.593145 -1.46146 24.9147
638 2 2.2208 10.8355 15.3651 24.9048
363 2 2.2208 8.08363 7.06693 13.6764
607 2 2.2208 10.8248 18.2078 22.0473
565 1 -1.1104 6.61441 16.8502 20.7035
641 2 2.2208 10.906 20.9994 24.9066
545 2 2.2208 5.16025 18.2278 16.6692
546 1 -1.1104 0.999338 13.9584 17.9117
547 1 -1.1104 0.867893 19.5691 17.6706
550 1 -1.1104 0.887801 14.1497 15.1456
552 1 -1.1104 1.01332 19.5941 14.9867
558 1 -1.1104 0.858036 16.8377 17.8441
560 2 2.2208 5.19937 15.3758 19.3571
561 2 2.2208 5.21504 21.1154 19.2726
562 1 -1.1104 0.992594 16.7858 15.0728
566 1 -1.1104 3.85856 14.0825 17.8488
567 1 -1.1104 3.80919 19.6487 18.0423
568 2 2.2208 2.41936 18.1968 19.3185
569 1 -1.1104 3.68345 13.9116 15.0791
571 1 -1.1104 3.73348 19.5434 15.2144
573 2 2.2208 2.31213 15.4675 16.5252
574 2 2.2208 2.38312 21.0294 16.4942
575 1 -1.1104 3.75077 16.8264 18.0626
576 1 -1.1104 3.77107 16.8323 15.1701
572 1 -1.1104 3.82265 19.6796 20.6519
548 1 -1.1104 6.60806 14.0526 17.8719
554 1 -1.1104 6.55845 13.9239 15.1275
559 1 -1.1104 6.51029 16.784 18.094
564 1 -1.1104 6.59088 16.7297 15.1778
556 1 -1.1104 6.56964 19.7245 15.248
577 1 -1.1104 3.76087 16.734 20.835
553 1 -1.1104 0.937936 19.5314 20.5217
587 1 -1.1104 12.3324 19.8777 20.8082
592 1 -1.1104 12.1906 16.8281 20.6846
585 1 -1.1104 12.2208 14.0056 20.8366
604 1 -1.1104 9.27455 16.8902 20.6208
599 1 -1.1104 9.5343 19.6326 20.5163
700 2 2.2208 7.96504 20.9944 22.2046
549 1 -1.1104 6.51432 19.6822 17.9506
581 2 2.2208 10.8975 18.2478 16.5038
582 1 -1.1104 12.1819 14.0302 17.9026
583 1 -1.1104 12.1752 19.6674 18.0278
584 1 -1.1104 12.1555 14.0963 15.0402
586 1 -1.1104 12.2474 19.6128 15.0178
588 1 -1.1104 12.3338 16.6695 18.02
589 2 2.2208 10.8055 15.4326 19.4182
590 2 2.2208 10.9029 21.106 19.2803
591 1 -1.1104 12.3904 16.8604 15.198
593 1 -1.1104 9.41853 14.0683 17.8964
594 1 -1.1104 9.4148 19.6635 17.8383
595 2 2.2208 7.94085 18.2242 19.3373
596 1 -1.1104 9.39934 14.067 14.9929
598 1 -1.1104 9.3861 19.6622 15.0409
600 2 2.2208 8.05367 15.4176 16.4596
601 2 2.2208 7.91934 20.9683 16.5294
602 1 -1.1104 9.4367 16.9005 17.8799
603 1 -1.1104 9.51073 16.8716 15.1646
635 1 -1.1104 12.2437 19.5568 26.2696
579 2 2.2208 13.6052 4.1808 16.5886
557 1 -1.1104 6.63477 19.6412 20.7977
597 1 -1.1104 9.31111 13.9774 20.7059
364 2 2.2208 10.8972 9.78753 13.5685
725 2 2.2208 -0.407634 15.3982 24.8078
438 1 -1.1104 3.78192 -0.072331 20.6513
431 1 -1.1104 3.85343 -2.9366 20.8456
412 1 -1.1104 0.95707 -2.90765 20.8269
424 1 -1.1104 1.05966 -0.0116452 20.6759
609 2 2.2208 5.20737 1.43468 22.2926
610 1 -1.1104 0.876763 -2.81572 23.6705
611 1 -1.1104 1.07319 2.80959 23.5856
614 1 -1.1104 0.90403 -2.89668 26.3987
615 1 -1.1104 0.985009 2.82351 26.3339
618 1 -1.1104 0.853353 -0.0192899 23.5379
620 2 2.2208 5.14778 -1.41784 25.026
621 2 2.2208 5.24268 4.27301 25.0568
622 1 -1.1104 0.81254 0.0750926 26.2664
624 1 -1.1104 3.80788 -2.80476 23.5507
625 1 -1.1104 3.85128 2.97843 23.6832
626 2 2.2208 2.39764 1.49281 24.8928
627 1 -1.1104 3.61753 -2.70302 26.4
628 1 -1.1104 3.63848 2.85617 26.4376
629 2 2.2208 2.34939 -1.41908 22.1225
630 2 2.2208 2.46535 4.331 22.1693
631 1 -1.1104 3.85457 0.0289002 23.5423
632 1 -1.1104 3.75971 0.0989378 26.2976
418 1 -1.1104 6.63715 2.80451 20.6543
619 1 -1.1104 6.56646 0.13598 23.7029
616 1 -1.1104 6.42343 -2.78313 26.3
617 1 -1.1104 6.45882 2.78878 26.391
634 1 -1.1104 12.2079 13.8347 26.4235
448 2 2.2208 -0.53563 15.4476 19.217
481 2 2.2208 -0.407547 7.0907 16.554
393 2 2.2208 5.20885 7.02294 27.8194
455 1 -1.1104 12.2243 2.83577 20.7531
416 1 -1.1104 6.59079 -2.71224 20.7862
472 1 -1.1104 9.49663 -0.0336272 20.6915
465 1 -1.1104 9.31611 -2.68364 20.6993
613 1 -1.1104 6.64343 2.83196 23.5948
612 1 -1.1104 6.61145 -2.76757 23.5465
467 1 -1.1104 9.46742 2.9049 20.8292
426 1 -1.1104 6.51656 -0.0526875 20.8947
623 1 -1.1104 6.52343 0.0207724 26.4837
645 2 2.2208 10.7835 1.45856 22.3047
646 1 -1.1104 12.2642 -2.86651 23.6348
647 1 -1.1104 12.2071 2.68979 23.6405
648 1 -1.1104 12.2277 -2.9636 26.3674
649 1 -1.1104 12.1271 2.63935 26.3916
650 1 -1.1104 12.1726 -0.00570196 23.5646
651 2 2.2208 10.7274 -1.48257 24.9358
653 1 -1.1104 12.0845 -0.00853008 26.2423
654 1 -1.1104 9.35787 -2.91939 23.5161
655 1 -1.1104 9.26979 2.84836 23.5888
656 2 2.2208 7.92073 1.34728 25.0497
657 1 -1.1104 9.29736 -2.81105 26.1656
658 1 -1.1104 9.35745 2.85321 26.4466
659 2 2.2208 8.02846 -1.41025 22.3126
660 2 2.2208 8.05404 4.39296 22.0692
661 1 -1.1104 9.35855 0.0374424 23.6044
662 1 -1.1104 9.38652 0.0250505 26.5569
652 2 2.2208 10.703 4.20354 24.8923
704 1 -1.1104 9.49298 16.9156 26.3102
395 2 2.2208 5.27913 12.626 27.8234
376 2 2.2208 8.04087 18.1486 13.6929
446 2 2.2208 13.7293 4.12481 22.19
606 2 2.2208 13.8498 21.0351 22.1182
496 1 -1.1104 1.02377 5.69921 20.8355
698 1 -1.1104 9.40767 19.6007 26.105
514 1 -1.1104 3.94004 11.2423 20.7163
498 1 -1.1104 0.993389 11.195 20.5639
487 1 -1.1104 1.16358 8.49481 20.6592
507 1 -1.1104 3.91457 8.41212 20.6523
512 1 -1.1104 3.88213 5.6262 21.0063
674 2 2.2208 5.27592 7.06592 22.3023
675 2 2.2208 5.26555 12.5808 22.098
676 1 -1.1104 0.883147 8.48501 23.4857
678 1 -1.1104 1.13875 8.45627 26.2623
680 1 -1.1104 1.01957 5.62582 23.5703
681 1 -1.1104 0.978088 11.2332 23.3819
684 2 2.2208 5.22331 9.83728 25.0501
685 1 -1.1104 1.00133 5.65414 26.47
686 1 -1.1104 0.974592 11.3027 26.2274
689 1 -1.1104 3.80975 8.48618 23.5166
690 2 2.2208 2.43904 6.99976 24.9972
691 2 2.2208 2.32127 12.7417 24.9357
692 1 -1.1104 3.8645 8.3874 26.47
693 2 2.2208 2.40913 9.85755 22.0829
694 1 -1.1104 3.85784 5.72846 23.6624
695 1 -1.1104 3.87156 11.2419 23.6532
696 1 -1.1104 3.73494 5.52154 26.3555
697 1 -1.1104 3.83994 11.3899 26.2995
502 1 -1.1104 6.6406 11.0671 20.6484
489 1 -1.1104 6.65112 8.39602 20.7649
688 1 -1.1104 6.60518 11.297 26.2804
677 1 -1.1104 6.53486 8.4361 23.7306
683 1 -1.1104 6.52919 11.1863 23.5092
687 1 -1.1104 6.58043 5.65555 26.4166
670 1 -1.1104 6.57043 19.6906 26.3086
534 1 -1.1104 9.44859 8.46372 20.624
500 1 -1.1104 6.71671 5.66464 20.722
527 1 -1.1104 12.2739 5.49015 20.905
541 1 -1.1104 9.39661 11.274 20.8651
682 1 -1.1104 6.66376 5.69587 23.7296
539 1 -1.1104 9.37131 5.70832 20.798
679 1 -1.1104 6.56742 8.44953 26.4632
705 1 -1.1104 9.42698 11.3656 26.541
706 1 -1.1104 9.28443 5.66431 26.4455
707 1 -1.1104 9.49527 11.0697 23.6769
708 1 -1.1104 9.37792 5.54758 23.4567
709 2 2.2208 7.96667 9.76784 22.1966
710 1 -1.1104 9.34185 8.48981 26.3275
711 2 2.2208 7.99807 12.5927 24.9719
712 2 2.2208 7.94403 7.0236 24.9928
713 2 2.2208 10.8339 6.99558 22.2059
714 2 2.2208 10.8829 12.5764 22.2635
715 1 -1.1104 12.2772 8.28933 23.6755
716 1 -1.1104 12.1867 8.39479 26.532
717 1 -1.1104 12.1543 5.61382 23.5706
718 1 -1.1104 12.2082 11.2089 23.4745
719 2 2.2208 10.9001 9.86204 24.993
720 1 -1.1104 12.1231 5.59207 26.3332
721 1 -1.1104 12.1699 11.0646 26.4378
722 1 -1.1104 9.38627 8.3491 23.4436
672 2 2.2208 13.5949 1.32595 24.93
701 1 -1.1104 9.47249 16.6823 23.4472
477 2 2.2208 13.6716 -1.4986 16.4706
739 1 -1.1104 6.65187 13.9928 23.5448
732 1 -1.1104 6.75006 16.8101 26.2832
555 1 -1.1104 6.57061 13.9565 20.7414
563 1 -1.1104 0.966035 16.784 20.6496
551 1 -1.1104 0.955666 14.0359 20.5283
570 1 -1.1104 3.75815 14.0813 20.7367
727 2 2.2208 2.46329 15.4042 22.0968
729 1 -1.1104 3.77799 19.5842 23.3751
731 1 -1.1104 3.75395 14.1175 23.509
733 1 -1.1104 1.16766 19.7232 26.2315
734 1 -1.1104 1.10113 16.9024 26.227
735 1 -1.1104 1.05522 14.0517 26.2609
737 2 2.2208 5.23575 21.1764 25.0251
738 2 2.2208 5.35315 15.3605 24.9136
740 1 -1.1104 0.997869 19.4771 23.4665
741 1 -1.1104 0.803027 13.9611 23.491
742 2 2.2208 5.1306 18.1171 22.1515
743 1 -1.1104 3.94952 19.7928 26.4302
744 2 2.2208 2.50727 18.1988 24.8268
745 1 -1.1104 3.97532 16.8713 26.3701
746 1 -1.1104 3.8104 13.9614 26.3422
748 1 -1.1104 1.01542 16.7345 23.4386
749 1 -1.1104 3.82975 16.8395 23.6362
750 2 2.2208 2.26666 21.0574 22.0736
747 1 -1.1104 6.79126 16.8127 23.5384
730 1 -1.1104 6.51953 14.047 26.4174
736 1 -1.1104 6.57289 19.5027 23.5851
667 2 2.2208 8.06346 18.2674 24.8801
608 1 -1.1104 12.219 14.0543 23.6547
673 1 -1.1104 9.41653 14.0079 26.3738
699 2 2.2208 8.02555 15.3307 22.138
440 2 2.2208 5.22236 -4.37798 16.5999
355 2 2.2208 7.96722 1.21154 13.8006
702 2 2.2208 -0.467011 9.82878 24.7597
703 2 2.2208 -0.501119 12.6476 21.9787
389 2 2.2208 7.96606 4.24935 27.8754
723 2 2.2208 -0.317925 18.2416 22.0536
516 2 2.2208 -0.486797 12.7037 16.3517
370 2 2.2208 13.5974 1.37802 13.6938
445 2 2.2208 13.6834 9.74612 22.2063
357 2 2.2208 10.826 4.29206 13.7038
377 2 2.2208 8.15003 15.4357 27.9272
359 2 2.2208 2.32616 6.89518 13.6282
369 2 2.2208 5.15641 21.0223 13.8062
380 2 2.2208 13.5863 18.2754 13.5669
400 2 2.2208 10.9116 12.4425 27.8219
383 2 2.2208 2.31241 4.14667 27.815
368 2 2.2208 2.43234 18.1538 13.6411
349 2 2.2208 2.4054 1.35919 13.7606
751 2 2.2208 5.21743 23.8606 5.34963
752 2 2.2208 5.41971 29.4407 5.23224
753 1 -1.1104 1.13251 25.3065 1.04285
754 1 -1.1104 1.00233 25.2939 3.80967
755 1 -1.1104 0.91607 22.5093 1.12341
756 1 -1.1104 0.946246 28.0402 1.04927
757 2 2.2208 5.13469 26.5844 2.51122
758 1 -1.1104 1.22584 22.5414 3.85399
759 1 -1.1104 1.05336 28.0466 3.87426
760 1 -1.1104 3.77589 25.2355 1.00288
761 2 2.2208 2.46962 23.8505 2.45836
762 2 2.2208 2.39581 29.4148 2.48317
763 1 -1.1104 3.82582 25.1642 3.83575
764 2 2.2208 2.37333 26.5504 5.24302
765 1 -1.1104 3.78163 22.3263 1.24934
766 1 -1.1104 3.80053 28.1268 1.07078
767 1 -1.1104 3.91662 22.2993 3.98008
768 1 -1.1104 3.84865 28.0144 3.84287
1028 1 -1.1104 6.63157 41.8937 9.38588
1068 2 2.2208 13.7775 32.2106 5.40446
774 1 -1.1104 6.73345 22.3877 1.05015
892 1 -1.1104 1.173 25.2974 6.74296
898 1 -1.1104 3.90949 25.3496 6.63118
899 1 -1.1104 3.7446 22.5656 6.78868
1018 1 -1.1104 6.75032 39.4475 12.2676
1079 2 2.2208 -0.390079 32.2413 8.05099
773 1 -1.1104 6.55596 25.1764 4.03682
776 1 -1.1104 6.55637 22.3992 3.89624
772 1 -1.1104 6.49122 25.1735 1.1948
777 1 -1.1104 6.46123 28.1103 3.74024
775 1 -1.1104 6.64861 28.1176 0.975744
778 2 2.2208 10.743 23.8877 5.24098
779 2 2.2208 10.8808 29.45 5.3229
780 1 -1.1104 12.1474 25.2503 1.04998
781 1 -1.1104 12.1403 25.0728 3.7848
782 1 -1.1104 12.3107 22.6047 1.08192
783 1 -1.1104 12.4314 27.8001 1.13039
784 2 2.2208 10.8437 26.6203 2.4591
785 1 -1.1104 12.0773 22.3792 3.97193
786 1 -1.1104 12.238 27.982 3.95061
787 1 -1.1104 9.46287 25.0947 1.00169
788 2 2.2208 8.04502 23.7834 2.43256
789 2 2.2208 8.05426 29.41 2.41889
790 1 -1.1104 9.20255 25.2396 3.89345
791 2 2.2208 8.10345 26.5831 5.37737
792 1 -1.1104 9.57446 22.387 0.852756
793 1 -1.1104 9.59447 28.084 1.09143
794 1 -1.1104 9.40921 22.3794 3.81898
795 1 -1.1104 9.38214 27.9439 3.88375
1530 1 -1.1104 9.40393 47.6437 0.933185
925 1 -1.1104 12.2447 25.3658 6.74858
930 1 -1.1104 9.56983 27.9842 6.67509
926 1 -1.1104 12.26 22.5373 6.55916
1131 2 2.2208 8.05941 37.7002 -0.305032
1072 2 2.2208 13.6535 23.9361 8.10672
1118 2 2.2208 10.8415 40.682 -0.419254
799 2 2.2208 5.28863 35.1303 5.28612
800 1 -1.1104 1.03087 30.772 1.14808
801 1 -1.1104 1.07576 36.4005 1.13217
803 1 -1.1104 0.979334 30.8643 4.00472
804 1 -1.1104 0.74279 36.3765 3.87764
806 1 -1.1104 1.06042 33.5268 1.07039
807 2 2.2208 5.23772 32.2208 2.53273
808 2 2.2208 5.14716 37.804 2.38022
809 1 -1.1104 1.12304 33.6 3.96718
811 1 -1.1104 3.85132 30.8904 0.981214
812 1 -1.1104 3.80643 36.4702 1.13607
813 2 2.2208 2.32564 35.0207 2.55815
814 1 -1.1104 3.82439 30.8153 3.81955
815 1 -1.1104 3.72964 36.524 3.83729
816 2 2.2208 2.4106 32.1526 5.34897
817 2 2.2208 2.35127 37.9388 5.29933
818 1 -1.1104 3.8868 33.6326 1.15588
819 1 -1.1104 3.85777 33.6342 3.96376
957 1 -1.1104 3.90465 33.6916 6.78359
1103 2 2.2208 13.7494 35.1619 13.7658
821 2 2.2208 -0.399916 37.7777 2.35434
820 2 2.2208 -0.339256 35.0343 5.30812
823 1 -1.1104 6.65997 30.7927 0.979034
951 1 -1.1104 6.81377 30.7321 6.71115
955 1 -1.1104 4.1604 30.8765 6.59133
956 1 -1.1104 3.91757 36.48 6.54296
949 1 -1.1104 1.15131 30.9053 6.70655
950 1 -1.1104 1.1862 36.6476 6.87042
844 2 2.2208 13.6919 34.943 2.55492
825 1 -1.1104 6.70279 33.6645 1.11896
824 1 -1.1104 6.72261 30.8338 3.88586
802 1 -1.1104 6.55303 36.3172 1.08481
810 1 -1.1104 6.55532 33.6021 3.96027
805 1 -1.1104 6.53023 36.5145 3.82879
826 2 2.2208 10.8574 35.0917 5.29381
827 1 -1.1104 12.3344 30.6647 1.10092
828 1 -1.1104 12.2446 36.4211 1.08871
829 1 -1.1104 12.1895 30.7087 3.91277
830 1 -1.1104 12.3724 36.4983 3.81109
831 1 -1.1104 12.4073 33.4059 1.17933
832 2 2.2208 10.9392 32.0881 2.52578
833 2 2.2208 10.9147 37.8322 2.31863
834 1 -1.1104 12.316 33.6813 3.97219
835 1 -1.1104 9.51061 30.8816 0.99948
836 1 -1.1104 9.52154 36.4315 1.07092
837 2 2.2208 8.01552 35.115 2.57305
838 1 -1.1104 9.57138 30.7376 3.84301
839 1 -1.1104 9.47791 36.353 3.72372
840 2 2.2208 8.03733 32.1466 5.34088
841 2 2.2208 8.02545 37.8806 5.18259