ITEM: TIMESTEP
100000
ITEM: NUMBER OF ATOMS
18000
ITEM: BOX BOUNDS pp pp pp
-4.1608125021501813e-01 2.7756081250215249e+01
-4.9722056288445602e+00 3.3305220562884040e+02
-4.1687308984354604e-01 2.7756873089842987e+01
ITEM: ATOMS id type x y z
3673 2 5.24716 0.824354 5.0237
5 2 2.40681 -1.83022 2.33616
6 1 4.27798 -0.327607 1.72266
14 2 5.57123 -2.03843 2.50554
9 1 3.69 -3.77003 3.40619
63 2 2.38939 1.21244 2.32918
10 1 0.869829 -2.86288 3.8278
3604 2 2.46466 -2.28325 5.54031
12 1 3.91713 -2.81639 0.825579
17952 1 0.828969 -2.70964 0.948541
3548 1 1.58767 -0.270645 4.03395
3551 1 4.15277 -1.22633 4.26661
14406 1 1.93539 -0.384265 0.612413
17 1 6.6614 -3.52331 1.09306
3609 1 3.93978 -3.53528 6.55856
18 1 6.65697 -3.45159 3.86775
15 2 7.98124 -4.96261 2.30777
3613 2 5.23949 -4.98089 5.12574
27 2 13.5964 -4.88655 2.37564
3721 2 -0.385175 6.38777 5.27824
3605 1 1.09833 -3.64117 6.78122
3617 1 6.75175 -3.55872 6.66222
3546 1 -0.472794 -0.0887328 1.83427
3615 2 8.08815 -4.91899 8.04399
20 1 6.77927 -0.518556 3.82344
3619 1 6.55168 -0.66227 6.54217
267 2 13.5757 17.7253 2.45635
19 1 6.73303 -0.616081 0.857821
3685 2 10.8803 0.735661 5.07431
30 1 12.2263 -3.49415 3.80967
31 1 12.2733 -0.761749 0.961025
26 2 10.8153 -2.07543 2.35177
32 1 12.1936 -0.548681 3.78375
21 1 9.43327 -0.431872 0.906871
75 2 8.05267 0.887264 2.33867
22 1 9.3629 -3.43557 3.70857
3616 2 7.99279 -2.01375 5.16985
24 1 9.34384 -0.694791 3.65037
3564 1 9.40975 -3.42633 0.987652
33 1 12.3026 -3.47497 0.971988
3623 1 9.42973 -0.690053 6.51886
7163 1 9.52191 -3.71455 6.55275
7203 2 2.34677 -4.94713 13.6047
148 2 13.5674 9.2541 -0.592353
3629 1 12.0928 -3.58128 6.53763
7228 2 13.6293 -2.08652 10.7449
3603 2 2.49978 -5.04547 8.03245
66 1 1.00197 2.23399 4.00215
7 1 0.835194 2.29074 0.917091
74 2 5.23704 3.64616 2.3062
70 1 3.77391 2.19355 3.75581
3664 2 2.35879 3.48325 5.418
11 1 3.62833 2.26499 0.745807
65 1 0.928629 4.90001 3.80843
69 1 3.58134 4.8909 3.82431
3733 2 5.02426 6.40735 5.13755
67 1 0.569525 7.5541 1.20679
68 1 0.951122 7.8524 3.94812
123 2 2.30942 6.40178 2.39484
71 1 3.89638 5.16088 1.1628
14518 1 1.06502 4.82648 1.11425
130 1 3.89584 7.72607 3.656
138 1 6.55161 7.91036 3.74361
137 1 6.43819 7.70808 0.847173
80 1 6.73825 4.80459 0.967814
78 1 6.51437 2.27614 3.67487
129 1 3.628 8.16125 0.939746
3665 1 0.995743 2.13273 6.7311
3671 1 3.76807 4.81967 6.77892
3725 1 1.01185 7.87801 6.80291
3737 1 6.54271 7.71528 6.4222
3729 1 3.70556 7.72773 6.50499
3667 1 1.08555 4.85321 6.66507
77 1 6.5345 2.05846 1.10625
72 1 6.42196 5.123 3.71129
3677 1 6.47383 2.10582 6.57688
89 1 12.1197 2.01101 0.983799
90 1 12.2341 2.30074 3.71125
86 2 10.7545 3.58121 2.35337
82 1 9.42343 2.33109 3.76445
3676 2 7.92433 3.59562 5.05725
23 1 9.41623 2.24363 0.919275
3689 1 12.0681 2.17081 6.5932
81 1 9.48421 4.99052 0.850841
3745 2 10.7104 6.35786 5.10901
91 1 12.2166 4.90057 0.972172
92 1 12.1831 5.02202 3.82873
135 2 7.88883 6.41502 2.40789
142 1 9.40523 7.7929 3.81809
83 1 12.0634 7.77402 1.0099
84 1 9.33148 5.13796 3.84029
14484 1 9.30815 7.75222 0.985058
150 1 12.1302 7.90167 3.72405
3688 2 13.5846 3.51179 5.17106
3683 1 9.37885 4.99994 6.5967
3749 1 12.1035 7.74617 6.50694
3741 1 9.27538 7.86383 6.55451
3625 2 10.7168 -4.96812 5.18065
3793 2 5.21333 12.1185 5.15833
126 1 4.09393 11.417 1.18237
134 2 5.24052 9.33037 2.30475
128 1 0.920023 10.7403 3.8623
183 2 2.3138 12.125 2.98801
3724 2 2.38192 9.29022 5.28905
132 1 3.75613 10.6108 3.94404
185 2 2.44476 12.0562 -0.126782
125 1 1.59468 10.2702 0.877601
140 1 6.49129 10.9379 3.59775
139 1 6.60749 10.6571 0.935025
127 1 0.674535 12.7417 1.47894
131 1 2.85875 13.9971 1.42518
189 1 0.988102 13.5937 4.20073
190 1 3.64372 13.5101 4.05392
197 1 6.30699 13.657 1.01514
186 1 0.877737 13.5185 6.84449
7213 2 5.23301 -4.76283 10.8456
198 1 6.59964 13.6216 3.85214
3805 2 10.8266 12.1076 5.21367
151 1 12.2942 10.6259 0.968425
146 2 10.7928 9.22749 2.32466
152 1 11.9913 10.7029 3.79826
141 1 9.36531 10.5436 0.822928
195 2 8.02574 12.0489 2.33819
3736 2 8.02675 9.18124 5.11702
144 1 9.28406 10.5125 3.74081
210 1 12.1676 13.5049 3.84754
201 1 9.36888 13.4955 1.29703
202 1 9.51483 13.3567 3.91956
213 1 11.9852 13.6729 0.932552
3751 1 12.3219 10.5305 6.67431
3809 1 12.177 13.4633 6.70505
3807 2 13.6433 12.0231 8.04076
3798 2 7.78588 14.8448 10.9396
3748 2 13.5779 9.19075 5.20236
194 2 5.0383 15.0042 2.51727
245 1 1.19162 19.2002 1.0253
3853 2 5.17027 17.8052 5.31558
246 1 0.985878 19.0709 3.63932
187 1 1.02229 16.6005 1.01858
254 2 5.28084 20.5892 2.36906
188 1 1.10738 16.2507 3.67392
249 1 4.02398 19.331 0.880457
243 2 2.46225 17.8246 2.39551
250 1 3.77302 19.1657 3.85529
3784 2 2.37852 14.9439 5.43509
3844 2 2.39358 20.4917 5.2575
191 1 3.95283 16.5233 1.01118
192 1 3.82722 16.5463 3.96958
199 1 6.56708 16.4094 1.17084
200 1 6.62982 16.4194 4.02127
258 1 6.51252 19.1846 3.75748
7225 2 10.824 -4.93693 10.7585
3845 1 1.22219 18.9578 6.57373
3787 1 0.993908 16.1967 6.80917
3791 1 3.79779 16.383 6.71956
3849 1 3.9842 19.259 6.75869
3866 2 10.9298 20.5249 7.86621
7348 2 13.4914 9.21014 10.7367
3803 1 9.38283 16.342 6.60556
257 1 6.58302 19.3023 1.03439
3796 2 8.07738 14.9531 5.21144
196 2 8.00605 15.0367 -0.0235588
206 2 10.7542 14.8583 2.46295
3865 2 10.9009 17.8195 5.24694
269 1 12.2885 19.1568 0.792284
270 1 12.2774 19.328 3.71443
211 1 12.1586 16.2562 0.988708
266 2 10.8901 20.5851 2.4021
212 1 12.1796 16.3362 3.85614
261 1 9.39969 19.2819 1.13465
255 2 8.03251 17.8217 2.3528
262 1 9.49744 19.2239 3.90169
3856 2 8.09021 20.4203 5.22736
203 1 9.30181 16.395 1.23636
204 1 9.57068 16.4478 3.95362
62 2 -0.430886 3.48633 2.60187
7403 1 9.31624 15.9754 12.2498
3861 1 9.39719 19.1932 6.71654
3811 1 12.2849 16.2159 6.69015
3855 2 7.98444 17.7876 8.0725
3806 2 10.7043 15.013 7.88757
3804 1 9.46238 16.3204 9.64811
147 2 13.481 6.39032 2.40024
3607 1 0.914253 -0.85337 6.63956
3611 1 3.65689 -0.797191 6.84727
7273 2 5.20911 0.804667 10.8338
7205 1 1.0639 -3.55554 12.3435
3606 1 1.10055 -3.58852 9.46295
7207 1 0.90217 -0.660715 12.3248
3614 2 5.27774 -2.08933 7.94603
3608 1 0.838624 -0.781147 9.55592
7209 1 3.8942 -3.45492 12.3434
3663 2 2.26982 0.636754 8.13131
3610 1 3.91104 -3.37838 9.45025
7204 2 2.36492 -1.97818 10.9029
7211 1 3.79053 -0.572469 12.2321
3612 1 3.70655 -0.570124 9.50742
7219 1 6.64457 -0.660062 12.335
3620 1 6.61016 -0.61137 9.45316
7217 1 6.71931 -3.5018 12.186
3631 1 12.327 -0.824041 6.52023
3661 2 -0.335979 0.645088 5.20456
3862 1 9.41405 19.1507 9.55473
3618 1 6.72541 -3.52195 9.41686
3621 1 9.57341 -3.4255 9.30379
7285 2 10.9084 0.704965 10.8553
7229 1 12.291 -3.59134 12.2322
7231 1 12.2105 -0.761076 12.2842
3626 2 10.9081 -2.12571 7.92798
3632 1 12.1267 -0.643889 9.38269
7221 1 9.47469 -3.55954 12.1049
3675 2 8.03484 0.744445 7.91506
3622 1 12.3322 -3.4884 9.26686
7216 2 8.07596 -2.04093 10.7849
7223 1 9.42507 -0.763426 12.1387
3624 1 9.35216 -0.766583 9.28204
3687 2 13.4432 0.74748 8.02204
182 2 -0.307133 14.8966 2.3477
3747 2 13.4814 6.43461 8.06254
7399 1 6.43173 16.219 12.363
7465 2 10.8625 18.094 10.862
241 2 -0.465327 17.8692 -0.210857
3679 1 6.55485 4.8792 6.43119
87 2 13.5152 0.731003 2.22181
3669 1 3.83815 1.98764 6.71921
7265 1 0.806777 2.031 12.5405
3666 1 0.868515 2.10567 9.48243
3674 2 5.15113 3.48849 8.15043
7269 1 3.5089 2.00019 12.2348
3670 1 3.70187 2.28158 9.46648
7264 2 2.2536 3.56384 10.7828
7277 1 6.57699 2.16482 12.3362
7333 2 5.14101 6.311 10.8072
7325 1 0.937666 7.67013 12.2669
3726 1 0.845757 7.6681 9.53685
7267 1 0.880883 4.822 12.3884
3668 1 1.06788 4.84335 9.37668
7329 1 3.79308 7.75848 12.2067
3723 2 2.29059 6.37403 8.17412
7271 1 3.66488 4.8296 12.2266
3672 1 3.80789 5.04409 9.39566
3730 1 3.74707 7.75503 9.36319
7279 1 6.54562 4.89577 12.2505
3738 1 6.33308 7.6674 9.35442
3680 1 6.57164 4.92047 9.29113
7337 1 6.49496 7.76243 12.1346
7461 1 9.45047 18.8165 12.3505
3869 1 12.2429 19.2893 6.45117
3681 1 9.26068 2.10546 6.58226
3691 1 12.166 5.02117 6.46554
3678 1 6.61489 2.2602 9.55584
7289 1 12.2355 2.14458 12.1027
3690 1 12.2707 2.16528 9.35544
3686 2 10.7781 3.68943 7.84807
7281 1 9.55971 2.15026 12.0807
3682 1 9.33401 2.10144 9.25876
7276 2 7.9796 3.45028 10.7806
3684 1 9.24888 4.83797 9.38193
7283 1 9.30117 5.05605 12.166
3742 1 9.44636 7.72136 9.31807
3735 2 7.87503 6.36263 7.8672
7345 2 10.6681 6.39504 10.8229
3750 1 12.1643 7.97892 9.26868
7291 1 12.0475 4.88354 11.9694
3692 1 11.9237 5.10571 9.27047
7341 1 9.08324 7.70465 12.0859
73 2 5.052 0.529862 -0.378185
7396 2 10.8609 14.9828 10.8916
7469 1 12.3204 19.1266 12.2744
3739 1 6.64496 10.6653 6.48133
7288 2 13.5543 3.58237 10.9163
3727 1 1.0158 10.7314 6.64648
3731 1 3.82583 10.7687 6.59941
7393 2 5.07763 11.9659 10.7761
7327 1 0.921805 10.6097 12.2177
3734 2 5.18554 9.18778 7.91103
3728 1 0.912645 10.5247 9.46208
3783 2 2.38764 12.0082 8.05135
7324 2 2.32251 9.03792 10.8566
7331 1 3.67765 10.6153 12.3081
3732 1 3.7851 10.5554 9.51205
3785 1 3.76223 13.4542 6.74439
3789 1 3.72486 13.4245 9.59868
7389 1 3.7911 13.4189 12.2694
3786 1 0.933265 13.4489 9.56449
7385 1 0.874123 13.5024 12.2474
3797 1 6.52539 13.3742 6.68375
7339 1 6.6342 10.6231 12.1913
3740 1 6.48432 10.4661 9.33482
7411 1 12.3143 16.2998 9.53044
3808 2 13.6317 14.8727 5.19762
3801 1 9.28334 13.5633 6.70242
3743 1 9.66318 10.6852 6.57779
7349 1 11.906 8.22078 11.9049
7397 1 6.5908 13.3456 12.1815
3790 1 6.70092 13.3078 9.45419
3802 1 9.49806 13.678 9.52514
7401 1 9.44618 13.498 12.2596
7409 1 12.3178 13.8536 12.0294
3810 1 12.0888 13.6529 9.44082
3744 1 9.22 10.6442 9.47392
7343 1 9.54322 10.7206 12.4938
7336 2 7.77369 9.01013 10.8044
3795 2 7.91605 12.0145 8.03475
7405 2 10.7357 11.8057 10.9002
3746 2 10.7143 9.13618 7.91003
3752 1 12.093 10.8999 9.44653
7351 1 12.2086 10.8185 12.3717
3870 1 12.386 19.0721 9.43254
7413 1 11.8399 16.4138 12.2346
7457 1 6.44381 18.8641 12.3639
3800 1 6.69268 16.2458 9.39705
3799 1 6.60389 16.2942 6.65522
7384 2 2.31926 14.8324 10.9239
3794 2 5.30964 14.8484 8.07233
3857 1 6.76707 19.1595 6.75154
3842 2 -0.243658 20.3076 7.70005
7391 1 3.62805 16.2735 12.3969
7444 2 2.49729 20.564 10.9415
7449 1 3.52038 19.1087 12.4915
3846 1 1.12655 19.2087 9.41084
3788 1 1.0126 16.3364 9.63114
3854 2 5.29905 20.5486 8.04611
7445 1 0.743599 19.3877 12.1927
7453 2 5.12642 17.7098 10.9796
3850 1 3.83688 18.9948 9.72407
3843 2 2.52085 17.7343 8.20914
3792 1 3.92736 16.2435 9.5699
7387 1 0.833835 16.5707 12.2544
3858 1 6.53692 19.0319 9.56244
7456 2 8.05029 20.4193 10.9124
207 2 13.5146 12.0788 2.33204
3601 2 -0.482 -4.79812 4.90668
7226 2 10.7331 -2.11069 13.6469
3841 2 -0.364206 17.558 5.10352
7274 2 5.13681 3.49213 13.6476
7335 2 7.85777 6.26746 13.5607
16 2 8.05539 -2.0409 -0.447401
208 2 13.5559 14.7871 -0.37134
85 2 10.8081 0.706466 -0.545366
7322 2 -0.453758 9.05825 13.6486
7383 2 2.48525 12.1257 13.7496
7346 2 10.8021 9.19586 13.7444
136 2 7.9619 9.02682 -0.490972
10873 2 5.19975 0.506266 16.5027
10805 1 0.840739 -3.66059 17.7693
7206 1 0.838725 -3.51645 15.0239
10807 1 0.965423 -0.811104 17.7288
10814 2 5.14273 -2.24564 19.2847
7208 1 0.998675 -0.780351 14.9314
10809 1 3.67346 -3.68379 17.8743
10863 2 2.3476 0.623212 19.1677
7210 1 3.69804 -3.69451 14.9549
10804 2 2.21407 -2.21344 16.3787
10811 1 3.71338 -0.84386 17.8339
7212 1 3.89488 -0.918982 15.0302
10810 1 3.71378 -3.42298 20.713
10812 1 3.72739 -0.78129 20.6357
10818 1 6.52534 -3.65244 20.5748
10806 1 0.77247 -3.58198 20.5417
10808 1 0.914854 -0.695975 20.565
10820 1 6.46557 -0.926716 20.5857
10887 2 13.6852 0.676271 19.1768
256 2 8.0404 18.3741 25.0472
10827 2 13.606 -4.97546 19.198
10819 1 6.63272 -0.794269 17.8214
7218 1 6.5646 -3.5782 15.0341
7220 1 6.75402 -0.643276 15.0377
10817 1 6.59154 -3.63128 17.721
10885 2 10.8105 0.639465 16.3912
10829 1 12.3327 -3.5334 17.8995
7230 1 12.2402 -3.66295 15.0269
10831 1 12.1896 -0.71672 17.8879
10826 2 10.9968 -2.1017 19.3511
7232 1 12.1468 -1.04447 15.1452
10821 1 9.55765 -3.60353 17.8321
10875 2 8.07656 0.55708 19.1829
7222 1 9.28209 -3.50261 14.9585
10816 2 8.01176 -2.1801 16.4271
10823 1 9.3871 -0.903043 17.6831
7224 1 9.29596 -0.639916 14.9078
10824 1 9.45623 -0.707731 20.5788
10830 1 12.2942 -3.63185 20.6985
10822 1 9.38525 -3.72211 20.6643
14603 1 8.0988 16.9133 23.264
14612 1 12.4567 16.3364 26.3156
29 2 10.7508 -4.94509 27.7052
10832 1 12.1759 -0.689899 20.6528
10865 1 1.0924 2.02147 17.7908
7266 1 1.01168 2.07091 15.1782
10874 2 5.1674 3.40309 19.241
10869 1 3.72461 2.09134 17.8046
7270 1 3.84973 2.0167 15.0221
10864 2 2.34123 3.5026 16.4592
7278 1 6.5753 2.09373 15.0847
10933 2 5.23292 6.33378 16.4806
10925 1 1.01134 7.81022 18.0189
7326 1 0.804643 7.69121 15.1276
10867 1 0.915361 5.01047 17.9021
7268 1 0.779908 4.86592 15.1721
10929 1 3.88099 7.75519 17.7265
10923 2 2.50288 6.32128 19.2254
7330 1 3.64282 7.67619 14.9775
10871 1 3.74157 4.91084 17.8419
7272 1 3.52388 4.89892 15.0321
10930 1 3.95194 7.66498 20.5602
10879 1 6.51969 4.87422 17.7528
7280 1 6.51929 4.87431 15.0209
10872 1 3.94913 5.01828 20.68
10926 1 1.28889 7.93094 20.6941
10866 1 1.06862 2.18609 20.7076
10870 1 3.86401 2.1241 20.5098
10868 1 1.1324 5.01479 20.7227
14665 2 10.5705 17.5702 22.3146
10877 1 6.59424 1.8692 17.8157
10937 1 6.8077 7.6149 17.8039
10880 1 6.78034 4.73669 20.5748
10878 1 6.58737 1.89489 20.4824
10938 1 6.67304 7.76794 20.6002
7338 1 6.50004 7.70545 14.9657
10889 1 12.2109 2.16118 17.9206
7290 1 12.2914 1.99816 14.8766
10886 2 10.7396 3.46717 19.2656
10881 1 9.47146 1.99332 17.8465
7282 1 9.44662 2.18371 15.0381
10876 2 7.94754 3.39376 16.4318
10890 1 12.2613 2.09186 20.8052
10945 2 10.8253 6.25838 16.4476
10891 1 12.1798 4.89117 17.8676
7292 1 11.9782 4.51483 15.1866
10941 1 9.46039 7.85382 17.8523
10935 2 8.08836 6.19766 19.2427
7342 1 9.18596 7.80364 14.9987
10883 1 9.40849 4.87551 17.7112
7284 1 9.31726 5.02742 15.0627
10949 1 12.1521 7.67784 17.9911
10942 1 9.58518 7.75937 20.7467
7350 1 11.9522 7.78725 15.1327
10884 1 9.58545 4.95899 20.5962
10892 1 12.2241 4.82575 20.5781
10950 1 12.4216 7.64677 20.8316
10993 2 5.19883 11.9532 16.4796
10927 1 0.959979 10.5108 17.7681
10934 2 5.25612 9.16602 19.3094
7328 1 0.891724 10.4907 15.1178
10983 2 2.45482 12.1108 19.2454
10924 2 2.34881 9.16996 16.5177
10931 1 3.7932 10.603 17.86
7332 1 3.60048 10.7398 15.2333
10928 1 0.956621 10.7167 20.6263
10985 1 1.10516 13.3925 17.8136
7386 1 0.994912 13.4373 15.0057
10989 1 3.79707 13.3485 17.7766
7390 1 3.76027 13.5114 15.0349
10986 1 1.06551 13.5738 20.6061
10990 1 3.84925 13.3929 20.5641
10932 1 3.76454 10.6018 20.7387
10813 2 5.11387 -4.91718 16.4927
14413 2 5.17033 -4.95266 22.1228
10998 1 6.65244 13.3851 20.6119
7340 1 6.34274 10.496 14.9952
10997 1 6.59073 13.2875 17.9123
7398 1 6.59595 13.3976 14.9914
10939 1 6.62049 10.526 17.8161
11005 2 10.8106 11.9966 16.5577
10951 1 12.1693 10.4569 18.0399
10946 2 10.8671 9.1172 19.3681
7352 1 12.1513 10.6361 15.1626
10995 2 8.03881 11.9297 19.2549
10936 2 7.98772 9.06891 16.4085
10943 1 9.44483 10.7361 17.9994
7344 1 9.41182 10.7004 15.2275
10940 1 6.5769 10.5625 20.6133
11009 1 12.2616 13.4559 17.843
7410 1 12.1739 13.5023 15.1418
11001 1 9.49164 13.506 17.8521
7402 1 9.43503 13.3351 15.0919
14661 1 9.43852 19.4123 23.5726
11010 1 12.2036 13.432 20.5506
10944 1 9.42775 10.5995 20.5573
11002 1 9.46501 13.509 20.663
14425 2 10.8407 -4.94988 22.0638
10984 2 2.39762 14.777 16.5288
10994 2 5.19327 14.7748 19.2362
11053 2 5.12393 17.7175 16.5783
11045 1 0.878916 19.1269 17.8634
7446 1 0.845235 19.0151 14.9402
10987 1 0.897893 16.4615 17.8433
11054 2 5.2836 20.5607 19.4638
7388 1 0.962212 16.2048 15.1412
11049 1 3.65243 19.1701 17.8902
11043 2 2.43367 17.7749 19.3418
7450 1 3.8268 19.1951 15.2035
11044 2 2.38505 20.5495 16.6421
10991 1 3.77661 16.1253 17.9132
7392 1 3.81221 16.3208 15.0953
11057 1 6.55201 19.1148 17.9492
11046 1 1.10578 19.2181 20.6613
11058 1 6.81332 19.2476 20.7794
10948 2 13.5695 9.09964 16.504
7395 2 8.01046 12.012 13.7386
10992 1 3.85998 16.3512 20.5412
10988 1 0.970907 16.3185 20.6369
13 2 5.22806 -4.86721 27.62
14606 1 10.0273 14.9532 26.9782
268 2 13.5627 20.4684 27.7394
11000 1 6.54594 16.395 20.4842
7458 1 6.5404 19.0277 15.223
10999 1 6.4501 16.2244 17.8318
11006 2 10.8107 14.8837 19.3004
7400 1 6.70563 16.2745 15.1973
7406 2 10.7943 14.8602 13.9333
10996 2 7.93317 14.8337 16.596
11065 2 10.8109 17.6664 16.5123
11069 1 12.5678 19.1839 18.0033
7470 1 12.2284 19.0938 15.125
11011 1 12.2045 16.2686 17.8392
11066 2 10.9022 20.5619 19.2725
7412 1 12.3727 16.2883 15.0242
11061 1 9.50433 19.1086 18.0476
11055 2 8.03631 17.8899 19.3241
7462 1 9.34856 18.8891 15.0043
11056 2 8.03353 20.6798 16.5039
11003 1 9.41418 16.2936 17.9121
7404 1 9.37043 16.1511 15.1684
11004 1 9.48336 16.4419 20.5696
11062 1 9.44997 19.0532 20.7728
14666 2 10.8736 20.4942 24.9514
25 2 13.5655 -4.98112 24.917
7394 2 5.21037 14.9737 13.7784
28 2 13.6022 -2.14471 27.7149
14488 2 13.6543 3.55355 22.0195
17948 1 0.879385 -3.6566 26.0919
14473 2 5.2316 0.526749 21.9767
14405 1 0.637015 -3.69891 23.4663
14407 1 0.862507 -0.640684 23.3383
14414 2 5.16231 -2.07655 24.9568
14408 1 1.06891 -0.833605 25.9165
14409 1 3.72837 -3.67321 23.4578
14463 2 2.3498 0.791714 24.7759
14410 1 3.81903 -3.77038 26.2402
14404 2 2.25836 -2.12866 22.0512
14411 1 3.63551 -0.773324 23.5232
14412 1 3.74571 -0.907487 26.4871
4 2 2.29164 -2.47984 27.361
14662 1 9.93309 16.9195 25.0612
14547 2 13.4899 6.17819 24.8134
10982 2 -0.366622 14.8544 19.208
14461 2 -0.446005 0.61622 22.0153
7466 2 11.017 20.5844 13.6663
14418 1 6.58809 -0.915458 26.2071
14417 1 6.57119 -3.50078 23.4199
14419 1 6.53877 -0.693088 23.412
10815 2 8.00524 -4.98087 19.1235
17964 1 6.66694 -3.61152 26.3445
3571 1 12.1928 -3.59007 26.3274
14485 2 10.7816 0.542278 22.0888
14429 1 12.1726 -3.58364 23.6157
14431 1 12.2837 -0.891708 23.5406
14426 2 10.7792 -2.08779 24.9384
14432 1 12.2313 -0.758015 26.2379
14421 1 9.39193 -3.5126 23.4874
14475 2 8.06714 0.68289 24.832
14422 1 9.40456 -3.45155 26.3299
14416 2 7.91544 -2.17029 22.0016
14423 1 9.39165 -0.984244 23.403
14424 1 9.43327 -0.724777 26.2163
11007 2 13.6199 11.8729 19.4232
181 2 -0.387537 11.8179 24.7458
10862 2 -0.364516 3.48667 19.2694
14487 2 13.5527 0.624193 24.8419
14420 1 6.53736 1.9259 26.5478
14465 1 0.888612 2.0286 23.3899
14466 1 1.04584 2.3115 26.2573
14474 2 5.35979 3.38608 24.8268
14469 1 3.96035 2.08938 23.4957
14470 1 3.84226 1.94184 26.0269
14464 2 2.5289 3.44836 22.1626
14477 1 6.5754 1.86078 23.2683
14533 2 5.1942 6.36075 22.0408
14525 1 0.963941 7.67732 23.488
14467 1 1.18828 4.62308 23.8761
14523 2 2.55315 6.24692 24.7832
14471 1 3.82489 4.93511 23.2648
14472 1 3.70306 4.78321 26.3196
14529 1 3.80063 7.80942 23.4976
14526 1 1.36745 6.51563 26.8123
14530 1 3.82211 7.72249 26.2395
14479 1 6.44874 4.77621 23.2752
14542 1 6.7299 7.61925 26.1829
14596 2 7.95162 14.9596 21.701
14480 1 6.48051 4.92121 26.3554
14537 1 6.6302 7.59305 23.3586
10882 1 9.26244 2.06773 20.5336
79 2 8.05838 3.47006 27.5169
14481 1 9.33723 1.71474 23.2722
35 1 11.9396 2.12481 26.3133
14489 1 12.1421 1.95248 23.5155
14482 1 9.3907 1.90318 26.3892
14476 2 8.05698 3.41437 22.1138
76 2 10.5868 3.48499 24.7892
14478 1 8.0554 3.44849 24.9563
14490 1 12.0331 4.93764 26.1327
14486 1 9.38324 5.09483 26.4156
14483 1 9.45987 4.91858 23.1852
14535 2 8.00462 6.10141 24.7985
14545 2 10.9126 6.36084 22.1294
14549 1 12.2315 7.73111 23.5788
14550 1 12.2523 7.88076 26.3596
14491 1 12.2633 4.83025 23.3867
14541 1 9.51608 7.62174 23.5635
149 1 9.43804 7.71468 26.2927
7286 2 10.7582 3.63033 13.5315
11041 2 -0.520833 17.6727 16.4529
7442 2 -0.382285 20.6331 13.7056
10947 2 13.5813 6.21398 19.2934
193 2 5.62593 12.1423 27.5897
14593 2 5.30207 12.0449 22.0467
14527 1 1.40601 11.3207 23.0643
14534 2 5.36287 9.08807 24.8498
14528 1 1.02389 9.82533 25.4946
14583 2 2.8914 12.0194 24.74
14524 2 2.55342 9.26103 22.1244
14531 1 4.0109 10.5253 23.6375
14532 1 3.59934 10.7616 26.5874
14586 1 0.911128 12.1606 26.4772
14540 1 5.41103 12.6628 25.1216
14598 1 3.87599 13.5791 27.002
14585 1 0.367989 13.5578 23.4106
14589 1 3.61715 13.5597 23.2361
14590 1 2.08216 14.4172 25.2443
124 2 1.95515 8.63228 27.4908
10952 1 12.1896 10.5769 20.6786
14538 1 6.63467 10.36 26.3639
14539 1 6.62554 10.4095 23.5167
209 2 10.4632 12.3465 27.4719
143 1 8.04378 12.8689 27.1365
14610 1 12.3486 13.3827 26.4091
14544 1 9.32273 10.4134 26.1773
14543 1 9.47632 10.6758 23.3018
14536 2 8.00381 9.10988 21.986
14595 2 7.94523 11.7191 24.9343
14605 2 10.8504 12.0153 22.1495
14551 1 12.2831 10.6142 23.5541
14546 2 10.9075 9.15652 24.8715
14552 1 12.1403 10.7585 26.3262
14597 1 7.63963 13.1261 23.1563
14609 1 12.3731 13.3276 23.5375
14602 1 9.79358 13.2965 25.1204
10861 2 -0.484143 0.640368 16.3806
11042 2 -0.273654 20.6541 19.3345
11050 1 3.92035 19.225 20.6797
14657 1 6.49625 19.3964 23.4989
14599 1 6.06432 15.1271 23.2649
14594 2 4.60495 14.992 25.0062
14582 2 -0.348664 15.2652 25.0416
14650 1 3.84348 19.4451 26.291
14653 2 5.1847 17.6538 22.2945
14584 2 2.25659 14.9511 22.177
14643 2 2.31804 17.9077 24.9337
14658 1 5.95355 17.2157 25.0367
14592 1 3.82514 16.6245 26.3734
14587 1 0.77146 16.3401 23.4642
14644 2 2.46108 20.5745 22.0509
14591 1 3.45087 16.6022 23.4168
14649 1 3.77378 19.2153 23.5509
14646 1 1.0106 19.4168 26.3112
14588 1 0.971333 16.7897 26.5046
14654 2 5.13026 20.7062 24.8893
14645 1 0.950311 19.1892 23.5484
14669 1 12.2725 19.1629 23.5245
88 2 13.4977 3.52315 27.7844
237 1 0.137448 14.5315 27.5134
14428 2 13.6111 -2.27632 22.111
11012 1 12.342 16.4108 20.5883
14601 1 9.91584 15.0626 23.1171
205 2 11.3506 14.9895 24.9645
11070 1 12.3626 19.3236 20.6148
14655 2 8.08847 15.105 24.8518
14604 1 8.08882 16.9776 26.8689
14664 1 9.52363 19.4343 26.4584
14660 1 6.63337 19.7201 26.4502
14611 1 12.438 16.3897 23.3948
14656 2 8.04526 20.6763 22.0597
14670 1 12.1767 18.9831 26.3446
14600 1 6.53357 14.7229 26.3372
10888 2 13.6305 3.46783 16.3439
7407 2 13.6404 11.9463 13.8408
64 2 2.23278 3.60212 27.7376
14581 2 -0.437176 12.1325 21.7017
14607 2 13.6708 11.8857 24.8965
14521 2 -0.386131 6.2417 21.9286
7454 2 5.3326 20.5661 13.8264
253 2 5.26565 17.9481 27.6234
14668 2 13.6913 20.4481 22.0691
10922 2 -0.344503 9.20637 19.131
265 2 10.6832 17.389 27.5971
145 2 10.7971 6.38978 27.7107
7275 2 8.04635 0.693444 13.5982
61 2 0.0350703 0.636749 27.7551
184 2 2.34486 15.3767 27.7576
244 2 2.46593 20.5768 27.6728
7323 2 2.26298 6.26371 13.7254
259 2 8.09752 20.7659 27.7818
133 2 5.15676 6.18482 27.6975
7263 2 2.42431 0.617982 13.712
7214 2 5.21579 -2.15254 13.6505
7443 2 2.3477 17.6701 13.8776
7455 2 7.87597 17.6433 13.8004
7287 2 13.6345 0.653595 13.5968
7334 2 5.14947 9.12622 13.5644
3913 2 5.35389 23.3719 5.16146
305 1 1.10009 22.1393 0.785879
306 1 1.10822 24.8903 3.88821
247 1 3.96607 22.1975 1.20358
314 2 5.39379 26.3779 2.4854
248 1 1.04443 21.9654 3.80299
308 1 1.09467 24.95 1.17755
309 1 3.80805 24.8067 1.08499
303 2 2.56387 23.3697 2.57937
310 1 3.86794 24.8968 3.94466
3904 2 2.48624 26.0414 5.40207
252 1 3.84263 21.9409 3.83701
312 1 3.79598 27.8111 3.84885
313 2 5.29068 23.4663 -0.345618
3851 1 4.01723 22.0349 6.63678
251 1 6.7251 22.042 1.1606
362 2 -0.344694 31.9237 2.46002
3909 1 3.78766 24.8306 6.72131
3917 1 6.619 24.7987 6.52428
3859 1 6.73617 21.8893 6.52255
318 1 6.72708 24.7658 3.79138
317 1 6.75001 24.836 0.974058
260 1 6.68122 21.9239 3.8602
3925 2 10.8825 23.4397 5.23364
329 1 12.2248 24.7425 1.1489
330 1 12.1364 24.8661 3.71002
271 1 12.3174 22.0877 0.934388
326 2 10.8827 26.2108 2.40968
272 1 12.2948 22.1829 3.8075
321 1 9.51845 24.8304 0.928453
315 2 8.11314 23.3358 2.40591
322 1 9.41104 24.8677 3.75188
3916 2 8.01703 26.1235 5.35211
263 1 9.50836 22.0028 1.13992
264 1 9.49467 21.9331 3.90127
316 2 8.49319 26.3526 -0.296948
3931 1 12.4125 27.7121 6.59979
3921 1 9.42371 24.9472 6.54065
4167 2 13.4379 45.9459 7.91295
366 1 1.33269 27.6265 0.995148
320 1 6.708 27.6384 3.89489
3965 1 0.898151 27.8141 3.86182
311 1 3.99599 27.6782 0.917949
3973 2 5.39995 29.0443 5.2626
363 2 2.27788 29.093 2.80761
426 1 1.02031 33.334 3.69839
367 1 1.01136 30.3924 0.959136
374 2 5.25395 31.9544 2.39595
368 1 0.960818 30.5689 3.91863
369 1 3.58161 30.5543 1.16096
370 1 3.93875 30.5855 3.90219
3964 2 2.52765 31.9235 5.27162
371 1 3.94676 33.3192 1.0875
372 1 3.8121 33.4165 3.78917
425 1 1.04083 33.1933 0.888669
380 1 6.80462 33.2158 3.6879
3971 1 4.01166 33.1493 6.51935
4047 2 13.6548 34.8127 7.93788
377 1 6.5109 30.4347 0.77285
378 1 6.66579 30.4656 3.67451
302 2 -0.343144 26.1416 2.59005
3907 1 1.14223 27.5366 6.59125
4021 2 -0.219224 34.584 5.08247
319 1 6.87771 27.6699 1.14964
324 1 9.38316 27.8961 4.03242
335 1 12.8098 27.502 0.843685
332 1 12.1586 27.5964 3.79264
379 1 6.74939 33.1592 0.943227
323 1 9.63879 27.7459 1.27994
3985 2 10.9193 29.0966 5.29305
375 2 8.10927 29.1124 2.50535
390 1 12.321 30.1816 0.856126
391 1 12.376 33.2293 1.03603
386 2 10.9565 31.8156 2.32387
392 1 12.4256 33.1839 3.7862
382 1 9.65928 30.5013 3.71107
3976 2 8.19487 31.8918 5.21668
383 1 9.60412 33.242 1.03579
384 1 9.62834 33.3057 3.85114
3989 1 12.3374 30.4212 3.70981
14778 1 9.26457 30.4584 1.01688
3981 1 9.49857 30.4774 6.57195
7695 2 8.02494 40.1323 13.7406
4033 2 5.20048 34.6656 5.24694
434 2 5.34213 37.6585 2.36163
429 1 4.00904 36.1171 1.0428
423 2 2.52024 34.8788 2.35072
430 1 3.84715 36.149 3.76925
4024 2 2.54635 37.4821 5.19574
428 1 1.04188 36.0601 3.91549
427 1 1.13002 36.0034 0.924013
483 2 2.46427 40.1827 2.47172
4084 1 1.1006 38.8194 3.8788
431 1 4.01693 38.8684 1.03754
432 1 3.92166 38.9462 3.79817
486 1 1.38259 38.8402 0.9876
4093 2 5.33368 40.2203 5.26157
440 1 6.63769 38.9699 3.65273
7696 2 7.76026 43.1782 10.8598
4112 2 10.8459 43.0747 10.8439
439 1 6.78362 38.7801 0.822817
4031 1 3.80145 38.8135 6.52204
4037 1 6.69834 36.1834 6.5791
4102 1 9.45109 41.8884 9.58543
7703 1 9.47375 44.4081 12.3492
4106 2 10.8696 43.2443 7.70102
438 1 6.7132 36.0331 3.8493
437 1 6.77634 36.0304 1.13291
4045 2 10.8266 34.6067 5.18501
449 1 12.4108 36.1019 1.05684
450 1 12.2918 35.946 3.78034
446 2 11.0423 37.4011 2.30698
441 1 9.60541 36.1166 0.98706
435 2 8.24582 34.6812 2.4217
442 1 9.55385 36.0836 3.79563
4036 2 8.09056 37.413 5.19939
451 1 12.5347 38.9446 0.996189
452 1 12.1624 38.7086 3.88999
443 1 9.61698 38.9068 0.928018
444 1 9.47321 38.7965 3.71056
4105 2 10.8333 40.1906 5.21916
495 2 8.12765 40.2227 2.25225
4043 1 9.52647 38.7077 6.48172
570 1 10.9391 45.9858 8.04022
422 2 -0.232195 37.6613 2.48983
4081 2 -0.352032 40.332 5.19061
7765 2 10.8397 46.2564 10.7565
4153 2 5.146 45.9189 5.14237
485 1 1.14811 41.5705 3.73694
487 1 0.978542 41.5935 0.896613
494 2 5.29366 43.0827 2.29004
488 1 1.05346 44.3562 3.46024
489 1 3.84116 41.6141 1.01473
543 2 2.52134 45.7765 2.34919
490 1 3.87789 41.7462 3.8004
491 1 3.95467 44.4473 0.900425
492 1 3.86896 44.3802 3.72233
482 2 2.52923 43.0225 5.09228
14888 1 1.06983 44.3971 0.885391
4087 1 0.993173 44.4533 6.39322
4100 1 6.44622 44.6355 9.44948
4085 1 0.937002 41.7107 6.49314
4101 1 9.35901 41.6075 6.63843
4155 2 8.10666 45.9606 8.00539
4097 1 6.53924 41.7559 6.59459
4103 1 9.13683 44.45 6.5954
499 1 6.79371 44.4658 0.896838
497 1 6.70058 41.6449 0.906987
498 1 6.72232 41.5376 3.70026
500 1 6.59284 44.443 3.641
4170 1 12.1867 44.5622 6.0616
4165 2 10.7475 46.0424 5.28047
509 1 12.3886 41.8522 0.985241
510 1 12.4069 41.6173 3.97662
506 2 10.8146 42.9413 2.28425
512 1 12.2166 44.418 3.12089
501 1 9.63757 41.4387 1.09206
555 2 8.05435 45.8965 2.28019
502 1 9.50927 41.7414 3.8345
4096 2 7.89193 42.9866 5.03523
503 1 9.47891 44.2333 1.13258
504 1 9.35733 44.495 3.83217
4109 1 12.4255 41.8921 6.91249
4111 1 12.2102 44.2345 9.47848
3905 1 1.06715 24.7169 6.82579
4110 1 12.2211 41.5991 9.70219
3852 1 1.16973 21.9232 6.78522
7459 1 3.83287 21.9588 9.53571
7501 2 0.0928921 23.8641 11.2978
7513 2 5.40099 23.4353 10.8817
7505 1 1.45978 24.9606 12.5878
3906 1 1.47767 24.6833 9.76129
7447 1 1.14842 22.1541 12.5456
3914 2 5.19823 26.1824 8.10477
7509 1 4.09044 24.9689 12.4814
3903 2 2.4222 23.3006 8.11327
3910 1 3.95457 24.796 9.54105
7504 2 2.72903 26.3148 11.1122
7451 1 3.81868 21.8835 12.5852
3848 1 0.657707 22.0367 9.63034
7515 1 6.40825 21.6749 11.9864
7507 1 1.11729 27.7426 12.4499
3860 1 6.91633 21.742 9.24653
3919 1 6.77689 27.6824 6.77762
3863 1 9.57165 22.0733 6.58826
7517 1 6.72903 24.8345 11.9927
3918 1 6.69025 24.7312 9.22986
3871 1 12.5005 21.9049 6.60226
3929 1 12.2633 24.7855 6.6523
7528 2 13.3554 26.1315 10.7027
7463 1 9.65305 21.6399 11.8581
7525 2 10.8349 23.3103 10.8184
7529 1 12.567 24.9255 12.3538
3930 1 12.126 24.646 9.47635
7471 1 12.5164 21.9804 12.3523
3926 2 10.8797 26.2326 7.89199
3872 1 12.5633 21.6808 9.40862
7521 1 9.87377 25.0773 12.0753
3915 2 8.05244 23.3721 8.04257
3922 1 9.3432 24.8484 9.25781
7516 2 8.20231 26.2625 10.8388
3864 1 9.79945 22.1721 9.24537
3967 1 0.972036 30.5687 6.68848
3911 1 4.08374 27.5165 6.6094
3969 1 3.88289 30.4189 6.69606
4099 1 6.50434 44.4641 6.6386
3912 1 4.02218 27.6385 9.55729
3908 1 1.29375 27.5512 9.5503
3920 1 6.86978 27.662 9.52422
7511 1 3.84473 27.8199 12.4085
7561 2 -0.0818512 29.0685 10.755
7573 2 5.38133 29.0943 10.9374
3963 2 2.57816 28.9874 7.99592
3968 1 1.13265 33.2292 6.65557
7565 1 0.979313 30.5519 11.9762
3966 1 1.1296 30.4688 9.29712
7567 1 1.19662 33.4253 9.72501
3974 2 5.36794 31.7254 8.04582
7569 1 4.00052 30.5628 12.0954
3970 1 3.96415 30.4269 9.4104
7564 2 2.51709 31.7631 10.7903
7571 1 3.55787 33.2723 12.0773
3972 1 3.89915 33.2486 9.33985
7579 1 6.51436 32.9869 12.059
3978 1 6.79494 30.3938 9.38178
3980 1 6.67542 33.2103 9.19769
3977 1 6.76288 30.5029 6.55804
3979 1 6.79987 33.351 6.5273
3990 1 12.384 30.4198 6.72798
7519 1 6.56437 27.7013 12.2648
3923 1 9.71984 27.7382 6.70338
3924 1 9.696 27.6009 9.44865
7531 1 12.2099 27.5305 12.2581
7577 1 6.96114 30.3066 12.2334
4104 1 9.4903 44.4701 9.7614
3932 1 12.3913 27.6414 9.38657
7523 1 9.35648 27.9938 12.1539
7585 2 10.9577 29.1456 10.7835
3975 2 8.15173 29.0893 8.03051
3991 1 12.1783 33.1591 6.5682
3983 1 9.42941 33.3453 6.74872
7591 1 12.1741 33.2455 12.3357
3986 2 10.8908 31.8408 8.08584
3992 1 12.4677 33.3263 9.52495
7581 1 12.5049 30.4455 12.2963
3982 1 9.47545 30.4412 9.31635