LAMMPS (29 Oct 2020)
OMP_NUM_THREADS environment is not set. Defaulting to 1 thread. (../comm.cpp:94)
  using 1 OpenMP thread(s) per MPI task
OMP_NUM_THREADS environment is not set. Defaulting to 1 thread. (../comm.cpp:94)
  using 1 OpenMP thread(s) per MPI task
Reading data file ...
  orthogonal box = (-0.38814644 -4.9123408 -0.40172772) to (27.728146 332.99234 27.741728)
  2 by 13 by 2 MPI processor grid
  reading atoms ...
  17910 atoms
  reading velocities ...
  17910 velocities
Finding 1-2 1-3 1-4 neighbors ...
  special bond factors lj:    0.0      0.0      0.0     
  special bond factors coul:  0.0      0.0      0.0     
     0 = max # of 1-2 neighbors
     0 = max # of 1-3 neighbors
     0 = max # of 1-4 neighbors
     1 = max # of special neighbors
  special bonds CPU = 0.004 seconds
  read_data CPU = 0.099 seconds
Setting atom values ...
  11940 settings made for charge
Setting atom values ...
  5970 settings made for charge
PPPM initialization ...
  using 12-bit tables for long-range coulomb (../kspace.cpp:328)
  G vector (1/distance) = 0.2986675
  grid = 40 240 40
  stencil order = 5
  estimated absolute RMS force accuracy = 0.00015870539
  estimated relative force accuracy = 1.1021479e-05
  using single precision MKL FFT
  3d grid and FFT values/proc = 15000 7600
Neighbor list info ...
  update every 1 steps, delay 0 steps, check yes
  max neighbors/atom: 2000, page size: 100000
  master list distance cutoff = 11.3
  ghost atom cutoff = 11.3
  binsize = 5.65, bins = 5 60 5
  2 neighbor lists, perpetual/occasional/extra = 2 0 0
  (1) pair coul/long, perpetual
      attributes: half, newton on
      pair build: half/bin/newton
      stencil: half/bin/3d/newton
      bin: standard
  (2) pair eam/alloy, perpetual, copy from (1)
      attributes: half, newton on
      pair build: copy
      stencil: none
      bin: none
Setting up Verlet run ...
  Unit style    : metal
  Current step  : 0
  Time step     : 0.001
Per MPI rank memory allocation (min/avg/max) = 8.152 | 8.176 | 8.190 Mbytes
Step Temp E_pair E_mol TotEng Press 
       0          900   -233484.79            0   -231401.36   -1018.5918 
  100000    906.30659   -233494.55            0   -231396.52   -1420.5848 
Loop time of 651.534 on 52 procs for 100000 steps with 17910 atoms

Performance: 13.261 ns/day, 1.810 hours/ns, 153.484 timesteps/s
99.8% CPU use with 52 MPI tasks x 1 OpenMP threads

MPI task timing breakdown:
Section |  min time  |  avg time  |  max time  |%varavg| %total
---------------------------------------------------------------
Pair    | 435.31     | 449        | 460.45     |  30.0 | 68.91
Bond    | 0.0076501  | 0.010724   | 0.016771   |   1.8 |  0.00
Kspace  | 127.38     | 140.47     | 155.43     |  62.4 | 21.56
Neigh   | 38.95      | 42.258     | 45.134     |  23.0 |  6.49
Comm    | 14.485     | 15.458     | 17.529     |  19.0 |  2.37
Output  | 5.6602e-05 | 6.1409e-05 | 0.0002608  |   0.0 |  0.00
Modify  | 1.6854     | 3.0593     | 4.9435     |  60.2 |  0.47
Other   |            | 1.284      |            |       |  0.20

Nlocal:        344.423 ave         366 max         310 min
Histogram: 1 1 2 2 5 15 9 7 6 4
Nghost:        4068.21 ave        4157 max        3954 min
Histogram: 3 0 3 9 7 9 3 8 6 4
Neighs:        69215.7 ave       73976 max       61216 min
Histogram: 2 2 0 2 4 12 9 12 7 2

Total # of neighbors = 3599214
Ave neighs/atom = 200.96114
Ave special neighs/atom = 0.0000000
Neighbor list builds = 19765
Dangerous builds = 0
11940 atoms in group oxygen
PPPM initialization ...
  using 12-bit tables for long-range coulomb (../kspace.cpp:328)
  G vector (1/distance) = 0.2986675
  grid = 40 240 40
  stencil order = 5
  estimated absolute RMS force accuracy = 0.00015870539
  estimated relative force accuracy = 1.1021479e-05
  using single precision MKL FFT
  3d grid and FFT values/proc = 15000 7600
Setting up Verlet run ...
  Unit style    : metal
  Current step  : 0
  Time step     : 0.001
Per MPI rank memory allocation (min/avg/max) = 8.403 | 8.427 | 8.441 Mbytes
Step f_2 Temp v_Tdiff v_deltaT 
       0            0    906.30659            0            0 
  100000    1020.7734    904.98343  0.029416632    341.52436 
  200000    2015.8738    905.53709  0.034981638    406.13356 
  300000     3005.934    906.63632  0.032708504    379.74269 
  400000    4005.2088    904.91554  0.033562564    389.65825 
  500000     4993.581    897.80723  0.033792202    392.32433 
  600000    5984.4155    900.14155  0.033829248    392.75443 
  700000    6982.5129    900.76725  0.033584748     389.9158 
  800000    7978.1641    897.91593   0.03340895    387.87481 
  900000    8971.1715    905.87888  0.034069199    395.54023 
 1000000     9968.424     901.3525  0.033702747    391.28576 
 1100000    10960.741    898.45574    0.0334382     388.2144 
 1200000    11945.319    905.18336  0.035269979    409.48118 
 1300000    12929.947    901.75219  0.034201249    397.07332 
 1400000    13914.194    910.93304  0.035321789    410.08268 
 1500000    14909.829    901.41369  0.033804805    392.47065 
Loop time of 9670.58 on 52 procs for 1500000 steps with 17910 atoms

Performance: 13.401 ns/day, 1.791 hours/ns, 155.110 timesteps/s
99.8% CPU use with 52 MPI tasks x 1 OpenMP threads

MPI task timing breakdown:
Section |  min time  |  avg time  |  max time  |%varavg| %total
---------------------------------------------------------------
Pair    | 6396.1     | 6615.5     | 6808.9     | 126.3 | 68.41
Bond    | 0.10735    | 0.15433    | 0.25054    |   7.4 |  0.00
Kspace  | 1903.7     | 2123.6     | 2361       | 246.1 | 21.96
Neigh   | 592.72     | 646.69     | 693.07     |  86.1 |  6.69
Comm    | 220.45     | 233.22     | 270.02     |  80.8 |  2.41
Output  | 0.0015888  | 0.001676   | 0.003456   |   0.6 |  0.00
Modify  | 8.0458     | 8.6794     | 9.3213     |  12.0 |  0.09
Other   |            | 42.75      |            |       |  0.44

Nlocal:        344.423 ave         371 max         320 min
Histogram: 4 2 3 8 11 9 9 3 1 2
Nghost:        4094.94 ave        4209 max        3968 min
Histogram: 3 2 6 3 5 12 10 3 4 4
Neighs:        69231.0 ave       74760 max       61947 min
Histogram: 3 1 3 2 5 13 14 6 3 2

Total # of neighbors = 3600014
Ave neighs/atom = 201.00581
Ave special neighs/atom = 0.0000000
Neighbor list builds = 301978
Dangerous builds = 0
Total wall time: 2:52:02
