LAMMPS (29 Oct 2020)
OMP_NUM_THREADS environment is not set. Defaulting to 1 thread. (../comm.cpp:94)
  using 1 OpenMP thread(s) per MPI task
OMP_NUM_THREADS environment is not set. Defaulting to 1 thread. (../comm.cpp:94)
  using 1 OpenMP thread(s) per MPI task
Reading data file ...
  orthogonal box = (-0.40626433 -4.9971621 -0.41693556) to (27.746264 333.07716 27.756936)
  2 by 13 by 2 MPI processor grid
  reading atoms ...
  18000 atoms
  reading velocities ...
  18000 velocities
Finding 1-2 1-3 1-4 neighbors ...
  special bond factors lj:    0.0      0.0      0.0     
  special bond factors coul:  0.0      0.0      0.0     
     0 = max # of 1-2 neighbors
     0 = max # of 1-3 neighbors
     0 = max # of 1-4 neighbors
     1 = max # of special neighbors
  special bonds CPU = 0.003 seconds
  read_data CPU = 0.043 seconds
Setting atom values ...
  12000 settings made for charge
Setting atom values ...
  6000 settings made for charge
PPPM initialization ...
  using 12-bit tables for long-range coulomb (../kspace.cpp:328)
  G vector (1/distance) = 0.29862577
  grid = 40 240 40
  stencil order = 5
  estimated absolute RMS force accuracy = 0.00015944037
  estimated relative force accuracy = 1.1072521e-05
  using single precision MKL FFT
  3d grid and FFT values/proc = 15000 7600
Neighbor list info ...
  update every 1 steps, delay 0 steps, check yes
  max neighbors/atom: 2000, page size: 100000
  master list distance cutoff = 11.3
  ghost atom cutoff = 11.3
  binsize = 5.65, bins = 5 60 5
  2 neighbor lists, perpetual/occasional/extra = 2 0 0
  (1) pair coul/long, perpetual
      attributes: half, newton on
      pair build: half/bin/newton
      stencil: half/bin/3d/newton
      bin: standard
  (2) pair eam/alloy, perpetual, copy from (1)
      attributes: half, newton on
      pair build: copy
      stencil: none
      bin: none
Setting up Verlet run ...
  Unit style    : metal
  Current step  : 0
  Time step     : 0.001
Per MPI rank memory allocation (min/avg/max) = 8.155 | 8.178 | 8.190 Mbytes
Step Temp E_pair E_mol TotEng Press 
       0         1500   -234499.82            0   -231009.99    7643.7773 
  100000    1492.1213   -232477.09            0   -229005.59    39868.244 
Loop time of 655.686 on 52 procs for 100000 steps with 18000 atoms

Performance: 13.177 ns/day, 1.821 hours/ns, 152.512 timesteps/s
99.8% CPU use with 52 MPI tasks x 1 OpenMP threads

MPI task timing breakdown:
Section |  min time  |  avg time  |  max time  |%varavg| %total
---------------------------------------------------------------
Pair    | 409.17     | 418.95     | 427.06     |  21.0 | 63.89
Bond    | 0.0068024  | 0.01082    | 0.016001   |   2.0 |  0.00
Kspace  | 151.95     | 162.94     | 172.8      |  41.8 | 24.85
Neigh   | 48.123     | 50.378     | 54.73      |  23.4 |  7.68
Comm    | 16.217     | 17.146     | 19.544     |  22.6 |  2.61
Output  | 6.1801e-05 | 6.9225e-05 | 0.00026365 |   0.0 |  0.00
Modify  | 2.9612     | 4.5995     | 6.5599     |  55.4 |  0.70
Other   |            | 1.661      |            |       |  0.25

Nlocal:        346.154 ave         368 max         334 min
Histogram: 5 6 12 9 8 7 1 2 0 2
Nghost:        4075.83 ave        4164 max        3995 min
Histogram: 7 3 5 3 9 7 6 5 5 2
Neighs:        70209.7 ave       74495 max       67125 min
Histogram: 3 8 7 10 5 5 7 5 1 1

Total # of neighbors = 3650903
Ave neighs/atom = 202.82794
Ave special neighs/atom = 0.0000000
Neighbor list builds = 24982
Dangerous builds = 0
12000 atoms in group oxygen
PPPM initialization ...
  using 12-bit tables for long-range coulomb (../kspace.cpp:328)
  G vector (1/distance) = 0.29862577
  grid = 40 240 40
  stencil order = 5
  estimated absolute RMS force accuracy = 0.00015944037
  estimated relative force accuracy = 1.1072521e-05
  using single precision MKL FFT
  3d grid and FFT values/proc = 15000 7600
Setting up Verlet run ...
  Unit style    : metal
  Current step  : 0
  Time step     : 0.001
Per MPI rank memory allocation (min/avg/max) = 8.406 | 8.429 | 8.441 Mbytes
Step f_2 Temp v_Tdiff v_deltaT 
       0            0    1492.1213            0            0 
  100000    1568.0863    1504.6804  0.072807269    845.28563 
  200000      3017.72     1502.814  0.086552561    1004.8672 
  300000    4467.1657    1509.0545  0.087702628    1018.2194 
  400000    5916.7707    1506.4821  0.087963427    1021.2472 
  500000    7365.5983    1520.3947   0.08940978    1038.0392 
  600000    8819.6847    1509.7441  0.087001848    1010.0834 
  700000    10273.736    1513.1858  0.088503928    1027.5224 
  800000    11730.588    1506.9571  0.086765418    1007.3384 
  900000    13179.977    1519.1531  0.088615374    1028.8163 
 1000000     14643.46    1517.8921  0.087791061    1019.2461 
Loop time of 6250.1 on 52 procs for 1000000 steps with 18000 atoms

Performance: 13.824 ns/day, 1.736 hours/ns, 159.997 timesteps/s
100.0% CPU use with 52 MPI tasks x 1 OpenMP threads

MPI task timing breakdown:
Section |  min time  |  avg time  |  max time  |%varavg| %total
---------------------------------------------------------------
Pair    | 3980.8     | 4062.5     | 4143.3     |  58.5 | 65.00
Bond    | 0.080205   | 0.10702    | 0.15013    |   5.0 |  0.00
Kspace  | 1373.1     | 1469.5     | 1546.7     | 104.6 | 23.51
Neigh   | 485.64     | 508.46     | 532.49     |  52.5 |  8.14
Comm    | 157.46     | 167.63     | 200.28     |  88.8 |  2.68
Output  | 0.0010454  | 0.0011176  | 0.0022998  |   0.5 |  0.00
Modify  | 5.3558     | 5.9625     | 6.6861     |  10.7 |  0.10
Other   |            | 35.96      |            |       |  0.58

Nlocal:        346.154 ave         365 max         331 min
Histogram: 1 6 9 9 7 6 6 4 2 2
Nghost:        4078.77 ave        4168 max        4004 min
Histogram: 7 6 2 8 7 5 3 6 6 2
Neighs:        70191.7 ave       74412 max       66542 min
Histogram: 2 5 8 4 10 9 6 3 3 2

Total # of neighbors = 3649969
Ave neighs/atom = 202.77606
Ave special neighs/atom = 0.0000000
Neighbor list builds = 254040
Dangerous builds = 0
Total wall time: 1:55:06
