ITEM: TIMESTEP
100000
ITEM: NUMBER OF ATOMS
18000
ITEM: BOX BOUNDS xy xz yz pp pp pp
-1.0585854633508357e-01 2.7999858546335439e+01 0.0000000000000000e+00
-1.2600499911486478e+00 3.3598804999114287e+02 0.0000000000000000e+00
-1.1842446050860253e-01 2.8012424460508967e+01 0.0000000000000000e+00
ITEM: ATOMS id type x y z
1 1 1.11396 0.15834 1.31543
2 1 4.08216 0.268854 1.05412
3 1 3.99521 0.314329 3.97212
4 1 1.06419 0.383232 4.23551
5 1 1.18931 3.02125 1.1911
6 1 4.07119 3.03892 1.29168
7 1 3.95094 3.09857 4.11888
8 1 1.03603 3.18616 3.84215
9 1 6.80804 -0.0043172 1.23121
10 1 9.59049 0.179871 1.3688
11 1 9.68978 0.237607 4.10963
12 1 6.92973 0.406218 4.00735
13 1 6.93199 3.04259 1.33037
14 1 9.75333 2.96437 1.15517
15 1 9.71514 2.96013 3.9561
16 1 6.88784 3.14568 4.14554
17 1 12.4178 -0.0125883 1.39626
18 1 12.5562 0.15124 4.12352
19 1 12.5324 2.94547 1.27711
20 1 12.454 3.09973 4.20094
21 1 1.26418 5.76241 1.23145
22 1 4.04952 5.71619 1.04058
23 1 3.94315 5.84612 4.03171
24 1 1.2024 5.8422 4.07128
25 1 1.15922 8.65502 1.19028
26 1 4.08573 8.70709 1.22944
27 1 4.07173 8.74903 4.1019
28 1 1.30191 8.68935 4.0719
29 1 6.94763 5.93695 1.13829
30 1 9.60419 5.89476 1.32047
31 1 9.60868 5.82405 4.22184
32 1 6.81004 5.84353 3.84854
33 1 6.74697 8.58718 1.24436
34 1 9.50019 8.66253 1.0079
35 1 9.52597 8.60519 3.78908
36 1 6.8577 8.80646 4.02225
37 1 12.208 5.72613 1.20372
38 1 12.4136 5.92866 3.99748
39 1 12.2903 8.55882 1.0791
40 1 12.3315 8.69372 3.94247
41 1 1.33242 11.4883 1.21112
42 1 3.96808 11.4512 1.19902
43 1 4.045 11.5893 4.04911
44 1 1.125 11.4555 3.93356
45 1 1.32067 14.298 1.20235
46 1 4.04962 14.2712 1.13945
47 1 4.01054 14.2365 4.01882
48 1 1.33678 14.2246 3.87936
49 1 6.82397 11.37 1.17696
50 1 9.61527 11.3442 1.1489
51 1 9.47261 11.4082 4.19016
52 1 6.71253 11.6594 4.07005
53 1 6.86261 14.1617 1.31224
54 1 9.46909 14.1176 1.19106
55 1 9.69472 14.261 3.8882
56 1 6.80451 14.29 4.00914
57 1 12.6183 11.304 0.984811
58 1 12.3188 11.487 3.84431
59 1 12.3582 14.164 1.13997
60 1 12.4768 14.1296 3.91857
61 1 0.907988 17.2155 1.0855
62 1 3.97768 17.2006 1.23282
63 1 4.06584 17.0714 3.89304
64 1 1.29992 16.9997 3.92331
65 1 1.04823 19.9365 1.19808
66 1 3.97543 20.0568 1.1994
67 1 3.98876 20.0005 3.81509
68 1 1.01889 19.9642 3.74623
69 1 6.82506 16.8677 1.23766
70 1 9.51442 16.9055 1.24089
71 1 9.56232 17.172 3.84414
72 1 6.83207 17.1149 3.88929
73 1 6.66976 19.8635 1.25449
74 1 9.46144 19.773 1.14109
75 1 9.58596 19.8585 3.88028
76 1 6.77064 19.8914 4.04089
77 1 12.4326 17.0647 1.13103
78 1 12.3047 16.9899 3.88721
79 1 12.4809 22.7722 1.02546
80 1 12.3051 19.8196 3.79314
81 1 1.08606 22.6927 1.2783
82 1 3.97489 22.8758 1.03928
83 1 3.91568 22.7743 4.0147
84 1 1.19857 22.7488 3.95656
85 1 6.85249 22.7167 1.24281
86 1 9.64148 22.6288 1.21166
87 1 9.57842 22.6714 4.00206
88 1 6.85159 22.704 3.93342
15071 2 13.7728 12.6174 5.24598
90 1 12.3595 22.6454 3.86749
91 1 1.19015 0.224711 7.06185
92 1 3.82597 0.131483 6.8726
93 1 4.05283 0.314688 9.64991
94 1 1.27988 0.250724 9.77834
95 1 1.23616 3.01898 6.8211
96 1 4.12154 3.11066 6.88916
97 1 3.99193 3.05261 9.68563
98 1 1.20498 3.04199 9.75417
99 1 6.61226 0.418218 6.74544
100 1 9.74523 0.278576 6.82219
101 1 9.56575 0.231509 9.79117
102 1 6.98002 0.250191 9.51175
103 1 6.7544 3.04309 7.10241
104 1 9.69852 2.95656 6.82212
105 1 9.55206 2.99508 9.73765
106 1 6.73702 2.79388 9.91079
107 1 12.4418 0.272525 7.00954
108 1 12.4157 0.222283 9.7079
109 1 12.4224 2.97708 6.93216
110 1 12.3742 3.16605 9.73708
111 1 1.10967 5.71146 6.9446
112 1 4.16344 6.02758 6.89271
113 1 4.12833 5.86369 9.68678
114 1 1.37839 5.97077 9.59135
115 1 1.27191 8.61074 6.82702
116 1 4.0817 8.76177 7.03769
117 1 3.93829 8.47999 9.826
118 1 1.26484 8.77313 9.73959
119 1 6.9084 5.76643 6.80916
120 1 9.67591 5.84783 6.774
121 1 9.65401 5.65634 9.70467
122 1 6.84737 5.71327 9.58944
123 1 6.77514 8.65491 6.79731
124 1 9.7102 8.54633 6.70915
125 1 9.49786 8.37253 9.53917
126 1 6.73436 8.62761 9.62504
127 1 12.4505 5.82458 6.92393
128 1 12.3347 5.79129 9.62835
129 1 12.4112 8.65286 6.85238
130 1 12.427 8.59576 9.54946
131 1 1.16498 11.4659 6.74979
132 1 4.05576 11.4872 6.85814
133 1 3.91926 11.2593 9.54015
134 1 1.25535 11.445 9.62938
135 1 1.27918 14.2402 6.73588
136 1 4.09118 14.2274 6.8202
137 1 4.00353 14.1588 9.5632
138 1 1.28187 14.1044 9.7639
139 1 6.81518 11.4636 6.83933
140 1 9.65049 11.3973 6.86006
141 1 9.60579 11.4 9.53923
142 1 6.73403 11.4187 9.68069
143 1 6.88392 14.3122 6.80436
144 1 9.63841 14.3186 6.85864
145 1 9.53394 14.0988 9.70648
146 1 6.73685 14.1576 9.45186
147 1 12.361 11.4364 6.74371
148 1 12.293 11.4909 9.62567
149 1 12.4807 14.2674 6.66502
150 1 12.3224 14.2684 9.53325
151 1 1.23198 17.0373 6.62537
152 1 4.08568 16.9964 6.74286
153 1 4.06471 17.0106 9.50197
154 1 1.28963 17.0179 9.43114
155 1 1.07818 22.5121 6.66769
156 1 3.98604 19.8237 6.56157
157 1 3.89723 19.8161 9.49038
158 1 1.22137 19.7667 6.64802
159 1 6.81743 17.0858 6.65068
160 1 9.56697 17.0617 6.79415
161 1 9.72194 17.0311 9.78598
162 1 6.87973 17.1905 9.53338
163 1 6.85915 19.8775 6.89343
164 1 9.65848 19.7459 6.70357
165 1 9.53637 19.8522 9.59498
166 1 6.78404 19.8899 9.59913
167 1 12.4261 17.0649 6.84357
168 1 12.4375 17.0954 9.65926
169 1 12.3453 19.7429 6.75426
170 1 12.3643 19.8878 9.45675
6218 1 1.15624 19.8922 9.53451
172 1 3.78361 22.6952 6.88102
173 1 4.00703 22.6289 9.49518
174 1 1.32325 22.6881 9.59531
175 1 6.71384 22.6918 6.62584
176 1 9.70586 22.6339 6.74604
177 1 9.57591 22.5427 9.53964
178 1 6.744 22.6393 9.40682
179 1 12.4967 22.7801 6.81788
180 1 12.484 22.5899 9.48283
181 1 1.297 0.144682 12.5447
182 1 4.14332 0.236125 12.3223
183 1 1.26573 2.92966 12.6086
184 1 4.0767 2.96352 12.4936
185 1 6.9083 0.0718089 12.4477
186 1 9.52299 0.0779589 12.4786
187 1 6.76135 2.94967 12.6524
188 1 9.65941 3.07646 12.6202
189 1 12.2122 0.378421 12.3339
190 1 12.2405 3.19507 12.5842
191 1 1.28905 5.74948 12.6032
192 1 4.09734 5.7973 12.4853
193 1 1.26458 8.68337 12.3762
194 1 4.05306 8.61956 12.5928
195 1 6.91058 5.67916 12.4632
196 1 9.54018 5.93138 12.5735
197 1 6.90993 8.66336 12.3018
198 1 9.62472 8.50507 12.4767
199 1 12.332 5.82694 12.3684
200 1 12.4147 8.72415 12.4726
201 1 1.17503 11.5347 12.6194
202 1 4.0141 11.463 12.3189
203 1 0.800779 14.2436 12.5276
204 1 3.8126 14.2972 12.3584
205 1 6.66279 11.3892 12.4372
206 1 9.60574 11.3961 12.3138
207 1 6.66484 14.228 12.3756
208 1 9.57211 14.1464 12.5586
209 1 12.5395 11.4268 12.3011
210 1 12.3116 14.2154 12.3986
211 1 1.39364 17.0857 12.245
212 1 4.167 17.0859 12.4576
213 1 1.20441 20.0262 12.4733
214 1 3.95649 19.9306 12.3234
215 1 6.75151 17.0214 12.2965
216 1 9.49253 17.0816 12.3749
217 1 6.64284 19.8374 12.4562
218 1 9.47184 19.9685 12.4116
219 1 12.427 16.998 12.4316
220 1 12.326 19.8398 12.3368
221 1 1.27453 22.8139 12.4553
222 1 4.06568 22.6134 12.5376
223 1 6.87596 22.7149 12.2259
224 1 9.69698 22.647 12.3792
225 1 12.5303 22.5143 12.3449
15052 2 13.899 -1.20708 8.28437
15022 2 13.7945 9.89441 2.47944
15012 2 13.8619 4.40543 2.7428
15002 2 13.9141 -1.23893 2.68973
12139 2 5.41044 12.8893 13.7359
12131 2 2.67612 4.22428 13.8753
12003 2 2.50428 -1.11332 2.62615
12008 2 5.49313 1.45668 2.62218
15136 2 13.9255 10.0523 13.8385
12010 2 11.1247 1.55788 2.69416
12125 2 10.9844 21.1237 11.0464
12149 2 5.42295 24.044 13.8403
12013 2 2.62714 4.36641 2.63802
12124 2 8.24327 23.9658 10.9225
12134 2 5.46977 7.07733 13.8242
12057 2 8.28254 -1.16915 8.24826
12017 2 8.27955 4.38293 2.64927
12018 2 5.53341 7.20414 2.51531
12129 2 5.54519 1.49113 13.7804
12020 2 11.0387 7.23532 2.64146
12113 2 5.31695 9.96587 11.0241
12104 2 8.24123 1.5031 11.151
12023 2 2.68887 10.1057 2.68256
12064 2 -0.0901228 7.22238 8.21733
15072 2 13.7599 9.98675 8.14678
12107 2 2.66974 7.24726 11.1404
12027 2 8.16768 9.98981 2.55622
12028 2 5.47363 12.8285 2.69436
12081 2 -0.0795025 15.5438 5.30128
12030 2 11.0803 12.7909 2.49674
12102 2 2.68148 1.56199 11.0738
12114 2 8.24754 12.7149 10.9573
12033 2 2.67201 15.6973 2.59483
6063 1 12.4688 19.8995 1.08935
12100 2 11.1097 23.8514 8.24091
12099 2 11.0359 21.1541 5.20932
12037 2 8.2807 15.6213 2.62363
12038 2 5.44979 18.5089 2.61909
12098 2 5.35723 24.0551 8.19866
12040 2 10.9129 18.3299 2.45591
12097 2 8.27591 21.0923 8.09527
12014 2 -0.091836 7.15554 2.55674
12043 2 2.50901 21.3023 2.58671
12123 2 5.29238 21.2174 10.9102
12096 2 8.25778 23.9477 5.3869
12095 2 5.33559 21.3777 5.34719
12047 2 8.07512 21.2547 2.61983
12048 2 5.26846 24.1698 2.69655
12115 2 11.0552 9.94214 10.9755
12050 2 10.9456 23.982 2.4905
15091 2 13.8442 24.1715 5.42421
12052 2 2.56363 1.57237 5.50585
12112 2 2.62862 12.7155 11.0349
12122 2 2.6685 24.0789 10.957
12110 2 10.8669 4.37393 11.1152
12056 2 8.20374 1.62683 5.43007
12109 2 8.15802 7.17473 10.904
12058 2 5.36356 1.61024 8.21488
12108 2 5.49087 4.42717 11.0341
12060 2 11.0654 1.63813 8.26542
12120 2 10.915 15.6001 11.0452
12062 2 2.68133 7.1197 5.50675
12063 2 2.64597 4.48587 8.30907
12119 2 8.1267 18.4632 11.0679
12065 2 5.42157 4.35647 5.47471
12066 2 8.21514 7.2215 5.46255
12067 2 8.28282 4.3167 8.2763
12068 2 5.46155 7.20933 8.27652
12069 2 11.0497 4.33331 5.32558
12070 2 11.0176 7.06901 8.0802
12140 2 11.0343 12.7374 13.7023
12072 2 2.55056 12.822 5.29011
12073 2 2.53034 9.87042 8.24854
12118 2 5.4188 15.5643 10.8822
12075 2 5.43632 10.1194 5.52683
12076 2 8.24004 12.9037 5.40818
12077 2 8.19732 9.99062 8.20592
12078 2 5.42595 12.8267 8.23261
12079 2 10.9746 9.95341 5.35073
12080 2 11.0298 12.8201 8.23264
12143 2 8.06028 15.5656 13.8171
12082 2 2.69919 18.3444 5.34701
12083 2 2.69514 15.5534 8.20296
12117 2 2.61904 18.408 11.0092
12085 2 5.36714 15.529 5.34558
12086 2 8.26206 18.3578 5.41026
12087 2 8.18946 15.6947 8.14167
12088 2 5.33762 18.4912 8.22621
12089 2 11.1709 15.689 5.38609
12090 2 10.9994 18.4253 8.26581
15146 2 13.7939 21.1713 13.9199
12092 2 2.4549 24.0421 5.48085
12093 2 2.58153 21.1592 8.09309
15062 2 13.7885 4.42849 8.30431
12141 2 2.57915 15.6658 13.8445
12103 2 5.43816 -1.1925 11.0133
12116 2 0.0163051 15.7955 11.012
15061 2 13.9219 7.12272 5.39441
12133 2 8.2024 4.34815 13.8529
15121 2 13.7916 23.9175 11.0949
15116 2 13.7946 18.3971 10.9761
15101 2 13.6696 1.70985 11.0353
15092 2 13.7699 21.1634 8.18261
15082 2 13.8588 15.5541 8.11915
12135 2 11.0369 7.27067 13.8867
15051 2 13.8588 1.42399 5.62464
15081 2 13.7279 18.3715 5.19766
15106 2 13.7068 7.18461 10.9768
15111 2 13.8927 12.7604 10.9384
15042 2 13.9347 21.2886 2.58169
12007 2 8.31583 -1.27258 2.78121
12150 2 10.9557 23.9521 13.8499
15141 2 13.7642 15.6383 13.7988
12144 2 5.3898 18.4667 13.8591
12148 2 8.13803 21.2345 13.7483
12126 2 2.62761 -1.22757 13.8789
12145 2 10.826 18.4135 13.7127
12019 2 11.0726 4.28483 -0.0455318
15001 2 13.8252 1.46207 0.0135159
12006 2 8.27495 1.36632 -0.100247
12138 2 8.16914 9.94511 13.7993
226 1 3.99859 0.282732 15.1162
227 1 1.20568 0.203418 15.3205
228 1 4.0483 2.81877 15.2841
229 1 1.26711 3.03748 15.307
230 1 9.89512 0.0434723 15.385
231 1 7.00524 0.0552413 15.1922
232 1 9.63954 2.95654 15.3161
233 1 6.89101 2.942 15.3802
234 1 12.5047 0.0316366 15.2207
235 1 12.4971 2.7756 15.5175
236 1 4.00428 5.72653 15.1864
237 1 1.24387 5.83795 15.2898
238 1 4.03953 8.46405 15.2626
239 1 1.37673 8.61993 15.209
240 1 9.68333 5.78228 15.2702
241 1 6.69645 5.74397 15.151
242 1 9.63113 8.62252 15.068
243 1 6.87071 8.57785 15.2664
244 1 12.4756 5.91956 15.2551
245 1 12.3996 8.72206 15.2648
246 1 4.05292 11.446 15.1287
247 1 1.23921 11.442 15.3113
248 1 4.2316 14.3172 15.3873
249 1 1.37184 14.1519 15.2951
250 1 9.74632 11.4268 15.0128
251 1 6.97532 11.4312 15.0425
252 1 9.72157 14.3316 15.1939
253 1 6.92226 14.1719 15.3059
254 1 12.3929 11.4946 15.1444
255 1 12.34 14.1812 15.1055
256 1 3.97486 17.1213 15.2489
257 1 1.1794 16.9726 15.2806
258 1 3.92564 19.8493 15.1235
259 1 1.19602 19.9894 15.2695
260 1 9.38828 17.1238 15.1023
261 1 6.77308 16.9227 15.216
262 1 9.48875 19.8019 15.075
263 1 6.73461 19.8757 15.1842
264 1 12.294 16.9832 15.169
265 1 12.2864 19.7671 15.0964
266 1 3.95311 22.6295 15.3989
267 1 1.19201 22.6756 15.3415
268 1 9.52927 22.6638 15.0569
269 1 6.74972 22.6433 15.1696
270 1 12.442 22.6219 15.2121
271 1 1.25706 0.180547 18.0195
272 1 4.13719 0.229333 17.9818
273 1 4.06085 0.32134 20.8008
274 1 1.22349 0.0563667 20.8818
275 1 1.20778 2.854 18.1885
276 1 3.94788 3.13882 18.0767
277 1 3.94201 3.07055 20.7949
278 1 1.19437 3.02581 20.959
279 1 6.88487 0.310836 17.9202
280 1 9.53426 0.154073 18.2069
281 1 9.6207 0.112784 20.9698
282 1 6.81851 0.18875 21.0621
283 1 6.63649 3.09657 18.1625
284 1 9.58716 3.05175 18.1839
285 1 9.50647 2.95842 20.8653
286 1 6.77081 2.937 20.8678
287 1 12.4493 0.0896884 18.1672
288 1 12.3966 0.148328 21.0146
289 1 12.3617 2.91578 18.3236
290 1 12.4472 3.03142 21.0087
291 1 1.12509 5.7343 18.0417
292 1 3.88584 5.96578 18.124
293 1 3.78732 5.68024 21.0235
294 1 1.0297 5.72066 20.6962
295 1 1.12175 8.68151 18.014
296 1 3.75443 8.66775 18.0235
297 2 5.17803 7.1752 22.2476
298 1 3.94216 8.42901 20.964
299 1 6.76096 5.84004 17.9014
300 1 9.5617 5.83232 18.091
301 1 9.39698 5.61365 20.797
302 1 6.50469 5.8428 20.6755
303 1 6.79277 8.6685 18.0383
304 1 9.59883 8.61335 17.963
305 1 9.54175 8.50816 20.7066
306 1 6.51527 8.54805 20.8243
307 1 12.375 5.64787 18.0807
308 1 12.4227 5.83514 20.9299
309 1 12.255 8.58066 17.8967
310 1 12.3796 8.51474 20.6353
311 1 1.11553 11.4994 18.0856
312 1 4.02768 11.4886 18.0647
313 1 3.81555 11.5092 20.9415
314 1 1.02739 11.3945 20.9494
315 1 1.28316 14.2893 18.0547
316 1 4.04962 14.4145 18.2495
317 1 3.9507 14.4411 20.9518
318 1 1.29833 14.2395 20.8342
319 1 6.71 11.4447 17.9389
320 1 9.57453 11.3126 17.9818
321 1 9.61789 11.1428 20.8657
322 1 6.82471 11.2924 20.9087
323 1 6.82789 14.2115 18.0035
324 1 9.65605 14.2721 17.9894
325 1 9.47845 13.8909 20.6045
326 1 6.77249 14.2431 20.8844
327 1 12.5274 11.5021 17.8529
328 1 12.3312 11.1161 20.6803
329 1 12.4656 14.2743 17.8697
330 1 12.6518 13.9002 20.6066
331 1 1.18139 17.1535 18.0779
332 1 3.93329 17.1734 18.1123
333 1 4.05405 17.1164 20.888
334 1 1.24144 17.0391 20.9505
335 1 1.13837 19.9139 18.0543
336 1 4.02665 19.7778 17.9075
337 1 3.87943 19.8886 20.8863
338 1 1.08664 19.8217 20.7821
339 1 6.78039 16.9961 18.202
340 1 9.59524 16.9951 17.8938
341 1 9.34597 17.2136 20.6538
342 1 6.73504 17.217 21.0301
343 1 6.95815 19.8321 18.0156
344 1 9.72067 19.6901 17.8414
345 1 10.9239 21.4096 19.5111
346 1 6.68018 20.0625 20.7728
347 1 12.3655 17.0622 18.1167
348 1 12.5964 17.0317 20.8137
349 1 12.5367 19.8952 17.9833
350 1 12.5779 19.8157 21.0966
351 1 1.06895 22.6062 18.2305
352 1 3.83664 22.6568 18.1212
353 1 3.81979 22.6941 20.8717
354 1 1.22972 22.6885 20.9232
355 1 6.51197 22.5916 18.092
356 1 9.40558 22.6731 17.7623
357 1 9.31259 22.9594 20.9557
358 1 6.5217 22.8432 21.0241
359 1 12.3089 22.9598 17.8986
360 1 12.3211 23.0309 21.0025
361 1 1.23228 0.311344 23.7457
362 1 3.96974 0.215922 23.5886
363 1 3.85411 0.274168 26.3702
364 1 1.11126 0.132347 26.4833
365 1 1.25743 3.01938 23.7027
366 1 3.98993 3.12695 23.8105
367 1 4.08356 3.15454 26.5139
368 1 1.28683 2.92219 26.4401
369 1 6.75378 0.113253 23.8084
370 1 9.57431 0.153829 23.8752
371 1 9.5707 0.173399 26.6557
372 1 6.71017 0.0803253 26.6453
373 1 6.77935 2.9332 23.6825
374 1 9.48678 2.98982 23.7521
375 1 9.53928 2.93307 26.5261
376 1 6.72948 2.77131 26.5887
377 1 12.2828 0.0685073 23.8251
378 1 12.4438 0.02015 26.6811
379 1 12.422 2.80534 23.788
380 1 12.4147 2.79508 26.6606
381 1 1.24369 5.72533 23.7874
382 1 3.88875 6.01762 23.6527
383 1 4.01631 5.77707 26.4639
384 1 1.15547 5.80538 26.4578
385 1 0.978431 8.48172 23.7048
386 1 3.95927 8.66121 23.5402
387 1 4.02264 8.55303 26.5193
388 1 1.19917 8.541 26.449
389 1 6.70519 5.82095 23.3234
390 1 9.3894 5.72112 23.6339
391 1 9.57594 5.5795 26.5326
392 1 6.78804 5.72313 26.4038
393 1 6.57888 8.39945 23.435
394 1 9.52883 8.48489 23.5719
395 1 9.55303 8.48854 26.4713
396 1 6.85817 8.61845 26.4833
397 1 12.1945 5.44754 23.7335
398 1 12.2951 5.77761 26.5621
399 1 12.4019 8.29137 23.495
400 1 12.4104 8.44573 26.3434
401 1 1.20991 11.3291 23.6694
402 1 3.99698 11.4548 23.7873
403 1 4.10235 11.3193 26.5827
404 1 1.3166 11.3984 26.4723
405 1 1.22865 14.3284 23.7025
406 1 3.85784 14.1768 23.6555
407 1 4.1273 14.2189 26.4788
408 1 1.26419 14.3164 26.5257
409 1 6.66148 11.2876 23.696
410 1 9.70752 11.2078 23.6525
411 1 9.76374 11.4116 26.5247
412 1 6.8735 11.3881 26.4941
413 1 6.62752 14.2197 23.6891
414 1 9.38969 13.9922 24.0393
415 1 9.78554 14.2154 26.6625
416 1 7.00214 14.1828 26.6568
417 1 12.3577 11.1289 23.5643
418 1 12.5341 11.2897 26.3365
419 1 12.6586 13.9105 23.8258
420 1 12.4963 14.1825 26.441
421 1 1.0007 17.0775 23.7446
422 1 4.02352 17.1109 23.7341
423 1 4.00364 17.0322 26.506
424 1 1.17414 17.1401 26.4594
425 1 1.16429 19.8172 23.6869
426 1 4.01477 19.9598 23.6977
427 1 4.06705 19.9526 26.3043
428 1 1.15504 19.9411 26.7198
429 1 6.85361 17.1329 23.9197
430 1 9.53856 19.928 23.792
431 1 9.64944 17.0388 26.5659
432 1 6.73066 16.9987 26.6114
433 1 6.77123 19.7979 23.7384
434 1 9.38385 20.0501 21.1222
435 1 9.59758 19.8681 26.5796
436 1 6.8383 19.9688 26.4765
437 1 12.7959 17.4377 24.0025
438 1 12.3065 17.0284 26.6276
439 1 12.2869 20.1055 23.6644
440 1 12.5315 19.8373 26.5498
441 1 1.20102 22.6525 23.8057
442 1 4.02495 22.6965 23.6919
443 1 3.98452 22.6413 26.4575
444 1 1.13357 22.805 26.5881
445 1 6.85464 22.7912 23.7654
446 1 9.70129 22.6393 23.5395
447 1 9.55635 22.7633 26.4794
448 1 6.73051 22.7661 26.5592
449 1 12.6042 22.7915 23.7015
450 1 12.3293 22.6177 26.3091
12205 2 5.51912 -1.22329 22.2281
12250 2 10.9436 24.0524 24.9395
12046 2 8.15954 24.0061 27.8732
15232 2 13.8185 15.4388 24.9988
15211 2 13.8642 7.12298 22.2754
12227 2 8.33337 10.1219 25.1736
12249 2 11.0064 21.3086 22.0319
12226 2 8.23305 12.8455 22.3267
12225 2 5.29696 10.2192 22.1988
12157 2 8.22258 -1.20699 19.505
12223 2 2.69933 9.9482 25.1124
12248 2 5.38996 24.0945 25.0119
12222 2 2.46576 12.8874 22.3502
12228 2 5.36509 12.8888 25.1153
15182 2 13.5759 15.6443 19.4645
12220 2 11.0153 6.9959 25.0592
12247 2 8.23815 21.1983 25.0802
15172 2 13.7268 10.0166 19.2437
15192 2 13.6621 21.276 19.5311
6309 1 1.18532 8.68261 20.7863
12219 2 10.972 4.29035 22.1895
12246 2 8.06044 24.0469 22.3389
12049 2 11.0303 21.1574 27.8791
12218 2 5.49288 7.16802 25.2855
12159 2 11.0861 -1.25009 16.8222
12245 2 5.49751 21.269 22.2267
12152 2 2.64174 1.51223 16.6233
15201 2 13.7472 1.53209 22.3983
12243 2 2.57578 21.2644 25.0179
15212 2 13.7404 4.3648 25.1977
12156 2 8.30088 1.56758 16.649
12035 2 5.57731 15.5006 27.905
12158 2 5.44203 1.63443 19.4216
12026 2 8.26316 12.6425 27.9029
12160 2 11.0965 1.52195 19.6039
12242 2 2.45525 24.0108 22.3006
12162 2 2.62679 7.2073 16.5948
12163 2 2.54262 4.30918 19.5354
12240 2 11.0144 18.4127 25.0138
12165 2 5.32661 4.31574 16.5044
12166 2 8.26684 7.27099 16.6799
12167 2 8.17721 4.33978 19.363
12168 2 5.34791 7.11015 19.1118
12169 2 11.0316 4.32212 16.7895
12170 2 11.0076 7.15586 19.3871
12239 1 9.5422 17.0682 23.9052
12172 2 2.6901 12.9075 16.6813
12173 2 2.45434 10.1621 19.4502
12238 2 5.41835 18.4207 25.1496
12175 2 5.43989 10.0035 16.6679
12176 2 8.34122 12.8391 16.5651
12177 2 8.12855 10.1094 19.5029
12178 2 5.36718 12.9666 19.4815
12179 2 10.8923 9.9574 16.4916
12180 2 10.9966 12.7055 19.3886
12237 2 8.34279 15.5486 25.2074
12182 2 2.55762 18.5268 16.6243
12183 2 2.6418 15.7294 19.4622
12236 2 8.25682 18.3461 22.3996
12185 2 5.48795 15.6851 16.7411
12186 2 8.16078 18.4292 16.7119
12187 2 8.29661 15.5588 19.4186
12188 2 5.51263 18.563 19.4388
12189 2 11.0162 15.7031 16.4527
12190 2 10.9674 18.4618 19.5005
12235 2 5.43726 15.6985 22.1894
12192 2 2.50515 23.9669 16.6559
12193 2 2.62396 21.1904 19.4809
12217 2 8.26427 4.22968 25.2398
12195 2 5.38748 21.2661 16.5864
12196 2 8.10527 24.1474 16.7235
12197 2 8.30881 21.2516 19.261
12198 2 5.2583 23.98 19.4462
12199 2 11.0538 21.1423 16.6984
12200 2 10.8866 24.0831 19.4579
12233 2 2.58775 15.6982 25.0941
12202 2 2.59185 1.47576 22.3119
12022 2 2.76011 12.8748 27.8748
12232 2 2.58374 18.415 22.2674
15031 2 13.7473 18.3039 27.7697
12206 2 8.33456 1.5152 22.3398
12216 2 8.33976 7.14341 22.1415
12208 2 5.25566 1.42402 25.1874
12215 2 5.44149 4.05649 22.2888
12210 2 10.9528 1.48294 25.2725
12230 2 11.1243 12.7612 25.0621
12212 2 2.09623 7.1667 22.2387
12213 2 2.57287 4.37441 25.0488
12229 2 11.0129 9.7533 22.1959
15242 2 13.7711 21.2854 24.992
12032 2 2.6037 18.4792 27.9158
12025 2 5.35472 9.91936 27.9399
15181 2 13.758 18.4544 16.5582
12002 2 2.6291 1.56859 27.9294
12045 2 5.37694 21.2138 27.9418
12203 2 2.57047 -1.22161 25.1957
15191 2 13.9368 24.1176 16.6011
15161 2 13.7705 7.17863 16.7299
12042 2 2.58826 24.1197 27.9456
15222 2 13.7943 9.86194 24.8794
15162 2 13.8374 4.28915 19.5069
15241 2 13.8272 24.2007 22.2814
15171 2 13.8015 12.8016 16.4697
15041 2 13.8659 24.0033 27.8251
12029 2 11.1762 9.92994 27.8055
15151 2 13.9597 1.56031 16.7096
12036 2 8.14927 18.3326 27.9116
15221 2 13.766 12.8062 22.1731
15011 2 13.715 7.14575 27.9404
12155 2 5.42779 -1.29825 16.4946
12039 2 10.9837 15.5458 27.9408
12015 2 5.61827 4.27881 27.8709
12146 2 2.60138 21.4234 13.9171
12021 2 0.0204088 10.0008 27.8274
12136 2 2.65378 10.1354 13.8562
12130 2 11.0842 1.42617 13.9565
12016 2 8.37286 7.13249 27.8763
15021 2 13.8405 12.7503 27.7797
12012 2 2.57083 7.17745 27.8847
451 1 1.12708 25.4265 1.30919
452 1 3.91496 25.7067 1.32215
453 1 3.85504 25.5791 4.09003
454 1 1.02752 25.5942 4.16321
455 1 6.69629 25.5179 1.0845
456 1 9.46898 25.4183 1.17682
457 1 9.57863 25.4715 3.93044
458 1 6.75205 25.5699 4.05868
459 1 12.3539 28.3881 1.08211
460 1 12.3348 25.4701 4.10333
461 1 1.18217 28.4447 1.2247
462 1 4.01067 28.5716 0.98913
463 1 3.97892 28.2683 3.94312
464 1 1.03724 31.0936 3.8876
465 1 0.948132 31.2476 1.25241
466 1 3.97789 31.1518 1.25199
467 1 3.88568 31.0151 4.12087
468 1 1.19617 33.842 4.0102
469 1 6.86684 28.5144 1.24653
470 1 9.56841 28.0586 1.05825
471 1 9.48085 28.2689 3.86235
472 1 6.73356 28.2201 3.965
473 1 6.82881 31.2362 1.05685
474 1 9.65402 31.003 1.28007
475 1 9.59767 31.4102 4.00058
476 1 6.76414 31.0699 3.91968
477 1 12.2824 31.3328 1.06159
478 1 12.3389 28.3356 3.95741
479 2 11.0527 32.4896 2.51597
480 1 12.284 30.9975 3.80801
481 1 0.953428 36.7336 1.04941
482 1 4.04139 33.9472 1.19624
483 1 4.09151 34.0342 3.89126
484 1 2.93042 36.495 3.59911
485 2 2.53422 38.1197 2.06661
486 1 3.88715 36.7593 0.900793
487 1 4.53611 38.2426 3.3252
488 1 0.613492 38.1999 3.35274
489 1 6.8684 33.993 1.2746
490 1 9.65759 33.7663 1.07335
491 1 9.6539 34.0916 3.52925
492 1 6.95362 33.897 4.05381
493 1 6.70111 36.8213 1.02372
494 1 9.41366 36.6949 1.02046
495 1 9.62627 36.8141 3.88059
496 1 6.81751 36.6766 3.70515
171 1 1.2482 25.4468 6.90158
498 1 12.347 33.7304 3.96904
499 1 12.356 36.6078 1.12206
500 1 12.373 36.5257 4.02503
501 1 1.02009 39.7484 0.977898
502 1 4.03487 39.5699 0.840481
503 1 4.67867 40.3581 5.29431
504 1 2.71759 40.0849 3.45788
505 1 1.33653 42.5389 1.18381
506 1 3.94389 42.3095 1.00319
507 1 4.1025 42.6472 3.83352
508 1 1.13774 42.5832 4.00915
509 1 6.69915 39.4927 1.14407
510 1 9.52665 39.4963 0.998119
511 1 9.6309 39.5086 3.66577
512 1 7.05454 39.6072 4.0248
513 1 6.77133 42.3885 1.33581
514 1 9.64588 42.2997 1.18649
515 1 9.91385 42.5537 3.97435
516 1 6.96172 42.4239 4.12964
12380 2 -0.0114635 46.4676 13.8196
518 1 12.2977 39.3802 1.16944
519 1 12.4937 42.2279 1.19463
520 1 12.4749 42.3594 3.91426
521 1 1.2008 45.3024 1.15251
522 1 4.03475 45.2144 1.0669
523 1 3.92174 45.3743 3.9099
524 1 1.08013 45.4825 4.01289
525 1 1.13746 47.9641 1.14645
526 1 3.91734 48.0237 1.03851
527 1 4.19744 48.1351 3.75908
528 1 1.15156 48.1752 4.02296
529 1 6.84227 45.1267 1.23753
530 1 9.57764 45.1569 1.18359
531 1 9.75762 45.1719 4.07708
532 1 6.78699 45.198 3.92942
533 1 6.95289 47.9103 1.10308
534 1 9.78354 47.9714 0.915697
535 1 9.80785 47.9148 3.94502
536 1 7.09485 47.9398 3.82102
537 1 12.4105 45.067 1.08314
538 1 12.5913 45.2088 3.8258
539 1 12.5519 47.9999 1.28383
540 1 12.4967 47.9807 3.98271
541 1 1.31029 28.3663 6.71147
542 1 3.94914 25.5035 6.88572
543 1 4.06408 25.5617 9.74836
544 1 1.26003 25.5129 9.53861
545 1 6.80709 25.3529 6.91551
546 1 9.58745 25.4292 6.64549
547 1 9.69681 25.334 9.49309
548 1 6.78902 25.5434 9.69302
549 1 12.4449 25.4995 6.91481
550 1 12.4005 25.4532 9.67948
551 1 1.08393 28.4218 4.06845
552 1 4.01127 28.2531 6.77139
553 1 4.19638 28.3188 9.703
554 1 1.31541 28.2348 9.95747
555 1 1.36955 31.5241 6.54019
556 1 4.15473 31.041 6.83284
557 1 3.69034 31.1987 9.66431
558 1 1.14483 33.7271 9.51865
559 1 6.89622 28.1195 6.81505
560 1 9.74413 28.4359 6.5483
561 1 9.69569 28.2761 9.42583
562 1 6.95931 28.2964 9.54504
563 1 6.89556 30.9652 6.90927
564 1 9.69849 31.2267 6.71857
565 1 9.56509 30.9804 9.61753
566 1 6.67143 31.0956 9.60948
567 1 12.4584 28.1559 6.80453
568 1 12.3796 28.2814 9.61221
569 1 12.3965 30.9266 6.65489
570 1 12.3611 31.1899 9.58101
571 1 0.834853 36.6093 5.34349
572 1 4.09082 33.9416 6.8403
573 1 4.05834 34.0082 9.70468
574 1 2.34431 35.9438 7.62907
575 1 0.514767 38.4851 7.24774
576 1 3.84204 37.4063 6.32946
577 1 4.12911 36.8917 9.63452
578 1 1.04154 36.7276 9.86281
579 1 6.76668 33.7572 6.79899
580 1 9.58526 33.9198 6.64857
581 1 9.63763 33.7829 9.56036
582 1 6.80193 33.9503 9.48282
583 1 6.62084 36.5949 6.63149
584 1 9.86031 36.6325 6.56176
585 1 9.8499 36.6344 9.80551
586 1 6.72812 36.7873 9.77838
587 1 12.4644 33.8371 7.01478
588 1 12.4731 33.9362 9.76701
589 1 12.6419 36.6673 6.91107
590 1 12.5285 36.906 9.68813
591 1 0.734247 40.1666 5.21855
592 1 2.82665 39.9872 7.13905
593 1 3.77356 39.51 9.48187
594 1 1.00376 39.5852 9.76703
595 1 1.11679 42.5509 6.90775
596 1 4.1033 42.7796 6.74174
597 1 3.89367 42.4425 9.76772
598 1 1.15042 42.4657 9.65167
599 1 6.82109 39.7969 6.87234
600 1 12.3674 39.4718 3.92585
601 1 9.71766 39.9066 9.71408
602 1 6.58527 39.9267 9.81259
603 1 6.93389 42.7078 6.84565
604 1 9.58423 42.4525 6.83938
605 1 9.65006 42.5133 9.56449
606 1 6.84109 42.5877 9.52446
607 1 12.6076 39.6104 6.66907
608 1 12.5211 39.657 9.40744
609 1 12.4738 42.4321 6.68441
610 1 12.46 42.2693 9.76536
611 1 1.15137 45.249 6.91783
612 1 3.93023 45.4178 6.81504
613 1 4.21274 45.3091 9.66788
614 1 1.17396 45.2587 9.83356
615 1 1.18315 48.0533 6.83808
616 1 4.21567 48.0947 6.78477
617 1 4.02663 48.0472 9.61492
618 1 1.25258 47.9898 9.64356
619 1 6.73724 45.5128 6.6354
620 1 9.72859 45.4457 6.96948
621 1 9.7658 45.3503 9.75334
622 1 6.85558 45.2984 9.5387
623 1 6.96644 48.0619 6.61643
624 1 9.64271 48.1567 6.7181
625 1 9.71592 48.0696 9.60324
626 1 6.88109 48.2112 9.45438
627 1 12.5101 45.249 6.57712
628 1 12.556 45.204 9.49867
629 1 12.5847 48.0216 6.75174
630 1 12.5918 48.0278 9.70343
631 1 1.12979 25.5436 12.3679
632 1 3.98816 25.3838 12.5736
633 1 6.90885 25.5578 12.4363
634 1 9.5495 25.474 12.2996
635 1 12.2372 25.3767 12.4064
636 1 1.23696 28.3943 12.7267
637 1 4.09473 28.2508 12.405
638 1 1.33302 31.2703 11.976
639 1 4.04846 31.155 12.5121
640 1 6.85621 28.2935 12.5644
641 1 9.66513 28.3909 12.2168
642 1 6.82873 30.9421 12.2736
643 1 9.59121 31.2235 12.4297
644 1 12.497 28.217 12.4252
645 1 12.3092 31.0332 12.2987
646 1 1.18332 33.9541 12.3947
647 1 4.04995 33.9714 12.4546
648 1 1.09626 36.8079 12.5818
649 1 3.92447 36.7618 12.3366
650 1 6.7772 33.8883 12.3584
651 1 9.52684 33.9776 12.3722
652 1 6.87441 36.8866 12.572
653 1 9.62176 36.8269 12.4232
654 1 12.2968 33.899 12.4261
655 1 12.5234 37.0093 12.4305
656 1 1.18918 39.6338 12.3722
657 1 4.01249 39.6978 12.3332
658 1 1.13286 42.3694 12.4616
659 1 3.96315 42.4114 12.5529
660 1 6.81882 39.6367 12.5245
661 1 9.79189 39.6155 12.4695
662 1 6.90823 42.3857 12.4345
663 1 9.82006 42.395 12.3134
664 1 12.4563 39.6406 12.3543
665 1 12.5302 42.5186 12.6257
666 1 1.22485 45.1256 12.4775
667 1 4.00639 45.0542 12.5129
668 1 1.1925 48.1233 12.4233
669 1 4.12872 47.919 12.3537
670 1 6.791 45.2555 12.3262
671 1 9.60916 45.0842 12.3555
672 1 6.7532 47.8716 12.5768
673 1 9.67954 47.9872 12.3779
674 1 12.7143 45.3293 12.2696
675 1 12.5789 48.0128 12.6086
12363 2 11.135 49.3072 10.9441
15346 2 13.744 35.2971 11.0733
12253 2 2.44735 26.8041 2.68441
12362 2 5.53299 49.2788 11.0807
12371 2 8.05932 32.604 13.7153
12381 2 8.32647 43.7068 13.741
12257 2 8.13552 26.7829 2.54464
12258 2 5.28349 29.6356 2.54024
12299 1 0.963995 33.9644 6.7266
12260 2 10.9658 29.3563 2.58476
15316 2 13.9167 40.7996 5.38249
89 1 12.4518 25.5868 1.1402
12263 2 2.52738 32.3547 2.51713
12360 2 11.1598 43.6658 11.0085
12366 2 8.20874 26.9846 13.9389
12384 2 2.7727 49.2106 13.842
12267 2 7.97407 32.4686 2.58907
12268 2 5.13146 35.4985 2.5099
15282 2 13.9758 43.7333 2.68569
12270 2 10.8825 35.5329 2.46776
12359 2 8.3567 46.5114 10.9866
12385 2 8.20412 49.2432 13.8098
12273 2 2.30938 38.5042 5.14219
12358 2 5.49273 43.8297 11.0132
12373 2 11.0592 35.4125 13.8158
12343 2 5.47338 26.8054 11.0498
12277 2 8.2254 38.1313 2.42604
12278 2 5.10339 40.5592 2.75303
12342 2 2.74658 29.5374 11.1933
12280 2 11.0755 40.9564 2.70497
12368 2 11.0008 29.6347 13.7761
12345 2 10.9518 26.7196 10.8525
12283 2 2.59191 43.7899 2.50914
12377 2 5.3671 40.8128 13.8698
12379 2 2.70518 43.5869 13.9207
12350 2 10.9568 32.4663 10.9798
12287 2 8.11933 43.7088 2.72279
12288 2 5.36622 46.5359 2.45841
12349 2 8.12201 35.394 10.9506
12290 2 11.0444 46.3813 2.45825
15306 2 13.9007 35.2602 5.463
12292 2 2.52228 49.4248 2.48113
12352 2 2.46466 41.0467 11.0055
12294 2 8.34064 49.2922 2.51926
6482 1 12.201 33.9818 1.27749
12357 2 2.59645 46.5746 10.9338
12297 2 2.60595 29.6505 5.43609
12298 2 2.5302 26.9898 8.22699
6494 1 1.123 34.0357 1.19541
12300 2 5.38754 26.8057 5.49278
12301 2 8.15236 29.6843 5.36253
12302 2 8.28573 26.6356 8.29529
12303 2 5.31112 29.573 8.24385
12304 2 11.0133 26.7545 5.34603
12305 2 11.0152 29.6723 8.11279
15373 2 13.8364 38.2136 13.8697
12307 2 2.56158 35.0762 5.4796
12308 2 2.72833 32.6235 8.10857
12355 2 10.9156 38.2483 10.9214
12310 2 5.4052 32.4773 5.44404
12311 2 8.16582 35.3642 5.33927
12312 2 8.18394 32.5269 8.20713
12313 2 5.43154 35.4599 8.18264