LAMMPS (29 Oct 2020)
OMP_NUM_THREADS environment is not set. Defaulting to 1 thread. (../comm.cpp:94)
  using 1 OpenMP thread(s) per MPI task
OMP_NUM_THREADS environment is not set. Defaulting to 1 thread. (../comm.cpp:94)
  using 1 OpenMP thread(s) per MPI task
Reading data file ...
  orthogonal box = (-0.48388576 -5.8162081 -0.48750843) to (27.823886 333.89621 27.827508)
  2 by 13 by 2 MPI processor grid
  reading atoms ...
  17640 atoms
  reading velocities ...
  17640 velocities
Finding 1-2 1-3 1-4 neighbors ...
  special bond factors lj:    0.0      0.0      0.0     
  special bond factors coul:  0.0      0.0      0.0     
     0 = max # of 1-2 neighbors
     0 = max # of 1-3 neighbors
     0 = max # of 1-4 neighbors
     1 = max # of special neighbors
  special bonds CPU = 0.004 seconds
  read_data CPU = 0.068 seconds
Setting atom values ...
  11760 settings made for charge
Setting atom values ...
  5880 settings made for charge
PPPM initialization ...
  using 12-bit tables for long-range coulomb (../kspace.cpp:328)
  G vector (1/distance) = 0.29831867
  grid = 40 240 40
  stencil order = 5
  estimated absolute RMS force accuracy = 0.00016023449
  estimated relative force accuracy = 1.112767e-05
  using single precision MKL FFT
  3d grid and FFT values/proc = 15000 7600
Neighbor list info ...
  update every 1 steps, delay 0 steps, check yes
  max neighbors/atom: 2000, page size: 100000
  master list distance cutoff = 11.3
  ghost atom cutoff = 11.3
  binsize = 5.65, bins = 6 61 6
  2 neighbor lists, perpetual/occasional/extra = 2 0 0
  (1) pair coul/long, perpetual
      attributes: half, newton on
      pair build: half/bin/newton
      stencil: half/bin/3d/newton
      bin: standard
  (2) pair eam/alloy, perpetual, copy from (1)
      attributes: half, newton on
      pair build: copy
      stencil: none
      bin: none
Setting up Verlet run ...
  Unit style    : metal
  Current step  : 0
  Time step     : 0.001
Per MPI rank memory allocation (min/avg/max) = 8.142 | 8.166 | 8.179 Mbytes
Step Temp E_pair E_mol TotEng Press 
       0         1500   -228191.71            0   -224771.68   -206.47244 
   50000    1500.5254   -228215.55            0   -224794.32   -394.12575 
Loop time of 344.274 on 52 procs for 50000 steps with 17640 atoms

Performance: 12.548 ns/day, 1.913 hours/ns, 145.233 timesteps/s
99.8% CPU use with 52 MPI tasks x 1 OpenMP threads

MPI task timing breakdown:
Section |  min time  |  avg time  |  max time  |%varavg| %total
---------------------------------------------------------------
Pair    | 219.33     | 228.76     | 238.01     |  31.2 | 66.45
Bond    | 0.0031595  | 0.005104   | 0.0085848  |   1.6 |  0.00
Kspace  | 68.893     | 80.492     | 91.659     |  65.1 | 23.38
Neigh   | 19.83      | 22.749     | 24.914     |  29.0 |  6.61
Comm    | 9.219      | 10.036     | 11.303     |  14.2 |  2.92
Output  | 5.4567e-05 | 6.0262e-05 | 0.00026167 |   0.0 |  0.00
Modify  | 1.0344     | 1.4977     | 2.3085     |  33.0 |  0.44
Other   |            | 0.7341     |            |       |  0.21

Nlocal:        339.231 ave         368 max         312 min
Histogram: 2 6 7 5 6 9 6 3 7 1
Nghost:        3927.23 ave        4024 max        3853 min
Histogram: 4 6 12 5 4 9 2 3 3 4
Neighs:        67069.5 ave       75972 max       56629 min
Histogram: 3 7 2 0 10 6 7 9 5 3

Total # of neighbors = 3487616
Ave neighs/atom = 197.71066
Ave special neighs/atom = 0.0000000
Neighbor list builds = 12490
Dangerous builds = 0
11760 atoms in group oxygen
PPPM initialization ...
  using 12-bit tables for long-range coulomb (../kspace.cpp:328)
  G vector (1/distance) = 0.29831867
  grid = 40 240 40
  stencil order = 5
  estimated absolute RMS force accuracy = 0.00016023449
  estimated relative force accuracy = 1.112767e-05
  using single precision MKL FFT
  3d grid and FFT values/proc = 15000 7600
Setting up Verlet run ...
  Unit style    : metal
  Current step  : 0
  Time step     : 0.001
Per MPI rank memory allocation (min/avg/max) = 8.393 | 8.416 | 8.429 Mbytes
Step f_2 Temp v_Tdiff v_deltaT 
       0            0    1500.5254            0            0 
  100000    1598.6411    1500.5235  0.066167603    768.19972 
  200000    3075.6581    1486.9112  0.082721664    960.39083 
  300000    4553.7877    1495.6391  0.082236751    954.76105 
  400000     6034.071    1499.3634  0.082420502    956.89437 
  500000     7506.989       1504.7  0.083059023    964.30754 
  600000    8996.8805    1497.1714  0.082038758    952.46236 
  700000    10485.876    1513.3591  0.082096841     953.1367 
  800000    11958.871      1504.69   0.08287878    962.21494 
  900000    13434.359    1502.5844  0.084459846    980.57097 
 1000000    14935.103    1504.0003  0.081472771     945.8913 
Loop time of 6774.23 on 52 procs for 1000000 steps with 17640 atoms

Performance: 12.754 ns/day, 1.882 hours/ns, 147.618 timesteps/s
99.8% CPU use with 52 MPI tasks x 1 OpenMP threads

MPI task timing breakdown:
Section |  min time  |  avg time  |  max time  |%varavg| %total
---------------------------------------------------------------
Pair    | 4293.3     | 4490.7     | 4701.6     | 128.5 | 66.29
Bond    | 0.063533   | 0.10339    | 0.16808    |   7.3 |  0.00
Kspace  | 1365.2     | 1588       | 1810.7     | 245.8 | 23.44
Neigh   | 410.97     | 460.47     | 495.68     |  93.6 |  6.80
Comm    | 181.91     | 199.49     | 223.64     |  64.8 |  2.94
Output  | 0.0011474  | 0.0012092  | 0.0023592  |   0.5 |  0.00
Modify  | 5.6937     | 6.1401     | 6.478      |   7.8 |  0.09
Other   |            | 29.29      |            |       |  0.43

Nlocal:        339.231 ave         356 max         320 min
Histogram: 4 2 2 9 4 9 6 6 7 3
Nghost:        3932.12 ave        4032 max        3867 min
Histogram: 8 10 5 5 7 4 4 3 1 5
Neighs:        67053.3 ave       74352 max       58681 min
Histogram: 3 5 2 5 7 8 5 9 5 3

Total # of neighbors = 3486771
Ave neighs/atom = 197.66276
Ave special neighs/atom = 0.0000000
Neighbor list builds = 253067
Dangerous builds = 0
Total wall time: 1:58:38
