30000
Atoms. Timestep: 2000000
2 27.3062 23.4336 136.14
2 16.2882 15.1062 456.435
2 5.20287 17.6351 68.2628
2 26.3069 11.5061 69.5404
1 10.3346 -1.60082 480.726
1 28.4632 4.57022 57.0226
1 12.9213 11.2024 178.925
1 -1.42859 18.393 66.6173
1 17.8594 22.5975 397.608
1 11.2659 0.71497 71.7381
1 16.7875 18.5933 123.018
1 9.16674 8.95057 85.4266
2 4.16833 7.5742 466.426
2 24.2689 16.0738 167.783
2 22.5376 9.54373 71.7581
2 11.4998 2.07115 55.488
1 25.3323 12.6547 461.279
1 24.3412 -1.8295 107.022
1 13.3686 15.3345 476.686
1 27.8263 28.6796 70.3125
1 11.3951 0.196315 343.274
1 27.5243 10.2536 441.199
1 -2.32684 15.5282 464.58
1 -1.83839 -0.893332 53.4188
2 24.8795 15.6764 59.0694
2 18.5931 16.2683 91.6136
2 11.8591 27.9431 78.9969
2 13.9889 27.9417 479.506
1 4.45212 21.563 382.433
1 24.8348 26.657 135.318
1 23.1384 1.65305 128.972
1 18.3137 16.1774 463.133
1 25.505 2.04581 474.049
1 20.762 13.4522 488.254
1 8.56088 13.5668 410.604
1 12.2351 0.246083 82.8886
2 14.0837 12.0171 55.6163
2 13.7209 24.4247 55.9976
2 24.3791 24.8185 58.3334
2 4.91532 0.615583 95.3768
1 21.0174 13.5362 397.425
1 1.969 -0.00838409 69.9908
1 2.14346 29.2281 439.684
1 1.57428 29.5237 146.896
1 5.08396 26.1609 142.461
1 23.6811 12.8547 157.461
1 21.6097 3.24992 489.885
1 -0.41792 9.25523 156.852
2 5.00541 23.7204 86.2304
2 3.16836 10.3454 464.235
2 24.8443 12.4759 489.822
2 26.0174 9.7974 480.454
1 9.91148 14.1002 147.812
1 2.28825 16.3634 416.832
1 12.5552 26.1083 456.406
1 14.2149 13.2641 156.794
1 11.4048 28.1808 76.5653
1 12.9313 27.5709 443.806
1 6.9033 2.20652 98.1223
1 5.86103 14.894 356.773
2 10.5895 11.3955 432.286
2 3.78202 2.08444 64.4439
2 17.2184 2.64243 72.5542
2 6.81509 -0.354049 102.337
1 13.1704 17.4604 327.274
1 16.5141 9.04908 451.837
1 1.99862 3.47274 443.374
1 -0.06123 2.07049 105.408
1 3.59549 28.1151 419.001
1 18.1645 29.0064 120.468
1 13.3833 9.41467 439.702
1 3.60827 14.9089 60.191
2 26.0309 0.65598 53.2245
2 12.2155 1.57492 485.848
2 11.1582 14.4974 433.978
2 2.225 15.8565 54.3458
1 10.6369 -1.30387 97.5984
1 7.16269 3.11814 471.707
1 5.86715 10.9953 80.0158
1 26.9799 18.7901 72.9111
1 9.13733 12.9111 180.841
1 25.7005 22.8411 417.195
1 23.6694 13.2256 446.172
1 16.3487 14.7298 127.628
2 8.81995 27.3362 471.176
2 10.293 0.630188 476.903
2 6.82132 4.11101 63.2063
2 2.19418 24.9732 113.536
1 21.1183 7.96884 464.393
1 18.3899 -2.29075 56.5047
1 11.6779 7.02131 445.398
1 10.4416 22.4465 95.7917
1 24.0273 27.6028 61.9707
1 27.5301 13.858 478.334
1 23.3081 18.1962 110.268
1 13.019 1.76708 57.3154
2 12.4527 28.3122 101.508
2 20.6919 17.265 87.8655
2 17.3121 26.1387 469.155
2 1.09267 18.3151 430.149
1 27.7469 12.343 474.491
1 15.8506 2.27892 492.145
1 9.49625 18.6173 482.991
1 18.4535 20.6551 67.8893
1 1.96946 16.2636 56.5581
1 2.68957 21.396 107.047
1 4.20239 24.2944 158.686
1 10.3682 3.76258 85.3723
2 23.3558 5.95773 481.714
2 4.13749 0.014316 480.479
2 20.7627 16.9016 462.62
2 4.26722 29.3908 447.776
1 1.44515 17.2718 97.158
1 14.8627 16.7892 132.374
1 26.5576 6.4584 443.216
1 19.3357 3.21666 483.271
1 23.8404 21.5167 80.07
1 8.4105 -0.0290771 398.943
1 26.8251 24.3018 486.61
1 -1.1955 11.7095 54.1816
2 -1.2689 26.3743 487.397
2 8.35843 12.6425 493.415
2 14.773 27.8103 475.281
2 2.1032 7.63688 68.7541
1 5.21266 12.0092 465.702
1 25.7204 8.2105 474.019
1 23.2781 25.9031 56.6932
1 18.4679 24.6392 427.679
1 6.73504 2.10929 83.9533
1 10.1529 23.3151 116.011
1 -0.74897 2.90812 77.8353
1 22.7322 13.3059 474.783
2 1.25921 0.459249 55.5348
2 8.63477 15.3593 447.393
2 19.7484 15.0784 447.68
2 23.6655 23.0548 493.422
1 23.4625 25.861 72.4631
1 22.6232 20.5968 384.866
1 1.20967 28.3637 408.88
1 23.6865 6.01215 59.6764
1 3.70187 8.7472 442.388
1 28.5829 8.48603 398.568
1 15.3272 11.1754 118.941
1 29.4745 27.6968 111.052
2 -1.48216 20.0381 97.3135
2 -0.543386 23.3508 468.904
2 3.23276 15.9209 98.4693
2 15.5028 -0.462854 451.101
1 1.17141 1.65544 124.315
1 10.6349 25.4921 65.632
1 15.1593 24.806 447.251
1 19.4708 21.439 182.167
1 24.3525 8.78808 154.31
1 15.652 4.23022 76.0229
1 19.9246 7.73418 76.2906
1 3.26903 27.4098 60.898
2 3.45274 7.93099 84.4976
2 26.4659 2.68706 74.1276
2 25.1028 21.916 66.214
2 4.10163 13.6751 487.557
1 -0.320434 16.4841 247.312
1 23.0436 13.2744 113.373
1 24.3058 8.49069 205.861
1 17.4579 10.9876 171.287
1 26.6262 15.7452 70.6303
1 19.6605 28.8519 490.599
1 -0.958378 3.39624 434.397
1 17.0951 19.0192 56.4594
2 15.1121 3.33104 471.858
2 9.77717 23.2548 487.617
2 14.098 13.5187 475.215
2 7.66267 26.1764 482.165
1 14.4837 22.0169 112.193
1 0.505598 28.8511 94.0932
1 19.5466 8.11384 138.941
1 14.1739 0.561823 123.673
1 5.71981 26.644 452.033
1 5.4021 27.3881 73.177
1 7.50969 4.36234 483.471
1 1.13409 24.7681 153.33
2 17.0396 24.8856 88.9412
2 9.88863 9.3541 62.8809
2 28.0837 2.04722 469.031
2 11.0712 2.14804 90.6314
1 3.53307 26.749 191.552
1 29.4894 0.392854 93.559
1 4.79615 1.64003 487.904
1 10.2015 5.71976 64.2423
1 26.8385 13.9658 66.6918
1 6.12711 13.9675 71.5722
1 6.42673 3.30887 459.598
1 12.5962 24.8562 492.158
2 2.74445 20.7641 437.853
2 2.15712 25.6546 56.4882
2 -1.01719 1.48827 71.9675
2 2.52101 -2.06958 93.4692
1 14.0219 4.5812 465.323
1 -1.60864 21.5584 450.405
1 23.8784 -0.819521 410.762
1 8.22344 22.0821 87.6079
1 12.3997 13.3752 478.33
1 21.627 15.7822 458.52
1 12.2531 17.7925 456.94
1 1.36883 12.81 56.6433
2 19.8262 11.4237 465.865
2 28.0548 18.0835 480.46
2 27.3606 16.0977 477.115
2 25.2682 1.41937 438.512
1 18.6697 4.76012 72.634
1 -1.36357 -1.83603 60.4997
1 23.5872 5.15766 104.947
1 8.75663 26.3776 460.363
1 13.1072 6.22657 416.848
1 29.1733 28.5161 446.395
1 2.26433 20.8207 58.2669
1 9.20769 6.42593 54.7528
2 29.6801 13.8098 459.752
2 21.1781 25.5298 87.2436
2 19.6504 9.40076 429.027
2 2.34887 -1.22817 411.039
1 22.9389 28.5847 73.3922
1 20.186 7.78972 84.1942
1 1.34896 24.3911 83.1018
1 26.5626 17.4097 191.182
1 17.0999 11.1021 87.6124
1 25.9609 27.3116 162.41
1 2.64074 15.3655 79.3676
1 -0.0277315 17.6334 457.038
2 9.40979 18.2913 463.528
2 19.9687 3.38303 76.0133
2 23.8342 10.2862 81.1426
2 16.859 25.9715 462.492
1 5.12893 10.301 62.0114
1 6.83134 27.1545 455.884
1 28.1031 4.99782 63.5617
1 13.1452 6.4587 90.5123
1 26.3546 17.9772 175.669
1 15.0761 23.4676 84.9976
1 27.2587 19.3405 142.067
1 7.01244 2.79562 463.008
2 0.186414 8.04444 82.9271
2 17.3248 14.8834 87.9139
2 27.4699 19.932 477.174
2 4.51137 14.4706 483.805
1 26.4403 9.80777 93.7318
1 18.8025 13.4807 102.256
1 27.4644 22.1701 435.171
1 6.79977 17.4308 70.4881
1 5.83398 5.44698 67.3649
1 29.1177 13.5136 108.389
1 3.58082 5.91007 453.309
1 14.6153 29.3201 65.4377
2 20.8028 7.0052 81.9551
2 29.5442 -0.805913 78.5811
2 5.94986 11.9815 63.2364
2 5.05339 18.6418 400.751
1 19.1473 18.3063 461.667
1 18.4131 -2.12084 70.2667
1 6.41936 2.17015 62.0446
1 4.69854 1.85341 121.645
1 11.7344 24.6579 60.6676
1 7.77543 23.6933 105.109
1 13.4164 13.2545 128.368
1 14.1221 3.77883 60.3624
2 -0.06133 8.79572 86.8678
2 -0.475042 -1.7608 418.77
2 15.0987 4.54985 485.301
2 2.61223 6.54531 488.248
1 12.4821 -1.06001 456.248
1 9.8803 9.98839 433.845
1 28.3127 7.54636 476.858
1 22.7912 -0.967287 458.889
1 26.2057 6.11613 58.5231
1 -0.885667 3.00293 472.831
1 25.944 16.6995 481.61
1 17.1618 24.2231 70.5388
2 8.8559 21.5256 466.454
2 10.7315 25.7922 414.925
2 5.20351 25.2789 442.463
2 11.5941 26.5123 448.347
1 10.9014 10.6005 87.2139
1 4.76357 9.43464 85.4304
1 3.97091 16.8733 474.344
1 3.33346 17.7029 53.7001
1 24.0108 16.5832 107.585
1 23.3922 7.25071 462.419
1 6.56678 21.579 439.071
1 11.5654 16.1759 59.4563
2 27.1224 27.2414 466.373
2 3.74139 24.8888 89.777
2 24.9623 1.95166 87.0144
2 2.19207 15.1348 444.5
1 8.84852 16.3559 464.857
1 9.80993 17.2042 417.339
1 3.73754 25.9862 468.332
1 28.0596 9.83464 84.4152
1 22.3245 22.5282 476.509
1 9.50921 27.3119 421.935
1 24.1507 25.6248 95.579
1 7.87433 -0.715333 97.4792
2 -0.38875 27.8971 78.4307
2 24.0361 7.54117 143.714
2 20.6692 27.2857 485.95
2 21.3988 0.0415065 449.246
1 3.16846 0.147092 79.8027
1 -0.170285 22.699 139.211
1 22.9869 27.8791 378.224
1 7.11699 21.2412 473.766
1 -1.09664 10.3398 487.095
1 5.77159 27.8751 410.173
1 0.8563 15.4709 462.622
1 1.17048 10.3022 452.036
2 29.0282 18.6091 114.561
2 3.67235 9.35033 103.512
2 15.4324 15.1812 108.844
2 12.6268 15.1572 465.045
1 1.85273 12.2019 95.1187
1 11.0236 3.90191 486.746
1 -0.478265 23.5716 448.798
1 10.5253 2.17225 425.563
1 0.497153 9.85018 446.249
1 11.8739 4.51913 81.4134
1 -0.962042 7.3653 232.481
1 19.6995 7.25076 104.541
2 24.2517 0.0530717 474.68
2 1.87042 13.0514 124.246
2 22.9078 6.23034 456.408
2 22.9885 8.58921 473.053
1 8.04452 3.13583 214.939
1 26.1098 8.3621 86.1455
1 22.0292 12.6626 483.642
1 9.02144 15.0292 484.012
1 22.4263 -1.25425 428.07
1 6.47048 24.918 122.281
1 22.3462 25.2528 476.152
1 19.4904 0.908925 484.457
2 14.8991 23.9742 477.976
2 17.3345 9.89675 82.766
2 12.3355 1.3054 463.786
2 2.81139 12.4433 155.991
1 17.3635 2.7578 92.0666
1 14.3661 7.22202 78.3402
1 16.6398 29.1179 96.9883
1 18.9842 20.8886 62.0767
1 24.0784 26.8093 109.354
1 10.243 17.5472 87.1585
1 -0.371792 18.3822 151.926
1 15.3934 8.13923 490.692
2 28.1121 21.3423 450.892
2 9.93712 15.7922 146.093
2 25.5797 -1.29929 73.6508
2 11.6262 6.03954 485.983
1 10.9046 24.2984 81.413
1 20.4395 28.7882 477.38
1 23.3523 8.27319 166.734
1 19.203 24.4851 454.222
1 16.6732 16.3239 471.304
1 5.8386 2.37119 71.64
1 -0.944855 1.10549 391.328
1 2.70857 6.97482 90.3932
2 11.0174 -1.81335 457.94
2 5.33992 -1.00961 79.2598
2 6.87207 -0.156827 131.688
2 1.01236 28.7546 106.869
1 26.6658 26.0811 451.632
1 0.281702 27.1559 123.434
1 14.3421 24.1555 452.258
1 3.61287 -1.13823 493.206
1 7.57377 24.8654 473.983
1 25.4944 2.38416 76.9086
1 -1.06223 3.61662 431.641
1 11.5406 14.6987 462.771
2 0.133278 20.1655 111.379
2 0.170908 4.6123 485.436
2 20.0001 28.8902 60.9037
2 22.1204 6.71628 62.7333
1 23.8003 9.74094 65.7566
1 9.2344 10.2483 450.425
1 3.87199 22.3627 480.494
1 24.4537 -1.97878 93.8463
1 0.104101 16.5992 78.4385
1 24.4597 3.86257 82.4018
1 4.19395 23.221 117.422
1 10.0588 1.77889 66.7056
2 1.26945 25.9106 125.237
2 10.9869 18.6073 476.712
2 -1.48005 24.0239 491.293
2 -0.8652 27.5533 59.8089
1 11.1781 1.95621 220.761
1 5.33077 21.2567 459.573
1 3.68708 23.8549 449.151
1 13.1474 0.843863 470.766
1 25.0548 -1.91429 61.2381
1 17.9929 12.1601 62.7072
1 3.23906 27.5585 64.8695
1 14.4798 -0.00121363 492.284
2 6.16923 18.5769 63.3422
2 10.6779 10.9977 131.127
2 13.5625 1.21146 64.8917
2 11.1727 13.5927 490.93
1 13.6589 23.2126 161.36
1 3.14792 1.90972 114.662
1 11.8555 25.5151 144.314
1 26.5425 -2.16387 484.615
1 15.9498 13.2075 430.395
1 9.4654 16.124 114.789
1 14.4946 4.50363 152.829
1 10.8651 8.10931 442.947
2 23.4994 1.30997 64.3935
2 19.9701 1.5744 435.844
2 18.9317 23.8628 456.516
2 28.6574 5.1672 70.966
1 3.48317 25.0589 73.6057
1 19.0986 21.2473 452.484
1 18.4773 13.2367 86.9321
1 -0.722018 23.4214 115.368
1 19.8496 3.0463 137.265
1 16.675 19.3258 118.449
1 9.21273 26.1531 403.152
1 -1.48151 9.14465 72.0968
2 17.2304 18.871 66.6999
2 27.9129 11.2241 80.4422
2 23.2137 3.70671 157.86
2 28.168 5.24572 475.991
1 15.1391 4.64266 129.863
1 1.63281 23.8678 55.0896
1 23.3453 8.16188 70.0236
1 10.9237 27.8617 125.381
1 7.13574 8.7935 486.788
1 8.63103 6.10147 217.453
1 2.65398 11.0593 75.6915
1 -1.14231 19.1696 449.283
2 25.9608 2.04241 79.0421
2 27.3679 11.6091 483.709
2 0.663521 13.2126 99.585
2 6.01575 27.6987 81.7923
1 0.726187 26.565 473.827
1 17.8564 7.4973 132.073
1 16.8996 18.3245 72.5415
1 5.58193 2.84155 87.5131
1 16.3552 7.78297 478.477
1 4.11 -0.170462 72.0186
1 12.9896 27.0181 137.913
1 6.69106 9.8053 120.752
2 25.925 -1.79216 85.4042
2 8.79411 2.23029 113.583
2 8.06688 4.04102 70.2455
2 6.94256 12.993 441.524
1 25.4263 16.8483 435.234
1 19.8293 26.4737 491.728
1 22.6184 15.3908 486.928
1 19.2704 9.88538 96.1294
1 14.133 -0.122169 486.459
1 15.7202 6.02096 138.408
1 29.2287 10.0091 56.1503
1 3.05192 28.1965 460.333
2 13.6436 23.1813 460.674
2 11.2131 23.8575 83.5568
2 21.6831 20.8244 62.8241
2 23.933 0.563575 481.421
1 26.0581 16.575 461.604
1 11.1477 -0.443862 110.119
1 16.7019 6.71843 450.478
1 19.2146 28.1297 133.734
1 22.2651 2.50255 103.212
1 12.0805 0.893505 418.486
1 2.90035 9.48458 439.68
1 6.41019 4.93089 54.2563
2 11.5573 3.22635 106.106
2 8.1113 20.0622 488.861
2 -1.70392 26.1552 85.8353
2 20.9625 22.7531 71.0254
1 8.31198 -0.566566 77.7356
1 14.9656 5.4738 68.7914
1 -0.520596 -0.658927 88.8064
1 24.3823 2.53114 470.939
1 1.78155 9.32877 71.5317
1 19.9817 13.4033 109.898
1 2.19128 19.4763 471.054
1 10.5813 2.42742 117.444
2 8.69452 10.4518 490.42
2 26.2271 3.92571 479.242
2 13.0915 19.5477 62.2386
2 12.5924 25.448 444.512
1 10.9382 9.83285 118.938
1 0.388443 22.9316 69.4183
1 21.6895 5.43406 110.001
1 9.38027 27.3147 78.8789
1 19.0964 5.99888 437.922
1 8.64556 14.9949 415.847
1 7.41885 21.3295 100.787
1 3.19127 -1.86005 134.202
2 15.0524 5.3544 71.138
2 8.14136 0.777138 56.1263
2 18.7286 14.2684 151.136
2 13.8039 18.9234 66.0736
1 22.2313 1.46265 60.5214
1 22.7791 3.53146 71.2177
1 9.38628 15.5726 421.622
1 3.48073 -1.27123 462.126
1 15.1347 18.1793 442.898
1 11.8968 19.2995 75.9184
1 16.9783 19.8795 95.2747
1 20.715 27.6812 71.6689
2 9.70977 8.74747 388.979
2 20.5291 9.21479 118.374
2 17.6777 7.24646 490.694
2 25.649 6.70157 60.9067
1 15.6451 2.47187 448.149
1 -1.68457 1.59618 467.961
1 7.0843 7.65296 457.294
1 14.8186 1.97359 376.207
1 17.131 -2.17094 124.836
1 16.1235 25.2236 486.627
1 14.7665 29.2402 101.367
1 21.4745 13.7002 132.042
2 23.5518 1.88177 491.217
2 5.30867 25.8954 53.9936
2 5.92796 -2.14277 411.713
2 25.9668 12.8007 107.483
1 24.7825 21.1227 492.507
1 7.86945 16.7681 92.1986
1 19.3225 29.4968 480.138
1 12.468 0.898666 69.1762
1 0.666788 10.3145 120.304
1 8.46072 24.4243 462.55
1 5.64069 4.66923 107.068
1 5.63512 -1.55779 74.3764
2 7.69818 11.9348 478.694
2 19.7877 4.0767 62.0228
2 28.0091 23.596 64.3774
2 6.71082 -1.80511 67.1657
1 7.76186 15.6673 101.588
1 14.9796 -1.39436 471.15
1 6.05345 -0.255148 56.7023
1 27.1298 28.7221 58.0868
1 15.6749 0.139935 215.866
1 13.3125 18.1573 60.4402
1 28.4819 21.8385 106.435
1 14.2101 1.73085 382.178
2 9.08912 17.7856 113.259
2 7.87789 27.2749 409.096
2 14.6764 1.81393 483.058
2 4.87708 24.9499 79.1762
1 3.70375 11.4618 55.5531
1 0.233715 3.93449 75.5977
1 23.9711 -0.06893 66.2514
1 14.4748 11.6411 67.4562
1 19.949 18.4136 167.601
1 26.588 11.6855 86.4011
1 7.45248 11.4619 473.837
1 6.33438 4.33088 116.488
2 3.23242 23.1517 484.907
2 14.2442 29.6143 60.298
2 17.5375 -2.04024 478.436
2 21.0311 28.4124 79.5432
1 0.229774 6.75588 386.804
1 25.0405 17.845 488.284
1 2.44942 4.81463 57.229
1 25.8895 17.5152 159.218
1 24.9516 28.7395 75.0408
1 12.3958 26.0906 149.917
1 -0.388147 2.30199 409.851
1 21.1201 12.728 57.9032
2 17.8029 15.8776 60.6078
2 2.13434 18.7877 452.965
2 17.7934 17.3587 145.223
2 13.6107 16.3824 482.445
1 11.7026 1.01532 88.7891
1 16.4385 17.169 338.342
1 3.23251 -1.18799 96.213
1 17.8829 -0.832993 399.16
1 8.69191 21.754 56.9162
1 -0.0501309 0.197095 94.9317
1 11.2522 27.1577 122.533
1 15.7192 24.3321 137.151
2 12.4648 26.5162 62.0442
2 29.3565 15.633 101.695
2 6.9813 10.1471 471.628
2 14.3559 22.821 141.907
1 5.71347 12.5806 483.548
1 -1.12293 10.5666 431.392
1 5.63644 14.363 460.022
1 2.7168 18.8372 488.382
1 15.1128 -0.357989 67.7587
1 3.13422 16.6931 67.2432
1 22.8205 17.9883 486.368
1 17.4829 26.2378 94.2957
2 14.6816 24.0422 473.945
2 7.77245 3.73237 96.5466
2 11.7519 18.4379 55.1402
2 8.01546 8.79267 466.252
1 -0.698003 6.52238 141.345
1 24.1967 28.4271 137.505
1 26.3255 -2.0861 478.428
1 13.7165 17.4331 63.1162
1 14.7062 4.03729 91.7243
1 2.8818 10.6125 112.025
1 18.9942 25.9783 404.054
1 28.3734 19.9965 445.996
2 10.963 21.054 67.8374
2 7.88419 20.7639 475.8
2 8.13856 -0.0319813 459.048
2 10.4911 28.3943 444.776
1 6.45688 15.2728 446.229
1 11.9401 24.5044 88.3785
1 13.2914 22.4157 96.2942
1 14.0353 15.7102 463.245
1 8.42596 22.3483 493.528
1 5.18761 7.79144 102.593
1 24.6297 10.1396 451.794
1 10.2831 11.3576 155.894
2 -0.932776 10.1467 453.22
2 3.8918 9.09312 72.2541
2 15.5236 8.4809 101.603
2 21.6592 23.8807 80.5533
1 15.614 -0.519082 61.1482
1 3.18448 8.89293 100.996
1 -1.87118 10.6792 421.568
1 4.73692 24.2903 96.1334
1 -0.167306 10.5931 115.596
1 5.79871 21.336 128.25
1 17.2878 24.2443 104.122
1 23.642 14.4069 466.52
2 3.70257 21.1373 61.8164
2 -0.562403 29.4085 466.446
2 15.4539 11.5207 65.435
2 17.1337 -0.534361 128.629
1 4.42561 1.10077 470.836
1 8.24816 28.7972 87.8711
1 13.939 -1.86119 69.6208
1 13.0369 24.1723 66.3918
1 4.08788 18.9098 435.702
1 25.1275 18.8099 120.028
1 -1.95207 22.8326 76.3447
1 3.42916 10.0356 466.45
2 10.9741 1.88653 82.0868
2 2.87766 12.7802 61.6022
2 2.65577 0.644912 463.234
2 8.66923 6.16457 66.1946
1 -0.121622 -1.43471 164.439
1 19.6934 11.495 468.006
1 2.30696 15.7964 464.878
1 28.8134 14.8598 425.235
1 3.08795 22.768 142.788
1 0.37605 21.51 74.1451
1 23.6252 26.1138 112.479
1 11.0221 21.1106 105.765
2 7.31743 -1.94794 489.842
2 19.371 25.2541 442.576
2 21.4326 23.3391 459.236
2 25.742 19.0711 116.042
1 4.55757 5.545 480.743
1 21.7119 10.2465 88.3778
1 10.3742 -0.940728 493.342
1 24.35 -0.747311 75.8179
1 25.3378 27.2374 106.754
1 3.56686 0.831879 410.31
1 22.878 6.49541 83.1819
1 28.8037 3.26332 93.2986
2 20.9549 12.8932 112.354
2 3.6873 5.12538 416.66
2 9.93732 27.673 65.0918
2 5.05365 18.2201 94.995
1 20.5802 8.14696 430.977
1 1.18173 15.979 150.915
1 12.7106 7.6766 57.2031
1 -0.29518 -0.23227 455.073
1 10.9984 22.4271 64.3491
1 25.3397 3.30479 58.5048
1 15.6808 26.9779 102.809
1 22.6098 9.607 117.427
2 1.59334 22.4419 481.253
2 0.948275 9.37585 101.405
2 9.74797 20.1948 64.6395
2 23.738 19.8334 59.8526
1 26.0155 17.5041 111.478
1 2.33145 -2.20548 404.714
1 -1.73784 18.6383 487.304
1 11.7506 21.6155 101.279
1 8.55747 10.8652 80.1166
1 11.3751 21.0091 128.897
1 -1.382 8.69023 409.833
1 25.0544 10.8837 136.644
2 2.32346 27.6552 62.8144
2 5.37438 10.3419 492.948
2 8.93335 4.98523 92.9232
2 15.0527 14.793 452.761
1 0.758736 25.8103 441.177
1 13.2179 6.71791 177.973
1 20.5881 7.50527 79.4096
1 21.5184 1.05275 66.3505
1 13.0547 24.6431 472.132
1 14.3697 2.19441 99.7759
1 -0.997231 1.41795 206.233
1 13.3333 -0.616662 464.211
2 15.4474 14.2452 485.007
2 25.6371 11.8263 65.9434
2 -1.39019 4.09403 96.6144
2 22.6635 -0.735017 68.0281
1 -0.8607 20.7657 107.949
1 24.3179 2.4207 91.9748
1 9.52173 21.8235 461.407
1 19.9185 -1.20518 100.876
1 3.17221 13.3828 105.831
1 12.3074 -0.736884 427.614
1 -1.64252 8.56038 480.88
1 28.5463 17.6565 112.598
2 11.3416 7.55897 490.76
2 23.2919 13.9064 83.3182
2 6.68427 -0.488272 108.259
2 11.6334 5.89862 77.0334
1 19.5348 12.0977 170.16
1 24.683 12.9653 468.865
1 3.49961 4.09089 456.145
1 19.9559 7.82857 134.414
1 12.9384 0.480756 483.883
1 21.5056 14.6757 102.769
1 -2.21156 10.0447 74.6113
1 11.8788 9.1788 446.899
2 13.0217 11.0247 85.4633
2 16.8311 26.2344 69.5717
2 12.6693 -0.976074 71.2032
2 19.9997 6.8192 110.661
1 -0.209756 12.7841 142.513
1 9.09433 25.4176 95.4943
1 15.2315 14.0646 387.106
1 27.7417 13.3451 69.7418
1 18.4099 29.4627 465.644
1 24.8218 8.65878 59.8486
1 6.12681 19.1499 493.205
1 4.67352 8.49739 112.732
2 11.4547 18.2943 116.15
2 14.0597 0.290004 101.247
2 25.0345 29.2163 491.961
2 16.7591 15.771 80.0979
1 3.73377 12.1126 137.934
1 7.10594 17.6866 484.326
1 20.2722 7.39758 93.3421
1 16.5628 8.25873 88.7331
1 28.4682 23.9511 56.3869
1 20.9344 14.7294 481.859
1 9.84936 20.4512 71.4462
1 21.8676 24.2644 58.4103
2 10.8337 8.05167 475.459
2 21.7237 2.98861 68.4593
2 20.1539 -0.794431 92.1411
2 5.8241 29.2752 57.0153
1 12.6965 9.25938 379.184
1 5.25092 10.3964 89.4226
1 9.24303 20.0535 477.521
1 0.801309 25.9046 108.866
1 15.4343 26.1935 89.8124
1 26.3302 16.5199 146.194
1 23.6081 20.9039 474.47
1 15.4445 9.42779 488.026
2 -0.360015 16.5757 60.2285
2 13.2851 15.8615 61.0848
2 8.80983 21.8201 105.962
2 -1.25427 14.4122 75.1912
1 24.9736 14.2832 232.383
1 25.9867 25.3627 407.099
1 8.02558 6.45481 102.046
1 7.02066 29.2237 107.763
1 15.7765 -2.28652 55.795
1 19.6891 25.0382 111.142
1 6.82935 1.10967 473.722
1 10.5549 -1.81237 442.666
2 17.2615 7.15616 61.1641
2 20.8026 22.3962 93.3872
2 13.012 15.2576 64.4272
2 2.03851 5.4528 492.065
1 2.81555 16.9123 76.9852
1 19.0218 10.1612 125.645
1 12.2254 22.6551 193.23
1 12.7765 -1.40642 490.193
1 21.7731 25.5482 452.405
1 -0.375556 29.1587 154.877
1 21.8863 3.95462 91.7583
1 19.6367 5.37736 493.559
2 -0.496281 7.15317 470.026
2 15.5807 10.986 99.1443
2 29.2652 0.193107 74.8741
2 29.695 3.53909 121.268
1 12.3099 28.7948 422.425
1 12.489 21.5142 440.922
1 5.0638 3.35366 439.142
1 25.5591 29.5625 419.162
1 24.3698 13.769 87.8333
1 19.7754 27.6982 122.688
1 22.801 7.18482 67.4698
1 0.624446 17.6714 144.3
2 13.7159 4.08929 74.4633
2 7.39164 -0.710517 119.56
2 20.1648 -0.0239467 77.5656
2 22.647 -2.29162 54.4459
1 25.4285 24.9659 442.433
1 9.08262 10.4545 182.127
1 22.5311 16.7067 435.899
1 25.4228 27.0426 98.0553
1 25.4502 11.9823 424.695
1 15.2062 9.5112 484.862
1 14.0516 6.75603 126.233
1 27.8263 17.5374 431.673
2 19.5619 -1.36452 84.2536
2 0.0677216 9.73803 66.8835
2 6.24803 5.28553 90.5527
2 18.9442 6.46052 121.669
1 16.2574 14.3498 464.044
1 26.5246 -0.0611236 105.852
1 5.43591 21.939 464.017
1 4.4151 14.6923 136.119
1 13.2376 9.73916 97.9606
1 25.3964 19.2105 463.02
1 -2.2553 14.6619 92.2304
1 10.6591 0.321671 74.9314
2 -0.95533 25.7124 98.7785
2 15.762 26.0435 488.766
2 15.5792 13.0813 58.8777
2 -1.11124 26.2133 63.034
1 15.0541 7.02663 443.048
1 27.4576 22.1076 399.58
1 10.9994 0.70977 491.044
1 28.8693 23.8087 479.738
1 29.0165 2.37199 136.146
1 20.5086 29.057 394.387
1 26.6841 3.67342 438.389
1 -0.473001 2.36914 120.086
2 27.2704 15.9014 483.438
2 3.53969 22.0707 80.827
2 0.112896 1.88152 79.824
2 24.8727 22.6817 475.666
1 12.8358 15.5848 455.424
1 23.8053 19.6353 62.4523
1 23.6206 24.2081 454.679
1 1.34027 20.164 139.596
1 8.6936 -1.90594 464.883
1 10.1254 19.1707 471.337
1 22.2428 18.4056 92.3247
1 21.5514 13.9482 455.892
2 20.6702 22.5147 97.0861
2 0.450853 15.0598 63.2174
2 20.6484 12.7969 493.003
2 11.7104 20.7679 94.6379
1 9.313 2.24502 87.8193
1 19.4901 13.0526 461.178
1 5.47527 1.47545 109.409
1 23.7322 -1.40829 85.2945
1 13.3078 12.9984 65.0447
1 27.0399 14.3474 178.836
1 17.3358 4.96573 61.8242
1 0.783302 -2.00113 91.7294
2 23.488 19.4616 96.6281
2 11.3832 9.51586 487.307
2 28.7579 14.0813 97.9614
2 -0.401849 20.5776 69.9126
1 2.4504 18.7931 476.639
1 14.6767 0.39801 422.51
1 14.448 2.15754 130.669
1 3.72012 29.0636 435.03
1 9.08011 -0.826632 478.595
1 19.9976 27.2257 438.529
1 19.735 10.8026 77.4213
1 3.60555 18.5106 413.033
2 11.7695 -1.75971 54.6692
2 2.21919 8.21252 106.851
2 9.1278 4.90986 80.7949
2 16.2045 -1.62398 70.0559
1 28.3827 1.28456 493.497
1 3.14147 24.6034 87.5426
1 16.6121 5.02464 83.7388
1 13.4847 21.9315 412.725
1 20.2843 27.7097 457.897
1 16.4665 8.52574 84.2834
1 23.487 -0.646199 70.3596
1 -1.6153 26.0936 66.1607
2 1.06439 12.8527 475.868
2 8.47023 6.70124 472.8
2 -1.65455 27.3009 478.311
2 4.53578 20.3486 91.0999
1 20.9188 6.40533 100.574
1 26.4861 8.54282 221.329
1 16.2279 20.1443 448.819
1 16.5341 19.877 98.1927
1 -1.97645 10.3852 67.8861
1 24.6744 24.3346 153.475
1 1.86627 29.0209 466.743
1 21.5276 7.21112 454.798
2 17.1559 1.72868 83.3956
2 14.3455 8.09802 83.3824
2 15.107 29.5937 103.682
2 2.66617 27.2117 73.2249
1 25.5582 20.6581 58.4374
1 17.8803 3.51754 77.4931
1 24.273 16.8878 474.702
1 9.10341 7.48726 130.017
1 14.98 27.7933 151.874
1 17.5984 29.4806 439.291
1 -1.98548 -1.63809 464.738
1 14.6921 5.59725 182.326
2 27.8007 -1.62995 468.581
2 7.89019 21.2298 94.7248
2 2.22972 1.93019 154.176
2 -2.05185 4.00358 64.4987
1 29.5009 21.2763 99.2417
1 2.30133 24.5905 138.043
1 12.8971 20.2261 55.6626
1 0.121056 3.32899 60.4854
1 9.94203 12.0906 54.8782
1 23.4307 6.37925 74.6643
1 24.8515 9.48615 212.099
1 8.69089 29.3311 99.554
2 11.037 13.6549 83.8284
2 13.8585 9.13325 104.822
2 0.828227 16.223 80.7795
2 3.33557 17.4701 466.361
1 5.20161 1.07923 59.6894
1 18.4856 0.709507 194.931
1 12.9253 14.1272 452.69
1 14.8648 -1.99997 108.75
1 9.56604 10.3086 126.275
1 15.7977 9.51774 476.095
1 28.4245 12.1603 490.765
1 6.5648 26.7445 83.8065
2 9.27031 17.2455 100.759
2 2.07793 26.8146 467.03
2 1.61816 11.9259 84.0153
2 10.1578 0.896066 69.3826
1 16.4256 -1.16672 463.774
1 14.9447 24.2724 489.922
1 4.45503 15.2137 470.338
1 26.5673 16.5728 472.756
1 0.0648932 21.1813 406.322
1 16.8293 22.3659 142.102
1 14.4567 -0.652253 81.2507
1 9.71413 14.6374 487.113
2 4.41711 11.9149 473.646
2 26.3294 9.78805 109.646
2 21.6971 26.1403 70.1153
2 29.6622 14.2237 485.724
1 3.98275 0.519003 117.407
1 3.90903 16.7977 401.277
1 19.1286 10.8359 143.745
1 28.7416 3.74906 398.562
1 18.8933 13.0025 133.336
1 26.5096 20.7801 439.659
1 4.86968 27.4029 55.6629
1 4.03094 27.3901 87.9415
2 23.2867 5.81784 441.605
2 19.1426 24.5641 492.77
2 22.7507 8.36156 158.922
2 27.1878 25.0718 440.805
1 24.4484 6.07227 71.6878
1 0.184956 3.72204 466.293
1 13.1855 21.9971 478.757
1 12.1665 18.9385 108.081
1 -0.585022 13.5813 90.1923
1 10.8427 16.3557 435.494
1 26.967 13.2738 142.482
1 18.7748 7.32389 112.389
2 25.3511 29.0207 69.4368
2 27.8672 22.4416 447.22
2 13.6788 25.7819 103.269
2 14.7278 17.8457 82.742
1 -2.24211 8.71771 485.272
1 22.1661 -0.204031 123.001
1 0.0899366 5.87911 91.207
1 16.9156 28.3877 359.678
1 12.7906 15.1747 94.8982
1 13.4402 21.3974 79.7692
1 -0.703756 1.64269 488.157
1 24.7523 16.5405 490.736
2 16.5375 5.57075 92.3483
2 6.30029 8.15438 63.0169
2 -2.31735 2.12012 60.8857
2 25.2589 28.7172 92.2306
1 14.7706 25.1255 420.597
1 8.56892 9.6418 142.333
1 -2.0601 23.7212 53.5891
1 9.05359 10.4303 108.924
1 1.46606 20.1117 481.19
1 3.31066 5.00114 115.135
1 17.402 27.2691 88.3691
1 12.4168 12.3226 97.0429
2 22.3128 27.8262 57.7608
2 16.7818 26.4014 104.833
2 -1.22019 6.16544 67.4658
2 9.57158 8.49706 75.6594
1 14.6375 24.1438 140.015
1 -1.36272 9.36419 137.427
1 1.64444 23.3176 89.8582
1 12.1366 15.3114 68.7153
1 19.9355 -1.94952 146.662
1 17.2984 9.40292 110.683
1 7.37506 -2.26557 462.344
1 25.6551 8.66812 439.944
2 20.2636 22.6305 125.756
2 7.62352 23.3898 102.511
2 0.732 12.3263 450.545
2 20.9864 22.256 59.4129
1 23.4839 4.99368 68.8782
1 9.94427 20.8245 108.851
1 3.99584 15.3848 481.845
1 20.5916 23.2746 169.26
1 0.91912 2.49298 71.3573
1 16.8877 6.21713 492.655
1 22.5887 17.2325 122.949
1 -2.24914 28.0204 58.0008
2 19.6835 25.5062 67.1456
2 14.4221 10.2487 490.041
2 3.72708 2.18858 77.4615
2 6.49756 15.0909 62.1936
1 28.9173 17.4156 62.4303
1 23.3534 0.357296 87.3158
1 14.3476 13.9605 70.1318
1 27.7519 20.8927 74.8236
1 8.56551 0.616601 449.725
1 16.8625 9.40142 95.3187
1 18.4897 -1.73403 456.281
1 27.8484 17.2737 410.452
2 13.1486 20.5417 106.589
2 2.04042 2.70329 104.191
2 22.6555 12.9044 68.4917
2 14.5508 1.64186 443.085
1 13.0973 27.8633 473.161
1 27.4583 27.508 73.8428
1 -1.82768 -1.23493 119.128
1 20.6693 -1.30764 75.7109
1 -1.9938 -1.08656 482.48
1 19.1952 4.30626 59.5121
1 20.7025 13.6663 465.744
1 21.2734 12.469 166.112
2 18.7453 28.2061 92.7735
2 14.5457 13.1985 492.748
2 14.8841 12.3035 120.794
2 2.89116 6.15421 134.662
1 15.2159 -0.765852 130.769
1 23.7601 23.7691 473.897
1 24.015 29.4781 113.098
1 -1.14692 -0.405872 64.4511
1 11.1935 1.28023 64.2229
1 25.3402 18.0165 84.8075
1 0.0604785 12.4805 75.0155
1 18.137 25.0906 470.907
2 19.256 12.387 66.3625
2 0.891496 28.6068 489.72
2 0.0424108 19.0956 128.331
2 5.45196 22.0864 73.3861
1 -0.429051 12.2645 103.612
1 28.8007 21.1256 478.637
1 20.4699 21.5907 421.386
1 12.1766 1.4189 53.3912
1 10.3129 -1.96199 462.581
1 4.82826 15.7997 153.936
1 7.245 2.29246 103.019
1 3.4171 -2.23528 62.483
2 -0.740584 11.064 73.1982
2 14.9311 1.95402 92.3792
2 24.1419 10.6279 94.1087
2 15.4766 8.74576 72.1284
1 20.5734 5.43441 464.005
1 14.606 19.0819 77.7185
1 15.0083 16.8217 117.83
1 6.86817 25.942 80.2353
1 6.89523 12.2205 95.0484
1 16.7292 24.9705 62.994
1 7.62658 7.06776 434.786
1 22.0817 8.75594 446.961
2 22.5655 12.3235 454.091
2 8.12862 25.2483 84.7154
2 12.0226 3.9286 68.1643
2 12.6595 17.3002 96.182
1 11.3149 26.1492 453.751
1 28.7966 25.9813 477.322
1 6.26131 20.421 122.513
1 23.0629 4.32048 114.103
1 27.4348 18.303 482.775
1 15.1758 2.46171 138.823
1 -0.0835554 -1.11383 487.876
1 6.22545 15.8285 67.2358
2 15.5322 22.5709 75.2066
2 26.833 14.1617 82.6108
2 20.5624 -1.03743 475.996
2 4.94783 14.588 477.247
1 12.9575 29.2408 84.2399
1 15.831 26.2278 171.594
1 6.81689 6.41255 148.602
1 22.796 18.5741 428.332
1 5.82415 19.1154 149.148
1 11.5235 6.36006 474.165
1 24.5717 20.953 109.775
1 22.8434 8.12615 151.449
2 11.5396 25.9491 473.239
2 9.55281 20.1808 60.9897
2 20.3024 12.8001 62.5823
2 29.558 -0.529236 107.73
1 18.7904 25.7782 153.841
1 12.6828 28.94 99.3815
1 19.8862 5.77332 123.596
1 -2.20935 0.114909 67.4072
1 23.5376 25.0497 471.046
1 3.86182 26.6927 102.639
1 0.700178 19.2041 132.422
1 1.01451 -1.98672 459.196
2 11.1164 11.6227 477.304
2 2.02038 19.7949 484.118
2 8.63425 4.444 490.823
2 21.0815 14.3182 56.2699
1 -0.0496826 14.9874 94.5462
1 -0.997928 2.86267 89.6525
1 10.3125 16.2872 121.888
1 10.7308 19.1272 122.504
1 20.627 22.1014 113.354
1 8.93365 20.6434 90.3196
1 9.10204 17.952 480.135
1 2.04757 -1.19812 102.959
2 -2.07572 19.248 57.8097
2 0.183704 27.0428 95.4508
2 12.7543 12.1394 466.508
2 6.66469 2.94884 73.784
1 28.8887 17.0726 72.4638
1 8.66239 29.543 459.378
1 5.37456 1.5035 75.0379
1 6.33769 20.2304 74.248
1 19.0064 15.8831 86.7184
1 1.68709 7.98633 134.196
1 -0.567382 27.1976 76.2867
1 8.25877 1.25811 469.517
2 5.38802 25.5451 71.531
2 8.69986 20.0358 493.478
2 9.30054 5.53977 73.8041
2 9.16996 3.39312 463.435
1 12.1773 7.31972 482.042
1 15.0526 15.11 146.894
1 15.4225 7.0138 109.238
1 19.3151 25.1883 74.5317
1 9.15354 7.57078 88.2361
1 4.14577 27.649 485.431
1 25.1744 8.74707 148.789
1 0.661528 3.51268 439.415
2 -2.25961 19.7253 62.4245
2 28.8722 -1.88344 58.8976
2 28.6552 8.61324 73.1817
2 27.2199 17.133 78.0503
1 4.47502 13.3606 79.1804
1 25.6096 11.1358 427.406
1 20.0042 22.2889 486.071
1 10.5265 6.35245 78.9857
1 20.5526 21.2922 175.718
1 20.9978 17.4612 160.455
1 17.9024 22.5994 64.7124