LAMMPS (29 Oct 2020)
OMP_NUM_THREADS environment is not set. Defaulting to 1 thread. (../comm.cpp:94)
  using 1 OpenMP thread(s) per MPI task
OMP_NUM_THREADS environment is not set. Defaulting to 1 thread. (../comm.cpp:94)
  using 1 OpenMP thread(s) per MPI task
Reading data file ...
  orthogonal box = (-0.27717828 -3.4472206 -0.27717828) to (27.617178 331.52722 27.617178)
  2 by 13 by 2 MPI processor grid
  reading atoms ...
  18000 atoms
  reading velocities ...
  18000 velocities
Finding 1-2 1-3 1-4 neighbors ...
  special bond factors lj:    0.0      0.0      0.0     
  special bond factors coul:  0.0      0.0      0.0     
     0 = max # of 1-2 neighbors
     0 = max # of 1-3 neighbors
     0 = max # of 1-4 neighbors
     1 = max # of special neighbors
  special bonds CPU = 0.004 seconds
  read_data CPU = 0.067 seconds
45 atoms in group sphere
2 atoms in group oxygen
2 atoms in group thorium
43 atoms in group 1
45 atoms in group cluster
6000 atoms in group Th
12000 atoms in group O
15 atoms in group Th_group
30 atoms in group O_group
WARNING: Ignoring 'compress yes' for molecular system (../delete_atoms.cpp:125)
Deleted 45 atoms, new total = 17955
45 atoms in group sphere
2 atoms in group oxygen
2 atoms in group thorium
43 atoms in group 1
45 atoms in group cluster
5985 atoms in group Th
11970 atoms in group O
15 atoms in group Th_group
30 atoms in group O_group
WARNING: Ignoring 'compress yes' for molecular system (../delete_atoms.cpp:125)
Deleted 45 atoms, new total = 17910
45 atoms in group sphere
2 atoms in group oxygen
2 atoms in group thorium
43 atoms in group 1
45 atoms in group cluster
5970 atoms in group Th
11940 atoms in group O
15 atoms in group Th_group
30 atoms in group O_group
WARNING: Ignoring 'compress yes' for molecular system (../delete_atoms.cpp:125)
Deleted 45 atoms, new total = 17865
45 atoms in group sphere
2 atoms in group oxygen
2 atoms in group thorium
43 atoms in group 1
45 atoms in group cluster
5955 atoms in group Th
11910 atoms in group O
15 atoms in group Th_group
30 atoms in group O_group
WARNING: Ignoring 'compress yes' for molecular system (../delete_atoms.cpp:125)
Deleted 45 atoms, new total = 17820
45 atoms in group sphere
2 atoms in group oxygen
2 atoms in group thorium
43 atoms in group 1
45 atoms in group cluster
5940 atoms in group Th
11880 atoms in group O
15 atoms in group Th_group
30 atoms in group O_group
WARNING: Ignoring 'compress yes' for molecular system (../delete_atoms.cpp:125)
Deleted 45 atoms, new total = 17775
45 atoms in group sphere
2 atoms in group oxygen
2 atoms in group thorium
43 atoms in group 1
45 atoms in group cluster
5925 atoms in group Th
11850 atoms in group O
15 atoms in group Th_group
30 atoms in group O_group
WARNING: Ignoring 'compress yes' for molecular system (../delete_atoms.cpp:125)
Deleted 45 atoms, new total = 17730
45 atoms in group sphere
2 atoms in group oxygen
2 atoms in group thorium
43 atoms in group 1
45 atoms in group cluster
5910 atoms in group Th
11820 atoms in group O
15 atoms in group Th_group
30 atoms in group O_group
WARNING: Ignoring 'compress yes' for molecular system (../delete_atoms.cpp:125)
Deleted 45 atoms, new total = 17685
45 atoms in group sphere
2 atoms in group oxygen
2 atoms in group thorium
43 atoms in group 1
45 atoms in group cluster
5895 atoms in group Th
11790 atoms in group O
15 atoms in group Th_group
30 atoms in group O_group
WARNING: Ignoring 'compress yes' for molecular system (../delete_atoms.cpp:125)
Deleted 45 atoms, new total = 17640
Setting atom values ...
  11760 settings made for charge
Setting atom values ...
  5880 settings made for charge
PPPM initialization ...
  using 12-bit tables for long-range coulomb (../kspace.cpp:328)
  G vector (1/distance) = 0.29912164
  grid = 40 240 40
  stencil order = 5
  estimated absolute RMS force accuracy = 0.00015376724
  estimated relative force accuracy = 1.0678544e-05
  using single precision MKL FFT
  3d grid and FFT values/proc = 18225 7600
Neighbor list info ...
  update every 1 steps, delay 0 steps, check yes
  max neighbors/atom: 2000, page size: 100000
  master list distance cutoff = 13
  ghost atom cutoff = 13
  binsize = 6.5, bins = 5 52 5
  2 neighbor lists, perpetual/occasional/extra = 2 0 0
  (1) pair coul/long, perpetual
      attributes: half, newton on
      pair build: half/bin/newton
      stencil: half/bin/3d/newton
      bin: standard
  (2) pair eam/alloy, perpetual, copy from (1)
      attributes: half, newton on
      pair build: copy
      stencil: none
      bin: none
Setting up cg style minimization ...
  Unit style    : metal
  Current step  : 0
WARNING: Energy due to 3 extra global DOFs will be included in minimizer energies
Per MPI rank memory allocation (min/avg/max) = 9.473 | 10.07 | 10.28 Mbytes
Step Temp E_pair E_mol TotEng Press Volume 
       0            0   -231649.26            0   -231649.26   -2378.1806    260641.98 
      74            0   -231790.72            0   -231790.72    45.986201    260532.49 
Loop time of 1.53717 on 52 procs for 74 steps with 17640 atoms

99.0% CPU use with 52 MPI tasks x 1 OpenMP threads

Minimization stats:
  Stopping criterion = linesearch alpha is zero
  Energy initial, next-to-last, final = 
     -231649.259920943   -231790.71621874   -231790.71621874
  Force two-norm initial, final = 723.86071 39.953194
  Force max component initial, final = 600.27320 34.304092
  Final line search alpha, max atom move = 5.9979389e-12 2.0575385e-10
  Iterations, force evaluations = 74 144

MPI task timing breakdown:
Section |  min time  |  avg time  |  max time  |%varavg| %total
---------------------------------------------------------------
Pair    | 0.86723    | 0.91987    | 0.99712    |   3.1 | 59.84
Bond    | 1.2603e-05 | 1.7948e-05 | 3.1461e-05 |   0.0 |  0.00
Kspace  | 0.23549    | 0.31251    | 0.36516    |   5.3 | 20.33
Neigh   | 0          | 0          | 0          |   0.0 |  0.00
Comm    | 0.022029   | 0.023037   | 0.023981   |   0.4 |  1.50
Output  | 0          | 0          | 0          |   0.0 |  0.00
Modify  | 0          | 0          | 0          |   0.0 |  0.00
Other   |            | 0.2817     |            |       | 18.33

Nlocal:        339.231 ave         404 max         289 min
Histogram: 4 6 7 7 7 8 2 8 2 1
Nghost:        5551.81 ave        5754 max        5399 min
Histogram: 2 7 10 10 6 3 6 1 3 4
Neighs:       107377.0 ave      130204 max       89925 min
Histogram: 7 6 3 7 6 9 4 5 4 1

Total # of neighbors = 5583600
Ave neighs/atom = 316.53061
Ave special neighs/atom = 0.0000000
Neighbor list builds = 0
Dangerous builds = 0
Resetting atom IDs ...
PPPM initialization ...
  using 12-bit tables for long-range coulomb (../kspace.cpp:328)
  G vector (1/distance) = 0.2991366
  grid = 40 240 40
  stencil order = 5
  estimated absolute RMS force accuracy = 0.00015361258
  estimated relative force accuracy = 1.0667803e-05
  using single precision MKL FFT
  3d grid and FFT values/proc = 18225 7600
Finding 1-2 1-3 1-4 neighbors ...
  special bond factors lj:    0.0      0.0      0.0     
  special bond factors coul:  0.0      0.0      0.0     
     0 = max # of 1-2 neighbors
     0 = max # of 1-3 neighbors
     0 = max # of 1-4 neighbors
     1 = max # of special neighbors
  special bonds CPU = 0.001 seconds
PPPM initialization ...
  using 12-bit tables for long-range coulomb (../kspace.cpp:328)
  G vector (1/distance) = 0.2991366
  grid = 40 240 40
  stencil order = 5
  estimated absolute RMS force accuracy = 0.00015361258
  estimated relative force accuracy = 1.0667803e-05
  using single precision MKL FFT
  3d grid and FFT values/proc = 18225 7600
Setting up Verlet run ...
  Unit style    : metal
  Current step  : 74
  Time step     : 0.001
Per MPI rank memory allocation (min/avg/max) = 8.348 | 9.091 | 9.150 Mbytes
Step Dt Time Atoms Temp PotEng KinEng Press Volume 
      74        0.001            0    17640          600   -231790.72    1368.0118    5654.5247    260532.49 
   10000        0.001        9.926    17640    601.54697   -230443.83    1371.5389   -833.75054    265007.62 
   20000        0.001       19.926    17640    602.93418   -230433.67    1374.7018   -8.1338198    264890.13 
   30000        0.001       29.926    17640      599.877   -230439.17    1367.7314    852.85385    264776.89 
   40000        0.001       39.926    17640    599.36913   -230437.73    1366.5734   -708.02602    265005.44 
   50000        0.001       49.926    17640    597.09864   -230423.47    1361.3967    146.07173    264881.34 
   60000        0.001       59.926    17640    608.13194   -230426.48    1386.5528    503.89827    264891.29 
   70000        0.001       69.926    17640     599.1999   -230405.67    1366.1876   -65.035529    264997.22 
   80000        0.001       79.926    17640    602.27655   -230425.61    1373.2024    1666.8903     264726.2 
   90000        0.001       89.926    17640    599.97878   -230422.05    1367.9634   -1125.5449    265109.26 
  100000        0.001       99.926    17640    598.97129   -230440.27    1365.6663    -550.1366    264957.35 
  100074        0.001          100    17640    592.94406   -230429.68    1351.9241    993.19789    264768.01 
Loop time of 760.578 on 52 procs for 100000 steps with 17640 atoms

Performance: 11.360 ns/day, 2.113 hours/ns, 131.479 timesteps/s
99.8% CPU use with 52 MPI tasks x 1 OpenMP threads

MPI task timing breakdown:
Section |  min time  |  avg time  |  max time  |%varavg| %total
---------------------------------------------------------------
Pair    | 474.38     | 488.55     | 510.18     |  35.6 | 64.23
Bond    | 0.009813   | 0.013843   | 0.018532   |   1.7 |  0.00
Kspace  | 143.91     | 165.5      | 179.82     |  61.5 | 21.76
Neigh   | 1.3347     | 1.4279     | 1.5501     |   4.3 |  0.19
Comm    | 15.346     | 15.803     | 16.321     |   4.9 |  2.08
Output  | 0.058713   | 0.058768   | 0.060646   |   0.1 |  0.01
Modify  | 78.038     | 82.791     | 86.81      |  26.1 | 10.89
Other   |            | 6.434      |            |       |  0.85

Nlocal:        339.231 ave         368 max         321 min
Histogram: 6 6 7 11 4 8 4 3 2 1
Nghost:        5525.94 ave        5613 max        5432 min
Histogram: 4 7 5 6 6 4 3 4 2 11
Neighs:       106776.0 ave      117856 max       97510 min
Histogram: 4 5 5 3 12 9 7 3 2 2

Total # of neighbors = 5552330
Ave neighs/atom = 314.75794
Ave special neighs/atom = 0.0000000
Neighbor list builds = 519
Dangerous builds = 0
System init for write_data ...
PPPM initialization ...
  using 12-bit tables for long-range coulomb (../kspace.cpp:328)
  G vector (1/distance) = 0.2988439
  grid = 40 240 40
  stencil order = 5
  estimated absolute RMS force accuracy = 0.00015594204
  estimated relative force accuracy = 1.0829576e-05
  using single precision MKL FFT
  3d grid and FFT values/proc = 18225 7600
Total wall time: 0:12:42
