LAMMPS (29 Oct 2020)
OMP_NUM_THREADS environment is not set. Defaulting to 1 thread. (../comm.cpp:94)
  using 1 OpenMP thread(s) per MPI task
#---------------------------------------
#
# This script is used to calculate the thermal conuctivity of UO2 using Muller-Plathe method
# By Ziqiang Wang on 03/18/2022 on Jilin university
#
#---------------------------------------

variable     Nevery    equal   50
variable     T         equal   600

clear
OMP_NUM_THREADS environment is not set. Defaulting to 1 thread. (../comm.cpp:94)
  using 1 OpenMP thread(s) per MPI task
units          metal
boundary       p p p
atom_style     full

read_data vac_0.015_relaxed.dat
Reading data file ...
  orthogonal box = (-0.35896375 -4.2262281 -0.35791112) to (27.698964 332.30623 27.697911)
  2 by 13 by 2 MPI processor grid
  reading atoms ...
  17730 atoms
  reading velocities ...
  17730 velocities
Finding 1-2 1-3 1-4 neighbors ...
  special bond factors lj:    0.0      0.0      0.0     
  special bond factors coul:  0.0      0.0      0.0     
     0 = max # of 1-2 neighbors
     0 = max # of 1-3 neighbors
     0 = max # of 1-4 neighbors
     1 = max # of special neighbors
  special bonds CPU = 0.003 seconds
  read_data CPU = 0.045 seconds

set           type     1    charge     -1.1104
Setting atom values ...
  11820 settings made for charge
set           type     2    charge      2.2208
Setting atom values ...
  5910 settings made for charge

kspace_style    pppm   1.0e-05
pair_style      hybrid/overlay  coul/long  11.0  eam/alloy
pair_coeff      * * coul/long
pair_coeff      * * eam/alloy CeThUNpPuAmCmO.eam.alloy O Th
newton          on
neighbor        0.3 bin
neigh_modify    delay 0 check yes every 1

#The first equilation
velocity        all create $T 10001 mom yes rot yes dist gaussian
velocity        all create 600 10001 mom yes rot yes dist gaussian
fix             nvt  all  nvt  temp  $T $T  0.1
fix             nvt  all  nvt  temp  600 $T  0.1
fix             nvt  all  nvt  temp  600 600  0.1

run             100000
PPPM initialization ...
  using 12-bit tables for long-range coulomb (../kspace.cpp:328)
  G vector (1/distance) = 0.29883935
  grid = 40 240 40
  stencil order = 5
  estimated absolute RMS force accuracy = 0.00015640553
  estimated relative force accuracy = 1.0861763e-05
  using single precision MKL FFT
  3d grid and FFT values/proc = 15000 7600
Neighbor list info ...
  update every 1 steps, delay 0 steps, check yes
  max neighbors/atom: 2000, page size: 100000
  master list distance cutoff = 11.3
  ghost atom cutoff = 11.3
  binsize = 5.65, bins = 5 60 5
  2 neighbor lists, perpetual/occasional/extra = 2 0 0
  (1) pair coul/long, perpetual
      attributes: half, newton on
      pair build: half/bin/newton
      stencil: half/bin/3d/newton
      bin: standard
  (2) pair eam/alloy, perpetual, copy from (1)
      attributes: half, newton on
      pair build: copy
      stencil: none
      bin: none
Per MPI rank memory allocation (min/avg/max) = 8.156 | 8.182 | 8.201 Mbytes
Step Temp E_pair E_mol TotEng Press 
       0          600   -231693.24            0   -230318.24   -177.48734 
  100000    602.25376   -231718.34            0   -230338.19   -492.50371 
Loop time of 609.538 on 52 procs for 100000 steps with 17730 atoms

Performance: 14.175 ns/day, 1.693 hours/ns, 164.059 timesteps/s
99.9% CPU use with 52 MPI tasks x 1 OpenMP threads

MPI task timing breakdown:
Section |  min time  |  avg time  |  max time  |%varavg| %total
---------------------------------------------------------------
Pair    | 391.21     | 401.55     | 417.13     |  28.2 | 65.88
Bond    | 0.0065297  | 0.010194   | 0.018092   |   2.5 |  0.00
Kspace  | 139.05     | 155.75     | 169.23     |  48.6 | 25.55
Neigh   | 28.784     | 31.856     | 34.404     |  22.9 |  5.23
Comm    | 13.677     | 15.034     | 17.776     |  26.7 |  2.47
Output  | 7.4968e-05 | 8.0448e-05 | 0.00028085 |   0.0 |  0.00
Modify  | 2.1995     | 3.9756     | 5.8928     |  66.9 |  0.65
Other   |            | 1.354      |            |       |  0.22

Nlocal:        340.962 ave         365 max         316 min
Histogram: 2 1 3 8 12 14 4 2 4 2
Nghost:        4138.15 ave        4242 max        3986 min
Histogram: 5 1 4 5 3 4 4 10 12 4
Neighs:        67977.6 ave       73897 max       60730 min
Histogram: 2 1 3 4 8 13 11 6 1 3

Total # of neighbors = 3534834
Ave neighs/atom = 199.37022
Ave special neighs/atom = 0.0000000
Neighbor list builds = 16206
Dangerous builds = 0
unfix           nvt
reset_timestep  0

# the second run
fix             1 all nve

group           oxygen type 1
11820 atoms in group oxygen
fix             2 oxygen thermal/conductivity ${Nevery} y 20
fix             2 oxygen thermal/conductivity 50 y 20

compute         ke all ke/atom
variable        temp atom c_ke/1.5
compute         layers all chunk/atom bin/1d y lower 0.05 units reduced
fix             3      all ave/chunk  2000 50 100000 layers v_temp file profile_${T}K.mp
fix             3      all ave/chunk  2000 50 100000 layers v_temp file profile_600K.mp

variable        Tdiff    equal     f_3[11][3]-f_3[1][3]
variable        deltaT   equal     v_Tdiff*1.5/0.0001292

timestep        0.001
thermo_style    custom step f_2 temp v_Tdiff v_deltaT
thermo          100000

run             1000000
PPPM initialization ...
  using 12-bit tables for long-range coulomb (../kspace.cpp:328)
  G vector (1/distance) = 0.29883935
  grid = 40 240 40
  stencil order = 5
  estimated absolute RMS force accuracy = 0.00015640553
  estimated relative force accuracy = 1.0861763e-05
  using single precision MKL FFT
  3d grid and FFT values/proc = 15000 7600
Per MPI rank memory allocation (min/avg/max) = 8.406 | 8.433 | 8.451 Mbytes
Step f_2 Temp v_Tdiff v_deltaT 
       0            0    602.25376            0            0 
  100000    701.12433    590.42894   0.01807523    209.85174 
  200000    1382.6798    601.82734  0.019770587    229.53468 
  300000    2071.2016    597.55654  0.020530921    238.36208 
  400000    2753.4206     598.4257  0.020253787    235.14459 
  500000    3440.6335    597.88862  0.020451415    237.43903 
  600000    4130.1095    595.73268  0.019449196    225.80335 
  700000    4811.5668    599.43391  0.020063529    232.93571 
  800000    5497.7515    603.52766  0.019701343    228.73076 
  900000     6182.979    601.21421  0.019817736    230.08208 
 1000000    6869.4005    597.39831  0.020222876    234.78571 
Loop time of 6057.23 on 52 procs for 1000000 steps with 17730 atoms

Performance: 14.264 ns/day, 1.683 hours/ns, 165.092 timesteps/s
99.9% CPU use with 52 MPI tasks x 1 OpenMP threads

MPI task timing breakdown:
Section |  min time  |  avg time  |  max time  |%varavg| %total
---------------------------------------------------------------
Pair    | 3868.3     | 3970.1     | 4162.4     |  94.8 | 65.54
Bond    | 0.066592   | 0.1047     | 0.16127    |   7.0 |  0.00
Kspace  | 1361.5     | 1568.6     | 1672.3     | 157.7 | 25.90
Neigh   | 294.83     | 325.74     | 354.08     |  69.4 |  5.38
Comm    | 138.75     | 150.19     | 179.16     |  80.2 |  2.48
Output  | 0.00097718 | 0.0010482  | 0.0022568  |   0.5 |  0.00
Modify  | 5.4246     | 5.903      | 6.4622     |  10.9 |  0.10
Other   |            | 36.61      |            |       |  0.60

Nlocal:        340.962 ave         368 max         317 min
Histogram: 2 2 4 12 12 8 8 1 0 3
Nghost:        4138.06 ave        4257 max        3993 min
Histogram: 2 6 6 4 4 3 4 14 2 7
Neighs:        68002.3 ave       73842 max       60823 min
Histogram: 3 0 1 9 7 7 14 4 4 3

Total # of neighbors = 3536118
Ave neighs/atom = 199.44264
Ave special neighs/atom = 0.0000000
Neighbor list builds = 165831
Dangerous builds = 0

Total wall time: 1:51:07
