ITEM: TIMESTEP
50000
ITEM: NUMBER OF ATOMS
18000
ITEM: BOX BOUNDS pp pp pp
-5.0423055090991298e-01 2.7844230550909792e+01
-6.0054027750053871e+00 3.3408540277500828e+02
-4.9319000586013673e-01 2.7833190005860697e+01
ITEM: ATOMS id type x y z
3673 2 5.11068 -0.600426 5.23018
6 1 0.945504 -1.55712 1.28147
19 1 4.1849 -2.05054 0.959519
14 2 5.22974 -3.55108 2.27688
8 1 1.01111 -2.11031 3.78
63 2 2.54387 -0.5719 2.58898
10 1 3.87922 -4.7884 4.15367
3604 2 2.44908 -3.30108 5.36755
12 1 3.83616 -2.10192 3.76953
3551 1 2.15812 -4.15909 1.5166
3547 1 1.21678 -4.7745 3.98508
3617 1 6.78041 -4.83381 6.56661
21 1 6.90514 -1.99012 1.013
20 1 6.59115 -2.10642 3.95516
3560 1 6.60013 -5.01753 3.53106
3553 1 4.35651 -5.33841 1.38937
3748 2 13.6781 7.81788 5.31895
208 2 13.497 13.6024 -0.63788
2 2 -0.22667 -3.65895 2.16453
3602 2 -0.293951 -3.19922 8.06104
5 2 2.2108 -5.69522 -0.233288
17 1 6.83881 -4.75735 0.910398
18 1 9.28833 -1.96678 3.97157
3685 2 10.8925 -0.64208 5.24195
30 1 12.401 -2.21085 3.59435
26 2 10.8896 -3.4517 2.40806
75 2 7.95008 -0.799708 2.47336
3616 2 7.94441 -3.29556 5.28327
24 1 12.2781 -1.75284 0.907635
3571 1 12.2513 -4.84629 1.15267
3572 1 12.4893 -5.08753 4.05519
3564 1 9.50124 -4.67804 3.93143
31 1 9.7094 -2.25495 1.00904
17962 1 9.53478 -5.11269 1.27475
22 1 12.4092 -1.89515 6.39828
3629 1 12.1691 -4.71061 6.85665
7262 2 -0.518639 2.3306 13.6919
7348 2 13.6644 7.66644 10.9697
4 2 2.4454 -2.55243 -0.422774
3687 2 13.7218 -0.442666 8.00324
3842 2 -0.351275 19.3779 8.01625
267 2 13.5898 16.4721 2.4052
74 2 5.18152 2.29843 2.3846
69 1 0.972975 0.727878 4.19838
70 1 3.67568 0.791292 4.04437
3664 2 2.40358 2.13945 5.27839
11 1 3.8141 0.831295 1.03499
3733 2 5.32646 4.91696 5.23656
126 1 0.962773 6.4482 3.63182
68 1 1.15349 3.66412 3.72675
123 2 2.38784 5.20878 2.22047
71 1 3.90968 3.56485 0.947353
72 1 3.81626 3.41202 3.75738
129 1 3.78377 6.46035 0.945546
130 1 3.99319 6.46272 3.90315
9 1 1.25742 1.35278 1.38784
3667 1 1.08939 3.45889 6.6157
65 1 1.22062 3.87387 0.400404
84 1 6.72205 3.41648 3.88823
3737 1 6.69363 6.25326 6.67356
147 2 13.6051 5.01894 2.2452
7383 2 2.2398 10.5955 13.6115
3729 1 3.87455 6.3114 6.54027
3669 1 3.81664 0.755978 6.67583
244 2 2.47545 19.2421 -0.383354
138 1 6.64849 6.30148 3.79946
137 1 6.58825 6.47325 1.08523
78 1 6.53591 0.772992 3.81711
77 1 6.45124 0.627451 1.10039
80 1 6.69243 3.67685 0.894704
32 1 12.1858 0.613116 3.73874
89 1 12.0236 0.98671 0.845304
90 1 12.0664 3.44613 3.6845
86 2 10.9137 2.2804 2.37523
81 1 9.31028 6.50705 0.988896
82 1 9.53886 3.51323 3.79743
3676 2 8.05769 2.16285 5.13732
23 1 9.12439 0.944823 0.993039
3745 2 10.8105 4.81784 5.17862
91 1 9.27952 3.41573 0.881498
135 2 8.07267 4.97401 2.38643
142 1 9.25511 6.39906 3.74997
83 1 12.1762 6.1913 3.60295
3689 1 9.29622 0.667385 3.83784
14492 1 12.2085 3.79817 0.782169
141 1 12.291 6.47563 1.00727
92 1 12.286 6.5002 6.47604
3677 1 6.74232 0.727198 6.50631
3679 1 6.57791 3.65979 6.79483
3631 1 12.1522 1.10521 6.58968
3683 1 9.5641 3.72157 6.50711
184 2 2.40035 13.6728 -0.226784
196 2 7.90052 13.6155 -0.344939
253 2 5.19825 16.4881 -0.350341
67 1 1.34277 7.75357 0.954373
3793 2 5.27508 10.5376 5.5941
134 2 5.34197 7.74862 2.47773
128 1 1.2151 9.60095 3.99787
183 2 2.38424 10.7423 2.34903
3724 2 2.40848 8.01768 5.23276
131 1 3.88069 9.34258 0.865534
132 1 3.80894 9.13744 3.84644
186 1 0.326775 12.5354 4.21308
189 1 3.96004 12.0921 1.14221
190 1 3.5582 12.0141 3.72081
187 1 1.00835 12.1708 1.3979
3785 1 1.02548 12.0707 6.87564
3789 1 3.72419 12.0093 6.4897
197 1 6.81246 12.1422 1.08781
139 1 6.53689 9.29247 0.971082
29 2 13.4397 -3.28873 -0.368927
3727 1 0.915695 9.4692 6.90419
7468 2 13.4967 19.4723 10.9673
198 1 6.49609 11.9887 4.24562
140 1 6.6412 9.10082 4.07177
3805 2 10.8896 10.6923 5.33811
149 1 12.1265 9.28494 1.08606
150 1 12.1832 9.22098 4.05747
146 2 10.809 7.96375 2.46899
195 2 7.89891 10.5708 2.5726
3736 2 7.93191 7.68987 5.22231
143 1 9.33929 9.32061 1.05169
144 1 9.19298 9.31566 4.00395
210 1 11.9213 12.3372 0.99455
201 1 9.20457 12.1921 1.10277
202 1 9.3402 11.9939 3.7442
152 1 11.9894 11.8673 3.54427
3809 1 11.6612 11.6464 7.22509
3743 1 9.28401 9.36295 6.6061
3801 1 8.85605 12.237 6.72868
7322 2 -0.565024 8.09574 13.6274
3841 2 -0.525366 16.523 5.25799
3784 2 2.30905 13.4552 5.11125
194 2 5.1255 13.6234 2.39659
3853 2 5.17458 16.0763 5.48442
245 1 0.992506 14.8049 1.17841
246 1 0.675144 17.8221 3.72993
254 2 5.22498 19.2019 2.56285
188 1 0.861858 15.0651 3.98662
249 1 3.60777 17.8573 0.884271
243 2 2.35399 16.5227 2.51908
250 1 3.41282 17.8681 3.90573
3844 2 2.23986 19.3084 5.14802
191 1 3.78738 14.8531 1.14017
192 1 3.62141 14.7738 3.86288
297 1 0.939181 17.8634 1.07379
3849 1 3.70874 17.749 6.66976
257 1 6.44716 17.8682 1.10806
199 1 6.53333 15.0186 1.07829
3787 1 0.807292 14.9598 6.72109
200 1 6.40131 14.7573 3.87011
3845 1 1.07985 17.7263 6.34686
258 1 6.36824 17.3926 3.95936
3857 1 6.53033 17.6279 6.80597
3803 1 10.7333 13.6648 5.5074
3804 1 11.4966 15.9253 7.40109
3796 2 8.15101 13.5014 5.04371
206 2 10.5091 13.5339 2.44498
3865 2 10.7311 16.2404 5.0883
270 1 12.1735 17.8363 3.94389
211 1 12.0979 15.1631 0.853479
266 2 10.7242 19.3423 2.53746
212 1 12.0426 14.9118 3.73077
261 1 9.31471 17.9631 0.958993
255 2 8.00624 16.4535 2.21735
262 1 9.388 17.7417 3.85002
3856 2 7.97953 19.3937 5.42273
203 1 9.29919 15.1342 0.767739
204 1 9.12469 14.9644 3.46284
269 1 12.2617 17.7444 0.913697
3861 1 9.23711 17.9685 6.69928
3869 1 12.4215 18.2693 6.7223
3808 2 13.5338 13.3559 5.05704
3799 1 6.34245 14.4898 6.61957
3548 1 0.988234 -4.54778 6.74432
3619 1 6.51262 -2.12037 6.79846
7395 2 7.94668 10.65 13.6169
3722 2 -0.509202 7.94577 7.92469
3609 1 3.8678 -4.78888 6.94767
3611 1 3.87517 -2.07448 6.63655
3607 1 1.11441 -1.85353 6.7041
3605 1 1.0291 -4.45153 9.43657
7273 2 5.26076 -0.440054 11.0167
7205 1 0.962979 -4.80605 12.5359
3606 1 0.851538 -1.70843 9.53008
7207 1 0.932075 -1.81402 12.258
3614 2 5.22257 -3.49051 8.14423
7209 1 4.05332 -5.1019 12.3988
3663 2 2.45591 -0.503717 8.09582
3610 1 3.77419 -5.12568 9.82855
7204 2 2.38755 -3.55264 11.0097
7211 1 3.78495 -2.34715 12.4574
3612 1 3.67797 -2.19077 9.5491
207 2 13.5036 10.8469 2.31736
3781 2 -0.416218 10.5656 5.38353
3621 1 9.64113 -4.68904 6.64742
3623 1 9.48743 -1.96506 6.68327
3618 1 6.54375 -4.72535 9.57871
3620 1 6.42913 -1.99106 9.62723
7219 1 6.49589 -1.83464 12.5344
7217 1 6.66823 -4.83479 12.4298
7164 1 9.22644 -4.75526 9.48111
7285 2 10.8514 -0.41565 10.9329
7229 1 12.3579 -4.3844 12.631
7231 1 12.5183 -1.78263 12.3705
3626 2 10.8709 -3.42782 8.19253
3632 1 12.1129 -1.99812 9.27799
7221 1 9.49563 -4.70984 12.2434
3675 2 8.09181 -0.634421 8.05337
3622 1 12.2899 -4.63953 9.65224
7216 2 7.87147 -3.31462 10.8594
7223 1 9.40157 -1.81129 12.447
3624 1 9.26699 -2.05201 9.53393
17948 1 0.0925984 -3.78239 -0.118004
7321 2 -0.30357 5.03176 10.7781
64 2 2.78662 2.33184 -0.408075
3665 1 0.902875 0.813455 6.82836
3671 1 4.00795 3.41166 6.60158
3725 1 1.12243 6.38548 6.68819
62 2 -0.307735 2.33701 2.74878
3797 1 8.89352 15.125 6.77713
7269 1 3.84407 0.857375 12.323
7265 1 1.09763 0.728212 12.62
3666 1 3.73677 3.59218 9.43687
3674 2 5.28225 2.1484 8.12907
3608 1 0.779856 1.0063 9.80398
3670 1 3.74177 0.502688 9.63025
7264 2 2.41623 2.22501 10.9079
7333 2 5.11654 5.06688 10.9158
7267 1 1.05269 3.73833 12.3405
3723 2 2.62886 4.88491 7.84404
7271 1 3.77585 3.53176 12.3645
7261 1 0.9627 3.59857 9.33427
7325 1 1.07646 6.38706 12.1344
3672 1 3.82927 6.29204 9.34217
3668 1 1.05228 6.59749 9.50688
7329 1 3.57754 6.46971 12.1224
3738 1 6.39765 6.35246 9.44763
7337 1 6.27135 6.76511 12.2526
7277 1 6.46294 0.865844 12.5205
3680 1 6.36556 3.75382 9.62244
3678 1 6.50581 0.789428 9.57429
3812 1 13.3529 13.9999 7.49814
3806 2 11.2448 13.8806 8.27023
3681 1 9.63618 0.957961 6.65846
3741 1 9.30853 6.36397 6.54236
3691 1 12.3549 3.76261 6.61696
7279 1 6.81963 3.55659 12.4205
7281 1 9.38508 0.975152 12.4403
3682 1 9.07033 0.693042 9.62999
7289 1 12.0539 1.28033 12.0346
3690 1 12.255 0.900889 9.32008
3686 2 10.9411 2.34575 7.983
7276 2 7.95045 2.18766 11.0705
3684 1 9.38066 3.65919 9.19774
7283 1 9.74554 3.53442 12.2272
3742 1 9.37398 6.40865 9.21615
3735 2 7.95282 5.04859 8.01358
7345 2 10.6375 4.97529 10.7501
7291 1 12.2993 3.65244 9.71655
3692 1 12.2876 6.39312 9.23941
7341 1 8.92748 6.20125 12.0598
7469 1 12.2862 17.94 12.4676
3870 1 12.1625 17.9693 9.53045
7396 2 8.17052 13.6619 11.3952
3739 1 6.67233 8.87451 6.88209
3751 1 6.19687 11.8143 7.443
3731 1 3.76438 9.17762 6.95447
7393 2 5.23848 10.8101 10.7763
3726 1 0.70083 9.47833 9.57865
7327 1 0.822446 9.21965 12.2958
3734 2 5.15236 7.66059 8.0737
3728 1 0.769698 12.4812 9.62285
3783 2 2.35879 10.5749 8.21673
3730 1 3.86852 9.26103 9.58625
7324 2 2.31257 7.931 10.8663
7331 1 3.64323 9.15712 12.0834
3732 1 3.60991 12.1212 9.39001
7389 1 3.73302 12.2305 12.1293
7385 1 1.01352 12.1112 12.4809
3740 1 6.49298 9.32506 9.41666
7339 1 6.37971 9.33331 12.1191
3790 1 6.86156 12.3502 9.99095
185 2 -0.434709 11.0522 -0.254754
3749 1 12.4062 9.13105 6.82866
3750 1 11.806 6.67464 12.0887
7397 1 6.51744 12.2205 12.7492
7349 1 12.2257 9.3174 12.4511
3744 1 9.40092 9.28456 9.49026
7343 1 9.32499 9.3447 12.3007
7336 2 7.93111 7.93176 10.832
3795 2 8.14297 10.5117 8.23412
7405 2 11.1042 10.6153 10.9427
3746 2 10.6635 7.75725 8.0704
3752 1 12.2314 8.99601 9.37549
3802 1 9.4183 12.5605 9.35716
7409 1 12.341 12.0012 12.5051
3810 1 12.4272 12.0178 9.88074
7401 1 9.64498 12.0778 12.1449
3867 2 13.6212 16.7665 8.12779
85 2 10.7434 -0.508636 -0.345621
3862 1 9.40348 17.7891 10.0109
7456 2 7.87893 19.175 11.2125
3868 2 13.6535 19.4629 5.3232
7399 1 6.63118 15.0459 12.2965
3791 1 3.52029 14.9591 6.68916
7384 2 2.24365 13.672 10.9861
3794 2 4.68753 13.3946 8.01257
7391 1 3.90356 15.1562 12.6025
7387 1 0.790154 15.043 12.1709
7444 2 2.29154 19.265 10.9979
7449 1 3.84838 17.9861 12.4284
3846 1 0.953334 18.0023 9.28643
3854 2 5.06612 19.3112 7.96517
3786 1 0.775395 15.1576 9.45739
7445 1 0.867615 17.9887 12.3046
7453 2 5.16052 16.5805 10.9886
3850 1 3.88012 17.9359 9.34665
3843 2 2.2802 16.446 7.91829
3792 1 3.76927 14.9054 9.60378
7457 1 6.66901 17.5573 12.623
3858 1 6.58717 17.7971 9.63783
3800 1 6.6195 15.1505 9.37832
79 2 7.82328 2.24242 -0.529768
7465 2 10.9854 16.5122 11.1147
7413 1 12.5339 15.1175 12.3763
3866 2 10.7521 19.3492 8.20506
3798 2 7.89489 13.7798 8.22441
7461 1 9.48479 17.46 12.6622
3855 2 8.12772 16.7623 8.25002
7411 1 9.47594 15.061 9.42139
205 2 10.7678 10.8466 -0.378556
7403 1 9.59459 14.7974 12.4636
3811 1 12.3482 14.8927 9.83701
136 2 8.05235 7.98601 -0.286038
7408 2 13.6127 13.5411 11.0363
268 2 13.6993 19.0514 -0.35225
178 1 -0.471099 8.03227 5.26227
7312 2 -0.417237 -0.587533 11.0545
148 2 13.5762 8.15429 -0.347655
7382 2 -0.483815 13.5829 13.6631
7323 2 2.34061 5.00667 13.5557
16 2 8.12003 -3.38782 -0.352415
10873 2 5.22847 -0.4629 16.7251
10805 1 0.886435 -4.72263 18.0146
7206 1 0.74656 -4.87567 15.0737
10807 1 1.03626 -2.02936 18.0128
10814 2 5.22235 -3.46314 19.3721
7208 1 1.15579 -2.02226 15.2465
10809 1 3.69759 -4.55288 17.9508
10863 2 2.3643 -0.691226 19.5163
7210 1 3.73206 -4.6606 15.1107
10804 2 2.36642 -3.50371 16.5569
10811 1 3.89492 -1.73789 18.096
7212 1 4.06047 -1.89025 15.2562
10806 1 0.887165 -4.74076 20.7349
10810 1 3.84781 -4.93234 20.6079
10808 1 0.997326 -1.80004 21.0045
14461 2 -0.489755 -0.623213 22.3721
14612 1 12.2419 20.234 26.6382
7335 2 7.69152 5.14872 13.7002
10812 1 3.79375 -2.08898 20.7896
14522 2 -0.411937 7.30748 24.7478
11041 2 -0.310051 16.5369 16.4732
10817 1 6.69077 -4.71544 18.0169
10819 1 6.42971 -2.01578 18.3361
7220 1 6.73361 -1.7717 15.5315
7218 1 6.79188 -4.53921 15.2577
10885 2 10.9289 -0.736584 16.3724
10829 1 12.381 -4.77559 18.2702
7230 1 12.142 -4.75908 15.4396
10831 1 12.3721 -2.17178 17.9556
10826 2 10.791 -3.38339 19.6918
7232 1 12.4001 -2.04929 15.0845
10821 1 9.52319 -4.74833 18.0649
10875 2 8.02084 -0.731503 19.2688
7222 1 9.36887 -4.78463 15.3223
10816 2 8.01367 -3.32053 16.7671
10823 1 9.47408 -1.89108 17.9069
7224 1 9.48177 -1.95797 15.3593
10832 1 12.2175 -2.03662 20.9773
10818 1 6.58359 -4.71355 20.8088
10822 1 9.56945 -4.69389 20.9998
10948 2 13.564 7.9491 16.4684
10865 1 0.730234 0.854593 18.1461
7266 1 0.88511 0.567489 15.4129
10874 2 5.04854 2.34224 19.3783
10869 1 3.6047 1.10023 18.0431
7270 1 3.64062 1.00066 15.3078
10864 2 2.16605 2.20111 16.64
10933 2 4.9786 5.15637 16.5833
10867 1 0.690407 3.56442 17.7774
7268 1 0.687686 3.65997 15.1133
10923 2 2.13958 5.15952 19.2782
7330 1 3.48972 6.646 14.9322
10871 1 3.62976 3.63709 18.0608
7272 1 3.70461 3.84361 15.1694
7326 1 0.672873 6.39096 15.02
10929 1 3.59198 6.3547 17.9349
10925 1 0.843996 6.60964 17.7899
10868 1 0.842986 3.66162 20.5717
10870 1 3.88985 0.828894 20.8459
10866 1 1.09601 0.762203 20.8886
10872 1 3.84496 3.66526 21.0679
10877 1 6.66799 0.849574 18.0176
10930 1 3.63324 6.49737 20.8516
7278 1 6.57265 1.26922 15.2843
7280 1 6.6034 3.8586 15.1883
7338 1 6.47101 6.57421 15.0788
10878 1 6.6317 1.1906 20.7171
175 1 -0.301396 9.41415 26.5446
14604 1 12.1711 17.5891 26.305
14402 2 -0.398923 -3.77912 25.2431
133 2 5.31717 4.94788 27.7116
10937 1 6.3896 6.52577 18.0471
10879 1 6.60233 3.69226 17.9676
7290 1 12.2036 0.753308 15.0427
10889 1 12.497 0.732451 17.9651
10886 2 10.8775 2.08692 19.2521
10881 1 9.51833 0.767096 17.8514
7282 1 9.51485 0.747375 15.2673
10876 2 8.08659 2.3372 16.6059
10945 2 10.9046 5.10653 16.6251
10949 1 12.2937 6.33125 18.0447
10891 1 12.3228 3.65287 18.1716
7292 1 11.9562 3.50838 15.5337
10941 1 9.25283 6.51559 17.9732
10935 2 8.21591 4.88276 19.5604
10883 1 9.44317 3.58166 17.9396
7284 1 9.3582 3.63626 14.9651
7342 1 9.31546 6.4012 15.0545
7350 1 11.9511 6.74509 15.5067
10882 1 9.53686 0.844404 20.7556
10884 1 9.51983 3.52577 20.7432
10942 1 9.43 6.37776 20.9261
10950 1 12.1382 6.55157 20.8674
10993 2 5.20637 10.6781 16.5368
10927 1 0.923681 9.46387 17.9171
10934 2 4.96067 7.83658 19.3432
7328 1 0.787523 9.43477 14.9848
10983 2 2.2431 10.8559 19.0876
10924 2 2.15358 7.98301 16.5009
10931 1 3.63513 9.17764 17.8914
7332 1 3.59135 9.42805 15.0385
10985 1 0.757558 12.3719 17.6971
7386 1 0.7385 12.2422 15.0771
10989 1 3.60713 12.0842 17.903
7390 1 3.83333 12.2657 15.1058
10986 1 1.00504 12.256 20.5524
10990 1 3.55925 12.1913 20.7927
10997 1 6.32109 12.1936 18.0332
10939 1 6.43533 9.35391 17.8507
10994 2 5.13935 13.719 19.415
14665 2 10.7933 16.3126 22.0878
7274 2 4.96903 2.28882 13.9417
14666 2 10.9001 19.0783 24.8901
10802 2 -0.549753 -3.39467 19.3704
124 2 2.89227 8.05306 27.6895
7398 1 6.71749 12.0674 15.3849
7340 1 6.24555 9.16387 15.013
11005 2 10.6866 10.7366 16.649
10951 1 12.1241 9.30141 17.8044
10946 2 10.6991 7.7335 19.3858
7352 1 12.2028 9.64088 15.0746
10995 2 7.98714 10.6962 19.4118
10936 2 7.78131 7.77221 16.4535
10943 1 9.23377 9.1623 18.0259
7344 1 9.08881 9.16232 15.1435
11009 1 12.0179 12.0304 17.9626
7410 1 12.2359 12.3389 15.3174
11001 1 9.41212 11.9567 18.0969
7402 1 9.51725 11.9652 15.002
10944 1 9.5062 9.1722 20.6572
11010 1 12.3428 11.9619 20.6857
11002 1 9.39731 11.8004 20.8322
10952 1 12.2688 9.17222 20.7228
10998 1 6.50035 12.3263 20.6331
10940 1 6.61588 9.41228 20.8707
10922 2 -0.458692 8.10397 19.1579
14487 2 13.5711 -0.819259 25.0922
10984 2 2.32469 13.5722 16.4744
11053 2 5.3116 16.3995 16.6535
11045 1 0.942158 17.8412 18.1958
7446 1 0.877312 18.0116 15.4377
10987 1 1.05354 15.0471 18.0326
11054 2 5.09462 19.2553 19.4393
7388 1 0.936196 14.9805 15.0897
11049 1 3.7993 17.6507 17.977
11043 2 2.4913 16.5269 19.5576
7450 1 3.76179 17.7492 15.386
11044 2 2.43174 19.2108 16.6934
10991 1 3.77004 14.8343 17.9709
7392 1 3.72746 15.0482 15.2686
10992 1 3.94101 14.9739 20.8663
11057 1 6.63938 17.7778 18.1439
10999 1 6.58548 14.9667 18.102
14606 1 9.23842 14.831 26.3312
7458 1 6.64724 17.6311 15.3536
7400 1 6.61636 14.9349 15.1028
11006 2 10.9815 13.3717 19.3679
10996 2 8.05046 13.439 16.57
11065 2 10.8522 16.3465 16.4364
11069 1 12.31 17.6307 18.081
7470 1 12.3216 17.8321 15.3312
11011 1 12.5391 14.5892 18.1592
11066 2 10.8548 19.0016 19.4767
7412 1 12.1066 15.1166 15.2691
11061 1 9.3905 17.5699 18.0318
11055 2 7.97549 16.4892 19.4659
7462 1 9.53451 17.5937 15.1791
11056 2 8.07404 19.097 16.5716
11003 1 9.39855 14.8585 17.6617
7404 1 9.40453 14.6842 15.1485
11070 1 12.2822 17.5228 20.7235
7394 2 5.2713 13.6731 13.8622
11004 1 9.04047 14.5504 20.7898
14608 2 13.5464 13.5202 22.1363
10820 1 6.60941 -1.88245 20.8789
14642 2 -0.455609 19.3234 25.022
14641 2 -0.525432 16.5893 22.2378
7215 2 7.98697 -5.94445 13.7849
14473 2 5.0451 -0.408043 22.1596
14405 1 0.868029 -5.16633 23.69
14407 1 1.27111 -1.99227 23.6722
14414 2 5.25815 -3.215 24.9801
14408 1 0.732833 -1.86031 26.1711
14409 1 3.82447 -4.77211 23.5481
14463 2 2.38299 -0.471579 25.1423
14410 1 1.41933 -4.71912 26.114
14404 2 2.35951 -3.40817 22.0829
14411 1 4.03062 -1.73459 23.776
14412 1 3.84237 -1.76192 26.303
14417 1 6.71901 -4.57501 23.9057
14419 1 6.77624 -1.94353 23.6065
7275 2 7.8774 -0.323235 13.9761
7263 2 2.56638 -0.57897 13.8746
10824 1 9.33076 -1.97095 20.7292
14418 1 6.77855 -4.74497 26.6232
14420 1 6.64398 -2.16069 26.371
10830 1 12.3854 -4.81324 21.0631
17972 1 9.53404 -4.66076 26.6451
14430 1 12.2088 -4.67527 26.7157
14485 2 10.9099 -0.54214 22.3395
14429 1 12.2438 -4.87364 23.8841
14431 1 12.2891 -2.15746 23.8006
14426 2 10.7192 -3.51709 25.1697
14421 1 9.38168 -4.79462 23.5321
14475 2 8.04037 -0.630441 25.0389
14422 1 9.29141 -2.03914 26.4741
14416 2 8.02824 -3.2601 22.1559
14423 1 9.53317 -1.75469 23.5744
14424 1 12.1044 -2.17973 26.5885
14656 2 8.08444 19.0594 22.288
10926 1 0.550093 6.60326 20.427
7 1 1.63443 0.0768221 27.3348
14466 1 1.01052 2.66097 26.3016
14465 1 0.807399 1.03085 23.803
14474 2 5.21431 2.42346 24.8823
14469 1 3.62882 1.08368 23.7172
14470 1 3.96416 1.07404 26.3359
14464 2 2.31092 2.40466 22.2363
14533 2 5.19941 5.18956 22.3202
14525 1 1.08443 6.48731 23.111
14467 1 0.854145 3.92739 23.4576
14523 2 2.4806 5.29071 24.9126
14530 1 3.97519 6.63553 26.4661
14471 1 3.97478 3.96055 23.8089
14472 1 3.63298 3.93136 26.4941
14529 1 3.82331 6.75741 23.6754
7443 2 2.2589 16.4989 13.7651
10880 1 6.59335 3.9073 21.0041
10890 1 12.3381 0.783356 20.8424
10938 1 6.50286 6.78604 20.794
10892 1 12.2281 3.4951 20.87
14479 1 6.6316 3.7051 23.7428
14478 1 6.83199 0.774383 26.6346
14538 1 6.55718 6.51845 26.4335
14477 1 6.46831 0.852815 23.7456
14480 1 6.42831 3.7433 26.369
14489 1 12.2507 0.789691 23.6897
14490 1 12.1735 0.710773 26.4447
14481 1 9.41123 1.04942 23.6864
14482 1 9.46312 0.967469 26.5845
14476 2 8.13607 2.28092 22.1326
76 2 10.6588 2.28042 25.2182
14486 1 12.3606 3.68475 26.3238
14484 1 9.38166 3.74031 26.5032
14483 1 9.40995 3.69236 23.5595
14542 1 12.3691 6.5152 26.53
14535 2 8.01169 5.19489 24.9961
14545 2 11.0237 5.00984 22.3229
14549 1 12.0776 6.6329 23.4721
14491 1 12.0954 3.81035 23.8073
14541 1 9.37621 6.5879 23.6447
14544 1 9.46629 6.50321 26.3757
14537 1 6.45572 6.44139 23.5926
10928 1 0.935923 9.47174 20.6555
10932 1 3.65754 9.3932 20.796
14610 1 11.9911 14.9333 26.5471
10982 2 -0.33813 13.8574 19.2393
14526 1 0.91602 6.42775 26.724
14528 1 1.68108 8.66877 25.0726
14593 2 5.17415 10.8187 22.0532
14527 1 1.13278 11.3612 23.4062
14534 2 5.21979 8.12597 24.899
14583 2 2.5808 10.7607 25.348
14524 2 2.3763 8.27007 22.2986
14531 1 3.98187 9.41594 23.5585
14532 1 4.21909 9.42488 26.4605
14589 1 3.80904 12.1405 23.9822
14586 1 0.609765 12.1922 26.1722
14590 1 3.77032 12.5288 26.6326
14598 1 6.56504 12.181 26.5975
11000 1 6.57525 15.2097 20.9747
14584 2 2.43421 13.5104 22.3752
7466 2 10.8605 19.1651 13.9611
14539 1 6.7532 9.54776 23.568
14540 1 6.92606 9.47675 26.6032
14597 1 6.54835 12.2411 23.5585
14601 1 9.59297 12.1472 23.7812
14602 1 9.39523 12.0476 26.6242
14609 1 12.2385 12.1057 23.4293
14543 1 9.34212 9.32766 23.6159
14536 2 7.9561 7.80478 22.2044
14595 2 8.04303 10.7052 25.1271
14605 2 10.8053 10.6074 22.2521
14550 1 12.2221 9.55757 26.7712
14551 1 12.278 9.48031 23.6637
14546 2 10.8401 7.96696 24.8921
14552 1 9.66328 9.12191 26.4215
151 1 12.3565 12.1201 26.4749
7226 2 10.8288 -3.41089 13.9679
259 2 7.8637 19.206 27.9066
14599 1 6.58576 15.0756 23.6341
11058 1 6.50391 17.9816 20.9669
11050 1 3.71395 17.8855 20.7677
14650 1 6.6579 17.6832 26.6
11046 1 0.89996 18.0736 20.8645
10988 1 0.953336 15.3025 21.0314
7406 2 11.0023 13.556 13.8295
7214 2 5.23442 -3.36679 13.7101
14600 1 6.64123 15.0392 26.5287
14594 2 5.20204 13.688 25.1917
14592 1 3.7622 15.1803 26.5011
14643 2 2.48345 16.411 25.2544
14654 2 5.15025 19.2693 25.0315
14653 2 5.17276 16.4188 22.3419
14588 1 0.765166 14.892 26.45
14645 1 0.759745 17.7973 23.4152
14640 1 1.06567 17.602 26.6016
14644 2 2.31038 19.2628 22.3302
14591 1 3.74652 14.8757 23.8453
14587 1 1.06386 14.952 23.9077
14649 1 3.64686 17.7867 23.555
14646 1 3.93859 17.8127 26.4254
14657 1 6.52323 17.7798 23.688
7455 2 8.19411 16.1155 13.9015
14668 2 13.5157 19.4852 22.1234
7334 2 4.86749 7.95431 13.6764
14658 1 9.31253 17.6301 26.3585
11012 1 12.0081 14.6432 21.1763
209 2 10.8314 13.6256 24.9214
11042 2 -0.311059 19.4103 19.3524
11062 1 9.53475 17.5606 20.8861
14611 1 12.5138 14.9826 23.9298
14670 1 12.1494 17.9012 23.4861
7454 2 5.14971 19.0928 13.8929
14596 2 7.9346 13.4854 22.3354
14603 1 9.42781 14.9468 23.6059
14669 1 9.3063 17.7295 23.5658
14655 2 7.98698 16.1822 25.0983
7286 2 10.82 2.26399 13.8961
14579 1 -0.316815 9.13819 23.1963
7202 2 -0.453904 -3.19137 13.9046
73 2 5.41153 -0.537508 27.8207
14548 2 13.6632 7.93223 22.1451
88 2 13.5927 2.19589 27.7176
14607 2 13.4837 10.8273 25.0248
14547 2 13.5521 5.15158 24.9186
11007 2 13.5954 10.6828 19.2632
193 2 5.41974 10.8508 27.8563
145 2 10.7809 5.11931 27.7104
17952 1 3.98598 -4.57304 27.0923
265 2 10.8315 16.329 27.6914
7346 2 10.6727 7.88686 13.7885
61 2 -0.134781 1.43406 27.7537
125 1 1.87351 10.4099 27.7916
3913 2 5.09967 22.2447 5.26756
305 1 0.821559 23.6569 0.981858
306 1 1.02718 23.6465 3.7794
247 1 0.908532 20.7375 0.933692
314 2 4.97076 25.1129 2.37977
248 1 0.954623 20.7661 3.73054
309 1 3.56547 20.6795 1.16488
303 2 2.31606 22.0818 2.46152
310 1 3.85547 23.6807 1.05051
3904 2 2.27367 25.018 5.25952
3851 1 3.71372 23.5206 3.9858
252 1 3.6595 20.6982 4.11501
3905 1 0.577986 23.5007 6.56888
3864 1 6.35783 20.7179 6.64345
317 1 6.63361 23.6578 1.27635
3859 1 3.73149 20.6074 6.76575
251 1 6.18501 20.723 1.11107
320 1 6.30014 26.2933 3.93668
308 1 0.825394 26.4579 3.74084
369 1 3.71202 26.6994 0.785392
3907 1 0.972564 26.4075 6.86947
7749 1 3.70232 46.5764 12.1667
3847 1 1.0249 20.6474 6.64204
4047 2 13.4424 33.6835 8.01503
3987 2 13.6816 28.0183 7.90403
318 1 6.61348 23.2948 3.79813
260 1 6.83312 20.368 3.79444
3925 2 10.6788 22.3152 5.46549
330 1 12.4229 23.3668 4.21809
326 2 10.9002 24.7756 2.96363
272 1 12.3125 20.5322 3.92496
321 1 10.8478 22.8729 1.76308
315 2 8.0455 22.1254 2.42469
322 1 9.3146 23.5326 4.03026
3916 2 7.74105 25.0137 5.12817
264 1 9.47931 20.7393 4.22341
323 1 9.53491 25.5626 1.23968
362 2 -0.515273 30.9067 2.35972
271 1 12.1636 20.4775 1.12832
3863 1 9.35025 20.8399 6.84022
3921 1 9.2065 23.5394 6.7384
329 1 12.8246 24.9969 1.60179
332 1 12.1219 26.2978 4.32721
3871 1 12.4032 20.9441 6.78128
3901 2 -0.42381 22.1667 5.00373
545 1 0.952375 46.073 0.788249
319 1 6.6324 26.5946 1.25658
324 1 9.32973 26.1517 4.15636
3917 1 6.26427 23.6905 6.58553
3928 2 13.6011 25.0107 5.52379
14732 1 11.9854 26.1717 -0.613923
508 2 13.5408 42.1894 -0.314253
311 1 0.915059 26.6142 0.926151
312 1 3.57849 26.4247 3.59419
3973 2 5.12744 27.9963 5.23449
363 2 2.37564 27.9832 2.37632
426 1 0.86012 32.2754 3.77878
367 1 0.504411 32.344 0.945012
374 2 5.32423 30.7289 2.37192
370 1 3.77043 29.4367 0.821319
3964 2 2.36487 30.6017 5.3237
371 1 3.75752 31.9997 0.971577
372 1 3.66157 32.24 3.9137
3965 1 3.87475 29.3381 3.60419
3967 1 0.880697 29.2244 3.72669
366 1 0.928306 29.6379 0.882695
380 1 6.60166 32.173 3.81294
378 1 6.66402 29.2019 4.00823
379 1 6.68676 32.0875 1.15194
377 1 6.46173 29.2202 1.13735
3979 1 6.73795 32.2408 6.41658
3969 1 3.74751 29.2183 6.59735
3966 1 0.976984 29.1759 6.52886
3977 1 6.67769 29.4822 6.64361
263 1 9.16638 20.3714 1.27614
3923 1 9.27057 26.346 6.85419
7561 2 -0.402072 27.9371 10.854
331 1 11.4837 27.8865 1.61694
3985 2 10.7025 27.9169 5.39369
375 2 8.02605 27.8051 2.48647
391 1 12.0771 32.4397 0.970883
386 2 10.897 30.4828 2.06348
392 1 12.1029 32.2919 4.00474
381 1 9.16486 29.3136 1.10168
382 1 9.27249 29.1935 4.06378
3976 2 8.04604 30.7477 5.09565
383 1 9.46597 32.0445 0.933964
384 1 9.37861 32.1222 3.63421
3989 1 11.9505 29.2328 4.1045
3981 1 9.34419 29.1308 6.89454
3983 1 9.80649 32.014 6.36448
387 2 13.2747 27.6737 2.83713
7621 2 -0.47078 33.3851 10.8138
4033 2 5.12913 33.5373 5.13757
425 1 1.02522 34.9527 0.962383
434 2 4.98977 36.4975 2.43473
429 1 3.67719 34.8247 1.11646
423 2 2.29753 33.5886 2.40629
430 1 3.83185 35.0318 3.78741
4024 2 2.34791 36.3577 5.24272
428 1 0.992331 35.0106 3.90262
486 1 0.738417 37.7423 3.7662
427 1 1.07232 37.8308 0.90337
431 1 3.8314 37.7291 0.769423
432 1 3.45478 37.6715 3.6272
483 2 2.44648 39.2961 2.2935
4093 2 4.91051 39.3016 5.29867
4149 1 3.70457 45.9894 6.62819
4031 1 3.63282 37.7753 6.70027
4029 1 3.84188 34.9756 6.65793
7648 2 13.5537 36.4451 10.9371
439 1 6.29733 37.9891 0.714614
438 1 6.56413 35.142 3.54003
440 1 6.38921 38.113 3.74196
437 1 6.51793 35.2474 0.939267
4045 2 10.7949 33.6767 5.22435
449 1 12.0846 35.2757 1.20733
450 1 12.1104 35.0186 3.86079
446 2 10.7265 36.6345 2.47861
441 1 9.54303 34.869 0.976335
435 2 8.01946 33.5964 2.41093
442 1 9.44406 35.1864 3.99941
4036 2 7.7309 36.5497 5.13148
509 1 12.0511 38.0787 1.02508
452 1 12.0441 37.9759 3.84127
443 1 9.01671 37.8716 0.88833
444 1 9.24108 38.2782 3.92799
4105 2 10.6633 39.3754 5.19806
495 2 7.77542 39.2715 2.10502
4041 1 9.28291 34.927 6.61308
4051 1 12.1253 37.9702 6.64956
327 2 13.5744 21.8853 2.562
4037 1 6.57116 35.0652 6.49212
4049 1 12.0336 35.2411 6.78048
4155 2 7.97144 45.2115 7.69032
561 1 9.37557 46.6326 0.748852
3927 2 13.6024 22.1746 8.18415
4153 2 5.13242 44.8835 5.15326
485 1 1.23488 40.5987 0.796479
487 1 0.812979 43.5211 1.01814
494 2 5.13206 42.2685 2.34854
488 1 1.01138 40.5891 3.68536
489 1 3.9199 40.8687 1.00844
543 2 2.39047 44.5692 2.29553
490 1 3.70765 40.5955 3.80872
491 1 3.56942 43.3345 0.892737
492 1 3.72712 43.2805 3.89697
482 2 2.19548 41.9617 5.21504
546 1 1.00239 43.2171 3.65156
500 1 6.4404 43.7118 3.69117
4097 1 6.32227 40.7228 6.47827
498 1 6.46227 40.8468 3.68525
497 1 6.63543 40.7176 0.680751
4099 1 6.74319 43.4793 6.48126
424 2 2.21724 36.2922 -0.473807
4048 2 13.5424 36.416 5.41137
567 2 13.6594 45.0076 2.23517
4141 2 -0.456088 44.8372 5.28848
499 1 6.63641 43.7509 0.765083
4165 2 10.9465 45.1598 5.15862
510 1 12.3112 40.5326 3.89398
511 1 12.202 40.7733 0.992726
506 2 10.6865 42.0848 2.32362
501 1 9.43838 40.7876 0.889735
555 2 8.03414 45.1755 2.19034
502 1 9.3428 40.9005 3.77519
4096 2 7.81116 42.0092 5.10706
503 1 9.3238 43.4894 0.973836
504 1 9.62616 43.9133 3.81381
565 1 12.3873 43.7312 3.7937
569 1 12.3007 43.532 0.97744
512 1 12.4254 43.7735 6.50987
4101 1 9.00864 40.7731 6.71314
4103 1 9.52762 43.8448 6.51607
4109 1 11.8482 40.8801 6.45669
507 2 13.6756 39.1303 2.3169
3988 2 13.4872 30.6596 5.32126
313 2 5.0529 21.8545 -0.500877
3909 1 3.55033 23.6183 6.71225
7501 2 -0.199961 22.2475 10.7952
7499 1 0.187972 20.5619 11.9185
7513 2 5.11237 22.1403 11.238
7505 1 0.754831 23.5216 12.2345
3906 1 0.898268 23.5331 9.22108
7447 1 3.25893 21.0332 12.3945
3914 2 4.96248 25.035 8.07983
3860 1 3.67144 20.6579 9.73999
7509 1 3.58953 23.517 12.4015
3903 2 2.27837 22.2122 7.96469
3910 1 3.65587 23.432 9.51425
7504 2 2.25727 24.952 11.0478
3852 1 0.949321 20.7463 9.23021
359 2 -0.584415 27.9802 -0.106264
7517 1 6.36178 23.5995 12.2145
7507 1 0.865878 26.2482 12.3411
3912 1 3.62014 26.6104 9.39644
7459 1 6.61474 20.9043 9.64586
3911 1 3.61948 26.4394 6.56539
3908 1 0.664519 26.2291 9.73198
7511 1 3.47843 26.3814 12.294
7519 1 6.27881 26.212 12.2056
4145 1 0.869635 46.4124 6.63037
3929 1 11.9921 23.6092 6.89529
7451 1 5.99361 20.385 12.2184
7701 1 9.62474 40.8827 12.1227
7597 2 13.5477 27.9878 11.2231
3918 1 6.44135 23.6027 9.33785
3931 1 12.2525 26.5163 6.81844
7515 1 9.42079 20.5096 12.2012
7525 2 10.6439 22.2042 11.0726
7529 1 12.4944 23.761 12.6884
3930 1 11.8485 23.8591 9.7093
7471 1 11.9823 21.0488 12.4031
3926 2 10.3473 24.8088 8.14175
3872 1 12.172 20.7184 9.60615
7521 1 9.7587 23.8739 12.266
3915 2 7.80348 22.0172 8.22661
3922 1 9.29701 23.3292 9.5437
7516 2 7.87999 24.6557 10.963
7463 1 9.43037 20.7304 9.55045
7531 1 12.2524 26.7122 12.5611
3920 1 6.38077 26.5676 9.4267
3919 1 6.31377 26.5764 6.63994
7523 1 9.06019 26.287 12.456
3924 1 9.1171 26.3647 9.60985
3971 1 3.67123 32.1385 6.60646
7528 2 13.5905 24.634 10.8379
364 2 2.36021 30.7922 -0.444167
4025 1 0.694111 31.9055 6.36255
7570 1 3.81485 29.1675 12.4978
7573 2 5.09869 27.9089 11.0528
3963 2 2.50131 28.0082 8.05039
7565 1 0.70771 29.4031 9.1963
7567 1 0.889311 32.2673 12.1824
3974 2 5.15628 30.8307 8.1928
3968 1 0.722897 32.151 9.27049
7569 1 0.9691 29.1279 11.9638
3970 1 3.51721 29.3862 9.68079
7564 2 2.14492 30.9857 11.0342
7571 1 3.53523 32.2891 12.2145
3972 1 3.46105 32.5256 9.46391
7579 1 6.18013 31.6065 11.8358
3980 1 6.5317 32.1406 9.48042
4111 1 12.066 43.584 9.52795
3991 1 12.2756 32.1983 6.85086
447 2 13.4553 33.6247 2.45365
3990 1 12.0664 29.384 6.63124
3978 1 6.37167 29.471 9.40727
7577 1 7.32514 28.7443 11.7588
3932 1 12.2772 26.9345 9.78704
7585 2 10.1878 27.6891 11.0176
3975 2 7.75225 27.8791 7.99613
7589 1 12.6408 29.5097 12.2452
7591 1 12.0447 32.3673 12.147
3986 2 10.6593 30.6268 8.03493
3992 1 12.285 32.1328 9.45942
7581 1 9.81766 29.2105 12.5391
3982 1 9.25606 29.2849 9.54463
7576 2 8.09674 30.6549 10.7976
7583 1 12.357 29.4398 9.46412
3984 1 9.30007 32.348 9.18264
7635 1 9.36214 31.8966 12.007
7623 2 2.20434 33.5042 13.7212
4027 1 1.04526 34.7833 6.60436
4085 1 1.0029 37.6563 6.47733
393 1 13.4482 29.8756 1.71852
7633 2 4.93973 33.3562 11.0553
7625 1 0.712626 35.0432 12.0693
4026 1 0.905425 34.9677 9.29246
4034 2 4.99069 36.4224 8.10708