ITEM: TIMESTEP
100000
ITEM: NUMBER OF ATOMS
18000
ITEM: BOX BOUNDS pp pp pp
-4.9651318255884758e-01 2.7836513182558111e+01
-6.0473840928068698e+00 3.3412738409281565e+02
-4.9945192434328728e-01 2.7839451924344004e+01
ITEM: ATOMS id type x y z
3673 2 5.31729 -0.485398 5.20365
6 1 0.984682 -1.71772 1.03597
19 1 3.93482 -1.78061 1.1855
14 2 4.97156 -3.52299 2.35518
8 1 0.885885 -1.70873 3.91207
63 2 2.31751 -0.4593 2.57742
10 1 3.6984 -4.83518 3.75857
3604 2 2.48244 -3.4555 5.34059
12 1 3.75965 -2.09376 3.84975
3551 1 2.33864 -4.3153 1.29112
3547 1 0.82425 -4.6031 3.94984
3560 1 6.30753 -4.92048 3.83785
17952 1 4.18 -4.39715 -0.388046
242 2 -0.445106 19.4545 2.18288
7312 2 -0.430707 -0.840862 10.762
7454 2 5.20038 19.3811 13.2059
17948 1 0.233823 -3.90581 -0.392121
3611 1 3.8769 -2.04267 6.47041
3548 1 1.17264 -4.71932 6.85653
3842 2 -0.484438 19.2577 7.86431
64 2 3.01762 1.96801 -0.460646
20 1 6.90353 -2.14216 3.83747
21 1 6.80677 -1.85124 0.929884
17 1 6.59824 -4.92846 1.11214
18 1 9.53965 -2.03357 3.74105
3685 2 10.8499 -0.691214 5.10055
30 1 12.2071 -2.03188 3.88967
26 2 11.017 -3.45383 2.35707
75 2 8.16199 -0.572957 2.3042
3616 2 7.96681 -3.53478 5.24592
24 1 12.2996 -2.03121 1.2135
3571 1 12.3036 -4.90799 0.740746
3572 1 12.1579 -4.82362 3.88176
3564 1 9.34486 -5.0184 3.93429
31 1 9.70268 -1.8892 0.85217
17962 1 9.43129 -4.88168 1.04889
3721 2 -0.399328 5.42704 5.39272
3811 1 12.4394 15.2627 9.60899
74 2 5.19409 2.17277 2.61867
69 1 1.03071 0.881384 3.99146
70 1 3.94311 0.948602 3.8971
3664 2 2.40337 2.38764 5.18471
11 1 4.09695 0.777809 0.990509
3733 2 5.39228 5.08378 5.13389
126 1 1.35486 6.34048 3.8125
68 1 1.24362 3.38916 3.45916
123 2 2.08794 5.07659 2.11749
71 1 3.71127 3.5941 1.04153
72 1 3.93914 3.90459 4.00227
129 1 4.046 6.27604 0.997232
130 1 4.03568 6.93469 4.20715
9 1 1.24949 1.3444 1.21449
65 1 1.10389 3.9506 -0.206661
137 1 6.88332 6.43249 1.02129
124 2 2.81601 7.86223 -0.463351
3867 2 13.5917 16.4225 7.99748
7395 2 7.94689 10.9443 13.5077
7288 2 13.6022 2.13775 10.7971
3729 1 3.77795 6.54682 6.83771
3667 1 0.85349 3.69246 6.48775
133 2 5.42812 4.9792 -0.500117
78 1 6.62214 0.719123 3.7786
138 1 6.59094 6.23446 3.64871
80 1 6.81022 3.64588 1.02129
84 1 6.83045 3.50374 3.82664
77 1 6.76566 0.860526 0.948671
32 1 12.5068 0.762878 3.76704
89 1 12.5802 0.985811 0.909664
90 1 12.3052 3.42646 3.83412
86 2 10.9304 2.11885 2.49165
81 1 9.62504 6.3393 0.768768
82 1 9.68976 3.75678 3.94976
3676 2 8.19155 2.24546 5.13259
23 1 9.73455 0.838901 1.05177
3745 2 11.0304 5.12557 5.31408
91 1 9.70782 3.38053 1.09686
135 2 8.28354 4.98468 2.41466
83 1 12.0917 6.54049 3.95514
3689 1 9.45593 0.981378 3.80178
14492 1 12.4873 3.55561 0.905743
141 1 12.229 6.3026 1.12156
142 1 9.54128 6.5079 3.75852
3862 1 9.45783 17.7965 9.40964
92 1 12.3794 6.44202 6.76072
193 2 5.54556 10.7816 -0.431391
178 1 -0.285271 7.86328 5.31393
67 1 1.3554 7.63285 1.40582
3793 2 5.13804 10.6864 4.97891
134 2 5.39152 7.78144 2.3999
128 1 1.2246 9.43055 3.89638
183 2 2.25461 10.829 2.23022
3724 2 2.32473 7.79151 5.54474
131 1 4.25881 9.06591 0.77821
132 1 3.99664 9.39132 3.6248
186 1 0.873382 12.4449 3.47996
189 1 4.03642 12.1564 0.880688
190 1 3.60183 12.0646 3.6598
187 1 0.681648 12.509 0.681279
198 1 6.62482 12.0074 3.6019
3789 1 3.78727 11.8702 6.58674
3808 2 13.5014 13.6032 4.92986
7228 2 13.5609 -3.6094 10.8449
3790 1 5.09933 13.626 5.11271
7348 2 13.5615 7.92614 10.859
79 2 8.1621 2.13292 -0.400081
7413 1 12.3651 15.0307 12.3061
2 2 -0.436271 -3.67829 2.27219
3747 2 13.4861 5.13965 8.3678
7465 2 11.1222 16.6991 10.7943
140 1 6.6967 9.24745 3.82191
7442 2 -0.337514 19.1711 13.525
139 1 6.96978 9.29493 0.858723
197 1 6.75546 12.138 1.00842
3805 2 10.8633 10.5509 5.18382
149 1 12.3633 9.11063 0.786732
150 1 12.2441 9.51317 3.77911
146 2 11.0125 7.94507 2.10796
195 2 8.10195 10.6267 2.3447
3736 2 8.03752 7.89534 4.8924
143 1 9.61681 9.2527 0.621774
144 1 9.54549 9.14467 3.28521
210 1 12.1639 11.8285 0.577086
201 1 9.20383 12.3051 0.873575
202 1 9.26904 11.5957 4.00904
152 1 12.2197 12.1454 3.33853
3751 1 9.67497 12.0424 7.15484
3749 1 12.2983 9.34855 6.64135
3796 2 7.80905 13.4992 4.76698
3803 1 9.47594 14.4773 6.35701
7461 1 9.51617 17.6882 12.0349
244 2 2.59507 19.2487 -0.492563
7457 1 6.64284 17.8108 12.0937
3784 2 2.23566 13.5399 5.07444
194 2 5.0632 13.4684 2.44371
3853 2 5.04819 16.2408 4.89713
245 1 1.0084 15.0575 0.902822
246 1 0.767555 17.9283 3.75478
254 2 5.2788 19.0968 2.1782
188 1 0.975868 15.0754 3.6332
249 1 3.76381 17.9127 0.912428
243 2 2.46673 16.4844 2.28071
250 1 3.84336 17.8157 3.6084
3844 2 2.25381 19.161 5.05449
191 1 3.7682 14.9746 0.729354
192 1 3.80766 15.069 3.47036
297 1 0.91632 17.9042 0.804459
258 1 6.64713 17.7601 3.59908
200 1 6.72814 15.0602 3.56197
199 1 6.70514 14.9345 0.791036
257 1 6.50544 17.817 0.695163
3791 1 3.47093 15.2584 6.27107
3857 1 6.39383 17.8613 6.35076
7443 2 2.55511 16.3968 13.3649
3687 2 13.5047 -0.720532 7.94675
177 1 -0.363497 5.56563 1.48138
206 2 10.8167 13.6443 2.04848
3801 1 12.1795 12.1123 6.25807
3865 2 10.7091 16.4418 5.05637
270 1 12.3071 17.6263 3.79731
211 1 12.1937 14.9389 0.526359
266 2 11.0002 19.0739 2.44701
212 1 12.1786 14.9997 3.55997
261 1 9.61525 17.7915 0.657431
255 2 8.12167 16.3216 2.04453
262 1 9.60569 17.4918 3.42298
3856 2 7.82385 19.2074 4.99228
203 1 9.59202 14.9445 0.500407
204 1 9.44029 14.6359 3.43059
269 1 12.5155 17.696 0.802134
7455 2 8.04844 16.737 13.5187
3800 1 7.06827 15.0895 9.52534
3861 1 9.31454 17.446 6.43517
3812 1 12.2498 15.039 6.51087
3607 1 0.951461 -1.94831 6.76674
3869 1 12.1202 17.6321 6.52843
7456 2 8.04537 19.4295 10.8578
3609 1 3.74052 -4.93066 6.69315
7396 2 8.06858 13.7295 11.2716
3605 1 1.06222 -5.05701 9.55416
7273 2 5.30408 -0.605138 10.8163
7205 1 0.899115 -4.70899 12.3232
3606 1 0.909645 -2.34277 9.56319
7207 1 0.977181 -1.86694 12.3259
3614 2 5.33644 -3.57132 8.15271
7209 1 3.79014 -5.0334 12.2972
3663 2 2.51204 -0.639739 8.04583
3610 1 3.71664 -5.04441 9.47847
7204 2 2.33528 -3.54704 11.0028
7211 1 3.92775 -2.07292 12.2128
3612 1 3.67852 -2.08541 9.50945
7217 1 6.52004 -4.66773 12.1741
3620 1 6.57992 -1.83467 9.4839
3798 2 8.07277 13.278 8.00568
3662 2 -0.366169 2.19028 8.1685
125 1 1.56796 9.886 0.0685035
3619 1 6.70401 -2.2036 6.75678
3617 1 6.49112 -4.97701 6.72208
3618 1 6.57623 -4.8514 9.6009
7219 1 6.71097 -1.91935 12.2462
3623 1 9.51624 -1.92069 6.44579
22 1 12.0759 -2.25705 6.66635
3621 1 9.08862 -4.87294 6.78127
3629 1 12.0878 -4.76477 6.83463
7164 1 9.38763 -4.81502 9.56458
7285 2 10.8058 -0.6491 10.8687
7229 1 12.0225 -4.8331 12.3147
7231 1 12.331 -1.97268 12.1723
3626 2 10.6674 -3.38079 8.08897
3632 1 12.1591 -2.09733 9.48996
7221 1 9.23708 -4.89992 12.2973
3675 2 8.2199 -0.568306 8.11583
3622 1 12.2031 -5.21037 9.44216
7216 2 8.06695 -3.56133 11.0055
7223 1 9.47443 -2.11971 12.5267
3624 1 9.53574 -1.92693 9.55635
7322 2 -0.437312 7.85514 13.6918
3679 1 6.52971 3.42422 6.52152
3671 1 3.79604 3.71207 6.65304
3669 1 3.89146 1.03493 6.60863
3665 1 1.09466 0.872029 6.64599
3725 1 1.00478 6.42433 7.03235
7269 1 3.67378 0.760963 12.3309
7265 1 0.699067 0.977822 12.1802
3666 1 3.84525 3.57266 9.59042
3674 2 5.22362 2.38534 8.00773
3608 1 0.956713 0.667638 9.4294
3670 1 3.84053 0.897006 9.48187
7264 2 2.3895 2.2288 10.8856
7333 2 5.10501 4.96634 10.9658
7267 1 1.07901 3.69228 12.4282
3723 2 2.42658 5.13177 8.14342
7271 1 3.72132 3.37292 12.4176
7261 1 1.09138 3.6287 9.46232
7325 1 1.11882 6.45526 12.4397
3668 1 0.846746 6.68263 9.7285
7329 1 3.94942 6.47786 12.4498
3672 1 3.71807 6.41222 9.75226
3680 1 6.54179 3.8006 9.3561
3866 2 10.7712 19.3459 7.7443
5 2 2.16284 -5.67242 -0.433956
3631 1 12.0414 0.622329 6.6146
3741 1 9.72505 6.47931 6.88389
3681 1 9.45601 0.796804 6.87477
3737 1 6.9592 6.48577 6.36004
7337 1 6.66313 6.63645 12.3356
3738 1 6.54688 6.68233 9.14272
3677 1 6.70728 0.702813 6.53172
7277 1 6.41923 0.742483 12.2084
3683 1 9.43094 3.70801 6.61634
3691 1 12.1577 3.60647 6.89345
3678 1 6.69016 0.845013 9.34339
7279 1 6.61493 3.56271 12.0839
7281 1 9.28527 0.818057 12.3963
3682 1 9.55756 0.817233 9.5843
7289 1 12.2291 1.08186 12.5131
3690 1 12.2652 0.754697 9.54306
3686 2 10.7055 2.33316 8.20563
7276 2 8.01705 2.26477 11.0676
3684 1 9.31004 3.70875 9.67164
7283 1 9.51649 3.66627 12.522
3735 2 8.15962 5.29638 8.10662
7345 2 10.7718 5.1622 10.9949
7291 1 11.9804 3.66578 9.99095
3692 1 12.1157 6.30276 9.57641
7341 1 9.4816 6.45447 12.3633
3750 1 12.2136 6.36643 12.2183
3742 1 9.67998 6.68052 9.65338
3722 2 -0.335986 7.93669 8.18342
3855 2 8.15693 16.5123 7.97944
3731 1 3.84446 9.20725 6.53502
3739 1 6.48211 9.1892 6.4896
3785 1 0.907435 12.146 6.3211
3727 1 1.09978 9.36143 6.93286
7393 2 5.10048 10.8295 10.8506
3726 1 0.911705 9.32118 9.72153
7327 1 0.729415 9.26188 12.4018
3734 2 5.30389 7.94379 7.97001
3728 1 0.855794 11.9661 9.2815
3783 2 2.39651 10.7384 8.04322
3730 1 3.72971 9.31291 9.42176
7324 2 2.40975 7.91534 11.0728
7331 1 4.01657 9.31858 12.3102
3732 1 3.78683 12.1516 9.24444
7389 1 3.5243 12.1847 12.0707
7385 1 0.663693 12.0278 11.9399
3740 1 6.72316 9.47872 9.3757
7411 1 7.06117 12.064 6.49836
7397 1 6.33677 12.3116 11.9047
7403 1 9.53449 15.0375 12.0836
3858 1 6.72371 17.8506 9.19478
3797 1 9.54179 14.5892 9.20105
3743 1 9.46707 9.1614 6.4207
7339 1 6.68707 9.34915 12.0273
3804 1 9.01579 11.9576 9.60235
7349 1 12.1172 9.21572 12.1155
3744 1 9.57862 9.32549 9.46561
7343 1 9.3806 9.26989 12.2104
7336 2 8.07375 7.93933 10.7856
3795 2 8.17964 10.3367 7.9835
7405 2 10.8695 10.6537 10.8309
3746 2 11.0544 7.98639 8.01226
3752 1 12.4424 9.32087 9.31038
3802 1 6.39506 12.2476 9.15544
7409 1 12.4152 12.2131 12.1992
3810 1 12.1744 11.7484 9.24924
7401 1 9.45446 12.1687 12.2323
3628 2 13.5786 -3.59768 5.22592
7469 1 12.494 18.0514 12.2127
7441 2 -0.316614 16.1416 10.6657
3849 1 3.62733 18.0634 6.5273
3845 1 0.761943 17.878 6.55726
3787 1 0.636421 14.7689 6.5193
3799 1 6.88299 14.8985 6.87636
3794 2 4.71794 13.7982 7.591
7384 2 2.24026 13.4853 10.6174
3792 1 4.00692 15.2811 9.40025
3843 2 2.35729 16.5147 7.98382
7391 1 3.9635 14.9548 12.0808
7387 1 1.19662 15.0176 11.8832
7444 2 2.271 19.3319 10.6895
7449 1 3.80224 17.8127 11.9217
3846 1 0.925728 17.7577 9.40115
3854 2 5.16071 19.4571 7.88689
3786 1 1.04681 14.9007 9.22607
7445 1 0.9509 17.7611 11.9443
7453 2 5.37033 16.6254 10.6355
3850 1 3.72744 18.0738 9.07072
7399 1 6.5928 15.1923 12.5237
3806 2 11.4224 13.5248 7.93023
3870 1 12.2698 17.9399 9.25496
7214 2 5.1296 -3.60429 13.6074
7321 2 -0.446997 5.13544 10.8484
62 2 -0.470277 2.28062 2.76586
179 2 -0.419999 8.32284 -0.0665224
122 2 -0.353601 7.49498 2.9772
7383 2 2.11961 10.6873 13.6156
207 2 13.4798 10.6297 2.11213
16 2 8.11999 -3.39551 -0.470881
73 2 5.55283 -0.495434 -0.410102
147 2 13.503 4.85151 2.41184
136 2 8.11685 7.61635 -0.495297
7394 2 4.96333 13.5637 13.5259
3868 2 13.5673 19.0387 5.04002
3748 2 13.4845 7.86143 5.02811
3781 2 -0.412226 10.5647 4.95909
145 2 11.0067 4.71679 -0.357152
3841 2 -0.384769 16.2849 5.11357
241 2 -0.459974 16.5972 -0.460055
4 2 2.51045 -2.7166 -0.452445
85 2 11.053 -0.431052 -0.44766
10873 2 5.04101 -0.602545 16.568
10805 1 1.0214 -4.73489 18.0654
7206 1 0.840806 -5.0325 15.0889
10807 1 1.03837 -1.9368 18.0315
10814 2 5.29491 -3.4077 19.4882
7208 1 1.09158 -2.12889 15.3456
10809 1 3.8085 -4.90097 18.2008
10863 2 2.43949 -0.58809 19.4373
7210 1 3.582 -4.80193 15.1632
10804 2 2.36471 -3.35692 16.6643
10811 1 3.81937 -1.93674 18.1518
7212 1 3.97613 -2.04032 15.0804
10808 1 0.927586 -1.98682 20.7144
10806 1 1.13626 -4.77163 20.7189
7218 1 6.40354 -4.95089 14.8871
10819 1 6.63794 -1.9528 17.9332
7220 1 6.80154 -2.16927 14.9294
11041 2 -0.391306 16.5451 16.2148
10817 1 6.57162 -4.69955 17.901
10885 2 10.801 -0.463013 16.5602
10829 1 12.3583 -4.90368 18.0211
7230 1 12.2074 -5.05081 15.1199
10831 1 12.2948 -1.82055 17.9725
10826 2 10.879 -3.40001 19.3221
7232 1 12.2341 -2.22018 15.3032
10821 1 9.34573 -4.59477 17.9586
10875 2 7.87774 -0.52984 19.3876
7222 1 9.20452 -4.81442 15.2974
10816 2 7.99002 -3.25388 16.5503
10823 1 9.42392 -1.89656 17.9931
7224 1 9.43808 -2.0187 15.2674
7274 2 4.97897 2.01692 13.8803
10888 2 13.5218 2.43218 16.219
7275 2 8.0311 -0.688782 13.7783
14642 2 -0.419617 19.2474 24.8882
7202 2 -0.320086 -3.42613 13.7588
7263 2 2.52257 -0.704865 13.7232
7270 1 3.68619 0.850669 15.2457
10865 1 0.949106 0.964511 17.7853
7266 1 0.98986 0.765073 15.0564
10874 2 5.20186 2.46924 19.2853
10869 1 3.80138 0.883148 17.9339
10864 2 2.39239 2.18823 16.6339
10933 2 5.25813 5.31201 16.5943
10867 1 0.96193 3.71168 18.1615
7268 1 0.826347 3.69403 15.3783
10923 2 2.29565 4.96716 19.4705
7330 1 4.0361 6.70801 15.2122
10871 1 3.92779 3.81369 17.8356
7272 1 3.77736 3.74702 15.144
7326 1 0.842049 6.42702 15.2576
10925 1 1.0379 6.46892 18.1413
10929 1 3.8219 6.67439 18.0014
7278 1 6.45312 0.531636 15.0955
10868 1 0.93039 3.59448 20.7596
7280 1 6.53565 3.59718 15.0223
10866 1 1.11681 0.756336 20.584
61 2 -0.141005 2.07559 27.8498
14582 2 -0.395605 14.0929 24.8464
10926 1 1.06919 6.61724 20.8552
7407 2 13.5525 10.8597 13.6604
7338 1 6.67866 6.4727 15.1433
10877 1 6.54283 0.910528 17.8875
10879 1 6.52083 3.72103 17.8703
10937 1 6.79813 6.60483 18.0233
7290 1 12.2121 0.660637 15.2458
10889 1 12.4115 0.934848 17.8463
10886 2 10.9901 2.08231 19.2295
10881 1 9.39434 0.91767 17.7101
7282 1 9.30652 0.893772 15.1963
10876 2 7.95133 2.29029 16.4824
10945 2 10.906 5.08532 16.6431
10949 1 12.4207 6.46816 17.8773
10891 1 12.3066 3.56576 17.7699
7292 1 12.159 3.778 14.8984
10941 1 9.62131 6.83706 17.6559
10935 2 8.17297 5.1543 19.3392
10883 1 9.54106 3.70674 18.1539
7284 1 9.49895 3.6485 15.2618
7342 1 9.31542 6.67011 14.9722
10890 1 12.3967 0.853743 20.5869
7350 1 12.1706 6.8906 15.2216
10882 1 9.49628 0.821488 20.6085
7286 2 10.6393 2.11897 14.0358
10892 1 12.4446 3.81187 20.4057
14579 1 -0.179425 8.92777 22.8884
259 2 8.11846 19.1505 27.7234
10993 2 5.2773 10.9356 16.4204
10927 1 1.17683 9.26442 17.5725
10934 2 5.28254 7.91395 19.3675
7328 1 0.953111 9.20966 15.0423
10983 2 2.68017 10.9429 19.0725
10924 2 2.51662 7.9486 16.6002
10931 1 3.96592 9.49545 17.7891
7332 1 3.71721 9.61378 15.1238
10985 1 0.905412 12.1945 17.6023
7386 1 0.863417 12.0538 14.8043
10989 1 3.94607 12.3273 17.7435
7390 1 3.78388 12.3434 15.0179
10986 1 1.19315 12.4534 20.5365
10928 1 1.02256 9.23617 20.2882
7398 1 6.5599 12.1711 14.6832
10932 1 3.84892 9.34424 20.6873
10997 1 6.8521 12.241 17.808
7340 1 6.64952 9.55983 14.9077
10939 1 6.62084 9.36366 17.8237
10998 1 6.71163 12.1292 20.9131
11005 2 10.8797 10.7538 16.2351
10951 1 12.3713 9.34496 17.6512
10946 2 10.9495 8.10234 19.2759
7352 1 12.2077 9.3399 14.7807
10995 2 8.02239 10.8473 19.1423
10936 2 7.99948 7.82539 16.353
10943 1 9.3925 9.60471 17.8838
7344 1 9.30771 9.672 14.9998
11009 1 12.547 12.0837 17.7713
7410 1 12.2141 12.3108 14.9596
11001 1 9.71595 12.5046 17.7309
7402 1 9.45121 12.5621 15.0371
11002 1 9.50345 12.3476 20.4998
7323 2 2.54044 5.12695 13.7711
14641 2 -0.411706 16.2471 21.8498
14611 1 12.2347 15.0225 23.4715
14581 2 -0.281705 10.8846 21.4927
10984 2 2.33945 13.7368 16.4385
10994 2 5.46411 13.84 19.2505
11053 2 5.41859 16.433 16.1152
11045 1 1.012 17.929 17.5183
7446 1 0.947784 17.8844 14.7788
10987 1 1.02224 15.1019 17.7207
11054 2 5.26618 19.1873 19.3344
7388 1 0.957001 14.8907 14.8944
11049 1 3.74776 17.8657 18.0056
11043 2 2.4672 16.3573 19.1785
7450 1 3.89509 17.9749 14.7633
11044 2 2.57901 19.1855 16.3289
10991 1 3.73713 15.143 17.8026
7392 1 3.65665 15.1439 15.0757
7400 1 6.54048 14.8213 15.1254
11057 1 6.65639 17.9563 17.6704
10999 1 6.6779 15.0759 17.7729
11046 1 1.2438 17.7248 20.4656
7458 1 6.78401 17.8122 14.8393
14607 2 13.589 10.658 24.5634
7346 2 10.8599 7.71036 13.6998
265 2 11.0421 16.4968 27.4948
7335 2 8.0708 5.0097 13.8331
11000 1 6.75797 14.9091 20.5396
11006 2 11.0348 13.6404 19.0716
10996 2 8.08911 13.7653 16.4566
11065 2 10.8368 16.5801 16.3317
11069 1 12.0305 17.8685 17.8807
7470 1 12.4308 17.7623 15.1471
11011 1 12.5148 14.9792 17.7508
11066 2 10.7478 19.4388 19.1384
7412 1 12.51 15.0476 15.1412
11061 1 9.49471 17.9419 17.5407
11055 2 8.05768 16.6087 19.0922
7462 1 9.56584 17.9271 14.846
11056 2 7.98353 19.3813 16.277
11003 1 9.61562 15.2144 17.863
7404 1 9.41008 15.1552 15.0498
11062 1 9.47852 17.8482 20.5328
11012 1 12.3369 15.1001 20.6544
11070 1 12.3436 17.9141 20.7439
184 2 2.35952 13.5979 27.795
11004 1 9.44301 15.1583 20.429
14522 2 -0.217745 7.59546 24.6832
10812 1 3.81038 -2.23462 20.9745
10820 1 6.51669 -1.82584 20.7444
205 2 10.9881 10.4957 27.4563
10981 2 -0.32157 10.7434 16.4544
52 2 -0.489128 -1.33992 27.7538
14428 2 13.5292 -3.34234 22.0793
10810 1 3.83649 -4.9305 20.7963
14473 2 5.10871 -0.737954 22.2722
14405 1 0.94433 -4.94286 23.5298
14407 1 0.863164 -2.18212 23.4137
14414 2 4.98948 -3.43854 25.468
14408 1 0.961594 -1.99639 26.1996
14409 1 3.85332 -5.06231 23.615
14463 2 2.37882 -0.562629 25.0472
14410 1 2.63844 -4.2255 25.9515
14404 2 2.54514 -3.53975 22.13
14411 1 3.92864 -2.01231 23.7448
14412 1 4.00038 -1.65623 26.5581
17946 1 0.434515 -5.97254 26.0114
7 1 1.6866 0.177935 27.3487
253 2 5.40146 16.2449 27.8348
10832 1 12.1038 -2.01985 20.8357
10824 1 9.27549 -2.02414 20.7779
14670 1 12.4109 17.8752 23.499
10818 1 6.56163 -4.7918 20.9529
14419 1 6.56518 -2.24242 23.6124
14418 1 6.57289 -4.95613 26.6227
14417 1 6.49004 -4.71087 23.8502
10822 1 9.48263 -4.81637 20.8279
10830 1 12.059 -4.80926 20.649
14420 1 6.74735 -1.95426 26.5905
17972 1 9.4346 -4.83019 26.357
14430 1 12.4343 -4.80428 26.5441
14485 2 10.7547 -0.454465 22.1384
14429 1 12.3362 -4.85241 23.6234
14431 1 12.575 -1.97118 23.8417
14426 2 11.0134 -3.67389 25.1029
14421 1 9.46786 -4.93063 23.7511
14475 2 7.87253 -0.81154 24.9634
14422 1 9.51729 -1.99119 26.2601
14416 2 7.89452 -3.44006 22.3198
14423 1 9.46525 -1.89893 23.5509
14424 1 12.368 -1.94226 26.6722
14603 1 9.4568 15.0692 23.2354
14666 2 10.9874 19.1274 24.8024
10938 1 6.56905 6.59194 20.7536
10872 1 3.77589 3.72647 20.7117
10870 1 3.83449 0.803223 20.8063
11042 2 -0.0881189 19.0757 19.1883
10930 1 3.78824 6.34228 20.6876
10878 1 6.58983 1.08535 20.511
14465 1 0.802961 0.6004 23.5686
14474 2 5.34556 2.13488 24.8076
14469 1 3.72372 0.754269 23.5056
14470 1 4.23759 0.852896 26.433
14464 2 2.51901 2.02115 22.0433
14533 2 5.04369 5.15448 22.195
14525 1 1.32789 6.4798 23.5477
14467 1 1.24731 3.3902 23.462
14523 2 2.32854 4.88697 25.0308
14530 1 3.53092 6.32557 26.6124
14471 1 3.93791 3.66553 23.3658
14472 1 4.09503 3.78894 26.4279
14529 1 3.90347 6.47815 23.7996
14466 1 1.32193 2.48456 25.8542
14526 1 0.805845 6.8486 27.049
7406 2 10.8241 13.673 13.6695
175 1 -0.351717 9.49051 26.3153
10942 1 9.40049 6.57454 20.5267
10862 2 -0.482649 2.26983 19.2468
10880 1 6.62401 3.74026 20.7283
14537 1 6.62005 6.24708 23.6227
14477 1 6.62248 0.517491 23.2564
14538 1 6.6825 6.56612 26.3999
10884 1 9.56108 3.76823 20.6745
10950 1 12.0414 6.85719 20.8146
14480 1 6.62137 3.45665 26.4728
14479 1 6.85308 3.56548 23.5182
14478 1 6.87642 0.815807 26.4183
14490 1 12.5638 0.670987 26.3666
14489 1 12.3047 0.628546 23.5312
14481 1 9.52082 0.719787 23.6565
14482 1 9.79426 0.794629 26.5537
14476 2 7.92375 2.33802 21.9695
76 2 11.064 2.10381 24.9479
14486 1 12.3422 3.29579 26.4008
14484 1 9.33048 3.70075 26.496
14483 1 9.63719 3.50998 23.2565
14535 2 7.99487 4.91706 24.9655
14545 2 10.7899 5.17912 21.9349
14549 1 12.616 6.31467 23.5239
14491 1 12.2522 3.74098 23.1194
14541 1 9.22462 6.2104 23.4211
14544 1 9.53792 6.16707 26.4869
14542 1 12.5508 6.19358 26.3544
14608 2 13.6664 13.5471 21.8821
10990 1 4.16735 12.159 20.4788
14528 1 1.81818 8.67725 24.87
14593 2 5.31062 10.6908 22.1391
14527 1 1.44966 10.8609 22.9732
14534 2 5.27601 7.93024 25.0636
14583 2 2.74914 10.8486 24.9556
14524 2 2.52647 8.03353 22.3058
14531 1 4.04434 9.38144 23.5217
14532 1 4.04265 9.37672 26.2855
14589 1 3.82936 12.213 23.3857
14586 1 1.02865 12.1955 25.6004
14590 1 3.8972 12.3326 26.5495
14598 1 6.67771 12.1354 26.1914
181 2 -0.392216 10.8878 24.4697
196 2 7.9278 13.471 27.709
14665 2 10.8891 16.4488 22.0498
14610 1 12.3131 14.9235 26.0027
10940 1 6.65803 9.04265 20.8762
14539 1 6.7142 9.40142 23.7039
10944 1 9.29083 9.40859 20.5488
11010 1 12.4206 12.329 20.574
10952 1 12.2915 9.53578 20.3504
14597 1 6.60519 12.2496 23.5649
14540 1 6.83151 9.39837 26.4713
14601 1 9.45232 12.1805 23.4446
14602 1 9.29172 12.0704 26.3674
14609 1 11.9902 11.9794 23.2656
14543 1 9.43662 8.98951 23.1683
14536 2 8.02318 7.74215 22.1385
14595 2 8.22135 10.7164 24.9094
14605 2 10.6975 10.7887 21.9588
14550 1 12.4288 8.96091 25.85
14551 1 12.2072 9.33527 23.1201
14546 2 10.9315 7.70292 24.6522
14552 1 9.69998 9.24192 26.1266
151 1 12.1067 11.7637 26.1097
10988 1 0.988621 15.0698 20.5881
14468 1 -0.340996 4.87853 25.2067
14599 1 6.68336 15.0483 23.573
14650 1 6.75891 17.7809 26.2626
14600 1 6.71233 14.9572 26.2494
11050 1 3.80603 17.745 20.8587
10992 1 3.94181 15.017 20.7339
14584 2 2.45527 13.5014 22.0906
14594 2 5.20233 13.4844 24.8441
14646 1 3.93593 17.7303 26.4568
14592 1 3.95539 15.0453 26.1064
14643 2 2.55586 16.4296 24.9025
14654 2 5.31069 19.2745 24.9568
14653 2 5.30447 16.3178 22.2125
14588 1 0.946219 14.8938 26.5356
14645 1 1.12436 17.7575 23.6156
14640 1 0.724051 17.6544 26.3258
14644 2 2.47724 19.0785 22.0753
14591 1 3.95015 14.7544 23.5051
14587 1 1.34991 15.2477 23.343
14649 1 4.11004 17.7526 23.5256
11058 1 6.5718 17.8208 20.546
14658 1 9.4861 17.4706 26.2674
14657 1 6.8424 17.8235 23.4633
14669 1 9.52264 17.8577 23.4146
14606 1 9.4474 14.798 26.1245
14604 1 12.5713 17.6662 26.0858
209 2 10.8737 13.4185 24.7661
14596 2 8.0337 13.5614 22.0837
14655 2 8.17086 16.3516 24.8514
14656 2 8.21691 19.1442 22.0542
10922 2 -0.244445 7.86873 19.308
208 2 13.6257 13.6212 27.7028
10982 2 -0.293328 13.5017 19.1707
7466 2 10.9297 19.4817 13.6798
14585 1 0.110273 13.0081 23.0441
10802 2 -0.473107 -3.43531 19.5831
7334 2 5.33508 8.03666 13.7271
14521 2 -0.133949 5.08935 22.2394
7262 2 -0.24375 2.19904 13.8234
7226 2 10.8042 -3.40393 13.9394
10921 2 -0.479663 5.13938 16.4238
7467 2 13.6199 16.5762 13.6852
3913 2 5.18474 22.208 5.02753
305 1 1.02413 23.408 0.913203
306 1 0.932629 23.4906 3.84027
247 1 1.15232 20.6659 0.77209
314 2 5.04451 24.823 2.38082
248 1 0.833879 20.6394 3.71547
309 1 4.00556 20.6316 1.10181
303 2 2.44052 22.0326 2.31916
310 1 3.675 23.4328 0.888159
3904 2 2.27283 25.0129 5.03882
3851 1 3.62204 23.5736 3.67241
252 1 3.52192 20.6835 3.84583
3864 1 6.63896 20.6905 6.42491
260 1 6.57758 20.6142 3.57704
317 1 6.51271 23.4949 0.986239
369 1 3.80951 26.2937 0.707551
311 1 1.06352 26.1583 1.03387
320 1 6.59529 26.3013 4.00728
7694 2 5.24882 42.0513 13.4829
329 1 13.5104 24.8931 2.21407
308 1 0.743003 26.4205 3.66863
312 1 3.72067 26.5276 3.65389
3847 1 1.0529 20.6918 6.49992
3905 1 1.21705 23.5772 6.48871
7621 2 -0.341135 33.4192 10.8166
318 1 6.58115 23.4292 3.57479
251 1 6.68074 20.5445 0.752275
319 1 6.67437 26.2693 1.40518
436 2 8.08787 36.3284 -0.233932
4149 1 3.86549 46.1792 6.34373
263 1 9.56071 20.2333 0.789219
3925 2 10.8409 21.8967 5.13494
330 1 12.2458 23.4951 4.03516
326 2 10.8892 25.1699 2.70472
272 1 12.2134 20.3253 3.89032
321 1 11.571 23.048 1.49958
315 2 7.99506 22.0376 2.18275
322 1 9.58758 23.4374 3.6493
3916 2 7.86941 24.885 5.3005
264 1 9.4102 20.5245 3.45399
323 1 9.69951 25.8574 0.837676
4110 1 12.1468 40.6344 9.69248
271 1 12.2688 20.2444 0.938993
3921 1 9.53985 23.443 6.46369
332 1 12.3667 26.6188 4.04767
324 1 9.36294 26.409 3.89158
4167 2 13.6695 44.6703 8.02555
3917 1 6.64224 23.3524 6.34839
3871 1 12.2242 20.7439 6.67094
3923 1 9.40242 26.3669 6.66553
4022 2 -0.448012 36.3537 7.91583
3902 2 -0.296999 25.1077 8.03887
4100 1 6.77091 43.2454 9.32377
3973 2 5.18905 27.8317 5.42168
363 2 2.38606 27.846 2.35339
426 1 0.904144 31.713 3.88068
367 1 1.37948 31.9996 1.12633
374 2 5.19738 30.4896 2.65897
370 1 3.67832 29.0252 0.833341
3964 2 2.32735 30.6702 5.33556
371 1 3.99643 31.8938 1.06065
372 1 3.53034 32.2155 3.99616
3965 1 3.78502 29.3274 3.90372
3967 1 0.91235 29.023 3.83594
366 1 0.757083 28.9745 1.30661
377 1 6.60567 29.0996 1.36136
3911 1 3.76619 26.4308 6.84924
4025 1 0.962185 32.0887 6.68499
3969 1 3.91059 29.2997 6.73762
4169 1 12.4071 46.2434 6.63985
3966 1 1.02116 29.271 6.65393
376 2 8.01024 30.7319 -0.26254
567 2 13.5447 44.909 2.24443
561 1 9.41932 46.1769 0.448636
7501 2 -0.248714 22.0453 10.7744
378 1 6.43333 29.292 4.24823
380 1 6.68978 32.0148 4.10081
379 1 6.81308 31.9827 1.34756
331 1 11.924 28.1418 1.37228
3985 2 10.9559 27.9749 5.31045
375 2 8.00919 27.7867 2.72949
391 1 12.3322 32.2678 1.09041
386 2 11.0655 30.5941 2.21918
392 1 12.3856 32.318 3.92272
381 1 9.38272 29.1408 1.34739
382 1 9.20561 29.2116 4.06769
3976 2 8.0763 30.604 5.27787
383 1 9.5894 32.0339 1.02058
384 1 9.37903 32.0693 3.80656
3989 1 12.2103 29.3725 3.99461
7697 1 6.48705 40.568 12.1761
385 2 10.353 27.8225 -0.452481
422 2 -0.28926 36.0314 2.32178
433 2 5.24217 33.6712 -0.338945
484 2 2.45194 42.0139 -0.49557
4033 2 5.22301 33.4477 5.34735
425 1 1.05396 34.7602 1.06119
434 2 5.40428 36.4211 2.49628
429 1 3.90254 34.8503 1.14
423 2 2.45708 33.5141 2.44795
430 1 4.05596 34.8419 3.79781
4024 2 2.50732 36.3278 5.27843
428 1 1.16186 34.6966 3.8285
486 1 1.29486 37.5757 3.78957
427 1 1.23487 37.6167 0.897895
431 1 3.96838 37.7517 0.953787
432 1 3.97048 37.5922 3.58518
483 2 2.42223 39.0017 2.33059
4093 2 5.44661 39.2713 5.15765
4031 1 3.818 37.8197 6.37166
4029 1 3.81612 34.794 6.64732
440 1 6.86676 37.9965 3.7607
4085 1 0.992209 37.7988 6.67717
4039 1 6.61558 37.6504 6.78141
437 1 6.80374 34.8626 1.05819
4037 1 6.55656 34.8441 6.47391
4027 1 0.86595 35.0793 6.53403
439 1 6.61911 37.7876 0.821387
438 1 6.92415 35.036 3.8506
4045 2 10.8588 33.4437 5.19957
449 1 12.5244 34.9044 0.855555
450 1 12.3183 35.0802 3.92101
446 2 10.9219 36.3718 2.39433
441 1 9.57718 34.9765 0.986702
435 2 8.11315 33.4524 2.46232
442 1 9.544 34.7759 3.7061
4036 2 8.17951 36.3057 5.30335
509 1 12.194 37.75 1.05085
452 1 12.6138 37.7719 3.78129
443 1 9.41152 37.7304 1.20975
444 1 9.7075 37.5073 3.92814
4105 2 10.9976 39.0397 5.12339
495 2 7.92379 39.2294 2.17919
4041 1 9.39137 34.8754 6.61384
4043 1 9.68644 37.5998 6.74233
4051 1 12.389 37.8408 6.65995
4104 1 9.41836 43.4778 9.63305
4021 2 -0.377994 33.4501 5.22595
4150 1 3.87832 46.1631 9.17103
548 1 0.931154 46.0108 3.80763
4153 2 5.37321 44.7756 5.08448
485 1 1.14034 40.5399 0.886344
487 1 1.00429 43.2399 0.777319
494 2 5.27155 41.9462 2.29183
488 1 0.859788 40.484 3.80977
489 1 3.67919 40.6928 0.821449
543 2 2.48152 44.7495 2.44849
490 1 3.74059 40.4016 3.81184
491 1 3.85915 43.5159 0.992263
492 1 3.88043 43.4016 3.83463
482 2 2.43355 41.8412 5.09366
546 1 0.955574 43.3299 3.73492
500 1 7.05189 43.6296 3.90124
4099 1 6.72464 43.3719 6.48953
4097 1 6.67109 40.6116 6.56177
4091 1 3.96779 43.3755 6.61465
3901 2 -0.403063 22.1063 5.03941
4087 1 1.03833 43.2846 6.52564
4084 1 1.07521 40.541 6.64039
7561 2 -0.212995 27.8333 10.9156
545 1 1.02273 45.9912 0.649127
14718 1 9.10533 23.0328 0.191966
327 2 13.5866 22.1554 2.12169
498 1 6.53713 40.647 3.67352
499 1 6.45378 43.6065 1.06019
497 1 6.47059 40.7277 0.884766
4109 1 12.736 40.6527 6.90319
4165 2 10.7517 44.9035 5.05145
510 1 12.3412 40.4874 3.76947
511 1 12.3866 40.5011 1.11015
506 2 11.0493 42.0971 2.22187
501 1 9.44831 40.5322 0.721509
555 2 8.13353 44.8704 2.1205
502 1 9.19958 40.3315 4.05222
4096 2 8.1597 41.9985 5.07561
503 1 9.42049 43.4129 0.748695
504 1 9.61373 43.3135 3.47595
565 1 12.2973 43.3941 3.57862
569 1 12.3011 43.6133 0.836661
512 1 12.2105 43.4277 6.30589
4103 1 9.4724 43.6193 6.50716
4101 1 9.39514 40.4837 6.74052
445 2 10.8803 33.5566 -0.476105
4155 2 8.06018 44.8229 7.86268
373 2 5.43083 27.7735 -0.358593
7765 2 10.7694 45.1712 10.9776
505 2 10.798 39.2232 -0.362755
4161 1 9.46238 46.3163 6.50753
3859 1 3.97419 20.9274 6.50054
3909 1 4.05578 23.5727 6.67634
7743 2 2.36913 44.8578 13.6032
7499 1 0.775434 20.5353 12.0924
7513 2 5.08376 22.0912 10.9659
3906 1 1.1344 23.2952 9.39373
7447 1 3.48028 20.7535 12.0817
3914 2 5.17831 24.9611 8.06355
3860 1 3.83282 20.6618 9.49833
7509 1 1.02914 23.3139 12.2372
3903 2 2.50027 22.0716 7.8883
3910 1 3.92107 23.6221 9.76258
7504 2 2.61095 25.0175 11.0369
3852 1 0.79257 20.6238 9.26949
7517 1 3.76121 23.4185 12.4598
7519 1 6.3891 23.9543 12.0483
7459 1 6.62554 20.7485 9.26263
7711 1 12.1825 43.4959 11.7691
7451 1 6.37443 20.5967 11.9947
3918 1 6.85147 23.5752 9.1319
3907 1 0.877843 26.4499 6.51607
7507 1 1.03334 26.3279 12.2814
7511 1 3.75774 25.9755 12.5537
3908 1 1.06816 26.248 9.5667
3920 1 6.83075 26.4843 9.52367
3912 1 3.79387 26.5011 9.60984
553 2 5.20859 44.9201 -0.511291
3863 1 9.37061 20.4201 6.24585
3929 1 12.3391 23.5564 6.75715
3931 1 12.1739 26.536 6.63786
7515 1 9.63057 20.5931 11.9906
7525 2 10.9688 22.3196 10.9228
7529 1 12.4473 23.3987 12.2816
3930 1 12.2677 23.7371 9.5172
7471 1 12.4318 20.8479 12.4943
3926 2 10.8949 25.0236 7.90752
3872 1 12.1527 20.9531 9.48927
7521 1 9.78122 23.8148 12.0617
3915 2 7.99981 21.8452 7.889
3922 1 9.67873 23.4073 9.32433
7516 2 8.13845 24.9216 10.8012
7463 1 9.2943 20.4112 9.25456
7531 1 12.5026 26.3889 11.8739
3924 1 9.51232 26.3283 9.47816
7523 1 9.58997 26.5101 12.3096
3932 1 12.5271 26.6481 9.23004
4082 2 -0.436903 41.8711 7.90818
3971 1 3.79912 31.9248 6.79285
362 2 -0.448378 30.7226 2.39297
7569 1 1.20433 28.9585 12.2084
7573 2 5.52596 27.8658 10.9143
3963 2 2.29667 27.8735 7.98016
7565 1 1.15407 29.0077 9.53928
7567 1 1.44108 32.0395 12.3212
3974 2 5.30528 30.7543 8.17607
3968 1 0.980489 32.1126 9.43634
3970 1 3.97308 29.3039 9.65365
7564 2 2.64008 30.412 11.0505
7571 1 3.93297 28.9617 12.3281
3972 1 3.67483 32.1434 9.48236
7579 1 4.61402 31.8939 12.0843
7570 1 6.48801 29.704 12.1328
14732 1 12.4072 26.1517 -0.35612
3919 1 6.44101 26.5576 6.85906
4106 2 10.8128 41.9646 7.75155
3977 1 7.02778 29.2824 6.84353
3983 1 9.41789 32.0446 6.72954
3991 1 12.4104 32.2892 6.64054
3981 1 9.78157 29.1334 6.79826
3980 1 6.62557 31.9569 9.60951
3978 1 6.71128 29.2624 9.44739
3990 1 12.4989 29.3453 6.72828
7577 1 6.84602 26.6535 12.337
3979 1 6.46494 32.1323 6.79017