ITEM: TIMESTEP
50000
ITEM: NUMBER OF ATOMS
18000
ITEM: BOX BOUNDS xy xz yz pp pp pp
-1.4843196188376159e-01 2.8042431961883029e+01 0.0000000000000000e+00
-1.8589721374820727e+00 3.3658697213748769e+02 0.0000000000000000e+00
-1.5879671155903399e-01 2.8052796711558837e+01 0.0000000000000000e+00
ITEM: ATOMS id type x y z
1 1 1.33258 -0.469752 1.31013
2 1 4.21567 -0.457385 1.06009
3 1 4.28127 -0.803297 3.8897
4 1 1.45864 -0.174907 4.14898
5 1 1.35817 2.51497 1.06542
6 1 4.30808 2.42596 1.03212
7 1 3.98844 2.25154 3.78372
8 1 1.28608 2.47936 4.06672
9 1 6.94704 -0.585154 1.20287
10 1 9.89842 -0.621095 1.22713
11 1 9.77245 -0.407425 6.5291
12 1 9.94443 -0.211473 3.89004
13 1 7.0743 2.23647 1.01331
14 1 9.92672 2.25126 1.25133
15 1 9.99546 2.36415 3.87435
16 1 7.14116 2.53573 3.89008
17 1 12.7221 -0.583587 1.31674
18 1 12.6905 -0.386384 4.07296
19 1 12.5529 2.10885 0.891535
20 1 12.9765 2.5558 4.12171
21 1 1.43795 5.22934 1.28323
22 1 4.01562 5.17228 1.37482
23 1 4.31368 5.17685 4.2427
24 1 1.33961 5.41732 4.14124
25 1 1.47994 8.07988 1.26427
26 1 4.25968 7.99751 1.19706
27 1 4.03483 8.15577 4.16234
28 1 1.25314 8.02818 4.11525
29 1 7.00745 4.96676 1.16401
30 1 9.80141 5.05807 1.02095
31 1 9.86394 5.06594 3.85542
32 1 7.29784 5.23096 3.94533
33 1 7.04966 7.86084 1.17843
34 1 9.79772 7.93102 1.4945
35 1 9.5339 7.95921 4.44234
36 1 6.89023 8.10644 4.01012
37 1 12.6165 4.92889 1.29555
38 1 12.8547 5.09418 3.81808
39 1 12.5572 7.84156 0.999491
40 1 12.1516 8.03363 3.92921
41 1 1.42202 10.9055 1.14022
42 1 4.09251 10.9488 1.49092
43 1 4.13447 10.8469 4.04415
44 1 1.25593 10.8117 4.0804
45 1 1.2568 13.5197 0.927518
46 1 4.10344 13.8053 1.14233
47 1 4.30834 13.7788 3.85958
48 1 1.2439 13.864 4.13285
49 1 6.8903 10.7828 1.48676
50 1 9.86618 10.8164 1.25672
51 1 9.78017 10.8004 4.27545
52 1 6.9909 10.7902 4.15798
53 1 6.98448 13.5658 1.28133
54 1 9.79784 13.6901 1.19288
55 1 9.93443 13.4504 4.39743
56 1 7.08531 13.6601 4.11151
57 1 12.6552 10.6933 1.33592
58 1 12.673 10.7732 4.22785
59 1 12.4345 13.6266 1.40577
60 1 12.6655 13.5645 4.19552
61 1 1.43746 16.2516 1.40632
62 1 4.20122 16.6475 1.19576
63 1 4.09877 16.5329 4.06936
64 1 1.29302 16.467 4.22599
65 1 1.32684 19.1952 1.46198
66 1 4.10258 19.4901 1.34728
67 1 4.27954 19.2321 4.28916
68 1 1.11895 19.2366 4.31356
69 1 6.89077 16.6478 1.23637
70 1 9.82329 16.5372 1.43738
71 1 9.747 16.2629 4.25748
72 1 7.0165 16.4397 4.07869
73 1 6.87536 19.1308 1.41796
74 1 9.63439 22.0432 1.57059
75 1 9.93353 18.9725 4.17506
76 1 6.97869 19.2111 4.16095
77 1 12.783 16.3789 1.48552
78 1 12.4114 16.4617 4.34267
79 1 12.5706 21.9134 1.21486
80 1 12.446 19.2294 4.03618
81 1 1.13637 21.9499 1.30244
82 1 4.08436 22.3117 1.47888
83 1 4.17015 22.1103 4.36763
84 1 1.29971 22.1846 4.30237
85 1 6.96028 21.9766 1.23146
5636 1 7.17704 -0.345153 3.76596
87 1 9.74776 22.0077 4.2349
88 1 6.93219 21.9816 4.29271
12034 2 -0.0729149 17.7154 2.68349
90 1 12.4021 21.9894 4.03476
91 1 1.35171 -0.622657 6.93151
92 1 4.0252 -0.637558 7.07785
93 1 3.9121 -0.630958 9.69953
94 1 1.30394 -0.620398 9.66545
95 1 1.46806 2.2277 7.01134
96 1 4.08978 2.46664 6.93266
97 1 4.13073 2.35285 9.75279
98 1 1.47508 2.42156 9.83418
99 1 5.37356 0.803288 5.49626
100 1 7.02752 -0.474467 6.89214
101 1 9.81415 -0.442912 9.49285
102 1 6.76858 -0.225226 9.76573
103 1 6.92698 2.50814 7.09323
104 1 9.6404 2.50009 6.73275
105 1 9.70101 2.41435 9.75913
106 1 6.99813 2.38447 9.90996
107 1 12.6044 -0.301976 6.7913
108 1 12.4609 -0.480636 9.72076
109 1 12.5392 2.36372 6.98525
110 1 12.3455 2.0967 9.65424
111 1 1.27479 5.39084 6.89468
112 1 4.14605 5.31013 6.92961
113 1 4.19556 5.23609 9.91145
114 1 1.35806 5.15748 9.88099
115 1 1.29232 8.25946 7.02453
116 1 4.0568 8.23755 7.038
117 1 4.21164 8.19578 9.7022
118 1 1.33435 8.08786 9.74054
119 1 6.93824 5.19738 6.87859
120 1 9.89392 5.09214 6.81639
121 1 9.82861 5.18292 9.7523
122 1 6.91868 5.23331 9.64521
123 1 7.03068 7.87178 6.86506
124 1 9.86251 8.02211 6.95273
125 1 9.56448 7.89441 9.50089
126 1 7.05216 8.15088 9.80244
127 1 12.6358 5.01094 6.65661
128 1 12.6803 5.37791 9.55983
129 1 12.6136 7.79741 6.88242
130 1 12.4407 8.16859 9.88365
131 1 1.22353 11.185 6.90441
132 1 4.15733 10.8191 6.86974
133 1 4.21089 10.9055 9.74327
134 1 1.46699 10.8633 9.94909
135 1 1.39761 13.7248 6.99361
136 1 4.25726 13.6485 6.7761
137 1 4.21904 13.7195 9.63772
138 1 1.32366 13.6742 9.89144
139 1 7.08674 10.7125 6.90639
140 1 9.76668 11.0848 7.10245
141 1 9.898 10.925 9.78806
142 1 6.94923 10.9793 9.76107
143 1 6.97412 13.6529 6.93769
144 1 9.90186 13.7085 7.04985
145 1 9.75561 13.6995 9.91226
146 1 6.98107 13.7653 9.73407
147 1 12.5746 10.7607 7.16735
148 1 12.6301 11.1404 9.80896
149 1 12.7148 13.6294 7.10636
150 1 12.6039 13.8612 10.0954
151 1 1.31585 16.5076 6.90843
152 1 4.27126 16.4546 6.93968
153 1 4.16893 16.3942 9.7113
154 1 1.5826 16.5367 9.64314
155 1 1.37361 19.2489 7.09855
156 1 4.00566 19.2495 7.02965
157 1 4.12373 19.0428 9.75183
158 1 1.21645 19.3464 9.85441
159 1 6.97846 16.5347 6.88334
160 1 9.89512 16.5763 6.9163
161 1 9.97947 16.4437 9.82366
162 1 7.15571 16.4817 9.66963
163 1 7.06729 19.1992 6.82015
164 1 9.76039 19.3713 7.04677
165 1 9.74174 19.1436 9.87659
166 1 6.78255 19.3134 9.60042
167 1 12.801 16.5269 7.06543
168 1 12.8244 16.5708 9.91945
169 1 12.6894 19.2767 6.78025
170 1 12.5629 19.2429 9.64997
171 1 1.21641 21.927 6.95828
172 1 3.97776 21.9941 7.15863
173 1 4.13467 21.9181 9.96118
174 1 1.22516 22.0134 9.939
175 1 6.96267 21.9498 7.18811
176 1 9.95326 22.4119 6.82524
177 1 9.72353 21.8575 9.60811
178 1 6.92416 22.1084 10.0343
179 1 12.6151 21.9743 6.80755
180 1 12.8504 21.9213 9.69994
181 1 1.41469 -0.814547 12.5222
182 1 4.23316 -0.4768 12.4963
183 1 1.42042 2.18977 12.4709
184 1 4.41062 2.35843 12.4803
185 1 7.09788 -0.471919 12.5866
186 1 9.6814 -0.445858 12.3868
187 1 7.0072 2.45728 12.5677
188 1 9.82396 2.35046 12.7021
189 1 12.7172 -0.403109 12.5076
190 1 12.6057 2.32926 12.5147
191 1 1.14347 5.17238 12.6328
192 1 4.01397 5.28192 12.6016
193 1 1.34768 8.09882 12.6034
194 1 4.41433 8.07734 12.5648
195 1 6.99849 5.25778 12.5117
196 1 9.84714 5.13187 12.5603
197 1 7.14827 8.06368 12.582
198 1 9.90968 8.03629 12.6232
199 1 12.6363 5.04938 12.402
200 1 12.6841 8.11797 12.5205
201 1 1.58813 10.9923 12.6632
202 1 4.23963 10.8748 12.5187
203 1 1.10581 13.721 12.6088
204 1 4.08476 13.8763 12.5637
205 1 7.08865 10.8845 12.6419
206 1 9.81647 10.7868 12.5863
207 1 6.92506 13.5443 12.3771
208 1 9.807 13.6998 12.6316
209 1 12.802 10.878 12.613
210 1 12.5005 13.7654 12.6454
211 1 1.48224 16.4726 12.5571
212 1 4.16295 16.5042 12.6142
213 1 1.30881 19.2958 12.6812
214 1 4.1531 19.4008 12.6003
215 1 7.13057 16.3034 12.4936
216 1 9.84126 16.5632 12.5871
217 1 6.96719 19.1264 12.7223
218 1 9.94716 19.2291 12.6894
219 1 12.8238 16.5038 12.6667
220 1 12.6184 19.2773 12.4173
221 1 1.20431 22.1538 12.6162
222 1 4.06702 22.0723 12.7326
223 1 6.88332 21.7859 12.7317
224 1 9.8623 21.8495 12.6231
225 1 12.5367 22.1674 12.4915
6063 1 12.5651 19.1389 1.27437
12111 2 0.00543237 9.43537 11.2665
12025 2 5.55843 9.52392 -0.0340821
12081 2 -0.103309 15.093 5.76551
12049 2 11.1314 20.5194 -0.169582
12059 2 11.2692 -1.71593 5.33187
12106 2 -0.0492067 3.62093 11.0972
12008 2 5.57854 0.851464 2.67906
12021 2 0.0895358 9.51429 -0.134169
12010 2 11.2903 0.89745 2.55298
12125 2 11.2374 20.5113 11.1053
12116 2 0.0347652 15.145 11.0932
12013 2 2.77203 3.6942 2.69883
12124 2 8.57528 23.314 11.1954
12039 2 11.3205 15.0151 -0.041834
12129 2 5.74126 0.940672 13.7633
12017 2 8.50066 3.5794 2.48629
12018 2 5.61431 6.4899 2.59737
12024 2 -0.0451708 12.2276 2.83417
12020 2 11.2323 6.3081 2.59762
12113 2 5.71608 9.50001 11.1783
12104 2 8.45338 0.891777 11.0657
12023 2 2.69031 9.31407 2.65645
12074 2 -0.0861452 12.2006 8.41784
12130 2 11.4173 0.817089 13.7611
12107 2 2.77503 6.72684 11.2449
12027 2 8.54501 9.30213 2.77834
12028 2 5.56892 12.1438 2.75388
12044 2 -0.0250608 23.3997 2.64588
12030 2 11.258 11.983 2.8214
12102 2 2.7439 0.78667 11.1166
12114 2 8.40014 12.1523 11.1225
12033 2 2.73956 15.1704 2.88488
12014 2 -0.0346942 6.61952 2.66982
12100 2 11.2603 23.3465 8.40705
12099 2 11.1168 20.6072 5.46686
12037 2 8.49836 15.0377 2.67036
12038 2 5.4724 17.8539 2.68592
12098 2 5.49467 23.4067 8.61133
12040 2 11.3124 17.8674 2.75548
12097 2 8.19377 20.4567 8.33795
12055 2 5.7557 -1.74854 5.45403
12043 2 2.72834 20.6616 2.9617
12123 2 5.60593 20.5604 11.2446
12096 2 8.40071 23.4634 5.49207
12095 2 5.51365 20.641 5.819
12047 2 8.22835 20.399 2.76502
12048 2 5.53467 23.4048 2.92139
12115 2 11.3963 9.62469 11.1285
12050 2 11.1614 23.3907 2.73543
12054 2 0.0420067 0.796479 8.1449
12052 2 3.10679 0.709301 5.3778
12112 2 2.7199 12.345 11.3293
12122 2 2.74237 23.4104 11.1665
12110 2 11.1148 3.66212 11.1489
12056 2 8.17859 0.909662 5.44785
12109 2 8.35831 6.53457 11.1884
12058 2 5.53033 0.892561 8.12878
12108 2 5.57815 3.68035 11.0568
12060 2 11.1725 0.81821 8.17209
12120 2 11.2537 15.0526 11.361
12062 2 2.88564 6.69808 5.51459
12063 2 2.83305 3.64321 8.40621
12119 2 8.39306 17.8272 11.1867
12065 2 5.57241 3.52523 5.44694
12066 2 8.29993 6.37073 5.49459
12067 2 8.51007 3.7589 8.3767
12068 2 5.49946 6.55309 8.3382
12069 2 11.2786 3.71797 5.34411
12070 2 11.1065 6.55103 8.38154
12091 2 -0.106212 20.6569 5.64794
12072 2 2.74736 12.1712 5.48429
12073 2 2.77131 9.52342 8.51486
12118 2 5.56146 15.0137 11.1354
12075 2 5.74353 9.39321 5.58604
12076 2 8.31789 12.1753 5.59045
12077 2 8.54523 9.4795 8.26181
12078 2 5.50018 12.2454 8.33713
12079 2 11.0627 9.29645 5.42008
12080 2 11.163 12.4431 8.45437
12131 2 2.65551 3.77398 13.6523
12082 2 2.74558 17.863 5.72727
12083 2 2.68216 15.1802 8.25518
12117 2 2.69231 17.9832 11.2198
12085 2 5.66269 15.135 5.38355
12086 2 8.48165 17.7432 5.52461
12087 2 8.49945 15.1974 8.35474
12088 2 5.64491 17.8233 8.22857
12089 2 11.1764 14.9595 5.55667
12090 2 11.1216 17.7848 8.27994
12128 2 8.53437 -1.77462 13.9592
12092 2 2.75263 23.3848 5.74348
12093 2 2.61741 20.5132 8.4976
440 1 9.82049 19.4185 1.46421
12071 2 -0.0737243 9.36205 5.44525
12042 2 2.66497 23.5184 -0.0840492
12041 2 0.0811079 20.5396 -0.091453
12126 2 2.99894 -1.77626 13.955
12051 2 -0.0184897 -1.8842 5.40602
12026 2 8.41117 12.2092 -0.0606677
12140 2 11.2158 12.1224 13.9279
12016 2 8.42098 6.486 -0.0931367
12031 2 0.0712646 15.0132 -0.14567
12064 2 -0.115393 6.65133 8.2929
15062 2 13.8401 3.88816 8.32674
12084 2 -0.0734217 17.9604 8.47948
15072 2 13.9267 9.36085 8.29582
12004 2 -0.128412 0.957295 2.70803
12061 2 0.228756 3.89247 5.48649
12135 2 11.2404 6.55964 13.9646
12032 2 2.68268 17.8782 -0.0662
12094 2 -0.0915698 23.5861 8.28632
12036 2 8.47437 17.8736 -0.136709
12127 2 0.0310388 0.731661 13.822
15042 2 13.8988 20.627 2.65581
15022 2 13.8022 9.24732 2.69
12002 2 2.68188 0.980148 -0.0578975
12001 2 0.0942264 -1.91741 0.0463781
12035 2 5.52325 15.0249 0.0202923
12046 2 8.22865 23.4201 -0.0221179
12139 2 5.77986 12.2756 13.8679
12006 2 8.5375 0.76172 -0.165363
226 1 4.34812 -0.452879 15.4151
227 1 1.35309 -0.577696 15.2479
228 1 3.98435 2.49383 15.3219
229 1 1.27409 2.21809 15.0831
230 1 9.95768 -0.41248 15.3001
231 1 7.11455 -0.409785 15.55
232 1 9.93378 2.27153 15.5117
233 1 6.87098 2.41353 15.1685
234 1 12.7028 -0.557006 15.2531
235 1 12.7902 2.41692 15.2367
236 1 4.14371 5.19461 15.1869
237 1 1.36292 5.3964 15.3695
238 1 4.30583 8.20833 15.4918
239 1 1.46613 8.23186 15.4475
240 1 9.8629 5.12432 15.3671
241 1 7.03144 5.28844 15.3026
242 1 9.8143 7.86429 15.4972
243 1 7.17327 8.18049 15.4265
244 1 12.8071 5.28326 15.1234
245 1 12.6511 7.99732 15.285
246 1 4.08285 10.9973 15.3512
247 1 1.38185 10.8464 15.4717
248 1 4.32043 13.5519 15.5334
249 1 1.5203 13.8591 15.3672
250 1 9.65798 10.8081 15.4096
251 1 6.91089 11.0348 15.3468
252 1 9.84688 13.4851 15.4777
253 1 7.25218 13.7062 15.3782
254 1 12.5091 10.8666 15.4517
255 1 12.7661 13.6466 15.4113
256 1 4.14997 16.4022 15.3483
257 1 1.4676 16.5598 15.4971
258 1 4.13219 19.0839 15.39
259 1 1.39472 19.553 15.4578
260 1 9.81274 16.4538 15.3994
261 1 6.96763 16.3812 15.2831
262 1 9.98016 19.3639 15.2858
263 1 6.91562 19.3224 15.4493
264 1 12.4951 16.4931 15.6095
265 1 12.669 19.2208 15.2555
266 1 4.16201 21.9428 15.3916
267 1 1.1574 22.2964 15.5499
268 1 9.63261 22.1883 15.3825
269 1 7.01852 22.214 15.5187
270 1 12.6647 22.1104 15.2219
271 1 1.39545 -0.287049 18.086
272 1 4.11621 -0.443962 18.0568
273 1 4.19986 -0.515515 20.7047
274 1 1.54781 -0.392903 20.8663
275 1 1.48733 2.44786 17.9927
276 1 4.22997 2.39155 18.0853
277 1 4.03599 2.5004 20.8822
278 1 1.4177 2.39903 20.84
279 1 7.10971 -0.320284 18.409
280 1 9.96959 -0.282112 18.1116
281 1 9.88635 -0.311578 21.0428
282 1 7.02195 -0.442691 20.9664
283 1 7.2774 2.41842 18.0419
284 1 10.0427 2.41602 18.2507
285 1 9.84696 2.57628 21.0556
286 1 6.82465 2.31187 20.7395
287 1 12.7779 -0.532788 18.1876
288 1 12.6873 -0.335165 20.927
289 1 12.8725 2.24479 18.0987
290 1 12.8354 2.50012 20.9639
291 1 1.17205 5.08485 18.0113
292 1 4.12786 5.18352 18.1186
293 1 4.1654 5.23612 20.8954
294 1 1.45954 5.15242 20.894
295 1 1.2948 7.82583 18.3003
296 1 4.00411 8.04751 18.2987
297 2 5.69527 6.49074 22.3539
298 1 1.15976 7.89713 20.9452
299 1 6.78789 5.40931 18.1349
300 1 9.64149 5.2174 18.1324
301 1 9.79358 5.35993 20.8471
302 1 7.07001 5.13554 21.1207
303 1 6.85692 8.12845 18.1686
304 1 9.92722 7.91724 18.4221
305 1 9.57544 8.32299 21.2782
306 1 6.86223 7.87521 20.853
307 1 12.616 5.03958 18.0556
308 1 12.5273 5.1586 20.7044
309 1 12.7772 7.83885 18.144
310 1 12.4314 8.10664 20.886
311 1 1.43754 10.8351 18.1368
312 1 4.22821 10.6789 18.2753
313 1 4.059 7.90555 21.3299
314 1 1.26435 10.8561 21.0452
315 1 1.28463 13.6239 18.3414
316 1 4.20253 13.5432 18.3417
317 1 4.13482 10.7858 20.9149
318 1 1.47464 13.9019 21.0122
319 1 7.15376 11.1713 18.2709
320 1 9.79841 10.8042 18.2001
321 1 9.74529 11.2214 21.0817
322 1 6.98077 10.7661 21.1461
323 1 6.93522 13.8174 18.184
324 1 9.87349 13.6478 18.3027
325 1 7.45366 13.7069 20.97
326 1 4.1905 13.8155 20.906
327 1 12.644 10.7667 18.2042
328 1 12.5214 10.8325 21.0335
329 1 12.7525 13.6501 18.1513
330 1 12.6612 13.6185 21.0779
331 1 1.42777 16.5195 18.2455
332 1 4.22719 16.4724 18.2267
333 1 4.02805 16.5981 21.0612
334 1 1.00124 16.5638 21.0553
335 1 1.14659 19.4783 18.2325
336 1 4.05114 19.1894 18.237
337 1 4.21828 19.4318 21.0759
338 1 1.43172 19.2242 21.1688
339 1 7.03964 16.6648 18.0369
340 1 9.89426 16.2889 18.0625
341 1 9.78288 19.2542 21.0191
342 1 6.99323 16.4759 21.0729
343 1 6.76818 19.3887 18.1177
344 1 9.44986 19.1325 18.2038
345 1 9.7376 19.1899 24.0035
346 1 7.13809 19.2671 20.916
347 1 12.6311 16.48 18.6979
348 1 12.6432 19.301 21.1445
349 1 12.5272 19.2532 18.1498
350 1 12.5842 21.9013 20.9787
351 1 1.40033 22.2229 18.2243
352 1 4.21632 22.1648 18.0628
353 1 4.22401 22.0707 20.974
354 1 1.48391 22.3008 20.9583
355 1 6.9489 22.1664 18.0692
356 1 9.73007 22.1047 18.3021
357 1 9.73017 22.1461 20.9027
358 1 6.97811 22.076 20.9642
359 1 12.5415 22.2807 18.127
360 1 12.4568 22.0719 23.5926
361 1 1.43593 -0.459568 23.897
362 1 4.32809 -0.600786 23.5979
363 1 4.21854 -0.424947 26.4903
364 1 1.40941 -0.533637 26.8719
365 1 1.32324 2.30004 23.6676
366 1 4.12984 2.19483 23.83
367 1 4.18555 2.27904 26.507
368 1 1.41713 2.39974 26.5601
369 1 7.05884 -0.36518 23.7635
370 1 9.78631 -0.423118 23.9926
371 1 10.034 -0.662033 26.6162
372 1 7.1275 -0.470872 26.6577
373 1 7.05075 2.45673 23.5327
374 1 9.9932 2.21929 23.7361
375 1 9.82289 2.18567 26.5197
376 1 7.18626 2.35559 26.3698
377 1 12.6924 -0.60638 23.5731
378 1 12.8054 -0.473854 26.7412
379 1 12.8019 2.33149 23.7327
380 1 12.7696 2.23977 26.4807
381 1 1.49312 5.02332 23.7026
382 1 4.44116 4.9675 23.6593
383 1 4.33304 5.00208 26.5613
384 1 1.33549 5.13201 26.6414
385 1 1.65431 7.97556 23.6147
386 1 4.35288 7.77443 23.9474
387 1 4.11519 8.05765 26.5749
388 1 1.43587 8.00965 26.5047
389 1 7.12463 5.32303 23.6123
390 1 10.0258 4.96838 23.8225
391 1 9.83272 5.11149 26.244
392 1 7.02053 5.15959 26.4962
393 1 7.01155 7.93884 23.6821
394 1 9.98766 8.03919 24.03
395 1 9.71225 7.82839 26.8316
396 1 6.78303 7.87405 26.6905
397 1 12.7965 5.05653 23.6297
398 1 12.6622 5.02654 26.6541
399 1 12.6682 7.87137 23.6097
400 1 12.7028 7.92798 26.5089
401 1 1.45265 10.756 23.7739
402 1 4.1824 10.7194 23.9605
403 1 4.35724 10.9304 26.7133
404 1 1.44994 10.9627 26.6013
405 1 1.0762 13.5422 23.6971
406 1 4.01798 13.7521 23.5634
407 1 4.24558 13.6633 26.598
408 1 1.33187 13.6996 26.443
409 1 6.9805 10.7292 23.9288
410 1 9.80067 10.8148 23.9363
411 1 9.76887 10.6587 26.8017
412 1 7.15525 10.7882 26.6674
413 1 6.61427 13.4156 23.7543
414 1 9.64551 13.45 23.9917
415 1 9.92671 13.3781 26.7387
416 1 7.07464 13.5915 26.7457
417 1 12.7116 10.593 23.8921
418 1 12.634 10.743 26.5915
419 1 12.6926 13.5859 24.0808
420 1 12.8862 13.6722 26.9106
421 1 1.45082 16.5235 23.8457
422 1 4.12291 16.535 23.9808
423 1 4.02218 16.5516 26.6634
424 1 1.09008 16.6618 26.7505
425 1 1.18278 19.4812 23.9447
426 1 4.30173 19.3245 23.9887
427 1 4.26719 19.2923 26.6757
428 1 1.66287 19.2593 26.852
429 1 6.81375 16.4031 23.8422
430 1 9.62885 16.517 24.0706
431 1 9.85556 16.2434 26.7191
432 1 6.98916 16.4535 26.7867
433 1 6.97207 19.2377 23.6936
434 1 12.6067 19.289 26.6592
435 1 9.81455 19.0955 26.8576
436 1 7.0959 19.3947 26.5546
437 1 12.8362 16.6722 23.9477
438 1 12.5936 16.5681 26.7896
439 1 12.5253 19.2841 23.8703
12241 2 0.0608289 20.6973 22.3894
441 1 1.6282 22.1997 23.7354
442 1 4.2179 22.1513 23.8607
443 1 4.22463 22.1203 26.8406
444 1 1.53022 22.0172 26.7085
445 1 7.05281 22.0033 23.9161
446 1 9.84291 22.1906 23.6911
447 1 9.74822 22.0359 26.76
448 1 7.04178 22.0933 26.7744
12141 2 2.65559 15.0592 13.9528
450 1 12.5357 22.1441 26.46
12224 2 -0.0528277 12.2253 25.1693
12250 2 11.1592 23.5 25.1092
12214 2 0.00837399 6.46541 25.2295
12221 2 0.0391794 9.3713 22.3189
12138 2 8.4721 9.37624 13.9177
12227 2 8.47361 9.25313 25.3753
12249 2 11.0533 20.6531 22.4311
12226 2 8.28136 12.0761 22.5771
12225 2 5.46029 9.7786 22.4782
15231 2 14.0336 17.99 22.555
12223 2 2.69093 9.37944 25.2198
12248 2 5.57112 23.5388 25.1802
12222 2 2.62377 12.4577 22.369
12228 2 5.42921 12.1547 25.2286
12194 2 -0.177013 23.6272 19.6247
12220 2 11.5059 6.44191 25.1412
12247 2 8.49992 20.6829 25.2367
12149 2 5.55519 23.4454 13.9391
12153 2 2.81033 -1.72597 19.5604
12155 2 5.72855 -1.80042 16.7622
12219 2 11.31 3.66838 22.4122
12246 2 8.25776 23.5518 22.415
15241 2 14.0016 23.4759 22.4169
12218 2 5.65719 6.50797 25.3783
12211 2 -0.0237279 3.60937 22.4302
12245 2 5.7582 20.6875 22.2774
12152 2 2.83417 0.919716 16.5819
12146 2 2.69364 20.712 14.0343
12243 2 2.85715 20.6377 25.2829
12157 2 8.46523 -1.86138 19.611
12156 2 8.51447 0.91736 16.7432
12244 2 0.17259 23.4153 25.2983
12158 2 5.4694 0.905586 19.4419
12216 2 8.82555 6.56718 22.4264
12160 2 11.3668 1.03488 19.5215
12242 2 2.84797 23.4831 22.3453
12162 2 2.81666 6.58213 16.6779
12163 2 2.66055 3.85133 19.3637
12240 2 11.3033 17.5963 25.2795
12165 2 5.49016 3.66563 16.5956
12166 2 8.39067 6.59651 16.802
12167 2 8.54914 3.70737 19.442
12168 2 5.4291 6.61488 19.3579
12169 2 11.3258 3.65488 16.6049
12170 2 11.2557 6.43411 19.4304
12239 1 9.86766 16.3097 20.7843
12172 2 2.73052 12.2963 16.744
12173 2 2.74942 9.39669 19.5075
12238 2 5.69422 17.9159 25.4081
12175 2 5.6443 9.64119 16.7031
12176 2 8.40671 12.18 16.8161
12177 2 8.37636 9.41415 19.6302
12178 2 5.71319 12.4108 19.7437
12179 2 11.2043 9.24497 16.8368
12180 2 11.3717 12.2218 19.4447
12237 2 8.60419 14.8935 25.3085
12182 2 2.75477 17.868 16.8688
12183 2 2.5897 15.1102 19.5306
12236 2 8.51778 17.6992 22.4909
12185 2 5.53898 15.0884 16.8534
12186 2 8.41347 17.8746 16.6398
12187 2 8.39257 15.2491 19.5042
12188 2 5.54851 17.9062 19.4628
12189 2 11.2138 14.9162 16.7692
12190 2 10.9797 17.9565 19.4423
12235 2 5.5621 15.0681 22.4423
12192 2 2.73892 23.6575 16.8918
12193 2 2.83962 20.6924 19.4898
12203 2 2.85853 -1.83133 25.2332
12195 2 5.53319 20.6402 16.6763
12196 2 8.4743 23.4732 16.8278
12197 2 8.28794 20.7024 19.5117
12198 2 5.43548 23.5347 19.4484
12199 2 11.2914 20.8516 16.7088
12200 2 11.1279 23.4919 19.6041
12233 2 2.75617 15.2322 25.3356
12202 2 2.78559 0.90088 22.3245
12137 2 0.073365 12.1461 14.1148
12232 2 2.83716 17.842 22.4413
12204 2 0.146412 0.662114 25.4366
12206 2 8.54817 0.982089 22.3046
12217 2 8.58177 3.78185 25.1953
12208 2 5.72819 0.797711 25.1516
12181 2 -0.119572 15.1056 16.9156
12210 2 11.2117 0.802817 25.1271
12230 2 11.3297 12.2636 25.3224
12212 2 2.48727 6.46082 22.2105
12213 2 2.80621 3.57296 25.1986
12229 2 11.3119 9.5637 22.3183
12215 2 5.53764 3.28545 22.2271
12159 2 11.4673 -1.96336 16.6612
12154 2 -0.0058083 1.01077 19.5262
12150 2 11.2193 23.3656 13.9052
12143 2 8.5243 15.1324 14.032
12161 2 -0.034907 3.66495 16.541
15221 2 14.0116 12.0179 22.5318
12231 2 -0.120299 15.0171 22.4306
12144 2 5.4051 17.7268 13.9416
12191 2 -0.0515346 20.7421 16.9251
12045 2 5.71848 20.6263 27.9747
12145 2 11.2579 17.8418 13.8856
15181 2 13.951 17.8459 16.7823
12019 2 11.2094 3.63813 28.0012
12147 2 -0.167917 23.4187 13.895
12134 2 5.81819 6.56605 14.011
12022 2 2.84755 12.3131 27.9313
12029 2 11.3699 9.28616 27.9304
12015 2 5.68708 3.61887 27.8669
12136 2 2.90567 9.40826 14.0467
12012 2 2.8537 6.51389 28.0277
12133 2 8.44544 3.68169 13.9562
15031 2 13.9559 17.8747 28.0726
12011 2 -0.00876557 3.78646 27.8955
12148 2 8.44143 20.5178 14.0056
15041 2 13.9118 23.3991 28.0133
451 1 1.34264 24.8912 1.51804
452 1 4.13648 25.0706 1.24175
453 1 4.14061 24.9272 4.162
454 1 1.19889 24.9706 4.31283
455 1 6.89354 24.8603 1.30636
456 1 9.46621 27.5656 1.55913
457 1 9.71487 24.9484 3.81612
458 1 6.83318 24.7667 4.05544
459 1 12.3744 27.623 1.28437
460 1 12.5632 24.599 4.09276
461 1 1.31861 27.5432 1.41767
462 1 3.97801 27.919 1.24952
463 1 3.98238 27.758 3.92138
464 1 1.14748 27.8553 4.17585
510 1 10.1154 39.467 -0.0219015
466 1 4.26519 30.7301 1.47786
467 1 4.20405 30.4037 4.2691
468 1 1.52514 30.8595 4.70153
469 1 6.97718 27.7614 1.52935
470 1 9.64304 30.2825 1.70284
471 1 9.77443 27.4638 4.33987
472 1 6.82257 27.5949 4.25046
473 1 6.98391 30.4517 1.27988
474 1 8.76113 34.8806 2.71255
475 1 10.2712 30.1388 4.27415
476 1 7.08644 30.4916 4.17107
477 1 9.76816 32.8802 1.17256
478 1 12.6856 27.3796 4.36965
479 2 11.3306 31.6001 2.5706
480 1 12.8329 30.1438 3.73985
481 1 1.27462 33.3308 1.38432
482 1 4.07059 36.0719 1.46607
483 1 4.01506 33.3347 4.06636
484 1 1.51073 30.5529 1.36989
12276 2 8.11849 40.8516 -0.00562173
12266 2 8.6056 34.4652 0.165489
487 1 4.05256 36.2361 4.20874
488 1 1.3295 36.2433 1.31673
489 1 6.80764 33.4193 1.28034
15317 2 13.8855 37.7027 8.4235
491 1 9.96608 32.8256 4.08271
492 1 6.6738 33.2399 4.13132
493 1 6.78496 36.4996 0.746138
12293 2 5.46793 48.8065 0.0963395
495 1 11.184 37.5396 2.9067
496 1 6.85807 36.2414 3.99131
497 1 12.5106 33.2569 1.3753
498 1 12.7081 32.8999 4.07736
499 1 12.8852 36.255 1.32956
500 1 12.6411 35.9328 4.40255
501 1 1.38467 38.9825 1.47131
502 1 4.21757 39.1079 1.4428
503 1 4.14729 39.1681 4.01274
504 1 1.37263 39.1629 4.19427
505 1 1.43967 41.8519 1.35133
506 1 4.36883 41.9032 1.44626
507 1 4.0917 41.8566 4.24539
508 1 1.13842 42.0147 3.97754
509 1 7.83108 39.0595 1.4948
12284 2 -0.0741794 46.1072 2.74407
511 1 9.69821 39.3054 4.28343
512 1 6.87224 38.9013 4.06162
513 1 6.97033 42.0671 1.44647
514 1 9.75527 41.8096 1.51318
515 1 9.5777 41.9816 7.03047
516 1 6.93988 41.7749 4.36984
517 1 12.5863 39.1476 1.29312
518 1 12.7868 39.1537 4.2692
519 1 12.6596 41.8561 1.28927
520 1 12.5108 41.9815 4.03856
521 1 1.3637 44.7193 1.50326
522 1 4.19286 44.8225 1.56972
523 1 4.22613 44.5736 4.20205
524 1 1.5165 44.6063 4.33094
525 1 1.34972 47.6199 1.57442
526 1 4.02797 47.5665 1.51627
527 1 4.15563 47.4982 4.31793
528 1 1.26328 47.5608 4.17406
529 1 7.00443 44.7721 1.40943
530 1 9.76479 44.8311 1.34795
531 1 9.98351 44.7821 4.18233
532 1 7.00478 44.7766 4.30911
533 1 6.8638 47.5766 1.35915
534 1 9.7474 47.5479 1.31831
535 1 9.65659 47.6271 4.14016
536 1 6.90742 47.513 4.19588
537 1 12.4616 44.637 1.2824
538 1 12.8038 44.9039 4.03753
539 1 12.6132 47.656 1.53919
540 1 12.6872 47.7096 4.29529
541 1 1.40566 25.0093 6.90009
542 1 4.23901 24.6841 7.01786
543 1 4.28492 24.8656 9.8913
544 1 1.37398 24.7724 9.63881
545 1 6.90904 24.8861 7.00343
546 1 9.60229 24.964 6.79594
547 1 9.8809 24.7057 9.83118
548 1 7.1341 24.8194 9.88876
549 1 12.677 24.9566 7.03774
550 1 12.597 24.8461 9.70037
551 1 1.39695 27.8128 6.98607
552 1 4.24903 27.7409 6.89258
553 1 4.08066 27.8075 9.73806
554 1 1.51135 27.6189 10.159
555 1 1.63472 32.882 6.90878
556 1 4.08311 30.5044 7.20822
557 1 4.21038 30.6655 10.1538
558 1 1.45059 30.8694 9.96423
559 1 7.09506 27.4907 6.93326
560 1 9.81751 27.5368 7.16388
561 1 9.84668 27.4403 9.89253
562 1 6.95995 27.5595 10.0613
563 1 7.03252 30.4668 6.98778
564 1 9.80293 30.5851 7.0899
565 1 9.71123 30.3109 9.9452
566 1 6.90631 30.3697 9.90295
567 1 12.7247 27.7585 7.10646
568 1 12.5842 27.6175 9.81804
569 1 12.7486 30.6654 6.61718
570 1 12.502 30.5555 9.61482
571 1 1.19523 35.997 6.86602
572 1 4.45422 33.4347 7.13354
573 1 4.27049 33.5026 9.77993
574 1 1.21717 33.5817 9.84995
575 1 1.14177 36.3219 4.0968
576 1 3.94526 36.2916 6.82319
577 1 4.33015 36.4327 9.7648
578 1 1.55641 36.1958 9.60461
579 1 7.10375 33.1286 7.02527
580 1 9.86888 33.7406 6.61469
581 1 9.88284 33.0472 9.51718
582 1 7.15607 33.0139 9.97513
583 1 6.77774 36.0109 6.79538
584 1 9.59735 36.3555 4.82824
585 1 9.92101 35.9098 9.60333
586 1 6.91905 35.9945 9.90846
587 1 12.6362 33.4591 6.88977
588 1 12.9872 33.21 9.96331
589 1 12.4202 36.3006 7.20629
590 1 12.6343 36.1049 9.95003
591 1 1.16383 38.9797 7.00491
592 1 3.95096 39.1534 6.99089
593 1 3.62455 39.061 9.70958
594 1 1.18819 38.8834 9.86936
595 1 1.2392 42.0073 6.89421
596 1 3.87513 41.9953 6.99426
597 1 4.05745 41.8909 9.74807
598 1 1.31955 41.9018 9.70171
599 1 6.55248 39.3148 6.97605
600 1 9.86628 42.0389 4.29608
601 1 10.0216 39.1698 10.3304
602 1 6.77355 39.4775 10.1549
603 1 6.66108 42.037 7.05322
604 1 9.75896 42.0576 9.98028
605 1 9.91145 41.9947 12.8971
606 1 6.85447 42.0686 9.88546
607 1 12.4478 39.2744 6.99716
608 1 12.7236 38.9528 9.65186
609 1 12.6293 42.1406 7.03615
610 1 12.5252 41.9564 9.81399
611 1 1.31998 44.8534 7.01604
612 1 4.08569 44.8698 7.06503
613 1 4.02146 44.9156 9.91465
614 1 1.34853 44.7033 9.81811
615 1 1.17831 47.6305 7.08285
616 1 4.00954 47.4477 6.96627
617 1 4.06228 47.7219 9.82347
618 1 1.18804 47.5827 9.95565
619 1 6.87165 44.7643 7.06085
620 1 9.85086 44.5735 7.05841
621 1 9.43736 44.8112 9.69806
622 1 6.7819 44.952 9.89303
623 1 6.85912 47.5936 7.08653
624 1 9.64025 47.5429 6.98339
625 1 9.76384 47.7346 9.75585
626 1 6.7823 47.7031 9.78943
627 1 12.641 44.9182 7.04208
628 1 12.4659 44.9427 9.76332
629 1 12.4068 47.6227 6.93807
630 1 12.5984 47.6902 9.70052
631 1 1.52681 25.1238 12.4806
632 1 4.26117 24.8094 12.4646
633 1 7.02464 24.7444 12.6544
634 1 9.97155 24.6881 12.6243
635 1 12.7133 24.9181 12.5912
636 1 1.23021 27.8693 12.6706
637 1 4.09323 27.8175 12.6534
638 1 1.63972 30.6486 12.7615
639 1 4.25801 30.6997 12.9482
640 1 6.98952 27.5055 12.7982
641 1 9.8185 27.8318 12.7265
642 1 7.00346 30.4723 12.7554
643 1 9.7523 30.4525 12.6721
644 1 12.5458 27.7095 12.5792
645 1 12.5316 30.3315 12.7874
646 1 1.46044 33.375 12.6824
647 1 4.31245 33.6069 12.4599
648 1 1.44934 36.3137 12.5705
649 1 4.20226 36.3131 12.7027
650 1 6.97573 33.3406 12.6533
651 1 9.65658 33.213 12.483
652 1 6.99163 36.1989 12.7457
653 1 9.53822 36.2113 12.506
654 1 12.4206 33.3232 12.527
655 1 12.4421 36.3198 12.7473
656 1 1.3294 39.2304 12.5576
657 1 4.0031 39.1616 12.5688
658 1 1.26347 41.9108 12.5851
659 1 4.11766 41.9388 12.5647
660 1 6.80871 39.0662 12.7071
661 1 9.75792 39.1479 12.8731
662 1 6.98314 41.7704 12.5845
663 1 12.5222 41.804 12.5035
664 1 12.581 39.011 12.7283
665 1 12.467 44.6682 12.4788
666 1 1.22302 44.8092 12.6278
667 1 4.04446 44.612 12.6748
668 1 1.3487 47.7351 12.6172
669 1 4.22428 47.4946 12.7184
670 1 6.87774 44.7072 12.7519
671 1 9.5007 44.6028 12.4737
672 1 7.0249 47.5331 12.5947
673 1 9.94363 47.4694 12.4702
674 1 12.8672 47.5643 12.743
1101 1 1.22478 50.5391 12.5559
12363 2 11.3469 48.9273 11.3049
12291 2 -0.160339 48.9429 0.07218
12253 2 2.62903 26.2596 2.80621
12362 2 5.57004 48.9226 11.2532
12348 2 5.64616 31.8928 11.3519
12281 2 -0.052761 43.2536 0.00115579
12257 2 8.19983 26.1125 2.7483
12258 2 5.38195 29.0704 2.73572
12272 2 2.7315 40.4195 0.0424519
12260 2 10.9792 28.4109 2.84537
12309 2 0.00301783 34.8086 8.41109
86 1 10.0194 24.6879 1.1833
12263 2 2.7996 31.9985 2.86835
12360 2 11.1584 43.3807 11.1026
6584 1 1.46958 33.4565 4.19022
12274 2 -0.141698 40.4667 2.91876
12267 2 7.97792 31.8907 2.63756
12268 2 5.481 34.772 2.6261
12251 2 0.0217809 26.1889 -0.109521
12270 2 11.2568 35.0749 2.71955
12359 2 8.33242 46.1726 11.1594
12285 2 5.48091 43.2449 0.0481077
12273 2 2.74684 37.5286 2.9004
12358 2 5.52177 43.2383 11.3112
12346 2 0.0999272 32.0928 11.2858
89 1 12.8079 24.9151 1.36935
12277 2 8.64589 37.4097 3.01282
12278 2 5.63681 40.486 2.95323
12347 2 2.85845 34.9718 11.2558
12280 2 11.1196 40.4464 2.69425
12326 2 -0.077401 43.3415 5.54858
1003 1 4.08415 50.3754 9.91717
12283 2 2.71478 43.1949 2.78482
12295 2 11.2627 48.845 -0.00584081
12349 2 8.38043 34.713 11.0032
485 2 4.95573 37.4961 -0.151192
12287 2 8.32408 43.3056 2.948
12288 2 5.50741 46.0782 2.89936
12279 2 11.5309 37.4136 -0.0281278
12290 2 11.3331 46.0526 2.69388
15272 2 13.866 37.5459 2.8879
12292 2 2.71965 49.1269 2.85333
12352 2 2.61438 40.4255 11.2036
12294 2 8.19834 48.8245 2.70231
12350 2 11.2317 31.7569 11.1635
12357 2 2.64639 46.196 11.2201
12297 2 2.73032 29.1028 5.5751
12298 2 2.6806 26.3066 8.5265
12282 2 2.60805 46.0749 0.123408
12300 2 5.59672 26.2416 5.52735
12301 2 8.40993 28.9315 5.59229
12302 2 8.36005 26.138 8.49014
12303 2 5.57936 28.9183 8.24004
12304 2 11.2355 26.0138 5.51717
12305 2 11.1039 28.8646 8.43131
465 1 4.0226 33.4198 1.28742
12307 2 2.7655 34.6828 5.51157
12308 2 3.02327 32.0523 8.56117
12355 2 11.0814 37.485 11.2586
12310 2 5.53091 31.8277 5.76044
12311 2 8.12407 34.7267 5.38154