ITEM: TIMESTEP
100000
ITEM: NUMBER OF ATOMS
18000
ITEM: BOX BOUNDS xy xz yz pp pp pp
-1.5050819462913895e-01 2.8044508194629103e+01 0.0000000000000000e+00
-1.7291330949558985e+00 3.3645713309495505e+02 0.0000000000000000e+00
-1.5131570633765409e-01 2.8045315706338158e+01 0.0000000000000000e+00
ITEM: ATOMS id type x y z
1 1 1.02573 -0.470314 1.2377
2 1 3.86061 -0.323821 1.13203
3 1 3.94723 -0.704781 3.91876
4 1 1.15925 -0.244714 4.17682
5 1 1.04795 2.55883 0.897278
6 1 3.77781 2.4494 1.35201
7 1 3.70107 2.45954 4.06891
8 1 0.949151 2.39998 3.96215
9 1 6.55525 -0.387203 1.06826
10 1 9.3305 -0.344386 1.46719
11 1 9.69293 -0.311243 7.06636
12 1 9.54 -0.534959 4.11477
13 1 6.83967 2.41295 1.30337
14 1 9.55048 2.48345 1.20415
15 1 9.27862 2.41208 4.07141
16 1 6.58615 2.62882 3.8514
17 1 12.0797 -0.222365 1.27037
18 1 12.4244 -0.477591 3.96493
19 1 12.2072 2.59971 1.33542
20 1 12.4546 2.38638 4.12778
21 1 1.02832 5.3414 1.24035
22 1 3.92498 5.38795 1.11476
23 1 3.62101 5.51153 3.95098
24 1 0.772848 5.27862 4.21499
25 1 1.06134 8.1129 1.31615
26 1 3.89716 8.24953 1.03588
27 1 3.9937 8.31695 3.98773
28 1 0.938241 8.04213 4.12393
29 1 6.53668 5.27734 1.02315
30 1 9.34372 5.33536 1.44027
31 1 9.55012 5.33264 4.19657
32 1 6.71743 5.34862 3.96825
33 1 6.68707 8.14568 1.01138
34 1 9.39546 7.91316 1.10461
35 1 9.42763 8.02623 4.10615
36 1 6.85671 8.3597 3.97602
37 1 12.1083 5.39355 1.08419
38 1 12.4452 5.21214 3.94627
39 1 12.3247 8.13516 1.37603
40 1 12.2735 7.8906 4.21002
41 1 1.02412 10.9671 1.24899
42 1 3.73002 10.9331 1.11476
43 1 3.92296 10.9556 4.07892
44 1 1.0609 11.0002 4.04006
45 1 1.16224 13.7569 1.10526
46 1 3.95283 13.7982 1.17624
47 1 3.72206 13.6415 3.95076
48 1 0.968119 13.7766 4.00561
49 1 6.69583 11.0353 1.17639
50 1 9.62018 10.8582 1.28899
51 1 9.39395 10.997 4.09541
52 1 6.66008 11.0064 4.06289
53 1 6.7874 13.6306 1.11126
54 1 9.61017 13.5431 1.13724
55 1 9.6602 13.8005 3.76303
56 1 6.80817 13.6588 3.91819
57 1 12.4056 11.0076 1.2452
58 1 12.2046 10.888 4.13787
59 1 12.4608 13.9054 1.18964
60 1 12.4733 13.7113 4.05644
61 1 0.929844 16.5346 1.22777
62 1 3.86716 16.7148 1.28848
63 1 3.93935 16.4144 3.95581
64 1 1.15796 16.5692 3.87232
65 1 1.15836 19.3525 1.40999
66 1 3.77937 19.3122 1.1276
67 1 3.91413 19.1667 4.05241
68 1 1.09809 19.3093 3.99948
69 1 6.91986 16.5741 1.02107
70 1 9.62933 16.5807 1.20209
71 1 9.57119 16.5406 4.16831
72 1 6.81464 16.5316 3.83085
73 1 6.66676 19.396 1.0562
74 1 9.6205 22.3339 1.11083
75 1 9.26314 19.2636 4.00901
76 1 6.64998 19.2674 4.16057
77 1 12.3401 16.8248 1.23286
78 1 12.4539 16.5435 3.99595
79 1 12.3447 22.103 1.29815
80 1 12.171 19.4156 4.0241
81 1 1.05339 22.2129 1.31701
82 1 3.74776 22.1468 1.36686
83 1 3.78827 22.164 3.92266
84 1 1.13493 22.2189 3.95396
85 1 6.66582 22.1677 1.03429
5636 1 6.95904 -0.238897 3.70913
87 1 9.60218 21.9599 3.92488
88 1 6.67488 22.3094 4.07108
12019 2 10.8555 3.78952 -0.0642589
90 1 12.3643 21.9951 4.20751
91 1 1.02376 -0.558183 7.08644
92 1 3.91617 -0.457402 7.08292
93 1 3.805 -0.456552 9.87656
94 1 1.04045 -0.52007 9.87727
95 1 1.11487 2.12454 6.72822
96 1 3.87089 2.44238 7.04457
97 1 3.66611 2.6079 9.79592
98 1 0.91418 2.43365 9.50731
99 1 5.18583 0.806033 5.42274
100 1 7.16508 -0.302994 7.02648
101 1 9.5241 -0.573717 9.78254
102 1 6.59284 -0.613702 9.79488
103 1 6.95112 2.41452 6.75792
104 1 9.55664 2.62669 6.93632
105 1 9.46209 2.38487 9.73255
106 1 6.57094 2.18343 9.72676
107 1 12.4785 -0.567351 6.89075
108 1 12.2407 -0.427781 9.69828
109 1 12.2999 2.3709 6.92633
110 1 12.3729 2.59125 9.66071
111 1 1.04153 5.08511 6.96076
112 1 3.94821 5.32706 6.77748
113 1 3.90547 5.2917 9.594
114 1 1.13743 5.27834 9.60556
115 1 0.856297 8.09035 6.93288
116 1 3.7954 7.97157 6.75452
117 1 3.78647 8.27497 9.76983
118 1 1.05516 7.9948 9.77434
119 1 6.70333 5.11323 6.77899
120 1 9.38495 5.27333 6.98472
121 1 9.21518 5.30828 9.84289
122 1 6.70735 5.15377 9.60475
123 1 6.73675 7.99316 6.8704
124 1 9.55896 7.93218 6.90289
125 1 9.48777 8.10843 9.78128
126 1 6.593 8.11977 9.62898
127 1 12.2553 5.38264 6.80041
128 1 12.0228 5.1239 9.67745
129 1 12.2822 8.16469 7.04404
130 1 12.2673 7.95322 9.89712
131 1 1.03171 10.9743 6.85476
132 1 3.96653 10.8086 6.68091
133 1 3.63295 11.0625 9.51513
134 1 0.857509 10.8298 9.75607
135 1 1.10055 13.6807 6.80702
136 1 3.9085 13.5956 6.75154
137 1 3.47515 13.7405 9.96945
138 1 0.600962 13.5503 9.56689
139 1 6.85094 10.6824 6.71255
140 1 9.43529 10.8926 6.96362
141 1 9.53944 10.9681 9.93701
142 1 6.68452 10.6955 9.54672
143 1 6.58262 13.7911 6.70879
144 1 9.35568 13.7395 6.87988
145 1 9.38687 13.803 9.88914
146 1 6.48677 13.636 9.49602
147 1 12.2961 11.1682 6.88826
148 1 12.1666 10.7 9.62235
149 1 12.2422 13.6144 6.85831
150 1 12.2763 13.6157 9.82367
151 1 1.00255 16.564 7.01995
152 1 3.81698 16.3046 6.85175
153 1 3.86348 16.5809 9.46756
154 1 0.915315 16.579 9.61428
155 1 1.04674 19.3245 6.9434
156 1 3.7843 19.3358 6.90982
157 1 3.89944 19.5014 9.77575
158 1 1.0997 19.3125 9.58901
159 1 6.46777 16.4062 7.01331
160 1 9.41385 16.3549 6.88249
161 1 9.40313 16.7036 9.5935
162 1 6.57417 16.5571 9.80549
163 1 6.5178 19.6405 6.93444
164 1 9.42194 19.2539 6.92505
165 1 9.67812 19.5006 9.73115
166 1 6.75189 19.2137 9.6651
167 1 12.2697 16.3708 6.84026
168 1 12.379 16.5733 9.63144
169 1 12.2771 19.0883 6.80687
170 1 12.4927 19.1803 9.52888
171 1 1.09167 22.0861 6.8975
172 1 4.02249 22.1348 6.8298
173 1 3.64917 22.3521 9.5084
174 1 1.03075 22.1673 9.66464
175 1 6.82892 22.3527 7.04258
176 1 9.51333 22.0215 6.7756
177 1 9.59592 22.1679 9.68875
178 1 6.64967 22.106 9.69904
179 1 12.4269 21.9611 6.83871
180 1 12.5881 22.0792 9.7289
181 1 0.980793 -0.654004 12.6816
182 1 3.82109 -0.425847 12.5697
183 1 0.79224 2.37958 12.5513
184 1 3.74971 2.404 12.5603
185 1 6.6455 -0.675264 12.462
186 1 9.24247 -0.200345 12.7203
187 1 6.61232 2.40043 12.4804
188 1 9.6685 2.52136 12.6412
189 1 12.0324 -0.642111 12.5823
190 1 12.3617 2.13546 12.536
191 1 1.13797 5.26793 12.4918
192 1 3.74648 5.38857 12.4919
193 1 1.09986 8.33555 12.438
194 1 3.88673 8.09124 12.5056
195 1 6.53134 5.13608 12.4331
196 1 9.19873 5.46769 12.6556
197 1 6.76078 8.07501 12.4759
198 1 9.57798 8.23166 12.5351
199 1 12.2972 5.11443 12.56
200 1 12.3324 7.94147 12.6288
201 1 0.863431 10.9504 12.4818
202 1 3.76515 10.8304 12.435
203 1 0.581806 13.795 12.4019
204 1 3.71393 13.5583 12.646
205 1 6.33108 10.9856 12.4369
206 1 9.29068 10.9325 12.6293
207 1 6.62121 13.6654 12.4336
208 1 9.63826 14.0212 12.6759
209 1 12.2797 10.8302 12.5454
210 1 12.3668 13.702 12.4308
211 1 1.07887 16.4724 12.2929
212 1 3.7576 16.3563 12.2973
213 1 1.0959 19.1851 12.4283
214 1 3.68814 19.1277 12.6077
215 1 6.63977 16.517 12.6933
216 1 9.43664 16.5831 12.4232
217 1 6.61161 19.4318 12.5199
218 1 9.69509 19.3655 12.4394
219 1 12.2901 16.4128 12.6709
220 1 12.4508 19.4825 12.4504
221 1 1.36616 21.9721 12.5295
222 1 4.00888 22.0766 12.4609
223 1 6.69738 22.1948 12.5482
224 1 9.39364 22.1984 12.4423
225 1 12.4731 22.2986 12.6051
6063 1 12.182 19.4034 1.48752
15072 2 13.6845 9.35526 8.33782
12134 2 5.38786 6.62646 13.8494
15011 2 13.8247 6.64343 -0.14492
15101 2 13.7485 0.882777 11.068
15081 2 13.6657 17.8779 5.43087
15092 2 13.7745 20.711 8.28172
12008 2 5.35482 0.939349 2.69858
12149 2 5.4148 23.6221 13.9522
12010 2 10.8346 0.939622 2.75144
12125 2 10.9909 20.8372 11.2146
15082 2 13.7616 15.0402 8.36246
12013 2 2.31997 3.85248 2.8198
12124 2 8.09907 23.3763 11.0086
12141 2 2.44745 15.1519 13.8428
12049 2 10.838 20.7712 -0.244868
12017 2 8.02601 3.8963 2.62278
12018 2 5.2113 6.69387 2.63113
12016 2 8.06799 6.63519 -0.138413
12020 2 10.9227 6.52133 2.72318
12113 2 5.14538 9.41193 11.225
12104 2 7.99461 0.87645 11.0188
12023 2 2.57505 9.60567 2.71064
15022 2 13.8513 9.47073 2.70407
12131 2 2.35285 3.77365 13.8593
12107 2 2.44388 6.69637 10.979
12027 2 8.21626 9.61671 2.54549
12028 2 5.24173 12.2386 2.56175
15116 2 13.8907 17.8784 11.0645
12030 2 11.1432 12.2782 2.67022
12102 2 2.40653 0.93759 11.1856
12114 2 8.11854 12.2774 11.2247
12033 2 2.52308 15.2085 2.64009
15032 2 13.7972 15.0694 2.57234
12100 2 11.1672 23.5969 8.29687
12099 2 10.8263 20.6138 5.59192
12037 2 8.08189 15.1171 2.55949
12038 2 5.33393 17.9894 2.65309
12098 2 5.36128 23.6855 8.26529
12040 2 10.8397 18.0245 2.64558
12097 2 8.12981 20.8331 8.19556
12150 2 10.9422 23.5649 13.9373
12043 2 2.36716 20.8007 2.63166
12123 2 5.40799 20.6552 10.938
12096 2 8.08948 23.6854 5.4901
12095 2 5.30945 20.8272 5.38083
12047 2 8.103 20.8557 2.66788
12048 2 5.26945 23.5448 2.5533
12115 2 10.9554 9.4837 11.1451
12050 2 10.9645 23.4934 2.82267
12015 2 5.13152 3.67387 0.10994
12052 2 2.79505 0.78115 5.41273
12112 2 2.29676 12.2082 11.1046
12122 2 2.43494 23.3782 11.2554
12110 2 10.9086 3.68313 11.1009
12056 2 8.07783 0.965999 5.38469
12109 2 8.0422 6.72168 11.0906
12058 2 5.48193 0.918004 8.02309
12108 2 5.22008 3.83046 11.0173
12060 2 10.9483 0.973104 8.39478
12120 2 11.0099 15.0287 11.1652
12062 2 2.36066 6.63149 5.50047
12063 2 2.48788 3.83824 8.28975
12119 2 8.11342 17.895 11.1511
12065 2 5.24732 3.62055 5.49327
12066 2 8.22388 6.67995 5.4847
12067 2 8.13366 3.68692 8.39439
12068 2 5.40967 6.56649 8.11961
12069 2 10.9411 3.83786 5.49567
12070 2 10.8601 6.57567 8.35919
15071 2 13.8377 12.2377 5.53164
12072 2 2.44688 12.3294 5.45746
12073 2 2.44709 9.49557 8.18143
12118 2 5.00024 14.9424 11.1002
12075 2 5.3683 9.33284 5.62479
12076 2 8.05192 12.3298 5.32893
12077 2 8.25492 9.4693 8.35867
12078 2 5.33223 12.1348 8.07054
12079 2 10.9237 9.43137 5.42831
12080 2 10.9175 12.3597 8.2844
15106 2 13.7467 6.59247 11.152
12082 2 2.5288 17.8258 5.45004
12083 2 2.36178 15.1175 8.3317
12117 2 2.43492 18.0039 11.0739
12085 2 5.33054 14.9688 5.39976
12086 2 8.03654 17.9139 5.60305
12087 2 7.96036 14.944 8.34527
12088 2 5.22909 17.8924 8.26927
12089 2 10.8357 15.0976 5.40609
12090 2 10.846 17.9107 8.3511
15111 2 13.6321 12.193 11.1694
12092 2 2.57452 23.5313 5.47492
12093 2 2.55275 20.7537 8.23231
440 1 9.33113 19.3408 1.19579
15062 2 13.7358 3.78356 8.24894
15042 2 13.7936 20.5957 2.80044
15091 2 13.7767 23.4206 5.55517
12136 2 2.56861 9.4851 13.7474
15012 2 13.9174 3.8676 2.7046
15051 2 13.7661 0.82405 5.51036
12139 2 5.29014 12.3924 13.8301
12130 2 10.7338 0.947812 13.8171
15136 2 13.8405 9.33963 13.9873
12129 2 5.2699 1.01279 13.7416
15146 2 13.8115 20.8268 13.9089
15141 2 13.8769 14.9666 13.9186
15061 2 13.8436 6.69528 5.5889
12029 2 10.8375 9.3264 -0.0673558
12039 2 10.8245 15.0524 -0.0423136
12133 2 7.99873 3.81916 13.7902
12135 2 10.8434 6.65496 13.8726
12026 2 8.17542 12.4663 -0.0897719
226 1 3.85718 -0.347311 15.4301
227 1 1.15084 -0.806694 15.3457
228 1 3.8152 2.22696 15.2943
229 1 0.90057 2.37934 15.2785
230 1 9.40995 -0.532866 15.2617
231 1 6.59222 -0.293601 15.4026
232 1 9.50932 2.30289 15.2409
233 1 6.74668 2.62862 15.3863
234 1 12.0706 -0.320554 15.2735
235 1 12.3838 2.58475 15.4055
236 1 3.91254 5.20888 15.1544
237 1 1.00831 5.24942 15.1009
238 1 3.83798 8.16423 15.2813
239 1 1.03076 8.12114 15.3136
240 1 9.45716 5.25474 15.3402
241 1 6.80378 5.51529 15.2927
242 1 9.4265 8.02024 15.3286
243 1 6.65893 8.1411 15.3098
244 1 12.2727 5.22199 15.3365
245 1 12.193 8.08203 15.4756
246 1 4.08875 10.9228 15.3106
247 1 1.09025 11.0276 15.1672
248 1 4.11398 13.6889 15.2497
249 1 1.25804 13.7398 15.2074
250 1 9.64194 10.7128 15.2601
251 1 6.73356 11.0304 15.2314
252 1 9.49632 13.5483 15.3188
253 1 6.78758 13.6133 15.258
254 1 12.4231 11.0706 15.2328
255 1 12.3433 13.5962 15.1912
256 1 4.02296 16.4117 15.3684
257 1 1.25732 16.5429 15.1623
258 1 3.96764 19.1091 15.5284
259 1 1.03506 19.3424 15.3995
260 1 9.71622 16.5658 15.2504
261 1 6.81099 16.5096 15.3174
262 1 9.3904 19.222 15.3319
263 1 6.65473 19.2028 15.2603
264 1 12.4804 16.2892 15.4463
265 1 12.3209 19.3012 15.4031
266 1 4.04841 22.2807 15.3156
267 1 1.19422 22.1688 15.2084
268 1 9.53891 22.0634 15.2523
269 1 6.93933 22.0916 15.3613
270 1 12.3995 22.1478 15.4512
271 1 0.963099 -0.51267 18.0679
272 1 3.67463 -0.498576 18.3118
273 1 3.74558 -0.408278 20.8042
274 1 1.02379 -0.430191 20.9332
275 1 1.06124 2.42746 18.0682
276 1 3.94597 2.29029 18.1215
277 1 4.02226 2.4611 20.9077
278 1 1.11937 2.37692 20.7443
279 1 6.72319 -0.635182 18.0777
280 1 9.38541 -0.27515 18.3231
281 1 9.34577 -0.562799 21.0003
282 1 6.38116 -0.0044636 21.0739
283 1 6.69278 2.17272 18.1927
284 1 9.45852 2.59871 17.8304
285 1 9.8153 2.28944 20.8823
286 1 6.96184 2.61795 21.0003
287 1 12.0494 -0.341854 18.1775
288 1 12.4272 -0.372667 20.9736
289 1 12.2393 2.64562 18.347
290 1 12.6163 2.42058 20.996
291 1 0.897142 5.27953 17.9688
292 1 3.63423 4.94553 18.0607
293 1 4.09098 5.31649 20.8737
294 1 1.15118 5.20182 20.9675
295 1 0.93059 8.1673 18.1989
296 1 3.70674 7.90835 18.0432
297 2 5.30307 6.66289 22.2296
298 1 1.19566 8.10319 21.0606
299 1 6.63753 5.09131 17.9961
300 1 9.55677 5.21628 18.1563
301 1 9.5463 5.07483 20.8347
302 1 6.84986 5.47872 21.0403
303 1 6.52797 8.07017 18.0366
304 1 9.39308 8.2088 18.1299
305 1 9.56901 7.99705 20.9683
306 1 6.47257 8.23053 20.9013
307 1 12.2694 5.4946 17.8694
308 1 12.341 5.35276 20.7307
309 1 12.1328 8.23973 18.5086
310 1 12.4624 8.11056 21.0971
311 1 1.35282 10.7728 18.0179
312 1 3.86838 10.8678 18.0334
313 1 3.79673 7.8751 20.6716
314 1 1.14873 10.9183 21.0255
315 1 1.12438 13.7748 18.0332
316 1 3.97844 13.6554 17.937
317 1 4.08936 10.9703 20.7827
318 1 1.19481 13.8453 20.9335
319 1 6.66928 10.747 18.1325
320 1 9.65473 11.1264 18.1369
321 1 9.36065 10.9944 21.0174
322 1 6.68534 11.045 21.101
323 1 6.9174 13.7255 18.0357
324 1 9.97774 13.8928 18.3963
325 1 7.16151 13.5917 20.8493
326 1 4.10366 13.6439 20.7249
327 1 12.3522 10.9068 17.979
328 1 12.2831 10.8047 20.8631
329 1 12.5704 13.6965 18.026
330 1 12.5161 13.7909 20.789
331 1 0.943505 16.4024 18.0494
332 1 3.91659 16.3984 18.1747
333 1 3.82056 16.473 21.033
334 1 1.02972 16.3459 20.875
335 1 0.950328 19.1933 18.2628
336 1 3.76594 19.2148 18.1414
337 1 3.81555 19.2095 20.8591
338 1 1.05624 19.2474 21.0658
339 1 6.97743 16.4819 18.1605
340 1 9.76165 16.5928 17.9279
341 1 9.62582 19.3231 20.9503
342 1 6.70877 16.3839 21.004
343 1 6.68934 19.1533 18.0933
344 1 9.6804 19.3755 18.206
345 1 9.42873 19.4639 23.6204
346 1 6.76312 19.2197 21.0074
347 1 12.4141 16.4387 18.3191
348 1 12.51 18.7596 20.948
349 1 12.4253 19.2045 18.0932
350 1 12.3067 21.7046 20.9423
351 1 0.976387 22.0812 18.0943
352 1 3.74706 21.9527 18.167
353 1 3.94463 21.9177 20.9699
354 1 1.04283 21.9635 20.9802
355 1 6.71012 22.1319 18.0528
356 1 9.61993 22.196 18.0158
357 1 9.52402 22.2395 20.9115
358 1 6.81991 21.9236 20.9789
359 1 12.3371 21.9347 18.1647
360 1 12.3268 22.2537 23.8251
361 1 1.2576 -0.324946 23.9184
362 1 4.07134 -0.146704 23.6687
363 1 3.90631 -0.383152 26.4344
364 1 1.12104 -0.415219 26.7057
365 1 1.05833 2.39125 23.7047
366 1 3.69709 2.61016 23.5616
367 1 3.69602 2.44992 26.5809
368 1 0.785886 2.43436 26.3536
369 1 6.91391 -0.429474 23.7321
370 1 9.64419 -0.502827 23.7527
371 1 9.68876 -0.360861 26.7401
372 1 6.79432 -0.201402 26.548
373 1 6.58883 2.3378 23.7729
374 1 9.31709 2.42713 23.824
375 1 9.25683 2.42155 26.6847
376 1 6.47664 2.66236 26.7065
377 1 12.3473 -0.598741 23.805
378 1 12.3905 -0.148793 26.636
379 1 12.394 2.2111 23.6088
380 1 12.2552 2.55285 26.5437
381 1 0.96045 5.35954 23.9716
382 1 3.87347 5.34555 23.5827
383 1 3.99186 5.38532 26.6352
384 1 1.1381 5.34435 26.6187
385 1 1.19128 8.25801 23.9502
386 1 3.93246 8.00463 23.4091
387 1 3.71598 8.0114 26.3414
388 1 1.04856 8.16048 26.6039
389 1 6.61723 5.42916 23.5535
390 1 9.54318 5.25451 23.7851
391 1 9.56415 5.41994 26.8097
392 1 6.92694 5.44691 26.4236
393 1 6.5167 8.06634 23.6842
394 1 9.73317 8.0995 23.8789
395 1 9.46454 8.30506 26.4422
396 1 6.49415 8.18697 26.2422
397 1 12.4286 5.15021 23.6763
398 1 12.3798 5.28934 26.5749
399 1 12.4405 7.95607 23.7957
400 1 12.3484 8.13021 26.6247
401 1 1.18028 10.9489 23.6477
402 1 3.96573 11.0423 23.7785
403 1 3.7994 10.8365 26.5893
404 1 0.97636 10.9617 26.5302
405 1 0.984458 13.6674 23.6977
406 1 4.05836 13.66 23.6796
407 1 3.52322 13.6801 26.5292
408 1 0.94735 13.6652 26.3891
409 1 6.81298 10.8552 23.8858
410 1 9.58742 10.9202 23.8423
411 1 9.46237 10.8631 26.5759
412 1 6.47305 11.0378 26.4462
413 1 6.5987 13.5523 23.6729
414 1 9.4954 13.7513 23.8978
415 1 9.56257 13.7118 26.6826
416 1 6.68023 13.9669 26.5158
417 1 12.3796 10.7911 23.8419
418 1 12.3504 11.0777 26.5516
419 1 12.4581 13.5659 23.8563
420 1 12.3262 13.8256 26.6487
421 1 1.04515 16.4764 23.7582
422 1 3.82893 16.3969 23.8225
423 1 3.83706 16.6075 26.5617
424 1 0.983734 16.4995 26.4603
425 1 1.06833 19.2734 23.7851
426 1 3.94367 19.1831 23.7041
427 1 3.74866 19.326 26.5394
428 1 1.09356 19.2278 26.6802
429 1 6.68379 16.5153 23.8151
430 1 9.35307 16.8109 24.0129
431 1 9.60414 16.6428 26.754
432 1 6.69512 16.7018 26.5748
433 1 6.68584 19.1655 23.7411
434 1 12.4255 19.4326 26.5243
435 1 9.54949 19.462 26.5122
436 1 6.54142 19.3571 26.4608
437 1 12.5493 16.6031 24.0678
438 1 12.2187 16.5699 26.6733
439 1 12.3238 19.4167 23.6436
15171 2 13.7748 12.1817 16.6237
441 1 0.91141 22.0769 23.8993
442 1 3.66439 21.9412 23.8048
443 1 3.98758 22.1896 26.7736
444 1 1.09664 22.043 26.6601
445 1 6.63167 22.1313 23.7617
446 1 9.47542 22.1467 23.7286
447 1 9.6491 22.3936 26.6089
448 1 6.71902 21.97 26.5315
15221 2 13.7057 12.3766 22.4474
450 1 12.4874 22.0921 26.5892
15241 2 13.7066 23.3705 22.4877
12250 2 10.9836 23.5181 25.2826
15222 2 13.6922 9.3745 25.0889
12148 2 8.05982 20.6374 13.8532
12146 2 2.58636 20.5579 13.8233
12227 2 8.15521 9.53776 25.2073
12249 2 10.8195 20.825 22.5114
12226 2 8.09847 12.2191 22.5694
12225 2 5.3254 9.76724 22.3789
15161 2 13.7628 6.60287 16.6688
12223 2 2.59638 9.56816 25.1965
12248 2 5.23918 23.3618 25.1917
12222 2 2.66422 12.2634 22.2363
12228 2 5.18753 12.4355 25.3482
15151 2 13.6201 0.837846 16.5541
12220 2 11.0627 6.65351 25.3569
12247 2 7.95314 20.7317 25.0424
15182 2 13.9095 14.8898 19.4496
15192 2 13.8456 20.5343 19.6606
15232 2 13.742 15.0867 25.2867
12219 2 11.1206 3.65924 22.3316
12246 2 8.04345 23.4244 22.422
15191 2 13.8874 23.4172 16.978
12218 2 5.33102 6.60792 25.3173
15021 2 13.8467 12.123 27.9092
12245 2 5.28689 20.5331 22.2519
12152 2 2.41957 0.744596 16.8056
15231 2 13.962 17.7951 22.4848
12243 2 2.39907 20.5879 25.2084
15131 2 13.7663 3.83186 13.8908
12156 2 8.11163 0.926063 16.6981
15212 2 13.7477 3.99403 25.2056
12158 2 5.15485 0.708266 19.454
12216 2 8.52445 6.62809 22.2995
12160 2 11.023 0.934613 19.5818
12242 2 2.39783 23.4393 22.1717
12162 2 2.36028 6.56231 16.4421
12163 2 2.45141 3.68818 19.5704
12240 2 10.9498 17.9411 25.1664
12165 2 4.99089 3.5992 16.6721
12166 2 8.12385 6.47017 16.7518
12167 2 8.23682 3.71497 19.4308
12168 2 5.16012 6.63295 19.0342
12169 2 10.8629 3.91225 16.7711
12170 2 11.0234 6.70442 19.5363
12239 1 9.51517 16.5056 20.7785
12172 2 2.54551 12.3587 16.6134
12173 2 2.685 9.46658 19.4219
12238 2 5.3167 17.8156 25.0817
12175 2 5.22186 9.5099 16.579
12176 2 8.04991 12.1848 16.6776
12177 2 8.04203 9.59431 19.5461
12178 2 5.33966 12.2864 19.3973
12179 2 10.9745 9.44203 16.7454
12180 2 11.223 12.3129 19.3824
12237 2 8.3569 15.2738 25.1642
12182 2 2.40553 17.7075 16.691
12183 2 2.44795 15.0249 19.4684
12236 2 8.18139 17.8185 22.2674
12185 2 5.38555 15.0577 16.7397
12186 2 8.14003 17.8444 16.7477
12187 2 8.32256 15.1313 19.5197
12188 2 5.2258 17.6197 19.4839
12189 2 11.115 14.8618 16.6637
12190 2 10.9977 17.9244 19.4468
12235 2 5.43061 15.0216 22.47
12192 2 2.55557 23.4008 16.6707
12193 2 2.47132 20.4767 19.5363
12213 2 2.37491 3.84813 25.1159
12195 2 5.25388 20.6681 16.6458
12196 2 8.20177 23.4112 16.9079
12197 2 8.10938 20.6096 19.5974
12198 2 5.26917 23.4925 19.4429
12199 2 11.0324 20.732 16.7409
12200 2 10.8631 23.4453 19.5487
12233 2 2.3555 15.0156 25.1097
12202 2 2.50515 1.01846 22.3652
12229 2 11.0086 9.57689 22.4185
12232 2 2.43682 17.7793 22.3803
12215 2 5.39885 3.63477 22.2755
12206 2 8.15287 0.963975 22.2364
12217 2 8.07945 3.73437 25.1779
12208 2 5.27698 1.12272 25.2936
12212 2 2.14951 6.80385 22.4392
12210 2 10.9595 0.905207 25.1831
12230 2 10.8907 12.3415 25.0855
12012 2 2.41396 6.7717 28.0518
15172 2 13.8486 9.4913 19.5667
15181 2 13.8281 17.8976 16.7548
15201 2 13.8697 0.917517 22.2836
12042 2 2.32698 23.4983 27.9967
15211 2 13.8345 6.59695 22.3969
15242 2 13.9042 20.638 25.2292
15162 2 13.7908 3.87588 19.5638
12032 2 2.33935 17.8552 27.9834
12006 2 8.16181 0.94527 28.1944
12145 2 11.0049 17.932 13.8713
12002 2 2.42986 1.05439 27.9163
15031 2 13.6189 17.9776 27.9669
12035 2 5.33735 15.2337 28.0043
15041 2 13.8214 23.4238 28.0047
12022 2 2.32607 12.1775 27.9054
12138 2 8.07751 9.39086 14.0129
12143 2 8.18108 15.1661 14.0275
12046 2 8.12604 23.5942 27.9594
12036 2 8.0976 18.0791 27.9473
12140 2 10.8478 12.245 13.9019
12025 2 5.35749 9.40684 27.9574
12144 2 5.34282 17.8049 13.9794
15001 2 13.5931 1.16635 27.9995
12045 2 5.17855 20.6265 27.934
451 1 0.930067 24.9047 1.08321
452 1 3.81776 24.8664 1.14141
453 1 3.7632 24.8311 3.92082
454 1 1.04549 25.0794 4.00712
455 1 6.75309 24.7195 1.17543
456 1 9.52073 27.8629 1.07503
457 1 9.58084 24.8358 3.98894
458 1 6.87151 25.1468 3.9576
459 1 12.2886 27.6599 1.1029
460 1 12.448 25.0481 4.13511
461 1 0.931093 27.7762 1.10056
462 1 3.77958 27.6063 1.33516
463 1 3.71805 27.6162 4.2199
464 1 1.12953 28.032 3.91228
15317 2 13.5897 37.7118 8.38635
466 1 3.83984 30.4272 1.11961
467 1 4.15312 30.5199 3.85223
468 1 1.30284 30.6835 4.31015
469 1 6.6303 27.601 1.47386
470 1 9.82033 30.5893 1.47113
471 1 9.52999 27.6985 4.01366
472 1 6.75182 28.0074 4.04025
473 1 6.64637 30.3436 1.26232
474 1 8.50365 35.1435 2.59053
475 1 9.96088 30.4603 4.22846
476 1 6.94179 30.7226 4.14916
15291 2 13.8711 48.8574 2.61021
478 1 12.4148 27.7634 4.15421
479 2 11.1271 32.0556 2.65661
480 1 12.4663 30.6338 3.94309
481 1 1.07082 33.5962 1.23148
482 1 3.8061 36.0243 1.15752
483 1 3.63402 33.2466 4.09763
484 1 0.748818 30.6292 1.40176
15346 2 13.7279 34.5939 11.0653
493 1 6.70269 36.4872 0.518693
487 1 3.82358 36.1431 3.91179
488 1 1.00852 36.3354 1.09658
489 1 6.45557 33.4299 1.28315
15356 2 13.7223 46.0423 11.1024
491 1 9.60207 33.0864 4.08235
492 1 6.54594 33.2575 3.95931
910 1 9.5014 50.2144 1.26007
490 1 10.0066 33.435 1.25297
495 1 10.5896 37.7653 2.41299
496 1 6.50023 36.2472 3.70038
497 1 12.7375 32.9797 1.33401
498 1 12.1769 33.521 4.00809
499 1 12.5442 36.0298 1.3166
500 1 12.3257 36.4712 4.2099
501 1 1.0612 39.2936 1.00992
502 1 3.99962 38.8363 1.52111
503 1 3.82363 39.1238 4.09333
504 1 0.935544 39.0357 3.93517
505 1 1.06108 41.9777 1.303
506 1 3.91902 41.6402 1.32791
507 1 4.13008 41.8964 4.12086
508 1 1.06656 41.7524 4.06699
509 1 7.70397 39.0349 1.40315
1010 1 9.49482 50.4473 6.85954
511 1 9.33622 39.106 4.28818
512 1 6.61347 38.9066 3.93338
513 1 6.74886 41.9662 1.33995
514 1 9.61865 41.9159 1.23146
515 1 9.67887 41.7281 6.86631
516 1 6.83732 41.6951 4.21394
517 1 12.6827 39.1238 1.37354
518 1 12.4132 39.2396 4.09344
519 1 12.4118 41.9775 1.02335
520 1 12.5756 42.059 4.23741
521 1 0.853155 44.7664 1.3281
522 1 3.73694 44.5436 1.09716
523 1 3.78996 44.7774 4.10488
524 1 0.83079 44.8625 4.08375
525 1 1.01754 47.5307 1.17175
526 1 3.871 47.1941 1.27024
527 1 3.78556 47.5965 4.30968
528 1 1.02375 47.5584 3.91221
529 1 6.48076 44.5541 1.37316
530 1 9.54606 44.7912 1.41013
531 1 9.43309 44.67 4.22074
532 1 6.73144 44.4635 4.17861
533 1 6.80349 47.6148 1.03885
534 1 9.5171 47.4063 1.2654
535 1 9.5618 47.5694 4.20793
536 1 6.89745 47.2759 3.86191
537 1 12.3634 44.6752 1.08183
538 1 12.3127 44.9474 3.96707
539 1 12.4551 47.3994 1.23051
540 1 12.3657 47.7458 3.86885
541 1 1.14392 24.8798 6.89783
542 1 3.91067 24.9774 6.77174
543 1 4.12399 25.1119 9.5836
544 1 1.20278 24.8651 9.77152
545 1 6.77105 25.2377 6.821
546 1 9.58784 24.9759 6.79572
547 1 9.84233 25.0683 9.58383
548 1 6.96519 24.9066 9.51965
549 1 12.4652 24.8754 6.84733
550 1 12.5148 24.8036 9.74152
551 1 1.21644 27.7666 6.75682
552 1 4.08956 27.7171 6.98516
553 1 3.86883 27.9084 9.84935
554 1 1.28295 27.6551 9.88781
555 1 0.981459 33.0078 6.89883
556 1 3.68325 30.7372 6.99603
557 1 3.75591 30.6706 9.85308
558 1 0.893085 30.7511 9.83828
559 1 6.68438 27.9144 6.74076
560 1 9.55897 27.757 6.79578
561 1 9.47097 27.7921 9.75001
562 1 6.76255 27.6846 9.61334
563 1 6.46542 30.62 6.99572
564 1 9.3556 30.6715 6.99421
565 1 9.34973 30.3856 9.54723
566 1 6.40792 30.7077 9.82325
567 1 12.3163 27.8918 7.02038
568 1 12.3421 27.6955 9.84517
569 1 12.3237 30.7294 6.91946
570 1 12.1262 30.6102 9.63977
571 1 1.00742 36.1498 6.65731
572 1 3.92502 33.3482 6.84075
573 1 3.94943 33.5755 9.92357
574 1 1.13442 33.5406 9.6905
575 1 0.907289 36.0662 3.80631
576 1 3.77149 35.9357 6.94629
577 1 3.55973 36.3458 9.87571
578 1 0.827648 36.094 9.52149
579 1 6.71988 33.1768 6.80259
580 1 9.35762 33.5895 6.92642
581 1 9.44153 33.4316 9.79706
582 1 6.63225 33.2462 9.63113
583 1 6.77756 35.7841 6.62488
584 1 9.44195 36.261 4.95071
585 1 9.63332 36.1622 9.62523
586 1 6.60358 35.9859 9.76234
587 1 12.1308 33.654 6.78114
588 1 12.178 33.2605 9.72313
589 1 12.0178 36.4516 6.95338
590 1 12.46 36.125 9.78549
591 1 0.941571 39.0572 6.71931
592 1 3.80553 39.0065 6.89865
593 1 3.56808 38.9841 9.65695
594 1 0.944165 39.0145 9.63481
595 1 1.12764 42.0258 6.94983
596 1 3.87684 41.738 6.90757
597 1 3.86565 41.8695 9.85289
598 1 1.1645 41.8876 9.7226
599 1 6.35497 39.1952 6.71013
600 1 9.69846 41.8786 4.03754
601 1 9.74723 39.3147 9.9381
602 1 6.28341 39.1777 9.82242
603 1 6.65349 42.0299 7.14154
604 1 9.5063 41.946 9.56067
605 1 9.42821 41.9466 12.5101
606 1 6.80806 41.7992 9.81008
607 1 12.5392 39.1674 6.78949
608 1 12.4055 39.1254 9.74553
609 1 12.6658 41.9593 7.08507
610 1 12.47 42.0566 9.7281
611 1 1.11403 44.8526 6.61164
612 1 3.85554 44.5659 6.95173
613 1 3.9621 44.7279 9.71374
614 1 1.12582 44.6192 9.64641
615 1 1.13546 47.6502 6.72907
616 1 3.97022 47.2804 7.09131
617 1 3.83223 47.5222 9.8305
618 1 1.10153 47.4596 9.5188
619 1 6.76596 44.6905 6.94127
620 1 9.5156 44.7772 7.00229
621 1 9.45288 44.7651 9.72912
622 1 6.73446 44.8859 9.75681
623 1 6.70142 47.4382 6.85562
624 1 9.53263 47.591 6.89984
625 1 9.62171 47.6438 9.58443
626 1 6.80112 47.7079 9.68759
627 1 12.2568 44.6939 6.69622
628 1 12.2924 44.6654 9.56245
629 1 12.6324 47.5602 6.8955
630 1 12.4148 47.4568 9.73321
631 1 1.248 24.9513 12.6743
632 1 3.84735 24.8414 12.4834
633 1 6.56526 24.9663 12.3726
634 1 9.45188 24.9753 12.4986
635 1 12.1937 25.0695 12.5999
636 1 0.937741 27.9884 12.454
637 1 3.80305 27.8616 12.6186
638 1 1.07806 30.8437 12.5191
639 1 3.79328 30.5492 12.5451
640 1 6.65519 27.7767 12.4879
641 1 9.42215 27.8119 12.518
642 1 6.76363 30.475 12.5472
643 1 9.61965 30.5438 12.3734
644 1 12.3367 27.8202 12.656
645 1 12.335 30.5561 12.2781
646 1 1.06442 33.5968 12.6122
647 1 3.96491 33.4345 12.6378
648 1 0.982857 36.5719 12.3302
649 1 3.83043 36.3317 12.5318
650 1 6.66125 33.2748 12.3111
651 1 9.4411 33.2712 12.5449
652 1 6.7466 36.1957 12.5952
653 1 9.38734 36.2288 12.5468
654 1 12.0778 33.4425 12.4031
655 1 11.9965 36.1876 12.5991
656 1 1.02544 39.1659 12.4925
657 1 3.96713 39.1389 12.4942
658 1 1.08873 41.9399 12.3926
659 1 3.8535 41.9356 12.6017
660 1 6.65561 38.9842 12.515
661 1 9.37731 39.0956 12.4998
662 1 6.70493 41.8554 12.6765
663 1 12.035 41.9667 12.659
664 1 12.4692 39.1416 12.5323
665 1 12.1738 44.662 12.4133
666 1 1.16206 44.6712 12.6279
667 1 3.90367 44.8174 12.5555
668 1 1.0965 47.4795 12.6122
669 1 3.85481 47.4857 12.616
670 1 6.80436 44.7031 12.4724
671 1 9.42906 44.8802 12.6007
672 1 6.84278 47.5445 12.7312
673 1 9.56108 47.5041 12.4925
674 1 12.2977 47.5152 12.3551
15252 2 13.7934 26.2938 2.68882
12363 2 11.0342 49.0604 11.0459
15296 2 13.7437 29.1303 5.48474
12253 2 2.38052 26.3493 2.71041
12362 2 5.18333 48.9252 11.1592
12348 2 5.13784 32.1364 11.2137
15341 2 13.7596 28.9903 11.1099
12257 2 8.18667 26.3567 2.64571
12258 2 5.32611 29.0014 2.69852
15327 2 13.7949 43.2219 8.386
12260 2 10.992 28.8463 2.59167
15297 2 13.7072 26.3055 8.35089
86 1 9.5734 25.0719 1.29361
12263 2 2.40561 32.0153 2.52521
12360 2 10.7991 43.2302 11.1034
6584 1 0.818514 33.4352 4.11909
912 1 6.75018 50.2617 4.10627
12267 2 7.89768 31.9413 2.39824
12268 2 5.09002 34.6318 2.65736
12344 2 8.0814 29.1474 11.0804
12270 2 10.7766 35.3352 2.7432
12359 2 8.17147 46.1877 11.1769
1018 1 12.466 50.3157 9.81059
12273 2 2.33969 37.705 2.7377
12358 2 5.45285 43.0651 11.2741
15306 2 13.5011 34.8872 5.42901
89 1 12.2864 25.053 1.29784
12277 2 8.29463 37.5371 3.12615
12278 2 5.41129 40.2902 2.76661
12347 2 2.31024 34.8954 11.0808
12280 2 10.9261 40.303 2.69903
15272 2 13.7454 37.7853 2.78117
12343 2 5.34349 26.2998 11.1201
12283 2 2.58215 43.2421 2.64623
494 1 9.6238 36.2489 0.472208
12349 2 8.00732 34.8534 11.08
15351 2 13.6289 40.4559 11.0749
12287 2 8.29971 43.0848 2.73876
12288 2 5.3548 45.8441 2.62768
12342 2 2.44883 29.2168 11.1243
12290 2 10.9892 46.2352 2.7126
15336 2 13.9225 48.8168 8.50644
12292 2 2.27846 48.9972 2.59038
12352 2 2.37417 40.3473 11.2836
12294 2 8.15226 48.6176 2.68479
12350 2 10.7764 31.9179 10.9792
12357 2 2.5406 46.0698 11.0954
12297 2 2.57867 29.1423 5.45689
12298 2 2.49122 26.3783 8.31949
1012 1 6.67644 50.4926 9.83309
12300 2 5.30614 26.3906 5.43472
12301 2 8.18769 29.2858 5.53904
12302 2 8.215 26.3515 8.30023
12303 2 5.23491 29.1155 8.3577
12304 2 10.9616 26.4106 5.44852
12305 2 10.818 29.0964 8.32857
465 1 3.69594 33.3086 1.06272
12307 2 2.32483 34.6099 5.44564
12308 2 2.49477 32.1316 8.50361
12355 2 10.7984 37.598 11.2016
12310 2 5.24965 31.9558 5.63452
12311 2 7.96795 34.5605 5.23362
12312 2 8.01484 32.0482 8.32417
12313 2 5.41661 34.7159 8.23668
12314 2 10.6985 32.0507 5.88741
12315 2 10.9385 34.9371 8.44368
12354 2 8.07044 40.3367 11.0455
12317 2 2.5632 40.5249 5.51932
12318 2 2.32281 37.5719 8.09721
6463 1 12.235 30.3433 1.21267
12320 2 5.28644 37.5193 5.53449
12321 2 8.04908 40.4512 5.77117
12322 1 9.76418 39.0238 6.85596
12323 2 5.0911 40.4108 8.40871
12324 2 10.984 37.9058 5.43494
12325 2 11.0629 40.4155 8.36878
12384 2 2.54932 48.8265 14.0395
12327 2 2.23166 46.1866 5.43741
12328 2 2.45963 43.275 8.3468
12345 2 11.0416 26.3591 11.1639