LAMMPS data file via write_data, version 29 Oct 2020, timestep = 100000

18000 atoms
4 atom types

-0.2296944061594478 28.123694406159586 xlo xhi
-2.5508061153492254 337.2788061153496 ylo yhi
-0.2533531369716863 28.147353136972345 zlo zhi
0.0 0.0 0.0 xy xz yz

Masses

1 15.9994
2 232.0381
3 15.9994
4 232.0381

Atoms # full

664 0 2 2.2208 2.408890772018257 6.01729462761506 -0.045524109183085415 0 0 0
2 0 1 -1.1104 6.816319818161446 16.100556103977226 12.657100618913649 0 0 0
674 0 2 2.2208 2.7553580906824546 20.125994417345982 13.929944873715506 0 0 0
620 0 1 -1.1104 12.45695577305608 7.336923869233031 1.5124302426160543 0 0 1
9290 0 2 2.2208 -0.10420758687867422 17.427971920527085 13.939732786733675 0 0 0
6 0 1 -1.1104 4.157580372949989 18.800547289868504 12.725732436011715 0 0 0
7 0 1 -1.1104 1.302656091961086 18.645118139502113 12.475416670909912 0 0 0
8 0 2 2.2208 5.51590444916625 0.3987453811118079 2.886557967270875 0 0 0
9 0 1 -1.1104 3.939194425287902 16.01923551963208 12.595142338400843 0 0 0
10 0 2 2.2208 11.136371690732508 0.3513602078182591 2.946504841324994 0 0 0
11 0 1 -1.1104 1.2237122544082164 15.947025269959308 12.614605797584638 0 0 0
12 0 1 -1.1104 12.509151913652639 12.923239059335957 12.626749691518764 0 0 0
13 0 2 2.2208 2.633203926597551 3.0177003954569708 2.621706114136011 0 0 0
9014 0 2 2.2208 -0.1563976094003117 20.136560338895784 5.552851563334223 0 0 0
15 0 1 -1.1104 12.288070630741668 10.33609728796074 12.783711026206438 0 0 0
16 0 1 -1.1104 9.830081259231338 13.537751322915465 12.596751870071285 0 0 0
17 0 2 2.2208 8.21065272906577 3.1203921188237076 2.7007047852144463 0 0 0
18 0 2 2.2208 5.2577243720761535 6.009664587118422 2.6459589477824124 0 0 0
19 0 1 -1.1104 6.835242118021373 13.311830754383157 12.346713366552335 0 0 0
20 0 2 2.2208 11.107098084003553 5.92967845197923 2.751278234463291 0 0 0
94 0 3 -1.1104 9.79311232634505 -1.1244954370891682 9.7789685923697 0 0 0
596 0 1 -1.1104 8.176882189222468 3.118066605808534 -0.040857239988862946 0 0 1
23 0 2 2.2208 2.6099440943949648 8.781131458726191 2.6288737851239414 0 0 0
660 0 2 2.2208 8.231077341364074 0.407087542793802 -0.03241247424379555 0 0 0
25 0 1 -1.1104 9.501299869738485 10.822157925308336 12.3994355815449 0 0 0
26 0 1 -1.1104 6.644537148607182 10.640710433819258 12.657224899472387 0 0 0
27 0 2 2.2208 8.213249515914933 8.710518190777497 2.617363004274758 0 0 0
28 0 2 2.2208 5.322787364263923 11.625494016929675 2.6243899268514035 0 0 0
29 0 1 -1.1104 4.048968766439778 13.129302202623231 12.776106168151935 0 0 0
30 0 2 2.2208 11.258775313410919 11.424287829879882 2.6193607517115183 0 0 0
318 0 1 -1.1104 1.0917433094488627 7.426047588368829 12.390313318918956 0 0 0
32 0 1 -1.1104 1.0493320897675527 13.08596132227119 12.617837336119617 0 0 0
33 0 2 2.2208 2.5844570549541164 14.403344304083097 2.662908974701011 0 0 0
53 0 1 -1.1104 7.013407297876964 21.63847418398961 12.57093222636927 0 0 0
35 0 1 -1.1104 3.835009428190068 10.290164901583612 12.56659672353698 0 0 0
36 0 1 -1.1104 0.8441472571727283 10.399012845325561 12.59757704763429 0 0 0
37 0 2 2.2208 8.630783416333783 13.908887012874757 2.671152048500935 0 0 0
38 0 2 2.2208 5.00824479046064 17.353291516882816 2.300741396144185 0 0 0
39 0 1 -1.1104 12.560443021736363 7.383882689490973 12.57300607556605 0 0 0
40 0 2 2.2208 11.38907743026262 17.166103839936536 2.521900046034447 0 0 0
255 0 1 -1.1104 12.95750104704333 7.1941104217231215 9.258024826732129 0 0 0
42 0 1 -1.1104 12.512740882222095 4.401848419167567 12.38445625815851 0 0 0
43 0 2 2.2208 2.4459886804957427 20.362258811504756 2.342251883812354 0 0 0
317 0 1 -1.1104 3.8559128471894857 4.4818227472806775 12.682573514680143 0 0 0
45 0 1 -1.1104 9.568921837813956 7.724201075695664 12.878606844049273 0 0 0
46 0 1 -1.1104 6.649599294124686 7.660970933105048 12.445118297314313 0 0 0
47 0 2 2.2208 7.838759180123689 20.414306241101063 2.394686136925839 0 0 0
48 0 2 2.2208 5.446070887166278 23.07751280769152 2.808426960493626 0 0 0
49 0 1 -1.1104 9.576143503648039 4.499665830027962 12.21998905032239 0 0 0
50 0 2 2.2208 11.192512927845792 22.81949552862363 2.4547120458132006 0 0 0
51 0 1 -1.1104 6.670999517874235 4.819532873722586 12.640354212722094 0 0 0
52 0 2 2.2208 2.5753193810615382 0.3014717621694102 5.479028532803102 0 0 0
9070 0 2 2.2208 13.737132384510327 11.56255311079037 11.250158878561924 0 0 0
316 0 1 -1.1104 1.0957412646603444 4.555701114745757 12.479624911364748 0 0 0
55 0 1 -1.1104 4.174642672518312 21.374088403014166 12.567605654749045 0 0 0
56 0 2 2.2208 8.265750203947915 0.34831035960360685 5.593021352247825 0 0 0
57 0 1 -1.1104 1.2083045673499224 21.665871981712495 12.402531961244629 0 0 0
58 0 2 2.2208 5.500290683563098 0.1451805392847908 8.131640080754071 0 0 0
59 0 1 -1.1104 12.795983170599152 18.517517452586837 12.797289288373134 0 0 0
60 0 2 2.2208 11.116793058510765 0.28245356770651725 8.524892046957607 0 0 0
659 0 2 2.2208 2.41771626109062 0.18723889188386741 0.024231105395957044 0 0 0
62 0 2 2.2208 2.617006520466253 5.913074336475777 5.553714724276494 0 0 0
63 0 2 2.2208 2.6414639800395454 3.046337760897966 8.422755487363611 0 0 0
315 0 1 -1.1104 12.725284745363256 1.7876041429100018 12.49732516685896 0 0 0
65 0 2 2.2208 5.673518552370996 3.048988519669909 5.7653914803734665 0 0 0
66 0 2 2.2208 8.312020976160525 6.039358974515717 5.501043991000061 0 0 0
67 0 2 2.2208 8.220728592733026 2.9033859836156877 8.491069828528264 0 0 0
68 0 2 2.2208 5.418831236903214 5.8074281647663755 8.281158158062404 0 0 0
69 0 2 2.2208 11.009056107532539 3.229034484646646 5.453204359899163 0 0 0
70 0 2 2.2208 11.208642484338933 5.54424630171758 8.289791003007778 0 0 0
399 0 2 2.2208 11.241234878579752 14.36144748497762 -0.032009623702648635 0 0 0
72 0 2 2.2208 2.650410081868869 11.813101032912941 5.436034654379758 0 0 0
73 0 2 2.2208 2.4236776366810564 8.892699189134524 8.209443912016638 0 0 0
74 0 1 -1.1104 3.8942335438082942 7.454360777224166 12.57068354150528 0 0 0
75 0 2 2.2208 5.478126617578862 8.74726656923166 5.439868850275439 0 0 0
76 0 2 2.2208 8.365688963266992 11.476235020665072 5.692738324634377 0 0 0
77 0 2 2.2208 8.059066207772624 8.916946134924073 8.446440452753944 0 0 0
78 0 2 2.2208 5.557794892912007 11.582360158975566 8.34804305460641 0 0 0
79 0 2 2.2208 10.98192485768519 8.538299337015557 5.158850640658793 0 0 0
80 0 2 2.2208 10.958558605674956 11.895245484855238 8.198797640970975 0 0 0
81 0 4 2.2208 8.052433403172786 16.946889753572762 2.7539741666486806 0 0 0
82 0 2 2.2208 2.520781259144752 17.24621746549481 5.668730545127618 0 0 0
83 0 2 2.2208 2.7070058264965735 14.432754105817112 8.214529559085666 0 0 0
333 0 2 2.2208 8.0599732454408 9.17463470411996 13.838854359714656 0 0 0
85 0 2 2.2208 5.696842416011933 14.37526653531565 5.567579302634035 0 0 0
86 0 2 2.2208 8.386971191197468 17.299580316013035 5.937853767503552 0 0 0
87 0 2 2.2208 8.388264832623593 14.392690469019694 8.459547027180198 0 0 0
88 0 2 2.2208 5.451095365957634 17.297103820887305 8.324777275307957 0 0 0
89 0 2 2.2208 10.957000672082446 14.48660078565043 5.290672687488153 0 0 0
90 0 2 2.2208 11.276827505842162 17.235858165212264 8.318644870379064 0 0 0
91 0 1 -1.1104 12.552257134029793 15.830754864203573 12.242862168499887 0 0 0
92 0 2 2.2208 2.7183920722588115 23.0574263546218 5.386650457241973 0 0 0
93 0 2 2.2208 2.3475413851094546 20.22338703032686 8.137928012747436 0 0 0
22 0 2 2.2208 2.5984474720369506 11.451495489357379 -0.2352956233502067 0 0 0
95 0 2 2.2208 5.3712708809904335 19.780343442087865 5.516017399806563 0 0 0
96 0 2 2.2208 8.541083436399543 23.149816963065057 5.570995372982728 0 0 0
97 0 2 2.2208 8.082697527798555 20.326701599064616 8.125822262232159 0 0 0
98 0 2 2.2208 5.415723609698213 22.837360202453944 8.1373529183792 0 0 0
99 0 2 2.2208 11.173603664932518 20.23190008787437 5.459085584149479 0 0 0
100 0 2 2.2208 11.299763890250542 22.79138742934707 8.499431189477594 0 0 0
101 0 1 -1.1104 9.678616581814287 18.838497155063575 12.71191376713191 0 0 0
102 0 2 2.2208 2.787589108622609 0.47068209802077765 11.373422128715312 0 0 0
103 0 1 -1.1104 6.961116663599344 18.693436412149175 12.626864448906554 0 0 0
104 0 2 2.2208 8.327099359826784 0.2900929932120701 11.297759748361566 0 0 0
105 0 1 -1.1104 9.798120047599678 16.16473553004697 12.602199810308031 0 0 0
249 0 1 -1.1104 10.326876201116477 10.196233950902677 6.741398287821202 0 0 0
107 0 2 2.2208 2.6550560484467787 5.791283846207866 11.178393413411255 0 0 0
108 0 2 2.2208 5.567132061179963 3.014553058907559 11.250489139955878 0 0 0
109 0 2 2.2208 8.155960496994261 6.328219062584447 11.075868600643147 0 0 0
110 0 2 2.2208 11.31757690576947 2.797057481479356 11.023101237202459 0 0 0
111 0 4 2.2208 11.476888049115535 8.75252022458137 8.370524104583303 0 0 0
112 0 2 2.2208 2.4920574518403416 11.846537138073298 11.095704151755463 0 0 0
113 0 2 2.2208 5.311967153094705 8.941451748567696 11.220814788786203 0 0 0
114 0 2 2.2208 8.258347040203711 11.542834085456487 10.794755996396063 0 0 0
115 0 2 2.2208 10.686926448972038 9.10402732056146 11.603097977883579 0 0 0
116 0 1 -1.1104 12.585549065442068 21.39839810251039 12.491931867471868 0 0 0
117 0 2 2.2208 2.538915646307619 17.535075900204408 11.166284813573055 0 0 0
118 0 2 2.2208 5.355939192804706 14.620995075696511 11.344018081457515 0 0 0
119 0 2 2.2208 8.307024981077614 17.263214406077864 11.281752474513086 0 0 0
120 0 2 2.2208 11.1325198997164 14.513982975098653 11.188060065189898 0 0 0
121 0 1 -1.1104 9.637456717827828 21.753669885222056 12.713588007434897 0 0 0
122 0 2 2.2208 2.620229706622822 22.999738245018087 11.026205955457046 0 0 0
123 0 2 2.2208 5.452956102393597 20.140561941728876 11.093980737068138 0 0 0
124 0 2 2.2208 8.374320328293217 23.00767841568118 10.997828708350742 0 0 0
125 0 2 2.2208 11.090595472432689 20.02364711226928 11.051409276026266 0 0 0
126 0 1 -1.1104 1.3964863353171983 -1.6284921419432488 1.580390991862455 0 0 0
127 0 1 -1.1104 3.957458468698451 -1.1633326834081668 1.364941351118463 0 0 0
128 0 1 -1.1104 0.8986482583898516 -1.2591526366319463 4.028929054890445 0 0 0
129 0 1 -1.1104 3.9022378260673447 -0.9096271478322836 4.023559661068098 0 0 0
130 0 1 -1.1104 1.2070956454575879 1.5130998598596377 1.2802143759422373 0 0 0
131 0 1 -1.1104 4.084558796272858 1.5871159308614387 1.5420961462053824 0 0 0
132 0 1 -1.1104 1.1846960327659006 1.569075281781236 4.113886885912108 0 0 0
133 0 1 -1.1104 4.331485462481176 1.6416055322320144 4.329904145578032 0 0 0
134 0 1 -1.1104 6.596154269621861 -1.3159799253301185 1.4204868645781201 0 0 0
135 0 1 -1.1104 9.412379894405033 -1.3005876142765977 1.3911114482667362 0 0 0
136 0 1 -1.1104 6.710952474700718 -1.1006651077722978 4.199148999149922 0 0 0
137 0 1 -1.1104 9.23116960236394 -1.2565339861671878 4.060258754621057 0 0 0
138 0 1 -1.1104 6.894904871810283 1.6161342751158396 1.5597400099810719 0 0 0
139 0 1 -1.1104 9.88112414341273 1.4237993311988872 1.3028606843668198 0 0 0
140 0 1 -1.1104 7.116595055586388 1.7757791562478877 4.3311699391303025 0 0 0
141 0 1 -1.1104 9.843856703133943 1.5248139123482465 4.3798061608656305 0 0 0
142 0 1 -1.1104 12.375412915120213 -1.0705698926787452 1.2231656938532223 0 0 0
143 0 1 -1.1104 12.334537906396813 -1.1105940842214237 4.376478858909863 0 0 0
144 0 1 -1.1104 12.6110797802184 1.9130542631669882 1.6057690310696102 0 0 0
145 0 1 -1.1104 12.759070217560966 1.7338521660671709 4.246456557631119 0 0 0
338 0 2 2.2208 8.328560006524418 14.577025914079904 13.861048956059538 0 0 0
147 0 1 -1.1104 3.8126589181293347 4.307414817119774 1.0715637851484157 0 0 0
148 0 1 -1.1104 1.1011115345380111 4.4600178044629155 4.359746419724661 0 0 0
149 0 1 -1.1104 4.003044462106442 4.469494338109096 4.082767992417911 0 0 0
150 0 1 -1.1104 1.0474383834943415 4.390591448838881 1.2505123068006962 0 0 0
151 0 1 -1.1104 4.149778493480641 7.171769852088599 0.9762076058181287 0 0 0
152 0 1 -1.1104 1.3167095780747295 7.50903404539868 4.002807975417395 0 0 0
153 0 1 -1.1104 3.9036127917505477 7.3567607688311565 3.8869097345045085 0 0 0
154 0 1 -1.1104 6.549984807247205 4.371374333933216 1.6030920246965046 0 0 0
155 0 1 -1.1104 9.936070128546962 4.324925996292414 1.4620020662586974 0 0 0
156 0 1 -1.1104 6.778323951606175 4.507513074245447 4.47545892048657 0 0 0
157 0 1 -1.1104 9.62586998742663 4.50291206640609 4.244707940255199 0 0 0
158 0 1 -1.1104 6.8574210322411115 7.185566450820397 1.2240603473680516 0 0 0
159 0 1 -1.1104 9.498257271912776 6.9955913663488065 1.256408847622997 0 0 0
160 0 1 -1.1104 6.660896534171048 7.389759186275348 4.092753034564339 0 0 0
161 0 1 -1.1104 9.578192344378905 7.142335300808191 3.8850235975777614 0 0 0
162 0 1 -1.1104 12.48327466415539 4.674731219198743 1.0579119523931584 0 0 0
163 0 1 -1.1104 12.558359195122707 4.55453635911418 3.8280366973841455 0 0 0
164 0 1 -1.1104 12.659796454747855 7.3336767694867575 4.1031503365529645 0 0 0
666 0 2 2.2208 8.251932866130604 5.6993938516047145 -0.10372413069582281 0 0 0
166 0 1 -1.1104 1.2656056835545104 10.253994358412266 0.9388524240885395 0 0 0
167 0 1 -1.1104 3.994346681871801 10.154986479103092 1.2539146031758317 0 0 0
168 0 1 -1.1104 1.2244485718284357 10.157751120492925 3.8809071236111934 0 0 0
169 0 1 -1.1104 3.9371973083368466 10.43225027977711 4.034220900699283 0 0 0
170 0 1 -1.1104 1.0612836715385925 13.129935864610975 1.1464858938410332 0 0 0
171 0 1 -1.1104 3.543565297197215 12.875813877643667 1.2820637209025147 0 0 0
172 0 1 -1.1104 1.102652351863698 12.984622713724818 3.896618866575959 0 0 0
173 0 1 -1.1104 4.214689772403703 13.001404722906763 4.050814066478164 0 0 0
174 0 1 -1.1104 6.795634290775661 10.262096729679222 1.0414043896520224 0 0 0
175 0 1 -1.1104 9.646100675959627 9.90436723430468 1.357991814214443 0 0 0
176 0 1 -1.1104 6.757212256358971 10.291415243419303 3.78811210017852 0 0 0
177 0 1 -1.1104 9.611880145367511 9.742965075205124 4.2665771905667 0 0 0
178 0 1 -1.1104 6.835635086886653 13.039350281732192 1.3237866167951626 0 0 0
179 0 1 -1.1104 9.700447877049669 12.797149777591665 1.0692440864406632 0 0 0
180 0 1 -1.1104 6.99311658896799 12.979523605499566 4.009155262850903 0 0 0
181 0 1 -1.1104 9.985561904789497 12.63794956556498 4.1751859921645655 0 0 0
182 0 1 -1.1104 12.278903075061255 9.839512556169652 1.3362526066070082 0 0 0
183 0 1 -1.1104 12.194743552868538 10.067204698299054 4.324044581343382 0 0 0
184 0 1 -1.1104 12.571737232848825 12.75918440552116 1.0508825568197515 0 0 0
185 0 1 -1.1104 12.836787329691681 12.855516031598027 3.7317262096372414 0 0 0
186 0 1 -1.1104 1.095448474344049 15.804226577819875 1.5228509402119024 0 0 0
187 0 1 -1.1104 3.976054115904401 15.587300842491082 1.1226612554007462 0 0 0
188 0 1 -1.1104 1.2454858200149805 15.918576880872628 4.068921663809256 0 0 0
189 0 1 -1.1104 3.966793166171807 15.703259791186143 4.234706559996185 0 0 0
190 0 1 -1.1104 1.2606199009266947 18.671712310048534 1.0309911919202994 0 0 0
191 0 1 -1.1104 3.9959832799961177 18.96151835680881 1.2708289408494644 0 0 0
192 0 1 -1.1104 1.1731784726367531 18.67893622916871 4.131395387191863 0 0 0
193 0 1 -1.1104 3.891237963820457 18.606393733718892 4.284745513220552 0 0 0
194 0 1 -1.1104 6.470326102948111 16.208347117201086 0.8392397267322681 0 0 0
195 0 1 -1.1104 9.200313240498797 15.746498248658959 1.1980521901292862 0 0 0
196 0 1 -1.1104 6.381275255115337 15.618584962263771 3.480096450547471 0 0 0
197 0 1 -1.1104 10.890315631140066 14.798412668628607 2.843976341212737 0 0 0
198 0 1 -1.1104 6.847329170657574 18.641287103075097 1.524767024250938 0 0 0
199 0 1 -1.1104 9.466536097623518 18.24052715626456 1.292001579021168 0 0 0
200 0 1 -1.1104 6.976599226993752 18.47938074225432 4.347296507189996 0 0 0
201 0 1 -1.1104 8.90170854226497 15.614347504408936 4.490655545854601 0 0 0
202 0 1 -1.1104 12.969073518878476 15.728536927768623 1.3620723473250398 0 0 0
203 0 1 -1.1104 12.36291376083869 16.097947699988573 4.150326540844824 0 0 0
204 0 1 -1.1104 12.445168071010077 18.627420406935748 1.102638789072318 0 0 0
205 0 1 -1.1104 12.39353197228548 18.8593105581916 3.828479514688298 0 0 0
206 0 1 -1.1104 1.2580530205246865 21.908309900364216 1.0355794169749408 0 0 0
207 0 1 -1.1104 3.84129147970834 21.659627872177122 0.8386237084264755 0 0 0
208 0 1 -1.1104 1.193522234428694 21.695596836292538 3.826418285338252 0 0 0
209 0 1 -1.1104 3.7243323808557505 21.92689428642712 3.64124464125732 0 0 0
210 0 1 -1.1104 6.667915288930137 21.652110768533095 1.112509541957446 0 0 0
211 0 1 -1.1104 9.479709536239506 21.15880764894188 0.7159517698420859 0 0 0
212 0 1 -1.1104 6.523909748078163 21.340815872258897 3.851724615453566 0 0 0
213 0 1 -1.1104 9.45472070306607 21.187214058928262 4.356776184927209 0 0 0
214 0 1 -1.1104 12.505934609463278 21.57363847867938 1.1611470436268279 0 0 0
215 0 1 -1.1104 12.407300038988254 21.58200453141236 4.103463485267863 0 0 0
216 0 1 -1.1104 1.1249274151066688 -1.1953375733978229 6.883865104450892 0 0 0
217 0 1 -1.1104 3.984545302852443 -1.2075960161685617 6.882963925914056 0 0 0
218 0 1 -1.1104 1.3516808466137131 -0.9411169333898608 9.69177484411589 0 0 0
219 0 1 -1.1104 4.371188832176619 -1.319914759837774 9.766454226237727 0 0 0
220 0 1 -1.1104 1.2221668644068207 1.6642042442896738 6.808781362182843 0 0 0
221 0 1 -1.1104 4.02529344027319 1.6518160489684266 7.063677244445723 0 0 0
222 0 1 -1.1104 0.8183885712608608 1.849736287705923 9.608957280288603 0 0 0
223 0 1 -1.1104 3.951813758453158 1.7034647501574358 9.874816817094583 0 0 0
224 0 1 -1.1104 6.879650492260486 -1.3197751061989287 6.94359770442641 0 0 0
225 0 1 -1.1104 9.890691323717473 -1.127730404782738 7.199338971533573 0 0 0
226 0 1 -1.1104 6.999432306484633 -1.0830105107173476 9.918694238945605 0 0 0
227 0 1 -1.1104 9.620897046985307 1.7393555942689116 9.877855382088663 0 0 0
228 0 1 -1.1104 6.898351491743451 1.5358887697775916 7.027021664392762 0 0 0
229 0 1 -1.1104 9.654011341098958 1.6281916332693889 7.137394939400988 0 0 0
230 0 1 -1.1104 6.759557884034963 1.5079830058160757 9.770331849816824 0 0 0
231 0 1 -1.1104 9.70136171978735 4.419712918381837 9.328392699059808 0 0 0
232 0 1 -1.1104 12.918745140184017 -1.0108258054916472 7.2015918341947485 0 0 0
233 0 1 -1.1104 12.491357309458971 -1.334309165540607 9.944181724467427 0 0 0
234 0 1 -1.1104 12.39328666262571 2.100216381370321 6.962056957955078 0 0 0
235 0 1 -1.1104 12.590286018887022 1.499619554176021 9.702009701522199 0 0 0
236 0 1 -1.1104 0.9584500345983781 4.471486546730549 7.115894965454826 0 0 0
237 0 1 -1.1104 4.028379290701562 4.520195662446728 6.864867113152656 0 0 0
238 0 1 -1.1104 1.2366421806944843 4.481665159074346 9.913554463214247 0 0 0
239 0 1 -1.1104 3.8764905179286426 4.507612333813583 9.623400145849885 0 0 0
240 0 1 -1.1104 1.071287578403063 7.1593433397039234 6.8321783538337435 0 0 0
241 0 1 -1.1104 3.9423727946592884 7.459539102114812 6.784455702555496 0 0 0
242 0 1 -1.1104 1.0689409856581447 7.291763056947009 9.549603523875193 0 0 0
243 0 1 -1.1104 4.008633501167972 7.198954142218269 9.753257143829295 0 0 0
244 0 1 -1.1104 6.82710846785872 4.248739564543023 7.244525028538562 0 0 0
245 0 1 -1.1104 9.761264614217787 4.772844373725218 6.936105071818371 0 0 0
246 0 1 -1.1104 7.068975318155846 4.487065400630555 9.836814655167325 0 0 0
247 0 1 -1.1104 12.991123029563873 10.693524031306103 7.621373378258975 0 0 0
248 0 1 -1.1104 6.884777920774792 7.273450567523401 6.808226816047407 0 0 0
24 0 2 2.2208 5.152867109906216 6.1058244191990525 13.88947391472543 0 0 0
250 0 1 -1.1104 6.667405099543575 7.386332094218334 9.53787034814176 0 0 0
251 0 1 -1.1104 10.192843494151585 10.141935581184923 9.610729137606759 0 0 0
252 0 1 -1.1104 12.637856849904278 4.646161795075984 6.7003348215013245 0 0 0
253 0 1 -1.1104 12.586734104725751 4.324564872739144 9.610491308527704 0 0 0
254 0 1 -1.1104 8.362960239183721 9.186355828319604 10.799995361410552 0 0 0
667 0 2 2.2208 10.962199352103918 2.91023982328512 0.04339842176077787 0 0 0
256 0 1 -1.1104 1.2874034280052238 10.09668286903453 6.581442559785956 0 0 0
257 0 1 -1.1104 4.170659346434103 10.34296777872469 6.781244107626587 0 0 0
258 0 1 -1.1104 1.1808484205115402 10.231999012785376 9.566630107826196 0 0 0
259 0 1 -1.1104 3.830758699076163 10.421374444857506 9.863424770493323 0 0 0
260 0 1 -1.1104 1.012089859376699 12.908440934005096 6.902766559076476 0 0 0
261 0 1 -1.1104 4.047041266681757 13.026583503952907 6.974250569921827 0 0 0
262 0 1 -1.1104 0.9083542344148661 12.993170125196016 9.743554609337162 0 0 0
263 0 1 -1.1104 3.9145238634648583 13.209732651211134 9.707151513488968 0 0 0
264 0 1 -1.1104 6.812361833786507 10.119052348407344 6.682974510658019 0 0 0
265 0 1 -1.1104 8.448494118508695 11.219589212281157 8.184995534945369 0 0 0
266 0 1 -1.1104 6.401601945587516 10.020335522033847 9.642348146552546 0 0 0
668 0 2 2.2208 5.546378388483544 8.643064957211616 -0.1422531999871627 0 0 0
268 0 1 -1.1104 6.84431680464968 12.993955650425878 6.896631336122548 0 0 0
269 0 1 -1.1104 9.71458911439887 13.277699575073203 6.967869698121715 0 0 0
270 0 1 -1.1104 6.751269986940551 13.07805796107742 9.503755196020581 0 0 0
271 0 1 -1.1104 9.541494408929339 13.088226148310431 9.873113070198393 0 0 0
8233 0 2 2.2208 5.542631742960976 -2.467901782030399 11.236688996332061 0 0 0
273 0 1 -1.1104 9.971265752830202 7.541587524921658 7.0057735008641435 0 0 0
274 0 1 -1.1104 12.497691979342884 13.14379181945116 6.805034933431024 0 0 0
275 0 1 -1.1104 12.46326298146671 12.795289021478744 9.532932157454393 0 0 0
276 0 1 -1.1104 1.2351808081582996 15.621351816558652 6.753118619381089 0 0 0
277 0 1 -1.1104 4.166031921067583 16.02040522070932 7.086859884297433 0 0 0
278 0 1 -1.1104 1.085745411766125 15.85808537148781 9.588822344157043 0 0 0
279 0 1 -1.1104 4.141780641510893 16.043933749387765 9.901688214286532 0 0 0
280 0 1 -1.1104 1.2623277448810653 18.63386310623497 6.840252473322109 0 0 0
281 0 1 -1.1104 3.9821618780900776 18.695379631963085 6.988564589215124 0 0 0
282 0 1 -1.1104 1.1760949274042594 18.827901074014317 9.800062097410372 0 0 0
283 0 1 -1.1104 4.307534998370082 18.68345732096479 9.866532260549915 0 0 0
284 0 1 -1.1104 6.899866283695469 15.82029726052922 7.065190541994172 0 0 0
285 0 1 -1.1104 9.857934922023938 16.04027414069986 7.039076206025242 0 0 0
286 0 1 -1.1104 7.248457668702025 16.077530376881768 9.583633157044284 0 0 0
287 0 1 -1.1104 9.90585903361483 15.781433438509774 9.770408182800615 0 0 0
288 0 1 -1.1104 6.969851520004022 18.723513743860224 6.926599266473265 0 0 0
289 0 1 -1.1104 9.582872785452798 18.815167436071345 6.908918276029892 0 0 0
290 0 1 -1.1104 7.128932598383394 18.84247680150124 9.84751420136619 0 0 0
291 0 1 -1.1104 10.03723989792072 18.699238256300706 9.695724945492461 0 0 0
292 0 1 -1.1104 12.910261352146106 16.157090377347153 6.932877047654204 0 0 0
293 0 1 -1.1104 12.682905148699778 15.610838651791823 9.634538593047358 0 0 0
294 0 1 -1.1104 12.46822843886472 18.847352160456055 6.825844172763397 0 0 0
295 0 1 -1.1104 12.710335066215801 18.6060189503392 9.838434819092292 0 0 0
296 0 1 -1.1104 1.4647146805576363 21.75290110825003 6.8937450887400535 0 0 0
297 0 1 -1.1104 3.978568863951522 21.502339472235185 6.735202955928832 0 0 0
298 0 1 -1.1104 1.2013837796052649 21.843045717433572 9.94645527902507 0 0 0
299 0 1 -1.1104 4.09050005965906 21.469141567610386 9.416520466061492 0 0 0
300 0 1 -1.1104 6.793505729130079 21.599858254920274 6.747755844371763 0 0 0
301 0 1 -1.1104 9.591352661432055 17.924813366714393 3.9252469367078895 0 0 0
302 0 1 -1.1104 6.754591126065904 21.66838651638992 9.649172160847025 0 0 0
303 0 1 -1.1104 9.646691945627449 21.27898362647458 9.801458413162171 0 0 0
304 0 1 -1.1104 12.768017893899843 21.621543673185894 6.864662664035767 0 0 0
305 0 1 -1.1104 12.560458658535504 21.606969120402926 9.808531178472165 0 0 0
306 0 1 -1.1104 1.3021800481122934 -1.0238593614208735 12.55808042583808 0 0 0
307 0 1 -1.1104 4.2324907700562235 -1.0523375187883879 12.663983937572434 0 0 0
308 0 1 -1.1104 1.4691564869256155 2.0135197907576163 12.463251233505343 0 0 0
309 0 1 -1.1104 4.310291446611641 1.8097873075924678 12.98564372012001 0 0 0
310 0 1 -1.1104 7.368046919043996 -0.9800221304857567 12.813187315406859 0 0 0
311 0 1 -1.1104 9.89214412253697 -1.2604493687496658 12.801432831415136 0 0 0
312 0 1 -1.1104 6.998850396040235 1.8906253543397402 12.534576937911867 0 0 0
313 0 1 -1.1104 9.788097302113082 1.4631074034945362 12.669303997071902 0 0 0
314 0 1 -1.1104 12.637778522126345 -1.1067073634757978 12.85027944805797 0 0 0
883 0 1 -1.1104 9.755200784214791 21.760010247099288 7.115638160074305 0 0 0
607 0 1 -1.1104 1.1481363563381664 7.358665063468374 1.4932850585882098 0 0 1
9065 0 2 2.2208 13.757514694182355 5.8875106758008 11.095565576402267 0 0 0
795 0 1 -1.1104 8.297473275866558 22.923554828761663 2.8180269121424897 0 0 0
8241 0 2 2.2208 8.226514165664659 -2.5321118929830853 8.315530824626505 0 0 0
8236 0 2 2.2208 -0.05183446643616614 -2.3857043267304316 11.214799958811335 0 0 0
8968 0 2 2.2208 -0.20896350053101226 23.009086043836458 8.266106831685473 0 0 0
671 0 2 2.2208 2.5423597113044387 17.192356333471846 -0.1851708305315768 0 0 0
165 0 1 -1.1104 12.569349385657219 9.444907953356605 10.23028359367051 0 0 0
9198 0 1 -1.1104 10.24366856614386 7.256801545145845 9.566075128726691 0 0 0
328 0 2 2.2208 8.312403600073065 3.1672099772983686 13.868624798788455 0 0 0
409 0 2 2.2208 5.459775074375588 14.330357147049696 -0.25086687246391337 0 0 0
8247 0 2 2.2208 2.5395335316270033 -2.547582767520908 8.32208335771245 0 0 0
272 0 1 -1.1104 12.78787397519458 7.928853536446527 6.861471593360405 0 0 0
9295 0 2 2.2208 -0.20509853808006237 5.95010426528156 2.9597101401928185 0 0 0
9063 0 2 2.2208 -0.14801793758498374 23.149181378277763 2.5039621670274133 0 0 0
670 0 2 2.2208 10.918241323571682 8.633962751590227 -0.21249332038130586 0 0 0
8963 0 2 2.2208 0.0012031530927235129 17.43623885140499 2.7445529256022216 0 0 0
665 0 2 2.2208 5.506327394163929 3.0877947443642104 0.09040141895352913 0 0 0
319 0 2 2.2208 5.410708761332719 17.383246261254854 13.87870354379509 0 0 0
9016 0 2 2.2208 -0.18285876781525895 17.354525329554445 8.461354125969143 0 0 0
9030 0 2 2.2208 13.836841105677541 11.748041552404672 5.597348230808087 0 0 0
9254 0 1 -1.1104 -0.22645011899397813 20.371585471238046 8.294566427414246 1 0 0
8240 0 2 2.2208 11.108862224202296 -2.485784292136581 5.776108499675611 0 0 0
369 0 3 -1.1104 0.9935757880384698 -1.0517333717482595 24.15112088591806 0 0 0
366 0 4 2.2208 8.383255488018873 23.042889520424737 14.128884190133714 0 0 0
14 0 2 2.2208 5.432029437872199 11.6909281050574 14.061824056487351 0 0 0
575 0 1 -1.1104 8.358644127504146 20.284855229677035 16.76857739082499 0 0 0
482 0 1 -1.1104 6.995821177163829 21.889871462924432 15.58434989175841 0 0 0
396 0 2 2.2208 11.18055688426034 19.875806964913757 28.06686531566035 0 0 -1
327 0 1 -1.1104 6.927305887985126 21.41534094619862 23.79686836365035 0 0 0
8924 0 2 2.2208 2.5708198426123974 -2.468855143552919 13.980969460109348 0 0 0
329 0 1 -1.1104 4.074135697482347 21.627691708696556 26.6793825264678 0 0 0
354 0 2 2.2208 13.894716271789116 0.04198755325058678 22.71196830704879 0 0 0
331 0 1 -1.1104 1.361755499560543 21.66318387670831 26.72725332583074 0 0 0
332 0 3 -1.1104 9.953762064240632 18.444710381141196 21.402669360924563 0 0 0
651 0 1 -1.1104 7.21341037349503 15.816643450200207 26.746968941183844 0 0 0
334 0 1 -1.1104 4.113112198329868 21.605379104933917 23.55123721879124 0 0 0
345 0 2 2.2208 11.560583337766593 22.771436944701 14.005303049220291 0 0 0
336 0 1 -1.1104 1.3937006542658168 21.288542368591475 24.05883630192179 0 0 0
337 0 3 -1.1104 12.659299706695673 7.333106642342818 24.054264551527712 0 0 0
340 0 2 2.2208 11.22393318935882 17.211702025083007 14.009256685146315 0 0 0
339 0 1 -1.1104 12.726881472525061 18.521938840955546 26.665277655509087 0 0 0
346 0 2 2.2208 2.666616150218112 2.953809247135509 14.333279309908642 0 0 0
341 0 1 -1.1104 12.47564889157428 18.783601035781405 23.94744740336121 0 0 0
9644 0 2 2.2208 13.808643244204973 2.842491814916556 25.580839482649463 0 0 0
325 0 2 2.2208 11.113169884751839 0.18401530721244014 14.305540282134675 0 0 0
656 0 1 -1.1104 9.732224647228286 18.736592209798566 27.077501178728287 0 0 0
8927 0 2 2.2208 2.6476523117356394 -2.5029840297773824 19.62007099092941 0 0 0
84 0 2 2.2208 2.473465884116144 8.678258190817699 13.983279929866592 0 0 0
347 0 2 2.2208 2.5894170954868874 0.3497445330601513 16.847475934804827 0 0 0
585 0 1 -1.1104 1.0281100301775241 4.325689960012436 23.889051565938797 0 0 0
406 0 2 2.2208 -0.13160592773491292 3.1905729721718106 22.618286006419623 0 0 0
8250 0 2 2.2208 8.374289313017943 -2.4950736912130678 14.157483219760962 0 0 0
351 0 2 2.2208 8.197214994396347 0.2487474387879099 16.883014605552944 0 0 0
650 0 1 -1.1104 9.68378504830828 15.887232334506923 24.22181995616964 0 0 0
353 0 2 2.2208 5.557095830767159 0.2740941739396673 19.717021104645553 0 0 0
483 0 1 -1.1104 6.98826698560263 18.467116385747776 15.461543048925696 0 0 0
355 0 2 2.2208 11.009550396458875 0.37856975304850576 19.640301308820625 0 0 0
655 0 1 -1.1104 6.746843783006588 18.82560388705172 26.852567578618256 0 0 0
357 0 2 2.2208 2.2776318405068223 5.79216965429 16.841644535361993 0 0 0
358 0 2 2.2208 2.6175659415487655 3.0380976497147905 19.727720869680105 0 0 0
146 0 1 -1.1104 0.9243519784620181 4.624876273135709 26.42384602482657 0 0 -1
360 0 2 2.2208 5.4521467940513455 3.2706721227134605 16.954966129375453 0 0 0
361 0 2 2.2208 8.121718426911286 6.100569887014925 16.67112967776506 0 0 0
362 0 2 2.2208 8.363211503009524 3.1486161232502115 19.61302677240988 0 0 0
363 0 2 2.2208 5.225991440898807 5.905456644142004 19.83246187910366 0 0 0
364 0 2 2.2208 10.915849651456035 3.2051866027690905 16.850682648256797 0 0 0
365 0 2 2.2208 11.013164787628329 6.077167707649213 19.702668231211113 0 0 0
9643 0 2 2.2208 -0.16599030937468884 0.2664046541560559 19.5861848183459 0 0 0
367 0 2 2.2208 2.38123685964885 11.601056726733486 16.3855014032468 0 0 0