LAMMPS (29 Oct 2020)
OMP_NUM_THREADS environment is not set. Defaulting to 1 thread. (../comm.cpp:94)
  using 1 OpenMP thread(s) per MPI task
#---------------------------------------
#
# This script is used to calculate the thermal conuctivity of UO2 using Muller-Plathe method
# By Ziqiang Wang on 03/18/2022 on Jilin university
#
#---------------------------------------

variable     Nevery    equal   50
variable     T         equal   1200

clear
OMP_NUM_THREADS environment is not set. Defaulting to 1 thread. (../comm.cpp:94)
  using 1 OpenMP thread(s) per MPI task
units          metal
boundary       p p p
atom_style     full

read_data vac_0_relaxed.dat
Reading data file ...
  orthogonal box = (-0.43662185 -7.9031625 -0.43506424) to (27.776622 500.02316 27.775064)
  2 by 26 by 1 MPI processor grid
  reading atoms ...
  27000 atoms
  reading velocities ...
  27000 velocities
Finding 1-2 1-3 1-4 neighbors ...
  special bond factors lj:    0.0      0.0      0.0     
  special bond factors coul:  0.0      0.0      0.0     
     0 = max # of 1-2 neighbors
     0 = max # of 1-3 neighbors
     0 = max # of 1-4 neighbors
     1 = max # of special neighbors
  special bonds CPU = 0.004 seconds
  read_data CPU = 0.109 seconds

set           type     1    charge     -1.1104
Setting atom values ...
  18000 settings made for charge
set           type     2    charge      2.2208
Setting atom values ...
  9000 settings made for charge

kspace_style    pppm   1.0e-05
pair_style      hybrid/overlay  coul/long  11.0  eam/alloy
pair_coeff      * * coul/long
pair_coeff      * * eam/alloy CeThUNpPuAmCmO.eam.alloy O Th Th O
newton          on
neighbor        0.3 bin
neigh_modify    delay 0 check yes every 1

#The first equilation
velocity        all create $T 10001 mom yes rot yes dist gaussian
velocity        all create 1200 10001 mom yes rot yes dist gaussian
fix             nvt  all  nvt  temp  $T $T  0.1
fix             nvt  all  nvt  temp  1200 $T  0.1
fix             nvt  all  nvt  temp  1200 1200  0.1

run             100000
PPPM initialization ...
  using 12-bit tables for long-range coulomb (../kspace.cpp:328)
  G vector (1/distance) = 0.29865404
  grid = 40 360 40
  stencil order = 5
  estimated absolute RMS force accuracy = 0.0001586041
  estimated relative force accuracy = 1.1014445e-05
  using single precision MKL FFT
  3d grid and FFT values/proc = 21375 11200
Neighbor list info ...
  update every 1 steps, delay 0 steps, check yes
  max neighbors/atom: 2000, page size: 100000
  master list distance cutoff = 11.3
  ghost atom cutoff = 11.3
  binsize = 5.65, bins = 5 90 5
  2 neighbor lists, perpetual/occasional/extra = 2 0 0
  (1) pair coul/long, perpetual
      attributes: half, newton on
      pair build: half/bin/newton
      stencil: half/bin/3d/newton
      bin: standard
  (2) pair eam/alloy, perpetual, copy from (1)
      attributes: half, newton on
      pair build: copy
      stencil: none
      bin: none
Per MPI rank memory allocation (min/avg/max) = 9.236 | 9.324 | 9.372 Mbytes
Step Temp E_pair E_mol TotEng Press 
       0         1200   -350937.97            0   -346750.09    613.75851 
  100000    1193.2906   -350967.54            0   -346803.08    699.54661 
Loop time of 939.015 on 52 procs for 100000 steps with 27000 atoms

Performance: 9.201 ns/day, 2.608 hours/ns, 106.495 timesteps/s
99.8% CPU use with 52 MPI tasks x 1 OpenMP threads

MPI task timing breakdown:
Section |  min time  |  avg time  |  max time  |%varavg| %total
---------------------------------------------------------------
Pair    | 629.02     | 640.31     | 653.63     |  22.5 | 68.19
Bond    | 0.0080635  | 0.013235   | 0.019681   |   1.7 |  0.00
Kspace  | 187.35     | 202.72     | 217.94     |  42.7 | 21.59
Neigh   | 71.363     | 72.733     | 75.363     |   9.5 |  7.75
Comm    | 15.575     | 16.281     | 19.089     |  18.2 |  1.73
Output  | 5.7745e-05 | 6.314e-05  | 0.0002594  |   0.0 |  0.00
Modify  | 2.4038     | 5.1178     | 6.653      |  60.7 |  0.55
Other   |            | 1.84       |            |       |  0.20

Nlocal:        519.231 ave         532 max         492 min
Histogram: 3 0 2 1 3 5 4 10 21 3
Nghost:        4733.44 ave        4780 max        4615 min
Histogram: 4 0 0 0 0 4 5 19 18 2
Neighs:       104735.0 ave      107250 max       98705 min
Histogram: 2 2 1 2 3 3 3 11 17 8

Total # of neighbors = 5446215
Ave neighs/atom = 201.71167
Ave special neighs/atom = 0.0000000
Neighbor list builds = 22704
Dangerous builds = 0
unfix           nvt
reset_timestep  0

# the second run
fix             1 all nve

group           oxygen type 1
18000 atoms in group oxygen
fix             2 oxygen thermal/conductivity ${Nevery} y 20
fix             2 oxygen thermal/conductivity 50 y 20

compute         ke all ke/atom
variable        temp atom c_ke/1.5
compute         layers all chunk/atom bin/1d y lower 0.05 units reduced
fix             3      all ave/chunk  2000 50 100000 layers v_temp file profile_${T}K.mp
fix             3      all ave/chunk  2000 50 100000 layers v_temp file profile_1200K.mp

variable        Tdiff    equal     f_3[11][3]-f_3[1][3]
variable        deltaT   equal     v_Tdiff*1.5/0.0001292

timestep        0.001
thermo_style    custom step f_2 temp v_Tdiff v_deltaT
thermo          100000

run             1500000
PPPM initialization ...
  using 12-bit tables for long-range coulomb (../kspace.cpp:328)
  G vector (1/distance) = 0.29865404
  grid = 40 360 40
  stencil order = 5
  estimated absolute RMS force accuracy = 0.0001586041
  estimated relative force accuracy = 1.1014445e-05
  using single precision MKL FFT
  3d grid and FFT values/proc = 21375 11200
Per MPI rank memory allocation (min/avg/max) = 9.558 | 9.602 | 9.622 Mbytes
Step f_2 Temp v_Tdiff v_deltaT 
       0            0    1193.2906            0            0 
  100000    1360.3219    1203.3865  0.050068988     581.2963 
  200000     2593.503    1199.4028  0.066822494    775.80295 
  300000     3811.904    1193.9724  0.069476616    806.61706 
  400000    5040.4525     1193.384  0.069326838    804.87815 
  500000    6270.3121    1193.2577  0.068297562    792.92835 
  600000    7503.1347    1197.8888  0.067105891    779.09317 
  700000    8716.0495    1199.0626  0.067173625    779.87955 
  800000    9941.4195    1197.5014  0.067855905    787.80075 
  900000    11163.557    1203.2951  0.066410902     771.0244 
 1000000    12391.978    1204.9089  0.067077779    778.76679 
 1100000    13625.361    1195.5438  0.067044678    778.38249 
 1200000    14865.342     1197.167  0.067051971    778.46715 
 1300000     16101.69    1201.2393  0.066994801    777.80342 
 1400000    17330.426    1205.5981  0.068458154    794.79281 
 1500000    18565.125    1205.3478  0.067646692    785.37181 
Loop time of 13899.9 on 52 procs for 1500000 steps with 27000 atoms

Performance: 9.324 ns/day, 2.574 hours/ns, 107.915 timesteps/s
99.8% CPU use with 52 MPI tasks x 1 OpenMP threads

MPI task timing breakdown:
Section |  min time  |  avg time  |  max time  |%varavg| %total
---------------------------------------------------------------
Pair    | 9277.7     | 9376.7     | 9472.2     |  50.7 | 67.46
Bond    | 0.12593    | 0.19983    | 0.28239    |   7.2 |  0.00
Kspace  | 2898.9     | 3016.2     | 3141       | 113.3 | 21.70
Neigh   | 1135.5     | 1174.1     | 1199.1     |  50.1 |  8.45
Comm    | 229.85     | 248.92     | 290.8      |  96.9 |  1.79
Output  | 0.0016265  | 0.0017046  | 0.0035815  |   0.6 |  0.00
Modify  | 11.611     | 13.577     | 15.004     |  27.0 |  0.10
Other   |            | 70.16      |            |       |  0.50

Nlocal:        519.231 ave         530 max         493 min
Histogram: 2 1 3 1 3 2 4 9 20 7
Nghost:        4740.56 ave        4787 max        4650 min
Histogram: 1 3 3 2 1 3 8 16 11 4
Neighs:       104729.0 ave      107579 max       99912 min
Histogram: 1 3 2 3 6 3 9 12 9 4

Total # of neighbors = 5445924
Ave neighs/atom = 201.70089
Ave special neighs/atom = 0.0000000
Neighbor list builds = 368804
Dangerous builds = 0

Total wall time: 4:07:19
