ITEM: TIMESTEP
70000
ITEM: NUMBER OF ATOMS
30000
ITEM: BOX BOUNDS pp pp pp
-4.4565685581532355e-01 2.7785656855816210e+01
-8.6921853481857347e+00 5.5549218534819681e+02
-4.3522093502881648e-01 2.7775220935029083e+01
ITEM: ATOMS id type q x y z
1 2 2.2208 5.05004 -2.93646 5.02313
2 1 -1.1104 0.813524 -6.89733 0.757702
4 1 -1.1104 0.963779 -7.14967 3.54411
6 1 -1.1104 0.771763 -4.04 0.970313
7 2 2.2208 5.18066 -5.86654 2.25882
8 1 -1.1104 0.868652 -4.38603 3.90924
9 1 -1.1104 3.57296 -7.14033 1.10617
11 2 2.2208 2.2676 -2.99627 2.2822
12 1 -1.1104 3.84274 -7.23494 3.63614
14 2 2.2208 2.21283 -5.76913 5.19878
15 1 -1.1104 3.50142 -4.31577 0.68212
16 1 -1.1104 3.58557 -4.24765 3.49804
20 1 -1.1104 6.57177 -1.65937 0.910683
19 1 -1.1104 6.4254 -7.23976 0.86906
5 1 -1.1104 0.754299 -1.69993 3.62179
13 1 -1.1104 3.60091 -1.39047 3.46775
251 1 -1.1104 3.67059 -7.06667 6.40136
24 1 -1.1104 6.43184 -4.37708 3.6208
23 1 -1.1104 6.43401 -4.55077 0.803914
21 1 -1.1104 6.50748 -7.1327 3.80539
340 2 2.2208 16.125 -5.98256 13.6045
10 1 -1.1104 3.84923 -1.47609 0.698925
29075 2 2.2208 24.6666 -8.64933 2.34203
248 1 -1.1104 0.518357 -7.4283 6.54002
252 1 -1.1104 3.67137 -1.47121 6.59068
272 1 -1.1104 6.41856 -7.22702 6.44958
274 1 -1.1104 6.21995 -4.48037 6.69682
1102 2 2.2208 7.68677 11.008 -0.291808
577 2 2.2208 21.9284 8.15861 10.9938
25 2 2.2208 10.5453 -3.106 5.1751
26 1 -1.1104 11.8421 -7.1219 0.801024
28 1 -1.1104 12.0216 -7.40886 3.71518
30 1 -1.1104 12.1624 -4.44638 0.98732
31 2 2.2208 10.5194 -5.87492 2.22613
32 1 -1.1104 12.0239 -4.29895 3.60874
33 1 -1.1104 9.06455 -7.3645 0.821319
35 2 2.2208 7.84814 -3.07266 2.25927
36 1 -1.1104 9.16603 -7.40582 3.77032
38 2 2.2208 7.80246 -5.86969 5.10925
39 1 -1.1104 9.14274 -4.40107 0.848586
40 1 -1.1104 9.24404 -4.59419 3.77568
1060 2 2.2208 24.6411 5.43237 -0.218851
279 1 -1.1104 9.34462 -1.64171 6.55507
280 1 -1.1104 9.03266 -4.49384 6.45117
277 1 -1.1104 11.7875 -4.34737 6.67624
44 2 2.2208 13.4924 -3.06086 2.35967
46 2 2.2208 13.4183 -6.03574 5.13996
338 2 2.2208 13.4535 -3.13817 13.4906
29300 2 2.2208 21.6809 -8.6712 10.8421
27 1 -1.1104 11.8619 -1.76685 1.02012
29 1 -1.1104 12.1587 -1.69937 3.94973
34 1 -1.1104 9.20696 -1.49363 0.79776
276 1 -1.1104 11.9869 -1.62936 6.60605
278 1 -1.1104 9.10954 -7.31261 6.52159
275 1 -1.1104 11.8366 -7.2038 6.54769
583 1 -1.1104 26.2092 12.3803 6.9234
212 1 -1.1104 17.6845 12.5136 1.19862
1150 2 2.2208 21.9708 2.84777 -0.424363
29362 2 2.2208 7.54707 -8.73882 7.92267
47 2 2.2208 16.3844 -3.0247 5.0655
48 1 -1.1104 17.7347 -7.20958 1.02909
50 1 -1.1104 17.6794 -7.1283 3.90516
52 1 -1.1104 17.562 -4.37741 0.863596
53 2 2.2208 16.2704 -5.74155 2.33595
54 1 -1.1104 17.8994 -4.46567 3.63488
55 1 -1.1104 14.7373 -7.01432 0.935833
59 2 2.2208 19.0523 -2.83163 2.51698
60 1 -1.1104 14.7173 -7.2792 3.70651
64 2 2.2208 19.2399 -5.68611 4.97471
65 1 -1.1104 14.8782 -4.03959 0.947715
67 1 -1.1104 14.8852 -4.69002 3.76319
307 1 -1.1104 17.6635 -4.49533 6.53703
57 1 -1.1104 20.4828 -7.22895 0.732864
61 1 -1.1104 15.1717 -1.77646 3.53288
62 1 -1.1104 20.5102 -7.24257 3.57768
66 1 -1.1104 20.3963 -4.36036 0.977869
63 1 -1.1104 20.5567 -1.43114 3.89992
308 1 -1.1104 14.8407 -7.25502 6.51938
305 1 -1.1104 17.5472 -7.5015 6.70853
71 2 2.2208 -0.459082 -5.51089 2.30824
70 2 2.2208 27.5535 -3.05914 5.04544
29077 2 2.2208 27.4439 -8.57702 5.01899
29364 2 2.2208 7.76049 -8.63052 13.6288
68 1 -1.1104 20.5935 -4.4587 3.74981
75 2 2.2208 22.2797 -2.91814 5.23941
76 1 -1.1104 23.3137 -7.28226 0.827761
78 1 -1.1104 23.303 -7.27411 3.73364
80 1 -1.1104 23.2888 -4.53418 0.790479
81 2 2.2208 21.7867 -5.88906 2.18823
82 1 -1.1104 23.1369 -4.58772 3.65619
83 1 -1.1104 26.1327 -7.29556 0.895966
85 2 2.2208 24.5903 -3.06945 2.31807
86 1 -1.1104 26.1575 -7.09615 3.7119
88 2 2.2208 24.7674 -5.72416 5.07945
89 1 -1.1104 26.2329 -4.48211 0.801841
90 1 -1.1104 26.0821 -4.35421 3.78515
29051 2 2.2208 16.2737 -8.68798 5.22477
87 1 -1.1104 25.9407 -1.72276 4.03166
79 1 -1.1104 23.2826 -1.63738 3.74423
343 1 -1.1104 23.6712 -4.38035 6.73941
573 1 -1.1104 23.1179 12.608 12.4732
341 1 -1.1104 23.2173 -7.25217 6.55807
342 1 -1.1104 23.5822 -1.65122 6.66301
345 1 -1.1104 26.1802 -1.69345 6.72025
3 1 -1.1104 0.950613 -1.23209 0.885404
22 1 -1.1104 6.49146 -1.66589 3.76288
273 1 -1.1104 6.34854 -1.91649 6.43291
91 2 2.2208 4.98558 2.69955 4.91542
92 1 -1.1104 0.535683 4.15249 0.903365
93 1 -1.1104 0.944376 4.13281 3.65782
94 1 -1.1104 0.906397 1.43133 0.714954
95 2 2.2208 5.09854 -0.154126 2.14135
97 1 -1.1104 0.750178 1.36108 3.71176
98 1 -1.1104 3.45597 4.07618 0.82688
99 2 2.2208 2.16253 2.59787 2.15097
100 1 -1.1104 3.63034 4.05994 3.61788
101 2 2.2208 2.19514 -0.102663 5.00504
103 1 -1.1104 3.68443 1.36365 0.664174
104 1 -1.1104 3.61671 1.23351 3.58727
102 2 2.2208 2.17901 5.58227 5.03722
96 2 2.2208 5.18181 5.29773 2.3622
107 1 -1.1104 6.62618 3.8887 3.69145
108 1 -1.1104 6.51323 1.11502 0.773754
370 1 -1.1104 3.69313 4.02766 6.3952
369 1 -1.1104 0.848005 1.06004 6.49124
109 1 -1.1104 6.32942 1.1597 3.34753
106 1 -1.1104 6.51422 3.86716 0.998199
249 1 -1.1104 0.592863 -1.83652 6.54194
371 1 -1.1104 3.58558 1.35863 6.33775
29049 2 2.2208 13.4491 -8.61264 2.40836
37 1 -1.1104 9.23315 -1.78776 3.45421
110 2 2.2208 10.6892 2.43072 5.13448
111 1 -1.1104 12.1624 3.92627 0.703889
112 1 -1.1104 11.8199 3.89447 3.72994
113 1 -1.1104 11.9854 1.14891 0.730647
114 2 2.2208 10.7561 -0.201147 2.39603
116 1 -1.1104 11.9773 1.34736 3.61855
117 1 -1.1104 9.25788 3.90602 0.690795
118 2 2.2208 7.99769 2.38978 2.22772
119 1 -1.1104 9.30207 3.77595 3.54401
120 2 2.2208 7.72002 -0.365775 5.21716
122 1 -1.1104 9.40021 1.26468 0.728664
123 1 -1.1104 9.14973 1.02608 3.84415
115 2 2.2208 10.7833 5.4618 2.16759
121 2 2.2208 8.00209 5.19735 5.00289
394 1 -1.1104 9.25896 1.35593 6.45261
128 2 2.2208 13.3703 2.72708 2.26613
130 2 2.2208 13.296 5.16994 5.38087
129 2 2.2208 13.5227 -0.306096 5.06206
393 1 -1.1104 9.1672 3.85881 6.62158
568 2 2.2208 24.8409 8.30219 8.33346
56 1 -1.1104 14.9308 -1.34515 0.869137
309 1 -1.1104 15.0012 -1.60733 6.32947
58 1 -1.1104 20.4938 -1.6113 0.933826
49 1 -1.1104 17.8589 -1.58253 0.921009
51 1 -1.1104 17.8108 -1.63817 3.86344
131 2 2.2208 16.2069 2.63722 5.07941
132 1 -1.1104 17.7485 4.20461 0.938648
133 1 -1.1104 17.0099 3.97666 3.59118
134 1 -1.1104 17.6995 1.12199 0.959424
135 2 2.2208 16.3324 -0.119988 2.46567
136 2 2.2208 16.1651 5.57669 2.47205
137 1 -1.1104 17.5762 1.22112 3.73527
138 1 -1.1104 14.8012 4.23628 0.800401
140 2 2.2208 19.0375 2.71055 2.2749
141 1 -1.1104 14.5861 3.98595 3.72759
143 2 2.2208 18.9605 -0.0256034 5.29579
144 2 2.2208 19.0134 5.5079 5.41439
145 1 -1.1104 15.0414 1.44153 1.06974
147 1 -1.1104 14.7713 1.1136 3.69799
139 1 -1.1104 20.443 4.21855 1.1087
421 1 -1.1104 20.5851 1.13726 6.72712
420 1 -1.1104 14.8343 1.24038 6.62481
148 1 -1.1104 20.1937 1.46465 3.79475
146 1 -1.1104 20.5116 1.22166 0.957955
142 1 -1.1104 20.0293 4.08131 3.87764
575 1 -1.1104 23.5769 9.64692 9.66801
542 1 -1.1104 17.7758 12.4943 6.78183
84 1 -1.1104 26.3222 -1.74396 1.05194
77 1 -1.1104 23.3843 -1.7832 0.963719
152 2 2.2208 27.6606 -0.234143 2.166
153 2 2.2208 27.5886 5.41271 2.27531
151 2 2.2208 27.6007 2.54757 5.09817
154 2 2.2208 21.8251 2.55981 5.47815
155 1 -1.1104 23.2322 3.84073 1.21419
156 1 -1.1104 23.1237 3.82817 4.02126
157 1 -1.1104 23.4985 0.927228 1.11141
158 2 2.2208 21.9467 -0.258835 2.30672
160 1 -1.1104 23.1899 1.04312 3.85145
161 1 -1.1104 26.0683 3.92419 1.07637
162 2 2.2208 24.7375 2.40926 2.33803
163 1 -1.1104 26.2886 3.99721 3.86823
164 2 2.2208 24.729 -0.19828 5.18034
166 1 -1.1104 26.2386 1.1103 0.894564
167 1 -1.1104 26.0477 1.17141 3.56342
165 2 2.2208 24.7357 5.62122 5.25903
159 2 2.2208 21.8397 5.33603 2.62146
339 2 2.2208 19.069 -2.82883 13.6305
236 1 -1.1104 23.2757 12.4026 1.06876
447 1 -1.1104 23.1914 4.1811 6.76251
567 1 -1.1104 26.2929 9.81934 9.76255
172 1 -1.1104 0.709538 12.6897 1.05698
478 1 -1.1104 3.536 12.5157 6.88279
168 2 2.2208 5.05944 8.02499 5.16952
169 1 -1.1104 0.63552 9.6679 1.03905
170 1 -1.1104 0.742687 9.57796 3.79115
171 1 -1.1104 0.648803 6.86709 0.726829
173 2 2.2208 4.73281 11.1338 2.50216
174 1 -1.1104 0.686977 6.96146 3.73284
176 1 -1.1104 3.36457 9.73649 1.06485
177 2 2.2208 2.27924 8.27164 2.49726
178 1 -1.1104 3.51678 9.59965 3.83794
179 2 2.2208 2.22229 11.0805 5.33194
180 1 -1.1104 3.50429 6.98564 0.907721
182 1 -1.1104 3.69379 6.8919 3.6951
175 1 -1.1104 0.620715 12.4293 3.76985
183 1 -1.1104 3.46286 12.57 3.82594
181 1 -1.1104 3.41967 12.5414 1.06833
185 1 -1.1104 6.57348 9.34358 4.00011
186 1 -1.1104 6.31375 6.65903 1.00839
187 1 -1.1104 6.01924 12.2541 1.11037
184 1 -1.1104 6.27844 9.44 1.0357
475 1 -1.1104 0.862347 12.477 6.66643
189 1 -1.1104 6.32726 12.2763 3.68161
188 1 -1.1104 6.49923 6.49485 3.63356
507 1 -1.1104 6.37127 9.16669 6.53969
477 1 -1.1104 3.74709 6.93676 6.40941
473 1 -1.1104 0.798229 9.65113 6.63901
206 1 -1.1104 8.97824 12.2551 4.00031
190 2 2.2208 10.6585 8.15065 5.06567
191 1 -1.1104 11.9798 9.69884 1.19507
192 1 -1.1104 12.0577 9.57312 3.86386
193 1 -1.1104 12.018 6.9139 0.803775
195 2 2.2208 10.5311 10.8739 2.56164
196 1 -1.1104 11.9993 6.88466 3.61856
198 1 -1.1104 9.06298 9.56283 1.07653
199 2 2.2208 7.89885 8.0363 2.48641
200 1 -1.1104 9.37505 9.58339 3.98945
201 2 2.2208 7.65827 10.8876 5.43179
203 1 -1.1104 9.16489 6.77245 0.82308
205 1 -1.1104 9.33694 6.75006 3.77374
194 1 -1.1104 12.048 12.3539 1.03894
197 1 -1.1104 11.8704 12.2861 3.90297
204 1 -1.1104 9.28253 12.3314 1.08793
207 2 2.2208 13.4124 8.22615 2.28842
202 2 2.2208 13.3934 10.9205 5.28611
513 1 -1.1104 9.07757 9.58294 6.84101
512 1 -1.1104 12.0405 12.4388 6.58772
515 1 -1.1104 9.14875 12.4399 6.743
570 1 -1.1104 23.1509 12.5655 9.52308
29401 2 2.2208 18.9263 -8.6863 8.22258
223 1 -1.1104 14.7252 12.5362 0.961318
208 2 2.2208 16.0115 8.15933 5.2424
209 1 -1.1104 17.6267 9.86052 1.0932
210 1 -1.1104 17.4892 9.72393 3.74803
211 1 -1.1104 17.5466 6.90783 1.06074
213 2 2.2208 16.2363 11.3124 2.36009
214 1 -1.1104 17.6038 6.83813 3.93943
216 1 -1.1104 14.9294 9.67813 0.928233
218 2 2.2208 19.011 8.51289 2.60096
219 1 -1.1104 14.6765 9.59319 3.70617
221 2 2.2208 19.1079 10.8845 5.47618
222 1 -1.1104 14.6057 6.80546 1.22746
226 1 -1.1104 14.4788 6.88087 4.03187
227 1 -1.1104 14.7644 12.43 3.92739
215 1 -1.1104 17.5044 12.6215 3.85899
541 1 -1.1104 17.4751 6.98881 6.82395
545 1 -1.1104 14.7927 6.70034 6.7915
224 1 -1.1104 20.34 7.09925 1.10763
228 1 -1.1104 20.5644 6.87728 3.85245
543 1 -1.1104 14.518 9.55788 6.57849
220 1 -1.1104 20.2977 9.53552 4.10459
217 1 -1.1104 20.4868 9.78907 1.24738
540 1 -1.1104 17.7406 9.72971 6.86786
29326 2 2.2208 4.85802 -8.58483 10.6293
563 1 -1.1104 26.0965 6.92374 9.52466
582 1 -1.1104 26.1067 6.79699 6.92935
231 2 2.2208 27.434 11.163 2.35167
149 2 2.2208 27.5711 10.9388 8.08234
580 1 -1.1104 23.2994 12.5317 6.75891
230 2 2.2208 27.5019 8.33107 5.2357
225 1 -1.1104 20.5169 12.749 1.12552
229 1 -1.1104 20.4364 12.181 4.01337
239 1 -1.1104 23.1824 12.535 3.93667
468 2 2.2208 27.5474 -0.423368 13.5941
245 1 -1.1104 26.0025 12.492 1.02201
232 2 2.2208 21.8335 8.18953 5.33498
233 1 -1.1104 23.3259 9.5268 1.12185
234 1 -1.1104 23.1365 9.81408 4.09129
235 1 -1.1104 23.0526 6.745 1.31107
237 2 2.2208 21.8039 11.1744 2.47841
238 1 -1.1104 23.321 6.73354 3.90116
240 1 -1.1104 26.0532 9.74169 0.94506
241 2 2.2208 24.578 8.26783 2.63127
242 1 -1.1104 25.9851 9.84033 3.74126
243 2 2.2208 24.673 11.1145 5.33902
244 1 -1.1104 26.0718 6.83844 0.974717
246 1 -1.1104 26.0635 7.07258 4.01634
247 1 -1.1104 26.1662 12.4053 3.70469
579 1 -1.1104 23.2997 6.95809 6.65295
544 1 -1.1104 20.5723 9.47955 6.75225
574 1 -1.1104 23.3238 6.72854 12.3005
253 1 -1.1104 3.62439 -4.2809 6.31286
250 1 -1.1104 0.814334 -4.54899 6.59234
546 1 -1.1104 14.7318 12.5415 6.91202
366 2 2.2208 24.7897 -2.94227 13.684
29303 2 2.2208 1.99553 -8.78459 7.96448
254 2 2.2208 4.76777 -3.21471 10.5494
255 1 -1.1104 0.372217 -7.36202 12.2123
257 1 -1.1104 0.558487 -7.24892 9.14032
259 1 -1.1104 0.785497 -4.6709 12.2312
260 2 2.2208 4.90677 -5.8837 7.80274
261 1 -1.1104 0.764674 -4.32365 9.36872
262 1 -1.1104 3.3558 -7.06304 12.2964
264 2 2.2208 2.12178 -3.03676 7.78367
265 1 -1.1104 3.41642 -7.16671 9.19915
267 2 2.2208 1.86432 -5.9353 10.6067
268 1 -1.1104 3.56717 -4.26077 12.1416
269 1 -1.1104 3.46709 -4.44009 9.14223
266 1 -1.1104 3.36127 -1.68916 9.39076
283 1 -1.1104 6.33984 -7.30232 9.34508
285 1 -1.1104 6.39938 -4.21459 11.9684
282 1 -1.1104 6.38161 -1.40703 12.2996
286 1 -1.1104 6.19354 -4.43375 9.19479
263 1 -1.1104 3.69814 -1.62491 12.3174
284 1 -1.1104 6.23601 -1.72448 9.57178
29076 2 2.2208 21.8824 -8.49202 5.24409
304 2 2.2208 7.64607 -2.94499 13.6074
386 2 2.2208 1.93321 2.44655 13.4179
28994 2 2.2208 5.0753 -8.54989 4.92886
303 2 2.2208 10.5926 -5.75432 13.4523
365 2 2.2208 21.9702 -5.61797 13.592
1128 2 2.2208 19.0538 11.2945 -0.162593
281 1 -1.1104 5.97556 -7.15425 12.0084
287 2 2.2208 10.5509 -3.05336 10.7668
288 1 -1.1104 11.9056 -7.13172 12.1358
290 1 -1.1104 11.8621 -7.48181 9.19633
292 1 -1.1104 11.9966 -4.60892 12.1569
293 2 2.2208 10.5725 -5.98456 8.09733
294 1 -1.1104 11.8733 -4.46722 9.38732
295 1 -1.1104 9.29124 -7.4468 12.234
297 2 2.2208 7.63507 -3.10901 8.04458
298 1 -1.1104 8.9946 -7.41992 9.45652
300 2 2.2208 7.63839 -5.80714 10.6838
301 1 -1.1104 9.1792 -4.42392 12.258
302 1 -1.1104 9.10974 -4.42964 9.37762
289 1 -1.1104 11.8946 -1.68318 12.0971
314 2 2.2208 13.3461 -3.01537 7.8083
291 1 -1.1104 11.9212 -1.73623 9.21769
315 2 2.2208 13.2926 -5.84073 10.6155
296 1 -1.1104 9.05589 -1.63784 12.3319
306 1 -1.1104 17.6795 -1.89508 6.68986
443 2 2.2208 16.2149 -0.089229 13.584
387 2 2.2208 4.73091 -0.164659 13.4885
312 1 -1.1104 14.9402 -4.36537 6.51386
29275 2 2.2208 27.5233 -8.71215 10.7813
811 2 2.2208 24.6634 11.161 -0.361657
316 2 2.2208 16.1729 -3.23457 10.5408
317 1 -1.1104 17.6172 -7.32031 12.193
319 1 -1.1104 17.3044 -7.27929 9.57627
321 1 -1.1104 17.5959 -4.3307 12.3334
322 2 2.2208 16.353 -5.95897 7.85153
323 1 -1.1104 17.6929 -4.61581 9.34899
324 1 -1.1104 14.8743 -7.10515 11.9789
328 2 2.2208 19.3212 -3.13861 7.88602
329 1 -1.1104 14.5639 -7.04516 9.1088
333 2 2.2208 18.9971 -5.84865 10.7754
334 1 -1.1104 14.6631 -4.30045 12.0166
336 1 -1.1104 14.9524 -4.41845 9.20938
330 1 -1.1104 14.805 -1.752 9.27861
310 1 -1.1104 20.2873 -7.12212 6.45755
313 1 -1.1104 20.6451 -4.37871 6.39923
320 1 -1.1104 17.7549 -1.62761 9.35131
29327 2 2.2208 1.90838 -8.60991 13.6106
337 1 -1.1104 20.4974 -4.47827 9.38013
326 1 -1.1104 20.3089 -7.26691 12.0779
332 1 -1.1104 20.6222 -1.45311 9.30901
331 1 -1.1104 20.3449 -7.46517 9.46378
335 1 -1.1104 20.6962 -4.39662 12.0419
318 1 -1.1104 17.5959 -1.6261 12.2649
347 2 2.2208 27.6378 -3.06359 10.7603
348 2 2.2208 27.3923 -5.86608 7.91714
29405 2 2.2208 18.9561 -8.50752 13.5317
29399 2 2.2208 13.3251 -8.61739 7.91267
414 2 2.2208 7.8308 2.59876 13.6054
344 1 -1.1104 26.0439 -6.97519 6.5449
346 1 -1.1104 26.4129 -4.575 6.48003
349 2 2.2208 22.0067 -2.99158 10.7049
350 1 -1.1104 23.1893 -7.00455 12.3694
352 1 -1.1104 23.2891 -7.10986 9.47964
354 1 -1.1104 23.5041 -4.29424 11.9726
355 2 2.2208 21.9451 -5.70185 8.00413
356 1 -1.1104 23.3483 -4.40949 9.33218
357 1 -1.1104 25.8773 -7.39492 12.4589
359 2 2.2208 24.9323 -3.04675 8.22734
360 1 -1.1104 26.1596 -7.17633 9.54992
362 2 2.2208 24.7831 -5.99815 11.0582
363 1 -1.1104 26.2988 -4.61513 11.9822
364 1 -1.1104 26.2337 -4.3573 9.31462
353 1 -1.1104 23.2491 -1.60667 9.19779
361 1 -1.1104 26.1371 -1.33064 9.48413
566 2 2.2208 24.5072 11.1253 11.0496
368 1 -1.1104 0.714884 4.11697 6.59219
389 1 -1.1104 6.3601 3.99288 6.43733
562 1 -1.1104 25.8973 12.6641 9.68013
258 1 -1.1104 0.681192 -1.60211 9.37084
256 1 -1.1104 0.878557 -1.69619 12.4733
372 2 2.2208 4.97546 2.69796 10.816
373 1 -1.1104 0.654525 4.0126 12.2401
374 1 -1.1104 0.664632 3.79084 9.31443
375 1 -1.1104 0.466488 0.981889 12.273
376 2 2.2208 4.92377 -0.124079 7.95623
378 1 -1.1104 0.645079 1.16256 9.47782
379 1 -1.1104 3.58048 4.02772 12.067
380 2 2.2208 2.32024 2.57927 7.89087
381 1 -1.1104 3.46369 3.83413 9.29091
382 2 2.2208 2.19829 -0.0927999 10.7126
383 2 2.2208 2.00943 5.36654 10.6691
384 1 -1.1104 3.54386 1.32395 12.0629
385 1 -1.1104 3.76986 1.13703 9.20065
377 2 2.2208 5.03885 5.40186 7.87822
390 1 -1.1104 6.42087 0.97485 6.65692
396 1 -1.1104 6.384 3.87616 9.42402
398 1 -1.1104 6.48994 1.08879 9.33243
397 1 -1.1104 6.36003 1.24516 12.1411
271 2 2.2208 4.9 -5.82105 13.5685
472 2 2.2208 24.4272 2.58525 13.7247
505 1 -1.1104 11.9005 12.4199 9.27943
391 1 -1.1104 11.7246 3.80695 6.48662
299 1 -1.1104 9.13649 -1.67587 9.52362
395 1 -1.1104 6.48928 3.90355 12.3189
392 1 -1.1104 12.2111 1.01657 6.37861
399 2 2.2208 10.6102 2.75224 10.7432
400 1 -1.1104 12.022 4.00502 12.0356
401 1 -1.1104 11.9436 4.0301 9.31935
402 1 -1.1104 12.0922 1.33042 12.0256
403 2 2.2208 10.6272 -0.281793 7.93342
404 2 2.2208 10.4604 5.11166 7.93398
405 1 -1.1104 11.9905 1.02546 9.14937
406 1 -1.1104 9.19876 4.06653 12.1447
407 2 2.2208 7.7912 2.47473 8.04684
408 1 -1.1104 9.09285 3.90382 9.35852
409 2 2.2208 7.86575 -0.192426 10.9207
411 1 -1.1104 9.32015 1.26463 11.8018
412 1 -1.1104 9.39707 1.38449 9.23387
410 2 2.2208 7.90801 5.31071 10.9044
422 2 2.2208 13.4675 2.41157 7.92636
423 2 2.2208 13.4199 -0.295165 10.8041
584 2 2.2208 27.5835 8.19524 10.9916
28993 2 2.2208 2.14674 -8.55259 2.31842
418 1 -1.1104 14.7016 3.88919 6.70093
417 1 -1.1104 17.5501 1.06056 6.64478
419 1 -1.1104 20.6155 3.92045 6.68728
565 1 -1.1104 26.247 6.7444 12.4655
311 1 -1.1104 20.3813 -1.58054 6.67768
325 1 -1.1104 14.77 -1.62745 12.0116
416 1 -1.1104 17.4586 4.05592 6.60189
425 2 2.2208 16.0827 2.50874 10.9447
426 1 -1.1104 17.7402 3.99479 12.3605
427 1 -1.1104 17.4869 4.15953 9.47867
428 1 -1.1104 17.5053 1.26271 12.3131
429 2 2.2208 16.2118 -0.344036 8.03568
431 1 -1.1104 17.5367 1.35466 9.29872
432 1 -1.1104 14.8698 4.05948 12.1549
434 2 2.2208 18.8583 2.6251 7.79843
435 1 -1.1104 14.6529 3.82729 9.55506
437 2 2.2208 19.2242 -0.310397 10.7177
439 1 -1.1104 14.7278 1.35648 12.3363
441 1 -1.1104 14.826 1.07218 9.52716
430 2 2.2208 16.2084 5.38318 8.15641
438 2 2.2208 19.0729 5.35748 10.9091
327 1 -1.1104 20.4621 -1.67191 12.0902
440 1 -1.1104 20.433 1.11975 12.3201
442 1 -1.1104 20.5941 1.18375 9.36006
433 1 -1.1104 20.5821 4.03461 12.2838
436 1 -1.1104 20.3241 3.78904 9.50293
450 1 -1.1104 26.234 1.26715 6.44845
451 2 2.2208 27.4877 2.38103 10.6937
452 2 2.2208 27.5424 -0.133061 7.9312
449 1 -1.1104 26.0126 3.99548 6.45566
358 1 -1.1104 26.2488 -1.7638 12.0804
453 2 2.2208 27.4965 5.40282 7.93533
351 1 -1.1104 23.3577 -1.54169 12.0604
448 1 -1.1104 23.4655 1.20675 6.58019
459 2 2.2208 22.0702 5.54611 8.07271
454 2 2.2208 21.9012 2.67548 10.8323
455 1 -1.1104 23.2588 4.04888 12.4649
456 1 -1.1104 23.3359 4.10487 9.52926
457 1 -1.1104 23.1885 1.23696 12.2799
458 2 2.2208 22.0948 -0.237163 7.97932
460 1 -1.1104 23.4976 1.31619 9.56193
461 1 -1.1104 26.1833 3.86004 12.1795
462 2 2.2208 24.7461 2.66991 8.0026
463 1 -1.1104 26.0711 4.13167 9.25212
464 2 2.2208 24.6014 -0.237311 10.7851
466 1 -1.1104 25.9333 1.10482 12.2702
467 1 -1.1104 26.0353 1.23384 9.28761
564 1 -1.1104 26.1388 12.4077 12.3318
1078 2 2.2208 2.20345 11.0751 -0.385836
465 2 2.2208 24.8178 5.44763 11.0681
519 1 -1.1104 6.30418 12.5478 12.4911
476 1 -1.1104 3.52358 9.67584 6.72912
509 1 -1.1104 6.36959 12.3204 6.43234
474 1 -1.1104 0.626396 6.97524 6.77294
494 1 -1.1104 3.48243 12.2333 9.68086
483 1 -1.1104 0.822637 12.532 12.1486
486 1 -1.1104 0.606545 12.4493 9.5607
479 2 2.2208 4.98598 8.14902 10.7856
480 1 -1.1104 0.562007 9.71023 12.3999
481 1 -1.1104 0.77209 9.46368 9.56799
482 1 -1.1104 0.898989 6.93179 12.2018
484 2 2.2208 5.11177 10.9131 8.09212
485 1 -1.1104 0.544909 6.78109 9.62946
487 1 -1.1104 3.35677 9.74071 12.6039
488 2 2.2208 2.13374 8.15659 7.97785
489 1 -1.1104 3.48155 9.39868 9.535
490 2 2.2208 1.97627 10.9262 10.9386
491 1 -1.1104 3.76417 6.7588 11.7455
493 1 -1.1104 3.22003 6.50013 8.862
492 1 -1.1104 3.406 12.6186 12.4628
520 1 -1.1104 6.28375 6.72919 9.28535
521 1 -1.1104 6.26422 12.3602 9.61208
516 1 -1.1104 6.0675 9.57973 12.3914
518 1 -1.1104 6.44229 6.67679 12.2226
517 1 -1.1104 6.39192 9.52464 9.40886
572 2 2.2208 21.7655 11.2388 8.13152
497 1 -1.1104 9.20096 12.5449 12.4047
424 2 2.2208 13.5014 5.40021 10.822
508 1 -1.1104 6.43008 6.51171 6.55712
514 1 -1.1104 9.11089 6.73093 6.55858
511 1 -1.1104 11.8512 6.58511 6.48598
510 1 -1.1104 11.7898 9.65793 6.69709
446 2 2.2208 19.1127 2.6802 13.4761
526 1 -1.1104 11.9594 12.642 12.3118
495 1 -1.1104 9.16844 12.6149 9.48614
496 1 -1.1104 9.41748 6.75191 9.43168
498 1 -1.1104 9.15545 7.07694 12.121
500 2 2.2208 7.71578 11.1057 11.1093
501 1 -1.1104 9.23269 9.68654 9.98335
503 2 2.2208 7.98318 8.02106 7.94553
504 1 -1.1104 8.9634 9.80219 12.6399
506 1 -1.1104 12.1105 6.81972 9.55001
522 2 2.2208 10.8355 8.28284 10.9629
523 1 -1.1104 11.9319 9.80474 12.3331
524 1 -1.1104 12.005 9.67306 9.48075
525 1 -1.1104 11.9984 6.82005 12.3872
527 2 2.2208 10.5672 11.003 8.08921
502 2 2.2208 13.3576 8.14935 8.05594
499 2 2.2208 13.4 11.0381 10.7808
571 1 -1.1104 23.2895 6.78767 9.45145
576 1 -1.1104 23.3268 9.49889 12.4323
539 1 -1.1104 20.8519 9.75255 9.7618
556 1 -1.1104 20.6353 6.75757 9.5266
548 1 -1.1104 20.3311 12.3882 6.73929
552 1 -1.1104 20.5014 9.56165 12.3275
549 1 -1.1104 20.3669 12.6613 9.53885
559 1 -1.1104 20.43 12.4562 12.3276
536 1 -1.1104 14.8774 12.3249 12.3154
413 2 2.2208 10.5322 -0.178838 13.4025
547 1 -1.1104 20.4018 6.79296 6.70014
554 1 -1.1104 17.6096 12.3062 9.74169
557 1 -1.1104 15.0298 12.5377 9.59542
558 1 -1.1104 14.8602 6.62043 9.62367
29400 2 2.2208 16.0551 -8.61604 10.7571
532 1 -1.1104 18.0202 9.58575 9.58029
531 1 -1.1104 17.5167 6.76096 12.2538
529 2 2.2208 16.2948 11.1956 8.18263
530 1 -1.1104 17.4849 12.3738 12.4551
551 2 2.2208 19.2455 8.19276 8.14451
538 2 2.2208 19.2274 10.9741 11.0525
553 1 -1.1104 14.8483 9.50152 12.0799
555 1 -1.1104 17.8235 6.92978 9.36631
537 1 -1.1104 14.7346 6.84 12.5928
534 2 2.2208 16.415 8.33102 10.8665
533 1 -1.1104 17.6616 9.55327 12.3741
550 1 -1.1104 14.8021 9.81298 9.43297
535 1 -1.1104 20.5167 6.75471 12.3673
29276 2 2.2208 24.7899 -8.40161 8.07817
578 1 -1.1104 23.4162 9.7206 6.95916
581 1 -1.1104 26.2563 9.5786 6.72907
569 1 -1.1104 25.9548 9.58524 12.4905
270 2 2.2208 2.25668 -3.08545 13.6397
1042 2 2.2208 18.9816 5.63118 -0.405016
1079 2 2.2208 4.96843 8.18759 -0.393798
415 2 2.2208 10.5264 5.678 13.6503
1129 2 2.2208 13.4638 10.9276 -0.32903
72 2 2.2208 24.7723 -6.03496 -0.42159
388 2 2.2208 4.8985 5.3129 13.5888
41 2 2.2208 10.5981 -3.00576 -0.446895
29050 2 2.2208 19.0717 -8.61432 2.37832
17 2 2.2208 5.1263 -3.0846 -0.389347
29048 2 2.2208 16.3171 -8.52165 -0.396384
444 2 2.2208 13.3379 2.76068 13.4238
810 2 2.2208 21.8674 8.4118 -0.202733
469 2 2.2208 21.822 -0.206369 13.4972
367 2 2.2208 27.4445 -5.87985 13.4791
29402 2 2.2208 13.1501 -8.60411 13.5329
74 2 2.2208 21.9456 -3.16155 -0.315524
877 2 2.2208 16.1384 11.021 13.6505
588 2 2.2208 5.00493 -3.02984 16.3575
589 1 -1.1104 0.725238 -7.39286 17.8057
591 1 -1.1104 0.450007 -6.90151 14.8889
595 1 -1.1104 0.505399 -4.63791 17.8571
596 2 2.2208 4.94962 -5.64584 19.0544
597 1 -1.1104 0.628465 -4.27919 15.0638
599 1 -1.1104 3.472 -6.92143 18.0382
601 2 2.2208 2.23433 -2.8837 19.2564
602 1 -1.1104 3.38441 -7.15428 15.0495
606 2 2.2208 1.87737 -5.71132 16.3876
607 1 -1.1104 3.49622 -4.27621 17.9413
608 1 -1.1104 3.5069 -4.35079 15.0293
29685 2 2.2208 19.0181 -8.55258 19.2012
1041 2 2.2208 13.5391 5.4503 27.5343
612 1 -1.1104 6.16154 -7.28718 15.0081
616 1 -1.1104 6.37779 -4.40382 17.759
617 1 -1.1104 6.41713 -4.57334 14.9344
610 1 -1.1104 6.3215 -7.27056 17.7576
614 1 -1.1104 6.21416 -1.53568 15.0083
598 1 -1.1104 0.718419 -4.22336 20.7315
609 1 -1.1104 3.47576 -4.14823 20.6838
613 1 -1.1104 6.35002 -6.94134 20.476
618 1 -1.1104 6.20764 -4.41731 20.5015
604 1 -1.1104 3.43184 -1.49219 14.9204
592 1 -1.1104 0.586098 -7.22223 20.4884
619 2 2.2208 10.5312 -2.88764 16.4214
620 1 -1.1104 11.8489 -7.46707 17.9962
622 1 -1.1104 11.8013 -7.17036 14.7663
626 1 -1.1104 11.8954 -4.64981 17.7101
627 2 2.2208 10.6086 -5.73156 19.1766
628 1 -1.1104 11.9644 -4.4779 15.1078
630 1 -1.1104 9.13727 -7.12149 18.0246
632 2 2.2208 7.6313 -2.8288 19.168
633 1 -1.1104 8.93356 -7.32519 15.2809
637 2 2.2208 7.68125 -5.68054 16.4517
638 1 -1.1104 9.15329 -4.16119 17.7254
639 1 -1.1104 9.14893 -4.42412 14.8067
641 2 2.2208 13.4684 -3.01123 19.1391
29972 2 2.2208 18.7836 -8.66479 24.8046
29618 2 2.2208 1.91845 -8.70473 19.3511
640 1 -1.1104 9.24119 -4.07923 20.5614
623 1 -1.1104 11.882 -7.11111 20.7549
642 2 2.2208 13.407 -5.8381 16.3163
29073 2 2.2208 21.8379 -8.61821 27.5132
635 1 -1.1104 9.15605 -1.67567 15.0322
631 1 -1.1104 9.00032 -1.30448 17.774
634 1 -1.1104 9.1412 -7.11546 20.6159
29993 2 2.2208 27.386 -8.65527 22.1665
69 2 2.2208 13.3351 -5.95576 27.7405
126 2 2.2208 13.5285 -0.115716 27.5697
643 2 2.2208 16.2216 -3.0449 16.2256
644 1 -1.1104 17.6586 -7.16862 17.8164
646 1 -1.1104 17.5554 -7.25695 14.8748
650 1 -1.1104 17.4339 -4.55268 17.6948
651 2 2.2208 16.3546 -5.8429 19.1997
652 1 -1.1104 17.7247 -4.49712 14.8614
654 1 -1.1104 14.806 -7.30403 17.7657
658 2 2.2208 19.1782 -2.95903 19.0821
659 1 -1.1104 14.6188 -7.17817 14.9133
667 2 2.2208 18.9753 -5.7856 16.2728
668 1 -1.1104 14.575 -4.54607 17.7022
670 1 -1.1104 14.9382 -4.3818 14.7646
585 2 2.2208 4.77808 11.0803 13.7195
656 1 -1.1104 20.4326 -6.91378 17.684
669 1 -1.1104 20.3174 -4.10854 17.6469
657 1 -1.1104 20.671 -1.38253 17.8457
647 1 -1.1104 17.6318 -7.23482 20.7101
660 1 -1.1104 14.7399 -7.27952 20.6097
672 1 -1.1104 20.5576 -4.47172 14.8386
663 1 -1.1104 20.3396 -7.34059 14.8731
653 1 -1.1104 17.7316 -4.46535 20.7001
673 1 -1.1104 20.31 -4.22555 20.5613
43 2 2.2208 18.988 -5.63205 27.6598
29713 2 2.2208 21.7199 -8.53819 16.3168
675 2 2.2208 27.487 -5.87928 19.0924
674 2 2.2208 27.5447 -3.00724 16.5776
29712 2 2.2208 24.6585 -8.7505 19.2263
676 2 2.2208 21.9352 -2.94581 16.3389
677 1 -1.1104 23.0922 -7.39631 17.826
679 1 -1.1104 23.145 -7.14208 15.1817
683 1 -1.1104 23.2703 -4.58016 17.8543
684 2 2.2208 21.8099 -5.76253 19.291
685 1 -1.1104 23.3625 -4.25587 14.9204
687 1 -1.1104 25.9529 -7.26524 17.8723
689 2 2.2208 24.735 -2.93294 19.288
690 1 -1.1104 25.7738 -7.23058 15.3352
694 2 2.2208 24.7055 -5.86127 16.5133
695 1 -1.1104 25.932 -4.17504 17.7103
696 1 -1.1104 26.0565 -4.27481 14.8795
1061 2 2.2208 27.4555 2.77398 27.7283
793 1 -1.1104 0.697682 12.5268 18.2238
697 1 -1.1104 26.3337 -4.22301 20.4809
686 1 -1.1104 23.2407 -4.37026 20.5511
680 1 -1.1104 23.3482 -7.32035 20.5146
691 1 -1.1104 25.9037 -7.33358 20.6485
831 1 -1.1104 12.3163 12.5355 20.8881
1139 1 -1.1104 23.2707 12.5995 26.3057
600 1 -1.1104 3.59984 -1.50889 17.7379
594 1 -1.1104 0.735516 -1.56152 20.5198
590 1 -1.1104 0.877036 -1.62946 17.7833
593 1 -1.1104 0.702896 -1.66894 15.059
698 2 2.2208 4.77554 2.76079 16.4578
699 1 -1.1104 0.644981 4.27218 17.7716
700 1 -1.1104 0.658635 3.84562 14.8407
702 1 -1.1104 0.792357 1.32338 17.7904
703 2 2.2208 4.83427 0.0564205 19.2337
705 1 -1.1104 0.565965 1.09143 14.9714
707 1 -1.1104 3.40242 4.15414 17.8265
708 2 2.2208 2.0419 2.72532 19.2446
709 1 -1.1104 3.68181 4.19599 14.9194
711 2 2.2208 2.09809 -0.0951607 16.3316
712 2 2.2208 2.03937 5.66304 16.663
713 1 -1.1104 3.66689 1.33941 17.8127
714 1 -1.1104 3.53387 1.46891 14.8478
704 2 2.2208 4.81625 5.5356 19.3154
715 1 -1.1104 3.54 1.41702 20.4573
716 1 -1.1104 6.47038 4.16677 17.7557
719 1 -1.1104 6.3656 1.21436 17.8274
611 1 -1.1104 6.43596 -1.71207 17.7678
720 1 -1.1104 6.43875 1.22221 14.9573
717 1 -1.1104 6.60277 4.29179 14.922
615 1 -1.1104 6.393 -1.26355 20.5579
605 1 -1.1104 3.50201 -1.37481 20.5359
706 1 -1.1104 0.659169 1.27986 20.6402
718 1 -1.1104 6.47491 3.9196 20.6393
621 1 -1.1104 11.8489 -1.59788 17.7798
624 1 -1.1104 12.1446 -1.65619 15.1299
722 2 2.2208 10.6564 2.66189 16.3629
723 1 -1.1104 12.0547 4.03707 17.9326
724 1 -1.1104 11.9606 4.07162 14.8198
726 1 -1.1104 11.9326 1.23683 17.6396
727 2 2.2208 10.6224 -0.198146 19.2786
728 2 2.2208 10.414 5.51135 19.2893
729 1 -1.1104 12.0944 1.26118 14.9104
731 1 -1.1104 9.3025 3.93998 17.8852
732 2 2.2208 7.76506 2.69034 19.3212
733 1 -1.1104 9.28303 4.06487 15.0442
735 2 2.2208 7.62248 -0.247351 16.392
736 2 2.2208 7.70274 5.473 16.4231
737 1 -1.1104 9.1212 1.31397 17.6679
738 1 -1.1104 9.33227 1.29348 14.7799
730 1 -1.1104 12.1264 1.38811 20.7691
741 2 2.2208 13.3624 -0.10502 16.3629
740 2 2.2208 13.5761 2.72984 19.3789
742 2 2.2208 13.3332 5.49857 16.6035
625 1 -1.1104 12.0924 -1.74342 20.5682
636 1 -1.1104 9.19127 -1.54035 20.6697
734 1 -1.1104 9.32788 4.02976 20.6492
29921 2 2.2208 2.09344 -8.67921 24.7678
655 1 -1.1104 14.9148 -1.70616 17.8639
666 1 -1.1104 20.4304 -1.45746 20.6824
648 1 -1.1104 17.6976 -1.19659 14.9449
645 1 -1.1104 17.7892 -1.66175 17.5718
661 1 -1.1104 14.8854 -1.49083 14.7412
743 2 2.2208 16.1937 2.73056 16.3358
744 1 -1.1104 17.7054 3.89203 18.0039
745 1 -1.1104 17.7061 4.17165 15.2584
747 1 -1.1104 18.0668 1.08132 17.77
748 2 2.2208 16.5578 -0.166249 18.9081
750 1 -1.1104 17.8718 1.41153 15.1142
752 1 -1.1104 14.8989 4.10543 17.78
754 2 2.2208 19.123 2.48378 19.4458
755 1 -1.1104 14.7417 3.99064 14.8913
759 2 2.2208 19.1718 0.101794 16.3185
760 2 2.2208 19.0568 5.43029 16.6571
761 1 -1.1104 14.893 1.35652 17.7733
763 1 -1.1104 15.0159 1.18665 14.9948
749 2 2.2208 16.3405 5.39036 19.2871
756 1 -1.1104 14.9626 4.0845 20.547
665 1 -1.1104 20.4331 -1.4658 14.8849
762 1 -1.1104 20.6271 1.37864 17.8623
765 1 -1.1104 20.8016 1.21491 15.068
751 1 -1.1104 17.6885 1.11657 20.6236
753 1 -1.1104 20.518 4.28885 18.0583
757 1 -1.1104 20.629 3.94706 15.3739
662 1 -1.1104 14.8534 -1.83067 20.8695
1132 1 -1.1104 26.1426 6.94325 26.3971
764 1 -1.1104 14.9209 0.92255 20.4629
758 1 -1.1104 20.5278 3.93234 20.9053
528 2 2.2208 7.52596 8.10731 13.7719
692 1 -1.1104 26.2846 -1.7615 15.1079
768 2 2.2208 27.4595 -0.202603 19.0594
688 1 -1.1104 26.0064 -1.46729 17.6739
681 1 -1.1104 23.2477 -1.64373 14.8244