ITEM: TIMESTEP
20000
ITEM: NUMBER OF ATOMS
30000
ITEM: BOX BOUNDS pp pp pp
-4.3616630082686991e-01 2.7776166300827445e+01
-8.8541908370648716e+00 5.5565419083707332e+02
-4.3579926268660990e-01 2.7775799262686828e+01
ITEM: ATOMS id type q x y z
1 2 2.2208 5.48126 -3.05598 5.19482
2 1 -1.1104 1.3288 -7.28277 0.777713
4 1 -1.1104 1.20693 -7.4154 3.57974
6 1 -1.1104 1.18173 -4.583 0.794345
7 2 2.2208 5.4744 -6.06284 2.36591
8 1 -1.1104 1.14884 -4.71096 3.78813
9 1 -1.1104 4.02221 -7.33758 0.94463
11 2 2.2208 2.71353 -3.24925 2.3028
12 1 -1.1104 4.17942 -7.3623 3.82044
14 2 2.2208 2.5743 -6.15212 5.28896
15 1 -1.1104 4.16641 -4.62904 1.14182
16 1 -1.1104 3.89915 -4.67753 3.82488
70 2 2.2208 -0.117948 -3.18408 5.26815
71 2 2.2208 -0.231629 -5.98655 2.32776
28997 2 2.2208 11.2657 -8.58743 5.1928
29399 2 2.2208 14.2901 -8.86067 7.91599
251 1 -1.1104 4.09878 -7.57805 6.68084
471 2 2.2208 -0.00717442 5.39296 13.3778
10 1 -1.1104 4.13836 -1.71299 0.876604
528 2 2.2208 8.42687 8.3512 13.6562
24 1 -1.1104 6.88671 -4.50757 3.48626
21 1 -1.1104 6.99597 -7.37109 3.77788
19 1 -1.1104 6.88579 -7.27533 0.884883
28993 2 2.2208 2.82286 -8.74604 2.40783
23 1 -1.1104 7.09649 -4.48551 0.722807
25 2 2.2208 11.1409 -3.16588 5.13724
26 1 -1.1104 12.5761 -7.39253 0.817548
28 1 -1.1104 12.6885 -7.27397 3.63121
30 1 -1.1104 12.4615 -4.65578 0.805192
31 2 2.2208 11.2701 -6.0225 2.1957
32 1 -1.1104 12.4658 -4.6119 3.49135
33 1 -1.1104 9.79174 -7.5062 0.80957
35 2 2.2208 8.25546 -3.01769 2.27784
36 1 -1.1104 9.91353 -7.35125 3.67813
38 2 2.2208 8.32175 -5.98993 5.0696
39 1 -1.1104 9.70811 -4.60992 0.70688
40 1 -1.1104 9.74896 -4.59246 3.65249
20 1 -1.1104 6.8404 -1.55956 0.732073
27 1 -1.1104 12.69 -1.87743 1.00339
29 1 -1.1104 12.5116 -1.40455 3.91508
37 1 -1.1104 9.71084 -1.79123 3.70881
414 2 2.2208 8.36273 2.3805 13.5774
274 1 -1.1104 6.86978 -4.62796 6.48943
275 1 -1.1104 12.7764 -7.38419 6.72278
29330 2 2.2208 11.4709 -8.74457 10.7649
46 2 2.2208 14.1798 -5.95762 5.00889
44 2 2.2208 14.0748 -3.13159 2.37802
125 2 2.2208 25.3388 8.2053 13.4369
47 2 2.2208 17.0773 -3.12132 5.05781
48 1 -1.1104 18.218 -7.47141 0.870949
50 1 -1.1104 18.1731 -7.40288 3.54492
52 1 -1.1104 18.4298 -4.49894 0.996244
53 2 2.2208 17.0021 -5.86518 2.26895
54 1 -1.1104 18.2021 -4.54911 3.74365
55 1 -1.1104 15.4242 -7.33035 1.05717
59 2 2.2208 19.6434 -3.07611 2.38185
60 1 -1.1104 15.3661 -7.45399 3.71471
64 2 2.2208 19.4538 -5.84509 5.08532
65 1 -1.1104 15.6645 -4.60327 0.842522
67 1 -1.1104 15.6902 -4.61156 3.56978
51 1 -1.1104 18.1926 -1.50873 3.77999
61 1 -1.1104 15.2806 -1.73649 3.57534
415 2 2.2208 11.0828 5.33952 13.5548
561 2 2.2208 14.0389 7.98269 13.6052
552 1 -1.1104 21.0678 9.59041 12.2741
29362 2 2.2208 8.53223 -8.77777 7.99733
308 1 -1.1104 15.5977 -7.02012 6.52424
305 1 -1.1104 18.2398 -7.32388 6.35404
312 1 -1.1104 15.5597 -4.5227 6.44224
307 1 -1.1104 18.4318 -4.49141 6.55709
309 1 -1.1104 15.5042 -1.8901 6.3992
68 1 -1.1104 21.054 -4.59662 3.78174
29020 2 2.2208 8.32953 -8.7192 2.46363
62 1 -1.1104 21.0414 -7.39555 3.59039
66 1 -1.1104 21.1459 -4.48535 1.02019
57 1 -1.1104 20.8176 -7.43456 0.914177
75 2 2.2208 22.4071 -3.35712 5.2732
76 1 -1.1104 23.7827 -7.34845 1.14706
78 1 -1.1104 24.0096 -7.53163 3.98367
80 1 -1.1104 23.8302 -4.55833 0.803014
81 2 2.2208 22.3519 -5.91006 2.32159
82 1 -1.1104 23.7819 -4.58546 3.67005
83 1 -1.1104 26.5201 -7.48115 1.1195
85 2 2.2208 25.4249 -3.30568 2.42378
86 1 -1.1104 26.7573 -7.33477 3.88954
88 2 2.2208 25.3847 -6.00353 5.3761
89 1 -1.1104 26.8119 -4.51355 0.854608
90 1 -1.1104 26.5825 -4.71768 3.99457
58 1 -1.1104 21.3943 -1.69856 0.868349
28994 2 2.2208 5.63778 -8.7086 5.375
87 1 -1.1104 26.7431 -1.6104 3.95857
63 1 -1.1104 21.0631 -1.86272 3.77718
544 1 -1.1104 21.1234 9.50055 6.58567
229 1 -1.1104 21.0796 12.2664 3.73484
343 1 -1.1104 23.9078 -4.65337 6.6757
344 1 -1.1104 26.9148 -7.58065 6.68493
341 1 -1.1104 24.0016 -7.29606 6.62329
13 1 -1.1104 4.22032 -1.90642 3.73861
3 1 -1.1104 1.42735 -1.7204 0.941005
5 1 -1.1104 1.41663 -1.85434 3.79006
91 2 2.2208 5.57571 2.51299 5.19054
92 1 -1.1104 1.49255 3.95312 1.0344
93 1 -1.1104 1.26712 3.88638 3.78328
94 1 -1.1104 1.33804 1.03859 1.02956
95 2 2.2208 5.51143 -0.274139 2.32424
96 2 2.2208 5.55798 5.36964 2.30261
97 1 -1.1104 1.44572 1.05942 3.72532
98 1 -1.1104 4.22049 3.9679 1.15167
99 2 2.2208 2.84783 2.40164 2.37217
100 1 -1.1104 4.38723 3.85711 3.66432
101 2 2.2208 2.87004 -0.261262 5.11794
102 2 2.2208 2.70732 5.21773 5.03627
103 1 -1.1104 4.15352 1.10003 0.817089
104 1 -1.1104 4.22844 0.997001 3.65641
152 2 2.2208 0.0572797 -0.289742 2.41743
151 2 2.2208 -0.148426 2.4609 4.98037
153 2 2.2208 -0.0922287 5.41294 2.3757
585 2 2.2208 5.41668 11.0327 13.4289
252 1 -1.1104 4.15577 -1.73772 6.54387
29326 2 2.2208 5.55555 -8.87251 10.9931
249 1 -1.1104 1.42729 -1.6995 6.67754
370 1 -1.1104 4.19782 3.85121 6.4419
369 1 -1.1104 1.38425 1.08456 6.45908
29364 2 2.2208 8.51748 -8.8177 13.4844
560 2 2.2208 19.5762 8.2792 13.6597
34 1 -1.1104 9.89415 -1.71623 0.880759
107 1 -1.1104 7.15134 4.0563 3.69318
22 1 -1.1104 6.80074 -1.60003 3.82096
109 1 -1.1104 7.114 1.26644 3.60869
106 1 -1.1104 6.87289 4.11228 0.971177
108 1 -1.1104 6.92808 1.30648 0.945773
110 2 2.2208 11.22 2.53003 5.25747
111 1 -1.1104 12.9043 3.84691 0.982384
112 1 -1.1104 12.6488 3.89039 3.76889
113 1 -1.1104 12.7265 1.01081 1.21906
114 2 2.2208 11.1871 -0.253678 2.40101
116 1 -1.1104 12.7929 1.14137 3.83676
117 1 -1.1104 9.9849 3.8658 0.807465
118 2 2.2208 8.42522 2.60948 2.13232
119 1 -1.1104 9.95203 4.18157 3.74499
120 2 2.2208 8.4745 -0.230581 5.0891
121 2 2.2208 8.4203 5.52298 5.00425
122 1 -1.1104 9.72399 1.05356 0.830351
123 1 -1.1104 9.81618 1.18003 3.65139
115 2 2.2208 11.2032 5.37533 2.1836
303 2 2.2208 11.2403 -6.0405 13.6332
29405 2 2.2208 19.7365 -8.68062 13.4811
392 1 -1.1104 12.494 1.09839 6.66764
29401 2 2.2208 19.7795 -8.73278 7.98302
49 1 -1.1104 18.3303 -1.74654 0.956384
56 1 -1.1104 15.4754 -1.82987 0.913187
877 2 2.2208 16.5132 11.0016 13.3478
128 2 2.2208 14.0911 2.41414 2.22688
129 2 2.2208 14.0551 -0.286282 5.01057
131 2 2.2208 17.0803 2.48366 5.21551
132 1 -1.1104 18.1984 3.62557 0.727287
133 1 -1.1104 18.1777 3.85949 3.77567
134 1 -1.1104 18.3871 1.08975 0.816436
135 2 2.2208 16.913 -0.253741 2.31466
136 2 2.2208 16.7748 5.23342 2.27805
137 1 -1.1104 18.4382 1.20378 3.62963
138 1 -1.1104 15.4815 3.92562 0.67331
140 2 2.2208 19.7596 2.56167 2.13666
141 1 -1.1104 15.3847 3.98034 3.61164
143 2 2.2208 19.821 -0.325138 5.03828
144 2 2.2208 19.6003 5.23831 5.172
145 1 -1.1104 15.4588 1.00352 0.90501
147 1 -1.1104 15.6969 1.17071 3.67794
29049 2 2.2208 13.9809 -8.7465 2.33879
420 1 -1.1104 15.5063 1.02684 6.58456
306 1 -1.1104 18.3702 -1.64632 6.68956
418 1 -1.1104 15.3289 3.7541 6.49402
586 2 2.2208 2.62064 8.16601 13.3222
29075 2 2.2208 25.2288 -8.82299 2.42192
77 1 -1.1104 24.089 -1.75607 0.750782
79 1 -1.1104 23.8729 -1.73726 3.64262
139 1 -1.1104 21.4438 3.90091 0.890489
84 1 -1.1104 26.731 -1.73015 1.10258
142 1 -1.1104 21.1683 3.71733 3.82931
146 1 -1.1104 21.2084 1.17627 0.917079
148 1 -1.1104 21.1981 1.06394 3.82737
154 2 2.2208 22.4729 2.43863 5.1816
155 1 -1.1104 24.0414 3.96379 0.946868
156 1 -1.1104 23.9441 3.86177 3.62567
157 1 -1.1104 23.8747 1.22573 1.09354
158 2 2.2208 22.5385 -0.382814 2.33223
160 1 -1.1104 23.8626 1.03051 3.89571
161 1 -1.1104 26.7676 3.964 0.966386
162 2 2.2208 25.3614 2.42179 2.22661
163 1 -1.1104 26.6409 3.99065 3.69096
164 2 2.2208 25.1848 -0.461833 5.13431
166 1 -1.1104 26.836 0.996397 0.777379
167 1 -1.1104 26.7138 1.14042 3.57915
165 2 2.2208 25.2661 5.33872 5.17595
159 2 2.2208 22.6851 5.18997 2.25164
270 2 2.2208 2.9825 -3.04225 13.495
345 1 -1.1104 26.8148 -1.72892 6.68693
419 1 -1.1104 20.9946 3.7399 6.75293
445 2 2.2208 16.9606 5.38692 13.4868
468 2 2.2208 0.0320378 -0.244327 13.639
172 1 -1.1104 1.20014 12.5741 0.967594
183 1 -1.1104 3.97514 12.6775 3.63225
168 2 2.2208 5.49613 8.25327 5.12973
169 1 -1.1104 1.20051 9.61341 0.915787
170 1 -1.1104 1.25201 9.90498 3.50076
171 1 -1.1104 1.42763 7.04762 0.792469
173 2 2.2208 5.30877 11.0479 2.46278
174 1 -1.1104 1.31881 6.73053 3.70858
175 1 -1.1104 1.30933 12.6252 3.75176
176 1 -1.1104 4.1402 9.68229 0.827412
177 2 2.2208 2.79486 8.19665 2.32134
178 1 -1.1104 3.81942 9.53135 3.79566
179 2 2.2208 2.66131 11.1863 5.06669
180 1 -1.1104 4.00977 6.70448 1.01253
150 2 2.2208 25.4037 -0.273818 -0.353494
182 1 -1.1104 4.14464 6.77825 3.67531
230 2 2.2208 -0.0349523 8.30361 4.86092
231 2 2.2208 -0.263013 11.1468 2.24576
473 1 -1.1104 1.26444 9.63058 6.17902
194 1 -1.1104 12.4935 12.3365 1.00078
186 1 -1.1104 6.89427 7.05653 0.776785
188 1 -1.1104 7.05353 6.79855 3.55151
187 1 -1.1104 7.07243 12.3392 0.826347
184 1 -1.1104 6.86739 9.61794 1.0952
185 1 -1.1104 6.75588 9.5262 3.69985
189 1 -1.1104 6.62669 12.2178 3.8245
190 2 2.2208 11.4399 8.33677 5.20697
191 1 -1.1104 12.3465 9.52303 0.989212
192 1 -1.1104 12.6648 9.70091 3.62816
193 1 -1.1104 12.6501 6.86304 0.833316
195 2 2.2208 11.0774 10.9909 2.35435
196 1 -1.1104 12.6549 6.85471 3.83689
197 1 -1.1104 12.6397 12.532 3.78215
198 1 -1.1104 9.80061 9.45768 0.916677
199 2 2.2208 8.26701 8.33022 2.36351
200 1 -1.1104 9.77601 9.70193 3.65537
201 2 2.2208 8.41833 10.8983 5.00762
203 1 -1.1104 9.8031 6.692 0.620536
204 1 -1.1104 9.73336 12.2915 1.11977
205 1 -1.1104 9.75543 6.89079 3.46103
206 1 -1.1104 9.77673 12.3054 3.93946
548 1 -1.1104 21.2385 12.3088 6.62472
304 2 2.2208 8.45445 -3.19163 13.6724
130 2 2.2208 14.1079 5.2167 5.1134
271 2 2.2208 5.66033 -5.92986 13.5749
207 2 2.2208 13.8425 8.13089 2.21587
999 2 2.2208 5.5173 2.5897 -0.294319
202 2 2.2208 14.0672 10.8714 5.17473
223 1 -1.1104 15.452 12.382 0.920847
227 1 -1.1104 15.5541 12.3154 3.51952
208 2 2.2208 16.8719 8.02628 5.01238
209 1 -1.1104 18.2225 9.36836 0.809229
210 1 -1.1104 18.3728 9.71338 3.53888
211 1 -1.1104 18.3822 6.53704 0.820157
212 1 -1.1104 18.0905 12.6853 1.02501
213 2 2.2208 16.8974 10.8863 2.13513
214 1 -1.1104 18.3332 6.65908 3.86493
215 1 -1.1104 18.1915 12.5547 3.77437
216 1 -1.1104 15.2496 9.38987 0.917841
218 2 2.2208 19.6632 8.07116 2.11961
219 1 -1.1104 15.469 9.55063 3.70857
221 2 2.2208 19.6594 10.8192 5.14603
222 1 -1.1104 15.5801 6.59822 0.834191
226 1 -1.1104 15.4577 6.8671 3.62562
575 1 -1.1104 23.9947 9.62236 9.26712
541 1 -1.1104 18.2709 6.69012 6.69975
247 1 -1.1104 26.7481 12.5141 3.72358
236 1 -1.1104 23.7493 12.1865 0.963464
587 2 2.2208 11.2306 11.0833 13.6873
217 1 -1.1104 20.7904 9.67807 0.991948
245 1 -1.1104 26.502 12.4443 0.928091
565 1 -1.1104 27.0613 6.87657 12.0976
225 1 -1.1104 20.9188 12.2849 0.823987
224 1 -1.1104 21.1347 6.70384 0.876586
228 1 -1.1104 20.9946 6.44921 3.83979
220 1 -1.1104 21.1021 9.37224 3.6097
239 1 -1.1104 23.8612 12.2947 3.58968
232 2 2.2208 22.2474 7.95587 5.08222
233 1 -1.1104 23.8189 9.38488 0.41898
234 1 -1.1104 23.7191 9.74479 3.42869
235 1 -1.1104 23.9409 6.7336 0.870436
237 2 2.2208 22.3506 10.8387 2.12709
238 1 -1.1104 23.874 6.72798 3.84921
240 1 -1.1104 26.4764 9.63673 0.844172
241 2 2.2208 25.1512 8.14259 2.40876
242 1 -1.1104 26.7315 9.74636 3.5139
243 2 2.2208 25.3442 11.0657 5.10633
244 1 -1.1104 26.7479 6.73199 0.97866
246 1 -1.1104 26.6623 6.83379 3.46964
582 1 -1.1104 26.5066 6.74729 6.51769
581 1 -1.1104 26.5059 9.5983 6.29441
556 1 -1.1104 21.1262 6.74355 9.38804
250 1 -1.1104 1.23834 -4.75863 6.55013
29076 2 2.2208 22.5322 -8.71703 5.14604
568 2 2.2208 25.2153 8.19489 7.72877
535 1 -1.1104 21.1876 6.51559 12.3122
248 1 -1.1104 1.46491 -7.58433 6.65569
253 1 -1.1104 4.27136 -4.8631 6.58508
254 2 2.2208 5.56977 -2.98776 10.7085
255 1 -1.1104 1.50385 -7.26194 12.1152
257 1 -1.1104 1.50938 -7.77321 9.45504
259 1 -1.1104 1.61577 -4.40136 12.072
260 2 2.2208 5.64546 -5.87732 8.04399
261 1 -1.1104 1.44217 -4.70206 9.21558
262 1 -1.1104 4.44229 -7.32565 12.2914
264 2 2.2208 2.62681 -3.30014 7.87829
265 1 -1.1104 4.17972 -7.34768 9.51865
267 2 2.2208 2.89152 -5.85091 10.8287
268 1 -1.1104 4.33071 -4.54751 12.0881
269 1 -1.1104 4.10321 -4.48026 9.36866
347 2 2.2208 -0.0275391 -3.06176 10.7816
386 2 2.2208 2.69735 2.43142 13.4925
348 2 2.2208 -0.0163958 -6.23866 8.16251
266 1 -1.1104 4.57716 -1.42415 9.3136
576 1 -1.1104 24.0392 9.45806 12.0502
272 1 -1.1104 7.04995 -7.31139 6.43885
367 2 2.2208 0.112528 -5.98786 13.6359
547 1 -1.1104 20.7952 6.64793 6.66671
574 1 -1.1104 24.0753 6.80454 12.0738
278 1 -1.1104 9.99719 -7.14075 6.53949
280 1 -1.1104 9.79155 -4.55989 6.48855
281 1 -1.1104 7.2482 -7.50521 12.1784
286 1 -1.1104 6.95714 -4.54771 9.38162
285 1 -1.1104 7.05946 -4.52939 12.1302
283 1 -1.1104 7.09722 -7.501 9.44446
277 1 -1.1104 12.6582 -4.47058 6.46303
287 2 2.2208 11.2215 -2.98628 10.9099
288 1 -1.1104 12.5912 -7.4065 12.4352
290 1 -1.1104 12.664 -7.17398 9.64887
292 1 -1.1104 12.5196 -4.3182 11.9993
293 2 2.2208 11.3082 -5.92711 7.98449
294 1 -1.1104 12.7907 -4.47297 9.21202
295 1 -1.1104 9.85322 -7.36004 12.1435
297 2 2.2208 8.47036 -3.21657 7.99488
298 1 -1.1104 9.92479 -7.16717 9.23022
300 2 2.2208 8.46242 -6.00362 10.6194
301 1 -1.1104 9.75677 -4.54729 12.1981
302 1 -1.1104 9.77755 -4.25689 9.34266
289 1 -1.1104 12.7536 -1.635 12.1775
284 1 -1.1104 7.37323 -1.88899 9.3455
273 1 -1.1104 7.1583 -1.85216 6.6341
291 1 -1.1104 12.8454 -1.63054 9.23638
388 2 2.2208 5.57453 5.15887 13.2819
387 2 2.2208 5.64072 -0.170439 13.5501
549 1 -1.1104 21.0377 12.4425 9.4171
569 1 -1.1104 26.7893 9.68915 11.9687
315 2 2.2208 13.9991 -5.67197 10.88
314 2 2.2208 13.9155 -3.15011 7.83166
316 2 2.2208 16.8652 -3.05484 10.8452
317 1 -1.1104 18.1779 -7.23011 12.1843
319 1 -1.1104 18.5206 -7.3514 9.4024
321 1 -1.1104 18.4105 -4.42617 12.1824
322 2 2.2208 17.1045 -6.06364 8.09518
323 1 -1.1104 18.4995 -4.68061 9.35449
324 1 -1.1104 15.5677 -7.4592 12.2451
328 2 2.2208 19.717 -3.13502 8.02869
329 1 -1.1104 15.4915 -7.5266 9.43651
333 2 2.2208 19.7122 -5.94973 10.7746
334 1 -1.1104 15.2961 -4.54106 12.1361
336 1 -1.1104 15.7203 -4.59265 9.49473
330 1 -1.1104 15.5602 -1.84894 9.31358
325 1 -1.1104 15.3526 -1.49401 12.1026
577 2 2.2208 22.3527 8.07039 10.7371
570 1 -1.1104 23.9644 12.5631 9.17186
472 2 2.2208 25.3886 2.45488 13.4597
310 1 -1.1104 20.8502 -7.45351 6.26739
903 2 2.2208 22.3883 10.9941 13.534
313 1 -1.1104 21.0468 -4.79349 6.76734
337 1 -1.1104 21.3461 -4.88729 9.64086
331 1 -1.1104 21.5242 -7.71981 9.10439
326 1 -1.1104 21.0356 -7.24515 11.9429
335 1 -1.1104 21.2302 -4.437 12.55
346 1 -1.1104 26.7925 -4.59283 6.80068
349 2 2.2208 22.5775 -3.05468 10.7762
350 1 -1.1104 23.9661 -7.18558 12.3749
352 1 -1.1104 24.1021 -7.33243 9.63954
354 1 -1.1104 24.145 -4.36021 12.1742
355 2 2.2208 22.5815 -5.91206 8.03862
356 1 -1.1104 23.9156 -4.52984 9.4255
357 1 -1.1104 26.7111 -7.47437 12.3167
359 2 2.2208 25.4526 -3.1819 8.08993
360 1 -1.1104 26.9296 -7.64049 9.58643
362 2 2.2208 25.4201 -5.89866 10.98
363 1 -1.1104 26.9707 -4.45973 12.227
364 1 -1.1104 26.6986 -4.76044 9.54799
327 1 -1.1104 20.9921 -1.68317 12.2718
361 1 -1.1104 26.8911 -1.68589 9.46579
579 1 -1.1104 23.7979 6.52361 6.5361
258 1 -1.1104 1.55636 -1.86892 9.59262
256 1 -1.1104 1.38706 -1.55703 12.3115
263 1 -1.1104 4.23201 -1.55592 12.1912
371 1 -1.1104 4.22093 1.03803 6.57446
368 1 -1.1104 1.19168 3.93843 6.54201
372 2 2.2208 5.5008 2.53378 10.6142
373 1 -1.1104 1.15957 4.02332 11.9791
374 1 -1.1104 1.25499 3.82915 9.04686
375 1 -1.1104 1.33226 1.12067 12.136
376 2 2.2208 5.67945 -0.166874 7.9833
377 2 2.2208 5.45365 5.36123 7.93161
378 1 -1.1104 1.21742 0.966968 9.33859
379 1 -1.1104 3.92883 3.91979 12.148
380 2 2.2208 2.58872 2.38597 7.71625
381 1 -1.1104 3.97366 3.8525 9.09017
382 2 2.2208 2.88645 -0.296078 10.7272
383 2 2.2208 2.46575 5.19721 10.4937
384 1 -1.1104 4.11592 1.17436 12.0268
385 1 -1.1104 4.35356 1.17212 9.45549
453 2 2.2208 -0.188148 5.39983 7.72683
451 2 2.2208 -0.0426446 2.49769 10.815
452 2 2.2208 -0.092091 -0.301881 7.78537
296 1 -1.1104 9.90743 -1.7544 12.3128
276 1 -1.1104 12.784 -1.69934 6.43903
279 1 -1.1104 10.009 -1.71761 6.37536
299 1 -1.1104 10.112 -1.7339 9.3511
397 1 -1.1104 6.95012 1.11963 12.1804
398 1 -1.1104 7.00724 0.883049 9.35767
391 1 -1.1104 12.7264 3.95626 6.61101
282 1 -1.1104 7.0559 -1.72755 12.1342
389 1 -1.1104 7.02868 4.02497 6.45769
394 1 -1.1104 9.76422 0.977959 6.55742
396 1 -1.1104 6.83618 3.77891 9.24536
390 1 -1.1104 7.11082 1.10589 6.46874
395 1 -1.1104 6.92076 4.00667 11.967
393 1 -1.1104 9.72113 3.94804 6.43003
399 2 2.2208 11.2007 2.49525 10.8943
400 1 -1.1104 12.7076 3.66831 12.0697
401 1 -1.1104 12.7701 3.75624 9.3526
402 1 -1.1104 12.4843 1.0133 12.359
403 2 2.2208 11.1675 -0.443955 7.91025
404 2 2.2208 11.1096 5.27242 8.05569
405 1 -1.1104 12.5703 1.08649 9.43049
406 1 -1.1104 9.85297 3.91164 12.348
407 2 2.2208 8.51281 2.48715 7.91139
408 1 -1.1104 9.59926 3.98683 9.3752
409 2 2.2208 8.56572 -0.417757 10.76
411 1 -1.1104 9.86951 0.926506 12.3642
412 1 -1.1104 9.71902 1.27304 9.3461
410 2 2.2208 8.23583 5.27666 10.7287
902 2 2.2208 -0.0612985 11.0773 13.5422
318 1 -1.1104 18.1747 -1.58593 12.2939
320 1 -1.1104 18.5546 -1.78507 9.43779
423 2 2.2208 13.9783 -0.253612 10.8107
424 2 2.2208 14.0809 5.4374 10.6752
422 2 2.2208 14.0572 2.44463 7.89082
417 1 -1.1104 18.3021 1.04546 6.45405
416 1 -1.1104 18.3908 3.84947 6.6035
425 2 2.2208 17.0274 2.41928 10.8166
426 1 -1.1104 18.3181 3.73514 12.2459
427 1 -1.1104 18.3309 3.88444 9.55242
428 1 -1.1104 18.0261 0.990719 12.2611
429 2 2.2208 16.8246 -0.34621 7.927
431 1 -1.1104 18.3813 1.07296 9.40695
432 1 -1.1104 15.5167 3.97468 12.3698
434 2 2.2208 19.8216 2.39219 8.08661
435 1 -1.1104 15.6119 4.08101 9.42453
437 2 2.2208 19.7685 -0.242309 10.9627
438 2 2.2208 19.7486 5.2991 10.787
439 1 -1.1104 15.2606 1.19523 12.2632
441 1 -1.1104 15.5525 1.12144 9.41889
181 1 -1.1104 4.02499 12.4373 0.696738
563 1 -1.1104 26.6433 6.79336 9.2099
311 1 -1.1104 21.1401 -1.63295 6.46986
353 1 -1.1104 24.0573 -1.84389 9.62019
351 1 -1.1104 23.8231 -1.64536 12.1791
449 1 -1.1104 26.5721 3.75958 6.37371
332 1 -1.1104 21.2249 -1.92465 9.30716
342 1 -1.1104 24.0797 -1.96968 6.60507
433 1 -1.1104 21.4041 3.76005 12.3536
440 1 -1.1104 20.9219 1.08979 12.2033
421 1 -1.1104 21.2438 0.990908 6.67622
448 1 -1.1104 23.9019 0.977315 6.73992
358 1 -1.1104 26.8172 -1.70783 12.325
442 1 -1.1104 21.1344 0.806746 9.38301
436 1 -1.1104 21.2391 3.77127 9.5341
450 1 -1.1104 26.8413 0.942757 6.40819
447 1 -1.1104 23.8861 3.86931 6.40099
454 2 2.2208 22.6394 2.34089 10.6532
455 1 -1.1104 24.1074 4.03517 12.2085
456 1 -1.1104 23.7725 3.88218 9.50596
457 1 -1.1104 24.0821 1.085 12.344
458 2 2.2208 22.5314 -0.455835 7.93588
460 1 -1.1104 23.7757 1.04947 9.3739
461 1 -1.1104 26.7987 3.85829 11.9421
462 2 2.2208 25.1353 2.49649 7.78639
463 1 -1.1104 26.6885 4.11595 9.12651
464 2 2.2208 25.3646 -0.454871 10.8596
465 2 2.2208 25.2491 5.32473 10.5792
466 1 -1.1104 26.8028 1.18837 12.1591
467 1 -1.1104 26.688 1.03003 9.442
459 2 2.2208 22.4001 5.14605 7.9374
492 1 -1.1104 3.95775 12.4257 12.0994
486 1 -1.1104 1.20874 12.4423 9.38394
149 2 2.2208 -0.180362 10.9322 7.84648
475 1 -1.1104 1.0588 12.4695 6.54989
478 1 -1.1104 4.14517 12.4583 6.35896
476 1 -1.1104 4.06509 9.6461 6.45577
477 1 -1.1104 3.88396 6.74172 6.5184
474 1 -1.1104 1.09751 6.91996 6.29981
479 2 2.2208 5.47666 8.09519 10.7406
480 1 -1.1104 1.40308 9.77211 12.1169
481 1 -1.1104 1.32775 9.48649 9.2729
482 1 -1.1104 1.53203 6.81943 11.7796
483 1 -1.1104 1.30033 12.5907 12.2338
484 2 2.2208 5.61861 11.0243 7.80567
485 1 -1.1104 1.20334 6.65748 8.97462
487 1 -1.1104 4.09302 9.69503 12.122
488 2 2.2208 2.54806 8.27067 7.71453
489 1 -1.1104 4.07099 9.42621 9.18321
490 2 2.2208 2.62435 11.0056 10.6799
491 1 -1.1104 4.23565 6.66622 11.9464
493 1 -1.1104 4.17815 6.57226 9.34414
494 1 -1.1104 4.04356 12.2925 9.34074
584 2 2.2208 -0.112724 8.17659 10.5091
509 1 -1.1104 7.08256 12.4511 6.56172
495 1 -1.1104 9.52425 12.3348 9.34504
514 1 -1.1104 9.88778 6.72536 6.6649
515 1 -1.1104 9.80512 12.4773 6.55981
517 1 -1.1104 6.88394 9.40324 9.13966
505 1 -1.1104 12.4036 12.3554 9.29366
520 1 -1.1104 7.10371 6.60694 9.29969
521 1 -1.1104 6.77502 12.2546 9.28864
512 1 -1.1104 12.5545 12.4233 6.63446
508 1 -1.1104 6.80069 6.90039 6.33041
519 1 -1.1104 6.57251 12.4153 12.1016
507 1 -1.1104 7.02553 9.4692 6.29615
518 1 -1.1104 7.02377 6.8597 12.0578
516 1 -1.1104 6.83213 9.63319 12.0929
511 1 -1.1104 12.7137 6.86467 6.58352
510 1 -1.1104 12.6489 9.76624 6.64951
513 1 -1.1104 9.92492 9.62053 6.44542
496 1 -1.1104 9.88077 6.60281 9.58591
497 1 -1.1104 9.53198 12.3267 12.0103
498 1 -1.1104 9.96572 7.02944 12.4309
500 2 2.2208 8.13868 10.8966 10.6296
501 1 -1.1104 9.57781 9.60544 9.32531
503 2 2.2208 8.36419 7.95174 7.90307
504 1 -1.1104 9.82968 9.81724 12.0843
506 1 -1.1104 12.7909 6.68565 9.40457
522 2 2.2208 11.3456 8.24218 10.9764
523 1 -1.1104 12.6957 9.38003 12.2042
524 1 -1.1104 12.4967 9.4796 9.39076
525 1 -1.1104 12.3781 6.6495 12.3663
526 1 -1.1104 12.6107 12.3563 12.2158
527 2 2.2208 11.0819 11.0223 7.87261
502 2 2.2208 13.9112 8.13561 7.97197
539 1 -1.1104 21.079 9.61846 9.47044
557 1 -1.1104 15.2524 12.2848 9.18658
430 2 2.2208 16.8876 5.35553 8.04313
543 1 -1.1104 15.2511 9.5765 6.82871
499 2 2.2208 13.9421 10.8237 10.6115
546 1 -1.1104 15.4452 12.4885 6.57231
542 1 -1.1104 18.4799 11.9208 6.68668
545 1 -1.1104 15.6394 6.65426 6.46222
540 1 -1.1104 18.2997 9.20787 6.2849
554 1 -1.1104 18.1684 12.525 9.31269
536 1 -1.1104 15.4154 12.4589 12.2041
558 1 -1.1104 15.671 6.9331 9.14613
555 1 -1.1104 18.4162 6.68228 9.39399
529 2 2.2208 16.7505 10.8908 7.87993
530 1 -1.1104 18.2566 12.6356 12.0799
531 1 -1.1104 18.2956 6.73078 12.0736
532 1 -1.1104 18.2826 9.61821 9.10298
533 1 -1.1104 18.0209 9.76793 11.7818
534 2 2.2208 16.7351 8.22716 10.6836
537 1 -1.1104 15.2751 6.9452 11.8283
538 2 2.2208 19.62 10.9767 10.7378
550 1 -1.1104 15.5763 9.65905 9.33896
551 2 2.2208 19.6612 8.10128 8.01989
553 1 -1.1104 15.27 9.25423 12.0433
564 1 -1.1104 26.5116 12.5851 11.9385
572 2 2.2208 22.488 10.9466 7.90936
566 2 2.2208 25.4147 10.9671 10.7545
567 1 -1.1104 26.7928 9.47919 9.20766
573 1 -1.1104 23.8522 12.3786 11.9536
559 1 -1.1104 21.0065 12.3478 12.1876
571 1 -1.1104 23.7649 6.65269 9.29004
562 1 -1.1104 26.73 12.1626 9.16165
578 1 -1.1104 23.8216 9.50827 6.17084
580 1 -1.1104 23.909 12.4226 6.30901
583 1 -1.1104 26.7765 12.3729 6.52192
470 2 2.2208 22.6128 5.30459 13.5305
72 2 2.2208 25.251 -5.91733 -0.357577
843 2 2.2208 -0.0451978 8.23252 -0.468104
1061 2 2.2208 -0.0609877 2.58333 -0.426211
338 2 2.2208 14.032 -2.9814 13.6009
811 2 2.2208 25.2588 10.9374 -0.348202
28992 2 2.2208 5.54951 -8.81013 -0.288322
1019 2 2.2208 11.3066 2.34417 -0.308983
43 2 2.2208 19.3541 -6.11361 -0.459245
126 2 2.2208 14.0823 -0.426162 -0.354804
365 2 2.2208 22.4223 -6.03601 13.5446
29074 2 2.2208 -0.0329102 -8.8294 -0.246535
588 2 2.2208 5.47076 -2.93828 16.4777
589 1 -1.1104 1.25108 -7.35469 17.8323
591 1 -1.1104 1.4776 -7.22365 14.9043
595 1 -1.1104 1.28089 -4.77534 17.8795
596 2 2.2208 5.45825 -6.14414 19.1555
597 1 -1.1104 1.39537 -4.51379 14.7911
599 1 -1.1104 4.188 -7.50304 17.8708
601 2 2.2208 2.87554 -3.29104 19.2433
602 1 -1.1104 4.33122 -7.30263 14.994
606 2 2.2208 2.89647 -6.01446 16.3263
607 1 -1.1104 4.36971 -4.75901 17.9015
608 1 -1.1104 4.19621 -4.2716 15.0403
29685 2 2.2208 19.6385 -8.7705 19.3372
675 2 2.2208 -0.229181 -5.83072 19.4882
674 2 2.2208 0.049911 -3.08762 16.3903
1079 2 2.2208 5.49582 8.34489 27.7402
590 1 -1.1104 1.39254 -1.75534 17.7422
29021 2 2.2208 11.234 -8.57347 27.6763
609 1 -1.1104 4.10976 -4.4791 20.7335
888 1 -1.1104 23.9863 6.78686 20.6552
1150 2 2.2208 22.6565 2.48418 27.5927
616 1 -1.1104 7.18829 -4.31338 17.6486
617 1 -1.1104 6.84123 -4.22646 14.8594
610 1 -1.1104 7.03369 -7.29262 17.9469
29217 2 2.2208 25.4003 -8.78292 13.785
612 1 -1.1104 6.98759 -7.06284 15.0412
619 2 2.2208 11.2992 -3.14979 16.3928
620 1 -1.1104 12.6836 -7.48178 17.7716
622 1 -1.1104 12.4518 -7.55672 15.2185
626 1 -1.1104 12.4857 -4.27635 17.8743
627 2 2.2208 11.1655 -5.92587 19.1122
628 1 -1.1104 12.5901 -4.6837 14.912
630 1 -1.1104 9.59093 -7.48487 17.8095
632 2 2.2208 8.46205 -3.08561 19.5232
633 1 -1.1104 9.78142 -7.35073 14.9167
637 2 2.2208 8.42201 -5.92259 16.4679
638 1 -1.1104 10.126 -4.75402 17.6174
639 1 -1.1104 9.74074 -4.67211 14.8677
29971 2 2.2208 16.7411 -8.72197 21.9357
640 1 -1.1104 9.62895 -4.6167 20.5753
623 1 -1.1104 12.4563 -7.66959 20.54
631 1 -1.1104 9.65557 -1.60482 17.9826
635 1 -1.1104 10.0102 -1.65582 15.167
618 1 -1.1104 6.88497 -4.47034 20.5725
625 1 -1.1104 12.471 -2.01516 20.6682
838 1 -1.1104 9.80712 12.522 17.7891
29945 2 2.2208 8.39266 -8.71635 24.8446
641 2 2.2208 13.989 -3.14912 19.2212
642 2 2.2208 13.9544 -6.12046 16.3941
643 2 2.2208 16.7606 -3.18007 16.3265
644 1 -1.1104 18.2531 -7.35273 17.6731
646 1 -1.1104 17.9716 -7.45025 15.0649
650 1 -1.1104 18.1509 -4.5666 17.9777
651 2 2.2208 16.6587 -6.05527 19.0243
652 1 -1.1104 18.0333 -4.70351 15.0781
654 1 -1.1104 15.448 -7.54988 17.7417
658 2 2.2208 19.6132 -3.16013 19.1136
659 1 -1.1104 15.3844 -7.3186 15.0636
667 2 2.2208 19.7123 -6.0944 16.5436
668 1 -1.1104 15.3094 -4.51788 17.8066
670 1 -1.1104 15.4273 -4.4843 14.8902
648 1 -1.1104 18.1958 -1.76382 15.0215
661 1 -1.1104 15.4976 -1.68805 14.9236
1060 2 2.2208 25.5451 5.39149 27.6315
1018 2 2.2208 8.27078 5.41834 27.6914
669 1 -1.1104 20.9484 -4.56216 17.623
340 2 2.2208 16.7875 -5.97293 13.6452
645 1 -1.1104 18.2224 -1.78852 17.7411
662 1 -1.1104 15.1708 -1.87828 20.7411
660 1 -1.1104 15.2359 -7.41722 20.6077
647 1 -1.1104 18.0211 -7.44006 20.6371
890 1 -1.1104 23.78 12.4197 20.7904
69 2 2.2208 14.0511 -5.82428 27.6954
29687 2 2.2208 14.0711 -8.80947 19.1729
656 1 -1.1104 21.2022 -7.44132 17.8957
663 1 -1.1104 20.9721 -7.44824 15.0825
665 1 -1.1104 20.9849 -1.72255 15.194
672 1 -1.1104 20.7725 -4.64674 15.0961
676 2 2.2208 22.3304 -3.10784 16.3233
677 1 -1.1104 24.0403 -7.42679 18.0986
679 1 -1.1104 23.6914 -7.59371 15.0245
683 1 -1.1104 23.7343 -4.53849 17.9536
684 2 2.2208 22.4826 -6.1079 19.3566
685 1 -1.1104 23.8862 -4.7418 14.8174
687 1 -1.1104 26.7776 -7.39484 18.0152
689 2 2.2208 25.1894 -3.14783 19.3713
690 1 -1.1104 26.7091 -7.11684 14.9699
694 2 2.2208 25.1697 -5.87843 16.6766
695 1 -1.1104 26.5079 -4.59443 18.2902
696 1 -1.1104 26.7341 -4.28073 15.3417
29402 2 2.2208 14.0614 -8.75624 13.7683
678 1 -1.1104 24.0205 -1.64673 17.8395
688 1 -1.1104 26.7477 -1.72833 17.9281
657 1 -1.1104 21.1744 -1.94232 17.9114
681 1 -1.1104 23.7581 -1.80897 14.9567
29686 2 2.2208 16.8411 -8.81926 16.388
673 1 -1.1104 21.2378 -4.51854 20.6286
691 1 -1.1104 26.7322 -7.44141 20.8473
697 1 -1.1104 26.7007 -4.42157 21.1262
604 1 -1.1104 4.44344 -1.42536 15.0379
600 1 -1.1104 3.98354 -1.61694 17.9629
593 1 -1.1104 1.63758 -1.85071 15.1228
698 2 2.2208 5.39047 2.50451 16.4093
699 1 -1.1104 1.27519 3.89967 17.755
700 1 -1.1104 1.23407 3.8614 14.924
702 1 -1.1104 1.41753 1.14493 17.7249
703 2 2.2208 5.44105 -0.341261 19.4403
705 1 -1.1104 1.41413 0.790166 14.9779
707 1 -1.1104 4.12534 3.99209 17.8076
708 2 2.2208 2.71254 2.67733 19.1852
709 1 -1.1104 4.20701 3.85849 14.9354
711 2 2.2208 2.73586 -0.310057 16.4484
712 2 2.2208 2.79517 5.23946 16.312
713 1 -1.1104 4.01601 1.25148 17.8725
714 1 -1.1104 4.02085 1.24964 14.8993
704 2 2.2208 5.62628 5.14186 19.3451
767 2 2.2208 -0.0745778 2.40919 16.4289
768 2 2.2208 0.190601 -0.35333 19.1768
769 2 2.2208 -0.0637265 5.27086 19.2787
809 1 -1.1104 4.01054 12.2863 20.5057
29714 2 2.2208 -0.0187217 -8.82318 16.6595
810 2 2.2208 22.2762 7.96743 27.5704
29993 2 2.2208 -0.0863615 -8.85214 22.177
105 2 2.2208 2.63239 -0.352308 27.5929
614 1 -1.1104 7.25528 -1.58682 14.9006
611 1 -1.1104 6.81212 -1.57117 18.0723
624 1 -1.1104 12.6717 -1.8111 14.9343
621 1 -1.1104 12.583 -1.86848 17.683
716 1 -1.1104 6.60741 4.14081 17.6428
717 1 -1.1104 6.93402 4.03975 14.9313
719 1 -1.1104 7.0472 1.35691 17.816
720 1 -1.1104 6.8969 1.28449 15.0769
722 2 2.2208 11.1018 2.60922 16.3976
723 1 -1.1104 12.5673 3.88656 17.8991
724 1 -1.1104 12.5311 3.79657 14.822
726 1 -1.1104 12.7782 1.15935 17.9647
727 2 2.2208 11.257 -0.396929 19.438
728 2 2.2208 11.0405 5.48341 19.1699
729 1 -1.1104 12.6461 1.05867 15.2697
731 1 -1.1104 9.73033 3.8859 17.9056
732 2 2.2208 8.48139 2.42716 19.2224
733 1 -1.1104 9.81443 3.76273 15.0285
735 2 2.2208 8.39924 -0.293404 16.5986
736 2 2.2208 8.36563 5.22146 16.3363
737 1 -1.1104 9.95045 1.079 17.9792
738 1 -1.1104 9.6843 1.08054 15.1812
1042 2 2.2208 19.6986 5.20344 27.6066
29617 2 2.2208 5.79591 -8.73899 16.5087
721 1 -1.1104 7.00048 0.925817 20.4153
730 1 -1.1104 12.7606 1.098 20.7133
734 1 -1.1104 9.95059 3.90985 20.5673
366 2 2.2208 25.3661 -3.04437 13.6912
742 2 2.2208 13.9015 5.26236 16.31
741 2 2.2208 13.9831 -0.331512 16.4539
655 1 -1.1104 15.4163 -1.76107 17.8546
740 2 2.2208 14.0602 2.5424 19.3989
743 2 2.2208 16.5798 2.47643 16.3527
744 1 -1.1104 18.116 3.98092 17.8503
745 1 -1.1104 18.2428 4.12533 15.0515
747 1 -1.1104 18.1607 1.01125 17.8507
748 2 2.2208 16.8468 -0.313854 19.3478
750 1 -1.1104 18.0313 1.18432 15.0886
752 1 -1.1104 15.2452 4.07554 17.837
754 2 2.2208 19.6663 2.52047 19.3617
755 1 -1.1104 15.4405 3.97928 15.1092
759 2 2.2208 19.6038 -0.398542 16.462
760 2 2.2208 19.7041 5.43001 16.3465
761 1 -1.1104 15.3346 1.11806 17.6651
763 1 -1.1104 15.2824 1.09839 14.8828
749 2 2.2208 16.7693 5.39715 19.0828
1103 2 2.2208 11.2449 8.27182 27.6097
649 1 -1.1104 18.0507 -1.84521 20.6894
764 1 -1.1104 15.4626 1.17371 20.5295
1078 2 2.2208 2.57654 11.1497 27.6803
692 1 -1.1104 26.5519 -1.60178 15.1173
753 1 -1.1104 21.171 3.87584 17.6883
765 1 -1.1104 20.9693 0.994818 15.001
762 1 -1.1104 20.9108 0.93996 17.898
757 1 -1.1104 20.9841 3.84227 15.1475
770 2 2.2208 22.3828 2.38862 16.5316
771 1 -1.1104 23.8832 3.92834 17.7265
772 1 -1.1104 24.0061 3.84944 15.0909
774 1 -1.1104 23.7956 1.07692 18.0427
775 2 2.2208 22.4722 -0.246828 19.2828
776 2 2.2208 22.5772 5.40771 19.0074
777 1 -1.1104 23.6876 0.948107 15.317
779 1 -1.1104 26.8921 3.75498 17.8252
780 2 2.2208 25.3726 2.57125 19.2777
781 1 -1.1104 26.858 3.8178 14.9197
783 2 2.2208 25.289 -0.243893 16.6845
784 2 2.2208 25.3506 5.2912 16.3586