LAMMPS (29 Oct 2020)
OMP_NUM_THREADS environment is not set. Defaulting to 1 thread. (../comm.cpp:94)
  using 1 OpenMP thread(s) per MPI task
OMP_NUM_THREADS environment is not set. Defaulting to 1 thread. (../comm.cpp:94)
  using 1 OpenMP thread(s) per MPI task
Reading data file ...
  orthogonal box = (-0.32102895 -3.8423747 -0.31245959) to (27.661029 331.92237 27.652460)
  2 by 13 by 2 MPI processor grid
  reading atoms ...
  17640 atoms
  reading velocities ...
  17640 velocities
Finding 1-2 1-3 1-4 neighbors ...
  special bond factors lj:    0.0      0.0      0.0     
  special bond factors coul:  0.0      0.0      0.0     
     0 = max # of 1-2 neighbors
     0 = max # of 1-3 neighbors
     0 = max # of 1-4 neighbors
     1 = max # of special neighbors
  special bonds CPU = 0.004 seconds
  read_data CPU = 0.051 seconds
Setting atom values ...
  11760 settings made for charge
Setting atom values ...
  5880 settings made for charge
PPPM initialization ...
  using 12-bit tables for long-range coulomb (../kspace.cpp:328)
  G vector (1/distance) = 0.29897865
  grid = 40 240 40
  stencil order = 5
  estimated absolute RMS force accuracy = 0.00015489138
  estimated relative force accuracy = 1.0756611e-05
  using single precision MKL FFT
  3d grid and FFT values/proc = 15000 7600
Neighbor list info ...
  update every 1 steps, delay 0 steps, check yes
  max neighbors/atom: 2000, page size: 100000
  master list distance cutoff = 11.3
  ghost atom cutoff = 11.3
  binsize = 5.65, bins = 5 60 5
  2 neighbor lists, perpetual/occasional/extra = 2 0 0
  (1) pair coul/long, perpetual
      attributes: half, newton on
      pair build: half/bin/newton
      stencil: half/bin/3d/newton
      bin: standard
  (2) pair eam/alloy, perpetual, copy from (1)
      attributes: half, newton on
      pair build: copy
      stencil: none
      bin: none
Setting up Verlet run ...
  Unit style    : metal
  Current step  : 0
  Time step     : 0.001
Per MPI rank memory allocation (min/avg/max) = 8.154 | 8.185 | 8.206 Mbytes
Step Temp E_pair E_mol TotEng Press 
       0          300   -231211.64            0   -230527.63   -134.43286 
   50000    300.45753    -231212.7            0   -230527.65    92.030207 
Loop time of 319.863 on 52 procs for 50000 steps with 17640 atoms

Performance: 13.506 ns/day, 1.777 hours/ns, 156.317 timesteps/s
99.8% CPU use with 52 MPI tasks x 1 OpenMP threads

MPI task timing breakdown:
Section |  min time  |  avg time  |  max time  |%varavg| %total
---------------------------------------------------------------
Pair    | 210.49     | 219.44     | 229.85     |  30.6 | 68.60
Bond    | 0.0033988  | 0.0051686  | 0.0071034  |   1.4 |  0.00
Kspace  | 67.038     | 77.888     | 86.999     |  52.2 | 24.35
Neigh   | 10.154     | 11.942     | 13.132     |  18.0 |  3.73
Comm    | 7.6232     | 8.4191     | 9.4452     |  13.0 |  2.63
Output  | 4.9786e-05 | 5.4542e-05 | 0.00026071 |   0.0 |  0.00
Modify  | 0.89537    | 1.491      | 2.3596     |  38.4 |  0.47
Other   |            | 0.6809     |            |       |  0.21

Nlocal:        339.231 ave         368 max         318 min
Histogram: 5 2 4 12 12 8 3 2 2 2
Nghost:        4143.52 ave        4318 max        3977 min
Histogram: 7 5 0 4 8 10 6 6 2 4
Neighs:        67538.9 ave       74043 max       56793 min
Histogram: 1 3 2 2 2 6 20 7 5 4

Total # of neighbors = 3512023
Ave neighs/atom = 199.09427
Ave special neighs/atom = 0.0000000
Neighbor list builds = 5755
Dangerous builds = 0
11760 atoms in group oxygen
PPPM initialization ...
  using 12-bit tables for long-range coulomb (../kspace.cpp:328)
  G vector (1/distance) = 0.29897865
  grid = 40 240 40
  stencil order = 5
  estimated absolute RMS force accuracy = 0.00015489138
  estimated relative force accuracy = 1.0756611e-05
  using single precision MKL FFT
  3d grid and FFT values/proc = 15000 7600
Setting up Verlet run ...
  Unit style    : metal
  Current step  : 0
  Time step     : 0.001
Per MPI rank memory allocation (min/avg/max) = 8.405 | 8.435 | 8.456 Mbytes
Step f_2 Temp v_Tdiff v_deltaT 
       0            0    300.45753            0            0 
  100000    357.87234    299.50071 0.0070344111     81.66886 
  200000     708.6335     299.8839 0.0078232472    90.827174 
  300000    1061.6661      301.943 0.0076993799    89.389086 
  400000     1411.531    299.47328 0.0079038848    91.763369 
  500000    1763.9425    297.68224 0.0079000447    91.718785 
  600000    2118.4788    299.25453 0.0075104488    87.195613 
  700000    2473.3992    299.77276 0.0077988543    90.543974 
  800000    2826.0896    299.73486  0.007766712    90.170805 
  900000    3178.8258    299.48299 0.0078937702    91.645939 
 1000000    3529.2917    301.81687 0.0078732394    91.407578 
Loop time of 6398.01 on 52 procs for 1000000 steps with 17640 atoms

Performance: 13.504 ns/day, 1.777 hours/ns, 156.299 timesteps/s
99.9% CPU use with 52 MPI tasks x 1 OpenMP threads

MPI task timing breakdown:
Section |  min time  |  avg time  |  max time  |%varavg| %total
---------------------------------------------------------------
Pair    | 4213.3     | 4389.1     | 4612.8     | 144.1 | 68.60
Bond    | 0.065137   | 0.10441    | 0.14546    |   5.8 |  0.00
Kspace  | 1331.1     | 1562.1     | 1740.7     | 244.5 | 24.42
Neigh   | 207.24     | 243.49     | 268.11     |  80.8 |  3.81
Comm    | 152.81     | 169.68     | 184.99     |  56.5 |  2.65
Output  | 0.0010968  | 0.0011602  | 0.0023042  |   0.5 |  0.00
Modify  | 5.5502     | 6.1156     | 6.7945     |  12.4 |  0.10
Other   |            | 27.46      |            |       |  0.43

Nlocal:        339.231 ave         366 max         310 min
Histogram: 1 0 6 3 13 15 7 2 2 3
Nghost:        4156.69 ave        4316 max        3968 min
Histogram: 4 4 6 2 4 12 4 1 9 6
Neighs:        67539.7 ave       73708 max       56898 min
Histogram: 1 2 2 1 4 8 17 7 4 6

Total # of neighbors = 3512063
Ave neighs/atom = 199.09654
Ave special neighs/atom = 0.0000000
Neighbor list builds = 117147
Dangerous builds = 0
Total wall time: 1:51:58
