LAMMPS (29 Oct 2020)
OMP_NUM_THREADS environment is not set. Defaulting to 1 thread. (../comm.cpp:94)
  using 1 OpenMP thread(s) per MPI task
OMP_NUM_THREADS environment is not set. Defaulting to 1 thread. (../comm.cpp:94)
  using 1 OpenMP thread(s) per MPI task
Reading data file ...
  orthogonal box = (-0.48646978 -6.0274787 -0.49010547) to (27.826470 334.10748 27.830105)
  2 by 13 by 2 MPI processor grid
  reading atoms ...
  17640 atoms
  reading velocities ...
  17640 velocities
Finding 1-2 1-3 1-4 neighbors ...
  special bond factors lj:    0.0      0.0      0.0     
  special bond factors coul:  0.0      0.0      0.0     
     0 = max # of 1-2 neighbors
     0 = max # of 1-3 neighbors
     0 = max # of 1-4 neighbors
     1 = max # of special neighbors
  special bonds CPU = 0.005 seconds
  read_data CPU = 0.074 seconds
Setting atom values ...
  11760 settings made for charge
Setting atom values ...
  5880 settings made for charge
PPPM initialization ...
  using 12-bit tables for long-range coulomb (../kspace.cpp:328)
  G vector (1/distance) = 0.29827915
  grid = 40 240 40
  stencil order = 5
  estimated absolute RMS force accuracy = 0.00016060426
  estimated relative force accuracy = 1.1153348e-05
  using single precision MKL FFT
  3d grid and FFT values/proc = 15000 7600
Neighbor list info ...
  update every 1 steps, delay 0 steps, check yes
  max neighbors/atom: 2000, page size: 100000
  master list distance cutoff = 11.3
  ghost atom cutoff = 11.3
  binsize = 5.65, bins = 6 61 6
  2 neighbor lists, perpetual/occasional/extra = 2 0 0
  (1) pair coul/long, perpetual
      attributes: half, newton on
      pair build: half/bin/newton
      stencil: half/bin/3d/newton
      bin: standard
  (2) pair eam/alloy, perpetual, copy from (1)
      attributes: half, newton on
      pair build: copy
      stencil: none
      bin: none
Setting up Verlet run ...
  Unit style    : metal
  Current step  : 0
  Time step     : 0.001
Per MPI rank memory allocation (min/avg/max) = 8.138 | 8.163 | 8.177 Mbytes
Step Temp E_pair E_mol TotEng Press 
       0         1500   -227978.53            0    -224558.5   -522.68475 
   50000    1507.7152   -228028.73            0   -224591.11   -1443.4063 
Loop time of 332.629 on 52 procs for 50000 steps with 17640 atoms

Performance: 12.987 ns/day, 1.848 hours/ns, 150.318 timesteps/s
99.8% CPU use with 52 MPI tasks x 1 OpenMP threads

MPI task timing breakdown:
Section |  min time  |  avg time  |  max time  |%varavg| %total
---------------------------------------------------------------
Pair    | 217.12     | 225.22     | 233.69     |  26.9 | 67.71
Bond    | 0.0032596  | 0.0052871  | 0.0091938  |   1.5 |  0.00
Kspace  | 63.552     | 74.157     | 83.756     |  58.5 | 22.29
Neigh   | 20.749     | 23.103     | 25.058     |  19.8 |  6.95
Comm    | 7.4442     | 8.0108     | 9.2203     |  14.4 |  2.41
Output  | 5.2477e-05 | 5.7425e-05 | 0.00026264 |   0.0 |  0.00
Modify  | 0.87088    | 1.471      | 2.5019     |  42.2 |  0.44
Other   |            | 0.6598     |            |       |  0.20

Nlocal:        339.231 ave         371 max         311 min
Histogram: 1 5 6 6 13 7 4 6 3 1
Nghost:        3906.94 ave        4047 max        3769 min
Histogram: 1 2 8 3 13 10 5 4 3 3
Neighs:        66910.5 ave       76500 max       58490 min
Histogram: 3 2 4 14 5 10 7 3 3 1

Total # of neighbors = 3479348
Ave neighs/atom = 197.24195
Ave special neighs/atom = 0.0000000
Neighbor list builds = 12492
Dangerous builds = 0
11760 atoms in group oxygen
PPPM initialization ...
  using 12-bit tables for long-range coulomb (../kspace.cpp:328)
  G vector (1/distance) = 0.29827915
  grid = 40 240 40
  stencil order = 5
  estimated absolute RMS force accuracy = 0.00016060426
  estimated relative force accuracy = 1.1153348e-05
  using single precision MKL FFT
  3d grid and FFT values/proc = 15000 7600
Setting up Verlet run ...
  Unit style    : metal
  Current step  : 0
  Time step     : 0.001
Per MPI rank memory allocation (min/avg/max) = 8.389 | 8.414 | 8.428 Mbytes
Step f_2 Temp v_Tdiff v_deltaT 
       0            0    1507.7152            0            0 
  100000    1568.6261    1492.3474  0.068094451    790.57025 
  200000    3009.8168    1496.6316  0.083951278    974.66654 
  300000    4446.1862    1492.1358  0.085130963    988.36258 
  400000    5891.3989    1512.1196  0.083812545    973.05587 
  500000    7332.6473    1491.0928  0.086672151    1006.2556 
  600000     8778.596    1490.2065  0.086357981    1002.6081 
  700000    10226.709    1492.7101  0.084001548    975.25017 
  800000    11670.587    1502.6556  0.085657865    994.47986 
  900000    13098.068    1497.7529  0.088484323    1027.2948 
 1000000    14532.307    1513.5218  0.084868285    985.31291 
Loop time of 6528.21 on 52 procs for 1000000 steps with 17640 atoms

Performance: 13.235 ns/day, 1.813 hours/ns, 153.181 timesteps/s
99.9% CPU use with 52 MPI tasks x 1 OpenMP threads

MPI task timing breakdown:
Section |  min time  |  avg time  |  max time  |%varavg| %total
---------------------------------------------------------------
Pair    | 4238.2     | 4412.2     | 4567.9     | 110.9 | 67.59
Bond    | 0.073864   | 0.10342    | 0.16669    |   5.6 |  0.00
Kspace  | 1263.8     | 1451.2     | 1636.7     | 228.9 | 22.23
Neigh   | 431.81     | 466.5      | 496.18     |  68.9 |  7.15
Comm    | 148.61     | 162.56     | 197.36     |  85.4 |  2.49
Output  | 0.0010636  | 0.0011306  | 0.0023172  |   0.5 |  0.00
Modify  | 5.3499     | 5.8076     | 6.3869     |  10.8 |  0.09
Other   |            | 29.87      |            |       |  0.46

Nlocal:        339.231 ave         363 max         316 min
Histogram: 2 4 2 10 9 7 9 5 3 1
Nghost:        3899.31 ave        4019 max        3793 min
Histogram: 3 4 6 5 10 12 5 3 2 2
Neighs:        66878.4 ave       73731 max       59043 min
Histogram: 3 3 2 7 8 7 7 7 7 1

Total # of neighbors = 3477677
Ave neighs/atom = 197.14722
Ave special neighs/atom = 0.0000000
Neighbor list builds = 253326
Dangerous builds = 0
Total wall time: 1:54:21
