ITEM: TIMESTEP
50000
ITEM: NUMBER OF ATOMS
18000
ITEM: BOX BOUNDS xy xz yz pp pp pp
-2.0039575044209301e-01 2.8094395750441862e+01 0.0000000000000000e+00
-2.2824399521569814e+00 3.3701043995215548e+02 0.0000000000000000e+00
-2.0429330350976085e-01 2.8098293303510115e+01 0.0000000000000000e+00
ITEM: ATOMS id type x y z
1 1 1.19868 -0.771053 0.92569
2 1 3.97049 -0.836442 1.47437
3 1 3.98594 -0.769387 4.214
4 1 1.3595 -0.812816 3.94333
5 1 1.22559 1.95481 1.0523
6 1 3.85325 2.21034 1.3221
7 1 3.78322 2.05379 4.03624
8 1 0.985834 1.8597 3.86448
15042 2 13.7423 20.1854 2.73623
10 1 9.70991 -0.779474 1.49804
11 1 9.56099 -1.13294 4.18467
12 1 6.82153 -0.782005 4.13951
13 1 6.83808 2.14279 1.51449
14 1 9.46504 2.00266 1.15465
15 1 9.63991 1.98633 4.16002
16 1 6.79505 1.98148 4.15047
17 1 12.4506 -0.839343 1.1838
18 1 12.5142 -0.837599 4.07638
19 1 12.1313 2.09143 1.31689
20 1 12.4247 2.03576 4.08909
21 1 1.0678 4.83065 1.36891
22 1 3.87373 5.04531 1.46203
23 1 3.78513 4.86066 4.12799
24 1 1.12349 4.77666 4.18777
25 1 1.02876 7.48612 1.48015
26 1 3.97951 7.67712 1.45748
27 1 3.79011 7.61167 4.18914
28 1 0.920919 7.53264 4.19738
29 1 6.77907 4.89542 1.55067
30 1 9.67099 4.91907 1.37683
31 1 9.4874 4.86574 4.01875
32 1 6.59369 4.85337 4.26788
33 1 6.7907 7.69426 1.21309
34 1 9.73302 7.58966 1.39612
35 1 9.44611 7.6814 4.22109
36 1 6.81286 7.75059 3.76506
37 1 12.3821 4.50915 1.25094
38 1 12.7108 4.88968 3.88721
39 1 12.6122 7.36911 1.33426
40 1 12.2138 7.6047 4.31652
41 1 1.21118 10.3525 0.973332
42 1 3.94852 10.4511 1.44161
43 1 4.01264 10.3609 4.16258
44 1 1.17646 10.3267 4.04014
45 1 1.21138 13.1367 1.34499
46 1 4.00055 13.2067 1.22768
47 1 3.69204 13.263 4.19361
48 1 1.07542 13.1693 4.18044
49 1 6.81139 10.4586 1.48062
50 1 9.72092 10.4946 1.32894
51 1 9.637 10.4251 3.95393
52 1 6.73454 10.3439 4.1799
53 1 6.86443 13.2619 1.21304
54 1 9.87274 13.3309 1.43777
55 1 9.43187 13.1667 3.978
56 1 6.66146 13.2149 3.97544
57 1 12.4097 10.1638 1.35603
58 1 12.4061 10.3886 4.01336
59 1 12.5795 13.2935 1.12257
60 1 12.317 13.0994 4.09613
61 1 1.23035 16.2141 1.33964
62 1 3.92943 16.0899 1.07151
63 1 3.9023 16.2539 3.97003
64 1 1.14191 15.8178 4.12484
65 1 1.28294 19.1317 1.08575
66 1 4.20139 18.9467 1.38397
67 1 4.02543 19.0916 4.09595
68 1 1.36668 18.7344 3.8272
69 1 6.74846 16.0658 1.26505
70 1 9.49189 16.0623 1.0728
71 1 9.48748 16.1502 4.10855
72 1 6.72001 15.9867 4.0183
73 1 6.63696 18.8633 1.28434
74 1 9.50718 18.8316 0.950199
75 1 9.5945 18.7045 3.76083
76 1 6.4699 18.8662 4.16923
77 1 12.2997 15.9835 1.35105
78 1 12.4811 15.9316 4.18982
12057 2 8.40539 -2.17236 8.21493
80 1 12.3312 18.8881 4.18963
81 1 1.06598 22.0077 1.19438
82 1 3.74363 22.0427 1.26849
83 1 3.95992 21.8406 4.10703
84 1 0.980938 21.9103 3.9674
85 1 6.58689 21.8156 1.17928
86 1 9.43823 21.6449 1.40808
87 1 9.51794 21.4584 4.16097
88 1 6.74327 21.6867 3.91299
89 1 12.2549 21.6143 1.22267
90 1 12.4466 21.8342 3.83642
91 1 1.16825 -1.22735 6.70932
92 1 4.05367 -0.899334 6.90891
93 1 3.79186 -0.874594 9.79308
94 1 1.12259 -0.950697 9.63108
95 1 0.965035 1.90734 6.70228
96 1 3.72425 1.76492 6.97404
97 1 4.05238 1.89293 9.8978
98 1 1.06105 1.94594 9.60359
99 1 6.89734 -0.615973 7.00656
100 1 9.86404 -0.634432 7.05271
101 1 9.67109 -0.887728 9.87983
102 1 6.70209 -0.925401 9.69708
103 1 6.62608 2.15631 6.92908
104 1 9.6179 2.16313 6.84698
105 1 9.62444 2.15132 9.75133
106 1 6.83092 2.08268 9.71329
107 1 12.2762 -0.864369 6.94102
108 1 12.586 -0.712487 9.80646
109 1 12.448 1.80291 6.79227
110 1 12.3312 2.07349 9.85831
111 1 0.98871 4.60328 7.2117
112 1 3.76646 4.59646 6.85662
113 1 3.90208 4.75282 9.71011
114 1 1.21242 4.86982 9.78723
115 1 0.934887 7.41442 6.92121
116 1 3.94557 7.63065 7.09355
117 1 3.92321 7.47186 9.99177
118 1 1.01467 7.70205 9.66254
119 1 6.60093 4.83417 7.00556
120 1 9.42193 4.90538 6.89651
121 1 9.76915 4.92994 9.75039
122 1 6.90323 4.90934 9.83385
123 1 6.7348 7.39523 6.67124
124 1 9.5987 7.56681 6.93296
125 1 9.59924 7.6816 9.62618
126 1 6.81967 7.67357 9.79214
127 1 12.3415 4.99143 6.82126
128 1 12.7282 4.79296 9.57794
129 1 12.3453 7.81969 7.05216
130 1 12.4641 7.69691 10.0056
131 1 1.13631 10.3101 6.96254
132 1 3.98522 10.3958 7.05838
133 1 3.80135 10.1613 9.92652
134 1 1.13528 10.6623 9.73359
135 1 1.00797 13.1963 6.87491
136 1 3.85622 13.3182 6.94252
137 1 3.85752 13.2222 9.69019
138 1 1.44643 13.2223 9.68119
139 1 6.80271 10.0776 7.14681
140 1 9.55998 10.4426 6.99168
141 1 9.46875 10.4094 9.74855
142 1 6.83278 10.4197 9.97444
143 1 6.58368 13.1705 6.84815
144 1 9.54439 13.0294 6.722
145 1 9.71468 13.3832 9.51211
146 1 6.76459 13.094 9.79153
147 1 12.1922 10.5767 6.78992
148 1 12.523 10.4254 9.82055
149 1 12.4215 13.1785 7.02627
150 1 12.4664 12.9404 9.8111
151 1 1.0977 16.1681 6.70648
152 1 3.91653 15.9439 6.65248
153 1 3.71239 16.105 9.85416
154 1 0.994283 16.1343 9.57539
155 1 1.04695 19.2395 6.51553
156 1 3.84536 18.7534 6.89539
157 1 3.78647 18.8502 9.66725
158 1 0.868652 19.041 9.48049
159 1 6.88996 16.0241 6.58689
160 1 9.68154 15.8127 6.92282
161 1 9.55799 16.0028 9.76456
162 1 6.45685 16.0579 9.62206
163 1 6.62419 18.8834 6.95359
164 1 9.39001 18.8034 6.81991
165 1 9.56673 18.7457 9.66065
166 1 6.73429 18.8222 9.63478
167 1 12.4982 15.7803 6.9654
168 1 12.2685 15.9081 9.84351
169 1 12.1802 18.5742 6.97532
170 1 12.2474 18.8943 9.69418
171 1 1.10469 21.9207 6.71092
172 1 4.00624 21.4354 7.03352
173 1 4.01337 21.8644 10.1576
174 1 1.20018 21.6937 9.79222
175 1 6.82541 21.5504 6.69111
176 1 9.64578 21.747 6.92347
177 1 9.56278 21.64 9.80317
178 1 6.77804 21.7541 9.60003
179 1 12.4364 21.6935 6.80825
180 1 12.3732 21.808 9.74253
181 1 0.873992 -1.08505 12.5479
182 1 3.94395 -0.909202 12.432
183 1 1.38124 1.73078 12.4429
184 1 4.13777 1.89371 12.5092
185 1 6.61397 -0.911755 12.6998
186 1 9.34354 -1.18561 12.5816
187 1 6.88226 1.83566 12.4419
188 1 9.80676 1.71716 12.5478
189 1 12.4031 -1.0234 12.5959
190 1 12.4428 2.1245 12.5402
191 1 0.957996 4.46683 12.5334
192 1 3.79588 4.57083 12.7147
193 1 1.07642 7.50724 12.487
194 1 3.94797 7.52523 12.6254
195 1 6.65637 4.71211 12.6111
196 1 9.42381 4.62864 12.5896
197 1 6.83773 7.27088 12.5405
198 1 9.54875 7.53828 12.6094
199 1 12.2701 5.20519 12.4172
200 1 12.3263 7.90894 12.7582
201 1 1.39102 10.4829 12.6275
202 1 4.07331 10.4918 12.7226
203 1 1.26561 13.4779 12.4769
204 1 3.96368 13.3004 12.4117
205 1 6.73364 10.2129 12.6782
206 1 9.43553 10.3586 12.4557
207 1 6.81559 13.0447 12.6515
208 1 9.59818 13.1239 12.3657
209 1 12.5339 10.6049 12.7505
210 1 12.3886 13.3236 12.7657
211 1 1.08377 16.0936 12.5701
212 1 4.03328 16.0697 12.6594
213 1 0.90842 19.046 12.5663
214 1 3.65532 18.8746 12.6369
215 1 6.95082 15.8123 12.4929
216 1 9.79788 15.905 12.5886
217 1 6.60241 18.5732 12.4076
218 1 9.56582 18.981 12.6143
219 1 12.3704 16.2775 12.6112
220 1 12.5692 18.9905 12.4578
221 1 0.905866 21.8656 12.6278
222 1 3.70266 21.736 12.7828
223 1 6.49802 21.8347 12.2579
224 1 9.42273 21.7471 12.7634
225 1 12.1073 21.7083 12.6636
12003 2 2.5256 -2.27593 2.583
5633 1 6.87494 -0.576368 1.30495
12094 2 -0.168144 22.9834 8.53102
15092 2 13.8054 20.167 8.22104
15001 2 13.8239 0.597623 -0.167321
12074 2 -0.154394 11.9851 8.42163
12005 2 5.34361 -1.96226 -0.0100628
12008 2 5.28978 0.681112 2.62932
15082 2 13.7643 14.4961 8.37396
12010 2 11.1206 0.593681 2.62083
12125 2 11.0344 20.1027 11.1011
12009 2 11.1609 -2.30364 -0.146299
12013 2 2.41986 3.39751 2.7108
12124 2 8.02501 23.0658 11.2879
15022 2 13.6761 9.16269 2.71231
15121 2 13.6266 23.0616 11.1201
12017 2 8.07645 3.4155 2.91358
12018 2 5.26783 6.2763 2.94466
79 1 12.3076 18.8414 1.26167
12020 2 11.0817 5.97033 2.86389
12113 2 5.27741 8.91296 11.1911
12104 2 8.24668 0.567194 11.2266
12023 2 2.43399 9.02289 2.67848
12141 2 2.3981 14.6234 13.9305
15032 2 13.7381 14.6737 2.71733
12107 2 2.41328 6.13118 11.072
12027 2 8.28948 9.07013 2.46232
12028 2 5.34929 11.8392 2.76266
15091 2 13.8346 22.9536 5.45473
12030 2 11.0029 11.7292 2.67532
12102 2 2.49075 0.420219 11.0965
12114 2 8.13698 11.771 11.1662
12033 2 2.43161 14.6555 2.73476
12049 2 10.9292 20.186 -0.139591
12100 2 10.8237 23.09 8.33916
12099 2 10.9248 20.0737 5.55666
12037 2 8.23426 14.6475 2.52928
12038 2 5.44018 17.4759 2.66811
12098 2 5.31832 23.1952 8.44286
12040 2 10.8352 17.3971 2.41564
12097 2 8.17589 20.1757 8.26765
12026 2 8.30687 11.9676 -0.0447111
12043 2 2.61797 20.4601 2.51936
12123 2 5.1174 19.9866 11.2451
12096 2 8.20537 23.053 5.4973
12095 2 5.38366 20.3171 5.55326
12047 2 7.93853 20.3259 2.69976
12048 2 5.24195 23.2234 2.71596
12115 2 11.0025 9.04257 11.3588
12050 2 10.8246 22.9562 2.77813
15081 2 13.7066 17.4626 5.51034
12052 2 2.72428 0.446505 5.43684
12112 2 2.522 11.9217 11.2217
12122 2 2.42487 23.2415 11.4066
12110 2 10.8918 3.24926 11.3412
12056 2 8.33309 0.540685 5.36374
12109 2 8.25359 6.07854 11.1121
12058 2 5.38556 0.564488 8.42993
12108 2 5.4805 3.31739 11.2101
12060 2 11.083 0.690429 8.57748
12120 2 11.1401 14.539 11.1378
12062 2 2.48074 6.14639 5.56189
12063 2 2.4202 3.28665 8.37773
12119 2 8.25844 17.2716 11.2082
12065 2 5.21081 3.46499 5.50971
12066 2 8.20894 6.30925 5.43099
12067 2 8.03476 3.5241 8.28432
12068 2 5.37818 6.12292 8.37027
12069 2 11.0314 3.27572 5.63906
12070 2 10.936 6.1698 8.26453
12006 2 8.15759 0.718446 -0.139757
12072 2 2.50303 11.8158 5.61852
12073 2 2.55332 9.06674 8.49716
12118 2 5.21092 14.6216 11.2761
12075 2 5.20988 9.02474 5.39041
12076 2 8.01614 11.8059 5.51019
12077 2 8.15553 9.00119 8.60974
12078 2 5.32813 11.8303 8.51604
12079 2 10.9558 9.00944 5.47445
12080 2 10.9339 11.5686 8.38737
12015 2 5.14283 3.49758 0.131496
12082 2 2.37898 17.4126 5.50759
12083 2 2.54499 14.6252 8.37993
12117 2 2.47657 17.2829 11.1759
12085 2 5.2831 14.5544 5.54229
12086 2 8.10264 17.4919 5.15634
12087 2 8.22618 14.5 8.31445
12088 2 5.25189 17.348 8.24198
12089 2 10.9611 14.4826 5.5118
12090 2 10.8672 17.2388 8.23319
15072 2 13.7027 9.15092 8.38943
12092 2 2.31382 23.2522 5.33138
12093 2 2.372 20.1391 8.21598
15061 2 13.6759 6.42344 5.69081
15031 2 13.8198 17.5543 -0.0801194
15011 2 13.5695 6.02132 -0.250042
12140 2 11.0969 11.8299 13.9313
12059 2 11.1943 -2.11346 5.51345
12007 2 8.08321 -2.12554 2.49322
12024 2 -0.190618 11.8147 2.82519
12016 2 8.18807 6.20536 0.0106483
15062 2 13.759 3.19403 8.39818
12046 2 8.09751 23.1678 -0.091906
12131 2 2.49574 3.25124 14.0188
12129 2 5.44672 0.567113 13.9799
12055 2 5.56614 -2.22425 5.46718
15071 2 13.7342 11.9155 5.44744
12012 2 2.46311 6.25232 0.135578
15012 2 13.8539 3.1708 2.56971
12032 2 2.7672 17.4914 -0.154233
15116 2 13.7043 17.3402 11.2166
12025 2 5.39977 9.25191 0.0223643
12031 2 -0.0837357 14.7949 -0.0556812
12149 2 5.12604 23.1419 13.8638
12029 2 10.9707 9.00441 -0.0754154
12138 2 8.17744 8.83947 13.8465
15146 2 13.9245 20.4557 13.9136
12042 2 2.6027 23.2337 -0.152791
226 1 3.98714 -1.05057 15.3008
227 1 1.32362 -0.799377 15.4464
228 1 4.06378 1.84993 15.2562
229 1 0.961483 1.89154 15.4346
230 1 9.63504 -0.877009 15.6078
231 1 7.05002 -0.777935 15.3114
232 1 9.5344 1.93105 15.3137
233 1 6.76802 1.94011 15.5255
234 1 12.5556 -0.723936 15.6195
235 1 12.4034 2.0127 15.4143
236 1 3.87691 4.70856 15.371
237 1 1.00241 4.8084 15.2219
238 1 3.88556 7.51492 15.4486
239 1 1.12591 7.55135 15.3674
240 1 9.56344 4.70746 15.7509
241 1 6.91424 4.65857 15.3853
242 1 9.53434 7.51111 15.5047
243 1 6.68275 7.50676 15.6952
244 1 12.425 4.79189 15.3583
245 1 12.4466 7.63028 15.5338
246 1 4.06651 10.2036 15.5746
247 1 1.371 10.2481 15.3657
248 1 3.86881 13.1238 15.2421
249 1 1.11951 13.3091 15.3885
250 1 9.77548 10.1293 15.1767
251 1 6.63523 10.3238 15.777
252 1 9.69699 12.846 15.2542
253 1 6.77157 13.1638 15.5394
254 1 12.4883 10.4284 15.2886
255 1 12.4495 13.2507 15.3487
256 1 3.97561 15.898 15.4066
257 1 1.29138 16.3413 15.311
258 1 3.99849 18.8345 15.2396
259 1 0.870644 19.0449 15.4143
260 1 9.6728 15.7664 15.4484
261 1 6.79732 16 15.291
262 1 9.8241 18.5814 15.5096
263 1 7.06905 18.8161 15.2993
264 1 12.4658 16.3459 15.3548
265 1 12.522 19.0815 15.3875
266 1 3.77059 21.5225 15.3996
267 1 0.87901 21.8543 15.4093
268 1 9.76134 21.6187 15.5314
269 1 6.86173 21.593 15.2728
270 1 12.518 21.8197 15.3948
271 1 1.24296 -0.816101 18.4311
272 1 4.07612 -0.910182 18.383
273 1 4.14415 -1.10326 21.1102
274 1 1.18811 -0.841324 21.3226
275 1 1.08736 2.24249 18.0059
276 1 3.84707 1.8309 18.2146
277 1 3.9454 4.59652 21.1511
278 1 1.1773 1.79803 20.5867
279 1 6.71034 -0.933903 18.3205
280 1 9.49132 -1.10476 18.4028
281 1 9.57572 -0.948683 21.1103
282 1 6.79991 -1.07685 21.1646
283 1 6.53024 1.94314 18.1635
284 1 9.70559 1.7291 17.9969
285 1 9.42329 1.82295 20.8718
286 1 6.6696 1.74888 21.0736
287 1 12.4384 -0.923185 18.3069
288 1 12.3321 -1.03514 20.972
289 1 12.2884 1.80468 18.1071
290 1 12.386 1.5216 20.7945
291 1 1.15528 4.99923 18.1148
292 1 3.74897 4.707 18.1456
293 1 3.57948 7.2413 21.0937
294 1 1.19168 4.64823 20.7698
295 1 0.990547 7.59797 18.2275
296 1 3.78758 7.61176 18.2305
297 2 2.62075 8.72643 22.5993
298 1 1.02742 7.36866 21.2174
299 1 6.70823 4.75192 18.0443
300 1 9.54874 4.587 18.2634
301 1 9.60821 4.77256 21.1386
302 1 6.75552 4.65592 20.7558
303 1 6.714 7.43919 18.5568
304 1 9.49189 7.52151 18.3639
305 1 9.42079 7.59994 21.3744
306 1 6.43241 7.37846 21.1196
307 1 12.2767 4.73816 18.1489
308 1 12.3593 4.44985 21.2753
309 1 12.7038 7.31567 18.561
310 1 12.1824 7.22392 21.2178
311 1 1.01865 10.3332 18.0233
312 1 3.91296 10.3649 18.5777
313 1 4.11512 9.85231 21.2472
314 1 1.33781 10.1712 21.2375
315 1 1.26572 13.1995 18.2525
316 1 3.9857 13.3208 18.149
317 1 4.07964 13.0004 21.0973
318 1 1.07753 13.2118 21.1545
319 1 6.69485 10.2842 18.4322
320 1 9.39035 10.1755 18.0805
321 1 9.61915 10.2954 21.0884
322 1 6.88288 10.3572 21.1935
323 1 6.67574 13.3607 18.3406
324 1 9.63035 13.0689 17.9571
325 1 9.58954 13.0704 20.7549
326 1 6.86974 13.2252 21.2781
327 1 12.1898 10.4691 18.0759
328 1 12.5007 10.1541 20.9852
329 1 12.3771 13.4867 18.2147
330 1 12.7042 12.8055 21.0209
331 1 1.16458 16.0139 18.1924
332 1 3.94544 16.0893 18.1462
333 1 4.01631 16.1075 21.0482
334 1 1.18325 16.0391 21.0394
335 1 1.25108 18.6898 18.2452
336 1 3.88726 18.9107 18.0684
337 1 3.75906 18.8363 20.8871
338 1 1.01602 18.9184 20.8985
339 1 6.7942 16.1067 18.2466
340 1 9.57485 16.0567 18.1812
341 1 9.14466 16.65 20.7741
342 1 6.69053 15.9661 21.0352
343 1 6.66241 18.8868 17.8975
344 1 9.64342 18.9819 18.1398
345 1 9.68132 19.0932 20.7873
346 1 6.60811 18.8999 20.9745
347 1 12.2657 16.2116 17.996
348 1 12.5875 16.2727 20.753
349 1 12.6596 18.931 18.2763
350 1 12.4698 18.8885 20.9504
351 1 1.19986 21.6808 18.1072
352 1 4.04264 21.848 18.1831
353 1 3.87571 21.7825 20.9416
354 1 0.990052 21.8191 21.0232
355 1 6.7849 21.6012 18.1724
356 1 9.35477 21.9609 18.2233
357 1 9.29535 21.8644 21.1325
358 1 6.71219 21.6227 20.9272
359 1 12.1189 21.5572 18.2438
360 1 12.2644 21.7143 20.9946
361 1 0.976767 -0.896224 24.0433
362 1 4.02777 1.75091 23.8676
363 1 3.91526 -0.96522 23.9182
364 1 1.07239 -0.648603 26.6796
365 1 1.21781 2.10572 23.4942
366 1 3.9786 1.97379 21.0894
367 1 4.01867 2.14948 26.9182
368 1 1.19361 2.01998 26.6243
369 1 6.66901 -0.789073 23.9988
370 1 9.45378 -0.958605 23.9347
371 1 9.45583 -0.656748 26.8103
372 1 3.85048 -0.600637 26.7814
373 1 6.85854 2.05195 23.93
374 1 9.37585 2.05677 23.7268
375 1 9.48042 2.05429 26.761
376 1 6.55904 2.01168 27.0934
377 1 12.3407 -0.97502 24.0166
378 1 12.6063 -0.929132 26.6307
379 1 12.1789 1.78133 23.8019
380 1 12.2942 1.96646 26.7726
381 1 0.942034 4.63789 23.8186
382 1 3.93821 4.64594 24.0262
383 1 3.96974 5.03683 26.9849
384 1 1.24035 4.87715 26.5573
385 1 1.19937 7.61601 24.1132
386 1 3.92413 7.56655 23.836
387 1 3.86538 7.67197 26.9033
388 1 1.05761 7.49495 26.8959
389 1 6.68799 4.88283 23.9796
390 1 9.59022 4.85231 23.9404
391 1 9.60768 5.08257 26.8047
392 1 6.6765 5.04483 26.9874
393 1 7.10863 7.54229 24.131
394 1 10.0524 7.67741 24.2763
395 1 9.37123 7.89549 27.2576
396 1 6.69003 7.72583 26.9836
397 1 12.3642 4.4845 24.0121
398 1 12.2224 4.71207 26.7349
399 1 12.4494 7.15664 23.8342
400 1 12.2424 7.84481 26.8307
401 1 1.13755 10.2935 23.7143
402 1 3.8277 10.4779 23.959
403 1 3.98337 10.6795 26.675
404 1 1.02624 10.4323 26.5876
405 1 1.27441 13.3564 23.8888
406 1 3.8677 13.5011 23.8394
407 1 3.93488 13.2896 26.656
408 1 1.05839 13.2229 26.6748
409 1 6.60572 10.265 24.2798
410 1 9.31081 10.2991 23.9814
411 1 9.56209 10.458 26.9225
412 1 6.6976 10.6397 26.8283
413 1 6.75738 13.1913 23.9046
414 1 9.60818 13.0135 24.3581
415 1 9.59398 13.2452 26.9769
416 1 6.96943 13.3942 26.9177
417 1 12.3508 10.1955 23.9206
418 1 12.3733 10.5697 26.875
419 1 12.6773 12.86 24.1393
420 1 12.5025 13.3541 26.735
421 1 1.13113 16.1967 23.8815
422 1 3.90451 16.1243 23.8442
423 1 4.06486 15.9809 26.8427
424 1 1.20751 15.935 26.739
425 1 1.2216 19.1942 23.8649
426 1 3.91515 18.9469 23.8276
427 1 3.98551 18.7595 26.6761
428 1 1.06101 18.6959 26.7773
429 1 6.68258 15.9222 23.931
430 1 9.37036 19.1948 23.7977
431 1 9.73338 16.1523 26.6724
432 1 6.66202 16.138 26.6758
433 1 6.59132 18.7311 23.8154
434 1 12.6657 18.9358 26.8039
435 1 9.45038 18.9764 26.642
436 1 6.63552 18.8621 26.6498
437 1 12.5326 16.2382 24.1244
438 1 12.4733 16.0883 26.8217
439 1 12.3164 19.0453 23.9469
15201 2 13.7412 0.468255 22.2863
441 1 1.16754 21.9567 23.7549
442 1 3.92062 21.7823 23.7494
443 1 4.0596 21.8057 26.7197
444 1 1.21936 21.7226 26.5582
445 1 6.66961 21.8435 23.604
446 1 9.52084 21.979 23.9822
447 1 9.61823 21.7625 26.7316
448 1 6.86109 21.8019 26.7287
449 1 12.2495 21.7739 23.889
450 1 12.3769 21.7101 26.7003
15221 2 13.8512 11.6346 22.5756
12250 2 11.0953 23.2571 25.3025
12231 2 -0.124939 14.5806 22.3313
15151 2 13.9041 0.508783 16.9875
15171 2 13.8096 11.8223 16.7847
12227 2 8.23758 9.08025 25.5745
12249 2 11.0127 20.4603 22.3609
12226 2 8.46421 11.9749 22.3639
12225 2 5.94149 8.95764 22.583
15212 2 13.6556 3.17051 25.2333
12223 2 2.58312 8.99293 25.7647
12248 2 5.37455 23.2454 25.1955
12222 2 2.63215 11.9707 22.5417
12228 2 5.29567 12.0352 25.251
15232 2 13.8127 14.5676 25.1357
12220 2 11.019 6.04308 25.3501
12247 2 8.30472 20.3838 25.2943
12145 2 11.1468 17.5312 13.9033
12207 2 8.19823 -2.26197 25.4495
9 1 6.65951 -0.651567 26.9233
12219 2 10.8278 3.28869 22.5105
12246 2 8.08462 23.2217 22.4208
15242 2 13.8341 20.1846 25.3893
12218 2 5.33787 6.33696 25.5942
12022 2 2.62397 11.9394 28.0299
12245 2 5.39382 20.2385 22.4748
12152 2 2.66338 0.42026 16.7762
12203 2 2.44557 -2.22469 25.2931
12243 2 2.70538 20.2764 25.2296
15231 2 13.7327 17.3626 22.5362
12156 2 8.13081 0.521653 16.8087
12153 2 2.46189 -2.34326 19.5667
12158 2 5.27291 0.440454 19.7705
12151 2 -0.174818 -2.21231 16.7742
12160 2 10.906 0.282348 19.5957
12242 2 2.521 23.2671 22.3205
12162 2 2.39047 6.20304 16.7359
12163 2 2.63775 3.2389 19.5395
12240 2 11.0258 17.4506 25.3028
12165 2 5.23562 3.21491 16.78
12166 2 8.1725 6.25341 16.8696
12167 2 8.1363 3.19059 19.5622
12168 2 5.1922 6.18091 19.6354
12169 2 10.9493 3.25209 16.8188
12170 2 11.0499 6.05161 19.5986
12239 1 9.23319 16.4167 24.1497
12172 2 2.62261 11.72 16.6681
12173 2 2.29914 8.98249 19.3957
12238 2 5.40308 17.4358 25.2575
12175 2 5.29333 8.83611 17.0011
12176 2 8.13449 11.6123 16.8512
12177 2 8.14968 8.79293 19.697
12178 2 5.60184 11.7971 19.4879
12179 2 11.0285 9.01297 16.7979
12180 2 11.0859 11.7747 19.5837
12237 2 8.30089 14.6786 25.3696
12182 2 2.49873 17.5592 16.781
12183 2 2.60342 14.6334 19.5723
12236 2 7.86377 17.4731 22.4628
12185 2 5.37485 14.6753 16.8767
12186 2 8.26856 17.3459 16.8991
12187 2 8.17497 14.7919 19.657
12188 2 5.24205 17.5387 19.4501
12189 2 11.034 14.6174 16.8495
12190 2 11.1057 17.435 19.5004
12235 2 5.33678 14.6172 22.4121
12192 2 2.56367 23.0971 16.8636
12193 2 2.43967 20.3498 19.6143
15202 2 13.9375 -2.25482 25.2737
12195 2 5.42907 20.3125 16.5629
12196 2 7.94506 23.0732 16.7952
12197 2 8.10738 20.1665 19.5408
12198 2 5.56917 23.063 19.5684
12199 2 11.1712 20.1615 16.9361
12200 2 10.6852 22.9878 19.7216
12233 2 2.61795 14.7155 25.2241
12202 2 2.58057 0.395668 22.3653
15136 2 13.8204 9.06005 13.9199
12232 2 2.49512 17.5482 22.4891
12036 2 8.16683 17.4541 28.1015
12206 2 7.96898 0.281835 22.383
15131 2 13.7427 3.33601 14.0382
12208 2 5.34737 0.640145 25.5131
12039 2 11.0289 14.6509 28.1099
12210 2 10.9297 0.385211 25.3757
12230 2 10.9752 11.725 25.3546
12212 2 2.4034 5.69142 22.3231
12213 2 2.51693 3.38254 25.3467
12229 2 11.093 8.87578 22.5015
12215 2 5.36101 3.20884 22.5469
12216 2 8.22982 6.00114 22.4572
12217 2 8.2182 3.56897 25.6394
15222 2 13.9134 8.79135 25.5669
15211 2 13.8409 6.14117 22.4458
15152 2 13.8971 -2.30201 19.6389
12133 2 7.97012 3.38453 14.0249
15161 2 13.849 6.18892 16.8692
15162 2 13.6628 3.24273 19.4134
12134 2 5.29195 6.19439 14.1712
15192 2 13.8506 20.4024 19.6034
12144 2 5.40594 17.4254 14.0482
12035 2 5.42197 14.679 28.126
15241 2 13.5881 23.1035 22.7003
12148 2 8.39389 20.1811 14.1261
15191 2 13.8454 22.9504 16.9565
12135 2 11.1507 6.32355 14.2194
12130 2 10.9828 0.40511 14.2648
12139 2 5.49392 11.6555 13.8929
12045 2 5.62777 20.4075 28.0668
12143 2 8.38966 14.5229 13.933
12150 2 10.9896 23.0241 14.2282
12181 2 -0.225296 14.59 16.7307
15141 2 13.7927 14.6349 14.1206
12002 2 2.66756 0.669596 28.1195
15021 2 13.8544 11.8679 27.9788
12146 2 2.39585 20.5173 14.081
12041 2 -0.218072 20.3726 27.9595
12019 2 11.0193 3.3498 28.1015
12136 2 2.6336 8.88985 14.0645
15041 2 13.8108 23.1674 28.0934
451 1 0.856418 24.6965 1.07897
452 1 3.96822 24.5831 1.41381
453 1 3.52698 24.5795 4.1416
454 1 0.7944 24.8627 4.11706
455 1 6.77291 24.7147 1.0939
456 1 9.58158 24.462 1.31788
457 1 9.27502 24.394 3.94548
458 1 6.43279 24.5441 4.14797
459 1 12.3367 24.3527 1.12175
460 1 12.3492 24.5619 4.05095
461 1 0.895156 27.5028 1.14467
462 1 3.63151 27.4007 1.19317
463 1 4.23008 27.4297 3.97627
464 1 1.24071 27.6923 3.83606
12369 2 2.46425 31.7782 13.7941
466 1 3.87783 30.0957 1.27324
467 1 3.99925 30.1839 4.08018
468 1 1.08792 30.1667 6.81701
469 1 6.78902 27.3636 1.21294
470 1 9.55859 27.3979 1.22917
471 1 9.5635 27.1864 3.82448
472 1 6.87224 27.2747 4.00094
473 1 6.6609 30.3555 1.08875
474 1 9.51329 30.3145 1.18741
475 1 9.60335 30.2882 3.84154
476 1 6.84865 29.9623 3.96962
477 1 12.1742 27.311 4.21106
478 1 12.2246 30.2672 4.24879
12377 2 5.33017 39.9549 13.7885
480 1 12.5157 33.2244 3.92241
481 1 0.778623 33.0321 1.225
482 1 3.65938 32.9368 1.02959
483 1 3.9083 33.2214 3.715
484 1 1.09999 36.0341 3.90025
12383 2 10.9323 45.4416 13.815
486 1 4.15666 35.8688 0.897622
487 1 3.80518 35.7909 3.74813
1018 1 12.781 49.8454 9.65084
489 1 6.66609 33.0271 1.0406
490 1 9.38096 32.9942 1.20067
491 1 9.71379 32.9624 3.998
492 1 6.62391 32.746 3.89316
493 1 6.84059 36.0488 0.798678
494 1 9.63462 35.7731 1.20009
495 1 9.45842 35.8299 3.97164
496 1 6.93735 35.5149 3.78852
497 1 12.24 33.0697 1.3323
498 1 12.1393 35.7837 4.08763
479 2 13.6633 31.7332 2.6337
1012 1 6.92451 50.1569 9.47354
501 1 0.751074 38.7443 0.85116
502 1 4.14644 38.5869 1.2508
503 1 3.95569 38.7837 4.44538
504 1 2.42272 40.03 2.39363
505 1 0.993278 41.7006 1.2007
506 1 4.06254 41.5583 0.828158
507 1 4.18382 41.7813 3.86499
508 1 1.00933 41.7212 3.93434
509 1 6.88377 38.5253 1.24487
510 1 9.75214 38.6974 1.28672
511 1 9.37176 38.7135 4.0502
512 1 6.5706 38.3603 3.98654
513 1 6.80713 41.3777 0.986429
514 1 9.77904 41.4793 0.970192
515 1 9.57613 41.4229 3.69628
516 1 6.769 41.6258 3.76967
12381 2 8.19134 42.8563 13.7063
910 1 9.56128 49.7786 1.25138
519 1 12.5301 41.4472 1.30699
520 1 12.3203 41.6534 3.83391
521 1 1.15381 44.4665 1.21578
522 1 3.97247 44.4289 1.04739
523 1 4.02838 44.312 3.82784
524 1 1.17454 44.5743 4.1234
525 1 1.00186 47.3072 1.3509
526 1 3.81138 47.183 1.05353
527 1 4.35043 47.0008 3.80902
528 1 1.44508 47.298 4.39733
529 1 6.83444 44.0034 0.905703
530 1 9.75604 44.2245 1.12517
531 1 9.85471 44.4592 4.11006
532 1 6.977 44.2647 3.86108
533 1 6.76485 46.9639 1.14137
534 1 9.49647 46.9907 1.13607
535 1 9.80464 47.1859 4.17718
536 1 7.04385 47.0859 4.01199
537 1 12.6612 44.2392 1.14909
538 1 12.5567 44.4563 4.03235
539 1 12.3215 47.1552 1.21649
540 1 12.3917 47.254 4.07188
541 1 0.786801 24.8681 6.98289
542 1 3.7085 24.4598 6.9336
543 1 3.59927 24.6247 9.84567
544 1 0.790096 24.6499 9.71359
545 1 6.68611 24.3928 7.09379
546 1 9.64137 24.3939 6.82658
547 1 9.31234 24.5122 9.77415
548 1 6.71228 24.499 10.0432
549 1 12.2131 24.236 6.99235
550 1 11.9941 24.586 10.0442
551 1 0.929866 27.2793 6.7223
552 1 3.93062 27.2872 6.75068
553 1 3.82954 27.424 9.76178
554 1 1.05833 27.3588 9.69715
555 1 1.15613 33.2781 3.9908
556 1 3.83045 30.0724 6.90368
557 1 3.65107 30.2764 9.71731
558 1 1.0851 30.2902 9.45557
559 1 6.8816 27.1054 6.70461
560 1 9.68138 27.1918 6.75089
561 1 9.4264 27.1647 9.70842
562 1 6.43018 27.2586 9.61006
563 1 6.61321 29.8686 6.77087
564 1 9.44044 30.1117 6.86413
565 1 9.47337 30.0193 9.46462
566 1 6.743 30.0175 9.56737
567 1 12.3927 27.2019 6.88315
568 1 12.3632 27.5322 9.62481
569 1 12.3233 30.0713 7.01172
570 1 12.218 30.2102 9.66377
571 1 0.952152 36.0708 6.87008
572 1 3.63856 32.8891 6.8415
573 1 3.76211 32.9134 9.65895
574 1 0.952387 33.1006 9.41166
575 1 0.92574 38.7236 4.0558
576 1 3.63584 35.8312 6.88831
577 1 3.84928 35.8621 9.60149
578 1 0.892744 35.9402 9.73568
579 1 6.62255 32.9549 6.828
580 1 9.54274 32.9084 6.95013
581 1 9.6313 32.7716 9.59906
582 1 6.692 32.9396 9.46542
583 1 6.43283 35.7336 6.55793
584 1 9.69594 35.3996 6.85776
585 1 9.73657 35.557 10.0752
586 1 6.60659 35.629 9.8074
587 1 12.3914 32.9099 6.65438
588 1 12.4349 33.0368 9.52076
589 1 12.6171 35.7128 6.93029
590 1 12.4084 36.0573 9.73696
591 1 0.92515 38.9184 6.53435
592 1 3.50484 38.7827 6.83122
593 1 3.65031 38.5222 9.78892
594 1 1.0085 38.7867 9.43524
595 1 1.15161 41.4818 6.93677
596 1 3.86995 41.5923 6.74531
597 1 3.79342 41.565 9.67772
598 1 1.14858 41.5537 9.65542
599 1 6.38575 39.072 6.58326
600 1 9.94625 38.8315 6.78704
601 1 9.82079 39.0354 9.89854
602 1 6.45383 38.848 9.72689
603 1 6.89816 41.5907 6.67094
604 1 9.60549 41.5333 6.58001
605 1 9.59698 44.3447 9.57823
606 1 6.70071 41.4601 9.61783
607 1 12.8325 38.363 6.55148
608 1 12.5169 38.7559 9.44633
609 1 12.4057 41.3329 6.99806
610 1 12.4309 41.5241 9.61404
611 1 1.25262 44.6052 6.75914
612 1 3.94852 44.3605 6.79683
613 1 4.08422 44.3017 9.65245
614 1 1.01742 44.2439 9.56427
615 1 0.864638 47.2531 7.09377
616 1 4.08098 47.4089 6.85979
617 1 3.93276 47.0622 9.48519
618 1 1.24027 47.1606 9.62119
619 1 6.70124 44.4974 6.76859
620 1 9.35577 44.3004 6.96905
621 1 9.47479 47.2164 9.60325
622 1 6.67034 44.3453 9.64409
623 1 6.99375 47.2268 6.79444
624 1 9.71141 47.0669 6.82932
15282 2 13.7836 42.9562 2.71755
626 1 6.76907 47.3841 9.60724
627 1 12.3567 44.0307 6.73235
628 1 12.6247 44.6457 9.45509
629 1 12.4685 47.016 6.76817
630 1 12.2803 47.3308 9.72683
631 1 1.06843 24.8538 12.5358
632 1 3.68471 24.6227 12.6484
633 1 6.57588 24.7486 12.6075
634 1 9.48507 24.3503 12.6765
635 1 12.4533 24.4782 12.8081
636 1 0.771273 27.4526 12.655
637 1 3.65961 27.3168 12.2947
638 1 0.881245 30.437 12.4291
639 1 3.90297 30.1885 12.3375
640 1 6.49208 27.2577 12.5737
641 1 9.41382 27.3188 12.4481
642 1 6.61607 30.1032 12.4618
643 1 9.44549 30.2997 12.2972
644 1 12.0778 27.3706 12.412
645 1 12.2473 30.2807 12.4857
646 1 1.01496 33.2644 12.6014
647 1 3.84112 33.0618 12.4568
648 1 0.846613 35.8865 12.4486
649 1 4.14412 35.8188 12.3488
650 1 6.67175 33.0453 12.1863
651 1 9.31523 33.0349 12.5037
652 1 7.00977 35.7747 12.6276
653 1 9.8767 36.1115 12.6858
654 1 12.2343 32.9914 12.2345
655 1 12.6122 35.9074 12.4701
656 1 1.15797 38.6926 12.444
657 1 3.80408 38.5663 12.4514
658 1 1.16344 41.4277 12.5999
659 1 3.9427 41.4985 12.5973
660 1 6.68078 38.5656 12.3014
661 1 9.49241 39.016 12.5017
662 1 6.80483 41.3856 12.3741
663 1 9.6255 41.4944 12.3259
664 1 12.5679 38.817 12.4656
665 1 12.4803 41.7872 12.4614
666 1 1.22816 44.4245 12.4696
667 1 4.0064 44.221 12.3481
668 1 1.16752 47.1149 12.4045
669 1 3.87253 47.1937 12.27
670 1 6.64225 44.3163 12.5262
671 1 9.66518 44.2795 12.3166
672 1 6.63855 47.189 12.4077
673 1 9.38966 47.0178 12.3671
674 1 12.2938 44.4803 12.4115
675 1 12.15 46.9622 12.4094
12363 2 10.9974 48.4249 11.0945
15341 2 13.6822 28.5776 11.0757
12253 2 2.43947 26.0717 2.67837
12362 2 5.44215 48.6717 11.0899
6451 1 12.3614 27.31 1.23641
15261 2 13.7109 33.9888 -0.0627415
12257 2 8.08717 25.9283 2.62633
12258 2 5.35435 28.8655 2.57501
12372 2 5.26334 34.3215 13.6163
12260 2 10.9471 28.7062 2.59806
1109 1 12.4347 49.6637 12.3838
12382 2 5.28329 45.6364 13.8266
12263 2 2.44986 31.708 2.60378
12360 2 11.057 42.8363 11.0037
15327 2 13.7717 42.8223 8.10624
488 1 1.30794 36.139 0.91934
12267 2 8.14042 31.6696 2.49631
12268 2 5.28877 34.4722 2.43159
499 1 12.5957 35.9331 1.13182
12270 2 10.8503 34.3505 2.72579
12359 2 8.16126 45.7481 10.9285
15252 2 13.7567 25.8199 2.57051
12273 2 2.49244 37.4917 2.63021
12358 2 5.42205 42.8646 10.948
12356 2 -0.14963 42.8548 11.1401
12374 2 2.65565 37.2313 13.792
12277 2 8.26451 37.3329 2.73531
12278 2 5.35643 39.9222 2.5892
12367 2 5.13221 28.9241 13.817
12280 2 11.1209 40.035 2.58733
465 1 1.20252 30.2207 1.15433
15336 2 13.9294 48.4213 8.29212
12283 2 2.67313 42.6433 2.67683
15317 2 13.8667 37.2792 8.22231
500 1 12.3978 38.7552 3.95456
15346 2 13.8127 34.3576 11.0605
12287 2 8.2126 42.9536 2.40476
12288 2 5.4033 45.4955 2.3396
6461 1 12.1936 30.1938 1.06028
12290 2 11.0498 45.6592 2.5187
1101 1 1.15559 49.8615 12.6671
12292 2 2.71152 48.4874 2.62981
12352 2 2.56775 40.1484 11.0107
12294 2 8.34479 48.2286 2.63771
12272 2 2.43963 40.3018 -0.0943236
12357 2 2.55919 45.7486 11.0768
12297 2 2.51619 28.8803 5.52996
12298 2 2.45933 25.8194 8.15579
12299 1 1.06196 33.2871 6.85081
12300 2 5.3862 25.9366 5.58801
12301 2 8.06124 28.692 5.39382
12302 2 8.32657 25.91 8.27679
12303 2 5.07191 28.7572 8.34247
12304 2 10.784 25.8061 5.28692
12305 2 10.9222 28.567 8.23017
1105 1 6.77538 50.1844 12.769
12307 2 2.50381 34.5997 5.15833
12308 2 2.3185 31.6774 8.10056
12355 2 11.0287 37.4339 11.1937
12310 2 5.45267 31.407 5.43991
12311 2 8.18593 34.4881 5.4487
12312 2 8.12856 31.5552 8.20739