ITEM: TIMESTEP
100000
ITEM: NUMBER OF ATOMS
18000
ITEM: BOX BOUNDS xy xz yz pp pp pp
-1.9551011787698261e-01 2.8089510117876969e+01 0.0000000000000000e+00
-2.5121859450924484e+00 3.3724018594509238e+02 0.0000000000000000e+00
-1.8605503223653955e-01 2.8080055032236913e+01 0.0000000000000000e+00
ITEM: ATOMS id type x y z
1 1 1.1634 -0.978648 0.971726
2 1 4.09402 -1.11048 1.11422
3 1 3.94343 -1.14424 4.03982
4 1 1.1806 -1.07049 3.82286
5 1 1.26818 1.74476 0.973388
6 1 3.94165 1.82971 0.972676
7 1 4.18603 1.69029 3.89599
8 1 1.2784 1.60644 3.95592
12007 2 8.29009 -2.45802 2.51132
10 1 9.86219 -0.883459 1.00825
11 1 9.66953 -0.772726 3.68696
12 1 6.72609 -1.09924 3.92796
13 1 6.76545 1.7205 1.10259
14 1 9.72586 1.7772 1.04728
15 1 9.68186 1.97985 3.98501
16 1 6.9936 1.71254 3.98843
17 1 12.5109 -0.974948 0.836118
18 1 12.3032 -1.16011 3.93979
19 1 12.4891 1.62005 1.09486
20 1 12.5042 1.55651 3.69867
21 1 1.05896 4.50856 1.14357
22 1 4.10626 4.72287 1.09355
23 1 3.96965 4.5389 3.98409
24 1 1.10227 4.52438 3.98146
25 1 1.13836 7.25888 1.40402
26 1 3.98248 7.5332 1.37806
27 1 3.9679 7.40172 4.32422
28 1 1.33878 7.2551 4.03187
29 1 6.8464 4.79799 0.983004
30 1 9.63061 4.39451 1.08262
31 1 9.9062 4.57239 3.94674
32 1 7.02116 4.60205 3.95613
33 1 7.05015 7.54171 0.981441
34 1 10.0637 7.15326 0.865307
35 1 9.73161 7.49228 3.61457
36 1 6.80795 7.4491 3.69354
37 1 12.3703 4.47575 1.0663
38 1 12.6411 4.47191 3.67099
39 1 12.9874 7.30254 1.28975
40 1 12.5089 7.33937 4.16139
41 1 1.1813 10.2325 0.991307
42 1 3.9221 10.2676 1.21118
43 1 4.08533 10.2043 3.95281
44 1 1.34102 10.4198 4.0458
45 1 1.34822 12.8389 1.39582
46 1 4.23164 13.0253 1.07742
47 1 4.24527 13.0384 4.09375
48 1 1.15838 12.9846 4.14971
49 1 6.65241 10.3785 1.08065
50 1 9.55476 10.0915 0.857301
51 1 9.61328 10.0914 3.70736
52 1 6.84811 10.1983 3.79214
53 1 6.96439 13.2221 1.47869
54 1 9.6873 12.9963 1.16458
55 1 9.64182 13.2063 4.04463
56 1 6.71699 13.0195 4.19515
57 1 12.5045 10.1124 1.20795
58 1 12.396 10.1892 3.88719
59 1 12.5244 12.7566 1.31681
60 1 12.5051 13.0267 4.2746
61 1 1.2292 15.9184 1.19825
62 1 4.1189 15.9333 1.28098
63 1 3.9467 15.9948 4.00628
64 1 1.07154 15.5891 3.7989
65 1 1.27843 18.6232 1.1391
66 1 3.92947 18.74 1.00899
67 1 4.20539 18.7114 3.94115
68 1 1.29088 18.6602 4.09039
69 1 6.83884 15.8307 1.37877
70 1 9.69943 15.9884 1.29927
71 1 9.63138 15.8537 4.14116
72 1 6.85738 15.7845 4.12642
73 1 6.93743 18.4042 1.2458
74 1 9.6873 18.7013 1.28656
75 1 9.5291 18.5751 4.02639
76 1 6.82435 18.6852 4.19965
77 1 12.5116 15.7013 1.31185
78 1 12.3235 15.7913 3.95327
12136 2 2.68838 8.78076 13.756
80 1 12.23 18.7842 3.98838
81 1 1.13736 21.5135 1.36209
82 1 4.19786 21.5113 1.10585
83 1 3.7504 21.2878 4.0417
84 1 1.04852 21.7178 3.97446
85 1 6.92673 21.4193 1.43733
86 1 9.56759 21.427 1.2505
87 1 9.60839 21.5248 4.14141
88 1 6.89453 21.3976 4.13212
89 1 12.2643 21.4296 1.16903
90 1 12.67 21.5045 4.1315
91 1 1.26461 -1.09028 6.66071
92 1 4.23351 -0.819128 6.71914
93 1 4.1102 -1.06495 9.58387
94 1 1.40167 -1.06339 9.5711
95 1 1.16517 1.74612 6.61618
96 1 3.97367 1.86699 6.65873
97 1 4.03143 1.7694 9.70739
98 1 1.22192 1.66459 9.30629
99 1 7.1315 -0.831292 6.83911
100 1 9.79826 -0.904519 6.6241
101 1 9.79879 -1.35858 9.57528
102 1 6.8425 -1.05028 9.58872
103 1 6.78976 1.80484 6.93834
104 1 9.77207 1.63297 6.68423
105 1 9.52438 1.47492 9.22079
106 1 6.70657 1.58001 9.74606
107 1 12.6448 -1.11022 6.68363
108 1 12.3628 -1.02245 9.68483
109 1 12.4478 1.60456 6.70235
110 1 12.3185 1.6243 9.78248
111 1 1.14475 4.56736 6.90505
112 1 4.12543 4.62239 6.76951
113 1 4.11298 4.48167 9.49569
114 1 1.2645 4.44366 9.71382
115 1 1.27129 7.29499 6.81453
116 1 3.9773 7.33691 6.91451
117 1 4.01813 7.23622 9.60136
118 1 1.16719 7.36268 9.69692
119 1 6.98627 4.48786 6.78738
120 1 9.79984 4.62728 6.7928
121 1 9.50529 4.43984 9.59844
122 1 6.80554 4.46554 9.73949
123 1 6.7418 7.27783 6.82132
124 1 9.62762 7.49329 6.7507
125 1 9.53995 7.25317 9.59119
126 1 6.88051 7.39091 9.60806
127 1 12.4096 4.60078 6.61723
128 1 12.3149 4.34054 9.54685
129 1 12.5242 7.38459 6.91532
130 1 12.4403 7.25141 9.50521
131 1 1.23959 10.31 6.8542
132 1 4.10266 10.1555 6.79144
133 1 4.24816 10.3338 9.55975
134 1 1.4035 10.3505 9.5721
135 1 0.931403 13.0336 6.83963
136 1 3.99655 13.0521 6.8199
137 1 4.11604 13.1595 9.65945
138 1 1.24401 13.0607 9.47178
139 1 6.82311 10.2781 6.68212
140 1 9.61783 10.4342 6.98885
141 1 9.66645 10.4145 9.73544
142 1 7.03863 10.2479 9.74643
143 1 6.83313 13.0563 6.69367
144 1 9.62064 13.0945 6.80643
145 1 9.90835 13.0952 9.6257
146 1 6.91957 13.0255 9.37813
147 1 12.276 10.2354 6.68
148 1 12.4441 10.1871 9.33441
149 1 12.447 13.1204 7.0329
150 1 12.73 13.1459 9.69931
151 1 1.41335 15.8005 6.51229
152 1 4.06662 15.9436 6.7985
153 1 3.63753 15.7289 9.63584
154 1 0.807327 15.7307 9.51426
155 1 0.858487 18.5155 6.8938
156 1 4.1907 18.7709 6.78802
157 1 4.08433 18.6726 9.77552
158 1 1.12809 18.6506 9.68636
159 1 6.76994 15.948 6.86915
160 1 9.82783 15.4961 7.078
161 1 9.68551 15.7668 9.59668
162 1 6.80709 16.0041 9.67336
163 1 6.80358 18.8867 6.84666
164 1 9.87041 18.6974 6.72936
165 1 9.62023 18.562 9.63467
166 1 6.8109 18.7873 9.47728
167 1 12.5381 15.9628 6.74816
168 1 12.7718 15.9312 9.93045
169 1 12.7369 18.895 6.74109
170 1 12.5644 18.7174 9.784
171 1 1.01389 21.3767 6.86744
172 1 3.50186 21.7436 6.96982
173 1 4.18573 21.4146 9.57417
174 1 1.30363 21.4969 9.83142
175 1 6.7432 21.8031 6.79757
176 1 9.65956 21.547 6.80871
177 1 9.92041 21.2351 9.53837
178 1 7.05022 21.3016 9.58496
179 1 12.5326 21.6202 7.01478
180 1 12.717 21.435 10.051
181 1 1.37895 -1.33268 12.3513
182 1 4.0806 -1.21221 12.6198
183 1 1.11233 1.33723 12.204
184 1 3.89761 1.45124 12.5736
185 1 6.7768 -1.15421 12.333
186 1 9.47818 -1.06043 12.3771
187 1 6.84038 1.82006 12.5447
188 1 9.80097 1.86925 12.2616
189 1 12.1619 -1.22653 12.4647
190 1 12.642 1.78237 12.4972
191 1 1.31459 4.39964 12.4038
192 1 3.99308 4.47435 12.4486
193 1 1.30942 7.24782 12.4554
194 1 4.01778 7.22703 12.5169
195 1 6.81568 4.71833 12.42
196 1 9.53517 4.65524 12.4145
197 1 6.80292 7.64727 12.5166
198 1 9.59098 7.5041 12.293
199 1 12.3471 4.49216 12.2423
200 1 12.4486 7.20967 12.2923
201 1 1.06306 9.88308 12.7943
202 1 3.88559 10.105 12.2517
203 1 0.901607 12.6639 12.3021
204 1 4.21637 12.9489 12.3945
205 1 6.78169 10.3298 12.6081
206 1 9.72408 10.2444 12.419
207 1 6.98873 13.1499 12.4563
208 1 9.82263 13.142 12.5959
209 1 12.5498 10.289 12.1671
210 1 12.614 13.0977 12.3724
211 1 1.0836 15.6151 12.4462
212 1 4.23819 15.752 12.3501
213 1 1.07353 18.5442 12.3715
214 1 4.05019 18.766 12.465
215 1 7.08898 15.9298 12.5332
216 1 9.78277 15.9333 12.3013
217 1 7.01949 18.7072 12.3888
218 1 9.92841 18.7304 12.3597
219 1 12.513 15.7614 12.5545
220 1 12.6202 18.7222 12.4872
221 1 1.24629 21.5588 12.4678
222 1 3.96966 21.3901 12.6053
223 1 6.93491 21.4388 12.3228
224 1 9.82041 21.5283 12.6159
225 1 12.371 21.7304 12.5594
12146 2 2.48212 20.0992 13.7643
5633 1 7.10003 -0.963597 1.27658
12003 2 2.73002 -2.50018 2.49968
12057 2 8.34012 -2.42819 8.00264
15012 2 13.886 2.90592 2.25107
12022 2 2.79447 11.6261 -0.182646
12141 2 2.73374 14.4039 13.7763
12008 2 5.46303 0.347867 2.53122
12129 2 5.62492 0.214454 13.8418
12010 2 11.1295 0.299708 2.42423
12125 2 11.2381 20.1363 11.2361
12071 2 -0.0445186 8.52167 5.48255
12013 2 2.77651 3.02663 2.55014
12124 2 8.24575 22.6759 10.957
12046 2 8.24524 22.7522 -0.071713
12055 2 5.59328 -2.2535 5.61861
12017 2 8.20936 3.11649 2.54961
12018 2 5.49806 6.15739 2.49983
79 1 12.4415 18.5519 1.20364
12020 2 11.2117 6.05258 2.59347
12113 2 5.42769 8.77975 10.9435
12104 2 8.30048 0.24929 10.8731
12023 2 2.5594 8.95086 2.74511
15022 2 13.8472 8.72831 2.81279
15106 2 13.7956 5.95508 10.8972
12107 2 2.63088 5.84436 10.9486
12027 2 8.26472 8.82506 2.46946
12028 2 5.44698 11.6953 2.60813
12135 2 11.0592 5.89111 13.7819
12030 2 11.0438 11.4916 2.45575
12102 2 2.74354 0.165253 11.1292
12114 2 8.33097 11.5333 11.0943
12033 2 2.6687 14.3674 2.64442
12139 2 5.45781 11.6915 13.6609
12100 2 11.0341 22.8278 8.21165
12099 2 11.1642 20.0551 5.31146
12037 2 8.26303 14.5316 2.67588
12038 2 5.47563 17.2411 2.71208
12098 2 5.38114 22.8206 8.1855
12040 2 10.8859 17.3335 2.68615
12097 2 8.4086 19.9515 8.16522
12012 2 2.49018 5.82738 -0.0830923
12043 2 2.56173 19.9419 2.58625
12123 2 5.46696 20.073 11.0342
12096 2 8.11748 22.9791 5.51218
12095 2 5.46621 20.1025 5.50991
12047 2 8.21974 20.0665 2.57952
12048 2 5.29208 22.731 2.54276
12115 2 11.1595 8.70622 10.9069
12050 2 10.8613 22.8522 2.70257
12127 2 -0.0401969 0.207638 13.7591
12052 2 2.59611 0.277631 5.42998
12112 2 2.64569 11.6167 11.0181
12122 2 2.7986 22.8536 11.1556
12110 2 11.1073 2.98209 10.9102
12056 2 8.39022 0.312795 5.21447
12109 2 8.11576 6.18464 11.0897
12058 2 5.53633 0.344598 8.25339
12108 2 5.34316 2.98302 11.0905
12060 2 11.2032 0.170406 8.02295
12120 2 11.1567 14.3855 10.853
12062 2 2.6692 5.82546 5.45341
12063 2 2.71677 3.01379 8.01077
12119 2 8.31502 17.3538 11.0048
12065 2 5.48217 3.13161 5.38449
12066 2 8.28525 5.94686 5.38174
12067 2 8.29281 3.04799 8.24212
12068 2 5.48494 5.8908 8.22865
12069 2 11.1949 3.05642 5.21268
12070 2 11.0701 5.9052 8.29483
15041 2 13.6948 22.9165 0.024234
12072 2 2.80043 11.5394 5.48313
12073 2 2.55804 8.67617 8.4216
12118 2 5.39745 14.4585 10.8659
12075 2 5.49028 8.90326 5.44322
12076 2 8.25568 11.5787 5.39337
12077 2 8.21288 8.83731 8.19915
12078 2 5.52862 11.4491 8.23966
12079 2 11.0522 8.75275 5.48342
12080 2 11.0134 11.6531 8.17241
15136 2 14.0022 8.78117 13.6856
12082 2 2.61134 17.337 5.39365
12083 2 2.50899 14.3626 8.13186
12117 2 2.3732 17.1537 10.94
12085 2 5.37825 14.4729 5.36765
12086 2 8.20956 17.3854 5.52756
12087 2 8.11362 14.4205 8.00453
12088 2 5.49001 17.2855 8.16325
12089 2 11.1128 14.412 5.4893
12090 2 11.218 17.2774 8.30084
12024 2 -0.206861 11.6253 2.55595
12092 2 2.35013 22.912 5.46545
12093 2 2.27569 20.0796 8.17365
15062 2 13.7716 3.09921 8.05809
12025 2 5.49132 8.9307 -0.128229
12144 2 5.57534 17.3134 13.7835
15072 2 13.9793 8.795 8.25335
12138 2 8.24121 8.79074 13.8936
12106 2 -0.100293 2.90673 11.0555
12054 2 -0.0370735 0.203755 8.22812
12148 2 8.37203 20.1088 13.9142
12134 2 5.47763 6.05089 13.8528
15111 2 13.8586 11.8097 11.0172
12140 2 11.0959 11.7132 13.9432
15131 2 13.7469 3.28528 13.7448
12130 2 11.0318 0.245013 13.8054
15061 2 13.7774 5.89422 5.39218
12061 2 -0.112701 3.13514 5.44808
12041 2 -0.0680582 20.0225 -0.13893
12143 2 8.28677 14.4091 13.9257
12131 2 2.66443 3.05159 13.7363
15091 2 13.9285 22.7364 5.61302
15092 2 13.9027 20.0927 8.31839
15116 2 13.9319 17.3368 11.1182
15032 2 13.7431 14.2752 2.55732
12014 2 -0.186272 5.93093 2.58495
12145 2 11.1695 17.0432 13.7905
12149 2 5.53452 22.8838 13.8211
15101 2 13.9311 0.443275 10.9819
15042 2 13.7986 20.0776 2.72047
12049 2 11.1976 20.0029 -0.0613206
12150 2 11.1625 22.8801 13.8825
12039 2 10.9831 14.5605 -0.127171
12133 2 8.378 3.10976 13.8592
226 1 4.0121 -1.22147 15.2546
227 1 1.08648 -1.43067 15.1366
228 1 4.23987 1.53733 15.2419
229 1 1.09275 1.8054 15.0247
230 1 9.63021 -1.08763 15.4363
231 1 6.91142 -1.18546 15.3636
232 1 9.76493 1.80166 15.3248
233 1 6.99976 1.37408 15.5079
234 1 12.4063 -1.206 15.4049
235 1 12.6592 1.68842 14.9726
236 1 4.28862 4.56704 15.5244
237 1 1.40276 4.36637 15.4495
238 1 4.16813 7.2241 15.366
239 1 1.31815 7.28708 15.2958
240 1 9.88291 4.43163 15.0786
241 1 7.27774 4.35201 15.3907
242 1 9.70699 7.22443 15.228
243 1 6.98459 7.23493 15.2019
244 1 12.6799 4.56376 15.0641
245 1 12.5956 7.1105 15.0091
246 1 4.16732 9.99446 14.8224
247 1 0.827757 10.2836 15.5885
248 1 3.95904 12.9523 15.2352
249 1 1.39903 13.1334 15.0216
250 1 9.95386 10.1262 15.1834
251 1 7.08671 10.0688 15.383
252 1 9.5946 12.9037 15.4786
253 1 6.81186 13.0585 15.2487
254 1 12.5911 10.0233 15.145
255 1 12.6524 12.6399 15.2582
256 1 4.19036 15.7978 15.0977
257 1 1.3373 15.9239 15.2211
258 1 4.25728 18.7215 15.0374
259 1 1.36215 18.7963 15.1627
260 1 9.77303 15.5736 15.2862
261 1 6.91623 15.8879 15.2888
262 1 9.76532 18.5053 15.0572
263 1 6.92474 18.8382 15.0814
264 1 12.4111 15.8585 15.4615
265 1 12.6473 18.6519 15.3166
266 1 4.13098 21.4844 15.2848
267 1 1.32529 21.5828 15.409
268 1 9.82023 21.4107 15.4374
269 1 7.04214 21.5812 15.1592
270 1 12.6082 21.5985 15.2963
271 1 1.42022 -1.28772 17.8113
272 1 4.11413 -1.04206 18.128
273 1 4.31879 -0.91393 20.8943
274 1 1.31718 -0.990462 20.9405
275 1 1.42675 1.378 18.059
276 1 4.1895 1.5003 18.0135
277 1 4.24939 4.74415 20.9484
278 1 1.12222 1.97017 20.8349
279 1 6.91201 -1.26495 18.196
280 1 9.65715 -1.34707 18.1184
281 1 9.90195 -1.23288 20.8675
282 1 7.17219 -1.14846 20.9811
283 1 6.88402 1.63693 18.1282
284 1 9.76471 1.4808 17.9816
285 1 9.72658 1.46466 20.8509
286 1 6.76349 1.81023 20.9317
287 1 12.702 -1.11993 18.0926
288 1 12.5984 -1.15249 20.8502
289 1 12.582 1.86999 18.1759
290 1 12.5891 1.63529 20.82
291 1 1.13524 4.13182 18.419
292 1 4.13215 4.38824 18.2161
293 1 4.0471 7.57544 21.1067
294 1 1.18986 4.62709 21.3126
295 1 1.36682 7.06853 18.2823
296 1 4.15281 7.31761 18.0937
297 2 2.66066 8.94131 22.2369
298 1 1.38683 7.43982 21.2646
299 1 7.1169 4.47305 18.0497
300 1 9.8135 4.3596 18.1185
301 1 9.69181 4.20499 20.9747
302 1 7.00124 4.42007 20.6697
303 1 6.90158 7.06856 18.0182
304 1 9.86488 7.16183 17.7402
305 1 9.80738 7.23393 20.7038
306 1 7.29684 7.50908 20.9968
307 1 12.5839 4.62656 17.9366
308 1 12.5205 4.42478 20.9064
309 1 12.5896 7.34171 18.1257
310 1 12.5338 7.11876 21.0243
311 1 0.970694 9.95561 18.049
312 1 3.98059 10.0304 17.4976
313 1 4.06221 10.0782 20.4603
314 1 1.23176 10.1255 20.9295
315 1 1.27789 12.6946 18.1282
316 1 3.98441 12.9573 18.0858
317 1 3.95047 13.1597 20.9406
318 1 1.08715 13.0249 20.9654
319 1 6.92992 10.1276 18.1179
320 1 9.4166 10.1208 17.9979
321 1 9.7467 9.61028 20.6955
322 1 6.8002 10.1343 20.887
323 1 6.74166 13.0206 17.9225
324 1 9.76688 12.9788 18.2806
325 1 9.44661 12.3731 20.6565
326 1 6.33649 12.8989 20.8886
327 1 12.3816 10.2877 17.8084
328 1 12.561 9.91958 20.618
329 1 12.6108 13.0317 17.9816
330 1 12.357 12.771 20.7786
331 1 1.32857 15.7641 17.8935
332 1 4.11601 15.9904 17.9026
333 1 3.64612 16.0396 20.882
334 1 1.17504 16.032 20.7039
335 1 1.42584 18.6061 17.989
336 1 4.26872 18.6375 17.7544
337 1 4.16237 18.7919 20.7774
338 1 1.3344 18.8414 20.8219
339 1 6.9757 15.7792 18.2562
340 1 9.94032 15.7585 18.1323
341 1 9.34177 15.8262 20.777
342 1 6.51259 15.6984 20.849
343 1 7.1225 18.7391 18.0474
344 1 9.66525 18.7638 17.8924
345 1 9.6952 18.7143 20.7439
346 1 6.91241 18.5787 20.9947
347 1 12.6114 15.8247 18.0757
348 1 12.578 15.9129 20.776
349 1 12.4955 18.7261 18.1244
350 1 12.6392 18.5955 20.7557
351 1 1.21066 21.5397 18.3185
352 1 4.02481 21.4741 18.0631
353 1 4.27306 21.4276 20.8179
354 1 1.36312 21.6402 21.0438
355 1 6.79412 21.4789 18.0975
356 1 9.59637 21.4377 18.1701
357 1 9.78395 21.3373 20.953
358 1 6.99783 21.5199 21.0199
359 1 12.4375 21.5539 18.1833
360 1 12.5665 21.5337 20.9733
361 1 1.29328 -1.37162 23.6672
362 1 3.94863 2.22655 23.6598
363 1 3.92518 -0.727887 23.9507
364 1 1.38706 -1.10003 26.4943
365 1 1.14492 1.53638 23.6778
366 1 3.94574 1.81677 21.0445
367 1 4.07768 2.11222 26.5688
368 1 1.2483 1.56352 26.3556
369 1 6.68597 -1.12681 23.8148
370 1 9.71663 -1.1413 23.6442
371 1 9.71072 -1.11411 26.5104
372 1 4.03529 -0.718322 26.778
373 1 7.13756 1.79694 23.5644
374 1 9.86394 1.47432 23.8009
375 1 9.718 1.66094 26.6228
376 1 6.95501 1.89946 26.5257
377 1 12.4926 -1.24292 23.9143
378 1 12.515 -1.2098 26.4444
379 1 12.6344 1.43241 23.6506
380 1 12.7337 1.63315 26.3693
381 1 1.36866 4.41892 23.8628
382 1 4.14633 4.9079 24.0383
383 1 4.00491 4.82797 26.718
384 1 1.38456 4.5013 26.6011
385 1 1.68455 7.49299 23.8741
386 1 4.26488 7.70505 23.8344
387 1 4.33898 7.48793 26.9655
388 1 1.25376 7.50686 26.8549
389 1 7.09393 4.66339 23.4885
390 1 9.63987 4.31108 23.6481
391 1 9.78877 4.33944 26.5286
392 1 6.72461 4.47111 26.3256
393 1 7.05436 7.65616 23.7407
394 1 9.82579 7.13101 23.5646
395 1 9.83031 7.2082 26.3819
396 1 7.10941 7.45518 26.61
397 1 12.3187 4.41204 23.7095
398 1 12.5566 4.442 26.4111
399 1 12.679 7.28832 23.8295
400 1 12.6358 7.29873 26.615
401 1 1.15823 10.3044 23.5517
402 1 4.06771 10.4536 23.2606
403 1 4.23934 10.2304 26.3322
404 1 1.41056 10.2846 26.3261
405 1 1.15645 13.4611 23.8968
406 1 3.9511 13.3133 23.8407
407 1 4.0613 13.0294 26.6319
408 1 1.44983 13.0528 26.7718
409 1 6.95552 10.3329 23.7857
410 1 9.78952 9.931 23.4233
411 1 9.98688 10.0646 26.3994
412 1 7.20754 10.2621 26.6275
413 1 6.83556 13.0257 23.857
414 1 9.73117 12.74 23.9196
415 1 9.86462 13.0593 26.564
416 1 6.93555 13.1173 26.6676
417 1 12.7026 9.96706 23.6975
418 1 12.8539 10.2385 26.403
419 1 12.775 12.8577 23.9535
420 1 12.4713 13.0736 26.7391
421 1 1.17653 16.3684 23.7673
422 1 3.82989 15.9473 23.7248
423 1 4.04119 15.6687 26.7699
424 1 1.18302 16.0248 26.5327
425 1 1.12303 19.119 23.8651
426 1 3.98944 18.6473 23.7521
427 1 4.09003 18.509 26.5522
428 1 1.33476 18.6917 26.5445
429 1 6.97784 15.7405 23.8446
430 1 9.67139 18.5363 23.7171
431 1 9.52984 15.7088 26.7017
432 1 6.63737 15.8635 26.5381
433 1 7.05931 18.8432 23.7841
434 1 12.8639 18.8766 26.6471
435 1 9.92708 18.6718 26.8322
436 1 7.0111 18.821 26.6428
437 1 12.7848 16.0305 24.1968
438 1 12.3476 16.1984 26.9034
439 1 12.3332 18.9754 23.8869
12009 2 11.0705 -2.35889 27.9067
441 1 1.20296 21.7442 23.8525
442 1 3.99252 21.3585 23.6949
443 1 4.05061 21.4037 26.4908
444 1 1.28297 21.3666 26.7823
445 1 6.54706 21.5365 23.7786
446 1 9.57393 21.555 23.8779
447 1 9.61906 21.5447 26.8427
448 1 6.82561 21.5706 26.7336
449 1 12.3134 21.8145 23.7363
450 1 12.4257 21.6916 26.757
12147 2 -0.122542 22.8507 14.0462
12250 2 10.988 23.1283 25.3819
12184 2 -0.181081 17.3122 19.3986
12201 2 -0.0937156 -2.3816 22.4189
15242 2 13.9525 20.309 25.3048
12227 2 8.47497 8.75105 25.1548
12249 2 11.0249 20.0062 22.3223
12226 2 8.51064 11.3252 22.2596
12225 2 5.86965 8.83824 22.2731
12006 2 8.23211 0.240632 27.9021
12223 2 2.76233 8.68237 25.5036
12248 2 5.47465 22.8709 25.2162
12222 2 2.41053 12.0972 22.3664
12228 2 5.45002 11.8435 25.032
12001 2 -0.103102 -2.49799 27.9661
12220 2 11.1462 5.90157 25.0764
12247 2 8.50391 19.9963 25.3159
15011 2 13.836 5.79828 27.9345
15192 2 13.8689 20.1214 19.6913
9 1 6.92561 -1.00951 26.5472
12219 2 11.2623 2.6998 22.3848
12246 2 8.19875 22.8478 22.4637
15182 2 13.8557 14.2713 19.5721
12218 2 5.55553 6.1323 25.3674
12045 2 5.40449 20.0841 27.8976
12245 2 5.52979 20.0215 22.4787
12152 2 2.86642 0.231735 16.6532
12042 2 2.59574 22.7615 28.0302
12243 2 2.5808 20.0745 25.1503
12224 2 -0.119318 11.7511 25.09
12156 2 8.35323 0.162695 16.8403
12241 2 -0.0907671 20.2321 22.2425
12158 2 5.63456 0.402969 19.6532
12181 2 -0.1644 14.2893 16.4572
12160 2 11.0958 0.24169 19.3748
12242 2 2.74077 22.8403 22.2933
12162 2 2.69275 5.83744 16.7335
12163 2 2.71816 2.93338 19.4307
12240 2 11.1884 17.1877 25.2755
12165 2 5.47183 3.00231 16.7379
12166 2 8.45077 5.79164 16.5733
12167 2 8.34031 2.96507 19.4207
12168 2 5.61678 5.77526 19.5361
12169 2 11.2901 3.06391 16.3762
12170 2 11.1904 5.86522 19.4469
12239 1 9.55027 16.0608 24.0217
12172 2 2.58636 11.5986 16.5121
12173 2 2.74862 8.83671 19.0035
12238 2 5.2719 17.0345 25.0947
12175 2 5.58877 8.65384 16.5026
12176 2 8.27494 11.6414 16.825
12177 2 8.49356 8.44646 19.2632
12178 2 5.46228 11.5175 19.3902
12179 2 11.1406 8.75049 16.5049
12180 2 11.0997 11.4064 19.5914
12237 2 8.44508 14.2992 25.19
12182 2 2.76001 17.3814 16.4903
12183 2 2.81542 14.6055 19.2693
12236 2 8.31257 17.2208 22.5082
12185 2 5.44359 14.5679 16.6559
12186 2 8.39775 17.0923 16.6074
12187 2 8.30505 14.0401 19.5697
12188 2 5.47741 17.335 19.3534
12189 2 11.1886 14.4929 16.8765
12190 2 10.9415 17.1611 19.6978
12235 2 5.44266 14.3043 22.3697
12192 2 2.79795 22.8741 16.7316
12193 2 2.8406 20.1658 19.4219
12019 2 11.1837 3.12042 28.016
12195 2 5.55457 20.1926 16.5243
12196 2 8.28582 22.8123 16.7299
12197 2 8.22994 19.9531 19.4629
12198 2 5.62309 22.9134 19.6583
12199 2 11.2465 20.0172 16.7116
12200 2 11.0815 22.6513 19.5714
12233 2 2.63155 14.5512 25.4043
12202 2 2.70128 0.3432 22.4049
12002 2 2.61496 0.56669 27.7902
12232 2 2.42341 17.4269 22.1922
12029 2 11.2545 8.61143 27.8519
12206 2 8.3414 0.406357 22.3202
15021 2 13.7731 11.5642 28.0104
12208 2 5.51002 0.360953 25.2803
15001 2 13.9049 0.35399 27.7646
12210 2 11.1038 0.290254 25.2294
12230 2 11.3315 11.5736 25.0963
12212 2 2.72662 5.83849 22.5375
12213 2 2.74256 3.24362 25.1297
12229 2 11.1967 8.60315 22.1346
12215 2 5.68914 3.37967 22.3949
12216 2 8.48444 5.93919 22.2021
12217 2 8.34633 3.05997 25.0168
12164 2 0.0474227 5.97178 19.7725
15146 2 13.8303 20.0796 14.0595
12153 2 2.5171 -2.34948 19.4395
15141 2 13.9083 14.4756 14.0227
12016 2 8.61166 5.89739 27.8734
12015 2 5.43393 3.32147 27.9411
15162 2 13.8929 3.24731 19.3821
15231 2 13.9034 17.1523 22.3688
15191 2 13.9238 22.8079 16.6456
12155 2 5.54033 -2.53162 16.7105
12194 2 0.0320256 22.9601 19.689
12154 2 -0.0852857 0.307805 19.4791
15171 2 13.9706 11.5027 16.6157
15221 2 13.8931 11.7183 22.3188
12214 2 -0.182228 5.88631 25.3427
12231 2 -0.130287 14.7804 22.1632
12191 2 -0.0464951 19.9216 16.7794
12026 2 8.42513 11.7114 27.8036
12031 2 -0.105344 14.4875 27.956
12035 2 5.70274 14.4326 27.9894
12032 2 2.79146 17.2788 28.0178
12036 2 8.15698 17.1255 27.8998
451 1 1.25838 24.209 1.03594
452 1 3.95572 24.4024 0.994453
453 1 3.89018 24.2017 3.94188
454 1 0.835002 24.3351 4.05253
455 1 6.65197 24.2485 1.17703
456 1 9.49913 24.2224 1.23251
457 1 9.676 24.3049 4.17694
458 1 6.63871 24.323 3.98716
459 1 12.2685 24.3178 1.27137
460 1 12.4911 24.4904 4.18554
461 1 1.06409 27.0744 1.22159
462 1 4.09856 27.1797 1.0847
463 1 4.0286 27.2299 4.0312
464 1 1.20746 27.1264 4.04884
12356 2 -0.131459 42.76 10.9036
466 1 4.05334 30.1536 1.11411
467 1 4.04098 30.1271 4.19428
468 1 1.07806 30.1561 6.78316
469 1 6.91298 27.0693 1.23926
470 1 9.77629 26.9855 1.33532
471 1 9.94086 27.0078 3.97195
472 1 6.99638 27.1267 4.14606
473 1 6.76826 30.076 1.21739
474 1 9.75901 30.0991 1.03702
475 1 9.76976 29.7234 3.86731
476 1 6.99858 29.9643 4.09866
477 1 12.5314 27.4546 4.18063
478 1 12.6348 30.1764 4.13177
12341 2 -0.0706917 25.5982 11.309
480 1 12.2707 32.9262 4.2184
481 1 0.92476 32.5108 1.15853
482 1 3.87453 32.8025 1.29499
483 1 3.86751 33.0203 4.17277
484 1 1.20138 35.7873 3.96265
12381 2 8.30405 42.6355 13.9057
486 1 3.91788 35.742 1.384
487 1 4.1831 35.645 4.10509
12329 2 -0.124967 45.6365 8.21372
489 1 6.70171 32.9692 1.18335
490 1 9.80091 32.7795 1.38786
491 1 9.59779 32.925 4.02343
492 1 6.89251 32.6952 3.9493
493 1 6.72772 35.6469 1.23482
494 1 9.63762 35.7059 1.37252
495 1 9.89176 35.6266 3.98922
496 1 7.02808 35.5108 4.0389
497 1 12.4361 32.6326 1.35662
498 1 12.5915 35.5628 4.22624
12367 2 5.59313 28.6068 13.8956
12336 2 -0.0951914 48.2749 5.28753
501 1 1.37818 37.9232 0.998448
502 1 4.23243 38.4745 1.25728
503 1 4.05061 38.3974 3.99389
504 1 2.23669 39.9429 2.43719
505 1 0.916358 41.4194 1.04381
506 1 4.25191 41.4805 1.11869
507 1 3.97775 41.1783 4.24362
508 1 1.10205 41.4706 4.10096
509 1 7.10839 38.4461 1.26717
510 1 9.8219 38.8943 0.900461
511 1 9.67974 38.5181 3.79401
512 1 6.77668 38.3464 3.95942
513 1 7.17 41.1008 1.26029
514 1 10.0197 41.4701 1.40844
515 1 9.6468 41.2008 3.94468
516 1 6.79112 41.2657 4.09518
15368 2 13.5198 31.5372 13.9539
12306 2 -0.0443551 28.713 8.27984
519 1 12.6689 41.1305 1.27844
520 1 12.58 41.3202 3.99985
521 1 0.900073 44.1882 1.23163
522 1 3.81007 44.019 1.16236
523 1 3.74643 43.867 4.04174
524 1 1.0997 44.2653 4.05521
525 1 1.20966 46.9493 1.10625
526 1 4.0841 46.7712 1.12366
527 1 4.17015 46.9894 3.91883
528 1 1.28139 46.8206 4.10172
529 1 6.84303 44.0311 1.17335
530 1 9.6086 44.2842 1.21887
531 1 9.5471 44.215 3.98045
532 1 6.58546 44.1613 3.96955
533 1 6.74925 47.0059 1.40216
534 1 9.60604 46.9579 1.27505
535 1 9.63474 47.0355 4.06156
536 1 6.93362 46.9987 4.12553
537 1 12.3404 44.1909 1.31351
538 1 12.4619 44.0086 3.89313
539 1 12.5857 47.0581 1.01245
540 1 12.4354 46.7847 3.90326
541 1 1.15078 24.233 6.81123
542 1 3.93015 24.5269 6.82385
543 1 4.02597 24.2529 9.75961
544 1 1.3003 24.1757 9.55813
545 1 6.7616 24.2726 7.05209
546 1 9.62637 24.3085 6.93303
547 1 9.65035 24.2612 9.68649
548 1 6.52603 24.3755 9.88555
549 1 12.6053 24.3755 6.79218
550 1 12.6734 24.312 9.73897
551 1 1.12703 27.1032 6.89706
552 1 4.04646 27.1604 6.96979
553 1 3.94371 27.0346 9.92577
554 1 1.23188 27.0362 9.59463
555 1 1.07323 33.0011 4.29589
556 1 4.01318 29.9574 7.03115
557 1 4.26683 29.9027 9.77116
558 1 1.44461 29.856 9.69655
559 1 6.69183 27.4238 6.7691
560 1 9.51039 27.0434 6.74489
561 1 9.65648 27.2327 9.72362
562 1 6.68099 27.4006 9.77295
563 1 6.81221 30.2667 7.02459
564 1 9.70987 29.7362 6.90513
565 1 9.66624 30.12 9.76882
566 1 6.94181 29.9375 9.74067
567 1 12.2786 27.4331 6.89109
568 1 12.3472 26.9207 9.42561
569 1 12.4537 30.2712 7.00411
570 1 12.4641 29.5499 10.0159
571 1 1.06572 35.7599 6.89444
572 1 3.96199 32.7659 6.90776
573 1 4.0304 32.7995 9.5097
574 1 1.37905 32.8022 9.85493
575 1 1.00779 38.3645 4.29526
576 1 3.82939 35.6809 6.87383
577 1 3.81956 35.479 9.68814
578 1 0.959869 35.5343 9.94187
579 1 7.0635 32.9464 6.84077
580 1 9.83571 32.538 6.85616
581 1 9.82984 32.7361 9.65133
582 1 7.10638 32.6052 9.61575
583 1 6.69271 35.4983 6.69729
584 1 10.1952 35.5638 6.92199
585 1 9.98218 35.6234 9.94859
586 1 6.6648 35.2978 9.81748
587 1 12.6704 32.9838 7.19452
588 1 12.8078 32.5529 9.92853
589 1 12.6192 35.8698 6.93078
590 1 12.8952 35.5345 9.62375
591 1 0.999369 38.4312 7.05609
592 1 4.0446 38.3052 6.92033
593 1 4.06487 38.246 9.79889
594 1 1.09385 38.4959 9.9416
595 1 1.07049 41.1664 6.90747
596 1 3.78166 41.2261 7.08926
597 1 4.09524 41.3627 9.88843
598 1 1.23081 41.378 9.70638
599 1 6.85119 38.831 6.63626
600 1 10.1061 38.9907 6.3639
601 1 9.91971 38.6872 9.96668
602 1 6.94591 38.6551 9.69466
603 1 6.81107 41.4218 7.06542
604 1 9.59979 41.5405 6.75666
605 1 9.72109 44.0792 9.56917
606 1 6.93348 41.3392 9.74161
607 1 12.642 38.6668 7.17348
608 1 12.6934 38.2346 9.96191
609 1 12.2867 41.4476 6.80872
610 1 12.755 41.2122 9.67638
611 1 1.2423 44.3196 6.78159
612 1 4.12321 44.1504 6.93768
613 1 4.0776 44.1888 9.6335
614 1 1.30044 44.2567 9.43588
615 1 1.45961 46.9403 6.79968
616 1 4.27828 46.9829 6.6515
617 1 3.94354 46.8411 9.33076
618 1 1.3021 47.0981 9.5916
619 1 7.12267 44.1142 6.64199
620 1 9.90667 44.5057 6.73463
621 1 9.62869 46.8623 9.75581
622 1 6.67541 44.3198 9.7204
623 1 7.19465 47.0698 7.01759
624 1 10.1858 47.2582 7.19965
12265 2 5.393 31.5008 -0.19265
626 1 7.01082 47.2509 10.0167
627 1 12.7945 44.1546 6.74396
628 1 12.7098 44.1173 9.79546
629 1 12.7716 47.0798 6.78718
630 1 12.7438 46.7194 9.51289
631 1 1.31642 24.2936 12.6135
632 1 4.05026 24.3004 12.7612
633 1 6.97189 24.3601 12.3966
634 1 9.81728 24.0699 12.6177
635 1 12.7019 24.4517 12.5311
636 1 1.3999 27.0476 12.5888
637 1 4.3494 27.1247 12.6826
638 1 1.44164 29.944 12.5552
639 1 4.11891 30.0263 12.5174
640 1 7.07323 27.1393 12.4838
641 1 9.82979 26.9352 12.5755
642 1 6.89502 30.0185 12.5866
643 1 9.59729 29.7965 12.5817
644 1 12.6787 27.1948 12.3466
645 1 12.5015 30.0545 12.7248
646 1 1.28831 32.7654 12.3829
647 1 3.91648 32.9072 12.6025
648 1 1.2471 35.606 12.7159
649 1 4.17558 35.6247 12.7337
650 1 6.80743 32.7727 12.652
651 1 9.77954 32.8416 12.6433
652 1 6.83468 35.6552 12.6509
653 1 9.56353 35.5777 12.6177
654 1 12.4981 33.0176 12.5372
655 1 12.587 35.5982 12.452
656 1 1.31606 38.4549 12.853
657 1 3.92545 38.5807 12.5086
658 1 1.31727 41.5232 12.5024
659 1 4.12177 41.2975 12.3772
660 1 6.73445 38.4572 12.5312
661 1 9.51922 38.389 12.7233
662 1 6.85415 41.314 12.4505
663 1 9.70141 41.1193 12.5621
664 1 12.3722 38.5072 12.724
665 1 12.6395 41.1894 12.5496
666 1 1.40459 44.1156 12.1794
667 1 4.1933 44.2979 12.5997
668 1 1.29393 47.0908 12.4509
669 1 4.12123 46.989 12.4685
670 1 6.96128 44.0631 12.4548
671 1 9.76022 44.1052 12.4939
672 1 6.91616 46.8471 12.6029
673 1 9.8027 46.9007 12.641
674 1 12.4522 44.1738 12.3484
675 1 12.8158 47.026 12.3624
12363 2 11.0734 48.2 11.1762
6484 1 12.4412 37.9495 1.61678
12253 2 2.41145 25.6282 2.41683
12362 2 5.47566 48.3679 11.123
6451 1 12.5192 27.2026 1.33292
12373 2 11.1018 34.2582 13.8171
12257 2 8.04906 25.6263 2.56394
12258 2 5.29688 28.6225 2.6105
12274 2 -0.0939686 39.8373 2.67899
12260 2 10.9812 28.4545 2.56944
12275 2 5.46439 36.9798 -0.104585
12376 2 8.19134 36.9269 13.8991
12263 2 2.60561 31.4779 2.84508
12360 2 11.1974 42.5869 11.0744
12379 2 2.92349 42.7833 13.6535
488 1 1.06734 35.2844 1.19287
12267 2 8.40333 31.4468 2.68977
12268 2 5.41606 34.2317 2.78776
15281 2 13.7825 45.6302 -0.218424
12270 2 11.1194 34.1427 2.64306
12359 2 8.32287 45.3708 11.2191
12385 2 8.40453 48.28 13.8769
12273 2 2.54647 37.1446 2.71676
12358 2 5.51124 42.7118 11.0344
12380 2 0.011164 45.5221 13.6728
12326 2 -0.0735713 42.5999 5.45833
12277 2 8.20786 37.0894 2.667
12278 2 5.46333 39.8299 2.62448
15282 2 13.9156 42.7233 2.61184
12280 2 11.0844 39.8672 2.51908
465 1 1.45924 29.9894 1.11287
15452 2 13.7058 37.1625 -0.05931
12283 2 2.60947 42.4253 2.50353
904 1 1.26536 49.7073 3.91709
500 1 12.6509 38.3642 4.10143
15316 2 13.8015 39.8606 5.62776
12287 2 8.36571 42.7158 2.62622
12288 2 5.25167 45.3012 2.45118
6461 1 12.6107 29.7987 1.31543
12290 2 10.9281 45.6375 2.47154
12295 2 11.1116 48.326 -0.202749
12292 2 2.79177 48.3396 2.57412
12352 2 2.7382 39.7963 11.2165
12294 2 8.35491 48.3712 2.5886
12365 2 0.0452491 28.4261 14.0052
12357 2 2.82312 45.6128 10.8301
12297 2 2.69147 28.6761 5.51618
12298 2 2.6755 25.6653 8.40552
12299 1 0.895337 32.8534 7.05252
12300 2 5.28939 25.6369 5.39665
12301 2 8.46992 28.5968 5.43458
12302 2 8.02714 25.8279 8.35441
12303 2 5.56097 28.7241 8.3787
12304 2 11.1764 25.7593 5.61624
12305 2 11.1728 28.4969 8.46714
911 1 9.82008 50.114 4.19583
12307 2 2.52655 34.371 5.4732
12308 2 2.59149 31.3673 8.21549
12355 2 11.2277 37.0788 11.0861
12310 2 5.60306 31.3894 5.34838
12311 2 8.33708 34.3515 5.64285
12312 2 8.4434 31.3956 8.32903
12313 2 5.43884 34.1 8.1202