ITEM: TIMESTEP
270000
ITEM: NUMBER OF ATOMS
18000
ITEM: BOX BOUNDS xy xz yz pp pp pp
-2.3243634527106075e-01 2.8126436345269255e+01 0.0000000000000000e+00
-2.5565251202354600e+00 3.3728452512020118e+02 0.0000000000000000e+00
-2.3161814755585855e-01 2.8125618147555176e+01 0.0000000000000000e+00
ITEM: ATOMS id type q mass x y z
676 2 2.2208 232.038 8.23812 22.8716 -0.0711777
324 1 -1.1104 15.9994 12.5475 4.6425 12.5154
334 2 2.2208 232.038 5.33447 6.03741 13.9544
4 1 -1.1104 15.9994 12.2907 21.5413 12.7662
323 1 -1.1104 15.9994 9.71809 7.14892 12.6855
322 1 -1.1104 15.9994 6.74933 7.38866 12.557
105 2 2.2208 232.038 11.073 -2.43817 11.164
8 2 2.2208 232.038 5.27552 0.498326 2.80901
9 1 -1.1104 15.9994 12.5074 7.73419 12.4967
10 2 2.2208 232.038 11.0163 0.382793 2.77599
11 1 -1.1104 15.9994 9.79188 21.5105 12.5698
321 1 -1.1104 15.9994 9.58436 4.40122 12.413
13 2 2.2208 232.038 2.33269 3.08159 2.60556
14 1 -1.1104 15.9994 6.96172 21.4912 12.7402
9101 2 2.2208 232.038 13.8809 22.9344 11.3799
3 2 2.2208 232.038 2.48706 -2.36511 2.89325
17 2 2.2208 232.038 8.22588 3.29478 2.76151
18 2 2.2208 232.038 5.21393 5.95492 2.52704
59 2 2.2208 232.038 10.9688 -2.40837 5.41889
20 2 2.2208 232.038 11.2037 6.10855 2.76225
21 1 -1.1104 15.9994 4.07542 21.2584 12.5914
22 1 -1.1104 15.9994 1.28747 15.6595 12.3805
23 2 2.2208 232.038 2.57947 9.10228 2.6555
320 1 -1.1104 15.9994 6.80517 4.83493 12.6102
8991 2 2.2208 232.038 13.8246 11.7186 5.42947
660 2 2.2208 232.038 5.46463 -2.24489 -0.199169
27 2 2.2208 232.038 8.08594 8.82131 2.73412
28 2 2.2208 232.038 5.44818 11.6143 2.63311
672 2 2.2208 232.038 11.4124 14.2255 -0.0948438
30 2 2.2208 232.038 11.0641 11.6411 2.55869
31 1 -1.1104 15.9994 12.63 13.1639 12.6093
32 1 -1.1104 15.9994 12.4202 10.4517 12.3833
33 2 2.2208 232.038 2.72528 14.6756 2.47048
8982 2 2.2208 232.038 13.94 -2.39648 2.75086
35 1 -1.1104 15.9994 10.0943 13.0111 12.2731
36 1 -1.1104 15.9994 6.92176 13.1743 12.6697
37 2 2.2208 232.038 8.58637 14.5816 2.50971
38 2 2.2208 232.038 5.44814 17.3587 2.57233
39 1 -1.1104 15.9994 9.69283 10.0387 12.7035
40 2 2.2208 232.038 11.0845 17.3708 2.854
41 1 -1.1104 15.9994 6.79825 10.2826 12.3895
42 1 -1.1104 15.9994 4.15174 12.8774 12.4564
43 2 2.2208 232.038 2.50379 20.3193 2.62536
319 1 -1.1104 15.9994 3.9869 7.42032 12.6863
45 1 -1.1104 15.9994 1.23013 13.0014 12.8196
46 1 -1.1104 15.9994 3.9952 10.0554 12.6244
47 2 2.2208 232.038 8.35492 20.1527 2.80233
48 2 2.2208 232.038 5.43654 22.9979 2.69045
49 1 -1.1104 15.9994 1.21666 10.3283 12.5332
50 2 2.2208 232.038 11.2002 22.9556 2.80622
51 1 -1.1104 15.9994 1.18537 21.4613 12.5675
52 2 2.2208 232.038 2.27811 0.331935 5.41963
7 2 2.2208 232.038 8.23401 -2.10546 2.63358
54 1 -1.1104 15.9994 12.6211 18.578 12.7288
9032 2 2.2208 232.038 13.7633 -2.20388 8.31325
56 2 2.2208 232.038 7.99089 0.572465 5.68953
55 2 2.2208 232.038 5.25443 -2.31358 5.40069
58 2 2.2208 232.038 5.01518 0.339865 8.60071
25 2 2.2208 232.038 5.45886 8.72944 -0.207412
60 2 2.2208 232.038 11.0278 0.43513 8.27315
61 1 -1.1104 15.9994 12.3907 15.9212 12.4923
62 2 2.2208 232.038 2.47217 5.92807 5.40874
63 2 2.2208 232.038 2.4026 3.30131 8.39745
64 1 -1.1104 15.9994 9.50669 18.627 12.8912
65 2 2.2208 232.038 5.24103 3.14308 5.77431
66 2 2.2208 232.038 8.16278 6.08033 5.53208
67 2 2.2208 232.038 8.28126 3.26405 8.42228
68 2 2.2208 232.038 5.37404 6.0358 8.40917
69 2 2.2208 232.038 11.1061 3.43369 5.5342
70 2 2.2208 232.038 11.2473 6.24303 8.28462
71 1 -1.1104 15.9994 6.74054 18.6459 12.6632
72 2 2.2208 232.038 2.52461 11.9173 5.35434
73 2 2.2208 232.038 2.67383 8.56707 8.36264
74 1 -1.1104 15.9994 9.6047 15.9174 12.6575
75 2 2.2208 232.038 5.36182 8.84586 5.62562
76 2 2.2208 232.038 8.21612 11.7225 5.46217
77 2 2.2208 232.038 8.35981 8.97287 8.30501
78 2 2.2208 232.038 5.38477 11.6101 8.34086
79 2 2.2208 232.038 11.1128 8.95695 5.39167
80 2 2.2208 232.038 11.1521 11.7309 8.41628
318 1 -1.1104 15.9994 1.27909 7.42348 12.5623
82 2 2.2208 232.038 2.50251 17.4921 5.49643
83 2 2.2208 232.038 2.553 14.4306 8.38128
662 2 2.2208 232.038 11.1698 -2.37357 -0.137878
85 2 2.2208 232.038 5.23151 14.567 5.63716
86 2 2.2208 232.038 8.13901 17.3294 5.50483
87 2 2.2208 232.038 8.12978 14.678 8.41052
88 2 2.2208 232.038 5.24711 17.3326 8.32174
89 2 2.2208 232.038 10.9874 14.4662 5.7063
90 2 2.2208 232.038 10.9293 17.2323 8.29176
8988 2 2.2208 232.038 -0.19382 11.7075 8.33063
92 2 2.2208 232.038 2.63286 22.8575 5.5188
93 2 2.2208 232.038 2.7484 20.1482 8.34044
19 2 2.2208 232.038 10.9299 3.15233 -0.202797
95 2 2.2208 232.038 5.39696 20.0889 5.50098
96 2 2.2208 232.038 8.33709 22.9721 5.52228
97 2 2.2208 232.038 8.12197 20.1498 8.38854
98 2 2.2208 232.038 5.42863 23.1155 8.43589
99 2 2.2208 232.038 11.044 20.0811 5.45906
100 2 2.2208 232.038 10.948 22.5503 8.36217
101 1 -1.1104 15.9994 6.85299 16.0445 12.4965
102 2 2.2208 232.038 2.48327 0.460309 11.2294
674 2 2.2208 232.038 2.51826 22.9891 -0.138516
104 2 2.2208 232.038 8.19764 0.492858 11.5018
9161 1 -1.1104 15.9994 1.3435 10.1854 4.0938
106 1 -1.1104 15.9994 3.94092 18.6972 12.5196
107 2 2.2208 232.038 2.61703 6.24898 11.1385
108 2 2.2208 232.038 5.26176 3.20682 11.2462
109 2 2.2208 232.038 8.08405 5.90414 11.1416
110 2 2.2208 232.038 11.1198 3.28344 10.9768
111 1 -1.1104 15.9994 1.06024 18.7826 12.3531
112 2 2.2208 232.038 2.48334 11.6559 11.2477
113 2 2.2208 232.038 5.35031 8.68765 11.2601
114 2 2.2208 232.038 8.34141 11.6005 11.0549
115 2 2.2208 232.038 11.1502 8.92338 11.033
116 1 -1.1104 15.9994 3.98669 15.994 12.528
117 2 2.2208 232.038 2.5623 17.4522 11.0845
118 2 2.2208 232.038 5.442 14.5022 11.2013
119 2 2.2208 232.038 8.11199 17.3081 11.2826
120 2 2.2208 232.038 11.1035 14.5387 11.145
103 2 2.2208 232.038 5.20063 -2.40164 11.2956
122 2 2.2208 232.038 2.48413 23.0737 11.137
123 2 2.2208 232.038 5.57371 20.0574 11.3158
124 2 2.2208 232.038 8.3351 22.8946 11.3873
125 2 2.2208 232.038 11.0692 19.9627 11.3917
126 1 -1.1104 15.9994 1.22211 -1.07326 1.6225
127 1 -1.1104 15.9994 3.90632 -0.930018 1.22783
128 1 -1.1104 15.9994 0.946728 -1.12458 4.3044
129 1 -1.1104 15.9994 3.61389 -1.11334 4.33248
130 1 -1.1104 15.9994 0.73373 1.81017 1.45648
131 1 -1.1104 15.9994 3.8869 1.92657 1.40351
132 1 -1.1104 15.9994 1.06531 1.79978 4.26707
133 1 -1.1104 15.9994 3.88285 1.76472 4.38363
134 1 -1.1104 15.9994 6.6682 -0.92913 1.24843
135 1 -1.1104 15.9994 9.78562 -0.738972 1.12108
136 1 -1.1104 15.9994 6.63062 -0.944097 4.13283
137 1 -1.1104 15.9994 9.75432 -1.16394 4.21585
138 1 -1.1104 15.9994 6.94506 1.83708 1.26725
139 1 -1.1104 15.9994 9.68146 1.77828 1.48451
140 1 -1.1104 15.9994 6.48606 1.78815 4.23547
141 1 -1.1104 15.9994 9.72188 1.87653 4.20317
142 1 -1.1104 15.9994 12.5874 -1.17324 1.37521
143 1 -1.1104 15.9994 12.3557 -0.955931 4.31027
144 1 -1.1104 15.9994 12.5587 1.57921 1.26117
145 1 -1.1104 15.9994 12.3741 1.72645 4.19127
146 1 -1.1104 15.9994 0.896378 4.71627 1.29442
147 1 -1.1104 15.9994 3.87037 4.73167 0.79084
148 1 -1.1104 15.9994 0.874043 4.38917 3.88252
149 1 -1.1104 15.9994 3.94874 4.52448 3.79116
150 1 -1.1104 15.9994 1.09998 7.51445 1.33709
151 1 -1.1104 15.9994 3.77307 7.4834 1.45248
152 1 -1.1104 15.9994 1.11794 7.50637 6.90084
153 1 -1.1104 15.9994 3.93332 7.50391 4.13124
154 1 -1.1104 15.9994 6.50706 4.75821 1.15604
155 1 -1.1104 15.9994 9.31322 4.80843 1.16921
156 1 -1.1104 15.9994 6.93406 4.61433 4.08713
157 1 -1.1104 15.9994 9.71056 4.54739 3.87591
158 1 -1.1104 15.9994 6.75296 7.45888 1.46224
159 1 -1.1104 15.9994 9.57252 7.40198 1.36209
160 1 -1.1104 15.9994 6.88368 7.32236 4.0077
161 1 -1.1104 15.9994 9.89796 7.20281 4.42788
162 1 -1.1104 15.9994 12.4325 4.49176 1.15219
163 1 -1.1104 15.9994 12.6978 4.69138 4.19327
164 1 -1.1104 15.9994 12.4947 7.40659 1.10738
165 1 -1.1104 15.9994 12.7767 7.47721 4.10037
166 1 -1.1104 15.9994 1.14337 10.5516 1.30549
167 1 -1.1104 15.9994 4.1063 10.1754 1.17429
168 1 -1.1104 15.9994 1.04944 7.44536 4.11747
169 1 -1.1104 15.9994 4.22419 10.2775 4.18168
170 1 -1.1104 15.9994 1.19182 13.3509 1.31585
171 1 -1.1104 15.9994 3.9328 13.0968 1.2628
172 1 -1.1104 15.9994 1.00696 13.1256 4.13193
173 1 -1.1104 15.9994 4.131 13.1721 3.95591
174 1 -1.1104 15.9994 6.88784 10.1438 1.12867
175 1 -1.1104 15.9994 9.70112 10.2274 1.15859
176 1 -1.1104 15.9994 6.96673 10.3937 3.8649
177 1 -1.1104 15.9994 9.64738 10.184 4.10524
178 1 -1.1104 15.9994 6.94459 13.0364 1.0494
179 1 -1.1104 15.9994 12.6405 12.7746 1.02729
180 1 -1.1104 15.9994 6.79404 13.2392 3.94589
181 1 -1.1104 15.9994 9.61215 13.1736 3.99961
182 1 -1.1104 15.9994 12.3799 9.91425 1.01189
183 1 -1.1104 15.9994 12.6091 10.0712 3.7301
677 1 -1.1104 15.9994 9.7701 13.1102 1.13043
185 1 -1.1104 15.9994 12.4251 12.8953 3.90462
186 1 -1.1104 15.9994 1.47362 16.3377 1.39897
187 1 -1.1104 15.9994 4.25433 15.8676 1.27753
188 1 -1.1104 15.9994 1.07045 15.5052 3.96475
189 1 -1.1104 15.9994 3.96857 15.9269 4.18838
190 1 -1.1104 15.9994 1.17029 19.0174 1.26063
191 1 -1.1104 15.9994 4.04756 18.7914 1.22501
192 1 -1.1104 15.9994 1.06623 19.0148 4.09644
193 1 -1.1104 15.9994 4.18439 18.6426 4.13401
194 1 -1.1104 15.9994 7.20775 16.1168 1.63789
195 1 -1.1104 15.9994 9.89128 15.9173 1.30397
196 1 -1.1104 15.9994 6.58464 16.3049 4.22352
197 1 -1.1104 15.9994 9.51524 16.1168 4.17305
198 1 -1.1104 15.9994 6.86826 18.845 1.07098
199 1 -1.1104 15.9994 9.86908 18.837 1.24779
200 1 -1.1104 15.9994 6.99474 18.9004 4.01108
201 1 -1.1104 15.9994 9.61903 18.759 4.09766
202 1 -1.1104 15.9994 12.5228 15.7726 1.25438
203 1 -1.1104 15.9994 12.5793 15.8001 4.08804
204 1 -1.1104 15.9994 12.5549 18.5529 1.39979
205 1 -1.1104 15.9994 12.5947 18.6021 4.23919
206 1 -1.1104 15.9994 0.990818 21.7521 1.17095
207 1 -1.1104 15.9994 3.79827 21.5334 1.29884
208 1 -1.1104 15.9994 1.3489 21.6449 4.0642
209 1 -1.1104 15.9994 4.14449 21.4118 3.93825
210 1 -1.1104 15.9994 6.88297 21.3785 1.40118
211 1 -1.1104 15.9994 9.89225 21.6449 1.07926
212 1 -1.1104 15.9994 6.95877 21.5966 4.0328
213 1 -1.1104 15.9994 9.67907 21.8022 4.00816
214 1 -1.1104 15.9994 12.7553 21.381 1.14635
215 1 -1.1104 15.9994 12.4685 21.6595 4.4135
216 1 -1.1104 15.9994 0.868501 -1.18258 6.85037
217 1 -1.1104 15.9994 3.60036 -0.956258 7.08954
218 1 -1.1104 15.9994 1.05353 -1.12713 12.5837
219 1 -1.1104 15.9994 3.55846 -1.33718 10.1002
220 1 -1.1104 15.9994 0.840198 1.8849 7.118
221 1 -1.1104 15.9994 3.83213 1.75163 7.04436
222 1 -1.1104 15.9994 0.941489 -0.932581 9.84113
223 1 -1.1104 15.9994 3.64149 1.69192 9.66215
224 1 -1.1104 15.9994 6.11959 -0.69309 7.04554
225 1 -1.1104 15.9994 9.51426 -0.840895 6.84635
226 1 -1.1104 15.9994 6.48611 -1.15017 9.87487
227 1 -1.1104 15.9994 9.52001 -0.903465 9.75129
228 1 -1.1104 15.9994 6.89475 1.7868 7.14373
229 1 -1.1104 15.9994 9.62432 1.93322 6.85717
230 1 -1.1104 15.9994 6.52994 1.54445 10.0996
231 1 -1.1104 15.9994 9.80827 1.7875 9.71686
232 1 -1.1104 15.9994 12.2781 -1.04214 6.84618
233 1 -1.1104 15.9994 12.2937 -0.84322 9.52601
234 1 -1.1104 15.9994 12.5711 1.72708 7.12244
235 1 -1.1104 15.9994 12.6195 1.82835 9.70381
236 1 -1.1104 15.9994 0.988234 4.9512 9.96264
237 1 -1.1104 15.9994 3.87271 4.55661 7.18032
238 1 -1.1104 15.9994 1.05617 1.90368 9.86405
239 1 -1.1104 15.9994 4.04018 4.52997 9.81525
240 1 -1.1104 15.9994 1.14796 4.80664 7.02695
241 1 -1.1104 15.9994 3.92534 7.39018 6.86716
242 1 -1.1104 15.9994 1.17865 7.52375 9.74794
243 1 -1.1104 15.9994 4.12033 7.22735 9.90331
244 1 -1.1104 15.9994 6.83269 4.48527 6.87368
245 1 -1.1104 15.9994 9.63639 4.95993 6.72012
246 1 -1.1104 15.9994 6.82782 4.39577 9.75992
247 1 -1.1104 15.9994 9.75907 5.03194 9.58526
248 1 -1.1104 15.9994 6.75578 7.40424 7.07815
249 1 -1.1104 15.9994 9.58408 7.53903 7.19941
250 1 -1.1104 15.9994 6.57727 7.32712 9.66844
251 1 -1.1104 15.9994 9.27801 7.66885 9.84298
252 1 -1.1104 15.9994 12.4327 4.51995 6.93329
253 1 -1.1104 15.9994 12.4719 4.58837 9.78176
254 1 -1.1104 15.9994 12.7598 7.65983 6.82398
255 1 -1.1104 15.9994 12.4095 7.49016 9.45442
256 1 -1.1104 15.9994 1.06028 10.3023 7.01681
257 1 -1.1104 15.9994 4.06689 10.2302 6.99373
258 1 -1.1104 15.9994 1.11613 10.4351 9.84855
259 1 -1.1104 15.9994 4.02017 9.87555 9.77172
260 1 -1.1104 15.9994 1.32008 13.2039 6.79968
261 1 -1.1104 15.9994 3.94652 12.9857 7.03917
262 1 -1.1104 15.9994 1.0115 13.1341 9.80922
263 1 -1.1104 15.9994 3.83311 12.9165 9.73089
264 1 -1.1104 15.9994 6.87414 10.1265 6.76255
265 1 -1.1104 15.9994 9.636 10.3887 7.01337
266 1 -1.1104 15.9994 6.80613 10.2362 9.76916
267 1 -1.1104 15.9994 9.69829 10.4266 9.61406
268 1 -1.1104 15.9994 6.99823 13.3209 6.84293
269 1 -1.1104 15.9994 9.68146 13.1202 6.77339
270 1 -1.1104 15.9994 6.80742 13.2026 9.65714
271 1 -1.1104 15.9994 9.83428 13.0143 9.61148
272 1 -1.1104 15.9994 12.4217 10.3967 6.62432
273 1 -1.1104 15.9994 12.4449 10.1685 9.41945
274 1 -1.1104 15.9994 12.443 13.198 7.06477
275 1 -1.1104 15.9994 12.3802 12.9034 9.77843
276 1 -1.1104 15.9994 1.22292 16.0462 6.95295
277 1 -1.1104 15.9994 3.78939 15.8389 6.91856
278 1 -1.1104 15.9994 0.930505 16.025 9.62945
279 1 -1.1104 15.9994 3.69338 15.7633 9.79735
280 1 -1.1104 15.9994 1.14924 18.8954 6.97451
281 1 -1.1104 15.9994 3.97091 18.6988 6.8045
282 1 -1.1104 15.9994 1.28043 18.8198 9.56804
283 1 -1.1104 15.9994 4.21986 18.5309 9.8133
284 1 -1.1104 15.9994 6.82654 15.8821 7.00721
285 1 -1.1104 15.9994 9.53773 15.9943 7.12418
286 1 -1.1104 15.9994 6.641 15.889 9.82192
287 1 -1.1104 15.9994 9.45621 15.9108 9.97495
288 1 -1.1104 15.9994 6.81122 18.8633 7.01859
289 1 -1.1104 15.9994 9.48205 18.8158 7.04871
290 1 -1.1104 15.9994 6.97603 18.6287 9.82633
291 1 -1.1104 15.9994 9.90595 18.5733 9.64547
292 1 -1.1104 15.9994 12.3142 15.9802 6.87512
293 1 -1.1104 15.9994 12.596 15.6533 9.796
294 1 -1.1104 15.9994 12.1912 18.797 6.8512
295 1 -1.1104 15.9994 12.5803 18.6844 9.90241
296 1 -1.1104 15.9994 1.26451 21.705 7.02127
297 1 -1.1104 15.9994 4.06403 21.4339 6.93362
298 1 -1.1104 15.9994 1.43477 21.6335 9.80458
299 1 -1.1104 15.9994 4.27652 21.694 9.78591
300 1 -1.1104 15.9994 6.91733 21.8233 6.99126
301 1 -1.1104 15.9994 9.70329 21.4771 6.95171
302 1 -1.1104 15.9994 6.70272 21.5585 9.85573
303 1 -1.1104 15.9994 9.51901 21.2029 9.88304
304 1 -1.1104 15.9994 12.5447 21.3909 6.97653
305 1 -1.1104 15.9994 12.329 21.4485 9.69219
57 2 2.2208 232.038 8.21527 -2.24454 8.34597
307 1 -1.1104 15.9994 3.99465 -1.04206 12.9058
308 1 -1.1104 15.9994 1.52692 1.54827 12.8386
309 1 -1.1104 15.9994 4.11789 1.65589 12.3758
310 1 -1.1104 15.9994 6.79674 -1.07751 12.7113
311 1 -1.1104 15.9994 9.57955 -0.849706 12.684
312 1 -1.1104 15.9994 6.83796 2.00124 12.8521
313 1 -1.1104 15.9994 9.57979 1.89774 12.8014
314 1 -1.1104 15.9994 12.4838 -0.959557 12.6064
315 1 -1.1104 15.9994 12.315 1.91406 12.557
316 1 -1.1104 15.9994 1.0616 4.21349 12.7602
317 1 -1.1104 15.9994 3.93599 4.53723 12.6071
9042 2 2.2208 232.038 13.9163 3.39241 8.40031
8992 2 2.2208 232.038 13.8008 3.18937 2.58191
325 2 2.2208 232.038 5.15971 3.16474 -0.203537
659 2 2.2208 232.038 2.39854 0.360352 0.0111653
2 2 2.2208 232.038 13.7813 20.0399 8.38815
9677 2 2.2208 232.038 13.9285 0.271469 -0.0701667
26 2 2.2208 232.038 8.34899 11.5924 -0.210098
663 2 2.2208 232.038 2.33477 6.02885 -0.0395143
667 2 2.2208 232.038 13.7711 17.1643 0.0220559
53 2 2.2208 232.038 2.52769 -2.45812 8.45717
1 2 2.2208 232.038 13.8552 22.884 5.52295
670 2 2.2208 232.038 5.59404 14.3859 -0.123406
344 2 2.2208 232.038 5.39276 17.2698 13.9299
24 2 2.2208 232.038 -0.0985115 11.8105 2.43326
328 2 2.2208 232.038 8.34418 -2.54632 13.8626
9096 2 2.2208 232.038 13.8218 17.1744 11.2187
8983 2 2.2208 232.038 -0.146092 8.98073 11.2644
9031 2 2.2208 232.038 13.8034 0.4238 5.60913
6 2 2.2208 232.038 13.8294 17.239 5.55903
341 2 2.2208 232.038 2.80421 14.3571 13.8378
668 2 2.2208 232.038 -0.244985 14.6295 -0.1696
9081 2 2.2208 232.038 13.7553 0.322639 11.0912
9319 2 2.2208 232.038 13.8158 3.13772 13.7699
661 2 2.2208 232.038 8.18191 0.426661 -0.149299
121 2 2.2208 232.038 -0.217818 20.2645 11.0119
34 2 2.2208 232.038 -0.124986 17.2919 2.55677
94 2 2.2208 232.038 -0.190482 23.2078 8.08647
346 2 2.2208 232.038 2.30241 19.9797 13.8398
669 2 2.2208 232.038 2.61728 17.3092 -0.111259
16 2 2.2208 232.038 8.12983 5.89783 -0.162801
15 2 2.2208 232.038 13.908 14.4098 2.68823
9663 2 2.2208 232.038 -0.19717 11.6399 13.8609
671 2 2.2208 232.038 8.19941 17.4111 -0.199293
9688 2 2.2208 232.038 -0.163638 8.7481 -0.21342
675 2 2.2208 232.038 5.36307 20.2334 -0.0853364
9666 2 2.2208 232.038 -0.101095 0.450542 19.7123
327 1 -1.1104 15.9994 6.6733 21.5019 26.9137
9369 2 2.2208 232.038 13.8859 17.3905 16.8569
330 2 2.2208 232.038 10.9161 0.451158 14.0213
355 2 2.2208 232.038 5.47797 -2.50573 16.8476
407 2 2.2208 232.038 7.99314 -2.38485 25.2637
332 1 -1.1104 15.9994 9.37104 21.5964 23.913
9400 2 2.2208 232.038 13.9454 3.03079 25.3563
9334 2 2.2208 232.038 13.8149 20.0535 14.0101
348 2 2.2208 232.038 8.03858 20.1154 14.2442
647 1 -1.1104 15.9994 4.08434 16.0498 23.8543
337 1 -1.1104 15.9994 6.27807 21.3803 23.9634
353 2 2.2208 232.038 2.54174 -2.26469 19.5412
345 2 2.2208 232.038 11.1155 17.2278 14.0613
665 2 2.2208 232.038 13.8263 22.7813 28.0039
359 2 2.2208 232.038 11.2487 -2.1451 16.6854
342 1 -1.1104 15.9994 3.8972 21.7024 26.4857
339 2 2.2208 232.038 5.64584 11.6379 14.0263
9669 2 2.2208 232.038 -0.159919 8.95074 16.9799
374 2 2.2208 232.038 11.21 20.154 28.1377
650 1 -1.1104 15.9994 1.22567 18.4535 23.8441
646 1 -1.1104 15.9994 1.18023 15.7378 24.113
326 2 2.2208 232.038 2.32259 -2.35919 14.1056
9673 2 2.2208 232.038 -0.173193 3.29382 22.5335
649 1 -1.1104 15.9994 3.97958 15.7717 26.9516
351 1 -1.1104 15.9994 1.2222 21.4229 26.7428
352 2 2.2208 232.038 2.65285 0.434522 16.8604
405 2 2.2208 232.038 5.25453 -2.42531 22.5199
354 1 -1.1104 15.9994 3.92748 18.9556 24.0214
9340 2 2.2208 232.038 13.7692 -2.33258 19.7967
356 2 2.2208 232.038 8.23357 0.310278 16.7883
652 1 -1.1104 15.9994 0.926287 18.5689 26.8243
358 2 2.2208 232.038 5.44856 0.404589 19.847
666 2 2.2208 232.038 2.63131 11.7514 28.0851
360 2 2.2208 232.038 11.0302 0.315022 19.6427
361 1 -1.1104 15.9994 1.62217 21.1912 23.6748
362 2 2.2208 232.038 2.71411 5.79968 16.7954
363 2 2.2208 232.038 2.58348 3.42415 19.7937
364 1 -1.1104 15.9994 12.5564 18.697 26.94
365 2 2.2208 232.038 5.57947 3.21452 16.9133
366 2 2.2208 232.038 8.33364 6.0106 16.9476
367 2 2.2208 232.038 8.24605 3.17678 19.75
368 2 2.2208 232.038 5.45995 6.33329 19.5553
369 2 2.2208 232.038 11.0973 3.1713 16.6342
370 2 2.2208 232.038 11.2508 6.00404 19.7288
371 1 -1.1104 15.9994 12.2973 18.8988 24.2089
372 2 2.2208 232.038 2.81722 11.4751 16.8042
373 2 2.2208 232.038 2.60323 8.9873 19.6164
9671 2 2.2208 232.038 -0.205828 -2.37279 22.4921
375 2 2.2208 232.038 5.446 8.95577 16.7233
376 2 2.2208 232.038 8.37187 11.6238 16.7655
377 2 2.2208 232.038 8.19658 8.9432 19.7828
378 2 2.2208 232.038 5.40877 11.686 19.5866
379 2 2.2208 232.038 11.2355 8.66111 16.8291
380 2 2.2208 232.038 11.0549 11.4956 19.5967
381 1 -1.1104 15.9994 12.8008 15.7502 26.7041
382 2 2.2208 232.038 2.66508 17.1356 16.6953
383 2 2.2208 232.038 2.68099 14.5937 19.6439
656 1 -1.1104 15.9994 6.82557 15.9369 26.9081
385 2 2.2208 232.038 5.58302 14.3228 16.8016
386 2 2.2208 232.038 8.28671 17.334 16.8054
387 2 2.2208 232.038 8.22115 14.5516 19.6298
388 2 2.2208 232.038 5.4467 17.1136 19.8118
389 2 2.2208 232.038 11.1052 14.3968 16.7458
390 2 2.2208 232.038 11.0113 17.246 19.6477
391 1 -1.1104 15.9994 12.4366 21.4705 26.5825
392 2 2.2208 232.038 2.5451 22.7896 16.6421
393 2 2.2208 232.038 2.76452 19.8438 19.7061
657 2 2.2208 232.038 13.9693 23.0179 22.583
395 2 2.2208 232.038 5.43074 20.0182 16.7394
396 2 2.2208 232.038 8.23685 22.8781 16.8811
397 2 2.2208 232.038 8.20394 20.073 19.5779
398 2 2.2208 232.038 5.68664 22.9374 19.7772
399 2 2.2208 232.038 11.1047 19.9295 16.9067
400 2 2.2208 232.038 11.3042 22.8233 19.6088
401 1 -1.1104 15.9994 12.4837 15.8261 23.7114
402 2 2.2208 232.038 2.73731 0.395518 22.5002
655 1 -1.1104 15.9994 9.54142 15.5467 24.0512
404 1 -1.1104 15.9994 9.79353 15.666 26.8572
9379 2 2.2208 232.038 13.8717 22.697 17.0629
406 2 2.2208 232.038 8.16398 0.275454 22.5417
654 1 -1.1104 15.9994 6.84338 15.8121 23.8143
408 2 2.2208 232.038 5.27281 0.531336 25.1782
648 1 -1.1104 15.9994 1.28561 15.9122 26.8814
410 2 2.2208 232.038 10.7915 0.430013 25.3574
411 1 -1.1104 15.9994 6.79449 18.6941 26.6448
412 2 2.2208 232.038 2.48074 6.22302 22.5233
413 2 2.2208 232.038 2.43301 3.13844 25.4019
414 1 -1.1104 15.9994 9.75946 18.3643 26.4889
415 2 2.2208 232.038 5.24293 3.40201 22.447
416 2 2.2208 232.038 7.9733 6.1041 22.4902
417 2 2.2208 232.038 8.16475 3.09994 25.4044
418 2 2.2208 232.038 5.29775 6.09316 25.4729
419 2 2.2208 232.038 10.9805 3.28714 22.5133
420 2 2.2208 232.038 11.0471 5.86637 25.2459
421 1 -1.1104 15.9994 9.64439 18.6946 23.7323
422 2 2.2208 232.038 2.56975 11.7947 22.521
423 2 2.2208 232.038 2.63977 9.01211 25.3301
424 1 -1.1104 15.9994 9.87421 12.903 26.7466
425 2 2.2208 232.038 5.34503 8.89478 22.4774
426 2 2.2208 232.038 8.31248 11.7335 22.5093
427 2 2.2208 232.038 8.14689 8.83184 25.2317
428 2 2.2208 232.038 5.53492 11.5644 25.2446
429 2 2.2208 232.038 10.8593 8.70598 22.4503
430 2 2.2208 232.038 10.9785 11.5413 25.4105
658 2 2.2208 232.038 13.9284 20.2507 25.2811
432 2 2.2208 232.038 2.61633 17.1201 22.5388
433 2 2.2208 232.038 2.60237 14.2832 25.4976
645 1 -1.1104 15.9994 12.6514 12.7857 26.6839
435 2 2.2208 232.038 5.68081 14.3567 22.5172
436 2 2.2208 232.038 8.34951 17.1782 22.5683
437 2 2.2208 232.038 8.28744 14.4276 25.4111
438 2 2.2208 232.038 5.38128 17.2835 25.4151
439 2 2.2208 232.038 11.0962 14.3433 22.5012
440 2 2.2208 232.038 11.2314 17.3217 25.329
651 1 -1.1104 15.9994 6.74053 18.4066 23.8
442 1 -1.1104 15.9994 12.432 21.9114 23.8246
443 2 2.2208 232.038 2.3614 19.9203 25.3487
653 1 -1.1104 15.9994 3.99686 18.7216 26.7173
445 2 2.2208 232.038 5.30284 19.9816 22.5466
446 2 2.2208 232.038 8.32611 23.0817 22.5065
447 2 2.2208 232.038 8.30957 19.9833 25.3009
448 2 2.2208 232.038 5.49496 22.9821 25.5826
449 2 2.2208 232.038 10.9725 20.1239 22.4304
450 2 2.2208 232.038 10.984 23.0203 25.2694
451 1 -1.1104 15.9994 1.18543 -0.769356 15.5491
452 1 -1.1104 15.9994 3.97512 -1.02462 15.6408
453 1 -1.1104 15.9994 1.36713 1.94837 15.5969
454 1 -1.1104 15.9994 4.08986 1.89283 15.4632
455 1 -1.1104 15.9994 6.81396 -1.08386 15.4619
456 1 -1.1104 15.9994 9.58548 -1.05171 15.4177
457 1 -1.1104 15.9994 6.69085 1.69735 15.3451
458 1 -1.1104 15.9994 9.61197 1.85847 15.5199
459 1 -1.1104 15.9994 12.2903 -0.620493 15.472
460 1 -1.1104 15.9994 12.4898 2.07042 15.2872
461 1 -1.1104 15.9994 1.41606 4.6678 15.2941
462 1 -1.1104 15.9994 3.98443 4.59942 15.3925
463 1 -1.1104 15.9994 1.15537 7.27745 15.5329
464 1 -1.1104 15.9994 4.09357 7.58296 15.4594
465 1 -1.1104 15.9994 6.87995 4.75642 15.3495
466 1 -1.1104 15.9994 9.63476 4.73815 15.5683
467 1 -1.1104 15.9994 6.84686 7.51391 15.4026
468 1 -1.1104 15.9994 9.66322 7.60173 15.5554
469 1 -1.1104 15.9994 12.5781 4.66207 15.333
470 1 -1.1104 15.9994 12.4592 7.38375 15.4211
471 1 -1.1104 15.9994 1.20875 9.97621 15.3402
472 1 -1.1104 15.9994 4.14076 10.2413 15.4762
473 1 -1.1104 15.9994 1.33292 12.8122 15.4485
474 1 -1.1104 15.9994 4.14457 13.0171 15.3749
475 1 -1.1104 15.9994 6.84887 10.2384 15.5234
476 1 -1.1104 15.9994 9.69563 10.3545 15.387
477 1 -1.1104 15.9994 7.24868 13.0321 15.4743
478 1 -1.1104 15.9994 9.80814 13.0876 15.0999
479 1 -1.1104 15.9994 12.8413 10.2048 15.1114
480 1 -1.1104 15.9994 12.5285 13.0378 15.3069
481 1 -1.1104 15.9994 1.47509 15.6558 15.1984
482 1 -1.1104 15.9994 4.24904 15.6848 15.3385
483 1 -1.1104 15.9994 1.12652 18.2035 15.2236
484 1 -1.1104 15.9994 3.78765 18.6039 15.3177
485 1 -1.1104 15.9994 6.89143 15.8301 15.436
486 1 -1.1104 15.9994 9.88506 15.7203 15.3002
487 1 -1.1104 15.9994 6.83114 18.4241 15.3057
488 1 -1.1104 15.9994 9.56048 18.4132 15.5217
489 1 -1.1104 15.9994 12.5688 16.0243 15.4174
490 1 -1.1104 15.9994 12.481 18.863 15.37
491 1 -1.1104 15.9994 1.24207 21.5182 15.2716
492 1 -1.1104 15.9994 4.10858 21.6196 15.3398
493 1 -1.1104 15.9994 6.69586 21.4563 15.528
494 1 -1.1104 15.9994 9.4724 21.3208 15.5836
495 1 -1.1104 15.9994 12.5098 21.6126 15.2354
496 1 -1.1104 15.9994 0.991114 -0.859069 18.3658
497 1 -1.1104 15.9994 4.01637 -0.826522 18.3544
498 1 -1.1104 15.9994 1.29679 -0.823344 21.1018
499 1 -1.1104 15.9994 4.20011 -0.928431 21.268
500 1 -1.1104 15.9994 1.39607 1.80182 18.2335
501 1 -1.1104 15.9994 4.14172 2.0261 18.0375
502 1 -1.1104 15.9994 1.18355 1.9376 21.1667
503 1 -1.1104 15.9994 3.96035 1.9715 20.8778
504 1 -1.1104 15.9994 6.62189 -1.16182 18.7192
505 1 -1.1104 15.9994 9.58615 -1.08328 18.0778
506 1 -1.1104 15.9994 6.97502 -0.955273 21.0385
507 1 -1.1104 15.9994 9.77565 -1.37838 20.846
508 1 -1.1104 15.9994 7.18389 1.52712 18.2277
509 1 -1.1104 15.9994 9.70736 1.96069 18.3264
510 1 -1.1104 15.9994 6.80367 1.89063 21.0833
511 1 -1.1104 15.9994 9.57646 1.75139 21.2982
512 1 -1.1104 15.9994 12.4512 -1.12213 18.3636
513 1 -1.1104 15.9994 12.392 -0.986143 21.0972
514 1 -1.1104 15.9994 12.7828 1.59232 18.1656
515 1 -1.1104 15.9994 12.2436 2.03115 20.8076
516 1 -1.1104 15.9994 1.24098 4.65712 18.1509
517 1 -1.1104 15.9994 4.17888 4.7905 18.2389
518 1 -1.1104 15.9994 0.927422 4.76533 21.1205
519 1 -1.1104 15.9994 3.61524 5.01159 21.0663
520 1 -1.1104 15.9994 1.2297 7.57413 18.5138
521 1 -1.1104 15.9994 3.8622 7.34708 18.4073
522 1 -1.1104 15.9994 1.29605 7.46328 21.1821
523 1 -1.1104 15.9994 4.28791 7.56628 20.9641
524 1 -1.1104 15.9994 7.03846 4.48627 18.2066
525 1 -1.1104 15.9994 9.95801 4.70483 18.2427
526 1 -1.1104 15.9994 6.41551 4.78175 21.1058
527 1 -1.1104 15.9994 9.62269 4.59366 21.1376
528 1 -1.1104 15.9994 6.7775 7.45124 18.1717
529 1 -1.1104 15.9994 9.56459 7.2692 18.7432
530 1 -1.1104 15.9994 6.78789 7.46162 21.0675
531 1 -1.1104 15.9994 9.70682 7.54454 21.2461
532 1 -1.1104 15.9994 12.6159 4.58941 18.0655
533 1 -1.1104 15.9994 12.5401 4.64373 21.0346
534 1 -1.1104 15.9994 12.6185 7.3412 18.2114
535 1 -1.1104 15.9994 12.4188 7.36565 21.1643
536 1 -1.1104 15.9994 1.26394 10.2994 18.1883
537 1 -1.1104 15.9994 4.14453 10.1777 18.3824
538 1 -1.1104 15.9994 1.39244 10.4303 21.0852
539 1 -1.1104 15.9994 3.97673 10.3799 21.0488
540 1 -1.1104 15.9994 1.22495 13.0572 18.4598
541 1 -1.1104 15.9994 4.17364 13.0642 18.2845
542 1 -1.1104 15.9994 1.34304 13.0272 21.0416
543 1 -1.1104 15.9994 4.14713 12.925 21.2927
544 1 -1.1104 15.9994 6.97732 10.1317 18.2395
545 1 -1.1104 15.9994 9.78453 10.0557 18.2235
546 1 -1.1104 15.9994 6.63208 10.2109 21.1551
547 1 -1.1104 15.9994 9.68186 10.2413 21.0953
548 1 -1.1104 15.9994 6.93351 12.9806 18.2676
549 1 -1.1104 15.9994 9.59021 13.1421 18.1192
550 1 -1.1104 15.9994 6.99991 12.9656 21.0129
551 1 -1.1104 15.9994 9.64602 13.0908 20.9047
552 1 -1.1104 15.9994 12.5457 10.1772 17.7944
553 1 -1.1104 15.9994 12.387 9.99553 20.6902
554 1 -1.1104 15.9994 12.2713 13.122 18.2383
555 1 -1.1104 15.9994 12.5455 12.9664 20.9232
556 1 -1.1104 15.9994 1.16096 15.6067 18.1206
557 1 -1.1104 15.9994 4.00921 15.8256 18.0915
558 1 -1.1104 15.9994 1.0209 15.8855 21.0076
559 1 -1.1104 15.9994 4.04181 15.5822 20.8148
560 1 -1.1104 15.9994 1.78159 18.4263 18.2957
561 1 -1.1104 15.9994 4.44077 18.8165 18.3465
562 1 -1.1104 15.9994 1.29834 18.6827 21.0959
563 1 -1.1104 15.9994 3.82554 18.3215 21.1184
564 1 -1.1104 15.9994 6.9609 15.8111 18.1543
565 1 -1.1104 15.9994 9.53104 15.7807 18.0969
566 1 -1.1104 15.9994 6.8842 15.821 21.1033
567 1 -1.1104 15.9994 9.58675 15.9054 20.9941
568 1 -1.1104 15.9994 7.04966 18.812 18.0122
569 1 -1.1104 15.9994 9.63285 18.8207 18.2185
570 1 -1.1104 15.9994 6.77043 18.747 20.9452
571 1 -1.1104 15.9994 9.52009 18.7095 20.9095
572 1 -1.1104 15.9994 12.2634 15.7672 18.1273
573 1 -1.1104 15.9994 12.4409 15.6217 21.09
574 1 -1.1104 15.9994 12.4876 18.5333 18.3907
575 1 -1.1104 15.9994 12.3807 18.6759 21.0836
576 1 -1.1104 15.9994 0.960374 21.0561 20.2096
577 1 -1.1104 15.9994 3.58895 21.346 18.2858
644 1 -1.1104 15.9994 12.6549 12.8516 23.9277
579 1 -1.1104 15.9994 4.0313 21.4297 20.9921
580 1 -1.1104 15.9994 6.95128 21.4726 18.1941
581 1 -1.1104 15.9994 9.88784 21.3663 18.3277
582 1 -1.1104 15.9994 6.88311 21.5532 21.1386
583 1 -1.1104 15.9994 9.65362 21.5269 21.1854
584 1 -1.1104 15.9994 12.4532 21.3198 18.2185
585 1 -1.1104 15.9994 12.5658 21.4402 20.9643
586 1 -1.1104 15.9994 1.17372 -0.97124 24.039
587 1 -1.1104 15.9994 3.94967 -0.998249 24.1465
588 1 -1.1104 15.9994 1.02764 -0.936081 27.1296
589 1 -1.1104 15.9994 3.86961 -0.95047 26.9709
590 1 -1.1104 15.9994 1.25945 1.63083 23.9618
591 1 -1.1104 15.9994 4.0843 1.83176 23.8915
592 1 -1.1104 15.9994 0.9721 2.05463 27.0648
593 1 -1.1104 15.9994 3.77945 1.74338 26.7273
594 1 -1.1104 15.9994 6.61334 -1.0902 23.7918
595 1 -1.1104 15.9994 9.38344 -1.10281 23.9143
596 1 -1.1104 15.9994 6.65322 -0.95731 26.4722
597 1 -1.1104 15.9994 9.5941 -0.967574 26.8432
598 1 -1.1104 15.9994 6.91454 1.8422 23.8564
599 1 -1.1104 15.9994 9.40036 1.67084 23.8225
600 1 -1.1104 15.9994 6.70845 1.78507 26.7505
601 1 -1.1104 15.9994 9.53079 1.68469 26.726
602 1 -1.1104 15.9994 12.1472 -1.20419 23.8503
603 1 -1.1104 15.9994 12.4099 -0.922388 26.7899
604 1 -1.1104 15.9994 12.4689 1.47259 23.6469
605 1 -1.1104 15.9994 12.3199 1.76074 26.6983
606 1 -1.1104 15.9994 0.993762 4.83542 23.8916
607 1 -1.1104 15.9994 3.80115 4.47929 23.7038
608 1 -1.1104 15.9994 1.0252 4.94329 26.9068
609 1 -1.1104 15.9994 3.82112 4.44487 26.6109
610 1 -1.1104 15.9994 1.36636 7.52649 24.0006
611 1 -1.1104 15.9994 4.00581 7.60088 24.1356
612 1 -1.1104 15.9994 1.07475 7.41833 26.6145
613 1 -1.1104 15.9994 4.0093 7.09744 27.1083
614 1 -1.1104 15.9994 6.67873 4.78831 24.1289
615 1 -1.1104 15.9994 9.72967 4.60751 23.8885
616 1 -1.1104 15.9994 6.84762 4.50915 26.9653
617 1 -1.1104 15.9994 9.57744 4.35551 26.7216
618 1 -1.1104 15.9994 6.65512 7.39784 23.9848
619 1 -1.1104 15.9994 9.74311 7.18914 23.8675
620 1 -1.1104 15.9994 6.91404 7.49952 26.8605
621 1 -1.1104 15.9994 9.80521 7.07169 26.7724
622 1 -1.1104 15.9994 12.4711 4.41174 23.962
623 1 -1.1104 15.9994 12.3428 4.47897 26.8112
624 1 -1.1104 15.9994 12.7048 7.33876 23.9372