ITEM: TIMESTEP
130000
ITEM: NUMBER OF ATOMS
18000
ITEM: BOX BOUNDS xy xz yz pp pp pp
-2.2215081622764549e-01 2.8116150816227137e+01 0.0000000000000000e+00
-2.6682273430501651e+00 3.3739622734303794e+02 0.0000000000000000e+00
-2.2915006560986081e-01 2.8123150065609803e+01 0.0000000000000000e+00
ITEM: ATOMS id type q mass x y z
341 2 2.2208 232.038 2.74691 14.3964 13.8217
324 1 -1.1104 15.9994 12.5043 4.32708 12.5579
9086 2 2.2208 232.038 13.7726 5.83222 11.0046
4 1 -1.1104 15.9994 12.4168 21.8005 12.4431
323 1 -1.1104 15.9994 9.65159 7.02728 12.5405
322 1 -1.1104 15.9994 6.96527 7.07399 12.0555
666 2 2.2208 232.038 2.47465 11.1577 -0.053036
8 2 2.2208 232.038 5.59685 0.422927 2.71548
9 1 -1.1104 15.9994 12.4143 7.08318 12.578
10 2 2.2208 232.038 11.2433 0.2366 2.32368
11 1 -1.1104 15.9994 9.77468 21.2135 12.5116
321 1 -1.1104 15.9994 9.61688 4.10058 12.2418
13 2 2.2208 232.038 2.54031 3.21971 2.51004
14 1 -1.1104 15.9994 6.66957 21.4041 12.4487
9101 2 2.2208 232.038 13.8271 22.88 11.0044
15 2 2.2208 232.038 13.7536 14.5797 2.65477
17 2 2.2208 232.038 8.26878 2.98778 2.34919
18 2 2.2208 232.038 5.39001 5.99488 2.41362
7 2 2.2208 232.038 7.96027 -2.64841 2.6992
20 2 2.2208 232.038 10.8919 6.1915 2.53063
21 1 -1.1104 15.9994 3.97045 21.8102 12.4544
22 1 -1.1104 15.9994 1.08486 15.6399 12.7412
23 2 2.2208 232.038 2.33737 8.64494 2.59362
320 1 -1.1104 15.9994 6.96949 4.31693 12.4617
348 2 2.2208 232.038 8.25762 20.0335 13.8607
343 2 2.2208 232.038 8.16339 14.1927 13.7778
27 2 2.2208 232.038 8.04917 8.86963 2.54335
28 2 2.2208 232.038 5.30799 11.3849 2.65687
103 2 2.2208 232.038 5.39242 -2.59363 11.3529
30 2 2.2208 232.038 11.1336 11.6961 2.49181
31 1 -1.1104 15.9994 12.437 12.9687 12.6846
32 1 -1.1104 15.9994 12.45 9.86462 12.4707
33 2 2.2208 232.038 2.36325 14.2076 2.53973
9004 2 2.2208 232.038 -0.21665 5.96169 2.4811
35 1 -1.1104 15.9994 9.68442 12.624 12.5908
36 1 -1.1104 15.9994 6.91857 12.6548 12.423
37 2 2.2208 232.038 8.0117 14.1767 2.46104
38 2 2.2208 232.038 5.36447 16.89 2.5886
39 1 -1.1104 15.9994 9.85322 9.81103 12.3416
40 2 2.2208 232.038 10.9206 16.9845 2.51788
41 1 -1.1104 15.9994 6.79016 10.0551 12.3092
42 1 -1.1104 15.9994 4.07772 13.1453 12.5657
43 2 2.2208 232.038 2.29115 19.9027 2.57316
319 1 -1.1104 15.9994 4.30275 7.13796 12.41
45 1 -1.1104 15.9994 1.12909 12.766 12.5583
46 1 -1.1104 15.9994 3.83444 10.0466 12.3042
47 2 2.2208 232.038 8.0494 19.9543 2.51153
48 2 2.2208 232.038 5.14074 22.9519 2.74221
49 1 -1.1104 15.9994 1.20246 9.96194 12.3936
50 2 2.2208 232.038 10.8838 22.7747 2.59964
51 1 -1.1104 15.9994 1.17561 21.5277 12.7022
52 2 2.2208 232.038 2.78567 0.21063 5.29043
5 2 2.2208 232.038 13.9098 14.2502 8.24904
54 1 -1.1104 15.9994 12.7047 18.7258 12.3457
9041 2 2.2208 232.038 13.8219 5.86578 5.38558
56 2 2.2208 232.038 8.35922 0.0211859 5.34903
53 2 2.2208 232.038 2.57142 -2.59481 8.35251
58 2 2.2208 232.038 5.28412 0.1142 8.36311
336 2 2.2208 232.038 2.60949 8.65566 13.7521
60 2 2.2208 232.038 11.0308 -0.137347 8.4114
61 1 -1.1104 15.9994 12.7129 15.5284 12.0177
62 2 2.2208 232.038 2.5778 5.85607 5.39234
63 2 2.2208 232.038 2.52291 3.00712 8.36292
64 1 -1.1104 15.9994 10.0498 18.4248 12.5311
65 2 2.2208 232.038 5.4315 3.06745 5.18491
66 2 2.2208 232.038 8.21046 5.80643 5.35744
67 2 2.2208 232.038 8.03933 3.03477 7.96324
68 2 2.2208 232.038 5.50939 5.64401 8.06181
69 2 2.2208 232.038 11.0421 3.07438 5.20025
70 2 2.2208 232.038 10.9836 5.78973 8.10599
71 1 -1.1104 15.9994 6.85589 18.5279 12.654
72 2 2.2208 232.038 2.39666 11.3452 5.27891
73 2 2.2208 232.038 2.66061 8.75093 8.16153
74 1 -1.1104 15.9994 9.63585 15.7283 12.4996
75 2 2.2208 232.038 5.48315 8.41448 5.2288
76 2 2.2208 232.038 8.33459 11.492 5.43162
77 2 2.2208 232.038 8.24657 8.81155 8.2121
78 2 2.2208 232.038 5.43622 11.3001 8.08966
79 2 2.2208 232.038 10.9526 8.64358 5.32957
80 2 2.2208 232.038 11.1294 11.5024 8.40049
318 1 -1.1104 15.9994 1.45284 7.26889 12.4748
82 2 2.2208 232.038 2.40263 16.9763 5.31911
83 2 2.2208 232.038 2.72265 14.2287 8.16613
8983 2 2.2208 232.038 -0.21495 8.6306 11.0209
85 2 2.2208 232.038 5.34865 14.3805 5.29045
86 2 2.2208 232.038 8.32491 17.1471 5.415
87 2 2.2208 232.038 8.46979 14.4477 8.40185
88 2 2.2208 232.038 5.42791 17.0789 8.21795
89 2 2.2208 232.038 11.0318 14.353 5.49635
90 2 2.2208 232.038 11.1032 17.0445 8.16191
8998 2 2.2208 232.038 -0.218966 0.252014 8.2016
92 2 2.2208 232.038 2.55509 22.7595 5.37629
93 2 2.2208 232.038 2.63524 19.9293 8.29928
8992 2 2.2208 232.038 13.6831 3.03359 2.4799
95 2 2.2208 232.038 5.50975 19.765 5.37091
96 2 2.2208 232.038 7.80031 22.6491 5.42154
97 2 2.2208 232.038 8.41266 20.0323 8.44539
98 2 2.2208 232.038 5.3011 22.7233 8.38455
99 2 2.2208 232.038 10.9992 19.8681 5.24778
100 2 2.2208 232.038 11.0597 22.5687 8.24401
101 1 -1.1104 15.9994 6.75632 15.7182 12.6088
102 2 2.2208 232.038 2.68402 0.115294 11.1067
339 2 2.2208 232.038 5.32987 11.3404 13.7983
104 2 2.2208 232.038 8.23424 0.21185 11.1173
9161 1 -1.1104 15.9994 0.96349 10.2363 3.91563
106 1 -1.1104 15.9994 3.90893 19.0623 12.4943
107 2 2.2208 232.038 2.82952 5.7516 11.0385
108 2 2.2208 232.038 5.56476 3.05384 11.061
109 2 2.2208 232.038 8.40616 5.70669 10.7982
110 2 2.2208 232.038 11.081 2.9444 11.0869
111 1 -1.1104 15.9994 0.969628 18.6475 12.5145
112 2 2.2208 232.038 2.52139 11.4162 10.8211
113 2 2.2208 232.038 5.487 8.43279 10.8205
114 2 2.2208 232.038 8.25734 11.3853 11.216
115 2 2.2208 232.038 10.9991 8.61025 10.932
116 1 -1.1104 15.9994 3.86499 15.9102 12.1896
117 2 2.2208 232.038 2.46618 17.2454 11.2592
118 2 2.2208 232.038 5.73095 14.2278 10.9422
119 2 2.2208 232.038 8.25971 17.4132 10.9762
120 2 2.2208 232.038 11.1532 14.188 11.1818
333 2 2.2208 232.038 8.38294 2.82412 13.7086
122 2 2.2208 232.038 2.52781 22.9005 11.239
123 2 2.2208 232.038 5.32148 20.0702 11.1087
124 2 2.2208 232.038 8.10324 22.86 11.2104
125 2 2.2208 232.038 11.2128 20.0326 11.2183
126 1 -1.1104 15.9994 1.10589 -1.37891 0.957704
127 1 -1.1104 15.9994 4.14507 -1.34988 1.09048
128 1 -1.1104 15.9994 1.02095 -1.13722 3.79939
129 1 -1.1104 15.9994 4.14405 -1.1581 3.80053
130 1 -1.1104 15.9994 1.30508 1.59134 1.22598
131 1 -1.1104 15.9994 4.12104 1.52266 1.09398
132 1 -1.1104 15.9994 1.01595 1.76967 3.93406
133 1 -1.1104 15.9994 3.89491 1.69493 4.08613
134 1 -1.1104 15.9994 6.88779 -1.27581 1.23628
135 1 -1.1104 15.9994 9.76017 -1.07307 1.13204
136 1 -1.1104 15.9994 6.91084 -1.37865 4.2806
137 1 -1.1104 15.9994 9.62302 -1.50632 4.08125
138 1 -1.1104 15.9994 6.63533 1.55435 0.998805
139 1 -1.1104 15.9994 9.83739 1.50056 0.860773
140 1 -1.1104 15.9994 6.88901 1.51889 3.8828
141 1 -1.1104 15.9994 9.62698 1.30931 3.40404
142 1 -1.1104 15.9994 12.4578 -1.40046 1.37501
143 1 -1.1104 15.9994 12.3976 -1.0761 4.12739
144 1 -1.1104 15.9994 12.4103 1.74208 1.03449
145 1 -1.1104 15.9994 12.5032 1.74458 4.07428
146 1 -1.1104 15.9994 1.08469 4.39691 1.28392
147 1 -1.1104 15.9994 3.95679 4.55495 1.04866
148 1 -1.1104 15.9994 1.12933 4.66192 4.00499
149 1 -1.1104 15.9994 4.09424 4.49967 3.94275
150 1 -1.1104 15.9994 1.15338 7.20363 0.951899
151 1 -1.1104 15.9994 3.94798 7.29632 1.10315
152 1 -1.1104 15.9994 1.35392 7.18672 6.78169
153 1 -1.1104 15.9994 3.726 7.02779 3.7789
154 1 -1.1104 15.9994 6.86004 4.3438 0.932717
155 1 -1.1104 15.9994 9.60837 4.33709 0.950589
156 1 -1.1104 15.9994 7.04109 4.09366 3.93109
157 1 -1.1104 15.9994 9.58011 4.45587 3.88393
158 1 -1.1104 15.9994 6.73427 7.27657 0.802966
159 1 -1.1104 15.9994 9.63047 7.35017 0.778869
160 1 -1.1104 15.9994 6.85562 6.86212 3.7444
161 1 -1.1104 15.9994 9.55955 7.52133 3.94123
162 1 -1.1104 15.9994 12.5165 4.86822 1.46343
163 1 -1.1104 15.9994 12.4392 4.58524 4.12279
164 1 -1.1104 15.9994 12.3928 7.37631 0.967527
165 1 -1.1104 15.9994 12.3248 7.39893 4.03414
166 1 -1.1104 15.9994 0.974928 9.81153 1.07797
167 1 -1.1104 15.9994 3.79046 9.88022 1.18209
168 1 -1.1104 15.9994 1.17084 7.38596 4.04287
169 1 -1.1104 15.9994 3.86521 9.73911 3.8295
170 1 -1.1104 15.9994 1.06781 12.8211 1.06057
171 1 -1.1104 15.9994 3.92716 12.6873 1.22279
172 1 -1.1104 15.9994 1.01571 12.8481 3.71864
173 1 -1.1104 15.9994 3.71927 12.6543 3.95188
174 1 -1.1104 15.9994 6.6603 10.2231 1.00023
175 1 -1.1104 15.9994 9.38757 9.99475 0.968797
176 1 -1.1104 15.9994 6.71059 10.0228 3.9811
177 1 -1.1104 15.9994 9.48268 10.0088 3.92465
178 1 -1.1104 15.9994 6.65474 12.828 1.09875
179 1 -1.1104 15.9994 9.47489 13.0516 1.20954
180 1 -1.1104 15.9994 7.01655 12.7169 4.01934
181 1 -1.1104 15.9994 9.87415 12.8178 3.92847
182 1 -1.1104 15.9994 12.6363 10.3505 1.31773
183 1 -1.1104 15.9994 12.5374 10.1822 3.96526
184 1 -1.1104 15.9994 12.0786 13.0105 0.87317
185 1 -1.1104 15.9994 12.7857 12.9351 3.58963
186 1 -1.1104 15.9994 1.23275 15.978 1.50164
187 1 -1.1104 15.9994 4.00764 15.6874 1.32991
188 1 -1.1104 15.9994 0.92998 15.6037 4.13981
189 1 -1.1104 15.9994 3.85071 15.2676 3.84043
190 1 -1.1104 15.9994 0.820116 18.6954 0.902688
191 1 -1.1104 15.9994 3.75719 18.4808 1.30808
192 1 -1.1104 15.9994 1.20509 18.4225 4.01711
193 1 -1.1104 15.9994 4.18817 18.3199 4.0198
194 1 -1.1104 15.9994 6.82757 15.6406 1.03987
195 1 -1.1104 15.9994 9.63481 15.6731 1.18093
196 1 -1.1104 15.9994 6.79549 15.4841 3.9631
197 1 -1.1104 15.9994 9.41057 15.785 4.01093
198 1 -1.1104 15.9994 6.73144 18.5222 1.37313
199 1 -1.1104 15.9994 9.55277 18.7312 1.20619
200 1 -1.1104 15.9994 7.01262 18.4332 4.08143
201 1 -1.1104 15.9994 9.94384 18.4599 3.85963
202 1 -1.1104 15.9994 12.26 15.8662 1.10622
203 1 -1.1104 15.9994 12.16 15.4862 3.85303
204 1 -1.1104 15.9994 12.5338 18.4605 1.20449
205 1 -1.1104 15.9994 12.6871 18.2561 3.70469
206 1 -1.1104 15.9994 0.959579 21.2967 1.28929
207 1 -1.1104 15.9994 3.60483 21.1958 1.15826
208 1 -1.1104 15.9994 0.906094 21.1635 3.99369
209 1 -1.1104 15.9994 3.76106 21.199 3.98914
210 1 -1.1104 15.9994 6.32696 21.5818 1.28608
211 1 -1.1104 15.9994 9.19984 21.5085 1.23425
212 1 -1.1104 15.9994 6.84998 21.5263 3.73943
213 1 -1.1104 15.9994 9.37383 21.2559 3.77211
214 1 -1.1104 15.9994 12.3903 21.2685 1.19683
215 1 -1.1104 15.9994 12.3599 21.0856 3.84934
216 1 -1.1104 15.9994 1.28829 -1.18045 6.82599
217 1 -1.1104 15.9994 4.054 -1.25565 7.02986
218 1 -1.1104 15.9994 1.05423 -1.0238 12.5281
219 1 -1.1104 15.9994 3.99455 -1.19661 9.80918
220 1 -1.1104 15.9994 1.14239 1.59122 6.86021
221 1 -1.1104 15.9994 3.93081 1.27859 7.02122
222 1 -1.1104 15.9994 1.15493 -1.32389 9.4675
223 1 -1.1104 15.9994 4.2075 1.51386 9.85839
224 1 -1.1104 15.9994 6.78738 -1.39567 7.07737
225 1 -1.1104 15.9994 9.63746 -1.33192 6.93522
226 1 -1.1104 15.9994 6.59238 -1.28365 9.94701
227 1 -1.1104 15.9994 9.53397 -1.48344 9.81649
228 1 -1.1104 15.9994 6.63518 1.49214 6.7492
229 1 -1.1104 15.9994 9.5112 1.73596 6.39881
230 1 -1.1104 15.9994 7.05306 1.581 9.6697
231 1 -1.1104 15.9994 9.75384 1.20607 9.61478
232 1 -1.1104 15.9994 12.5803 -1.36196 6.91272
233 1 -1.1104 15.9994 12.4974 -1.5025 9.68127
234 1 -1.1104 15.9994 12.3072 1.41256 6.80675
235 1 -1.1104 15.9994 12.3804 1.73991 9.76324
236 1 -1.1104 15.9994 1.15843 4.5178 9.64509
237 1 -1.1104 15.9994 4.01455 3.91066 6.66544
238 1 -1.1104 15.9994 1.33294 1.31069 9.78937
239 1 -1.1104 15.9994 4.22334 4.43925 9.67466
240 1 -1.1104 15.9994 1.27512 4.61028 6.88242
241 1 -1.1104 15.9994 4.14927 6.9692 6.67866
242 1 -1.1104 15.9994 1.43296 7.27246 9.61355
243 1 -1.1104 15.9994 4.13702 7.17543 9.40281
244 1 -1.1104 15.9994 6.64082 4.47559 6.81602
245 1 -1.1104 15.9994 9.47739 4.58447 6.60423
246 1 -1.1104 15.9994 6.87312 4.25566 9.61537
247 1 -1.1104 15.9994 9.60753 4.21669 9.15233
248 1 -1.1104 15.9994 6.71281 6.92034 6.44982
249 1 -1.1104 15.9994 9.55026 7.24094 6.85999
250 1 -1.1104 15.9994 6.95728 7.1816 9.41434
251 1 -1.1104 15.9994 9.62953 7.15897 9.38352
252 1 -1.1104 15.9994 12.6068 4.57703 6.78944
253 1 -1.1104 15.9994 12.2956 4.37941 9.70766
254 1 -1.1104 15.9994 12.3163 7.4438 6.73917
255 1 -1.1104 15.9994 12.4352 7.02833 9.56966
256 1 -1.1104 15.9994 0.976855 10.0018 6.82548
257 1 -1.1104 15.9994 3.92238 9.88771 6.49085
258 1 -1.1104 15.9994 1.10453 9.94537 9.69811
259 1 -1.1104 15.9994 4.01955 10.0201 9.39502
260 1 -1.1104 15.9994 1.20143 12.8035 6.65065
261 1 -1.1104 15.9994 4.01674 12.8648 6.87432
262 1 -1.1104 15.9994 1.03972 12.8488 9.63526
263 1 -1.1104 15.9994 4.02868 12.6047 9.83378
264 1 -1.1104 15.9994 6.83822 9.8704 6.73124
265 1 -1.1104 15.9994 9.68763 10.0007 6.83685
266 1 -1.1104 15.9994 6.90542 10.1431 9.69007
267 1 -1.1104 15.9994 9.54747 9.90337 9.39578
268 1 -1.1104 15.9994 6.89311 12.5063 6.86962
269 1 -1.1104 15.9994 9.86536 12.7953 6.68919
270 1 -1.1104 15.9994 7.05321 13.0365 9.69043
271 1 -1.1104 15.9994 9.72473 12.6637 9.77978
272 1 -1.1104 15.9994 12.3427 10.1842 6.79435
273 1 -1.1104 15.9994 12.5414 9.93709 9.67691
274 1 -1.1104 15.9994 12.6229 12.9983 6.86217
275 1 -1.1104 15.9994 12.4415 12.6731 9.80816
276 1 -1.1104 15.9994 1.12179 15.6 7.11992
277 1 -1.1104 15.9994 4.09226 15.9182 6.46653
278 1 -1.1104 15.9994 0.947572 15.7948 9.93186
279 1 -1.1104 15.9994 4.15045 15.5035 9.55521
280 1 -1.1104 15.9994 1.14268 18.4745 6.81613
281 1 -1.1104 15.9994 4.13377 18.6313 6.86911
282 1 -1.1104 15.9994 1.43147 18.6769 9.66991
283 1 -1.1104 15.9994 3.95825 18.3002 9.49453
284 1 -1.1104 15.9994 6.83654 15.5282 6.73612
285 1 -1.1104 15.9994 9.63506 15.9008 6.8054
286 1 -1.1104 15.9994 7.22371 15.8642 9.56309
287 1 -1.1104 15.9994 9.93836 15.5529 9.63402
288 1 -1.1104 15.9994 6.7953 18.4651 6.8659
289 1 -1.1104 15.9994 9.35779 18.6853 6.91995
290 1 -1.1104 15.9994 6.86684 18.6633 9.78785
291 1 -1.1104 15.9994 9.81517 18.4452 9.66065
292 1 -1.1104 15.9994 12.3352 15.8123 6.61157
293 1 -1.1104 15.9994 12.6861 15.6622 9.43204
294 1 -1.1104 15.9994 12.4066 18.6456 6.79369
295 1 -1.1104 15.9994 12.7119 18.202 9.44014
296 1 -1.1104 15.9994 1.23715 21.3253 6.73744
297 1 -1.1104 15.9994 4.0585 21.6264 6.63309
298 1 -1.1104 15.9994 1.18836 21.4208 9.82633
299 1 -1.1104 15.9994 3.93633 21.1379 9.62639
300 1 -1.1104 15.9994 6.66275 21.0813 6.92712
301 1 -1.1104 15.9994 9.61926 21.2471 6.92211
302 1 -1.1104 15.9994 6.80077 21.4335 9.83155
303 1 -1.1104 15.9994 9.60658 21.4149 9.67051
304 1 -1.1104 15.9994 12.42 21.2665 6.65137
305 1 -1.1104 15.9994 12.4393 20.9843 9.5043
94 2 2.2208 232.038 -0.188263 22.908 8.27915
307 1 -1.1104 15.9994 3.96313 -1.31316 12.7242
308 1 -1.1104 15.9994 1.39322 1.51271 12.818
309 1 -1.1104 15.9994 4.25963 1.37199 12.2966
310 1 -1.1104 15.9994 6.90009 -1.1406 12.5302
311 1 -1.1104 15.9994 9.59472 -1.45484 12.8142
312 1 -1.1104 15.9994 7.01228 1.5744 12.4313
313 1 -1.1104 15.9994 9.80289 1.37721 12.5735
314 1 -1.1104 15.9994 12.5376 -1.20669 12.5486
315 1 -1.1104 15.9994 12.5317 1.56353 12.583
316 1 -1.1104 15.9994 1.15402 4.5907 12.3372
317 1 -1.1104 15.9994 3.91561 4.14813 12.5107
9002 2 2.2208 232.038 13.8256 8.68262 2.414
338 2 2.2208 232.038 8.05313 8.51153 13.7976
331 2 2.2208 232.038 2.59256 2.90695 13.9305
334 2 2.2208 232.038 5.36015 5.71365 13.7808
9042 2 2.2208 232.038 13.8102 3.07144 8.20517
667 2 2.2208 232.038 13.8516 17.0688 -0.189268
674 2 2.2208 232.038 2.49278 22.6052 -0.071413
350 2 2.2208 232.038 10.8263 22.9855 13.7955
6 2 2.2208 232.038 13.8016 17.1375 5.50642
8991 2 2.2208 232.038 13.8425 11.4657 5.27863
3 2 2.2208 232.038 2.47044 -2.5938 2.57188
676 2 2.2208 232.038 8.14204 23.0035 -0.123631
9661 2 2.2208 232.038 -0.197052 0.200217 13.8576
9052 2 2.2208 232.038 13.8213 8.67631 8.02204
345 2 2.2208 232.038 11.1386 17.0471 13.8097
9031 2 2.2208 232.038 13.8105 -0.0179355 5.61516
8987 2 2.2208 232.038 -0.115449 -2.50988 11.1921
12 2 2.2208 232.038 13.905 19.7929 2.48695
9319 2 2.2208 232.038 13.9285 2.89398 13.7997
8994 2 2.2208 232.038 -0.219118 5.91334 8.0351
9329 2 2.2208 232.038 13.9393 14.4163 13.8332
675 2 2.2208 232.038 5.13529 19.9195 0.0355917
1 2 2.2208 232.038 13.852 22.4138 5.16348
669 2 2.2208 232.038 2.46538 17.2286 -0.17575
340 2 2.2208 232.038 10.9807 11.3288 13.8748
431 2 2.2208 232.038 -0.187678 14.3326 22.4154
327 1 -1.1104 15.9994 6.7141 21.432 26.9669
672 2 2.2208 232.038 10.9801 14.4702 27.9681
335 2 2.2208 232.038 11.0631 5.59068 14.1208
349 2 2.2208 232.038 5.39708 22.8852 13.9663
325 2 2.2208 232.038 5.40304 2.88392 27.8523
332 1 -1.1104 15.9994 9.80881 21.3584 24.1462
403 2 2.2208 232.038 2.41162 -2.50974 25.2721
9389 2 2.2208 232.038 13.8229 0.297251 22.3518
677 1 -1.1104 15.9994 9.75935 12.969 26.6423
344 2 2.2208 232.038 5.64168 17.3223 14.2007
337 1 -1.1104 15.9994 7.04371 21.266 24.1865
9700 2 2.2208 232.038 -0.202687 11.4608 19.4174
16 2 2.2208 232.038 8.36512 5.9097 27.8092
9399 2 2.2208 232.038 13.6421 5.82847 22.3212
661 2 2.2208 232.038 8.05791 0.052508 28.1197
342 1 -1.1104 15.9994 3.66287 21.2809 26.966
9359 2 2.2208 232.038 13.7914 11.5518 16.6299
19 2 2.2208 232.038 10.7526 3.00368 27.9967
26 2 2.2208 232.038 8.15585 11.655 27.9691
329 2 2.2208 232.038 5.39103 0.0490094 13.9771
663 2 2.2208 232.038 2.53472 5.90729 28.055
9669 2 2.2208 232.038 0.00181953 8.65491 16.6775
657 2 2.2208 232.038 13.8826 22.8478 22.3636
330 2 2.2208 232.038 11.096 0.102209 13.9729
351 1 -1.1104 15.9994 0.992435 21.4078 26.9113
352 2 2.2208 232.038 2.40655 0.00672887 16.817
9671 2 2.2208 232.038 -0.100354 -2.66063 22.4145
354 1 -1.1104 15.9994 4.23678 21.1511 24.2586
9380 2 2.2208 232.038 13.911 19.9968 19.8087
356 2 2.2208 232.038 8.23833 0.132756 16.7756
652 1 -1.1104 15.9994 0.95742 18.7874 26.2882
358 2 2.2208 232.038 5.3401 0.0315261 19.6934
346 2 2.2208 232.038 2.46461 20.1023 14.042
360 2 2.2208 232.038 11.0992 0.130428 19.3936
361 1 -1.1104 15.9994 1.02868 21.191 23.9522
362 2 2.2208 232.038 2.4279 5.66067 16.5067
363 2 2.2208 232.038 2.51992 3.03936 19.4214
364 1 -1.1104 15.9994 12.5048 18.3516 26.9342
365 2 2.2208 232.038 5.3776 2.90427 16.4828
366 2 2.2208 232.038 8.14488 5.86221 16.6378
367 2 2.2208 232.038 8.35657 3.02729 19.4511
368 2 2.2208 232.038 5.53116 5.76338 19.6352
369 2 2.2208 232.038 11.0695 3.01597 16.7563
370 2 2.2208 232.038 11.027 5.9013 19.5021
371 1 -1.1104 15.9994 12.3731 18.8777 24.1019
372 2 2.2208 232.038 2.69035 11.323 16.7677
373 2 2.2208 232.038 2.73354 8.67536 19.5779
9677 2 2.2208 232.038 13.6556 0.149445 28.1218
375 2 2.2208 232.038 5.18025 8.34224 16.5978
376 2 2.2208 232.038 8.15288 11.6127 16.464
377 2 2.2208 232.038 8.10091 8.93029 19.4952
378 2 2.2208 232.038 5.47853 11.5797 19.6812
379 2 2.2208 232.038 11.1242 8.59983 16.902
380 2 2.2208 232.038 11.0088 11.5993 19.3913
381 1 -1.1104 15.9994 12.5819 15.557 26.552
382 2 2.2208 232.038 2.37198 17.1846 16.8684
383 2 2.2208 232.038 2.42888 14.3368 19.4853
656 1 -1.1104 15.9994 6.97302 15.6546 26.7045
385 2 2.2208 232.038 5.38457 14.2831 16.5988
386 2 2.2208 232.038 8.12747 17.2306 16.8855
387 2 2.2208 232.038 8.27896 14.491 19.6454
388 2 2.2208 232.038 5.32085 17.262 19.7411
389 2 2.2208 232.038 11.0027 14.6146 16.5561
390 2 2.2208 232.038 11.0881 17.3625 19.4082
391 1 -1.1104 15.9994 12.5392 21.0853 26.692
392 2 2.2208 232.038 2.48732 22.8495 16.7962
393 2 2.2208 232.038 2.63284 19.8506 19.7555
9369 2 2.2208 232.038 13.9263 17.2988 17.0322
395 2 2.2208 232.038 5.18598 20.1148 16.8563
396 2 2.2208 232.038 8.19797 22.8009 16.8893
397 2 2.2208 232.038 8.01449 19.8944 19.5514
398 2 2.2208 232.038 5.47644 22.852 19.8449
399 2 2.2208 232.038 11.2293 20.0363 16.7765
400 2 2.2208 232.038 11.0169 22.79 19.615
401 1 -1.1104 15.9994 12.6111 15.6535 23.8997
402 2 2.2208 232.038 2.36995 0.348907 22.2074
655 1 -1.1104 15.9994 9.76738 15.7023 23.7767
404 1 -1.1104 15.9994 9.80283 18.4327 26.86
9674 2 2.2208 232.038 -0.10877 5.84545 25.221
406 2 2.2208 232.038 8.12177 0.0260506 22.3352
654 1 -1.1104 15.9994 6.75667 15.4885 23.8779
408 2 2.2208 232.038 5.28395 -0.0404082 25.0022
25 2 2.2208 232.038 5.39623 8.80041 27.9323
410 2 2.2208 232.038 10.8921 -0.036522 25.172
411 1 -1.1104 15.9994 7.09551 18.7324 26.8943
412 2 2.2208 232.038 2.685 5.81162 22.2124
413 2 2.2208 232.038 2.26896 2.82982 25.1803
414 1 -1.1104 15.9994 9.68821 18.6368 23.899
415 2 2.2208 232.038 5.36549 2.68565 22.3179
416 2 2.2208 232.038 8.24774 5.7184 22.2175
417 2 2.2208 232.038 8.17502 2.79796 24.9112
418 2 2.2208 232.038 5.36329 5.80126 25.0992
419 2 2.2208 232.038 11.0719 3.0027 22.0513
420 2 2.2208 232.038 11.1363 6.018 24.9235
421 1 -1.1104 15.9994 6.98121 18.323 24.0174
422 2 2.2208 232.038 2.48084 11.5555 22.5131
423 2 2.2208 232.038 2.62066 8.88699 25.169
424 1 -1.1104 15.9994 9.80046 15.7446 26.5939
425 2 2.2208 232.038 5.46458 8.62786 22.2163
426 2 2.2208 232.038 8.16427 11.7091 22.4219
427 2 2.2208 232.038 8.19859 8.70439 24.9728
428 2 2.2208 232.038 5.3285 11.5289 25.2065
429 2 2.2208 232.038 10.8954 8.95497 22.3953
430 2 2.2208 232.038 11.05 11.7122 25.1841
9663 2 2.2208 232.038 -0.182499 11.5689 14.014
432 2 2.2208 232.038 2.41924 17.0543 22.487
433 2 2.2208 232.038 2.40712 14.1652 25.4842
29 2 2.2208 232.038 10.8294 8.79752 27.918
435 2 2.2208 232.038 5.37521 14.3585 22.2872
436 2 2.2208 232.038 8.59818 17.3848 22.4112
437 2 2.2208 232.038 8.35712 14.411 25.0804
438 2 2.2208 232.038 5.40873 17.1022 25.1666
439 2 2.2208 232.038 11.2657 14.3854 22.2752
440 2 2.2208 232.038 10.9868 16.9896 25.3389
651 1 -1.1104 15.9994 3.89041 18.4067 23.9904
442 1 -1.1104 15.9994 12.5994 21.6122 24.0503
443 2 2.2208 232.038 2.52815 19.8943 25.1432
653 1 -1.1104 15.9994 3.93176 18.3817 26.9507
445 2 2.2208 232.038 5.42312 19.8238 22.5679
446 2 2.2208 232.038 8.1879 22.9293 22.4164
447 2 2.2208 232.038 8.33112 20.1729 25.6735
448 2 2.2208 232.038 5.30967 22.4787 25.4759
449 2 2.2208 232.038 10.9255 20.0827 22.4788
450 2 2.2208 232.038 11.1399 22.7668 25.2913
451 1 -1.1104 15.9994 0.988642 -1.28727 15.5913
452 1 -1.1104 15.9994 3.7623 -1.3127 15.402
453 1 -1.1104 15.9994 1.27895 1.42954 15.4532
454 1 -1.1104 15.9994 4.09571 1.71121 15.1554
455 1 -1.1104 15.9994 6.61503 -1.56854 15.4218
456 1 -1.1104 15.9994 9.46274 -1.59296 15.3022
457 1 -1.1104 15.9994 6.99276 1.23485 15.3447
458 1 -1.1104 15.9994 9.65285 1.32159 15.2754
459 1 -1.1104 15.9994 12.3854 -1.22932 15.2215
460 1 -1.1104 15.9994 12.4431 1.58715 15.5286
461 1 -1.1104 15.9994 1.2698 4.23315 15.1299
462 1 -1.1104 15.9994 4.0082 4.4308 15.1859
463 1 -1.1104 15.9994 0.979248 7.2145 15.2275
464 1 -1.1104 15.9994 3.78086 7.12964 15.1146
465 1 -1.1104 15.9994 6.74047 4.16463 15.2682
466 1 -1.1104 15.9994 9.90402 3.9826 15.1485
467 1 -1.1104 15.9994 6.58964 6.92137 15.1131
468 1 -1.1104 15.9994 9.74218 7.02134 15.3541
469 1 -1.1104 15.9994 12.735 4.30967 15.3202
470 1 -1.1104 15.9994 12.4506 7.06501 15.4409
471 1 -1.1104 15.9994 1.41934 9.88988 15.2549
472 1 -1.1104 15.9994 4.03031 9.89825 15.1352
473 1 -1.1104 15.9994 1.35718 12.8682 15.4706
474 1 -1.1104 15.9994 3.99731 12.6762 15.3857
475 1 -1.1104 15.9994 6.81951 9.93589 14.9809
476 1 -1.1104 15.9994 9.47629 9.87667 15.2743
477 1 -1.1104 15.9994 6.68187 12.8529 15.0855
478 1 -1.1104 15.9994 9.62346 12.6311 15.2644
479 1 -1.1104 15.9994 12.4013 10.1737 15.4235
480 1 -1.1104 15.9994 12.4161 12.8613 15.2106
481 1 -1.1104 15.9994 1.24741 15.6251 15.5177
482 1 -1.1104 15.9994 4.14513 15.4458 15.2499
483 1 -1.1104 15.9994 1.19033 18.561 15.1077
484 1 -1.1104 15.9994 3.9494 18.4202 15.4471
485 1 -1.1104 15.9994 6.74964 15.6574 15.2762
486 1 -1.1104 15.9994 9.68721 15.5583 14.9975
487 1 -1.1104 15.9994 6.90448 18.657 15.5436
488 1 -1.1104 15.9994 9.4787 18.2001 15.2953
489 1 -1.1104 15.9994 12.3016 15.5088 14.9717
490 1 -1.1104 15.9994 12.256 18.4301 15.4216
491 1 -1.1104 15.9994 1.43214 21.3783 15.6024
492 1 -1.1104 15.9994 4.21388 21.2122 15.1712
493 1 -1.1104 15.9994 6.99081 21.6755 15.2274
494 1 -1.1104 15.9994 9.7634 21.2343 15.2406
495 1 -1.1104 15.9994 12.4369 21.437 15.2995
496 1 -1.1104 15.9994 1.29996 -1.10051 18.4704
497 1 -1.1104 15.9994 4.12483 -1.32511 18.1072
498 1 -1.1104 15.9994 1.05039 -0.868241 21.1158
499 1 -1.1104 15.9994 3.91543 -1.58799 21.1475
500 1 -1.1104 15.9994 0.732378 1.79223 17.9552
501 1 -1.1104 15.9994 3.90233 1.45635 18.2642
502 1 -1.1104 15.9994 1.04128 1.61099 20.776
503 1 -1.1104 15.9994 3.92376 1.53915 20.7534
504 1 -1.1104 15.9994 6.85967 -1.33549 18.182
505 1 -1.1104 15.9994 9.71606 -1.26138 18.0748
506 1 -1.1104 15.9994 6.58655 -1.28888 21.0179
507 1 -1.1104 15.9994 9.51247 -1.1919 20.8686
508 1 -1.1104 15.9994 7.03885 1.72952 18.1888
509 1 -1.1104 15.9994 9.84361 1.82195 18.2143
510 1 -1.1104 15.9994 6.85888 1.37848 21.0411
511 1 -1.1104 15.9994 9.68441 1.55721 21.0898
512 1 -1.1104 15.9994 12.286 -1.28729 18.031
513 1 -1.1104 15.9994 12.8831 -1.24777 20.8346
514 1 -1.1104 15.9994 12.8042 1.35032 18.2113
515 1 -1.1104 15.9994 12.3987 1.52507 20.769
516 1 -1.1104 15.9994 1.11928 4.4733 18.1153
517 1 -1.1104 15.9994 3.99184 4.3171 18.1032
518 1 -1.1104 15.9994 1.20634 4.59267 20.8883
519 1 -1.1104 15.9994 4.09318 4.42271 21.0689
520 1 -1.1104 15.9994 1.22497 7.12878 17.8787
521 1 -1.1104 15.9994 4.02602 6.92077 18.2066
522 1 -1.1104 15.9994 1.1863 7.35817 20.7516
523 1 -1.1104 15.9994 4.04246 7.2879 20.9268
524 1 -1.1104 15.9994 6.94621 4.28452 18.0465
525 1 -1.1104 15.9994 9.54998 4.59506 18.0641
526 1 -1.1104 15.9994 6.71531 4.19609 21.0456
527 1 -1.1104 15.9994 9.81762 4.40361 20.8013
528 1 -1.1104 15.9994 6.83489 7.2048 18.0275
529 1 -1.1104 15.9994 9.48891 7.27816 17.9761
530 1 -1.1104 15.9994 6.93686 7.12993 20.7535
531 1 -1.1104 15.9994 9.53409 7.37216 20.8087
532 1 -1.1104 15.9994 12.3597 4.4452 17.9016
533 1 -1.1104 15.9994 12.4307 4.50709 20.8341
534 1 -1.1104 15.9994 12.5383 7.25037 18.1981
535 1 -1.1104 15.9994 12.4162 7.37228 21.0107
536 1 -1.1104 15.9994 1.25987 9.91834 18.254
537 1 -1.1104 15.9994 3.96353 9.83308 17.9271
538 1 -1.1104 15.9994 1.37117 10.0111 21.0326
539 1 -1.1104 15.9994 4.17665 10.1146 20.5916
540 1 -1.1104 15.9994 0.931338 12.8922 18.161
541 1 -1.1104 15.9994 3.82194 12.9064 18.0724
542 1 -1.1104 15.9994 1.2101 13.0148 21.0555
543 1 -1.1104 15.9994 3.81426 12.9402 21.2151
544 1 -1.1104 15.9994 6.91685 10.1384 17.7994
545 1 -1.1104 15.9994 9.60426 10.1729 18.335
546 1 -1.1104 15.9994 6.77901 10.2756 20.9628
547 1 -1.1104 15.9994 9.69688 10.3836 21.0244
548 1 -1.1104 15.9994 6.49244 12.9132 18.0982
549 1 -1.1104 15.9994 9.36506 12.8966 18.0748
550 1 -1.1104 15.9994 6.81122 13.006 20.9937
551 1 -1.1104 15.9994 9.70476 13.0378 20.9146
552 1 -1.1104 15.9994 12.31 10.1354 18.1831
553 1 -1.1104 15.9994 12.3883 10.0913 21.2003
554 1 -1.1104 15.9994 12.3218 13.1036 17.9019
555 1 -1.1104 15.9994 12.5387 12.9133 20.8174
556 1 -1.1104 15.9994 0.853188 15.7551 18.2738
557 1 -1.1104 15.9994 3.64422 15.78 18.0835
558 1 -1.1104 15.9994 1.16606 15.9355 21.007
559 1 -1.1104 15.9994 3.91805 15.8154 20.8869
560 1 -1.1104 15.9994 1.4062 18.3407 18.3501
561 1 -1.1104 15.9994 3.96695 18.5267 18.3181
562 1 -1.1104 15.9994 0.944346 18.7393 21.0396
563 1 -1.1104 15.9994 4.03616 18.6177 21.3189
564 1 -1.1104 15.9994 6.6527 15.7335 18.3708
565 1 -1.1104 15.9994 9.48885 15.911 17.9344
566 1 -1.1104 15.9994 6.71164 15.9192 21.042
567 1 -1.1104 15.9994 9.55287 15.9032 20.8086
568 1 -1.1104 15.9994 6.78842 18.6761 18.1504
569 1 -1.1104 15.9994 9.59308 18.8586 18.0014
570 1 -1.1104 15.9994 6.94107 18.7377 21.2285
571 1 -1.1104 15.9994 9.80342 18.5502 20.8485
572 1 -1.1104 15.9994 12.5035 15.7503 17.9593
573 1 -1.1104 15.9994 12.3713 15.8803 20.7286
574 1 -1.1104 15.9994 12.5614 18.5756 18.1449
575 1 -1.1104 15.9994 12.4916 18.5171 21.1272
576 1 -1.1104 15.9994 1.04435 21.2898 20.4546
577 1 -1.1104 15.9994 3.66587 21.3745 18.0093
9339 2 2.2208 232.038 13.9017 0.238853 16.5415
579 1 -1.1104 15.9994 4.3028 21.1121 20.7726
580 1 -1.1104 15.9994 6.51723 21.3864 18.2859
581 1 -1.1104 15.9994 9.4939 21.6027 18.2579
582 1 -1.1104 15.9994 6.95251 21.5886 21.2563
583 1 -1.1104 15.9994 9.39912 21.401 20.9924
584 1 -1.1104 15.9994 12.2779 21.4885 18.2042
585 1 -1.1104 15.9994 12.339 21.3931 21.1727
586 1 -1.1104 15.9994 1.02849 -1.39384 23.6535
587 1 -1.1104 15.9994 3.8212 -1.32002 23.7213
588 1 -1.1104 15.9994 0.818553 -1.4974 26.4517
589 1 -1.1104 15.9994 3.90667 -1.40143 26.5731
590 1 -1.1104 15.9994 1.09163 1.37317 23.7796
591 1 -1.1104 15.9994 3.88834 1.37871 23.5527
592 1 -1.1104 15.9994 1.20367 1.46007 26.8195
593 1 -1.1104 15.9994 3.63151 1.53631 26.4528
594 1 -1.1104 15.9994 6.54356 -1.58242 23.8277
595 1 -1.1104 15.9994 9.52215 -1.43358 23.753
596 1 -1.1104 15.9994 6.59668 -1.22176 26.6563
597 1 -1.1104 15.9994 9.51932 -1.33109 26.7289
598 1 -1.1104 15.9994 6.59775 1.34063 23.8407
599 1 -1.1104 15.9994 9.5475 1.33086 23.7625
600 1 -1.1104 15.9994 6.64874 1.39818 26.4044
601 1 -1.1104 15.9994 9.24869 1.61961 26.4871
602 1 -1.1104 15.9994 12.3097 -1.14378 23.8725
603 1 -1.1104 15.9994 12.3646 -1.17732 26.5945
604 1 -1.1104 15.9994 12.2599 1.4978 23.5268
605 1 -1.1104 15.9994 11.9803 1.4431 26.6053
606 1 -1.1104 15.9994 0.902015 4.08624 23.8376
607 1 -1.1104 15.9994 3.91329 4.17252 23.5147
608 1 -1.1104 15.9994 1.27915 4.35407 26.6532
609 1 -1.1104 15.9994 3.89542 4.38773 26.5822
610 1 -1.1104 15.9994 1.12509 7.08329 23.6632
611 1 -1.1104 15.9994 3.929 7.26212 23.6457
612 1 -1.1104 15.9994 1.25968 7.13241 26.5436
613 1 -1.1104 15.9994 4.04351 7.44699 26.5421
614 1 -1.1104 15.9994 6.84221 4.15665 23.6622
615 1 -1.1104 15.9994 9.57032 4.11337 23.476
616 1 -1.1104 15.9994 6.79846 4.42332 26.6757
617 1 -1.1104 15.9994 9.54304 4.43202 26.2551
618 1 -1.1104 15.9994 6.77759 7.14419 23.4621
619 1 -1.1104 15.9994 9.58025 7.26498 23.4411
620 1 -1.1104 15.9994 6.7048 7.48866 26.2349
621 1 -1.1104 15.9994 9.63822 7.2896 26.2611
622 1 -1.1104 15.9994 12.421 4.44404 23.8073
623 1 -1.1104 15.9994 12.4899 4.45562 26.9583
624 1 -1.1104 15.9994 12.569 7.33182 23.6864
625 1 -1.1104 15.9994 12.4786 7.25446 26.3348
626 1 -1.1104 15.9994 1.24504 10.2921 24.0692
627 1 -1.1104 15.9994 3.90945 9.898 23.7403
628 1 -1.1104 15.9994 0.808072 9.76054 26.5743
629 1 -1.1104 15.9994 3.99402 10.1779 26.5819
630 1 -1.1104 15.9994 1.16177 12.9224 23.888
631 1 -1.1104 15.9994 3.92061 12.9421 23.9463
632 1 -1.1104 15.9994 0.831881 12.9145 26.5518
633 1 -1.1104 15.9994 3.80917 12.7252 26.8925
634 1 -1.1104 15.9994 6.92777 10.1247 23.7589
635 1 -1.1104 15.9994 9.57882 10.2868 23.9084