ITEM: TIMESTEP
260000
ITEM: NUMBER OF ATOMS
18000
ITEM: BOX BOUNDS xy xz yz pp pp pp
-2.2611588753169798e-01 2.8120115887530108e+01 0.0000000000000000e+00
-2.5606565048006962e+00 3.3728865650476945e+02 0.0000000000000000e+00
-2.1769487592484599e-01 2.8111694875924524e+01 0.0000000000000000e+00
ITEM: ATOMS id type q mass x y z
660 2 2.2208 232.038 5.36346 -2.48514 -0.0551548
324 1 -1.1104 15.9994 12.3301 4.18723 12.3277
9042 2 2.2208 232.038 13.7741 2.71703 8.02264
4 1 -1.1104 15.9994 12.1014 21.3421 12.5877
323 1 -1.1104 15.9994 9.81372 7.17201 12.6629
322 1 -1.1104 15.9994 6.9965 7.40427 12.7493
5 2 2.2208 232.038 13.8788 14.0659 8.4743
8 2 2.2208 232.038 5.21477 0.205692 2.76707
9 1 -1.1104 15.9994 12.3091 7.07761 12.5736
10 2 2.2208 232.038 11.0128 0.221197 2.89053
11 1 -1.1104 15.9994 9.59393 21.3713 12.6665
321 1 -1.1104 15.9994 9.56407 4.35617 12.6397
13 2 2.2208 232.038 2.43057 3.10855 3.00262
14 1 -1.1104 15.9994 6.87731 21.3909 12.7935
675 2 2.2208 232.038 5.67411 19.7599 0.0167582
9319 2 2.2208 232.038 13.7455 2.87046 13.8241
17 2 2.2208 232.038 7.95707 3.00664 2.76571
18 2 2.2208 232.038 5.27833 5.75596 2.6784
670 2 2.2208 232.038 5.33938 14.0598 -0.0545763
20 2 2.2208 232.038 10.9414 5.75884 2.62027
21 1 -1.1104 15.9994 4.02979 21.2418 12.4055
22 1 -1.1104 15.9994 1.17117 15.6147 12.7318
23 2 2.2208 232.038 2.49781 8.77283 2.76109
320 1 -1.1104 15.9994 6.71149 4.35366 12.6768
672 2 2.2208 232.038 11.049 14.5007 0.0258482
661 2 2.2208 232.038 8.2551 0.408898 0.055615
27 2 2.2208 232.038 8.2765 8.50473 2.75822
28 2 2.2208 232.038 5.48214 11.4735 2.81035
26 2 2.2208 232.038 8.37378 11.5616 -0.163354
30 2 2.2208 232.038 11.0575 11.3727 2.56048
31 1 -1.1104 15.9994 12.4713 12.9582 12.7328
32 1 -1.1104 15.9994 12.3777 9.77945 12.4851
33 2 2.2208 232.038 2.46901 14.3765 2.53136
25 2 2.2208 232.038 5.18473 8.78585 0.0902854
35 1 -1.1104 15.9994 9.69073 12.8369 12.6558
36 1 -1.1104 15.9994 6.92391 12.6168 12.4406
37 2 2.2208 232.038 8.41599 14.1918 2.70113
38 2 2.2208 232.038 5.39066 16.9316 2.52501
39 1 -1.1104 15.9994 9.43131 10.0129 12.6343
40 2 2.2208 232.038 11.0245 17.1517 2.67373
41 1 -1.1104 15.9994 6.64922 9.9544 12.5596
42 1 -1.1104 15.9994 3.93358 12.7274 12.6498
43 2 2.2208 232.038 2.45209 19.8865 2.5056
319 1 -1.1104 15.9994 4.15058 7.24873 12.5871
45 1 -1.1104 15.9994 1.15618 12.7518 12.4548
46 1 -1.1104 15.9994 3.90491 10.021 12.7367
47 2 2.2208 232.038 8.24985 19.7352 2.61866
48 2 2.2208 232.038 5.40745 22.7308 2.71562
49 1 -1.1104 15.9994 1.21304 9.96376 12.5924
50 2 2.2208 232.038 10.9922 22.7484 2.79233
51 1 -1.1104 15.9994 1.27621 20.9924 12.6491
52 2 2.2208 232.038 2.52594 -0.0372869 5.7371
9002 2 2.2208 232.038 13.7864 8.56181 2.61082
54 1 -1.1104 15.9994 12.6588 18.5813 12.5642
9081 2 2.2208 232.038 13.8317 -0.013975 11.0071
56 2 2.2208 232.038 8.09654 0.16654 5.50055
8981 2 2.2208 232.038 -0.144896 14.0544 11.1122
58 2 2.2208 232.038 5.31388 0.148879 8.44341
16 2 2.2208 232.038 8.13865 5.77536 -0.0424309
60 2 2.2208 232.038 11.1314 0.0603019 8.22434
61 1 -1.1104 15.9994 12.3997 15.8996 12.4257
62 2 2.2208 232.038 2.50121 5.89039 5.50842
63 2 2.2208 232.038 2.63597 3.00096 8.59587
64 1 -1.1104 15.9994 9.54147 18.5924 12.4648
65 2 2.2208 232.038 5.4362 2.95898 5.7382
66 2 2.2208 232.038 8.11922 5.73976 5.61556
67 2 2.2208 232.038 8.50712 2.82061 8.40083
68 2 2.2208 232.038 5.41949 5.79694 8.35034
69 2 2.2208 232.038 10.9473 3.08049 5.37215
70 2 2.2208 232.038 11.2127 5.7116 8.31285
71 1 -1.1104 15.9994 6.53462 18.7138 12.6931
72 2 2.2208 232.038 2.56644 11.4864 5.57406
73 2 2.2208 232.038 2.52012 8.77899 8.51479
74 1 -1.1104 15.9994 9.77672 15.7344 12.5093
75 2 2.2208 232.038 5.44351 8.45579 5.44032
76 2 2.2208 232.038 8.28347 11.2602 5.53256
77 2 2.2208 232.038 8.26162 8.49893 8.41213
78 2 2.2208 232.038 5.33421 11.3003 8.29125
79 2 2.2208 232.038 11.1648 8.45904 5.37911
80 2 2.2208 232.038 11.0252 11.475 8.35709
318 1 -1.1104 15.9994 1.18838 7.2009 12.4818
82 2 2.2208 232.038 2.50157 17.062 5.54371
83 2 2.2208 232.038 2.45679 14.0499 8.40432
659 2 2.2208 232.038 2.41277 0.175525 -0.0448705
85 2 2.2208 232.038 5.4161 14.1347 5.46579
86 2 2.2208 232.038 8.15012 16.9424 5.52539
87 2 2.2208 232.038 8.22126 14.1089 8.31159
88 2 2.2208 232.038 5.2099 17.0635 8.21421
89 2 2.2208 232.038 11.1647 14.4223 5.3032
90 2 2.2208 232.038 11.2645 17.0429 8.2706
325 2 2.2208 232.038 5.28866 2.92741 -0.0724247
92 2 2.2208 232.038 2.67526 22.5775 5.43997
93 2 2.2208 232.038 2.54191 19.6862 8.27691
343 2 2.2208 232.038 7.96072 14.2831 13.7597
95 2 2.2208 232.038 5.4082 19.8037 5.47622
96 2 2.2208 232.038 8.09508 22.7006 5.57615
97 2 2.2208 232.038 8.14334 19.7461 8.34136
98 2 2.2208 232.038 5.08522 22.694 8.50747
99 2 2.2208 232.038 10.9205 19.7968 5.57299
100 2 2.2208 232.038 10.7463 22.211 8.50731
101 1 -1.1104 15.9994 6.96629 15.8318 12.4055
102 2 2.2208 232.038 2.5987 0.172563 11.3378
665 2 2.2208 232.038 13.7481 22.9963 -0.0975981
104 2 2.2208 232.038 8.28646 0.123686 11.2499
9161 1 -1.1104 15.9994 1.146 9.80076 4.20125
106 1 -1.1104 15.9994 3.93197 18.422 12.458
107 2 2.2208 232.038 2.41972 5.77306 11.1183
108 2 2.2208 232.038 5.38232 3.04225 11.2479
109 2 2.2208 232.038 8.28272 5.83359 11.3918
110 2 2.2208 232.038 11.0028 2.83853 11.2701
111 1 -1.1104 15.9994 1.0839 18.348 12.6867
112 2 2.2208 232.038 2.734 11.4109 11.3094
113 2 2.2208 232.038 5.48995 8.46423 11.2531
114 2 2.2208 232.038 8.22205 11.1879 10.9878
115 2 2.2208 232.038 11.1434 8.37177 11.1127
116 1 -1.1104 15.9994 4.08531 15.5655 12.6606
117 2 2.2208 232.038 2.54739 16.9869 11.2028
118 2 2.2208 232.038 5.20941 14.0644 11.0538
119 2 2.2208 232.038 8.29699 16.9119 10.8837
120 2 2.2208 232.038 11.1078 14.2497 11.2945
81 2 2.2208 232.038 -0.272862 14.3241 5.61092
122 2 2.2208 232.038 2.21137 22.7628 11.2481
123 2 2.2208 232.038 5.36605 19.958 11.1166
124 2 2.2208 232.038 8.14811 22.6251 11.1904
125 2 2.2208 232.038 11.0887 19.7522 11.1057
126 1 -1.1104 15.9994 0.971678 -1.23394 1.34504
127 1 -1.1104 15.9994 3.84447 -1.16772 1.23617
128 1 -1.1104 15.9994 1.23525 -1.22917 4.17976
129 1 -1.1104 15.9994 4.21884 -1.16002 4.42388
130 1 -1.1104 15.9994 0.952175 1.60098 1.40869
131 1 -1.1104 15.9994 3.89174 1.49705 1.64514
132 1 -1.1104 15.9994 1.19519 1.46859 4.38279
133 1 -1.1104 15.9994 3.83852 1.5913 4.43556
134 1 -1.1104 15.9994 6.73924 -1.09857 1.57677
135 1 -1.1104 15.9994 9.46922 -1.26433 1.26289
136 1 -1.1104 15.9994 6.96013 -1.41787 4.22918
137 1 -1.1104 15.9994 9.60998 -1.38009 4.11157
138 1 -1.1104 15.9994 6.55455 1.5003 1.48296
139 1 -1.1104 15.9994 9.71335 1.57019 1.47916
140 1 -1.1104 15.9994 6.69908 1.43141 4.03864
141 1 -1.1104 15.9994 9.76799 1.38669 4.30134
142 1 -1.1104 15.9994 12.433 -1.27828 1.2243
143 1 -1.1104 15.9994 12.4846 -1.24209 4.02549
144 1 -1.1104 15.9994 12.4837 1.5095 1.14169
145 1 -1.1104 15.9994 12.6246 1.4533 3.95336
146 1 -1.1104 15.9994 0.981263 4.38158 1.27119
147 1 -1.1104 15.9994 3.62833 4.45549 1.23067
148 1 -1.1104 15.9994 0.901199 4.5751 4.30991
149 1 -1.1104 15.9994 3.94697 4.3628 4.25764
150 1 -1.1104 15.9994 1.08957 7.05772 1.80029
151 1 -1.1104 15.9994 3.96384 7.36487 1.31459
152 1 -1.1104 15.9994 1.09298 7.23427 7.2723
153 1 -1.1104 15.9994 4.17776 7.09594 4.22767
154 1 -1.1104 15.9994 6.60236 4.54054 1.45116
155 1 -1.1104 15.9994 9.35291 4.4691 1.25251
156 1 -1.1104 15.9994 6.77098 4.32824 4.16798
157 1 -1.1104 15.9994 9.63002 4.07082 4.02942
158 1 -1.1104 15.9994 6.84416 7.38127 1.48212
159 1 -1.1104 15.9994 9.42692 7.29504 1.25043
160 1 -1.1104 15.9994 7.04447 7.10137 4.15479
161 1 -1.1104 15.9994 9.75747 6.94877 4.17516
162 1 -1.1104 15.9994 12.0509 4.20417 1.22191
163 1 -1.1104 15.9994 12.4751 4.35385 3.97146
164 1 -1.1104 15.9994 12.2854 7.0828 1.36059
165 1 -1.1104 15.9994 12.9263 7.26085 4.21607
166 1 -1.1104 15.9994 1.12 9.72455 1.04399
167 1 -1.1104 15.9994 3.7572 10.1156 1.20185
168 1 -1.1104 15.9994 0.924565 7.23107 4.43575
169 1 -1.1104 15.9994 3.90789 10.1739 4.1124
170 1 -1.1104 15.9994 1.21746 12.8163 1.17654
171 1 -1.1104 15.9994 3.93477 12.7514 1.39013
172 1 -1.1104 15.9994 1.12918 12.8261 3.94211
173 1 -1.1104 15.9994 3.98113 12.8756 4.13237
174 1 -1.1104 15.9994 6.8873 10.0915 1.48121
175 1 -1.1104 15.9994 9.95604 9.98158 1.36451
176 1 -1.1104 15.9994 6.62565 9.77097 3.90404
177 1 -1.1104 15.9994 9.72122 9.72041 3.98103
178 1 -1.1104 15.9994 6.77352 12.8518 1.76321
179 1 -1.1104 15.9994 12.437 12.6573 1.03913
180 1 -1.1104 15.9994 6.77795 12.5903 4.51724
181 1 -1.1104 15.9994 9.51414 12.5515 4.07382
182 1 -1.1104 15.9994 12.7436 10.0014 1.19724
183 1 -1.1104 15.9994 12.2749 9.9718 3.91842
677 1 -1.1104 15.9994 9.68468 12.7321 1.4218
185 1 -1.1104 15.9994 12.3121 13.0876 3.80592
186 1 -1.1104 15.9994 0.924635 15.7858 1.16123
187 1 -1.1104 15.9994 3.90613 15.7369 1.06556
188 1 -1.1104 15.9994 1.13019 15.4517 3.99673
189 1 -1.1104 15.9994 3.93963 15.5881 3.79653
190 1 -1.1104 15.9994 1.01055 18.6254 0.936507
191 1 -1.1104 15.9994 4.0127 18.5075 1.17825
192 1 -1.1104 15.9994 1.21712 18.1936 3.93127
193 1 -1.1104 15.9994 3.96759 18.3777 4.3092
194 1 -1.1104 15.9994 6.96789 15.4057 1.08741
195 1 -1.1104 15.9994 9.5819 15.735 1.37905
196 1 -1.1104 15.9994 6.89557 15.6644 4.10324
197 1 -1.1104 15.9994 9.57198 15.5192 4.11456
198 1 -1.1104 15.9994 6.84006 18.1983 1.16148
199 1 -1.1104 15.9994 9.62292 18.2129 1.25447
200 1 -1.1104 15.9994 6.72705 18.3585 3.87943
201 1 -1.1104 15.9994 9.47225 18.6274 4.13668
202 1 -1.1104 15.9994 12.3729 15.6707 1.22447
203 1 -1.1104 15.9994 12.5481 15.6675 3.80864
204 1 -1.1104 15.9994 12.1964 18.6372 1.15275
205 1 -1.1104 15.9994 12.2497 18.5188 3.96583
206 1 -1.1104 15.9994 1.25384 21.3831 1.14994
207 1 -1.1104 15.9994 3.98679 21.065 1.18314
208 1 -1.1104 15.9994 1.17476 20.8774 4.07122
209 1 -1.1104 15.9994 3.95162 21.409 3.96079
210 1 -1.1104 15.9994 6.76917 21.1471 1.44209
211 1 -1.1104 15.9994 9.53985 21.2154 1.23587
212 1 -1.1104 15.9994 6.63016 21.341 4.22397
213 1 -1.1104 15.9994 9.65558 21.616 4.28484
214 1 -1.1104 15.9994 12.6368 21.5829 1.26709
215 1 -1.1104 15.9994 12.6389 21.0514 4.24979
216 1 -1.1104 15.9994 0.908845 -1.5129 6.99603
217 1 -1.1104 15.9994 3.6698 -1.26478 7.30586
218 1 -1.1104 15.9994 1.17735 -1.13929 12.9307
219 1 -1.1104 15.9994 3.88167 -1.3644 9.99789
220 1 -1.1104 15.9994 1.00684 1.65174 7.31111
221 1 -1.1104 15.9994 4.02796 1.52708 7.10547
222 1 -1.1104 15.9994 1.07566 -1.2184 9.92085
223 1 -1.1104 15.9994 4.08912 1.80946 9.77987
224 1 -1.1104 15.9994 6.70087 -1.5172 7.09493
225 1 -1.1104 15.9994 9.59409 -1.21386 6.77886
226 1 -1.1104 15.9994 6.81984 -1.34637 9.71586
227 1 -1.1104 15.9994 9.49656 -1.49253 9.65863
228 1 -1.1104 15.9994 7.03714 1.53515 6.88544
229 1 -1.1104 15.9994 9.91188 1.66688 6.96756
230 1 -1.1104 15.9994 7.03496 1.56169 9.93286
231 1 -1.1104 15.9994 9.61427 1.56007 9.92836
232 1 -1.1104 15.9994 12.3984 -1.28084 7.05959
233 1 -1.1104 15.9994 12.3446 -1.43689 9.74536
234 1 -1.1104 15.9994 12.491 1.48333 6.64171
235 1 -1.1104 15.9994 12.5075 1.4659 9.52468
236 1 -1.1104 15.9994 1.14957 4.45703 9.69415
237 1 -1.1104 15.9994 4.05491 4.3396 6.98164
238 1 -1.1104 15.9994 1.22605 1.67311 10.037
239 1 -1.1104 15.9994 3.77585 4.4707 9.85086
240 1 -1.1104 15.9994 1.21266 4.49851 7.0913
241 1 -1.1104 15.9994 4.08263 7.19163 6.86189
242 1 -1.1104 15.9994 1.31986 7.305 9.85644
243 1 -1.1104 15.9994 4.08445 7.29724 9.74212
244 1 -1.1104 15.9994 6.72537 4.37848 6.8204
245 1 -1.1104 15.9994 9.73023 4.54069 6.86172
246 1 -1.1104 15.9994 6.45084 4.2343 9.59639
247 1 -1.1104 15.9994 9.43443 4.19943 9.78563
248 1 -1.1104 15.9994 6.9464 7.10073 6.93415
249 1 -1.1104 15.9994 9.79188 7.21701 7.05743
250 1 -1.1104 15.9994 7.03623 7.03317 9.63358
251 1 -1.1104 15.9994 9.61383 7.22181 9.90376
252 1 -1.1104 15.9994 12.6816 4.43037 6.80525
253 1 -1.1104 15.9994 12.3152 3.96601 9.50061
254 1 -1.1104 15.9994 12.7885 7.1105 6.78939
255 1 -1.1104 15.9994 12.5171 6.88465 9.79931
256 1 -1.1104 15.9994 1.04643 10.1055 7.01497
257 1 -1.1104 15.9994 3.7845 9.79176 6.96431
258 1 -1.1104 15.9994 1.34303 10.1086 9.93042
259 1 -1.1104 15.9994 3.98622 10.0689 9.82675
260 1 -1.1104 15.9994 1.2321 12.6987 7.03087
261 1 -1.1104 15.9994 4.0813 12.5959 7.02381
262 1 -1.1104 15.9994 1.09326 12.7649 9.7869
263 1 -1.1104 15.9994 4.06731 12.8841 9.64228
264 1 -1.1104 15.9994 6.83412 9.98438 6.93716
265 1 -1.1104 15.9994 9.78412 10.1258 6.72465
266 1 -1.1104 15.9994 6.78401 9.92893 9.68066
267 1 -1.1104 15.9994 9.69098 9.8395 9.73437
268 1 -1.1104 15.9994 6.66851 12.936 7.09979
269 1 -1.1104 15.9994 9.60512 12.9021 6.82179
270 1 -1.1104 15.9994 6.70552 12.7231 9.81055
271 1 -1.1104 15.9994 9.51816 12.5547 9.86361
272 1 -1.1104 15.9994 12.6074 9.87503 6.79228
273 1 -1.1104 15.9994 12.5431 9.69108 9.61144
274 1 -1.1104 15.9994 12.5098 12.8416 6.79283
275 1 -1.1104 15.9994 12.6158 12.6966 9.7712
276 1 -1.1104 15.9994 1.15168 15.2644 6.95123
277 1 -1.1104 15.9994 3.94788 15.5813 6.88662
278 1 -1.1104 15.9994 0.895337 15.5684 9.72906
279 1 -1.1104 15.9994 3.94891 15.6763 9.78374
280 1 -1.1104 15.9994 1.0448 18.193 6.87107
281 1 -1.1104 15.9994 3.76143 18.3605 6.8405
282 1 -1.1104 15.9994 1.16319 18.324 9.58777
283 1 -1.1104 15.9994 4.02267 18.6299 9.5638
284 1 -1.1104 15.9994 6.87051 15.7011 6.81514
285 1 -1.1104 15.9994 9.67116 15.7778 6.67822
286 1 -1.1104 15.9994 6.81157 15.4115 9.69985
287 1 -1.1104 15.9994 9.6043 15.4653 9.36415
288 1 -1.1104 15.9994 6.87083 18.3544 6.76715
289 1 -1.1104 15.9994 9.99432 18.4617 7.05313
290 1 -1.1104 15.9994 6.85503 18.5263 9.78143
291 1 -1.1104 15.9994 9.89552 18.1387 9.81546
292 1 -1.1104 15.9994 12.4469 15.6708 6.90725
293 1 -1.1104 15.9994 12.5896 15.6361 9.79065
294 1 -1.1104 15.9994 12.4788 18.375 6.66859
295 1 -1.1104 15.9994 12.5214 18.6018 9.88063
296 1 -1.1104 15.9994 1.05974 21.2498 6.73842
297 1 -1.1104 15.9994 3.91627 21.0184 6.9693
298 1 -1.1104 15.9994 1.11789 21.3665 9.73331
299 1 -1.1104 15.9994 3.71105 21.217 9.61702
300 1 -1.1104 15.9994 6.83789 21.2326 6.90817
301 1 -1.1104 15.9994 9.51058 21.0411 6.8181
302 1 -1.1104 15.9994 6.53806 21.2196 9.61932
303 1 -1.1104 15.9994 9.46311 21.1472 9.93022
304 1 -1.1104 15.9994 12.1871 21.2111 7.17542
305 1 -1.1104 15.9994 12.3033 21.3155 9.91275
666 2 2.2208 232.038 2.34931 11.3673 -0.130137
307 1 -1.1104 15.9994 4.2362 -1.36259 12.8943
308 1 -1.1104 15.9994 1.18864 1.41234 12.5361
309 1 -1.1104 15.9994 3.95032 1.48377 12.7107
310 1 -1.1104 15.9994 6.90487 -1.56423 12.6393
311 1 -1.1104 15.9994 9.64482 -1.52011 12.7144
312 1 -1.1104 15.9994 6.70309 1.42939 12.8332
313 1 -1.1104 15.9994 9.56772 1.52107 12.769
314 1 -1.1104 15.9994 12.437 -1.33598 12.5897
315 1 -1.1104 15.9994 12.2688 1.44059 12.8376
316 1 -1.1104 15.9994 0.838046 4.43879 12.5328
317 1 -1.1104 15.9994 3.84233 4.46092 12.6414
9101 2 2.2208 232.038 13.4674 22.7326 11.3796
9091 2 2.2208 232.038 13.9011 11.1578 11.2342
662 2 2.2208 232.038 10.9548 -2.54175 -0.110436
6 2 2.2208 232.038 13.8231 17.147 5.38177
9052 2 2.2208 232.038 13.8229 8.52006 8.32574
12 2 2.2208 232.038 13.7624 20.0422 2.50417
345 2 2.2208 232.038 11.1107 17.221 13.8228
663 2 2.2208 232.038 2.39958 6.0139 -0.00119819
9677 2 2.2208 232.038 13.9305 -0.0287928 0.128573
29 2 2.2208 232.038 11.0923 8.74413 -0.243462
349 2 2.2208 232.038 5.129 22.7737 13.727
8988 2 2.2208 232.038 -0.185358 11.4125 8.46611
346 2 2.2208 232.038 2.71778 19.6926 13.8138
19 2 2.2208 232.038 10.8664 2.85511 -0.0276858
339 2 2.2208 232.038 5.41563 11.3854 13.8986
340 2 2.2208 232.038 10.8932 11.5291 14.0278
327 1 -1.1104 15.9994 6.86629 21.3291 26.9315
9324 2 2.2208 232.038 13.6989 8.40274 13.9758
403 2 2.2208 232.038 2.5878 -2.55 25.4405
674 2 2.2208 232.038 2.50977 22.6901 28.0209
9329 2 2.2208 232.038 13.8837 14.092 14.0427
332 1 -1.1104 15.9994 9.63019 21.3121 24.0308
9379 2 2.2208 232.038 13.9413 22.7006 16.7963
338 2 2.2208 232.038 8.60068 8.60204 14.126
9389 2 2.2208 232.038 13.8951 -0.0827806 22.3562
647 1 -1.1104 15.9994 4.1836 15.6439 24.0934
337 1 -1.1104 15.9994 6.64739 21.4379 23.9384
9339 2 2.2208 232.038 13.7974 0.0897383 16.849
330 2 2.2208 232.038 10.9941 0.0683662 14.1146
344 2 2.2208 232.038 5.47064 17.1992 13.9347
9334 2 2.2208 232.038 13.8325 20.114 13.9463
342 1 -1.1104 15.9994 3.89574 21.468 26.3034
669 2 2.2208 232.038 2.33862 17.3072 28.0265
353 2 2.2208 232.038 2.48134 -2.48479 19.7421
329 2 2.2208 232.038 5.31571 0.0146931 14.0646
650 1 -1.1104 15.9994 1.09679 18.4563 24.0264
646 1 -1.1104 15.9994 1.26842 15.7893 23.8352
9665 2 2.2208 232.038 -0.249679 -2.50303 16.9953
9350 2 2.2208 232.038 13.5943 3.07342 19.7502
649 1 -1.1104 15.9994 3.95845 15.9409 26.6432
351 1 -1.1104 15.9994 0.760742 21.5229 26.8918
352 2 2.2208 232.038 2.61635 0.360658 16.9284
9390 2 2.2208 232.038 13.8238 -2.56759 25.3877
354 1 -1.1104 15.9994 4.08359 19.1617 24.1445
9400 2 2.2208 232.038 13.8784 2.79599 25.4744
356 2 2.2208 232.038 8.17757 0.163906 17.0226
652 1 -1.1104 15.9994 1.0009 18.7209 26.805
358 2 2.2208 232.038 5.34301 0.148233 19.7608
431 2 2.2208 232.038 -0.175099 14.1143 22.488
360 2 2.2208 232.038 11.0926 0.192071 19.7658
361 1 -1.1104 15.9994 1.01829 21.2147 23.8783
362 2 2.2208 232.038 2.72726 5.72759 16.8498
363 2 2.2208 232.038 2.6398 3.07646 19.881
364 1 -1.1104 15.9994 12.4476 18.4818 26.5687
365 2 2.2208 232.038 5.54833 2.88974 17.1309
366 2 2.2208 232.038 8.35835 5.71585 16.9217
367 2 2.2208 232.038 8.18628 2.93536 19.795
368 2 2.2208 232.038 5.33604 5.67336 19.6533
369 2 2.2208 232.038 11.2157 2.9502 16.7428
370 2 2.2208 232.038 10.864 6.04501 19.8543
371 1 -1.1104 15.9994 12.2734 18.8717 23.8512
372 2 2.2208 232.038 2.71873 11.4755 16.742
373 2 2.2208 232.038 2.79335 8.55492 19.4715
331 2 2.2208 232.038 2.58035 3.09349 14.2049
375 2 2.2208 232.038 5.7295 8.58321 16.9189
376 2 2.2208 232.038 8.33534 11.4905 16.8092
377 2 2.2208 232.038 8.24185 8.62559 19.6356
378 2 2.2208 232.038 5.38901 11.4892 19.6211
379 2 2.2208 232.038 11.18 8.7512 16.8291
380 2 2.2208 232.038 10.9822 11.4875 19.7387
381 1 -1.1104 15.9994 12.3823 15.5201 26.9058
382 2 2.2208 232.038 2.79777 17.1237 16.8007
383 2 2.2208 232.038 2.45632 13.8752 19.6543
656 1 -1.1104 15.9994 6.59213 15.6227 26.6986
385 2 2.2208 232.038 5.48291 14.1909 16.849
386 2 2.2208 232.038 8.25262 16.995 16.9111
387 2 2.2208 232.038 8.22893 14.3079 19.7818
388 2 2.2208 232.038 5.41863 17.1989 19.8388
389 2 2.2208 232.038 11.1394 14.3154 16.7695
390 2 2.2208 232.038 10.868 17.3451 19.4935
391 1 -1.1104 15.9994 12.4588 21.471 26.8022
392 2 2.2208 232.038 2.58488 22.8755 16.6447
393 2 2.2208 232.038 2.75152 19.8611 19.5542
9399 2 2.2208 232.038 13.7695 5.85444 22.4897
395 2 2.2208 232.038 5.54805 19.8976 16.7806
396 2 2.2208 232.038 8.01869 22.7456 16.8307
397 2 2.2208 232.038 8.10982 19.8959 19.4598
398 2 2.2208 232.038 5.29625 22.6798 19.6128
399 2 2.2208 232.038 10.9863 20.0632 16.6985
400 2 2.2208 232.038 11.1118 22.7928 19.7107
401 1 -1.1104 15.9994 12.7284 15.9841 24.2845
402 2 2.2208 232.038 2.52044 0.374153 22.7003
655 1 -1.1104 15.9994 9.76667 15.6891 23.9939
404 1 -1.1104 15.9994 9.49149 15.7302 26.7472
333 2 2.2208 232.038 8.32834 3.08402 14.1628
406 2 2.2208 232.038 8.07702 0.146735 22.5049
654 1 -1.1104 15.9994 6.93245 15.8165 24.0648
408 2 2.2208 232.038 5.66817 0.236801 25.4168
648 1 -1.1104 15.9994 1.00929 15.7532 26.7982
410 2 2.2208 232.038 10.9167 0.311209 25.4044
411 1 -1.1104 15.9994 6.8605 18.554 26.9013
412 2 2.2208 232.038 2.60933 5.79225 22.7786
413 2 2.2208 232.038 2.58805 3.18115 25.6622
414 1 -1.1104 15.9994 9.69638 18.729 26.7779
415 2 2.2208 232.038 5.59423 3.06636 22.4984
416 2 2.2208 232.038 8.11343 6.09188 22.7453
417 2 2.2208 232.038 8.20394 2.98934 25.4513
418 2 2.2208 232.038 5.27814 5.95783 25.5577
419 2 2.2208 232.038 10.8737 3.12963 22.7281
420 2 2.2208 232.038 10.9986 5.95371 25.5585
421 1 -1.1104 15.9994 9.61101 18.3863 23.8628
422 2 2.2208 232.038 2.5189 11.4718 22.6875
423 2 2.2208 232.038 2.58949 8.83956 25.6556
424 1 -1.1104 15.9994 9.80595 13.0742 26.696
425 2 2.2208 232.038 5.18533 8.5991 22.3692
426 2 2.2208 232.038 8.44281 11.4911 22.6576
427 2 2.2208 232.038 8.15149 8.57882 25.2317
428 2 2.2208 232.038 5.48112 11.4975 25.408
429 2 2.2208 232.038 11.1391 8.68346 22.6562
430 2 2.2208 232.038 11.2232 11.7522 25.367
9701 2 2.2208 232.038 13.8912 5.71716 28.0509
432 2 2.2208 232.038 2.53386 17.1837 22.4546
433 2 2.2208 232.038 2.63227 14.4037 25.328
645 1 -1.1104 15.9994 12.5861 12.9467 26.7708
435 2 2.2208 232.038 5.39722 14.2691 22.5564
436 2 2.2208 232.038 8.33729 17.1524 22.5096
437 2 2.2208 232.038 8.20358 14.3022 25.3412
438 2 2.2208 232.038 5.27523 17.1823 25.2392
439 2 2.2208 232.038 11.0345 14.4438 22.4648
440 2 2.2208 232.038 10.9182 17.1636 25.1795
651 1 -1.1104 15.9994 6.84126 18.6473 24.0572
442 1 -1.1104 15.9994 12.491 21.3385 24.0841
443 2 2.2208 232.038 2.32947 20.06 25.3485
653 1 -1.1104 15.9994 3.76136 18.5536 26.7608
445 2 2.2208 232.038 5.5376 19.9659 22.567
446 2 2.2208 232.038 8.51747 22.7563 22.474
447 2 2.2208 232.038 8.1 19.9154 25.4672
448 2 2.2208 232.038 5.44877 23.1394 25.2707
449 2 2.2208 232.038 11.1712 20.1338 22.4834
450 2 2.2208 232.038 11.035 22.7918 25.5317
451 1 -1.1104 15.9994 1.32883 -1.23977 15.533
452 1 -1.1104 15.9994 3.90893 -1.22922 15.5909
453 1 -1.1104 15.9994 1.02143 1.50905 15.5385
454 1 -1.1104 15.9994 3.80797 1.6436 15.3613
455 1 -1.1104 15.9994 6.78123 -1.39767 15.6117
456 1 -1.1104 15.9994 9.73835 -1.33767 15.9566
457 1 -1.1104 15.9994 6.41812 1.35054 15.7983
458 1 -1.1104 15.9994 9.39536 1.54519 15.485
459 1 -1.1104 15.9994 12.4106 -1.35935 15.548
460 1 -1.1104 15.9994 12.2316 1.46266 15.5565
461 1 -1.1104 15.9994 1.03885 4.33951 15.3258
462 1 -1.1104 15.9994 4.06377 4.3183 15.4694
463 1 -1.1104 15.9994 0.844164 7.30015 15.4374
464 1 -1.1104 15.9994 4.02533 7.22278 15.3062
465 1 -1.1104 15.9994 6.92042 4.29881 15.6627
466 1 -1.1104 15.9994 9.7888 4.422 15.4992
467 1 -1.1104 15.9994 6.90318 6.88749 15.7655
468 1 -1.1104 15.9994 9.93929 7.36672 15.3553
469 1 -1.1104 15.9994 12.5207 4.40698 15.2799
470 1 -1.1104 15.9994 12.8008 6.85303 15.6301
471 1 -1.1104 15.9994 1.23206 9.95986 15.4924
472 1 -1.1104 15.9994 3.89855 10.0422 15.3841
473 1 -1.1104 15.9994 1.24918 12.7781 15.5265
474 1 -1.1104 15.9994 4.03051 12.8047 15.279
475 1 -1.1104 15.9994 7.15361 10.0408 15.3255
476 1 -1.1104 15.9994 9.7406 10.1659 15.4053
477 1 -1.1104 15.9994 6.77805 13.0308 15.4674
478 1 -1.1104 15.9994 9.50255 12.8577 15.3142
479 1 -1.1104 15.9994 12.4114 9.99382 15.2245
480 1 -1.1104 15.9994 12.6386 12.8652 15.5281
481 1 -1.1104 15.9994 1.21212 15.3436 15.611
482 1 -1.1104 15.9994 3.97217 15.6067 15.4071
483 1 -1.1104 15.9994 1.22181 18.0216 15.3034
484 1 -1.1104 15.9994 4.17891 18.5251 15.2619
485 1 -1.1104 15.9994 6.57171 15.9769 15.6404
486 1 -1.1104 15.9994 9.28734 15.6243 15.4533
487 1 -1.1104 15.9994 6.94994 18.5815 15.5664
488 1 -1.1104 15.9994 9.68956 18.3522 15.2405
489 1 -1.1104 15.9994 12.1312 15.7768 15.4686
490 1 -1.1104 15.9994 12.5703 18.7197 15.1281
491 1 -1.1104 15.9994 1.35975 21.28 15.2583
492 1 -1.1104 15.9994 4.16205 21.1857 15.2252
493 1 -1.1104 15.9994 6.96117 21.3711 15.3716
494 1 -1.1104 15.9994 9.69247 21.4458 15.5578
495 1 -1.1104 15.9994 12.3904 21.4814 15.4897
496 1 -1.1104 15.9994 1.30058 -0.968468 18.5597
497 1 -1.1104 15.9994 4.08122 -1.08799 18.4966
498 1 -1.1104 15.9994 1.08748 -1.27191 21.3097
499 1 -1.1104 15.9994 3.89856 -1.00956 21.1888
500 1 -1.1104 15.9994 1.19344 1.56704 18.4648
501 1 -1.1104 15.9994 3.96785 1.68811 18.6203
502 1 -1.1104 15.9994 0.812517 1.57589 21.402
503 1 -1.1104 15.9994 3.8727 1.81517 21.4256
504 1 -1.1104 15.9994 6.91859 -1.36932 18.5289
505 1 -1.1104 15.9994 9.74051 -1.4279 18.7324
506 1 -1.1104 15.9994 6.5602 -1.26937 21.1973
507 1 -1.1104 15.9994 9.52301 -1.18754 21.409
508 1 -1.1104 15.9994 6.91588 1.39359 18.3893
509 1 -1.1104 15.9994 9.36502 1.64524 18.3219
510 1 -1.1104 15.9994 7.06609 1.50333 21.0594
511 1 -1.1104 15.9994 9.66813 1.57034 21.1076
512 1 -1.1104 15.9994 12.4339 -1.29937 18.3645
513 1 -1.1104 15.9994 12.3183 -1.29606 21.2177
514 1 -1.1104 15.9994 12.5332 1.53355 18.1189
515 1 -1.1104 15.9994 12.374 1.7142 20.8535
516 1 -1.1104 15.9994 1.04699 4.29736 18.3016
517 1 -1.1104 15.9994 4.07327 4.40417 18.2537
518 1 -1.1104 15.9994 0.928842 4.25865 21.1105
519 1 -1.1104 15.9994 4.079 4.52814 21.0712
520 1 -1.1104 15.9994 1.25971 6.97115 18.3492
521 1 -1.1104 15.9994 4.16944 7.21824 18.19
522 1 -1.1104 15.9994 0.908116 6.76555 21.3641
523 1 -1.1104 15.9994 3.94213 7.06611 21.1926
524 1 -1.1104 15.9994 6.85219 4.3937 18.3828
525 1 -1.1104 15.9994 9.55738 4.45913 18.2358
526 1 -1.1104 15.9994 6.69241 4.46462 21.0038
527 1 -1.1104 15.9994 9.53072 4.36476 21.254
528 1 -1.1104 15.9994 6.92539 7.20713 18.3752
529 1 -1.1104 15.9994 9.66206 7.47061 18.1053
530 1 -1.1104 15.9994 6.67381 7.14043 21.2966
531 1 -1.1104 15.9994 9.33647 7.24747 20.977
532 1 -1.1104 15.9994 12.4723 4.3456 17.9405
533 1 -1.1104 15.9994 12.3524 4.50548 21.0966
534 1 -1.1104 15.9994 12.2792 7.29501 18.398
535 1 -1.1104 15.9994 12.3069 7.33259 21.3759
536 1 -1.1104 15.9994 0.9901 9.90749 18.4481
537 1 -1.1104 15.9994 3.9694 10.0049 18.1674
538 1 -1.1104 15.9994 1.13596 9.72767 21.3931
539 1 -1.1104 15.9994 3.79113 10.0155 21.2016
540 1 -1.1104 15.9994 1.19099 12.553 18.1703
541 1 -1.1104 15.9994 4.03017 12.6909 18.2849
542 1 -1.1104 15.9994 0.868446 12.5464 20.9828
543 1 -1.1104 15.9994 3.88226 12.7697 21.1996
544 1 -1.1104 15.9994 6.82074 10.0964 18.077
545 1 -1.1104 15.9994 9.5924 10.2181 18.3734
546 1 -1.1104 15.9994 6.77934 10.003 20.9106
547 1 -1.1104 15.9994 9.64458 10.1904 21.2859
548 1 -1.1104 15.9994 6.88908 12.8931 18.5023
549 1 -1.1104 15.9994 9.76281 13.016 18.1596
550 1 -1.1104 15.9994 6.69888 12.7789 21.3061
551 1 -1.1104 15.9994 9.47888 12.7088 21.1462
552 1 -1.1104 15.9994 12.359 10.141 18.1099
553 1 -1.1104 15.9994 12.3202 10.0737 21.1002
554 1 -1.1104 15.9994 12.5154 13.1597 18.4022
555 1 -1.1104 15.9994 12.1861 12.8407 21.071
556 1 -1.1104 15.9994 0.951809 15.4477 18.4957
557 1 -1.1104 15.9994 3.78574 15.3466 18.3798
558 1 -1.1104 15.9994 1.18996 15.4676 21.1487
559 1 -1.1104 15.9994 4.42277 15.6687 21.249
560 1 -1.1104 15.9994 1.32153 18.0656 18.8036
561 1 -1.1104 15.9994 4.25307 18.345 18.1445
562 1 -1.1104 15.9994 1.13733 18.515 21.4337
563 1 -1.1104 15.9994 3.80986 18.4501 21.0969
564 1 -1.1104 15.9994 6.56834 15.5918 18.5716
565 1 -1.1104 15.9994 9.46411 15.6325 18.345
566 1 -1.1104 15.9994 6.99073 15.6355 21.261
567 1 -1.1104 15.9994 9.80575 15.9292 21.0458
568 1 -1.1104 15.9994 6.8334 18.3983 18.5042
569 1 -1.1104 15.9994 9.54198 18.5196 18.2366
570 1 -1.1104 15.9994 6.63691 18.5373 21.4652
571 1 -1.1104 15.9994 9.51073 18.579 20.942
572 1 -1.1104 15.9994 12.4339 15.9194 18.3206
573 1 -1.1104 15.9994 12.6145 15.8286 21.2288
574 1 -1.1104 15.9994 12.3258 18.6281 18.1063
575 1 -1.1104 15.9994 12.4737 18.8373 21.1424
576 1 -1.1104 15.9994 0.976867 21.1914 19.9756
577 1 -1.1104 15.9994 3.91011 21.34 17.9995
644 1 -1.1104 15.9994 12.5054 13.1805 23.7224
579 1 -1.1104 15.9994 4.23841 21.0873 20.7996
580 1 -1.1104 15.9994 6.73941 21.3552 18.1134
581 1 -1.1104 15.9994 9.59089 21.3986 18.2759
582 1 -1.1104 15.9994 7.13008 21.2745 21.1052
583 1 -1.1104 15.9994 9.98025 21.3846 21.0608
584 1 -1.1104 15.9994 12.563 21.4859 18.1406
585 1 -1.1104 15.9994 12.7697 21.5427 21.0885
586 1 -1.1104 15.9994 1.20299 -1.07151 24.379
587 1 -1.1104 15.9994 3.92353 -1.226 24.0315
588 1 -1.1104 15.9994 1.217 -1.43529 26.9371
589 1 -1.1104 15.9994 3.96727 -1.203 26.758
590 1 -1.1104 15.9994 1.2936 1.86854 24.198
591 1 -1.1104 15.9994 4.23497 1.62803 24.2325
592 1 -1.1104 15.9994 1.21922 1.4664 26.9076
593 1 -1.1104 15.9994 3.87273 1.78432 27.0992
594 1 -1.1104 15.9994 6.61555 -1.25787 23.8827
595 1 -1.1104 15.9994 9.3474 -1.06186 23.9868
596 1 -1.1104 15.9994 6.99725 -1.02049 26.6488
597 1 -1.1104 15.9994 9.79304 -1.36367 26.8284
598 1 -1.1104 15.9994 6.97191 1.76146 24.1043
599 1 -1.1104 15.9994 9.76272 1.6321 24.251
600 1 -1.1104 15.9994 6.64905 1.64436 26.8761
601 1 -1.1104 15.9994 9.59842 1.62558 27.0194
602 1 -1.1104 15.9994 12.5515 -1.60108 23.9082
603 1 -1.1104 15.9994 12.5562 -1.06675 26.9548
604 1 -1.1104 15.9994 12.5366 1.29151 23.825
605 1 -1.1104 15.9994 12.574 1.6697 26.7484
606 1 -1.1104 15.9994 0.964749 4.59424 23.939
607 1 -1.1104 15.9994 3.7866 4.23919 24.0123
608 1 -1.1104 15.9994 1.27043 4.54738 26.8903
609 1 -1.1104 15.9994 4.07363 4.4513 26.845
610 1 -1.1104 15.9994 0.997206 7.43545 24.3405
611 1 -1.1104 15.9994 3.59413 7.29973 23.9665
612 1 -1.1104 15.9994 1.08249 7.37509 27.0538
613 1 -1.1104 15.9994 3.64987 7.42225 27.0336
614 1 -1.1104 15.9994 6.80724 4.40728 24.0755
615 1 -1.1104 15.9994 9.76392 4.63941 23.8319
616 1 -1.1104 15.9994 6.56116 4.49781 26.9337
617 1 -1.1104 15.9994 9.42153 4.31742 26.8186
618 1 -1.1104 15.9994 6.51176 7.14623 24.0938
619 1 -1.1104 15.9994 9.42857 7.30223 23.7781
620 1 -1.1104 15.9994 6.95328 7.07973 27.0127
621 1 -1.1104 15.9994 9.67628 7.28983 26.661
622 1 -1.1104 15.9994 12.3955 4.4512 24.1604
623 1 -1.1104 15.9994 12.4163 4.4383 26.9149
624 1 -1.1104 15.9994 12.3747 7.3326 24.0896
625 1 -1.1104 15.9994 12.5296 7.17925 26.9126
626 1 -1.1104 15.9994 1.37617 10.1434 24.2616
627 1 -1.1104 15.9994 4.07922 10.2041 24.2421
628 1 -1.1104 15.9994 0.887922 10.2409 26.896
629 1 -1.1104 15.9994 4.10183 10.0992 27
630 1 -1.1104 15.9994 0.924392 12.8023 23.922
631 1 -1.1104 15.9994 3.69787 13.0226 23.9375
632 1 -1.1104 15.9994 0.964307 13.0233 26.7782
633 1 -1.1104 15.9994 3.84864 12.8428 26.9238
634 1 -1.1104 15.9994 6.51655 9.98729 23.8891
635 1 -1.1104 15.9994 9.62826 9.98965 23.9423
636 1 -1.1104 15.9994 6.89079 9.91922 26.608
637 1 -1.1104 15.9994 9.74311 21.5709 26.8676
638 1 -1.1104 15.9994 6.86654 12.7588 23.898
639 1 -1.1104 15.9994 9.74627 12.8328 23.8488
640 1 -1.1104 15.9994 6.95839 12.8686 26.7179
641 1 -1.1104 15.9994 9.47163 9.97822 26.7943
642 1 -1.1104 15.9994 12.5349 10.1516 23.7361
643 1 -1.1104 15.9994 12.2775 10.1731 26.6576
9370 2 2.2208 232.038 13.7356 14.5742 19.6087
334 2 2.2208 232.038 5.55574 5.77571 14.0049