LAMMPS (29 Oct 2020)
OMP_NUM_THREADS environment is not set. Defaulting to 1 thread. (../comm.cpp:94)
  using 1 OpenMP thread(s) per MPI task
OMP_NUM_THREADS environment is not set. Defaulting to 1 thread. (../comm.cpp:94)
  using 1 OpenMP thread(s) per MPI task
Reading data file ...
  triclinic box = (-0.18502437 -2.3261235 -0.19671086) to (28.079024 337.05412 28.090711) with tilt (0.0000000 0.0000000 0.0000000)
  2 by 13 by 2 MPI processor grid
  reading atoms ...
  18000 atoms
  reading velocities ...
  18000 velocities
Finding 1-2 1-3 1-4 neighbors ...
  special bond factors lj:    0.0      0.0      0.0     
  special bond factors coul:  0.0      0.0      0.0     
     0 = max # of 1-2 neighbors
     0 = max # of 1-3 neighbors
     0 = max # of 1-4 neighbors
     1 = max # of special neighbors
  special bonds CPU = 0.004 seconds
  read_data CPU = 0.056 seconds
Setting atom values ...
  11940 settings made for charge
Setting atom values ...
  5970 settings made for charge
PPPM initialization ...
  using 12-bit tables for long-range coulomb (../kspace.cpp:328)
  G vector (1/distance) = 0.29840499
  grid = 40 240 40
  stencil order = 5
  estimated absolute RMS force accuracy = 0.00016125068
  estimated relative force accuracy = 1.119824e-05
  using single precision MKL FFT
  3d grid and FFT values/proc = 15000 7600
Neighbor list info ...
  update every 1 steps, delay 0 steps, check yes
  max neighbors/atom: 2000, page size: 100000
  master list distance cutoff = 11.3
  ghost atom cutoff = 11.3
  binsize = 5.65, bins = 6 61 6
  2 neighbor lists, perpetual/occasional/extra = 2 0 0
  (1) pair coul/long, perpetual
      attributes: half, newton on
      pair build: half/bin/newton/tri
      stencil: half/bin/3d/newton/tri
      bin: standard
  (2) pair eam/alloy, perpetual, copy from (1)
      attributes: half, newton on
      pair build: copy
      stencil: none
      bin: none
Setting up Verlet run ...
  Unit style    : metal
  Current step  : 0
  Time step     : 0.001
Per MPI rank memory allocation (min/avg/max) = 8.314 | 8.344 | 8.361 Mbytes
Step Temp E_pair E_mol TotEng Press 
       0         1200   -233509.95            0   -230718.08   -61.579783 
  100000     1205.826   -233542.65            0   -230737.24   -677.65772 
Loop time of 722.586 on 52 procs for 100000 steps with 18000 atoms

Performance: 11.957 ns/day, 2.007 hours/ns, 138.392 timesteps/s
99.8% CPU use with 52 MPI tasks x 1 OpenMP threads

MPI task timing breakdown:
Section |  min time  |  avg time  |  max time  |%varavg| %total
---------------------------------------------------------------
Pair    | 453.06     | 468.7      | 494.8      |  53.1 | 64.86
Bond    | 0.006128   | 0.010352   | 0.014495   |   1.9 |  0.00
Kspace  | 143.81     | 172.88     | 189.99     |  92.4 | 23.93
Neigh   | 51.063     | 54.273     | 59.918     |  30.2 |  7.51
Comm    | 19.488     | 21.072     | 25.798     |  31.1 |  2.92
Output  | 5.3816e-05 | 5.9067e-05 | 0.00026256 |   0.0 |  0.00
Modify  | 1.8337     | 4.064      | 6.4445     |  75.4 |  0.56
Other   |            | 1.585      |            |       |  0.22

Nlocal:        346.154 ave         369 max         326 min
Histogram: 3 8 5 5 9 5 5 5 3 4
Nghost:        4004.77 ave        4121 max        3908 min
Histogram: 6 9 5 3 6 5 3 7 5 3
Neighs:        69628.0 ave       75404 max       64725 min
Histogram: 2 6 7 7 9 6 7 3 3 2

Total # of neighbors = 3620656
Ave neighs/atom = 201.14756
Ave special neighs/atom = 0.0000000
Neighbor list builds = 22002
Dangerous builds = 0
11940 atoms in group oxygen
PPPM initialization ...
  using 12-bit tables for long-range coulomb (../kspace.cpp:328)
  G vector (1/distance) = 0.29840499
  grid = 40 240 40
  stencil order = 5
  estimated absolute RMS force accuracy = 0.00016125068
  estimated relative force accuracy = 1.119824e-05
  using single precision MKL FFT
  3d grid and FFT values/proc = 15000 7600
Setting up Verlet run ...
  Unit style    : metal
  Current step  : 0
  Time step     : 0.001
Per MPI rank memory allocation (min/avg/max) = 8.565 | 8.594 | 8.612 Mbytes
Step f_2 Temp v_Tdiff v_deltaT 
       0            0     1205.826            0            0 
  100000    1300.0091    1195.7231  0.048321168    561.00428 
  200000    2531.4775    1200.6179   0.05691637    660.79377 
  300000     3758.472    1203.7156  0.059024818    685.27265 
  400000    4979.8687    1203.3719  0.058602063     680.3645 
  500000    6204.4265    1193.7771  0.056880646    660.37902 
  600000    7431.4778     1193.766  0.057829355    671.39344 
  700000    8652.2761     1199.299  0.058860287    683.36246 
  800000    9879.8262    1200.2608  0.060379691    701.00261 
  900000    11098.654    1195.7045  0.057614399    668.89782 
 1000000    12335.986    1207.6293  0.058956344    684.47768 
Loop time of 7198.02 on 52 procs for 1000000 steps with 18000 atoms

Performance: 12.003 ns/day, 1.999 hours/ns, 138.927 timesteps/s
99.8% CPU use with 52 MPI tasks x 1 OpenMP threads

MPI task timing breakdown:
Section |  min time  |  avg time  |  max time  |%varavg| %total
---------------------------------------------------------------
Pair    | 4492.7     | 4656.7     | 4874.6     | 160.8 | 64.69
Bond    | 0.061654   | 0.10372    | 0.14495    |   6.1 |  0.00
Kspace  | 1445.6     | 1695.6     | 1877.1     | 283.6 | 23.56
Neigh   | 554.93     | 586.08     | 643.34     |  94.1 |  8.14
Comm    | 198.84     | 214.41     | 260.66     |  96.9 |  2.98
Output  | 0.0011269  | 0.0011913  | 0.0023619  |   0.5 |  0.00
Modify  | 5.7204     | 6.4615     | 7.363      |  17.3 |  0.09
Other   |            | 38.63      |            |       |  0.54

Nlocal:        346.154 ave         371 max         328 min
Histogram: 3 8 4 13 4 4 9 3 3 1
Nghost:        4012.40 ave        4115 max        3907 min
Histogram: 2 7 8 4 6 5 4 3 8 5
Neighs:        69639.5 ave       75502 max       65256 min
Histogram: 2 7 7 12 4 8 5 3 2 2

Total # of neighbors = 3621255
Ave neighs/atom = 201.18083
Ave special neighs/atom = 0.0000000
Neighbor list builds = 236264
Dangerous builds = 0
Total wall time: 2:12:01
