LAMMPS (29 Oct 2020)
OMP_NUM_THREADS environment is not set. Defaulting to 1 thread. (../comm.cpp:94)
  using 1 OpenMP thread(s) per MPI task
#---------------------------------------
#
# This script is used to calculate the thermal conuctivity of UO2 using Muller-Plathe method
# By Ziqiang Wang on 03/18/2022 on Jilin university
#
#---------------------------------------

variable     Nevery    equal   20
variable     T         equal   600

clear
OMP_NUM_THREADS environment is not set. Defaulting to 1 thread. (../comm.cpp:94)
  using 1 OpenMP thread(s) per MPI task
units          metal
boundary       p p p
atom_style     full

read_data vac_0.02_relaxed.dat
Reading data file ...
  orthogonal box = (-0.35516565 -4.2468482 -0.35447675) to (27.695166 332.32685 27.694477)
  2 by 13 by 2 MPI processor grid
  reading atoms ...
  17640 atoms
  reading velocities ...
  17640 velocities
Finding 1-2 1-3 1-4 neighbors ...
  special bond factors lj:    0.0      0.0      0.0     
  special bond factors coul:  0.0      0.0      0.0     
     0 = max # of 1-2 neighbors
     0 = max # of 1-3 neighbors
     0 = max # of 1-4 neighbors
     1 = max # of special neighbors
  special bonds CPU = 0.003 seconds
  read_data CPU = 0.067 seconds

set           type     1    charge     -1.1104
Setting atom values ...
  11760 settings made for charge
set           type     2    charge      2.2208
Setting atom values ...
  5880 settings made for charge

kspace_style    pppm   1.0e-05
pair_style      hybrid/overlay  coul/long  11.0  eam/alloy
pair_coeff      * * coul/long
pair_coeff      * * eam/alloy CeThUNpPuAmCmO.eam.alloy O Th
newton          on
neighbor        0.3 bin
neigh_modify    delay 0 check yes every 1

#The first equilation
velocity        all create $T 10003 mom yes rot yes dist gaussian
velocity        all create 600 10003 mom yes rot yes dist gaussian
fix             nvt  all  nvt  temp  $T $T  0.1
fix             nvt  all  nvt  temp  600 $T  0.1
fix             nvt  all  nvt  temp  600 600  0.1

run             100000
PPPM initialization ...
  using 12-bit tables for long-range coulomb (../kspace.cpp:328)
  G vector (1/distance) = 0.29883693
  grid = 40 240 40
  stencil order = 5
  estimated absolute RMS force accuracy = 0.00015601772
  estimated relative force accuracy = 1.0834831e-05
  using single precision MKL FFT
  3d grid and FFT values/proc = 15000 7600
Neighbor list info ...
  update every 1 steps, delay 0 steps, check yes
  max neighbors/atom: 2000, page size: 100000
  master list distance cutoff = 11.3
  ghost atom cutoff = 11.3
  binsize = 5.65, bins = 5 60 5
  2 neighbor lists, perpetual/occasional/extra = 2 0 0
  (1) pair coul/long, perpetual
      attributes: half, newton on
      pair build: half/bin/newton
      stencil: half/bin/3d/newton
      bin: standard
  (2) pair eam/alloy, perpetual, copy from (1)
      attributes: half, newton on
      pair build: copy
      stencil: none
      bin: none
Per MPI rank memory allocation (min/avg/max) = 8.142 | 8.178 | 8.198 Mbytes
Step Temp E_pair E_mol TotEng Press 
       0          600   -230565.12            0   -229197.11    96.489836 
  100000    604.93649   -230558.97            0    -229179.7   -108.99539 
Loop time of 647.106 on 52 procs for 100000 steps with 17640 atoms

Performance: 13.352 ns/day, 1.798 hours/ns, 154.534 timesteps/s
99.8% CPU use with 52 MPI tasks x 1 OpenMP threads

MPI task timing breakdown:
Section |  min time  |  avg time  |  max time  |%varavg| %total
---------------------------------------------------------------
Pair    | 419.68     | 448.02     | 462.97     |  45.7 | 69.23
Bond    | 0.0066895  | 0.0099863  | 0.016674   |   2.1 |  0.00
Kspace  | 127.58     | 145.55     | 179.41     |  96.2 | 22.49
Neigh   | 26.082     | 34.144     | 37.553     |  48.0 |  5.28
Comm    | 13.825     | 14.893     | 17.078     |  26.1 |  2.30
Output  | 5.6492e-05 | 6.2427e-05 | 0.00026923 |   0.0 |  0.00
Modify  | 1.7832     | 3.2511     | 5.3904     |  65.2 |  0.50
Other   |            | 1.238      |            |       |  0.19

Nlocal:        339.231 ave         372 max         300 min
Histogram: 5 3 0 0 8 18 5 3 7 3
Nghost:        4098.44 ave        4281 max        3830 min
Histogram: 4 4 4 4 4 1 10 6 3 12
Neighs:        67621.0 ave       74527 max       51423 min
Histogram: 3 1 0 3 0 1 9 18 8 9

Total # of neighbors = 3516294
Ave neighs/atom = 199.33639
Ave special neighs/atom = 0.0000000
Neighbor list builds = 16202
Dangerous builds = 0
unfix           nvt
reset_timestep  0

# the second run
fix             1 all nve

group           oxygen type 1
11760 atoms in group oxygen
fix             2 oxygen thermal/conductivity ${Nevery} y 20
fix             2 oxygen thermal/conductivity 20 y 20

compute         ke all ke/atom
variable        temp atom c_ke/1.5
compute         layers all chunk/atom bin/1d y lower 0.05 units reduced
fix             3      all ave/chunk  2000 50 100000 layers v_temp file profile_${T}K.mp
fix             3      all ave/chunk  2000 50 100000 layers v_temp file profile_600K.mp

variable        Tdiff    equal     f_3[11][3]-f_3[1][3]
variable        deltaT   equal     v_Tdiff*1.5/0.0001292

timestep        0.001
thermo_style    custom step f_2 temp v_Tdiff v_deltaT
thermo          100000

run             1000000
PPPM initialization ...
  using 12-bit tables for long-range coulomb (../kspace.cpp:328)
  G vector (1/distance) = 0.29883693
  grid = 40 240 40
  stencil order = 5
  estimated absolute RMS force accuracy = 0.00015601772
  estimated relative force accuracy = 1.0834831e-05
  using single precision MKL FFT
  3d grid and FFT values/proc = 15000 7600
Per MPI rank memory allocation (min/avg/max) = 8.393 | 8.429 | 8.449 Mbytes
Step f_2 Temp v_Tdiff v_deltaT 
       0            0    604.93649            0            0 
  100000     1406.395    604.77508   0.03710598    430.79698 
  200000     2772.852    604.94785  0.040541596    470.68416 
  300000    4139.0129    603.85406   0.04047489    469.90971 
  400000    5519.0709    600.87085  0.039759605    461.60532 
  500000    6887.9149     606.9567  0.040122812    465.82212 
  600000    8251.1782    605.81624  0.041008595    476.10598 
  700000    9625.6978    600.98162  0.040229701    467.06309 
  800000     11000.51    605.78854  0.040673739    472.21833 
  900000    12368.574    605.71594  0.039994722    464.33501 
 1000000    13740.146    608.17713  0.039911303    463.36652 
Loop time of 6424.15 on 52 procs for 1000000 steps with 17640 atoms

Performance: 13.449 ns/day, 1.784 hours/ns, 155.663 timesteps/s
99.9% CPU use with 52 MPI tasks x 1 OpenMP threads

MPI task timing breakdown:
Section |  min time  |  avg time  |  max time  |%varavg| %total
---------------------------------------------------------------
Pair    | 4157.5     | 4410.1     | 4581.5     | 125.4 | 68.65
Bond    | 0.069212   | 0.10136    | 0.17781    |   6.5 |  0.00
Kspace  | 1263.9     | 1459.1     | 1775.6     | 266.6 | 22.71
Neigh   | 279.03     | 367.23     | 403.11     | 158.5 |  5.72
Comm    | 140.03     | 150.57     | 176.41     |  86.9 |  2.34
Output  | 0.001071   | 0.0011371  | 0.0024445  |   0.5 |  0.00
Modify  | 6.1502     | 7.0148     | 8.2245     |  22.5 |  0.11
Other   |            | 29.96      |            |       |  0.47

Nlocal:        339.231 ave         367 max         297 min
Histogram: 4 3 1 0 0 13 12 10 4 5
Nghost:        4126.08 ave        4295 max        3836 min
Histogram: 4 3 9 0 0 4 0 7 16 9
Neighs:        67633.0 ave       74300 max       51690 min
Histogram: 4 0 1 2 1 0 5 16 17 6

Total # of neighbors = 3516916
Ave neighs/atom = 199.37166
Ave special neighs/atom = 0.0000000
Neighbor list builds = 174511
Dangerous builds = 0

Total wall time: 1:57:51
