ITEM: TIMESTEP
80000
ITEM: NUMBER OF ATOMS
17640
ITEM: BOX BOUNDS pp pp pp
-3.2658727341022370e-01 2.7666587273410336e+01
-3.8860922085971263e+00 3.3196609220859585e+02
-3.2819693186833820e-01 2.7668196931869293e+01
ITEM: ATOMS id type q x y z
1 2 2.2208 5.3225 1.78951 5.24632
2 1 -1.1104 1.07283 -2.55185 1.03087
3 1 -1.1104 1.16631 3.02991 1.04013
6 1 -1.1104 1.16253 -2.54711 3.82939
7 1 -1.1104 1.12989 3.19768 3.89842
10 1 -1.1104 1.13545 0.237553 1.20462
12 2 2.2208 5.26413 -1.01178 2.48154
13 2 2.2208 5.27258 4.56574 2.45278
14 1 -1.1104 1.02885 0.323523 3.92547
16 1 -1.1104 3.93 -2.54934 1.1053
17 1 -1.1104 3.9198 2.99454 0.98637
18 2 2.2208 2.52134 1.66969 2.44264
19 1 -1.1104 3.9994 -2.44778 3.8971
20 1 -1.1104 3.79897 3.15987 3.78525
21 2 2.2208 2.53481 -1.06851 5.26705
22 2 2.2208 2.44813 4.51334 5.33807
23 1 -1.1104 3.97655 0.266698 1.11055
24 1 -1.1104 3.96101 0.31916 3.94199
9 1 -1.1104 6.62607 3.11289 3.86326
5 1 -1.1104 6.66402 3.07773 1.15863
4 1 -1.1104 6.72684 -2.45219 1.00273
15 1 -1.1104 6.81764 0.354371 3.86366
171 1 -1.1104 6.61484 0.26522 6.66098
8 1 -1.1104 6.75339 -2.42238 3.87311
11 1 -1.1104 6.81499 0.284485 1.16033
8300 2 2.2208 2.57851 -3.91338 2.49143
169 1 -1.1104 6.71929 3.12016 6.66493
173 1 -1.1104 3.90732 3.18695 6.70709
167 1 -1.1104 1.05197 3.04506 6.69011
9066 2 2.2208 -0.315106 12.9171 10.8402
231 2 2.2208 8.11915 18.4813 8.0742
201 2 2.2208 -0.269973 1.65957 10.889
31 2 2.2208 10.8315 1.68181 5.2665
32 1 -1.1104 12.2594 -2.36493 1.0984
33 1 -1.1104 12.2998 3.17677 1.08365
34 1 -1.1104 12.2977 -2.48356 3.83761
35 1 -1.1104 12.2632 3.1119 3.91708
36 1 -1.1104 12.3385 0.358248 0.980968
37 2 2.2208 10.8776 -1.03406 2.50197
38 2 2.2208 10.9337 4.46106 2.5272
39 1 -1.1104 12.2738 0.27344 3.85556
40 1 -1.1104 9.5125 -2.42826 1.1021
41 1 -1.1104 9.44208 3.09345 1.14484
42 2 2.2208 8.11144 1.76206 2.47231
43 1 -1.1104 9.50836 -2.35688 3.96371
44 1 -1.1104 9.49031 3.16303 3.953
45 2 2.2208 8.06754 -1.04168 5.27303
46 2 2.2208 8.11159 4.44554 5.20282
47 1 -1.1104 9.54704 0.459335 1.03045
48 1 -1.1104 9.56777 0.438498 3.79792
49 2 2.2208 13.6972 1.58723 2.51158
324 2 2.2208 8.13489 18.4608 13.6542
30 2 2.2208 13.6687 4.52078 5.33659
208 1 -1.1104 9.41223 -2.48932 6.65957
329 2 2.2208 13.7266 -1.06483 -0.392372
199 2 2.2208 -0.250105 4.5745 8.04788
210 1 -1.1104 9.54082 0.266287 6.64174
206 1 -1.1104 12.2967 3.05769 6.66592
662 2 2.2208 10.9541 1.733 -0.34366
54 2 2.2208 5.30903 7.34443 5.21521
55 2 2.2208 5.27336 12.8812 5.22789
56 1 -1.1104 0.979485 8.54712 1.16954
58 1 -1.1104 1.12526 8.74228 3.97282
60 1 -1.1104 1.07258 5.84287 1.02056
61 1 -1.1104 1.17352 11.3089 1.10647
66 2 2.2208 5.31346 10.063 2.48888
67 1 -1.1104 1.13773 5.91619 3.81085
68 1 -1.1104 1.18196 11.5253 3.91581
71 1 -1.1104 3.96524 8.60201 1.10618
72 2 2.2208 2.48388 7.28378 2.56184
73 2 2.2208 2.49169 12.8272 2.49906
74 1 -1.1104 3.85316 8.64531 3.88469
75 2 2.2208 2.50515 10.1546 5.29965
76 1 -1.1104 3.85543 5.83019 1.02116
77 1 -1.1104 3.93134 11.4904 1.05949
79 1 -1.1104 3.96198 6.02928 3.98074
80 1 -1.1104 3.89662 11.4778 3.92773
64 1 -1.1104 6.69519 11.5543 1.04256
70 1 -1.1104 6.67843 11.4327 3.94413
69 1 -1.1104 6.79705 5.92648 3.74231
63 1 -1.1104 6.6441 5.86723 1.01737
235 1 -1.1104 6.78769 8.65696 6.67426
59 1 -1.1104 6.71096 8.71388 3.86676
234 1 -1.1104 0.994352 8.66051 6.69289
65 1 -1.1104 6.69343 11.423 6.61113
57 1 -1.1104 6.85066 8.64604 1.09693
239 1 -1.1104 3.88569 5.93079 6.79226
236 1 -1.1104 1.14656 5.91458 6.6074
237 1 -1.1104 6.64183 5.89675 6.5612
136 2 2.2208 11.0079 21.2131 8.13994
327 2 2.2208 13.6318 7.24183 2.48493
84 2 2.2208 10.8725 7.31024 5.36518
85 2 2.2208 10.951 12.8464 5.2861
86 1 -1.1104 12.3141 8.67249 1.08141
87 1 -1.1104 12.231 8.70809 3.95492
88 1 -1.1104 12.2515 5.81211 1.04795
89 1 -1.1104 12.227 11.3595 1.0746
91 2 2.2208 10.8743 10.1336 2.53577
92 1 -1.1104 12.3044 5.84344 3.93706
93 1 -1.1104 12.3877 11.5096 3.98884
94 1 -1.1104 9.55201 8.69209 1.14261
95 2 2.2208 8.16996 7.26672 2.48665
96 2 2.2208 8.00925 12.9311 2.43508
97 1 -1.1104 9.43436 8.73102 3.97325
98 2 2.2208 8.11706 10.126 5.24572
99 1 -1.1104 9.49902 5.95734 1.08148
100 1 -1.1104 9.45584 11.5254 1.12949
102 1 -1.1104 9.60588 5.89602 3.88045
103 1 -1.1104 9.55478 11.5308 3.98129
8873 2 2.2208 13.7457 9.96554 5.28421
267 1 -1.1104 9.50856 8.75258 6.73151
269 1 -1.1104 9.46511 5.84627 6.62703
266 1 -1.1104 12.3053 5.9344 6.77902
101 1 -1.1104 9.55823 11.4592 6.72432
265 1 -1.1104 12.1907 8.66234 6.76464
90 1 -1.1104 12.3973 11.4781 6.76576
9147 2 2.2208 13.7816 12.7535 2.37882
106 2 2.2208 5.29206 18.4291 5.21198
107 1 -1.1104 1.09566 14.1765 1.08244
109 1 -1.1104 1.15601 19.7656 1.11987
113 1 -1.1104 1.05481 14.3262 3.88397
114 1 -1.1104 1.07228 19.8093 3.83008
116 1 -1.1104 1.19838 17.0454 1.00556
119 2 2.2208 5.26656 15.6569 2.42333
120 2 2.2208 5.37327 21.2962 2.49232
121 1 -1.1104 1.13437 17.1461 3.75701
123 1 -1.1104 3.84414 14.2609 1.0226
125 1 -1.1104 3.97014 19.8834 1.07461
127 2 2.2208 2.62114 18.4475 2.38409
128 1 -1.1104 3.88937 14.245 3.79901
129 1 -1.1104 3.8494 19.8956 3.86636
130 2 2.2208 2.51415 15.7137 5.20682
131 2 2.2208 2.58043 21.2688 5.21129
132 1 -1.1104 3.93427 16.999 1.06932
134 1 -1.1104 3.96831 17.1078 3.83929
140 1 -1.1104 6.77603 17.0451 1.16741
110 1 -1.1104 6.64701 14.3143 1.0073
115 1 -1.1104 6.60914 14.2465 3.77812
122 1 -1.1104 6.68537 17.0871 3.8612
124 1 -1.1104 3.83649 14.3428 6.55035
302 1 -1.1104 1.10846 19.9488 6.6597
154 1 -1.1104 9.47128 14.235 6.64038
138 1 -1.1104 6.75809 19.9307 1.14641
112 1 -1.1104 6.7429 19.8894 6.77255
145 1 -1.1104 12.4718 19.8534 6.71843
156 1 -1.1104 9.60012 19.8072 6.7667
139 1 -1.1104 6.75793 19.8085 3.9312
8872 2 2.2208 13.7486 18.549 2.48526
8942 2 2.2208 13.7127 15.665 5.19562
163 1 -1.1104 9.42543 16.9706 6.60916
141 2 2.2208 10.9452 18.4922 5.22764
142 1 -1.1104 12.3754 14.1617 1.07974
144 1 -1.1104 12.3986 19.8531 1.02429
146 1 -1.1104 12.2945 14.2301 3.87946
147 1 -1.1104 12.2936 19.8402 3.93615
148 1 -1.1104 12.2823 17.016 1.16191
150 2 2.2208 10.8697 15.6977 2.51152
151 2 2.2208 10.9825 21.283 2.56322
152 1 -1.1104 12.2492 17.2181 3.84055
153 1 -1.1104 9.60465 14.2797 1.00683
155 1 -1.1104 9.59463 19.9058 1.01732
157 2 2.2208 8.19312 18.504 2.48561
158 1 -1.1104 9.47335 14.3043 3.84659
159 1 -1.1104 9.49756 19.9393 3.81287
160 2 2.2208 8.0829 15.6807 5.21922
161 2 2.2208 8.15127 21.177 5.25965
162 1 -1.1104 9.61863 17.2211 1.18466
164 1 -1.1104 9.59108 17.0731 3.98264
105 1 -1.1104 12.3222 17.1601 12.1606
149 1 -1.1104 12.3102 17.0571 6.6236
289 1 -1.1104 6.75789 17.0378 9.47465
174 1 -1.1104 3.9186 0.370375 6.77945
172 1 -1.1104 3.95739 -2.56503 6.71556
166 1 -1.1104 1.07405 -2.48743 6.63803
170 1 -1.1104 1.12533 0.227442 6.68921
175 2 2.2208 5.27384 1.73937 10.9413
176 1 -1.1104 1.16045 -2.54 12.1737
177 1 -1.1104 1.12513 3.08245 12.3014
180 1 -1.1104 1.07691 -2.50594 9.40739
181 1 -1.1104 1.136 2.99086 9.39371
184 1 -1.1104 1.08439 0.258741 12.2588
186 2 2.2208 5.32836 -1.09321 8.16145
187 2 2.2208 5.24188 4.53795 8.12662
188 1 -1.1104 1.05009 0.354714 9.46956
190 1 -1.1104 3.97149 -2.52517 12.3234
191 1 -1.1104 3.86547 3.1606 12.3953
192 2 2.2208 2.57385 1.66328 8.17346
193 1 -1.1104 3.86611 -2.46339 9.44449
194 1 -1.1104 3.867 3.0701 9.54608
195 2 2.2208 2.5318 -1.14129 10.9107
196 2 2.2208 2.45802 4.48785 10.8983
197 1 -1.1104 3.80703 0.388822 12.3401
198 1 -1.1104 3.96871 0.24256 9.60347
182 1 -1.1104 6.75373 -2.45964 9.42262
183 1 -1.1104 6.59471 3.31867 9.57261
189 1 -1.1104 6.72807 0.434127 9.43545
168 1 -1.1104 6.76525 -2.48198 6.63027
185 1 -1.1104 6.59875 0.280853 12.2524
179 1 -1.1104 6.71449 3.14599 12.2908
297 1 -1.1104 6.63057 14.3521 12.0324
376 2 2.2208 5.26532 -1.06213 13.5908
8871 2 2.2208 -0.312325 21.2782 7.92652
8448 2 2.2208 5.27429 -3.931 10.8784
205 1 -1.1104 12.2557 -2.50964 6.6281
207 1 -1.1104 12.3025 0.272483 6.58697
178 1 -1.1104 6.66249 -2.60562 12.2357
209 1 -1.1104 9.5266 3.09059 6.68944
25 2 2.2208 -0.244699 -1.15736 2.47434
323 2 2.2208 10.8818 15.6815 13.6176
229 2 2.2208 13.645 1.62855 7.9892
211 2 2.2208 10.8201 1.7112 10.8932
212 1 -1.1104 12.2555 -2.47702 12.2733
213 1 -1.1104 12.211 3.00035 12.3324
214 1 -1.1104 12.2131 -2.43537 9.38261
215 1 -1.1104 12.2869 3.074 9.55609
216 1 -1.1104 12.3107 0.13882 12.3452
217 2 2.2208 10.8497 -1.13087 8.00373
218 2 2.2208 10.8406 4.49202 8.04454
219 1 -1.1104 12.2321 0.337007 9.47336
220 1 -1.1104 9.48272 -2.43064 12.3336
221 1 -1.1104 9.46748 3.18325 12.2189
222 2 2.2208 8.12366 1.76187 8.09595
223 1 -1.1104 9.44458 -2.43783 9.43917
224 1 -1.1104 9.38663 3.11196 9.52495
225 2 2.2208 8.09459 -1.12009 10.8631
226 2 2.2208 8.01206 4.55987 10.883
227 1 -1.1104 9.51056 0.28638 12.2509
228 1 -1.1104 9.46047 0.387532 9.45588
230 2 2.2208 13.5853 -1.15216 10.8989
310 2 2.2208 13.6853 1.71881 13.7044
658 2 2.2208 10.8053 -1.08734 13.6469
409 2 2.2208 8.12979 1.77315 13.6837
8782 2 2.2208 13.6223 -3.99774 13.667
9142 2 2.2208 13.7073 15.7154 10.8579
135 2 2.2208 10.9425 15.6656 7.99236
62 1 -1.1104 1.06384 11.5005 6.70478
238 1 -1.1104 3.90034 8.77116 6.69957
78 1 -1.1104 3.87007 11.4478 6.6844
240 2 2.2208 5.3921 7.34334 10.8437
241 2 2.2208 5.20072 12.9895 10.8003
242 1 -1.1104 1.1054 8.61205 12.2523
244 1 -1.1104 1.09847 8.66006 9.43082
246 1 -1.1104 1.1657 5.79555 12.3547
247 1 -1.1104 1.09567 11.4417 12.1968
250 2 2.2208 5.34669 10.1395 8.11384
251 1 -1.1104 1.09777 5.79111 9.5149
252 1 -1.1104 1.13691 11.5366 9.48075
255 1 -1.1104 3.95955 8.68076 12.2648
256 2 2.2208 2.48378 7.32166 8.05382
257 2 2.2208 2.47724 12.8772 8.07892
258 1 -1.1104 3.91502 8.68138 9.43124
259 2 2.2208 2.48562 10.028 10.8017
260 1 -1.1104 4.02712 5.97194 12.2914
261 1 -1.1104 3.93652 11.4649 12.2257
262 1 -1.1104 3.76827 5.87354 9.47112
263 1 -1.1104 3.96797 11.5557 9.44604
253 1 -1.1104 6.56971 5.99996 9.47691
245 1 -1.1104 6.76575 8.73362 9.46685
243 1 -1.1104 6.75633 8.76812 12.3579
254 1 -1.1104 6.72107 11.5131 9.40332
249 1 -1.1104 6.70093 11.6084 12.1537
248 1 -1.1104 6.78193 5.93221 12.2639
445 2 2.2208 2.52432 7.26211 13.7147
446 2 2.2208 5.3663 10.114 13.6785
9143 2 2.2208 13.903 18.4607 8.05296
322 2 2.2208 13.7388 7.19206 8.14831
9060 2 2.2208 13.7581 10.0369 10.834
264 1 -1.1104 9.54369 11.4327 9.51003
268 1 -1.1104 9.3823 5.91529 9.36009
270 1 -1.1104 9.56422 11.5307 12.2597
271 1 -1.1104 9.53923 5.93199 12.254
272 2 2.2208 8.06831 10.1058 10.8619
273 1 -1.1104 9.53838 8.56731 9.4703
274 2 2.2208 8.14915 12.8246 7.98593
275 2 2.2208 8.08995 7.24225 8.06281
276 2 2.2208 10.8922 7.26717 10.8277
277 2 2.2208 11.0058 12.8918 10.8037
278 1 -1.1104 12.3779 8.62174 12.301
279 1 -1.1104 12.394 8.68967 9.46324
280 1 -1.1104 12.2413 5.90702 12.2752
281 1 -1.1104 12.4391 11.5633 12.2357
282 2 2.2208 10.9594 10.0237 8.08626
283 1 -1.1104 12.2156 5.87506 9.49929
284 1 -1.1104 12.4051 11.4908 9.50799
285 1 -1.1104 9.54532 8.65915 12.2235
28 2 2.2208 13.7202 7.34136 13.6721
318 2 2.2208 10.9583 10.0515 13.5296
474 2 2.2208 8.09449 7.29784 13.586
317 2 2.2208 8.16802 12.8281 13.6573
111 1 -1.1104 6.74938 14.1528 6.49286
133 1 -1.1104 3.82082 17.1122 6.62835
126 1 -1.1104 3.95011 19.8963 6.6358
117 1 -1.1104 1.11247 17.163 6.56465
108 1 -1.1104 1.06491 14.253 6.62063
118 1 -1.1104 6.64774 17.0563 6.63967
83 1 -1.1104 12.3151 14.374 9.51431
233 2 2.2208 2.5014 15.7277 10.9219
286 1 -1.1104 4.00292 19.8061 12.2813
287 1 -1.1104 3.85064 14.2061 12.2473
291 1 -1.1104 1.1074 19.8107 9.38661
292 1 -1.1104 1.1643 17.1112 9.38571
293 2 2.2208 5.31727 21.2729 8.14965
294 1 -1.1104 1.07032 14.3826 9.50405
295 2 2.2208 5.34356 15.6255 8.09512
298 1 -1.1104 1.24281 19.7993 12.1543
299 1 -1.1104 1.07173 14.2061 12.2756
300 2 2.2208 5.36698 18.4036 10.8747
301 1 -1.1104 3.99379 19.8677 9.41925
303 2 2.2208 2.59996 18.4891 7.99883
304 1 -1.1104 3.95332 17.009 9.47197
305 1 -1.1104 3.84431 14.3193 9.432
307 1 -1.1104 1.0595 17.0272 12.272
308 1 -1.1104 3.9199 16.9966 12.2199
309 2 2.2208 2.52169 21.1635 10.7984
306 1 -1.1104 6.84318 17.1192 12.356
288 1 -1.1104 6.79931 19.8545 9.57251
290 1 -1.1104 6.63406 14.2628 9.3702
296 1 -1.1104 6.75714 19.9238 12.3347
52 2 2.2208 8.10371 15.6111 10.8511
202 1 -1.1104 9.59375 17.0631 12.2506
27 2 2.2208 11.0188 18.4367 10.8336
204 1 -1.1104 9.58218 14.2493 9.50437
137 1 -1.1104 12.3836 17.1238 9.37618
232 1 -1.1104 9.54987 19.8617 12.3812
104 1 -1.1104 12.3427 19.9161 9.49582
203 1 -1.1104 9.57216 17.0268 9.44944
165 1 -1.1104 9.49637 14.2723 12.3122
143 1 -1.1104 12.2769 14.2736 6.68609
81 1 -1.1104 12.3658 14.3723 12.3195
51 1 -1.1104 9.66323 19.8128 9.52449
53 2 2.2208 8.22649 21.1386 10.8959
9106 2 2.2208 13.8168 21.243 10.9559
82 1 -1.1104 12.293 19.9735 12.3147
9505 2 2.2208 13.6578 4.47027 -0.319004
334 2 2.2208 2.51078 1.66317 13.6623
320 2 2.2208 5.26023 21.3228 13.66
321 2 2.2208 5.27113 15.6821 13.6014
319 2 2.2208 2.46469 18.4044 13.7269
562 2 2.2208 5.23881 1.676 -0.349291
564 2 2.2208 2.41697 4.5317 -0.413717
314 2 2.2208 -0.253825 -1.1888 13.62
594 2 2.2208 8.0424 4.45512 -0.322057
9152 2 2.2208 13.6895 15.6528 -0.308901
330 2 2.2208 10.9129 12.8235 -0.291937
328 2 2.2208 8.11265 10.0746 -0.333342
326 2 2.2208 10.994 18.501 -0.297582
336 2 2.2208 5.36049 1.57862 16.5146
337 1 -1.1104 1.13354 -2.51323 17.8277
338 1 -1.1104 1.19509 2.98549 17.8016
341 1 -1.1104 1.17301 -2.6188 14.9894
343 1 -1.1104 1.12037 3.03347 15.0563
349 1 -1.1104 1.31131 0.18831 17.9375
351 2 2.2208 5.36959 -1.21747 19.3134
352 2 2.2208 5.33591 4.52668 19.2094
353 1 -1.1104 1.23571 0.238827 15.0972
357 1 -1.1104 3.95458 -2.54425 17.8243
358 1 -1.1104 4.0234 3.07726 17.9746
359 2 2.2208 2.63009 1.56773 19.2839
360 1 -1.1104 3.82741 -2.55136 14.9812
362 1 -1.1104 4.02556 3.11584 15.1162
364 2 2.2208 2.56499 -1.19256 16.4399
365 2 2.2208 2.5533 4.41979 16.5276
366 1 -1.1104 3.90857 0.179543 17.8483
367 1 -1.1104 3.98169 0.235826 15.0814
339 1 -1.1104 6.75785 -2.50735 17.8948
347 1 -1.1104 6.75346 3.10842 14.9981
355 1 -1.1104 6.75986 0.212999 15.0219
350 1 -1.1104 6.70087 0.191865 17.9146
569 2 2.2208 2.50611 -3.85419 24.7981
344 1 -1.1104 1.3224 3.12682 20.5434
345 1 -1.1104 6.66393 -2.46341 15.1254
340 1 -1.1104 6.74593 3.07261 17.8785
9344 2 2.2208 13.8064 21.2815 16.5397
9276 2 2.2208 -0.240471 -1.0999 19.17
368 1 -1.1104 3.84011 0.198395 20.6363
363 1 -1.1104 3.96735 3.0227 20.6519
342 1 -1.1104 1.24606 -2.5592 20.535
370 2 2.2208 10.8807 -3.86121 16.3858
403 2 2.2208 13.6637 1.64985 19.2422
379 2 2.2208 10.8542 1.71651 16.4963
380 1 -1.1104 12.3202 -2.47441 17.7826
381 1 -1.1104 12.1853 3.08464 17.8247
382 1 -1.1104 12.1488 -2.5097 14.9711
384 1 -1.1104 12.2932 3.15194 15.0634
386 1 -1.1104 12.2812 0.294257 17.9351
387 2 2.2208 10.9625 -1.17644 19.302
388 2 2.2208 10.8625 4.42991 19.281
389 1 -1.1104 12.2433 0.315313 15.0912
391 1 -1.1104 9.62026 -2.52423 17.8871
392 1 -1.1104 9.38504 3.03886 17.8912
393 2 2.2208 8.12524 1.60308 19.3313
394 1 -1.1104 9.397 -2.50824 15.1812
396 1 -1.1104 9.47568 3.22763 15.0855
398 2 2.2208 8.0287 -1.08103 16.4668
399 2 2.2208 8.12657 4.48642 16.457
400 1 -1.1104 9.46146 0.255602 17.8046
401 1 -1.1104 9.45845 0.351995 14.9287
407 2 2.2208 13.6631 -1.14827 16.3362
375 2 2.2208 13.7107 4.56768 16.5049
390 1 -1.1104 12.4364 0.160286 20.8025
356 1 -1.1104 6.72442 0.176753 20.7151
412 2 2.2208 5.27418 7.26468 16.4155
413 2 2.2208 5.36693 12.8876 16.4959
414 1 -1.1104 1.11661 8.61 17.9595
416 1 -1.1104 1.14344 8.67924 15.0841
420 1 -1.1104 1.11809 5.797 17.9051
421 1 -1.1104 1.08799 11.317 17.814
424 2 2.2208 5.26368 10.115 19.1582
425 1 -1.1104 1.10988 5.88082 15.0444
427 1 -1.1104 1.11235 11.4763 15.0669
433 1 -1.1104 3.83132 8.64958 17.8992
434 2 2.2208 2.54477 7.22562 19.2665
435 2 2.2208 2.51881 12.7734 19.2051
436 1 -1.1104 3.98288 8.72597 15.1149
438 2 2.2208 2.57 10.0163 16.4184
439 1 -1.1104 3.91943 5.86795 17.9057
440 1 -1.1104 3.94834 11.4378 17.8241
441 1 -1.1104 3.88868 5.85304 15.1102
443 1 -1.1104 3.8493 11.5746 15.061
431 1 -1.1104 6.79822 11.4595 15.0597
429 1 -1.1104 6.82289 5.93594 14.9782
422 1 -1.1104 6.64221 5.8385 17.8275
418 1 -1.1104 6.71888 8.75866 15.1331
426 1 -1.1104 1.18717 5.90087 20.5306
432 1 -1.1104 6.58148 11.5301 20.612
423 1 -1.1104 6.71452 11.3741 17.8654
437 1 -1.1104 4.02599 8.65743 20.4868
444 1 -1.1104 3.8782 11.3934 20.5427
415 1 -1.1104 6.73327 8.56049 17.8291
430 1 -1.1104 6.7826 5.70919 20.5912
325 2 2.2208 8.12715 15.6542 27.7017
442 1 -1.1104 3.93569 5.89458 20.6842
419 1 -1.1104 6.79309 8.64261 20.7245
447 2 2.2208 2.46569 12.8189 13.6133
9274 2 2.2208 13.6808 10.1483 16.5041
9271 2 2.2208 13.7742 12.9565 19.2669
448 2 2.2208 10.8627 7.23927 16.5249
449 2 2.2208 10.9918 12.8761 16.5427
450 1 -1.1104 12.2323 8.70885 17.8999
451 1 -1.1104 12.4087 8.75936 15.0246
453 1 -1.1104 12.2419 5.87419 17.8617
454 1 -1.1104 12.3311 11.4973 17.9778
455 2 2.2208 10.8942 10.1153 19.3795
456 1 -1.1104 12.2443 5.9312 15.0905
458 1 -1.1104 12.3481 11.5045 15.0226
460 1 -1.1104 9.51363 8.72274 17.9743
461 2 2.2208 8.07423 7.22541 19.2819
462 2 2.2208 8.15345 12.8764 19.2974
463 1 -1.1104 9.63374 8.72445 15.1511
465 2 2.2208 8.22416 10.0905 16.4461
466 1 -1.1104 9.4157 5.85156 17.8311
467 1 -1.1104 9.57727 11.6121 17.8525
468 1 -1.1104 9.56387 5.97196 15.0895
470 1 -1.1104 9.60581 11.3874 15.1007
565 2 2.2208 13.6851 7.35707 19.293
471 1 -1.1104 9.50022 11.5248 20.7009
469 1 -1.1104 9.467 5.76854 20.5429
464 1 -1.1104 9.56339 8.66435 20.7637
452 1 -1.1104 12.3561 8.74979 20.7323
459 1 -1.1104 12.3806 11.5462 20.7169
9158 2 2.2208 13.742 12.8606 13.7226
475 2 2.2208 5.39143 18.5583 16.4308
476 1 -1.1104 1.23979 14.1601 17.7711
477 1 -1.1104 1.20117 19.8193 17.9741
480 1 -1.1104 1.02397 14.2505 14.9837
482 1 -1.1104 1.14491 19.8142 15.0374
488 1 -1.1104 1.06692 17.0691 17.7385
490 2 2.2208 5.30184 15.6162 19.3044
491 2 2.2208 5.35974 21.2587 19.3663
492 1 -1.1104 1.08787 17.084 15.0467
496 1 -1.1104 3.99447 14.2523 17.7968
497 1 -1.1104 3.94792 19.8769 17.8435
498 2 2.2208 2.556 18.4064 19.2743
499 1 -1.1104 3.97845 14.2452 15.0181
501 1 -1.1104 3.94311 19.8204 14.985
503 2 2.2208 2.50297 15.6308 16.3965
504 2 2.2208 2.62587 21.2564 16.5581
505 1 -1.1104 3.86703 17.0219 17.8116
506 1 -1.1104 3.8783 17.0413 15.0659
478 1 -1.1104 6.68744 14.2715 17.8256
483 1 -1.1104 1.12138 19.8197 20.7205
484 1 -1.1104 6.70122 14.3335 15.021
489 1 -1.1104 6.75156 17.0963 17.8704
486 1 -1.1104 6.78988 19.8374 15.0627
493 1 -1.1104 1.12508 17.0093 20.6672
500 1 -1.1104 3.84443 14.2964 20.6085
479 1 -1.1104 6.8079 19.957 18.0299
494 1 -1.1104 6.72742 17.1435 15.1199
485 1 -1.1104 6.72638 14.1747 20.7266
507 1 -1.1104 3.98145 17.0891 20.633
632 1 -1.1104 12.2034 14.2608 26.2695
406 1 -1.1104 9.53157 19.8724 26.2507
9241 2 2.2208 13.8342 15.7211 22.0305
9341 2 2.2208 13.763 15.6755 16.3678
511 2 2.2208 10.8575 18.4393 16.3505
512 1 -1.1104 12.2862 14.3368 17.8789
513 1 -1.1104 12.5325 19.9414 18.2684
514 1 -1.1104 12.2297 14.3308 15.1779
516 1 -1.1104 12.3432 19.8843 15.2136
517 1 -1.1104 12.3651 17.1305 17.7082
518 2 2.2208 10.968 15.6651 19.24
519 2 2.2208 10.8355 21.3011 19.106
520 1 -1.1104 12.3359 17.099 14.9296
522 1 -1.1104 9.52232 14.2606 17.8888
523 1 -1.1104 9.59614 19.8441 17.769
524 2 2.2208 8.21169 18.4216 19.2693
525 1 -1.1104 9.52537 14.2137 15.0617
527 1 -1.1104 9.53773 19.943 15.1281
529 2 2.2208 8.06857 15.6422 16.4571
530 2 2.2208 8.00855 21.2761 16.5005
531 1 -1.1104 9.56087 17.0843 17.8703
532 1 -1.1104 9.44424 17.0976 15.0531
526 1 -1.1104 9.54825 14.3459 20.6853
515 1 -1.1104 12.3454 14.4825 20.7029
528 1 -1.1104 9.93099 19.8207 20.5884
521 1 -1.1104 12.4443 17.3807 20.6542
354 1 -1.1104 1.12884 0.208758 20.7577
346 1 -1.1104 6.83041 -2.60196 20.6664
361 1 -1.1104 4.01195 -2.6104 20.5988
538 2 2.2208 5.33609 1.62204 22.0537
539 1 -1.1104 1.14195 -2.51366 23.3628
540 1 -1.1104 1.21208 3.0728 23.5061
543 1 -1.1104 1.14102 -2.4587 26.2069
544 1 -1.1104 1.16138 2.98609 26.2207
547 1 -1.1104 1.18146 0.257216 23.514
549 2 2.2208 5.3214 -1.11391 24.8148
550 2 2.2208 5.27077 4.49844 24.8607
551 1 -1.1104 1.12901 0.166879 26.3399
553 1 -1.1104 3.97701 -2.51773 23.3095
554 1 -1.1104 4.03684 3.04494 23.4345
555 2 2.2208 2.521 1.67676 24.8939
556 1 -1.1104 4.03612 -2.47287 26.2205
557 1 -1.1104 3.9756 3.05455 26.1825
558 2 2.2208 2.51868 -1.19493 22.0202
559 2 2.2208 2.58436 4.41719 22.0316
560 1 -1.1104 3.87973 0.290607 23.3922
561 1 -1.1104 3.87501 0.202275 26.0854
548 1 -1.1104 6.83947 0.332043 23.3783
552 1 -1.1104 6.63367 0.320482 26.297
542 1 -1.1104 6.7363 3.12724 23.5406
545 1 -1.1104 6.73451 -2.41927 26.1847
541 1 -1.1104 6.79717 -2.50402 23.4625
546 1 -1.1104 6.64394 3.1057 26.3366
655 1 -1.1104 12.3815 17.0452 23.5006
600 2 2.2208 11.0022 21.2485 24.8873
348 1 -1.1104 6.79485 2.98447 20.7604
402 1 -1.1104 9.61209 0.259159 20.6844
383 1 -1.1104 12.3738 -2.6059 20.536
397 1 -1.1104 9.60409 2.96156 20.6097
385 1 -1.1104 12.3396 2.90593 20.6889
533 1 -1.1104 9.6105 17.0713 20.7239
395 1 -1.1104 9.6002 -2.55462 20.6319
9204 2 2.2208 13.7677 1.6782 24.882
369 2 2.2208 13.7138 4.48667 22.0664
574 2 2.2208 10.9981 1.56767 22.0635
575 1 -1.1104 12.3961 -2.47329 23.3726
576 1 -1.1104 12.3673 3.07589 23.4598
577 1 -1.1104 12.3159 -2.50685 26.2304
578 1 -1.1104 12.386 3.09287 26.2632
579 1 -1.1104 12.4324 0.335331 23.4647
580 2 2.2208 11.0041 -1.13183 24.8177
581 2 2.2208 10.9615 4.51512 24.858
582 1 -1.1104 12.3546 0.299112 26.1639
583 1 -1.1104 9.73576 -2.57571 23.4219
584 1 -1.1104 9.67363 3.03809 23.4221
585 2 2.2208 8.0934 1.67641 24.8238
586 1 -1.1104 9.50873 -2.50846 26.1937
587 1 -1.1104 9.55706 3.03973 26.3108
588 2 2.2208 8.21229 -1.14038 22.0685
589 2 2.2208 8.12819 4.44034 22.0985
590 1 -1.1104 9.60671 0.305074 23.4349
591 1 -1.1104 9.4131 0.28708 26.1746
9272 2 2.2208 13.8353 -1.11085 22.0562
495 1 -1.1104 6.8243 16.971 20.7372
593 2 2.2208 8.09425 -1.06144 27.6862
428 1 -1.1104 1.01547 11.4833 20.631
417 1 -1.1104 1.2742 8.6028 20.677
603 2 2.2208 5.3491 7.25726 22.0338
604 2 2.2208 5.22387 12.9076 22.0359
605 1 -1.1104 1.1782 8.74993 23.4342
607 1 -1.1104 1.24854 8.5764 26.2793
609 1 -1.1104 1.09596 5.85273 23.3465
610 1 -1.1104 1.09199 11.4424 23.3787
613 2 2.2208 5.30813 10.0763 24.7929
614 1 -1.1104 1.08891 5.845 26.0937
615 1 -1.1104 1.05664 11.4349 26.2415
618 1 -1.1104 3.98516 8.72023 23.3762
619 2 2.2208 2.49687 7.23507 24.7308
620 2 2.2208 2.53311 12.8526 24.8746
621 1 -1.1104 3.96794 8.69153 26.299
622 2 2.2208 2.5277 10.0696 22.0462
623 1 -1.1104 3.9149 5.88779 23.4579
624 1 -1.1104 3.93052 11.5748 23.3778
625 1 -1.1104 3.93948 5.79445 26.2504
626 1 -1.1104 3.88789 11.4468 26.1822
612 1 -1.1104 6.64725 11.4432 23.4617
617 1 -1.1104 6.69893 11.5194 26.2642
616 1 -1.1104 6.69931 5.89015 26.2686
608 1 -1.1104 6.71223 8.76041 26.2184
606 1 -1.1104 6.60604 8.62193 23.5003
611 1 -1.1104 6.65806 5.8232 23.411
628 2 2.2208 2.53599 9.98172 27.6687
627 2 2.2208 5.302 7.24198 27.6682
457 1 -1.1104 12.2005 5.89794 20.6901
9454 2 2.2208 13.7741 10.1131 22.1609
9386 2 2.2208 13.7093 12.8871 24.8949
634 1 -1.1104 9.47618 11.4718 26.2693
635 1 -1.1104 9.57327 5.83413 26.2968
636 1 -1.1104 9.51036 11.4775 23.4827
637 1 -1.1104 9.44494 5.83853 23.3908
638 2 2.2208 8.07884 10.0498 22.115
639 1 -1.1104 9.50493 8.72297 26.2196
640 2 2.2208 8.03813 12.9162 24.8389
641 2 2.2208 8.10165 7.25549 24.8956
642 2 2.2208 10.9074 7.3117 22.1048
643 2 2.2208 10.9663 12.8753 22.1335
644 1 -1.1104 12.3408 8.71998 23.4945
645 1 -1.1104 12.2825 8.68395 26.244
646 1 -1.1104 12.3389 5.8146 23.4894
647 1 -1.1104 12.3508 11.4976 23.4918
648 2 2.2208 10.8849 10.0158 24.8281
649 1 -1.1104 12.2702 5.97251 26.2146
650 1 -1.1104 12.2667 11.4722 26.3426
651 1 -1.1104 9.42321 8.68195 23.5138
657 2 2.2208 13.7743 7.26442 24.8863
567 1 -1.1104 9.60195 17.0913 23.6201
332 2 2.2208 10.8761 7.28455 27.6763
405 1 -1.1104 9.56393 14.3493 26.3397
573 2 2.2208 11.0303 18.4327 22.1877
631 1 -1.1104 12.4083 19.7627 23.4458
502 1 -1.1104 3.96473 19.8457 20.6563
472 1 -1.1104 6.79269 16.9828 23.5406
481 1 -1.1104 1.07639 14.3088 20.53
592 1 -1.1104 6.77445 19.7452 23.5348
654 1 -1.1104 6.68919 14.2596 26.2266
652 1 -1.1104 6.7313 17.0248 26.265
371 2 2.2208 2.55205 15.6707 21.9712
373 1 -1.1104 3.89788 19.8718 23.5048
374 2 2.2208 2.59105 21.2359 22.1463
410 1 -1.1104 3.96341 17.0318 23.413
411 1 -1.1104 1.27113 17.0897 23.4433
473 1 -1.1104 3.85795 14.2406 26.1665
508 1 -1.1104 3.87709 16.9935 26.1277
509 2 2.2208 2.52892 18.4134 24.8394
510 1 -1.1104 4.00824 19.7664 26.2908
534 2 2.2208 5.40097 18.4242 22.1261
535 1 -1.1104 1.07855 14.3205 23.4212
536 1 -1.1104 1.1467 19.9302 23.4779
571 2 2.2208 5.28609 15.6147 24.8186
572 2 2.2208 5.36872 21.2118 24.9294
599 1 -1.1104 1.15839 14.3041 26.2286
602 1 -1.1104 1.1017 17.0017 26.1187
629 1 -1.1104 1.13937 19.8032 26.2893
653 1 -1.1104 3.91052 14.2871 23.4241
404 1 -1.1104 6.74089 19.8039 26.3266
570 1 -1.1104 6.71049 14.1844 23.4647
596 1 -1.1104 9.6197 19.8692 23.3841
537 2 2.2208 13.7624 18.4455 24.9362
595 2 2.2208 8.17659 18.4631 24.9216
630 1 -1.1104 12.4873 14.3344 23.4459
601 2 2.2208 10.9091 15.6796 24.9269
487 1 -1.1104 6.85489 19.8469 20.6793
408 2 2.2208 8.22272 15.5699 22.0732
566 2 2.2208 8.27617 21.2506 22.163
633 1 -1.1104 12.3403 19.9455 26.2054
598 1 -1.1104 12.3397 17.0853 26.3489
597 1 -1.1104 9.58204 14.2254 23.4581
568 1 -1.1104 9.57628 17.0968 26.3846
563 2 2.2208 2.57059 -1.10042 27.6567
331 2 2.2208 5.30016 12.8583 27.6327
313 2 2.2208 2.57334 21.2917 27.7541
312 2 2.2208 5.39752 18.4141 27.6837
311 2 2.2208 2.45374 15.6897 27.6883
9155 2 2.2208 13.6831 18.4264 13.65
661 2 2.2208 8.17607 21.2507 27.6813
378 2 2.2208 5.3193 4.51693 13.7211
316 2 2.2208 10.8957 4.52706 13.6791
660 2 2.2208 10.9114 21.2826 13.7339
9385 2 2.2208 -0.298638 15.6134 13.6343
663 2 2.2208 5.52491 24.1078 5.36236
664 2 2.2208 5.38754 29.7102 5.41328
665 1 -1.1104 1.12748 25.4764 1.145
666 1 -1.1104 1.12897 25.3495 3.97699
667 1 -1.1104 1.24768 22.6475 1.1644
668 1 -1.1104 1.16829 28.1277 1.18728
669 2 2.2208 5.27558 26.8233 2.58382
670 1 -1.1104 1.18808 22.599 3.85333
671 1 -1.1104 1.11125 28.1868 3.97431
672 1 -1.1104 3.94444 25.4453 1.22179
673 2 2.2208 2.6371 24.0507 2.57265
674 2 2.2208 2.5512 29.5997 2.60716
675 1 -1.1104 3.98437 25.4637 4.00053
676 2 2.2208 2.5478 26.807 5.4094
677 1 -1.1104 3.99985 22.6831 1.17363
678 1 -1.1104 3.84314 28.1956 1.11482
679 1 -1.1104 4.09537 22.7647 3.9462
680 1 -1.1104 3.87 28.2478 3.98194
803 1 -1.1104 6.78692 25.4986 6.85873
689 1 -1.1104 6.678 28.2506 3.99452
804 1 -1.1104 1.12407 22.6784 6.69836
684 1 -1.1104 6.65161 25.4589 1.26779
686 1 -1.1104 6.75638 22.6519 1.05974
688 1 -1.1104 6.75703 22.6417 3.97802
1528 1 -1.1104 9.52402 47.8048 12.3119
808 1 -1.1104 4.08064 25.4172 6.78833
685 1 -1.1104 6.83366 25.4543 4.03237
807 1 -1.1104 6.7737 28.2671 6.80306
687 1 -1.1104 6.64472 28.2376 1.20974
690 2 2.2208 10.9516 24.0858 5.3243
691 2 2.2208 10.9461 29.5422 5.25439
692 1 -1.1104 12.3194 25.5153 1.21486
693 1 -1.1104 12.4438 25.4535 4.01018
694 1 -1.1104 12.3483 22.5758 1.08502
695 1 -1.1104 12.3492 28.2582 1.1319
696 2 2.2208 10.953 26.8782 2.57269
697 1 -1.1104 12.2745 22.6307 3.99265
698 1 -1.1104 12.3842 28.2531 3.90055
699 1 -1.1104 9.52661 25.5723 1.2437
700 2 2.2208 8.1706 24.0285 2.51812
701 2 2.2208 8.03324 29.6202 2.58843
702 1 -1.1104 9.62307 25.4377 3.99794
703 2 2.2208 8.18685 26.7611 5.35508
704 1 -1.1104 9.575 22.7439 1.17069
705 1 -1.1104 9.45132 28.339 1.19318
706 1 -1.1104 9.58674 22.6611 3.89664
707 1 -1.1104 9.53505 28.288 3.97974
1520 1 -1.1104 12.3146 47.9763 9.51009
839 1 -1.1104 9.53802 28.2236 6.73359
836 1 -1.1104 12.3341 22.644 6.70709
1511 1 -1.1104 12.2084 47.9874 6.76799
9822 2 2.2208 13.878 26.9751 5.40467
838 1 -1.1104 9.53548 22.6477 6.70971
9821 2 2.2208 13.8407 29.6485 2.57502
1225 2 2.2208 10.9678 24.1214 -0.297905
712 2 2.2208 5.39547 35.2189 5.43005
713 1 -1.1104 1.17223 30.8509 1.06728
714 1 -1.1104 1.25929 36.5119 1.142
716 1 -1.1104 1.07052 31.0486 3.85264
717 1 -1.1104 1.14732 36.6206 4.0273
719 1 -1.1104 1.2158 33.7291 1.30566
720 2 2.2208 5.34809 32.3535 2.53989
721 2 2.2208 5.27945 37.9759 2.60537
722 1 -1.1104 1.17247 33.8382 4.03901
724 1 -1.1104 4.00355 30.9589 1.23228
725 1 -1.1104 4.08903 36.5566 1.18369
726 2 2.2208 2.5763 35.1782 2.58888
727 1 -1.1104 3.92013 31.0344 3.98077
728 1 -1.1104 3.92629 36.5195 4.03174
729 2 2.2208 2.54938 32.4573 5.42349
730 2 2.2208 2.52834 37.9287 5.36441
731 1 -1.1104 3.90745 33.7555 1.16907
732 1 -1.1104 4.06169 33.7693 3.98157
976 2 2.2208 2.53226 37.9352 -0.132339
736 1 -1.1104 6.71257 31.042 3.9456
735 1 -1.1104 6.66272 31.0112 1.10491
737 1 -1.1104 6.78778 33.7746 1.19179
978 2 2.2208 5.36056 35.1795 -0.172259
715 1 -1.1104 6.81735 36.5984 1.1872
860 1 -1.1104 6.78497 36.6904 6.73952
861 1 -1.1104 1.13564 33.8488 6.84481
1291 1 -1.1104 6.72995 47.8301 1.13939
9716 2 2.2208 13.6595 38.1238 10.9316
9697 2 2.2208 -0.266425 26.873 8.11809
718 1 -1.1104 6.65604 36.6743 3.95214
983 2 2.2208 10.9633 35.3022 -0.180299
723 1 -1.1104 6.86056 33.7911 3.93326
738 2 2.2208 10.9143 35.1575 5.49746
739 1 -1.1104 12.3766 30.9555 1.1941
740 1 -1.1104 12.3458 36.579 1.22297
741 1 -1.1104 12.3024 36.3181 4.04776
742 1 -1.1104 12.3629 33.8261 1.62285
743 2 2.2208 10.9477 32.3056 2.50656
744 2 2.2208 10.9248 37.9718 2.63829
745 1 -1.1104 9.48753 31.0928 1.19694
746 1 -1.1104 9.51857 36.7432 1.227
747 2 2.2208 8.24474 35.2432 2.57238
748 1 -1.1104 9.53513 31.0157 3.92657
749 1 -1.1104 9.45627 36.6415 3.99938
750 2 2.2208 8.21586 32.4214 5.31435
751 2 2.2208 8.07068 38.0842 5.31808
752 1 -1.1104 9.47577 33.8784 1.09797
753 1 -1.1104 9.75567 33.9232 3.93707
893 1 -1.1104 12.24 31.179 3.95587
894 1 -1.1104 9.88012 31.0029 6.80947
9564 2 2.2208 13.7008 37.9358 5.48781
9867 2 2.2208 13.7093 32.4473 -0.155717
968 2 2.2208 8.20816 38.1099 -0.238752
780 2 2.2208 -0.206877 43.6338 2.49271
761 1 -1.1104 0.983714 39.1319 1.26571
755 2 2.2208 5.16699 40.7877 5.3482
756 2 2.2208 5.32095 46.5476 5.27025
757 1 -1.1104 0.95495 41.9552 1.11837
759 1 -1.1104 1.06823 42.2726 4.00555
762 1 -1.1104 1.17704 45.0488 1.36503