ITEM: TIMESTEP
100000
ITEM: NUMBER OF ATOMS
18000
ITEM: BOX BOUNDS xy xz yz pp pp pp
-2.2513991580077897e-01 2.8119139915800641e+01 0.0000000000000000e+00
-2.5787468355265006e+00 3.3730674683553121e+02 0.0000000000000000e+00
-2.2107514118099755e-01 2.8115075141181524e+01 0.0000000000000000e+00
ITEM: ATOMS id type x y z
1 1 1.35692 -1.36703 1.12202
2 1 4.27839 -1.33998 1.0379
3 1 3.96587 -1.37447 3.64917
4 1 1.13877 -1.34377 3.97683
5 1 1.24693 1.5489 0.930296
6 1 3.96656 1.47731 1.04374
7 1 4.47066 1.71218 9.2062
8 1 1.13237 1.48963 3.80356
9 1 6.61418 -1.11362 4.05009
10 1 10.0783 -1.33938 1.13065
11 1 9.85498 -1.45735 3.85488
12 1 3.19285 3.20489 10.6941
13 1 4.03596 1.42065 3.82307
14 1 9.81968 1.35004 1.1994
15 1 9.77529 1.44445 4.08986
16 1 7.10526 1.38886 3.72267
17 1 12.9422 -1.71758 0.994474
15091 2 13.7633 22.7576 5.3491
19 1 12.6594 1.31729 1.20802
20 1 12.6145 1.35331 4.06419
21 1 1.17761 4.37762 0.826768
22 1 4.08722 4.24957 1.1388
23 1 3.97033 4.11088 3.73119
24 1 1.3974 4.35719 3.86192
25 1 1.37397 7.23431 1.16689
26 1 4.18689 7.38145 1.35772
27 1 3.93525 6.91288 4.08841
28 1 0.951888 7.15082 3.85865
29 1 6.85695 4.13134 0.883063
30 1 9.84104 4.26685 1.20504
31 1 9.71703 4.14537 3.95428
32 1 7.10004 4.42408 3.54322
33 1 6.84657 6.96302 1.15218
34 1 9.77847 7.14886 1.25141
35 1 9.64642 7.1319 3.96925
36 1 6.9008 7.03988 3.81832
37 1 12.5784 7.18318 1.34553
38 1 12.6523 4.13991 3.91959
39 1 12.3131 10.1505 1.29221
40 1 12.4126 6.63079 4.11039
41 1 1.15441 9.9161 0.917897
42 1 4.02887 10.2894 1.40903
43 1 4.17527 9.76233 4.36754
44 1 1.32236 9.75997 4.01328
45 1 1.20097 12.7678 1.34098
46 1 4.07241 12.9228 1.25568
47 1 4.26021 12.8864 4.01771
48 1 1.41523 12.5886 3.98238
49 1 7.02052 10.0563 1.18134
50 1 9.65919 9.84484 1.43633
51 1 9.94378 9.75045 4.02467
52 1 6.97424 9.75744 3.80284
53 1 7.01524 12.8138 1.31622
54 1 10.069 12.8754 1.02129
55 1 9.66406 12.633 4.08568
56 1 6.94589 12.5737 3.92856
57 1 12.7374 12.7479 1.25649
58 1 12.7328 9.61544 4.20853
59 1 12.4533 18.6625 1.47245
60 1 12.5697 12.8186 4.13323
61 1 1.02968 15.8898 1.10884
62 1 3.93462 15.536 1.36854
63 1 4.0312 15.6495 4.24245
64 1 1.28589 15.4095 4.07112
65 1 1.27783 18.6004 1.3755
66 1 4.18963 18.1393 1.07024
67 1 4.37724 18.6621 3.54498
68 1 1.52367 18.6091 4.00989
69 1 6.78039 15.578 1.40768
70 1 9.50239 15.7344 1.03356
71 1 9.66868 15.553 3.76743
72 1 7.02902 15.5478 4.1823
73 1 7.07151 18.5657 1.31486
74 1 9.63534 18.4485 1.4247
75 1 9.79208 18.3568 4.24914
76 1 6.93641 18.4022 4.12805
5719 1 6.96178 -1.64943 6.78554
78 1 12.5045 15.6295 4.06118
79 1 12.5709 21.4454 1.42316
80 1 12.593 18.7323 3.90853
81 1 1.06363 21.1901 1.16263
82 1 4.06064 21.0233 1.44983
83 1 3.98522 21.6297 4.11533
84 1 1.16249 21.4761 4.12694
85 1 6.89106 21.3096 1.33004
86 1 9.92881 21.3904 1.31969
87 1 9.67165 21.1576 4.33047
88 1 7.2301 21.1738 4.13289
5723 1 3.93204 2.46415 6.66936
90 1 12.5804 21.3309 4.13547
91 1 1.58873 -1.24121 6.70386
92 1 4.11359 -1.21112 6.60028
93 1 5.3371 5.05922 10.2875
94 1 1.33147 -1.16991 9.53327
95 1 1.30331 1.63845 6.93931
96 1 3.88666 5.03783 8.07523
97 1 7.53309 3.47881 6.20083
98 1 1.27069 1.56243 9.78569
99 1 7.47116 1.13062 8.5856
100 1 9.7853 -1.27935 6.9596
101 1 9.73893 -1.09394 9.83038
102 1 7.03726 -1.13474 9.66401
103 1 7.33978 3.41858 10.2465
104 1 9.86773 1.33803 6.8049
105 1 10.1821 1.65514 9.6944
106 1 7.32718 4.98676 8.19797
107 1 12.6127 -1.16073 6.94501
108 1 12.378 -1.37153 9.94792
109 1 12.6758 1.37022 6.89059
110 1 12.763 1.46753 9.73432
111 1 1.23288 4.41352 6.71073
112 1 5.35262 4.84191 5.98762
113 1 4.11109 7.60816 6.78357
114 1 1.2432 4.79508 9.63191
115 1 1.41558 7.23197 6.82345
116 1 6.87473 7.42401 9.8185
117 1 4.48637 9.95946 9.89192
118 1 1.23843 7.39396 9.71876
119 1 7.19537 7.32446 6.69679
120 1 9.90391 4.42084 6.60444
121 1 10.1058 4.54403 9.56862
122 1 4.16188 7.28613 9.71932
123 1 6.78533 9.71387 6.65682
124 1 12.7192 7.20861 7.01557
125 1 9.82515 7.24781 9.72379
126 2 5.53518 6.40835 8.27638
127 1 12.396 4.21137 6.80912
128 1 12.6699 4.3923 9.68272
15121 2 13.7517 22.635 11.2565
130 1 12.6021 7.1373 9.96832
131 1 0.922758 10.0139 6.67128
132 1 3.74359 10.0081 7.05576
133 1 7.27735 10.8305 8.79415
134 1 1.68627 10.1218 9.68158
135 1 0.954489 12.6936 6.75446
136 1 4.02715 12.852 7.03696
137 1 3.84802 12.7656 9.95841
138 1 1.07424 12.9958 9.48943
139 1 9.91465 9.99214 6.94928
140 1 10.019 7.13827 6.98914
141 1 9.94106 9.66536 9.45335
142 1 6.26527 1.1502 6.2473
143 1 6.758 12.691 6.67747
144 1 9.74252 12.9968 6.86838
145 1 9.7128 12.7391 9.64282
146 1 6.86931 13.3382 9.73803
147 1 12.5456 9.9073 7.00874
148 1 12.5261 9.97382 9.85988
149 1 12.6851 12.8582 7.04532
150 1 12.5074 12.7866 9.88149
151 1 1.01084 15.526 6.73784
152 1 3.87796 15.6917 7.01224
153 1 3.71059 15.5228 9.83278
154 1 1.17608 15.4838 9.59699
155 1 1.28625 18.2926 6.85087
156 1 3.88824 18.879 6.78637
157 1 4.16546 18.4609 9.74529
158 1 1.02621 18.3169 9.65623
159 1 6.79447 15.8132 6.84488
160 1 9.71111 15.8192 7.04444
161 1 9.64918 15.3851 9.73337
162 1 6.66704 15.9849 9.71912
163 1 6.73961 18.4707 7.06032
164 1 9.63532 18.5267 7.00845
165 1 9.44613 18.3108 9.82048
166 1 6.9144 19.1423 10.0896
167 1 12.4628 15.7325 7.02535
168 1 12.272 15.7028 9.8078
169 1 12.4455 18.5728 7.07185
170 1 12.4169 18.3181 10.0014
171 1 1.17893 21.224 6.71456
172 1 3.94254 21.5994 7.04513
173 1 3.80511 21.2029 9.98852
174 1 1.28982 21.568 9.56025
175 1 6.80228 21.5689 7.08815
176 1 9.83641 21.2548 6.97443
177 1 9.76305 21.0586 9.98798
178 1 6.77128 21.549 9.90018
179 1 12.644 21.1649 7.00989
180 1 12.5309 21.1693 9.76874
181 1 1.19841 -1.26201 12.3779
182 1 4.08237 -1.43748 12.4543
183 1 1.01071 1.52543 12.4998
184 1 3.92913 1.31424 12.5435
185 1 6.75415 -1.25175 12.6818
186 1 9.77424 -0.992902 12.561
187 1 6.73114 1.29881 12.145
188 1 9.49924 1.76086 12.5654
189 1 12.6475 -1.22002 12.458
190 1 12.5143 1.60709 12.5386
191 1 1.19225 4.28922 12.4459
192 1 4.06814 4.50275 12.9796
193 1 1.25207 7.0431 12.6024
194 1 4.13384 7.17161 12.5815
195 1 6.87294 4.35709 12.9046
196 1 9.59905 4.65865 12.6227
197 1 6.86946 7.03758 12.6347
198 1 9.8541 7.40462 12.7458
199 1 12.708 4.27926 12.6692
200 1 12.6028 7.25905 12.7196
201 1 1.25961 9.87246 12.5108
202 1 4.11854 9.96008 12.5936
203 1 1.15879 12.5973 12.3426
204 1 3.95217 12.7204 12.6912
205 1 6.86938 10.0878 12.267
206 1 9.70745 10.3388 12.1495
207 1 6.76166 12.7819 12.1719
208 1 9.61409 12.8022 12.6031
242 1 12.4544 10.3023 12.4578
210 1 12.2632 13.0122 12.8243
211 1 0.744665 15.8095 12.7786
212 1 3.63452 15.7617 12.8056
213 1 1.13282 18.4504 12.679
214 1 3.89349 18.3953 12.7677
215 1 6.49206 15.5402 12.6822
216 1 9.36576 15.6403 12.6667
217 1 6.73708 18.4945 12.8989
218 1 9.73546 18.3015 12.8959
219 1 12.203 15.7528 12.7188
220 1 12.5811 18.5319 12.8385
221 1 1.00266 21.4091 12.421
222 1 3.74025 21.4598 12.6955
223 1 6.66121 21.3613 12.9319
224 1 9.41519 21.4538 12.5544
225 1 12.4266 21.386 12.6544
12125 2 10.9933 19.6239 11.58
12110 2 11.1373 2.97758 11.2957
12026 2 8.21972 11.1583 -0.250157
12124 2 8.232 22.7961 11.2959
398 1 13.0159 4.07911 1.02156
12109 2 8.22636 5.82386 10.9022
12014 2 0.0751766 5.84431 2.48275
12008 2 5.58103 0.0467406 2.44499
12130 2 11.3506 0.125654 13.9006
12010 2 11.1717 -0.0906245 2.46119
12123 2 5.31198 19.9587 11.6679
12108 2 5.40272 3.16386 11.6597
12013 2 2.71892 2.73704 2.33556
12122 2 2.3816 22.8682 11.2407
12107 2 2.76857 5.75401 11.2763
12112 2 2.8462 11.2148 11.2924
12017 2 8.46379 2.97777 2.53918
12018 2 5.50509 5.82366 2.54228
12104 2 8.24522 0.174176 11.1729
12020 2 11.2662 5.45205 2.63062
15092 2 13.9514 19.7857 8.11524
12091 2 -0.0912574 19.8588 5.37681
12023 2 2.46915 8.48261 2.70505
12120 2 10.7926 14.3045 11.2961
12102 2 2.7403 0.311212 11.071
12113 2 5.4376 8.62536 11.3383
12027 2 8.27748 8.36408 2.56142
12028 2 5.49215 11.3835 2.62782
15032 2 13.9539 14.0704 2.82013
12030 2 11.0918 11.2332 2.72374
12099 2 11.0597 19.7603 5.68703
12098 2 5.26263 22.6186 8.63734
12033 2 2.72782 13.9858 2.62409
12021 2 -0.0922467 8.54347 -0.202103
12097 2 8.18837 20.1247 8.48475
12096 2 8.25724 22.7827 5.66652
12037 2 8.435 13.9151 2.62194
12038 2 5.56799 17.1031 2.59435
12095 2 5.82469 19.8059 5.50312
12040 2 11.1063 17.1892 2.65244
12094 2 -0.330967 22.5305 8.21699
12093 2 2.3456 19.8449 8.17152
12043 2 2.58622 19.9073 2.66971
12105 2 11.0094 -2.62411 11.3005
12092 2 2.59487 22.7272 5.55141
12127 2 -0.21274 -0.103498 13.944
12047 2 8.40818 19.6848 2.8704
12048 2 5.32385 22.8707 2.81622
12090 2 11.2691 17.0866 8.38733
12050 2 11.2447 22.7318 2.92505
12119 2 8.1131 17.183 11.2752
12052 2 2.73928 0.1375 5.10305
12135 2 11.1636 5.98985 13.9324
12118 2 5.36134 14.2411 11.081
5640 1 12.6512 -1.65801 4.10792
12056 2 8.25565 0.095248 5.39565
5717 1 4.17173 -1.37671 9.51098
12058 2 5.62205 -0.195139 8.09345
5633 1 7.19499 -1.38623 0.989812
12060 2 11.1944 -0.0313819 8.39174
12117 2 2.43955 17.1839 11.1584
12062 2 2.85589 5.63587 5.52188
12063 2 2.42115 3.00936 8.42966
12089 2 11.024 14.2644 5.30788
12065 2 5.69336 2.90748 4.9587
12066 2 8.30332 5.61415 5.35422
12067 2 8.89944 3.07864 8.2367
12068 2 5.67768 3.34661 8.22316
12069 2 11.2413 2.76018 5.53224
12070 2 11.2202 5.82321 8.36027
12115 2 11.1666 8.71314 11.1608
12072 2 2.53184 11.1692 5.53357
12073 2 2.7294 8.46454 8.35869
12114 2 8.25759 11.5618 10.8094
12075 2 5.72694 8.35139 5.29678
12076 2 8.1552 11.0552 5.34497
12077 2 8.55846 8.43883 8.13863
12078 2 5.33577 11.3746 8.10319
12079 2 11.3188 8.39286 5.46202
12080 2 11.1718 11.3062 8.25248
12045 2 5.61902 19.8668 0.00685325
12082 2 2.53631 16.855 5.49903
12083 2 2.6958 14.1072 8.30088
12034 2 -0.0991626 17.0308 2.66301
12085 2 5.52503 14.2345 5.32824
12086 2 8.26751 17.0477 5.66643
12087 2 8.50548 14.1639 8.33775
12088 2 5.32269 17.1549 8.29573
12129 2 5.49611 -0.0775827 13.8471
12103 2 5.53174 -2.53871 11.0307
12061 2 0.00482297 3.04602 5.29929
12106 2 -0.130802 2.94604 11.0239
15111 2 13.7905 11.4899 11.1187
12100 2 11.1742 22.2743 8.42031
12041 2 -0.113804 19.7932 -0.251031
15072 2 13.869 8.48125 8.42429
15012 2 13.8997 2.70328 2.55467
372 1 7.02343 1.31863 1.28712
12049 2 10.9495 20.0222 -0.0424178
12116 2 -0.067563 14.1703 10.9603
6061 1 12.4788 15.7596 1.29007
12111 2 -0.0982308 8.66496 11.1636
12035 2 5.44752 14.1453 -0.11504
12054 2 -0.179265 0.181149 8.06765
15031 2 13.9313 17.0212 -0.206195
15061 2 13.9119 5.55704 5.56296
12046 2 8.33997 22.7171 0.0819268
12064 2 0.0331363 5.91811 8.15848
15116 2 13.7905 16.8847 11.1758
15062 2 13.9466 2.74151 8.24957
12138 2 8.06695 8.61561 13.8976
12001 2 -0.244985 -2.62239 -0.253398
12150 2 11.1359 22.8863 13.8872
12137 2 -0.21302 11.5308 13.7291
12042 2 2.57311 22.606 -0.031386
12024 2 0.00820683 11.4578 2.65078
15081 2 13.9329 17.057 5.43455
12139 2 5.37357 11.4831 13.8127
12131 2 2.47045 2.78811 13.909
12016 2 8.44941 5.53024 -0.0904401
12022 2 2.62079 11.4474 -0.170094
12143 2 8.1965 14.0636 13.9505
226 1 3.95673 -1.44265 15.462
227 1 1.20058 -1.58984 15.2346
228 1 4.01952 1.62604 15.4099
229 1 1.43421 1.44201 15.3065
230 1 9.60486 -1.01611 15.3172
231 1 7.06734 -1.21999 15.1887
232 1 9.95352 1.56769 15.2619
233 1 6.91671 1.67006 15.3589
234 1 12.5673 -1.37137 15.4059
235 1 12.7917 1.29096 15.2628
236 1 4.23821 4.19501 15.7798
237 1 1.49731 4.19606 15.5579
238 1 3.97745 7.12088 15.6454
239 1 1.30277 7.06841 15.5659
240 1 9.91271 4.19266 15.59
241 1 7.09873 4.40188 15.6162
15222 2 13.6944 8.6025 25.3673
243 1 6.93999 7.21882 15.3707
244 1 12.628 4.29668 15.647
245 1 12.5646 7.14803 15.2987
246 1 3.86793 10.0882 15.1119
247 1 1.16928 9.74038 15.3032
248 1 3.93274 12.856 15.4419
249 1 1.29147 12.6865 15.125
250 1 9.54169 9.85047 15.4577
251 1 6.65855 9.97303 15.066
252 1 9.56733 12.7377 15.2831
253 1 6.78726 12.5343 15.2903
254 1 12.3877 10.0978 15.2178
255 1 12.7219 12.9782 15.6384
256 1 3.81896 15.5671 15.5412
257 1 1.18771 15.5903 15.3154
258 1 4.08273 18.5427 15.4859
259 1 1.12239 18.4235 15.3507
260 1 9.40903 15.52 15.3587
261 1 6.64024 15.5337 15.4609
262 1 9.91336 18.1664 15.6875
263 1 6.97614 18.4271 15.6667
264 1 12.5955 15.5961 15.621
265 1 12.3636 18.7553 15.6279
266 1 4.11283 21.4272 15.5002
267 1 1.16932 21.2917 15.4146
268 1 9.78117 20.9061 15.176
269 1 7.04915 21.3432 15.5138
270 1 12.7203 21.4923 15.5957
271 1 1.37134 -1.27356 18.0692
272 1 4.14966 -1.46906 18.2708
273 1 3.92836 -1.30079 21.0508
274 1 1.34105 -1.36408 21.038
275 1 1.27808 1.57599 18.1037
276 1 4.28121 1.37453 18.1978
277 1 4.15382 1.4309 21.1272
278 1 1.22233 1.37836 20.871
279 1 6.86401 1.55158 18.1831
280 1 9.62604 -1.24021 18.1727
281 1 6.84057 -1.27721 17.928
282 1 6.88604 -1.25488 23.47
283 1 9.86506 1.85212 18.2475
284 1 12.5126 4.49548 18.1497
285 1 9.43165 1.41311 21.1146
286 1 6.70514 1.37103 20.9794
287 1 12.7301 1.80215 18.0952
288 1 12.8654 -1.41247 21.0972
5996 1 6.9701 -1.09788 26.5232
290 1 12.428 1.55661 20.8257
291 1 1.28373 4.3069 18.4495
292 1 3.93924 4.31097 18.5484
293 1 4.16313 4.35456 21.4007
294 1 1.25467 4.14415 20.9802
295 1 1.23543 7.26043 18.4341
296 1 4.20402 7.15306 18.3629
297 1 3.96283 7.44832 21.1987
298 1 1.25807 6.92298 21.1566
299 1 6.5365 4.23132 18.4881
300 1 9.80194 4.8563 18.3851
301 1 9.55719 4.14937 21.0858
302 1 6.9468 4.50738 21.1611
303 1 7.02631 6.93742 18.0998
304 1 9.77286 7.04047 15.4832
305 1 9.33881 7.09027 21.0356
306 1 6.69836 7.22681 20.9716
307 1 12.4397 7.45438 18.1254
308 1 12.7641 4.41289 21.2031
309 1 9.63414 7.29756 18.3259
310 1 12.6259 7.15387 21.2004
311 1 1.32904 10.0201 18.149
312 1 4.03815 10.0341 17.9524
313 1 3.81395 10.0028 20.9788
314 1 1.24035 9.97888 20.8781
315 1 1.18025 12.6825 18.0122
316 1 3.81993 12.9435 18.1633
317 1 3.91479 12.8843 21.0991
318 1 0.90986 13.0613 21.0915
319 1 6.67305 10.0722 18.1542
320 1 9.4818 10.2755 18.1563
321 1 9.61413 9.87405 20.9017
322 1 6.99515 10.24 21.0509
323 1 6.70491 13.0437 18.1206
324 1 9.84166 12.9579 18.2235
325 1 9.79527 12.8471 20.9823
326 1 6.9804 13.0246 21.05
327 1 12.4225 10.1708 18.0951
328 1 12.408 9.89339 21.0714
329 1 12.3979 12.9939 18.3403
330 1 12.3673 12.7713 21.0077
331 1 1.1811 15.459 18.2133
332 1 3.84672 15.6479 18.4851
333 1 3.90693 15.8728 21.1767
334 1 0.841313 15.8399 20.9636
335 1 1.13469 18.4375 17.8054
336 1 3.97702 18.5449 18.2641
337 1 3.70765 18.7542 21.195
338 1 1.092 18.4757 20.9696
339 1 6.95766 15.9083 18.5904
340 1 9.60086 15.7036 18.1924
341 1 9.69642 15.807 21.1115
342 1 6.92091 15.7433 21.4527
343 1 6.50096 18.3894 18.3216
344 1 9.53036 18.5994 18.3793
345 1 9.57255 18.4728 20.9913
346 1 6.42568 18.5871 21.1303
347 1 12.2544 15.8213 18.2253
348 1 12.6139 15.4472 21.0028
349 1 12.5 18.5272 18.1679
350 1 12.3165 18.6813 20.9107
351 1 1.02435 21.3026 18.2897
352 1 3.81236 21.458 18.4062
353 1 3.95767 21.4939 21.3215
354 1 1.12016 21.3407 20.9723
355 1 6.60555 21.298 18.4598
356 1 9.74062 21.5803 18.0626
357 1 9.52119 21.1722 21.0982
358 1 6.71447 21.4288 21.1399
359 1 12.2999 21.2016 18.4823
360 1 12.2114 21.6264 21.2858
361 1 1.41168 -1.19899 23.8822
362 1 4.10319 -1.35026 23.8259
363 1 4.14859 -1.26517 26.4583
364 1 1.30782 -1.32843 26.5325
365 1 1.12751 1.67611 23.7627
366 1 4.03327 1.31805 24.0244
367 1 4.05238 1.66611 26.7296
368 1 1.29027 1.44891 26.5468
369 1 6.90062 1.74634 26.8276
370 1 9.67332 -1.38855 23.8505
371 1 9.79328 -1.6309 26.6575
12015 2 5.50361 2.85344 28.1086
373 1 7.06186 1.61105 23.8117
374 1 9.89569 1.32541 24.0652
375 1 10.0532 4.25046 26.6811
15182 2 13.8068 14.3539 19.4795
377 1 12.5843 -1.34184 23.8891
378 1 12.6198 -1.30073 26.7486
379 1 12.5712 1.44806 23.8387
380 1 12.5774 1.41508 26.4811
381 1 1.30275 4.3158 23.7808
382 1 4.09049 4.22678 24.0383
383 1 4.11852 4.48036 26.638
384 1 1.03732 4.23952 26.5708
385 1 1.28259 7.23205 23.9252
386 1 4.02424 7.29614 24.0546
387 1 3.89807 7.06907 26.6694
388 1 1.08556 7.09435 26.6871
389 1 6.79983 4.26719 23.9143
390 1 9.30455 4.33762 23.9821
391 1 12.6688 4.2268 26.5408
392 1 7.25924 4.72182 26.305
393 1 6.63601 7.1954 23.8146
394 1 9.58908 7.35572 23.7646
395 1 9.53173 7.08372 26.6107
396 1 6.74406 7.41721 26.6768
397 1 12.1143 4.26224 23.7788
12006 2 8.36535 0.0775049 28.1065
399 1 12.3412 7.28124 24.0135
400 1 12.7324 7.13998 26.8325
401 1 1.27359 10.1283 23.8028
402 1 3.96488 9.97167 24.0474
403 1 3.92976 10.2459 26.9862
404 1 1.27089 9.87188 26.6244
405 1 1.00389 12.9505 23.7811
406 1 3.93347 12.9607 23.9059
407 1 4.22887 12.801 26.6173
408 1 1.25183 12.94 26.9188
409 1 6.78761 9.98469 23.8885
410 1 9.7513 10.2152 23.7124
411 1 9.8021 9.92603 26.7449
412 1 6.80714 10.0676 26.5366
413 1 6.73496 12.8714 23.9724
414 1 9.52329 13.0008 23.7548
415 1 9.62712 12.6447 26.4265
416 1 7.14674 12.8047 26.9616
417 1 12.3572 10.0324 23.7946
418 1 12.3192 10.0509 26.5035
419 1 12.3852 12.8738 23.8069
420 1 12.5172 12.743 26.5555
421 1 1.34945 15.7048 23.9218
422 1 4.09504 15.6655 23.846
423 1 4.09401 15.6907 26.5579
424 1 1.11874 15.5767 26.6489
425 1 0.920743 18.5276 23.7901
426 1 4.12764 18.4931 23.9795
427 1 3.90497 18.3041 26.6437
428 1 1.1362 18.3829 27.0136
429 1 6.82278 15.7488 24.1683
430 1 9.55382 15.6797 23.6693
431 1 9.75287 15.5821 26.4834
432 1 6.74611 15.6443 26.9865
433 1 6.94963 18.4359 23.9423
434 1 9.72208 18.7268 24.1721
435 1 9.50266 18.5609 26.9051
436 1 6.80888 18.4008 26.7135
437 1 12.4067 15.8141 23.9676
438 1 12.5811 15.7589 26.6954
439 1 12.1604 18.6581 23.9948
440 1 12.4494 21.3876 26.9345
441 1 1.09079 21.6007 23.9442
442 1 3.94737 21.2657 24.0967
443 1 4.14476 21.2934 27.0322
444 1 1.22507 21.277 26.7771
445 1 6.93364 21.3921 23.87
446 1 9.63569 21.4877 23.7129
447 1 9.52658 21.3543 26.7259
448 1 6.96599 21.3251 26.7969
449 1 12.6652 21.225 23.9505
376 1 9.64084 1.38045 26.7989
12203 2 2.80146 -2.60639 25.1772
12250 2 11.0294 22.4888 25.2756
6271 1 12.6206 -1.38233 18.314
12149 2 5.38178 22.9994 14.0799
15171 2 13.9992 11.5963 16.9386
12174 2 -0.140793 11.2987 19.6959
12249 2 11.06 19.9372 22.4278
12002 2 2.82244 0.0605032 27.9283
12221 2 -0.0160281 8.37018 22.3857
12232 2 2.70173 17.1632 22.5112
12134 2 5.50764 5.82078 14.3219
12248 2 5.49587 22.8164 25.7141
12159 2 11.1184 -2.52415 16.7597
12205 2 5.51374 -2.49851 22.3049
15221 2 13.8534 11.3201 22.4666
12191 2 -0.233775 20.0464 16.7035
5906 1 6.7755 -1.31199 20.7309
12146 2 2.64931 19.9535 14.0883
12235 2 5.41057 14.342 22.6392
12164 2 -0.247564 5.67328 19.6094
12136 2 2.74447 8.42147 13.9753
12171 2 -0.214162 8.55137 16.7785
15162 2 13.8783 3.0615 19.5414
12211 2 -0.231555 2.75309 22.3168
15241 2 13.9038 22.6207 22.6676
12247 2 8.2808 19.8295 25.4202
12152 2 2.6869 0.0965223 16.6762
12204 2 0.00104875 0.00160514 25.1857
12246 2 8.16242 22.819 22.5036
15172 2 13.691 8.756 19.6503
12156 2 8.34968 0.208176 16.692
15191 2 13.7556 22.9282 16.9568
12158 2 5.50091 0.0942614 19.4812
5904 1 10.13 -0.945979 21.0175
12160 2 11.3238 0.1933 19.4296
12245 2 5.60886 20.0542 22.6398
12162 2 2.62056 5.5862 17.0307
12163 2 2.70702 2.87831 19.6626
12230 2 11.0195 11.4146 25.1557
12165 2 5.4132 2.82789 16.8197
12166 2 8.38087 5.89672 16.7865
12167 2 8.079 2.90437 19.6812
12168 2 5.38497 5.69176 19.7931
12169 2 11.2928 3.00503 16.7223
12170 2 11.0271 5.85079 19.8747
12243 2 2.51221 19.9482 25.3367
12172 2 2.54252 11.3806 16.7915
12173 2 2.5473 8.51537 19.7511
12242 2 2.48484 22.7058 22.5665
12175 2 5.41438 8.549 16.7345
12176 2 8.26147 11.4278 16.8388
12177 2 8.23306 8.45213 19.5926
12178 2 5.39922 11.6012 19.485
12179 2 10.9824 8.57124 16.6967
12180 2 11.0055 11.4622 19.6578
12228 2 5.29057 11.4515 25.11
12182 2 2.6377 16.9943 16.9776
12183 2 2.37399 14.2941 19.7059
12147 2 -0.189627 22.8417 13.9802
12185 2 5.25591 14.2137 16.8075
12186 2 8.20207 16.973 16.8669
12187 2 8.41171 14.4499 19.8365
12188 2 5.22407 17.1837 19.8702
12189 2 11.1329 14.2925 16.8518
12190 2 10.8578 17.1448 19.5336
12227 2 8.2674 8.43592 25.3999
12192 2 2.54819 22.8443 16.864
12193 2 2.39805 20.0795 19.6893
12224 2 -0.215401 11.4063 25.4359
12195 2 5.26859 19.9681 16.9266
12196 2 8.19781 22.7125 16.4878
12197 2 8.1076 19.8897 19.7624
12198 2 5.49422 22.6722 19.7903
12199 2 11.1095 19.9619 16.9345
12200 2 10.9107 22.7821 19.8019
12240 2 11.2328 17.231 25.3288
12202 2 2.70877 0.0676498 22.5318
15192 2 13.6931 19.9054 19.548
12239 2 11.0192 14.2436 22.4364
12036 2 8.08422 17.1213 28.0829
12206 2 8.43747 0.113706 22.3755
12233 2 2.5766 14.2691 25.2766
12208 2 5.34572 0.0480829 25.2477
12229 2 11.0918 8.66657 22.5041
12210 2 11.2291 0.064567 25.2867
12238 2 5.44077 17.0191 25.1975
12212 2 2.89616 5.63582 22.6617
12213 2 2.50326 2.97441 25.1793
12237 2 8.17897 14.3832 25.4117
12215 2 5.44943 2.77033 22.471
12216 2 8.1704 5.76562 22.4302
12217 2 8.2863 2.72913 25.1866
12218 2 5.38824 5.73299 25.3892
12219 2 10.9647 2.79036 22.3398
12220 2 10.995 5.72234 25.2776
12236 2 8.31671 17.1603 22.6567
12222 2 2.42747 11.2242 22.331
12223 2 2.44176 8.42164 25.3722
77 1 12.4234 18.6966 26.7635
12225 2 5.53897 8.78228 22.2641
12226 2 8.46895 11.5059 22.5174
15161 2 13.882 5.88636 16.7658
12148 2 8.2926 19.7693 14.1576
15231 2 13.7586 17.0408 22.4435
15242 2 13.9219 19.8428 25.6103
15181 2 13.8671 17.1751 17.043
12132 2 -0.118146 5.82353 13.9963
15146 2 13.7525 19.8226 14.2028
15232 2 13.8442 14.2622 25.43
15212 2 13.8689 2.77976 24.9563
12032 2 2.72435 16.9866 28.167
12140 2 11.0234 11.5449 14.0415
15136 2 13.9765 8.74769 14.0201
12012 2 2.70018 5.5672 27.9688
12144 2 5.27215 16.9081 14.1792
12039 2 11.072 14.472 28.1149
12019 2 11.3817 2.76646 27.9439
12031 2 -0.228293 14.363 28.0478
12133 2 8.45441 3.17094 14.0544
12145 2 10.9801 16.8818 14.1589
12128 2 8.25886 -2.61876 14.025
12029 2 10.9027 8.62305 28.0507
15141 2 13.8643 14.3381 14.0395
12141 2 2.49595 14.2569 14.1194
12025 2 5.28244 8.46537 28.0472
451 1 0.983407 23.8511 1.15904
452 1 4.00885 23.963 1.33631
453 1 3.91924 24.3919 4.32317
454 1 1.31721 24.5127 4.02062
455 1 6.79043 24.3441 1.48476
456 1 9.78946 24.167 1.43277
457 1 9.70622 23.9648 4.38597
458 1 6.82852 24.0204 3.99783
459 1 12.6512 24.169 1.40589
460 1 12.563 24.128 4.11949
461 1 1.08561 26.8983 0.981959
462 1 3.96557 26.8706 1.11996
463 1 4.00443 26.8829 3.91724
464 1 1.21361 27.4642 3.84011
465 1 1.09802 29.4895 1.40693
466 1 3.98223 29.9276 1.15463
467 1 4.19151 29.5628 4.17817
468 1 1.18104 30.3563 4.32381
469 1 6.81418 26.9574 1.25022
470 1 9.69497 27.3025 1.24626
471 1 9.7543 26.8172 3.99337
472 1 6.91923 26.8547 4.2795
473 1 6.72207 29.7555 1.17713
474 1 9.77148 29.8592 1.09269
475 1 9.65141 29.8044 3.98041
476 1 6.88435 29.7499 4.11632
569 1 12.5175 29.8394 1.31263
478 1 12.519 26.945 4.48311
12373 2 10.9669 34.2752 14.0255
15336 2 13.8794 48.443 8.24552
481 1 1.57601 32.5848 1.18168
482 1 3.98866 32.5979 1.98105
483 1 3.47855 32.5721 4.67385
484 1 0.785696 33.1219 4.06411
485 2 2.21674 34.0125 2.90349
486 1 3.69317 35.4643 1.56421
487 1 3.40411 35.5113 4.23339
488 1 0.855221 35.6974 3.75185
12326 2 -0.170615 42.7308 5.43513
490 1 6.6044 32.5612 1.31018
491 1 9.33954 32.9044 3.69172
492 1 6.33135 32.8548 4.25933
493 1 6.49888 35.326 0.780948
494 1 9.21329 35.621 1.28647
495 1 9.23245 35.6179 4.0734
496 1 6.3826 35.7284 3.98297
12341 2 -0.150189 25.7552 11.2724
498 1 12.4234 32.65 4.11043
499 1 12.3541 35.7331 1.27347
500 1 12.0615 35.3306 3.99855
501 1 0.929202 38.3539 1.2707
502 1 3.86023 38.5227 1.01127
503 1 3.82363 38.451 3.94538
504 1 1.12834 38.4168 3.94609
505 1 1.16918 41.4301 1.40278
506 1 3.76116 41.2936 1.02168
507 1 4.11764 41.3508 4.01954
508 1 1.12422 41.497 4.03648
509 1 6.47357 38.0867 1.30112
510 1 9.42993 38.4413 1.16187
511 1 9.42031 38.4513 3.89034
512 1 6.59938 38.5608 3.94529
513 1 7.18015 41.0814 1.14047
514 1 9.73272 41.4684 1.1027
515 1 9.71029 41.1109 4.10661
516 1 6.68888 41.5342 3.8183
517 1 12.6544 38.8584 1.20208
518 1 12.416 38.3963 4.10317
519 1 12.3433 41.4068 1.17485
520 1 12.6033 41.2473 3.96257
521 1 1.19629 44.0832 1.14997
522 1 3.98844 44.2926 1.20817
523 1 3.92957 44.0693 4.21123
524 1 1.45497 44.2665 4.03878
525 1 1.32304 47.1027 1.21145
526 1 4.20621 47.1009 1.24964
527 1 4.03362 46.7689 4.00231
528 1 0.860519 47.1657 3.96948
529 1 6.48547 43.724 1.25887
530 1 9.38273 44.3375 1.34262
531 1 9.57177 43.9115 3.91678
532 1 7.03863 44.3889 3.83687
533 1 7.0189 46.6147 1.52015
534 1 9.74731 47.0622 1.1529
535 1 9.49559 47.0272 4.08375
536 1 6.96322 47.0103 4.29667
537 1 12.3933 44.1202 1.16666
538 1 12.575 44.2688 3.90529
539 1 12.9048 46.9334 1.36679
540 1 12.3973 47.0784 4.07442
541 1 1.06141 23.9305 6.9926
542 1 3.94427 24.442 6.99035
543 1 3.76583 24.0943 9.80919
544 1 1.19272 24.3461 9.87204
545 1 6.85053 24.3026 6.96654
546 1 9.49565 24.192 7.08197
547 1 9.70653 23.735 9.63408
548 1 6.69195 24.1209 9.7966
549 1 12.4596 24.1942 6.83547
550 1 12.6207 24.1659 9.70054
551 1 1.36761 26.9196 6.84032
552 1 4.17415 26.9886 7.17499
553 1 4.30044 27.1987 9.96161
554 1 1.28775 27.2654 9.60646
555 1 1.45214 29.7264 6.90381
556 1 4.13705 29.8672 7.25374
557 1 3.96486 30.1087 10.0201
558 1 0.926642 29.8285 9.72381
559 1 6.93775 26.9806 7.01501
560 1 9.80748 27.0586 6.96701
561 1 9.68249 26.833 9.67539
562 1 7.11714 27.0328 9.86962
563 1 6.79563 29.9315 6.92208
564 1 9.61107 29.8906 6.98612
565 1 9.43534 29.6447 9.77259
566 1 6.77937 30.0298 9.83608
567 1 12.7552 27.0143 7.36788
568 1 12.7396 26.8719 9.94189
12378 2 10.921 39.6875 13.8759
570 1 12.3856 29.9719 9.85219
571 1 0.793404 33.0321 6.99065
572 1 3.86425 32.7273 7.34711
573 1 4.01842 32.839 9.89833
574 1 1.22603 32.5914 9.71967
575 1 1.44456 35.8981 6.8745
576 1 4.24159 35.6731 7.13112
577 1 3.70432 35.8521 9.75659
578 1 0.79315 35.3282 9.6515
579 1 6.6158 32.8165 7.02794
580 1 9.40498 32.5068 6.77945
581 1 9.47867 32.5643 9.73216
582 1 6.83382 32.7697 9.87536
583 1 6.72184 35.6917 7.00651
584 1 9.36301 35.2798 6.9197
585 1 9.38993 35.7064 9.73589
586 1 6.63264 35.6402 9.90566
587 1 12.3016 32.7959 6.80565
588 1 12.214 32.9296 9.78823
589 1 12.375 35.8462 6.69432
590 1 12.5281 35.6967 9.59285
591 1 1.01913 38.5535 6.87071
592 1 3.76128 38.4224 6.85715
593 1 4.15486 38.3795 9.70667
594 1 1.01901 38.3318 9.81498
595 1 0.985388 41.2931 6.94035
596 1 3.63711 41.5364 6.5999
597 1 3.85418 41.1315 9.43701
598 1 1.09128 41.0002 9.60176
599 1 6.72747 38.5143 6.7245
600 1 9.44039 38.4201 6.71646
601 1 9.46821 38.5657 9.57496
602 1 6.86403 38.5189 9.52362
603 1 6.66773 41.3051 6.78056
604 1 9.38825 41.0686 6.87699
605 1 9.51273 41.551 9.70717
606 1 6.54151 41.3666 9.64298
607 1 12.0951 38.3826 6.96047
608 1 12.5802 38.5715 9.83866
609 1 12.5276 41.3376 6.75509
610 1 12.1317 41.2698 9.47024
611 1 0.993585 44.1527 7.13975
612 1 3.71162 44.1121 7.0838
613 1 4.07951 44.0808 9.73923
614 1 1.37471 43.772 9.88669
615 1 1.24729 47.0055 6.72384
616 1 4.25342 46.6064 6.66265
617 1 4.17915 46.9056 9.60621
618 1 1.27193 46.7113 9.50665
619 1 6.82373 44.1951 6.82912
620 1 9.75482 43.9991 6.63208
621 1 9.7623 44.066 9.63787
622 1 7.04428 44.18 9.70657
623 1 6.79448 47.2268 7.26747
624 1 9.45187 46.7731 7.03258
625 1 9.82065 47.147 9.77449
626 1 6.86673 47.0696 9.83431
627 1 12.475 44.2457 6.80634
628 1 12.3103 44.2365 9.78932
629 1 12.1904 46.9721 7.00906
630 1 12.6146 47.1323 9.82947
631 1 1.09035 24.1943 12.5894
632 1 4.1287 24.37 12.6807
633 1 6.92813 24.1201 12.7688
634 1 9.76136 24.3171 12.4519
635 1 12.7303 24.2187 12.6572
636 1 1.33031 27.2933 12.7207
637 1 3.88922 27.1674 12.7302
638 1 1.25815 30.0442 12.827
639 1 4.04993 30.0555 13.0032
640 1 6.69192 26.8467 12.6382
641 1 9.72284 27.2943 12.4892
642 1 6.91257 29.7562 12.649
643 1 9.66051 29.9057 12.8599
644 1 12.2679 27.0537 12.487
645 1 12.2536 30.1055 12.9271
646 1 1.06509 32.9142 12.6516
647 1 3.97746 32.9792 12.7213
648 1 1.09076 35.8427 12.5411
649 1 3.95827 35.7112 12.7058
650 1 6.822 32.8096 12.8714
651 1 9.54099 33.0166 12.8041
652 1 6.83138 35.6575 12.4279
653 1 9.54603 35.5963 12.8941
654 1 12.3508 32.7113 13.0015
655 1 12.3991 35.5206 12.5332
656 1 0.99095 38.4552 12.4924
657 1 3.94229 38.3716 12.6588
658 1 0.897917 41.2431 12.4118
659 1 4.11726 41.1002 12.7323
660 1 6.70522 38.3726 12.5769
661 1 9.63743 37.8937 12.2703
662 1 6.5923 41.074 12.323
663 1 9.61185 40.6822 12.383
664 1 12.6723 38.4305 12.5885
665 1 12.3523 41.1525 12.5082
666 1 0.872532 43.9877 12.8726
667 1 3.90526 43.924 12.7231
668 1 0.932453 47.0365 12.5975
669 1 3.708 46.8398 12.5076
670 1 6.58535 43.9935 12.5698
671 1 9.33387 43.8374 12.449
672 1 6.80445 46.9353 12.6143
673 1 9.67542 46.9973 12.2905
674 1 12.3089 44.0074 12.6989
675 1 12.3606 46.8768 12.3862
12363 2 11.0363 48.3299 11.0495
858 1 9.3732 32.4178 1.14712
12253 2 2.53291 25.6936 2.52082
12362 2 5.45048 48.3618 11.1417
1102 1 3.99916 49.6024 12.5499
12346 2 -0.155644 31.3211 11.2164
12257 2 8.31649 25.5316 2.64476
12258 2 5.50101 28.126 2.57466
838 1 12.697 32.487 1.28497
12260 2 11.2044 28.4784 2.84394
12360 2 10.8776 42.5274 11.1644
477 1 12.3825 29.4929 4.29826
12263 2 2.65511 30.7295 2.81019
12359 2 8.13645 45.5359 11.2466
15282 2 13.8457 42.8125 2.5075
15272 2 13.6998 37.0326 2.46943
12267 2 8.21909 31.4147 2.65926
12268 2 5.61474 34.1929 2.50354
12345 2 11.1135 25.5551 11.0686
12270 2 10.914 34.0869 2.36993
12358 2 5.29978 42.4826 11.0402
12344 2 8.20468 28.4618 11.3486
12273 2 2.35956 37.2335 2.62193
12357 2 2.62917 45.4889 11.0328
12343 2 5.55362 25.5617 11.2462
89 1 12.4085 26.8534 1.4298
12277 2 8.09949 36.9309 2.45968
12278 2 5.26825 39.9653 2.5747
15356 2 13.7348 45.344 11.2336
12280 2 11.0603 39.9433 2.56098
12355 2 11.1906 37.1041 10.9776
1101 1 1.1833 49.7207 12.4892
12283 2 2.63974 42.7814 2.77891
12354 2 7.98242 39.7791 11.0127
12296 2 -0.133697 25.4527 5.46948
848 1 1.15447 35.4288 0.862498
12287 2 8.18626 42.7745 2.54485
12288 2 5.43009 45.5256 2.73861
15346 2 13.7692 34.0437 11.1084
12290 2 11.022 45.4683 2.52953
12353 2 5.34647 37.0533 11.0534
12292 2 2.7095 48.4677 2.61038
15262 2 13.6756 31.1194 2.85521
12294 2 8.35356 48.4264 2.65869
15316 2 13.7402 39.7926 5.57971
15373 2 13.7797 37.0111 13.831
12297 2 2.75724 28.1719 5.61849
12298 2 2.59763 25.5452 8.5229
15251 2 13.838 27.9787 -0.00917531
12300 2 5.46023 25.6374 5.55851
12301 2 8.23002 28.4705 5.7109
12302 2 8.30136 25.381 8.60983
12303 2 5.48352 28.2875 8.36944