ITEM: TIMESTEP
50000
ITEM: NUMBER OF ATOMS
18000
ITEM: BOX BOUNDS xy xz yz pp pp pp
-2.2304853436796790e-01 2.8117048534367640e+01 0.0000000000000000e+00
-2.7804999957892518e+00 3.3750849999578782e+02 0.0000000000000000e+00
-2.2473098392281041e-01 2.8118730983923093e+01 0.0000000000000000e+00
ITEM: ATOMS id type x y z
1 1 1.32087 -1.33064 1.02117
2 1 4.02297 -1.57143 1.1505
3 1 4.13579 -1.54337 4.19294
4 1 1.40252 -1.31116 3.75999
5 1 1.17497 1.59764 1.16565
6 1 4.53816 1.14669 0.991622
7 1 3.35378 0.758151 7.74708
8 1 0.989887 1.19811 4.36211
9 1 7.07685 -1.7286 3.83421
10 1 9.55437 -1.46827 1.31169
11 1 9.9381 -1.76712 3.89659
12 1 5.64079 0.477212 6.4126
13 1 3.81064 1.12408 3.58229
14 1 9.70445 1.09114 1.23304
15 1 9.73087 1.29327 3.99284
16 1 6.92389 1.27096 4.04341
17 1 12.4679 -1.45807 1.47091
15111 2 13.9738 11.0139 10.9635
19 1 12.439 1.27535 1.34534
20 1 12.7316 1.37423 4.11785
21 1 1.30062 4.13313 1.32193
22 1 3.97804 4.0365 1.07264
23 1 4.0738 3.97386 3.80461
24 1 1.35962 3.92017 4.02145
25 1 1.51829 7.13859 1.0528
26 1 4.0883 7.04556 1.3822
27 1 3.99082 7.12111 4.04024
28 1 1.34342 6.66012 4.2416
29 1 6.82744 4.1142 0.878729
30 1 9.76927 3.94482 1.17851
31 1 9.3565 4.24598 3.9688
32 1 6.53681 3.96458 3.58363
33 1 6.74901 6.8583 1.18154
34 1 9.85787 6.63785 0.970914
35 1 10.1573 7.17825 3.91624
36 1 6.85345 6.78804 3.99296
37 1 12.4508 7.01625 1.5352
38 1 12.5798 4.20252 3.94808
39 1 12.5691 9.92117 1.34636
40 1 12.7016 6.9299 4.27594
41 1 1.36596 10.0678 1.38415
42 1 4.18458 9.91826 0.857109
43 1 3.80701 10.0391 3.52735
44 1 0.897378 9.7153 3.87067
45 1 1.26849 12.8469 1.18478
46 1 4.1673 12.7786 1.15967
47 1 4.12601 12.9622 4.10875
48 1 1.252 12.7949 3.93887
49 1 6.92715 9.94108 0.93562
50 1 9.51599 9.62645 0.946887
51 1 9.26504 9.82051 3.87485
52 1 6.45047 10.09 4.15787
53 1 6.85193 12.7993 1.03819
54 1 10.1138 12.7505 1.45656
55 1 9.87592 12.6331 3.93141
56 1 6.7678 12.9984 3.78742
57 1 12.8693 12.7413 0.94513
58 1 12.3308 9.96355 4.09503
59 1 12.6394 18.1846 1.31903
60 1 12.5659 12.713 3.86735
61 1 1.34159 15.4086 1.26226
62 1 4.23616 15.891 1.22101
63 1 4.26654 15.904 4.19529
64 1 1.37055 15.4418 3.91219
65 1 1.21994 18.3794 1.00693
66 1 4.12141 18.668 1.13512
67 1 4.21821 18.5309 3.97472
68 1 1.38792 18.3093 3.98233
69 1 7.04824 15.5914 1.17161
70 1 9.77647 15.7669 1.36883
71 1 10.0036 15.5454 4.28958
72 1 7.10292 15.6901 3.88297
73 1 6.76012 18.5076 1.22799
74 1 9.82118 18.5027 1.08615
75 1 9.80849 18.4286 4.00388
76 1 7.15187 18.418 3.99853
5719 1 6.97932 -1.87063 6.71487
78 1 12.6234 15.4335 4.05356
79 1 12.6388 21.1755 0.956382
80 1 12.7238 18.2734 4.218
81 1 1.55205 21.2105 0.968514
82 1 4.15135 21.5293 1.04578
83 1 4.40256 21.3493 3.8752
84 1 1.41188 21.1498 3.82088
85 1 7.06617 21.2361 0.875698
86 1 9.99159 21.2022 1.2633
87 1 9.92307 21.2177 4.26448
88 1 7.16178 21.4838 3.71809
5723 1 3.64959 3.0934 6.4219
90 1 12.7018 20.9125 4.13825
91 1 1.40859 -1.69969 6.74666
92 1 4.14466 -1.84309 6.6907
93 1 4.27532 2.23865 9.84786
94 1 1.21155 -1.57815 9.57864
95 1 0.895008 1.43825 6.96993
96 1 3.8052 4.68334 8.63923
97 1 7.40303 4.56778 8.14803
98 1 1.22851 1.36341 9.68885
99 1 6.72102 1.11129 8.95107
100 1 9.64714 -1.64196 6.78445
101 1 10.0239 -1.87839 9.63237
102 1 7.00924 -1.7645 9.8519
103 1 7.39843 3.30811 10.3372
104 1 9.32617 0.995726 6.85378
105 1 9.81162 0.995712 9.74015
106 1 5.45792 5.36536 10.4111
107 1 12.5838 -1.5124 6.8414
108 1 12.5577 -1.39948 9.47798
109 1 12.0442 1.35043 6.81077
110 1 12.3781 1.12905 9.54752
111 1 1.30974 4.41205 6.81064
112 1 5.5957 4.66227 6.19271
113 1 4.00108 7.29873 6.73684
114 1 1.21115 4.06104 9.85051
115 1 1.1773 6.94756 7.05761
116 1 7.1834 7.26811 9.76959
117 1 4.15071 10.0553 9.48078
118 1 1.04986 6.74342 9.96443
119 1 6.97782 7.1557 6.89004
120 1 9.845 3.92648 6.98276
121 1 10.1044 3.92447 9.46748
122 1 4.00597 7.46856 9.49464
123 1 7.11236 9.64195 6.76513
124 1 12.6909 6.84213 6.94729
125 1 10.0766 6.92661 9.69934
126 2 5.5175 5.98541 8.37673
127 1 12.6008 3.9495 6.91257
128 1 12.8128 4.16305 9.49687
12143 2 8.61477 13.8959 13.8739
130 1 12.8906 6.84519 9.66528
131 1 1.53579 10.0146 6.76393
132 1 4.29944 9.89781 6.54833
133 1 6.79499 9.98333 9.64383
134 1 1.20242 9.81988 9.76589
135 1 1.34441 12.9356 6.6052
136 1 4.19303 12.5342 6.76376
137 1 4.06911 12.8688 9.97326
138 1 1.26199 12.8921 9.48014
139 1 9.79455 9.86714 6.97762
140 1 9.90902 6.84276 6.81005
141 1 9.80393 9.84222 9.70839
142 1 7.25651 2.61521 6.39354
143 1 7.20304 12.8471 6.44545
144 1 9.88718 12.6401 6.71749
145 1 9.89249 12.5709 9.47437
146 1 7.07115 12.5674 9.45013
147 1 12.4622 9.56609 6.769
148 1 12.7581 9.52456 9.72106
149 1 12.7254 12.5337 6.80956
150 1 12.6974 12.3453 9.66263
151 1 1.19557 15.5704 6.57688
152 1 3.99271 15.7026 7.16765
153 1 4.07481 15.5778 9.84062
154 1 1.41429 15.5739 9.69392
155 1 1.31702 18.5157 6.87636
156 1 4.20454 18.5342 6.98076
157 1 4.29122 18.3037 9.86099
158 1 1.25181 18.3566 9.51897
159 1 7.10056 15.3891 6.82267
160 1 10.0858 15.271 6.98918
161 1 9.5166 15.2769 9.70998
162 1 6.909 15.566 9.77043
163 1 6.99707 18.1758 6.94627
164 1 9.86749 18.232 6.9483
165 1 10.0536 18.1062 9.98139
166 1 7.20973 18.3788 9.58911
167 1 12.7315 15.2158 6.75016
168 1 12.5832 15.169 9.39267
169 1 12.7021 18.1492 7.17332
170 1 12.5782 18.1743 9.87943
171 1 1.51895 21.2484 6.55399
172 1 4.32741 21.5087 6.76325
173 1 4.04789 21.1915 9.61347
174 1 1.40708 21.2331 9.68396
175 1 7.27196 20.8174 6.66729
176 1 9.83334 21.0635 7.19701
177 1 10.1363 21.0882 9.86944
178 1 7.0611 21.3541 9.83266
179 1 12.7311 20.9712 7.03512
180 1 12.6658 20.9421 9.94978
181 1 1.38409 -1.47685 12.5751
182 1 4.39595 -1.25521 12.1639
183 1 1.36092 1.26892 12.3226
184 1 4.0022 1.33286 12.8204
185 1 7.08317 -1.5846 12.4736
186 1 10.0032 -1.52655 12.5383
187 1 6.6621 0.969234 12.2743
188 1 9.71667 1.05742 12.6675
189 1 12.6373 -1.76074 12.6103
190 1 12.368 1.09718 12.6845
191 1 1.35431 4.16425 12.5694
192 1 3.97164 4.24182 12.6335
193 1 1.12927 6.94446 12.7692
194 1 4.21743 7.17411 12.5291
195 1 6.64292 4.30081 12.735
196 1 9.8376 4.16572 12.2921
197 1 7.24372 7.01542 12.4248
198 1 10.1074 7.10572 12.5957
199 1 12.7966 3.85911 12.4364
200 1 12.6877 6.95312 12.5349
201 1 1.0985 10.0807 12.3437
202 1 3.82205 9.90691 12.3666
203 1 1.10646 12.7738 12.3199
204 1 4.08435 12.5723 12.5226
205 1 7.01396 9.74513 12.4051
206 1 9.75895 9.92102 12.5744
207 1 6.96698 12.6162 12.3682
208 1 9.74628 12.5295 12.3719
242 1 12.6182 9.81186 12.6218
210 1 12.7912 12.5132 12.3282
211 1 1.31802 15.7182 12.6145
212 1 4.13283 15.5075 12.7204
213 1 1.06072 18.4861 12.4322
214 1 3.98537 18.4268 12.3508
215 1 7.13157 15.5216 12.4448
216 1 9.86461 15.3141 12.5343
217 1 6.93057 18.2019 12.3124
218 1 9.8501 18.391 12.7397
219 1 12.3793 15.3827 12.4589
220 1 12.5971 18.3247 12.4074
221 1 1.18809 21.4175 12.4358
222 1 4.11921 21.2718 12.3741
223 1 6.9923 21.1619 12.3999
224 1 9.91188 21.1394 12.5361
225 1 12.7842 21.317 12.9029
12125 2 11.1865 19.6664 11.277
12110 2 11.2576 2.72369 10.9432
12111 2 -0.192287 8.30332 11.2371
12124 2 8.58081 22.5167 11.2114
398 1 12.4936 4.20883 1.05949
12109 2 8.17173 5.48818 10.8404
12012 2 2.80569 5.63982 -0.292864
12008 2 5.47966 -0.186075 2.65916
15131 2 13.9632 2.40977 13.8693
12010 2 11.1859 0.0209254 2.67578
12123 2 5.67318 19.8144 11.3185
12108 2 5.51918 2.67795 11.594
12013 2 2.58049 2.6545 2.4197
12122 2 2.774 22.6947 11.0969
12107 2 2.88249 5.77201 10.9553
12112 2 2.5189 11.38 11.1053
12017 2 8.40965 2.59886 2.53011
12018 2 5.36281 5.63097 2.65073
12104 2 8.65029 -0.464234 11.0788
12020 2 11.282 5.52735 2.77375
15101 2 13.8642 -0.141951 10.994
15091 2 13.9645 22.2145 5.50247
12023 2 2.49674 8.49327 2.34907
12120 2 11.3695 14.0008 10.8782
12102 2 2.7132 -0.0340774 10.9737
12113 2 5.42037 8.65304 10.995
12027 2 8.13407 8.22623 2.71373
12028 2 5.44033 11.2376 2.48518
12139 2 5.47903 11.1684 13.8319
12030 2 11.1171 10.9085 2.6281
12099 2 11.0947 19.6236 5.46518
12098 2 5.35022 22.7687 8.4458
12033 2 2.77605 14.3274 2.50369
12004 2 -0.170275 -0.193927 2.61233
12097 2 8.57925 19.812 8.42435
12096 2 8.30665 22.5649 5.38008
12037 2 8.35772 14.2931 2.57801
12038 2 5.75598 17.0737 2.73746
12095 2 5.53017 19.6598 5.59326
12040 2 11.3062 17.074 2.7072
15121 2 13.723 22.6265 11.0266
12093 2 2.66135 19.6658 8.49669
12043 2 2.97726 19.9284 2.5915
15071 2 13.8837 10.9639 5.16792
12092 2 2.82609 22.7709 5.32197
12094 2 -0.0127737 22.5032 8.33498
12047 2 8.40254 19.8903 2.75082
12048 2 5.57538 22.7539 2.5147
12090 2 11.1944 16.753 8.37864
12050 2 11.2774 22.5499 2.68343
12119 2 8.34285 16.8305 11.1604
12052 2 2.89234 -0.229644 5.46602
12106 2 -0.0778643 2.68178 11.2704
12118 2 5.4839 14.1397 11.1186
5640 1 12.4762 -1.25244 4.1703
12056 2 8.21502 -0.0707484 5.36665
5717 1 4.05225 -1.56547 9.73288
12058 2 5.43488 -0.851278 8.00937
5633 1 6.69242 -1.22199 0.883916
12060 2 11.1265 -0.228732 8.11423
12117 2 2.59314 16.8474 11.1267
12062 2 3.06 5.3546 5.60842
12063 2 2.19703 2.66845 8.299
12089 2 11.3134 13.9561 5.54188
12065 2 5.39614 2.71315 5.021
12066 2 7.71025 5.08056 5.84997
12067 2 8.57962 2.61367 8.50868
12068 2 5.32827 2.82854 7.93946
12069 2 11.0316 2.91138 5.47889
12070 2 11.3787 5.50381 8.33097
12115 2 11.2903 8.45468 11.1651
12072 2 2.76499 11.2627 5.27564
12073 2 2.60928 8.67301 8.19888
12114 2 8.39499 11.1777 10.9948
12075 2 5.50462 8.35073 5.40958
12076 2 8.28778 11.16 5.55447
12077 2 8.47869 8.36953 8.19745
12078 2 5.70178 11.1772 8.18297
12079 2 11.1743 8.12488 5.55627
12080 2 11.2663 11.1386 8.14445
12138 2 8.31245 8.38707 13.7718
12082 2 2.68749 17.0143 5.4673
12083 2 2.69201 14.0419 8.20529
12071 2 -0.104755 8.07664 5.4279
12085 2 5.48428 14.227 5.28586
12086 2 8.50514 16.7311 5.58765
12087 2 8.47302 14.039 8.09444
12088 2 5.4643 16.9397 8.52313
15022 2 13.98 8.14999 2.63604
12019 2 11.1754 2.64967 -0.199651
12054 2 -0.151068 -0.194701 8.39399
12021 2 -0.0524312 8.34346 -0.284419
12039 2 11.4525 13.9853 -0.0883153
12100 2 11.2171 22.5498 8.27838
12141 2 2.75487 14.1062 13.9252
15011 2 13.8752 5.41947 -0.172673
12144 2 5.54887 16.8187 13.8249
372 1 7.13148 1.32425 1.09051
12081 2 -0.179063 14.0606 5.18408
12036 2 8.49706 16.9997 -0.16285
6061 1 12.779 15.4963 1.02905
12091 2 0.0300295 19.7138 5.3557
12044 2 -0.035798 22.6953 2.62299
12149 2 5.55088 22.4809 13.8096
12145 2 11.0613 16.7846 13.9694
12032 2 2.73204 17.1815 -0.101294
12140 2 11.2561 11.2253 13.8128
12064 2 -0.130055 5.43232 8.36747
12034 2 -0.202878 16.8492 2.58388
15051 2 13.8816 0.00722349 5.5873
12148 2 8.25904 19.5435 13.7913
12014 2 0.179731 5.45364 2.66735
12116 2 -0.112791 14.137 10.8758
12046 2 8.57137 22.5046 -0.236965
12137 2 -0.247577 11.1962 13.7948
15012 2 13.9634 2.6077 2.59113
12135 2 11.27 5.43635 13.7623
12002 2 2.71533 -0.019018 -0.12709
12022 2 2.8604 11.5478 -0.158238
12035 2 5.53551 14.1985 -0.0677008
12131 2 2.72494 2.88118 13.8826
12129 2 5.65978 -0.302657 13.807
12029 2 10.9918 8.34058 -0.08021
12041 2 -0.055353 19.7685 -0.141035
226 1 4.33803 -1.41447 15.2121
227 1 1.49032 -1.53816 15.1291
228 1 3.87273 1.37283 15.5985
229 1 1.11166 1.37151 15.1667
230 1 9.70869 -1.60162 15.1614
231 1 7.03045 -2.01015 15.4146
232 1 9.70326 1.42543 15.5301
233 1 6.90608 1.11987 15.2622
234 1 12.7621 -1.44164 15.2629
235 1 12.697 1.19807 15.3531
236 1 4.12511 4.18257 15.4631
237 1 1.14499 4.17032 15.2578
238 1 4.17367 7.03151 15.4573
239 1 1.41155 6.99182 15.4924
240 1 10.0353 4.18424 15.43
241 1 7.09625 3.90899 15.1765
12130 2 11.1888 -0.244592 13.9915
243 1 6.74323 6.76761 15.3431
244 1 12.5758 4.13072 15.4088
245 1 12.715 6.96964 15.4816
246 1 4.17622 9.6228 15.1978
247 1 1.33231 9.74481 15.3188
248 1 4.21704 12.5216 15.4117
249 1 1.30961 12.4974 15.0608
250 1 9.88978 9.74894 15.5432
251 1 6.97424 9.8648 15.1455
252 1 9.75975 12.3065 15.3591
253 1 6.91737 12.5491 15.2919
254 1 12.7324 10.0329 15.3807
255 1 12.4837 12.829 14.9525
256 1 4.00985 15.4496 15.3722
257 1 1.25848 15.4071 15.2311
258 1 4.11156 18.3102 15.2202
259 1 1.23887 18.2657 15.5209
260 1 9.53623 15.5147 15.2481
261 1 6.85654 15.2535 15.3318
262 1 9.68316 18.1669 15.4069
263 1 6.96259 17.9448 15.1977
264 1 12.5326 15.8225 15.35
265 1 12.8203 18.3857 15.4659
266 1 4.1348 21.2779 15.1691
267 1 1.23492 21.2817 15.421
268 1 9.49378 20.9603 15.1609
269 1 6.73006 21.0145 15.4373
270 1 12.4096 21.318 15.579
271 1 1.12812 -1.37647 18.0155
272 1 4.00396 -1.58336 18.2526
273 1 3.7061 -1.42684 21.0724
274 1 1.26102 -1.3826 21.0097
275 1 1.34288 1.28972 18.3953
276 1 4.235 1.21907 18.3531
277 1 4.12568 1.49366 20.824
278 1 1.0836 1.28289 21.4531
279 1 6.79081 1.15206 17.9904
280 1 10.0925 -1.48558 17.7444
281 1 7.27957 -1.41987 18.3875
282 1 6.78148 -1.29283 23.653
283 1 9.80981 1.24693 18.5415
284 1 12.4816 4.1884 18.3213
285 1 9.98471 0.994574 21.3653
286 1 7.20412 1.21713 20.9578
287 1 12.6715 1.2432 18.3611
288 1 12.5832 -1.59979 21.2108
5996 1 6.79409 -1.60867 26.5282
290 1 12.7568 1.34138 21.033
291 1 1.27604 4.08032 17.995
292 1 4.11478 4.02302 18.0324
293 1 4.13477 4.38321 20.8797
294 1 1.30591 4.17064 21.1641
295 1 1.21705 6.87487 18.3336
296 1 3.97071 6.90846 18.001
297 1 4.1888 7.18093 20.8543
298 1 1.2271 6.77672 21.0945
299 1 6.88302 4.12943 18.3721
300 1 9.61163 4.05321 18.3612
301 1 9.72273 4.02304 21.221
302 1 7.15254 4.24574 21.3753
303 1 6.97917 6.90937 18.2041
304 1 9.78749 7.019 15.5338
305 1 9.84249 7.01165 20.9752
306 1 7.02333 7.13603 21.2665
307 1 12.5873 6.8802 18.2668
308 1 12.4582 4.38858 21.0433
309 1 9.65392 6.98073 18.2293
310 1 12.5828 7.25896 21.1355
311 1 1.33455 9.59172 18.1775
312 1 4.16723 9.59753 18.1063
313 1 4.04178 9.99308 21.1092
314 1 1.10766 9.80281 20.9076
315 1 1.27273 12.4156 18.0128
316 1 4.01814 12.3548 18.0934
317 1 4.00006 12.6041 21.1078
318 1 1.24758 12.5595 20.7961
319 1 7.15996 9.77818 18.1886
320 1 9.90456 9.77686 18.4346
321 1 9.9535 9.72908 20.8831
322 1 6.83669 9.84605 20.7474
323 1 7.03723 12.4079 18.2467
324 1 9.79865 12.6345 18.0251
325 1 9.78513 12.7838 20.8573
326 1 6.80868 12.7153 21.0123
327 1 12.7161 9.75022 17.9588
328 1 12.6876 9.81133 21.0313
329 1 12.6848 12.6528 18.0025
330 1 12.5015 12.4516 21.0572
331 1 1.60991 15.0432 17.9653
332 1 4.29813 15.1141 18.3406
333 1 3.76379 15.3226 21.0856
334 1 1.03177 15.5409 21.097
335 1 1.5257 18.1764 18.1606
336 1 4.2714 18.2648 18.0397
337 1 4.28745 18.1395 20.9308
338 1 1.44929 18.3286 20.9417
339 1 7.00742 15.3073 18.0458
340 1 9.96987 15.5307 17.8814
341 1 9.59032 15.6375 20.6555
342 1 6.71598 15.4753 20.8404
343 1 6.92885 18.1167 18.039
344 1 9.78989 18.4421 18.2353
345 1 10.112 18.3019 20.9522
346 1 7.15996 18.358 20.9792
347 1 12.621 15.5026 18.1851
348 1 12.5413 15.3332 21.0872
349 1 12.6116 18.216 18.2451
350 1 12.5998 18.2361 20.9554
351 1 1.28345 21.2798 18.0823
352 1 4.02414 20.9742 17.851
353 1 4.17216 21.073 20.8504
354 1 1.55586 21.0159 20.9191
355 1 7.07317 21.1287 18.2501
356 1 9.79763 21.2558 17.9106
357 1 9.69977 21.2027 20.79
358 1 6.95893 21.1562 20.9922
359 1 12.6727 21.3068 18.3809
360 1 12.6911 21.067 21.0771
361 1 1.23041 -1.60357 23.9047
362 1 4.09206 -1.78222 23.7678
363 1 4.00538 -1.53406 26.3292
364 1 1.32397 -1.50243 26.4782
365 1 1.13243 1.36555 23.9742
366 1 4.32769 1.11174 23.7178
367 1 4.15328 1.40653 26.4928
368 1 1.23445 1.4637 26.7571
369 1 6.87626 1.15973 26.5402
370 1 9.57673 -1.62379 23.7047
371 1 9.71296 -1.4262 26.6341
12244 2 -0.0599853 22.5024 25.1581
373 1 7.04517 1.52779 23.7232
374 1 9.87116 1.11384 23.9558
375 1 9.71231 4.05863 26.6448
12133 2 8.43569 2.644 13.9615
377 1 12.5245 -1.55695 24.1462
378 1 12.6008 -1.70332 26.9026
379 1 12.8339 1.21999 23.8091
380 1 12.7084 1.05922 26.9435
381 1 1.33627 4.33293 23.817
382 1 4.17 3.91718 23.7736
383 1 4.26681 4.0535 26.8796
384 1 1.53646 4.4353 26.6315
385 1 1.19182 7.03396 23.8375
386 1 3.9693 7.3005 23.6854
387 1 4.199 6.9783 26.7043
388 1 1.42001 7.32952 26.5568
389 1 6.95671 4.27198 23.9678
390 1 9.76492 4.09797 23.8228
391 1 12.4339 3.86877 26.664
392 1 7.04775 4.15491 26.6758
393 1 6.65231 7.32669 23.7967
394 1 9.67202 7.01807 23.8662
395 1 9.70342 7.11806 26.7571
396 1 6.93025 7.13008 26.5575
397 1 12.3245 4.26066 23.9486
12011 2 -0.194199 2.83826 28.0891
399 1 12.5805 7.15093 23.7598
400 1 12.4496 6.8331 26.7366
401 1 0.976464 9.72014 23.6456
402 1 3.98797 9.99289 23.8472
403 1 4.34087 9.69244 26.3867
404 1 1.5863 10.4278 26.665
405 1 1.12018 12.5711 23.9577
406 1 3.87181 12.8854 24.0129
407 1 4.23156 12.7157 26.6873
408 1 1.52882 13.0642 26.7536
409 1 7.01081 9.83388 23.6493
410 1 9.73037 10.029 23.5882
411 1 9.65119 9.87941 26.6677
412 1 6.94675 9.71227 26.4188
413 1 6.53291 12.8008 23.8323
414 1 9.3088 12.6339 23.7611
415 1 9.77201 12.7573 26.7922
416 1 6.9844 12.84 26.6757
417 1 12.7474 9.98751 24.0526
418 1 12.799 9.79962 26.6924
419 1 12.7179 12.6784 23.5484
420 1 12.4491 12.624 26.4679
421 1 1.06169 15.5634 23.759
422 1 4.04995 15.7533 23.9321
423 1 4.17456 15.4185 26.8132
424 1 1.25967 16.0618 26.5525
425 1 1.14211 18.323 23.8294
426 1 4.18738 18.5359 23.6662
427 1 4.30701 18.2537 26.6159
428 1 1.30648 18.7264 26.7333
429 1 6.96039 15.7841 23.8058
430 1 9.78828 15.4714 23.6197
431 1 9.60266 15.5152 26.56
432 1 6.98444 15.6784 26.6588
433 1 6.94686 18.8204 23.9436
434 1 9.69682 18.0931 24.0179
435 1 10.076 18.1705 26.7555
436 1 7.27039 18.3219 26.7702
437 1 12.7988 15.3869 23.8473
438 1 12.6436 15.2837 26.5088
439 1 12.5953 18.0698 23.9096
440 1 12.7085 21.2635 26.8306
441 1 1.2946 21.0936 23.799
442 1 4.09645 21.2439 23.7419
443 1 4.25246 21.1886 26.5607
444 1 1.30324 21.2522 26.4967
445 1 7.10716 21.2945 23.6133
446 1 9.8389 21.1793 23.8105
447 1 9.83216 21.178 26.4997
448 1 6.87244 21.3159 26.6304
449 1 12.6207 20.9541 23.9269
376 1 9.60322 1.3149 26.7098
12031 2 -0.0369834 14.0021 27.9705
12250 2 11.2439 22.528 25.1681
6271 1 12.7359 -1.55228 18.2644
15182 2 13.9186 13.8934 19.676
12025 2 5.62363 8.56906 28.0195
12204 2 -0.0795462 -0.0181032 25.3808
12249 2 11.3265 19.5234 22.6438
12150 2 11.2856 22.6137 14.0408
12181 2 0.00305536 13.8446 16.7051
12232 2 2.77107 17.1119 22.5322
12132 2 -0.0609188 5.52054 13.9066
12248 2 5.61021 22.4852 25.1292
12224 2 0.0346347 11.1711 25.2127
12153 2 2.34085 -2.83102 19.3831
15212 2 13.8475 2.68324 25.1995
12194 2 0.08036 22.497 19.774
5906 1 6.81812 -1.64532 21.0105
12221 2 -0.20357 8.42978 22.226
12235 2 5.32676 13.9379 22.5276
12231 2 -0.155303 14.0966 22.2635
12134 2 5.50558 5.60206 13.9309
12171 2 -0.0612196 8.34474 16.838
12191 2 0.0237676 19.7478 16.7257
12214 2 -0.0567432 5.78947 25.2354
12211 2 -0.158311 2.81109 22.5491
12247 2 8.39582 19.7772 25.3378
12152 2 2.79615 -0.161029 16.7439
12016 2 8.22225 5.58491 28.0201
12246 2 8.54506 22.5749 22.3789
12015 2 5.65702 2.63673 27.8983
12156 2 8.39947 -0.27029 16.6284
12042 2 2.97989 22.5527 27.759
12158 2 5.47957 -0.214872 19.6864
5904 1 9.83276 -1.5993 20.8189
12160 2 11.4218 -0.164017 19.5601
12245 2 5.61247 19.6806 22.1601
12162 2 2.70389 5.45762 16.8524
12163 2 2.73876 2.77455 19.5258
12230 2 11.2033 11.1281 25.1311
12165 2 5.47873 2.65653 16.8029
12166 2 8.46307 5.41393 16.5815
12167 2 8.59444 2.56993 19.8358
12168 2 5.648 5.39581 19.6753
12169 2 11.2512 2.72032 16.7214
12170 2 11.0393 5.39356 19.5435
12243 2 2.69224 19.6853 25.2136
12172 2 2.68212 10.9955 16.6265
12173 2 2.55861 8.29193 19.6257
12242 2 2.86823 22.5488 22.2824
12175 2 5.53122 8.40239 16.7738
12176 2 8.17796 11.0729 16.7522
12177 2 8.41771 8.44801 19.6118
12178 2 5.39538 11.1134 19.6247
12179 2 11.2377 8.53394 16.9156
12180 2 11.1869 11.1995 19.5343
12228 2 5.38423 11.2647 25.2911
12182 2 2.73477 16.8226 16.6076
12183 2 2.74362 13.8234 19.5883
12026 2 8.20876 11.113 28.0861
12185 2 5.5968 13.9577 16.8027
12186 2 8.42542 16.7717 16.7948
12187 2 8.46722 14.1346 19.4674
12188 2 5.39899 16.6081 19.4766
12189 2 11.2663 13.9534 16.7121
12190 2 11.2556 16.8894 19.5472
12227 2 8.46563 8.38873 25.0232
12192 2 2.70657 22.602 16.5912
12193 2 2.95751 19.7261 19.587
15211 2 13.8062 5.68234 22.5423
12195 2 5.33438 19.5909 16.6705
12196 2 8.33053 22.5049 16.7562
12197 2 8.46151 19.9055 19.6447
12198 2 5.58142 22.5062 19.54
12199 2 11.2142 19.5973 16.6837
12200 2 11.3539 22.657 19.5445
12240 2 11.2816 16.6649 25.2711
12202 2 2.52667 -0.0440422 22.6178
12045 2 5.6512 20.0116 28.0381
12239 2 11.1113 14.1726 22.2444
15161 2 13.8331 5.60708 16.942
12206 2 8.34589 -0.263845 22.33
12233 2 2.77268 14.4233 25.3492
12208 2 5.48283 -0.14264 25.1339
12229 2 11.1408 8.38293 22.3194
12210 2 11.2384 -0.134891 25.3324
12238 2 5.71805 16.9461 25.2739
12212 2 2.79589 5.5599 22.6066
12213 2 2.75619 2.63031 25.1258
12237 2 8.27988 14.0407 25.1773
12215 2 5.71907 2.7525 22.5333
12216 2 8.50034 5.45488 22.4668
12217 2 8.33072 2.62913 25.3141
12218 2 5.60494 5.7095 25.3464
12219 2 11.0053 2.52298 22.5824
12220 2 11.0653 5.46257 25.4895
12236 2 8.33484 16.8181 22.3549
12222 2 2.5609 11.3391 22.3909
12223 2 2.56529 8.51034 25.2157
77 1 12.9428 18.2505 26.9531
12225 2 5.4948 8.55135 22.3012
12226 2 8.19048 11.2273 22.2437
12006 2 8.25688 -0.207785 28.0743
12184 2 -0.0606167 16.7435 19.6813
12161 2 -0.165504 2.64398 16.5046
12164 2 -0.116196 5.41643 19.7435
12127 2 -0.0507234 -0.264998 13.9977
12146 2 2.56962 19.6372 14.0853
12049 2 11.2928 19.6894 28.0897
12136 2 2.7252 8.46692 14.0152
451 1 1.24696 24.2175 1.19277
452 1 4.23524 24.1673 0.956865
453 1 4.31883 24.142 3.69822
454 1 1.5593 24.0343 3.96483
455 1 7.0677 24.0387 1.29846
456 1 9.91728 23.8343 1.225
457 1 9.68919 23.8143 3.98611
458 1 7.03421 24.1067 4.34457
459 1 12.7706 23.754 1.34379
460 1 12.7137 23.979 4.13137
461 1 1.13922 26.8701 1.18094
462 1 3.9749 26.8786 0.990071
463 1 4.05458 26.8485 3.91241
464 1 1.39502 27.0511 3.79806
465 1 1.22348 29.8468 1.16073
466 1 4.42827 29.759 1.02304
467 1 4.21256 29.5838 3.66342
468 1 1.3254 29.6214 3.96665
469 1 6.92486 26.7372 1.10744
470 1 9.84384 26.8744 1.04311
471 1 9.87932 26.4108 4.11806
472 1 6.8919 26.6461 3.84496
473 1 7.05622 29.7338 1.18026
474 1 9.7926 29.6727 1.15706
475 1 9.62317 29.2312 3.84967
476 1 7.05497 29.695 4.11042
569 1 12.5999 29.5285 0.784098
478 1 12.8265 26.758 4.06989
1017 1 12.4517 49.3948 7.02126
12384 2 2.79704 48.1365 13.9461
481 1 1.17276 33.0423 1.1343
482 1 3.74446 32.6215 1.24669
483 1 4.05501 32.7539 3.94637
484 1 1.27286 32.3872 3.5381
485 2 2.66388 34.0519 2.78675
486 1 4.00945 35.4509 1.34405
487 1 3.67507 35.485 4.2479
488 1 1.00851 34.6259 4.52761
12380 2 -0.0330354 45.3253 13.8381
490 1 6.52663 32.183 1.51006
491 1 9.52966 32.2308 4.36462
492 1 6.94912 32.7735 4.23125
493 1 6.83478 35.2282 1.06002
494 1 9.56748 35.5079 1.26785
495 1 9.5873 34.869 4.09299
496 1 6.49092 35.7572 3.83248
15291 2 13.9264 47.9098 2.54402
498 1 12.3249 32.4319 3.69741
499 1 12.4202 35.6204 1.2996
500 1 12.7403 35.4564 3.98412
501 1 1.14679 38.3399 1.26031
502 1 4.12652 38.3857 1.21067
503 1 4.25642 38.2614 4.01519
504 1 1.22954 38.0828 4.33514
505 1 1.13657 41.0587 1.27184
506 1 3.93354 41.0084 1.23661
507 1 4.2404 41.116 4.25305
508 1 1.31791 41.1883 3.91421
509 1 6.91449 38.2013 1.33375
510 1 9.54647 38.3879 1.14918
511 1 9.84961 37.7184 3.93003
512 1 6.98093 38.3557 4.11673
513 1 6.98935 41.23 1.10586
514 1 9.60354 41.1916 1.35834
515 1 9.69003 40.8232 4.00276
516 1 7.01054 41.0874 4.15737
517 1 12.6198 38.4868 0.90997
518 1 13.0259 38.3697 3.71891
519 1 12.7581 41.1492 1.04118
520 1 12.3953 41.0146 3.9629
521 1 1.26035 43.8581 1.24684
522 1 4.11281 43.8586 1.48817
523 1 4.36932 43.8396 3.99007
524 1 1.60175 44.0411 3.90965
525 1 0.98224 46.4157 1.00784
526 1 3.93075 46.5623 1.17788
527 1 4.01848 46.6617 3.80165
528 1 1.51223 46.5679 3.80413
529 1 7.01104 43.9195 0.908784
530 1 9.78011 43.9652 1.31947
531 1 9.99592 43.9006 3.98146
532 1 7.19541 44.1255 3.90051
533 1 6.92334 46.6652 1.08726
534 1 9.70514 46.7391 1.33683
535 1 9.7842 46.8581 4.12307
536 1 6.93538 46.7969 4.12072
537 1 12.7351 43.9057 0.988628
538 1 12.7199 43.9878 4.01978
539 1 12.7162 46.464 1.16565
540 1 12.4224 46.9766 3.97512
541 1 1.45389 24.1608 6.66505
542 1 4.07473 24.2276 7.00195
543 1 4.13911 24.2939 9.90902
544 1 1.23783 24.1443 9.49841
545 1 6.97751 23.8679 7.10058
546 1 9.81286 23.9575 7.01255
547 1 9.78907 23.9619 9.71236
548 1 7.01125 23.9277 9.87882
549 1 12.5883 23.8265 6.78418
550 1 12.5754 24.0439 9.62203
551 1 1.3741 26.9032 6.90838
552 1 4.19116 26.9326 6.91828
553 1 4.35314 26.9484 9.71993
554 1 1.43058 26.8388 9.60197
555 1 1.21599 29.7641 6.79335
556 1 4.24936 29.949 6.51579
557 1 4.1302 29.5207 9.65283
558 1 1.51216 29.6622 9.48769
559 1 6.88893 26.7229 6.70793
560 1 9.44414 26.6977 6.96295
561 1 9.72114 26.8376 9.91919
562 1 6.998 26.7318 9.66618
563 1 7.03139 29.867 7.02915
564 1 9.97822 29.7456 7.03054
565 1 9.77495 29.7111 9.88782
566 1 7.04329 29.6334 9.74745
567 1 12.3128 26.6845 6.88458
568 1 12.6288 26.8812 9.67168
12374 2 2.68703 36.8777 13.8985
570 1 12.284 29.5305 9.66059
571 1 1.23705 32.5602 6.96241
572 1 4.52331 32.6863 6.90177
573 1 4.18113 32.3651 9.71889
574 1 1.45181 32.2421 9.89257
575 1 1.45211 35.2155 7.10702
576 1 4.24559 35.4047 6.95285
577 1 4.22148 35.3678 9.69248
578 1 1.5721 35.1414 9.77637
579 1 7.19887 32.7064 7.30081
580 1 10.0012 32.7009 7.15629
581 1 9.94391 32.7017 10.0192
582 1 7.05609 32.7049 9.95037
583 1 6.8396 35.208 6.75194
584 1 9.63688 35.5474 7.09165
585 1 9.75377 35.4102 9.92084
586 1 7.04664 35.3605 9.6669
587 1 12.6954 32.65 6.65728
588 1 12.5879 32.443 9.50172
589 1 12.6266 35.4742 6.88029
590 1 12.5808 35.5026 9.54156
591 1 1.31582 38.2824 6.99854
592 1 4.12521 38.4307 7.12446
593 1 4.03452 38.2469 9.78052
594 1 1.44857 38.2391 9.71017
595 1 1.29329 41.2214 6.92355
596 1 4.19594 41.2382 6.86254
597 1 4.20334 41.1432 9.64939
598 1 1.4258 41.0863 9.81458
599 1 6.91126 38.167 6.99999
600 1 9.80878 38.2415 7.02804
601 1 9.85042 38.2398 9.9891
602 1 7.09875 38.1118 9.88178
603 1 6.92663 40.9723 7.10491
604 1 9.78905 41.1194 6.87162
605 1 9.89669 41.132 9.522
606 1 7.06918 41.0155 9.65698
607 1 12.6602 38.3034 6.72512
608 1 12.546 38.2985 9.47138
609 1 12.4774 41.158 6.79574
610 1 12.3895 41.3313 9.61301
611 1 1.35709 44.03 6.72977
612 1 4.12311 44.0433 6.72758
613 1 4.09377 43.9067 9.70997
614 1 1.40547 43.8609 9.3331
615 1 1.16913 47.0249 6.7493
616 1 4.11776 46.7702 6.8649
617 1 4.1835 46.5603 9.54531
618 1 1.27875 46.5865 9.67045
619 1 6.88075 43.9008 6.7597
620 1 9.68564 44.2729 6.85933
621 1 9.8625 44.3098 9.63555
622 1 7.05043 44.2047 9.95145
623 1 6.92978 46.7516 7.00974
624 1 9.61077 47.2982 6.92011
625 1 9.74393 46.7996 9.75817
626 1 6.86364 47.2495 9.68292
627 1 12.8091 43.8541 6.88516
628 1 12.5938 43.9802 9.72665
629 1 12.3911 46.6031 6.73978
630 1 12.507 46.9546 9.37934
631 1 1.24449 24.0466 12.3278
632 1 4.26187 23.9468 12.3613
633 1 7.16553 23.9187 12.4674
634 1 10.0405 23.8179 12.5015
635 1 12.5736 23.9825 12.5663
636 1 1.28092 26.8384 12.5322
637 1 4.00721 26.6283 12.4389
638 1 1.53563 29.5957 12.3968
639 1 4.1257 29.8527 12.4823
640 1 6.90504 26.7296 12.7186
641 1 9.64033 26.867 12.5616
642 1 6.85135 29.5676 12.5199
643 1 9.50988 29.542 12.6763
644 1 12.3858 26.6571 12.6831
645 1 12.588 29.9422 12.6433
646 1 1.37908 32.3564 12.7222
647 1 4.11392 32.3389 12.6873
648 1 1.05572 35.1906 12.5723
649 1 3.93244 35.1713 12.8123
650 1 6.75849 32.4365 12.6327
651 1 9.68094 32.4413 12.68
652 1 6.7742 35.1666 12.5036
653 1 9.83662 35.5762 12.703
654 1 12.1903 32.6627 12.3363
655 1 12.5949 35.1733 12.3332
656 1 0.881554 38.3428 12.4551
657 1 3.99045 38.052 12.5281
658 1 1.06195 41.1341 12.4726
659 1 4.08008 41.1253 12.5751
660 1 6.9124 38.0888 12.5466
661 1 9.95644 38.146 12.744
662 1 6.88997 40.9891 12.4133
663 1 9.85274 40.9173 12.5139
664 1 12.7198 38.1773 12.1734
665 1 12.814 41.1298 12.489
666 1 1.47595 43.8101 12.2888
667 1 4.27964 43.874 12.253
668 1 1.34045 46.7035 12.4216
669 1 4.1474 46.5861 12.5147
670 1 6.99309 43.7733 12.6626
671 1 9.59452 43.9296 12.4359
672 1 6.61892 46.6568 12.6956
673 1 9.7732 46.8956 12.4856
674 1 12.7086 44.0356 12.5573
675 1 12.4576 46.8563 12.3791
12363 2 11.2083 48.2813 11.1349
858 1 9.6533 32.4849 1.41329
12253 2 2.82174 25.4012 2.49016
12362 2 5.47382 48.1857 11.1794
12379 2 2.6188 42.4059 13.936
1102 1 3.80868 49.2878 12.4855
12257 2 8.38279 25.388 2.54325
12258 2 5.42481 28.1367 2.39945
838 1 12.9246 32.193 1.0195
12260 2 11.259 27.8505 2.51417
12360 2 11.1402 42.6762 11.0476
477 1 12.4633 29.4583 3.86988
12263 2 2.80941 30.85 2.5107
12359 2 8.42936 45.3149 11.3577
15373 2 13.9073 36.7068 13.96
15316 2 14.0926 39.5899 5.45111
12267 2 8.37767 30.8919 2.78765
12268 2 5.83218 34.0541 2.51962
12345 2 11.1131 25.5016 11.1078
12270 2 10.9681 34.0462 2.49248
12358 2 5.60741 42.6839 11.0722
12344 2 8.30213 28.2142 11.2578
12273 2 2.84778 37.0955 2.57483
12357 2 2.69699 45.3877 10.9787
12343 2 5.68698 25.2607 11.2783
89 1 12.5743 26.6072 1.1981
12277 2 8.30675 36.7953 2.61324
12278 2 5.6939 39.8076 2.66319
12309 2 -0.0609792 33.8243 8.27629
12280 2 11.4027 39.8229 2.60674
12355 2 11.172 36.8959 11.2435
12365 2 -0.171187 28.2198 13.8247
12283 2 2.71436 42.6008 2.47908
12354 2 8.33264 39.6467 11.1896
6463 1 11.1758 33.936 -0.410107
848 1 1.44473 35.6494 1.81752
12287 2 8.19321 42.5545 2.51256
12288 2 5.42655 45.197 2.6179
12284 2 -0.034053 45.2876 2.7388
12290 2 11.0516 45.3381 2.60392
12353 2 5.55286 36.7303 11.1821
12292 2 2.92385 48.1607 2.5839
12296 2 -0.044974 25.4924 5.45375
12294 2 8.19579 48.3285 2.64627
12299 2 0.0581301 28.2254 8.28766
12279 2 11.0831 37.065 -0.149641
12297 2 2.79053 28.2474 5.45753
12298 2 2.72846 25.6171 8.18032
12377 2 5.59054 39.5621 13.8189
12300 2 5.53495 25.3698 5.37928
12301 2 8.3941 27.8299 5.20952
12302 2 8.33676 25.1554 8.36544
12303 2 5.72822 28.2232 8.46779
12304 2 11.2888 25.2154 5.52464
12305 2 10.9889 28.3233 8.33649
12352 2 2.80001 39.729 11.1589
12307 2 2.75266 33.9061 5.84592
12308 2 2.74152 31.0618 8.37786
12356 2 0.0248558 42.4236 11.0555
12310 2 5.72894 31.2412 5.41825
12311 2 8.54127 33.7264 5.68199
12312 2 8.50769 31.1056 8.46501
12313 2 5.52647 33.9599 8.37921
12314 2 11.2365 30.8138 5.33005
12315 2 11.2671 34.1433 8.45569
12319 2 -0.033419 39.8543 8.40761
12317 2 2.48278 39.8433 5.41655