ITEM: TIMESTEP
60000
ITEM: NUMBER OF ATOMS
17730
ITEM: BOX BOUNDS pp pp pp
-3.5423686782943392e-01 2.7694236867829787e+01
-4.3559289015713327e+00 3.3243592890158624e+02
-3.5256640217838414e-01 2.7692566402178581e+01
ITEM: ATOMS id type q x y z
1 2 2.2208 5.34753 1.29309 5.1786
2 1 -1.1104 1.09036 -2.71537 0.911729
3 1 -1.1104 1.15193 2.78936 1.09945
6 1 -1.1104 1.16605 -3.00354 3.79879
7 1 -1.1104 1.012 2.62207 3.72944
10 1 -1.1104 0.930012 -0.0455636 1.01392
12 2 2.2208 5.22473 -1.59088 2.36239
13 2 2.2208 5.32627 4.18709 2.36298
14 1 -1.1104 0.914941 -0.11932 3.78912
16 1 -1.1104 3.95814 -2.93627 0.879523
17 1 -1.1104 3.79031 2.54415 0.794067
18 2 2.2208 2.41909 1.45436 2.35749
19 1 -1.1104 3.87704 -3.01955 3.69667
20 1 -1.1104 4.00829 2.744 3.81534
21 2 2.2208 2.4039 -1.63732 5.15489
22 2 2.2208 2.49991 4.00588 5.18098
23 1 -1.1104 3.8412 -0.185285 1.20281
24 1 -1.1104 3.83585 -0.118279 3.88768
8788 2 2.2208 -0.42877 -1.58891 2.38622
170 1 -1.1104 3.92745 -0.107221 6.57335
8131 2 2.2208 10.984 -4.36335 5.21968
169 1 -1.1104 3.81169 2.57516 6.59575
162 1 -1.1104 0.956267 -2.85075 6.49371
166 1 -1.1104 1.04722 -0.0975912 6.62965
168 1 -1.1104 3.90567 -2.91451 6.61429
325 2 2.2208 8.09486 -4.35167 7.98689
8797 2 2.2208 -0.235643 12.6468 5.2974
164 1 -1.1104 6.7482 -2.98802 6.61739
9 1 -1.1104 6.72354 2.79603 3.74372
5 1 -1.1104 6.60757 2.66451 0.945274
15 1 -1.1104 6.72378 -0.148414 3.91238
8 1 -1.1104 6.70935 -2.78373 3.78685
11 1 -1.1104 6.51987 0.0403402 1.15799
4 1 -1.1104 6.80167 -2.8613 0.953409
31 2 2.2208 10.6971 1.36634 5.06961
32 1 -1.1104 12.2281 -3.01299 1.06773
33 1 -1.1104 12.195 2.69878 0.888421
34 1 -1.1104 12.4309 -2.77592 3.88145
36 1 -1.1104 12.1905 -0.127736 0.995003
37 2 2.2208 10.9241 -1.51744 2.49379
38 2 2.2208 10.8139 4.15674 2.49385
39 1 -1.1104 12.1076 0.0297836 3.77097
40 1 -1.1104 9.59318 -2.85439 0.99636
41 1 -1.1104 9.43658 2.6668 1.05842
42 2 2.2208 7.93888 1.31719 2.40041
43 1 -1.1104 9.66753 -2.9367 3.79272
44 1 -1.1104 9.35658 2.68869 3.75018
45 2 2.2208 8.13532 -1.55046 5.16991
46 2 2.2208 8.08949 4.1137 5.14826
47 1 -1.1104 9.29442 -0.147049 1.06539
48 1 -1.1104 9.44111 -0.133704 3.83122
257 1 -1.1104 12.2501 2.90812 3.79741
167 1 -1.1104 6.74789 -0.139475 6.60893
165 1 -1.1104 6.66122 2.53769 6.57252
206 1 -1.1104 9.42986 -0.181305 6.492
202 1 -1.1104 9.31838 2.70571 6.54795
203 1 -1.1104 12.3309 0.222034 6.51123
8790 2 2.2208 -0.358202 4.18508 2.35758
17325 2 2.2208 -0.344739 -4.30827 5.25731
8787 2 2.2208 -0.358335 9.70903 2.58351
53 2 2.2208 5.36426 6.83393 5.26086
54 2 2.2208 5.2031 12.492 5.25728
55 1 -1.1104 1.04109 8.45039 1.01429
57 1 -1.1104 1.02991 8.30514 3.90474
59 1 -1.1104 1.01661 5.56244 1.00735
60 1 -1.1104 0.920413 11.0825 0.91375
65 2 2.2208 5.27204 9.64114 2.40041
66 1 -1.1104 1.07787 5.52332 4.0664
67 1 -1.1104 1.09026 11.2358 3.77213
70 1 -1.1104 3.9855 8.24893 0.96807
71 2 2.2208 2.55619 6.93212 2.51397
72 2 2.2208 2.41841 12.3945 2.36872
73 1 -1.1104 3.95739 8.30195 3.90501
74 2 2.2208 2.54104 9.66166 5.25382
75 1 -1.1104 3.87144 5.58093 1.2506
76 1 -1.1104 3.685 10.9725 0.995438
78 1 -1.1104 3.79211 5.44693 4.02736
79 1 -1.1104 3.91778 11.094 3.83527
230 1 -1.1104 3.76191 8.21522 6.68114
64 1 -1.1104 6.55198 11.1683 6.64399
372 2 2.2208 5.19712 4.2042 13.579
77 1 -1.1104 3.70953 11.0539 6.6033
61 1 -1.1104 1.10168 11.1614 6.48367
229 1 -1.1104 1.03353 5.59748 6.76864
231 1 -1.1104 3.90353 5.40845 6.6562
228 1 -1.1104 6.59557 8.37683 6.53897
8134 2 2.2208 2.49357 -4.20848 8.06551
8129 2 2.2208 5.29644 -4.36637 5.29756
56 1 -1.1104 6.66445 8.29699 0.945323
259 1 -1.1104 6.62248 5.42517 6.60906
58 1 -1.1104 6.62492 5.48743 3.75616
62 1 -1.1104 6.75446 5.39976 1.02399
94 1 -1.1104 6.65639 8.22327 3.81166
63 1 -1.1104 6.58921 11.081 0.902818
69 1 -1.1104 6.70734 11.0565 3.65925
68 1 -1.1104 9.48512 5.5174 4.03439
83 2 2.2208 10.9987 12.5599 5.41771
84 1 -1.1104 12.3682 8.19178 0.878459
85 1 -1.1104 12.7526 8.63324 3.52931
86 1 -1.1104 12.2737 5.55054 1.30902
87 1 -1.1104 12.3315 11.0554 0.944816
89 2 2.2208 11.1064 9.62729 2.35465
90 1 -1.1104 11.7198 11.34 3.72163
91 1 -1.1104 9.5374 8.19979 0.973619
92 2 2.2208 8.22338 7.0102 2.48887
93 2 2.2208 8.07453 12.4623 2.35084
95 2 2.2208 7.9449 9.67057 5.18235
96 1 -1.1104 9.4703 5.30007 1.02374
97 1 -1.1104 9.31199 11.0237 1.2323
99 1 -1.1104 9.38445 9.10092 3.68071
98 1 -1.1104 9.22077 11.2776 5.93003
88 1 -1.1104 12.4252 11.2126 6.48761
256 1 -1.1104 12.4481 7.71726 6.38489
8789 2 2.2208 -0.344337 1.28798 5.21507
8499 2 2.2208 -0.280475 1.31188 10.7088
102 2 2.2208 5.34687 18.0325 5.21203
103 1 -1.1104 1.01236 13.878 1.18761
105 1 -1.1104 1.17307 19.5908 1.04358
109 1 -1.1104 1.1687 14.0709 3.90193
110 1 -1.1104 1.08998 19.546 3.77375
112 1 -1.1104 1.01362 16.7011 0.982839
115 2 2.2208 5.23361 15.3297 2.42228
116 2 2.2208 5.29292 20.8879 2.42435
117 1 -1.1104 1.18101 16.7776 3.77274
119 1 -1.1104 3.92367 13.7742 0.866611
121 1 -1.1104 4.00196 19.6022 0.981685
123 2 2.2208 2.50798 18.1295 2.31574
124 1 -1.1104 3.87991 13.846 3.76732
125 1 -1.1104 3.92184 19.5327 3.88367
126 2 2.2208 2.50938 15.2343 5.24699
127 2 2.2208 2.50318 20.9275 5.22669
128 1 -1.1104 3.80864 16.5705 0.929221
130 1 -1.1104 3.83714 16.6624 3.77742
8132 2 2.2208 8.16103 -4.29212 2.39461
122 1 -1.1104 3.94927 19.505 6.63966
197 2 2.2208 13.7511 4.2455 10.6859
129 1 -1.1104 4.00826 16.7317 6.58775
104 1 -1.1104 1.10974 13.9079 6.80117
120 1 -1.1104 3.96778 13.8771 6.7756
135 1 -1.1104 6.77802 19.4198 3.78661
106 1 -1.1104 6.68338 13.9505 1.04327
111 1 -1.1104 6.56607 13.8326 3.61989
134 1 -1.1104 6.88445 19.4875 0.951077
118 1 -1.1104 6.69865 16.6155 3.77744
136 1 -1.1104 6.67462 16.7046 0.945525
137 2 2.2208 10.8419 18.0623 5.14928
138 1 -1.1104 12.2468 13.8688 1.09688
140 1 -1.1104 12.4106 19.5153 1.06091
142 1 -1.1104 12.3969 13.9414 3.87917
143 1 -1.1104 12.253 19.5566 3.87042
144 1 -1.1104 12.3356 16.7354 1.10885
146 2 2.2208 10.7416 15.2524 2.47792
147 2 2.2208 10.9584 20.8373 2.47595
148 1 -1.1104 12.2692 16.7507 3.91437
149 1 -1.1104 9.43671 13.8781 1.09492
151 1 -1.1104 9.61417 19.4043 1.04153
153 2 2.2208 8.12171 18.0732 2.38296
154 1 -1.1104 9.42152 13.8116 3.93659
155 1 -1.1104 9.46705 19.5003 3.7609
156 2 2.2208 8.03258 15.3248 5.20228
157 2 2.2208 8.15594 20.8694 5.18847
158 1 -1.1104 9.38026 16.7476 1.01171
160 1 -1.1104 9.34439 16.7987 3.86984
141 1 -1.1104 12.2626 19.5518 6.61962
152 1 -1.1104 9.51056 19.4578 6.7203
108 1 -1.1104 6.73053 19.4406 6.654
150 1 -1.1104 9.53596 13.9078 6.77289
114 1 -1.1104 6.66199 16.7802 6.58354
145 1 -1.1104 12.3269 16.7876 6.63979
139 1 -1.1104 12.4683 13.989 6.65455
159 1 -1.1104 9.43808 16.6174 6.65049
163 1 -1.1104 1.11231 2.73138 6.68367
8692 2 2.2208 -0.359347 15.2644 2.49412
316 2 2.2208 10.9233 21.067 13.5613
8135 2 2.2208 10.9225 -4.19793 10.7159
17321 2 2.2208 -0.317584 -4.23662 10.761
173 2 2.2208 5.23024 1.38896 10.93
174 1 -1.1104 1.05105 -2.98927 12.2082
175 1 -1.1104 1.05766 2.61378 12.0621
178 1 -1.1104 1.13862 -2.94144 9.42677
179 1 -1.1104 1.31537 2.73728 9.24682
182 1 -1.1104 1.22663 -0.248477 12.1365
184 2 2.2208 5.32975 -1.37767 8.02483
185 2 2.2208 5.32722 3.95079 7.88199
186 1 -1.1104 1.20117 -0.155147 9.32807
188 1 -1.1104 3.81248 -3.13725 12.1408
189 1 -1.1104 3.80868 2.77204 12.1406
190 2 2.2208 2.54671 1.32586 8.04238
191 1 -1.1104 3.98301 -2.93442 9.3393
192 1 -1.1104 4.02526 2.64993 9.49807
193 2 2.2208 2.53373 -1.61452 10.6951
194 2 2.2208 2.6742 4.14676 10.7604
195 1 -1.1104 3.96312 -0.169721 12.2782
196 1 -1.1104 4.05494 -0.16121 9.3863
302 2 2.2208 13.6477 9.51283 5.41351
298 2 2.2208 -0.195532 20.8847 8.00394
26 2 2.2208 13.7161 20.9724 10.8307
132 1 -1.1104 12.3247 16.8634 9.52238
204 1 -1.1104 9.48163 -3.05745 6.61095
201 1 -1.1104 12.4009 -2.85806 6.58043
324 2 2.2208 -0.364356 6.94537 5.29223
177 1 -1.1104 6.70038 2.70066 12.2178
183 1 -1.1104 6.64182 0.0128603 12.327
176 1 -1.1104 6.54523 -2.86107 12.2153
187 1 -1.1104 6.63191 0.107919 9.45663
180 1 -1.1104 6.73731 -2.81166 9.40444
181 1 -1.1104 6.86212 3.13564 9.34149
207 2 2.2208 11.1692 1.24676 10.9045
208 1 -1.1104 12.1583 -3.05673 12.4061
209 1 -1.1104 12.4312 2.55089 12.2587
210 1 -1.1104 12.2492 -2.80849 9.3382
211 1 -1.1104 12.1986 2.65948 9.44925
212 1 -1.1104 12.3818 -0.309324 12.3343
213 2 2.2208 10.8671 -1.32293 8.00179
214 1 -1.1104 12.4178 -0.232869 9.52152
215 1 -1.1104 9.51665 -2.71564 12.2524
216 1 -1.1104 9.60481 2.95569 11.9996
217 2 2.2208 8.01803 1.32286 7.82696
218 1 -1.1104 9.48824 -2.48361 9.47152
220 2 2.2208 8.0587 -1.39518 10.8777
222 1 -1.1104 9.50117 0.0525032 12.0848
223 1 -1.1104 9.57084 0.342297 9.28425
221 2 2.2208 8.21792 4.28646 10.8746
323 2 2.2208 -0.457565 6.94865 10.7478
29 2 2.2208 10.8376 18.1878 10.8494
198 1 -1.1104 9.49063 13.8946 9.32215
227 1 -1.1104 1.15126 8.35299 6.60405
27 2 2.2208 -0.364714 12.5174 10.9108
232 2 2.2208 5.22286 7.07268 10.8815
233 2 2.2208 5.34907 12.5989 10.8572
234 1 -1.1104 0.865633 8.2887 12.1989
236 1 -1.1104 1.04502 8.37688 9.46973
238 1 -1.1104 1.09215 5.53096 12.1347
239 1 -1.1104 0.999887 11.0032 12.3315
242 2 2.2208 5.35976 9.49766 7.98613
243 1 -1.1104 1.18122 5.51243 9.48823
244 1 -1.1104 0.962203 11.0853 9.30722
246 1 -1.1104 3.73029 8.35105 12.313
247 2 2.2208 2.48953 6.88201 7.99989
248 2 2.2208 2.49159 12.5616 8.06922
249 1 -1.1104 3.75536 8.10564 9.43464
250 2 2.2208 2.37652 9.83006 10.7913
251 1 -1.1104 3.74344 5.63124 12.2149
252 1 -1.1104 3.86836 11.1723 12.2392
253 1 -1.1104 4.33516 5.3335 9.52301
254 1 -1.1104 3.89611 11.2072 9.52526
8130 2 2.2208 2.48961 -4.3489 2.47362
318 2 2.2208 8.09373 18.0932 13.5675
317 2 2.2208 10.9874 15.321 13.6368
107 1 -1.1104 6.63827 13.8678 6.55865
226 1 -1.1104 9.44434 16.7272 12.2295
30 1 -1.1104 12.2699 13.9391 12.3481
245 1 -1.1104 6.60478 11.1483 9.45063
237 1 -1.1104 6.56367 8.27546 9.62898
241 1 -1.1104 6.76348 11.1682 12.2049
240 1 -1.1104 6.58144 5.50682 12.0841
235 1 -1.1104 6.76102 8.32827 12.4848
255 1 -1.1104 9.26566 10.9669 9.46224
258 1 -1.1104 9.13961 5.97701 9.7299
260 1 -1.1104 9.38929 11.1093 12.2394
261 1 -1.1104 9.34621 5.52314 12.3875
262 2 2.2208 8.09275 9.70868 10.7952
263 2 2.2208 8.14273 12.4127 7.88852
264 2 2.2208 10.854 6.98042 10.7316
265 2 2.2208 10.9874 12.4764 10.807
266 1 -1.1104 12.1553 8.18351 12.3535
267 1 -1.1104 12.2707 8.38482 9.67075
268 1 -1.1104 12.2489 5.29404 12.214
269 1 -1.1104 12.3862 11.0723 12.3201
270 1 -1.1104 12.3367 5.61695 9.47481
271 1 -1.1104 12.6353 11.2165 9.74155
272 1 -1.1104 9.45223 8.24386 12.009
322 2 2.2208 -0.150966 4.07907 8.11607
171 2 2.2208 8.12412 18.1188 7.99638
133 1 -1.1104 9.64868 13.87 12.1857
8792 2 2.2208 13.4904 1.34541 2.4272
113 1 -1.1104 1.03146 16.6162 6.583
321 2 2.2208 2.32826 9.62296 -0.42873
52 1 -1.1104 12.2677 19.7593 9.38588
275 1 -1.1104 6.67543 19.6826 9.62314
289 1 -1.1104 1.0942 19.455 6.67147
293 1 -1.1104 6.68017 16.728 11.936
35 1 -1.1104 12.325 19.7353 12.1351
273 1 -1.1104 3.82263 19.4949 12.2083
274 1 -1.1104 3.99442 13.9282 12.3141
278 1 -1.1104 1.17245 19.3737 9.5529
279 1 -1.1104 1.0611 16.6563 9.54281
280 2 2.2208 5.45197 20.9036 8.03822
281 1 -1.1104 1.09227 13.9737 9.42925
282 2 2.2208 5.36302 15.3147 8.11705
285 1 -1.1104 1.04559 19.5548 12.3802
286 1 -1.1104 1.23974 13.8407 12.035
287 2 2.2208 5.25612 18.1542 10.8641
288 1 -1.1104 3.84698 19.5915 9.52863
290 2 2.2208 2.39447 18.0657 8.07396
291 1 -1.1104 3.80021 16.8736 9.43578
292 1 -1.1104 3.9854 14.0521 9.5851
294 1 -1.1104 1.14094 16.7364 12.2926
295 1 -1.1104 3.91016 16.6136 12.3678
296 2 2.2208 2.61229 20.941 10.9249
297 2 2.2208 2.49346 15.3727 10.878
80 1 -1.1104 12.407 16.8884 12.1072
283 1 -1.1104 6.53666 19.4441 12.3279
276 1 -1.1104 6.72536 16.7078 9.39933
205 2 2.2208 8.06505 20.8996 10.9024
300 2 2.2208 -0.379964 15.3164 8.0561
161 1 -1.1104 9.34543 19.722 12.2499
284 1 -1.1104 6.76177 13.9865 12.2804
101 2 2.2208 10.9008 21.1275 8.05357
200 2 2.2208 8.1953 15.3372 10.6998
277 1 -1.1104 6.81595 13.9851 9.42342
81 2 2.2208 10.8954 15.3035 8.01792
51 1 -1.1104 12.2338 14.1027 9.4514
199 1 -1.1104 9.57211 19.6984 9.45621
301 1 -1.1104 9.59032 16.764 9.47181
8658 2 2.2208 -0.291169 20.9141 2.46051
403 2 2.2208 8.05477 1.38564 13.6215
131 2 2.2208 -0.292147 18.0575 5.21099
172 2 2.2208 13.6813 7.0072 8.06872
326 2 2.2208 5.3543 20.9814 13.7133
8657 2 2.2208 13.7048 18.1326 2.51792
310 2 2.2208 10.8178 12.5073 -0.369679
8888 2 2.2208 -0.307171 -1.47585 13.6464
313 2 2.2208 8.1053 12.5789 13.5542
329 2 2.2208 10.9451 6.77338 -0.34929
562 2 2.2208 5.24129 9.76747 13.6681
587 2 2.2208 10.8273 1.2747 -0.450141
9023 2 2.2208 -0.413178 12.5761 -0.436403
327 2 2.2208 8.05403 4.03376 -0.402085
224 2 2.2208 8.12457 20.945 -0.353787
315 2 2.2208 5.28857 15.3603 13.5775
439 2 2.2208 2.35954 6.89288 13.5766
400 2 2.2208 10.9335 4.13668 13.5857
330 2 2.2208 5.20662 1.34627 16.3731
331 1 -1.1104 1.09338 -2.87987 17.8255
332 1 -1.1104 0.931097 2.68681 17.6822
335 1 -1.1104 1.13442 -2.86605 15.0934
337 1 -1.1104 1.15498 2.81561 14.7633
343 1 -1.1104 1.14864 0.0840917 17.791
345 2 2.2208 5.37231 -1.41383 19.1948
346 2 2.2208 5.25598 4.04147 19.1741
347 1 -1.1104 1.16126 -0.136208 14.8887
351 1 -1.1104 3.99812 -2.8938 17.9419
352 1 -1.1104 3.79495 2.77696 17.7282
353 2 2.2208 2.40828 1.34615 19.1555
354 1 -1.1104 3.95264 -2.98232 15.0065
356 1 -1.1104 3.81846 2.63397 14.9521
358 2 2.2208 2.482 -1.54417 16.4744
359 2 2.2208 2.37486 4.19562 16.4026
360 1 -1.1104 3.92539 -0.0114948 17.8318
361 1 -1.1104 3.7948 -0.164021 15.0161
588 2 2.2208 8.04374 -1.54775 27.6536
336 1 -1.1104 0.950431 -2.82225 20.5555
355 1 -1.1104 3.73613 -2.83578 20.7414
338 1 -1.1104 1.09642 2.63054 20.5761
362 1 -1.1104 3.91335 -0.06941 20.6805
8475 2 2.2208 5.17246 -4.32096 27.649
8919 2 2.2208 -0.262429 1.41151 16.3576
440 2 2.2208 5.35995 18.2307 27.6001
309 2 2.2208 5.20755 12.5229 27.5995
8848 2 2.2208 -0.430039 1.18522 27.6407
591 2 2.2208 -0.454896 9.6684 19.3379
17725 2 2.2208 -0.369639 -4.23751 16.3549
344 1 -1.1104 6.64564 -0.110419 17.7863
341 1 -1.1104 6.58805 2.92513 14.9673
333 1 -1.1104 6.78389 -2.93933 17.842
339 1 -1.1104 6.7707 -2.99108 15.011
334 1 -1.1104 6.56036 2.62132 17.8752
349 1 -1.1104 6.6905 -0.110565 15.0732
373 2 2.2208 10.8744 1.36351 16.381
374 1 -1.1104 12.4023 -2.83653 17.9359
375 1 -1.1104 11.981 2.67437 17.9482
376 1 -1.1104 12.1634 -3.00109 15.0499
378 1 -1.1104 12.1947 2.6302 14.9244
380 1 -1.1104 12.2864 0.0223187 17.9291
381 2 2.2208 10.9146 -1.51939 19.2945
382 2 2.2208 10.8774 4.08224 19.3856
383 1 -1.1104 12.4136 -0.0971615 14.9523
385 1 -1.1104 9.41011 -2.8865 17.8218
386 1 -1.1104 9.33706 2.80574 17.9617
387 2 2.2208 8.08906 1.40174 19.1937
388 1 -1.1104 9.44799 -2.83071 15.0836
390 1 -1.1104 9.41343 2.71111 14.985
392 2 2.2208 8.18238 -1.45775 16.4933
393 2 2.2208 8.09271 4.08493 16.4064
394 1 -1.1104 9.36557 -0.102307 17.7569
395 1 -1.1104 9.53274 0.00520592 14.9249
384 1 -1.1104 12.3677 -0.164589 20.6807
342 1 -1.1104 6.66889 2.9261 20.6704
396 1 -1.1104 9.47483 -0.0498071 20.5592
379 1 -1.1104 12.2772 2.71591 20.6243
391 1 -1.1104 9.44331 2.67006 20.6392
340 1 -1.1104 6.61075 -2.87209 20.6775
406 2 2.2208 5.31274 6.96913 16.579
407 2 2.2208 5.32492 12.4855 16.5067
408 1 -1.1104 1.06773 8.20203 17.8524
410 1 -1.1104 0.948377 8.32455 15.1102
414 1 -1.1104 1.09364 5.33437 17.8305
415 1 -1.1104 0.965916 11.0789 17.6756
418 2 2.2208 5.23052 9.65459 19.2326
419 1 -1.1104 1.02988 5.67083 14.9558
421 1 -1.1104 1.22735 11.0955 14.9643
427 1 -1.1104 3.76107 8.16334 17.8868
428 2 2.2208 2.4852 6.81327 19.1454
429 2 2.2208 2.48174 12.3399 19.2217
430 1 -1.1104 3.95731 8.4415 15.0995
432 2 2.2208 2.46408 9.65398 16.3963
433 1 -1.1104 3.81234 5.36616 17.8284
434 1 -1.1104 3.77879 10.8688 17.7676
435 1 -1.1104 3.76649 5.68403 15.0389
437 1 -1.1104 3.8331 11.0836 14.9404
8477 2 2.2208 2.4451 -4.34267 24.8333
9142 2 2.2208 -0.484423 6.85954 16.3927
422 1 -1.1104 1.09982 11.0501 20.6273
431 1 -1.1104 3.83536 8.12352 20.5215
411 1 -1.1104 1.08048 8.215 20.7048
303 2 2.2208 8.08365 15.3626 27.7155
405 2 2.2208 2.43397 15.2846 27.5477
409 1 -1.1104 6.56603 8.3576 17.8333
425 1 -1.1104 6.72023 11.2785 15.1104
417 1 -1.1104 6.58889 11.1516 17.9667
423 1 -1.1104 6.70948 5.64286 14.8687
416 1 -1.1104 6.68606 5.45009 17.8282
412 1 -1.1104 6.54467 8.52265 15.1189
442 2 2.2208 10.9078 6.85664 16.4408
443 2 2.2208 10.7995 12.4682 16.5317
444 1 -1.1104 12.3045 8.43448 17.9008
445 1 -1.1104 12.1971 8.22788 15.0326
447 1 -1.1104 12.1417 5.50246 17.8815
448 1 -1.1104 12.3346 11.083 17.8836
449 2 2.2208 10.8635 9.72857 19.2293
450 1 -1.1104 12.351 5.47712 15.0073
452 1 -1.1104 12.1405 10.9386 15.0834
454 1 -1.1104 9.38537 8.25303 17.8298
455 2 2.2208 8.16829 6.84246 19.2809
456 2 2.2208 8.0583 12.4968 19.3084
457 1 -1.1104 9.47244 8.37632 14.9551
459 2 2.2208 8.04259 9.78094 16.4429
460 1 -1.1104 9.44355 5.53327 17.8555
461 1 -1.1104 9.51226 10.9716 17.8264
462 1 -1.1104 9.61049 5.44322 15.0497
464 1 -1.1104 9.46267 11.1443 15.0448
413 1 -1.1104 6.77158 8.30519 20.7043
458 1 -1.1104 9.45807 8.39675 20.6958
463 1 -1.1104 9.68537 5.42434 20.78
446 1 -1.1104 12.2083 8.36292 20.6034
451 1 -1.1104 12.2619 5.49923 20.744
426 1 -1.1104 6.66467 10.9672 20.6031
465 1 -1.1104 9.47287 11.2475 20.6973
8885 2 2.2208 -0.439376 15.2582 24.8324
399 2 2.2208 -0.165547 15.2452 19.4136
482 1 -1.1104 0.760278 16.7712 17.8657
469 2 2.2208 5.34102 18.0415 16.4368
470 1 -1.1104 1.19653 13.961 17.9977
471 1 -1.1104 1.10312 19.5022 17.8753
474 1 -1.1104 1.21343 14.0664 14.9801
476 1 -1.1104 1.34218 19.3214 15.1835
484 2 2.2208 5.34432 15.3069 19.2933
485 2 2.2208 5.44184 20.9053 19.2596
486 1 -1.1104 0.797803 16.7298 14.9659
490 1 -1.1104 3.95009 13.9658 17.8417
491 1 -1.1104 4.04543 19.5557 17.7677
492 2 2.2208 2.49842 18.2244 19.148
493 1 -1.1104 3.93304 13.9652 15.1367
495 1 -1.1104 3.94022 19.4363 14.8807
497 2 2.2208 2.46226 15.3683 16.5418
498 2 2.2208 2.57205 20.995 16.5217
499 1 -1.1104 3.8606 16.6389 17.887
500 1 -1.1104 3.88098 16.5516 15.2009
488 1 -1.1104 6.82365 16.7545 14.9663
496 1 -1.1104 3.762 19.6849 20.6969
480 1 -1.1104 6.73953 19.5138 15.1499
489 1 -1.1104 6.48823 16.5767 20.7221
501 1 -1.1104 3.72789 16.7664 20.6507
487 1 -1.1104 0.819577 16.7598 20.6598
564 2 2.2208 13.6968 18.3186 24.9519
473 1 -1.1104 6.77099 19.3919 17.9962
483 1 -1.1104 6.67072 16.7533 17.8621
472 1 -1.1104 6.80652 14.0024 17.8215
478 1 -1.1104 6.7953 13.966 15.0999
505 2 2.2208 10.9237 18.2664 16.3618
506 1 -1.1104 12.4861 14.1213 17.8894
507 1 -1.1104 12.3579 19.6868 17.7592
508 1 -1.1104 12.3687 13.7332 15.2315
510 1 -1.1104 12.2726 19.4926 14.9615
512 1 -1.1104 12.3888 16.8371 17.7474
513 2 2.2208 10.8862 15.4981 19.2182
514 2 2.2208 10.9736 21.0368 19.1984
515 1 -1.1104 12.4167 16.7053 14.9335
517 1 -1.1104 9.68683 13.9064 17.8464
518 1 -1.1104 9.61438 19.5562 17.7693
519 2 2.2208 8.092 18.0529 19.0812
520 1 -1.1104 9.71877 13.921 14.9589
522 1 -1.1104 9.54433 19.5569 14.9055
524 2 2.2208 8.15804 15.3053 16.3693
525 2 2.2208 8.07795 20.9137 16.4956
526 1 -1.1104 9.45543 16.7887 17.6483
527 1 -1.1104 9.5455 16.7927 14.8873
481 1 -1.1104 6.65012 19.3912 20.6689
523 1 -1.1104 9.51233 19.6274 20.5701
528 1 -1.1104 9.56527 16.9519 20.5588
516 1 -1.1104 12.4469 16.9286 20.6624
557 2 2.2208 5.21783 1.28683 27.4818
8849 2 2.2208 -0.374741 -1.54487 24.8713
348 1 -1.1104 0.992848 -0.148659 20.5702
590 1 -1.1104 9.38062 13.981 23.5029
628 2 2.2208 8.09325 20.9609 22.142
357 1 -1.1104 3.79789 2.71499 20.6043
8476 2 2.2208 5.26173 -4.33019 22.1047
533 2 2.2208 5.23236 1.33362 21.9229
534 1 -1.1104 1.12515 -2.9251 23.307
535 1 -1.1104 1.18618 2.70057 23.3699
538 1 -1.1104 1.06515 -2.98892 26.2499
539 1 -1.1104 1.02283 2.49643 26.3461
542 1 -1.1104 1.03634 -0.105679 23.4443
544 2 2.2208 5.19236 -1.49493 24.8185
545 2 2.2208 5.43546 3.95827 24.8022
546 1 -1.1104 0.939487 -0.218757 26.2066
548 1 -1.1104 3.81799 -2.78551 23.3518
549 1 -1.1104 3.99678 2.75925 23.2969
550 2 2.2208 2.40497 1.36166 24.8784
551 1 -1.1104 3.78629 -2.97511 26.1928
552 1 -1.1104 3.95653 2.66476 26.0242
553 2 2.2208 2.34707 -1.53003 21.9216
554 2 2.2208 2.4902 4.09208 21.9212
555 1 -1.1104 3.86736 -0.00208974 23.4555
556 1 -1.1104 3.70339 -0.104119 26.1994
8921 2 2.2208 -0.273748 3.96934 24.8086
8846 2 2.2208 -0.444089 18.0727 27.5552
625 1 -1.1104 9.51726 19.6132 26.1595
350 1 -1.1104 6.72406 -0.0247608 20.4959
377 1 -1.1104 12.2501 -2.83797 20.6556
389 1 -1.1104 9.536 -2.94549 20.7411
511 1 -1.1104 12.2835 19.6278 20.593
597 1 -1.1104 9.46151 13.9966 26.309
479 1 -1.1104 6.59263 13.8577 20.7173
541 1 -1.1104 6.73503 2.54116 26.1044
537 1 -1.1104 6.72415 2.57032 23.442
543 1 -1.1104 6.69433 -0.176273 23.2627
536 1 -1.1104 6.62931 -2.99397 23.4997
540 1 -1.1104 6.5476 -2.9398 26.2729
547 1 -1.1104 6.64872 -0.269396 26.1591
569 2 2.2208 10.8822 1.21392 21.9636
570 1 -1.1104 12.3749 -2.93211 23.4273
571 1 -1.1104 12.2543 2.54265 23.3893
572 1 -1.1104 12.2679 -2.80071 26.2527
573 1 -1.1104 12.3765 2.67651 26.0844
574 1 -1.1104 12.2796 -0.170939 23.6275
575 2 2.2208 10.849 -1.45218 24.8116
576 2 2.2208 10.947 4.02004 24.9581
577 1 -1.1104 12.1978 -0.0246961 26.3363
578 1 -1.1104 9.4956 -2.96555 23.3719
579 1 -1.1104 9.53109 2.57038 23.4606
580 2 2.2208 8.07032 1.20941 24.6772
581 1 -1.1104 9.46898 -2.95014 26.0439
582 1 -1.1104 9.55493 2.72176 26.3439
583 2 2.2208 8.15658 -1.56153 22.0457
584 2 2.2208 8.05093 4.08028 22.1773
585 1 -1.1104 9.48723 -0.181882 23.2955
586 1 -1.1104 9.39907 -0.0117774 26.0925
558 2 2.2208 2.43036 -1.45367 27.7184
420 1 -1.1104 1.03788 5.40123 20.5129
436 1 -1.1104 3.98368 5.46957 20.5682
367 2 2.2208 13.6358 9.69406 16.586
438 1 -1.1104 3.81466 11.0221 20.6206
8470 2 2.2208 2.52071 -4.27525 19.1572
593 2 2.2208 -0.218593 12.4751 16.3652
312 2 2.2208 10.8494 9.71252 13.4668
598 2 2.2208 5.23086 6.80105 22.0841
599 2 2.2208 5.36713 12.4379 22.0304
600 1 -1.1104 1.09272 8.27962 23.3383
602 1 -1.1104 1.09952 8.24762 26.2265
604 1 -1.1104 1.13022 5.43279 23.3993
605 1 -1.1104 1.26804 11.0857 23.3812
608 2 2.2208 5.23586 9.56148 24.8456
609 1 -1.1104 1.07905 5.39104 26.1742
610 1 -1.1104 1.20423 11.1805 26.1682
613 1 -1.1104 3.82656 8.13218 23.5162
614 2 2.2208 2.35693 6.75383 24.8163
615 2 2.2208 2.50697 12.4199 24.8284
616 1 -1.1104 3.79265 8.27242 26.1653
617 2 2.2208 2.5514 9.57754 22.0143
618 1 -1.1104 3.85971 5.4506 23.3045
619 1 -1.1104 3.9986 10.9014 23.3861
620 1 -1.1104 3.91072 5.46795 26.283
621 1 -1.1104 3.9449 11.1489 26.2038
606 1 -1.1104 6.59229 5.47444 23.6102
364 2 2.2208 -0.258784 6.8632 21.9776
8844 2 2.2208 -0.258705 18.1287 22.2722
424 1 -1.1104 6.93565 5.59785 20.7716
453 1 -1.1104 12.2791 11.1032 20.6599
509 1 -1.1104 12.1631 13.8933 20.4895
607 1 -1.1104 6.56904 11.0688 23.3593
603 1 -1.1104 6.83247 8.21075 26.2553
611 1 -1.1104 6.64583 5.37883 26.372
612 1 -1.1104 6.67496 11.0838 26.239
601 1 -1.1104 6.76179 8.31351 23.5623
629 1 -1.1104 9.6093 11.0722 26.3453
630 1 -1.1104 9.51579 5.51947 26.4106
631 1 -1.1104 9.40649 11.2405 23.5129
632 1 -1.1104 9.54279 5.1613 23.5792
633 2 2.2208 7.95885 9.70714 22.0945
634 1 -1.1104 9.67214 8.22789 26.1268
635 2 2.2208 8.07087 12.5292 24.8734
636 2 2.2208 8.25651 6.77254 24.6907
637 2 2.2208 10.9476 6.91261 22.0436
638 2 2.2208 10.885 12.6671 22.035
639 1 -1.1104 12.1337 8.37152 23.3023
640 1 -1.1104 12.3836 8.35439 25.9954
641 1 -1.1104 12.1996 5.73576 23.5578
642 1 -1.1104 12.1926 11.2446 23.3411
643 2 2.2208 10.8931 9.77213 24.8144
644 1 -1.1104 12.3196 5.39688 26.4728
645 1 -1.1104 12.2194 11.2829 26.1093
646 1 -1.1104 9.48464 8.23566 23.47
560 1 -1.1104 12.2192 13.9737 26.1807
567 2 2.2208 10.7997 21.0283 24.8636
494 1 -1.1104 3.845 13.8282 20.6539
477 1 -1.1104 0.963887 19.5781 20.7991
561 1 -1.1104 12.2656 19.5154 26.2481
660 1 -1.1104 6.79464 19.589 23.5387
475 1 -1.1104 1.12152 13.8679 20.6518
467 2 2.2208 2.52207 15.3512 22.0531
468 2 2.2208 2.54601 21.056 22.0837
502 1 -1.1104 4.03208 16.6348 23.3596
504 1 -1.1104 1.12046 16.7663 23.3874
530 1 -1.1104 3.97499 13.9082 26.061
531 1 -1.1104 3.85138 16.7663 26.1402
532 2 2.2208 2.58286 18.227 24.7984
592 1 -1.1104 3.89509 19.5787 26.2487
623 2 2.2208 5.29993 18.154 22.0046
624 1 -1.1104 1.10304 13.9957 23.4979
647 2 2.2208 5.39385 20.9518 24.7877
648 1 -1.1104 1.21987 19.5496 23.5702
651 2 2.2208 5.33226 15.3433 24.863
653 1 -1.1104 4.03727 19.5513 23.3944
655 1 -1.1104 3.86374 13.8162 23.4678
657 1 -1.1104 1.10419 19.5843 26.2375
658 1 -1.1104 1.18136 16.8235 26.1678
659 1 -1.1104 1.10031 14.0415 26.2962
9039 2 2.2208 13.8356 18.335 19.3026
529 1 -1.1104 6.72767 16.7343 23.5248
596 1 -1.1104 6.82325 19.603 26.2504
402 1 -1.1104 12.2377 19.6419 23.5251
369 1 -1.1104 9.59873 16.7336 26.2355
521 1 -1.1104 9.3321 14.0058 20.7298
594 1 -1.1104 9.6844 19.58 23.4193
401 1 -1.1104 12.3283 13.9951 23.4101
626 2 2.2208 8.0347 15.3207 22.0312
565 1 -1.1104 12.3066 16.8887 23.5207
654 1 -1.1104 6.86709 13.7966 26.3399
652 1 -1.1104 9.47028 16.8074 23.504
568 1 -1.1104 12.3458 16.746 26.3935
397 2 2.2208 11.0667 18.2407 22.0329
649 1 -1.1104 6.65695 13.9009 23.5901
595 2 2.2208 8.10717 18.0754 24.7598
566 2 2.2208 10.8348 15.3792 24.8671
656 1 -1.1104 6.77794 16.7957 26.2777
8843 2 2.2208 -0.328585 21.0706 24.9364
9022 2 2.2208 -0.252934 9.73273 24.7548
9018 2 2.2208 -0.379387 20.8339 19.3438
368 2 2.2208 13.6408 12.5475 19.3638
363 2 2.2208 13.7316 15.4448 22.1346
8798 2 2.2208 -0.392376 6.88424 27.6971
559 2 2.2208 2.47408 4.00399 27.4986
328 2 2.2208 -0.25918 21.168 13.5432
304 2 2.2208 10.9933 18.1575 27.6462
311 2 2.2208 2.58974 12.6364 13.5934
314 2 2.2208 2.48003 18.1499 13.7401
371 2 2.2208 2.44901 1.20062 13.5916
622 2 2.2208 5.34954 6.77706 27.6654
305 2 2.2208 13.7752 15.4193 27.6368
404 2 2.2208 10.8609 -1.40714 13.6806
370 2 2.2208 5.25243 -1.48845 13.6282
9054 2 2.2208 13.5137 -1.56887 27.6945
466 2 2.2208 8.00545 9.59523 27.6881
82 2 2.2208 8.18662 6.92561 13.6824
307 2 2.2208 -0.298456 15.327 13.6224
441 2 2.2208 2.55189 20.8661 27.5777
661 2 2.2208 5.28854 23.818 5.22149
662 2 2.2208 5.29657 29.4144 5.20791
663 1 -1.1104 1.17387 25.3931 0.992988
664 1 -1.1104 1.03419 25.2236 3.67756
665 1 -1.1104 1.148 22.5055 1.0299
666 1 -1.1104 1.06476 28.1101 1.08114
667 2 2.2208 5.22286 26.5972 2.4199
668 1 -1.1104 1.20992 22.2429 3.7869
669 1 -1.1104 1.23001 28.009 3.71526
670 1 -1.1104 3.93644 25.2768 1.052
671 2 2.2208 2.48018 23.7031 2.37115
672 2 2.2208 2.49141 29.4424 2.4264
673 1 -1.1104 3.70608 25.25 3.87901
674 2 2.2208 2.4707 26.7776 5.22579
675 1 -1.1104 3.82545 22.3756 0.928656
676 1 -1.1104 3.91063 28.0749 0.955044
677 1 -1.1104 4.01446 22.3762 3.6211
678 1 -1.1104 3.9507 28.1824 3.81174
808 1 -1.1104 3.76415 25.3941 6.66028
802 1 -1.1104 1.02619 24.9115 6.63677
805 1 -1.1104 1.00328 27.8584 6.54725
810 1 -1.1104 3.81065 28.1506 6.61414
686 1 -1.1104 6.57367 22.282 3.79984
687 1 -1.1104 6.7299 27.9677 3.81028
803 1 -1.1104 6.67715 25.2057 6.62992
804 1 -1.1104 1.15147 22.2601 6.63092
809 1 -1.1104 4.05024 22.4602 6.5876
957 2 2.2208 8.18228 43.4419 10.8611
706 1 -1.1104 12.2373 42.0309 9.42603
684 1 -1.1104 6.55574 22.2238 0.991257
682 1 -1.1104 6.73535 25.1041 0.971699
685 1 -1.1104 6.65497 27.9444 0.899199
683 1 -1.1104 6.52846 25.2144 3.88862
688 2 2.2208 10.8987 23.6515 5.17662
689 2 2.2208 10.8494 29.4386 5.26366
690 1 -1.1104 12.2971 25.1656 1.03414
691 1 -1.1104 12.2308 25.245 3.9963
692 1 -1.1104 12.3075 22.4507 1.21978
693 1 -1.1104 12.2141 27.9937 0.996649
694 2 2.2208 10.835 26.4095 2.38738
695 1 -1.1104 12.37 22.3779 3.91853
696 1 -1.1104 12.4188 28.0424 3.68449
697 1 -1.1104 9.39367 25.0917 1.03643
698 2 2.2208 7.88568 23.7499 2.44268
699 2 2.2208 8.04288 29.3843 2.51352
700 1 -1.1104 9.24499 25.0308 3.88303
701 2 2.2208 8.09948 26.5649 5.28691
702 1 -1.1104 9.42216 22.1267 1.08919
703 1 -1.1104 9.4809 27.9426 0.99819
704 1 -1.1104 9.46061 22.3704 3.73957
705 1 -1.1104 9.44082 27.7988 3.88282
838 1 -1.1104 9.44717 25.1675 6.71789
840 1 -1.1104 9.54937 28.0205 6.70478
806 1 -1.1104 6.71183 22.296 6.60227
839 1 -1.1104 9.47414 22.4735 6.60611
835 1 -1.1104 12.2736 25.2628 6.65071
807 1 -1.1104 6.49152 28.0152 6.54395
954 1 -1.1104 9.46212 39.1774 9.61584
9470 2 2.2208 13.7839 40.6728 2.63792
709 2 2.2208 5.28697 35.0774 5.21457
710 1 -1.1104 1.13324 30.8228 1.10079
711 1 -1.1104 1.06662 36.5127 1.03353
713 1 -1.1104 1.19688 30.8417 3.90142
714 1 -1.1104 0.99417 36.4781 3.84817
716 1 -1.1104 1.04329 33.8376 0.929518
717 2 2.2208 5.19931 32.3706 2.41279
718 2 2.2208 5.40199 37.7912 2.38242
719 1 -1.1104 0.982893 33.7062 3.75561
721 1 -1.1104 3.91041 30.8161 1.15635
722 1 -1.1104 3.97136 36.514 1.06347
723 2 2.2208 2.35148 35.2163 2.37284
724 1 -1.1104 3.87994 31.0301 3.87938
725 1 -1.1104 3.87371 36.4776 3.79395
726 2 2.2208 2.48341 32.2888 5.24333
727 2 2.2208 2.36986 37.8266 5.24671
728 1 -1.1104 3.81363 33.7327 1.08523
729 1 -1.1104 3.82571 33.8193 3.81891
9463 2 2.2208 -0.212279 32.2053 2.38818
866 1 -1.1104 3.73986 36.4976 6.66485
715 1 -1.1104 6.79199 36.5414 3.71842
735 1 -1.1104 6.71308 33.6649 0.943601
712 1 -1.1104 6.79727 36.3962 1.02126
734 1 -1.1104 6.70145 30.8497 3.88982
9465 2 2.2208 13.6535 35.0647 2.39111
859 1 -1.1104 0.96346 30.739 6.6537
860 1 -1.1104 1.10954 36.4531 6.59717
864 1 -1.1104 6.8559 33.7273 6.4899
1209 2 2.2208 10.9608 29.4279 -0.426259
1173 2 2.2208 5.22919 23.8054 -0.467165
9466 2 2.2208 -0.386694 43.4334 2.39077
995 2 2.2208 2.45332 23.8122 13.756
733 1 -1.1104 6.69087 30.816 1.04755
720 1 -1.1104 6.66473 33.87 3.71578
736 2 2.2208 10.9261 34.9637 5.29281
737 1 -1.1104 12.4466 30.7907 1.12912
738 1 -1.1104 12.2748 36.4059 0.940877
739 1 -1.1104 12.2609 30.6443 3.94454
740 1 -1.1104 12.2665 36.4052 3.72884
741 1 -1.1104 12.4853 33.5653 1.01757
742 2 2.2208 10.9322 32.0131 2.56395
743 2 2.2208 10.9395 37.7881 2.45096
744 1 -1.1104 12.333 33.4023 3.82204
745 1 -1.1104 9.5125 30.7123 1.09277
746 1 -1.1104 9.60559 36.4071 1.18111
747 2 2.2208 8.17914 34.9903 2.40291
748 1 -1.1104 9.5413 30.7295 3.87114
749 1 -1.1104 9.61317 36.2678 3.87131
750 2 2.2208 8.20239 32.2232 5.24388
751 2 2.2208 8.02522 37.8118 5.14973