ITEM: TIMESTEP
80000
ITEM: NUMBER OF ATOMS
17730
ITEM: BOX BOUNDS pp pp pp
-3.6254198069734012e-01 2.7702541980697838e+01
-4.2287851075634695e+00 3.3230878510757816e+02
-3.5977101648043375e-01 2.7699771016480707e+01
ITEM: ATOMS id type q x y z
1 2 2.2208 5.16868 1.31417 5.13949
2 1 -1.1104 1.14211 -2.79282 0.977777
3 1 -1.1104 1.10597 2.93704 0.904001
6 1 -1.1104 1.06949 -2.79723 3.81252
7 1 -1.1104 1.04642 2.69556 3.74925
10 1 -1.1104 1.00419 -0.124311 0.961969
12 2 2.2208 5.18034 -1.49688 2.45313
13 2 2.2208 5.20573 4.17848 2.43971
14 1 -1.1104 0.998158 0.0305281 3.70742
16 1 -1.1104 3.84218 -2.78656 0.864229
17 1 -1.1104 3.94091 2.8207 0.937039
18 2 2.2208 2.33703 1.31334 2.33671
19 1 -1.1104 3.77414 -2.89394 3.91054
20 1 -1.1104 3.74607 2.78314 3.71808
21 2 2.2208 2.42092 -1.46162 5.25321
22 2 2.2208 2.27389 4.16116 5.16219
23 1 -1.1104 3.80141 -0.116936 1.01754
24 1 -1.1104 3.78436 -0.065011 3.76471
9 1 -1.1104 6.504 2.50665 3.74944
11 1 -1.1104 6.51231 -0.127678 1.01021
15 1 -1.1104 6.62086 -0.151582 3.89849
5 1 -1.1104 6.83124 2.70412 1.06481
164 1 -1.1104 6.61465 -2.86004 6.55182
8 1 -1.1104 6.59625 -2.87325 3.76949
4 1 -1.1104 6.57554 -2.75747 1.09067
170 1 -1.1104 3.83552 0.0901467 6.52764
169 1 -1.1104 3.84736 2.80951 6.53767
8525 2 2.2208 13.7431 4.07894 -0.27764
165 1 -1.1104 6.57249 2.54157 6.53308
298 2 2.2208 -0.379865 20.9223 8.1251
8129 2 2.2208 5.15597 -4.20977 5.3093
205 2 2.2208 8.06947 20.9754 10.9292
167 1 -1.1104 6.63968 -0.129745 6.61199
8792 2 2.2208 13.4777 1.28738 2.53066
31 2 2.2208 10.8349 1.34896 5.26374
32 1 -1.1104 12.1881 -3.0034 1.20652
33 1 -1.1104 12.3496 2.7631 1.13637
34 1 -1.1104 12.2542 -2.95418 3.98025
36 1 -1.1104 12.2437 -0.141762 1.18846
37 2 2.2208 10.8073 -1.51505 2.49433
38 2 2.2208 10.898 4.14231 2.42144
39 1 -1.1104 12.2599 -0.0814309 3.81565
40 1 -1.1104 9.28168 -2.7926 1.09809
41 1 -1.1104 9.5605 2.70233 0.997961
42 2 2.2208 8.00163 1.21453 2.37281
43 1 -1.1104 9.47731 -2.9441 3.84259
44 1 -1.1104 9.29563 2.66934 3.74365
45 2 2.2208 8.05434 -1.56942 5.26021
46 2 2.2208 8.029 4.00499 5.09016
47 1 -1.1104 9.54501 -0.0473607 1.11866
48 1 -1.1104 9.42809 -0.0900984 3.76346
257 1 -1.1104 12.1317 2.75328 4.00643
202 1 -1.1104 9.35311 2.57789 6.49949
8793 2 2.2208 13.5708 -1.4547 5.33462
206 1 -1.1104 9.50575 -0.271121 6.67494
328 2 2.2208 -0.267293 20.9876 13.723
204 1 -1.1104 9.47588 -2.88857 6.73118
8818 2 2.2208 13.74 -4.17104 2.5019
8475 2 2.2208 5.22284 -4.27079 -0.331487
53 2 2.2208 5.29541 6.90983 5.27932
54 2 2.2208 5.44148 12.2994 5.32244
55 1 -1.1104 0.979315 8.38378 0.96881
57 1 -1.1104 1.20458 8.22107 3.79657
59 1 -1.1104 1.13642 5.59593 0.968617
60 1 -1.1104 1.14943 11.1527 1.14209
65 2 2.2208 5.47221 9.73292 2.50571
66 1 -1.1104 0.956777 5.49321 3.70521
67 1 -1.1104 1.09267 11.1382 3.99966
70 1 -1.1104 4.01318 8.40219 1.18727
71 2 2.2208 2.4105 6.91958 2.50136
72 2 2.2208 2.44475 12.4009 2.58793
73 1 -1.1104 4.03807 8.37994 3.84949
74 2 2.2208 2.4631 9.57858 5.1528
75 1 -1.1104 3.96762 5.61934 1.04689
76 1 -1.1104 3.80725 11.1424 1.19837
78 1 -1.1104 3.68243 5.55067 3.82081
79 1 -1.1104 3.88764 11.1253 4.03195
62 1 -1.1104 6.82284 5.46551 1.09132
58 1 -1.1104 6.60758 5.45067 3.77857
259 1 -1.1104 6.57257 5.20902 6.48373
63 1 -1.1104 6.72235 11.1305 1.03416
228 1 -1.1104 6.70945 8.5023 6.572
69 1 -1.1104 6.75921 11.0357 3.86273
94 1 -1.1104 6.70213 8.25496 3.85804
56 1 -1.1104 6.76545 8.2843 1.17034
231 1 -1.1104 3.73355 5.63238 6.73534
159 1 -1.1104 9.37224 16.7871 6.77797
321 2 2.2208 2.45532 9.71313 -0.290321
8134 2 2.2208 2.44383 -4.26567 8.13798
466 2 2.2208 8.11343 9.77101 -0.411418
68 1 -1.1104 9.5288 5.36755 3.87079
83 2 2.2208 10.9907 12.6028 5.33933
84 1 -1.1104 12.5167 8.32652 1.00424
85 1 -1.1104 12.4325 8.52538 3.71261
86 1 -1.1104 12.4779 5.56133 1.45639
87 1 -1.1104 12.4445 11.0862 0.897261
89 2 2.2208 11.0286 9.70543 2.32952
90 1 -1.1104 12.0887 11.3984 3.62013
91 1 -1.1104 9.62608 8.3094 0.820322
92 2 2.2208 8.20693 7.01501 2.49288
93 2 2.2208 8.09518 12.5828 2.51695
95 2 2.2208 8.10618 9.63968 5.16172
96 1 -1.1104 9.55859 5.48307 1.125
97 1 -1.1104 9.63136 11.0656 1.09028
99 1 -1.1104 9.23758 8.8037 3.39989
98 1 -1.1104 9.40742 11.4239 4.24745
302 2 2.2208 13.6312 9.58655 5.38968
256 1 -1.1104 12.6099 7.75067 6.50754
64 1 -1.1104 7.08903 11.061 6.63903
310 2 2.2208 10.8445 12.5352 -0.329362
88 1 -1.1104 12.3562 11.2858 6.6146
28 2 2.2208 13.7944 18.2781 8.09958
25 2 2.2208 13.7065 15.3605 10.9175
198 1 -1.1104 9.47498 14.0709 9.49734
102 2 2.2208 5.34336 18.2254 5.3054
103 1 -1.1104 0.925978 13.9176 0.960918
105 1 -1.1104 1.32024 19.4014 1.05521
109 1 -1.1104 1.05855 13.9386 3.86654
110 1 -1.1104 1.01485 19.5075 3.85546
112 1 -1.1104 0.920942 16.651 1.11139
115 2 2.2208 5.18599 15.2312 2.46671
116 2 2.2208 5.2081 21.0182 2.43622
117 1 -1.1104 1.06737 16.7899 4.0419
119 1 -1.1104 3.62239 13.8543 1.15012
121 1 -1.1104 3.94107 19.5368 1.16606
123 2 2.2208 2.53329 18.1175 2.57622
124 1 -1.1104 3.93065 13.8309 3.93465
125 1 -1.1104 3.92529 19.6128 4.01388
126 2 2.2208 2.45093 15.1653 5.25922
127 2 2.2208 2.39091 20.9273 5.33107
128 1 -1.1104 3.78833 16.7305 1.09309
130 1 -1.1104 3.82491 16.715 4.00732
111 1 -1.1104 6.68844 13.8276 3.93068
106 1 -1.1104 6.6525 13.8857 1.12862
134 1 -1.1104 6.79254 19.5706 0.850948
135 1 -1.1104 6.62877 19.6265 3.61331
136 1 -1.1104 6.59879 16.728 0.959981
118 1 -1.1104 6.71759 16.7065 3.84555
171 2 2.2208 8.09248 18.1432 8.21958
35 1 -1.1104 12.3738 19.4276 12.2004
8132 2 2.2208 7.99281 -4.31353 2.46535
30 1 -1.1104 12.2878 13.8156 12.3015
137 2 2.2208 11.0261 18.1554 5.26551
138 1 -1.1104 12.2123 13.9084 1.04201
140 1 -1.1104 12.363 19.4995 0.988555
142 1 -1.1104 12.2232 14.0074 3.96351
143 1 -1.1104 12.3296 19.6048 3.83051
144 1 -1.1104 12.4075 16.7924 1.13465
146 2 2.2208 10.9033 15.3873 2.56724
147 2 2.2208 10.8813 20.9927 2.40152
148 1 -1.1104 12.3632 16.7922 3.77518
149 1 -1.1104 9.34359 14.2541 1.17744
151 1 -1.1104 9.56167 19.6794 1.02064
153 2 2.2208 8.14365 18.0711 2.40681
154 1 -1.1104 9.41724 14.1446 3.81408
155 1 -1.1104 9.4423 19.5593 3.8587
156 2 2.2208 8.09663 15.3944 5.27941
157 2 2.2208 8.08731 20.8792 5.14914
158 1 -1.1104 9.60019 16.9272 0.983012
160 1 -1.1104 9.66599 16.9273 3.96059
326 2 2.2208 5.34315 21.047 13.7482
150 1 -1.1104 9.50761 13.9448 6.73706
141 1 -1.1104 12.3856 19.53 6.67469
152 1 -1.1104 9.41282 19.441 6.56571
139 1 -1.1104 12.3561 14.1494 6.82728
81 2 2.2208 10.8947 15.4718 8.13789
315 2 2.2208 5.3869 15.3589 13.734
163 1 -1.1104 1.16256 2.75609 6.62751
168 1 -1.1104 3.83266 -2.78318 6.85059
162 1 -1.1104 0.993193 -2.79438 6.59249
132 1 -1.1104 12.272 16.9377 9.3403
166 1 -1.1104 0.937942 -0.179959 6.75209
173 2 2.2208 5.40023 1.41442 10.8699
174 1 -1.1104 0.880472 -2.83385 12.486
175 1 -1.1104 1.15267 2.79074 12.1788
178 1 -1.1104 1.04232 -2.85145 9.59401
179 1 -1.1104 1.09601 2.73164 9.38493
182 1 -1.1104 1.22504 0.028225 12.2505
184 2 2.2208 5.18174 -1.33895 7.97646
185 2 2.2208 5.30613 3.94996 7.83199
186 1 -1.1104 1.03859 -0.115093 9.40612
188 1 -1.1104 3.7328 -2.88125 12.2529
189 1 -1.1104 4.16158 2.81522 12.1529
190 2 2.2208 2.47818 1.41217 8.05139
191 1 -1.1104 3.88179 -2.75163 9.67589
192 1 -1.1104 4.025 2.68796 9.3648
193 2 2.2208 2.46757 -1.50306 10.9831
194 2 2.2208 2.54887 4.16757 10.9164
195 1 -1.1104 3.89202 -0.0193417 12.356
196 1 -1.1104 3.88396 0.0453378 9.46532
180 1 -1.1104 6.63358 -2.87787 9.57719
187 1 -1.1104 6.64741 -0.0101777 9.31282
200 2 2.2208 8.02026 15.4128 10.9399
52 1 -1.1104 12.3963 19.5535 9.52347
325 2 2.2208 7.96427 -4.14842 8.05014
203 1 -1.1104 12.2807 0.371113 6.68196
49 2 2.2208 13.6728 9.65746 10.8933
176 1 -1.1104 6.42357 -2.7325 12.3098
183 1 -1.1104 6.74324 -0.019092 12.152
177 1 -1.1104 6.82723 2.78561 12.4129
201 1 -1.1104 12.2215 -2.70483 6.81354
199 1 -1.1104 9.45925 19.5585 9.39173
197 2 2.2208 13.6811 3.99261 10.9129
181 1 -1.1104 7.06084 2.90619 9.33694
207 2 2.2208 11.0468 1.31612 10.9827
208 1 -1.1104 12.2387 -2.803 12.3012
209 1 -1.1104 12.3629 2.60437 12.4323
210 1 -1.1104 12.118 -2.67438 9.5275
211 1 -1.1104 12.3729 2.48115 9.44197
212 1 -1.1104 12.2865 -0.0613199 12.2397
213 2 2.2208 10.8982 -1.28536 8.14089
214 1 -1.1104 12.3419 -0.0747077 9.58789
215 1 -1.1104 9.35607 -2.63573 12.3851
216 1 -1.1104 9.53248 2.66742 12.0144
217 2 2.2208 7.99169 1.36404 7.91609
218 1 -1.1104 9.34921 -2.66036 9.39046
220 2 2.2208 7.98597 -1.45463 10.91
222 1 -1.1104 9.59374 -0.0749243 12.3063
223 1 -1.1104 9.55014 0.334361 9.5092
221 2 2.2208 8.10763 4.23955 11.1375
226 1 -1.1104 9.46886 16.6761 12.3934
101 2 2.2208 10.9246 20.9545 8.01831
230 1 -1.1104 3.75369 8.32947 6.56722
227 1 -1.1104 0.864903 8.36537 6.57253
229 1 -1.1104 1.0403 5.6283 6.58116
61 1 -1.1104 1.26668 11.0915 6.69636
77 1 -1.1104 4.02157 11.06 6.79843
232 2 2.2208 5.51829 7.07786 10.8781
233 2 2.2208 5.18392 12.5157 10.9949
234 1 -1.1104 0.884007 8.28429 12.1923
236 1 -1.1104 1.03236 8.43918 9.52563
238 1 -1.1104 1.17698 5.56401 12.3299
239 1 -1.1104 0.934525 11.1376 12.3097
242 2 2.2208 5.44429 9.61922 8.17164
243 1 -1.1104 1.48197 5.6819 9.54836
244 1 -1.1104 0.924593 11.2619 9.52751
246 1 -1.1104 3.82035 8.4055 12.2938
247 2 2.2208 2.39053 7.08829 7.96468
248 2 2.2208 2.46327 12.6256 8.05651
249 1 -1.1104 3.84078 8.27379 9.52188
250 2 2.2208 2.43238 9.68706 10.7777
251 1 -1.1104 3.93338 5.58972 12.1736
252 1 -1.1104 3.71182 11.2637 12.3128
253 1 -1.1104 4.85179 5.38628 9.49982
254 1 -1.1104 3.83149 11.1192 9.61239
237 1 -1.1104 6.7848 8.48944 9.57463
235 1 -1.1104 6.61461 8.64557 12.4872
245 1 -1.1104 6.6045 11.2395 9.51156
240 1 -1.1104 6.75609 5.63033 12.1672
219 2 2.2208 13.7448 15.4496 5.26387
241 1 -1.1104 6.5351 11.1841 12.4031
172 2 2.2208 13.8206 6.89889 8.23051
50 2 2.2208 13.6861 12.5731 8.03204
255 1 -1.1104 9.4561 11.2841 9.24462
258 1 -1.1104 9.15533 5.71536 9.83923
260 1 -1.1104 9.55861 11.0877 12.2573
261 1 -1.1104 9.45264 5.31039 12.5923
262 2 2.2208 8.10658 9.98848 10.9407
263 2 2.2208 7.97537 12.7962 8.26492
264 2 2.2208 10.9674 6.7659 10.8007
265 2 2.2208 10.9853 12.5438 10.7507
266 1 -1.1104 12.1906 8.30529 12.4542
267 1 -1.1104 12.4579 8.13978 9.65732
268 1 -1.1104 12.1595 5.39993 12.3775
269 1 -1.1104 12.2283 11.1925 12.4391
270 1 -1.1104 12.4212 5.37632 9.56499
271 1 -1.1104 12.5835 11.2032 9.68098
272 1 -1.1104 9.3494 8.18356 11.9917
133 1 -1.1104 9.52514 13.8532 12.2843
559 2 2.2208 2.39735 4.28724 -0.470791
108 1 -1.1104 6.61279 19.5347 6.51424
122 1 -1.1104 3.78685 19.6146 6.84585
289 1 -1.1104 1.03834 19.3983 6.70714
120 1 -1.1104 3.75098 13.8827 6.76198
104 1 -1.1104 0.9235 13.9296 6.66986
113 1 -1.1104 0.949301 16.6609 6.87712
129 1 -1.1104 3.74705 16.7913 6.67818
107 1 -1.1104 6.56544 13.948 6.76023
283 1 -1.1104 6.7134 19.7594 12.2753
114 1 -1.1104 6.49886 16.7614 6.79997
273 1 -1.1104 3.93835 19.3856 12.4309
274 1 -1.1104 3.87499 14.0975 12.3617
278 1 -1.1104 1.06523 19.5729 9.44107
279 1 -1.1104 0.907849 16.7486 9.61308
280 2 2.2208 5.32148 20.9296 8.088
281 1 -1.1104 1.00554 14.0203 9.43432
282 2 2.2208 5.18274 15.3877 8.13241
285 1 -1.1104 1.05887 19.3947 12.2235
286 1 -1.1104 1.08937 13.9691 12.2341
287 2 2.2208 5.28278 18.2829 10.9463
288 1 -1.1104 3.93766 19.4646 9.72917
290 2 2.2208 2.35987 18.064 8.17002
291 1 -1.1104 3.96334 16.7155 9.52619
292 1 -1.1104 3.7576 13.9602 9.51328
294 1 -1.1104 1.12293 16.6954 12.2928
295 1 -1.1104 3.91959 16.704 12.3514
296 2 2.2208 2.54581 20.9041 11.0018
297 2 2.2208 2.45696 15.3665 10.996
284 1 -1.1104 6.88568 14.0783 12.4355
276 1 -1.1104 6.59937 16.7851 9.57275
277 1 -1.1104 6.57473 13.9539 9.7822
275 1 -1.1104 6.6886 19.6019 9.4631
293 1 -1.1104 6.7274 16.939 12.3531
29 2 2.2208 10.8701 18.231 10.9408
301 1 -1.1104 9.4021 16.8736 9.6146
161 1 -1.1104 9.62554 19.6532 12.3985
80 1 -1.1104 12.2387 16.5715 12.2519
51 1 -1.1104 12.2416 14.0751 9.47092
145 1 -1.1104 12.2221 16.7557 6.51357
8499 2 2.2208 -0.302656 1.31249 10.9358
327 2 2.2208 8.07843 4.12265 -0.28392
8726 2 2.2208 -0.437208 9.77126 8.05534
8693 2 2.2208 13.8919 6.99304 2.56372
314 2 2.2208 2.53487 18.1826 13.7122
8657 2 2.2208 13.7976 18.1434 2.34628
403 2 2.2208 8.05262 1.44637 13.7301
26 2 2.2208 13.5612 20.862 10.8468
8816 2 2.2208 13.7606 20.94 5.12669
8787 2 2.2208 -0.376204 9.76355 2.57824
307 2 2.2208 -0.351296 15.45 13.6552
8797 2 2.2208 -0.396449 12.5565 5.27092
371 2 2.2208 2.55559 1.35758 13.6612
317 2 2.2208 10.8153 15.3213 13.7033
8474 2 2.2208 8.14898 -4.19992 13.7843
8478 2 2.2208 10.76 -4.3231 -0.301072
622 2 2.2208 5.43566 6.88373 -0.246265
311 2 2.2208 2.4445 12.5838 13.7231
303 2 2.2208 8.0049 15.3621 -0.207151
316 2 2.2208 10.9387 20.962 13.6496
405 2 2.2208 2.42434 15.3119 -0.327969
319 2 2.2208 13.7184 18.0728 13.6549
329 2 2.2208 11.0711 6.94843 -0.339532
8817 2 2.2208 13.7367 9.83517 -0.400672
309 2 2.2208 5.15874 12.5328 -0.312559
372 2 2.2208 5.21348 4.12589 13.6947
557 2 2.2208 5.20743 1.42669 -0.282361
8802 2 2.2208 13.7118 20.8483 -0.365938
558 2 2.2208 2.45013 -1.34787 -0.521508
330 2 2.2208 5.22638 1.47909 16.5684
331 1 -1.1104 1.04545 -2.8274 18.0854
332 1 -1.1104 1.07373 2.73879 18.0198
335 1 -1.1104 1.10696 -2.88565 15.2893
337 1 -1.1104 1.16112 2.7336 15.2077
343 1 -1.1104 1.05416 -0.0372706 17.9174
345 2 2.2208 5.22389 -1.36352 19.3335
346 2 2.2208 5.33783 4.18805 19.3637
347 1 -1.1104 1.14874 0.0091826 15.0844
351 1 -1.1104 3.77646 -2.69026 17.8614
352 1 -1.1104 3.90865 2.89191 18.0495
353 2 2.2208 2.39239 1.33622 19.3731
354 1 -1.1104 3.78493 -2.76692 15.025
356 1 -1.1104 3.86171 2.83299 15.2217
358 2 2.2208 2.46723 -1.41671 16.5465
359 2 2.2208 2.38221 4.19425 16.5951
360 1 -1.1104 3.68797 0.128652 17.7806
361 1 -1.1104 3.91175 0.0499031 15.0715
338 1 -1.1104 0.99501 2.84619 20.6593
334 1 -1.1104 6.66828 2.6845 17.9852
341 1 -1.1104 6.7055 2.88194 15.0737
344 1 -1.1104 6.54203 0.0762365 17.8786
339 1 -1.1104 6.65762 -2.75778 15.0244
342 1 -1.1104 6.75755 2.71886 20.828
340 1 -1.1104 6.75292 -2.75237 20.5502
399 2 2.2208 -0.130597 15.2876 19.3237
348 1 -1.1104 1.0076 0.159564 20.7279
336 1 -1.1104 1.0957 -2.72182 20.7873
17727 2 2.2208 13.745 -4.16893 19.2563
349 1 -1.1104 6.62474 0.0960585 15.1246
333 1 -1.1104 6.64279 -2.7672 17.7237
8479 2 2.2208 10.8803 -4.27071 22.1358
82 2 2.2208 8.09685 6.97998 13.636
373 2 2.2208 10.8692 1.29429 16.5508
374 1 -1.1104 12.3115 -2.82165 17.797
375 1 -1.1104 12.186 2.64176 17.9531
376 1 -1.1104 12.4404 -2.82864 15.1359
378 1 -1.1104 12.2005 2.73252 15.1738
380 1 -1.1104 12.3079 -0.291699 17.9774
381 2 2.2208 10.9452 -1.49743 19.2598
382 2 2.2208 10.9198 4.20671 19.2435
383 1 -1.1104 12.3358 -0.00759542 15.0987
385 1 -1.1104 9.36257 -2.80638 17.9306
386 1 -1.1104 9.44661 2.75027 17.8214
387 2 2.2208 8.15086 1.29109 19.3564
388 1 -1.1104 9.67364 -2.91793 15.2366
390 1 -1.1104 9.45881 2.76616 14.9682
392 2 2.2208 8.05703 -1.37858 16.4709
393 2 2.2208 7.98952 4.1551 16.408
394 1 -1.1104 9.57698 -0.0816455 17.9134
395 1 -1.1104 9.53667 -0.134331 15.1493
8473 2 2.2208 8.10431 -4.25379 19.2994
8850 2 2.2208 13.7408 -1.42809 16.5085
384 1 -1.1104 12.2427 0.0124032 20.9036
8472 2 2.2208 10.9422 -4.31928 16.5827
396 1 -1.1104 9.50274 0.119433 20.6092
391 1 -1.1104 9.4801 2.77557 20.7618
627 2 2.2208 -0.346273 12.64 22.0953
406 2 2.2208 5.27056 7.08628 16.5247
407 2 2.2208 5.29821 12.5175 16.56
408 1 -1.1104 1.06778 8.41032 17.8632
410 1 -1.1104 1.14666 8.27203 15.1251
414 1 -1.1104 0.898604 5.5317 17.9106
415 1 -1.1104 1.10187 11.0926 17.9011
418 2 2.2208 5.24544 9.81506 19.2934
419 1 -1.1104 1.07463 5.54148 15.2217
421 1 -1.1104 0.935698 11.0965 15.1523
427 1 -1.1104 3.91714 8.43229 17.7767
428 2 2.2208 2.38668 6.90941 19.2595
429 2 2.2208 2.46165 12.5096 19.3201
430 1 -1.1104 3.86539 8.49258 15.0727
432 2 2.2208 2.4833 9.77024 16.6022
433 1 -1.1104 3.74873 5.64893 17.8622
434 1 -1.1104 3.85682 11.2508 17.9372
435 1 -1.1104 3.83098 5.55492 15.0906
437 1 -1.1104 3.72286 11.1911 15.2734
409 1 -1.1104 6.65551 8.22467 17.984
425 1 -1.1104 6.71044 11.1312 15.2343
424 1 -1.1104 6.62424 5.49724 20.78
417 1 -1.1104 6.67722 11.0319 17.8757
412 1 -1.1104 6.6646 8.38097 15.2023
416 1 -1.1104 6.59317 5.43542 17.8773
422 1 -1.1104 0.973485 11.3022 20.6569
431 1 -1.1104 3.73854 8.37823 20.6663
439 2 2.2208 2.5092 7.01427 13.7401
8469 2 2.2208 5.16849 -4.15012 16.5216
411 1 -1.1104 0.918301 8.35122 20.7382
420 1 -1.1104 1.04122 5.55875 20.7093
438 1 -1.1104 3.84063 11.1655 20.8205
562 2 2.2208 5.11918 9.84934 13.8108
423 1 -1.1104 6.48241 5.61686 15.161
442 2 2.2208 10.8597 6.88769 16.5132
443 2 2.2208 10.905 12.3847 16.4674
444 1 -1.1104 12.3284 8.35289 17.7955
445 1 -1.1104 12.4571 8.26646 15.0317
447 1 -1.1104 12.2991 5.5088 18.007
448 1 -1.1104 12.2518 11.0621 17.89
449 2 2.2208 10.8028 9.74534 19.3082
450 1 -1.1104 12.2604 5.48605 15.1291
452 1 -1.1104 12.3945 11.1237 15.1075
454 1 -1.1104 9.54683 8.27671 17.7836
455 2 2.2208 8.11311 7.01543 19.3043
456 2 2.2208 8.05051 12.6273 19.3605
457 1 -1.1104 9.49933 8.15096 15.0477
459 2 2.2208 8.10569 9.54446 16.5504
460 1 -1.1104 9.53628 5.55294 17.8542
461 1 -1.1104 9.39794 11.0468 18.0074
462 1 -1.1104 9.37789 5.57036 15.2286
464 1 -1.1104 9.55624 11.0016 15.0624
368 2 2.2208 13.5663 12.4081 19.3011
597 1 -1.1104 9.26728 14.0356 26.3768
446 1 -1.1104 12.3707 8.35749 20.6404
451 1 -1.1104 12.2365 5.53109 20.8683
453 1 -1.1104 12.2784 10.9357 20.6935
440 2 2.2208 5.34654 18.0729 27.6704
224 2 2.2208 8.21176 20.9859 27.6693
400 2 2.2208 10.8999 4.14991 13.8321
482 1 -1.1104 0.833281 16.7394 17.8731
469 2 2.2208 5.25058 18.2073 16.4877
470 1 -1.1104 1.00342 13.9403 17.8767
471 1 -1.1104 1.16662 19.5835 17.7853
474 1 -1.1104 1.01608 13.9555 15.0245
476 1 -1.1104 1.10736 19.58 15.0996
484 2 2.2208 5.25049 15.3604 19.3469
485 2 2.2208 5.31652 21.0346 19.3123
486 1 -1.1104 1.2446 16.7761 14.9606
490 1 -1.1104 3.82515 14.015 17.9634
491 1 -1.1104 3.76978 19.5719 17.8021
492 2 2.2208 2.52806 18.2364 19.2971
493 1 -1.1104 3.90815 13.9179 14.9775
495 1 -1.1104 3.88468 19.7048 15.0569
497 2 2.2208 2.52228 15.3254 16.461
498 2 2.2208 2.45751 21.0268 16.5023
499 1 -1.1104 3.48407 16.6369 17.9221
500 1 -1.1104 3.90036 16.8182 15.2305
472 1 -1.1104 6.62983 13.8708 17.9506
478 1 -1.1104 6.53382 13.9312 15.0581
488 1 -1.1104 6.78143 16.9167 15.1914
483 1 -1.1104 6.54172 16.7848 18.0057
480 1 -1.1104 6.77662 19.6274 15.0852
473 1 -1.1104 6.71281 19.6393 17.832
367 2 2.2208 13.6781 9.70008 16.5147
475 1 -1.1104 1.18394 14.0707 20.6235
481 1 -1.1104 6.6672 19.4035 20.6183
494 1 -1.1104 3.83367 14.1074 20.7009
479 1 -1.1104 6.57444 13.956 20.8479
501 1 -1.1104 3.69996 16.8329 20.7946
404 2 2.2208 11.0125 -1.31503 13.8223
8480 2 2.2208 8.0295 -4.24261 24.8077
364 2 2.2208 -0.387465 7.03367 22.1437
9039 2 2.2208 13.6815 18.0218 19.2259
505 2 2.2208 10.8017 18.1635 16.473
506 1 -1.1104 12.2295 13.8907 17.9233
507 1 -1.1104 12.3981 19.5809 17.7358
508 1 -1.1104 12.3225 13.9473 15.0933
510 1 -1.1104 12.3673 19.5035 15.1098
512 1 -1.1104 12.2335 16.6069 17.6723
513 2 2.2208 10.831 15.1961 19.1841
514 2 2.2208 10.995 20.9332 19.3276
515 1 -1.1104 12.1774 16.6841 14.946
517 1 -1.1104 9.39272 13.8769 17.8803
518 1 -1.1104 9.52953 19.6608 17.9484
519 2 2.2208 7.98363 18.1163 19.2616
520 1 -1.1104 9.48662 13.9626 15.0688
522 1 -1.1104 9.51048 19.4932 14.9866
524 2 2.2208 7.93834 15.3093 16.5802
525 2 2.2208 8.13127 20.925 16.5477
526 1 -1.1104 9.49332 16.7429 17.7555
527 1 -1.1104 9.40006 16.8089 15.1333
523 1 -1.1104 9.45452 19.4935 20.6479
8921 2 2.2208 -0.374735 4.21932 24.9235
511 1 -1.1104 12.4713 19.4777 20.4541
509 1 -1.1104 12.0513 13.9788 20.7637
563 2 2.2208 13.736 20.9068 16.4429
362 1 -1.1104 3.77515 -0.167271 20.6913
357 1 -1.1104 3.92209 2.64108 20.7408
355 1 -1.1104 3.85385 -2.88478 20.7622
350 1 -1.1104 6.68379 -0.00753838 20.6981
533 2 2.2208 5.13905 1.39839 22.0524
534 1 -1.1104 1.06155 -2.77727 23.6053
535 1 -1.1104 1.09546 2.84017 23.4015
538 1 -1.1104 0.896801 -2.66956 26.382
539 1 -1.1104 0.979643 2.83047 26.2255
542 1 -1.1104 1.01556 -0.0137203 23.4955
544 2 2.2208 5.12149 -1.38146 24.8353
546 1 -1.1104 1.08073 0.0250174 26.2886
548 1 -1.1104 3.74404 -2.93673 23.5328
549 1 -1.1104 3.79714 2.87832 23.569
550 2 2.2208 2.47028 1.43204 25.0618
551 1 -1.1104 3.68935 -2.73751 26.1627
552 1 -1.1104 3.9277 2.89326 26.3729
553 2 2.2208 2.41359 -1.35974 22.1736
554 2 2.2208 2.52703 4.2105 22.1419
555 1 -1.1104 3.81249 -0.106128 23.4583
556 1 -1.1104 3.9484 0.0850308 26.2501
545 2 2.2208 5.3116 4.1047 25.0012
547 1 -1.1104 6.50622 -0.051277 26.4186
543 1 -1.1104 6.6147 -0.0687983 23.6603
540 1 -1.1104 6.61883 -3.03457 26.3009
537 1 -1.1104 6.6244 2.72005 23.4836
541 1 -1.1104 6.7194 2.76501 26.429
363 2 2.2208 13.4831 15.3635 22.1195
8919 2 2.2208 -0.26689 1.42444 16.6544
590 1 -1.1104 9.52331 13.85 23.6914
377 1 -1.1104 12.2821 -2.82668 20.8446
536 1 -1.1104 6.63668 -2.83498 23.352
389 1 -1.1104 9.49142 -2.80555 20.7013
379 1 -1.1104 12.2189 2.70525 20.6668
8851 2 2.2208 -0.385953 1.37381 22.0611
9051 2 2.2208 13.5319 -1.46903 22.2017
569 2 2.2208 10.8271 1.41033 22.1552
570 1 -1.1104 12.1359 -2.82534 23.6908
571 1 -1.1104 12.2444 2.61459 23.4229
572 1 -1.1104 12.2259 -2.92857 26.5744
573 1 -1.1104 12.3761 2.68582 26.4525
574 1 -1.1104 12.1463 0.0608517 23.5754
575 2 2.2208 10.8052 -1.45932 25.0164
576 2 2.2208 10.9081 4.12776 24.9536
577 1 -1.1104 12.1346 -0.083836 26.3571
578 1 -1.1104 9.52359 -2.87019 23.5239
579 1 -1.1104 9.39077 2.61196 23.5861
580 2 2.2208 8.07229 1.32143 25.0177
581 1 -1.1104 9.41506 -2.90283 26.3783
582 1 -1.1104 9.51979 2.75607 26.3635
583 2 2.2208 8.03165 -1.5005 22.0655
584 2 2.2208 8.01247 4.14315 22.1899
585 1 -1.1104 9.40238 -0.192039 23.5811
586 1 -1.1104 9.38466 -0.0434637 26.3751
8886 2 2.2208 13.8359 6.9676 24.9282
625 1 -1.1104 9.56819 19.6714 26.3368
365 2 2.2208 13.7539 9.7449 22.0516
426 1 -1.1104 6.59673 11.1411 20.6108
436 1 -1.1104 3.97225 5.46397 20.6731
598 2 2.2208 5.28758 6.96127 22.0382
599 2 2.2208 5.19268 12.6097 22.221
600 1 -1.1104 1.11203 8.35109 23.4429
602 1 -1.1104 1.1797 8.40672 26.2632
604 1 -1.1104 1.20797 5.61719 23.5057
605 1 -1.1104 1.04034 11.1109 23.4124
608 2 2.2208 5.27764 9.75201 24.9584
609 1 -1.1104 0.991897 5.64526 26.1942
610 1 -1.1104 1.01674 11.1748 26.2561
613 1 -1.1104 3.94875 8.49619 23.4878
614 2 2.2208 2.58098 7.0454 24.9333
615 2 2.2208 2.38185 12.5502 24.931
616 1 -1.1104 3.89588 8.34092 26.5031
617 2 2.2208 2.42374 9.80003 22.0884
618 1 -1.1104 4.06772 5.57847 23.5264
619 1 -1.1104 3.84116 11.1314 23.5552
620 1 -1.1104 3.88013 5.66318 26.3698
621 1 -1.1104 3.77005 11.1754 26.4735
601 1 -1.1104 6.7691 8.52204 23.6629
603 1 -1.1104 6.72706 8.27467 26.3719
606 1 -1.1104 6.73585 5.71411 23.5607
611 1 -1.1104 6.87487 5.5618 26.343
607 1 -1.1104 6.58861 11.3594 23.4731
612 1 -1.1104 6.69512 11.1121 26.3628
401 1 -1.1104 12.1984 13.9499 23.4325
626 2 2.2208 8.15478 15.2687 22.1235
413 1 -1.1104 6.68319 8.37239 20.9232
463 1 -1.1104 9.44071 5.50807 20.7342
458 1 -1.1104 9.51109 8.3054 20.6645
465 1 -1.1104 9.54222 11.0603 20.7656
650 2 2.2208 13.5979 12.6388 24.778
567 2 2.2208 10.9415 20.9279 24.9274
629 1 -1.1104 9.26279 11.3621 26.389
630 1 -1.1104 9.60793 5.69492 26.3203
631 1 -1.1104 9.428 11.0675 23.5742
632 1 -1.1104 9.51211 5.44755 23.4267
633 2 2.2208 7.96576 9.7728 22.1874
634 1 -1.1104 9.5199 8.33859 26.1659
635 2 2.2208 7.86976 12.5797 25.0494
636 2 2.2208 8.09326 7.02329 24.9622
637 2 2.2208 10.905 6.93239 22.1887
638 2 2.2208 10.8536 12.543 22.1675
639 1 -1.1104 12.3843 8.25758 23.6033
640 1 -1.1104 12.4822 8.39934 26.2684
641 1 -1.1104 12.3567 5.42858 23.6173
642 1 -1.1104 12.2589 11.1497 23.3933
643 2 2.2208 10.9814 9.70537 24.8415
644 1 -1.1104 12.3157 5.46454 26.524
645 1 -1.1104 12.2437 11.1257 26.3476
646 1 -1.1104 9.45448 8.20236 23.5035
529 1 -1.1104 6.61846 16.6819 23.6445
496 1 -1.1104 3.90077 19.6747 20.6337
477 1 -1.1104 1.18958 19.5221 20.7759
487 1 -1.1104 0.907844 16.897 20.9231
489 1 -1.1104 6.60125 16.687 20.7745
596 1 -1.1104 6.75705 19.5331 26.152
660 1 -1.1104 6.67934 19.4273 23.3044
649 1 -1.1104 6.74042 13.927 23.5114
467 2 2.2208 2.40555 15.4121 22.2342
468 2 2.2208 2.51194 20.9493 22.2362
502 1 -1.1104 3.83915 16.6969 23.6512
504 1 -1.1104 1.13542 16.6941 23.7076
530 1 -1.1104 3.69242 13.9026 26.3462
531 1 -1.1104 4.00649 16.6336 26.512
532 2 2.2208 2.56463 18.005 25.1193
592 1 -1.1104 3.94259 19.3434 26.3223
623 2 2.2208 5.228 18.0438 22.2724
624 1 -1.1104 1.01947 13.9008 23.4336
647 2 2.2208 5.29223 20.9317 25.0763
648 1 -1.1104 1.27601 19.637 23.6853
651 2 2.2208 5.25993 15.2539 24.9406
653 1 -1.1104 3.97006 19.5641 23.5359
655 1 -1.1104 3.8587 13.8748 23.4496
657 1 -1.1104 1.12586 19.5687 26.3964
658 1 -1.1104 1.21946 16.7993 26.4621
659 1 -1.1104 0.999748 13.9827 26.2042
656 1 -1.1104 6.73535 16.6726 26.3663
591 2 2.2208 -0.305619 9.74233 19.4233
628 2 2.2208 7.97335 20.8031 22.0775
561 1 -1.1104 12.334 19.4788 26.3328
566 2 2.2208 10.7601 15.3522 24.869
595 2 2.2208 8.07043 18.1217 24.8806
397 2 2.2208 10.7003 18.1664 22.0503
521 1 -1.1104 9.36822 13.8628 20.6988
654 1 -1.1104 6.46538 13.8956 26.3454
528 1 -1.1104 9.28394 16.6676 20.628
516 1 -1.1104 12.1327 16.7295 20.5374
594 1 -1.1104 9.49332 19.453 23.5575
369 1 -1.1104 9.56703 16.779 26.2648
9140 2 2.2208 -0.435184 4.20246 19.3737
560 1 -1.1104 12.1045 13.8615 26.2412
568 1 -1.1104 12.3492 16.689 26.3121
652 1 -1.1104 9.35476 16.7042 23.547
565 1 -1.1104 12.0858 16.6817 23.3955
402 1 -1.1104 12.2757 19.6005 23.4339
320 2 2.2208 -0.270091 9.78615 13.6147
587 2 2.2208 10.8786 1.32731 27.8148
318 2 2.2208 8.11361 18.1248 13.6495
441 2 2.2208 2.53302 20.8708 27.8427
588 2 2.2208 7.88114 -1.55723 27.6708
308 2 2.2208 13.6156 12.6168 13.7138
313 2 2.2208 8.11958 12.4409 13.7719
9054 2 2.2208 13.6598 -1.5158 27.8106
304 2 2.2208 10.9833 18.1546 27.6648
370 2 2.2208 5.25126 -1.44256 13.6398
8798 2 2.2208 -0.318708 7.03306 27.66
312 2 2.2208 10.8357 9.67074 13.6015
8846 2 2.2208 -0.253177 18.1575 27.8003
305 2 2.2208 13.6671 15.275 27.7819
8887 2 2.2208 -0.188351 4.18975 13.8269
661 2 2.2208 5.27032 23.72 5.2207
662 2 2.2208 5.18577 29.28 5.3822
663 1 -1.1104 1.03239 25.2252 1.04499
664 1 -1.1104 1.06021 25.0189 3.8993
665 1 -1.1104 1.04496 22.2714 1.1404
666 1 -1.1104 1.14712 27.9107 1.04029
667 2 2.2208 5.26361 26.5502 2.35011
668 1 -1.1104 0.956944 22.1691 4.01518
669 1 -1.1104 0.973038 27.874 3.79694
670 1 -1.1104 3.90879 25.1238 1.03203
671 2 2.2208 2.46733 23.7894 2.43983
672 2 2.2208 2.44645 29.2286 2.55159
673 1 -1.1104 3.90093 25.0993 3.84027
674 2 2.2208 2.51071 26.4546 5.20135
675 1 -1.1104 3.89039 22.5223 1.06312
676 1 -1.1104 3.8892 27.9566 0.990667
677 1 -1.1104 3.80672 22.1736 3.86837
678 1 -1.1104 3.92075 27.8713 3.81843
808 1 -1.1104 3.88547 25.0869 6.68332
684 1 -1.1104 6.79042 22.4091 0.991174
686 1 -1.1104 6.63561 22.3902 3.89274
683 1 -1.1104 6.58739 25.1562 3.83651
687 1 -1.1104 6.71645 27.8288 3.59656
685 1 -1.1104 6.61804 27.9019 0.820896
682 1 -1.1104 6.6944 25.2442 0.97703
802 1 -1.1104 1.23959 25.1174 6.8416
958 2 2.2208 13.7289 23.7406 7.81399
1483 1 -1.1104 1.23805 47.4673 9.43015
9459 2 2.2208 13.6896 23.7262 2.39109
688 2 2.2208 10.917 23.767 5.19576
689 2 2.2208 10.7627 29.375 5.30114
690 1 -1.1104 12.4571 25.1719 1.03698
691 1 -1.1104 12.2356 25.1361 3.74271
692 1 -1.1104 12.3947 22.1649 1.03659
693 1 -1.1104 12.2161 27.9835 0.995507
694 2 2.2208 10.8496 26.5778 2.41468
695 1 -1.1104 12.2292 22.4211 3.84766
696 1 -1.1104 12.0962 27.9309 3.82806
697 1 -1.1104 9.51057 25.0826 1.00704
698 2 2.2208 8.07732 23.7675 2.4841
699 2 2.2208 8.01145 29.2099 2.39235
700 1 -1.1104 9.3692 25.1068 3.75657
701 2 2.2208 8.0952 26.5903 5.0516
702 1 -1.1104 9.46333 22.3655 1.05062
703 1 -1.1104 9.55838 27.9809 0.967323
704 1 -1.1104 9.4462 22.4861 3.82504
705 1 -1.1104 9.39937 27.8865 3.67296
9461 2 2.2208 13.6462 26.5734 5.14171
9460 2 2.2208 13.5209 29.3578 2.56534
1517 1 -1.1104 12.3287 47.4007 12.2766
837 1 -1.1104 12.3905 27.843 6.6751
836 1 -1.1104 12.3272 22.1577 6.52687
709 2 2.2208 5.29686 34.8837 5.33597
710 1 -1.1104 0.927235 30.7909 1.03984
711 1 -1.1104 0.993206 36.3347 1.05785
713 1 -1.1104 1.11569 30.5707 3.83551
714 1 -1.1104 0.973921 36.2889 3.92327
716 1 -1.1104 0.867221 33.5364 1.2461
717 2 2.2208 5.21533 32.0354 2.51723
718 2 2.2208 5.25723 37.6874 2.45345
719 1 -1.1104 1.04944 33.4821 4.05013
721 1 -1.1104 3.73888 30.7354 1.16281
722 1 -1.1104 3.78415 36.3508 1.07977
723 2 2.2208 2.42539 34.8751 2.43059
724 1 -1.1104 3.91043 30.6109 3.95874
725 1 -1.1104 3.84275 36.2604 3.78998
726 2 2.2208 2.39524 32.0848 5.33933
727 2 2.2208 2.46356 37.5328 5.22875
728 1 -1.1104 3.75451 33.4923 1.04736
729 1 -1.1104 3.74973 33.4555 3.97173
712 1 -1.1104 6.49588 36.2555 1.07762
734 1 -1.1104 6.59238 30.6906 3.86953
720 1 -1.1104 6.57843 33.4882 3.82013
733 1 -1.1104 6.54673 30.5223 1.16045
860 1 -1.1104 0.998218 36.327 6.73711
863 1 -1.1104 0.947903 33.3723 6.73704
735 1 -1.1104 6.64914 33.4225 1.02633
9422 2 2.2208 13.6656 46.1604 7.9875
1340 1 -1.1104 12.3293 47.491 3.90663
715 1 -1.1104 6.82777 36.2825 3.98596
9199 2 2.2208 13.5887 37.6715 5.30281
736 2 2.2208 10.8467 34.8337 5.34841
737 1 -1.1104 12.1965 30.7078 1.11308
738 1 -1.1104 12.25 36.1815 1.06242
739 1 -1.1104 12.3043 30.7145 3.8737
740 1 -1.1104 12.2111 36.2943 3.88978
741 1 -1.1104 12.2615 33.4183 1.06026
742 2 2.2208 10.798 32.0114 2.43879
743 2 2.2208 10.814 37.6547 2.45112
744 1 -1.1104 12.08 33.5063 3.87117
745 1 -1.1104 9.24288 30.7055 1.02965
746 1 -1.1104 9.39082 36.2158 1.113
747 2 2.2208 8.14276 34.9007 2.52212
748 1 -1.1104 9.4235 30.5948 3.72729
749 1 -1.1104 9.50199 36.153 3.89888
750 2 2.2208 8.05313 32.0166 5.21453
751 2 2.2208 8.0729 37.5714 5.28489
752 1 -1.1104 9.55898 33.4306 0.951646
753 1 -1.1104 9.36195 33.4533 3.94287
898 1 -1.1104 9.47956 33.4842 6.66941
896 1 -1.1104 9.42536 30.7471 6.56505
1291 2 2.2208 2.47724 43.1721 -0.292728
754 1 -1.1104 12.2329 41.947 6.65025
1293 2 2.2208 5.25936 46.1395 -0.263238
777 1 -1.1104 3.86363 38.9848 3.77889
766 1 -1.1104 0.974439 39.1014 3.95688
761 1 -1.1104 1.04594 39.1496 0.928654
755 2 2.2208 5.24386 40.5899 5.22968