ITEM: TIMESTEP
20000
ITEM: NUMBER OF ATOMS
17730
ITEM: BOX BOUNDS pp pp pp
-3.5939279602569324e-01 2.7699392796026061e+01
-4.3172347430120706e+00 3.3239723474301661e+02
-3.5632774281778162e-01 2.7696327742817797e+01
ITEM: ATOMS id type q x y z
1 2 2.2208 5.33723 1.09653 5.18447
2 1 -1.1104 1.09644 -2.9513 1.12063
3 1 -1.1104 1.22519 2.47801 1.08365
6 1 -1.1104 1.00985 -2.93132 3.90613
7 1 -1.1104 1.15673 2.53037 3.80576
10 1 -1.1104 0.980383 -0.177119 1.02741
12 2 2.2208 5.20639 -1.73609 2.44193
13 2 2.2208 5.33227 4.04507 2.49981
14 1 -1.1104 1.30915 -0.221377 3.7818
16 1 -1.1104 3.87315 -3.10487 1.13894
17 1 -1.1104 3.84511 2.53366 1.09414
18 2 2.2208 2.61907 1.19285 2.34741
19 1 -1.1104 3.81135 -3.01618 3.99152
20 1 -1.1104 4.03888 2.63398 3.81106
21 2 2.2208 2.55617 -1.56151 5.18864
22 2 2.2208 2.64344 4.06029 5.20203
23 1 -1.1104 3.78203 -0.337854 0.991136
24 1 -1.1104 3.92744 -0.205317 3.77999
8790 2 2.2208 -0.208106 4.0111 2.413
170 1 -1.1104 3.92406 -0.182775 6.66407
162 1 -1.1104 1.25241 -2.99581 6.62692
8789 2 2.2208 -0.263239 1.2561 5.16642
163 1 -1.1104 1.24376 2.70976 6.76477
169 1 -1.1104 3.9997 2.59513 6.44246
166 1 -1.1104 1.03112 -0.184707 6.64106
5 1 -1.1104 6.55577 2.53386 1.01351
165 1 -1.1104 6.78218 2.60768 6.67106
8788 2 2.2208 -0.360413 -1.71027 2.43333
131 2 2.2208 -0.304134 18.1732 5.20982
313 2 2.2208 8.10021 12.441 13.6007
8888 2 2.2208 -0.276089 -1.44839 13.6889
11 1 -1.1104 6.65351 -0.0778885 0.94426
9 1 -1.1104 6.89437 2.49452 3.89059
8 1 -1.1104 6.64675 -3.06193 4.02623
4 1 -1.1104 6.74364 -2.89149 1.02829
15 1 -1.1104 6.70569 -0.304394 3.842
31 2 2.2208 11.0123 1.22576 5.02845
32 1 -1.1104 12.3565 -2.77545 0.840967
33 1 -1.1104 12.2217 2.50932 1.02949
34 1 -1.1104 12.1549 -3.03034 3.69163
36 1 -1.1104 12.2234 -0.124875 0.982842
37 2 2.2208 10.8911 -1.61695 2.27559
38 2 2.2208 11.0243 3.94607 2.35219
39 1 -1.1104 12.358 -0.168634 3.64525
40 1 -1.1104 9.47807 -3.01842 0.91847
41 1 -1.1104 9.42274 2.71174 1.03522
42 2 2.2208 8.01059 1.29306 2.32805
43 1 -1.1104 9.38588 -2.83904 3.73312
44 1 -1.1104 9.77075 2.9387 3.87203
45 2 2.2208 8.1889 -1.52121 5.24276
46 2 2.2208 8.27916 3.92469 5.37902
47 1 -1.1104 9.47842 -0.253679 1.09728
48 1 -1.1104 9.46883 0.0409667 3.93351
257 1 -1.1104 12.3965 2.57383 3.66213
203 1 -1.1104 12.5862 0.344784 6.56659
201 1 -1.1104 12.286 -2.60669 6.60179
202 1 -1.1104 9.61196 2.55766 6.5232
204 1 -1.1104 9.45247 -3.00754 6.60543
199 1 -1.1104 9.44392 19.2921 9.47992
164 1 -1.1104 6.65574 -2.99008 6.76635
323 2 2.2208 -0.315697 6.92609 10.7192
8474 2 2.2208 8.15275 -4.30564 13.6411
314 2 2.2208 2.41929 18.1017 13.6748
26 2 2.2208 13.6391 20.7582 10.7802
53 2 2.2208 5.40398 7.00346 5.30251
54 2 2.2208 5.38851 12.5697 5.15974
55 1 -1.1104 1.3153 8.24229 0.926142
57 1 -1.1104 0.953721 8.38982 3.82305
59 1 -1.1104 1.14292 5.35585 1.05769
60 1 -1.1104 1.34339 11.1055 0.952588
65 2 2.2208 5.38927 9.65557 2.41451
66 1 -1.1104 1.20013 5.33578 3.80719
67 1 -1.1104 1.1997 11.0942 3.6784
70 1 -1.1104 4.00861 8.22994 1.04545
71 2 2.2208 2.57568 6.87269 2.30513
72 2 2.2208 2.60198 12.5452 2.32181
73 1 -1.1104 3.81867 8.24021 3.88591
74 2 2.2208 2.50327 9.6885 5.21125
75 1 -1.1104 4.02071 5.44342 1.05646
76 1 -1.1104 4.15843 11.1679 0.928833
78 1 -1.1104 3.8904 5.43944 3.77212
79 1 -1.1104 4.04282 11.1035 3.80196
77 1 -1.1104 3.99557 11.1742 6.48907
231 1 -1.1104 4.001 5.49423 6.47764
27 2 2.2208 -0.355288 12.3719 10.6826
227 1 -1.1104 1.26678 8.20904 6.6879
230 1 -1.1104 4.02826 8.39745 6.76414
8135 2 2.2208 10.8633 -4.37603 10.8573
58 1 -1.1104 6.67907 8.18317 3.72415
69 1 -1.1104 6.85242 11.0173 3.80684
228 1 -1.1104 6.80334 8.38065 6.43254
62 1 -1.1104 6.79128 5.37501 1.01153
56 1 -1.1104 6.77443 8.25883 0.904576
63 1 -1.1104 6.92062 11.0676 0.942941
68 1 -1.1104 7.0543 5.39529 3.88428
83 2 2.2208 10.9958 12.3838 5.14439
84 1 -1.1104 12.461 8.10123 0.796539
85 1 -1.1104 12.4745 8.34272 3.57376
86 1 -1.1104 12.5048 5.28363 1.43275
87 1 -1.1104 12.1647 10.8063 0.969845
88 1 -1.1104 12.5449 11.2577 6.4473
89 2 2.2208 10.954 9.60432 2.51912
90 1 -1.1104 12.2844 11.1331 3.68621
91 1 -1.1104 9.61154 8.08236 1.22764
92 2 2.2208 8.15954 6.94389 2.34393
93 2 2.2208 8.24809 12.5224 2.38801
94 1 -1.1104 9.45278 8.29927 3.93091
95 2 2.2208 8.21023 9.69676 5.25625
96 1 -1.1104 9.63498 5.30971 1.41616
97 1 -1.1104 9.49009 10.9271 1.05239
99 1 -1.1104 9.49724 11.0538 3.90985
256 1 -1.1104 12.6056 7.70439 6.46972
98 1 -1.1104 9.47472 10.9172 6.62529
8131 2 2.2208 10.9149 -4.36212 5.30414
102 2 2.2208 5.21046 18.1175 5.24374
103 1 -1.1104 1.19187 13.7696 1.00576
105 1 -1.1104 1.07029 19.3481 1.08814
109 1 -1.1104 1.09044 13.8803 3.78062
110 1 -1.1104 1.13955 19.5127 3.80846
112 1 -1.1104 0.913668 16.4924 0.882524
115 2 2.2208 5.24897 15.2712 2.29331
116 2 2.2208 5.10263 20.8709 2.44004
117 1 -1.1104 0.961571 16.6997 3.80531
119 1 -1.1104 3.9966 13.8019 0.893524
121 1 -1.1104 3.70704 19.3921 1.09668
123 2 2.2208 2.39554 17.9459 2.40974
124 1 -1.1104 3.94985 13.8122 3.74882
125 1 -1.1104 3.80323 19.4525 3.84395
126 2 2.2208 2.4164 15.3089 5.1832
127 2 2.2208 2.32424 20.8784 5.11949
128 1 -1.1104 3.9041 16.5741 0.870357
130 1 -1.1104 3.73146 16.4985 3.74162
120 1 -1.1104 3.77624 14.0084 6.6874
104 1 -1.1104 1.10995 13.8126 6.48873
129 1 -1.1104 3.87363 16.6773 6.64647
141 1 -1.1104 12.2819 19.4622 6.65564
101 2 2.2208 10.8044 20.7353 8.05557
113 1 -1.1104 1.03587 16.7374 6.57587
8797 2 2.2208 -0.266928 12.5234 5.17818
17321 2 2.2208 -0.265579 -4.27568 10.9364
107 1 -1.1104 6.58691 14.0393 6.60394
134 1 -1.1104 6.62851 19.5624 1.08598
111 1 -1.1104 6.81543 13.828 3.83531
135 1 -1.1104 6.60752 19.4901 3.99365
118 1 -1.1104 6.64398 16.655 3.74162
136 1 -1.1104 6.70817 16.6463 0.971447
106 1 -1.1104 6.71337 13.8861 0.995851
137 2 2.2208 10.9348 18.0771 5.16369
138 1 -1.1104 12.4504 13.8262 1.09785
140 1 -1.1104 12.4116 19.422 1.09476
142 1 -1.1104 12.5489 13.8354 3.76844
143 1 -1.1104 12.346 19.4206 3.72867
144 1 -1.1104 12.3565 16.6957 1.04719
146 2 2.2208 11.0002 15.303 2.36774
147 2 2.2208 10.9636 20.8133 2.48934
148 1 -1.1104 12.3697 16.6528 3.8092
149 1 -1.1104 9.63255 13.9274 1.02102
151 1 -1.1104 9.50248 19.4123 1.08109
153 2 2.2208 8.1503 17.9988 2.50396
154 1 -1.1104 9.71342 13.9205 3.87873
155 1 -1.1104 9.43204 19.3352 3.84708
156 2 2.2208 8.24616 15.2651 5.16319
157 2 2.2208 8.04111 20.8766 5.17713
158 1 -1.1104 9.45695 16.6377 1.11115
160 1 -1.1104 9.60854 16.6195 3.76181
114 1 -1.1104 6.77738 16.8295 6.48343
152 1 -1.1104 9.47869 19.4332 6.64523
108 1 -1.1104 6.62335 19.5231 6.57739
139 1 -1.1104 12.3065 13.9324 6.49604
168 1 -1.1104 3.95077 -2.98803 6.70709
8726 2 2.2208 -0.12248 9.6471 8.09902
307 2 2.2208 -0.325874 15.1999 13.5933
173 2 2.2208 5.38938 1.24461 10.8373
174 1 -1.1104 1.21623 -2.76536 12.287
175 1 -1.1104 1.17694 2.89982 12.1569
178 1 -1.1104 1.16926 -3.01801 9.58313
179 1 -1.1104 1.13441 2.79367 9.51844
182 1 -1.1104 1.20441 -0.0761977 12.2604
184 2 2.2208 5.37111 -1.59902 8.09445
185 2 2.2208 5.41913 3.91744 7.9545
186 1 -1.1104 1.3324 -0.15673 9.4151
188 1 -1.1104 4.00007 -3.1587 12.295
189 1 -1.1104 3.9355 2.7873 12.049
190 2 2.2208 2.52985 1.25592 8.09372
191 1 -1.1104 3.91339 -2.87985 9.48746
192 1 -1.1104 4.00169 2.62558 9.3067
193 2 2.2208 2.73077 -1.57918 10.8424
194 2 2.2208 2.6047 4.19641 10.7876
195 1 -1.1104 3.98499 -0.133842 12.1709
196 1 -1.1104 4.16275 -0.14009 9.46901
8524 2 2.2208 -0.141562 -1.61437 8.01199
183 1 -1.1104 6.79645 -0.153104 12.234
324 2 2.2208 -0.18339 6.93227 5.21209
562 2 2.2208 5.23069 9.81481 13.7042
8499 2 2.2208 -0.214372 1.38234 10.7685
320 2 2.2208 -0.292095 9.69051 13.6304
167 1 -1.1104 6.73793 -0.159258 6.53363
299 2 2.2208 -0.24418 18.2118 10.7714
49 2 2.2208 13.6163 9.56983 10.838
206 1 -1.1104 9.6468 -0.114758 6.66755
177 1 -1.1104 6.56127 2.66572 12.2326
180 1 -1.1104 6.67287 -2.85186 9.47615
176 1 -1.1104 6.83995 -2.84798 12.1786
187 1 -1.1104 6.8888 -0.089498 9.44312
181 1 -1.1104 6.94426 2.81435 9.43185
207 2 2.2208 11.1397 1.10726 11.0718
208 1 -1.1104 12.1812 -2.97069 12.1452
209 1 -1.1104 12.3037 2.59341 12.4983
210 1 -1.1104 12.3085 -2.95846 9.46831
211 1 -1.1104 12.4014 2.31618 9.56878
212 1 -1.1104 12.4905 -0.0949757 12.2808
213 2 2.2208 10.9836 -1.50337 8.11514
214 1 -1.1104 12.424 -0.209499 9.41175
215 1 -1.1104 9.50976 -2.9491 12.1367
216 1 -1.1104 9.50576 2.54837 12.0226
217 2 2.2208 8.21437 1.26149 7.95491
218 1 -1.1104 9.59843 -3.02561 9.41752
220 2 2.2208 8.10071 -1.55062 10.8456
222 1 -1.1104 9.62156 -0.217504 12.2648
223 1 -1.1104 9.66426 0.101336 9.51752
221 2 2.2208 8.1422 4.06545 10.9833
35 1 -1.1104 12.1594 19.4112 12.2977
132 1 -1.1104 12.4141 16.5813 9.36212
622 2 2.2208 5.41072 6.86248 -0.450985
61 1 -1.1104 1.14823 10.9298 6.69117
159 1 -1.1104 9.69659 16.6494 6.71047
229 1 -1.1104 1.16008 5.41315 6.6875
232 2 2.2208 5.28088 6.9391 10.9406
233 2 2.2208 5.21309 12.6174 10.8216
234 1 -1.1104 1.02477 8.42946 12.1634
236 1 -1.1104 1.12746 8.18935 9.34737
238 1 -1.1104 1.04177 5.57393 12.2311
239 1 -1.1104 1.06884 11.2471 12.0926
242 2 2.2208 5.45729 9.69665 7.98751
243 1 -1.1104 1.29401 5.55211 9.35027
244 1 -1.1104 1.11318 11.1943 9.42087
246 1 -1.1104 3.80836 8.43377 12.3951
247 2 2.2208 2.77072 6.99148 7.96449
248 2 2.2208 2.53767 12.5515 7.85573
249 1 -1.1104 3.91797 8.24738 9.49526
250 2 2.2208 2.56538 9.701 10.7088
251 1 -1.1104 3.83405 5.61649 12.1882
252 1 -1.1104 3.79279 11.1201 12.2423
253 1 -1.1104 4.25766 5.45313 9.2482
254 1 -1.1104 3.88268 11.0411 9.4741
245 1 -1.1104 6.66351 11.2806 9.44205
235 1 -1.1104 6.62705 8.47845 12.3809
237 1 -1.1104 6.75103 8.34807 9.70604
240 1 -1.1104 6.63286 5.4625 11.7936
64 1 -1.1104 6.68143 11.1893 6.6737
259 1 -1.1104 6.82955 5.29646 6.73332
277 1 -1.1104 6.61603 13.9836 9.44268
241 1 -1.1104 6.61647 11.0752 12.2569
255 1 -1.1104 9.38093 11.0959 9.45073
258 1 -1.1104 9.37759 5.30765 9.65892
260 1 -1.1104 9.56458 11.0135 12.3184
261 1 -1.1104 9.42131 5.3654 12.5027
262 2 2.2208 8.03055 9.72643 10.7652
263 2 2.2208 8.16207 12.4273 8.05224
264 2 2.2208 10.928 6.63967 10.6951
265 2 2.2208 10.8237 12.385 10.7956
266 1 -1.1104 12.1542 8.105 12.3462
267 1 -1.1104 12.382 8.04325 9.55857
268 1 -1.1104 12.3947 5.35574 12.3389
269 1 -1.1104 12.2698 10.8873 12.3791
270 1 -1.1104 12.5279 5.37932 9.50747
271 1 -1.1104 12.5282 11.1566 9.72944
272 1 -1.1104 9.39412 8.16897 11.8132
311 2 2.2208 2.47739 12.5689 13.5619
328 2 2.2208 -0.362032 20.8663 13.5677
8787 2 2.2208 -0.293478 9.73215 2.50554
52 1 -1.1104 12.3359 19.3546 9.51397
315 2 2.2208 5.32933 15.2923 13.6309
122 1 -1.1104 3.76965 19.3456 6.69946
289 1 -1.1104 0.931375 19.4697 6.56341
8692 2 2.2208 -0.376447 15.2722 2.40907
316 2 2.2208 10.7065 20.8361 13.6894
302 2 2.2208 13.5782 9.39125 5.32163
226 1 -1.1104 9.49821 16.5328 12.2763
273 1 -1.1104 3.71234 19.4808 12.2479
274 1 -1.1104 3.94772 13.934 12.2659
278 1 -1.1104 1.08405 19.5505 9.36124
279 1 -1.1104 0.981682 16.6731 9.25559
280 2 2.2208 5.33019 20.8854 8.0511
281 1 -1.1104 0.952846 13.8623 9.39062
282 2 2.2208 5.24744 15.3384 7.966
285 1 -1.1104 1.00727 19.5423 12.0895
286 1 -1.1104 1.09992 13.9985 12.2935
287 2 2.2208 5.35132 18.1751 10.9051
288 1 -1.1104 3.97877 19.5256 9.59546
290 2 2.2208 2.41094 18.1356 8.05474
291 1 -1.1104 3.91888 16.7103 9.4383
292 1 -1.1104 3.77971 14.033 9.53006
294 1 -1.1104 0.873577 16.7061 12.078
295 1 -1.1104 3.70892 16.6602 12.2118
296 2 2.2208 2.52853 20.8913 10.7413
297 2 2.2208 2.45511 15.3433 10.7802
276 1 -1.1104 6.80572 16.7372 9.67275
284 1 -1.1104 6.68232 13.8729 12.295
30 1 -1.1104 12.2826 13.7018 12.2424
80 1 -1.1104 12.287 16.5305 12.1938
198 1 -1.1104 9.34339 13.7948 9.51701
293 1 -1.1104 6.57489 16.6173 12.2801
200 2 2.2208 8.05898 15.2089 10.9292
145 1 -1.1104 12.3871 16.6904 6.49925
150 1 -1.1104 9.4424 13.8064 6.58221
301 1 -1.1104 9.60213 16.5135 9.60504
275 1 -1.1104 6.72814 19.4704 9.51119
81 2 2.2208 10.9078 15.1381 7.93822
133 1 -1.1104 9.51286 13.7559 12.248
161 1 -1.1104 9.30793 19.453 12.1884
171 2 2.2208 8.13533 17.9352 8.04593
283 1 -1.1104 6.63177 19.5031 12.3351
205 2 2.2208 8.09714 20.7966 10.8218
29 2 2.2208 10.9665 17.8616 10.8008
51 1 -1.1104 12.2141 13.8 9.45412
326 2 2.2208 5.20623 20.8504 13.6821
8848 2 2.2208 -0.343058 1.2215 -0.391618
322 2 2.2208 -0.237642 4.06154 8.02044
318 2 2.2208 8.11086 17.9851 13.6385
557 2 2.2208 5.16056 1.30601 -0.396904
9023 2 2.2208 -0.289415 12.5885 -0.325871
371 2 2.2208 2.46111 1.42575 13.6265
587 2 2.2208 10.9486 1.25081 -0.381372
404 2 2.2208 10.8263 -1.64164 13.6244
303 2 2.2208 8.11801 15.2038 -0.344838
321 2 2.2208 2.5536 9.63018 -0.408014
8887 2 2.2208 -0.327077 4.12884 13.5536
558 2 2.2208 2.45315 -1.69974 -0.347099
466 2 2.2208 8.09381 9.63549 -0.404493
372 2 2.2208 5.23582 4.09883 13.5856
559 2 2.2208 2.53905 4.02699 -0.299197
330 2 2.2208 5.15342 1.44636 16.4843
331 1 -1.1104 1.18941 -2.8626 17.8953
332 1 -1.1104 1.03444 2.76793 17.9478
335 1 -1.1104 1.13465 -2.80508 15.1296
337 1 -1.1104 1.03001 2.65071 15.0014
343 1 -1.1104 1.07069 -0.029444 17.8098
345 2 2.2208 5.26503 -1.53186 19.2106
346 2 2.2208 5.18207 4.00458 19.3931
347 1 -1.1104 1.19716 -0.100795 15.0977
351 1 -1.1104 3.86661 -2.79656 17.7278
352 1 -1.1104 3.88743 2.73275 17.9007
353 2 2.2208 2.43261 1.27955 19.4091
354 1 -1.1104 3.91848 -2.98061 15.033
356 1 -1.1104 3.88469 2.68292 14.9225
358 2 2.2208 2.40957 -1.45294 16.4675
359 2 2.2208 2.5179 4.1061 16.4876
360 1 -1.1104 3.81264 -0.0624519 17.8932
361 1 -1.1104 3.84592 -0.0625887 15.0236
357 1 -1.1104 3.82068 2.56233 20.654
338 1 -1.1104 1.0834 2.78525 20.6861
8891 2 2.2208 -0.195413 -1.55654 19.2536
336 1 -1.1104 1.24298 -3.01779 20.7996
312 2 2.2208 10.8201 9.61809 13.5766
348 1 -1.1104 1.1017 -0.0474907 20.6379
362 1 -1.1104 3.8417 -0.25211 20.6129
355 1 -1.1104 4.03671 -3.00217 20.6542
370 2 2.2208 5.37163 -1.48171 13.6556
366 2 2.2208 13.5886 6.99295 19.3649
8470 2 2.2208 2.57347 -4.30364 19.298
304 2 2.2208 10.7741 18.1042 27.6913
564 2 2.2208 13.5072 18.0603 24.7619
350 1 -1.1104 6.70397 -0.265762 20.6619
8472 2 2.2208 10.7615 -4.28284 16.415
334 1 -1.1104 6.67697 2.60697 17.9541
339 1 -1.1104 6.68248 -2.8828 14.9886
344 1 -1.1104 6.78091 -0.258828 18.0191
333 1 -1.1104 6.75249 -2.91711 17.7813
349 1 -1.1104 6.67535 0.059675 14.9058
341 1 -1.1104 6.68316 2.78401 15.1117
373 2 2.2208 10.9573 1.25254 16.5192
374 1 -1.1104 12.2038 -3.03825 17.8757
375 1 -1.1104 12.2872 2.6534 17.944
376 1 -1.1104 12.184 -2.88705 14.968
378 1 -1.1104 12.4047 2.57014 15.2031
380 1 -1.1104 12.2635 -0.247373 17.9139
381 2 2.2208 10.96 -1.52706 19.3733
382 2 2.2208 10.8741 4.09093 19.2216
383 1 -1.1104 12.2576 -0.169596 15.0603
385 1 -1.1104 9.48329 -2.82209 17.8468
386 1 -1.1104 9.57701 2.67986 17.8823
387 2 2.2208 8.22192 1.14877 19.3839
388 1 -1.1104 9.4808 -2.91005 14.9583
390 1 -1.1104 9.65668 2.5356 14.8803
392 2 2.2208 8.06599 -1.45599 16.4624
393 2 2.2208 8.08198 3.96158 16.4128
394 1 -1.1104 9.60278 -0.132874 17.7101
395 1 -1.1104 9.46623 -0.329425 14.9781
384 1 -1.1104 12.4099 -0.159079 20.628
389 1 -1.1104 9.58357 -2.88376 20.6871
377 1 -1.1104 12.3248 -2.92777 20.7144
391 1 -1.1104 9.5436 2.80197 20.7018
340 1 -1.1104 6.77517 -2.99323 20.7455
342 1 -1.1104 6.6708 2.57539 20.7352
396 1 -1.1104 9.571 -0.0628138 20.7206
379 1 -1.1104 12.2999 2.48493 20.5977
8885 2 2.2208 -0.392267 15.202 24.8484
406 2 2.2208 5.28375 6.8952 16.4758
407 2 2.2208 5.33834 12.5435 16.4517
408 1 -1.1104 1.13014 8.34802 17.9425
410 1 -1.1104 0.960792 8.35179 15.0025
414 1 -1.1104 1.00259 5.52819 17.8133
415 1 -1.1104 1.04791 11.1725 17.7522
418 2 2.2208 5.37257 9.71831 19.2203
419 1 -1.1104 0.97709 5.4559 15.0229
421 1 -1.1104 1.14404 11.2828 15.0014
427 1 -1.1104 3.93081 8.22714 17.886
428 2 2.2208 2.50822 6.92218 19.3332
429 2 2.2208 2.61058 12.3861 19.3137
430 1 -1.1104 3.88043 8.38516 15.1908
432 2 2.2208 2.58719 9.74009 16.4966
433 1 -1.1104 3.88216 5.48893 17.9721
434 1 -1.1104 3.8373 11.0528 17.9001
435 1 -1.1104 3.67886 5.64261 15.0986
437 1 -1.1104 3.84096 11.2026 15.0671
438 1 -1.1104 3.91384 10.9092 20.7536
436 1 -1.1104 3.89454 5.41581 20.8163
422 1 -1.1104 1.14667 10.9438 20.635
411 1 -1.1104 1.0143 8.18897 20.7548
441 2 2.2208 2.46782 20.8786 27.6997
563 2 2.2208 13.6462 20.833 16.3179
8886 2 2.2208 13.6349 6.80839 24.9668
9142 2 2.2208 -0.349307 6.83869 16.5177
310 2 2.2208 10.998 12.3739 27.6206
591 2 2.2208 -0.335076 9.70707 19.2275
425 1 -1.1104 6.72596 11.058 15.0766
423 1 -1.1104 6.52401 5.47265 14.7593
417 1 -1.1104 6.62165 11.1756 18.0175
409 1 -1.1104 6.76243 8.20296 17.8056
412 1 -1.1104 6.90195 8.31836 15.1732
416 1 -1.1104 6.75253 5.31437 17.7661
442 2 2.2208 10.8991 6.8162 16.5616
443 2 2.2208 10.9262 12.4794 16.4799
444 1 -1.1104 12.1888 8.19156 17.9287
445 1 -1.1104 12.4151 8.09176 15.322
447 1 -1.1104 12.3348 5.36615 17.9096
448 1 -1.1104 12.3884 10.9627 18.0326
449 2 2.2208 10.8339 9.59255 19.2718
450 1 -1.1104 12.281 5.33606 15.1644
452 1 -1.1104 12.2583 11.0792 15.2073
454 1 -1.1104 9.4635 8.29818 17.9425
455 2 2.2208 8.08243 6.88283 19.1976
456 2 2.2208 8.07091 12.5424 19.2575
457 1 -1.1104 9.65224 8.148 14.8524
459 2 2.2208 8.12645 9.71877 16.4957
460 1 -1.1104 9.46878 5.59404 17.9143
461 1 -1.1104 9.41967 11.0616 17.9135
462 1 -1.1104 9.49861 5.31568 15.0819
464 1 -1.1104 9.56039 10.9625 15.1516
424 1 -1.1104 6.67624 5.31016 20.6572
446 1 -1.1104 12.2554 8.30358 20.7289
463 1 -1.1104 9.42111 5.5686 20.6627
453 1 -1.1104 12.2781 10.954 20.7931
413 1 -1.1104 6.58927 8.33323 20.6506
458 1 -1.1104 9.43106 8.22684 20.742
465 1 -1.1104 9.47231 11.0525 20.6777
451 1 -1.1104 12.1732 5.47899 20.72
224 2 2.2208 8.05288 20.8272 27.7062
399 2 2.2208 -0.148572 15.0941 19.2913
482 1 -1.1104 0.637628 16.6079 17.7784
469 2 2.2208 5.20434 17.9805 16.5101
470 1 -1.1104 1.1715 13.8954 17.8195
471 1 -1.1104 0.948209 19.4275 17.7898
474 1 -1.1104 0.969512 13.8566 15.0462
476 1 -1.1104 1.10983 19.4322 15.0465
484 2 2.2208 5.16759 15.2397 19.2026
485 2 2.2208 5.238 20.8011 19.424
486 1 -1.1104 1.05764 16.6677 14.9333
490 1 -1.1104 3.97266 13.915 17.8579
491 1 -1.1104 3.81394 19.4811 17.9255
492 2 2.2208 2.43775 18.1209 19.3204
493 1 -1.1104 3.95983 13.9463 15.0148
495 1 -1.1104 3.7578 19.4404 15.0753
497 2 2.2208 2.32173 15.3282 16.3043
498 2 2.2208 2.35824 20.8159 16.4692
499 1 -1.1104 3.63838 16.6304 17.8993
500 1 -1.1104 3.821 16.6384 14.9798
487 1 -1.1104 0.870415 16.6513 20.6673
483 1 -1.1104 6.53168 16.6837 17.7887
480 1 -1.1104 6.48551 19.4047 14.957
488 1 -1.1104 6.57333 16.6317 15.071
494 1 -1.1104 3.86899 13.7124 20.7489
496 1 -1.1104 3.74577 19.4017 20.6495
477 1 -1.1104 0.963206 19.3619 20.6939
475 1 -1.1104 1.17341 13.8208 20.6634
503 2 2.2208 13.7195 4.0886 22.0263
9140 2 2.2208 -0.428285 4.09481 19.2393
478 1 -1.1104 6.67438 13.9014 15.075
472 1 -1.1104 6.6576 13.9797 17.7901
473 1 -1.1104 6.6225 19.4668 18.0086
505 2 2.2208 10.8326 17.9743 16.5272
506 1 -1.1104 12.4069 13.7919 17.9189
507 1 -1.1104 12.3256 19.4372 17.9
508 1 -1.1104 12.4061 13.738 15.0494
510 1 -1.1104 12.2568 19.4912 14.9988
512 1 -1.1104 12.2698 16.5215 17.8023
513 2 2.2208 11.0583 15.245 19.28
514 2 2.2208 10.7729 20.7838 19.2215
515 1 -1.1104 12.3939 16.7166 15.0119
517 1 -1.1104 9.48086 13.7277 17.7982
518 1 -1.1104 9.29538 19.3627 18.0674
519 2 2.2208 8.04139 17.9985 19.3989
520 1 -1.1104 9.58938 13.7998 14.9972
522 1 -1.1104 9.40759 19.4476 15.1189
524 2 2.2208 8.0694 15.2646 16.4296
525 2 2.2208 7.80324 20.6651 16.5584
526 1 -1.1104 9.46271 16.4999 17.8856
527 1 -1.1104 9.39372 16.5971 15.1187
516 1 -1.1104 12.4096 16.6048 20.5119
528 1 -1.1104 9.64409 16.5078 20.5606
652 1 -1.1104 9.48596 16.691 23.2479
566 2 2.2208 10.8668 15.3526 24.8094
440 2 2.2208 5.2867 18.011 27.5967
597 1 -1.1104 9.5992 13.853 26.3574
9022 2 2.2208 -0.303089 9.81373 24.8739
9018 2 2.2208 -0.305076 20.7656 19.1967
568 1 -1.1104 12.1685 16.6971 26.2133
589 2 2.2208 13.6674 20.9271 21.9912
8849 2 2.2208 -0.312012 -1.63999 24.9891
8921 2 2.2208 -0.211685 3.96935 24.8359
533 2 2.2208 5.341 1.15646 22.0733
534 1 -1.1104 1.08022 -2.96311 23.6159
535 1 -1.1104 1.15258 2.54682 23.5704
538 1 -1.1104 1.12902 -2.99594 26.3256
539 1 -1.1104 1.13041 2.74117 26.3003
542 1 -1.1104 1.11102 -0.188064 23.5069
544 2 2.2208 5.38184 -1.68994 24.9842
545 2 2.2208 5.31568 4.00325 24.8995
546 1 -1.1104 0.894581 -0.247487 26.2694
548 1 -1.1104 3.8109 -2.91554 23.5608
549 1 -1.1104 3.95219 2.61473 23.4922
550 2 2.2208 2.51662 1.23385 24.8857
551 1 -1.1104 4.06397 -3.02076 26.2034
552 1 -1.1104 3.8745 2.70548 26.2917
553 2 2.2208 2.48393 -1.60769 22.0605
554 2 2.2208 2.46436 4.04284 22.0571
555 1 -1.1104 3.94812 -0.236906 23.4836
556 1 -1.1104 3.83899 -0.12187 26.2534
509 1 -1.1104 12.4288 13.8083 20.6452
8845 2 2.2208 13.6743 1.20867 19.1765
400 2 2.2208 11.0217 4.0688 13.7533
594 1 -1.1104 9.31579 19.4886 23.4246
8851 2 2.2208 -0.351323 1.28617 21.9993
541 1 -1.1104 6.62894 2.5765 26.2555
547 1 -1.1104 6.74221 -0.345833 26.2579
543 1 -1.1104 6.73517 -0.182018 23.4618
537 1 -1.1104 6.80362 2.54207 23.3973
536 1 -1.1104 6.80017 -3.0278 23.5403
540 1 -1.1104 6.82096 -3.06832 26.3554
569 2 2.2208 10.902 1.20577 22.102
570 1 -1.1104 12.5343 -3.04945 23.3938
571 1 -1.1104 12.4201 2.90107 23.4279
572 1 -1.1104 12.3851 -2.8507 26.2391
573 1 -1.1104 12.4352 2.59982 26.239
574 1 -1.1104 12.3735 -0.00784305 23.4961
575 2 2.2208 10.9566 -1.51378 24.8122
576 2 2.2208 10.9894 4.01482 24.9036
577 1 -1.1104 12.3545 -0.0763676 26.2489
578 1 -1.1104 9.71442 -2.83497 23.3133
579 1 -1.1104 9.43858 2.67503 23.5392
580 2 2.2208 8.13009 1.18335 24.8104
581 1 -1.1104 9.63063 -2.97382 26.0807
582 1 -1.1104 9.56157 2.75114 26.384
583 2 2.2208 8.22005 -1.59787 22.0093
584 2 2.2208 8.07071 4.08907 22.0316
585 1 -1.1104 9.59347 -0.090762 23.5822
586 1 -1.1104 9.46128 -0.220261 26.3361
523 1 -1.1104 9.52256 19.4468 20.8133
560 1 -1.1104 12.4387 13.9678 26.2166
401 1 -1.1104 12.3285 13.6691 23.276
309 2 2.2208 5.35531 12.4477 27.6263
431 1 -1.1104 3.90089 8.15556 20.6613
420 1 -1.1104 0.988623 5.47059 20.6446
529 1 -1.1104 6.67708 16.5681 23.544
598 2 2.2208 5.40973 6.81461 22.1007
599 2 2.2208 5.32299 12.4789 22.0714
600 1 -1.1104 1.1047 8.31603 23.3139
602 1 -1.1104 1.09202 8.33087 26.1155
604 1 -1.1104 1.30013 5.27379 23.4971
605 1 -1.1104 1.1657 11.0573 23.4388
608 2 2.2208 5.27798 9.61127 24.8847
609 1 -1.1104 1.15876 5.48859 26.2638
610 1 -1.1104 1.13483 11.2024 26.3265
613 1 -1.1104 3.90661 8.18127 23.4746
614 2 2.2208 2.50976 6.76815 24.8228
615 2 2.2208 2.44101 12.4663 24.9222
616 1 -1.1104 3.89975 8.14079 26.372
617 2 2.2208 2.56774 9.57409 22.0194
618 1 -1.1104 4.12058 5.40811 23.5283
619 1 -1.1104 4.05567 11.0616 23.4312
620 1 -1.1104 3.94696 5.38415 26.3302
621 1 -1.1104 3.85825 11.0122 26.2155
405 2 2.2208 2.50934 15.1797 27.5276
397 2 2.2208 11.0318 17.9832 22.0058
565 1 -1.1104 12.3056 16.4136 23.3045
369 1 -1.1104 9.54108 16.5853 26.2617
511 1 -1.1104 12.2705 19.4641 20.5095
426 1 -1.1104 6.65701 11.0623 20.6592
595 2 2.2208 8.08637 17.9278 24.894
607 1 -1.1104 6.71572 11.0684 23.4991
601 1 -1.1104 6.78913 8.27799 23.4233
603 1 -1.1104 6.76778 8.2149 26.1669
606 1 -1.1104 6.72111 5.48119 23.4991
611 1 -1.1104 6.88 5.36493 26.1858
612 1 -1.1104 6.58727 11.0405 26.3111
629 1 -1.1104 9.52571 10.95 26.2856
630 1 -1.1104 9.61305 5.51596 26.3383
631 1 -1.1104 9.51918 11.1407 23.4961
632 1 -1.1104 9.55762 5.42253 23.4605
633 2 2.2208 8.06684 9.78981 22.0845
634 1 -1.1104 9.50312 8.19876 26.2645
635 2 2.2208 8.1328 12.5444 24.8709
636 2 2.2208 8.12146 6.71886 24.9115
637 2 2.2208 10.7676 6.91701 22.1325
638 2 2.2208 10.8355 12.3761 21.9999
639 1 -1.1104 12.2254 8.18408 23.5753
640 1 -1.1104 12.3936 8.30879 26.2224
641 1 -1.1104 12.3049 5.61909 23.5412
642 1 -1.1104 12.3291 10.9557 23.4831
643 2 2.2208 10.8933 9.65272 24.8175
644 1 -1.1104 12.3402 5.35307 26.4776
645 1 -1.1104 12.2949 11.0702 26.2552
646 1 -1.1104 9.43132 8.17274 23.4353
561 1 -1.1104 12.1813 19.538 26.2959
656 1 -1.1104 6.65693 16.5453 26.3186
489 1 -1.1104 6.58597 16.6759 20.552
8844 2 2.2208 -0.350383 18.0517 22.2978
501 1 -1.1104 3.8091 16.5352 20.6798
8843 2 2.2208 -0.261428 20.8933 24.9081
467 2 2.2208 2.51232 15.267 22.1407
468 2 2.2208 2.45291 20.8928 22.0754
502 1 -1.1104 3.91407 16.5225 23.3482
504 1 -1.1104 0.989754 16.6588 23.4687
530 1 -1.1104 3.86469 13.7702 26.2102
531 1 -1.1104 3.82871 16.6612 26.1147
532 2 2.2208 2.37318 18.183 24.8136
592 1 -1.1104 3.99007 19.5771 26.2875
623 2 2.2208 5.16098 18.054 22.1531
624 1 -1.1104 1.07714 13.9068 23.3585
647 2 2.2208 5.42137 20.7946 24.8821
648 1 -1.1104 1.16866 19.4884 23.519
651 2 2.2208 5.11017 15.2002 24.875
653 1 -1.1104 3.95683 19.453 23.5066
655 1 -1.1104 3.96677 13.8398 23.5155
657 1 -1.1104 1.21617 19.3485 26.434
658 1 -1.1104 0.99096 16.7541 26.2759
659 1 -1.1104 1.2379 14.0083 26.1279
660 1 -1.1104 6.68149 19.254 23.5018
654 1 -1.1104 6.81099 13.8125 26.1953
649 1 -1.1104 6.75313 13.727 23.3058
402 1 -1.1104 12.2516 19.5311 23.382
628 2 2.2208 8.02267 20.8205 22.0543
521 1 -1.1104 9.51187 13.8265 20.6587
479 1 -1.1104 6.75752 14.0304 20.5193
481 1 -1.1104 6.58696 19.4048 20.7588
626 2 2.2208 8.04001 15.2435 21.992
596 1 -1.1104 6.7128 19.4134 26.434
590 1 -1.1104 9.60055 13.868 23.4779
625 1 -1.1104 9.45443 19.4474 26.2838
567 2 2.2208 10.7537 20.9098 24.8478
306 2 2.2208 13.6754 6.8565 13.8077
329 2 2.2208 10.9475 6.87853 27.6782
588 2 2.2208 8.0382 -1.55504 27.6336
439 2 2.2208 2.34665 6.95363 13.6611
403 2 2.2208 8.17791 1.18834 13.6645
82 2 2.2208 8.16178 6.9029 13.7373
327 2 2.2208 8.19227 4.02097 27.7093
8798 2 2.2208 -0.255235 6.73971 27.6303
317 2 2.2208 10.9135 15.1385 13.608
661 2 2.2208 5.21586 23.7094 5.2183
662 2 2.2208 5.26187 29.2613 5.1288
663 1 -1.1104 1.16477 25.0481 0.961477
664 1 -1.1104 1.03419 25.0069 3.86552
665 1 -1.1104 1.06902 22.2973 0.894178
666 1 -1.1104 1.03419 27.8439 0.907649
667 2 2.2208 5.31773 26.4475 2.46253
668 1 -1.1104 0.915561 22.2714 3.74477
669 1 -1.1104 1.15761 27.9325 3.74979
670 1 -1.1104 3.97244 25.0644 0.942442
671 2 2.2208 2.54614 23.6638 2.29642
672 2 2.2208 2.46615 29.3229 2.41764
673 1 -1.1104 3.88183 25.371 3.95608
674 2 2.2208 2.48779 26.4911 5.29568
675 1 -1.1104 3.93682 22.2882 0.953819
676 1 -1.1104 3.80543 27.8801 1.07802
677 1 -1.1104 3.68252 22.3361 3.77632
678 1 -1.1104 3.9324 28.0115 3.85561
1302 1 -1.1104 6.71948 47.527 3.81359
810 1 -1.1104 3.81252 27.8398 6.56933
808 1 -1.1104 3.92773 24.9312 6.66453
9332 2 2.2208 -0.336797 29.2863 10.8576
1477 1 -1.1104 6.65618 47.4475 6.45415
9466 2 2.2208 -0.338866 43.317 2.42438
684 1 -1.1104 6.70744 22.2008 1.02926
686 1 -1.1104 6.52712 22.1078 3.88539
683 1 -1.1104 6.67982 24.994 3.81584
682 1 -1.1104 6.73812 24.9069 0.910665
685 1 -1.1104 6.76 27.688 1.13383
687 1 -1.1104 6.65056 27.9461 3.8297
688 2 2.2208 10.8617 23.628 5.26913
689 2 2.2208 10.8768 29.3072 5.25264
690 1 -1.1104 12.2649 25.1149 0.979035
691 1 -1.1104 12.3384 25.1079 3.80032
692 1 -1.1104 12.3269 22.2719 0.853977
693 1 -1.1104 12.467 27.8912 1.0077
694 2 2.2208 10.8443 26.3253 2.38188
695 1 -1.1104 12.3094 22.2317 3.7428
696 1 -1.1104 12.136 27.8033 3.77994
697 1 -1.1104 9.43158 25.0562 0.989189
698 2 2.2208 8.12941 23.5901 2.38162
699 2 2.2208 8.10741 29.2726 2.39588
700 1 -1.1104 9.60315 24.8774 3.76884
701 2 2.2208 7.99983 26.4718 5.1575
702 1 -1.1104 9.49712 22.2171 1.04877
703 1 -1.1104 9.50212 27.8329 1.02041
704 1 -1.1104 9.53257 22.1984 3.79732
705 1 -1.1104 9.47878 27.7447 3.74594
835 1 -1.1104 12.3345 25.0041 6.67485
840 1 -1.1104 9.42545 27.9128 6.51256
803 1 -1.1104 6.65214 25.1194 6.58193
1482 1 -1.1104 6.74395 47.4759 12.0326
838 1 -1.1104 9.42987 25.0877 6.52093
1087 2 2.2208 8.08301 34.8676 13.6287
1173 2 2.2208 5.3832 23.6725 -0.410897
709 2 2.2208 5.24842 34.8857 5.13762
710 1 -1.1104 1.09731 30.6396 0.905029
711 1 -1.1104 1.11295 36.2606 1.05008
713 1 -1.1104 1.09416 30.7807 3.77918
714 1 -1.1104 0.99153 36.2132 3.70747
716 1 -1.1104 1.06043 33.4806 0.868741
717 2 2.2208 5.27572 32.0512 2.44356
718 2 2.2208 5.2537 37.6864 2.34385
719 1 -1.1104 1.01045 33.4669 3.71747
721 1 -1.1104 3.83374 30.7577 1.05999
722 1 -1.1104 3.91448 36.1984 0.831044
723 2 2.2208 2.45025 34.9109 2.29578
724 1 -1.1104 3.8871 30.7209 3.85605
725 1 -1.1104 3.95081 36.2672 3.72621
726 2 2.2208 2.4153 32.0672 5.21351
727 2 2.2208 2.38378 37.7628 5.06673
728 1 -1.1104 3.76265 33.4267 0.936979
729 1 -1.1104 3.83341 33.4688 3.71208
865 1 -1.1104 3.92942 30.6483 6.57425
863 1 -1.1104 1.03737 33.4993 6.60925
720 1 -1.1104 6.60441 33.4824 3.75387
733 1 -1.1104 6.46351 30.6252 0.962535
712 1 -1.1104 6.82633 36.0703 1.01085
866 1 -1.1104 3.73046 36.3485 6.51
867 1 -1.1104 3.83376 33.5282 6.45494
862 1 -1.1104 6.66756 36.2859 6.6024
715 1 -1.1104 6.75932 36.3035 3.82288
734 1 -1.1104 6.80187 30.7411 3.66765
735 1 -1.1104 6.66369 33.375 1.05227
736 2 2.2208 10.7984 34.871 5.27387
737 1 -1.1104 12.3656 30.663 1.07343
738 1 -1.1104 12.2698 36.2532 1.10328
739 1 -1.1104 12.3652 30.6586 3.86026
740 1 -1.1104 12.1584 36.3701 3.90772
741 1 -1.1104 12.4551 33.3693 1.06393
742 2 2.2208 10.9927 32.0846 2.45776
743 2 2.2208 10.834 37.7259 2.49309
744 1 -1.1104 12.1677 33.5006 3.80072
745 1 -1.1104 9.28926 30.584 1.08027
746 1 -1.1104 9.53799 36.3997 1.01904
747 2 2.2208 8.07889 34.8665 2.46208
748 1 -1.1104 9.52481 30.7035 3.78224
749 1 -1.1104 9.38649 36.1917 3.91553
750 2 2.2208 8.0144 32.1832 5.23677
751 2 2.2208 8.10425 37.6317 5.17666
752 1 -1.1104 9.61456 33.4434 0.958165
753 1 -1.1104 9.44438 33.4445 3.90613
861 1 -1.1104 6.67799 30.6689 6.64498
895 1 -1.1104 12.2943 33.2696 6.76036
894 1 -1.1104 12.293 36.1384 6.64428
9352 2 2.2208 13.6754 34.7853 8.03305
9199 2 2.2208 13.5606 37.6462 5.35453
779 1 -1.1104 12.2789 38.884 12.1803
996 2 2.2208 5.25033 26.3056 13.6215
755 2 2.2208 5.27156 40.4768 5.04442
756 2 2.2208 5.30257 46.1681 5.14345
757 1 -1.1104 1.02157 41.7956 0.952262
759 1 -1.1104 1.12874 41.8644 3.87154
761 1 -1.1104 1.02032 38.9254 0.976976
762 1 -1.1104 1.04871 44.8227 1.17474
765 2 2.2208 5.47705 43.2118 2.37864
766 1 -1.1104 0.965361 39.1202 3.64772
767 1 -1.1104 1.12399 44.6616 3.93913
770 1 -1.1104 3.88879 41.9239 0.923694