ITEM: TIMESTEP
100000
ITEM: NUMBER OF ATOMS
17640
ITEM: BOX BOUNDS pp pp pp
-4.3579939543119178e-01 2.7775799395431903e+01
-5.1384469337424994e+00 3.3321844693373765e+02
-4.4057806659723830e-01 2.7780578066597499e+01
ITEM: ATOMS id type q x y z
1 2 2.2208 5.25537 0.576701 5.38061
2 1 -1.1104 1.26489 -3.81082 0.764603
6 1 -1.1104 1.20315 -3.9137 4.11162
10 1 -1.1104 0.940787 -1.04519 1.13999
12 2 2.2208 5.40398 -2.08381 2.31885
14 1 -1.1104 1.08538 -1.02617 3.81243
16 1 -1.1104 3.82272 -3.62684 0.914657
18 2 2.2208 2.46047 0.457043 2.50138
19 1 -1.1104 3.66987 -3.51717 3.58361
21 2 2.2208 2.48919 -2.27396 5.18969
23 1 -1.1104 3.93628 -0.871968 1.04997
24 1 -1.1104 3.83298 -0.827705 4.04026
4 1 -1.1104 6.8341 -3.79046 1.08466
15 1 -1.1104 6.86723 -0.673661 3.78543
166 1 -1.1104 0.892934 -3.80883 6.80547
11 1 -1.1104 6.80645 -0.751633 1.13434
170 1 -1.1104 1.01978 -0.987086 6.6557
168 1 -1.1104 6.51475 -3.76639 6.71988
677 2 2.2208 5.2418 20.3286 13.4669
335 2 2.2208 5.33346 14.6747 13.6627
9090 2 2.2208 -0.303576 11.7748 10.923
671 2 2.2208 11.0924 0.676791 -0.355232
9087 2 2.2208 -0.329416 3.1944 2.3344
8 1 -1.1104 6.74386 -3.58747 3.94843
52 2 2.2208 13.6051 17.2854 2.04811
8742 2 2.2208 10.9371 -4.99517 -0.445804
31 2 2.2208 11.0826 0.529884 5.24754
32 1 -1.1104 12.2247 -3.46824 0.895511
34 1 -1.1104 12.4003 -3.70508 3.86282
36 1 -1.1104 12.2785 -0.753319 0.928036
37 2 2.2208 11.1422 -2.10362 2.59443
39 1 -1.1104 12.3449 -0.701992 3.96347
40 1 -1.1104 9.70552 -3.55222 0.965371
42 2 2.2208 8.39847 0.478412 2.45024
43 1 -1.1104 9.56243 -3.47068 3.89231
45 2 2.2208 8.20831 -2.09907 5.29564
47 1 -1.1104 9.59536 -0.835929 0.831542
48 1 -1.1104 9.72595 -0.857151 3.84648
207 1 -1.1104 12.1722 -0.964481 6.55021
202 2 2.2208 2.47708 -5.10084 8.20825
9092 2 2.2208 -0.216477 -2.46793 2.4831
210 1 -1.1104 9.47447 -0.707865 6.57283
3 1 -1.1104 1.29127 1.87166 0.90333
7 1 -1.1104 1.16741 1.79193 3.85017
13 2 2.2208 5.25382 3.23473 2.58365
17 1 -1.1104 4.03131 1.86878 1.01472
20 1 -1.1104 3.86732 1.98206 3.84214
22 2 2.2208 2.62195 3.4 5.27938
54 2 2.2208 5.39537 6.24957 4.9862
56 1 -1.1104 1.13414 7.54351 1.06385
58 1 -1.1104 0.982212 7.45856 3.6178
60 1 -1.1104 0.894903 4.62451 1.06229
67 1 -1.1104 1.26908 4.6771 3.9352
72 2 2.2208 2.42012 6.12881 2.34035
76 1 -1.1104 3.70889 4.69552 0.898235
79 1 -1.1104 3.89067 4.66665 3.72119
74 1 -1.1104 3.94273 7.78017 3.89655
173 1 -1.1104 3.86647 1.93948 6.77553
71 1 -1.1104 3.81385 7.53852 1.05519
57 1 -1.1104 6.84169 7.55969 1.05837
69 1 -1.1104 6.70501 4.80892 3.61306
63 1 -1.1104 6.65515 4.734 0.89407
5 1 -1.1104 6.74042 1.87519 1.23227
239 1 -1.1104 3.73814 4.61555 6.6281
9101 2 2.2208 -0.275567 14.5115 8.02461
9103 2 2.2208 -0.288353 20.1337 8.03195
59 1 -1.1104 6.73571 7.55566 3.89848
9 1 -1.1104 6.68546 2.10848 3.90644
169 1 -1.1104 6.85006 2.06671 6.54099
33 1 -1.1104 12.5039 2.1403 0.914043
35 1 -1.1104 12.3973 2.13253 3.73905
38 2 2.2208 11.0167 3.54394 2.30002
41 1 -1.1104 9.57617 1.99395 0.918955
44 1 -1.1104 9.61729 1.91966 3.79872
46 2 2.2208 8.2741 3.33197 5.09347
84 2 2.2208 11.0461 6.11837 5.20502
86 1 -1.1104 12.1271 7.46064 1.06522
88 1 -1.1104 12.2526 4.88399 0.782973
92 1 -1.1104 12.4726 4.84477 3.80771
95 2 2.2208 8.07511 6.26838 2.42076
99 1 -1.1104 9.59187 4.90606 0.841392
102 1 -1.1104 9.44602 4.74444 3.51533
94 1 -1.1104 9.44375 7.50873 0.82789
97 1 -1.1104 9.6502 7.64345 3.76254
87 1 -1.1104 12.503 7.36842 3.90276
206 1 -1.1104 12.3985 2.01331 6.52052
267 1 -1.1104 9.51171 7.59971 6.38734
317 2 2.2208 8.07974 17.4819 13.5825
8409 2 2.2208 2.63937 -4.95578 2.30702
8413 2 2.2208 10.9862 -4.86244 5.23685
331 2 2.2208 10.7906 8.80367 13.5259
9112 2 2.2208 -0.182703 3.33098 13.5795
55 2 2.2208 5.13546 11.7483 5.10828
61 1 -1.1104 0.766151 10.4314 1.05869
66 2 2.2208 5.28513 8.85666 2.41122
68 1 -1.1104 1.055 10.252 4.05792
73 2 2.2208 2.41104 11.7684 2.3521
75 2 2.2208 2.48527 9.04567 5.33755
77 1 -1.1104 3.75819 10.2391 0.828898
80 1 -1.1104 3.82856 10.3392 3.57156
107 1 -1.1104 0.828708 13.2728 1.02514
113 1 -1.1104 0.828898 13.1073 3.83499
123 1 -1.1104 3.70319 13.0692 1.01367
128 1 -1.1104 3.73352 13.2768 3.68218
70 1 -1.1104 6.83024 10.278 3.79586
115 1 -1.1104 6.42052 13.0667 3.59713
64 1 -1.1104 6.57974 10.3067 1.06201
110 1 -1.1104 6.44337 13.3092 0.866916
9104 2 2.2208 -0.401089 0.525548 10.8627
85 2 2.2208 10.8407 11.8607 5.15094
89 1 -1.1104 12.0947 10.1615 0.646961
91 2 2.2208 10.7537 8.972 2.39799
93 1 -1.1104 12.521 10.2712 3.68119
96 2 2.2208 8.03475 11.7307 2.26328
98 2 2.2208 8.06727 9.11161 5.12389
100 1 -1.1104 9.3714 10.2799 0.916842
103 1 -1.1104 9.58144 10.5503 3.58033
142 1 -1.1104 12.1614 13.2984 0.77086
146 1 -1.1104 12.1266 13.0764 3.61725
153 1 -1.1104 9.17034 13.0116 0.675236
158 1 -1.1104 9.29304 13.2857 3.37927
374 2 2.2208 10.8288 20.3267 13.5828
9094 2 2.2208 -0.278468 6.00204 5.10372
90 1 -1.1104 12.2886 10.5016 6.51384
101 1 -1.1104 9.47537 10.4427 6.47626
154 1 -1.1104 9.34602 13.1252 6.47717
9095 2 2.2208 -0.441824 8.86284 2.30429
130 2 2.2208 2.31479 14.3082 5.2129
106 2 2.2208 5.05221 17.2248 5.14096
109 1 -1.1104 0.865269 18.9067 1.07829
114 1 -1.1104 1.02367 18.8442 3.94437
116 1 -1.1104 0.827153 16.0797 0.921136
119 2 2.2208 5.20653 14.6732 2.33992
120 2 2.2208 5.05079 20.0536 2.24078
121 1 -1.1104 0.952924 15.992 3.64637
125 1 -1.1104 3.69544 18.742 0.937187
127 2 2.2208 2.29669 17.3393 2.46931
129 1 -1.1104 3.84439 18.7188 3.73731
131 2 2.2208 2.56399 20.1954 5.11759
132 1 -1.1104 3.75929 15.9382 1.03477
134 1 -1.1104 3.51858 16.1274 3.90137
140 1 -1.1104 6.57902 15.9884 0.859903
138 1 -1.1104 6.51509 18.871 0.963288
139 1 -1.1104 6.44292 18.8543 3.65073
122 1 -1.1104 6.63219 16.0056 3.75398
126 1 -1.1104 3.87943 18.9149 6.4522
133 1 -1.1104 4.01863 15.8633 6.67785
9088 2 2.2208 -0.360656 6.12421 10.8417
8416 2 2.2208 11.1448 -5.09753 11.0016
156 1 -1.1104 9.22818 18.9329 6.61529
160 2 2.2208 8.02704 14.4505 5.06982
150 2 2.2208 10.9022 14.4287 2.21341
141 2 2.2208 10.8874 17.2339 5.00183
144 1 -1.1104 12.2269 18.759 0.838893
147 1 -1.1104 12.3381 18.6504 3.44694
148 1 -1.1104 12.1421 16.029 0.771115
151 2 2.2208 10.6142 20.0784 2.33992
152 1 -1.1104 12.3033 15.8389 3.66619
155 1 -1.1104 9.25212 18.6096 1.12359
157 2 2.2208 7.81638 17.3393 2.38005
159 1 -1.1104 9.33753 18.7976 4.10561
161 2 2.2208 8.03647 20.2883 5.18026
162 1 -1.1104 9.23789 15.8302 0.93446
164 1 -1.1104 9.65985 15.7041 3.96211
9091 2 2.2208 -0.287539 0.302421 5.20315
9100 2 2.2208 -0.281286 -2.48143 8.18616
670 2 2.2208 8.3245 -2.01145 -0.424173
149 1 -1.1104 12.2946 15.8304 6.5925
163 1 -1.1104 9.3852 16.2501 6.56818
172 1 -1.1104 3.79785 -3.72651 6.54413
174 1 -1.1104 3.92664 -1.17182 6.78491
175 2 2.2208 5.37045 0.427427 10.7449
176 1 -1.1104 1.10638 -3.79014 12.5076
180 1 -1.1104 1.15242 -3.81425 9.71066
184 1 -1.1104 1.24087 -0.954283 12.4636
186 2 2.2208 5.417 -2.2987 8.13165
188 1 -1.1104 0.889483 -0.976039 9.49753
190 1 -1.1104 3.89612 -3.78666 12.3289
192 2 2.2208 2.38501 0.583631 8.05568
193 1 -1.1104 3.92308 -3.69274 9.46463
195 2 2.2208 2.63805 -2.21065 10.8374
197 1 -1.1104 4.03062 -0.860786 12.2733
198 1 -1.1104 3.8982 -0.82578 9.5736
178 1 -1.1104 6.82753 -3.94143 12.3987
185 1 -1.1104 6.57564 -1.12358 12.1218
182 1 -1.1104 6.66038 -3.71655 9.53325
204 1 -1.1104 9.35998 16.0003 9.39726
679 2 2.2208 10.6424 17.1297 -0.419301
325 2 2.2208 11.0303 -2.26783 13.5476
308 2 2.2208 13.6668 11.9271 7.92461
205 1 -1.1104 12.5063 -3.59491 6.55517
208 1 -1.1104 9.57505 -3.55578 6.85675
8801 2 2.2208 -0.348329 -5.04559 10.9697
8410 2 2.2208 5.34059 -5.11236 5.23291
171 1 -1.1104 6.7773 -0.830426 6.64118
189 1 -1.1104 6.84353 -0.840137 9.25419
8411 2 2.2208 8.30916 -4.885 2.51673
211 2 2.2208 11.0492 0.521704 10.7112
212 1 -1.1104 12.4282 -3.61587 12.4004
214 1 -1.1104 12.5707 -3.69725 9.43862
216 1 -1.1104 12.4256 -0.768184 12.3023
217 2 2.2208 10.8343 -2.14315 8.01133
219 1 -1.1104 12.4677 -0.957367 9.42084
220 1 -1.1104 9.5319 -3.73159 12.1081
222 2 2.2208 8.1816 0.670109 7.99505
223 1 -1.1104 9.57697 -3.71528 9.51805
225 2 2.2208 8.01344 -2.32396 10.9001
227 1 -1.1104 9.47211 -0.826681 12.2224
228 1 -1.1104 9.55697 -0.80386 9.50189
200 2 2.2208 7.95211 20.2705 10.8408
8466 2 2.2208 5.33283 -5.04286 -0.366551
235 1 -1.1104 6.63101 7.56429 6.49149
167 1 -1.1104 0.849967 1.83586 6.55425
238 1 -1.1104 3.86007 7.51793 6.73891
234 1 -1.1104 1.04668 7.57416 6.36657
236 1 -1.1104 0.963859 4.69252 6.54383
177 1 -1.1104 0.98726 1.96056 11.9489
181 1 -1.1104 1.22967 1.98416 9.41386
187 2 2.2208 5.44303 3.32735 8.00041
191 1 -1.1104 3.68298 2.05177 12.3251
194 1 -1.1104 4.09822 1.85363 9.32014
196 2 2.2208 2.52712 3.50721 10.8117
240 2 2.2208 5.42389 6.04571 10.8717
246 1 -1.1104 1.06318 4.7501 12.2324
251 1 -1.1104 0.930087 4.53298 9.35948
256 2 2.2208 2.4942 5.90178 8.04292
258 1 -1.1104 3.75743 7.67733 9.29413
260 1 -1.1104 3.9555 4.65644 12.2929
262 1 -1.1104 3.95476 4.77142 9.40726
242 1 -1.1104 1.06559 7.68691 12.2729
255 1 -1.1104 3.83437 7.38082 12.118
179 1 -1.1104 6.58976 1.60137 12.1015
248 1 -1.1104 6.77183 4.49397 12.3194
244 1 -1.1104 0.967295 7.26349 9.24702
237 1 -1.1104 6.71084 4.72314 6.57269
266 1 -1.1104 12.4865 4.8378 6.5692
269 1 -1.1104 9.5764 4.76977 6.55
165 1 -1.1104 9.5703 18.7281 9.65099
9099 2 2.2208 -0.346017 3.14744 7.96398
245 1 -1.1104 6.72214 7.37882 9.48914
243 1 -1.1104 6.58595 7.3049 12.2798
183 1 -1.1104 6.81553 2.07432 9.44381
253 1 -1.1104 6.87809 4.66806 9.44323
265 1 -1.1104 12.2785 7.59325 6.67263
209 1 -1.1104 9.69892 1.98326 6.59239
145 1 -1.1104 12.3322 18.4573 6.31563
213 1 -1.1104 12.2467 1.98291 12.0445
215 1 -1.1104 12.5305 1.86933 9.30118
218 2 2.2208 11.0468 3.40968 8.02548
221 1 -1.1104 9.37844 1.9933 12.2428
224 1 -1.1104 9.60437 1.95876 9.34623
226 2 2.2208 8.07217 3.28339 10.7694
268 1 -1.1104 9.63202 4.78606 9.41259
271 1 -1.1104 9.52563 4.62813 12.2838
275 2 2.2208 8.1453 6.14606 8.10281
276 2 2.2208 10.9481 6.17554 10.9154
279 1 -1.1104 12.3648 7.58273 9.66008
280 1 -1.1104 12.3971 4.72909 12.142
283 1 -1.1104 12.3582 4.80201 9.20429
273 1 -1.1104 9.5704 7.63414 9.25335
278 1 -1.1104 12.313 7.51274 12.3763
285 1 -1.1104 9.32162 7.56665 12.108
78 1 -1.1104 3.92941 10.2165 6.43601
108 1 -1.1104 0.990566 12.9165 6.51153
62 1 -1.1104 0.955569 10.302 6.74995
124 1 -1.1104 3.72597 13.0596 6.66588
65 1 -1.1104 6.60727 10.3059 6.52646
241 2 2.2208 5.38998 11.863 10.8699
247 1 -1.1104 0.860282 10.3958 12.4837
250 2 2.2208 5.23698 8.87729 8.13172
252 1 -1.1104 1.08539 10.2617 9.47212
257 2 2.2208 2.4384 11.6903 8.01188
259 2 2.2208 2.55473 8.82616 10.8521
261 1 -1.1104 3.71829 10.1563 12.2558
263 1 -1.1104 3.92494 10.3733 9.56123
287 1 -1.1104 3.79285 13.399 12.1613
294 1 -1.1104 0.941974 13.0488 9.27082
299 1 -1.1104 0.853903 13.179 12.3157
305 1 -1.1104 3.75198 12.9727 9.45642
254 1 -1.1104 6.66069 10.1546 9.45745
290 1 -1.1104 6.57889 13.1208 9.40783
249 1 -1.1104 6.71527 10.4762 12.2587
111 1 -1.1104 6.53934 13.1444 6.56812
297 1 -1.1104 6.77606 13.3641 12.231
143 1 -1.1104 12.0928 13.2248 6.43637
326 2 2.2208 10.8904 3.2272 13.592
264 1 -1.1104 9.48197 10.4724 9.17885
270 1 -1.1104 9.68448 10.38 12.0151
272 2 2.2208 8.15333 8.92317 10.8386
274 2 2.2208 7.99461 11.6753 8.03333
277 2 2.2208 11.0106 11.792 10.7165
281 1 -1.1104 12.4181 10.2829 12.2288
282 2 2.2208 10.8244 8.98447 7.76289
284 1 -1.1104 12.4419 10.4193 9.21108
27 1 -1.1104 12.4634 13.2268 11.9517
49 1 -1.1104 12.327 13.1856 9.25358
104 1 -1.1104 9.49501 13.1859 12.2534
137 1 -1.1104 9.45898 13.3985 9.37533
81 2 2.2208 10.8817 14.4865 8.04538
112 1 -1.1104 6.46021 18.5977 6.46098
117 1 -1.1104 1.12777 15.6082 6.45625
118 1 -1.1104 6.71044 15.7283 6.50029
302 1 -1.1104 1.21278 18.4423 6.52615
296 1 -1.1104 6.61155 19.0348 12.4183
288 1 -1.1104 6.48856 18.7127 9.5166
289 1 -1.1104 6.32313 16.1906 9.21486
229 2 2.2208 2.46781 14.5781 10.8456
295 2 2.2208 5.25635 14.4974 8.05817
136 1 -1.1104 1.16376 16.0771 11.9912
230 2 2.2208 2.37128 20.1336 10.912
233 1 -1.1104 4.07238 16.1386 12.2983
286 1 -1.1104 3.79269 18.8511 12.1492
291 1 -1.1104 1.10585 18.5654 9.17011
292 1 -1.1104 1.16549 15.8417 9.3414
293 2 2.2208 5.12511 20.2505 7.92632
298 1 -1.1104 0.850957 18.8988 11.8833
300 2 2.2208 5.13035 17.4315 10.8804
301 1 -1.1104 3.75294 18.8632 9.37913
303 2 2.2208 2.55093 17.1811 7.91892
304 1 -1.1104 3.54059 16.0189 9.67307
25 1 -1.1104 6.98738 16.1929 12.0832
135 2 2.2208 7.89075 17.3973 7.98557
9113 2 2.2208 -0.400336 14.5297 13.563
50 1 -1.1104 12.366 18.79 9.22166
30 1 -1.1104 12.3312 18.9564 12.1266
26 2 2.2208 11.0077 17.5561 10.6699
83 1 -1.1104 12.1676 15.9314 9.31872
105 1 -1.1104 9.68543 18.8142 12.2384
53 1 -1.1104 12.3726 15.8311 12.251
199 2 2.2208 8.25623 14.6985 10.9567
201 1 -1.1104 9.58853 16.1693 12.1575
82 2 2.2208 10.8503 20.1845 8.12481
8417 2 2.2208 13.6519 -5.0431 2.45027
313 2 2.2208 13.553 11.7849 2.22662
9102 2 2.2208 -0.313893 17.4265 10.7373
676 2 2.2208 5.21576 0.496098 -0.417899
669 2 2.2208 8.07064 3.20473 -0.407238
666 2 2.2208 5.40934 5.93461 -0.43486
324 2 2.2208 8.1026 0.47429 13.5699
678 2 2.2208 7.97446 20.1328 -0.360867
674 2 2.2208 2.47928 3.29679 -0.402574
330 2 2.2208 7.97776 6.11108 13.5794
665 2 2.2208 2.48381 8.82328 -0.408802
320 2 2.2208 5.43311 -2.36193 13.6469
337 2 2.2208 5.49862 0.633125 16.4388
338 1 -1.1104 1.12561 -3.65259 17.8393
342 1 -1.1104 1.11276 -3.56411 15.1875
350 1 -1.1104 1.08845 -1.22444 17.835
352 2 2.2208 5.20416 -2.38329 19.4326
354 1 -1.1104 1.08887 -0.914366 15.1527
358 1 -1.1104 3.99241 -3.89087 17.9148
360 2 2.2208 2.38167 0.364629 19.1569
361 1 -1.1104 4.33428 -3.81494 15.1231
365 2 2.2208 2.67459 -2.2768 16.4749
367 1 -1.1104 3.91538 -1.17497 18.0898
368 1 -1.1104 3.96548 -0.997708 15.1215
351 1 -1.1104 6.55351 -0.820749 17.9666
356 1 -1.1104 6.59179 -0.805497 14.9356
340 1 -1.1104 6.65969 -3.77772 18.2095
346 1 -1.1104 6.92476 -3.75141 15.3175
357 1 -1.1104 6.43294 -1.08633 20.6711
347 1 -1.1104 6.58872 -3.69851 20.936
9447 2 2.2208 -0.288026 11.8748 27.6568
355 1 -1.1104 0.908438 -1.13943 20.8052
380 2 2.2208 10.7989 0.536379 16.5978
381 1 -1.1104 12.2405 -3.61992 17.9867
383 1 -1.1104 12.336 -3.5838 15.2128
387 1 -1.1104 12.2003 -0.971092 17.9894
388 2 2.2208 10.8157 -2.20095 19.4168
390 1 -1.1104 12.3365 -0.68255 15.1373
392 1 -1.1104 9.39729 -3.82549 18.0424
394 2 2.2208 8.20374 0.550566 19.3574
395 1 -1.1104 9.55756 -3.72228 15.2329
399 2 2.2208 7.98315 -2.43027 16.7454
401 1 -1.1104 9.28446 -0.775259 17.9104
402 1 -1.1104 9.26962 -0.86265 15.1701
530 1 -1.1104 9.30912 18.6934 20.8434
384 1 -1.1104 12.36 -3.96717 20.7777
403 1 -1.1104 9.31841 -0.81495 20.8439
405 2 2.2208 13.6326 14.6769 27.6685
9467 2 2.2208 -0.318537 -2.27101 25.0987
664 2 2.2208 5.11272 11.8013 27.6211
9466 2 2.2208 -0.376878 14.6021 25.0134
598 2 2.2208 8.06858 17.1126 25.0575
339 1 -1.1104 0.992668 1.77698 17.7556
344 1 -1.1104 0.961427 1.7591 14.9154
353 2 2.2208 5.2944 3.27533 19.4233
359 1 -1.1104 3.82933 1.98408 17.7447
363 1 -1.1104 3.60947 1.97092 15.1267
366 2 2.2208 2.36859 3.24832 16.5386
413 2 2.2208 5.02177 6.18906 16.6006
421 1 -1.1104 1.07512 4.69879 17.9823
426 1 -1.1104 1.20749 4.75277 15.1194
435 2 2.2208 2.39667 6.27016 19.3469
437 1 -1.1104 3.96809 7.52512 15.2433
440 1 -1.1104 3.91485 4.72105 18.0176
442 1 -1.1104 4.02526 4.73553 15.1041
417 1 -1.1104 1.05987 7.58538 15.1953
434 1 -1.1104 3.64441 7.50691 17.9426
415 1 -1.1104 0.73787 7.52619 18.015
430 1 -1.1104 6.77413 4.74283 15.1261
341 1 -1.1104 6.80539 1.86552 17.7021
416 1 -1.1104 6.61093 7.49712 17.9579
348 1 -1.1104 6.43486 2.04339 14.9447
423 1 -1.1104 6.77509 4.63457 17.89
419 1 -1.1104 6.71361 7.76669 15.0095
431 1 -1.1104 6.68304 4.93918 20.8204
9470 2 2.2208 -0.330832 3.42973 25.0739
680 2 2.2208 7.96738 14.4919 27.6196
382 1 -1.1104 12.1892 1.93658 17.9583
385 1 -1.1104 12.4362 2.03464 14.9064
389 2 2.2208 10.9386 3.49082 19.2638
393 1 -1.1104 9.55034 1.91055 17.9797
397 1 -1.1104 9.374 1.9165 15.034
400 2 2.2208 8.03243 3.40889 16.4647
449 2 2.2208 10.8393 6.08405 16.3016
454 1 -1.1104 12.3099 4.72771 17.6688
457 1 -1.1104 12.3905 4.64702 14.7958
461 1 -1.1104 9.51096 7.60615 17.9339
462 2 2.2208 8.19643 6.23436 19.3401
464 1 -1.1104 9.36999 7.4899 15.152
467 1 -1.1104 9.56482 4.8478 17.8787
469 1 -1.1104 9.51601 4.7813 15.0526
452 1 -1.1104 12.2088 7.62434 14.8355
451 1 -1.1104 12.3438 7.53044 17.4915
675 2 2.2208 2.48644 -2.28727 27.7312
458 1 -1.1104 12.3163 5.0256 20.6303
386 1 -1.1104 12.3989 1.90529 20.7098
414 2 2.2208 5.13618 11.8561 16.5617
422 1 -1.1104 1.12025 10.2812 18.0608
425 2 2.2208 4.96274 8.99192 19.3704
428 1 -1.1104 1.02129 10.3476 15.2056
436 2 2.2208 2.051 11.9108 19.4952
439 2 2.2208 2.35189 9.04564 16.5471
441 1 -1.1104 3.67208 10.2729 17.8328
444 1 -1.1104 3.90539 10.3661 14.9364
477 1 -1.1104 0.874608 13.0133 17.8166
481 1 -1.1104 0.862979 13.1809 15.2857
497 1 -1.1104 3.67337 13.1803 17.8969
500 1 -1.1104 3.59046 13.1835 15.1866
424 1 -1.1104 6.29619 10.2212 17.9135
432 1 -1.1104 6.53119 10.5315 15.3703
479 1 -1.1104 6.49733 13.1899 17.8197
485 1 -1.1104 6.51183 13.3061 15.0155
649 2 2.2208 13.6272 14.5344 22.0894
9439 2 2.2208 -0.399907 6.22921 22.1709
567 1 -1.1104 12.3511 15.8236 23.4337
333 2 2.2208 2.54783 17.301 13.7663
450 2 2.2208 10.7917 11.6773 16.389
455 1 -1.1104 12.1261 10.3471 17.8004
456 2 2.2208 10.9259 9.04351 19.2438
459 1 -1.1104 12.3554 10.4275 14.9251
463 2 2.2208 7.9179 11.8722 19.2414
466 2 2.2208 8.08815 8.87446 16.6724
468 1 -1.1104 9.48355 10.3094 17.8124
471 1 -1.1104 9.60512 10.3034 15.033
513 1 -1.1104 12.0448 13.1303 17.9129
515 1 -1.1104 12.2142 13.0829 15.082
524 1 -1.1104 9.06032 12.8582 17.7149
527 1 -1.1104 9.40447 13.2728 14.964
321 2 2.2208 2.55858 0.351618 13.8109
8744 2 2.2208 10.9951 -5.09299 16.6989
448 1 -1.1104 6.43208 18.7623 23.4017
491 2 2.2208 5.22928 14.6686 19.3597
504 2 2.2208 2.25828 14.4982 16.4574
476 2 2.2208 5.2856 17.5845 16.4423
478 1 -1.1104 0.677713 18.8306 17.6108
483 1 -1.1104 1.04471 18.8281 14.7424
489 1 -1.1104 0.912721 15.9704 17.8547
492 2 2.2208 5.0799 20.1123 19.3107
493 1 -1.1104 0.979058 15.8448 14.8448
498 1 -1.1104 3.53856 18.7031 17.904
499 2 2.2208 2.20466 17.3415 19.2833
502 1 -1.1104 3.86011 18.6835 14.9561
505 2 2.2208 2.36237 20.1403 16.4202
506 1 -1.1104 3.69809 15.7756 17.922
507 1 -1.1104 3.69953 16.0045 15.2086
495 1 -1.1104 6.53234 16.1418 14.9141
480 1 -1.1104 6.5346 18.8211 17.9659
490 1 -1.1104 6.79874 16.0788 17.7365
503 1 -1.1104 3.59329 18.7875 20.7484
487 1 -1.1104 6.58005 18.9418 15.1101
596 1 -1.1104 9.30155 18.7051 23.6545
496 1 -1.1104 6.58202 16.0514 20.7998
652 2 2.2208 13.6037 8.90397 16.3683
600 2 2.2208 8.24008 -5.02095 25.1399
655 2 2.2208 13.6526 11.8355 19.198
531 2 2.2208 8.02175 14.5125 16.3617
520 2 2.2208 10.7073 14.4008 19.1649
512 2 2.2208 10.6387 17.513 16.3413
514 1 -1.1104 12.119 18.7245 17.8132
517 1 -1.1104 12.0958 18.7386 15.1125
519 1 -1.1104 12.2608 15.7008 17.8316
521 2 2.2208 10.965 20.2428 19.2293
522 1 -1.1104 12.2443 16.0363 15.009
525 1 -1.1104 9.38962 18.5531 17.8219
526 2 2.2208 7.85896 17.4408 19.3152
529 1 -1.1104 9.2773 18.995 15.0829
532 2 2.2208 7.92194 20.2438 16.3776
533 1 -1.1104 9.43429 15.743 17.8952
534 1 -1.1104 9.3954 16.0819 15.1488
518 1 -1.1104 12.0727 18.7263 20.6797
523 1 -1.1104 12.1032 16.0582 20.5714
648 2 2.2208 13.5833 17.3856 24.8024
535 1 -1.1104 9.31569 15.9093 20.7265
681 2 2.2208 2.24543 20.1169 27.7748
650 2 2.2208 13.669 3.37422 16.311
659 2 2.2208 13.5416 20.403 16.3881
9457 2 2.2208 -0.383156 3.35043 19.4499
343 1 -1.1104 0.84021 -3.76068 20.6793
369 1 -1.1104 3.73169 -0.901495 20.876
362 1 -1.1104 3.68547 -3.64581 20.72
540 2 2.2208 5.1311 0.412829 22.2487
541 1 -1.1104 1.07738 -3.59576 23.4617
545 1 -1.1104 1.18902 -3.58833 26.2768
549 1 -1.1104 1.1062 -0.795795 23.3564
551 2 2.2208 5.44463 -2.36703 24.9416
553 1 -1.1104 0.906067 -0.79836 26.2869
555 1 -1.1104 3.99507 -3.61392 23.7675
557 2 2.2208 2.26312 0.436649 24.8701
558 1 -1.1104 4.11481 -3.66644 26.4159
560 2 2.2208 2.38224 -2.17709 22.1448
562 1 -1.1104 3.79012 -1.03678 23.6224
563 1 -1.1104 3.81484 -0.629832 26.4735
554 1 -1.1104 6.74441 -0.922583 26.4681
543 1 -1.1104 6.70561 -3.65301 23.5454
547 1 -1.1104 6.81138 -3.59014 26.3255
550 1 -1.1104 6.67087 -0.695721 23.6002
9451 2 2.2208 -0.413214 6.01966 16.4449
396 1 -1.1104 9.32308 -3.51614 20.642
630 2 2.2208 7.90179 14.5292 22.0105
538 2 2.2208 10.7149 17.2925 22.0506
632 1 -1.1104 9.6297 15.9524 23.5357
328 2 2.2208 5.18574 9.02831 13.7448
391 1 -1.1104 12.0559 -1.00192 20.7573
635 1 -1.1104 9.33646 15.4801 26.1906
576 2 2.2208 10.8689 0.594478 22.2303
577 1 -1.1104 12.3918 -3.65375 23.7456
579 1 -1.1104 12.4495 -3.58705 26.3951
581 1 -1.1104 12.2622 -1.09754 23.5337
582 2 2.2208 11.1111 -2.25203 25.0704
584 1 -1.1104 12.3823 -0.77487 26.1803
585 1 -1.1104 9.58451 -3.69849 23.7168
587 2 2.2208 7.9233 0.6586 24.9416
588 1 -1.1104 9.54232 -3.56827 26.5104
590 2 2.2208 8.14346 -2.37379 22.2164
592 1 -1.1104 9.51787 -0.981331 23.4874
593 1 -1.1104 9.77981 -0.672075 26.47
657 2 2.2208 13.6494 17.3541 19.1861
364 1 -1.1104 3.93793 1.95526 20.7805
438 1 -1.1104 3.83964 7.47189 20.8976
427 1 -1.1104 1.07251 4.78323 20.8239
349 1 -1.1104 6.66781 1.72257 20.473
420 1 -1.1104 6.53095 7.74489 20.8708
443 1 -1.1104 3.78107 4.84807 20.7216
345 1 -1.1104 1.09438 1.85663 20.546
418 1 -1.1104 1.15727 7.67534 20.8984
546 1 -1.1104 1.05675 1.87559 26.2584
542 1 -1.1104 0.67125 2.05329 23.289
552 2 2.2208 5.0939 3.29714 25.0047
556 1 -1.1104 3.58179 1.78366 23.4075
559 1 -1.1104 3.79199 2.15699 26.4173
561 2 2.2208 2.25084 3.23602 22.0831
605 2 2.2208 5.19601 6.1564 22.106
611 1 -1.1104 1.21862 4.78582 23.6973
616 1 -1.1104 1.15223 4.69487 26.3343
621 2 2.2208 2.51734 6.09161 24.969
625 1 -1.1104 3.88617 4.63879 23.4992
627 1 -1.1104 3.94824 4.7966 26.3503
607 1 -1.1104 0.764616 7.68472 23.3751
620 1 -1.1104 3.66262 7.63451 23.5961
609 1 -1.1104 1.1426 7.53104 26.3394
623 1 -1.1104 3.9434 7.5505 26.3193
618 1 -1.1104 7.0957 4.5724 26.3784
548 1 -1.1104 6.59895 1.64646 26.4288
544 1 -1.1104 6.36219 2.02134 23.2895
613 1 -1.1104 6.60805 4.92605 23.7418
608 1 -1.1104 6.55915 7.62267 23.6284
398 1 -1.1104 9.31543 1.97634 20.7975
453 1 -1.1104 12.3333 7.63938 20.5927
470 1 -1.1104 9.5378 4.62369 20.5549
658 2 2.2208 8.13438 8.91235 27.7731
465 1 -1.1104 9.48439 7.69468 20.6014
647 2 2.2208 13.5534 20.1985 22.2271
578 1 -1.1104 12.2332 1.96317 23.608
580 1 -1.1104 12.3072 1.97684 26.3738
583 2 2.2208 10.7816 3.46143 24.8682
586 1 -1.1104 9.26802 1.89537 23.4056
589 1 -1.1104 9.42531 2.17861 26.1862
591 2 2.2208 7.97755 3.3027 22.1633
575 1 -1.1104 12.2418 4.66217 26.2035
603 1 -1.1104 12.0626 4.78784 23.3392
633 1 -1.1104 12.3669 7.3231 26.2786
634 1 -1.1104 12.3065 7.58888 23.3359
637 1 -1.1104 9.64975 4.78345 26.3283
639 1 -1.1104 9.21661 4.71192 23.4429
643 2 2.2208 8.02765 6.16131 24.9822
644 2 2.2208 10.7106 6.38205 21.987
573 1 -1.1104 9.29706 7.604 23.4822
641 1 -1.1104 9.41268 7.56183 26.1175
501 1 -1.1104 3.78229 13.2478 20.7598
9441 2 2.2208 -0.313912 0.642319 27.7041
610 1 -1.1104 6.85616 7.40383 26.4586
445 1 -1.1104 3.79293 10.4267 20.8606
486 1 -1.1104 6.50386 13.1731 20.7013
482 1 -1.1104 1.06287 13.3286 20.8207
429 1 -1.1104 0.734859 10.5171 20.904
433 1 -1.1104 6.7357 10.5282 20.6547
606 2 2.2208 5.3137 11.7474 22.1289
612 1 -1.1104 0.948843 10.4895 23.5646
615 2 2.2208 5.31836 8.92253 25.0635
617 1 -1.1104 1.19069 10.3375 26.4266
622 2 2.2208 2.45267 11.7417 24.9955
624 2 2.2208 2.41443 9.06111 22.1511
626 1 -1.1104 3.80617 10.3919 23.5167
628 1 -1.1104 3.90888 10.4107 26.2683
379 1 -1.1104 3.78928 13.2353 26.372
410 1 -1.1104 1.16747 13.2875 23.5661
473 1 -1.1104 0.995188 13.1144 26.3558
510 1 -1.1104 3.97186 13.1089 23.4911
511 1 -1.1104 6.60109 13.2492 26.1286
412 1 -1.1104 6.59047 13.1238 23.4025
619 1 -1.1104 6.55749 10.37 26.512
472 1 -1.1104 9.54614 10.5252 20.558
528 1 -1.1104 9.29399 13.1363 20.5862
516 1 -1.1104 12.2408 13.1851 20.5694
9438 2 2.2208 -0.437106 -2.56539 19.2446
614 1 -1.1104 6.70989 10.2504 23.5013
329 2 2.2208 2.4166 11.8025 13.8437
460 1 -1.1104 12.2673 10.3461 20.6815
9464 2 2.2208 -0.313022 -5.03434 22.2376
595 1 -1.1104 9.27894 12.942 23.3191
574 1 -1.1104 12.273 10.2395 26.2768
597 2 2.2208 10.9285 8.94307 24.8545
602 1 -1.1104 12.5208 10.1913 23.4939
636 1 -1.1104 9.36184 10.2365 26.2404
638 1 -1.1104 9.4254 10.2318 23.3988
640 2 2.2208 8.11595 9.0685 22.1327
642 2 2.2208 8.02514 11.6971 24.939
645 2 2.2208 10.6957 11.8283 22.1153
604 1 -1.1104 9.56901 12.9766 26.1932
539 1 -1.1104 12.1787 13.0515 23.4612
565 1 -1.1104 12.3267 12.8924 26.0226
484 1 -1.1104 0.69033 18.6557 20.5727
494 1 -1.1104 1.31927 15.9432 20.5881
508 1 -1.1104 3.8561 16.1171 20.7186
488 1 -1.1104 6.57342 18.837 20.745
378 1 -1.1104 6.69113 15.9336 23.421
446 2 2.2208 5.10584 14.6669 24.8885
537 2 2.2208 2.49728 14.6568 22.0018
475 1 -1.1104 0.854549 18.8547 26.255
536 1 -1.1104 3.4966 18.679 23.4539
474 1 -1.1104 0.977856 16.0976 26.3777
447 2 2.2208 5.1763 20.1809 24.983
375 2 2.2208 2.46407 20.2884 22.087
376 1 -1.1104 3.7011 15.9613 23.7586
377 1 -1.1104 0.966115 16.0114 23.3604
404 1 -1.1104 3.65284 16.1384 26.3064
407 2 2.2208 2.23992 17.3722 24.8591
408 1 -1.1104 3.71955 18.521 26.2143
409 2 2.2208 5.20693 17.36 22.0933
411 1 -1.1104 0.867678 18.7962 23.3457
509 1 -1.1104 6.53015 15.9566 26.2729
601 1 -1.1104 6.56774 18.7982 26.4318
566 1 -1.1104 11.9453 18.4692 26.2005
646 2 2.2208 10.7631 11.5346 27.6427
667 2 2.2208 5.15637 17.2931 27.5243
594 1 -1.1104 12.2776 15.7901 26.249
631 2 2.2208 7.97223 20.2539 22.1278
572 2 2.2208 10.7434 20.0284 25.0271
564 1 -1.1104 12.2084 18.849 23.2778
8743 2 2.2208 11.0489 -5.04247 22.2714
569 2 2.2208 10.9284 14.2753 24.8634
629 1 -1.1104 9.22592 18.4303 26.5954
318 2 2.2208 10.9361 14.6104 13.7236
668 2 2.2208 13.6454 20.1878 27.5987
570 2 2.2208 5.29654 -5.00935 22.3146
663 2 2.2208 10.8896 6.26514 27.6213
9442 2 2.2208 -0.360167 20.3059 24.8225
9452 2 2.2208 -0.164661 8.83434 19.4614
656 2 2.2208 13.5299 14.6303 16.4049
327 2 2.2208 2.52477 6.07277 13.8412
322 2 2.2208 5.00649 3.22644 13.7873
568 2 2.2208 2.24436 14.6136 27.6617
319 2 2.2208 2.51181 -5.04379 13.7616
332 2 2.2208 8.06344 11.8084 13.7209
9108 2 2.2208 -0.376407 -2.39373 13.703
684 2 2.2208 5.2898 23.0465 5.09678
686 1 -1.1104 0.732519 24.3145 0.65996
687 1 -1.1104 0.956353 24.4923 3.65303
688 1 -1.1104 0.836891 21.6327 0.920683
690 2 2.2208 5.07808 25.7766 2.27498
691 1 -1.1104 1.2197 21.7489 3.78807
693 1 -1.1104 3.66185 24.3057 0.903639
694 2 2.2208 2.41542 23.0339 2.31052
696 1 -1.1104 3.9105 24.3461 3.62022
697 2 2.2208 2.40978 25.5683 5.07629
698 1 -1.1104 3.69091 21.4842 0.707577
700 1 -1.1104 3.97389 21.6737 3.76704
706 1 -1.1104 6.78551 24.6797 3.74543
705 1 -1.1104 6.55764 24.3934 0.829882
710 1 -1.1104 6.4169 27.3344 3.75655
699 1 -1.1104 3.74746 27.0694 0.87338
701 1 -1.1104 3.71347 27.1319 3.84008
692 1 -1.1104 0.763092 27.3543 3.61508
689 1 -1.1104 0.875526 27.2052 0.804622
709 1 -1.1104 6.64996 21.6926 3.73141
707 1 -1.1104 6.46289 21.5972 0.832807
825 1 -1.1104 0.939635 24.1024 6.60633
826 1 -1.1104 6.56595 24.4517 6.54101
832 1 -1.1104 3.64782 21.6587 6.53489
828 1 -1.1104 0.672216 26.9177 6.52226
708 1 -1.1104 6.47002 27.1718 0.821046
1012 2 2.2208 13.4317 45.583 7.54975
711 2 2.2208 10.7689 22.8982 5.07573
713 1 -1.1104 12.1545 24.1967 0.849958
714 1 -1.1104 12.2198 24.2053 3.61021
715 1 -1.1104 12.1354 21.5765 0.942161
717 2 2.2208 10.761 25.7425 2.36648
718 1 -1.1104 12.2703 21.538 4.0333
720 1 -1.1104 9.51675 24.2821 0.9549
721 2 2.2208 7.90476 23.0908 2.18507
723 1 -1.1104 9.51448 24.1402 3.79856
724 2 2.2208 7.93122 25.8497 5.27833
725 1 -1.1104 9.35249 21.5719 0.710892
727 1 -1.1104 9.39085 21.5677 3.54743
726 1 -1.1104 9.38916 27.1547 1.15307
716 1 -1.1104 12.2322 27.2738 0.898314
728 1 -1.1104 9.30243 27.2378 4.00582
719 1 -1.1104 12.3594 27.2811 3.64404
863 1 -1.1104 9.06798 27.0492 6.86133
859 1 -1.1104 12.3379 21.4939 6.59789
860 1 -1.1104 12.0078 27.2676 6.34854
1009 1 -1.1104 6.22872 46.8996 9.30335
803 2 2.2208 4.98878 37.112 13.5591
685 2 2.2208 5.12775 28.561 5.28069
695 2 2.2208 2.3433 28.4134 2.48818
733 1 -1.1104 0.883542 30.0694 1.05297
736 1 -1.1104 0.920509 29.8631 3.91905
739 1 -1.1104 0.696534 32.8139 0.755974
740 2 2.2208 5.06824 31.3561 2.34054
742 1 -1.1104 0.800179 32.8392 3.59772
744 1 -1.1104 3.57535 29.9489 1.24043
747 1 -1.1104 3.58669 29.7143 3.87705
749 2 2.2208 2.32997 31.31 5.03594
751 1 -1.1104 3.5281 32.6143 1.26383
752 1 -1.1104 3.77611 32.5691 3.91886
743 1 -1.1104 6.64876 32.8453 3.63126
756 1 -1.1104 6.43632 29.9069 0.919816
758 1 -1.1104 6.44894 32.9511 0.771802
884 1 -1.1104 6.4601 30.2743 6.73894
886 1 -1.1104 0.901858 32.7378 6.37802
833 1 -1.1104 3.48576 27.1709 6.54524
888 1 -1.1104 3.6365 30.2463 6.69199
882 1 -1.1104 0.886255 30.0051 6.63451
757 1 -1.1104 6.5686 30.0532 3.68939
712 2 2.2208 10.731 28.5859 4.91182
722 2 2.2208 8.03121 28.6064 2.31114
760 1 -1.1104 12.2724 30.1726 0.844638
762 1 -1.1104 12.2719 29.9154 3.76278
764 1 -1.1104 12.2131 33.1352 0.662107
765 2 2.2208 10.9834 31.4978 2.2996
767 1 -1.1104 12.1057 32.6661 3.83826
768 1 -1.1104 9.47235 29.9475 0.740679
771 1 -1.1104 9.42301 30.0295 3.58212
773 2 2.2208 7.98776 31.4307 5.15811
775 1 -1.1104 9.4669 32.9011 0.824533
776 1 -1.1104 9.3837 32.6866 3.67396
1013 2 2.2208 7.77658 39.8572 13.5006
824 2 2.2208 7.80316 45.7136 13.4985
916 1 -1.1104 12.0663 30.0844 6.51473
982 2 2.2208 7.6587 45.4517 8.03934
9780 2 2.2208 13.6511 40.1945 13.3752
732 2 2.2208 5.1407 34.3574 5.0244
734 1 -1.1104 0.809185 35.4562 1.05046
737 1 -1.1104 0.822188 35.6093 3.82062
741 2 2.2208 5.17552 37.0878 2.42954
745 1 -1.1104 3.61502 35.7367 0.84329
746 2 2.2208 2.27803 34.2192 2.30153
748 1 -1.1104 3.8116 35.6314 3.71192
750 2 2.2208 1.99215 36.9808 5.15311
778 2 2.2208 5.16736 39.9488 5.30949
784 1 -1.1104 0.83858 38.4357 1.01737
789 1 -1.1104 0.782553 38.316 3.87115
794 2 2.2208 2.29639 39.8421 2.3805
798 1 -1.1104 3.46224 38.3561 0.918474
800 1 -1.1104 3.64961 38.3791 3.86987
791 1 -1.1104 6.38772 38.4912 3.8804