ITEM: TIMESTEP
90000
ITEM: NUMBER OF ATOMS
17640
ITEM: BOX BOUNDS pp pp pp
-4.3721838907970978e-01 2.7777218389080470e+01
-5.3322572695943604e+00 3.3341225726959334e+02
-4.3907817563873536e-01 2.7779078175638777e+01
ITEM: ATOMS id type q x y z
1 2 2.2208 5.4871 0.0931967 5.16052
2 1 -1.1104 1.29243 -3.99031 1.01433
6 1 -1.1104 1.22937 -3.93006 3.70532
10 1 -1.1104 1.23139 -1.29313 0.999688
12 2 2.2208 5.39375 -2.66323 2.42919
14 1 -1.1104 1.07014 -1.2304 3.84318
16 1 -1.1104 4.01584 -3.95403 1.06928
18 2 2.2208 2.48968 0.264017 2.43863
19 1 -1.1104 3.93902 -3.95923 3.93321
21 2 2.2208 2.61927 -2.70936 5.30398
23 1 -1.1104 4.02435 -1.10588 0.947292
24 1 -1.1104 3.90924 -1.14659 3.78905
8410 2 2.2208 5.42985 -5.30208 5.23926
9092 2 2.2208 -0.124079 -2.63967 2.31742
9091 2 2.2208 -0.268271 0.288258 5.40655
172 1 -1.1104 4.05105 -3.91722 6.64805
166 1 -1.1104 1.01641 -4.13188 6.73861
664 2 2.2208 5.38243 11.6301 -0.207088
9086 2 2.2208 -0.218849 20.1235 2.49889
669 2 2.2208 8.46712 2.88686 -0.55638
8466 2 2.2208 5.38872 -5.32004 -0.394716
8 1 -1.1104 6.80985 -4.08442 3.78457
15 1 -1.1104 6.74056 -1.41757 3.95473
11 1 -1.1104 6.90802 -1.38573 1.10177
4 1 -1.1104 6.96223 -4.09405 1.06303
31 2 2.2208 11.0681 0.183274 5.36699
32 1 -1.1104 12.4328 -4.24515 0.963432
34 1 -1.1104 12.5982 -4.26919 4.17505
36 1 -1.1104 12.3648 -1.444 0.94753
37 2 2.2208 11.2969 -2.81291 2.49798
39 1 -1.1104 12.4916 -1.35391 4.09456
40 1 -1.1104 9.79707 -4.09769 1.19722
42 2 2.2208 8.3471 -0.0861656 2.72794
43 1 -1.1104 9.74996 -4.09009 4.12939
45 2 2.2208 8.21627 -2.61293 5.51232
47 1 -1.1104 9.7196 -1.209 1.19631
48 1 -1.1104 9.72766 -1.34077 4.06415
168 1 -1.1104 6.69657 -3.92219 6.64905
112 1 -1.1104 6.73978 18.8914 6.73366
205 1 -1.1104 12.2759 -4.04305 6.85549
207 1 -1.1104 12.1536 -1.09488 7.04101
671 2 2.2208 11.3177 0.161519 -0.32573
306 2 2.2208 13.7246 20.0954 10.8598
3 1 -1.1104 1.13444 1.54331 0.966827
7 1 -1.1104 1.10133 1.52944 4.01604
13 2 2.2208 5.46629 3.09719 2.40632
17 1 -1.1104 4.0818 1.5993 0.914352
20 1 -1.1104 3.97749 1.66317 3.74125
22 2 2.2208 2.5233 2.99186 5.32623
54 2 2.2208 5.49277 5.84007 5.19829
56 1 -1.1104 1.06676 7.23833 1.07705
58 1 -1.1104 1.06519 7.11382 3.91398
60 1 -1.1104 1.35985 4.43545 0.898309
67 1 -1.1104 1.24016 4.32226 3.73628
72 2 2.2208 2.57668 5.90268 2.60739
76 1 -1.1104 4.17335 4.43986 1.24743
79 1 -1.1104 3.9784 4.47898 3.98983
74 1 -1.1104 3.89301 7.52337 4.04043
71 1 -1.1104 3.92512 7.25465 1.24464
9094 2 2.2208 -0.144474 5.8482 5.18885
9087 2 2.2208 -0.252123 2.85147 2.35374
59 1 -1.1104 6.75932 7.0656 3.6513
680 2 2.2208 8.21247 14.2993 -0.463124
238 1 -1.1104 4.12271 7.18079 6.72859
9101 2 2.2208 -0.283782 14.4733 8.22508
679 2 2.2208 11.0132 17.2657 -0.313065
5 1 -1.1104 6.86042 1.51846 0.917364
9 1 -1.1104 6.80436 1.5257 3.95094
69 1 -1.1104 6.93663 4.29306 3.95079
63 1 -1.1104 6.849 4.42449 1.00192
57 1 -1.1104 6.66749 7.51576 1.06229
33 1 -1.1104 12.4507 1.55924 1.34524
35 1 -1.1104 12.4765 1.67784 3.98022
38 2 2.2208 10.912 3.0573 2.42231
41 1 -1.1104 9.62103 1.55173 0.909314
44 1 -1.1104 9.56385 1.54852 3.72637
46 2 2.2208 8.32226 3.12116 5.31521
84 2 2.2208 11.1628 6.08592 5.20602
86 1 -1.1104 12.2735 7.29068 0.901123
88 1 -1.1104 12.594 4.44578 1.16924
92 1 -1.1104 12.5012 4.33138 3.77617
95 2 2.2208 8.12769 5.76094 2.33202
99 1 -1.1104 9.7366 4.47927 0.778318
102 1 -1.1104 9.71433 4.28103 3.71092
94 1 -1.1104 9.56244 7.29745 0.645628
97 1 -1.1104 9.73702 7.14838 3.58505
87 1 -1.1104 12.4637 7.27476 3.81451
9088 2 2.2208 -0.0234553 6.06286 10.962
202 2 2.2208 2.55689 -5.33114 7.96208
9090 2 2.2208 -0.15192 11.7723 10.9712
55 2 2.2208 5.69706 11.3254 5.21791
61 1 -1.1104 1.303 9.95828 0.922206
66 2 2.2208 5.33226 8.7213 2.52167
68 1 -1.1104 1.21945 10.1035 3.85705
73 2 2.2208 2.49365 11.4297 2.48594
75 2 2.2208 2.75219 8.85542 5.40231
77 1 -1.1104 3.99665 10.1899 1.02739
80 1 -1.1104 4.11717 10.2187 3.87995
107 1 -1.1104 1.11964 12.8849 1.03165
113 1 -1.1104 1.26852 13.0416 3.76959
123 1 -1.1104 3.72262 13.1988 1.34158
128 1 -1.1104 3.99631 12.815 3.90622
9103 2 2.2208 -0.015583 19.8956 8.13959
670 2 2.2208 8.39313 -2.57465 -0.272366
9095 2 2.2208 -0.228265 8.73042 2.46747
124 1 -1.1104 4.14409 12.9482 6.6828
9096 2 2.2208 -0.227099 11.6524 5.3802
64 1 -1.1104 6.88307 10.0992 1.14705
70 1 -1.1104 6.98626 9.83233 3.84136
110 1 -1.1104 6.74901 13.0973 0.978661
115 1 -1.1104 6.95219 12.9851 3.91766
85 2 2.2208 11.008 11.3786 5.42406
89 1 -1.1104 12.4759 10.1222 0.842894
91 2 2.2208 11.0877 8.76294 2.40474
93 1 -1.1104 12.4419 10.0247 3.74386
96 2 2.2208 8.34822 11.4803 2.3526
98 2 2.2208 8.23982 8.6187 5.169
100 1 -1.1104 9.64656 10.3025 0.887987
103 1 -1.1104 9.75386 10.0987 3.90497
142 1 -1.1104 12.4058 12.9394 1.31169
146 1 -1.1104 12.4544 12.8231 4.00886
153 1 -1.1104 9.70751 13.1371 0.890941
158 1 -1.1104 9.65826 12.7883 3.86332
646 2 2.2208 11.0217 11.6329 -0.319327
111 1 -1.1104 6.92634 12.7137 6.81786
101 1 -1.1104 9.69992 9.87786 6.74097
666 2 2.2208 5.21539 5.67807 -0.287412
82 2 2.2208 10.9744 20.0603 8.06762
658 2 2.2208 8.05086 8.71407 -0.387579
681 2 2.2208 2.66664 20.1387 -0.422443
130 2 2.2208 2.68297 14.3454 5.13228
106 2 2.2208 5.58517 17.3335 5.20498
109 1 -1.1104 1.15804 18.826 1.20023
114 1 -1.1104 1.16882 18.5795 3.98794
116 1 -1.1104 1.02216 15.9282 1.13853
119 2 2.2208 5.42715 14.3935 2.52754
120 2 2.2208 5.36532 20.1281 2.45908
121 1 -1.1104 1.12462 15.6494 3.9153
125 1 -1.1104 3.87529 18.7876 0.923986
127 2 2.2208 2.37289 17.1598 2.44657
129 1 -1.1104 3.94421 18.4476 4.08313
131 2 2.2208 2.67168 19.8648 5.43509
132 1 -1.1104 3.86612 15.8006 1.0027
134 1 -1.1104 4.11626 15.7787 3.82272
568 2 2.2208 2.44785 14.5195 -0.146545
9097 2 2.2208 -0.108669 14.2749 2.48537
138 1 -1.1104 6.81995 18.6038 1.18662
140 1 -1.1104 6.7952 15.7966 1.05273
126 1 -1.1104 4.0648 18.6288 6.76785
133 1 -1.1104 4.36652 15.8119 6.62309
30 1 -1.1104 12.1785 18.8653 12.466
201 1 -1.1104 9.73142 15.7675 12.4507
122 1 -1.1104 6.81304 15.8295 3.94502
139 1 -1.1104 6.63542 18.8743 4.05286
160 2 2.2208 8.18468 14.3738 5.24932
150 2 2.2208 11.1542 14.3703 2.52614
141 2 2.2208 10.9993 17.2027 5.27066
144 1 -1.1104 12.4918 18.7353 1.12276
147 1 -1.1104 12.3214 18.6956 3.93194
148 1 -1.1104 12.3831 15.819 1.14855
151 2 2.2208 11.0744 20.2592 2.41619
152 1 -1.1104 12.4863 15.7218 3.64181
155 1 -1.1104 9.63874 18.7959 1.06289
157 2 2.2208 8.20755 17.0884 2.35149
159 1 -1.1104 9.50595 18.8215 3.78801
161 2 2.2208 8.24496 20.2844 5.27837
162 1 -1.1104 9.52624 15.8953 0.974942
164 1 -1.1104 9.654 15.7225 3.67398
163 1 -1.1104 9.86409 15.5813 6.63808
149 1 -1.1104 12.7929 15.8891 6.59224
665 2 2.2208 2.60097 8.58378 -0.333744
678 2 2.2208 8.1788 20.0332 -0.317138
374 2 2.2208 10.7105 19.8252 13.7537
9100 2 2.2208 -0.253149 -2.49485 8.05684
170 1 -1.1104 1.28251 -1.30462 6.74522
174 1 -1.1104 3.84184 -1.17979 6.63121
175 2 2.2208 5.40046 0.139052 10.8478
176 1 -1.1104 0.983183 -3.94087 12.3067
180 1 -1.1104 0.967693 -3.99151 9.4436
184 1 -1.1104 1.10079 -1.27668 12.1269
186 2 2.2208 5.31641 -2.3229 8.0007
188 1 -1.1104 1.15117 -1.27552 9.47345
190 1 -1.1104 3.87621 -3.98586 12.4127
192 2 2.2208 2.58923 0.182577 8.18893
193 1 -1.1104 4.09061 -4.05348 9.39636
195 2 2.2208 2.50697 -2.78336 10.8063
197 1 -1.1104 4.01622 -1.26354 12.1502
198 1 -1.1104 4.02077 -1.30615 9.45283
9104 2 2.2208 -0.422769 0.298637 10.9581
50 1 -1.1104 12.2995 18.5837 9.60771
135 2 2.2208 8.25426 17.1393 8.09777
210 1 -1.1104 9.58597 -1.15271 6.79762
208 1 -1.1104 9.50504 -4.35445 6.89912
171 1 -1.1104 6.77214 -1.21515 6.63144
185 1 -1.1104 6.89789 -0.975262 12.4211
182 1 -1.1104 6.95773 -3.96823 9.63387
189 1 -1.1104 6.78446 -1.14618 9.44704
178 1 -1.1104 6.79705 -3.93366 12.49
211 2 2.2208 11.0302 0.0889774 10.7278
212 1 -1.1104 12.6133 -4.27095 12.3488
214 1 -1.1104 12.4413 -4.19332 9.63352
216 1 -1.1104 12.857 -1.20184 12.3957
217 2 2.2208 10.8306 -2.66222 8.3123
219 1 -1.1104 12.5291 -1.28997 9.69928
220 1 -1.1104 9.65497 -4.15414 12.5081
222 2 2.2208 8.28254 0.1145 8.25545
223 1 -1.1104 9.67218 -4.08571 9.67992
225 2 2.2208 8.23798 -2.71026 11.0493
227 1 -1.1104 9.89102 -1.16208 12.3196
228 1 -1.1104 9.5062 -1.38955 9.62053
9099 2 2.2208 -0.185496 3.00586 8.06179
200 2 2.2208 8.13843 19.7913 10.9345
676 2 2.2208 5.48605 0.155612 -0.310915
234 1 -1.1104 1.44291 7.33792 6.77835
173 1 -1.1104 4.06065 1.64134 6.59664
239 1 -1.1104 3.93101 4.5615 6.70728
236 1 -1.1104 1.18834 4.35679 6.70385
167 1 -1.1104 1.12728 1.40804 6.72711
177 1 -1.1104 1.23318 1.59416 12.1887
181 1 -1.1104 1.29427 1.67966 9.46313
187 2 2.2208 5.39376 3.16457 8.09675
191 1 -1.1104 3.91278 1.51986 12.3087
194 1 -1.1104 3.97247 1.3616 9.49319
196 2 2.2208 2.57984 2.98607 10.9028
240 2 2.2208 5.40539 5.94758 10.9213
246 1 -1.1104 1.34584 4.57685 12.2829
251 1 -1.1104 1.29339 4.60982 9.41865
256 2 2.2208 2.73441 5.99818 8.22917
258 1 -1.1104 3.95645 7.25514 9.61197
260 1 -1.1104 4.02341 4.62291 12.2078
262 1 -1.1104 4.14181 4.29879 9.57058
242 1 -1.1104 1.29462 7.44709 12.4951
244 1 -1.1104 1.34003 7.51667 9.73769
255 1 -1.1104 4.00981 7.42874 12.4398
183 1 -1.1104 6.86561 1.71507 9.62699
235 1 -1.1104 6.90821 7.32149 6.55015
265 1 -1.1104 12.6715 7.26204 7.01299
266 1 -1.1104 12.5137 4.54308 6.71207
269 1 -1.1104 9.64602 4.52564 6.71137
209 1 -1.1104 9.89852 1.66084 6.59421
237 1 -1.1104 6.66728 4.24325 6.60733
267 1 -1.1104 9.77441 7.28555 6.46595
169 1 -1.1104 6.7508 1.51073 6.68855
245 1 -1.1104 6.71766 7.38893 9.68982
248 1 -1.1104 6.83878 4.37097 12.1285
253 1 -1.1104 6.93424 4.63566 9.40591
179 1 -1.1104 6.59338 1.5451 12.5871
206 1 -1.1104 12.5569 1.62528 6.62027
213 1 -1.1104 12.5156 1.52568 12.011
215 1 -1.1104 12.5207 1.65287 9.29348
218 2 2.2208 11.1702 3.07619 7.92722
221 1 -1.1104 9.65113 1.78183 12.1359
224 1 -1.1104 9.55617 1.62814 9.41737
226 2 2.2208 8.28148 3.01052 10.9388
268 1 -1.1104 9.7038 4.51525 9.40201
271 1 -1.1104 9.67167 4.41416 12.3439
275 2 2.2208 8.32589 5.89208 8.15368
276 2 2.2208 11.0883 5.77489 10.9155
279 1 -1.1104 12.6881 7.04682 9.8816
280 1 -1.1104 12.6081 4.57766 12.2977
283 1 -1.1104 12.5102 4.48144 9.5204
273 1 -1.1104 9.63736 7.31928 9.50803
278 1 -1.1104 12.4128 7.43647 12.4933
285 1 -1.1104 9.50013 7.44544 12.4719
243 1 -1.1104 6.85815 7.28545 12.4558
62 1 -1.1104 1.15354 10.1166 6.68731
78 1 -1.1104 4.17191 10.1917 6.9106
9089 2 2.2208 -0.0483599 8.9179 8.26476
108 1 -1.1104 1.35929 12.8067 6.58954
241 2 2.2208 5.32949 11.5384 11.0754
247 1 -1.1104 1.44844 10.4089 12.2589
250 2 2.2208 5.35458 8.63795 8.24922
252 1 -1.1104 1.39032 10.3299 9.45325
257 2 2.2208 2.76292 11.5572 8.13865
259 2 2.2208 2.61267 8.80331 11.1101
261 1 -1.1104 3.93055 10.1819 12.4929
263 1 -1.1104 4.12336 10.1171 9.59857
287 1 -1.1104 3.96493 13.0327 12.4008
294 1 -1.1104 1.20457 13.1073 9.62456
299 1 -1.1104 1.19112 13.1012 12.387
305 1 -1.1104 4.18227 13.042 9.59727
9440 2 2.2208 -0.216662 17.565 -0.112824
297 1 -1.1104 6.83375 12.9886 12.397
249 1 -1.1104 6.71887 10.1497 12.351
90 1 -1.1104 12.4005 10.0799 6.64605
143 1 -1.1104 12.3095 12.7683 6.88089
154 1 -1.1104 9.4718 12.8033 6.63206
254 1 -1.1104 6.81728 10.1078 9.44776
65 1 -1.1104 6.77543 9.97862 6.58454
290 1 -1.1104 7.05999 13.0543 9.57395
264 1 -1.1104 9.5288 10.2038 9.60122
270 1 -1.1104 9.67723 10.203 12.4662
272 2 2.2208 8.16682 8.52069 11.2056
274 2 2.2208 8.25605 11.395 8.07334
277 2 2.2208 10.8428 11.6665 11.0158
281 1 -1.1104 12.8245 10.2009 12.2996
282 2 2.2208 11.0416 8.68724 8.21951
284 1 -1.1104 12.2908 9.87934 9.73223
27 1 -1.1104 12.5557 13.1283 12.3924
49 1 -1.1104 12.6256 12.8191 9.53672
104 1 -1.1104 9.643 13.0411 12.4835
137 1 -1.1104 9.67969 12.9942 9.47615
9098 2 2.2208 -0.271028 17.2962 5.22257
117 1 -1.1104 1.4975 15.7524 6.59695
9102 2 2.2208 -0.136671 17.194 10.9615
667 2 2.2208 5.36004 17.2721 -0.384417
302 1 -1.1104 1.40332 18.3634 6.77465
229 2 2.2208 2.67258 14.4239 10.8649
295 2 2.2208 5.62557 14.2108 8.18588
136 1 -1.1104 1.34879 15.8531 12.3181
230 2 2.2208 2.64562 19.9784 10.9737
233 1 -1.1104 4.19095 15.6972 12.2391
286 1 -1.1104 4.07187 18.441 12.4226
291 1 -1.1104 1.37455 18.6161 9.68689
292 1 -1.1104 1.10245 15.7162 9.45332
293 2 2.2208 5.48061 20.2061 8.1304
298 1 -1.1104 1.2051 18.7061 12.5478
300 2 2.2208 5.35265 17.0379 10.9277
301 1 -1.1104 4.17958 18.6296 9.46072
303 2 2.2208 2.76729 17.1551 8.12239
304 1 -1.1104 3.93112 15.8042 9.59255
199 2 2.2208 8.2983 14.4336 10.998
26 2 2.2208 10.9515 17.2593 11.0443
81 2 2.2208 11.0407 14.3175 8.16345
156 1 -1.1104 9.41631 18.7119 6.57015
288 1 -1.1104 6.88219 18.6178 9.49165
289 1 -1.1104 6.97742 15.5997 9.65025
296 1 -1.1104 6.72797 18.2512 12.201
165 1 -1.1104 9.5376 18.565 9.56965
25 1 -1.1104 6.89231 15.8103 12.6462
53 1 -1.1104 12.3552 15.91 12.3397
204 1 -1.1104 9.58706 15.829 9.7011
118 1 -1.1104 7.03457 15.5713 6.89043
83 1 -1.1104 12.4235 15.996 9.48235
145 1 -1.1104 12.4148 18.6948 6.88821
105 1 -1.1104 9.41239 18.4283 12.4271
8414 2 2.2208 5.30242 -5.36175 10.8664
9445 2 2.2208 -0.347817 5.87507 -0.349495
674 2 2.2208 2.36813 2.95633 -0.425401
320 2 2.2208 5.29919 -2.40442 13.7637
326 2 2.2208 11.1791 2.92575 13.5107
337 2 2.2208 5.39895 0.481565 16.5648
338 1 -1.1104 1.35357 -3.98361 17.8227
342 1 -1.1104 1.43824 -3.99713 15.1979
350 1 -1.1104 1.11413 -1.05178 17.9976
352 2 2.2208 5.42038 -2.50728 19.4984
354 1 -1.1104 1.08455 -1.29684 15.1536
358 1 -1.1104 3.99446 -4.00785 17.8073
360 2 2.2208 2.61748 0.331144 19.4704
361 1 -1.1104 4.31151 -3.97289 15.0166
365 2 2.2208 2.64267 -2.49601 16.4874
367 1 -1.1104 4.2003 -1.17001 17.8355
368 1 -1.1104 3.88225 -1.02636 15.0301
9457 2 2.2208 -0.27292 2.96769 19.3576
343 1 -1.1104 1.08794 -4.24551 20.664
9478 2 2.2208 -0.352726 19.9568 13.7381
663 2 2.2208 10.9909 5.96226 27.845
9469 2 2.2208 -0.189404 0.195235 22.3555
9474 2 2.2208 -0.151786 8.6447 25.0084
9452 2 2.2208 -0.212768 8.81653 19.4847
340 1 -1.1104 6.73085 -3.62768 18.2437
351 1 -1.1104 6.94433 -0.938677 17.9001
356 1 -1.1104 6.88445 -1.27411 15.1589
346 1 -1.1104 6.90155 -3.98278 15.3696
380 2 2.2208 11.0473 0.252795 16.5598
381 1 -1.1104 12.6239 -4.1153 18.0665
383 1 -1.1104 12.4272 -3.92034 15.1981
387 1 -1.1104 12.4943 -1.46964 17.7869
388 2 2.2208 11.1786 -2.63443 19.4871
390 1 -1.1104 12.4341 -1.03675 15.1009
392 1 -1.1104 9.42815 -3.85098 18.106
394 2 2.2208 8.37751 0.196095 19.3699
395 1 -1.1104 9.70809 -3.89499 15.3725
399 2 2.2208 8.18802 -2.59704 16.5858
401 1 -1.1104 9.78016 -1.13015 18.0432
402 1 -1.1104 9.6758 -1.14559 15.1821
318 2 2.2208 11.0588 14.4888 13.8055
321 2 2.2208 2.54657 0.175033 13.64
325 2 2.2208 11.1845 -2.50457 13.7322
518 1 -1.1104 12.4489 18.5659 20.6887
594 1 -1.1104 12.5102 15.7887 26.4798
339 1 -1.1104 0.973151 1.79841 17.9413
344 1 -1.1104 1.21882 1.6276 15.0935
353 2 2.2208 5.44406 3.01884 19.5655
359 1 -1.1104 4.01746 1.7569 18.2577
363 1 -1.1104 3.97759 1.86224 15.3725
366 2 2.2208 2.50614 3.09695 16.7454
413 2 2.2208 5.34626 5.8622 16.472
421 1 -1.1104 1.05119 4.76958 18.1153
426 1 -1.1104 1.12624 4.33851 15.3845
435 2 2.2208 2.71919 6.12455 19.5288
437 1 -1.1104 3.88501 7.35569 15.1524
440 1 -1.1104 3.8154 4.59056 17.815
442 1 -1.1104 3.79007 4.5467 15.1272
417 1 -1.1104 1.19534 6.94746 15.274
434 1 -1.1104 3.91293 7.50979 18.0448
415 1 -1.1104 1.29465 7.45618 18.2847
9451 2 2.2208 -0.268402 5.9296 16.5909
564 1 -1.1104 12.37 18.362 23.7427
335 2 2.2208 5.39384 14.3169 13.8384
418 1 -1.1104 1.11744 7.49818 21.0134
9475 2 2.2208 -0.158513 11.5577 22.3038
601 1 -1.1104 6.82881 18.5079 26.5198
330 2 2.2208 8.39373 5.91951 13.7994
423 1 -1.1104 6.65467 4.54928 17.8452
419 1 -1.1104 7.07078 7.46815 15.2998
430 1 -1.1104 6.59186 4.59517 15.1216
348 1 -1.1104 6.71856 1.68807 15.0666
341 1 -1.1104 6.70558 1.78364 18.0025
416 1 -1.1104 6.63731 7.29838 17.9155
382 1 -1.1104 12.317 1.58321 17.7808
385 1 -1.1104 12.2561 1.83186 15.1311
389 2 2.2208 10.9409 3.15023 19.2123
393 1 -1.1104 9.47852 1.60828 17.9465
397 1 -1.1104 9.68407 1.60441 15.004
400 2 2.2208 8.17616 2.99781 16.4664
449 2 2.2208 10.9803 6.02654 16.5795
454 1 -1.1104 12.3353 4.52024 17.8271
457 1 -1.1104 12.42 4.67708 15.1612
461 1 -1.1104 9.61682 7.35154 18.0947
462 2 2.2208 7.96336 6.07175 19.2406
464 1 -1.1104 9.71563 7.37581 15.2102
467 1 -1.1104 9.4832 4.3884 17.6845
469 1 -1.1104 9.63025 4.48561 15.147
452 1 -1.1104 12.6203 7.5606 15.1362
451 1 -1.1104 12.2679 7.43683 18.0313
453 1 -1.1104 12.4553 7.45599 20.9112
9446 2 2.2208 -0.253235 20.2257 19.4665
659 2 2.2208 13.5979 19.9395 16.3593
9453 2 2.2208 -0.345561 11.6561 16.5727
414 2 2.2208 5.52411 11.494 16.7435
422 1 -1.1104 1.06565 10.3399 17.8986
425 2 2.2208 5.39176 8.8841 19.411
428 1 -1.1104 1.11023 10.314 15.1047
436 2 2.2208 2.51657 11.4228 19.3938
439 2 2.2208 2.5363 8.75505 16.5147
441 1 -1.1104 4.00009 10.2572 18.1337
444 1 -1.1104 4.01557 10.2429 15.3662
477 1 -1.1104 1.17241 12.8778 18.0511
481 1 -1.1104 1.10717 13.1064 15.2866
497 1 -1.1104 4.03639 12.904 18.318
500 1 -1.1104 3.94613 13.0079 15.4877
333 2 2.2208 2.54744 17.2114 13.8622
571 2 2.2208 2.53232 -5.46312 24.8666
9462 2 2.2208 -0.164557 -5.29269 27.6987
424 1 -1.1104 7.01354 10.0328 18.1177
432 1 -1.1104 6.80274 10.0652 15.2513
479 1 -1.1104 6.75631 13.2107 18.0571
485 1 -1.1104 6.83644 12.6736 15.2533
450 2 2.2208 11.1999 11.5408 16.6898
455 1 -1.1104 12.6272 10.2329 17.9178
456 2 2.2208 11.0871 8.71852 19.398
459 1 -1.1104 12.3105 10.5056 15.0098
463 2 2.2208 8.16936 11.4587 19.3966
466 2 2.2208 8.14764 8.59791 16.7493
468 1 -1.1104 9.76853 9.99733 17.8569
471 1 -1.1104 9.7783 10.2897 15.1664
513 1 -1.1104 12.5134 12.8475 18.3106
515 1 -1.1104 12.6781 13.161 15.3986
524 1 -1.1104 9.62623 12.9699 18.1567
527 1 -1.1104 9.73384 13.071 15.2344
9439 2 2.2208 -0.272738 5.99066 22.0568
9443 2 2.2208 -0.287022 17.2596 16.5079
9444 2 2.2208 -0.373223 14.2276 19.4325
328 2 2.2208 5.39763 8.72237 13.7671
530 1 -1.1104 9.82347 18.8348 21.0312
327 2 2.2208 2.63206 5.85444 13.8072
491 2 2.2208 5.23467 14.5382 19.3557
504 2 2.2208 2.54619 14.3371 16.7257
476 2 2.2208 5.32411 17.1714 16.6701
478 1 -1.1104 0.882066 18.6213 18.225
483 1 -1.1104 1.38215 18.6362 15.442
489 1 -1.1104 1.0414 15.74 17.8199
492 2 2.2208 5.39015 20.0026 19.4622
493 1 -1.1104 1.03136 15.9875 15.0977
498 1 -1.1104 3.77638 18.6036 17.9599
499 2 2.2208 2.62646 17.3339 19.3927
502 1 -1.1104 4.05421 18.5645 15.2745
505 2 2.2208 2.47314 20.0985 16.5878
506 1 -1.1104 3.92884 15.8152 17.992
507 1 -1.1104 3.98327 15.8359 14.9942
9442 2 2.2208 -0.178941 20.0856 25.1255
635 1 -1.1104 9.46569 15.8308 26.4869
331 2 2.2208 11.1273 8.81698 13.6959
508 1 -1.1104 3.85758 15.8489 20.8953
495 1 -1.1104 6.72221 15.5322 15.4112
487 1 -1.1104 6.60386 18.5842 15.1235
480 1 -1.1104 6.76666 18.7292 17.8788
490 1 -1.1104 6.62843 16.051 18.1188
531 2 2.2208 8.20709 14.4124 16.628
520 2 2.2208 11.1289 14.235 19.4723
512 2 2.2208 10.9262 17.189 16.4364
514 1 -1.1104 12.2412 18.4505 17.7324
517 1 -1.1104 12.131 18.5308 15.0086
519 1 -1.1104 12.2199 15.5833 17.9834
521 2 2.2208 11.1495 20.0701 19.4343
522 1 -1.1104 12.5561 15.8525 15.2901
525 1 -1.1104 9.57792 18.6891 18.1189
526 2 2.2208 8.32549 17.2073 19.3082
529 1 -1.1104 9.50425 18.5239 15.2698
532 2 2.2208 8.1656 20.0976 16.6753
533 1 -1.1104 9.48384 15.8623 17.9057
534 1 -1.1104 9.54351 15.8748 15.1262
9121 2 2.2208 -0.323743 8.68007 13.8782
535 1 -1.1104 9.48591 15.8464 20.9331
629 1 -1.1104 9.60776 18.5076 26.471
496 1 -1.1104 6.66333 15.5905 20.6259
317 2 2.2208 8.12138 17.1991 13.9011
9438 2 2.2208 -0.119363 -2.59141 19.216
9467 2 2.2208 -0.211414 -2.61548 24.9152
369 1 -1.1104 4.00484 -0.934486 20.8702
362 1 -1.1104 3.76995 -3.9328 20.8325
355 1 -1.1104 1.05173 -1.10527 20.5365
540 2 2.2208 5.53064 0.309962 22.3219
541 1 -1.1104 1.11636 -4.14682 23.5776
545 1 -1.1104 1.22914 -3.8415 26.3036
549 1 -1.1104 1.26849 -1.13935 23.4443
551 2 2.2208 5.41272 -2.4966 24.9501
553 1 -1.1104 1.47146 -1.11716 26.2063
555 1 -1.1104 3.85935 -4.00227 23.5547
557 2 2.2208 2.63389 0.325929 24.9756
558 1 -1.1104 4.0574 -4.10239 26.2197
560 2 2.2208 2.43331 -2.65323 22.0739
562 1 -1.1104 4.19632 -1.37287 23.4692
563 1 -1.1104 4.36142 -1.10819 26.379
9437 2 2.2208 -0.38819 0.299962 16.6441
324 2 2.2208 8.28442 0.189227 13.7834
391 1 -1.1104 12.4629 -1.2512 20.7117
567 1 -1.1104 12.4114 15.6197 23.6738
384 1 -1.1104 12.4221 -4.08779 20.9712
403 1 -1.1104 9.83646 -1.15375 20.955
396 1 -1.1104 9.53903 -3.67043 20.9835
347 1 -1.1104 6.67066 -3.81298 21.0471
554 1 -1.1104 7.09445 -1.30573 26.5159
543 1 -1.1104 6.92552 -3.86937 23.806
550 1 -1.1104 6.95713 -1.08758 23.4803
357 1 -1.1104 6.79101 -1.05722 20.8366
547 1 -1.1104 6.80517 -3.99988 26.4058
576 2 2.2208 11.0357 0.272108 22.2863
577 1 -1.1104 12.6785 -4.12835 23.6626
579 1 -1.1104 12.5225 -3.87531 26.4627
581 1 -1.1104 12.2479 -1.24271 23.5519
582 2 2.2208 11.2613 -2.51576 25.1873
584 1 -1.1104 12.9931 -1.07714 26.3043
585 1 -1.1104 9.76804 -3.95602 23.6288
587 2 2.2208 8.2555 0.326806 25.2702
588 1 -1.1104 9.8162 -3.86856 26.6107
590 2 2.2208 8.48101 -2.29389 22.4083
592 1 -1.1104 9.57408 -1.14033 23.8863
593 1 -1.1104 10.0922 -1.16276 26.6865
438 1 -1.1104 4.0336 7.36105 21.1356
364 1 -1.1104 4.16606 1.88067 21.1458
443 1 -1.1104 4.14277 4.55475 20.7355
427 1 -1.1104 1.24826 4.71307 20.7275
345 1 -1.1104 1.16113 1.81048 20.5909
546 1 -1.1104 0.956452 1.47829 26.2395
542 1 -1.1104 1.40589 1.60336 23.5111
552 2 2.2208 5.41659 3.17029 25.154
556 1 -1.1104 4.17388 1.67058 23.9429
559 1 -1.1104 3.80763 1.98314 26.3153
561 2 2.2208 2.38638 3.22198 22.025
605 2 2.2208 5.40108 6.01812 22.3158
611 1 -1.1104 1.08774 4.39748 23.5182
616 1 -1.1104 0.89314 4.32119 26.3452
621 2 2.2208 2.4993 5.86335 25.0552
625 1 -1.1104 3.85178 4.68919 23.4374
627 1 -1.1104 3.94068 4.49387 26.6211
607 1 -1.1104 1.21398 7.22494 23.7848
620 1 -1.1104 3.94714 7.4944 23.7694
609 1 -1.1104 1.21762 7.29454 26.4724
623 1 -1.1104 3.91201 7.13445 26.4131
9470 2 2.2208 -0.293458 3.02313 25.0019
386 1 -1.1104 12.4881 1.97664 20.552
420 1 -1.1104 6.58359 7.476 20.7804
398 1 -1.1104 9.55109 1.75098 20.6416
349 1 -1.1104 6.83899 1.5055 20.8988
465 1 -1.1104 9.47972 7.43989 21.1828
431 1 -1.1104 6.82992 4.5715 20.6256
458 1 -1.1104 12.271 4.72515 20.8389
608 1 -1.1104 6.923 7.29745 23.6862
618 1 -1.1104 6.67055 4.69728 26.4635
548 1 -1.1104 6.66504 1.6778 26.472
544 1 -1.1104 7.2247 1.72296 23.755
610 1 -1.1104 6.81245 7.32425 26.6044
613 1 -1.1104 6.70345 4.50629 23.6959
470 1 -1.1104 9.45897 4.34924 20.5404
578 1 -1.1104 12.5948 1.59445 23.5918
580 1 -1.1104 12.391 1.84695 26.6065
583 2 2.2208 11.2065 3.11039 25.0178
586 1 -1.1104 9.90477 1.67019 23.6734
589 1 -1.1104 9.78482 1.56185 26.3463
591 2 2.2208 8.09467 3.06252 22.188
575 1 -1.1104 12.656 4.33702 26.6214
603 1 -1.1104 12.4134 4.54449 23.6758
633 1 -1.1104 12.3861 7.23006 26.2811
634 1 -1.1104 12.4282 7.58463 23.573
637 1 -1.1104 9.49201 4.31744 26.2264
639 1 -1.1104 9.54179 4.45847 23.4976
641 1 -1.1104 9.58124 7.12462 26.1642
643 2 2.2208 8.04872 5.86239 25.0148
644 2 2.2208 10.8695 6.11385 22.1804
573 1 -1.1104 9.57945 7.35887 23.4867
445 1 -1.1104 3.81956 9.96625 20.8811
433 1 -1.1104 6.67449 10.1609 20.9398
322 2 2.2208 5.22163 3.09954 13.562
378 1 -1.1104 6.80722 15.8772 23.4087
501 1 -1.1104 3.91099 12.9709 21.0858
429 1 -1.1104 1.09135 10.2825 20.845
482 1 -1.1104 1.15305 13.1042 20.7687
606 2 2.2208 5.05452 11.5162 22.2089
612 1 -1.1104 1.0651 10.2649 23.6515
615 2 2.2208 5.18994 8.81091 25.0412
617 1 -1.1104 1.18799 10.1984 26.4385
622 2 2.2208 2.3938 11.6527 25.1702
624 2 2.2208 2.67785 8.75039 22.3539
626 1 -1.1104 3.89398 10.2728 23.6186
628 1 -1.1104 3.90072 10.187 26.4588
379 1 -1.1104 3.94213 13.1318 26.9589
410 1 -1.1104 1.03369 13.1025 23.4926
473 1 -1.1104 1.25468 12.9631 26.5813
510 1 -1.1104 3.9408 13.2618 23.906
511 1 -1.1104 6.78484 13.0038 26.3062
460 1 -1.1104 12.6343 10.093 20.8142
486 1 -1.1104 6.72132 12.7202 20.7925
516 1 -1.1104 12.3202 13.0866 21.1458
472 1 -1.1104 9.72289 10.136 20.7167
614 1 -1.1104 6.64585 9.93902 23.7467
412 1 -1.1104 6.7113 12.8245 23.6817
528 1 -1.1104 9.59956 12.9737 20.974
619 1 -1.1104 6.73013 10.2249 26.4697
595 1 -1.1104 9.67754 12.8357 23.6908
574 1 -1.1104 12.2934 10.0523 26.2297
597 2 2.2208 10.9729 8.62743 24.9634
602 1 -1.1104 12.559 10.4375 23.452
636 1 -1.1104 9.57966 9.97256 26.4655
638 1 -1.1104 9.61201 10.1664 23.7787
640 2 2.2208 8.11719 8.94461 22.4294
642 2 2.2208 8.05292 11.5634 25.1878
645 2 2.2208 10.9281 11.488 22.2587
604 1 -1.1104 9.58588 13.0667 26.4402
539 1 -1.1104 12.5195 13.2265 23.887
565 1 -1.1104 12.4168 12.9028 26.6498
9468 2 2.2208 -0.199521 17.3561 22.358
9112 2 2.2208 -0.202214 3.14796 13.9292
484 1 -1.1104 1.2119 18.6309 21.0381
503 1 -1.1104 4.1764 18.6942 20.9305
494 1 -1.1104 1.08075 15.8426 20.9031
446 2 2.2208 5.28053 14.4946 25.1265
537 2 2.2208 2.52177 14.5867 22.2835
475 1 -1.1104 1.17877 18.7121 26.6035
536 1 -1.1104 4.19011 18.6688 23.6959
474 1 -1.1104 0.931636 15.8557 26.6779
447 2 2.2208 5.61426 20.1733 25.0217
375 2 2.2208 2.63372 20.0704 22.3251
376 1 -1.1104 3.83612 15.8859 23.6751
377 1 -1.1104 1.00797 15.9474 23.7511
404 1 -1.1104 3.79913 15.8467 26.564
407 2 2.2208 2.64158 17.3631 25.1037
408 1 -1.1104 3.96818 18.793 26.3274
409 2 2.2208 5.42894 17.1035 22.2349
411 1 -1.1104 1.38934 18.8544 23.8245
9466 2 2.2208 -0.419054 14.4762 25.2126
523 1 -1.1104 12.5518 15.9996 21.0502
596 1 -1.1104 9.44448 18.831 23.6837
598 2 2.2208 8.22637 17.3624 25.0576
538 2 2.2208 10.9122 17.1792 22.4381
566 1 -1.1104 12.3431 18.773 26.6497
631 2 2.2208 8.13419 20.2185 22.2656
630 2 2.2208 8.10701 14.3328 22.1405
569 2 2.2208 10.8235 14.3261 25.1419
488 1 -1.1104 6.8525 18.7174 20.8728
632 1 -1.1104 9.57669 15.8028 23.6449
448 1 -1.1104 6.78176 18.6724 23.63
509 1 -1.1104 6.95146 15.8268 26.5083
572 2 2.2208 11.1301 20.1647 24.9991
9113 2 2.2208 -0.178186 14.4992 13.7154
332 2 2.2208 8.18146 11.6678 14.0116
677 2 2.2208 5.34349 20.0732 13.8585
329 2 2.2208 2.59906 11.8327 13.9556
9435 2 2.2208 -0.308541 -5.36446 16.5767
370 2 2.2208 13.7299 11.7278 25.1031
600 2 2.2208 8.38527 -5.09869 25.0984
406 2 2.2208 8.14913 -5.05832 19.488
8744 2 2.2208 11.047 -5.27577 16.64
9441 2 2.2208 -0.434743 0.189099 27.6557
675 2 2.2208 2.77335 -2.632 27.7497
9447 2 2.2208 -0.269288 11.4347 27.7343
9108 2 2.2208 -0.257146 -2.61986 13.7945
684 2 2.2208 5.56472 23.05 5.48588
686 1 -1.1104 1.0401 24.3433 1.02592
687 1 -1.1104 1.28826 24.5464 4.07195
688 1 -1.1104 0.981573 21.3459 0.816414
690 2 2.2208 5.46322 25.8254 2.71131
691 1 -1.1104 1.10636 21.4541 3.74974
693 1 -1.1104 3.92146 24.3155 1.27909
694 2 2.2208 2.63834 22.8407 2.45142
696 1 -1.1104 4.13133 24.5359 4.17864
697 2 2.2208 2.59337 25.8503 5.25368
698 1 -1.1104 4.28619 21.5326 1.10744
700 1 -1.1104 3.88324 21.3762 3.8377
689 1 -1.1104 1.01439 27.2325 0.887625
9813 2 2.2208 -0.210915 22.706 5.4204
699 1 -1.1104 3.79992 27.2793 1.08352
1032 2 2.2208 5.43315 22.917 -0.438309
1028 2 2.2208 2.6389 25.8739 -0.380198
944 1 -1.1104 6.76449 44.1337 9.50031
706 1 -1.1104 6.90442 24.4663 3.87748
709 1 -1.1104 6.71012 21.6689 3.90866
705 1 -1.1104 6.97513 24.5512 0.997745
708 1 -1.1104 6.71046 27.3675 0.99974
707 1 -1.1104 6.93509 21.5625 0.926899
711 2 2.2208 11.1823 22.911 5.27212
713 1 -1.1104 12.3738 24.3953 1.17229
714 1 -1.1104 12.6597 24.3362 4.04622
715 1 -1.1104 12.4639 21.686 1.13367
717 2 2.2208 11.0598 25.7622 2.46592
718 1 -1.1104 12.5646 21.526 3.80439
720 1 -1.1104 9.50007 24.4544 1.14998
721 2 2.2208 8.16713 23.02 2.34133
723 1 -1.1104 9.51705 24.2464 3.96187
724 2 2.2208 8.35268 25.7832 5.2504
725 1 -1.1104 9.61329 21.5868 0.915094
727 1 -1.1104 9.85672 21.5188 3.84926
726 1 -1.1104 9.72736 27.1268 1.12977
861 1 -1.1104 9.8672 24.4996 6.70072
728 1 -1.1104 9.96281 27.4637 3.82422
858 1 -1.1104 12.5898 24.2572 6.64304
859 1 -1.1104 12.5891 21.4925 6.65866
1025 2 2.2208 8.11391 36.9575 -0.212618
829 1 -1.1104 6.9685 21.6048 6.75752
701 1 -1.1104 4.07439 27.3789 3.83105
692 1 -1.1104 1.21691 27.3289 3.91105
685 2 2.2208 5.38203 28.7079 5.27107
695 2 2.2208 2.60837 28.9121 2.2831
733 1 -1.1104 1.34099 30.2584 1.04078
736 1 -1.1104 1.04336 30.1048 3.93165
739 1 -1.1104 1.21021 33.0051 0.71745
740 2 2.2208 5.33645 31.477 2.41634
742 1 -1.1104 1.11212 32.8368 3.94081
744 1 -1.1104 3.9179 30.0871 0.810424
747 1 -1.1104 3.85571 30.1024 3.85374
749 2 2.2208 2.53443 31.544 5.28466
751 1 -1.1104 3.99081 33.0588 1.0745
752 1 -1.1104 3.89875 32.967 3.70921
888 1 -1.1104 4.07942 30.1665 6.63959
9805 2 2.2208 -0.282245 39.9277 5.47979
978 1 -1.1104 10.0487 43.9707 12.4666
756 1 -1.1104 6.69529 30.2095 1.20884
955 1 -1.1104 6.83477 41.3197 6.76156
890 1 -1.1104 3.94725 32.9677 6.85632
716 1 -1.1104 12.5031 27.1967 1.22746
710 1 -1.1104 6.87281 27.3161 3.97417
719 1 -1.1104 12.5472 27.2487 4.09991
743 1 -1.1104 6.70033 32.758 4.11671
757 1 -1.1104 6.73941 29.8997 3.93099
758 1 -1.1104 6.86987 32.9229 1.23482
712 2 2.2208 11.0879 28.7764 5.41676
722 2 2.2208 8.20665 28.575 2.43095
760 1 -1.1104 12.3394 30.0344 0.996709
762 1 -1.1104 12.3733 30.0709 3.91597
764 1 -1.1104 12.6326 33.018 0.991192
765 2 2.2208 11.0829 31.3889 2.46721
767 1 -1.1104 12.439 33.1361 3.84268
768 1 -1.1104 9.47037 29.9934 0.85817
771 1 -1.1104 9.61258 29.8666 3.95481
773 2 2.2208 8.2196 31.456 5.28744
775 1 -1.1104 9.48622 32.8492 1.2859
776 1 -1.1104 9.57008 32.5908 3.85854
918 1 -1.1104 12.51 32.6702 6.68428
863 1 -1.1104 9.40538 27.1832 6.65614
1014 2 2.2208 8.12143 42.7101 -0.31602
9793 2 2.2208 -0.367582 22.808 10.9492
1023 2 2.2208 2.42567 42.8988 -0.199964
9827 2 2.2208 -0.349937 23.0168 -0.507865
732 2 2.2208 5.42818 34.4337 5.41903
734 1 -1.1104 0.956994 35.7349 0.993844
737 1 -1.1104 1.12103 35.7227 3.91713
741 2 2.2208 5.21342 37.1645 2.55921
745 1 -1.1104 3.91462 35.7142 1.00212
746 2 2.2208 2.56884 34.3257 2.31652
748 1 -1.1104 4.00844 35.7543 3.9292
750 2 2.2208 2.58544 37.0728 5.39408
778 2 2.2208 5.511 39.8308 5.34773
784 1 -1.1104 1.23324 38.8742 0.857619
789 1 -1.1104 1.05214 38.4921 3.84807
794 2 2.2208 2.57324 39.8891 2.43779
798 1 -1.1104 3.91507 38.4986 1.06248
800 1 -1.1104 3.93186 38.4352 4.00173