ITEM: TIMESTEP
20000
ITEM: NUMBER OF ATOMS
17910
ITEM: BOX BOUNDS pp pp pp
-3.9550949490548781e-01 2.7735509494905418e+01
-4.7562068193003446e+00 3.3283620681929989e+02
-4.0513917241478159e-01 2.7745139172414763e+01
ITEM: ATOMS id type q x y z
1 2 2.2208 5.39058 0.645034 5.18811
2 1 -1.1104 1.04841 -3.41046 1.11589
3 1 -1.1104 0.879371 2.17292 0.969951
6 1 -1.1104 1.07521 -3.39004 3.8093
7 1 -1.1104 1.08183 2.37463 3.79746
10 1 -1.1104 0.998102 -0.612194 1.09027
12 2 2.2208 5.21728 -2.08345 2.39018
13 2 2.2208 5.15218 3.49687 2.36043
14 1 -1.1104 0.799903 -0.657311 3.93758
16 1 -1.1104 3.93596 -3.30908 0.84661
17 1 -1.1104 3.91618 2.18933 1.12378
18 2 2.2208 2.45271 0.681721 2.48444
19 1 -1.1104 3.78828 -3.59525 3.75547
20 1 -1.1104 3.89532 2.08343 3.83193
21 2 2.2208 2.58884 -2.14123 5.31445
22 2 2.2208 2.45846 3.56857 5.50314
23 1 -1.1104 3.88759 -0.651667 1.12867
24 1 -1.1104 3.81852 -0.791494 3.71458
173 1 -1.1104 3.92503 2.1155 6.65914
561 2 2.2208 5.31526 0.837989 -0.395289
174 1 -1.1104 3.98415 -0.645579 6.49047
172 1 -1.1104 3.92464 -3.51578 6.64082
170 1 -1.1104 1.18243 -0.650951 6.9604
166 1 -1.1104 1.0854 -3.3486 6.73761
313 2 2.2208 -0.367446 14.9202 8.09821
28 2 2.2208 2.48665 -4.94327 2.34776
564 2 2.2208 -0.379367 -4.85716 -0.413969
15 1 -1.1104 6.72632 -0.765698 3.81622
8 1 -1.1104 6.75796 -3.5388 3.97102
5 1 -1.1104 6.65826 2.18009 0.7924
9 1 -1.1104 6.61779 1.99723 3.66038
11 1 -1.1104 6.76934 -0.544392 1.09599
4 1 -1.1104 6.68836 -3.34585 1.11541
31 2 2.2208 10.9481 0.857272 5.1361
32 1 -1.1104 12.2715 -3.68698 0.876295
33 1 -1.1104 12.5418 2.11598 0.901679
34 1 -1.1104 12.3975 -3.47489 3.88558
35 1 -1.1104 12.3402 2.36923 3.72245
36 1 -1.1104 12.2543 -0.948966 0.972982
37 2 2.2208 10.8758 -2.14495 2.4666
38 2 2.2208 11.0641 3.5662 2.41711
39 1 -1.1104 12.3288 -0.472699 3.74301
40 1 -1.1104 9.48637 -3.54253 0.978334
41 1 -1.1104 9.52619 2.32092 1.09915
42 2 2.2208 8.04994 0.732311 2.40947
43 1 -1.1104 9.55448 -3.77088 3.91555
44 1 -1.1104 9.4738 2.21092 3.75256
45 2 2.2208 8.23386 -1.96152 5.35405
46 2 2.2208 8.1122 3.41494 5.09363
47 1 -1.1104 9.56091 -0.690234 1.08372
48 1 -1.1104 9.47646 -0.645358 3.9373
210 1 -1.1104 9.34889 -0.516624 6.54528
311 2 2.2208 -0.344958 20.5166 8.00698
534 2 2.2208 10.9245 14.9074 13.6795
409 2 2.2208 10.8613 3.74578 13.7435
54 2 2.2208 5.36432 6.30944 5.12637
55 2 2.2208 5.25623 11.9493 5.27296
56 1 -1.1104 1.07629 7.66431 0.903866
58 1 -1.1104 1.10862 7.90097 3.70992
60 1 -1.1104 1.15924 4.95206 0.854135
61 1 -1.1104 0.992683 10.3133 1.17601
66 2 2.2208 5.16486 9.12578 2.44561
67 1 -1.1104 0.974238 5.12776 3.70932
68 1 -1.1104 1.10902 10.808 3.92935
71 1 -1.1104 3.85982 7.86805 0.906198
72 2 2.2208 2.49805 6.32348 2.31391
73 2 2.2208 2.35581 11.9037 2.50633
74 1 -1.1104 3.83835 7.72001 3.69227
75 2 2.2208 2.38486 9.09169 5.22377
76 1 -1.1104 3.85239 5.01853 0.912356
77 1 -1.1104 3.91118 10.6714 0.965188
79 1 -1.1104 3.92458 4.75304 3.803
80 1 -1.1104 3.95794 10.5179 4.03079
200 2 2.2208 -0.433726 -2.00088 8.05679
64 1 -1.1104 6.58284 10.7428 0.88538
331 2 2.2208 10.9082 17.5763 10.8722
312 2 2.2208 -0.241586 17.6203 10.889
81 2 2.2208 -0.361985 6.37466 5.17138
236 1 -1.1104 1.05475 5.01246 6.68946
62 1 -1.1104 0.899035 10.5163 6.56738
239 1 -1.1104 3.90213 4.88378 6.58951
234 1 -1.1104 1.07338 7.77327 6.53176
9495 2 2.2208 13.7568 8.99346 10.8389
471 2 2.2208 10.8943 9.12147 13.6981
63 1 -1.1104 6.68973 4.83536 0.938051
57 1 -1.1104 6.58345 7.84039 0.876576
70 1 -1.1104 6.72402 10.454 3.75813
59 1 -1.1104 6.59789 7.67718 3.48023
69 1 -1.1104 6.78841 4.78619 3.59201
84 2 2.2208 10.891 6.21575 5.1189
85 2 2.2208 10.9729 12.0152 5.19781
86 1 -1.1104 12.0926 7.79229 0.964156
87 1 -1.1104 12.2599 7.64592 3.66065
88 1 -1.1104 12.3187 4.91086 0.809045
89 1 -1.1104 12.3767 10.5563 0.949791
91 2 2.2208 10.679 9.2727 2.43769
92 1 -1.1104 12.2178 4.90361 3.71479
93 1 -1.1104 12.2959 10.5023 3.68207
94 1 -1.1104 9.28793 7.68457 1.06126
95 2 2.2208 8.06485 6.22208 2.24793
96 2 2.2208 8.05391 12.2583 2.4479
97 1 -1.1104 9.36026 7.62793 3.89432
98 2 2.2208 8.03279 9.07949 5.12386
99 1 -1.1104 9.48444 4.91711 0.786132
100 1 -1.1104 9.49568 10.7232 1.09938
102 1 -1.1104 9.53005 5.02141 3.6111
103 1 -1.1104 9.51811 10.62 3.84338
65 1 -1.1104 6.66489 10.6969 6.51151
101 1 -1.1104 9.26466 10.534 6.68963
315 1 -1.1104 9.52923 16.1673 12.2445
136 2 2.2208 -0.195787 20.4412 2.38921
82 2 2.2208 -0.509647 9.08918 2.41369
149 1 -1.1104 12.1933 16.0667 6.69449
137 2 2.2208 -0.364101 17.476 5.30336
106 2 2.2208 5.14694 17.6419 5.25579
107 1 -1.1104 0.95428 13.2506 0.7868
109 1 -1.1104 1.05452 19.0439 0.94502
113 1 -1.1104 0.823731 13.5962 3.89021
114 1 -1.1104 1.05046 19.0747 3.78587
116 1 -1.1104 0.85689 16.137 0.879315
119 2 2.2208 5.14864 14.7831 2.35989
120 2 2.2208 5.28433 20.5709 2.44378
121 1 -1.1104 1.01684 16.3201 3.95868
123 1 -1.1104 3.80652 13.3185 1.07835
125 1 -1.1104 3.84611 19.1146 1.06532
127 2 2.2208 2.45178 17.7093 2.56456
128 1 -1.1104 3.68682 13.2381 4.05828
129 1 -1.1104 3.80657 19.0913 3.82106
130 2 2.2208 2.40825 14.7819 5.2737
131 2 2.2208 2.51474 20.5659 5.16201
132 1 -1.1104 3.78748 16.1816 1.02752
134 1 -1.1104 3.80277 16.0724 3.77763
110 1 -1.1104 6.6663 13.5877 1.0869
138 1 -1.1104 6.66985 19.2471 1.07116
318 1 -1.1104 9.63185 19.0674 9.67566
124 1 -1.1104 3.82358 13.5293 6.67613
135 2 2.2208 -0.581813 14.7776 2.36898
320 2 2.2208 8.03806 17.5885 8.16801
140 1 -1.1104 6.52639 16.4065 1.13691
115 1 -1.1104 6.67008 13.2353 3.965
122 1 -1.1104 6.47415 16.024 3.79661
139 1 -1.1104 6.66693 19.0131 4.00371
141 2 2.2208 10.8669 17.6542 5.31306
142 1 -1.1104 12.3209 13.4723 0.989994
144 1 -1.1104 12.1188 19.1027 1.12975
146 1 -1.1104 12.4649 13.3918 3.74167
147 1 -1.1104 12.4687 19.1009 3.85747
148 1 -1.1104 12.3971 16.3319 1.09343
150 2 2.2208 10.9548 14.9083 2.47719
151 2 2.2208 10.8815 20.3872 2.46598
152 1 -1.1104 12.1658 16.3954 3.92087
153 1 -1.1104 9.47194 13.4923 1.23671
155 1 -1.1104 9.42902 19.2211 1.08177
157 2 2.2208 8.07488 17.6443 2.51008
158 1 -1.1104 9.66381 13.5608 3.99172
159 1 -1.1104 9.60341 18.9683 3.96991
160 2 2.2208 8.03957 14.8585 5.32062
161 2 2.2208 8.14316 20.3765 5.33547
162 1 -1.1104 9.48159 16.1882 1.1448
164 1 -1.1104 9.47898 16.2336 3.9732
25 2 2.2208 -0.397651 -2.02515 2.50965
143 1 -1.1104 12.0939 13.3955 6.61525
329 1 -1.1104 12.4662 19.2234 12.1133
83 2 2.2208 -0.343907 11.9516 5.33409
324 2 2.2208 10.9087 20.553 7.99752
26 2 2.2208 -0.511184 0.968806 5.22735
684 2 2.2208 -0.334683 17.6093 -0.514923
306 1 -1.1104 6.73172 16.1667 12.357
167 1 -1.1104 0.896053 2.26877 6.66856
175 2 2.2208 5.14305 0.756308 10.7956
176 1 -1.1104 0.892967 -3.37464 12.1869
177 1 -1.1104 0.961576 2.30361 12.3328
180 1 -1.1104 1.11216 -3.34476 9.44619
181 1 -1.1104 1.01895 2.35812 9.51346
184 1 -1.1104 0.864398 -0.646998 12.3975
186 2 2.2208 5.45337 -2.07554 7.94631
187 2 2.2208 5.44706 3.60159 7.79634
188 1 -1.1104 0.976285 -0.481094 9.57133
190 1 -1.1104 3.80123 -3.39675 12.3214
191 1 -1.1104 3.92471 2.04736 12.246
192 2 2.2208 2.33704 0.894962 8.14407
193 1 -1.1104 3.82527 -3.47721 9.39818
194 1 -1.1104 3.81594 2.20043 9.45571
195 2 2.2208 2.44754 -1.98486 10.8984
196 2 2.2208 2.36444 3.67277 10.9664
197 1 -1.1104 3.72726 -0.529059 12.2814
198 1 -1.1104 3.93676 -0.726339 9.43519
201 2 2.2208 -0.606892 0.697772 10.8572
321 1 -1.1104 9.56507 19.1579 12.4858
328 1 -1.1104 12.1294 13.3698 9.29143
297 1 -1.1104 6.61256 13.3777 12.3112
199 2 2.2208 -0.363158 3.78085 8.17572
209 1 -1.1104 9.6175 2.14576 6.58032
179 1 -1.1104 6.81148 2.26853 12.3123
189 1 -1.1104 7.00154 -0.581735 9.39325
169 1 -1.1104 6.72423 1.90885 6.53343
206 1 -1.1104 12.2757 2.14504 6.51147
207 1 -1.1104 12.2786 -0.577759 6.72996
171 1 -1.1104 6.71914 -0.771207 6.61281
168 1 -1.1104 6.61107 -3.63931 6.63603
208 1 -1.1104 9.49464 -3.35967 6.67897
205 1 -1.1104 12.4796 -3.38068 6.70242
185 1 -1.1104 6.61746 -0.67221 12.1056
182 1 -1.1104 6.60697 -3.68932 9.27085
183 1 -1.1104 6.5662 2.11648 9.41932
178 1 -1.1104 6.6867 -3.5163 12.3681
211 2 2.2208 10.9889 0.881389 11.0427
212 1 -1.1104 12.2753 -3.38091 12.3124
213 1 -1.1104 12.3164 2.38745 12.3278
214 1 -1.1104 12.2271 -3.46476 9.47421
215 1 -1.1104 12.2899 2.19792 9.48318
216 1 -1.1104 12.3864 -0.576453 12.4269
217 2 2.2208 10.7856 -2.18547 8.05331
218 2 2.2208 10.8361 3.61641 8.06969
219 1 -1.1104 12.4237 -0.518118 9.45043
220 1 -1.1104 9.59504 -3.53774 12.2619
221 1 -1.1104 9.36929 2.02669 12.0737
222 2 2.2208 8.11066 0.818905 8.03145
223 1 -1.1104 9.32198 -3.52965 9.49402
224 1 -1.1104 9.37467 2.37696 9.48113
225 2 2.2208 8.18586 -2.05879 10.7288
226 2 2.2208 8.09149 3.57317 10.9735
227 1 -1.1104 9.43708 -0.716121 12.2231
228 1 -1.1104 9.69653 -0.607883 9.56187
9279 2 2.2208 13.8472 3.61459 5.26803
563 2 2.2208 2.3264 3.51324 -0.545168
237 1 -1.1104 6.78102 4.94319 6.53034
156 1 -1.1104 9.50072 19.2672 6.72221
289 1 -1.1104 6.86385 16.2551 9.51349
78 1 -1.1104 3.74491 10.5013 6.81968
238 1 -1.1104 4.03492 7.74707 6.52176
240 2 2.2208 5.34435 6.36396 10.6448
241 2 2.2208 5.12848 11.99 10.9281
242 1 -1.1104 1.18123 7.74485 12.1788
244 1 -1.1104 0.960275 7.84866 9.17447
246 1 -1.1104 0.992134 5.01126 12.0348
247 1 -1.1104 1.0473 10.5128 12.2441
250 2 2.2208 5.19018 9.09074 7.93508
251 1 -1.1104 1.04789 5.04577 9.40362
252 1 -1.1104 0.975797 10.4609 9.40406
255 1 -1.1104 4.02495 7.62575 12.1229
256 2 2.2208 2.40275 6.40274 7.99612
257 2 2.2208 2.49585 11.8842 8.04191
258 1 -1.1104 3.73704 7.98781 9.16137
259 2 2.2208 2.54959 9.16877 10.7262
260 1 -1.1104 3.89276 4.86556 12.3982
261 1 -1.1104 3.79411 10.4416 12.3049
262 1 -1.1104 3.86103 5.1122 9.39707
263 1 -1.1104 3.81421 10.6721 9.48336
245 1 -1.1104 6.55711 7.77162 9.24593
154 1 -1.1104 9.3689 13.3943 6.73842
288 1 -1.1104 6.65607 19.1956 9.47387
326 1 -1.1104 12.3716 16.2312 12.3157
265 1 -1.1104 12.5053 7.83079 6.79695
248 1 -1.1104 6.81085 5.04765 11.9944
249 1 -1.1104 6.71025 10.5936 11.9356
235 1 -1.1104 6.78973 7.60793 6.37396
90 1 -1.1104 12.1586 10.5658 6.70135
266 1 -1.1104 12.2624 5.07939 6.69926
269 1 -1.1104 9.48291 4.93612 6.59178
254 1 -1.1104 6.53107 10.5913 9.27259
267 1 -1.1104 9.67255 7.79729 6.48051
243 1 -1.1104 6.78405 7.77486 12.1059
253 1 -1.1104 6.68094 5.00433 9.15474
264 1 -1.1104 9.45936 10.6237 9.35004
268 1 -1.1104 9.51241 5.09625 9.58302
270 1 -1.1104 9.49917 10.7001 12.2722
271 1 -1.1104 9.60277 5.05792 12.1998
272 2 2.2208 8.08152 9.25599 10.6509
273 1 -1.1104 9.5289 7.8136 9.29317
274 2 2.2208 7.93619 12.0965 8.02845
275 2 2.2208 8.1167 6.43103 8.05171
276 2 2.2208 10.9853 6.46768 10.8712
277 2 2.2208 10.8169 11.9888 10.8648
278 1 -1.1104 12.2854 7.77428 12.5329
279 1 -1.1104 12.3539 7.7168 9.59092
280 1 -1.1104 12.2259 5.02147 12.3644
281 1 -1.1104 12.3037 10.4546 12.1769
282 2 2.2208 10.8189 9.19219 7.9755
283 1 -1.1104 12.2827 4.86042 9.57291
284 1 -1.1104 12.2282 10.6682 9.49542
285 1 -1.1104 9.40566 7.83908 12.2113
330 1 -1.1104 12.1085 13.2657 12.1253
325 2 2.2208 10.6273 14.6304 7.91339
108 1 -1.1104 0.886357 13.5199 6.56702
133 1 -1.1104 3.74191 16.1378 6.66112
117 1 -1.1104 1.12541 16.5164 6.59339
126 1 -1.1104 3.87342 18.9978 6.54026
302 1 -1.1104 1.23327 19.2112 6.78002
286 1 -1.1104 3.78484 18.9921 12.4949
287 1 -1.1104 3.81679 13.2289 12.1789
291 1 -1.1104 1.13829 18.9722 9.46042
292 1 -1.1104 1.21756 16.2703 9.46682
293 2 2.2208 5.30749 20.4485 8.07806
294 1 -1.1104 1.19102 13.4473 9.42507
295 2 2.2208 5.29764 14.8168 8.08938
298 1 -1.1104 1.16984 19.0876 12.3828
299 1 -1.1104 1.18263 13.2635 12.4192
300 2 2.2208 5.23876 17.5585 11.1078
301 1 -1.1104 3.96268 18.9371 9.52092
303 2 2.2208 2.53156 17.732 7.92096
304 1 -1.1104 3.94958 16.1083 9.5708
305 1 -1.1104 3.86883 13.353 9.4316
307 1 -1.1104 0.931843 16.1154 12.3583
308 1 -1.1104 3.90631 16.2314 12.4972
309 2 2.2208 2.48186 20.5805 10.9608
310 2 2.2208 2.48626 14.8852 10.9083
111 1 -1.1104 6.66824 13.5749 6.65401
290 1 -1.1104 6.62356 13.3682 9.51485
118 1 -1.1104 6.62839 16.2775 6.46383
296 1 -1.1104 6.66911 19.26 12.2319
327 1 -1.1104 12.2085 18.9489 9.29363
314 1 -1.1104 9.59834 16.1982 9.48596
322 1 -1.1104 9.51799 13.4563 12.336
317 2 2.2208 8.14506 14.7078 10.9558
145 1 -1.1104 12.2697 19.0796 6.76903
112 1 -1.1104 6.66933 19.0693 6.60945
319 1 -1.1104 9.40236 13.3202 9.47275
163 1 -1.1104 9.58446 16.2084 6.62438
323 1 -1.1104 12.323 16.1064 9.44175
316 2 2.2208 8.08477 20.6345 10.76
628 2 2.2208 5.15872 11.9318 -0.541059
507 2 2.2208 5.15743 20.6194 13.7645
27 2 2.2208 -0.447908 3.49083 2.3363
593 2 2.2208 8.07554 3.58011 -0.509192
707 2 2.2208 10.84 17.7863 -0.329064
680 2 2.2208 2.46307 20.4303 -0.402527
372 2 2.2208 -0.511261 -2.05752 13.7442
9509 2 2.2208 -0.383837 6.39562 10.8674
506 2 2.2208 2.3459 17.5087 13.7233
9356 2 2.2208 13.8665 20.4823 5.24086
569 2 2.2208 -0.596316 0.780596 -0.411453
9508 2 2.2208 -0.432201 9.21384 7.99434
562 2 2.2208 2.4054 -1.88769 -0.293244
49 2 2.2208 14.007 0.885014 2.44105
508 2 2.2208 5.39901 14.8632 13.6292
9793 2 2.2208 -0.332809 20.4152 13.7419
445 2 2.2208 2.50006 12.0484 13.847
708 2 2.2208 7.90208 14.8203 -0.383037
651 2 2.2208 10.9904 6.33528 -0.376301
652 2 2.2208 8.08455 9.18922 -0.446526
408 2 2.2208 10.8782 -2.09806 13.6905
374 2 2.2208 5.19845 -2.08591 13.721
334 2 2.2208 5.28526 0.562913 16.3476
335 1 -1.1104 1.10769 -3.58494 17.9461
336 1 -1.1104 1.16117 1.99129 18.0272
339 1 -1.1104 1.1021 -3.39907 15.1496
341 1 -1.1104 1.03579 2.31157 15.1233
347 1 -1.1104 1.02458 -0.769458 17.9681
349 2 2.2208 5.21625 -2.17288 19.3139
350 2 2.2208 5.28065 3.26058 19.3032
351 1 -1.1104 1.18792 -0.456742 15.0105
355 1 -1.1104 3.85041 -3.67191 17.7735
356 1 -1.1104 4.13217 1.92405 18.0181
357 2 2.2208 2.49893 0.644508 19.4527
358 1 -1.1104 3.78358 -3.52367 15.0265
360 1 -1.1104 3.93896 1.95723 14.9505
362 2 2.2208 2.46906 -2.13444 16.4655
363 2 2.2208 2.56315 3.48947 16.4243
364 1 -1.1104 3.73521 -0.928203 17.7763
365 1 -1.1104 3.90474 -0.673827 15.0856
361 1 -1.1104 3.89077 1.97881 20.7125
359 1 -1.1104 3.59153 -3.51783 20.6933
595 2 2.2208 10.9178 -5.02165 27.704
337 1 -1.1104 6.78546 -3.65351 17.7859
698 2 2.2208 10.933 20.4068 24.8867
443 2 2.2208 2.52823 6.41477 13.6266
694 2 2.2208 8.00623 17.6122 25.0912
342 1 -1.1104 1.05784 2.30682 20.6632
371 2 2.2208 -0.491027 -2.0994 19.3407
470 2 2.2208 8.15193 6.36471 13.5866
343 1 -1.1104 6.68803 -3.62598 15.0957
348 1 -1.1104 6.7688 -0.657285 17.7
353 1 -1.1104 6.80441 -0.732957 14.8797
338 1 -1.1104 6.69015 2.1526 17.9898
345 1 -1.1104 6.79138 1.81303 15.0717
377 2 2.2208 11.0089 0.868427 16.4126
378 1 -1.1104 12.3435 -3.56525 17.8954
379 1 -1.1104 12.3101 2.16501 17.928
380 1 -1.1104 12.3105 -3.24041 15.0963
382 1 -1.1104 12.101 2.38316 15.2891
384 1 -1.1104 12.4637 -0.37318 17.9392
385 2 2.2208 10.9805 -1.92092 19.4658
386 2 2.2208 10.9588 3.56997 19.3909
387 1 -1.1104 12.197 -0.622997 15.1074
389 1 -1.1104 9.56424 -3.35714 17.8043
390 1 -1.1104 9.46882 2.27434 17.8196
391 2 2.2208 8.20759 0.875054 19.3519
392 1 -1.1104 9.39217 -3.46705 15.1631
394 1 -1.1104 9.51695 2.10396 14.8426
396 2 2.2208 8.11017 -1.95433 16.4104
397 2 2.2208 8.14386 3.43459 16.3023
398 1 -1.1104 9.79698 -0.365686 18.036
399 1 -1.1104 9.491 -0.707163 15.0719
383 1 -1.1104 12.4749 2.15239 20.6929
354 1 -1.1104 6.64561 -0.575383 20.5814
9685 2 2.2208 -0.393773 12.0167 16.6235
346 1 -1.1104 6.7849 2.13932 20.7171
395 1 -1.1104 9.66462 2.24956 20.833
381 1 -1.1104 12.2622 -3.49404 20.7897
400 1 -1.1104 9.45845 -0.636926 20.6759
393 1 -1.1104 9.51317 -3.38824 20.7495
9750 2 2.2208 13.9422 17.4577 19.3266
375 2 2.2208 2.35527 0.840299 13.5496
599 2 2.2208 13.7086 -2.21912 22.1258
410 2 2.2208 5.28785 6.17171 16.5962
411 2 2.2208 5.34473 11.9016 16.3967
412 1 -1.1104 1.10902 7.71794 17.7695
414 1 -1.1104 1.08726 7.78727 15.1258
418 1 -1.1104 0.975776 4.77482 17.7245
419 1 -1.1104 1.14906 10.6728 17.8476
422 2 2.2208 5.30964 9.26672 19.1882
423 1 -1.1104 1.28101 5.0408 14.953
425 1 -1.1104 1.03319 10.5878 15.0657
431 1 -1.1104 3.91533 7.70597 17.9303
432 2 2.2208 2.49959 6.25798 19.1253
433 2 2.2208 2.50889 12.1761 19.1324
434 1 -1.1104 3.74025 7.95838 15.0878
436 2 2.2208 2.47383 9.38092 16.3911
437 1 -1.1104 3.83047 4.64995 17.762
438 1 -1.1104 3.92692 10.8547 17.8958
439 1 -1.1104 4.04815 4.8522 15.0998
441 1 -1.1104 3.78185 10.7156 15.1273
600 2 2.2208 13.8264 0.842144 25.0348
9792 2 2.2208 -0.456006 14.7015 13.5732
442 1 -1.1104 3.86185 10.6285 20.4848
424 1 -1.1104 1.05069 4.96812 20.6647
9811 2 2.2208 13.8113 3.55472 22.2408
9790 2 2.2208 -0.270683 14.8815 19.1723
427 1 -1.1104 6.69495 4.73459 14.9356
429 1 -1.1104 6.59627 10.4692 14.9698
421 1 -1.1104 6.59033 10.4919 17.7073
413 1 -1.1104 6.66511 7.79534 17.9142
416 1 -1.1104 6.47364 7.60097 14.9495
420 1 -1.1104 6.44087 4.81394 17.9429
446 2 2.2208 10.6027 6.38207 16.6329
447 2 2.2208 10.9228 11.8971 16.5277
448 1 -1.1104 12.1731 7.51458 18.0656
449 1 -1.1104 12.1776 7.88305 15.271
451 1 -1.1104 12.09 4.94656 17.7821
452 1 -1.1104 12.358 10.4857 17.8961
453 2 2.2208 10.8571 9.14804 19.3744
454 1 -1.1104 12.1824 5.32044 15.1565
456 1 -1.1104 12.2806 10.5895 15.1531
458 1 -1.1104 9.32478 7.77564 17.9485
459 2 2.2208 8.04214 6.20371 19.3574
460 2 2.2208 8.19099 12.0186 19.3541
461 1 -1.1104 9.2067 7.71612 14.9967
463 2 2.2208 8.01688 9.15898 16.4744
464 1 -1.1104 9.19557 5.05136 17.7281
465 1 -1.1104 9.60169 10.3995 17.8298
466 1 -1.1104 9.48664 4.9428 14.9886
468 1 -1.1104 9.42675 10.414 15.1428
9647 2 2.2208 -0.402975 3.35443 19.327
450 1 -1.1104 12.4419 7.86779 20.8799
417 1 -1.1104 6.80412 7.8869 20.7174
428 1 -1.1104 6.69153 4.98086 20.6652
457 1 -1.1104 12.0702 10.6166 20.7608
376 2 2.2208 5.27388 3.46316 13.6398
682 2 2.2208 2.36397 14.7961 27.7897
9748 2 2.2208 13.8891 14.6666 16.4819
533 2 2.2208 10.9722 20.4927 13.5508
687 1 -1.1104 9.32198 16.2142 26.5907
473 2 2.2208 5.41244 17.6819 16.5515
474 1 -1.1104 0.817286 13.5881 17.8372
475 1 -1.1104 1.07271 18.9714 17.8351
478 1 -1.1104 0.998174 13.2632 15.2673
480 1 -1.1104 1.00545 19.03 15.1273
486 1 -1.1104 0.949503 16.1983 17.9789
488 2 2.2208 5.13993 14.903 19.3903
489 2 2.2208 5.3244 20.3081 19.4263
490 1 -1.1104 1.10367 16.0758 15.258
494 1 -1.1104 3.88437 13.5615 17.8174
495 1 -1.1104 3.94857 18.7946 17.9773
496 2 2.2208 2.57129 17.561 19.2869
497 1 -1.1104 4.05784 13.4493 14.9945
499 1 -1.1104 3.95278 19.1945 15.1971
501 2 2.2208 2.59174 14.7208 16.3602
502 2 2.2208 2.53956 20.5051 16.4656
503 1 -1.1104 4.06346 16.262 17.9391
504 1 -1.1104 3.8593 16.2647 15.0932
572 2 2.2208 -0.435164 3.34352 24.7983
9720 2 2.2208 -0.413242 6.33341 16.4549
444 2 2.2208 5.32042 9.11769 13.5267
487 1 -1.1104 6.86907 16.3418 17.8054
479 1 -1.1104 1.11636 13.3877 20.5898
491 1 -1.1104 1.19004 16.0941 20.5588
481 1 -1.1104 1.06213 18.9453 20.6031
706 2 2.2208 8.14206 20.5362 27.8688
520 1 -1.1104 12.1595 16.2239 20.9598
513 1 -1.1104 12.3828 13.4566 20.8396
484 1 -1.1104 6.68521 18.8961 14.9331
695 1 -1.1104 9.64197 19.163 23.3759
476 1 -1.1104 6.70002 13.2116 17.9285
482 1 -1.1104 6.65614 13.4266 15.0756
492 1 -1.1104 6.56104 16.0671 15.1016
477 1 -1.1104 6.7907 19.0408 18.0259
509 2 2.2208 11.1031 17.4181 16.3871
510 1 -1.1104 12.1938 13.4247 17.9591
511 1 -1.1104 12.5171 18.8521 17.7128
512 1 -1.1104 12.3987 13.357 15.123
514 1 -1.1104 12.436 18.7819 14.9735
516 1 -1.1104 12.5386 16.1309 18.0364
517 2 2.2208 11.0205 14.8606 19.3199
518 2 2.2208 10.8613 20.2026 19.0155
519 1 -1.1104 12.3928 16.1179 15.0676
521 1 -1.1104 9.43496 13.4074 18.0251
522 1 -1.1104 9.69528 18.8054 17.7162
523 2 2.2208 8.05789 17.4061 19.2945
524 1 -1.1104 9.62485 13.3959 15.0255
526 1 -1.1104 9.61332 18.9336 15.1085
528 2 2.2208 8.16279 14.8537 16.5145
529 2 2.2208 8.26507 20.4391 16.5882
530 1 -1.1104 9.58119 16.216 17.9029
531 1 -1.1104 9.42067 16.0914 14.9571
667 1 -1.1104 6.55722 13.4213 23.656
686 2 2.2208 -0.309877 17.5878 22.0083
485 1 -1.1104 6.65255 18.8083 20.7775
9678 2 2.2208 13.7817 9.0878 16.5442
571 2 2.2208 -0.457928 0.675829 22.1454
340 1 -1.1104 0.867901 -3.33055 20.9645
366 1 -1.1104 3.96609 -0.776256 20.6274
352 1 -1.1104 1.22244 -0.521123 20.8617
537 2 2.2208 5.44752 0.681677 22.0531
538 1 -1.1104 1.08003 -3.64186 23.7742
539 1 -1.1104 1.04522 1.90564 23.3991
542 1 -1.1104 0.914115 -3.45118 26.3986
543 1 -1.1104 0.926278 2.23507 26.2884
546 1 -1.1104 0.979403 -0.630911 23.7413
548 2 2.2208 5.29174 -1.94612 24.8638
549 2 2.2208 5.18234 3.72236 24.8193
550 1 -1.1104 1.11834 -0.623124 26.5893
552 1 -1.1104 3.85424 -3.34533 23.5744
553 1 -1.1104 3.95755 2.00316 23.5529
554 2 2.2208 2.384 0.794261 24.8861
555 1 -1.1104 3.74321 -3.29843 26.3271
556 1 -1.1104 3.86748 2.20403 26.3714
557 2 2.2208 2.39534 -2.08303 22.1961
558 2 2.2208 2.57331 3.57122 21.9736
559 1 -1.1104 3.95336 -0.731896 23.3833
560 1 -1.1104 4.04828 -0.502595 26.4237
547 1 -1.1104 7.08095 -0.460609 23.2642
472 2 2.2208 8.07626 11.9248 13.6032
701 1 -1.1104 12.2855 19.0366 26.5039
344 1 -1.1104 6.73005 -3.66103 20.6964
541 1 -1.1104 6.63935 2.42998 23.5411
540 1 -1.1104 6.71794 -3.23125 23.6054
388 1 -1.1104 12.3607 -0.547158 20.8513
551 1 -1.1104 6.61795 -0.546017 26.152
544 1 -1.1104 6.51131 -3.41237 26.4583
545 1 -1.1104 6.67023 2.24752 26.2276
573 2 2.2208 10.9982 0.81928 22.1642
574 1 -1.1104 12.3164 -3.53535 23.6833
575 1 -1.1104 12.5308 1.96096 23.4591
576 1 -1.1104 12.1237 -3.54789 26.3846
577 1 -1.1104 12.4151 2.08605 26.4035
578 1 -1.1104 12.3053 -0.785736 23.589
579 2 2.2208 10.9638 -2.04739 24.9678
580 2 2.2208 10.7375 3.74751 24.9464
581 1 -1.1104 12.3821 -0.636191 26.3699
582 1 -1.1104 9.38869 -3.57684 23.4865
583 1 -1.1104 9.61577 2.33009 23.5559
584 2 2.2208 8.2203 0.746589 24.9503
585 1 -1.1104 9.22813 -3.44225 26.3089
586 1 -1.1104 9.59964 2.12996 26.4055
587 2 2.2208 8.23679 -2.06008 22.1301
588 2 2.2208 8.15029 3.67322 22.0769
589 1 -1.1104 9.68976 -0.597218 23.3606
590 1 -1.1104 9.56829 -0.770939 26.4593
705 2 2.2208 10.9171 17.5937 22.1844
435 1 -1.1104 3.8358 7.65197 20.6487
653 2 2.2208 10.9223 11.9575 27.9156
9791 2 2.2208 -0.403232 17.666 16.5392
440 1 -1.1104 3.9584 4.62482 20.4957
426 1 -1.1104 1.05014 10.7896 20.5896
415 1 -1.1104 1.16605 7.66499 20.6007
602 2 2.2208 5.31196 6.33978 21.9307
603 2 2.2208 5.23588 11.8987 22.1446
604 1 -1.1104 1.13484 7.49062 23.2797
606 1 -1.1104 0.90062 7.96405 26.3294
608 1 -1.1104 0.862363 4.59477 23.5471
609 1 -1.1104 0.857249 10.3213 23.6363
612 2 2.2208 5.08633 9.00408 24.8405
613 1 -1.1104 1.01972 4.88333 26.2012
614 1 -1.1104 0.983573 10.4808 26.3068
617 1 -1.1104 3.80994 7.749 23.3175
618 2 2.2208 2.22718 6.16552 24.8151
619 2 2.2208 2.22177 12.0331 24.8487
620 1 -1.1104 3.81472 7.73196 26.4107
621 2 2.2208 2.51528 9.16111 21.8679
622 1 -1.1104 3.74188 5.04257 23.2019
623 1 -1.1104 3.68277 10.5261 23.3075
624 1 -1.1104 3.73358 5.05885 26.278
625 1 -1.1104 3.8042 10.5296 26.2091
615 1 -1.1104 6.8398 5.07279 26.3277
610 1 -1.1104 6.63931 5.19436 23.4238
591 2 2.2208 11.1144 0.763229 27.7812
691 1 -1.1104 9.55907 19.0196 26.1879
430 1 -1.1104 6.59442 10.6458 20.6373
467 1 -1.1104 9.50917 4.96377 20.5964
690 2 2.2208 8.13457 14.7217 22.12
616 1 -1.1104 6.57914 10.5902 26.2372
469 1 -1.1104 9.39949 10.6112 20.7929
455 1 -1.1104 12.2161 5.07997 20.6357
605 1 -1.1104 6.6149 7.89868 23.3859
611 1 -1.1104 6.6747 10.5882 23.4308
607 1 -1.1104 6.87033 7.76923 26.1874
462 1 -1.1104 9.65818 7.79709 20.7351
633 1 -1.1104 9.52617 10.5385 26.4646
634 1 -1.1104 9.53661 4.96736 26.2245
635 1 -1.1104 9.45668 10.7571 23.4787
636 1 -1.1104 9.68639 5.06174 23.3558
637 2 2.2208 8.05872 9.15418 22.1156
638 1 -1.1104 9.64676 7.84721 26.3611
639 2 2.2208 8.02049 12.0311 25.1106
640 2 2.2208 8.20885 6.52152 24.9148
641 2 2.2208 11.0823 6.46577 22.2065
642 2 2.2208 10.825 12.0178 22.2479
643 1 -1.1104 12.3348 7.9404 23.3511
644 1 -1.1104 12.439 7.7383 26.2952
645 1 -1.1104 12.3236 4.91503 23.5006
646 1 -1.1104 12.3542 10.6139 23.5887
647 2 2.2208 10.8939 9.32028 25.0256
648 1 -1.1104 12.2661 4.88603 26.3145
649 1 -1.1104 12.2725 10.5053 26.4009
650 1 -1.1104 9.46005 7.81289 23.58
689 2 2.2208 8.13654 20.3291 21.9825
515 1 -1.1104 12.1959 19.1254 20.6908
483 1 -1.1104 6.59282 13.4668 20.7298
658 1 -1.1104 6.64469 13.3056 26.441
693 1 -1.1104 6.66274 18.9476 26.456
493 1 -1.1104 6.70109 16.1674 20.7074
498 1 -1.1104 3.85885 13.4231 20.5211
500 1 -1.1104 3.90486 19.2578 20.7472
505 1 -1.1104 3.98954 16.3378 20.7771
672 2 2.2208 2.47557 17.5982 24.9692
677 1 -1.1104 3.90586 16.194 23.6621
676 1 -1.1104 0.961668 16.1275 23.5996
671 1 -1.1104 3.91678 18.9238 26.3305
679 2 2.2208 2.42849 14.8414 21.9778
670 2 2.2208 5.23272 17.7508 22.1608
669 1 -1.1104 1.05859 13.4009 23.2878
678 2 2.2208 2.44463 20.3143 21.988
673 1 -1.1104 3.82452 16.1014 26.6664
674 1 -1.1104 3.83721 13.343 26.3748
657 1 -1.1104 4.00261 19.2644 23.4286
659 1 -1.1104 3.74707 13.2929 23.6129
661 1 -1.1104 1.33995 19.1551 26.2295
662 1 -1.1104 1.09005 16.1284 26.2821
663 1 -1.1104 1.01808 13.4541 26.2442
665 2 2.2208 5.36471 20.3547 25.0041
666 2 2.2208 5.22525 14.779 25.0869
668 1 -1.1104 1.25445 18.8831 23.2696
664 1 -1.1104 6.83742 18.916 23.5834
660 1 -1.1104 6.63008 16.0921 26.4351
702 1 -1.1104 12.0557 13.4107 26.5544
697 1 -1.1104 12.1005 16.2312 26.3837
692 1 -1.1104 9.32105 13.3205 26.5784
525 1 -1.1104 9.64027 13.3881 20.794
527 1 -1.1104 9.32898 19.0647 20.3869
675 1 -1.1104 6.68195 16.2479 23.6462
688 1 -1.1104 9.79031 16.3663 23.5891
700 1 -1.1104 12.433 16.2228 23.7013
696 1 -1.1104 9.43171 13.5217 23.7247
703 1 -1.1104 12.3487 19.1527 23.3588
699 2 2.2208 10.6433 14.8571 25.0925
704 1 -1.1104 12.2198 13.5252 23.855
532 1 -1.1104 9.4111 16.127 20.7453
9610 2 2.2208 13.85 0.88513 19.3228
9898 2 2.2208 -0.411361 6.33624 22.0299
681 2 2.2208 5.10611 17.6591 27.7998
631 2 2.2208 -0.394721 12.1899 22.0512
407 2 2.2208 8.11937 0.740876 13.4726
592 2 2.2208 7.99369 -1.93697 27.79
627 2 2.2208 2.45674 9.23971 27.8303
626 2 2.2208 5.2997 6.37882 27.7589
535 2 2.2208 8.17205 17.853 13.6638
9651 2 2.2208 -0.440527 3.61506 13.6898
714 2 2.2208 5.3869 23.2046 5.39867
715 2 2.2208 5.29595 28.754 5.12301
716 1 -1.1104 1.09471 24.5362 1.01521
717 1 -1.1104 0.886273 24.7297 3.84513
718 1 -1.1104 1.08059 21.8557 0.959864
719 1 -1.1104 1.10148 27.2448 1.05952
720 2 2.2208 5.26397 26.0839 2.36075
721 1 -1.1104 1.27786 21.8974 3.90023
722 1 -1.1104 1.16714 27.5819 3.8256
723 1 -1.1104 3.87417 24.6256 1.09084
724 2 2.2208 2.48288 23.2977 2.37046
725 2 2.2208 2.52613 28.9377 2.4914
726 1 -1.1104 3.93151 24.7853 3.85494
727 2 2.2208 2.3163 26.0965 5.24118
728 1 -1.1104 3.80568 21.9122 1.02226
729 1 -1.1104 3.91777 27.512 0.987554
730 1 -1.1104 4.06752 21.8968 3.78071
731 1 -1.1104 3.87047 27.5179 3.84585
1060 2 2.2208 2.48372 43.0134 -0.358876
1636 1 -1.1104 9.46021 47.1981 11.837
740 1 -1.1104 6.51194 27.43 3.80817
1057 2 2.2208 5.28352 45.6647 -0.133838
737 1 -1.1104 6.65566 22.0387 1.09361
738 1 -1.1104 6.55255 27.5022 0.871514
10138 2 2.2208 -0.402157 26.1747 8.18344
1049 2 2.2208 10.9989 29.0769 -0.488445
807 2 2.2208 13.7917 34.5929 2.45519
1276 2 2.2208 2.39032 26.0042 -0.378353
739 1 -1.1104 6.89028 21.9002 3.88731
736 1 -1.1104 6.8263 24.7352 3.75049
735 1 -1.1104 6.77401 24.6885 0.993135
741 2 2.2208 11.0057 23.2573 5.36485
742 2 2.2208 10.8797 28.9992 5.10484
743 1 -1.1104 12.294 24.7344 1.02376
744 1 -1.1104 12.1335 24.6488 3.8904
745 1 -1.1104 12.1198 21.8289 1.0243
746 1 -1.1104 12.1803 27.6253 0.852872
747 2 2.2208 10.8223 26.0125 2.40174
748 1 -1.1104 12.2806 21.8211 3.83197
749 1 -1.1104 12.3323 27.4813 3.55885
750 1 -1.1104 9.41665 24.4943 0.787026
751 2 2.2208 8.09845 23.4008 2.4117
752 2 2.2208 8.06125 28.8123 2.37483
753 1 -1.1104 9.4801 24.777 3.86426
754 2 2.2208 8.18362 26.0584 5.25677
755 1 -1.1104 9.35923 21.8085 1.21757
756 1 -1.1104 9.42051 27.6386 0.945827
757 1 -1.1104 9.53768 21.7994 4.04905
758 1 -1.1104 9.3577 27.3918 3.73662
1306 2 2.2208 8.09041 26.1446 -0.430128
890 1 -1.1104 12.1359 27.333 6.46005
734 2 2.2208 -0.345974 26.0551 2.41933
1275 2 2.2208 5.2695 23.3116 -0.368012
1005 2 2.2208 -0.407884 40.175 10.8598
1399 1 -1.1104 0.93716 47.1557 4.02682
1033 2 2.2208 13.6617 42.9784 -0.355768
1047 2 2.2208 5.26781 28.9881 -0.419466
762 2 2.2208 5.12543 34.5523 5.20976
763 1 -1.1104 1.08244 30.1172 0.94973
764 1 -1.1104 0.980845 36.1066 1.0284
766 1 -1.1104 1.02114 30.343 3.92249
767 1 -1.1104 1.05533 35.7972 3.85977
769 1 -1.1104 1.05358 33.0254 0.920522
770 2 2.2208 5.28549 31.6762 2.54472
771 2 2.2208 5.18879 37.3246 2.42463
772 1 -1.1104 1.12072 33.1448 3.67925
774 1 -1.1104 3.95284 30.393 1.13407
775 1 -1.1104 3.83367 35.8724 0.939557
776 2 2.2208 2.40462 34.5024 2.28163
777 1 -1.1104 3.84036 30.4196 3.97545
778 1 -1.1104 3.8096 36.0295 3.77857
779 2 2.2208 2.42968 31.7384 5.15037
780 2 2.2208 2.41986 37.3592 5.242
781 1 -1.1104 3.79425 33.1067 0.972829
782 1 -1.1104 3.87052 33.2902 3.73366
783 2 2.2208 -0.339943 37.3005 2.5264
1594 1 -1.1104 1.1965 47.1396 12.4868
788 1 -1.1104 6.42662 33.3396 1.03509
787 1 -1.1104 6.52569 30.3636 3.9228
765 1 -1.1104 6.66382 35.9298 1.1956
919 1 -1.1104 3.69959 36.0654 6.75575
914 1 -1.1104 6.81463 30.2083 6.56551
773 1 -1.1104 6.76087 32.9378 3.85664
786 1 -1.1104 6.71998 30.2716 1.12022
768 1 -1.1104 6.58237 35.8904 3.95504
789 2 2.2208 10.7915 34.5465 5.38523
790 1 -1.1104 12.1754 30.4695 1.05278
791 1 -1.1104 12.2506 35.939 1.22966
792 1 -1.1104 12.2173 30.2419 3.81093
793 1 -1.1104 12.2404 36.0132 4.03132
794 1 -1.1104 12.2508 33.2394 0.882478
795 2 2.2208 10.8875 31.8801 2.48953
796 2 2.2208 10.7502 37.1864 2.47581
797 1 -1.1104 12.462 33.1318 3.82294
798 1 -1.1104 9.48319 30.286 0.947867
799 1 -1.1104 9.23874 35.8703 1.10797
800 2 2.2208 7.94305 34.4307 2.47586
801 1 -1.1104 9.38536 30.2496 3.9305
802 1 -1.1104 9.34952 35.7663 3.86578
803 2 2.2208 8.06405 31.7207 5.33224
804 2 2.2208 7.9614 37.3167 5.31264
805 1 -1.1104 9.44633 33.0583 1.15348
806 1 -1.1104 9.466 33.101 3.94989
1035 2 2.2208 5.2469 37.4352 13.7024
1630 1 -1.1104 12.0499 47.0254 9.45065
946 1 -1.1104 12.2948 30.1535 6.49581
834 2 2.2208 -0.476884 40.2747 5.16139
10009 2 2.2208 13.7166 31.6458 5.1397