ITEM: TIMESTEP
30000
ITEM: NUMBER OF ATOMS
17910
ITEM: BOX BOUNDS pp pp pp
-3.9361359503111171e-01 2.7733613595030995e+01
-4.8020706751985553e+00 3.3288207067519625e+02
-4.0583531075836599e-01 2.7745835310758661e+01
ITEM: ATOMS id type q x y z
1 2 2.2208 5.50868 0.861291 5.34444
2 1 -1.1104 1.2316 -3.02597 1.05114
3 1 -1.1104 1.15489 2.44869 1.20106
6 1 -1.1104 1.20771 -3.44378 3.92182
7 1 -1.1104 1.30357 2.35049 4.09509
10 1 -1.1104 1.47996 -0.248802 1.14679
12 2 2.2208 5.42681 -2.13141 2.60021
14 1 -1.1104 1.28673 -0.546869 4.06151
16 1 -1.1104 3.96156 -3.29169 1.07251
17 1 -1.1104 3.97254 2.32364 1.2034
18 2 2.2208 2.66664 1.00381 2.57185
19 1 -1.1104 4.10689 -3.30584 4.09819
20 1 -1.1104 4.17688 2.42291 4.16018
21 2 2.2208 2.74286 -1.87035 5.48627
22 2 2.2208 2.60878 3.7987 5.32118
23 1 -1.1104 4.15364 -0.548976 1.39544
24 1 -1.1104 4.08373 -0.446999 4.07394
13 2 2.2208 5.3078 3.8075 2.52618
681 2 2.2208 5.40651 17.8261 -0.191477
680 2 2.2208 2.57562 20.6836 -0.34133
707 2 2.2208 11.1655 17.9153 -0.303612
26 2 2.2208 -0.0548463 0.883612 5.39794
25 2 2.2208 -0.189663 -1.94607 2.63582
330 1 -1.1104 12.5184 13.4306 12.4183
28 2 2.2208 2.59786 -4.70769 2.45251
203 2 2.2208 5.58515 -4.8193 11.1032
569 2 2.2208 -0.119445 0.984334 -0.150709
653 2 2.2208 11.017 12.1105 -0.169381
593 2 2.2208 8.36483 3.7799 -0.246619
11 1 -1.1104 6.7899 -0.454933 1.1035
15 1 -1.1104 7.00736 -0.449449 3.93628
8 1 -1.1104 6.86815 -3.42869 3.96075
5 1 -1.1104 6.82041 2.41189 1.02462
4 1 -1.1104 6.90294 -3.45051 1.11138
9 1 -1.1104 6.81821 2.21435 3.79577
31 2 2.2208 11.1413 0.933575 5.41647
32 1 -1.1104 12.4533 -3.13098 1.20086
33 1 -1.1104 12.5653 2.18374 1.16932
34 1 -1.1104 12.2112 -3.35116 3.83375
35 1 -1.1104 12.6042 2.2336 4.12902
36 1 -1.1104 12.4776 -0.497203 1.07154
37 2 2.2208 10.9757 -1.8053 2.5745
38 2 2.2208 11.1602 3.78788 2.47831
39 1 -1.1104 12.5139 -0.508315 3.99285
40 1 -1.1104 9.71898 -3.43422 1.37851
41 1 -1.1104 9.65243 2.29225 1.29222
42 2 2.2208 8.20554 0.895957 2.49736
43 1 -1.1104 9.63058 -3.25157 4.11667
44 1 -1.1104 9.81093 2.4019 3.9353
45 2 2.2208 8.16938 -1.95491 5.5248
46 2 2.2208 8.35517 3.73849 5.31494
47 1 -1.1104 9.63667 -0.381629 1.02991
48 1 -1.1104 9.7068 -0.52393 3.94817
592 2 2.2208 8.28465 -1.95876 -0.27961
591 2 2.2208 11.0655 0.989608 -0.209914
595 2 2.2208 10.9425 -4.78338 -0.172729
209 1 -1.1104 9.58029 2.25958 6.55895
169 1 -1.1104 6.8484 2.33535 6.85545
682 2 2.2208 2.61323 14.8819 -0.389641
231 2 2.2208 8.25153 -4.68723 8.13523
54 2 2.2208 5.43682 6.62205 5.30954
55 2 2.2208 5.40938 12.1567 5.3095
56 1 -1.1104 1.16342 7.92304 1.17379
58 1 -1.1104 1.00334 8.03887 3.90776
60 1 -1.1104 0.991951 5.11274 1.26925
61 1 -1.1104 1.14387 10.65 1.11759
66 2 2.2208 5.23527 9.34126 2.62574
67 1 -1.1104 1.25562 5.15697 3.98996
68 1 -1.1104 1.35658 10.8131 4.00214
71 1 -1.1104 4.03794 7.96471 1.07168
72 2 2.2208 2.46174 6.48196 2.53677
73 2 2.2208 2.59279 12.1081 2.48693
74 1 -1.1104 3.98027 7.76953 3.96543
75 2 2.2208 2.55589 9.4554 5.49795
76 1 -1.1104 3.81512 5.13885 1.15228
77 1 -1.1104 3.98102 10.6614 1.11938
79 1 -1.1104 4.10276 5.15702 3.83971
80 1 -1.1104 3.92192 10.6714 4.05334
82 2 2.2208 -0.204591 9.45116 2.57661
81 2 2.2208 -0.0488286 6.54126 5.34358
51 2 2.2208 8.32911 -4.86757 2.62934
83 2 2.2208 -0.192444 12.1288 5.38624
632 2 2.2208 -0.2872 6.43235 -0.347285
78 1 -1.1104 4.00651 10.8503 7.03714
234 1 -1.1104 1.2602 8.11984 6.87489
564 2 2.2208 -0.0731629 -4.59126 -0.298708
64 1 -1.1104 6.74996 10.6846 1.3082
70 1 -1.1104 6.50827 10.7076 3.93078
59 1 -1.1104 6.92141 8.00227 4.04292
63 1 -1.1104 6.74234 5.16374 1.24819
57 1 -1.1104 6.68581 7.94522 1.22886
69 1 -1.1104 6.8836 5.18922 3.90672
84 2 2.2208 11.1093 6.83763 5.38996
85 2 2.2208 11.1341 12.2733 5.26986
86 1 -1.1104 12.5577 7.79699 1.08456
87 1 -1.1104 12.4898 7.94564 4.01615
88 1 -1.1104 12.5101 5.05108 1.12755
89 1 -1.1104 12.3807 10.6703 1.13808
91 2 2.2208 11.1142 9.26057 2.52523
92 1 -1.1104 12.5996 5.00825 3.92091
93 1 -1.1104 12.2506 10.7344 3.93277
94 1 -1.1104 9.60184 7.86711 0.973431
95 2 2.2208 8.16783 6.60847 2.60215
96 2 2.2208 8.23491 12.2297 2.58766
97 1 -1.1104 9.57467 8.16783 3.82485
98 2 2.2208 8.19241 9.44635 5.2396
99 1 -1.1104 9.75798 4.97576 1.09729
100 1 -1.1104 9.71065 10.6332 1.21041
102 1 -1.1104 9.6717 5.57799 3.84059
103 1 -1.1104 9.6155 10.9197 3.95196
652 2 2.2208 8.26563 9.13157 -0.235344
324 2 2.2208 11.2833 20.5026 8.14392
267 1 -1.1104 9.50809 7.79645 6.71288
235 1 -1.1104 6.66408 8.00911 6.82423
65 1 -1.1104 6.92872 10.8338 6.51283
269 1 -1.1104 10.0753 4.97657 6.62836
626 2 2.2208 5.41517 6.51658 -0.285726
135 2 2.2208 0.0454683 14.8969 2.59127
232 2 2.2208 11.1266 -4.7062 11.0836
136 2 2.2208 -0.153293 20.5165 2.53634
106 2 2.2208 5.37494 17.8264 5.29522
107 1 -1.1104 1.55359 13.3331 1.06334
109 1 -1.1104 1.053 18.986 1.28431
113 1 -1.1104 1.29186 13.4031 3.80101
114 1 -1.1104 1.27645 19.0972 4.14182
116 1 -1.1104 1.33951 16.222 0.926908
119 2 2.2208 5.34714 15.0105 2.44993
120 2 2.2208 5.42759 20.7103 2.63967
121 1 -1.1104 1.27201 16.3812 3.81693
123 1 -1.1104 4.18943 13.5233 0.954456
125 1 -1.1104 3.93374 19.2707 1.02695
127 2 2.2208 2.66185 17.9811 2.57681
128 1 -1.1104 4.16822 13.6334 3.88651
129 1 -1.1104 4.09829 19.317 3.9287
130 2 2.2208 2.67117 15.028 5.21974
131 2 2.2208 2.4848 20.6935 5.35725
132 1 -1.1104 3.86652 16.4167 1.08541
134 1 -1.1104 4.09084 16.4108 3.87029
137 2 2.2208 -0.0926402 17.6922 5.28451
629 2 2.2208 -0.146091 11.9976 -0.263797
133 1 -1.1104 3.95972 16.3703 6.6675
115 1 -1.1104 6.84732 13.6265 3.92374
122 1 -1.1104 6.73548 16.3911 3.92206
140 1 -1.1104 6.70413 16.4872 1.19324
110 1 -1.1104 6.79642 13.5847 1.14504
139 1 -1.1104 6.86985 19.0642 4.04149
138 1 -1.1104 6.74395 19.1952 1.26365
141 2 2.2208 11.0379 17.8042 5.4302
142 1 -1.1104 12.4785 13.5967 1.13513
144 1 -1.1104 12.5754 19.2249 1.11459
146 1 -1.1104 12.512 13.5188 3.98237
147 1 -1.1104 12.6673 19.1538 4.06467
148 1 -1.1104 12.5707 16.2648 1.10692
150 2 2.2208 11.1489 14.9604 2.48834
151 2 2.2208 11.0305 20.6157 2.4844
152 1 -1.1104 12.3724 16.4568 3.83455
153 1 -1.1104 9.48831 13.5222 1.0994
155 1 -1.1104 9.56055 19.1552 1.21205
157 2 2.2208 8.18011 17.8062 2.61093
158 1 -1.1104 9.81737 13.6116 3.80104
159 1 -1.1104 9.72068 19.3112 4.07452
160 2 2.2208 8.26519 15.0374 5.32653
161 2 2.2208 8.3284 20.7146 5.27049
162 1 -1.1104 9.59092 16.3802 1.00408
164 1 -1.1104 9.54924 16.4366 3.90009
562 2 2.2208 2.69705 -1.92408 -0.31241
154 1 -1.1104 9.65389 13.6812 6.70133
111 1 -1.1104 6.90468 13.6115 6.65571
149 1 -1.1104 12.4199 16.2662 6.57596
52 2 2.2208 11.0544 -4.65432 5.41958
172 1 -1.1104 4.02772 -3.41789 6.93454
167 1 -1.1104 1.27918 2.26386 6.99954
561 2 2.2208 5.41003 0.910108 -0.20771
315 1 -1.1104 9.83007 16.3854 12.287
173 1 -1.1104 3.98146 2.32104 6.80166
166 1 -1.1104 1.14779 -3.37541 6.80088
174 1 -1.1104 4.10352 -0.417118 6.92337
170 1 -1.1104 1.25217 -0.500032 6.82877
175 2 2.2208 5.6559 0.888092 11.024
176 1 -1.1104 1.40066 -3.33018 12.4019
177 1 -1.1104 1.22719 2.38995 12.5276
180 1 -1.1104 1.28387 -3.24276 9.46131
181 1 -1.1104 1.41237 2.49127 9.78723
184 1 -1.1104 1.24869 -0.691031 12.4523
186 2 2.2208 5.48678 -1.87405 8.33808
187 2 2.2208 5.26109 3.79202 8.11945
188 1 -1.1104 1.42279 -0.172717 9.7683
190 1 -1.1104 3.87084 -3.35206 12.6055
191 1 -1.1104 3.96349 2.32794 12.4152
192 2 2.2208 2.76091 1.0068 8.23455
193 1 -1.1104 4.20509 -3.39899 9.87443
194 1 -1.1104 4.24886 2.36035 9.6859
195 2 2.2208 2.65183 -1.9145 11.0862
196 2 2.2208 2.6748 3.71028 11.2018
197 1 -1.1104 4.06479 -0.593672 12.5988
198 1 -1.1104 4.14554 -0.688362 9.73632
201 2 2.2208 -0.0878653 0.955743 11.0172
200 2 2.2208 -0.17401 -1.99337 8.14907
684 2 2.2208 -0.130293 17.7143 -0.350338
171 1 -1.1104 6.87665 -0.572111 6.85946
168 1 -1.1104 6.79091 -3.26886 6.79031
210 1 -1.1104 9.71736 -0.532714 6.89194
207 1 -1.1104 12.5139 -0.457247 6.84851
205 1 -1.1104 12.6552 -3.21152 6.87467
179 1 -1.1104 6.86266 2.23115 12.5591
183 1 -1.1104 7.08605 2.2478 9.56482
208 1 -1.1104 9.57221 -3.30812 6.83084
206 1 -1.1104 12.5705 2.39998 6.89558
182 1 -1.1104 6.93043 -3.29666 9.53772
185 1 -1.1104 6.85752 -0.570356 12.5269
189 1 -1.1104 6.9545 -0.608842 9.64251
178 1 -1.1104 6.85902 -3.26417 12.5313
211 2 2.2208 11.1313 0.831378 11.0186
212 1 -1.1104 12.5115 -3.49008 12.5514
213 1 -1.1104 12.4056 2.4481 12.5688
214 1 -1.1104 12.404 -3.52864 9.54141
215 1 -1.1104 12.4911 2.36145 9.70833
216 1 -1.1104 12.2852 -0.605452 12.3422
217 2 2.2208 11.0855 -1.95744 8.42156
218 2 2.2208 11.0731 3.6521 8.23762
219 1 -1.1104 12.5829 -0.45466 9.56707
220 1 -1.1104 9.60281 -3.2644 12.5955
221 1 -1.1104 9.68085 2.26364 12.2468
222 2 2.2208 8.27124 0.840816 8.1658
223 1 -1.1104 9.67838 -3.3329 9.87746
224 1 -1.1104 9.78933 2.15373 9.55614
225 2 2.2208 8.19774 -1.86939 11.2074
226 2 2.2208 8.41754 3.5824 10.8562
227 1 -1.1104 9.6081 -0.421585 12.5849
228 1 -1.1104 9.63778 -0.668619 9.6235
199 2 2.2208 -0.0328845 3.78722 8.27657
9501 2 2.2208 -0.159777 12.1392 10.9258
9509 2 2.2208 -0.108303 6.56505 11.2545
62 1 -1.1104 1.17742 10.9751 6.81294
238 1 -1.1104 4.12735 8.12068 6.71486
239 1 -1.1104 3.95046 5.16729 6.73285
236 1 -1.1104 1.2578 5.29351 6.88099
240 2 2.2208 5.44884 6.47316 11.1185
241 2 2.2208 5.51597 12.2861 11.0946
242 1 -1.1104 1.30838 8.06338 12.7596
244 1 -1.1104 1.15232 8.12313 9.82522
246 1 -1.1104 1.23556 5.22512 12.5592
247 1 -1.1104 1.09235 10.7866 12.3003
250 2 2.2208 5.46793 9.3461 8.23198
251 1 -1.1104 1.33514 5.22703 9.74694
252 1 -1.1104 1.17918 10.8416 9.69336
255 1 -1.1104 4.07427 8.10027 12.3337
256 2 2.2208 2.72084 6.64664 8.1864
257 2 2.2208 2.71388 12.3659 8.25834
258 1 -1.1104 3.94951 7.95688 9.56504
259 2 2.2208 2.6041 9.38943 11.1032
260 1 -1.1104 3.98266 5.24154 12.5625
261 1 -1.1104 3.93548 10.9739 12.3061
262 1 -1.1104 3.99183 5.11649 9.60853
263 1 -1.1104 4.0378 10.889 9.62599
9508 2 2.2208 -0.116 9.51506 8.31997
237 1 -1.1104 6.8964 5.13581 6.80738
265 1 -1.1104 12.4546 8.0527 6.85342
266 1 -1.1104 12.6476 5.27205 6.62187
254 1 -1.1104 6.88591 10.7733 9.52117
90 1 -1.1104 12.5723 10.8161 6.55261
101 1 -1.1104 9.6573 10.707 6.72232
248 1 -1.1104 6.8852 5.10168 12.4518
245 1 -1.1104 6.65608 7.93319 9.5232
249 1 -1.1104 6.79823 10.8054 12.4086
243 1 -1.1104 6.80338 7.90404 12.5065
253 1 -1.1104 6.8966 5.02086 9.6683
264 1 -1.1104 9.6261 10.7347 9.57555
268 1 -1.1104 9.73437 5.17093 9.41737
270 1 -1.1104 9.57517 10.7164 12.3573
271 1 -1.1104 9.70841 5.15145 12.3349
272 2 2.2208 8.22966 9.36697 10.953
273 1 -1.1104 9.46257 8.09044 9.42512
274 2 2.2208 8.25632 12.0074 8.20298
275 2 2.2208 8.29659 6.50191 8.05755
276 2 2.2208 11.002 6.47349 11.0512
277 2 2.2208 11.0286 12.1131 10.7653
278 1 -1.1104 12.2976 8.06486 12.3931
279 1 -1.1104 12.2382 7.83565 9.64111
280 1 -1.1104 12.3971 5.17508 12.3173
281 1 -1.1104 12.4707 10.749 12.3199
282 2 2.2208 11.0223 9.28037 8.11018
283 1 -1.1104 12.7305 5.04604 9.51253
284 1 -1.1104 12.4655 10.8063 9.35631
285 1 -1.1104 9.49615 7.94204 12.329
329 1 -1.1104 12.5177 19.0627 12.4025
312 2 2.2208 -0.0636324 17.7214 11.0071
302 1 -1.1104 1.13801 19.1976 6.82676
126 1 -1.1104 3.89255 19.2115 6.7609
313 2 2.2208 -0.119717 15.0743 8.05144
124 1 -1.1104 4.08876 13.5694 6.69947
108 1 -1.1104 1.18347 13.5934 6.67464
117 1 -1.1104 1.22204 16.4403 6.51873
286 1 -1.1104 4.20959 19.3541 12.3688
287 1 -1.1104 4.1315 13.784 12.3188
291 1 -1.1104 1.21138 19.2897 9.60955
292 1 -1.1104 1.0839 16.6451 9.14849
293 2 2.2208 5.45264 20.6204 8.04896
294 1 -1.1104 1.31897 13.8552 9.58799
295 2 2.2208 5.51156 15.0379 8.0575
298 1 -1.1104 1.3895 19.1554 12.3955
299 1 -1.1104 1.27422 13.5738 12.2273
300 2 2.2208 5.46887 18.0223 11.0011
301 1 -1.1104 4.0193 19.3671 9.69736
303 2 2.2208 2.73087 17.883 8.04299
304 1 -1.1104 3.95953 16.5718 9.51449
305 1 -1.1104 4.13402 13.6869 9.59963
307 1 -1.1104 1.23084 16.3808 12.3585
308 1 -1.1104 4.06028 16.6678 12.2672
309 2 2.2208 2.62894 20.7918 11.0943
310 2 2.2208 2.70225 15.2893 10.769
311 2 2.2208 -0.116876 20.5646 8.30822
327 1 -1.1104 12.645 19.3061 9.51188
317 2 2.2208 8.18136 14.9257 10.9247
319 1 -1.1104 9.66828 13.5144 9.53335
328 1 -1.1104 12.5076 13.5182 9.63223
331 2 2.2208 11.1495 17.7039 10.7855
145 1 -1.1104 12.5881 19.1124 6.74548
314 1 -1.1104 9.44508 16.5004 9.47549
322 1 -1.1104 9.73148 13.4931 12.3336
326 1 -1.1104 12.5627 16.295 12.238
118 1 -1.1104 6.78066 16.484 6.72386
163 1 -1.1104 9.6242 16.4986 6.67967
156 1 -1.1104 9.64048 19.1041 6.8403
320 2 2.2208 8.13318 17.8139 8.14341
143 1 -1.1104 12.4999 13.6651 6.87485
318 1 -1.1104 9.82016 19.1207 9.5194
297 1 -1.1104 6.85637 13.5852 12.5435
321 1 -1.1104 9.5298 19.1735 12.3176
316 2 2.2208 8.3039 20.5255 10.9027
112 1 -1.1104 6.79941 19.2117 6.75707
289 1 -1.1104 6.71535 16.4182 9.49103
296 1 -1.1104 6.92941 19.244 12.3804
290 1 -1.1104 7.01408 13.6631 9.66001
288 1 -1.1104 6.84254 19.2982 9.56781
306 1 -1.1104 6.97286 16.5607 12.3122
325 2 2.2208 11.0119 14.9963 8.11199
323 1 -1.1104 12.6094 16.1564 9.49965
708 2 2.2208 8.20097 14.9728 -0.374169
563 2 2.2208 2.3891 3.69491 -0.209421
30 2 2.2208 -0.299881 -4.76779 5.27707
651 2 2.2208 11.0951 6.57282 -0.373911
202 2 2.2208 2.67202 -4.65484 8.27878
706 2 2.2208 8.21948 20.4927 -0.136077
204 2 2.2208 0.0560425 -4.59018 11.0567
535 2 2.2208 8.34278 17.9302 13.7344
9792 2 2.2208 -0.163488 14.9295 13.5881
628 2 2.2208 5.47848 12.0708 -0.164864
334 2 2.2208 5.48361 0.762756 16.7571
335 1 -1.1104 1.16743 -3.36251 17.8727
336 1 -1.1104 1.32111 2.38369 18.1397
339 1 -1.1104 1.32488 -3.23831 15.1392
341 1 -1.1104 1.34561 2.24345 15.3453
347 1 -1.1104 1.29375 -0.530489 18.1655
349 2 2.2208 5.41092 -1.92174 19.5615
350 2 2.2208 5.55629 3.69179 19.5647
351 1 -1.1104 1.26298 -0.476627 15.3076
355 1 -1.1104 3.9813 -3.21908 18.0088
356 1 -1.1104 3.94426 2.36641 18.1427
357 2 2.2208 2.59542 0.939828 19.4673
358 1 -1.1104 4.05728 -3.32967 15.2035
360 1 -1.1104 4.26379 2.27835 15.2674
362 2 2.2208 2.57196 -1.84945 16.7427
363 2 2.2208 2.70854 3.72741 16.7835
364 1 -1.1104 4.11691 -0.595095 18.0245
365 1 -1.1104 4.03919 -0.528354 15.2327
371 2 2.2208 -0.382681 -2.01414 19.3289
443 2 2.2208 2.55436 6.5072 14.1261
9647 2 2.2208 -0.136711 3.54725 19.354
376 2 2.2208 5.48468 3.65482 13.7431
508 2 2.2208 5.46597 15.1225 13.7805
370 2 2.2208 -0.177568 0.91875 16.7594
369 2 2.2208 2.53557 -4.66864 19.4708
374 2 2.2208 5.44338 -1.99242 13.8998
372 2 2.2208 -0.058588 -2.00809 13.7737
338 1 -1.1104 6.97744 2.39618 18.0708
343 1 -1.1104 6.72839 -3.34279 15.1327
337 1 -1.1104 6.71889 -3.41904 17.9875
348 1 -1.1104 7.003 -0.463106 18.1036
345 1 -1.1104 6.83655 2.28759 15.1362
353 1 -1.1104 6.93413 -0.510853 15.4992
377 2 2.2208 11.2826 0.910817 16.5645
378 1 -1.1104 12.4839 -3.3715 18.1812
379 1 -1.1104 12.2866 2.25794 18.0187
380 1 -1.1104 12.6656 -3.46557 15.2841
382 1 -1.1104 12.5999 2.16453 15.3908
384 1 -1.1104 12.6911 -0.409038 18.1706
385 2 2.2208 11.1691 -1.93904 19.3824
386 2 2.2208 11.0622 3.7304 19.2485
387 1 -1.1104 12.6206 -0.555557 15.071
389 1 -1.1104 9.70609 -3.40248 17.9958
390 1 -1.1104 9.73287 2.36779 18.1343
391 2 2.2208 8.38174 0.772736 19.4623
392 1 -1.1104 9.86082 -3.43172 15.333
394 1 -1.1104 9.72646 2.50473 15.1032
396 2 2.2208 8.40752 -2.01634 16.688
397 2 2.2208 8.28941 3.73097 16.5588
398 1 -1.1104 9.86208 -0.638351 18.0572
399 1 -1.1104 9.88547 -0.623052 15.2725
9723 2 2.2208 -0.29096 9.52545 13.8949
409 2 2.2208 11.0396 3.86348 13.7306
9793 2 2.2208 -0.0488495 20.5693 13.8237
507 2 2.2208 5.5416 20.6108 13.7663
346 1 -1.1104 6.90785 2.3092 21.0473
407 2 2.2208 8.31935 0.907103 14.0436
408 2 2.2208 11.1397 -2.07583 13.9783
410 2 2.2208 5.49525 6.55157 16.4066
411 2 2.2208 5.5386 12.2613 16.5314
412 1 -1.1104 1.36114 7.9722 18.3385
414 1 -1.1104 1.32039 7.83523 15.6022
418 1 -1.1104 1.20914 5.11264 18.1282
419 1 -1.1104 1.15853 10.5491 18.0154
422 2 2.2208 5.35349 9.44037 19.1701
423 1 -1.1104 1.21376 5.01751 15.4254
425 1 -1.1104 1.42023 10.7197 15.2376
431 1 -1.1104 4.03616 7.84993 17.8359
432 2 2.2208 2.66277 6.43817 19.4285
433 2 2.2208 2.67233 12.1555 19.4209
434 1 -1.1104 3.86938 8.13959 15.1651
436 2 2.2208 2.58488 9.41299 16.7541
437 1 -1.1104 4.04287 5.20071 18.115
438 1 -1.1104 3.93377 10.6201 17.9283
439 1 -1.1104 3.9746 5.1953 15.272
441 1 -1.1104 4.16273 11.0572 14.9111
9685 2 2.2208 -0.0907846 12.2567 16.6499
9719 2 2.2208 -0.0765117 9.2811 19.7119
444 2 2.2208 5.34806 9.46489 13.8178
9720 2 2.2208 -0.244997 6.46783 16.8111
506 2 2.2208 2.68605 17.6894 13.766
440 1 -1.1104 4.15222 5.09696 20.7298
424 1 -1.1104 1.12433 4.8985 20.9224
435 1 -1.1104 4.00391 7.99072 20.7904
567 2 2.2208 5.4093 -4.67726 22.3244
367 2 2.2208 -0.104546 -4.7111 16.3967
9651 2 2.2208 -0.130221 3.62803 13.9837
420 1 -1.1104 6.7583 5.26293 17.9951
421 1 -1.1104 6.84047 10.83 18.0797
416 1 -1.1104 6.84231 8.18721 15.1483
427 1 -1.1104 6.80074 4.95947 15.1452
413 1 -1.1104 6.94077 7.95709 17.7269
429 1 -1.1104 6.89502 10.9436 15.2368
446 2 2.2208 10.9169 6.56904 16.4822
447 2 2.2208 11.102 12.1589 16.6497
448 1 -1.1104 12.4073 7.74518 17.9273
449 1 -1.1104 12.3145 7.68374 15.0493
451 1 -1.1104 12.4053 5.07301 17.9708
452 1 -1.1104 12.4225 10.5111 17.7142
453 2 2.2208 10.9753 9.32623 19.2781
454 1 -1.1104 12.578 4.98108 15.038
456 1 -1.1104 12.588 10.557 15.0776
458 1 -1.1104 9.52932 7.96439 17.9927
459 2 2.2208 8.31652 6.58865 19.2921
460 2 2.2208 8.32094 12.1361 19.413
461 1 -1.1104 9.63135 7.84517 15.0438
463 2 2.2208 8.04021 9.44223 16.5749
464 1 -1.1104 9.62284 5.15586 17.9052
465 1 -1.1104 9.50807 10.7759 17.8959
466 1 -1.1104 9.70241 5.14599 15.0606
468 1 -1.1104 9.56394 10.6134 15.2468
457 1 -1.1104 12.3852 10.8187 20.6844
368 2 2.2208 5.4403 -4.73837 16.6611
462 1 -1.1104 9.56606 7.90615 20.7999
417 1 -1.1104 6.85664 8.07881 20.5094
450 1 -1.1104 12.3494 8.06331 20.6307
430 1 -1.1104 6.88817 10.7842 20.9477
469 1 -1.1104 9.61623 10.7231 20.6517
473 2 2.2208 5.50153 17.6777 16.5458
474 1 -1.1104 1.3845 13.4342 17.9373
475 1 -1.1104 1.36941 19.1263 18.1203
478 1 -1.1104 1.11568 13.731 15.0241
480 1 -1.1104 1.296 19.0668 15.3171
486 1 -1.1104 1.09577 16.2322 17.822
488 2 2.2208 5.42256 14.9566 19.3543
489 2 2.2208 5.48672 20.4652 19.3452
490 1 -1.1104 1.24477 16.3258 15.2077
494 1 -1.1104 4.00119 13.4235 17.8714
495 1 -1.1104 4.0583 19.1614 17.948
496 2 2.2208 2.66562 17.7806 19.3367
497 1 -1.1104 4.04861 13.8378 15.074
499 1 -1.1104 4.05682 19.183 15.1745
501 2 2.2208 2.63803 14.9555 16.4673
502 2 2.2208 2.70801 20.5621 16.6482
503 1 -1.1104 4.05445 16.2868 17.9497
504 1 -1.1104 3.91466 16.3142 15.0937
403 2 2.2208 8.153 -4.70185 19.375
9790 2 2.2208 -0.0849439 14.9801 19.3142
9789 2 2.2208 -0.121249 20.7297 19.4286
9791 2 2.2208 -0.161445 17.8469 16.6103
533 2 2.2208 11.1464 20.5686 13.69
565 2 2.2208 -0.196859 -4.75217 22.2594
500 1 -1.1104 4.07036 19.1998 20.6938
664 1 -1.1104 6.78025 19.1925 23.8512
484 1 -1.1104 7.05513 19.1534 15.234
487 1 -1.1104 6.84208 16.4919 17.8973
476 1 -1.1104 6.90466 13.5977 18.0187
492 1 -1.1104 6.83379 16.3988 15.1551
477 1 -1.1104 6.8515 19.1419 18.1136
482 1 -1.1104 6.80403 13.7561 15.1468
509 2 2.2208 11.0547 17.6844 16.4709
510 1 -1.1104 12.505 13.4615 18.1001
511 1 -1.1104 12.6612 19.1988 17.8805
512 1 -1.1104 12.5749 13.5156 15.1557
514 1 -1.1104 12.458 19.2122 15.124
516 1 -1.1104 12.372 16.2929 18.002
517 2 2.2208 11.025 14.982 19.382
518 2 2.2208 11.1915 20.591 19.2989
519 1 -1.1104 12.5134 16.3628 15.0511
521 1 -1.1104 9.66204 13.5313 17.9341
522 1 -1.1104 9.74408 18.9214 17.8615
523 2 2.2208 8.30137 17.8062 19.4438
524 1 -1.1104 9.79675 13.4724 15.1725
526 1 -1.1104 9.69106 19.2961 15.137
528 2 2.2208 8.25697 14.9764 16.5052
529 2 2.2208 8.31392 20.6 16.4451
530 1 -1.1104 9.70021 16.3547 17.9103
531 1 -1.1104 9.64415 16.4082 14.9326
515 1 -1.1104 12.3624 19.003 20.7267
527 1 -1.1104 9.6784 19.1712 20.6551
525 1 -1.1104 9.64074 13.4128 20.7408
472 2 2.2208 8.3441 12.0603 13.7791
445 2 2.2208 2.64607 12.2611 13.6988
340 1 -1.1104 1.25809 -3.28556 20.7706
375 2 2.2208 2.66499 0.94642 13.9025
366 1 -1.1104 4.05399 -0.627457 20.7807
359 1 -1.1104 3.98274 -3.51497 20.9763
342 1 -1.1104 1.42267 2.08813 20.9309
361 1 -1.1104 4.19415 2.19285 20.8304
352 1 -1.1104 1.04532 -0.581506 20.7165
537 2 2.2208 5.61167 0.880639 22.3016
538 1 -1.1104 1.47863 -3.36215 23.6856
539 1 -1.1104 1.29548 2.23919 23.8112
542 1 -1.1104 1.18849 -3.10174 26.5733
543 1 -1.1104 1.08744 2.33647 26.4307
546 1 -1.1104 1.41102 -0.448823 23.7883
548 2 2.2208 5.34794 -1.96833 24.9982
549 2 2.2208 5.49254 3.76275 25.1907
550 1 -1.1104 1.33164 -0.403736 26.6023
552 1 -1.1104 4.10242 -3.46607 23.5879
553 1 -1.1104 4.05733 2.50549 23.4145
554 2 2.2208 2.61841 0.95193 25.1543
555 1 -1.1104 3.92895 -3.57728 26.4553
556 1 -1.1104 4.10337 2.19143 26.5486
557 2 2.2208 2.67883 -1.74825 22.2547
559 1 -1.1104 4.07899 -0.480563 23.6883
560 1 -1.1104 4.08526 -0.541082 26.5005
558 2 2.2208 2.52341 3.75033 22.2304
571 2 2.2208 -0.115729 0.846485 22.2648
570 2 2.2208 -0.112357 -1.87388 25.1841
572 2 2.2208 -0.334429 3.66415 25.0088
675 1 -1.1104 6.91584 16.4047 23.5507
660 1 -1.1104 6.92546 16.6646 26.6768
471 2 2.2208 11.0914 9.26686 13.7692
400 1 -1.1104 9.65566 -0.730787 20.653
597 2 2.2208 8.35789 -4.74578 25.0367
344 1 -1.1104 6.80185 -3.17466 20.9106
381 1 -1.1104 12.6307 -3.26701 20.9774
393 1 -1.1104 9.62955 -3.43204 20.8315
354 1 -1.1104 6.99412 -0.528021 20.7683
547 1 -1.1104 6.89728 -0.540292 23.5288
541 1 -1.1104 6.77727 2.38881 23.7731
544 1 -1.1104 6.50127 -3.35588 26.4652
383 1 -1.1104 12.6679 2.44737 20.6824
388 1 -1.1104 12.6598 -0.289613 20.9504
545 1 -1.1104 6.95129 2.36415 26.4442
540 1 -1.1104 6.95106 -3.27393 23.6208
551 1 -1.1104 6.82736 -0.574049 26.4549
395 1 -1.1104 9.75724 2.17728 20.93
573 2 2.2208 11.0644 0.974616 22.2975
574 1 -1.1104 12.5028 -3.11249 23.6468
575 1 -1.1104 12.6306 2.25353 23.8606
576 1 -1.1104 12.3006 -3.31106 26.3991
577 1 -1.1104 12.5105 2.31047 26.6226
578 1 -1.1104 12.3787 -0.480632 23.7875
579 2 2.2208 11.0444 -1.95542 25.0081
580 2 2.2208 11.2091 3.6518 25.1661
581 1 -1.1104 12.4375 -0.57191 26.5852
582 1 -1.1104 9.73622 -3.2798 23.7273
583 1 -1.1104 9.76496 2.48928 23.8183
584 2 2.2208 8.20862 0.861402 25.059
585 1 -1.1104 9.37752 -3.57649 26.7393
586 1 -1.1104 9.64654 2.31705 26.6031
587 2 2.2208 8.35196 -2.03193 22.1617
588 2 2.2208 8.30134 3.69464 22.2859
589 1 -1.1104 9.65181 -0.522247 23.3261
590 1 -1.1104 9.65244 -0.474714 26.4033
631 2 2.2208 -0.224924 12.1877 22.4401
415 1 -1.1104 1.17007 7.78601 21.0938
426 1 -1.1104 1.22516 10.726 21.0031
630 2 2.2208 -0.216489 9.27871 25.0905
9898 2 2.2208 -0.248779 6.29561 22.2986
442 1 -1.1104 3.96482 10.722 20.8154
602 2 2.2208 5.50336 6.49936 22.2903
603 2 2.2208 5.4405 12.2032 22.2096
604 1 -1.1104 1.07205 7.78103 23.7651
606 1 -1.1104 1.27717 7.81016 26.5167
608 1 -1.1104 1.23884 5.07273 23.6028
609 1 -1.1104 1.18631 10.4617 23.7347
612 2 2.2208 5.58888 9.21977 25.1526
613 1 -1.1104 1.17428 4.99198 26.5239
614 1 -1.1104 1.25719 10.6718 26.4714
617 1 -1.1104 4.16269 7.984 23.6946
618 2 2.2208 2.56759 6.45169 25.0514
619 2 2.2208 2.65177 12.0572 25.0233
620 1 -1.1104 4.02174 7.9044 26.3977
621 2 2.2208 2.64892 9.39537 22.2981
622 1 -1.1104 3.97375 5.05115 23.6244
623 1 -1.1104 4.06639 10.7228 23.4806
624 1 -1.1104 3.87613 4.98131 26.4346
625 1 -1.1104 3.94389 10.7415 26.4818
692 1 -1.1104 9.90043 13.5712 26.4843
483 1 -1.1104 6.82783 13.5949 20.9032
607 1 -1.1104 6.87326 7.90005 26.4967
428 1 -1.1104 6.8618 5.1727 20.8843
467 1 -1.1104 9.73659 5.0547 20.6536
616 1 -1.1104 6.87742 10.647 26.7168
605 1 -1.1104 6.9204 7.92014 23.6811
615 1 -1.1104 6.92589 5.26699 26.4764
455 1 -1.1104 12.5354 5.21993 21.0382
610 1 -1.1104 6.76325 5.19869 23.7451
611 1 -1.1104 6.93613 10.7967 23.8344
633 1 -1.1104 9.61127 10.5606 26.5117
634 1 -1.1104 9.72246 5.02443 26.4701
635 1 -1.1104 9.87411 10.6567 23.6103
636 1 -1.1104 9.53797 5.2176 23.4956
637 2 2.2208 8.2393 9.35554 22.2817
638 1 -1.1104 9.73318 7.89141 26.4601
639 2 2.2208 8.23398 12.0915 25.0396
640 2 2.2208 8.22106 6.44967 24.9769
641 2 2.2208 11.0604 6.52844 22.1015
642 2 2.2208 11.0934 12.0969 22.2267
643 1 -1.1104 12.5631 7.92141 23.5589
644 1 -1.1104 12.4517 7.99906 26.2902
645 1 -1.1104 12.5768 4.94844 23.9295
646 1 -1.1104 12.6487 10.6725 23.4632
647 2 2.2208 11.0892 9.24891 24.9985
648 1 -1.1104 12.5471 5.23522 26.5196
649 1 -1.1104 12.4347 10.8035 26.3303
650 1 -1.1104 9.60015 7.94338 23.7508
697 1 -1.1104 12.5484 16.5575 26.4511
481 1 -1.1104 1.3034 19.1216 20.9573
498 1 -1.1104 4.09532 13.6546 20.8348
686 2 2.2208 -0.150093 17.7664 22.3723
505 1 -1.1104 4.08203 16.5126 20.5548
491 1 -1.1104 1.35088 16.3326 20.7024
479 1 -1.1104 1.3118 13.6735 20.544
672 2 2.2208 2.50295 17.8873 24.9978
677 1 -1.1104 4.08845 16.4963 23.5339
676 1 -1.1104 1.16114 16.2909 23.7016
671 1 -1.1104 3.9465 19.2799 26.5163
679 2 2.2208 2.64095 14.9491 22.2159
670 2 2.2208 5.44209 17.8189 22.1811
669 1 -1.1104 1.24582 13.3985 23.7629
678 2 2.2208 2.62489 20.5955 22.1402
673 1 -1.1104 4.01734 16.2893 26.315
674 1 -1.1104 3.8752 13.4737 26.3762
657 1 -1.1104 3.93646 19.0499 23.6752
659 1 -1.1104 4.00517 13.5643 23.627
661 1 -1.1104 1.13784 19.2164 26.4446
662 1 -1.1104 1.01137 16.2132 26.3829
663 1 -1.1104 1.16476 13.4135 26.4811
665 2 2.2208 5.49443 20.5334 25.0991
666 2 2.2208 5.49521 15.1599 24.9952
668 1 -1.1104 1.0189 19.2532 23.7581
683 2 2.2208 -0.260279 14.8434 25.0867
685 2 2.2208 -0.16806 20.6877 25.1689
702 1 -1.1104 12.4128 13.4578 26.5168
694 2 2.2208 8.22408 17.6974 25.0237
658 1 -1.1104 6.76211 13.6964 26.4585
698 2 2.2208 10.9567 20.6415 24.9697
485 1 -1.1104 6.94886 19.1091 20.9561
532 1 -1.1104 9.78633 16.3123 20.876
693 1 -1.1104 6.77288 19.2416 26.624
493 1 -1.1104 6.86325 16.3606 20.7194
705 2 2.2208 11.3128 17.685 22.3074
690 2 2.2208 8.21374 14.9818 22.1898
667 1 -1.1104 6.81092 13.5397 23.5726
703 1 -1.1104 12.5913 19.1734 23.5619
695 1 -1.1104 9.63351 19.0638 23.5295
688 1 -1.1104 9.78883 16.3568 23.6557
699 2 2.2208 11.1625 14.9222 25.0392
704 1 -1.1104 12.4718 13.55 23.6182
689 2 2.2208 8.33449 20.5607 22.1766
691 1 -1.1104 9.49173 19.3825 26.4641
701 1 -1.1104 12.4974 19.2592 26.3069
687 1 -1.1104 9.70714 16.4427 26.4762
513 1 -1.1104 12.3738 13.6273 20.8626
520 1 -1.1104 12.6553 16.218 20.7777
700 1 -1.1104 12.5959 16.3538 23.6564
696 1 -1.1104 9.55763 13.4754 23.6693
534 2 2.2208 11.1723 14.8609 13.751
596 2 2.2208 11.0265 -4.59292 22.3623
627 2 2.2208 2.46919 9.32518 27.8921
470 2 2.2208 8.13587 6.51567 13.7959
714 2 2.2208 5.38082 23.4352 5.30337
715 2 2.2208 5.33006 29.1042 5.13545
716 1 -1.1104 1.05215 24.8545 1.10935
717 1 -1.1104 1.24024 24.735 3.9319
718 1 -1.1104 1.24179 21.8704 1.33268
719 1 -1.1104 0.963499 27.4591 1.03937
720 2 2.2208 5.33996 26.2 2.43836
721 1 -1.1104 1.18935 22.0219 3.96728
722 1 -1.1104 1.22234 27.5942 3.84561
723 1 -1.1104 3.86655 24.7729 1.20599
724 2 2.2208 2.56114 23.3949 2.53705
725 2 2.2208 2.71198 29.0486 2.50614
726 1 -1.1104 4.10348 24.9233 3.94153
727 2 2.2208 2.57687 26.2274 5.21122
728 1 -1.1104 4.07364 22.1031 0.965862
729 1 -1.1104 3.82325 27.6079 0.947076
730 1 -1.1104 3.97409 22.1378 3.96355
731 1 -1.1104 4.04644 27.6634 3.82748
732 2 2.2208 -0.180826 29.0886 5.21492
734 2 2.2208 -0.233275 26.2988 2.64489
1279 2 2.2208 -0.216516 23.5463 -0.258203
1005 2 2.2208 -0.173109 40.1492 10.9086
733 2 2.2208 -0.245627 23.3127 5.3945
861 1 -1.1104 4.06928 24.7534 6.64164
1047 2 2.2208 5.44648 28.9555 -0.436031
1004 2 2.2208 -0.26858 45.9145 10.8875
737 1 -1.1104 6.78365 21.8612 1.13236
738 1 -1.1104 6.88676 27.5016 0.869903
735 1 -1.1104 6.83569 24.7985 0.853966
739 1 -1.1104 6.79013 22.024 3.92596
740 1 -1.1104 6.93511 27.4264 3.71788
736 1 -1.1104 6.8879 24.6201 3.8446
741 2 2.2208 11.0072 23.3837 5.20462
742 2 2.2208 11.1977 28.9432 5.32191
743 1 -1.1104 12.4435 24.8239 0.890757
744 1 -1.1104 12.2891 24.7304 3.99021
745 1 -1.1104 12.5745 22.0745 1.021
746 1 -1.1104 12.2958 27.7198 1.06375
747 2 2.2208 11.1039 26.2247 2.29042
748 1 -1.1104 12.4283 21.9358 3.74107
749 1 -1.1104 12.5077 27.5601 3.86425
750 1 -1.1104 9.51002 24.6338 0.932892
751 2 2.2208 8.1524 23.3697 2.40546
752 2 2.2208 8.32043 28.8294 2.45163
753 1 -1.1104 9.45467 24.7751 3.57294
754 2 2.2208 8.13353 26.1778 5.23754
755 1 -1.1104 9.71194 21.8806 0.977065
756 1 -1.1104 9.65037 27.5891 1.0922
757 1 -1.1104 9.66087 22.1273 3.82874
758 1 -1.1104 9.93383 27.628 3.78283
860 1 -1.1104 6.72999 27.6613 6.46629
1305 2 2.2208 11.1148 23.4158 -0.300831
890 1 -1.1104 12.4133 27.4932 6.73855
1058 2 2.2208 10.9302 34.5331 -0.164744
891 1 -1.1104 9.48733 24.7266 6.55225
1055 2 2.2208 8.16543 37.389 -0.426172
762 2 2.2208 5.38021 34.5552 5.15758
763 1 -1.1104 1.22149 30.2662 1.0347
764 1 -1.1104 1.08465 35.8062 1.23396
766 1 -1.1104 1.36099 30.2402 3.82745
767 1 -1.1104 1.11375 36.0275 4.02902
769 1 -1.1104 1.14866 33.0444 0.924758
770 2 2.2208 5.5752 31.8235 2.36459
771 2 2.2208 5.38213 37.4045 2.53102
772 1 -1.1104 1.17307 33.1356 3.88598
774 1 -1.1104 3.87595 30.4717 1.0973
775 1 -1.1104 3.85181 36.0461 1.02962
776 2 2.2208 2.50331 34.5246 2.43062
777 1 -1.1104 4.15035 30.4419 3.75089
778 1 -1.1104 3.95691 36.0554 3.73187
779 2 2.2208 2.76334 31.7484 5.29618
780 2 2.2208 2.63003 37.4069 5.34133
781 1 -1.1104 4.10904 33.2727 1.1012
782 1 -1.1104 4.17122 33.2676 3.73367
785 2 2.2208 -0.223625 34.6637 5.40055
784 2 2.2208 -0.255677 31.8008 2.43213
1052 2 2.2208 5.22875 34.8015 -0.372802
832 2 2.2208 -0.265346 43.0542 2.62399
783 2 2.2208 -0.31469 37.3413 2.56787
1028 2 2.2208 10.9722 45.855 10.7793
1026 1 -1.1104 12.2711 41.629 9.53935
773 1 -1.1104 6.86581 33.2251 3.64922
768 1 -1.1104 6.77529 36.1165 3.96228
788 1 -1.1104 6.75033 33.3346 0.791266
786 1 -1.1104 6.65556 30.4204 0.862422
787 1 -1.1104 6.7495 30.2344 3.8442
765 1 -1.1104 6.76806 35.9909 1.13475
789 2 2.2208 11.0261 34.574 5.27526
790 1 -1.1104 12.4055 30.4168 1.11799
791 1 -1.1104 12.5354 36.0211 1.13443
792 1 -1.1104 12.33 30.3663 3.95067
793 1 -1.1104 12.3687 35.9796 4.00809
794 1 -1.1104 12.408 33.1141 1.24686
795 2 2.2208 11.0182 31.843 2.54275