ITEM: TIMESTEP
80000
ITEM: NUMBER OF ATOMS
17910
ITEM: BOX BOUNDS pp pp pp
-4.0010565015151445e-01 2.7740105650151783e+01
-4.7464228985445942e+00 3.3282642289854692e+02
-3.9787984768908569e-01 2.7737879847689225e+01
ITEM: ATOMS id type q x y z
1 2 2.2208 5.09027 0.936794 5.24106
2 1 -1.1104 0.62259 -3.43001 1.09994
3 1 -1.1104 0.866693 2.19977 1.07476
6 1 -1.1104 0.740169 -3.35603 3.83664
7 1 -1.1104 0.891834 2.31722 3.96288
10 1 -1.1104 0.694705 -0.535114 1.0163
12 2 2.2208 4.98455 -1.95149 2.48571
14 1 -1.1104 0.972509 -0.52809 3.72056
16 1 -1.1104 3.39538 -3.45121 0.87271
17 1 -1.1104 3.77416 2.21557 1.07014
18 2 2.2208 2.27916 0.702995 2.4052
19 1 -1.1104 3.75251 -3.34116 3.67426
20 1 -1.1104 3.75714 2.48568 3.90614
21 2 2.2208 2.23106 -1.83291 5.24211
23 1 -1.1104 3.54865 -0.57836 1.09705
24 1 -1.1104 3.68703 -0.456207 3.79174
13 2 2.2208 5.10113 3.62296 2.36797
22 2 2.2208 2.26104 3.70671 5.30932
173 1 -1.1104 3.66311 2.37698 6.86675
11 1 -1.1104 6.27367 -0.619924 0.868754
166 1 -1.1104 0.89437 -3.37729 6.55622
15 1 -1.1104 6.31805 -0.549639 3.92692
5 1 -1.1104 6.57299 2.3248 1.03844
4 1 -1.1104 6.21561 -3.31476 1.21514
167 1 -1.1104 0.869531 2.28045 6.60739
172 1 -1.1104 3.74915 -3.24319 6.42863
170 1 -1.1104 0.809429 -0.445949 6.58685
8 1 -1.1104 6.37956 -3.27129 4.02981
9 1 -1.1104 6.45579 2.34068 3.88952
168 1 -1.1104 6.59453 -3.26155 6.83574
171 1 -1.1104 6.18416 -0.368303 6.7466
652 2 2.2208 7.78982 9.5016 -0.400239
31 2 2.2208 10.7719 0.783861 5.27982
32 1 -1.1104 12.0378 -3.36061 1.10782
33 1 -1.1104 12.1513 2.12448 1.03472
34 1 -1.1104 11.9743 -3.32821 4.0103
35 1 -1.1104 12.0442 2.35034 4.04812
36 1 -1.1104 12.0274 -0.72802 1.05823
37 2 2.2208 10.5257 -2.0051 2.4282
39 1 -1.1104 12.1602 -0.558675 3.83813
40 1 -1.1104 9.10345 -3.33121 0.854506
41 1 -1.1104 9.35614 2.09983 0.879842
42 2 2.2208 7.67646 0.903705 2.39411
43 1 -1.1104 9.18269 -3.63488 3.81214
44 1 -1.1104 9.03545 2.02601 3.82465
45 2 2.2208 7.89946 -1.91752 5.16646
46 2 2.2208 7.72727 3.87624 5.33739
47 1 -1.1104 9.2542 -0.53627 0.839827
48 1 -1.1104 9.14528 -0.676692 3.68891
38 2 2.2208 10.6339 3.42095 2.40785
208 1 -1.1104 9.17174 -3.3879 6.67885
206 1 -1.1104 11.8148 1.90227 7.00669
209 1 -1.1104 9.16788 2.28345 6.57868
205 1 -1.1104 12.0294 -3.57683 6.63938
50 2 2.2208 13.6589 -2.12775 5.40576
210 1 -1.1104 9.09383 -0.533781 6.55225
9279 2 2.2208 13.3782 3.53209 5.24859
49 2 2.2208 13.5218 0.684867 2.49582
601 2 2.2208 13.6759 3.60519 -0.423271
54 2 2.2208 4.9989 6.4928 5.33544
55 2 2.2208 4.93737 12.0987 5.26161
56 1 -1.1104 0.743452 7.99435 0.96432
58 1 -1.1104 0.851393 7.88679 3.7533
60 1 -1.1104 1.07058 5.13079 1.10724
61 1 -1.1104 0.761415 10.6055 0.944563
66 2 2.2208 5.00158 9.32651 2.55253
67 1 -1.1104 0.899755 5.04391 3.90028
68 1 -1.1104 0.640353 10.6259 3.69246
71 1 -1.1104 3.67484 8.02459 0.980839
72 2 2.2208 2.22455 6.59494 2.42098
73 2 2.2208 2.16009 12.0633 2.4993
74 1 -1.1104 3.80608 7.69702 3.78025
75 2 2.2208 2.17933 9.18308 5.25401
76 1 -1.1104 3.72666 5.1584 0.905679
77 1 -1.1104 3.48187 10.6986 1.04322
79 1 -1.1104 3.72463 4.93648 3.80428
80 1 -1.1104 3.5014 10.7117 3.88914
64 1 -1.1104 6.26701 10.7859 1.13796
234 1 -1.1104 0.759617 7.83567 6.74878
62 1 -1.1104 0.882817 10.5594 6.68459
239 1 -1.1104 3.62523 5.04156 6.59506
65 1 -1.1104 6.34483 10.7719 6.5853
57 1 -1.1104 6.42219 7.77868 1.05979
63 1 -1.1104 6.5733 4.94724 1.07334
78 1 -1.1104 3.5474 10.7247 6.58435
238 1 -1.1104 3.5584 7.73025 6.62141
235 1 -1.1104 6.53807 7.94208 6.7473
59 1 -1.1104 6.35232 8.05656 3.84216
69 1 -1.1104 6.42534 5.10705 3.87578
70 1 -1.1104 6.39505 10.6751 4.02539
84 2 2.2208 10.6597 6.35244 5.1966
85 2 2.2208 10.6527 12.0159 5.02105
86 1 -1.1104 12.1742 7.69145 1.13925
87 1 -1.1104 12.0417 7.90359 3.79697
88 1 -1.1104 12.0909 4.97945 1.08398
89 1 -1.1104 12.1829 10.7988 1.00582
91 2 2.2208 10.5849 9.24978 2.29966
92 1 -1.1104 12.1284 5.13402 4.01617
93 1 -1.1104 12.1818 10.5832 3.90597
94 1 -1.1104 9.23743 7.7219 1.12692
95 2 2.2208 7.79953 6.35481 2.42363
96 2 2.2208 7.83163 12.1955 2.43131
97 1 -1.1104 9.2931 7.82025 4.05477
98 2 2.2208 7.7109 9.29682 5.21517
99 1 -1.1104 9.36146 4.78664 1.0545
100 1 -1.1104 9.22724 10.5754 0.992138
102 1 -1.1104 9.21959 4.95137 3.94329
103 1 -1.1104 9.22732 10.6728 3.77529
269 1 -1.1104 9.08575 4.93056 6.90464
90 1 -1.1104 12.0034 10.6171 6.60874
101 1 -1.1104 9.11661 10.5725 6.55817
104 2 2.2208 13.4465 12.1024 2.51253
9308 2 2.2208 13.5261 9.21106 5.24417
105 2 2.2208 13.5209 6.30255 2.45592
472 2 2.2208 7.74073 12.131 13.6484
267 1 -1.1104 9.18423 7.7904 6.81877
106 2 2.2208 5.05404 17.7404 5.26118
107 1 -1.1104 0.819402 13.3788 1.09498
109 1 -1.1104 0.891151 19.049 0.906114
113 1 -1.1104 0.784556 13.5083 4.05367
114 1 -1.1104 0.875032 19.0871 3.63225
116 1 -1.1104 0.651285 16.1624 1.02454
119 2 2.2208 4.93851 14.9476 2.54132
120 2 2.2208 5.02783 20.5335 2.42569
121 1 -1.1104 0.868091 16.2805 3.74586
123 1 -1.1104 3.51472 13.5682 1.03743
125 1 -1.1104 3.57237 18.8995 1.12924
127 2 2.2208 2.233 17.7099 2.37896
128 1 -1.1104 3.51862 13.4373 3.71496
129 1 -1.1104 3.68297 19.0903 3.9668
130 2 2.2208 2.09035 15.015 5.26663
131 2 2.2208 2.3252 20.5755 5.23078
132 1 -1.1104 3.62943 16.0988 0.962762
134 1 -1.1104 3.61135 16.2658 3.92226
122 1 -1.1104 6.40944 16.1686 3.91189
126 1 -1.1104 3.7334 19.3825 6.68633
140 1 -1.1104 6.53035 16.2065 1.20933
139 1 -1.1104 6.37012 19.0055 3.85604
133 1 -1.1104 3.65191 16.3463 6.69064
110 1 -1.1104 6.31515 13.5534 1.10607
115 1 -1.1104 6.3675 13.5215 3.94186
111 1 -1.1104 6.47476 13.4724 6.74507
108 1 -1.1104 0.953906 13.5663 6.76967
302 1 -1.1104 0.67415 19.1658 6.53438
138 1 -1.1104 6.38159 19.1578 0.946638
112 1 -1.1104 6.50266 19.0669 6.50623
682 2 2.2208 2.20179 14.978 -0.285419
9356 2 2.2208 13.5032 20.6178 5.17623
141 2 2.2208 10.7511 17.6891 5.22024
142 1 -1.1104 11.9525 13.5053 0.921836
144 1 -1.1104 12.0004 19.226 0.878175
146 1 -1.1104 12.0297 13.6125 3.69461
147 1 -1.1104 12.0878 19.1882 3.80125
148 1 -1.1104 12.089 16.3569 1.05023
150 2 2.2208 10.6994 14.935 2.32177
151 2 2.2208 10.6152 20.4266 2.31493
152 1 -1.1104 12.0069 16.3309 3.69895
153 1 -1.1104 9.12901 13.3908 0.960202
155 1 -1.1104 9.27993 18.9546 0.925742
157 2 2.2208 7.93967 17.6795 2.36554
158 1 -1.1104 9.30654 13.4996 3.8012
159 1 -1.1104 9.19488 18.9918 3.6957
160 2 2.2208 7.92063 14.9046 5.30653
161 2 2.2208 7.99228 20.3547 5.25076
162 1 -1.1104 9.26388 16.2996 0.893159
164 1 -1.1104 9.18886 16.2614 3.85825
145 1 -1.1104 12.0098 19.0732 6.80726
143 1 -1.1104 12.0521 13.4552 6.59275
156 1 -1.1104 9.25314 19.0882 6.52184
163 1 -1.1104 9.25909 16.1888 6.81755
165 2 2.2208 13.5261 17.7793 2.52524
9377 2 2.2208 13.5128 14.9172 5.24755
51 2 2.2208 7.76494 -4.7688 2.42713
174 1 -1.1104 3.61475 -0.542477 6.66274
169 1 -1.1104 6.58927 2.47517 6.69096
316 2 2.2208 7.82128 20.7206 10.9932
175 2 2.2208 4.90779 0.714119 10.9732
176 1 -1.1104 0.830377 -3.43818 12.1671
177 1 -1.1104 0.778204 2.08072 12.1883
180 1 -1.1104 0.704047 -3.50128 9.31865
181 1 -1.1104 0.767641 2.10681 9.33376
184 1 -1.1104 0.854172 -0.752415 12.3823
186 2 2.2208 5.02479 -1.90414 7.98
188 1 -1.1104 0.705994 -0.476462 9.50711
190 1 -1.1104 3.74212 -3.43295 12.3976
191 1 -1.1104 3.53858 2.25637 12.3021
192 2 2.2208 2.28535 0.889505 7.97726
193 1 -1.1104 3.58764 -3.36666 9.64274
194 1 -1.1104 3.46892 2.12654 9.35319
195 2 2.2208 2.15654 -2.09351 11.0362
197 1 -1.1104 3.60669 -0.739624 12.3433
198 1 -1.1104 3.50579 -0.626202 9.53974
187 2 2.2208 5.05487 3.70895 8.12225
179 1 -1.1104 6.2904 2.35464 12.345
185 1 -1.1104 6.18479 -0.483418 12.4423
183 1 -1.1104 6.20209 2.10699 9.593
182 1 -1.1104 6.44321 -3.36318 9.52782
189 1 -1.1104 6.37989 -0.618709 9.61439
178 1 -1.1104 6.33844 -3.51894 12.4145
196 2 2.2208 2.17318 3.61601 10.972
323 1 -1.1104 11.9445 16.2789 9.62212
207 1 -1.1104 11.8954 -0.770091 6.41214
320 2 2.2208 7.9674 17.6597 8.13771
229 2 2.2208 13.4678 0.78545 8.18106
230 2 2.2208 13.4151 -1.93715 10.9481
211 2 2.2208 10.5172 0.761045 10.9714
212 1 -1.1104 11.9094 -3.46886 12.2347
213 1 -1.1104 11.9206 1.89002 12.345
214 1 -1.1104 12.0679 -3.61149 9.56764
215 1 -1.1104 12.052 2.2278 9.79676
216 1 -1.1104 11.9172 -0.744028 12.1998
217 2 2.2208 10.7046 -2.11556 8.06178
219 1 -1.1104 11.9765 -0.711537 9.39097
220 1 -1.1104 9.13201 -3.48209 12.2295
221 1 -1.1104 9.22455 2.28663 12.2044
222 2 2.2208 7.79179 0.88909 8.08935
223 1 -1.1104 9.34734 -3.29586 9.52471
224 1 -1.1104 9.11448 2.20247 9.45499
225 2 2.2208 7.64281 -1.95933 10.9518
227 1 -1.1104 8.98313 -0.562613 12.2979
228 1 -1.1104 9.09926 -0.514004 9.43367
218 2 2.2208 10.4491 3.58829 8.01148
9414 2 2.2208 13.3844 3.57205 10.9908
226 2 2.2208 7.65342 3.54631 10.8706
593 2 2.2208 7.78423 3.62585 -0.419401
563 2 2.2208 2.19844 3.78327 -0.291803
321 1 -1.1104 9.30768 19.1585 12.3288
237 1 -1.1104 6.43391 5.24371 6.7412
236 1 -1.1104 0.697727 5.19191 6.77237
53 2 2.2208 13.3561 -4.70725 2.60764
240 2 2.2208 4.89276 6.37381 10.7432
241 2 2.2208 5.06008 12.0387 10.8701
242 1 -1.1104 0.936154 8.08663 12.3479
244 1 -1.1104 0.826342 7.78771 9.49805
246 1 -1.1104 0.742354 5.08935 12.2513
247 1 -1.1104 0.763066 10.7861 12.0821
250 2 2.2208 5.0653 9.38376 8.09163
251 1 -1.1104 0.934945 4.89444 9.44902
252 1 -1.1104 0.751839 10.6042 9.3766
255 1 -1.1104 3.41482 7.68862 12.1552
256 2 2.2208 2.21242 6.41846 8.16343
257 2 2.2208 2.13363 12.1192 8.106
258 1 -1.1104 3.58754 8.03037 9.46864
259 2 2.2208 2.13647 9.28648 10.9022
260 1 -1.1104 3.54906 4.99185 12.1481
261 1 -1.1104 3.41483 10.4784 12.2681
262 1 -1.1104 3.60369 5.03012 9.52755
263 1 -1.1104 3.56128 10.5922 9.4637
245 1 -1.1104 6.43616 7.89675 9.54046
243 1 -1.1104 6.34729 7.63414 12.3136
249 1 -1.1104 6.18975 10.5112 12.4984
254 1 -1.1104 6.40357 10.6603 9.50701
253 1 -1.1104 6.46546 4.982 9.38534
248 1 -1.1104 6.22389 4.97471 12.2074
154 1 -1.1104 9.18525 13.4046 6.64597
329 1 -1.1104 11.9191 19.037 12.3589
318 1 -1.1104 9.34724 19.0843 9.35497
266 1 -1.1104 11.8696 4.71431 6.61424
598 2 2.2208 13.3665 -1.97906 -0.35837
333 2 2.2208 13.4243 14.8929 10.9213
265 1 -1.1104 12.0584 7.58057 6.36943
332 2 2.2208 13.535 17.734 8.16679
9490 2 2.2208 13.2152 6.23139 7.9026
264 1 -1.1104 9.24362 10.8318 9.42033
268 1 -1.1104 9.03875 5.00744 9.56848
270 1 -1.1104 9.12358 10.8649 12.1696
271 1 -1.1104 9.23345 5.11461 12.4263
272 2 2.2208 7.67448 9.18473 11.0382
273 1 -1.1104 9.24142 7.7995 9.63944
274 2 2.2208 7.84022 12.0009 8.01868
275 2 2.2208 7.82602 6.49682 8.18666
276 2 2.2208 10.4934 6.34117 11.0601
277 2 2.2208 10.6072 12.0773 10.8172
278 1 -1.1104 11.9115 7.70569 12.3932
279 1 -1.1104 12.1469 7.77065 9.32287
280 1 -1.1104 12.0202 4.92818 12.213
281 1 -1.1104 12.0121 10.7018 12.1395
282 2 2.2208 10.6764 9.32058 8.16392
283 1 -1.1104 11.9034 5.0347 9.50348
284 1 -1.1104 12.0144 10.7842 9.3978
285 1 -1.1104 9.08005 7.78084 12.481
9495 2 2.2208 13.3227 9.16303 10.9151
9491 2 2.2208 13.5249 12.0427 7.88982
117 1 -1.1104 0.798215 16.3935 6.52281
124 1 -1.1104 3.63645 13.6867 6.49038
118 1 -1.1104 6.44275 16.2582 6.65148
375 2 2.2208 2.3364 0.754082 13.6584
286 1 -1.1104 3.49196 19.0309 12.3146
287 1 -1.1104 3.61996 13.3972 12.3569
291 1 -1.1104 0.889722 19.212 9.26724
292 1 -1.1104 0.747254 16.5305 9.48867
293 2 2.2208 5.1737 20.6323 8.07972
294 1 -1.1104 0.743476 13.5968 9.48737
295 2 2.2208 5.07205 15.0173 7.90462
298 1 -1.1104 0.85416 19.148 12.2278
299 1 -1.1104 1.00853 13.6297 12.3842
300 2 2.2208 5.04592 17.8706 10.7114
301 1 -1.1104 3.72551 19.1825 9.53205
303 2 2.2208 2.23912 17.844 7.97197
304 1 -1.1104 3.49317 16.5026 9.40009
305 1 -1.1104 3.53414 13.4442 9.6117
307 1 -1.1104 0.754139 16.4661 12.3522
308 1 -1.1104 3.67705 16.3846 12.1956
309 2 2.2208 2.2064 20.5153 10.952
310 2 2.2208 2.25115 14.9781 10.9564
297 1 -1.1104 6.33632 13.4887 12.1655
306 1 -1.1104 6.25206 16.3641 12.2941
288 1 -1.1104 6.49811 19.3118 9.3878
289 1 -1.1104 6.52345 16.5783 9.55985
296 1 -1.1104 6.43724 19.3439 12.1069
290 1 -1.1104 6.09747 13.6738 9.43073
327 1 -1.1104 12.2524 18.9988 9.48108
149 1 -1.1104 11.976 16.1934 6.47469
331 2 2.2208 10.5618 17.745 10.8347
314 1 -1.1104 9.2452 16.2122 9.47859
330 1 -1.1104 12.0318 13.4276 12.2112
319 1 -1.1104 9.25232 13.5413 9.30414
322 1 -1.1104 9.21612 13.7033 12.0514
591 2 2.2208 10.6137 0.84944 -0.552602
325 2 2.2208 10.5835 14.7413 7.9404
328 1 -1.1104 12.0558 13.5318 9.32425
317 2 2.2208 7.64482 14.9597 10.8349
707 2 2.2208 10.7351 17.7547 -0.396256
9541 2 2.2208 13.3968 20.4571 11.046
326 1 -1.1104 11.9944 16.2257 12.2141
315 1 -1.1104 9.05601 16.4107 12.3315
324 2 2.2208 10.8027 20.4768 8.06994
562 2 2.2208 2.10748 -1.95055 -0.380544
445 2 2.2208 2.19571 12.1195 13.6155
708 2 2.2208 7.77644 15.0057 -0.324354
376 2 2.2208 4.92291 3.72515 13.5622
534 2 2.2208 10.5423 14.9527 13.5007
651 2 2.2208 10.7319 6.29383 -0.291772
409 2 2.2208 10.674 3.4844 13.637
533 2 2.2208 10.6463 20.525 13.6752
655 2 2.2208 13.5306 9.25369 -0.330196
508 2 2.2208 4.91806 14.9446 13.7246
444 2 2.2208 4.92512 9.09721 13.5623
628 2 2.2208 4.94263 12.0995 -0.229971
334 2 2.2208 5.04886 0.759309 16.5048
335 1 -1.1104 0.623337 -3.40804 17.9276
336 1 -1.1104 0.763818 2.11731 17.7622
339 1 -1.1104 0.837514 -3.28762 15.0181
341 1 -1.1104 0.710431 2.12349 14.7674
347 1 -1.1104 0.944059 -0.589187 17.964
349 2 2.2208 4.95634 -1.93819 19.2698
351 1 -1.1104 0.882731 -0.597113 15.1886
355 1 -1.1104 3.5705 -3.37415 17.8169
356 1 -1.1104 3.68154 2.23309 17.7215
357 2 2.2208 2.24142 0.915548 19.4043
358 1 -1.1104 3.68029 -3.65339 15.1003
360 1 -1.1104 3.55346 2.10862 15.1523
362 2 2.2208 2.20825 -2.03185 16.6
364 1 -1.1104 3.51936 -0.540145 18.0889
365 1 -1.1104 3.87567 -0.741391 15.1781
363 2 2.2208 2.08734 3.58325 16.4251
350 2 2.2208 5.06968 3.57772 19.3415
366 1 -1.1104 3.75626 -0.612226 20.879
361 1 -1.1104 3.62332 2.20819 20.5815
340 1 -1.1104 0.64475 -3.19798 20.6454
342 1 -1.1104 0.791377 2.25139 20.6928
353 1 -1.1104 6.47151 -0.536041 15.1311
348 1 -1.1104 6.30308 -0.622262 17.9546
338 1 -1.1104 6.59132 2.26954 17.9136
337 1 -1.1104 6.48298 -3.55311 17.9307
354 1 -1.1104 6.52633 -0.554732 20.7079
346 1 -1.1104 6.39348 2.31016 20.6921
345 1 -1.1104 6.33376 2.15383 14.9924
343 1 -1.1104 6.47285 -3.33433 15.1982
699 2 2.2208 10.674 14.9793 24.8625
403 2 2.2208 7.79173 -4.75365 19.3536
369 2 2.2208 2.13592 -4.70203 19.2169
377 2 2.2208 10.578 0.736384 16.6455
378 1 -1.1104 11.8754 -3.38303 18.0037
379 1 -1.1104 12.0279 2.27865 17.9179
380 1 -1.1104 11.9336 -3.32551 15.2903
382 1 -1.1104 11.8909 2.14483 15.1231
384 1 -1.1104 12.2179 -0.585895 18.0619
385 2 2.2208 10.6877 -1.95369 19.4617
387 1 -1.1104 12.0084 -0.646709 15.0795
389 1 -1.1104 9.10172 -3.37909 18.0322
390 1 -1.1104 9.07321 2.21627 18.0023
391 2 2.2208 7.76355 0.875716 19.3437
392 1 -1.1104 9.34243 -3.48164 15.1587
394 1 -1.1104 9.19177 2.24056 14.9979
396 2 2.2208 7.86912 -1.99449 16.5844
398 1 -1.1104 9.22676 -0.631794 17.9792
399 1 -1.1104 9.30273 -0.596392 15.1241
397 2 2.2208 7.91763 3.53328 16.5223
386 2 2.2208 10.7562 3.65409 19.3309
381 1 -1.1104 12.1771 -3.46923 20.8407
383 1 -1.1104 12.0471 2.35833 20.9523
393 1 -1.1104 9.39131 -3.26966 20.8651
9610 2 2.2208 13.5186 0.781657 19.3288
405 2 2.2208 13.3607 -2.05071 16.621
9604 2 2.2208 13.4463 3.54567 16.5103
567 2 2.2208 5.00862 -4.72784 22.1163
690 2 2.2208 7.88869 14.8873 22.0406
691 1 -1.1104 9.40163 19.2712 26.2088
410 2 2.2208 5.04416 6.29382 16.6844
411 2 2.2208 4.99917 11.8498 16.4011
412 1 -1.1104 0.878084 7.71752 17.9998
414 1 -1.1104 0.920291 7.9308 15.2574
418 1 -1.1104 0.670433 4.89687 17.8003
419 1 -1.1104 0.820726 10.6693 17.9228
422 2 2.2208 5.03328 9.09281 19.3163
423 1 -1.1104 0.666605 4.99538 14.9644
425 1 -1.1104 0.877122 10.7508 15.1222
431 1 -1.1104 3.56541 7.69313 17.9128
432 2 2.2208 2.03766 6.24864 19.423
433 2 2.2208 2.29956 12.1466 19.2769
434 1 -1.1104 3.7051 7.74425 15.0824
436 2 2.2208 2.20767 9.25867 16.6069
437 1 -1.1104 3.65494 5.08262 17.825
438 1 -1.1104 3.64287 10.4987 17.9826
439 1 -1.1104 3.59879 4.85195 14.9422
441 1 -1.1104 3.5533 10.7065 15.04
435 1 -1.1104 3.73361 7.80262 20.8138
440 1 -1.1104 3.63204 4.86389 20.7266
420 1 -1.1104 6.54103 4.81327 18.0595
417 1 -1.1104 6.67834 7.77984 20.7572
426 1 -1.1104 0.919269 10.7288 20.6294
427 1 -1.1104 6.12745 4.87619 15.2846
421 1 -1.1104 6.31836 10.4034 17.8209
413 1 -1.1104 6.33248 7.73036 17.9893
416 1 -1.1104 6.49975 7.5578 15.0662
415 1 -1.1104 0.826611 7.82027 20.637
424 1 -1.1104 0.823367 4.97008 20.7813
429 1 -1.1104 6.48321 10.3661 15.1736
428 1 -1.1104 6.59105 5.01645 20.7537
9679 2 2.2208 13.4197 6.60226 19.3826
9680 2 2.2208 13.4972 12.2486 19.0732
446 2 2.2208 10.6969 6.39783 16.474
447 2 2.2208 10.6485 12.0935 16.4211
448 1 -1.1104 12.0182 7.92552 17.9148
449 1 -1.1104 12.111 7.89411 15.1042
451 1 -1.1104 12.2032 5.00399 17.9645
452 1 -1.1104 12.0623 10.6964 17.9047
453 2 2.2208 10.6981 9.28121 19.3204
454 1 -1.1104 12.0994 5.06208 15.2166
456 1 -1.1104 12.0065 10.645 15.1323
458 1 -1.1104 9.21065 8.08975 17.8405
459 2 2.2208 7.93666 6.34278 19.4241
460 2 2.2208 7.80446 12.0426 19.2598
461 1 -1.1104 9.32258 7.92579 15.2126
463 2 2.2208 7.86304 9.03463 16.4059
464 1 -1.1104 9.41948 5.12757 17.9176
465 1 -1.1104 9.31902 10.8858 17.9229
466 1 -1.1104 9.30359 4.95468 15.146
468 1 -1.1104 9.115 10.6687 15.0464
467 1 -1.1104 9.35808 5.00405 20.6843
455 1 -1.1104 11.9675 5.03972 20.8031
457 1 -1.1104 12.0912 10.8804 20.5432
469 1 -1.1104 9.22108 10.4698 20.9227
9678 2 2.2208 13.4837 9.37261 16.6385
473 2 2.2208 5.12054 17.5451 16.6413
474 1 -1.1104 0.833907 13.5477 18.0021
475 1 -1.1104 0.812878 19.1194 17.7552
478 1 -1.1104 0.863878 13.4444 15.259
480 1 -1.1104 0.943301 19.0035 15.0095
486 1 -1.1104 0.847967 16.2763 17.7402
488 2 2.2208 5.0653 14.9329 19.3596
489 2 2.2208 5.12804 20.3397 19.2097
490 1 -1.1104 0.741439 16.2975 15.0994
494 1 -1.1104 3.67715 13.6421 18.0164
495 1 -1.1104 3.7566 18.9482 17.8946
496 2 2.2208 2.33917 17.7333 19.1008
497 1 -1.1104 3.62644 13.5287 15.1558
499 1 -1.1104 3.53832 19.1743 15.1636
501 2 2.2208 2.22895 14.8837 16.4498
502 2 2.2208 2.16678 20.5444 16.4341
503 1 -1.1104 3.68334 16.2878 17.7686
504 1 -1.1104 3.68037 16.3061 15.0085
500 1 -1.1104 3.78945 18.7882 20.6378
484 1 -1.1104 6.30963 18.9337 15.0892
487 1 -1.1104 6.47588 16.2042 17.8462
481 1 -1.1104 0.804676 19.215 20.5107
482 1 -1.1104 6.14664 13.2843 15.0246
476 1 -1.1104 6.46261 13.2296 17.7601
485 1 -1.1104 6.49846 18.9092 20.7109
477 1 -1.1104 6.50866 19.0196 17.8195
492 1 -1.1104 6.41094 15.8461 15.0282
493 1 -1.1104 6.56914 16.2627 20.5821
505 1 -1.1104 3.78563 16.0793 20.8022
483 1 -1.1104 6.4503 13.5565 20.6279
700 1 -1.1104 12.2282 16.547 23.3934
515 1 -1.1104 12.1589 19.1049 20.7277
525 1 -1.1104 9.27637 13.1713 20.5487
509 2 2.2208 10.6321 17.8515 16.5461
510 1 -1.1104 12.1989 13.5775 17.6792
511 1 -1.1104 12.0578 19.0094 17.9116
512 1 -1.1104 12.1059 13.4384 15.0109
514 1 -1.1104 12.0872 19.1954 15.1619
516 1 -1.1104 11.9272 16.2405 17.8053
517 2 2.2208 10.7461 14.7811 19.3357
518 2 2.2208 10.7299 20.5551 19.2711
519 1 -1.1104 12.0953 16.4217 14.9903
521 1 -1.1104 9.24336 13.5722 17.7494
522 1 -1.1104 9.17951 19.1756 18.0543
523 2 2.2208 7.83881 17.6305 19.3815
524 1 -1.1104 9.41637 13.4733 14.9901
526 1 -1.1104 9.07364 19.0472 15.2613
528 2 2.2208 7.9457 14.7701 16.393
529 2 2.2208 7.80907 20.4796 16.4907
530 1 -1.1104 9.14743 16.2639 18.0331
531 1 -1.1104 9.2781 16.2959 15.1419
520 1 -1.1104 12.2538 16.3252 20.5613
527 1 -1.1104 9.32046 19.1785 20.8137
9751 2 2.2208 13.3716 20.4129 16.5441
9748 2 2.2208 13.5059 14.8471 16.2963
9750 2 2.2208 13.4743 17.7053 19.3028
513 1 -1.1104 12.1715 13.7171 20.7467
532 1 -1.1104 9.3483 16.206 20.7221
688 1 -1.1104 9.42942 16.187 23.4445
359 1 -1.1104 3.43863 -3.23102 20.4673
344 1 -1.1104 6.36411 -3.43286 20.5665
352 1 -1.1104 0.801733 -0.425794 20.9528
537 2 2.2208 4.91457 0.87805 22.089
538 1 -1.1104 0.807855 -3.45033 23.3523
539 1 -1.1104 0.715266 2.33979 23.6089
542 1 -1.1104 0.728676 -3.23023 26.256
543 1 -1.1104 0.727888 2.29524 26.3308
546 1 -1.1104 0.619461 -0.495992 23.7451
548 2 2.2208 5.04102 -1.91575 24.9563
549 2 2.2208 5.01705 3.63937 25.0615
550 1 -1.1104 0.700622 -0.58076 26.4281
552 1 -1.1104 3.40897 -3.3792 23.3331
553 1 -1.1104 3.74339 2.2644 23.5129
554 2 2.2208 2.16193 0.935662 24.9631
555 1 -1.1104 3.6004 -3.41423 26.2568
556 1 -1.1104 3.55073 2.55338 26.5278
557 2 2.2208 2.33258 -1.93474 22.1202
559 1 -1.1104 3.61149 -0.483334 23.5342
560 1 -1.1104 3.59201 -0.502564 26.3063
558 2 2.2208 2.08469 3.69407 22.2017
545 1 -1.1104 6.30483 2.17757 26.3741
544 1 -1.1104 6.26915 -3.33692 26.3644
547 1 -1.1104 6.26572 -0.576194 23.3525
402 2 2.2208 10.638 -4.67893 16.7262
541 1 -1.1104 6.52028 2.26421 23.5223
551 1 -1.1104 6.5431 -0.47449 26.241
540 1 -1.1104 6.31784 -3.36812 23.562
568 2 2.2208 2.11622 -4.76912 24.8995
400 1 -1.1104 9.25117 -0.382862 20.7386
395 1 -1.1104 9.17307 2.32319 20.7182
388 1 -1.1104 12.0727 -0.458667 20.8308
703 1 -1.1104 12.1846 19.4355 23.5393
506 2 2.2208 2.28706 17.6076 13.6156
599 2 2.2208 13.4808 -1.91947 22.1287
694 2 2.2208 7.84744 17.7141 25.0438
573 2 2.2208 10.5441 1.0205 22.0229
574 1 -1.1104 11.9773 -3.33075 23.4896
575 1 -1.1104 11.9144 2.34638 23.6848
576 1 -1.1104 11.9872 -3.54461 26.284
577 1 -1.1104 11.8224 2.25451 26.3643
578 1 -1.1104 12.0201 -0.670313 23.549
579 2 2.2208 10.7305 -2.10503 24.9669
581 1 -1.1104 12.0502 -0.606895 26.1822
582 1 -1.1104 9.25959 -3.43693 23.6335
583 1 -1.1104 9.26173 2.24564 23.5386
584 2 2.2208 7.84476 0.757608 24.9451
585 1 -1.1104 9.34866 -3.43387 26.2909
586 1 -1.1104 9.1629 2.22654 26.1934
587 2 2.2208 7.78095 -1.89322 22.1647
589 1 -1.1104 9.26978 -0.465342 23.4883
590 1 -1.1104 9.39799 -0.52357 26.2042
580 2 2.2208 10.64 3.76348 24.8842
407 2 2.2208 7.7992 1.06316 13.6757
626 2 2.2208 4.99871 6.49499 27.6983
9811 2 2.2208 13.4301 3.53223 22.2454
600 2 2.2208 13.4454 0.803019 24.915
588 2 2.2208 7.85786 3.62104 22.2905
698 2 2.2208 10.745 20.5914 24.7747
696 1 -1.1104 9.3533 13.3918 23.3648
713 2 2.2208 13.6228 14.8652 22.2776
442 1 -1.1104 3.61347 10.7019 20.835
430 1 -1.1104 6.21908 10.6654 20.7293
687 1 -1.1104 9.3673 16.3457 26.3382
408 2 2.2208 10.5597 -2.18758 13.6404
602 2 2.2208 5.01947 6.37021 22.1352
603 2 2.2208 4.99512 12.082 22.1506
604 1 -1.1104 0.820937 7.9212 23.5257
606 1 -1.1104 0.79395 7.89818 26.1635
608 1 -1.1104 0.553349 5.1104 23.6054
609 1 -1.1104 0.875679 10.7771 23.5303
612 2 2.2208 5.15483 9.32413 24.8742
613 1 -1.1104 0.855622 5.16199 26.2243
614 1 -1.1104 0.77467 10.8387 26.2946
617 1 -1.1104 3.75957 7.86048 23.612
618 2 2.2208 2.29629 6.62649 24.7831
619 2 2.2208 2.22201 12.0894 24.9739
620 1 -1.1104 3.52883 8.06926 26.3421
621 2 2.2208 2.19996 9.2844 22.1522
622 1 -1.1104 3.38115 4.96017 23.4716
623 1 -1.1104 3.54022 10.7196 23.5416
624 1 -1.1104 3.45629 5.21391 26.3473
625 1 -1.1104 3.72135 10.7679 26.3813
616 1 -1.1104 6.51566 10.7362 26.3845
605 1 -1.1104 6.38947 7.84001 23.3951
607 1 -1.1104 6.38915 7.84674 26.3152
611 1 -1.1104 6.53008 10.7906 23.5781
610 1 -1.1104 6.2084 5.01279 23.6594
615 1 -1.1104 6.32366 5.098 26.396
462 1 -1.1104 9.20941 7.75482 20.7278
450 1 -1.1104 12.0734 7.9089 20.6253
654 2 2.2208 13.5127 12.0515 24.9864
9870 2 2.2208 13.5428 9.35413 22.1509
695 1 -1.1104 9.46934 19.1841 23.4321
627 2 2.2208 2.23976 9.40752 27.7737
633 1 -1.1104 9.36064 10.7964 26.5189
634 1 -1.1104 9.24914 4.91666 26.4276
635 1 -1.1104 9.29916 10.6443 23.7792
636 1 -1.1104 9.09313 5.18949 23.6013
637 2 2.2208 7.8656 9.38977 22.3542
638 1 -1.1104 8.98599 7.62947 26.3633
639 2 2.2208 7.94781 12.14 25.0202
640 2 2.2208 7.79335 6.47392 24.9676
641 2 2.2208 10.5693 6.44319 22.0832
642 2 2.2208 10.797 12.1206 22.02
643 1 -1.1104 12.0369 7.85664 23.5996
644 1 -1.1104 12.0536 7.82563 26.4778
645 1 -1.1104 12.0193 5.19874 23.5734
646 1 -1.1104 12.1542 10.7341 23.5219
647 2 2.2208 10.8195 9.35753 24.9707
648 1 -1.1104 11.9929 5.07577 26.2372
649 1 -1.1104 12.1871 10.6691 26.275
650 1 -1.1104 9.20185 7.81182 23.6259
656 2 2.2208 13.4179 6.46699 25.0381
689 2 2.2208 7.93179 20.5569 22.1116
709 2 2.2208 13.5506 20.695 22.1112
498 1 -1.1104 3.58242 13.4744 20.7893
491 1 -1.1104 0.806116 16.4116 20.6836
479 1 -1.1104 0.885869 13.5412 20.8497
705 2 2.2208 10.7309 17.8017 22.2637
675 1 -1.1104 6.56391 16.2425 23.6328
667 1 -1.1104 6.45027 13.5856 23.5477
658 1 -1.1104 6.56266 13.3757 26.3144
672 2 2.2208 2.29518 17.755 25.0505
677 1 -1.1104 3.83757 16.2419 23.5731
676 1 -1.1104 0.927195 16.3393 23.4822
671 1 -1.1104 3.59386 19.328 26.324
679 2 2.2208 2.29314 14.8596 21.9971
670 2 2.2208 5.07488 17.6206 22.2836
669 1 -1.1104 0.874374 13.631 23.5229
678 2 2.2208 2.30516 20.4445 22.0635
673 1 -1.1104 3.67998 16.3812 26.4116
674 1 -1.1104 3.65236 13.7306 26.4823
657 1 -1.1104 3.92914 19.1635 23.541
659 1 -1.1104 3.64643 13.5576 23.7203
661 1 -1.1104 0.725923 19.2587 26.427
662 1 -1.1104 0.826755 16.3856 26.5
663 1 -1.1104 1.02916 13.4367 26.4903
665 2 2.2208 5.08572 20.5217 24.9711
666 2 2.2208 5.04119 14.7902 24.9815
668 1 -1.1104 0.881235 19.1338 23.5699
660 1 -1.1104 6.60952 16.4419 26.4153
664 1 -1.1104 6.78076 19.0735 23.55
693 1 -1.1104 6.49209 19.1836 26.3371
701 1 -1.1104 12.0644 19.2458 26.2258
692 1 -1.1104 9.37861 13.6133 26.1755
697 1 -1.1104 11.9931 16.4374 26.3352
704 1 -1.1104 12.2548 13.5097 23.3861
702 1 -1.1104 12.1216 13.6301 26.2452
712 2 2.2208 13.4957 17.765 25.0005
653 2 2.2208 10.8046 12.0504 27.7939
706 2 2.2208 8.01642 20.5993 27.7533
443 2 2.2208 2.11662 6.42261 13.8022
507 2 2.2208 5.02102 20.4039 13.696
680 2 2.2208 2.16886 20.6366 27.6585
710 2 2.2208 13.5537 20.572 27.7983
592 2 2.2208 7.72321 -1.93466 27.7642
9677 2 2.2208 13.4567 6.44714 13.7398
9608 2 2.2208 13.4785 0.691458 13.7893
470 2 2.2208 7.57374 6.22058 13.8206
536 2 2.2208 13.4498 17.8102 13.7271
374 2 2.2208 4.99728 -2.14557 13.7579
535 2 2.2208 7.64784 17.6167 13.8168
681 2 2.2208 5.04781 17.7471 27.6955
471 2 2.2208 10.6401 9.30286 13.6838
711 2 2.2208 13.4853 14.8256 27.6208
561 2 2.2208 5.03396 0.96683 27.7466
9682 2 2.2208 13.5199 12.0883 13.6074
714 2 2.2208 5.10059 23.3841 5.23719
715 2 2.2208 5.10134 28.9578 5.35412
716 1 -1.1104 0.673309 24.8581 0.986922
717 1 -1.1104 0.785402 24.6877 3.82766
718 1 -1.1104 0.683164 21.9332 1.06662
719 1 -1.1104 0.838508 27.7598 0.843114
720 2 2.2208 4.91211 26.1061 2.3959
721 1 -1.1104 0.713678 21.8593 4.123
722 1 -1.1104 0.948705 27.473 3.90264
723 1 -1.1104 3.58473 24.7017 0.961592
724 2 2.2208 2.07159 23.3322 2.30882
725 2 2.2208 2.3487 28.8058 2.4321
726 1 -1.1104 3.63202 24.7866 3.81997
727 2 2.2208 2.18407 26.1196 5.27764
728 1 -1.1104 3.59358 21.8334 0.896856
729 1 -1.1104 3.79102 27.5159 0.991966
730 1 -1.1104 3.38651 22.0281 3.54072
731 1 -1.1104 3.55701 27.6183 3.88209
737 1 -1.1104 6.38297 21.9504 1.07543
858 1 -1.1104 0.79831 27.5266 6.63276
736 1 -1.1104 6.19322 24.5229 3.67403
735 1 -1.1104 6.45482 24.6573 0.974419
740 1 -1.1104 6.49255 27.4671 4.04581
861 1 -1.1104 3.61752 24.7455 6.67502
738 1 -1.1104 6.49385 27.4111 1.07122
739 1 -1.1104 6.5504 21.8856 3.93724
860 1 -1.1104 6.4668 27.6573 6.75856
862 1 -1.1104 3.82988 21.9671 6.61278
863 1 -1.1104 3.62145 27.4667 6.73097
741 2 2.2208 10.7689 23.3737 5.20263
742 2 2.2208 10.6703 29.0545 5.36187
743 1 -1.1104 12.29 24.7358 0.819037
744 1 -1.1104 12.0394 24.9529 3.72901
745 1 -1.1104 12.1651 21.9347 0.915379
746 1 -1.1104 12.1701 27.412 1.12921
747 2 2.2208 10.7358 26.3263 2.36705
748 1 -1.1104 11.9575 21.9861 3.78157
749 1 -1.1104 11.919 27.707 4.03566
750 1 -1.1104 9.43255 24.7324 1.08308
751 2 2.2208 7.81924 23.1797 2.53451
752 2 2.2208 7.82656 28.9347 2.51549
753 1 -1.1104 9.26152 24.4683 3.78865
754 2 2.2208 7.95886 26.1342 5.36784
755 1 -1.1104 9.35117 21.9067 0.937272
756 1 -1.1104 9.25812 27.5854 1.04118
757 1 -1.1104 9.35322 21.6612 3.67099
758 1 -1.1104 9.17333 27.5078 3.69679
890 1 -1.1104 12.1639 27.4804 6.83986
892 1 -1.1104 9.56758 21.9519 6.75314
889 1 -1.1104 12.2964 21.8581 6.71134
893 1 -1.1104 9.37063 27.4535 6.64851
761 2 2.2208 13.4298 26.1258 5.05919
1058 2 2.2208 10.6649 34.5525 -0.391609
759 2 2.2208 13.4951 23.3582 2.30036
891 1 -1.1104 9.21596 24.6925 6.62365
853 2 2.2208 13.4815 45.8814 2.28528
762 2 2.2208 5.04729 34.7068 5.18564
763 1 -1.1104 0.649544 30.4799 1.29481
764 1 -1.1104 0.917039 36.1602 1.03091
766 1 -1.1104 0.871886 30.1725 3.78436
767 1 -1.1104 0.919526 36.0043 3.84502
769 1 -1.1104 0.974372 33.403 1.12936
770 2 2.2208 4.93584 31.5483 2.40213
771 2 2.2208 5.19627 37.5927 2.48316
772 1 -1.1104 0.871622 33.0634 3.86777
774 1 -1.1104 3.52122 30.2422 0.910987
775 1 -1.1104 3.83032 36.1421 1.00706
776 2 2.2208 2.54497 34.7679 2.44913
777 1 -1.1104 3.58107 30.5144 3.89015
778 1 -1.1104 3.95285 36.1514 3.76851
779 2 2.2208 2.21517 31.8026 5.26675
780 2 2.2208 2.20851 37.4688 5.27688
781 1 -1.1104 3.67175 33.1292 1.03975
782 1 -1.1104 3.64242 33.1934 3.82305
919 1 -1.1104 3.663 35.8203 6.72672
918 1 -1.1104 3.72195 30.2749 6.89088
917 1 -1.1104 6.56512 33.2572 6.49357
788 1 -1.1104 6.32514 32.9675 1.09258
787 1 -1.1104 6.42096 30.289 3.95068
913 1 -1.1104 0.9239 36.2132 6.86454
786 1 -1.1104 6.39478 30.1217 0.99739
765 1 -1.1104 6.54419 35.8471 1.08888
768 1 -1.1104 6.56326 36.0742 3.99196
773 1 -1.1104 6.47874 33.2976 3.8856
920 1 -1.1104 3.68245 33.1086 6.6838
914 1 -1.1104 6.41773 30.3496 6.79469
760 2 2.2208 13.3423 29.0376 2.69156
789 2 2.2208 10.6177 34.6389 5.26538
790 1 -1.1104 12.0049 30.1989 1.23888
791 1 -1.1104 12.0693 35.8074 0.93298
792 1 -1.1104 12.1766 30.6071 3.93376
793 1 -1.1104 12.162 36.2653 3.88741
794 1 -1.1104 12.0708 32.8687 1.04043
795 2 2.2208 10.6749 31.8416 2.4246
796 2 2.2208 10.844 37.5795 2.34654
797 1 -1.1104 11.9628 33.5462 3.79867
798 1 -1.1104 9.16583 30.3887 1.05579
799 1 -1.1104 9.30615 35.8003 0.932153
800 2 2.2208 7.93947 34.6066 2.47453
801 1 -1.1104 9.28445 30.3329 3.93247
802 1 -1.1104 9.3265 36.2328 3.75171
803 2 2.2208 7.75593 31.6973 5.27508
804 2 2.2208 7.98325 37.4793 5.20449
805 1 -1.1104 9.13238 33.2116 0.924791
806 1 -1.1104 9.19972 33.1533 3.88397
949 1 -1.1104 9.13343 30.2998 6.56467