ITEM: TIMESTEP
40000
ITEM: NUMBER OF ATOMS
17910
ITEM: BOX BOUNDS pp pp pp
-3.9140605413896651e-01 2.7731406054139008e+01
-4.7671732396077378e+00 3.3284717323960467e+02
-4.0152202537278220e-01 2.7741522025373023e+01
ITEM: ATOMS id type q x y z
1 2 2.2208 5.1576 0.736432 5.34997
2 1 -1.1104 0.815566 -3.53022 0.926504
3 1 -1.1104 0.788329 2.30818 0.912391
6 1 -1.1104 0.875313 -3.28913 3.68146
7 1 -1.1104 0.997137 2.09071 3.932
10 1 -1.1104 0.816278 -0.603317 0.827668
12 2 2.2208 5.03324 -1.87793 2.33751
14 1 -1.1104 0.946563 -0.679604 3.63155
16 1 -1.1104 3.74419 -3.20251 0.841936
17 1 -1.1104 3.6035 2.23905 1.02646
18 2 2.2208 2.2352 0.968518 2.46069
19 1 -1.1104 3.66389 -3.4991 3.79847
20 1 -1.1104 3.67218 2.33353 3.72879
21 2 2.2208 2.28961 -1.95208 5.09931
22 2 2.2208 2.34811 3.6182 5.14577
23 1 -1.1104 3.65482 -0.322322 1.05316
24 1 -1.1104 3.65469 -0.553024 3.73502
13 2 2.2208 5.06668 3.62312 2.4115
170 1 -1.1104 0.841899 -0.800281 6.37793
8 1 -1.1104 6.55261 -3.23734 3.90969
15 1 -1.1104 6.61449 -0.518064 3.97182
9 1 -1.1104 6.57369 2.19187 3.8935
172 1 -1.1104 3.56416 -3.28521 6.67998
167 1 -1.1104 0.678222 2.01338 6.70409
174 1 -1.1104 3.6073 -0.436004 6.45243
4 1 -1.1104 6.45241 -3.17781 1.04572
168 1 -1.1104 6.48548 -3.4231 6.51578
171 1 -1.1104 6.45315 -0.678113 6.96492
166 1 -1.1104 0.889162 -3.40011 6.59477
11 1 -1.1104 6.50751 -0.373903 1.02384
5 1 -1.1104 6.35553 2.33346 0.970157
31 2 2.2208 10.7536 1.05357 5.31072
32 1 -1.1104 12.0796 -3.35496 1.02534
33 1 -1.1104 12.0591 2.33494 1.09637
34 1 -1.1104 11.9616 -3.39251 3.8125
35 1 -1.1104 12.087 2.19239 3.97028
36 1 -1.1104 12.0866 -0.651218 0.92715
37 2 2.2208 10.6505 -1.92166 2.4115
38 2 2.2208 10.7377 3.79024 2.19953
39 1 -1.1104 12.0331 -0.35151 3.66781
40 1 -1.1104 9.28872 -3.27244 0.92155
41 1 -1.1104 9.19401 2.20586 1.08453
42 2 2.2208 7.92175 0.920547 2.44946
43 1 -1.1104 9.21839 -3.24599 3.78172
44 1 -1.1104 9.32935 2.61051 3.97383
45 2 2.2208 7.91573 -1.94257 5.23767
46 2 2.2208 7.82996 3.71273 5.1837
47 1 -1.1104 9.43165 -0.573343 1.02163
48 1 -1.1104 9.38986 -0.452955 3.75924
205 1 -1.1104 11.9871 -3.31769 6.72748
49 2 2.2208 13.4258 0.855519 2.25045
50 2 2.2208 13.5076 -1.74174 5.09362
210 1 -1.1104 9.2546 -0.595073 6.82156
206 1 -1.1104 12.0639 2.39213 6.61004
51 2 2.2208 7.78208 -4.69327 2.43279
208 1 -1.1104 9.34297 -3.30745 6.59601
53 2 2.2208 13.4547 -4.90269 2.50197
9279 2 2.2208 13.4868 3.66463 5.10307
536 2 2.2208 13.6961 17.7726 13.6256
54 2 2.2208 5.21262 6.46519 5.26124
55 2 2.2208 4.95922 12.0598 5.0351
56 1 -1.1104 0.744759 7.95931 1.17041
58 1 -1.1104 0.727702 8.07358 3.96108
60 1 -1.1104 0.850068 5.04537 1.24465
61 1 -1.1104 1.08252 11.0018 0.807018
66 2 2.2208 5.12806 9.2984 2.35648
67 1 -1.1104 1.01884 5.21835 3.93603
68 1 -1.1104 0.8445 10.7258 3.75459
71 1 -1.1104 3.63604 7.92957 0.981901
72 2 2.2208 2.35461 6.36979 2.46371
73 2 2.2208 2.25122 12.2151 2.34566
74 1 -1.1104 3.5871 7.96378 3.76068
75 2 2.2208 2.21515 9.20898 5.11474
76 1 -1.1104 3.71572 5.09101 0.915676
77 1 -1.1104 3.67395 10.7151 1.03278
79 1 -1.1104 3.91226 5.24658 3.73559
80 1 -1.1104 3.56273 10.7415 3.77588
236 1 -1.1104 0.802413 4.9386 6.79762
239 1 -1.1104 3.7042 5.07482 6.59373
64 1 -1.1104 6.60728 10.7873 0.948607
234 1 -1.1104 0.920909 7.6691 6.81152
62 1 -1.1104 0.690483 10.5446 6.53734
57 1 -1.1104 6.67387 8.07067 1.07831
70 1 -1.1104 6.48793 10.6904 3.76666
65 1 -1.1104 6.51706 10.6279 6.50593
69 1 -1.1104 6.64519 5.01917 3.72473
59 1 -1.1104 6.33678 7.76698 3.72251
63 1 -1.1104 6.52561 5.40696 0.871411
237 1 -1.1104 6.49438 5.15532 6.70547
78 1 -1.1104 3.63804 10.7479 6.72417
9308 2 2.2208 13.4854 9.31111 5.03393
104 2 2.2208 13.5334 12.1994 2.22003
84 2 2.2208 10.8154 6.37878 5.06205
85 2 2.2208 10.5417 12.2144 5.30842
86 1 -1.1104 12.078 8.04111 0.991159
87 1 -1.1104 12.0199 7.92035 3.64621
88 1 -1.1104 12.1432 5.28022 0.892874
89 1 -1.1104 12.204 10.6926 0.886421
91 2 2.2208 10.6929 9.45614 2.47426
92 1 -1.1104 12.2313 5.08504 3.56621
93 1 -1.1104 12.1088 10.7972 3.8731
94 1 -1.1104 9.46039 7.96904 1.10266
95 2 2.2208 8.06498 6.65674 2.41434
96 2 2.2208 7.97718 12.1344 2.25205
97 1 -1.1104 9.25641 7.90467 3.81018
98 2 2.2208 7.95936 9.21564 5.16608
99 1 -1.1104 9.41969 5.06119 0.96172
100 1 -1.1104 9.50899 10.7148 0.89787
102 1 -1.1104 9.41613 5.27416 3.70492
103 1 -1.1104 9.0857 10.8647 3.8064
265 1 -1.1104 12.2134 7.70698 6.32388
266 1 -1.1104 12.0629 5.04543 6.38709
105 2 2.2208 13.5534 6.66387 2.36292
106 2 2.2208 5.13262 17.6707 5.25992
107 1 -1.1104 0.944464 13.6872 1.0139
109 1 -1.1104 0.981387 19.2933 0.98933
113 1 -1.1104 0.89835 13.5071 3.74986
114 1 -1.1104 1.09544 19.1879 3.70533
116 1 -1.1104 0.825655 16.474 0.904794
119 2 2.2208 5.19918 14.9408 2.39357
120 2 2.2208 5.23926 20.5774 2.47706
121 1 -1.1104 1.11708 16.4268 3.89394
123 1 -1.1104 3.72361 13.5687 1.14556
125 1 -1.1104 3.91529 19.1218 1.03125
127 2 2.2208 2.41922 17.7553 2.34073
128 1 -1.1104 3.73111 13.5169 3.70574
129 1 -1.1104 3.94442 19.1259 3.73679
130 2 2.2208 2.33884 14.8972 5.21645
131 2 2.2208 2.37971 20.558 5.23736
132 1 -1.1104 3.76743 16.3001 1.1032
134 1 -1.1104 3.80405 16.4598 3.82769
108 1 -1.1104 0.940595 13.41 6.52743
302 1 -1.1104 0.623066 19.0841 6.56968
115 1 -1.1104 6.42943 13.2823 3.83949
122 1 -1.1104 6.54161 16.2028 3.872
133 1 -1.1104 3.72425 16.2278 6.43899
124 1 -1.1104 3.68022 13.3708 6.38937
140 1 -1.1104 6.53849 16.3485 1.23416
138 1 -1.1104 6.64498 19.1754 1.15189
111 1 -1.1104 6.31165 13.3856 6.49235
112 1 -1.1104 6.33725 18.8459 6.72371
139 1 -1.1104 6.6583 19.2163 3.85391
110 1 -1.1104 6.478 13.6352 0.921043
118 1 -1.1104 6.64492 16.1767 6.55109
9356 2 2.2208 13.5614 20.6861 5.13598
165 2 2.2208 13.5427 17.8582 2.29175
141 2 2.2208 10.6326 17.7272 5.15904
142 1 -1.1104 12.1831 13.5286 1.00405
144 1 -1.1104 12.2664 19.1813 0.801408
146 1 -1.1104 12.0899 13.5846 3.7952
147 1 -1.1104 12.1994 19.2939 3.79885
148 1 -1.1104 12.0076 16.351 1.10239
150 2 2.2208 10.8685 14.9115 2.49764
151 2 2.2208 10.8463 20.6161 2.25109
152 1 -1.1104 11.9785 16.6031 3.90483
153 1 -1.1104 9.22929 13.5945 0.978063
155 1 -1.1104 9.38592 19.087 0.87885
157 2 2.2208 7.96309 17.6823 2.52403
158 1 -1.1104 9.32161 13.5141 3.70063
159 1 -1.1104 9.38486 19.2689 3.59885
160 2 2.2208 7.88939 14.6634 5.24679
161 2 2.2208 8.05627 20.6112 5.04074
162 1 -1.1104 9.3488 16.3202 0.999309
164 1 -1.1104 9.36256 16.1802 4.07214
145 1 -1.1104 12.0562 19.1717 6.51053
154 1 -1.1104 9.10399 13.611 6.69243
149 1 -1.1104 12.1426 16.3424 6.72127
156 1 -1.1104 9.09381 19.1602 6.58334
9377 2 2.2208 13.5251 14.993 5.18225
173 1 -1.1104 3.57657 2.24208 6.66552
169 1 -1.1104 6.44016 2.33398 6.69544
314 1 -1.1104 9.39067 16.208 9.62798
175 2 2.2208 5.11192 0.782372 10.7605
176 1 -1.1104 0.936741 -3.2478 12.2207
177 1 -1.1104 0.708123 2.16306 12.3989
180 1 -1.1104 0.582501 -3.27265 9.3624
181 1 -1.1104 1.00122 2.06605 9.60534
184 1 -1.1104 0.898253 -0.558082 12.1438
186 2 2.2208 4.92606 -2.02269 8.0947
187 2 2.2208 5.0116 3.7783 7.98066
188 1 -1.1104 1.04024 -0.640742 9.16734
190 1 -1.1104 3.84416 -3.43836 12.4839
191 1 -1.1104 3.44801 2.08905 12.2891
192 2 2.2208 2.20167 1.0441 7.98161
193 1 -1.1104 3.50379 -3.43692 9.60893
194 1 -1.1104 3.81772 2.2691 9.35803
195 2 2.2208 2.18496 -1.90499 10.7612
197 1 -1.1104 3.74768 -0.707155 12.1617
198 1 -1.1104 3.60386 -0.54708 9.35731
179 1 -1.1104 6.36964 2.09485 12.2547
182 1 -1.1104 6.48968 -3.37555 9.53935
185 1 -1.1104 6.65098 -0.702292 12.2419
189 1 -1.1104 6.35941 -0.571038 9.57665
178 1 -1.1104 6.71479 -3.4578 12.2974
196 2 2.2208 2.25957 3.62819 10.9626
183 1 -1.1104 6.54964 2.31602 9.45627
230 2 2.2208 13.641 -1.98187 10.9691
209 1 -1.1104 9.17393 2.20246 6.69998
207 1 -1.1104 12.1444 -0.414217 6.34045
330 1 -1.1104 12.1889 13.4192 12.0991
233 2 2.2208 13.4156 -4.70416 8.10513
9414 2 2.2208 13.6329 3.61504 10.946
211 2 2.2208 10.7747 0.8568 10.9796
212 1 -1.1104 12.1314 -3.22248 12.2079
213 1 -1.1104 12.1055 2.19763 12.4175
214 1 -1.1104 12.1355 -3.36947 9.63351
215 1 -1.1104 12.2383 2.23103 9.52154
216 1 -1.1104 12.1209 -0.468623 12.2883
217 2 2.2208 10.6386 -2.04066 8.14858
218 2 2.2208 10.7647 3.73281 7.94119
219 1 -1.1104 12.1565 -0.659732 9.49592
220 1 -1.1104 9.41516 -3.39805 12.3643
221 1 -1.1104 9.45028 2.36633 12.2646
222 2 2.2208 8.01943 0.853903 8.18058
223 1 -1.1104 9.28398 -3.48327 9.45078
224 1 -1.1104 9.39732 2.02463 9.49642
225 2 2.2208 7.95998 -2.07077 10.8557
226 2 2.2208 7.95802 3.66631 10.794
227 1 -1.1104 9.30838 -0.270007 12.3663
228 1 -1.1104 9.44902 -0.720864 9.72915
52 2 2.2208 10.6088 -4.81137 5.27489
229 2 2.2208 13.4964 0.878795 8.08469
9541 2 2.2208 13.4674 20.4964 10.8522
324 2 2.2208 10.7889 20.599 7.92498
318 1 -1.1104 9.20054 19.1737 9.60918
238 1 -1.1104 3.52924 7.99183 6.58774
235 1 -1.1104 6.42196 7.8874 6.79664
711 2 2.2208 13.4753 14.8577 -0.511373
240 2 2.2208 5.23245 6.41252 10.855
241 2 2.2208 5.14956 12.1527 10.7374
242 1 -1.1104 0.893345 7.97828 12.4505
244 1 -1.1104 0.678895 7.71608 9.53601
246 1 -1.1104 0.840299 5.03169 12.453
247 1 -1.1104 0.840358 10.7333 12.2187
250 2 2.2208 5.02846 9.31003 8.04887
251 1 -1.1104 1.02549 4.91351 9.51768
252 1 -1.1104 0.873027 10.5717 9.32813
255 1 -1.1104 3.59363 7.69036 12.4873
256 2 2.2208 2.24109 6.42368 8.09642
257 2 2.2208 2.22492 12.0248 7.86395
258 1 -1.1104 3.55565 7.69407 9.49904
259 2 2.2208 2.29803 9.14006 10.9172
260 1 -1.1104 3.70242 4.88019 12.3689
261 1 -1.1104 3.69596 10.7474 12.0962
262 1 -1.1104 3.78926 5.08318 9.41537
263 1 -1.1104 3.71066 10.7033 9.37415
249 1 -1.1104 6.38321 10.6662 12.4018
248 1 -1.1104 6.68364 4.97695 12.1396
253 1 -1.1104 6.57112 5.20294 9.38131
254 1 -1.1104 6.49933 10.5731 9.60307
245 1 -1.1104 6.33156 7.92258 9.40328
243 1 -1.1104 6.52187 7.80445 12.2701
9682 2 2.2208 13.4678 12.0454 13.6498
101 1 -1.1104 9.2647 10.568 6.54258
90 1 -1.1104 12.0768 10.5907 6.6634
267 1 -1.1104 9.48259 7.71945 6.45351
269 1 -1.1104 9.29923 5.03509 6.5211
9490 2 2.2208 13.5427 6.43366 8.00171
28 2 2.2208 2.26582 -4.72552 2.36566
9495 2 2.2208 13.4695 9.31227 10.7747
9491 2 2.2208 13.6406 12.0459 8.10126
264 1 -1.1104 9.25614 10.6068 9.19338
268 1 -1.1104 9.37802 5.02401 9.4145
270 1 -1.1104 9.2576 10.7571 12.0468
271 1 -1.1104 9.43065 5.20828 12.2838
272 2 2.2208 7.918 9.21861 10.6097
273 1 -1.1104 9.45547 7.81249 9.28686
274 2 2.2208 7.85079 12.0162 7.9359
275 2 2.2208 7.94424 6.4602 7.96104
276 2 2.2208 10.7759 6.41087 10.7514
277 2 2.2208 10.7342 12.0648 10.737
278 1 -1.1104 12.2873 7.62135 11.9454
279 1 -1.1104 12.1414 7.78488 9.23205
280 1 -1.1104 12.0812 5.10147 12.3297
281 1 -1.1104 11.9933 10.5495 12.1764
282 2 2.2208 10.7732 9.133 7.80465
283 1 -1.1104 12.1294 4.91895 9.51452
284 1 -1.1104 12.1773 10.647 9.4195
285 1 -1.1104 9.27709 7.76617 12.0048
320 2 2.2208 7.91397 17.6795 8.14871
29 2 2.2208 5.09764 -4.70204 5.12976
535 2 2.2208 7.79491 17.8223 13.6554
409 2 2.2208 10.7226 3.60048 13.6038
327 1 -1.1104 12.1217 19.0719 9.36377
117 1 -1.1104 0.899213 16.1501 6.67587
126 1 -1.1104 3.675 18.9949 6.44251
289 1 -1.1104 6.6618 16.3687 9.40601
296 1 -1.1104 6.34515 19.233 12.1729
297 1 -1.1104 6.66235 13.5328 12.1275
286 1 -1.1104 3.5944 19.1985 11.9125
287 1 -1.1104 3.9717 13.5616 12.2525
291 1 -1.1104 0.943451 19.2103 9.38521
292 1 -1.1104 1.04136 16.155 9.31608
293 2 2.2208 5.11258 20.3652 7.9204
294 1 -1.1104 0.890352 13.4825 9.38976
295 2 2.2208 5.20396 14.8783 7.87984
298 1 -1.1104 0.950599 19.0546 12.2239
299 1 -1.1104 1.12484 13.4636 12.1232
300 2 2.2208 5.05109 17.8338 10.7042
301 1 -1.1104 3.69615 19.111 9.30721
303 2 2.2208 2.38062 17.6071 7.78782
304 1 -1.1104 3.86745 16.3316 9.13307
305 1 -1.1104 3.64738 13.4371 9.29518
307 1 -1.1104 0.759849 16.1842 12.3583
308 1 -1.1104 3.60521 16.4304 12.0532
309 2 2.2208 2.20845 20.5058 10.8441
310 2 2.2208 2.41635 14.9079 10.8769
288 1 -1.1104 6.55503 19.1838 9.45764
290 1 -1.1104 6.58558 13.5804 9.34821
306 1 -1.1104 6.4711 16.2636 12.4344
563 2 2.2208 2.27479 3.74065 -0.24069
163 1 -1.1104 9.44902 16.3768 6.92018
143 1 -1.1104 11.8529 13.5186 6.69944
329 1 -1.1104 12.0563 19.2719 12.2003
328 1 -1.1104 12.1159 13.5698 9.43065
322 1 -1.1104 9.4388 13.7229 12.214
332 2 2.2208 13.4662 17.8056 8.0363
323 1 -1.1104 12.1622 16.1834 9.40077
321 1 -1.1104 9.15896 19.1927 12.3079
317 2 2.2208 7.92968 15.0295 10.9469
326 1 -1.1104 12.3861 16.5599 12.1302
319 1 -1.1104 9.28706 13.3171 9.38071
331 2 2.2208 10.8046 17.7713 10.8701
9677 2 2.2208 13.5464 6.39819 13.7024
333 2 2.2208 13.595 14.9612 10.7738
315 1 -1.1104 9.44114 16.5311 12.3971
316 2 2.2208 7.70713 20.7089 10.7991
325 2 2.2208 10.6713 14.9982 8.15463
591 2 2.2208 10.6775 0.882213 -0.372444
592 2 2.2208 7.98234 -1.6408 -0.456231
595 2 2.2208 10.6577 -4.72644 -0.438875
562 2 2.2208 2.20825 -1.96224 -0.386881
651 2 2.2208 10.6344 6.65023 -0.447853
471 2 2.2208 10.7314 9.27807 13.5142
682 2 2.2208 2.3314 15.157 -0.481797
680 2 2.2208 2.33927 20.6188 -0.393519
627 2 2.2208 2.37245 9.49427 -0.479338
443 2 2.2208 2.09978 6.45709 13.7166
566 2 2.2208 5.04068 -4.74666 -0.381477
706 2 2.2208 8.13755 20.5694 -0.403418
374 2 2.2208 5.16519 -2.08998 13.6924
445 2 2.2208 2.40563 12.1121 13.6657
593 2 2.2208 7.80222 3.6685 -0.238961
376 2 2.2208 5.16531 3.62162 13.7069
407 2 2.2208 7.90416 0.919646 13.5988
598 2 2.2208 13.5998 -1.90581 -0.297403
375 2 2.2208 2.3715 0.757845 13.6421
707 2 2.2208 10.7052 17.7312 -0.328506
506 2 2.2208 2.33715 17.7029 13.6177
472 2 2.2208 7.90513 12.1284 13.4368
9608 2 2.2208 13.4592 0.986764 13.6629
628 2 2.2208 5.12947 12.268 -0.462601
681 2 2.2208 5.14953 17.7953 -0.368033
334 2 2.2208 5.13744 0.929044 16.5749
335 1 -1.1104 0.846606 -3.26673 17.9007
336 1 -1.1104 0.989873 2.20685 18.0847
339 1 -1.1104 0.85227 -3.19659 14.9433
341 1 -1.1104 0.924339 2.22253 15.4389
347 1 -1.1104 0.887225 -0.475413 17.7246
349 2 2.2208 5.1168 -1.90461 19.296
350 2 2.2208 4.95803 3.75085 19.3004
351 1 -1.1104 0.854851 -0.453741 14.8453
355 1 -1.1104 3.58717 -3.43784 17.9349
356 1 -1.1104 3.6156 2.07673 17.9595
357 2 2.2208 2.22574 0.779797 19.3114
358 1 -1.1104 3.79916 -3.54305 15.093
360 1 -1.1104 3.54215 2.2732 15.1909
362 2 2.2208 2.18056 -2.06626 16.5795
363 2 2.2208 2.26601 3.61141 16.5407
364 1 -1.1104 3.61456 -0.639604 18.0536
365 1 -1.1104 3.57815 -0.580326 15.089
352 1 -1.1104 0.89052 -0.592397 20.5356
366 1 -1.1104 3.80645 -0.749594 20.8791
353 1 -1.1104 6.52105 -0.412402 15.0538
345 1 -1.1104 6.40093 2.27336 15.1314
348 1 -1.1104 6.31798 -0.609628 17.7992
340 1 -1.1104 0.734878 -3.33076 20.5811
361 1 -1.1104 3.61365 2.19845 20.6171
337 1 -1.1104 6.52247 -3.43705 17.8907
338 1 -1.1104 6.29442 2.25376 17.8833
344 1 -1.1104 6.73805 -3.21204 20.7
359 1 -1.1104 3.65545 -3.42264 20.8121
346 1 -1.1104 6.49644 2.27388 20.6341
343 1 -1.1104 6.4728 -3.24449 15.1966
354 1 -1.1104 6.60631 -0.490588 20.683
594 2 2.2208 13.4468 -4.69037 24.9401
9719 2 2.2208 -0.483204 9.35063 19.3181
9604 2 2.2208 13.4683 3.63793 16.4289
377 2 2.2208 10.6406 0.956326 16.544
378 1 -1.1104 12.1828 -3.5724 17.7965
379 1 -1.1104 12.1277 2.25888 17.8772
380 1 -1.1104 12.1366 -3.35495 15.0762
382 1 -1.1104 12.0712 2.38918 15.2262
384 1 -1.1104 12.0976 -0.539029 18.035
385 2 2.2208 10.68 -1.85344 19.3198
386 2 2.2208 10.6159 3.66748 19.3155
387 1 -1.1104 12.1102 -0.520225 15.3016
389 1 -1.1104 9.38019 -3.32986 18.0222
390 1 -1.1104 9.26323 2.33023 17.8477
391 2 2.2208 7.7965 0.910105 19.177
392 1 -1.1104 9.28083 -3.56873 15.1548
394 1 -1.1104 9.44475 2.15188 15.0119
396 2 2.2208 7.83702 -1.91829 16.4343
397 2 2.2208 7.85755 3.71306 16.4348
398 1 -1.1104 9.09409 -0.524649 17.8768
399 1 -1.1104 9.26086 -0.680418 15.1626
388 1 -1.1104 12.0075 -0.445032 20.8017
383 1 -1.1104 12.0822 2.41757 20.6441
395 1 -1.1104 9.26084 2.40327 20.8422
9610 2 2.2208 13.5367 0.914979 19.2879
405 2 2.2208 13.3961 -1.93655 16.55
400 1 -1.1104 9.41787 -0.565116 20.634
393 1 -1.1104 9.43547 -3.34276 20.6859
369 2 2.2208 2.22111 -4.78985 19.3654
708 2 2.2208 7.8614 14.9134 27.7107
410 2 2.2208 5.0325 6.50367 16.446
411 2 2.2208 5.03507 12.2181 16.4969
412 1 -1.1104 0.875005 7.85474 17.9618
414 1 -1.1104 0.679485 7.84473 15.3227
418 1 -1.1104 0.848046 4.98939 17.8886
419 1 -1.1104 1.01178 10.7848 17.966
422 2 2.2208 5.12677 9.34959 19.2928
423 1 -1.1104 0.775654 5.01644 15.043
425 1 -1.1104 0.958843 10.7314 15.0795
431 1 -1.1104 3.73555 7.99872 17.8211
432 2 2.2208 2.16151 6.38537 19.3485
433 2 2.2208 2.34079 12.1386 19.3933
434 1 -1.1104 3.73679 8.01582 15.0729
436 2 2.2208 2.33419 9.42794 16.4832
437 1 -1.1104 3.65969 4.93368 18.0726
438 1 -1.1104 3.73087 10.7691 18.0259
439 1 -1.1104 3.49386 5.13953 15.1283
441 1 -1.1104 3.5247 10.773 15.1068
416 1 -1.1104 6.44665 7.84371 14.9748
420 1 -1.1104 6.3341 5.1392 18.0135
417 1 -1.1104 6.39722 7.90209 20.6283
429 1 -1.1104 6.34807 10.7229 15.0909
440 1 -1.1104 3.43346 5.16853 20.8407
430 1 -1.1104 6.64343 10.7755 20.679
413 1 -1.1104 6.44663 7.91181 17.8819
421 1 -1.1104 6.55501 10.7371 17.8219
428 1 -1.1104 6.35323 5.00457 20.8187
427 1 -1.1104 6.59984 5.10598 15.0643
426 1 -1.1104 1.10928 10.8652 20.7888
435 1 -1.1104 3.53195 8.0343 20.76
415 1 -1.1104 0.650713 7.81311 20.6773
9680 2 2.2208 13.7232 12.0397 19.3279
446 2 2.2208 10.6385 6.38629 16.5963
447 2 2.2208 10.6963 12.1756 16.3964
448 1 -1.1104 12.1334 7.76757 17.7053
449 1 -1.1104 12.0634 7.93207 14.8915
451 1 -1.1104 11.958 5.04163 17.8772
452 1 -1.1104 12.1053 10.6293 18.0646
453 2 2.2208 10.6683 9.36094 19.2528
454 1 -1.1104 11.8693 5.15848 15.1025
456 1 -1.1104 11.9282 10.8262 14.9204
458 1 -1.1104 9.33786 7.93926 17.8281
459 2 2.2208 7.83609 6.48478 19.2541
460 2 2.2208 7.9359 12.1151 19.2345
461 1 -1.1104 9.22222 7.8801 15.0407
463 2 2.2208 7.80458 9.38567 16.4117
464 1 -1.1104 9.01173 5.0495 17.8122
465 1 -1.1104 9.21815 10.6777 17.7059
466 1 -1.1104 9.15746 5.16059 15.0153
468 1 -1.1104 9.05721 10.6969 14.8609
469 1 -1.1104 9.42154 10.8357 20.6344
462 1 -1.1104 9.37682 8.12678 20.6263
455 1 -1.1104 12.0841 5.19519 20.6109
457 1 -1.1104 12.0936 10.7315 20.7629
9678 2 2.2208 13.3956 9.26041 16.4645
9679 2 2.2208 13.4138 6.31806 19.1613
473 2 2.2208 5.07014 17.7972 16.3158
474 1 -1.1104 0.660203 13.5351 17.9945
475 1 -1.1104 0.81592 19.2099 17.8451
478 1 -1.1104 0.824621 13.5426 15.0505
480 1 -1.1104 0.798003 19.0735 14.9697
486 1 -1.1104 0.851499 16.3706 18.131
488 2 2.2208 5.09131 15.1303 19.2259
489 2 2.2208 5.17184 20.508 19.1122
490 1 -1.1104 0.873398 16.2657 15.1319
494 1 -1.1104 3.6219 13.87 17.7896
495 1 -1.1104 3.57105 19.3563 17.8055
496 2 2.2208 2.32729 17.8918 19.2958
497 1 -1.1104 3.63304 13.5436 15.0553
499 1 -1.1104 3.68471 19.1588 14.9722
501 2 2.2208 2.16446 15.0331 16.5847
502 2 2.2208 2.19792 20.7002 16.54
503 1 -1.1104 3.64829 16.6051 17.787
504 1 -1.1104 3.74096 16.2651 15.0992
479 1 -1.1104 0.806524 13.6338 20.6858
491 1 -1.1104 1.01694 16.3154 20.9007
487 1 -1.1104 6.49982 16.3629 17.9061
492 1 -1.1104 6.28708 16.4197 14.9864
493 1 -1.1104 6.68224 16.3612 20.5878
484 1 -1.1104 6.48179 19.2249 15.0234
483 1 -1.1104 6.55933 13.7469 20.5718
482 1 -1.1104 6.3579 13.4916 15.1332
477 1 -1.1104 6.4795 19.2538 17.6865
505 1 -1.1104 3.77889 16.4989 20.6552
476 1 -1.1104 6.25909 13.5531 17.9524
498 1 -1.1104 3.57415 13.7209 20.8225
568 2 2.2208 2.32164 -4.6776 25.0195
481 1 -1.1104 0.828471 19.0049 20.7991
500 1 -1.1104 3.5514 19.0601 20.741
9751 2 2.2208 13.5192 20.5037 16.3796
9750 2 2.2208 13.5974 17.7737 19.2551
532 1 -1.1104 9.43228 16.3619 20.7067
509 2 2.2208 10.6004 17.5666 16.5045
510 1 -1.1104 12.084 13.497 17.814
511 1 -1.1104 12.2558 19.0416 17.6796
512 1 -1.1104 12.0421 13.5429 15.12
514 1 -1.1104 12.0295 19.2902 15.0297
516 1 -1.1104 12.0831 16.4289 17.8191
517 2 2.2208 10.8064 14.7241 19.3254
518 2 2.2208 10.8405 20.4057 19.1672
519 1 -1.1104 12.0625 16.3699 14.8377
521 1 -1.1104 9.40035 13.5269 17.761
522 1 -1.1104 9.43481 18.9829 17.715
523 2 2.2208 7.94768 17.7249 19.1399
524 1 -1.1104 9.29235 13.5447 15.0478
526 1 -1.1104 9.19987 19.0704 15.0475
528 2 2.2208 7.74683 14.8992 16.4533
529 2 2.2208 7.87946 20.5139 16.4496
530 1 -1.1104 9.26702 16.1312 17.9714
531 1 -1.1104 9.21775 16.2857 15.0142
525 1 -1.1104 9.2119 13.3383 20.6743
527 1 -1.1104 9.22101 19.008 20.6155
9748 2 2.2208 13.4074 14.9175 16.5048
520 1 -1.1104 12.2572 16.3428 20.7528
342 1 -1.1104 0.693951 2.2232 21.013
537 2 2.2208 5.09924 0.839312 22.1709
538 1 -1.1104 0.7032 -3.33197 23.5601
539 1 -1.1104 0.749018 2.15129 23.7363
542 1 -1.1104 0.854974 -3.27057 26.294
543 1 -1.1104 0.625821 2.33793 26.439
546 1 -1.1104 0.711096 -0.553982 23.346
548 2 2.2208 5.063 -1.93793 24.7978
549 2 2.2208 5.00195 3.78767 25.0335
550 1 -1.1104 0.755576 -0.526803 26.1987
552 1 -1.1104 3.6614 -3.36992 23.4982
553 1 -1.1104 3.77111 2.20938 23.5237
554 2 2.2208 2.23562 0.88972 25.0285
555 1 -1.1104 3.80622 -3.33472 26.3234
556 1 -1.1104 3.68285 2.31634 26.3534
557 2 2.2208 2.20648 -1.91802 22.1049
559 1 -1.1104 3.55004 -0.540135 23.6349
560 1 -1.1104 3.69195 -0.442023 26.4275
558 2 2.2208 2.28068 3.58334 22.13
551 1 -1.1104 6.45926 -0.418492 26.4601
596 2 2.2208 10.6857 -4.58599 22.1316
540 1 -1.1104 6.55766 -3.49732 23.3332
547 1 -1.1104 6.49395 -0.614218 23.6534
541 1 -1.1104 6.56178 2.20672 23.4752
545 1 -1.1104 6.47438 2.31349 26.2728
544 1 -1.1104 6.57236 -3.33286 26.252
709 2 2.2208 13.6597 20.5261 22.0869
701 1 -1.1104 12.2833 19.2002 26.211
697 1 -1.1104 12.2174 16.5319 26.5082
381 1 -1.1104 12.2374 -3.2254 20.632
690 2 2.2208 7.871 15.0641 22.0078
689 2 2.2208 7.82194 20.6834 22.0574
9811 2 2.2208 13.4453 3.5591 22.1457
599 2 2.2208 13.5168 -1.86202 22.163
600 2 2.2208 13.5678 0.956816 24.9379
573 2 2.2208 10.638 1.12662 22.0366
574 1 -1.1104 12.2219 -3.25441 23.3939
575 1 -1.1104 12.0758 2.17151 23.5881
576 1 -1.1104 12.1502 -3.3238 26.2379
577 1 -1.1104 12.3469 2.33354 26.3175
578 1 -1.1104 12.1401 -0.409776 23.4386
579 2 2.2208 10.7954 -1.90485 24.8518
580 2 2.2208 10.7626 3.63735 25.0028
581 1 -1.1104 12.1318 -0.268236 26.3448
582 1 -1.1104 9.23428 -3.62603 23.4615
583 1 -1.1104 9.26797 2.34246 23.5919
584 2 2.2208 7.87465 1.02161 25.044
585 1 -1.1104 9.51135 -3.29375 26.4101
586 1 -1.1104 9.42724 2.33328 26.4547
587 2 2.2208 7.96501 -1.95108 22.0384
588 2 2.2208 7.75991 3.75818 22.1309
589 1 -1.1104 9.38239 -0.621455 23.5695
590 1 -1.1104 9.24341 -0.330886 26.388
696 1 -1.1104 9.18433 13.6471 23.4484
424 1 -1.1104 0.696604 5.03444 20.7184
442 1 -1.1104 3.84939 10.9154 20.8326
602 2 2.2208 5.00862 6.47827 22.0574
603 2 2.2208 5.00643 12.2355 22.342
604 1 -1.1104 0.676024 8.04321 23.4757
606 1 -1.1104 0.839259 8.06052 26.1834
608 1 -1.1104 0.628562 5.19029 23.7457
609 1 -1.1104 0.774501 10.8956 23.538
612 2 2.2208 5.02774 9.36649 24.825
613 1 -1.1104 1.00329 5.26043 26.6375
614 1 -1.1104 0.817132 10.7891 26.2661
617 1 -1.1104 3.47968 7.73586 23.6867
618 2 2.2208 2.13849 6.44302 24.9349
619 2 2.2208 2.23704 12.1117 24.9973
620 1 -1.1104 3.69075 8.23126 26.3435
621 2 2.2208 2.24753 9.28205 22.2012
622 1 -1.1104 3.42915 4.90478 23.6537
623 1 -1.1104 3.59656 10.8173 23.3897
624 1 -1.1104 3.60245 5.29361 26.3248
625 1 -1.1104 3.6789 10.8077 26.1821
616 1 -1.1104 6.42636 10.9623 26.3876
611 1 -1.1104 6.53009 10.6946 23.5346
615 1 -1.1104 6.23375 5.239 26.384
607 1 -1.1104 6.60574 8.08155 26.3736
605 1 -1.1104 6.34548 8.00959 23.3362
610 1 -1.1104 6.4659 5.03877 23.4469
691 1 -1.1104 9.52954 19.0311 26.4555
705 2 2.2208 10.6727 17.8795 22.0388
402 2 2.2208 10.785 -4.81062 16.3883
688 1 -1.1104 9.38814 16.5132 23.4635
467 1 -1.1104 9.25153 4.98397 20.6458
703 1 -1.1104 12.2901 19.1191 23.3607
450 1 -1.1104 12.02 7.88909 20.7564
9870 2 2.2208 13.4412 9.421 22.2138
656 2 2.2208 13.4617 6.47016 24.7822
633 1 -1.1104 9.21264 10.7481 26.3177
634 1 -1.1104 9.21295 5.01013 26.3442
635 1 -1.1104 9.14909 10.7869 23.669
636 1 -1.1104 9.24259 5.13061 23.699
637 2 2.2208 7.86401 9.38223 22.1766
638 1 -1.1104 9.32375 7.98638 26.3939
639 2 2.2208 7.8585 12.2666 24.947
640 2 2.2208 7.72744 6.41284 24.853
641 2 2.2208 10.6394 6.63513 22.0941
642 2 2.2208 10.5321 12.0224 22.1242
643 1 -1.1104 11.9507 8.07864 23.6059
644 1 -1.1104 12.199 7.89194 26.3145
645 1 -1.1104 12.1394 4.94314 23.4253
646 1 -1.1104 11.9827 10.7741 23.4837
647 2 2.2208 10.718 9.39128 24.8862
648 1 -1.1104 12.0603 5.09798 26.1341
649 1 -1.1104 11.9555 10.6228 26.3755
650 1 -1.1104 9.2392 7.9879 23.5006
654 2 2.2208 13.4951 12.2302 24.8613
698 2 2.2208 10.7822 20.6542 24.916
694 2 2.2208 7.878 17.8422 25.0088
485 1 -1.1104 6.39804 19.1421 20.528
667 1 -1.1104 6.50992 13.786 23.4789
664 1 -1.1104 6.57541 19.2184 23.442
675 1 -1.1104 6.43198 16.62 23.5669
660 1 -1.1104 6.45062 16.4803 26.3403
672 2 2.2208 2.35545 17.9919 24.8
677 1 -1.1104 3.82336 16.3494 23.5821
676 1 -1.1104 0.926578 16.5041 23.7124
671 1 -1.1104 3.98075 19.2877 26.3794
679 2 2.2208 2.3122 15.1177 22.2545
670 2 2.2208 5.0411 17.883 22.1091
669 1 -1.1104 0.759774 13.8304 23.6193
678 2 2.2208 2.33488 20.6768 22.0078
673 1 -1.1104 3.81626 16.4902 26.3731
674 1 -1.1104 3.69509 13.4613 26.3919
657 1 -1.1104 3.67824 19.3312 23.4133
659 1 -1.1104 3.72449 13.5528 23.692
661 1 -1.1104 0.986982 19.4634 26.2833
662 1 -1.1104 0.989973 16.5577 26.3551
663 1 -1.1104 0.92675 13.7702 26.3088
665 2 2.2208 5.22803 20.5958 24.9136
666 2 2.2208 5.12552 15.0805 24.8332
668 1 -1.1104 0.718487 19.4348 23.4823
693 1 -1.1104 6.77196 19.2843 26.2839
658 1 -1.1104 6.38119 13.5853 26.4153
695 1 -1.1104 9.34313 19.4182 23.4716
702 1 -1.1104 12.0431 13.6019 26.3744
700 1 -1.1104 12.2713 16.2412 23.51
513 1 -1.1104 11.9427 13.5329 20.7979
515 1 -1.1104 12.1999 19.1721 20.6217
687 1 -1.1104 9.24236 16.2493 26.3165
692 1 -1.1104 9.32142 13.6979 26.2621
704 1 -1.1104 12.0004 13.6145 23.5449
699 2 2.2208 10.7466 15.0501 24.8314
712 2 2.2208 13.5106 17.7733 25.016
713 2 2.2208 13.6492 14.9399 22.1999
9792 2 2.2208 -0.375409 14.8779 13.6383
655 2 2.2208 13.4939 9.26188 27.6343
653 2 2.2208 10.6935 12.2493 27.6104
561 2 2.2208 5.08285 0.9316 27.77
533 2 2.2208 10.5976 20.5251 13.5743
652 2 2.2208 7.91072 9.40632 27.7363
626 2 2.2208 4.98923 6.67284 27.7071
470 2 2.2208 8.052 6.53832 13.6099
507 2 2.2208 5.07629 20.6143 13.7813
601 2 2.2208 13.5148 4.10461 27.6854
710 2 2.2208 13.672 20.6027 27.7023
534 2 2.2208 10.7997 14.8659 13.6068
508 2 2.2208 5.06687 14.932 13.6102
444 2 2.2208 5.14654 9.21108 13.5912
408 2 2.2208 10.6687 -2.00751 13.7706
714 2 2.2208 5.29454 23.284 5.22499
715 2 2.2208 5.15573 28.8897 5.17534
716 1 -1.1104 1.01943 24.9002 1.17579
717 1 -1.1104 0.84579 24.8317 3.84661
718 1 -1.1104 0.843454 22.2764 1.00343
719 1 -1.1104 0.9412 27.6838 1.24517
720 2 2.2208 5.23872 26.1984 2.48302
721 1 -1.1104 0.948374 22.0915 3.7435
722 1 -1.1104 1.04109 27.5265 3.87954
723 1 -1.1104 3.85459 24.9885 1.16996
724 2 2.2208 2.46061 23.5105 2.40685
725 2 2.2208 2.4058 29.1133 2.54833
726 1 -1.1104 3.86523 24.7252 4.0029
727 2 2.2208 2.49875 26.2164 5.22143
728 1 -1.1104 3.86445 22.0963 1.0936
729 1 -1.1104 3.8264 27.7282 1.18067
730 1 -1.1104 3.86568 21.9068 4.08097
731 1 -1.1104 3.72151 27.6154 3.8768
857 1 -1.1104 0.876157 21.8029 6.73007
739 1 -1.1104 6.59093 22.1096 3.75194
858 1 -1.1104 1.05072 27.6144 6.76613
861 1 -1.1104 3.62847 24.6755 6.66148
855 1 -1.1104 0.740005 24.9461 6.59541
859 1 -1.1104 6.65881 21.8975 6.48128
735 1 -1.1104 6.59614 24.6004 0.990183
740 1 -1.1104 6.44963 27.7258 3.73307
736 1 -1.1104 6.77458 25.0154 3.63439
860 1 -1.1104 6.54009 27.6956 6.56557
856 1 -1.1104 6.58981 24.7889 6.38624
737 1 -1.1104 6.69929 21.9814 0.901775
738 1 -1.1104 6.57902 27.5856 1.00896
863 1 -1.1104 3.87625 27.5057 6.64811
741 2 2.2208 10.7969 23.4525 5.0844
742 2 2.2208 10.7216 28.9256 5.19016
743 1 -1.1104 12.2514 24.7668 0.958395
744 1 -1.1104 12.1945 24.9861 3.8003
745 1 -1.1104 12.2211 21.9026 0.886236
746 1 -1.1104 12.255 27.6775 0.737415
747 2 2.2208 10.7491 26.2072 2.26404
748 1 -1.1104 12.1383 22.2429 3.57784
749 1 -1.1104 12.2757 27.811 3.58938
750 1 -1.1104 9.48202 24.913 0.86342
751 2 2.2208 7.94784 23.5068 2.27109
752 2 2.2208 7.95357 28.9505 2.38556
753 1 -1.1104 9.36923 24.9984 3.66407
754 2 2.2208 7.97201 26.3662 5.07494
755 1 -1.1104 9.48446 22.1541 1.00925
756 1 -1.1104 9.38711 27.6552 0.958791
757 1 -1.1104 9.52626 21.9876 3.72743
758 1 -1.1104 9.3167 27.6999 3.89917
892 1 -1.1104 9.33727 22.0041 6.61088
893 1 -1.1104 9.37721 27.6226 6.66556
890 1 -1.1104 12.1958 27.64 6.58709
889 1 -1.1104 12.1315 22.0288 6.47356
1599 1 -1.1104 6.47744 47.1519 9.46467
760 2 2.2208 13.6517 29.2072 2.33598
888 1 -1.1104 12.099 24.7506 6.56484
759 2 2.2208 13.6415 23.5391 2.3914
732 2 2.2208 -0.577155 28.7419 5.27654
1054 2 2.2208 13.5314 37.5873 -0.409704
1005 2 2.2208 -0.269156 40.1631 11.0149
762 2 2.2208 5.12819 34.6929 5.10752
763 1 -1.1104 0.910465 30.4042 1.01918
764 1 -1.1104 0.950573 35.9703 0.973496
766 1 -1.1104 0.797631 30.2854 3.71326
767 1 -1.1104 0.908948 36.0999 3.74477
769 1 -1.1104 1.02778 33.1021 1.02693
770 2 2.2208 5.22412 31.8538 2.66171
771 2 2.2208 5.2506 37.4764 2.37983
772 1 -1.1104 0.918537 32.9729 3.76069
774 1 -1.1104 3.75842 30.5929 1.09217
775 1 -1.1104 3.80154 36.1561 0.904016
776 2 2.2208 2.42164 34.5924 2.32512
777 1 -1.1104 3.77522 30.4276 3.90729
778 1 -1.1104 3.75046 36.1317 3.77999
779 2 2.2208 2.37335 31.7235 5.21372
780 2 2.2208 2.45325 37.4276 5.15704
781 1 -1.1104 3.70853 33.2705 1.16104
782 1 -1.1104 3.56863 33.2634 3.79261
920 1 -1.1104 3.78917 33.0102 6.52909
915 1 -1.1104 6.49436 35.9072 6.67336
768 1 -1.1104 6.73026 36.0136 3.8679
912 1 -1.1104 0.966421 30.3251 6.60235
916 1 -1.1104 1.11251 33.0049 6.5773
773 1 -1.1104 6.53596 33.303 3.71706
786 1 -1.1104 6.59285 30.3661 1.03346
788 1 -1.1104 6.52833 33.4963 1.07524
765 1 -1.1104 6.54498 36.2157 1.02649
917 1 -1.1104 6.63894 33.1255 6.36877
787 1 -1.1104 6.65067 30.4539 3.88368
789 2 2.2208 10.9011 34.7579 5.5301
790 1 -1.1104 12.1248 30.5773 1.10827
791 1 -1.1104 12.3736 36.38 1.10026
792 1 -1.1104 12.3304 30.4052 3.90711
793 1 -1.1104 12.2945 36.0376 3.9725
794 1 -1.1104 12.221 33.326 0.981753
795 2 2.2208 10.8088 31.9364 2.46899
796 2 2.2208 10.8083 37.6068 2.45289
797 1 -1.1104 12.0631 33.215 3.96576