ITEM: TIMESTEP
100000
ITEM: NUMBER OF ATOMS
17910
ITEM: BOX BOUNDS pp pp pp
-3.8936255287984162e-01 2.7729362552879834e+01
-4.8089432008690602e+00 3.3288894320086803e+02
-4.0469997678240932e-01 2.7744699976781963e+01
ITEM: ATOMS id type q x y z
1 2 2.2208 5.26479 0.738772 5.32673
2 1 -1.1104 1.10551 -3.55309 1.1384
3 1 -1.1104 1.16975 2.12408 1.07437
6 1 -1.1104 1.11913 -3.5242 3.89914
7 1 -1.1104 1.11342 2.12641 3.93666
10 1 -1.1104 1.17122 -0.76278 1.18203
12 2 2.2208 5.30078 -1.94906 2.54382
14 1 -1.1104 1.06371 -0.727247 3.77962
16 1 -1.1104 3.96252 -3.38193 0.995572
17 1 -1.1104 3.99151 2.20761 1.03475
18 2 2.2208 2.52749 0.876723 2.41885
19 1 -1.1104 3.76047 -3.43065 3.90871
20 1 -1.1104 3.87836 2.07016 3.92656
21 2 2.2208 2.40009 -2.0968 5.27414
23 1 -1.1104 4.01077 -0.48537 1.16085
24 1 -1.1104 3.91375 -0.605707 4.08342
13 2 2.2208 5.15863 3.61909 2.36031
22 2 2.2208 2.6098 3.48553 5.4469
25 2 2.2208 -0.265534 -2.16096 2.47618
706 2 2.2208 8.05982 20.639 -0.388332
26 2 2.2208 -0.386275 0.768852 5.22281
4 1 -1.1104 6.79802 -3.46485 1.02491
11 1 -1.1104 6.75885 -0.533608 0.999091
232 2 2.2208 10.9069 -4.76475 10.8549
9508 2 2.2208 -0.264813 9.40338 7.96788
204 2 2.2208 -0.305902 -4.64731 10.9136
167 1 -1.1104 1.06492 2.06213 6.65785
569 2 2.2208 -0.175695 0.669178 -0.260799
472 2 2.2208 8.2035 12.0956 13.5932
562 2 2.2208 2.55191 -1.95817 -0.275669
290 1 -1.1104 6.79618 13.5248 9.4442
15 1 -1.1104 6.83803 -0.550233 3.76367
8 1 -1.1104 6.57764 -3.59659 3.78923
9 1 -1.1104 6.70531 2.35059 3.64179
5 1 -1.1104 6.69817 2.14513 0.863231
31 2 2.2208 10.7524 0.805268 5.30571
32 1 -1.1104 12.4105 -3.3534 1.18203
33 1 -1.1104 12.2541 2.13927 1.03675
34 1 -1.1104 12.3204 -3.60214 3.79046
35 1 -1.1104 12.2799 2.12013 3.72611
36 1 -1.1104 12.3447 -0.53679 0.896188
37 2 2.2208 10.9164 -1.91866 2.4373
39 1 -1.1104 12.3945 -0.682226 3.65496
40 1 -1.1104 9.73001 -3.38842 1.17702
41 1 -1.1104 9.6809 2.25752 1.11525
42 2 2.2208 8.16298 0.864109 2.25523
43 1 -1.1104 9.55246 -3.36871 3.86418
44 1 -1.1104 9.38247 2.16907 3.9385
45 2 2.2208 8.17648 -2.11945 5.23059
46 2 2.2208 8.04402 3.56732 5.23241
47 1 -1.1104 9.52116 -0.610818 0.987039
48 1 -1.1104 9.57652 -0.488945 3.85209
38 2 2.2208 10.8829 3.52039 2.44561
207 1 -1.1104 12.224 -0.578906 6.49457
470 2 2.2208 8.12154 6.33991 13.7556
205 1 -1.1104 12.606 -3.34702 6.63168
210 1 -1.1104 9.40566 -0.723616 6.6425
169 1 -1.1104 6.65462 2.15158 6.4363
208 1 -1.1104 9.85304 -3.4561 6.61531
199 2 2.2208 -0.219946 3.6554 7.94931
231 2 2.2208 8.32264 -4.71159 7.98356
54 2 2.2208 5.35935 6.52025 5.07624
55 2 2.2208 5.24821 12.1521 5.04712
56 1 -1.1104 1.11769 7.85172 0.951363
58 1 -1.1104 1.05361 8.0592 3.83645
60 1 -1.1104 1.09776 4.93817 1.16951
61 1 -1.1104 0.951589 10.657 1.09465
66 2 2.2208 5.24246 9.30876 2.344
67 1 -1.1104 1.12926 5.10251 3.91005
68 1 -1.1104 1.08354 10.7011 3.84851
71 1 -1.1104 3.96652 7.68109 1.01097
72 2 2.2208 2.57378 6.39998 2.44939
73 2 2.2208 2.42285 12.0467 2.40131
74 1 -1.1104 3.83843 7.78925 3.69823
75 2 2.2208 2.35256 9.30957 5.27639
76 1 -1.1104 4.0387 4.92031 0.914954
77 1 -1.1104 3.91779 10.3908 1.02967
79 1 -1.1104 3.90443 4.89741 3.76726
80 1 -1.1104 3.74409 10.7126 3.64851
9501 2 2.2208 -0.131373 12.0667 10.7842
83 2 2.2208 -0.248699 12.2277 5.11614
236 1 -1.1104 1.19589 4.84881 6.65273
443 2 2.2208 2.39614 6.51296 13.5657
62 1 -1.1104 0.997733 10.8194 6.64795
234 1 -1.1104 1.09852 7.80725 6.63507
708 2 2.2208 8.22258 14.9254 -0.502763
64 1 -1.1104 6.73192 10.6693 1.10587
63 1 -1.1104 6.80552 4.96625 1.08065
59 1 -1.1104 6.76617 7.99998 3.64388
57 1 -1.1104 6.69757 7.86725 0.766298
70 1 -1.1104 6.71203 10.691 3.66388
69 1 -1.1104 6.72749 5.19821 3.85385
84 2 2.2208 10.8847 6.32848 5.21376
85 2 2.2208 11.0072 12.1233 5.3115
86 1 -1.1104 12.1852 7.84022 0.971254
87 1 -1.1104 12.3164 7.6663 3.77962
88 1 -1.1104 12.3048 5.01321 1.19106
89 1 -1.1104 12.3662 10.5798 1.02157
91 2 2.2208 11.0426 9.23937 2.53224
92 1 -1.1104 12.2783 4.83607 3.89031
93 1 -1.1104 12.6274 10.4557 3.79414
94 1 -1.1104 9.42309 7.96009 1.01237
95 2 2.2208 8.08138 6.5252 2.38976
96 2 2.2208 8.2668 12.115 2.37437
97 1 -1.1104 9.59834 7.76237 3.96185
98 2 2.2208 8.23302 9.31616 5.19046
99 1 -1.1104 9.44146 5.09704 1.01311
100 1 -1.1104 9.5867 10.8304 0.954056
102 1 -1.1104 9.52883 4.86196 3.87213
103 1 -1.1104 9.85388 10.7745 3.87812
265 1 -1.1104 12.4683 7.88678 6.61343
266 1 -1.1104 12.4625 5.11212 6.78974
327 1 -1.1104 12.3528 19.3002 9.35128
101 1 -1.1104 9.45696 10.871 6.66597
135 2 2.2208 -0.43935 15.066 2.34946
707 2 2.2208 10.8355 17.6284 -0.396035
203 2 2.2208 5.41472 -4.77237 10.873
563 2 2.2208 2.46235 3.60857 -0.494373
106 2 2.2208 5.44476 17.9185 4.9703
107 1 -1.1104 1.24255 13.4267 0.83545
109 1 -1.1104 1.07286 19.0177 0.855089
113 1 -1.1104 1.10283 13.6843 3.86219
114 1 -1.1104 0.978337 19.1081 3.68335
116 1 -1.1104 1.00846 16.2564 0.840267
119 2 2.2208 5.45507 14.9966 2.24377
120 2 2.2208 5.32892 20.5034 2.31341
121 1 -1.1104 1.12913 16.4916 3.67817
123 1 -1.1104 4.09221 13.5672 1.07757
125 1 -1.1104 4.08127 19.2269 1.06199
127 2 2.2208 2.48389 17.7822 2.27467
128 1 -1.1104 4.0373 13.6011 3.67221
129 1 -1.1104 3.9139 19.152 3.63205
130 2 2.2208 2.57337 15.0817 5.13037
131 2 2.2208 2.68212 20.6475 5.19276
132 1 -1.1104 3.95365 16.4769 0.871575
134 1 -1.1104 3.95795 16.2157 3.72561
289 1 -1.1104 6.66311 16.3942 9.44809
111 1 -1.1104 6.90374 13.6784 6.68674
331 2 2.2208 10.7561 17.8463 10.8037
302 1 -1.1104 1.18671 19.1411 6.43125
313 2 2.2208 -0.33246 15.0461 8.00565
325 2 2.2208 10.923 15.0684 8.17991
444 2 2.2208 5.43336 9.28635 13.5437
122 1 -1.1104 6.76243 16.5238 3.68787
138 1 -1.1104 6.79847 19.2305 0.808897
140 1 -1.1104 6.6857 16.2565 1.0508
139 1 -1.1104 6.7977 19.2444 3.67688
110 1 -1.1104 6.79422 13.3544 1.05398
115 1 -1.1104 6.76396 13.6445 3.87294
141 2 2.2208 10.9813 17.9011 5.32441
142 1 -1.1104 12.3195 13.3936 1.23113
144 1 -1.1104 12.2038 19.2332 0.857153
146 1 -1.1104 12.4566 13.3901 3.97803
147 1 -1.1104 12.4943 19.349 3.72747
148 1 -1.1104 12.2057 16.3534 1.30992
150 2 2.2208 10.9397 14.9786 2.67729
151 2 2.2208 10.9371 20.6459 2.2031
152 1 -1.1104 12.5837 16.3319 4.02036
153 1 -1.1104 9.5847 13.6253 1.00125
155 1 -1.1104 9.47092 19.1177 0.940603
157 2 2.2208 8.22688 17.8375 2.44391
158 1 -1.1104 9.70997 13.5156 3.87114
159 1 -1.1104 9.61238 19.0456 3.69277
160 2 2.2208 8.0601 15.0014 5.12241
161 2 2.2208 8.13878 20.7704 5.1427
162 1 -1.1104 9.39807 16.4959 0.961633
164 1 -1.1104 9.58344 16.3968 3.91733
118 1 -1.1104 7.00238 16.6065 6.51375
143 1 -1.1104 12.5856 13.4761 6.73979
202 2 2.2208 2.54925 -4.83727 8.12682
51 2 2.2208 8.27287 -4.78323 2.46382
201 2 2.2208 -0.318804 0.891755 11.025
170 1 -1.1104 0.962111 -0.688634 6.5582
166 1 -1.1104 1.11791 -3.50327 6.67138
173 1 -1.1104 3.95915 2.03319 6.85612
172 1 -1.1104 4.01958 -3.54659 6.53115
174 1 -1.1104 3.7215 -0.692108 6.73379
175 2 2.2208 5.25727 0.959421 10.9566
176 1 -1.1104 1.1874 -3.39149 12.4197
177 1 -1.1104 1.1342 2.27354 12.3407
180 1 -1.1104 1.12888 -3.26747 9.36356
181 1 -1.1104 1.10728 2.35087 9.53294
184 1 -1.1104 0.995986 -0.457201 12.3917
186 2 2.2208 5.35043 -1.93887 8.08484
188 1 -1.1104 0.92839 -0.485369 9.32314
190 1 -1.1104 4.03533 -3.60853 12.4209
191 1 -1.1104 3.72928 2.17678 12.3438
192 2 2.2208 2.44457 0.864775 8.14141
193 1 -1.1104 4.00547 -3.17832 9.56092
194 1 -1.1104 4.05741 2.36778 9.52273
195 2 2.2208 2.42417 -1.82264 10.9192
197 1 -1.1104 3.7906 -0.618229 12.3543
198 1 -1.1104 3.71554 -0.435291 9.67796
187 2 2.2208 5.34425 3.59896 8.03122
196 2 2.2208 2.34714 3.72281 10.967
9723 2 2.2208 -0.157176 9.35849 13.6991
183 1 -1.1104 6.74451 2.26285 9.25751
306 1 -1.1104 6.75157 16.4158 12.3545
317 2 2.2208 7.95964 15.0154 10.724
330 1 -1.1104 12.3663 13.6199 12.2711
168 1 -1.1104 6.9694 -3.37277 6.57739
288 1 -1.1104 6.69291 19.2013 9.54541
171 1 -1.1104 6.66467 -0.651172 6.67901
182 1 -1.1104 6.96147 -3.41575 9.41154
189 1 -1.1104 6.65473 -0.503202 9.40494
179 1 -1.1104 6.70481 2.40628 12.1869
178 1 -1.1104 6.611 -3.30797 12.1242
209 1 -1.1104 9.48097 2.09615 6.91143
206 1 -1.1104 12.0674 2.22813 6.453
185 1 -1.1104 6.47663 -0.423375 12.2279
211 2 2.2208 10.9797 0.83322 10.901
212 1 -1.1104 12.1561 -3.33397 12.2794
213 1 -1.1104 12.3404 2.11359 12.2687
214 1 -1.1104 12.4083 -3.47847 9.58253
215 1 -1.1104 12.3008 2.21456 9.34764
216 1 -1.1104 12.3704 -0.548492 12.432
217 2 2.2208 10.9457 -1.91309 7.93258
219 1 -1.1104 12.3396 -0.605812 9.49246
220 1 -1.1104 9.35946 -3.41524 12.1551
221 1 -1.1104 9.53996 2.14498 12.3572
222 2 2.2208 7.98437 0.836839 7.93228
223 1 -1.1104 9.67358 -3.27526 9.32843
224 1 -1.1104 9.47033 2.43222 9.5475
225 2 2.2208 8.13461 -1.87782 10.6882
227 1 -1.1104 9.44069 -0.61702 12.1274
228 1 -1.1104 9.49831 -0.374917 9.26213
226 2 2.2208 8.09651 3.7013 10.8822
218 2 2.2208 10.9504 3.54663 8.14701
316 2 2.2208 8.08218 20.5853 10.9493
81 2 2.2208 -0.252035 6.64831 5.31199
296 1 -1.1104 6.62162 19.1199 12.3397
9509 2 2.2208 -0.425083 6.50691 10.8526
78 1 -1.1104 3.94615 10.7583 6.54953
321 1 -1.1104 9.6358 19.2351 12.259
239 1 -1.1104 4.15074 5.00066 6.71873
238 1 -1.1104 3.68501 7.82009 6.54279
240 2 2.2208 5.38375 6.56685 10.7331
241 2 2.2208 5.27425 12.027 10.8494
242 1 -1.1104 1.11012 7.90934 12.1353
244 1 -1.1104 1.22534 7.71449 9.39657
246 1 -1.1104 0.993236 5.1131 12.2557
247 1 -1.1104 1.12475 10.8456 12.1746
250 2 2.2208 5.14407 9.2246 7.86291
251 1 -1.1104 1.15009 5.03864 9.52885
252 1 -1.1104 1.32315 10.7621 9.32242
255 1 -1.1104 3.79296 7.75906 12.2311
256 2 2.2208 2.4904 6.43523 7.9485
257 2 2.2208 2.48487 12.2943 7.84245
258 1 -1.1104 3.87326 8.08633 9.33847
259 2 2.2208 2.5005 9.25392 10.8831
260 1 -1.1104 3.85528 5.07439 12.0615
261 1 -1.1104 3.82122 10.6196 12.2836
262 1 -1.1104 3.96887 5.21599 9.27838
263 1 -1.1104 4.00841 10.8733 9.34392
248 1 -1.1104 6.71811 5.13711 12.1779
65 1 -1.1104 6.69906 10.8359 6.53022
253 1 -1.1104 6.69916 5.07929 9.26055
254 1 -1.1104 6.55864 10.8626 9.40504
235 1 -1.1104 6.58235 7.93036 6.52756
237 1 -1.1104 6.84247 4.96938 6.70196
267 1 -1.1104 9.6605 7.9349 6.82609
249 1 -1.1104 6.65024 10.6981 12.1523
269 1 -1.1104 9.57664 4.70757 6.55666
90 1 -1.1104 12.5186 10.5822 6.53505
243 1 -1.1104 6.58522 7.8637 12.3198
245 1 -1.1104 6.65604 8.01829 9.37081
264 1 -1.1104 9.46299 10.7505 9.43598
268 1 -1.1104 9.48556 5.16151 9.27217
270 1 -1.1104 9.39431 10.7196 12.2434
271 1 -1.1104 9.43546 4.94427 12.2444
272 2 2.2208 8.0964 9.40583 10.82
273 1 -1.1104 9.56936 7.89261 9.35975
274 2 2.2208 8.04818 12.183 7.96341
275 2 2.2208 8.08577 6.45066 8.00111
276 2 2.2208 10.864 6.41579 10.8353
277 2 2.2208 10.8523 12.2678 10.7793
278 1 -1.1104 12.4168 7.80931 12.2339
279 1 -1.1104 12.4028 7.68398 9.51697
280 1 -1.1104 12.3509 5.03111 12.3185
281 1 -1.1104 12.2055 10.8245 12.2948
282 2 2.2208 11.0172 9.38945 7.93025
283 1 -1.1104 12.3765 4.99612 9.3984
284 1 -1.1104 12.3432 10.8076 9.37
285 1 -1.1104 9.61679 7.7375 12.0517
108 1 -1.1104 1.08528 13.5904 6.57066
112 1 -1.1104 6.91236 19.3046 6.57638
329 1 -1.1104 12.3488 19.021 12.3689
133 1 -1.1104 4.04233 16.3416 6.53674
312 2 2.2208 -0.332161 17.7301 11.0151
324 2 2.2208 11.0354 20.6657 7.93364
126 1 -1.1104 4.02988 19.0578 6.67839
124 1 -1.1104 3.86105 13.5656 6.46014
117 1 -1.1104 1.1753 16.3338 6.56423
286 1 -1.1104 3.87299 19.1552 12.3105
287 1 -1.1104 4.08693 13.4888 12.2417
291 1 -1.1104 0.984291 19.1102 9.31837
292 1 -1.1104 1.24316 16.2758 9.34632
293 2 2.2208 5.39211 20.6156 8.16401
294 1 -1.1104 1.23899 13.551 9.52396
295 2 2.2208 5.38802 14.9817 7.87458
298 1 -1.1104 1.15474 19.263 12.16
299 1 -1.1104 1.19396 13.6904 12.2998
300 2 2.2208 5.41603 17.8871 10.8007
301 1 -1.1104 3.98257 19.2692 9.3958
303 2 2.2208 2.51267 17.7578 7.9929
304 1 -1.1104 4.02155 16.4012 9.40086
305 1 -1.1104 3.96528 13.642 9.17728
307 1 -1.1104 1.01972 16.4557 12.3245
308 1 -1.1104 3.77135 16.5062 12.2258
309 2 2.2208 2.53427 20.5631 11.0686
310 2 2.2208 2.56151 14.9993 10.8144
326 1 -1.1104 12.3877 16.3564 12.3479
314 1 -1.1104 9.34782 16.2942 9.53514
145 1 -1.1104 12.3955 19.1995 6.4889
328 1 -1.1104 12.322 13.733 9.458
319 1 -1.1104 9.54799 13.4939 9.33674
315 1 -1.1104 9.49213 16.1834 12.3499
322 1 -1.1104 9.60742 13.4052 12.2679
149 1 -1.1104 12.44 16.4197 6.72179
163 1 -1.1104 9.69319 16.6708 6.81224
154 1 -1.1104 9.72558 13.6976 6.58872
320 2 2.2208 8.10548 17.8699 8.07099
318 1 -1.1104 9.57058 19.2682 9.3898
156 1 -1.1104 9.73447 19.2223 6.56889
297 1 -1.1104 6.92044 13.5132 12.2888
323 1 -1.1104 12.2485 16.4428 9.53793
374 2 2.2208 5.2495 -2.03259 13.5877
404 2 2.2208 8.01618 -4.7765 13.5185
593 2 2.2208 8.29621 3.62195 -0.364029
566 2 2.2208 5.44428 -4.76461 -0.24005
652 2 2.2208 8.1265 9.34106 -0.377159
561 2 2.2208 5.34458 0.835217 -0.358374
407 2 2.2208 8.12907 0.709453 13.5698
651 2 2.2208 10.9187 6.43618 -0.288399
9793 2 2.2208 -0.185491 20.7063 13.6416
681 2 2.2208 5.36473 17.716 -0.432296
408 2 2.2208 10.784 -1.97942 13.6107
632 2 2.2208 -0.315859 6.50347 -0.32642
628 2 2.2208 5.36949 11.9257 -0.178913
508 2 2.2208 5.42659 14.9359 13.5233
471 2 2.2208 10.9525 9.24035 13.5894
373 2 2.2208 2.37966 -4.85207 13.7697
376 2 2.2208 5.49276 3.74331 13.6377
334 2 2.2208 5.50438 0.792689 16.3427
335 1 -1.1104 1.1705 -3.22155 18.0505
336 1 -1.1104 1.16581 2.19393 17.6885
339 1 -1.1104 1.12754 -3.52526 15.2209
341 1 -1.1104 1.09512 2.27101 15.0674
347 1 -1.1104 1.27652 -0.473039 18.0252
349 2 2.2208 5.18671 -1.76769 19.3474
351 1 -1.1104 1.11682 -0.593878 15.1291
355 1 -1.1104 3.83577 -3.45992 17.9679
356 1 -1.1104 3.83046 2.45249 17.8635
357 2 2.2208 2.66346 1.05254 19.2823
358 1 -1.1104 3.88725 -3.45415 15.2195
360 1 -1.1104 4.0459 2.14634 15.0143
362 2 2.2208 2.52297 -1.92349 16.6106
364 1 -1.1104 4.01321 -0.534321 17.792
365 1 -1.1104 3.89261 -0.731199 15.169
363 2 2.2208 2.55431 3.64785 16.4154
350 2 2.2208 5.36938 3.61208 19.3071
370 2 2.2208 -0.208836 0.836776 16.5308
9647 2 2.2208 -0.331238 3.65173 19.3891
507 2 2.2208 5.37327 20.5285 13.8103
9791 2 2.2208 -0.31811 17.6541 16.5952
685 2 2.2208 -0.368869 20.6004 24.6852
366 1 -1.1104 4.03415 -0.397656 20.7607
359 1 -1.1104 3.85795 -3.29357 20.5608
340 1 -1.1104 1.08495 -3.42126 20.8273
654 2 2.2208 13.7458 12.0619 24.9018
597 2 2.2208 8.30921 -4.68803 24.7892
353 1 -1.1104 6.71675 -0.729537 15.041
343 1 -1.1104 6.75705 -3.50837 15.0338
337 1 -1.1104 6.72354 -3.51432 17.8431
348 1 -1.1104 6.53155 -0.459984 17.927
345 1 -1.1104 6.70834 2.1848 14.87
338 1 -1.1104 6.80528 2.23267 17.9042
377 2 2.2208 10.8285 0.896892 16.5014
378 1 -1.1104 12.4061 -3.31141 17.8413
379 1 -1.1104 12.2746 2.36379 17.9494
380 1 -1.1104 12.3499 -3.25638 14.9702
382 1 -1.1104 12.3725 2.30834 15.1532
384 1 -1.1104 12.3482 -0.541659 17.9007
385 2 2.2208 10.9829 -1.99677 19.216
387 1 -1.1104 12.3206 -0.496284 15.2646
389 1 -1.1104 9.54242 -3.32269 17.9299
390 1 -1.1104 9.54048 2.27125 18.0167
391 2 2.2208 8.09136 0.856933 19.3819
392 1 -1.1104 9.46697 -3.37212 14.8654
394 1 -1.1104 9.60092 2.25442 15.068
396 2 2.2208 7.96293 -1.97191 16.6215
398 1 -1.1104 9.36 -0.527516 17.9982
399 1 -1.1104 9.46822 -0.42484 15.169
397 2 2.2208 8.15951 3.46494 16.5018
386 2 2.2208 11.1742 3.77253 19.3298
383 1 -1.1104 12.3962 2.21401 20.6906
346 1 -1.1104 6.72423 2.2231 20.718
393 1 -1.1104 9.75416 -3.26638 20.6571
395 1 -1.1104 9.67161 2.2079 20.8118
400 1 -1.1104 9.5041 -0.380786 20.8389
410 2 2.2208 5.40764 6.57354 16.384
411 2 2.2208 5.51781 12.229 16.4931
412 1 -1.1104 1.11724 7.91271 17.6563
414 1 -1.1104 0.972086 7.73962 14.9256
418 1 -1.1104 0.983168 5.04766 17.9158
419 1 -1.1104 1.17727 10.7489 17.841
422 2 2.2208 5.37076 9.23858 19.1671
423 1 -1.1104 1.18775 5.07364 15.0245
425 1 -1.1104 1.40222 10.759 15.0269
431 1 -1.1104 4.08103 7.79699 17.7951
432 2 2.2208 2.57899 6.38068 19.1804
433 2 2.2208 2.59848 12.2724 19.4064
434 1 -1.1104 4.0131 7.99758 15.2923
436 2 2.2208 2.64201 9.3296 16.4171
437 1 -1.1104 3.95063 5.05585 17.5565
438 1 -1.1104 4.08521 10.6058 17.8757
439 1 -1.1104 3.94475 5.13634 14.7714
441 1 -1.1104 4.05596 10.6875 15.008
572 2 2.2208 -0.352159 3.59908 24.883
525 1 -1.1104 9.60511 13.6638 20.8751
568 2 2.2208 2.4951 -4.5824 25.0172
413 1 -1.1104 6.85952 7.84977 17.7382
421 1 -1.1104 6.89638 10.7534 17.8264
424 1 -1.1104 1.26585 5.01563 20.6078
415 1 -1.1104 1.13233 7.76891 20.6855
534 2 2.2208 11.0341 14.9622 13.6786
367 2 2.2208 -0.328252 -4.79887 16.6514
565 2 2.2208 -0.202312 -4.83537 22.1563
371 2 2.2208 -0.1593 -1.88829 19.4281
9898 2 2.2208 -0.152717 6.38124 22.1674
427 1 -1.1104 6.84912 4.86874 15.0138
416 1 -1.1104 6.86188 7.82787 14.9565
420 1 -1.1104 6.83032 5.0241 17.6783
429 1 -1.1104 6.80544 10.7932 14.8702
446 2 2.2208 11.0018 6.48305 16.6084
447 2 2.2208 10.8131 12.2313 16.4365
448 1 -1.1104 12.4723 7.96617 17.9481
449 1 -1.1104 12.4876 7.69983 15.1866
451 1 -1.1104 12.5003 5.22553 17.9751
452 1 -1.1104 12.4037 10.7924 17.8035
453 2 2.2208 11.1409 9.25199 19.4039
454 1 -1.1104 12.3346 5.01472 15.2488
456 1 -1.1104 12.4042 10.5659 14.9679
458 1 -1.1104 9.63642 7.87799 17.8287
459 2 2.2208 8.09269 6.46908 19.1244
460 2 2.2208 8.11891 12.1797 19.4602
461 1 -1.1104 9.50493 7.82364 14.9477
463 2 2.2208 8.27041 9.28301 16.3745
464 1 -1.1104 9.5265 5.07131 17.8836
465 1 -1.1104 9.59289 10.7345 18.0558
466 1 -1.1104 9.68397 5.01438 15.1416
468 1 -1.1104 9.70102 10.6301 14.898
417 1 -1.1104 6.78849 7.98453 20.4491
428 1 -1.1104 6.77367 5.01739 20.5832
462 1 -1.1104 9.6934 7.88266 20.5307
455 1 -1.1104 12.5984 5.098 20.6989
450 1 -1.1104 12.5159 7.74369 20.5993
467 1 -1.1104 9.54824 5.13379 20.6467
567 2 2.2208 5.52343 -4.6258 21.9814
9790 2 2.2208 -0.353492 14.8038 19.3803
9604 2 2.2208 13.6817 3.70001 16.4953
630 2 2.2208 -0.173409 9.30371 24.9046
473 2 2.2208 5.372 17.7454 16.6957
474 1 -1.1104 1.01784 13.5786 17.865
475 1 -1.1104 0.926611 19.1747 17.8944
478 1 -1.1104 1.07936 13.4415 15.0719
480 1 -1.1104 1.28004 19.5029 15.1902
486 1 -1.1104 1.13321 16.0782 17.9361
488 2 2.2208 5.25836 14.9087 19.3196
489 2 2.2208 5.15904 20.6573 19.3632
490 1 -1.1104 1.04792 16.5188 15.0403
494 1 -1.1104 3.97844 13.5956 17.738
495 1 -1.1104 3.68647 19.2958 18.2219
496 2 2.2208 2.26191 17.6054 19.4744
497 1 -1.1104 4.0274 13.521 14.9286
499 1 -1.1104 4.20297 19.1238 15.2047
501 2 2.2208 2.48927 14.7562 16.4634
502 2 2.2208 2.51544 20.7652 16.6958
503 1 -1.1104 3.92765 16.286 18.0461
504 1 -1.1104 3.87221 16.2367 15.1325
9789 2 2.2208 -0.285241 20.6128 19.3732
596 2 2.2208 11.0526 -4.66475 22.018
700 1 -1.1104 12.1242 16.4053 23.6337
9719 2 2.2208 -0.182195 9.24893 19.386
477 1 -1.1104 6.46177 19.4415 17.8564
487 1 -1.1104 6.70192 16.3716 18.0296
500 1 -1.1104 3.89572 19.1582 20.949
571 2 2.2208 -0.226721 0.919449 22.1297
697 1 -1.1104 12.3666 16.2585 26.5577
691 1 -1.1104 9.37988 19.3014 26.3014
483 1 -1.1104 6.68621 13.4945 20.9324
492 1 -1.1104 6.6333 16.2976 15.2596
482 1 -1.1104 6.76777 13.5774 15.0594
484 1 -1.1104 6.85251 19.1917 15.0122
476 1 -1.1104 6.64432 13.5379 18.1883
509 2 2.2208 11.0036 17.7846 16.4054
510 1 -1.1104 12.3577 13.5766 18.1287
511 1 -1.1104 12.2506 19.2811 17.8795
512 1 -1.1104 12.2977 13.5118 15.186
514 1 -1.1104 12.4725 19.1159 15.0637
516 1 -1.1104 12.3842 16.4892 17.6423
517 2 2.2208 10.8512 15.0044 19.3432
518 2 2.2208 11.16 20.6092 19.3823
519 1 -1.1104 12.3751 16.161 15.0735
521 1 -1.1104 9.60767 13.5203 17.9411
522 1 -1.1104 9.32093 19.1126 17.753
523 2 2.2208 8.24235 17.7617 19.2982
524 1 -1.1104 9.5381 13.359 15.1223
526 1 -1.1104 9.55858 19.1452 15.0564
528 2 2.2208 8.19049 15.0208 16.3704
529 2 2.2208 8.13009 20.705 16.6264
530 1 -1.1104 9.58356 16.4677 17.8141
531 1 -1.1104 9.52043 16.3275 14.9689
485 1 -1.1104 6.77403 19.1293 20.5742
527 1 -1.1104 9.65519 19.1881 20.5341
532 1 -1.1104 9.38544 16.2968 20.6697
631 2 2.2208 -0.209336 12.0728 22.1956
361 1 -1.1104 4.19211 2.42442 20.8393
493 1 -1.1104 6.71213 16.4724 20.867
533 2 2.2208 11.0443 20.478 13.5757
9720 2 2.2208 -0.352352 6.51734 16.3931
9685 2 2.2208 -0.392048 12.1265 16.6272
352 1 -1.1104 1.37684 -0.588407 20.8115
342 1 -1.1104 1.14506 2.21502 20.6628
537 2 2.2208 5.38142 0.861422 22.2854
538 1 -1.1104 1.17489 -3.21085 23.5739
539 1 -1.1104 1.23201 2.19939 23.7319
542 1 -1.1104 1.05693 -3.44747 26.3624
543 1 -1.1104 1.13112 2.22826 26.4034
546 1 -1.1104 1.29397 -0.398321 23.6267
548 2 2.2208 5.33877 -1.98023 24.8991
549 2 2.2208 5.50077 3.74774 24.937
550 1 -1.1104 1.34411 -0.543501 26.4425
552 1 -1.1104 3.95149 -3.39327 23.6109
553 1 -1.1104 4.09342 2.30674 23.558
554 2 2.2208 2.59588 0.827767 24.8921
555 1 -1.1104 3.77444 -3.26838 26.5313
556 1 -1.1104 4.14554 2.23623 26.28
557 2 2.2208 2.50262 -2.02499 22.2322
559 1 -1.1104 3.98074 -0.546119 23.669
560 1 -1.1104 3.95402 -0.436311 26.4402
558 2 2.2208 2.63597 3.61601 22.1329
544 1 -1.1104 6.71588 -3.33389 26.4765
667 1 -1.1104 6.72902 13.5018 23.6824
344 1 -1.1104 6.85734 -3.0376 20.5302
354 1 -1.1104 6.624 -0.574716 20.8805
547 1 -1.1104 6.72737 -0.55079 23.5674
541 1 -1.1104 6.79414 2.37427 23.5145
381 1 -1.1104 12.4843 -3.39601 20.5464
388 1 -1.1104 12.2679 -0.60912 20.6501
551 1 -1.1104 6.72756 -0.516874 26.3116
545 1 -1.1104 6.99474 2.51073 26.2139
540 1 -1.1104 6.76658 -3.33131 23.5638
573 2 2.2208 11.0648 0.877513 22.1307
574 1 -1.1104 12.168 -3.13979 23.311
575 1 -1.1104 12.3831 2.10182 23.6459
576 1 -1.1104 12.4244 -3.4742 26.2397
577 1 -1.1104 12.3631 2.13207 26.3442
578 1 -1.1104 12.4603 -0.465692 23.4569
579 2 2.2208 11.0943 -1.88411 24.932
581 1 -1.1104 12.6537 -0.882205 26.2331
582 1 -1.1104 9.71511 -3.45337 23.5213
583 1 -1.1104 9.66481 2.22507 23.5107
584 2 2.2208 8.31581 0.869622 24.9541
585 1 -1.1104 9.62586 -3.45592 26.4899
586 1 -1.1104 9.68123 2.1509 26.4499
587 2 2.2208 8.18736 -1.70904 22.1328
589 1 -1.1104 9.70038 -0.561013 23.6937
590 1 -1.1104 9.76977 -0.517958 26.3036
580 2 2.2208 10.8845 3.63892 24.8695
588 2 2.2208 8.19141 3.57345 22.0763
660 1 -1.1104 6.84449 16.4542 26.4784
440 1 -1.1104 3.93377 5.16866 20.6296
699 2 2.2208 10.888 14.9059 25.1094
426 1 -1.1104 1.35107 10.7267 20.8638
435 1 -1.1104 3.91853 7.83706 20.7572
442 1 -1.1104 3.93518 10.7086 20.5844
602 2 2.2208 5.40655 6.4943 22.018
603 2 2.2208 5.35567 12.1985 22.1457
604 1 -1.1104 1.29539 7.76407 23.4354
606 1 -1.1104 1.47545 7.86501 26.2607
608 1 -1.1104 1.11576 4.93309 23.4342
609 1 -1.1104 1.06322 10.721 23.6433
612 2 2.2208 5.31776 9.30166 24.929
613 1 -1.1104 1.07051 5.16082 26.3556
614 1 -1.1104 1.18961 10.8292 26.1788
617 1 -1.1104 3.96435 7.70786 23.4663
618 2 2.2208 2.61441 6.39518 24.882
619 2 2.2208 2.6078 12.2826 24.8922
620 1 -1.1104 4.06293 7.70006 26.405
621 2 2.2208 2.63124 9.19949 22.1014
622 1 -1.1104 4.16196 4.95236 23.4544
623 1 -1.1104 3.90447 10.6008 23.4744
624 1 -1.1104 3.81228 5.02245 26.2329
625 1 -1.1104 3.97647 10.6331 26.4101
698 2 2.2208 11.069 20.5492 24.951
702 1 -1.1104 12.5054 13.391 26.5556
705 2 2.2208 10.9245 17.7469 22.0937
570 2 2.2208 -0.131803 -1.84425 24.931
457 1 -1.1104 12.3296 10.8048 20.7263
616 1 -1.1104 6.987 10.7698 26.5012
469 1 -1.1104 9.43271 10.8195 20.7672
605 1 -1.1104 6.70826 7.9433 23.4175
610 1 -1.1104 6.98912 5.07378 23.3845
611 1 -1.1104 6.78927 10.8233 23.5693
430 1 -1.1104 6.7013 10.8034 20.8078
615 1 -1.1104 6.7035 5.06217 26.2679
607 1 -1.1104 6.69606 7.86124 26.2287
633 1 -1.1104 9.55714 10.8287 26.3469
634 1 -1.1104 9.60651 4.98763 26.4063
635 1 -1.1104 9.59109 10.5821 23.6061
636 1 -1.1104 9.60762 5.13831 23.5782
637 2 2.2208 8.23382 9.40405 22.0709
638 1 -1.1104 9.51951 7.99642 26.2637
639 2 2.2208 8.15765 11.9759 24.9087
640 2 2.2208 8.2359 6.55281 24.9352
641 2 2.2208 10.964 6.43636 22.1217
642 2 2.2208 10.9825 12.158 22.2261
643 1 -1.1104 12.3737 7.77974 23.4401
644 1 -1.1104 12.3454 7.91294 26.3295
645 1 -1.1104 12.2518 4.85749 23.3175
646 1 -1.1104 12.3181 10.461 23.5068
647 2 2.2208 11.0893 9.1849 24.8543
648 1 -1.1104 12.4658 5.04845 26.2621
649 1 -1.1104 12.3619 10.6218 26.352
650 1 -1.1104 9.52951 7.87999 23.3695
689 2 2.2208 8.16269 20.6064 22.1076
695 1 -1.1104 9.68887 19.079 23.5579
505 1 -1.1104 3.82856 16.1689 20.569
479 1 -1.1104 1.22092 13.6762 20.7154
535 2 2.2208 8.22735 17.7768 13.6911
683 2 2.2208 -0.25561 14.9159 24.8534
481 1 -1.1104 1.0729 19.1761 20.7132
491 1 -1.1104 1.05321 16.3401 20.7684
498 1 -1.1104 3.877 13.5694 20.7674
672 2 2.2208 2.60192 17.8455 24.783
677 1 -1.1104 3.86981 16.2661 23.3281
676 1 -1.1104 1.02761 16.3888 23.4994
671 1 -1.1104 3.91447 19.0887 26.2619
679 2 2.2208 2.51809 14.9777 22.174
670 2 2.2208 5.40343 17.7394 22.1882
669 1 -1.1104 1.01262 13.5521 23.3856
678 2 2.2208 2.58414 20.7553 22.2084
673 1 -1.1104 4.10358 16.3507 26.1812
674 1 -1.1104 4.00011 13.4604 26.4813
657 1 -1.1104 3.94206 19.3024 23.6064
659 1 -1.1104 3.98749 13.523 23.4694
661 1 -1.1104 1.08348 19.0181 26.2125
662 1 -1.1104 1.35793 16.4739 26.3624
663 1 -1.1104 1.34969 13.4968 26.1819
665 2 2.2208 5.3708 20.7292 24.8388
666 2 2.2208 5.47556 14.8744 25.2207
668 1 -1.1104 1.07127 19.3176 23.4824
686 2 2.2208 -0.235313 17.7894 22.0309
694 2 2.2208 8.05397 17.8632 25.0297
703 1 -1.1104 12.4327 19.3215 23.5916
658 1 -1.1104 6.71131 13.5419 26.3719
696 1 -1.1104 9.55961 13.4025 23.5499
687 1 -1.1104 9.64116 16.3985 26.3561
690 2 2.2208 8.09027 15.0395 22.2284
520 1 -1.1104 12.41 16.287 20.5696
515 1 -1.1104 12.3943 19.1358 20.6763
675 1 -1.1104 6.79635 16.4528 23.6027
692 1 -1.1104 9.54215 13.5774 26.4996
513 1 -1.1104 12.3491 13.5829 20.8207
693 1 -1.1104 6.52238 19.34 26.3538
701 1 -1.1104 12.2426 19.0515 26.2243
664 1 -1.1104 6.94225 19.339 23.5745
704 1 -1.1104 12.3777 13.4229 23.7301
688 1 -1.1104 9.40066 16.4454 23.7405
506 2 2.2208 2.53685 17.8352 13.7729
626 2 2.2208 5.30934 6.41309 27.6401
592 2 2.2208 8.20813 -1.9925 27.7548
680 2 2.2208 2.58788 20.4609 27.6059
601 2 2.2208 13.6851 3.59369 27.7693
409 2 2.2208 10.8943 3.59419 13.6255
403 2 2.2208 8.22319 -4.71021 19.422
372 2 2.2208 -0.248793 -2.0419 13.8311
682 2 2.2208 2.57606 15.0123 27.687
9792 2 2.2208 -0.153307 14.9393 13.7665
375 2 2.2208 2.52443 0.822107 13.8059
445 2 2.2208 2.54785 12.1348 13.6931
653 2 2.2208 11.0089 12.0174 27.8647
627 2 2.2208 2.54965 9.18535 27.7049
629 2 2.2208 -0.224819 12.0871 27.6626
9608 2 2.2208 13.7757 0.852482 13.8607
591 2 2.2208 10.949 0.894132 27.7438
714 2 2.2208 5.37511 23.4058 5.24421
715 2 2.2208 5.36538 29.0658 5.21372
716 1 -1.1104 1.09822 24.7579 0.986302
717 1 -1.1104 1.02829 24.6019 3.5482
718 1 -1.1104 0.954588 21.6819 0.970677
719 1 -1.1104 1.05026 27.6645 0.991227
720 2 2.2208 5.28062 26.184 2.30742
721 1 -1.1104 1.264 21.7304 3.72558
722 1 -1.1104 1.0932 27.3317 3.74722
723 1 -1.1104 4.02535 24.7497 1.01654
724 2 2.2208 2.40897 23.2194 2.24502
725 2 2.2208 2.47021 28.8962 2.4628
726 1 -1.1104 4.09708 24.6577 3.76675
727 2 2.2208 2.65628 26.128 5.10342
728 1 -1.1104 3.9711 22.0806 0.818849
729 1 -1.1104 3.97413 27.5154 0.949773
730 1 -1.1104 4.04359 21.849 3.66751
731 1 -1.1104 3.94684 27.4069 3.8344
732 2 2.2208 -0.210007 28.8155 5.29872
10137 2 2.2208 -0.215452 28.8747 11.0085
783 2 2.2208 -0.181115 37.5255 2.39299
735 1 -1.1104 6.70731 24.9458 0.721767
1365 2 2.2208 -0.237273 45.9254 -0.413794
834 2 2.2208 -0.178575 40.2798 5.17227
1636 1 -1.1104 9.78841 47.3955 11.9153
1305 2 2.2208 10.9873 23.4816 -0.407903
1031 2 2.2208 8.18754 29.1043 13.6961
1630 1 -1.1104 12.339 47.364 9.66001
739 1 -1.1104 6.90895 22.1723 3.92918
1014 1 -1.1104 9.76958 41.5237 12.3925
736 1 -1.1104 6.72472 24.9684 3.75182
738 1 -1.1104 6.7826 27.9031 0.921328
740 1 -1.1104 6.79022 27.7831 3.83511
737 1 -1.1104 6.71812 22.1245 1.02142
741 2 2.2208 10.9286 23.4747 5.09241
742 2 2.2208 10.9898 29.0988 5.18749
743 1 -1.1104 12.375 24.778 0.994777
744 1 -1.1104 12.3689 24.9806 3.99474
745 1 -1.1104 12.3373 21.9974 0.993195
746 1 -1.1104 12.3383 27.8105 0.79185
747 2 2.2208 11.0363 26.4863 2.29114
748 1 -1.1104 12.2029 22.0662 3.84508
749 1 -1.1104 12.4943 27.6673 3.71811
750 1 -1.1104 9.61966 24.9241 1.18902
751 2 2.2208 8.06881 23.52 2.31362
752 2 2.2208 8.19194 29.1518 2.52781
753 1 -1.1104 9.57932 24.9072 3.69915
754 2 2.2208 8.17072 26.2781 5.15145
755 1 -1.1104 9.5879 22.106 0.751293
756 1 -1.1104 9.60837 27.6309 0.996384
757 1 -1.1104 9.55075 22.0218 3.56898
758 1 -1.1104 9.56862 27.7838 3.81009
10201 2 2.2208 -0.405152 34.642 10.7437
859 1 -1.1104 6.7525 22.1631 6.80997
1038 2 2.2208 8.08598 43.1511 -0.297611
10139 2 2.2208 -0.279343 23.6619 10.728
784 2 2.2208 -0.385746 31.7843 2.49921
762 2 2.2208 5.25539 34.6475 5.23809
763 1 -1.1104 1.06854 30.416 0.868253
764 1 -1.1104 0.957469 36.0428 1.08433
766 1 -1.1104 1.1884 30.3269 3.74588
767 1 -1.1104 1.12348 36.2283 3.72693
769 1 -1.1104 1.10656 33.1347 1.1129
770 2 2.2208 5.33623 31.8136 2.36407
771 2 2.2208 5.23182 37.3704 2.44757
772 1 -1.1104 0.784946 33.0615 3.7841
774 1 -1.1104 3.99986 30.3379 0.896285
775 1 -1.1104 3.92062 36.0364 1.06923
776 2 2.2208 2.49753 34.616 2.32779
777 1 -1.1104 4.00767 30.1546 3.70626
778 1 -1.1104 4.0451 36.01 3.89119
779 2 2.2208 2.36088 31.6355 5.24083
780 2 2.2208 2.59324 37.4797 5.18749
781 1 -1.1104 4.01206 33.1572 1.10217
782 1 -1.1104 3.6334 33.0528 3.69631
10200 2 2.2208 -0.282054 31.7611 8.05313
765 1 -1.1104 6.66649 35.9973 1.02007
920 1 -1.1104 3.78806 33.0705 6.53466
785 2 2.2208 -0.216619 34.6912 5.20029
991 1 -1.1104 6.4533 41.6789 9.37629
773 1 -1.1104 6.48731 33.4325 3.76745
989 1 -1.1104 6.6913 44.4908 6.72565
786 1 -1.1104 6.88461 30.7633 0.992232
788 1 -1.1104 6.71847 33.3606 0.958762
787 1 -1.1104 6.77508 30.5386 3.7752
768 1 -1.1104 6.65792 36.017 3.78037
789 2 2.2208 10.989 34.8089 5.24803
790 1 -1.1104 12.2865 30.5127 1.11654
791 1 -1.1104 12.3624 35.9323 1.282
792 1 -1.1104 12.6084 30.5684 3.64914
793 1 -1.1104 12.3867 36.1296 4.12631
794 1 -1.1104 12.5279 33.2918 1.18935
795 2 2.2208 11.0075 31.7783 2.4901
796 2 2.2208 11.09 37.4507 2.42887
797 1 -1.1104 12.2592 33.1995 3.85026
798 1 -1.1104 9.58403 30.307 0.975383
799 1 -1.1104 9.48619 36.1778 1.12536
800 2 2.2208 7.95235 34.7688 2.45272
801 1 -1.1104 9.60115 30.426 3.91404
802 1 -1.1104 9.5724 36.1427 3.71788
803 2 2.2208 8.1022 31.8314 5.15385
804 2 2.2208 8.13936 37.4644 5.1614