ITEM: TIMESTEP
60000
ITEM: NUMBER OF ATOMS
17910
ITEM: BOX BOUNDS pp pp pp
-3.8538325602070944e-01 2.7725383256020553e+01
-4.7459430511587284e+00 3.3282594305115930e+02
-3.9779540577602568e-01 2.7737795405775969e+01
ITEM: ATOMS id type q x y z
1 2 2.2208 5.32921 0.901373 5.32074
2 1 -1.1104 1.12113 -3.22399 0.960795
3 1 -1.1104 0.958673 2.22303 0.993972
6 1 -1.1104 1.23124 -3.32664 3.83602
7 1 -1.1104 1.26311 2.4231 3.99606
10 1 -1.1104 1.13035 -0.54244 1.14423
12 2 2.2208 5.20822 -1.80956 2.58864
14 1 -1.1104 0.966097 -0.377351 4.06571
16 1 -1.1104 4.06585 -3.28402 1.23354
17 1 -1.1104 3.7326 2.4079 1.01948
18 2 2.2208 2.61469 0.913725 2.62955
19 1 -1.1104 3.9814 -3.30807 3.9657
20 1 -1.1104 3.87844 2.36706 3.81918
21 2 2.2208 2.54891 -1.77985 5.2447
23 1 -1.1104 3.87763 -0.620695 1.03298
24 1 -1.1104 3.86754 -0.455758 3.90554
13 2 2.2208 5.10887 3.83802 2.31173
22 2 2.2208 2.5296 3.91766 5.35274
25 2 2.2208 -0.329591 -1.89415 2.56307
595 2 2.2208 10.9349 -4.77161 -0.384485
232 2 2.2208 10.8838 -4.65851 10.8894
29 2 2.2208 5.28463 -4.67895 5.26977
28 2 2.2208 2.51757 -4.71214 2.29919
627 2 2.2208 2.55654 9.23896 -0.334908
170 1 -1.1104 1.21407 -0.387318 6.80977
30 2 2.2208 -0.26295 -4.53729 5.15014
9677 2 2.2208 13.6873 6.50422 13.706
137 2 2.2208 -0.217363 17.8659 5.14737
83 2 2.2208 -0.404933 12.2668 5.13731
4 1 -1.1104 6.75014 -3.47117 1.19363
15 1 -1.1104 6.72134 -0.440718 3.99341
9 1 -1.1104 6.71688 2.32043 3.92472
8 1 -1.1104 6.70508 -3.33292 3.80612
5 1 -1.1104 6.65617 2.26684 1.10882
11 1 -1.1104 6.68215 -0.555765 1.29779
31 2 2.2208 10.9352 1.1314 5.30931
32 1 -1.1104 12.3729 -3.41917 1.26629
33 1 -1.1104 12.3743 2.4696 1.03284
34 1 -1.1104 12.3282 -3.46257 4.02511
35 1 -1.1104 12.3791 2.32977 3.8153
36 1 -1.1104 12.2953 -0.505995 1.06024
37 2 2.2208 10.7577 -1.88913 2.5756
39 1 -1.1104 12.2814 -0.57047 3.92086
40 1 -1.1104 9.43605 -3.14535 1.13768
41 1 -1.1104 9.56145 2.45429 1.06381
42 2 2.2208 8.14624 1.08451 2.54719
43 1 -1.1104 9.43009 -3.08248 3.87564
44 1 -1.1104 9.5513 2.39524 3.94781
45 2 2.2208 8.13627 -1.85255 5.23612
46 2 2.2208 7.99437 3.74467 5.29569
47 1 -1.1104 9.44637 -0.410844 1.28319
48 1 -1.1104 9.50656 -0.270237 4.06802
38 2 2.2208 10.8793 3.82763 2.39739
9414 2 2.2208 13.6818 3.75403 10.9132
204 2 2.2208 -0.339003 -4.73649 10.8327
651 2 2.2208 10.8564 6.67522 -0.332468
312 2 2.2208 -0.322738 17.7862 10.5994
205 1 -1.1104 12.1074 -3.53295 6.80996
210 1 -1.1104 9.50139 -0.367949 6.67294
9377 2 2.2208 13.6279 14.9781 5.35135
200 2 2.2208 -0.245439 -1.74614 8.01898
82 2 2.2208 -0.291659 9.47491 2.55266
135 2 2.2208 -0.325721 15.1222 2.41846
54 2 2.2208 5.41243 6.44529 5.24737
55 2 2.2208 5.32414 12.2685 5.28601
56 1 -1.1104 1.03633 8.00459 1.13273
58 1 -1.1104 1.09561 7.97056 3.84169
60 1 -1.1104 0.897161 5.14526 1.0105
61 1 -1.1104 0.977522 10.7462 1.12067
66 2 2.2208 5.42469 9.42364 2.53349
67 1 -1.1104 1.1659 5.19333 3.76377
68 1 -1.1104 1.14649 10.8389 3.964
71 1 -1.1104 3.95611 7.97515 1.12302
72 2 2.2208 2.40865 6.53942 2.3627
73 2 2.2208 2.50692 12.2374 2.47296
74 1 -1.1104 4.00904 7.92362 4.00967
75 2 2.2208 2.54102 9.37035 5.19758
76 1 -1.1104 3.75947 5.25016 1.09628
77 1 -1.1104 3.70466 10.8351 1.03742
79 1 -1.1104 3.91244 5.20578 3.93511
80 1 -1.1104 4.03457 10.8225 3.81538
563 2 2.2208 2.23418 3.75266 -0.384635
234 1 -1.1104 1.12872 8.21007 6.66822
78 1 -1.1104 3.96798 10.7618 6.54719
62 1 -1.1104 1.08245 10.9611 6.77455
238 1 -1.1104 3.8708 7.87506 6.79352
562 2 2.2208 2.57682 -1.94695 -0.326135
203 2 2.2208 5.24121 -4.56194 10.9978
569 2 2.2208 -0.43061 0.875305 -0.485352
70 1 -1.1104 6.78967 10.8436 3.91446
59 1 -1.1104 6.75963 8.09731 3.71231
63 1 -1.1104 6.666 5.0965 0.928414
64 1 -1.1104 6.59464 10.7599 0.891111
69 1 -1.1104 6.58393 5.38052 3.67745
57 1 -1.1104 6.69475 8.068 0.985369
84 2 2.2208 11.0107 6.53027 5.10941
85 2 2.2208 11.0312 12.1196 5.30668
86 1 -1.1104 12.4837 7.99286 1.10911
87 1 -1.1104 12.4759 8.05039 3.71686
88 1 -1.1104 12.3265 5.25828 0.925106
89 1 -1.1104 12.4665 10.7886 1.05233
91 2 2.2208 10.9505 9.53601 2.44743
92 1 -1.1104 12.3001 5.06665 3.58902
93 1 -1.1104 12.4604 10.6906 3.92162
94 1 -1.1104 9.51351 8.06234 0.985146
95 2 2.2208 8.04057 6.69695 2.23436
96 2 2.2208 8.08674 12.3076 2.35322
97 1 -1.1104 9.56426 8.05588 3.88709
98 2 2.2208 8.07296 9.30549 5.19409
99 1 -1.1104 9.48327 5.2092 1.02326
100 1 -1.1104 9.44052 10.7506 1.04312
102 1 -1.1104 9.50191 5.25658 3.90421
103 1 -1.1104 9.4939 10.8059 3.97031
26 2 2.2208 -0.251786 1.07843 5.31366
507 2 2.2208 5.3618 20.6419 13.6199
106 2 2.2208 5.31882 17.8362 5.19493
107 1 -1.1104 1.02379 13.6034 0.933682
109 1 -1.1104 1.01209 19.1989 0.857788
113 1 -1.1104 1.14699 13.5635 3.85854
114 1 -1.1104 1.26297 19.1922 3.83249
116 1 -1.1104 0.92718 16.4176 1.01529
119 2 2.2208 5.24243 15.0633 2.40284
120 2 2.2208 5.25431 20.6889 2.35759
121 1 -1.1104 0.994811 16.2744 3.70693
123 1 -1.1104 3.81592 13.5426 1.24299
125 1 -1.1104 3.86971 19.2321 0.916759
127 2 2.2208 2.52493 17.7978 2.39567
128 1 -1.1104 3.96045 13.7725 3.88537
129 1 -1.1104 3.9505 19.2587 3.77459
130 2 2.2208 2.48126 14.9792 5.31788
131 2 2.2208 2.66932 20.5948 5.29943
132 1 -1.1104 3.82601 16.3551 0.97498
134 1 -1.1104 3.8802 16.4749 3.62612
628 2 2.2208 5.26653 12.1704 -0.234174
376 2 2.2208 5.31666 3.72478 13.6674
81 2 2.2208 -0.183972 6.62847 5.25562
140 1 -1.1104 6.6657 16.3336 1.05767
139 1 -1.1104 6.80569 19.2856 3.61735
117 1 -1.1104 1.04511 16.4488 6.69362
124 1 -1.1104 3.74805 13.5758 6.59476
319 1 -1.1104 9.55058 13.7483 9.38822
122 1 -1.1104 6.80548 16.417 3.85906
115 1 -1.1104 6.59911 13.5272 3.84273
138 1 -1.1104 6.74759 19.2025 0.905389
110 1 -1.1104 6.60817 13.5509 1.01071
141 2 2.2208 11.0343 17.8969 5.41072
142 1 -1.1104 12.4346 13.5059 0.977723
144 1 -1.1104 12.5177 18.9588 1.15298
146 1 -1.1104 12.2538 13.7057 3.86949
147 1 -1.1104 12.5887 19.2855 3.77001
148 1 -1.1104 12.4205 16.1933 1.0873
150 2 2.2208 10.9192 15.0643 2.52555
151 2 2.2208 11.2007 20.5575 2.38355
152 1 -1.1104 12.3442 16.4665 3.84969
153 1 -1.1104 9.58468 13.6259 0.964888
155 1 -1.1104 9.74539 19.2362 0.946708
157 2 2.2208 8.19752 17.7873 2.42254
158 1 -1.1104 9.48556 13.5506 3.78276
159 1 -1.1104 9.52415 19.086 4.06199
160 2 2.2208 8.28733 14.874 5.24932
161 2 2.2208 8.1546 20.5849 5.21977
162 1 -1.1104 9.4364 16.3314 1.06303
164 1 -1.1104 9.60416 16.4012 3.87307
533 2 2.2208 10.9223 20.6155 13.6871
470 2 2.2208 8.159 6.55935 13.7043
145 1 -1.1104 12.3166 19.2396 6.74107
112 1 -1.1104 6.6432 19.0739 6.51808
149 1 -1.1104 12.2807 16.4753 6.72503
681 2 2.2208 5.1614 17.8014 -0.321502
174 1 -1.1104 3.96516 -0.447469 6.5706
166 1 -1.1104 1.12282 -3.00224 6.58664
172 1 -1.1104 3.96643 -3.19239 6.6429
199 2 2.2208 -0.168249 3.88895 8.08743
566 2 2.2208 5.41817 -4.70209 -0.360383
202 2 2.2208 2.4311 -4.64174 7.90671
167 1 -1.1104 1.12015 2.5465 6.60491
173 1 -1.1104 3.98259 2.34166 6.71588
175 2 2.2208 5.48296 0.851678 10.9188
176 1 -1.1104 0.896315 -3.31694 12.0981
177 1 -1.1104 1.24397 2.57891 12.4359
180 1 -1.1104 1.29058 -2.94045 9.31158
181 1 -1.1104 1.14301 2.5266 9.52782
184 1 -1.1104 1.05941 -0.322353 12.202
186 2 2.2208 5.28115 -1.73974 7.94205
187 2 2.2208 5.35977 3.8445 8.09427
188 1 -1.1104 1.22576 -0.198959 9.48736
190 1 -1.1104 3.78987 -3.07001 12.5657
191 1 -1.1104 4.06731 2.38102 12.2581
192 2 2.2208 2.45897 1.14382 8.08826
193 1 -1.1104 3.90573 -3.39852 9.44143
194 1 -1.1104 3.98375 2.42147 9.61165
195 2 2.2208 2.53964 -1.67962 10.751
197 1 -1.1104 4.02464 -0.407733 12.3715
198 1 -1.1104 4.07662 -0.608838 9.52812
196 2 2.2208 2.59535 3.72126 11.0677
111 1 -1.1104 6.71413 13.5338 6.7449
372 2 2.2208 -0.313745 -1.87637 13.5634
313 2 2.2208 -0.352982 15.0792 7.93685
320 2 2.2208 8.10087 17.7817 8.01278
330 1 -1.1104 12.4639 13.7362 12.3316
118 1 -1.1104 6.49638 16.3748 6.79749
168 1 -1.1104 6.70935 -3.41534 6.69891
169 1 -1.1104 6.79729 2.31115 6.7283
189 1 -1.1104 6.68057 -0.461766 9.37284
208 1 -1.1104 9.45595 -3.493 6.79535
206 1 -1.1104 12.3861 2.34296 6.71943
171 1 -1.1104 6.93986 -0.496515 6.75248
179 1 -1.1104 6.8293 2.19731 12.366
178 1 -1.1104 6.76414 -3.22696 12.2706
182 1 -1.1104 6.83344 -3.43285 9.54829
185 1 -1.1104 6.76171 -0.625704 12.3902
183 1 -1.1104 6.88733 2.28806 9.53843
209 1 -1.1104 9.50223 2.51834 6.80493
207 1 -1.1104 12.133 -0.360632 6.60296
211 2 2.2208 10.9947 0.92563 10.9461
212 1 -1.1104 12.3865 -3.31727 12.3826
213 1 -1.1104 12.3432 2.33284 12.2757
214 1 -1.1104 12.3841 -3.39307 9.53757
215 1 -1.1104 12.4775 2.3992 9.44188
216 1 -1.1104 12.3123 -0.406549 12.3426
217 2 2.2208 10.8955 -1.85955 8.0132
219 1 -1.1104 12.3947 -0.441247 9.47938
220 1 -1.1104 9.52337 -3.43577 12.3508
221 1 -1.1104 9.65905 2.29489 12.2744
222 2 2.2208 8.198 0.915148 8.13866
223 1 -1.1104 9.65297 -3.12617 9.56586
224 1 -1.1104 9.67254 2.48294 9.5951
225 2 2.2208 8.17422 -1.81984 10.9491
227 1 -1.1104 9.58521 -0.419613 12.5209
228 1 -1.1104 9.56256 -0.457198 9.56867
226 2 2.2208 8.26533 3.73866 10.8163
218 2 2.2208 11.0975 3.78607 8.17109
306 1 -1.1104 6.75355 16.525 12.3676
9508 2 2.2208 -0.0752586 9.43503 8.22432
9501 2 2.2208 -0.231005 12.3025 11.045
9509 2 2.2208 -0.243079 6.4614 11.0059
236 1 -1.1104 1.09506 5.58644 6.76396
239 1 -1.1104 3.98341 5.17746 6.72524
240 2 2.2208 5.50456 6.59039 10.9525
241 2 2.2208 5.5646 12.1087 11.1107
242 1 -1.1104 1.19576 8.05026 12.4263
244 1 -1.1104 1.36157 8.00086 9.49838
246 1 -1.1104 1.07943 5.37297 12.368
247 1 -1.1104 1.29409 10.9322 12.3734
250 2 2.2208 5.37459 9.33619 8.0086
251 1 -1.1104 1.23821 5.06143 9.44498
252 1 -1.1104 1.22492 10.8785 9.46565
255 1 -1.1104 3.96035 7.89044 12.3993
256 2 2.2208 2.74755 6.6013 8.24201
257 2 2.2208 2.51921 12.1204 8.07263
258 1 -1.1104 4.02933 7.999 9.60315
259 2 2.2208 2.52329 9.34099 10.9328
260 1 -1.1104 3.84988 5.08462 12.5268
261 1 -1.1104 4.02068 10.6942 12.447
262 1 -1.1104 4.08973 5.20376 9.53054
263 1 -1.1104 4.16133 10.7345 9.49496
248 1 -1.1104 6.72733 5.07735 12.4364
296 1 -1.1104 6.71128 19.2699 12.0259
269 1 -1.1104 9.48797 5.19539 6.75052
90 1 -1.1104 12.4436 10.814 6.88389
101 1 -1.1104 9.43731 10.685 6.8314
267 1 -1.1104 9.38538 7.9698 6.81734
243 1 -1.1104 6.76712 7.84736 12.2812
65 1 -1.1104 6.63978 10.8881 6.63526
235 1 -1.1104 6.75565 7.92659 6.5501
253 1 -1.1104 6.84371 5.26284 9.64286
254 1 -1.1104 6.83804 10.8305 9.42232
237 1 -1.1104 6.68779 5.10821 6.63349
249 1 -1.1104 6.6778 10.6221 12.2685
245 1 -1.1104 6.66774 7.90581 9.39912
266 1 -1.1104 12.4363 5.2932 6.35208
265 1 -1.1104 12.3689 8.07624 6.53468
264 1 -1.1104 9.55547 10.8248 9.4245
268 1 -1.1104 9.49836 5.08857 9.5511
270 1 -1.1104 9.62825 10.8146 12.1699
271 1 -1.1104 9.43005 5.0315 12.3743
272 2 2.2208 8.23053 9.32905 10.8274
273 1 -1.1104 9.51057 7.90872 9.69304
274 2 2.2208 8.16934 12.0971 8.15699
275 2 2.2208 8.14967 6.51769 8.12881
276 2 2.2208 10.8357 6.44484 10.9485
277 2 2.2208 11.1363 12.3228 10.8871
278 1 -1.1104 12.136 7.85702 12.3434
279 1 -1.1104 12.465 7.98153 9.32279
280 1 -1.1104 12.1772 5.07858 12.2205
281 1 -1.1104 12.3539 10.6822 12.2926
282 2 2.2208 10.8923 9.36588 8.03279
283 1 -1.1104 12.2968 5.2781 9.25671
284 1 -1.1104 12.322 10.8246 9.58958
285 1 -1.1104 9.4467 8.02692 12.3444
327 1 -1.1104 12.5088 19.5009 9.44943
288 1 -1.1104 6.77007 19.1467 9.40883
133 1 -1.1104 3.88321 16.2201 6.62743
108 1 -1.1104 0.839243 13.7272 6.61389
126 1 -1.1104 3.81732 19.0847 6.57587
322 1 -1.1104 9.66325 13.4349 12.3105
302 1 -1.1104 1.09902 19.3013 6.59362
286 1 -1.1104 4.01636 19.3558 12.177
287 1 -1.1104 4.11376 13.6678 12.5197
291 1 -1.1104 1.13904 19.1815 9.22984
292 1 -1.1104 1.13424 16.3934 9.52296
293 2 2.2208 5.37534 20.5144 8.17997
294 1 -1.1104 1.1756 13.743 9.40064
295 2 2.2208 5.2186 14.8889 8.1429
298 1 -1.1104 1.12122 19.1451 12.128
299 1 -1.1104 1.36772 13.6566 12.292
300 2 2.2208 5.35356 17.7464 10.8544
301 1 -1.1104 3.95734 19.0501 9.33542
303 2 2.2208 2.44248 17.6755 7.97145
304 1 -1.1104 3.88606 16.4004 9.45978
305 1 -1.1104 3.96318 13.5791 9.67232
307 1 -1.1104 1.08495 16.4112 12.2695
308 1 -1.1104 4.04035 16.4291 12.4775
309 2 2.2208 2.41292 20.5592 10.8438
310 2 2.2208 2.50107 15.0066 10.9598
289 1 -1.1104 6.61597 16.3171 9.46858
653 2 2.2208 10.9484 12.3199 -0.376961
331 2 2.2208 11.0042 17.8619 10.8441
325 2 2.2208 10.803 15.1089 7.9754
328 1 -1.1104 12.1987 13.7071 9.46076
317 2 2.2208 8.02443 15.0896 10.9657
315 1 -1.1104 9.59635 16.1593 12.3423
316 2 2.2208 8.14475 20.5373 10.7972
318 1 -1.1104 9.60431 19.2326 9.46083
156 1 -1.1104 9.50435 19.4141 6.75984
326 1 -1.1104 12.3046 16.3793 12.2846
314 1 -1.1104 9.59696 16.4673 9.41879
143 1 -1.1104 12.1864 13.609 6.49275
323 1 -1.1104 12.4589 16.4443 9.42764
329 1 -1.1104 12.1686 19.1331 12.3
154 1 -1.1104 9.56026 13.4631 6.65379
324 2 2.2208 10.9333 20.6918 8.08589
297 1 -1.1104 6.81638 13.6395 12.3616
290 1 -1.1104 6.67368 13.4965 9.71507
321 1 -1.1104 9.42848 19.1116 12.2475
163 1 -1.1104 9.35274 16.4744 6.49461
506 2 2.2208 2.46701 17.9736 13.6413
373 2 2.2208 2.44202 -4.5692 13.5926
408 2 2.2208 10.9628 -2.04236 13.5228
592 2 2.2208 8.03832 -1.83847 -0.0927895
561 2 2.2208 5.2906 0.988569 -0.236925
632 2 2.2208 -0.337072 6.73154 -0.291238
535 2 2.2208 8.11109 17.8454 13.5154
9793 2 2.2208 -0.23414 20.4844 13.5447
534 2 2.2208 10.8819 14.8945 13.6608
706 2 2.2208 8.37004 20.5556 -0.213285
682 2 2.2208 2.44297 14.9976 -0.254185
591 2 2.2208 10.8955 0.986776 -0.166222
9723 2 2.2208 -0.078277 9.34392 13.6618
334 2 2.2208 5.23597 0.987391 16.6215
335 1 -1.1104 0.950598 -3.11175 17.9045
336 1 -1.1104 1.0208 2.35437 17.8023
339 1 -1.1104 1.06719 -3.18538 14.9183
341 1 -1.1104 1.17789 2.56312 15.1358
347 1 -1.1104 1.13245 -0.387764 17.8569
349 2 2.2208 5.30051 -1.93502 19.4589
351 1 -1.1104 1.09724 -0.264631 14.937
355 1 -1.1104 3.82393 -3.16327 18.0401
356 1 -1.1104 3.8494 2.38286 18.1082
357 2 2.2208 2.53084 0.966332 19.307
358 1 -1.1104 3.87097 -3.20237 15.1637
360 1 -1.1104 3.84637 2.41116 15.1083
362 2 2.2208 2.42558 -1.90731 16.5919
364 1 -1.1104 3.89036 -0.440826 18.0322
365 1 -1.1104 3.92126 -0.198233 15.2115
565 2 2.2208 -0.340849 -4.65614 22.124
525 1 -1.1104 9.70238 13.6098 20.6875
597 2 2.2208 8.24288 -4.69459 25.0773
403 2 2.2208 8.02558 -4.64219 19.3791
368 2 2.2208 5.26102 -4.58183 16.6898
369 2 2.2208 2.4334 -4.60859 19.3931
345 1 -1.1104 6.567 2.51256 15.3214
683 2 2.2208 -0.309646 15.0833 24.8342
366 1 -1.1104 3.75853 -0.423478 20.9758
9685 2 2.2208 -0.211674 12.2832 16.5776
698 2 2.2208 10.9318 20.5418 24.9643
472 2 2.2208 8.14082 12.0869 13.6722
343 1 -1.1104 6.58204 -3.23262 15.2276
348 1 -1.1104 6.76585 -0.646296 18.1441
353 1 -1.1104 6.7219 -0.355137 15.2898
337 1 -1.1104 6.43728 -3.33459 17.972
338 1 -1.1104 6.75319 2.16759 18.0539
377 2 2.2208 10.9214 0.888857 16.5395
378 1 -1.1104 12.3292 -3.29853 18.1117
379 1 -1.1104 12.3077 2.27666 18.1242
380 1 -1.1104 12.0993 -3.29155 15.1349
382 1 -1.1104 12.2254 2.35046 15.0858
384 1 -1.1104 12.2841 -0.431453 17.8241
385 2 2.2208 10.7661 -1.76369 19.3369
387 1 -1.1104 12.2008 -0.60943 15.1605
389 1 -1.1104 9.66561 -3.12756 17.9663
390 1 -1.1104 9.48219 2.43205 17.8392
391 2 2.2208 8.22298 0.842156 19.2763
392 1 -1.1104 9.46614 -3.2707 15.0514
394 1 -1.1104 9.29983 2.41361 15.2429
396 2 2.2208 8.22741 -1.89355 16.7299
398 1 -1.1104 9.51713 -0.472008 18.0232
399 1 -1.1104 9.4385 -0.502648 15.2816
386 2 2.2208 10.9485 3.75317 19.1964
381 1 -1.1104 12.3195 -3.33683 20.7389
9789 2 2.2208 -0.315884 20.6148 19.3178
397 2 2.2208 8.1238 3.82585 16.6119
567 2 2.2208 5.08553 -4.71476 22.2456
400 1 -1.1104 9.45367 -0.557962 21.0035
402 2 2.2208 10.8804 -4.65939 16.5539
9792 2 2.2208 -0.285153 15.2633 13.6643
350 2 2.2208 5.36319 3.58981 19.4273
363 2 2.2208 2.64137 3.88977 16.4862
367 2 2.2208 -0.28891 -4.59757 16.5569
629 2 2.2208 -0.157508 12.1878 27.7946
410 2 2.2208 5.35544 6.51747 16.4118
411 2 2.2208 5.38808 12.1622 16.6216
412 1 -1.1104 1.11918 8.00083 17.8805
414 1 -1.1104 1.13003 8.03628 15.1649
418 1 -1.1104 1.22651 5.17694 17.9495
419 1 -1.1104 1.08034 10.7003 17.9317
422 2 2.2208 5.58345 9.36869 19.3291
423 1 -1.1104 1.1142 5.37098 15.1698
425 1 -1.1104 1.14816 10.9124 15.0678
431 1 -1.1104 3.95611 7.89371 17.5822
432 2 2.2208 2.64778 6.65104 19.1429
433 2 2.2208 2.51722 12.1026 19.3678
434 1 -1.1104 4.07296 7.93577 15.0898
436 2 2.2208 2.46911 9.47785 16.3242
437 1 -1.1104 4.02407 5.27989 18.0018
438 1 -1.1104 4.05812 10.8249 17.9802
439 1 -1.1104 3.83689 5.11584 15.1038
441 1 -1.1104 3.82633 10.814 15.1605
443 2 2.2208 2.65729 6.53988 13.7719
9720 2 2.2208 -0.225184 6.73554 16.5963
370 2 2.2208 -0.28933 0.972546 16.456
424 1 -1.1104 1.06396 5.17569 20.788
564 2 2.2208 -0.363966 -4.54036 27.7303
445 2 2.2208 2.60254 12.2379 13.7798
508 2 2.2208 5.28527 15.1032 14.0154
420 1 -1.1104 6.60838 4.98292 18.0585
421 1 -1.1104 6.84369 10.8895 17.9203
413 1 -1.1104 6.83046 7.84346 17.8465
427 1 -1.1104 6.79383 5.39326 15.1615
429 1 -1.1104 6.59785 11.017 15.1191
416 1 -1.1104 6.72268 8.02776 15.1309
446 2 2.2208 10.8532 6.71916 16.5408
447 2 2.2208 11.0104 12.196 16.6067
448 1 -1.1104 12.3519 7.89083 18.0146
449 1 -1.1104 12.4144 8.01283 15.1664
451 1 -1.1104 12.4656 5.17119 17.9415
452 1 -1.1104 12.3562 10.7815 18.0165
453 2 2.2208 10.9681 9.253 19.3666
454 1 -1.1104 12.353 5.06361 15.0742
456 1 -1.1104 12.3008 10.7952 15.229
458 1 -1.1104 9.49825 7.94052 17.8552
459 2 2.2208 7.91821 6.41316 19.2958
460 2 2.2208 8.20409 12.1329 19.3843
461 1 -1.1104 9.46889 7.94939 15.0469
463 2 2.2208 8.21134 9.51332 16.45
464 1 -1.1104 9.63082 5.15956 17.9848
465 1 -1.1104 9.52795 10.8742 17.9448
466 1 -1.1104 9.63403 5.11695 15.2493
468 1 -1.1104 9.58261 10.8032 15.0125
467 1 -1.1104 9.22485 5.14411 20.8168
9790 2 2.2208 -0.32231 14.9493 19.3679
417 1 -1.1104 6.7465 7.78861 20.6971
450 1 -1.1104 12.5051 7.90469 20.813
630 2 2.2208 -0.227533 9.37778 24.884
9719 2 2.2208 -0.36665 9.40803 19.2455
473 2 2.2208 5.31294 17.806 16.5347
474 1 -1.1104 0.996961 13.6439 18.0531
475 1 -1.1104 1.1646 19.4811 17.8015
478 1 -1.1104 1.07284 13.6686 15.1579
480 1 -1.1104 0.962047 19.1838 15.0598
486 1 -1.1104 1.09009 16.4951 17.8213
488 2 2.2208 5.15806 15.0589 19.4319
489 2 2.2208 5.37487 20.678 19.2819
490 1 -1.1104 1.05588 16.5809 14.9523
494 1 -1.1104 3.7595 13.296 17.8508
495 1 -1.1104 4.08884 19.1436 17.9336
496 2 2.2208 2.60827 17.9249 19.3938
497 1 -1.1104 3.97607 13.8821 15.146
499 1 -1.1104 3.89283 19.2467 15.1446
501 2 2.2208 2.46811 15.039 16.6132
502 2 2.2208 2.64391 20.631 16.382
503 1 -1.1104 3.71979 16.408 18.2017
504 1 -1.1104 3.87641 16.5939 15.2265
9898 2 2.2208 -0.252944 6.52342 22.1806
705 2 2.2208 10.9129 17.754 22.1264
686 2 2.2208 -0.261899 17.711 22.1215
477 1 -1.1104 6.76311 19.1209 17.8066
487 1 -1.1104 6.53944 16.3437 18.0251
481 1 -1.1104 1.05312 19.096 20.7235
656 2 2.2208 13.5762 6.57246 24.9272
515 1 -1.1104 12.4109 19.1053 20.9573
631 2 2.2208 -0.237779 12.2231 22.2006
484 1 -1.1104 6.49807 19.2662 14.8708
492 1 -1.1104 6.76037 16.5535 15.1708
476 1 -1.1104 6.49426 13.711 18.0137
482 1 -1.1104 6.75852 13.6807 15.0684
509 2 2.2208 10.8406 17.7584 16.5147
510 1 -1.1104 12.2909 13.5192 17.9963
511 1 -1.1104 12.3067 19.0936 18.0829
512 1 -1.1104 12.4345 13.6901 15.0007
514 1 -1.1104 12.2369 19.113 15.2613
516 1 -1.1104 12.239 16.385 17.8756
517 2 2.2208 11.0146 14.918 19.3166
518 2 2.2208 11.1017 20.4992 19.3365
519 1 -1.1104 12.3936 16.4611 15.0367
521 1 -1.1104 9.4758 13.671 17.8165
522 1 -1.1104 9.51306 19.1684 17.8126
523 2 2.2208 7.937 17.8435 19.2664
524 1 -1.1104 9.56697 13.5692 15.1546
526 1 -1.1104 9.30012 19.3995 14.9489
528 2 2.2208 8.10258 14.9358 16.5322
529 2 2.2208 8.10313 20.5442 16.4683
530 1 -1.1104 9.46993 16.3612 17.8128
531 1 -1.1104 9.62585 16.5852 14.9613
513 1 -1.1104 12.4981 13.4972 20.637
340 1 -1.1104 1.10066 -3.13846 20.6267
9750 2 2.2208 13.6381 17.8484 19.4608
568 2 2.2208 2.41107 -4.73129 25.032
409 2 2.2208 10.8123 3.78437 13.6048
361 1 -1.1104 3.9259 2.29157 20.7083
404 2 2.2208 8.03759 -4.77683 13.773
359 1 -1.1104 3.86072 -3.16771 20.8988
571 2 2.2208 -0.269981 1.03791 22.0611
342 1 -1.1104 1.12357 2.40393 20.7799
352 1 -1.1104 0.974403 -0.440982 20.6454
537 2 2.2208 5.22671 0.861006 22.1889
538 1 -1.1104 1.0636 -3.33257 23.4218
539 1 -1.1104 1.14197 2.26434 23.5817
542 1 -1.1104 0.967059 -3.44746 26.1728
543 1 -1.1104 1.03494 2.38276 26.4279
546 1 -1.1104 0.860888 -0.572542 23.3609
548 2 2.2208 5.37694 -1.94304 25.0762
549 2 2.2208 5.15665 3.62778 24.8735
550 1 -1.1104 1.00861 -0.497437 26.3661
552 1 -1.1104 3.84817 -3.39584 23.7708
553 1 -1.1104 3.8515 2.16369 23.6461
554 2 2.2208 2.50978 0.790862 25.0188
555 1 -1.1104 3.88554 -3.35551 26.5145
556 1 -1.1104 4.00426 2.27782 26.4465
557 2 2.2208 2.4938 -1.85963 22.2015
559 1 -1.1104 3.89954 -0.59796 23.5885
560 1 -1.1104 3.87857 -0.496535 26.4322
558 2 2.2208 2.44298 3.64676 22.1579
685 2 2.2208 -0.332963 20.587 25.0068
395 1 -1.1104 9.63943 2.44099 20.6157
375 2 2.2208 2.50925 1.11673 13.8025
9647 2 2.2208 -0.193387 3.80274 19.2715
344 1 -1.1104 6.6739 -3.27087 20.9219
346 1 -1.1104 6.86946 2.21337 20.8832
544 1 -1.1104 6.82915 -3.19808 26.3645
383 1 -1.1104 12.4766 2.18034 20.688
354 1 -1.1104 6.65019 -0.431103 20.7429
540 1 -1.1104 6.82337 -3.18831 23.5563
541 1 -1.1104 6.57025 2.23781 23.7229
547 1 -1.1104 6.47883 -0.499402 23.6912
551 1 -1.1104 6.54064 -0.531343 26.5233
545 1 -1.1104 6.83324 2.28773 26.3704
388 1 -1.1104 12.2541 -0.581312 20.7099
393 1 -1.1104 9.56565 -3.3041 20.8762
573 2 2.2208 10.9902 0.958749 22.1541
574 1 -1.1104 12.4531 -3.33927 23.5145
575 1 -1.1104 12.3656 2.44514 23.5534
576 1 -1.1104 12.3322 -3.39941 26.4467
577 1 -1.1104 12.4456 2.36439 26.3857
578 1 -1.1104 12.3279 -0.604631 23.468
579 2 2.2208 11.1043 -1.91545 24.9876
581 1 -1.1104 12.3967 -0.614364 26.2413
582 1 -1.1104 9.74178 -3.24686 23.7323
583 1 -1.1104 9.49238 2.4104 23.7051
584 2 2.2208 7.92787 0.846605 24.9872
585 1 -1.1104 9.6709 -3.28878 26.3365
586 1 -1.1104 9.69682 2.27632 26.5156
587 2 2.2208 8.08795 -1.91513 22.1063
589 1 -1.1104 9.43568 -0.476714 23.596
590 1 -1.1104 9.28568 -0.543216 26.5052
588 2 2.2208 8.12369 3.74866 22.2881
580 2 2.2208 11.0188 3.61239 24.9673
690 2 2.2208 8.20696 14.9146 22.158
415 1 -1.1104 1.0451 7.98896 20.7977
699 2 2.2208 10.9802 14.9512 24.8391
435 1 -1.1104 3.97959 7.79113 20.8212
442 1 -1.1104 4.05301 10.7991 20.8195
426 1 -1.1104 1.37609 10.6719 20.7484
471 2 2.2208 10.9317 9.44996 13.6409
440 1 -1.1104 4.00491 5.15651 20.6735
602 2 2.2208 5.13084 6.33599 22.2618
603 2 2.2208 5.29308 12.069 22.158
604 1 -1.1104 1.0801 7.85994 23.5515
606 1 -1.1104 1.18884 7.86824 26.366
608 1 -1.1104 1.08453 4.98932 23.7721
609 1 -1.1104 1.3226 10.6857 23.3899
612 2 2.2208 5.26209 9.40365 24.9382
613 1 -1.1104 1.05283 5.26953 26.6219
614 1 -1.1104 1.136 10.7096 26.3949
617 1 -1.1104 3.86458 7.74059 23.7534
618 2 2.2208 2.46257 6.5035 25.0296
619 2 2.2208 2.65947 12.2327 25.1238
620 1 -1.1104 3.74819 8.06443 26.3254
621 2 2.2208 2.59315 9.37855 22.0819
622 1 -1.1104 3.71278 4.99715 23.5163
623 1 -1.1104 3.99578 10.6612 23.3995
624 1 -1.1104 3.97529 5.09787 26.3895
625 1 -1.1104 3.97142 10.9274 26.3735
687 1 -1.1104 9.55776 16.322 26.3772
697 1 -1.1104 12.4597 16.3699 26.3317
457 1 -1.1104 12.3918 10.5498 20.8514
455 1 -1.1104 12.193 5.09056 20.6821
469 1 -1.1104 9.50414 10.6596 20.7293
428 1 -1.1104 6.73063 4.86347 20.8244
430 1 -1.1104 6.7767 10.6916 20.7189
462 1 -1.1104 9.73088 7.92806 20.6892
610 1 -1.1104 6.58391 5.15062 23.7823
611 1 -1.1104 6.81811 10.6898 23.6026
605 1 -1.1104 6.58628 8.13843 23.3671
615 1 -1.1104 6.83721 5.22145 26.2949
616 1 -1.1104 6.55995 10.8192 26.3791
607 1 -1.1104 6.65121 8.00709 26.2153
633 1 -1.1104 9.48355 10.8026 26.4887
634 1 -1.1104 9.59941 5.16902 26.3581
635 1 -1.1104 9.60085 10.8169 23.624
636 1 -1.1104 9.39417 5.14574 23.675
637 2 2.2208 8.20933 9.2551 22.1273
638 1 -1.1104 9.47151 7.99831 26.4837
639 2 2.2208 8.2738 12.2013 24.9301
640 2 2.2208 8.24937 6.54394 24.8443
641 2 2.2208 10.9327 6.40252 22.0828
642 2 2.2208 10.9893 12.0425 22.2092
643 1 -1.1104 12.221 7.89223 23.6972
644 1 -1.1104 12.3042 7.96869 26.4648
645 1 -1.1104 12.2077 5.203 23.4095
646 1 -1.1104 12.2775 10.7884 23.6666
647 2 2.2208 11.0159 9.41769 25.1198
648 1 -1.1104 12.3257 5.05993 26.0131
649 1 -1.1104 12.4522 10.7771 26.3289
650 1 -1.1104 9.47519 8.00819 23.535
704 1 -1.1104 12.3449 13.5838 23.6213
520 1 -1.1104 12.4081 16.3964 20.8306
667 1 -1.1104 6.77489 13.5176 23.6076
660 1 -1.1104 6.6763 16.4543 26.481
498 1 -1.1104 3.91713 13.605 20.8377
505 1 -1.1104 3.90955 16.4046 20.7524
500 1 -1.1104 3.87305 19.1865 20.7452
479 1 -1.1104 1.24003 13.6021 20.8185
491 1 -1.1104 1.13574 16.3915 20.695
672 2 2.2208 2.47898 17.6925 24.9195
677 1 -1.1104 3.96638 16.5022 23.6472
676 1 -1.1104 1.21097 16.2148 23.4307
671 1 -1.1104 3.85625 19.1739 26.3327
679 2 2.2208 2.59202 14.9304 22.0338
670 2 2.2208 5.49745 17.638 22.1887
669 1 -1.1104 1.08765 13.5638 23.6
678 2 2.2208 2.49715 20.6484 22.1544
673 1 -1.1104 3.7025 16.4193 26.3636
674 1 -1.1104 4.00345 13.7113 26.6388
657 1 -1.1104 3.81646 19.1172 23.5057
659 1 -1.1104 3.96778 13.5996 23.6425
661 1 -1.1104 1.18286 18.9811 26.2648
662 1 -1.1104 0.898655 16.3312 26.4314
663 1 -1.1104 1.21058 13.6177 26.3348
665 2 2.2208 5.27638 20.407 24.8165
666 2 2.2208 5.28644 15.0184 25.1299
668 1 -1.1104 0.996877 19.3218 23.5109
483 1 -1.1104 6.76587 13.6162 20.8757
493 1 -1.1104 6.70235 16.3369 20.7594
702 1 -1.1104 12.3758 13.6726 26.2854
701 1 -1.1104 12.6637 19.2539 26.3656
695 1 -1.1104 9.59763 19.2526 23.475
703 1 -1.1104 12.4028 19.2463 23.6456
689 2 2.2208 8.05971 20.6019 22.0505
688 1 -1.1104 9.7193 16.2343 23.3753
675 1 -1.1104 6.85148 16.2221 23.5333
692 1 -1.1104 9.61025 13.5142 26.2194
700 1 -1.1104 12.4214 16.5155 23.5236
527 1 -1.1104 9.57309 19.1649 20.7083
694 2 2.2208 8.07236 17.8131 25.0862
696 1 -1.1104 9.55292 13.4766 23.494
691 1 -1.1104 9.70657 19.1946 26.4301
664 1 -1.1104 6.75441 19.0048 23.4783
658 1 -1.1104 6.72112 13.5815 26.4166
693 1 -1.1104 6.64565 19.214 26.3744
485 1 -1.1104 6.79086 19.2697 20.7302
532 1 -1.1104 9.39331 16.2955 20.6591
593 2 2.2208 8.13632 3.83126 27.7231
9604 2 2.2208 13.643 3.821 16.4892
626 2 2.2208 5.33842 6.5961 27.6737
9651 2 2.2208 -0.260679 3.95096 13.8495
407 2 2.2208 8.0926 0.863155 13.901
444 2 2.2208 5.34423 9.23416 13.8323
680 2 2.2208 2.43037 20.6484 27.6254
9608 2 2.2208 13.7489 0.954064 13.8052
708 2 2.2208 8.00217 14.9492 27.7865
374 2 2.2208 5.21159 -1.81306 13.9394
707 2 2.2208 11.0868 17.8057 27.7421
652 2 2.2208 8.02227 9.48312 27.6432
714 2 2.2208 5.25846 23.461 5.27672
715 2 2.2208 5.38603 29.0217 5.41321
716 1 -1.1104 0.803838 24.7287 1.02217
717 1 -1.1104 1.07006 24.998 3.9751
718 1 -1.1104 0.916719 21.9175 0.966338
719 1 -1.1104 1.11734 27.6032 1.07525
720 2 2.2208 5.32479 26.1613 2.40559
721 1 -1.1104 1.14743 22.034 3.75811
722 1 -1.1104 0.957243 27.8737 3.8475
723 1 -1.1104 3.84275 24.8427 0.960352
724 2 2.2208 2.54225 23.4218 2.33528
725 2 2.2208 2.45507 29.0677 2.54762
726 1 -1.1104 3.95176 24.7236 3.85174
727 2 2.2208 2.56685 26.2966 5.22425
728 1 -1.1104 3.87545 21.8626 0.927533
729 1 -1.1104 3.9373 27.7451 1.27283
730 1 -1.1104 3.81472 22.0839 3.81438
731 1 -1.1104 3.78585 27.6625 3.88227
1638 1 -1.1104 9.33816 47.1758 9.34623
1276 2 2.2208 2.50385 26.1832 -0.343226
733 2 2.2208 -0.220566 23.4227 5.09869
759 2 2.2208 13.6186 23.472 2.56024
1047 2 2.2208 5.25167 29.031 -0.335183
739 1 -1.1104 6.75498 21.8511 3.85756
10201 2 2.2208 -0.148263 34.5307 10.894
860 1 -1.1104 6.88927 27.6362 6.66404
862 1 -1.1104 3.96066 21.993 6.56872
1125 2 2.2208 7.98102 23.4736 13.6978
1058 2 2.2208 10.7845 34.6551 -0.239919
740 1 -1.1104 6.52681 27.5961 3.80785
737 1 -1.1104 6.78494 21.9782 0.973032
738 1 -1.1104 6.8381 27.476 0.999055
735 1 -1.1104 6.61097 24.5957 1.0833
736 1 -1.1104 6.6747 24.7325 3.85236
741 2 2.2208 10.8291 23.4137 5.35282
742 2 2.2208 10.8328 28.897 5.22067
743 1 -1.1104 12.325 24.8654 1.13998
744 1 -1.1104 12.2875 24.6779 3.94855
745 1 -1.1104 12.5098 22.0693 1.00185
746 1 -1.1104 12.4944 27.5662 1.16385
747 2 2.2208 10.8357 26.0655 2.48224
748 1 -1.1104 12.2291 21.9602 3.86177
749 1 -1.1104 12.2385 27.3828 4.07723
750 1 -1.1104 9.43846 24.7535 0.955736
751 2 2.2208 8.06868 23.3175 2.47289
752 2 2.2208 8.21413 29.0444 2.43801
753 1 -1.1104 9.48991 24.8054 3.99978
754 2 2.2208 7.92573 26.2121 5.21089
755 1 -1.1104 9.65702 21.9981 0.971249
756 1 -1.1104 9.65693 27.5988 1.07648
757 1 -1.1104 9.43488 22.0062 3.76487
758 1 -1.1104 9.31956 27.5628 3.75997
1060 2 2.2208 2.53623 43.0584 -0.281235
1056 2 2.2208 7.97199 31.828 -0.36117
1096 2 2.2208 2.58257 29.0715 13.5124
1021 1 -1.1104 12.4181 38.7537 6.76142
1026 1 -1.1104 12.4232 41.557 9.45352
1020 1 -1.1104 12.3653 41.6447 6.74715
762 2 2.2208 5.292 34.5278 5.28423
763 1 -1.1104 1.09221 30.4578 1.01649
764 1 -1.1104 1.17315 35.9752 1.07461
766 1 -1.1104 1.08002 30.4981 3.91232
767 1 -1.1104 1.21784 36.0155 3.94622
769 1 -1.1104 1.05097 33.1992 1.16169
770 2 2.2208 5.36539 31.696 2.52479
771 2 2.2208 5.31718 37.4753 2.51943
772 1 -1.1104 1.25746 33.2665 4.10936
774 1 -1.1104 3.99335 30.363 1.09479
775 1 -1.1104 3.85083 35.9805 1.10729
776 2 2.2208 2.67824 34.5551 2.57647
777 1 -1.1104 3.67881 30.3713 3.98528
778 1 -1.1104 4.04967 35.8415 3.79097
779 2 2.2208 2.49934 31.7712 5.37494
780 2 2.2208 2.50661 37.4843 5.36586
781 1 -1.1104 3.7976 33.1532 1.10518
782 1 -1.1104 4.05439 33.0769 3.91017
1052 2 2.2208 5.34811 34.5884 -0.299076
10161 2 2.2208 13.824 37.5642 11.1193
1057 2 2.2208 5.12503 45.8989 -0.274095
765 1 -1.1104 6.61036 35.8364 1.19924
787 1 -1.1104 6.73861 30.382 3.91215
834 2 2.2208 -0.231698 40.3549 5.24544
1051 2 2.2208 2.43527 31.892 -0.347287
1055 2 2.2208 8.16547 37.485 -0.313424
1037 2 2.2208 10.9569 40.17 -0.300126
788 1 -1.1104 6.72975 33.1061 0.948844
773 1 -1.1104 6.65759 33.2669 3.92477
768 1 -1.1104 6.63323 35.9976 3.91651
786 1 -1.1104 6.70821 30.3325 1.12389
789 2 2.2208 11.171 34.6578 5.23041
790 1 -1.1104 12.5024 30.2966 1.02997
791 1 -1.1104 12.2531 36.0527 1.03437
792 1 -1.1104 12.327 30.1681 3.82329
793 1 -1.1104 12.4972 35.8956 3.85389