ITEM: TIMESTEP
90000
ITEM: NUMBER OF ATOMS
17910
ITEM: BOX BOUNDS pp pp pp
-3.9688804561791052e-01 2.7736888045618052e+01
-4.7842549507790801e+00 3.3286425495077827e+02
-3.8563406106967935e-01 2.7725634061069563e+01
ITEM: ATOMS id type q x y z
1 2 2.2208 5.31639 0.752309 5.00475
2 1 -1.1104 0.964238 -3.11396 0.771104
3 1 -1.1104 0.832957 2.27831 0.947076
6 1 -1.1104 0.855204 -3.348 3.59357
7 1 -1.1104 0.926245 2.37239 3.63031
10 1 -1.1104 0.917288 -0.485195 0.746517
12 2 2.2208 5.1905 -1.81838 2.23654
14 1 -1.1104 1.08625 -0.666913 3.41155
16 1 -1.1104 3.6058 -3.44793 0.805062
17 1 -1.1104 3.77051 2.1701 0.7488
18 2 2.2208 2.26749 0.888674 2.06848
19 1 -1.1104 3.93232 -3.12789 3.78901
20 1 -1.1104 3.8043 2.19044 3.58314
21 2 2.2208 2.31084 -1.85765 5.11639
23 1 -1.1104 3.7748 -0.701205 0.81306
24 1 -1.1104 3.90402 -0.443111 3.61597
13 2 2.2208 5.2145 3.65959 2.12515
22 2 2.2208 2.51038 3.56583 4.93519
170 1 -1.1104 0.830658 -0.549548 6.41469
4 1 -1.1104 6.58099 -3.33497 0.788062
11 1 -1.1104 6.53222 -0.497812 0.709315
15 1 -1.1104 6.65096 -0.478316 3.48378
171 1 -1.1104 6.66695 -0.558194 6.43711
169 1 -1.1104 6.46825 2.13677 6.56542
373 2 2.2208 2.2033 -4.66283 13.5599
444 2 2.2208 5.09286 9.35192 13.2969
172 1 -1.1104 3.81192 -3.25492 6.60046
174 1 -1.1104 3.72976 -0.533321 6.49372
167 1 -1.1104 0.860823 2.09177 6.50426
166 1 -1.1104 0.938566 -3.21803 6.40555
173 1 -1.1104 3.83082 2.27299 6.44438
233 2 2.2208 13.5084 -4.7861 8.00711
323 1 -1.1104 12.1702 16.5447 9.22188
8 1 -1.1104 6.71097 -3.40543 3.66553
320 2 2.2208 7.91569 17.6979 7.72281
5 1 -1.1104 6.52104 2.28248 0.762277
321 1 -1.1104 9.37124 19.1948 11.9068
9 1 -1.1104 6.68192 2.27503 3.54281
31 2 2.2208 10.8168 0.825866 5.08487
32 1 -1.1104 12.1341 -3.24918 0.947748
33 1 -1.1104 12.1545 2.25993 1.04308
34 1 -1.1104 12.2207 -3.55288 3.54879
35 1 -1.1104 12.1345 2.25554 3.68272
36 1 -1.1104 12.236 -0.417249 0.946844
37 2 2.2208 10.8254 -1.85756 2.16059
39 1 -1.1104 12.1741 -0.587922 3.85784
40 1 -1.1104 9.36564 -3.29589 0.923288
41 1 -1.1104 9.4388 2.28169 0.853649
42 2 2.2208 8.0938 0.907569 2.12844
43 1 -1.1104 9.49216 -3.34305 3.60126
44 1 -1.1104 9.42761 2.20549 3.7115
45 2 2.2208 8.0438 -2.03169 4.97351
46 2 2.2208 7.90231 3.74838 5.05957
47 1 -1.1104 9.34753 -0.473492 0.784099
48 1 -1.1104 9.25277 -0.665924 3.66739
38 2 2.2208 10.6632 3.63115 2.15015
205 1 -1.1104 12.197 -3.27044 6.63763
206 1 -1.1104 12.0823 2.27197 6.39986
9491 2 2.2208 13.4624 12.0555 7.69946
168 1 -1.1104 6.5681 -3.30899 6.55982
208 1 -1.1104 9.3092 -3.33749 6.60004
210 1 -1.1104 9.47824 -0.602267 6.51675
105 2 2.2208 13.379 6.50971 2.15586
203 2 2.2208 5.0978 -4.7417 10.8909
296 1 -1.1104 6.42303 18.849 12.184
49 2 2.2208 13.536 0.985491 2.35333
54 2 2.2208 5.28948 6.5998 5.09139
55 2 2.2208 5.05587 12.133 4.90837
56 1 -1.1104 0.779576 7.89072 0.969298
58 1 -1.1104 0.808152 7.88246 3.75385
60 1 -1.1104 0.943069 5.0376 1.01762
61 1 -1.1104 0.768627 10.7796 0.767012
66 2 2.2208 5.13043 9.38526 2.05444
67 1 -1.1104 0.982571 5.20708 3.58212
68 1 -1.1104 0.907849 10.5815 3.68772
71 1 -1.1104 3.42638 7.94324 0.75481
72 2 2.2208 2.21297 6.50569 2.1958
73 2 2.2208 2.20572 12.1549 2.21729
74 1 -1.1104 3.62544 7.77226 3.49366
75 2 2.2208 2.36758 9.17621 4.88315
76 1 -1.1104 3.62715 5.16678 0.813046
77 1 -1.1104 3.7776 10.774 0.704254
79 1 -1.1104 3.96165 4.99622 3.78389
80 1 -1.1104 3.72229 10.6699 3.39737
238 1 -1.1104 3.91046 7.89568 6.33593
239 1 -1.1104 3.87138 5.17855 6.39171
59 1 -1.1104 6.35821 8.02524 3.5256
57 1 -1.1104 6.44432 7.9072 0.833066
64 1 -1.1104 6.62298 10.7161 0.757974
234 1 -1.1104 1.21861 8.01295 6.57365
78 1 -1.1104 3.64207 10.4558 6.24665
63 1 -1.1104 6.60489 5.07968 0.932775
237 1 -1.1104 6.83801 5.0603 6.41481
236 1 -1.1104 0.93542 4.94425 6.50515
319 1 -1.1104 9.25047 13.2604 9.04221
318 1 -1.1104 9.35401 19.1201 9.09281
375 2 2.2208 2.386 0.889704 13.5097
70 1 -1.1104 6.66608 10.8538 3.42983
69 1 -1.1104 6.75646 5.19885 3.5935
84 2 2.2208 10.8015 6.49801 4.92515
85 2 2.2208 10.71 12.0946 4.95864
86 1 -1.1104 12.1376 7.87527 0.653761
87 1 -1.1104 11.9122 7.92137 3.46458
88 1 -1.1104 12.174 5.01776 0.74248
89 1 -1.1104 12.2237 10.5972 0.637853
91 2 2.2208 10.991 9.41679 2.08316
92 1 -1.1104 12.3813 5.05722 3.45728
93 1 -1.1104 12.1797 10.7024 3.61795
94 1 -1.1104 9.31328 7.91183 0.779432
95 2 2.2208 8.03739 6.57322 2.27949
96 2 2.2208 8.00456 12.147 2.13885
97 1 -1.1104 9.42035 8.22878 3.55312
98 2 2.2208 7.96146 9.43098 4.94947
99 1 -1.1104 9.45813 5.10428 0.831342
100 1 -1.1104 9.32489 10.7192 0.688923
102 1 -1.1104 9.40481 5.16898 3.48792
103 1 -1.1104 9.47888 10.8404 3.44388
65 1 -1.1104 6.59833 10.5689 6.42659
266 1 -1.1104 12.3085 5.08563 6.2229
267 1 -1.1104 9.40195 7.86573 6.54246
101 1 -1.1104 9.49667 10.6437 6.39548
235 1 -1.1104 6.74903 7.85164 6.44796
265 1 -1.1104 12.232 7.8176 6.33357
269 1 -1.1104 9.63094 5.14142 6.39597
9308 2 2.2208 13.6755 9.45701 4.98847
106 2 2.2208 5.04355 17.7884 5.06968
107 1 -1.1104 0.940215 13.4247 0.738738
109 1 -1.1104 0.835712 19.2124 0.921901
113 1 -1.1104 0.746957 13.3849 3.53032
114 1 -1.1104 0.751172 19.1851 3.61654
116 1 -1.1104 1.00429 16.3406 0.750075
119 2 2.2208 5.29965 14.8025 2.10935
120 2 2.2208 5.40205 20.5743 2.25976
121 1 -1.1104 0.965152 16.2604 3.7086
123 1 -1.1104 4.04577 13.5773 0.711395
125 1 -1.1104 3.64337 19.1331 0.701012
127 2 2.2208 2.37679 17.7396 2.1486
128 1 -1.1104 3.65625 13.6507 3.51527
129 1 -1.1104 3.89647 18.9715 3.52281
130 2 2.2208 2.31167 14.8375 4.90534
131 2 2.2208 2.06887 20.6765 5.06039
132 1 -1.1104 3.68302 16.2135 0.908846
134 1 -1.1104 3.72411 16.3884 3.68008
124 1 -1.1104 3.68749 13.3575 6.26338
133 1 -1.1104 3.78832 16.3268 6.47363
108 1 -1.1104 0.922673 13.4033 6.49689
302 1 -1.1104 0.850826 19.1393 6.42364
138 1 -1.1104 6.55435 19.1815 0.898114
115 1 -1.1104 6.38765 13.529 3.47547
140 1 -1.1104 6.49057 16.2834 0.825529
118 1 -1.1104 6.38689 16.1874 6.20842
112 1 -1.1104 6.54184 19.0084 6.43851
126 1 -1.1104 3.71078 19.2479 6.35492
117 1 -1.1104 1.03116 16.2044 6.42741
329 1 -1.1104 12.2741 19.1315 11.8422
409 2 2.2208 10.5911 3.65917 13.629
111 1 -1.1104 6.52898 13.5465 6.28093
139 1 -1.1104 7.01609 19.2148 3.70206
122 1 -1.1104 6.45504 16.4319 3.60455
110 1 -1.1104 6.93263 13.3915 0.625313
141 2 2.2208 10.8266 17.6349 5.00603
142 1 -1.1104 12.2446 13.454 0.795141
144 1 -1.1104 12.0499 19.2027 0.749408
146 1 -1.1104 12.1837 13.5457 3.5842
147 1 -1.1104 12.3967 19.1416 3.40508
148 1 -1.1104 12.2506 16.3884 0.681592
150 2 2.2208 10.747 14.9621 2.27121
151 2 2.2208 10.7974 20.5634 2.18197
152 1 -1.1104 12.0685 16.2804 3.72724
153 1 -1.1104 9.47697 13.7032 0.826143
155 1 -1.1104 9.2726 19.0926 0.748099
157 2 2.2208 7.98861 17.6738 2.16235
158 1 -1.1104 9.28597 13.3385 3.83301
159 1 -1.1104 9.68334 18.9233 3.51535
160 2 2.2208 7.86377 14.7455 5.06901
161 2 2.2208 8.04284 20.5514 5.16704
162 1 -1.1104 9.45181 16.3487 0.72057
164 1 -1.1104 9.22146 16.1844 3.40525
163 1 -1.1104 9.42559 16.3637 6.33142
143 1 -1.1104 12.0775 13.5337 6.36837
154 1 -1.1104 9.23148 13.4582 6.54924
149 1 -1.1104 12.195 16.3644 6.51077
52 2 2.2208 10.8034 -4.76993 5.10578
324 2 2.2208 10.7452 20.7606 7.7482
145 1 -1.1104 12.005 19.1374 6.24956
156 1 -1.1104 9.35337 19.2785 6.50062
9682 2 2.2208 13.438 12.0292 13.4181
9608 2 2.2208 13.5338 0.974573 13.5276
28 2 2.2208 2.33891 -4.68878 2.44933
536 2 2.2208 13.5826 17.7139 13.5299
314 1 -1.1104 9.33614 16 9.2843
175 2 2.2208 5.17327 0.767512 10.7161
176 1 -1.1104 0.900884 -3.41305 11.9825
177 1 -1.1104 0.874478 2.30539 11.9616
180 1 -1.1104 0.863466 -3.30797 9.29506
181 1 -1.1104 0.824156 2.28947 9.15405
184 1 -1.1104 0.944937 -0.425987 12.1023
186 2 2.2208 5.21626 -1.92016 7.8213
188 1 -1.1104 0.796188 -0.558864 9.31261
190 1 -1.1104 3.74087 -3.3754 12.2631
191 1 -1.1104 3.76172 2.26882 11.8779
192 2 2.2208 2.23882 0.923782 7.91462
193 1 -1.1104 3.70962 -3.23522 9.41662
194 1 -1.1104 3.58238 2.12157 9.33462
195 2 2.2208 2.33548 -1.96677 10.706
197 1 -1.1104 3.77616 -0.542177 12.0743
198 1 -1.1104 3.65449 -0.458107 9.09977
187 2 2.2208 5.00419 3.59172 7.87976
196 2 2.2208 2.33312 3.65501 10.6168
185 1 -1.1104 6.48833 -0.625414 12.1966
189 1 -1.1104 6.48601 -0.604721 9.26297
179 1 -1.1104 6.80775 2.15084 12.0806
182 1 -1.1104 6.47297 -3.3556 9.35654
376 2 2.2208 5.16878 3.75983 13.4287
183 1 -1.1104 6.51797 2.25688 9.33706
178 1 -1.1104 6.58528 -3.36608 12.2169
289 1 -1.1104 6.60406 16.2966 9.11295
374 2 2.2208 4.93913 -1.84314 13.5523
316 2 2.2208 7.94063 20.5522 10.648
331 2 2.2208 10.6552 17.699 10.5953
443 2 2.2208 2.30268 6.49299 13.4578
51 2 2.2208 7.93817 -4.75938 2.29805
207 1 -1.1104 12.3667 -0.540306 6.53588
209 1 -1.1104 9.38652 2.26877 6.43106
211 2 2.2208 10.7766 0.65585 10.7446
212 1 -1.1104 11.9569 -3.46569 12.2819
213 1 -1.1104 12.1541 2.3294 12.2656
214 1 -1.1104 11.9507 -3.38629 9.375
215 1 -1.1104 12.1971 2.17265 9.30457
216 1 -1.1104 12.2451 -0.501184 12.1577
217 2 2.2208 10.9127 -2.00326 7.89176
219 1 -1.1104 12.1468 -0.632612 9.37278
220 1 -1.1104 9.17741 -3.44904 12.453
221 1 -1.1104 9.47074 2.179 11.9733
222 2 2.2208 7.89529 0.792092 7.87278
223 1 -1.1104 9.34157 -3.41869 9.52237
224 1 -1.1104 9.45984 2.27932 9.24824
225 2 2.2208 7.91302 -1.94602 10.8214
227 1 -1.1104 9.24637 -0.515522 11.9152
228 1 -1.1104 9.43633 -0.465024 9.21109
226 2 2.2208 8.04933 3.47839 10.7244
218 2 2.2208 10.6067 3.54329 7.84973
332 2 2.2208 13.4562 17.939 7.74892
290 1 -1.1104 6.46055 13.3409 9.17015
9377 2 2.2208 13.5352 14.9872 5.02363
317 2 2.2208 7.94089 14.7679 10.5558
326 1 -1.1104 12.2885 16.3016 12.0174
104 2 2.2208 13.6209 12.0442 2.04708
322 1 -1.1104 9.19192 13.4488 11.9208
534 2 2.2208 10.8197 14.9639 13.3125
325 2 2.2208 10.7333 14.9388 7.89022
62 1 -1.1104 0.823137 10.6602 6.4414
445 2 2.2208 2.39029 12.201 13.2828
240 2 2.2208 5.20794 6.45107 10.4907
241 2 2.2208 5.1245 12.2321 10.7012
242 1 -1.1104 0.914131 8.05294 11.9838
244 1 -1.1104 0.877254 7.85115 9.19957
246 1 -1.1104 0.953999 5.18927 11.9847
247 1 -1.1104 0.865504 10.6427 11.8968
250 2 2.2208 5.26048 9.20935 7.86047
251 1 -1.1104 0.922145 5.1711 9.19785
252 1 -1.1104 0.844305 10.809 9.18798
255 1 -1.1104 3.64144 7.90696 11.9774
256 2 2.2208 2.37937 6.5156 7.68549
257 2 2.2208 2.25066 11.9114 7.67357
258 1 -1.1104 3.74898 7.72534 9.18273
259 2 2.2208 2.33395 9.20925 10.5305
260 1 -1.1104 3.69131 4.97782 11.9356
261 1 -1.1104 3.68269 10.7258 12.0074
262 1 -1.1104 3.69443 4.91527 9.26513
263 1 -1.1104 3.64693 10.5276 9.2314
248 1 -1.1104 6.34412 5.15646 11.9807
249 1 -1.1104 6.51555 10.8075 11.7931
245 1 -1.1104 6.5501 7.77907 9.16847
253 1 -1.1104 6.56269 5.02238 9.09762
254 1 -1.1104 6.47237 10.5414 9.32138
9677 2 2.2208 13.3811 6.39797 13.4222
535 2 2.2208 8.10044 17.5874 13.4269
533 2 2.2208 10.8203 20.6993 13.2861
328 1 -1.1104 12.2658 13.435 9.19427
327 1 -1.1104 12.126 19.1921 9.04677
53 2 2.2208 13.58 -4.81145 2.2553
315 1 -1.1104 9.34268 16.2237 12.1307
472 2 2.2208 8.02541 12.0724 13.4259
470 2 2.2208 7.75603 6.58523 13.3447
243 1 -1.1104 6.48742 7.92646 11.9798
471 2 2.2208 10.6172 9.25943 13.4904
90 1 -1.1104 12.1898 10.7164 6.27992
264 1 -1.1104 9.31023 10.5114 9.18219
268 1 -1.1104 9.21656 4.94997 9.37724
270 1 -1.1104 9.34885 10.6351 11.9456
271 1 -1.1104 9.24261 4.94253 12.2213
272 2 2.2208 7.8655 9.28478 10.6021
273 1 -1.1104 9.36439 7.75284 9.25613
274 2 2.2208 7.91126 11.8387 7.8581
275 2 2.2208 7.98501 6.45815 7.82824
276 2 2.2208 10.7693 6.18063 10.6433
277 2 2.2208 10.6747 11.807 10.5111
278 1 -1.1104 11.8924 7.73026 12.0619
279 1 -1.1104 12.1877 7.7686 9.1577
280 1 -1.1104 12.081 4.93913 12.1366
281 1 -1.1104 12.0714 10.7406 11.9915
282 2 2.2208 10.9415 9.1413 7.78098
283 1 -1.1104 12.2311 4.9837 9.2389
284 1 -1.1104 12.1941 10.5682 9.23427
285 1 -1.1104 9.19988 7.87391 12.0342
9495 2 2.2208 13.553 9.19394 10.669
330 1 -1.1104 11.8852 13.4708 12.0855
306 1 -1.1104 6.38948 16.1609 11.8619
506 2 2.2208 2.34513 17.7068 13.3952
288 1 -1.1104 6.58965 19.2879 9.46678
507 2 2.2208 5.1381 20.3884 13.2844
286 1 -1.1104 3.67483 19.1078 11.8931
287 1 -1.1104 3.81526 13.5212 11.9776
291 1 -1.1104 1.03665 19.1372 9.20438
292 1 -1.1104 0.854393 16.2751 9.28968
293 2 2.2208 5.14151 20.4804 7.914
294 1 -1.1104 1.05052 13.5171 9.12924
295 2 2.2208 5.09868 14.798 7.70273
298 1 -1.1104 1.07218 19.1774 11.9591
299 1 -1.1104 1.05107 13.5074 11.9897
300 2 2.2208 5.10429 17.618 10.58
301 1 -1.1104 3.72 19.0128 9.096
303 2 2.2208 2.42335 17.6291 7.91264
304 1 -1.1104 3.66096 16.1021 9.3071
305 1 -1.1104 3.69367 13.4099 9.13116
307 1 -1.1104 0.898405 16.3504 12.0253
308 1 -1.1104 3.5494 16.4434 11.9499
309 2 2.2208 2.36469 20.6196 10.5765
310 2 2.2208 2.31175 14.9269 10.4992
297 1 -1.1104 6.53264 13.5467 12.0579
508 2 2.2208 5.10284 14.9644 13.5578
333 2 2.2208 13.7004 14.9464 10.4996
232 2 2.2208 10.7199 -4.7625 10.8139
29 2 2.2208 5.19397 -4.68766 5.27154
231 2 2.2208 7.93807 -4.69544 8.18224
9414 2 2.2208 13.4598 3.63602 10.6649
9356 2 2.2208 13.3978 20.6374 4.93001
9279 2 2.2208 13.5851 3.65937 5.08334
50 2 2.2208 13.5907 -2.00808 5.21981
9651 2 2.2208 -0.248874 3.70608 13.3917
230 2 2.2208 13.4341 -2.04946 10.8728
313 2 2.2208 -0.316819 14.9309 7.78175
81 2 2.2208 -0.441331 6.46159 5.16559
311 2 2.2208 -0.282762 20.4459 7.83197
202 2 2.2208 2.33002 -4.65328 7.89353
407 2 2.2208 7.92913 0.870285 13.5174
334 2 2.2208 5.0028 0.752648 16.3052
335 1 -1.1104 0.844704 -3.22253 17.776
336 1 -1.1104 0.89244 2.32801 17.6636
339 1 -1.1104 0.797117 -3.26201 14.869
341 1 -1.1104 0.888985 2.50406 15.0475
347 1 -1.1104 0.655395 -0.514381 17.822
349 2 2.2208 5.16988 -2.02903 19.1478
351 1 -1.1104 0.660551 -0.518181 15.0518
355 1 -1.1104 3.52227 -3.29321 17.719
356 1 -1.1104 3.6167 2.22507 17.8517
357 2 2.2208 2.17971 0.758071 19.2413
358 1 -1.1104 3.59128 -3.19019 15.0614
360 1 -1.1104 3.62524 2.26637 14.8584
362 2 2.2208 2.18949 -1.80301 16.4338
364 1 -1.1104 3.56302 -0.52345 17.7767
365 1 -1.1104 3.48407 -0.459349 14.9993
363 2 2.2208 2.31368 3.62596 16.3393
350 2 2.2208 5.07572 3.71791 18.9248
348 1 -1.1104 6.42425 -0.6125 17.6793
353 1 -1.1104 6.53319 -0.529016 15.0341
343 1 -1.1104 6.38918 -3.32395 15.0453
361 1 -1.1104 3.84603 2.43764 20.4708
366 1 -1.1104 3.74968 -0.483769 20.4144
346 1 -1.1104 6.60443 1.94723 20.4868
354 1 -1.1104 6.65154 -0.729136 20.5843
345 1 -1.1104 6.45125 2.22596 14.9869
342 1 -1.1104 0.901302 2.11039 20.6461
340 1 -1.1104 0.797668 -3.56629 20.626
706 2 2.2208 7.92566 20.6265 27.452
712 2 2.2208 13.5067 17.7166 24.6894
698 2 2.2208 10.8546 20.5264 24.8054
562 2 2.2208 2.31538 -1.86613 27.6225
338 1 -1.1104 6.51645 2.27376 17.8071
337 1 -1.1104 6.43663 -3.35936 17.9124
377 2 2.2208 10.7404 0.751519 16.2806
378 1 -1.1104 12.2236 -3.27685 17.8713
379 1 -1.1104 12.1018 2.12902 17.7533
380 1 -1.1104 12.0643 -3.39311 15.1156
382 1 -1.1104 12.0144 2.2807 14.9168
384 1 -1.1104 12.1402 -0.727238 17.6198
385 2 2.2208 10.8172 -1.92947 19.0503
387 1 -1.1104 12.1826 -0.55181 14.8233
389 1 -1.1104 9.30151 -3.44385 17.8078
390 1 -1.1104 9.33405 2.15483 17.8283
391 2 2.2208 7.96589 0.778861 19.073
392 1 -1.1104 9.14828 -3.25977 15.0706
394 1 -1.1104 9.22195 2.24475 14.7208
396 2 2.2208 7.86963 -1.94592 16.4842
398 1 -1.1104 9.3319 -0.590583 17.4938
399 1 -1.1104 9.36831 -0.623504 14.7507
397 2 2.2208 7.75854 3.65052 16.3722
386 2 2.2208 10.834 3.72002 19.1026
393 1 -1.1104 9.18032 -3.18365 20.4728
395 1 -1.1104 9.50933 2.14678 20.603
406 2 2.2208 13.5772 -4.58568 13.7577
561 2 2.2208 5.12611 0.861745 27.5845
400 1 -1.1104 9.41686 -0.549739 20.4317
568 2 2.2208 2.32355 -4.69473 24.6676
9748 2 2.2208 13.4859 14.833 16.3268
405 2 2.2208 13.6357 -1.92606 16.3885
591 2 2.2208 10.8303 0.769466 27.5109
410 2 2.2208 5.08498 6.55492 16.1892
411 2 2.2208 5.08361 12.0476 16.3553
412 1 -1.1104 0.869485 7.8119 17.7799
414 1 -1.1104 0.843712 7.79111 14.8487
418 1 -1.1104 0.917529 5.08223 17.6677
419 1 -1.1104 0.731294 10.6959 17.4815
422 2 2.2208 5.07098 9.32771 18.9954
423 1 -1.1104 0.957052 5.11795 14.8784
425 1 -1.1104 1.14638 10.6358 14.5913
431 1 -1.1104 3.69689 7.86869 17.5249
432 2 2.2208 2.35837 6.4346 19.0013
433 2 2.2208 2.38257 11.9321 19.0682
434 1 -1.1104 3.57772 7.88522 14.7963
436 2 2.2208 2.29023 9.37262 16.1029
437 1 -1.1104 3.76559 5.03474 17.585
438 1 -1.1104 3.59176 10.7905 17.6801
439 1 -1.1104 3.77094 5.12858 14.8691
441 1 -1.1104 3.83271 10.7763 14.9187
416 1 -1.1104 6.39204 7.94548 14.8298
426 1 -1.1104 0.917731 10.6776 20.463
424 1 -1.1104 0.923463 5.0668 20.5277
440 1 -1.1104 3.45106 5.13079 20.4705
420 1 -1.1104 6.43653 5.03128 17.6875
421 1 -1.1104 6.43039 10.6265 17.5541
427 1 -1.1104 6.4026 4.99512 14.9261
429 1 -1.1104 6.47537 10.6658 14.781
428 1 -1.1104 6.39482 4.81692 20.5149
435 1 -1.1104 3.75812 8.16151 20.3368
415 1 -1.1104 0.976751 7.81953 20.5853
442 1 -1.1104 3.82729 10.892 20.5678
417 1 -1.1104 6.50132 7.81188 20.2495
430 1 -1.1104 6.42416 10.6149 20.3446
688 1 -1.1104 9.23695 16.1908 23.3582
413 1 -1.1104 6.55679 7.81331 17.6463
446 2 2.2208 10.8638 6.49289 16.2355
447 2 2.2208 10.7075 12.1452 16.252
448 1 -1.1104 12.2796 7.59631 17.6301
449 1 -1.1104 12.0674 7.89671 14.7629
451 1 -1.1104 12.2552 4.87844 17.7311
452 1 -1.1104 12.1278 10.5292 17.5504
453 2 2.2208 10.7141 9.27707 18.9477
454 1 -1.1104 11.8865 4.98169 15.0263
456 1 -1.1104 12.0768 10.687 14.7657
458 1 -1.1104 9.27685 7.90049 17.6359
459 2 2.2208 7.84039 6.42906 19.0461
460 2 2.2208 7.90815 12.0635 18.9082
461 1 -1.1104 9.31803 7.81141 14.8689
463 2 2.2208 7.87639 9.17836 16.2918
464 1 -1.1104 9.21979 4.99864 17.5348
465 1 -1.1104 9.31054 10.625 17.5011
466 1 -1.1104 9.11004 5.002 14.9385
468 1 -1.1104 9.40284 10.6611 14.8749
462 1 -1.1104 9.27955 7.81283 20.2216
455 1 -1.1104 12.172 5.09088 20.618
469 1 -1.1104 9.1505 10.5321 20.1927
467 1 -1.1104 9.11755 5.07145 20.3792
457 1 -1.1104 11.8635 10.744 20.3641
450 1 -1.1104 12.1301 7.85417 20.3066
473 2 2.2208 5.2102 17.7898 16.1778
474 1 -1.1104 0.862042 13.4024 17.7206
475 1 -1.1104 1.01402 19.0145 17.5121
478 1 -1.1104 1.07712 13.7704 14.7513
480 1 -1.1104 0.871375 19.2187 14.7916
486 1 -1.1104 0.781776 16.0454 17.471
488 2 2.2208 5.12072 14.9224 18.9941
489 2 2.2208 5.1948 20.5573 19.0565
490 1 -1.1104 1.03879 16.4926 14.8781
494 1 -1.1104 3.75715 13.491 17.6799
495 1 -1.1104 3.72746 19.2385 17.4415
496 2 2.2208 2.42638 17.7241 19.035
497 1 -1.1104 3.82551 13.4908 14.8806
499 1 -1.1104 3.79376 19.0446 14.5994
501 2 2.2208 2.34169 14.9211 16.2225
502 2 2.2208 2.32265 20.3801 16.0518
503 1 -1.1104 3.77266 16.4507 17.8095
504 1 -1.1104 3.69714 16.2394 14.9339
500 1 -1.1104 3.64698 19.063 20.4245
481 1 -1.1104 0.777941 19.2491 20.4577
505 1 -1.1104 3.74841 16.3359 20.5275
491 1 -1.1104 0.837907 16.3356 20.2548
498 1 -1.1104 3.542 13.4589 20.329
484 1 -1.1104 6.67606 19.0433 14.828
477 1 -1.1104 6.71191 19.1018 17.5402
493 1 -1.1104 6.58059 16.3399 20.5381
492 1 -1.1104 6.71187 16.2472 14.529
487 1 -1.1104 6.53228 16.2442 17.4875
479 1 -1.1104 0.841387 13.3133 20.6698
691 1 -1.1104 9.36295 19.2414 25.9859
700 1 -1.1104 12.1204 16.3203 23.25
476 1 -1.1104 6.59298 13.4155 17.6584
482 1 -1.1104 6.79382 13.5696 14.8586
509 2 2.2208 10.765 17.8431 16.2165
510 1 -1.1104 12.2352 13.2868 17.7147
511 1 -1.1104 12.0644 19.1027 17.529
512 1 -1.1104 12.0699 13.5304 14.8471
514 1 -1.1104 12.1027 19.32 14.8484
516 1 -1.1104 12.114 16.3936 17.7363
517 2 2.2208 10.8443 14.9301 18.9858
518 2 2.2208 10.7817 20.4567 19.0723
519 1 -1.1104 12.0405 16.5059 14.8836
521 1 -1.1104 9.41395 13.5887 17.6088
522 1 -1.1104 9.38081 19.2132 17.6319
523 2 2.2208 7.96359 17.7104 18.9136
524 1 -1.1104 9.38744 13.4378 14.717
526 1 -1.1104 9.33908 19.1807 14.8813
528 2 2.2208 7.98309 14.9839 16.0615
529 2 2.2208 7.87573 20.6036 16.1163
530 1 -1.1104 9.37103 16.2885 17.756
531 1 -1.1104 9.48453 16.34 14.8105
520 1 -1.1104 12.2965 16.415 20.4658
483 1 -1.1104 6.46053 13.2808 20.1922
485 1 -1.1104 6.53769 19.0788 20.3333
527 1 -1.1104 9.38509 19.1914 20.4818
525 1 -1.1104 9.47861 13.339 20.2856
532 1 -1.1104 9.44054 16.2883 20.663
513 1 -1.1104 12.1589 13.5141 20.4995
515 1 -1.1104 12.0494 19.0825 20.3333
402 2 2.2208 10.8753 -4.82741 16.3668
692 1 -1.1104 9.1981 13.3888 26.1084
652 2 2.2208 8.10826 9.22431 27.3306
352 1 -1.1104 0.783053 -0.575063 20.5782
359 1 -1.1104 3.6612 -3.24894 20.4392
537 2 2.2208 5.12828 0.723713 21.8298
538 1 -1.1104 0.977894 -3.31913 23.274
539 1 -1.1104 0.958747 2.19025 23.368
542 1 -1.1104 1.01104 -3.33942 26.0429
543 1 -1.1104 0.747643 2.15251 26.1656
546 1 -1.1104 0.881518 -0.579861 23.3787
548 2 2.2208 5.06579 -2.08571 24.7593
549 2 2.2208 5.10645 3.79126 24.8402
550 1 -1.1104 0.886758 -0.48673 26.2387
552 1 -1.1104 3.83131 -3.24174 23.2492
553 1 -1.1104 3.75747 2.49185 23.4073
554 2 2.2208 2.3788 0.852541 24.7968
555 1 -1.1104 3.5965 -3.36345 26.2306
556 1 -1.1104 3.69059 2.46949 26.1218
557 2 2.2208 2.15032 -2.08984 21.8325
559 1 -1.1104 3.51112 -0.530659 23.2639
560 1 -1.1104 3.73105 -0.461802 26.0642
558 2 2.2208 2.28784 3.68687 21.928
547 1 -1.1104 6.47641 -0.77133 23.3299
551 1 -1.1104 6.65542 -0.690831 26.0168
541 1 -1.1104 6.45447 2.18535 23.3515
9751 2 2.2208 13.5931 20.5412 16.1718
566 2 2.2208 4.94205 -4.69785 27.6006
626 2 2.2208 5.04077 6.65961 27.6266
684 2 2.2208 -0.378606 17.7536 27.4851
695 1 -1.1104 9.42334 18.9281 23.1548
694 2 2.2208 7.88485 17.9399 24.5988
344 1 -1.1104 6.42836 -3.56905 20.5104
597 2 2.2208 7.7378 -4.75764 24.7729
9811 2 2.2208 13.5539 3.64007 21.7914
563 2 2.2208 2.3106 3.64255 27.5571
9610 2 2.2208 13.5864 0.796231 19.1301
544 1 -1.1104 6.35115 -3.49351 26.1418
545 1 -1.1104 6.53347 2.31078 26.1847
540 1 -1.1104 6.70369 -3.31151 23.4958
383 1 -1.1104 12.3609 2.29714 20.526
388 1 -1.1104 12.2001 -0.439789 20.4414
381 1 -1.1104 12.0412 -3.25098 20.6474
573 2 2.2208 10.7961 0.838088 21.8946
574 1 -1.1104 12.2004 -3.23772 23.291
575 1 -1.1104 11.9772 2.27422 23.1798
576 1 -1.1104 12.0753 -3.42695 25.988
577 1 -1.1104 12.2204 2.18341 26.2068
578 1 -1.1104 12.1979 -0.558832 23.3426
579 2 2.2208 10.6401 -2.02114 24.8087
581 1 -1.1104 12.0904 -0.710965 26.1948
582 1 -1.1104 9.39139 -3.59778 23.3751
583 1 -1.1104 9.23355 2.18673 23.2545
584 2 2.2208 7.83558 0.740274 24.6735
585 1 -1.1104 9.12954 -3.3499 26.2284
586 1 -1.1104 9.1842 2.27918 26.1925
587 2 2.2208 8.07328 -1.94374 21.9576
589 1 -1.1104 9.33307 -0.644784 23.3241
590 1 -1.1104 9.47983 -0.471077 26.1277
580 2 2.2208 10.6227 3.62146 24.678
588 2 2.2208 7.81255 3.61376 21.9705
593 2 2.2208 7.94057 3.73094 27.4546
592 2 2.2208 7.89685 -1.93475 27.6131
655 2 2.2208 13.4588 9.26019 27.3495
654 2 2.2208 13.5644 12.096 24.72
682 2 2.2208 2.3192 14.7682 27.5345
628 2 2.2208 5.35262 12.1318 27.4368
600 2 2.2208 13.5569 0.861856 24.8042
9647 2 2.2208 -0.39301 3.737 19.1227
602 2 2.2208 5.10794 6.52939 21.7688
603 2 2.2208 5.14977 12.2665 21.832
604 1 -1.1104 1.08626 7.93573 23.2826
606 1 -1.1104 1.09751 7.68653 26.0513
608 1 -1.1104 0.868511 5.21043 23.2513
609 1 -1.1104 0.744465 10.6778 23.2051
612 2 2.2208 5.2975 9.15395 24.6853
613 1 -1.1104 1.11823 4.92625 26.2153
614 1 -1.1104 0.859811 10.5001 26.1496
617 1 -1.1104 3.87141 7.84997 23.3266
618 2 2.2208 2.47689 6.52437 24.6835
619 2 2.2208 2.31177 11.9766 24.8503
620 1 -1.1104 3.7742 7.84409 25.9495
621 2 2.2208 2.30521 9.31973 21.8607
622 1 -1.1104 3.79727 5.0928 23.2062
623 1 -1.1104 3.71277 10.6513 23.3704
624 1 -1.1104 3.82224 5.13269 26.2068
625 1 -1.1104 3.85013 10.6683 25.9973
616 1 -1.1104 6.76643 10.5479 26.0551
610 1 -1.1104 6.62596 5.06999 23.2425
607 1 -1.1104 6.61279 7.9274 26.0188
601 2 2.2208 13.533 3.61125 27.5393
705 2 2.2208 10.7392 17.5757 21.86
701 1 -1.1104 12.1587 18.9966 26.0942
690 2 2.2208 8.04845 14.9224 21.8052
651 2 2.2208 10.6701 6.4601 27.495
689 2 2.2208 8.05603 20.5265 21.7644
605 1 -1.1104 6.6442 7.87275 23.1664
710 2 2.2208 13.5562 20.5586 27.5194
611 1 -1.1104 6.71497 10.7653 23.1475
615 1 -1.1104 6.63915 5.11966 26.098
633 1 -1.1104 9.45489 10.6415 25.9222
634 1 -1.1104 9.35727 5.15145 26.19
635 1 -1.1104 9.29503 10.5122 22.9866
636 1 -1.1104 9.27488 4.92863 23.2605
637 2 2.2208 7.9051 9.35012 21.5723
638 1 -1.1104 9.40194 8.00021 26.0686
639 2 2.2208 8.04443 11.8751 24.5956
640 2 2.2208 8.02515 6.59895 24.6128
641 2 2.2208 10.8253 6.5243 21.7754
642 2 2.2208 10.7157 12.0765 21.818
643 1 -1.1104 12.1013 7.83462 23.1225
644 1 -1.1104 12.0867 7.96812 26.0734
645 1 -1.1104 12.0865 4.99444 23.3883
646 1 -1.1104 12.0592 10.6666 23.1239
647 2 2.2208 10.7586 9.28691 24.5139
648 1 -1.1104 12.0555 5.15089 26.1427
649 1 -1.1104 12.1665 10.654 25.9809
650 1 -1.1104 9.33155 7.80935 23.1311
653 2 2.2208 10.6795 12.1253 27.5978
697 1 -1.1104 11.9658 16.2488 26.1187
681 2 2.2208 5.02457 17.7774 27.4635
702 1 -1.1104 12.2781 13.622 26.1721
664 1 -1.1104 6.52009 19.2071 23.2049
680 2 2.2208 2.17394 20.5594 27.6241
658 1 -1.1104 6.50059 13.5298 25.9325
660 1 -1.1104 6.55884 16.4737 26.1266
599 2 2.2208 13.5771 -1.95358 22.0352
672 2 2.2208 2.41953 17.7359 24.6172
677 1 -1.1104 3.66836 16.1657 23.1628
676 1 -1.1104 0.828362 16.3667 23.1405
671 1 -1.1104 3.54729 19.1931 26.0062
679 2 2.2208 2.22695 14.7632 21.8045
670 2 2.2208 5.19655 17.6801 21.8368
669 1 -1.1104 0.801891 13.5073 23.4297
678 2 2.2208 2.20868 20.4562 22.0619
673 1 -1.1104 3.85383 16.3229 26.0756
674 1 -1.1104 3.70412 13.384 26.0474
657 1 -1.1104 3.77229 18.987 23.2157
659 1 -1.1104 3.70767 13.5935 23.2185
661 1 -1.1104 1.00932 19.2207 26.1223
662 1 -1.1104 1.10955 16.2293 26.1271
663 1 -1.1104 0.852714 13.3657 26.0966
665 2 2.2208 5.11573 20.5899 24.7159
666 2 2.2208 5.17636 14.9531 24.6084
668 1 -1.1104 0.80996 19.1009 23.2643
667 1 -1.1104 6.6299 13.5551 22.9916
693 1 -1.1104 6.36621 19.2372 26.0127
675 1 -1.1104 6.47604 16.4527 23.3091
703 1 -1.1104 12.3281 19 23.2847
656 2 2.2208 13.5162 6.42285 24.6777
707 2 2.2208 10.7841 17.7534 27.4929
704 1 -1.1104 12.2849 13.5225 23.3492
687 1 -1.1104 9.35486 16.4149 25.9979
708 2 2.2208 7.90728 15.1204 27.4376
699 2 2.2208 10.5935 14.8894 24.6054
627 2 2.2208 2.25741 9.45334 27.5286
696 1 -1.1104 9.35666 13.4111 23.1874
9604 2 2.2208 13.4972 3.54175 16.2264
598 2 2.2208 13.5536 -1.91971 27.5392
9870 2 2.2208 13.5833 9.33633 21.8417
9678 2 2.2208 13.557 9.24556 16.2325
711 2 2.2208 13.5156 15.0208 27.4153
9750 2 2.2208 13.5578 17.6383 19.0768
9680 2 2.2208 13.4907 12.1018 19.2306
709 2 2.2208 13.4973 20.494 21.9496
9789 2 2.2208 -0.389376 20.7338 19.0667
570 2 2.2208 -0.376082 -2.08037 24.6821
596 2 2.2208 10.7754 -4.65929 21.9373
401 2 2.2208 13.616 -4.70991 19.0431
369 2 2.2208 2.29636 -4.72186 19.1043
594 2 2.2208 13.5186 -4.75905 24.7695
408 2 2.2208 10.7026 -2.03838 13.629
714 2 2.2208 5.09342 23.3864 4.92395
715 2 2.2208 5.10359 28.9931 4.87921
716 1 -1.1104 0.82412 24.7496 0.73463
717 1 -1.1104 0.97787 24.883 3.6027
718 1 -1.1104 0.901111 22.1922 0.816305
719 1 -1.1104 0.856933 27.4505 0.67033
720 2 2.2208 5.04458 26.2492 2.09177
721 1 -1.1104 0.883578 22.0161 3.61766
722 1 -1.1104 0.87673 27.5969 3.46798
723 1 -1.1104 3.62025 24.7444 0.721596
724 2 2.2208 2.25105 23.3476 2.04637
725 2 2.2208 2.37207 29.1094 2.14058
726 1 -1.1104 3.67541 24.6849 3.61985
727 2 2.2208 2.20755 26.2113 4.87732
728 1 -1.1104 3.78346 21.958 0.757622
729 1 -1.1104 3.69099 27.7799 0.686566
730 1 -1.1104 3.80305 21.801 3.67433
731 1 -1.1104 3.77875 27.5727 3.67172
739 1 -1.1104 6.52461 22.015 3.7361
736 1 -1.1104 6.28623 24.786 3.44919
857 1 -1.1104 0.999224 21.9856 6.52586
858 1 -1.1104 0.826839 27.5924 6.35323
735 1 -1.1104 6.69303 24.7871 0.889997
856 1 -1.1104 6.5931 24.8322 6.10483
862 1 -1.1104 3.70483 21.8075 6.50797
738 1 -1.1104 6.45647 27.4404 0.790074
863 1 -1.1104 3.78158 27.4006 6.41446
855 1 -1.1104 0.681509 24.7976 6.34213
861 1 -1.1104 3.64392 24.8149 6.37727
1030 2 2.2208 13.4038 42.978 10.6534
737 1 -1.1104 6.60197 21.9311 0.904457
740 1 -1.1104 6.538 27.5525 3.42871
741 2 2.2208 10.7972 23.328 5.02117
742 2 2.2208 10.7809 28.9432 5.00019
743 1 -1.1104 12.1662 24.7888 0.803348
744 1 -1.1104 12.4052 24.4867 3.75312
745 1 -1.1104 12.2218 22.0582 0.760303
746 1 -1.1104 12.1015 27.5411 0.751063
747 2 2.2208 10.7435 26.1893 2.11488
748 1 -1.1104 12.174 21.9693 3.56662
749 1 -1.1104 12.2283 27.3961 3.57075
750 1 -1.1104 9.51841 24.7391 0.89371
751 2 2.2208 7.95855 23.4042 2.23421
752 2 2.2208 7.89329 28.9568 2.11521
753 1 -1.1104 9.47827 24.7395 3.616
754 2 2.2208 7.95475 26.2014 4.86973
755 1 -1.1104 9.54128 21.8769 0.76955
756 1 -1.1104 9.35 27.378 0.725136
757 1 -1.1104 9.19092 21.9649 3.58509
758 1 -1.1104 9.38803 27.4293 3.45503
859 1 -1.1104 6.53071 22.0012 6.50869
888 1 -1.1104 12.1847 24.719 6.46839
890 1 -1.1104 11.9642 27.4279 6.26165
860 1 -1.1104 6.61322 27.57 6.57592
891 1 -1.1104 9.16282 24.8403 6.59109
893 1 -1.1104 9.36835 27.7889 6.31401
10161 2 2.2208 13.4708 37.2694 10.7798
10103 2 2.2208 13.5551 23.3783 7.74993
10166 2 2.2208 13.4685 31.865 10.6267
762 2 2.2208 4.9292 34.49 5.13708
763 1 -1.1104 1.08581 30.4727 0.644256
764 1 -1.1104 0.848738 36.1038 0.662275
766 1 -1.1104 0.878698 30.4899 3.57045
767 1 -1.1104 0.840742 35.9794 3.46954
769 1 -1.1104 0.696017 33.3357 0.83587
770 2 2.2208 5.09532 31.819 2.21883
771 2 2.2208 5.04065 37.2636 2.19135
772 1 -1.1104 0.76643 33.2302 3.6677
774 1 -1.1104 3.89681 30.4243 0.767783
775 1 -1.1104 3.64498 35.9048 0.778194
776 2 2.2208 2.20768 34.5473 2.23153
777 1 -1.1104 3.82401 30.4227 3.63667
778 1 -1.1104 3.5856 35.8791 3.60527
779 2 2.2208 2.21895 31.9001 5.13105
780 2 2.2208 2.36655 37.4875 4.97602
781 1 -1.1104 3.60078 32.984 0.92419
782 1 -1.1104 3.60434 33.1655 3.66947
920 1 -1.1104 3.47497 33.1465 6.65959
912 1 -1.1104 0.991123 30.3539 6.28215
913 1 -1.1104 0.624217 35.948 6.2757
916 1 -1.1104 0.649821 33.3842 6.67878
768 1 -1.1104 6.3447 36.1564 3.83873
919 1 -1.1104 3.64874 35.9843 6.52545
918 1 -1.1104 3.81533 30.1657 6.5379
914 1 -1.1104 6.47045 30.3048 6.19193
1019 1 -1.1104 12.0508 38.8881 12.1195
788 1 -1.1104 6.21702 33.3669 0.87024
765 1 -1.1104 6.62667 35.8722 0.742245
773 1 -1.1104 6.4032 33.2676 3.56374
917 1 -1.1104 6.36011 33.0376 6.54854
915 1 -1.1104 6.31409 35.9326 6.63958
787 1 -1.1104 6.4635 30.4279 3.48059