ITEM: TIMESTEP
10000
ITEM: NUMBER OF ATOMS
17910
ITEM: BOX BOUNDS pp pp pp
-3.9732280728372543e-01 2.7737322807283640e+01
-4.7762107387726624e+00 3.3285621073877041e+02
-3.8808883911785419e-01 2.7728088839117667e+01
ITEM: ATOMS id type q x y z
1 2 2.2208 5.06402 0.865806 4.94619
2 1 -1.1104 0.879671 -3.51067 0.865385
3 1 -1.1104 0.635303 2.19126 0.712173
6 1 -1.1104 0.959389 -3.3146 3.72333
7 1 -1.1104 0.974198 2.35703 3.63945
10 1 -1.1104 0.85318 -0.487753 0.778714
12 2 2.2208 5.27243 -1.93059 2.08299
13 2 2.2208 5.10675 3.66508 2.27579
14 1 -1.1104 1.05465 -0.66034 3.55887
16 1 -1.1104 3.67411 -3.3936 0.820545
17 1 -1.1104 3.52916 2.3291 0.773352
18 2 2.2208 2.24549 0.799499 2.07901
19 1 -1.1104 3.66723 -3.45391 3.52928
20 1 -1.1104 3.72087 2.12031 3.57578
21 2 2.2208 2.29821 -1.95982 5.07028
22 2 2.2208 2.26969 3.72085 4.93588
23 1 -1.1104 3.7928 -0.618253 0.676523
24 1 -1.1104 3.8874 -0.544735 3.57471
167 1 -1.1104 0.893051 2.20445 6.57824
8 1 -1.1104 6.43265 -3.43254 3.44136
15 1 -1.1104 6.6573 -0.476699 3.52904
5 1 -1.1104 6.50881 2.17529 1.04666
9 1 -1.1104 6.54312 2.33721 3.74132
169 1 -1.1104 6.40412 2.44158 6.5923
11 1 -1.1104 6.56181 -0.479555 0.838904
174 1 -1.1104 3.66155 -0.498905 6.31208
170 1 -1.1104 1.03054 -0.408834 6.4424
4 1 -1.1104 6.48499 -3.31994 0.561348
173 1 -1.1104 3.66025 2.53122 6.4181
172 1 -1.1104 3.81127 -3.2688 6.51771
166 1 -1.1104 1.117 -3.36981 6.40764
104 2 2.2208 13.4597 12.0804 2.23634
171 1 -1.1104 6.70236 -0.473482 6.37123
168 1 -1.1104 6.57025 -3.45494 6.43645
31 2 2.2208 10.7787 0.909776 5.09864
32 1 -1.1104 12.0639 -3.35693 0.854865
33 1 -1.1104 12.0337 2.18144 0.946436
34 1 -1.1104 11.9923 -3.18096 3.61898
35 1 -1.1104 12.0843 2.39499 3.67735
36 1 -1.1104 12.1607 -0.722636 0.744311
37 2 2.2208 10.5621 -1.90759 2.22997
38 2 2.2208 10.7871 3.70217 2.20302
39 1 -1.1104 11.9374 -0.433437 3.77224
40 1 -1.1104 9.22935 -3.37711 0.605282
41 1 -1.1104 9.52547 2.25337 0.79497
42 2 2.2208 8.0265 0.8223 2.26901
43 1 -1.1104 9.1168 -3.42899 3.54461
44 1 -1.1104 9.31217 2.18558 3.63548
45 2 2.2208 7.77876 -2.02227 5.01765
46 2 2.2208 7.89899 3.66985 4.9676
47 1 -1.1104 9.34283 -0.619687 0.792242
48 1 -1.1104 9.12824 -0.644603 3.5565
208 1 -1.1104 9.29618 -3.25874 6.23168
209 1 -1.1104 9.32022 2.28789 6.40988
9541 2 2.2208 13.4253 20.3926 10.7158
206 1 -1.1104 12.2018 2.24595 6.51039
205 1 -1.1104 12.0767 -3.47375 6.39783
210 1 -1.1104 9.37472 -0.45666 6.52095
404 2 2.2208 7.92071 -4.75402 13.4257
105 2 2.2208 13.5953 6.34809 2.20777
9308 2 2.2208 13.5828 9.29038 5.02778
50 2 2.2208 13.5439 -2.08033 5.17495
54 2 2.2208 5.07137 6.61039 5.02235
55 2 2.2208 4.93054 12.1775 4.92226
56 1 -1.1104 1.11866 8.19116 0.819616
58 1 -1.1104 1.03287 7.79635 3.55215
60 1 -1.1104 0.822422 5.10092 0.684375
61 1 -1.1104 0.89944 10.9042 0.786107
66 2 2.2208 5.0557 9.20196 2.12827
67 1 -1.1104 0.941235 5.1318 3.42084
68 1 -1.1104 0.806317 10.7536 3.7253
71 1 -1.1104 3.89173 7.85792 0.677219
72 2 2.2208 2.46379 6.4597 2.08131
73 2 2.2208 2.22019 12.1936 2.15673
74 1 -1.1104 3.70548 7.87678 3.59804
75 2 2.2208 2.2155 9.35174 5.08607
76 1 -1.1104 3.6783 5.05204 0.699827
77 1 -1.1104 3.71767 10.8322 0.828149
79 1 -1.1104 3.67935 5.02756 3.73367
80 1 -1.1104 3.56531 10.7858 3.52684
234 1 -1.1104 0.866083 7.94787 6.47856
236 1 -1.1104 1.06345 5.09301 6.24915
70 1 -1.1104 6.35192 10.8364 3.61331
59 1 -1.1104 6.5856 7.89758 3.63014
63 1 -1.1104 6.47785 4.9662 0.92887
62 1 -1.1104 0.893006 10.8972 6.39512
78 1 -1.1104 3.56884 10.868 6.53388
239 1 -1.1104 3.69652 5.2069 6.49235
65 1 -1.1104 6.41667 10.7957 6.41743
64 1 -1.1104 6.57253 10.753 0.718768
69 1 -1.1104 6.6559 4.97572 3.49428
238 1 -1.1104 3.67447 8.02127 6.43695
57 1 -1.1104 6.57294 7.74643 0.639851
237 1 -1.1104 6.33813 5.19492 6.34623
84 2 2.2208 10.6603 6.55046 4.92514
85 2 2.2208 10.6427 12.0363 5.00895
86 1 -1.1104 12.1251 7.94674 0.858131
87 1 -1.1104 12.0689 7.79049 3.58139
88 1 -1.1104 12.0977 5.04981 1.10975
89 1 -1.1104 12.001 10.9209 0.733173
91 2 2.2208 10.6885 9.32205 2.22808
92 1 -1.1104 12.3009 5.36317 3.79651
93 1 -1.1104 12.1213 10.5599 3.80451
94 1 -1.1104 9.35564 7.72148 0.82389
95 2 2.2208 7.93389 6.44844 2.19342
96 2 2.2208 7.82854 12.0067 2.10103
97 1 -1.1104 9.30976 8.1125 3.67634
98 2 2.2208 7.85054 9.32903 5.01476
99 1 -1.1104 9.1571 5.08626 0.728982
100 1 -1.1104 9.32222 10.5665 0.580543
102 1 -1.1104 9.37591 5.11551 3.46264
103 1 -1.1104 9.19368 10.7524 3.64142
90 1 -1.1104 12.1283 10.6067 6.43678
101 1 -1.1104 9.13912 10.6572 6.36833
235 1 -1.1104 6.44599 8.0517 6.40741
265 1 -1.1104 12.0888 7.90232 6.38335
269 1 -1.1104 9.23575 5.02332 6.43127
321 1 -1.1104 9.11571 18.9797 12.1028
267 1 -1.1104 9.30015 7.8239 6.43801
329 1 -1.1104 11.9357 19.0805 12.2137
9491 2 2.2208 13.4665 12.2038 7.74822
106 2 2.2208 5.10719 17.7221 4.85171
107 1 -1.1104 0.674777 13.738 0.733077
109 1 -1.1104 0.888343 19.1439 0.730578
113 1 -1.1104 0.910936 13.5413 3.54505
114 1 -1.1104 0.725473 19.1723 3.58216
116 1 -1.1104 0.731816 16.3089 0.711818
119 2 2.2208 4.99061 14.8448 2.06183
120 2 2.2208 5.07207 20.4179 2.10458
121 1 -1.1104 0.914629 16.2801 3.58372
123 1 -1.1104 3.42837 13.5622 0.713023
125 1 -1.1104 3.56782 19.0683 0.853418
127 2 2.2208 2.21022 17.7684 2.21685
128 1 -1.1104 3.64725 13.5908 3.49539
129 1 -1.1104 3.51811 19.1524 3.61588
130 2 2.2208 2.34567 14.8792 5.0454
131 2 2.2208 2.27838 20.6667 4.97816
132 1 -1.1104 3.75429 16.3487 0.564947
134 1 -1.1104 3.62063 16.2617 3.64091
122 1 -1.1104 6.23499 16.26 3.52161
124 1 -1.1104 3.51975 13.3837 6.26669
117 1 -1.1104 0.688347 16.5728 6.41507
140 1 -1.1104 6.53496 16.4485 0.902365
133 1 -1.1104 3.63322 16.2594 6.50819
138 1 -1.1104 6.32382 19.0984 0.722927
126 1 -1.1104 3.68086 19.2357 6.46661
302 1 -1.1104 0.911919 19.4872 6.3619
118 1 -1.1104 6.35194 16.3601 6.31068
110 1 -1.1104 6.42758 13.5549 0.666619
115 1 -1.1104 6.4128 13.6075 3.38863
112 1 -1.1104 6.4247 19.2262 6.27387
139 1 -1.1104 6.53088 19.1241 3.51676
143 1 -1.1104 12.0243 13.6022 6.48484
141 2 2.2208 10.7729 17.6659 4.9678
142 1 -1.1104 11.873 13.5925 0.620032
144 1 -1.1104 12.1674 19.0796 0.791018
146 1 -1.1104 12.0556 13.1819 3.51867
147 1 -1.1104 12.1284 19.0555 3.48572
148 1 -1.1104 12.0545 16.305 0.664557
150 2 2.2208 10.3842 14.9294 2.05447
151 2 2.2208 10.6195 20.4564 2.10172
152 1 -1.1104 11.8522 15.9778 3.51758
153 1 -1.1104 9.16042 13.3902 0.822486
155 1 -1.1104 9.2171 19.1579 0.823601
157 2 2.2208 8.00756 17.6697 2.09449
158 1 -1.1104 9.30976 13.4061 3.34146
159 1 -1.1104 9.32181 19.3345 3.62094
160 2 2.2208 7.88782 14.7112 4.88589
161 2 2.2208 7.86457 20.4409 4.85121
162 1 -1.1104 9.30659 16.4384 0.556013
164 1 -1.1104 9.07384 16.3712 3.47946
149 1 -1.1104 12.0322 16.2667 6.33017
163 1 -1.1104 9.2944 16.3495 6.4481
156 1 -1.1104 9.2831 19.3011 6.43711
154 1 -1.1104 9.34772 13.4613 6.44019
145 1 -1.1104 12.0395 19.0849 6.39808
314 1 -1.1104 9.18707 16.48 9.43526
9279 2 2.2208 13.5468 3.81219 5.03522
9490 2 2.2208 13.4737 6.49287 7.80725
375 2 2.2208 2.45373 0.851519 13.5493
175 2 2.2208 5.14572 0.960206 10.6107
176 1 -1.1104 0.901909 -3.30167 12.0539
177 1 -1.1104 0.699691 2.29432 12.2258
180 1 -1.1104 1.06444 -3.18267 9.25919
181 1 -1.1104 0.900842 2.17755 9.48483
184 1 -1.1104 0.986901 -0.541424 12.2461
186 2 2.2208 5.24236 -2.01118 7.92866
187 2 2.2208 5.08851 3.67415 7.8787
188 1 -1.1104 0.998664 -0.493216 9.45616
190 1 -1.1104 3.72839 -3.24071 12.2116
191 1 -1.1104 3.77474 2.24488 12.0866
192 2 2.2208 2.52031 0.954494 7.85039
193 1 -1.1104 3.90821 -3.37693 9.48747
194 1 -1.1104 4.03248 2.14639 9.00601
195 2 2.2208 2.35284 -1.89789 10.7724
196 2 2.2208 2.35318 3.84021 10.8435
197 1 -1.1104 3.74657 -0.420719 12.1096
198 1 -1.1104 3.8341 -0.501737 9.44856
178 1 -1.1104 6.47916 -3.25915 12.0661
189 1 -1.1104 6.69545 -0.540059 9.05544
179 1 -1.1104 6.47927 2.25714 12.1335
182 1 -1.1104 6.7247 -3.38748 9.34717
185 1 -1.1104 6.49865 -0.547324 11.9272
183 1 -1.1104 6.69143 2.21177 9.35186
472 2 2.2208 8.00906 12.1945 13.2591
330 1 -1.1104 12.1047 13.3667 12.0491
52 2 2.2208 10.7408 -4.65677 5.05133
443 2 2.2208 2.2257 6.55279 13.561
536 2 2.2208 13.5983 17.6022 13.4726
409 2 2.2208 10.8345 3.58753 13.4478
207 1 -1.1104 12.1987 -0.735104 6.37317
211 2 2.2208 10.8104 0.816405 10.6671
212 1 -1.1104 12.107 -3.31334 12.2169
213 1 -1.1104 12.151 2.23751 12.1462
214 1 -1.1104 12.0745 -3.37479 9.27499
215 1 -1.1104 12.254 2.20867 9.31233
216 1 -1.1104 12.1464 -0.508423 11.9505
217 2 2.2208 10.7064 -2.01725 7.80972
218 2 2.2208 10.775 3.61432 7.89754
219 1 -1.1104 12.2374 -0.501049 9.06462
220 1 -1.1104 9.39654 -3.23457 12.0305
221 1 -1.1104 9.35075 2.2734 11.9789
222 2 2.2208 8.00585 0.850832 7.8723
223 1 -1.1104 9.29011 -3.28863 9.04722
224 1 -1.1104 9.37078 2.38072 9.33294
225 2 2.2208 7.95464 -1.88059 10.7498
226 2 2.2208 8.03579 3.74759 10.6988
227 1 -1.1104 9.37294 -0.51929 11.9599
228 1 -1.1104 9.53165 -0.625637 9.1354
408 2 2.2208 10.8764 -1.9514 13.43
53 2 2.2208 13.3489 -4.70488 2.2586
470 2 2.2208 7.77726 6.52756 13.3511
332 2 2.2208 13.4684 17.7292 7.90721
407 2 2.2208 8.12598 0.860018 13.4964
25 2 2.2208 -0.370484 -2.05988 2.22955
445 2 2.2208 2.11521 12.2287 13.449
240 2 2.2208 4.99948 6.66239 10.5972
241 2 2.2208 5.02946 12.3708 10.6516
242 1 -1.1104 1.0218 8.05057 12.2565
244 1 -1.1104 0.834905 7.86304 9.47169
246 1 -1.1104 0.89424 5.37533 11.9287
247 1 -1.1104 0.732169 10.7193 11.9753
250 2 2.2208 4.99369 9.37761 7.75644
251 1 -1.1104 1.00788 5.14398 8.99782
252 1 -1.1104 0.792431 10.6611 9.12948
255 1 -1.1104 3.76656 7.90223 12.0877
256 2 2.2208 2.28027 6.59593 7.81448
257 2 2.2208 2.14457 12.3014 7.79298
258 1 -1.1104 3.61662 7.93716 9.28984
259 2 2.2208 2.40175 9.22905 10.7427
260 1 -1.1104 3.58723 5.25023 11.9886
261 1 -1.1104 3.59832 10.7486 12.0996
262 1 -1.1104 3.69335 4.97561 9.4565
263 1 -1.1104 3.44903 10.8026 9.46641
253 1 -1.1104 6.35839 5.07953 9.30597
249 1 -1.1104 6.5356 10.8793 12.0634
243 1 -1.1104 6.38124 7.77005 11.9824
444 2 2.2208 5.04974 9.53627 13.4912
245 1 -1.1104 6.40094 7.84523 9.27851
248 1 -1.1104 6.39732 5.11903 12.1023
254 1 -1.1104 6.37822 10.7956 9.3083
327 1 -1.1104 12.1821 19.1479 9.13752
266 1 -1.1104 12.0084 5.21919 6.62821
9356 2 2.2208 13.475 20.4869 4.89481
288 1 -1.1104 6.35263 19.1917 9.00876
51 2 2.2208 7.86824 -4.82952 2.08388
264 1 -1.1104 9.32886 10.6846 9.10642
268 1 -1.1104 9.4398 5.11401 9.13284
270 1 -1.1104 9.19596 10.708 11.8805
271 1 -1.1104 9.31008 5.10638 12.0817
272 2 2.2208 7.81411 9.30529 10.5693
273 1 -1.1104 9.43176 7.84589 9.09956
274 2 2.2208 7.78709 12.1574 7.80822
275 2 2.2208 7.88713 6.44392 7.85647
276 2 2.2208 10.6744 6.52626 10.6617
277 2 2.2208 10.8295 11.8888 10.4445
278 1 -1.1104 12.2364 7.84084 12.0054
279 1 -1.1104 12.2031 7.82373 9.05555
280 1 -1.1104 12.1959 4.93849 12.1723
281 1 -1.1104 12.1702 10.5078 11.9763
282 2 2.2208 10.6132 9.26892 7.56397
283 1 -1.1104 12.1505 5.10674 9.37618
284 1 -1.1104 12.1053 10.5088 9.16566
285 1 -1.1104 9.24048 7.83759 12.1062
471 2 2.2208 10.6002 9.34994 13.4134
326 1 -1.1104 12.0151 16.3379 11.7391
108 1 -1.1104 0.839053 13.7791 6.4902
111 1 -1.1104 6.44381 13.5333 6.35029
328 1 -1.1104 11.9938 13.3985 9.07055
289 1 -1.1104 6.44891 16.3564 9.32851
507 2 2.2208 5.15314 20.4041 13.4647
290 1 -1.1104 6.55874 13.5545 9.01083
286 1 -1.1104 3.78147 18.9924 12.124
287 1 -1.1104 3.64259 13.5545 12.136
291 1 -1.1104 0.981315 19.0948 9.23951
292 1 -1.1104 0.643105 16.2429 9.20204
293 2 2.2208 5.00047 20.6709 7.71583
294 1 -1.1104 0.753106 13.5012 9.24378
295 2 2.2208 5.12938 14.9324 7.79419
298 1 -1.1104 0.698162 19.2424 11.9643
299 1 -1.1104 0.852052 13.4836 11.9949
300 2 2.2208 5.1561 17.7481 10.5822
301 1 -1.1104 3.77018 19.2569 9.31377
303 2 2.2208 2.35309 17.8331 7.84717
304 1 -1.1104 3.65046 16.6016 9.33113
305 1 -1.1104 3.61909 13.7975 9.17105
307 1 -1.1104 0.861196 16.3471 11.9031
308 1 -1.1104 3.54092 16.2196 11.8826
309 2 2.2208 2.37943 20.6853 10.5933
310 2 2.2208 2.13294 15.0421 10.488
508 2 2.2208 4.92073 15.045 13.4616
506 2 2.2208 2.33518 17.7255 13.4055
533 2 2.2208 10.6005 20.5568 13.501
9682 2 2.2208 13.713 11.9115 13.5207
534 2 2.2208 10.7171 14.7629 13.436
324 2 2.2208 10.7191 20.594 7.80458
322 1 -1.1104 9.35963 13.5139 11.9229
318 1 -1.1104 9.27343 19.174 9.14553
323 1 -1.1104 12.1333 16.38 8.99772
297 1 -1.1104 6.59254 13.6418 11.9811
306 1 -1.1104 6.44477 16.3046 12.0583
296 1 -1.1104 6.33855 19.0493 11.9677
315 1 -1.1104 9.34418 16.3667 12.2321
320 2 2.2208 7.77198 17.9068 7.71667
325 2 2.2208 10.6712 15.0119 7.81758
317 2 2.2208 7.91932 14.8744 10.5881
316 2 2.2208 8.00658 20.3496 10.6729
535 2 2.2208 7.79842 17.5549 13.371
331 2 2.2208 10.5999 17.7445 10.6322
319 1 -1.1104 9.29589 13.6255 9.25314
49 2 2.2208 13.5059 0.837424 2.33087
9677 2 2.2208 13.4571 6.47527 13.5155
230 2 2.2208 13.6396 -1.82439 10.5798
9414 2 2.2208 13.5631 3.67174 10.6315
9377 2 2.2208 13.5072 14.8337 4.8961
9495 2 2.2208 13.5811 9.24619 10.7223
374 2 2.2208 5.19436 -1.93104 13.4812
333 2 2.2208 13.4137 14.8486 10.6225
372 2 2.2208 -0.355421 -1.80702 13.5699
165 2 2.2208 13.3917 17.4677 2.02083
229 2 2.2208 13.59 0.830012 7.7677
200 2 2.2208 -0.409596 -1.87657 7.95073
82 2 2.2208 -0.29092 9.34922 2.21785
26 2 2.2208 -0.37979 0.855463 5.08643
232 2 2.2208 10.6839 -4.65517 10.6217
202 2 2.2208 2.34389 -4.71699 8.003
376 2 2.2208 5.2717 3.57415 13.4125
373 2 2.2208 2.39108 -4.70147 13.4044
334 2 2.2208 5.34644 0.963586 16.3142
335 1 -1.1104 1.034 -3.43368 17.7773
336 1 -1.1104 1.17085 2.30691 17.6697
339 1 -1.1104 0.958082 -3.20125 14.7824
341 1 -1.1104 0.958313 2.65445 14.8069
347 1 -1.1104 0.901083 -0.718507 17.824
349 2 2.2208 5.257 -1.81885 19.064
350 2 2.2208 5.15256 3.77301 19.0485
351 1 -1.1104 1.18916 -0.363387 15.1069
355 1 -1.1104 3.88777 -3.29629 17.8661
356 1 -1.1104 3.77539 2.35071 17.6661
357 2 2.2208 2.33797 0.921262 19.0243
358 1 -1.1104 3.77634 -3.4142 15.2089
360 1 -1.1104 3.85057 2.30956 15.0827
362 2 2.2208 2.48455 -1.90813 16.4753
363 2 2.2208 2.52683 3.82901 16.2913
364 1 -1.1104 3.7977 -0.399607 17.6999
365 1 -1.1104 3.92982 -0.381879 14.8962
343 1 -1.1104 6.70175 -3.37198 14.8376
337 1 -1.1104 6.67166 -3.18479 17.7291
361 1 -1.1104 3.69317 2.3664 20.4306
338 1 -1.1104 6.48662 2.22221 17.7931
345 1 -1.1104 6.72145 2.24048 14.8276
366 1 -1.1104 3.80902 -0.591335 20.5553
348 1 -1.1104 6.68988 -0.493436 17.536
353 1 -1.1104 6.65508 -0.556229 14.8428
342 1 -1.1104 0.853795 2.39209 20.4891
340 1 -1.1104 0.82771 -3.39906 20.846
359 1 -1.1104 3.62692 -3.38768 20.5462
352 1 -1.1104 0.875712 -0.536327 20.7146
696 1 -1.1104 9.31815 13.5062 23.1096
9751 2 2.2208 13.4929 20.4481 16.1621
346 1 -1.1104 6.48008 2.39161 20.5111
562 2 2.2208 2.40418 -1.91729 27.4808
566 2 2.2208 4.93953 -4.59854 27.5342
377 2 2.2208 10.9643 0.755233 16.4274
378 1 -1.1104 12.1723 -3.16578 17.6906
379 1 -1.1104 12.0628 2.40459 17.6778
380 1 -1.1104 12.2928 -3.32595 14.956
382 1 -1.1104 12.4264 2.12393 14.9793
384 1 -1.1104 12.198 -0.492976 17.9011
385 2 2.2208 10.8013 -1.9897 19.0812
386 2 2.2208 10.7376 3.49932 19.1075
387 1 -1.1104 12.4973 -0.439152 14.9807
389 1 -1.1104 9.29303 -3.41807 17.8198
390 1 -1.1104 9.35949 2.28424 17.7613
391 2 2.2208 7.97578 0.922284 19.0688
392 1 -1.1104 9.38045 -3.18888 14.827
394 1 -1.1104 9.80267 2.20112 14.9794
396 2 2.2208 7.98858 -1.92426 16.2839
397 2 2.2208 8.0336 3.62567 16.2375
398 1 -1.1104 9.39061 -0.470263 17.4682
399 1 -1.1104 9.6365 -0.565029 14.9482
383 1 -1.1104 12.1785 2.33021 20.4832
381 1 -1.1104 11.9975 -3.45579 20.473
400 1 -1.1104 9.57646 -0.49827 20.4332
388 1 -1.1104 12.2653 -0.68505 20.6227
395 1 -1.1104 9.39658 2.21476 20.6797
561 2 2.2208 5.13747 0.812518 27.4467
393 1 -1.1104 9.24644 -3.24875 20.5223
656 2 2.2208 13.6154 6.55218 24.8121
598 2 2.2208 13.5758 -1.99117 27.4852
410 2 2.2208 5.12916 6.64173 16.1648
411 2 2.2208 5.03238 12.3147 16.1026
412 1 -1.1104 0.938032 7.89129 17.6395
414 1 -1.1104 0.910697 7.93794 14.8295
418 1 -1.1104 1.12127 5.05638 17.6828
419 1 -1.1104 0.78732 10.8983 17.5461
422 2 2.2208 5.02354 9.42684 18.9087
423 1 -1.1104 0.879749 5.12298 14.7895
425 1 -1.1104 1.09241 10.9174 14.9726
431 1 -1.1104 3.63718 7.8644 17.5155
432 2 2.2208 2.39862 6.55357 19.1181
433 2 2.2208 2.26814 12.2925 18.9719
434 1 -1.1104 3.70183 8.25537 15.0105
436 2 2.2208 2.2592 9.46123 16.2476
437 1 -1.1104 3.91056 5.25021 17.6376
438 1 -1.1104 3.5836 10.9096 17.6276
439 1 -1.1104 3.90554 4.98998 14.8464
441 1 -1.1104 3.61929 10.9688 14.881
426 1 -1.1104 1.07255 10.7153 20.3709
440 1 -1.1104 3.83362 5.10601 20.4069
421 1 -1.1104 6.49996 10.6493 17.5853
415 1 -1.1104 0.836761 7.99635 20.4524
435 1 -1.1104 3.76033 8.10517 20.3626
420 1 -1.1104 6.62535 5.04731 17.737
427 1 -1.1104 6.86004 5.07591 14.8582
417 1 -1.1104 6.43775 7.99555 20.1363
413 1 -1.1104 6.59318 7.88923 17.5006
429 1 -1.1104 6.46871 10.7276 14.9297
428 1 -1.1104 6.48385 5.10716 20.3998
424 1 -1.1104 0.966239 5.26428 20.4729
592 2 2.2208 7.88005 -1.95678 27.3687
416 1 -1.1104 6.48474 7.85495 14.753
446 2 2.2208 10.7773 6.34194 16.2046
447 2 2.2208 10.7846 12.0926 16.3373
448 1 -1.1104 12.1361 7.83655 17.6336
449 1 -1.1104 12.1997 7.68181 14.7745
451 1 -1.1104 11.9888 5.05985 17.7602
452 1 -1.1104 12.113 10.733 17.6386
453 2 2.2208 10.7377 9.06446 19.0967
454 1 -1.1104 12.1534 4.86651 14.8646
456 1 -1.1104 12.0583 10.5033 14.8427
458 1 -1.1104 9.44077 8.01572 17.5502
459 2 2.2208 7.97583 6.4892 18.9561
460 2 2.2208 7.89082 12.045 18.8681
461 1 -1.1104 9.39907 7.81319 14.898
463 2 2.2208 7.85161 9.33725 16.0745
464 1 -1.1104 9.47838 5.06918 17.7673
465 1 -1.1104 9.12966 10.5565 17.4976
466 1 -1.1104 9.35678 4.95483 15.0286
468 1 -1.1104 9.2459 10.5781 14.7474
469 1 -1.1104 9.28675 10.604 20.5355
563 2 2.2208 2.33052 3.77968 27.3568
467 1 -1.1104 9.40075 5.14211 20.3918
430 1 -1.1104 6.44275 10.8053 20.2917
704 1 -1.1104 12.2618 13.617 23.1056
450 1 -1.1104 12.1746 7.90787 20.4875
457 1 -1.1104 12.1664 10.5431 20.3923
455 1 -1.1104 12.2835 5.14493 20.5934
462 1 -1.1104 9.21156 7.98148 20.5524
594 2 2.2208 13.5699 -4.65594 24.6066
473 2 2.2208 4.87952 17.8331 16.173
474 1 -1.1104 0.8811 13.735 17.6437
475 1 -1.1104 0.853724 19.336 17.5939
478 1 -1.1104 0.835741 13.5736 14.7715
480 1 -1.1104 0.914458 19.214 14.7017
486 1 -1.1104 0.961432 16.6812 17.6732
488 2 2.2208 5.11805 15.1039 19.0681
489 2 2.2208 5.06816 20.6943 19.0616
490 1 -1.1104 0.773538 16.3571 14.7985
494 1 -1.1104 3.56692 13.6411 17.5459
495 1 -1.1104 3.59207 19.2768 17.7329
496 2 2.2208 2.33779 17.9365 19.1805
497 1 -1.1104 3.84697 13.8227 14.99
499 1 -1.1104 3.66751 19.2883 14.8436
501 2 2.2208 2.10646 15.0868 16.2267
502 2 2.2208 2.24882 20.5148 16.1951
503 1 -1.1104 3.54228 16.568 17.639
504 1 -1.1104 3.60089 16.5275 14.6587
479 1 -1.1104 0.754314 13.4127 20.4124
491 1 -1.1104 0.946917 16.4314 20.4787
500 1 -1.1104 3.68685 19.1647 20.4505
476 1 -1.1104 6.5174 13.5095 17.6095
482 1 -1.1104 6.57008 13.5192 14.7689
505 1 -1.1104 3.78927 16.4501 20.3442
481 1 -1.1104 0.938064 19.3918 20.598
498 1 -1.1104 3.66649 13.6828 20.4163
493 1 -1.1104 6.61299 16.2443 20.4466
485 1 -1.1104 6.32116 19.2865 20.6172
628 2 2.2208 5.13729 12.1056 27.4855
653 2 2.2208 10.6131 12.2054 27.2606
484 1 -1.1104 6.41935 18.9276 14.7179
477 1 -1.1104 6.48261 19.2982 17.8824
487 1 -1.1104 6.23495 16.5961 17.6796
483 1 -1.1104 6.3312 13.5317 20.5013
492 1 -1.1104 6.42053 16.2906 15.002
509 2 2.2208 10.6479 17.6174 16.1797
510 1 -1.1104 12.1821 13.4128 17.7668
511 1 -1.1104 12.0741 19.059 17.6874
512 1 -1.1104 12.1219 13.3146 14.7983
514 1 -1.1104 11.872 18.9912 14.907
516 1 -1.1104 12.007 16.239 17.4253
517 2 2.2208 10.6811 14.8841 18.9125
518 2 2.2208 10.7966 20.4989 19.1608
519 1 -1.1104 12.2144 16.1536 14.819
521 1 -1.1104 9.33584 13.272 17.5399
522 1 -1.1104 9.15497 19.1348 17.6569
523 2 2.2208 7.87806 17.82 18.9577
524 1 -1.1104 9.32635 13.5281 14.7932
526 1 -1.1104 9.23324 19.0732 14.9723
528 2 2.2208 7.72606 15.0251 16.3201
529 2 2.2208 7.92126 20.536 16.3398
530 1 -1.1104 9.17491 16.2391 17.5799
531 1 -1.1104 9.2405 16.2377 14.8275
520 1 -1.1104 12.0955 16.4714 20.2661
513 1 -1.1104 12.3074 13.4438 20.5467
525 1 -1.1104 9.29042 13.4048 20.2425
532 1 -1.1104 9.47392 16.4093 20.3366
694 2 2.2208 7.87228 17.7176 24.7968
515 1 -1.1104 12.1584 19.2577 20.471
403 2 2.2208 7.86711 -4.68203 19.1986
368 2 2.2208 5.24226 -4.75908 16.4041
706 2 2.2208 7.85145 20.4873 27.4979
9680 2 2.2208 13.6316 12.0789 19.2413
537 2 2.2208 5.03924 0.917522 21.7827
538 1 -1.1104 1.07528 -3.56763 23.5195
539 1 -1.1104 0.623657 2.29027 23.1697
542 1 -1.1104 0.834928 -3.28758 26.2926
543 1 -1.1104 0.776119 2.30628 26.0432
546 1 -1.1104 0.91324 -0.617694 23.3235
548 2 2.2208 4.94203 -1.80347 24.7196
549 2 2.2208 5.19455 3.67616 24.6003
550 1 -1.1104 0.787887 -0.443071 26.1506
552 1 -1.1104 3.69698 -3.28587 23.3551
553 1 -1.1104 3.48455 2.25229 23.1112
554 2 2.2208 2.19725 1.04287 24.6549
555 1 -1.1104 3.6933 -3.22498 26.1908
556 1 -1.1104 3.59174 2.37142 25.9774
557 2 2.2208 2.35456 -1.95301 22.0066
558 2 2.2208 2.3272 3.71385 21.746
559 1 -1.1104 3.6787 -0.399125 23.3684
560 1 -1.1104 3.69577 -0.555372 25.9639
547 1 -1.1104 6.46623 -0.492053 23.0615
551 1 -1.1104 6.38377 -0.556868 26.1478
541 1 -1.1104 6.4382 2.36124 23.2017
545 1 -1.1104 6.45587 2.20601 26.1421
540 1 -1.1104 6.39634 -3.10205 23.2349
344 1 -1.1104 6.37876 -3.30548 20.4245
651 2 2.2208 10.6986 6.35218 27.4549
593 2 2.2208 7.95888 3.57244 27.4904
544 1 -1.1104 6.35829 -3.27659 25.8269
354 1 -1.1104 6.63198 -0.483288 20.3104
9604 2 2.2208 13.6309 3.70719 16.3539
573 2 2.2208 10.8692 0.827431 21.9038
574 1 -1.1104 12.1909 -3.23085 23.3104
575 1 -1.1104 12.0185 2.35912 23.2197
576 1 -1.1104 12.1837 -3.4322 26.2252
577 1 -1.1104 12.1558 2.49485 26.1458
578 1 -1.1104 12.2348 -0.450809 23.3772
579 2 2.2208 10.8311 -1.74037 24.6713
580 2 2.2208 10.698 3.67577 24.5294
581 1 -1.1104 12.1464 -0.384881 26.2094
582 1 -1.1104 9.22598 -3.31849 23.1923
583 1 -1.1104 9.35073 2.09011 23.4376
584 2 2.2208 7.99661 0.745071 24.5832
585 1 -1.1104 9.33986 -3.28023 25.9128
586 1 -1.1104 9.46818 2.26466 26.2326
587 2 2.2208 7.99239 -1.88814 21.8476
588 2 2.2208 7.9453 3.65087 21.8741
589 1 -1.1104 9.37123 -0.628138 23.3051
590 1 -1.1104 9.44477 -0.410254 25.9947
591 2 2.2208 10.7014 0.812077 27.576
597 2 2.2208 7.92745 -4.58726 24.6579
689 2 2.2208 8.03822 20.6172 21.8539
703 1 -1.1104 12.0889 19.2237 23.1791
401 2 2.2208 13.5226 -4.78991 19.1969
442 1 -1.1104 3.89657 10.809 20.5712
627 2 2.2208 2.31288 9.31271 27.5343
626 2 2.2208 5.09609 6.40073 27.4872
602 2 2.2208 5.16699 6.64402 21.7134
603 2 2.2208 5.11502 12.2059 21.8799
604 1 -1.1104 1.11263 7.69204 23.0496
606 1 -1.1104 0.834252 7.97645 26.0867
608 1 -1.1104 0.966881 4.92747 23.2474
609 1 -1.1104 0.906313 10.7774 23.1883
612 2 2.2208 5.14535 9.431 24.7009
613 1 -1.1104 0.963386 5.12314 25.8606
614 1 -1.1104 1.05413 10.6205 25.9818
617 1 -1.1104 3.87901 7.97253 23.2166
618 2 2.2208 2.30194 6.55545 24.6807
619 2 2.2208 2.23686 12.0791 24.6113
620 1 -1.1104 3.62778 8.10225 26.0446
621 2 2.2208 2.60907 9.45538 21.9319
622 1 -1.1104 3.58804 5.18166 23.0828
623 1 -1.1104 3.69934 10.7812 23.4459
624 1 -1.1104 3.70892 5.0708 26.1002
625 1 -1.1104 3.70818 10.7954 26.182
605 1 -1.1104 6.45935 7.98084 23.1877
616 1 -1.1104 6.58645 10.5851 25.9411
9750 2 2.2208 13.5057 17.7726 18.9996
615 1 -1.1104 6.56832 4.85749 26.1084
611 1 -1.1104 6.6372 10.9296 23.124
690 2 2.2208 8.02014 14.9772 21.8176
699 2 2.2208 10.8049 14.9021 24.4788
9811 2 2.2208 13.6722 3.60987 21.9724
607 1 -1.1104 6.36558 7.7117 25.8946
610 1 -1.1104 6.53385 5.03891 23.3184
712 2 2.2208 13.5822 17.8148 24.5835
633 1 -1.1104 9.41996 10.7386 25.8736
634 1 -1.1104 9.39618 4.90786 25.8557
635 1 -1.1104 9.45255 10.8331 23.272
636 1 -1.1104 9.37325 4.96904 23.1487
637 2 2.2208 7.82289 9.4258 21.7117
638 1 -1.1104 9.22751 7.96915 26.0089
639 2 2.2208 7.9062 12.1437 24.4761
640 2 2.2208 7.87338 6.50826 24.6576
641 2 2.2208 10.7427 6.35162 21.8914
642 2 2.2208 10.7202 12.1492 21.6741
643 1 -1.1104 12.0911 8.0059 23.3496
644 1 -1.1104 12.2451 7.95409 26.2357
645 1 -1.1104 12.2177 5.02376 23.4881
646 1 -1.1104 12.1589 10.7004 23.1275
647 2 2.2208 10.7393 9.29927 24.5563
648 1 -1.1104 12.2701 5.13406 26.2518
649 1 -1.1104 12.1029 10.647 26.05
650 1 -1.1104 9.29026 7.84272 23.2781
713 2 2.2208 13.5492 15.0209 21.817
9870 2 2.2208 13.5967 9.32492 21.8145
658 1 -1.1104 6.3572 13.5453 25.8288
680 2 2.2208 2.31785 20.5595 27.5088
681 2 2.2208 4.97828 17.795 27.5587
675 1 -1.1104 6.69468 16.3898 23.2294
682 2 2.2208 2.11831 14.8639 27.4123
693 1 -1.1104 6.45015 19.1318 26.1607
660 1 -1.1104 6.36287 16.4738 26.1856
672 2 2.2208 2.3413 17.8269 24.713
677 1 -1.1104 3.76813 16.254 23.114
676 1 -1.1104 1.02396 16.4676 23.2082
671 1 -1.1104 3.56771 19.0899 26.1908
679 2 2.2208 2.2033 14.9536 21.7615
670 2 2.2208 5.06621 17.9022 21.9199
669 1 -1.1104 0.909279 13.5191 23.2178
678 2 2.2208 2.26191 20.5935 21.8357
673 1 -1.1104 3.65506 16.4829 26.0282
674 1 -1.1104 3.5991 13.454 26.1278
657 1 -1.1104 3.61397 19.1539 23.4113
659 1 -1.1104 3.5795 13.5448 23.2675
661 1 -1.1104 0.877662 19.1969 26.054
662 1 -1.1104 0.773376 16.2835 26.0941
663 1 -1.1104 0.732639 13.441 25.9733
665 2 2.2208 5.02964 20.4205 24.6412
666 2 2.2208 5.07061 14.9946 24.6634
668 1 -1.1104 0.904662 19.1709 23.4838
667 1 -1.1104 6.42335 13.6139 23.3083
688 1 -1.1104 9.45749 16.3354 23.1077
698 2 2.2208 10.7393 20.7278 24.6512
527 1 -1.1104 9.34427 19.3088 20.402
692 1 -1.1104 9.07249 13.5936 25.8515
708 2 2.2208 7.80489 14.9882 27.2821
695 1 -1.1104 9.27732 19.1454 23.4797
707 2 2.2208 10.7482 17.7057 27.5109
705 2 2.2208 10.6494 17.8797 21.7728
691 1 -1.1104 9.20228 19.0695 25.9811
687 1 -1.1104 9.32179 16.3066 25.9205
697 1 -1.1104 12.0921 16.295 25.9723
702 1 -1.1104 12.0525 13.5086 25.9775
701 1 -1.1104 12.1658 19.1472 26.1993
700 1 -1.1104 12.1925 16.3351 23.1957
664 1 -1.1104 6.54971 19.0343 23.2435
654 2 2.2208 13.5274 12.1027 24.6517
709 2 2.2208 13.5195 20.5595 21.7672
599 2 2.2208 13.5681 -1.87784 22.0655
601 2 2.2208 13.5929 3.61059 27.4698
711 2 2.2208 13.4986 14.8898 27.3283
710 2 2.2208 13.541 20.3971 27.4314
9748 2 2.2208 13.5942 14.8331 16.1138
652 2 2.2208 7.98186 9.2078 27.5306
567 2 2.2208 5.02183 -4.56654 21.9416
9678 2 2.2208 13.5172 9.27731 16.4208
655 2 2.2208 13.3588 9.45662 27.4913
9610 2 2.2208 13.5173 0.895995 19.1911
595 2 2.2208 10.6708 -4.70873 27.4574
367 2 2.2208 -0.370468 -4.5846 16.1868
402 2 2.2208 10.7189 -4.62226 16.3094
371 2 2.2208 -0.286941 -1.90068 19.1309
9647 2 2.2208 -0.368751 3.90569 19.1378
9719 2 2.2208 -0.390823 9.39347 19.1659
9679 2 2.2208 13.4906 6.56955 19.2317
714 2 2.2208 5.18892 23.3468 5.14732
715 2 2.2208 5.2373 28.99 5.07724
716 1 -1.1104 0.875128 24.6718 0.685234
717 1 -1.1104 0.768337 24.722 3.77961
718 1 -1.1104 0.944023 21.9277 0.785115
719 1 -1.1104 0.821278 27.4642 0.958212
720 2 2.2208 5.02587 26.2444 2.38831
721 1 -1.1104 0.918625 22.0425 3.65662
722 1 -1.1104 0.766335 27.4088 3.8743
723 1 -1.1104 3.61509 24.7236 0.950663
724 2 2.2208 2.38085 23.397 2.36696
725 2 2.2208 2.28717 29.001 2.34593
726 1 -1.1104 3.5744 24.9274 3.62513
727 2 2.2208 2.422 26.1973 5.10532
728 1 -1.1104 3.90606 21.9278 0.711221
729 1 -1.1104 3.81099 27.6425 0.846952
730 1 -1.1104 3.7121 21.9961 3.60504
731 1 -1.1104 3.72799 27.6913 3.73302
863 1 -1.1104 3.80171 27.5069 6.39366
862 1 -1.1104 3.4826 22.0646 6.49281
857 1 -1.1104 0.86923 22.0939 6.4877
858 1 -1.1104 0.905129 27.7451 6.56841
861 1 -1.1104 3.8286 24.7738 6.47028
855 1 -1.1104 1.00535 24.9364 6.50459
860 1 -1.1104 6.57199 27.6475 6.3944
859 1 -1.1104 6.50206 22.0456 6.55824
738 1 -1.1104 6.48897 27.4921 0.940139
735 1 -1.1104 6.45988 24.7894 1.02322
736 1 -1.1104 6.45202 24.7446 3.66441
739 1 -1.1104 6.34526 21.9316 3.63272
737 1 -1.1104 6.59468 21.9224 0.857624
856 1 -1.1104 6.67439 24.8759 6.57133
740 1 -1.1104 6.5691 27.5188 3.68328
741 2 2.2208 10.6851 23.4948 5.04763
742 2 2.2208 10.7548 28.8842 4.98493
743 1 -1.1104 12.1181 24.5632 0.775877
744 1 -1.1104 12.0715 24.6745 3.70027
745 1 -1.1104 12.0538 21.8473 0.77935
746 1 -1.1104 12.2587 27.5507 0.869008
747 2 2.2208 10.8103 26.0482 2.08618
748 1 -1.1104 12.1674 21.8033 3.51931
749 1 -1.1104 12.1367 27.5725 3.64648
750 1 -1.1104 9.42712 24.7561 0.842366
751 2 2.2208 7.75962 23.1783 2.24917
752 2 2.2208 7.97669 28.8852 2.21542
753 1 -1.1104 9.21372 24.7648 3.45772
754 2 2.2208 7.90081 26.1022 4.93559
755 1 -1.1104 9.31153 22.0087 0.708328
756 1 -1.1104 9.22329 27.4175 0.954223
757 1 -1.1104 9.34844 22.1401 3.62346
758 1 -1.1104 9.2714 27.6757 3.5931
890 1 -1.1104 12.1337 27.5684 6.46311
889 1 -1.1104 12.238 21.9014 6.45605
892 1 -1.1104 9.47332 21.9914 6.54641
893 1 -1.1104 9.5654 27.3748 6.31008
891 1 -1.1104 9.22652 24.8564 6.21631
888 1 -1.1104 12.2458 24.6952 6.63448
10361 2 2.2208 -0.224003 26.2508 13.4785
10263 2 2.2208 13.501 28.9304 13.5708
10166 2 2.2208 13.3855 31.7098 10.7724
762 2 2.2208 5.13475 34.752 5.05341
763 1 -1.1104 0.896374 30.2392 0.927602
764 1 -1.1104 0.85925 35.9482 0.870596
766 1 -1.1104 0.959438 30.2715 3.53929
767 1 -1.1104 1.00021 36.1435 3.46106
769 1 -1.1104 0.902624 33.0933 0.95283
770 2 2.2208 5.22143 31.7864 2.31728
771 2 2.2208 5.12806 37.4106 2.21074
772 1 -1.1104 0.963465 33.2068 3.77547
774 1 -1.1104 3.78245 30.3973 0.885217
775 1 -1.1104 3.72671 35.932 0.762586
776 2 2.2208 2.42151 34.5207 2.2462
777 1 -1.1104 3.65452 30.54 3.64853
778 1 -1.1104 3.65457 36.0128 3.67807
779 2 2.2208 2.30689 31.801 5.08051
780 2 2.2208 2.34746 37.3366 5.03299
781 1 -1.1104 3.7879 33.1311 1.02825
782 1 -1.1104 3.87285 33.2788 3.75657
912 1 -1.1104 0.886531 30.3885 6.31959
919 1 -1.1104 3.66132 36.0333 6.50505
916 1 -1.1104 0.788621 33.2015 6.54472
913 1 -1.1104 0.80615 35.814 6.46568
918 1 -1.1104 3.82855 30.3623 6.41435
915 1 -1.1104 6.55228 36.1393 6.45173
787 1 -1.1104 6.48562 30.2187 3.52924
786 1 -1.1104 6.47788 30.3432 0.738513
917 1 -1.1104 6.53478 33.1903 6.40356
920 1 -1.1104 3.61464 33.2981 6.48801
788 1 -1.1104 6.47389 33.0516 0.85158
773 1 -1.1104 6.56975 33.3013 3.74871
765 1 -1.1104 6.50197 35.826 0.93776