ITEM: TIMESTEP
70000
ITEM: NUMBER OF ATOMS
17910
ITEM: BOX BOUNDS pp pp pp
-3.9481193631865658e-01 2.7734811936318494e+01
-4.7502651813700147e+00 3.3283026518137376e+02
-3.9623049524328957e-01 2.7736230495243223e+01
ITEM: ATOMS id type q x y z
1 2 2.2208 5.59775 0.916352 5.45858
2 1 -1.1104 1.24529 -3.26187 1.14997
3 1 -1.1104 1.51405 2.33555 1.16088
6 1 -1.1104 1.19448 -3.21834 3.90874
7 1 -1.1104 1.37828 2.48821 3.87404
10 1 -1.1104 1.2526 -0.411246 1.01413
12 2 2.2208 5.45057 -1.73555 2.54723
14 1 -1.1104 1.34323 -0.46894 4.04137
16 1 -1.1104 4.1876 -3.30654 1.36174
17 1 -1.1104 4.0943 2.27898 1.09837
18 2 2.2208 2.60226 0.974167 2.4871
19 1 -1.1104 4.09144 -3.14977 4.1376
20 1 -1.1104 4.05958 2.27045 4.16369
21 2 2.2208 2.60803 -1.80296 5.44603
23 1 -1.1104 4.07476 -0.462187 1.18982
24 1 -1.1104 4.06668 -0.272881 4.09673
13 2 2.2208 5.49987 3.56749 2.65885
22 2 2.2208 2.70127 3.70463 5.52736
562 2 2.2208 2.60911 -1.93156 -0.182428
25 2 2.2208 -0.0267385 -1.94128 2.59858
27 2 2.2208 0.0335441 3.78604 2.47933
569 2 2.2208 -0.109605 0.936727 -0.377183
26 2 2.2208 0.0303776 0.890694 5.47767
563 2 2.2208 2.7953 3.77448 -0.299109
15 1 -1.1104 7.01421 -0.412368 4.02941
8 1 -1.1104 6.91136 -3.15045 3.89919
5 1 -1.1104 6.84621 2.28821 1.23015
11 1 -1.1104 6.92259 -0.483607 1.32399
202 2 2.2208 2.78986 -4.69564 8.22727
9 1 -1.1104 6.8698 2.36644 3.99118
4 1 -1.1104 6.91766 -3.43261 1.14486
31 2 2.2208 11.0371 0.806136 5.30401
32 1 -1.1104 12.6513 -3.51699 1.04775
33 1 -1.1104 12.6754 2.14541 1.10807
34 1 -1.1104 12.4298 -3.54589 4.16276
35 1 -1.1104 12.2942 2.20807 3.96755
36 1 -1.1104 12.3266 -0.622103 0.904783
37 2 2.2208 11.1462 -2.06171 2.52346
39 1 -1.1104 12.4747 -0.674349 3.80795
40 1 -1.1104 9.91427 -3.40563 1.11085
41 1 -1.1104 9.84296 2.40792 1.10854
42 2 2.2208 8.33838 1.01862 2.56507
43 1 -1.1104 9.76611 -3.3552 4.02135
44 1 -1.1104 9.6164 2.47868 3.9904
45 2 2.2208 8.39562 -1.93081 5.30542
46 2 2.2208 8.212 3.74547 5.42578
47 1 -1.1104 9.65257 -0.613386 1.29005
48 1 -1.1104 9.82165 -0.527494 4.10059
38 2 2.2208 11.0787 3.7768 2.63615
652 2 2.2208 8.38671 9.35146 -0.300884
169 1 -1.1104 6.8274 2.32416 6.74271
171 1 -1.1104 7.02296 -0.543937 6.85994
208 1 -1.1104 9.90817 -3.35002 6.711
81 2 2.2208 -0.186923 6.5115 5.38624
627 2 2.2208 2.73655 9.52473 -0.1266
707 2 2.2208 11.0178 17.8165 -0.178565
82 2 2.2208 -0.0569022 9.3531 2.46023
564 2 2.2208 -0.08639 -4.62532 -0.387613
54 2 2.2208 5.53327 6.60032 5.2872
55 2 2.2208 5.67234 12.2054 5.2725
56 1 -1.1104 1.23444 8.08543 0.945921
58 1 -1.1104 1.16785 8.14488 3.79159
60 1 -1.1104 1.51083 5.15583 1.17869
61 1 -1.1104 1.40318 10.8576 1.26708
66 2 2.2208 5.50787 9.59117 2.66609
67 1 -1.1104 1.32709 5.32783 3.89797
68 1 -1.1104 1.50226 10.8073 4.01068
71 1 -1.1104 4.11368 7.87077 1.13267
72 2 2.2208 2.78876 6.4568 2.50228
73 2 2.2208 2.70517 12.1393 2.62515
74 1 -1.1104 4.03857 8.01038 3.95885
75 2 2.2208 2.80061 9.36427 5.334
76 1 -1.1104 4.21366 5.19319 1.08101
77 1 -1.1104 4.2639 10.743 1.27373
79 1 -1.1104 4.13901 5.18076 3.9589
80 1 -1.1104 4.10605 10.8857 3.94284
29 2 2.2208 5.6692 -4.6615 5.3342
83 2 2.2208 -0.0907652 12.0707 5.42082
28 2 2.2208 2.86427 -4.71955 2.6298
651 2 2.2208 11.1413 6.70425 -0.124035
63 1 -1.1104 7.09205 5.05861 1.2266
59 1 -1.1104 6.83833 8.19982 4.11947
69 1 -1.1104 6.94554 5.12751 3.83939
57 1 -1.1104 6.93131 7.89673 1.45865
70 1 -1.1104 6.90601 10.7752 3.83986
64 1 -1.1104 7.03436 10.7287 0.91355
84 2 2.2208 11.0139 6.57311 5.41236
85 2 2.2208 11.2124 12.3515 5.55423
86 1 -1.1104 12.5157 7.85733 1.1253
87 1 -1.1104 12.5474 7.98867 4.01025
88 1 -1.1104 12.796 5.15873 1.13936
89 1 -1.1104 12.5782 10.7408 1.29457
91 2 2.2208 11.0966 9.41823 2.60055
92 1 -1.1104 12.4753 4.99828 3.94375
93 1 -1.1104 12.5637 10.8874 3.9857
94 1 -1.1104 9.64672 8.06306 1.38602
95 2 2.2208 8.21814 6.52191 2.57439
96 2 2.2208 8.36857 12.1914 2.56406
97 1 -1.1104 9.85402 8.0759 4.24176
98 2 2.2208 8.40139 9.31388 5.53712
99 1 -1.1104 9.98243 5.2171 1.24418
100 1 -1.1104 9.83828 10.6903 1.08086
102 1 -1.1104 9.8166 5.33217 3.96018
103 1 -1.1104 9.71299 10.9454 4.02005
136 2 2.2208 -0.340947 20.5703 2.56684
265 1 -1.1104 12.5626 7.95172 6.893
267 1 -1.1104 9.78805 7.9659 6.98517
137 2 2.2208 -0.108916 17.7833 5.51299
106 2 2.2208 5.45378 17.6313 5.24919
107 1 -1.1104 1.31704 13.6676 0.975856
109 1 -1.1104 1.2207 19.3382 1.12326
113 1 -1.1104 1.41178 13.5501 3.91036
114 1 -1.1104 1.23358 19.2207 3.96723
116 1 -1.1104 1.40925 16.4225 1.21235
119 2 2.2208 5.54298 14.8578 2.48944
120 2 2.2208 5.43615 20.4439 2.29909
121 1 -1.1104 1.24328 16.4493 4.11028
123 1 -1.1104 4.09228 13.5184 1.11129
125 1 -1.1104 3.83629 19.1482 1.1693
127 2 2.2208 2.66869 17.7029 2.55183
128 1 -1.1104 4.30721 13.5706 3.91106
129 1 -1.1104 4.10311 19.007 3.90708
130 2 2.2208 2.65686 14.9553 5.33498
131 2 2.2208 2.7412 20.5455 5.29881
132 1 -1.1104 4.14176 16.3706 1.00361
134 1 -1.1104 4.03454 16.2219 3.83618
30 2 2.2208 -0.0245414 -4.60827 5.40311
139 1 -1.1104 6.96843 19.3844 3.75388
126 1 -1.1104 3.993 19.128 6.75714
117 1 -1.1104 1.15158 16.255 6.80687
135 2 2.2208 0.034 14.9649 2.55253
108 1 -1.1104 1.27123 13.5153 6.67758
9793 2 2.2208 -0.0518172 20.6866 13.6611
324 2 2.2208 10.9911 20.5845 8.05086
331 2 2.2208 10.9959 17.8778 11.0477
325 2 2.2208 11.0461 15.0087 8.20949
632 2 2.2208 -0.0623673 6.6762 -0.274447
115 1 -1.1104 7.07164 13.5928 3.98784
138 1 -1.1104 6.6506 19.1518 0.893579
140 1 -1.1104 6.86157 16.3275 1.06968
122 1 -1.1104 6.9051 16.347 3.81624
110 1 -1.1104 7.05799 13.5171 1.16354
141 2 2.2208 11.1475 17.7918 5.2351
142 1 -1.1104 12.4919 13.7251 1.16391
144 1 -1.1104 12.4533 19.2699 1.21793
146 1 -1.1104 12.587 13.6262 3.94427
147 1 -1.1104 12.2867 19.3319 3.98878
148 1 -1.1104 12.5606 16.5524 1.01882
150 2 2.2208 11.0465 14.9962 2.638
151 2 2.2208 11.0588 20.7032 2.57294
152 1 -1.1104 12.5752 16.4613 3.98108
153 1 -1.1104 9.76407 13.5349 1.33448
155 1 -1.1104 9.3478 19.1207 1.11765
157 2 2.2208 8.33706 17.8217 2.62184
158 1 -1.1104 9.80287 13.6858 4.16819
159 1 -1.1104 9.61983 19.2788 3.80462
160 2 2.2208 8.34611 15.1106 5.32195
161 2 2.2208 8.19247 20.7835 5.40833
162 1 -1.1104 9.73294 16.316 1.29765
164 1 -1.1104 9.72293 16.4764 4.00092
154 1 -1.1104 9.69575 13.6067 6.83175
200 2 2.2208 -0.00488794 -1.80484 8.42817
201 2 2.2208 -0.316711 0.909202 11.0135
167 1 -1.1104 1.21257 2.37091 6.81235
174 1 -1.1104 4.00785 -0.467208 6.81086
166 1 -1.1104 1.25432 -3.08235 6.80136
173 1 -1.1104 4.05796 2.42294 6.89844
170 1 -1.1104 1.26406 -0.415889 6.96637
172 1 -1.1104 4.27428 -3.32571 6.82083
175 2 2.2208 5.41101 0.835319 11.1271
176 1 -1.1104 1.33784 -3.2443 12.3567
177 1 -1.1104 1.13411 2.40981 12.391
180 1 -1.1104 1.18474 -3.24763 9.61748
181 1 -1.1104 1.12585 2.23311 9.70462
184 1 -1.1104 1.30368 -0.50418 12.5341
186 2 2.2208 5.61022 -1.91484 8.26972
188 1 -1.1104 1.3203 -0.625102 9.87671
190 1 -1.1104 4.15574 -3.29703 12.3669
191 1 -1.1104 3.98364 2.41932 12.4814
192 2 2.2208 2.6455 0.908856 8.18677
193 1 -1.1104 4.06042 -3.48726 9.69752
194 1 -1.1104 4.07465 2.2443 9.73611
195 2 2.2208 2.8374 -2.00672 11.0525
197 1 -1.1104 3.90687 -0.387849 12.408
198 1 -1.1104 4.07881 -0.443734 9.51343
196 2 2.2208 2.63617 3.59332 11.0516
187 2 2.2208 5.3622 3.7075 8.19106
199 2 2.2208 -0.138943 3.73974 8.12782
168 1 -1.1104 7.02546 -3.36275 6.79306
189 1 -1.1104 6.96962 -0.473716 9.73585
178 1 -1.1104 6.84405 -3.28567 12.194
182 1 -1.1104 6.98517 -3.34639 9.29978
209 1 -1.1104 9.59864 2.2511 6.83847
207 1 -1.1104 12.5611 -0.513759 6.68519
210 1 -1.1104 9.68948 -0.57481 6.97874
185 1 -1.1104 6.76971 -0.491775 12.3851
183 1 -1.1104 6.8448 2.38302 9.50814
179 1 -1.1104 6.88836 2.17736 12.3903
206 1 -1.1104 12.4709 2.28728 6.74749
205 1 -1.1104 12.8602 -3.22806 6.83936
211 2 2.2208 11.0637 0.951587 11.0524
212 1 -1.1104 12.4851 -3.44911 12.2146
213 1 -1.1104 12.3991 2.41198 12.4386
214 1 -1.1104 12.3388 -3.31197 9.57793
215 1 -1.1104 12.4747 2.50521 9.57699
216 1 -1.1104 12.4714 -0.514273 12.388
217 2 2.2208 11.1862 -1.86655 8.16547
219 1 -1.1104 12.5895 -0.516289 9.65807
220 1 -1.1104 9.64596 -3.62195 12.42
221 1 -1.1104 9.52694 2.13904 12.4727
222 2 2.2208 8.34272 0.861301 8.28979
223 1 -1.1104 9.5972 -3.37876 9.57268
224 1 -1.1104 9.83791 2.24168 9.57817
225 2 2.2208 8.36768 -1.90321 10.9069
227 1 -1.1104 9.51352 -0.670826 12.4359
228 1 -1.1104 9.83047 -0.506189 9.58245
226 2 2.2208 8.29049 3.56506 10.8983
218 2 2.2208 11.0585 3.73102 8.10556
561 2 2.2208 5.52494 1.01678 -0.165825
9508 2 2.2208 -0.212629 9.26529 8.01399
62 1 -1.1104 1.45059 10.7059 6.8142
236 1 -1.1104 1.26453 5.22861 6.59926
238 1 -1.1104 3.98311 8.22393 6.86021
78 1 -1.1104 4.38604 10.9123 6.77237
234 1 -1.1104 1.17956 8.02721 6.576
239 1 -1.1104 4.20445 5.20811 6.78073
240 2 2.2208 5.34252 6.50264 11.0412
241 2 2.2208 5.47735 12.1198 10.9559
242 1 -1.1104 1.14541 7.87043 12.3188
244 1 -1.1104 1.14102 7.85774 9.40851
246 1 -1.1104 1.07653 5.19141 12.3623
247 1 -1.1104 1.1495 10.7514 12.3414
250 2 2.2208 5.54368 9.38694 8.1342
251 1 -1.1104 1.20361 5.05776 9.62942
252 1 -1.1104 1.14641 10.6245 9.65561
255 1 -1.1104 4.09959 7.9694 12.4515
256 2 2.2208 2.66827 6.58369 8.04823
257 2 2.2208 2.68045 12.1342 8.15642
258 1 -1.1104 3.91358 7.89349 9.63914
259 2 2.2208 2.64963 9.28437 10.8495
260 1 -1.1104 4.07845 5.14555 12.3702
261 1 -1.1104 4.00095 10.6844 12.4975
262 1 -1.1104 4.00679 4.99421 9.50723
263 1 -1.1104 4.03446 10.7213 9.57053
9501 2 2.2208 -0.119576 12.1489 10.8066
9509 2 2.2208 -0.190533 6.48823 10.9642
706 2 2.2208 8.25162 20.521 -0.355424
249 1 -1.1104 6.72424 10.6895 12.3246
253 1 -1.1104 6.66265 5.18592 9.44891
237 1 -1.1104 6.89538 5.03275 6.63203
235 1 -1.1104 6.78069 7.99298 6.74673
269 1 -1.1104 9.66784 5.11807 6.73646
90 1 -1.1104 12.5563 10.8531 6.81392
101 1 -1.1104 9.71664 10.693 6.95863
65 1 -1.1104 7.052 10.9317 6.75485
248 1 -1.1104 7.00156 5.03521 12.3485
243 1 -1.1104 7.02442 7.86993 12.2623
254 1 -1.1104 6.879 10.7224 9.58142
245 1 -1.1104 6.90971 7.86478 9.53913
266 1 -1.1104 12.5562 5.18342 6.93065
264 1 -1.1104 9.65514 10.6139 9.60302
268 1 -1.1104 9.48889 5.00152 9.43143
270 1 -1.1104 9.62524 10.5932 12.4811
271 1 -1.1104 9.82528 4.95156 12.3443
272 2 2.2208 8.33456 9.3354 11.0793
273 1 -1.1104 9.8647 7.8952 9.76418
274 2 2.2208 8.41409 12.2762 8.21032
275 2 2.2208 8.2253 6.46997 8.16011
276 2 2.2208 11.142 6.52436 11.0706
277 2 2.2208 10.9618 12.1096 11.0489
278 1 -1.1104 12.5674 7.82167 12.5098
279 1 -1.1104 12.6273 8.06958 9.58602
280 1 -1.1104 12.557 5.18044 12.3393
281 1 -1.1104 12.3336 10.7917 12.454
282 2 2.2208 11.1592 9.38951 8.36014
283 1 -1.1104 12.3323 5.28849 9.61777
284 1 -1.1104 12.5568 10.7887 9.70436
285 1 -1.1104 9.7107 7.74014 12.4512
319 1 -1.1104 9.52933 13.598 9.71205
313 2 2.2208 -0.192901 14.9885 8.24102
124 1 -1.1104 3.92156 13.7863 6.71057
302 1 -1.1104 1.23966 19.225 6.74804
133 1 -1.1104 4.03063 16.4652 6.8374
286 1 -1.1104 4.1454 19.2633 12.3866
287 1 -1.1104 4.14415 13.578 12.284
291 1 -1.1104 1.35908 19.2456 9.58719
292 1 -1.1104 1.45596 16.4578 9.51272
293 2 2.2208 5.44308 20.4633 8.05301
294 1 -1.1104 1.03826 13.5112 9.40761
295 2 2.2208 5.46854 14.9946 8.24409
298 1 -1.1104 1.41357 18.9431 12.2397
299 1 -1.1104 1.33489 13.5189 12.111
300 2 2.2208 5.44359 17.7058 10.9579
301 1 -1.1104 4.1354 19.153 9.57982
303 2 2.2208 2.74188 17.7778 8.18414
304 1 -1.1104 4.1606 16.3063 9.55122
305 1 -1.1104 3.83737 13.3804 9.55458
307 1 -1.1104 1.20704 16.3151 12.3406
308 1 -1.1104 4.04597 16.5918 12.2488
309 2 2.2208 2.83731 20.5266 11.0754
310 2 2.2208 2.6726 15.0398 10.9459
312 2 2.2208 -0.0193191 17.7338 10.9243
311 2 2.2208 0.00792112 20.5472 8.0906
326 1 -1.1104 12.6797 16.3495 12.6402
296 1 -1.1104 7.03118 19.1891 12.4866
290 1 -1.1104 6.78962 13.5976 9.68629
288 1 -1.1104 6.90324 19.1818 9.59464
112 1 -1.1104 6.74794 19.1154 6.61283
111 1 -1.1104 6.79095 13.5858 6.963
316 2 2.2208 8.19421 20.5712 10.9994
143 1 -1.1104 12.8287 13.5285 6.77779
329 1 -1.1104 12.6441 19.1248 12.4661
323 1 -1.1104 12.3949 16.4711 9.75675
315 1 -1.1104 9.83659 16.1858 12.2326
314 1 -1.1104 9.60711 16.3297 9.51908
322 1 -1.1104 9.68844 13.4902 12.5308
118 1 -1.1104 6.93681 16.3935 6.56822
289 1 -1.1104 6.77395 16.4788 9.53382
306 1 -1.1104 6.90352 16.2265 12.4954
297 1 -1.1104 6.94965 13.4359 12.5265
320 2 2.2208 8.26535 17.7505 8.05324
149 1 -1.1104 12.536 16.2731 6.94811
328 1 -1.1104 12.3564 13.6736 9.59449
317 2 2.2208 8.23858 15.0658 11.034
321 1 -1.1104 9.75416 18.997 12.6354
163 1 -1.1104 9.70624 16.1935 6.6912
156 1 -1.1104 9.66431 19.1053 6.56265
318 1 -1.1104 9.55965 18.9051 9.5945
327 1 -1.1104 12.6483 19.2713 9.68134
330 1 -1.1104 12.5055 13.705 12.3972
145 1 -1.1104 12.4432 19.1681 6.79104
653 2 2.2208 11.234 12.1275 -0.241802
204 2 2.2208 -0.139367 -4.69749 11.1113
593 2 2.2208 8.36868 3.64958 -0.270818
708 2 2.2208 8.35233 15.0452 -0.228121
629 2 2.2208 -0.0428857 12.1913 -0.218943
51 2 2.2208 8.42154 -4.70597 2.46655
680 2 2.2208 2.53894 20.6549 -0.321615
628 2 2.2208 5.52002 12.1807 -0.299497
592 2 2.2208 8.37999 -2.01661 -0.233729
9792 2 2.2208 -0.0621659 14.87 13.6578
682 2 2.2208 2.64924 15.0122 -0.336665
591 2 2.2208 11.1918 0.980089 -0.287912
684 2 2.2208 -0.170979 17.8355 -0.218926
334 2 2.2208 5.5349 0.764905 16.5774
335 1 -1.1104 1.36631 -3.30467 18.1633
336 1 -1.1104 1.12256 2.45206 17.9907
339 1 -1.1104 1.3098 -3.23012 15.2796
341 1 -1.1104 1.28348 2.42562 15.3558
347 1 -1.1104 1.36933 -0.406653 18.038
349 2 2.2208 5.49088 -1.74476 19.4607
351 1 -1.1104 1.35777 -0.302589 15.1212
355 1 -1.1104 4.12079 -3.15929 17.9842
356 1 -1.1104 4.10972 2.47767 17.9353
357 2 2.2208 2.71321 1.11993 19.4187
358 1 -1.1104 4.19697 -3.42232 15.1569
360 1 -1.1104 4.01822 2.03464 15.379
362 2 2.2208 2.69195 -1.84918 16.6641
364 1 -1.1104 4.1999 -0.458225 17.9956
365 1 -1.1104 4.23277 -0.633415 15.2311
363 2 2.2208 2.76046 3.78625 16.3548
350 2 2.2208 5.60798 3.62878 19.3272
371 2 2.2208 0.0358434 -1.76967 19.445
9723 2 2.2208 -0.210256 9.27437 13.7186
9647 2 2.2208 -0.203645 3.77427 19.4193
9651 2 2.2208 -0.0963093 3.7581 13.8186
444 2 2.2208 5.41187 9.40534 13.7025
370 2 2.2208 -0.160265 1.06815 16.6077
359 1 -1.1104 4.04497 -3.30238 20.7994
372 2 2.2208 -0.0485281 -1.65399 13.9757
375 2 2.2208 2.54812 0.90235 13.8044
345 1 -1.1104 6.87862 2.28837 15.3297
348 1 -1.1104 6.97477 -0.388777 17.9865
338 1 -1.1104 6.85914 2.41085 18.0385
337 1 -1.1104 6.92299 -3.29279 17.8136
343 1 -1.1104 6.99017 -3.3092 14.9522
408 2 2.2208 11.0981 -1.95979 13.6215
353 1 -1.1104 6.96626 -0.55413 15.2109
377 2 2.2208 11.1974 0.916665 16.5436
378 1 -1.1104 12.6455 -3.2935 17.9227
379 1 -1.1104 12.5386 2.29175 18.0374
380 1 -1.1104 12.705 -3.34419 15.1201
382 1 -1.1104 12.4203 2.35549 15.2431
384 1 -1.1104 12.5933 -0.603611 17.9904
385 2 2.2208 10.9563 -1.94076 19.5023
387 1 -1.1104 12.5198 -0.500868 15.1387
389 1 -1.1104 9.81314 -3.18229 17.9354
390 1 -1.1104 9.75935 2.34064 18.0873
391 2 2.2208 8.33779 1.01871 19.2774
392 1 -1.1104 9.88201 -3.3031 15.0048
394 1 -1.1104 9.662 2.30148 15.1772
396 2 2.2208 8.45376 -1.81877 16.4648
398 1 -1.1104 9.70561 -0.363206 17.9603
399 1 -1.1104 9.88166 -0.468066 15.2848
386 2 2.2208 11.1482 3.77574 19.4599
397 2 2.2208 8.36114 3.74773 16.6491
346 1 -1.1104 7.0453 2.39056 20.8464
409 2 2.2208 11.0673 3.72213 13.8653
410 2 2.2208 5.63638 6.47998 16.4929
411 2 2.2208 5.42776 12.1964 16.7006
412 1 -1.1104 1.09322 8.10324 17.9623
414 1 -1.1104 1.19285 7.92458 15.0714
418 1 -1.1104 1.44407 5.31386 17.7261
419 1 -1.1104 1.27702 10.7682 17.9687
422 2 2.2208 5.39645 9.31788 19.4436
423 1 -1.1104 1.39418 5.18877 15.1972
425 1 -1.1104 1.13042 10.7994 15.1186
431 1 -1.1104 4.06207 7.87307 17.9331
432 2 2.2208 2.74723 6.61753 19.23
433 2 2.2208 2.57219 12.1486 19.4182
434 1 -1.1104 4.11161 7.79959 15.3093
436 2 2.2208 2.66643 9.31587 16.5461
437 1 -1.1104 4.17479 5.28896 17.7974
438 1 -1.1104 4.01372 10.6529 18.0999
439 1 -1.1104 4.07913 4.96998 15.0212
441 1 -1.1104 4.05914 10.697 15.3647
691 1 -1.1104 9.66031 19.2958 26.409
9720 2 2.2208 -0.102149 6.55745 16.4886
472 2 2.2208 8.23646 12.0757 13.8854
9719 2 2.2208 -0.163314 9.34066 19.4787
9685 2 2.2208 -0.313461 12.1678 16.5915
535 2 2.2208 8.28331 17.5666 13.9016
664 1 -1.1104 6.74198 19.0887 23.7904
421 1 -1.1104 6.82911 10.7046 18.1181
429 1 -1.1104 6.83802 10.6221 15.0678
508 2 2.2208 5.53614 14.712 13.799
413 1 -1.1104 6.92849 7.96855 17.972
420 1 -1.1104 7.12947 5.13481 18.0973
427 1 -1.1104 6.93402 5.00168 15.1346
416 1 -1.1104 6.90616 7.76302 15.0861
446 2 2.2208 11.216 6.43005 16.4896
447 2 2.2208 11.0294 12.1442 16.7008
448 1 -1.1104 12.5798 7.87946 17.8353
449 1 -1.1104 12.7522 7.8662 15.2842
451 1 -1.1104 12.5909 5.08159 18.0147
452 1 -1.1104 12.5028 10.6651 18.085
453 2 2.2208 11.0236 9.27614 19.5234
454 1 -1.1104 12.4891 5.17806 15.0651
456 1 -1.1104 12.5656 10.7583 15.1994
458 1 -1.1104 9.72742 7.84277 18.1453
459 2 2.2208 8.31334 6.50453 19.4271
460 2 2.2208 8.21159 12.0498 19.435
461 1 -1.1104 9.77404 7.97372 15.2352
463 2 2.2208 8.22087 9.30558 16.6155
464 1 -1.1104 9.85319 5.05294 17.9221
465 1 -1.1104 9.51223 10.6514 17.9848
466 1 -1.1104 9.69984 5.02408 15.2308
468 1 -1.1104 9.67785 10.698 15.1312
467 1 -1.1104 9.51727 5.3091 20.8564
462 1 -1.1104 9.94615 7.95158 20.9088
445 2 2.2208 2.47962 12.0782 13.8993
368 2 2.2208 5.42899 -4.54111 16.6783
376 2 2.2208 5.52412 3.58145 13.7515
9790 2 2.2208 -0.0937294 15.025 19.3773
473 2 2.2208 5.39745 17.7775 16.5785
474 1 -1.1104 1.23624 13.5321 18.0474
475 1 -1.1104 1.24638 19.2964 17.7479
478 1 -1.1104 1.32525 13.4395 15.305
480 1 -1.1104 1.33409 19.3916 15.0301
486 1 -1.1104 1.17919 16.4468 17.977
488 2 2.2208 5.5376 14.982 19.4025
489 2 2.2208 5.49814 20.4518 19.4508
490 1 -1.1104 1.15432 16.3547 15.1088
494 1 -1.1104 3.98526 13.6438 17.9803
495 1 -1.1104 3.95837 19.0487 17.9762
496 2 2.2208 2.56912 17.8785 19.2804
497 1 -1.1104 4.06073 13.4091 15.0582
499 1 -1.1104 3.97343 19.1033 15.2024
501 2 2.2208 2.68618 14.9012 16.5912
502 2 2.2208 2.77365 20.7426 16.5566
503 1 -1.1104 4.01939 16.2745 17.9071
504 1 -1.1104 4.09712 16.1952 15.0767
9791 2 2.2208 -0.149573 17.9485 16.472
9789 2 2.2208 0.133596 20.5215 19.3433
492 1 -1.1104 6.87075 16.2086 15.3966
491 1 -1.1104 1.34691 16.4103 20.7404
658 1 -1.1104 6.80915 13.5258 26.4587
482 1 -1.1104 6.97974 13.4719 15.2674
476 1 -1.1104 6.7083 13.4685 18.004
477 1 -1.1104 6.68536 19.1732 18.1294
484 1 -1.1104 6.82134 19.1667 15.3627
487 1 -1.1104 6.88888 16.3331 18.0472
509 2 2.2208 11.1007 17.6699 16.7076
510 1 -1.1104 12.6387 13.5208 18.07
511 1 -1.1104 12.409 19.1796 18.1704
512 1 -1.1104 12.615 13.6048 15.1399
514 1 -1.1104 12.4772 19.0923 15.2286
516 1 -1.1104 12.3444 16.3449 18.1188
517 2 2.2208 11.0619 15.0296 19.4708
518 2 2.2208 11.0256 20.6277 19.4047
519 1 -1.1104 12.538 16.366 15.4907
521 1 -1.1104 9.66547 13.4598 18.3048
522 1 -1.1104 9.604 19.2444 17.9878
523 2 2.2208 8.32422 17.6909 19.4108
524 1 -1.1104 9.78534 13.5244 15.3403
526 1 -1.1104 9.64324 19.0803 15.3316
528 2 2.2208 8.21224 14.9049 16.6453
529 2 2.2208 8.18648 20.7256 16.6317
530 1 -1.1104 9.73348 16.1666 18.0611
531 1 -1.1104 9.57057 16.2797 15.2259
667 1 -1.1104 6.81331 13.3842 23.5151
369 2 2.2208 2.75669 -4.67543 19.5139
515 1 -1.1104 12.6881 19.0656 20.8788
520 1 -1.1104 12.4552 16.3915 20.8983
366 1 -1.1104 4.24834 -0.370048 20.6992
701 1 -1.1104 12.5077 18.9482 26.6238
342 1 -1.1104 1.27142 2.44248 20.8957
361 1 -1.1104 4.21613 2.21403 20.7702
340 1 -1.1104 1.27545 -3.21644 20.984
352 1 -1.1104 1.43511 -0.384521 20.8902
537 2 2.2208 5.53077 0.969505 22.2623
538 1 -1.1104 1.37851 -3.41602 23.5785
539 1 -1.1104 1.33618 2.37954 23.61
542 1 -1.1104 1.27576 -3.14555 26.4736
543 1 -1.1104 1.39881 2.4313 26.3673
546 1 -1.1104 1.1209 -0.547353 23.5373
548 2 2.2208 5.42563 -1.81928 25.1182
549 2 2.2208 5.52524 3.76709 24.9659
550 1 -1.1104 1.24786 -0.336626 26.4445
552 1 -1.1104 4.16645 -3.28068 23.7724
553 1 -1.1104 3.97278 2.32154 23.5818
554 2 2.2208 2.72518 1.10549 25.047
555 1 -1.1104 4.18357 -3.39413 26.5758
556 1 -1.1104 4.19246 2.33736 26.3211
557 2 2.2208 2.60215 -1.9172 22.2736
559 1 -1.1104 3.92967 -0.641407 23.6608
560 1 -1.1104 3.85902 -0.589276 26.2965
558 2 2.2208 2.73157 3.8757 22.2338
571 2 2.2208 -0.0999623 1.04679 22.2662
572 2 2.2208 0.0166581 3.74511 25.1367
570 2 2.2208 -0.117789 -2.02314 25.0047
374 2 2.2208 5.62437 -2.01396 13.7597
388 1 -1.1104 12.5047 -0.400996 20.8776
400 1 -1.1104 9.6563 -0.474151 20.7109
545 1 -1.1104 6.90852 2.34456 26.4666
344 1 -1.1104 6.73686 -3.19671 20.6047
383 1 -1.1104 12.6532 2.26149 20.8161
354 1 -1.1104 6.92471 -0.263797 20.8724
540 1 -1.1104 6.78859 -3.22744 23.6508
541 1 -1.1104 6.83771 2.30561 23.7083
547 1 -1.1104 6.8631 -0.366211 23.7464
544 1 -1.1104 7.11417 -3.31165 26.5235
551 1 -1.1104 6.84391 -0.621617 26.7152
393 1 -1.1104 9.72527 -3.35662 20.9195
381 1 -1.1104 12.4641 -3.32939 20.8449
395 1 -1.1104 9.76681 2.40686 20.8928
573 2 2.2208 11.2026 1.01189 22.2731
574 1 -1.1104 12.5426 -3.35124 23.7578
575 1 -1.1104 12.3894 2.38337 23.5857
576 1 -1.1104 12.609 -3.27495 26.4392
577 1 -1.1104 12.5158 2.28552 26.4041
578 1 -1.1104 12.6317 -0.525963 23.715
579 2 2.2208 11.272 -1.75265 25.1314
581 1 -1.1104 12.8054 -0.561751 26.3563
582 1 -1.1104 9.68123 -3.13334 23.6682
583 1 -1.1104 9.73653 2.29016 23.7572
584 2 2.2208 8.30025 0.955205 25.1008
585 1 -1.1104 9.75905 -3.48715 26.4814
586 1 -1.1104 9.80481 2.24933 26.5009
587 2 2.2208 8.33496 -1.76404 22.278
589 1 -1.1104 9.70634 -0.3787 23.6007
590 1 -1.1104 9.64206 -0.56177 26.6394
580 2 2.2208 11.0503 3.78608 24.9719
588 2 2.2208 8.2302 3.76283 22.3488
660 1 -1.1104 7.10883 16.307 26.4344
9898 2 2.2208 -0.244819 6.54451 22.1775
424 1 -1.1104 1.21471 5.20313 20.7633
630 2 2.2208 -0.0523213 9.32736 25.0007
631 2 2.2208 -0.21263 12.2057 22.0838
440 1 -1.1104 3.94786 4.99232 20.6036
435 1 -1.1104 4.12345 7.91069 20.8386
442 1 -1.1104 4.14058 10.6784 20.8087
426 1 -1.1104 1.32541 10.7307 20.8795
415 1 -1.1104 1.40075 7.82012 20.7073
602 2 2.2208 5.2891 6.53504 22.2161
603 2 2.2208 5.48069 12.1561 22.2662
604 1 -1.1104 1.25395 7.861 23.6059
606 1 -1.1104 1.42753 7.95363 26.3892
608 1 -1.1104 1.23602 5.11169 23.7361
609 1 -1.1104 1.25846 10.8376 23.4872
612 2 2.2208 5.51354 9.30705 25.0221
613 1 -1.1104 1.37719 5.18477 26.5381
614 1 -1.1104 1.17779 10.8374 26.4072
617 1 -1.1104 3.93328 8.09412 23.5414
618 2 2.2208 2.71394 6.60213 25.0416
619 2 2.2208 2.58204 12.1516 24.9753
620 1 -1.1104 4.11437 7.86385 26.3692
621 2 2.2208 2.57895 9.36849 22.2135
622 1 -1.1104 4.02957 5.19015 23.7794
623 1 -1.1104 4.06619 10.7136 23.7473
624 1 -1.1104 4.09454 5.13355 26.5122
625 1 -1.1104 4.02971 10.9657 26.5419
693 1 -1.1104 6.75797 19.1459 26.337
430 1 -1.1104 6.92171 10.6037 20.8328
605 1 -1.1104 7.02608 7.80385 23.7532
611 1 -1.1104 7.09409 10.747 23.7008
417 1 -1.1104 6.65623 7.83463 20.7883
428 1 -1.1104 6.84064 5.01621 20.8987
610 1 -1.1104 6.80439 5.11064 23.6807
615 1 -1.1104 6.95623 5.17728 26.4894
607 1 -1.1104 6.80557 7.95203 26.4581
457 1 -1.1104 12.6647 10.8019 20.84
469 1 -1.1104 9.87311 10.7267 20.7761
616 1 -1.1104 6.65794 10.6646 26.3678
455 1 -1.1104 12.707 5.09004 20.8673
450 1 -1.1104 12.5876 7.77103 20.8671
633 1 -1.1104 9.53277 10.7509 26.373
634 1 -1.1104 9.91756 5.28963 26.4882
635 1 -1.1104 9.77333 10.7316 23.6158
636 1 -1.1104 9.53671 5.03705 23.7847
637 2 2.2208 8.42708 9.42982 22.2516
638 1 -1.1104 9.72963 7.99999 26.5429
639 2 2.2208 8.44967 12.2276 24.9613
640 2 2.2208 8.42332 6.61545 25.0988
641 2 2.2208 11.1765 6.5115 22.1523
642 2 2.2208 11.1066 12.1167 22.2491
643 1 -1.1104 12.7587 7.99325 23.6772
644 1 -1.1104 12.5301 7.82345 26.5008
645 1 -1.1104 12.2682 5.14279 23.5674
646 1 -1.1104 12.6138 10.727 23.6706
647 2 2.2208 11.2713 9.23007 24.9895
648 1 -1.1104 12.6624 5.11757 26.526
649 1 -1.1104 12.3687 10.7278 26.5536
650 1 -1.1104 9.86456 7.72827 23.5669
683 2 2.2208 -0.0538622 14.9482 24.9834
702 1 -1.1104 12.6443 13.4801 26.4768
686 2 2.2208 -0.135938 17.7624 22.1313
505 1 -1.1104 4.0919 16.4604 20.6575
481 1 -1.1104 1.4349 19.2178 20.6622
500 1 -1.1104 3.84453 19.2841 20.9818
479 1 -1.1104 1.25984 13.6362 20.7461
498 1 -1.1104 4.12932 13.609 20.6429
672 2 2.2208 2.80856 17.6635 24.908
677 1 -1.1104 4.14555 16.4154 23.5108
676 1 -1.1104 1.27333 16.1063 23.5372
671 1 -1.1104 3.9766 19.2228 26.5057
679 2 2.2208 2.61199 14.8589 22.0864
670 2 2.2208 5.37629 17.8703 22.1513
669 1 -1.1104 1.36385 13.3863 23.487
678 2 2.2208 2.61994 20.6397 22.2046
673 1 -1.1104 4.234 16.3209 26.2247
674 1 -1.1104 4.00857 13.6704 26.3848
657 1 -1.1104 3.93905 19.1273 23.6708
659 1 -1.1104 4.12111 13.6196 23.481
661 1 -1.1104 1.19905 19.2064 26.3551
662 1 -1.1104 1.37121 16.3177 26.5955
663 1 -1.1104 1.15927 13.5885 26.2677
665 2 2.2208 5.44349 20.5427 25.0196
666 2 2.2208 5.45426 14.8136 24.917
668 1 -1.1104 1.08757 19.1114 23.5162
685 2 2.2208 -0.0624682 20.5115 24.8036
704 1 -1.1104 12.4269 13.5071 23.6977
493 1 -1.1104 6.77979 16.5467 20.7772
485 1 -1.1104 6.726 19.2805 20.8818
527 1 -1.1104 9.73374 19.2608 20.702
698 2 2.2208 11.0922 20.5023 24.9705
692 1 -1.1104 9.79397 13.6172 26.4249
690 2 2.2208 8.28665 15.049 22.1419
483 1 -1.1104 6.90382 13.6543 20.8069
675 1 -1.1104 6.92383 16.2649 23.7283
525 1 -1.1104 9.75186 13.5623 20.921
699 2 2.2208 11.1179 14.9651 24.9753
697 1 -1.1104 12.6237 16.1931 26.4079
687 1 -1.1104 9.96708 16.2987 26.478
694 2 2.2208 8.18287 17.7477 24.9972
513 1 -1.1104 12.5635 13.536 20.869
695 1 -1.1104 9.64317 19.0149 23.4613
700 1 -1.1104 12.3936 16.2011 23.5914
689 2 2.2208 8.34874 20.6473 22.1589
532 1 -1.1104 9.50754 16.4734 20.8573
703 1 -1.1104 12.4861 19.0794 23.724
688 1 -1.1104 9.8061 16.3716 23.6046
705 2 2.2208 11.1372 17.8007 22.1951
696 1 -1.1104 9.50218 13.6445 23.7331
443 2 2.2208 2.76453 6.44297 13.8481
506 2 2.2208 2.59153 17.7392 13.8698
597 2 2.2208 8.3354 -4.62692 25.1599
533 2 2.2208 10.965 20.5211 13.872
567 2 2.2208 5.55908 -4.59105 22.3146
534 2 2.2208 11.138 14.9806 13.8923
470 2 2.2208 8.29567 6.39906 13.7487
507 2 2.2208 5.60684 20.532 13.8591
471 2 2.2208 11.1125 9.2593 13.9201
403 2 2.2208 8.39557 -4.72327 19.3804
568 2 2.2208 2.70209 -4.56538 25.0829
565 2 2.2208 -0.188561 -4.69666 22.2442
402 2 2.2208 11.1128 -4.67364 16.4659
407 2 2.2208 8.30457 0.812062 13.8746
626 2 2.2208 5.48329 6.48544 27.7094
681 2 2.2208 5.45237 17.6173 27.6591
714 2 2.2208 5.26115 23.2192 5.26994
715 2 2.2208 5.45955 29.0238 5.40228
716 1 -1.1104 1.14016 24.745 1.14814
717 1 -1.1104 1.16146 24.9444 3.96573
718 1 -1.1104 0.95759 22.1601 1.11634
719 1 -1.1104 1.07372 27.5253 0.913351
720 2 2.2208 5.38319 26.195 2.59225
721 1 -1.1104 1.26089 21.9106 3.82445
722 1 -1.1104 1.21295 27.7565 3.61511
723 1 -1.1104 3.85915 24.7414 1.15853
724 2 2.2208 2.43485 23.2749 2.3885
725 2 2.2208 2.61767 29.0572 2.49367
726 1 -1.1104 3.88174 24.6437 4.06685
727 2 2.2208 2.54566 26.2355 5.2123
728 1 -1.1104 3.88965 21.9132 0.954712
729 1 -1.1104 3.96801 27.4756 1.19684
730 1 -1.1104 4.11512 21.9488 3.74033
731 1 -1.1104 4.04223 27.7587 3.91578
736 1 -1.1104 6.75537 24.6574 4.031
855 1 -1.1104 1.38203 24.7039 6.60842
861 1 -1.1104 4.07503 24.8316 6.67803
733 2 2.2208 -0.0536616 23.3834 5.20584
732 2 2.2208 -0.182107 28.9847 5.14929
862 1 -1.1104 4.04792 21.8973 6.77432
945 2 2.2208 -0.24605 37.4095 8.17181
734 2 2.2208 -0.314375 26.2572 2.39075
1057 2 2.2208 5.35173 45.9395 -0.292982
738 1 -1.1104 6.76485 27.6727 1.00901
737 1 -1.1104 6.82639 21.9888 1.00975
739 1 -1.1104 6.94229 22.0149 3.88344
740 1 -1.1104 6.78113 27.5668 3.83899
735 1 -1.1104 6.8374 24.7112 1.10623
741 2 2.2208 11.1228 23.4327 5.36962
742 2 2.2208 10.9711 29.1196 5.30662
743 1 -1.1104 12.6916 24.7093 1.04359
744 1 -1.1104 12.4317 24.7702 3.893
745 1 -1.1104 12.4644 22.0904 1.07687
746 1 -1.1104 12.5035 27.5404 1.17371
747 2 2.2208 11.0508 26.0761 2.55624
748 1 -1.1104 12.6266 21.996 3.83902
749 1 -1.1104 12.5047 27.5372 3.93148
750 1 -1.1104 9.57975 24.7768 1.15422
751 2 2.2208 8.10337 23.303 2.53815
752 2 2.2208 8.23425 29.0851 2.48548
753 1 -1.1104 9.68853 24.7047 4.0379
754 2 2.2208 8.0839 26.1499 5.3181
755 1 -1.1104 9.67636 22.0545 1.11002
756 1 -1.1104 9.69245 27.6489 1.16949
757 1 -1.1104 9.58737 22.0228 4.09573
758 1 -1.1104 9.58708 27.442 3.94669
1305 2 2.2208 11.0194 23.4062 -0.331912
1053 2 2.2208 -0.0621426 34.6009 -0.317888
888 1 -1.1104 12.479 24.7113 6.74372
10044 2 2.2208 13.5894 43.1688 5.43291
1003 2 2.2208 -0.370896 42.9352 7.97195
1306 2 2.2208 8.16891 26.2352 -0.284723
762 2 2.2208 5.34785 34.6697 5.26402
763 1 -1.1104 1.05439 30.47 0.954837
764 1 -1.1104 1.1261 36.0672 1.11285
766 1 -1.1104 1.13774 30.5642 3.97337
767 1 -1.1104 1.35531 36.1767 3.92478
769 1 -1.1104 1.38622 33.2255 1.17646
770 2 2.2208 5.54896 31.9132 2.64867
771 2 2.2208 5.41128 37.5737 2.54033
772 1 -1.1104 1.38309 33.4528 3.89221
774 1 -1.1104 3.72472 30.5305 1.28244
775 1 -1.1104 4.18052 36.114 1.01472
776 2 2.2208 2.74007 34.7344 2.45171
777 1 -1.1104 3.96716 30.4919 3.91429
778 1 -1.1104 4.16342 36.0157 3.86865
779 2 2.2208 2.66083 31.9532 5.28667
780 2 2.2208 2.56232 37.6418 5.29026
781 1 -1.1104 4.12703 33.2379 1.07933
782 1 -1.1104 4.13459 33.2479 3.93594
918 1 -1.1104 3.8559 30.3946 6.6239
832 2 2.2208 -0.193895 43.0777 2.51315
913 1 -1.1104 1.09407 36.0657 6.73091
916 1 -1.1104 1.33697 33.3451 6.90093
1592 1 -1.1104 3.78151 47.1701 6.7898
1056 2 2.2208 8.07287 31.8512 -0.239467
1051 2 2.2208 2.59998 31.9033 -0.27818
783 2 2.2208 -0.230705 37.5747 2.38884
1060 2 2.2208 2.59396 43.1822 -0.273592
773 1 -1.1104 7.08493 33.4626 4.00145
786 1 -1.1104 6.83285 30.5116 1.30755
765 1 -1.1104 6.82344 36.2022 1.09145
787 1 -1.1104 6.83392 30.3073 4.08403
768 1 -1.1104 6.78668 36.2043 3.96587
788 1 -1.1104 6.86079 33.3043 1.12566
789 2 2.2208 11.109 34.7045 5.21255
790 1 -1.1104 12.3802 30.4749 0.971354
791 1 -1.1104 12.4339 36.0299 1.03548
792 1 -1.1104 12.3751 30.2916 3.71743
793 1 -1.1104 12.523 36.0818 3.82094
794 1 -1.1104 12.7086 33.28 1.02497
795 2 2.2208 11.1176 31.9061 2.39197
796 2 2.2208 11.1458 37.6029 2.44742
797 1 -1.1104 12.6012 33.2706 3.83186