ITEM: TIMESTEP
50000
ITEM: NUMBER OF ATOMS
17910
ITEM: BOX BOUNDS pp pp pp
-3.9645329405655294e-01 2.7736453294056506e+01
-4.7375468814449304e+00 3.3281754688144400e+02
-4.0247847434206424e-01 2.7742478474342281e+01
ITEM: ATOMS id type q x y z
1 2 2.2208 5.13793 0.64086 4.98522
2 1 -1.1104 0.78151 -3.51595 0.784616
3 1 -1.1104 0.722057 2.21877 0.74295
6 1 -1.1104 0.858058 -3.48704 3.47701
7 1 -1.1104 0.816779 2.10646 3.59348
10 1 -1.1104 0.940116 -0.475117 0.810404
12 2 2.2208 5.01128 -2.01544 2.33896
14 1 -1.1104 0.956087 -0.561888 3.63241
16 1 -1.1104 3.69177 -3.53159 1.04209
17 1 -1.1104 3.5609 2.21601 0.604468
18 2 2.2208 2.23625 0.845835 2.35455
19 1 -1.1104 3.74256 -3.56354 3.84024
20 1 -1.1104 3.84075 2.14172 3.33044
21 2 2.2208 2.20748 -2.05898 4.96114
23 1 -1.1104 3.61545 -0.545113 0.987972
24 1 -1.1104 3.63034 -0.770445 3.49743
13 2 2.2208 5.19652 3.50348 2.09711
22 2 2.2208 2.39924 3.68014 4.85877
9 1 -1.1104 6.47061 2.09651 3.69704
166 1 -1.1104 0.769461 -3.6732 6.39785
8 1 -1.1104 6.47163 -3.38132 3.62949
174 1 -1.1104 3.72217 -0.754966 6.11499
170 1 -1.1104 0.969756 -0.807103 6.40486
173 1 -1.1104 3.61203 2.14287 6.21663
167 1 -1.1104 0.870597 1.99936 6.44238
168 1 -1.1104 6.50084 -3.34924 6.57747
5 1 -1.1104 6.56696 2.26424 0.743405
172 1 -1.1104 3.76065 -3.45744 6.52839
169 1 -1.1104 6.52075 2.07153 6.40041
11 1 -1.1104 6.41433 -0.769082 0.709559
4 1 -1.1104 6.42605 -3.51448 0.755626
15 1 -1.1104 6.76904 -0.653421 3.44301
31 2 2.2208 10.7836 0.741217 5.13434
32 1 -1.1104 12.2737 -3.46373 1.1284
33 1 -1.1104 11.9815 2.23555 0.988259
34 1 -1.1104 12.173 -3.57422 3.85771
35 1 -1.1104 12.1736 2.32865 3.583
36 1 -1.1104 12.3229 -0.605993 0.922472
37 2 2.2208 10.7687 -2.13943 2.26733
39 1 -1.1104 12.0478 -0.587062 3.77435
40 1 -1.1104 9.39784 -3.50588 1.00218
41 1 -1.1104 9.2656 2.10619 0.957247
42 2 2.2208 7.98217 0.702582 2.11301
43 1 -1.1104 9.54337 -3.35775 3.87348
44 1 -1.1104 9.29817 2.05253 3.72302
45 2 2.2208 7.92631 -1.99132 5.08346
46 2 2.2208 7.88926 3.59568 4.9212
47 1 -1.1104 9.43107 -0.654425 0.924462
48 1 -1.1104 9.48934 -0.726843 3.60092
38 2 2.2208 10.6464 3.57612 2.33029
208 1 -1.1104 9.3542 -3.5037 6.4042
207 1 -1.1104 12.3089 -0.834415 6.51724
209 1 -1.1104 9.30779 2.15881 6.48992
321 1 -1.1104 9.47399 19.2477 11.8315
206 1 -1.1104 12.2206 2.03857 6.39297
50 2 2.2208 13.5718 -2.19319 5.11177
54 2 2.2208 5.20421 6.35125 4.77351
55 2 2.2208 5.25446 12.0677 4.86636
56 1 -1.1104 0.947438 7.62606 0.701492
58 1 -1.1104 0.887892 7.75388 3.62554
60 1 -1.1104 0.762749 4.94013 0.615855
61 1 -1.1104 0.841846 10.6566 0.73346
66 2 2.2208 5.0629 9.23513 2.06156
67 1 -1.1104 0.727559 4.98644 3.41508
68 1 -1.1104 0.988534 10.468 3.57673
71 1 -1.1104 3.84548 7.7856 0.822156
72 2 2.2208 2.22727 6.31851 2.12998
73 2 2.2208 2.2859 11.9561 2.16247
74 1 -1.1104 3.68916 7.79713 3.48585
75 2 2.2208 2.59233 9.09771 4.91033
76 1 -1.1104 3.75742 4.99943 0.689313
77 1 -1.1104 3.58614 10.6286 0.753715
79 1 -1.1104 3.8017 4.90885 3.51821
80 1 -1.1104 3.78653 10.6052 3.57577
234 1 -1.1104 1.03457 7.76945 6.28107
78 1 -1.1104 3.6337 10.6725 6.47965
62 1 -1.1104 0.945646 10.4853 6.22894
70 1 -1.1104 6.57242 10.7817 3.3048
236 1 -1.1104 0.898617 4.79514 6.3146
64 1 -1.1104 6.50756 10.7317 0.734764
57 1 -1.1104 6.49015 7.87767 0.702631
408 2 2.2208 10.691 -1.86958 13.4355
238 1 -1.1104 3.91242 7.7848 6.17899
239 1 -1.1104 3.64698 5.00822 6.14688
237 1 -1.1104 6.60186 4.96645 6.26898
165 2 2.2208 13.4809 17.7599 1.9867
65 1 -1.1104 6.44868 10.5732 6.20297
69 1 -1.1104 6.52433 4.93145 3.42898
235 1 -1.1104 6.59964 7.75768 6.15351
59 1 -1.1104 6.57008 7.86517 3.51217
63 1 -1.1104 6.66694 5.09145 0.654893
84 2 2.2208 10.7402 6.65498 5.08639
85 2 2.2208 10.695 12.0729 4.76495
86 1 -1.1104 12.078 7.69975 0.470786
87 1 -1.1104 11.9186 7.69923 3.40635
88 1 -1.1104 11.9918 5.06975 0.982159
89 1 -1.1104 12.1192 10.6173 0.728157
91 2 2.2208 10.5776 9.13925 2.02773
92 1 -1.1104 12.1131 5.00155 3.66477
93 1 -1.1104 11.8984 10.4804 3.36926
94 1 -1.1104 9.27822 7.9235 0.698825
95 2 2.2208 7.82384 6.58834 2.03714
96 2 2.2208 7.86814 12.2156 2.05809
97 1 -1.1104 9.20433 7.90981 3.48378
98 2 2.2208 7.83433 9.31842 4.86206
99 1 -1.1104 9.2254 5.14644 0.707622
100 1 -1.1104 9.20099 10.7747 0.511579
102 1 -1.1104 9.26009 5.04372 3.6126
103 1 -1.1104 9.34867 10.6355 3.48482
90 1 -1.1104 12.0769 10.7787 6.16518
320 2 2.2208 8.02036 17.8005 7.7628
267 1 -1.1104 9.5595 7.82797 6.54692
265 1 -1.1104 12.2762 7.94629 6.47621
9490 2 2.2208 13.579 6.52793 7.87878
106 2 2.2208 5.05698 17.6258 4.90919
107 1 -1.1104 0.962706 13.3901 0.794087
109 1 -1.1104 1.11578 18.8884 0.554319
113 1 -1.1104 0.914378 13.2476 3.49377
114 1 -1.1104 0.880764 19.1234 3.32306
116 1 -1.1104 0.515346 16.1428 0.631691
119 2 2.2208 5.04871 14.9847 2.01036
120 2 2.2208 5.22211 20.5391 2.09202
121 1 -1.1104 0.915166 16.0557 3.43797
123 1 -1.1104 3.76557 13.4914 0.645477
125 1 -1.1104 3.9523 18.8993 0.783097
127 2 2.2208 2.2961 17.6447 2.09078
128 1 -1.1104 3.83027 13.2373 3.55529
129 1 -1.1104 3.57691 18.789 3.62066
130 2 2.2208 2.42101 14.8975 4.92017
131 2 2.2208 2.26676 20.4197 4.84452
132 1 -1.1104 3.39232 16.1802 0.872677
134 1 -1.1104 3.78411 16.0534 3.56552
302 1 -1.1104 0.753241 18.9171 6.28562
133 1 -1.1104 3.83257 16.2059 6.31045
108 1 -1.1104 1.04531 13.3575 6.503
126 1 -1.1104 3.59462 19.0091 6.44885
140 1 -1.1104 6.41295 16.2546 0.824697
138 1 -1.1104 6.48095 19.3158 0.563179
117 1 -1.1104 1.10807 16.3239 6.07871
115 1 -1.1104 6.46206 13.6807 3.49326
111 1 -1.1104 6.73188 13.3945 6.29869
122 1 -1.1104 6.54339 16.4097 3.47485
110 1 -1.1104 6.6455 13.5871 0.613926
327 1 -1.1104 12.1661 19.1426 9.10843
118 1 -1.1104 6.47625 16.2898 6.22059
124 1 -1.1104 3.91173 13.409 6.37137
143 1 -1.1104 12.0854 13.5155 6.26755
156 1 -1.1104 9.57132 19.2394 6.48077
112 1 -1.1104 6.57771 19.063 6.31783
139 1 -1.1104 6.46045 19.0132 3.4402
141 2 2.2208 10.5579 17.7916 4.89967
142 1 -1.1104 12.2317 13.5083 0.649384
144 1 -1.1104 11.9363 19.1873 0.537926
146 1 -1.1104 12.336 13.3503 3.36535
147 1 -1.1104 11.9174 19.0083 3.25717
148 1 -1.1104 12.0503 16.3318 0.662091
150 2 2.2208 10.7333 14.9586 2.0387
151 2 2.2208 10.5549 20.403 2.00587
152 1 -1.1104 12.1124 16.1855 3.43873
153 1 -1.1104 9.44142 13.604 0.842307
155 1 -1.1104 9.19267 19.0398 0.416749
157 2 2.2208 7.74732 17.6449 1.87217
158 1 -1.1104 9.32323 13.5001 3.48145
159 1 -1.1104 9.24172 19.0741 3.51069
160 2 2.2208 7.9971 14.9266 4.89391
161 2 2.2208 7.94207 20.457 4.94784
162 1 -1.1104 9.28914 16.3414 0.731465
164 1 -1.1104 9.41542 16.4669 3.33577
163 1 -1.1104 9.06409 16.3295 6.33191
154 1 -1.1104 9.47358 13.4598 6.25629
145 1 -1.1104 12.2606 19.1268 6.09961
149 1 -1.1104 11.7315 16.1785 6.2663
9279 2 2.2208 13.5425 3.69626 4.92585
374 2 2.2208 5.13121 -1.9577 13.5424
9308 2 2.2208 13.4553 9.21781 4.82289
104 2 2.2208 13.4581 11.926 2.05547
175 2 2.2208 5.11789 0.85689 10.6642
176 1 -1.1104 0.80245 -3.18595 12.0442
177 1 -1.1104 1.08377 2.38856 12.1716
180 1 -1.1104 0.942423 -3.47922 9.31412
181 1 -1.1104 0.806942 2.15047 9.39591
184 1 -1.1104 0.953573 -0.553642 12.0166
186 2 2.2208 5.10857 -1.97484 7.84202
187 2 2.2208 5.19694 3.61891 7.6445
188 1 -1.1104 0.971716 -0.74518 9.27977
190 1 -1.1104 3.93149 -3.40967 12.0357
191 1 -1.1104 3.72552 2.30149 11.9468
192 2 2.2208 2.35874 0.809018 7.80656
193 1 -1.1104 3.67039 -3.45068 9.19917
194 1 -1.1104 3.67671 2.22049 9.15822
195 2 2.2208 2.27563 -1.99959 10.5328
197 1 -1.1104 3.79658 -0.628716 11.9574
198 1 -1.1104 3.73457 -0.44736 9.02585
196 2 2.2208 2.2705 3.62109 10.4049
314 1 -1.1104 9.20639 16.3993 9.10437
179 1 -1.1104 6.52011 2.10174 12.2505
178 1 -1.1104 6.67472 -3.43285 12.0155
376 2 2.2208 5.03317 3.52682 13.4275
205 1 -1.1104 12.3395 -3.69021 6.70813
407 2 2.2208 7.86233 0.897705 13.6762
9414 2 2.2208 13.5464 3.59573 10.6234
210 1 -1.1104 9.40417 -0.688718 6.53322
171 1 -1.1104 6.59464 -0.661701 6.44566
189 1 -1.1104 6.41522 -0.704404 9.32147
182 1 -1.1104 6.71255 -3.53353 9.36305
183 1 -1.1104 6.37514 2.14552 9.05983
9495 2 2.2208 13.5627 9.19324 10.5212
185 1 -1.1104 6.42466 -0.505091 12.1408
211 2 2.2208 10.5808 1.00017 10.751
212 1 -1.1104 12.2122 -3.43493 12.2063
213 1 -1.1104 12.2916 2.12831 12.1395
214 1 -1.1104 12.349 -3.46221 9.55279
215 1 -1.1104 11.949 2.22037 9.30534
216 1 -1.1104 11.9922 -0.52555 12.0176
217 2 2.2208 10.868 -2.02881 8.00537
218 2 2.2208 10.7819 3.55336 7.71702
219 1 -1.1104 12.1281 -0.412639 9.20242
220 1 -1.1104 9.32783 -3.49165 12.1271
221 1 -1.1104 9.30271 2.49936 12.1117
222 2 2.2208 7.85194 0.717672 7.82694
223 1 -1.1104 9.47529 -3.45122 9.19742
224 1 -1.1104 9.18558 2.19325 9.26945
225 2 2.2208 7.99561 -1.82165 10.6048
227 1 -1.1104 9.20969 -0.448999 12.1375
228 1 -1.1104 9.30081 -0.403767 9.28726
226 2 2.2208 8.00374 3.73026 10.565
9677 2 2.2208 13.596 6.35481 13.3531
373 2 2.2208 2.44008 -4.72153 13.4845
9356 2 2.2208 13.5733 20.6143 4.81477
9608 2 2.2208 13.5846 0.679155 13.483
443 2 2.2208 2.39789 6.29082 13.474
444 2 2.2208 5.1286 9.29042 13.3297
240 2 2.2208 5.17343 6.34013 10.4479
241 2 2.2208 5.20226 12.0228 10.6442
242 1 -1.1104 0.940914 7.71367 12.0648
244 1 -1.1104 0.883216 7.78083 9.05239
246 1 -1.1104 0.934421 5.03634 11.6996
247 1 -1.1104 1.1231 10.597 11.958
250 2 2.2208 5.18568 9.18603 7.73001
251 1 -1.1104 0.828768 4.92741 8.91967
252 1 -1.1104 0.880956 10.4795 9.03715
255 1 -1.1104 3.79692 7.72153 12.0352
256 2 2.2208 2.17065 6.25246 7.68329
257 2 2.2208 2.44977 12.028 7.85394
258 1 -1.1104 3.85694 7.75304 8.97581
259 2 2.2208 2.44469 9.15871 10.6147
260 1 -1.1104 3.79136 5.07449 11.7475
261 1 -1.1104 3.86779 10.8177 12.1092
262 1 -1.1104 3.80642 4.98445 9.01645
263 1 -1.1104 3.8141 10.6881 9.31507
249 1 -1.1104 6.67621 10.751 11.8884
445 2 2.2208 2.34639 11.8965 13.4744
245 1 -1.1104 6.61433 7.68742 8.97953
243 1 -1.1104 6.52307 7.97788 11.7358
253 1 -1.1104 6.67061 4.92455 9.05283
254 1 -1.1104 6.59271 10.6402 8.92637
101 1 -1.1104 9.19377 10.6443 6.20299
269 1 -1.1104 9.41047 4.90024 6.31894
9491 2 2.2208 13.5394 12.1448 7.61274
375 2 2.2208 2.2633 0.786546 13.3381
248 1 -1.1104 6.59002 5.06767 12.0803
471 2 2.2208 10.7784 9.23774 13.4292
472 2 2.2208 8.01808 12.1131 13.3633
266 1 -1.1104 12.2742 4.97816 6.34944
264 1 -1.1104 9.53459 10.6443 9.04049
268 1 -1.1104 9.34122 5.149 9.09212
270 1 -1.1104 9.3228 10.5912 11.9567
271 1 -1.1104 9.27727 5.15309 11.867
272 2 2.2208 8.04123 9.29493 10.4899
273 1 -1.1104 9.30764 7.93462 9.16596
274 2 2.2208 7.90977 11.9705 7.90443
275 2 2.2208 8.05596 6.37274 7.66176
276 2 2.2208 10.6851 6.49728 10.6347
277 2 2.2208 10.7448 12.0217 10.4583
278 1 -1.1104 12.2949 7.62686 11.9055
279 1 -1.1104 12.0467 7.98446 9.19716
280 1 -1.1104 12.1328 5.04054 12.3283
281 1 -1.1104 12.0751 10.3755 11.8568
282 2 2.2208 10.8543 9.26569 7.75513
283 1 -1.1104 12.2223 5.04424 9.23141
284 1 -1.1104 12.3704 10.6598 9.01655
285 1 -1.1104 9.28975 7.94967 12.0157
470 2 2.2208 7.94922 6.4699 13.5483
506 2 2.2208 2.33423 17.6352 13.2573
286 1 -1.1104 3.80849 19.1085 12.1155
287 1 -1.1104 3.6485 13.3135 12.029
291 1 -1.1104 0.893334 19.1115 9.27531
292 1 -1.1104 0.847058 16.1838 8.75731
293 2 2.2208 5.14671 20.4045 7.91628
294 1 -1.1104 1.00412 13.2819 9.1869
295 2 2.2208 5.35497 14.896 7.64504
298 1 -1.1104 1.01118 19.0504 12.0599
299 1 -1.1104 0.90339 13.3667 11.9845
300 2 2.2208 5.13158 17.6685 10.6137
301 1 -1.1104 3.65073 18.873 9.38609
303 2 2.2208 2.39516 17.725 7.61513
304 1 -1.1104 3.53149 16.2827 9.29455
305 1 -1.1104 3.86411 13.379 9.12758
307 1 -1.1104 0.818 16.105 11.6647
308 1 -1.1104 3.69571 16.1063 12.0369
309 2 2.2208 2.40113 20.5264 10.6818
310 2 2.2208 2.34266 14.599 10.5681
507 2 2.2208 5.21159 20.5127 13.4156
508 2 2.2208 5.11835 14.8125 13.3164
289 1 -1.1104 6.479 16.2419 9.11673
535 2 2.2208 7.94537 17.6952 13.3492
323 1 -1.1104 11.9629 16.2041 8.84967
326 1 -1.1104 11.9541 16.1761 11.704
319 1 -1.1104 9.31809 13.4879 9.19127
329 1 -1.1104 12.0057 18.9233 11.9408
324 2 2.2208 10.837 20.6293 7.98169
316 2 2.2208 7.85037 20.5089 10.5286
331 2 2.2208 10.7625 17.7234 10.3782
322 1 -1.1104 9.3022 13.5748 12.0077
325 2 2.2208 10.5751 14.8304 7.6418
9682 2 2.2208 13.584 12.0806 13.3023
533 2 2.2208 10.6888 20.6161 13.4285
306 1 -1.1104 6.59713 16.3032 11.9149
290 1 -1.1104 6.58773 13.4543 9.12164
534 2 2.2208 10.7909 14.9517 13.3341
288 1 -1.1104 6.7327 19.0139 9.21823
297 1 -1.1104 6.69553 13.4861 11.9503
318 1 -1.1104 9.24053 19.2768 9.11963
328 1 -1.1104 12.0214 13.6192 9.13473
296 1 -1.1104 6.39467 19.0741 11.9452
317 2 2.2208 8.01492 14.9796 10.5386
330 1 -1.1104 12.2716 13.3715 11.8102
315 1 -1.1104 9.22104 16.3427 11.9212
9377 2 2.2208 13.3988 14.7144 4.82965
313 2 2.2208 -0.33942 14.6467 7.6653
9501 2 2.2208 -0.374664 12.0025 10.5791
9541 2 2.2208 13.602 20.5383 10.5882
333 2 2.2208 13.4753 14.7721 10.5017
230 2 2.2208 13.6434 -1.83423 10.7579
332 2 2.2208 13.4049 17.6193 7.52234
83 2 2.2208 -0.327046 11.9378 4.93133
105 2 2.2208 13.4244 6.38398 2.25877
49 2 2.2208 13.6174 0.967406 2.35705
536 2 2.2208 13.661 17.6731 13.4723
591 2 2.2208 10.8748 0.804906 -0.344282
334 2 2.2208 4.97894 0.897135 16.2955
335 1 -1.1104 0.828695 -3.54081 17.708
336 1 -1.1104 0.771455 2.14613 17.8082
339 1 -1.1104 0.98598 -3.32108 14.884
341 1 -1.1104 0.761689 2.18588 14.9487
347 1 -1.1104 0.971738 -0.525987 17.6931
349 2 2.2208 5.16235 -2.00562 19.1838
350 2 2.2208 5.14193 3.72198 19.2236
351 1 -1.1104 0.770081 -0.652879 14.8703
355 1 -1.1104 3.5829 -3.26966 17.7247
356 1 -1.1104 3.69235 2.35191 17.6205
357 2 2.2208 2.27967 0.83226 19.1254
358 1 -1.1104 3.67302 -3.36117 14.9038
360 1 -1.1104 3.57805 2.17328 14.954
362 2 2.2208 2.31418 -1.84835 16.2583
363 2 2.2208 2.27179 3.58907 16.3735
364 1 -1.1104 3.62701 -0.417243 17.7073
365 1 -1.1104 3.68562 -0.556884 14.7936
352 1 -1.1104 1.01331 -0.594168 20.625
348 1 -1.1104 6.59914 -0.706696 17.692
345 1 -1.1104 6.32239 2.2675 15.0975
337 1 -1.1104 6.47826 -3.48168 17.7641
342 1 -1.1104 0.924965 2.02978 20.6468
354 1 -1.1104 6.4045 -0.519478 20.5159
344 1 -1.1104 6.3653 -3.34151 20.622
343 1 -1.1104 6.44961 -3.41041 14.8865
338 1 -1.1104 6.45352 2.07338 17.7847
353 1 -1.1104 6.51369 -0.536544 14.942
359 1 -1.1104 3.90299 -3.4066 20.4297
340 1 -1.1104 1.17179 -3.44396 20.6195
366 1 -1.1104 3.61832 -0.592332 20.5653
361 1 -1.1104 3.81421 2.28963 20.4685
377 2 2.2208 10.6747 0.84221 16.4279
378 1 -1.1104 12.2177 -3.29009 17.7624
379 1 -1.1104 12.0125 2.21323 17.7738
380 1 -1.1104 12.1304 -3.30862 14.9947
382 1 -1.1104 12.0003 2.22466 15.091
384 1 -1.1104 12.1963 -0.485138 17.5468
385 2 2.2208 10.6897 -1.86327 19.1131
387 1 -1.1104 12.1497 -0.446668 14.7816
389 1 -1.1104 9.18931 -3.25787 17.9086
390 1 -1.1104 9.17082 2.37508 17.6742
391 2 2.2208 7.87853 0.677431 19.2322
392 1 -1.1104 9.39484 -3.34593 14.8816
394 1 -1.1104 9.33241 2.34411 14.9214
396 2 2.2208 8.00452 -1.98647 16.2993
397 2 2.2208 7.89979 3.64834 16.356
398 1 -1.1104 9.31424 -0.573789 17.8454
399 1 -1.1104 9.31903 -0.559926 14.9066
395 1 -1.1104 9.27697 2.05225 20.5307
383 1 -1.1104 12.0374 2.23904 20.72
405 2 2.2208 13.5429 -1.8752 16.2682
386 2 2.2208 10.7864 3.69757 19.2997
592 2 2.2208 7.95587 -2.01725 27.5497
381 1 -1.1104 12.0234 -3.38071 20.5944
400 1 -1.1104 9.21914 -0.55617 20.5397
393 1 -1.1104 9.24944 -3.4978 20.6305
402 2 2.2208 10.7835 -4.75761 16.2698
601 2 2.2208 13.491 3.59861 27.6547
705 2 2.2208 10.7118 17.668 21.8018
410 2 2.2208 5.06083 6.42877 16.2878
411 2 2.2208 5.08228 12.1775 16.0822
412 1 -1.1104 0.855094 7.92287 17.7004
414 1 -1.1104 0.854168 7.72186 14.8716
418 1 -1.1104 0.883091 5.02317 17.6058
419 1 -1.1104 0.936098 10.5738 17.9131
422 2 2.2208 5.13436 9.35022 19.0097
423 1 -1.1104 0.842981 4.88026 14.7967
425 1 -1.1104 0.877695 10.5635 14.9026
431 1 -1.1104 3.61474 7.91657 17.6315
432 2 2.2208 2.27388 6.49779 19.016
433 2 2.2208 2.19599 12.1092 19.0221
434 1 -1.1104 3.59308 7.88759 14.8841
436 2 2.2208 2.37619 9.28109 16.2192
437 1 -1.1104 3.62191 5.0362 17.7287
438 1 -1.1104 3.66973 10.6343 17.7346
439 1 -1.1104 3.75644 4.96768 14.846
441 1 -1.1104 3.67772 10.6364 14.7962
413 1 -1.1104 6.54388 7.96378 17.5182
416 1 -1.1104 6.40511 7.87288 14.7582
440 1 -1.1104 3.76974 5.09144 20.3695
424 1 -1.1104 1.12609 5.03043 20.3097
442 1 -1.1104 3.83556 10.9328 20.475
435 1 -1.1104 3.69867 7.93574 20.4277
426 1 -1.1104 1.13691 10.7915 20.613
421 1 -1.1104 6.3846 10.75 17.6381
427 1 -1.1104 6.51944 4.96532 14.7916
415 1 -1.1104 0.918536 8.03588 20.5085
417 1 -1.1104 6.41197 7.81842 20.4058
690 2 2.2208 7.81196 14.8212 21.7708
429 1 -1.1104 6.4559 10.8604 14.7069
420 1 -1.1104 6.47763 5.04715 17.6421
430 1 -1.1104 6.59623 10.5645 20.3028
446 2 2.2208 10.7566 6.50377 16.3985
447 2 2.2208 10.7834 12.1433 16.1361
448 1 -1.1104 12.232 7.67001 17.6271
449 1 -1.1104 12.2394 7.80957 14.7846
451 1 -1.1104 11.948 5.11145 17.8293
452 1 -1.1104 12.0895 10.5544 17.1775
453 2 2.2208 10.7489 9.40924 19.0572
454 1 -1.1104 12.3158 4.93178 15.1831
456 1 -1.1104 12.3138 10.6242 14.5685
458 1 -1.1104 9.53103 8.0037 17.5042
459 2 2.2208 7.83736 6.55946 19.0929
460 2 2.2208 7.89815 12.027 19.0847
461 1 -1.1104 9.31643 7.98681 14.7295
463 2 2.2208 8.02351 9.39578 16.1327
464 1 -1.1104 9.09558 5.15554 17.7686
465 1 -1.1104 9.26398 10.8121 17.4949
466 1 -1.1104 9.51714 5.14164 14.8989
468 1 -1.1104 9.50607 10.7277 14.7133
450 1 -1.1104 12.1166 8.17848 20.4854
467 1 -1.1104 9.3423 5.0673 20.611
462 1 -1.1104 9.29856 7.96898 20.3954
457 1 -1.1104 12.1528 10.8778 20.1045
455 1 -1.1104 12.1392 5.13079 20.6154
469 1 -1.1104 9.29709 10.8489 20.3809
9750 2 2.2208 13.5544 17.5746 18.8815
687 1 -1.1104 9.27244 16.3109 25.9716
710 2 2.2208 13.5638 20.5408 27.3991
473 2 2.2208 5.06995 17.8267 16.2681
474 1 -1.1104 0.764345 13.5177 17.633
475 1 -1.1104 0.7979 19.1692 17.8255
478 1 -1.1104 0.732797 13.4328 14.8206
480 1 -1.1104 0.917966 19.1847 14.9564
486 1 -1.1104 0.883119 16.2006 17.6444
488 2 2.2208 5.10548 15.0071 18.9796
489 2 2.2208 5.00137 20.545 19.1121
490 1 -1.1104 0.74686 16.3548 14.6383
494 1 -1.1104 3.50779 13.4673 17.4107
495 1 -1.1104 3.61788 19.2608 17.5079
496 2 2.2208 2.30788 17.5912 19.0356
497 1 -1.1104 3.67924 13.3511 14.7188
499 1 -1.1104 3.74928 19.1146 14.8444
501 2 2.2208 2.172 14.9229 16.1947
502 2 2.2208 2.25989 20.5559 16.276
503 1 -1.1104 3.69404 16.3979 17.6306
504 1 -1.1104 3.53865 16.3942 14.8769
505 1 -1.1104 3.70168 16.3563 20.4656
479 1 -1.1104 0.908278 13.6478 20.3587
491 1 -1.1104 0.782092 16.4161 20.4683
498 1 -1.1104 3.59214 13.6776 20.3078
500 1 -1.1104 3.56482 19.0175 20.222
481 1 -1.1104 0.749239 19.2467 20.5697
493 1 -1.1104 6.54947 16.5378 20.3649
482 1 -1.1104 6.41629 13.5671 14.7924
485 1 -1.1104 6.36068 19.1472 20.3378
9610 2 2.2208 13.5528 0.848191 19.1355
477 1 -1.1104 6.45647 19.157 17.6284
483 1 -1.1104 6.43628 13.3612 20.5453
476 1 -1.1104 6.37004 13.5811 17.6133
487 1 -1.1104 6.71092 16.4976 17.4989
525 1 -1.1104 9.15888 13.4967 20.3749
484 1 -1.1104 6.56427 19.099 14.6712
492 1 -1.1104 6.34551 16.2899 14.6711
509 2 2.2208 10.6972 17.6271 16.0867
510 1 -1.1104 12.3306 13.3998 17.4413
511 1 -1.1104 12.2668 19.1352 17.3873
512 1 -1.1104 12.0196 13.4887 14.5647
514 1 -1.1104 12.0373 19.0194 14.7351
516 1 -1.1104 11.9376 16.2155 17.4974
517 2 2.2208 10.6798 14.9024 19.1176
518 2 2.2208 10.7847 20.619 18.8068
519 1 -1.1104 12.0917 16.244 14.7233
521 1 -1.1104 9.21756 13.5373 17.7621
522 1 -1.1104 9.31115 19.1018 17.4348
523 2 2.2208 7.93633 17.7707 18.8896
524 1 -1.1104 9.31162 13.4305 15.0589
526 1 -1.1104 9.22212 19.0103 14.7996
528 2 2.2208 7.9508 14.8809 16.219
529 2 2.2208 7.65996 20.5851 16.2787
530 1 -1.1104 9.32128 16.2537 17.5185
531 1 -1.1104 9.46887 16.4122 14.4867
532 1 -1.1104 9.19832 16.3576 20.4158
520 1 -1.1104 12.1381 16.3042 20.4633
513 1 -1.1104 11.9464 13.4854 20.226
527 1 -1.1104 9.34422 19.1877 20.3375
515 1 -1.1104 12.0242 19.1963 20.438
675 1 -1.1104 6.46124 16.3366 23.3096
9604 2 2.2208 13.6456 3.67302 16.5077
561 2 2.2208 5.15837 0.734693 27.5649
346 1 -1.1104 6.53743 2.18116 20.5758
537 2 2.2208 5.07454 0.888235 21.9535
538 1 -1.1104 0.958201 -3.37518 23.2261
539 1 -1.1104 0.798273 2.42541 23.3044
542 1 -1.1104 0.732613 -3.48934 26.0653
543 1 -1.1104 0.941199 2.13133 26.203
546 1 -1.1104 0.99688 -0.57431 23.5213
548 2 2.2208 5.13588 -1.87644 24.74
549 2 2.2208 4.93043 3.62151 24.7199
550 1 -1.1104 0.996157 -0.736789 26.1534
552 1 -1.1104 3.77868 -3.33655 23.4271
553 1 -1.1104 3.60373 2.21149 23.3249
554 2 2.2208 2.18187 0.835061 24.6471
555 1 -1.1104 3.55743 -3.38494 26.2523
556 1 -1.1104 3.57797 2.08039 26.0528
557 2 2.2208 2.48674 -1.99896 21.8831
559 1 -1.1104 3.79265 -0.442942 23.4186
560 1 -1.1104 3.9382 -0.553226 26.0941
558 2 2.2208 2.2258 3.6469 21.8388
541 1 -1.1104 6.49987 2.2773 23.3034
544 1 -1.1104 6.35145 -3.39712 26.1826
547 1 -1.1104 6.56265 -0.446629 23.3359
551 1 -1.1104 6.81196 -0.511343 26.1376
540 1 -1.1104 6.76056 -3.55792 23.2011
563 2 2.2208 2.31747 3.62103 27.3834
596 2 2.2208 10.6809 -4.60575 22.0362
388 1 -1.1104 12.0756 -0.741814 20.4127
545 1 -1.1104 6.505 2.23548 26.0367
573 2 2.2208 10.6416 0.840794 22.0011
574 1 -1.1104 12.1957 -3.57999 23.5843
575 1 -1.1104 12.3516 2.07863 23.399
576 1 -1.1104 12.1965 -3.59128 26.4723
577 1 -1.1104 12.1074 2.15304 26.2218
578 1 -1.1104 11.926 -0.687632 23.3602
579 2 2.2208 10.8651 -1.97814 24.9179
580 2 2.2208 10.6827 3.54576 24.8581
581 1 -1.1104 12.4878 -0.704694 26.2351
582 1 -1.1104 9.52317 -3.18209 23.4586
583 1 -1.1104 9.36957 2.26796 23.623
584 2 2.2208 7.91122 0.870458 24.7634
585 1 -1.1104 9.44107 -3.44353 26.192
586 1 -1.1104 9.41224 2.13198 26.2998
587 2 2.2208 7.89853 -1.93504 21.9679
589 1 -1.1104 9.27988 -0.487169 23.535
590 1 -1.1104 9.38181 -0.705962 26.2906
588 2 2.2208 7.90103 3.50033 22.05
9870 2 2.2208 13.6323 9.32484 21.8209
562 2 2.2208 2.25679 -2.06277 27.6194
9811 2 2.2208 13.5661 3.45921 22.0497
593 2 2.2208 7.85535 3.61883 27.5025
600 2 2.2208 13.6484 0.722062 24.8153
428 1 -1.1104 6.58216 5.01158 20.54
699 2 2.2208 10.6767 14.7413 24.6188
626 2 2.2208 5.12865 6.51205 27.4902
628 2 2.2208 5.11395 12.0923 27.5301
602 2 2.2208 5.04138 6.54401 21.8169
603 2 2.2208 4.9814 12.1673 21.7847
604 1 -1.1104 0.870874 8.04499 23.3056
606 1 -1.1104 0.832549 7.77708 26.1002
608 1 -1.1104 0.896026 5.06461 23.2919
609 1 -1.1104 0.735333 10.6827 23.202
612 2 2.2208 4.97165 9.20527 24.5986
613 1 -1.1104 0.875414 4.92168 25.8664
614 1 -1.1104 0.987481 10.7663 26.042
617 1 -1.1104 3.54963 7.85457 23.2621
618 2 2.2208 2.26241 6.42919 24.5928
619 2 2.2208 2.29134 12.071 24.5227
620 1 -1.1104 3.55241 7.766 25.9419
621 2 2.2208 2.37453 9.33124 21.9477
622 1 -1.1104 3.76314 5.06869 23.323
623 1 -1.1104 3.68201 10.626 23.3614
624 1 -1.1104 3.68158 4.97548 25.9875
625 1 -1.1104 3.66126 10.4995 25.9842
610 1 -1.1104 6.38727 5.12031 23.3984
627 2 2.2208 2.3036 9.2549 27.4154
611 1 -1.1104 6.37013 10.8359 23.0114
689 2 2.2208 8.02377 20.4373 21.6538
651 2 2.2208 10.5359 6.36384 27.4864
605 1 -1.1104 6.41913 7.79763 23.2642
615 1 -1.1104 6.45983 5.13323 26.0938
607 1 -1.1104 6.49707 7.86355 25.8778
653 2 2.2208 10.6634 12.1677 27.5549
616 1 -1.1104 6.59267 10.6677 26.0722
633 1 -1.1104 9.32326 10.6815 25.9906
634 1 -1.1104 9.25205 5.0431 26.082
635 1 -1.1104 9.31387 10.6898 22.9237
636 1 -1.1104 9.21891 5.14479 23.1937
637 2 2.2208 7.80132 9.26989 21.8087
638 1 -1.1104 9.41887 7.86433 25.8673
639 2 2.2208 7.94722 11.9519 24.5789
640 2 2.2208 7.88646 6.44868 24.6508
641 2 2.2208 10.7266 6.605 21.9531
642 2 2.2208 10.7794 12.1275 21.756
643 1 -1.1104 12.219 7.93557 23.1601
644 1 -1.1104 12.2574 7.96953 25.9634
645 1 -1.1104 12.0924 4.91352 23.4539
646 1 -1.1104 12.1858 10.7795 22.8524
647 2 2.2208 10.758 9.38947 24.593
648 1 -1.1104 12.0486 4.99097 26.2145
649 1 -1.1104 12.0778 10.8998 25.7507
650 1 -1.1104 9.23109 8.03216 23.3613
652 2 2.2208 7.87906 9.38853 27.4303
9748 2 2.2208 13.4958 14.9004 16.1073
568 2 2.2208 2.31642 -4.7553 24.785
688 1 -1.1104 9.37281 16.1707 23.1239
682 2 2.2208 2.02778 14.8057 27.5011
664 1 -1.1104 6.73739 19.0799 23.0456
660 1 -1.1104 6.48788 16.41 26.0509
672 2 2.2208 2.35779 17.7106 24.5703
677 1 -1.1104 3.65595 16.2524 23.3464
676 1 -1.1104 0.927049 16.2984 23.1303
671 1 -1.1104 3.85458 19.0751 25.7977
679 2 2.2208 2.29925 14.8806 21.8713
670 2 2.2208 5.03182 17.7726 21.8176
669 1 -1.1104 0.743196 13.5249 23.2176
678 2 2.2208 2.21704 20.5892 21.759
673 1 -1.1104 3.60624 16.2202 26.119
674 1 -1.1104 3.60928 13.3782 26.0723
657 1 -1.1104 3.6416 19.2791 23.0694
659 1 -1.1104 3.55296 13.4933 23.1851
661 1 -1.1104 1.15279 19.2348 26.0893
662 1 -1.1104 0.738666 16.3697 25.9162
663 1 -1.1104 0.91603 13.4578 25.9409
665 2 2.2208 5.22665 20.5342 24.4344
666 2 2.2208 5.08189 15.0206 24.6673
668 1 -1.1104 0.949892 19.0327 23.2912
693 1 -1.1104 6.49282 18.9644 26.0886
680 2 2.2208 2.53615 20.3969 27.3227
681 2 2.2208 5.01659 17.6382 27.3665
9751 2 2.2208 13.5182 20.5549 16.1735
707 2 2.2208 10.6342 17.8237 27.208
658 1 -1.1104 6.58944 13.3696 26.0706
700 1 -1.1104 12.2413 16.3608 23.3462
708 2 2.2208 8.02444 14.8544 27.4358
706 2 2.2208 7.94276 20.52 27.2431
698 2 2.2208 10.7861 20.53 24.6063
696 1 -1.1104 9.3794 13.4675 23.1999
697 1 -1.1104 12.1331 16.3323 25.9512
692 1 -1.1104 9.35426 13.5153 26.165
695 1 -1.1104 9.31326 18.919 23.2963
694 2 2.2208 7.96763 17.6599 24.563
701 1 -1.1104 12.1033 19.069 26.0265
702 1 -1.1104 12.0063 13.3533 25.8383
703 1 -1.1104 12.2696 19.2171 23.2679
667 1 -1.1104 6.34603 13.6442 23.3087
691 1 -1.1104 9.31108 19.0484 25.9114
9680 2 2.2208 13.5872 12.069 18.9105
599 2 2.2208 13.3578 -2.06064 21.9026
704 1 -1.1104 12.169 13.5355 23.1072
371 2 2.2208 -0.314572 -1.9035 19.0438
656 2 2.2208 13.4588 6.49298 24.6192
711 2 2.2208 13.4853 14.9704 27.4235
9679 2 2.2208 13.5537 6.43911 19.053
655 2 2.2208 13.5274 9.34985 27.2579
654 2 2.2208 13.5663 12.1323 24.5001
629 2 2.2208 -0.337454 12.0662 27.4589
569 2 2.2208 -0.440006 0.674366 27.5043
409 2 2.2208 10.7918 3.5792 13.6881
714 2 2.2208 5.02235 23.3364 4.79877
715 2 2.2208 5.01639 28.9599 5.052
716 1 -1.1104 0.993015 24.5729 0.721865
717 1 -1.1104 0.857483 24.649 3.55541
718 1 -1.1104 0.736667 21.6225 0.539421
719 1 -1.1104 0.842879 27.4199 0.83811
720 2 2.2208 5.01051 26.0744 2.18294
721 1 -1.1104 0.952915 21.8514 3.557
722 1 -1.1104 0.659322 27.3966 3.71808
723 1 -1.1104 3.60331 24.6849 0.722115
724 2 2.2208 2.22661 23.1724 2.00227
725 2 2.2208 2.31545 29.0424 2.11656
726 1 -1.1104 3.57701 24.6485 3.52536
727 2 2.2208 2.33029 26.015 4.98476
728 1 -1.1104 3.56513 21.8659 0.689423
729 1 -1.1104 3.37433 27.5989 0.785652
730 1 -1.1104 3.72088 21.7137 3.3726
731 1 -1.1104 3.66579 27.3561 3.56373
738 1 -1.1104 6.49975 27.5971 0.702188
862 1 -1.1104 3.74697 21.8378 6.28538
855 1 -1.1104 0.820429 24.6774 6.41822
863 1 -1.1104 3.56638 27.6184 6.35823
736 1 -1.1104 6.37493 24.5676 3.4181
735 1 -1.1104 6.44765 24.8169 0.711941
861 1 -1.1104 3.89987 24.7927 6.28977
857 1 -1.1104 1.02756 21.7607 6.41034
858 1 -1.1104 0.919261 27.4027 6.41627
1046 2 2.2208 13.5539 40.358 13.4499
739 1 -1.1104 6.58862 21.9803 3.44893
737 1 -1.1104 6.52859 22.03 0.720562
860 1 -1.1104 6.49312 27.5496 6.28723
10216 2 2.2208 13.6465 40.2429 7.84341
853 2 2.2208 13.639 45.8153 2.29882
740 1 -1.1104 6.41776 27.4682 3.42433
741 2 2.2208 10.519 23.2974 5.02604
742 2 2.2208 10.654 28.8927 4.91194
743 1 -1.1104 12.2011 24.8312 0.700618
744 1 -1.1104 11.8372 24.801 3.55098
745 1 -1.1104 11.9553 22.0587 0.744705
746 1 -1.1104 12.0195 27.723 0.852391
747 2 2.2208 10.6235 26.1125 2.03685
748 1 -1.1104 12.1962 22.0239 3.69479
749 1 -1.1104 12.0917 27.561 3.57276
750 1 -1.1104 9.28148 24.5899 0.864552
751 2 2.2208 7.91159 23.3828 2.22968
752 2 2.2208 7.83321 29.0869 1.91133
753 1 -1.1104 9.17027 24.7325 3.58448
754 2 2.2208 7.84555 26.0851 5.01261
755 1 -1.1104 9.13022 21.7045 0.946918
756 1 -1.1104 9.29934 27.3931 0.64572
757 1 -1.1104 9.23597 21.8826 3.64949
758 1 -1.1104 9.19377 27.5869 3.41686
892 1 -1.1104 9.23329 21.9301 6.55379
856 1 -1.1104 6.51097 24.8423 6.244
889 1 -1.1104 12.0399 22.084 6.61284
890 1 -1.1104 12.0805 27.5282 6.48059
859 1 -1.1104 6.55657 22.1717 6.3845
891 1 -1.1104 9.33059 24.6596 6.41778
893 1 -1.1104 9.22772 27.5506 6.27031
888 1 -1.1104 12.0196 24.7312 6.26272
1010 2 2.2208 8.04933 42.8729 10.7878
1029 2 2.2208 10.8285 40.221 10.5955
1014 1 -1.1104 9.4135 41.4847 12.1759
762 2 2.2208 5.0947 34.6499 4.98111
763 1 -1.1104 0.988535 30.2588 0.564788
764 1 -1.1104 0.714755 36.0167 0.869143
766 1 -1.1104 0.869851 30.4827 3.58427
767 1 -1.1104 0.842448 36.2784 3.68534
769 1 -1.1104 0.843723 33.1521 0.905673
770 2 2.2208 5.07135 31.7627 2.21932
771 2 2.2208 5.07699 37.4395 2.16875
772 1 -1.1104 0.816329 33.4238 3.54693
774 1 -1.1104 3.69982 30.5897 0.562194
775 1 -1.1104 3.49735 35.9432 0.703512
776 2 2.2208 2.26123 34.6284 2.30788
777 1 -1.1104 3.84236 30.3202 3.41842
778 1 -1.1104 3.66372 36.0905 3.70735
779 2 2.2208 2.18864 31.9247 5.08707
780 2 2.2208 2.19371 37.525 4.94406
781 1 -1.1104 3.52657 33.2726 0.678191
782 1 -1.1104 3.57482 33.1028 3.61846
918 1 -1.1104 3.52473 30.4923 6.35289
913 1 -1.1104 0.72905 36.0794 6.42371
912 1 -1.1104 0.723942 30.2948 6.35023
788 1 -1.1104 6.505 33.2657 0.667568
915 1 -1.1104 6.37114 36.1675 6.27611
916 1 -1.1104 0.858032 33.2184 6.46032
919 1 -1.1104 3.70736 36.0714 6.39429
920 1 -1.1104 3.68077 33.2809 6.27871
765 1 -1.1104 6.44432 36.0262 0.579446
819 1 -1.1104 0.908563 39.0609 3.44935
914 1 -1.1104 6.41907 30.2481 6.28661
787 1 -1.1104 6.59984 30.2034 3.61623
768 1 -1.1104 6.56042 36.1089 3.30787
917 1 -1.1104 6.61886 33.1502 6.55243
773 1 -1.1104 6.39016 33.1783 3.64651
786 1 -1.1104 6.55041 30.5721 0.624627
789 2 2.2208 10.6665 34.6042 5.04188
790 1 -1.1104 12.121 30.4836 0.8769
791 1 -1.1104 11.9684 36.0967 0.584588
792 1 -1.1104 12.0965 30.2798 3.6512
793 1 -1.1104 12.0324 36.0813 3.51368
794 1 -1.1104 12.0197 33.2379 0.724636
795 2 2.2208 10.6299 31.8562 2.01552
796 2 2.2208 10.6545 37.4098 2.13865
797 1 -1.1104 12.0894 33.1292 3.5783
798 1 -1.1104 9.31256 30.3846 0.575344
799 1 -1.1104 9.18314 36.1918 0.704145
800 2 2.2208 7.86557 34.6622 2.18241