LAMMPS (29 Oct 2020)
OMP_NUM_THREADS environment is not set. Defaulting to 1 thread. (../comm.cpp:94)
  using 1 OpenMP thread(s) per MPI task
OMP_NUM_THREADS environment is not set. Defaulting to 1 thread. (../comm.cpp:94)
  using 1 OpenMP thread(s) per MPI task
Reading data file ...
  orthogonal box = (-0.3620355 -4.3559253 -0.35837969) to (27.702036 332.43593 27.698380)
  2 by 13 by 2 MPI processor grid
  reading atoms ...
  17640 atoms
  reading velocities ...
  17640 velocities
Finding 1-2 1-3 1-4 neighbors ...
  special bond factors lj:    0.0      0.0      0.0     
  special bond factors coul:  0.0      0.0      0.0     
     0 = max # of 1-2 neighbors
     0 = max # of 1-3 neighbors
     0 = max # of 1-4 neighbors
     1 = max # of special neighbors
  special bonds CPU = 0.004 seconds
  read_data CPU = 0.063 seconds
Setting atom values ...
  11760 settings made for charge
Setting atom values ...
  5880 settings made for charge
PPPM initialization ...
  using 12-bit tables for long-range coulomb (../kspace.cpp:328)
  G vector (1/distance) = 0.2988086
  grid = 40 240 40
  stencil order = 5
  estimated absolute RMS force accuracy = 0.00015625678
  estimated relative force accuracy = 1.0851433e-05
  using single precision MKL FFT
  3d grid and FFT values/proc = 15000 7600
Neighbor list info ...
  update every 1 steps, delay 0 steps, check yes
  max neighbors/atom: 2000, page size: 100000
  master list distance cutoff = 11.3
  ghost atom cutoff = 11.3
  binsize = 5.65, bins = 5 60 5
  2 neighbor lists, perpetual/occasional/extra = 2 0 0
  (1) pair coul/long, perpetual
      attributes: half, newton on
      pair build: half/bin/newton
      stencil: half/bin/3d/newton
      bin: standard
  (2) pair eam/alloy, perpetual, copy from (1)
      attributes: half, newton on
      pair build: copy
      stencil: none
      bin: none
Setting up Verlet run ...
  Unit style    : metal
  Current step  : 0
  Time step     : 0.001
Per MPI rank memory allocation (min/avg/max) = 8.151 | 8.178 | 8.193 Mbytes
Step Temp E_pair E_mol TotEng Press 
       0          600   -230251.62            0   -228883.61   -131.30051 
  100000    599.84979   -230271.03            0   -228903.36   -477.89162 
Loop time of 640.226 on 52 procs for 100000 steps with 17640 atoms

Performance: 13.495 ns/day, 1.778 hours/ns, 156.195 timesteps/s
99.8% CPU use with 52 MPI tasks x 1 OpenMP threads

MPI task timing breakdown:
Section |  min time  |  avg time  |  max time  |%varavg| %total
---------------------------------------------------------------
Pair    | 427.47     | 443.32     | 459.01     |  34.7 | 69.24
Bond    | 0.0066084  | 0.0099766  | 0.014566   |   1.8 |  0.00
Kspace  | 124.85     | 143.81     | 160.64     |  74.2 | 22.46
Neigh   | 31.323     | 33.975     | 36.925     |  26.1 |  5.31
Comm    | 13.655     | 14.811     | 17.071     |  20.4 |  2.31
Output  | 5.5624e-05 | 6.2089e-05 | 0.0003014  |   0.0 |  0.00
Modify  | 1.6613     | 3.0727     | 5.2225     |  60.7 |  0.48
Other   |            | 1.227      |            |       |  0.19

Nlocal:        339.231 ave         369 max         316 min
Histogram: 3 10 5 6 7 6 6 4 0 5
Nghost:        4073.40 ave        4233 max        3899 min
Histogram: 2 0 6 7 7 13 7 4 2 4
Neighs:        67283.6 ave       74132 max       61733 min
Histogram: 6 3 9 5 5 11 4 2 4 3

Total # of neighbors = 3498748
Ave neighs/atom = 198.34172
Ave special neighs/atom = 0.0000000
Neighbor list builds = 16218
Dangerous builds = 0
11760 atoms in group oxygen
PPPM initialization ...
  using 12-bit tables for long-range coulomb (../kspace.cpp:328)
  G vector (1/distance) = 0.2988086
  grid = 40 240 40
  stencil order = 5
  estimated absolute RMS force accuracy = 0.00015625678
  estimated relative force accuracy = 1.0851433e-05
  using single precision MKL FFT
  3d grid and FFT values/proc = 15000 7600
Setting up Verlet run ...
  Unit style    : metal
  Current step  : 0
  Time step     : 0.001
Per MPI rank memory allocation (min/avg/max) = 8.401 | 8.429 | 8.443 Mbytes
Step f_2 Temp v_Tdiff v_deltaT 
       0            0    599.84979            0            0 
  100000    673.23886    601.71787  0.020342988     236.1802 
  200000    1332.4852     603.0193  0.022389269    259.93734 
  300000    1993.2918    601.34612  0.022317406    259.10301 
  400000    2646.1644    601.40464  0.022335849    259.31714 
  500000     3304.871    600.16838  0.022478786    260.97662 
  600000    3962.3353    603.84919  0.022193834    257.66835 
  700000    4616.1318    600.46897  0.022157457    257.24602 
  800000      5276.34    599.36659  0.022024029    255.69693 
  900000    5934.2996    603.39447  0.022008976    255.52217 
 1000000    6592.9206    604.33477  0.021775476    252.81125 
Loop time of 6333.32 on 52 procs for 1000000 steps with 17640 atoms

Performance: 13.642 ns/day, 1.759 hours/ns, 157.895 timesteps/s
99.8% CPU use with 52 MPI tasks x 1 OpenMP threads

MPI task timing breakdown:
Section |  min time  |  avg time  |  max time  |%varavg| %total
---------------------------------------------------------------
Pair    | 4196.3     | 4371.9     | 4505.4     | 117.6 | 69.03
Bond    | 0.067833   | 0.10202    | 0.173      |   6.1 |  0.00
Kspace  | 1276.2     | 1430.3     | 1637.2     | 241.6 | 22.58
Neigh   | 322.52     | 348.8      | 378.72     |  77.1 |  5.51
Comm    | 136.07     | 147.91     | 172.66     |  66.2 |  2.34
Output  | 0.0010496  | 0.0011184  | 0.0023392  |   0.5 |  0.00
Modify  | 5.1541     | 5.7178     | 6.1318     |  11.3 |  0.09
Other   |            | 28.58      |            |       |  0.45

Nlocal:        339.231 ave         363 max         309 min
Histogram: 2 0 5 6 7 6 11 8 4 3
Nghost:        4061.54 ave        4173 max        3904 min
Histogram: 2 0 4 1 10 14 5 7 6 3
Neighs:        67285.8 ave       72491 max       59499 min
Histogram: 1 1 2 6 7 9 9 6 6 5

Total # of neighbors = 3498863
Ave neighs/atom = 198.34824
Ave special neighs/atom = 0.0000000
Neighbor list builds = 166537
Dangerous builds = 0
Total wall time: 1:56:14
