ITEM: TIMESTEP
100000
ITEM: NUMBER OF ATOMS
18000
ITEM: BOX BOUNDS xy xz yz pp pp pp
-1.1730303019693930e-01 2.8011303030196764e+01 0.0000000000000000e+00
-1.3120925718786705e+00 3.3604009257187056e+02 0.0000000000000000e+00
-1.1858240667982756e-01 2.8012582406679645e+01 0.0000000000000000e+00
ITEM: ATOMS id type q mass x y z
9075 2 2.2208 232.038 13.7109 18.4238 11.1946
2 1 -1.1104 15.9994 6.67757 16.8834 12.7133
8981 2 2.2208 232.038 13.8087 9.84077 2.61781
1 2 2.2208 232.038 13.8428 1.26113 11.1389
8991 2 2.2208 232.038 13.8758 15.5724 2.73684
6 1 -1.1104 15.9994 3.99331 19.7546 12.6141
7 1 -1.1104 15.9994 1.2601 19.728 12.736
8 2 2.2208 232.038 5.3025 1.47002 2.55153
9 1 -1.1104 15.9994 3.8462 16.9313 12.4563
10 2 2.2208 232.038 10.9952 1.53505 2.45378
11 1 -1.1104 15.9994 1.11159 16.7889 12.5983
12 1 -1.1104 15.9994 12.238 14.118 12.5817
13 2 2.2208 232.038 2.64642 4.23965 2.77233
9021 2 2.2208 232.038 13.889 4.24054 8.41808
15 1 -1.1104 15.9994 12.291 11.2718 12.5194
16 1 -1.1104 15.9994 9.48111 14.1419 12.6737
17 2 2.2208 232.038 8.13469 4.2501 2.63167
18 2 2.2208 232.038 5.40708 6.94455 2.65329
19 1 -1.1104 15.9994 6.81071 14.0951 12.6445
20 2 2.2208 232.038 11.0934 6.95038 2.62332
317 1 -1.1104 15.9994 3.96946 5.64269 12.5746
9065 2 2.2208 232.038 13.7698 7.01255 11.1663
23 2 2.2208 232.038 2.48987 9.88152 2.54741
324 2 2.2208 232.038 5.2165 1.35721 13.9103
25 1 -1.1104 15.9994 9.50675 11.1757 12.4694
26 1 -1.1104 15.9994 6.66421 11.2611 12.3694
27 2 2.2208 232.038 8.04265 9.72484 2.77493
28 2 2.2208 232.038 5.30751 12.6501 2.69938
29 1 -1.1104 15.9994 3.95882 14.1589 12.6521
30 2 2.2208 232.038 11.0702 12.575 2.66384
318 1 -1.1104 15.9994 1.23922 8.41854 12.5133
32 1 -1.1104 15.9994 1.11814 14.0398 12.5028
33 2 2.2208 232.038 2.41216 15.4538 2.69572
316 1 -1.1104 15.9994 1.09062 5.55166 12.4506
35 1 -1.1104 15.9994 3.84795 11.3016 12.725
36 1 -1.1104 15.9994 1.09638 11.2774 12.4801
37 2 2.2208 232.038 8.08932 15.1084 2.8262
38 2 2.2208 232.038 4.99852 18.3515 2.73334
39 1 -1.1104 15.9994 12.491 8.46379 12.5582
40 2 2.2208 232.038 11.4272 18.5015 2.56625
315 1 -1.1104 15.9994 12.4535 2.9235 12.5024
42 1 -1.1104 15.9994 12.4605 5.8098 12.6219
43 2 2.2208 232.038 2.40997 21.164 2.68664
312 1 -1.1104 15.9994 6.74558 2.78515 12.3593
45 1 -1.1104 15.9994 9.66652 8.31927 12.592
46 1 -1.1104 15.9994 6.85364 8.44657 12.6072
47 2 2.2208 232.038 8.26976 21.456 2.76595
48 2 2.2208 232.038 5.39506 23.9382 2.74302
49 1 -1.1104 15.9994 9.58365 5.70217 12.5698
50 2 2.2208 232.038 11.0444 23.9905 2.64943
51 1 -1.1104 15.9994 6.76025 5.71614 12.5377
52 2 2.2208 232.038 2.5207 1.3171 5.44698
53 1 -1.1104 15.9994 7.07827 22.5562 12.6333
9001 2 2.2208 232.038 13.8553 21.2794 2.64841
55 1 -1.1104 15.9994 3.98556 22.4775 12.6537
56 2 2.2208 232.038 8.11747 1.48055 5.27914
57 1 -1.1104 15.9994 1.18924 22.4414 12.6066
58 2 2.2208 232.038 5.3074 1.40361 8.35567
59 1 -1.1104 15.9994 12.3227 19.8365 12.6693
60 2 2.2208 232.038 11.0712 1.47915 8.2199
308 1 -1.1104 15.9994 1.16369 2.80642 12.3694
62 2 2.2208 232.038 2.51442 7.06587 5.51678
63 2 2.2208 232.038 2.41868 4.27048 8.27501
311 1 -1.1104 15.9994 9.69718 0.112182 12.6601
65 2 2.2208 232.038 5.26386 4.1227 5.51394
66 2 2.2208 232.038 8.06304 6.95472 5.51716
67 2 2.2208 232.038 8.15571 4.17305 8.23266
68 2 2.2208 232.038 5.29544 7.03481 8.38893
69 2 2.2208 232.038 11.0351 4.15695 5.43397
70 2 2.2208 232.038 11.1729 6.59913 8.3308
310 1 -1.1104 15.9994 6.59328 0.162383 12.5747
72 2 2.2208 232.038 2.41251 12.5837 5.51046
73 2 2.2208 232.038 2.41647 9.81716 8.41481
74 1 -1.1104 15.9994 4.05411 8.36642 12.5868
75 2 2.2208 232.038 5.15578 9.837 5.39593
76 2 2.2208 232.038 8.16614 12.6593 5.67669
77 2 2.2208 232.038 7.82451 9.73234 8.34231
78 2 2.2208 232.038 5.20127 12.6264 8.45843
79 2 2.2208 232.038 10.8786 9.81676 5.24352
80 2 2.2208 232.038 10.9391 12.8723 8.22063
81 4 2.2208 232.038 8.26919 18.338 2.76643
82 2 2.2208 232.038 2.33053 18.2408 5.52336
83 2 2.2208 232.038 2.43661 15.5218 8.25844
309 1 -1.1104 15.9994 3.98467 2.80703 12.5079
85 2 2.2208 232.038 5.25834 15.1419 5.70597
86 2 2.2208 232.038 8.02183 18.2167 5.93606
87 2 2.2208 232.038 8.02852 15.4476 8.49825
88 2 2.2208 232.038 5.23052 18.2269 8.45816
89 2 2.2208 232.038 11.0395 15.5425 5.38915
90 2 2.2208 232.038 10.9842 18.2212 8.40784
91 1 -1.1104 15.9994 12.3811 16.9366 12.4407
92 2 2.2208 232.038 2.44439 23.8925 5.48983
93 2 2.2208 232.038 2.52864 21.0736 8.27953
313 1 -1.1104 15.9994 9.4969 2.8783 12.4225
95 2 2.2208 232.038 5.3408 21.0509 5.53892
96 2 2.2208 232.038 8.31628 23.7829 5.60143
97 2 2.2208 232.038 8.23579 20.9734 8.52389
98 2 2.2208 232.038 5.29949 23.8108 8.27405
99 2 2.2208 232.038 11.067 21.1044 5.54294
100 2 2.2208 232.038 11.1594 24.0143 8.37829
101 1 -1.1104 15.9994 9.47905 19.8771 12.6929
102 2 2.2208 232.038 2.45475 1.30368 11.1884
103 1 -1.1104 15.9994 6.7701 19.6955 12.5879
104 2 2.2208 232.038 8.05922 1.18435 11.1031
105 1 -1.1104 15.9994 9.53975 16.9464 12.7357
314 1 -1.1104 15.9994 12.3552 -0.109506 12.4531
107 2 2.2208 232.038 2.49332 7.00723 11.2314
108 2 2.2208 232.038 5.29183 4.1402 10.9603
109 2 2.2208 232.038 8.1987 6.9083 11.1649
110 2 2.2208 232.038 10.9644 4.14796 11.243
111 4 2.2208 232.038 10.972 9.72875 8.3898
112 2 2.2208 232.038 2.49391 12.7051 11.1973
113 2 2.2208 232.038 5.38077 9.82265 11.0659
114 2 2.2208 232.038 8.12858 12.6356 11.1677
115 2 2.2208 232.038 10.9676 9.74164 11.4713
116 1 -1.1104 15.9994 12.4823 22.5435 12.5144
117 2 2.2208 232.038 2.23773 18.3449 11.1975
118 2 2.2208 232.038 5.28191 15.475 11.0537
119 2 2.2208 232.038 8.26169 18.3226 11.3404
120 2 2.2208 232.038 10.8801 15.4512 11.2819
121 1 -1.1104 15.9994 9.76597 22.8049 12.7872
122 2 2.2208 232.038 2.3942 23.9114 11.1135
123 2 2.2208 232.038 5.39352 21.1198 11.2103
124 2 2.2208 232.038 8.10365 24.0467 11.0174
125 2 2.2208 232.038 10.8886 21.1717 11.1584
126 1 -1.1104 15.9994 0.857609 -0.0196846 1.17937
127 1 -1.1104 15.9994 3.76883 -0.0429379 1.27472
128 1 -1.1104 15.9994 1.16129 0.0417105 3.75036
129 1 -1.1104 15.9994 4.06818 -0.183859 4.09941
130 1 -1.1104 15.9994 1.14204 2.64785 1.27031
131 1 -1.1104 15.9994 3.98431 2.82634 1.29746
132 1 -1.1104 15.9994 0.915762 2.76863 4.14147
133 1 -1.1104 15.9994 3.94682 2.86045 4.05165
134 1 -1.1104 15.9994 6.62592 0.115199 1.24018
135 1 -1.1104 15.9994 9.38169 0.0567866 1.17221
136 1 -1.1104 15.9994 6.83661 0.0424062 4.04221
137 1 -1.1104 15.9994 9.57522 0.222058 3.97017
138 1 -1.1104 15.9994 6.71962 2.75684 1.12055
139 1 -1.1104 15.9994 9.40753 3.01651 1.23636
140 1 -1.1104 15.9994 6.7032 2.84777 4.13208
141 1 -1.1104 15.9994 9.6725 3.01286 3.84364
142 1 -1.1104 15.9994 12.5294 -0.0301677 1.33528
143 1 -1.1104 15.9994 12.3333 0.155548 4.01374
144 1 -1.1104 15.9994 12.4011 3.01492 1.43039
145 1 -1.1104 15.9994 12.5454 2.90632 4.08205
146 1 -1.1104 15.9994 1.18094 5.54342 1.41895
147 1 -1.1104 15.9994 3.9923 5.47913 1.28472
148 1 -1.1104 15.9994 1.03593 5.55507 4.07652
149 1 -1.1104 15.9994 3.84911 5.66203 4.14018
150 1 -1.1104 15.9994 1.08803 8.32907 1.39072
151 1 -1.1104 15.9994 4.08831 8.18115 1.34845
152 1 -1.1104 15.9994 1.09122 8.40552 4.22552
153 1 -1.1104 15.9994 3.90114 8.40553 4.00996
154 1 -1.1104 15.9994 6.82745 5.68069 1.16721
155 1 -1.1104 15.9994 9.56838 5.78077 1.32572
156 1 -1.1104 15.9994 6.56849 5.56632 4.05837
157 1 -1.1104 15.9994 9.46524 5.61474 4.25685
158 1 -1.1104 15.9994 6.79589 8.5926 1.23886
159 1 -1.1104 15.9994 9.51102 8.5531 1.46146
160 1 -1.1104 15.9994 6.64186 8.47234 4.1128
161 1 -1.1104 15.9994 9.51749 8.34434 4.17714
162 1 -1.1104 15.9994 12.4527 5.64044 1.27553
163 1 -1.1104 15.9994 12.3128 5.71648 4.15893
164 1 -1.1104 15.9994 12.4114 8.411 1.19269
165 1 -1.1104 15.9994 12.5518 8.41665 3.99116
166 1 -1.1104 15.9994 1.01191 11.4142 1.42369
167 1 -1.1104 15.9994 4.11859 11.3723 1.38833
168 1 -1.1104 15.9994 1.01992 11.0628 4.12028
169 1 -1.1104 15.9994 3.76549 11.2494 4.22928
170 1 -1.1104 15.9994 1.1924 14.0993 1.23361
171 1 -1.1104 15.9994 3.8806 14.1803 1.32257
172 1 -1.1104 15.9994 1.02757 14.0989 4.16694
173 1 -1.1104 15.9994 3.95695 13.886 4.22216
174 1 -1.1104 15.9994 6.80099 11.3075 1.41526
175 1 -1.1104 15.9994 9.61368 11.2404 1.41803
176 1 -1.1104 15.9994 6.70714 11.2095 4.23717
177 1 -1.1104 15.9994 9.58291 11.2383 4.20201
178 1 -1.1104 15.9994 6.74698 14.1004 1.2841
179 1 -1.1104 15.9994 9.43318 14.0131 1.35571
180 1 -1.1104 15.9994 6.70002 14.1553 4.28887
181 1 -1.1104 15.9994 9.68855 14.0241 4.14764
182 1 -1.1104 15.9994 12.3338 11.206 1.27421
183 1 -1.1104 15.9994 12.3528 11.2382 4.23676
184 1 -1.1104 15.9994 12.3134 14.1743 1.3593
185 1 -1.1104 15.9994 12.2667 14.1956 4.07717
186 1 -1.1104 15.9994 1.0444 16.8257 1.13193
187 1 -1.1104 15.9994 3.7891 16.9605 1.34046
188 1 -1.1104 15.9994 0.897599 16.8656 4.0652
189 1 -1.1104 15.9994 3.87108 16.6675 4.13655
190 1 -1.1104 15.9994 0.987281 19.592 1.34027
191 1 -1.1104 15.9994 3.82976 19.7263 1.31354
192 1 -1.1104 15.9994 1.03809 19.5398 4.02072
193 1 -1.1104 15.9994 3.82201 19.661 4.14602
194 1 -1.1104 15.9994 6.80211 17.1698 1.50774
195 1 -1.1104 15.9994 9.5003 17.0907 1.34888
196 1 -1.1104 15.9994 7.0536 16.8207 4.21453
197 1 -1.1104 15.9994 9.85929 17.0874 4.1062
198 1 -1.1104 15.9994 6.89709 19.7383 1.5105
199 1 -1.1104 15.9994 9.67222 19.7982 1.62756
200 1 -1.1104 15.9994 6.77179 19.4016 4.25382
201 1 -1.1104 15.9994 9.47089 19.9007 4.23938
202 1 -1.1104 15.9994 12.3582 16.8489 1.15744
203 1 -1.1104 15.9994 12.5371 17.0334 4.04645
204 1 -1.1104 15.9994 12.5013 19.8059 1.05261
205 1 -1.1104 15.9994 12.3423 19.8565 4.03139
206 1 -1.1104 15.9994 1.185 22.4113 1.43423
207 1 -1.1104 15.9994 4.0359 22.4814 1.32689
208 1 -1.1104 15.9994 1.1051 22.5633 4.19297
209 1 -1.1104 15.9994 3.92255 22.5295 4.09716
210 1 -1.1104 15.9994 6.81432 22.5475 1.34467
211 1 -1.1104 15.9994 9.76511 22.633 1.30255
212 1 -1.1104 15.9994 6.87333 22.442 4.10666
213 1 -1.1104 15.9994 9.68913 22.5819 4.26365
214 1 -1.1104 15.9994 12.352 22.6982 1.24165
215 1 -1.1104 15.9994 12.5058 22.6013 4.13749
216 1 -1.1104 15.9994 1.09258 0.131759 6.88988
217 1 -1.1104 15.9994 3.88127 -0.0431625 6.87727
218 1 -1.1104 15.9994 0.909848 0.026437 9.77258
219 1 -1.1104 15.9994 3.83448 0.0531257 9.68596
220 1 -1.1104 15.9994 1.00288 3.02314 6.99642
221 1 -1.1104 15.9994 3.67189 2.7714 6.76581
222 1 -1.1104 15.9994 1.17048 2.86805 9.62121
223 1 -1.1104 15.9994 3.87781 2.98656 9.54322
224 1 -1.1104 15.9994 6.6102 0.0465595 6.77886
225 1 -1.1104 15.9994 9.58802 0.113539 6.68071
226 1 -1.1104 15.9994 6.47797 -0.033438 9.59474
227 1 -1.1104 15.9994 9.57486 0.102366 9.3625
228 1 -1.1104 15.9994 6.61324 2.84383 6.89373
229 1 -1.1104 15.9994 9.60906 2.87662 6.71004
230 1 -1.1104 15.9994 6.75852 2.83714 9.62783
231 1 -1.1104 15.9994 9.75407 2.94093 9.576
232 1 -1.1104 15.9994 12.4898 0.0250993 6.73261
233 1 -1.1104 15.9994 12.4871 0.116604 9.55527
234 1 -1.1104 15.9994 12.3885 2.98773 6.85896
235 1 -1.1104 15.9994 12.4582 2.89987 9.78498
236 1 -1.1104 15.9994 1.16874 5.87268 6.87017
237 1 -1.1104 15.9994 3.9509 5.58573 6.87698
238 1 -1.1104 15.9994 1.08343 5.61199 9.79854
239 1 -1.1104 15.9994 3.79782 5.78773 9.77346
240 1 -1.1104 15.9994 0.853504 8.56729 6.83928
241 1 -1.1104 15.9994 3.84109 8.39643 6.85258
242 1 -1.1104 15.9994 1.09826 8.22456 9.64348
243 1 -1.1104 15.9994 4.00673 8.58436 9.76023
244 1 -1.1104 15.9994 6.79427 5.6575 6.87276
245 1 -1.1104 15.9994 9.81265 5.67287 6.96158
246 1 -1.1104 15.9994 6.68549 5.58878 9.61683
247 1 -1.1104 15.9994 9.57304 5.66397 9.6648
248 1 -1.1104 15.9994 6.59436 8.35166 7.04421
249 1 -1.1104 15.9994 9.45942 8.65025 6.98037
250 1 -1.1104 15.9994 6.79332 8.33722 9.77841
251 1 -1.1104 15.9994 9.67209 8.38253 9.69308
252 1 -1.1104 15.9994 12.6342 5.6207 6.95427
253 1 -1.1104 15.9994 12.5164 5.6646 9.83162
254 1 -1.1104 15.9994 12.0276 8.42452 6.83419
255 1 -1.1104 15.9994 12.3887 8.42461 9.61515
256 1 -1.1104 15.9994 1.076 11.3527 7.01139
257 1 -1.1104 15.9994 3.9027 11.2172 6.93643
258 1 -1.1104 15.9994 1.06712 11.0939 9.73806
259 1 -1.1104 15.9994 3.83328 11.2917 9.84667
260 1 -1.1104 15.9994 1.01279 14.1673 6.83146
261 1 -1.1104 15.9994 3.91724 13.8972 7.00999
262 1 -1.1104 15.9994 1.07794 14.0634 9.64838
263 1 -1.1104 15.9994 4.03119 13.9589 9.77448
264 1 -1.1104 15.9994 6.66116 11.1566 7.06378
265 1 -1.1104 15.9994 9.73135 11.2964 6.90606
266 1 -1.1104 15.9994 6.79643 11.3243 9.64368
267 1 -1.1104 15.9994 9.55492 11.0131 9.56945
268 1 -1.1104 15.9994 6.68825 13.9825 7.00527
269 1 -1.1104 15.9994 9.56143 14.1551 6.80148
270 1 -1.1104 15.9994 6.86189 14.2209 9.88933
271 1 -1.1104 15.9994 9.62034 13.8949 9.76401
272 1 -1.1104 15.9994 12.3819 10.9817 7.15324
273 1 -1.1104 15.9994 12.2282 11.1515 9.66178
274 1 -1.1104 15.9994 12.4076 14.0865 6.89445
275 1 -1.1104 15.9994 12.3487 14.1091 9.84413
276 1 -1.1104 15.9994 0.983968 16.9493 6.78498
277 1 -1.1104 15.9994 3.87989 16.8025 6.81111
278 1 -1.1104 15.9994 1.32681 17.1088 9.56074
279 1 -1.1104 15.9994 3.8482 16.8301 9.63066
280 1 -1.1104 15.9994 1.03801 19.6991 6.82576
281 1 -1.1104 15.9994 3.84163 19.6648 6.93426
282 1 -1.1104 15.9994 1.18651 19.818 9.63859
283 1 -1.1104 15.9994 4.00701 19.7453 9.68618
284 1 -1.1104 15.9994 6.58346 16.7687 7.06928
285 1 -1.1104 15.9994 9.51468 16.785 7.14062
286 1 -1.1104 15.9994 6.69387 17.0383 9.83045
287 1 -1.1104 15.9994 9.31625 16.7963 9.83536
288 1 -1.1104 15.9994 6.61738 19.5802 7.17041
289 1 -1.1104 15.9994 9.50812 19.6561 7.10238
290 1 -1.1104 15.9994 6.88189 19.8231 9.89658
291 1 -1.1104 15.9994 9.58004 19.5391 9.77543
292 1 -1.1104 15.9994 12.1637 16.8899 6.95353
293 1 -1.1104 15.9994 12.3216 16.8372 9.68197
294 1 -1.1104 15.9994 12.441 19.7212 6.90517
295 1 -1.1104 15.9994 12.4178 19.806 9.76473
296 1 -1.1104 15.9994 1.15333 22.5814 6.98534
297 1 -1.1104 15.9994 3.88535 22.623 6.90126
298 1 -1.1104 15.9994 1.04681 22.4653 9.79432
299 1 -1.1104 15.9994 3.89789 22.6119 9.73117
300 1 -1.1104 15.9994 6.66483 22.4215 6.86844
301 1 -1.1104 15.9994 9.3926 22.3815 7.07055
302 1 -1.1104 15.9994 6.70562 22.6216 9.81347
303 1 -1.1104 15.9994 9.53861 22.5155 9.88598
304 1 -1.1104 15.9994 12.2366 22.5227 6.9744
305 1 -1.1104 15.9994 12.392 22.5513 9.80413
306 1 -1.1104 15.9994 0.843553 -0.129501 12.4958
307 1 -1.1104 15.9994 3.75089 -0.069976 12.4842
9020 2 2.2208 232.038 13.7982 7.01761 5.43986
9070 2 2.2208 232.038 13.7194 12.6919 11.2527
661 2 2.2208 232.038 13.6791 6.98521 -0.269686
8257 2 2.2208 232.038 2.86069 -1.54993 2.73528
9041 2 2.2208 232.038 13.8026 15.502 8.37864
9040 2 2.2208 232.038 13.8174 18.3382 5.53823
3 2 2.2208 232.038 13.7723 1.47911 5.44081
9297 2 2.2208 232.038 13.8562 4.15076 2.64497
326 2 2.2208 232.038 13.8063 4.18678 14.0042
8239 2 2.2208 232.038 13.8026 -1.47182 13.9226
9030 2 2.2208 232.038 13.8728 12.6524 5.45732
325 2 2.2208 232.038 11.1035 1.30213 13.974
94 3 -1.1104 15.9994 8.2146 -1.30643 11.1314
359 3 -1.1104 15.9994 2.47269 9.80576 -0.0478627
9080 2 2.2208 232.038 13.8467 24.0334 11.1447
666 2 2.2208 232.038 8.20568 7.00091 -0.129749
9630 2 2.2208 232.038 13.7422 12.6867 -0.174133
344 2 2.2208 232.038 5.00258 23.9824 14.0509
330 2 2.2208 232.038 11.0655 7.0149 14.0256
398 2 2.2208 232.038 2.41673 23.9352 -0.000561443
664 2 2.2208 232.038 2.48299 7.17348 -0.205648
24 2 2.2208 232.038 5.40544 6.94419 14.0701
396 2 2.2208 232.038 11.1134 21.2547 -0.165529
84 2 2.2208 232.038 2.44824 9.82738 13.9489
668 2 2.2208 232.038 5.27074 9.75607 -0.175429
9318 2 2.2208 232.038 13.7584 21.1942 14.0645
366 4 2.2208 232.038 8.20021 23.9548 13.9558
346 2 2.2208 232.038 2.51785 4.17305 13.9149
343 2 2.2208 232.038 7.99075 20.8978 14.0376
14 2 2.2208 232.038 5.27058 12.6737 13.9501
670 2 2.2208 232.038 10.7532 9.85681 -0.0610005
34 3 -1.1104 15.9994 11.0698 1.4922 -0.340845
665 2 2.2208 232.038 5.29305 4.20104 -0.317994
669 2 2.2208 232.038 7.97523 12.6064 -0.162919
674 2 2.2208 232.038 2.41025 21.1861 13.998
399 2 2.2208 232.038 10.9812 15.4465 27.9899
9633 2 2.2208 232.038 13.8306 18.2399 27.9723
9343 2 2.2208 232.038 13.7341 12.6415 16.7434
354 2 2.2208 232.038 13.6069 1.21535 22.3316
349 2 2.2208 232.038 8.23245 23.8696 28.0666
404 2 2.2208 232.038 13.7422 1.39523 16.7297
327 1 -1.1104 15.9994 6.70143 22.5879 23.7589
9364 2 2.2208 232.038 13.9278 21.1878 19.5548
329 1 -1.1104 15.9994 3.92323 22.5812 26.6651
9644 2 2.2208 232.038 13.8381 4.16704 25.0125
331 1 -1.1104 15.9994 0.940849 22.6985 26.7797
332 3 -1.1104 15.9994 10.8644 18.2458 22.3979
348 2 2.2208 232.038 13.7298 12.7457 22.5073
334 1 -1.1104 15.9994 3.8448 22.5165 23.9488
8925 2 2.2208 232.038 10.9267 -1.44208 22.3414
336 1 -1.1104 15.9994 1.09997 22.4208 23.9271
337 3 -1.1104 15.9994 10.9005 7.15314 22.4243
345 2 2.2208 232.038 11.375 23.9569 13.9948
339 1 -1.1104 15.9994 12.2368 19.8163 26.5237
9645 2 2.2208 232.038 13.8588 9.79298 19.5136
341 1 -1.1104 15.9994 12.4146 19.8078 23.8959
9375 2 2.2208 232.038 13.7244 4.15987 19.5334
9299 2 2.2208 232.038 13.7215 15.4296 19.5393
656 1 -1.1104 15.9994 9.53046 19.7746 26.7117
659 2 2.2208 232.038 2.54109 1.2996 27.9242
402 2 2.2208 232.038 13.696 6.96451 16.8322
347 2 2.2208 232.038 2.44557 1.35931 16.6718
655 1 -1.1104 15.9994 6.70878 19.7233 26.8141
643 1 -1.1104 15.9994 1.12819 16.9452 26.5702
321 2 2.2208 232.038 13.8295 24.0039 22.3154
351 2 2.2208 232.038 8.13462 1.46402 16.6927
419 2 2.2208 232.038 13.6092 1.50126 27.9915
353 2 2.2208 232.038 5.29966 1.42382 19.3626
654 1 -1.1104 15.9994 9.41738 19.8268 24.0155
355 2 2.2208 232.038 10.8828 1.32524 19.4455
653 1 -1.1104 15.9994 6.75235 19.6153 24.0773
357 2 2.2208 232.038 2.50884 7.04483 16.5817
358 2 2.2208 232.038 2.47072 4.27458 19.4808
323 2 2.2208 232.038 13.735 18.4196 22.3491
360 2 2.2208 232.038 5.27774 4.22195 16.7536
361 2 2.2208 232.038 8.21631 6.94664 16.6935
362 2 2.2208 232.038 8.22546 4.20427 19.5028
363 2 2.2208 232.038 5.42138 7.07852 19.4406
364 2 2.2208 232.038 10.9671 4.21428 16.6921
365 2 2.2208 232.038 11.0072 6.87119 19.7114
352 2 2.2208 232.038 13.5958 6.99534 22.4082
367 2 2.2208 232.038 2.23099 12.5582 16.3186
368 2 2.2208 232.038 2.46829 9.5064 19.5711
652 1 -1.1104 15.9994 9.49923 16.8987 26.7718
370 2 2.2208 232.038 5.33951 9.85605 16.6664
371 2 2.2208 232.038 8.22374 12.7091 16.7713
372 2 2.2208 232.038 8.09239 9.7939 19.3113
373 2 2.2208 232.038 5.60478 12.6401 19.624
374 2 2.2208 232.038 10.9684 9.93218 16.8064
375 2 2.2208 232.038 11.0878 12.7693 19.762
376 4 2.2208 232.038 2.42874 12.7492 19.4053
377 2 2.2208 232.038 2.47362 18.4796 16.7436
378 2 2.2208 232.038 2.38216 15.8712 19.6904
379 1 -1.1104 15.9994 12.5696 22.5487 26.6057
380 2 2.2208 232.038 5.17325 15.5704 16.813
381 2 2.2208 232.038 8.06103 18.2762 16.8595
382 2 2.2208 232.038 8.08507 15.4377 19.6127
383 2 2.2208 232.038 5.20052 18.4727 19.769
384 2 2.2208 232.038 10.9049 15.4795 16.8641
385 2 2.2208 232.038 10.9643 18.3161 19.8057
386 1 -1.1104 15.9994 12.2861 22.5169 23.736
387 2 2.2208 232.038 2.36865 24.1165 16.8777
388 2 2.2208 232.038 2.39639 21.251 19.6511
389 1 -1.1104 15.9994 9.60602 22.6209 26.6423
390 2 2.2208 232.038 5.24314 21.0449 16.8963
391 2 2.2208 232.038 8.1746 23.9534 17.185
392 2 2.2208 232.038 8.14624 21.1906 19.7122
393 2 2.2208 232.038 5.26618 23.9174 19.7746
394 2 2.2208 232.038 11.0081 21.0812 16.9496
395 2 2.2208 232.038 11.0577 24.0554 19.7341
651 1 -1.1104 15.9994 6.55289 16.8571 26.8533
397 2 2.2208 232.038 2.56665 1.51194 22.2664
650 1 -1.1104 15.9994 9.41699 16.8608 24.1819
660 2 2.2208 232.038 8.19977 1.47421 27.8031
400 2 2.2208 232.038 8.10962 18.3139 27.7682
401 2 2.2208 232.038 8.14485 1.30665 22.2588
648 1 -1.1104 15.9994 3.92983 19.8085 26.6984
403 2 2.2208 232.038 5.30396 1.41579 25.1126
647 1 -1.1104 15.9994 1.2044 19.8745 26.7833
405 2 2.2208 232.038 10.9322 1.54093 25.2616
658 1 -1.1104 15.9994 12.3169 16.8531 26.6283
407 2 2.2208 232.038 2.59168 7.21413 22.2977
408 2 2.2208 232.038 2.42098 4.29111 25.0294
649 1 -1.1104 15.9994 6.6454 16.886 23.9728
410 2 2.2208 232.038 5.35995 4.38118 22.243
411 2 2.2208 232.038 8.26367 7.05911 22.4214
412 2 2.2208 232.038 8.0713 4.19199 25.1295
413 2 2.2208 232.038 5.27297 6.9835 25.1209
414 2 2.2208 232.038 10.8635 4.2699 22.5194
415 2 2.2208 232.038 10.9373 7.08746 25.0671
646 1 -1.1104 15.9994 3.96883 19.7445 23.8773
417 2 2.2208 232.038 2.39533 12.6011 22.6879
418 2 2.2208 232.038 2.46198 9.8422 25.3561
645 1 -1.1104 15.9994 1.15285 19.7231 24.0198
420 2 2.2208 232.038 5.44621 9.77571 22.3604
421 2 2.2208 232.038 8.19642 12.6076 22.2979
422 2 2.2208 232.038 8.06005 9.80067 25.2158
423 2 2.2208 232.038 5.3136 12.59 25.1827
424 2 2.2208 232.038 10.9206 9.64663 22.209
425 2 2.2208 232.038 10.7902 12.6604 25.1141
426 1 -1.1104 15.9994 6.84777 22.4958 26.6476
427 2 2.2208 232.038 2.43402 18.4386 22.4139
428 2 2.2208 232.038 2.46764 15.5534 25.2049
644 1 -1.1104 15.9994 3.91711 16.9569 26.701
430 2 2.2208 232.038 5.23578 15.5112 22.3587
431 2 2.2208 232.038 8.32013 18.4209 22.4718
432 2 2.2208 232.038 7.98986 15.4059 25.2833
433 2 2.2208 232.038 5.34348 18.2593 25.241
434 2 2.2208 232.038 11.0021 15.729 22.4686
435 2 2.2208 232.038 10.9782 18.2788 25.0019
657 1 -1.1104 15.9994 12.5741 16.8028 23.9006
437 2 2.2208 232.038 2.30732 24.0491 22.524
438 2 2.2208 232.038 2.46671 21.2041 25.3359
439 1 -1.1104 15.9994 9.45084 22.6528 23.7783
440 2 2.2208 232.038 5.20452 21.1332 22.6317
441 2 2.2208 232.038 8.14713 23.9854 22.3001
442 2 2.2208 232.038 8.19522 21.2367 25.2667
443 2 2.2208 232.038 5.44365 23.9696 25.2781
444 2 2.2208 232.038 11.0318 21.031 22.4329
445 2 2.2208 232.038 10.9723 23.9545 25.1428
446 1 -1.1104 15.9994 1.0279 0.00834543 15.2616
447 1 -1.1104 15.9994 3.74517 0.0670515 15.303
448 1 -1.1104 15.9994 1.05553 2.82319 15.2153
449 1 -1.1104 15.9994 3.95157 2.88317 15.3498
450 1 -1.1104 15.9994 6.72431 0.00558224 15.3025
451 1 -1.1104 15.9994 9.55056 0.11786 15.3469
452 1 -1.1104 15.9994 6.72268 2.84527 15.1004
453 1 -1.1104 15.9994 9.50922 2.89242 15.3224
454 1 -1.1104 15.9994 12.2905 -0.13581 15.3655
455 1 -1.1104 15.9994 12.3507 2.69559 15.306
456 1 -1.1104 15.9994 1.02887 5.59384 15.3207
457 1 -1.1104 15.9994 3.97275 5.67701 15.426
458 1 -1.1104 15.9994 1.14505 8.40472 15.1836
459 1 -1.1104 15.9994 3.85645 8.43868 15.4635
460 1 -1.1104 15.9994 6.69956 5.50556 15.2337
461 1 -1.1104 15.9994 9.52007 5.65172 15.3035
462 1 -1.1104 15.9994 6.68421 8.35604 15.3312
463 1 -1.1104 15.9994 9.47027 8.56261 15.4543
464 1 -1.1104 15.9994 12.3813 5.65441 15.353
465 1 -1.1104 15.9994 12.2111 8.44727 15.3458
466 1 -1.1104 15.9994 0.976591 11.2292 15.1526
467 1 -1.1104 15.9994 3.88571 11.218 15.323
468 1 -1.1104 15.9994 0.912394 14.1531 15.2709
469 1 -1.1104 15.9994 3.7387 14.0801 15.2856
470 1 -1.1104 15.9994 6.67953 11.2276 15.2534
471 1 -1.1104 15.9994 9.56444 11.2734 15.3214
472 1 -1.1104 15.9994 6.64115 14.1459 15.3557
473 1 -1.1104 15.9994 9.4483 14.1395 15.491
474 1 -1.1104 15.9994 12.3064 11.321 15.3006
475 1 -1.1104 15.9994 12.1648 14.2157 15.3815
476 1 -1.1104 15.9994 1.17382 16.8944 15.3475
477 1 -1.1104 15.9994 3.86559 16.9507 15.4528
478 1 -1.1104 15.9994 0.970779 19.6653 15.4265
479 1 -1.1104 15.9994 3.86275 19.9159 15.4804
480 1 -1.1104 15.9994 6.73299 16.963 15.4813
481 1 -1.1104 15.9994 9.49176 16.9816 15.4246
482 1 -1.1104 15.9994 6.52564 19.6657 15.3535
483 1 -1.1104 15.9994 9.58435 19.9182 15.4213
484 1 -1.1104 15.9994 12.1935 16.8137 15.2279
485 1 -1.1104 15.9994 12.2949 19.6436 15.572
486 1 -1.1104 15.9994 1.06425 22.5149 15.4696
487 1 -1.1104 15.9994 4.02302 22.6121 15.5076
488 1 -1.1104 15.9994 6.80917 22.53 15.1882
489 1 -1.1104 15.9994 9.36158 22.6341 15.5193
490 1 -1.1104 15.9994 12.2831 22.5483 15.3791
491 1 -1.1104 15.9994 1.04882 0.0428688 18.0591
492 1 -1.1104 15.9994 4.00908 0.0878353 17.9919
493 1 -1.1104 15.9994 1.02575 0.26249 20.7783
494 1 -1.1104 15.9994 4.01384 0.276742 20.8886
495 1 -1.1104 15.9994 1.12716 2.80501 18.0676
496 1 -1.1104 15.9994 3.90121 2.79529 18.1146
497 1 -1.1104 15.9994 1.17761 3.09584 20.9889
498 1 -1.1104 15.9994 3.86447 2.92886 20.8759
499 1 -1.1104 15.9994 6.71191 -0.0156386 17.996
500 1 -1.1104 15.9994 9.44216 0.0749529 18.1266
501 1 -1.1104 15.9994 6.66936 0.0470066 20.7236
502 1 -1.1104 15.9994 9.44728 -0.108676 20.8386
503 1 -1.1104 15.9994 6.79253 2.88952 17.9809
504 1 -1.1104 15.9994 9.80759 2.89535 18.2123
505 1 -1.1104 15.9994 6.70799 3.02385 20.9857
506 1 -1.1104 15.9994 9.4011 2.73889 20.9989
507 1 -1.1104 15.9994 12.3519 -0.136071 18.2352
508 1 -1.1104 15.9994 12.28 -0.138042 20.8802
509 1 -1.1104 15.9994 12.3632 2.83983 18.1115
510 1 -1.1104 15.9994 12.3486 2.60471 20.8459
511 1 -1.1104 15.9994 1.11493 5.69152 18.073
512 1 -1.1104 15.9994 3.8437 5.70542 18.1233
513 1 -1.1104 15.9994 1.17501 5.83453 20.8656
514 1 -1.1104 15.9994 4.02752 5.77963 20.8801
515 1 -1.1104 15.9994 1.01483 8.49328 17.8698
516 1 -1.1104 15.9994 3.95105 8.60482 18.1764
517 1 -1.1104 15.9994 0.98562 8.46917 20.8754
518 1 -1.1104 15.9994 3.94039 8.59131 20.9028
519 1 -1.1104 15.9994 6.6153 5.69086 17.9773
520 1 -1.1104 15.9994 9.40553 5.72897 18.0132
521 1 -1.1104 15.9994 6.83177 5.68479 20.7552
522 1 -1.1104 15.9994 9.52158 5.55954 20.8837
523 1 -1.1104 15.9994 6.67765 8.46833 17.9575
524 1 -1.1104 15.9994 9.63415 8.28574 18.1804
525 1 -1.1104 15.9994 6.78801 8.53304 20.8183
526 1 -1.1104 15.9994 9.32343 8.57211 20.8684
527 1 -1.1104 15.9994 12.2612 5.60062 18.1699
528 1 -1.1104 15.9994 12.3847 5.31363 20.9969
529 1 -1.1104 15.9994 12.4257 8.46333 18.0391
530 1 -1.1104 15.9994 12.4857 8.48172 20.8072
531 1 -1.1104 15.9994 1.30686 11.1905 18.1378
532 1 -1.1104 15.9994 3.79682 11.2611 18.2383
533 1 -1.1104 15.9994 0.95299 11.4016 20.9849
534 1 -1.1104 15.9994 3.76762 11.5396 21.0209
535 1 -1.1104 15.9994 0.879854 13.9112 18.1452
536 1 -1.1104 15.9994 3.67091 14.1351 18.074
537 1 -1.1104 15.9994 1.114 14.2137 20.8542
538 1 -1.1104 15.9994 3.85981 14.1223 20.6167
539 1 -1.1104 15.9994 6.63136 11.4083 18.0838
540 1 -1.1104 15.9994 9.42526 11.2881 18.1841
541 1 -1.1104 15.9994 6.70478 11.315 20.9041
542 1 -1.1104 15.9994 9.75984 11.3032 20.9684
543 1 -1.1104 15.9994 6.73869 14.0989 18.0971
544 1 -1.1104 15.9994 9.73376 14.143 18.3402
545 1 -1.1104 15.9994 6.68403 14.1522 20.929
546 1 -1.1104 15.9994 9.47454 14.1497 21.0177
547 1 -1.1104 15.9994 12.3945 11.3021 18.0925
548 1 -1.1104 15.9994 12.4874 11.2332 20.9066
549 1 -1.1104 15.9994 12.3168 14.0206 18.3114
550 1 -1.1104 15.9994 12.3089 14.189 21.1584
551 1 -1.1104 15.9994 0.895532 16.94 18.2641
552 1 -1.1104 15.9994 3.64579 17.0276 18.1565
553 1 -1.1104 15.9994 0.978994 17.1992 21.0636
554 1 -1.1104 15.9994 3.73359 16.9506 20.9935
555 1 -1.1104 15.9994 0.961774 19.8595 18.3819
556 1 -1.1104 15.9994 3.70039 19.8233 18.2561
557 1 -1.1104 15.9994 0.929175 19.825 21.095
558 1 -1.1104 15.9994 3.84254 19.8316 21.1704
559 1 -1.1104 15.9994 6.38128 16.9612 18.3441
560 1 -1.1104 15.9994 9.4815 16.829 18.3502
561 1 -1.1104 15.9994 6.55411 16.7049 21.0335
562 1 -1.1104 15.9994 9.38601 16.8823 20.9779
563 1 -1.1104 15.9994 6.52806 19.7648 18.3839
564 1 -1.1104 15.9994 9.51471 19.6569 18.0922
565 1 -1.1104 15.9994 6.83292 19.5562 21.1931
566 1 -1.1104 15.9994 9.50715 19.7929 20.9145
567 1 -1.1104 15.9994 12.3727 16.7916 18.0282
568 1 -1.1104 15.9994 12.4947 16.9176 20.7344
569 1 -1.1104 15.9994 12.2797 19.6459 18.2655
570 1 -1.1104 15.9994 12.5859 19.8372 21.0082
571 1 -1.1104 15.9994 1.02685 22.5163 18.1657
572 1 -1.1104 15.9994 3.68535 22.7421 18.3105
573 1 -1.1104 15.9994 1.03825 22.6537 20.933
574 1 -1.1104 15.9994 3.87916 22.6502 21.153
575 1 -1.1104 15.9994 6.71247 22.2501 18.0401
576 1 -1.1104 15.9994 9.65969 22.5192 18.2517
577 1 -1.1104 15.9994 6.53331 22.4429 21.0021
578 1 -1.1104 15.9994 9.56316 22.5801 20.8881
579 1 -1.1104 15.9994 12.4795 22.5448 18.0859
580 1 -1.1104 15.9994 12.4875 22.4814 21.0023
581 1 -1.1104 15.9994 1.13195 0.363611 23.7657
582 1 -1.1104 15.9994 3.95179 0.199871 23.8524
583 1 -1.1104 15.9994 1.3098 -0.133378 26.4475
584 1 -1.1104 15.9994 3.99169 -0.0788637 26.7083
585 1 -1.1104 15.9994 0.9482 3.07017 23.8225
586 1 -1.1104 15.9994 3.9251 3.00963 23.7609
587 1 -1.1104 15.9994 1.04121 2.61534 26.6972
588 1 -1.1104 15.9994 3.70008 2.68688 26.4381
589 1 -1.1104 15.9994 6.70356 -0.0660248 23.5478
590 1 -1.1104 15.9994 9.5104 -0.00288915 23.6523
591 1 -1.1104 15.9994 6.67986 0.00339309 26.4181
592 1 -1.1104 15.9994 9.38462 -0.0561515 26.3446
593 1 -1.1104 15.9994 6.78256 2.69366 23.7074
594 1 -1.1104 15.9994 9.62343 2.69197 23.6233
595 1 -1.1104 15.9994 6.60322 2.88019 26.5588
596 1 -1.1104 15.9994 9.46273 2.99998 26.4249
597 1 -1.1104 15.9994 12.2675 -0.084705 23.7676
598 1 -1.1104 15.9994 12.4983 -0.241725 26.5781
599 1 -1.1104 15.9994 12.5236 2.71306 23.6192
600 1 -1.1104 15.9994 12.3458 3.02889 26.5573
601 1 -1.1104 15.9994 1.15007 5.70673 23.7474
602 1 -1.1104 15.9994 3.80838 5.77084 23.5217
603 1 -1.1104 15.9994 1.20865 5.534 26.587
604 1 -1.1104 15.9994 3.90408 5.75921 26.4318
605 1 -1.1104 15.9994 1.02077 8.4326 23.7602
606 1 -1.1104 15.9994 3.88736 8.58863 23.7648
607 1 -1.1104 15.9994 1.01436 8.25865 26.4764
608 1 -1.1104 15.9994 4.00242 8.37034 26.5049
609 1 -1.1104 15.9994 6.64265 5.51821 23.69
610 1 -1.1104 15.9994 9.61767 5.41893 24.0188
611 1 -1.1104 15.9994 6.83384 5.64613 26.4147
612 1 -1.1104 15.9994 9.54155 5.81258 26.6579
613 1 -1.1104 15.9994 6.63133 8.26348 23.6873
614 1 -1.1104 15.9994 9.37824 8.48316 23.9372
615 1 -1.1104 15.9994 6.66783 8.44281 26.6282
616 1 -1.1104 15.9994 9.39154 8.53218 26.76
617 1 -1.1104 15.9994 12.4748 5.4994 23.8417
618 1 -1.1104 15.9994 12.3165 5.8474 26.6113
619 1 -1.1104 15.9994 12.5821 8.49534 23.8742
620 1 -1.1104 15.9994 12.1204 8.46094 26.5987
621 1 -1.1104 15.9994 0.967194 11.2476 23.8645
622 1 -1.1104 15.9994 3.97624 11.2559 23.5701
623 1 -1.1104 15.9994 0.967969 11.2805 26.4745
624 1 -1.1104 15.9994 3.93305 11.4092 26.52
625 1 -1.1104 15.9994 1.02567 14.0048 23.7872
626 1 -1.1104 15.9994 3.90533 13.9745 23.5964
627 1 -1.1104 15.9994 1.07972 14.0121 26.5902
628 1 -1.1104 15.9994 3.83418 14.0184 26.4937
629 1 -1.1104 15.9994 6.82993 11.225 23.7539