ITEM: TIMESTEP
100000
ITEM: NUMBER OF ATOMS
18000
ITEM: BOX BOUNDS xy xz yz pp pp pp
-1.4527486638125148e-01 2.8039274866380907e+01 0.0000000000000000e+00
-1.5276382661606278e+00 3.3625563826617071e+02 0.0000000000000000e+00
-1.2866023251147343e-01 2.8022660232511704e+01 0.0000000000000000e+00
ITEM: ATOMS id type q mass x y z
326 2 2.2208 232.038 2.76354 -1.4304 13.9362
59 2 2.2208 232.038 11.2339 -1.55057 5.49644
659 2 2.2208 232.038 2.74328 1.37915 -0.152607
4 1 -1.1104 15.9994 12.5537 22.4001 12.6445
121 2 2.2208 232.038 0.0250577 21.0427 11.201
55 2 2.2208 232.038 5.7568 -1.35142 5.59795
666 2 2.2208 232.038 2.82924 12.6242 -0.150521
8 2 2.2208 232.038 5.62764 1.24406 2.67711
9 1 -1.1104 15.9994 12.6932 8.38217 12.2836
10 2 2.2208 232.038 11.2115 1.12413 2.54119
11 1 -1.1104 15.9994 9.66329 22.4575 12.5291
481 1 -1.1104 15.9994 1.48723 16.9524 12.6011
13 2 2.2208 232.038 2.82374 4.14063 2.75124
14 1 -1.1104 15.9994 6.90166 22.4565 12.482
26 2 2.2208 232.038 8.45357 12.4104 -0.115034
8993 2 2.2208 232.038 -0.0227232 9.78924 5.52981
17 2 2.2208 232.038 8.37879 4.18128 2.74859
18 2 2.2208 232.038 5.40573 6.91697 2.67213
57 2 2.2208 232.038 8.75138 -1.47138 8.1979
20 2 2.2208 232.038 11.1511 7.04327 2.5338
21 1 -1.1104 15.9994 4.19286 22.533 12.4097
22 1 -1.1104 15.9994 1.46561 16.7606 9.87681
23 2 2.2208 232.038 2.7122 10.0005 2.90767
340 2 2.2208 232.038 11.3071 12.4763 13.9474
91 2 2.2208 232.038 -0.0179251 20.9355 5.37659
7 2 2.2208 232.038 8.426 -1.37301 2.66851
27 2 2.2208 232.038 8.14603 9.85754 2.7308
28 2 2.2208 232.038 5.66325 12.6809 2.75009
9101 2 2.2208 232.038 14.0059 23.8139 11.1707
30 2 2.2208 232.038 11.2417 12.5715 2.74082
31 1 -1.1104 15.9994 12.6584 13.9669 12.4359
32 1 -1.1104 15.9994 12.6978 11.1353 12.529
33 2 2.2208 232.038 2.8902 15.4447 2.67924
324 1 -1.1104 15.9994 12.6851 5.5571 12.0879
35 1 -1.1104 15.9994 9.79139 13.8693 12.5127
36 1 -1.1104 15.9994 6.94896 14.058 12.5943
37 2 2.2208 232.038 8.42891 15.385 2.8696
38 2 2.2208 232.038 5.5089 18.2182 2.67054
39 1 -1.1104 15.9994 9.85662 11.1736 12.6053
40 2 2.2208 232.038 11.0962 18.2891 2.69967
41 1 -1.1104 15.9994 6.98329 11.0926 12.655
42 1 -1.1104 15.9994 4.23453 13.8913 12.4808
43 2 2.2208 232.038 2.95342 21.0153 2.61019
323 1 -1.1104 15.9994 9.78757 8.33904 12.5536
45 1 -1.1104 15.9994 1.39688 13.977 12.6425
46 1 -1.1104 15.9994 3.99914 11.2179 12.588
47 2 2.2208 232.038 8.28728 21.0141 2.6517
48 2 2.2208 232.038 5.65097 23.9018 2.64962
49 1 -1.1104 15.9994 1.3014 11.0175 12.5911
50 2 2.2208 232.038 11.1572 23.7415 2.47787
51 1 -1.1104 15.9994 1.32797 22.5417 12.712
52 2 2.2208 232.038 2.71563 1.44835 5.55194
53 2 2.2208 232.038 2.77263 -1.35543 8.39909
54 1 -1.1104 15.9994 12.6578 19.5678 12.3277
8997 2 2.2208 232.038 -0.0676381 4.12116 5.67074
56 2 2.2208 232.038 8.5592 1.43924 5.42464
319 1 -1.1104 15.9994 4.11717 8.32475 12.7983
58 2 2.2208 232.038 5.49454 1.31419 8.23345
318 1 -1.1104 15.9994 1.2548 8.30159 12.5874
60 2 2.2208 232.038 11.326 1.33768 8.31367
61 1 -1.1104 15.9994 12.4207 16.769 12.4441
62 2 2.2208 232.038 2.67457 6.9075 5.67518
63 2 2.2208 232.038 2.88707 4.29148 8.54386
64 1 -1.1104 15.9994 9.91235 19.6077 12.6991
65 2 2.2208 232.038 5.54987 4.32373 5.54324
66 2 2.2208 232.038 8.18408 7.16427 5.4327
67 2 2.2208 232.038 8.45201 4.2266 8.25227
68 2 2.2208 232.038 5.60875 7.09717 8.4143
69 2 2.2208 232.038 11.2377 4.14475 5.51047
70 2 2.2208 232.038 11.1722 7.09409 8.07869
71 1 -1.1104 15.9994 6.95641 19.7403 12.6269
72 2 2.2208 232.038 2.84428 12.5774 5.40494
73 2 2.2208 232.038 2.71824 9.76894 8.36232
74 1 -1.1104 15.9994 9.72576 16.6979 12.5571
75 2 2.2208 232.038 5.67688 9.87851 5.65801
76 2 2.2208 232.038 8.35205 12.6455 5.62023
77 2 2.2208 232.038 8.406 9.88079 8.39161
78 2 2.2208 232.038 5.54523 12.6164 8.22316
79 2 2.2208 232.038 11.12 9.82302 5.36902
80 2 2.2208 232.038 11.1863 12.6048 8.27366
322 1 -1.1104 15.9994 6.98567 8.21886 12.5992
82 2 2.2208 232.038 2.8357 18.1587 5.51574
83 2 2.2208 232.038 2.96194 15.3588 8.35727
94 2 2.2208 232.038 -0.167742 23.9328 8.20599
85 2 2.2208 232.038 5.51094 15.3445 5.44817
86 2 2.2208 232.038 8.41267 18.3202 5.54308
87 2 2.2208 232.038 8.31339 15.4448 8.24496
88 2 2.2208 232.038 5.59007 18.2238 8.31389
89 2 2.2208 232.038 11.3106 15.4187 5.47252
90 2 2.2208 232.038 11.321 18.2597 8.28387
321 1 -1.1104 15.9994 9.96363 5.50612 12.491
92 2 2.2208 232.038 2.6713 23.7328 5.48727
93 2 2.2208 232.038 2.60529 21.0886 8.3911
24 2 2.2208 232.038 -0.060384 12.8404 2.7492
95 2 2.2208 232.038 5.53866 21.1007 5.47571
96 2 2.2208 232.038 8.19197 23.9388 5.64787
97 2 2.2208 232.038 8.37408 20.9044 8.41958
98 2 2.2208 232.038 5.39254 23.7768 8.29088
99 2 2.2208 232.038 11.199 21.0359 5.3978
100 2 2.2208 232.038 11.2075 23.4813 8.23394
101 1 -1.1104 15.9994 6.94475 16.8467 12.8253
102 2 2.2208 232.038 2.95552 1.30673 11.0726
8981 2 2.2208 232.038 -0.0235349 15.4648 11.3684
104 2 2.2208 232.038 8.47179 1.29967 11.0525
8983 2 2.2208 232.038 -0.0279471 9.66943 11.2752
106 1 -1.1104 15.9994 4.28602 19.8657 12.8019
107 2 2.2208 232.038 2.7833 7.09412 11.4033
108 2 2.2208 232.038 5.74713 4.1177 11.0795
109 2 2.2208 232.038 8.45986 7.08561 11.131
110 2 2.2208 232.038 11.2544 4.1842 11.1699
111 1 -1.1104 15.9994 1.57449 19.8373 12.5302
112 2 2.2208 232.038 2.68261 12.4931 11.2206
113 2 2.2208 232.038 5.6061 9.7853 11.1875
114 2 2.2208 232.038 8.42465 12.631 11.183
115 2 2.2208 232.038 11.2222 9.63705 11.0718
116 1 -1.1104 15.9994 4.05393 16.8312 12.3681
117 2 2.2208 232.038 2.80526 18.3936 11.1753
118 2 2.2208 232.038 5.67212 15.5012 11.2121
119 2 2.2208 232.038 8.3767 18.1826 11.266
120 2 2.2208 232.038 11.0498 15.5337 11.0319
320 1 -1.1104 15.9994 7.0462 5.51632 12.5485
122 2 2.2208 232.038 2.70519 23.9905 11.0231
123 2 2.2208 232.038 5.50238 21.0666 11.1354
124 2 2.2208 232.038 8.3947 23.8174 11.1619
125 2 2.2208 232.038 11.0523 21.0127 11.1293
126 1 -1.1104 15.9994 1.40079 -0.136398 1.40307
127 1 -1.1104 15.9994 4.1536 -0.0489332 1.10428
128 1 -1.1104 15.9994 1.33532 -0.221837 4.03841
129 1 -1.1104 15.9994 4.16378 0.0907673 4.08528
130 1 -1.1104 15.9994 1.43812 2.7513 1.48664
131 1 -1.1104 15.9994 4.1978 2.67797 1.30371
132 1 -1.1104 15.9994 1.4698 2.89458 4.18001
133 1 -1.1104 15.9994 4.35417 2.85243 4.0603
134 1 -1.1104 15.9994 7.19225 0.162109 1.20527
135 1 -1.1104 15.9994 9.92376 -0.396845 1.36066
136 1 -1.1104 15.9994 6.97455 -0.231088 4.02035
137 1 -1.1104 15.9994 9.94179 -0.0995616 4.22308
138 1 -1.1104 15.9994 6.99069 2.88774 1.45997
139 1 -1.1104 15.9994 9.81578 2.5745 1.0193
140 1 -1.1104 15.9994 7.0656 2.57361 4.11988
141 1 -1.1104 15.9994 9.95218 2.68977 3.88653
142 1 -1.1104 15.9994 12.6765 -0.23098 1.1703
143 1 -1.1104 15.9994 12.743 -0.203175 4.14169
144 1 -1.1104 15.9994 12.601 2.61964 1.41572
145 1 -1.1104 15.9994 12.6925 2.77136 4.27961
146 1 -1.1104 15.9994 1.42122 5.47103 1.28014
147 1 -1.1104 15.9994 4.20028 5.47036 1.33527
148 1 -1.1104 15.9994 1.32766 5.62759 4.16751
149 1 -1.1104 15.9994 4.04628 5.5141 4.25116
150 1 -1.1104 15.9994 1.42586 8.44554 1.43662
151 1 -1.1104 15.9994 4.12658 8.22913 1.40333
152 1 -1.1104 15.9994 1.38501 8.33195 4.3729
153 1 -1.1104 15.9994 4.28262 8.44441 4.17207
154 1 -1.1104 15.9994 7.01003 5.66189 1.30418
155 1 -1.1104 15.9994 9.81462 5.4661 1.39538
156 1 -1.1104 15.9994 6.95289 5.62328 4.05159
157 1 -1.1104 15.9994 9.80417 5.60195 4.14831
158 1 -1.1104 15.9994 7.07073 8.41611 1.29344
159 1 -1.1104 15.9994 9.92333 8.36265 1.24336
160 1 -1.1104 15.9994 6.89062 8.40543 4.11188
161 1 -1.1104 15.9994 9.5941 8.57451 4.10933
162 1 -1.1104 15.9994 12.5099 5.45917 1.38472
163 1 -1.1104 15.9994 12.5912 5.491 4.09018
164 1 -1.1104 15.9994 12.7125 8.33513 1.24271
165 1 -1.1104 15.9994 12.3115 8.31169 3.99929
166 1 -1.1104 15.9994 1.3978 11.2675 1.33175
167 1 -1.1104 15.9994 4.19997 11.4155 1.41143
168 1 -1.1104 15.9994 1.2762 11.1894 4.0502
169 1 -1.1104 15.9994 4.18885 11.2169 4.21149
170 1 -1.1104 15.9994 1.41809 13.9408 1.26975
171 1 -1.1104 15.9994 4.30247 13.9218 1.15931
172 1 -1.1104 15.9994 1.46819 13.8583 4.04001
173 1 -1.1104 15.9994 4.29748 13.9823 4.07443
174 1 -1.1104 15.9994 6.97165 11.1851 1.22758
175 1 -1.1104 15.9994 9.93348 11.301 1.28322
176 1 -1.1104 15.9994 6.98235 11.1611 4.09308
177 1 -1.1104 15.9994 9.5992 11.2432 3.99695
178 1 -1.1104 15.9994 7.17102 13.8475 1.24333
179 1 -1.1104 15.9994 9.86371 14.1403 1.40816
180 1 -1.1104 15.9994 6.93511 13.887 4.18388
181 1 -1.1104 15.9994 9.65958 13.8793 4.19796
182 1 -1.1104 15.9994 12.8283 11.1388 1.4049
183 1 -1.1104 15.9994 12.5295 11.1334 4.19107
184 1 -1.1104 15.9994 12.64 14.0422 1.28874
185 1 -1.1104 15.9994 12.3813 14.0394 4.10317
186 1 -1.1104 15.9994 1.31168 16.6845 1.33978
187 1 -1.1104 15.9994 4.13218 16.67 1.37055
188 1 -1.1104 15.9994 1.36449 16.5863 4.18755
189 1 -1.1104 15.9994 4.08668 16.8255 4.19285
190 1 -1.1104 15.9994 1.5277 19.5734 1.29632
191 1 -1.1104 15.9994 4.27586 19.4192 1.18106
192 1 -1.1104 15.9994 1.5413 19.4354 4.07884
193 1 -1.1104 15.9994 4.37866 19.572 4.12678
194 1 -1.1104 15.9994 7.01811 16.8791 1.39132
195 1 -1.1104 15.9994 9.66881 16.9389 1.35717
196 1 -1.1104 15.9994 6.84999 16.8269 4.08022
197 1 -1.1104 15.9994 9.7818 16.7485 4.17076
198 1 -1.1104 15.9994 7.06742 19.5231 1.26948
199 1 -1.1104 15.9994 9.87997 19.6943 1.33917
200 1 -1.1104 15.9994 7.08563 19.5501 4.07557
201 1 -1.1104 15.9994 9.81511 19.6602 4.21582
202 1 -1.1104 15.9994 12.424 16.8152 1.45351
203 1 -1.1104 15.9994 12.8052 16.712 4.12393
204 1 -1.1104 15.9994 12.5738 19.7048 1.28649
205 1 -1.1104 15.9994 12.526 19.4883 4.10249
206 1 -1.1104 15.9994 1.45899 22.2783 1.30645
207 1 -1.1104 15.9994 4.33665 22.2351 1.50955
208 1 -1.1104 15.9994 1.22864 22.4406 4.24834
209 1 -1.1104 15.9994 3.92677 22.2903 4.121
210 1 -1.1104 15.9994 7.06996 22.3043 1.2106
211 1 -1.1104 15.9994 9.8292 22.486 1.2065
212 1 -1.1104 15.9994 6.82084 22.4498 4.13294
213 1 -1.1104 15.9994 9.70533 22.4428 3.97787
214 1 -1.1104 15.9994 12.569 22.429 1.1335
215 1 -1.1104 15.9994 12.5982 22.2577 4.0999
216 1 -1.1104 15.9994 1.21898 -0.0527888 6.99151
217 1 -1.1104 15.9994 4.1571 -0.00238265 6.75506
317 1 -1.1104 15.9994 4.21212 5.37332 12.4589
219 1 -1.1104 15.9994 4.34148 -0.0548809 9.62089
220 1 -1.1104 15.9994 1.41136 2.50394 6.96238
221 1 -1.1104 15.9994 4.12497 2.93782 7.05822
222 1 -1.1104 15.9994 1.66833 0.13354 9.6882
223 1 -1.1104 15.9994 4.34765 2.83109 9.77001
224 1 -1.1104 15.9994 7.2063 -0.214166 6.86355
225 1 -1.1104 15.9994 10.0617 0.102974 6.72758
226 1 -1.1104 15.9994 7.23807 -0.0300209 9.71756
227 1 -1.1104 15.9994 9.96573 -0.18368 9.68545
228 1 -1.1104 15.9994 6.93951 2.64263 7.04407
229 1 -1.1104 15.9994 9.88964 2.73973 6.8947
230 1 -1.1104 15.9994 7.25416 2.85539 9.87523
231 1 -1.1104 15.9994 9.8807 2.65769 9.6025
232 1 -1.1104 15.9994 12.867 -0.407388 6.84417
328 2 2.2208 232.038 8.44853 -1.44043 13.9462
234 1 -1.1104 15.9994 12.7469 2.63606 6.94933
235 1 -1.1104 15.9994 12.6557 0.0361531 9.72831
236 1 -1.1104 15.9994 1.44337 5.36663 7.02094
237 1 -1.1104 15.9994 4.16641 5.52687 6.96106
238 1 -1.1104 15.9994 1.54105 2.82837 9.72026
239 1 -1.1104 15.9994 4.29155 5.61214 9.80198
240 1 -1.1104 15.9994 1.56652 8.23827 7.03843
241 1 -1.1104 15.9994 4.27 8.40456 6.99413
242 1 -1.1104 15.9994 1.46924 5.48096 9.76612
243 1 -1.1104 15.9994 4.34522 8.29612 9.93754
244 1 -1.1104 15.9994 6.90562 5.55911 6.9508
245 1 -1.1104 15.9994 9.78761 5.55759 6.98599
246 1 -1.1104 15.9994 7.34852 5.60731 9.90653
247 1 -1.1104 15.9994 10.1772 5.61816 9.51951
248 1 -1.1104 15.9994 7.07585 8.46427 6.87693
249 1 -1.1104 15.9994 9.84608 8.54798 6.80404
250 1 -1.1104 15.9994 6.99517 8.39527 9.81226
251 1 -1.1104 15.9994 9.77058 8.24306 9.64015
252 1 -1.1104 15.9994 12.4938 5.5392 7.09975
253 1 -1.1104 15.9994 12.6438 2.80791 9.75298
254 1 -1.1104 15.9994 12.8874 8.38452 6.77689
255 1 -1.1104 15.9994 12.6309 7.78555 9.68159
256 1 -1.1104 15.9994 1.42812 11.0244 7.02246
257 1 -1.1104 15.9994 4.28538 11.0735 6.98495
258 1 -1.1104 15.9994 1.51892 8.28194 9.88411
259 1 -1.1104 15.9994 4.10093 11.16 9.81589
260 1 -1.1104 15.9994 1.48713 13.7273 6.79534
261 1 -1.1104 15.9994 4.04937 13.9174 6.86421
262 1 -1.1104 15.9994 1.23588 11.0257 9.80081
263 1 -1.1104 15.9994 4.29971 14.0055 9.66752
264 1 -1.1104 15.9994 6.97686 11.2649 6.97449
265 1 -1.1104 15.9994 9.9108 11.2747 7.04455
266 1 -1.1104 15.9994 6.8516 11.2122 9.91505
267 1 -1.1104 15.9994 9.75236 11.0369 9.8169
268 1 -1.1104 15.9994 6.92691 14.0312 6.91378
269 1 -1.1104 15.9994 9.61117 13.9884 6.95335
270 1 -1.1104 15.9994 6.91961 13.9285 9.68281
271 1 -1.1104 15.9994 9.80186 13.9574 9.78221
272 1 -1.1104 15.9994 12.6805 11.0226 7.02342
273 1 -1.1104 15.9994 12.6757 10.8319 9.7373
274 1 -1.1104 15.9994 12.5551 13.8783 6.91863
275 1 -1.1104 15.9994 12.5582 13.9074 9.54202
276 1 -1.1104 15.9994 1.40451 16.7594 7.09266
277 1 -1.1104 15.9994 4.20152 16.7023 6.89418
278 1 -1.1104 15.9994 1.58765 13.9572 9.76296
279 1 -1.1104 15.9994 4.35587 16.8303 9.72671
280 1 -1.1104 15.9994 1.34244 19.7376 6.91109
281 1 -1.1104 15.9994 3.96113 19.5666 7.12074
282 1 -1.1104 15.9994 1.36199 19.6591 9.78601
283 1 -1.1104 15.9994 4.1819 19.6703 9.798
284 1 -1.1104 15.9994 7.01525 16.8782 7.03297
285 1 -1.1104 15.9994 9.86635 16.8069 6.84969
286 1 -1.1104 15.9994 7.25339 16.6297 9.94195
287 1 -1.1104 15.9994 9.80649 16.8477 9.54885
288 1 -1.1104 15.9994 7.06289 19.6736 6.96893
289 1 -1.1104 15.9994 10.07 19.7535 6.95254
290 1 -1.1104 15.9994 6.9712 19.5102 9.89332
291 1 -1.1104 15.9994 9.75002 19.6494 9.83633
292 1 -1.1104 15.9994 12.55 16.856 6.97182
293 1 -1.1104 15.9994 12.6845 16.9518 9.65016
294 1 -1.1104 15.9994 12.7407 19.6775 6.74373
295 1 -1.1104 15.9994 12.6425 19.6218 9.5703
296 1 -1.1104 15.9994 1.14678 22.431 6.96785
297 1 -1.1104 15.9994 4.19913 22.2117 6.86181
298 1 -1.1104 15.9994 1.3347 22.4301 9.78139
299 1 -1.1104 15.9994 4.08874 22.4916 9.69513
300 1 -1.1104 15.9994 7.01297 22.4045 6.87992
301 1 -1.1104 15.9994 9.97016 22.4279 6.781
302 1 -1.1104 15.9994 6.89993 22.3777 9.57879
303 1 -1.1104 15.9994 9.60936 22.2476 9.89456
304 1 -1.1104 15.9994 12.5543 22.4943 6.84727
305 1 -1.1104 15.9994 12.5766 22.3651 9.72841
306 1 -1.1104 15.9994 1.50552 0.0246873 12.5648
307 1 -1.1104 15.9994 4.36768 -0.00375012 12.4913
308 1 -1.1104 15.9994 1.29501 2.7541 12.6291
309 1 -1.1104 15.9994 4.33667 2.65269 12.5727
310 1 -1.1104 15.9994 7.10747 -0.0462201 12.5485
311 1 -1.1104 15.9994 9.8426 -0.0452091 12.5268
312 1 -1.1104 15.9994 7.00711 2.79302 12.761
313 1 -1.1104 15.9994 9.72561 2.86792 12.4905
314 1 -1.1104 15.9994 12.6833 -0.0972195 12.6212
315 1 -1.1104 15.9994 12.6042 2.6325 12.5909
316 1 -1.1104 15.9994 1.41202 5.56237 12.5761
8987 2 2.2208 232.038 -0.0317385 -1.34636 11.2844
84 2 2.2208 232.038 0.0220664 18.2079 8.43165
8984 2 2.2208 232.038 0.0393527 4.20941 11.1402
105 2 2.2208 232.038 11.2404 -1.45999 11.0918
103 2 2.2208 232.038 5.66216 -1.43558 11.0317
9007 2 2.2208 232.038 -0.117838 1.35886 2.76264
9003 2 2.2208 232.038 -0.165287 -1.3422 5.485
8988 2 2.2208 232.038 0.0456673 12.5844 8.41078
34 2 2.2208 232.038 0.0578688 18.0754 2.65983
44 2 2.2208 232.038 0.113465 23.8052 2.61572
9004 2 2.2208 232.038 -0.00803997 6.99165 2.7487
8998 2 2.2208 232.038 -0.0450719 1.37415 8.31739
81 2 2.2208 232.038 0.0417816 15.3332 5.52819
25 2 2.2208 232.038 5.51934 9.78082 -0.128566
663 2 2.2208 232.038 2.84612 6.90588 -0.109216
329 2 2.2208 232.038 5.70345 1.44712 13.8875
673 2 2.2208 232.038 0.220571 20.8615 -0.0479303
667 2 2.2208 232.038 13.8416 18.1794 -0.129163
333 2 2.2208 232.038 8.35471 4.21261 14.0168
669 2 2.2208 232.038 2.83541 18.1315 -0.15575
660 2 2.2208 232.038 5.6373 -1.53021 -0.147515
671 2 2.2208 232.038 8.26556 18.2175 -0.0599881
672 2 2.2208 232.038 11.1901 15.3409 0.0416948
325 2 2.2208 232.038 5.60423 4.12608 -0.0477588
341 2 2.2208 232.038 2.67841 15.4041 14.0032
344 2 2.2208 232.038 5.58229 18.2791 14.0898
9690 2 2.2208 232.038 -0.0409609 4.24265 -0.0680717
338 2 2.2208 232.038 8.36688 9.87672 14.005
348 2 2.2208 232.038 8.37257 21.0927 13.9143
345 2 2.2208 232.038 11.1225 18.0459 13.9216
444 2 2.2208 232.038 -0.130924 23.8817 25.1372
327 1 -1.1104 15.9994 6.85473 22.4979 26.6127
9671 2 2.2208 232.038 0.135282 -1.36002 22.3893
407 2 2.2208 232.038 8.45803 -1.39069 25.292
349 2 2.2208 232.038 5.56005 23.8975 13.8572
9672 2 2.2208 232.038 0.100763 1.41123 25.3035
332 1 -1.1104 15.9994 9.79694 22.2237 23.7813
662 2 2.2208 232.038 11.2365 -1.39761 27.8576
347 2 2.2208 232.038 -0.205093 23.9872 13.9404
403 2 2.2208 232.038 2.83962 -1.41485 25.2453
359 2 2.2208 232.038 11.2266 -1.47256 16.719
337 1 -1.1104 15.9994 7.05464 22.3766 23.6474
374 2 2.2208 232.038 11.0732 21.0962 28.0047
431 2 2.2208 232.038 -0.128344 15.414 22.4318
405 2 2.2208 232.038 5.63316 -1.33073 22.4236
650 1 -1.1104 15.9994 1.61661 19.4491 23.6987
342 1 -1.1104 15.9994 4.19081 22.3114 26.8269
357 2 2.2208 232.038 8.32843 -1.28811 19.4135
409 2 2.2208 232.038 11.3124 -1.22943 22.2026
353 2 2.2208 232.038 2.87699 -1.45595 19.6416
355 2 2.2208 232.038 5.62355 -1.3127 16.6307
677 1 -1.1104 15.9994 9.87553 13.9598 26.6906
9676 2 2.2208 232.038 -0.0132349 12.524 25.0925
649 1 -1.1104 15.9994 4.16674 16.6685 26.7151
661 2 2.2208 232.038 8.32939 1.38797 27.9429
351 1 -1.1104 15.9994 1.43582 22.3656 26.5907
352 2 2.2208 232.038 2.8214 1.46252 16.6453
9674 2 2.2208 232.038 0.072726 6.90101 25.2605
354 1 -1.1104 15.9994 4.31625 22.0561 24.0408
656 1 -1.1104 15.9994 7.12275 16.7188 26.5818
356 2 2.2208 232.038 8.50422 1.3867 16.8414
653 1 -1.1104 15.9994 4.2917 19.4621 26.5511
358 2 2.2208 232.038 5.52904 1.4038 19.5577
652 1 -1.1104 15.9994 1.37528 19.3829 26.6872
360 2 2.2208 232.038 11.2592 1.33803 19.4535
361 1 -1.1104 15.9994 1.16827 22.3006 23.8493
362 2 2.2208 232.038 2.75175 6.89658 16.8071
363 2 2.2208 232.038 2.81279 4.14526 19.5306
364 1 -1.1104 15.9994 12.4479 19.6507 26.6777
365 2 2.2208 232.038 5.6332 4.25429 16.7677
366 2 2.2208 232.038 8.32526 7.09788 16.5385
367 2 2.2208 232.038 8.38324 4.14456 19.5011
368 2 2.2208 232.038 5.65815 6.9773 19.5463
369 2 2.2208 232.038 11.2839 4.19685 16.5242
370 2 2.2208 232.038 11.1237 7.04363 19.4476
371 1 -1.1104 15.9994 12.5751 19.4714 23.8242
372 2 2.2208 232.038 2.88249 12.5746 16.7364
373 2 2.2208 232.038 2.67127 9.7946 19.6457
657 2 2.2208 232.038 13.9273 23.8333 22.1966
375 2 2.2208 232.038 5.58059 9.92942 17.0166
376 2 2.2208 232.038 8.48336 12.728 16.8853
377 2 2.2208 232.038 8.44786 9.75559 19.5601
378 2 2.2208 232.038 5.65969 12.5621 19.7646
379 2 2.2208 232.038 11.1953 9.87801 16.8116
380 2 2.2208 232.038 11.4097 12.5006 19.6628
381 1 -1.1104 15.9994 12.6399 16.704 26.7133
382 2 2.2208 232.038 2.69522 18.1108 16.8418
383 2 2.2208 232.038 2.79304 15.1608 19.7118
9673 2 2.2208 232.038 0.0296348 4.09817 22.4835
385 2 2.2208 232.038 5.69058 15.3115 16.8885
386 2 2.2208 232.038 8.43632 18.3088 16.873
387 2 2.2208 232.038 8.6187 15.4741 19.6253
388 2 2.2208 232.038 5.45412 18.0632 19.6021
389 2 2.2208 232.038 11.2994 15.5352 16.7784
390 2 2.2208 232.038 11.3217 18.3336 19.7374
391 1 -1.1104 15.9994 12.395 22.4768 26.6096
392 2 2.2208 232.038 2.51665 23.9194 16.5882
393 2 2.2208 232.038 2.60614 20.8997 19.5293
648 1 -1.1104 15.9994 1.42344 16.7285 26.405
395 2 2.2208 232.038 5.41248 21.0978 16.7972
396 2 2.2208 232.038 8.21257 23.8705 16.6038
397 2 2.2208 232.038 8.39131 20.9348 19.5996
398 2 2.2208 232.038 5.40513 23.7489 19.6159
399 2 2.2208 232.038 11.1541 20.9645 16.8051
400 2 2.2208 232.038 11.1063 23.8878 19.3874
401 1 -1.1104 15.9994 12.5243 16.8327 23.9778
402 2 2.2208 232.038 2.7975 1.37564 22.3603
441 2 2.2208 232.038 0.0438092 21.154 22.3555
404 1 -1.1104 15.9994 9.37404 19.826 26.7198
9667 2 2.2208 232.038 0.0266552 4.02936 16.7921
406 2 2.2208 232.038 8.41851 1.22368 22.2401
647 1 -1.1104 15.9994 4.14765 16.6213 23.809
408 2 2.2208 232.038 5.51948 1.42686 25.2459
434 2 2.2208 232.038 0.0532491 18.2269 25.0517
410 2 2.2208 232.038 11.3123 1.58999 25.0159
411 1 -1.1104 15.9994 6.90575 19.4895 26.5913
412 2 2.2208 232.038 2.84034 6.94515 22.3071
413 2 2.2208 232.038 2.90333 4.193 25.2229
414 1 -1.1104 15.9994 9.79477 19.569 23.7544
415 2 2.2208 232.038 5.62309 4.08604 22.2681
416 2 2.2208 232.038 8.49455 6.89694 22.3317
417 2 2.2208 232.038 8.26392 4.06502 25.2403
418 2 2.2208 232.038 5.76416 6.91642 25.2154
419 2 2.2208 232.038 11.3846 4.15171 22.1391
420 2 2.2208 232.038 11.2882 6.96238 25.0655
421 1 -1.1104 15.9994 7.00022 19.6272 23.8753
422 2 2.2208 232.038 2.86371 12.5195 22.5643
423 2 2.2208 232.038 2.94038 9.5871 25.2277
424 1 -1.1104 15.9994 10.0369 16.8106 26.5709
425 2 2.2208 232.038 5.64808 9.74651 22.3395
426 2 2.2208 232.038 8.47893 12.6451 22.432
427 2 2.2208 232.038 8.44745 9.76089 25.0545
428 2 2.2208 232.038 5.78462 12.5216 25.1564
429 2 2.2208 232.038 11.4167 9.79683 22.2593
430 2 2.2208 232.038 11.3043 12.4738 25.3514
655 1 -1.1104 15.9994 9.88603 16.8918 23.8761
432 2 2.2208 232.038 2.90319 18.1039 22.4127
433 2 2.2208 232.038 2.85821 15.2871 25.2681
646 1 -1.1104 15.9994 1.16568 16.7679 23.7069
435 2 2.2208 232.038 5.57453 15.3693 22.3816
436 2 2.2208 232.038 8.34455 18.1255 22.5121
437 2 2.2208 232.038 8.62339 15.3508 25.2985
438 2 2.2208 232.038 5.55736 18.0713 25.1634
439 2 2.2208 232.038 11.1386 15.5349 22.4927
440 2 2.2208 232.038 11.2873 18.2772 25.2883
651 1 -1.1104 15.9994 4.51305 19.1873 23.5105
442 1 -1.1104 15.9994 12.6775 22.2356 23.6225
443 2 2.2208 232.038 2.73467 20.9289 24.95
654 1 -1.1104 15.9994 6.96789 16.7043 23.7857
445 2 2.2208 232.038 5.67288 21.0951 22.3271
446 2 2.2208 232.038 8.46453 23.7378 22.2909
447 2 2.2208 232.038 8.29544 21.099 25.1616
448 2 2.2208 232.038 5.40456 23.8161 25.3548
449 2 2.2208 232.038 11.2447 20.8405 22.5077
450 2 2.2208 232.038 11.1698 23.8583 25.057
451 1 -1.1104 15.9994 1.3297 0.0267929 15.3693
452 1 -1.1104 15.9994 4.0412 0.051636 15.3954
453 1 -1.1104 15.9994 1.23616 2.7841 15.3316
454 1 -1.1104 15.9994 4.31906 2.70768 15.3343
455 1 -1.1104 15.9994 6.98312 -0.178983 15.2455
456 1 -1.1104 15.9994 9.88501 -0.0867528 15.4081
457 1 -1.1104 15.9994 7.11638 2.70253 15.5021
458 1 -1.1104 15.9994 9.87741 2.77486 15.4044
459 1 -1.1104 15.9994 12.5205 -0.285475 15.3426
460 1 -1.1104 15.9994 12.5984 2.71274 15.135
461 1 -1.1104 15.9994 1.19157 5.52279 15.4165
462 1 -1.1104 15.9994 4.20769 5.52389 15.1995
463 1 -1.1104 15.9994 1.34271 8.34158 15.5037
464 1 -1.1104 15.9994 4.03675 8.23292 15.4502
465 1 -1.1104 15.9994 6.9678 5.4819 15.111
466 1 -1.1104 15.9994 9.82502 5.69447 15.0668
467 1 -1.1104 15.9994 6.74114 8.3834 15.3967
468 1 -1.1104 15.9994 9.67812 8.40704 15.3519
469 1 -1.1104 15.9994 12.526 5.50971 15.1336
470 1 -1.1104 15.9994 12.4926 8.53321 15.3175
471 1 -1.1104 15.9994 1.49382 11.2102 15.3538
472 1 -1.1104 15.9994 4.24126 11.1088 15.3901
473 1 -1.1104 15.9994 1.43122 13.8593 15.4418
474 1 -1.1104 15.9994 4.22989 14.0129 15.2716
475 1 -1.1104 15.9994 6.99869 11.3073 15.4514
476 1 -1.1104 15.9994 9.75304 11.1199 15.5489
477 1 -1.1104 15.9994 7.01265 13.9817 15.4122
478 1 -1.1104 15.9994 9.95908 13.9818 15.2239
479 1 -1.1104 15.9994 12.6788 11.1665 15.3049
480 1 -1.1104 15.9994 12.5953 14.1017 15.3288
676 2 2.2208 232.038 8.41189 23.9442 27.9519
482 1 -1.1104 15.9994 4.30122 16.8318 15.3571
483 1 -1.1104 15.9994 1.65971 19.3313 15.1139
484 1 -1.1104 15.9994 4.35323 19.688 15.4389
485 1 -1.1104 15.9994 7.13261 16.7535 15.6056
486 1 -1.1104 15.9994 9.77802 16.7678 15.3224
487 1 -1.1104 15.9994 6.97915 19.6836 15.4103
488 1 -1.1104 15.9994 9.6795 19.6583 15.389
489 1 -1.1104 15.9994 12.5381 16.9013 15.3079
490 1 -1.1104 15.9994 12.4911 19.5808 15.1239
491 1 -1.1104 15.9994 1.31235 22.5331 15.3593
492 1 -1.1104 15.9994 4.04129 22.5581 15.2983
493 1 -1.1104 15.9994 6.74989 22.5629 15.3027
494 1 -1.1104 15.9994 9.69872 22.54 15.2553
495 1 -1.1104 15.9994 12.5854 22.3142 15.3821
496 1 -1.1104 15.9994 1.46107 0.0622943 18.0915
497 1 -1.1104 15.9994 4.35183 -0.193986 18.2794
498 1 -1.1104 15.9994 1.36956 -0.280327 21.0231
499 1 -1.1104 15.9994 4.11468 0.116611 20.8072
500 1 -1.1104 15.9994 1.47364 2.61069 18.184
501 1 -1.1104 15.9994 4.33935 2.79964 18.0858
502 1 -1.1104 15.9994 1.39279 2.70799 21.0132
503 1 -1.1104 15.9994 4.24609 2.74725 21.0434
504 1 -1.1104 15.9994 6.93603 0.0902549 18.1204
505 1 -1.1104 15.9994 9.82946 0.00591748 18.1174
506 1 -1.1104 15.9994 6.89189 -0.171109 20.8914
507 1 -1.1104 15.9994 9.96559 0.105684 20.8448
508 1 -1.1104 15.9994 7.00151 2.85961 18.2856
509 1 -1.1104 15.9994 9.97061 2.60067 18.0243
510 1 -1.1104 15.9994 7.26929 2.5407 20.969
511 1 -1.1104 15.9994 9.82039 2.93795 20.9447
512 1 -1.1104 15.9994 12.6789 -0.235248 18.1132
513 1 -1.1104 15.9994 12.6973 0.00949086 20.8788
514 1 -1.1104 15.9994 12.6892 2.63737 17.8207
515 1 -1.1104 15.9994 12.8828 2.70483 20.6563
516 1 -1.1104 15.9994 1.43076 5.3677 18.2641
517 1 -1.1104 15.9994 4.35241 5.63955 17.9725
518 1 -1.1104 15.9994 1.55234 5.4886 21.1025
519 1 -1.1104 15.9994 4.14153 5.46364 20.9466
520 1 -1.1104 15.9994 1.45886 8.32019 18.2562
521 1 -1.1104 15.9994 4.37662 8.37614 18.2148
522 1 -1.1104 15.9994 1.35708 8.35602 20.9653
523 1 -1.1104 15.9994 4.15757 8.35872 20.8738
524 1 -1.1104 15.9994 7.15272 5.54516 18.1641
525 1 -1.1104 15.9994 9.88692 5.6088 18.0925
526 1 -1.1104 15.9994 7.0189 5.36274 20.8883
527 1 -1.1104 15.9994 9.93455 5.56327 20.8592
528 1 -1.1104 15.9994 7.22814 8.4885 18.2925
529 1 -1.1104 15.9994 9.83643 8.49151 17.902
530 1 -1.1104 15.9994 6.91044 8.29852 21.0438
531 1 -1.1104 15.9994 9.64737 8.31749 20.7274
532 1 -1.1104 15.9994 12.6443 5.63228 17.8984
533 1 -1.1104 15.9994 12.6361 5.51932 20.8515
534 1 -1.1104 15.9994 12.6226 8.29258 18.0512
535 1 -1.1104 15.9994 12.7924 8.23617 20.601
536 1 -1.1104 15.9994 1.42156 11.0702 18.1766
537 1 -1.1104 15.9994 4.12496 11.1694 18.4021
538 1 -1.1104 15.9994 1.45957 11.1117 21.0856
539 1 -1.1104 15.9994 4.16612 11.0253 21.1689
540 1 -1.1104 15.9994 1.39543 13.9328 18.2794
541 1 -1.1104 15.9994 4.32362 13.9452 18.0929
542 1 -1.1104 15.9994 1.39134 13.9308 21.1145
543 1 -1.1104 15.9994 4.12124 13.8497 21.1149
544 1 -1.1104 15.9994 7.00841 11.2359 18.2526
545 1 -1.1104 15.9994 9.87061 11.2262 18.2399
546 1 -1.1104 15.9994 6.94638 11.2267 21.0642
547 1 -1.1104 15.9994 9.91493 11.1494 21.0698
548 1 -1.1104 15.9994 7.03139 13.9573 18.3054
549 1 -1.1104 15.9994 10.1136 13.9887 18.1505
550 1 -1.1104 15.9994 7.16743 13.9802 21.0508
551 1 -1.1104 15.9994 9.90155 13.9828 20.9636
552 1 -1.1104 15.9994 12.6135 10.9887 18.288
553 1 -1.1104 15.9994 12.7546 11.0871 21.0142
554 1 -1.1104 15.9994 12.8533 13.9639 18.3067
555 1 -1.1104 15.9994 12.7131 13.8604 21.0457
556 1 -1.1104 15.9994 1.34694 16.5755 15.4264
557 1 -1.1104 15.9994 4.11731 16.6346 18.3013
558 1 -1.1104 15.9994 1.54523 16.7005 20.9973
559 1 -1.1104 15.9994 4.31433 16.6384 20.9907
560 1 -1.1104 15.9994 1.47708 16.6148 18.3211
561 1 -1.1104 15.9994 4.15298 19.4708 18.1754
562 1 -1.1104 15.9994 1.38785 19.4439 18.3821
563 1 -1.1104 15.9994 4.10121 19.6347 20.9008
564 1 -1.1104 15.9994 7.05482 16.7076 18.2882
565 1 -1.1104 15.9994 9.94802 16.7191 18.1528
566 1 -1.1104 15.9994 7.02318 16.6579 21.1149
567 1 -1.1104 15.9994 9.83194 16.7545 20.98
568 1 -1.1104 15.9994 7.01975 19.5285 18.197
569 1 -1.1104 15.9994 9.86644 19.4815 18.2823
570 1 -1.1104 15.9994 6.87963 19.482 20.9352
571 1 -1.1104 15.9994 9.83449 19.6096 21.0685
572 1 -1.1104 15.9994 12.5067 16.8139 18.3668
573 1 -1.1104 15.9994 12.6462 16.7188 21.2953
574 1 -1.1104 15.9994 12.6169 19.5459 18.2808
575 1 -1.1104 15.9994 12.7272 19.698 21.026
576 1 -1.1104 15.9994 0.957922 21.9515 20.4351
577 1 -1.1104 15.9994 3.46903 22.1966 17.8946
578 1 -1.1104 15.9994 1.35731 19.5354 21.1389
579 1 -1.1104 15.9994 4.03093 22.3691 20.779
580 1 -1.1104 15.9994 6.74104 22.462 18.0458
581 1 -1.1104 15.9994 9.62636 22.4837 17.9497
582 1 -1.1104 15.9994 6.92418 22.2914 20.9115
583 1 -1.1104 15.9994 9.92663 22.4861 20.746
584 1 -1.1104 15.9994 12.4389 22.3503 18.107
585 1 -1.1104 15.9994 12.5984 22.6114 20.9278
586 1 -1.1104 15.9994 1.41995 0.0108256 23.8639
587 1 -1.1104 15.9994 4.17525 -0.0778941 23.8084
588 1 -1.1104 15.9994 1.43031 -0.105004 26.7267
589 1 -1.1104 15.9994 4.11484 0.129838 26.8025
590 1 -1.1104 15.9994 1.48203 2.76868 23.7728
591 1 -1.1104 15.9994 4.27564 2.72445 23.7734
592 1 -1.1104 15.9994 1.4596 2.7073 26.5636
593 1 -1.1104 15.9994 4.16687 2.68701 26.6495
594 1 -1.1104 15.9994 7.20987 -0.0308831 23.7599
595 1 -1.1104 15.9994 9.99255 0.0206969 23.6115
596 1 -1.1104 15.9994 6.73867 0.00916895 26.6715
597 1 -1.1104 15.9994 9.65011 -0.134525 26.6727
598 1 -1.1104 15.9994 7.0961 2.57198 23.7162
599 1 -1.1104 15.9994 9.95714 2.88616 23.7209
600 1 -1.1104 15.9994 7.01716 2.60578 26.5594
601 1 -1.1104 15.9994 9.85477 2.70917 26.4129
602 1 -1.1104 15.9994 12.946 0.167043 23.8248
603 1 -1.1104 15.9994 12.5288 -0.0570439 26.4809
604 1 -1.1104 15.9994 12.6694 2.85643 23.5041
605 1 -1.1104 15.9994 12.766 2.88 26.735
606 1 -1.1104 15.9994 1.46228 5.62378 24.0066
607 1 -1.1104 15.9994 4.17968 5.61334 23.9303
608 1 -1.1104 15.9994 1.53113 5.35126 26.7384
609 1 -1.1104 15.9994 4.19968 5.57152 26.6642
610 1 -1.1104 15.9994 1.32613 8.14073 23.7449
611 1 -1.1104 15.9994 4.37866 8.2737 23.7319
612 1 -1.1104 15.9994 1.59088 8.1566 26.6726
613 1 -1.1104 15.9994 4.48326 8.40264 26.5327
614 1 -1.1104 15.9994 6.99187 5.44311 23.8571
615 1 -1.1104 15.9994 9.87122 5.64914 23.5922
616 1 -1.1104 15.9994 7.06021 5.36814 26.6195
617 1 -1.1104 15.9994 9.91764 5.47459 26.4841
618 1 -1.1104 15.9994 7.22022 8.26894 23.6768
619 1 -1.1104 15.9994 10.0628 8.3568 23.5852
620 1 -1.1104 15.9994 7.12884 8.1863 26.7294
621 1 -1.1104 15.9994 9.98636 8.34303 26.4098
622 1 -1.1104 15.9994 12.6791 5.47585 23.8945
623 1 -1.1104 15.9994 12.7938 5.51776 26.5959
624 1 -1.1104 15.9994 12.8105 8.18971 23.6669
625 1 -1.1104 15.9994 12.723 8.30208 26.6089
626 1 -1.1104 15.9994 1.48703 10.9056 23.8246
627 1 -1.1104 15.9994 4.23867 11.1124 24.0263
628 1 -1.1104 15.9994 1.57103 10.94 26.6268
629 1 -1.1104 15.9994 4.29578 11.0792 26.7088
630 1 -1.1104 15.9994 1.57264 13.8731 23.874