LAMMPS (29 Oct 2020)
OMP_NUM_THREADS environment is not set. Defaulting to 1 thread. (../comm.cpp:94)
  using 1 OpenMP thread(s) per MPI task
OMP_NUM_THREADS environment is not set. Defaulting to 1 thread. (../comm.cpp:94)
  using 1 OpenMP thread(s) per MPI task
Reading data file ...
  triclinic box = (-0.086605527 -0.96941324 -0.079227706) to (27.980606 335.69741 27.973228) with tilt (0.0000000 0.0000000 0.0000000)
  2 by 13 by 2 MPI processor grid
  reading atoms ...
  18000 atoms
  reading velocities ...
  18000 velocities
Finding 1-2 1-3 1-4 neighbors ...
  special bond factors lj:    0.0      0.0      0.0     
  special bond factors coul:  0.0      0.0      0.0     
     0 = max # of 1-2 neighbors
     0 = max # of 1-3 neighbors
     0 = max # of 1-4 neighbors
     1 = max # of special neighbors
  special bonds CPU = 0.004 seconds
  read_data CPU = 0.068 seconds
Setting atom values ...
  11820 settings made for charge
Setting atom values ...
  6000 settings made for charge
Setting atom values ...
  180 settings made for charge
Setting atom values ...
  0 settings made for charge
PPPM initialization ...
  using 12-bit tables for long-range coulomb (../kspace.cpp:328)
  G vector (1/distance) = 0.29884457
  grid = 40 240 40
  stencil order = 5
  estimated absolute RMS force accuracy = 0.00015763534
  estimated relative force accuracy = 1.0947168e-05
  using single precision MKL FFT
  3d grid and FFT values/proc = 15000 7600
Neighbor list info ...
  update every 1 steps, delay 0 steps, check yes
  max neighbors/atom: 2000, page size: 100000
  master list distance cutoff = 11.3
  ghost atom cutoff = 11.3
  binsize = 5.65, bins = 5 60 5
  2 neighbor lists, perpetual/occasional/extra = 2 0 0
  (1) pair coul/long, perpetual
      attributes: half, newton on
      pair build: half/bin/newton/tri
      stencil: half/bin/3d/newton/tri
      bin: standard
  (2) pair eam/alloy, perpetual, copy from (1)
      attributes: half, newton on
      pair build: copy
      stencil: none
      bin: none
Setting up Verlet run ...
  Unit style    : metal
  Current step  : 0
  Time step     : 0.001
Per MPI rank memory allocation (min/avg/max) = 8.324 | 8.354 | 8.372 Mbytes
Step Temp E_pair E_mol TotEng Press 
       0          600   -235444.57            0   -234048.64   -456.66968 
  100000    602.50353   -235469.11            0   -234067.35   -838.21187 
Loop time of 694.848 on 52 procs for 100000 steps with 18000 atoms

Performance: 12.434 ns/day, 1.930 hours/ns, 143.916 timesteps/s
99.8% CPU use with 52 MPI tasks x 1 OpenMP threads

MPI task timing breakdown:
Section |  min time  |  avg time  |  max time  |%varavg| %total
---------------------------------------------------------------
Pair    | 457.64     | 464.44     | 475.25     |  23.5 | 66.84
Bond    | 0.0063739  | 0.010893   | 0.016766   |   2.2 |  0.00
Kspace  | 143.94     | 156.65     | 166.2      |  48.1 | 22.54
Neigh   | 46.882     | 49.353     | 53.746     |  23.8 |  7.10
Comm    | 17.663     | 19.705     | 22.578     |  26.4 |  2.84
Output  | 5.2333e-05 | 5.7748e-05 | 0.00026726 |   0.0 |  0.00
Modify  | 2.0743     | 3.1603     | 5.4511     |  64.2 |  0.45
Other   |            | 1.528      |            |       |  0.22

Nlocal:        346.154 ave         367 max         329 min
Histogram: 2 7 10 10 4 4 4 0 8 3
Nghost:        4137.50 ave        4262 max        4046 min
Histogram: 8 4 4 9 7 9 4 1 3 3
Neighs:        69930.1 ave       74720 max       66389 min
Histogram: 2 9 10 9 3 5 3 3 7 1

Total # of neighbors = 3636365
Ave neighs/atom = 202.02028
Ave special neighs/atom = 0.0000000
Neighbor list builds = 16238
Dangerous builds = 0
11820 atoms in group oxygen
PPPM initialization ...
  using 12-bit tables for long-range coulomb (../kspace.cpp:328)
  G vector (1/distance) = 0.29884457
  grid = 40 240 40
  stencil order = 5
  estimated absolute RMS force accuracy = 0.00015763534
  estimated relative force accuracy = 1.0947168e-05
  using single precision MKL FFT
  3d grid and FFT values/proc = 15000 7600
Setting up Verlet run ...
  Unit style    : metal
  Current step  : 0
  Time step     : 0.001
Per MPI rank memory allocation (min/avg/max) = 8.574 | 8.605 | 8.624 Mbytes
Step f_2 Temp v_Tdiff v_deltaT 
       0            0    602.50353            0            0 
  100000    709.43066    605.55757  0.015642196    181.60445 
  200000    1410.9508    604.39266  0.017427578    202.33256 
  300000    2114.0294    605.85097  0.017300731    200.85988 
  400000    2812.2957    600.95956  0.017407023    202.09392 
  500000    3508.1577    602.47872  0.017342508    201.34491 
  600000    4206.0431    604.12079   0.01766724    205.11501 
  700000    4909.4696    600.99341  0.017090876    198.42348 
  800000    5609.9251    602.17758  0.017790731    206.54873 
  900000    6312.5527    602.59302   0.01694421    196.72071 
 1000000    7013.8579     606.3383  0.017044024    197.87954 
Loop time of 6938.94 on 52 procs for 1000000 steps with 18000 atoms

Performance: 12.451 ns/day, 1.927 hours/ns, 144.114 timesteps/s
99.8% CPU use with 52 MPI tasks x 1 OpenMP threads

MPI task timing breakdown:
Section |  min time  |  avg time  |  max time  |%varavg| %total
---------------------------------------------------------------
Pair    | 4521       | 4621       | 4757.1     |  88.3 | 66.60
Bond    | 0.06855    | 0.1087     | 0.17463    |   6.9 |  0.00
Kspace  | 1433.8     | 1580.5     | 1676.3     | 164.4 | 22.78
Neigh   | 485.64     | 504.7      | 549.49     |  70.8 |  7.27
Comm    | 176.76     | 197.98     | 222.7      |  83.0 |  2.85
Output  | 0.0011667  | 0.001228   | 0.0024316  |   0.5 |  0.00
Modify  | 5.7298     | 6.4993     | 7.2589     |  14.3 |  0.09
Other   |            | 28.18      |            |       |  0.41

Nlocal:        346.154 ave         366 max         330 min
Histogram: 3 5 8 11 6 5 3 6 3 2
Nghost:        4182.19 ave        4284 max        4079 min
Histogram: 4 6 5 5 6 3 7 7 5 4
Neighs:        69926.7 ave       73945 max       66389 min
Histogram: 3 3 8 12 4 7 4 4 4 3

Total # of neighbors = 3636190
Ave neighs/atom = 202.01056
Ave special neighs/atom = 0.0000000
Neighbor list builds = 165427
Dangerous builds = 0
Total wall time: 2:07:14
