LAMMPS (29 Oct 2020)
OMP_NUM_THREADS environment is not set. Defaulting to 1 thread. (../comm.cpp:94)
  using 1 OpenMP thread(s) per MPI task
OMP_NUM_THREADS environment is not set. Defaulting to 1 thread. (../comm.cpp:94)
  using 1 OpenMP thread(s) per MPI task
Reading data file ...
  triclinic box = (-0.1058618 -1.2969996 -0.1097397) to (27.999862 336.02500 28.003740) with tilt (0.0000000 0.0000000 0.0000000)
  2 by 13 by 2 MPI processor grid
  reading atoms ...
  18000 atoms
  reading velocities ...
  18000 velocities
Finding 1-2 1-3 1-4 neighbors ...
  special bond factors lj:    0.0      0.0      0.0     
  special bond factors coul:  0.0      0.0      0.0     
     0 = max # of 1-2 neighbors
     0 = max # of 1-3 neighbors
     0 = max # of 1-4 neighbors
     1 = max # of special neighbors
  special bonds CPU = 0.003 seconds
  read_data CPU = 0.073 seconds
Setting atom values ...
  12000 settings made for charge
Setting atom values ...
  6000 settings made for charge
PPPM initialization ...
  using 12-bit tables for long-range coulomb (../kspace.cpp:328)
  G vector (1/distance) = 0.29874114
  grid = 40 240 40
  stencil order = 5
  estimated absolute RMS force accuracy = 0.00015848406
  estimated relative force accuracy = 1.1006109e-05
  using single precision MKL FFT
  3d grid and FFT values/proc = 15000 7600
Neighbor list info ...
  update every 1 steps, delay 0 steps, check yes
  max neighbors/atom: 2000, page size: 100000
  master list distance cutoff = 11.3
  ghost atom cutoff = 11.3
  binsize = 5.65, bins = 5 60 5
  2 neighbor lists, perpetual/occasional/extra = 2 0 0
  (1) pair coul/long, perpetual
      attributes: half, newton on
      pair build: half/bin/newton/tri
      stencil: half/bin/3d/newton/tri
      bin: standard
  (2) pair eam/alloy, perpetual, copy from (1)
      attributes: half, newton on
      pair build: copy
      stencil: none
      bin: none
Setting up Verlet run ...
  Unit style    : metal
  Current step  : 0
  Time step     : 0.001
Per MPI rank memory allocation (min/avg/max) = 8.325 | 8.354 | 8.370 Mbytes
Step Temp E_pair E_mol TotEng Press 
       0          600   -234971.18            0   -233575.24    86.730005 
  100000    592.08443   -234952.57            0   -233575.06     116.5745 
Loop time of 696.986 on 52 procs for 100000 steps with 18000 atoms

Performance: 12.396 ns/day, 1.936 hours/ns, 143.475 timesteps/s
99.8% CPU use with 52 MPI tasks x 1 OpenMP threads

MPI task timing breakdown:
Section |  min time  |  avg time  |  max time  |%varavg| %total
---------------------------------------------------------------
Pair    | 456.63     | 466.1      | 476.77     |  23.1 | 66.87
Bond    | 0.0064944  | 0.010853   | 0.016832   |   2.2 |  0.00
Kspace  | 144.44     | 157.75     | 168.65     |  47.3 | 22.63
Neigh   | 46.546     | 48.788     | 53.195     |  22.5 |  7.00
Comm    | 17.726     | 19.582     | 22.708     |  25.9 |  2.81
Output  | 5.8008e-05 | 6.303e-05  | 0.00026165 |   0.0 |  0.00
Modify  | 1.9783     | 3.2        | 5.3255     |  62.6 |  0.46
Other   |            | 1.554      |            |       |  0.22

Nlocal:        346.154 ave         370 max         324 min
Histogram: 1 3 4 12 9 9 4 4 4 2
Nghost:        4132.52 ave        4257 max        4026 min
Histogram: 4 7 4 7 7 6 9 3 1 4
Neighs:        69873.6 ave       75055 max       65414 min
Histogram: 2 2 8 12 12 4 2 3 6 1

Total # of neighbors = 3633425
Ave neighs/atom = 201.85694
Ave special neighs/atom = 0.0000000
Neighbor list builds = 16218
Dangerous builds = 0
12000 atoms in group oxygen
PPPM initialization ...
  using 12-bit tables for long-range coulomb (../kspace.cpp:328)
  G vector (1/distance) = 0.29874114
  grid = 40 240 40
  stencil order = 5
  estimated absolute RMS force accuracy = 0.00015848406
  estimated relative force accuracy = 1.1006109e-05
  using single precision MKL FFT
  3d grid and FFT values/proc = 15000 7600
Setting up Verlet run ...
  Unit style    : metal
  Current step  : 0
  Time step     : 0.001
Per MPI rank memory allocation (min/avg/max) = 8.576 | 8.604 | 8.621 Mbytes
Step f_2 Temp v_Tdiff v_deltaT 
       0            0    592.08443            0            0 
  100000    683.81926    596.14288  0.019862941     230.6069 
  200000    1347.2893     600.7469  0.020904745    242.70215 
  300000    2001.8519    600.91704  0.022856175    265.35807 
  400000    2655.7179    599.40328   0.02235874     259.5829 
  500000    3308.7352    598.80349  0.022121247    256.82562 
  600000    3965.8268    603.95725  0.022164507    257.32787 
  700000    4619.9916    594.63366  0.021653222     251.3919 
  800000     5274.596    596.89982  0.022764892    264.29828 
  900000    5929.5106    604.31689  0.021664735    251.52556 
 1000000    6586.8262    597.08533  0.021775817    252.81522 
 1100000    7246.2228    598.76472  0.021812509     253.2412 
 1200000    7904.5058    603.51853  0.022142123    257.06799 
 1300000    8561.5246     600.1636  0.022092081    256.48701 
 1400000    9219.3531    598.49556  0.022653247    263.00209 
 1500000    9878.6143    604.33106  0.022451579    260.66075 
Loop time of 10343.2 on 52 procs for 1500000 steps with 18000 atoms

Performance: 12.530 ns/day, 1.915 hours/ns, 145.022 timesteps/s
99.8% CPU use with 52 MPI tasks x 1 OpenMP threads

MPI task timing breakdown:
Section |  min time  |  avg time  |  max time  |%varavg| %total
---------------------------------------------------------------
Pair    | 6724.4     | 6893.2     | 7068.5     | 104.4 | 66.65
Bond    | 0.10967    | 0.16533    | 0.23493    |   7.9 |  0.00
Kspace  | 2162.6     | 2352.4     | 2536.3     | 188.5 | 22.74
Neigh   | 721.78     | 751.43     | 817.11     |  80.5 |  7.26
Comm    | 266.31     | 292.58     | 334.07     |  97.7 |  2.83
Output  | 0.0017506  | 0.0018554  | 0.0035103  |   0.5 |  0.00
Modify  | 8.6474     | 9.5531     | 10.643     |  15.5 |  0.09
Other   |            | 43.8       |            |       |  0.42

Nlocal:        346.154 ave         364 max         333 min
Histogram: 7 7 6 10 3 3 6 2 4 4
Nghost:        4121.00 ave        4220 max        4013 min
Histogram: 3 2 10 3 4 8 8 5 4 5
Neighs:        69875.8 ave       73560 max       67044 min
Histogram: 4 8 7 7 7 4 8 1 2 4

Total # of neighbors = 3633542
Ave neighs/atom = 201.86344
Ave special neighs/atom = 0.0000000
Neighbor list builds = 249888
Dangerous builds = 0
Total wall time: 3:04:00
