ITEM: TIMESTEP
170000
ITEM: NUMBER OF ATOMS
18000
ITEM: BOX BOUNDS xy xz yz pp pp pp
-1.8124957442153594e-01 2.8075249574421250e+01 0.0000000000000000e+00
-2.1159689362282310e+00 3.3684396893624029e+02 0.0000000000000000e+00
-1.6750658198024421e-01 2.8061506581979629e+01 0.0000000000000000e+00
ITEM: ATOMS id type q mass x y z
9329 2 2.2208 232.038 13.873 14.9013 13.9713
324 1 -1.1104 15.9994 12.6464 5.07795 12.5614
662 2 2.2208 232.038 11.1148 -2.09832 -0.17314
4 1 -1.1104 15.9994 12.3849 21.7685 12.543
323 1 -1.1104 15.9994 9.75102 7.77996 12.6992
322 1 -1.1104 15.9994 6.67179 7.98498 12.5679
343 2 2.2208 232.038 8.36259 14.8789 13.8417
8 2 2.2208 232.038 5.2394 0.652221 2.81229
9 1 -1.1104 15.9994 12.2458 7.95678 12.7387
10 2 2.2208 232.038 11.1277 0.560177 2.47184
11 1 -1.1104 15.9994 9.64796 22.0463 12.7402
321 1 -1.1104 15.9994 9.60819 4.99982 12.5015
13 2 2.2208 232.038 2.47226 3.43115 2.56569
14 1 -1.1104 15.9994 6.82545 21.8545 12.3903
338 2 2.2208 232.038 8.1901 9.29309 13.9525
57 2 2.2208 232.038 8.25743 -2.0808 8.25458
17 2 2.2208 232.038 8.1615 3.39232 2.66579
18 2 2.2208 232.038 5.29592 6.34958 2.65889
103 2 2.2208 232.038 5.54901 -2.13139 11.1361
20 2 2.2208 232.038 11.2881 6.13675 2.5613
21 1 -1.1104 15.9994 4.16427 21.7125 12.5186
22 1 -1.1104 15.9994 1.09462 16.4303 12.7745
23 2 2.2208 232.038 2.68615 9.13381 2.53162
320 1 -1.1104 15.9994 7.09149 5.20793 12.4987
674 2 2.2208 232.038 2.55883 23.2609 -0.134314
346 2 2.2208 232.038 2.76507 20.4506 13.8864
27 2 2.2208 232.038 8.37964 9.07514 2.62826
28 2 2.2208 232.038 5.51536 11.8919 2.45902
9041 2 2.2208 232.038 13.8052 6.42592 5.51625
30 2 2.2208 232.038 11.2571 11.7934 2.83085
31 1 -1.1104 15.9994 12.5713 13.4229 12.6677
32 1 -1.1104 15.9994 12.6315 10.5435 12.4867
33 2 2.2208 232.038 2.78386 14.7272 2.35807
319 1 -1.1104 15.9994 3.97416 7.72833 12.472
35 1 -1.1104 15.9994 9.69052 13.4982 12.55
36 1 -1.1104 15.9994 6.93627 13.5298 12.3521
37 2 2.2208 232.038 8.44189 14.8101 2.64757
38 2 2.2208 232.038 5.53491 17.4436 2.61139
39 1 -1.1104 15.9994 9.76336 10.7412 12.4782
40 2 2.2208 232.038 11.1656 17.8136 2.52149
41 1 -1.1104 15.9994 6.93394 10.6324 12.6165
42 1 -1.1104 15.9994 3.92522 13.4281 12.3929
43 2 2.2208 232.038 2.68571 20.4389 2.45442
318 1 -1.1104 15.9994 1.21509 7.65987 12.201
45 1 -1.1104 15.9994 1.2702 13.3291 12.5408
46 1 -1.1104 15.9994 3.90282 10.5976 12.3849
47 2 2.2208 232.038 8.24757 20.4252 2.3802
48 2 2.2208 232.038 5.43734 23.1401 2.64842
49 1 -1.1104 15.9994 1.23663 10.5847 12.3501
50 2 2.2208 232.038 11.0839 23.2964 2.51013
51 1 -1.1104 15.9994 1.02096 21.8267 12.6884
52 2 2.2208 232.038 2.43768 0.447996 5.50188
8983 2 2.2208 232.038 0.0696345 9.16434 10.8486
54 1 -1.1104 15.9994 12.4741 19.0153 12.3607
348 2 2.2208 232.038 8.36864 20.4985 13.9194
56 2 2.2208 232.038 8.18143 0.587095 5.54892
7 2 2.2208 232.038 8.27064 -2.11159 2.77086
58 2 2.2208 232.038 5.33499 0.857888 8.10846
334 2 2.2208 232.038 5.4609 6.30132 13.8949
60 2 2.2208 232.038 10.8905 0.633202 8.18954
61 1 -1.1104 15.9994 12.6204 16.383 12.7614
62 2 2.2208 232.038 2.65254 6.28072 5.28584
63 2 2.2208 232.038 2.65945 3.502 8.21698
64 1 -1.1104 15.9994 9.52028 19.1559 12.3462
65 2 2.2208 232.038 5.40561 3.51646 5.43348
66 2 2.2208 232.038 8.23086 6.38725 5.42909
67 2 2.2208 232.038 8.20619 3.56503 8.21787
68 2 2.2208 232.038 5.2636 6.44111 8.25807
69 2 2.2208 232.038 10.9996 3.56502 5.50834
70 2 2.2208 232.038 10.8031 6.41918 8.32442
71 1 -1.1104 15.9994 7.04185 18.7313 12.4393
72 2 2.2208 232.038 2.7449 12.1451 5.39066
73 2 2.2208 232.038 2.70624 9.33165 8.06998
74 1 -1.1104 15.9994 9.75822 16.2521 12.5629
75 2 2.2208 232.038 5.50395 9.32718 5.52212
76 2 2.2208 232.038 8.29298 11.841 5.22749
77 2 2.2208 232.038 8.18253 8.97253 8.30073
78 2 2.2208 232.038 5.67229 12.1411 8.31867
79 2 2.2208 232.038 11.1605 9.16755 5.56608
80 2 2.2208 232.038 11.0527 11.9051 8.21725
317 1 -1.1104 15.9994 4.32097 4.79151 12.5088
82 2 2.2208 232.038 2.80014 17.4879 5.29781
83 2 2.2208 232.038 2.61257 14.9261 8.43945
653 1 -1.1104 15.9994 4.15388 18.9768 1.19793
85 2 2.2208 232.038 5.39939 14.812 5.31682
86 2 2.2208 232.038 8.4941 17.6342 5.34394
87 2 2.2208 232.038 8.48772 14.6866 8.08748
88 2 2.2208 232.038 5.56629 17.7443 8.1352
89 2 2.2208 232.038 11.23 14.8687 5.37901
90 2 2.2208 232.038 11.1964 17.6547 8.15941
121 2 2.2208 232.038 -0.155255 20.4838 11.0918
92 2 2.2208 232.038 2.70341 23.4355 5.5292
93 2 2.2208 232.038 2.79557 20.322 8.20045
341 2 2.2208 232.038 2.6523 14.8773 13.8057
95 2 2.2208 232.038 5.48161 20.5021 5.43179
96 2 2.2208 232.038 8.24483 23.2859 5.23664
97 2 2.2208 232.038 8.37825 20.4646 8.10262
98 2 2.2208 232.038 5.38384 23.2387 7.98098
99 2 2.2208 232.038 11.2307 20.2917 5.49439
100 2 2.2208 232.038 11.1906 22.9459 8.33699
101 1 -1.1104 15.9994 6.90754 16.0685 12.5623
102 2 2.2208 232.038 2.67888 0.792145 11.0779
8991 2 2.2208 232.038 13.83 12.0531 5.76158
104 2 2.2208 232.038 8.24545 0.715657 11.1394
53 2 2.2208 232.038 2.29553 -2.0577 8.27664
106 1 -1.1104 15.9994 4.32621 19.0149 12.2439
107 2 2.2208 232.038 2.8124 6.42498 10.9599
108 2 2.2208 232.038 5.40203 3.49735 10.9276
109 2 2.2208 232.038 8.24793 6.4976 11.1436
110 2 2.2208 232.038 11.0187 3.47355 11.167
111 1 -1.1104 15.9994 1.5651 19.2178 12.3878
112 2 2.2208 232.038 2.67656 12.1401 10.9556
113 2 2.2208 232.038 5.48125 9.20613 10.9962
114 2 2.2208 232.038 8.39444 12.0898 11.1388
115 2 2.2208 232.038 11.1558 9.25745 11.11
116 1 -1.1104 15.9994 4.08668 16.4307 12.6011
117 2 2.2208 232.038 2.56942 17.6418 11.1375
118 2 2.2208 232.038 5.45404 14.8872 11.2718
119 2 2.2208 232.038 8.36685 17.5664 11.0309
120 2 2.2208 232.038 10.9919 14.9783 11.0804
9091 2 2.2208 232.038 13.9086 12.0314 11.2885
122 2 2.2208 232.038 2.91128 23.2397 11.3224
123 2 2.2208 232.038 5.6589 20.3722 11.0472
124 2 2.2208 232.038 8.174 23.138 11.1837
125 2 2.2208 232.038 11.1997 20.3719 10.9501
126 1 -1.1104 15.9994 1.26944 -0.740427 1.20448
127 1 -1.1104 15.9994 4.12251 -0.958935 1.28553
128 1 -1.1104 15.9994 1.11716 -0.522379 3.85065
129 1 -1.1104 15.9994 3.81808 -0.831008 4.00534
130 1 -1.1104 15.9994 1.06372 1.94872 1.13287
131 1 -1.1104 15.9994 3.94006 2.06056 1.21517
132 1 -1.1104 15.9994 0.802085 2.33471 3.80701
133 1 -1.1104 15.9994 3.87689 2.05234 4.11252
134 1 -1.1104 15.9994 6.78768 -0.776672 1.16387
135 1 -1.1104 15.9994 9.73516 -0.891547 1.22946
136 1 -1.1104 15.9994 9.63078 -0.67167 3.90646
44 2 2.2208 232.038 0.0231821 23.1626 2.51508
138 1 -1.1104 15.9994 6.8005 2.0249 1.29529
139 1 -1.1104 15.9994 9.67005 2.01482 1.19438
140 1 -1.1104 15.9994 6.76177 -0.812033 4.19019
141 1 -1.1104 15.9994 9.42902 2.17753 4.24337
142 1 -1.1104 15.9994 12.4517 -1.10583 1.40218
143 1 -1.1104 15.9994 12.3875 -0.664029 4.22108
144 1 -1.1104 15.9994 12.3548 2.03436 1.14644
145 1 -1.1104 15.9994 12.1457 2.08126 3.95905
146 1 -1.1104 15.9994 1.15389 4.67304 1.14068
147 1 -1.1104 15.9994 3.99794 4.78107 1.14163
148 1 -1.1104 15.9994 1.25766 5.01686 3.80087
149 1 -1.1104 15.9994 4.10152 4.86924 4.10221
150 1 -1.1104 15.9994 1.37527 7.69034 1.12454
151 1 -1.1104 15.9994 4.12083 7.83681 1.05769
152 1 -1.1104 15.9994 0.972697 7.8368 3.97317
153 1 -1.1104 15.9994 3.68552 7.5938 3.80401
154 1 -1.1104 15.9994 7.02555 4.95698 1.17065
155 1 -1.1104 15.9994 9.84545 4.78927 1.20656
156 1 -1.1104 15.9994 6.57411 1.97008 4.17139
157 1 -1.1104 15.9994 9.65085 5.08266 4.03818
158 1 -1.1104 15.9994 6.93414 7.60402 1.15879
159 1 -1.1104 15.9994 9.78493 7.73002 1.37647
160 1 -1.1104 15.9994 6.89188 4.96105 3.86932
161 1 -1.1104 15.9994 9.51453 8.00373 4.28306
162 1 -1.1104 15.9994 12.6831 4.8563 0.908716
163 1 -1.1104 15.9994 12.4069 4.76854 4.01777
164 1 -1.1104 15.9994 12.608 7.59985 1.27594
165 1 -1.1104 15.9994 12.2398 7.5581 4.23708
166 1 -1.1104 15.9994 1.15833 10.7273 0.955964
167 1 -1.1104 15.9994 3.98169 10.7108 1.1879
168 1 -1.1104 15.9994 1.06116 10.6782 3.56706
169 1 -1.1104 15.9994 3.91212 10.493 4.04174
170 1 -1.1104 15.9994 1.38009 13.3177 1.2084
171 1 -1.1104 15.9994 4.14457 13.3963 3.8517
172 1 -1.1104 15.9994 1.33951 13.4054 3.92868
173 1 -1.1104 15.9994 7.06245 13.114 3.83618
174 1 -1.1104 15.9994 6.75392 10.4356 1.22735
175 1 -1.1104 15.9994 9.47345 10.4062 0.960239
176 1 -1.1104 15.9994 6.81139 7.63778 4.1393
177 1 -1.1104 15.9994 9.63609 10.5119 3.87855
178 1 -1.1104 15.9994 7.09027 13.5017 1.07896
179 1 -1.1104 15.9994 9.87679 13.4594 1.39373
180 1 -1.1104 15.9994 6.92563 10.4292 3.95825
181 1 -1.1104 15.9994 9.95162 13.303 4.13619
182 1 -1.1104 15.9994 12.3014 10.3287 1.32358
183 1 -1.1104 15.9994 12.5795 10.5725 4.20688
184 1 -1.1104 15.9994 12.3563 12.8456 1.23638
185 1 -1.1104 15.9994 12.6826 13.3145 4.20649
186 1 -1.1104 15.9994 1.28705 16.1 1.20937
187 1 -1.1104 15.9994 4.28898 13.3697 1.13211
188 1 -1.1104 15.9994 1.51331 16.2872 3.96174
189 1 -1.1104 15.9994 4.09908 16.2144 3.94006
190 1 -1.1104 15.9994 1.23587 19.1334 1.20567
191 1 -1.1104 15.9994 4.05441 16.1713 1.17328
192 1 -1.1104 15.9994 1.30382 19.0793 4.05221
193 1 -1.1104 15.9994 4.25207 19.0056 3.99785
194 1 -1.1104 15.9994 7.06615 16.2437 1.41641
195 1 -1.1104 15.9994 9.89246 16.2407 1.32444
196 1 -1.1104 15.9994 6.96197 16.0833 4.07781
197 1 -1.1104 15.9994 9.7116 16.3853 4.05432
198 1 -1.1104 15.9994 7.02428 19.1483 1.10559
199 1 -1.1104 15.9994 9.79303 19.0857 1.05564
200 1 -1.1104 15.9994 7.12265 18.8631 4.05906
201 1 -1.1104 15.9994 10.0165 19.1539 3.78437
202 1 -1.1104 15.9994 12.4824 15.9601 1.28178
203 1 -1.1104 15.9994 12.6394 16.2647 4.00142
204 1 -1.1104 15.9994 12.7143 18.8517 1.04039
205 1 -1.1104 15.9994 12.6555 18.9539 3.85508
206 1 -1.1104 15.9994 1.25634 21.7986 1.28431
207 1 -1.1104 15.9994 4.21266 21.6885 1.25754
208 1 -1.1104 15.9994 1.36233 21.8451 4.1645
209 1 -1.1104 15.9994 3.98339 21.9086 4.01911
210 1 -1.1104 15.9994 6.87629 21.87 1.3137
211 1 -1.1104 15.9994 9.69853 21.8223 1.23274
212 1 -1.1104 15.9994 6.9567 21.8176 3.96712
213 1 -1.1104 15.9994 9.59356 21.98 4.03579
214 1 -1.1104 15.9994 12.5895 21.6751 1.25936
215 1 -1.1104 15.9994 12.5584 21.8114 3.93835
216 1 -1.1104 15.9994 0.842682 -0.911963 6.48505
217 1 -1.1104 15.9994 4.01456 -0.739009 6.69731
218 1 -1.1104 15.9994 1.05497 -0.563612 9.71936
219 1 -1.1104 15.9994 3.87806 -0.385028 9.34432
220 1 -1.1104 15.9994 1.22516 1.64751 6.99608
221 1 -1.1104 15.9994 3.84619 2.17584 6.88204
222 1 -1.1104 15.9994 1.39561 2.32585 9.82555
223 1 -1.1104 15.9994 3.96589 2.12896 9.72975
224 1 -1.1104 15.9994 6.87799 -0.679893 6.9119
225 1 -1.1104 15.9994 9.78122 -0.814367 6.85139
226 1 -1.1104 15.9994 6.77514 -0.670211 9.72513
227 1 -1.1104 15.9994 9.53026 -0.574667 9.75415
228 1 -1.1104 15.9994 6.87277 2.13574 6.70986
229 1 -1.1104 15.9994 9.49314 2.10016 6.95808
230 1 -1.1104 15.9994 6.72531 2.09883 9.52719
231 1 -1.1104 15.9994 9.71088 1.9773 9.70079
232 1 -1.1104 15.9994 12.5369 -0.714715 6.92464
233 1 -1.1104 15.9994 12.3086 -0.743125 9.75187
234 1 -1.1104 15.9994 12.2448 2.1027 6.74358
235 1 -1.1104 15.9994 12.8266 2.12124 9.56425
236 1 -1.1104 15.9994 0.999534 5.01053 6.66424
237 1 -1.1104 15.9994 4.00789 4.86575 7.10465
238 1 -1.1104 15.9994 1.4811 4.89324 9.5548
239 1 -1.1104 15.9994 4.10133 5.0227 9.62657
240 1 -1.1104 15.9994 1.38746 7.53128 6.87448
241 1 -1.1104 15.9994 4.10596 7.59166 6.56722
242 1 -1.1104 15.9994 1.33504 7.80076 9.52237
243 1 -1.1104 15.9994 4.15364 7.97523 9.42547
244 1 -1.1104 15.9994 6.70973 5.03082 6.6776
245 1 -1.1104 15.9994 9.65137 4.98459 6.84554
246 1 -1.1104 15.9994 6.83465 4.98554 9.46985
247 1 -1.1104 15.9994 9.51624 4.65243 9.76269
248 1 -1.1104 15.9994 6.87291 7.77635 6.84256
249 1 -1.1104 15.9994 9.73648 7.86557 7.04546
250 1 -1.1104 15.9994 6.84299 7.84565 9.69574
251 1 -1.1104 15.9994 9.48624 7.76406 9.83175
252 1 -1.1104 15.9994 12.3913 5.09484 6.80866
253 1 -1.1104 15.9994 12.4143 5.06603 9.75464
254 1 -1.1104 15.9994 12.4304 7.69253 7.03471
255 1 -1.1104 15.9994 12.4203 8.03291 9.76728
256 1 -1.1104 15.9994 1.29437 10.4913 6.61103
257 1 -1.1104 15.9994 4.19677 10.6873 6.8601
258 1 -1.1104 15.9994 1.44219 10.7146 9.50983
259 1 -1.1104 15.9994 4.10748 10.7433 9.60986
260 1 -1.1104 15.9994 1.37948 13.3793 6.93654
261 1 -1.1104 15.9994 4.10568 13.6494 6.66266
262 1 -1.1104 15.9994 1.18785 13.5662 9.99682
263 1 -1.1104 15.9994 4.22462 13.4607 9.63376
264 1 -1.1104 15.9994 6.87121 10.5458 7.02157
265 1 -1.1104 15.9994 9.58863 10.4619 6.8439
266 1 -1.1104 15.9994 6.89849 10.5649 9.81435
267 1 -1.1104 15.9994 9.68696 10.584 9.61668
268 1 -1.1104 15.9994 6.89288 13.1972 6.73485
269 1 -1.1104 15.9994 9.7603 13.2754 6.73353
270 1 -1.1104 15.9994 7.08888 13.4965 9.59802
271 1 -1.1104 15.9994 9.74004 13.4636 9.43683
272 1 -1.1104 15.9994 12.5747 10.5515 6.90088
273 1 -1.1104 15.9994 12.4929 10.7617 9.643
274 1 -1.1104 15.9994 12.6025 13.4929 7.10488
275 1 -1.1104 15.9994 12.5951 13.6718 9.78652
276 1 -1.1104 15.9994 1.38128 16.2082 6.99585
277 1 -1.1104 15.9994 4.11691 16.549 6.88879
278 1 -1.1104 15.9994 1.12153 16.3172 9.84011
279 1 -1.1104 15.9994 3.82348 16.2046 9.82426
280 1 -1.1104 15.9994 1.29031 19.0336 6.67355
281 1 -1.1104 15.9994 4.17734 18.972 6.76339
282 1 -1.1104 15.9994 1.35887 19.0725 9.60086
283 1 -1.1104 15.9994 4.22757 18.9911 9.54011
284 1 -1.1104 15.9994 7.16097 16.0668 6.72371
285 1 -1.1104 15.9994 9.90772 16.1866 6.82823
286 1 -1.1104 15.9994 6.79554 16.0942 9.64698
287 1 -1.1104 15.9994 9.78286 16.3024 9.6405
288 1 -1.1104 15.9994 6.90385 18.9186 6.78273
289 1 -1.1104 15.9994 9.68721 19.0982 6.7621
290 1 -1.1104 15.9994 7.10976 18.9999 9.46864
291 1 -1.1104 15.9994 9.97412 19.0041 9.39844
292 1 -1.1104 15.9994 12.507 16.264 6.78058
293 1 -1.1104 15.9994 12.472 16.2628 9.78101
294 1 -1.1104 15.9994 12.7667 18.9415 6.6578
295 1 -1.1104 15.9994 12.8052 19.0981 9.62068
296 1 -1.1104 15.9994 1.20516 21.6694 6.79956
297 1 -1.1104 15.9994 4.00001 21.8901 6.78257
298 1 -1.1104 15.9994 1.41988 21.7961 9.56753
299 1 -1.1104 15.9994 4.2115 21.7026 9.59518
300 1 -1.1104 15.9994 6.81268 21.8617 6.74284
301 1 -1.1104 15.9994 9.71196 21.9333 6.82196
302 1 -1.1104 15.9994 6.7451 21.9878 9.45661
303 1 -1.1104 15.9994 9.69957 21.7641 9.77613
304 1 -1.1104 15.9994 12.3939 21.7198 6.92577
305 1 -1.1104 15.9994 12.5973 21.9822 9.79697
306 1 -1.1104 15.9994 1.27258 -0.859783 12.1477
307 1 -1.1104 15.9994 4.09568 -0.739903 12.4499
308 1 -1.1104 15.9994 1.36098 1.97085 12.6384
309 1 -1.1104 15.9994 4.07204 2.10414 12.534
310 1 -1.1104 15.9994 6.91795 -0.746049 12.4203
311 1 -1.1104 15.9994 9.77672 -0.943472 12.501
312 1 -1.1104 15.9994 6.828 2.28843 12.3362
313 1 -1.1104 15.9994 9.46687 2.05626 12.5099
314 1 -1.1104 15.9994 12.449 -0.650019 12.4692
315 1 -1.1104 15.9994 12.4871 2.27311 12.6606
316 1 -1.1104 15.9994 1.3637 4.8374 12.5251
336 2 2.2208 232.038 2.64814 9.24075 13.7317
668 2 2.2208 232.038 0.0189068 14.7882 -0.0990677
8992 2 2.2208 232.038 13.6681 3.48705 2.61173
81 2 2.2208 232.038 0.0630083 14.9335 5.34227
84 2 2.2208 232.038 -0.131041 17.7525 8.23665
9334 2 2.2208 232.038 13.7858 20.3828 13.7414
1 2 2.2208 232.038 13.8457 23.2111 5.42993
34 2 2.2208 232.038 -0.122457 17.6189 2.68358
8984 2 2.2208 232.038 0.05779 3.64725 10.9215
94 2 2.2208 232.038 0.0252531 23.1868 8.24922
661 2 2.2208 232.038 8.21047 0.662846 -0.168986
9052 2 2.2208 232.038 13.9097 9.17582 8.21098
344 2 2.2208 232.038 5.54519 17.7224 13.9278
9086 2 2.2208 232.038 13.8724 6.42771 11.2107
326 2 2.2208 232.038 2.78191 -2.13582 13.8102
9664 2 2.2208 232.038 -0.113666 17.7899 13.9484
9042 2 2.2208 232.038 13.9169 3.62203 8.0246
9031 2 2.2208 232.038 13.7249 0.68864 5.37033
329 2 2.2208 232.038 5.53507 0.717869 13.8975
350 2 2.2208 232.038 11.0722 23.2517 13.8634
349 2 2.2208 232.038 5.47314 23.4377 13.859
675 2 2.2208 232.038 5.33256 20.3151 -0.0933023
670 2 2.2208 232.038 5.54656 14.783 -0.166688
331 2 2.2208 232.038 2.76488 3.58469 13.7851
672 2 2.2208 232.038 11.1581 14.8968 -0.142068
9349 2 2.2208 232.038 13.9495 6.35485 16.9536
327 1 -1.1104 15.9994 7.03587 21.7829 26.6374
330 2 2.2208 232.038 11.1386 0.659554 14.0373
671 2 2.2208 232.038 8.45804 17.6816 27.9902
9665 2 2.2208 232.038 -0.219148 -2.11946 16.818
9339 2 2.2208 232.038 13.6926 0.489754 16.7819
332 1 -1.1104 15.9994 9.80009 21.8478 23.6545
666 2 2.2208 232.038 2.66892 11.9936 27.8052
345 2 2.2208 232.038 11.1083 17.5455 13.9855
9350 2 2.2208 232.038 13.7152 3.44057 19.5366
353 2 2.2208 232.038 2.60447 -2.01275 19.5349
337 1 -1.1104 15.9994 6.82391 21.8432 23.9145
677 1 -1.1104 15.9994 9.84539 13.2641 26.8453
325 2 2.2208 232.038 5.35327 3.35341 28.0307
9410 2 2.2208 232.038 13.8811 9.13698 25.1443
405 2 2.2208 232.038 5.28288 -2.03378 22.3711
342 1 -1.1104 15.9994 4.0203 21.7516 26.6277
9399 2 2.2208 232.038 13.8935 6.2985 22.5169
657 2 2.2208 232.038 13.896 23.1997 22.3663
441 2 2.2208 232.038 -0.0389326 20.4937 22.3034
658 2 2.2208 232.038 13.9094 20.4123 25.0816
9591 1 -1.1104 15.9994 1.08674 1.91227 23.9096
9370 2 2.2208 232.038 13.8099 14.8584 19.6525
9420 2 2.2208 232.038 13.8315 14.7646 25.0379
9677 2 2.2208 232.038 13.979 0.56251 27.9339
351 1 -1.1104 15.9994 1.10225 22.0155 26.8372
352 2 2.2208 232.038 2.55486 0.717972 16.6423
676 2 2.2208 232.038 8.42567 23.2649 27.9556
354 1 -1.1104 15.9994 4.07239 21.7578 23.7072
9324 2 2.2208 232.038 13.8208 9.07495 14.0301
356 2 2.2208 232.038 8.34049 0.687509 16.9233
9359 2 2.2208 232.038 13.6529 11.8752 16.9816
358 2 2.2208 232.038 5.4788 0.567306 19.4849
9409 2 2.2208 232.038 13.9118 11.9458 22.3506
360 2 2.2208 232.038 10.8902 0.564027 19.7783
361 1 -1.1104 15.9994 0.843377 21.4641 24.2369
362 2 2.2208 232.038 2.66313 6.25075 16.7697
363 2 2.2208 232.038 2.52615 3.56662 19.4758
364 1 -1.1104 15.9994 12.586 19.158 26.5737
365 2 2.2208 232.038 5.34583 3.40167 16.8799
366 2 2.2208 232.038 8.17955 6.36955 16.7173
367 2 2.2208 232.038 8.31529 3.50711 19.5319
368 2 2.2208 232.038 5.54148 6.32823 19.6399
369 2 2.2208 232.038 11.2009 3.51345 16.7906
370 2 2.2208 232.038 10.9058 6.13782 19.6465
371 1 -1.1104 15.9994 12.493 19.0653 23.8276
372 2 2.2208 232.038 2.6096 12.0544 16.5887
373 2 2.2208 232.038 2.52306 9.1528 19.5909
650 1 -1.1104 15.9994 4.17859 18.9554 23.7593
375 2 2.2208 232.038 5.39455 9.20488 16.7853
376 2 2.2208 232.038 8.37629 12.0444 16.5745
377 2 2.2208 232.038 8.31031 8.99215 19.6862
378 2 2.2208 232.038 5.32849 11.8044 19.5977
379 2 2.2208 232.038 11.0546 9.09707 16.8509
380 2 2.2208 232.038 11.0997 11.8369 19.6683
381 1 -1.1104 15.9994 12.8933 16.3477 26.6647
382 2 2.2208 232.038 2.38535 17.833 16.693
383 2 2.2208 232.038 2.85646 14.6162 19.3243
384 2 2.2208 232.038 0.00648514 17.6149 19.5378
385 2 2.2208 232.038 5.59401 14.9842 16.7318
386 2 2.2208 232.038 8.29059 17.6499 16.7842
387 2 2.2208 232.038 8.26235 14.8196 19.5274
388 2 2.2208 232.038 5.36841 17.7504 19.4367
389 2 2.2208 232.038 11.1009 14.6124 16.743
390 2 2.2208 232.038 11.0726 17.661 19.6244
391 1 -1.1104 15.9994 12.5791 21.7288 26.7217
392 2 2.2208 232.038 2.75964 23.4081 16.4755
393 2 2.2208 232.038 2.82252 20.4149 19.4619
655 1 -1.1104 15.9994 9.81618 15.9265 23.9001
395 2 2.2208 232.038 5.56532 20.4379 16.5693
396 2 2.2208 232.038 8.33595 23.3064 16.8886
397 2 2.2208 232.038 8.26767 20.6768 19.4931
398 2 2.2208 232.038 5.41726 23.517 19.5974
399 2 2.2208 232.038 11.1376 20.4999 16.8772
400 2 2.2208 232.038 11.2185 23.2214 19.5258
401 1 -1.1104 15.9994 12.6989 16.3329 23.8911
402 2 2.2208 232.038 2.33055 0.596862 22.3297
335 2 2.2208 232.038 11.2111 6.36551 14.0434
404 1 -1.1104 15.9994 9.72277 19.1601 26.6062
9400 2 2.2208 232.038 13.7192 3.57099 25.1689
406 2 2.2208 232.038 8.04355 0.662081 22.1542
654 1 -1.1104 15.9994 6.83791 16.2393 23.605
408 2 2.2208 232.038 5.38775 0.649389 24.9953
656 1 -1.1104 15.9994 6.86045 16.3863 26.6238
410 2 2.2208 232.038 10.9146 0.601459 25.2583
411 1 -1.1104 15.9994 6.79557 18.9159 26.4554
412 2 2.2208 232.038 2.51426 6.22399 22.3706
413 2 2.2208 232.038 2.45001 3.39709 25.1362
414 1 -1.1104 15.9994 9.64531 19.043 23.8672
415 2 2.2208 232.038 5.16214 3.57508 22.3209
416 2 2.2208 232.038 8.19772 5.99035 22.1633
417 2 2.2208 232.038 8.28503 3.51074 25.274
418 2 2.2208 232.038 5.24897 6.25547 25.1775
419 2 2.2208 232.038 10.8238 3.34566 22.476
420 2 2.2208 232.038 10.9909 6.23289 25.0162
421 1 -1.1104 15.9994 6.91669 19.3049 23.5931
422 2 2.2208 232.038 2.60226 11.8738 22.3577
423 2 2.2208 232.038 2.68814 9.20548 25.2648
424 1 -1.1104 15.9994 9.7597 16.1622 26.6097
425 2 2.2208 232.038 5.34533 9.10174 22.4434
426 2 2.2208 232.038 8.26578 12.1125 22.3591
427 2 2.2208 232.038 8.31497 9.15779 25.0141
428 2 2.2208 232.038 5.57005 11.9784 25.1209
429 2 2.2208 232.038 11.033 9.16301 22.3412
430 2 2.2208 232.038 11.1104 11.9473 25.2975
652 1 -1.1104 15.9994 1.4527 18.9435 26.5193
432 2 2.2208 232.038 2.55981 17.5135 22.3047
433 2 2.2208 232.038 2.67832 14.8662 25.0337
651 1 -1.1104 15.9994 4.00892 19.019 26.7723
435 2 2.2208 232.038 5.48618 14.7442 22.1527
436 2 2.2208 232.038 8.3554 17.7302 22.197
437 2 2.2208 232.038 8.0982 15.0304 24.9566
438 2 2.2208 232.038 5.52176 17.5688 25.156
439 2 2.2208 232.038 11.2517 14.6663 22.3516
440 2 2.2208 232.038 11.3303 17.6279 25.3315
9676 2 2.2208 232.038 -0.0785535 12.0407 25.243
442 1 -1.1104 15.9994 12.6977 21.7782 23.6782
443 2 2.2208 232.038 2.79657 20.4689 25.114
649 1 -1.1104 15.9994 4.16319 16.0768 26.4372
445 2 2.2208 232.038 5.2338 20.5468 22.2724
446 2 2.2208 232.038 8.41375 23.2276 22.4229
447 2 2.2208 232.038 8.22426 20.4935 25.1657
448 2 2.2208 232.038 5.51036 23.2006 25.0859
449 2 2.2208 232.038 11.1129 20.4586 22.3108
450 2 2.2208 232.038 11.2207 23.1941 25.1209
451 1 -1.1104 15.9994 1.25428 -0.777904 15.102
452 1 -1.1104 15.9994 4.12645 -0.905338 15.4409
453 1 -1.1104 15.9994 1.14254 2.33622 15.4543
454 1 -1.1104 15.9994 3.91485 2.05125 15.1979
455 1 -1.1104 15.9994 6.81405 -0.837364 15.0341
456 1 -1.1104 15.9994 9.6401 -1.00652 15.3144
457 1 -1.1104 15.9994 6.8503 1.98315 15.255
458 1 -1.1104 15.9994 9.82681 2.25509 15.2457
459 1 -1.1104 15.9994 12.2091 -0.876169 15.3874
460 1 -1.1104 15.9994 12.6758 1.96232 15.4199
461 1 -1.1104 15.9994 1.1335 4.80067 15.2179
462 1 -1.1104 15.9994 3.92887 5.03957 15.4251
463 1 -1.1104 15.9994 1.12125 7.73818 15.0924
464 1 -1.1104 15.9994 3.91567 7.93233 15.4422
465 1 -1.1104 15.9994 6.67802 4.73677 15.2023
466 1 -1.1104 15.9994 9.67981 5.16009 15.3602
467 1 -1.1104 15.9994 6.57018 7.86405 15.2452
468 1 -1.1104 15.9994 9.52795 7.91798 15.569
469 1 -1.1104 15.9994 12.4552 4.62628 15.3308
470 1 -1.1104 15.9994 12.4864 7.67628 15.5442
471 1 -1.1104 15.9994 1.14122 10.5042 15.0184
472 1 -1.1104 15.9994 4.07493 10.6712 15.3017
473 1 -1.1104 15.9994 1.19657 13.3228 15.1464
474 1 -1.1104 15.9994 3.99069 13.4832 15.4642
475 1 -1.1104 15.9994 6.88116 10.6264 15.3404
476 1 -1.1104 15.9994 9.79416 10.6912 15.281
477 1 -1.1104 15.9994 6.72083 13.5965 15.2047
478 1 -1.1104 15.9994 9.48766 13.4628 15.1689
479 1 -1.1104 15.9994 12.4246 10.6042 15.5099
480 1 -1.1104 15.9994 12.6001 13.3627 15.34
481 1 -1.1104 15.9994 1.36196 16.1087 15.3718
482 1 -1.1104 15.9994 4.19437 16.2377 15.301
483 1 -1.1104 15.9994 1.45922 18.9245 15.0328
484 1 -1.1104 15.9994 4.02952 19.0315 15.1113
485 1 -1.1104 15.9994 7.1672 16.3474 15.3788
486 1 -1.1104 15.9994 9.74234 16.1734 15.4332
487 1 -1.1104 15.9994 7.01431 19.1 15.1564
488 1 -1.1104 15.9994 9.77979 18.9195 15.4141
489 1 -1.1104 15.9994 12.6003 15.9052 15.508
490 1 -1.1104 15.9994 12.5279 18.935 15.1573
491 1 -1.1104 15.9994 1.5321 21.9499 15.381
492 1 -1.1104 15.9994 4.26358 21.9911 15.1006
493 1 -1.1104 15.9994 6.82843 21.8089 15.2158
494 1 -1.1104 15.9994 9.54026 21.8115 15.518
495 1 -1.1104 15.9994 12.4256 22.0508 15.3256
496 1 -1.1104 15.9994 1.30908 -0.758447 18.0331
497 1 -1.1104 15.9994 4.29799 -0.826817 18.2252
498 1 -1.1104 15.9994 0.998486 -0.672401 20.945
499 1 -1.1104 15.9994 3.84243 -0.779817 21.2165
500 1 -1.1104 15.9994 1.0953 1.85904 18.1487
501 1 -1.1104 15.9994 3.91683 1.98899 18.1745
502 1 -1.1104 15.9994 0.997439 2.17565 20.902
503 1 -1.1104 15.9994 3.76764 2.11413 20.985
504 1 -1.1104 15.9994 6.9643 -0.984951 17.8659
505 1 -1.1104 15.9994 9.41321 -0.856958 18.2818
506 1 -1.1104 15.9994 6.78842 -0.980325 20.7567
507 1 -1.1104 15.9994 9.44336 -0.886827 21.0217
508 1 -1.1104 15.9994 7.01925 1.86421 18.0828
509 1 -1.1104 15.9994 9.80665 1.94413 18.2276
510 1 -1.1104 15.9994 6.68569 1.96723 20.8085
511 1 -1.1104 15.9994 9.53943 1.93372 21.0111
512 1 -1.1104 15.9994 12.2351 -0.881853 18.3902
513 1 -1.1104 15.9994 12.3034 -0.61363 21.1072
514 1 -1.1104 15.9994 12.3543 2.0027 18.176
515 1 -1.1104 15.9994 12.2681 2.12198 21.0417
516 1 -1.1104 15.9994 1.30243 4.8062 17.9456
517 1 -1.1104 15.9994 4.10391 4.83606 18.2162
518 1 -1.1104 15.9994 1.22367 4.98258 20.6547
519 1 -1.1104 15.9994 4.04185 5.03059 21.0834
520 1 -1.1104 15.9994 1.15586 7.72586 18.0381
521 1 -1.1104 15.9994 3.99248 7.6955 18.1318
522 1 -1.1104 15.9994 1.17226 7.52593 20.7887
523 1 -1.1104 15.9994 4.09966 7.64334 21.0622
524 1 -1.1104 15.9994 6.92143 4.66722 18.0818
525 1 -1.1104 15.9994 9.75458 4.7896 18.1969
526 1 -1.1104 15.9994 6.88877 4.73174 20.7633
527 1 -1.1104 15.9994 9.67904 4.69597 21.0913
528 1 -1.1104 15.9994 6.75384 7.41524 18.0522
529 1 -1.1104 15.9994 9.5373 7.65622 18.0627
530 1 -1.1104 15.9994 7.05031 7.44888 20.7586
531 1 -1.1104 15.9994 9.83464 7.71235 20.8146
532 1 -1.1104 15.9994 12.5687 4.83192 18.1671
533 1 -1.1104 15.9994 12.4732 4.72947 21.0016
534 1 -1.1104 15.9994 12.3918 7.58508 18.4561
535 1 -1.1104 15.9994 12.6219 7.68017 21.0315
536 1 -1.1104 15.9994 1.21821 10.4002 18.1102
537 1 -1.1104 15.9994 3.99779 10.3369 18.3253
538 1 -1.1104 15.9994 0.988502 10.505 20.8861
539 1 -1.1104 15.9994 3.71349 10.3514 21.0233
540 1 -1.1104 15.9994 1.1972 13.3903 17.9927
541 1 -1.1104 15.9994 4.13787 13.23 18.2262
542 1 -1.1104 15.9994 1.32489 13.2891 20.8872
543 1 -1.1104 15.9994 4.2087 13.19 21.0153
544 1 -1.1104 15.9994 6.99118 10.6817 18.1083
545 1 -1.1104 15.9994 9.66397 10.7094 18.1966
546 1 -1.1104 15.9994 6.70995 10.2354 20.8851
547 1 -1.1104 15.9994 9.59623 10.5395 20.8079
548 1 -1.1104 15.9994 6.81206 13.3913 18.2831
549 1 -1.1104 15.9994 9.65233 13.3529 18.2211
550 1 -1.1104 15.9994 7.16774 13.4493 20.9395
551 1 -1.1104 15.9994 9.90568 13.5631 21.0835
552 1 -1.1104 15.9994 12.4116 10.4923 18.474
553 1 -1.1104 15.9994 12.3708 10.6444 21.1775
554 1 -1.1104 15.9994 12.3551 13.1798 18.2506
555 1 -1.1104 15.9994 12.5414 13.338 21.0722
556 1 -1.1104 15.9994 1.21149 16.2174 17.977
557 1 -1.1104 15.9994 4.07451 16.2557 18.0157
558 1 -1.1104 15.9994 1.32231 16.2861 20.8215
559 1 -1.1104 15.9994 3.91247 15.804 20.8889
560 1 -1.1104 15.9994 1.32346 18.9815 18.3008
561 1 -1.1104 15.9994 4.04558 18.9983 17.9789
562 1 -1.1104 15.9994 1.32078 18.8951 23.8347
563 1 -1.1104 15.9994 3.96652 18.6383 20.815
564 1 -1.1104 15.9994 6.91755 16.3305 18.123
565 1 -1.1104 15.9994 9.76465 16.0735 18.0559
566 1 -1.1104 15.9994 6.92837 16.2907 20.7688
567 1 -1.1104 15.9994 9.58794 16.4861 20.8084
568 1 -1.1104 15.9994 6.95831 19.1378 17.9885
569 1 -1.1104 15.9994 9.79322 19.0396 17.9591
570 1 -1.1104 15.9994 6.71781 19.2176 20.8256
571 1 -1.1104 15.9994 9.80799 19.0606 21.0256
572 1 -1.1104 15.9994 12.409 16.2667 18.3344
573 1 -1.1104 15.9994 12.4521 16.2167 21.1578
574 1 -1.1104 15.9994 12.6167 18.972 18.162
575 1 -1.1104 15.9994 12.5903 18.7848 21.0565
576 1 -1.1104 15.9994 1.04871 21.6936 20.5908
577 1 -1.1104 15.9994 3.77556 21.8671 17.8658
578 1 -1.1104 15.9994 1.41107 19.0914 20.9828
579 1 -1.1104 15.9994 4.26499 21.7082 20.7118
580 1 -1.1104 15.9994 6.75721 21.9181 18.264
581 1 -1.1104 15.9994 9.68289 22.0047 18.2573
582 1 -1.1104 15.9994 6.92547 22.0414 20.9519
583 1 -1.1104 15.9994 9.61682 21.7201 20.8655
584 1 -1.1104 15.9994 12.7364 21.8382 18.0797
585 1 -1.1104 15.9994 12.4633 21.7569 20.9434
648 1 -1.1104 15.9994 1.39896 16.122 26.6309
587 1 -1.1104 15.9994 3.9831 -0.839404 23.995
588 1 -1.1104 15.9994 1.00452 -0.867854 26.4099
589 1 -1.1104 15.9994 3.89414 -0.988883 27.0512
590 1 -1.1104 15.9994 0.989769 -0.855056 23.5964
591 1 -1.1104 15.9994 3.94865 1.89631 23.5796
592 1 -1.1104 15.9994 1.03728 1.88001 26.6031
593 1 -1.1104 15.9994 3.7584 2.18842 26.6128
594 1 -1.1104 15.9994 6.8964 -0.78518 23.5762
595 1 -1.1104 15.9994 9.86855 -0.798785 23.935
596 1 -1.1104 15.9994 6.59532 -0.886518 26.5487
597 1 -1.1104 15.9994 9.36788 -0.741619 26.511
598 1 -1.1104 15.9994 6.81067 2.05362 23.6102
599 1 -1.1104 15.9994 9.57921 1.95955 23.8277
600 1 -1.1104 15.9994 6.68429 2.08464 26.4002
601 1 -1.1104 15.9994 9.47299 1.9198 26.8147
602 1 -1.1104 15.9994 12.6069 -0.816843 23.7844
603 1 -1.1104 15.9994 12.5361 -0.750645 26.7108
604 1 -1.1104 15.9994 12.547 2.18152 23.5575
605 1 -1.1104 15.9994 12.4097 2.02302 26.4662
606 1 -1.1104 15.9994 0.907422 4.63319 23.7829
607 1 -1.1104 15.9994 3.78072 4.76263 23.7818
608 1 -1.1104 15.9994 1.20279 4.87993 26.4703
609 1 -1.1104 15.9994 3.92154 4.83311 26.5792
610 1 -1.1104 15.9994 1.09129 7.52507 23.5635
611 1 -1.1104 15.9994 3.93977 7.6406 23.8696
612 1 -1.1104 15.9994 1.11206 7.8254 26.541
613 1 -1.1104 15.9994 3.95973 7.74387 26.5305
614 1 -1.1104 15.9994 6.77567 4.76145 23.4184
615 1 -1.1104 15.9994 9.58848 4.85831 23.8388
616 1 -1.1104 15.9994 6.77168 4.89197 26.5817
617 1 -1.1104 15.9994 9.71258 4.78297 26.5643
618 1 -1.1104 15.9994 6.85326 7.52723 23.538
619 1 -1.1104 15.9994 9.61813 7.58497 23.4609
620 1 -1.1104 15.9994 6.84784 7.74406 26.217
621 1 -1.1104 15.9994 9.72487 7.54389 26.6255
622 1 -1.1104 15.9994 12.4105 4.91399 23.8748
623 1 -1.1104 15.9994 12.3602 4.9139 26.5163
624 1 -1.1104 15.9994 12.5197 7.87065 23.6637
625 1 -1.1104 15.9994 12.5656 7.86258 26.5436
626 1 -1.1104 15.9994 1.20833 10.423 23.7987
627 1 -1.1104 15.9994 3.97232 10.4841 23.8397
628 1 -1.1104 15.9994 1.15475 10.6058 26.7498
629 1 -1.1104 15.9994 4.03661 10.6437 26.577
630 1 -1.1104 15.9994 1.28588 13.2043 23.8854
631 1 -1.1104 15.9994 4.02454 13.2108 23.7694
632 1 -1.1104 15.9994 1.31754 13.7109 26.6544
633 1 -1.1104 15.9994 4.21113 13.3736 26.6425
634 1 -1.1104 15.9994 6.98804 10.4993 23.5834
635 1 -1.1104 15.9994 9.6802 10.3778 23.7288