ITEM: TIMESTEP
350000
ITEM: NUMBER OF ATOMS
18000
ITEM: BOX BOUNDS xy xz yz pp pp pp
-1.5407705666141680e-01 2.8048077056661270e+01 0.0000000000000000e+00
-2.2498503304443265e+00 3.3697785033047040e+02 0.0000000000000000e+00
-1.7059708816330185e-01 2.8064597088161939e+01 0.0000000000000000e+00
ITEM: ATOMS id type q mass x y z
8981 2 2.2208 232.038 -0.0816761 14.8403 11.3243
324 1 -1.1104 15.9994 12.7532 4.7362 12.3782
3 2 2.2208 232.038 2.72698 -2.21073 2.69887
4 1 -1.1104 15.9994 12.5879 21.6692 12.453
323 1 -1.1104 15.9994 9.51176 7.60037 12.9041
322 1 -1.1104 15.9994 6.84891 7.75742 12.7028
9690 2 2.2208 232.038 0.00212913 3.52308 -0.0282262
8 2 2.2208 232.038 5.7161 0.579098 2.63617
9 1 -1.1104 15.9994 12.4856 7.54297 12.6615
10 2 2.2208 232.038 11.273 0.495329 2.71524
11 1 -1.1104 15.9994 9.85529 21.8683 12.3063
321 1 -1.1104 15.9994 9.68285 4.60642 12.5443
13 2 2.2208 232.038 2.57094 3.54837 2.84118
14 1 -1.1104 15.9994 7.04905 21.8381 12.2583
103 2 2.2208 232.038 5.63452 -2.12394 11.1049
105 2 2.2208 232.038 11.2926 -2.23563 11.0959
17 2 2.2208 232.038 8.28928 3.34904 2.62281
18 2 2.2208 232.038 5.48699 6.32166 2.71605
29 2 2.2208 232.038 11.3422 8.96833 -0.0036845
20 2 2.2208 232.038 11.1158 6.23529 2.84092
21 1 -1.1104 15.9994 4.1502 21.8148 12.4885
22 1 -1.1104 15.9994 1.38988 16.0353 12.7801
23 2 2.2208 232.038 2.68497 9.24224 2.69823
320 1 -1.1104 15.9994 6.77996 4.82426 12.6646
663 2 2.2208 232.038 2.84381 6.13905 -0.101289
344 2 2.2208 232.038 5.36586 17.6117 13.8913
27 2 2.2208 232.038 8.33226 8.96506 2.82589
28 2 2.2208 232.038 5.50753 11.9089 2.68474
9004 2 2.2208 232.038 0.0966544 6.46446 2.81837
30 2 2.2208 232.038 11.1172 11.7847 2.51094
31 1 -1.1104 15.9994 12.6442 13.0518 12.6286
32 1 -1.1104 15.9994 12.6448 10.3104 12.3714
33 2 2.2208 232.038 2.66011 14.7911 2.70745
319 1 -1.1104 15.9994 4.18388 7.68153 12.6201
35 1 -1.1104 15.9994 9.78309 12.9717 12.2695
36 1 -1.1104 15.9994 6.9185 13.4198 12.4646
37 2 2.2208 232.038 8.2012 14.6582 2.56588
38 2 2.2208 232.038 5.38227 17.6118 2.51639
39 1 -1.1104 15.9994 9.45598 10.3281 12.4448
40 2 2.2208 232.038 11.3027 17.6484 2.60651
41 1 -1.1104 15.9994 6.91402 10.6436 12.6042
42 1 -1.1104 15.9994 4.14061 13.232 12.6961
43 2 2.2208 232.038 2.56769 20.4648 2.55825
318 1 -1.1104 15.9994 1.3072 7.57136 12.5196
45 1 -1.1104 15.9994 1.27109 13.2845 12.6247
46 1 -1.1104 15.9994 4.08338 10.4696 12.5793
47 2 2.2208 232.038 8.38446 20.2011 2.56127
48 2 2.2208 232.038 5.51903 23.1914 2.68575
49 1 -1.1104 15.9994 1.08004 10.3176 12.7851
50 2 2.2208 232.038 11.1575 23.1911 2.55665
51 1 -1.1104 15.9994 1.38432 21.5719 12.7727
52 2 2.2208 232.038 2.66978 0.626113 5.37109
8997 2 2.2208 232.038 -0.071747 3.54161 5.66849
54 1 -1.1104 15.9994 12.3352 18.9571 12.5711
5 2 2.2208 232.038 13.7423 14.6393 8.36334
56 2 2.2208 232.038 8.16443 0.492717 5.33533
9031 2 2.2208 232.038 13.9038 0.485101 5.66847
58 2 2.2208 232.038 5.69921 0.626507 8.32696
53 2 2.2208 232.038 2.74142 -2.12254 8.05033
60 2 2.2208 232.038 11.221 0.57605 8.25755
61 1 -1.1104 15.9994 12.3811 16.0872 12.256
62 2 2.2208 232.038 2.9489 6.44058 5.52707
63 2 2.2208 232.038 2.88041 3.25596 8.37691
64 1 -1.1104 15.9994 9.59852 18.8779 12.5066
65 2 2.2208 232.038 5.40394 3.52128 5.55435
66 2 2.2208 232.038 8.31449 6.19013 5.50704
67 2 2.2208 232.038 8.36092 3.34419 8.41787
68 2 2.2208 232.038 5.69895 6.24946 8.55924
69 2 2.2208 232.038 11.1413 3.28322 5.46205
70 2 2.2208 232.038 11.07 6.25082 8.26571
71 1 -1.1104 15.9994 6.85705 19.1337 12.3341
72 2 2.2208 232.038 2.68045 11.8981 5.60898
73 2 2.2208 232.038 2.68256 9.16506 8.43536
74 1 -1.1104 15.9994 9.69772 15.7915 12.5439
75 2 2.2208 232.038 5.56024 9.06678 5.65876
76 2 2.2208 232.038 8.20152 11.7733 5.26771
77 2 2.2208 232.038 8.43019 9.05152 8.40586
78 2 2.2208 232.038 5.52176 11.7791 8.45659
79 2 2.2208 232.038 11.0628 8.98694 5.41085
80 2 2.2208 232.038 11.2215 11.8744 8.12944
317 1 -1.1104 15.9994 4.11563 4.79807 12.4685
82 2 2.2208 232.038 2.59378 17.3718 5.41455
83 2 2.2208 232.038 2.72478 14.6514 8.32042
653 1 -1.1104 15.9994 4.04496 18.8012 0.973834
85 2 2.2208 232.038 5.37247 14.6045 5.51159
86 2 2.2208 232.038 7.87885 17.5831 5.39686
87 2 2.2208 232.038 8.45476 14.6786 8.24634
88 2 2.2208 232.038 5.5269 17.7027 8.23759
89 2 2.2208 232.038 11.067 14.4744 5.32931
90 2 2.2208 232.038 11.1304 17.4702 8.17137
7 2 2.2208 232.038 8.44532 -2.18503 2.55645
92 2 2.2208 232.038 2.42692 23.1808 5.46644
93 2 2.2208 232.038 2.73723 20.2858 8.09625
84 2 2.2208 232.038 -0.154224 17.5286 8.29177
95 2 2.2208 232.038 5.36941 20.3734 5.43687
96 2 2.2208 232.038 8.32877 23.2596 5.52208
97 2 2.2208 232.038 8.08636 20.2078 8.19699
98 2 2.2208 232.038 5.16905 23.3851 8.35106
99 2 2.2208 232.038 10.9285 20.2833 5.31534
100 2 2.2208 232.038 10.9582 22.9067 8.34278
101 1 -1.1104 15.9994 6.94411 16.3069 12.3292
102 2 2.2208 232.038 2.75958 0.564565 11.007
8992 2 2.2208 232.038 13.9179 3.34643 2.71348
104 2 2.2208 232.038 8.49218 0.540869 11.1841
343 2 2.2208 232.038 8.20845 14.7892 13.8197
106 1 -1.1104 15.9994 4.07586 19.0545 12.5314
107 2 2.2208 232.038 2.60914 6.21337 11.0542
108 2 2.2208 232.038 5.74305 3.41269 11.1964
109 2 2.2208 232.038 8.4056 6.29449 11.3439
110 2 2.2208 232.038 11.2081 3.43008 10.9543
111 1 -1.1104 15.9994 1.27756 18.7931 12.1812
112 2 2.2208 232.038 2.54357 11.8186 11.2241
113 2 2.2208 232.038 5.52828 9.15806 11.2967
114 2 2.2208 232.038 8.37103 11.8573 10.8901
115 2 2.2208 232.038 11.2193 9.14342 11.1044
116 1 -1.1104 15.9994 4.21921 16.1422 12.7472
117 2 2.2208 232.038 2.93892 17.5749 11.123
118 2 2.2208 232.038 5.49506 14.6121 11.1836
119 2 2.2208 232.038 8.08081 17.6151 10.919
120 2 2.2208 232.038 11.0087 14.693 11.0885
9101 2 2.2208 232.038 13.9129 23.1464 11.1061
122 2 2.2208 232.038 2.6245 23.264 11.0704
123 2 2.2208 232.038 5.43277 20.5148 11.0865
124 2 2.2208 232.038 8.27773 23.4062 10.9646
125 2 2.2208 232.038 10.9595 20.2371 11.2001
126 1 -1.1104 15.9994 1.3596 -0.901578 1.19284
127 1 -1.1104 15.9994 4.32145 -0.497618 1.09039
128 1 -1.1104 15.9994 1.37899 -0.89292 3.89455
129 1 -1.1104 15.9994 4.02728 -1.01685 3.94771
130 1 -1.1104 15.9994 1.20175 2.17942 1.25187
131 1 -1.1104 15.9994 3.83433 2.03307 1.42874
132 1 -1.1104 15.9994 1.1088 2.1575 3.9003
133 1 -1.1104 15.9994 4.20085 1.96566 4.1308
134 1 -1.1104 15.9994 7.29119 -0.72634 1.40611
135 1 -1.1104 15.9994 10.0242 -0.925931 0.940881
136 1 -1.1104 15.9994 9.94396 -1.10371 4.09772
9007 2 2.2208 232.038 -0.0823678 0.476209 2.92277
138 1 -1.1104 15.9994 6.88845 1.96737 1.26978
139 1 -1.1104 15.9994 9.69435 1.97921 1.34548
140 1 -1.1104 15.9994 6.93586 -0.925458 3.87714
141 1 -1.1104 15.9994 9.64144 1.76087 4.01744
142 1 -1.1104 15.9994 12.6898 -0.762425 1.23809
143 1 -1.1104 15.9994 12.4749 -0.932864 4.12422
144 1 -1.1104 15.9994 12.6571 1.92604 1.44872
145 1 -1.1104 15.9994 12.5783 1.89721 4.14468
146 1 -1.1104 15.9994 1.35552 4.94751 1.15237
147 1 -1.1104 15.9994 4.13211 4.79296 1.35692
148 1 -1.1104 15.9994 1.42008 4.86083 4.27082
149 1 -1.1104 15.9994 4.29128 4.93271 4.12329
150 1 -1.1104 15.9994 1.22964 7.70412 1.17659
151 1 -1.1104 15.9994 3.88499 7.72216 1.47507
152 1 -1.1104 15.9994 1.46326 7.79284 4.45925
153 1 -1.1104 15.9994 4.10523 7.7957 4.06729
154 1 -1.1104 15.9994 7.01779 4.75618 1.38596
155 1 -1.1104 15.9994 9.73451 4.69348 1.26193
156 1 -1.1104 15.9994 6.89418 2.05892 4.09802
157 1 -1.1104 15.9994 9.75973 4.63436 3.95332
158 1 -1.1104 15.9994 6.9424 7.73592 1.28432
159 1 -1.1104 15.9994 9.69362 7.48982 1.40574
160 1 -1.1104 15.9994 6.98706 4.79251 4.16006
161 1 -1.1104 15.9994 9.7106 7.43356 4.07975
162 1 -1.1104 15.9994 12.5136 4.81535 1.40941
163 1 -1.1104 15.9994 12.6713 4.8578 4.09894
164 1 -1.1104 15.9994 12.507 7.4679 1.42344
165 1 -1.1104 15.9994 12.7057 7.57288 4.19257
166 1 -1.1104 15.9994 1.32175 10.5011 1.41756
167 1 -1.1104 15.9994 4.04312 10.4191 1.39837
168 1 -1.1104 15.9994 1.2394 10.3496 4.04695
169 1 -1.1104 15.9994 4.2377 10.6334 4.21856
170 1 -1.1104 15.9994 1.28407 13.2308 1.45429
171 1 -1.1104 15.9994 4.06724 13.4288 4.19232
172 1 -1.1104 15.9994 1.35913 13.3211 4.55985
173 1 -1.1104 15.9994 6.82078 13.1441 3.96072
174 1 -1.1104 15.9994 6.90528 10.5826 1.37046
175 1 -1.1104 15.9994 9.85562 10.2274 1.25908
176 1 -1.1104 15.9994 7.06125 7.49168 3.92828
177 1 -1.1104 15.9994 9.92267 10.2266 3.88
178 1 -1.1104 15.9994 6.77279 13.1047 1.21029
179 1 -1.1104 15.9994 9.58894 13.0671 1.19148
180 1 -1.1104 15.9994 6.88197 10.3253 4.22346
181 1 -1.1104 15.9994 9.63278 13.1111 3.97029
182 1 -1.1104 15.9994 12.7852 10.428 1.2677
183 1 -1.1104 15.9994 12.5632 10.3446 4.11053
184 1 -1.1104 15.9994 12.5858 13.1533 1.20024
185 1 -1.1104 15.9994 12.3499 13.4013 3.87073
186 1 -1.1104 15.9994 1.25202 15.941 1.39259
187 1 -1.1104 15.9994 4.09747 13.2832 1.35038
188 1 -1.1104 15.9994 1.24998 16.0713 4.00786
189 1 -1.1104 15.9994 3.95462 16.1582 4.21495
190 1 -1.1104 15.9994 1.41385 18.9274 1.069
191 1 -1.1104 15.9994 3.87389 16.1776 1.43031
192 1 -1.1104 15.9994 1.1851 18.73 4.09133
193 1 -1.1104 15.9994 4.12739 18.8213 4.0316
194 1 -1.1104 15.9994 6.67026 16.1229 1.29202
195 1 -1.1104 15.9994 9.49275 16.2565 1.11882
196 1 -1.1104 15.9994 6.83179 15.9682 4.18748
197 1 -1.1104 15.9994 9.783 15.9342 4.05277
198 1 -1.1104 15.9994 6.92203 18.8449 1.29414
199 1 -1.1104 15.9994 9.75217 19.0626 1.1473
200 1 -1.1104 15.9994 6.70431 18.9895 3.93525
201 1 -1.1104 15.9994 9.6437 18.8929 3.82619
202 1 -1.1104 15.9994 12.5576 16.0594 1.23196
203 1 -1.1104 15.9994 12.6102 16.3896 3.88991
204 1 -1.1104 15.9994 12.7249 18.9233 1.20748
205 1 -1.1104 15.9994 12.5297 18.9767 4.11657
206 1 -1.1104 15.9994 1.13651 21.729 1.14425
207 1 -1.1104 15.9994 4.27387 21.7411 1.20253
208 1 -1.1104 15.9994 1.25308 21.6253 3.89815
209 1 -1.1104 15.9994 3.93349 21.6357 3.97292
210 1 -1.1104 15.9994 6.89888 21.6435 1.32416
211 1 -1.1104 15.9994 9.7744 21.9761 1.12089
212 1 -1.1104 15.9994 7.06688 22.0478 3.99716
213 1 -1.1104 15.9994 9.77278 21.7167 4.00283
214 1 -1.1104 15.9994 12.5097 21.6786 1.40976
215 1 -1.1104 15.9994 12.5492 21.7577 4.05443
216 1 -1.1104 15.9994 1.24178 -1.10715 6.50155
217 1 -1.1104 15.9994 4.09443 -0.6424 6.94173
218 1 -1.1104 15.9994 1.35747 -1.00514 9.40969
219 1 -1.1104 15.9994 4.05425 -0.781255 9.55608
220 1 -1.1104 15.9994 1.22172 1.9185 6.78544
221 1 -1.1104 15.9994 4.13001 2.02382 6.79993
222 1 -1.1104 15.9994 1.30093 1.74679 9.59603
223 1 -1.1104 15.9994 4.40002 2.10579 9.69339
224 1 -1.1104 15.9994 7.0616 -0.824165 6.91415
225 1 -1.1104 15.9994 9.63799 -0.936991 6.82896
226 1 -1.1104 15.9994 7.08498 -0.937619 9.80759
227 1 -1.1104 15.9994 9.81933 -0.859305 9.79736
228 1 -1.1104 15.9994 6.89042 2.02854 6.90363
229 1 -1.1104 15.9994 9.63115 1.93337 6.90831
230 1 -1.1104 15.9994 7.05027 1.95233 9.807
231 1 -1.1104 15.9994 9.59905 1.78004 9.62871
232 1 -1.1104 15.9994 12.4229 -1.01971 6.96868
233 1 -1.1104 15.9994 12.6176 -0.87921 9.72161
234 1 -1.1104 15.9994 12.595 1.95564 6.75093
235 1 -1.1104 15.9994 12.7297 2.04592 9.68672
236 1 -1.1104 15.9994 1.32515 4.73233 7.22041
237 1 -1.1104 15.9994 4.15618 4.75846 6.78907
238 1 -1.1104 15.9994 1.36323 4.66465 9.75706
239 1 -1.1104 15.9994 4.39135 4.71509 9.67719
240 1 -1.1104 15.9994 1.31653 7.55815 7.06038
241 1 -1.1104 15.9994 4.27686 7.65389 7.06124
242 1 -1.1104 15.9994 1.37578 7.75193 9.82523
243 1 -1.1104 15.9994 4.3567 7.4634 9.84508
244 1 -1.1104 15.9994 6.99862 4.69368 6.83504
245 1 -1.1104 15.9994 10.1457 4.70729 7.01013
246 1 -1.1104 15.9994 7.04909 4.9557 9.7916
247 1 -1.1104 15.9994 9.78338 4.92449 9.65515
248 1 -1.1104 15.9994 6.94467 7.65175 6.92342
249 1 -1.1104 15.9994 9.78497 7.49724 6.81861
250 1 -1.1104 15.9994 7.08061 7.77489 9.90751
251 1 -1.1104 15.9994 9.70958 7.70623 9.83449
252 1 -1.1104 15.9994 12.7623 4.81842 6.80871
253 1 -1.1104 15.9994 12.5963 4.87154 9.54827
254 1 -1.1104 15.9994 12.6602 7.62151 6.91187
255 1 -1.1104 15.9994 12.4029 7.53721 9.70434
256 1 -1.1104 15.9994 1.05807 10.7059 7.05288
257 1 -1.1104 15.9994 3.8804 10.5888 6.90399
258 1 -1.1104 15.9994 1.29771 10.5092 9.8273
259 1 -1.1104 15.9994 4.13534 10.3136 9.78531
260 1 -1.1104 15.9994 1.34325 13.4066 7.28206
261 1 -1.1104 15.9994 4.29103 13.2209 7.02263
262 1 -1.1104 15.9994 1.20833 13.395 9.96143
263 1 -1.1104 15.9994 3.99813 13.3191 9.93209
264 1 -1.1104 15.9994 6.76418 10.5526 6.97896
265 1 -1.1104 15.9994 9.66446 10.3111 7.09558
266 1 -1.1104 15.9994 6.94569 10.3637 9.71243
267 1 -1.1104 15.9994 9.93238 10.6925 9.6928
268 1 -1.1104 15.9994 7.00934 13.3997 6.6322
269 1 -1.1104 15.9994 9.81536 13.1147 6.56863
270 1 -1.1104 15.9994 7.08713 13.3558 9.48813
271 1 -1.1104 15.9994 9.89593 13.4252 9.49949
272 1 -1.1104 15.9994 12.5642 10.4239 6.74857
273 1 -1.1104 15.9994 12.4388 10.4064 9.56874
274 1 -1.1104 15.9994 12.7069 13.1691 6.87952
275 1 -1.1104 15.9994 12.6386 13.1932 9.80925
276 1 -1.1104 15.9994 1.30606 16.0858 6.74932
277 1 -1.1104 15.9994 4.00746 16.0522 7.17544
278 1 -1.1104 15.9994 1.34835 16.1833 9.5713
279 1 -1.1104 15.9994 4.15005 16.2508 9.92312
280 1 -1.1104 15.9994 1.21741 18.9941 6.84998
281 1 -1.1104 15.9994 3.84965 18.828 6.70826
282 1 -1.1104 15.9994 1.3056 19.0946 9.62676
283 1 -1.1104 15.9994 4.27267 19.023 9.49606
284 1 -1.1104 15.9994 6.8755 16.1266 6.87129
285 1 -1.1104 15.9994 9.72955 16.0009 7.01986
286 1 -1.1104 15.9994 6.83674 16.0617 9.53878
287 1 -1.1104 15.9994 9.54244 16.1944 9.76726
288 1 -1.1104 15.9994 6.67392 18.8876 6.6631
289 1 -1.1104 15.9994 9.70781 18.8609 6.6823
290 1 -1.1104 15.9994 7.03024 18.9127 9.45485
291 1 -1.1104 15.9994 9.77521 19.2338 9.51216
292 1 -1.1104 15.9994 12.5493 16.1114 6.85015
293 1 -1.1104 15.9994 12.2829 15.897 9.51836
294 1 -1.1104 15.9994 12.5085 18.9365 7.00931
295 1 -1.1104 15.9994 12.4265 18.6545 9.76581
296 1 -1.1104 15.9994 1.15314 21.9056 6.98863
297 1 -1.1104 15.9994 4.09047 21.8726 6.70239
298 1 -1.1104 15.9994 1.29207 21.8626 10.0425
299 1 -1.1104 15.9994 3.89988 21.8068 9.52194
300 1 -1.1104 15.9994 6.90519 21.5387 6.65049
301 1 -1.1104 15.9994 9.58777 21.7686 6.8947
302 1 -1.1104 15.9994 6.77477 21.7984 9.45067
303 1 -1.1104 15.9994 9.55636 21.8564 9.69387
304 1 -1.1104 15.9994 12.2498 21.6575 6.785
305 1 -1.1104 15.9994 12.4763 21.896 9.68973
306 1 -1.1104 15.9994 1.13194 -0.635526 12.1474
307 1 -1.1104 15.9994 4.31069 -1.04178 12.6225
308 1 -1.1104 15.9994 1.34729 1.9707 12.5275
309 1 -1.1104 15.9994 4.26778 1.75671 12.4104
310 1 -1.1104 15.9994 7.1296 -0.604084 12.4948
311 1 -1.1104 15.9994 9.89157 -0.931878 12.6322
312 1 -1.1104 15.9994 6.94401 1.95816 12.4868
313 1 -1.1104 15.9994 9.82545 1.85685 12.5011
314 1 -1.1104 15.9994 12.7418 -0.831736 12.4206
315 1 -1.1104 15.9994 12.7884 1.91353 12.4722
316 1 -1.1104 15.9994 1.29025 4.91604 12.4984
349 2 2.2208 232.038 5.50434 23.1087 13.7799
8983 2 2.2208 232.038 -0.116018 9.22169 11.1012
1 2 2.2208 232.038 13.8024 23.1457 5.36012
331 2 2.2208 232.038 2.8666 3.60946 13.913
6 2 2.2208 232.038 13.8393 17.4716 5.43993
12 2 2.2208 232.038 13.8111 20.3956 2.68644
8993 2 2.2208 232.038 -0.125749 9.21323 5.69799
2 2 2.2208 232.038 13.6392 20.3183 8.39176
15 2 2.2208 232.038 13.8586 14.5601 2.50168
25 2 2.2208 232.038 5.4944 9.0739 -0.0236164
8994 2 2.2208 232.038 -0.0816229 6.1605 8.43611
81 2 2.2208 232.038 -0.131138 14.6805 5.28581
8987 2 2.2208 232.038 -0.0769823 -2.1691 11.1854
9096 2 2.2208 232.038 13.7257 17.4622 11.0148
334 2 2.2208 232.038 5.49757 6.20946 13.9129
9664 2 2.2208 232.038 -0.167635 17.4916 13.7398
34 2 2.2208 232.038 -0.060367 17.5698 2.50238
666 2 2.2208 232.038 2.64763 11.9246 -0.00388086
8984 2 2.2208 232.038 -0.0269551 3.24888 11.1194
328 2 2.2208 232.038 8.59075 -2.20597 13.9437
659 2 2.2208 232.038 2.72416 0.522258 0.0318805
340 2 2.2208 232.038 11.1374 11.8256 13.8694
9052 2 2.2208 232.038 13.8984 9.0247 8.15822
339 2 2.2208 232.038 5.52653 11.856 13.9034
19 2 2.2208 232.038 11.2006 3.38921 -0.0761163
676 2 2.2208 232.038 8.297 23.2785 -0.0747182
329 2 2.2208 232.038 5.55705 0.551318 13.9014
662 2 2.2208 232.038 11.2386 -2.18238 28.0034
327 1 -1.1104 15.9994 6.85493 21.8374 26.6946
16 2 2.2208 232.038 8.37732 6.30964 28.0865
9688 2 2.2208 232.038 -0.0817295 9.01025 28.0994
671 2 2.2208 232.038 8.00377 17.5939 27.9748
444 2 2.2208 232.038 -0.027979 23.2461 25.0833
332 1 -1.1104 15.9994 9.79385 21.7739 23.873
9334 2 2.2208 232.038 13.8439 20.3001 13.958
405 2 2.2208 232.038 5.62121 -2.08634 22.2582
9359 2 2.2208 232.038 13.8312 11.9263 16.7631
359 2 2.2208 232.038 11.0975 -2.17837 16.5624
337 1 -1.1104 15.9994 7.10681 21.9177 23.7569
677 1 -1.1104 15.9994 9.78887 13.2841 26.7511
384 2 2.2208 232.038 -0.105986 17.3859 19.6207
9667 2 2.2208 232.038 -0.0425784 3.48151 16.8052
346 2 2.2208 232.038 2.57363 20.2678 14.0964
342 1 -1.1104 15.9994 3.94406 21.755 26.6248
675 2 2.2208 232.038 5.21898 20.4034 27.9908
9674 2 2.2208 232.038 -0.062333 6.24127 25.3325
9419 2 2.2208 232.038 13.8232 17.614 22.5249
9666 2 2.2208 232.038 -0.136459 0.573011 19.6489
9591 1 -1.1104 15.9994 1.27494 2.05347 23.7874
347 2 2.2208 232.038 0.11268 23.0155 14.1484
9671 2 2.2208 232.038 0.0506628 -2.23151 22.4787
660 2 2.2208 232.038 5.49883 -2.23482 27.8957
351 1 -1.1104 15.9994 1.30099 21.6841 26.2469
352 2 2.2208 232.038 2.54955 0.695582 16.6039
357 2 2.2208 232.038 8.43915 -2.14532 19.6888
354 1 -1.1104 15.9994 4.4035 21.4755 24.0243
9409 2 2.2208 232.038 13.9484 11.9259 22.3476
356 2 2.2208 232.038 8.50176 0.507731 16.8724
9369 2 2.2208 232.038 13.9318 17.4281 16.7395
358 2 2.2208 232.038 5.47284 0.587109 19.433
9676 2 2.2208 232.038 -0.10546 11.6556 25.1908
360 2 2.2208 232.038 11.41 0.506854 19.5786
361 1 -1.1104 15.9994 1.16103 21.7734 23.5511
362 2 2.2208 232.038 2.72813 6.18518 16.761
363 2 2.2208 232.038 2.75693 3.37977 19.6554
364 1 -1.1104 15.9994 12.4459 19.0509 26.6288
365 2 2.2208 232.038 5.50991 3.50981 16.7052
366 2 2.2208 232.038 8.2577 6.21118 16.8702
367 2 2.2208 232.038 8.43314 3.33198 19.6789
368 2 2.2208 232.038 5.45942 6.25683 19.7055
369 2 2.2208 232.038 11.1732 3.53791 16.8356
370 2 2.2208 232.038 11.0305 6.21164 19.6695
371 1 -1.1104 15.9994 12.4606 18.9059 23.8595
372 2 2.2208 232.038 2.74061 11.9735 16.8295
373 2 2.2208 232.038 2.47279 9.17031 19.7894
650 1 -1.1104 15.9994 3.91881 18.8173 23.618
375 2 2.2208 232.038 5.44872 9.2012 16.9255
376 2 2.2208 232.038 8.14889 11.9936 16.6565
377 2 2.2208 232.038 8.22862 9.11112 19.6892
378 2 2.2208 232.038 5.44034 11.9585 19.5589
379 2 2.2208 232.038 10.8614 9.12464 16.7894
380 2 2.2208 232.038 10.8726 11.9723 19.5189
381 1 -1.1104 15.9994 12.4528 16.1417 26.543
382 2 2.2208 232.038 2.66423 17.3921 16.806
383 2 2.2208 232.038 2.6665 14.625 19.731
674 2 2.2208 232.038 2.62621 23.3321 28.0211
385 2 2.2208 232.038 5.46884 14.7723 16.8547
386 2 2.2208 232.038 8.2091 17.6674 16.849
387 2 2.2208 232.038 8.33479 14.7824 19.5026
388 2 2.2208 232.038 5.38721 17.3707 19.5005
389 2 2.2208 232.038 11.2875 14.84 16.6055
390 2 2.2208 232.038 11.2149 17.3699 19.5982
391 1 -1.1104 15.9994 12.5331 21.8059 26.7317
392 2 2.2208 232.038 2.86278 23.2419 16.6712
393 2 2.2208 232.038 2.78499 20.2627 19.5051
655 1 -1.1104 15.9994 9.36854 16.4195 23.9015
395 2 2.2208 232.038 5.37765 20.159 16.7417
396 2 2.2208 232.038 8.30689 23.2341 16.6528
397 2 2.2208 232.038 8.17273 20.5142 19.612
398 2 2.2208 232.038 5.64903 23.2888 19.5616
399 2 2.2208 232.038 11.1412 20.1445 16.8035
400 2 2.2208 232.038 11.2592 23.1914 19.6105
401 1 -1.1104 15.9994 12.2805 16.3124 23.6029
402 2 2.2208 232.038 2.64886 0.84614 22.3997
9324 2 2.2208 232.038 13.8925 8.95726 13.9471
404 1 -1.1104 15.9994 9.61929 18.9072 26.3709
353 2 2.2208 232.038 2.86989 -2.21086 19.6076
406 2 2.2208 232.038 8.61483 0.682169 22.2743
654 1 -1.1104 15.9994 6.90143 16.1761 23.8233
408 2 2.2208 232.038 5.62598 0.667842 25.0616
656 1 -1.1104 15.9994 6.71321 15.9783 26.5838
410 2 2.2208 232.038 11.1609 0.443806 25.1405
411 1 -1.1104 15.9994 6.64929 18.879 26.445
412 2 2.2208 232.038 2.73108 6.05217 22.5323
413 2 2.2208 232.038 2.71238 3.32934 25.2693
414 1 -1.1104 15.9994 9.68721 18.9574 23.583
415 2 2.2208 232.038 5.63657 3.33849 22.4552
416 2 2.2208 232.038 8.36532 6.36199 22.5096
417 2 2.2208 232.038 8.55705 3.32327 25.3566
418 2 2.2208 232.038 5.63936 6.2569 25.2221
419 2 2.2208 232.038 11.2194 3.32694 22.5895
420 2 2.2208 232.038 11.3769 6.19426 25.3901
421 1 -1.1104 15.9994 6.87329 19.1655 23.5235
422 2 2.2208 232.038 2.55118 11.6043 22.463
423 2 2.2208 232.038 2.7156 8.86339 25.2462
424 1 -1.1104 15.9994 9.52695 16.166 26.5508
425 2 2.2208 232.038 5.60525 9.1173 22.5314
426 2 2.2208 232.038 8.279 11.8948 22.4936
427 2 2.2208 232.038 8.44894 9.03959 25.4323
428 2 2.2208 232.038 5.45509 11.8647 25.1829
429 2 2.2208 232.038 11.0857 9.08623 22.5583
430 2 2.2208 232.038 11.1859 11.9459 25.2414
652 1 -1.1104 15.9994 1.12875 18.8758 26.7145
432 2 2.2208 232.038 2.66174 17.37 22.3618
433 2 2.2208 232.038 2.53341 14.6526 25.2447
651 1 -1.1104 15.9994 3.9023 18.9762 26.5562
435 2 2.2208 232.038 5.44271 14.6117 22.401
436 2 2.2208 232.038 8.27398 17.6545 22.2825
437 2 2.2208 232.038 8.22986 14.8863 25.119
438 2 2.2208 232.038 5.17997 17.6454 25.0816
439 2 2.2208 232.038 11.0171 14.7633 22.3827
440 2 2.2208 232.038 11.0947 17.6796 25.1808
661 2 2.2208 232.038 8.50581 0.560834 28.042
442 1 -1.1104 15.9994 12.6301 21.9885 24.0473
443 2 2.2208 232.038 2.60632 20.4599 24.8473
649 1 -1.1104 15.9994 4.00601 16.2154 26.6808
445 2 2.2208 232.038 5.53453 20.6056 22.4238
446 2 2.2208 232.038 8.59074 23.09 22.359
447 2 2.2208 232.038 8.19755 20.335 25.1121
448 2 2.2208 232.038 5.60214 23.1867 25.1111
449 2 2.2208 232.038 11.036 20.278 22.3681
450 2 2.2208 232.038 11.0516 23.196 25.3238
451 1 -1.1104 15.9994 1.39706 -0.730654 14.9124
452 1 -1.1104 15.9994 3.99895 -0.698576 15.1805
453 1 -1.1104 15.9994 1.39196 2.13598 15.2121
454 1 -1.1104 15.9994 4.2035 2.01111 15.3142
455 1 -1.1104 15.9994 6.91742 -0.841587 15.468
456 1 -1.1104 15.9994 9.76998 -0.893185 15.373
457 1 -1.1104 15.9994 6.97452 1.8135 15.6065
458 1 -1.1104 15.9994 9.75346 2.0452 15.4922
459 1 -1.1104 15.9994 12.8035 -0.701699 15.1145
460 1 -1.1104 15.9994 12.4824 1.86057 15.4371
461 1 -1.1104 15.9994 1.50849 4.77485 15.4712
462 1 -1.1104 15.9994 4.16211 4.84838 15.3942
463 1 -1.1104 15.9994 1.24337 7.52606 15.2919
464 1 -1.1104 15.9994 3.79689 7.75211 15.4951
465 1 -1.1104 15.9994 6.84811 4.77481 15.4272
466 1 -1.1104 15.9994 9.79903 4.72116 15.3089
467 1 -1.1104 15.9994 6.62741 7.65685 15.4076
468 1 -1.1104 15.9994 9.52083 7.63052 15.5059
469 1 -1.1104 15.9994 12.5569 4.53044 15.1571
470 1 -1.1104 15.9994 12.5997 7.31666 15.2174
471 1 -1.1104 15.9994 0.996418 10.327 15.4746
472 1 -1.1104 15.9994 4.1054 10.5591 15.465
473 1 -1.1104 15.9994 1.25859 13.1187 15.44
474 1 -1.1104 15.9994 3.97128 13.1807 15.4383
475 1 -1.1104 15.9994 6.77549 10.4753 15.3864
476 1 -1.1104 15.9994 9.56963 10.4713 15.3893
477 1 -1.1104 15.9994 6.80735 13.3212 15.267
478 1 -1.1104 15.9994 9.73431 13.3956 15.1662
479 1 -1.1104 15.9994 12.3101 10.2724 15.5221
480 1 -1.1104 15.9994 12.7489 13.3415 15.3686
481 1 -1.1104 15.9994 1.48434 15.8063 15.7393
482 1 -1.1104 15.9994 4.0971 16.062 15.3964
483 1 -1.1104 15.9994 1.69697 18.2776 14.9575
484 1 -1.1104 15.9994 4.13241 19.0854 15.4162
485 1 -1.1104 15.9994 6.78925 16.0822 15.3953
486 1 -1.1104 15.9994 9.5488 16.2038 15.4333
487 1 -1.1104 15.9994 6.80517 19.0915 15.2199
488 1 -1.1104 15.9994 9.65483 18.9963 15.481
489 1 -1.1104 15.9994 12.761 16.0199 15.2231
490 1 -1.1104 15.9994 12.46 18.7404 15.4794
491 1 -1.1104 15.9994 1.50266 21.7965 15.4196
492 1 -1.1104 15.9994 4.21549 21.7733 15.4163
493 1 -1.1104 15.9994 6.93571 21.791 15.1828
494 1 -1.1104 15.9994 9.79637 21.8572 15.5344
495 1 -1.1104 15.9994 12.5702 21.6909 15.2187
496 1 -1.1104 15.9994 1.25964 -0.958377 17.7561
497 1 -1.1104 15.9994 4.2301 -1.01309 18.193
498 1 -1.1104 15.9994 1.45746 -0.712718 20.7808
499 1 -1.1104 15.9994 4.24599 -0.571507 20.9679
500 1 -1.1104 15.9994 1.25571 1.81346 18.0933
501 1 -1.1104 15.9994 4.21641 2.13996 18.0905
502 1 -1.1104 15.9994 1.38579 1.98892 20.8892
503 1 -1.1104 15.9994 4.07219 2.10053 21.0022
504 1 -1.1104 15.9994 7.09817 -0.90382 18.1641
505 1 -1.1104 15.9994 9.71477 -0.716175 18.166
506 1 -1.1104 15.9994 6.90113 -0.746264 20.7429
507 1 -1.1104 15.9994 9.99299 -0.84173 21.0499
508 1 -1.1104 15.9994 6.93674 2.00792 18.2854
509 1 -1.1104 15.9994 9.59743 2.09131 18.0817
510 1 -1.1104 15.9994 6.98504 1.67772 21.028
511 1 -1.1104 15.9994 9.7665 1.96071 20.9523
512 1 -1.1104 15.9994 12.568 -0.727146 18.1903
513 1 -1.1104 15.9994 12.693 -0.951653 21.1053
514 1 -1.1104 15.9994 12.513 2.13975 18.0133
515 1 -1.1104 15.9994 12.5243 2.07908 21.0279
516 1 -1.1104 15.9994 1.28489 4.73348 18.3918
517 1 -1.1104 15.9994 4.22533 4.85953 18.1461
518 1 -1.1104 15.9994 1.37189 4.74731 21.1158
519 1 -1.1104 15.9994 4.00887 4.73484 21.0942
520 1 -1.1104 15.9994 1.28985 7.79529 18.2153
521 1 -1.1104 15.9994 4.03271 7.82938 18.3501
522 1 -1.1104 15.9994 1.31433 7.5865 21.1405
523 1 -1.1104 15.9994 3.86459 7.8647 21.1699
524 1 -1.1104 15.9994 6.89069 4.64575 18.1463
525 1 -1.1104 15.9994 9.66 4.8122 18.2181
526 1 -1.1104 15.9994 7.04339 4.9973 20.9467
527 1 -1.1104 15.9994 9.74356 4.78709 21.0051
528 1 -1.1104 15.9994 6.80175 7.5964 18.1943
529 1 -1.1104 15.9994 9.61167 7.78639 18.255
530 1 -1.1104 15.9994 6.80678 7.73037 21.0964
531 1 -1.1104 15.9994 9.79461 7.61507 21.0395
532 1 -1.1104 15.9994 12.4895 5.00383 18.3505
533 1 -1.1104 15.9994 12.5532 4.66455 21.2106
534 1 -1.1104 15.9994 12.5925 7.62364 18.1919
535 1 -1.1104 15.9994 12.6737 7.58852 21.1953
536 1 -1.1104 15.9994 1.21386 10.516 18.4993
537 1 -1.1104 15.9994 4.03724 10.5798 18.3976
538 1 -1.1104 15.9994 1.10326 10.5386 21.1636
539 1 -1.1104 15.9994 4.04126 10.4795 21.2346
540 1 -1.1104 15.9994 1.2513 13.2523 18.3416
541 1 -1.1104 15.9994 4.08678 13.2881 18.1515
542 1 -1.1104 15.9994 1.19009 13.2451 21.1306
543 1 -1.1104 15.9994 4.0853 13.1762 21.2403
544 1 -1.1104 15.9994 6.85726 10.2596 18.3482
545 1 -1.1104 15.9994 9.60997 10.6562 18.1019
546 1 -1.1104 15.9994 7.02569 10.829 21.0568
547 1 -1.1104 15.9994 9.80115 10.545 21.0109
548 1 -1.1104 15.9994 6.78393 13.3184 17.9398
549 1 -1.1104 15.9994 9.71112 13.4323 17.9442
550 1 -1.1104 15.9994 6.79118 13.3738 20.779
551 1 -1.1104 15.9994 9.60166 13.3653 20.8707
552 1 -1.1104 15.9994 12.4865 10.5484 18.2916
553 1 -1.1104 15.9994 12.5682 10.362 21.1836
554 1 -1.1104 15.9994 12.4206 13.3228 18.2165
555 1 -1.1104 15.9994 12.4897 13.3578 21.0064
556 1 -1.1104 15.9994 1.1948 15.8546 18.3072
557 1 -1.1104 15.9994 3.92911 15.908 18.1705
558 1 -1.1104 15.9994 1.36609 15.8356 20.9341
559 1 -1.1104 15.9994 4.13451 15.9012 20.8851
560 1 -1.1104 15.9994 1.20684 18.744 18.0799
561 1 -1.1104 15.9994 4.14455 18.7401 18.2938
562 1 -1.1104 15.9994 1.13809 18.8526 23.8105
563 1 -1.1104 15.9994 4.17237 18.5989 21.0011
564 1 -1.1104 15.9994 6.68931 16.3264 17.9912
565 1 -1.1104 15.9994 9.70368 16.1507 18.2735
566 1 -1.1104 15.9994 6.99764 16.1224 20.7851
567 1 -1.1104 15.9994 9.81284 16.2319 21.1548
568 1 -1.1104 15.9994 6.97005 19.0575 18.0613
569 1 -1.1104 15.9994 9.68598 18.7081 18.1463
570 1 -1.1104 15.9994 6.91363 19.0614 20.8287
571 1 -1.1104 15.9994 9.75761 18.9092 20.7929
572 1 -1.1104 15.9994 12.6217 16.0252 18.0633
573 1 -1.1104 15.9994 12.4916 16.0998 20.9843
574 1 -1.1104 15.9994 12.5609 18.5992 18.0522
575 1 -1.1104 15.9994 12.5145 19.0052 20.8557
576 1 -1.1104 15.9994 1.01485 21.4739 20.236
577 1 -1.1104 15.9994 4.09026 21.7484 17.9471
578 1 -1.1104 15.9994 1.63706 18.7615 20.9288
579 1 -1.1104 15.9994 4.52715 21.387 20.6844
580 1 -1.1104 15.9994 6.93571 22.0221 18.1568
581 1 -1.1104 15.9994 9.94667 21.7406 18.3491
582 1 -1.1104 15.9994 7.08173 22.0835 20.8635
583 1 -1.1104 15.9994 9.8695 21.6342 21.0532
584 1 -1.1104 15.9994 12.7363 21.7457 17.9193
585 1 -1.1104 15.9994 12.6023 21.8163 21.0124
648 1 -1.1104 15.9994 1.25922 15.8493 26.784
587 1 -1.1104 15.9994 4.40734 -0.842861 23.9575
588 1 -1.1104 15.9994 1.35483 -0.93466 26.5105
589 1 -1.1104 15.9994 4.25262 -0.637093 26.5365
590 1 -1.1104 15.9994 1.43441 -0.879397 23.6721
591 1 -1.1104 15.9994 4.1313 1.77148 23.849
592 1 -1.1104 15.9994 1.24976 2.16937 26.6999
593 1 -1.1104 15.9994 4.0376 1.98373 26.4804
594 1 -1.1104 15.9994 7.25232 -0.642636 23.683
595 1 -1.1104 15.9994 9.93434 -0.951425 23.6846
596 1 -1.1104 15.9994 7.05604 -0.838163 26.6119
597 1 -1.1104 15.9994 9.76073 -1.01079 26.5408
598 1 -1.1104 15.9994 7.19184 2.13664 23.7133
599 1 -1.1104 15.9994 9.88293 2.16345 23.8251
600 1 -1.1104 15.9994 7.18786 2.0042 26.5672
601 1 -1.1104 15.9994 9.73861 1.97123 26.7661
602 1 -1.1104 15.9994 12.7048 -0.955447 23.9243
603 1 -1.1104 15.9994 12.6609 -0.793649 26.6228
604 1 -1.1104 15.9994 12.7129 1.59282 23.716
605 1 -1.1104 15.9994 12.4539 1.84978 26.597
606 1 -1.1104 15.9994 1.14829 4.57836 23.719
607 1 -1.1104 15.9994 3.94111 4.54058 23.7267
608 1 -1.1104 15.9994 1.4474 4.93088 26.6055
609 1 -1.1104 15.9994 4.22913 4.70754 26.5839
610 1 -1.1104 15.9994 1.36296 7.45075 23.9372
611 1 -1.1104 15.9994 4.11253 7.41979 23.9237
612 1 -1.1104 15.9994 1.37851 7.70628 26.7708
613 1 -1.1104 15.9994 4.24798 7.70079 26.7279
614 1 -1.1104 15.9994 6.93876 5.00349 23.8491
615 1 -1.1104 15.9994 9.85259 4.92757 23.8333
616 1 -1.1104 15.9994 7.07968 4.87039 26.729
617 1 -1.1104 15.9994 9.80284 4.76893 26.55
618 1 -1.1104 15.9994 6.99212 7.64583 23.7772
619 1 -1.1104 15.9994 9.74436 7.93255 23.8573
620 1 -1.1104 15.9994 7.05942 7.58725 26.7685
621 1 -1.1104 15.9994 9.93879 7.58472 26.6451
622 1 -1.1104 15.9994 12.4107 4.55075 24.034
623 1 -1.1104 15.9994 12.6673 4.59344 26.8428
624 1 -1.1104 15.9994 12.6372 7.61864 23.9279
625 1 -1.1104 15.9994 12.671 7.49415 26.8807
626 1 -1.1104 15.9994 1.22742 10.3719 23.8525
627 1 -1.1104 15.9994 3.98675 10.1094 23.8505
628 1 -1.1104 15.9994 1.38341 10.5391 26.7256
629 1 -1.1104 15.9994 3.91473 10.4972 26.7071
630 1 -1.1104 15.9994 1.25292 13.129 24.0227
631 1 -1.1104 15.9994 3.88785 13.0607 23.9421
632 1 -1.1104 15.9994 1.21534 13.3053 26.6679
633 1 -1.1104 15.9994 4.11636 13.3394 26.7626