ITEM: TIMESTEP
500000
ITEM: NUMBER OF ATOMS
18000
ITEM: BOX BOUNDS xy xz yz pp pp pp
-1.9293011613789171e-01 2.8086930116138863e+01 0.0000000000000000e+00
-2.0019738603836927e+00 3.3672997386041146e+02 0.0000000000000000e+00
-1.8135240136198283e-01 2.8075352401360675e+01 0.0000000000000000e+00
ITEM: ATOMS id type q mass x y z
334 2 2.2208 232.038 5.44798 6.41358 13.8751
324 1 -1.1104 15.9994 12.4455 5.19687 12.2449
344 2 2.2208 232.038 5.62506 17.7162 13.8243
4 1 -1.1104 15.9994 12.428 22.0928 12.4447
323 1 -1.1104 15.9994 9.65924 7.66926 12.3301
322 1 -1.1104 15.9994 6.83033 7.74108 12.4409
329 2 2.2208 232.038 5.62918 0.727426 13.788
8 2 2.2208 232.038 5.51732 0.925784 2.67326
9 1 -1.1104 15.9994 12.6197 7.89662 12.3968
10 2 2.2208 232.038 11.1673 0.850564 2.64807
11 1 -1.1104 15.9994 9.60069 22.1268 12.5127
321 1 -1.1104 15.9994 9.60756 5.01662 12.647
13 2 2.2208 232.038 2.61427 3.61229 2.59917
14 1 -1.1104 15.9994 6.89421 21.9781 12.514
9003 2 2.2208 232.038 -0.199016 -1.89239 5.25373
2 2 2.2208 232.038 13.909 20.5225 8.35518
17 2 2.2208 232.038 8.49499 3.78993 2.52012
18 2 2.2208 232.038 5.53674 6.44313 2.61112
3 2 2.2208 232.038 2.50388 -1.94873 2.43474
20 2 2.2208 232.038 11.3433 6.462 2.36141
21 1 -1.1104 15.9994 4.11577 22.0312 12.411
22 1 -1.1104 15.9994 1.25534 16.195 12.6048
23 2 2.2208 232.038 2.60178 9.28575 2.41553
320 1 -1.1104 15.9994 6.92296 5.0666 12.4356
328 2 2.2208 232.038 8.27741 -1.92771 13.8949
345 2 2.2208 232.038 11.1617 17.6694 13.905
27 2 2.2208 232.038 8.30854 9.16666 2.62747
28 2 2.2208 232.038 5.43848 12.1035 2.57125
330 2 2.2208 232.038 11.112 0.964768 13.8096
30 2 2.2208 232.038 10.9433 12.1251 2.59464
31 1 -1.1104 15.9994 12.5647 13.6933 12.483
32 1 -1.1104 15.9994 12.4782 10.7305 12.4196
33 2 2.2208 232.038 2.7192 15.0158 2.78559
319 1 -1.1104 15.9994 4.04992 7.92709 12.4817
35 1 -1.1104 15.9994 9.6869 13.3624 12.3661
36 1 -1.1104 15.9994 6.93201 13.4971 12.296
37 2 2.2208 232.038 8.20452 14.8469 2.57693
38 2 2.2208 232.038 5.40288 17.8384 2.54655
39 1 -1.1104 15.9994 9.74809 10.4674 12.4219
40 2 2.2208 232.038 11.0061 17.6133 2.52339
41 1 -1.1104 15.9994 6.78066 10.5849 12.4673
42 1 -1.1104 15.9994 4.17528 13.6907 12.2779
43 2 2.2208 232.038 2.67309 20.5199 2.55417
318 1 -1.1104 15.9994 1.13499 7.91379 11.9772
45 1 -1.1104 15.9994 1.40227 13.3013 12.3958
46 1 -1.1104 15.9994 3.88649 11.0776 12.6217
47 2 2.2208 232.038 8.21008 20.3858 2.38404
48 2 2.2208 232.038 5.31846 23.2919 2.57022
49 1 -1.1104 15.9994 1.17642 10.5262 12.4397
50 2 2.2208 232.038 10.9685 23.3247 2.51855
51 1 -1.1104 15.9994 1.18911 21.8665 12.3492
52 2 2.2208 232.038 2.64056 0.84594 5.39518
15 2 2.2208 232.038 13.7689 15.0861 2.5318
54 1 -1.1104 15.9994 12.7516 19.1291 12.4937
346 2 2.2208 232.038 2.60282 20.5061 13.8591
56 2 2.2208 232.038 8.26902 0.803457 5.26611
333 2 2.2208 232.038 8.10942 3.68946 13.9111
58 2 2.2208 232.038 5.41026 0.830585 8.1564
331 2 2.2208 232.038 2.65684 3.75232 13.6895
60 2 2.2208 232.038 11.1943 0.976898 8.00471
61 1 -1.1104 15.9994 12.473 16.2643 12.4891
62 2 2.2208 232.038 2.62057 6.49465 5.25935
63 2 2.2208 232.038 2.53586 3.54868 8.14518
64 1 -1.1104 15.9994 9.84673 19.1641 12.5669
65 2 2.2208 232.038 5.45264 3.6698 5.52637
66 2 2.2208 232.038 8.44164 6.43383 5.36441
67 2 2.2208 232.038 8.35001 3.62329 8.12135
68 2 2.2208 232.038 5.58951 6.54663 8.2172
69 2 2.2208 232.038 11.272 3.69957 5.33709
70 2 2.2208 232.038 11.2836 6.5255 8.09493
71 1 -1.1104 15.9994 6.94605 19.2387 12.189
72 2 2.2208 232.038 2.59895 12.0056 5.25549
73 2 2.2208 232.038 2.60536 9.17918 7.97003
74 1 -1.1104 15.9994 9.49156 16.572 12.4565
75 2 2.2208 232.038 5.52388 9.2159 5.2904
76 2 2.2208 232.038 8.31331 12.1175 5.25223
77 2 2.2208 232.038 8.42033 9.27364 8.09401
78 2 2.2208 232.038 5.55748 12.119 8.1618
79 2 2.2208 232.038 11.2202 9.19127 5.18655
80 2 2.2208 232.038 11.2409 11.9184 7.9591
317 1 -1.1104 15.9994 4.18045 5.24836 12.6009
82 2 2.2208 232.038 2.65972 17.861 5.32434
83 2 2.2208 232.038 2.64858 15.0397 8.18806
653 1 -1.1104 15.9994 3.81295 19.1781 0.990449
85 2 2.2208 232.038 5.43987 14.9757 5.40018
86 2 2.2208 232.038 8.33141 17.6543 5.43091
87 2 2.2208 232.038 8.23573 14.8032 8.11868
88 2 2.2208 232.038 5.56126 17.545 8.08864
89 2 2.2208 232.038 11.0526 14.83 5.32351
90 2 2.2208 232.038 11.1325 17.8547 8.13146
343 2 2.2208 232.038 8.32681 14.8335 13.6939
92 2 2.2208 232.038 2.65529 23.3312 5.39527
93 2 2.2208 232.038 2.54649 20.6273 8.18222
84 2 2.2208 232.038 -0.104715 17.7387 8.22408
95 2 2.2208 232.038 5.36564 20.2909 5.3409
96 2 2.2208 232.038 8.03142 23.1896 5.23758
97 2 2.2208 232.038 8.01039 20.7675 8.15864
98 2 2.2208 232.038 5.35745 23.5473 8.07192
99 2 2.2208 232.038 11.1865 20.6299 5.45413
100 2 2.2208 232.038 10.9021 23.1295 8.31892
101 1 -1.1104 15.9994 6.9383 16.3012 12.3339
102 2 2.2208 232.038 2.57687 0.891242 11.0437
338 2 2.2208 232.038 8.22403 9.11788 13.8889
104 2 2.2208 232.038 8.37949 1.05465 10.8319
105 2 2.2208 232.038 11.022 -1.88748 11.0802
106 1 -1.1104 15.9994 4.05335 19.3913 12.313
107 2 2.2208 232.038 2.66673 6.35158 10.9411
108 2 2.2208 232.038 5.47676 3.7295 10.8964
109 2 2.2208 232.038 8.36312 6.58518 10.9229
110 2 2.2208 232.038 11.1423 3.7484 10.9038
111 1 -1.1104 15.9994 1.28936 19.0911 12.6465
112 2 2.2208 232.038 2.69713 12.0992 10.9084
113 2 2.2208 232.038 5.67425 9.17697 10.9986
114 2 2.2208 232.038 8.37777 12.0222 11.0998
115 2 2.2208 232.038 11.2436 9.20551 10.9364
116 1 -1.1104 15.9994 4.21982 16.6289 12.2639
117 2 2.2208 232.038 2.65552 17.7475 11.1231
118 2 2.2208 232.038 5.37116 14.9382 10.9138
119 2 2.2208 232.038 8.16113 17.5975 10.8913
120 2 2.2208 232.038 11.0378 14.9332 11.0387
7 2 2.2208 232.038 8.43743 -1.97163 2.30652
122 2 2.2208 232.038 2.60496 23.2701 11.0187
123 2 2.2208 232.038 5.45965 20.6521 10.9745
124 2 2.2208 232.038 8.16205 23.5372 11.0581
125 2 2.2208 232.038 11.0665 20.5256 11.0635
126 1 -1.1104 15.9994 1.45627 -0.36178 1.14831
127 1 -1.1104 15.9994 4.14399 -0.556781 1.06626
128 1 -1.1104 15.9994 1.21168 -0.563192 4.05937
129 1 -1.1104 15.9994 3.97033 -0.540489 3.81858
130 1 -1.1104 15.9994 1.19056 2.34376 1.33468
131 1 -1.1104 15.9994 4.1211 2.21881 1.29806
132 1 -1.1104 15.9994 1.09218 2.21611 4.24293
133 1 -1.1104 15.9994 3.9174 2.24555 4.20181
134 1 -1.1104 15.9994 7.12826 -0.72002 0.871676
135 1 -1.1104 15.9994 9.75775 -0.499289 1.26241
136 1 -1.1104 15.9994 9.86038 -0.584429 4.01876
336 2 2.2208 232.038 2.74031 9.22338 13.777
138 1 -1.1104 15.9994 6.96892 2.07231 1.36085
139 1 -1.1104 15.9994 9.86849 2.29548 1.33424
140 1 -1.1104 15.9994 7.11697 -0.679886 3.8088
141 1 -1.1104 15.9994 9.77671 2.16432 3.98085
142 1 -1.1104 15.9994 12.5179 -0.620624 1.03049
143 1 -1.1104 15.9994 12.586 -0.791993 3.82774
144 1 -1.1104 15.9994 12.6142 2.32338 1.05745
145 1 -1.1104 15.9994 12.8362 2.3717 3.74677
146 1 -1.1104 15.9994 1.22739 5.00622 0.955521
147 1 -1.1104 15.9994 4.13095 5.08829 1.34247
148 1 -1.1104 15.9994 1.40503 5.04514 3.87287
149 1 -1.1104 15.9994 4.14574 5.16575 4.06796
150 1 -1.1104 15.9994 1.33555 7.85804 1.05395
151 1 -1.1104 15.9994 4.02784 7.84974 0.999078
152 1 -1.1104 15.9994 1.29703 7.79085 3.83706
153 1 -1.1104 15.9994 3.95482 8.20785 3.93555
154 1 -1.1104 15.9994 6.95233 4.71826 0.927828
155 1 -1.1104 15.9994 9.83194 5.03527 1.40831
156 1 -1.1104 15.9994 6.6768 2.06462 4.15889
157 1 -1.1104 15.9994 9.90674 4.95327 4.02201
158 1 -1.1104 15.9994 7.03934 7.68807 1.08375
159 1 -1.1104 15.9994 9.77284 7.7613 1.21912
160 1 -1.1104 15.9994 6.95892 4.85747 3.75853
161 1 -1.1104 15.9994 9.67093 7.85184 3.9511
162 1 -1.1104 15.9994 12.5542 5.08593 1.05868
163 1 -1.1104 15.9994 12.7203 4.99209 3.92274
164 1 -1.1104 15.9994 12.6207 7.83252 0.929581
165 1 -1.1104 15.9994 12.7077 7.88124 3.82316
166 1 -1.1104 15.9994 1.46264 10.8118 1.06547
167 1 -1.1104 15.9994 4.23383 10.7111 1.28428
168 1 -1.1104 15.9994 1.08848 10.6535 3.86568
169 1 -1.1104 15.9994 4.02876 10.7301 3.96331
170 1 -1.1104 15.9994 1.3005 13.6459 1.12175
171 1 -1.1104 15.9994 3.94882 13.6861 4.09093
172 1 -1.1104 15.9994 1.19907 13.3566 4.08694
173 1 -1.1104 15.9994 6.92675 13.4526 3.89635
174 1 -1.1104 15.9994 6.93014 10.5869 1.29321
175 1 -1.1104 15.9994 9.61334 10.7518 1.15177
176 1 -1.1104 15.9994 6.82479 7.71991 4.05832
177 1 -1.1104 15.9994 9.82487 10.803 3.87803
178 1 -1.1104 15.9994 6.69583 13.6126 1.35714
179 1 -1.1104 15.9994 9.86938 13.5222 1.18482
180 1 -1.1104 15.9994 6.98578 10.5821 3.99389
181 1 -1.1104 15.9994 9.63015 13.5629 4.01973
182 1 -1.1104 15.9994 12.4506 10.8831 1.08625
183 1 -1.1104 15.9994 12.7266 10.647 3.87721
184 1 -1.1104 15.9994 12.6438 13.6519 0.926501
185 1 -1.1104 15.9994 12.4043 13.4608 3.8143
186 1 -1.1104 15.9994 1.43552 16.0488 1.27367
187 1 -1.1104 15.9994 4.03965 13.5702 1.38782
188 1 -1.1104 15.9994 1.11026 16.1817 3.95594
189 1 -1.1104 15.9994 4.22346 16.4826 4.19931
190 1 -1.1104 15.9994 0.919217 18.9133 1.31431
191 1 -1.1104 15.9994 4.21915 16.3652 1.22731
192 1 -1.1104 15.9994 1.07157 18.966 3.97355
193 1 -1.1104 15.9994 4.16388 19.2481 3.95436
194 1 -1.1104 15.9994 6.86535 16.084 1.12789
195 1 -1.1104 15.9994 9.4857 16.3398 1.21675
196 1 -1.1104 15.9994 6.79179 16.3562 4.06576
197 1 -1.1104 15.9994 9.71614 16.1522 4.05766
198 1 -1.1104 15.9994 6.83612 19.0272 1.15908
199 1 -1.1104 15.9994 9.67613 19.0777 1.23029
200 1 -1.1104 15.9994 6.85221 19.143 3.89166
201 1 -1.1104 15.9994 9.71985 18.9308 4.10308
202 1 -1.1104 15.9994 12.3508 16.5128 1.23053
203 1 -1.1104 15.9994 12.3388 16.3139 4.05382
204 1 -1.1104 15.9994 12.607 19.3002 0.850584
205 1 -1.1104 15.9994 12.7095 19.4737 3.90092
206 1 -1.1104 15.9994 1.23897 22.0267 1.42951
207 1 -1.1104 15.9994 4.07321 21.9396 1.24468
208 1 -1.1104 15.9994 1.54935 21.5949 4.04261
209 1 -1.1104 15.9994 4.24268 21.8847 3.90757
210 1 -1.1104 15.9994 6.92021 22.0346 1.0472
211 1 -1.1104 15.9994 9.69162 21.83 1.1523
212 1 -1.1104 15.9994 6.95288 21.7172 3.90842
213 1 -1.1104 15.9994 9.77122 21.7895 3.88103
214 1 -1.1104 15.9994 12.6337 21.9895 1.1421
215 1 -1.1104 15.9994 12.4831 22.1505 3.96617
216 1 -1.1104 15.9994 1.44588 -0.303717 7.07794
217 1 -1.1104 15.9994 4.1292 -0.574837 6.5315
218 1 -1.1104 15.9994 0.973053 -0.506857 9.60159
219 1 -1.1104 15.9994 4.0753 -0.719275 9.49634
220 1 -1.1104 15.9994 1.24986 2.39426 6.76473
221 1 -1.1104 15.9994 4.08874 2.06109 6.93714
222 1 -1.1104 15.9994 1.02933 2.31364 9.53123
223 1 -1.1104 15.9994 3.78449 2.16782 9.66302
224 1 -1.1104 15.9994 6.97529 -0.572487 6.76384
225 1 -1.1104 15.9994 9.62794 -0.418331 6.94807
226 1 -1.1104 15.9994 6.73289 -0.495743 9.52242
227 1 -1.1104 15.9994 9.6535 -0.507009 9.50542
228 1 -1.1104 15.9994 6.95163 2.0962 6.94373
229 1 -1.1104 15.9994 9.76181 2.45992 6.66675
230 1 -1.1104 15.9994 6.61062 2.32809 9.57895
231 1 -1.1104 15.9994 9.57031 2.553 9.65727
232 1 -1.1104 15.9994 12.5502 -0.590056 6.72931
233 1 -1.1104 15.9994 12.437 -0.545045 9.50859
234 1 -1.1104 15.9994 12.4785 2.26523 6.64692
235 1 -1.1104 15.9994 12.5588 2.32029 9.52649
236 1 -1.1104 15.9994 1.23527 5.23674 6.61769
237 1 -1.1104 15.9994 4.15361 5.02376 6.65048
238 1 -1.1104 15.9994 1.36865 5.07369 9.64569
239 1 -1.1104 15.9994 4.09945 4.7962 9.38608
240 1 -1.1104 15.9994 1.2605 7.84626 6.4657
241 1 -1.1104 15.9994 4.15559 7.79996 6.72181
242 1 -1.1104 15.9994 1.59772 7.64555 9.40647
243 1 -1.1104 15.9994 4.32647 7.8013 9.61739
244 1 -1.1104 15.9994 7.1305 4.97552 6.72745
245 1 -1.1104 15.9994 9.76655 5.09613 6.86038
246 1 -1.1104 15.9994 6.83861 5.22512 9.73986
247 1 -1.1104 15.9994 9.73784 5.12025 9.58125
248 1 -1.1104 15.9994 7.12826 7.8512 6.61066
249 1 -1.1104 15.9994 10.0305 7.76106 6.65569
250 1 -1.1104 15.9994 6.95097 7.86901 9.49947
251 1 -1.1104 15.9994 9.69168 8.04087 9.5869
252 1 -1.1104 15.9994 12.5151 4.9344 6.84065
253 1 -1.1104 15.9994 12.6519 5.09492 9.64103
254 1 -1.1104 15.9994 12.7135 7.82235 6.71724
255 1 -1.1104 15.9994 12.634 7.82661 9.74305
256 1 -1.1104 15.9994 1.13423 10.5406 6.59054
257 1 -1.1104 15.9994 4.04185 10.5761 6.70383
258 1 -1.1104 15.9994 1.3715 10.6094 9.61949
259 1 -1.1104 15.9994 4.1061 10.5949 9.54872
260 1 -1.1104 15.9994 1.36732 13.3518 6.95046
261 1 -1.1104 15.9994 4.07532 13.531 6.96889
262 1 -1.1104 15.9994 1.26246 13.5445 9.59053
263 1 -1.1104 15.9994 3.87711 13.531 9.40142
264 1 -1.1104 15.9994 7.08465 10.6773 6.94855
265 1 -1.1104 15.9994 9.85953 10.5843 6.38942
266 1 -1.1104 15.9994 6.96812 10.6911 9.72106
267 1 -1.1104 15.9994 9.8019 10.5453 9.20043
268 1 -1.1104 15.9994 7.00283 13.5414 6.65956
269 1 -1.1104 15.9994 9.63511 13.2722 6.6665
270 1 -1.1104 15.9994 6.85467 13.6967 9.41422
271 1 -1.1104 15.9994 9.58122 13.2656 9.58395
272 1 -1.1104 15.9994 12.6438 10.6102 6.7902
273 1 -1.1104 15.9994 12.5749 10.56 9.52084
274 1 -1.1104 15.9994 12.4804 13.4919 6.52642
275 1 -1.1104 15.9994 12.4651 13.3804 9.45645
276 1 -1.1104 15.9994 1.2302 16.3657 6.9435
277 1 -1.1104 15.9994 4.08687 16.162 6.79977
278 1 -1.1104 15.9994 1.0974 16.4514 9.88506
279 1 -1.1104 15.9994 4.09643 16.4254 9.46707
280 1 -1.1104 15.9994 1.21109 19.338 7.04797
281 1 -1.1104 15.9994 3.82463 19.0905 6.72789
282 1 -1.1104 15.9994 1.26283 19.1081 9.8381
283 1 -1.1104 15.9994 4.17232 19.2207 9.20126
284 1 -1.1104 15.9994 7.01749 16.3055 6.89746
285 1 -1.1104 15.9994 9.80253 16.2969 6.8384
286 1 -1.1104 15.9994 6.93114 16.2192 9.50275
287 1 -1.1104 15.9994 9.85991 16.4146 9.75448
288 1 -1.1104 15.9994 6.84538 18.9728 6.74199
289 1 -1.1104 15.9994 9.68842 19.2786 6.85839
290 1 -1.1104 15.9994 6.87973 19.2192 9.34011
291 1 -1.1104 15.9994 9.63162 19.1897 9.69613
292 1 -1.1104 15.9994 12.5131 16.3529 6.74167
293 1 -1.1104 15.9994 12.4988 16.1693 9.56653
294 1 -1.1104 15.9994 12.5385 19.2967 6.7075
295 1 -1.1104 15.9994 12.455 19.0758 9.79259
296 1 -1.1104 15.9994 0.929877 22.1489 6.67128
297 1 -1.1104 15.9994 3.83485 22.1506 6.97569
298 1 -1.1104 15.9994 1.13296 21.9597 9.46256
299 1 -1.1104 15.9994 3.93732 21.9403 9.71045
300 1 -1.1104 15.9994 6.58917 21.9486 6.61934
301 1 -1.1104 15.9994 9.42295 22.1411 6.92165
302 1 -1.1104 15.9994 6.50417 21.8399 9.46726
303 1 -1.1104 15.9994 9.31653 21.9249 9.66263
304 1 -1.1104 15.9994 12.3453 22.1593 6.97854
305 1 -1.1104 15.9994 12.4082 21.941 9.74
306 1 -1.1104 15.9994 1.17487 -0.362796 12.4038
307 1 -1.1104 15.9994 4.04904 -0.319239 12.4354
308 1 -1.1104 15.9994 1.13193 2.25768 12.3193
309 1 -1.1104 15.9994 4.0259 2.6089 12.5107
310 1 -1.1104 15.9994 6.9905 -0.400874 12.3783
311 1 -1.1104 15.9994 9.72161 -0.455737 12.424
312 1 -1.1104 15.9994 7.03539 2.29511 12.3945
313 1 -1.1104 15.9994 10.0712 2.2263 12.1496
314 1 -1.1104 15.9994 12.4902 -0.297503 12.4352
315 1 -1.1104 15.9994 12.8039 2.52592 12.3352
316 1 -1.1104 15.9994 1.258 5.07206 12.5204
53 2 2.2208 232.038 2.70461 -1.84441 8.01011
9096 2 2.2208 232.038 13.9347 17.6576 11.0569
8988 2 2.2208 232.038 -0.0807163 12.1283 8.25314
26 2 2.2208 232.038 8.25283 12.0929 -0.0720943
9031 2 2.2208 232.038 13.9457 0.734848 5.36459
340 2 2.2208 232.038 11.3298 12.2298 13.7377
9314 2 2.2208 232.038 13.8415 -1.92793 13.8407
348 2 2.2208 232.038 8.29059 20.3794 13.794
8997 2 2.2208 232.038 -0.206592 3.7248 5.33895
9101 2 2.2208 232.038 13.864 23.6333 11.25
91 2 2.2208 232.038 -0.177453 20.5304 5.21873
349 2 2.2208 232.038 5.38994 23.3086 13.8321
44 2 2.2208 232.038 -0.0785909 23.4511 2.4841
326 2 2.2208 232.038 2.64042 -1.89426 13.8638
347 2 2.2208 232.038 -0.113913 23.3293 13.6644
9319 2 2.2208 232.038 13.8739 3.72617 13.7678
103 2 2.2208 232.038 5.58875 -1.7357 11.0566
339 2 2.2208 232.038 5.53529 12.3021 13.9394
55 2 2.2208 232.038 5.61966 -1.93598 5.30067
57 2 2.2208 232.038 8.13396 -1.7862 8.23916
325 2 2.2208 232.038 5.39561 3.52666 -0.282357
5 2 2.2208 232.038 13.9331 14.8701 8.19853
1 2 2.2208 232.038 13.9131 23.3449 5.39423
9004 2 2.2208 232.038 -0.144578 6.44569 2.43297
8994 2 2.2208 232.038 -0.0836672 6.45166 8.18986
81 2 2.2208 232.038 -0.00759649 14.8796 5.54377
12 2 2.2208 232.038 13.8942 20.6816 2.49106
6 2 2.2208 232.038 13.8331 17.7758 5.62205
9091 2 2.2208 232.038 13.8304 11.9697 10.9417
9042 2 2.2208 232.038 13.907 3.58389 8.317
121 2 2.2208 232.038 -0.132927 20.5 11.0383
9662 2 2.2208 232.038 -0.0810416 6.61548 13.7166
9041 2 2.2208 232.038 13.8843 6.40773 5.37479
8984 2 2.2208 232.038 -0.121195 3.62016 10.8841
9661 2 2.2208 232.038 -0.136489 0.916927 13.8204
341 2 2.2208 232.038 2.70186 14.8932 13.8325
335 2 2.2208 232.038 11.1187 6.53006 13.7991
9334 2 2.2208 232.038 13.8122 20.6897 13.899
9692 2 2.2208 232.038 0.105273 -1.90163 27.901
327 1 -1.1104 15.9994 7.00893 21.8195 26.4721
405 2 2.2208 232.038 5.48165 -1.92768 22.2305
403 2 2.2208 232.038 2.62226 -1.8487 24.9948
25 2 2.2208 232.038 5.67384 9.36432 28.024
9675 2 2.2208 232.038 -0.068451 9.18265 22.3503
332 1 -1.1104 15.9994 9.92109 22.0972 23.6987
353 2 2.2208 232.038 2.67517 -1.88949 19.2532
663 2 2.2208 232.038 2.51698 6.46529 28.0705
674 2 2.2208 232.038 2.53978 23.3614 28.0689
350 2 2.2208 232.038 10.8877 23.5028 13.9156
337 1 -1.1104 15.9994 7.05293 21.5745 23.5912
677 1 -1.1104 15.9994 9.69218 13.3062 26.9285
672 2 2.2208 232.038 11.1508 14.8732 28.0279
9688 2 2.2208 232.038 -0.131896 9.27306 27.8882
660 2 2.2208 232.038 5.64331 -1.86728 27.864
342 1 -1.1104 15.9994 4.1134 21.9023 26.761
666 2 2.2208 232.038 2.62008 12.1518 27.7784
9668 2 2.2208 232.038 -0.0696626 6.5054 19.4882
670 2 2.2208 232.038 5.30053 14.9537 28.0878
355 2 2.2208 232.038 5.4275 -1.9169 16.5547
9591 1 -1.1104 15.9994 1.13225 2.1782 23.6542
659 2 2.2208 232.038 2.81579 0.915612 28.1041
676 2 2.2208 232.038 8.30467 23.4144 27.8505
671 2 2.2208 232.038 8.13545 17.6037 27.9732
351 1 -1.1104 15.9994 1.11373 22.0796 26.8626
352 2 2.2208 232.038 2.83946 0.868953 16.6255
647 1 -1.1104 15.9994 3.92643 16.3658 23.7512
354 1 -1.1104 15.9994 4.26006 21.6841 23.9975
646 1 -1.1104 15.9994 1.09272 16.3784 23.8642
356 2 2.2208 232.038 8.33045 0.812471 16.6611
669 2 2.2208 232.038 2.59708 17.7079 28.1161
358 2 2.2208 232.038 5.53148 0.755581 19.4711
9379 2 2.2208 232.038 13.662 23.3687 16.6185
360 2 2.2208 232.038 11.147 0.750972 19.6633
361 1 -1.1104 15.9994 0.918536 21.7479 24.1208
362 2 2.2208 232.038 2.50694 6.40153 16.5357
363 2 2.2208 232.038 2.70875 3.65911 19.5727
364 1 -1.1104 15.9994 12.5062 18.9104 26.3451
365 2 2.2208 232.038 5.55228 3.73823 16.8323
366 2 2.2208 232.038 8.28065 6.55271 16.6068
367 2 2.2208 232.038 8.41239 3.57481 19.6655
368 2 2.2208 232.038 5.42922 6.34156 19.5687
369 2 2.2208 232.038 11.2066 3.68261 16.5967
370 2 2.2208 232.038 11.4716 6.58912 19.4945
371 1 -1.1104 15.9994 12.6399 19.2124 23.8337
372 2 2.2208 232.038 2.72028 11.8833 16.689
373 2 2.2208 232.038 2.73654 9.14305 19.5836
650 1 -1.1104 15.9994 3.84926 19.0468 23.6869
375 2 2.2208 232.038 5.54079 9.22089 16.7447
376 2 2.2208 232.038 8.53646 12.0625 16.5707
377 2 2.2208 232.038 8.50222 9.21746 19.4202
378 2 2.2208 232.038 5.76021 12.0835 19.5579
379 2 2.2208 232.038 11.0906 9.23823 16.6994
380 2 2.2208 232.038 11.212 12.0642 19.3461
381 1 -1.1104 15.9994 12.5043 15.9419 26.695
382 2 2.2208 232.038 2.8931 17.5006 16.6072
383 2 2.2208 232.038 2.65444 14.8374 19.502
664 2 2.2208 232.038 -0.1182 14.8533 16.7134
385 2 2.2208 232.038 5.5652 14.7253 16.724
386 2 2.2208 232.038 8.24315 17.6556 16.5663
387 2 2.2208 232.038 8.27406 14.9016 19.6711
388 2 2.2208 232.038 5.47423 17.7306 19.4705
389 2 2.2208 232.038 11.1539 15.0033 16.6868
390 2 2.2208 232.038 10.9573 17.8236 19.5871
391 1 -1.1104 15.9994 12.4074 22.0307 26.4942
392 2 2.2208 232.038 2.60173 23.4102 16.5044
393 2 2.2208 232.038 2.60108 20.2693 19.4855
655 1 -1.1104 15.9994 9.64611 16.2909 23.8952
395 2 2.2208 232.038 5.43788 20.3705 16.7328
396 2 2.2208 232.038 8.10149 23.3034 16.7498
397 2 2.2208 232.038 8.14994 20.4085 19.6389
398 2 2.2208 232.038 5.26465 23.1637 19.5616
399 2 2.2208 232.038 10.93 20.5438 16.7655
400 2 2.2208 232.038 10.9896 23.3125 19.737
401 1 -1.1104 15.9994 12.6157 16.5436 23.7978
402 2 2.2208 232.038 2.54974 0.765215 22.2514
441 2 2.2208 232.038 -0.0709945 20.61 22.4641
404 1 -1.1104 15.9994 9.73829 19.1491 26.626
9420 2 2.2208 232.038 13.9223 14.928 25.1168
406 2 2.2208 232.038 8.34384 0.731824 22.1978
654 1 -1.1104 15.9994 6.65904 16.0539 23.8298
408 2 2.2208 232.038 5.54568 0.82065 25.1181
656 1 -1.1104 15.9994 6.94549 16.2563 26.6214
410 2 2.2208 232.038 11.2574 0.86921 25.1055
411 1 -1.1104 15.9994 6.93847 19.1081 26.6393
412 2 2.2208 232.038 2.56115 6.3279 22.5127
413 2 2.2208 232.038 2.66191 3.50278 25.0966
414 1 -1.1104 15.9994 9.47176 18.8771 23.7694
415 2 2.2208 232.038 5.63175 3.6986 22.4764
416 2 2.2208 232.038 8.40964 6.3795 22.2386
417 2 2.2208 232.038 8.23797 3.67781 25.4019
418 2 2.2208 232.038 5.38211 6.51409 25.2483
419 2 2.2208 232.038 11.2062 3.6664 22.4069
420 2 2.2208 232.038 11.1918 6.36906 25.0457
421 1 -1.1104 15.9994 6.78916 18.9288 23.7361
422 2 2.2208 232.038 2.66805 11.9902 22.2635
423 2 2.2208 232.038 2.68276 9.36796 25.1081
424 1 -1.1104 15.9994 9.84583 16.3089 26.5293
425 2 2.2208 232.038 5.5822 9.1293 22.2646
426 2 2.2208 232.038 8.38559 11.9486 22.1488
427 2 2.2208 232.038 8.32323 9.25329 25.1468
428 2 2.2208 232.038 5.52026 12.2587 25.1072
429 2 2.2208 232.038 11.3888 9.36915 22.1255
430 2 2.2208 232.038 10.924 11.9625 25.2076
652 1 -1.1104 15.9994 1.0603 19.0994 26.7197
432 2 2.2208 232.038 2.5312 17.5586 22.4443
433 2 2.2208 232.038 2.49681 14.8663 25.096
651 1 -1.1104 15.9994 4.03745 19.2349 26.5528
435 2 2.2208 232.038 5.40282 14.8224 22.2979
436 2 2.2208 232.038 8.18792 17.6638 22.3412
437 2 2.2208 232.038 8.31075 14.9433 25.1302
438 2 2.2208 232.038 5.54435 17.5598 25.127
439 2 2.2208 232.038 11.1449 15.1692 22.257
440 2 2.2208 232.038 11.0484 17.7748 25.229
645 1 -1.1104 15.9994 12.482 13.2947 26.5818
442 1 -1.1104 15.9994 12.5482 21.9892 24.029
443 2 2.2208 232.038 2.65631 20.625 25.2018
649 1 -1.1104 15.9994 4.33284 16.3875 26.6032
445 2 2.2208 232.038 5.30854 20.4678 22.4243
446 2 2.2208 232.038 8.2493 23.4117 22.194
447 2 2.2208 232.038 8.43101 20.4776 25.1258
448 2 2.2208 232.038 5.24792 23.3969 25.0971
449 2 2.2208 232.038 11.1154 20.5828 22.3336
450 2 2.2208 232.038 11.1192 23.4665 25.1966
451 1 -1.1104 15.9994 1.07201 -0.417807 15.2028
452 1 -1.1104 15.9994 4.00492 -0.619784 15.1552
453 1 -1.1104 15.9994 1.33887 2.39091 15.1144
454 1 -1.1104 15.9994 4.0793 2.28885 15.1582
455 1 -1.1104 15.9994 6.73503 -0.570758 15.3031
456 1 -1.1104 15.9994 9.64235 -0.574554 15.3567
457 1 -1.1104 15.9994 6.80781 2.21878 15.1646
458 1 -1.1104 15.9994 9.5746 2.37018 15.3108
459 1 -1.1104 15.9994 12.5155 -0.445669 15.0359
460 1 -1.1104 15.9994 12.462 2.26467 15.1824
461 1 -1.1104 15.9994 1.31473 5.06951 15.2668
462 1 -1.1104 15.9994 4.0682 4.95527 15.4979
463 1 -1.1104 15.9994 1.19773 7.82038 14.8807
464 1 -1.1104 15.9994 3.75343 7.82116 15.3626
465 1 -1.1104 15.9994 6.92209 4.98667 15.3609
466 1 -1.1104 15.9994 9.76503 5.17486 15.277
467 1 -1.1104 15.9994 6.78011 7.96112 15.0842
468 1 -1.1104 15.9994 9.56698 7.87578 15.1736
469 1 -1.1104 15.9994 12.7531 5.00127 15.1751
470 1 -1.1104 15.9994 12.5607 7.58733 15.2038
471 1 -1.1104 15.9994 1.31607 10.557 15.3235
472 1 -1.1104 15.9994 4.26634 10.7545 15.2123
473 1 -1.1104 15.9994 1.24439 13.2981 15.3558
474 1 -1.1104 15.9994 4.0311 13.4871 15.3697
475 1 -1.1104 15.9994 7.02219 10.7774 15.2483
476 1 -1.1104 15.9994 9.77368 10.7712 15.1424
477 1 -1.1104 15.9994 7.01337 13.4852 15.2499
478 1 -1.1104 15.9994 10.0883 13.5532 15.0852
479 1 -1.1104 15.9994 12.5315 10.5634 15.1111
480 1 -1.1104 15.9994 12.6371 13.565 15.3181
481 1 -1.1104 15.9994 1.31047 16.1505 15.2574
482 1 -1.1104 15.9994 4.27175 16.1359 15.3737
483 1 -1.1104 15.9994 1.62436 19.0719 15.1996
484 1 -1.1104 15.9994 4.29547 18.9289 15.3201
485 1 -1.1104 15.9994 6.9998 16.2617 15.3098
486 1 -1.1104 15.9994 9.96775 16.1804 15.1234
487 1 -1.1104 15.9994 6.89906 19.0851 15.2431
488 1 -1.1104 15.9994 9.76379 18.8578 15.3739
489 1 -1.1104 15.9994 13.0629 16.2953 15.2354
490 1 -1.1104 15.9994 12.5307 19.3003 15.2067
491 1 -1.1104 15.9994 1.58785 22.1481 14.8274
492 1 -1.1104 15.9994 4.23053 21.7276 15.1571
493 1 -1.1104 15.9994 6.84356 21.79 15.328
494 1 -1.1104 15.9994 9.64397 21.7497 15.3297
495 1 -1.1104 15.9994 12.3449 22.0536 15.3096
496 1 -1.1104 15.9994 1.28824 -0.648844 17.8934
497 1 -1.1104 15.9994 4.32441 -0.775668 17.978
498 1 -1.1104 15.9994 1.06104 -0.632011 20.6271
499 1 -1.1104 15.9994 4.14025 -0.620887 20.7046
500 1 -1.1104 15.9994 1.35998 2.08539 17.9842
501 1 -1.1104 15.9994 4.04148 2.16649 18.1317
502 1 -1.1104 15.9994 1.14338 2.13949 20.896
503 1 -1.1104 15.9994 3.99364 2.14606 20.8211
504 1 -1.1104 15.9994 6.9511 -0.708422 18.0934
505 1 -1.1104 15.9994 9.68777 -0.648253 18.1792
506 1 -1.1104 15.9994 6.97471 -0.783974 20.9934
507 1 -1.1104 15.9994 9.97462 -0.598607 21.0193
508 1 -1.1104 15.9994 7.08098 2.34422 18.0869
509 1 -1.1104 15.9994 9.76307 2.08654 18.0367
510 1 -1.1104 15.9994 6.8335 2.25755 20.9959
511 1 -1.1104 15.9994 9.75173 2.22768 20.8042
512 1 -1.1104 15.9994 12.5423 -0.750433 17.9592
513 1 -1.1104 15.9994 12.6559 -0.6471 20.8357
514 1 -1.1104 15.9994 12.5103 1.94278 18.1209
515 1 -1.1104 15.9994 12.6494 2.07328 21.1348
516 1 -1.1104 15.9994 1.34963 4.96635 18.1935
517 1 -1.1104 15.9994 4.01385 5.04939 18.3824
518 1 -1.1104 15.9994 1.12125 4.93153 21.1301
519 1 -1.1104 15.9994 4.18921 4.98695 21.1614
520 1 -1.1104 15.9994 1.12609 7.91213 18.1175
521 1 -1.1104 15.9994 4.31932 7.6987 17.9419
522 1 -1.1104 15.9994 1.41462 7.75545 21.0733
523 1 -1.1104 15.9994 3.92897 7.79458 20.9002
524 1 -1.1104 15.9994 6.93935 4.86609 18.2886
525 1 -1.1104 15.9994 9.76655 5.00983 18.3331
526 1 -1.1104 15.9994 6.93104 4.96824 21.0184
527 1 -1.1104 15.9994 9.83582 4.83812 21.1182
528 1 -1.1104 15.9994 7.0009 7.72883 18.1365
529 1 -1.1104 15.9994 9.83154 7.87901 17.9988
530 1 -1.1104 15.9994 7.02715 7.76237 20.844
531 1 -1.1104 15.9994 10.0565 7.75649 20.9233
532 1 -1.1104 15.9994 12.5983 5.06135 18.012
533 1 -1.1104 15.9994 12.5006 5.15812 21.0252
534 1 -1.1104 15.9994 12.4556 7.94087 17.9456
535 1 -1.1104 15.9994 12.832 8.10955 20.8783
536 1 -1.1104 15.9994 1.36422 10.5302 18.0999
537 1 -1.1104 15.9994 4.08674 10.5241 18.1706
538 1 -1.1104 15.9994 1.45561 10.9229 20.9252
539 1 -1.1104 15.9994 4.23451 10.6424 21.2027
540 1 -1.1104 15.9994 1.07332 13.2361 18.1133
541 1 -1.1104 15.9994 4.24247 13.4421 18.2136
542 1 -1.1104 15.9994 1.2485 13.5183 20.9726
543 1 -1.1104 15.9994 4.15333 13.2107 21.044
544 1 -1.1104 15.9994 7.12942 10.6417 18.0594
545 1 -1.1104 15.9994 9.83192 10.7335 18.0345
546 1 -1.1104 15.9994 6.9881 10.3935 20.9361
547 1 -1.1104 15.9994 9.8452 10.497 20.5844
548 1 -1.1104 15.9994 6.93254 13.3667 18.1314
549 1 -1.1104 15.9994 9.52904 13.6888 18.1606
550 1 -1.1104 15.9994 6.97717 13.5409 20.9927
551 1 -1.1104 15.9994 9.96658 13.4824 20.7956
552 1 -1.1104 15.9994 12.59 10.7477 18.1113
553 1 -1.1104 15.9994 12.6094 10.8549 20.9175
554 1 -1.1104 15.9994 12.6612 13.4701 18.0954
555 1 -1.1104 15.9994 12.5474 13.6907 20.7663
556 1 -1.1104 15.9994 1.2492 15.986 18.1177
557 1 -1.1104 15.9994 4.09266 16.2539 18.152
558 1 -1.1104 15.9994 1.2339 16.2037 20.7891
559 1 -1.1104 15.9994 3.94049 15.9061 21.1641
560 1 -1.1104 15.9994 1.42137 18.6345 18.1531
561 1 -1.1104 15.9994 4.07249 18.957 18.0276
562 1 -1.1104 15.9994 0.979376 19.1497 23.9771
563 1 -1.1104 15.9994 3.8654 18.7446 20.9362
564 1 -1.1104 15.9994 6.78525 16.118 18.0409
565 1 -1.1104 15.9994 9.65631 16.3412 18.0592
566 1 -1.1104 15.9994 6.74331 16.3529 20.8613
567 1 -1.1104 15.9994 9.51771 16.2137 21.1004
568 1 -1.1104 15.9994 6.85789 19.0366 18.1864
569 1 -1.1104 15.9994 9.53583 19.1432 18.2301
570 1 -1.1104 15.9994 6.7098 19.1444 21.0353
571 1 -1.1104 15.9994 9.58003 19.0539 20.9657
572 1 -1.1104 15.9994 12.3994 16.3335 18.0072
573 1 -1.1104 15.9994 12.4717 16.6221 20.7891
574 1 -1.1104 15.9994 12.2177 19.0462 18.0346
575 1 -1.1104 15.9994 12.4969 19.3295 20.9885
576 1 -1.1104 15.9994 1.18149 21.9968 20.0872
577 1 -1.1104 15.9994 3.55144 21.7131 18.0149
578 1 -1.1104 15.9994 1.04984 18.9314 20.998
579 1 -1.1104 15.9994 4.24093 21.4074 20.7244
580 1 -1.1104 15.9994 6.73695 21.7886 18.0872
581 1 -1.1104 15.9994 9.67419 21.9122 18.35
582 1 -1.1104 15.9994 6.93621 22.0297 20.778
583 1 -1.1104 15.9994 9.65075 21.6911 20.9301
584 1 -1.1104 15.9994 12.5066 21.9443 18.2984
585 1 -1.1104 15.9994 12.5121 22.0868 21.241
648 1 -1.1104 15.9994 1.48932 16.1654 26.6814
587 1 -1.1104 15.9994 4.05682 -0.5493 23.4119
588 1 -1.1104 15.9994 1.39068 -0.703858 26.4564
589 1 -1.1104 15.9994 4.22221 -0.414644 26.4064
590 1 -1.1104 15.9994 1.12803 -0.487593 23.558
591 1 -1.1104 15.9994 3.96123 2.3046 23.7417
592 1 -1.1104 15.9994 1.40797 2.23331 26.6236
593 1 -1.1104 15.9994 4.12055 2.2427 26.6667
594 1 -1.1104 15.9994 7.07373 -0.533013 23.7632
595 1 -1.1104 15.9994 9.70408 -0.596766 23.6696
596 1 -1.1104 15.9994 6.95373 -0.722413 26.5558
597 1 -1.1104 15.9994 9.83451 -0.706835 26.5539
598 1 -1.1104 15.9994 7.1241 2.51805 23.7096
599 1 -1.1104 15.9994 9.96652 2.14087 23.7769
600 1 -1.1104 15.9994 6.85515 2.15632 26.756
601 1 -1.1104 15.9994 9.76042 2.20841 26.7954
602 1 -1.1104 15.9994 12.8022 -0.771019 23.5736
603 1 -1.1104 15.9994 12.6296 -0.550707 26.3107
604 1 -1.1104 15.9994 12.6153 2.25334 23.9335
605 1 -1.1104 15.9994 12.6572 2.15568 26.5199
606 1 -1.1104 15.9994 1.15288 4.90281 23.906
607 1 -1.1104 15.9994 4.09696 5.12733 23.6448
608 1 -1.1104 15.9994 1.26826 4.98268 26.3865
609 1 -1.1104 15.9994 4.14355 5.14028 26.781
610 1 -1.1104 15.9994 1.32793 7.88508 23.7981
611 1 -1.1104 15.9994 4.09758 7.95244 23.8046
612 1 -1.1104 15.9994 1.237 7.95422 26.5744
613 1 -1.1104 15.9994 4.0863 7.78177 26.4843
614 1 -1.1104 15.9994 6.91976 5.14995 23.892
615 1 -1.1104 15.9994 9.69499 4.9894 23.927
616 1 -1.1104 15.9994 6.60728 4.93696 26.5076
617 1 -1.1104 15.9994 9.88367 4.94076 26.7714
618 1 -1.1104 15.9994 6.94714 7.70577 23.6676
619 1 -1.1104 15.9994 9.64578 7.78721 23.62
620 1 -1.1104 15.9994 6.88294 7.83248 26.5102
621 1 -1.1104 15.9994 9.74313 7.80695 26.6242
622 1 -1.1104 15.9994 12.6852 4.9449 23.7797
623 1 -1.1104 15.9994 12.4794 5.04782 26.5761