ITEM: TIMESTEP
370000
ITEM: NUMBER OF ATOMS
18000
ITEM: BOX BOUNDS xy xz yz pp pp pp
-1.8287859155092628e-01 2.8076878591550891e+01 0.0000000000000000e+00
-2.1258385160822106e+00 3.3685383851611005e+02 0.0000000000000000e+00
-1.7288866863840133e-01 2.8066888668637212e+01 0.0000000000000000e+00
ITEM: ATOMS id type q mass x y z
672 2 2.2208 232.038 10.914 14.7635 -0.161629
324 1 -1.1104 15.9994 12.6046 5.00431 12.2859
9101 2 2.2208 232.038 13.7468 23.1338 11.4566
4 1 -1.1104 15.9994 12.5911 21.729 12.7614
323 1 -1.1104 15.9994 10.2241 7.5061 12.5913
322 1 -1.1104 15.9994 7.2821 7.91976 12.559
24 2 2.2208 232.038 -0.0288704 12.032 2.72758
8 2 2.2208 232.038 5.60685 0.531446 2.75243
9 1 -1.1104 15.9994 13.081 7.78346 12.6363
10 2 2.2208 232.038 11.2353 0.831216 2.57712
11 1 -1.1104 15.9994 9.98679 21.8671 12.5973
321 1 -1.1104 15.9994 9.6211 4.73372 12.5991
13 2 2.2208 232.038 2.92772 3.69307 2.57252
14 1 -1.1104 15.9994 7.02828 22.0292 12.9046
9004 2 2.2208 232.038 -0.0817996 6.40293 2.47099
331 2 2.2208 232.038 2.83463 3.53272 13.9115
17 2 2.2208 232.038 8.2867 3.36447 2.57504
18 2 2.2208 232.038 5.93646 6.31401 2.55449
9003 2 2.2208 232.038 -0.0663155 -2.09798 5.59575
20 2 2.2208 232.038 11.1085 6.17813 2.6393
21 1 -1.1104 15.9994 4.16758 21.8308 12.6653
22 1 -1.1104 15.9994 1.08892 16.3413 12.6307
23 2 2.2208 232.038 2.97016 9.09386 2.83445
320 1 -1.1104 15.9994 6.9936 5.18386 12.443
8983 2 2.2208 232.038 -0.128147 9.15856 11.2515
9041 2 2.2208 232.038 13.9347 6.38931 5.46432
27 2 2.2208 232.038 8.45299 9.10005 2.88735
28 2 2.2208 232.038 5.57697 12.0693 2.69234
8994 2 2.2208 232.038 -0.104915 6.44337 8.27386
30 2 2.2208 232.038 10.9882 11.8608 2.92481
31 1 -1.1104 15.9994 12.4984 13.6821 12.5166
32 1 -1.1104 15.9994 12.6522 10.8108 12.6188
33 2 2.2208 232.038 2.58959 14.9677 2.6455
319 1 -1.1104 15.9994 4.15234 7.699 12.6039
35 1 -1.1104 15.9994 9.72617 13.4621 12.5848
36 1 -1.1104 15.9994 6.90183 13.3215 12.4454
37 2 2.2208 232.038 8.3111 14.7663 3.03406
38 2 2.2208 232.038 5.43854 17.6815 2.80266
39 1 -1.1104 15.9994 9.94131 10.4704 12.874
40 2 2.2208 232.038 11.2078 17.2923 2.81579
41 1 -1.1104 15.9994 7.20341 10.5198 12.8737
42 1 -1.1104 15.9994 3.91078 13.3781 12.5418
43 2 2.2208 232.038 2.59605 20.4224 2.77844
318 1 -1.1104 15.9994 1.13899 8.11394 12.6772
45 1 -1.1104 15.9994 1.13302 13.5986 12.6716
46 1 -1.1104 15.9994 4.02654 10.6515 12.6808
47 2 2.2208 232.038 8.20926 20.3891 2.98897
48 2 2.2208 232.038 5.55702 23.2865 2.81167
49 1 -1.1104 15.9994 1.19578 10.829 12.576
50 2 2.2208 232.038 11.1445 23.1915 2.81453
51 1 -1.1104 15.9994 1.18171 21.6852 12.7849
52 2 2.2208 232.038 2.6139 0.737279 5.51398
8998 2 2.2208 232.038 -0.102311 0.861352 8.27945
54 1 -1.1104 15.9994 12.5544 18.8604 12.4631
7 2 2.2208 232.038 8.4031 -2.09133 2.68849
56 2 2.2208 232.038 8.47279 0.568806 5.52874
19 2 2.2208 232.038 11.1666 3.3721 -0.153276
58 2 2.2208 232.038 5.53649 0.771693 8.14684
105 2 2.2208 232.038 11.3251 -2.07896 11.0667
60 2 2.2208 232.038 11.3363 0.831702 8.24669
61 1 -1.1104 15.9994 12.4366 16.3451 12.4301
62 2 2.2208 232.038 2.89943 6.32391 5.61907
63 2 2.2208 232.038 2.6234 3.65349 8.39834
64 1 -1.1104 15.9994 9.42445 19.1073 12.8806
65 2 2.2208 232.038 5.48929 3.37345 5.38298
66 2 2.2208 232.038 8.38267 6.00946 5.63269
67 2 2.2208 232.038 8.38911 3.42139 8.22747
68 2 2.2208 232.038 5.73007 6.34608 8.34796
69 2 2.2208 232.038 11.1951 3.57376 5.38332
70 2 2.2208 232.038 11.3145 6.15428 8.3206
71 1 -1.1104 15.9994 6.84076 18.7629 12.5059
72 2 2.2208 232.038 2.66051 12.1298 5.48986
73 2 2.2208 232.038 2.56884 9.43578 8.56273
74 1 -1.1104 15.9994 9.77562 16.0765 12.6833
75 2 2.2208 232.038 5.5463 9.05178 5.604
76 2 2.2208 232.038 8.27512 11.8581 5.76545
77 2 2.2208 232.038 8.41511 9.17847 8.48034
78 2 2.2208 232.038 5.42131 11.961 8.35217
79 2 2.2208 232.038 11.2072 9.10957 5.65348
80 2 2.2208 232.038 11.1854 11.8001 8.57421
317 1 -1.1104 15.9994 3.96705 4.87228 12.3849
82 2 2.2208 232.038 2.78748 17.6953 5.42505
83 2 2.2208 232.038 2.47925 14.7979 8.46487
653 1 -1.1104 15.9994 4.17886 19.0825 1.5384
85 2 2.2208 232.038 5.28581 14.8274 5.71766
86 2 2.2208 232.038 8.22038 17.5931 5.48635
87 2 2.2208 232.038 8.19809 14.6284 8.23717
88 2 2.2208 232.038 5.36142 17.7256 8.38335
89 2 2.2208 232.038 11.0825 14.7894 5.78012
90 2 2.2208 232.038 11.104 17.7685 8.4065
9001 2 2.2208 232.038 13.8697 12.006 -0.078638
92 2 2.2208 232.038 2.4891 23.245 5.72525
93 2 2.2208 232.038 2.60952 20.3932 8.41025
29 2 2.2208 232.038 11.2904 9.04517 -0.0758992
95 2 2.2208 232.038 5.48684 20.4802 5.45923
96 2 2.2208 232.038 8.25246 23.1331 5.77312
97 2 2.2208 232.038 8.17095 20.2347 8.49257
98 2 2.2208 232.038 5.22876 23.294 8.66641
99 2 2.2208 232.038 11.0646 20.3029 5.62159
100 2 2.2208 232.038 11.2328 23.0532 8.52838
101 1 -1.1104 15.9994 6.78206 16.0555 12.5145
102 2 2.2208 232.038 2.81587 0.872827 11.1329
1 2 2.2208 232.038 13.6878 23.0872 5.53387
104 2 2.2208 232.038 8.43654 0.729836 11.1702
8987 2 2.2208 232.038 -0.123697 -1.88263 10.9598
106 1 -1.1104 15.9994 3.82514 18.8722 12.5672
107 2 2.2208 232.038 2.69088 6.43742 11.1312
108 2 2.2208 232.038 5.60842 3.61239 11.0792
109 2 2.2208 232.038 8.46924 6.26771 11.2591
110 2 2.2208 232.038 11.1669 3.48333 11.1422
111 1 -1.1104 15.9994 1.15345 19.0883 12.7542
112 2 2.2208 232.038 2.7126 12.2289 11.1132
113 2 2.2208 232.038 5.52406 9.22243 11.5974
114 2 2.2208 232.038 8.44319 11.9557 11.3632
115 2 2.2208 232.038 11.2124 8.94196 11.1355
116 1 -1.1104 15.9994 4.0666 15.9682 12.8502
117 2 2.2208 232.038 2.34417 17.6962 11.2387
118 2 2.2208 232.038 5.3364 14.8277 11.177
119 2 2.2208 232.038 8.31711 17.4012 11.3859
120 2 2.2208 232.038 11.1835 14.9052 11.1932
671 2 2.2208 232.038 8.1262 17.6463 0.20122
122 2 2.2208 232.038 2.51348 23.2389 11.3329
123 2 2.2208 232.038 5.46293 20.5158 11.2883
124 2 2.2208 232.038 8.26052 23.2903 11.2864
125 2 2.2208 232.038 10.961 20.4922 11.2125
126 1 -1.1104 15.9994 1.26026 -0.597746 1.14962
127 1 -1.1104 15.9994 4.10518 -0.777762 1.23827
128 1 -1.1104 15.9994 1.37084 -0.708058 4.10988
129 1 -1.1104 15.9994 4.17283 -0.922314 3.95224
130 1 -1.1104 15.9994 1.50768 2.37046 1.14202
131 1 -1.1104 15.9994 4.0489 1.93003 1.22335
132 1 -1.1104 15.9994 1.29779 2.13414 3.83389
133 1 -1.1104 15.9994 4.05729 2.04785 4.05845
134 1 -1.1104 15.9994 6.87794 -0.811742 1.16558
135 1 -1.1104 15.9994 9.70109 -0.600083 1.04963
136 1 -1.1104 15.9994 10.0038 -0.459788 3.95494
670 2 2.2208 232.038 5.57739 14.8086 -0.0947196
138 1 -1.1104 15.9994 6.77628 2.18346 1.27303
139 1 -1.1104 15.9994 9.69505 2.00016 1.09441
140 1 -1.1104 15.9994 7.137 -0.672643 3.97936
141 1 -1.1104 15.9994 9.68923 2.15793 3.87585
142 1 -1.1104 15.9994 12.6046 -0.727783 1.20043
143 1 -1.1104 15.9994 12.8305 -0.669267 4.02917
144 1 -1.1104 15.9994 12.551 2.18481 1.30892
145 1 -1.1104 15.9994 12.4735 2.26887 4.07571
146 1 -1.1104 15.9994 1.4445 5.00364 1.06404
147 1 -1.1104 15.9994 4.42328 4.99051 1.36436
148 1 -1.1104 15.9994 1.53113 4.79892 3.99087
149 1 -1.1104 15.9994 4.40871 4.88036 4.006
150 1 -1.1104 15.9994 1.40177 7.82004 1.20532
151 1 -1.1104 15.9994 4.14635 7.70849 1.11289
152 1 -1.1104 15.9994 1.39099 7.68558 4.05976
153 1 -1.1104 15.9994 4.33461 7.53962 4.04089
154 1 -1.1104 15.9994 7.03833 4.89092 1.15663
155 1 -1.1104 15.9994 9.85244 4.76316 0.984825
156 1 -1.1104 15.9994 6.98604 1.95599 4.01932
157 1 -1.1104 15.9994 9.59605 4.98508 4.0205
158 1 -1.1104 15.9994 7.08183 7.63595 1.06556
159 1 -1.1104 15.9994 9.76426 7.57967 1.4205
160 1 -1.1104 15.9994 6.96066 4.73079 3.93978
161 1 -1.1104 15.9994 9.72057 7.94967 4.22774
162 1 -1.1104 15.9994 12.6779 4.7231 1.24795
163 1 -1.1104 15.9994 12.7483 4.83886 4.25533
164 1 -1.1104 15.9994 12.6111 7.61399 1.20791
165 1 -1.1104 15.9994 12.4897 7.58093 4.23045
166 1 -1.1104 15.9994 1.55388 10.6022 1.14352
167 1 -1.1104 15.9994 4.23359 10.4474 1.41366
168 1 -1.1104 15.9994 1.44743 10.5849 3.94571
169 1 -1.1104 15.9994 4.2129 10.8011 4.25229
170 1 -1.1104 15.9994 1.34757 13.4401 1.29925
171 1 -1.1104 15.9994 4.05246 13.7028 4.00192
172 1 -1.1104 15.9994 1.31593 13.4898 4.02895
173 1 -1.1104 15.9994 7.00893 13.4549 4.28994
174 1 -1.1104 15.9994 7.12521 10.4523 1.48557
175 1 -1.1104 15.9994 9.77113 10.4015 1.37403
176 1 -1.1104 15.9994 7.17177 7.53937 3.92589
177 1 -1.1104 15.9994 9.66244 10.6432 4.30172
178 1 -1.1104 15.9994 7.22825 13.3342 1.31409
179 1 -1.1104 15.9994 9.88485 13.2267 1.25358
180 1 -1.1104 15.9994 6.93454 10.307 4.19229
181 1 -1.1104 15.9994 9.56777 13.4733 4.34085
182 1 -1.1104 15.9994 12.5463 10.289 1.43756
183 1 -1.1104 15.9994 12.6092 10.4816 4.28422
184 1 -1.1104 15.9994 12.6764 13.2665 1.54351
185 1 -1.1104 15.9994 12.5404 13.1264 4.40639
186 1 -1.1104 15.9994 0.961416 16.3618 1.10933
187 1 -1.1104 15.9994 4.13763 13.5031 1.35049
188 1 -1.1104 15.9994 1.2628 16.2551 3.9992
189 1 -1.1104 15.9994 4.12956 16.149 4.19169
190 1 -1.1104 15.9994 1.22427 19.0294 1.43447
191 1 -1.1104 15.9994 3.9597 16.3588 1.3717
192 1 -1.1104 15.9994 1.2351 19.076 4.15332
193 1 -1.1104 15.9994 3.89869 19.0339 3.98535
194 1 -1.1104 15.9994 6.81893 16.2322 1.47165
195 1 -1.1104 15.9994 9.73635 16.0156 1.57429
196 1 -1.1104 15.9994 6.96218 16.2905 4.14035
197 1 -1.1104 15.9994 9.87168 16.3021 4.47527
198 1 -1.1104 15.9994 6.98313 19.3637 1.51072
199 1 -1.1104 15.9994 9.70297 19.0341 1.57896
200 1 -1.1104 15.9994 6.71656 19.0087 4.17243
201 1 -1.1104 15.9994 9.43671 19.1092 4.34411
202 1 -1.1104 15.9994 12.6556 16.2095 1.42003
203 1 -1.1104 15.9994 12.4988 16.0013 4.21814
204 1 -1.1104 15.9994 12.7194 19.1034 1.48288
205 1 -1.1104 15.9994 12.5109 18.8593 4.25306
206 1 -1.1104 15.9994 1.10728 21.7749 1.59227
207 1 -1.1104 15.9994 3.99763 21.8566 1.61047
208 1 -1.1104 15.9994 1.3491 21.9849 4.25632
209 1 -1.1104 15.9994 4.19787 21.8737 4.46564
210 1 -1.1104 15.9994 6.76953 22.0531 1.20557
211 1 -1.1104 15.9994 9.4714 22.038 1.70599
212 1 -1.1104 15.9994 6.91152 21.7914 4.30789
213 1 -1.1104 15.9994 9.94868 21.922 4.45573
214 1 -1.1104 15.9994 12.4083 22.1934 1.36166
215 1 -1.1104 15.9994 12.6601 21.5002 4.24075
216 1 -1.1104 15.9994 1.25372 -0.732789 6.8741
217 1 -1.1104 15.9994 4.24609 -0.649141 6.81656
218 1 -1.1104 15.9994 1.49073 -0.653252 9.65723
219 1 -1.1104 15.9994 4.32429 -0.441457 9.82149
220 1 -1.1104 15.9994 1.28026 2.09693 6.76952
221 1 -1.1104 15.9994 4.31396 2.1568 6.8916
222 1 -1.1104 15.9994 1.28239 2.2107 9.71904
223 1 -1.1104 15.9994 4.06627 2.31031 9.79147
224 1 -1.1104 15.9994 7.13549 -0.76332 6.80188
225 1 -1.1104 15.9994 9.96208 -0.822676 6.71065
226 1 -1.1104 15.9994 7.00264 -0.688413 9.61066
227 1 -1.1104 15.9994 9.95016 -0.738534 9.82739
228 1 -1.1104 15.9994 7.08944 2.03767 6.73072
229 1 -1.1104 15.9994 9.89385 2.28756 6.94432
230 1 -1.1104 15.9994 6.75368 2.15107 9.60806
231 1 -1.1104 15.9994 9.59646 2.03771 9.65681
232 1 -1.1104 15.9994 12.7615 -0.636078 6.7716
233 1 -1.1104 15.9994 12.7777 -0.559605 9.66807
234 1 -1.1104 15.9994 12.783 2.07991 7.03477
235 1 -1.1104 15.9994 12.6884 2.29036 9.94244
236 1 -1.1104 15.9994 1.31427 4.93086 6.8982
237 1 -1.1104 15.9994 4.05003 4.72479 6.80218
238 1 -1.1104 15.9994 1.11938 5.10719 9.74096
239 1 -1.1104 15.9994 4.06425 5.09125 9.72609
240 1 -1.1104 15.9994 1.44358 8.00347 7.02648
241 1 -1.1104 15.9994 4.2185 7.54395 6.89742
242 1 -1.1104 15.9994 1.37868 7.8144 10.0056
243 1 -1.1104 15.9994 4.3388 7.93759 9.82014
244 1 -1.1104 15.9994 6.90354 4.84808 6.83655
245 1 -1.1104 15.9994 9.87843 4.96733 6.89034
246 1 -1.1104 15.9994 7.17485 4.81451 9.76723
247 1 -1.1104 15.9994 9.64394 4.90905 9.73743
248 1 -1.1104 15.9994 6.90316 7.65265 6.85917
249 1 -1.1104 15.9994 9.82053 7.7424 7.09113
250 1 -1.1104 15.9994 7.23979 7.40729 9.69166
251 1 -1.1104 15.9994 9.78204 7.65449 9.79583
252 1 -1.1104 15.9994 12.6669 4.87371 6.87392
253 1 -1.1104 15.9994 12.5119 4.88251 9.53734
254 1 -1.1104 15.9994 12.6359 7.86776 7.05171
255 1 -1.1104 15.9994 12.523 7.64208 9.89416
256 1 -1.1104 15.9994 1.42516 10.816 6.92386
257 1 -1.1104 15.9994 4.13027 10.4767 6.87868
258 1 -1.1104 15.9994 1.18008 10.663 9.84275
259 1 -1.1104 15.9994 3.95168 10.7068 9.91831
260 1 -1.1104 15.9994 1.33562 13.3634 6.86505
261 1 -1.1104 15.9994 4.06468 13.4426 6.996
262 1 -1.1104 15.9994 1.14321 13.5434 9.70893
263 1 -1.1104 15.9994 4.20685 13.3769 9.61855
264 1 -1.1104 15.9994 6.87867 10.5251 7.40464
265 1 -1.1104 15.9994 9.95334 10.5975 7.02117
266 1 -1.1104 15.9994 6.9546 10.419 10.1981
267 1 -1.1104 15.9994 9.87936 10.6527 10.0934
268 1 -1.1104 15.9994 6.8951 13.3706 6.80885
269 1 -1.1104 15.9994 9.88368 13.2679 7.06157
270 1 -1.1104 15.9994 6.70141 13.264 9.88824
271 1 -1.1104 15.9994 9.60454 13.1188 9.73403
272 1 -1.1104 15.9994 12.9317 10.6054 7.18683
273 1 -1.1104 15.9994 12.5443 10.425 9.78582
274 1 -1.1104 15.9994 12.5877 13.5118 7.10348
275 1 -1.1104 15.9994 12.4839 13.4565 9.83923
276 1 -1.1104 15.9994 1.19037 16.1007 7.08389
277 1 -1.1104 15.9994 3.85003 16.3885 7.05715
278 1 -1.1104 15.9994 1.25726 16.2852 9.84592
279 1 -1.1104 15.9994 3.89575 16.1516 10.0108
280 1 -1.1104 15.9994 1.15221 18.8145 6.79054
281 1 -1.1104 15.9994 3.93311 19.2119 6.77882
282 1 -1.1104 15.9994 1.0046 19.0696 9.6907
283 1 -1.1104 15.9994 3.86995 19.0525 9.6282
284 1 -1.1104 15.9994 6.58577 16.1739 6.97541
285 1 -1.1104 15.9994 9.45194 16.1091 7.06766
286 1 -1.1104 15.9994 7.02755 16.4102 9.68753
287 1 -1.1104 15.9994 9.74579 16.2445 9.69505
288 1 -1.1104 15.9994 6.81782 18.9711 6.89342
289 1 -1.1104 15.9994 9.56683 18.7185 7.06241
290 1 -1.1104 15.9994 6.66159 19.1625 9.76312
291 1 -1.1104 15.9994 9.90805 18.9894 10.0044
292 1 -1.1104 15.9994 12.6036 16.4762 7.07653
293 1 -1.1104 15.9994 12.5415 16.1627 9.60348
294 1 -1.1104 15.9994 12.4599 19.1038 7.0349
295 1 -1.1104 15.9994 12.6504 18.9798 9.85985
296 1 -1.1104 15.9994 1.15877 21.7553 7.10321
297 1 -1.1104 15.9994 4.06381 22.0784 7.24732
298 1 -1.1104 15.9994 0.812669 22.0255 10.0546
299 1 -1.1104 15.9994 3.74743 21.8131 9.76132
300 1 -1.1104 15.9994 6.90412 21.8015 7.13319
301 1 -1.1104 15.9994 9.56835 21.5001 6.95181
302 1 -1.1104 15.9994 6.66446 21.9864 10.1094
303 1 -1.1104 15.9994 9.45637 21.7141 9.92334
304 1 -1.1104 15.9994 12.3811 21.7755 7.13933
305 1 -1.1104 15.9994 12.4079 21.6822 9.88321
306 1 -1.1104 15.9994 1.02819 -0.30239 12.2625
307 1 -1.1104 15.9994 4.24821 -0.729712 12.521
308 1 -1.1104 15.9994 1.14028 2.25754 12.5789
309 1 -1.1104 15.9994 4.28528 2.15335 12.6423
310 1 -1.1104 15.9994 7.19539 -0.770842 12.4953
311 1 -1.1104 15.9994 9.98762 -0.737173 12.663
312 1 -1.1104 15.9994 7.21259 2.24727 12.679
313 1 -1.1104 15.9994 9.74394 2.03428 12.5835
314 1 -1.1104 15.9994 12.8365 -0.340737 12.5774
315 1 -1.1104 15.9994 12.4587 2.47868 12.8351
316 1 -1.1104 15.9994 1.162 5.138 12.814
26 2 2.2208 232.038 8.22604 11.7643 -0.0351268
9007 2 2.2208 232.038 -0.000616374 0.656658 2.4752
59 2 2.2208 232.038 11.3802 -2.10617 5.20282
663 2 2.2208 232.038 2.92603 6.30072 -0.0913139
81 2 2.2208 232.038 -0.0742229 14.811 5.60762
8993 2 2.2208 232.038 0.0994239 9.12915 5.47137
53 2 2.2208 232.038 2.8067 -1.94177 8.37427
8997 2 2.2208 232.038 -0.0961523 3.67177 5.51117
91 2 2.2208 232.038 -0.177982 20.3042 5.41607
325 2 2.2208 232.038 5.48206 3.44543 -0.109236
660 2 2.2208 232.038 5.56355 -2.0235 -0.0602837
374 2 2.2208 232.038 11.0855 20.4752 0.13069
9002 2 2.2208 232.038 13.8953 9.08352 2.7958
3 2 2.2208 232.038 2.57258 -2.00343 2.58132
675 2 2.2208 232.038 5.40231 20.4678 -0.0091699
25 2 2.2208 232.038 5.60683 9.20375 -0.0379792
667 2 2.2208 232.038 13.9374 17.5055 0.0801798
6 2 2.2208 232.038 13.8584 17.5005 5.5561
9688 2 2.2208 232.038 0.0480616 9.28389 -0.107158
676 2 2.2208 232.038 8.21776 23.382 -0.0394065
349 2 2.2208 232.038 5.45512 23.2999 13.9195
344 2 2.2208 232.038 5.40112 17.5209 13.9248
359 2 2.2208 232.038 11.2204 -1.98008 16.657
327 1 -1.1104 15.9994 6.69696 21.9826 26.9621
335 2 2.2208 232.038 11.229 6.2103 14.0572
9671 2 2.2208 232.038 -0.048409 -1.9645 22.3978
353 2 2.2208 232.038 2.62788 -2.02774 19.6545
343 2 2.2208 232.038 8.28316 14.717 13.9729
332 1 -1.1104 15.9994 9.94213 21.9119 24.1898
9672 2 2.2208 232.038 -0.154801 0.62633 25.1846
1187 1 -1.1104 15.9994 0.863344 23.8316 17.9567
659 2 2.2208 232.038 2.71923 0.652024 28.0135
668 2 2.2208 232.038 -0.135724 14.9091 28.007
337 1 -1.1104 15.9994 6.96603 21.9057 24.145
677 1 -1.1104 15.9994 9.72034 13.2335 26.4626
9676 2 2.2208 232.038 -0.145207 11.9338 25.2034
334 2 2.2208 232.038 5.5153 6.2416 14.0657
346 2 2.2208 232.038 2.72502 20.5171 14.0616
342 1 -1.1104 15.9994 3.80415 21.6029 27.0892
350 2 2.2208 232.038 11.1455 23.1682 14.278
9662 2 2.2208 232.038 -0.0205528 6.54266 14.1573
9673 2 2.2208 232.038 -0.149858 3.75367 22.4999
9669 2 2.2208 232.038 -0.187162 9.22023 16.9786
9591 1 -1.1104 15.9994 1.05576 2.22891 23.9384
664 2 2.2208 232.038 -0.00507435 14.8259 16.865
341 2 2.2208 232.038 2.56331 14.7788 14.2219
330 2 2.2208 232.038 11.1707 0.821959 14.0825
351 1 -1.1104 15.9994 0.860011 21.9386 26.8834
352 2 2.2208 232.038 2.86188 0.657757 16.7753
647 1 -1.1104 15.9994 3.96754 16.103 23.9753
354 1 -1.1104 15.9994 3.93785 21.8558 24.1473
646 1 -1.1104 15.9994 0.920907 16.0962 23.8886
356 2 2.2208 232.038 8.3174 0.60506 16.8923
9690 2 2.2208 232.038 0.0157925 3.45642 27.8924
358 2 2.2208 232.038 5.66785 0.709301 19.7643
674 2 2.2208 232.038 2.28141 23.2158 28.0358
360 2 2.2208 232.038 11.2071 0.693248 19.5061
361 1 -1.1104 15.9994 0.832215 21.5419 24.0912
362 2 2.2208 232.038 2.8119 6.12562 16.7708
363 2 2.2208 232.038 3.03853 3.56786 19.7035
364 1 -1.1104 15.9994 12.495 19.0246 27.0026
365 2 2.2208 232.038 5.6743 3.35841 16.8251
366 2 2.2208 232.038 8.25715 6.27889 16.8744
367 2 2.2208 232.038 8.48305 3.36558 19.566
368 2 2.2208 232.038 5.6025 6.24086 19.5981
369 2 2.2208 232.038 11.2776 3.43888 16.8397
370 2 2.2208 232.038 11.1533 6.17032 19.6092
371 1 -1.1104 15.9994 12.7347 19.1643 24.2112
372 2 2.2208 232.038 2.75563 11.9672 16.8228
373 2 2.2208 232.038 2.80995 9.08286 19.5832
650 1 -1.1104 15.9994 3.86687 19.0218 24.1369
375 2 2.2208 232.038 5.71638 9.12125 16.7696
376 2 2.2208 232.038 8.44975 11.927 16.9373
377 2 2.2208 232.038 8.2935 9.0017 19.6076
378 2 2.2208 232.038 5.5419 11.8875 19.5845
379 2 2.2208 232.038 11.168 8.93203 16.8299
380 2 2.2208 232.038 11.2936 11.9892 19.7036
381 1 -1.1104 15.9994 12.4313 16.1912 26.987
382 2 2.2208 232.038 2.63438 17.728 16.7997
383 2 2.2208 232.038 2.82282 14.6895 19.8132
355 2 2.2208 232.038 5.57219 -1.96975 16.9019
385 2 2.2208 232.038 5.55635 14.7608 16.65
386 2 2.2208 232.038 8.25023 17.6633 16.9686
387 2 2.2208 232.038 8.13374 14.7061 19.6729
388 2 2.2208 232.038 5.39203 17.745 19.785
389 2 2.2208 232.038 11.1249 14.7232 17.1342
390 2 2.2208 232.038 10.8651 17.4671 19.7363
391 1 -1.1104 15.9994 12.5201 21.6632 26.7875
392 2 2.2208 232.038 2.6997 23.281 16.7292
393 2 2.2208 232.038 2.55893 20.1969 19.8492
655 1 -1.1104 15.9994 9.65917 16.5735 24.1968
395 2 2.2208 232.038 5.26941 20.2656 16.9982
396 2 2.2208 232.038 8.12523 23.1626 16.9625
397 2 2.2208 232.038 8.17443 20.4745 19.9248
398 2 2.2208 232.038 5.38163 23.1452 19.8307
399 2 2.2208 232.038 11.0991 20.5053 17.0303
400 2 2.2208 232.038 11.2089 23.3066 19.8396
401 1 -1.1104 15.9994 12.4754 16.0903 24.1918
402 2 2.2208 232.038 2.63167 0.729325 22.3876
338 2 2.2208 232.038 8.54641 9.113 13.9944
404 1 -1.1104 15.9994 9.67921 19.0673 26.975
9667 2 2.2208 232.038 -0.0273436 3.45669 16.7899
406 2 2.2208 232.038 8.35602 0.792972 22.5351
654 1 -1.1104 15.9994 6.89479 16.3302 24.0466
408 2 2.2208 232.038 5.54817 0.730309 25.2644
656 1 -1.1104 15.9994 6.86874 16.3795 26.8371
410 2 2.2208 232.038 11.048 0.515357 25.1713
411 1 -1.1104 15.9994 6.8255 18.8969 26.966
412 2 2.2208 232.038 2.8054 6.38557 22.5998
413 2 2.2208 232.038 2.61164 3.53088 25.2549
414 1 -1.1104 15.9994 9.81071 19.1662 24.1243
415 2 2.2208 232.038 5.72367 3.59824 22.5671
416 2 2.2208 232.038 8.37643 6.30055 22.5074
417 2 2.2208 232.038 8.36848 3.522 25.2488
418 2 2.2208 232.038 5.65546 6.28584 25.4337
419 2 2.2208 232.038 11.417 3.58125 22.4624
420 2 2.2208 232.038 11.2479 6.22134 25.4412
421 1 -1.1104 15.9994 6.86818 19.0959 23.9635
422 2 2.2208 232.038 2.72377 11.8771 22.5278
423 2 2.2208 232.038 2.86288 9.09107 25.3327
424 1 -1.1104 15.9994 9.53975 16.1686 26.9022
425 2 2.2208 232.038 5.59224 9.03291 22.5264
426 2 2.2208 232.038 8.31538 12.1407 22.4554
427 2 2.2208 232.038 8.42852 9.23491 25.2109
428 2 2.2208 232.038 5.67425 11.8251 25.209
429 2 2.2208 232.038 11.1164 9.01951 22.6286
430 2 2.2208 232.038 11.0798 11.829 25.3034
652 1 -1.1104 15.9994 1.35372 19.1104 26.7888
432 2 2.2208 232.038 2.59237 17.6138 22.5391
433 2 2.2208 232.038 2.61186 14.749 25.2506
651 1 -1.1104 15.9994 4.05998 18.9752 26.904
435 2 2.2208 232.038 5.38681 14.8224 22.5494
436 2 2.2208 232.038 8.33775 17.7576 22.6356
437 2 2.2208 232.038 8.40793 15.1118 25.1598
438 2 2.2208 232.038 5.36317 17.5341 25.4098
439 2 2.2208 232.038 11.2518 14.7927 22.4051
440 2 2.2208 232.038 11.1921 17.807 25.6319
645 1 -1.1104 15.9994 12.4953 13.532 26.9177
442 1 -1.1104 15.9994 12.7361 21.7256 23.9875
443 2 2.2208 232.038 2.57873 20.4741 25.4327
649 1 -1.1104 15.9994 3.96413 16.069 26.8117
445 2 2.2208 232.038 5.25081 20.4417 22.7148
446 2 2.2208 232.038 8.38393 23.2863 22.6892
447 2 2.2208 232.038 8.35577 20.4626 25.4839
448 2 2.2208 232.038 5.38607 23.2961 25.3832
449 2 2.2208 232.038 11.2771 20.3256 22.7445
450 2 2.2208 232.038 11.2653 23.203 25.5437
451 1 -1.1104 15.9994 1.56203 -0.749494 15.3826
452 1 -1.1104 15.9994 4.20407 -0.614931 15.3245
453 1 -1.1104 15.9994 1.30613 1.95105 15.3435
454 1 -1.1104 15.9994 4.46489 2.04393 15.3373
455 1 -1.1104 15.9994 6.78003 -0.592859 15.5043
456 1 -1.1104 15.9994 9.76993 -0.722829 15.427
457 1 -1.1104 15.9994 7.15448 2.03334 15.539
458 1 -1.1104 15.9994 9.69747 2.03743 15.2904
459 1 -1.1104 15.9994 12.6107 -0.589198 15.3123
460 1 -1.1104 15.9994 12.5558 2.06837 15.5827
461 1 -1.1104 15.9994 1.38732 4.62392 15.4269
462 1 -1.1104 15.9994 4.15654 4.91094 15.486
463 1 -1.1104 15.9994 1.27073 7.49562 15.7361
464 1 -1.1104 15.9994 4.35841 7.60626 15.3781
465 1 -1.1104 15.9994 7.01997 4.7583 15.286
466 1 -1.1104 15.9994 9.7416 4.89635 15.41
467 1 -1.1104 15.9994 6.93119 7.57347 15.4154
468 1 -1.1104 15.9994 9.92332 7.63444 15.41
469 1 -1.1104 15.9994 12.6084 4.89908 15.3221
470 1 -1.1104 15.9994 12.5936 7.63178 15.3988
471 1 -1.1104 15.9994 1.21957 10.2234 15.377
472 1 -1.1104 15.9994 4.26652 10.5029 15.3633
473 1 -1.1104 15.9994 1.51674 13.299 15.4848
474 1 -1.1104 15.9994 4.19624 13.3347 15.2937
475 1 -1.1104 15.9994 7.04981 10.4485 15.472
476 1 -1.1104 15.9994 9.94955 10.6393 15.5117
477 1 -1.1104 15.9994 7.01978 13.3108 15.3482
478 1 -1.1104 15.9994 10.0356 13.2255 15.7371
479 1 -1.1104 15.9994 12.8355 10.5237 15.4511
480 1 -1.1104 15.9994 13.0332 13.3834 15.3717
481 1 -1.1104 15.9994 1.3005 16.1903 15.4287
482 1 -1.1104 15.9994 3.99155 16.5246 15.5206
483 1 -1.1104 15.9994 1.4404 18.9478 15.2912
484 1 -1.1104 15.9994 4.25896 19.0012 15.5074
485 1 -1.1104 15.9994 6.83008 15.8617 15.2619
486 1 -1.1104 15.9994 9.80095 16.1406 15.3835
487 1 -1.1104 15.9994 6.98855 18.7947 15.4311
488 1 -1.1104 15.9994 9.64066 19.1858 15.7848
489 1 -1.1104 15.9994 12.6396 16.1666 15.3986
490 1 -1.1104 15.9994 12.5392 19.0233 15.5755
491 1 -1.1104 15.9994 1.3017 21.7314 15.6258
492 1 -1.1104 15.9994 4.18377 22.1298 15.3601
493 1 -1.1104 15.9994 7.10623 21.4419 15.8975
494 1 -1.1104 15.9994 9.66451 22.0669 15.5633
495 1 -1.1104 15.9994 12.5252 21.6463 15.7512
496 1 -1.1104 15.9994 1.31264 -0.687887 18.0725
497 1 -1.1104 15.9994 4.08398 -0.706486 18.3516
498 1 -1.1104 15.9994 1.2688 -0.609761 20.8709
499 1 -1.1104 15.9994 4.24228 -0.758314 21.1932
500 1 -1.1104 15.9994 1.66621 2.02648 18.2299
501 1 -1.1104 15.9994 4.4272 2.03343 18.2
502 1 -1.1104 15.9994 1.40621 2.2173 20.9365
503 1 -1.1104 15.9994 4.30728 2.28407 21.1329
504 1 -1.1104 15.9994 7.08916 -0.811831 18.3913
505 1 -1.1104 15.9994 10.0436 -0.731842 18.196
506 1 -1.1104 15.9994 7.19133 -0.509304 21.0175
507 1 -1.1104 15.9994 9.78706 -0.784911 21.0484
508 1 -1.1104 15.9994 7.17378 2.0052 18.2778
509 1 -1.1104 15.9994 9.97227 1.96158 18.1806
510 1 -1.1104 15.9994 7.15793 2.20846 21.006
511 1 -1.1104 15.9994 10.027 2.06706 20.9419
512 1 -1.1104 15.9994 12.8302 -0.588429 18.0511
513 1 -1.1104 15.9994 12.7922 -0.891537 20.8149
514 1 -1.1104 15.9994 12.6459 2.15303 18.215
515 1 -1.1104 15.9994 12.6672 1.78122 20.872
516 1 -1.1104 15.9994 1.41945 4.89388 18.1783
517 1 -1.1104 15.9994 4.2966 4.95121 18.3914
518 1 -1.1104 15.9994 1.1285 4.87269 20.9483
519 1 -1.1104 15.9994 4.03163 5.13106 21.0343
520 1 -1.1104 15.9994 1.26532 7.91439 18.5187
521 1 -1.1104 15.9994 4.19293 7.90476 18.0321
522 1 -1.1104 15.9994 1.34132 7.41607 21.2139
523 1 -1.1104 15.9994 4.26418 7.733 21.0705
524 1 -1.1104 15.9994 6.9262 4.6488 18.2806
525 1 -1.1104 15.9994 9.77497 4.90633 18.2674
526 1 -1.1104 15.9994 7.15414 4.97589 20.982
527 1 -1.1104 15.9994 9.85917 4.73933 20.969
528 1 -1.1104 15.9994 6.99803 7.61372 18.2361
529 1 -1.1104 15.9994 9.76148 7.80713 18.2229
530 1 -1.1104 15.9994 7.02336 7.67678 21.0197
531 1 -1.1104 15.9994 9.82212 7.64771 21.1297
532 1 -1.1104 15.9994 12.5345 4.97398 18.1577
533 1 -1.1104 15.9994 12.4935 4.86666 21.0593
534 1 -1.1104 15.9994 12.556 7.62543 18.4483
535 1 -1.1104 15.9994 12.6036 7.86927 21.0893
536 1 -1.1104 15.9994 1.32063 10.6481 18.2759
537 1 -1.1104 15.9994 4.33098 10.3958 18.2152
538 1 -1.1104 15.9994 1.11637 10.38 21.1016
539 1 -1.1104 15.9994 3.87714 10.5784 20.9728
540 1 -1.1104 15.9994 1.29167 13.3189 18.3186
541 1 -1.1104 15.9994 4.07051 13.4092 18.1964
542 1 -1.1104 15.9994 1.4146 13.4005 20.9545
543 1 -1.1104 15.9994 4.24964 13.1337 21.2579
544 1 -1.1104 15.9994 7.23432 10.3044 18.2597
545 1 -1.1104 15.9994 9.90577 10.5636 18.3884
546 1 -1.1104 15.9994 6.83845 10.4596 21.1133
547 1 -1.1104 15.9994 9.61897 10.3218 21.0128
548 1 -1.1104 15.9994 7.07614 13.3801 18.1026
549 1 -1.1104 15.9994 9.66496 13.3482 18.3944
550 1 -1.1104 15.9994 6.68773 13.1112 21.0537
551 1 -1.1104 15.9994 9.83901 13.4068 21.153
552 1 -1.1104 15.9994 12.6627 10.5443 18.1103
553 1 -1.1104 15.9994 12.5638 10.564 21.1907
554 1 -1.1104 15.9994 12.6053 13.3763 18.3963
555 1 -1.1104 15.9994 12.7326 13.3968 21.1844
556 1 -1.1104 15.9994 1.43026 16.229 18.1962
557 1 -1.1104 15.9994 4.17047 16.1394 18.5293
558 1 -1.1104 15.9994 1.20014 16.1731 21.0339
559 1 -1.1104 15.9994 3.92547 16.4532 21.0982
560 1 -1.1104 15.9994 1.25221 19.09 18.4871
561 1 -1.1104 15.9994 3.84823 18.9954 18.293
562 1 -1.1104 15.9994 1.2634 18.9167 24.121
563 1 -1.1104 15.9994 3.93607 18.9659 21.3952
564 1 -1.1104 15.9994 6.95303 16.1433 18.2382
565 1 -1.1104 15.9994 9.84863 16.1897 18.286
566 1 -1.1104 15.9994 6.82011 15.9673 21.1889
567 1 -1.1104 15.9994 9.67931 16.0936 21.0759
568 1 -1.1104 15.9994 6.67109 18.9785 18.4079
569 1 -1.1104 15.9994 9.42319 18.9657 18.5792
570 1 -1.1104 15.9994 6.76334 18.8901 21.145
571 1 -1.1104 15.9994 9.73821 18.8638 21.1403
572 1 -1.1104 15.9994 12.4255 16.2967 18.5043
573 1 -1.1104 15.9994 12.6555 16.2468 21.287
574 1 -1.1104 15.9994 12.2105 18.9992 18.4067
575 1 -1.1104 15.9994 12.2886 18.911 21.4142
576 1 -1.1104 15.9994 0.820793 21.6027 20.4826
577 1 -1.1104 15.9994 3.79891 21.7145 18.1058
578 1 -1.1104 15.9994 1.26384 18.9497 21.3143
579 1 -1.1104 15.9994 3.89381 21.5856 20.8911
580 1 -1.1104 15.9994 6.79647 21.7391 18.5834
581 1 -1.1104 15.9994 9.70268 21.7801 18.4779
582 1 -1.1104 15.9994 6.85766 21.919 21.1508
583 1 -1.1104 15.9994 9.71703 21.581 21.4985
584 1 -1.1104 15.9994 12.408 21.8469 18.3786
585 1 -1.1104 15.9994 12.5128 21.6084 21.3815
648 1 -1.1104 15.9994 1.20985 16.1317 26.5421
587 1 -1.1104 15.9994 4.2126 -0.479205 23.7119
588 1 -1.1104 15.9994 1.11749 -0.950433 26.5683
589 1 -1.1104 15.9994 4.05682 -0.760124 26.4942
590 1 -1.1104 15.9994 1.30304 -0.711367 23.8155
591 1 -1.1104 15.9994 3.96721 2.32102 23.826
592 1 -1.1104 15.9994 1.08731 1.82963 26.8914
593 1 -1.1104 15.9994 4.11583 2.12437 26.6056
594 1 -1.1104 15.9994 6.95284 -0.714465 23.7949
595 1 -1.1104 15.9994 9.65129 -0.710166 23.7138
596 1 -1.1104 15.9994 6.91023 -0.786879 26.6101
597 1 -1.1104 15.9994 9.75185 -0.703097 26.4535
598 1 -1.1104 15.9994 6.83413 2.03097 23.9276
599 1 -1.1104 15.9994 9.68461 1.97815 23.8695
600 1 -1.1104 15.9994 6.94706 2.10251 26.4634
601 1 -1.1104 15.9994 9.69605 2.11985 26.6518
602 1 -1.1104 15.9994 12.5442 -0.991736 23.9534
603 1 -1.1104 15.9994 12.5392 -0.558037 26.5783
604 1 -1.1104 15.9994 12.6027 2.08464 23.6977
605 1 -1.1104 15.9994 12.5007 2.06933 26.6908
606 1 -1.1104 15.9994 1.36245 5.04058 23.9504
607 1 -1.1104 15.9994 4.11477 5.25307 24.1275
608 1 -1.1104 15.9994 1.26784 5.01797 26.7365
609 1 -1.1104 15.9994 4.19982 4.71319 26.7929
610 1 -1.1104 15.9994 1.12897 7.66388 23.9177
611 1 -1.1104 15.9994 4.04255 7.88928 23.9506
612 1 -1.1104 15.9994 1.18439 7.6971 26.5902
613 1 -1.1104 15.9994 4.01518 7.51444 26.6127
614 1 -1.1104 15.9994 6.88678 4.68107 23.9933
615 1 -1.1104 15.9994 9.87136 4.7668 23.8025
616 1 -1.1104 15.9994 7.02935 4.77834 26.6066
617 1 -1.1104 15.9994 9.68741 4.82846 26.5963
618 1 -1.1104 15.9994 6.84452 7.59433 23.7673
619 1 -1.1104 15.9994 9.71117 7.70855 23.9537
620 1 -1.1104 15.9994 6.86506 7.75026 26.546
621 1 -1.1104 15.9994 9.85942 7.52171 26.912
622 1 -1.1104 15.9994 12.5796 4.87865 23.9419
623 1 -1.1104 15.9994 12.5189 4.91979 26.7451
624 1 -1.1104 15.9994 12.4501 7.50353 24.0126
625 1 -1.1104 15.9994 12.8789 7.81203 26.7036
626 1 -1.1104 15.9994 1.15214 10.4326 24.0474
627 1 -1.1104 15.9994 3.89826 10.5443 23.9004
628 1 -1.1104 15.9994 1.35564 10.4985 26.7179
629 1 -1.1104 15.9994 4.22702 10.375 26.6576
630 1 -1.1104 15.9994 1.17974 13.4579 23.7971
631 1 -1.1104 15.9994 3.92988 13.4466 24.0299
632 1 -1.1104 15.9994 1.31259 13.3655 26.6667
633 1 -1.1104 15.9994 4.17191 13.1605 26.6962
634 1 -1.1104 15.9994 6.91333 10.6258 23.8768
635 1 -1.1104 15.9994 9.81084 10.6174 23.8117
636 1 -1.1104 15.9994 7.00945 10.2778 26.6628
637 1 -1.1104 15.9994 9.65971 21.7765 26.9108