ITEM: TIMESTEP
390000
ITEM: NUMBER OF ATOMS
18000
ITEM: BOX BOUNDS xy xz yz pp pp pp
-1.7723866016619008e-01 2.8071238660166284e+01 0.0000000000000000e+00
-2.0559361439244208e+00 3.3678393614395765e+02 0.0000000000000000e+00
-1.7764560278097580e-01 2.8071645602780038e+01 0.0000000000000000e+00
ITEM: ATOMS id type q mass x y z
9007 2 2.2208 232.038 -0.133959 0.785085 2.6473
324 1 -1.1104 15.9994 12.5649 4.83686 12.565
349 2 2.2208 232.038 5.5343 23.668 13.7657
4 1 -1.1104 15.9994 12.4849 21.849 12.3809
323 1 -1.1104 15.9994 9.86397 7.8506 12.6804
322 1 -1.1104 15.9994 7.14666 8.00564 12.3605
7 2 2.2208 232.038 8.57678 -1.78022 2.6823
8 2 2.2208 232.038 5.73743 0.68211 2.55756
9 1 -1.1104 15.9994 12.8327 7.81388 12.4992
10 2 2.2208 232.038 11.3743 1.00558 2.67502
11 1 -1.1104 15.9994 9.78212 21.9844 12.5637
321 1 -1.1104 15.9994 9.73276 5.13775 12.4603
13 2 2.2208 232.038 2.67218 3.59625 2.61365
14 1 -1.1104 15.9994 7.05746 22.1596 12.5458
336 2 2.2208 232.038 2.92253 9.44481 13.6698
8987 2 2.2208 232.038 0.00785098 -1.81367 11.2195
17 2 2.2208 232.038 8.42142 3.65071 2.53185
18 2 2.2208 232.038 5.48125 6.66524 2.56752
676 2 2.2208 232.038 8.42898 23.3784 -0.112777
20 2 2.2208 232.038 11.1796 6.34218 2.61178
21 1 -1.1104 15.9994 4.2312 22.2111 12.3864
22 1 -1.1104 15.9994 1.33175 16.3614 12.4773
23 2 2.2208 232.038 2.62729 9.07103 2.36472
320 1 -1.1104 15.9994 6.98419 5.10991 12.2559
9662 2 2.2208 232.038 0.0717792 6.55467 13.6588
9003 2 2.2208 232.038 -0.072729 -1.94007 5.36483
27 2 2.2208 232.038 8.20661 9.36985 2.52648
28 2 2.2208 232.038 5.6594 12.0199 2.46956
9701 2 2.2208 232.038 14.023 6.19393 -0.196401
30 2 2.2208 232.038 11.4236 12.0761 2.50351
31 1 -1.1104 15.9994 12.53 13.6375 12.39
32 1 -1.1104 15.9994 12.5107 10.6638 12.5445
33 2 2.2208 232.038 2.89855 14.762 2.51557
319 1 -1.1104 15.9994 4.37047 7.82757 12.2231
35 1 -1.1104 15.9994 9.58244 13.481 12.6047
36 1 -1.1104 15.9994 7.06456 13.6044 12.3679
37 2 2.2208 232.038 8.28758 15.0014 2.44833
38 2 2.2208 232.038 5.39993 17.7128 2.66473
39 1 -1.1104 15.9994 9.63623 10.4569 12.204
40 2 2.2208 232.038 11.081 17.5996 2.54321
41 1 -1.1104 15.9994 6.80294 10.8392 12.4869
42 1 -1.1104 15.9994 4.3666 13.5529 12.3939
43 2 2.2208 232.038 2.75684 20.3963 2.52638
318 1 -1.1104 15.9994 1.42841 8.03252 12.3129
45 1 -1.1104 15.9994 1.48547 13.622 12.4893
46 1 -1.1104 15.9994 4.2781 10.826 12.1426
47 2 2.2208 232.038 8.31241 20.5191 2.6753
48 2 2.2208 232.038 5.24467 23.2144 2.56736
49 1 -1.1104 15.9994 1.27685 10.9126 12.4427
50 2 2.2208 232.038 10.9402 23.3529 2.67273
51 1 -1.1104 15.9994 1.60769 21.9457 12.4481
52 2 2.2208 232.038 2.78795 0.735276 5.23909
24 2 2.2208 232.038 0.00434217 12.0234 2.50636
54 1 -1.1104 15.9994 12.403 19.0657 12.3181
340 2 2.2208 232.038 11.0055 12.0616 13.7271
56 2 2.2208 232.038 8.58654 0.888901 5.48705
341 2 2.2208 232.038 2.78471 14.916 13.7834
58 2 2.2208 232.038 5.41522 0.703168 8.28796
3 2 2.2208 232.038 2.83594 -1.82596 2.35034
60 2 2.2208 232.038 11.214 0.865298 8.11166
61 1 -1.1104 15.9994 12.3769 16.5187 12.3528
62 2 2.2208 232.038 2.66691 6.3419 5.31177
63 2 2.2208 232.038 2.77145 3.6607 8.23858
64 1 -1.1104 15.9994 9.7323 19.1424 12.4033
65 2 2.2208 232.038 5.64862 3.6125 5.29505
66 2 2.2208 232.038 8.30346 6.45562 5.46135
67 2 2.2208 232.038 8.50979 3.62415 8.21643
68 2 2.2208 232.038 5.57512 6.27036 8.09488
69 2 2.2208 232.038 11.1644 3.66944 5.37108
70 2 2.2208 232.038 11.2354 6.50804 8.21614
71 1 -1.1104 15.9994 6.91525 19.4955 12.4027
72 2 2.2208 232.038 2.79569 11.8054 5.49236
73 2 2.2208 232.038 2.78676 9.13836 8.15941
74 1 -1.1104 15.9994 9.6388 16.353 12.3762
75 2 2.2208 232.038 5.5831 9.20381 5.34306
76 2 2.2208 232.038 8.43192 12.0965 5.34804
77 2 2.2208 232.038 8.5419 9.31166 8.23547
78 2 2.2208 232.038 5.49994 12.1183 8.1899
79 2 2.2208 232.038 11.2164 9.29446 5.17104
80 2 2.2208 232.038 11.1038 11.945 8.24406
317 1 -1.1104 15.9994 3.95969 5.14273 12.5994
82 2 2.2208 232.038 2.66205 17.7698 5.33579
83 2 2.2208 232.038 2.69908 14.7563 8.1433
653 1 -1.1104 15.9994 4.20203 19.0967 1.32615
85 2 2.2208 232.038 5.58324 14.8404 5.37434
86 2 2.2208 232.038 8.39618 17.7278 5.49304
87 2 2.2208 232.038 8.53585 14.9504 8.07843
88 2 2.2208 232.038 5.35559 17.6958 8.1406
89 2 2.2208 232.038 11.1958 14.8251 5.32561
90 2 2.2208 232.038 11.3588 17.7431 8.09214
53 2 2.2208 232.038 2.866 -2.03981 8.05317
92 2 2.2208 232.038 2.64651 23.2476 5.3744
93 2 2.2208 232.038 2.68444 20.4649 8.16764
55 2 2.2208 232.038 5.80196 -1.91847 5.38321
95 2 2.2208 232.038 5.49395 20.3998 5.4026
96 2 2.2208 232.038 8.25024 23.2938 5.3852
97 2 2.2208 232.038 8.2248 20.5152 8.25937
98 2 2.2208 232.038 5.39538 23.3563 8.36928
99 2 2.2208 232.038 11.2799 20.4482 5.27863
100 2 2.2208 232.038 11.0212 22.994 8.1668
101 1 -1.1104 15.9994 6.78303 16.4205 12.472
102 2 2.2208 232.038 2.70859 0.67357 11.0526
59 2 2.2208 232.038 11.3838 -1.97577 5.49249
104 2 2.2208 232.038 8.37558 0.829971 11.1517
331 2 2.2208 232.038 2.73078 3.67844 13.8352
106 1 -1.1104 15.9994 3.93133 19.2239 12.4227
107 2 2.2208 232.038 2.79835 6.46154 10.8856
108 2 2.2208 232.038 5.59032 3.55036 11.0355
109 2 2.2208 232.038 8.45643 6.47429 11.1524
110 2 2.2208 232.038 11.2291 3.68292 11.033
111 1 -1.1104 15.9994 1.11455 19.1213 12.335
112 2 2.2208 232.038 2.71176 12.2894 11.0387
113 2 2.2208 232.038 5.69795 9.24519 10.9381
114 2 2.2208 232.038 8.19056 12.1217 10.9853
115 2 2.2208 232.038 11.2712 9.2843 11.1005
116 1 -1.1104 15.9994 4.02553 16.4256 12.462
117 2 2.2208 232.038 2.50163 17.6226 11.0588
118 2 2.2208 232.038 5.6322 14.7972 10.9785
119 2 2.2208 232.038 8.31806 17.8687 11.0561
120 2 2.2208 232.038 10.9874 14.8282 11.0606
19 2 2.2208 232.038 11.1263 3.71711 -0.187241
122 2 2.2208 232.038 2.72345 23.5049 11.0563
123 2 2.2208 232.038 5.29701 20.3882 11.1364
124 2 2.2208 232.038 8.42544 23.2757 11.144
125 2 2.2208 232.038 11.0088 20.6517 11.1143
126 1 -1.1104 15.9994 1.38159 -0.469763 1.14781
127 1 -1.1104 15.9994 4.25783 -0.639602 1.04339
128 1 -1.1104 15.9994 1.28996 -0.64024 4.00725
129 1 -1.1104 15.9994 4.28301 -0.778994 3.93461
130 1 -1.1104 15.9994 1.48389 2.34142 1.13704
131 1 -1.1104 15.9994 4.23356 2.07723 0.956798
132 1 -1.1104 15.9994 1.30229 2.14844 4.05257
133 1 -1.1104 15.9994 4.07223 2.06996 3.85672
134 1 -1.1104 15.9994 7.26949 -0.619355 1.15521
135 1 -1.1104 15.9994 10.0232 -0.436187 1.4307
136 1 -1.1104 15.9994 9.97366 -0.643472 4.36265
345 2 2.2208 232.038 11.1437 17.7289 13.8315
138 1 -1.1104 15.9994 7.17887 1.97021 1.14145
139 1 -1.1104 15.9994 10.0276 2.33792 1.19757
140 1 -1.1104 15.9994 7.01911 -0.249086 4.04051
141 1 -1.1104 15.9994 9.92433 2.31828 3.80447
142 1 -1.1104 15.9994 12.8323 -0.508429 1.06846
143 1 -1.1104 15.9994 12.6321 -0.646999 3.88965
144 1 -1.1104 15.9994 12.6718 2.33552 1.17758
145 1 -1.1104 15.9994 12.559 2.22806 4.17195
146 1 -1.1104 15.9994 1.11346 4.90127 1.13279
147 1 -1.1104 15.9994 3.9227 4.82162 1.12758
148 1 -1.1104 15.9994 1.17945 5.06384 3.8385
149 1 -1.1104 15.9994 4.02531 5.04654 3.9283
150 1 -1.1104 15.9994 1.26108 7.76051 1.24532
151 1 -1.1104 15.9994 4.10376 7.6314 0.958844
152 1 -1.1104 15.9994 1.01715 7.73786 3.85643
153 1 -1.1104 15.9994 4.0798 7.74619 3.83538
154 1 -1.1104 15.9994 7.11558 4.84874 1.19605
155 1 -1.1104 15.9994 9.60064 5.04975 1.19527
156 1 -1.1104 15.9994 7.08219 2.39524 3.98398
157 1 -1.1104 15.9994 9.62643 5.08369 3.96992
158 1 -1.1104 15.9994 6.87225 7.83403 1.07226
159 1 -1.1104 15.9994 9.58504 7.75321 1.28213
160 1 -1.1104 15.9994 6.90861 4.99173 3.89806
161 1 -1.1104 15.9994 9.91548 7.722 3.90789
162 1 -1.1104 15.9994 12.6696 5.12127 1.31323
163 1 -1.1104 15.9994 12.7584 4.87965 4.08593
164 1 -1.1104 15.9994 12.6824 7.76654 1.14784
165 1 -1.1104 15.9994 12.6813 7.78336 3.88993
166 1 -1.1104 15.9994 1.28992 10.5761 0.909296
167 1 -1.1104 15.9994 4.44719 10.4923 1.13615
168 1 -1.1104 15.9994 1.40372 10.6338 4.10623
169 1 -1.1104 15.9994 4.13733 10.5359 4.10206
170 1 -1.1104 15.9994 1.44828 13.4109 1.02065
171 1 -1.1104 15.9994 4.23115 13.1927 3.98168
172 1 -1.1104 15.9994 1.31249 13.4758 3.94092
173 1 -1.1104 15.9994 7.10982 13.5186 3.8646
174 1 -1.1104 15.9994 7.04845 10.6009 0.978354
175 1 -1.1104 15.9994 10.1757 10.725 1.30497
176 1 -1.1104 15.9994 7.01998 7.84631 3.88197
177 1 -1.1104 15.9994 9.67249 10.6766 3.80141
178 1 -1.1104 15.9994 6.9683 13.471 1.01029
179 1 -1.1104 15.9994 9.64583 13.4373 1.05261
180 1 -1.1104 15.9994 6.92455 10.5409 3.94409
181 1 -1.1104 15.9994 9.91619 13.4124 3.96064
182 1 -1.1104 15.9994 12.8847 10.7078 1.16573
183 1 -1.1104 15.9994 12.647 10.7049 3.8962
184 1 -1.1104 15.9994 12.5467 13.6501 1.03494
185 1 -1.1104 15.9994 12.6452 13.3985 3.99452
186 1 -1.1104 15.9994 1.42868 16.2028 1.21583
187 1 -1.1104 15.9994 4.18537 13.344 1.39603
188 1 -1.1104 15.9994 1.39403 16.0355 3.97894
189 1 -1.1104 15.9994 4.23333 16.1509 4.04493
190 1 -1.1104 15.9994 1.2274 19.0455 1.30523
191 1 -1.1104 15.9994 4.25236 16.1559 1.05486
192 1 -1.1104 15.9994 1.35536 19.1222 3.96367
193 1 -1.1104 15.9994 4.31475 19.0372 4.0328
194 1 -1.1104 15.9994 6.82098 16.1711 1.2335
195 1 -1.1104 15.9994 9.59497 16.4065 1.29329
196 1 -1.1104 15.9994 6.84785 16.3848 4.06186
197 1 -1.1104 15.9994 9.4848 16.1066 3.96055
198 1 -1.1104 15.9994 6.90948 19.0205 1.0232
199 1 -1.1104 15.9994 9.83268 19.0604 1.40598
200 1 -1.1104 15.9994 6.9374 19.3126 4.07044
201 1 -1.1104 15.9994 9.82525 18.8646 4.25885
202 1 -1.1104 15.9994 12.3808 16.2472 0.98848
203 1 -1.1104 15.9994 12.5393 15.9482 3.8883
204 1 -1.1104 15.9994 12.6174 19.0375 1.21102
205 1 -1.1104 15.9994 12.4842 18.9514 3.83294
206 1 -1.1104 15.9994 1.30033 21.9982 1.09221
207 1 -1.1104 15.9994 4.28391 21.7713 1.37629
208 1 -1.1104 15.9994 1.36312 21.8052 4.02833
209 1 -1.1104 15.9994 4.06013 21.7845 4.08303
210 1 -1.1104 15.9994 7.05753 21.8501 1.24937
211 1 -1.1104 15.9994 9.81282 22.0635 1.28151
212 1 -1.1104 15.9994 7.00671 22.0141 3.91497
213 1 -1.1104 15.9994 9.8571 21.7805 3.90999
214 1 -1.1104 15.9994 12.4847 21.8386 1.27322
215 1 -1.1104 15.9994 12.477 21.9112 4.19747
216 1 -1.1104 15.9994 1.66452 -0.473568 6.79677
217 1 -1.1104 15.9994 4.31894 -0.746085 6.73698
218 1 -1.1104 15.9994 1.41829 -0.51482 9.71831
219 1 -1.1104 15.9994 4.18417 -0.680942 9.56986
220 1 -1.1104 15.9994 1.34045 2.46699 6.94687
221 1 -1.1104 15.9994 4.33867 2.00757 6.62222
222 1 -1.1104 15.9994 1.34179 2.33338 9.85236
223 1 -1.1104 15.9994 4.20852 2.32642 9.65076
224 1 -1.1104 15.9994 7.21316 -0.615078 6.69694
225 1 -1.1104 15.9994 9.97132 -0.728541 7.01761
226 1 -1.1104 15.9994 6.91146 -0.532576 9.62531
227 1 -1.1104 15.9994 9.82818 -0.66453 9.75837
228 1 -1.1104 15.9994 7.06165 2.19098 6.91085
229 1 -1.1104 15.9994 9.93678 2.17302 6.58477
230 1 -1.1104 15.9994 7.02726 2.24658 9.73281
231 1 -1.1104 15.9994 9.96647 2.2374 9.43662
232 1 -1.1104 15.9994 12.7607 -0.519925 6.96131
233 1 -1.1104 15.9994 12.4877 -0.692656 9.7435
234 1 -1.1104 15.9994 12.7337 2.15793 6.78925
235 1 -1.1104 15.9994 12.8128 2.16861 9.70179
236 1 -1.1104 15.9994 1.18938 4.86628 6.77361
237 1 -1.1104 15.9994 4.37632 4.93662 6.82769
238 1 -1.1104 15.9994 1.18752 5.11712 9.52577
239 1 -1.1104 15.9994 4.19605 4.92899 9.58403
240 1 -1.1104 15.9994 1.07202 7.78465 6.79079
241 1 -1.1104 15.9994 4.04639 7.62814 6.54097
242 1 -1.1104 15.9994 1.24791 7.80349 9.66772
243 1 -1.1104 15.9994 4.12744 7.71976 9.35925
244 1 -1.1104 15.9994 7.13126 5.02949 6.89785
245 1 -1.1104 15.9994 9.81372 5.0358 6.79032
246 1 -1.1104 15.9994 7.09662 4.98934 9.5862
247 1 -1.1104 15.9994 9.80784 5.08636 9.61445
248 1 -1.1104 15.9994 6.74365 7.73526 6.7056
249 1 -1.1104 15.9994 9.75792 7.90895 6.80633
250 1 -1.1104 15.9994 7.09855 7.98063 9.61047
251 1 -1.1104 15.9994 10.0468 7.82511 9.64931
252 1 -1.1104 15.9994 12.6536 4.92913 6.75033
253 1 -1.1104 15.9994 12.7376 4.91101 9.6171
254 1 -1.1104 15.9994 12.5781 7.8189 6.59774
255 1 -1.1104 15.9994 12.6701 7.92329 9.61997
256 1 -1.1104 15.9994 1.33807 10.6198 6.88844
257 1 -1.1104 15.9994 4.20711 10.5606 6.70576
258 1 -1.1104 15.9994 1.46619 10.6378 9.43538
259 1 -1.1104 15.9994 4.33365 10.6136 9.41945
260 1 -1.1104 15.9994 1.07573 13.3758 6.83211
261 1 -1.1104 15.9994 4.05663 13.3274 6.7788
262 1 -1.1104 15.9994 1.30208 13.1924 9.61142
263 1 -1.1104 15.9994 3.98326 13.3965 9.50464
264 1 -1.1104 15.9994 7.02843 10.772 6.81481
265 1 -1.1104 15.9994 9.81695 10.5771 6.51909
266 1 -1.1104 15.9994 7.06382 10.7975 9.58598
267 1 -1.1104 15.9994 9.99269 10.4294 9.47993
268 1 -1.1104 15.9994 7.10155 13.4556 6.56747
269 1 -1.1104 15.9994 9.84452 13.3802 7.10829
270 1 -1.1104 15.9994 6.9183 13.7853 9.26706
271 1 -1.1104 15.9994 9.72589 13.3232 9.87579
272 1 -1.1104 15.9994 12.5262 10.5838 6.79358
273 1 -1.1104 15.9994 12.5581 10.8797 9.68176
274 1 -1.1104 15.9994 12.6423 13.4488 6.73636
275 1 -1.1104 15.9994 12.3768 13.6158 9.58556
276 1 -1.1104 15.9994 1.26737 16.1319 6.94989
277 1 -1.1104 15.9994 4.14975 16.2378 6.76312
278 1 -1.1104 15.9994 1.02718 16.2902 9.66048
279 1 -1.1104 15.9994 3.94967 16.2118 9.67006
280 1 -1.1104 15.9994 1.36844 19.128 6.795
281 1 -1.1104 15.9994 4.1221 19.0174 6.84192
282 1 -1.1104 15.9994 1.03997 19.3049 9.61825
283 1 -1.1104 15.9994 3.7483 19.0983 9.65068
284 1 -1.1104 15.9994 7.00696 16.122 6.88204
285 1 -1.1104 15.9994 9.85072 16.2268 6.71146
286 1 -1.1104 15.9994 6.86379 16.3471 9.73083
287 1 -1.1104 15.9994 9.7227 16.2712 9.4954
288 1 -1.1104 15.9994 6.76809 18.9768 7.02875
289 1 -1.1104 15.9994 9.7712 19.0849 6.95517
290 1 -1.1104 15.9994 6.74248 19.2238 9.65255
291 1 -1.1104 15.9994 9.58271 19.1113 9.72131
292 1 -1.1104 15.9994 12.5806 16.3107 6.63009
293 1 -1.1104 15.9994 12.5324 16.2989 9.57293
294 1 -1.1104 15.9994 12.8465 19.1437 6.61456
295 1 -1.1104 15.9994 12.5698 19.0776 9.45583
296 1 -1.1104 15.9994 1.1137 22.078 6.79529
297 1 -1.1104 15.9994 4.04319 21.6064 6.73375
298 1 -1.1104 15.9994 1.32142 22.0543 9.60121
299 1 -1.1104 15.9994 4.16121 21.7825 9.49773
300 1 -1.1104 15.9994 6.88563 21.772 6.85114
301 1 -1.1104 15.9994 9.74494 22.0501 6.68327
302 1 -1.1104 15.9994 6.90232 21.9496 9.82599
303 1 -1.1104 15.9994 9.75346 21.6586 9.67325
304 1 -1.1104 15.9994 12.5335 22.0332 6.76391
305 1 -1.1104 15.9994 12.7097 21.9436 9.59203
306 1 -1.1104 15.9994 1.29012 -0.455259 12.6394
307 1 -1.1104 15.9994 4.10265 -0.736232 12.4836
308 1 -1.1104 15.9994 1.35321 2.42252 12.5794
309 1 -1.1104 15.9994 3.99465 2.06749 12.4012
310 1 -1.1104 15.9994 6.69608 -0.534483 12.2888
311 1 -1.1104 15.9994 9.84265 -0.699488 12.6315
312 1 -1.1104 15.9994 6.67647 2.17258 12.4533
313 1 -1.1104 15.9994 9.59981 2.22101 12.2608
314 1 -1.1104 15.9994 12.6111 -0.462748 12.4771
315 1 -1.1104 15.9994 12.3828 2.31313 12.4262
316 1 -1.1104 15.9994 1.40917 5.2002 12.2178
8998 2 2.2208 232.038 0.00380095 0.887812 8.22224
9663 2 2.2208 232.038 -0.0214861 12.2479 13.8345
374 2 2.2208 232.038 11.1554 20.444 -0.115648
6 2 2.2208 232.038 13.9688 17.4972 5.3218
5 2 2.2208 232.038 13.7792 14.9535 8.15681
34 2 2.2208 232.038 0.0176317 17.7993 2.59217
328 2 2.2208 232.038 8.43909 -2.11878 13.9103
9314 2 2.2208 232.038 13.9007 -1.94881 13.6546
91 2 2.2208 232.038 -0.0400089 20.6515 5.56001
84 2 2.2208 232.038 -0.140173 17.8065 8.18949
81 2 2.2208 232.038 0.0347504 15.0193 5.47142
8983 2 2.2208 232.038 0.0025991 9.41425 11.054
105 2 2.2208 232.038 11.0377 -2.06755 10.9641
329 2 2.2208 232.038 5.38352 0.862897 13.8471
9661 2 2.2208 232.038 -0.187308 0.814523 13.8
9664 2 2.2208 232.038 -0.141794 17.8618 13.829
121 2 2.2208 232.038 -0.0360188 20.7333 11.1099
8984 2 2.2208 232.038 0.0174604 3.68064 11.0518
339 2 2.2208 232.038 5.57058 12.1944 13.9343
103 2 2.2208 232.038 5.60458 -1.97269 10.9703
8993 2 2.2208 232.038 -0.131236 9.38529 5.44015
9002 2 2.2208 232.038 13.9643 9.11331 2.41439
661 2 2.2208 232.038 8.64845 0.910906 -0.053528
350 2 2.2208 232.038 11.0622 23.302 13.8658
9690 2 2.2208 232.038 -0.0933419 3.54186 -0.132542
335 2 2.2208 232.038 11.3245 6.60551 13.8539
348 2 2.2208 232.038 8.31893 20.5601 13.7912
333 2 2.2208 232.038 8.2381 3.65092 13.7435
405 2 2.2208 232.038 5.57318 -2.0236 22.4412
327 1 -1.1104 15.9994 6.89755 21.7661 26.8405
9674 2 2.2208 232.038 0.0549447 6.34097 25.0861
9667 2 2.2208 232.038 -0.122741 3.68935 16.4174
669 2 2.2208 232.038 2.6897 17.5614 27.9143
674 2 2.2208 232.038 2.58245 23.3243 27.8865
332 1 -1.1104 15.9994 9.90416 21.9897 23.7848
664 2 2.2208 232.038 0.116425 14.971 16.5154
25 2 2.2208 232.038 5.592 9.20763 27.8437
659 2 2.2208 232.038 2.81602 1.00206 27.9291
359 2 2.2208 232.038 11.1789 -1.99063 16.8821
337 1 -1.1104 15.9994 7.03069 21.7146 24.0077
677 1 -1.1104 15.9994 9.86602 13.3615 26.4909
344 2 2.2208 232.038 5.34691 17.8312 13.8503
407 2 2.2208 232.038 8.52083 -1.80181 25.1604
9419 2 2.2208 232.038 13.9438 17.737 22.4376
342 1 -1.1104 15.9994 4.04706 21.7993 26.8643
353 2 2.2208 232.038 2.78235 -1.97131 19.6307
9692 2 2.2208 232.038 -0.145012 -1.8805 27.9584
384 2 2.2208 232.038 0.00909094 17.6917 19.4639
16 2 2.2208 232.038 8.38833 6.39562 28.0413
9591 1 -1.1104 15.9994 1.15659 2.22658 23.6793
29 2 2.2208 232.038 11.331 9.29158 28.0876
9340 2 2.2208 232.038 13.9743 -2.04426 19.4364
343 2 2.2208 232.038 8.34918 15.122 13.9127
351 1 -1.1104 15.9994 1.19 21.7778 26.7373
352 2 2.2208 232.038 2.70603 0.848645 16.5718
647 1 -1.1104 15.9994 4.33495 16.2774 23.6306
354 1 -1.1104 15.9994 4.29107 21.9555 23.9376
646 1 -1.1104 15.9994 1.24481 15.9309 23.7632
356 2 2.2208 232.038 8.28215 0.868104 16.5098
403 2 2.2208 232.038 2.84329 -1.84261 25.2641
358 2 2.2208 232.038 5.39356 0.822341 19.4917
325 2 2.2208 232.038 5.67096 3.66584 27.9907
360 2 2.2208 232.038 11.4226 0.807181 19.1322
361 1 -1.1104 15.9994 1.10623 21.658 23.7982
362 2 2.2208 232.038 2.6949 6.5334 16.802
363 2 2.2208 232.038 2.59808 3.64213 19.4617
364 1 -1.1104 15.9994 13.0264 19.3253 27.0828
365 2 2.2208 232.038 5.571 3.68392 16.7692
366 2 2.2208 232.038 8.49416 6.43109 16.7021
367 2 2.2208 232.038 8.38099 3.68805 19.4855
368 2 2.2208 232.038 5.57581 6.4902 19.6272
369 2 2.2208 232.038 11.2951 3.51933 16.5544
370 2 2.2208 232.038 11.4615 6.33132 19.6419
371 1 -1.1104 15.9994 12.5786 19.146 23.9458
372 2 2.2208 232.038 2.89416 12.1027 16.7083
373 2 2.2208 232.038 2.64198 9.23604 19.5504
650 1 -1.1104 15.9994 4.03075 18.8588 23.7656
375 2 2.2208 232.038 5.75705 9.34771 16.6757
376 2 2.2208 232.038 8.37927 12.3029 16.5614
377 2 2.2208 232.038 8.40295 9.18115 19.6769
378 2 2.2208 232.038 5.77345 12.182 19.5865
379 2 2.2208 232.038 11.3937 9.26576 16.6476
380 2 2.2208 232.038 11.1362 12.1098 19.4504
381 1 -1.1104 15.9994 12.6026 16.3015 26.4442
382 2 2.2208 232.038 2.85015 17.7666 16.8377
383 2 2.2208 232.038 2.77462 14.6796 19.5897
334 2 2.2208 232.038 5.68816 6.52748 13.9373
385 2 2.2208 232.038 5.52445 14.9317 16.7069
386 2 2.2208 232.038 8.12573 17.7354 16.7311
387 2 2.2208 232.038 8.40506 14.9673 19.4539
388 2 2.2208 232.038 5.65685 17.7633 19.6737
389 2 2.2208 232.038 11.3268 14.9674 16.6877
390 2 2.2208 232.038 11.0499 17.7417 19.4649
391 1 -1.1104 15.9994 12.547 21.8608 26.7595
392 2 2.2208 232.038 2.62528 23.573 16.6434
393 2 2.2208 232.038 2.81583 20.3029 19.6457
655 1 -1.1104 15.9994 9.69278 16.1614 23.6714
395 2 2.2208 232.038 5.37276 20.7574 16.8058
396 2 2.2208 232.038 8.29287 23.465 16.7178
397 2 2.2208 232.038 8.28642 20.5846 19.4975
398 2 2.2208 232.038 5.7272 23.3019 19.7801
399 2 2.2208 232.038 10.9249 20.6382 16.6481
400 2 2.2208 232.038 11.1823 23.6062 19.545
401 1 -1.1104 15.9994 12.6404 16.2321 23.6736
402 2 2.2208 232.038 2.74156 0.879469 22.3343
26 2 2.2208 232.038 8.357 12.0183 27.8466
404 1 -1.1104 15.9994 10.1171 18.9411 26.6279
670 2 2.2208 232.038 5.5721 14.7539 28.0214
406 2 2.2208 232.038 8.2993 0.615989 22.1953
654 1 -1.1104 15.9994 7.07683 16.3403 23.722
408 2 2.2208 232.038 5.63853 0.853128 25.1141
656 1 -1.1104 15.9994 6.94931 16.1074 26.5709
410 2 2.2208 232.038 11.2236 0.867652 25.3667
411 1 -1.1104 15.9994 6.96945 18.9789 26.5461
412 2 2.2208 232.038 3.04769 6.31392 22.0604
413 2 2.2208 232.038 2.61572 3.83499 24.9067
414 1 -1.1104 15.9994 9.63918 19.2055 23.8325
415 2 2.2208 232.038 5.61524 3.54813 22.1994
416 2 2.2208 232.038 8.4974 6.52212 22.3983
417 2 2.2208 232.038 8.47184 3.67258 25.1998
418 2 2.2208 232.038 5.73313 6.42564 25.1514
419 2 2.2208 232.038 11.1339 3.44801 22.3594
420 2 2.2208 232.038 11.239 6.37398 25.2249
421 1 -1.1104 15.9994 6.77273 18.9538 23.9122
422 2 2.2208 232.038 2.8815 11.9252 22.3299
423 2 2.2208 232.038 2.91252 9.23445 24.9903
424 1 -1.1104 15.9994 9.63554 16.189 26.585
425 2 2.2208 232.038 5.56079 9.24078 22.2004
426 2 2.2208 232.038 8.20782 12.1346 22.367
427 2 2.2208 232.038 8.43512 9.33453 25.0914
428 2 2.2208 232.038 5.56809 12.0566 25.029
429 2 2.2208 232.038 11.1524 9.33073 22.2721
430 2 2.2208 232.038 11.3782 11.9628 25.2456
652 1 -1.1104 15.9994 1.17734 19.0326 26.8409
432 2 2.2208 232.038 2.71582 17.6236 22.5356
433 2 2.2208 232.038 2.64829 14.695 25.1654
651 1 -1.1104 15.9994 3.90398 19.0513 26.698
435 2 2.2208 232.038 5.76497 15.0878 22.2337
436 2 2.2208 232.038 8.39908 17.8476 22.438
437 2 2.2208 232.038 8.43086 14.7131 25.0749
438 2 2.2208 232.038 5.5413 17.5496 25.1549
439 2 2.2208 232.038 11.1751 14.814 22.4601
440 2 2.2208 232.038 11.1974 17.4906 25.0246
645 1 -1.1104 15.9994 12.7655 13.5773 26.4263
442 1 -1.1104 15.9994 12.6127 21.8522 23.7226
443 2 2.2208 232.038 2.77333 20.5559 25.1996
649 1 -1.1104 15.9994 4.0325 16.1714 26.4043
445 2 2.2208 232.038 5.49056 20.6301 22.3637
446 2 2.2208 232.038 8.41399 23.173 22.4906
447 2 2.2208 232.038 8.42322 20.5371 25.2953
448 2 2.2208 232.038 5.67008 23.3203 25.2321
449 2 2.2208 232.038 11.1717 20.6155 22.3986
450 2 2.2208 232.038 11.3998 23.2861 25.1055
451 1 -1.1104 15.9994 1.10092 -0.667118 15.3638
452 1 -1.1104 15.9994 4.06639 -0.603227 15.3825
453 1 -1.1104 15.9994 1.29715 2.11161 15.3572
454 1 -1.1104 15.9994 4.1649 2.11265 15.4725
455 1 -1.1104 15.9994 6.82712 -0.494612 15.0508
456 1 -1.1104 15.9994 9.69411 -0.521447 15.5487
457 1 -1.1104 15.9994 6.79491 2.35995 15.1974
458 1 -1.1104 15.9994 9.73795 2.16668 15.0214
459 1 -1.1104 15.9994 12.7463 -0.337008 15.2067
460 1 -1.1104 15.9994 12.4467 2.21487 15.0524
461 1 -1.1104 15.9994 1.50533 4.99573 15.0733
462 1 -1.1104 15.9994 4.42243 4.89656 15.1651
463 1 -1.1104 15.9994 1.44102 7.83959 15.4129
464 1 -1.1104 15.9994 4.28782 7.76731 15.2075
465 1 -1.1104 15.9994 7.15757 5.2475 15.1306
466 1 -1.1104 15.9994 10.1639 5.09617 15.243
467 1 -1.1104 15.9994 7.10849 7.83247 15.2554
468 1 -1.1104 15.9994 9.8071 7.87471 15.3573
469 1 -1.1104 15.9994 12.8372 4.93568 15.3347
470 1 -1.1104 15.9994 12.6593 7.75237 15.3266
471 1 -1.1104 15.9994 1.46057 10.6258 15.1328
472 1 -1.1104 15.9994 4.22548 10.7082 15.0874
473 1 -1.1104 15.9994 1.27667 13.2392 15.3752
474 1 -1.1104 15.9994 4.17412 13.5557 15.2172
475 1 -1.1104 15.9994 6.88475 10.7691 15.4087
476 1 -1.1104 15.9994 9.77568 10.8772 15.2498
477 1 -1.1104 15.9994 6.89859 13.6389 15.1459
478 1 -1.1104 15.9994 9.9053 13.8863 15.1854
479 1 -1.1104 15.9994 12.7061 10.5574 15.2209
480 1 -1.1104 15.9994 12.8087 13.4153 15.1894
481 1 -1.1104 15.9994 1.64703 15.9562 15.3652
482 1 -1.1104 15.9994 4.19193 16.3374 15.1326
483 1 -1.1104 15.9994 1.37525 18.7002 15.1989
484 1 -1.1104 15.9994 4.04244 19.2323 15.3526
485 1 -1.1104 15.9994 6.8698 16.5199 15.1744
486 1 -1.1104 15.9994 9.7511 16.4565 15.3968
487 1 -1.1104 15.9994 6.84749 19.3904 15.442
488 1 -1.1104 15.9994 9.60649 19.2175 15.2431
489 1 -1.1104 15.9994 12.5698 16.1905 15.3032
490 1 -1.1104 15.9994 12.4253 18.9618 15.2802
491 1 -1.1104 15.9994 1.35397 22.203 15.2143
492 1 -1.1104 15.9994 4.23681 21.9279 15.0877
493 1 -1.1104 15.9994 6.90483 22.4501 15.391
494 1 -1.1104 15.9994 9.63737 21.8023 15.2614
495 1 -1.1104 15.9994 12.4273 21.8964 15.2498
496 1 -1.1104 15.9994 1.12764 -0.403619 18.1796
497 1 -1.1104 15.9994 3.9796 -0.527432 18.2326
498 1 -1.1104 15.9994 1.16054 -0.68245 20.7857
499 1 -1.1104 15.9994 4.14146 -0.63686 21.1345
500 1 -1.1104 15.9994 0.978659 2.32654 18.1688
501 1 -1.1104 15.9994 3.75501 2.05375 18.2294
502 1 -1.1104 15.9994 1.19727 2.27515 20.9807
503 1 -1.1104 15.9994 4.04793 2.19987 21.0962
504 1 -1.1104 15.9994 6.8316 -0.621619 18.2136
505 1 -1.1104 15.9994 9.68428 -0.485202 18.1068
506 1 -1.1104 15.9994 7.00227 -0.926673 21.0258
507 1 -1.1104 15.9994 9.79305 -0.907331 20.81
508 1 -1.1104 15.9994 6.94287 2.36659 17.8548
509 1 -1.1104 15.9994 9.85695 2.0433 17.7719
510 1 -1.1104 15.9994 7.06502 2.25976 20.6943
511 1 -1.1104 15.9994 9.9537 2.13543 20.5105
512 1 -1.1104 15.9994 12.6781 -0.763933 18.0935
513 1 -1.1104 15.9994 12.6951 -0.519943 20.7164
514 1 -1.1104 15.9994 12.5834 2.10386 17.8498
515 1 -1.1104 15.9994 12.6821 2.17118 20.7229
516 1 -1.1104 15.9994 1.25455 5.04454 17.9088
517 1 -1.1104 15.9994 3.84061 4.81648 18.1327
518 1 -1.1104 15.9994 1.43467 5.02213 20.891
519 1 -1.1104 15.9994 4.41418 5.01883 20.8094
520 1 -1.1104 15.9994 1.40651 7.82824 18.0711
521 1 -1.1104 15.9994 4.16906 7.69928 17.9695
522 1 -1.1104 15.9994 1.18913 7.7254 20.6732
523 1 -1.1104 15.9994 4.1739 7.9208 20.664
524 1 -1.1104 15.9994 6.78212 5.03905 18.1872
525 1 -1.1104 15.9994 9.64242 5.03405 18.1272
526 1 -1.1104 15.9994 7.05674 4.92203 21.044
527 1 -1.1104 15.9994 9.78493 4.9981 21.0687
528 1 -1.1104 15.9994 7.06617 7.83944 18.3513
529 1 -1.1104 15.9994 10.1338 7.8854 18.1498
530 1 -1.1104 15.9994 7.0378 7.58031 21.1694
531 1 -1.1104 15.9994 9.88889 7.8281 21.0638
532 1 -1.1104 15.9994 12.6744 4.89695 18.1248
533 1 -1.1104 15.9994 12.6045 4.82515 21.1388
534 1 -1.1104 15.9994 12.7639 7.87724 18.1418
535 1 -1.1104 15.9994 12.6549 7.84858 21.2644
536 1 -1.1104 15.9994 1.41173 10.7333 18.1933
537 1 -1.1104 15.9994 4.11029 10.6048 18.0244
538 1 -1.1104 15.9994 1.35532 10.6615 20.85
539 1 -1.1104 15.9994 4.21017 10.5689 20.8613
540 1 -1.1104 15.9994 1.60071 13.4918 18.1127
541 1 -1.1104 15.9994 4.07589 13.5877 18.1502
542 1 -1.1104 15.9994 1.49389 13.4464 21.0151
543 1 -1.1104 15.9994 4.56368 13.3474 21.0215
544 1 -1.1104 15.9994 6.98127 10.6733 17.9238
545 1 -1.1104 15.9994 9.58911 10.7851 17.956
546 1 -1.1104 15.9994 7.04481 10.7019 20.7895
547 1 -1.1104 15.9994 9.8519 10.4699 20.9149
548 1 -1.1104 15.9994 6.8699 13.6423 17.9619
549 1 -1.1104 15.9994 9.79849 13.6047 17.9763
550 1 -1.1104 15.9994 7.20969 13.6055 20.7984
551 1 -1.1104 15.9994 9.84136 13.2856 21.0324
552 1 -1.1104 15.9994 12.3739 10.7879 18.1159
553 1 -1.1104 15.9994 12.6613 10.7293 20.7827
554 1 -1.1104 15.9994 12.3693 13.543 18.0632
555 1 -1.1104 15.9994 12.6129 13.4347 21.109
556 1 -1.1104 15.9994 1.29917 16.2131 18.1239
557 1 -1.1104 15.9994 4.0862 16.1529 17.8513
558 1 -1.1104 15.9994 1.54446 16.0868 21.0608
559 1 -1.1104 15.9994 4.08478 16.097 20.8859
560 1 -1.1104 15.9994 1.60321 18.8795 18.3355
561 1 -1.1104 15.9994 4.3229 19.1341 18.1118
562 1 -1.1104 15.9994 1.21435 18.7031 24.0363
563 1 -1.1104 15.9994 4.30204 18.9185 21.0316
564 1 -1.1104 15.9994 6.95928 16.2798 17.9117
565 1 -1.1104 15.9994 9.82249 16.3809 17.9572
566 1 -1.1104 15.9994 7.19103 16.3092 20.8546
567 1 -1.1104 15.9994 9.69773 16.1859 20.8091
568 1 -1.1104 15.9994 6.92529 19.0938 18.434
569 1 -1.1104 15.9994 9.85495 19.174 17.9328
570 1 -1.1104 15.9994 7.02065 19.0144 21.1356
571 1 -1.1104 15.9994 9.70162 19.1985 20.9806
572 1 -1.1104 15.9994 12.721 16.4416 17.9809
573 1 -1.1104 15.9994 12.6035 16.2354 20.9312
574 1 -1.1104 15.9994 12.4326 19.2195 18.3808
575 1 -1.1104 15.9994 12.2815 19.1701 21.0456
576 1 -1.1104 15.9994 1.07808 21.5663 20.3899
577 1 -1.1104 15.9994 3.27114 21.6558 17.8158
578 1 -1.1104 15.9994 1.35577 18.9848 21.0907
579 1 -1.1104 15.9994 4.60763 21.6126 20.5262
580 1 -1.1104 15.9994 6.77251 21.7655 18.2277
581 1 -1.1104 15.9994 9.63633 22.1116 18.2247
582 1 -1.1104 15.9994 7.16948 21.8206 20.9738
583 1 -1.1104 15.9994 9.82941 21.9717 21.078
584 1 -1.1104 15.9994 12.3437 22.0469 18.0862
585 1 -1.1104 15.9994 12.9655 22.1789 20.9372
648 1 -1.1104 15.9994 1.37855 16.1523 26.5927
587 1 -1.1104 15.9994 4.32291 -0.704085 24.1104
588 1 -1.1104 15.9994 1.15737 -0.630957 26.3758
589 1 -1.1104 15.9994 4.30655 -0.56706 26.6227
590 1 -1.1104 15.9994 1.50771 -0.49531 23.7179
591 1 -1.1104 15.9994 4.08681 2.21909 23.844
592 1 -1.1104 15.9994 1.25691 2.19943 26.5932
593 1 -1.1104 15.9994 4.03415 2.26785 26.3343
594 1 -1.1104 15.9994 7.07627 -0.719299 23.5204
595 1 -1.1104 15.9994 9.77803 -0.580271 23.6441
596 1 -1.1104 15.9994 7.26631 -0.543121 26.5116
597 1 -1.1104 15.9994 9.89422 -0.43796 26.8185
598 1 -1.1104 15.9994 7.17623 2.09319 23.5294
599 1 -1.1104 15.9994 9.89471 2.39596 23.888
600 1 -1.1104 15.9994 7.0835 2.2614 26.4379
601 1 -1.1104 15.9994 9.82077 2.53597 26.518
602 1 -1.1104 15.9994 12.5124 -0.681747 23.5867
603 1 -1.1104 15.9994 12.6486 -0.723859 26.3777
604 1 -1.1104 15.9994 12.429 2.02583 23.7799
605 1 -1.1104 15.9994 12.8001 2.1364 26.5711
606 1 -1.1104 15.9994 1.32196 5.06009 23.6122
607 1 -1.1104 15.9994 4.18134 5.22131 23.6415
608 1 -1.1104 15.9994 1.58309 5.20674 26.4835
609 1 -1.1104 15.9994 4.38262 5.02404 26.5603
610 1 -1.1104 15.9994 1.71495 7.6442 23.586
611 1 -1.1104 15.9994 4.22924 8.02758 23.4713
612 1 -1.1104 15.9994 1.41246 7.77139 26.907
613 1 -1.1104 15.9994 4.11782 7.71196 26.1904
614 1 -1.1104 15.9994 7.04972 5.00321 23.7958
615 1 -1.1104 15.9994 9.78733 5.0165 23.8049
616 1 -1.1104 15.9994 6.96654 4.98486 26.6055
617 1 -1.1104 15.9994 9.70779 5.14696 26.6337
618 1 -1.1104 15.9994 7.15521 7.93628 23.5784
619 1 -1.1104 15.9994 9.76549 7.95284 23.92
620 1 -1.1104 15.9994 7.04896 7.96869 26.3106
621 1 -1.1104 15.9994 9.92648 7.81337 26.7288
622 1 -1.1104 15.9994 12.3629 4.72648 23.8901
623 1 -1.1104 15.9994 12.5789 4.87721 26.7089
624 1 -1.1104 15.9994 12.7078 7.71696 24.0381
625 1 -1.1104 15.9994 12.7173 7.70842 26.6344
626 1 -1.1104 15.9994 1.29361 10.4783 23.7272
627 1 -1.1104 15.9994 4.18626 10.6926 23.8565
628 1 -1.1104 15.9994 1.5483 10.5519 26.3891
629 1 -1.1104 15.9994 4.42689 10.6022 26.6105
630 1 -1.1104 15.9994 1.29641 13.1647 23.8816
631 1 -1.1104 15.9994 4.22597 13.3655 23.8347
632 1 -1.1104 15.9994 1.51831 13.4169 26.7033