ITEM: TIMESTEP
470000
ITEM: NUMBER OF ATOMS
18000
ITEM: BOX BOUNDS xy xz yz pp pp pp
-1.7749346876579852e-01 2.8071493468766679e+01 0.0000000000000000e+00
-2.0013423249530526e+00 3.3672934232497391e+02 0.0000000000000000e+00
-1.8275553950432202e-01 2.8076755539502940e+01 0.0000000000000000e+00
ITEM: ATOMS id type q mass x y z
328 2 2.2208 232.038 8.16971 -1.97823 13.8803
324 1 -1.1104 15.9994 12.4358 5.10334 12.6107
326 2 2.2208 232.038 2.57696 -1.86401 13.8568
4 1 -1.1104 15.9994 12.4622 22.0468 12.3514
323 1 -1.1104 15.9994 9.77543 8.07831 12.6492
322 1 -1.1104 15.9994 6.88857 7.78088 12.5029
9096 2 2.2208 232.038 13.9486 17.7268 11.054
8 2 2.2208 232.038 5.38407 0.920901 2.61625
9 1 -1.1104 15.9994 12.402 7.77516 12.4795
10 2 2.2208 232.038 11.0305 1.08488 2.66661
11 1 -1.1104 15.9994 9.73228 21.9949 12.5908
321 1 -1.1104 15.9994 9.53345 5.26352 12.5981
13 2 2.2208 232.038 2.13013 3.58013 2.68462
14 1 -1.1104 15.9994 7.006 22.0429 12.4675
9031 2 2.2208 232.038 13.8717 0.651741 5.33561
5 2 2.2208 232.038 13.8208 14.9388 8.15827
17 2 2.2208 232.038 8.24263 3.5576 2.55345
18 2 2.2208 232.038 5.36912 6.43061 2.5848
8982 2 2.2208 232.038 13.7979 -1.83 2.54099
20 2 2.2208 232.038 11.1089 6.54376 2.50526
21 1 -1.1104 15.9994 3.85381 21.9378 12.3618
22 1 -1.1104 15.9994 1.00276 16.01 12.7248
23 2 2.2208 232.038 2.54642 9.26735 2.71423
320 1 -1.1104 15.9994 6.74939 4.87303 12.2857
9041 2 2.2208 232.038 13.6767 6.70991 5.52627
55 2 2.2208 232.038 5.28274 -1.95891 5.59221
27 2 2.2208 232.038 8.09354 9.31151 2.56979
28 2 2.2208 232.038 5.27937 12.1219 2.47969
8994 2 2.2208 232.038 -0.140498 6.41927 8.25631
30 2 2.2208 232.038 11.1718 12.1553 2.52002
31 1 -1.1104 15.9994 12.729 13.3778 12.3688
32 1 -1.1104 15.9994 12.1726 10.6278 12.4849
33 2 2.2208 232.038 2.60914 14.9231 2.67335
319 1 -1.1104 15.9994 3.98253 7.63949 12.7085
35 1 -1.1104 15.9994 9.51764 13.8416 12.1292
36 1 -1.1104 15.9994 7.0056 13.6382 12.4944
37 2 2.2208 232.038 8.14586 14.8507 2.64
38 2 2.2208 232.038 5.52076 17.7707 2.64192
39 1 -1.1104 15.9994 9.45235 10.8174 12.3896
40 2 2.2208 232.038 11.0178 17.7599 2.60247
41 1 -1.1104 15.9994 6.74112 10.4407 12.6482
42 1 -1.1104 15.9994 3.9364 13.1043 12.599
43 2 2.2208 232.038 2.5299 20.5738 2.48241
318 1 -1.1104 15.9994 1.15266 7.73434 12.4588
45 1 -1.1104 15.9994 1.33006 13.3504 12.743
46 1 -1.1104 15.9994 3.8393 10.5085 12.4162
47 2 2.2208 232.038 8.12321 20.5277 2.64918
48 2 2.2208 232.038 5.21893 23.5477 2.55132
49 1 -1.1104 15.9994 1.05173 10.5209 12.493
50 2 2.2208 232.038 10.8992 23.3782 2.38549
51 1 -1.1104 15.9994 1.02028 21.9534 12.2873
52 2 2.2208 232.038 2.40297 0.81191 5.36697
9081 2 2.2208 232.038 13.7546 0.893678 11.1138
54 1 -1.1104 15.9994 12.2475 19.2648 12.6257
349 2 2.2208 232.038 5.26264 23.366 13.9479
56 2 2.2208 232.038 8.19932 0.813017 5.35416
103 2 2.2208 232.038 5.35395 -1.97135 11.0154
58 2 2.2208 232.038 5.43557 0.771831 8.18136
9329 2 2.2208 232.038 13.9015 14.813 13.8132
60 2 2.2208 232.038 11.0428 0.806344 8.14513
61 1 -1.1104 15.9994 12.3682 16.2736 12.4517
62 2 2.2208 232.038 2.56457 6.53857 5.29131
63 2 2.2208 232.038 2.79256 3.39312 8.15023
64 1 -1.1104 15.9994 9.3904 19.3655 12.3149
65 2 2.2208 232.038 5.3513 3.70209 5.25759
66 2 2.2208 232.038 8.10133 6.67715 5.35335
67 2 2.2208 232.038 8.22891 3.74888 8.115
68 2 2.2208 232.038 5.29371 6.47539 8.11707
69 2 2.2208 232.038 10.833 3.83857 5.4308
70 2 2.2208 232.038 10.887 6.58746 8.39387
71 1 -1.1104 15.9994 6.60658 19.2676 12.5633
72 2 2.2208 232.038 2.59476 11.9319 5.36918
73 2 2.2208 232.038 2.56439 9.22565 8.3646
74 1 -1.1104 15.9994 9.51069 16.5858 12.5198
75 2 2.2208 232.038 4.99486 9.15362 5.40218
76 2 2.2208 232.038 8.05461 12.0107 5.32683
77 2 2.2208 232.038 8.27629 9.30623 8.26074
78 2 2.2208 232.038 5.30697 12.0406 8.24497
79 2 2.2208 232.038 11.1217 9.52823 5.35605
80 2 2.2208 232.038 11.0197 12.1611 8.21193
317 1 -1.1104 15.9994 4.07692 5.03327 12.5005
82 2 2.2208 232.038 2.55654 17.8347 5.40606
83 2 2.2208 232.038 2.34081 14.6712 8.26517
653 1 -1.1104 15.9994 4.09891 19.4034 1.23601
85 2 2.2208 232.038 5.54676 14.8538 5.4126
86 2 2.2208 232.038 8.20203 17.7332 5.46337
87 2 2.2208 232.038 8.42175 14.992 8.11433
88 2 2.2208 232.038 5.30105 17.7062 8.30612
89 2 2.2208 232.038 11.082 14.8774 5.37516
90 2 2.2208 232.038 11.0152 17.8359 8.12177
344 2 2.2208 232.038 5.33522 17.7863 13.8424
92 2 2.2208 232.038 2.58438 23.2483 5.41767
93 2 2.2208 232.038 2.65047 20.6001 8.17068
9086 2 2.2208 232.038 13.8853 6.47941 11.037
95 2 2.2208 232.038 5.46598 20.4533 5.57293
96 2 2.2208 232.038 8.06755 23.305 5.39664
97 2 2.2208 232.038 8.21201 20.4971 8.17875
98 2 2.2208 232.038 5.39429 23.4436 8.29788
99 2 2.2208 232.038 11.0927 20.5861 5.3121
100 2 2.2208 232.038 11.1501 23.0018 8.08404
101 1 -1.1104 15.9994 6.787 16.3901 12.5224
102 2 2.2208 232.038 2.62727 0.801218 10.9012
330 2 2.2208 232.038 11.0421 0.708245 13.7338
104 2 2.2208 232.038 8.42768 0.803022 10.9345
333 2 2.2208 232.038 8.12606 3.40797 13.8675
106 1 -1.1104 15.9994 4.03736 19.0564 12.4615
107 2 2.2208 232.038 2.75772 6.33062 11.0637
108 2 2.2208 232.038 5.59927 3.56337 10.9022
109 2 2.2208 232.038 8.02669 6.54624 10.9632
110 2 2.2208 232.038 10.9501 3.64778 11.133
111 1 -1.1104 15.9994 1.32018 19.1602 12.1522
112 2 2.2208 232.038 2.39472 11.9361 11.0849
113 2 2.2208 232.038 5.51391 9.1909 11.1549
114 2 2.2208 232.038 8.20096 12.5016 10.791
115 2 2.2208 232.038 10.9357 9.48373 11.1395
116 1 -1.1104 15.9994 3.9596 16.1183 12.5985
117 2 2.2208 232.038 2.68829 17.6954 10.937
118 2 2.2208 232.038 5.41648 15.0232 11.1589
119 2 2.2208 232.038 8.15832 17.9219 11.1055
120 2 2.2208 232.038 11.197 15.0104 11.0465
7 2 2.2208 232.038 7.99723 -1.99252 2.47735
122 2 2.2208 232.038 2.57485 23.3304 11.0321
123 2 2.2208 232.038 5.40283 20.6773 11.0362
124 2 2.2208 232.038 8.27122 23.1899 11.1573
125 2 2.2208 232.038 11.0678 20.716 11.1498
126 1 -1.1104 15.9994 1.06639 -0.819062 1.11458
127 1 -1.1104 15.9994 3.9899 -0.898536 1.13193
128 1 -1.1104 15.9994 0.963659 -0.737897 3.97664
129 1 -1.1104 15.9994 3.85729 -0.65076 4.11671
130 1 -1.1104 15.9994 1.06088 1.87244 1.10486
131 1 -1.1104 15.9994 3.95073 1.99853 1.2107
132 1 -1.1104 15.9994 0.876346 2.18467 4.04706
133 1 -1.1104 15.9994 3.76357 2.20728 3.86628
134 1 -1.1104 15.9994 6.7399 -0.648272 0.999563
135 1 -1.1104 15.9994 9.68903 -0.524079 1.20297
136 1 -1.1104 15.9994 9.42752 -0.384691 3.96989
9334 2 2.2208 232.038 13.8037 20.6055 13.8668
138 1 -1.1104 15.9994 6.93015 2.11585 1.14491
139 1 -1.1104 15.9994 9.73336 2.22942 1.14165
140 1 -1.1104 15.9994 6.75216 -0.531198 3.90566
141 1 -1.1104 15.9994 9.47105 2.23035 4.09932
142 1 -1.1104 15.9994 12.5508 -0.392145 1.21973
143 1 -1.1104 15.9994 12.5162 -0.703409 3.94968
144 1 -1.1104 15.9994 12.3957 2.29202 1.12076
145 1 -1.1104 15.9994 12.3179 2.24701 3.9336
146 1 -1.1104 15.9994 1.13879 4.83964 1.10228
147 1 -1.1104 15.9994 4.09108 4.92589 1.15074
148 1 -1.1104 15.9994 0.775971 5.19669 4.0026
149 1 -1.1104 15.9994 3.63787 4.96352 3.80049
150 1 -1.1104 15.9994 1.30305 7.68215 1.22539
151 1 -1.1104 15.9994 3.89568 7.79243 1.06868
152 1 -1.1104 15.9994 1.25231 7.85171 4.00657
153 1 -1.1104 15.9994 4.09074 7.98851 3.8863
154 1 -1.1104 15.9994 6.95861 4.81149 1.09761
155 1 -1.1104 15.9994 9.52824 5.05319 1.29123
156 1 -1.1104 15.9994 6.68749 2.327 3.97273
157 1 -1.1104 15.9994 9.64197 5.19806 3.97998
158 1 -1.1104 15.9994 6.72912 7.69678 0.87442
159 1 -1.1104 15.9994 9.47376 7.79387 1.16191
160 1 -1.1104 15.9994 6.62055 5.05199 3.90064
161 1 -1.1104 15.9994 9.52772 8.0922 4.05539
162 1 -1.1104 15.9994 12.2671 5.13908 1.05929
163 1 -1.1104 15.9994 12.3866 5.20143 4.15839
164 1 -1.1104 15.9994 12.364 7.87038 1.20633
165 1 -1.1104 15.9994 12.3508 7.94102 3.86307
166 1 -1.1104 15.9994 1.16869 10.4561 1.12175
167 1 -1.1104 15.9994 3.89322 10.6569 1.01122
168 1 -1.1104 15.9994 1.11114 10.7353 3.9623
169 1 -1.1104 15.9994 3.82042 10.6653 4.02658
170 1 -1.1104 15.9994 1.65725 13.3533 1.31684
171 1 -1.1104 15.9994 4.08907 13.5398 4.12456
172 1 -1.1104 15.9994 1.07195 13.4048 3.98129
173 1 -1.1104 15.9994 6.65804 13.5326 3.75677
174 1 -1.1104 15.9994 6.7073 10.7033 0.830774
175 1 -1.1104 15.9994 9.7371 10.5873 1.28143
176 1 -1.1104 15.9994 6.76951 7.91003 3.98508
177 1 -1.1104 15.9994 9.49856 10.8132 3.97244
178 1 -1.1104 15.9994 7.00696 13.4254 0.943863
179 1 -1.1104 15.9994 9.71157 13.4503 1.03163
180 1 -1.1104 15.9994 6.50297 10.6256 3.87846
181 1 -1.1104 15.9994 9.56409 13.553 3.83808
182 1 -1.1104 15.9994 12.6497 10.7606 1.09087
183 1 -1.1104 15.9994 12.4624 10.8999 4.02715
184 1 -1.1104 15.9994 12.6069 13.5617 0.936257
185 1 -1.1104 15.9994 12.3116 13.5002 4.0764
186 1 -1.1104 15.9994 1.21494 16.1664 1.15252
187 1 -1.1104 15.9994 4.27536 13.573 1.36665
188 1 -1.1104 15.9994 1.19551 16.2264 4.05496
189 1 -1.1104 15.9994 3.91628 16.3988 3.92954
190 1 -1.1104 15.9994 1.2756 19.2372 1.15094
191 1 -1.1104 15.9994 4.02746 16.1884 1.05891
192 1 -1.1104 15.9994 1.00024 18.9728 4.11743
193 1 -1.1104 15.9994 3.8678 19.1977 4.07617
194 1 -1.1104 15.9994 6.89978 16.2702 1.14566
195 1 -1.1104 15.9994 9.77713 16.3352 1.11274
196 1 -1.1104 15.9994 6.81757 16.1211 4.00766
197 1 -1.1104 15.9994 9.67682 16.5548 3.72683
198 1 -1.1104 15.9994 6.74399 19.2117 1.25886
199 1 -1.1104 15.9994 9.39918 18.9771 1.44564
200 1 -1.1104 15.9994 6.72927 18.9603 4.26532
201 1 -1.1104 15.9994 9.71446 19.1726 3.96058
202 1 -1.1104 15.9994 12.5377 16.6139 1.18459
203 1 -1.1104 15.9994 12.5493 16.551 4.14974
204 1 -1.1104 15.9994 12.2116 19.2786 1.02506
205 1 -1.1104 15.9994 12.4872 19.1888 3.97049
206 1 -1.1104 15.9994 1.15925 21.9485 1.07475
207 1 -1.1104 15.9994 3.86555 22.263 1.40483
208 1 -1.1104 15.9994 1.24293 21.9434 3.73344
209 1 -1.1104 15.9994 4.04333 21.9111 4.12315
210 1 -1.1104 15.9994 6.94814 22.1823 1.19886
211 1 -1.1104 15.9994 9.62689 22.0674 1.17777
212 1 -1.1104 15.9994 6.82205 21.828 4.1089
213 1 -1.1104 15.9994 9.67612 22.0825 4.21611
214 1 -1.1104 15.9994 12.5269 21.9159 1.0263
215 1 -1.1104 15.9994 12.3854 21.881 3.79769
216 1 -1.1104 15.9994 0.949562 -0.424326 6.98917
217 1 -1.1104 15.9994 3.93427 -0.684015 6.82096
218 1 -1.1104 15.9994 1.2341 -0.830106 9.81733
219 1 -1.1104 15.9994 4.11836 -0.514152 9.55288
220 1 -1.1104 15.9994 0.983478 2.26684 6.72177
221 1 -1.1104 15.9994 3.8066 2.04998 6.61121
222 1 -1.1104 15.9994 1.2195 1.97982 9.51586
223 1 -1.1104 15.9994 4.28323 2.30742 9.47182
224 1 -1.1104 15.9994 6.75643 -0.368598 6.66778
225 1 -1.1104 15.9994 9.4772 -0.335184 6.8277
226 1 -1.1104 15.9994 6.91719 -0.654748 9.43548
227 1 -1.1104 15.9994 9.67914 -0.799887 9.60459
228 1 -1.1104 15.9994 6.71619 2.61445 6.83401
229 1 -1.1104 15.9994 9.52398 2.39795 6.88968
230 1 -1.1104 15.9994 6.90874 2.16264 9.54018
231 1 -1.1104 15.9994 9.60725 2.3172 9.83808
232 1 -1.1104 15.9994 12.3409 -0.621174 6.69611
233 1 -1.1104 15.9994 12.3497 -0.718315 9.56413
234 1 -1.1104 15.9994 12.5082 2.2328 6.92753
235 1 -1.1104 15.9994 12.7163 2.44408 9.67179
236 1 -1.1104 15.9994 1.19336 4.90819 6.64086
237 1 -1.1104 15.9994 3.93785 5.06682 6.70869
238 1 -1.1104 15.9994 1.27471 5.07636 9.40872
239 1 -1.1104 15.9994 3.90693 4.88376 9.52759
240 1 -1.1104 15.9994 1.086 7.84418 6.73683
241 1 -1.1104 15.9994 3.85095 7.88069 6.80565
242 1 -1.1104 15.9994 1.04389 7.91865 9.70883
243 1 -1.1104 15.9994 4.03386 7.89164 9.73681
244 1 -1.1104 15.9994 6.78151 5.29846 6.79122
245 1 -1.1104 15.9994 9.71287 5.188 6.95531
246 1 -1.1104 15.9994 6.73414 5.17784 9.41522
247 1 -1.1104 15.9994 9.39076 5.11408 9.63277
248 1 -1.1104 15.9994 6.71015 7.89385 6.85349
249 1 -1.1104 15.9994 9.64682 7.91774 6.85045
250 1 -1.1104 15.9994 6.75322 8.08019 9.50075
251 1 -1.1104 15.9994 9.62681 8.10847 9.81146
252 1 -1.1104 15.9994 12.5807 5.1639 6.90183
253 1 -1.1104 15.9994 12.4637 5.19874 9.61482
254 1 -1.1104 15.9994 12.4609 8.12262 6.93794
255 1 -1.1104 15.9994 12.2576 8.10267 9.51847
256 1 -1.1104 15.9994 1.24134 10.5782 6.8861
257 1 -1.1104 15.9994 3.97946 10.499 6.94363
258 1 -1.1104 15.9994 0.965936 10.5911 9.44907
259 1 -1.1104 15.9994 3.79789 10.5952 9.82467
260 1 -1.1104 15.9994 1.24682 13.2505 6.64668
261 1 -1.1104 15.9994 3.89849 13.4331 6.88632
262 1 -1.1104 15.9994 1.07872 13.2779 9.68543
263 1 -1.1104 15.9994 3.77916 13.2723 9.61467
264 1 -1.1104 15.9994 6.70351 10.4878 6.7732
265 1 -1.1104 15.9994 9.63117 10.6269 6.79489
266 1 -1.1104 15.9994 6.76993 10.8765 9.80061
267 1 -1.1104 15.9994 9.59476 10.9336 9.55396
268 1 -1.1104 15.9994 6.78446 13.345 6.55123
269 1 -1.1104 15.9994 9.71251 13.3874 6.51342
270 1 -1.1104 15.9994 6.57637 13.7604 9.53573
271 1 -1.1104 15.9994 9.63449 13.6612 9.4684
272 1 -1.1104 15.9994 12.4541 10.9879 6.86396
273 1 -1.1104 15.9994 12.6905 10.9799 9.58201
274 1 -1.1104 15.9994 12.5194 13.4949 6.83336
275 1 -1.1104 15.9994 12.5529 13.6813 9.58672
276 1 -1.1104 15.9994 1.1011 16.3217 6.94754
277 1 -1.1104 15.9994 3.94903 16.3731 6.87815
278 1 -1.1104 15.9994 1.16758 16.2201 9.82323
279 1 -1.1104 15.9994 3.89725 15.9006 9.54321
280 1 -1.1104 15.9994 1.02957 19.1772 6.80739
281 1 -1.1104 15.9994 3.89209 19.2685 6.903
282 1 -1.1104 15.9994 1.06661 19.2384 9.55437
283 1 -1.1104 15.9994 3.99353 19.1543 9.71517
284 1 -1.1104 15.9994 6.83199 16.2917 6.88091
285 1 -1.1104 15.9994 9.62453 16.3541 6.71386
286 1 -1.1104 15.9994 6.67069 16.3752 9.74612
287 1 -1.1104 15.9994 9.64086 16.5006 9.59503
288 1 -1.1104 15.9994 6.66739 19.113 7.01569
289 1 -1.1104 15.9994 9.58983 19.1515 6.71894
290 1 -1.1104 15.9994 6.90575 19.1232 9.63668
291 1 -1.1104 15.9994 9.90785 19.2825 9.48346
292 1 -1.1104 15.9994 12.6431 16.2896 6.92646
293 1 -1.1104 15.9994 12.4716 16.5148 9.38846
294 1 -1.1104 15.9994 12.43 19.0528 6.79196
295 1 -1.1104 15.9994 12.7382 19.5842 9.87433
296 1 -1.1104 15.9994 1.13286 21.89 6.49635
297 1 -1.1104 15.9994 3.87089 21.8853 6.87573
298 1 -1.1104 15.9994 1.32028 22.026 9.49261
299 1 -1.1104 15.9994 4.21477 21.9193 9.75203
300 1 -1.1104 15.9994 6.65158 21.836 6.92071
301 1 -1.1104 15.9994 9.50795 21.8729 7.1017
302 1 -1.1104 15.9994 6.91822 21.9544 9.5196
303 1 -1.1104 15.9994 9.9508 22.2146 9.72623
304 1 -1.1104 15.9994 12.4343 21.9232 6.64218
305 1 -1.1104 15.9994 12.8147 22.272 9.53716
306 1 -1.1104 15.9994 0.991824 -0.649333 12.7006
307 1 -1.1104 15.9994 3.83441 -0.408161 12.4587
308 1 -1.1104 15.9994 1.19949 2.09391 12.2815
309 1 -1.1104 15.9994 3.95754 2.28364 12.1661
310 1 -1.1104 15.9994 6.79093 -0.684516 12.3156
311 1 -1.1104 15.9994 9.55781 -0.542057 12.525
312 1 -1.1104 15.9994 6.75563 2.1566 12.4201
313 1 -1.1104 15.9994 9.72755 2.17454 12.5261
314 1 -1.1104 15.9994 12.1975 -0.637207 12.1841
315 1 -1.1104 15.9994 12.4181 2.18613 12.4787
316 1 -1.1104 15.9994 1.16949 4.95365 12.1704
329 2 2.2208 232.038 5.32386 0.988563 13.7078
334 2 2.2208 232.038 5.54804 6.42422 13.9056
9002 2 2.2208 232.038 13.9257 9.38367 2.52418
105 2 2.2208 232.038 10.7565 -1.94794 11.0057
29 2 2.2208 232.038 11.188 9.23546 -0.132748
9052 2 2.2208 232.038 13.7779 9.49626 8.0276
1 2 2.2208 232.038 13.7168 23.4149 5.06506
9319 2 2.2208 232.038 13.74 3.58812 13.8071
53 2 2.2208 232.038 2.49857 -1.96024 8.33606
8981 2 2.2208 232.038 -0.104103 14.7852 11.0393
346 2 2.2208 232.038 2.5583 20.5566 13.8321
339 2 2.2208 232.038 5.38078 11.8534 13.8552
8992 2 2.2208 232.038 13.7804 3.81568 2.50597
331 2 2.2208 232.038 2.57677 3.58243 13.8739
336 2 2.2208 232.038 2.50141 9.27921 13.8842
325 2 2.2208 232.038 5.38906 3.43734 -0.135753
340 2 2.2208 232.038 11.0319 12.0082 13.8936
343 2 2.2208 232.038 8.20155 14.9125 13.9239
674 2 2.2208 232.038 2.4496 23.5419 -0.139679
345 2 2.2208 232.038 10.8369 17.6954 13.8317
348 2 2.2208 232.038 8.09032 20.5218 13.8942
9664 2 2.2208 232.038 -0.14773 17.6615 13.9187
9379 2 2.2208 232.038 13.8563 23.4887 16.5417
327 1 -1.1104 15.9994 6.70659 21.9775 26.639
25 2 2.2208 232.038 5.33901 9.17845 27.8747
403 2 2.2208 232.038 2.81695 -1.90361 25.114
661 2 2.2208 232.038 8.30991 0.739092 27.9555
9001 2 2.2208 232.038 13.9334 12.3464 27.9518
332 1 -1.1104 15.9994 9.4043 21.9647 23.6867
667 2 2.2208 232.038 13.8383 17.9322 27.9028
9339 2 2.2208 232.038 13.7337 0.786088 16.7455
26 2 2.2208 232.038 8.40886 12.0244 27.8383
338 2 2.2208 232.038 8.26442 9.16077 14.0142
337 1 -1.1104 15.9994 6.77136 21.8667 23.7553
677 1 -1.1104 15.9994 9.51981 13.6997 26.4201
670 2 2.2208 232.038 5.46909 14.9476 28.0386
9399 2 2.2208 232.038 13.9211 6.57471 22.3616
9701 2 2.2208 232.038 13.7552 6.51416 27.8882
342 1 -1.1104 15.9994 3.85575 22.0259 26.9898
657 2 2.2208 232.038 13.7464 23.4544 22.3505
405 2 2.2208 232.038 5.40096 -1.88663 22.321
9677 2 2.2208 232.038 13.7349 1.04349 27.8924
355 2 2.2208 232.038 5.29507 -1.90992 16.6325
9591 1 -1.1104 15.9994 1.18514 2.37995 23.7792
665 2 2.2208 232.038 13.8046 23.3296 27.9883
671 2 2.2208 232.038 8.21495 17.8196 27.9894
9419 2 2.2208 232.038 13.8547 17.9187 22.0902
351 1 -1.1104 15.9994 1.19472 22.0866 26.8382
352 2 2.2208 232.038 2.42512 0.842239 16.7715
647 1 -1.1104 15.9994 3.92074 16.0887 23.5936
354 1 -1.1104 15.9994 4.17406 21.6247 24.0792
646 1 -1.1104 15.9994 1.04127 16.1547 23.8296
356 2 2.2208 232.038 8.27178 0.777644 16.7182
9688 2 2.2208 232.038 -0.033977 9.14715 27.8766
358 2 2.2208 232.038 5.40832 0.836363 19.4774
341 2 2.2208 232.038 2.50747 14.8458 14.0878
360 2 2.2208 232.038 11.084 0.893412 19.4853
361 1 -1.1104 15.9994 0.837797 21.961 24.064
362 2 2.2208 232.038 2.57239 6.47556 16.6135
363 2 2.2208 232.038 2.49077 3.6019 19.5896
364 1 -1.1104 15.9994 12.4977 19.1595 26.3324
365 2 2.2208 232.038 5.32339 3.65102 16.7415
366 2 2.2208 232.038 8.3235 6.56087 16.6133
367 2 2.2208 232.038 8.20761 3.49411 19.4977
368 2 2.2208 232.038 5.60326 6.20243 19.5409
369 2 2.2208 232.038 10.9458 3.78044 16.8104
370 2 2.2208 232.038 11.1775 6.46392 19.5192
371 1 -1.1104 15.9994 12.7096 19.5378 23.4464
372 2 2.2208 232.038 2.35356 12.0604 16.7336
373 2 2.2208 232.038 2.54537 9.15911 19.7289
650 1 -1.1104 15.9994 3.9558 19.0983 23.814
375 2 2.2208 232.038 5.2061 9.13716 16.6024
376 2 2.2208 232.038 8.23756 12.0773 16.7259
377 2 2.2208 232.038 8.19104 9.20123 19.2493
378 2 2.2208 232.038 5.47602 11.9625 19.401
379 2 2.2208 232.038 11.0188 9.39675 16.761
380 2 2.2208 232.038 10.922 11.9537 19.5938
381 1 -1.1104 15.9994 12.4372 16.6392 26.5469
382 2 2.2208 232.038 2.30336 17.7569 16.7798
383 2 2.2208 232.038 2.54399 14.8028 19.6046
374 2 2.2208 232.038 10.9627 20.7137 27.8319
385 2 2.2208 232.038 5.29429 15.0716 16.8605
386 2 2.2208 232.038 8.23445 17.7213 16.7082
387 2 2.2208 232.038 8.37534 14.7674 19.5619
388 2 2.2208 232.038 5.29637 17.8323 19.5677
389 2 2.2208 232.038 11.056 14.9841 16.8061
390 2 2.2208 232.038 10.8904 17.7385 19.5506
391 1 -1.1104 15.9994 12.5507 22.0786 26.5345
392 2 2.2208 232.038 2.55534 23.6764 16.4873
393 2 2.2208 232.038 2.44995 20.4812 19.6365
655 1 -1.1104 15.9994 9.61109 16.3135 23.7602
395 2 2.2208 232.038 5.07245 20.7031 16.8537
396 2 2.2208 232.038 8.14585 23.4685 16.7299
397 2 2.2208 232.038 8.07425 20.5551 19.4138
398 2 2.2208 232.038 5.2813 23.2814 19.4793
399 2 2.2208 232.038 10.9635 20.4704 16.6662
400 2 2.2208 232.038 10.9754 23.3123 19.5723
401 1 -1.1104 15.9994 12.2222 16.4528 23.5619
402 2 2.2208 232.038 2.69944 0.891217 22.3939
660 2 2.2208 232.038 5.41669 -1.99589 27.9709
404 1 -1.1104 15.9994 9.5736 19.1788 26.7396
663 2 2.2208 232.038 2.64063 6.35043 27.9473
406 2 2.2208 232.038 8.37748 0.623603 22.3687
654 1 -1.1104 15.9994 6.74156 16.4303 23.8343
408 2 2.2208 232.038 5.56481 0.866188 25.1063
656 1 -1.1104 15.9994 6.95885 16.6111 26.4912
410 2 2.2208 232.038 11.2211 0.751476 25.2586
411 1 -1.1104 15.9994 6.74557 19.4077 26.6982
412 2 2.2208 232.038 2.67862 6.42295 22.3866
413 2 2.2208 232.038 2.46195 3.61493 25.3228
414 1 -1.1104 15.9994 9.5376 19.0547 23.8733
415 2 2.2208 232.038 5.7023 3.65024 22.2891
416 2 2.2208 232.038 8.3355 6.44455 22.2721
417 2 2.2208 232.038 8.21922 3.42182 25.2335
418 2 2.2208 232.038 5.33783 6.38529 25.2852
419 2 2.2208 232.038 11.1269 3.57364 22.3645
420 2 2.2208 232.038 10.8643 6.49207 25.1828
421 1 -1.1104 15.9994 6.9293 19.1069 23.5542
422 2 2.2208 232.038 2.86209 12.1719 22.3183
423 2 2.2208 232.038 2.60224 9.20286 25.0691
424 1 -1.1104 15.9994 9.66463 16.3291 26.5984
425 2 2.2208 232.038 5.48169 9.05675 22.3415
426 2 2.2208 232.038 8.14799 11.9454 22.2149
427 2 2.2208 232.038 8.27161 9.15344 25.2095
428 2 2.2208 232.038 5.4789 12.1022 25.0747
429 2 2.2208 232.038 11.1418 9.3188 22.2628
430 2 2.2208 232.038 11.0152 12.222 25.1905
652 1 -1.1104 15.9994 1.13946 19.0077 26.645
432 2 2.2208 232.038 2.66823 17.4517 22.3012
433 2 2.2208 232.038 2.63175 14.8425 25.317
651 1 -1.1104 15.9994 3.98203 19.1346 26.5225
435 2 2.2208 232.038 5.47373 14.8906 22.3336
436 2 2.2208 232.038 8.19157 17.7227 22.2889
437 2 2.2208 232.038 8.36225 14.9269 25.0349
438 2 2.2208 232.038 5.1975 17.7104 25.1059
439 2 2.2208 232.038 10.9994 14.7592 22.2719
440 2 2.2208 232.038 10.8338 17.6588 25.2633
645 1 -1.1104 15.9994 12.5106 13.8775 26.546
442 1 -1.1104 15.9994 12.4839 22.245 23.7668
443 2 2.2208 232.038 2.46257 20.7038 25.1378
649 1 -1.1104 15.9994 4.04622 16.2418 26.5435
445 2 2.2208 232.038 5.45283 20.4776 22.3063
446 2 2.2208 232.038 8.03442 23.3295 22.1623
447 2 2.2208 232.038 8.0125 20.5831 25.2128
448 2 2.2208 232.038 5.29768 23.2045 25.3
449 2 2.2208 232.038 11.1322 20.6412 22.2593
450 2 2.2208 232.038 10.9885 23.4634 24.971
451 1 -1.1104 15.9994 1.2402 -0.700484 15.3532
452 1 -1.1104 15.9994 3.92492 -0.434241 15.1314
453 1 -1.1104 15.9994 1.05034 2.14282 15.3001
454 1 -1.1104 15.9994 3.69605 2.29259 15.2712
455 1 -1.1104 15.9994 6.69027 -0.648215 15.2274
456 1 -1.1104 15.9994 9.72973 -0.740922 15.4196
457 1 -1.1104 15.9994 6.72368 1.97764 15.1532
458 1 -1.1104 15.9994 9.47363 2.28003 15.3006
459 1 -1.1104 15.9994 12.4908 -0.503429 15.234
460 1 -1.1104 15.9994 12.1645 2.18096 15.3299
461 1 -1.1104 15.9994 1.19177 4.84817 15.1735
462 1 -1.1104 15.9994 4.0376 5.08493 15.3226
463 1 -1.1104 15.9994 1.18971 7.77349 15.117
464 1 -1.1104 15.9994 4.0664 7.71392 15.2276
465 1 -1.1104 15.9994 6.78162 4.90402 14.9968
466 1 -1.1104 15.9994 9.59532 4.92254 15.2936
467 1 -1.1104 15.9994 6.8073 7.82978 15.0932
468 1 -1.1104 15.9994 9.72101 7.97272 15.4187
469 1 -1.1104 15.9994 12.4863 4.87259 15.3276
470 1 -1.1104 15.9994 12.4397 7.59211 15.2192
471 1 -1.1104 15.9994 1.09288 10.5187 15.2627
472 1 -1.1104 15.9994 3.97403 10.5849 15.1745
473 1 -1.1104 15.9994 1.15847 13.5787 15.3194
474 1 -1.1104 15.9994 3.91865 13.4526 15.4705
475 1 -1.1104 15.9994 6.9596 10.6485 15.3651
476 1 -1.1104 15.9994 9.80889 10.7201 15.3791
477 1 -1.1104 15.9994 6.8479 13.5801 15.2837
478 1 -1.1104 15.9994 9.38178 13.4836 15.1491
479 1 -1.1104 15.9994 12.7686 10.6916 15.3609
480 1 -1.1104 15.9994 12.1777 13.4328 15.0623
481 1 -1.1104 15.9994 1.23449 16.1726 15.5795
482 1 -1.1104 15.9994 3.92665 16.5178 15.6044
483 1 -1.1104 15.9994 1.55883 19.0269 15.156
484 1 -1.1104 15.9994 4.19725 19.2466 15.2591
485 1 -1.1104 15.9994 6.92428 16.1897 15.3965
486 1 -1.1104 15.9994 9.71609 16.267 15.3579
487 1 -1.1104 15.9994 7.06879 18.857 15.1092
488 1 -1.1104 15.9994 9.59563 19.1931 15.2314
489 1 -1.1104 15.9994 12.5911 16.1896 15.27
490 1 -1.1104 15.9994 12.3316 19.157 15.2486
491 1 -1.1104 15.9994 1.29788 22.0733 15.037
492 1 -1.1104 15.9994 3.94072 22.3273 15.4264
493 1 -1.1104 15.9994 6.56516 21.7201 15.1772
494 1 -1.1104 15.9994 9.44026 22.0129 15.3093
495 1 -1.1104 15.9994 12.2954 21.9099 15.3068
496 1 -1.1104 15.9994 1.06548 -0.62929 18.1325
497 1 -1.1104 15.9994 3.92457 -0.490555 18.0981
498 1 -1.1104 15.9994 1.17192 -0.547317 20.8615
499 1 -1.1104 15.9994 4.20646 -0.586962 20.9053
500 1 -1.1104 15.9994 0.748865 2.13096 18.3488
501 1 -1.1104 15.9994 3.88929 2.23839 17.9603
502 1 -1.1104 15.9994 1.25213 2.16908 21.0824
503 1 -1.1104 15.9994 3.91935 2.27282 20.8354
504 1 -1.1104 15.9994 6.69459 -0.593307 18.1242
505 1 -1.1104 15.9994 9.5136 -0.628973 18.0832
506 1 -1.1104 15.9994 6.92046 -0.66048 20.8107
507 1 -1.1104 15.9994 9.74231 -0.800371 21.0163
508 1 -1.1104 15.9994 6.78393 2.19479 17.8945
509 1 -1.1104 15.9994 9.70142 2.2093 18.1697
510 1 -1.1104 15.9994 6.69551 2.19391 21.0519
511 1 -1.1104 15.9994 9.5516 2.14324 20.8453
512 1 -1.1104 15.9994 12.3759 -0.669178 18.1688
513 1 -1.1104 15.9994 12.3055 -0.705497 21.0413
514 1 -1.1104 15.9994 12.5757 2.22465 18.2477
515 1 -1.1104 15.9994 12.4225 2.1469 21.1313
516 1 -1.1104 15.9994 1.12738 4.76421 18.2103
517 1 -1.1104 15.9994 4.0347 4.97655 18.1025
518 1 -1.1104 15.9994 1.08439 4.86222 21.0882
519 1 -1.1104 15.9994 3.90843 4.90868 20.9226
520 1 -1.1104 15.9994 0.659148 7.99173 18.1086
521 1 -1.1104 15.9994 3.83373 7.75804 18.1913
522 1 -1.1104 15.9994 1.23347 7.66188 20.8727
523 1 -1.1104 15.9994 4.05133 7.74903 20.8069
524 1 -1.1104 15.9994 6.84826 4.91248 18.0501
525 1 -1.1104 15.9994 9.59402 5.04193 18.2784
526 1 -1.1104 15.9994 6.92901 5.13639 20.8948
527 1 -1.1104 15.9994 9.60577 4.78467 21.2156
528 1 -1.1104 15.9994 6.74434 7.68795 17.72
529 1 -1.1104 15.9994 9.69596 7.78782 18.1391
530 1 -1.1104 15.9994 7.09087 7.59399 20.5445
531 1 -1.1104 15.9994 9.83995 7.77167 20.9178
532 1 -1.1104 15.9994 12.3619 5.02713 18.2337
533 1 -1.1104 15.9994 12.4389 5.15292 21.0692
534 1 -1.1104 15.9994 12.4451 8.00683 17.8817
535 1 -1.1104 15.9994 12.4665 7.9632 20.7018
536 1 -1.1104 15.9994 0.964616 10.693 18.1952
537 1 -1.1104 15.9994 3.91995 10.5798 18.0691
538 1 -1.1104 15.9994 1.35495 10.5583 20.8991
539 1 -1.1104 15.9994 4.28419 10.5425 20.8006
540 1 -1.1104 15.9994 0.871549 13.4939 18.0237
541 1 -1.1104 15.9994 3.75896 13.3362 18.3719
542 1 -1.1104 15.9994 1.17644 13.2655 20.9088
543 1 -1.1104 15.9994 4.17806 13.4252 20.9545
544 1 -1.1104 15.9994 6.86034 10.6145 18.1569
545 1 -1.1104 15.9994 9.7121 10.6022 18.0228
546 1 -1.1104 15.9994 6.99216 10.344 20.9931
547 1 -1.1104 15.9994 9.70438 10.5421 20.9778
548 1 -1.1104 15.9994 6.85638 13.4784 18.2281
549 1 -1.1104 15.9994 9.75753 13.5311 18.0322
550 1 -1.1104 15.9994 6.80502 13.1688 20.8315
551 1 -1.1104 15.9994 9.59276 13.2897 20.813
552 1 -1.1104 15.9994 12.4869 10.6782 18.3619
553 1 -1.1104 15.9994 12.5784 10.6958 21.1144
554 1 -1.1104 15.9994 12.5122 13.566 18.0829
555 1 -1.1104 15.9994 12.6027 13.4552 20.9174
556 1 -1.1104 15.9994 1.22851 16.1317 18.1999
557 1 -1.1104 15.9994 3.90531 16.4753 18.3689
558 1 -1.1104 15.9994 1.27487 16.0652 21.0202
559 1 -1.1104 15.9994 3.94247 16.1473 21.0245
560 1 -1.1104 15.9994 1.17671 18.8489 18.584
561 1 -1.1104 15.9994 3.8971 19.2884 18.145
562 1 -1.1104 15.9994 1.32246 19.1017 23.8284
563 1 -1.1104 15.9994 3.84968 19.0176 20.7947
564 1 -1.1104 15.9994 6.76647 16.2273 18.0891
565 1 -1.1104 15.9994 9.65666 16.4698 18.1296
566 1 -1.1104 15.9994 6.80645 16.2145 20.9493
567 1 -1.1104 15.9994 9.5397 16.3241 20.8826
568 1 -1.1104 15.9994 6.47302 19.4454 18.1417
569 1 -1.1104 15.9994 9.55755 19.1215 18.1674
570 1 -1.1104 15.9994 6.80361 19.1222 20.635
571 1 -1.1104 15.9994 9.5546 19.0593 21.043
572 1 -1.1104 15.9994 12.2979 16.5107 18.1462
573 1 -1.1104 15.9994 12.6543 16.3063 20.8148
574 1 -1.1104 15.9994 12.3837 19.3771 17.9765
575 1 -1.1104 15.9994 12.3174 19.0399 20.7793
576 1 -1.1104 15.9994 1.02162 21.6755 20.7103
577 1 -1.1104 15.9994 3.66565 21.9999 18.3048
578 1 -1.1104 15.9994 0.789799 18.7263 21.4699
579 1 -1.1104 15.9994 4.24885 21.7296 20.7836
580 1 -1.1104 15.9994 6.79685 22.1267 17.9754
581 1 -1.1104 15.9994 9.65541 21.8487 18.3309
582 1 -1.1104 15.9994 6.79945 21.851 20.7159
583 1 -1.1104 15.9994 9.78734 22.0148 21.0158
584 1 -1.1104 15.9994 12.403 22.1679 18.2296
585 1 -1.1104 15.9994 12.3229 21.9749 21.1584
648 1 -1.1104 15.9994 1.14756 16.2594 26.5662
587 1 -1.1104 15.9994 4.17708 -0.533926 23.6784
588 1 -1.1104 15.9994 1.29088 -0.601459 26.5172
589 1 -1.1104 15.9994 4.1853 -0.594984 26.2994
590 1 -1.1104 15.9994 1.24009 -0.401186 23.6587
591 1 -1.1104 15.9994 3.97259 2.2653 23.8713
592 1 -1.1104 15.9994 1.22232 2.19013 26.7192
593 1 -1.1104 15.9994 4.23226 1.95986 26.6824
594 1 -1.1104 15.9994 6.99623 -0.71511 23.7205
595 1 -1.1104 15.9994 9.62936 -0.75028 23.8712
596 1 -1.1104 15.9994 7.05118 -0.727605 26.6531
597 1 -1.1104 15.9994 9.82421 -0.532837 26.7416
598 1 -1.1104 15.9994 7.04513 1.85755 23.6763
599 1 -1.1104 15.9994 9.73622 2.09607 23.7663
600 1 -1.1104 15.9994 6.85212 2.35017 26.6675
601 1 -1.1104 15.9994 9.69558 2.08904 26.5018
602 1 -1.1104 15.9994 12.4149 -0.690337 23.7533
603 1 -1.1104 15.9994 12.5157 -0.661653 26.6088
604 1 -1.1104 15.9994 12.4768 2.27722 23.6881
605 1 -1.1104 15.9994 12.4524 2.34914 26.528
606 1 -1.1104 15.9994 1.17627 5.11428 23.7874
607 1 -1.1104 15.9994 3.88902 5.3926 23.9861
608 1 -1.1104 15.9994 1.20511 5.00688 26.7396
609 1 -1.1104 15.9994 3.96747 4.72561 26.5447
610 1 -1.1104 15.9994 0.990552 7.96641 23.8668
611 1 -1.1104 15.9994 3.85081 8.06387 23.5047
612 1 -1.1104 15.9994 1.24527 7.79261 26.5793
613 1 -1.1104 15.9994 3.84812 7.53322 26.3864
614 1 -1.1104 15.9994 6.89633 4.70697 23.7932
615 1 -1.1104 15.9994 9.48795 5.10608 23.8929
616 1 -1.1104 15.9994 6.94834 5.17285 26.4463
617 1 -1.1104 15.9994 9.7004 4.9274 26.5998
618 1 -1.1104 15.9994 6.72554 7.54463 23.5032
619 1 -1.1104 15.9994 9.62769 7.98584 23.9206
620 1 -1.1104 15.9994 6.72634 7.99803 26.3601
621 1 -1.1104 15.9994 9.71158 7.7831 26.4975
622 1 -1.1104 15.9994 12.3969 5.1348 23.8837
623 1 -1.1104 15.9994 12.4494 5.19136 26.4733
624 1 -1.1104 15.9994 12.3117 8.02879 23.8663
625 1 -1.1104 15.9994 12.3412 7.90171 26.7174
626 1 -1.1104 15.9994 1.0511 10.7088 23.8186
627 1 -1.1104 15.9994 3.85771 10.7374 23.7673
628 1 -1.1104 15.9994 1.45741 10.7055 26.705
629 1 -1.1104 15.9994 4.14022 10.4823 26.4793
630 1 -1.1104 15.9994 1.20418 13.536 23.7747
631 1 -1.1104 15.9994 4.02276 13.5024 23.7122
632 1 -1.1104 15.9994 1.32977 13.5022 26.6116
633 1 -1.1104 15.9994 4.07629 13.4012 26.5926
634 1 -1.1104 15.9994 6.6811 10.4636 23.7376
635 1 -1.1104 15.9994 9.51426 10.8347 23.9815
636 1 -1.1104 15.9994 7.08359 10.6363 26.433
637 1 -1.1104 15.9994 9.43237 21.9522 26.7039
638 1 -1.1104 15.9994 6.92811 13.6739 23.702