ITEM: TIMESTEP
310000
ITEM: NUMBER OF ATOMS
18000
ITEM: BOX BOUNDS xy xz yz pp pp pp
-1.8779213627928670e-01 2.8081792136279052e+01 0.0000000000000000e+00
-1.9465478256000512e+00 3.3667454782562305e+02 0.0000000000000000e+00
-1.6625828524491837e-01 2.8060258285243815e+01 0.0000000000000000e+00
ITEM: ATOMS id type q mass x y z
59 2 2.2208 232.038 10.9876 -1.67956 5.57879
324 1 -1.1104 15.9994 12.5678 4.92596 12.7218
374 2 2.2208 232.038 11.1014 20.6499 0.0395486
4 1 -1.1104 15.9994 12.6632 21.94 12.8191
323 1 -1.1104 15.9994 9.75622 7.92293 12.7047
322 1 -1.1104 15.9994 6.83564 7.99296 12.588
84 2 2.2208 232.038 -0.206205 17.7353 8.50371
8 2 2.2208 232.038 5.37802 0.803085 2.72574
9 1 -1.1104 15.9994 12.4891 7.69854 12.4936
10 2 2.2208 232.038 11.0663 0.981544 2.95033
11 1 -1.1104 15.9994 9.58881 21.9914 12.8736
321 1 -1.1104 15.9994 9.67016 4.94948 12.7184
13 2 2.2208 232.038 2.69463 3.72705 2.85015
14 1 -1.1104 15.9994 6.6152 22.0538 12.7819
19 2 2.2208 232.038 10.8342 3.68473 0.182876
671 2 2.2208 232.038 8.18403 17.821 -0.0996692
17 2 2.2208 232.038 8.27517 3.7718 3.00736
18 2 2.2208 232.038 5.54847 6.49067 2.91393
53 2 2.2208 232.038 2.69177 -1.9156 8.5093
20 2 2.2208 232.038 11.1244 6.60101 2.97527
21 1 -1.1104 15.9994 4.03718 21.9162 12.6178
22 1 -1.1104 15.9994 1.45798 16.252 12.6074
23 2 2.2208 232.038 2.68254 9.43384 2.83615
320 1 -1.1104 15.9994 6.93673 4.98036 12.8229
668 2 2.2208 232.038 -0.240554 15.1014 0.155637
670 2 2.2208 232.038 5.34003 15.2626 -0.121205
27 2 2.2208 232.038 8.33033 9.43325 2.79132
28 2 2.2208 232.038 5.51035 12.3349 2.82484
672 2 2.2208 232.038 10.9579 15.1724 0.0320614
30 2 2.2208 232.038 11.1403 12.3407 3.01051
31 1 -1.1104 15.9994 12.5064 13.6632 12.6676
32 1 -1.1104 15.9994 12.4736 10.6612 12.8547
33 2 2.2208 232.038 2.62604 15.0946 2.90227
319 1 -1.1104 15.9994 4.00058 7.67912 12.5947
35 1 -1.1104 15.9994 9.6647 13.7349 12.7887
36 1 -1.1104 15.9994 6.94823 13.5102 12.7712
37 2 2.2208 232.038 8.30009 15.1169 2.77841
38 2 2.2208 232.038 5.48661 17.8447 2.79161
39 1 -1.1104 15.9994 9.64112 10.9041 12.7486
40 2 2.2208 232.038 10.9903 17.8639 2.79584
41 1 -1.1104 15.9994 6.71002 10.6154 12.9351
42 1 -1.1104 15.9994 4.16958 13.438 12.7051
43 2 2.2208 232.038 2.40792 20.6486 2.87148
318 1 -1.1104 15.9994 1.10893 7.92642 12.6225
45 1 -1.1104 15.9994 1.34298 13.4408 12.8425
46 1 -1.1104 15.9994 3.97652 10.6401 12.7715
47 2 2.2208 232.038 8.40891 20.6909 2.67406
48 2 2.2208 232.038 5.42695 23.4961 2.69307
49 1 -1.1104 15.9994 1.22911 10.5406 12.8009
50 2 2.2208 232.038 11.0737 23.3975 2.70535
51 1 -1.1104 15.9994 1.44243 21.9329 12.6348
52 2 2.2208 232.038 2.6314 1.00264 5.88721
659 2 2.2208 232.038 2.6641 0.724549 -0.0778739
54 1 -1.1104 15.9994 12.5598 19.2673 12.5834
663 2 2.2208 232.038 2.62502 6.57985 -0.0286229
56 2 2.2208 232.038 8.18729 0.935982 5.6662
674 2 2.2208 232.038 2.83718 23.3492 -0.0272836
58 2 2.2208 232.038 5.32118 0.842619 8.71885
666 2 2.2208 232.038 2.52271 12.2295 0.00291394
60 2 2.2208 232.038 11.1888 0.944453 8.56451
61 1 -1.1104 15.9994 12.6959 16.5412 12.7227
62 2 2.2208 232.038 2.50684 6.79802 5.73968
63 2 2.2208 232.038 2.73763 3.78953 8.6736
64 1 -1.1104 15.9994 9.6465 19.0819 12.7683
65 2 2.2208 232.038 5.25524 3.67491 5.87862
66 2 2.2208 232.038 8.1121 6.513 5.69302
67 2 2.2208 232.038 8.24803 3.66728 8.50926
68 2 2.2208 232.038 5.46616 6.73448 8.49972
69 2 2.2208 232.038 11.0255 3.75486 5.79479
70 2 2.2208 232.038 11.0703 6.7035 8.4964
71 1 -1.1104 15.9994 6.73092 19.1585 12.6797
72 2 2.2208 232.038 2.69845 12.1981 5.62528
73 2 2.2208 232.038 2.74391 9.3778 8.6513
74 1 -1.1104 15.9994 9.80697 16.4298 12.6741
75 2 2.2208 232.038 5.38034 9.67517 5.84969
76 2 2.2208 232.038 8.35927 12.3475 5.63284
77 2 2.2208 232.038 8.31877 9.53787 8.45353
78 2 2.2208 232.038 5.47532 12.3471 8.42642
79 2 2.2208 232.038 11.0584 9.25496 5.68653
80 2 2.2208 232.038 11.1838 12.2233 8.49599
317 1 -1.1104 15.9994 4.02028 4.84819 12.7372
82 2 2.2208 232.038 2.709 18.0023 5.64585
83 2 2.2208 232.038 2.82794 15.0378 8.31405
653 1 -1.1104 15.9994 3.7738 19.3811 1.3675
85 2 2.2208 232.038 5.41803 15.1893 5.59667
86 2 2.2208 232.038 8.29992 18.0356 5.63014
87 2 2.2208 232.038 8.44243 15.0743 8.40003
88 2 2.2208 232.038 5.4605 17.7096 8.18886
89 2 2.2208 232.038 11.2411 15.0672 5.64585
90 2 2.2208 232.038 10.9665 18.0713 8.4341
8982 2 2.2208 232.038 13.8773 -1.8503 2.71067
92 2 2.2208 232.038 2.66254 23.4817 5.66805
93 2 2.2208 232.038 2.55538 20.688 8.45638
9002 2 2.2208 232.038 13.9303 9.40939 3.07157
95 2 2.2208 232.038 5.33518 20.6773 5.50668
96 2 2.2208 232.038 8.56935 23.5519 5.51903
97 2 2.2208 232.038 8.20096 20.853 8.52026
98 2 2.2208 232.038 5.49411 23.5449 8.29292
99 2 2.2208 232.038 11.1317 20.6474 5.51123
100 2 2.2208 232.038 11.2231 23.3298 8.41344
101 1 -1.1104 15.9994 6.9052 16.2053 12.7124
102 2 2.2208 232.038 2.71934 0.686359 11.4417
91 2 2.2208 232.038 -0.24519 20.746 5.42775
104 2 2.2208 232.038 8.34247 0.777063 11.3623
55 2 2.2208 232.038 5.5468 -1.71859 5.51561
106 1 -1.1104 15.9994 4.04877 19.1156 12.7284
107 2 2.2208 232.038 2.63816 6.43679 11.4211
108 2 2.2208 232.038 5.49747 3.63363 11.4259
109 2 2.2208 232.038 8.21011 6.58146 11.1707
110 2 2.2208 232.038 11.0841 3.75146 11.2915
111 1 -1.1104 15.9994 1.07814 19.17 12.6266
112 2 2.2208 232.038 2.74468 12.2111 11.2911
113 2 2.2208 232.038 5.47436 9.42996 11.2778
114 2 2.2208 232.038 8.25643 12.5135 11.2577
115 2 2.2208 232.038 11.0524 9.37322 11.3126
116 1 -1.1104 15.9994 4.031 16.2824 12.8568
117 2 2.2208 232.038 2.68352 17.7886 11.4445
118 2 2.2208 232.038 5.41034 15.0652 11.6034
119 2 2.2208 232.038 8.14393 17.9289 11.4345
120 2 2.2208 232.038 11.0875 15.1642 11.2231
29 2 2.2208 232.038 10.969 9.29063 -0.0314431
122 2 2.2208 232.038 2.70262 23.6889 11.2589
123 2 2.2208 232.038 5.35629 20.7789 11.3055
124 2 2.2208 232.038 8.1514 23.4076 11.3324
125 2 2.2208 232.038 11.0503 20.7452 11.3479
126 1 -1.1104 15.9994 1.31023 -0.593758 1.30655
127 1 -1.1104 15.9994 4.05101 -0.590949 1.28679
128 1 -1.1104 15.9994 1.09305 -0.466722 4.40256
129 1 -1.1104 15.9994 4.01936 -0.353166 4.12093
130 1 -1.1104 15.9994 1.35475 2.28219 1.45449
131 1 -1.1104 15.9994 3.87452 2.11855 1.40846
132 1 -1.1104 15.9994 1.05552 2.39579 4.53933
133 1 -1.1104 15.9994 3.68696 2.45351 4.62135
134 1 -1.1104 15.9994 6.86772 -0.427463 1.39752
135 1 -1.1104 15.9994 9.90182 -0.409968 1.29926
136 1 -1.1104 15.9994 9.73301 -0.30596 4.16952
3 2 2.2208 232.038 2.6642 -1.74225 2.84345
138 1 -1.1104 15.9994 6.77701 2.30827 1.53526
139 1 -1.1104 15.9994 9.65473 2.34687 1.62387
140 1 -1.1104 15.9994 7.1001 -0.609243 4.1297
141 1 -1.1104 15.9994 9.58772 2.40339 4.45168
142 1 -1.1104 15.9994 12.5956 -0.719464 1.10916
143 1 -1.1104 15.9994 12.6726 -0.403722 4.0231
144 1 -1.1104 15.9994 12.2438 2.3405 1.78098
145 1 -1.1104 15.9994 12.5588 2.38882 4.58177
146 1 -1.1104 15.9994 1.25509 5.16927 1.50479
147 1 -1.1104 15.9994 4.15148 5.0277 1.58312
148 1 -1.1104 15.9994 1.17904 5.19095 4.39143
149 1 -1.1104 15.9994 3.90306 5.09637 4.44201
150 1 -1.1104 15.9994 1.18162 8.0668 1.35929
151 1 -1.1104 15.9994 3.94481 7.86422 1.35575
152 1 -1.1104 15.9994 1.23857 7.91236 4.30232
153 1 -1.1104 15.9994 4.02995 8.08677 4.14828
154 1 -1.1104 15.9994 6.83356 4.90186 1.58083
155 1 -1.1104 15.9994 9.74794 5.03769 1.7875
156 1 -1.1104 15.9994 6.51552 2.07479 4.41377
157 1 -1.1104 15.9994 9.55072 5.0701 4.50094
158 1 -1.1104 15.9994 6.75451 7.83794 1.51811
159 1 -1.1104 15.9994 9.80309 8.01085 1.29222
160 1 -1.1104 15.9994 6.58582 4.85971 4.32769
161 1 -1.1104 15.9994 9.65902 8.00613 4.20949
162 1 -1.1104 15.9994 12.4963 5.14812 1.37684
163 1 -1.1104 15.9994 12.4801 5.08938 4.33655
164 1 -1.1104 15.9994 12.4645 8.00152 1.74562
165 1 -1.1104 15.9994 12.6174 7.96746 4.37036
166 1 -1.1104 15.9994 1.23397 10.8881 1.52921
167 1 -1.1104 15.9994 4.00398 10.8956 1.6055
168 1 -1.1104 15.9994 1.00228 10.7935 4.15979
169 1 -1.1104 15.9994 4.08135 10.8167 4.29774
170 1 -1.1104 15.9994 1.18044 13.6015 1.46554
171 1 -1.1104 15.9994 4.21835 13.6101 4.13589
172 1 -1.1104 15.9994 1.43218 13.5657 4.13618
173 1 -1.1104 15.9994 7.06929 13.7192 4.23467
174 1 -1.1104 15.9994 6.76758 10.6872 1.59659
175 1 -1.1104 15.9994 9.57176 10.6637 1.38298
176 1 -1.1104 15.9994 7.06799 7.728 4.16917
177 1 -1.1104 15.9994 9.93632 10.7454 4.09361
178 1 -1.1104 15.9994 7.15547 13.6611 1.50338
179 1 -1.1104 15.9994 9.93406 13.5722 1.48791
180 1 -1.1104 15.9994 6.92272 10.6885 4.31218
181 1 -1.1104 15.9994 9.67889 13.5656 4.2902
182 1 -1.1104 15.9994 12.26 10.935 1.55231
183 1 -1.1104 15.9994 12.5782 10.9429 4.35028
184 1 -1.1104 15.9994 12.7811 13.897 1.35701
185 1 -1.1104 15.9994 12.5387 13.8084 4.2543
186 1 -1.1104 15.9994 1.33316 16.5653 1.30728
187 1 -1.1104 15.9994 4.23299 13.7502 1.36471
188 1 -1.1104 15.9994 1.25554 16.6435 4.04421
189 1 -1.1104 15.9994 4.0386 16.6758 4.2398
190 1 -1.1104 15.9994 0.878118 19.2907 1.46809
191 1 -1.1104 15.9994 4.20162 16.536 1.36694
192 1 -1.1104 15.9994 1.37854 19.4549 4.22809
193 1 -1.1104 15.9994 4.11282 19.2415 4.2664
194 1 -1.1104 15.9994 6.85111 16.4319 1.34132
195 1 -1.1104 15.9994 9.6831 16.4632 1.53236
196 1 -1.1104 15.9994 6.81827 16.5334 4.22845
197 1 -1.1104 15.9994 9.68338 16.5187 4.34959
198 1 -1.1104 15.9994 6.87943 19.281 1.28213
199 1 -1.1104 15.9994 9.68389 19.3835 1.3179
200 1 -1.1104 15.9994 7.1001 19.2379 4.06855
201 1 -1.1104 15.9994 9.71423 19.3694 4.18075
202 1 -1.1104 15.9994 12.5859 16.4908 1.41493
203 1 -1.1104 15.9994 12.4481 16.5543 4.20243
204 1 -1.1104 15.9994 12.4113 19.3655 1.49905
205 1 -1.1104 15.9994 12.4257 19.2411 4.20853
206 1 -1.1104 15.9994 0.979395 21.7914 1.49623
207 1 -1.1104 15.9994 4.20996 22.223 1.34366
208 1 -1.1104 15.9994 1.19593 22.0996 4.20864
209 1 -1.1104 15.9994 4.07998 22.0613 4.10459
210 1 -1.1104 15.9994 6.9185 22.2794 1.13835
211 1 -1.1104 15.9994 9.73452 22.1299 1.38709
212 1 -1.1104 15.9994 7.09082 21.9845 4.08761
213 1 -1.1104 15.9994 9.94045 22.213 4.12773
214 1 -1.1104 15.9994 12.7637 22.2837 1.56127
215 1 -1.1104 15.9994 12.6624 22.1181 4.40035
216 1 -1.1104 15.9994 1.42924 -0.359787 7.27229
217 1 -1.1104 15.9994 4.23184 -0.479248 7.11095
218 1 -1.1104 15.9994 1.46761 -0.740483 10.3163
219 1 -1.1104 15.9994 4.1774 -0.637124 9.96532
220 1 -1.1104 15.9994 1.21737 2.4282 7.35473
221 1 -1.1104 15.9994 4.09167 2.32923 7.30525
222 1 -1.1104 15.9994 0.966669 1.94654 10.2478
223 1 -1.1104 15.9994 3.87522 2.33503 10.1897
224 1 -1.1104 15.9994 6.81324 -0.672355 6.9573
225 1 -1.1104 15.9994 9.78133 -0.42785 7.12381
226 1 -1.1104 15.9994 7.12768 -0.401015 9.73763
227 1 -1.1104 15.9994 9.85893 -0.523116 10.2863
228 1 -1.1104 15.9994 6.8678 2.23153 7.17153
229 1 -1.1104 15.9994 9.56743 2.20028 7.09903
230 1 -1.1104 15.9994 6.78843 2.3428 10.0704
231 1 -1.1104 15.9994 9.81193 2.3237 9.90814
232 1 -1.1104 15.9994 12.5363 -0.507909 7.05481
233 1 -1.1104 15.9994 12.683 -0.470479 9.80919
234 1 -1.1104 15.9994 12.3546 2.50908 7.1761
235 1 -1.1104 15.9994 12.7977 2.39066 9.83858
236 1 -1.1104 15.9994 1.15856 5.36864 7.1788
237 1 -1.1104 15.9994 4.04937 5.17057 7.28614
238 1 -1.1104 15.9994 1.25782 4.58862 9.98267
239 1 -1.1104 15.9994 4.00651 5.30367 10.0663
240 1 -1.1104 15.9994 1.24715 8.15862 7.176
241 1 -1.1104 15.9994 3.95015 8.2302 7.1955
242 1 -1.1104 15.9994 1.0999 7.81733 9.7688
243 1 -1.1104 15.9994 4.21742 8.05087 9.98492
244 1 -1.1104 15.9994 6.73431 5.25997 7.20972
245 1 -1.1104 15.9994 9.56409 5.334 7.15156
246 1 -1.1104 15.9994 6.9247 5.10477 9.98143
247 1 -1.1104 15.9994 9.7053 5.3716 10.011
248 1 -1.1104 15.9994 6.73349 8.11238 6.98303
249 1 -1.1104 15.9994 9.68179 8.04973 6.97884
250 1 -1.1104 15.9994 6.90414 8.16684 9.73785
251 1 -1.1104 15.9994 9.77993 8.10126 9.83695
252 1 -1.1104 15.9994 12.641 5.25848 7.29731
253 1 -1.1104 15.9994 12.687 5.3331 10.0291
254 1 -1.1104 15.9994 12.3575 8.08383 7.0932
255 1 -1.1104 15.9994 12.3963 8.17436 9.70864
256 1 -1.1104 15.9994 1.33899 11.0617 7.12847
257 1 -1.1104 15.9994 4.12033 10.9334 7.16948
258 1 -1.1104 15.9994 1.31456 10.6471 10.1582
259 1 -1.1104 15.9994 4.27802 10.9311 9.89086
260 1 -1.1104 15.9994 1.37174 13.6419 7.00778
261 1 -1.1104 15.9994 4.05318 13.6713 7.00451
262 1 -1.1104 15.9994 1.24261 13.6223 9.89096
263 1 -1.1104 15.9994 4.08569 13.8823 9.97359
264 1 -1.1104 15.9994 6.91394 11.0271 7.22577
265 1 -1.1104 15.9994 9.85678 10.8806 7.0742
266 1 -1.1104 15.9994 6.87596 10.871 9.83263
267 1 -1.1104 15.9994 9.79422 10.8481 10.0655
268 1 -1.1104 15.9994 6.92116 13.559 6.92556
269 1 -1.1104 15.9994 9.82554 13.6252 7.00043
270 1 -1.1104 15.9994 7.00947 13.7059 9.84175
271 1 -1.1104 15.9994 9.75745 13.6498 9.8772
272 1 -1.1104 15.9994 12.7131 10.9974 7.30934
273 1 -1.1104 15.9994 12.6161 10.9197 9.96807
274 1 -1.1104 15.9994 12.5482 13.6324 7.08491
275 1 -1.1104 15.9994 12.4452 13.7254 9.8204
276 1 -1.1104 15.9994 1.20124 16.5388 6.86736
277 1 -1.1104 15.9994 3.99648 16.4146 6.90145
278 1 -1.1104 15.9994 1.37876 16.2486 9.79585
279 1 -1.1104 15.9994 4.23676 16.544 9.91016
280 1 -1.1104 15.9994 1.1612 19.3977 6.9325
281 1 -1.1104 15.9994 4.01277 19.1977 6.96793
282 1 -1.1104 15.9994 1.27227 19.208 9.97222
283 1 -1.1104 15.9994 3.92096 19.3127 9.801
284 1 -1.1104 15.9994 6.78943 16.2855 7.16518
285 1 -1.1104 15.9994 9.66113 16.5536 7.08052
286 1 -1.1104 15.9994 6.78019 16.5465 9.87214
287 1 -1.1104 15.9994 9.73643 16.4873 10.011
288 1 -1.1104 15.9994 6.79049 19.2096 6.83826
289 1 -1.1104 15.9994 9.53001 19.4406 7.12736
290 1 -1.1104 15.9994 6.92431 19.5431 10.0948
291 1 -1.1104 15.9994 9.65575 19.4659 9.95892
292 1 -1.1104 15.9994 12.5746 16.5408 6.91676
293 1 -1.1104 15.9994 12.6534 16.5648 9.90815
294 1 -1.1104 15.9994 12.3881 19.184 6.89971
295 1 -1.1104 15.9994 12.5752 19.4942 9.91418
296 1 -1.1104 15.9994 1.44174 22.0905 6.96176
297 1 -1.1104 15.9994 4.08281 22.2622 7.00618
298 1 -1.1104 15.9994 0.980227 21.9922 9.76231
299 1 -1.1104 15.9994 3.7515 21.9327 10.0487
300 1 -1.1104 15.9994 6.8333 21.7748 6.99033
301 1 -1.1104 15.9994 9.67776 22.095 7.1356
302 1 -1.1104 15.9994 6.83704 22.2574 9.94398
303 1 -1.1104 15.9994 9.57938 22.2144 9.98561
304 1 -1.1104 15.9994 12.6136 22.0825 7.36086
305 1 -1.1104 15.9994 12.4004 22.0482 9.99885
306 1 -1.1104 15.9994 1.19725 -0.67985 12.9308
307 1 -1.1104 15.9994 4.3512 -0.467091 12.5076
308 1 -1.1104 15.9994 1.19896 2.26573 13.0352
309 1 -1.1104 15.9994 4.05145 2.0614 12.849
310 1 -1.1104 15.9994 6.967 -0.603623 12.6971
311 1 -1.1104 15.9994 9.77235 -0.719816 12.8396
312 1 -1.1104 15.9994 6.83773 2.17772 12.8187
313 1 -1.1104 15.9994 9.68803 2.14382 12.6858
314 1 -1.1104 15.9994 12.5263 -0.582603 12.7573
315 1 -1.1104 15.9994 12.5295 2.23749 12.3588
316 1 -1.1104 15.9994 1.12149 5.00552 12.6124
325 2 2.2208 232.038 5.25907 3.73749 0.108359
16 2 2.2208 232.038 8.26616 6.52828 0.135729
675 2 2.2208 232.038 5.46807 20.872 -0.11148
8994 2 2.2208 232.038 -0.0941397 6.60659 8.40614
7 2 2.2208 232.038 8.33727 -1.94582 2.71351
662 2 2.2208 232.038 11.1198 -1.82839 -0.0891133
9004 2 2.2208 232.038 -0.160901 6.59721 2.81593
26 2 2.2208 232.038 8.18375 12.0972 -0.000245248
8998 2 2.2208 232.038 -0.267171 0.91214 8.58135
347 2 2.2208 232.038 -0.0860896 23.6273 14.0969
661 2 2.2208 232.038 8.27139 0.837803 -0.0155016
81 2 2.2208 232.038 -0.222241 15.0191 5.69683
9041 2 2.2208 232.038 14.1169 6.53251 5.85717
9701 2 2.2208 232.038 13.8175 6.56432 0.159666
669 2 2.2208 232.038 2.42971 17.9792 -0.090187
44 2 2.2208 232.038 -0.00822872 23.5692 2.83545
12 2 2.2208 232.038 13.9973 20.752 2.77022
6 2 2.2208 232.038 14.0732 17.9242 5.35605
667 2 2.2208 232.038 13.8251 17.7382 0.100195
8984 2 2.2208 232.038 -0.21171 3.44157 11.5155
34 2 2.2208 232.038 -0.19335 17.7885 2.88756
8997 2 2.2208 232.038 -0.141621 3.78148 5.87191
9677 2 2.2208 232.038 13.7467 0.958355 -0.0263847
676 2 2.2208 232.038 8.49076 23.3956 -0.146499
25 2 2.2208 232.038 5.21243 9.40844 0.211027
8981 2 2.2208 232.038 -0.140807 15.0447 11.3559
2 2 2.2208 232.038 14.1165 20.5081 8.31347
24 2 2.2208 232.038 -0.232994 12.0389 2.67067
1 2 2.2208 232.038 13.9426 23.5282 5.56275
121 2 2.2208 232.038 -0.0356094 20.6531 11.303
9690 2 2.2208 232.038 -0.0976229 3.78303 0.0370938
341 2 2.2208 232.038 2.66573 14.7765 14.2603
327 1 -1.1104 15.9994 7.08646 22.2542 26.7119
403 2 2.2208 232.038 2.63318 -1.93336 25.2739
344 2 2.2208 232.038 5.31134 17.8422 14.1386
335 2 2.2208 232.038 11.0687 6.47689 14.1702
336 2 2.2208 232.038 2.74579 9.22333 14.0998
332 1 -1.1104 15.9994 9.98717 21.76 24.1763
345 2 2.2208 232.038 11.1824 17.9254 13.9966
348 2 2.2208 232.038 8.34274 20.6647 14.357
340 2 2.2208 232.038 11.0075 12.2572 14.1514
331 2 2.2208 232.038 2.7826 3.69027 14.1935
337 1 -1.1104 15.9994 7.06787 21.9512 23.8607
677 1 -1.1104 15.9994 9.55619 13.649 26.9671
434 2 2.2208 232.038 -0.260955 17.7139 25.3674
9409 2 2.2208 232.038 13.7965 12.1172 22.7627
9400 2 2.2208 232.038 13.8143 3.71287 25.3866
342 1 -1.1104 15.9994 3.97391 22.1847 26.6124
407 2 2.2208 232.038 8.36541 -1.95164 25.2883
431 2 2.2208 232.038 -0.143521 15.102 22.5395
339 2 2.2208 232.038 5.52745 12.071 14.2548
9661 2 2.2208 232.038 -0.0482407 0.721395 14.2616
9591 1 -1.1104 15.9994 1.0932 2.16638 23.9192
9324 2 2.2208 232.038 13.9482 9.41752 14.1604
9370 2 2.2208 232.038 13.7426 15.1214 19.8442
343 2 2.2208 232.038 8.43382 15.0789 14.067
351 1 -1.1104 15.9994 0.968312 22.1089 27.0785
352 2 2.2208 232.038 2.49649 0.835342 16.9272
334 2 2.2208 232.038 5.66271 6.60463 13.9548
354 1 -1.1104 15.9994 4.38651 21.4895 24.1334
338 2 2.2208 232.038 8.22568 9.34838 14.0853
356 2 2.2208 232.038 8.48061 0.828175 16.8592
349 2 2.2208 232.038 5.35632 23.6328 14.1649
358 2 2.2208 232.038 5.32205 0.916012 19.838
9399 2 2.2208 232.038 13.8385 6.44821 22.7387
360 2 2.2208 232.038 11.0629 0.867595 19.7575
361 1 -1.1104 15.9994 0.949284 21.8426 24.3854
362 2 2.2208 232.038 2.58608 6.577 16.9749
363 2 2.2208 232.038 2.5218 3.711 19.7792
364 1 -1.1104 15.9994 12.7783 19.1948 26.9441
365 2 2.2208 232.038 5.64074 3.80183 16.9857
366 2 2.2208 232.038 8.21993 6.45694 17.0308
367 2 2.2208 232.038 8.37499 3.65691 19.7748
368 2 2.2208 232.038 5.40821 6.5631 19.8938
369 2 2.2208 232.038 10.9498 3.64709 16.8627
370 2 2.2208 232.038 10.9598 6.49962 20.0567
371 1 -1.1104 15.9994 12.4371 19.1654 24.1829
372 2 2.2208 232.038 2.9062 12.1139 16.9608
373 2 2.2208 232.038 2.54702 9.40299 19.6949
650 1 -1.1104 15.9994 4.23987 18.8592 23.7586
375 2 2.2208 232.038 5.55933 9.25142 16.9769
376 2 2.2208 232.038 8.31422 12.1732 17.1484
377 2 2.2208 232.038 8.02549 9.239 19.7071
378 2 2.2208 232.038 5.29441 12.2084 19.8667
379 2 2.2208 232.038 11.2196 9.25512 16.968
380 2 2.2208 232.038 10.903 12.3743 19.9102
381 1 -1.1104 15.9994 12.2661 16.1846 26.6671
382 2 2.2208 232.038 2.43802 17.8946 16.7646
383 2 2.2208 232.038 2.55391 14.8777 19.7498
394 2 2.2208 232.038 -0.211039 23.6606 19.7678
385 2 2.2208 232.038 5.53169 15.1385 16.9301
386 2 2.2208 232.038 8.22158 17.6023 16.8733
387 2 2.2208 232.038 8.28926 15.1095 19.819
388 2 2.2208 232.038 5.57899 17.8017 19.6891
389 2 2.2208 232.038 11.2307 15.0849 17.0133
390 2 2.2208 232.038 11.0837 18.0606 19.914
391 1 -1.1104 15.9994 12.5094 22.0767 26.8412
392 2 2.2208 232.038 2.59447 23.534 16.7184
393 2 2.2208 232.038 2.90377 20.4947 19.6817
655 1 -1.1104 15.9994 9.67265 16.4615 23.9026
395 2 2.2208 232.038 5.30412 20.5963 16.8266
396 2 2.2208 232.038 8.32051 23.3545 17.1663
397 2 2.2208 232.038 8.33995 20.4544 19.657
398 2 2.2208 232.038 5.46104 23.3286 19.6224
399 2 2.2208 232.038 11.3179 20.6152 17.0076
400 2 2.2208 232.038 11.241 23.459 19.8455
401 1 -1.1104 15.9994 12.5306 16.5622 23.9384
402 2 2.2208 232.038 2.61539 0.825104 22.5477
346 2 2.2208 232.038 2.58198 20.6109 14.0783
404 1 -1.1104 15.9994 9.6922 19.0892 26.7168
9319 2 2.2208 232.038 13.9048 3.71126 14.2023
406 2 2.2208 232.038 8.11508 0.821295 22.587
654 1 -1.1104 15.9994 6.76449 16.1832 23.7931
408 2 2.2208 232.038 5.43452 0.958102 25.5041
656 1 -1.1104 15.9994 6.86252 16.3678 26.9597
410 2 2.2208 232.038 10.9931 0.969352 25.4209
411 1 -1.1104 15.9994 6.74054 19.3206 26.7989
412 2 2.2208 232.038 2.39305 6.40527 22.5177
413 2 2.2208 232.038 2.35807 3.67038 25.3511
414 1 -1.1104 15.9994 9.60854 19.207 24.1699
415 2 2.2208 232.038 5.35818 3.80413 22.5196
416 2 2.2208 232.038 8.33031 6.53121 22.7834
417 2 2.2208 232.038 8.21969 3.70033 25.1821
418 2 2.2208 232.038 5.26477 6.62394 25.5477
419 2 2.2208 232.038 11.1546 3.50832 22.7574
420 2 2.2208 232.038 11.0365 6.45431 25.4278
421 1 -1.1104 15.9994 6.80218 19.1551 23.9382
422 2 2.2208 232.038 2.39554 12.1549 22.5746
423 2 2.2208 232.038 2.5834 9.44662 25.2673
424 1 -1.1104 15.9994 9.56704 16.5935 26.7371
425 2 2.2208 232.038 5.35755 9.42152 22.568
426 2 2.2208 232.038 8.06476 12.1934 22.7165
427 2 2.2208 232.038 8.10365 9.26943 25.5022
428 2 2.2208 232.038 5.28519 12.237 25.4325
429 2 2.2208 232.038 11.1237 9.37175 22.7477
430 2 2.2208 232.038 10.9794 12.2586 25.6553
652 1 -1.1104 15.9994 1.01905 19.1925 26.6878
432 2 2.2208 232.038 2.83196 17.8962 22.4558
433 2 2.2208 232.038 2.60271 15.0134 25.4413
651 1 -1.1104 15.9994 4.04884 19.3882 26.9163
435 2 2.2208 232.038 5.34699 14.9343 22.4475
436 2 2.2208 232.038 8.09451 17.973 22.6023
437 2 2.2208 232.038 8.21027 15.0201 25.3802
438 2 2.2208 232.038 5.35051 17.8553 25.3927
439 2 2.2208 232.038 10.9154 15.1843 22.5019
440 2 2.2208 232.038 10.9946 17.7021 25.3256
329 2 2.2208 232.038 5.55498 0.820417 14.0961
442 1 -1.1104 15.9994 12.8303 21.9812 23.7883
443 2 2.2208 232.038 2.60074 20.6292 25.3433
649 1 -1.1104 15.9994 3.98709 16.5904 26.8269
445 2 2.2208 232.038 5.56057 20.5132 22.4102
446 2 2.2208 232.038 8.32465 23.3693 22.6356
447 2 2.2208 232.038 8.22033 20.6294 25.3964
448 2 2.2208 232.038 5.4225 23.365 25.2158
449 2 2.2208 232.038 11.1923 20.6137 22.7065
450 2 2.2208 232.038 11.3861 23.4475 25.5979
451 1 -1.1104 15.9994 1.14046 -0.904851 15.4358
452 1 -1.1104 15.9994 3.90036 -0.809663 15.5566
453 1 -1.1104 15.9994 1.28694 2.38037 15.6655
454 1 -1.1104 15.9994 4.29078 2.28274 15.4905
455 1 -1.1104 15.9994 7.09405 -0.745375 15.5823
456 1 -1.1104 15.9994 9.99704 -0.518418 15.7042
457 1 -1.1104 15.9994 7.00694 2.29334 15.5704
458 1 -1.1104 15.9994 9.7421 2.23957 15.5205
459 1 -1.1104 15.9994 12.6351 -0.626989 15.4767
460 1 -1.1104 15.9994 12.5554 2.36232 15.2727
461 1 -1.1104 15.9994 1.27292 5.1684 15.4483
462 1 -1.1104 15.9994 4.07687 5.21835 15.7128
463 1 -1.1104 15.9994 1.25141 7.91275 15.5002
464 1 -1.1104 15.9994 4.16035 7.97768 15.3477
465 1 -1.1104 15.9994 6.82351 5.09512 15.5281
466 1 -1.1104 15.9994 9.781 4.99981 15.5867
467 1 -1.1104 15.9994 6.97941 7.82217 15.4078
468 1 -1.1104 15.9994 9.85372 7.69055 15.5357
469 1 -1.1104 15.9994 12.5713 5.16454 15.5488
470 1 -1.1104 15.9994 12.6591 8.01754 15.3575
471 1 -1.1104 15.9994 1.28021 10.7236 15.5682
472 1 -1.1104 15.9994 4.18491 10.6598 15.4457
473 1 -1.1104 15.9994 1.34901 13.4796 15.5246
474 1 -1.1104 15.9994 4.1883 13.5031 15.588
475 1 -1.1104 15.9994 6.97752 10.6019 15.8423
476 1 -1.1104 15.9994 9.78159 10.5966 15.2844
477 1 -1.1104 15.9994 6.90496 13.4291 15.7573
478 1 -1.1104 15.9994 9.66201 13.4444 15.4341
479 1 -1.1104 15.9994 12.7955 10.7272 15.7392
480 1 -1.1104 15.9994 12.4297 13.7363 15.4611
481 1 -1.1104 15.9994 1.1583 16.0931 15.3181
482 1 -1.1104 15.9994 4.11958 16.3105 15.4819
483 1 -1.1104 15.9994 1.53313 18.9789 14.9987
484 1 -1.1104 15.9994 4.13793 19.2793 15.4816
485 1 -1.1104 15.9994 7.03256 16.5527 15.316
486 1 -1.1104 15.9994 9.78827 16.2967 15.4163
487 1 -1.1104 15.9994 7.05157 19.1516 15.4993
488 1 -1.1104 15.9994 9.87801 19.1188 15.6096
489 1 -1.1104 15.9994 12.8609 16.306 15.803
490 1 -1.1104 15.9994 12.5817 19.2344 15.4587
491 1 -1.1104 15.9994 1.35228 22.2892 15.3189
492 1 -1.1104 15.9994 4.14619 22.1417 15.4219
493 1 -1.1104 15.9994 6.98158 22.0093 15.7412
494 1 -1.1104 15.9994 9.93583 22.0485 15.8099
495 1 -1.1104 15.9994 12.7514 22.1093 15.5518
496 1 -1.1104 15.9994 1.37583 -0.555642 18.3953
497 1 -1.1104 15.9994 4.18388 -0.516008 18.4913
498 1 -1.1104 15.9994 1.3834 -0.562907 21.1164
499 1 -1.1104 15.9994 4.10453 -0.374262 21.0336
500 1 -1.1104 15.9994 1.20362 2.34368 18.2733
501 1 -1.1104 15.9994 4.38701 2.32083 18.5887
502 1 -1.1104 15.9994 1.09104 2.28229 21.1227
503 1 -1.1104 15.9994 3.79671 2.47784 21.2907
504 1 -1.1104 15.9994 6.76707 -0.732931 18.3869
505 1 -1.1104 15.9994 9.88679 -0.574521 18.4189
506 1 -1.1104 15.9994 6.88572 -0.430123 21.1429
507 1 -1.1104 15.9994 9.65741 -0.595336 21.1181
508 1 -1.1104 15.9994 6.97372 2.15463 18.1409
509 1 -1.1104 15.9994 9.57893 2.2312 18.3386
510 1 -1.1104 15.9994 6.66424 2.33908 21.02
511 1 -1.1104 15.9994 9.65723 2.10279 21.1412
512 1 -1.1104 15.9994 12.5998 -0.790624 18.4065
513 1 -1.1104 15.9994 12.4198 -0.269469 21.1295
514 1 -1.1104 15.9994 12.4604 2.06112 18.2618
515 1 -1.1104 15.9994 12.6232 2.49772 21.2181
516 1 -1.1104 15.9994 0.963945 5.14193 18.3704
517 1 -1.1104 15.9994 3.76319 5.17174 18.5062
518 1 -1.1104 15.9994 1.02727 4.9543 21.2127
519 1 -1.1104 15.9994 4.11383 5.22708 21.2774
520 1 -1.1104 15.9994 0.945221 7.82693 18.2469
521 1 -1.1104 15.9994 3.8691 7.9941 18.409
522 1 -1.1104 15.9994 1.17342 7.8796 20.8837
523 1 -1.1104 15.9994 3.72938 8.22638 21.3399
524 1 -1.1104 15.9994 6.98104 5.27638 18.4771
525 1 -1.1104 15.9994 9.62088 4.96092 18.4585
526 1 -1.1104 15.9994 6.92725 5.21134 21.2772
527 1 -1.1104 15.9994 9.79388 5.05176 21.2095
528 1 -1.1104 15.9994 6.7888 7.85716 18.4262
529 1 -1.1104 15.9994 9.43692 7.89188 18.2382
530 1 -1.1104 15.9994 6.8118 7.858 21.3
531 1 -1.1104 15.9994 9.69262 7.82724 21.3918
532 1 -1.1104 15.9994 12.3983 5.10118 18.4384
533 1 -1.1104 15.9994 12.5547 5.06747 21.3177
534 1 -1.1104 15.9994 12.5592 8.01893 18.3662
535 1 -1.1104 15.9994 12.4819 7.88483 21.1964
536 1 -1.1104 15.9994 1.43111 10.6741 18.3079
537 1 -1.1104 15.9994 4.04338 10.566 18.3405
538 1 -1.1104 15.9994 1.10134 10.7955 21.186
539 1 -1.1104 15.9994 3.79253 10.9672 20.977
540 1 -1.1104 15.9994 1.23073 13.3765 18.3399
541 1 -1.1104 15.9994 3.92753 13.5888 18.34
542 1 -1.1104 15.9994 1.36819 13.9078 21.2425
543 1 -1.1104 15.9994 3.86949 13.7403 21.1258
544 1 -1.1104 15.9994 6.82182 10.7026 18.3892
545 1 -1.1104 15.9994 9.84296 10.7576 18.0466
546 1 -1.1104 15.9994 6.67188 10.6488 21.0348
547 1 -1.1104 15.9994 9.4561 10.8427 20.9959
548 1 -1.1104 15.9994 6.80068 13.3959 18.5457
549 1 -1.1104 15.9994 9.64814 13.9187 18.541
550 1 -1.1104 15.9994 6.81259 13.4957 21.4
551 1 -1.1104 15.9994 9.6528 13.6693 21.3372
552 1 -1.1104 15.9994 12.5608 11.0182 18.4751
553 1 -1.1104 15.9994 12.3753 10.707 21.2758
554 1 -1.1104 15.9994 12.6757 13.7696 18.3079
555 1 -1.1104 15.9994 12.224 13.6009 21.36
556 1 -1.1104 15.9994 1.28376 16.1707 18.404
557 1 -1.1104 15.9994 4.26233 16.5746 18.1706
558 1 -1.1104 15.9994 1.05942 16.7078 21.5741
559 1 -1.1104 15.9994 3.86148 16.3238 21.1017
560 1 -1.1104 15.9994 1.23745 19.0318 18.1686
561 1 -1.1104 15.9994 4.07099 19.3757 18.2129
562 1 -1.1104 15.9994 1.24287 18.9954 23.8682
563 1 -1.1104 15.9994 4.18768 18.9117 20.925
564 1 -1.1104 15.9994 7.19291 16.098 18.2072
565 1 -1.1104 15.9994 9.95109 16.4121 18.3968
566 1 -1.1104 15.9994 6.74316 16.3125 20.8873
567 1 -1.1104 15.9994 9.64097 16.5823 21.2165
568 1 -1.1104 15.9994 6.98272 19.0416 18.4647
569 1 -1.1104 15.9994 9.71026 19.1707 18.2814
570 1 -1.1104 15.9994 6.96022 19.1306 21.0716
571 1 -1.1104 15.9994 9.51921 19.3362 21.3611
572 1 -1.1104 15.9994 12.5307 16.5505 18.613
573 1 -1.1104 15.9994 12.6333 16.454 21.3093
574 1 -1.1104 15.9994 12.6658 19.3018 18.635
575 1 -1.1104 15.9994 12.446 19.2897 21.272
576 1 -1.1104 15.9994 1.44201 22.2543 19.3363
577 1 -1.1104 15.9994 3.87727 22.1663 18.1091
578 1 -1.1104 15.9994 1.30166 19.5785 21.1082
579 1 -1.1104 15.9994 4.32969 21.7713 20.9782
580 1 -1.1104 15.9994 6.78622 21.9364 18.5304
581 1 -1.1104 15.9994 9.68205 22.0262 18.6054
582 1 -1.1104 15.9994 7.27831 21.6046 21.2918
583 1 -1.1104 15.9994 10.0885 22.2214 21.4446
584 1 -1.1104 15.9994 12.3221 22.16 18.2606
585 1 -1.1104 15.9994 12.928 22.2436 20.9468
648 1 -1.1104 15.9994 1.21974 16.4362 26.8263
587 1 -1.1104 15.9994 4.00334 -0.508477 23.7448
588 1 -1.1104 15.9994 1.2126 -0.537233 26.4951
589 1 -1.1104 15.9994 3.87273 -0.532929 26.623
590 1 -1.1104 15.9994 1.09492 -0.57862 23.9325
591 1 -1.1104 15.9994 4.1248 2.49969 23.8945
592 1 -1.1104 15.9994 1.15929 2.26962 26.8812
593 1 -1.1104 15.9994 3.78872 2.2394 26.89
594 1 -1.1104 15.9994 6.90099 -0.58704 24.0526
595 1 -1.1104 15.9994 9.7124 -0.596575 24.0468
596 1 -1.1104 15.9994 6.89291 -0.401069 26.6702
597 1 -1.1104 15.9994 9.76343 -0.469585 26.898
598 1 -1.1104 15.9994 6.7129 2.42169 23.7269
599 1 -1.1104 15.9994 9.50281 2.14629 23.9998
600 1 -1.1104 15.9994 6.59873 2.28548 26.7264
601 1 -1.1104 15.9994 9.42362 2.28358 26.8066
602 1 -1.1104 15.9994 12.4572 -0.512932 24.0065
603 1 -1.1104 15.9994 12.4841 -0.344134 26.6974
604 1 -1.1104 15.9994 12.4275 2.32154 24.1245
605 1 -1.1104 15.9994 12.1695 2.25019 26.9911
606 1 -1.1104 15.9994 1.08896 5.12883 24.2757
607 1 -1.1104 15.9994 3.78798 5.1804 23.9986
608 1 -1.1104 15.9994 1.1172 5.1988 27.087
609 1 -1.1104 15.9994 3.87006 5.16584 26.9693
610 1 -1.1104 15.9994 0.810308 7.61615 23.7635
611 1 -1.1104 15.9994 3.73449 8.04191 23.9733
612 1 -1.1104 15.9994 0.964059 7.93877 26.7883
613 1 -1.1104 15.9994 3.82372 8.16017 26.795
614 1 -1.1104 15.9994 6.75259 5.24042 24.1179
615 1 -1.1104 15.9994 9.77388 5.01753 23.9998
616 1 -1.1104 15.9994 6.58738 5.12616 27.0149
617 1 -1.1104 15.9994 9.48007 5.01202 27.1381
618 1 -1.1104 15.9994 6.48261 8.30288 24.0928
619 1 -1.1104 15.9994 9.66467 7.80062 24.2415
620 1 -1.1104 15.9994 6.71816 7.95056 26.9521
621 1 -1.1104 15.9994 9.4651 7.7621 26.8024
622 1 -1.1104 15.9994 12.3944 5.10878 24.2729
623 1 -1.1104 15.9994 12.2675 4.9904 26.9651
624 1 -1.1104 15.9994 12.636 7.83888 24.0556
625 1 -1.1104 15.9994 12.2923 7.95937 27.0292
626 1 -1.1104 15.9994 1.1642 10.625 23.9058
627 1 -1.1104 15.9994 3.82184 10.8108 23.7453
628 1 -1.1104 15.9994 1.05373 10.6461 26.9222
629 1 -1.1104 15.9994 4.03178 10.9941 26.9671