LAMMPS data file via write_data, version 29 Oct 2020, timestep = 100000

18000 atoms
4 atom types

-0.18340637784252264 28.07740637784234 xlo xhi
-2.193268217751406 336.9212682177399 ylo yhi
-0.20491638069958032 28.098916380699567 zlo zhi
0.0 0.0 0.0 xy xz yz

Masses

1 15.9994
2 232.0381
3 15.9994
4 232.0381

Atoms # full

1 0 1 -1.1104 1.1766937220321352 -0.7007596552144342 0.990851903121631 0 0 0
2 0 1 -1.1104 4.088733577875171 -1.026696197620968 1.2248388869438585 0 0 0
3 0 1 -1.1104 3.912468895881809 -0.5126498852914392 3.8960700174554104 0 0 0
4 0 1 -1.1104 1.2501888464779725 -0.8195002448711812 3.8758106952361038 0 0 0
5 0 1 -1.1104 1.312111801407371 2.2000729938916095 1.040182473594525 0 0 0
6 0 1 -1.1104 3.977098593336124 2.0367864791396144 1.3098240887585382 0 0 0
7 0 1 -1.1104 4.240301289156331 2.1307470205099026 3.992135242504128 0 0 0
8 0 1 -1.1104 1.596984929901989 2.234575265280558 3.963920219245175 0 0 0
9 0 1 -1.1104 6.912687268976214 -0.8917457571334788 1.267411013895624 0 0 0
10 0 1 -1.1104 9.70746375826949 -0.6902418823570894 1.19428661817795 0 0 0
11 0 1 -1.1104 9.487644276605126 -0.32520436081820026 4.039436392957327 0 0 0
12 0 1 -1.1104 6.8687616583592765 -0.6168528677300975 4.030768872923742 0 0 0
13 0 1 -1.1104 6.803864818578693 1.985210408272315 1.1220465944611928 0 0 0
14 0 1 -1.1104 9.607214678136568 2.2758674511592485 1.2139851779715398 0 0 0
15 0 1 -1.1104 9.729854294510336 2.2948405547115973 4.14492363450964 0 0 0
16 0 1 -1.1104 6.948800485645168 2.1612600083938283 3.775215810664015 0 0 0
17 0 1 -1.1104 12.513637383840432 -0.7641666071457665 1.087820436464933 0 0 0
18 0 1 -1.1104 12.407975887102722 -0.6567927243517939 3.8515917384679046 0 0 0
19 0 1 -1.1104 12.489278539045232 2.101262457000639 0.9967648130486209 0 0 0
20 0 1 -1.1104 12.590892733743747 1.987579285021983 3.754078851008078 0 0 0
21 0 1 -1.1104 1.1138515617848666 4.920379047882782 1.13581572697928 0 0 0
22 0 1 -1.1104 3.9983178276419555 4.94849389715551 1.4826837473037877 0 0 0
23 0 1 -1.1104 4.340821747074733 5.063606558484032 4.229723765446426 0 0 0
24 0 1 -1.1104 1.4018071502374632 5.078686299726079 3.995544985649562 0 0 0
25 0 1 -1.1104 1.3596538489878898 7.712695675402841 1.2761922213359047 0 0 0
26 0 1 -1.1104 4.226916192357547 7.616462785880143 1.1499049383815332 0 0 0
27 0 1 -1.1104 4.182510480976112 8.019423357026039 4.094756921658717 0 0 0
28 0 1 -1.1104 1.5776438054591206 7.8456138853105495 4.052853604439976 0 0 0
29 0 1 -1.1104 6.860600007697023 5.10361744130671 0.8662860409370364 0 0 0
30 0 1 -1.1104 9.741537595249236 4.89532859656767 1.2425030248982305 0 0 0
31 0 1 -1.1104 10.004955562785304 5.091920337065522 4.030261738619185 0 0 0
32 0 1 -1.1104 7.297175760418899 5.060748829709769 3.9971417827242903 0 0 0
33 0 1 -1.1104 7.143632477491175 7.8860092927413525 1.034346362831715 0 0 0
34 0 1 -1.1104 9.656562144073263 7.832965824890518 1.1000921836414037 0 0 0
35 0 1 -1.1104 9.769768272119139 7.743720814300212 3.911017245987556 0 0 0
36 0 1 -1.1104 6.907317937001992 7.938072061112448 4.013439443502301 0 0 0
37 0 1 -1.1104 12.308199220769572 4.940870180954441 1.0234812659004144 0 0 0
38 0 1 -1.1104 12.528881784323772 7.458801575220857 4.145480880743044 0 0 0
39 0 1 -1.1104 12.641347371544988 7.620612287909923 1.277467060133428 0 0 0
12105 0 2 2.2208 11.229860145554682 -2.124688354924241 10.95678420715627 0 0 0
41 0 1 -1.1104 1.4235205064588967 10.42646954930605 1.0217783517526366 0 0 0
42 0 1 -1.1104 4.348625475946299 10.61450712280053 1.1588279941267858 0 0 0
43 0 1 -1.1104 4.301947222753402 10.643225529596757 4.2262744231586 0 0 0
44 0 1 -1.1104 1.559919603272651 10.465366943697797 4.016991222950193 0 0 0
45 0 1 -1.1104 1.429385446897418 13.214463444942758 1.1422734988933265 0 0 0
46 0 1 -1.1104 4.001897766931122 13.272670203059413 1.0985380655705719 0 0 0
47 0 1 -1.1104 4.266363309013238 13.284129227699236 3.79121986830474 0 0 0
48 0 1 -1.1104 1.486576172371111 13.307683302771668 4.2908239941061925 0 0 0
49 0 1 -1.1104 7.414179264182232 10.657610669068458 1.2089541407088549 0 0 0
50 0 1 -1.1104 10.042071296728082 10.474428834545995 1.2325455497435052 0 0 0
51 0 1 -1.1104 9.995145881313722 10.516543682246162 4.103893394296095 0 0 0
52 0 1 -1.1104 7.187457493268876 10.527505492664238 4.024507586194543 0 0 0
53 0 1 -1.1104 6.761702824416323 13.408223229581981 1.1502235221643762 0 0 0
54 0 1 -1.1104 9.721390099143461 13.278894918247929 1.4399254683271565 0 0 0
55 0 1 -1.1104 9.870200440606517 13.175430256163374 4.124561531523978 0 0 0
56 0 1 -1.1104 7.044823982465903 13.3514653603369 4.304325586897452 0 0 0
57 0 1 -1.1104 12.539057363981218 10.624494314607208 1.2574617696930663 0 0 0
58 0 1 -1.1104 12.67895402039458 10.160550216015654 4.160043075469894 0 0 0
59 0 1 -1.1104 12.653050380576936 13.432413939565297 1.3357245726202711 0 0 0
60 0 1 -1.1104 12.656540656745243 13.068394285221618 4.0031411674610045 0 0 0
61 0 1 -1.1104 1.239666216333303 15.987075845026336 1.1153672654083713 0 0 0
62 0 1 -1.1104 4.1936549344499685 16.295372886999807 1.2993966768051444 0 0 0
63 0 1 -1.1104 4.236442553055224 16.10797896822736 4.225561288600153 0 0 0
64 0 1 -1.1104 1.332535817635003 16.30606107417883 3.91676454146568 0 0 0
65 0 1 -1.1104 1.368072400619517 18.935493566766844 1.209636489928524 0 0 0
66 0 1 -1.1104 3.9073224579001375 19.181882212710303 0.8746521096476929 0 0 0
67 0 1 -1.1104 4.077910060781188 19.058125826560374 3.5536511588941484 0 0 0
68 0 1 -1.1104 1.2809098518825264 18.961312462924123 3.8931177818065064 0 0 0
69 0 1 -1.1104 7.124336646823732 16.103106010939367 1.535049999512699 0 0 0
70 0 1 -1.1104 9.670286630503051 16.07783426723593 1.3012567462819682 0 0 0
71 0 1 -1.1104 9.805867810254854 16.077368296536427 4.169827336300783 0 0 0
72 0 1 -1.1104 6.850512089182526 15.947713359248667 4.3319046118324165 0 0 0
73 0 1 -1.1104 6.615126607225943 19.160430537111946 1.4029030296626834 0 0 0
74 0 1 -1.1104 9.564975860348525 18.772052791227722 1.1751192855313368 0 0 0
75 0 1 -1.1104 9.724232394999618 18.91267624099827 3.840513526476717 0 0 0
76 0 1 -1.1104 6.895926573709422 18.737573659351828 3.9569107713329985 0 0 0
77 0 1 -1.1104 12.63303849017615 18.916546247279772 1.1400479485061663 0 0 0
78 0 1 -1.1104 12.4477773584229 16.17612386710617 4.123704893842665 0 0 0
79 0 1 -1.1104 12.576574224914934 21.703710903938607 1.0956407899213807 0 0 0
80 0 1 -1.1104 12.581359375908832 19.10036184436468 3.8740196678008383 0 0 0
81 0 1 -1.1104 1.2100442418896629 21.99225734519965 1.2232718233781352 0 0 0
82 0 1 -1.1104 4.159120232120586 21.772995771959827 1.2334436929801762 0 0 0
83 0 1 -1.1104 4.023366970149426 21.607470218201268 4.204556166880542 0 0 0
84 0 1 -1.1104 0.9396952917549813 21.690201450205798 4.020937644671473 0 0 0
85 0 1 -1.1104 7.058729121633322 22.008033028756657 1.1888280953851251 0 0 0
86 0 1 -1.1104 9.69467282182234 21.491886042489597 0.8367197845459142 0 0 0
87 0 1 -1.1104 9.61906186495358 22.06761536472604 3.757422574006626 0 0 0
88 0 1 -1.1104 6.8645574258561135 21.59349427874838 3.9149052479785023 0 0 0
12004 0 2 2.2208 -0.05658270655158931 0.6833445960241332 2.3892782948011115 0 0 0
90 0 1 -1.1104 12.384694305027706 21.65095805368805 4.110068763768236 0 0 0
91 0 1 -1.1104 1.2786790678069524 -0.8455356814807976 6.764135858510072 0 0 0
92 0 1 -1.1104 4.201806151218119 -0.5567558635183674 6.610949076018471 0 0 0
93 0 1 -1.1104 4.469310679135757 -0.9050673612089539 9.399181881901484 0 0 0
94 0 1 -1.1104 1.4768235246942587 -0.711438858592157 9.590515302173921 0 0 0
95 0 1 -1.1104 1.126526700584909 1.97750849942721 6.921341353870641 0 0 0
96 0 1 -1.1104 3.876816821491032 2.1754891242958445 6.7285830695412665 0 0 0
97 0 1 -1.1104 4.14861231137955 2.4343494778552146 9.556402971446783 0 0 0
98 0 1 -1.1104 1.34541501180559 2.0377711908077356 9.729341804216006 0 0 0
99 0 1 -1.1104 6.9462724400806035 -0.5847009664648802 6.878022542056 0 0 0
100 0 1 -1.1104 9.69669085500701 -0.9983881150017071 6.993822110198664 0 0 0
101 0 1 -1.1104 9.8939121140135 -0.6859694866873517 9.650631052701042 0 0 0
102 0 1 -1.1104 6.888036611681516 -0.8511064704395837 9.566779733989202 0 0 0
103 0 1 -1.1104 7.227101497713009 2.253338339778681 6.763236006396385 0 0 0
104 0 1 -1.1104 10.099480246495773 2.275009305344108 7.202739785043795 0 0 0
105 0 1 -1.1104 9.723476569327726 1.88002111116052 9.780067287891566 0 0 0
106 0 1 -1.1104 6.898122052752122 1.8323972402987896 9.708598672203511 0 0 0
107 0 1 -1.1104 12.542143007637568 -0.5726949795213747 6.596648474874114 0 0 0
108 0 1 -1.1104 12.76728227572115 -0.8661702751127328 9.484092913909576 0 0 0
109 0 1 -1.1104 12.749315148865417 2.209222741936011 6.774076049270492 0 0 0
110 0 1 -1.1104 12.832171732266074 2.1174188168304977 9.753364060832949 0 0 0
111 0 1 -1.1104 1.488384700637375 4.812311529924038 6.836186292358943 0 0 0
112 0 1 -1.1104 4.072520985216079 4.973596892243862 7.0291250506599745 0 0 0
113 0 1 -1.1104 4.043910524052623 5.132648505036363 9.788719826260992 0 0 0
114 0 1 -1.1104 1.4453978855956335 4.8079901189321985 9.605270830696252 0 0 0
115 0 1 -1.1104 1.3750791572170022 7.581838091651832 6.928085258803111 0 0 0
116 0 1 -1.1104 4.2800866080589595 7.6533692735333165 7.054343744134336 0 0 0
117 0 1 -1.1104 4.309392319506013 7.817971512953357 9.660006732690581 0 0 0
118 0 1 -1.1104 1.2003101606835145 7.795359474357614 9.892965129451921 0 0 0
119 0 1 -1.1104 7.010884073812276 5.140727470361882 6.88540825813825 0 0 0
120 0 1 -1.1104 9.785633530296675 4.708246250949225 6.821971199334577 0 0 0
121 0 1 -1.1104 9.950093955979211 4.812370127491171 9.727517742999837 0 0 0
122 0 1 -1.1104 7.122391885753839 4.786488916038067 9.724559407196116 0 0 0
123 0 1 -1.1104 6.884958964970596 7.618027825251606 6.795856205339695 0 0 0
124 0 1 -1.1104 9.676767115166562 7.747556317253881 6.9520004422405455 0 0 0
125 0 1 -1.1104 9.850625413987023 7.567250411780284 9.796827316002076 0 0 0
126 0 1 -1.1104 7.076566449928708 7.657282254031461 9.90790037642681 0 0 0
127 0 1 -1.1104 12.70323354917848 4.957531195259591 6.9880409476247145 0 0 0
128 0 1 -1.1104 12.639446641273146 4.887563642093632 9.571192677019173 0 0 0
129 0 1 -1.1104 12.623587412758297 7.726002414116786 6.967652889365244 0 0 0
130 0 1 -1.1104 12.661669357071263 7.742022296358574 9.60097203668399 0 0 0
131 0 1 -1.1104 1.6706779035717358 10.521305898604055 6.846501355327977 0 0 0
132 0 1 -1.1104 4.276794801850189 10.453951727020154 7.022986220529992 0 0 0
133 0 1 -1.1104 4.189933402702279 10.631520867039011 9.74780367957494 0 0 0
134 0 1 -1.1104 1.3757044524058217 10.725815483611603 9.623828004011829 0 0 0
135 0 1 -1.1104 1.2934191238549297 13.337708122128237 6.9334430940978855 0 0 0
136 0 1 -1.1104 4.077668702783334 13.4360653112408 6.684355724752009 0 0 0
137 0 1 -1.1104 4.157546645823315 13.345594881342226 9.770693010755263 0 0 0
138 0 1 -1.1104 1.452593495660259 13.694740291856311 9.718526949469739 0 0 0
139 0 1 -1.1104 7.062730430178768 10.477327916654753 7.019290556398989 0 0 0
140 0 1 -1.1104 9.69099906898798 10.657564252348463 6.742134159713354 0 0 0
141 0 1 -1.1104 9.875671036207784 10.415262371360942 9.644441369009376 0 0 0
142 0 1 -1.1104 7.040068211836633 10.229288783809183 9.615725819933553 0 0 0
143 0 1 -1.1104 6.961987168844289 13.265956691000312 7.085899716320711 0 0 0
144 0 1 -1.1104 9.695282567681181 13.489670180988336 6.805620694271332 0 0 0
145 0 1 -1.1104 9.60104177087623 13.266423124288876 9.634804339474137 0 0 0
146 0 1 -1.1104 6.932309119451256 13.137635253908822 9.968022748614741 0 0 0
147 0 1 -1.1104 12.718991284787025 10.390054270231886 6.9821127499054825 0 0 0
148 0 1 -1.1104 12.590019621395932 10.611204832530332 9.729168658829202 0 0 0
149 0 1 -1.1104 12.470078766836583 13.142273796366789 6.744462209167033 0 0 0
150 0 1 -1.1104 12.675789993404514 13.281205521152057 9.625617706268981 0 0 0
151 0 1 -1.1104 1.4101996594817132 16.171974155605547 6.577044239705236 0 0 0
152 0 1 -1.1104 4.069185192396789 16.093819601378616 6.943853377407028 0 0 0
153 0 1 -1.1104 3.830376517556352 16.169811488835794 9.814831345243197 0 0 0
154 0 1 -1.1104 1.0766221458581813 16.361408281156738 9.769957706174127 0 0 0
155 0 1 -1.1104 1.1754570216875344 19.07345362378815 6.850523723700079 0 0 0
156 0 1 -1.1104 3.9831741147671953 19.082513958945395 6.791134561841415 0 0 0
157 0 1 -1.1104 3.9647281483198697 18.988306317955132 9.898979537545312 0 0 0
158 0 1 -1.1104 1.281055398261565 19.185674056206285 9.843104618268088 0 0 0
159 0 1 -1.1104 6.892078119731769 16.199338967428044 7.08178516601659 0 0 0
160 0 1 -1.1104 9.862843175545724 16.250030332745407 6.936916578560585 0 0 0
161 0 1 -1.1104 9.618010286970572 16.03508720129648 9.641296452048655 0 0 0
162 0 1 -1.1104 6.784346424577172 15.879677937031015 9.593869341139358 0 0 0
163 0 1 -1.1104 6.99146476589778 18.868541058595305 6.973371850495181 0 0 0
164 0 1 -1.1104 9.740623337819866 18.974604955056016 6.82022871050191 0 0 0
165 0 1 -1.1104 9.599034636479697 18.91732028453311 9.658319621856629 0 0 0
166 0 1 -1.1104 7.011815078160773 18.749759786356716 9.69426958680138 0 0 0
167 0 1 -1.1104 12.756189971672558 15.845497296479596 6.808419933304596 0 0 0
168 0 1 -1.1104 12.577319625353853 16.094953093341 9.676304715799597 0 0 0
169 0 1 -1.1104 12.432065875160369 18.938072704698236 6.802875745819222 0 0 0
170 0 1 -1.1104 12.470500379708772 18.87916508800512 9.732139057576124 0 0 0
171 0 1 -1.1104 1.439334044797887 21.810462906838463 6.979067399924289 0 0 0
172 0 1 -1.1104 4.12316729987451 21.987840498758217 6.797538271567148 0 0 0
173 0 1 -1.1104 4.133585282504301 21.5683959990398 9.480017197798379 0 0 0
174 0 1 -1.1104 1.4980698432162205 21.904167863854155 9.919008389751326 0 0 0
175 0 1 -1.1104 7.039270603336394 21.61348907803619 6.917177892720839 0 0 0
176 0 1 -1.1104 9.736491311483206 21.79288799060265 6.776918884336738 0 0 0
177 0 1 -1.1104 9.649691192203267 21.83342674464993 9.508600802314348 0 0 0
178 0 1 -1.1104 6.776162018114567 21.8973942064144 9.59804190098259 0 0 0
179 0 1 -1.1104 12.659331904937495 21.76772545856414 6.811470123034903 0 0 0
180 0 1 -1.1104 12.53540785012983 21.808975527412347 9.493911028042325 0 0 0
181 0 1 -1.1104 1.3523576887569682 -0.7809343359122534 12.107564117744511 0 0 0
182 0 1 -1.1104 4.2838583929801315 -0.6083080391798878 12.4078205290713 0 0 0
183 0 1 -1.1104 1.3134874153178087 1.9542094636737188 12.484195781303194 0 0 0
184 0 1 -1.1104 4.076292505271299 2.1580353670905463 12.451082040326245 0 0 0
185 0 1 -1.1104 6.998054387082571 -0.6604736439233065 12.415704682524376 0 0 0
186 0 1 -1.1104 9.918671738843077 -0.9238352613401397 12.62462419228714 0 0 0
187 0 1 -1.1104 6.778742765067873 2.167194457090235 12.290660412447554 0 0 0
188 0 1 -1.1104 9.620967337272246 1.9201882926267047 12.486306176684472 0 0 0
189 0 1 -1.1104 12.642530955589148 -0.8951781813219551 12.43796882785703 0 0 0
190 0 1 -1.1104 12.506513470024144 1.8596263002108082 12.488228827007692 0 0 0
191 0 1 -1.1104 1.1866025287091329 4.787821608720048 12.828152631122638 0 0 0
192 0 1 -1.1104 4.029152858427712 5.031838767315199 12.565485587108654 0 0 0
193 0 1 -1.1104 1.1841395840843223 7.600108014703842 12.527614568496421 0 0 0
194 0 1 -1.1104 4.10163311997969 7.734056678000826 12.667487215434253 0 0 0
195 0 1 -1.1104 7.0150112255912696 5.064176021832357 12.425503893391614 0 0 0
196 0 1 -1.1104 9.929468348885257 4.6309709257093035 12.585407385670186 0 0 0
197 0 1 -1.1104 7.0642200576230465 7.632483212363462 12.599914394574805 0 0 0
198 0 1 -1.1104 9.752832747960843 7.437937827439487 12.503331481891296 0 0 0
199 0 1 -1.1104 12.601105454941072 4.756953784465767 12.375640663669163 0 0 0
200 0 1 -1.1104 12.830522940157978 7.691248559369509 12.537121808353096 0 0 0
201 0 1 -1.1104 1.4243475487544652 10.52961742668373 12.271389821058545 0 0 0
202 0 1 -1.1104 3.930023261029818 10.722540947345115 12.724179940223292 0 0 0
203 0 1 -1.1104 1.402474497003587 13.568131494202497 12.45050631313555 0 0 0
204 0 1 -1.1104 4.2666995185779975 13.4495404500673 12.585871486004534 0 0 0
205 0 1 -1.1104 6.970958195770195 10.649824316798725 12.559699687480554 0 0 0
206 0 1 -1.1104 9.804936062067917 10.426469787123846 12.46922318460865 0 0 0
207 0 1 -1.1104 6.919025429056621 13.3607924510816 12.60365787229386 0 0 0
208 0 1 -1.1104 9.780864827800198 13.138421092594115 12.412803583648971 0 0 0
209 0 1 -1.1104 12.61384963674227 10.66392764213556 12.578398310267891 0 0 0
210 0 1 -1.1104 12.490116778969812 13.257043649543581 12.404607280846983 0 0 0
211 0 1 -1.1104 1.4003979000665263 16.354280455471294 12.757173156916298 0 0 0
212 0 1 -1.1104 4.55375538508345 16.31785966530579 12.404071779212446 0 0 0
213 0 1 -1.1104 1.225058957506859 19.060021333462522 12.609826953711801 0 0 0
214 0 1 -1.1104 4.074281632301368 18.95120079002498 12.583253326417141 0 0 0
215 0 1 -1.1104 7.3130665295435415 16.29026734892181 12.51309466967813 0 0 0
216 0 1 -1.1104 10.001900400118522 16.366630443488337 12.566565684035604 0 0 0
217 0 1 -1.1104 6.997423786234013 19.108466514023135 12.579749513087187 0 0 0
218 0 1 -1.1104 9.85928684301208 19.258018230026448 12.296146782426668 0 0 0
219 0 1 -1.1104 12.76008245354024 15.881243157228827 12.413725111461165 0 0 0
220 0 1 -1.1104 12.587676207229924 18.912519141816343 12.431628648985658 0 0 0
221 0 1 -1.1104 1.1695648463527808 22.132602005692938 12.683377139111117 0 0 0
222 0 1 -1.1104 3.9742480291620184 21.714386335259498 12.665748317560464 0 0 0
223 0 1 -1.1104 6.782657627133184 22.118289971669448 12.300902077881522 0 0 0
224 0 1 -1.1104 9.529874267602795 21.81558077053527 12.30490603494678 0 0 0
225 0 1 -1.1104 12.591664272098406 21.74388301758996 12.353993631328324 0 0 0
12103 0 2 2.2208 5.383628753975677 -2.099320802998013 10.97723634735224 0 0 0
12036 0 2 2.2208 8.216087166883485 17.54004375049475 -0.17225224061357172 0 0 0
12106 0 2 2.2208 -0.11194568153333963 3.3453600870590408 11.031716612818695 0 0 0
12059 0 2 2.2208 11.18727735884683 -1.9262846012175918 5.3564021504822295 0 0 0
12034 0 2 2.2208 -0.10915783399607291 17.614445735408907 2.444388560396394 0 0 0
15121 0 2 2.2208 13.857108390368065 23.437917207196254 11.30818179050223 0 0 0
12094 0 2 2.2208 -0.028960785657250666 23.171526967881906 8.39346561458781 0 0 0
12008 0 2 2.2208 5.707433852242427 0.4882963788698341 2.6436719242355324 0 0 0
12044 0 2 2.2208 -0.1485569648612086 23.284823706207177 2.647748772300508 0 0 0
12010 0 2 2.2208 11.136777421032077 0.6905302948902511 2.4458989176990857 0 0 0
12125 0 2 2.2208 10.958562147961842 20.470692811831338 10.944903528342914 0 0 0
12111 0 2 2.2208 -0.17124551829980164 9.150971195477513 11.134537417571998 0 0 0
12013 0 2 2.2208 2.820025963627538 3.48961202806683 2.662082690747996 0 0 0
12124 0 2 2.2208 8.090360079572276 23.15461624364471 10.944728945638458 0 0 0
12024 0 2 2.2208 0.5874173716618978 11.826143972761315 2.573459408076405 0 0 0
12053 0 2 2.2208 2.8283043854175354 -2.1356225240074242 8.007427927006873 0 0 0
12017 0 2 2.2208 8.448296498578113 3.5881416317268657 2.650810781399687 0 0 0
12018 0 2 2.2208 5.568175152430466 6.409066031465727 2.5580334929517137 0 0 0
6061 0 1 -1.1104 12.850130671056702 16.0986248894937 1.2185854623240768 0 0 0
12020 0 2 2.2208 11.25783189458499 6.379706469649012 2.457610559120247 0 0 0
12113 0 2 2.2208 5.720213076650335 9.1269616320752 11.27859502922569 0 0 0
12104 0 2 2.2208 8.24549106035896 0.6038792453117846 11.004466109876615 0 0 0
12023 0 2 2.2208 3.019019553466396 9.204335894271349 2.6136944996774294 0 0 0
12121 0 2 2.2208 -0.0715017796888326 20.450396849948746 11.320029165779413 0 0 0
12074 0 2 2.2208 0.14317417895150517 12.067491710674057 8.324983461490891 0 0 0
12107 0 2 2.2208 2.7589380450801895 6.28922242628887 11.253571163514854 0 0 0
12027 0 2 2.2208 8.515320735415768 9.129471473010724 2.4451296831366447 0 0 0
12028 0 2 2.2208 5.870160742059947 11.945342217392382 2.6062104061307774 0 0 0
12116 0 2 2.2208 -0.07346249487438768 14.851946826824669 11.159091965609367 0 0 0
12030 0 2 2.2208 11.352604885272347 11.827009128376487 2.725039103612809 0 0 0
12102 0 2 2.2208 2.6983901930789806 0.7553622485937262 10.989327895149795 0 0 0
12114 0 2 2.2208 8.564442995792295 11.810435845360368 11.002633913279473 0 0 0
12033 0 2 2.2208 2.6997188626229778 14.816230884600397 2.685526980230367 0 0 0
12131 0 2 2.2208 2.6372045121399967 3.4379050813007455 13.761012048584826 0 0 0
12100 0 2 2.2208 11.265957601591285 23.206143672344464 8.375471103531314 0 0 0
12099 0 2 2.2208 11.24422598099826 20.214682077073686 5.482446771101359 0 0 0
12037 0 2 2.2208 8.4612248219067 14.62366966724949 2.7787771093679545 0 0 0
12038 0 2 2.2208 5.665050804156775 17.480397200897443 2.6075434972838964 0 0 0
12098 0 2 2.2208 5.605403159082867 23.112678693707085 8.169673131839001 0 0 0
12040 0 2 2.2208 11.238937457959421 17.446245971269946 2.3693820223082778 0 0 0
12097 0 2 2.2208 8.380675800813993 20.219855073840588 8.272162330366262 0 0 0
15031 0 2 2.2208 13.915819619261516 17.510795698437928 -0.14859820301642343 0 0 0
12043 0 2 2.2208 2.491561719037471 20.258625593015513 2.441145340526295 0 0 0
12123 0 2 2.2208 5.574252581194982 20.15412366336349 11.23803432409203 0 0 0
12096 0 2 2.2208 8.261498779003684 23.185625109211635 5.335918123639973 0 0 0
12095 0 2 2.2208 5.497219160674954 20.335836469498773 5.474534589765918 0 0 0
12047 0 2 2.2208 8.32280674812603 20.33794780529611 2.526207843025135 0 0 0
12048 0 2 2.2208 5.359410392359386 23.005130116959368 2.5929487268127795 0 0 0
12115 0 2 2.2208 11.438010157141184 8.93717357233195 11.072231252282748 0 0 0
12050 0 2 2.2208 10.995904462702219 23.268243766823886 2.4175683127064294 0 0 0
12003 0 2 2.2208 2.6190552820074933 -2.1872645284212116 2.5266002930526645 0 0 0
12052 0 2 2.2208 2.54849436906669 0.5623754980973944 5.40322931501139 0 0 0
12112 0 2 2.2208 2.823222548569242 11.950687624871641 11.057830272440457 0 0 0
12122 0 2 2.2208 2.8519908907595317 23.11285238028777 11.137001007018902 0 0 0
12110 0 2 2.2208 11.218057921105467 3.2404512375063965 11.111503720880727 0 0 0
12056 0 2 2.2208 8.388616483575333 0.8944378080945736 5.372239693380785 0 0 0
12109 0 2 2.2208 8.459865339831678 6.236519658016651 11.092602043043291 0 0 0
12058 0 2 2.2208 5.541135905764387 0.6338334668289041 8.141150526443223 0 0 0
12108 0 2 2.2208 5.609161121793681 3.6038605030483 11.055894896910024 0 0 0
12060 0 2 2.2208 11.250917699252527 0.5713052076235786 8.300340997374283 0 0 0
12120 0 2 2.2208 11.126596269765407 14.483315232121246 11.070770216682735 0 0 0
12062 0 2 2.2208 2.7536446401671855 6.506389960897735 5.477670960559043 0 0 0
12063 0 2 2.2208 2.6215755677214103 3.561218888554186 8.238883934237903 0 0 0
12119 0 2 2.2208 8.343599801124888 17.56731446244892 10.980463196352996 0 0 0
12065 0 2 2.2208 5.502849421940961 3.5623442955155005 5.575869480976816 0 0 0
12066 0 2 2.2208 8.421485186943714 6.349418630794435 5.350737621180578 0 0 0
12067 0 2 2.2208 8.475093800355213 3.520611799944849 8.420554392644455 0 0 0
12068 0 2 2.2208 5.619461519506248 6.253739272307795 8.280893731032958 0 0 0
12069 0 2 2.2208 11.377533612966705 3.530510189630274 5.500609868799828 0 0 0
12070 0 2 2.2208 11.145343555496305 6.249156887019738 8.232786737493363 0 0 0
12133 0 2 2.2208 8.462356962334036 3.2397518712183375 13.723334842359135 0 0 0
12072 0 2 2.2208 2.8069453564661737 12.002182215507283 5.597992885813735 0 0 0
12073 0 2 2.2208 2.8185268265183754 9.04118303055761 8.41084777715643 0 0 0
12118 0 2 2.2208 5.6095423284625605 14.568546316486493 11.080213807792406 0 0 0
12075 0 2 2.2208 5.6704495684239555 9.25793519763035 5.595294332253225 0 0 0
12076 0 2 2.2208 8.341546285782373 12.014704433791678 5.483774236257798 0 0 0
12077 0 2 2.2208 8.321200724235547 8.969416991806707 8.283643771213873 0 0 0
12078 0 2 2.2208 5.716696297207768 11.882103161648452 8.41611047416784 0 0 0
12079 0 2 2.2208 11.22854935583455 9.108456525584662 5.550559116697336 0 0 0
12080 0 2 2.2208 11.083105213408762 12.003142849712441 8.172209690965154 0 0 0
12014 0 2 2.2208 0.012375080872890907 6.2102965872898395 2.577936083560362 0 0 0
12082 0 2 2.2208 2.81642389661402 17.538412988356743 5.194278080657262 0 0 0
12083 0 2 2.2208 2.8162041119230516 14.815146351694668 8.32171492704383 0 0 0
12117 0 2 2.2208 2.5687595478096052 17.55959332124846 11.278249961209422 0 0 0
12085 0 2 2.2208 5.570367007273433 14.757298848357365 5.658458662904796 0 0 0
12086 0 2 2.2208 8.304431188203239 17.5688856502622 5.434171866405215 0 0 0
12087 0 2 2.2208 8.428482659403361 14.85426168155276 8.262698761775901 0 0 0
12088 0 2 2.2208 5.3545179834363665 17.381846206547742 8.38187558097929 0 0 0
12089 0 2 2.2208 11.177715711029268 14.677325079259617 5.420303629843916 0 0 0
12090 0 2 2.2208 11.201953817258643 17.464826644348864 8.139310099924998 0 0 0
12136 0 2 2.2208 2.7159139934539573 9.13716105842178 13.806836862711371 0 0 0
12092 0 2 2.2208 2.7080610907613427 23.227492707613873 5.382645949354519 0 0 0
12093 0 2 2.2208 2.6329641596904527 20.26983931073577 8.282511094112824 0 0 0
12061 0 2 2.2208 0.04925792409387427 3.448654160396149 5.388047537163881 0 0 0
12144 0 2 2.2208 5.773617464430564 17.362513838574806 13.85677668930384 0 0 0
6022 0 1 -1.1104 13.041865469752011 4.857700013403783 4.1054977204731955 0 0 0
12081 0 2 2.2208 0.07570608537763017 14.793922966668296 5.459811886269633 0 0 0
12138 0 2 2.2208 8.421879732307481 8.921947809458285 13.90057772848779 0 0 0
12015 0 2 2.2208 5.520171188431343 3.3629652760141537 -0.09729607878494881 0 0 0
15146 0 2 2.2208 13.807495876657411 20.627695262077747 13.899741522717873 0 0 0
12071 0 2 2.2208 0.1622022896935256 9.041023355049104 5.694970560489698 0 0 0
12064 0 2 2.2208 -0.07003494517639561 6.07733192322931 8.10126022488045 0 0 0
12091 0 2 2.2208 -0.05554315394035267 20.446069541786162 5.44572252593065 0 0 0
12143 0 2 2.2208 8.461917465825326 14.849624611942016 13.885773294684936 0 0 0
12039 0 2 2.2208 11.214353966275421 14.617882718833048 -0.08555643193681209 0 0 0
12084 0 2 2.2208 -0.07346283741253815 17.6446931684523 8.458088749463096 0 0 0
15042 0 2 2.2208 13.844660323604067 20.306793409266177 2.586764481005169 0 0 0
12042 0 2 2.2208 2.754979198651487 23.26351370428724 -0.08219750191618577 0 0 0
12140 0 2 2.2208 11.220912025008117 11.92561770914108 13.877862946565365 0 0 0
12149 0 2 2.2208 5.446185312757718 23.42574892036304 13.822698103687364 0 0 0
12129 0 2 2.2208 5.56140438158806 0.7846450146427517 13.711233361117175 0 0 0
15001 0 2 2.2208 13.867764669446577 0.6473264921054555 -0.19781316387175607 0 0 0
12126 0 2 2.2208 2.6160898622350617 -2.0973333367260225 13.695815623603533 0 0 0
12045 0 2 2.2208 5.516484723202164 20.51354774542445 -0.09547085287331489 0 0 0
12127 0 2 2.2208 0.03861668012695636 0.643022420226487 13.71870995862734 0 0 0
12137 0 2 2.2208 0.0611432589495717 11.976535387805457 13.829299388263982 0 0 0
12145 0 2 2.2208 11.394349051284156 17.51984621730445 13.776751095782236 0 0 0
12002 0 2 2.2208 2.7669313512815297 0.6469669771045119 0.03355885644542039 0 0 0
12141 0 2 2.2208 2.6730001629982434 14.73538777909025 13.940387411271029 0 0 0
12150 0 2 2.2208 10.981999207954543 23.29930775723405 13.94668913400687 0 0 0
226 0 1 -1.1104 4.096283068175328 -0.8929360612637813 15.124305324093287 0 0 0
227 0 1 -1.1104 1.2906185183372823 -0.8080000946887256 15.240645720866768 0 0 0
228 0 1 -1.1104 4.223359022269796 1.943068485799228 15.178718380022461 0 0 0
229 0 1 -1.1104 1.3955740178923506 2.0794844188564596 15.112217793554931 0 0 0
230 0 1 -1.1104 9.633415218919655 -0.9784220364906813 15.21181453358257 0 0 0
231 0 1 -1.1104 6.987614997373988 -0.7558595147912561 15.075738515745238 0 0 0
232 0 1 -1.1104 9.834385338045362 2.021516455302955 15.419901939149328 0 0 0
233 0 1 -1.1104 7.095975585361031 1.9199529787649043 15.093956360944798 0 0 0
234 0 1 -1.1104 12.561902124147695 -1.0139380552330601 15.280790686878124 0 0 0
235 0 1 -1.1104 12.544823350540616 2.1156497122347204 15.315275568797354 0 0 0
236 0 1 -1.1104 3.7620879207925664 5.015607835945514 15.220569157735815 0 0 0
237 0 1 -1.1104 1.0641689896723372 4.941429841325192 15.397464547791985 0 0 0
238 0 1 -1.1104 4.101115284122288 7.875416323056097 15.24996191418565 0 0 0
239 0 1 -1.1104 1.335793520104075 7.787590881106414 15.455534769427716 0 0 0
240 0 1 -1.1104 9.626267879177336 4.927660385938868 15.240660405841629 0 0 0
241 0 1 -1.1104 6.84289036767438 4.750499620322091 15.262163518662767 0 0 0
242 0 1 -1.1104 9.820402597060205 7.791152942781897 15.508069919277922 0 0 0
243 0 1 -1.1104 6.997949046356541 7.531197455076698 15.49155830837598 0 0 0
244 0 1 -1.1104 12.506599289397515 4.79613639011216 15.340784668867766 0 0 0
245 0 1 -1.1104 12.73363119202233 7.530716323359866 15.318597792266122 0 0 0
246 0 1 -1.1104 4.303948989160644 10.627374555999102 15.51669837598358 0 0 0
247 0 1 -1.1104 1.0641915748293171 10.606846864765776 15.173404654189103 0 0 0
248 0 1 -1.1104 4.170810275509954 13.385071213700153 15.462123027006234 0 0 0
12171 0 2 2.2208 -0.07777736955550077 9.198875290948235 16.84019021607768 0 0 0
250 0 1 -1.1104 9.873297682091026 10.540118110327843 15.19210190924717 0 0 0
251 0 1 -1.1104 6.968289848017886 10.514101916086547 15.079176304786884 0 0 0
252 0 1 -1.1104 9.771476752141457 13.525170348469153 15.173596276539168 0 0 0
253 0 1 -1.1104 7.086976590988241 13.250009775073094 15.222247285965448 0 0 0
254 0 1 -1.1104 12.808845172215506 10.540578689561817 15.427887131714995 0 0 0
255 0 1 -1.1104 12.470172292920768 13.322926029441959 15.190044191663926 0 0 0
256 0 1 -1.1104 4.255138884868428 16.06471682161691 15.187630852770871 0 0 0
257 0 1 -1.1104 1.1309543094715075 16.262396445816524 15.274944952168408 0 0 0
258 0 1 -1.1104 4.198851615178364 18.92290362388383 15.268703798578219 0 0 0
259 0 1 -1.1104 1.3963648713744927 19.0012582818449 15.434718057986425 0 0 0
260 0 1 -1.1104 9.887805950467836 16.313922936238885 15.43824584563058 0 0 0
261 0 1 -1.1104 7.116316883203825 16.25735209006729 15.269016180751956 0 0 0
262 0 1 -1.1104 9.608430596139344 19.128471969636752 15.266877826012536 0 0 0