ITEM: TIMESTEP
50000
ITEM: NUMBER OF ATOMS
18000
ITEM: BOX BOUNDS xy xz yz pp pp pp
-1.9574347349080304e-01 2.8089743473490621e+01 0.0000000000000000e+00
-2.1850633105981303e+00 3.3691306331059656e+02 0.0000000000000000e+00
-2.1024873788777737e-01 2.8104248737886838e+01 0.0000000000000000e+00
ITEM: ATOMS id type q mass x y z
330 2 2.2208 232.038 10.9556 6.16602 13.7224
2 1 -1.1104 15.9994 6.68575 16.3837 12.1699
5 2 2.2208 232.038 2.59675 14.7054 13.8869
64 2 2.2208 232.038 -0.0905911 6.23951 8.30105
319 2 2.2208 232.038 5.4091 17.7359 13.666
6 1 -1.1104 15.9994 4.11346 19.1143 12.1829
7 1 -1.1104 15.9994 1.1479 19.0622 12.5218
8 2 2.2208 232.038 5.67573 0.662982 2.25507
9 1 -1.1104 15.9994 4.05205 16.2092 12.4821
10 2 2.2208 232.038 11.2482 0.596307 2.4322
11 1 -1.1104 15.9994 1.23676 16.0089 12.4711
12 1 -1.1104 15.9994 12.4454 13.5065 12.363
13 2 2.2208 232.038 2.57826 3.37267 2.20566
335 2 2.2208 232.038 11.1034 11.8681 13.6342
15 1 -1.1104 15.9994 12.4864 10.6968 12.085
16 1 -1.1104 15.9994 9.64508 13.5441 12.5395
17 2 2.2208 232.038 8.5166 3.20135 2.51741
18 2 2.2208 232.038 5.50956 6.18506 2.44727
19 1 -1.1104 15.9994 6.8363 13.5675 12.2783
20 2 2.2208 232.038 11.2411 6.24034 2.40163
8981 2 2.2208 232.038 13.9023 9.05195 2.38627
14 2 2.2208 232.038 5.58786 11.9153 13.8256
23 2 2.2208 232.038 2.62309 9.07093 2.55506
794 1 -1.1104 15.9994 8.30103 23.3195 2.30285
25 1 -1.1104 15.9994 9.68811 10.6364 11.994
26 1 -1.1104 15.9994 7.06336 10.5869 12.5524
27 2 2.2208 232.038 8.3227 9.19763 2.36478
28 2 2.2208 232.038 5.19564 11.8234 2.39576
29 1 -1.1104 15.9994 3.90794 13.356 12.5223
30 2 2.2208 232.038 10.945 11.9495 2.28101
318 1 -1.1104 15.9994 1.43278 7.35442 12.4751
32 1 -1.1104 15.9994 1.11602 13.0381 12.3294
33 2 2.2208 232.038 2.52873 14.6684 2.49478
44 3 -1.1104 15.9994 -0.247634 17.8126 11.0488
35 1 -1.1104 15.9994 4.40445 10.6923 12.2498
36 1 -1.1104 15.9994 1.28277 10.3686 12.1659
37 2 2.2208 232.038 8.13353 14.303 2.37589
38 2 2.2208 232.038 5.10487 17.5757 2.59769
39 1 -1.1104 15.9994 12.5007 7.71837 12.0909
40 2 2.2208 232.038 11.4992 17.4633 2.49284
8241 2 2.2208 232.038 8.18648 -2.20089 8.31949
42 1 -1.1104 15.9994 12.4561 4.78486 12.5123
43 2 2.2208 232.038 2.77559 20.5895 2.5727
317 1 -1.1104 15.9994 3.93583 4.86531 12.4994
45 1 -1.1104 15.9994 9.69486 7.64282 12.3853
46 1 -1.1104 15.9994 6.94654 7.78602 12.3666
47 2 2.2208 232.038 8.22048 20.862 2.32429
48 2 2.2208 232.038 5.55183 23.498 2.30342
49 1 -1.1104 15.9994 9.69724 4.68255 12.2638
50 2 2.2208 232.038 11.0678 23.2161 2.45145
51 1 -1.1104 15.9994 6.72111 4.88493 12.5582
52 2 2.2208 232.038 2.71849 0.529634 5.34154
53 1 -1.1104 15.9994 7.02844 21.87 12.209
316 1 -1.1104 15.9994 0.879297 4.92058 12.2727
55 1 -1.1104 15.9994 4.27228 21.8828 12.3021
56 2 2.2208 232.038 8.28172 0.499153 5.23809
57 1 -1.1104 15.9994 1.40947 21.6945 12.4248
58 2 2.2208 232.038 5.37698 0.611596 8.03937
59 1 -1.1104 15.9994 12.6356 19.0019 12.1856
60 2 2.2208 232.038 11.4021 0.816575 8.11862
346 2 2.2208 232.038 2.71368 3.43081 13.6766
62 2 2.2208 232.038 2.43171 6.37044 5.2052
63 2 2.2208 232.038 2.59397 3.42179 7.862
315 1 -1.1104 15.9994 12.8402 1.88387 12.4258
65 2 2.2208 232.038 5.72112 3.41906 5.29183
66 2 2.2208 232.038 8.2857 6.28834 5.22031
67 2 2.2208 232.038 8.2065 3.45487 8.19221
68 2 2.2208 232.038 5.38908 6.14599 8.10079
69 2 2.2208 232.038 11.1337 3.28783 5.44266
70 2 2.2208 232.038 11.1936 5.98122 8.17198
328 2 2.2208 232.038 8.2623 3.37178 13.7822
72 2 2.2208 232.038 2.55062 11.886 5.35195
73 2 2.2208 232.038 2.72933 8.98143 8.17032
74 1 -1.1104 15.9994 4.12535 7.7976 12.5504
75 2 2.2208 232.038 5.44224 8.9906 5.13456
76 2 2.2208 232.038 8.24612 11.8831 5.34572
77 2 2.2208 232.038 8.01766 9.03824 8.35824
78 2 2.2208 232.038 5.44753 11.7742 8.05892
79 2 2.2208 232.038 11.1615 9.17501 4.89255
80 2 2.2208 232.038 11.1392 12.3532 8.05389
81 4 2.2208 232.038 8.22224 17.78 2.44797
82 2 2.2208 232.038 2.5115 17.5578 5.24556
83 2 2.2208 232.038 2.49407 14.5365 8.25923
106 2 2.2208 232.038 -0.175586 3.20038 10.9874
85 2 2.2208 232.038 5.40153 14.6419 5.29646
86 2 2.2208 232.038 8.41511 17.4909 5.53336
87 2 2.2208 232.038 8.22457 14.7185 8.07553
88 2 2.2208 232.038 5.35326 17.6881 8.10504
89 2 2.2208 232.038 11.2052 14.6321 5.20555
90 2 2.2208 232.038 11.0188 17.5614 8.05323
91 1 -1.1104 15.9994 12.1246 16.1934 12.2923
92 2 2.2208 232.038 2.51453 23.5409 5.35185
93 2 2.2208 232.038 2.70139 20.5519 8.16047
366 4 2.2208 232.038 8.38436 23.603 13.6145
95 2 2.2208 232.038 5.4298 20.3736 5.23843
96 2 2.2208 232.038 8.14348 23.2615 5.24259
97 2 2.2208 232.038 8.30255 20.4926 7.92034
98 2 2.2208 232.038 5.48595 23.302 8.10186
99 2 2.2208 232.038 11.1472 20.4485 5.27717
100 2 2.2208 232.038 11.0867 23.499 7.72959
101 1 -1.1104 15.9994 9.60941 19.0567 12.4042
102 2 2.2208 232.038 2.92298 0.558692 10.8523
103 1 -1.1104 15.9994 6.88203 19.0142 12.3084
104 2 2.2208 232.038 8.35444 0.4244 11.0118
105 1 -1.1104 15.9994 9.51813 16.2215 12.1927
9016 2 2.2208 232.038 -0.203008 17.5475 8.29838
107 2 2.2208 232.038 2.56775 6.20377 10.9278
108 2 2.2208 232.038 5.33048 3.3445 10.9027
109 2 2.2208 232.038 8.04117 6.01324 11.0391
110 2 2.2208 232.038 11.0991 3.22078 11.1341
111 4 2.2208 232.038 11.2333 9.23682 8.09615
112 2 2.2208 232.038 2.72225 11.9537 11.026
113 2 2.2208 232.038 5.4856 8.93801 11.0382
114 2 2.2208 232.038 8.19102 12.2181 11.1505
115 2 2.2208 232.038 11.1514 9.08836 11.1434
116 1 -1.1104 15.9994 12.6028 21.8588 12.3871
117 2 2.2208 232.038 2.40575 17.6963 10.9088
118 2 2.2208 232.038 5.20199 14.8901 10.8964
119 2 2.2208 232.038 8.14841 17.5867 10.8904
120 2 2.2208 232.038 11.1051 14.9105 10.9993
121 1 -1.1104 15.9994 9.8392 22.1778 12.2166
122 2 2.2208 232.038 2.47106 23.2392 11.0371
123 2 2.2208 232.038 5.52508 20.584 10.7388
124 2 2.2208 232.038 8.40669 23.3783 10.4885
125 2 2.2208 232.038 11.2872 20.3944 10.8579
126 1 -1.1104 15.9994 1.43331 -1.02788 1.60657
127 1 -1.1104 15.9994 4.1834 -0.84062 1.15765
128 1 -1.1104 15.9994 1.14438 -1.28846 4.15369
129 1 -1.1104 15.9994 4.08968 -1.01282 3.99098
130 1 -1.1104 15.9994 1.39034 1.79642 0.841509
131 1 -1.1104 15.9994 4.24156 2.0046 0.881024
132 1 -1.1104 15.9994 1.23542 1.91331 3.70127
133 1 -1.1104 15.9994 3.99474 1.86925 3.73938
134 1 -1.1104 15.9994 6.96711 -0.773022 0.976705
135 1 -1.1104 15.9994 9.69691 -1.13283 1.21196
136 1 -1.1104 15.9994 6.96851 -0.789707 3.79578
137 1 -1.1104 15.9994 9.69957 -0.944033 4.06868
138 1 -1.1104 15.9994 7.09127 2.10131 0.989531
139 1 -1.1104 15.9994 9.85769 1.94333 1.11101
140 1 -1.1104 15.9994 6.86722 1.96106 3.77575
141 1 -1.1104 15.9994 9.74411 1.96684 4.00008
142 1 -1.1104 15.9994 12.9325 -0.769467 1.23057
143 1 -1.1104 15.9994 12.5484 -0.78322 4.12325
144 1 -1.1104 15.9994 12.6727 2.01318 1.2132
145 1 -1.1104 15.9994 12.5664 1.92922 4.09961
146 1 -1.1104 15.9994 1.2205 4.86025 0.919559
147 1 -1.1104 15.9994 4.1311 4.64937 0.923647
148 1 -1.1104 15.9994 1.26788 4.63644 3.84771
149 1 -1.1104 15.9994 4.31693 4.88714 4.06999
150 1 -1.1104 15.9994 1.10099 7.75051 1.07158
151 1 -1.1104 15.9994 3.93309 7.47781 1.12644
152 1 -1.1104 15.9994 1.23332 7.71004 3.8704
153 1 -1.1104 15.9994 4.08312 7.57479 3.77716
154 1 -1.1104 15.9994 7.05801 4.76564 1.09361
155 1 -1.1104 15.9994 9.84306 4.65763 1.05517
156 1 -1.1104 15.9994 6.95756 4.70679 3.8948
157 1 -1.1104 15.9994 9.84096 4.72978 3.82831
158 1 -1.1104 15.9994 7.14722 7.81945 0.996293
159 1 -1.1104 15.9994 9.89485 7.66591 0.845589
160 1 -1.1104 15.9994 6.84138 7.62999 3.70133
161 1 -1.1104 15.9994 9.6811 7.82514 3.6108
162 1 -1.1104 15.9994 12.4498 4.88655 1.10348
163 1 -1.1104 15.9994 12.5212 4.69381 4.31533
164 1 -1.1104 15.9994 12.451 7.66284 1.06916
165 1 -1.1104 15.9994 12.5915 7.38616 4.01192
166 1 -1.1104 15.9994 1.33407 10.4671 1.00047
167 1 -1.1104 15.9994 4.01104 10.1888 1.12341
168 1 -1.1104 15.9994 1.12479 10.487 3.92261
169 1 -1.1104 15.9994 3.81729 10.3543 3.91527
170 1 -1.1104 15.9994 1.2068 12.9817 1.18898
171 1 -1.1104 15.9994 4.02253 13.2893 1.23257
172 1 -1.1104 15.9994 1.20127 13.1962 3.93081
173 1 -1.1104 15.9994 4.0961 13.2152 3.92589
174 1 -1.1104 15.9994 6.8883 10.7163 1.15458
175 1 -1.1104 15.9994 9.71652 10.3953 1.05133
176 1 -1.1104 15.9994 6.71519 10.3514 4.10863
177 1 -1.1104 15.9994 9.57297 10.608 3.66137
178 1 -1.1104 15.9994 6.82039 13.3002 0.932875
179 1 -1.1104 15.9994 9.58076 13.2357 1.04061
180 1 -1.1104 15.9994 6.81463 13.1821 3.91637
181 1 -1.1104 15.9994 9.62708 13.348 3.89223
182 1 -1.1104 15.9994 12.6079 10.5343 1.00227
183 1 -1.1104 15.9994 12.2089 10.6153 3.74524
184 1 -1.1104 15.9994 12.5289 13.186 1.03035
185 1 -1.1104 15.9994 12.468 13.1713 3.79076
186 1 -1.1104 15.9994 1.16405 16.2016 1.22376
187 1 -1.1104 15.9994 4.04584 16.502 1.04072
188 1 -1.1104 15.9994 1.00605 16.1372 3.72105
189 1 -1.1104 15.9994 4.00628 16.3052 3.95648
190 1 -1.1104 15.9994 1.22963 19.0114 1.06066
191 1 -1.1104 15.9994 4.20605 19.3004 1.24391
192 1 -1.1104 15.9994 1.05259 18.9859 4.12984
193 1 -1.1104 15.9994 3.93259 19.0087 4.10766
194 1 -1.1104 15.9994 7.04771 16.3888 0.925017
195 1 -1.1104 15.9994 9.93336 16.3374 1.17073
196 1 -1.1104 15.9994 7.02249 16.1306 3.47556
197 1 -1.1104 15.9994 9.67055 16.2568 3.7627
198 1 -1.1104 15.9994 6.99417 19.0599 1.08928
199 1 -1.1104 15.9994 9.8187 18.6162 0.912209
200 1 -1.1104 15.9994 6.74901 18.6706 3.82596
201 1 -1.1104 15.9994 9.43825 19.017 3.75612
202 1 -1.1104 15.9994 12.6376 15.925 1.17011
203 1 -1.1104 15.9994 12.6872 16.077 4.00278
204 1 -1.1104 15.9994 12.7982 19.1259 1.04845
205 1 -1.1104 15.9994 12.4472 18.9595 3.88847
206 1 -1.1104 15.9994 1.32854 21.9453 1.12809
207 1 -1.1104 15.9994 4.11981 21.8396 1.09232
208 1 -1.1104 15.9994 1.14899 21.8887 3.81677
209 1 -1.1104 15.9994 4.08697 21.9995 3.9673
210 1 -1.1104 15.9994 6.96246 21.8367 0.622059
211 1 -1.1104 15.9994 9.78115 21.6549 0.837771
212 1 -1.1104 15.9994 6.7881 21.6756 3.95985
213 1 -1.1104 15.9994 9.68756 21.6575 3.99031
214 1 -1.1104 15.9994 12.6193 21.936 1.05154
215 1 -1.1104 15.9994 12.6136 21.6042 3.91866
216 1 -1.1104 15.9994 1.09065 -0.876726 6.80592
217 1 -1.1104 15.9994 3.97433 -1.07442 6.66291
218 1 -1.1104 15.9994 1.34035 -0.553278 9.33186
219 1 -1.1104 15.9994 4.04557 -0.824298 9.48762
220 1 -1.1104 15.9994 1.33473 1.94024 6.52093
221 1 -1.1104 15.9994 4.13854 1.92111 6.67322
222 1 -1.1104 15.9994 1.25528 2.07901 9.39597
223 1 -1.1104 15.9994 4.01775 2.02314 9.41212
224 1 -1.1104 15.9994 6.87361 -0.892895 6.64918
225 1 -1.1104 15.9994 9.68439 -0.8785 6.94063
226 1 -1.1104 15.9994 6.69774 -0.83894 9.4489
227 1 -1.1104 15.9994 10.2306 -0.343363 9.67271
228 1 -1.1104 15.9994 6.90547 2.05062 6.60409
229 1 -1.1104 15.9994 9.61627 2.00997 6.76432
230 1 -1.1104 15.9994 6.96918 1.96297 9.38054
231 1 -1.1104 15.9994 9.53789 2.42988 9.61555
232 1 -1.1104 15.9994 12.6624 -0.736923 6.96163
233 1 -1.1104 15.9994 12.9332 -0.652014 9.60081
234 1 -1.1104 15.9994 12.7214 1.96761 6.73267
235 1 -1.1104 15.9994 12.4678 2.18673 9.6269
236 1 -1.1104 15.9994 1.14851 4.70114 6.74428
237 1 -1.1104 15.9994 3.90709 4.73759 6.65161
238 1 -1.1104 15.9994 1.37299 4.93482 9.41894
239 1 -1.1104 15.9994 4.09583 4.80452 9.45891
240 1 -1.1104 15.9994 1.37639 7.58821 6.79988
241 1 -1.1104 15.9994 4.21961 7.66572 6.69691
242 1 -1.1104 15.9994 1.22953 7.72068 9.76511
243 1 -1.1104 15.9994 4.19137 7.58337 9.71818
244 1 -1.1104 15.9994 6.61653 4.75726 6.82856
245 1 -1.1104 15.9994 9.68709 4.88994 6.60325
246 1 -1.1104 15.9994 6.75352 4.71088 9.40576
247 1 -1.1104 15.9994 9.62539 5.08072 9.54466
248 1 -1.1104 15.9994 6.97194 7.75454 6.64244
249 1 -1.1104 15.9994 9.80969 7.918 6.71904
250 1 -1.1104 15.9994 6.99634 7.60669 9.6613
251 1 -1.1104 15.9994 9.78116 7.88454 9.36339
252 1 -1.1104 15.9994 12.524 4.54189 6.98591
253 1 -1.1104 15.9994 12.5131 4.92239 9.5751
254 1 -1.1104 15.9994 12.6618 7.52122 6.88079
255 1 -1.1104 15.9994 12.2531 7.76511 9.50325
256 1 -1.1104 15.9994 1.38917 10.3681 6.79875
257 1 -1.1104 15.9994 4.00274 10.399 6.86372
258 1 -1.1104 15.9994 1.2431 10.3253 9.59004
259 1 -1.1104 15.9994 4.02736 10.4018 9.48698
260 1 -1.1104 15.9994 1.31159 12.9363 6.87264
261 1 -1.1104 15.9994 4.03891 13.1849 6.81929
262 1 -1.1104 15.9994 1.10987 13.1847 9.67814
263 1 -1.1104 15.9994 3.77256 13.299 9.47488
264 1 -1.1104 15.9994 6.96265 10.5564 6.92653
265 1 -1.1104 15.9994 9.83116 10.5514 6.67378
266 1 -1.1104 15.9994 6.97929 10.4451 9.80928
267 1 -1.1104 15.9994 9.95055 10.5613 9.20776
268 1 -1.1104 15.9994 6.74827 13.2081 6.71794
269 1 -1.1104 15.9994 9.60939 13.3115 6.57211
270 1 -1.1104 15.9994 6.67009 13.2535 9.42098
271 1 -1.1104 15.9994 9.66578 13.5375 9.45222
272 1 -1.1104 15.9994 12.4763 10.2022 6.68519
273 1 -1.1104 15.9994 12.8583 10.3488 9.31997
274 1 -1.1104 15.9994 12.4446 13.13 6.45763
275 1 -1.1104 15.9994 12.5785 13.2614 9.45548
276 1 -1.1104 15.9994 1.37837 15.8326 6.80168
277 1 -1.1104 15.9994 4.15178 16.108 6.52407
278 1 -1.1104 15.9994 1.23891 16.0521 9.61707
279 1 -1.1104 15.9994 4.11521 16.2193 9.37632
280 1 -1.1104 15.9994 1.18043 18.828 6.86313
281 1 -1.1104 15.9994 4.13341 19.22 6.84938
282 1 -1.1104 15.9994 1.16236 19.2661 9.42998
283 1 -1.1104 15.9994 3.86566 19.1373 9.55987
284 1 -1.1104 15.9994 7.05749 16.2061 6.53517
285 1 -1.1104 15.9994 9.78895 16.0635 6.64613
286 1 -1.1104 15.9994 6.82998 16.2262 9.38779
287 1 -1.1104 15.9994 9.71073 15.9116 9.42326
288 1 -1.1104 15.9994 6.91738 18.8591 6.62529
289 1 -1.1104 15.9994 9.6051 19.0974 6.70546
290 1 -1.1104 15.9994 6.8388 19.2436 9.36129
291 1 -1.1104 15.9994 9.5385 18.6942 9.38586
292 1 -1.1104 15.9994 12.3911 16.1191 6.64497
293 1 -1.1104 15.9994 12.6963 16.1595 9.50706
294 1 -1.1104 15.9994 12.3961 18.9804 6.47238
295 1 -1.1104 15.9994 12.3956 18.9485 9.23602
296 1 -1.1104 15.9994 1.17885 21.8684 6.78112
297 1 -1.1104 15.9994 4.11506 21.8151 6.71812
298 1 -1.1104 15.9994 1.2701 21.8273 9.71842
299 1 -1.1104 15.9994 3.97373 21.9279 9.4473
300 1 -1.1104 15.9994 6.98228 21.8703 6.72304
301 1 -1.1104 15.9994 9.74438 21.9266 6.56787
302 1 -1.1104 15.9994 6.82658 21.9185 9.26529
303 1 -1.1104 15.9994 9.58975 21.6375 9.55532
304 1 -1.1104 15.9994 12.5226 21.93 6.70278
305 1 -1.1104 15.9994 12.397 21.6807 9.3315
306 1 -1.1104 15.9994 1.39514 -0.842762 12.2238
307 1 -1.1104 15.9994 4.25658 -0.580674 12.4011
308 1 -1.1104 15.9994 1.30999 1.90239 12.159
309 1 -1.1104 15.9994 3.94491 2.0705 12.0991
310 1 -1.1104 15.9994 6.89256 -0.604633 12.3701
311 1 -1.1104 15.9994 10.1829 -0.862121 12.4053
312 1 -1.1104 15.9994 6.84536 2.08462 12.3799
313 1 -1.1104 15.9994 9.79463 1.85117 12.5804
314 1 -1.1104 15.9994 12.8779 -0.834026 12.4849
24 2 2.2208 232.038 5.54182 6.18661 13.809
9061 2 2.2208 232.038 -0.127947 11.8137 8.18483
9050 2 2.2208 232.038 13.8741 23.2576 5.21716
84 2 2.2208 232.038 2.78833 9.00198 13.8009
94 3 -1.1104 15.9994 8.39204 -2.19245 10.9643
333 2 2.2208 232.038 8.2321 8.96876 13.8567
9018 2 2.2208 232.038 -0.291646 14.7398 5.30391
338 2 2.2208 232.038 8.14017 14.8712 13.6801
345 2 2.2208 232.038 11.6927 23.2154 13.7778
8924 2 2.2208 232.038 2.63509 -2.15604 13.6207
9295 2 2.2208 232.038 -0.147346 6.33775 2.32779
61 2 2.2208 232.038 -0.0640613 3.41318 5.11455
343 2 2.2208 232.038 8.27841 20.3029 13.6252
340 2 2.2208 232.038 11.0305 17.7365 13.7205
8968 2 2.2208 232.038 -0.214242 23.0295 8.40265
344 2 2.2208 232.038 5.30222 23.3371 13.9083
674 2 2.2208 232.038 2.69766 20.4559 13.6173
322 2 2.2208 232.038 -0.0713284 0.406315 13.6927
54 2 2.2208 232.038 -0.0952781 0.684603 8.02589
9051 2 2.2208 232.038 14.0312 20.4554 7.92018
9308 2 2.2208 232.038 13.9406 9.0439 13.7748
324 2 2.2208 232.038 5.53899 0.628386 13.854
4 2 2.2208 232.038 -0.166429 0.657297 2.42746
9065 2 2.2208 232.038 13.9688 6.0927 11.0073
9020 2 2.2208 232.038 13.8511 6.09128 5.45413
9289 2 2.2208 232.038 -0.140299 23.0727 13.7837
9297 2 2.2208 232.038 13.9682 3.37561 2.57073
71 2 2.2208 232.038 -0.148817 9.22031 5.44909
9014 2 2.2208 232.038 -0.102327 20.4324 5.33717
9075 2 2.2208 232.038 13.8752 17.5692 10.6865
8966 2 2.2208 232.038 -0.136714 9.14706 10.8859
9070 2 2.2208 232.038 13.8768 12.0402 10.7613
326 2 2.2208 232.038 13.9212 3.40275 13.7957
9030 2 2.2208 232.038 13.8587 11.7278 5.03943
8236 2 2.2208 232.038 0.0827449 -2.04247 10.8378
325 2 2.2208 232.038 11.3399 0.523686 13.7497
669 2 2.2208 232.038 8.23274 11.904 27.9471
369 3 -1.1104 15.9994 1.33554 -0.937662 21.0843
8934 2 2.2208 232.038 5.48231 -2.14799 22.2724
666 2 2.2208 232.038 8.55474 6.34401 27.8907
359 3 -1.1104 15.9994 1.02884 10.4923 26.6364
8927 2 2.2208 232.038 2.79059 -2.05708 19.5305
327 1 -1.1104 15.9994 6.74668 21.7405 23.5533
9646 2 2.2208 232.038 -0.213273 0.738268 25.1958
329 1 -1.1104 15.9994 4.12147 21.6995 26.2437
354 2 2.2208 232.038 13.9645 0.608027 22.2733
331 1 -1.1104 15.9994 1.16086 22.067 26.6057
332 3 -1.1104 15.9994 11.1136 17.5532 22.2946
659 2 2.2208 232.038 2.86145 0.692966 27.7996
334 1 -1.1104 15.9994 3.90711 21.7372 23.5166
670 2 2.2208 232.038 11.1217 9.10752 27.6873
336 1 -1.1104 15.9994 1.16416 21.6653 23.675
337 3 -1.1104 15.9994 11.1158 6.42815 22.5582
647 1 -1.1104 15.9994 1.19609 19.1633 26.5081
339 1 -1.1104 15.9994 12.5927 19.0241 26.3919
649 1 -1.1104 15.9994 6.94065 16.1088 23.4981
341 1 -1.1104 15.9994 12.8737 19.1396 23.5689
665 2 2.2208 232.038 5.55691 3.52628 27.9556
409 2 2.2208 232.038 5.5078 14.7824 27.8969
399 2 2.2208 232.038 11.1539 14.8289 27.9435
400 2 2.2208 232.038 8.33335 17.7463 27.3281
9301 2 2.2208 232.038 -0.183667 14.6935 22.2628
347 2 2.2208 232.038 2.74561 0.343878 16.5184
9633 2 2.2208 232.038 13.8578 17.5762 27.9229
660 2 2.2208 232.038 8.55461 0.537428 28.0281
658 1 -1.1104 15.9994 12.4392 16.4335 26.6737
351 2 2.2208 232.038 8.69335 0.462874 16.4751
398 2 2.2208 232.038 2.56623 23.3331 27.884
353 2 2.2208 232.038 5.67436 0.601678 19.4188
8928 2 2.2208 232.038 5.66065 -2.14173 16.3663
355 2 2.2208 232.038 11.2504 0.556142 19.4859
668 2 2.2208 232.038 5.47773 8.95726 27.9749
357 2 2.2208 232.038 2.54264 6.01055 16.6444
358 2 2.2208 232.038 2.70079 3.26302 19.478
664 2 2.2208 232.038 2.73177 6.41334 27.8893
360 2 2.2208 232.038 5.63097 3.17462 16.6108
361 2 2.2208 232.038 8.42673 6.11001 16.5789
362 2 2.2208 232.038 8.3537 3.30069 19.5793
363 2 2.2208 232.038 5.45457 6.09909 19.3313
364 2 2.2208 232.038 11.2106 3.35324 16.7647
365 2 2.2208 232.038 11.1967 6.36777 19.7053
350 2 2.2208 232.038 5.42598 20.4429 27.7905
367 2 2.2208 232.038 2.53198 11.7584 16.197
368 2 2.2208 232.038 2.61334 8.74867 19.4537
651 1 -1.1104 15.9994 6.81652 16.2654 26.2566
370 2 2.2208 232.038 5.45836 9.00529 16.6083
371 2 2.2208 232.038 8.24642 11.7137 16.4853
372 2 2.2208 232.038 8.40735 8.99621 19.4026
373 2 2.2208 232.038 5.71265 11.8646 19.5625
374 2 2.2208 232.038 11.0668 9.22565 16.6597
375 2 2.2208 232.038 11.1963 11.9428 19.3701
376 4 2.2208 232.038 2.61805 12.0475 19.2803
377 2 2.2208 232.038 2.66541 17.5417 16.5473
378 2 2.2208 232.038 2.61389 15.0437 19.6314
379 1 -1.1104 15.9994 12.776 21.7073 26.2233
380 2 2.2208 232.038 5.31854 14.7579 16.56
381 2 2.2208 232.038 8.28009 17.4895 16.7713
382 2 2.2208 232.038 8.29959 14.5684 19.2076
383 2 2.2208 232.038 5.54597 17.3836 19.4375
384 2 2.2208 232.038 11.0625 14.6675 16.6493
385 2 2.2208 232.038 11.2894 17.417 19.5183
386 1 -1.1104 15.9994 12.5306 22.0942 23.3847
387 2 2.2208 232.038 2.63487 23.1862 16.5791
388 2 2.2208 232.038 2.62514 20.2986 19.198
389 1 -1.1104 15.9994 10.1044 21.9075 26.2087
390 2 2.2208 232.038 5.4805 20.2559 16.5508
391 2 2.2208 232.038 8.25197 23.0136 16.8276
392 2 2.2208 232.038 8.41464 20.2839 19.2576
393 2 2.2208 232.038 5.3815 23.228 19.4259
394 2 2.2208 232.038 11.1785 20.2068 16.6869
395 2 2.2208 232.038 11.2302 23.4368 19.2822
667 2 2.2208 232.038 11.1833 3.21529 27.8643
397 2 2.2208 232.038 2.63365 0.562005 22.3743
650 1 -1.1104 15.9994 9.74522 16.1625 23.8001
349 2 2.2208 232.038 8.30976 23.3717 27.6328
648 1 -1.1104 15.9994 4.03542 18.9281 26.5122
401 2 2.2208 232.038 8.48311 0.553678 22.525
9343 2 2.2208 232.038 13.8267 11.9095 16.5796
403 2 2.2208 232.038 5.4603 0.563864 25.1587
652 1 -1.1104 15.9994 9.51545 16.0021 26.7645
405 2 2.2208 232.038 11.343 0.567402 25.1658
646 1 -1.1104 15.9994 4.11381 18.9874 23.559
407 2 2.2208 232.038 2.72995 6.07192 22.2279
408 2 2.2208 232.038 2.93664 3.50035 25.1705
653 1 -1.1104 15.9994 6.97316 18.9425 23.622
410 2 2.2208 232.038 5.65883 3.47233 22.1866
411 2 2.2208 232.038 8.73424 6.26216 22.3701
412 2 2.2208 232.038 8.18256 3.47565 25.2244
413 2 2.2208 232.038 5.64072 6.25661 25.0038
414 2 2.2208 232.038 11.1198 3.32777 22.39
415 2 2.2208 232.038 11.3523 6.21689 24.9152
655 1 -1.1104 15.9994 7.02766 19.1992 26.4105
417 2 2.2208 232.038 2.80024 12.0632 22.6813
418 2 2.2208 232.038 2.71462 9.26274 25.0395
657 1 -1.1104 15.9994 12.9409 16.2761 23.9365
420 2 2.2208 232.038 5.43498 9.11429 22.2482
421 2 2.2208 232.038 8.3663 12.0164 22.2292
422 2 2.2208 232.038 8.31263 9.26752 24.9843
423 2 2.2208 232.038 5.48555 11.9787 25.1281
424 2 2.2208 232.038 11.3052 8.93524 22.4664
425 2 2.2208 232.038 11.2838 11.9544 24.9935
426 1 -1.1104 15.9994 7.12383 21.8443 26.1946
427 2 2.2208 232.038 2.63759 17.7832 22.2799
428 2 2.2208 232.038 2.68768 14.9819 25.3677
656 1 -1.1104 15.9994 9.85199 19.0127 26.1927
430 2 2.2208 232.038 5.54579 14.7445 22.337
431 2 2.2208 232.038 8.54981 17.5485 22.0233
432 2 2.2208 232.038 8.27444 14.8129 24.936
433 2 2.2208 232.038 5.51015 17.8443 24.924
434 2 2.2208 232.038 11.199 14.8401 22.273
435 2 2.2208 232.038 11.2175 17.8054 24.63
654 1 -1.1104 15.9994 9.77978 19.252 23.5166
437 2 2.2208 232.038 2.4294 23.2286 22.283
438 2 2.2208 232.038 2.6375 20.474 25.0152
439 1 -1.1104 15.9994 9.41461 22.0711 23.6533
440 2 2.2208 232.038 5.57989 20.2763 22.2444
441 2 2.2208 232.038 8.19481 23.3722 21.9647
442 2 2.2208 232.038 8.47676 20.526 24.8708
443 2 2.2208 232.038 5.55887 23.3718 25.0428
444 2 2.2208 232.038 11.3104 20.3414 22.0169
445 2 2.2208 232.038 11.2788 23.3738 24.7489
446 1 -1.1104 15.9994 1.32797 -0.602934 14.9491
447 1 -1.1104 15.9994 4.17768 -0.981563 15.2223
448 1 -1.1104 15.9994 1.39781 1.99618 15.056
449 1 -1.1104 15.9994 4.11762 1.86351 15.0765
450 1 -1.1104 15.9994 7.12023 -0.611594 15.0941
451 1 -1.1104 15.9994 9.92844 -0.830713 15.0724
452 1 -1.1104 15.9994 7.16989 2.12814 15.2479
453 1 -1.1104 15.9994 10.0083 2.02612 15.1778
454 1 -1.1104 15.9994 12.7853 -0.793874 15.2303
455 1 -1.1104 15.9994 12.7199 1.86525 15.0753
456 1 -1.1104 15.9994 1.29144 4.6876 15.1352
457 1 -1.1104 15.9994 3.92562 4.52603 15.1687
458 1 -1.1104 15.9994 1.32788 7.40257 15.2409
459 1 -1.1104 15.9994 4.07687 7.529 15.4524
460 1 -1.1104 15.9994 6.84729 4.89132 15.3301
461 1 -1.1104 15.9994 9.55024 4.84563 14.9945
462 1 -1.1104 15.9994 6.90427 7.90857 15.1791
463 1 -1.1104 15.9994 9.69848 7.60183 15.2458
464 1 -1.1104 15.9994 12.3328 4.96541 15.2625
465 1 -1.1104 15.9994 12.4765 7.55307 14.989
466 1 -1.1104 15.9994 1.13458 10.205 15.1193
467 1 -1.1104 15.9994 4.08709 10.2322 15.0836
468 1 -1.1104 15.9994 1.31221 13.203 15.1227
469 1 -1.1104 15.9994 4.2271 13.2743 15.2278
470 1 -1.1104 15.9994 6.73183 10.5179 15.1929
471 1 -1.1104 15.9994 9.61419 10.345 15.1276
472 1 -1.1104 15.9994 7.0091 13.4289 15.2087
473 1 -1.1104 15.9994 9.8137 13.1059 15.2531
474 1 -1.1104 15.9994 12.5123 10.3944 14.9096
475 1 -1.1104 15.9994 12.4536 13.3056 15.0522
476 1 -1.1104 15.9994 0.864761 16.1644 15.3396
477 1 -1.1104 15.9994 3.99008 16.0661 15.3148
478 1 -1.1104 15.9994 1.22258 18.9582 15.1968
479 1 -1.1104 15.9994 3.8662 18.9714 15.075
480 1 -1.1104 15.9994 6.63197 16.1856 15.1587
481 1 -1.1104 15.9994 9.39651 16.2381 15.0949
482 1 -1.1104 15.9994 6.87829 19.1426 15.1571
483 1 -1.1104 15.9994 9.69107 19.1176 15.2551
484 1 -1.1104 15.9994 12.3309 16.3962 15.1435
485 1 -1.1104 15.9994 12.3992 19.0743 15.0116
486 1 -1.1104 15.9994 1.26931 21.9318 15.1456
487 1 -1.1104 15.9994 3.90791 21.7537 15.1982
488 1 -1.1104 15.9994 7.04402 21.8459 15.0907
489 1 -1.1104 15.9994 9.6237 22.141 14.8556
490 1 -1.1104 15.9994 12.5308 21.6903 15.2167
491 1 -1.1104 15.9994 1.33544 -1.01579 17.8707
492 1 -1.1104 15.9994 4.06336 -0.943911 17.9965
493 1 -1.1104 15.9994 1.27676 1.8661 20.92
494 1 -1.1104 15.9994 4.07451 -0.571976 20.8345
495 1 -1.1104 15.9994 1.31286 1.81922 18.1516
496 1 -1.1104 15.9994 4.20243 1.99948 17.8633
497 1 -1.1104 15.9994 1.40329 4.75997 20.8773
498 1 -1.1104 15.9994 4.27077 1.99364 20.5902
499 1 -1.1104 15.9994 7.11312 -0.786561 17.8242
500 1 -1.1104 15.9994 10.0217 -0.688525 17.9652
501 1 -1.1104 15.9994 6.81841 -1.17164 20.6939
502 1 -1.1104 15.9994 9.56911 -0.621679 20.7801
503 1 -1.1104 15.9994 7.04736 1.92671 18.204
504 1 -1.1104 15.9994 10.0214 1.93153 18.0469
505 1 -1.1104 15.9994 7.20625 1.99688 21.1609
506 1 -1.1104 15.9994 10.0393 1.90056 20.9682
507 1 -1.1104 15.9994 12.6533 -0.698223 18.2547
508 1 -1.1104 15.9994 12.4731 -1.12106 20.8
509 1 -1.1104 15.9994 12.7603 2.1993 17.8699
510 1 -1.1104 15.9994 12.9389 1.77024 20.8245
511 1 -1.1104 15.9994 1.10993 4.50789 18.2311
512 1 -1.1104 15.9994 3.81192 4.89744 18.0414
513 1 -1.1104 15.9994 1.12993 7.80518 20.8213
514 1 -1.1104 15.9994 4.22181 4.81992 21.0277
515 1 -1.1104 15.9994 1.06632 7.48612 18.0923
516 1 -1.1104 15.9994 4.05361 7.67519 18.1316
396 2 2.2208 232.038 11.3237 20.4968 27.8367
518 1 -1.1104 15.9994 4.18017 7.74219 20.7235
519 1 -1.1104 15.9994 6.84403 4.76561 18.2895
520 1 -1.1104 15.9994 9.64496 4.99554 18.0988
521 1 -1.1104 15.9994 7.04107 4.86194 20.9557
522 1 -1.1104 15.9994 9.94812 4.61779 20.9155
523 1 -1.1104 15.9994 6.9619 7.65306 17.995
524 1 -1.1104 15.9994 9.90906 7.69459 17.9208
525 1 -1.1104 15.9994 6.91086 7.64103 20.7646
526 1 -1.1104 15.9994 9.61941 7.63773 20.6283
527 1 -1.1104 15.9994 12.6047 5.02475 18.1914
528 1 -1.1104 15.9994 12.7482 4.73554 21.0241
529 1 -1.1104 15.9994 12.7855 7.79781 17.8218
530 1 -1.1104 15.9994 12.7819 7.99885 20.9206
531 1 -1.1104 15.9994 1.60674 10.4 17.8999
532 1 -1.1104 15.9994 4.2155 10.4981 18.0602
533 1 -1.1104 15.9994 1.37115 10.5671 20.6148
534 1 -1.1104 15.9994 3.97074 10.8937 20.677
535 1 -1.1104 15.9994 0.994391 12.8987 18.1346
536 1 -1.1104 15.9994 3.58348 13.5774 17.9929
537 1 -1.1104 15.9994 1.51691 13.3797 20.8767
538 1 -1.1104 15.9994 4.23458 13.4182 20.3409
539 1 -1.1104 15.9994 6.90434 10.2744 17.9818
540 1 -1.1104 15.9994 9.69344 10.4742 18.0766
541 1 -1.1104 15.9994 7.03732 10.6977 20.9272
542 1 -1.1104 15.9994 10.0095 10.481 20.9946
543 1 -1.1104 15.9994 6.72981 13.1888 18.0314
544 1 -1.1104 15.9994 9.63374 13.1798 17.9118
545 1 -1.1104 15.9994 6.9615 13.3665 20.743
546 1 -1.1104 15.9994 9.65717 13.2153 20.7077
547 1 -1.1104 15.9994 12.436 10.5318 18.0603
548 1 -1.1104 15.9994 12.8238 10.6088 20.8814
549 1 -1.1104 15.9994 12.3775 13.3116 17.8526
550 1 -1.1104 15.9994 12.4665 13.4212 21.0335
551 1 -1.1104 15.9994 1.25073 15.9941 17.9742
552 1 -1.1104 15.9994 4.0449 16.1998 18.2046
553 1 -1.1104 15.9994 1.03191 16.0397 20.8222
554 1 -1.1104 15.9994 3.92178 16.1926 20.9691
555 1 -1.1104 15.9994 1.17173 18.911 17.9687
556 1 -1.1104 15.9994 4.02531 18.9508 17.8012
557 1 -1.1104 15.9994 1.16542 18.9885 20.6439
558 1 -1.1104 15.9994 4.03364 18.8618 20.8123
559 1 -1.1104 15.9994 6.95764 15.9508 17.967
560 1 -1.1104 15.9994 9.78383 16.1593 18.0691
561 1 -1.1104 15.9994 6.88557 15.9482 20.7521
562 1 -1.1104 15.9994 9.73686 16.0277 20.6992
563 1 -1.1104 15.9994 6.88175 18.9475 18.0604
564 1 -1.1104 15.9994 9.65398 18.9041 17.8274
565 1 -1.1104 15.9994 6.85629 19.0214 20.8234
566 1 -1.1104 15.9994 9.68428 19.0926 20.5208
567 1 -1.1104 15.9994 12.4653 16.2766 17.8184
568 1 -1.1104 15.9994 12.8565 16.1382 20.8042
569 1 -1.1104 15.9994 12.5335 18.7238 17.9163
570 1 -1.1104 15.9994 12.6859 19.1417 20.5645
571 1 -1.1104 15.9994 1.26089 21.7678 17.8273
572 1 -1.1104 15.9994 4.0469 21.6877 17.8647
573 1 -1.1104 15.9994 1.27646 21.7052 20.768
574 1 -1.1104 15.9994 4.23559 21.5991 20.7646
575 1 -1.1104 15.9994 6.91685 21.7277 17.7913
576 1 -1.1104 15.9994 9.69774 21.6357 18.0694
577 1 -1.1104 15.9994 7.02508 21.9916 20.4227
578 1 -1.1104 15.9994 10.0641 21.9574 20.6096
579 1 -1.1104 15.9994 12.6925 21.6302 17.9036
580 1 -1.1104 15.9994 12.8671 21.8411 20.6442
581 1 -1.1104 15.9994 1.29302 -0.884304 24.0149
582 1 -1.1104 15.9994 4.07657 -0.863229 23.5377
583 1 -1.1104 15.9994 1.14341 -0.412081 26.9472
584 1 -1.1104 15.9994 3.92779 -1.00563 26.7004
585 1 -1.1104 15.9994 1.2827 2.03373 23.6189
586 1 -1.1104 15.9994 4.02958 2.07773 23.5975
587 1 -1.1104 15.9994 1.40097 2.2449 26.4107
588 1 -1.1104 15.9994 4.21679 1.97493 26.4284
589 1 -1.1104 15.9994 7.11111 -0.699776 23.8475
590 1 -1.1104 15.9994 9.80146 -0.907252 23.935
591 1 -1.1104 15.9994 6.79449 -0.833993 26.4717
592 1 -1.1104 15.9994 9.51222 -1.36779 26.7251
593 1 -1.1104 15.9994 6.8396 2.01731 23.7753
594 1 -1.1104 15.9994 10.0693 1.86453 23.8473
595 1 -1.1104 15.9994 6.82677 2.12421 26.5825
596 1 -1.1104 15.9994 9.51178 2.12122 26.6668
597 1 -1.1104 15.9994 12.5342 -0.841272 23.7065
598 1 -1.1104 15.9994 12.8826 -0.816847 26.4779
599 1 -1.1104 15.9994 12.7437 2.00886 23.7426
600 1 -1.1104 15.9994 12.7561 2.24187 26.4026
601 1 -1.1104 15.9994 1.43359 4.69706 23.7017
602 1 -1.1104 15.9994 4.18592 5.13055 23.7261
603 1 -1.1104 15.9994 1.48314 5.01303 26.4377
604 1 -1.1104 15.9994 4.08461 4.86284 26.6218
605 1 -1.1104 15.9994 1.12212 7.57657 23.4901
606 1 -1.1104 15.9994 3.91308 7.75831 23.6056
607 1 -1.1104 15.9994 1.24725 7.81865 26.4882
608 1 -1.1104 15.9994 3.83845 7.92434 26.5567
609 1 -1.1104 15.9994 6.86666 4.78326 23.6006
610 1 -1.1104 15.9994 9.63903 4.56604 23.9219
611 1 -1.1104 15.9994 7.01278 4.90232 26.6342
612 1 -1.1104 15.9994 9.76948 5.14113 26.5849
613 1 -1.1104 15.9994 6.7923 7.77278 23.5122
614 1 -1.1104 15.9994 9.55933 7.70147 23.704
615 1 -1.1104 15.9994 6.83923 7.57613 26.573
616 1 -1.1104 15.9994 9.59295 7.74666 26.2642
617 1 -1.1104 15.9994 12.7247 4.71699 23.8001
618 1 -1.1104 15.9994 12.6225 4.86186 26.5225
619 1 -1.1104 15.9994 12.765 7.71642 23.945
620 1 -1.1104 15.9994 12.7961 7.86967 26.597
621 1 -1.1104 15.9994 1.29504 10.4895 23.5304