LAMMPS (29 Oct 2020)
OMP_NUM_THREADS environment is not set. Defaulting to 1 thread. (../comm.cpp:94)
  using 1 OpenMP thread(s) per MPI task
OMP_NUM_THREADS environment is not set. Defaulting to 1 thread. (../comm.cpp:94)
  using 1 OpenMP thread(s) per MPI task
Reading data file ...
  orthogonal box = (-0.39288849 -5.8882415 -0.3945407) to (27.732888 415.98824 27.734541)
  1 by 26 by 2 MPI processor grid
  reading atoms ...
  22500 atoms
  reading velocities ...
  22500 velocities
Finding 1-2 1-3 1-4 neighbors ...
  special bond factors lj:    0.0      0.0      0.0     
  special bond factors coul:  0.0      0.0      0.0     
     0 = max # of 1-2 neighbors
     0 = max # of 1-3 neighbors
     0 = max # of 1-4 neighbors
     1 = max # of special neighbors
  special bonds CPU = 0.003 seconds
  read_data CPU = 0.091 seconds
Setting atom values ...
  15000 settings made for charge
Setting atom values ...
  7500 settings made for charge
PPPM initialization ...
  using 12-bit tables for long-range coulomb (../kspace.cpp:328)
  G vector (1/distance) = 0.29800923
  grid = 40 288 40
  stencil order = 5
  estimated absolute RMS force accuracy = 0.00016793423
  estimated relative force accuracy = 1.1662387e-05
  using single precision MKL FFT
  3d grid and FFT values/proc = 19125 9600
Neighbor list info ...
  update every 1 steps, delay 0 steps, check yes
  max neighbors/atom: 2000, page size: 100000
  master list distance cutoff = 11.3
  ghost atom cutoff = 11.3
  binsize = 5.65, bins = 5 75 5
  2 neighbor lists, perpetual/occasional/extra = 2 0 0
  (1) pair coul/long, perpetual
      attributes: half, newton on
      pair build: half/bin/newton
      stencil: half/bin/3d/newton
      bin: standard
  (2) pair eam/alloy, perpetual, copy from (1)
      attributes: half, newton on
      pair build: copy
      stencil: none
      bin: none
Setting up Verlet run ...
  Unit style    : metal
  Current step  : 0
  Time step     : 0.001
Per MPI rank memory allocation (min/avg/max) = 8.386 | 8.417 | 8.479 Mbytes
Step Temp E_pair E_mol TotEng Press 
       0          900   -293435.01            0   -290817.61    1282.6834 
  100000     897.5746   -293446.68            0   -290836.33    1109.3779 
Loop time of 825.621 on 52 procs for 100000 steps with 22500 atoms

Performance: 10.465 ns/day, 2.293 hours/ns, 121.121 timesteps/s
99.8% CPU use with 52 MPI tasks x 1 OpenMP threads

MPI task timing breakdown:
Section |  min time  |  avg time  |  max time  |%varavg| %total
---------------------------------------------------------------
Pair    | 538.42     | 554.51     | 569.06     |  31.4 | 67.16
Bond    | 0.0076667  | 0.011552   | 0.016407   |   1.8 |  0.00
Kspace  | 175.03     | 191.03     | 209.22     |  62.1 | 23.14
Neigh   | 49.084     | 53.032     | 55.808     |  26.9 |  6.42
Comm    | 16.84      | 20.104     | 23.619     |  36.8 |  2.43
Output  | 5.8028e-05 | 6.3347e-05 | 0.00027744 |   0.0 |  0.00
Modify  | 2.31       | 4.9273     | 8.1261     |  78.3 |  0.60
Other   |            | 2.003      |            |       |  0.24

Nlocal:        432.692 ave         459 max         398 min
Histogram: 6 4 1 4 3 4 9 7 11 3
Nghost:        4492.38 ave        4564 max        4347 min
Histogram: 3 2 0 8 5 2 1 2 15 14
Neighs:        87380.2 ave       92802 max       80467 min
Histogram: 4 6 1 4 5 3 10 6 10 3

Total # of neighbors = 4543771
Ave neighs/atom = 201.94538
Ave special neighs/atom = 0.0000000
Neighbor list builds = 19937
Dangerous builds = 0
15000 atoms in group oxygen
PPPM initialization ...
  using 12-bit tables for long-range coulomb (../kspace.cpp:328)
  G vector (1/distance) = 0.29800923
  grid = 40 288 40
  stencil order = 5
  estimated absolute RMS force accuracy = 0.00016793423
  estimated relative force accuracy = 1.1662387e-05
  using single precision MKL FFT
  3d grid and FFT values/proc = 19125 9600
Setting up Verlet run ...
  Unit style    : metal
  Current step  : 0
  Time step     : 0.001
Per MPI rank memory allocation (min/avg/max) = 8.640 | 8.671 | 8.730 Mbytes
Step f_2 Temp v_Tdiff v_deltaT 
       0            0     897.5746            0            0 
  100000    1044.4231    899.39067  0.031129795    361.41403 
  200000    2043.1004    889.25805  0.038024551     441.4615 
  300000    3035.5424    891.46053  0.037801275     438.8693 
  400000    4034.4988    900.17121  0.037640863    437.00693 
  500000    5035.3022    903.57691  0.037324471    433.33364 
  600000    6026.6565    900.50798  0.036673734    425.77864 
  700000    7016.9754     902.5921  0.037201507    431.90604 
  800000    8016.9483    898.24161  0.037738756    438.14345 
  900000    9020.3081    894.80324  0.037670852    437.35509 
 1000000    10019.091    900.20641  0.036583836    424.73493 
 1100000    11014.329    897.46358  0.038173918    443.19564 
 1200000    12013.691     895.6441  0.037139973    431.19163 
 1300000    13001.969    902.94444  0.038156033      442.988 
 1400000    13992.754      902.879  0.037064871    430.31971 
 1500000    14984.257    892.78665  0.037146777    431.27063 
Loop time of 12287.3 on 52 procs for 1500000 steps with 22500 atoms

Performance: 10.547 ns/day, 2.275 hours/ns, 122.077 timesteps/s
99.8% CPU use with 52 MPI tasks x 1 OpenMP threads

MPI task timing breakdown:
Section |  min time  |  avg time  |  max time  |%varavg| %total
---------------------------------------------------------------
Pair    | 7982.8     | 8212.9     | 8357.6     | 100.1 | 66.84
Bond    | 0.1112     | 0.17209    | 0.23675    |   6.6 |  0.00
Kspace  | 2707.9     | 2877.5     | 3154.3     | 205.0 | 23.42
Neigh   | 738.28     | 808.85     | 859.95     |  99.8 |  6.58
Comm    | 264.17     | 304        | 342.28     | 118.3 |  2.47
Output  | 0.0017986  | 0.0018702  | 0.0037398  |   0.6 |  0.00
Modify  | 10.064     | 12.29      | 14.912     |  32.0 |  0.10
Other   |            | 71.54      |            |       |  0.58

Nlocal:        432.692 ave         464 max         399 min
Histogram: 6 3 2 2 11 4 8 9 5 2
Nghost:        4490.58 ave        4598 max        4354 min
Histogram: 5 3 1 3 5 7 7 16 3 2
Neighs:        87403.2 ave       93707 max       79747 min
Histogram: 3 5 2 4 7 6 7 9 8 1

Total # of neighbors = 4544964
Ave neighs/atom = 201.99840
Ave special neighs/atom = 0.0000000
Neighbor list builds = 303774
Dangerous builds = 0
Total wall time: 3:38:33
