LAMMPS (29 Oct 2020)
OMP_NUM_THREADS environment is not set. Defaulting to 1 thread. (../comm.cpp:94)
  using 1 OpenMP thread(s) per MPI task
OMP_NUM_THREADS environment is not set. Defaulting to 1 thread. (../comm.cpp:94)
  using 1 OpenMP thread(s) per MPI task
Reading data file ...
  orthogonal box = (-0.44739483 -5.3476762 -0.43724312) to (27.787395 333.42768 27.777243)
  2 by 13 by 2 MPI processor grid
  reading atoms ...
  17730 atoms
  reading velocities ...
  17730 velocities
Finding 1-2 1-3 1-4 neighbors ...
  special bond factors lj:    0.0      0.0      0.0     
  special bond factors coul:  0.0      0.0      0.0     
     0 = max # of 1-2 neighbors
     0 = max # of 1-3 neighbors
     0 = max # of 1-4 neighbors
     1 = max # of special neighbors
  special bonds CPU = 0.004 seconds
  read_data CPU = 0.068 seconds
Setting atom values ...
  11820 settings made for charge
Setting atom values ...
  5910 settings made for charge
PPPM initialization ...
  using 12-bit tables for long-range coulomb (../kspace.cpp:328)
  G vector (1/distance) = 0.29848866
  grid = 40 240 40
  stencil order = 5
  estimated absolute RMS force accuracy = 0.00015928361
  estimated relative force accuracy = 1.1061634e-05
  using single precision MKL FFT
  3d grid and FFT values/proc = 15000 7600
Neighbor list info ...
  update every 1 steps, delay 0 steps, check yes
  max neighbors/atom: 2000, page size: 100000
  master list distance cutoff = 11.3
  ghost atom cutoff = 11.3
  binsize = 5.65, bins = 5 60 5
  2 neighbor lists, perpetual/occasional/extra = 2 0 0
  (1) pair coul/long, perpetual
      attributes: half, newton on
      pair build: half/bin/newton
      stencil: half/bin/3d/newton
      bin: standard
  (2) pair eam/alloy, perpetual, copy from (1)
      attributes: half, newton on
      pair build: copy
      stencil: none
      bin: none
Setting up Verlet run ...
  Unit style    : metal
  Current step  : 0
  Time step     : 0.001
Per MPI rank memory allocation (min/avg/max) = 8.139 | 8.169 | 8.184 Mbytes
Step Temp E_pair E_mol TotEng Press 
       0         1200   -230272.15            0   -227522.17   -1605.8955 
   50000     1197.773   -230226.58            0    -227481.7    -558.8471 
Loop time of 335.135 on 52 procs for 50000 steps with 17730 atoms

Performance: 12.890 ns/day, 1.862 hours/ns, 149.194 timesteps/s
99.8% CPU use with 52 MPI tasks x 1 OpenMP threads

MPI task timing breakdown:
Section |  min time  |  avg time  |  max time  |%varavg| %total
---------------------------------------------------------------
Pair    | 213.47     | 222.72     | 230.49     |  30.2 | 66.46
Bond    | 0.0034093  | 0.0050665  | 0.0083086  |   1.4 |  0.00
Kspace  | 68.374     | 77.655     | 88.488     |  57.3 | 23.17
Neigh   | 20.224     | 22.639     | 24.944     |  21.0 |  6.76
Comm    | 9.1089     | 9.8117     | 10.853     |  12.5 |  2.93
Output  | 6.3788e-05 | 6.8371e-05 | 0.00027238 |   0.0 |  0.00
Modify  | 1.0853     | 1.5415     | 2.3191     |  31.6 |  0.46
Other   |            | 0.7607     |            |       |  0.23

Nlocal:        340.962 ave         366 max         317 min
Histogram: 2 1 3 10 11 9 11 1 2 2
Nghost:        3972.87 ave        4132 max        3755 min
Histogram: 3 4 1 1 4 11 11 9 4 4
Neighs:        68006.7 ave       73867 max       57605 min
Histogram: 2 1 1 2 2 7 15 13 6 3

Total # of neighbors = 3536347
Ave neighs/atom = 199.45556
Ave special neighs/atom = 0.0000000
Neighbor list builds = 10952
Dangerous builds = 0
11820 atoms in group oxygen
PPPM initialization ...
  using 12-bit tables for long-range coulomb (../kspace.cpp:328)
  G vector (1/distance) = 0.29848866
  grid = 40 240 40
  stencil order = 5
  estimated absolute RMS force accuracy = 0.00015928361
  estimated relative force accuracy = 1.1061634e-05
  using single precision MKL FFT
  3d grid and FFT values/proc = 15000 7600
Setting up Verlet run ...
  Unit style    : metal
  Current step  : 0
  Time step     : 0.001
Per MPI rank memory allocation (min/avg/max) = 8.390 | 8.420 | 8.435 Mbytes
Step f_2 Temp v_Tdiff v_deltaT 
       0            0     1197.773            0            0 
  100000    1319.8604    1208.3725  0.048918715    567.94174 
  200000     2566.827    1196.6969  0.056222664    652.73991 
  300000    3823.2103    1213.8633  0.055279563     641.7906 
  400000    5064.6359    1212.4173  0.054664232    634.64666 
  500000    6308.6661    1205.4836  0.056536051     656.3783 
  600000    7556.4782    1208.4389  0.055482231    644.14354 
  700000    8801.8051    1211.6473  0.055228101    641.19312 
  800000     10038.57    1203.7574  0.056308313    653.73428 
  900000    11278.419    1209.7007  0.055105861    639.77393 
 1000000    12521.818    1206.7597  0.055353146    642.64488 
Loop time of 6744.1 on 52 procs for 1000000 steps with 17730 atoms

Performance: 12.811 ns/day, 1.873 hours/ns, 148.278 timesteps/s
99.8% CPU use with 52 MPI tasks x 1 OpenMP threads

MPI task timing breakdown:
Section |  min time  |  avg time  |  max time  |%varavg| %total
---------------------------------------------------------------
Pair    | 4243.2     | 4451.5     | 4618.5     | 152.2 | 66.01
Bond    | 0.065584   | 0.099369   | 0.15529    |   5.8 |  0.00
Kspace  | 1364.9     | 1566       | 1816.9     | 286.8 | 23.22
Neigh   | 430.24     | 488.82     | 538.6      | 100.8 |  7.25
Comm    | 187.83     | 202.52     | 223.03     |  63.9 |  3.00
Output  | 0.0011306  | 0.0011953  | 0.0023802  |   0.5 |  0.00
Modify  | 5.8002     | 6.2967     | 6.934      |  11.3 |  0.09
Other   |            | 28.93      |            |       |  0.43

Nlocal:        340.962 ave         366 max         307 min
Histogram: 2 4 2 0 5 10 14 10 4 1
Nghost:        3979.48 ave        4110 max        3835 min
Histogram: 6 4 3 3 3 5 15 6 4 3
Neighs:        67998.7 ave       73988 max       57545 min
Histogram: 3 1 2 2 0 5 13 18 6 2

Total # of neighbors = 3535934
Ave neighs/atom = 199.43226
Ave special neighs/atom = 0.0000000
Neighbor list builds = 235942
Dangerous builds = 0
Total wall time: 1:57:59
