LAMMPS (29 Oct 2020)
OMP_NUM_THREADS environment is not set. Defaulting to 1 thread. (../comm.cpp:94)
  using 1 OpenMP thread(s) per MPI task
OMP_NUM_THREADS environment is not set. Defaulting to 1 thread. (../comm.cpp:94)
  using 1 OpenMP thread(s) per MPI task
Reading data file ...
  triclinic box = (-0.12469166 -1.6087835 -0.13445885) to (28.018692 336.33678 28.028459) with tilt (0.0000000 0.0000000 0.0000000)
  2 by 13 by 2 MPI processor grid
  reading atoms ...
  18000 atoms
  reading velocities ...
  18000 velocities
Finding 1-2 1-3 1-4 neighbors ...
  special bond factors lj:    0.0      0.0      0.0     
  special bond factors coul:  0.0      0.0      0.0     
     0 = max # of 1-2 neighbors
     0 = max # of 1-3 neighbors
     0 = max # of 1-4 neighbors
     1 = max # of special neighbors
  special bonds CPU = 0.004 seconds
  read_data CPU = 0.062 seconds
Setting atom values ...
  12000 settings made for charge
Setting atom values ...
  6000 settings made for charge
PPPM initialization ...
  using 12-bit tables for long-range coulomb (../kspace.cpp:328)
  G vector (1/distance) = 0.29864643
  grid = 40 240 40
  stencil order = 5
  estimated absolute RMS force accuracy = 0.00015927021
  estimated relative force accuracy = 1.1060704e-05
  using single precision MKL FFT
  3d grid and FFT values/proc = 15000 7600
Neighbor list info ...
  update every 1 steps, delay 0 steps, check yes
  max neighbors/atom: 2000, page size: 100000
  master list distance cutoff = 11.3
  ghost atom cutoff = 11.3
  binsize = 5.65, bins = 5 60 5
  2 neighbor lists, perpetual/occasional/extra = 2 0 0
  (1) pair coul/long, perpetual
      attributes: half, newton on
      pair build: half/bin/newton/tri
      stencil: half/bin/3d/newton/tri
      bin: standard
  (2) pair eam/alloy, perpetual, copy from (1)
      attributes: half, newton on
      pair build: copy
      stencil: none
      bin: none
Setting up Verlet run ...
  Unit style    : metal
  Current step  : 0
  Time step     : 0.001
Per MPI rank memory allocation (min/avg/max) = 8.322 | 8.350 | 8.367 Mbytes
Step Temp E_pair E_mol TotEng Press 
       0          900   -234447.53            0   -232353.63     1577.642 
  100000    894.02966      -234429            0   -232348.99    2107.3094 
Loop time of 686.141 on 52 procs for 100000 steps with 18000 atoms

Performance: 12.592 ns/day, 1.906 hours/ns, 145.743 timesteps/s
99.8% CPU use with 52 MPI tasks x 1 OpenMP threads

MPI task timing breakdown:
Section |  min time  |  avg time  |  max time  |%varavg| %total
---------------------------------------------------------------
Pair    | 452.97     | 462.84     | 474.64     |  25.7 | 67.46
Bond    | 0.0070877  | 0.011123   | 0.015454   |   1.8 |  0.00
Kspace  | 126.67     | 142.14     | 154.92     |  60.3 | 20.72
Neigh   | 58.436     | 60.729     | 65.699     |  24.6 |  8.85
Comm    | 15.009     | 15.91      | 18.156     |  21.0 |  2.32
Output  | 5.4439e-05 | 5.9652e-05 | 0.00026328 |   0.0 |  0.00
Modify  | 1.8794     | 3.2232     | 5.1784     |  61.0 |  0.47
Other   |            | 1.287      |            |       |  0.19

Nlocal:        346.154 ave         368 max         329 min
Histogram: 3 4 9 8 11 6 1 4 3 3
Nghost:        4080.60 ave        4187 max        3988 min
Histogram: 2 6 11 7 3 8 4 2 5 4
Neighs:        69888.3 ave       74395 max       66044 min
Histogram: 3 3 6 11 11 5 4 4 2 3

Total # of neighbors = 3634190
Ave neighs/atom = 201.89944
Ave special neighs/atom = 0.0000000
Neighbor list builds = 19784
Dangerous builds = 0
12000 atoms in group oxygen
PPPM initialization ...
  using 12-bit tables for long-range coulomb (../kspace.cpp:328)
  G vector (1/distance) = 0.29864643
  grid = 40 240 40
  stencil order = 5
  estimated absolute RMS force accuracy = 0.00015927021
  estimated relative force accuracy = 1.1060704e-05
  using single precision MKL FFT
  3d grid and FFT values/proc = 15000 7600
Setting up Verlet run ...
  Unit style    : metal
  Current step  : 0
  Time step     : 0.001
Per MPI rank memory allocation (min/avg/max) = 8.572 | 8.601 | 8.618 Mbytes
Step f_2 Temp v_Tdiff v_deltaT 
       0            0    894.02966            0            0 
  100000     998.5455    896.88629  0.031873357    370.04671 
  200000    1963.3314    903.67843  0.036082404    418.91336 
  300000    2922.5403    910.45976  0.036345318    421.96577 
  400000    3896.6124    902.42189  0.035083673    407.31819 
  500000    4875.3746     898.2969  0.036648089    425.48091 
  600000    5843.4097    902.05667  0.037012161    429.70775 
  700000     6827.161    904.91893  0.035798616    415.61861 
  800000    7799.7474    905.76649  0.035255827    409.31688 
  900000    8765.7812    905.11019  0.036264104    421.02288 
 1000000    9747.4997    908.59772  0.036421222      422.847 
 1100000    10723.324    903.70788  0.036183716    420.08958 
 1200000    11699.813    905.32354  0.035808521    415.73361 
 1300000    12673.162    900.32818  0.035900886    416.80595 
 1400000    13639.765    903.85369  0.036572734    424.60604 
 1500000    14612.812     904.4464  0.036291452    421.34038 
Loop time of 10173.4 on 52 procs for 1500000 steps with 18000 atoms

Performance: 12.739 ns/day, 1.884 hours/ns, 147.443 timesteps/s
99.8% CPU use with 52 MPI tasks x 1 OpenMP threads

MPI task timing breakdown:
Section |  min time  |  avg time  |  max time  |%varavg| %total
---------------------------------------------------------------
Pair    | 6689.5     | 6802       | 7002.8     | 106.0 | 66.86
Bond    | 0.11745    | 0.17133    | 0.27786    |   7.2 |  0.00
Kspace  | 1900.2     | 2149.7     | 2310.6     | 221.1 | 21.13
Neigh   | 895.24     | 929.22     | 998.89     |  80.9 |  9.13
Comm    | 224.15     | 238.46     | 275.92     |  85.4 |  2.34
Output  | 0.0015993  | 0.0016817  | 0.0034768  |   0.6 |  0.00
Modify  | 8.1657     | 8.8204     | 9.5726     |  12.1 |  0.09
Other   |            | 45.02      |            |       |  0.44

Nlocal:        346.154 ave         365 max         331 min
Histogram: 3 9 5 7 4 11 5 4 3 1
Nghost:        4103.08 ave        4188 max        4013 min
Histogram: 3 6 3 5 6 8 6 7 5 3
Neighs:        69860.8 ave       73734 max       66414 min
Histogram: 2 5 7 6 8 6 11 2 4 1

Total # of neighbors = 3632762
Ave neighs/atom = 201.82011
Ave special neighs/atom = 0.0000000
Neighbor list builds = 302439
Dangerous builds = 0
Total wall time: 3:01:00
