LAMMPS (29 Oct 2020)
OMP_NUM_THREADS environment is not set. Defaulting to 1 thread. (../comm.cpp:94)
  using 1 OpenMP thread(s) per MPI task
OMP_NUM_THREADS environment is not set. Defaulting to 1 thread. (../comm.cpp:94)
  using 1 OpenMP thread(s) per MPI task
Reading data file ...
  orthogonal box = (-0.27717828 -3.4472206 -0.27717828) to (27.617178 331.52722 27.617178)
  2 by 13 by 2 MPI processor grid
  reading atoms ...
  18000 atoms
  reading velocities ...
  18000 velocities
Finding 1-2 1-3 1-4 neighbors ...
  special bond factors lj:    0.0      0.0      0.0     
  special bond factors coul:  0.0      0.0      0.0     
     0 = max # of 1-2 neighbors
     0 = max # of 1-3 neighbors
     0 = max # of 1-4 neighbors
     1 = max # of special neighbors
  special bonds CPU = 0.004 seconds
  read_data CPU = 0.068 seconds
90 atoms in group Th_delete
180 atoms in group O_delete
270 atoms in group delete
WARNING: Ignoring 'compress yes' for molecular system (../delete_atoms.cpp:125)
Deleted 270 atoms, new total = 17730
Setting atom values ...
  11820 settings made for charge
Setting atom values ...
  5910 settings made for charge
PPPM initialization ...
  using 12-bit tables for long-range coulomb (../kspace.cpp:328)
  G vector (1/distance) = 0.29912852
  grid = 40 240 40
  stencil order = 5
  estimated absolute RMS force accuracy = 0.00015413022
  estimated relative force accuracy = 1.0703751e-05
  using single precision MKL FFT
  3d grid and FFT values/proc = 18225 7600
Neighbor list info ...
  update every 1 steps, delay 0 steps, check yes
  max neighbors/atom: 2000, page size: 100000
  master list distance cutoff = 13
  ghost atom cutoff = 13
  binsize = 6.5, bins = 5 52 5
  2 neighbor lists, perpetual/occasional/extra = 2 0 0
  (1) pair coul/long, perpetual
      attributes: half, newton on
      pair build: half/bin/newton
      stencil: half/bin/3d/newton
      bin: standard
  (2) pair eam/alloy, perpetual, copy from (1)
      attributes: half, newton on
      pair build: copy
      stencil: none
      bin: none
Setting up cg style minimization ...
  Unit style    : metal
  Current step  : 0
WARNING: Energy due to 3 extra global DOFs will be included in minimizer energies
Per MPI rank memory allocation (min/avg/max) = 9.477 | 10.14 | 10.28 Mbytes
Step Temp E_pair E_mol TotEng Press Volume 
       0            0   -232243.64            0   -232243.64    -2672.107    260641.98 
     145            0   -232685.85            0   -232685.85   -770.87626     261022.2 
Loop time of 2.95436 on 52 procs for 145 steps with 17730 atoms

99.5% CPU use with 52 MPI tasks x 1 OpenMP threads

Minimization stats:
  Stopping criterion = linesearch alpha is zero
  Energy initial, next-to-last, final = 
     -232243.640469104  -232685.848108238  -232685.848108238
  Force two-norm initial, final = 812.88749 223.15697
  Force max component initial, final = 651.50075 158.16928
  Final line search alpha, max atom move = 1.6487703e-13 2.6078481e-11
  Iterations, force evaluations = 145 262

MPI task timing breakdown:
Section |  min time  |  avg time  |  max time  |%varavg| %total
---------------------------------------------------------------
Pair    | 1.647      | 1.7839     | 1.9351     |   4.4 | 60.38
Bond    | 2.0448e-05 | 3.2851e-05 | 6.0301e-05 |   0.0 |  0.00
Kspace  | 0.41925    | 0.57272    | 0.7116     |   7.8 | 19.39
Neigh   | 0.0049687  | 0.0063954  | 0.0079232  |   0.8 |  0.22
Comm    | 0.042573   | 0.044524   | 0.046494   |   0.4 |  1.51
Output  | 0          | 0          | 0          |   0.0 |  0.00
Modify  | 0          | 0          | 0          |   0.0 |  0.00
Other   |            | 0.5468     |            |       | 18.51

Nlocal:        340.962 ave         409 max         286 min
Histogram: 2 7 2 13 9 8 5 2 2 2
Nghost:        5573.02 ave        5788 max        5306 min
Histogram: 2 0 3 3 12 12 9 7 3 1
Neighs:       108403.0 ave      130451 max       87313 min
Histogram: 1 4 4 11 8 7 9 4 1 3

Total # of neighbors = 5636932
Ave neighs/atom = 317.93187
Ave special neighs/atom = 0.0000000
Neighbor list builds = 2
Dangerous builds = 0
Resetting atom IDs ...
PPPM initialization ...
  using 12-bit tables for long-range coulomb (../kspace.cpp:328)
  G vector (1/distance) = 0.29910933
  grid = 40 240 40
  stencil order = 5
  estimated absolute RMS force accuracy = 0.00015424711
  estimated relative force accuracy = 1.0711869e-05
  using single precision MKL FFT
  3d grid and FFT values/proc = 18225 7600
Finding 1-2 1-3 1-4 neighbors ...
  special bond factors lj:    0.0      0.0      0.0     
  special bond factors coul:  0.0      0.0      0.0     
     0 = max # of 1-2 neighbors
     0 = max # of 1-3 neighbors
     0 = max # of 1-4 neighbors
     1 = max # of special neighbors
  special bonds CPU = 0.001 seconds
PPPM initialization ...
  using 12-bit tables for long-range coulomb (../kspace.cpp:328)
  G vector (1/distance) = 0.29910933
  grid = 40 240 40
  stencil order = 5
  estimated absolute RMS force accuracy = 0.00015424711
  estimated relative force accuracy = 1.0711869e-05
  using single precision MKL FFT
  3d grid and FFT values/proc = 18225 7600
Setting up Verlet run ...
  Unit style    : metal
  Current step  : 145
  Time step     : 0.001
Per MPI rank memory allocation (min/avg/max) = 8.353 | 9.108 | 9.155 Mbytes
Step Dt Time Atoms Temp PotEng KinEng Press Volume 
     145        0.001            0    17730         1200   -232685.85    2749.9837    10482.169     261022.2 
   20000        0.001       19.855    17730    1189.2175   -230037.42     2725.274    -1520.746    270170.14 
   40000        0.001       39.855    17730     1210.131   -230082.14    2773.2005    552.24846    269844.91 
   60000        0.001       59.855    17730     1200.275   -230060.83    2750.6139   -509.05143    270002.22 
   80000        0.001       79.855    17730    1204.7332   -230076.58    2760.8307    75.791541     269831.9 
  100000        0.001       99.855    17730    1194.4211   -230109.63    2737.1989   -729.55771    269805.96 
  100145        0.001          100    17730    1193.6896   -230073.97    2735.5226    448.09221       269776 
Loop time of 815.772 on 52 procs for 100000 steps with 17730 atoms

Performance: 10.591 ns/day, 2.266 hours/ns, 122.583 timesteps/s
99.8% CPU use with 52 MPI tasks x 1 OpenMP threads

MPI task timing breakdown:
Section |  min time  |  avg time  |  max time  |%varavg| %total
---------------------------------------------------------------
Pair    | 505.24     | 524.01     | 536.8      |  33.9 | 64.24
Bond    | 0.0094465  | 0.01359    | 0.018769   |   1.9 |  0.00
Kspace  | 151.07     | 164.17     | 183.98     |  63.1 | 20.12
Neigh   | 6.9958     | 7.6282     | 8.0074     |   9.2 |  0.94
Comm    | 16.047     | 16.665     | 17.104     |   5.9 |  2.04
Output  | 0.024547   | 0.024571   | 0.0256     |   0.1 |  0.00
Modify  | 91.805     | 96.155     | 99.827     |  21.7 | 11.79
Other   |            | 7.101      |            |       |  0.87

Nlocal:        340.962 ave         361 max         321 min
Histogram: 4 3 3 9 4 11 4 7 5 2
Nghost:        5422.58 ave        5569 max        5169 min
Histogram: 4 1 3 3 1 3 8 13 9 7
Neighs:       104982.0 ave      111800 max       95906 min
Histogram: 5 1 2 5 8 5 7 8 4 7

Total # of neighbors = 5459059
Ave neighs/atom = 307.89955
Ave special neighs/atom = 0.0000000
Neighbor list builds = 2709
Dangerous builds = 0
WARNING: Shell command 'mkdir' failed with error 'File exists' (../input.cpp:1197)
System init for write_data ...
PPPM initialization ...
  using 12-bit tables for long-range coulomb (../kspace.cpp:328)
  G vector (1/distance) = 0.29850415
  grid = 40 240 40
  stencil order = 5
  estimated absolute RMS force accuracy = 0.0001591164
  estimated relative force accuracy = 1.1050022e-05
  using single precision MKL FFT
  3d grid and FFT values/proc = 18225 7600
Total wall time: 0:13:39
