LAMMPS (29 Oct 2020)
OMP_NUM_THREADS environment is not set. Defaulting to 1 thread. (../comm.cpp:94)
  using 1 OpenMP thread(s) per MPI task
OMP_NUM_THREADS environment is not set. Defaulting to 1 thread. (../comm.cpp:94)
  using 1 OpenMP thread(s) per MPI task
Reading data file ...
  orthogonal box = (0.0000000 0.0000000 0.0000000) to (5.4680000 5.4680000 5.4680000)
  2 by 2 by 13 MPI processor grid
  reading atoms ...
  12 atoms
Finding 1-2 1-3 1-4 neighbors ...
  special bond factors lj:    0.0      0.0      0.0     
  special bond factors coul:  0.0      0.0      0.0     
     0 = max # of 1-2 neighbors
     0 = max # of 1-3 neighbors
     0 = max # of 1-4 neighbors
     1 = max # of special neighbors
  special bonds CPU = 0.003 seconds
  read_data CPU = 0.011 seconds
Replicating atoms ...
  orthogonal box = (0.0000000 0.0000000 0.0000000) to (27.340000 246.06000 27.340000)
  2 by 13 by 2 MPI processor grid
  13500 atoms
Finding 1-2 1-3 1-4 neighbors ...
  special bond factors lj:    0.0      0.0      0.0     
  special bond factors coul:  0.0      0.0      0.0     
     0 = max # of 1-2 neighbors
     0 = max # of 1-3 neighbors
     0 = max # of 1-4 neighbors
     1 = max # of special neighbors
  special bonds CPU = 0.002 seconds
  replicate CPU = 0.008 seconds
Setting atom values ...
  9000 settings made for charge
Setting atom values ...
  4500 settings made for charge
PPPM initialization ...
  using 12-bit tables for long-range coulomb (../kspace.cpp:328)
  G vector (1/distance) = 0.30128132
  grid = 40 192 40
  stencil order = 5
  estimated absolute RMS force accuracy = 0.00013375008
  estimated relative force accuracy = 9.2884292e-06
  using single precision MKL FFT
  3d grid and FFT values/proc = 16038 6000
Neighbor list info ...
  update every 1 steps, delay 0 steps, check yes
  max neighbors/atom: 2000, page size: 100000
  master list distance cutoff = 13
  ghost atom cutoff = 13
  binsize = 6.5, bins = 5 38 5
  2 neighbor lists, perpetual/occasional/extra = 2 0 0
  (1) pair coul/long, perpetual
      attributes: half, newton on
      pair build: half/bin/newton
      stencil: half/bin/3d/newton
      bin: standard
  (2) pair eam/alloy, perpetual, copy from (1)
      attributes: half, newton on
      pair build: copy
      stencil: none
      bin: none
Setting up cg style minimization ...
  Unit style    : metal
  Current step  : 0
WARNING: Energy due to 3 extra global DOFs will be included in minimizer energies
Per MPI rank memory allocation (min/avg/max) = 9.279 | 9.294 | 9.316 Mbytes
Step Temp E_pair E_mol TotEng Press Volume 
       0            0   -177246.57            0   -177246.57    136385.19    183923.85 
      24            0   -177709.64            0   -177709.64   -68.047622    195482.39 
Loop time of 0.969022 on 52 procs for 24 steps with 13500 atoms

98.9% CPU use with 52 MPI tasks x 1 OpenMP threads

Minimization stats:
  Stopping criterion = linesearch alpha is zero
  Energy initial, next-to-last, final = 
      -177246.56651169  -177709.642906469  -177709.642906469
  Force two-norm initial, final = 27117.868 168.11602
  Force max component initial, final = 15656.807 144.88969
  Final line search alpha, max atom move = 4.1137948e-13 5.9604645e-11
  Iterations, force evaluations = 24 102

MPI task timing breakdown:
Section |  min time  |  avg time  |  max time  |%varavg| %total
---------------------------------------------------------------
Pair    | 0.51482    | 0.5523     | 0.60462    |   2.5 | 57.00
Bond    | 7.2487e-06 | 1.1845e-05 | 2.1583e-05 |   0.0 |  0.00
Kspace  | 0.14835    | 0.20408    | 0.24271    |   4.2 | 21.06
Neigh   | 0.0089433  | 0.010286   | 0.013221   |   0.7 |  1.06
Comm    | 0.01616    | 0.016902   | 0.017925   |   0.4 |  1.74
Output  | 0          | 0          | 0          |   0.0 |  0.00
Modify  | 0          | 0          | 0          |   0.0 |  0.00
Other   |            | 0.1854     |            |       | 19.14

Nlocal:        259.615 ave         283 max         224 min
Histogram: 2 1 1 3 6 10 13 6 7 3
Nghost:        5000.23 ave        5159 max        4887 min
Histogram: 19 5 0 2 7 3 0 0 9 7
Neighs:        83769.2 ave       92459 max       72764 min
Histogram: 3 1 1 3 7 18 7 2 9 1

Total # of neighbors = 4356000
Ave neighs/atom = 322.66667
Ave special neighs/atom = 0.0000000
Neighbor list builds = 4
Dangerous builds = 0
4500 atoms in group thorium
9000 atoms in group oxygen
Setting atom values ...
  0 settings made for type/subset
Setting atom values ...
  0 settings made for type/subset
0 atoms in group delete
WARNING: Ignoring 'compress yes' for molecular system (../delete_atoms.cpp:125)
Deleted 0 atoms, new total = 13500
PPPM initialization ...
  using 12-bit tables for long-range coulomb (../kspace.cpp:328)
  G vector (1/distance) = 0.30024452
  grid = 40 192 40
  stencil order = 5
  estimated absolute RMS force accuracy = 0.00014135159
  estimated relative force accuracy = 9.816325e-06
  using single precision MKL FFT
  3d grid and FFT values/proc = 16038 6000
Setting up cg style minimization ...
  Unit style    : metal
  Current step  : 0
WARNING: Energy due to 3 extra global DOFs will be included in minimizer energies
Per MPI rank memory allocation (min/avg/max) = 9.279 | 9.338 | 10.07 Mbytes
Step Temp E_pair E_mol TotEng Press Volume 
       0            0   -177709.67            0   -177709.67   -70.330898    195482.39 
       1            0   -177709.67            0   -177709.67   -70.330898    195482.39 
Loop time of 0.371045 on 52 procs for 1 steps with 13500 atoms

99.7% CPU use with 52 MPI tasks x 1 OpenMP threads

Minimization stats:
  Stopping criterion = linesearch alpha is zero
  Energy initial, next-to-last, final = 
     -177709.674194775  -177709.674194775  -177709.674194775
  Force two-norm initial, final = 171.70814 171.70814
  Force max component initial, final = 148.25401 148.25401
  Final line search alpha, max atom move = 4.0204406e-13 5.9604645e-11
  Iterations, force evaluations = 1 44

MPI task timing breakdown:
Section |  min time  |  avg time  |  max time  |%varavg| %total
---------------------------------------------------------------
Pair    | 0.21427    | 0.22481    | 0.23676    |   1.0 | 60.59
Bond    | 3.0785e-06 | 4.6654e-06 | 9.2671e-06 |   0.0 |  0.00
Kspace  | 0.055685   | 0.0677     | 0.078252   |   1.9 | 18.25
Neigh   | 0          | 0          | 0          |   0.0 |  0.00
Comm    | 0.0061542  | 0.0064347  | 0.0066341  |   0.1 |  1.73
Output  | 0          | 0          | 0          |   0.0 |  0.00
Modify  | 0          | 0          | 0          |   0.0 |  0.00
Other   |            | 0.07209    |            |       | 19.43

Nlocal:        259.615 ave         300 max         220 min
Histogram: 2 1 4 10 14 5 6 5 4 1
Nghost:        5000.23 ave        5152 max        4868 min
Histogram: 7 14 3 0 6 4 2 0 3 13
Neighs:        83769.2 ave       95764 max       69015 min
Histogram: 1 1 1 9 9 14 4 6 3 4

Total # of neighbors = 4356000
Ave neighs/atom = 322.66667
Ave special neighs/atom = 0.0000000
Neighbor list builds = 0
Dangerous builds = 0
Resetting atom IDs ...
PPPM initialization ...
  using 12-bit tables for long-range coulomb (../kspace.cpp:328)
  G vector (1/distance) = 0.30024452
  grid = 40 192 40
  stencil order = 5
  estimated absolute RMS force accuracy = 0.00014135159
  estimated relative force accuracy = 9.816325e-06
  using single precision MKL FFT
  3d grid and FFT values/proc = 16038 6000
Finding 1-2 1-3 1-4 neighbors ...
  special bond factors lj:    0.0      0.0      0.0     
  special bond factors coul:  0.0      0.0      0.0     
     0 = max # of 1-2 neighbors
     0 = max # of 1-3 neighbors
     0 = max # of 1-4 neighbors
     1 = max # of special neighbors
  special bonds CPU = 0.001 seconds
PPPM initialization ...
  using 12-bit tables for long-range coulomb (../kspace.cpp:328)
  G vector (1/distance) = 0.30024452
  grid = 40 192 40
  stencil order = 5
  estimated absolute RMS force accuracy = 0.00014135159
  estimated relative force accuracy = 9.816325e-06
  using single precision MKL FFT
  3d grid and FFT values/proc = 16038 6000
Setting up Verlet run ...
  Unit style    : metal
  Current step  : 0
  Time step     : 0.001
Per MPI rank memory allocation (min/avg/max) = 9.417 | 9.477 | 10.21 Mbytes
Step Dt Time Atoms Temp PotEng KinEng Press Volume 
       0        0.001            0    13500          900   -177709.67    1570.3944    8510.3194    195482.39 
   10000        0.001           10    13500    894.61648   -176080.68    1561.0008    1724.9923    200125.19 
   20000        0.001           20    13500    902.88254   -176067.02    1575.4241     366.5359       200323 
   30000        0.001           30    13500    901.20711   -176061.49    1572.5007    168.37955    200388.46 
   40000        0.001           40    13500    906.17776   -176071.24    1581.1739   -230.48524    200388.43 
   50000        0.001           50    13500    894.15758   -176066.92    1560.2001   -1834.2043    200586.74 
   60000        0.001           60    13500    907.01586   -176068.97    1582.6363   -2346.9011    200639.51 
   70000        0.001           70    13500    910.67998   -176066.28    1589.0297   -342.17855    200423.83 
   80000        0.001           80    13500     897.6741   -176067.39     1566.336    72.755542    200300.22 
   90000        0.001           90    13500    895.14046   -176074.89    1561.9151   -605.58563    200419.97 
  100000        0.001          100    13500     905.1106   -176045.57    1579.3118   -65.118175    200436.81 
Loop time of 648.134 on 52 procs for 100000 steps with 13500 atoms

Performance: 13.331 ns/day, 1.800 hours/ns, 154.289 timesteps/s
99.8% CPU use with 52 MPI tasks x 1 OpenMP threads

MPI task timing breakdown:
Section |  min time  |  avg time  |  max time  |%varavg| %total
---------------------------------------------------------------
Pair    | 407.73     | 417.83     | 423.34     |  15.5 | 64.47
Bond    | 0.0084214  | 0.011717   | 0.017996   |   2.1 |  0.00
Kspace  | 122.52     | 128.05     | 138.32     |  28.0 | 19.76
Neigh   | 1.0215     | 1.0667     | 1.0875     |   1.4 |  0.16
Comm    | 13.779     | 14.18      | 14.644     |   6.3 |  2.19
Output  | 0.048863   | 0.048899   | 0.050525   |   0.1 |  0.01
Modify  | 77.315     | 81.916     | 84.117     |  21.1 | 12.64
Other   |            | 5.03       |            |       |  0.78

Nlocal:        259.615 ave         275 max         243 min
Histogram: 3 3 2 3 10 13 7 8 2 1
Nghost:        4959.79 ave        5120 max        4896 min
Histogram: 23 3 10 3 1 4 0 0 3 5
Neighs:        82409.4 ave       87146 max       77127 min
Histogram: 2 2 5 4 7 13 7 7 3 2

Total # of neighbors = 4285288
Ave neighs/atom = 317.42874
Ave special neighs/atom = 0.0000000
Neighbor list builds = 466
Dangerous builds = 0
System init for write_data ...
PPPM initialization ...
  using 12-bit tables for long-range coulomb (../kspace.cpp:328)
  G vector (1/distance) = 0.29981091
  grid = 40 192 40
  stencil order = 5
  estimated absolute RMS force accuracy = 0.00014460861
  estimated relative force accuracy = 1.0042512e-05
  using single precision MKL FFT
  3d grid and FFT values/proc = 16038 6000
Total wall time: 0:10:50
