LAMMPS (29 Oct 2020)
OMP_NUM_THREADS environment is not set. Defaulting to 1 thread. (../comm.cpp:94)
  using 1 OpenMP thread(s) per MPI task
OMP_NUM_THREADS environment is not set. Defaulting to 1 thread. (../comm.cpp:94)
  using 1 OpenMP thread(s) per MPI task
Lattice spacing in x,y,z = 5.5788000 5.5788000 5.5788000
Created orthogonal box = (0.0000000 0.0000000 0.0000000) to (27.894000 334.72800 27.894000)
  2 by 13 by 2 MPI processor grid
Changing box ...
  triclinic box = (0.0000000 0.0000000 0.0000000) to (27.894000 334.72800 27.894000) with tilt (0.0000000 0.0000000 0.0000000)
Created 12000 atoms
  create_atoms CPU = 0.006 seconds
Lattice spacing in x,y,z = 5.5788000 5.5788000 5.5788000
Created 6000 atoms
  create_atoms CPU = 0.002 seconds
12000 atoms in group oxygen
6000 atoms in group uranium
Setting atom values ...
  45 settings made for type/ratio
Setting atom values ...
  45 settings made for type/ratio
45 atoms in group anti_oxygen
45 atoms in group anti_uranium
Setting atom values ...
  45 settings made for type
Setting atom values ...
  45 settings made for type
Setting atom values ...
  12000 settings made for charge
Setting atom values ...
  6000 settings made for charge
PPPM initialization ...
  using 12-bit tables for long-range coulomb (../kspace.cpp:328)
  G vector (1/distance) = 0.29916851
  grid = 40 240 40
  stencil order = 5
  estimated absolute RMS force accuracy = 0.00015502622
  estimated relative force accuracy = 1.0765975e-05
  using single precision MKL FFT
  3d grid and FFT values/proc = 18225 7600
Neighbor list info ...
  update every 1 steps, delay 0 steps, check yes
  max neighbors/atom: 2000, page size: 100000
  master list distance cutoff = 13
  ghost atom cutoff = 13
  binsize = 6.5, bins = 5 52 5
  2 neighbor lists, perpetual/occasional/extra = 2 0 0
  (1) pair coul/long, perpetual
      attributes: half, newton on
      pair build: half/bin/newton/tri
      stencil: half/bin/3d/newton/tri
      bin: standard
  (2) pair eam/alloy, perpetual, copy from (1)
      attributes: half, newton on
      pair build: copy
      stencil: none
      bin: none
Setting up cg style minimization ...
  Unit style    : metal
  Current step  : 0
WARNING: Energy due to 3 extra global DOFs will be included in minimizer energies
Per MPI rank memory allocation (min/avg/max) = 10.42 | 10.45 | 10.47 Mbytes
Step Temp E_pair E_mol TotEng Press Volume 
       0            0   -231588.92            0   -231588.92    19820.881    260443.57 
     623            0   -235362.08            0   -235362.08     28.76818    263894.89 
Loop time of 9.27008 on 52 procs for 623 steps with 18000 atoms

99.5% CPU use with 52 MPI tasks x 1 OpenMP threads

Minimization stats:
  Stopping criterion = linesearch alpha is zero
  Energy initial, next-to-last, final = 
     -231588.917151428  -235362.084353346  -235362.084353362
  Force two-norm initial, final = 5677.1781 31.292485
  Force max component initial, final = 3614.4358 10.221723
  Final line search alpha, max atom move = 1.2081061e-11 1.2348926e-10
  Iterations, force evaluations = 623 779

MPI task timing breakdown:
Section |  min time  |  avg time  |  max time  |%varavg| %total
---------------------------------------------------------------
Pair    | 5.0507     | 5.1984     | 5.3718     |   3.4 | 56.08
Bond    | 7.85e-05   | 0.00010658 | 0.00016293 |   0.0 |  0.00
Kspace  | 1.6276     | 1.8022     | 1.9544     |   6.0 | 19.44
Neigh   | 0.040052   | 0.046028   | 0.050563   |   1.0 |  0.50
Comm    | 0.18752    | 0.19379    | 0.20763    |   1.1 |  2.09
Output  | 0          | 0          | 0          |   0.0 |  0.00
Modify  | 0          | 0          | 0          |   0.0 |  0.00
Other   |            | 2.03       |            |       | 21.89

Nlocal:        346.154 ave         380 max         304 min
Histogram: 1 1 6 6 7 7 6 9 7 2
Nghost:        5626.13 ave        5719 max        5527 min
Histogram: 7 11 3 2 2 0 1 8 9 9
Neighs:       111451.0 ave      121831 max       97496 min
Histogram: 1 1 5 7 7 5 8 10 4 4

Total # of neighbors = 5795457
Ave neighs/atom = 321.96983
Ave special neighs/atom = 0.0000000
Neighbor list builds = 12
Dangerous builds = 0
PPPM initialization ...
  using 12-bit tables for long-range coulomb (../kspace.cpp:328)
  G vector (1/distance) = 0.29893969
  grid = 40 240 40
  stencil order = 5
  estimated absolute RMS force accuracy = 0.00015680388
  estimated relative force accuracy = 1.0889427e-05
  using single precision MKL FFT
  3d grid and FFT values/proc = 18225 7600
Setting up Verlet run ...
  Unit style    : metal
  Current step  : 0
  Time step     : 0.001
Per MPI rank memory allocation (min/avg/max) = 10.56 | 10.59 | 10.61 Mbytes
Step Dt Time Atoms Temp PotEng KinEng Press Volume v_latt 
       0        0.001            0    18000         1200   -235362.09     2791.864    11328.435    263894.89    5.6033365 
   50000        0.001           50    18000    1200.8868   -233397.24    2793.9272   -1000.6646     271656.2    5.6577376 
  100000        0.001          100    18000    1186.1919   -233419.02    2759.7388    1465.6238    271185.04    5.6544651 
Loop time of 944.83 on 52 procs for 100000 steps with 18000 atoms

Performance: 9.145 ns/day, 2.625 hours/ns, 105.839 timesteps/s
99.8% CPU use with 52 MPI tasks x 1 OpenMP threads

MPI task timing breakdown:
Section |  min time  |  avg time  |  max time  |%varavg| %total
---------------------------------------------------------------
Pair    | 550.93     | 561.84     | 577.49     |  24.8 | 59.46
Bond    | 0.008846   | 0.014571   | 0.025477   |   2.6 |  0.00
Kspace  | 196.07     | 212.99     | 224.25     |  43.1 | 22.54
Neigh   | 10.422     | 10.797     | 11.489     |   9.7 |  1.14
Comm    | 27.023     | 27.945     | 28.738     |   8.9 |  2.96
Output  | 0.0079885  | 0.0079995  | 0.0083279  |   0.1 |  0.00
Modify  | 114.01     | 121.16     | 127.33     |  30.5 | 12.82
Other   |            | 10.08      |            |       |  1.07

Nlocal:        346.154 ave         364 max         332 min
Histogram: 6 5 5 8 8 5 4 6 1 4
Nghost:        5524.81 ave        5643 max        5394 min
Histogram: 1 6 5 12 3 2 5 3 11 4
Neighs:       107457.0 ave      113564 max      103126 min
Histogram: 7 5 6 10 4 6 8 1 3 2

Total # of neighbors = 5587766
Ave neighs/atom = 310.43144
Ave special neighs/atom = 0.0000000
Neighbor list builds = 2719
Dangerous builds = 0
System init for write_data ...
PPPM initialization ...
  using 12-bit tables for long-range coulomb (../kspace.cpp:328)
  G vector (1/distance) = 0.29842536
  grid = 40 240 40
  stencil order = 5
  estimated absolute RMS force accuracy = 0.00016103624
  estimated relative force accuracy = 1.1183348e-05
  using single precision MKL FFT
  3d grid and FFT values/proc = 18225 7600
Total wall time: 0:15:54
