LAMMPS (29 Oct 2020)
OMP_NUM_THREADS environment is not set. Defaulting to 1 thread. (../comm.cpp:94)
  using 1 OpenMP thread(s) per MPI task
OMP_NUM_THREADS environment is not set. Defaulting to 1 thread. (../comm.cpp:94)
  using 1 OpenMP thread(s) per MPI task
Reading data file ...
  triclinic box = (-0.090387172 -1.0271891 -0.087705534) to (27.984387 335.75519 27.981706) with tilt (0.0000000 0.0000000 0.0000000)
  2 by 13 by 2 MPI processor grid
  reading atoms ...
  18000 atoms
  reading velocities ...
  18000 velocities
Finding 1-2 1-3 1-4 neighbors ...
  special bond factors lj:    0.0      0.0      0.0     
  special bond factors coul:  0.0      0.0      0.0     
     0 = max # of 1-2 neighbors
     0 = max # of 1-3 neighbors
     0 = max # of 1-4 neighbors
     1 = max # of special neighbors
  special bonds CPU = 0.004 seconds
  read_data CPU = 0.063 seconds
Setting atom values ...
  11820 settings made for charge
Setting atom values ...
  6000 settings made for charge
Setting atom values ...
  180 settings made for charge
Setting atom values ...
  0 settings made for charge
PPPM initialization ...
  using 12-bit tables for long-range coulomb (../kspace.cpp:328)
  G vector (1/distance) = 0.29882278
  grid = 40 240 40
  stencil order = 5
  estimated absolute RMS force accuracy = 0.00015780854
  estimated relative force accuracy = 1.0959196e-05
  using single precision MKL FFT
  3d grid and FFT values/proc = 15000 7600
Neighbor list info ...
  update every 1 steps, delay 0 steps, check yes
  max neighbors/atom: 2000, page size: 100000
  master list distance cutoff = 11.3
  ghost atom cutoff = 11.3
  binsize = 5.65, bins = 5 60 5
  2 neighbor lists, perpetual/occasional/extra = 2 0 0
  (1) pair coul/long, perpetual
      attributes: half, newton on
      pair build: half/bin/newton/tri
      stencil: half/bin/3d/newton/tri
      bin: standard
  (2) pair eam/alloy, perpetual, copy from (1)
      attributes: half, newton on
      pair build: copy
      stencil: none
      bin: none
Setting up Verlet run ...
  Unit style    : metal
  Current step  : 0
  Time step     : 0.001
Per MPI rank memory allocation (min/avg/max) = 8.327 | 8.357 | 8.372 Mbytes
Step Temp E_pair E_mol TotEng Press 
       0          600   -235227.81            0   -233831.87    357.36594 
  100000    599.11758   -235267.78            0    -233873.9   -9.7609981 
Loop time of 679.129 on 52 procs for 100000 steps with 18000 atoms

Performance: 12.722 ns/day, 1.886 hours/ns, 147.248 timesteps/s
99.8% CPU use with 52 MPI tasks x 1 OpenMP threads

MPI task timing breakdown:
Section |  min time  |  avg time  |  max time  |%varavg| %total
---------------------------------------------------------------
Pair    | 452.38     | 462.57     | 480.95     |  33.0 | 68.11
Bond    | 0.0057099  | 0.01072    | 0.017543   |   2.3 |  0.00
Kspace  | 125.1      | 146.64     | 159.67     |  68.8 | 21.59
Neigh   | 48.317     | 50.153     | 54.591     |  21.5 |  7.38
Comm    | 14.449     | 15.395     | 17.743     |  19.1 |  2.27
Output  | 5.4114e-05 | 5.9283e-05 | 0.00025907 |   0.0 |  0.00
Modify  | 1.8153     | 3.0985     | 4.913      |  58.4 |  0.46
Other   |            | 1.262      |            |       |  0.19

Nlocal:        346.154 ave         365 max         324 min
Histogram: 2 4 1 7 11 5 7 5 6 4
Nghost:        4165.98 ave        4278 max        4052 min
Histogram: 2 4 6 6 10 6 5 4 6 3
Neighs:        69953.7 ave       73651 max       64770 min
Histogram: 1 2 3 6 8 7 9 5 5 6

Total # of neighbors = 3637590
Ave neighs/atom = 202.08833
Ave special neighs/atom = 0.0000000
Neighbor list builds = 16226
Dangerous builds = 0
11820 atoms in group oxygen
PPPM initialization ...
  using 12-bit tables for long-range coulomb (../kspace.cpp:328)
  G vector (1/distance) = 0.29882278
  grid = 40 240 40
  stencil order = 5
  estimated absolute RMS force accuracy = 0.00015780854
  estimated relative force accuracy = 1.0959196e-05
  using single precision MKL FFT
  3d grid and FFT values/proc = 15000 7600
Setting up Verlet run ...
  Unit style    : metal
  Current step  : 0
  Time step     : 0.001
Per MPI rank memory allocation (min/avg/max) = 8.577 | 8.607 | 8.623 Mbytes
Step f_2 Temp v_Tdiff v_deltaT 
       0            0    599.11758            0            0 
  100000    695.67038    603.40372  0.018622107    216.20093 
  200000    1375.8387    610.54826  0.020689605    240.20439 
  300000    2063.1666    603.60003  0.021132418    245.34541 
  400000    2751.8709    620.96149  0.020521153    238.24868 
  500000    3458.9319    621.98452  0.020083473    233.16726 
  600000    4168.4455    622.49896  0.019300873    224.08135 
  700000    4882.2072    625.89112  0.019936819    231.46462 
  800000    5604.2387    626.19733  0.019860975    230.58407 
  900000    6325.6397    630.71546  0.020203491    234.56066 
 1000000    7053.2834    631.28323  0.019052073     221.1928 
Loop time of 6725.8 on 52 procs for 1000000 steps with 18000 atoms

Performance: 12.846 ns/day, 1.868 hours/ns, 148.681 timesteps/s
99.8% CPU use with 52 MPI tasks x 1 OpenMP threads

MPI task timing breakdown:
Section |  min time  |  avg time  |  max time  |%varavg| %total
---------------------------------------------------------------
Pair    | 4463.3     | 4554.1     | 4723.1     | 100.8 | 67.71
Bond    | 0.064221   | 0.10674    | 0.16138    |   6.5 |  0.00
Kspace  | 1263       | 1463.3     | 1581.9     | 205.3 | 21.76
Neigh   | 503.18     | 519.34     | 563.78     |  65.1 |  7.72
Comm    | 144.59     | 154.18     | 178.58     |  64.9 |  2.29
Output  | 0.0010209  | 0.0010888  | 0.0022501  |   0.5 |  0.00
Modify  | 5.3842     | 5.9436     | 6.3846     |  10.4 |  0.09
Other   |            | 28.84      |            |       |  0.43

Nlocal:        346.154 ave         373 max         328 min
Histogram: 2 5 11 9 10 7 3 1 2 2
Nghost:        4162.17 ave        4256 max        4062 min
Histogram: 3 9 3 6 2 6 7 4 6 6
Neighs:        69935.5 ave       75192 max       66147 min
Histogram: 3 4 7 10 12 10 1 2 1 2

Total # of neighbors = 3636644
Ave neighs/atom = 202.03578
Ave special neighs/atom = 0.0000000
Neighbor list builds = 167831
Dangerous builds = 0
Total wall time: 2:03:25
