ITEM: TIMESTEP
90000
ITEM: NUMBER OF ATOMS
17910
ITEM: BOX BOUNDS pp pp pp
-3.9690471091313301e-01 2.7736904710913318e+01
-4.7284735863931244e+00 3.3280847358639653e+02
-3.9837895187905364e-01 2.7738378951878396e+01
ITEM: ATOMS id type q x y z
1 2 2.2208 5.4809 0.971422 5.14056
2 1 -1.1104 1.2085 -3.42196 0.923091
3 1 -1.1104 1.32721 2.53943 0.886621
6 1 -1.1104 1.22894 -3.31608 3.74675
7 1 -1.1104 1.02953 2.29637 3.77326
10 1 -1.1104 1.14254 -0.513453 1.07568
12 2 2.2208 5.25236 -1.92105 2.33199
14 1 -1.1104 1.02196 -0.632822 3.67418
16 1 -1.1104 3.92771 -3.43736 0.833081
17 1 -1.1104 4.00808 2.18837 1.00741
18 2 2.2208 2.48962 0.915834 2.33793
19 1 -1.1104 3.91138 -3.52003 3.74404
20 1 -1.1104 4.02981 2.3881 3.73827
21 2 2.2208 2.46698 -2.09227 5.14955
23 1 -1.1104 3.75075 -0.526077 0.97575
24 1 -1.1104 4.01987 -0.463926 3.7586
22 2 2.2208 2.39332 3.89271 5.11253
13 2 2.2208 5.37831 3.75825 2.3513
11 1 -1.1104 6.85847 -0.484111 1.18294
5 1 -1.1104 6.79174 2.25764 0.826384
173 1 -1.1104 3.74066 2.30111 6.49553
166 1 -1.1104 1.17927 -3.36268 6.55983
172 1 -1.1104 3.98715 -3.3662 6.58422
169 1 -1.1104 6.68109 2.59291 6.49233
8455 2 2.2208 7.98109 -4.57188 7.89816
168 1 -1.1104 6.66643 -3.27927 6.39745
167 1 -1.1104 1.02459 2.40008 6.62421
9 1 -1.1104 6.94187 2.46101 3.7466
8 1 -1.1104 6.5854 -3.37301 3.66143
8450 2 2.2208 10.9024 -4.67834 5.05725
4 1 -1.1104 6.63613 -3.33119 0.812172
15 1 -1.1104 6.81904 -0.330845 3.88326
31 2 2.2208 11.1198 0.938736 5.19282
32 1 -1.1104 12.4051 -3.26459 0.869099
33 1 -1.1104 12.3622 2.41613 0.854916
34 1 -1.1104 12.3177 -3.25486 3.82535
35 1 -1.1104 12.5239 2.21831 3.81293
36 1 -1.1104 12.4456 -0.546778 1.07459
37 2 2.2208 11.0472 -1.94937 2.31537
39 1 -1.1104 12.595 -0.551801 3.87178
40 1 -1.1104 9.50934 -3.24973 0.812035
41 1 -1.1104 9.61099 2.34575 1.06989
42 2 2.2208 8.29007 0.939194 2.33724
43 1 -1.1104 9.46842 -3.37077 3.47966
44 1 -1.1104 9.75268 2.35273 3.88637
45 2 2.2208 8.11834 -1.93711 4.92884
46 2 2.2208 8.16879 3.747 5.15864
47 1 -1.1104 9.55831 -0.316493 0.923611
48 1 -1.1104 9.57777 -0.537591 3.65044
38 2 2.2208 11.0177 3.64569 2.42072
206 1 -1.1104 12.2313 2.24156 6.68958
209 1 -1.1104 9.3846 2.45248 6.73993
8883 2 2.2208 -0.223235 20.7799 7.94157
207 1 -1.1104 12.4074 -0.51456 6.67324
208 1 -1.1104 9.46337 -3.27199 6.34358
205 1 -1.1104 12.2399 -3.31578 6.51044
8456 2 2.2208 10.9475 -4.73341 10.7228
230 2 2.2208 13.7471 -1.8974 10.7478
8452 2 2.2208 2.46147 -4.65289 8.00172
8908 2 2.2208 13.6342 17.8099 2.22379
54 2 2.2208 5.27589 6.60369 5.08439
55 2 2.2208 5.28087 12.2158 5.14625
56 1 -1.1104 1.23931 8.0017 0.840182
58 1 -1.1104 1.05517 7.98394 3.73846
60 1 -1.1104 0.950374 5.18821 0.970987
61 1 -1.1104 0.978246 10.7526 1.02305
66 2 2.2208 5.22138 9.37366 2.36363
67 1 -1.1104 0.963595 5.31958 3.68242
68 1 -1.1104 1.1091 10.7957 3.90826
71 1 -1.1104 3.94579 7.80509 0.87908
72 2 2.2208 2.57085 6.59685 2.36243
73 2 2.2208 2.39115 12.1142 2.29474
74 1 -1.1104 3.84819 8.0251 3.70124
75 2 2.2208 2.40525 9.39097 5.16819
76 1 -1.1104 3.99886 5.00086 1.04225
77 1 -1.1104 3.71502 10.7553 0.988076
79 1 -1.1104 3.75742 5.0947 3.77673
80 1 -1.1104 3.84372 10.8356 3.96316
64 1 -1.1104 6.70478 10.5738 0.8243
239 1 -1.1104 3.78014 5.35248 6.44945
238 1 -1.1104 3.87046 8.0681 6.50297
78 1 -1.1104 3.78214 10.7024 6.58946
234 1 -1.1104 0.933076 7.89604 6.60236
62 1 -1.1104 0.956745 10.8131 6.63342
235 1 -1.1104 6.58689 8.06767 6.57232
236 1 -1.1104 0.999855 5.19216 6.57829
65 1 -1.1104 6.69264 10.8749 6.43051
200 2 2.2208 -0.143267 -1.88686 7.97849
57 1 -1.1104 6.64328 7.98308 0.978082
69 1 -1.1104 6.62223 5.04777 3.8495
70 1 -1.1104 6.62621 10.667 3.61608
63 1 -1.1104 6.72652 5.12406 1.00091
59 1 -1.1104 6.616 7.85713 3.61634
84 2 2.2208 10.8374 6.62747 5.21212
85 2 2.2208 10.8847 12.1067 5.26026
86 1 -1.1104 12.469 8.07727 0.87006
87 1 -1.1104 12.4606 7.78707 3.8014
88 1 -1.1104 12.4594 5.17208 0.860455
89 1 -1.1104 12.4483 10.7738 1.16987
91 2 2.2208 10.9741 9.44909 2.27079
92 1 -1.1104 12.544 4.96765 3.66924
93 1 -1.1104 12.3221 10.6364 3.75567
94 1 -1.1104 9.55681 7.78135 0.903792
95 2 2.2208 8.17927 6.33969 2.34826
96 2 2.2208 8.23414 12.1306 2.38485
97 1 -1.1104 9.41228 7.99522 3.72309
98 2 2.2208 8.00174 9.16477 5.13482
99 1 -1.1104 9.72651 5.13193 1.22743
100 1 -1.1104 9.58655 10.7684 0.947719
102 1 -1.1104 9.43111 5.14897 3.90433
103 1 -1.1104 9.46048 10.7725 3.80763
266 1 -1.1104 12.2691 5.04643 6.41332
101 1 -1.1104 9.48173 10.9234 6.54713
90 1 -1.1104 12.2686 10.7575 6.66126
267 1 -1.1104 9.63262 8.07967 6.55834
265 1 -1.1104 12.2478 7.95753 6.67884
269 1 -1.1104 9.4815 5.21115 6.66934
340 2 2.2208 2.44983 15.0353 -0.394732
8473 2 2.2208 2.41424 -4.59399 13.5791
8469 2 2.2208 7.9987 -4.56285 13.5253
106 2 2.2208 5.16413 17.7304 5.13325
107 1 -1.1104 1.09205 13.5546 1.01563
109 1 -1.1104 0.851866 19.0658 1.02986
113 1 -1.1104 1.00059 13.7443 3.75511
114 1 -1.1104 1.07071 19.3176 3.86216
116 1 -1.1104 0.98454 16.3526 0.976778
119 2 2.2208 5.21222 14.9767 2.58332
120 2 2.2208 5.39282 20.6441 2.42028
121 1 -1.1104 1.00323 16.4901 3.80804
123 1 -1.1104 3.88895 13.518 1.04448
125 1 -1.1104 3.81535 19.1178 1.24911
127 2 2.2208 2.29796 17.7779 2.30689
128 1 -1.1104 3.90756 13.6189 3.77361
129 1 -1.1104 4.25669 19.2944 3.85061
130 2 2.2208 2.3974 14.9655 5.14749
131 2 2.2208 2.51441 20.7631 5.11742
132 1 -1.1104 3.8834 16.3112 0.933753
134 1 -1.1104 3.72917 16.414 3.60332
110 1 -1.1104 6.58435 13.4968 1.0359
115 1 -1.1104 6.78162 13.4689 3.89536
112 1 -1.1104 6.51434 19.2925 6.56588
139 1 -1.1104 6.88407 19.1866 3.8516
126 1 -1.1104 3.62114 19.2308 6.44302
124 1 -1.1104 3.81155 13.6011 6.5407
108 1 -1.1104 0.981901 13.7376 6.48066
133 1 -1.1104 3.84967 16.3845 6.5119
117 1 -1.1104 1.01071 16.5265 6.58243
302 1 -1.1104 1.19771 19.2885 6.71441
9110 2 2.2208 -0.416716 9.38227 7.9392
138 1 -1.1104 6.52488 19.0289 1.08503
140 1 -1.1104 6.73737 16.2778 1.13409
122 1 -1.1104 6.48225 16.2684 4.0653
111 1 -1.1104 6.70163 13.7943 6.71883
141 2 2.2208 10.9274 17.7594 5.20247
142 1 -1.1104 12.2722 13.3713 1.02546
144 1 -1.1104 12.1435 19.3009 1.06482
146 1 -1.1104 12.4108 13.424 3.79885
147 1 -1.1104 12.3649 19.3046 3.90545
148 1 -1.1104 12.414 16.2838 1.04663
150 2 2.2208 10.9854 14.8721 2.45907
151 2 2.2208 10.8978 20.6537 2.48051
152 1 -1.1104 12.25 16.4152 3.80865
153 1 -1.1104 9.43773 13.437 0.938248
155 1 -1.1104 9.24696 19.0729 0.974532
157 2 2.2208 8.02276 17.8012 2.48126
158 1 -1.1104 9.70588 13.5133 3.73484
159 1 -1.1104 9.73085 19.2233 3.8385
160 2 2.2208 8.07034 14.9378 5.36051
161 2 2.2208 7.94751 20.6116 5.21846
162 1 -1.1104 9.57083 16.1884 1.03805
164 1 -1.1104 9.5066 16.4967 3.68623
149 1 -1.1104 12.3356 16.5734 6.48182
154 1 -1.1104 9.45451 13.6472 6.5891
145 1 -1.1104 12.2469 19.2819 6.8163
156 1 -1.1104 9.31321 19.2665 6.67354
174 1 -1.1104 3.95672 -0.632657 6.56448
170 1 -1.1104 1.12017 -0.578097 6.49251
171 1 -1.1104 6.74963 -0.364109 6.68018
29 2 2.2208 -0.43646 6.60532 10.6601
8454 2 2.2208 -0.2966 -4.66867 10.7953
175 2 2.2208 5.30327 0.928733 10.7562
176 1 -1.1104 1.14501 -3.17789 12.1428
177 1 -1.1104 0.898837 2.48552 12.2387
180 1 -1.1104 1.20518 -3.25631 9.30572
181 1 -1.1104 1.10755 2.30846 9.36131
184 1 -1.1104 1.14794 -0.305157 12.2443
186 2 2.2208 5.30787 -1.87054 7.95507
187 2 2.2208 5.34738 3.68361 8.00853
188 1 -1.1104 1.09526 -0.662968 9.36936
190 1 -1.1104 3.81092 -3.24392 12.0865
191 1 -1.1104 3.71568 2.36657 12.0741
192 2 2.2208 2.44488 0.932566 7.82508
193 1 -1.1104 3.86138 -3.37452 9.3755
194 1 -1.1104 3.93691 2.21283 9.17989
195 2 2.2208 2.474 -1.80747 10.7537
197 1 -1.1104 3.96423 -0.499074 12.1714
198 1 -1.1104 3.71559 -0.461647 9.27042
196 2 2.2208 2.33519 3.61227 10.8086
182 1 -1.1104 6.69842 -3.39923 9.31961
179 1 -1.1104 6.601 2.51776 12.3088
178 1 -1.1104 6.64683 -3.09456 12.1542
185 1 -1.1104 6.71098 -0.309808 12.2324
189 1 -1.1104 6.55852 -0.558658 9.45116
8448 2 2.2208 -0.112313 -4.72879 5.1555
8447 2 2.2208 5.41375 -4.8372 5.25647
183 1 -1.1104 6.77199 2.21494 9.45078
321 2 2.2208 8.00844 1.09986 13.714
210 1 -1.1104 9.53885 -0.460405 6.48578
8910 2 2.2208 13.6118 9.21469 5.24144
211 2 2.2208 10.8048 0.846002 10.8331
212 1 -1.1104 12.2055 -3.37143 12.0279
213 1 -1.1104 12.2836 2.45964 12.1208
214 1 -1.1104 12.5017 -3.1634 9.16777
215 1 -1.1104 12.2541 2.34274 9.49908
216 1 -1.1104 12.3079 -0.534871 12.0583
217 2 2.2208 10.9397 -1.79222 7.87646
219 1 -1.1104 12.3945 -0.519949 9.46612
220 1 -1.1104 9.29269 -3.25834 12.1475
221 1 -1.1104 9.63969 2.25277 12.1804
222 2 2.2208 8.14393 0.889046 8.09052
223 1 -1.1104 9.70228 -3.33834 9.2809
224 1 -1.1104 9.58122 2.24454 9.44773
225 2 2.2208 7.9998 -1.90439 10.7756
226 2 2.2208 8.04964 3.70159 10.8234
227 1 -1.1104 9.54314 -0.555479 12.0798
228 1 -1.1104 9.56594 -0.599068 9.43079
218 2 2.2208 10.7982 3.7176 8.17129
9041 2 2.2208 -0.383434 20.6192 2.62379
204 1 -1.1104 9.33662 16.3838 12.346
30 2 2.2208 -0.445834 12.2219 10.8765
319 2 2.2208 5.18416 3.73859 13.6516
8909 2 2.2208 -0.287543 17.7466 5.26569
231 1 -1.1104 9.60805 16.6014 9.50404
9177 2 2.2208 -0.388366 3.71854 2.38627
237 1 -1.1104 6.69488 5.40943 6.60531
240 2 2.2208 5.13472 6.41329 10.8415
241 2 2.2208 5.21616 12.1625 10.9409
242 1 -1.1104 0.955164 8.08638 12.2408
244 1 -1.1104 0.957048 8.01993 9.50789
246 1 -1.1104 0.84363 5.21376 12.0426
247 1 -1.1104 1.00369 10.69 12.2721
250 2 2.2208 5.22093 9.46532 8.16449
251 1 -1.1104 0.890056 5.05106 9.32181
252 1 -1.1104 0.953019 10.9673 9.30756
255 1 -1.1104 3.88427 7.79264 12.0734
256 2 2.2208 2.35633 6.61522 7.80812
257 2 2.2208 2.35274 12.2932 7.92
258 1 -1.1104 3.70123 8.01326 9.25667
259 2 2.2208 2.45291 9.49299 10.7044
260 1 -1.1104 3.64728 5.14152 12.2689
261 1 -1.1104 3.77584 10.7647 12.2575
262 1 -1.1104 3.857 4.99458 9.29752
263 1 -1.1104 3.78179 10.9187 9.38281
253 1 -1.1104 6.66017 5.15093 9.48833
249 1 -1.1104 6.58454 10.6848 12.1449
243 1 -1.1104 6.56477 7.87588 12.0326
9179 2 2.2208 -0.408263 6.5452 5.1661
341 2 2.2208 5.33431 17.8158 -0.349178
9175 2 2.2208 -0.264681 0.835625 5.08082
316 2 2.2208 5.20778 -1.80576 13.6749
82 1 -1.1104 12.0517 19.3639 9.5341
137 1 -1.1104 9.46376 19.2658 12.1838
245 1 -1.1104 6.59362 8.11068 9.33479
248 1 -1.1104 6.34601 5.21626 12.1948
254 1 -1.1104 6.63778 10.8571 9.25063
264 1 -1.1104 9.40534 10.8479 9.31417
268 1 -1.1104 9.42691 5.1901 9.55208
270 1 -1.1104 9.51987 10.7498 12.2646
271 1 -1.1104 9.28489 5.01341 12.2504
272 2 2.2208 8.04071 9.32845 10.7294
273 1 -1.1104 9.41887 8.09283 9.39836
274 2 2.2208 8.00826 12.2972 7.91157
275 2 2.2208 8.07049 6.62372 8.01541
276 2 2.2208 10.9564 6.65906 10.7811
277 2 2.2208 11.0217 12.4081 10.8369
278 1 -1.1104 12.1824 8.13584 12.0998
279 1 -1.1104 12.2973 8.06102 9.45295
280 1 -1.1104 12.1641 5.3315 12.1087
281 1 -1.1104 12.3261 10.9089 12.2535
282 2 2.2208 10.8004 9.54048 8.06097
283 1 -1.1104 12.4798 5.33986 9.49721
284 1 -1.1104 12.2147 11.0734 9.47182
285 1 -1.1104 9.40659 8.04595 12.129
9181 2 2.2208 -0.481872 12.0467 5.21066
296 1 -1.1104 6.58306 19.1838 12.214
202 2 2.2208 7.9711 15.0414 10.8299
143 1 -1.1104 12.2751 13.6385 6.43408
49 1 -1.1104 12.1477 19.2702 12.2073
118 1 -1.1104 6.63913 16.4522 6.79856
9042 2 2.2208 -0.404005 14.8598 2.20707
289 1 -1.1104 6.54895 16.3974 9.51326
290 1 -1.1104 6.55066 13.492 9.38806
286 1 -1.1104 3.69188 19.2856 12.279
287 1 -1.1104 3.7756 13.6445 12.222
291 1 -1.1104 0.840487 19.1767 9.63004
292 1 -1.1104 0.991302 16.3721 9.35309
293 2 2.2208 5.03415 20.6007 8.03456
294 1 -1.1104 0.919819 13.5464 9.27413
295 2 2.2208 5.23875 15.0896 8.01976
298 1 -1.1104 1.07125 19.34 12.4119
299 1 -1.1104 1.00879 13.6018 12.0445
300 2 2.2208 5.07625 17.8047 10.8499
301 1 -1.1104 3.8841 19.3015 9.30362
303 2 2.2208 2.31901 17.9633 7.98176
304 1 -1.1104 3.80468 16.4822 9.5404
305 1 -1.1104 3.69765 13.7437 9.46961
307 1 -1.1104 0.875907 16.5095 12.1834
308 1 -1.1104 3.6828 16.3547 12.1567
309 2 2.2208 2.28594 20.7136 10.8727
310 2 2.2208 2.35841 15.116 10.8458
288 1 -1.1104 6.60164 19.1317 9.54608
306 1 -1.1104 6.39084 16.4722 12.3093
104 2 2.2208 10.8701 15.0821 7.95645
9174 2 2.2208 -0.255982 -2.03873 2.42816
27 1 -1.1104 12.3513 13.8524 12.2381
83 1 -1.1104 12.3901 16.5836 12.099
232 1 -1.1104 9.19778 19.5756 9.29216
311 1 -1.1104 9.3801 13.6801 9.52132
136 1 -1.1104 9.61631 13.5762 12.5416
26 2 2.2208 10.9021 17.8649 10.8639
135 1 -1.1104 12.3597 16.4679 9.2961
105 2 2.2208 10.7488 20.705 7.97936
165 2 2.2208 8.0275 17.8233 7.98133
203 2 2.2208 7.99157 20.5919 10.9881
163 1 -1.1104 9.48832 16.3715 6.52528
297 1 -1.1104 6.58406 13.5186 12.3374
81 1 -1.1104 12.2227 13.8245 9.25811
325 2 2.2208 5.26547 9.12511 13.4274
330 2 2.2208 2.39608 17.8386 13.7083
324 2 2.2208 2.25654 6.54225 13.5218
329 2 2.2208 8.05766 12.1156 13.593
327 2 2.2208 8.07911 6.61861 13.491
314 2 2.2208 13.6609 6.68327 13.4935
331 2 2.2208 5.10795 20.5952 13.7485
328 2 2.2208 10.8448 9.48176 13.53
333 2 2.2208 10.972 20.6228 13.4926
323 2 2.2208 10.9465 3.84089 13.481
352 2 2.2208 8.1102 14.8363 -0.399476
326 2 2.2208 2.45459 12.1249 13.6373
332 2 2.2208 5.16369 14.9129 13.6002
351 2 2.2208 5.24202 12.1168 -0.305208
358 2 2.2208 5.35861 0.963767 16.4824
359 1 -1.1104 1.03811 -3.01245 17.9183
360 1 -1.1104 1.01196 2.41212 17.9938
363 1 -1.1104 0.941432 -3.17506 15.0802
365 1 -1.1104 1.04702 2.56318 15.0538
371 1 -1.1104 0.983756 -0.208857 17.9615
373 2 2.2208 5.33543 -1.83055 19.4256
375 1 -1.1104 1.0034 -0.464474 15.1973
379 1 -1.1104 3.93147 -3.15509 17.7487
380 1 -1.1104 3.94006 2.34699 17.8727
381 2 2.2208 2.40439 0.931138 19.3916
382 1 -1.1104 3.60763 -3.09343 14.7276
384 1 -1.1104 3.91754 2.40458 14.9159
386 2 2.2208 2.42808 -1.70101 16.5404
388 1 -1.1104 3.89396 -0.238894 18.0094
389 1 -1.1104 3.8606 -0.438646 15.1555
387 2 2.2208 2.37296 3.84366 16.6029
374 2 2.2208 5.33545 3.75497 19.1335
370 1 -1.1104 6.72386 2.33736 20.5726
372 1 -1.1104 6.71263 -0.346368 17.839
362 1 -1.1104 6.80913 2.58274 17.8006
369 1 -1.1104 6.69647 2.23702 15.15
377 1 -1.1104 6.77961 -0.57311 14.9991
361 1 -1.1104 6.6059 -2.99067 17.8954
378 1 -1.1104 6.70465 -0.441791 20.687
364 1 -1.1104 1.21597 -2.98375 20.5838
385 1 -1.1104 3.86538 2.39567 20.7278
376 1 -1.1104 1.12708 -0.165621 20.7175
367 1 -1.1104 6.71689 -3.34776 15.1167
398 2 2.2208 13.6685 0.903458 19.1694
8653 2 2.2208 2.48532 -4.6267 24.7178
390 1 -1.1104 3.88929 -0.325568 20.8305
366 1 -1.1104 1.06416 2.44803 20.6875
8825 2 2.2208 2.47842 -4.53041 19.3433
655 2 2.2208 -0.323149 12.355 22.0323
425 1 -1.1104 12.4496 18.9089 26.4963
469 1 -1.1104 9.62412 19.163 23.4851
399 2 2.2208 13.6587 3.68241 16.2738
401 2 2.2208 10.8935 0.919977 16.3443
402 1 -1.1104 12.3186 -3.29286 17.9858
403 1 -1.1104 12.2348 2.43934 17.7751
404 1 -1.1104 12.3341 -3.35695 15.1356
406 1 -1.1104 12.2758 2.23515 14.9958
408 1 -1.1104 12.2095 -0.385379 17.7627
409 2 2.2208 10.9698 -1.89019 19.2181
411 1 -1.1104 12.2611 -0.478045 14.8717
413 1 -1.1104 9.50773 -3.24254 17.6601
414 1 -1.1104 9.58086 2.23398 17.9398
415 2 2.2208 8.12835 0.841957 19.0635
416 1 -1.1104 9.58941 -3.13942 15.0237
418 1 -1.1104 9.45562 2.58889 14.9957
420 2 2.2208 8.10242 -1.88556 16.437
421 2 2.2208 8.06096 3.9104 16.3778
422 1 -1.1104 9.34442 -0.71501 17.9454
423 1 -1.1104 9.4201 -0.352063 15.1096
410 2 2.2208 10.8855 3.63933 19.1511
407 1 -1.1104 12.4717 2.20607 20.7838
412 1 -1.1104 12.3346 -0.525948 20.6096
405 1 -1.1104 12.575 -3.27594 20.7486
417 1 -1.1104 9.64184 -3.31414 20.4745
424 1 -1.1104 9.47529 -0.427802 20.6499
419 1 -1.1104 9.65169 2.39393 20.6081
426 2 2.2208 -0.300304 17.7092 16.4696
8815 2 2.2208 11.0557 -4.69456 16.4564
8614 2 2.2208 10.9692 -4.67543 21.9068
595 2 2.2208 -0.193304 1.11026 22.1401
8836 2 2.2208 5.21052 -4.5904 16.4657
427 2 2.2208 -0.243654 14.9246 19.2763
434 2 2.2208 5.12547 6.53795 16.4488
435 2 2.2208 5.34491 12.1931 16.4432
436 1 -1.1104 1.14705 8.10555 17.8436
438 1 -1.1104 1.03279 8.17927 15.0114
442 1 -1.1104 1.11872 5.30589 17.8785
443 1 -1.1104 1.05361 10.7713 17.8333
446 2 2.2208 5.28427 9.26835 19.2589
447 1 -1.1104 0.883444 5.42237 14.968
449 1 -1.1104 0.973415 10.7637 15.1091
455 1 -1.1104 4.04602 8.01005 17.8114
456 2 2.2208 2.52345 6.65006 19.3177
457 2 2.2208 2.41979 12.2613 19.2558
458 1 -1.1104 3.71278 7.87332 14.8314
460 2 2.2208 2.46384 9.46824 16.5047
461 1 -1.1104 3.88845 5.0427 17.9243
462 1 -1.1104 3.8518 10.9541 17.8388
463 1 -1.1104 3.70115 5.08149 15.1017
465 1 -1.1104 4.00443 10.7956 15.151
444 1 -1.1104 6.50111 5.33616 17.8554
451 1 -1.1104 6.74502 5.07972 14.9912
445 1 -1.1104 6.66761 11.0402 17.9621
466 1 -1.1104 3.87138 10.8877 20.6808
453 1 -1.1104 6.65367 10.7466 14.8504
464 1 -1.1104 4.0358 5.2996 20.6396
437 1 -1.1104 6.65848 7.97996 17.8281
439 1 -1.1104 1.06887 8.01331 20.6607
441 1 -1.1104 6.76825 7.94481 20.68
452 1 -1.1104 6.66068 5.16584 20.4743
450 1 -1.1104 0.961828 11.0031 20.6977
459 1 -1.1104 3.89353 8.0283 20.5503
558 1 -1.1104 9.33229 16.1871 26.3393
440 1 -1.1104 6.56055 7.85372 15.0058
454 1 -1.1104 6.71045 10.8117 20.4898
470 2 2.2208 10.8107 6.55131 16.4073
471 2 2.2208 10.9296 12.2176 16.4933
472 1 -1.1104 12.3315 7.93026 17.9773
473 1 -1.1104 12.2393 7.92484 15.075
475 1 -1.1104 12.1482 5.21702 17.8455
476 1 -1.1104 12.2822 10.731 17.7062
477 2 2.2208 10.9485 9.27722 19.2475
478 1 -1.1104 12.2779 5.14815 14.9231
480 1 -1.1104 12.3716 10.6938 15.003
482 1 -1.1104 9.36625 8.05339 17.7444
483 2 2.2208 8.11475 6.6469 19.2166
484 2 2.2208 8.06478 12.2941 19.1444
485 1 -1.1104 9.34902 8.07527 15.0921
487 2 2.2208 7.91529 9.48539 16.4209
488 1 -1.1104 9.37846 5.23952 17.6266
489 1 -1.1104 9.4446 10.7955 17.6972
490 1 -1.1104 9.56225 5.21118 14.8191
492 1 -1.1104 9.37346 10.6903 14.7789
486 1 -1.1104 9.48374 7.95599 20.5491
491 1 -1.1104 9.46137 5.02592 20.5766
474 1 -1.1104 12.4426 7.87773 20.8521
493 1 -1.1104 9.53181 10.7697 20.4545
481 1 -1.1104 12.2517 10.6228 20.6659
531 2 2.2208 8.17682 15.044 22.1247
592 2 2.2208 -0.448591 9.41515 19.1345
497 2 2.2208 5.26869 17.7839 16.3081
498 1 -1.1104 1.08376 13.7304 17.8356
499 1 -1.1104 0.805994 19.1607 17.9001
502 1 -1.1104 1.21194 13.4544 14.9316
504 1 -1.1104 1.10554 19.2192 15.069
510 1 -1.1104 1.05656 16.2845 17.8643
512 2 2.2208 5.28246 15.3754 19.2854
513 2 2.2208 5.24949 20.6106 19.3313
514 1 -1.1104 1.12299 16.2276 15.0159
518 1 -1.1104 3.72984 13.6727 17.5852
519 1 -1.1104 3.61604 19.1619 17.9111
520 2 2.2208 2.29635 17.7513 19.3925
521 1 -1.1104 4.01246 13.4294 15.0048
523 1 -1.1104 3.82791 19.242 15.1456
525 2 2.2208 2.46317 14.8758 16.3615
526 2 2.2208 2.58262 20.7205 16.5406
527 1 -1.1104 3.95748 16.4972 17.6456
528 1 -1.1104 3.87687 16.3827 14.8508
506 1 -1.1104 6.80183 13.7104 15.1505
511 1 -1.1104 6.72809 16.494 17.7783
515 1 -1.1104 1.08837 16.4691 20.7312
500 1 -1.1104 6.88331 13.7566 17.7773
516 1 -1.1104 6.66185 16.3463 14.8362
501 1 -1.1104 6.54123 19.2376 17.8136
503 1 -1.1104 0.959183 13.7606 20.5713
529 1 -1.1104 3.90264 16.5381 20.7318
522 1 -1.1104 3.59069 13.643 20.4297
505 1 -1.1104 1.33766 19.208 20.7807
496 1 -1.1104 9.45717 13.4816 26.2932
507 1 -1.1104 6.70828 13.6978 20.7961
524 1 -1.1104 3.93201 19.3322 21.081
508 1 -1.1104 6.54485 19.1726 15.052
509 1 -1.1104 6.5015 19.3024 20.7288
549 1 -1.1104 9.50207 13.5516 20.8077
533 2 2.2208 10.9804 17.8417 16.4285
534 1 -1.1104 12.3716 13.5578 17.9238
535 1 -1.1104 12.1855 19.2462 17.7557
536 1 -1.1104 12.466 13.551 15.0776
538 1 -1.1104 12.3201 19.0641 14.7767
540 1 -1.1104 12.3017 16.4618 17.9495
541 2 2.2208 10.9432 14.97 19.2295
542 2 2.2208 10.8331 20.7332 19.3057
543 1 -1.1104 12.3159 16.3407 15.1956
545 1 -1.1104 9.64896 13.6774 17.9615
546 1 -1.1104 9.45401 19.276 17.9137
547 2 2.2208 8.1147 17.6889 19.3002
548 1 -1.1104 9.74701 13.6212 15.1051
550 1 -1.1104 9.57612 19.36 15.0557
552 2 2.2208 8.13313 15.125 16.341
553 2 2.2208 8.01345 20.7818 16.3153
554 1 -1.1104 9.62172 16.3759 17.8226
555 1 -1.1104 9.6033 16.6508 15.0366
551 1 -1.1104 9.28821 19.0522 20.7571
539 1 -1.1104 12.1651 19.3414 20.7357
544 1 -1.1104 12.5347 16.6557 20.7965
586 2 2.2208 10.9907 17.8841 22.1257
338 2 2.2208 2.46864 -1.77663 27.7559
517 1 -1.1104 6.70446 16.5438 20.737
537 1 -1.1104 12.35 13.6532 20.682
556 1 -1.1104 9.71896 16.4769 20.6216
383 1 -1.1104 4.0021 -3.26048 20.6956
368 1 -1.1104 6.76744 -3.02269 20.533
397 2 2.2208 -0.340069 3.78659 19.3081
620 2 2.2208 13.5697 12.0067 19.406
561 2 2.2208 5.23494 1.01029 22.0899
562 1 -1.1104 1.01724 -3.27376 23.4147
563 1 -1.1104 1.23016 2.3345 23.512
566 1 -1.1104 1.16873 -3.2131 26.0909
567 1 -1.1104 1.08435 2.24673 26.2147
570 1 -1.1104 1.3032 -0.446553 23.4338
572 2 2.2208 5.38847 -1.95128 24.7143
574 1 -1.1104 1.14848 -0.479012 26.3613
576 1 -1.1104 3.96191 -3.2333 23.3782
577 1 -1.1104 4.01064 2.51193 23.5382
578 2 2.2208 2.48143 0.811986 24.9193
579 1 -1.1104 3.77402 -3.24081 26.2304
580 1 -1.1104 3.85208 2.38891 26.3222
581 2 2.2208 2.57186 -1.81621 22.0279
582 2 2.2208 2.70809 3.86 22.0909
583 1 -1.1104 3.96169 -0.400872 23.6326
584 1 -1.1104 3.96772 -0.430591 26.5047
573 2 2.2208 5.18614 3.85561 24.8544
571 1 -1.1104 6.61004 -0.309587 23.4247
564 1 -1.1104 6.67721 -3.33344 23.2779
565 1 -1.1104 6.67872 2.37548 23.4897
569 1 -1.1104 6.7746 2.35238 26.2906
568 1 -1.1104 6.75133 -3.25822 26.2508
557 1 -1.1104 9.67128 16.4605 23.3883
559 2 2.2208 -0.438688 17.9134 22.0659
353 2 2.2208 10.9197 17.7067 27.9147
431 1 -1.1104 12.4032 16.3996 23.438
395 2 2.2208 -0.374246 -1.70004 19.3674
575 1 -1.1104 6.7993 -0.440554 26.5309
8681 2 2.2208 -0.417609 -4.68498 22.064
597 2 2.2208 10.8972 0.984712 22.093
598 1 -1.1104 12.0685 -3.38686 23.4523
599 1 -1.1104 12.2776 2.24993 23.5756
600 1 -1.1104 12.2986 -3.16824 26.3055
601 1 -1.1104 12.2403 2.51326 26.2413
602 1 -1.1104 12.4197 -0.674185 23.4949
603 2 2.2208 10.9296 -1.91308 24.941
605 1 -1.1104 12.4203 -0.41684 26.3058
606 1 -1.1104 9.52806 -3.28545 23.199
607 1 -1.1104 9.53685 2.27176 23.4957
608 2 2.2208 8.14387 1.00065 24.948
609 1 -1.1104 9.47977 -3.36338 26.1037
610 1 -1.1104 9.39332 2.40037 26.3865
611 2 2.2208 8.20415 -1.84762 21.9466
612 2 2.2208 8.04649 3.66614 21.9826
613 1 -1.1104 9.537 -0.539827 23.4352
614 1 -1.1104 9.65497 -0.524107 26.2421
604 2 2.2208 10.8529 3.64877 24.8157
345 2 2.2208 8.15983 -1.94531 27.705
350 2 2.2208 2.36819 9.44368 27.6207
9188 2 2.2208 -0.296807 6.58375 27.6902
9257 2 2.2208 -0.178366 15.159 24.9228
594 2 2.2208 -0.217679 -1.87025 24.8613
618 2 2.2208 -0.142641 12.2382 16.4538
448 1 -1.1104 1.03294 5.10505 20.8207
626 2 2.2208 5.19656 6.58892 22.108
627 2 2.2208 5.25921 12.3731 21.9569
628 1 -1.1104 1.07671 8.01841 23.5918
630 1 -1.1104 1.07374 8.01588 26.2701
632 1 -1.1104 1.02544 5.15881 23.6774
633 1 -1.1104 1.16852 10.8675 23.5473
636 2 2.2208 5.32475 9.49334 24.771
637 1 -1.1104 1.05496 5.18741 26.2847
638 1 -1.1104 1.00732 10.9105 26.1859
641 1 -1.1104 3.81851 8.04789 23.3297
642 2 2.2208 2.41415 6.6787 24.9374
643 2 2.2208 2.39299 12.3671 24.9906
644 1 -1.1104 3.94284 7.94858 26.3007
645 2 2.2208 2.49819 9.49094 21.95
646 1 -1.1104 3.95459 5.26096 23.5142
647 1 -1.1104 3.93923 10.9728 23.4216
648 1 -1.1104 3.79829 5.19963 26.2774
649 1 -1.1104 3.67824 10.9819 26.2151
634 1 -1.1104 6.69703 5.32581 23.3443
635 1 -1.1104 6.70002 10.925 23.4703
335 2 2.2208 7.92363 17.8845 13.4924
596 2 2.2208 -0.238416 3.63797 24.872
640 1 -1.1104 6.66131 10.7917 26.3956
631 1 -1.1104 6.7462 7.89684 26.2736
679 1 -1.1104 6.82087 19.3011 23.6811
479 1 -1.1104 12.1609 5.00805 20.6466
593 2 2.2208 13.8417 14.9462 22.0459
344 2 2.2208 10.8912 1.04004 27.6909
629 1 -1.1104 6.52311 8.15027 23.4196
639 1 -1.1104 6.87418 5.17502 26.2981
657 1 -1.1104 9.44408 10.7835 26.2737
658 1 -1.1104 9.57346 5.25949 26.392
659 1 -1.1104 9.52297 10.7466 23.5736
660 1 -1.1104 9.46785 5.21256 23.6021
661 2 2.2208 8.04317 9.33213 21.9631
662 1 -1.1104 9.53257 8.03137 26.1571
663 2 2.2208 8.01834 12.1083 24.7965
664 2 2.2208 8.07617 6.66842 24.7786
665 2 2.2208 10.9011 6.38548 22.0085
666 2 2.2208 10.8945 12.0794 22.0894
667 1 -1.1104 12.1087 7.73918 23.6026
668 1 -1.1104 12.2837 8.00226 26.2899
669 1 -1.1104 12.2495 4.92316 23.4746
670 1 -1.1104 12.3396 10.728 23.4807
671 2 2.2208 10.9196 9.34775 24.8213
672 1 -1.1104 12.4781 5.32884 26.385
673 1 -1.1104 12.3229 10.5754 26.4009
674 1 -1.1104 9.40657 7.82856 23.3061
653 2 2.2208 13.7176 20.5993 22.0958
355 2 2.2208 8.11041 9.27784 27.6379
8461 2 2.2208 10.9823 -4.72501 27.6258
349 2 2.2208 5.43382 6.43247 27.7147
9250 2 2.2208 -0.380782 20.6699 24.9542
337 2 2.2208 5.36099 0.972763 27.7487
587 2 2.2208 2.43568 15.0723 22.1125
590 2 2.2208 2.55865 20.7047 22.0991
615 1 -1.1104 3.74417 16.4108 23.6533
616 1 -1.1104 1.03954 16.7035 23.398
619 1 -1.1104 3.77049 13.7448 26.2729
622 1 -1.1104 3.94707 16.6849 26.3068
650 2 2.2208 2.52848 17.9611 24.8499
651 1 -1.1104 3.78323 19.3925 26.5453
652 2 2.2208 5.31325 17.8606 22.3673
654 1 -1.1104 1.12481 13.7209 23.4718
656 1 -1.1104 1.04099 19.2771 23.5704
676 2 2.2208 5.29126 15.0954 24.955
677 2 2.2208 5.33996 20.6726 24.9649
681 1 -1.1104 3.95786 19.1157 23.7407
683 1 -1.1104 3.971 13.6871 23.5411
685 1 -1.1104 1.07827 19.1694 26.4368
686 1 -1.1104 1.04469 16.5047 26.5088
687 1 -1.1104 1.0492 13.6866 26.3263
682 1 -1.1104 6.60595 13.7685 26.381
684 1 -1.1104 6.63236 16.4913 26.3002
623 2 2.2208 13.7488 -1.72445 22.0356
530 1 -1.1104 9.5889 19.3312 26.2861
617 1 -1.1104 6.6391 16.6048 23.6364
467 1 -1.1104 12.1359 16.2476 26.4441
468 1 -1.1104 9.34621 13.5775 23.5101
675 1 -1.1104 6.57482 13.6864 23.5944
494 2 2.2208 8.13497 17.7212 24.9738
432 2 2.2208 10.939 14.9759 24.9521
495 1 -1.1104 6.67991 19.2983 26.2511
400 1 -1.1104 12.3622 13.6167 26.2681
433 2 2.2208 10.9378 20.5685 24.7702
585 1 -1.1104 12.3171 13.462 23.3838
532 2 2.2208 7.99442 20.554 22.0597
560 1 -1.1104 12.4525 19.2185 23.6289
394 2 2.2208 -0.325525 1.03194 16.5116
347 2 2.2208 13.7403 12.0937 13.72
357 2 2.2208 8.07502 20.7526 27.6107
8467 2 2.2208 -0.23594 -4.67986 27.5928
354 2 2.2208 10.9695 6.61613 27.6575
334 2 2.2208 11.0176 15.1521 13.7898
339 2 2.2208 2.44485 3.90639 27.6418
346 2 2.2208 8.18804 3.77976 27.6776
8465 2 2.2208 5.2034 -4.70496 27.5524
313 2 2.2208 -0.377621 20.5293 13.7302
317 2 2.2208 2.36047 1.03868 13.7109
342 2 2.2208 2.36364 20.6108 27.8326
356 2 2.2208 10.9876 12.0896 27.5358
322 2 2.2208 10.7299 -1.73696 13.6379
688 2 2.2208 5.11508 23.5076 5.31417
689 2 2.2208 5.13466 29.1272 5.12101
690 1 -1.1104 1.12301 24.8634 0.865571
691 1 -1.1104 0.854272 24.8306 3.78031
692 1 -1.1104 0.986648 21.9296 1.08196
693 1 -1.1104 1.13817 27.9001 1.02279
694 2 2.2208 5.37166 26.2829 2.35978
695 1 -1.1104 1.00209 22.0095 3.78914
696 1 -1.1104 1.01921 27.7348 3.66865
697 1 -1.1104 3.97517 25.0585 0.902779
698 2 2.2208 2.41832 23.5232 2.39701
699 2 2.2208 2.49566 29.2075 2.30478
700 1 -1.1104 3.85881 24.9447 3.86615
701 2 2.2208 2.23306 26.3284 5.29541
702 1 -1.1104 4.02468 22.0861 1.07852
703 1 -1.1104 3.91446 27.7263 0.959692
704 1 -1.1104 3.69964 22.3655 3.9901
705 1 -1.1104 3.89414 27.7683 3.60631
836 1 -1.1104 3.74132 21.9994 6.57949
712 1 -1.1104 6.75545 27.5427 0.859211
831 1 -1.1104 1.11745 22.1696 6.49094
9852 2 2.2208 13.5115 45.9477 2.25215
835 1 -1.1104 3.68113 24.8666 6.66285
837 1 -1.1104 3.75657 27.8982 6.53376
829 1 -1.1104 1.01581 24.9553 6.68292
1526 1 -1.1104 0.993225 47.2648 12.1131
9868 2 2.2208 13.6494 34.675 13.7038
10238 1 -1.1104 12.269 47.4804 0.686999
711 1 -1.1104 6.81277 22.0011 1.10652
713 1 -1.1104 6.62159 22.0753 3.94609
714 1 -1.1104 6.83844 27.8212 3.8633
709 1 -1.1104 6.83291 24.8002 1.00299
710 1 -1.1104 6.61837 24.9273 3.85496
715 2 2.2208 10.9664 23.3247 5.25743
716 2 2.2208 11.0486 29.0877 5.02056
717 1 -1.1104 12.3564 24.8174 1.07175
718 1 -1.1104 12.3399 24.685 3.65444
719 1 -1.1104 12.484 22.0094 0.75648
720 1 -1.1104 12.4943 27.7118 1.19172
721 2 2.2208 10.9461 26.1266 2.45931
722 1 -1.1104 12.2446 21.9993 3.68175
723 1 -1.1104 12.3556 27.6725 3.7822
724 1 -1.1104 9.64342 24.6717 0.993699
725 2 2.2208 8.17653 23.4218 2.4251
726 2 2.2208 8.21379 28.8781 2.42647
727 1 -1.1104 9.47308 24.9671 3.81754
728 2 2.2208 8.25843 26.4654 5.15585
729 1 -1.1104 9.54519 21.7983 0.953919
730 1 -1.1104 9.64629 27.4378 0.88999
731 1 -1.1104 9.47973 21.9275 3.68552
732 1 -1.1104 9.71492 27.6765 3.81609
864 1 -1.1104 12.308 27.5936 6.53971
833 1 -1.1104 6.73209 22.0708 6.66638
862 1 -1.1104 12.2826 24.7738 6.55477
866 1 -1.1104 9.59439 22.0621 6.60723
867 1 -1.1104 9.49384 27.8101 6.43275
830 1 -1.1104 6.56939 24.8769 6.67114
834 1 -1.1104 6.50729 27.6209 6.54951
865 1 -1.1104 9.37176 24.9397 6.67607
863 1 -1.1104 12.54 22.0275 6.52566
1009 2 2.2208 8.0111 40.2836 13.6588
736 2 2.2208 5.11627 34.6314 5.08789
737 1 -1.1104 0.92682 30.6807 0.918219
738 1 -1.1104 1.00944 36.4044 0.987775
740 1 -1.1104 1.06103 30.5546 3.83091
741 1 -1.1104 0.775988 36.2421 3.74157
743 1 -1.1104 0.972999 33.3826 1.11406
744 2 2.2208 5.18424 31.8099 2.30392
745 2 2.2208 5.34873 37.5475 2.35005
746 1 -1.1104 1.04768 33.4443 3.79993
748 1 -1.1104 3.94521 30.4892 0.820722
749 1 -1.1104 3.67034 36.0183 0.735722
750 2 2.2208 2.37783 34.7518 2.41378
751 1 -1.1104 3.84588 30.5716 3.86787
752 1 -1.1104 3.83586 36.0638 3.5308
753 2 2.2208 2.32591 31.9812 5.2207
754 2 2.2208 2.34793 37.5002 5.13764
755 1 -1.1104 3.74082 33.386 0.974881
756 1 -1.1104 3.9204 33.2464 3.64166
747 1 -1.1104 6.57598 33.1816 3.65645
739 1 -1.1104 6.48373 36.1122 1.03368
9840 2 2.2208 -0.374631 23.5366 5.1819
9865 2 2.2208 -0.42905 26.2782 13.6017
9794 2 2.2208 13.6529 40.2484 8.04394
894 1 -1.1104 3.88246 33.324 6.79142
887 1 -1.1104 1.10696 36.2022 6.55024
893 1 -1.1104 3.78918 36.0691 6.55249
1004 2 2.2208 2.46661 40.2649 13.4673
997 2 2.2208 5.21531 37.5401 13.5881
1005 2 2.2208 2.5329 45.9059 13.605
742 1 -1.1104 6.41791 36.1645 3.77704
760 1 -1.1104 6.87575 30.3518 0.980377
761 1 -1.1104 6.68891 30.4277 3.67013
762 1 -1.1104 6.56779 33.1153 0.960387
763 2 2.2208 10.6795 34.7402 5.17943
764 1 -1.1104 12.3135 30.5969 0.893154
765 1 -1.1104 12.1308 36.2607 0.969656
766 1 -1.1104 12.4367 30.5861 3.77386
767 1 -1.1104 12.1196 36.1234 3.72004
768 1 -1.1104 12.2402 33.433 0.972583