ITEM: TIMESTEP
70000
ITEM: NUMBER OF ATOMS
17910
ITEM: BOX BOUNDS pp pp pp
-3.9222479783135705e-01 2.7732224797832000e+01
-4.7930036617811824e+00 3.3287300366178420e+02
-4.1328889032768173e-01 2.7753288890327376e+01
ITEM: ATOMS id type q x y z
1 2 2.2208 5.36546 0.908691 5.38646
2 1 -1.1104 1.13768 -3.51795 0.981497
3 1 -1.1104 1.06783 2.2961 1.18577
6 1 -1.1104 1.05822 -3.34294 3.83866
7 1 -1.1104 1.25407 2.16366 3.97808
10 1 -1.1104 1.00089 -0.566785 1.14252
12 2 2.2208 5.30271 -1.95444 2.40734
14 1 -1.1104 1.15236 -0.506677 3.87572
16 1 -1.1104 4.01945 -3.49795 1.13969
17 1 -1.1104 4.04311 2.10027 1.22502
18 2 2.2208 2.58299 0.738154 2.5353
19 1 -1.1104 3.69631 -3.57905 3.87794
20 1 -1.1104 4.06565 2.07536 3.90691
21 2 2.2208 2.48361 -1.83293 5.37761
23 1 -1.1104 3.82033 -0.642399 1.13665
24 1 -1.1104 3.97601 -0.77232 3.76481
22 2 2.2208 2.59965 3.71853 5.25444
11 1 -1.1104 6.4438 -0.237047 1.3499
13 2 2.2208 5.36722 3.60823 2.43148
166 1 -1.1104 1.04761 -3.13769 6.58765
204 1 -1.1104 9.45966 16.3858 12.1839
82 1 -1.1104 12.3337 19.3304 9.45775
4 1 -1.1104 6.88267 -3.39778 1.22137
5 1 -1.1104 6.74907 2.47375 0.867138
15 1 -1.1104 6.91229 -0.396424 4.02718
8 1 -1.1104 6.55352 -3.15588 3.91012
9 1 -1.1104 6.80928 2.35726 4.09773
31 2 2.2208 10.8201 0.786394 5.51621
32 1 -1.1104 12.4124 -3.39221 1.29573
33 1 -1.1104 12.4103 2.24887 0.977868
34 1 -1.1104 12.0897 -3.48437 3.94479
35 1 -1.1104 12.4944 2.39858 3.95655
36 1 -1.1104 12.1974 -0.573293 1.12241
37 2 2.2208 10.909 -2.02609 2.51715
39 1 -1.1104 12.2939 -0.550725 3.96612
40 1 -1.1104 9.62655 -3.32006 1.05544
41 1 -1.1104 9.60577 2.32922 1.25005
42 2 2.2208 8.19871 0.86434 2.69414
43 1 -1.1104 9.32503 -3.41782 3.99886
44 1 -1.1104 9.71594 2.22084 4.03227
45 2 2.2208 8.11766 -2.02217 5.3431
46 2 2.2208 8.2138 3.82665 5.49101
47 1 -1.1104 9.26832 -0.408651 1.08817
48 1 -1.1104 9.60112 -0.653198 4.04639
38 2 2.2208 10.9948 3.7246 2.65514
210 1 -1.1104 9.39703 -0.671723 6.89052
206 1 -1.1104 12.2583 2.20641 6.705
229 2 2.2208 13.5685 0.732591 8.13316
54 2 2.2208 5.26755 6.35415 5.3433
55 2 2.2208 5.1386 12.0221 5.39616
56 1 -1.1104 1.10464 7.85986 1.16245
58 1 -1.1104 1.11525 7.82176 3.98331
60 1 -1.1104 1.22853 5.00364 1.15033
61 1 -1.1104 0.854882 10.7731 1.19687
66 2 2.2208 5.26726 9.29011 2.57808
67 1 -1.1104 1.13455 4.79878 4.04101
68 1 -1.1104 0.967794 10.6677 3.97023
71 1 -1.1104 3.79926 7.8372 1.15809
72 2 2.2208 2.64619 6.37131 2.51586
73 2 2.2208 2.41287 12.1841 2.45413
74 1 -1.1104 3.81148 7.78941 3.93258
75 2 2.2208 2.42262 9.30885 5.24431
76 1 -1.1104 3.9506 4.8758 0.925328
77 1 -1.1104 3.71653 10.7283 1.20317
79 1 -1.1104 4.03707 5.02346 3.91836
80 1 -1.1104 3.76866 10.6761 3.90432
70 1 -1.1104 6.56015 10.589 4.02641
234 1 -1.1104 1.11691 8.06735 6.80591
64 1 -1.1104 6.61531 10.5807 1.28386
236 1 -1.1104 1.19902 5.03984 6.68245
239 1 -1.1104 3.9352 5.28193 6.73926
237 1 -1.1104 6.74686 5.15067 6.75489
9093 2 2.2208 13.5294 12.0444 7.9749
28 2 2.2208 13.5525 20.7223 10.9653
59 1 -1.1104 6.60223 7.95594 3.86988
69 1 -1.1104 6.77179 5.0997 4.04505
63 1 -1.1104 6.64661 5.16115 1.39624
57 1 -1.1104 6.79831 7.87198 1.1255
235 1 -1.1104 6.79801 7.73452 6.75097
65 1 -1.1104 6.7006 10.7034 6.69178
84 2 2.2208 10.9978 6.53916 5.26398
85 2 2.2208 10.7766 12.2182 5.12865
86 1 -1.1104 12.2142 8.15125 1.26583
87 1 -1.1104 12.1425 7.92752 4.03164
88 1 -1.1104 12.4827 5.15277 1.19692
89 1 -1.1104 12.2102 10.8845 1.14528
91 2 2.2208 10.7004 9.56933 2.32885
92 1 -1.1104 12.4332 5.2047 4.01339
93 1 -1.1104 12.0104 10.9933 3.81788
94 1 -1.1104 9.50465 8.0589 1.13741
95 2 2.2208 8.1509 6.56143 2.49031
96 2 2.2208 7.93607 12.1926 2.56692
97 1 -1.1104 9.39766 8.01913 3.9319
98 2 2.2208 8.03768 9.28842 5.36998
99 1 -1.1104 9.60291 5.21833 1.12424
100 1 -1.1104 9.21476 10.6746 1.0743
102 1 -1.1104 9.61495 5.05324 3.81817
103 1 -1.1104 9.2861 10.8825 3.88767
269 1 -1.1104 9.49326 5.11 6.87276
90 1 -1.1104 12.3383 10.6194 6.67302
101 1 -1.1104 9.58815 10.8081 6.72532
266 1 -1.1104 12.2788 5.02103 6.67479
265 1 -1.1104 12.3652 7.93146 6.76866
9180 2 2.2208 -0.329441 9.28562 2.45757
9041 2 2.2208 -0.289702 20.6041 2.36543
9179 2 2.2208 -0.208452 6.49807 5.24208
355 2 2.2208 8.05865 9.30317 -0.261715
106 2 2.2208 5.19589 17.7427 5.13834
107 1 -1.1104 1.11665 13.6519 1.03489
109 1 -1.1104 0.876137 19.0535 1.18209
113 1 -1.1104 0.886966 13.5361 3.80795
114 1 -1.1104 1.02707 19.1488 3.85481
116 1 -1.1104 1.08524 16.4403 1.02278
119 2 2.2208 5.2147 14.8985 2.37367
120 2 2.2208 5.31299 20.6232 2.39388
121 1 -1.1104 1.15715 16.2178 3.7001
123 1 -1.1104 3.82926 13.509 0.906689
125 1 -1.1104 3.73729 19.0938 0.995157
127 2 2.2208 2.46144 17.7744 2.38006
128 1 -1.1104 3.72836 13.5221 3.83017
129 1 -1.1104 3.98559 19.4075 3.75851
130 2 2.2208 2.45897 14.8648 5.09362
131 2 2.2208 2.54233 20.5895 5.178
132 1 -1.1104 3.86818 16.2224 1.19693
134 1 -1.1104 3.81355 16.4252 3.90627
108 1 -1.1104 0.971161 13.4153 6.61969
140 1 -1.1104 6.8081 16.1307 0.968974
115 1 -1.1104 6.46194 13.6039 3.72575
112 1 -1.1104 6.6343 19.2498 6.64143
138 1 -1.1104 6.5888 19.2218 0.924849
122 1 -1.1104 6.64938 16.3213 3.79495
124 1 -1.1104 3.82321 13.488 6.86322
133 1 -1.1104 3.6538 16.2782 6.67353
111 1 -1.1104 6.57188 13.3205 6.60254
110 1 -1.1104 6.75975 13.418 0.81484
139 1 -1.1104 6.70837 19.0848 3.74969
118 1 -1.1104 6.51887 16.2734 6.78272
117 1 -1.1104 1.08477 16.3069 6.57431
201 2 2.2208 -0.312785 0.861379 11.0223
9181 2 2.2208 -0.39005 12.0371 5.26361
143 1 -1.1104 12.2365 13.4197 6.5598
141 2 2.2208 10.7737 17.8926 5.26971
142 1 -1.1104 12.362 13.7223 0.979766
144 1 -1.1104 12.3612 19.2608 1.10177
146 1 -1.1104 12.2849 13.6938 3.82883
147 1 -1.1104 12.4425 19.1697 3.99954
148 1 -1.1104 12.2014 16.4464 1.22848
150 2 2.2208 10.7901 15.046 2.43149
151 2 2.2208 10.9631 20.5254 2.57182
152 1 -1.1104 12.0299 16.4379 3.97626
153 1 -1.1104 9.5039 13.4464 0.911437
155 1 -1.1104 9.47029 19.2058 1.08164
157 2 2.2208 8.09949 17.7933 2.3927
158 1 -1.1104 9.42341 13.6514 3.88616
159 1 -1.1104 9.55656 19.2719 3.87373
160 2 2.2208 7.97358 14.8491 5.18874
161 2 2.2208 8.09187 20.6068 5.20652
162 1 -1.1104 9.49429 16.3857 0.89077
164 1 -1.1104 9.24721 16.4979 3.88055
149 1 -1.1104 12.2699 16.3174 6.72046
145 1 -1.1104 12.1739 19.0123 6.71804
154 1 -1.1104 9.35311 13.5925 6.78578
9176 2 2.2208 13.5975 17.7492 8.00606
233 2 2.2208 -0.23308 17.5966 10.9393
8453 2 2.2208 5.24347 -4.76125 10.9765
167 1 -1.1104 1.32683 2.42469 6.94941
9110 2 2.2208 -0.398714 9.42654 8.13932
354 2 2.2208 11.0501 6.61396 -0.173705
172 1 -1.1104 3.73532 -3.2956 6.54388
174 1 -1.1104 3.82274 -0.410448 6.62743
170 1 -1.1104 1.14593 -0.416277 6.68158
173 1 -1.1104 3.90917 2.32795 6.60987
175 2 2.2208 5.27777 0.783294 10.8988
176 1 -1.1104 1.09712 -3.47572 12.1504
177 1 -1.1104 1.02687 2.3625 12.2683
180 1 -1.1104 1.01175 -3.51192 9.3829
181 1 -1.1104 1.11015 2.25274 9.67317
184 1 -1.1104 1.1719 -0.599782 12.4063
186 2 2.2208 5.29897 -1.96976 8.15141
187 2 2.2208 5.22559 3.68092 8.03668
188 1 -1.1104 1.04123 -0.743528 9.5698
190 1 -1.1104 3.78487 -3.46718 12.2814
191 1 -1.1104 3.75745 2.1196 12.6426
192 2 2.2208 2.42138 0.952051 8.23912
193 1 -1.1104 3.86702 -3.45916 9.43188
194 1 -1.1104 3.82156 2.26245 9.47452
195 2 2.2208 2.29256 -2.05662 10.9027
197 1 -1.1104 3.81201 -0.714218 12.3611
198 1 -1.1104 3.68386 -0.476443 9.66085
196 2 2.2208 2.60736 3.73654 11.0103
183 1 -1.1104 6.52261 2.17896 9.48568
189 1 -1.1104 6.55711 -0.513843 9.67557
185 1 -1.1104 6.75722 -0.419172 12.3965
8455 2 2.2208 8.11539 -4.82293 8.2412
341 2 2.2208 5.29131 17.6553 -0.412516
169 1 -1.1104 6.66145 2.44746 6.86881
168 1 -1.1104 6.8474 -3.39546 6.83126
207 1 -1.1104 12.1454 -0.585088 6.77814
209 1 -1.1104 9.67815 2.11361 6.91828
205 1 -1.1104 12.3011 -3.58328 6.54185
171 1 -1.1104 6.60333 -0.533264 6.83454
179 1 -1.1104 6.57453 2.17617 12.4888
178 1 -1.1104 6.49614 -3.33612 12.2625
208 1 -1.1104 9.59851 -3.44615 6.61931
339 2 2.2208 2.53282 3.72232 -0.361271
182 1 -1.1104 6.83636 -3.28514 9.58646
211 2 2.2208 10.745 0.831331 11.0542
212 1 -1.1104 12.4015 -3.30948 12.0566
213 1 -1.1104 12.3378 2.02852 12.2956
214 1 -1.1104 12.391 -3.47031 9.39039
215 1 -1.1104 11.9871 2.15044 9.45344
216 1 -1.1104 12.3189 -0.680783 12.2877
217 2 2.2208 10.8618 -2.01692 8.07779
219 1 -1.1104 12.1994 -0.52323 9.60782
220 1 -1.1104 9.55105 -3.4469 12.4024
221 1 -1.1104 9.55998 2.21711 12.5745
222 2 2.2208 7.968 0.833071 8.31591
223 1 -1.1104 9.42008 -3.50927 9.60243
224 1 -1.1104 9.2839 2.232 9.64436
225 2 2.2208 8.09227 -1.99531 11.0704
226 2 2.2208 7.89785 3.52552 11.0204
227 1 -1.1104 9.44583 -0.511179 12.4208
228 1 -1.1104 9.47263 -0.536774 9.62066
218 2 2.2208 10.8572 3.56161 8.23133
8883 2 2.2208 -0.344222 20.4894 8.16222
356 2 2.2208 10.9173 12.1829 -0.31338
9177 2 2.2208 -0.238923 3.78237 2.54202
62 1 -1.1104 0.890444 10.7212 6.68569
238 1 -1.1104 3.99554 7.95237 6.72219
78 1 -1.1104 3.9055 10.6661 6.81575
83 1 -1.1104 12.3874 16.4497 12.2199
240 2 2.2208 5.20092 6.39175 10.8404
241 2 2.2208 5.28625 12.0209 10.934
242 1 -1.1104 1.20791 7.87481 12.3609
244 1 -1.1104 0.776864 7.8465 9.55705
246 1 -1.1104 1.11265 5.01876 12.3271
247 1 -1.1104 0.918546 10.7058 12.3802
250 2 2.2208 5.28971 9.10289 8.19793
251 1 -1.1104 1.23992 4.98994 9.77219
252 1 -1.1104 1.09967 10.6504 9.4829
255 1 -1.1104 3.83157 7.85635 12.5771
256 2 2.2208 2.38793 6.41543 8.04888
257 2 2.2208 2.3896 11.9202 8.13545
258 1 -1.1104 3.73729 7.89028 9.6545
259 2 2.2208 2.40714 9.2085 10.8405
260 1 -1.1104 3.92801 4.9986 12.4281
261 1 -1.1104 3.79818 10.5965 12.2713
262 1 -1.1104 3.98639 5.18165 9.58048
263 1 -1.1104 3.86502 10.6064 9.63277
248 1 -1.1104 6.50825 4.94121 12.394
249 1 -1.1104 6.8265 10.6659 12.3372
253 1 -1.1104 6.73733 5.08133 9.45458
104 2 2.2208 10.7425 15.0332 7.92715
199 2 2.2208 -0.257314 3.55816 8.23439
165 2 2.2208 8.08437 17.7286 7.98994
267 1 -1.1104 9.62326 7.71052 6.67483
26 2 2.2208 10.7725 17.7703 11.0075
243 1 -1.1104 6.73417 7.91815 12.4657
254 1 -1.1104 6.73976 10.5133 9.3498
245 1 -1.1104 6.70707 7.79324 9.72715
345 2 2.2208 8.05311 -1.87701 -0.243388
264 1 -1.1104 9.59397 10.8201 9.42906
268 1 -1.1104 9.46659 4.87652 9.69188
270 1 -1.1104 9.62513 10.9298 12.3254
271 1 -1.1104 9.36298 4.97631 12.6276
272 2 2.2208 8.15063 9.37323 10.94
273 1 -1.1104 9.45419 7.97381 9.46957
274 2 2.2208 8.02072 12.0138 8.08668
275 2 2.2208 8.24363 6.32549 8.22881
276 2 2.2208 10.9208 6.50761 10.9404
277 2 2.2208 10.9343 12.2062 10.7746
278 1 -1.1104 12.2991 8.00835 12.322
279 1 -1.1104 12.4394 7.95868 9.4237
280 1 -1.1104 12.2335 5.06434 12.4567
281 1 -1.1104 12.3659 10.6079 12.6323
282 2 2.2208 11.0349 9.26564 8.14771
283 1 -1.1104 12.416 5.055 9.45098
284 1 -1.1104 12.3425 10.7692 9.60969
285 1 -1.1104 9.58426 7.83263 12.3948
8446 2 2.2208 2.50827 -4.73643 2.52093
329 2 2.2208 8.03392 12.1515 13.5857
203 2 2.2208 8.04816 20.6049 10.9582
302 1 -1.1104 1.08266 18.9764 6.73518
105 2 2.2208 10.7378 20.732 8.09601
288 1 -1.1104 6.75556 19.0076 9.41583
126 1 -1.1104 3.8153 19.0687 6.68537
296 1 -1.1104 6.48596 19.0929 12.3859
289 1 -1.1104 6.47802 16.1 9.50595
286 1 -1.1104 3.77902 19.1886 12.3208
287 1 -1.1104 4.00626 13.4045 12.516
291 1 -1.1104 0.916653 19.2358 9.59768
292 1 -1.1104 0.956121 16.1842 9.70974
293 2 2.2208 5.42099 20.6759 8.10093
294 1 -1.1104 0.870911 13.6108 9.74722
295 2 2.2208 5.08397 14.889 8.06946
298 1 -1.1104 1.04227 19.2863 12.3063
299 1 -1.1104 1.14279 13.5411 12.5772
300 2 2.2208 5.39708 17.568 10.7903
301 1 -1.1104 4.09141 19.2329 9.44592
303 2 2.2208 2.53751 17.8288 8.08912
304 1 -1.1104 3.81626 16.396 9.50671
305 1 -1.1104 3.72966 13.5419 9.59936
307 1 -1.1104 1.26071 16.385 12.3304
308 1 -1.1104 3.95195 16.3747 12.1778
309 2 2.2208 2.53412 20.4407 10.9014
310 2 2.2208 2.49027 14.8959 11.1109
27 1 -1.1104 12.372 13.483 12.1245
306 1 -1.1104 6.78213 16.3592 12.2914
290 1 -1.1104 6.48885 13.2829 9.3692
156 1 -1.1104 9.39546 19.2075 6.655
163 1 -1.1104 9.43262 16.3598 6.52819
81 1 -1.1104 12.1251 13.5123 9.26971
311 1 -1.1104 9.35271 13.6271 9.41015
231 1 -1.1104 9.50507 16.2965 9.43962
137 1 -1.1104 9.45371 19.2089 12.3078
49 1 -1.1104 12.1826 19.0768 12.226
202 2 2.2208 8.09589 14.8649 10.712
136 1 -1.1104 9.5801 13.4832 12.2077
9174 2 2.2208 -0.311065 -2.06926 2.37156
135 1 -1.1104 12.4161 16.5466 9.51828
297 1 -1.1104 6.83675 13.4795 12.18
30 2 2.2208 -0.341125 12.0787 11.0075
232 1 -1.1104 9.37523 18.9239 9.54179
29 2 2.2208 -0.30516 6.33336 10.955
346 2 2.2208 8.11479 3.80057 -0.248006
9175 2 2.2208 -0.106667 0.937934 5.3303
9042 2 2.2208 -0.376321 14.8984 2.42146
8447 2 2.2208 5.16823 -4.77462 5.24816
8882 2 2.2208 -0.317647 14.889 8.10752
344 2 2.2208 10.7989 0.942119 -0.251862
8909 2 2.2208 -0.316851 17.7098 5.20728
9178 2 2.2208 13.6651 0.973879 2.40249
8979 2 2.2208 13.4953 14.9318 5.19883
342 2 2.2208 2.5083 20.474 -0.373396
9188 2 2.2208 -0.139125 6.57698 -0.294679
338 2 2.2208 2.40656 -2.02458 -0.369629
8910 2 2.2208 13.5632 9.27276 5.21409
357 2 2.2208 8.06333 20.6947 -0.336998
349 2 2.2208 5.42206 6.62587 -0.132642
8448 2 2.2208 -0.20814 -4.77885 5.3663
9208 2 2.2208 13.614 20.6677 -0.299177
200 2 2.2208 -0.246799 -1.99997 8.10923
9209 2 2.2208 13.6203 15.198 -0.197763
322 2 2.2208 10.781 -1.97104 13.5907
340 2 2.2208 2.30544 14.7968 -0.371225
350 2 2.2208 2.54823 9.30731 -0.233796
334 2 2.2208 11.0279 15.0088 13.4827
335 2 2.2208 8.02607 17.8666 13.5819
337 2 2.2208 5.33469 0.93627 -0.362698
9182 2 2.2208 -0.304647 17.7349 -0.302593
313 2 2.2208 -0.252439 20.4874 13.6432
358 2 2.2208 5.27128 0.816897 16.8585
359 1 -1.1104 1.16387 -3.47887 18.0117
360 1 -1.1104 1.06808 2.37055 18.0964
363 1 -1.1104 1.21608 -3.52981 15.1164
365 1 -1.1104 1.01791 2.22895 15.227
371 1 -1.1104 1.08751 -0.386696 18.0635
373 2 2.2208 5.34962 -2.13751 19.2989
375 1 -1.1104 0.996326 -0.729503 15.3674
379 1 -1.1104 3.88425 -3.48332 17.8177
380 1 -1.1104 3.94424 2.28142 18.1473
381 2 2.2208 2.50389 0.794108 19.471
382 1 -1.1104 3.79739 -3.51229 15.2179
384 1 -1.1104 3.59916 2.11885 15.2439
386 2 2.2208 2.50093 -2.03988 16.6162
388 1 -1.1104 4.01958 -0.763603 17.8461
389 1 -1.1104 3.88571 -0.622866 15.1464
387 2 2.2208 2.466 3.67929 16.7414
374 2 2.2208 5.27413 3.79955 19.5265
364 1 -1.1104 1.37897 -3.44957 20.7826
367 1 -1.1104 6.66504 -3.38465 14.8113
362 1 -1.1104 6.68214 2.40477 18.1072
369 1 -1.1104 6.68896 2.20802 15.4215
425 1 -1.1104 12.4454 19.4216 26.3879
378 1 -1.1104 6.6488 -0.667776 20.7738
391 2 2.2208 -0.280778 6.38419 22.1774
366 1 -1.1104 1.02167 2.12271 20.9439
655 2 2.2208 -0.354021 12.2214 22.1513
321 2 2.2208 8.05867 0.89709 13.9274
317 2 2.2208 2.37552 0.632275 13.8343
372 1 -1.1104 6.86188 -0.465834 17.9842
377 1 -1.1104 6.66267 -0.425888 15.141
370 1 -1.1104 6.74233 2.23761 20.9491
316 2 2.2208 5.24019 -1.92356 13.7421
361 1 -1.1104 6.74281 -3.50007 17.798
401 2 2.2208 10.9149 0.907763 16.6014
402 1 -1.1104 12.2652 -3.2738 17.8513
403 1 -1.1104 12.3827 2.34665 18.0049
404 1 -1.1104 12.2559 -3.55926 14.9585
406 1 -1.1104 12.3731 2.13198 15.3395
408 1 -1.1104 12.4576 -0.546225 17.9565
409 2 2.2208 10.9276 -2.04033 19.3823
410 2 2.2208 10.8951 3.71227 19.4332
411 1 -1.1104 12.2645 -0.69592 15.19
413 1 -1.1104 9.5973 -3.37493 18.0739
414 1 -1.1104 9.44632 2.32805 17.9742
415 2 2.2208 8.09495 1.0936 19.293
416 1 -1.1104 9.40067 -3.20985 15.1887
418 1 -1.1104 9.41075 2.24066 15.4061
420 2 2.2208 8.08747 -1.8596 16.6287
421 2 2.2208 7.9715 3.72398 16.6005
422 1 -1.1104 9.46676 -0.802582 18.168
423 1 -1.1104 9.32488 -0.440432 15.2839
419 1 -1.1104 9.51737 2.4417 20.7219
407 1 -1.1104 12.481 2.31357 20.632
424 1 -1.1104 9.56343 -0.301972 20.8902
532 2 2.2208 8.07053 20.6889 22.1437
412 1 -1.1104 12.4396 -0.462424 20.9193
559 2 2.2208 -0.315004 17.6254 22.2289
426 2 2.2208 -0.346436 17.7354 16.4792
431 1 -1.1104 12.4521 16.6284 23.7195
397 2 2.2208 -0.311024 3.46758 19.471
434 2 2.2208 5.33832 6.48965 16.6212
435 2 2.2208 5.43129 12.0722 16.6062
436 1 -1.1104 1.10941 8.04744 18.0129
438 1 -1.1104 1.02985 7.75769 15.2026
442 1 -1.1104 1.04554 5.17924 18.0392
443 1 -1.1104 1.25599 10.7874 17.8971
446 2 2.2208 5.41811 9.3619 19.1492
447 1 -1.1104 1.32004 4.99347 15.2157
449 1 -1.1104 0.957036 10.539 15.2229
455 1 -1.1104 3.89655 7.98779 18.0605
456 2 2.2208 2.54428 6.6621 19.3035
457 2 2.2208 2.39368 12.2748 19.4164
458 1 -1.1104 3.90634 7.75858 15.2701
460 2 2.2208 2.60051 9.26358 16.6002
461 1 -1.1104 3.75305 5.20703 17.9877
462 1 -1.1104 4.04226 10.8494 17.9706
463 1 -1.1104 4.23473 4.86913 15.2892
465 1 -1.1104 3.83653 10.6796 15.0602
459 1 -1.1104 3.81962 7.88813 20.6885
453 1 -1.1104 6.47826 10.5376 15.1304
445 1 -1.1104 6.86684 10.933 17.9455
441 1 -1.1104 6.73037 7.82583 20.6777
444 1 -1.1104 6.60852 5.04427 17.9509
450 1 -1.1104 1.10801 10.6393 20.7698
432 2 2.2208 10.9944 14.967 25.0355
560 1 -1.1104 12.3239 19.2647 23.6293
594 2 2.2208 -0.379366 -1.78002 25.0938
8679 2 2.2208 5.13068 -4.65835 22.2074
451 1 -1.1104 6.97352 4.97244 15.0072
440 1 -1.1104 6.69075 7.82098 15.3512
324 2 2.2208 2.58307 6.39055 13.7837
437 1 -1.1104 6.76067 7.97488 18.0573
470 2 2.2208 10.8746 6.50688 16.688
471 2 2.2208 10.8756 12.2531 16.5634
472 1 -1.1104 12.3279 8.0749 18.1852
473 1 -1.1104 12.2496 7.95145 15.2668
475 1 -1.1104 12.3722 5.08616 18.0942
476 1 -1.1104 12.2434 10.7717 18.0555
477 2 2.2208 10.912 9.3537 19.4504
478 1 -1.1104 12.4863 5.14876 15.3996
480 1 -1.1104 12.3475 10.8556 15.2111
482 1 -1.1104 9.38298 8.06631 18.0516
483 2 2.2208 8.04318 6.46233 19.4009
484 2 2.2208 8.02377 12.2062 19.5532
485 1 -1.1104 9.55227 7.78664 15.2944
487 2 2.2208 8.27153 9.36951 16.5907
488 1 -1.1104 9.3004 5.26148 18.1668
489 1 -1.1104 9.69639 10.7944 18.145
490 1 -1.1104 9.72761 4.99228 15.4078
492 1 -1.1104 9.46693 10.6596 15.22
486 1 -1.1104 9.41639 7.97335 20.8498
493 1 -1.1104 9.53351 10.7637 20.8114
596 2 2.2208 -0.362519 3.70548 24.9955
333 2 2.2208 10.7159 20.5759 13.751
474 1 -1.1104 12.2925 7.92882 20.8149
479 1 -1.1104 12.1224 5.31914 20.9674
491 1 -1.1104 9.39751 5.23447 21.0398
8843 2 2.2208 -0.338835 -4.7647 16.5371
497 2 2.2208 5.39987 17.9388 16.4845
498 1 -1.1104 1.10995 13.7243 18.1226
499 1 -1.1104 1.07661 19.0331 17.9904
502 1 -1.1104 0.995004 13.4362 15.2258
504 1 -1.1104 1.20468 18.9115 15.2289
510 1 -1.1104 1.0092 16.3296 17.9231
512 2 2.2208 5.35264 15.0562 19.1628
513 2 2.2208 5.25868 20.5679 19.3584
514 1 -1.1104 1.02064 16.2221 15.1478
518 1 -1.1104 3.87382 13.5737 18.0149
519 1 -1.1104 4.02647 19.1546 18.0205
520 2 2.2208 2.56883 17.6638 19.3782
521 1 -1.1104 3.76374 13.4403 15.2614
523 1 -1.1104 3.93419 19.0962 15.218
525 2 2.2208 2.47421 14.9439 16.5513
526 2 2.2208 2.45039 20.5904 16.3516
527 1 -1.1104 3.93107 16.5609 17.9537
528 1 -1.1104 4.01649 16.2514 15.1933
516 1 -1.1104 6.92486 16.3623 14.813
517 1 -1.1104 6.6728 16.1975 20.7125
503 1 -1.1104 1.03645 13.3985 20.882
508 1 -1.1104 6.65734 19.0993 15.0242
511 1 -1.1104 6.86974 16.476 17.6754
515 1 -1.1104 0.96988 16.2753 20.675
524 1 -1.1104 3.93948 19.1738 20.9127
505 1 -1.1104 1.11661 18.9774 20.9819
500 1 -1.1104 6.6 13.683 17.9624
529 1 -1.1104 3.90041 16.3086 20.7604
509 1 -1.1104 6.9229 18.9203 20.8311
557 1 -1.1104 9.54623 16.396 23.5715
319 2 2.2208 5.21942 3.45968 13.9218
393 2 2.2208 13.5896 3.74595 22.2933
506 1 -1.1104 6.8522 13.4995 15.0081
556 1 -1.1104 9.63307 16.3165 20.6894
501 1 -1.1104 6.69817 19.3368 17.944
533 2 2.2208 10.9773 17.9547 16.4642
534 1 -1.1104 12.116 13.6046 17.9899
535 1 -1.1104 12.2329 19.2261 17.8934
536 1 -1.1104 12.3064 13.7093 14.8971
538 1 -1.1104 12.244 19.2846 15.058
540 1 -1.1104 12.3455 16.4239 17.9246
541 2 2.2208 10.7968 14.9739 19.3616
542 2 2.2208 10.9634 20.4966 19.3508
543 1 -1.1104 12.4422 16.3551 15.2258
545 1 -1.1104 9.35554 13.6734 18.0419
546 1 -1.1104 9.49792 19.1614 17.7957
547 2 2.2208 8.29083 17.8521 19.2703
548 1 -1.1104 9.47041 13.3934 15.0714
550 1 -1.1104 9.34084 19.3282 15.0126
552 2 2.2208 8.30873 14.9732 16.3748
553 2 2.2208 8.13484 20.6411 16.5417
554 1 -1.1104 9.64207 16.4542 17.8837
555 1 -1.1104 9.6746 16.4193 14.9619
551 1 -1.1104 9.66491 19.2151 20.7884
544 1 -1.1104 12.2335 16.4414 20.8884
539 1 -1.1104 12.2781 19.2063 20.6958
537 1 -1.1104 12.2102 13.6961 20.7834
469 1 -1.1104 9.35341 19.3635 23.6498
376 1 -1.1104 1.16665 -0.551817 20.7606
383 1 -1.1104 4.03397 -3.37445 20.9185
368 1 -1.1104 6.70277 -3.55997 20.6257
385 1 -1.1104 4.05839 2.40703 20.8446
8681 2 2.2208 -0.352915 -4.68514 22.1398
330 2 2.2208 2.55282 17.6867 13.7899
390 1 -1.1104 4.00363 -0.404834 20.7516
561 2 2.2208 5.34553 0.985968 22.1653
562 1 -1.1104 1.04614 -3.29178 23.6415
563 1 -1.1104 0.909739 2.16936 23.7898
566 1 -1.1104 1.01787 -3.36452 26.3409
567 1 -1.1104 1.16201 2.24751 26.5147
570 1 -1.1104 0.778525 -0.630279 23.6289
572 2 2.2208 5.26531 -2.09897 25.0992
574 1 -1.1104 1.04073 -0.649191 26.4672
576 1 -1.1104 3.88299 -3.45755 23.7203
577 1 -1.1104 3.69798 2.10077 23.5017
578 2 2.2208 2.4373 0.886392 25.0088
579 1 -1.1104 3.83226 -3.25967 26.4724
580 1 -1.1104 3.99314 2.268 26.31
581 2 2.2208 2.52688 -1.94566 22.1221
582 2 2.2208 2.48453 3.70461 22.2145
583 1 -1.1104 3.71548 -0.783154 23.6086
584 1 -1.1104 3.75264 -0.515545 26.5652
573 2 2.2208 5.32388 4.00308 24.9792
575 1 -1.1104 6.71641 -0.621714 26.4868
565 1 -1.1104 6.76289 2.48027 23.7194
571 1 -1.1104 6.5496 -0.4806 23.7584
569 1 -1.1104 6.74282 2.27807 26.4249
568 1 -1.1104 6.62686 -3.26902 26.6088
9294 2 2.2208 -0.144643 9.17431 24.9531
323 2 2.2208 10.8302 3.73395 13.981
558 1 -1.1104 9.57424 16.5336 26.2678
531 2 2.2208 8.15665 15.0236 22.1066
417 1 -1.1104 9.32277 -3.21515 20.9491
405 1 -1.1104 12.0954 -3.55725 20.6562
564 1 -1.1104 6.5422 -3.21788 23.5452
586 2 2.2208 11.0137 17.7884 22.2103
597 2 2.2208 10.927 0.849532 22.2967
598 1 -1.1104 12.4138 -3.54171 23.4623
599 1 -1.1104 12.1507 2.2988 23.5507
600 1 -1.1104 12.3643 -3.49816 26.3577
601 1 -1.1104 12.1455 2.18714 26.331
602 1 -1.1104 12.287 -0.649061 23.6463
603 2 2.2208 10.9915 -1.9443 25.2028
605 1 -1.1104 12.1372 -0.67128 26.5878
606 1 -1.1104 9.35691 -3.26536 23.6383
607 1 -1.1104 9.52588 2.47666 23.8163
608 2 2.2208 7.95891 0.936062 24.999
609 1 -1.1104 9.54667 -3.24506 26.4964
610 1 -1.1104 9.40972 2.45014 26.5777
611 2 2.2208 7.97125 -1.87711 22.2926
612 2 2.2208 8.12773 3.80354 22.3138
613 1 -1.1104 9.45046 -0.488447 23.714
614 1 -1.1104 9.37028 -0.424545 26.3831
604 2 2.2208 10.8329 3.74266 25.195
585 1 -1.1104 12.2935 13.5467 23.5844
468 1 -1.1104 9.72698 13.5181 23.8043
591 2 2.2208 -0.328202 6.28237 16.6842
448 1 -1.1104 1.20363 4.79795 20.8417
439 1 -1.1104 1.0457 7.60746 20.7434
464 1 -1.1104 3.79111 5.11712 20.8329
8614 2 2.2208 10.6889 -4.63014 22.2874
452 1 -1.1104 6.595 5.09891 20.8184
466 1 -1.1104 3.91048 10.6483 20.6415
626 2 2.2208 5.32645 6.69055 22.0469
627 2 2.2208 5.35771 12.1586 22.1034
628 1 -1.1104 1.03237 7.6892 23.592
630 1 -1.1104 1.29515 7.99493 26.3889
632 1 -1.1104 0.959316 4.95275 23.6407
633 1 -1.1104 1.22062 10.5481 23.6176
636 2 2.2208 5.30205 9.25206 24.9989
637 1 -1.1104 0.942403 5.20367 26.3072
638 1 -1.1104 1.09597 10.6349 26.4374
641 1 -1.1104 3.87978 7.85617 23.6539
642 2 2.2208 2.51033 6.57148 25.0414
643 2 2.2208 2.51895 12.0565 24.9952
644 1 -1.1104 4.0384 8.02667 26.4478
645 2 2.2208 2.51043 9.21815 22.0407
646 1 -1.1104 3.84368 5.04774 23.5497
647 1 -1.1104 4.10336 10.5933 23.5173
648 1 -1.1104 3.76028 5.26284 26.4885
649 1 -1.1104 3.8501 10.7566 26.5874
634 1 -1.1104 6.70163 5.13671 23.7234
631 1 -1.1104 6.78502 7.94126 26.3962
629 1 -1.1104 6.77836 7.8163 23.6044
639 1 -1.1104 6.62118 5.23053 26.5664
640 1 -1.1104 6.5581 10.7879 26.1273
592 2 2.2208 -0.37815 9.3459 19.3287
635 1 -1.1104 6.82681 10.7721 23.499
433 2 2.2208 10.7857 20.7867 24.9909
454 1 -1.1104 6.60276 10.6637 20.7407
481 1 -1.1104 12.1989 10.9371 20.85
494 2 2.2208 8.17513 17.8511 25.029
657 1 -1.1104 9.24824 11.0229 26.4744
658 1 -1.1104 9.53829 5.26644 26.625
659 1 -1.1104 9.51852 10.8717 23.6855
660 1 -1.1104 9.49332 5.25578 23.8517
661 2 2.2208 8.12348 9.44382 22.1562
662 1 -1.1104 9.54511 7.94259 26.5375
663 2 2.2208 8.06087 12.2415 24.9051
664 2 2.2208 8.17734 6.62321 25.2366
665 2 2.2208 10.752 6.67793 22.256
666 2 2.2208 10.7909 12.1092 22.1829
667 1 -1.1104 12.4087 7.96111 23.6435
668 1 -1.1104 12.2858 8.15248 26.5842
669 1 -1.1104 12.2151 5.20986 23.5819
670 1 -1.1104 12.3225 10.6674 23.6075
671 2 2.2208 11.0238 9.41804 25.1026
672 1 -1.1104 12.1298 5.02975 26.4638
673 1 -1.1104 12.094 10.9971 26.5594
674 1 -1.1104 9.53163 8.17192 23.6973
467 1 -1.1104 12.3412 16.6105 26.5615
496 1 -1.1104 9.68521 13.7131 26.3923
593 2 2.2208 13.6735 14.9488 22.0422
522 1 -1.1104 3.89409 13.5069 20.7164
507 1 -1.1104 6.87724 13.5821 20.9856
400 1 -1.1104 12.663 13.7361 26.3774
684 1 -1.1104 6.82401 16.519 26.3035
549 1 -1.1104 9.41645 13.575 20.9057
682 1 -1.1104 6.66508 13.6626 26.3346
617 1 -1.1104 6.73637 16.3021 23.5903
675 1 -1.1104 6.81705 13.6957 23.629
587 2 2.2208 2.47318 14.8726 21.9415
590 2 2.2208 2.4638 20.4773 22.1518
615 1 -1.1104 4.02793 16.411 23.4385
616 1 -1.1104 1.12648 16.2936 23.4537
619 1 -1.1104 3.91695 13.6473 26.1686
622 1 -1.1104 3.64602 16.333 26.5167
650 2 2.2208 2.44258 17.6343 24.9141
651 1 -1.1104 3.86076 19.1955 26.3069
652 2 2.2208 5.33356 17.7812 22.2111
654 1 -1.1104 1.09852 13.5547 23.5804
656 1 -1.1104 1.10044 19.1164 23.7191
676 2 2.2208 5.33713 14.9756 24.8446
677 2 2.2208 5.25564 20.62 24.9669
681 1 -1.1104 3.97658 19.0132 23.7474
683 1 -1.1104 3.84671 13.6077 23.4886
685 1 -1.1104 1.09015 18.9735 26.4558
686 1 -1.1104 0.984923 16.2068 26.1105
687 1 -1.1104 1.29149 13.3946 26.4289
679 1 -1.1104 6.55747 19.3046 23.5228
495 1 -1.1104 6.58131 19.3119 26.388
325 2 2.2208 5.13502 9.24868 13.8814
428 2 2.2208 -0.160845 20.4467 19.389
530 1 -1.1104 9.57087 19.226 26.2639
624 2 2.2208 13.6889 0.952849 25.0448
326 2 2.2208 2.48364 12.0861 13.8152
312 2 2.2208 -0.424883 -2.15826 13.7299
315 2 2.2208 -0.215452 3.70097 13.7802
623 2 2.2208 13.5819 -1.93079 22.2658
620 2 2.2208 13.5609 12.1622 19.4404
8612 2 2.2208 8.09575 -4.6068 25.0457
9250 2 2.2208 -0.26567 20.479 24.9906
392 2 2.2208 13.6032 9.34089 22.0493
352 2 2.2208 8.15078 14.9376 27.6434
9257 2 2.2208 -0.25295 14.8109 24.8389
430 2 2.2208 13.6479 20.5232 16.508
595 2 2.2208 -0.343623 0.845177 22.3061
343 2 2.2208 -0.344701 9.06144 13.7862
328 2 2.2208 10.9504 9.37312 13.8817
589 2 2.2208 13.643 14.9444 16.5021
394 2 2.2208 -0.313649 0.803823 16.652
332 2 2.2208 5.28518 14.901 13.7414
353 2 2.2208 10.892 17.84 27.6238
327 2 2.2208 8.12352 6.63911 13.8322
8467 2 2.2208 -0.371027 -4.77682 27.7475
351 2 2.2208 5.26005 12.1517 27.6146
331 2 2.2208 5.29565 20.4441 13.7721
688 2 2.2208 5.21755 23.4836 5.12798
689 2 2.2208 5.02001 29.1603 5.15047
690 1 -1.1104 1.08496 24.783 1.04803
691 1 -1.1104 0.782462 24.8733 3.75957
692 1 -1.1104 1.10966 21.8367 1.07934
693 1 -1.1104 1.04678 27.5279 1.2435
694 2 2.2208 5.13868 26.3356 2.57684
695 1 -1.1104 1.00096 21.9956 3.90312
696 1 -1.1104 0.845026 27.5352 4.17746
697 1 -1.1104 3.68642 24.8487 0.989322
698 2 2.2208 2.45454 23.3408 2.36072
699 2 2.2208 2.30151 29.0728 2.45721
700 1 -1.1104 3.75057 24.779 3.81876
701 2 2.2208 2.21263 26.1549 5.27991
702 1 -1.1104 3.92665 22.1282 1.03634
703 1 -1.1104 3.87089 27.6967 1.15569
704 1 -1.1104 3.8481 22.1459 3.73286
705 1 -1.1104 3.55456 27.6834 3.8158
711 1 -1.1104 6.74419 22.0414 1.03944
710 1 -1.1104 6.45665 24.7856 3.78654
832 1 -1.1104 0.94427 27.7419 6.78779
833 1 -1.1104 6.67759 22.0198 6.58904
709 1 -1.1104 6.70223 24.9001 1.22931
9622 2 2.2208 13.4723 43.0616 5.44286
831 1 -1.1104 1.3474 21.8233 6.6526
829 1 -1.1104 0.935152 24.8347 6.53939
837 1 -1.1104 3.85608 27.6372 6.51809
9848 2 2.2208 13.5672 34.426 2.45828
9805 2 2.2208 13.4891 45.8235 8.10236
1326 1 -1.1104 0.903903 47.1301 1.06579
712 1 -1.1104 6.74847 27.6069 1.31137
713 1 -1.1104 6.69492 21.9609 3.82088
714 1 -1.1104 6.56651 27.5476 4.09629
715 2 2.2208 10.8893 23.4485 5.38479
716 2 2.2208 10.9174 29.25 5.38939
717 1 -1.1104 12.1927 24.8735 1.06845
718 1 -1.1104 12.2999 25.0058 4.01242
719 1 -1.1104 12.3342 22.1122 1.14945
720 1 -1.1104 12.2715 27.5876 1.24966
721 2 2.2208 11.0663 26.2634 2.73296
722 1 -1.1104 12.2105 22.0447 3.90754
723 1 -1.1104 12.3249 27.8344 3.94771
724 1 -1.1104 9.495 24.8524 1.23918
725 2 2.2208 8.14248 23.5046 2.61411
726 2 2.2208 8.0892 29.019 2.65761
727 1 -1.1104 9.42936 25.1319 3.86227
728 2 2.2208 7.98284 26.2705 5.37115
729 1 -1.1104 9.63514 22.0524 1.29644
730 1 -1.1104 9.45561 27.8168 1.26175
731 1 -1.1104 9.44485 22.1112 3.97833
732 1 -1.1104 9.47138 27.8907 4.1751
867 1 -1.1104 9.50326 27.658 6.85451
862 1 -1.1104 12.3006 24.9343 6.64277
1011 2 2.2208 5.18921 23.5528 -0.362203
1013 2 2.2208 5.20008 29.0926 -0.27646
736 2 2.2208 5.05269 34.3788 5.2493
737 1 -1.1104 1.03146 30.3922 1.00213
738 1 -1.1104 0.849595 35.8433 1.08285
740 1 -1.1104 0.941735 30.4797 3.87866
741 1 -1.1104 1.14105 36.1119 3.86357
743 1 -1.1104 1.06862 33.1665 1.00919
744 2 2.2208 5.25792 31.8376 2.50497
745 2 2.2208 5.09306 37.3313 2.51955
746 1 -1.1104 1.14471 33.2438 3.79795
748 1 -1.1104 3.75963 30.5794 1.13014
749 1 -1.1104 3.59239 36.0446 1.20525
750 2 2.2208 2.41376 34.5564 2.52131
751 1 -1.1104 3.6733 30.4661 3.86922
752 1 -1.1104 4.00085 35.7199 3.85748
753 2 2.2208 2.34628 31.7878 5.31237
754 2 2.2208 2.27778 37.4795 5.29398
755 1 -1.1104 3.80983 33.3141 0.96537
756 1 -1.1104 3.84892 32.9968 3.88618
892 1 -1.1104 3.70074 30.292 6.65024
761 1 -1.1104 6.56884 30.4295 3.96823
739 1 -1.1104 6.66721 35.8613 1.08222
760 1 -1.1104 6.59383 30.4053 1.18315
747 1 -1.1104 6.52332 33.3472 4.00483
742 1 -1.1104 6.71387 36.2159 3.90717
888 1 -1.1104 6.53873 30.4082 6.78968
889 1 -1.1104 6.74696 36.0143 6.80647
887 1 -1.1104 0.976971 36.0707 6.67239
1022 2 2.2208 10.7221 34.8282 -0.257966
1007 2 2.2208 5.13756 45.9786 -0.392338
762 1 -1.1104 6.66471 33.1063 1.1637
763 2 2.2208 10.7472 34.7365 5.3653
764 1 -1.1104 12.2679 30.4764 0.954124
765 1 -1.1104 12.382 36.0721 1.14796
766 1 -1.1104 12.2167 30.5454 3.95054
767 1 -1.1104 12.1731 35.8578 3.99606
768 1 -1.1104 11.9949 33.2626 1.03635