ITEM: TIMESTEP
10000
ITEM: NUMBER OF ATOMS
17910
ITEM: BOX BOUNDS pp pp pp
-3.9761917798871882e-01 2.7737619177989082e+01
-4.7027437385647444e+00 3.3278274373857033e+02
-3.9898526406112217e-01 2.7738985264061295e+01
ITEM: ATOMS id type q x y z
1 2 2.2208 5.43196 0.975344 5.14306
2 1 -1.1104 1.01245 -3.47814 1.02765
3 1 -1.1104 1.00652 2.42424 0.914214
6 1 -1.1104 1.08359 -3.35629 3.85782
7 1 -1.1104 0.994729 2.16313 3.90132
10 1 -1.1104 0.914012 -0.459218 0.971934
12 2 2.2208 5.14938 -1.90854 2.33008
13 2 2.2208 5.28756 3.57167 2.32896
14 1 -1.1104 1.03807 -0.562801 3.71001
16 1 -1.1104 3.73907 -3.32578 1.08629
17 1 -1.1104 3.94267 2.35388 1.09222
18 2 2.2208 2.22693 0.894811 2.37105
19 1 -1.1104 3.86841 -3.17419 3.81268
20 1 -1.1104 3.68999 2.27302 3.70184
21 2 2.2208 2.40358 -2.01816 5.27406
22 2 2.2208 2.39839 3.6638 5.24946
23 1 -1.1104 3.71375 -0.409816 0.779776
24 1 -1.1104 3.90516 -0.262748 3.89175
11 1 -1.1104 6.58393 -0.477144 0.92198
4 1 -1.1104 6.5969 -3.13452 1.13371
170 1 -1.1104 1.03452 -0.407813 6.53289
166 1 -1.1104 1.00132 -3.36871 6.41416
174 1 -1.1104 3.93594 -0.548917 6.60891
167 1 -1.1104 1.06626 2.49376 6.70527
172 1 -1.1104 3.87842 -3.34862 6.59645
8 1 -1.1104 6.55181 -3.3724 3.86382
9 1 -1.1104 6.74559 2.33256 3.77557
169 1 -1.1104 6.8232 2.43541 6.60331
168 1 -1.1104 6.75027 -3.46553 6.66778
171 1 -1.1104 6.78347 -0.571958 6.50029
8453 2 2.2208 5.14622 -4.6962 10.6669
15 1 -1.1104 6.73192 -0.60878 3.59566
5 1 -1.1104 6.73712 2.29469 0.824928
31 2 2.2208 11.0241 0.870171 5.33055
32 1 -1.1104 12.1382 -3.30633 0.89557
33 1 -1.1104 12.26 2.22402 0.927409
34 1 -1.1104 12.4331 -3.50599 3.69067
35 1 -1.1104 12.4434 2.06171 3.82295
36 1 -1.1104 12.2841 -0.42414 0.925054
37 2 2.2208 10.8125 -1.80674 2.43585
38 2 2.2208 10.9045 3.70854 2.4346
39 1 -1.1104 12.3813 -0.712367 3.90577
40 1 -1.1104 9.34457 -3.32042 0.842037
41 1 -1.1104 9.46563 2.13413 1.07697
42 2 2.2208 7.98268 0.920709 2.39216
43 1 -1.1104 9.63993 -3.31424 3.71182
44 1 -1.1104 9.47872 2.40041 3.73784
45 2 2.2208 8.19582 -2.00486 5.23669
46 2 2.2208 8.13687 3.77454 5.16572
47 1 -1.1104 9.42759 -0.656824 0.914151
48 1 -1.1104 9.51178 -0.460778 3.90049
205 1 -1.1104 12.4105 -3.39178 6.6121
207 1 -1.1104 12.328 -0.671 6.76197
208 1 -1.1104 9.59047 -3.46139 6.47229
209 1 -1.1104 9.75542 2.40857 6.47314
210 1 -1.1104 9.43991 -0.499884 6.80729
297 1 -1.1104 6.75402 13.5561 12.2088
8456 2 2.2208 10.7755 -4.72121 10.8839
54 2 2.2208 5.21419 6.4606 5.1235
55 2 2.2208 5.28956 12.2093 5.17001
56 1 -1.1104 0.888446 7.91663 0.903517
58 1 -1.1104 1.128 7.96372 3.86839
60 1 -1.1104 0.976566 4.87787 0.987115
61 1 -1.1104 0.934954 11.0222 1.07304
66 2 2.2208 5.29707 9.43218 2.36185
67 1 -1.1104 0.952704 5.2631 3.84253
68 1 -1.1104 0.982491 10.7491 3.855
71 1 -1.1104 3.86955 7.85223 1.0161
72 2 2.2208 2.42211 6.40172 2.29531
73 2 2.2208 2.43426 12.1085 2.53143
74 1 -1.1104 3.8413 7.94165 3.74536
75 2 2.2208 2.50761 9.42169 5.19252
76 1 -1.1104 3.67302 5.2006 0.857223
77 1 -1.1104 4.08129 10.7193 0.993332
79 1 -1.1104 3.87462 5.08923 3.84414
80 1 -1.1104 3.77187 10.7478 3.82735
78 1 -1.1104 3.67832 10.8153 6.60238
63 1 -1.1104 6.58154 5.06751 0.943849
236 1 -1.1104 1.1915 5.29548 6.63362
234 1 -1.1104 1.14313 8.06965 6.5011
8958 2 2.2208 13.6053 20.4896 4.98311
59 1 -1.1104 6.65343 7.90807 3.85942
70 1 -1.1104 6.64808 10.9239 3.74718
69 1 -1.1104 6.42019 5.02459 3.78978
239 1 -1.1104 4.03521 5.24485 6.72349
62 1 -1.1104 1.09284 10.81 6.65174
237 1 -1.1104 6.79717 5.12541 6.51483
235 1 -1.1104 6.32773 8.12423 6.61211
52 2 2.2208 13.6355 6.5493 7.996
311 1 -1.1104 9.65471 13.38 9.37445
57 1 -1.1104 6.8532 7.95161 1.14826
64 1 -1.1104 6.7446 10.8048 1.03079
84 2 2.2208 10.8926 6.50168 5.05864
85 2 2.2208 10.906 12.051 5.14314
86 1 -1.1104 12.4376 7.92739 0.922318
87 1 -1.1104 12.2763 7.87365 3.78074
88 1 -1.1104 12.2697 5.23116 0.890938
89 1 -1.1104 12.4765 10.6751 0.887936
91 2 2.2208 10.9385 9.20646 2.30662
92 1 -1.1104 12.232 4.82246 3.86441
93 1 -1.1104 12.1463 10.7174 3.73669
94 1 -1.1104 9.479 8.04243 0.896923
95 2 2.2208 8.00855 6.45242 2.30433
96 2 2.2208 8.16569 12.1354 2.42962
97 1 -1.1104 9.56154 7.95622 3.80455
98 2 2.2208 8.02196 9.18833 5.2624
99 1 -1.1104 9.59804 5.03446 0.778696
100 1 -1.1104 9.6806 10.7556 1.01828
102 1 -1.1104 9.26137 5.01747 3.58098
103 1 -1.1104 9.25963 10.8926 3.94931
267 1 -1.1104 9.49549 7.88239 6.54317
90 1 -1.1104 12.3457 10.7577 6.4186
269 1 -1.1104 9.63198 5.08827 6.47417
266 1 -1.1104 12.434 5.16809 6.49004
265 1 -1.1104 12.4044 8.01456 6.50157
8910 2 2.2208 13.6497 9.3139 5.04469
65 1 -1.1104 6.54778 10.8426 6.63759
101 1 -1.1104 9.37411 10.6986 6.62281
306 1 -1.1104 6.58169 16.3185 12.2126
106 2 2.2208 5.14065 17.6334 5.04168
107 1 -1.1104 0.872296 13.6241 0.851887
109 1 -1.1104 1.06328 19.1945 0.805622
113 1 -1.1104 1.12713 13.7073 3.93872
114 1 -1.1104 0.911261 19.446 3.67234
116 1 -1.1104 1.04264 16.5414 0.910696
119 2 2.2208 5.29635 15.0202 2.41341
120 2 2.2208 5.18638 20.6272 2.36192
121 1 -1.1104 0.772465 16.4889 3.69766
123 1 -1.1104 3.81641 13.6584 1.1006
125 1 -1.1104 3.93807 19.2868 1.07206
127 2 2.2208 2.43026 17.8666 2.19243
128 1 -1.1104 3.98609 13.6645 3.90321
129 1 -1.1104 3.81109 19.1193 3.76204
130 2 2.2208 2.34098 15.0967 5.09981
131 2 2.2208 2.4365 20.5888 5.21358
132 1 -1.1104 3.85704 16.3285 0.911689
134 1 -1.1104 3.66255 16.4217 3.65035
133 1 -1.1104 3.66648 16.1691 6.55914
115 1 -1.1104 6.61324 13.5927 3.79732
122 1 -1.1104 6.55124 16.4452 3.83654
302 1 -1.1104 0.991232 19.266 6.6837
117 1 -1.1104 0.928604 16.5013 6.49769
110 1 -1.1104 6.66193 13.5702 0.972269
9177 2 2.2208 -0.34245 3.7752 2.55575
199 2 2.2208 -0.368884 3.68441 8.07135
108 1 -1.1104 1.08027 13.7135 6.78041
124 1 -1.1104 3.94108 13.4732 6.51478
318 2 2.2208 13.6125 0.875366 13.6075
139 1 -1.1104 6.60806 19.1263 3.75383
140 1 -1.1104 6.74913 16.463 1.01954
118 1 -1.1104 6.76057 16.3898 6.58491
163 1 -1.1104 9.4589 16.3155 6.45755
145 1 -1.1104 12.2379 19.1789 6.4881
138 1 -1.1104 6.63122 19.1863 0.867714
141 2 2.2208 10.7657 17.8183 5.13895
142 1 -1.1104 12.1397 13.5704 0.978094
144 1 -1.1104 12.0442 19.2097 0.904646
146 1 -1.1104 12.2226 13.4353 3.88575
147 1 -1.1104 12.3317 19.1721 3.68281
148 1 -1.1104 12.2022 16.5237 0.938249
150 2 2.2208 10.6329 15.1072 2.37998
151 2 2.2208 10.8744 20.58 2.31488
152 1 -1.1104 12.1685 16.288 3.73541
153 1 -1.1104 9.42341 13.4953 0.986561
155 1 -1.1104 9.41861 19.1904 0.785726
157 2 2.2208 7.99912 17.8339 2.30331
158 1 -1.1104 9.4464 13.6668 3.70478
159 1 -1.1104 9.49524 19.0257 3.63073
160 2 2.2208 8.0465 14.8079 5.25149
161 2 2.2208 7.93116 20.6771 5.19648
162 1 -1.1104 9.41944 16.2719 1.08622
164 1 -1.1104 9.30842 16.5159 3.76984
156 1 -1.1104 9.34383 19.2396 6.55915
143 1 -1.1104 12.2861 13.4441 6.65742
112 1 -1.1104 6.74727 18.9298 6.47039
149 1 -1.1104 12.263 16.4403 6.59263
201 2 2.2208 -0.407666 0.799173 10.7931
111 1 -1.1104 6.69491 13.73 6.74255
154 1 -1.1104 9.42134 13.4607 6.63369
9176 2 2.2208 13.6212 17.7885 7.99466
9179 2 2.2208 -0.328658 6.77632 5.15151
173 1 -1.1104 3.84558 2.43697 6.59686
9042 2 2.2208 -0.347244 15.0751 2.25524
335 2 2.2208 7.92727 17.7528 13.6711
175 2 2.2208 5.28224 0.997825 10.8463
176 1 -1.1104 0.909643 -3.38191 12.1251
177 1 -1.1104 0.898078 2.52537 12.1954
180 1 -1.1104 0.927136 -3.21151 9.31646
181 1 -1.1104 1.21139 2.16905 9.57942
184 1 -1.1104 1.01369 -0.36295 12.3681
186 2 2.2208 5.23124 -1.90237 7.96544
187 2 2.2208 5.19252 3.9726 8.00995
188 1 -1.1104 0.97466 -0.603769 9.24481
190 1 -1.1104 3.74742 -3.28468 12.1417
191 1 -1.1104 3.85812 2.55579 12.2962
192 2 2.2208 2.51325 0.900649 8.07645
193 1 -1.1104 3.66552 -3.50673 9.40988
194 1 -1.1104 4.09092 2.39572 9.45127
195 2 2.2208 2.31591 -2.01947 10.85
196 2 2.2208 2.48997 3.82333 10.9036
197 1 -1.1104 3.7302 -0.39365 12.1083
198 1 -1.1104 3.80746 -0.621313 9.43408
182 1 -1.1104 6.5278 -3.20296 9.36823
189 1 -1.1104 6.63755 -0.439873 9.13846
185 1 -1.1104 6.64292 -0.479118 12.1077
179 1 -1.1104 6.59987 2.44284 12.1419
329 2 2.2208 8.09193 12.1151 13.5899
8979 2 2.2208 13.5656 14.9381 5.16981
203 2 2.2208 8.03877 20.5427 10.7427
229 2 2.2208 13.5242 0.83823 8.04995
25 2 2.2208 13.6943 14.8849 10.7678
338 2 2.2208 2.35631 -1.77828 -0.466673
183 1 -1.1104 6.85266 2.21162 9.46881
206 1 -1.1104 12.2465 2.27816 6.6029
178 1 -1.1104 6.6806 -3.22764 12.1148
211 2 2.2208 10.8107 0.873353 10.8171
212 1 -1.1104 12.2064 -3.38936 12.2331
213 1 -1.1104 12.2155 2.35661 12.4579
214 1 -1.1104 12.0606 -3.47821 9.36215
215 1 -1.1104 12.4308 1.97535 9.67181
216 1 -1.1104 11.9889 -0.554468 12.0156
217 2 2.2208 10.6268 -2.09745 8.03456
218 2 2.2208 10.8327 3.69897 7.91615
219 1 -1.1104 12.111 -0.655701 9.46911
220 1 -1.1104 9.44067 -3.376 12.209
221 1 -1.1104 9.56189 2.23426 12.249
222 2 2.2208 8.09778 1.00683 7.96896
223 1 -1.1104 9.25786 -3.47113 9.36682
224 1 -1.1104 9.66617 2.56838 9.43144
225 2 2.2208 7.95585 -1.79366 10.7948
226 2 2.2208 8.02711 3.78523 10.8725
227 1 -1.1104 9.44617 -0.480894 12.2603
228 1 -1.1104 9.38181 -0.479858 9.37326
26 2 2.2208 10.703 17.6021 10.7716
83 1 -1.1104 12.3139 16.182 12.2346
238 1 -1.1104 3.8477 8.01313 6.39718
28 2 2.2208 13.5696 20.5873 10.7648
104 2 2.2208 10.8235 14.9234 7.8141
240 2 2.2208 5.08327 6.55387 10.6996
241 2 2.2208 5.27532 12.1017 10.9779
242 1 -1.1104 1.07444 7.95548 12.1554
244 1 -1.1104 0.874291 7.98366 9.35705
246 1 -1.1104 0.852747 5.18298 12.2407
247 1 -1.1104 1.07362 10.6804 12.2534
250 2 2.2208 5.26017 9.52984 8.12044
251 1 -1.1104 1.00465 5.07094 9.558
252 1 -1.1104 1.01588 10.787 9.27893
255 1 -1.1104 3.88122 8.04074 12.287
256 2 2.2208 2.44932 6.73032 7.9357
257 2 2.2208 2.36666 12.2818 8.02674
258 1 -1.1104 3.87948 8.1678 9.3976
259 2 2.2208 2.28643 9.23503 10.7618
260 1 -1.1104 3.65518 5.38841 12.1672
261 1 -1.1104 3.91693 10.7381 12.3351
262 1 -1.1104 3.71726 5.30066 9.46814
263 1 -1.1104 3.87412 11.0665 9.37938
248 1 -1.1104 6.48808 5.13606 12.2277
253 1 -1.1104 6.61994 5.11541 9.38297
230 2 2.2208 13.4547 -1.92907 10.7828
136 1 -1.1104 9.57162 13.5241 12.2828
105 2 2.2208 10.7833 20.5464 7.88026
9174 2 2.2208 -0.304744 -2.01512 2.34471
51 2 2.2208 13.6005 9.16636 10.7625
317 2 2.2208 2.38105 0.914641 13.667
243 1 -1.1104 6.80129 7.91371 12.2111
249 1 -1.1104 6.65992 10.7788 12.4034
254 1 -1.1104 6.88231 10.7949 9.58283
245 1 -1.1104 6.66279 7.81302 9.43341
264 1 -1.1104 9.56423 10.602 9.45195
268 1 -1.1104 9.20724 5.37835 9.33015
270 1 -1.1104 9.51997 10.8511 12.2947
271 1 -1.1104 9.4654 4.7812 12.124
272 2 2.2208 8.19765 9.27348 10.8134
273 1 -1.1104 9.4775 8.08587 9.31559
274 2 2.2208 8.03244 12.2236 8.00386
275 2 2.2208 7.94654 6.50725 7.97388
276 2 2.2208 10.8074 6.3353 10.9916
277 2 2.2208 11.0539 11.9378 10.627
278 1 -1.1104 12.39 7.75844 12.2202
279 1 -1.1104 12.146 7.60557 9.33332
280 1 -1.1104 12.2359 5.12222 12.3318
281 1 -1.1104 12.1984 10.5643 12.0076
282 2 2.2208 10.912 9.37955 7.96573
283 1 -1.1104 12.1475 4.75176 9.47361
284 1 -1.1104 12.4561 10.5571 9.14362
285 1 -1.1104 9.64302 7.94305 12.1704
289 1 -1.1104 6.39153 16.5873 9.23574
27 1 -1.1104 12.2986 13.38 12.2301
231 1 -1.1104 9.41641 16.2918 9.21509
126 1 -1.1104 3.7593 18.9564 6.62759
290 1 -1.1104 6.6363 13.7633 9.51546
202 2 2.2208 8.21109 14.8492 10.7779
137 1 -1.1104 9.34655 19.0023 12.0204
9077 2 2.2208 13.562 12.2823 2.40987
296 1 -1.1104 6.57776 19.1493 12.2555
286 1 -1.1104 3.77345 19.2279 12.1951
287 1 -1.1104 3.84126 13.4726 12.521
291 1 -1.1104 0.871149 19.3631 9.62777
292 1 -1.1104 1.03074 16.4316 9.34715
293 2 2.2208 5.2352 20.366 7.76394
294 1 -1.1104 1.06565 13.5307 9.68
295 2 2.2208 5.05522 15.0401 8.15529
298 1 -1.1104 1.06489 19.1945 12.4979
299 1 -1.1104 1.06231 13.3852 12.305
300 2 2.2208 5.17391 17.8379 10.6942
301 1 -1.1104 3.876 19.293 9.31458
303 2 2.2208 2.35618 17.8925 8.05446
304 1 -1.1104 3.6432 16.5021 9.53918
305 1 -1.1104 3.78756 13.5058 9.59723
307 1 -1.1104 1.02268 16.2781 12.1775
308 1 -1.1104 3.76408 16.5144 12.2307
309 2 2.2208 2.53921 20.7314 10.8129
310 2 2.2208 2.44235 14.9791 10.9628
49 1 -1.1104 12.1264 19.2034 12.153
165 2 2.2208 7.96159 17.7001 7.95024
204 1 -1.1104 9.56052 16.2444 12.1267
288 1 -1.1104 6.58369 19.3169 9.25842
135 1 -1.1104 12.372 16.2331 9.4743
82 1 -1.1104 12.2414 19.0088 9.28724
232 1 -1.1104 9.6306 19.2175 9.26221
81 1 -1.1104 12.3572 13.418 9.33013
8882 2 2.2208 -0.357131 14.9612 8.12902
8909 2 2.2208 -0.35116 17.982 5.00572
9181 2 2.2208 -0.311004 12.3075 5.24814
8883 2 2.2208 -0.30774 20.7325 8.06239
331 2 2.2208 5.14807 20.5375 13.5695
355 2 2.2208 8.12921 9.47792 -0.244935
8469 2 2.2208 7.9285 -4.68579 13.5147
332 2 2.2208 5.23112 14.8912 13.5798
340 2 2.2208 2.37144 14.9194 -0.40675
347 2 2.2208 13.7229 12.0388 13.6302
330 2 2.2208 2.34172 17.7663 13.6789
350 2 2.2208 2.49588 9.40362 -0.315508
327 2 2.2208 8.05202 6.46766 13.6057
319 2 2.2208 5.10216 3.76067 13.5959
357 2 2.2208 7.97416 20.573 -0.444739
316 2 2.2208 5.13044 -1.90656 13.5995
336 2 2.2208 13.5016 17.7411 13.5762
328 2 2.2208 10.8494 9.39836 13.5245
312 2 2.2208 -0.347473 -1.84617 13.4616
358 2 2.2208 5.19173 0.965633 16.3769
359 1 -1.1104 0.989253 -3.39579 17.7355
360 1 -1.1104 0.951548 2.35821 17.5492
363 1 -1.1104 1.05828 -3.17194 14.7505
365 1 -1.1104 1.07181 2.34918 14.9604
371 1 -1.1104 0.995961 -0.442125 17.8573
373 2 2.2208 5.18713 -1.80376 19.1061
374 2 2.2208 5.15055 3.78032 19.1935
375 1 -1.1104 1.0499 -0.465723 15.049
379 1 -1.1104 3.7992 -3.16722 17.6163
380 1 -1.1104 3.74983 2.41847 17.7114
381 2 2.2208 2.41437 1.04553 19.0894
382 1 -1.1104 3.77876 -3.4041 14.8666
384 1 -1.1104 3.82982 2.36777 15.0566
386 2 2.2208 2.45501 -1.85298 16.3776
387 2 2.2208 2.32917 3.76585 16.2882
388 1 -1.1104 3.91581 -0.319768 17.7906
389 1 -1.1104 3.767 -0.50678 14.9274
367 1 -1.1104 6.52594 -3.18748 14.9095
391 2 2.2208 -0.363542 6.78901 22.1102
390 1 -1.1104 3.78155 -0.478849 20.5606
376 1 -1.1104 1.03307 -0.542455 20.5685
385 1 -1.1104 3.77272 2.35136 20.6159
372 1 -1.1104 6.5687 -0.540205 17.6356
369 1 -1.1104 6.53076 2.39662 15.0279
378 1 -1.1104 6.58761 -0.367418 20.762
364 1 -1.1104 0.991559 -3.39175 20.5727
383 1 -1.1104 3.80769 -3.31889 20.4329
8461 2 2.2208 10.7635 -4.64866 27.6841
362 1 -1.1104 6.65126 2.2002 17.9299
361 1 -1.1104 6.74054 -3.07194 17.7786
377 1 -1.1104 6.66018 -0.369324 14.8833
401 2 2.2208 10.8192 1.14587 16.5694
402 1 -1.1104 12.2112 -3.42469 17.8767
403 1 -1.1104 12.0861 2.54663 17.7723
404 1 -1.1104 12.26 -3.40612 14.9768
406 1 -1.1104 12.3295 2.24799 15.2303
408 1 -1.1104 12.0863 -0.495301 17.8006
409 2 2.2208 10.9687 -2.03935 19.2636
410 2 2.2208 10.6657 3.65656 19.3499
411 1 -1.1104 12.0192 -0.467733 14.8736
413 1 -1.1104 9.42041 -3.37023 17.8125
414 1 -1.1104 9.24456 2.34041 17.7601
415 2 2.2208 8.07179 0.870578 19.1997
416 1 -1.1104 9.35601 -3.10864 14.9746
418 1 -1.1104 9.34673 2.52931 15.1543
420 2 2.2208 8.03887 -1.6965 16.4095
421 2 2.2208 7.988 3.6935 16.4175
422 1 -1.1104 9.42138 -0.429897 17.9484
423 1 -1.1104 9.49035 -0.367661 15.0574
419 1 -1.1104 9.47431 2.08212 20.6756
424 1 -1.1104 9.45514 -0.753192 20.6441
417 1 -1.1104 9.44483 -3.4436 20.6446
8653 2 2.2208 2.35734 -4.6858 24.7159
8612 2 2.2208 7.92105 -4.57137 24.9352
593 2 2.2208 13.4507 14.8875 22.0049
349 2 2.2208 5.24042 6.38 27.6533
344 2 2.2208 10.6853 0.898017 27.6317
560 1 -1.1104 11.9704 19.0135 23.3473
494 2 2.2208 7.93754 18.0044 24.837
434 2 2.2208 5.18164 6.65933 16.3996
435 2 2.2208 5.06864 12.2808 16.4325
436 1 -1.1104 1.02533 8.02925 17.6881
438 1 -1.1104 0.829467 7.97722 15.1147
442 1 -1.1104 0.90015 5.17221 17.8617
443 1 -1.1104 1.00218 10.7875 17.918
446 2 2.2208 5.28001 9.44131 19.142
447 1 -1.1104 1.10901 5.16528 14.8156
449 1 -1.1104 1.04089 10.8456 15.1026
455 1 -1.1104 3.77248 8.10511 17.8568
456 2 2.2208 2.39239 6.67035 19.2542
457 2 2.2208 2.37984 12.2851 19.324
458 1 -1.1104 3.81853 8.07027 15.0405
460 2 2.2208 2.34639 9.50771 16.5229
461 1 -1.1104 3.75772 5.23007 17.8489
462 1 -1.1104 3.79158 10.9956 17.8262
463 1 -1.1104 3.78895 5.26193 14.8725
465 1 -1.1104 3.8593 10.7126 15.135
440 1 -1.1104 6.55596 8.15951 14.9503
441 1 -1.1104 6.64256 7.91048 20.4701
451 1 -1.1104 6.72143 5.2258 15.0109
448 1 -1.1104 1.15227 5.12652 20.5077
459 1 -1.1104 3.93759 8.23808 20.6523
444 1 -1.1104 6.6156 5.15201 17.6333
466 1 -1.1104 3.71871 10.9776 20.6323
450 1 -1.1104 0.906191 10.8072 20.798
439 1 -1.1104 1.02841 8.03859 20.7766
454 1 -1.1104 6.46232 10.6941 20.735
9209 2 2.2208 13.445 15.0187 27.5987
453 1 -1.1104 6.57675 10.9247 15.0303
445 1 -1.1104 6.6528 10.9808 17.8333
437 1 -1.1104 6.69032 8.05365 17.7746
470 2 2.2208 10.7956 6.68526 16.402
471 2 2.2208 10.7237 12.1745 16.4008
472 1 -1.1104 12.2585 8.03796 17.8995
473 1 -1.1104 12.3406 8.00467 14.9485
475 1 -1.1104 11.9567 5.18452 18.0184
476 1 -1.1104 12.2388 10.7908 17.7189
477 2 2.2208 10.7281 9.36692 19.2765
478 1 -1.1104 12.2785 5.05187 15.1104
480 1 -1.1104 12.037 10.8371 15.0479
482 1 -1.1104 9.39865 8.08936 17.7105
483 2 2.2208 8.02711 6.65079 19.2076
484 2 2.2208 8.04192 12.2612 19.2479
485 1 -1.1104 9.40091 8.2138 14.9082
487 2 2.2208 7.97479 9.46021 16.4076
488 1 -1.1104 9.21209 5.22064 17.8405
489 1 -1.1104 9.43118 10.7168 17.9733
490 1 -1.1104 9.65942 5.34248 14.9083
492 1 -1.1104 9.38963 10.9473 15.0393
474 1 -1.1104 12.1083 7.7626 20.7109
493 1 -1.1104 9.25639 10.807 20.6183
348 2 2.2208 13.5184 -1.82751 27.6332
682 1 -1.1104 6.60597 13.3562 26.2738
481 1 -1.1104 12.1053 10.6523 20.6292
486 1 -1.1104 9.39059 7.99007 20.6495
497 2 2.2208 5.19138 17.8518 16.4075
498 1 -1.1104 0.848043 13.4345 17.9299
499 1 -1.1104 0.935784 19.2783 17.9533
502 1 -1.1104 0.969311 13.6024 15.1712
504 1 -1.1104 1.03354 19.0582 15.1128
510 1 -1.1104 0.848064 16.3939 17.7369
512 2 2.2208 4.9426 15.0765 19.2782
513 2 2.2208 5.01669 20.6538 19.3671
514 1 -1.1104 0.750692 16.4949 15.0161
518 1 -1.1104 3.46621 13.797 17.9273
519 1 -1.1104 3.85856 19.4074 17.9216
520 2 2.2208 2.21307 17.8658 19.1709
521 1 -1.1104 3.63751 13.7051 15.1964
523 1 -1.1104 3.8145 19.1266 15.0141
525 2 2.2208 2.31102 15.0662 16.4528
526 2 2.2208 2.36756 20.511 16.3762
527 1 -1.1104 3.76172 16.6194 17.8289
528 1 -1.1104 3.61409 16.5201 15.197
522 1 -1.1104 3.76562 13.6904 20.674
517 1 -1.1104 6.52802 16.3474 20.5422
500 1 -1.1104 6.47557 13.8352 17.7664
516 1 -1.1104 6.43202 16.303 15.0854
509 1 -1.1104 6.37294 19.0784 20.6094
433 2 2.2208 10.9056 20.6877 24.8026
507 1 -1.1104 6.59882 13.5245 20.652
529 1 -1.1104 3.72575 16.491 20.7904
508 1 -1.1104 6.61031 19.2401 14.9422
501 1 -1.1104 6.72706 19.3801 17.8584
506 1 -1.1104 6.58394 13.5686 14.9091
511 1 -1.1104 6.66882 16.6742 17.7456
533 2 2.2208 10.8275 17.7606 16.4319
534 1 -1.1104 12.1156 13.4773 17.8277
535 1 -1.1104 12.1858 19.3335 17.9179
536 1 -1.1104 12.2116 13.5232 15.1629
538 1 -1.1104 12.2656 19.1336 15.054
540 1 -1.1104 12.0876 16.5107 17.8301
541 2 2.2208 10.6991 14.8704 19.3086
542 2 2.2208 10.7362 20.6465 19.1881
543 1 -1.1104 12.2542 16.4343 15.0486
545 1 -1.1104 9.34712 13.6893 17.7694
546 1 -1.1104 9.39553 19.3633 17.677
547 2 2.2208 7.99672 17.8145 19.1675
548 1 -1.1104 9.32497 13.8083 15.0438
550 1 -1.1104 9.51017 19.1824 14.8301
552 2 2.2208 7.89009 15.042 16.5184
553 2 2.2208 8.04598 20.6391 16.3205
554 1 -1.1104 9.44326 16.434 17.9037
555 1 -1.1104 9.49799 16.4881 14.8182
537 1 -1.1104 12.2266 13.4887 20.6101
549 1 -1.1104 9.59247 13.4931 20.7372
539 1 -1.1104 12.1436 19.387 20.595
556 1 -1.1104 9.26568 16.4 20.478
431 1 -1.1104 12.1191 16.3548 23.5482
625 2 2.2208 13.6175 17.8896 24.8997
366 1 -1.1104 1.05649 2.39042 20.4497
345 2 2.2208 7.93428 -1.8287 27.6905
370 1 -1.1104 6.62758 2.38609 20.487
368 1 -1.1104 6.68653 -3.04834 20.6254
8836 2 2.2208 5.30518 -4.70484 16.2605
561 2 2.2208 5.0677 0.941883 21.9187
562 1 -1.1104 1.12639 -3.05609 23.3099
563 1 -1.1104 0.80456 2.63679 23.3001
566 1 -1.1104 1.06094 -3.29512 26.1128
567 1 -1.1104 1.0422 2.26022 26.2517
570 1 -1.1104 1.07911 -0.136874 23.2951
572 2 2.2208 5.30294 -1.83302 24.936
573 2 2.2208 5.0354 3.85375 24.7706
574 1 -1.1104 0.890191 -0.418031 26.2841
576 1 -1.1104 3.74527 -3.48517 23.32
577 1 -1.1104 3.56695 2.38008 23.5335
578 2 2.2208 2.27746 0.958428 24.8143
579 1 -1.1104 3.81814 -3.25404 26.3307
580 1 -1.1104 3.82612 2.35207 26.2401
581 2 2.2208 2.35689 -1.83487 21.9631
582 2 2.2208 2.3555 3.89446 22.0804
583 1 -1.1104 3.81666 -0.461194 23.5093
584 1 -1.1104 3.68241 -0.484416 26.2154
571 1 -1.1104 6.5533 -0.638087 23.4989
564 1 -1.1104 6.54338 -3.48969 23.4779
569 1 -1.1104 6.49583 2.39788 26.0541
565 1 -1.1104 6.44307 2.37668 23.3019
568 1 -1.1104 6.55966 -3.23431 26.2393
575 1 -1.1104 6.51422 -0.552766 26.4411
341 2 2.2208 5.309 17.8258 27.7013
558 1 -1.1104 9.24442 16.4122 26.1755
623 2 2.2208 13.5982 -1.93019 22.0577
412 1 -1.1104 12.3251 -0.625944 20.6051
8814 2 2.2208 7.99636 -4.69436 19.218
405 1 -1.1104 12.2013 -3.39623 20.6518
8679 2 2.2208 5.18976 -4.58572 21.8216
432 2 2.2208 10.777 15.013 24.8342
407 1 -1.1104 12.2708 2.13515 20.6727
597 2 2.2208 10.9072 0.846165 21.985
598 1 -1.1104 12.1192 -3.39005 23.3617
599 1 -1.1104 12.1862 2.25842 23.3063
600 1 -1.1104 12.1498 -3.17727 26.2448
601 1 -1.1104 12.1431 2.21092 26.2693
602 1 -1.1104 12.2553 -0.661749 23.5183
603 2 2.2208 10.6822 -1.98282 24.8243
604 2 2.2208 10.893 3.6261 24.902
605 1 -1.1104 11.9964 -0.490792 25.9849
606 1 -1.1104 9.35083 -3.37997 23.5281
607 1 -1.1104 9.27706 2.26449 23.3606
608 2 2.2208 7.9362 0.924607 24.7163
609 1 -1.1104 9.25132 -3.26421 26.315
610 1 -1.1104 9.4091 2.3067 26.2371
611 2 2.2208 8.09156 -1.92248 21.9335
612 2 2.2208 8.00688 3.75865 21.9511
613 1 -1.1104 9.50936 -0.514437 23.5417
614 1 -1.1104 9.21143 -0.56036 26.2292
9294 2 2.2208 -0.323594 9.36181 25.0121
392 2 2.2208 13.5725 9.39197 22.2905
594 2 2.2208 -0.331696 -1.7799 24.9154
354 2 2.2208 10.8785 6.51069 27.6043
464 1 -1.1104 3.8601 5.40484 20.7124
452 1 -1.1104 6.66231 5.10248 20.6281
469 1 -1.1104 9.27616 19.3895 23.5221
626 2 2.2208 5.27668 6.58062 22.057
627 2 2.2208 5.15133 12.1917 21.9305
628 1 -1.1104 1.08691 8.12389 23.6218
630 1 -1.1104 1.00605 7.90994 26.3805
632 1 -1.1104 0.97671 5.36465 23.3854
633 1 -1.1104 1.00384 10.7926 23.5339
636 2 2.2208 5.31556 9.49093 24.9352
637 1 -1.1104 0.888069 5.05599 26.3506
638 1 -1.1104 1.00448 10.5655 26.4752
641 1 -1.1104 3.78326 8.12489 23.4757
642 2 2.2208 2.42671 6.65953 24.9408
643 2 2.2208 2.46939 12.1084 24.981
644 1 -1.1104 3.87116 7.98579 26.3096
645 2 2.2208 2.51469 9.47719 22.1225
646 1 -1.1104 3.84821 5.13685 23.4075
647 1 -1.1104 3.88132 10.9114 23.5091
648 1 -1.1104 3.8952 5.27423 26.1959
649 1 -1.1104 3.93424 10.8852 26.34
634 1 -1.1104 6.49025 5.24092 23.4051
639 1 -1.1104 6.67296 5.18352 26.4521
635 1 -1.1104 6.63894 10.7732 23.4924
351 2 2.2208 5.21198 12.3003 27.7065
640 1 -1.1104 6.83144 10.771 26.1196
631 1 -1.1104 6.54955 7.95041 26.3034
629 1 -1.1104 6.59447 7.9416 23.6055
467 1 -1.1104 12.0197 16.3585 26.2609
491 1 -1.1104 9.33132 5.22419 20.6552
468 1 -1.1104 9.49193 13.5193 23.5448
496 1 -1.1104 9.51502 13.5434 26.2724
479 1 -1.1104 12.1984 4.94582 20.7765
657 1 -1.1104 9.59833 10.6135 26.3453
658 1 -1.1104 9.48719 5.02883 26.1567
659 1 -1.1104 9.29947 10.9181 23.5025
660 1 -1.1104 9.49022 5.1267 23.5445
661 2 2.2208 7.97908 9.47975 22.0244
662 1 -1.1104 9.43275 7.80621 26.2192
663 2 2.2208 8.06258 12.1846 24.7777
664 2 2.2208 8.00044 6.57869 24.8977
665 2 2.2208 10.7395 6.51707 22.0923
666 2 2.2208 10.7457 12.0396 22.0475
667 1 -1.1104 12.2285 7.80147 23.4988
668 1 -1.1104 12.1836 7.85609 26.1913
669 1 -1.1104 12.2181 5.09065 23.5196
670 1 -1.1104 12.203 10.8194 23.4427
671 2 2.2208 10.8206 9.3384 24.9628
672 1 -1.1104 12.278 4.86527 26.3362
673 1 -1.1104 12.3159 10.4872 26.2124
674 1 -1.1104 9.40688 8.12697 23.3855
532 2 2.2208 7.85746 20.6328 22.0893
400 1 -1.1104 12.1998 13.6015 26.1343
531 2 2.2208 7.83091 15.0118 22.0777
530 1 -1.1104 9.5361 19.1428 26.1278
524 1 -1.1104 3.7092 19.226 20.7274
503 1 -1.1104 0.980796 13.5219 20.8822
425 1 -1.1104 12.2671 19.2396 26.2847
495 1 -1.1104 6.63755 19.318 26.3003
505 1 -1.1104 0.917592 19.0677 20.8392
515 1 -1.1104 0.946303 16.2602 20.4667
587 2 2.2208 2.32095 15.0485 22.0802
590 2 2.2208 2.23082 20.5874 22.1745
615 1 -1.1104 3.78125 16.6192 23.5032
616 1 -1.1104 0.839635 16.3961 23.3846
619 1 -1.1104 3.69906 13.6525 26.4537
622 1 -1.1104 3.72619 16.4525 26.4044
650 2 2.2208 2.39356 17.8685 25.0659
651 1 -1.1104 3.969 19.3071 26.3461
652 2 2.2208 5.25048 17.8387 21.986
654 1 -1.1104 0.816009 13.7289 23.5545
656 1 -1.1104 1.05232 19.2859 23.5047
676 2 2.2208 5.17711 15.1322 24.8608
677 2 2.2208 5.23171 20.6939 24.9108
681 1 -1.1104 3.85127 19.3474 23.5648
683 1 -1.1104 3.80736 13.6199 23.4802
685 1 -1.1104 0.938329 19.1116 26.1954
686 1 -1.1104 0.818251 16.4293 26.2401
687 1 -1.1104 0.942003 13.5666 26.2749
675 1 -1.1104 6.62082 13.5417 23.453
617 1 -1.1104 6.55256 16.5678 23.5007
684 1 -1.1104 6.58559 16.4156 26.3134
557 1 -1.1104 9.304 16.4032 23.4344
595 2 2.2208 -0.331109 1.05849 21.9834
551 1 -1.1104 9.2741 19.1918 20.6632
346 2 2.2208 8.05035 3.73432 27.6314
586 2 2.2208 10.4616 17.6925 22.0127
585 1 -1.1104 12.1423 13.5945 23.3404
679 1 -1.1104 6.61701 19.2068 23.3667
321 2 2.2208 8.02504 0.841133 13.6777
544 1 -1.1104 12.0458 16.3349 20.584
339 2 2.2208 2.38471 3.58147 27.69
356 2 2.2208 10.9346 12.096 27.617
588 2 2.2208 13.4433 17.7896 19.3131
678 2 2.2208 13.5859 12.1566 24.9257
589 2 2.2208 13.6 14.9589 16.5615
680 2 2.2208 13.571 6.49223 24.8287
653 2 2.2208 13.5775 20.635 22.0747
342 2 2.2208 2.41979 20.6064 27.6181
620 2 2.2208 13.657 12.1681 19.1954
430 2 2.2208 13.7319 20.5394 16.5291
428 2 2.2208 -0.383231 20.5097 19.3399
621 2 2.2208 13.5685 6.54086 19.3492
592 2 2.2208 -0.391507 9.45721 19.215
8467 2 2.2208 -0.315292 -4.6665 27.6144
624 2 2.2208 13.5809 0.787014 24.8581
399 2 2.2208 13.6203 3.83976 16.4469
324 2 2.2208 2.43321 6.62831 13.616
326 2 2.2208 2.3242 12.2029 13.8474
353 2 2.2208 10.8177 17.8283 27.5219
334 2 2.2208 11.037 14.8193 13.6865
323 2 2.2208 10.8779 3.60007 13.7447
322 2 2.2208 10.8309 -1.95539 13.7318
352 2 2.2208 8.03086 14.8621 27.6191
325 2 2.2208 5.18848 9.44756 13.7649
333 2 2.2208 10.8496 20.5111 13.6448
337 2 2.2208 5.16046 0.925871 27.6254
9216 2 2.2208 13.6103 3.63679 27.6544
688 2 2.2208 5.15855 23.4468 5.20898
689 2 2.2208 5.18183 28.9143 5.07823
690 1 -1.1104 0.980653 24.7024 1.00741
691 1 -1.1104 0.980806 24.9397 3.77864
692 1 -1.1104 0.8591 21.8927 0.881387
693 1 -1.1104 1.08212 27.71 0.876799
694 2 2.2208 5.0633 26.0558 2.30925
695 1 -1.1104 0.727363 22.106 3.68764
696 1 -1.1104 0.841654 27.8458 3.66358
697 1 -1.1104 3.81566 24.8053 0.947126
698 2 2.2208 2.19902 23.3096 2.452
699 2 2.2208 2.3196 29.0123 2.37302
700 1 -1.1104 3.62612 24.6877 3.88443
701 2 2.2208 2.18553 26.2159 5.17666
702 1 -1.1104 3.8769 22.0288 0.799099
703 1 -1.1104 3.82795 27.54 0.922024
704 1 -1.1104 3.64172 22.0295 3.65181
705 1 -1.1104 3.61217 27.4725 3.77435
836 1 -1.1104 3.84391 21.9718 6.46643
832 1 -1.1104 0.882965 27.5515 6.65675
829 1 -1.1104 1.03831 24.7828 6.59232
835 1 -1.1104 3.80415 24.7414 6.71993
830 1 -1.1104 6.5792 25.0723 6.53318
1003 2 2.2208 5.17357 43.1082 13.4508
9582 2 2.2208 13.5741 37.253 5.19222
831 1 -1.1104 0.970688 21.8047 6.42791
837 1 -1.1104 3.67924 27.6156 6.50745
9884 2 2.2208 -0.263104 43.1641 13.5257
997 2 2.2208 5.31221 37.6192 13.6011
712 1 -1.1104 6.60203 27.4884 0.89032
711 1 -1.1104 6.5545 21.9066 1.11589
714 1 -1.1104 6.52614 27.5283 3.74398
710 1 -1.1104 6.43077 24.6625 3.74212
709 1 -1.1104 6.5196 24.8098 0.869198
713 1 -1.1104 6.3734 21.8385 3.81744
715 2 2.2208 10.6206 23.4745 5.03586
716 2 2.2208 10.9465 29.0131 5.07029
717 1 -1.1104 12.0439 24.8507 0.988476
718 1 -1.1104 12.1328 24.7707 3.74094
719 1 -1.1104 12.2344 22.0903 0.893341
720 1 -1.1104 12.3006 27.6818 0.930989
721 2 2.2208 10.7441 26.26 2.2985
722 1 -1.1104 12.0342 22.0032 3.78289
723 1 -1.1104 12.3076 27.512 3.69127
724 1 -1.1104 9.26268 25.0508 0.908795
725 2 2.2208 7.83852 23.5478 2.30304
726 2 2.2208 8.07622 28.9163 2.33447
727 1 -1.1104 9.27164 24.8381 3.73241
728 2 2.2208 7.95973 26.2665 5.1294
729 1 -1.1104 9.44991 21.898 0.955309
730 1 -1.1104 9.55222 27.595 0.931626
731 1 -1.1104 9.14645 22.0399 3.58983
732 1 -1.1104 9.34066 27.5527 3.61421
864 1 -1.1104 12.2177 27.5023 6.52185
862 1 -1.1104 12.3359 24.8472 6.79395
867 1 -1.1104 9.43207 27.4815 6.53334
865 1 -1.1104 9.44853 24.7369 6.45274
863 1 -1.1104 12.2873 22.0924 6.48053
866 1 -1.1104 9.5145 22.1273 6.52171
834 1 -1.1104 6.61489 27.785 6.4108
1555 1 -1.1104 9.61362 47.2374 6.5103
736 2 2.2208 5.13456 34.5655 5.21068
737 1 -1.1104 0.817191 30.399 0.898944
738 1 -1.1104 0.961701 36.1709 0.979083
740 1 -1.1104 1.09703 30.5278 3.77575
741 1 -1.1104 1.05152 36.1514 3.82546
743 1 -1.1104 0.971195 33.2628 0.878975
744 2 2.2208 5.12393 31.7255 2.32122
745 2 2.2208 5.14361 37.477 2.31638
746 1 -1.1104 0.980881 33.3663 3.89133
748 1 -1.1104 3.68143 30.5328 1.01611
749 1 -1.1104 3.71551 35.9653 0.913305
750 2 2.2208 2.46943 34.6905 2.35807
751 1 -1.1104 3.74759 30.3072 3.81488
752 1 -1.1104 3.77691 36.0041 3.71764
753 2 2.2208 2.52136 31.6996 5.12311
754 2 2.2208 2.42422 37.5746 5.17075
755 1 -1.1104 4.00184 33.2475 1.06635
756 1 -1.1104 3.78465 33.1984 3.84869
888 1 -1.1104 6.5412 30.5277 6.62652
760 1 -1.1104 6.58488 30.4233 0.831024
894 1 -1.1104 3.67013 33.1883 6.52993
886 1 -1.1104 1.01402 30.2347 6.55429
887 1 -1.1104 1.01506 36.2869 6.47746
9744 2 2.2208 13.6327 31.726 10.7593
9857 2 2.2208 -0.158915 40.3131 10.8628
1554 1 -1.1104 12.4319 47.2357 6.39222
9739 2 2.2208 13.6775 37.3419 10.8688
742 1 -1.1104 6.86707 36.0952 3.76981
891 1 -1.1104 6.59144 33.3043 6.57174
762 1 -1.1104 6.72757 33.1902 1.03453
747 1 -1.1104 6.6454 33.1626 3.82062
739 1 -1.1104 6.44578 36.1424 0.95817
761 1 -1.1104 6.54295 30.3513 3.70737
763 2 2.2208 10.8286 34.5477 5.22873
764 1 -1.1104 12.1015 30.303 0.851838
765 1 -1.1104 12.233 36.097 0.769887
766 1 -1.1104 12.2162 30.3058 3.58598
767 1 -1.1104 12.3713 35.9012 3.68338
768 1 -1.1104 12.1344 33.0886 0.879441
769 2 2.2208 10.8072 31.8059 2.27319
770 2 2.2208 11.0254 37.3654 2.40632