ITEM: TIMESTEP
80000
ITEM: NUMBER OF ATOMS
17910
ITEM: BOX BOUNDS pp pp pp
-4.0441473466516414e-01 2.7744414734665600e+01
-4.7673608730103982e+00 3.3284736087301741e+02
-4.0213459922179934e-01 2.7742134599221302e+01
ITEM: ATOMS id type q x y z
1 2 2.2208 5.23811 0.716349 5.21663
2 1 -1.1104 1.05743 -3.48826 1.03368
3 1 -1.1104 1.1081 2.10076 1.11308
6 1 -1.1104 1.08036 -3.23252 3.91304
7 1 -1.1104 1.10403 2.12404 4.03603
10 1 -1.1104 0.920631 -0.615544 1.02606
12 2 2.2208 5.29153 -1.90846 2.43089
14 1 -1.1104 0.895874 -0.57766 3.9599
16 1 -1.1104 3.99757 -3.37689 0.990856
17 1 -1.1104 3.82686 2.14057 0.849847
18 2 2.2208 2.43067 0.748243 2.42952
19 1 -1.1104 3.99687 -3.44103 3.76858
20 1 -1.1104 4.05909 2.09029 3.78581
21 2 2.2208 2.52374 -1.97699 5.14667
23 1 -1.1104 3.73575 -0.663357 1.01413
24 1 -1.1104 3.69116 -0.740905 3.76806
22 2 2.2208 2.50197 3.48583 5.18189
13 2 2.2208 5.24214 3.7532 2.40152
172 1 -1.1104 3.94755 -3.45173 6.597
173 1 -1.1104 3.87323 2.12494 6.4061
167 1 -1.1104 0.79553 2.17293 6.72023
166 1 -1.1104 1.03845 -3.37291 6.44753
170 1 -1.1104 1.13194 -0.567612 6.72404
322 2 2.2208 10.7068 -2.22626 13.5908
168 1 -1.1104 6.65245 -3.33942 6.69633
30 2 2.2208 -0.628661 11.8235 10.816
312 2 2.2208 -0.598378 -2.15129 13.4973
8979 2 2.2208 13.8083 14.9484 5.21404
318 2 2.2208 13.4609 0.827029 13.5344
5 1 -1.1104 6.70385 2.25162 1.21826
9 1 -1.1104 6.7372 2.10676 3.8198
8 1 -1.1104 6.64969 -3.43953 3.78446
171 1 -1.1104 6.71198 -0.683201 6.46653
9179 2 2.2208 -0.35488 6.3175 5.17126
15 1 -1.1104 6.56199 -0.641161 3.66648
11 1 -1.1104 6.71846 -0.568576 0.854232
4 1 -1.1104 6.65457 -3.55937 0.995231
31 2 2.2208 10.8467 0.825621 5.24205
32 1 -1.1104 12.3682 -3.54545 0.85874
33 1 -1.1104 12.2914 2.20841 0.979726
34 1 -1.1104 12.4582 -3.17401 3.66534
35 1 -1.1104 12.2843 2.21365 3.76468
36 1 -1.1104 12.3488 -0.528445 0.907219
37 2 2.2208 10.7845 -2.02269 2.36248
39 1 -1.1104 12.0846 -0.577544 3.81378
40 1 -1.1104 9.55624 -3.5317 1.15082
41 1 -1.1104 9.61283 2.29527 0.870593
42 2 2.2208 8.07355 0.97569 2.3523
43 1 -1.1104 9.54691 -3.55343 3.81156
44 1 -1.1104 9.64909 2.14787 3.71888
45 2 2.2208 8.11139 -2.08811 5.02932
46 2 2.2208 8.07948 3.4938 5.12788
47 1 -1.1104 9.4315 -0.537408 0.911121
48 1 -1.1104 9.50127 -0.655066 3.58532
38 2 2.2208 10.8219 3.61278 2.18437
206 1 -1.1104 12.254 2.30902 6.64393
205 1 -1.1104 12.0537 -3.36704 6.40669
208 1 -1.1104 9.34477 -3.38615 6.60668
353 2 2.2208 10.8703 17.5665 -0.37464
169 1 -1.1104 6.74669 2.32772 6.68891
200 2 2.2208 -0.591198 -1.98128 7.91405
9093 2 2.2208 13.73 12.0623 7.95364
54 2 2.2208 5.2167 6.31709 5.2027
55 2 2.2208 5.15941 12.0175 5.16144
56 1 -1.1104 1.11805 7.6793 0.874101
58 1 -1.1104 1.06332 7.61064 3.65374
60 1 -1.1104 1.00451 4.84402 0.910203
61 1 -1.1104 0.856781 10.5193 0.897591
66 2 2.2208 5.30394 9.01911 2.47238
67 1 -1.1104 1.03624 4.97786 3.69098
68 1 -1.1104 1.08406 10.364 3.67402
71 1 -1.1104 3.93837 7.72287 0.996555
72 2 2.2208 2.46713 6.4293 2.34597
73 2 2.2208 2.17454 11.8488 2.32169
74 1 -1.1104 4.00327 7.67211 3.86379
75 2 2.2208 2.42342 9.20355 5.22017
76 1 -1.1104 4.01579 4.90959 0.980205
77 1 -1.1104 3.73932 10.6325 0.997393
79 1 -1.1104 3.75027 4.82009 3.69432
80 1 -1.1104 3.86451 10.4791 3.56649
63 1 -1.1104 6.81416 5.02116 0.993543
236 1 -1.1104 1.02244 4.82512 6.63158
239 1 -1.1104 4.01732 4.9105 6.41354
78 1 -1.1104 3.7856 10.6232 6.50631
70 1 -1.1104 6.6307 10.4993 3.85036
235 1 -1.1104 6.60885 7.7014 6.61876
8910 2 2.2208 13.7501 9.2675 5.13024
201 2 2.2208 -0.507538 0.897686 10.8117
29 2 2.2208 -0.439695 6.39919 10.8194
59 1 -1.1104 6.88581 7.76687 3.76378
65 1 -1.1104 6.51212 10.6385 6.62167
237 1 -1.1104 6.80623 4.949 6.55602
69 1 -1.1104 6.61949 5.11538 3.82648
64 1 -1.1104 6.64151 10.6326 0.887604
57 1 -1.1104 6.64493 7.77078 0.843619
84 2 2.2208 10.878 6.46725 5.23972
85 2 2.2208 10.9549 12.0422 5.3979
86 1 -1.1104 12.4003 7.90217 1.09665
87 1 -1.1104 12.3513 7.77014 3.92376
88 1 -1.1104 12.4381 5.1317 0.826942
89 1 -1.1104 12.3662 10.5931 0.910986
91 2 2.2208 10.9317 9.24123 2.47938
92 1 -1.1104 12.1671 5.09841 3.72132
93 1 -1.1104 12.3376 10.7925 3.70926
94 1 -1.1104 9.37742 7.8683 1.05418
95 2 2.2208 8.05668 6.41767 2.32373
96 2 2.2208 8.0515 12.0242 2.4055
97 1 -1.1104 9.50037 7.87328 3.76342
98 2 2.2208 8.1805 9.15253 5.13922
99 1 -1.1104 9.62734 5.0625 0.939774
100 1 -1.1104 9.47511 10.7419 0.948011
102 1 -1.1104 9.43635 5.21604 3.84029
103 1 -1.1104 9.53659 10.637 3.91904
266 1 -1.1104 12.189 4.8651 6.60093
267 1 -1.1104 9.50266 7.855 6.64534
269 1 -1.1104 9.47336 5.04914 6.6046
90 1 -1.1104 12.3076 10.5556 6.51048
265 1 -1.1104 12.2505 7.7854 6.67325
101 1 -1.1104 9.4341 10.6682 6.50627
9077 2 2.2208 13.777 12.124 2.38592
9076 2 2.2208 13.745 6.3899 2.39605
106 2 2.2208 5.12203 17.5156 5.29887
107 1 -1.1104 0.810268 13.39 0.923794
109 1 -1.1104 1.01254 19.1518 1.19407
113 1 -1.1104 1.0249 13.2397 3.76151
114 1 -1.1104 0.995069 18.9761 4.05263
116 1 -1.1104 0.890312 16.0745 1.00845
119 2 2.2208 5.12536 14.6226 2.34756
120 2 2.2208 5.23669 20.4398 2.36717
121 1 -1.1104 1.04291 16.0178 3.84325
123 1 -1.1104 3.99765 13.4443 0.723392
125 1 -1.1104 3.73462 18.9359 1.02799
127 2 2.2208 2.34327 17.5512 2.37402
128 1 -1.1104 3.66865 13.1746 3.82493
129 1 -1.1104 3.71414 18.8879 3.7202
130 2 2.2208 2.40268 14.8175 5.28781
131 2 2.2208 2.35692 20.488 5.22735
132 1 -1.1104 3.72941 16.0267 1.12013
134 1 -1.1104 3.68382 16.1885 3.84057
117 1 -1.1104 1.08945 16.169 6.82813
302 1 -1.1104 1.12138 19.0668 6.68468
124 1 -1.1104 3.74783 13.134 6.79352
111 1 -1.1104 6.46521 13.6461 6.54192
317 2 2.2208 2.37761 0.879081 13.683
139 1 -1.1104 6.46428 18.9857 3.95389
140 1 -1.1104 6.54416 16.1365 1.09635
112 1 -1.1104 6.67783 19.1826 6.79342
118 1 -1.1104 6.70496 16.3327 6.5867
199 2 2.2208 -0.500089 3.64986 7.93991
108 1 -1.1104 0.899612 13.3412 6.64626
325 2 2.2208 5.14537 9.19476 13.5985
126 1 -1.1104 3.76004 18.8489 6.73361
202 2 2.2208 8.09756 14.9359 10.8642
135 1 -1.1104 12.3932 16.156 9.5075
28 2 2.2208 13.6508 20.6209 10.9631
231 1 -1.1104 9.47394 16.4163 9.39466
122 1 -1.1104 6.50804 15.8198 3.97964
110 1 -1.1104 6.85424 13.4715 0.965604
115 1 -1.1104 6.53784 13.1378 3.73057
138 1 -1.1104 6.60214 18.9911 1.17852
141 2 2.2208 10.8419 17.706 5.28364
142 1 -1.1104 12.2476 13.3275 1.09937
144 1 -1.1104 12.1711 18.9061 0.990635
146 1 -1.1104 12.3569 13.52 3.90948
147 1 -1.1104 12.3251 19.2856 3.83316
148 1 -1.1104 12.3397 16.121 0.94665
150 2 2.2208 10.8507 14.7246 2.53426
151 2 2.2208 10.8167 20.4489 2.47063
152 1 -1.1104 12.2686 16.5048 3.65898
153 1 -1.1104 9.46862 13.7663 1.09275
155 1 -1.1104 9.46691 19.2798 1.06902
157 2 2.2208 8.02836 17.823 2.33698
158 1 -1.1104 9.44693 13.3346 3.98551
159 1 -1.1104 9.16059 19.0933 3.97654
160 2 2.2208 8.15318 14.923 5.19407
161 2 2.2208 7.79185 20.4411 5.21773
162 1 -1.1104 9.34932 16.4449 0.847695
164 1 -1.1104 9.56472 16.2489 3.60678
149 1 -1.1104 12.2572 16.3827 6.65457
154 1 -1.1104 9.51367 13.5833 6.59825
156 1 -1.1104 9.4713 18.9456 6.58352
163 1 -1.1104 9.53099 16.2639 6.70152
25 2 2.2208 13.613 14.7812 10.8532
174 1 -1.1104 3.78644 -0.599896 6.52636
8908 2 2.2208 13.7392 17.7356 2.32612
9176 2 2.2208 13.6758 17.7046 8.02951
136 1 -1.1104 9.2331 13.4301 12.1305
82 1 -1.1104 12.289 18.9693 9.55355
316 2 2.2208 4.91406 -2.00899 13.5776
175 2 2.2208 5.11662 0.780668 10.7972
176 1 -1.1104 0.921696 -3.44309 11.925
177 1 -1.1104 1.02073 2.36994 12.1395
180 1 -1.1104 0.723029 -3.40682 9.27835
181 1 -1.1104 0.935218 2.36353 9.33266
184 1 -1.1104 0.805283 -0.694173 12.3199
186 2 2.2208 5.09858 -2.09208 8.07332
187 2 2.2208 5.35289 3.59528 7.99258
188 1 -1.1104 0.950789 -0.583814 9.43719
190 1 -1.1104 3.65436 -3.49007 12.2581
191 1 -1.1104 3.82196 2.1971 12.3195
192 2 2.2208 2.40679 0.797839 7.92725
193 1 -1.1104 3.63731 -3.27818 9.48698
194 1 -1.1104 3.83436 2.04424 9.2763
195 2 2.2208 2.26303 -1.9279 10.7274
197 1 -1.1104 3.63592 -0.54507 12.265
198 1 -1.1104 3.64454 -0.542911 9.48708
196 2 2.2208 2.4796 3.48302 10.6606
183 1 -1.1104 6.56647 2.22353 9.44242
182 1 -1.1104 6.57171 -3.55263 9.35728
324 2 2.2208 2.22101 6.47435 13.5334
27 1 -1.1104 12.0649 13.3833 12.1896
323 2 2.2208 10.6309 3.61328 13.6115
104 2 2.2208 10.7507 14.839 8.17037
210 1 -1.1104 9.35189 -0.656386 6.40092
207 1 -1.1104 12.2707 -0.48506 6.5805
165 2 2.2208 7.99552 17.7309 8.15765
81 1 -1.1104 12.2986 13.3528 9.49771
179 1 -1.1104 6.63797 2.00346 12.2486
189 1 -1.1104 6.46445 -0.707705 9.30867
185 1 -1.1104 6.28214 -0.85455 12.1076
178 1 -1.1104 6.4772 -3.22536 12.3974
209 1 -1.1104 9.47442 2.08635 6.62883
211 2 2.2208 10.8558 0.80023 10.8603
212 1 -1.1104 12.036 -3.46396 12.35
213 1 -1.1104 12.1308 2.19298 12.3031
214 1 -1.1104 12.2441 -3.47109 9.35711
215 1 -1.1104 12.3553 2.33868 9.47402
216 1 -1.1104 12.1503 -0.5478 12.2574
217 2 2.2208 10.8749 -2.09759 7.97181
219 1 -1.1104 12.3806 -0.507728 9.40092
220 1 -1.1104 9.22313 -3.45926 12.1213
221 1 -1.1104 9.33468 2.06546 12.1049
222 2 2.2208 8.13532 0.653912 8.02089
223 1 -1.1104 9.46346 -3.35626 9.39047
224 1 -1.1104 9.46919 2.17495 9.50453
225 2 2.2208 7.84238 -2.02316 10.7098
226 2 2.2208 7.90033 3.52707 10.7637
227 1 -1.1104 9.30133 -0.427391 12.2441
228 1 -1.1104 9.35685 -0.617759 9.32864
218 2 2.2208 10.6931 3.65596 7.98441
105 2 2.2208 10.7873 20.4392 7.8565
62 1 -1.1104 0.841531 10.4456 6.57144
238 1 -1.1104 3.79877 7.64604 6.73507
83 1 -1.1104 12.1521 16.3061 12.312
145 1 -1.1104 12.3664 19.0392 6.52476
329 2 2.2208 7.89965 12.073 13.5756
234 1 -1.1104 1.12796 7.84764 6.56291
240 2 2.2208 5.12857 6.37769 10.8282
241 2 2.2208 5.20407 12.0646 10.9929
242 1 -1.1104 0.73944 7.93687 12.1732
244 1 -1.1104 0.92606 7.70196 9.24571
246 1 -1.1104 0.918533 5.03088 12.1991
247 1 -1.1104 0.804453 10.5308 11.9794
250 2 2.2208 5.24723 9.09477 8.01589
251 1 -1.1104 0.906081 5.12652 9.35956
252 1 -1.1104 0.6625 10.6032 9.24142
255 1 -1.1104 3.57759 7.79979 12.1063
256 2 2.2208 2.36685 6.46661 7.90059
257 2 2.2208 2.35785 12.0772 8.24337
258 1 -1.1104 3.74839 7.77993 9.40697
259 2 2.2208 2.30561 9.25319 10.7626
260 1 -1.1104 3.61104 5.05293 12.2182
261 1 -1.1104 3.6215 10.4378 12.3653
262 1 -1.1104 3.86182 4.84391 9.33368
263 1 -1.1104 3.48106 10.6285 9.67734
254 1 -1.1104 6.34227 10.7294 9.44349
248 1 -1.1104 6.44037 4.92571 12.0687
243 1 -1.1104 6.45577 7.91757 12.1373
245 1 -1.1104 6.49419 7.91413 9.28613
26 2 2.2208 10.8158 17.6424 10.9273
253 1 -1.1104 6.81973 5.04494 9.34042
249 1 -1.1104 6.69281 10.6284 12.2037
264 1 -1.1104 9.41761 10.6163 9.26156
268 1 -1.1104 9.3334 4.93679 9.33645
270 1 -1.1104 9.35896 10.7251 12.1509
271 1 -1.1104 9.41626 5.12985 12.1526
272 2 2.2208 7.92239 9.31881 10.7928
273 1 -1.1104 9.34258 7.79201 9.46095
274 2 2.2208 7.94878 11.8956 7.83082
275 2 2.2208 7.98094 6.43883 7.94816
276 2 2.2208 10.8079 6.5821 10.732
277 2 2.2208 10.7792 12.0684 10.7186
278 1 -1.1104 12.0031 7.81095 12.2286
279 1 -1.1104 12.2517 7.94945 9.42502
280 1 -1.1104 12.1494 4.94123 12.1721
281 1 -1.1104 12.2296 10.6034 12.1688
282 2 2.2208 10.8595 9.25784 7.88698
283 1 -1.1104 12.1331 5.18106 9.19732
284 1 -1.1104 12.2207 10.7037 9.26994
285 1 -1.1104 9.34102 7.76768 12.4174
137 1 -1.1104 9.50588 19.0568 12.0354
311 1 -1.1104 9.44203 13.5505 9.50757
133 1 -1.1104 3.81314 16.0706 6.81311
49 1 -1.1104 12.2908 19.1219 12.2579
288 1 -1.1104 6.50734 18.9426 9.60288
296 1 -1.1104 6.6797 19.2971 12.372
203 2 2.2208 8.04796 20.5425 10.8499
286 1 -1.1104 3.93729 19.0495 12.3089
287 1 -1.1104 3.57805 13.3223 12.5376
291 1 -1.1104 0.872629 19.0213 9.59056
292 1 -1.1104 0.874571 16.2117 9.67512
293 2 2.2208 5.13411 20.5584 8.05157
294 1 -1.1104 0.930473 13.3054 9.52019
295 2 2.2208 5.16271 14.6591 8.18057
298 1 -1.1104 0.931385 18.924 12.4834
299 1 -1.1104 0.768815 13.2867 12.481
300 2 2.2208 5.25278 17.6604 10.9579
301 1 -1.1104 3.8295 19.1875 9.50336
303 2 2.2208 2.54339 17.6371 8.21721
304 1 -1.1104 3.84823 16.3653 9.77854
305 1 -1.1104 3.86003 13.4405 9.62515
307 1 -1.1104 1.19266 15.9176 12.5131
308 1 -1.1104 4.0096 16.1674 12.4277
309 2 2.2208 2.34054 20.4283 10.8557
310 2 2.2208 2.42065 14.6721 11.0697
289 1 -1.1104 6.68282 16.2016 9.42865
297 1 -1.1104 6.36154 13.5928 12.4869
290 1 -1.1104 6.74626 13.372 9.48414
306 1 -1.1104 6.64706 16.2244 12.2528
204 1 -1.1104 9.41355 16.304 12.4038
232 1 -1.1104 9.34674 19.1895 9.30445
143 1 -1.1104 12.2734 13.408 6.94006
9178 2 2.2208 13.6423 0.80148 2.365
8881 2 2.2208 13.547 3.6645 5.04321
52 2 2.2208 13.6791 6.43231 7.91536
53 2 2.2208 13.5842 3.62696 10.8003
9180 2 2.2208 -0.440404 9.05915 2.32414
341 2 2.2208 5.1765 17.5428 -0.127785
321 2 2.2208 7.82436 0.717385 13.6185
8469 2 2.2208 8.00138 -4.8144 13.6143
8461 2 2.2208 10.6868 -4.8576 -0.46364
328 2 2.2208 10.7681 9.28332 13.4623
326 2 2.2208 2.31803 12.0097 13.834
314 2 2.2208 13.4092 6.26947 13.7049
342 2 2.2208 2.57631 20.3878 -0.526616
315 2 2.2208 -0.492141 3.72148 13.5796
344 2 2.2208 10.8854 0.70847 -0.485112
346 2 2.2208 8.11066 3.53701 -0.321888
330 2 2.2208 2.36523 17.5448 13.8937
9208 2 2.2208 13.6355 20.485 -0.44286
345 2 2.2208 8.05617 -2.02416 -0.519266
358 2 2.2208 5.01987 0.757597 16.432
359 1 -1.1104 1.07656 -3.32764 17.8284
360 1 -1.1104 1.02325 2.54188 17.9946
363 1 -1.1104 0.821961 -3.46312 14.9723
365 1 -1.1104 0.99045 2.14244 14.9056
371 1 -1.1104 1.00216 -0.4018 17.7668
373 2 2.2208 4.97474 -1.98295 19.0729
375 1 -1.1104 0.798204 -0.66866 14.8722
379 1 -1.1104 3.68135 -3.44012 17.6447
380 1 -1.1104 3.86661 2.19082 17.8541
381 2 2.2208 2.20402 0.960862 19.2641
382 1 -1.1104 3.56282 -3.31735 14.9402
384 1 -1.1104 3.67562 2.37893 15.0439
386 2 2.2208 2.21696 -1.90365 16.3132
388 1 -1.1104 3.67583 -0.794919 17.687
389 1 -1.1104 3.67323 -0.588559 15.0254
387 2 2.2208 2.40744 3.8463 16.3967
374 2 2.2208 5.18818 3.67126 19.2167
364 1 -1.1104 0.865158 -3.3573 20.5829
383 1 -1.1104 3.64376 -3.44939 20.567
385 1 -1.1104 3.87548 2.31769 20.5669
376 1 -1.1104 0.838061 -0.636247 20.7507
368 1 -1.1104 6.30052 -3.27979 20.3869
8843 2 2.2208 -0.584451 -4.76237 16.3286
362 1 -1.1104 6.63019 2.12015 17.6749
350 2 2.2208 2.35636 9.01545 27.7288
366 1 -1.1104 0.8188 2.17903 20.6879
589 2 2.2208 13.6195 14.7794 16.5819
390 1 -1.1104 3.38042 -0.529856 20.5769
337 2 2.2208 5.29855 0.651892 27.6898
9250 2 2.2208 -0.458357 20.5145 24.8449
361 1 -1.1104 6.4295 -3.33564 17.6831
372 1 -1.1104 6.40045 -0.575918 17.8321
352 2 2.2208 7.96095 14.9472 27.6988
369 1 -1.1104 6.53818 2.13445 14.9112
377 1 -1.1104 6.44232 -0.64935 14.8472
367 1 -1.1104 6.47746 -3.48125 14.9982
370 1 -1.1104 6.61516 2.33202 20.5038
401 2 2.2208 10.7098 0.811434 16.2986
402 1 -1.1104 12.1593 -3.33589 17.7614
403 1 -1.1104 12.33 2.16834 17.7364
404 1 -1.1104 12.0468 -3.56252 15.0362
406 1 -1.1104 12.1872 2.13748 15.041
408 1 -1.1104 12.1003 -0.48087 17.7276
409 2 2.2208 10.7029 -1.9916 19.2621
410 2 2.2208 11.0589 3.55404 19.1949
411 1 -1.1104 12.1754 -0.592766 14.939
413 1 -1.1104 9.42833 -3.59798 17.7519
414 1 -1.1104 9.47427 2.12509 17.726
415 2 2.2208 7.98913 0.894259 19.2611
416 1 -1.1104 9.33132 -3.36007 15.0769
418 1 -1.1104 9.35058 2.15983 14.7972
420 2 2.2208 7.7104 -2.04797 16.3085
421 2 2.2208 7.85639 3.56725 16.2106
422 1 -1.1104 9.07934 -0.843158 17.9653
423 1 -1.1104 9.19723 -0.511785 15.119
424 1 -1.1104 9.37669 -0.566707 20.7353
405 1 -1.1104 11.9482 -3.26783 20.8055
378 1 -1.1104 6.43965 -0.58136 20.799
417 1 -1.1104 9.16842 -3.50187 20.5697
419 1 -1.1104 9.3783 2.26965 20.6723
429 2 2.2208 13.5326 -1.9044 16.3749
9187 2 2.2208 13.6685 9.08197 27.7547
407 1 -1.1104 12.2009 2.1744 20.5865
335 2 2.2208 7.96874 17.7796 13.5957
530 1 -1.1104 9.30158 18.8607 26.5726
427 2 2.2208 -0.57106 14.8395 19.4896
400 1 -1.1104 12.2747 13.4186 26.2646
592 2 2.2208 -0.369632 9.26208 19.2869
434 2 2.2208 5.19185 6.57675 16.3552
435 2 2.2208 5.36024 12.1428 16.5412
436 1 -1.1104 0.801236 7.84884 17.9311
438 1 -1.1104 0.826768 8.08055 14.9587
442 1 -1.1104 1.00448 5.30282 17.6808
443 1 -1.1104 0.948698 10.6371 18.0961
446 2 2.2208 5.2111 9.19427 19.2977
447 1 -1.1104 0.822063 5.14614 15.0418
449 1 -1.1104 0.782053 10.5872 15.1764
455 1 -1.1104 3.86344 7.76871 17.7905
456 2 2.2208 2.47533 6.47848 19.2992
457 2 2.2208 2.3986 11.9453 19.4257
458 1 -1.1104 3.75612 8.00162 14.9331
460 2 2.2208 2.34406 9.26419 16.4821
461 1 -1.1104 3.78461 4.99516 17.8679
462 1 -1.1104 3.80133 10.5762 17.9047
463 1 -1.1104 3.56356 5.3644 15.0645
465 1 -1.1104 3.90882 10.7235 15.048
459 1 -1.1104 3.87592 7.90403 20.6801
464 1 -1.1104 3.87204 5.08631 20.5567
448 1 -1.1104 1.13599 5.07662 20.6312
440 1 -1.1104 6.65951 7.94829 14.9628
454 1 -1.1104 6.55429 10.6222 20.6421
451 1 -1.1104 6.52522 5.03807 14.8599
444 1 -1.1104 6.59696 4.89635 17.5812
437 1 -1.1104 6.61832 7.67283 17.7997
621 2 2.2208 13.5649 6.26933 19.2166
393 2 2.2208 13.6872 3.49804 22.1594
9210 2 2.2208 -0.384596 11.9555 27.6647
391 2 2.2208 -0.314801 6.32609 22.0099
445 1 -1.1104 6.64081 10.5142 17.8629
453 1 -1.1104 6.54978 10.893 14.9963
470 2 2.2208 10.8248 6.43803 16.4784
471 2 2.2208 10.9059 12.086 16.3501
472 1 -1.1104 12.2774 7.75159 17.7562
473 1 -1.1104 12.1363 7.91999 15.0034
475 1 -1.1104 12.3086 4.88137 17.7451
476 1 -1.1104 12.044 10.508 17.8403
477 2 2.2208 10.8264 9.17682 19.3567
478 1 -1.1104 12.1659 5.02768 15.0496
480 1 -1.1104 12.2302 10.781 14.9676
482 1 -1.1104 9.30334 7.79778 18.0273
483 2 2.2208 7.8122 6.34836 19.1954
484 2 2.2208 7.91743 11.9541 19.2805
485 1 -1.1104 9.49506 7.7222 15.0014
487 2 2.2208 8.15111 9.24648 16.3247
488 1 -1.1104 9.52574 5.04983 17.6999
489 1 -1.1104 9.29467 10.6987 17.7999
490 1 -1.1104 9.30081 4.93132 15.0836
492 1 -1.1104 9.48484 10.6717 14.9576
452 1 -1.1104 6.66051 4.89263 20.5698
441 1 -1.1104 6.58802 7.66029 20.6481
493 1 -1.1104 9.39008 10.6423 20.6514
491 1 -1.1104 9.35948 4.98827 20.4286
486 1 -1.1104 9.57616 7.88531 20.7769
481 1 -1.1104 12.0549 10.4608 20.6318
392 2 2.2208 13.5004 9.04862 22.0249
9216 2 2.2208 13.606 3.61636 27.6519
433 2 2.2208 10.6944 20.364 25.0484
354 2 2.2208 10.8362 6.50211 27.7893
497 2 2.2208 5.19145 17.8278 16.5145
498 1 -1.1104 1.04915 13.4077 18.0484
499 1 -1.1104 0.89391 19.2793 17.9369
502 1 -1.1104 1.12281 13.4047 15.2284
504 1 -1.1104 0.910344 18.9848 15.1772
510 1 -1.1104 0.839018 16.3007 18.1091
512 2 2.2208 5.14213 14.8186 19.4328
513 2 2.2208 5.02435 20.6319 19.3876
514 1 -1.1104 0.999385 16.1811 15.2655
518 1 -1.1104 3.86823 13.3526 18.0088
519 1 -1.1104 3.76617 19.1225 17.7586
520 2 2.2208 2.27045 17.7412 19.2879
521 1 -1.1104 3.77954 13.5256 15.1354
523 1 -1.1104 3.82305 19.176 15.0253
525 2 2.2208 2.36473 14.861 16.7116
526 2 2.2208 2.3854 20.4541 16.5453
527 1 -1.1104 3.78013 16.3502 18.0668
528 1 -1.1104 3.8058 16.2856 15.2308
529 1 -1.1104 3.64651 16.4473 20.8404
532 2 2.2208 7.84009 20.5185 22.1186
516 1 -1.1104 6.65476 16.2497 15.2031
508 1 -1.1104 6.64434 19.2231 15.1352
524 1 -1.1104 3.79296 19.2952 20.7333
505 1 -1.1104 1.04038 19.0895 20.837
560 1 -1.1104 12.2689 18.9296 23.5334
623 2 2.2208 13.6639 -2.05482 22.1251
618 2 2.2208 -0.596881 11.9715 16.4886
507 1 -1.1104 6.55095 13.5404 20.814
537 1 -1.1104 12.1642 13.2931 20.4403
469 1 -1.1104 9.35398 19.4269 23.5156
511 1 -1.1104 6.58646 16.2379 17.923
501 1 -1.1104 6.37215 19.1005 18.0756
506 1 -1.1104 6.72284 13.3944 15.2503
551 1 -1.1104 9.3755 19.1559 20.7411
500 1 -1.1104 6.68963 13.4933 18.0598
533 2 2.2208 10.7848 17.7968 16.4751
534 1 -1.1104 12.2949 13.3723 17.6317
535 1 -1.1104 12.0226 19.0665 17.8623
536 1 -1.1104 12.2051 13.6216 14.9392
538 1 -1.1104 12.1742 19.1732 15.1246
540 1 -1.1104 12.3382 16.2998 17.8882
541 2 2.2208 10.7433 14.8332 19.1947
542 2 2.2208 10.8287 20.4474 19.2316
543 1 -1.1104 12.23 16.5246 15.1941
545 1 -1.1104 9.58433 13.5538 17.7053
546 1 -1.1104 9.36296 19.2742 17.8872
547 2 2.2208 7.87273 17.7138 19.2617
548 1 -1.1104 9.31355 13.6508 14.9539
550 1 -1.1104 9.42326 19.0411 14.9772
552 2 2.2208 8.22701 14.9025 16.5238
553 2 2.2208 8.0231 20.674 16.5788
554 1 -1.1104 9.48354 16.3974 17.9816
555 1 -1.1104 9.48462 16.3763 15.0932
539 1 -1.1104 12.1868 18.9743 20.5208
549 1 -1.1104 9.44388 13.482 20.5162
585 1 -1.1104 12.1188 13.4147 23.5072
544 1 -1.1104 12.0406 16.1439 20.6868
398 2 2.2208 13.6212 0.853697 19.0911
495 1 -1.1104 6.55453 19.0627 26.5124
355 2 2.2208 7.98791 9.25445 27.8202
431 1 -1.1104 12.2339 16.2327 23.3029
339 2 2.2208 2.43817 3.41431 27.6385
561 2 2.2208 5.24053 0.901984 22.0844
562 1 -1.1104 0.815936 -3.42557 23.3941
563 1 -1.1104 1.06112 2.4266 23.5237
566 1 -1.1104 1.11374 -3.41029 26.273
567 1 -1.1104 0.960254 2.09732 26.433
570 1 -1.1104 0.933854 -0.475895 23.4451
572 2 2.2208 5.32701 -2.10859 24.8554
574 1 -1.1104 0.957708 -0.568725 26.4104
576 1 -1.1104 3.71596 -3.32898 23.599
577 1 -1.1104 4.06478 2.29577 23.3096
578 2 2.2208 2.31336 0.858573 24.781
579 1 -1.1104 3.94285 -3.34167 26.3785
580 1 -1.1104 3.87471 2.12104 26.107
581 2 2.2208 2.34795 -2.05017 22.091
582 2 2.2208 2.43654 3.49142 21.9584
583 1 -1.1104 3.76306 -0.481433 23.4187
584 1 -1.1104 3.57463 -0.673333 26.2371
573 2 2.2208 5.33265 3.67999 24.8815
591 2 2.2208 -0.443872 6.4481 16.4549
557 1 -1.1104 9.39031 16.4917 23.6478
556 1 -1.1104 9.13518 16.3521 20.7291
412 1 -1.1104 12.2525 -0.572362 20.6338
432 2 2.2208 10.7518 14.7297 24.9324
338 2 2.2208 2.49359 -1.96903 27.7792
565 1 -1.1104 6.7327 2.34428 23.4242
569 1 -1.1104 6.59083 2.29967 26.3762
571 1 -1.1104 6.61958 -0.611064 23.6161
575 1 -1.1104 6.61053 -0.60033 26.3277
564 1 -1.1104 6.47913 -3.50822 23.3363
568 1 -1.1104 6.80125 -3.44883 26.1729
597 2 2.2208 10.8907 0.736394 21.8603
598 1 -1.1104 11.9823 -3.52168 23.6515
599 1 -1.1104 12.3905 2.07036 23.3861
600 1 -1.1104 12.2624 -3.46536 26.3829
601 1 -1.1104 12.3045 2.16588 26.1056
602 1 -1.1104 12.1574 -0.588061 23.4505
603 2 2.2208 10.7328 -1.95543 24.9453
605 1 -1.1104 12.3138 -0.619086 26.3089
606 1 -1.1104 9.2186 -3.4138 23.4545
607 1 -1.1104 9.63295 2.12614 23.1871
608 2 2.2208 7.94248 0.879798 24.7527
609 1 -1.1104 9.45828 -3.51569 26.2227
610 1 -1.1104 9.38604 2.09647 26.2233
611 2 2.2208 7.81172 -2.06442 22.0038
612 2 2.2208 8.09858 3.6702 21.8542
613 1 -1.1104 9.36631 -0.611288 23.5175
614 1 -1.1104 9.36705 -0.576998 26.3072
604 2 2.2208 10.761 3.56954 24.9779
468 1 -1.1104 9.42991 13.494 23.5547
586 2 2.2208 10.7742 17.6502 22.0672
347 2 2.2208 13.5651 11.9731 13.5371
450 1 -1.1104 0.984933 10.6625 20.7722
439 1 -1.1104 1.1316 7.69602 20.7272
466 1 -1.1104 3.77185 10.5779 20.6923
679 1 -1.1104 6.46621 18.9882 23.6742
675 1 -1.1104 6.67186 13.3717 23.5075
626 2 2.2208 5.13897 6.32749 22.0666
627 2 2.2208 5.18945 12.0837 22.057
628 1 -1.1104 0.956973 7.78131 23.4806
630 1 -1.1104 0.887802 7.55194 26.2424
632 1 -1.1104 1.12376 5.02185 23.468
633 1 -1.1104 0.858065 10.4943 23.6104
636 2 2.2208 5.26393 9.15938 24.8527
637 1 -1.1104 0.911333 4.79118 26.2655
638 1 -1.1104 1.09156 10.5362 26.4162
641 1 -1.1104 3.78579 7.76928 23.5382
642 2 2.2208 2.43679 6.26469 24.7511
643 2 2.2208 2.39373 11.9023 24.9344
644 1 -1.1104 3.67985 7.49382 26.3833
645 2 2.2208 2.21975 9.28843 22.2164
646 1 -1.1104 3.88433 5.02305 23.4793
647 1 -1.1104 3.76415 10.6681 23.6357
648 1 -1.1104 3.79486 4.95506 26.3454
649 1 -1.1104 3.8351 10.3615 26.3252
640 1 -1.1104 6.49318 10.819 26.1028
629 1 -1.1104 6.64114 7.76835 23.4098
425 1 -1.1104 12.2335 19.1508 26.3412
631 1 -1.1104 6.51908 7.86268 26.276
332 2 2.2208 5.16622 14.899 13.8791
620 2 2.2208 13.635 11.9716 19.1429
682 1 -1.1104 6.6741 13.4419 26.3084
558 1 -1.1104 9.54386 16.0792 26.2644
479 1 -1.1104 12.0575 4.96328 20.6884
684 1 -1.1104 6.56123 16.2563 26.2295
634 1 -1.1104 6.68628 5.07682 23.5325
635 1 -1.1104 6.53754 10.5202 23.3614
474 1 -1.1104 12.3846 7.61076 20.7297
639 1 -1.1104 6.59448 4.98879 26.2595
657 1 -1.1104 9.34752 10.4422 26.265
658 1 -1.1104 9.32434 5.01469 26.3144
659 1 -1.1104 9.43472 10.6817 23.434
660 1 -1.1104 9.38721 4.87797 23.4399
661 2 2.2208 7.97527 9.08339 22.0009
662 1 -1.1104 9.26822 7.83379 26.4574
663 2 2.2208 7.94033 11.9578 24.8951
664 2 2.2208 8.03692 6.41365 24.848
665 2 2.2208 10.8715 6.29408 22.0227
666 2 2.2208 10.7251 12.1168 22.0732
667 1 -1.1104 12.2869 7.82062 23.4319
668 1 -1.1104 12.0852 7.98623 26.2304
669 1 -1.1104 12.2334 4.88286 23.4988
670 1 -1.1104 12.1189 10.7177 23.2188
671 2 2.2208 10.7457 9.39743 24.8098
672 1 -1.1104 12.1648 4.89819 26.333
673 1 -1.1104 12.0526 10.727 26.2659
674 1 -1.1104 9.41615 7.87109 23.5082
522 1 -1.1104 3.69309 13.523 20.7174
509 1 -1.1104 6.53325 19.0809 20.8618
515 1 -1.1104 0.800834 16.2041 20.786
503 1 -1.1104 0.867488 13.4117 20.7163
617 1 -1.1104 6.56885 16.1794 23.4687
587 2 2.2208 2.30256 14.7415 22.079
590 2 2.2208 2.4627 20.5229 22.2335
615 1 -1.1104 3.84628 16.2964 23.6744
616 1 -1.1104 1.07429 16.2866 23.4082
619 1 -1.1104 3.92493 13.3368 26.3046
622 1 -1.1104 3.74709 16.1002 26.4483
650 2 2.2208 2.41269 17.6202 25.0604
651 1 -1.1104 3.95312 18.9181 26.2669
652 2 2.2208 5.14958 17.742 22.1971
654 1 -1.1104 0.803419 13.3977 23.506
656 1 -1.1104 0.90528 19.2058 23.6702
676 2 2.2208 5.24923 14.8459 25.0021
677 2 2.2208 5.29456 20.4483 25.0058
681 1 -1.1104 3.5892 19.1508 23.5623
683 1 -1.1104 3.74253 13.2902 23.3891
685 1 -1.1104 1.22383 18.9873 26.4872
686 1 -1.1104 0.948734 16.0624 26.3015
687 1 -1.1104 1.02877 13.2518 26.1985
467 1 -1.1104 12.2916 16.1348 26.3814
517 1 -1.1104 6.46742 16.3998 20.719
496 1 -1.1104 9.40426 13.1952 26.1984
494 2 2.2208 8.02472 17.7197 24.8902
531 2 2.2208 8.03215 14.8592 22.118
356 2 2.2208 10.7991 12.0983 27.6374
395 2 2.2208 -0.379248 -2.12199 19.2319
351 2 2.2208 5.12422 11.8684 27.6143
333 2 2.2208 10.8554 20.5614 13.6299
327 2 2.2208 8.00422 6.36097 13.612
340 2 2.2208 2.38872 14.7724 27.6889
9188 2 2.2208 -0.337943 6.20268 27.7588
357 2 2.2208 7.95259 20.4304 27.9532
319 2 2.2208 5.0332 3.58102 13.5383
343 2 2.2208 -0.644645 9.35739 13.6012
349 2 2.2208 5.18551 6.40924 27.6258
334 2 2.2208 10.7897 14.8933 13.6727
331 2 2.2208 5.25181 20.625 13.6398
688 2 2.2208 5.13548 23.3048 5.20027
689 2 2.2208 5.07061 28.9656 5.11113
690 1 -1.1104 1.02852 24.7688 1.2122
691 1 -1.1104 0.984221 24.6084 3.90357
692 1 -1.1104 0.903998 21.9819 0.953584
693 1 -1.1104 0.82888 27.4938 1.13007
694 2 2.2208 5.05224 26.048 2.40671
695 1 -1.1104 0.911965 21.8329 3.91446
696 1 -1.1104 0.952625 27.4736 3.98395
697 1 -1.1104 3.787 24.5385 1.1561
698 2 2.2208 2.35287 23.3081 2.37379
699 2 2.2208 2.29306 28.9735 2.52884
700 1 -1.1104 3.83538 24.7301 3.79362
701 2 2.2208 2.25007 26.0091 5.34786
702 1 -1.1104 3.89573 21.7994 0.815752
703 1 -1.1104 3.54953 27.5572 1.18306
704 1 -1.1104 3.72107 22.0035 3.67151
705 1 -1.1104 3.65319 27.5548 3.94066
836 1 -1.1104 3.76834 21.7271 6.63555
832 1 -1.1104 0.878316 27.3857 6.83215
712 1 -1.1104 6.45307 27.6781 0.961103
711 1 -1.1104 6.59657 21.8494 1.18668
709 1 -1.1104 6.6384 24.7182 0.939187
714 1 -1.1104 6.43799 27.4808 3.86156
834 1 -1.1104 6.66279 27.7226 6.69547
831 1 -1.1104 0.923172 21.8813 6.74478
835 1 -1.1104 3.8917 24.7282 6.67967
1529 1 -1.1104 1.08402 47.2963 9.6141
1346 1 -1.1104 3.94473 47.2868 0.742934
993 2 2.2208 5.18264 40.0887 -0.517055
1385 1 -1.1104 9.57796 47.0949 3.75397
710 1 -1.1104 6.5258 24.6114 3.85275
713 1 -1.1104 6.53248 21.6301 3.87187
715 2 2.2208 10.8152 23.3475 5.06867
716 2 2.2208 10.7901 28.8775 5.33672
717 1 -1.1104 12.2178 24.4284 0.73635
718 1 -1.1104 12.2349 24.5908 3.56376
719 1 -1.1104 12.3485 21.8498 1.16967
720 1 -1.1104 12.1623 27.154 1.02981
721 2 2.2208 10.75 25.9692 2.2084
722 1 -1.1104 12.1537 22.0336 3.78197
723 1 -1.1104 12.2759 27.5277 3.8248
724 1 -1.1104 9.46724 24.7941 0.779189
725 2 2.2208 7.93519 23.1758 2.4744
726 2 2.2208 8.01614 29.0325 2.47177
727 1 -1.1104 9.51397 24.6915 3.71382
728 2 2.2208 7.9441 26.1475 5.25902
729 1 -1.1104 9.32443 21.7958 1.08177
730 1 -1.1104 9.39839 27.6163 1.03621
731 1 -1.1104 9.35635 21.854 3.92078
732 1 -1.1104 9.39163 27.5521 3.85637
862 1 -1.1104 12.2014 24.8057 6.55101
863 1 -1.1104 12.1213 22.0711 6.60866
866 1 -1.1104 9.27457 21.9997 6.60363
864 1 -1.1104 12.1526 27.5228 6.65658
9680 2 2.2208 13.6819 28.8821 8.07174
736 2 2.2208 5.12297 34.5048 5.13134
737 1 -1.1104 1.08483 30.4277 1.0491
738 1 -1.1104 0.97685 35.9885 0.985694
740 1 -1.1104 0.959383 30.4003 3.78221
741 1 -1.1104 1.21505 35.8514 3.71216
743 1 -1.1104 1.07194 33.1106 0.905967
744 2 2.2208 5.26487 31.7786 2.39229
745 2 2.2208 5.06614 37.3288 2.3907
746 1 -1.1104 1.26838 33.2343 3.86669
748 1 -1.1104 3.97985 30.3736 0.876528
749 1 -1.1104 3.88211 35.8998 1.04561
750 2 2.2208 2.55879 34.4073 2.31195
751 1 -1.1104 3.73309 30.403 3.59434
752 1 -1.1104 3.85669 35.8957 3.69618
753 2 2.2208 2.37771 31.7582 5.22282
754 2 2.2208 2.31085 37.4177 5.23773
755 1 -1.1104 3.92233 33.1778 0.938266
756 1 -1.1104 3.80991 33.1194 3.77115
886 1 -1.1104 1.01214 30.1549 6.55125
893 1 -1.1104 3.99484 36.1099 6.40491
890 1 -1.1104 0.998083 33.2539 6.79599
742 1 -1.1104 6.6347 35.9153 3.86815
760 1 -1.1104 6.56723 30.4874 0.908894
894 1 -1.1104 3.89238 33.1458 6.61905
827 1 -1.1104 12.238 38.8045 9.34906
977 2 2.2208 8.19541 40.1096 8.10424
1003 2 2.2208 5.33819 42.7605 13.6744
9855 2 2.2208 -0.245651 42.9022 8.11729
739 1 -1.1104 6.61578 35.9192 1.03563
762 1 -1.1104 6.60459 33.2131 1.17868
761 1 -1.1104 6.57266 30.3169 3.73442
747 1 -1.1104 6.60211 33.1766 3.89287
763 2 2.2208 10.8766 34.4572 5.27777
764 1 -1.1104 12.1806 30.1579 0.866934
765 1 -1.1104 12.2281 35.8139 1.0183
766 1 -1.1104 12.1066 30.3786 3.9095
767 1 -1.1104 12.1113 36.0298 3.87307
768 1 -1.1104 12.1589 33.0198 0.97046
769 2 2.2208 10.8158 31.6403 2.30879
770 2 2.2208 10.6826 37.4089 2.51132
771 1 -1.1104 12.4191 33.1587 3.80257
772 1 -1.1104 9.34204 30.3968 1.05554
773 1 -1.1104 9.40196 35.9259 1.03763
774 2 2.2208 7.99549 34.4695 2.55667
775 1 -1.1104 9.47235 30.3565 3.79286
776 1 -1.1104 9.40855 35.87 3.90091
777 2 2.2208 8.01632 31.5906 5.14969
778 2 2.2208 7.98191 37.1899 5.34104
779 1 -1.1104 9.38557 33.0386 0.949215
780 1 -1.1104 9.42158 33.0194 3.78461
920 1 -1.1104 12.1429 30.2653 6.64648
924 1 -1.1104 9.40764 35.8085 6.70489
9845 2 2.2208 -0.288473 37.4466 2.47943