ITEM: TIMESTEP
30000
ITEM: NUMBER OF ATOMS
17910
ITEM: BOX BOUNDS pp pp pp
-4.0670552943513988e-01 2.7746705529435573e+01
-4.7802266460312000e+00 3.3286022664603706e+02
-3.8996373446575067e-01 2.7729963734465962e+01
ITEM: ATOMS id type q x y z
1 2 2.2208 5.21005 0.983218 5.2927
2 1 -1.1104 0.978511 -3.30114 1.04864
3 1 -1.1104 1.13342 2.26296 1.00906
6 1 -1.1104 1.1263 -3.21411 3.80785
7 1 -1.1104 0.971537 2.47377 3.97249
10 1 -1.1104 0.94734 -0.63657 0.881199
12 2 2.2208 5.1711 -1.94758 2.55447
13 2 2.2208 5.1033 3.55827 2.65782
14 1 -1.1104 0.899393 -0.389183 3.82778
16 1 -1.1104 3.71882 -3.31645 1.1988
17 1 -1.1104 3.78998 2.16809 1.24476
18 2 2.2208 2.47624 0.828765 2.58165
19 1 -1.1104 3.77287 -3.26736 3.69924
20 1 -1.1104 3.71296 2.30025 3.99272
21 2 2.2208 2.42578 -1.82449 5.19261
22 2 2.2208 2.41507 3.71948 5.50082
23 1 -1.1104 3.79895 -0.673585 1.01879
24 1 -1.1104 3.83423 -0.384524 3.79778
166 1 -1.1104 1.00872 -3.16612 6.73029
9 1 -1.1104 6.66219 2.13669 3.99801
15 1 -1.1104 6.64985 -0.495368 3.85547
173 1 -1.1104 4.02966 2.50513 6.65565
171 1 -1.1104 6.66068 -0.281095 6.53679
49 1 -1.1104 12.1555 19.1779 12.2873
9216 2 2.2208 13.607 3.5902 -0.339117
135 1 -1.1104 12.1975 16.372 9.61912
174 1 -1.1104 3.7781 -0.211902 6.68608
27 1 -1.1104 12.2467 13.4761 12.2066
8447 2 2.2208 5.1464 -4.54206 5.23264
8452 2 2.2208 2.3499 -4.56844 8.17615
4 1 -1.1104 6.64707 -3.24591 1.23866
11 1 -1.1104 6.71759 -0.52227 1.1301
5 1 -1.1104 6.55084 2.11207 1.17318
8 1 -1.1104 6.58196 -3.32369 3.89082
169 1 -1.1104 6.7991 2.55261 6.81536
31 2 2.2208 10.8312 0.86702 5.31832
32 1 -1.1104 12.5474 -3.30331 1.11111
33 1 -1.1104 12.1445 2.48077 1.07498
34 1 -1.1104 12.2862 -3.40452 3.97581
35 1 -1.1104 12.3066 2.15829 3.88845
36 1 -1.1104 12.3477 -0.399851 1.08035
37 2 2.2208 11.041 -1.83464 2.61831
39 1 -1.1104 12.4604 -0.484646 3.98586
40 1 -1.1104 9.71772 -3.15717 1.03925
41 1 -1.1104 9.28843 2.44555 1.25383
42 2 2.2208 8.09359 0.822259 2.63022
43 1 -1.1104 9.59818 -3.31346 3.88242
44 1 -1.1104 9.58172 2.40964 4.06876
45 2 2.2208 8.14218 -1.95138 5.37489
46 2 2.2208 8.18302 3.65088 5.42442
47 1 -1.1104 9.69546 -0.357452 1.25428
48 1 -1.1104 9.56045 -0.592685 4.01995
351 2 2.2208 5.21667 12.1356 -0.105828
355 2 2.2208 8.22308 9.44931 -0.336691
168 1 -1.1104 6.75319 -3.13368 6.69201
54 2 2.2208 5.29009 6.66965 5.3991
55 2 2.2208 5.22684 12.2664 5.27785
56 1 -1.1104 1.08661 8.06531 1.26916
58 1 -1.1104 1.0071 8.13056 3.99361
60 1 -1.1104 1.08308 5.05181 1.14183
61 1 -1.1104 0.966828 10.7469 0.888089
66 2 2.2208 5.24869 9.40983 2.59369
67 1 -1.1104 1.07043 5.41003 3.94838
68 1 -1.1104 1.08766 10.7064 4.00413
71 1 -1.1104 3.91595 7.87643 1.1705
72 2 2.2208 2.53872 6.58767 2.41124
73 2 2.2208 2.27788 12.2393 2.49858
74 1 -1.1104 3.89998 8.05595 3.99812
75 2 2.2208 2.51679 9.45798 5.35598
76 1 -1.1104 3.77456 5.09329 1.10227
77 1 -1.1104 3.93898 10.7918 1.30184
79 1 -1.1104 3.78725 5.09253 3.97783
80 1 -1.1104 3.71145 10.9175 3.81232
59 1 -1.1104 6.64366 7.9905 3.93056
57 1 -1.1104 6.45424 8.04661 1.21862
69 1 -1.1104 6.69585 5.06623 3.98639
236 1 -1.1104 0.985472 5.13366 6.78467
64 1 -1.1104 6.83704 10.8677 1.04976
235 1 -1.1104 6.6282 7.93452 6.67723
237 1 -1.1104 6.72767 5.24384 6.63926
63 1 -1.1104 6.70217 5.06259 1.19458
234 1 -1.1104 1.23609 8.0398 6.95361
62 1 -1.1104 1.15653 10.8947 6.86144
238 1 -1.1104 4.01394 8.11431 6.74876
239 1 -1.1104 3.83824 5.30768 6.659
9076 2 2.2208 13.6151 6.47877 2.52088
350 2 2.2208 2.42781 9.3506 -0.326989
38 2 2.2208 10.8108 3.69272 2.60567
70 1 -1.1104 6.67516 10.8316 3.88638
84 2 2.2208 10.8741 6.5241 5.30819
85 2 2.2208 10.8362 12.2928 5.23753
86 1 -1.1104 12.2908 8.15811 1.18235
87 1 -1.1104 12.3824 7.87753 3.80607
88 1 -1.1104 12.1897 5.25633 1.10813
89 1 -1.1104 12.4496 10.8924 1.1182
91 2 2.2208 10.9314 9.46976 2.60922
92 1 -1.1104 12.31 4.98728 3.81634
93 1 -1.1104 12.2305 10.8431 4.00933
94 1 -1.1104 9.48996 7.89808 1.29127
95 2 2.2208 7.97533 6.63574 2.50676
96 2 2.2208 8.14182 12.2101 2.65477
97 1 -1.1104 9.55724 8.19242 4.07999
98 2 2.2208 8.05544 9.29386 5.45317
99 1 -1.1104 9.56342 5.16521 1.12942
100 1 -1.1104 9.58913 10.733 1.03801
102 1 -1.1104 9.37393 5.28058 4.07575
103 1 -1.1104 9.36126 10.8222 3.92182
266 1 -1.1104 12.2603 5.24196 6.79326
267 1 -1.1104 9.5674 7.91282 6.78643
269 1 -1.1104 9.52486 5.15112 6.94051
265 1 -1.1104 12.1946 8.03986 6.58221
52 2 2.2208 13.5774 6.52574 8.05471
340 2 2.2208 2.40458 15.0892 -0.322253
104 2 2.2208 10.8531 15.0022 8.02902
290 1 -1.1104 6.57447 13.5341 9.65738
289 1 -1.1104 6.68013 16.2884 9.32564
106 2 2.2208 5.20047 17.8478 5.25485
107 1 -1.1104 1.08678 13.5081 0.924374
109 1 -1.1104 1.07933 19.1098 0.965483
113 1 -1.1104 1.10461 13.6201 3.83309
114 1 -1.1104 1.04804 19.3198 3.83423
116 1 -1.1104 0.952388 16.4062 1.05402
119 2 2.2208 5.29039 15.0224 2.56215
120 2 2.2208 5.2179 20.4697 2.39443
121 1 -1.1104 0.816477 16.5083 3.74364
123 1 -1.1104 3.76926 13.716 0.998808
125 1 -1.1104 3.56957 19.0518 0.981794
127 2 2.2208 2.33734 17.7872 2.51679
128 1 -1.1104 3.85878 13.6181 4.00856
129 1 -1.1104 3.83967 19.1573 3.94881
130 2 2.2208 2.28027 15.0539 5.18917
131 2 2.2208 2.51393 20.7893 5.35968
132 1 -1.1104 4.09387 16.3373 1.08549
134 1 -1.1104 3.73521 16.3336 3.64603
110 1 -1.1104 6.59933 13.5673 1.10966
122 1 -1.1104 6.47236 16.5277 3.85776
138 1 -1.1104 6.53056 18.9926 1.27274
111 1 -1.1104 6.5358 13.6617 6.75661
126 1 -1.1104 3.81197 19.3705 6.60346
302 1 -1.1104 0.87136 19.393 6.62596
124 1 -1.1104 3.71198 13.6464 6.79598
115 1 -1.1104 6.63959 13.6819 4.02234
8449 2 2.2208 8.03287 -4.53574 2.51177
8456 2 2.2208 10.8642 -4.7237 10.7397
8453 2 2.2208 5.25486 -4.45396 10.8488
139 1 -1.1104 6.64896 19.1562 3.88454
140 1 -1.1104 6.62322 16.3491 1.07447
141 2 2.2208 10.7332 17.7423 5.2688
142 1 -1.1104 12.279 13.5549 1.06932
144 1 -1.1104 12.1295 19.1181 1.10322
146 1 -1.1104 12.2074 13.5839 3.77623
147 1 -1.1104 12.0589 19.217 3.9001
148 1 -1.1104 12.1837 16.5033 1.09289
150 2 2.2208 10.9084 15.0009 2.45107
151 2 2.2208 10.8073 20.6269 2.55341
152 1 -1.1104 12.2682 16.3984 3.94426
153 1 -1.1104 9.50182 13.5371 1.12226
155 1 -1.1104 9.40653 19.0752 1.10551
157 2 2.2208 7.89112 17.7647 2.52865
158 1 -1.1104 9.51886 13.5999 3.94645
159 1 -1.1104 9.29537 19.0818 3.78516
160 2 2.2208 7.94303 15.1162 5.48053
161 2 2.2208 7.84358 20.7069 5.25322
162 1 -1.1104 9.52975 16.2947 1.13525
164 1 -1.1104 9.29076 16.3946 4.04094
143 1 -1.1104 12.3188 13.7247 6.67376
204 1 -1.1104 9.20958 16.4635 12.173
8461 2 2.2208 10.8921 -4.59227 -0.152904
29 2 2.2208 -0.205437 6.61116 11.0766
170 1 -1.1104 1.14611 -0.486439 6.56958
172 1 -1.1104 3.8345 -3.03888 6.51367
167 1 -1.1104 1.04463 2.26982 6.73495
9093 2 2.2208 13.6021 12.1706 7.99848
346 2 2.2208 8.06149 3.57225 -0.185327
105 2 2.2208 10.8669 20.5087 8.01213
82 1 -1.1104 12.3648 19.1989 9.58674
175 2 2.2208 5.15995 0.766484 10.9111
176 1 -1.1104 1.17484 -3.28122 12.3031
177 1 -1.1104 1.21096 2.38671 12.2759
180 1 -1.1104 0.801387 -3.37667 9.54594
181 1 -1.1104 1.09527 2.39599 9.55239
184 1 -1.1104 0.965749 -0.457223 12.3435
186 2 2.2208 5.21263 -1.78787 8.15155
187 2 2.2208 5.19582 3.76307 8.18405
188 1 -1.1104 1.02412 -0.471643 9.28315
190 1 -1.1104 4.04944 -3.0037 12.0774
191 1 -1.1104 4.07515 2.39354 12.2766
192 2 2.2208 2.41514 1.05066 8.08557
193 1 -1.1104 3.83878 -3.19531 9.43908
194 1 -1.1104 3.79299 2.11332 9.57465
195 2 2.2208 2.3015 -1.80246 10.8486
197 1 -1.1104 3.83073 -0.461957 12.3816
198 1 -1.1104 3.95788 -0.472086 9.63979
196 2 2.2208 2.52736 3.68367 10.9541
179 1 -1.1104 6.68441 2.27764 12.4252
182 1 -1.1104 6.76682 -3.14219 9.43152
189 1 -1.1104 6.71737 -0.434116 9.58968
8454 2 2.2208 -0.257059 -4.74553 10.9161
8450 2 2.2208 10.8336 -4.71126 5.29794
53 2 2.2208 13.6961 3.805 10.9082
206 1 -1.1104 12.2725 2.56537 6.68255
183 1 -1.1104 6.62429 2.29707 9.68075
178 1 -1.1104 6.75326 -3.25543 12.2823
185 1 -1.1104 6.76436 -0.476916 12.3157
209 1 -1.1104 9.48768 2.32078 6.76979
208 1 -1.1104 9.47346 -3.28007 6.7022
210 1 -1.1104 9.48511 -0.503148 6.71339
207 1 -1.1104 12.3991 -0.3187 6.78697
205 1 -1.1104 12.4792 -3.16214 6.73241
211 2 2.2208 10.8226 0.89755 10.9316
212 1 -1.1104 12.3083 -3.1295 12.1916
213 1 -1.1104 12.1718 2.44357 12.2468
214 1 -1.1104 12.3102 -3.19966 9.40088
215 1 -1.1104 12.2753 2.40623 9.48893
216 1 -1.1104 12.2358 -0.459953 12.2381
217 2 2.2208 11.0487 -1.80757 8.04435
218 2 2.2208 10.8509 3.71842 8.13385
219 1 -1.1104 12.3932 -0.555579 9.46668
220 1 -1.1104 9.40934 -3.43281 12.2857
221 1 -1.1104 9.48838 2.39919 12.2259
222 2 2.2208 8.02109 1.09894 8.06889
223 1 -1.1104 9.5371 -3.23901 9.54621
224 1 -1.1104 9.25962 2.48831 9.58623
225 2 2.2208 8.08702 -1.81356 10.785
226 2 2.2208 8.04933 3.59052 10.9459
227 1 -1.1104 9.43578 -0.57335 12.187
228 1 -1.1104 9.50796 -0.208534 9.26532
9174 2 2.2208 -0.37167 -1.76804 2.41313
9177 2 2.2208 -0.333655 3.72527 2.57183
65 1 -1.1104 6.6325 10.8149 6.67831
8455 2 2.2208 7.9373 -4.64598 8.03986
202 2 2.2208 8.05289 14.881 10.9341
78 1 -1.1104 3.94808 10.9495 6.64405
240 2 2.2208 5.30678 6.43147 10.9318
241 2 2.2208 5.13176 12.0305 10.9068
242 1 -1.1104 1.00988 8.04477 12.4819
244 1 -1.1104 1.17086 7.9991 9.70717
246 1 -1.1104 0.886865 5.02746 12.2183
247 1 -1.1104 1.17887 10.8057 12.4729
250 2 2.2208 5.29219 9.44412 7.99585
251 1 -1.1104 1.10318 5.23312 9.5288
252 1 -1.1104 1.10449 10.6639 9.58788
255 1 -1.1104 3.88112 7.77093 12.4681
256 2 2.2208 2.52937 6.54678 8.06156
257 2 2.2208 2.53405 12.2428 8.08725
258 1 -1.1104 4.03409 7.99631 9.48453
259 2 2.2208 2.64234 9.42491 11.0373
260 1 -1.1104 3.68924 5.08318 12.3716
261 1 -1.1104 4.1174 10.6715 12.4255
262 1 -1.1104 3.83607 5.3018 9.66318
263 1 -1.1104 3.77531 10.8011 9.62915
254 1 -1.1104 6.57162 10.716 9.49473
245 1 -1.1104 6.73238 8.04847 9.31206
248 1 -1.1104 6.52188 5.16769 12.4182
329 2 2.2208 8.12099 12.2065 13.619
101 1 -1.1104 9.65548 10.7601 6.69611
90 1 -1.1104 12.4647 10.8475 6.46742
332 2 2.2208 5.21601 15.1664 13.7183
249 1 -1.1104 6.77116 10.6307 12.3046
253 1 -1.1104 6.53535 4.9962 9.52218
243 1 -1.1104 6.79092 7.87009 12.1883
264 1 -1.1104 9.3252 10.9473 9.44088
268 1 -1.1104 9.36487 5.1901 9.65033
270 1 -1.1104 9.32048 10.8192 12.2513
271 1 -1.1104 9.50119 4.95151 12.376
272 2 2.2208 8.03111 9.29725 10.9184
273 1 -1.1104 9.53591 8.02443 9.54687
274 2 2.2208 8.03078 12.1608 7.96222
275 2 2.2208 8.14214 6.44975 8.19489
276 2 2.2208 10.9133 6.4058 10.8617
277 2 2.2208 10.8022 12.0625 10.8172
278 1 -1.1104 12.4605 7.87777 12.2885
279 1 -1.1104 12.0748 7.87823 9.36498
280 1 -1.1104 12.3012 5.15936 12.486
281 1 -1.1104 12.3791 10.6726 12.3328
282 2 2.2208 10.8901 9.33744 7.93202
283 1 -1.1104 12.2336 5.14563 9.44966
284 1 -1.1104 12.4679 10.7777 9.32026
285 1 -1.1104 9.70593 7.87002 12.1823
8958 2 2.2208 13.5922 20.5841 5.15876
118 1 -1.1104 6.57472 16.4539 6.77192
108 1 -1.1104 0.86528 13.6584 6.7136
117 1 -1.1104 0.958745 16.4294 6.71448
137 1 -1.1104 9.46792 19.1547 12.3567
296 1 -1.1104 6.52682 19.3201 12.1393
288 1 -1.1104 6.52598 19.1117 9.3134
306 1 -1.1104 6.45282 16.4817 12.1332
133 1 -1.1104 3.63599 16.565 6.51686
286 1 -1.1104 3.77495 19.1344 12.2512
287 1 -1.1104 4.06135 13.5314 12.3938
291 1 -1.1104 1.19102 19.2006 9.57213
292 1 -1.1104 1.08178 16.3297 9.48509
293 2 2.2208 5.09094 20.702 8.09666
294 1 -1.1104 1.09863 13.4799 9.58511
295 2 2.2208 5.18114 14.9574 8.16065
298 1 -1.1104 1.10625 19.2614 12.4493
299 1 -1.1104 1.29308 13.4555 12.4753
300 2 2.2208 5.23911 17.6976 10.8285
301 1 -1.1104 3.85346 19.0537 9.31147
303 2 2.2208 2.37666 17.7876 8.04308
304 1 -1.1104 3.77384 16.4276 9.41629
305 1 -1.1104 3.82408 13.5949 9.63575
307 1 -1.1104 0.859464 16.1929 12.3547
308 1 -1.1104 3.66766 16.4431 12.2314
309 2 2.2208 2.46265 20.4958 10.6839
310 2 2.2208 2.38242 14.9864 10.9128
297 1 -1.1104 6.74601 13.6245 12.2855
112 1 -1.1104 6.54154 19.2927 6.65655
9218 2 2.2208 -0.295867 0.848271 -0.322997
163 1 -1.1104 9.4255 16.4978 6.7364
30 2 2.2208 -0.186199 12.2011 10.8921
81 1 -1.1104 12.1025 13.6534 9.51809
145 1 -1.1104 12.2419 19.1227 6.70859
154 1 -1.1104 9.5035 13.6823 6.63662
149 1 -1.1104 12.3142 16.3773 6.76829
156 1 -1.1104 9.42407 19.2044 6.71025
232 1 -1.1104 9.46444 19.3098 9.50031
311 1 -1.1104 9.32513 13.7374 9.34165
136 1 -1.1104 9.57559 13.5227 12.1711
26 2 2.2208 10.8186 17.8072 10.91
83 1 -1.1104 12.2511 16.2741 12.3681
231 1 -1.1104 9.48372 16.4162 9.34087
165 2 2.2208 8.05586 17.8592 8.02838
203 2 2.2208 8.02292 20.6675 10.8627
9208 2 2.2208 13.6171 20.6575 -0.2498
9176 2 2.2208 13.5776 17.745 8.10413
9175 2 2.2208 -0.367946 1.04438 5.32833
25 2 2.2208 13.6336 14.9105 10.8434
9180 2 2.2208 -0.305625 9.44488 2.41479
28 2 2.2208 13.7152 20.5882 10.8906
353 2 2.2208 10.7802 17.6976 -0.371104
354 2 2.2208 10.6967 6.56266 -0.303495
9110 2 2.2208 -0.157913 9.29289 8.23132
9179 2 2.2208 -0.293489 6.62736 5.26315
8908 2 2.2208 13.5719 17.9212 2.39092
9042 2 2.2208 -0.383166 15.0831 2.35284
337 2 2.2208 5.18677 1.02832 -0.27311
312 2 2.2208 -0.413704 -1.92087 13.5609
321 2 2.2208 8.10691 0.846309 13.6607
8469 2 2.2208 8.1306 -4.71404 13.645
334 2 2.2208 10.8647 14.9454 13.4622
8465 2 2.2208 5.37706 -4.68142 -0.259021
336 2 2.2208 13.6777 17.7907 13.6717
338 2 2.2208 2.44676 -1.92788 -0.32768
344 2 2.2208 10.7984 0.998138 -0.241335
339 2 2.2208 2.54228 3.67425 -0.295568
357 2 2.2208 7.99782 20.4753 -0.211193
328 2 2.2208 10.9829 9.21966 13.5562
341 2 2.2208 5.20927 17.7093 -0.239281
9187 2 2.2208 13.7364 9.54796 -0.184077
356 2 2.2208 10.8687 12.2198 -0.314874
358 2 2.2208 5.39718 0.83235 16.57
359 1 -1.1104 1.02454 -3.33366 17.9495
360 1 -1.1104 1.01933 2.48912 17.9422
363 1 -1.1104 1.01858 -3.41483 15.1588
365 1 -1.1104 0.967595 2.2312 15.1901
371 1 -1.1104 0.992245 -0.595255 17.961
373 2 2.2208 5.25377 -1.92648 19.3659
374 2 2.2208 5.12047 3.68635 19.3827
375 1 -1.1104 0.848797 -0.614437 15.1113
379 1 -1.1104 3.78849 -3.4979 17.8735
380 1 -1.1104 3.82187 2.17856 17.8416
381 2 2.2208 2.34758 0.904844 19.2948
382 1 -1.1104 3.88014 -3.36962 14.9007
384 1 -1.1104 4.0381 2.31224 15.0051
386 2 2.2208 2.44656 -1.91302 16.4858
388 1 -1.1104 3.94249 -0.743002 17.8445
389 1 -1.1104 3.66526 -0.557372 15.0671
387 2 2.2208 2.44753 3.73127 16.4331
372 1 -1.1104 6.70912 -0.530391 18.0089
366 1 -1.1104 0.772293 2.29368 20.636
593 2 2.2208 13.611 15.0834 22.1374
8612 2 2.2208 8.00484 -4.58184 25.0393
8614 2 2.2208 10.8511 -4.73813 22.2732
390 1 -1.1104 3.69086 -0.556325 20.7131
376 1 -1.1104 1.04726 -0.435314 20.7678
385 1 -1.1104 3.77317 2.34979 20.667
345 2 2.2208 7.98299 -1.8023 27.7192
316 2 2.2208 5.35541 -1.8784 13.7481
8825 2 2.2208 2.4961 -4.64451 19.2631
591 2 2.2208 -0.432256 6.68372 16.5455
8679 2 2.2208 5.2319 -4.72999 22.3177
369 1 -1.1104 6.84222 2.27308 15.1981
361 1 -1.1104 6.81808 -3.17086 18.0822
362 1 -1.1104 6.84627 2.197 18.0477
367 1 -1.1104 6.66941 -3.44377 15.1866
370 1 -1.1104 6.4702 2.24911 20.6414
588 2 2.2208 13.6835 17.8494 19.3131
8473 2 2.2208 2.39986 -4.76099 13.7531
377 1 -1.1104 6.55122 -0.596219 15.3362
401 2 2.2208 10.9545 0.960253 16.5551
402 1 -1.1104 12.4701 -3.21908 17.8771
403 1 -1.1104 12.3452 2.21429 17.9452
404 1 -1.1104 12.2309 -3.59248 15.0022
406 1 -1.1104 12.449 2.25713 15.2047
408 1 -1.1104 12.6692 -0.449647 18.1591
409 2 2.2208 11.0426 -1.89284 19.2838
410 2 2.2208 10.8473 3.72147 19.3797
411 1 -1.1104 12.2356 -0.738013 15.1546
413 1 -1.1104 9.58797 -3.26642 17.9149
414 1 -1.1104 9.49489 2.35428 17.9648
415 2 2.2208 8.17659 0.822253 19.3957
416 1 -1.1104 9.59408 -3.2531 15.2861
418 1 -1.1104 9.6453 2.15987 15.1663
420 2 2.2208 8.06014 -1.96073 16.5555
421 2 2.2208 7.98618 3.58663 16.6619
422 1 -1.1104 9.59175 -0.364949 17.8661
423 1 -1.1104 9.31607 -0.649734 14.8514
405 1 -1.1104 12.2031 -3.29137 20.7542
417 1 -1.1104 9.3315 -3.48402 20.7086
424 1 -1.1104 9.61263 -0.632271 20.5801
431 1 -1.1104 12.3538 16.3654 23.4235
412 1 -1.1104 12.3839 -0.513923 20.7441
419 1 -1.1104 9.35515 2.27558 20.6902
407 1 -1.1104 12.3873 2.16887 20.9091
317 2 2.2208 2.27178 0.861205 13.7479
585 1 -1.1104 12.3846 13.5635 23.6934
9210 2 2.2208 -0.335744 12.2291 27.7018
8843 2 2.2208 -0.255921 -4.54128 16.6533
8836 2 2.2208 5.33414 -4.77124 16.5093
434 2 2.2208 5.01099 6.47337 16.5454
435 2 2.2208 5.28524 12.0748 16.5608
436 1 -1.1104 0.931635 8.06301 18.1471
438 1 -1.1104 1.03422 7.87336 15.294
442 1 -1.1104 0.910432 5.31926 17.8891
443 1 -1.1104 0.754293 10.8498 17.8595
446 2 2.2208 5.17106 9.36365 19.4612
447 1 -1.1104 1.03766 5.04332 15.1809
449 1 -1.1104 1.06685 10.6967 15.2409
455 1 -1.1104 3.80142 7.78883 18.0036
456 2 2.2208 2.32229 6.53454 19.3626
457 2 2.2208 2.40598 12.2608 19.4683
458 1 -1.1104 3.78388 7.88118 15.2706
460 2 2.2208 2.43014 9.34288 16.5669
461 1 -1.1104 3.73955 5.03859 17.8426
462 1 -1.1104 3.75841 10.775 18.0057
463 1 -1.1104 3.86838 5.04984 15.1333
465 1 -1.1104 3.87084 10.6583 15.0491
464 1 -1.1104 3.81382 5.12103 20.7042
453 1 -1.1104 6.76211 10.8666 15.0295
441 1 -1.1104 6.58528 7.99595 20.8034
454 1 -1.1104 6.86576 10.8861 20.7777
559 2 2.2208 -0.336735 17.7725 22.1641
494 2 2.2208 7.9326 17.6481 25.011
531 2 2.2208 8.0862 14.9481 22
395 2 2.2208 -0.282756 -1.92105 19.4418
440 1 -1.1104 6.72789 8.06155 15.0397
444 1 -1.1104 6.57577 5.05705 17.9298
451 1 -1.1104 6.49586 5.18661 15.1555
445 1 -1.1104 6.58235 10.7575 17.818
437 1 -1.1104 6.52083 7.97576 18.0289
470 2 2.2208 10.8041 6.46364 16.7446
471 2 2.2208 10.8597 12.1582 16.3621
472 1 -1.1104 12.2753 7.86819 17.9168
473 1 -1.1104 12.2154 7.83103 15.1326
475 1 -1.1104 12.4252 5.06762 18.0007
476 1 -1.1104 12.1609 10.8333 17.7902
477 2 2.2208 10.7494 9.35087 19.3495
478 1 -1.1104 12.2565 4.94698 15.1602
480 1 -1.1104 12.2698 10.6307 14.9892
482 1 -1.1104 9.47379 7.88953 17.9572
483 2 2.2208 7.96405 6.51965 19.3112
484 2 2.2208 7.99236 12.1239 19.3063
485 1 -1.1104 9.4176 7.90331 15.0721
487 2 2.2208 8.22056 9.4348 16.3799
488 1 -1.1104 9.40779 5.1113 18.0271
489 1 -1.1104 9.36312 10.6977 17.9609
490 1 -1.1104 9.29653 4.99547 15.1936
492 1 -1.1104 9.58345 10.736 15.1236
491 1 -1.1104 9.29681 5.24167 20.8488
486 1 -1.1104 9.39809 7.82334 20.7399
479 1 -1.1104 12.3598 4.9718 20.7229
474 1 -1.1104 12.1425 7.9699 20.5622
467 1 -1.1104 12.3998 16.4182 26.3883
452 1 -1.1104 6.5005 5.08265 20.7335
493 1 -1.1104 9.45462 10.7171 20.6933
433 2 2.2208 10.8024 20.5279 25.1739
497 2 2.2208 5.39884 17.8039 16.4249
498 1 -1.1104 0.909042 13.6664 18.006
499 1 -1.1104 1.20826 19.2675 18.0196
502 1 -1.1104 1.06369 13.5649 15.2746
504 1 -1.1104 0.943714 19.2945 15.051
510 1 -1.1104 0.917093 16.4751 17.8531
512 2 2.2208 5.17253 15.0059 19.3785
513 2 2.2208 5.33289 20.6065 19.3895
514 1 -1.1104 0.922903 16.4599 15.1993
518 1 -1.1104 3.7081 13.6353 17.9404
519 1 -1.1104 3.9822 19.3102 17.8144
520 2 2.2208 2.57031 17.7755 19.4304
521 1 -1.1104 3.78756 13.7234 15.0377
523 1 -1.1104 3.78734 19.1712 15.1359
525 2 2.2208 2.43249 14.9503 16.5353
526 2 2.2208 2.45629 20.4929 16.56
527 1 -1.1104 3.86139 16.4714 17.9604
528 1 -1.1104 3.84465 16.4986 15.1021
524 1 -1.1104 3.80225 19.298 20.7569
501 1 -1.1104 6.75407 19.1283 17.8893
508 1 -1.1104 6.68489 19.2537 15.0565
529 1 -1.1104 3.89351 16.4071 20.6718
503 1 -1.1104 0.87658 13.7924 20.6614
506 1 -1.1104 6.66691 13.6153 15.2332
511 1 -1.1104 6.69161 16.3358 17.8906
500 1 -1.1104 6.53085 13.5966 17.9798
509 1 -1.1104 6.66755 19.1885 20.6448
505 1 -1.1104 0.92429 19.1803 20.8428
544 1 -1.1104 12.3211 16.3908 20.6732
678 2 2.2208 13.6485 12.1661 24.9529
516 1 -1.1104 6.73448 16.5647 15.0489
533 2 2.2208 10.8807 17.8453 16.5324
534 1 -1.1104 12.2649 13.4913 17.8224
535 1 -1.1104 12.2898 19.1444 17.9404
536 1 -1.1104 12.263 13.5928 15.1065
538 1 -1.1104 12.3459 19.2501 15.1663
540 1 -1.1104 12.3999 16.3915 17.8068
541 2 2.2208 10.7228 14.867 19.2474
542 2 2.2208 10.9479 20.4551 19.2587
543 1 -1.1104 12.3659 16.4048 15.0255
545 1 -1.1104 9.37121 13.5601 17.7553
546 1 -1.1104 9.54923 19.3639 17.8327
547 2 2.2208 8.04965 17.6588 19.2255
548 1 -1.1104 9.54473 13.6323 14.9613
550 1 -1.1104 9.40132 19.1948 15.2464
552 2 2.2208 8.10161 14.9071 16.4129
553 2 2.2208 8.06465 20.6649 16.4985
554 1 -1.1104 9.53883 16.5082 17.8066
555 1 -1.1104 9.44559 16.2677 14.9773
551 1 -1.1104 9.40461 18.9897 20.6514
539 1 -1.1104 12.2247 19.2131 20.8801
556 1 -1.1104 9.47158 16.376 20.7564
333 2 2.2208 10.6682 20.6658 13.7646
594 2 2.2208 -0.357048 -1.84176 24.9835
557 1 -1.1104 9.67139 16.3542 23.5879
364 1 -1.1104 0.983264 -3.26382 20.6978
378 1 -1.1104 6.67531 -0.57746 20.5246
383 1 -1.1104 3.91296 -3.40359 20.8237
325 2 2.2208 5.46729 9.21774 13.8003
561 2 2.2208 5.0961 0.869426 21.97
562 1 -1.1104 1.02425 -3.34408 23.487
563 1 -1.1104 1.02286 2.20299 23.5526
566 1 -1.1104 0.867529 -3.48882 26.3092
567 1 -1.1104 1.00986 2.37914 26.3705
570 1 -1.1104 1.03754 -0.739158 23.5225
572 2 2.2208 5.17291 -1.96605 24.9696
574 1 -1.1104 1.01453 -0.596096 26.4303
576 1 -1.1104 3.79466 -3.31989 23.5799
577 1 -1.1104 3.72568 2.24055 23.4969
578 2 2.2208 2.33543 0.812897 24.9801
579 1 -1.1104 3.71895 -3.29638 26.3011
580 1 -1.1104 3.79106 2.30094 26.5468
581 2 2.2208 2.39781 -1.99134 22.0425
582 2 2.2208 2.22959 3.60872 22.1131
583 1 -1.1104 3.52844 -0.535446 23.3881
584 1 -1.1104 3.91508 -0.460526 26.2198
573 2 2.2208 5.14054 3.68947 24.9416
575 1 -1.1104 6.6882 -0.373255 26.3926
571 1 -1.1104 6.57445 -0.57341 23.4757
569 1 -1.1104 6.48421 2.34015 26.4191
682 1 -1.1104 6.71023 13.5585 26.468
565 1 -1.1104 6.48776 2.13977 23.5871
496 1 -1.1104 9.45262 13.5396 26.2832
625 2 2.2208 13.7022 17.8714 24.9312
368 1 -1.1104 6.43746 -3.32785 20.9123
8653 2 2.2208 2.31135 -4.7282 25.0414
468 1 -1.1104 9.4535 13.3563 23.497
427 2 2.2208 -0.400484 15.0776 19.3016
568 1 -1.1104 6.5189 -3.21337 26.3876
564 1 -1.1104 6.47923 -3.28636 23.6826
597 2 2.2208 10.8689 0.766136 22.0119
598 1 -1.1104 12.4381 -3.06507 23.6658
599 1 -1.1104 12.395 2.39717 23.6636
600 1 -1.1104 12.2426 -3.34334 26.4302
601 1 -1.1104 12.4402 2.22636 26.4306
602 1 -1.1104 12.2915 -0.412529 23.5064
603 2 2.2208 10.9499 -1.73196 24.973
604 2 2.2208 10.9061 3.7905 25.0037
605 1 -1.1104 12.3415 -0.600085 26.3854
606 1 -1.1104 9.34855 -3.18213 23.6936
607 1 -1.1104 9.51449 2.39205 23.2767
608 2 2.2208 7.97679 1.00374 24.7898
609 1 -1.1104 9.25606 -3.19441 26.4096
610 1 -1.1104 9.56345 2.56226 26.3146
611 2 2.2208 7.98277 -2.01853 21.9516
612 2 2.2208 7.90296 3.69318 22.2144
613 1 -1.1104 9.47626 -0.348592 23.5997
614 1 -1.1104 9.51006 -0.265483 26.3207
675 1 -1.1104 6.69604 13.6391 23.5211
558 1 -1.1104 9.37106 16.3803 26.1109
9250 2 2.2208 -0.346413 20.7579 24.99
450 1 -1.1104 1.01507 10.9482 20.8302
466 1 -1.1104 3.90555 10.8287 20.7967
448 1 -1.1104 0.982705 5.18533 20.8551
439 1 -1.1104 0.951426 8.15976 20.9867
459 1 -1.1104 3.77703 8.11298 20.8591
626 2 2.2208 5.30356 6.58279 22.1957
627 2 2.2208 5.32131 12.1308 22.1748
628 1 -1.1104 1.0743 7.81668 23.5188
630 1 -1.1104 1.03034 7.95238 26.4526
632 1 -1.1104 0.765731 5.02396 23.4549
633 1 -1.1104 1.17128 10.8304 23.5665
636 2 2.2208 5.26647 9.38821 25.1944
637 1 -1.1104 0.959635 5.24634 26.3918
638 1 -1.1104 1.11104 10.7497 26.31
641 1 -1.1104 3.7701 8.19238 23.7217
642 2 2.2208 2.47213 6.58527 24.8831
643 2 2.2208 2.3786 12.2585 24.9625
644 1 -1.1104 3.79517 7.95965 26.4613
645 2 2.2208 2.42985 9.41843 22.367
646 1 -1.1104 3.71019 5.19977 23.4365
647 1 -1.1104 4.02686 10.7524 23.5785
648 1 -1.1104 3.64076 5.24236 26.2718
649 1 -1.1104 3.95888 10.8705 26.413
629 1 -1.1104 6.73012 7.84499 23.5711
635 1 -1.1104 6.84681 10.5131 23.6368
640 1 -1.1104 6.67416 10.5743 26.4383
634 1 -1.1104 6.53666 5.02026 23.5745
653 2 2.2208 13.6863 20.6328 22.2163
532 2 2.2208 7.98538 20.5784 22.1634
425 1 -1.1104 12.3714 19.1194 26.4079
481 1 -1.1104 12.3121 10.7859 20.8865
639 1 -1.1104 6.52848 5.14873 26.4683
631 1 -1.1104 6.58498 7.79739 26.4176
432 2 2.2208 11.0257 15.0118 24.9031
657 1 -1.1104 9.48888 10.7653 26.219
658 1 -1.1104 9.38396 5.21005 26.4158
659 1 -1.1104 9.62756 10.7083 23.4038
660 1 -1.1104 9.51314 5.04127 23.621
661 2 2.2208 7.98605 9.30072 22.1417
662 1 -1.1104 9.45664 7.98198 26.3754
663 2 2.2208 7.91764 12.0718 24.8907
664 2 2.2208 8.10596 6.557 24.9877
665 2 2.2208 10.7994 6.60047 22.1557
666 2 2.2208 10.924 12.1553 22.1858
667 1 -1.1104 12.186 7.96865 23.5017
668 1 -1.1104 12.2525 8.00632 26.4637
669 1 -1.1104 12.1813 5.09123 23.6169
670 1 -1.1104 12.4186 10.6335 23.4556
671 2 2.2208 10.8834 9.35171 24.7813
672 1 -1.1104 12.2619 5.03201 26.3964
673 1 -1.1104 12.384 10.7755 26.2847
674 1 -1.1104 9.60674 7.88 23.5743
428 2 2.2208 -0.385751 20.6565 19.4665
469 1 -1.1104 9.21286 19.351 23.8411
331 2 2.2208 5.07429 20.5179 13.7224
522 1 -1.1104 3.71449 13.5353 20.707
515 1 -1.1104 1.10489 16.313 20.6165
517 1 -1.1104 6.72118 16.3407 20.6212
679 1 -1.1104 6.47115 19.0979 23.554
507 1 -1.1104 6.59998 13.6302 20.7902
495 1 -1.1104 6.67242 19.152 26.3732
587 2 2.2208 2.45547 15.1093 22.1428
590 2 2.2208 2.44481 20.7176 22.1904
615 1 -1.1104 3.83571 16.4241 23.5851
616 1 -1.1104 1.14469 16.5973 23.4115
619 1 -1.1104 3.94996 13.602 26.38
622 1 -1.1104 3.71059 16.5307 26.3627
650 2 2.2208 2.51407 17.952 24.7928
651 1 -1.1104 3.70335 19.1694 26.3252
652 2 2.2208 5.26242 17.6615 22.0428
654 1 -1.1104 1.16829 13.5708 23.4875
656 1 -1.1104 0.962709 19.2407 23.4955
676 2 2.2208 5.22839 14.8745 25.0609
677 2 2.2208 5.15985 20.5152 25.0494
681 1 -1.1104 3.74318 19.3488 23.5467
683 1 -1.1104 3.88217 13.5569 23.669
685 1 -1.1104 0.901692 19.3876 26.3634
686 1 -1.1104 0.904734 16.5408 26.2213
687 1 -1.1104 1.11522 13.8798 26.222
684 1 -1.1104 6.48598 16.273 26.3408
617 1 -1.1104 6.60168 16.4045 23.5127
400 1 -1.1104 12.4922 13.6535 26.3644
323 2 2.2208 10.8828 3.69649 13.8593
530 1 -1.1104 9.37771 19.2167 26.4681
560 1 -1.1104 12.1481 19.0725 23.6246
537 1 -1.1104 12.1365 13.5371 20.7024
549 1 -1.1104 9.21749 13.5288 20.5019
586 2 2.2208 10.8661 17.8069 22.1451
589 2 2.2208 13.6932 14.9534 16.489
342 2 2.2208 2.32077 20.6085 27.7872
314 2 2.2208 13.6479 6.41874 13.7121
680 2 2.2208 13.6038 6.62176 25.0344
621 2 2.2208 13.6394 6.51048 19.3327
320 2 2.2208 -0.386916 14.9353 13.7673
592 2 2.2208 -0.284656 9.51762 19.5511
620 2 2.2208 13.5596 12.0323 19.4243
349 2 2.2208 5.25671 6.45744 27.7661
430 2 2.2208 13.7274 20.4605 16.5551
313 2 2.2208 -0.285818 20.7249 13.7423
327 2 2.2208 8.05967 6.54788 13.7518
326 2 2.2208 2.6318 12.1878 13.7826
319 2 2.2208 5.3012 3.59533 13.7606
335 2 2.2208 8.11192 17.829 13.7539
330 2 2.2208 2.35984 17.7993 13.8037
324 2 2.2208 2.40815 6.47681 13.8962
343 2 2.2208 -0.282685 9.46591 13.7434
352 2 2.2208 7.98515 14.8886 27.6873
322 2 2.2208 10.8949 -2.03049 13.6241
688 2 2.2208 5.18159 23.4699 5.29602
689 2 2.2208 5.2278 29.0516 5.31801
690 1 -1.1104 1.14738 24.7662 1.23592
691 1 -1.1104 0.907882 24.9617 4.00643
692 1 -1.1104 1.0025 22.0798 1.387
693 1 -1.1104 1.15376 27.5028 1.21253
694 2 2.2208 5.28911 26.3918 2.4866
695 1 -1.1104 0.953187 22.0624 4.05706
696 1 -1.1104 0.908389 27.6352 4.01179
697 1 -1.1104 3.9951 24.9729 0.923589
698 2 2.2208 2.43883 23.3378 2.51605
699 2 2.2208 2.34958 29.0943 2.58956
700 1 -1.1104 3.99432 24.8904 3.71465
701 2 2.2208 2.27078 26.3547 5.3294
702 1 -1.1104 3.80832 21.9876 1.11417
703 1 -1.1104 3.71666 27.5896 1.24782
704 1 -1.1104 3.87519 21.9392 3.87477
705 1 -1.1104 3.75801 27.7994 4.0734
710 1 -1.1104 6.62844 24.7655 4.20803
711 1 -1.1104 6.61633 21.8466 1.09741
712 1 -1.1104 6.75174 27.6173 1.00822
830 1 -1.1104 6.72028 24.9124 6.77422
831 1 -1.1104 0.790544 22.2032 6.88669
829 1 -1.1104 1.04087 24.9464 6.84431
836 1 -1.1104 3.83817 22.1976 6.78962
709 1 -1.1104 6.68218 24.851 1.09367
1002 2 2.2208 10.7176 40.3666 -0.354983
837 1 -1.1104 3.72227 27.646 6.83689
835 1 -1.1104 3.67479 24.841 6.65283
9847 2 2.2208 -0.245585 34.6956 5.52078
834 1 -1.1104 6.51627 27.72 6.61397
713 1 -1.1104 6.56316 21.9654 3.90603
714 1 -1.1104 6.60187 27.5048 3.83731
715 2 2.2208 10.923 23.4459 5.38251
716 2 2.2208 10.8194 29.0814 5.36417
717 1 -1.1104 12.3247 24.6137 1.21294
718 1 -1.1104 12.2643 24.8704 3.92423
719 1 -1.1104 12.2859 21.7572 1.39973
720 1 -1.1104 12.3099 27.5149 0.869435
721 2 2.2208 10.7916 26.1086 2.36166
722 1 -1.1104 12.3043 22.0601 4.03713
723 1 -1.1104 12.1238 27.4948 3.66837
724 1 -1.1104 9.47009 24.6408 0.994113
725 2 2.2208 7.99363 23.4853 2.58365
726 2 2.2208 8.16815 29.0419 2.5423
727 1 -1.1104 9.38259 24.9433 3.89476
728 2 2.2208 8.05373 26.3226 5.26648
729 1 -1.1104 9.46733 21.8623 1.1031
730 1 -1.1104 9.60604 27.5055 1.04084
731 1 -1.1104 9.44401 22.1655 3.85338
732 1 -1.1104 9.3713 27.6926 3.91636
866 1 -1.1104 9.36477 22.153 6.51042
865 1 -1.1104 9.47068 24.8487 6.90911
862 1 -1.1104 12.2656 24.8477 6.71503
1295 2 2.2208 2.56625 31.6235 -0.116604
1563 1 -1.1104 12.1083 47.2599 9.59207
1555 1 -1.1104 9.4043 47.1785 6.70324
1371 1 -1.1104 12.2461 47.3047 3.9099
10050 2 2.2208 -0.335826 34.7611 -0.226134
1016 2 2.2208 10.6113 45.7001 -0.263691
736 2 2.2208 5.32405 34.6756 5.33692
737 1 -1.1104 0.969789 30.1444 0.865658
738 1 -1.1104 0.912273 35.987 1.07099
740 1 -1.1104 0.877807 30.3735 3.98221
741 1 -1.1104 1.13101 36.0917 3.73928
743 1 -1.1104 1.10737 33.0825 1.22892
744 2 2.2208 5.4585 31.9154 2.46248
745 2 2.2208 5.36105 37.4314 2.38407
746 1 -1.1104 1.1482 33.2743 4.20546
748 1 -1.1104 4.01567 30.27 1.13074
749 1 -1.1104 4.04311 35.9395 1.09582
750 2 2.2208 2.55897 34.6105 2.47343
751 1 -1.1104 3.90187 30.4918 3.77211
752 1 -1.1104 3.87799 36.2244 3.81392
753 2 2.2208 2.40111 31.8464 5.2998
754 2 2.2208 2.60717 37.4927 5.13162
755 1 -1.1104 3.87683 33.1639 1.08098
756 1 -1.1104 4.08206 33.4078 3.91564
887 1 -1.1104 1.16911 36.1679 6.76276
747 1 -1.1104 6.94751 33.3517 3.89638
761 1 -1.1104 6.57002 30.5253 3.92996
894 1 -1.1104 3.78262 33.3055 6.66899
893 1 -1.1104 3.8819 35.9439 6.61757
739 1 -1.1104 6.72014 36.0148 1.01035
891 1 -1.1104 6.54302 33.2631 6.68783
760 1 -1.1104 6.80402 30.3457 1.22108
762 1 -1.1104 6.68732 33.2956 0.941866
888 1 -1.1104 6.76921 30.4668 6.6477
889 1 -1.1104 6.75801 36.1871 6.7454
9582 2 2.2208 13.6758 37.7605 5.26209
9744 2 2.2208 13.6331 31.7974 10.9165