ITEM: TIMESTEP
50000
ITEM: NUMBER OF ATOMS
17910
ITEM: BOX BOUNDS pp pp pp
-4.0200076351666308e-01 2.7742000763517147e+01
-4.7713579240764314e+00 3.3285135792408192e+02
-4.0839757053866266e-01 2.7748397570538746e+01
ITEM: ATOMS id type q x y z
1 2 2.2208 5.13559 0.841088 5.29881
2 1 -1.1104 0.764453 -3.45323 0.773841
3 1 -1.1104 0.882162 2.06523 0.948343
6 1 -1.1104 0.891005 -3.44447 3.55012
7 1 -1.1104 0.929759 2.13008 3.7943
10 1 -1.1104 0.988154 -0.69226 0.959005
12 2 2.2208 5.12184 -2.10032 2.2281
14 1 -1.1104 0.940805 -0.549712 3.77961
16 1 -1.1104 3.76631 -3.4176 0.993795
17 1 -1.1104 3.84775 2.06832 1.00869
18 2 2.2208 2.50933 0.714148 2.37409
19 1 -1.1104 3.58741 -3.47986 3.66852
20 1 -1.1104 3.72094 2.17093 3.70639
21 2 2.2208 2.25611 -2.03118 5.12644
22 2 2.2208 2.19169 3.59288 5.27104
23 1 -1.1104 3.72024 -0.736844 0.948131
24 1 -1.1104 3.86683 -0.745509 3.87325
13 2 2.2208 5.14905 3.47028 2.49227
170 1 -1.1104 0.821734 -0.729769 6.43272
4 1 -1.1104 6.60779 -3.46105 1.01
167 1 -1.1104 0.944443 2.17021 6.67244
172 1 -1.1104 3.72291 -3.28019 6.62695
166 1 -1.1104 1.02352 -3.43275 6.40598
174 1 -1.1104 3.83782 -0.744275 6.70982
15 1 -1.1104 6.67204 -0.767373 3.67763
9 1 -1.1104 6.56162 1.97101 3.78374
325 2 2.2208 5.13335 9.29801 13.7404
8453 2 2.2208 5.03851 -4.7051 10.7565
11 1 -1.1104 6.56343 -0.843878 0.889587
8 1 -1.1104 6.52612 -3.5061 3.73417
5 1 -1.1104 6.66933 1.98593 0.806825
9178 2 2.2208 13.7931 0.578231 2.26768
8447 2 2.2208 5.23697 -4.96675 5.10163
31 2 2.2208 10.9416 0.464078 5.10872
32 1 -1.1104 12.3177 -3.49107 0.882357
33 1 -1.1104 12.3604 1.98775 0.95834
34 1 -1.1104 12.3831 -3.58937 3.51001
35 1 -1.1104 12.2875 2.05939 3.87644
36 1 -1.1104 12.3219 -0.883689 0.525191
37 2 2.2208 10.8586 -2.22082 2.24079
39 1 -1.1104 12.3426 -0.886578 3.47702
40 1 -1.1104 9.36731 -3.42903 0.84626
41 1 -1.1104 9.66249 2.09499 0.811618
42 2 2.2208 8.02066 0.595376 2.27505
43 1 -1.1104 9.50599 -3.41578 3.77133
44 1 -1.1104 9.30706 2.26332 3.65343
45 2 2.2208 7.87063 -2.0479 5.19775
46 2 2.2208 8.14642 3.45854 5.1354
47 1 -1.1104 9.56783 -0.501994 1.06586
48 1 -1.1104 9.40108 -0.636529 3.88084
38 2 2.2208 10.9847 3.41646 2.37401
209 1 -1.1104 9.40586 2.0824 6.5729
208 1 -1.1104 9.27634 -3.37547 6.48199
210 1 -1.1104 9.53947 -0.632977 6.66466
207 1 -1.1104 12.2987 -0.686598 6.34167
25 2 2.2208 13.674 14.7375 10.924
205 1 -1.1104 12.1689 -3.49562 6.5592
206 1 -1.1104 12.487 2.00283 6.46607
8883 2 2.2208 -0.440176 20.3781 8.03282
233 2 2.2208 -0.507132 17.5772 10.8751
323 2 2.2208 10.8129 3.52724 13.6251
54 2 2.2208 5.16932 6.35878 5.07444
55 2 2.2208 5.10425 11.8699 5.13596
56 1 -1.1104 1.14787 7.88227 0.718545
58 1 -1.1104 0.881108 7.81631 3.42635
60 1 -1.1104 0.999093 4.91347 0.986281
61 1 -1.1104 0.96393 10.6947 0.741274
66 2 2.2208 5.14847 9.08977 2.28215
67 1 -1.1104 0.997602 4.92284 3.69202
68 1 -1.1104 0.990207 10.6978 3.52791
71 1 -1.1104 3.84721 7.72771 0.875176
72 2 2.2208 2.47618 6.37958 2.32405
73 2 2.2208 2.28666 12.1232 2.21306
74 1 -1.1104 3.646 7.76835 3.85519
75 2 2.2208 2.26848 9.22801 5.17846
76 1 -1.1104 3.76888 4.91569 1.04928
77 1 -1.1104 3.69446 10.6332 1.00475
79 1 -1.1104 3.66826 4.88306 3.94126
80 1 -1.1104 3.79791 10.4832 3.7113
64 1 -1.1104 6.57241 10.5469 1.10394
69 1 -1.1104 6.51924 4.95186 3.71032
57 1 -1.1104 6.64882 7.75841 1.05056
78 1 -1.1104 3.76105 10.5154 6.69226
239 1 -1.1104 3.78456 5.01123 6.6165
65 1 -1.1104 6.527 10.4617 6.5199
70 1 -1.1104 6.49045 10.4989 3.74059
62 1 -1.1104 0.930913 10.6144 6.51925
235 1 -1.1104 6.47007 7.68251 6.60752
59 1 -1.1104 6.55805 7.79319 3.75647
63 1 -1.1104 6.70887 4.8167 1.0281
84 2 2.2208 10.8875 6.29003 5.2085
85 2 2.2208 10.8066 11.9912 5.21915
86 1 -1.1104 12.3742 7.81751 0.802045
87 1 -1.1104 12.2362 7.67825 3.69737
88 1 -1.1104 12.3417 4.85568 0.905163
89 1 -1.1104 12.1991 10.4495 0.94651
91 2 2.2208 10.8438 8.97358 2.37088
92 1 -1.1104 12.3638 4.77022 3.73554
93 1 -1.1104 12.2479 10.3473 3.83625
94 1 -1.1104 9.2371 7.57178 0.826167
95 2 2.2208 8.03627 6.24198 2.32625
96 2 2.2208 8.17016 11.9495 2.47718
97 1 -1.1104 9.45956 7.65882 3.7105
98 2 2.2208 7.91502 8.98079 5.13672
99 1 -1.1104 9.51713 4.82727 0.928244
100 1 -1.1104 9.53196 10.4767 1.01794
102 1 -1.1104 9.24518 4.99679 3.82226
103 1 -1.1104 9.35369 10.513 3.82944
90 1 -1.1104 12.1833 10.605 6.512
267 1 -1.1104 9.55977 7.70896 6.60246
265 1 -1.1104 12.3369 7.71962 6.63808
101 1 -1.1104 9.33454 10.5584 6.52534
8456 2 2.2208 10.8596 -4.83479 10.7147
350 2 2.2208 2.45592 9.13964 -0.597889
269 1 -1.1104 9.50678 4.99779 6.5378
327 2 2.2208 8.01176 6.54685 13.6107
106 2 2.2208 5.41089 17.5585 5.18811
107 1 -1.1104 0.952589 13.6111 0.924886
109 1 -1.1104 0.975491 18.999 1.01173
113 1 -1.1104 0.973229 13.4882 3.67138
114 1 -1.1104 1.14677 18.9164 3.7942
116 1 -1.1104 1.04727 16.3578 1.00598
119 2 2.2208 5.39038 14.6784 2.36296
120 2 2.2208 5.19999 20.4052 2.39636
121 1 -1.1104 1.04435 16.1828 3.82499
123 1 -1.1104 3.8408 13.4549 0.857997
125 1 -1.1104 3.86396 19.0324 1.11821
127 2 2.2208 2.53242 17.5637 2.43988
128 1 -1.1104 3.81336 13.4301 3.95156
129 1 -1.1104 3.83576 18.8359 3.88979
130 2 2.2208 2.49557 14.8214 5.10363
131 2 2.2208 2.53031 20.2291 5.15834
132 1 -1.1104 3.92434 16.2412 1.08258
134 1 -1.1104 4.01854 16.1954 4.0419
115 1 -1.1104 6.78747 13.2881 4.03058
139 1 -1.1104 6.72047 19.0156 3.78293
133 1 -1.1104 3.91525 16.2295 6.69009
117 1 -1.1104 1.23636 16.303 6.65353
124 1 -1.1104 3.82349 13.2931 6.83297
302 1 -1.1104 1.08788 19.0439 6.64738
112 1 -1.1104 6.5762 19.1375 6.80992
110 1 -1.1104 6.69939 13.2629 1.04551
138 1 -1.1104 6.5079 19.1772 0.975354
8452 2 2.2208 2.45129 -4.81705 8.03753
9181 2 2.2208 -0.553501 12.079 5.04586
8473 2 2.2208 2.42992 -4.877 13.6446
140 1 -1.1104 6.58863 16.2933 1.02321
122 1 -1.1104 6.7554 16.0711 3.82423
141 2 2.2208 10.7622 17.5834 5.1795
142 1 -1.1104 12.2654 13.2281 1.08782
144 1 -1.1104 12.2801 18.855 0.950417
146 1 -1.1104 12.3471 13.3143 3.91455
147 1 -1.1104 12.3409 18.9739 3.8398
148 1 -1.1104 12.0402 16.1253 0.946324
150 2 2.2208 10.9248 14.6827 2.34435
151 2 2.2208 10.9232 20.5944 2.25661
152 1 -1.1104 12.2449 15.9974 4.12152
153 1 -1.1104 9.50928 13.3119 0.929084
155 1 -1.1104 9.5366 19.0647 1.16322
157 2 2.2208 8.01703 17.6452 2.2507
158 1 -1.1104 9.47172 13.3688 3.65771
159 1 -1.1104 9.69095 19.0859 3.71584
160 2 2.2208 8.09427 14.7058 5.25947
161 2 2.2208 8.05921 20.4071 5.25141
162 1 -1.1104 9.39183 16.0322 0.933043
164 1 -1.1104 9.51099 16.2712 3.74047
111 1 -1.1104 6.7626 13.5411 6.56997
143 1 -1.1104 12.3239 13.4491 6.5886
118 1 -1.1104 6.61152 16.2167 6.56808
163 1 -1.1104 9.54213 15.9873 6.51066
149 1 -1.1104 12.2923 16.3006 7.01867
156 1 -1.1104 9.27425 18.8994 6.60806
154 1 -1.1104 9.60004 13.3744 6.53854
306 1 -1.1104 6.68022 16.4362 12.3936
145 1 -1.1104 11.9735 19.046 6.75387
171 1 -1.1104 6.68167 -0.53196 6.62771
173 1 -1.1104 3.83763 2.19112 6.67195
8979 2 2.2208 13.7917 14.6681 5.22927
353 2 2.2208 10.8751 17.6864 -0.395653
175 2 2.2208 5.24709 0.706418 10.8854
176 1 -1.1104 0.803415 -3.45899 11.9315
177 1 -1.1104 1.09887 2.03766 11.9423
180 1 -1.1104 0.964181 -3.40163 9.26873
181 1 -1.1104 1.09293 2.30306 9.22297
184 1 -1.1104 0.878601 -0.826038 12.1144
186 2 2.2208 5.20257 -2.00091 7.98992
187 2 2.2208 5.2865 3.64402 7.99542
188 1 -1.1104 0.889473 -0.619396 9.35234
190 1 -1.1104 3.60114 -3.37724 12.0827
191 1 -1.1104 3.91197 2.11875 12.2902
192 2 2.2208 2.56996 0.728452 8.18654
193 1 -1.1104 3.80081 -3.42457 9.28718
194 1 -1.1104 3.99303 2.17437 9.4639
195 2 2.2208 2.2931 -2.05277 10.7691
197 1 -1.1104 3.73897 -0.690749 12.1029
198 1 -1.1104 3.78966 -0.759677 9.55764
196 2 2.2208 2.47501 3.62248 10.6698
178 1 -1.1104 6.33677 -3.45251 12.3491
179 1 -1.1104 6.61508 2.06889 12.3289
336 2 2.2208 13.664 17.667 13.8275
321 2 2.2208 8.19172 0.803401 13.5682
319 2 2.2208 5.30505 3.45711 13.7292
182 1 -1.1104 6.70421 -3.2987 9.51498
169 1 -1.1104 6.5682 2.1863 6.57406
8881 2 2.2208 13.6975 3.4751 5.21822
316 2 2.2208 5.07701 -2.0295 13.486
335 2 2.2208 8.24829 17.7968 13.69
168 1 -1.1104 6.43388 -3.53969 6.5909
185 1 -1.1104 6.73237 -0.676284 12.2428
183 1 -1.1104 6.69051 2.24606 9.59581
189 1 -1.1104 6.67742 -0.558503 9.33623
211 2 2.2208 10.9221 0.66814 10.5713
212 1 -1.1104 12.2369 -3.45405 12.1072
213 1 -1.1104 12.1479 2.15118 12.2065
214 1 -1.1104 12.1106 -3.19406 9.3371
215 1 -1.1104 12.1417 2.22999 9.35031
216 1 -1.1104 12.4929 -0.600471 12.0364
217 2 2.2208 10.8431 -1.95686 8.02791
219 1 -1.1104 12.4938 -0.43265 9.17162
220 1 -1.1104 9.48537 -3.34664 12.2129
221 1 -1.1104 9.51937 2.24469 11.9097
222 2 2.2208 8.10254 0.921536 8.00706
223 1 -1.1104 9.4932 -3.36801 9.21158
224 1 -1.1104 9.49213 2.12759 9.29719
225 2 2.2208 8.14908 -1.99146 10.6743
226 2 2.2208 7.93773 3.59088 10.7382
227 1 -1.1104 9.6018 -0.570038 12.208
228 1 -1.1104 9.47679 -0.609147 9.31632
218 2 2.2208 10.8856 3.52932 7.95277
9077 2 2.2208 13.7176 11.8972 2.42225
234 1 -1.1104 0.808393 7.70138 6.39591
238 1 -1.1104 3.73413 7.85291 6.483
237 1 -1.1104 6.77231 4.90539 6.56003
329 2 2.2208 8.02907 12.1145 13.7167
236 1 -1.1104 0.998213 5.01685 6.67654
240 2 2.2208 5.29873 6.47863 10.8948
241 2 2.2208 5.16338 12.0109 10.7114
242 1 -1.1104 0.95115 7.59198 12.3819
244 1 -1.1104 1.12462 8.04852 9.2762
246 1 -1.1104 1.16296 4.88141 12.2621
247 1 -1.1104 1.0809 10.5386 12.2327
250 2 2.2208 5.14694 9.06554 7.93813
251 1 -1.1104 0.849646 5.17799 9.58249
252 1 -1.1104 1.00554 10.6728 9.39671
255 1 -1.1104 3.95367 7.93863 12.3643
256 2 2.2208 2.40977 6.37207 8.04383
257 2 2.2208 2.42319 11.9797 8.09975
258 1 -1.1104 3.71955 7.71034 9.40908
259 2 2.2208 2.48443 9.2332 10.7464
260 1 -1.1104 4.00793 4.97543 12.3565
261 1 -1.1104 3.70947 10.702 12.2293
262 1 -1.1104 3.65434 5.00373 9.43235
263 1 -1.1104 3.76437 10.6021 9.3546
83 1 -1.1104 12.125 16.0457 12.3224
254 1 -1.1104 6.32125 10.5866 9.38581
296 1 -1.1104 6.88028 19.1612 12.3278
52 2 2.2208 13.6576 6.38914 7.91789
51 2 2.2208 13.6106 9.1232 10.7152
136 1 -1.1104 9.32822 13.207 12.1377
245 1 -1.1104 6.59427 7.84186 9.36181
243 1 -1.1104 6.73812 7.70621 12.1842
248 1 -1.1104 6.73546 5.04265 12.2749
266 1 -1.1104 12.1978 5.02704 6.56098
9041 2 2.2208 -0.410729 20.5902 2.34532
232 1 -1.1104 9.18528 18.975 9.45609
253 1 -1.1104 6.65633 5.15467 9.35427
249 1 -1.1104 6.53881 10.6672 12.2918
264 1 -1.1104 9.25792 10.6663 9.29668
268 1 -1.1104 9.34963 4.77025 9.24831
270 1 -1.1104 9.29458 10.512 12.2514
271 1 -1.1104 9.47291 4.96551 12.2109
272 2 2.2208 8.02221 9.29964 10.7185
273 1 -1.1104 9.41696 7.61922 9.55156
274 2 2.2208 8.0297 12.0414 7.78879
275 2 2.2208 8.19056 6.32372 8.00757
276 2 2.2208 10.7524 6.22162 10.7285
277 2 2.2208 10.661 12.1225 10.7371
278 1 -1.1104 12.3729 7.83805 12.18
279 1 -1.1104 12.2034 7.75965 9.47417
280 1 -1.1104 12.1872 4.9001 12.2163
281 1 -1.1104 12.3269 10.3863 12.1585
282 2 2.2208 10.98 9.12915 8.00731
283 1 -1.1104 12.113 5.02546 9.3269
284 1 -1.1104 12.1272 10.6622 9.44039
285 1 -1.1104 9.65448 7.6843 12.2159
311 1 -1.1104 9.25699 13.4423 9.3301
9179 2 2.2208 -0.546339 6.46831 5.16725
231 1 -1.1104 9.42589 16.19 9.35907
126 1 -1.1104 3.81924 18.9406 6.65981
290 1 -1.1104 6.63425 13.3423 9.33761
108 1 -1.1104 0.944843 13.3884 6.56963
286 1 -1.1104 3.73005 18.9855 12.4064
287 1 -1.1104 3.82684 13.3898 12.3634
291 1 -1.1104 1.03574 19.1327 9.38021
292 1 -1.1104 0.987681 16.4251 9.42107
293 2 2.2208 5.16349 20.5527 8.16872
294 1 -1.1104 0.799985 13.598 9.34169
295 2 2.2208 5.11929 14.8383 7.94572
298 1 -1.1104 1.05687 18.9279 12.2768
299 1 -1.1104 0.919331 13.311 12.256
300 2 2.2208 5.29651 17.6784 10.9648
301 1 -1.1104 3.87789 18.9342 9.77523
303 2 2.2208 2.45755 17.6954 8.1468
304 1 -1.1104 3.76558 16.12 9.3781
305 1 -1.1104 3.75896 13.4504 9.58487
307 1 -1.1104 1.16635 16.2738 12.2144
308 1 -1.1104 3.86882 16.1863 12.1976
309 2 2.2208 2.40737 20.411 10.9537
310 2 2.2208 2.46125 14.8488 10.8322
289 1 -1.1104 6.63281 16.2004 9.51859
297 1 -1.1104 6.59217 13.6928 12.0685
288 1 -1.1104 6.5516 19.2694 9.45834
203 2 2.2208 7.96488 20.5417 10.8091
9208 2 2.2208 13.6734 20.3807 -0.488667
334 2 2.2208 10.9719 14.742 13.7368
204 1 -1.1104 9.39338 16.1857 12.3206
105 2 2.2208 10.6695 20.2721 8.14568
82 1 -1.1104 12.2351 18.9817 9.49956
27 1 -1.1104 12.3306 13.2855 12.2983
137 1 -1.1104 9.48304 19.1346 12.2386
202 2 2.2208 8.01025 14.9582 10.8952
26 2 2.2208 10.7484 17.5792 10.8984
81 1 -1.1104 12.0354 13.4536 9.50181
165 2 2.2208 7.98038 17.6134 8.01808
49 1 -1.1104 12.2738 18.9164 12.3786
104 2 2.2208 10.7766 14.8083 7.99143
135 1 -1.1104 12.1541 16.1251 9.77728
29 2 2.2208 -0.465207 6.39783 10.9276
28 2 2.2208 13.6208 20.3634 10.8425
229 2 2.2208 13.8592 0.785571 7.82191
333 2 2.2208 11.0322 20.4456 13.8085
340 2 2.2208 2.46307 14.8752 -0.39789
332 2 2.2208 5.2334 14.8642 13.6613
9210 2 2.2208 -0.567683 12.0539 -0.417667
9174 2 2.2208 -0.39549 -1.91656 2.28245
8908 2 2.2208 13.6398 17.7023 2.26418
328 2 2.2208 10.8039 9.15188 13.6358
356 2 2.2208 10.8807 11.9634 -0.369086
317 2 2.2208 2.30503 0.790258 13.5653
344 2 2.2208 10.902 0.679342 -0.55234
358 2 2.2208 5.2553 0.705855 16.4647
359 1 -1.1104 1.05612 -3.43454 17.7886
360 1 -1.1104 0.947822 2.10103 17.816
363 1 -1.1104 1.13314 -3.42908 15.0194
365 1 -1.1104 0.985897 2.10508 14.8577
371 1 -1.1104 1.11205 -0.72239 17.7926
373 2 2.2208 5.29002 -2.14665 19.1377
374 2 2.2208 5.20756 3.58807 19.3562
375 1 -1.1104 0.891231 -0.608579 14.9915
379 1 -1.1104 3.66429 -3.58462 17.6621
380 1 -1.1104 3.75168 2.17872 17.7596
381 2 2.2208 2.58113 0.688087 19.2251
382 1 -1.1104 3.9597 -3.37409 15.0788
384 1 -1.1104 3.76561 2.07457 15.1107
386 2 2.2208 2.30513 -2.02445 16.4249
388 1 -1.1104 3.9037 -0.773271 17.8571
389 1 -1.1104 3.70196 -0.660719 14.8589
387 2 2.2208 2.38055 3.51878 16.471
383 1 -1.1104 3.93722 -3.48973 20.5439
364 1 -1.1104 1.20886 -3.30862 20.5327
367 1 -1.1104 6.68637 -3.50775 15.0802
366 1 -1.1104 1.33206 2.33144 20.4216
372 1 -1.1104 6.53819 -0.673353 17.897
377 1 -1.1104 6.75168 -0.621425 14.9097
362 1 -1.1104 6.46632 2.25805 17.8296
376 1 -1.1104 0.929369 -0.366828 20.3105
390 1 -1.1104 4.00803 -0.603161 20.6205
623 2 2.2208 13.7912 -2.03597 22.0653
346 2 2.2208 8.11315 3.62966 27.7555
369 1 -1.1104 6.55282 2.25692 15.1756
361 1 -1.1104 6.71592 -3.26288 17.8909
401 2 2.2208 10.7533 0.900214 16.4107
402 1 -1.1104 12.2607 -3.42296 17.7296
403 1 -1.1104 12.3609 2.21885 17.7789
404 1 -1.1104 12.508 -3.48867 14.8196
406 1 -1.1104 12.2195 2.12957 15.0999
408 1 -1.1104 12.3614 -0.703989 17.771
409 2 2.2208 10.8706 -2.06987 19.1888
410 2 2.2208 11.0332 3.69329 19.2297
411 1 -1.1104 12.1935 -0.627312 14.9967
413 1 -1.1104 9.51657 -3.43284 17.7828
414 1 -1.1104 9.46732 2.27246 17.8073
415 2 2.2208 8.23098 0.734938 19.246
416 1 -1.1104 9.61304 -3.5239 15.0265
418 1 -1.1104 9.50365 2.21847 14.901
420 2 2.2208 7.95222 -2.06433 16.3978
421 2 2.2208 7.88509 3.57538 16.4833
422 1 -1.1104 9.58119 -0.573059 17.9545
423 1 -1.1104 9.45358 -0.6418 15.1374
405 1 -1.1104 12.248 -3.27672 20.4997
407 1 -1.1104 12.4618 2.24324 20.4026
419 1 -1.1104 9.6447 2.23533 20.6452
8836 2 2.2208 5.17184 -4.80381 16.4192
8814 2 2.2208 8.29653 -4.83365 19.2628
412 1 -1.1104 12.4744 -0.684213 20.7176
417 1 -1.1104 9.5139 -3.25886 20.7836
396 2 2.2208 13.7874 9.24141 16.242
8825 2 2.2208 2.35409 -4.99563 19.278
468 1 -1.1104 9.28547 13.4322 23.464
326 2 2.2208 2.35316 12.0432 13.5714
322 2 2.2208 10.9587 -1.98332 13.4775
434 2 2.2208 5.30144 6.50875 16.5331
435 2 2.2208 5.14223 12.0586 16.4417
436 1 -1.1104 1.1958 7.92359 18.3069
438 1 -1.1104 1.06113 7.81576 15.2143
442 1 -1.1104 1.09984 4.9068 17.7663
443 1 -1.1104 0.948214 10.6494 17.8639
446 2 2.2208 5.20756 9.26187 19.3429
447 1 -1.1104 0.975544 4.92331 14.8621
449 1 -1.1104 1.20593 10.6375 15.0327
455 1 -1.1104 3.97418 7.84616 17.9261
456 2 2.2208 2.45264 6.52705 19.4813
457 2 2.2208 2.30303 12.0101 19.3746
458 1 -1.1104 3.79223 7.69965 15.148
460 2 2.2208 2.42203 9.33774 16.6524
461 1 -1.1104 4.13321 5.0189 18.0073
462 1 -1.1104 3.78552 10.6046 17.9585
463 1 -1.1104 3.79852 5.02321 15.2137
465 1 -1.1104 3.71312 10.55 15.0935
453 1 -1.1104 6.54906 10.6671 15.1667
466 1 -1.1104 3.68446 10.5121 20.8411
444 1 -1.1104 6.68982 5.08012 17.8105
440 1 -1.1104 6.58818 7.88507 14.9603
451 1 -1.1104 6.66685 5.1539 15.0654
439 1 -1.1104 0.979998 7.85108 20.7917
450 1 -1.1104 1.0136 10.6717 20.9256
448 1 -1.1104 1.12169 5.04672 20.708
459 1 -1.1104 3.80425 7.7693 20.8302
8653 2 2.2208 2.33607 -5.05544 24.8487
560 1 -1.1104 12.24 19.0413 23.5022
445 1 -1.1104 6.53834 10.6748 17.8489
437 1 -1.1104 6.67417 7.82794 17.8473
441 1 -1.1104 6.6649 7.87466 20.6193
454 1 -1.1104 6.61658 10.7856 20.7049
452 1 -1.1104 6.58261 5.04534 20.6642
470 2 2.2208 10.8809 6.40308 16.4996
471 2 2.2208 10.8071 12.089 16.4872
472 1 -1.1104 12.0563 7.84582 17.8998
473 1 -1.1104 12.2024 7.75115 15.0355
475 1 -1.1104 12.3784 5.09683 17.8348
476 1 -1.1104 12.0582 10.6381 17.6928
477 2 2.2208 10.8149 9.39295 19.253
478 1 -1.1104 12.3185 5.02341 15.1154
480 1 -1.1104 12.2657 10.6009 15.0105
482 1 -1.1104 9.34054 7.78941 17.8152
483 2 2.2208 7.98521 6.32316 19.2456
484 2 2.2208 7.9126 11.998 19.2316
485 1 -1.1104 9.44479 7.83543 15.0609
487 2 2.2208 8.09822 9.17499 16.4293
488 1 -1.1104 9.58513 5.02532 17.9363
489 1 -1.1104 9.36973 10.7853 17.687
490 1 -1.1104 9.39248 4.9937 15.0143
492 1 -1.1104 9.32529 10.8558 14.9118
493 1 -1.1104 9.35779 10.5305 20.5015
491 1 -1.1104 9.40194 4.86185 20.5941
474 1 -1.1104 12.3522 8.09794 20.7089
479 1 -1.1104 12.42 5.02662 20.7092
486 1 -1.1104 9.48314 7.70957 20.6798
481 1 -1.1104 12.0625 10.7833 20.3
467 1 -1.1104 12.358 16.2947 26.3385
585 1 -1.1104 12.18 13.3428 23.5129
349 2 2.2208 5.31417 6.21968 27.8371
497 2 2.2208 5.13441 17.5698 16.412
498 1 -1.1104 0.78045 13.3598 17.8411
499 1 -1.1104 0.889005 19.0074 17.9298
502 1 -1.1104 0.88354 13.3966 14.9429
504 1 -1.1104 0.724638 19.1739 15.2805
510 1 -1.1104 0.971258 16.147 17.8418
512 2 2.2208 5.05055 14.9046 19.3068
513 2 2.2208 5.14099 20.3257 19.3759
514 1 -1.1104 1.08725 16.1875 14.927
518 1 -1.1104 3.65132 13.3835 17.9504
519 1 -1.1104 3.71126 18.7706 18.0392
520 2 2.2208 2.21341 17.6974 19.3306
521 1 -1.1104 3.72936 13.4368 15.1837
523 1 -1.1104 3.65483 18.9757 15.2545
525 2 2.2208 2.37451 14.7124 16.5229
526 2 2.2208 2.28842 20.3834 16.5588
527 1 -1.1104 3.75709 16.0822 17.7351
528 1 -1.1104 3.72189 16.0938 15.0294
516 1 -1.1104 6.45614 16.1074 15.3152
524 1 -1.1104 3.77735 19.0733 20.7666
500 1 -1.1104 6.60148 13.3551 17.9136
503 1 -1.1104 0.742216 13.4153 20.6757
315 2 2.2208 -0.45048 3.61403 13.606
529 1 -1.1104 3.53589 16.1615 20.6841
505 1 -1.1104 0.984336 19.0474 20.7749
515 1 -1.1104 0.843045 16.3222 20.7527
507 1 -1.1104 6.46718 13.5404 20.6709
511 1 -1.1104 6.63181 16.1016 18.0088
509 1 -1.1104 6.46055 19.0905 20.8528
517 1 -1.1104 6.44157 16.3618 20.7714
539 1 -1.1104 12.0026 19.1167 20.7143
537 1 -1.1104 12.0659 13.4907 20.5526
501 1 -1.1104 6.50935 18.9771 17.7863
508 1 -1.1104 6.67157 18.7235 15.0644
506 1 -1.1104 6.48649 13.3862 14.9603
533 2 2.2208 10.8239 17.6795 16.4897
534 1 -1.1104 12.2103 13.475 17.8549
535 1 -1.1104 12.34 19.3695 18.0345
536 1 -1.1104 12.3353 13.4755 15.1714
538 1 -1.1104 12.1786 18.9188 15.1006
540 1 -1.1104 12.3227 16.3915 17.9152
541 2 2.2208 10.9377 14.8846 19.057
542 2 2.2208 10.9015 20.5864 19.3635
543 1 -1.1104 12.2265 16.2608 15.1294
545 1 -1.1104 9.40109 13.6507 17.887
546 1 -1.1104 9.41104 19.1052 17.9738
547 2 2.2208 7.90894 17.5615 19.4595
548 1 -1.1104 9.49398 13.6207 14.9862
550 1 -1.1104 9.54213 19.0897 15.0423
552 2 2.2208 7.8798 14.827 16.5275
553 2 2.2208 8.05543 20.4472 16.6566
554 1 -1.1104 9.38943 16.2507 17.76
555 1 -1.1104 9.4196 16.3162 15.0131
551 1 -1.1104 9.21988 19.0294 20.8142
544 1 -1.1104 12.1486 16.2393 20.6453
549 1 -1.1104 9.13684 13.2913 20.6982
392 2 2.2208 13.6695 9.28472 22.0221
385 1 -1.1104 3.94989 2.15216 20.7372
370 1 -1.1104 6.7554 2.13659 20.4874
378 1 -1.1104 6.90546 -0.542351 20.5998
618 2 2.2208 -0.471415 12.0015 16.3713
620 2 2.2208 13.5904 12.013 18.9782
561 2 2.2208 5.37079 0.561034 21.9797
562 1 -1.1104 1.11257 -3.53081 23.3813
563 1 -1.1104 1.10709 1.99931 23.4297
566 1 -1.1104 1.04258 -3.51481 26.1741
567 1 -1.1104 1.18027 2.18537 26.1843
570 1 -1.1104 0.890812 -0.718566 23.3091
572 2 2.2208 5.18614 -2.18218 24.9594
574 1 -1.1104 0.991904 -0.717295 26.1031
576 1 -1.1104 3.76352 -3.42917 23.3977
577 1 -1.1104 3.85268 2.0947 23.41
578 2 2.2208 2.46236 0.609598 24.8252
579 1 -1.1104 3.77244 -3.42688 26.3848
580 1 -1.1104 3.90394 2.11598 26.3025
581 2 2.2208 2.42077 -2.14612 22.0388
582 2 2.2208 2.61306 3.46946 22.0316
583 1 -1.1104 3.64175 -0.769812 23.3743
584 1 -1.1104 3.84156 -0.745296 26.3404
573 2 2.2208 5.22236 3.33869 24.9767
571 1 -1.1104 6.56956 -0.702088 23.5112
569 1 -1.1104 6.65581 2.14965 26.4646
368 1 -1.1104 6.76257 -3.49916 20.5429
565 1 -1.1104 6.62835 2.0062 23.3798
568 1 -1.1104 6.63507 -3.45052 26.2173
575 1 -1.1104 6.60425 -0.583692 26.2142
678 2 2.2208 13.5882 12.0753 24.8246
589 2 2.2208 13.6577 14.8873 16.5221
339 2 2.2208 2.29173 3.43335 27.6855
424 1 -1.1104 9.5529 -0.540137 20.7625
427 2 2.2208 -0.687713 14.7724 19.2897
355 2 2.2208 8.12263 9.18688 27.8334
564 1 -1.1104 6.49664 -3.55151 23.483
557 1 -1.1104 9.30252 16.03 23.7667
597 2 2.2208 11.1199 0.980206 22.0022
598 1 -1.1104 12.3391 -3.27455 23.5123
599 1 -1.1104 12.4514 2.37511 23.4015
600 1 -1.1104 12.402 -3.54035 26.289
601 1 -1.1104 12.3622 2.29541 26.264
602 1 -1.1104 12.3655 -0.523611 23.3682
603 2 2.2208 10.8316 -2.04933 24.7112
604 2 2.2208 10.8613 3.75165 24.7921
605 1 -1.1104 12.2098 -0.697013 26.116
606 1 -1.1104 9.34566 -3.51255 23.5321
607 1 -1.1104 9.80523 2.04453 23.591
608 2 2.2208 8.13083 0.821523 24.9715
609 1 -1.1104 9.5625 -3.30293 26.2027
610 1 -1.1104 9.65123 2.25765 26.2265
611 2 2.2208 8.05588 -1.95646 22.0412
612 2 2.2208 7.95678 3.65175 21.9285
613 1 -1.1104 9.34474 -0.681759 23.6544
614 1 -1.1104 9.45886 -0.649044 26.3887
391 2 2.2208 -0.345812 6.35417 22.1368
655 2 2.2208 -0.564478 11.9854 22.2645
593 2 2.2208 13.492 14.7295 21.9818
680 2 2.2208 13.7587 6.38333 24.6507
464 1 -1.1104 3.96984 4.91286 20.6938
341 2 2.2208 5.10218 17.7293 27.8166
626 2 2.2208 5.24876 6.32664 22.2597
627 2 2.2208 5.25429 12.0687 22.1236
628 1 -1.1104 0.864193 7.84353 23.5626
630 1 -1.1104 1.06886 7.7155 26.1927
632 1 -1.1104 1.19974 4.90072 23.4555
633 1 -1.1104 0.860416 10.6937 23.7265
636 2 2.2208 5.26022 9.01739 25.0009
637 1 -1.1104 0.946263 4.94996 26.2949
638 1 -1.1104 0.84391 10.5098 26.2631
641 1 -1.1104 3.70158 7.74387 23.5895
642 2 2.2208 2.38339 6.25151 24.9403
643 2 2.2208 2.27264 12.0564 24.8332
644 1 -1.1104 3.99168 7.63761 26.2863
645 2 2.2208 2.38461 9.19809 22.2865
646 1 -1.1104 3.78359 4.97366 23.3732
647 1 -1.1104 3.97648 10.6112 23.4501
648 1 -1.1104 3.86897 5.02408 26.3862
649 1 -1.1104 3.86633 10.5374 26.3842
634 1 -1.1104 6.35606 4.84103 23.5779
639 1 -1.1104 6.6075 4.97491 26.2211
629 1 -1.1104 6.76411 7.72862 23.635
531 2 2.2208 7.95731 14.868 22.1349
558 1 -1.1104 9.20127 16.2057 26.3997
425 1 -1.1104 12.2867 18.932 26.152
469 1 -1.1104 9.22868 18.9043 23.7615
431 1 -1.1104 12.0318 16.1338 23.3502
432 2 2.2208 10.9429 14.7408 24.9041
352 2 2.2208 8.04265 14.6608 27.8505
631 1 -1.1104 6.62174 7.79415 26.3699
640 1 -1.1104 6.70721 10.6207 26.4722
338 2 2.2208 2.24378 -2.15553 27.6539
635 1 -1.1104 6.68736 10.5488 23.7493
657 1 -1.1104 9.45018 10.6349 26.222
658 1 -1.1104 9.38123 4.95314 26.312
659 1 -1.1104 9.32279 10.7927 23.3142
660 1 -1.1104 9.13639 5.18745 23.3833
661 2 2.2208 7.99799 9.29262 22.1284
662 1 -1.1104 9.35917 7.81726 26.4616
663 2 2.2208 7.97493 12.0295 24.962
664 2 2.2208 8.02508 6.30183 25.0724
665 2 2.2208 10.8825 6.61845 22.0667
666 2 2.2208 10.6149 12.2179 21.9959
667 1 -1.1104 12.3013 7.91113 23.4576
668 1 -1.1104 12.2594 7.8096 26.3583
669 1 -1.1104 12.0215 5.22079 23.617
670 1 -1.1104 11.9655 10.5833 23.3992
671 2 2.2208 10.7231 9.2519 24.8985
672 1 -1.1104 12.3312 5.16351 26.3597
673 1 -1.1104 12.1463 10.5139 26.3957
674 1 -1.1104 9.3846 8.015 23.4373
625 2 2.2208 13.6352 17.5795 24.8039
530 1 -1.1104 9.51717 19.1084 26.6688
522 1 -1.1104 3.55348 13.3093 20.8324
337 2 2.2208 5.09441 0.62918 27.7825
354 2 2.2208 10.9288 6.2623 27.8028
495 1 -1.1104 6.67182 19.0468 26.3913
684 1 -1.1104 6.43031 16.1768 26.3255
587 2 2.2208 2.23464 14.7782 22.3441
590 2 2.2208 2.35937 20.5128 21.9919
615 1 -1.1104 3.56431 16.0762 23.6305
616 1 -1.1104 0.73935 16.4347 23.5794
619 1 -1.1104 3.57626 13.4896 26.3061
622 1 -1.1104 3.76371 16.3879 26.4252
650 2 2.2208 2.44548 17.6776 24.8748
651 1 -1.1104 3.79197 19.0049 26.3044
652 2 2.2208 5.0596 17.7674 22.1848
654 1 -1.1104 0.720861 13.451 23.6188
656 1 -1.1104 1.06952 19.2277 23.5222
676 2 2.2208 5.28508 14.8398 24.7861
677 2 2.2208 5.07457 20.5005 24.8291
681 1 -1.1104 3.75184 19.0418 23.4898
683 1 -1.1104 3.8806 13.3607 23.5477
685 1 -1.1104 0.943315 19.1739 26.458
686 1 -1.1104 1.00915 16.2206 26.2036
687 1 -1.1104 0.902549 13.4192 26.3355
682 1 -1.1104 6.47126 13.4079 26.4139
679 1 -1.1104 6.44484 19.0373 23.6308
494 2 2.2208 7.78632 17.439 25.0131
595 2 2.2208 -0.536173 0.645708 21.9633
393 2 2.2208 13.8551 3.5048 21.8942
532 2 2.2208 7.9837 20.4892 22.1751
617 1 -1.1104 6.45754 16.2554 23.4123
433 2 2.2208 10.7531 20.5258 24.8935
496 1 -1.1104 9.35158 13.3789 26.3909
556 1 -1.1104 9.39067 16.1405 20.7763
400 1 -1.1104 12.2927 13.348 26.2698
586 2 2.2208 10.7078 17.5668 22.2145
675 1 -1.1104 6.70171 13.2362 23.4151
313 2 2.2208 -0.48851 20.3617 13.6471
9294 2 2.2208 -0.478195 9.19483 24.992
345 2 2.2208 8.05262 -1.97987 27.5091
347 2 2.2208 13.7308 11.914 13.5788
342 2 2.2208 2.37207 20.4564 27.8071
330 2 2.2208 2.38783 17.5412 13.6695
351 2 2.2208 5.23539 11.9973 27.7862
331 2 2.2208 5.32997 20.3578 13.6305
357 2 2.2208 8.01895 20.4862 27.7936
324 2 2.2208 2.45858 6.33882 13.6927
688 2 2.2208 5.23727 23.242 5.10236
689 2 2.2208 5.34206 28.6815 5.06584
690 1 -1.1104 0.963766 24.6484 1.09725
691 1 -1.1104 1.03938 24.6101 3.7812
692 1 -1.1104 0.863608 21.9149 0.816241
693 1 -1.1104 1.09332 27.3793 1.10687
694 2 2.2208 5.21833 26.0428 2.28911
695 1 -1.1104 0.997275 21.7848 3.81694
696 1 -1.1104 1.19846 27.6573 3.85317
697 1 -1.1104 3.87615 24.5001 1.14388
698 2 2.2208 2.47349 23.2375 2.34698
699 2 2.2208 2.56572 28.9348 2.3738
700 1 -1.1104 3.79424 24.6467 3.7476
701 2 2.2208 2.411 26.0351 5.26064
702 1 -1.1104 3.79439 21.7329 1.00316
703 1 -1.1104 3.85063 27.5109 0.88695
704 1 -1.1104 3.83432 21.5874 3.86795
705 1 -1.1104 3.81018 27.4972 3.74306
835 1 -1.1104 3.83236 24.7931 6.52713
836 1 -1.1104 3.9576 21.8923 6.79167
837 1 -1.1104 3.88511 27.5454 6.50436
711 1 -1.1104 6.5718 21.6728 1.09157
710 1 -1.1104 6.65873 24.7535 3.4979
1003 2 2.2208 5.23674 42.893 13.5373
1333 1 -1.1104 6.75682 47.0805 3.824
9846 2 2.2208 -0.486531 31.702 2.28023
714 1 -1.1104 6.78526 27.2801 3.57829
713 1 -1.1104 6.70659 21.9082 3.92623
834 1 -1.1104 6.5441 27.2777 6.37699
833 1 -1.1104 6.67756 21.9312 6.55413
830 1 -1.1104 6.57252 24.68 6.46664
712 1 -1.1104 6.74231 27.4304 1.04715
709 1 -1.1104 6.7086 24.4439 0.845528
715 2 2.2208 10.8446 23.2881 5.13564
716 2 2.2208 10.8172 28.9588 5.18836
717 1 -1.1104 12.1478 24.7418 1.01035
718 1 -1.1104 12.1823 24.772 3.94871
719 1 -1.1104 12.4461 21.8049 0.879125
720 1 -1.1104 12.2319 27.7623 1.15
721 2 2.2208 10.9023 26.0905 2.405
722 1 -1.1104 12.2927 21.7867 3.75162
723 1 -1.1104 12.3446 27.556 3.82107
724 1 -1.1104 9.418 24.735 0.802125
725 2 2.2208 7.98046 23.1712 2.27556
726 2 2.2208 8.21732 28.8629 2.5497
727 1 -1.1104 9.60144 24.6883 3.69113
728 2 2.2208 8.18783 26.1413 5.05338
729 1 -1.1104 9.58752 21.992 0.912499
730 1 -1.1104 9.43315 27.6267 0.954566
731 1 -1.1104 9.36948 21.9509 3.85747
732 1 -1.1104 9.62239 27.3493 3.84028
866 1 -1.1104 9.49325 21.8043 6.64844
865 1 -1.1104 9.47466 24.8122 6.70858
863 1 -1.1104 12.2431 21.7695 6.59109
862 1 -1.1104 12.1941 24.6166 6.64586
867 1 -1.1104 9.38925 27.555 6.68232
864 1 -1.1104 12.0561 27.3551 6.62994
736 2 2.2208 5.36773 34.5142 5.14746
737 1 -1.1104 1.02639 30.1658 0.750373
738 1 -1.1104 1.09254 35.8186 0.974075
740 1 -1.1104 1.18358 30.4026 3.55294
741 1 -1.1104 0.860518 35.7672 3.87142
743 1 -1.1104 1.03666 32.9978 0.740448
744 2 2.2208 5.33474 31.7855 2.43122
745 2 2.2208 5.0986 37.4289 2.26737
746 1 -1.1104 1.01943 33.0814 3.79905
748 1 -1.1104 3.99624 30.4766 1.00871
749 1 -1.1104 3.75436 36.164 0.997245
750 2 2.2208 2.57131 34.47 2.52685
751 1 -1.1104 3.83536 30.3456 3.93358
752 1 -1.1104 3.68484 35.9664 3.84643
753 2 2.2208 2.26896 31.6718 5.14536
754 2 2.2208 2.41553 37.281 5.20502
755 1 -1.1104 3.98556 33.1105 1.07916
756 1 -1.1104 3.88697 32.9883 3.83405
747 1 -1.1104 6.46694 33.2804 3.56953
892 1 -1.1104 3.88139 30.2172 6.72563
886 1 -1.1104 0.920867 30.1661 6.57459
887 1 -1.1104 1.25675 36.0284 6.65047
1009 2 2.2208 8.27816 40.2163 13.6312
890 1 -1.1104 0.963223 33.0196 6.29843
894 1 -1.1104 3.80871 33.0622 6.57066
9856 2 2.2208 -0.367658 45.7446 10.7276
761 1 -1.1104 6.62269 30.2659 3.83282
760 1 -1.1104 6.67553 30.2848 1.22403
742 1 -1.1104 6.58731 36.1133 3.94927
739 1 -1.1104 6.63044 35.8905 1.05091
762 1 -1.1104 6.63507 33.2416 0.880089
763 2 2.2208 10.8268 34.5816 5.17598
764 1 -1.1104 12.3489 30.5074 1.16134
765 1 -1.1104 12.2172 36.1136 0.94213
766 1 -1.1104 12.3159 30.5229 3.79024
767 1 -1.1104 12.2019 36.2532 3.85881
768 1 -1.1104 12.1957 33.2773 1.06166
769 2 2.2208 10.9318 31.8402 2.3914
770 2 2.2208 10.7805 37.4445 2.29876
771 1 -1.1104 12.218 33.4201 3.76497
772 1 -1.1104 9.46148 30.3281 0.767756
773 1 -1.1104 9.3731 35.9619 0.92602
774 2 2.2208 8.17372 34.5711 2.24126
775 1 -1.1104 9.54931 30.2644 3.74326
776 1 -1.1104 9.65543 35.7581 3.51873
777 2 2.2208 7.96723 31.7201 5.11143
778 2 2.2208 8.09696 37.1994 5.16272
779 1 -1.1104 9.35755 33.1911 0.7116
780 1 -1.1104 9.42705 32.9616 3.82006
888 1 -1.1104 6.71138 30.1713 6.52967
922 1 -1.1104 12.0602 33.0459 6.48454
924 1 -1.1104 9.42309 36.0212 6.55509
923 1 -1.1104 9.39957 30.3487 6.5575
925 1 -1.1104 9.38786 33.2585 6.64384