ITEM: TIMESTEP
20000
ITEM: NUMBER OF ATOMS
17910
ITEM: BOX BOUNDS pp pp pp
-4.0127790719742396e-01 2.7741277907197901e+01
-4.7792073294796689e+00 3.3285920732948352e+02
-3.8532574062854674e-01 2.7725325740628691e+01
ITEM: ATOMS id type q x y z
1 2 2.2208 5.33137 0.81377 5.19405
2 1 -1.1104 0.919997 -3.44375 1.08004
3 1 -1.1104 1.06513 1.96841 1.06459
6 1 -1.1104 1.14241 -3.45446 3.97938
7 1 -1.1104 1.0353 2.21214 4.00994
10 1 -1.1104 1.1363 -0.672117 1.05641
12 2 2.2208 5.18843 -2.01756 2.45161
13 2 2.2208 5.15323 3.51324 2.53723
14 1 -1.1104 0.908534 -0.525794 3.87488
16 1 -1.1104 3.88601 -3.36382 0.972518
17 1 -1.1104 3.86321 2.17575 0.980364
18 2 2.2208 2.41818 0.75258 2.35534
19 1 -1.1104 3.89758 -3.48459 3.77775
20 1 -1.1104 3.90429 2.1455 3.79525
21 2 2.2208 2.45973 -1.92306 5.17469
22 2 2.2208 2.63077 3.51253 5.2337
23 1 -1.1104 3.99812 -0.564249 1.1166
24 1 -1.1104 3.78334 -0.563225 3.94807
339 2 2.2208 2.4377 3.58843 -0.311102
297 1 -1.1104 6.74576 13.3451 12.5194
352 2 2.2208 8.00881 14.615 -0.306933
9188 2 2.2208 -0.365138 6.46779 -0.253612
338 2 2.2208 2.35025 -2.122 -0.352465
15 1 -1.1104 6.57689 -0.65124 3.85545
9216 2 2.2208 13.618 3.58838 -0.200738
351 2 2.2208 5.34677 11.996 -0.400321
9175 2 2.2208 -0.21812 0.760357 5.39377
9 1 -1.1104 6.74299 2.33625 3.95377
11 1 -1.1104 6.57096 -0.5194 1.03963
9174 2 2.2208 -0.407172 -1.97683 2.54704
8 1 -1.1104 6.71871 -3.40011 3.8245
5 1 -1.1104 6.70249 2.10051 1.24584
4 1 -1.1104 6.64797 -3.58303 1.11336
31 2 2.2208 10.9262 0.791917 5.37413
32 1 -1.1104 12.167 -3.6464 1.16044
33 1 -1.1104 12.347 2.11135 1.09744
34 1 -1.1104 12.3036 -3.5305 3.88079
35 1 -1.1104 12.346 2.13519 3.80893
36 1 -1.1104 12.3911 -0.8054 1.04224
37 2 2.2208 10.9504 -2.08636 2.41056
38 2 2.2208 10.8564 3.36569 2.5348
39 1 -1.1104 12.5311 -0.580861 4.04857
40 1 -1.1104 9.46395 -3.52897 1.00072
41 1 -1.1104 9.51003 2.01546 1.17793
42 2 2.2208 8.03107 0.786113 2.49875
43 1 -1.1104 9.67459 -3.58712 3.97628
44 1 -1.1104 9.43165 2.06736 3.91283
45 2 2.2208 8.14333 -2.13059 5.26902
46 2 2.2208 7.92976 3.66567 5.35244
47 1 -1.1104 9.36341 -0.676252 1.01561
48 1 -1.1104 9.65057 -0.700191 3.90445
345 2 2.2208 8.12667 -2.14377 -0.38208
25 2 2.2208 13.7825 14.6861 10.7391
149 1 -1.1104 12.236 16.0908 6.63391
207 1 -1.1104 12.264 -0.802556 6.7703
206 1 -1.1104 12.3816 2.02964 6.80054
9182 2 2.2208 -0.402176 17.4434 -0.185135
233 2 2.2208 -0.412015 17.5374 10.9742
9042 2 2.2208 -0.206715 14.7436 2.5119
54 2 2.2208 5.26615 6.29242 5.43738
55 2 2.2208 5.24816 12.0579 5.24498
56 1 -1.1104 1.18034 7.84021 1.11403
58 1 -1.1104 1.00808 7.67589 4.02314
60 1 -1.1104 1.0229 4.95958 0.999868
61 1 -1.1104 1.13047 10.5953 1.03875
66 2 2.2208 5.32801 8.98427 2.6422
67 1 -1.1104 1.09726 4.79692 3.87512
68 1 -1.1104 1.06815 10.6195 3.95671
71 1 -1.1104 3.83664 7.6384 1.09293
72 2 2.2208 2.41714 6.334 2.58673
73 2 2.2208 2.63358 11.9093 2.39398
74 1 -1.1104 3.81627 7.7765 3.95807
75 2 2.2208 2.42477 9.09581 5.3212
76 1 -1.1104 3.79783 4.98172 1.1818
77 1 -1.1104 3.88379 10.426 1.19323
79 1 -1.1104 3.88513 4.99524 4.03124
80 1 -1.1104 4.01244 10.4884 3.88746
350 2 2.2208 2.53764 9.07945 -0.306523
349 2 2.2208 5.20331 6.35282 -0.307351
69 1 -1.1104 6.64207 4.93109 3.7829
63 1 -1.1104 6.62466 4.87457 0.860679
322 2 2.2208 10.896 -2.16331 13.6776
356 2 2.2208 10.8887 11.8659 -0.330717
200 2 2.2208 -0.150781 -1.98966 8.11734
59 1 -1.1104 6.70171 7.46632 3.91653
8909 2 2.2208 -0.211877 17.6392 5.43368
57 1 -1.1104 6.58465 7.61821 1.16249
64 1 -1.1104 6.68904 10.5249 1.20415
70 1 -1.1104 6.74725 10.4076 4.01633
84 2 2.2208 10.907 6.24239 5.189
85 2 2.2208 10.8682 11.9371 5.27873
86 1 -1.1104 12.3564 7.70745 1.13618
87 1 -1.1104 12.3083 7.55759 3.82549
88 1 -1.1104 12.3138 4.77476 1.33667
89 1 -1.1104 12.2155 10.4531 1.03091
91 2 2.2208 10.7872 9.02219 2.58846
92 1 -1.1104 12.2528 4.78021 3.97994
93 1 -1.1104 12.1156 10.4364 3.92376
94 1 -1.1104 9.47381 7.72209 1.104
95 2 2.2208 8.05949 6.22755 2.48986
96 2 2.2208 8.08521 11.8345 2.49178
97 1 -1.1104 9.4203 7.66266 4.09759
98 2 2.2208 7.9829 9.2305 5.4585
99 1 -1.1104 9.60755 4.87066 1.08301
100 1 -1.1104 9.4826 10.5144 1.13874
102 1 -1.1104 9.56752 4.85948 4.00982
103 1 -1.1104 9.37408 10.6864 4.02683
316 2 2.2208 5.22837 -2.10579 13.8363
344 2 2.2208 10.8266 0.621028 -0.317454
340 2 2.2208 2.5451 14.6317 -0.255593
8883 2 2.2208 -0.401029 20.3693 8.09452
341 2 2.2208 5.29078 17.4519 -0.305174
9181 2 2.2208 -0.38317 11.9593 5.32935
106 2 2.2208 5.3375 17.557 5.35641
107 1 -1.1104 1.03426 13.2353 1.20606
109 1 -1.1104 1.10734 19.0148 1.13315
113 1 -1.1104 1.09665 13.5566 4.02857
114 1 -1.1104 1.02705 19.1577 3.98695
116 1 -1.1104 0.989977 16.1491 1.11278
119 2 2.2208 5.22973 14.7782 2.4963
120 2 2.2208 5.26221 20.3037 2.6996
121 1 -1.1104 1.0156 16.3894 3.88847
123 1 -1.1104 3.81607 13.1766 0.908807
125 1 -1.1104 3.81687 18.7316 1.07844
127 2 2.2208 2.47888 17.5409 2.45674
128 1 -1.1104 3.97594 13.3833 3.7191
129 1 -1.1104 3.76199 18.8669 3.88536
130 2 2.2208 2.46275 14.7894 5.31965
131 2 2.2208 2.47037 20.3677 5.36833
132 1 -1.1104 3.6678 15.9836 1.30227
134 1 -1.1104 3.6845 16.1639 3.98897
115 1 -1.1104 6.63586 13.3407 3.75845
122 1 -1.1104 6.68425 16.0596 3.95757
201 2 2.2208 -0.353348 0.685011 10.9313
124 1 -1.1104 3.76701 13.2668 6.78651
9041 2 2.2208 -0.429851 20.4527 2.59964
232 1 -1.1104 9.64936 18.9273 9.57317
140 1 -1.1104 6.56324 16.1689 1.13315
138 1 -1.1104 6.58848 18.9778 1.00851
353 2 2.2208 10.8668 17.4745 -0.165761
357 2 2.2208 8.01807 20.3782 -0.392541
139 1 -1.1104 6.6938 18.89 3.86789
110 1 -1.1104 6.63239 13.4391 1.1185
141 2 2.2208 10.8892 17.5909 5.32419
142 1 -1.1104 12.2488 13.4 1.01035
144 1 -1.1104 12.0865 18.8136 1.12077
146 1 -1.1104 12.431 13.3141 3.85935
147 1 -1.1104 12.2995 18.9987 4.02716
148 1 -1.1104 12.3337 16.1945 1.13622
150 2 2.2208 10.9767 14.7982 2.65127
151 2 2.2208 10.7745 20.3831 2.36702
152 1 -1.1104 12.367 16.1526 3.93202
153 1 -1.1104 9.28374 13.2806 0.952472
155 1 -1.1104 9.42299 18.8443 1.11108
157 2 2.2208 8.07335 17.5023 2.54779
158 1 -1.1104 9.42111 13.4544 3.71504
159 1 -1.1104 9.53066 19.0034 3.74407
160 2 2.2208 8.12839 14.6809 5.24072
161 2 2.2208 8.05583 20.3759 5.43482
162 1 -1.1104 9.56997 15.9543 1.22611
164 1 -1.1104 9.37813 16.1205 3.75641
143 1 -1.1104 12.2848 13.2161 6.68329
145 1 -1.1104 12.3164 18.9084 6.81324
170 1 -1.1104 1.13853 -0.51295 6.8039
174 1 -1.1104 3.7479 -0.634971 6.63539
9180 2 2.2208 -0.320161 8.93925 2.59696
166 1 -1.1104 1.2195 -3.36366 6.71665
173 1 -1.1104 3.86829 2.26387 6.7292
172 1 -1.1104 4.00361 -3.41071 6.59348
167 1 -1.1104 1.17412 2.1246 6.57498
175 2 2.2208 5.28145 0.856925 10.9594
176 1 -1.1104 0.902803 -3.55564 12.3396
177 1 -1.1104 0.996114 2.12868 12.2723
180 1 -1.1104 1.17898 -3.49366 9.4552
181 1 -1.1104 1.12486 2.43168 9.40859
184 1 -1.1104 0.964246 -0.754186 12.3513
186 2 2.2208 5.26378 -1.94083 8.16441
187 2 2.2208 5.23518 3.61221 8.19039
188 1 -1.1104 1.43372 -0.259043 9.63662
190 1 -1.1104 3.58496 -3.41149 12.4716
191 1 -1.1104 3.95285 2.30104 12.1855
192 2 2.2208 2.54231 0.910566 8.18972
193 1 -1.1104 4.01785 -3.37975 9.64329
194 1 -1.1104 3.93407 2.23217 9.5873
195 2 2.2208 2.53056 -1.94005 10.8889
196 2 2.2208 2.49515 3.6646 10.907
197 1 -1.1104 3.81731 -0.537601 12.3364
198 1 -1.1104 3.99966 -0.550072 9.48316
163 1 -1.1104 9.53504 15.9519 6.89167
118 1 -1.1104 6.56516 15.9416 6.7876
179 1 -1.1104 6.9076 2.18109 12.42
156 1 -1.1104 9.54624 18.8752 6.64993
311 1 -1.1104 9.48524 13.2959 9.59681
168 1 -1.1104 6.84266 -3.29109 6.81721
171 1 -1.1104 6.72403 -0.654652 6.53783
169 1 -1.1104 6.47617 2.18155 6.64142
205 1 -1.1104 12.349 -3.47904 6.7398
178 1 -1.1104 6.67151 -3.51399 12.4104
210 1 -1.1104 9.60413 -0.821657 6.6775
208 1 -1.1104 9.50016 -3.54423 6.64205
209 1 -1.1104 9.26225 2.20192 6.71618
183 1 -1.1104 6.66387 2.3066 9.62495
189 1 -1.1104 6.71392 -0.569309 9.66813
182 1 -1.1104 6.69134 -3.43212 9.41389
185 1 -1.1104 6.65443 -0.788249 12.3882
211 2 2.2208 10.8791 0.714281 10.9296
212 1 -1.1104 12.2255 -3.49459 12.1901
213 1 -1.1104 12.3736 2.01034 12.2634
214 1 -1.1104 12.2467 -3.5356 9.55412
215 1 -1.1104 12.2541 2.23741 9.53182
216 1 -1.1104 12.2321 -0.729332 12.24
217 2 2.2208 10.8217 -2.13468 8.1275
218 2 2.2208 10.8474 3.55244 8.05932
219 1 -1.1104 12.1921 -0.814688 9.48885
220 1 -1.1104 9.57252 -3.46188 12.3779
221 1 -1.1104 9.48467 2.14644 12.2052
222 2 2.2208 8.05036 0.661862 7.92821
223 1 -1.1104 9.48778 -3.6589 9.56044
224 1 -1.1104 9.48641 2.005 9.43449
225 2 2.2208 8.04465 -2.01757 10.9463
226 2 2.2208 8.04948 3.60626 10.857
227 1 -1.1104 9.40149 -0.547657 12.418
228 1 -1.1104 9.54834 -0.723312 9.5638
27 1 -1.1104 12.3493 13.2172 12.2685
81 1 -1.1104 12.3488 13.2881 9.64079
154 1 -1.1104 9.47838 13.2516 6.50592
234 1 -1.1104 1.07514 7.79897 6.76493
236 1 -1.1104 1.28462 5.12671 6.51602
62 1 -1.1104 0.965381 10.6191 6.79567
238 1 -1.1104 3.7271 7.83506 6.76868
78 1 -1.1104 3.79541 10.3611 6.89197
239 1 -1.1104 3.84276 4.97983 6.6647
240 2 2.2208 5.23329 6.28891 11.1045
241 2 2.2208 5.27879 11.9683 11.1144
242 1 -1.1104 1.0082 7.714 12.3739
244 1 -1.1104 0.975221 8.01829 9.46604
246 1 -1.1104 0.889284 4.88492 12.5551
247 1 -1.1104 0.895981 10.7023 12.3592
250 2 2.2208 5.30258 9.12426 8.1492
251 1 -1.1104 1.07969 4.97665 9.62591
252 1 -1.1104 0.932489 10.5208 9.53565
255 1 -1.1104 3.87301 7.68644 12.478
256 2 2.2208 2.44021 6.48567 8.08744
257 2 2.2208 2.53031 11.7717 8.18064
258 1 -1.1104 3.91164 7.71881 9.58517
259 2 2.2208 2.36782 9.16839 11.0023
260 1 -1.1104 3.76015 5.10506 12.2332
261 1 -1.1104 3.80993 10.5555 12.5668
262 1 -1.1104 3.88125 4.89252 9.47649
263 1 -1.1104 3.93467 10.4594 9.70428
235 1 -1.1104 6.56836 7.75633 6.81896
248 1 -1.1104 6.74928 4.95208 12.4852
65 1 -1.1104 6.67037 10.5824 6.7449
249 1 -1.1104 6.60043 10.5748 12.485
237 1 -1.1104 6.6487 5.01368 6.78023
101 1 -1.1104 9.42676 10.3412 6.774
269 1 -1.1104 9.40182 5.00583 6.6163
265 1 -1.1104 12.3881 7.66784 6.57848
266 1 -1.1104 12.2665 4.9446 6.76419
253 1 -1.1104 6.74737 4.99085 9.67142
254 1 -1.1104 6.62117 10.4992 9.62009
90 1 -1.1104 12.2421 10.4299 6.69593
267 1 -1.1104 9.34076 7.63028 6.9661
245 1 -1.1104 6.67592 7.73921 9.59417
243 1 -1.1104 6.76104 7.64561 12.2483
264 1 -1.1104 9.31578 10.6005 9.51076
268 1 -1.1104 9.5487 4.95349 9.44056
270 1 -1.1104 9.2198 10.427 12.4198
271 1 -1.1104 9.47461 4.86848 12.5274
272 2 2.2208 8.08183 9.06821 11.0646
273 1 -1.1104 9.45988 7.8298 9.55663
274 2 2.2208 8.03509 11.8948 8.13867
275 2 2.2208 8.01744 6.48984 8.20165
276 2 2.2208 10.8956 6.21417 10.9533
277 2 2.2208 10.8419 11.8492 10.9703
278 1 -1.1104 12.2532 7.51145 12.2758
279 1 -1.1104 12.2063 7.56771 9.59184
280 1 -1.1104 12.412 4.77971 12.3782
281 1 -1.1104 12.0196 10.5562 12.3838
282 2 2.2208 10.7521 9.14711 8.07157
283 1 -1.1104 12.1892 4.92234 9.65516
284 1 -1.1104 12.3297 10.6231 9.5318
285 1 -1.1104 9.43424 7.66438 12.4546
108 1 -1.1104 1.04872 13.4125 6.96685
49 1 -1.1104 12.3572 19.0153 12.2261
136 1 -1.1104 9.52887 13.3004 12.2722
117 1 -1.1104 0.971699 16.1449 6.69675
126 1 -1.1104 3.99773 19.0219 6.6365
302 1 -1.1104 1.05345 19.0288 7.02279
133 1 -1.1104 3.85653 15.8958 6.67186
286 1 -1.1104 3.74696 18.8411 12.3602
287 1 -1.1104 3.92377 13.4432 12.2805
291 1 -1.1104 1.21279 18.8976 9.69724
292 1 -1.1104 0.894694 16.0827 9.42222
293 2 2.2208 5.25585 20.3176 8.25684
294 1 -1.1104 1.08355 13.1322 9.6652
295 2 2.2208 5.22366 14.7052 8.23014
298 1 -1.1104 0.906028 18.9029 12.3426
299 1 -1.1104 1.15468 13.3733 12.4071
300 2 2.2208 5.30744 17.5485 10.9633
301 1 -1.1104 3.93159 18.7314 9.48138
303 2 2.2208 2.45747 17.3938 8.13831
304 1 -1.1104 3.7716 16.1104 9.56619
305 1 -1.1104 3.93493 13.2975 9.50272
307 1 -1.1104 1.09456 16.0604 12.4322
308 1 -1.1104 3.79594 16.1211 12.4238
309 2 2.2208 2.35727 20.3667 11.0493
310 2 2.2208 2.38234 14.6967 10.9047
296 1 -1.1104 6.66355 18.801 12.3667
306 1 -1.1104 6.5205 16.1313 12.3411
137 1 -1.1104 9.62812 18.876 12.4541
83 1 -1.1104 12.2625 16.1788 12.4118
26 2 2.2208 10.8948 17.5021 10.9695
104 2 2.2208 10.9115 14.7089 8.28674
288 1 -1.1104 6.75288 18.9455 9.62282
202 2 2.2208 8.00802 14.6942 10.9281
203 2 2.2208 8.17823 20.324 10.8922
231 1 -1.1104 9.73372 16.1016 9.43103
165 2 2.2208 8.23658 17.4459 8.11484
105 2 2.2208 10.9808 20.307 8.16366
204 1 -1.1104 9.34418 16.0349 12.2522
289 1 -1.1104 6.66729 16.0759 9.4399
111 1 -1.1104 6.73571 13.1619 6.49346
290 1 -1.1104 6.6366 13.3132 9.76142
112 1 -1.1104 6.73709 18.7923 6.77405
135 1 -1.1104 12.373 15.9909 9.43437
82 1 -1.1104 12.2071 18.7496 9.39449
199 2 2.2208 -0.270766 3.67005 8.05718
9077 2 2.2208 13.6144 11.8934 2.43574
29 2 2.2208 -0.346394 6.35153 10.9299
8979 2 2.2208 13.7407 14.7098 5.3373
230 2 2.2208 13.6879 -2.07582 10.798
327 2 2.2208 8.09689 6.38198 13.7475
317 2 2.2208 2.36493 0.585188 13.7503
354 2 2.2208 11.007 6.34871 -0.173928
342 2 2.2208 2.43109 20.3248 -0.176861
355 2 2.2208 8.08488 9.09155 -0.128268
358 2 2.2208 5.18394 0.782793 16.4961
359 1 -1.1104 0.829969 -3.38096 17.9878
360 1 -1.1104 0.963999 2.20514 17.8986
363 1 -1.1104 0.859175 -3.48376 15.2174
365 1 -1.1104 0.860669 2.00787 14.9418
371 1 -1.1104 0.932303 -0.634467 18.1103
373 2 2.2208 5.10455 -1.93177 19.3762
374 2 2.2208 5.25397 3.63798 19.3398
375 1 -1.1104 0.87258 -0.855174 15.2858
379 1 -1.1104 3.75834 -3.412 18.1152
380 1 -1.1104 3.66722 2.20408 17.9518
381 2 2.2208 2.30618 0.770001 19.3313
382 1 -1.1104 3.7509 -3.39286 15.2411
384 1 -1.1104 3.71661 2.14512 15.106
386 2 2.2208 2.33623 -2.03562 16.5937
388 1 -1.1104 3.73376 -0.477597 17.9511
389 1 -1.1104 3.73649 -0.639438 15.048
383 1 -1.1104 3.84868 -3.48107 20.8587
387 2 2.2208 2.31355 3.53767 16.5677
319 2 2.2208 5.09637 3.63974 13.6946
589 2 2.2208 13.7002 14.7949 16.6179
428 2 2.2208 -0.290693 20.5314 19.2592
346 2 2.2208 8.11288 3.58867 27.7634
8814 2 2.2208 7.94191 -4.78053 19.3667
330 2 2.2208 2.46114 17.6222 13.8223
9294 2 2.2208 -0.249831 9.21887 25.2086
377 1 -1.1104 6.57547 -0.7378 15.2913
361 1 -1.1104 6.62696 -3.59066 17.7224
367 1 -1.1104 6.76725 -3.32996 14.9392
372 1 -1.1104 6.55495 -1.02464 17.9506
588 2 2.2208 13.7754 17.7954 19.4106
369 1 -1.1104 6.51894 2.1709 15.1821
362 1 -1.1104 6.5811 1.95661 18.0261
8653 2 2.2208 2.51644 -4.98637 24.9917
401 2 2.2208 10.9228 0.777577 16.5262
402 1 -1.1104 12.4085 -3.44844 17.7066
403 1 -1.1104 12.3671 2.15557 17.9512
404 1 -1.1104 12.1192 -3.53916 14.9886
406 1 -1.1104 12.1671 2.25698 15.237
408 1 -1.1104 12.1751 -0.53881 17.9193
409 2 2.2208 10.8967 -2.03411 19.3606
410 2 2.2208 10.9383 3.5394 19.2569
411 1 -1.1104 12.4229 -0.620359 15.0259
413 1 -1.1104 9.54281 -3.46913 18.0378
414 1 -1.1104 9.36292 2.15145 17.76
415 2 2.2208 8.04521 0.853389 19.395
416 1 -1.1104 9.42793 -3.61777 15.1466
418 1 -1.1104 9.53088 2.0749 15.1325
420 2 2.2208 8.17037 -2.26447 16.612
421 2 2.2208 7.93366 3.51002 16.484
422 1 -1.1104 9.42889 -0.612749 18.007
423 1 -1.1104 9.71963 -0.83505 15.2283
623 2 2.2208 13.7076 -1.99062 22.2325
557 1 -1.1104 9.41261 16.0473 23.5727
431 1 -1.1104 12.0907 16.0124 23.5239
434 2 2.2208 5.26192 6.29515 16.5506
435 2 2.2208 5.21332 12.0482 16.521
436 1 -1.1104 1.14372 7.73662 17.8493
438 1 -1.1104 0.860019 7.637 15.2098
442 1 -1.1104 1.03362 5.09028 18.2256
443 1 -1.1104 0.901164 10.487 18.0108
446 2 2.2208 5.29132 9.17916 19.2428
447 1 -1.1104 0.821263 4.85656 15.3259
449 1 -1.1104 0.917288 10.54 15.2851
455 1 -1.1104 4.04676 7.63801 18.1282
456 2 2.2208 2.49686 6.38859 19.5678
457 2 2.2208 2.45727 11.8701 19.4398
458 1 -1.1104 3.77616 7.63997 15.3213
460 2 2.2208 2.38538 9.14049 16.6447
461 1 -1.1104 3.80775 5.05929 18.0416
462 1 -1.1104 3.90282 10.4876 17.8005
463 1 -1.1104 3.79104 4.92601 15.1993
465 1 -1.1104 3.68557 10.4403 15.286
326 2 2.2208 2.25333 11.9888 13.9104
324 2 2.2208 2.34453 6.21331 13.8208
9257 2 2.2208 -0.492798 14.6662 25.0986
437 1 -1.1104 6.72967 7.7194 17.7952
321 2 2.2208 8.17795 0.921386 13.7453
450 1 -1.1104 0.893794 10.6686 20.8033
429 2 2.2208 13.65 -2.04476 16.4373
320 2 2.2208 -0.401536 14.7417 13.8255
333 2 2.2208 10.8952 20.2633 13.7636
453 1 -1.1104 6.59306 10.6032 15.3216
444 1 -1.1104 6.59584 4.81267 17.8542
440 1 -1.1104 6.67107 7.68779 15.2103
445 1 -1.1104 6.82141 10.4761 18.1293
451 1 -1.1104 6.58673 5.00421 15.334
470 2 2.2208 10.8943 6.47551 16.4856
471 2 2.2208 10.7177 12.0457 16.6643
472 1 -1.1104 12.2545 7.73645 17.8515
473 1 -1.1104 12.3064 7.86796 15.0638
475 1 -1.1104 12.2702 4.87264 17.819
476 1 -1.1104 12.2796 10.4154 17.7713
477 2 2.2208 10.8414 9.20689 19.3255
478 1 -1.1104 12.2199 5.02984 14.9705
480 1 -1.1104 12.3753 10.5471 15.0126
482 1 -1.1104 9.52971 7.94083 17.9604
483 2 2.2208 8.09495 6.30513 19.2573
484 2 2.2208 8.10202 11.9613 19.4339
485 1 -1.1104 9.33741 7.8695 15.0771
487 2 2.2208 8.08959 9.18692 16.5986
488 1 -1.1104 9.46786 5.05425 18.0023
489 1 -1.1104 9.58485 10.6904 18.1364
490 1 -1.1104 9.39948 4.98499 15.3375
492 1 -1.1104 9.605 10.5237 15.0507
329 2 2.2208 8.04094 11.9399 13.8605
620 2 2.2208 13.7906 11.8898 19.1282
486 1 -1.1104 9.3712 7.71999 20.7708
479 1 -1.1104 12.3859 4.93416 20.7965
481 1 -1.1104 12.3146 10.5555 20.7513
617 1 -1.1104 6.58333 16.0997 23.4939
347 2 2.2208 13.6671 11.8907 13.727
328 2 2.2208 10.7576 9.1298 13.6283
332 2 2.2208 5.21046 14.789 13.8549
497 2 2.2208 5.08696 17.6512 16.7664
498 1 -1.1104 0.967095 13.3218 18.0416
499 1 -1.1104 1.05347 19.1833 17.9443
502 1 -1.1104 0.967727 13.2715 15.141
504 1 -1.1104 1.14711 18.8599 15.2694
510 1 -1.1104 0.966217 16.2415 18.0874
512 2 2.2208 5.13955 14.7902 19.5181
513 2 2.2208 5.02688 20.4698 19.3551
514 1 -1.1104 0.860787 16.1611 15.1925
518 1 -1.1104 3.94678 13.5967 17.9419
519 1 -1.1104 3.72875 18.7918 18.1043
520 2 2.2208 2.3911 17.5532 19.4873
521 1 -1.1104 3.69081 13.4727 15.13
523 1 -1.1104 3.99518 19.0866 15.1291
525 2 2.2208 2.31349 14.8566 16.6896
526 2 2.2208 2.5794 20.3089 16.479
527 1 -1.1104 3.7026 16.2443 18.0412
528 1 -1.1104 3.77344 16.2997 15.2938
331 2 2.2208 5.31282 20.4936 13.7482
516 1 -1.1104 6.72293 16.1538 15.2178
397 2 2.2208 -0.469071 3.43567 19.4315
496 1 -1.1104 9.41586 13.3255 26.4044
467 1 -1.1104 12.3928 15.9853 26.2924
323 2 2.2208 10.7931 3.38666 13.7123
682 1 -1.1104 6.56751 13.3552 26.2322
335 2 2.2208 8.03315 17.414 13.8256
508 1 -1.1104 6.52075 18.9631 15.3702
500 1 -1.1104 6.67643 13.26 18.02
501 1 -1.1104 6.69185 18.9915 18.1096
506 1 -1.1104 6.59292 13.3972 15.317
334 2 2.2208 10.9576 14.6314 13.8514
511 1 -1.1104 6.53229 15.9407 18.0365
533 2 2.2208 10.9413 17.4065 16.6458
534 1 -1.1104 12.3219 13.309 18.0441
535 1 -1.1104 12.2132 18.9559 17.9701
536 1 -1.1104 12.1636 13.4192 15.2041
538 1 -1.1104 12.5599 18.9547 15.0822
540 1 -1.1104 12.2074 15.9868 18.2
541 2 2.2208 10.8239 14.7757 19.4695
542 2 2.2208 10.958 20.4015 19.4424
543 1 -1.1104 12.2818 16.2379 15.2722
545 1 -1.1104 9.57146 13.6165 17.9408
546 1 -1.1104 9.35752 18.9839 18.0784
547 2 2.2208 8.00463 17.6253 19.4532
548 1 -1.1104 9.47302 13.4678 15.2421
550 1 -1.1104 9.55699 18.9998 15.3786
552 2 2.2208 7.97593 14.7851 16.6547
553 2 2.2208 8.13206 20.4007 16.7024
554 1 -1.1104 9.47493 16.1763 17.887
555 1 -1.1104 9.53884 16.2012 15.0991
337 2 2.2208 5.24315 0.8088 27.767
468 1 -1.1104 9.51175 13.2448 23.6628
433 2 2.2208 10.8038 20.2988 25.0569
509 1 -1.1104 6.68929 18.9643 21.0287
368 1 -1.1104 6.53712 -3.33624 20.6335
385 1 -1.1104 3.66158 2.08094 20.7345
390 1 -1.1104 3.8427 -0.648818 20.7215
364 1 -1.1104 0.803274 -3.48201 20.6131
376 1 -1.1104 1.02204 -0.670362 20.9334
366 1 -1.1104 0.971385 2.16478 20.8092
561 2 2.2208 5.12715 0.690899 22.2034
562 1 -1.1104 1.04947 -3.47576 23.5024
563 1 -1.1104 1.14135 2.1671 23.6612
566 1 -1.1104 1.13726 -3.55994 26.3626
567 1 -1.1104 1.08435 2.30842 26.2835
570 1 -1.1104 0.872629 -0.601022 23.6845
572 2 2.2208 5.19145 -1.97053 25.1478
574 1 -1.1104 1.03479 -0.649053 26.4954
576 1 -1.1104 3.79346 -3.42691 23.654
577 1 -1.1104 3.91546 2.36694 23.5654
578 2 2.2208 2.41866 0.808654 25.1692
579 1 -1.1104 3.8313 -3.38187 26.4333
580 1 -1.1104 3.85232 1.93969 26.3675
581 2 2.2208 2.47949 -2.11283 22.2139
582 2 2.2208 2.60237 3.55077 22.1974
583 1 -1.1104 3.96224 -0.644309 23.6254
584 1 -1.1104 3.72157 -0.716107 26.2802
378 1 -1.1104 6.65678 -0.69603 20.7543
565 1 -1.1104 6.56635 2.16065 23.6925
573 2 2.2208 5.28794 3.53959 24.9195
312 2 2.2208 -0.425215 -2.18733 13.7237
585 1 -1.1104 12.2614 13.2899 23.5787
395 2 2.2208 -0.672677 -1.94161 19.4104
315 2 2.2208 -0.537101 3.59512 13.6619
405 1 -1.1104 12.2673 -3.18502 20.599
407 1 -1.1104 12.29 2.01059 20.9197
564 1 -1.1104 6.75175 -3.63764 23.4167
575 1 -1.1104 6.5564 -0.496356 26.3183
568 1 -1.1104 6.59696 -3.46612 26.2121
571 1 -1.1104 6.74402 -0.574203 23.5978
417 1 -1.1104 9.4949 -3.36718 20.5843
424 1 -1.1104 9.33451 -0.735406 20.7741
569 1 -1.1104 6.71112 2.31171 26.3838
370 1 -1.1104 6.54912 2.15316 20.9089
419 1 -1.1104 9.6818 2.09126 20.5858
412 1 -1.1104 12.2755 -0.746977 20.7827
597 2 2.2208 10.7946 0.839623 22.3089
598 1 -1.1104 12.413 -3.31263 23.4098
599 1 -1.1104 12.244 2.25029 23.5053
600 1 -1.1104 12.4446 -3.43373 26.1685
601 1 -1.1104 12.0753 2.09975 26.3836
602 1 -1.1104 12.1511 -0.436235 23.8048
603 2 2.2208 10.8902 -2.15737 24.8758
604 2 2.2208 11.0161 3.56968 24.9961
605 1 -1.1104 12.4084 -0.723737 26.3916
606 1 -1.1104 9.52867 -3.45887 23.6302
607 1 -1.1104 9.29752 2.17867 23.5107
608 2 2.2208 8.03725 0.813558 24.8968
609 1 -1.1104 9.55344 -3.47544 26.4074
610 1 -1.1104 9.25483 2.1017 26.313
611 2 2.2208 8.07884 -1.99089 21.9773
612 2 2.2208 8.03725 3.51651 22.1373
613 1 -1.1104 9.43425 -0.604693 23.6398
614 1 -1.1104 9.42885 -0.746192 26.3899
494 2 2.2208 8.27073 17.522 24.9533
313 2 2.2208 -0.432239 20.4364 13.8107
464 1 -1.1104 4.00093 4.96668 20.9241
439 1 -1.1104 1.03976 7.80669 20.7034
448 1 -1.1104 1.37535 4.90431 20.9409
459 1 -1.1104 3.76043 7.94599 20.7965
466 1 -1.1104 3.84183 10.5684 20.6598
626 2 2.2208 5.25552 6.45411 22.2119
627 2 2.2208 5.21939 11.9293 22.1751
628 1 -1.1104 1.05626 7.80591 23.5478
630 1 -1.1104 1.06743 7.72831 26.4261
632 1 -1.1104 0.958169 5.06493 23.5762
633 1 -1.1104 1.026 10.5878 23.7189
636 2 2.2208 5.35675 9.16149 25.0385
637 1 -1.1104 0.989811 5.0227 26.3327
638 1 -1.1104 1.07277 10.6842 26.5457
641 1 -1.1104 3.88256 7.80155 23.6264
642 2 2.2208 2.48444 6.30511 24.9183
643 2 2.2208 2.52414 11.9455 25.0421
644 1 -1.1104 3.91889 7.60215 26.1832
645 2 2.2208 2.45483 9.23942 22.2296
646 1 -1.1104 4.06904 4.96322 23.5818
647 1 -1.1104 3.73031 10.482 23.5339
648 1 -1.1104 3.80676 4.85098 26.3295
649 1 -1.1104 3.92025 10.4562 26.3979
640 1 -1.1104 6.68746 10.6393 26.3304
635 1 -1.1104 6.75839 10.673 23.7117
594 2 2.2208 -0.338596 -1.9847 24.9621
391 2 2.2208 -0.30809 6.48905 22.0987
441 1 -1.1104 6.565 7.83958 20.6337
491 1 -1.1104 9.5088 4.78782 20.6338
452 1 -1.1104 6.70868 5.00733 20.6395
634 1 -1.1104 6.99272 5.05333 23.4268
474 1 -1.1104 12.3812 7.77547 20.7189
639 1 -1.1104 6.66286 5.25685 26.1692
454 1 -1.1104 6.83904 10.6563 21.0937
493 1 -1.1104 9.69107 10.4531 20.9847
629 1 -1.1104 6.50874 7.89494 23.5803
631 1 -1.1104 6.7168 7.85982 26.5181
657 1 -1.1104 9.57002 10.5467 26.4756
658 1 -1.1104 9.55868 4.8994 26.4009
659 1 -1.1104 9.6083 10.488 23.8729
660 1 -1.1104 9.71584 4.90224 23.5406
661 2 2.2208 8.02279 9.17962 22.1888
662 1 -1.1104 9.45977 7.71811 26.4185
663 2 2.2208 8.17261 11.8608 24.9701
664 2 2.2208 8.16186 6.51457 24.9334
665 2 2.2208 10.8471 6.32075 22.1863
666 2 2.2208 10.9054 11.9872 22.266
667 1 -1.1104 12.2971 7.83604 23.6767
668 1 -1.1104 12.1974 7.61894 26.6261
669 1 -1.1104 12.4059 5.14564 23.4913
670 1 -1.1104 12.2194 10.553 23.5595
671 2 2.2208 10.9409 9.11889 25.0705
672 1 -1.1104 12.3361 5.10922 26.3599
673 1 -1.1104 12.3719 10.4262 26.4798
674 1 -1.1104 9.48717 7.8193 23.544
586 2 2.2208 10.8367 17.5702 22.2093
517 1 -1.1104 6.58036 16.2298 20.8237
675 1 -1.1104 6.64949 13.2355 23.6337
679 1 -1.1104 6.6396 18.881 23.5644
503 1 -1.1104 1.00257 13.366 20.7391
515 1 -1.1104 1.01713 16.0615 20.8788
529 1 -1.1104 3.77356 16.1335 20.8841
524 1 -1.1104 3.8172 19.1209 20.6777
522 1 -1.1104 3.87815 13.3748 20.7175
505 1 -1.1104 0.870082 18.7646 20.7364
587 2 2.2208 2.25724 14.9033 22.3477
590 2 2.2208 2.49976 20.3692 22.1599
615 1 -1.1104 3.7001 16.2769 23.7242
616 1 -1.1104 0.897188 16.0493 23.6322
619 1 -1.1104 3.97751 13.3167 26.2734
622 1 -1.1104 3.87969 16.0399 26.5148
650 2 2.2208 2.45082 17.6451 25.2306
651 1 -1.1104 4.00532 18.885 26.4131
652 2 2.2208 5.3012 17.5039 22.2762
654 1 -1.1104 1.03464 13.2116 23.6737
656 1 -1.1104 0.976171 19.0296 23.5879
676 2 2.2208 5.26279 14.769 24.9211
677 2 2.2208 5.33055 20.3736 25.0018
681 1 -1.1104 3.82919 18.9527 23.6189
683 1 -1.1104 3.77478 13.3487 23.5584
685 1 -1.1104 0.972042 19.0083 26.3872
686 1 -1.1104 1.02099 16.1802 26.5294
687 1 -1.1104 1.14055 13.5462 26.3231
530 1 -1.1104 9.49642 18.8267 26.3402
432 2 2.2208 10.8444 14.6772 24.9965
425 1 -1.1104 12.1583 18.996 26.496
532 2 2.2208 8.0368 20.3923 22.1836
469 1 -1.1104 9.50124 18.8796 23.599
684 1 -1.1104 6.59008 16.2774 26.2657
560 1 -1.1104 12.3857 18.9904 23.5999
549 1 -1.1104 9.54038 13.5463 20.8638
556 1 -1.1104 9.43368 16.3637 20.878
531 2 2.2208 8.00104 14.6451 22.268
495 1 -1.1104 6.72897 19.0217 26.5249
400 1 -1.1104 12.2786 13.2089 26.2786
537 1 -1.1104 12.2633 13.3225 20.8209
558 1 -1.1104 9.32197 16.0132 26.4067
544 1 -1.1104 12.2686 16.3874 20.8291
507 1 -1.1104 6.63931 13.3711 20.7603
551 1 -1.1104 9.49622 19.1664 20.7778
539 1 -1.1104 12.325 19.0451 20.8349
318 2 2.2208 13.7627 0.690769 13.6358
653 2 2.2208 13.7524 20.4385 22.2935
655 2 2.2208 -0.299149 12.0252 22.2622
595 2 2.2208 -0.278809 0.760304 22.2601
325 2 2.2208 5.20303 9.13723 14.0106
348 2 2.2208 13.7639 -2.03985 27.7763
688 2 2.2208 5.29596 23.1913 5.56058
689 2 2.2208 5.29977 28.8356 5.25696
690 1 -1.1104 0.949785 24.6369 1.22388
691 1 -1.1104 1.28317 24.6846 3.95413
692 1 -1.1104 1.09279 21.9079 1.01222
693 1 -1.1104 1.13855 27.5452 1.05502
694 2 2.2208 5.4589 25.9032 2.44173
695 1 -1.1104 1.0583 21.9037 4.04737
696 1 -1.1104 1.13642 27.2443 4.02315
697 1 -1.1104 3.8466 24.4881 1.08951
698 2 2.2208 2.4449 23.257 2.43843
699 2 2.2208 2.4644 28.8602 2.5066
700 1 -1.1104 3.92979 24.532 3.93396
701 2 2.2208 2.50207 26.047 5.5227
702 1 -1.1104 3.95082 21.533 1.2643
703 1 -1.1104 3.84341 27.3231 1.06366
704 1 -1.1104 4.09321 21.5848 4.18342
705 1 -1.1104 3.94862 27.2191 4.03318
1011 2 2.2208 5.27311 23.2438 -0.332703
1385 1 -1.1104 9.43565 47.0623 3.89571
1013 2 2.2208 5.2563 28.914 -0.204043
712 1 -1.1104 6.66036 27.4401 1.07801
710 1 -1.1104 6.67009 24.6384 3.93738
714 1 -1.1104 6.72011 27.4596 3.71128
711 1 -1.1104 6.85468 21.9903 1.06152
1019 2 2.2208 5.22621 34.6075 -0.339651
1017 2 2.2208 11.0013 28.9195 -0.303429
709 1 -1.1104 6.78058 24.67 0.925686
713 1 -1.1104 6.74484 21.8958 3.91805
715 2 2.2208 10.9744 23.0447 5.51941
716 2 2.2208 10.9588 28.7689 5.45282
717 1 -1.1104 12.3767 24.6315 1.07494
718 1 -1.1104 12.407 24.772 3.92163
719 1 -1.1104 12.3522 21.8049 1.09958
720 1 -1.1104 12.2689 27.407 1.21384
721 2 2.2208 10.8555 26.1079 2.52766
722 1 -1.1104 12.3333 21.7478 3.98652
723 1 -1.1104 12.4742 27.6184 4.03755
724 1 -1.1104 9.53207 24.5477 1.18996
725 2 2.2208 8.19491 23.2228 2.49345
726 2 2.2208 8.09574 28.8646 2.58964
727 1 -1.1104 9.59103 24.5787 4.06663
728 2 2.2208 7.94728 26.0745 5.31398
729 1 -1.1104 9.51358 21.6872 1.05121
730 1 -1.1104 9.54105 27.3471 0.9852
731 1 -1.1104 9.52037 21.8135 3.94836
732 1 -1.1104 9.42321 27.5096 3.98554
1015 2 2.2208 8.1287 25.9429 -0.317958
1014 2 2.2208 10.9895 23.0372 -0.247697
9846 2 2.2208 -0.298113 31.6624 2.6598
864 1 -1.1104 12.099 27.4934 6.74868
866 1 -1.1104 9.63382 21.5759 6.69639
867 1 -1.1104 9.40196 27.3144 6.55002
10090 2 2.2208 -0.381437 28.8421 -0.35753
9851 2 2.2208 -0.370486 40.1534 5.32334
736 2 2.2208 5.16003 34.5134 5.48324
737 1 -1.1104 1.02436 30.2919 1.18005
738 1 -1.1104 1.03108 35.8079 1.14753
740 1 -1.1104 1.07128 30.1558 3.83729
741 1 -1.1104 0.995896 35.8501 3.93257
743 1 -1.1104 1.04216 32.9892 1.46028
744 2 2.2208 5.26627 31.5576 2.38658
745 2 2.2208 5.23264 37.1984 2.4659
746 1 -1.1104 0.8463 32.8958 4.24775
748 1 -1.1104 3.86424 30.2886 1.14004
749 1 -1.1104 3.86997 36.069 1.07073
750 2 2.2208 2.39667 34.515 2.57571
751 1 -1.1104 3.80649 30.2349 3.99857
752 1 -1.1104 3.81836 35.816 3.87752
753 2 2.2208 2.45137 31.6434 5.34803
754 2 2.2208 2.42082 37.2529 5.50614
755 1 -1.1104 3.7588 33.245 1.08507
756 1 -1.1104 3.51457 32.7838 3.64021
739 1 -1.1104 6.81621 35.9578 1.13006
761 1 -1.1104 6.56485 30.2501 3.71671
9735 2 2.2208 13.765 34.387 8.10754
10050 2 2.2208 -0.376707 34.5276 -0.392553
1371 1 -1.1104 12.2785 47.1047 4.01358
762 1 -1.1104 6.72384 32.9984 1.13339
742 1 -1.1104 6.48719 35.8309 3.7897
1021 2 2.2208 8.09015 31.6052 -0.281986
760 1 -1.1104 6.84551 30.2729 1.00799
747 1 -1.1104 6.63377 32.8284 3.94257
763 2 2.2208 10.7606 34.4804 5.30125
764 1 -1.1104 12.4049 30.3045 1.07951
765 1 -1.1104 12.4294 35.8974 1.03968
766 1 -1.1104 12.3599 30.289 3.81423
767 1 -1.1104 12.3323 36.1433 3.83884
768 1 -1.1104 12.2627 32.9548 1.17807
769 2 2.2208 10.9018 31.6291 2.48105
770 2 2.2208 10.8159 37.4157 2.38318
771 1 -1.1104 12.0392 33.1403 3.92408
772 1 -1.1104 9.70305 30.241 1.10356
773 1 -1.1104 9.45603 35.9366 1.11681
774 2 2.2208 8.18616 34.3866 2.50825
775 1 -1.1104 9.36009 30.2296 3.91747
776 1 -1.1104 9.39503 35.8465 3.98488
777 2 2.2208 7.93933 31.5854 5.40658
778 2 2.2208 7.96042 37.3909 5.29267
779 1 -1.1104 9.52017 32.9398 1.10037
780 1 -1.1104 9.36628 33.2248 3.87289
1012 2 2.2208 2.29745 25.9125 -0.163344
1554 1 -1.1104 12.1168 47.1711 6.83328
920 1 -1.1104 12.1622 30.4293 6.65322
1574 1 -1.1104 9.18367 47.2006 9.64266
1326 1 -1.1104 0.983881 47.1651 0.988489
793 1 -1.1104 0.757263 38.6004 3.83722
782 2 2.2208 5.22117 40.0798 5.38252
783 2 2.2208 5.16554 45.6193 5.32796
784 1 -1.1104 0.776921 41.6023 1.06422
786 1 -1.1104 0.942862 41.3242 3.86863
788 1 -1.1104 0.768179 38.7248 0.999623
789 1 -1.1104 0.88746 44.3701 1.11556
792 2 2.2208 5.01153 42.9743 2.5153
794 1 -1.1104 0.999943 44.2282 3.87303