ITEM: TIMESTEP
40000
ITEM: NUMBER OF ATOMS
17910
ITEM: BOX BOUNDS pp pp pp
-3.9791586869853912e-01 2.7737915868699030e+01
-4.7625977012295753e+00 3.3284259770123543e+02
-4.1294889107196370e-01 2.7752948891072084e+01
ITEM: ATOMS id type q x y z
1 2 2.2208 5.24711 0.770518 5.23853
2 1 -1.1104 0.927434 -3.25008 0.90148
3 1 -1.1104 1.05665 2.36266 0.909645
6 1 -1.1104 0.942873 -3.38417 3.61201
7 1 -1.1104 1.148 2.26995 3.84135
10 1 -1.1104 0.717849 -0.515805 1.04531
12 2 2.2208 5.1819 -2.08332 2.28237
13 2 2.2208 5.29279 3.64901 2.29131
14 1 -1.1104 1.0114 -0.46851 3.68495
16 1 -1.1104 3.77207 -3.33219 0.800955
17 1 -1.1104 3.76528 2.3352 0.706735
18 2 2.2208 2.43285 0.975197 2.36246
19 1 -1.1104 3.8754 -3.47945 3.79741
20 1 -1.1104 3.98433 2.23119 3.63951
21 2 2.2208 2.5052 -1.94643 5.10824
22 2 2.2208 2.5168 3.58239 5.2115
23 1 -1.1104 3.75168 -0.587682 1.07941
24 1 -1.1104 3.74221 -0.488305 3.83258
174 1 -1.1104 3.88944 -0.589001 6.67694
172 1 -1.1104 3.91625 -3.40421 6.63388
166 1 -1.1104 1.23709 -3.36027 6.38802
5 1 -1.1104 6.68161 2.31254 0.912968
11 1 -1.1104 6.56412 -0.530741 1.16936
4 1 -1.1104 6.33397 -3.56575 1.02366
8 1 -1.1104 6.82395 -3.23682 3.67786
170 1 -1.1104 1.01378 -0.584017 6.60871
168 1 -1.1104 6.70275 -3.61364 6.56213
9209 2 2.2208 13.7542 14.8544 -0.419132
355 2 2.2208 8.00028 9.30653 -0.254162
8882 2 2.2208 -0.407345 14.933 8.03191
321 2 2.2208 8.08918 0.984993 13.5903
9182 2 2.2208 -0.404013 17.7437 -0.395124
9 1 -1.1104 6.7839 2.44658 3.68466
169 1 -1.1104 6.72369 2.09262 6.51248
15 1 -1.1104 6.771 -0.579929 3.86114
31 2 2.2208 10.7306 0.793334 5.32193
32 1 -1.1104 12.335 -3.2451 0.877153
33 1 -1.1104 12.2954 2.34934 1.10467
34 1 -1.1104 12.2042 -3.46156 3.61242
35 1 -1.1104 12.2414 2.22119 3.88951
36 1 -1.1104 12.2358 -0.531682 0.920908
37 2 2.2208 10.9867 -1.89274 2.441
39 1 -1.1104 12.2243 -0.514512 3.85891
40 1 -1.1104 9.22763 -3.29614 0.642859
41 1 -1.1104 9.54797 2.32136 1.00517
42 2 2.2208 7.98803 0.867736 2.54851
43 1 -1.1104 9.46131 -3.36684 3.71715
44 1 -1.1104 9.55133 2.30061 3.94937
45 2 2.2208 8.01606 -2.08387 5.1405
46 2 2.2208 8.20394 3.58982 5.16922
47 1 -1.1104 9.41891 -0.499062 1.05765
48 1 -1.1104 9.4796 -0.621599 3.82149
38 2 2.2208 10.782 3.66977 2.47793
210 1 -1.1104 9.35512 -0.653858 6.53783
208 1 -1.1104 9.55331 -3.50759 6.47322
205 1 -1.1104 12.2224 -3.43386 6.53649
207 1 -1.1104 12.345 -0.730453 6.59049
9042 2 2.2208 -0.152982 15.1146 2.4023
229 2 2.2208 13.8289 0.790053 7.88436
8883 2 2.2208 -0.434546 20.5911 8.09934
54 2 2.2208 5.26217 6.34603 5.24749
55 2 2.2208 5.29662 12.0958 5.3371
56 1 -1.1104 1.04816 7.86173 1.05115
58 1 -1.1104 1.06976 8.02011 3.92114
60 1 -1.1104 1.09323 5.16178 1.13948
61 1 -1.1104 0.939043 10.8401 1.06256
66 2 2.2208 5.20619 9.32693 2.42711
67 1 -1.1104 1.06129 5.06539 3.95838
68 1 -1.1104 0.945471 10.957 3.78688
71 1 -1.1104 3.79067 8.0996 1.08397
72 2 2.2208 2.38047 6.56316 2.55614
73 2 2.2208 2.36738 12.246 2.50118
74 1 -1.1104 3.86499 7.95071 3.88913
75 2 2.2208 2.44009 9.33487 5.22666
76 1 -1.1104 3.7133 5.18449 0.892099
77 1 -1.1104 3.87787 10.8681 1.04868
79 1 -1.1104 3.98404 4.99753 3.59996
80 1 -1.1104 3.87643 10.7015 3.85322
57 1 -1.1104 6.55199 8.01471 1.01042
78 1 -1.1104 3.87704 10.4585 6.70093
59 1 -1.1104 6.46721 7.94248 3.89934
235 1 -1.1104 6.83406 7.82969 6.61608
9093 2 2.2208 13.8529 12.0794 8.05834
25 2 2.2208 13.6127 14.7891 10.9276
62 1 -1.1104 1.16211 10.8147 6.51427
236 1 -1.1104 0.995013 4.98757 6.60343
81 1 -1.1104 12.436 13.3321 9.50949
69 1 -1.1104 6.76743 5.24051 3.97302
70 1 -1.1104 6.78346 10.8282 3.93419
63 1 -1.1104 6.69359 5.1059 0.897387
237 1 -1.1104 6.80455 4.78305 6.55477
64 1 -1.1104 6.57743 10.624 0.980758
84 2 2.2208 10.795 6.55075 5.06605
85 2 2.2208 10.9191 12.1429 5.23466
86 1 -1.1104 12.2432 8.01803 0.987028
87 1 -1.1104 12.1479 7.88471 3.9469
88 1 -1.1104 12.3161 5.3057 1.07991
89 1 -1.1104 12.3127 10.8609 1.06273
91 2 2.2208 10.8208 9.39728 2.30949
92 1 -1.1104 12.135 5.09238 3.86061
93 1 -1.1104 12.3408 10.487 3.83293
94 1 -1.1104 9.31801 7.94744 1.02859
95 2 2.2208 7.9835 6.66617 2.32684
96 2 2.2208 8.0488 12.2044 2.48305
97 1 -1.1104 9.23088 8.05103 3.69285
98 2 2.2208 7.98799 9.27899 5.15963
99 1 -1.1104 9.51153 5.16475 0.864619
100 1 -1.1104 9.42183 10.6105 0.952358
102 1 -1.1104 9.46381 5.1967 3.539
103 1 -1.1104 9.50952 10.8861 3.82494
65 1 -1.1104 6.70967 10.6758 6.65594
135 1 -1.1104 12.349 16.2707 9.3766
83 1 -1.1104 12.474 16.3835 12.3256
8979 2 2.2208 13.6907 14.7926 5.17947
163 1 -1.1104 9.24394 16.4493 6.91972
106 2 2.2208 5.20109 17.8295 5.37451
107 1 -1.1104 1.15503 13.6092 0.861481
109 1 -1.1104 1.06948 19.2144 0.937976
113 1 -1.1104 1.03393 13.6265 3.75394
114 1 -1.1104 0.965602 19.3362 3.6814
116 1 -1.1104 1.11954 16.4411 0.953015
119 2 2.2208 5.252 14.9017 2.72022
120 2 2.2208 5.25319 20.548 2.60566
121 1 -1.1104 0.993425 16.396 3.86631
123 1 -1.1104 3.73538 13.621 1.0982
125 1 -1.1104 3.92182 19.3905 1.11836
127 2 2.2208 2.41192 17.8245 2.40005
128 1 -1.1104 3.87193 13.4448 3.98453
129 1 -1.1104 3.75513 19.0969 3.82735
130 2 2.2208 2.30279 14.924 5.20948
131 2 2.2208 2.39496 20.7108 5.38441
132 1 -1.1104 3.89773 16.4825 0.907202
134 1 -1.1104 3.82942 16.3745 3.89249
110 1 -1.1104 6.62839 13.536 0.999456
122 1 -1.1104 6.7875 16.4869 4.09976
124 1 -1.1104 3.78982 13.45 6.79765
111 1 -1.1104 6.51105 13.3958 6.74316
136 1 -1.1104 9.15136 13.5363 12.1897
8958 2 2.2208 13.6211 20.4858 5.29757
149 1 -1.1104 12.1992 16.254 6.70303
105 2 2.2208 10.8735 20.6375 8.07606
138 1 -1.1104 6.81983 19.1264 1.17471
115 1 -1.1104 6.78641 13.5709 3.91487
140 1 -1.1104 6.53877 16.285 1.18254
139 1 -1.1104 6.53282 19.2598 3.92584
141 2 2.2208 10.8527 17.7278 5.442
142 1 -1.1104 12.1876 13.611 0.873672
144 1 -1.1104 11.9909 19.1444 1.01407
146 1 -1.1104 12.376 13.4907 3.70445
147 1 -1.1104 12.0551 19.3521 3.96241
148 1 -1.1104 12.2455 16.344 1.16781
150 2 2.2208 10.8512 14.8317 2.40822
151 2 2.2208 10.7954 20.6798 2.61322
152 1 -1.1104 12.5126 16.4522 3.99592
153 1 -1.1104 9.45907 13.3881 1.0063
155 1 -1.1104 9.40965 19.3611 1.13969
157 2 2.2208 8.19887 17.7884 2.56369
158 1 -1.1104 9.58183 13.5662 3.93509
159 1 -1.1104 9.38762 19.11 3.97484
160 2 2.2208 8.25474 14.9367 5.2926
161 2 2.2208 8.07291 20.4909 5.30831
162 1 -1.1104 9.38523 16.2255 1.04178
164 1 -1.1104 9.74634 16.279 3.95423
145 1 -1.1104 12.3048 19.2193 6.77476
156 1 -1.1104 9.46379 19.2459 6.95567
104 2 2.2208 10.8744 15.0908 8.10612
232 1 -1.1104 9.47067 19.2574 9.68731
143 1 -1.1104 12.3443 13.4664 6.52738
9174 2 2.2208 -0.407799 -1.80803 2.34903
173 1 -1.1104 3.85758 2.24113 6.72835
167 1 -1.1104 1.08325 2.20389 6.52247
204 1 -1.1104 9.46348 16.572 12.3491
352 2 2.2208 8.06248 14.9526 -0.347858
231 1 -1.1104 9.51569 16.3208 9.60263
175 2 2.2208 5.26708 0.710877 10.8928
176 1 -1.1104 1.04354 -3.27268 12.3477
177 1 -1.1104 1.09675 2.2398 12.0914
180 1 -1.1104 1.06696 -3.50243 9.34742
181 1 -1.1104 0.999714 2.08201 9.2881
184 1 -1.1104 1.02462 -0.513116 12.1489
186 2 2.2208 5.17826 -1.9336 7.96387
187 2 2.2208 5.27517 3.64894 7.94321
188 1 -1.1104 1.17587 -0.712366 9.40135
190 1 -1.1104 3.92651 -3.387 12.0962
191 1 -1.1104 3.96113 2.29666 12.2444
192 2 2.2208 2.52466 0.825238 8.07285
193 1 -1.1104 3.63137 -3.59127 9.4095
194 1 -1.1104 4.02657 2.11004 9.47848
195 2 2.2208 2.53771 -2.00987 10.8577
197 1 -1.1104 3.64151 -0.459959 12.0535
198 1 -1.1104 4.06171 -0.685874 9.429
196 2 2.2208 2.44644 3.57437 10.8104
185 1 -1.1104 6.78341 -0.438652 12.3254
154 1 -1.1104 9.67909 13.6961 6.71257
189 1 -1.1104 6.59809 -0.515731 9.47644
183 1 -1.1104 6.79501 2.29137 9.18654
322 2 2.2208 10.8489 -1.89289 13.4424
342 2 2.2208 2.32591 20.7911 -0.434877
8910 2 2.2208 13.7599 9.28845 5.21113
209 1 -1.1104 9.46299 2.14353 6.61025
49 1 -1.1104 12.271 19.2042 12.4191
182 1 -1.1104 6.43314 -3.17316 9.48646
179 1 -1.1104 6.66299 2.33018 12.0769
178 1 -1.1104 6.57355 -3.31006 12.1809
82 1 -1.1104 12.2815 19.0202 9.68069
171 1 -1.1104 6.46273 -0.773471 6.45411
206 1 -1.1104 12.2444 2.17816 6.56167
211 2 2.2208 10.874 0.712098 10.7242
212 1 -1.1104 12.3265 -3.23851 12.2553
213 1 -1.1104 12.1018 2.28361 12.1041
214 1 -1.1104 12.0532 -3.46383 9.19053
215 1 -1.1104 12.398 2.18269 9.33388
216 1 -1.1104 12.0892 -0.54508 12.224
217 2 2.2208 10.9068 -2.15348 7.91451
219 1 -1.1104 12.4588 -0.737816 9.17408
220 1 -1.1104 9.55406 -3.26076 12.3708
221 1 -1.1104 9.41092 2.40998 12.3225
222 2 2.2208 8.03563 0.847447 7.99133
223 1 -1.1104 9.2998 -3.48931 9.54645
224 1 -1.1104 9.63004 2.09976 9.39489
225 2 2.2208 7.9245 -1.90758 10.976
226 2 2.2208 8.14537 3.75084 10.814
227 1 -1.1104 9.39074 -0.513421 12.1234
228 1 -1.1104 9.49764 -0.695821 9.46418
218 2 2.2208 11.0567 3.66428 7.95024
290 1 -1.1104 6.78843 13.4969 9.32063
137 1 -1.1104 9.60575 19.2801 12.486
238 1 -1.1104 3.92087 7.71351 6.77661
239 1 -1.1104 3.81808 4.91249 6.56103
234 1 -1.1104 0.888236 7.81859 6.71229
240 2 2.2208 5.23854 6.41255 10.7533
241 2 2.2208 5.27639 12.3254 10.7214
242 1 -1.1104 0.918078 8.02028 12.3388
244 1 -1.1104 0.962001 7.86719 9.45389
246 1 -1.1104 1.093 5.14667 12.285
247 1 -1.1104 1.01252 10.5949 12.5322
250 2 2.2208 5.32467 9.37272 8.02449
251 1 -1.1104 1.06185 4.7995 9.62865
252 1 -1.1104 1.04072 10.7841 9.77815
255 1 -1.1104 3.88552 7.90931 12.3312
256 2 2.2208 2.41672 6.46797 8.05925
257 2 2.2208 2.46122 12.0509 7.93537
258 1 -1.1104 3.82866 8.03701 9.57629
259 2 2.2208 2.42132 9.49246 11.0744
260 1 -1.1104 3.62473 5.07244 12.0287
261 1 -1.1104 3.88931 10.9792 12.2926
262 1 -1.1104 3.91958 5.10526 9.24365
263 1 -1.1104 3.77437 10.8205 9.56609
248 1 -1.1104 6.4101 5.20416 12.3747
249 1 -1.1104 6.57147 10.7303 12.1976
253 1 -1.1104 6.71949 5.17425 9.27283
233 2 2.2208 -0.513095 17.7632 10.7354
245 1 -1.1104 6.83792 7.93615 9.27038
254 1 -1.1104 6.58376 10.7764 9.49376
9177 2 2.2208 -0.230574 3.6866 2.44676
26 2 2.2208 10.9339 17.7245 10.9483
288 1 -1.1104 6.57302 19.2013 9.6094
29 2 2.2208 -0.214743 6.52317 10.9258
269 1 -1.1104 9.59881 5.01934 6.57536
265 1 -1.1104 12.4014 7.93676 6.67267
266 1 -1.1104 12.2083 5.08922 6.34696
267 1 -1.1104 9.52889 8.00248 6.51281
90 1 -1.1104 12.417 10.5612 6.52629
101 1 -1.1104 9.50356 10.8409 6.63606
243 1 -1.1104 6.64619 7.93649 12.1969
264 1 -1.1104 9.48321 10.6786 9.2373
268 1 -1.1104 9.56119 4.96187 9.29144
270 1 -1.1104 9.35481 10.7433 12.1876
271 1 -1.1104 9.34096 5.18804 12.2995
272 2 2.2208 8.08345 9.37308 10.8923
273 1 -1.1104 9.48115 7.96416 9.54479
274 2 2.2208 8.00337 12.1615 8.10727
275 2 2.2208 8.27695 6.59654 7.92949
276 2 2.2208 10.8759 6.41496 10.6835
277 2 2.2208 10.8016 12.1342 10.8608
278 1 -1.1104 12.0465 7.93983 12.3124
279 1 -1.1104 12.2677 7.72154 9.37248
280 1 -1.1104 12.2694 5.08049 12.071
281 1 -1.1104 12.2266 10.8254 12.1056
282 2 2.2208 11.031 9.32502 7.91939
283 1 -1.1104 12.289 5.06863 9.27632
284 1 -1.1104 12.1066 10.6767 9.47256
285 1 -1.1104 9.2027 7.96448 12.2339
203 2 2.2208 8.21268 20.7345 11.0347
340 2 2.2208 2.4748 14.9176 -0.459366
302 1 -1.1104 1.1056 19.1016 6.67514
108 1 -1.1104 0.966838 13.5397 6.57825
126 1 -1.1104 3.88657 19.1837 6.85016
133 1 -1.1104 3.60096 16.1752 6.7428
311 1 -1.1104 9.786 13.4615 9.41889
289 1 -1.1104 6.54103 16.3217 9.75767
297 1 -1.1104 6.55702 13.7135 12.0675
306 1 -1.1104 6.69272 16.3864 12.4836
117 1 -1.1104 1.01627 16.2764 6.64138
286 1 -1.1104 3.69295 19.1741 12.4458
287 1 -1.1104 3.76548 13.6561 12.0792
291 1 -1.1104 0.881342 19.1682 9.55965
292 1 -1.1104 0.904607 16.5155 9.3151
293 2 2.2208 5.2786 20.6388 8.32099
294 1 -1.1104 0.915298 13.6171 9.47065
295 2 2.2208 5.06964 15.0495 8.15462
298 1 -1.1104 0.83825 19.054 12.3799
299 1 -1.1104 1.12549 13.5246 12.1571
300 2 2.2208 5.2919 17.8301 11.0569
301 1 -1.1104 3.85408 19.2882 9.6162
303 2 2.2208 2.3749 17.9396 8.1538
304 1 -1.1104 3.74448 16.5158 9.38719
305 1 -1.1104 3.64197 13.6766 9.29413
307 1 -1.1104 0.956997 16.2865 12.0882
308 1 -1.1104 3.80711 16.3942 12.3701
309 2 2.2208 2.59553 20.6435 10.9749
310 2 2.2208 2.34756 15.0041 10.6938
296 1 -1.1104 6.6371 19.2842 12.5121
165 2 2.2208 8.04184 17.9499 8.17521
27 1 -1.1104 11.9275 13.4468 12.5294
202 2 2.2208 8.0107 14.9971 10.9533
112 1 -1.1104 6.54972 19.3105 6.60405
118 1 -1.1104 6.4189 16.4202 6.82855
346 2 2.2208 8.02548 3.68728 -0.529443
357 2 2.2208 8.06051 20.5424 -0.316552
316 2 2.2208 5.24819 -1.95833 13.4957
8909 2 2.2208 -0.536075 17.8028 5.03804
324 2 2.2208 2.38785 6.639 13.6484
9181 2 2.2208 -0.405675 12.1977 5.2715
230 2 2.2208 13.7887 -2.01996 10.6642
201 2 2.2208 -0.454896 0.724211 10.6637
343 2 2.2208 -0.510856 9.34385 13.8341
199 2 2.2208 -0.429495 3.5937 8.02674
53 2 2.2208 13.7127 3.60136 10.8748
9110 2 2.2208 -0.432621 9.27037 8.2428
9218 2 2.2208 -0.592943 1.03726 -0.532854
9041 2 2.2208 -0.402235 20.6271 2.35299
9176 2 2.2208 13.7039 17.7541 8.13851
9179 2 2.2208 -0.348883 6.57842 5.24887
9180 2 2.2208 -0.276735 9.34698 2.46912
8457 2 2.2208 13.6846 -4.9477 7.97916
9210 2 2.2208 -0.512261 12.1191 -0.339511
333 2 2.2208 11.0499 20.6051 13.9094
347 2 2.2208 13.668 12.0951 13.7323
327 2 2.2208 7.88273 6.45375 13.6361
356 2 2.2208 10.8176 12.2272 -0.602557
317 2 2.2208 2.44788 0.800339 13.5383
312 2 2.2208 -0.540711 -1.91353 13.6019
349 2 2.2208 5.15742 6.50182 -0.493632
334 2 2.2208 10.8105 15.0686 13.8086
358 2 2.2208 5.28261 1.05585 16.4146
359 1 -1.1104 0.8434 -3.48037 17.8613
360 1 -1.1104 1.06737 2.28159 17.8139
363 1 -1.1104 0.711414 -3.32355 14.9665
365 1 -1.1104 1.20976 2.34308 14.8784
371 1 -1.1104 0.918231 -0.852232 17.5322
373 2 2.2208 5.13128 -1.88786 19.1957
374 2 2.2208 5.23034 3.71329 19.3823
375 1 -1.1104 1.03049 -0.463618 14.8275
379 1 -1.1104 3.76349 -3.20878 17.7325
380 1 -1.1104 3.79633 2.26523 17.7819
381 2 2.2208 2.47285 1.02825 19.4193
382 1 -1.1104 3.62863 -3.34494 14.8696
384 1 -1.1104 3.95697 2.35468 14.9541
386 2 2.2208 2.36752 -1.88723 16.1276
388 1 -1.1104 3.95429 -0.398199 17.7144
389 1 -1.1104 3.82021 -0.597342 14.7562
387 2 2.2208 2.42991 3.73334 16.3738
385 1 -1.1104 3.87413 2.44526 20.7973
390 1 -1.1104 3.8798 -0.398278 20.6447
383 1 -1.1104 3.88654 -3.08023 20.6845
372 1 -1.1104 6.63557 -0.631975 17.8463
391 2 2.2208 -0.503675 6.5123 22.0345
376 1 -1.1104 0.972929 -0.54685 20.4664
332 2 2.2208 5.23507 14.9337 13.8342
361 1 -1.1104 6.44485 -3.38031 17.7788
362 1 -1.1104 6.50001 2.28043 17.912
377 1 -1.1104 6.69228 -0.326464 15.0279
378 1 -1.1104 6.6051 -0.673463 20.6775
369 1 -1.1104 6.71995 2.34162 14.9434
367 1 -1.1104 6.53339 -3.34474 15.0657
401 2 2.2208 10.7832 0.768758 16.3964
402 1 -1.1104 12.2363 -3.18356 17.8971
403 1 -1.1104 12.3863 2.35191 17.988
404 1 -1.1104 12.187 -3.21685 14.9566
406 1 -1.1104 12.3004 2.24408 14.9716
408 1 -1.1104 12.2174 -0.319453 17.852
409 2 2.2208 10.7526 -1.9859 19.167
410 2 2.2208 10.88 3.63209 19.3269
411 1 -1.1104 12.3084 -0.536518 15.0665
413 1 -1.1104 9.34679 -3.46289 17.7938
414 1 -1.1104 9.47559 2.09751 17.8438
415 2 2.2208 7.96113 0.740286 19.2006
416 1 -1.1104 9.35721 -3.55628 15.0838
418 1 -1.1104 9.59789 2.26843 15.0432
420 2 2.2208 7.98749 -1.96999 16.3373
421 2 2.2208 7.96595 3.70466 16.5143
422 1 -1.1104 9.2901 -0.755629 17.8036
423 1 -1.1104 9.49644 -0.536689 15.0351
412 1 -1.1104 12.1867 -0.443214 20.4709
424 1 -1.1104 9.42161 -0.558364 20.7309
537 1 -1.1104 12.177 13.6541 20.8201
370 1 -1.1104 6.59104 2.10613 20.7172
350 2 2.2208 2.51597 9.43153 27.9126
556 1 -1.1104 9.51937 16.2723 20.6768
405 1 -1.1104 12.0857 -3.3324 20.5603
419 1 -1.1104 9.37533 2.25876 20.5505
329 2 2.2208 7.97849 12.0857 13.5961
434 2 2.2208 5.17506 6.60166 16.5728
435 2 2.2208 5.13764 12.0988 16.5592
436 1 -1.1104 0.902635 7.91721 17.9132
438 1 -1.1104 0.930848 7.92448 15.2765
442 1 -1.1104 1.06248 5.12545 17.9065
443 1 -1.1104 1.06362 10.7368 18.0217
446 2 2.2208 5.13851 9.18399 19.3137
447 1 -1.1104 1.10074 5.18571 15.1056
449 1 -1.1104 0.974611 10.885 15.1961
455 1 -1.1104 3.64649 7.93375 17.9456
456 2 2.2208 2.41379 6.4751 19.3432
457 2 2.2208 2.50633 12.0957 19.355
458 1 -1.1104 3.70569 7.99579 15.0289
460 2 2.2208 2.34542 9.32591 16.5253
461 1 -1.1104 3.90997 5.16365 18.0686
462 1 -1.1104 3.73938 10.4891 17.9258
463 1 -1.1104 3.78629 5.21065 14.9354
465 1 -1.1104 3.66041 10.8506 15.0567
459 1 -1.1104 3.73446 7.71443 20.6469
439 1 -1.1104 0.96562 7.80986 20.6825
448 1 -1.1104 1.0157 4.94566 20.7459
454 1 -1.1104 6.65597 10.8001 20.6796
440 1 -1.1104 6.44219 7.76543 15.1705
441 1 -1.1104 6.50634 8.02172 20.7604
680 2 2.2208 13.7959 6.45503 24.9464
433 2 2.2208 10.9138 20.5781 24.8891
464 1 -1.1104 3.87776 5.0834 20.7747
466 1 -1.1104 3.73418 10.4294 20.8666
444 1 -1.1104 6.6487 4.98047 17.9589
437 1 -1.1104 6.65097 7.90903 18.1125
451 1 -1.1104 6.56199 5.14269 15.1682
445 1 -1.1104 6.60246 10.7895 17.8887
453 1 -1.1104 6.4911 10.7397 15.0129
470 2 2.2208 10.7312 6.46233 16.3197
471 2 2.2208 10.7459 11.989 16.3538
472 1 -1.1104 12.0261 7.90981 17.8529
473 1 -1.1104 12.242 7.77107 15.1234
475 1 -1.1104 12.2915 5.27601 17.759
476 1 -1.1104 12.0261 10.6822 17.776
477 2 2.2208 10.8646 9.33308 19.2594
478 1 -1.1104 12.0365 5.08897 15.0466
480 1 -1.1104 12.2248 10.628 14.8569
482 1 -1.1104 9.37058 7.9097 17.8338
483 2 2.2208 8.15338 6.51047 19.2258
484 2 2.2208 8.03341 12.186 19.4114
485 1 -1.1104 9.45406 7.80657 14.9187
487 2 2.2208 8.00069 9.35965 16.335
488 1 -1.1104 9.56808 5.13723 17.9064
489 1 -1.1104 9.20151 10.6527 17.7721
490 1 -1.1104 9.23908 5.21304 14.9819
492 1 -1.1104 9.33842 10.6506 14.9451
481 1 -1.1104 12.1733 10.8777 20.6771
493 1 -1.1104 9.49366 10.6923 20.6275
491 1 -1.1104 9.54199 5.10157 20.8132
474 1 -1.1104 12.3463 8.27283 20.7418
331 2 2.2208 5.17696 20.6477 13.8346
452 1 -1.1104 6.7724 5.22441 20.6893
617 1 -1.1104 6.74069 16.4489 23.5611
8465 2 2.2208 5.03154 -4.90376 27.7842
497 2 2.2208 5.32071 17.6972 16.6739
498 1 -1.1104 1.19132 13.4784 17.8522
499 1 -1.1104 1.02473 19.1209 18.0464
502 1 -1.1104 1.03845 13.5433 15.1288
504 1 -1.1104 0.972711 19.1347 15.3322
510 1 -1.1104 1.00063 16.4274 17.9259
512 2 2.2208 5.29195 14.8943 19.2758
513 2 2.2208 5.19039 20.5959 19.4715
514 1 -1.1104 0.835208 16.1644 14.9659
518 1 -1.1104 3.88988 13.6207 17.9491
519 1 -1.1104 3.76462 19.2429 17.9486
520 2 2.2208 2.38508 17.8438 19.3834
521 1 -1.1104 3.94771 13.6072 15.1275
523 1 -1.1104 3.69471 19.2812 15.0508
525 2 2.2208 2.58062 15.2313 16.666
526 2 2.2208 2.39841 20.5557 16.6254
527 1 -1.1104 3.87964 16.3756 18.0899
528 1 -1.1104 3.98083 16.461 15.3747
524 1 -1.1104 3.72119 19.2047 20.7368
511 1 -1.1104 6.91887 16.3518 17.9194
505 1 -1.1104 0.971889 19.2095 20.7902
508 1 -1.1104 6.81433 19.2844 15.288
516 1 -1.1104 6.66402 16.3827 15.2149
501 1 -1.1104 6.68413 19.0709 18.2223
517 1 -1.1104 6.72487 16.3012 20.7548
320 2 2.2208 -0.481428 14.9955 13.5409
506 1 -1.1104 6.78054 13.4081 15.1646
500 1 -1.1104 6.67858 13.5316 18.0166
533 2 2.2208 10.9719 17.9287 16.5699
534 1 -1.1104 12.1974 13.584 17.932
535 1 -1.1104 12.4894 19.1599 17.9586
536 1 -1.1104 12.3241 13.4295 15.1121
538 1 -1.1104 12.4202 19.2641 15.2416
540 1 -1.1104 12.3054 16.4821 17.8649
541 2 2.2208 10.8352 14.9423 19.2376
542 2 2.2208 11.0288 20.5471 19.5271
543 1 -1.1104 12.3045 16.4008 15.127
545 1 -1.1104 9.51218 13.5516 17.8377
546 1 -1.1104 9.59332 19.2831 18.0742
547 2 2.2208 8.15685 17.6966 19.2954
548 1 -1.1104 9.46577 13.6639 15.2104
550 1 -1.1104 9.63276 19.2698 15.2311
552 2 2.2208 8.11192 15.0163 16.5435
553 2 2.2208 8.15714 20.5426 16.752
554 1 -1.1104 9.55893 16.4917 17.9594
555 1 -1.1104 9.5647 16.4463 15.1588
544 1 -1.1104 12.1305 16.5922 20.6302
539 1 -1.1104 12.3483 19.2668 20.7695
469 1 -1.1104 9.30565 19.1878 23.7588
432 2 2.2208 10.8073 15.1453 25.0063
330 2 2.2208 2.38376 17.7161 13.8316
653 2 2.2208 13.7636 20.5506 22.2448
366 1 -1.1104 0.939245 2.41693 20.7063
364 1 -1.1104 1.14776 -3.34045 20.6997
338 2 2.2208 2.47383 -1.89608 27.6598
344 2 2.2208 10.7439 0.780259 27.8007
468 1 -1.1104 9.53504 13.6954 23.4812
532 2 2.2208 7.99024 20.5772 22.3445
561 2 2.2208 5.27551 0.839411 22.1016
562 1 -1.1104 0.857854 -3.38071 23.4292
563 1 -1.1104 0.939691 2.1712 23.4884
566 1 -1.1104 0.992533 -3.38555 26.2924
567 1 -1.1104 0.984608 2.19287 26.1409
570 1 -1.1104 1.199 -0.512435 23.2861
572 2 2.2208 5.17106 -1.92373 24.9756
574 1 -1.1104 1.05516 -0.550536 26.2814
576 1 -1.1104 3.68181 -3.31768 23.4469
577 1 -1.1104 3.83645 2.33466 23.5289
578 2 2.2208 2.43852 0.847305 24.8148
579 1 -1.1104 3.73867 -3.3959 26.1039
580 1 -1.1104 3.85676 2.30071 26.2828
581 2 2.2208 2.47675 -1.90527 21.9379
582 2 2.2208 2.28657 3.76564 22.1274
583 1 -1.1104 3.86891 -0.481819 23.5422
584 1 -1.1104 3.8712 -0.484345 26.341
573 2 2.2208 5.20414 3.53451 24.8979
575 1 -1.1104 6.50358 -0.525673 26.527
565 1 -1.1104 6.80938 2.07644 23.5029
8612 2 2.2208 7.83886 -4.66853 24.8352
551 1 -1.1104 9.42227 19.167 20.7853
530 1 -1.1104 9.3096 19.1822 26.5204
407 1 -1.1104 12.4586 2.43427 20.731
368 1 -1.1104 6.39583 -3.45767 20.5991
8614 2 2.2208 10.7396 -4.63366 22.0971
569 1 -1.1104 6.74875 2.06406 26.2633
568 1 -1.1104 6.40769 -3.56369 26.2676
564 1 -1.1104 6.4751 -3.25079 23.5869
571 1 -1.1104 6.75464 -0.573427 23.5409
417 1 -1.1104 9.28971 -3.29758 20.5059
597 2 2.2208 10.873 0.890416 22.0159
598 1 -1.1104 12.2137 -3.28215 23.4524
599 1 -1.1104 12.3268 2.10651 23.3798
600 1 -1.1104 12.3201 -3.47789 26.3583
601 1 -1.1104 12.1949 2.39493 26.4518
602 1 -1.1104 12.3773 -0.624454 23.3332
603 2 2.2208 10.7895 -2.09149 24.7402
604 2 2.2208 11.0032 3.66301 24.8604
605 1 -1.1104 12.1613 -0.514989 26.2317
606 1 -1.1104 9.22421 -3.25668 23.4162
607 1 -1.1104 9.6384 2.36329 23.5127
608 2 2.2208 8.06831 0.799774 24.9724
609 1 -1.1104 9.50898 -3.71782 25.994
610 1 -1.1104 9.53352 2.19951 26.2314
611 2 2.2208 7.99137 -2.02802 21.9246
612 2 2.2208 7.96504 3.6518 22.2251
613 1 -1.1104 9.48923 -0.46239 23.445
614 1 -1.1104 9.26725 -0.73548 26.3666
313 2 2.2208 -0.355923 20.5711 13.6668
325 2 2.2208 5.26087 9.19627 13.6039
398 2 2.2208 13.6609 0.976765 19.2639
450 1 -1.1104 1.01371 10.7061 20.8324
626 2 2.2208 5.22805 6.63803 22.0427
627 2 2.2208 5.18241 12.089 22.0702
628 1 -1.1104 0.975126 7.921 23.5305
630 1 -1.1104 1.09977 8.11596 26.3874
632 1 -1.1104 0.908482 4.95456 23.4584
633 1 -1.1104 1.14156 10.8261 23.6648
636 2 2.2208 5.12617 9.20279 24.9593
637 1 -1.1104 1.03474 5.17333 26.4265
638 1 -1.1104 1.08839 10.9288 26.4172
641 1 -1.1104 3.70888 7.83509 23.5224
642 2 2.2208 2.399 6.47464 24.9237
643 2 2.2208 2.52466 12.2434 25.0535
644 1 -1.1104 3.82247 7.91201 26.2827
645 2 2.2208 2.41997 9.16434 22.0392
646 1 -1.1104 3.70368 5.14751 23.4996
647 1 -1.1104 3.92227 10.6691 23.575
648 1 -1.1104 3.93659 5.04651 26.2969
649 1 -1.1104 3.83948 10.7533 26.5561
631 1 -1.1104 6.53553 7.81259 26.1803
635 1 -1.1104 6.66524 10.6629 23.5193
640 1 -1.1104 6.68469 10.5728 26.3889
354 2 2.2208 10.8702 6.52311 27.7601
479 1 -1.1104 12.3951 5.27456 20.8487
486 1 -1.1104 9.30404 7.85811 20.7009
639 1 -1.1104 6.76932 4.94265 26.3332
634 1 -1.1104 6.47871 4.8894 23.6952
629 1 -1.1104 6.63272 7.8415 23.4624
657 1 -1.1104 9.62975 10.8572 26.2626
658 1 -1.1104 9.55365 5.08508 26.3155
659 1 -1.1104 9.43604 10.8105 23.4419
660 1 -1.1104 9.2735 5.02712 23.6154
661 2 2.2208 7.99114 9.28158 22.06
662 1 -1.1104 9.40774 8.03869 26.3902
663 2 2.2208 8.13112 12.1562 25.0243
664 2 2.2208 8.02137 6.59191 25.0447
665 2 2.2208 10.7775 6.36104 22.259
666 2 2.2208 10.8868 12.1855 22.1632
667 1 -1.1104 12.2172 8.06331 23.4424
668 1 -1.1104 12.1308 8.06037 26.2506
669 1 -1.1104 12.4919 5.10017 23.49
670 1 -1.1104 12.2713 10.7795 23.5632
671 2 2.2208 10.8087 9.49405 24.8697
672 1 -1.1104 12.514 5.25847 26.2959
673 1 -1.1104 12.3853 10.7786 26.4071
674 1 -1.1104 9.35116 7.97579 23.4571
557 1 -1.1104 9.4804 16.477 23.476
328 2 2.2208 10.7335 9.27449 13.5966
559 2 2.2208 -0.379454 17.7712 22.2064
522 1 -1.1104 3.68766 13.3637 20.701
529 1 -1.1104 3.79575 16.4385 20.7533
515 1 -1.1104 1.03317 16.2348 20.7643
509 1 -1.1104 6.83421 19.0794 20.9885
467 1 -1.1104 12.432 16.4556 26.4581
503 1 -1.1104 1.12668 13.4132 20.8289
587 2 2.2208 2.38441 14.9793 22.2205
590 2 2.2208 2.48121 20.6439 22.0887
615 1 -1.1104 3.76258 16.3059 23.6524
616 1 -1.1104 0.843216 16.4709 23.6442
619 1 -1.1104 3.87864 13.6681 26.3524
622 1 -1.1104 3.92015 16.4516 26.3626
650 2 2.2208 2.32601 17.7182 24.988
651 1 -1.1104 3.72343 19.2526 26.5063
652 2 2.2208 5.42355 17.6823 22.179
654 1 -1.1104 1.14181 13.7105 23.5477
656 1 -1.1104 0.950239 19.2373 23.7609
676 2 2.2208 5.26059 15.1096 24.8223
677 2 2.2208 4.9491 20.6719 25.1208
681 1 -1.1104 3.73114 19.1351 23.4252
683 1 -1.1104 3.95838 13.593 23.5197
685 1 -1.1104 0.884017 19.3303 26.4128
686 1 -1.1104 1.07797 16.4975 26.3737
687 1 -1.1104 0.984387 13.5617 26.4006
684 1 -1.1104 6.80813 16.4064 26.4301
679 1 -1.1104 6.50046 19.2823 23.8541
507 1 -1.1104 6.54295 13.4962 20.7769
8815 2 2.2208 10.7815 -4.80795 16.4074
428 2 2.2208 -0.311701 20.4915 19.4391
675 1 -1.1104 6.62277 13.6185 23.5462
586 2 2.2208 10.8546 17.7257 22.0937
531 2 2.2208 8.14441 15.0375 22.218
549 1 -1.1104 9.27339 13.5478 20.7565
494 2 2.2208 7.96996 18.0243 25.1014
495 1 -1.1104 6.43429 19.2913 26.5662
558 1 -1.1104 9.48814 16.5564 26.5527
623 2 2.2208 13.64 -1.94157 21.8004
400 1 -1.1104 12.2777 13.6474 26.1527
560 1 -1.1104 12.3501 19.0595 23.591
431 1 -1.1104 12.1396 16.2408 23.6906
496 1 -1.1104 9.30151 13.6134 26.2937
425 1 -1.1104 12.0588 19.2525 26.3917
682 1 -1.1104 6.55204 13.7016 26.2637
585 1 -1.1104 12.2782 13.4616 23.6562
9250 2 2.2208 -0.46012 20.7144 24.9516
8653 2 2.2208 2.29167 -4.73481 24.8477
8814 2 2.2208 7.82918 -4.76753 19.1773
353 2 2.2208 10.9142 17.7674 27.8517
625 2 2.2208 13.7339 17.6006 24.9465
337 2 2.2208 5.2484 0.950936 27.751
596 2 2.2208 -0.319555 3.74723 24.8598
318 2 2.2208 13.6039 0.83216 13.4909
323 2 2.2208 10.9177 3.70602 13.7069
345 2 2.2208 8.01645 -1.81077 27.7951
593 2 2.2208 13.8049 15.0801 22.1705
624 2 2.2208 13.6762 0.868046 24.7076
8818 2 2.2208 13.6515 -4.80528 19.2352
397 2 2.2208 -0.315207 3.68438 19.2023
9257 2 2.2208 -0.424968 14.9728 25.0038
393 2 2.2208 13.7668 3.80699 22.175
426 2 2.2208 -0.306908 17.5651 16.4772
392 2 2.2208 13.6753 9.46383 22.3083
588 2 2.2208 13.766 17.6488 19.2925
319 2 2.2208 5.32646 3.70007 13.5902
8469 2 2.2208 7.90844 -4.77948 13.6919
351 2 2.2208 5.14155 12.3303 27.8972
335 2 2.2208 8.03988 17.8622 13.8914
341 2 2.2208 5.2817 17.7378 27.9165
339 2 2.2208 2.35474 3.69755 27.7102
326 2 2.2208 2.40554 12.1625 13.7042
688 2 2.2208 5.24788 23.5446 5.35477
689 2 2.2208 5.28418 28.9222 5.33838
690 1 -1.1104 0.952146 24.8776 0.815498
691 1 -1.1104 1.08756 24.7234 3.78044
692 1 -1.1104 0.814608 22.0545 0.972503
693 1 -1.1104 0.765136 27.7326 0.985351
694 2 2.2208 5.19765 26.2828 2.47807
695 1 -1.1104 1.11584 22.0837 3.82796
696 1 -1.1104 0.920374 27.4626 3.86246
697 1 -1.1104 3.75506 24.888 1.01485
698 2 2.2208 2.25916 23.3946 2.36507
699 2 2.2208 2.39905 29.0651 2.53751
700 1 -1.1104 3.82985 24.7525 3.89349
701 2 2.2208 2.49994 26.2692 5.28929
702 1 -1.1104 3.70391 21.983 1.12688
703 1 -1.1104 3.62006 27.5782 1.12071
704 1 -1.1104 3.78315 22.0224 4.12641
705 1 -1.1104 3.97615 27.7345 3.95399
829 1 -1.1104 1.04977 24.6415 6.62642
712 1 -1.1104 6.4041 27.5745 1.14005
1021 2 2.2208 7.88419 31.8012 -0.323233
1554 1 -1.1104 12.2994 47.2736 6.48373
1013 2 2.2208 5.10132 28.9506 -0.294881
9856 2 2.2208 -0.421338 45.9659 10.8919
836 1 -1.1104 3.89461 22.095 6.89339
9716 2 2.2208 -0.486263 26.0749 8.069
1008 2 2.2208 8.0831 45.7105 13.5435
9857 2 2.2208 -0.486575 40.2045 10.7639
714 1 -1.1104 6.75634 27.6565 4.03094
834 1 -1.1104 6.62885 27.6909 6.9161
709 1 -1.1104 6.48908 24.7535 1.05164
833 1 -1.1104 6.79072 21.9501 6.89033
713 1 -1.1104 6.60095 22.0088 4.05425
710 1 -1.1104 6.73275 24.8523 3.80796
711 1 -1.1104 6.39038 22.0809 1.24336
715 2 2.2208 10.8147 23.3148 5.28959
716 2 2.2208 10.8934 28.8344 5.35817
717 1 -1.1104 12.2294 24.8884 1.17196
718 1 -1.1104 12.2505 24.9182 4.00619
719 1 -1.1104 12.1116 21.9923 1.21339
720 1 -1.1104 12.102 27.6439 1.19604
721 2 2.2208 10.8731 26.2172 2.50329
722 1 -1.1104 12.113 22.1722 3.94066
723 1 -1.1104 12.4646 27.6239 3.96941
724 1 -1.1104 9.36242 24.7732 1.14736
725 2 2.2208 8.02669 23.3475 2.45569
726 2 2.2208 7.97585 29.1491 2.50074
727 1 -1.1104 9.487 24.6397 4.01624
728 2 2.2208 8.04469 26.3183 5.43047
729 1 -1.1104 9.31979 22.0923 1.09161
730 1 -1.1104 9.26282 27.6777 1.15278
731 1 -1.1104 9.35683 21.8981 3.92533
732 1 -1.1104 9.53223 27.6196 3.85348
864 1 -1.1104 12.3457 27.6035 6.61304
863 1 -1.1104 12.4538 21.9856 6.70318
781 1 -1.1104 12.1568 41.6793 6.7534
865 1 -1.1104 9.42386 24.8108 6.67826
862 1 -1.1104 12.3487 24.8227 6.78473
1333 1 -1.1104 6.56677 47.1314 3.71228
1014 2 2.2208 10.7276 23.4175 -0.404396
9840 2 2.2208 -0.351194 23.3762 5.30914
736 2 2.2208 5.37325 34.6394 5.17192
737 1 -1.1104 1.1675 30.4964 1.0217
738 1 -1.1104 1.05168 36.2316 1.05754
740 1 -1.1104 1.06111 30.4878 3.81652
741 1 -1.1104 1.04504 35.9915 3.98976
743 1 -1.1104 1.00331 33.3724 0.978958
744 2 2.2208 5.09053 31.7334 2.6003
745 2 2.2208 5.36816 37.543 2.29052
746 1 -1.1104 0.992857 33.2361 3.97381
748 1 -1.1104 3.88545 30.3599 0.95804
749 1 -1.1104 3.9667 36.1105 0.967358
750 2 2.2208 2.4278 34.6779 2.39621
751 1 -1.1104 3.71432 30.3389 3.9345
752 1 -1.1104 3.92767 35.9672 3.65456
753 2 2.2208 2.47179 32.0194 5.36619
754 2 2.2208 2.48306 37.4365 5.04364
755 1 -1.1104 3.67464 33.1599 1.01694
756 1 -1.1104 3.95065 33.1787 3.81661
9622 2 2.2208 13.654 42.9529 5.20317
760 1 -1.1104 6.48759 30.4938 1.06801
742 1 -1.1104 6.54662 36.1477 3.77074
747 1 -1.1104 6.73033 33.1355 3.73388
739 1 -1.1104 6.68648 36.0035 0.923143
762 1 -1.1104 6.53352 33.1469 1.19921
759 1 -1.1104 12.1359 38.6437 6.55572
984 2 2.2208 8.14739 43.053 10.8096
761 1 -1.1104 6.47694 30.4473 4.0338
763 2 2.2208 10.7359 34.7414 5.13796
764 1 -1.1104 12.101 30.4221 0.937244
765 1 -1.1104 12.1637 36.0877 0.938791
766 1 -1.1104 12.2815 30.3343 3.85561
767 1 -1.1104 12.1336 36.1312 3.65348
768 1 -1.1104 12.2752 33.3444 0.904705
769 2 2.2208 10.8932 31.8287 2.56298
770 2 2.2208 10.664 37.4185 2.43241
771 1 -1.1104 12.238 33.2045 3.76542