ITEM: TIMESTEP
60000
ITEM: NUMBER OF ATOMS
17910
ITEM: BOX BOUNDS pp pp pp
-4.0721208285266036e-01 2.7747212082853199e+01
-4.6607046409663804e+00 3.3274070464097252e+02
-3.9803998770981308e-01 2.7738039987709630e+01
ITEM: ATOMS id type q x y z
1 2 2.2208 5.35209 1.08477 5.3731
2 1 -1.1104 1.05262 -3.15443 1.21525
3 1 -1.1104 1.17677 2.58071 1.07214
6 1 -1.1104 0.901745 -3.27966 3.91677
7 1 -1.1104 1.02752 2.45503 3.85352
10 1 -1.1104 1.22911 -0.262329 1.1099
12 2 2.2208 5.42075 -1.71551 2.47109
14 1 -1.1104 1.15208 -0.327732 3.70404
16 1 -1.1104 4.04005 -3.31795 1.09965
17 1 -1.1104 4.11178 2.38009 1.19408
18 2 2.2208 2.49667 1.11494 2.37429
19 1 -1.1104 3.71326 -3.22469 3.76462
20 1 -1.1104 3.91111 2.47933 3.96829
21 2 2.2208 2.45125 -1.71869 5.25841
23 1 -1.1104 3.89547 -0.388605 1.12393
24 1 -1.1104 4.04627 -0.331839 3.66612
13 2 2.2208 5.35488 3.77117 2.45458
22 2 2.2208 2.56247 3.82912 5.30583
354 2 2.2208 10.9247 6.66897 -0.216057
337 2 2.2208 5.46576 1.02008 -0.295139
233 2 2.2208 -0.28164 18.0537 10.9528
11 1 -1.1104 6.78828 -0.364338 1.02753
9209 2 2.2208 13.6481 15.3067 -0.354985
8446 2 2.2208 2.51556 -4.46862 2.36301
8882 2 2.2208 -0.290019 15.1704 8.2382
8449 2 2.2208 8.17764 -4.52437 2.51574
9177 2 2.2208 -0.219613 3.95377 2.43702
174 1 -1.1104 4.01068 -0.467345 6.66954
8454 2 2.2208 -0.360437 -4.42981 10.9173
356 2 2.2208 10.8449 12.2699 -0.122077
15 1 -1.1104 6.83269 -0.409738 3.86412
9 1 -1.1104 6.69327 2.30696 3.91377
8 1 -1.1104 6.77831 -3.25498 3.97149
4 1 -1.1104 6.73064 -3.05796 1.20468
5 1 -1.1104 7.0858 2.46206 1.14526
31 2 2.2208 11.0937 1.03856 5.30152
32 1 -1.1104 12.4223 -3.25772 1.14976
33 1 -1.1104 12.5544 2.42742 1.19626
34 1 -1.1104 12.3647 -3.30595 3.8048
35 1 -1.1104 12.288 2.34154 3.83835
36 1 -1.1104 12.2439 -0.420662 0.960027
37 2 2.2208 11.0213 -1.71765 2.49908
39 1 -1.1104 12.2962 -0.269626 3.90369
40 1 -1.1104 9.45072 -3.22285 1.22982
41 1 -1.1104 9.81711 2.44906 1.34315
42 2 2.2208 8.21522 0.993322 2.61972
43 1 -1.1104 9.50553 -3.39104 4.13402
44 1 -1.1104 9.55173 2.39189 4.07503
45 2 2.2208 8.28366 -2.03183 5.39406
46 2 2.2208 8.26053 3.80913 5.2764
47 1 -1.1104 9.56877 -0.362658 1.0613
48 1 -1.1104 9.57565 -0.431763 3.92734
38 2 2.2208 10.9507 3.78672 2.52733
341 2 2.2208 5.23832 17.7277 -0.364408
346 2 2.2208 8.03921 3.90284 -0.352201
9110 2 2.2208 -0.262104 9.48512 8.00243
344 2 2.2208 10.8487 1.00069 -0.396433
350 2 2.2208 2.48687 9.4221 -0.253682
54 2 2.2208 5.26454 6.63158 5.25142
55 2 2.2208 5.20443 12.3752 5.26581
56 1 -1.1104 0.934386 8.10783 1.1768
58 1 -1.1104 1.15068 8.03127 3.93447
60 1 -1.1104 1.06276 5.31796 1.06021
61 1 -1.1104 1.01003 10.8645 1.06095
66 2 2.2208 5.21802 9.49769 2.37354
67 1 -1.1104 1.29074 5.19518 3.77265
68 1 -1.1104 1.04197 11.0068 3.96806
71 1 -1.1104 3.84419 7.97435 0.998229
72 2 2.2208 2.48053 6.69693 2.57138
73 2 2.2208 2.46703 12.1305 2.5425
74 1 -1.1104 3.89594 8.02127 3.73557
75 2 2.2208 2.56073 9.37395 5.47057
76 1 -1.1104 3.93213 5.1652 1.10134
77 1 -1.1104 3.74327 10.6947 1.10457
79 1 -1.1104 4.0648 5.42482 3.90219
80 1 -1.1104 3.89823 10.8469 3.9759
351 2 2.2208 5.30019 12.279 -0.295064
338 2 2.2208 2.52881 -1.67371 -0.389217
59 1 -1.1104 6.67925 7.92523 3.79496
137 1 -1.1104 9.58906 19.0598 12.4289
62 1 -1.1104 1.07232 10.8552 6.6195
349 2 2.2208 5.25841 6.61495 -0.369773
64 1 -1.1104 6.54453 10.8081 0.971153
70 1 -1.1104 6.70372 10.6954 3.80061
63 1 -1.1104 6.59667 5.29622 0.78033
348 2 2.2208 13.651 -1.79949 -0.239001
57 1 -1.1104 6.65917 7.91108 0.987393
69 1 -1.1104 7.0897 5.20877 3.59676
84 2 2.2208 10.8763 6.63072 5.44751
85 2 2.2208 10.9347 12.3339 5.41426
86 1 -1.1104 12.3293 8.0941 1.328
87 1 -1.1104 12.1132 7.97003 3.9843
88 1 -1.1104 12.3766 5.15568 1.29288
89 1 -1.1104 12.1495 10.8321 1.01624
91 2 2.2208 10.7314 9.26952 2.65015
92 1 -1.1104 12.3177 5.11643 4.24483
93 1 -1.1104 12.2787 11.0117 3.88118
94 1 -1.1104 9.50345 7.9672 1.15279
95 2 2.2208 8.05674 6.71757 2.47696
96 2 2.2208 8.12436 12.1974 2.70924
97 1 -1.1104 9.40676 8.05275 3.91397
98 2 2.2208 8.07607 9.35762 5.31172
99 1 -1.1104 9.50741 5.12495 1.01131
100 1 -1.1104 9.32887 10.7328 1.28772
102 1 -1.1104 9.70422 5.2813 3.87116
103 1 -1.1104 9.50343 10.9049 4.11967
199 2 2.2208 -0.249377 3.88688 7.90439
355 2 2.2208 8.09071 9.3763 -0.359721
104 2 2.2208 10.8492 14.9622 8.06031
8456 2 2.2208 10.9664 -4.54424 10.9284
9041 2 2.2208 -0.306024 20.5155 2.51388
9188 2 2.2208 -0.226039 6.66991 -0.282564
106 2 2.2208 5.40367 17.7858 5.48275
107 1 -1.1104 1.03013 13.6452 1.07072
109 1 -1.1104 1.10748 19.0423 1.14223
113 1 -1.1104 0.988767 13.8163 3.8762
114 1 -1.1104 1.23948 19.1622 4.02718
116 1 -1.1104 0.795249 16.5223 1.22974
119 2 2.2208 5.23488 14.9394 2.63288
120 2 2.2208 5.23042 20.5151 2.60979
121 1 -1.1104 1.05231 16.4411 3.99972
123 1 -1.1104 3.92649 13.4358 1.13825
125 1 -1.1104 3.90685 19.1633 1.18056
127 2 2.2208 2.52781 17.6816 2.60979
128 1 -1.1104 3.82666 13.7156 3.86944
129 1 -1.1104 3.8728 19.271 4.14308
130 2 2.2208 2.29814 15.1919 5.26238
131 2 2.2208 2.32499 20.649 5.49413
132 1 -1.1104 3.73896 16.326 1.10311
134 1 -1.1104 3.84634 16.3741 3.83696
8453 2 2.2208 5.40785 -4.48624 10.7922
9181 2 2.2208 -0.26069 12.3053 5.23089
8908 2 2.2208 13.6018 17.7028 2.36984
124 1 -1.1104 3.80823 13.7619 6.6201
117 1 -1.1104 1.05558 16.5441 6.6752
49 1 -1.1104 12.4092 19.3142 12.3583
352 2 2.2208 8.16967 14.9585 -0.0446383
110 1 -1.1104 6.8153 13.437 1.31387
357 2 2.2208 8.04002 20.6945 -0.210058
122 1 -1.1104 6.60547 16.451 4.03501
115 1 -1.1104 6.68458 13.5495 3.88377
138 1 -1.1104 6.69189 19.1093 1.15004
139 1 -1.1104 6.75442 19.2588 4.0397
140 1 -1.1104 6.59809 16.3769 1.27092
141 2 2.2208 10.9762 17.8936 5.33021
142 1 -1.1104 12.3441 13.7493 1.19898
144 1 -1.1104 12.1522 19.2527 1.02183
146 1 -1.1104 12.445 13.7362 4.07999
147 1 -1.1104 12.4109 19.2246 3.86704
148 1 -1.1104 12.0661 16.4722 0.989879
150 2 2.2208 10.9509 15.0605 2.61425
151 2 2.2208 10.8975 20.6987 2.56785
152 1 -1.1104 12.1385 16.3182 3.876
153 1 -1.1104 9.6339 13.469 1.34882
155 1 -1.1104 9.46356 19.146 1.31152
157 2 2.2208 7.97111 17.7521 2.52524
158 1 -1.1104 9.58597 13.6488 4.06908
159 1 -1.1104 9.58843 19.1796 3.97411
160 2 2.2208 8.1304 15.033 5.36715
161 2 2.2208 8.14846 20.5267 5.3127
162 1 -1.1104 9.3534 16.3348 1.26562
164 1 -1.1104 9.38771 16.3253 3.88533
200 2 2.2208 -0.230194 -1.83599 8.11468
149 1 -1.1104 12.6594 16.636 6.67397
118 1 -1.1104 6.74571 16.4985 6.96112
9175 2 2.2208 -0.330856 1.16927 5.41428
170 1 -1.1104 1.05983 -0.278014 6.69758
339 2 2.2208 2.52637 3.86787 -0.306651
9208 2 2.2208 13.5731 20.7031 -0.200729
167 1 -1.1104 1.00376 2.44297 6.51619
172 1 -1.1104 3.77049 -3.10673 6.63593
173 1 -1.1104 3.94826 2.42179 6.84194
166 1 -1.1104 1.19636 -3.0368 6.65928
175 2 2.2208 5.31752 1.04515 10.9507
176 1 -1.1104 0.990245 -3.23131 12.4233
177 1 -1.1104 1.18254 2.56833 12.3247
180 1 -1.1104 1.17783 -3.10479 9.51053
181 1 -1.1104 0.938441 2.48713 9.26839
184 1 -1.1104 1.05739 -0.303457 12.2226
186 2 2.2208 5.32044 -1.80217 8.14686
187 2 2.2208 5.27786 4.03925 8.07402
188 1 -1.1104 0.997237 -0.463141 9.35926
190 1 -1.1104 3.90979 -3.14178 12.2505
191 1 -1.1104 4.04543 2.39515 12.3135
192 2 2.2208 2.50058 1.01531 8.14107
193 1 -1.1104 3.94653 -3.11936 9.34984
194 1 -1.1104 3.85199 2.32732 9.44332
195 2 2.2208 2.55275 -1.77983 10.8662
197 1 -1.1104 3.895 -0.370138 12.2315
198 1 -1.1104 3.87338 -0.380947 9.56748
196 2 2.2208 2.58764 3.92569 10.9638
136 1 -1.1104 9.62617 13.5603 12.5295
171 1 -1.1104 6.77921 -0.302106 6.71599
169 1 -1.1104 6.63625 2.61078 6.63515
185 1 -1.1104 6.6741 -0.50616 12.3988
182 1 -1.1104 6.82539 -3.24295 9.63104
201 2 2.2208 -0.338129 1.01943 10.9035
204 1 -1.1104 9.6619 16.3079 12.265
342 2 2.2208 2.39771 20.5875 -0.235368
209 1 -1.1104 9.76415 2.43121 6.89178
179 1 -1.1104 6.62729 2.44083 12.3418
208 1 -1.1104 9.69874 -3.32145 6.91575
183 1 -1.1104 6.69663 2.34605 9.59116
168 1 -1.1104 6.72715 -3.38365 6.78486
206 1 -1.1104 12.3917 2.58203 6.81757
207 1 -1.1104 12.5286 -0.0840137 6.62886
205 1 -1.1104 12.5251 -3.07246 6.68687
210 1 -1.1104 9.59202 -0.4087 6.66592
189 1 -1.1104 6.75588 -0.347622 9.33075
178 1 -1.1104 6.68283 -3.18737 12.3869
211 2 2.2208 10.9766 1.09627 10.9232
212 1 -1.1104 12.3248 -3.1759 12.2393
213 1 -1.1104 12.3045 2.54625 12.4187
214 1 -1.1104 12.4933 -3.01176 9.47553
215 1 -1.1104 12.2288 2.45795 9.64905
216 1 -1.1104 12.261 -0.235424 12.3201
217 2 2.2208 11.0461 -1.6639 8.15259
219 1 -1.1104 12.385 -0.30074 9.39441
220 1 -1.1104 9.61375 -3.1917 12.444
221 1 -1.1104 9.57434 2.45325 12.3502
222 2 2.2208 8.21616 0.979544 8.14792
223 1 -1.1104 9.64486 -2.88542 9.58257
224 1 -1.1104 9.42812 2.47876 9.63015
225 2 2.2208 8.12818 -1.56842 10.9695
226 2 2.2208 8.19837 3.83572 10.8828
227 1 -1.1104 9.43094 -0.273804 12.4193
228 1 -1.1104 9.70384 -0.170858 9.59949
218 2 2.2208 10.9727 3.80409 8.33381
30 2 2.2208 -0.405066 12.2546 10.8108
239 1 -1.1104 3.8952 5.2319 6.658
236 1 -1.1104 1.13758 5.32294 6.48842
234 1 -1.1104 1.20678 8.01521 6.73507
238 1 -1.1104 4.03595 7.90634 6.66859
78 1 -1.1104 3.93403 10.9819 6.82828
240 2 2.2208 5.57865 6.6949 11.0068
241 2 2.2208 5.40449 12.3353 11.008
242 1 -1.1104 1.09093 8.06829 12.2348
244 1 -1.1104 1.16699 8.04798 9.47144
246 1 -1.1104 1.22679 5.19289 12.1053
247 1 -1.1104 1.05816 10.8121 12.2336
250 2 2.2208 5.38273 9.59953 8.15224
251 1 -1.1104 1.06254 5.26507 9.2776
252 1 -1.1104 1.12314 10.8254 9.37543
255 1 -1.1104 4.0954 7.92314 12.4095
256 2 2.2208 2.46918 6.5782 8.12124
257 2 2.2208 2.52793 12.3367 8.11254
258 1 -1.1104 3.95551 7.91315 9.56021
259 2 2.2208 2.61029 9.46159 10.7518
260 1 -1.1104 4.10474 5.2307 12.1759
261 1 -1.1104 3.85071 10.9005 12.2763
262 1 -1.1104 3.90071 5.14877 9.3816
263 1 -1.1104 4.11949 10.8951 9.57156
248 1 -1.1104 6.90327 5.2803 12.503
243 1 -1.1104 6.99256 7.95304 12.2845
237 1 -1.1104 6.66295 5.19733 6.46054
254 1 -1.1104 6.79245 10.8848 9.37432
253 1 -1.1104 6.71635 5.11916 9.67422
9180 2 2.2208 -0.311739 9.51355 2.56626
235 1 -1.1104 6.70039 8.11418 6.68432
266 1 -1.1104 12.3555 5.43652 6.85576
267 1 -1.1104 9.39086 7.99642 6.67647
65 1 -1.1104 6.64557 11.1631 6.72541
245 1 -1.1104 6.71873 8.03276 9.63988
249 1 -1.1104 6.72048 10.6606 12.3143
101 1 -1.1104 9.50539 10.9084 6.5601
265 1 -1.1104 12.2887 8.13121 6.66576
90 1 -1.1104 12.462 10.8969 6.74079
269 1 -1.1104 9.49124 5.27149 6.80745
264 1 -1.1104 9.5811 10.681 9.33322
268 1 -1.1104 9.64735 5.27245 9.34193
270 1 -1.1104 9.36213 10.8745 12.0526
271 1 -1.1104 9.55104 5.26627 12.4301
272 2 2.2208 8.13676 9.42232 10.8631
273 1 -1.1104 9.64046 7.95825 9.51996
274 2 2.2208 8.07002 12.4094 8.29274
275 2 2.2208 8.12266 6.71299 8.10002
276 2 2.2208 10.9618 6.52028 11.1687
277 2 2.2208 11.0135 12.2064 10.9405
278 1 -1.1104 12.5486 7.85352 12.294
279 1 -1.1104 12.3911 8.09371 9.71378
280 1 -1.1104 12.3311 5.29725 12.4871
281 1 -1.1104 12.2085 10.8719 12.3987
282 2 2.2208 11.0748 9.3793 8.16538
283 1 -1.1104 12.3281 5.18207 9.66468
284 1 -1.1104 12.3757 10.8331 9.52356
285 1 -1.1104 9.59554 8.16319 12.2455
9218 2 2.2208 -0.259715 1.06413 -0.249565
82 1 -1.1104 12.5474 19.3104 9.61546
133 1 -1.1104 3.7505 16.4747 6.78466
302 1 -1.1104 1.04153 19.2749 6.7481
112 1 -1.1104 6.67452 19.2737 6.85991
126 1 -1.1104 3.93877 19.2862 6.8775
108 1 -1.1104 1.09456 13.6839 6.57086
286 1 -1.1104 3.95938 19.3576 12.4287
287 1 -1.1104 3.79859 13.7981 12.4813
291 1 -1.1104 1.06602 19.3226 9.65934
292 1 -1.1104 1.17299 16.4754 9.51654
293 2 2.2208 5.15579 20.7466 8.30447
294 1 -1.1104 1.16139 13.7434 9.69998
295 2 2.2208 5.20333 15.1363 8.17019
298 1 -1.1104 1.27073 19.3752 12.4186
299 1 -1.1104 0.940612 13.7914 12.4415
300 2 2.2208 5.28858 17.8011 11.0963
301 1 -1.1104 3.90357 19.1618 9.67695
303 2 2.2208 2.40307 17.8177 8.15599
304 1 -1.1104 3.78707 16.3886 9.59354
305 1 -1.1104 3.95194 13.5354 9.69308
307 1 -1.1104 1.30021 16.596 12.353
308 1 -1.1104 4.02338 16.5523 12.629
309 2 2.2208 2.56118 20.7876 10.8959
310 2 2.2208 2.64056 15.082 11.1238
9174 2 2.2208 -0.332118 -1.74851 2.49029
135 1 -1.1104 12.4787 16.5705 9.31548
165 2 2.2208 8.21025 18.0062 8.14357
154 1 -1.1104 9.3709 13.7843 6.76131
27 1 -1.1104 12.2574 13.7902 12.2052
202 2 2.2208 8.0638 15.0368 10.8514
231 1 -1.1104 9.39133 16.4293 9.37588
81 1 -1.1104 12.2474 13.6548 9.41451
232 1 -1.1104 9.6627 19.3816 9.43891
145 1 -1.1104 12.2028 19.5093 6.73186
163 1 -1.1104 9.7896 16.357 6.64086
290 1 -1.1104 6.67632 13.6173 9.56061
143 1 -1.1104 12.3971 13.6553 6.67062
156 1 -1.1104 9.37159 19.2178 6.71241
289 1 -1.1104 6.58582 16.3616 9.90756
111 1 -1.1104 6.45079 13.927 6.75508
83 1 -1.1104 12.5998 16.4988 12.2596
105 2 2.2208 10.9532 20.8092 8.14552
306 1 -1.1104 6.67491 16.425 12.4595
26 2 2.2208 11.1234 17.8318 10.8963
297 1 -1.1104 6.91676 13.6034 12.2575
288 1 -1.1104 6.72116 19.1793 9.51302
296 1 -1.1104 6.63845 19.409 12.3307
311 1 -1.1104 9.61164 13.5097 9.59579
203 2 2.2208 8.1173 20.7091 10.7937
8455 2 2.2208 8.14748 -4.56537 8.09675
324 2 2.2208 2.54566 6.68322 13.6184
29 2 2.2208 -0.358786 6.51118 10.9659
8452 2 2.2208 2.39008 -4.537 8.02981
340 2 2.2208 2.40688 15.1342 -0.251931
8958 2 2.2208 13.5455 20.799 5.24411
52 2 2.2208 13.646 6.6032 8.19031
8448 2 2.2208 -0.342753 -4.54012 5.26855
8881 2 2.2208 13.6566 3.90692 5.44106
316 2 2.2208 5.33456 -1.76594 13.6629
319 2 2.2208 5.43981 3.93787 13.6585
353 2 2.2208 10.8434 17.9337 -0.335313
8461 2 2.2208 10.9674 -4.50104 -0.328093
8473 2 2.2208 2.48367 -4.64961 13.6559
345 2 2.2208 8.06873 -1.7884 -0.316795
358 2 2.2208 5.26451 1.10684 16.6284
359 1 -1.1104 1.32823 -3.14002 17.907
360 1 -1.1104 1.10825 2.45439 18.1469
363 1 -1.1104 0.994956 -3.1108 15.1453
365 1 -1.1104 1.22384 2.49555 15.1818
371 1 -1.1104 1.29095 -0.369367 17.9137
373 2 2.2208 5.45546 -1.70291 19.4915
375 1 -1.1104 1.11442 -0.173033 14.9631
379 1 -1.1104 3.98119 -3.08335 17.8921
380 1 -1.1104 3.86364 2.60489 17.939
381 2 2.2208 2.45278 1.17371 19.3652
382 1 -1.1104 3.86823 -3.02385 15.0321
384 1 -1.1104 3.91195 2.62934 15.2023
386 2 2.2208 2.56811 -1.74645 16.5385
388 1 -1.1104 4.11902 -0.248868 18.1726
389 1 -1.1104 3.93768 -0.191196 15.2558
387 2 2.2208 2.54791 3.9433 16.4925
374 2 2.2208 5.27475 3.93077 19.3749
8836 2 2.2208 5.3655 -4.55081 16.6122
8825 2 2.2208 2.41299 -4.49802 19.4904
8614 2 2.2208 10.8387 -4.63224 22.1749
361 1 -1.1104 6.7757 -3.33055 17.9234
367 1 -1.1104 6.66924 -3.15025 15.143
331 2 2.2208 5.28854 20.7149 13.7799
366 1 -1.1104 1.01181 2.42897 20.8447
328 2 2.2208 10.8499 9.57756 13.7059
8612 2 2.2208 8.13506 -4.53948 24.8984
313 2 2.2208 -0.27478 20.648 13.6998
8469 2 2.2208 8.09198 -4.59707 13.7582
377 1 -1.1104 6.65115 -0.32705 15.171
362 1 -1.1104 6.5502 2.57405 17.8626
369 1 -1.1104 6.76495 2.5055 15.0059
372 1 -1.1104 6.87442 -0.562957 18.0241
401 2 2.2208 10.9356 0.995607 16.5616
402 1 -1.1104 12.4118 -3.00002 18.0077
403 1 -1.1104 12.241 2.51454 18.0497
404 1 -1.1104 12.3987 -3.22819 15.2026
406 1 -1.1104 12.6099 2.55026 15.2223
408 1 -1.1104 12.2569 -0.406365 17.8606
409 2 2.2208 10.7703 -1.87183 19.4708
410 2 2.2208 11.0377 4.03407 19.6171
411 1 -1.1104 12.2742 -0.322936 14.9892
413 1 -1.1104 9.64665 -3.31939 18.1644
414 1 -1.1104 9.42623 2.28104 17.85
415 2 2.2208 8.15328 1.0376 19.3422
416 1 -1.1104 9.52986 -3.05364 15.2634
418 1 -1.1104 9.64845 2.38967 15.1378
420 2 2.2208 8.01464 -1.82515 16.5205
421 2 2.2208 8.22477 3.91512 16.6372
422 1 -1.1104 9.47321 -0.417934 18.0877
423 1 -1.1104 9.35991 -0.41292 15.1832
323 2 2.2208 10.9374 3.90648 13.8671
321 2 2.2208 8.07129 0.999562 13.7239
322 2 2.2208 10.8433 -1.8329 13.7831
655 2 2.2208 -0.346058 12.3031 22.2246
424 1 -1.1104 9.35205 -0.396546 20.8263
391 2 2.2208 -0.20539 6.76065 22.2381
431 1 -1.1104 12.3984 16.4968 23.726
551 1 -1.1104 9.72864 19.3453 20.7322
594 2 2.2208 -0.224072 -1.79025 24.8406
326 2 2.2208 2.59623 12.317 13.8208
434 2 2.2208 5.44795 6.5794 16.6479
435 2 2.2208 5.40285 12.2753 16.6216
436 1 -1.1104 0.941292 8.16239 17.9014
438 1 -1.1104 1.28058 8.28909 14.9964
442 1 -1.1104 0.968948 5.32883 17.8929
443 1 -1.1104 1.11585 10.8963 17.8913
446 2 2.2208 5.2549 9.44889 19.2922
447 1 -1.1104 1.29587 5.37503 15.0676
449 1 -1.1104 1.13196 11.091 15.0686
455 1 -1.1104 3.78569 7.92844 18.077
456 2 2.2208 2.36172 6.65069 19.3951
457 2 2.2208 2.54459 12.3145 19.4516
458 1 -1.1104 4.02077 8.02955 15.239
460 2 2.2208 2.56578 9.34899 16.5672
461 1 -1.1104 3.88461 5.40609 17.7558
462 1 -1.1104 3.80315 10.813 17.9706
463 1 -1.1104 4.02181 5.3805 14.8855
465 1 -1.1104 4.10618 10.8711 15.1436
437 1 -1.1104 6.76897 8.21656 17.7932
325 2 2.2208 5.4613 9.36563 13.7505
451 1 -1.1104 6.74851 5.28218 15.2145
317 2 2.2208 2.68159 1.02012 13.7763
537 1 -1.1104 12.3437 13.5932 20.8279
8681 2 2.2208 -0.320381 -4.56208 22.0866
467 1 -1.1104 12.18 16.6218 26.4109
440 1 -1.1104 6.95233 8.04652 15.1723
445 1 -1.1104 6.5681 10.9059 17.9659
618 2 2.2208 -0.365135 12.2683 16.5389
8814 2 2.2208 8.11016 -4.61946 19.225
444 1 -1.1104 6.95103 5.22149 18.1142
453 1 -1.1104 6.83924 10.7725 14.9782
470 2 2.2208 11.1007 6.62001 16.6544
471 2 2.2208 11.0461 12.3727 16.5974
472 1 -1.1104 12.4972 8.19978 17.9008
473 1 -1.1104 12.5464 7.98965 15.1399
475 1 -1.1104 12.4338 5.21803 18.2087
476 1 -1.1104 12.3285 10.9572 18.2569
477 2 2.2208 11.0278 9.56226 19.3594
478 1 -1.1104 12.4329 5.20546 15.1517
480 1 -1.1104 12.4348 10.8346 15.2235
482 1 -1.1104 9.50275 8.2307 18.0438
483 2 2.2208 8.013 6.87141 19.4175
484 2 2.2208 8.25869 12.1514 19.3782
485 1 -1.1104 9.72463 8.10823 15.2428
487 2 2.2208 8.29356 9.514 16.4468
488 1 -1.1104 9.71373 5.16412 17.9055
489 1 -1.1104 9.61012 10.9142 17.9634
490 1 -1.1104 9.62394 5.32812 15.3196
492 1 -1.1104 9.57225 11.0057 14.9152
8815 2 2.2208 10.937 -4.53421 16.6357
625 2 2.2208 13.6359 17.9918 25.0491
330 2 2.2208 2.5873 18.0307 13.8373
592 2 2.2208 -0.327247 9.5123 19.1787
8843 2 2.2208 -0.24234 -4.65082 16.4257
497 2 2.2208 5.47447 17.8802 16.722
498 1 -1.1104 0.995672 13.6014 17.9991
499 1 -1.1104 1.31081 19.3396 18.0726
502 1 -1.1104 1.07239 13.8624 15.3497
504 1 -1.1104 1.17118 19.4098 15.1431
510 1 -1.1104 1.09944 16.4124 18.1978
512 2 2.2208 5.45539 15.0828 19.5627
513 2 2.2208 5.30364 20.6879 19.4421
514 1 -1.1104 1.23091 16.6208 15.2156
518 1 -1.1104 4.10976 13.6341 18.1546
519 1 -1.1104 3.96908 19.3755 18.0692
520 2 2.2208 2.58729 17.9345 19.5323
521 1 -1.1104 3.913 13.6537 15.2942
523 1 -1.1104 4.08522 19.1985 15.1899
525 2 2.2208 2.51028 14.9968 16.6098
526 2 2.2208 2.52572 20.5586 16.5875
527 1 -1.1104 4.02638 16.4455 18.1407
528 1 -1.1104 4.0066 16.4434 15.2808
394 2 2.2208 -0.234574 0.97286 16.5749
500 1 -1.1104 6.93263 13.5603 18.0139
506 1 -1.1104 6.78729 13.7346 15.1446
8818 2 2.2208 13.6464 -4.33933 19.3078
511 1 -1.1104 6.7774 16.2814 18.0606
516 1 -1.1104 6.7729 16.5953 15.2321
508 1 -1.1104 6.92593 19.536 15.2494
501 1 -1.1104 6.79597 19.1349 18.1503
533 2 2.2208 10.9164 18.0661 16.828
534 1 -1.1104 12.4632 13.7447 17.9069
535 1 -1.1104 12.4715 19.4724 18.0655
536 1 -1.1104 12.4402 13.7545 15.1076
538 1 -1.1104 12.4359 19.2708 15.3025
540 1 -1.1104 12.321 16.634 18.0321
541 2 2.2208 11.0505 15.055 19.6827
542 2 2.2208 10.8524 20.8293 19.4296
543 1 -1.1104 12.6129 16.4659 15.1087
545 1 -1.1104 9.55629 13.5797 18.1473
546 1 -1.1104 9.61203 19.2424 18.0744
547 2 2.2208 8.04021 17.8855 19.6666
548 1 -1.1104 9.60426 13.566 15.3227
550 1 -1.1104 9.59039 19.4095 15.2057
552 2 2.2208 8.21164 14.9835 16.6671
553 2 2.2208 8.28698 20.6394 16.7526
554 1 -1.1104 9.46545 16.4668 18.2418
555 1 -1.1104 9.63337 16.6071 15.305
8679 2 2.2208 5.18462 -4.52376 22.0213
678 2 2.2208 13.6139 12.4762 25.1771
544 1 -1.1104 12.4651 16.5313 20.9548
383 1 -1.1104 3.79914 -3.01841 20.7482
332 2 2.2208 5.36237 15.0986 14.0049
8653 2 2.2208 2.54948 -4.55358 24.9071
376 1 -1.1104 1.13777 -0.426121 20.6454
335 2 2.2208 8.06078 17.8569 13.8461
585 1 -1.1104 12.2657 14.0068 23.5786
427 2 2.2208 -0.375609 15.1855 19.4575
390 1 -1.1104 3.97195 -0.291741 20.8182
385 1 -1.1104 3.95458 2.58276 20.779
364 1 -1.1104 1.1356 -3.18655 20.8759
561 2 2.2208 5.3867 1.18403 22.1912
562 1 -1.1104 1.33856 -3.05198 23.7596
563 1 -1.1104 1.17454 2.52668 23.6077
566 1 -1.1104 1.18964 -3.31589 26.4735
567 1 -1.1104 1.17361 2.53262 26.5504
570 1 -1.1104 1.21578 -0.269381 23.4066
572 2 2.2208 5.18137 -1.87746 24.9917
574 1 -1.1104 1.17924 -0.435029 26.2736
576 1 -1.1104 3.99856 -3.29219 23.4348
577 1 -1.1104 3.98471 2.22942 23.5948
578 2 2.2208 2.52255 0.926183 25.0136
579 1 -1.1104 3.93425 -3.21681 26.3771
580 1 -1.1104 3.87034 2.49683 26.3968
581 2 2.2208 2.63413 -1.63338 22.0374
582 2 2.2208 2.32927 3.81346 22.0773
583 1 -1.1104 3.89427 -0.457884 23.7343
584 1 -1.1104 3.91305 -0.322194 26.4902
573 2 2.2208 5.14798 3.957 24.8923
564 1 -1.1104 6.82122 -3.11932 23.5085
569 1 -1.1104 6.83313 2.44685 26.4354
378 1 -1.1104 6.80249 -0.00566275 20.9225
327 2 2.2208 8.21082 6.72165 13.8062
329 2 2.2208 8.20723 12.2569 13.6976
419 1 -1.1104 9.60659 2.45411 20.8266
370 1 -1.1104 6.98771 2.61665 20.6966
565 1 -1.1104 6.71972 2.40634 23.5968
571 1 -1.1104 6.73502 -0.358958 23.5501
368 1 -1.1104 6.71251 -3.04748 20.6366
417 1 -1.1104 9.25432 -3.26245 20.9314
407 1 -1.1104 12.3359 2.43412 20.882
405 1 -1.1104 12.12 -3.10312 20.7039
575 1 -1.1104 6.91068 -0.305939 26.3677
568 1 -1.1104 6.78261 -3.20297 26.3923
412 1 -1.1104 12.0481 -0.334647 20.7349
597 2 2.2208 10.7863 0.973189 22.2467
598 1 -1.1104 12.4092 -3.03412 23.4555
599 1 -1.1104 12.3699 2.51581 23.6623
600 1 -1.1104 12.408 -3.24673 26.3732
601 1 -1.1104 12.2238 2.47046 26.426
602 1 -1.1104 12.3451 -0.317731 23.5124
603 2 2.2208 11.0121 -1.75774 24.9017
604 2 2.2208 11.0082 3.82653 24.9385
605 1 -1.1104 12.4473 -0.376288 26.4199
606 1 -1.1104 9.4985 -3.18108 23.5304
607 1 -1.1104 9.54987 2.35896 23.6991
608 2 2.2208 8.09828 1.13766 25.0582
609 1 -1.1104 9.62241 -3.14294 26.4053
610 1 -1.1104 9.5961 2.41254 26.3441
611 2 2.2208 8.17925 -1.73446 22.1568
612 2 2.2208 8.15535 3.86668 22.1781
613 1 -1.1104 9.5772 -0.457981 23.4963
614 1 -1.1104 9.51627 -0.325572 26.419
432 2 2.2208 10.8968 15.0997 25.0483
591 2 2.2208 -0.353888 6.68037 16.4929
459 1 -1.1104 3.82923 7.90615 20.7524
448 1 -1.1104 0.951905 5.1766 20.6792
439 1 -1.1104 1.11487 8.14387 20.7228
466 1 -1.1104 3.93259 10.8426 20.78
464 1 -1.1104 3.7017 5.2025 20.6475
450 1 -1.1104 1.17631 10.9314 20.6398
626 2 2.2208 5.15731 6.65555 22.2378
627 2 2.2208 5.09775 12.2376 22.3979
628 1 -1.1104 1.15849 8.21485 23.6065
630 1 -1.1104 1.09474 8.08278 26.5313
632 1 -1.1104 1.197 5.33206 23.4029
633 1 -1.1104 0.916458 10.9217 23.5241
636 2 2.2208 5.27254 9.4288 24.9031
637 1 -1.1104 1.23751 5.33477 26.3967
638 1 -1.1104 1.03252 11.0066 26.3373
641 1 -1.1104 3.88297 8.06012 23.4565
642 2 2.2208 2.5207 6.77651 24.878
643 2 2.2208 2.56087 12.1886 25.0472
644 1 -1.1104 3.95384 8.11897 26.2073
645 2 2.2208 2.39371 9.44556 22.2283
646 1 -1.1104 3.69069 5.28668 23.7071
647 1 -1.1104 3.63418 10.7571 23.7216
648 1 -1.1104 3.94682 5.25435 26.4038
649 1 -1.1104 3.74436 10.8641 26.5203
635 1 -1.1104 6.57008 10.7321 23.5968
639 1 -1.1104 6.68737 5.03276 26.232
9294 2 2.2208 -0.370608 9.50197 25.1854
452 1 -1.1104 6.45515 5.41962 20.6303
454 1 -1.1104 6.85556 10.8226 20.7195
640 1 -1.1104 6.64394 10.743 26.3002
634 1 -1.1104 6.61724 5.26351 23.6188
629 1 -1.1104 6.66942 7.9858 23.5978
441 1 -1.1104 6.50326 8.18057 20.6852
474 1 -1.1104 12.3363 8.08324 20.6758
479 1 -1.1104 12.2518 5.29601 21.1163
481 1 -1.1104 12.2492 10.8349 20.957
631 1 -1.1104 6.68808 7.95551 26.3864
486 1 -1.1104 9.54496 7.89274 20.8138
493 1 -1.1104 9.6662 10.8413 20.7659
491 1 -1.1104 9.40574 5.33377 20.8097
657 1 -1.1104 9.38129 10.7714 26.4602
658 1 -1.1104 9.60048 5.27631 26.4376
659 1 -1.1104 9.49038 10.7959 23.4818
660 1 -1.1104 9.40411 5.32566 23.5733
661 2 2.2208 8.07766 9.36996 22.1125
662 1 -1.1104 9.44386 8.00497 26.5592
663 2 2.2208 8.09252 12.2457 25.0769
664 2 2.2208 8.07964 6.53975 24.9536
665 2 2.2208 10.9428 6.78854 22.3191
666 2 2.2208 10.8821 12.2332 22.3023
667 1 -1.1104 12.4195 8.19511 23.4329
668 1 -1.1104 12.4547 7.92843 26.6284
669 1 -1.1104 12.2968 5.46009 23.7148
670 1 -1.1104 12.5121 10.9921 23.7879
671 2 2.2208 11.0596 9.27374 25.1992
672 1 -1.1104 12.4515 5.23729 26.4081
673 1 -1.1104 12.2866 10.7447 26.4987
674 1 -1.1104 9.46228 8.14972 23.6445
556 1 -1.1104 9.5159 16.5558 21.0242
596 2 2.2208 -0.224022 3.79747 25.2429
539 1 -1.1104 12.4505 19.3761 20.8141
503 1 -1.1104 0.964243 13.8974 20.9479
529 1 -1.1104 3.99201 16.3576 20.9502
505 1 -1.1104 0.88291 19.2815 20.7659
522 1 -1.1104 3.84261 13.5748 20.9494
515 1 -1.1104 1.19476 16.6427 20.8935
524 1 -1.1104 3.86046 19.3442 20.7891
587 2 2.2208 2.30439 15.1476 22.3008
590 2 2.2208 2.40772 20.6662 22.1709
615 1 -1.1104 3.96342 16.4846 23.6666
616 1 -1.1104 0.91634 16.4435 23.6794
619 1 -1.1104 3.92249 13.7704 26.4893
622 1 -1.1104 3.82921 16.4852 26.4687
650 2 2.2208 2.43367 17.8534 25.165
651 1 -1.1104 3.60446 19.1869 26.3663
652 2 2.2208 5.09207 17.9396 22.2026
654 1 -1.1104 0.966107 13.6909 23.7884
656 1 -1.1104 1.03233 19.1439 23.529
676 2 2.2208 5.20383 15.064 25.0704
677 2 2.2208 5.18349 20.6963 25.0089
681 1 -1.1104 3.8602 19.2205 23.4648
683 1 -1.1104 3.59284 13.6035 23.6004
685 1 -1.1104 0.899957 19.357 26.6107
686 1 -1.1104 1.00937 16.4818 26.4454
687 1 -1.1104 1.05807 13.7798 26.5845
507 1 -1.1104 6.6314 13.6952 21.0445
679 1 -1.1104 6.4638 19.2588 23.5053
558 1 -1.1104 9.53008 16.5051 26.5619
400 1 -1.1104 12.322 13.8512 26.329
425 1 -1.1104 12.0654 19.6166 26.4945
468 1 -1.1104 9.53942 13.6012 23.6609
509 1 -1.1104 6.76121 19.3397 20.7657
557 1 -1.1104 9.68446 16.4837 23.603
433 2 2.2208 10.7593 20.753 25.1051
531 2 2.2208 8.14993 15.0627 22.3351
682 1 -1.1104 6.88395 13.678 26.5386
517 1 -1.1104 6.64231 16.6222 20.9416
675 1 -1.1104 6.58475 13.5115 23.66
684 1 -1.1104 6.76693 16.4498 26.5656
495 1 -1.1104 6.39801 19.2384 26.4025
469 1 -1.1104 9.29401 19.4845 23.6351
549 1 -1.1104 9.42189 13.6312 20.9917
532 2 2.2208 7.96346 20.7355 22.1621
560 1 -1.1104 12.1373 19.2037 23.8554
494 2 2.2208 8.03449 17.951 25.0782
586 2 2.2208 10.9583 17.9557 22.3149
496 1 -1.1104 9.55975 13.6251 26.6778
530 1 -1.1104 9.26915 19.3276 26.5504
617 1 -1.1104 6.77913 16.4106 23.7724
333 2 2.2208 11.0949 20.5696 13.7507
595 2 2.2208 -0.226323 1.18486 22.254
395 2 2.2208 -0.244898 -1.7694 19.2759
426 2 2.2208 -0.204782 17.8667 16.678
334 2 2.2208 11.0506 15.1573 13.8225
428 2 2.2208 -0.344333 20.6877 19.3926
320 2 2.2208 -0.326859 15.1767 13.7038
9250 2 2.2208 -0.358206 20.7454 25.0173
312 2 2.2208 -0.279955 -1.69164 13.8118
653 2 2.2208 13.5566 20.7097 22.1466
315 2 2.2208 -0.126741 3.83436 13.7518
343 2 2.2208 -0.287422 9.52922 13.677
9210 2 2.2208 -0.311056 12.2449 27.7223
688 2 2.2208 5.37302 23.2834 5.51047
689 2 2.2208 5.12084 29.0262 5.32943
690 1 -1.1104 1.01716 24.877 1.17338
691 1 -1.1104 1.13229 24.7301 3.88741
692 1 -1.1104 1.13036 21.8756 1.27935
693 1 -1.1104 0.966709 27.6857 1.05984
694 2 2.2208 5.33589 26.1415 2.56798
695 1 -1.1104 0.824242 21.8657 4.04865
696 1 -1.1104 0.916337 27.5137 3.75733
697 1 -1.1104 3.67073 24.5991 1.14151
698 2 2.2208 2.42257 23.2978 2.68851
699 2 2.2208 2.41466 28.9292 2.48611
700 1 -1.1104 3.86223 24.7496 3.946
701 2 2.2208 2.6029 26.1463 5.36036
702 1 -1.1104 3.8534 21.9361 1.24
703 1 -1.1104 3.80766 27.4235 1.11279
704 1 -1.1104 3.84478 21.915 4.08777
705 1 -1.1104 3.80768 27.7009 3.98994
1012 2 2.2208 2.28701 26.2063 -0.153551
1013 2 2.2208 5.09 29.1167 -0.209118
711 1 -1.1104 6.59835 21.9251 1.08432
710 1 -1.1104 6.7154 24.6441 3.88274
714 1 -1.1104 6.59147 27.4382 3.94292
1011 2 2.2208 5.19325 23.3257 -0.106129
9874 2 2.2208 13.659 26.1962 -0.345441
9876 2 2.2208 -0.323535 23.5409 -0.397384
9717 2 2.2208 -0.386899 23.6911 11.0652
712 1 -1.1104 6.52515 27.683 1.16367
709 1 -1.1104 6.58213 24.7534 1.14284
713 1 -1.1104 6.88844 21.9567 4.0013
715 2 2.2208 10.988 23.6601 5.3676
716 2 2.2208 10.7907 29.0471 5.24131
717 1 -1.1104 12.3541 24.8559 0.949425
718 1 -1.1104 12.4226 24.7932 3.91029
719 1 -1.1104 12.171 22.0946 1.04612
720 1 -1.1104 12.1833 27.7474 1.1721
721 2 2.2208 10.8727 26.2685 2.63409
722 1 -1.1104 12.1118 22.0647 3.94775
723 1 -1.1104 12.2388 27.511 3.93235
724 1 -1.1104 9.60795 24.8872 1.28127
725 2 2.2208 8.14352 23.4554 2.64524
726 2 2.2208 7.99207 29.1339 2.58835
727 1 -1.1104 9.38807 24.8181 4.0459
728 2 2.2208 8.04675 26.171 5.42704
729 1 -1.1104 9.33875 22.2168 1.25367
730 1 -1.1104 9.51237 27.5749 1.10297
731 1 -1.1104 9.5366 22.0705 3.95333
732 1 -1.1104 9.4822 27.6204 3.89309
1014 2 2.2208 10.9195 23.6182 -0.2715
1017 2 2.2208 10.7394 29.0383 -0.181403
9582 2 2.2208 13.5867 37.5637 5.3444
830 1 -1.1104 6.78051 24.8204 6.81145
864 1 -1.1104 12.4859 27.8461 6.55051
10238 1 -1.1104 12.1546 47.1203 0.929917
1529 1 -1.1104 1.00574 47.1548 9.53208
1007 2 2.2208 5.11798 45.9589 -0.264489
1295 2 2.2208 2.44907 32.0395 -0.378392
736 2 2.2208 5.26275 34.6869 5.34436
737 1 -1.1104 1.03571 30.2988 1.0387
738 1 -1.1104 1.06356 36.1732 0.95171
740 1 -1.1104 1.09728 30.4141 3.92827
741 1 -1.1104 1.02896 36.2417 3.83589
743 1 -1.1104 1.19764 33.2323 1.24628
744 2 2.2208 5.22944 31.9588 2.57867
745 2 2.2208 5.29015 37.566 2.53905
746 1 -1.1104 0.773847 33.2373 3.98049
748 1 -1.1104 3.74813 30.4792 1.02531
749 1 -1.1104 3.84688 36.2599 1.10348
750 2 2.2208 2.47625 34.7969 2.53905
751 1 -1.1104 3.70277 30.5404 3.84334
752 1 -1.1104 3.79964 36.1033 4.01486
753 2 2.2208 2.36539 31.7046 5.36885
754 2 2.2208 2.24006 37.5696 5.2606
755 1 -1.1104 3.97098 33.3113 1.02313
756 1 -1.1104 3.72175 33.1263 3.71359
760 1 -1.1104 6.54027 30.5188 1.17009
739 1 -1.1104 6.59587 36.0519 0.959126
1018 2 2.2208 2.24953 37.6411 -0.260655
10023 2 2.2208 -0.249319 37.6238 13.6292
1019 2 2.2208 5.22885 34.5742 -0.277248
747 1 -1.1104 6.67937 33.2594 3.96323
742 1 -1.1104 6.4931 36.1472 3.80128
9739 2 2.2208 13.6349 37.555 10.896
762 1 -1.1104 6.6151 33.2436 1.09695
1015 2 2.2208 7.86966 26.3283 -0.076747
761 1 -1.1104 6.47564 30.5106 3.94474
763 2 2.2208 10.7549 34.6557 5.2951
764 1 -1.1104 12.241 30.5484 1.20132