ITEM: TIMESTEP
100000
ITEM: NUMBER OF ATOMS
17910
ITEM: BOX BOUNDS pp pp pp
-3.9843160845130204e-01 2.7738431608451293e+01
-4.7780923380606133e+00 3.3285809233806191e+02
-3.8841612722807001e-01 2.7728416127227284e+01
ITEM: ATOMS id type q x y z
1 2 2.2208 5.20642 0.957427 5.38492
2 1 -1.1104 1.02065 -3.24276 1.07765
3 1 -1.1104 1.127 2.26869 1.10391
6 1 -1.1104 0.932779 -3.4747 3.84344
7 1 -1.1104 1.09243 2.37211 4.05245
10 1 -1.1104 1.07624 -0.599358 0.965265
12 2 2.2208 5.36294 -1.90669 2.47757
14 1 -1.1104 1.08988 -0.660744 3.86873
16 1 -1.1104 3.76292 -3.11626 1.05027
17 1 -1.1104 3.88172 2.28578 1.03964
18 2 2.2208 2.5421 0.805878 2.5029
19 1 -1.1104 3.87972 -3.40296 3.76269
20 1 -1.1104 3.71647 2.30358 3.87871
21 2 2.2208 2.42815 -2.07816 5.2102
23 1 -1.1104 3.99115 -0.501436 1.11745
24 1 -1.1104 3.81509 -0.631203 3.79711
22 2 2.2208 2.32729 3.67988 5.32194
13 2 2.2208 5.19558 3.69226 2.45489
11 1 -1.1104 6.5719 -0.497464 1.01265
9218 2 2.2208 -0.200268 0.883763 -0.279212
337 2 2.2208 5.29175 0.883687 -0.32412
9042 2 2.2208 -0.318128 14.9732 2.45555
338 2 2.2208 2.52721 -1.79989 -0.346623
288 1 -1.1104 6.71032 19.1985 9.40433
345 2 2.2208 7.96174 -1.97269 -0.298137
8455 2 2.2208 8.03574 -4.58932 8.14068
9 1 -1.1104 6.64941 2.1935 3.91532
15 1 -1.1104 6.61124 -0.54973 3.8842
5 1 -1.1104 6.74176 2.39506 1.07973
344 2 2.2208 11.0158 0.631637 -0.389033
8 1 -1.1104 6.57453 -3.37056 3.78015
4 1 -1.1104 6.62623 -3.44735 1.06575
31 2 2.2208 10.976 0.772236 5.22612
32 1 -1.1104 12.405 -3.3618 1.04336
33 1 -1.1104 12.4067 2.23742 1.3566
34 1 -1.1104 12.4698 -3.3476 3.88316
35 1 -1.1104 12.2951 2.27004 3.90481
36 1 -1.1104 12.4206 -0.493903 0.996122
37 2 2.2208 11.1331 -2.08716 2.37342
39 1 -1.1104 12.4365 -0.559806 3.89742
40 1 -1.1104 9.50453 -3.48926 1.31554
41 1 -1.1104 9.61488 2.24115 0.988277
42 2 2.2208 8.03975 0.866664 2.51683
43 1 -1.1104 9.59055 -3.61804 4.15327
44 1 -1.1104 9.45096 2.0604 3.78518
45 2 2.2208 7.99986 -1.97454 5.22594
46 2 2.2208 8.23967 3.62987 5.29141
47 1 -1.1104 9.41716 -0.61621 1.02221
48 1 -1.1104 9.34878 -0.908106 3.75879
38 2 2.2208 10.7923 3.59705 2.42909
8465 2 2.2208 5.24168 -4.76396 -0.308832
137 1 -1.1104 9.5177 19.192 12.4241
296 1 -1.1104 6.66662 19.3416 12.2423
350 2 2.2208 2.43226 9.23465 -0.352931
54 2 2.2208 5.35061 6.53288 5.26839
55 2 2.2208 5.24318 12.3173 5.20757
56 1 -1.1104 1.07779 7.87333 1.04112
58 1 -1.1104 1.04388 8.02427 3.87425
60 1 -1.1104 0.84977 5.05004 1.1203
61 1 -1.1104 0.902837 10.4989 0.974431
66 2 2.2208 5.36603 9.44828 2.38109
67 1 -1.1104 0.981638 5.18523 3.90096
68 1 -1.1104 1.02128 10.7138 3.73733
71 1 -1.1104 3.78118 7.87048 0.949048
72 2 2.2208 2.44404 6.5132 2.43926
73 2 2.2208 2.3218 12.0612 2.45792
74 1 -1.1104 3.71704 7.79743 3.87856
75 2 2.2208 2.51402 9.29619 5.27146
76 1 -1.1104 3.83826 5.27752 1.10856
77 1 -1.1104 3.99449 10.8413 1.05098
79 1 -1.1104 3.95499 5.06813 3.819
80 1 -1.1104 3.95453 10.6123 3.7983
349 2 2.2208 5.27346 6.65177 -0.373614
9179 2 2.2208 -0.296764 6.49798 5.21924
62 1 -1.1104 1.08647 10.6871 6.56243
238 1 -1.1104 3.87068 7.86145 6.77136
9175 2 2.2208 -0.343547 0.680646 5.31533
69 1 -1.1104 6.76473 5.01369 4.05247
59 1 -1.1104 6.47268 7.94421 3.80715
63 1 -1.1104 6.51032 5.28089 1.16738
64 1 -1.1104 6.69793 10.7333 0.936195
339 2 2.2208 2.51403 3.77482 -0.323788
70 1 -1.1104 6.6871 10.7711 3.85555
57 1 -1.1104 6.72956 8.00889 1.04317
84 2 2.2208 10.9033 6.44775 5.22517
85 2 2.2208 10.8229 12.3503 5.26224
86 1 -1.1104 12.0244 7.83653 1.32133
87 1 -1.1104 12.2785 7.94081 4.2193
88 1 -1.1104 12.2903 5.08055 1.06881
89 1 -1.1104 12.1024 10.3985 1.14027
91 2 2.2208 10.7663 9.27685 2.60759
92 1 -1.1104 12.3327 5.14311 3.96553
93 1 -1.1104 12.2585 10.769 3.87951
94 1 -1.1104 9.4349 7.98503 1.09628
95 2 2.2208 7.97222 6.47056 2.50509
96 2 2.2208 8.03425 12.2781 2.40486
97 1 -1.1104 9.39628 7.79647 3.943
98 2 2.2208 8.09139 9.45192 5.37306
99 1 -1.1104 9.42323 5.0977 0.956639
100 1 -1.1104 9.39301 10.6902 1.15492
102 1 -1.1104 9.44794 5.03417 3.87501
103 1 -1.1104 9.43913 10.8293 3.9151
355 2 2.2208 8.09219 9.26077 -0.343074
8449 2 2.2208 8.12515 -4.6713 2.57301
237 1 -1.1104 6.7208 5.11326 6.84244
8909 2 2.2208 -0.363246 17.7762 5.29169
346 2 2.2208 8.22265 3.4914 -0.375407
106 2 2.2208 5.41571 17.7189 5.34356
107 1 -1.1104 0.880267 13.3992 1.13985
109 1 -1.1104 0.904578 19.0896 1.1159
113 1 -1.1104 1.0278 13.4694 3.991
114 1 -1.1104 0.986398 19.2181 3.91405
116 1 -1.1104 1.15886 16.2821 0.850162
119 2 2.2208 5.259 14.9458 2.35507
120 2 2.2208 5.40908 20.5244 2.60857
121 1 -1.1104 1.03791 16.4047 3.79069
123 1 -1.1104 3.6901 13.7299 1.06294
125 1 -1.1104 3.62779 19.2682 1.12553
127 2 2.2208 2.44667 17.8762 2.50916
128 1 -1.1104 3.83404 13.6608 3.80969
129 1 -1.1104 3.88977 19.1187 3.77925
130 2 2.2208 2.49822 14.9259 5.32428
131 2 2.2208 2.50181 20.5357 5.3342
132 1 -1.1104 4.04957 16.5439 1.15122
134 1 -1.1104 3.76672 16.531 4.02273
52 2 2.2208 13.6884 6.47809 8.26653
140 1 -1.1104 6.73146 16.2283 0.908335
110 1 -1.1104 6.71871 13.4803 0.934479
51 2 2.2208 13.6678 9.28827 10.8307
8883 2 2.2208 -0.348545 20.3972 8.14101
8447 2 2.2208 5.12756 -4.73385 5.32816
342 2 2.2208 2.3903 20.5737 -0.292955
139 1 -1.1104 6.75202 19.1482 3.93109
138 1 -1.1104 6.69788 19.2369 1.10636
115 1 -1.1104 6.63475 13.6504 3.90649
8446 2 2.2208 2.43937 -4.60939 2.4788
122 1 -1.1104 6.30997 16.3095 3.91022
141 2 2.2208 10.6415 17.8361 5.26775
142 1 -1.1104 12.1202 13.3665 1.13694
144 1 -1.1104 12.2186 19.1657 1.20438
146 1 -1.1104 12.1155 13.6697 3.80537
147 1 -1.1104 12.3689 19.1174 3.98611
148 1 -1.1104 12.4686 16.3081 1.19979
150 2 2.2208 10.7754 14.894 2.46868
151 2 2.2208 10.9138 20.5472 2.49863
152 1 -1.1104 12.1808 16.4206 3.90589
153 1 -1.1104 9.59959 13.6562 1.09801
155 1 -1.1104 9.44002 19.014 1.03677
157 2 2.2208 7.99499 17.728 2.37757
158 1 -1.1104 9.21779 13.5974 3.96569
159 1 -1.1104 9.41122 19.3008 3.69965
160 2 2.2208 8.02192 14.963 5.39666
161 2 2.2208 7.99179 20.7576 5.36885
162 1 -1.1104 9.65089 16.3773 0.894073
164 1 -1.1104 9.18915 16.4615 3.7869
8454 2 2.2208 -0.256985 -4.70895 11.0049
357 2 2.2208 8.22938 20.6559 -0.252232
156 1 -1.1104 9.5331 19.2401 6.74546
167 1 -1.1104 1.0967 2.27054 6.72439
173 1 -1.1104 3.85627 2.20055 6.73715
172 1 -1.1104 3.81997 -3.27399 6.80424
170 1 -1.1104 1.07964 -0.524973 6.68289
174 1 -1.1104 3.81931 -0.645366 6.62167
166 1 -1.1104 1.08802 -3.48493 6.78198
175 2 2.2208 5.30221 0.758408 11.0213
176 1 -1.1104 1.06123 -3.35122 12.366
177 1 -1.1104 1.26581 2.30175 12.388
180 1 -1.1104 1.02176 -3.3926 9.63844
181 1 -1.1104 1.13831 2.0516 9.47156
184 1 -1.1104 0.853438 -0.438414 12.6282
186 2 2.2208 5.23091 -1.96719 8.14016
187 2 2.2208 5.3518 3.57265 8.16645
188 1 -1.1104 1.13519 -0.549144 9.59149
190 1 -1.1104 3.86777 -3.33935 12.4851
191 1 -1.1104 4.03852 2.1052 12.3765
192 2 2.2208 2.49633 0.804439 8.08984
193 1 -1.1104 3.94395 -3.40458 9.77162
194 1 -1.1104 3.75757 2.08676 9.57375
195 2 2.2208 2.49807 -2.06652 11.0676
197 1 -1.1104 3.93499 -0.677352 12.3958
198 1 -1.1104 3.85725 -0.575543 9.70992
196 2 2.2208 2.53826 3.52776 10.9358
168 1 -1.1104 6.63523 -3.31029 6.59264
200 2 2.2208 -0.137894 -2.00735 8.27949
179 1 -1.1104 6.72739 2.34786 12.2429
183 1 -1.1104 6.64567 2.09857 9.53752
111 1 -1.1104 6.7266 13.6521 6.68434
229 2 2.2208 13.6908 0.922432 8.17882
9177 2 2.2208 -0.378975 3.6816 2.47302
185 1 -1.1104 6.74933 -0.670883 12.2178
206 1 -1.1104 12.3385 2.11284 6.53595
171 1 -1.1104 6.59759 -0.499986 6.54781
208 1 -1.1104 9.54427 -3.55295 6.65973
169 1 -1.1104 6.90813 2.3669 6.58373
178 1 -1.1104 6.7136 -3.42141 12.2483
209 1 -1.1104 9.60989 2.22857 6.78999
210 1 -1.1104 9.43286 -0.622656 6.50318
189 1 -1.1104 6.6867 -0.534576 9.27711
207 1 -1.1104 12.3698 -0.697386 6.77086
182 1 -1.1104 6.55801 -3.56181 9.46036
205 1 -1.1104 12.3641 -3.36953 6.69469
211 2 2.2208 10.8921 0.864563 11.2339
212 1 -1.1104 12.3232 -3.41753 12.4124
213 1 -1.1104 12.3837 2.30644 12.1547
214 1 -1.1104 12.3806 -3.41033 9.74447
215 1 -1.1104 12.3091 2.2895 9.37796
216 1 -1.1104 12.3685 -0.528186 12.3571
217 2 2.2208 11.0101 -1.89349 8.16446
219 1 -1.1104 12.2161 -0.51719 9.58794
220 1 -1.1104 9.59035 -3.28854 12.2856
221 1 -1.1104 9.70455 2.42249 12.6545
222 2 2.2208 8.18044 0.763146 7.98462
223 1 -1.1104 9.37362 -3.32796 9.46084
224 1 -1.1104 9.43725 2.3664 9.68189
225 2 2.2208 8.14736 -2.00708 10.8383
226 2 2.2208 7.99187 3.65251 10.8932
227 1 -1.1104 9.47696 -0.479129 12.3099
228 1 -1.1104 9.46168 -0.507497 9.50288
218 2 2.2208 10.9641 3.74581 8.04895
29 2 2.2208 -0.300378 6.35285 10.842
234 1 -1.1104 1.12333 7.78909 6.60646
236 1 -1.1104 0.98968 5.09936 6.83936
78 1 -1.1104 3.91075 10.535 6.75341
239 1 -1.1104 3.84453 5.00395 6.57877
240 2 2.2208 5.21676 6.28935 10.9219
241 2 2.2208 5.19532 11.9702 10.9807
242 1 -1.1104 1.20673 7.78785 12.1797
244 1 -1.1104 1.11571 7.78638 9.49354
246 1 -1.1104 1.14383 4.97325 12.3413
247 1 -1.1104 0.88606 10.6768 12.2319
250 2 2.2208 5.21101 9.16954 8.1872
251 1 -1.1104 1.0105 4.86942 9.49893
252 1 -1.1104 0.881988 10.7345 9.46257
255 1 -1.1104 3.8234 7.81349 12.4056
256 2 2.2208 2.33669 6.39608 8.11128
257 2 2.2208 2.44693 12.1226 8.08863
258 1 -1.1104 3.84619 7.75881 9.59608
259 2 2.2208 2.26926 9.25488 10.8451
260 1 -1.1104 3.8039 4.88624 12.2536
261 1 -1.1104 3.75087 10.6937 12.2819
262 1 -1.1104 3.61304 4.78867 9.40863
263 1 -1.1104 3.64658 10.6878 9.47442
235 1 -1.1104 6.72394 7.89043 6.66866
30 2 2.2208 -0.356178 12.2416 10.9989
8467 2 2.2208 -0.337941 -4.78977 -0.338516
254 1 -1.1104 6.47948 10.6707 9.34089
65 1 -1.1104 6.5589 10.7123 6.60791
232 1 -1.1104 9.57598 19.4414 9.57162
243 1 -1.1104 6.66999 7.9445 12.4328
266 1 -1.1104 12.2423 5.06926 6.64701
101 1 -1.1104 9.46776 10.7504 6.62849
265 1 -1.1104 12.3471 7.88487 6.9772
269 1 -1.1104 9.49366 5.14964 6.66086
90 1 -1.1104 12.2746 10.8429 6.66301
245 1 -1.1104 6.75375 7.88895 9.47365
248 1 -1.1104 6.53063 5.08108 12.2708
253 1 -1.1104 6.52731 5.1491 9.45149
249 1 -1.1104 6.64632 10.7968 12.3509
267 1 -1.1104 9.41562 8.03463 6.91192
264 1 -1.1104 9.31758 10.7965 9.57908
268 1 -1.1104 9.3403 5.11623 9.37145
270 1 -1.1104 9.42136 10.6405 12.3235
271 1 -1.1104 9.414 5.10539 12.257
272 2 2.2208 7.97484 9.32017 10.9176
273 1 -1.1104 9.55657 7.94309 9.57328
274 2 2.2208 7.93206 12.0336 8.18581
275 2 2.2208 8.08389 6.60718 7.99029
276 2 2.2208 10.7434 6.49675 10.9512
277 2 2.2208 10.729 12.2001 10.9653
278 1 -1.1104 12.233 7.98209 12.2315
279 1 -1.1104 12.3752 7.893 9.55177
280 1 -1.1104 12.4601 5.27736 12.2916
281 1 -1.1104 12.3574 10.7726 12.3827
282 2 2.2208 10.8826 9.465 8.23389
283 1 -1.1104 12.1684 5.12947 9.67038
284 1 -1.1104 12.2582 10.9763 9.40844
285 1 -1.1104 9.46338 7.85672 12.2563
82 1 -1.1104 12.4733 19.2763 9.50701
356 2 2.2208 10.9475 12.0406 -0.306191
126 1 -1.1104 3.85644 19.2193 6.78426
124 1 -1.1104 3.95792 13.599 6.7304
133 1 -1.1104 4.09094 16.3864 6.73461
108 1 -1.1104 0.90536 13.5354 6.60727
117 1 -1.1104 1.10377 16.33 6.7096
302 1 -1.1104 1.10246 19.0931 6.77377
286 1 -1.1104 3.52022 19.1536 12.4002
287 1 -1.1104 3.99878 13.5294 12.2632
291 1 -1.1104 1.13907 19.0454 9.49731
292 1 -1.1104 1.17702 16.3708 9.45491
293 2 2.2208 5.28353 20.5253 8.06742
294 1 -1.1104 1.23757 13.5472 9.53517
295 2 2.2208 5.36506 14.938 8.19923
298 1 -1.1104 0.919724 18.9134 12.2968
299 1 -1.1104 1.06625 13.5936 12.2373
300 2 2.2208 5.25558 17.9498 10.9167
301 1 -1.1104 4.00647 19.4228 9.71184
303 2 2.2208 2.59071 17.7485 8.04317
304 1 -1.1104 3.88105 16.5259 9.58176
305 1 -1.1104 3.86207 13.594 9.39812
307 1 -1.1104 1.04012 16.2399 12.4286
308 1 -1.1104 4.02146 16.3528 12.2897
309 2 2.2208 2.3281 20.5335 10.8137
310 2 2.2208 2.50064 14.9349 10.967
8958 2 2.2208 13.5899 20.5859 5.27375
8882 2 2.2208 -0.24744 14.9847 8.16711
135 1 -1.1104 12.3634 16.2406 9.34424
49 1 -1.1104 12.4451 19.3224 12.3745
231 1 -1.1104 9.67927 16.6628 9.42812
104 2 2.2208 11.0139 15.0283 8.0002
311 1 -1.1104 9.43113 13.6064 9.53269
163 1 -1.1104 9.59308 16.423 6.54856
81 1 -1.1104 12.4907 13.6903 9.39777
289 1 -1.1104 6.68407 16.5021 9.54458
297 1 -1.1104 6.55147 13.5506 12.3621
112 1 -1.1104 6.71056 19.2399 6.64027
306 1 -1.1104 6.81686 16.428 12.349
290 1 -1.1104 6.60462 13.553 9.42778
105 2 2.2208 10.8665 20.7443 8.25625
26 2 2.2208 11.0822 17.8651 10.9352
202 2 2.2208 8.14713 14.9895 10.9175
143 1 -1.1104 12.4677 13.6886 6.7346
154 1 -1.1104 9.49074 13.6675 6.74496
149 1 -1.1104 12.2749 16.4529 6.74603
145 1 -1.1104 12.4136 19.2816 6.64231
204 1 -1.1104 9.44469 16.3314 12.3432
27 1 -1.1104 12.326 13.6528 12.2225
118 1 -1.1104 6.86182 16.4437 6.72182
83 1 -1.1104 12.299 16.5505 12.2066
136 1 -1.1104 9.44994 13.629 12.3784
203 2 2.2208 7.99139 20.602 10.9435
165 2 2.2208 8.05716 17.8709 8.17952
9110 2 2.2208 -0.308697 9.33905 7.99923
354 2 2.2208 10.837 6.61526 -0.233855
199 2 2.2208 -0.269622 3.65337 8.11998
9181 2 2.2208 -0.336993 12.1288 5.33302
9180 2 2.2208 -0.243549 9.26715 2.51569
8979 2 2.2208 13.6157 15.1746 5.33217
8908 2 2.2208 13.5957 17.8375 2.39622
9076 2 2.2208 13.6006 6.35982 2.61096
9209 2 2.2208 13.5735 14.8997 -0.25594
341 2 2.2208 5.33455 17.6656 -0.347682
9188 2 2.2208 -0.394511 6.68558 -0.295394
324 2 2.2208 2.48654 6.32661 13.611
328 2 2.2208 10.9913 9.43571 13.6573
315 2 2.2208 -0.254417 3.49901 13.6141
331 2 2.2208 5.10962 20.7356 13.6125
334 2 2.2208 10.9429 15.0067 13.6133
340 2 2.2208 2.55101 14.9022 -0.346785
358 2 2.2208 5.40482 0.832716 16.4962
359 1 -1.1104 0.999072 -3.58031 17.9537
360 1 -1.1104 1.03436 2.17445 18.1248
363 1 -1.1104 1.07209 -3.18144 15.1643
365 1 -1.1104 1.01579 2.3876 15.2136
371 1 -1.1104 1.04199 -0.799441 18.0392
373 2 2.2208 5.29281 -1.86619 19.4621
375 1 -1.1104 1.14233 -0.356402 15.4322
379 1 -1.1104 3.7806 -3.30112 17.9469
380 1 -1.1104 3.95996 2.32888 17.9958
381 2 2.2208 2.47123 1.02049 19.4504
382 1 -1.1104 3.76851 -3.23832 15.0995
384 1 -1.1104 3.78466 2.35515 15.3391
386 2 2.2208 2.5392 -1.93982 16.6555
388 1 -1.1104 4.02963 -0.480263 18.1043
389 1 -1.1104 4.09873 -0.42442 15.072
387 2 2.2208 2.48245 3.61252 16.8012
374 2 2.2208 5.40948 3.64822 19.283
594 2 2.2208 -0.326143 -1.98306 25.233
8814 2 2.2208 8.13075 -4.55434 19.5324
313 2 2.2208 -0.389298 20.5519 13.7226
326 2 2.2208 2.43471 12.084 13.7479
369 1 -1.1104 6.65449 2.11951 14.9351
372 1 -1.1104 6.86755 -0.602991 17.8134
377 1 -1.1104 6.87046 -0.60204 15.0767
312 2 2.2208 -0.347179 -2.17487 13.8235
368 1 -1.1104 6.78219 -3.08133 20.8834
596 2 2.2208 -0.26615 3.73256 25.0535
595 2 2.2208 -0.263406 0.868783 22.1792
367 1 -1.1104 6.61731 -3.43698 15.1233
317 2 2.2208 2.37906 0.894899 13.8585
591 2 2.2208 -0.197065 6.33095 16.5517
322 2 2.2208 11.0163 -1.92741 13.7603
361 1 -1.1104 6.58715 -3.33158 18.0554
362 1 -1.1104 6.65695 2.26504 17.8386
401 2 2.2208 10.9173 0.817394 16.5754
402 1 -1.1104 12.3564 -3.40697 18.1039
403 1 -1.1104 12.354 2.27188 17.979
404 1 -1.1104 12.3094 -3.30543 15.1956
406 1 -1.1104 12.3707 2.33191 15.1385
408 1 -1.1104 12.5847 -0.499883 17.9312
409 2 2.2208 10.8581 -1.94048 19.1972
411 1 -1.1104 12.2834 -0.42115 15.1969
413 1 -1.1104 9.50772 -3.27375 17.9449
414 1 -1.1104 9.56437 2.29971 18.0127
415 2 2.2208 8.10876 0.844204 19.2335
416 1 -1.1104 9.29981 -3.15218 14.9593
418 1 -1.1104 9.5233 2.29857 15.3947
420 2 2.2208 8.24146 -1.88257 16.477
421 2 2.2208 8.14445 3.73492 16.5748
422 1 -1.1104 9.55782 -0.507196 17.8315
423 1 -1.1104 9.70849 -0.402354 15.0087
410 2 2.2208 11.0567 3.66662 19.4722
419 1 -1.1104 9.50017 2.09418 20.7238
530 1 -1.1104 9.47944 19.2697 26.5601
434 2 2.2208 5.42482 6.37129 16.5879
435 2 2.2208 5.3111 12.0895 16.6391
436 1 -1.1104 1.08728 8.04109 17.7756
438 1 -1.1104 0.957861 7.81197 14.8969
442 1 -1.1104 1.01871 5.37786 18.1028
443 1 -1.1104 1.06365 10.9117 17.7001
446 2 2.2208 5.1936 9.20404 19.3851
447 1 -1.1104 1.14147 5.11113 15.0938
449 1 -1.1104 1.05624 10.6578 14.9723
455 1 -1.1104 3.9586 7.90106 17.9234
456 2 2.2208 2.5373 6.52938 19.332
457 2 2.2208 2.47719 12.1069 19.2013
458 1 -1.1104 3.94184 8.10054 15.1486
460 2 2.2208 2.50382 9.18635 16.4924
461 1 -1.1104 3.92626 5.12036 17.9157
462 1 -1.1104 3.82838 10.6361 18.0651
463 1 -1.1104 3.98534 5.08786 15.2188
465 1 -1.1104 3.81152 10.8972 15.0826
8681 2 2.2208 -0.321132 -4.74479 22.2324
437 1 -1.1104 6.50964 7.92116 18.0683
445 1 -1.1104 6.64449 10.5962 17.9916
343 2 2.2208 -0.357189 9.24251 13.7411
466 1 -1.1104 4.0597 10.718 20.7996
459 1 -1.1104 3.94739 7.88355 20.8945
592 2 2.2208 -0.199201 9.35715 19.3388
8815 2 2.2208 10.8497 -4.71219 16.5808
453 1 -1.1104 6.51423 10.6581 15.1438
451 1 -1.1104 6.71701 4.9386 15.2047
428 2 2.2208 -0.31503 20.6614 19.5552
444 1 -1.1104 6.80975 5.03432 18.0332
440 1 -1.1104 6.88161 7.83441 15.2654
470 2 2.2208 11.0998 6.67171 16.6666
471 2 2.2208 10.8122 12.2457 16.6574
472 1 -1.1104 12.3864 8.20454 17.9155
473 1 -1.1104 12.5473 8.155 15.0915
475 1 -1.1104 12.2237 5.13515 17.9011
476 1 -1.1104 12.1628 10.7977 17.9738
477 2 2.2208 10.9365 9.34146 19.5267
478 1 -1.1104 12.4986 5.13853 15.1163
480 1 -1.1104 12.3405 11.0238 15.2704
482 1 -1.1104 9.38985 7.96397 18.0835
483 2 2.2208 8.09884 6.48194 19.3268
484 2 2.2208 7.88627 12.0321 19.334
485 1 -1.1104 9.69932 8.00594 15.0848
487 2 2.2208 8.09707 9.39718 16.5885
488 1 -1.1104 9.58233 5.25343 18.1457
489 1 -1.1104 9.40375 10.7395 18.0082
490 1 -1.1104 9.58186 5.10824 15.1771
492 1 -1.1104 9.6112 10.9672 15.0897
8473 2 2.2208 2.5065 -4.69059 13.8244
327 2 2.2208 8.22804 6.53331 13.7788
454 1 -1.1104 6.67685 10.7558 20.958
452 1 -1.1104 6.62064 5.03586 20.7289
623 2 2.2208 13.5996 -2.03717 22.1094
394 2 2.2208 -0.390969 0.950159 16.516
427 2 2.2208 -0.382787 15.0453 19.3025
9250 2 2.2208 -0.249329 20.3879 25.2326
316 2 2.2208 5.37203 -1.95753 13.7335
325 2 2.2208 5.23079 9.23338 13.7541
497 2 2.2208 5.3186 17.9174 16.3226
498 1 -1.1104 1.09159 13.6097 17.9623
499 1 -1.1104 1.07795 19.2851 18.0338
502 1 -1.1104 1.15703 13.7142 15.0636
504 1 -1.1104 1.11332 19.2859 15.2966
510 1 -1.1104 1.09246 16.4164 18.0797
512 2 2.2208 5.26416 14.916 19.2203
513 2 2.2208 5.38714 20.492 19.4146
514 1 -1.1104 0.842128 16.413 15.2225
518 1 -1.1104 3.86778 13.335 17.8046
519 1 -1.1104 3.97075 19.0082 17.8404
520 2 2.2208 2.61383 17.6061 19.4474
521 1 -1.1104 3.97694 13.4912 15.0754
523 1 -1.1104 3.83525 19.3564 15.0865
525 2 2.2208 2.50877 15.0795 16.5272
526 2 2.2208 2.44454 20.6789 16.576
527 1 -1.1104 3.91959 16.2788 17.9067
528 1 -1.1104 3.82192 16.5809 15.1084
397 2 2.2208 -0.321424 3.75933 19.4544
503 1 -1.1104 1.27275 13.3905 20.9496
515 1 -1.1104 1.1156 16.3409 20.828
522 1 -1.1104 3.93763 13.6162 20.7469
517 1 -1.1104 6.61618 16.369 20.641
332 2 2.2208 5.28037 14.9778 13.6867
501 1 -1.1104 6.74555 19.135 18.0561
511 1 -1.1104 6.69814 16.3002 17.8616
506 1 -1.1104 6.64761 13.4733 15.227
314 2 2.2208 13.6426 6.674 13.6703
516 1 -1.1104 6.60909 16.4137 15.034
508 1 -1.1104 6.8156 19.2443 15.1717
500 1 -1.1104 6.69013 13.5974 17.8798
533 2 2.2208 10.8315 17.8879 16.4418
534 1 -1.1104 12.2704 13.69 17.8768
535 1 -1.1104 12.3006 19.4728 17.7978
536 1 -1.1104 12.5359 13.6259 15.1265
538 1 -1.1104 12.3719 19.2058 14.9411
540 1 -1.1104 12.3796 16.6137 17.7396
541 2 2.2208 10.8842 15.006 19.33
542 2 2.2208 10.9519 20.6355 19.2235
543 1 -1.1104 12.2522 16.4301 15.0814
545 1 -1.1104 9.37868 13.6609 17.9357
546 1 -1.1104 9.5396 19.0509 17.9589
547 2 2.2208 8.06139 17.8237 19.3383
548 1 -1.1104 9.52402 13.6214 15.1267
550 1 -1.1104 9.47119 19.2768 15.2833
552 2 2.2208 8.13817 14.9944 16.5885
553 2 2.2208 8.01 20.6257 16.4752
554 1 -1.1104 9.71288 16.4088 17.9117
555 1 -1.1104 9.52785 16.4706 15.0566
9257 2 2.2208 -0.211771 14.7959 24.9026
335 2 2.2208 8.06746 17.8243 13.7779
507 1 -1.1104 6.61982 13.6329 20.6257
319 2 2.2208 5.28622 3.65934 13.7345
467 1 -1.1104 12.2284 16.3861 26.3072
321 2 2.2208 8.03963 0.826738 13.6837
364 1 -1.1104 1.15874 -3.23351 20.7911
385 1 -1.1104 3.92959 2.42413 20.8842
366 1 -1.1104 1.10881 2.35929 20.7473
383 1 -1.1104 3.8306 -3.19816 20.7315
390 1 -1.1104 3.89842 -0.455754 20.869
376 1 -1.1104 0.965346 -0.473598 20.8411
561 2 2.2208 5.24997 0.943903 22.1032
562 1 -1.1104 1.23837 -3.28469 23.5803
563 1 -1.1104 1.12318 2.29288 23.7019
566 1 -1.1104 1.20694 -3.40778 26.3277
567 1 -1.1104 1.15633 2.40253 26.4646
570 1 -1.1104 1.08073 -0.503364 23.7249
572 2 2.2208 5.33534 -1.93083 24.971
574 1 -1.1104 0.893987 -0.480607 26.5603
576 1 -1.1104 4.09202 -3.30789 23.6616
577 1 -1.1104 3.80687 2.30404 23.6013
578 2 2.2208 2.45864 0.861359 25.0133
579 1 -1.1104 3.96032 -3.35603 26.3457
580 1 -1.1104 3.86435 2.33716 26.4402
581 2 2.2208 2.52082 -1.82342 22.1688
582 2 2.2208 2.60384 3.76488 22.2693
583 1 -1.1104 3.92818 -0.481693 23.5682
584 1 -1.1104 3.82699 -0.590854 26.5111
573 2 2.2208 5.15903 3.81688 25.0831
378 1 -1.1104 6.62985 -0.317297 20.6177
565 1 -1.1104 6.5985 2.1661 23.4035
370 1 -1.1104 6.76194 2.30533 20.5964
569 1 -1.1104 6.56019 2.3506 26.3677
571 1 -1.1104 6.66587 -0.419476 23.4936
417 1 -1.1104 9.68648 -3.47033 20.7631
412 1 -1.1104 12.23 -0.591593 20.8497
568 1 -1.1104 6.88336 -3.51199 26.4309
407 1 -1.1104 12.2701 2.30719 20.8409
424 1 -1.1104 9.47394 -0.838385 20.7416
564 1 -1.1104 6.78924 -3.3049 23.5875
575 1 -1.1104 6.80988 -0.527201 26.3378
405 1 -1.1104 12.4409 -3.52573 20.7693
597 2 2.2208 10.7647 0.805747 22.1996
598 1 -1.1104 12.3001 -3.53681 23.487
599 1 -1.1104 12.2201 1.92389 23.5405
600 1 -1.1104 12.5935 -3.28893 26.3048
601 1 -1.1104 12.2663 2.21781 26.4279
602 1 -1.1104 12.2699 -0.73919 23.6225
603 2 2.2208 11.0055 -2.12183 24.8771
605 1 -1.1104 12.4973 -0.563665 26.4714
606 1 -1.1104 9.61335 -3.51965 23.478
607 1 -1.1104 9.4751 2.13013 23.435
608 2 2.2208 8.05903 0.953473 24.8478
609 1 -1.1104 9.73241 -3.48707 26.5048
610 1 -1.1104 9.53312 2.27773 26.2356
611 2 2.2208 8.18443 -2.0111 22.1827
612 2 2.2208 8.05952 3.61716 22.1439
613 1 -1.1104 9.36943 -0.487199 23.5338
614 1 -1.1104 9.67989 -0.580912 26.2948
604 2 2.2208 10.9291 3.55797 24.9677
539 1 -1.1104 12.5053 19.369 20.5729
439 1 -1.1104 1.05997 7.9194 20.642
448 1 -1.1104 1.11581 5.07761 20.7956
450 1 -1.1104 1.08777 10.725 20.574
464 1 -1.1104 3.88352 5.00589 20.6404
626 2 2.2208 5.46422 6.47398 22.1523
627 2 2.2208 5.49861 12.0864 22.1716
628 1 -1.1104 1.12728 8.07127 23.4934
630 1 -1.1104 1.0457 7.8596 26.3312
632 1 -1.1104 1.12556 5.16063 23.4992
633 1 -1.1104 1.06832 10.7357 23.514
636 2 2.2208 5.44359 9.24494 25.0067
637 1 -1.1104 1.05914 5.25965 26.3542
638 1 -1.1104 0.961385 10.5325 26.3113
641 1 -1.1104 4.03245 7.90878 23.438
642 2 2.2208 2.43587 6.75218 24.8615
643 2 2.2208 2.41836 12.06 24.8788
644 1 -1.1104 3.99026 7.94262 26.2758
645 2 2.2208 2.57734 9.46277 22.1486
646 1 -1.1104 3.86471 5.18851 23.6234
647 1 -1.1104 3.91359 10.6093 23.6077
648 1 -1.1104 3.91838 5.40194 26.4256
649 1 -1.1104 3.80349 10.6783 26.3286
635 1 -1.1104 6.71374 10.7455 23.6307
391 2 2.2208 -0.309392 6.53618 22.1143
9294 2 2.2208 -0.401769 9.20264 24.9205
655 2 2.2208 -0.306669 12.0579 22.1371
426 2 2.2208 -0.346976 17.8274 16.6946
330 2 2.2208 2.42676 17.7906 13.7626
432 2 2.2208 10.9568 14.9456 24.9104
639 1 -1.1104 6.64313 5.07073 26.646
441 1 -1.1104 6.81564 7.83257 20.8164
629 1 -1.1104 6.73852 7.95654 23.5363
640 1 -1.1104 6.68825 10.7507 26.4115
491 1 -1.1104 9.48375 5.07699 21.036
474 1 -1.1104 12.3686 8.07453 20.8851
481 1 -1.1104 12.3869 10.7136 20.8878
479 1 -1.1104 12.382 5.14657 20.7321
486 1 -1.1104 9.5845 7.87123 20.7121
493 1 -1.1104 9.49666 10.5332 20.8401
631 1 -1.1104 6.83805 7.85627 26.1371
634 1 -1.1104 6.83249 4.90766 23.4622
657 1 -1.1104 9.51564 10.7707 26.3976
658 1 -1.1104 9.39037 5.07964 26.4681
659 1 -1.1104 9.42814 10.8402 23.6994
660 1 -1.1104 9.49626 4.91851 23.6085
661 2 2.2208 8.2336 9.11906 22.2278
662 1 -1.1104 9.71801 7.90793 26.4521
663 2 2.2208 8.05112 12.1616 24.977
664 2 2.2208 8.23175 6.50549 24.9415
665 2 2.2208 11.0958 6.6042 22.1977
666 2 2.2208 10.8803 12.085 22.099
667 1 -1.1104 12.5607 7.99287 23.654
668 1 -1.1104 12.4268 8.01015 26.4654
669 1 -1.1104 12.3251 4.95447 23.4941
670 1 -1.1104 12.1241 10.6749 23.5358
671 2 2.2208 11.0068 9.44901 25.1563
672 1 -1.1104 12.3813 5.14719 26.3939
673 1 -1.1104 12.5263 10.7389 26.382
674 1 -1.1104 9.60966 7.96033 23.7797
8679 2 2.2208 5.45182 -4.718 22.3136
617 1 -1.1104 6.71091 16.3988 23.6126
396 2 2.2208 13.6829 9.47526 16.6727
559 2 2.2208 -0.215041 17.5752 22.2855
682 1 -1.1104 6.71955 13.553 26.3207
505 1 -1.1104 1.08842 19.2349 20.7756
524 1 -1.1104 3.96871 18.9646 20.7218
529 1 -1.1104 4.06624 16.3417 20.6687
509 1 -1.1104 6.76986 19.2179 20.7509
587 2 2.2208 2.51719 14.7142 22.1974
590 2 2.2208 2.6143 20.4673 22.2507
615 1 -1.1104 3.99123 16.1952 23.6391
616 1 -1.1104 1.17151 16.2272 23.538
619 1 -1.1104 3.88087 13.473 26.3972
622 1 -1.1104 3.99909 16.266 26.4188
650 2 2.2208 2.57487 17.6221 25.0277
651 1 -1.1104 3.82296 19.0398 26.5069
652 2 2.2208 5.30596 17.7371 22.1746
654 1 -1.1104 1.00383 13.4716 23.6695
656 1 -1.1104 1.19537 18.9565 23.7321
676 2 2.2208 5.30223 14.8957 24.9637
677 2 2.2208 5.38371 20.646 24.9688
681 1 -1.1104 3.98841 19.1889 23.7266
683 1 -1.1104 3.89065 13.3869 23.5985
685 1 -1.1104 1.06961 19.0954 26.4634
686 1 -1.1104 1.13913 16.0783 26.1873
687 1 -1.1104 0.976044 13.2485 26.4701
433 2 2.2208 10.905 20.5008 24.8951
558 1 -1.1104 9.65317 16.4715 26.16
495 1 -1.1104 6.62196 19.2238 26.351
551 1 -1.1104 9.53342 19.2996 20.6282
537 1 -1.1104 12.2577 13.5534 20.7463
675 1 -1.1104 6.77362 13.6302 23.4984
684 1 -1.1104 6.85178 16.3826 26.3893
556 1 -1.1104 9.43687 16.2761 20.6153
549 1 -1.1104 9.52812 13.3631 20.7245
469 1 -1.1104 9.53487 19.2081 23.4885
532 2 2.2208 8.06939 20.7109 22.1034
557 1 -1.1104 9.6524 16.4197 23.4359
531 2 2.2208 8.11856 15.0779 22.1215
494 2 2.2208 8.11734 17.8662 24.9542
585 1 -1.1104 12.3227 13.3773 23.5307
425 1 -1.1104 12.1688 19.188 26.4312
496 1 -1.1104 9.38835 13.6466 26.2511
431 1 -1.1104 12.3576 16.4826 23.5888
560 1 -1.1104 12.2664 19.1755 23.5238
544 1 -1.1104 12.3006 16.3865 20.8209
679 1 -1.1104 6.83325 19.1672 23.4865
586 2 2.2208 11.067 17.8841 22.1409
400 1 -1.1104 12.1719 13.2942 26.3691
468 1 -1.1104 9.51615 13.4822 23.6221
393 2 2.2208 13.583 3.62701 22.276
353 2 2.2208 10.8239 17.8061 27.688
333 2 2.2208 10.9303 20.6879 13.7134
320 2 2.2208 -0.378433 15.2484 13.9579
329 2 2.2208 8.0101 12.2641 13.8113
352 2 2.2208 8.07348 14.9965 27.6823
323 2 2.2208 10.9704 3.64753 13.9157
351 2 2.2208 5.20547 12.0461 27.684
688 2 2.2208 5.30363 23.4125 5.22681
689 2 2.2208 5.10325 28.9758 5.39791
690 1 -1.1104 1.16062 24.7917 1.10263
691 1 -1.1104 1.33226 24.8581 3.86669
692 1 -1.1104 1.04263 22.0846 1.14225
693 1 -1.1104 1.042 27.5203 1.08426
694 2 2.2208 5.25007 26.3704 2.48223
695 1 -1.1104 0.989979 22.1266 4.04
696 1 -1.1104 1.058 27.5382 3.85821
697 1 -1.1104 3.89967 24.754 1.00182
698 2 2.2208 2.47666 23.3053 2.57202
699 2 2.2208 2.44422 29.1105 2.59701
700 1 -1.1104 3.95899 24.8391 3.81377
701 2 2.2208 2.53282 26.2003 5.19159
702 1 -1.1104 4.04111 22.0512 1.36579
703 1 -1.1104 3.90285 27.6403 1.0553
704 1 -1.1104 3.84639 21.9184 4.04672
705 1 -1.1104 3.76024 27.6565 3.98459
1011 2 2.2208 5.28575 23.5004 -0.25329
1295 2 2.2208 2.32836 31.751 -0.191619
9838 2 2.2208 -0.323763 29.1866 5.49858
9680 2 2.2208 13.6706 29.2527 8.13226
1014 2 2.2208 11.0345 23.4429 -0.324533
9715 2 2.2208 -0.3867 29.0626 11.1046
1329 1 -1.1104 6.65529 47.1656 1.06689
1013 2 2.2208 5.23697 29.0811 -0.166511
712 1 -1.1104 6.75689 27.7818 1.27072
711 1 -1.1104 6.71131 22.0024 1.01158
714 1 -1.1104 6.53728 27.74 4.04721
709 1 -1.1104 6.70546 24.7922 1.2621
710 1 -1.1104 6.88919 24.9618 3.8542
713 1 -1.1104 6.63983 22.0049 3.93264
715 2 2.2208 11.085 23.357 5.29433
716 2 2.2208 10.8505 29.3167 5.35317
717 1 -1.1104 12.3982 25.0252 1.12415
718 1 -1.1104 12.4172 24.8672 4.00443
719 1 -1.1104 12.1707 22.0027 1.1159
720 1 -1.1104 12.3643 27.8434 0.996962
721 2 2.2208 11.1009 26.3205 2.48858
722 1 -1.1104 12.3481 21.9602 3.8689
723 1 -1.1104 12.4582 27.8039 3.78336
724 1 -1.1104 9.63811 24.5948 1.12078
725 2 2.2208 8.15368 23.4524 2.51003
726 2 2.2208 8.2872 29.1583 2.54641
727 1 -1.1104 9.72404 24.9727 3.69829
728 2 2.2208 8.1198 26.2885 5.15369
729 1 -1.1104 9.49573 21.8438 1.18867
730 1 -1.1104 9.59972 27.6899 1.15915
731 1 -1.1104 9.64176 21.9842 4.05691
732 1 -1.1104 9.63461 27.7359 4.07448
1531 1 -1.1104 6.71914 47.1476 9.6438
9716 2 2.2208 -0.196357 26.1621 8.18756
9622 2 2.2208 13.5411 43.2236 5.49651
834 1 -1.1104 6.53371 27.7848 6.84606
864 1 -1.1104 12.373 27.9048 6.60591
9853 2 2.2208 13.6056 40.3661 2.65952
736 2 2.2208 5.16041 34.6625 5.34454
737 1 -1.1104 1.04616 30.5846 1.30715
738 1 -1.1104 1.02465 35.9151 1.22879
740 1 -1.1104 1.1147 30.3472 3.95836
741 1 -1.1104 1.16812 36.0424 3.97598
743 1 -1.1104 1.16931 33.3429 1.32656
744 2 2.2208 5.22206 31.8274 2.54282
745 2 2.2208 5.14462 37.4415 2.55409
746 1 -1.1104 0.873225 33.2091 4.16604
748 1 -1.1104 3.92285 30.4714 1.10081
749 1 -1.1104 3.94293 36.1996 1.04434
750 2 2.2208 2.45998 34.673 2.60728
751 1 -1.1104 3.88791 30.4593 3.90157
752 1 -1.1104 3.7656 36.0652 3.97504
753 2 2.2208 2.2614 31.9171 5.43608
754 2 2.2208 2.53017 37.545 5.28685
755 1 -1.1104 3.7016 33.3206 1.07091
756 1 -1.1104 3.6826 33.1862 3.87398
747 1 -1.1104 6.43579 33.3054 3.89373
1574 1 -1.1104 9.48879 47.1532 9.73277
1018 2 2.2208 2.27676 37.6127 -0.368702
739 1 -1.1104 6.61383 36.1146 1.28296
742 1 -1.1104 6.4855 36.0063 3.95525
1019 2 2.2208 5.10247 34.7606 -0.312124
807 1 -1.1104 11.9973 44.3907 12.3457
983 1 -1.1104 9.52141 38.896 12.402
760 1 -1.1104 6.81549 30.5961 1.25834
762 1 -1.1104 6.5204 33.2478 1.04946
994 2 2.2208 2.37299 43.2278 -0.381464
761 1 -1.1104 6.56712 30.434 4.00389
763 2 2.2208 10.6386 34.7777 5.25537
764 1 -1.1104 12.3744 30.5748 1.06383
765 1 -1.1104 12.165 36.2983 0.992619
766 1 -1.1104 12.2739 30.8368 3.9245
767 1 -1.1104 12.0673 36.119 3.95774
768 1 -1.1104 12.3613 33.5132 1.04822
769 2 2.2208 10.8855 32.0247 2.56837
770 2 2.2208 10.6618 37.4092 2.48211
771 1 -1.1104 12.1953 33.5093 4.0962
772 1 -1.1104 9.65372 30.5892 1.13171
773 1 -1.1104 9.24658 36.1331 1.10532