ITEM: TIMESTEP
100000
ITEM: NUMBER OF ATOMS
18000
ITEM: BOX BOUNDS xy xz yz pp pp pp
-1.1562464903064279e-01 2.8009624649030567e+01 0.0000000000000000e+00
-1.2202838013912209e+00 3.3594828380138711e+02 0.0000000000000000e+00
-1.0692352036862479e-01 2.8000923520368637e+01 0.0000000000000000e+00
ITEM: ATOMS id type x y z
1 1 1.18847 0.257071 1.3383
2 1 3.95642 0.103462 1.27859
3 1 4.08853 0.235588 4.19058
4 1 1.28122 0.0831701 4.25438
5 1 1.3583 3.06631 1.16183
6 1 4.28919 3.08557 1.323
7 1 4.06067 2.89209 4.11991
8 1 1.28534 2.91722 4.07878
9 1 6.87387 0.343106 1.29829
10 1 9.66857 0.111927 1.34974
11 1 9.89503 0.171131 4.30952
12 1 6.98742 0.369241 4.06861
13 1 6.95024 3.1269 1.32553
14 1 9.86337 2.98967 1.24751
15 1 9.72108 3.09698 4.03723
16 1 6.89943 3.11974 4.10328
17 1 12.5502 0.254054 1.2298
18 1 12.6906 0.069424 4.0975
19 1 12.537 2.82716 1.31155
20 1 12.5678 3.15297 4.2619
21 1 1.32013 5.81863 1.27923
22 1 4.0141 5.83496 1.26327
23 1 4.17763 5.89819 4.09934
24 1 1.27851 5.76214 4.11919
25 1 1.328 8.58926 1.26888
26 1 4.14855 8.69195 1.03099
27 1 4.12351 8.50545 4.04065
28 1 1.24285 8.6137 4.06075
29 1 6.83672 5.91647 1.20019
30 1 9.51537 5.81423 1.26511
31 1 9.58756 5.86838 4.10713
32 1 6.88899 5.88536 4.13928
33 1 7.05916 8.67042 1.22687
34 1 9.83288 8.66237 1.26117
35 1 9.59661 8.63579 4.19737
36 1 6.908 8.74001 3.96492
37 1 12.3524 5.67525 1.38202
38 1 12.3293 5.92758 4.10212
39 1 12.4375 8.49953 1.33972
40 1 12.3234 8.69313 3.98768
41 1 1.35096 11.4921 1.22789
42 1 4.28775 11.4925 1.23714
43 1 4.1388 11.4634 4.20802
44 1 1.33649 11.3911 4.00825
45 1 1.43192 14.2819 1.31595
46 1 4.38995 14.3356 1.36171
47 1 4.05379 14.2011 4.20155
48 1 1.32044 14.2355 4.05176
49 1 7.07647 11.5058 1.3647
50 1 9.79784 11.5069 1.35197
51 1 9.73525 11.517 4.03284
52 1 7.01074 11.3813 4.04405
53 1 6.98926 14.3149 1.38592
54 1 9.87395 14.2909 1.41789
55 1 9.73396 14.345 4.18423
56 1 7.14273 14.2478 4.14793
57 1 12.481 11.5046 1.28799
58 1 12.5544 11.5769 4.14308
59 1 12.7331 14.3621 1.33775
60 1 12.5398 14.4122 4.1028
61 1 1.37806 17.0346 1.25361
62 1 4.24123 17.1552 1.22708
63 1 4.22794 17.2023 4.09183
64 1 1.40344 17.0857 4.00829
65 1 1.36377 19.9407 1.34158
66 1 4.13372 19.9356 1.38411
67 1 4.20217 20.0199 4.05832
68 1 1.44584 19.7961 4.05083
69 1 6.99448 17.1227 1.36247
70 1 9.80395 17.1196 1.42969
71 1 9.72272 17.0675 4.24795
72 1 7.02725 17.1842 4.22499
73 1 7.0266 19.9792 1.30238
74 1 9.77903 19.8222 1.31893
75 1 9.69254 19.9324 4.1183
76 1 7.01858 19.8184 4.28966
77 1 12.6437 17.1009 1.41078
78 1 12.457 17.2629 4.24668
79 1 12.6567 19.9683 1.38086
80 1 12.6745 19.9025 4.06245
81 1 1.23688 22.82 1.33488
82 1 4.16624 22.5939 1.36715
83 1 4.18155 22.807 4.04149
84 1 1.31108 22.6853 4.10644
85 1 6.97305 22.8852 1.22205
86 1 9.96016 22.6865 1.15648
87 1 9.81264 22.5893 4.08426
88 1 6.98785 22.5937 3.90981
89 1 12.607 22.7346 1.38919
90 1 12.4744 22.7376 4.07648
91 1 1.18733 0.308471 7.09486
92 1 4.02256 0.238971 7.06688
93 1 4.0391 0.242192 9.74343
94 1 1.24787 0.380548 9.78949
95 1 1.30103 3.13272 6.73514
96 1 4.10604 3.17503 6.92718
97 1 4.29453 3.0456 9.78193
98 1 1.48142 3.07573 9.72313
99 1 6.95265 0.22639 6.97246
100 1 9.72316 0.298678 6.97981
101 1 9.6506 0.205132 9.71108
102 1 6.90528 0.357662 9.84875
103 1 6.89168 2.99996 6.92731
104 1 9.58175 3.06396 6.83225
105 1 9.77478 3.04006 9.91374
106 1 6.94095 3.09179 9.70279
107 1 12.5993 0.564402 6.99496
108 1 12.4906 0.131065 9.73418
109 1 12.422 3.38235 7.02605
110 1 12.5012 2.92194 10.0795
111 1 1.32085 5.83202 6.89912
112 1 4.04598 5.76086 6.9105
113 1 4.07195 5.64916 9.73818
114 1 1.3646 5.8741 9.77072
115 1 1.3123 8.56661 6.89659
116 1 4.19997 8.63209 6.87104
117 1 4.18434 8.63805 9.64783
118 1 1.39223 8.66498 9.63768
119 1 6.85294 5.69473 7.06918
120 1 9.76379 5.89 6.83634
121 1 9.75816 5.80906 9.65585
122 1 6.88426 5.91252 9.90091
123 1 6.89405 8.61978 6.90105
124 1 9.74707 8.67778 6.96837
125 1 9.8219 8.58382 9.73194
126 1 7.0032 8.67326 9.80404
127 1 12.5247 6.00552 6.86511
128 1 12.5618 5.84485 9.76306
129 1 12.5517 8.83584 6.93174
130 1 12.6366 8.61637 9.80437
131 1 1.25173 11.4795 6.82698
132 1 4.15925 11.5364 7.00379
133 1 4.25202 11.4312 9.83557
134 1 1.43972 11.6145 9.6785
135 1 1.2842 14.2667 6.93462
136 1 4.20296 14.4075 6.88324
137 1 4.17857 14.2713 9.62372
138 1 1.38758 14.4365 9.73824
139 1 7.01712 11.508 6.6575
140 1 9.70664 11.5571 7.09041
141 1 9.88745 11.5079 9.79917
142 1 7.02206 11.4094 9.75064
143 1 6.94418 14.2308 6.98227
144 1 9.79435 14.3793 7.03264
145 1 9.88058 14.3798 9.82505
146 1 6.9765 14.1601 9.89627
147 1 12.617 11.5474 6.81069
148 1 12.5476 11.457 9.69695
149 1 12.5047 14.2863 6.95307
150 1 12.7095 14.2751 9.94445
151 1 1.51364 17.1058 6.96354
152 1 4.27043 17.159 6.98508
153 1 4.19371 17.0077 9.80167
154 1 1.38935 17.247 9.78407
155 1 1.49262 19.8821 6.87464
156 1 4.31422 20.0072 6.99159
157 1 4.22204 19.953 9.83181
158 1 1.54588 19.9871 9.77277
159 1 7.09526 17.0097 7.02404
160 1 9.92468 17.2942 6.88565
161 1 9.7531 17.1451 9.76407
162 1 7.11074 17.0466 9.76572
163 1 7.10295 19.9366 6.98072
164 1 9.82078 19.9974 7.0341
165 1 9.73308 19.9395 9.77602
166 1 6.97173 19.9422 9.70218
167 1 12.6388 17.1174 7.08136
168 1 12.6527 16.9677 9.69054
169 1 12.5182 19.754 6.87553
170 1 12.4984 19.9025 9.76367
171 1 1.42112 22.5699 6.86626
172 1 4.24194 22.6442 6.86025
173 1 4.19385 22.8095 9.62527
174 1 1.41856 22.7655 9.75373
175 1 6.85741 22.6218 6.67984
176 1 9.83263 22.7319 6.80242
177 1 9.65886 22.7177 9.60516
178 1 6.89583 22.5866 9.73704
179 1 12.496 22.657 6.92517
180 1 12.5961 22.6697 9.74073
181 1 1.19919 0.246033 12.6025
182 1 4.03187 0.163231 12.6129
183 1 1.451 2.92894 12.5585
184 1 4.1443 3.1272 12.5294
185 1 6.93833 0.0964009 12.6618
186 1 9.83554 0.246905 12.7543
187 1 6.93587 3.03264 12.5984
188 1 9.67501 2.87165 12.6111
189 1 12.3925 0.389786 12.4637
190 1 12.5829 3.38267 12.6446
191 1 1.39832 5.85178 12.6088
192 1 4.21599 5.93726 12.4981
193 1 1.27948 8.66713 12.4518
194 1 4.04431 8.61226 12.5357
195 1 6.98544 5.96799 12.6842
196 1 9.74745 5.89839 12.4214
197 1 6.83317 8.82296 12.6499
198 1 9.78611 8.52645 12.6008
199 1 12.7047 5.91406 12.7008
200 1 12.694 8.68803 12.5458
201 1 1.2431 11.4284 12.4122
202 1 4.15002 11.5822 12.5714
203 1 1.40535 14.4411 12.4932
204 1 4.19433 14.3683 12.5661
205 1 7.06834 11.4263 12.6261
206 1 9.83695 11.287 12.5438
207 1 6.90841 14.1478 12.5373
208 1 9.79598 14.307 12.5334
209 1 12.6958 11.4213 12.606
210 1 12.5339 14.2796 12.6908
211 1 1.51947 17.245 12.6105
212 1 4.24298 17.1889 12.4581
213 1 1.38181 20.0225 12.5573
214 1 4.22021 19.9457 12.7044
215 1 7.01046 17.0396 12.5412
216 1 9.77846 16.9531 12.6265
217 1 7.00413 19.9069 12.5343
218 1 9.8455 19.9073 12.487
219 1 12.5538 17.2434 12.5237
220 1 12.5349 20.0464 12.6009
221 1 1.44097 22.7701 12.4319
222 1 4.31673 22.6942 12.5644
223 1 7.14356 22.7202 12.4464
224 1 9.773 22.8729 12.4324
225 1 12.6884 23.0067 12.6902
12057 2 8.311 -1.20377 8.30307
12137 2 -0.190501 12.9302 13.8632
12091 2 0.116678 21.2803 5.52601
12054 2 -0.113052 1.62494 8.35734
12002 2 2.77736 1.57213 -0.00229066
12012 2 2.77855 7.13412 -0.211336
15031 2 13.9994 18.4374 -0.0595934
12008 2 5.53343 1.56477 2.735
12148 2 8.35177 21.3446 13.8829
12010 2 11.2056 1.57348 2.79605
12125 2 11.0919 21.3184 11.03
12116 2 -0.081312 15.6834 11.247
12013 2 2.71416 4.49294 2.72664
12124 2 8.40007 24.1491 11.058
12007 2 8.34211 -1.21912 2.8995
12026 2 8.53898 13.0093 0.0377319
12017 2 8.3231 4.41746 2.71574
12018 2 5.58518 7.25024 2.65873
12051 2 -0.219803 -1.28205 5.51583
12020 2 10.9473 7.19346 2.62809
12113 2 5.57705 10.1487 11.1847
12104 2 8.42103 1.44001 11.215
12023 2 2.71234 9.92445 2.74401
12053 2 2.64835 -1.05987 8.49158
12029 2 11.2026 10.0269 -0.0683209
12107 2 2.80417 7.24498 11.0012
12027 2 8.41774 10.0094 2.73669
12028 2 5.672 12.9304 2.70332
12121 2 0.0251513 21.345 11.1232
12030 2 11.2343 12.9493 2.74005
12102 2 2.83613 1.62877 11.167
12114 2 8.43529 12.8606 11.2619
12033 2 2.9117 15.6667 2.7737
12006 2 8.43815 1.66947 -0.0707154
12100 2 11.2512 24.0245 8.41569
12099 2 11.2403 21.1681 5.53526
12037 2 8.42544 15.644 2.7382
12038 2 5.66928 18.4887 2.70636
12098 2 5.55631 24.1006 8.2481
12040 2 11.1882 18.5191 2.76927
12097 2 8.32668 21.3028 8.34085
12074 2 -0.0189741 12.9308 8.43819
12043 2 2.74908 21.2498 2.79391
12123 2 5.60647 21.2445 11.2291
12096 2 8.32325 23.941 5.29655
12095 2 5.5802 21.2556 5.42143
12047 2 8.3753 21.2169 2.66186
12048 2 5.46213 24.0347 2.5681
12115 2 11.2567 10.0192 11.1915
12050 2 11.2656 24.034 2.67615
12004 2 -0.214588 1.5981 2.80714
12052 2 2.74284 1.48957 5.6187
12112 2 2.79653 12.9873 11.1579
12122 2 2.82601 24.0284 11.2355
12110 2 11.1985 4.47792 11.293
12056 2 8.41745 1.56523 5.50105
12109 2 8.35783 7.3009 11.1138
12058 2 5.49511 1.59454 8.30143
12108 2 5.65921 4.35875 11.1134
12060 2 11.0372 1.6681 8.38511
12120 2 11.2435 15.7799 11.1636
12062 2 2.68242 7.14196 5.47947
12063 2 2.74927 4.42628 8.37982
12119 2 8.39504 18.3975 11.1974
12065 2 5.48799 4.31284 5.49207
12066 2 8.33973 7.20662 5.65077
12067 2 8.29234 4.33959 8.44184
12068 2 5.49125 7.23529 8.2988
12069 2 11.1303 4.5241 5.5124
12070 2 11.1917 7.1634 8.40155
12039 2 11.268 15.8551 0.0768039
12072 2 2.64767 12.8073 5.55905
12073 2 2.79834 10.0587 8.32727
12118 2 5.53457 15.6555 11.0715
12075 2 5.63215 10.0628 5.37633
12076 2 8.49668 12.8848 5.5525
12077 2 8.42389 10.0709 8.46964
12078 2 5.60201 12.8729 8.28956
12079 2 11.1693 10.0788 5.5184
12080 2 11.3603 12.8258 8.3342
12019 2 11.1715 4.37488 -0.0680839
12082 2 2.7877 18.5039 5.56091
12083 2 2.83147 15.7103 8.42574
12117 2 2.80127 18.6187 11.2008
12085 2 5.54143 15.7105 5.60101
12086 2 8.39387 18.4815 5.62047
12087 2 8.39088 15.6955 8.4672
12088 2 5.65824 18.6027 8.29565
12089 2 11.1565 15.692 5.71958
12090 2 11.1967 18.444 8.34087
12145 2 11.2742 18.4725 13.9718
12092 2 2.83644 23.987 5.4396
12093 2 2.83113 21.2732 8.35302
12015 2 5.53995 4.45668 -0.0431369
12014 2 -0.114173 7.08942 2.74377
12034 2 0.043094 18.3998 2.61641
12044 2 -0.0625583 24.1905 2.70963
12146 2 2.66825 21.2902 13.9444
12111 2 -0.0263591 10.0456 10.9993
12139 2 5.60923 12.9386 14.0097
12149 2 5.55299 24.1008 13.9863
12071 2 -0.13181 9.96943 5.62198
12016 2 8.2768 7.21172 -0.240239
12064 2 -0.0114834 7.23794 8.43548
12024 2 -0.0595105 12.8535 2.7374
12141 2 2.71582 15.7979 13.9169
12061 2 -0.0847848 4.34052 5.56531
12081 2 -0.012978 15.7207 5.57346
12084 2 0.046362 18.4804 8.37768
12144 2 5.7485 18.5599 13.9712
12046 2 8.27135 24.1371 -0.261968
12147 2 -0.0215249 24.0986 13.9228
12009 2 11.1176 -1.12657 -0.0671798
12143 2 8.38054 15.5975 14.0064
12132 2 0.0461804 7.26638 13.943
12127 2 -0.0132244 1.43856 14.1112
12133 2 8.34946 4.37885 13.9195
12036 2 8.31641 18.5095 -0.0753118
12129 2 5.50156 1.59375 13.9411
12011 2 -0.236289 4.32237 0.111388
12126 2 2.67029 -1.1421 14.1401
226 1 4.22246 0.295835 15.3678
227 1 1.42407 0.134825 15.6005
228 1 4.18353 3.06508 15.3651
229 1 1.36377 2.7882 15.3757
230 1 9.73147 0.212223 15.4495
231 1 6.91976 0.302251 15.4541
232 1 9.71498 3.08498 15.4709
233 1 6.84801 3.06439 15.2396
234 1 12.6526 0.426724 15.2747
235 1 12.4878 3.0481 15.4738
236 1 4.24831 5.82441 15.3089
237 1 1.40425 5.86623 15.4219
238 1 4.12855 8.74615 15.4898
239 1 1.467 8.67505 15.274
240 1 9.87089 5.81184 15.3698
241 1 7.08242 5.93777 15.2682
242 1 9.83637 8.51476 15.4183
243 1 6.93682 8.72626 15.4422
244 1 12.6036 5.9522 15.4098
245 1 12.5922 8.67825 15.3365
246 1 4.16366 11.5878 15.382
247 1 1.37526 11.559 15.2096
248 1 4.13854 14.2917 15.4285
249 1 1.47331 14.3582 15.3143
250 1 9.80894 11.2749 15.271
251 1 6.97087 11.5608 15.3979
252 1 9.94972 14.0839 15.3259
253 1 7.05441 14.445 15.3944
254 1 12.6286 11.5598 15.3885
255 1 12.5854 14.1942 15.4082
256 1 4.22366 16.9643 15.304
257 1 1.40144 17.1268 15.3928
258 1 4.15931 19.9091 15.3766
259 1 1.42365 20.0019 15.3531
260 1 9.74087 17.0604 15.399
261 1 6.9715 17.1444 15.4347
262 1 9.74 19.7768 15.3632
263 1 7.07165 19.9901 15.2604
264 1 12.5267 17.1097 15.3077
265 1 12.6797 19.9854 15.3938
266 1 4.23997 22.801 15.3328
267 1 1.38671 22.773 15.292
268 1 9.59864 22.7593 15.3562
269 1 6.90017 22.6852 15.3176
270 1 12.3242 22.8141 15.4546
271 1 1.33606 0.217802 18.3147
272 1 4.15161 0.149189 18.1144
273 1 4.10246 0.427254 20.8008
274 1 1.28568 0.222927 21.0176
275 1 1.33954 3.03327 18.1622
276 1 4.14954 2.96972 18.1987
277 1 3.86148 3.40269 21.0815
278 1 1.17625 2.96839 20.8547
279 1 6.96872 0.231619 18.1689
280 1 9.66747 0.197891 18.3099
281 1 9.89335 0.181258 21.0052
282 1 7.03178 -0.00833053 20.9562
283 1 6.92427 3.06358 18.2662
284 1 9.78469 3.0707 18.1637
285 1 9.71032 2.962 20.9652
286 1 6.76212 2.87085 21.0166
287 1 12.564 0.201892 18.1254
288 1 12.5955 0.271917 21.0064
289 1 12.575 3.03122 18.3134
290 1 12.4501 3.05069 20.9675
291 1 1.44834 5.84594 18.2262
292 1 4.29617 5.90721 18.1135
293 1 4.23913 6.58714 21.1021
294 1 1.46258 5.64382 21.0333
295 1 1.45265 8.52346 18.1502
296 1 4.27698 8.87155 18.7021
297 2 4.11425 8.82541 21.1096
298 1 1.90789 8.55454 20.9615
299 1 7.17336 5.77375 18.0544
300 1 9.76611 5.95593 18.2277
301 1 9.92285 5.91543 21.049
302 1 7.12813 5.84829 20.9503
303 1 6.92071 8.73439 18.1304
304 1 9.76697 8.66384 18.2723
305 1 9.56432 8.61891 21.1906
306 1 6.27251 8.81994 21.0474
307 1 12.5998 5.85153 18.231
308 1 12.6168 5.78989 21.1778
309 1 12.4836 8.74263 18.168
310 1 12.5987 8.60042 21.0281
311 1 1.10244 11.4967 17.9418
312 1 3.99022 11.4631 18.0947
313 1 4.23571 11.0679 21.0709
314 1 1.5091 11.2106 20.9516
315 1 1.43318 14.1046 18.2667
316 1 4.20242 14.3026 18.2024
317 1 4.2736 13.9669 21.0375
318 1 1.28329 14.1434 20.7914
319 1 6.89632 11.4066 18.2324
320 1 9.74951 11.4756 17.9856
321 1 9.87867 11.4339 20.8625
322 1 7.09131 11.3481 21.1151
323 1 6.95222 14.2778 18.0778
324 1 9.79043 14.3259 18.0505
325 1 9.82561 14.1448 20.7908
326 1 7.03932 14.1151 20.9573
327 1 12.5498 11.4071 18.1205
328 1 12.6778 11.3925 21.1033
329 1 12.621 14.3169 18.2077
330 1 12.7205 14.1701 20.8572
331 1 1.3555 17.0716 18.2041
332 1 4.20945 17.2193 18.2104
333 1 4.25294 17.0407 21.0714
334 1 1.50708 16.7041 21.0624
335 1 1.38274 19.8289 18.1143
336 1 4.26465 19.92 17.9988
337 1 4.20587 19.8779 20.891
338 1 1.39298 19.6732 21.0227
339 1 6.84022 17.0904 18.2802
340 1 9.65179 17.0259 18.1462
341 1 9.48699 17.2942 20.7484
342 1 6.95777 17.1238 21.202
343 1 7.02556 19.871 18.1873
344 1 9.72035 19.9074 18.16
345 1 9.66391 19.985 21.0458
346 1 6.85167 19.8798 20.9448
347 1 12.5187 17.1668 17.9948
348 1 12.8191 17.3806 20.8596
349 1 12.5373 19.8743 18.1041
350 1 12.6452 19.9664 21.0733
351 1 1.44735 22.7503 18.054
352 1 4.19322 22.8804 18.1917
353 1 4.09284 22.6067 20.987
354 1 1.2979 22.5592 20.9235
355 1 7.09435 22.762 18.0577
356 1 9.86735 22.724 18.1134
357 1 9.72794 22.7549 21.0524
358 1 6.99115 22.8013 20.9407
359 1 12.6364 22.8028 18.263
360 1 12.5088 22.7259 21.1348
361 1 1.4322 0.274332 23.9058
362 1 4.087 0.181752 23.5913
363 1 4.0568 0.175129 26.3598
364 1 1.17966 0.170064 26.6776
365 1 1.21682 2.87384 23.8949
366 1 4.20802 3.1342 23.8642
367 1 4.20357 2.90738 26.7903
368 1 1.38126 2.91024 26.6419
369 1 6.90135 0.319262 23.8381
370 1 9.70282 0.149815 23.7498
371 1 9.67846 0.272849 26.7295
372 1 6.83268 0.217085 26.7339
373 1 6.99679 3.07199 23.7311
374 1 9.64576 2.74683 23.7375
375 1 9.7365 2.9071 26.4802
376 1 7.04884 3.0081 26.57
377 1 12.5 0.23508 23.7038
378 1 12.5795 0.186783 26.5254
379 1 12.5136 3.01918 23.8555
380 1 12.5208 3.04511 26.5204
381 1 1.16961 5.60531 23.8641
382 1 4.1463 5.77441 23.8378
383 1 4.1041 5.74375 26.5792
384 1 1.22035 5.78374 26.7329
385 1 1.40505 8.50708 23.8746
386 1 4.19254 8.69165 23.3488
387 1 4.09016 8.62519 26.3508
388 1 1.21124 8.72106 26.5505
389 1 7.01958 5.88166 23.7901
390 1 9.79505 5.56005 23.7558
391 1 9.78947 5.70871 26.586
392 1 6.94311 5.88056 26.5039
393 1 7.06814 8.60897 23.7284
394 1 9.84103 8.54979 23.829
395 1 9.81662 8.48925 26.5709
396 1 6.93929 8.8254 26.4978
397 1 12.6994 5.74525 23.9123
398 1 12.6646 5.80529 26.6561
399 1 12.7349 8.49746 23.7083
400 1 12.6252 8.57132 26.5991
401 1 1.40924 11.5369 23.8512
402 1 4.42712 11.4504 23.9109
403 1 4.31531 11.4332 26.6824
404 1 1.19404 11.381 26.7441
405 1 1.35957 14.1861 23.8234
406 1 4.07399 14.0729 23.9431
407 1 4.11288 14.1804 26.6946
408 1 1.33556 14.2931 26.6839
409 1 7.33261 11.5983 23.9698
410 1 9.88384 11.2855 23.7044
411 1 9.82082 11.5798 26.6889
412 1 7.03376 11.4645 26.7379
413 1 6.93075 14.2942 23.8193
414 1 9.54683 14.0413 24.052
415 1 10.0766 14.266 26.8811
416 1 6.98783 14.3563 26.6338
417 1 12.727 11.1966 23.9998
418 1 12.5049 11.323 26.6795
419 1 12.8828 13.8742 24.0649
420 1 12.6792 14.2471 26.7248
421 1 1.39005 16.9451 23.8876
422 1 4.18732 17.0843 23.8022
423 1 4.18405 16.9663 26.621
424 1 1.49449 17.1536 26.6284
425 1 1.44112 19.8174 23.7864
426 1 4.2642 19.9277 23.8784
427 1 4.2108 19.7995 26.6929
428 1 1.2604 19.9273 26.5586
429 1 7.03172 16.8942 23.8353
430 1 9.7751 20.0019 23.9016
431 1 9.76591 17.1575 26.8044
432 1 7.02886 17.1643 26.6495
433 1 6.86211 19.8073 23.7216
434 1 12.6682 22.7084 23.7834
435 1 9.90194 20.0618 26.6777
436 1 7.06145 19.8825 26.6743
437 1 12.7611 17.2171 23.9854
438 1 12.5103 17.1268 26.6348
12216 2 8.45917 7.02373 22.4529
440 1 12.7168 20.0304 26.6264
441 1 1.34764 22.5922 23.7078
442 1 4.08351 22.6946 23.6919
443 1 4.06061 22.7136 26.5645
444 1 1.3218 22.7267 26.5846
445 1 6.94568 22.6887 23.9644
446 1 9.9878 22.9137 23.7346
447 1 9.7828 22.9087 26.4345
448 1 6.94343 22.6162 26.6369
12134 2 5.594 7.26886 13.8633
450 1 12.6998 22.7348 26.8279
12191 2 -0.0650471 21.2019 16.6828
12250 2 11.2759 24.0533 25.1349
12153 2 2.69996 -1.1972 19.657
439 1 12.6099 19.9355 23.762
12215 2 5.57259 4.28325 22.4831
12227 2 8.64322 9.94661 25.27
12249 2 11.2013 21.2526 22.2726
12226 2 8.60949 13.0592 22.3296
12225 2 6.05383 10.3698 22.7899
12155 2 5.57656 -1.24201 16.8137
12223 2 2.76256 10.0743 25.4255
12248 2 5.39967 24.0266 25.1973
12222 2 2.85244 12.8195 22.4266
12228 2 5.73235 12.9355 25.3821
12157 2 8.36701 -1.24721 19.6485
12220 2 11.2473 7.09675 25.1852
12247 2 8.38838 21.3705 25.1051
12209 2 11.2075 -1.15481 22.4201
12205 2 5.44161 -1.17513 22.4176
15131 2 14.13 4.38252 14.0115
12219 2 11.1731 4.28235 22.3485
12246 2 8.38889 23.9793 22.3834
12135 2 11.1713 7.16952 13.9676
12218 2 5.66089 7.16738 25.1381
15241 2 14.0789 24.1494 22.377
12245 2 5.59147 21.2085 22.3878
12152 2 2.84069 1.56673 16.8475
12032 2 2.86873 18.4331 28.1058
12243 2 2.73467 21.2375 25.2161
12221 2 0.125207 10.0794 22.3422
12156 2 8.3693 1.49826 16.7352
12207 2 8.30588 -1.1873 25.2294
12158 2 5.64203 1.54881 19.4381
12213 2 2.78565 4.3259 25.3721
12160 2 11.1627 1.60685 19.5507
12242 2 2.78393 24.0457 22.3625
12162 2 2.85072 7.17634 16.5879
12163 2 2.70024 4.308 19.466
12240 2 11.1334 18.6787 25.1701
12165 2 5.65331 4.47495 16.7359
12166 2 8.50026 7.25585 16.6553
12167 2 8.50884 4.33082 19.5678
12168 2 5.94686 7.10294 19.3292
12169 2 11.2441 4.43501 16.7962
12170 2 11.2866 7.27908 19.5479
12239 1 9.57702 17.3946 24.0511
12172 2 2.73427 13.0258 16.6545
12173 2 2.3827 10.315 19.0339
12238 2 5.65323 18.475 25.2449
12175 2 5.55538 10.1638 16.6661
12176 2 8.32356 12.9486 16.8096
12177 2 8.42438 10.1019 19.5044
12178 2 5.59118 12.8145 19.6071
12179 2 11.1889 10.0795 16.6392
12180 2 11.265 12.8246 19.5653
12237 2 8.53043 15.7645 25.1897
12182 2 2.79708 18.4258 16.7925
12183 2 2.72257 15.6607 19.5719
12236 2 8.37722 18.4578 22.3807
12185 2 5.44877 15.6905 16.8464
12186 2 8.49424 18.4463 16.8
12187 2 8.46733 15.6328 19.6125
12188 2 5.6753 18.405 19.647
12189 2 11.2028 15.5915 16.7936
12190 2 11.2317 18.5026 19.6744
12235 2 5.65544 15.5873 22.5111
12192 2 2.74964 24.0761 16.7323
12193 2 2.85604 21.2503 19.5548
12212 2 2.43179 6.86676 22.6158
12195 2 5.59057 21.3043 16.6414
12196 2 8.38054 24.1582 16.6822
12197 2 8.34405 21.252 19.5181
12198 2 5.59304 24.1448 19.5699
12199 2 11.1207 21.2019 16.7938
12200 2 11.0881 24.1362 19.6092
12233 2 2.78979 15.7001 25.3452
12202 2 2.64026 1.60861 22.3447
12230 2 11.3031 12.941 25.2263
12232 2 2.85663 18.2765 22.4164
12210 2 11.076 1.49439 25.2753
12206 2 8.30794 1.49515 22.3938
12229 2 11.3042 9.81834 22.4286
12208 2 5.4942 1.67761 25.2175
12217 2 8.35911 4.29534 25.2306
15211 2 14.0486 7.15084 22.3704
12241 2 0.0899314 21.2471 22.4162
12204 2 -0.0884222 1.67276 25.2411
12151 2 -0.13685 -1.36468 16.8825
15222 2 14.0982 9.91086 25.2497
12224 2 -0.0684219 12.7482 25.1814
12154 2 -0.148853 1.53119 19.6492
12231 2 -0.0341966 15.5106 22.4291
12041 2 -0.0549219 21.305 27.9711
12130 2 11.1112 1.72866 13.9388
12244 2 -0.193775 24.0894 25.1154
12161 2 -0.11538 4.33357 16.7467
15151 2 14.0668 1.56822 16.7599
15231 2 14.1271 18.4056 22.4316
12021 2 0.0117105 9.99313 28.1116
12045 2 5.57365 21.3005 27.9744
12042 2 2.65828 23.9955 27.9571
12031 2 0.0246153 15.7157 28.119
12025 2 5.73604 10.2618 28.0268
12035 2 5.71481 15.7336 27.9734
12049 2 11.177 21.3137 28.012
12150 2 11.124 24.1706 14.0041
12131 2 2.70714 4.30375 13.923
12136 2 2.63228 10.1104 13.8185
12022 2 2.79957 12.8446 28.1537
12140 2 11.161 12.6793 13.9518
12128 2 8.31967 -1.15185 14.1134
12138 2 8.36175 10.0358 13.8885
451 1 1.36044 25.6252 1.49127
452 1 3.99955 25.4786 1.13427
453 1 4.27079 25.5693 4.09104
454 1 1.57164 25.5901 4.17361
455 1 6.82126 25.5426 1.26398
456 1 9.783 25.4137 1.28551
457 1 9.75679 25.5096 4.14502
458 1 7.00333 25.5069 4.22318
459 1 12.6803 25.5935 1.31285
460 1 12.6501 25.4913 4.07719
461 1 1.27192 28.5934 1.0751
462 1 4.12127 28.4994 1.29772
463 1 4.19323 28.4102 4.03509
464 1 1.46486 28.3706 3.98925
465 1 1.49058 31.2126 1.22361
466 1 4.22275 31.1149 1.26512
467 1 4.19791 31.1408 3.98768
468 1 1.39311 31.0735 4.19817
469 1 6.96204 28.2978 1.25452
470 1 9.87372 28.2143 1.04839
471 1 9.78129 28.2627 4.17954
472 1 7.10314 28.3339 4.00566
473 1 7.03755 31.148 1.24313
474 1 9.59977 30.9595 1.25303
475 1 9.70352 31.2696 4.25707
476 1 6.9439 31.3374 4.03727
477 1 12.5163 28.6267 1.37442
478 1 12.6254 28.3257 4.07761
12286 2 8.35663 46.5082 0.272176
480 1 12.2451 31.3369 1.33941
481 1 1.37282 34.0242 1.21195
482 1 4.1741 34.0029 1.18579
483 1 4.09748 34.0931 3.93266
484 1 1.37654 36.8175 1.33432
912 1 7.05707 50.8239 4.33444
486 1 4.28463 36.8477 1.33131
487 1 4.14369 36.7262 4.18216
1002 1 4.15843 50.8382 7.10712
489 1 6.97126 33.9428 1.31216
490 1 9.62362 33.6787 0.914445
491 1 9.80869 33.9379 4.05422
492 1 6.97179 33.9997 4.18638
493 1 7.09968 36.7683 1.19479
494 1 9.74773 36.5238 1.25785
495 1 9.63995 36.7142 4.04726
496 1 6.89148 36.7873 4.10793
497 1 12.5514 34.0898 1.60895
498 1 12.6002 33.9381 4.27177
499 1 12.6318 36.8967 1.45719
500 1 12.6345 36.7517 4.16034
501 1 1.45113 39.6586 1.27661
502 1 4.29568 39.6099 1.4296
503 1 4.18387 39.6056 4.11544
504 1 1.43037 39.5658 4.10253
505 1 1.21953 42.3886 1.4383
506 1 4.09436 42.3787 1.39229
507 1 4.1709 42.3318 4.11386
508 1 1.46038 42.2208 4.10931
509 1 6.97981 39.6982 1.33636
902 1 4.344 50.7428 1.29925
511 1 9.94831 39.2598 1.3801
512 1 6.81131 39.4975 4.06031
513 1 6.87754 42.4596 1.55346
514 1 9.87856 42.167 1.55034
515 1 9.84392 42.3227 4.17099
516 1 7.07638 42.4959 4.42996
517 1 12.6675 39.5109 1.48973
518 1 12.5599 39.6075 4.20734
519 1 12.5808 42.4729 1.59467
520 1 12.5104 42.4154 4.30335
521 1 1.44229 45.0909 1.46695
522 1 4.17799 45.153 1.59242
523 1 4.1872 45.1357 4.25961
524 1 1.422 45.1345 4.04691
525 1 1.61753 47.9403 1.38492
526 1 4.37837 47.956 1.49567
527 1 4.20681 47.9595 4.33142
528 1 1.6057 47.9481 4.13442
529 1 7.01912 45.2113 1.52992
530 1 9.88036 45.1335 1.69797
531 1 9.72133 45.0999 4.32464
532 1 6.86335 45.2926 4.19634
533 1 7.07871 47.9709 1.60103
534 1 9.91238 48.0431 1.51188
535 1 9.87558 47.8925 4.36416
536 1 7.09593 47.886 4.32814
537 1 12.7221 45.1355 1.37456
538 1 12.4806 45.1849 4.45275
539 1 12.5761 47.8844 1.63639
540 1 12.6782 47.9444 4.39894
541 1 1.34675 25.3991 6.81504
542 1 4.25102 25.5763 7.04392
543 1 4.14389 25.4877 9.86706
544 1 1.41914 25.4959 9.75451
545 1 7.1416 25.4436 6.88184
546 1 9.8642 25.4471 7.03488
547 1 9.90821 25.4883 9.72536
548 1 7.03053 25.4586 9.63778
549 1 12.5873 25.6251 6.98691
550 1 12.7036 25.4481 9.73294
551 1 1.726 28.2632 6.98554
552 1 4.34431 28.4166 6.98587
553 1 4.19707 28.293 9.74121
554 1 1.30221 28.3346 9.74766
555 1 1.31707 33.9447 4.0429
556 1 4.13982 31.1261 6.86535
557 1 4.20823 31.1125 9.86587
558 1 1.30755 31.14 9.73775
559 1 7.03007 28.1957 6.88127
560 1 9.83615 28.323 6.94253
561 1 9.71929 28.4421 9.75603
562 1 7.02071 28.2611 9.7049
563 1 6.9056 30.9881 6.90222
564 1 9.71043 31.0757 6.94309
565 1 9.90078 31.2199 9.9579
566 1 6.99919 31.1186 9.68845
567 1 12.7251 28.4696 6.90625
568 1 12.62 28.3375 9.84538
569 1 12.4806 31.2767 6.97492
570 1 12.6344 31.0656 9.85994
571 1 1.29408 33.8203 6.89971
572 1 3.9311 33.9534 6.88366
573 1 4.2818 33.8048 9.8112
574 1 1.26377 33.9669 9.73946
575 1 1.21272 36.6614 6.84787
576 1 4.06929 36.8063 6.93105
577 1 3.94264 36.8063 9.87358
578 1 1.22061 36.8086 9.67272
579 1 6.91295 33.8339 6.97139
580 1 9.85565 33.8601 7.03961
581 1 9.70972 34.0165 9.8261
582 1 7.02964 33.772 9.67488
583 1 6.78734 36.3782 6.85831
584 1 10.3229 36.3629 6.55092
585 1 10.0112 36.6798 9.83456
586 1 6.66325 36.4863 10.0539
587 1 12.5886 34.0259 7.14638
588 1 12.5452 33.8266 9.77802
589 1 12.7715 37.026 6.93495
590 1 12.6305 36.7331 9.87536
591 1 1.27389 39.6204 7.0416
592 1 4.07663 39.4326 6.8176
593 1 4.19123 39.548 9.82311
594 1 1.28248 39.5016 9.82899
595 1 1.37766 42.2207 7.00337
596 1 4.29323 42.4914 7.04378
597 1 4.10904 42.4411 9.97381
598 1 1.39507 42.4022 9.77368
599 1 6.78382 39.6143 6.93311
600 1 9.79328 39.5737 4.12785
601 1 10.053 39.7943 9.92656
602 1 6.82476 39.7545 9.96872
603 1 7.0237 42.2498 7.13511
604 1 9.78886 42.4031 6.91491
605 1 9.96522 42.4913 9.68992
606 1 7.01557 42.3766 9.70891
607 1 12.7087 39.7516 7.12549
608 1 12.6729 39.4164 9.92279
609 1 12.6626 42.4519 7.0426
610 1 12.759 42.4241 9.89491
611 1 1.52318 45.1639 7.03468
612 1 4.24614 45.2711 7.21424
613 1 4.19019 45.2984 9.99545
614 1 1.36403 45.2052 9.77892
615 1 1.44585 47.9822 6.83358
616 1 4.10496 47.9653 6.98701
617 1 4.26567 48.0438 9.9359
618 1 1.31648 48.0222 9.80847
619 1 7.102 45.179 7.01784
620 1 9.91128 45.2681 7.11944
621 1 9.74092 45.3061 9.9288
622 1 6.91713 45.1421 9.86281
623 1 6.84449 47.9872 7.13143
624 1 9.66962 47.972 6.87232
625 1 9.77833 48.1314 9.73513
626 1 7.10224 47.9657 9.77414
627 1 12.5091 45.1168 7.31901
628 1 12.6099 45.2157 9.95207
629 1 12.5186 48.0115 6.99058
630 1 12.6697 48.0442 9.86583
631 1 1.25614 25.5071 12.4859
632 1 4.14027 25.5554 12.4952
633 1 7.11043 25.5584 12.4535
634 1 9.80041 25.6674 12.4582
635 1 12.7892 25.7167 12.4482
636 1 1.19223 28.2362 12.501
637 1 4.06933 28.2967 12.5596
638 1 1.22547 31.0936 12.5689
639 1 4.13098 31 12.6525
640 1 6.99178 28.4021 12.557
641 1 9.77956 28.5239 12.564
642 1 6.87107 31.2414 12.4015
643 1 9.6498 31.2707 12.4781
644 1 12.596 28.3927 12.5803
645 1 12.5485 31.2389 12.6226
646 1 1.49027 33.9425 12.5676
647 1 4.20987 33.8863 12.4857
648 1 1.47663 36.8218 12.5208
649 1 4.22753 36.7209 12.7322
650 1 7.01509 34.0682 12.5004
651 1 9.73677 33.9865 12.5705
652 1 7.01749 36.9175 12.7744
653 1 9.8165 37.0601 12.7034
654 1 12.7064 34.0335 12.748
655 1 12.6557 36.6234 12.5193
656 1 1.26343 39.5553 12.6478
657 1 4.22637 39.4395 12.6877
658 1 1.26051 42.3027 12.6758
659 1 4.19411 42.3593 12.5377
660 1 7.05687 39.6732 12.8078
661 1 9.82447 39.7215 12.7141
662 1 6.94898 42.5231 12.724
663 1 9.73438 42.5448 12.4033
664 1 12.6622 39.5371 12.5952
665 1 12.5193 42.4969 12.7907
666 1 1.39428 45.0618 12.6138
667 1 4.20912 45.2023 12.6514
668 1 1.29898 48.0907 12.7099
669 1 4.1818 48.0009 12.5817
670 1 7.08109 45.2149 12.6004
671 1 9.91337 45.3231 12.7722
672 1 7.01098 47.88 12.591
673 1 9.7286 47.9757 12.6734
674 1 12.7652 45.1673 12.7188
675 1 12.5354 47.9358 12.5961
12363 2 11.1817 49.2829 11.1492
12309 2 -0.126673 35.133 8.35207
12253 2 2.84198 26.9979 2.64557
12362 2 5.71431 49.3371 11.1928
12372 2 5.61839 35.3108 14.0527
488 1 1.29045 36.8207 4.19382
12257 2 8.35175 26.8714 2.75094
12258 2 5.56812 29.8354 2.7093
15306 2 13.9564 35.4792 5.64789
12260 2 11.1458 29.8822 3.14463
485 2 0.0199545 35.2989 2.58031
12349 2 8.46816 35.4435 11.1698
12263 2 2.78821 32.5541 2.63007
12360 2 11.2577 43.7958 11.2633
12348 2 5.56523 32.5399 11.1427
12347 2 2.82234 35.3121 11.1743
12267 2 8.27775 32.6098 2.59506
12268 2 5.60313 35.4462 2.76141
12361 2 -0.0540161 49.3096 11.2593
12270 2 11.089 35.3138 2.91873
12359 2 8.37742 46.5715 11.2986
12345 2 11.1359 26.9073 11.1612
12273 2 2.80794 38.1267 2.76056
12358 2 5.68795 43.6917 11.2399
12344 2 8.42539 29.8009 11.0885
12343 2 5.61327 26.9272 11.0723
12277 2 8.36358 38.1018 2.66103
12278 2 5.49112 40.9415 2.86403
12275 2 5.58699 38.1648 -0.0884561
12280 2 11.1679 40.9306 2.94365
12342 2 2.60639 29.6998 11.0846
12346 2 -0.146777 32.4731 11.1098
12283 2 2.81396 43.7364 2.84827
12350 2 11.1102 32.6418 11.265
12369 2 2.8156 32.5396 13.8619
6571 1 12.7191 31.0293 4.15757
12287 2 8.3511 43.6752 2.90412
12288 2 5.56706 46.5512 2.91253
12272 2 2.81713 40.8433 0.0816695
12290 2 11.2052 46.526 3.03415
12340 2 11.269 49.3642 5.71242
12292 2 2.93193 49.3708 2.76118
12352 2 2.85716 40.9186 11.2077
12294 2 8.54723 49.3429 2.94109
12293 2 5.77193 49.1755 0.0385415
12357 2 2.82013 46.6048 11.2271
12297 2 2.88417 29.7305 5.52307
12298 2 2.83224 26.8368 8.46248
12299 1 1.41046 31.0502 6.94499
12300 2 5.60773 26.9082 5.57338
12301 2 8.2487 29.6596 5.61452
12302 2 8.39637 26.843 8.32623
12303 2 5.55102 29.7401 8.38866
12304 2 11.1529 26.7939 5.56078
12305 2 11.2458 29.7527 8.40167
12266 2 8.32354 35.3586 -0.19275
12307 2 2.6005 35.3313 5.5146
12308 2 2.82587 32.2968 8.42932
12355 2 11.1818 38.1967 11.2036
12310 2 5.51872 32.6097 5.56481
12311 2 8.39458 35.2626 5.62211
12312 2 8.46819 32.479 8.39389
12313 2 5.60505 35.3434 8.40408
12314 2 11.1664 32.5884 5.6638
12315 2 11.1793 35.3751 8.39963
12354 2 8.51684 40.8898 11.148
12317 2 2.83741 40.8289 5.59173
12318 2 2.75768 38.1234 8.33474