LAMMPS (29 Oct 2020)
OMP_NUM_THREADS environment is not set. Defaulting to 1 thread. (../comm.cpp:94)
  using 1 OpenMP thread(s) per MPI task
#---------------------------------------
#
# This script is used to calculate the thermal conuctivity of UO2 using Muller-Plathe method
# By Ziqiang Wang on 03/18/2022 on Jilin university
#
#---------------------------------------

variable     Nevery    equal   25
variable     T         equal   600

clear
OMP_NUM_THREADS environment is not set. Defaulting to 1 thread. (../comm.cpp:94)
  using 1 OpenMP thread(s) per MPI task
units          metal
boundary       p p p
atom_style     full

read_data vac_0.02_relaxed.dat
Reading data file ...
  orthogonal box = (-0.35522144 -4.2685639 -0.35644664) to (27.695221 332.34856 27.696447)
  2 by 13 by 2 MPI processor grid
  reading atoms ...
  17640 atoms
  reading velocities ...
  17640 velocities
Finding 1-2 1-3 1-4 neighbors ...
  special bond factors lj:    0.0      0.0      0.0     
  special bond factors coul:  0.0      0.0      0.0     
     0 = max # of 1-2 neighbors
     0 = max # of 1-3 neighbors
     0 = max # of 1-4 neighbors
     1 = max # of special neighbors
  special bonds CPU = 0.004 seconds
  read_data CPU = 0.059 seconds

set           type     1    charge     -1.1104
Setting atom values ...
  11760 settings made for charge
set           type     2    charge      2.2208
Setting atom values ...
  5880 settings made for charge

kspace_style    pppm   1.0e-05
pair_style      hybrid/overlay  coul/long  11.0  eam/alloy
pair_coeff      * * coul/long
pair_coeff      * * eam/alloy CeThUNpPuAmCmO.eam.alloy O Th
newton          on
neighbor        0.3 bin
neigh_modify    delay 0 check yes every 1

#The first equilation
velocity        all create $T 10002 mom yes rot yes dist gaussian
velocity        all create 600 10002 mom yes rot yes dist gaussian
fix             nvt  all  nvt  temp  $T $T  0.1
fix             nvt  all  nvt  temp  600 $T  0.1
fix             nvt  all  nvt  temp  600 600  0.1

run             100000
PPPM initialization ...
  using 12-bit tables for long-range coulomb (../kspace.cpp:328)
  G vector (1/distance) = 0.29883141
  grid = 40 240 40
  stencil order = 5
  estimated absolute RMS force accuracy = 0.00015606446
  estimated relative force accuracy = 1.0838077e-05
  using single precision MKL FFT
  3d grid and FFT values/proc = 15000 7600
Neighbor list info ...
  update every 1 steps, delay 0 steps, check yes
  max neighbors/atom: 2000, page size: 100000
  master list distance cutoff = 11.3
  ghost atom cutoff = 11.3
  binsize = 5.65, bins = 5 60 5
  2 neighbor lists, perpetual/occasional/extra = 2 0 0
  (1) pair coul/long, perpetual
      attributes: half, newton on
      pair build: half/bin/newton
      stencil: half/bin/3d/newton
      bin: standard
  (2) pair eam/alloy, perpetual, copy from (1)
      attributes: half, newton on
      pair build: copy
      stencil: none
      bin: none
Per MPI rank memory allocation (min/avg/max) = 8.152 | 8.179 | 8.200 Mbytes
Step Temp E_pair E_mol TotEng Press 
       0          600   -230450.93            0   -229082.92    544.64604 
  100000     601.5906   -230459.87            0   -229088.23    506.34768 
Loop time of 642.75 on 52 procs for 100000 steps with 17640 atoms

Performance: 13.442 ns/day, 1.785 hours/ns, 155.581 timesteps/s
99.8% CPU use with 52 MPI tasks x 1 OpenMP threads

MPI task timing breakdown:
Section |  min time  |  avg time  |  max time  |%varavg| %total
---------------------------------------------------------------
Pair    | 424.29     | 441.36     | 461.52     |  41.3 | 68.67
Bond    | 0.0060287  | 0.0098094  | 0.014093   |   1.8 |  0.00
Kspace  | 125.78     | 147.82     | 165.11     |  72.1 | 23.00
Neigh   | 30.552     | 34.152     | 37.375     |  26.0 |  5.31
Comm    | 13.88      | 14.895     | 17.793     |  28.2 |  2.32
Output  | 5.8185e-05 | 6.3165e-05 | 0.00027346 |   0.0 |  0.00
Modify  | 1.7001     | 3.2675     | 5.4949     |  71.6 |  0.51
Other   |            | 1.244      |            |       |  0.19

Nlocal:        339.231 ave         373 max         319 min
Histogram: 1 5 12 12 16 2 0 3 0 1
Nghost:        4100.83 ave        4280 max        3975 min
Histogram: 10 2 6 8 6 8 5 3 0 4
Neighs:        67461.7 ave       74802 max       59439 min
Histogram: 1 3 3 3 11 16 10 1 3 1

Total # of neighbors = 3508007
Ave neighs/atom = 198.86661
Ave special neighs/atom = 0.0000000
Neighbor list builds = 16214
Dangerous builds = 0
unfix           nvt
reset_timestep  0

# the second run
fix             1 all nve

group           oxygen type 1
11760 atoms in group oxygen
fix             2 oxygen thermal/conductivity ${Nevery} y 20
fix             2 oxygen thermal/conductivity 25 y 20

compute         ke all ke/atom
variable        temp atom c_ke/1.5
compute         layers all chunk/atom bin/1d y lower 0.05 units reduced
fix             3      all ave/chunk  2000 50 100000 layers v_temp file profile_${T}K.mp
fix             3      all ave/chunk  2000 50 100000 layers v_temp file profile_600K.mp

variable        Tdiff    equal     f_3[11][3]-f_3[1][3]
variable        deltaT   equal     v_Tdiff*1.5/0.0001292

timestep        0.001
thermo_style    custom step f_2 temp v_Tdiff v_deltaT
thermo          100000

run             1000000
PPPM initialization ...
  using 12-bit tables for long-range coulomb (../kspace.cpp:328)
  G vector (1/distance) = 0.29883141
  grid = 40 240 40
  stencil order = 5
  estimated absolute RMS force accuracy = 0.00015606446
  estimated relative force accuracy = 1.0838077e-05
  using single precision MKL FFT
  3d grid and FFT values/proc = 15000 7600
Per MPI rank memory allocation (min/avg/max) = 8.402 | 8.429 | 8.451 Mbytes
Step f_2 Temp v_Tdiff v_deltaT 
       0            0     601.5906            0            0 
  100000    1178.2137    599.60723  0.030806671    357.66259 
  200000    2298.5624     599.3741   0.03388574    393.41029 
  300000    3417.9564    605.55263  0.034465562    400.14198 
  400000    4544.3421    599.71817  0.034945157    405.71002 
  500000    5676.0901    599.70978  0.034738971    403.31623 
  600000    6799.1083    604.12103  0.034804775    404.08021 
  700000    7922.3708    599.84451  0.034633557    402.09237 
  800000    9046.5385    602.35284  0.034912616    405.33223 
  900000    10171.755    600.53053  0.034462872    400.11075 
 1000000    11296.573    601.09149  0.034809869    404.13934 
Loop time of 6398.72 on 52 procs for 1000000 steps with 17640 atoms

Performance: 13.503 ns/day, 1.777 hours/ns, 156.281 timesteps/s
99.9% CPU use with 52 MPI tasks x 1 OpenMP threads

MPI task timing breakdown:
Section |  min time  |  avg time  |  max time  |%varavg| %total
---------------------------------------------------------------
Pair    | 4188.7     | 4366.2     | 4573       | 131.6 | 68.24
Bond    | 0.068124   | 0.099334   | 0.13553    |   5.4 |  0.00
Kspace  | 1258.3     | 1486.7     | 1669.6     | 232.6 | 23.23
Neigh   | 320.79     | 359.57     | 394.35     |  88.0 |  5.62
Comm    | 139.17     | 150.05     | 181.25     |  87.6 |  2.34
Output  | 0.001067   | 0.0011395  | 0.0023672  |   0.5 |  0.00
Modify  | 5.8526     | 6.5329     | 7.5058     |  17.8 |  0.10
Other   |            | 29.61      |            |       |  0.46

Nlocal:        339.231 ave         369 max         309 min
Histogram: 1 1 6 8 8 11 8 5 3 1
Nghost:        4105.94 ave        4250 max        3961 min
Histogram: 4 1 4 10 9 6 4 8 2 4
Neighs:        67473.1 ave       73835 max       57602 min
Histogram: 2 2 2 3 4 5 13 12 6 3

Total # of neighbors = 3508603
Ave neighs/atom = 198.90040
Ave special neighs/atom = 0.0000000
Neighbor list builds = 170917
Dangerous builds = 0

Total wall time: 1:57:21
