LAMMPS (29 Oct 2020)
OMP_NUM_THREADS environment is not set. Defaulting to 1 thread. (../comm.cpp:94)
  using 1 OpenMP thread(s) per MPI task
OMP_NUM_THREADS environment is not set. Defaulting to 1 thread. (../comm.cpp:94)
  using 1 OpenMP thread(s) per MPI task
Reading data file ...
  orthogonal box = (0.036967065 0.39996549 0.036967048) to (27.303033 327.68003 27.303033)
  2 by 13 by 2 MPI processor grid
  reading atoms ...
  18000 atoms
  reading velocities ...
  18000 velocities
Finding 1-2 1-3 1-4 neighbors ...
  special bond factors lj:    0.0      0.0      0.0     
  special bond factors coul:  0.0      0.0      0.0     
     0 = max # of 1-2 neighbors
     0 = max # of 1-3 neighbors
     0 = max # of 1-4 neighbors
     1 = max # of special neighbors
  special bonds CPU = 0.004 seconds
  read_data CPU = 0.058 seconds
120 atoms in group U_delete
240 atoms in group O_delete
360 atoms in group delete
WARNING: Ignoring 'compress yes' for molecular system (../delete_atoms.cpp:125)
Deleted 360 atoms, new total = 17640
Setting atom values ...
  11760 settings made for charge
Setting atom values ...
  5880 settings made for charge
PPPM initialization ...
  using 12-bit tables for long-range coulomb (../kspace.cpp:328)
  G vector (1/distance) = 0.30035472
  grid = 40 240 40
  stencil order = 5
  estimated absolute RMS force accuracy = 0.00014415173
  estimated relative force accuracy = 1.0010784e-05
  using single precision MKL FFT
  3d grid and FFT values/proc = 18225 7600
Neighbor list info ...
  update every 1 steps, delay 0 steps, check yes
  max neighbors/atom: 2000, page size: 100000
  master list distance cutoff = 13
  ghost atom cutoff = 13
  binsize = 6.5, bins = 5 51 5
  2 neighbor lists, perpetual/occasional/extra = 2 0 0
  (1) pair coul/long, perpetual
      attributes: half, newton on
      pair build: half/bin/newton
      stencil: half/bin/3d/newton
      bin: standard
  (2) pair eam/alloy, perpetual, copy from (1)
      attributes: half, newton on
      pair build: copy
      stencil: none
      bin: none
Setting up cg style minimization ...
  Unit style    : metal
  Current step  : 0
WARNING: Energy due to 3 extra global DOFs will be included in minimizer energies
Per MPI rank memory allocation (min/avg/max) = 9.490 | 10.22 | 10.29 Mbytes
Step Temp E_pair E_mol TotEng Press Volume 
       0            0   -237622.19            0   -237622.19   -5203.1909    243312.55 
    5071            0   -238616.72            0   -238616.72    134.79649    243792.66 
Loop time of 106.23 on 52 procs for 5071 steps with 17640 atoms

99.8% CPU use with 52 MPI tasks x 1 OpenMP threads

Minimization stats:
  Stopping criterion = max force evaluations
  Energy initial, next-to-last, final = 
     -237622.185695274  -238616.720175594  -238616.722710502
  Force two-norm initial, final = 1386.5893 46.687153
  Force max component initial, final = 855.30381 39.750712
  Final line search alpha, max atom move = 5.3088918e-05 0.0021103223
  Iterations, force evaluations = 5071 10000

MPI task timing breakdown:
Section |  min time  |  avg time  |  max time  |%varavg| %total
---------------------------------------------------------------
Pair    | 61.381     | 63.33      | 66.241     |  13.5 | 59.62
Bond    | 0.00085051 | 0.0013572  | 0.0020974  |   0.8 |  0.00
Kspace  | 18.093     | 21.018     | 22.988     |  23.7 | 19.79
Neigh   | 0.065148   | 0.072777   | 0.079923   |   1.2 |  0.07
Comm    | 2.1128     | 2.1823     | 2.2515     |   2.3 |  2.05
Output  | 0          | 0          | 0          |   0.0 |  0.00
Modify  | 0          | 0          | 0          |   0.0 |  0.00
Other   |            | 19.62      |            |       | 18.47

Nlocal:        339.231 ave         375 max         313 min
Histogram: 4 4 11 4 11 9 3 2 0 4
Nghost:        5605.77 ave        5754 max        5251 min
Histogram: 1 3 3 4 1 0 2 11 19 8
Neighs:       112871.0 ave      127242 max      101848 min
Histogram: 3 5 8 7 7 11 4 4 2 1

Total # of neighbors = 5869288
Ave neighs/atom = 332.72608
Ave special neighs/atom = 0.0000000
Neighbor list builds = 26
Dangerous builds = 0
Resetting atom IDs ...
PPPM initialization ...
  using 12-bit tables for long-range coulomb (../kspace.cpp:328)
  G vector (1/distance) = 0.30032133
  grid = 40 240 40
  stencil order = 5
  estimated absolute RMS force accuracy = 0.00014440009
  estimated relative force accuracy = 1.0028031e-05
  using single precision MKL FFT
  3d grid and FFT values/proc = 18225 7600
Finding 1-2 1-3 1-4 neighbors ...
  special bond factors lj:    0.0      0.0      0.0     
  special bond factors coul:  0.0      0.0      0.0     
     0 = max # of 1-2 neighbors
     0 = max # of 1-3 neighbors
     0 = max # of 1-4 neighbors
     1 = max # of special neighbors
  special bonds CPU = 0.001 seconds
PPPM initialization ...
  using 12-bit tables for long-range coulomb (../kspace.cpp:328)
  G vector (1/distance) = 0.30032133
  grid = 40 240 40
  stencil order = 5
  estimated absolute RMS force accuracy = 0.00014440009
  estimated relative force accuracy = 1.0028031e-05
  using single precision MKL FFT
  3d grid and FFT values/proc = 18225 7600
Setting up Verlet run ...
  Unit style    : metal
  Current step  : 5071
  Time step     : 0.001
Per MPI rank memory allocation (min/avg/max) = 9.120 | 9.140 | 9.161 Mbytes
Step Dt Time Atoms Temp PotEng KinEng Press Volume 
    5071        0.001            0    17640          600   -238616.72    1368.0118    6128.3521    243792.66 
   50000        0.001       44.929    17640    604.79744   -237329.52    1378.9501   -574.82589    248096.03 
  100000        0.001       94.929    17640    597.64081   -237349.03    1362.6328   -670.07813    247966.22 
  105071        0.001          100    17640    594.62946   -237344.81    1355.7669   -1076.9614    248043.06 
Loop time of 848.914 on 52 procs for 100000 steps with 17640 atoms

Performance: 10.178 ns/day, 2.358 hours/ns, 117.798 timesteps/s
99.8% CPU use with 52 MPI tasks x 1 OpenMP threads

MPI task timing breakdown:
Section |  min time  |  avg time  |  max time  |%varavg| %total
---------------------------------------------------------------
Pair    | 504.05     | 524.37     | 540.39     |  33.0 | 61.77
Bond    | 0.0097281  | 0.015842   | 0.02228    |   2.2 |  0.00
Kspace  | 181.89     | 198.14     | 219.64     |  55.6 | 23.34
Neigh   | 2.4769     | 2.7007     | 2.8629     |   4.8 |  0.32
Comm    | 24.263     | 25.316     | 26.319     |  12.4 |  2.98
Output  | 0.013565   | 0.013585   | 0.014119   |   0.1 |  0.00
Modify  | 83.423     | 86.818     | 91.291     |  24.2 | 10.23
Other   |            | 11.54      |            |       |  1.36

Nlocal:        339.231 ave         364 max         306 min
Histogram: 2 0 3 4 6 12 11 11 0 3
Nghost:        5575.69 ave        5752 max        5267 min
Histogram: 1 5 1 4 3 5 5 10 13 5
Neighs:       111798.0 ave      121036 max       98135 min
Histogram: 1 1 0 6 7 9 11 11 5 1

Total # of neighbors = 5813514
Ave neighs/atom = 329.56429
Ave special neighs/atom = 0.0000000
Neighbor list builds = 956
Dangerous builds = 0
System init for write_data ...
PPPM initialization ...
  using 12-bit tables for long-range coulomb (../kspace.cpp:328)
  G vector (1/distance) = 0.30001476
  grid = 40 240 40
  stencil order = 5
  estimated absolute RMS force accuracy = 0.00014675777
  estimated relative force accuracy = 1.0191763e-05
  using single precision MKL FFT
  3d grid and FFT values/proc = 18225 7600
Total wall time: 0:15:55
