LAMMPS (29 Oct 2020)
OMP_NUM_THREADS environment is not set. Defaulting to 1 thread. (../comm.cpp:94)
  using 1 OpenMP thread(s) per MPI task
#---------------------------------------
#
# This script is used to calculate the thermal conuctivity of UO2 using Muller-Plathe method
# By Ziqiang Wang on 03/18/2022 on Jilin university
#
#---------------------------------------

variable     Nevery    equal   50
variable     T         equal   1200

clear
OMP_NUM_THREADS environment is not set. Defaulting to 1 thread. (../comm.cpp:94)
  using 1 OpenMP thread(s) per MPI task
units          metal
boundary       p p p
atom_style     full

read_data vac_0.01_relaxed.dat
Reading data file ...
  orthogonal box = (-0.44755349 -5.1691138 -0.43914387) to (27.787553 333.24911 27.779144)
  2 by 13 by 2 MPI processor grid
  reading atoms ...
  17820 atoms
  reading velocities ...
  17820 velocities
Finding 1-2 1-3 1-4 neighbors ...
  special bond factors lj:    0.0      0.0      0.0     
  special bond factors coul:  0.0      0.0      0.0     
     0 = max # of 1-2 neighbors
     0 = max # of 1-3 neighbors
     0 = max # of 1-4 neighbors
     1 = max # of special neighbors
  special bonds CPU = 0.003 seconds
  read_data CPU = 0.069 seconds

set           type     1    charge     -1.1104
Setting atom values ...
  11880 settings made for charge
set           type     2    charge      2.2208
Setting atom values ...
  5940 settings made for charge

kspace_style    pppm   1.0e-05
pair_style      hybrid/overlay  coul/long  11.0  eam/alloy
pair_coeff      * * coul/long
pair_coeff      * * eam/alloy CeThUNpPuAmCmO.eam.alloy O Th
newton          on
neighbor        0.3 bin
neigh_modify    delay 0 check yes every 1

#The first equilation
velocity        all create $T 10003 mom yes rot yes dist gaussian
velocity        all create 1200 10003 mom yes rot yes dist gaussian
fix             nvt  all  nvt  temp  $T $T  0.1
fix             nvt  all  nvt  temp  1200 $T  0.1
fix             nvt  all  nvt  temp  1200 1200  0.1

run             50000
PPPM initialization ...
  using 12-bit tables for long-range coulomb (../kspace.cpp:328)
  G vector (1/distance) = 0.2985213
  grid = 40 240 40
  stencil order = 5
  estimated absolute RMS force accuracy = 0.00015939683
  estimated relative force accuracy = 1.1069497e-05
  using single precision MKL FFT
  3d grid and FFT values/proc = 15000 7600
Neighbor list info ...
  update every 1 steps, delay 0 steps, check yes
  max neighbors/atom: 2000, page size: 100000
  master list distance cutoff = 11.3
  ghost atom cutoff = 11.3
  binsize = 5.65, bins = 5 60 5
  2 neighbor lists, perpetual/occasional/extra = 2 0 0
  (1) pair coul/long, perpetual
      attributes: half, newton on
      pair build: half/bin/newton
      stencil: half/bin/3d/newton
      bin: standard
  (2) pair eam/alloy, perpetual, copy from (1)
      attributes: half, newton on
      pair build: copy
      stencil: none
      bin: none
Per MPI rank memory allocation (min/avg/max) = 8.147 | 8.171 | 8.187 Mbytes
Step Temp E_pair E_mol TotEng Press 
       0         1200   -231368.92            0   -228604.97    921.01944 
   50000     1199.033   -231400.18            0   -228638.46     805.1797 
Loop time of 335.354 on 52 procs for 50000 steps with 17820 atoms

Performance: 12.882 ns/day, 1.863 hours/ns, 149.096 timesteps/s
99.8% CPU use with 52 MPI tasks x 1 OpenMP threads

MPI task timing breakdown:
Section |  min time  |  avg time  |  max time  |%varavg| %total
---------------------------------------------------------------
Pair    | 216.45     | 224.7      | 230.35     |  18.7 | 67.00
Bond    | 0.003043   | 0.0049364  | 0.0068175  |   1.3 |  0.00
Kspace  | 67.63      | 75.487     | 86.087     |  40.6 | 22.51
Neigh   | 20.983     | 23.022     | 24.645     |  17.2 |  6.87
Comm    | 9.0145     | 9.8565     | 10.688     |  12.9 |  2.94
Output  | 5.6545e-05 | 6.2625e-05 | 0.00031428 |   0.0 |  0.00
Modify  | 1.1585     | 1.5199     | 2.4765     |  34.8 |  0.45
Other   |            | 0.764      |            |       |  0.23

Nlocal:        342.692 ave         367 max         316 min
Histogram: 1 2 3 10 11 10 3 5 4 3
Nghost:        3992.40 ave        4097 max        3877 min
Histogram: 4 2 4 7 9 8 4 3 3 8
Neighs:        68482.5 ave       73695 max       61162 min
Histogram: 2 0 2 5 8 12 8 5 4 6

Total # of neighbors = 3561091
Ave neighs/atom = 199.83676
Ave special neighs/atom = 0.0000000
Neighbor list builds = 11008
Dangerous builds = 0
unfix           nvt
reset_timestep  0

# the second run
fix             1 all nve

group           oxygen type 1
11880 atoms in group oxygen
fix             2 oxygen thermal/conductivity ${Nevery} y 20
fix             2 oxygen thermal/conductivity 50 y 20

compute         ke all ke/atom
variable        temp atom c_ke/1.5
compute         layers all chunk/atom bin/1d y lower 0.05 units reduced
fix             3      all ave/chunk  2000 50 100000 layers v_temp file profile_${T}K.mp
fix             3      all ave/chunk  2000 50 100000 layers v_temp file profile_1200K.mp

variable        Tdiff    equal     f_3[11][3]-f_3[1][3]
variable        deltaT   equal     v_Tdiff*1.5/0.0001292

timestep        0.001
thermo_style    custom step f_2 temp v_Tdiff v_deltaT
thermo          100000

run             1000000
PPPM initialization ...
  using 12-bit tables for long-range coulomb (../kspace.cpp:328)
  G vector (1/distance) = 0.2985213
  grid = 40 240 40
  stencil order = 5
  estimated absolute RMS force accuracy = 0.00015939683
  estimated relative force accuracy = 1.1069497e-05
  using single precision MKL FFT
  3d grid and FFT values/proc = 15000 7600
Per MPI rank memory allocation (min/avg/max) = 8.398 | 8.422 | 8.438 Mbytes
Step f_2 Temp v_Tdiff v_deltaT 
       0            0     1199.033            0            0 
  100000    1307.0601    1197.6859   0.04763866    553.08042 
  200000    2549.4909    1195.4639  0.055855584    648.47814 
  300000    3787.4203    1193.4457  0.058079851    674.30167 
  400000    5031.8026    1196.6535  0.056249404    653.05036 
  500000    6275.4015    1193.0598  0.056940722     661.0765 
  600000     7520.698    1200.5072  0.056097203    651.28331 
  700000    8756.7616     1196.095  0.055901906    649.01593 
  800000    9994.0053    1196.8484   0.05601705    650.35275 
  900000    11221.938     1201.884  0.056269935    653.28872 
 1000000    12462.376    1209.9558  0.057530516    667.92395 
Loop time of 6691.82 on 52 procs for 1000000 steps with 17820 atoms

Performance: 12.911 ns/day, 1.859 hours/ns, 149.436 timesteps/s
99.8% CPU use with 52 MPI tasks x 1 OpenMP threads

MPI task timing breakdown:
Section |  min time  |  avg time  |  max time  |%varavg| %total
---------------------------------------------------------------
Pair    | 4329.4     | 4455       | 4583.7     |  80.7 | 66.57
Bond    | 0.059027   | 0.10033    | 0.15089    |   5.8 |  0.00
Kspace  | 1358       | 1507.8     | 1656.2     | 153.2 | 22.53
Neigh   | 453.05     | 490.89     | 523.97     |  62.7 |  7.34
Comm    | 181        | 200.66     | 223.91     |  72.9 |  3.00
Output  | 0.0011761  | 0.0012368  | 0.0024276  |   0.5 |  0.00
Modify  | 5.6016     | 6.3403     | 6.9939     |  14.1 |  0.09
Other   |            | 30.95      |            |       |  0.46

Nlocal:        342.692 ave         360 max         319 min
Histogram: 1 2 1 4 9 12 10 6 3 4
Nghost:        3998.56 ave        4096 max        3925 min
Histogram: 11 6 3 3 5 8 5 5 3 3
Neighs:        68459.5 ave       72496 max       63118 min
Histogram: 2 2 1 4 5 16 9 6 5 2

Total # of neighbors = 3559895
Ave neighs/atom = 199.76964
Ave special neighs/atom = 0.0000000
Neighbor list builds = 235210
Dangerous builds = 0

Total wall time: 1:57:07
