LAMMPS (29 Oct 2020)
OMP_NUM_THREADS environment is not set. Defaulting to 1 thread. (../comm.cpp:94)
  using 1 OpenMP thread(s) per MPI task
#---------------------------------------
#
# This script is used to calculate the thermal conuctivity of UO2 using Muller-Plathe method
# By Ziqiang Wang on 03/18/2022 on Jilin university
#
#---------------------------------------

variable     Nevery    equal   50
variable     T         equal   900

clear
OMP_NUM_THREADS environment is not set. Defaulting to 1 thread. (../comm.cpp:94)
  using 1 OpenMP thread(s) per MPI task
units          metal
boundary       p p p
atom_style     full

read_data antisite_0.01_relaxed.dat
Reading data file ...
  orthogonal box = (-0.44994509 -5.3521780 -0.45944198) to (27.789945 333.43218 27.799442)
  2 by 13 by 2 MPI processor grid
  reading atoms ...
  18000 atoms
  reading velocities ...
  18000 velocities
Finding 1-2 1-3 1-4 neighbors ...
  special bond factors lj:    0.0      0.0      0.0     
  special bond factors coul:  0.0      0.0      0.0     
     0 = max # of 1-2 neighbors
     0 = max # of 1-3 neighbors
     0 = max # of 1-4 neighbors
     1 = max # of special neighbors
  special bonds CPU = 0.003 seconds
  read_data CPU = 0.063 seconds

set           type     1    charge     -1.1104
Setting atom values ...
  12000 settings made for charge
set           type     2    charge      2.2208
Setting atom values ...
  6000 settings made for charge

kspace_style    pppm   1.0e-05
pair_style      hybrid/overlay  coul/long  11.0  eam/alloy
pair_coeff      * * coul/long
pair_coeff      * * eam/alloy CeThUNpPuAmCmO.eam.alloy O Th
newton          on
neighbor        0.3 bin
neigh_modify    delay 0 check yes every 1

#The first equilation
velocity        all create $T 10003 mom yes rot yes dist gaussian
velocity        all create 900 10003 mom yes rot yes dist gaussian
fix             nvt  all  nvt  temp  $T $T  0.1
fix             nvt  all  nvt  temp  900 $T  0.1
fix             nvt  all  nvt  temp  900 900  0.1

run             100000
PPPM initialization ...
  using 12-bit tables for long-range coulomb (../kspace.cpp:328)
  G vector (1/distance) = 0.29848024
  grid = 40 240 40
  stencil order = 5
  estimated absolute RMS force accuracy = 0.00016059557
  estimated relative force accuracy = 1.1152745e-05
  using single precision MKL FFT
  3d grid and FFT values/proc = 15000 7600
Neighbor list info ...
  update every 1 steps, delay 0 steps, check yes
  max neighbors/atom: 2000, page size: 100000
  master list distance cutoff = 11.3
  ghost atom cutoff = 11.3
  binsize = 5.65, bins = 5 60 6
  2 neighbor lists, perpetual/occasional/extra = 2 0 0
  (1) pair coul/long, perpetual
      attributes: half, newton on
      pair build: half/bin/newton
      stencil: half/bin/3d/newton
      bin: standard
  (2) pair eam/alloy, perpetual, copy from (1)
      attributes: half, newton on
      pair build: copy
      stencil: none
      bin: none
Per MPI rank memory allocation (min/avg/max) = 8.151 | 8.174 | 8.187 Mbytes
Step Temp E_pair E_mol TotEng Press 
       0          900   -233802.66            0   -231708.76   -755.11161 
  100000    908.48362   -233786.79            0   -231673.15   -223.75235 
Loop time of 642.692 on 52 procs for 100000 steps with 18000 atoms

Performance: 13.443 ns/day, 1.785 hours/ns, 155.596 timesteps/s
99.9% CPU use with 52 MPI tasks x 1 OpenMP threads

MPI task timing breakdown:
Section |  min time  |  avg time  |  max time  |%varavg| %total
---------------------------------------------------------------
Pair    | 409.75     | 424.5      | 443.27     |  36.6 | 66.05
Bond    | 0.0056317  | 0.0098653  | 0.014439   |   2.0 |  0.00
Kspace  | 138.66     | 158.92     | 173.55     |  65.3 | 24.73
Neigh   | 36.297     | 38.57      | 41.658     |  20.7 |  6.00
Comm    | 14.549     | 15.616     | 17.731     |  19.8 |  2.43
Output  | 5.5812e-05 | 6.2784e-05 | 0.00030184 |   0.0 |  0.00
Modify  | 2.36       | 3.6938     | 5.5979     |  53.3 |  0.57
Other   |            | 1.379      |            |       |  0.21

Nlocal:        346.154 ave         369 max         332 min
Histogram: 7 7 7 8 10 6 0 3 1 3
Nghost:        4026.23 ave        4142 max        3951 min
Histogram: 4 7 10 9 9 5 2 1 2 3
Neighs:        69724.4 ave       77198 max       64438 min
Histogram: 9 5 9 2 9 2 6 6 1 3

Total # of neighbors = 3625667
Ave neighs/atom = 201.42594
Ave special neighs/atom = 0.0000000
Neighbor list builds = 19776
Dangerous builds = 0
unfix           nvt
reset_timestep  0

# the second run
fix             1 all nve

group           oxygen type 1
12000 atoms in group oxygen
fix             2 oxygen thermal/conductivity ${Nevery} y 20
fix             2 oxygen thermal/conductivity 50 y 20

compute         ke all ke/atom
variable        temp atom c_ke/1.5
compute         layers all chunk/atom bin/1d y lower 0.05 units reduced
fix             3      all ave/chunk  2000 50 100000 layers v_temp file profile_${T}K.mp
fix             3      all ave/chunk  2000 50 100000 layers v_temp file profile_900K.mp

variable        Tdiff    equal     f_3[11][3]-f_3[1][3]
variable        deltaT   equal     v_Tdiff*1.5/0.0001292

timestep        0.001
thermo_style    custom step f_2 temp v_Tdiff v_deltaT
thermo          100000

run             1000000
PPPM initialization ...
  using 12-bit tables for long-range coulomb (../kspace.cpp:328)
  G vector (1/distance) = 0.29848024
  grid = 40 240 40
  stencil order = 5
  estimated absolute RMS force accuracy = 0.00016059557
  estimated relative force accuracy = 1.1152745e-05
  using single precision MKL FFT
  3d grid and FFT values/proc = 15000 7600
Per MPI rank memory allocation (min/avg/max) = 8.402 | 8.425 | 8.438 Mbytes
Step f_2 Temp v_Tdiff v_deltaT 
       0            0    908.48362            0            0 
  100000     973.8374    903.14535   0.03791781    440.22226 
  200000    1884.7763    905.76166  0.046529094    540.19846 
  300000    2793.0081    907.75517  0.046087389     535.0703 
  400000    3698.7132    903.77572  0.047378419    550.05904 
  500000    4609.7273    919.49344  0.047624959    552.92136 
  600000     5537.627    914.09799  0.045813032    531.88505 
  700000    6443.1011    910.09462  0.047468136    551.10065 
  800000    7360.5095    911.66828   0.04667997    541.95011 
  900000     8264.612    914.31217  0.047303803    549.19275 
 1000000    9173.9782     909.9486  0.046497396    539.83045 
Loop time of 6325.82 on 52 procs for 1000000 steps with 18000 atoms

Performance: 13.658 ns/day, 1.757 hours/ns, 158.082 timesteps/s
99.9% CPU use with 52 MPI tasks x 1 OpenMP threads

MPI task timing breakdown:
Section |  min time  |  avg time  |  max time  |%varavg| %total
---------------------------------------------------------------
Pair    | 4013.4     | 4161.3     | 4298.9     | 107.7 | 65.78
Bond    | 0.063092   | 0.10089    | 0.13865    |   5.8 |  0.00
Kspace  | 1419.3     | 1568.7     | 1713.5     | 183.9 | 24.80
Neigh   | 375.7      | 395.18     | 426.51     |  55.6 |  6.25
Comm    | 144.96     | 156.51     | 184.36     |  79.3 |  2.47
Output  | 0.00099581 | 0.0010631  | 0.0022792  |   0.5 |  0.00
Modify  | 5.5344     | 5.9958     | 6.5874     |  10.1 |  0.09
Other   |            | 38.03      |            |       |  0.60

Nlocal:        346.154 ave         365 max         332 min
Histogram: 3 5 9 10 7 5 6 2 2 3
Nghost:        4034.52 ave        4149 max        3976 min
Histogram: 11 8 7 8 5 4 3 3 1 2
Neighs:        69710.0 ave       75407 max       64688 min
Histogram: 7 5 8 4 4 6 4 4 6 4

Total # of neighbors = 3624919
Ave neighs/atom = 201.38439
Ave special neighs/atom = 0.0000000
Neighbor list builds = 203580
Dangerous builds = 0

Total wall time: 1:56:08
