LAMMPS (29 Oct 2020)
OMP_NUM_THREADS environment is not set. Defaulting to 1 thread. (../comm.cpp:94)
  using 1 OpenMP thread(s) per MPI task
OMP_NUM_THREADS environment is not set. Defaulting to 1 thread. (../comm.cpp:94)
  using 1 OpenMP thread(s) per MPI task
Reading data file ...
  orthogonal box = (-0.387769 -4.7783462 -0.40870715) to (27.727769 332.85835 27.748707)
  2 by 13 by 2 MPI processor grid
  reading atoms ...
  17640 atoms
  reading velocities ...
  17640 velocities
Finding 1-2 1-3 1-4 neighbors ...
  special bond factors lj:    0.0      0.0      0.0     
  special bond factors coul:  0.0      0.0      0.0     
     0 = max # of 1-2 neighbors
     0 = max # of 1-3 neighbors
     0 = max # of 1-4 neighbors
     1 = max # of special neighbors
  special bonds CPU = 0.004 seconds
  read_data CPU = 0.080 seconds
Setting atom values ...
  11760 settings made for charge
Setting atom values ...
  5880 settings made for charge
PPPM initialization ...
  using 12-bit tables for long-range coulomb (../kspace.cpp:328)
  G vector (1/distance) = 0.29866371
  grid = 40 240 40
  stencil order = 5
  estimated absolute RMS force accuracy = 0.00015742081
  estimated relative force accuracy = 1.093227e-05
  using single precision MKL FFT
  3d grid and FFT values/proc = 15000 7600
Neighbor list info ...
  update every 1 steps, delay 0 steps, check yes
  max neighbors/atom: 2000, page size: 100000
  master list distance cutoff = 11.3
  ghost atom cutoff = 11.3
  binsize = 5.65, bins = 5 60 5
  2 neighbor lists, perpetual/occasional/extra = 2 0 0
  (1) pair coul/long, perpetual
      attributes: half, newton on
      pair build: half/bin/newton
      stencil: half/bin/3d/newton
      bin: standard
  (2) pair eam/alloy, perpetual, copy from (1)
      attributes: half, newton on
      pair build: copy
      stencil: none
      bin: none
Setting up Verlet run ...
  Unit style    : metal
  Current step  : 0
  Time step     : 0.001
Per MPI rank memory allocation (min/avg/max) = 8.148 | 8.173 | 8.187 Mbytes
Step Temp E_pair E_mol TotEng Press 
       0          900   -229742.97            0   -227690.95    -484.0491 
   50000    895.44563   -229747.92            0   -227706.28    -592.7316 
Loop time of 331.939 on 52 procs for 50000 steps with 17640 atoms

Performance: 13.014 ns/day, 1.844 hours/ns, 150.630 timesteps/s
99.8% CPU use with 52 MPI tasks x 1 OpenMP threads

MPI task timing breakdown:
Section |  min time  |  avg time  |  max time  |%varavg| %total
---------------------------------------------------------------
Pair    | 216.87     | 223.64     | 229.98     |  25.2 | 67.37
Bond    | 0.0030132  | 0.0051076  | 0.0077075  |   1.4 |  0.00
Kspace  | 68.582     | 76.231     | 83.647     |  53.7 | 22.97
Neigh   | 18.314     | 20.29      | 22.115     |  26.6 |  6.11
Comm    | 8.7191     | 9.5392     | 10.637     |  14.4 |  2.87
Output  | 5.3453e-05 | 5.8472e-05 | 0.00027241 |   0.0 |  0.00
Modify  | 1.1015     | 1.5041     | 2.3721     |  31.7 |  0.45
Other   |            | 0.7307     |            |       |  0.22

Nlocal:        339.231 ave         363 max         313 min
Histogram: 4 2 8 8 1 6 6 4 6 7
Nghost:        4028.27 ave        4130 max        3930 min
Histogram: 6 2 7 5 7 3 8 9 1 4
Neighs:        67329.2 ave       73121 max       60263 min
Histogram: 4 7 5 4 2 4 4 7 9 6

Total # of neighbors = 3501117
Ave neighs/atom = 198.47602
Ave special neighs/atom = 0.0000000
Neighbor list builds = 9878
Dangerous builds = 0
11760 atoms in group oxygen
PPPM initialization ...
  using 12-bit tables for long-range coulomb (../kspace.cpp:328)
  G vector (1/distance) = 0.29866371
  grid = 40 240 40
  stencil order = 5
  estimated absolute RMS force accuracy = 0.00015742081
  estimated relative force accuracy = 1.093227e-05
  using single precision MKL FFT
  3d grid and FFT values/proc = 15000 7600
Setting up Verlet run ...
  Unit style    : metal
  Current step  : 0
  Time step     : 0.001
Per MPI rank memory allocation (min/avg/max) = 8.399 | 8.423 | 8.438 Mbytes
Step f_2 Temp v_Tdiff v_deltaT 
       0            0    895.44563            0            0 
  100000    1006.7856    889.78503  0.033925329    393.86992 
  200000    1971.3684    896.14099  0.037300572    433.05617 
  300000    2943.6764    900.98888  0.037441404    434.69122 
  400000    3913.1735    899.93081  0.036790105    427.12971 
  500000     4880.874    895.08032  0.037231612    432.25556 
  600000    5843.2186    891.64808   0.03713453    431.12844 
  700000     6815.213     899.0563  0.036999054    429.55558 
  800000    7780.6118    902.09555   0.03782824    439.18235 
  900000    8748.5151    897.27451  0.037804968    438.91217 
 1000000    9715.8956    904.67151  0.038808552    450.56368 
Loop time of 6633.3 on 52 procs for 1000000 steps with 17640 atoms

Performance: 13.025 ns/day, 1.843 hours/ns, 150.755 timesteps/s
99.8% CPU use with 52 MPI tasks x 1 OpenMP threads

MPI task timing breakdown:
Section |  min time  |  avg time  |  max time  |%varavg| %total
---------------------------------------------------------------
Pair    | 4293.9     | 4445.7     | 4611.8     | 121.6 | 67.02
Bond    | 0.066687   | 0.10025    | 0.14576    |   5.6 |  0.00
Kspace  | 1353       | 1545.3     | 1708.8     | 236.2 | 23.30
Neigh   | 374.81     | 414.74     | 454.67     | 109.2 |  6.25
Comm    | 175.45     | 193.16     | 218.42     |  69.3 |  2.91
Output  | 0.0010719  | 0.001135   | 0.002275   |   0.5 |  0.00
Modify  | 5.4454     | 6.2017     | 6.8321     |  12.4 |  0.09
Other   |            | 28.11      |            |       |  0.42

Nlocal:        339.231 ave         366 max         316 min
Histogram: 4 6 4 8 2 7 11 5 3 2
Nghost:        4038.62 ave        4141 max        3952 min
Histogram: 8 6 8 2 4 4 4 7 4 5
Neighs:        67329.0 ave       73792 max       59146 min
Histogram: 2 3 5 5 6 2 8 13 5 3

Total # of neighbors = 3501110
Ave neighs/atom = 198.47562
Ave special neighs/atom = 0.0000000
Neighbor list builds = 201712
Dangerous builds = 0
Total wall time: 1:56:05
