LAMMPS (29 Oct 2020)
OMP_NUM_THREADS environment is not set. Defaulting to 1 thread. (../comm.cpp:94)
  using 1 OpenMP thread(s) per MPI task
OMP_NUM_THREADS environment is not set. Defaulting to 1 thread. (../comm.cpp:94)
  using 1 OpenMP thread(s) per MPI task
Reading data file ...
  orthogonal box = (-0.27717828 -3.4472206 -0.27717828) to (27.617178 331.52722 27.617178)
  2 by 13 by 2 MPI processor grid
  reading atoms ...
  18000 atoms
  reading velocities ...
  18000 velocities
Finding 1-2 1-3 1-4 neighbors ...
  special bond factors lj:    0.0      0.0      0.0     
  special bond factors coul:  0.0      0.0      0.0     
     0 = max # of 1-2 neighbors
     0 = max # of 1-3 neighbors
     0 = max # of 1-4 neighbors
     1 = max # of special neighbors
  special bonds CPU = 0.004 seconds
  read_data CPU = 0.077 seconds
60 atoms in group Th_delete
120 atoms in group O_delete
180 atoms in group delete
WARNING: Ignoring 'compress yes' for molecular system (../delete_atoms.cpp:125)
Deleted 180 atoms, new total = 17820
Setting atom values ...
  11880 settings made for charge
Setting atom values ...
  5940 settings made for charge
PPPM initialization ...
  using 12-bit tables for long-range coulomb (../kspace.cpp:328)
  G vector (1/distance) = 0.29913531
  grid = 40 240 40
  stencil order = 5
  estimated absolute RMS force accuracy = 0.00015449248
  estimated relative force accuracy = 1.0728909e-05
  using single precision MKL FFT
  3d grid and FFT values/proc = 18225 7600
Neighbor list info ...
  update every 1 steps, delay 0 steps, check yes
  max neighbors/atom: 2000, page size: 100000
  master list distance cutoff = 13
  ghost atom cutoff = 13
  binsize = 6.5, bins = 5 52 5
  2 neighbor lists, perpetual/occasional/extra = 2 0 0
  (1) pair coul/long, perpetual
      attributes: half, newton on
      pair build: half/bin/newton
      stencil: half/bin/3d/newton
      bin: standard
  (2) pair eam/alloy, perpetual, copy from (1)
      attributes: half, newton on
      pair build: copy
      stencil: none
      bin: none
Setting up cg style minimization ...
  Unit style    : metal
  Current step  : 0
WARNING: Energy due to 3 extra global DOFs will be included in minimizer energies
Per MPI rank memory allocation (min/avg/max) = 9.477 | 10.13 | 10.28 Mbytes
Step Temp E_pair E_mol TotEng Press Volume 
       0            0   -233860.33            0   -233860.33   -3150.0224    260641.98 
     132            0   -234180.51            0   -234180.51    45.014805    260913.93 
Loop time of 2.80235 on 52 procs for 132 steps with 17820 atoms

99.3% CPU use with 52 MPI tasks x 1 OpenMP threads

Minimization stats:
  Stopping criterion = linesearch alpha is zero
  Energy initial, next-to-last, final = 
     -233860.331620782   -234180.51302128   -234180.51302128
  Force two-norm initial, final = 917.80983 22.286142
  Force max component initial, final = 681.81834 18.194262
  Final line search alpha, max atom move = 1.4784015e-11 2.6898424e-10
  Iterations, force evaluations = 132 244

MPI task timing breakdown:
Section |  min time  |  avg time  |  max time  |%varavg| %total
---------------------------------------------------------------
Pair    | 1.5535     | 1.6587     | 1.766      |   4.0 | 59.19
Bond    | 1.9566e-05 | 3.0508e-05 | 4.1101e-05 |   0.0 |  0.00
Kspace  | 0.47389    | 0.58155    | 0.6877     |   6.9 | 20.75
Neigh   | 0          | 0          | 0          |   0.0 |  0.00
Comm    | 0.051428   | 0.054291   | 0.056405   |   0.5 |  1.94
Output  | 0          | 0          | 0          |   0.0 |  0.00
Modify  | 0          | 0          | 0          |   0.0 |  0.00
Other   |            | 0.5078     |            |       | 18.12

Nlocal:        342.692 ave         402 max         294 min
Histogram: 7 2 8 7 3 9 4 8 2 2
Nghost:        5602.23 ave        5769 max        5452 min
Histogram: 2 9 6 3 6 10 4 4 3 5
Neighs:       109470.0 ave      128325 max       94587 min
Histogram: 8 2 7 8 3 10 4 6 2 2

Total # of neighbors = 5692453
Ave neighs/atom = 319.44181
Ave special neighs/atom = 0.0000000
Neighbor list builds = 0
Dangerous builds = 0
Resetting atom IDs ...
PPPM initialization ...
  using 12-bit tables for long-range coulomb (../kspace.cpp:328)
  G vector (1/distance) = 0.29912236
  grid = 40 240 40
  stencil order = 5
  estimated absolute RMS force accuracy = 0.00015456613
  estimated relative force accuracy = 1.0734024e-05
  using single precision MKL FFT
  3d grid and FFT values/proc = 18225 7600
Finding 1-2 1-3 1-4 neighbors ...
  special bond factors lj:    0.0      0.0      0.0     
  special bond factors coul:  0.0      0.0      0.0     
     0 = max # of 1-2 neighbors
     0 = max # of 1-3 neighbors
     0 = max # of 1-4 neighbors
     1 = max # of special neighbors
  special bonds CPU = 0.001 seconds
PPPM initialization ...
  using 12-bit tables for long-range coulomb (../kspace.cpp:328)
  G vector (1/distance) = 0.29912236
  grid = 40 240 40
  stencil order = 5
  estimated absolute RMS force accuracy = 0.00015456613
  estimated relative force accuracy = 1.0734024e-05
  using single precision MKL FFT
  3d grid and FFT values/proc = 18225 7600
Setting up Verlet run ...
  Unit style    : metal
  Current step  : 132
  Time step     : 0.001
Per MPI rank memory allocation (min/avg/max) = 9.115 | 9.139 | 9.154 Mbytes
Step Dt Time Atoms Temp PotEng KinEng Press Volume 
     132        0.001            0    17820          600   -234180.51    1381.9719    5702.4391    260913.93 
   10000        0.001        9.868    17820    595.18766   -232760.83    1370.8877   -841.06024    265373.44 
   20000        0.001       19.868    17820    592.43934   -232765.53    1364.5575   -1526.3239    265423.29 
   30000        0.001       29.868    17820    599.17564   -232765.14    1380.0732     134.2766    265223.27 
   40000        0.001       39.868    17820    598.33207   -232760.01    1378.1302   -174.29769    265259.35 
   50000        0.001       49.868    17820    595.79758   -232745.22    1372.2925   -451.77011    265338.34 
   60000        0.001       59.868    17820    599.79679   -232744.08    1381.5039    482.77168    265229.94 
   70000        0.001       69.868    17820    602.80651   -232754.37    1388.4361    365.41521    265250.87 
   80000        0.001       79.868    17820    602.74863   -232753.59    1388.3028   -92.732698    265290.34 
   90000        0.001       89.868    17820    590.01373   -232751.89    1358.9707    217.46012    265256.63 
  100000        0.001       99.868    17820    594.35344   -232753.15    1368.9663    815.04229    265140.99 
  100132        0.001          100    17820    599.11574   -232755.96    1379.9352   -1118.7466    265414.82 
Loop time of 872.193 on 52 procs for 100000 steps with 17820 atoms

Performance: 9.906 ns/day, 2.423 hours/ns, 114.654 timesteps/s
99.8% CPU use with 52 MPI tasks x 1 OpenMP threads

MPI task timing breakdown:
Section |  min time  |  avg time  |  max time  |%varavg| %total
---------------------------------------------------------------
Pair    | 536.09     | 546.52     | 561        |  24.2 | 62.66
Bond    | 0.0077566  | 0.013674   | 0.020606   |   1.9 |  0.00
Kspace  | 179.71     | 194.5      | 205.55     |  41.5 | 22.30
Neigh   | 0.5846     | 0.61218    | 0.65078    |   2.1 |  0.07
Comm    | 23.428     | 24.27      | 25.267     |  11.5 |  2.78
Output  | 0.055269   | 0.055311   | 0.057239   |   0.1 |  0.01
Modify  | 93.232     | 98.374     | 102.69     |  23.6 | 11.28
Other   |            | 7.849      |            |       |  0.90

Nlocal:        342.692 ave         363 max         325 min
Histogram: 2 7 11 4 7 6 2 3 6 4
Nghost:        5573.67 ave        5674 max        5483 min
Histogram: 7 10 3 4 2 4 5 7 4 6
Neighs:       108611.0 ave      116249 max      100811 min
Histogram: 1 3 7 9 9 6 4 5 4 4

Total # of neighbors = 5647763
Ave neighs/atom = 316.93395
Ave special neighs/atom = 0.0000000
Neighbor list builds = 209
Dangerous builds = 0
System init for write_data ...
PPPM initialization ...
  using 12-bit tables for long-range coulomb (../kspace.cpp:328)
  G vector (1/distance) = 0.29881046
  grid = 40 240 40
  stencil order = 5
  estimated absolute RMS force accuracy = 0.00015706262
  estimated relative force accuracy = 1.0907395e-05
  using single precision MKL FFT
  3d grid and FFT values/proc = 18225 7600
Total wall time: 0:14:35
