LAMMPS (29 Oct 2020)
OMP_NUM_THREADS environment is not set. Defaulting to 1 thread. (../comm.cpp:94)
  using 1 OpenMP thread(s) per MPI task
#---------------------------------------
#
# This script is used to calculate the thermal conuctivity of UO2 using Muller-Plathe method
# By Ziqiang Wang on 03/18/2022 on Jilin university
#
#---------------------------------------

variable     Nevery    equal   20
variable     T         equal   600

clear
OMP_NUM_THREADS environment is not set. Defaulting to 1 thread. (../comm.cpp:94)
  using 1 OpenMP thread(s) per MPI task
units          metal
boundary       p p p
atom_style     full

read_data vac_0.02_relaxed.dat
Reading data file ...
  orthogonal box = (-0.35516565 -4.2468482 -0.35447675) to (27.695166 332.32685 27.694477)
  2 by 13 by 2 MPI processor grid
  reading atoms ...
  17640 atoms
  reading velocities ...
  17640 velocities
Finding 1-2 1-3 1-4 neighbors ...
  special bond factors lj:    0.0      0.0      0.0     
  special bond factors coul:  0.0      0.0      0.0     
     0 = max # of 1-2 neighbors
     0 = max # of 1-3 neighbors
     0 = max # of 1-4 neighbors
     1 = max # of special neighbors
  special bonds CPU = 0.003 seconds
  read_data CPU = 0.056 seconds

set           type     1    charge     -1.1104
Setting atom values ...
  11760 settings made for charge
set           type     2    charge      2.2208
Setting atom values ...
  5880 settings made for charge

kspace_style    pppm   1.0e-05
pair_style      hybrid/overlay  coul/long  11.0  eam/alloy
pair_coeff      * * coul/long
pair_coeff      * * eam/alloy CeThUNpPuAmCmO.eam.alloy O Th
newton          on
neighbor        0.3 bin
neigh_modify    delay 0 check yes every 1

#The first equilation
velocity        all create $T 10002 mom yes rot yes dist gaussian
velocity        all create 600 10002 mom yes rot yes dist gaussian
fix             nvt  all  nvt  temp  $T $T  0.1
fix             nvt  all  nvt  temp  600 $T  0.1
fix             nvt  all  nvt  temp  600 600  0.1

run             100000
PPPM initialization ...
  using 12-bit tables for long-range coulomb (../kspace.cpp:328)
  G vector (1/distance) = 0.29883693
  grid = 40 240 40
  stencil order = 5
  estimated absolute RMS force accuracy = 0.00015601772
  estimated relative force accuracy = 1.0834831e-05
  using single precision MKL FFT
  3d grid and FFT values/proc = 15000 7600
Neighbor list info ...
  update every 1 steps, delay 0 steps, check yes
  max neighbors/atom: 2000, page size: 100000
  master list distance cutoff = 11.3
  ghost atom cutoff = 11.3
  binsize = 5.65, bins = 5 60 5
  2 neighbor lists, perpetual/occasional/extra = 2 0 0
  (1) pair coul/long, perpetual
      attributes: half, newton on
      pair build: half/bin/newton
      stencil: half/bin/3d/newton
      bin: standard
  (2) pair eam/alloy, perpetual, copy from (1)
      attributes: half, newton on
      pair build: copy
      stencil: none
      bin: none
Per MPI rank memory allocation (min/avg/max) = 8.142 | 8.178 | 8.198 Mbytes
Step Temp E_pair E_mol TotEng Press 
       0          600   -230565.12            0   -229197.11    96.489836 
  100000    599.57498   -230559.62            0   -229192.58   -1.2608075 
Loop time of 658.011 on 52 procs for 100000 steps with 17640 atoms

Performance: 13.130 ns/day, 1.828 hours/ns, 151.973 timesteps/s
99.8% CPU use with 52 MPI tasks x 1 OpenMP threads

MPI task timing breakdown:
Section |  min time  |  avg time  |  max time  |%varavg| %total
---------------------------------------------------------------
Pair    | 422.17     | 447.99     | 460.71     |  40.7 | 68.08
Bond    | 0.0065708  | 0.010299   | 0.016426   |   2.0 |  0.00
Kspace  | 138.46     | 153.66     | 186.19     |  87.5 | 23.35
Neigh   | 25.604     | 33.688     | 37.275     |  48.3 |  5.12
Comm    | 16.901     | 18.225     | 19.621     |  18.0 |  2.77
Output  | 5.7423e-05 | 6.2948e-05 | 0.00027305 |   0.0 |  0.00
Modify  | 2.1249     | 3.0786     | 5.1594     |  53.9 |  0.47
Other   |            | 1.357      |            |       |  0.21

Nlocal:        339.231 ave         368 max         300 min
Histogram: 3 5 0 0 5 16 9 2 5 7
Nghost:        4089.54 ave        4274 max        3829 min
Histogram: 4 5 3 4 4 2 9 4 6 11
Neighs:        67632.4 ave       74516 max       51882 min
Histogram: 4 0 0 3 1 0 9 20 7 8

Total # of neighbors = 3516884
Ave neighs/atom = 199.36984
Ave special neighs/atom = 0.0000000
Neighbor list builds = 16217
Dangerous builds = 0
unfix           nvt
reset_timestep  0

# the second run
fix             1 all nve

group           oxygen type 1
11760 atoms in group oxygen
fix             2 oxygen thermal/conductivity ${Nevery} y 20
fix             2 oxygen thermal/conductivity 20 y 20

compute         ke all ke/atom
variable        temp atom c_ke/1.5
compute         layers all chunk/atom bin/1d y lower 0.05 units reduced
fix             3      all ave/chunk  2000 50 100000 layers v_temp file profile_${T}K.mp
fix             3      all ave/chunk  2000 50 100000 layers v_temp file profile_600K.mp

variable        Tdiff    equal     f_3[11][3]-f_3[1][3]
variable        deltaT   equal     v_Tdiff*1.5/0.0001292

timestep        0.001
thermo_style    custom step f_2 temp v_Tdiff v_deltaT
thermo          100000

run             1000000
PPPM initialization ...
  using 12-bit tables for long-range coulomb (../kspace.cpp:328)
  G vector (1/distance) = 0.29883693
  grid = 40 240 40
  stencil order = 5
  estimated absolute RMS force accuracy = 0.00015601772
  estimated relative force accuracy = 1.0834831e-05
  using single precision MKL FFT
  3d grid and FFT values/proc = 15000 7600
Per MPI rank memory allocation (min/avg/max) = 8.393 | 8.429 | 8.449 Mbytes
Step f_2 Temp v_Tdiff v_deltaT 
       0            0    599.57498            0            0 
  100000    1416.8639    596.69806  0.036488389    423.62681 
  200000    2766.9418    604.06232  0.039715353    461.09156 
  300000    4123.9368    600.83208  0.040426364    469.34633 
  400000    5479.8399    603.10343  0.039953905    463.86113 
  500000    6847.7762    603.63882  0.039144734    454.46672 
  600000    8209.1893    601.70688  0.039307487    456.35628 
  700000    9587.5163    606.83397  0.039889942    463.11852 
  800000    10957.456    605.56746  0.039578736    459.50545 
  900000    12319.159    602.86775   0.03958535    459.58224 
 1000000    13680.804    593.46849  0.040529086    470.53892 
Loop time of 6577.55 on 52 procs for 1000000 steps with 17640 atoms

Performance: 13.136 ns/day, 1.827 hours/ns, 152.032 timesteps/s
99.8% CPU use with 52 MPI tasks x 1 OpenMP threads

MPI task timing breakdown:
Section |  min time  |  avg time  |  max time  |%varavg| %total
---------------------------------------------------------------
Pair    | 4229.4     | 4462.4     | 4615.7     | 117.6 | 67.84
Bond    | 0.067137   | 0.10291    | 0.15385    |   6.2 |  0.00
Kspace  | 1358.7     | 1531.6     | 1836.3     | 256.2 | 23.28
Neigh   | 274.75     | 361.04     | 401.1      | 158.0 |  5.49
Comm    | 170.74     | 186.72     | 204.22     |  64.3 |  2.84
Output  | 0.0011594  | 0.0012248  | 0.0023463  |   0.5 |  0.00
Modify  | 6.7355     | 7.2353     | 8.2711     |  15.5 |  0.11
Other   |            | 28.43      |            |       |  0.43

Nlocal:        339.231 ave         367 max         299 min
Histogram: 5 2 1 0 2 10 13 11 5 3
Nghost:        4124.56 ave        4278 max        3840 min
Histogram: 4 1 7 4 0 4 2 2 13 15
Neighs:        67628.3 ave       74545 max       52321 min
Histogram: 4 0 0 4 0 2 8 17 11 6

Total # of neighbors = 3516671
Ave neighs/atom = 199.35777
Ave special neighs/atom = 0.0000000
Neighbor list builds = 174029
Dangerous builds = 0

Total wall time: 2:00:36
