ITEM: TIMESTEP
10000
ITEM: NUMBER OF ATOMS
17640
ITEM: BOX BOUNDS pp pp pp
-4.7959548693262577e-01 2.7819595486932489e+01
-5.8871852373273326e+00 3.3396718523732426e+02
-4.7786658256601927e-01 2.7817866582566154e+01
ITEM: ATOMS id type q x y z
1 2 2.2208 5.01933 -0.251731 5.12896
2 1 -1.1104 0.601513 -4.23655 1.0429
6 1 -1.1104 0.745469 -4.43296 3.91235
10 1 -1.1104 0.998718 -1.80501 1.10549
12 2 2.2208 5.01742 -2.93263 2.40807
14 1 -1.1104 0.675549 -1.38421 3.78748
16 1 -1.1104 3.61822 -4.47517 0.97022
18 2 2.2208 2.30817 -0.301989 2.29156
19 1 -1.1104 3.45681 -4.20919 3.75227
21 2 2.2208 2.08145 -2.95847 5.17691
23 1 -1.1104 3.78225 -1.54439 0.852013
24 1 -1.1104 3.42411 -1.54186 3.79412
4 1 -1.1104 6.60809 -4.52855 0.886081
168 1 -1.1104 6.40582 -4.58498 6.55773
11 1 -1.1104 6.30642 -1.38038 0.838606
15 1 -1.1104 6.38791 -1.70162 3.87451
8 1 -1.1104 6.24909 -4.31284 3.80223
171 1 -1.1104 6.51937 -1.70312 6.44529
29 2 2.2208 4.98248 -5.74793 5.0807
28 2 2.2208 2.06352 -5.67161 2.51665
31 2 2.2208 10.7093 -0.486056 5.06701
32 1 -1.1104 12.2225 -4.49486 1.17465
34 1 -1.1104 12.1655 -4.58362 3.94548
36 1 -1.1104 11.9145 -1.71054 1.11931
37 2 2.2208 10.8355 -3.13422 2.42697
39 1 -1.1104 12.1942 -1.91986 3.81583
40 1 -1.1104 9.47314 -4.69378 1.12917
42 2 2.2208 7.64643 -0.335816 2.48844
43 1 -1.1104 9.12636 -4.42086 3.78407
45 2 2.2208 7.89346 -3.28775 5.22914
47 1 -1.1104 9.26016 -1.76473 1.10469
48 1 -1.1104 9.12347 -1.56892 3.78907
205 1 -1.1104 11.9269 -4.67246 6.74232
104 2 2.2208 13.3918 13.8389 10.8893
330 2 2.2208 13.6507 2.2547 10.9132
380 2 2.2208 2.21829 8.55957 -0.383668
210 1 -1.1104 9.49255 -2.08475 6.33486
355 2 2.2208 5.13836 8.25453 13.5633
331 2 2.2208 13.4378 7.86952 10.6228
3 1 -1.1104 0.609147 0.972706 1.17455
7 1 -1.1104 0.784983 1.57719 3.91932
13 2 2.2208 5.05227 2.59259 2.38094
17 1 -1.1104 3.33662 1.20485 0.860979
20 1 -1.1104 3.36919 1.16864 3.65495
22 2 2.2208 2.21408 2.77767 5.11935
54 2 2.2208 5.02135 5.45898 5.39831
56 1 -1.1104 0.626348 6.94637 0.457152
60 1 -1.1104 0.756011 4.14796 0.786365
67 1 -1.1104 0.750119 4.31808 3.585
71 1 -1.1104 3.25612 6.98892 1.08946
72 2 2.2208 2.29387 5.35959 2.44423
76 1 -1.1104 3.32316 4.06684 1.14629
79 1 -1.1104 3.63656 4.14889 3.86321
58 1 -1.1104 0.947514 6.92103 3.68237
9 1 -1.1104 6.17525 1.12904 3.67556
59 1 -1.1104 6.40787 6.66274 3.64715
69 1 -1.1104 6.35779 3.91242 4.12937
173 1 -1.1104 3.64329 1.23519 6.5585
57 1 -1.1104 6.2457 6.7884 1.01566
63 1 -1.1104 6.47531 4.15168 0.910968
74 1 -1.1104 3.53372 6.77395 4.0461
9424 2 2.2208 13.5226 10.9808 2.54418
236 1 -1.1104 0.58331 3.84051 6.38586
234 1 -1.1104 0.801164 6.72184 6.48235
149 1 -1.1104 12.0749 15.0408 6.59222
5 1 -1.1104 6.09105 1.2687 0.839752
33 1 -1.1104 12.0537 0.981154 0.937771
35 1 -1.1104 11.952 1.04118 3.67686
38 2 2.2208 10.6436 2.41717 2.24775
41 1 -1.1104 8.84715 1.05424 0.881919
44 1 -1.1104 9.16536 1.04672 3.52371
46 2 2.2208 7.85493 2.41494 5.04444
84 2 2.2208 10.6238 5.05322 5.20439
86 1 -1.1104 12.325 6.62124 0.627384
87 1 -1.1104 11.9853 6.38777 3.43591
88 1 -1.1104 12.264 3.71799 1.22177
92 1 -1.1104 12.2416 3.76115 3.84919
94 1 -1.1104 9.53831 6.52327 0.919929
95 2 2.2208 7.89092 5.49578 2.31554
99 1 -1.1104 9.27326 3.86185 1.08421
102 1 -1.1104 9.20369 3.88538 3.79855
97 1 -1.1104 9.19956 6.84322 3.94235
51 2 2.2208 7.91046 -5.79403 2.26064
386 2 2.2208 10.8777 10.9456 -0.453695
370 2 2.2208 10.6118 -0.266495 -0.313374
269 1 -1.1104 9.08843 3.60454 6.52157
346 2 2.2208 13.5227 19.4623 -0.28112
55 2 2.2208 4.92784 10.9689 5.31217
61 1 -1.1104 0.671187 9.70846 1.07796
66 2 2.2208 4.87338 8.14279 2.36346
68 1 -1.1104 0.727763 9.38315 3.68122
73 2 2.2208 2.21107 11.0586 2.42323
75 2 2.2208 2.15585 8.25317 5.32901
77 1 -1.1104 3.64093 9.7207 1.18573
80 1 -1.1104 3.60737 9.59306 3.92045
107 1 -1.1104 0.97101 12.6691 1.25759
113 1 -1.1104 0.852845 12.4614 3.68304
123 1 -1.1104 3.74792 12.1628 0.813173
128 1 -1.1104 3.68958 12.3289 3.74264
64 1 -1.1104 6.56039 9.24454 1.062
78 1 -1.1104 3.35835 9.80356 6.66202
70 1 -1.1104 6.58546 9.63703 4.04603
115 1 -1.1104 6.52075 12.4852 3.77233
9426 2 2.2208 13.32 16.4531 8.12304
65 1 -1.1104 6.26266 9.64948 6.51133
9342 2 2.2208 13.4857 10.8575 7.9222
204 2 2.2208 -0.445575 -5.84186 10.6279
316 2 2.2208 7.87962 19.5242 11.3657
110 1 -1.1104 6.29516 12.4925 0.83143
85 2 2.2208 10.6418 11.0435 5.04817
89 1 -1.1104 12.2213 9.51678 1.03717
91 2 2.2208 10.7987 8.23326 2.2779
93 1 -1.1104 12.2876 9.56096 3.81854
96 2 2.2208 7.70487 11.0262 2.4423
98 2 2.2208 7.81905 8.18048 5.26006
100 1 -1.1104 9.44961 9.63419 0.986426
103 1 -1.1104 9.40674 9.61172 3.82652
142 1 -1.1104 12.1775 12.0654 1.0305
146 1 -1.1104 12.0873 12.3579 3.58102
153 1 -1.1104 9.41343 12.4909 0.842792
158 1 -1.1104 9.37933 12.2499 3.74277
150 2 2.2208 10.519 13.7252 2.36139
9228 2 2.2208 13.5339 13.7497 4.92339
368 2 2.2208 2.13964 2.56391 -0.396768
154 1 -1.1104 9.0283 12.1293 6.45313
620 2 2.2208 4.97212 -5.79365 -0.354714
230 2 2.2208 13.4671 -3.0093 10.8202
364 2 2.2208 10.6894 13.782 13.672
9130 2 2.2208 13.6705 2.27919 5.09078
119 2 2.2208 4.91971 13.692 2.38627
130 2 2.2208 2.22136 13.9233 5.37072
106 2 2.2208 5.26973 16.7677 5.20054
109 1 -1.1104 0.812966 18.1868 0.880084
114 1 -1.1104 0.886129 18.1992 3.61314
116 1 -1.1104 0.839166 15.4195 1.19077
120 2 2.2208 5.00016 19.5737 2.45884
121 1 -1.1104 0.759625 15.5034 3.96959
125 1 -1.1104 3.59007 18.045 0.953815
127 2 2.2208 2.28113 16.6403 2.47939
129 1 -1.1104 3.60658 18.1886 4.00478
131 2 2.2208 1.98882 19.6268 5.02251
132 1 -1.1104 3.39097 15.0612 0.725641
134 1 -1.1104 3.81074 15.2449 3.86192
302 1 -1.1104 0.714896 18.2234 6.54187
139 1 -1.1104 6.40169 18.2094 3.82327
140 1 -1.1104 6.33061 15.1006 0.805856
9425 2 2.2208 13.4471 5.16576 2.41477
112 1 -1.1104 6.60286 17.976 6.58269
354 2 2.2208 2.19035 5.52909 13.5421
324 2 2.2208 10.4171 19.2165 7.92999
160 2 2.2208 8.06758 13.8931 5.15819
9392 2 2.2208 13.2994 19.4483 10.8289
138 1 -1.1104 6.62581 18.0891 0.841338
122 1 -1.1104 6.55345 15.3943 3.81899
141 2 2.2208 10.7044 16.6708 5.04538
144 1 -1.1104 12.0172 18.0172 1.17295
147 1 -1.1104 12.0745 18.0255 3.96801
148 1 -1.1104 12.0878 15.114 0.87473
151 2 2.2208 10.7218 19.5757 2.28957
152 1 -1.1104 12.0651 15.1507 3.65732
155 1 -1.1104 9.38358 18.1125 0.895883
157 2 2.2208 7.9624 16.6311 2.26189
159 1 -1.1104 9.3154 18.0396 3.50013
161 2 2.2208 7.77127 19.4202 5.05773
162 1 -1.1104 9.23533 15.2794 0.984303
164 1 -1.1104 9.43689 15.0212 3.73542
9207 2 2.2208 13.5444 19.3904 5.35117
170 1 -1.1104 1.02358 -1.51484 6.46078
172 1 -1.1104 3.71221 -4.38654 6.40288
174 1 -1.1104 3.71149 -1.65448 6.57597
166 1 -1.1104 0.850656 -4.40961 6.59625
175 2 2.2208 4.94019 -0.137521 10.9031
176 1 -1.1104 0.724388 -4.374 12.2881
180 1 -1.1104 0.990058 -4.44957 9.26808
184 1 -1.1104 0.908787 -1.70467 12.6108
186 2 2.2208 5.15786 -3.16254 7.76573
188 1 -1.1104 0.702986 -1.80971 9.60829
190 1 -1.1104 3.72185 -4.64216 12.318
192 2 2.2208 2.14937 -0.201759 8.11082
193 1 -1.1104 3.88932 -4.77563 9.3528
195 2 2.2208 2.35727 -3.05828 10.8627
197 1 -1.1104 3.74551 -1.6636 12.3049
198 1 -1.1104 3.68444 -1.63419 9.46687
178 1 -1.1104 6.60998 -4.73766 12.0005
182 1 -1.1104 6.59431 -4.71601 9.179
185 1 -1.1104 6.50158 -1.87641 12.273
189 1 -1.1104 6.40596 -1.93896 9.37728
207 1 -1.1104 12.1473 -1.77556 6.57751
375 2 2.2208 5.0221 16.6061 -0.450997
208 1 -1.1104 9.01372 -4.67741 6.63326
211 2 2.2208 10.7483 -0.490716 10.7063
212 1 -1.1104 12.1857 -4.52524 12.0306
214 1 -1.1104 12.111 -4.60367 9.37155
216 1 -1.1104 12.255 -1.54579 12.2286
217 2 2.2208 10.5692 -3.28007 8.00974
219 1 -1.1104 12.1323 -1.78882 9.25923
220 1 -1.1104 9.35638 -4.35603 12.2572
222 2 2.2208 7.57023 -0.268788 7.93655
223 1 -1.1104 9.42775 -4.68816 9.49784
225 2 2.2208 7.92168 -3.14113 10.9138
227 1 -1.1104 9.49651 -1.58917 12.2231
228 1 -1.1104 9.05237 -1.79999 9.44594
349 2 2.2208 10.7784 16.537 -0.448169
320 2 2.2208 7.96475 16.7058 7.99216
377 2 2.2208 13.4887 -3.09384 -0.248544
50 2 2.2208 13.4646 -3.06783 5.30512
321 1 -1.1104 9.06901 17.9242 12.231
379 2 2.2208 4.82726 5.58288 -0.436477
238 1 -1.1104 3.66677 6.89412 6.84206
169 1 -1.1104 6.47615 1.2532 6.60839
167 1 -1.1104 0.585923 1.20799 6.59516
239 1 -1.1104 3.57931 3.89829 6.7922
177 1 -1.1104 0.684856 1.22816 12.2731
181 1 -1.1104 0.624001 0.816231 9.37761
187 2 2.2208 5.05699 2.75541 7.95151
191 1 -1.1104 3.50669 1.26746 12.151
194 1 -1.1104 3.41037 1.23572 9.3589
196 2 2.2208 2.18075 2.60465 10.9646
240 2 2.2208 5.06593 5.34313 11.0096
244 1 -1.1104 0.886646 6.6333 9.42985
246 1 -1.1104 1.00917 4.00326 12.3382
251 1 -1.1104 0.745817 3.6618 9.50698
255 1 -1.1104 3.66729 6.93366 12.1642
256 2 2.2208 2.15682 5.2441 8.20711
258 1 -1.1104 3.69998 6.56411 9.45471
260 1 -1.1104 3.6201 3.92884 12.3549
262 1 -1.1104 3.82939 3.98573 9.46283
242 1 -1.1104 0.765456 7.03764 12.1117
237 1 -1.1104 6.41471 4.11744 6.85818
183 1 -1.1104 6.10683 1.26451 9.47326
245 1 -1.1104 6.58749 6.80381 9.48156
179 1 -1.1104 6.46888 1.12063 12.2291
243 1 -1.1104 6.69471 6.78973 12.3567
253 1 -1.1104 6.63751 4.16768 9.47484
9341 2 2.2208 13.5997 5.09309 8.13224
206 1 -1.1104 12.01 0.937444 6.58573
265 1 -1.1104 12.1235 6.72449 6.28914
235 1 -1.1104 6.26117 6.8849 6.68818
248 1 -1.1104 6.47536 4.10466 12.4627
266 1 -1.1104 12.1644 3.88427 6.73385
209 1 -1.1104 9.17884 0.873353 6.32618
267 1 -1.1104 9.23779 6.53851 6.60017
213 1 -1.1104 12.3005 1.1088 12.3833
215 1 -1.1104 12.1832 1.07712 9.26777
218 2 2.2208 10.5192 2.13947 7.90127
221 1 -1.1104 9.51329 1.06955 11.9872
224 1 -1.1104 9.1561 0.738744 9.21337
226 2 2.2208 7.89204 2.51126 10.884
268 1 -1.1104 9.42101 3.70678 9.54508
271 1 -1.1104 9.41049 3.66321 12.4237
275 2 2.2208 7.87804 5.43475 8.16022
276 2 2.2208 10.6183 5.10433 10.9829
280 1 -1.1104 12.3058 3.83081 12.5471
283 1 -1.1104 12.3229 3.73012 9.713
285 1 -1.1104 9.43252 6.5137 12.4237
273 1 -1.1104 9.375 6.5048 9.39573
279 1 -1.1104 11.998 6.63559 9.23823
278 1 -1.1104 12.1011 6.63477 12.1452
124 1 -1.1104 3.61339 12.2549 6.77615
108 1 -1.1104 0.894922 12.441 6.74719
62 1 -1.1104 0.79665 9.61657 6.6429
294 1 -1.1104 0.959482 12.3054 9.70437
305 1 -1.1104 3.99489 12.3727 9.48285
287 1 -1.1104 3.56625 12.5574 12.0523
299 1 -1.1104 0.623186 12.3543 12.5916
241 2 2.2208 5.14187 10.956 10.7328
247 1 -1.1104 0.935084 9.71571 12.5641
250 2 2.2208 4.94771 8.33466 8.12726
252 1 -1.1104 0.760672 9.60187 9.55431
257 2 2.2208 2.17825 11.0442 8.18908
259 2 2.2208 2.2204 8.28417 10.9061
261 1 -1.1104 3.88002 9.64153 12.1892
263 1 -1.1104 3.40149 9.63685 9.51659
290 1 -1.1104 6.6218 12.1515 9.26335
297 1 -1.1104 6.42542 12.2032 12.1974
249 1 -1.1104 6.74299 9.67903 12.2019
329 1 -1.1104 11.947 18.0225 12.124
143 1 -1.1104 12.0516 12.3077 6.31456
9159 2 2.2208 13.5069 8.0141 5.27574
49 2 2.2208 13.306 -0.364524 2.14421
111 1 -1.1104 6.34027 12.7174 6.65218
254 1 -1.1104 6.58517 9.47847 9.27204
326 1 -1.1104 11.8175 15.2839 12.4393
90 1 -1.1104 12.1459 9.52795 6.53517
101 1 -1.1104 9.42773 9.59626 6.61093
165 1 -1.1104 11.9715 12.1691 12.3631
328 1 -1.1104 12.2608 12.2983 9.477
322 1 -1.1104 9.1127 12.29 12.1607
319 1 -1.1104 9.23345 12.5486 9.24128
264 1 -1.1104 9.40909 9.45203 9.41424
270 1 -1.1104 9.59312 9.49947 12.1961
272 2 2.2208 7.9789 8.13982 10.7916
274 2 2.2208 7.77012 11.0183 7.78513
277 2 2.2208 10.8668 10.7376 10.7545
281 1 -1.1104 12.4782 9.46467 12.2247
282 2 2.2208 10.6518 8.06316 7.88673
284 1 -1.1104 11.9997 9.48923 9.20707
156 1 -1.1104 9.41249 17.9788 6.61107
117 1 -1.1104 0.601306 15.3605 6.59012
318 1 -1.1104 9.12738 18.1376 9.56095
288 1 -1.1104 6.41699 17.9635 9.1511
118 1 -1.1104 6.65041 15.333 6.67112
126 1 -1.1104 3.55118 17.9316 6.62107
133 1 -1.1104 3.53869 15.1585 6.53265
295 2 2.2208 5.14255 13.8023 7.97849
293 2 2.2208 5.11067 19.4855 7.9883
310 2 2.2208 2.32843 13.8547 10.7397
309 2 2.2208 2.07482 19.5725 10.9359
308 1 -1.1104 3.2187 15.2081 12.3256
307 1 -1.1104 0.531955 15.4264 12.1737
292 1 -1.1104 0.857464 15.1264 9.41529
286 1 -1.1104 3.42217 18.2119 12.3058
304 1 -1.1104 3.64513 15.2335 9.39549
303 2 2.2208 2.35376 16.5273 8.19151
301 1 -1.1104 3.98855 17.8315 9.41186
300 2 2.2208 5.06978 16.7053 10.8146
291 1 -1.1104 0.930683 18.0344 9.46312
298 1 -1.1104 0.704078 18.1382 12.25
289 1 -1.1104 6.50814 14.8853 9.45237
306 1 -1.1104 6.02765 15.4492 12.3856
296 1 -1.1104 6.26802 18.022 12.5431
327 1 -1.1104 11.7985 18.0084 9.36042
229 2 2.2208 13.4629 -0.445483 8.00561
317 2 2.2208 7.85336 13.5592 10.6741
315 1 -1.1104 9.00681 14.9456 12.2671
105 2 2.2208 10.4628 16.6263 10.8877
314 1 -1.1104 9.29577 15.2079 9.1832
145 1 -1.1104 12.2089 17.8239 6.70968
163 1 -1.1104 9.33047 15.1693 6.57744
325 2 2.2208 10.7844 13.8675 7.95496
323 1 -1.1104 12.1338 15.2359 9.60189
385 2 2.2208 7.97465 8.06291 -0.328677
345 2 2.2208 13.5426 13.7142 -0.386952
362 2 2.2208 4.87921 14.052 13.6541
337 2 2.2208 5.16984 -3.09714 13.4268
340 2 2.2208 5.05391 2.60033 13.5309
352 2 2.2208 10.7736 -3.21366 13.5336
9427 2 2.2208 13.5245 16.4625 2.27281
649 2 2.2208 10.9334 -5.82027 -0.371705
336 2 2.2208 2.06061 -5.82418 13.4723
339 2 2.2208 2.15543 -0.22506 13.5851
347 2 2.2208 13.5614 -5.77951 13.6448
351 2 2.2208 7.95285 -0.243879 13.5812
348 2 2.2208 8.01893 13.7741 -0.368481
388 2 2.2208 5.16063 -0.313292 16.7227
389 1 -1.1104 1.03504 -4.90428 17.7142
393 1 -1.1104 0.631139 -4.78374 15.1123
401 1 -1.1104 0.887034 -1.77872 17.9558
403 2 2.2208 4.99438 -3.20596 19.3515
405 1 -1.1104 0.844886 -1.88966 15.3071
409 1 -1.1104 3.60529 -4.55877 18.0752
411 2 2.2208 2.20555 -0.379352 19.4766
412 1 -1.1104 3.79146 -4.27696 15.0506
416 2 2.2208 2.40016 -3.10851 16.549
418 1 -1.1104 3.52665 -1.69722 17.8414
419 1 -1.1104 3.84268 -1.64599 14.8472
402 1 -1.1104 6.51573 -1.62541 17.994
391 1 -1.1104 6.39765 -4.45016 17.8025
397 1 -1.1104 6.36497 -4.62266 15.1062
367 2 2.2208 2.21763 -2.99622 27.7775
413 1 -1.1104 3.78567 -4.72034 20.7904
650 2 2.2208 10.5499 -5.7982 22.2702
357 2 2.2208 7.89699 5.32715 13.8995
407 1 -1.1104 6.59788 -1.74969 15.3655
431 2 2.2208 10.7649 -0.522318 16.5294
432 1 -1.1104 12.2574 -4.46794 18.018
434 1 -1.1104 12.1882 -4.6561 15.1223
438 1 -1.1104 12.246 -1.57719 17.8683
439 2 2.2208 10.6323 -3.2119 19.3882
441 1 -1.1104 12.3973 -1.66516 14.9011
443 1 -1.1104 9.47166 -4.69532 18.081
445 2 2.2208 7.93375 -0.220545 19.1928
446 1 -1.1104 9.24258 -4.54422 15.0501
450 2 2.2208 8.05771 -3.19022 16.5873
452 1 -1.1104 9.32453 -1.6742 17.8105
453 1 -1.1104 9.3639 -1.86385 15.0234
373 2 2.2208 7.66296 2.38192 27.8241
341 2 2.2208 13.4284 10.875 13.7226
653 2 2.2208 13.4065 -3.23696 22.3161
390 1 -1.1104 0.654071 0.897387 17.9666
395 1 -1.1104 0.962752 1.11718 15.2557
404 2 2.2208 5.18557 2.71887 19.3985
410 1 -1.1104 3.51097 1.14995 18.0569
414 1 -1.1104 4.02603 1.07458 15.0827
417 2 2.2208 2.42036 2.52702 16.3095
464 2 2.2208 4.95116 5.49398 16.4848
466 1 -1.1104 0.686183 6.61227 17.9775
468 1 -1.1104 0.982613 6.65772 15.0687
472 1 -1.1104 0.744552 3.78847 17.8172
477 1 -1.1104 0.773078 3.86898 15.0832
485 1 -1.1104 3.44785 6.80974 17.9064
486 2 2.2208 2.30457 5.38288 19.2382
488 1 -1.1104 3.68426 7.15792 14.9791
491 1 -1.1104 3.72936 4.07358 17.9581
493 1 -1.1104 3.76439 4.16952 15.1759
474 1 -1.1104 6.33618 4.01226 17.7431
481 1 -1.1104 6.47743 3.97265 14.9981
9643 2 2.2208 13.5275 19.6119 16.6059
9570 2 2.2208 13.4217 8.36937 16.5046
396 1 -1.1104 0.781321 1.20129 21.0447
427 2 2.2208 13.5601 2.35226 22.2306
467 1 -1.1104 6.70967 6.83625 17.9892
399 1 -1.1104 6.61551 1.25091 14.9404
470 1 -1.1104 6.43404 6.66732 15.1638
392 1 -1.1104 6.62911 1.30362 17.8231
433 1 -1.1104 12.422 1.25479 18.1501
436 1 -1.1104 12.4526 0.933036 15.413
440 2 2.2208 10.7317 2.45905 19.5338
444 1 -1.1104 9.39569 1.25207 17.8757
448 1 -1.1104 9.468 0.967035 15.1585
451 2 2.2208 7.9697 2.68937 16.6464
500 2 2.2208 10.8471 5.44664 16.6739
502 1 -1.1104 12.5765 6.74682 18.1572
503 1 -1.1104 11.8819 6.83652 15.172
505 1 -1.1104 12.0821 3.93845 18.342
508 1 -1.1104 12.2636 3.87429 15.3348
512 1 -1.1104 9.62891 6.8069 18.1964
513 2 2.2208 7.88582 5.59582 19.3735
515 1 -1.1104 9.34187 6.80528 15.5174
518 1 -1.1104 8.98813 4.16207 18.1358
520 1 -1.1104 9.44865 3.77613 15.2065
509 1 -1.1104 12.0228 4.03175 21.4042
350 2 2.2208 7.80359 19.5876 27.7562
374 2 2.2208 2.19595 13.694 27.7365
9762 2 2.2208 13.5832 8.08199 22.3043
521 1 -1.1104 9.39302 3.93989 21.0789
437 1 -1.1104 12.3231 0.784662 20.8141
356 2 2.2208 2.23924 10.9212 13.7481
465 2 2.2208 5.02754 11.1546 16.2495
473 1 -1.1104 0.846487 9.23842 17.8832
476 2 2.2208 5.02058 8.38113 19.2739
479 1 -1.1104 0.934108 9.8162 15.186
487 2 2.2208 2.3401 11.2664 19.3675
490 2 2.2208 2.33342 8.28918 16.5666
492 1 -1.1104 3.58725 10.0257 17.9076
495 1 -1.1104 3.71714 9.88608 15.0439
528 1 -1.1104 0.787472 12.3019 18.1123
532 1 -1.1104 0.790248 12.621 15.4616
548 1 -1.1104 3.68812 12.8095 17.8201
551 1 -1.1104 3.58484 12.6894 15.1881
530 1 -1.1104 6.66743 12.477 18.1015
536 1 -1.1104 6.44832 12.58 14.8883
475 1 -1.1104 6.61206 9.9148 17.8189
483 1 -1.1104 6.39164 9.57247 15.067
9640 2 2.2208 13.5166 13.8744 16.5312
457 2 2.2208 7.64666 -5.84352 19.634
9430 2 2.2208 13.3834 16.7032 13.7779
501 2 2.2208 10.5823 10.9127 16.5455
506 1 -1.1104 12.0261 9.52202 17.8718
507 2 2.2208 10.7012 8.38766 19.5511
510 1 -1.1104 11.9367 9.51031 14.9352
514 2 2.2208 7.71958 11.1037 19.3347
517 2 2.2208 7.94033 8.31822 16.5868
519 1 -1.1104 9.30093 9.61953 17.9112
522 1 -1.1104 9.09043 9.56249 14.8531
564 1 -1.1104 12.1289 12.5764 17.9211
566 1 -1.1104 12.2023 12.513 15.1013
575 1 -1.1104 9.42928 12.5262 17.909
578 1 -1.1104 9.19934 12.3082 15.1553
511 1 -1.1104 12.3414 9.45849 20.89
537 1 -1.1104 6.55847 12.5756 20.8946
555 2 2.2208 2.11726 14.0489 16.6343
527 2 2.2208 4.90756 16.7031 16.6113
529 1 -1.1104 0.586461 18.0526 17.7833
534 1 -1.1104 1.1262 18.4552 14.9456
540 1 -1.1104 0.4969 15.0671 17.8084
542 2 2.2208 5.13235 14.0749 19.4374
543 2 2.2208 4.78441 19.6779 19.2792
544 1 -1.1104 0.420348 15.3971 14.7985
549 1 -1.1104 3.50562 18.1304 18.0825
550 2 2.2208 2.17009 16.5925 19.3225
553 1 -1.1104 3.5541 18.0188 15.2916
556 2 2.2208 2.01126 19.766 16.6252
557 1 -1.1104 3.60136 15.3346 18.0036
558 1 -1.1104 3.43969 15.2121 15.1531
535 1 -1.1104 0.815082 18.2443 20.5323
554 1 -1.1104 3.35657 18.1902 20.7368
538 1 -1.1104 6.36873 18.4982 15.3739
456 2 2.2208 10.6274 -5.88234 16.6494
531 1 -1.1104 6.31876 18.0877 17.9693
541 1 -1.1104 6.40028 15.3395 17.9199
546 1 -1.1104 6.26777 15.3971 15.2153
499 2 2.2208 10.819 13.9547 24.9982
588 1 -1.1104 9.10807 18.2223 26.237
539 1 -1.1104 6.20869 18.4508 20.7535
547 1 -1.1104 6.37528 15.5058 20.6344
616 1 -1.1104 9.33066 15.336 23.5381
563 2 2.2208 10.6912 16.8204 16.5014
565 1 -1.1104 12.0524 18.3319 17.8483
568 1 -1.1104 11.9296 18.2433 15.1012
570 1 -1.1104 12.0451 15.504 18.1467
571 2 2.2208 10.8549 13.8801 19.5236
572 2 2.2208 10.5387 19.4087 19.2608
573 1 -1.1104 12.1165 15.4184 15.306
576 1 -1.1104 9.30893 18.2137 17.7336
577 2 2.2208 7.64873 16.8122 19.5199
580 1 -1.1104 9.02357 18.3632 15.0309
582 2 2.2208 7.97816 13.8979 16.5526
583 2 2.2208 7.69402 19.7452 16.5501
584 1 -1.1104 9.15689 15.442 18.2246
585 1 -1.1104 9.28151 15.2628 15.1471
358 2 2.2208 10.697 7.84942 13.7858
569 1 -1.1104 11.903 17.8836 20.6056
586 1 -1.1104 9.03971 15.4326 20.7479
406 1 -1.1104 0.822703 -1.70786 20.9522
420 1 -1.1104 3.52824 -1.97858 20.6794
366 2 2.2208 5.02983 -0.0834272 27.7521
398 1 -1.1104 6.47332 -4.07575 20.7575
394 1 -1.1104 0.997465 -4.28673 20.5357
591 2 2.2208 5.01527 -0.425021 22.093
592 1 -1.1104 0.609561 -4.41014 23.6845
596 1 -1.1104 0.449929 -4.48687 26.5865
600 1 -1.1104 0.737247 -1.65317 23.6886
602 2 2.2208 4.88678 -3.08595 24.975
604 1 -1.1104 0.728344 -1.53551 26.651
606 1 -1.1104 3.48369 -4.20947 23.8009
608 2 2.2208 2.20065 -0.238872 24.9863
609 1 -1.1104 3.51488 -4.45723 26.3251
611 2 2.2208 2.24709 -3.10883 22.1398
613 1 -1.1104 3.73347 -1.47697 23.3927
614 1 -1.1104 3.49498 -1.60627 26.2052
605 1 -1.1104 6.36606 -1.91738 26.6038
594 1 -1.1104 6.64698 -4.78484 23.7105
408 1 -1.1104 6.46902 -1.34223 20.7091
598 1 -1.1104 6.29588 -4.58706 26.5363
601 1 -1.1104 6.37021 -1.91688 23.7815
442 1 -1.1104 11.7072 -1.8835 20.8111
447 1 -1.1104 9.20947 -4.59028 20.7812
454 1 -1.1104 9.18344 -1.86503 20.6027
590 2 2.2208 13.5547 13.9077 22.2268
9572 2 2.2208 13.528 10.9059 19.4789
435 1 -1.1104 11.9692 -4.58868 20.8852
627 2 2.2208 10.7611 -0.472001 22.0399
628 1 -1.1104 11.9218 -4.61273 23.816
630 1 -1.1104 12.1514 -4.33557 26.5328
632 1 -1.1104 12.1956 -1.80696 23.7782
633 2 2.2208 10.5836 -3.10178 25.2153
635 1 -1.1104 11.8447 -1.74246 26.662
636 1 -1.1104 9.35087 -4.54595 23.6696
638 2 2.2208 7.65762 -0.289462 25.14
639 1 -1.1104 9.35305 -4.4878 26.5071
641 2 2.2208 7.88179 -2.98803 22.2925
643 1 -1.1104 9.30193 -1.81876 23.6507
644 1 -1.1104 9.082 -1.62038 26.5136
478 1 -1.1104 1.09504 4.38231 20.7615
469 1 -1.1104 0.592649 7.0527 20.7011
415 1 -1.1104 3.56383 1.00096 20.8884
489 1 -1.1104 3.55072 6.7407 20.5171
471 1 -1.1104 6.25568 6.83673 20.4988
494 1 -1.1104 3.76015 4.00846 20.801
593 1 -1.1104 0.87509 1.2028 23.7655
597 1 -1.1104 0.898387 1.07068 26.5987
603 2 2.2208 5.14534 2.7461 24.8974
607 1 -1.1104 3.69423 1.2692 23.4978
610 1 -1.1104 3.56917 1.11967 26.503
612 2 2.2208 2.37853 2.55433 22.3264
656 2 2.2208 4.9789 5.59407 22.2844
658 1 -1.1104 0.850099 6.32402 23.3506
660 1 -1.1104 0.998891 7.13848 26.112
662 1 -1.1104 0.745597 3.746 23.3837
667 1 -1.1104 0.840805 3.86278 26.4748
671 1 -1.1104 3.53403 6.93789 23.87
672 2 2.2208 1.96803 5.34087 25.2324
674 1 -1.1104 3.62674 6.91479 26.5882
676 1 -1.1104 3.72488 4.16228 23.5135
678 1 -1.1104 3.46704 4.02286 26.4404
482 1 -1.1104 6.66254 3.8985 20.8909
400 1 -1.1104 6.53878 1.18352 20.5419
659 1 -1.1104 6.28653 7.314 23.5669
595 1 -1.1104 6.56801 1.36186 23.3975
669 1 -1.1104 6.48088 3.81441 26.3026
599 1 -1.1104 6.21468 1.18628 26.232
449 1 -1.1104 9.34772 1.00206 20.8198
504 1 -1.1104 11.718 6.69845 20.8329
617 1 -1.1104 9.32228 15.3087 26.4246
661 1 -1.1104 6.55352 6.74837 26.4826
664 1 -1.1104 6.51213 4.41972 23.6485
516 1 -1.1104 8.96659 6.79801 21.0347
629 1 -1.1104 12.0801 1.0376 23.5516
631 1 -1.1104 11.9481 0.937987 26.5045
634 2 2.2208 10.8686 2.50656 24.8998
637 1 -1.1104 9.38447 1.09755 23.6512
640 1 -1.1104 9.183 1.08245 26.4705
642 2 2.2208 8.03023 2.51319 22.1874
688 1 -1.1104 9.49646 3.84293 26.4314
690 1 -1.1104 9.41996 4.12349 23.8979
692 1 -1.1104 9.20137 6.68187 26.3604
694 2 2.2208 7.89318 5.49744 25.1042
695 2 2.2208 10.5722 5.55151 22.399
697 1 -1.1104 12.2659 7.05174 23.6839
698 1 -1.1104 12.2136 6.68759 26.253
699 1 -1.1104 12.3574 3.9249 23.8385
702 1 -1.1104 12.5701 3.69235 26.6679
704 1 -1.1104 9.06114 7.00973 23.6852
458 2 2.2208 13.5 16.7753 24.8633
480 1 -1.1104 1.1315 9.62932 20.5498
552 1 -1.1104 3.79526 12.54 20.7501
533 1 -1.1104 0.964573 12.4506 20.8243
496 1 -1.1104 3.89158 9.60393 20.6406
657 2 2.2208 5.05176 11.1478 22.1759
663 1 -1.1104 0.745468 9.50544 23.5554
666 2 2.2208 4.94699 8.30389 25.0057
668 1 -1.1104 0.604541 9.78855 26.5863
673 2 2.2208 2.18482 10.9433 25.0163
675 2 2.2208 2.27545 8.06007 22.0216
677 1 -1.1104 3.7938 9.54633 23.5207
679 1 -1.1104 3.83484 9.72105 26.3447
682 1 -1.1104 3.71305 12.4984 26.2626
707 1 -1.1104 0.842846 12.4076 23.571
713 1 -1.1104 3.38263 12.2531 23.3657
717 1 -1.1104 0.684756 12.4468 26.6353
484 1 -1.1104 6.52241 9.72499 21.0276
721 1 -1.1104 6.51916 12.5316 23.4591
708 2 2.2208 13.6375 11.0001 25.0522
579 1 -1.1104 9.26875 12.3422 20.8969
712 1 -1.1104 6.54166 12.2818 26.4207
665 1 -1.1104 6.47334 9.87217 23.9029
670 1 -1.1104 6.4997 9.39399 26.5972
523 1 -1.1104 9.30515 9.64801 20.8321
567 1 -1.1104 12.0514 12.3776 20.9383
587 1 -1.1104 9.16392 12.4857 26.3701
526 1 -1.1104 9.55403 12.5823 23.7292
687 1 -1.1104 9.80899 9.60784 26.4871
689 1 -1.1104 9.43221 9.6835 23.554
691 2 2.2208 7.93415 8.39597 22.1494
693 2 2.2208 7.9971 11.1352 24.7913
696 2 2.2208 10.8817 11.0156 22.173
700 1 -1.1104 12.1724 9.76154 23.6741
701 2 2.2208 10.8426 8.23855 25.0761
703 1 -1.1104 12.4489 9.69865 26.4742
461 1 -1.1104 12.4763 12.5165 23.4584
463 1 -1.1104 12.1071 12.5118 26.3939
387 2 2.2208 13.6672 7.98428 27.6614
654 2 2.2208 13.3042 -0.459789 24.9253
714 1 -1.1104 6.63248 15.3642 26.3402
545 1 -1.1104 0.585595 15.3265 20.7788
365 2 2.2208 7.65565 16.7868 13.8718
559 1 -1.1104 3.55398 15.1317 20.8868
720 2 2.2208 5.21612 13.9031 24.9848
647 2 2.2208 2.11946 14.0163 22.3164
652 2 2.2208 2.05134 19.7212 21.9241
655 1 -1.1104 3.28053 15.6337 23.5521
680 1 -1.1104 0.64981 15.2813 23.5754
683 1 -1.1104 3.72312 15.3333 26.3619
686 2 2.2208 2.13101 16.8952 24.963
705 1 -1.1104 3.65099 18.3104 26.4374
706 2 2.2208 4.9352 16.9739 22.3275
709 1 -1.1104 0.747261 18.167 23.4963
711 1 -1.1104 3.59929 18.1719 23.8555
715 1 -1.1104 0.601749 18.1199 26.3431
716 1 -1.1104 0.79833 15.2903 26.6028
719 2 2.2208 4.95741 19.4497 24.9992
462 1 -1.1104 11.99 18.1237 23.6683
681 1 -1.1104 6.46875 15.2079 23.5205
376 2 2.2208 2.30225 19.4801 27.7685
384 2 2.2208 10.7863 5.17335 27.6941
525 1 -1.1104 12.0713 15.4292 26.3177
9497 2 2.2208 13.4439 19.733 22.1502
589 2 2.2208 8.07815 13.92 22.1817
718 1 -1.1104 6.60562 18.0315 23.7552
581 1 -1.1104 9.13 18.2415 20.8088
9642 2 2.2208 13.4183 16.7514 19.3868
561 2 2.2208 8.0295 16.6871 24.8601
497 1 -1.1104 12.0502 18.0569 26.6575
615 2 2.2208 7.72111 19.6765 22.1679
524 2 2.2208 10.6293 19.644 24.9225
574 1 -1.1104 12.3548 15.2534 20.8685
498 1 -1.1104 11.9806 15.2452 23.5269
562 1 -1.1104 6.31844 17.9542 26.5716
560 1 -1.1104 9.17969 18.2175 23.5429
460 2 2.2208 10.4805 16.9817 22.2142
363 2 2.2208 10.7184 19.6352 13.7991
353 2 2.2208 10.8527 2.49391 13.9051
685 2 2.2208 -0.303484 10.7633 22.1197
381 2 2.2208 5.32931 10.9032 27.8003
423 2 2.2208 2.26811 -5.8494 19.288
9571 2 2.2208 13.3232 5.37239 19.6341
455 2 2.2208 13.6095 -5.79618 19.3708
645 2 2.2208 -0.425837 19.5657 25.0061
359 2 2.2208 7.86485 11.136 13.6765
371 2 2.2208 7.87441 -3.2383 27.7718
360 2 2.2208 2.22112 16.6953 13.782
361 2 2.2208 4.74981 19.4528 13.7164
722 2 2.2208 4.93016 22.4121 5.36837
724 1 -1.1104 0.621239 24.1188 1.14261
725 1 -1.1104 0.574244 23.8334 3.82756
726 1 -1.1104 0.71512 21.0977 1.03117
728 2 2.2208 5.0182 25.0084 2.56133
729 1 -1.1104 0.658219 21.0734 3.89746
731 1 -1.1104 3.40287 23.8517 1.03576
732 2 2.2208 1.8394 22.5056 2.50767
734 1 -1.1104 3.39061 23.7323 4.0455
735 2 2.2208 1.97558 25.0454 5.34288
736 1 -1.1104 3.69491 20.9017 0.896231
737 1 -1.1104 3.54487 26.5856 0.831294
738 1 -1.1104 3.20121 21.0386 3.81666
730 1 -1.1104 0.816185 26.7594 3.74365
744 1 -1.1104 6.31975 23.7683 4.00207
727 1 -1.1104 0.684389 26.9262 1.13604
747 1 -1.1104 6.19968 21.0268 3.71666
743 1 -1.1104 6.21709 23.5862 0.990453
739 1 -1.1104 3.64195 26.6541 3.80856
871 1 -1.1104 3.62853 26.4 6.86761
869 1 -1.1104 3.64679 23.8502 6.81245
748 1 -1.1104 6.4288 26.6682 3.80705
868 1 -1.1104 6.52138 26.5127 6.54305
865 1 -1.1104 0.407238 20.8719 6.55919
745 1 -1.1104 6.48464 20.7838 0.865333
749 2 2.2208 10.6355 22.2727 5.24852
751 1 -1.1104 12.3363 23.7981 1.01245
752 1 -1.1104 12.3191 23.7359 4.07584
753 1 -1.1104 12.0435 20.9545 1.02862
755 2 2.2208 10.6598 25.2605 2.53565
756 1 -1.1104 11.899 21.1765 3.67408
758 1 -1.1104 9.21717 23.8767 0.968317
759 2 2.2208 7.59057 22.1415 2.39922
761 1 -1.1104 9.10658 23.5534 3.59074
762 2 2.2208 7.74356 25.1254 5.02221
763 1 -1.1104 9.05876 20.9969 0.960496
765 1 -1.1104 9.13597 20.7836 3.64721
754 1 -1.1104 11.9302 26.8096 1.17612
757 1 -1.1104 12.2359 26.6501 3.74042
764 1 -1.1104 8.84347 26.8 1.06309
766 1 -1.1104 9.31171 26.4373 3.80205
901 1 -1.1104 9.20955 26.5818 6.58863
899 1 -1.1104 9.17861 23.8096 6.60819
10004 2 2.2208 13.4262 36.5558 10.9696
864 1 -1.1104 6.47012 23.6972 6.72446
897 1 -1.1104 11.8819 20.7952 6.60358
1044 2 2.2208 2.20874 33.857 13.6493
769 2 2.2208 13.4641 25.1853 5.3262
1583 1 -1.1104 6.64516 46.3263 12.5439
723 2 2.2208 5.0522 27.9183 5.16479
733 2 2.2208 2.15534 28.1857 2.3279
771 1 -1.1104 0.564213 29.6175 0.971656
774 1 -1.1104 0.632285 29.8295 3.85763
777 1 -1.1104 0.766127 32.4006 0.78119
778 2 2.2208 4.83664 30.8956 2.31144
780 1 -1.1104 0.499715 32.6366 3.38086
782 1 -1.1104 3.56644 29.6359 0.819741
785 1 -1.1104 3.24574 29.5547 3.62144
787 2 2.2208 2.11945 30.9051 5.32305
789 1 -1.1104 3.35592 32.4588 0.955029
790 1 -1.1104 3.40661 32.2847 3.8668
920 1 -1.1104 0.798944 29.4461 6.69121
928 1 -1.1104 3.78379 32.2518 6.48146
795 1 -1.1104 6.36738 29.5772 3.84058
796 1 -1.1104 6.58322 32.4182 0.9159
1610 1 -1.1104 9.16713 46.3958 6.4626
926 1 -1.1104 3.42627 29.3174 6.4427
924 1 -1.1104 0.7924 32.2411 6.6792
922 1 -1.1104 6.26775 29.4569 6.53927
746 1 -1.1104 6.16156 26.621 0.838708
781 1 -1.1104 6.25483 32.2382 3.91549
794 1 -1.1104 6.34758 29.6018 0.881848
750 2 2.2208 10.6712 28.1744 5.26073
760 2 2.2208 7.79003 28.2756 2.38767
798 1 -1.1104 12.0365 29.6935 0.802137
800 1 -1.1104 12.2093 29.2889 4.15349
802 1 -1.1104 11.9071 32.5929 0.844255
803 2 2.2208 10.8064 30.9437 2.51824
805 1 -1.1104 12.0618 32.2532 3.82695
806 1 -1.1104 9.27809 29.5547 1.07643
809 1 -1.1104 9.24861 29.6175 3.94665
811 2 2.2208 7.88136 30.8676 5.40979
813 1 -1.1104 9.3149 32.2396 1.29966
814 1 -1.1104 8.99366 32.4724 4.01871
954 1 -1.1104 11.769 29.312 6.86882
956 1 -1.1104 11.9302 32.1395 6.64727
9887 2 2.2208 13.341 42.2424 5.32565
770 2 2.2208 4.99738 33.6599 5.17647
772 1 -1.1104 0.88582 35.4211 1.05451
775 1 -1.1104 0.600245 35.3058 3.69678
779 2 2.2208 5.18997 36.4691 2.32364
783 1 -1.1104 3.75782 35.3172 1.05086
784 2 2.2208 1.97086 33.8807 2.27378
786 1 -1.1104 3.5355 35.0821 3.67912
788 2 2.2208 2.11837 36.6069 4.9829
816 2 2.2208 4.78415 39.2436 4.95058
822 1 -1.1104 0.707872 38.156 0.698225
827 1 -1.1104 0.645344 38.0047 3.74239
832 2 2.2208 2.09253 39.5172 2.26321
836 1 -1.1104 3.85771 38.2968 1.07187
838 1 -1.1104 3.46345 37.8374 3.72069
921 1 -1.1104 0.629243 35.125 6.60818
829 1 -1.1104 6.2501 37.56 3.91551
776 1 -1.1104 6.45514 35.1562 4.02372
824 1 -1.1104 6.57093 37.9564 0.896356