LAMMPS (29 Oct 2020)
OMP_NUM_THREADS environment is not set. Defaulting to 1 thread. (../comm.cpp:94)
  using 1 OpenMP thread(s) per MPI task
#---------------------------------------
#
# This script is used to calculate the thermal conuctivity of UO2 using Muller-Plathe method
# By Ziqiang Wang on 03/18/2022 on Jilin university
#
#---------------------------------------

variable     Nevery    equal   50
variable     T         equal   900

clear
OMP_NUM_THREADS environment is not set. Defaulting to 1 thread. (../comm.cpp:94)
  using 1 OpenMP thread(s) per MPI task
units          metal
boundary       p p p
atom_style     full

read_data Frenkel_0.0025_relaxed.dat
Reading data file ...
  triclinic box = (-0.14010919 -1.6241062 -0.13512694) to (28.034109 336.35211 28.029127) with tilt (0.0000000 0.0000000 0.0000000)
  2 by 13 by 2 MPI processor grid
  reading atoms ...
  18000 atoms
  reading velocities ...
  18000 velocities
Finding 1-2 1-3 1-4 neighbors ...
  special bond factors lj:    0.0      0.0      0.0     
  special bond factors coul:  0.0      0.0      0.0     
     0 = max # of 1-2 neighbors
     0 = max # of 1-3 neighbors
     0 = max # of 1-4 neighbors
     1 = max # of special neighbors
  special bonds CPU = 0.004 seconds
  read_data CPU = 0.066 seconds

set           type     1    charge     -1.1104
Setting atom values ...
  11970 settings made for charge
set           type     2    charge      2.2208
Setting atom values ...
  5985 settings made for charge
set           type     3    charge     -1.1104
Setting atom values ...
  30 settings made for charge
set           type     4    charge      2.2208
Setting atom values ...
  15 settings made for charge

kspace_style    pppm   1.0e-05
pair_style      hybrid/overlay  coul/long  11.0  eam/alloy
pair_coeff      * * coul/long
pair_coeff      * * eam/alloy CeThUNpPuAmCmO.eam.alloy O Th O Th
newton          on
neighbor        0.3 bin
neigh_modify    delay 0 check yes every 1

#The first equilation
velocity        all create $T 10004 mom yes rot yes dist gaussian
velocity        all create 900 10004 mom yes rot yes dist gaussian
fix             nvt  all  nvt  temp  $T $T  0.1
fix             nvt  all  nvt  temp  900 $T  0.1
fix             nvt  all  nvt  temp  900 900  0.1

run             100000
PPPM initialization ...
  using 12-bit tables for long-range coulomb (../kspace.cpp:328)
  G vector (1/distance) = 0.29862751
  grid = 40 240 40
  stencil order = 5
  estimated absolute RMS force accuracy = 0.00015940513
  estimated relative force accuracy = 1.1070073e-05
  using single precision MKL FFT
  3d grid and FFT values/proc = 15000 7600
Neighbor list info ...
  update every 1 steps, delay 0 steps, check yes
  max neighbors/atom: 2000, page size: 100000
  master list distance cutoff = 11.3
  ghost atom cutoff = 11.3
  binsize = 5.65, bins = 5 60 5
  2 neighbor lists, perpetual/occasional/extra = 2 0 0
  (1) pair coul/long, perpetual
      attributes: half, newton on
      pair build: half/bin/newton/tri
      stencil: half/bin/3d/newton/tri
      bin: standard
  (2) pair eam/alloy, perpetual, copy from (1)
      attributes: half, newton on
      pair build: copy
      stencil: none
      bin: none
Per MPI rank memory allocation (min/avg/max) = 8.320 | 8.348 | 8.365 Mbytes
Step Temp E_pair E_mol TotEng Press 
       0          900   -234471.31            0   -232377.42   -1055.4167 
  100000    893.18807   -234502.27            0   -232424.22   -1386.6252 
Loop time of 684.565 on 52 procs for 100000 steps with 18000 atoms

Performance: 12.621 ns/day, 1.902 hours/ns, 146.078 timesteps/s
99.8% CPU use with 52 MPI tasks x 1 OpenMP threads

MPI task timing breakdown:
Section |  min time  |  avg time  |  max time  |%varavg| %total
---------------------------------------------------------------
Pair    | 454.88     | 463.08     | 470.25     |  19.4 | 67.65
Bond    | 0.0064412  | 0.010228   | 0.016158   |   2.0 |  0.00
Kspace  | 129.73     | 140.21     | 149.65     |  49.7 | 20.48
Neigh   | 57.135     | 60.714     | 65.043     |  27.2 |  8.87
Comm    | 14.816     | 15.934     | 17.906     |  20.1 |  2.33
Output  | 5.4206e-05 | 6.0084e-05 | 0.00027619 |   0.0 |  0.00
Modify  | 1.8792     | 3.3064     | 4.8414     |  55.3 |  0.48
Other   |            | 1.313      |            |       |  0.19

Nlocal:        346.154 ave         369 max         326 min
Histogram: 2 5 8 11 2 9 5 1 7 2
Nghost:        4069.56 ave        4168 max        3991 min
Histogram: 7 13 2 1 3 9 5 3 4 5
Neighs:        69825.8 ave       73645 max       65341 min
Histogram: 2 2 5 12 5 4 2 9 4 7

Total # of neighbors = 3630942
Ave neighs/atom = 201.71900
Ave special neighs/atom = 0.0000000
Neighbor list builds = 19780
Dangerous builds = 0
unfix           nvt
reset_timestep  0

# the second run
fix             1 all nve

group           oxygen type 1
11970 atoms in group oxygen
fix             2 oxygen thermal/conductivity ${Nevery} y 20
fix             2 oxygen thermal/conductivity 50 y 20

compute         ke all ke/atom
variable        temp atom c_ke/1.5
compute         layers all chunk/atom bin/1d y lower 0.05 units reduced
fix             3      all ave/chunk  2000 50 100000 layers v_temp file profile_${T}K.mp
fix             3      all ave/chunk  2000 50 100000 layers v_temp file profile_900K.mp

variable        Tdiff    equal     f_3[11][3]-f_3[1][3]
variable        deltaT   equal     v_Tdiff*1.5/0.0001292

timestep        0.001
thermo_style    custom step f_2 temp v_Tdiff v_deltaT
thermo          100000

run             1000000
PPPM initialization ...
  using 12-bit tables for long-range coulomb (../kspace.cpp:328)
  G vector (1/distance) = 0.29862751
  grid = 40 240 40
  stencil order = 5
  estimated absolute RMS force accuracy = 0.00015940513
  estimated relative force accuracy = 1.1070073e-05
  using single precision MKL FFT
  3d grid and FFT values/proc = 15000 7600
Per MPI rank memory allocation (min/avg/max) = 8.570 | 8.598 | 8.616 Mbytes
Step f_2 Temp v_Tdiff v_deltaT 
       0            0    893.18807            0            0 
  100000     997.1744    887.66294  0.031117033    361.26586 
  200000    1985.3293    898.28638  0.034001531    394.75462 
  300000    2967.1592    889.48834  0.034738657    403.31259 
  400000    3953.6132    899.57128  0.034415753     399.5637 
  500000    4938.4425    894.08479  0.033939331    394.03247 
  600000    5921.1645     893.8983  0.034689329    402.73989 
  700000    6906.0241    895.74573  0.034427412    399.69906 
  800000    7894.0443    902.12086  0.033906439    393.65061 
  900000    8885.9019    906.70181  0.033601808    390.11387 
 1000000     9878.064    896.84538  0.032992478    383.03961 
Loop time of 6808.39 on 52 procs for 1000000 steps with 18000 atoms

Performance: 12.690 ns/day, 1.891 hours/ns, 146.878 timesteps/s
99.9% CPU use with 52 MPI tasks x 1 OpenMP threads

MPI task timing breakdown:
Section |  min time  |  avg time  |  max time  |%varavg| %total
---------------------------------------------------------------
Pair    | 4502.3     | 4581.7     | 4667.4     |  57.1 | 67.29
Bond    | 0.06118    | 0.10148    | 0.15808    |   6.2 |  0.00
Kspace  | 1297.9     | 1413.5     | 1501.3     | 141.0 | 20.76
Neigh   | 584.83     | 618.48     | 660.75     |  81.9 |  9.08
Comm    | 149.1      | 159.17     | 176.27     |  58.5 |  2.34
Output  | 0.0010713  | 0.0011317  | 0.0023994  |   0.5 |  0.00
Modify  | 5.4241     | 5.8702     | 6.4147     |  10.2 |  0.09
Other   |            | 29.55      |            |       |  0.43

Nlocal:        346.154 ave         368 max         325 min
Histogram: 1 4 4 13 7 6 6 6 2 3
Nghost:        4073.54 ave        4157 max        3998 min
Histogram: 8 5 5 1 8 8 5 2 5 5
Neighs:        69842.1 ave       74410 max       65087 min
Histogram: 1 4 5 7 10 6 6 9 2 2

Total # of neighbors = 3631791
Ave neighs/atom = 201.76617
Ave special neighs/atom = 0.0000000
Neighbor list builds = 200993
Dangerous builds = 0

Total wall time: 2:04:53
