LAMMPS (29 Oct 2020)
OMP_NUM_THREADS environment is not set. Defaulting to 1 thread. (../comm.cpp:94)
  using 1 OpenMP thread(s) per MPI task
#---------------------------------------
#
# This script is used to calculate the thermal conuctivity of UO2 using Muller-Plathe method
# By Ziqiang Wang on 03/18/2022 on Jilin university
#
#---------------------------------------

variable     Nevery    equal   50
variable     T         equal   600

clear
OMP_NUM_THREADS environment is not set. Defaulting to 1 thread. (../comm.cpp:94)
  using 1 OpenMP thread(s) per MPI task
units          metal
boundary       p p p
atom_style     full

read_data vac_0.005_relaxed.dat
Reading data file ...
  orthogonal box = (-0.35251335 -4.3413457 -0.35893375) to (27.692513 332.42135 27.698934)
  2 by 13 by 2 MPI processor grid
  reading atoms ...
  17910 atoms
  reading velocities ...
  17910 velocities
Finding 1-2 1-3 1-4 neighbors ...
  special bond factors lj:    0.0      0.0      0.0     
  special bond factors coul:  0.0      0.0      0.0     
     0 = max # of 1-2 neighbors
     0 = max # of 1-3 neighbors
     0 = max # of 1-4 neighbors
     1 = max # of special neighbors
  special bonds CPU = 0.004 seconds
  read_data CPU = 0.086 seconds

set           type     1    charge     -1.1104
Setting atom values ...
  11940 settings made for charge
set           type     2    charge      2.2208
Setting atom values ...
  5970 settings made for charge

kspace_style    pppm   1.0e-05
pair_style      hybrid/overlay  coul/long  11.0  eam/alloy
pair_coeff      * * coul/long
pair_coeff      * * eam/alloy CeThUNpPuAmCmO.eam.alloy O Th
newton          on
neighbor        0.3 bin
neigh_modify    delay 0 check yes every 1

#The first equilation
velocity        all create $T 10005 mom yes rot yes dist gaussian
velocity        all create 600 10005 mom yes rot yes dist gaussian
fix             nvt  all  nvt  temp  $T $T  0.1
fix             nvt  all  nvt  temp  600 $T  0.1
fix             nvt  all  nvt  temp  600 600  0.1

run             100000
PPPM initialization ...
  using 12-bit tables for long-range coulomb (../kspace.cpp:328)
  G vector (1/distance) = 0.29883925
  grid = 40 240 40
  stencil order = 5
  estimated absolute RMS force accuracy = 0.00015728343
  estimated relative force accuracy = 1.092273e-05
  using single precision MKL FFT
  3d grid and FFT values/proc = 15000 7600
Neighbor list info ...
  update every 1 steps, delay 0 steps, check yes
  max neighbors/atom: 2000, page size: 100000
  master list distance cutoff = 11.3
  ghost atom cutoff = 11.3
  binsize = 5.65, bins = 5 60 5
  2 neighbor lists, perpetual/occasional/extra = 2 0 0
  (1) pair coul/long, perpetual
      attributes: half, newton on
      pair build: half/bin/newton
      stencil: half/bin/3d/newton
      bin: standard
  (2) pair eam/alloy, perpetual, copy from (1)
      attributes: half, newton on
      pair build: copy
      stencil: none
      bin: none
Per MPI rank memory allocation (min/avg/max) = 8.158 | 8.182 | 8.198 Mbytes
Step Temp E_pair E_mol TotEng Press 
       0          600   -234188.23            0   -232799.28   -285.62364 
  100000    607.00912   -234189.14            0   -232783.96   -207.90047 
Loop time of 642.789 on 52 procs for 100000 steps with 17910 atoms

Performance: 13.441 ns/day, 1.786 hours/ns, 155.572 timesteps/s
99.8% CPU use with 52 MPI tasks x 1 OpenMP threads

MPI task timing breakdown:
Section |  min time  |  avg time  |  max time  |%varavg| %total
---------------------------------------------------------------
Pair    | 436.98     | 448.93     | 460.59     |  25.8 | 69.84
Bond    | 0.0065533  | 0.010167   | 0.016364   |   1.9 |  0.00
Kspace  | 127.42     | 139.77     | 154.57     |  55.5 | 21.74
Neigh   | 31.982     | 34.887     | 36.988     |  19.8 |  5.43
Comm    | 13.816     | 14.82      | 17.235     |  21.2 |  2.31
Output  | 5.6427e-05 | 6.2202e-05 | 0.00026193 |   0.0 |  0.00
Modify  | 1.7256     | 3.0761     | 5.0056     |  60.5 |  0.48
Other   |            | 1.288      |            |       |  0.20

Nlocal:        344.423 ave         371 max         322 min
Histogram: 2 2 9 10 11 3 6 5 3 1
Nghost:        4156.00 ave        4246 max        4044 min
Histogram: 3 3 6 4 1 14 6 4 4 7
Neighs:        69263.7 ave       74742 max       62925 min
Histogram: 2 0 4 5 14 8 7 5 4 3

Total # of neighbors = 3601712
Ave neighs/atom = 201.10061
Ave special neighs/atom = 0.0000000
Neighbor list builds = 16217
Dangerous builds = 0
unfix           nvt
reset_timestep  0

# the second run
fix             1 all nve

group           oxygen type 1
11940 atoms in group oxygen
fix             2 oxygen thermal/conductivity ${Nevery} y 20
fix             2 oxygen thermal/conductivity 50 y 20

compute         ke all ke/atom
variable        temp atom c_ke/1.5
compute         layers all chunk/atom bin/1d y lower 0.05 units reduced
fix             3      all ave/chunk  2000 50 100000 layers v_temp file profile_${T}K.mp
fix             3      all ave/chunk  2000 50 100000 layers v_temp file profile_600K.mp

variable        Tdiff    equal     f_3[11][3]-f_3[1][3]
variable        deltaT   equal     v_Tdiff*1.5/0.0001292

timestep        0.001
thermo_style    custom step f_2 temp v_Tdiff v_deltaT
thermo          100000

run             1500000
PPPM initialization ...
  using 12-bit tables for long-range coulomb (../kspace.cpp:328)
  G vector (1/distance) = 0.29883925
  grid = 40 240 40
  stencil order = 5
  estimated absolute RMS force accuracy = 0.00015728343
  estimated relative force accuracy = 1.092273e-05
  using single precision MKL FFT
  3d grid and FFT values/proc = 15000 7600
Per MPI rank memory allocation (min/avg/max) = 8.408 | 8.433 | 8.449 Mbytes
Step f_2 Temp v_Tdiff v_deltaT 
       0            0    607.00912            0            0 
  100000    710.76217    605.30985  0.017519032    203.39434 
  200000    1408.2307    602.24891  0.018769151     217.9081 
  300000    2111.4158    604.19342  0.018243113    211.80085 
  400000    2807.5932     604.8206   0.01885519    218.90701 
  500000    3511.1767    605.14641  0.018240321    211.76844 
  600000    4205.0664    606.55323  0.018585601     215.7771 
  700000    4903.4718    605.57078   0.01925243    223.51892 
  800000    5604.1794    602.85729  0.018692864    217.02241 
  900000     6307.354    609.49953   0.01901451     220.7567 
 1000000    7010.7799    605.30656   0.01836544    213.22105 
 1100000     7704.884     605.2088  0.019124006    222.02793 
 1200000    8407.5954    605.18133  0.018180232     211.0708 
 1300000    9102.9395    610.10043  0.018907487    219.51417 
 1400000    9805.3505    607.46436  0.018812007    218.40566 
 1500000    10501.997    608.91582  0.019631726    227.92251 
Loop time of 9538.15 on 52 procs for 1500000 steps with 17910 atoms

Performance: 13.588 ns/day, 1.766 hours/ns, 157.263 timesteps/s
99.8% CPU use with 52 MPI tasks x 1 OpenMP threads

MPI task timing breakdown:
Section |  min time  |  avg time  |  max time  |%varavg| %total
---------------------------------------------------------------
Pair    | 6473.9     | 6625       | 6815.9     |  91.2 | 69.46
Bond    | 0.10866    | 0.15157    | 0.20691    |   6.8 |  0.00
Kspace  | 1895.5     | 2099.4     | 2267.2     | 191.0 | 22.01
Neigh   | 493.42     | 537.63     | 569.73     |  74.1 |  5.64
Comm    | 208.66     | 223.55     | 262.4      |  84.0 |  2.34
Output  | 0.0015754  | 0.0016864  | 0.0034918  |   0.6 |  0.00
Modify  | 7.9582     | 8.6356     | 9.2464     |  12.8 |  0.09
Other   |            | 43.72      |            |       |  0.46

Nlocal:        344.423 ave         367 max         323 min
Histogram: 3 1 4 15 5 9 4 7 1 3
Nghost:        4159.96 ave        4239 max        4054 min
Histogram: 4 2 4 5 1 4 14 7 7 4
Neighs:        69265.9 ave       73769 max       63443 min
Histogram: 3 1 1 5 9 12 6 9 2 4

Total # of neighbors = 3601829
Ave neighs/atom = 201.10715
Ave special neighs/atom = 0.0000000
Neighbor list builds = 249087
Dangerous builds = 0

Total wall time: 2:49:41
