ITEM: TIMESTEP
100000
ITEM: NUMBER OF ATOMS
18000
ITEM: BOX BOUNDS pp pp pp
-3.9036868930783697e-01 2.7730368689307937e+01
-4.6571098757361575e+00 3.3273710987574236e+02
-4.1027855792990753e-01 2.7750278557930990e+01
ITEM: ATOMS id type q x y z
1 2 2.2208 5.06693 0.853489 5.22533
2 1 -1.1104 1.04005 -3.11722 1.08892
3 1 -1.1104 0.925504 2.19024 0.921773
6 1 -1.1104 1.07712 -3.25402 3.97446
7 1 -1.1104 0.930484 2.38154 3.73803
10 1 -1.1104 0.929055 -0.471424 0.766034
12 2 2.2208 5.19119 -1.79452 2.33172
13 2 2.2208 5.25641 3.59959 2.41714
14 1 -1.1104 1.10602 -0.475753 3.69661
16 1 -1.1104 3.82438 -3.28672 0.807052
17 1 -1.1104 3.80904 2.19822 0.84171
18 2 2.2208 2.41262 0.894306 2.3051
19 1 -1.1104 4.04204 -3.32828 3.76348
20 1 -1.1104 4.05329 2.2124 3.68538
21 2 2.2208 2.44973 -1.86101 4.97918
23 1 -1.1104 3.71295 -0.721244 1.07521
24 1 -1.1104 3.95738 -0.384205 3.69034
22 2 2.2208 2.23012 3.64411 5.1385
170 1 -1.1104 1.08915 -0.376008 6.56452
173 1 -1.1104 3.67517 2.29293 6.48785
174 1 -1.1104 3.98208 -0.5052 6.58582
167 1 -1.1104 0.908801 2.2478 6.53633
166 1 -1.1104 0.996567 -3.31396 6.71235
172 1 -1.1104 3.78989 -3.44738 6.6556
171 1 -1.1104 6.77714 -0.381982 6.63111
232 2 2.2208 11.0844 -4.65585 10.8509
9 1 -1.1104 6.9568 2.15151 3.84307
15 1 -1.1104 6.53458 -0.338826 3.60327
136 2 2.2208 -0.317914 20.6554 2.48118
204 2 2.2208 -0.371269 -4.48179 10.9229
8 1 -1.1104 6.74932 -3.17575 3.78889
168 1 -1.1104 6.65284 -3.36664 6.50159
11 1 -1.1104 6.52238 -0.405732 0.691729
5 1 -1.1104 6.53172 2.46242 0.819074
4 1 -1.1104 6.61674 -3.21704 1.00801
31 2 2.2208 10.9645 0.910601 5.31701
32 1 -1.1104 12.1029 -3.46731 1.04625
33 1 -1.1104 12.1322 2.28848 0.921203
34 1 -1.1104 12.3291 -3.41751 3.8583
35 1 -1.1104 12.3778 2.27846 3.82733
36 1 -1.1104 12.3567 -0.507926 1.267
37 2 2.2208 11.0383 -1.99538 2.40989
39 1 -1.1104 12.2614 -0.591453 3.79307
40 1 -1.1104 9.31298 -3.33268 0.805914
41 1 -1.1104 9.28445 2.10283 0.862231
42 2 2.2208 8.04 0.792536 2.30503
43 1 -1.1104 9.45362 -3.42138 3.77156
44 1 -1.1104 9.79293 2.2769 3.78169
45 2 2.2208 8.16241 -1.82625 5.12535
47 1 -1.1104 9.51519 -0.587253 0.948311
48 1 -1.1104 9.53162 -0.589724 3.76978
38 2 2.2208 10.8569 3.62671 2.20643
46 2 2.2208 8.06608 3.7902 5.35894
208 1 -1.1104 9.50608 -3.25519 6.77163
205 1 -1.1104 12.352 -3.35938 6.70843
169 1 -1.1104 6.62438 2.41805 6.65716
210 1 -1.1104 9.62624 -0.551055 6.52381
209 1 -1.1104 9.47255 2.44577 6.8037
206 1 -1.1104 12.3781 2.2367 6.6838
207 1 -1.1104 12.2569 -0.618919 6.63005
137 2 2.2208 -0.361043 17.8289 5.23877
711 2 2.2208 13.66 14.9656 -0.370741
9552 2 2.2208 -0.365056 9.34157 7.89002
9458 2 2.2208 13.5908 3.69628 10.7774
104 2 2.2208 13.6691 12.1106 2.23596
54 2 2.2208 5.11821 6.45748 5.15607
55 2 2.2208 5.28841 12.1295 5.11645
56 1 -1.1104 0.986252 7.8825 1.08675
58 1 -1.1104 0.878939 7.74212 3.85244
60 1 -1.1104 1.01484 5.02917 0.767516
61 1 -1.1104 0.808201 10.6024 0.845456
66 2 2.2208 5.49888 9.41209 2.45511
67 1 -1.1104 0.846324 5.04504 3.74505
68 1 -1.1104 1.11279 10.5727 3.70162
71 1 -1.1104 3.69241 7.72814 0.878667
72 2 2.2208 2.50717 6.37382 2.22586
73 2 2.2208 2.33411 12.049 2.27525
74 1 -1.1104 3.95627 7.80353 3.7268
75 2 2.2208 2.39221 9.25895 5.14623
76 1 -1.1104 3.77463 4.88849 1.04191
77 1 -1.1104 3.75905 10.7291 0.805802
79 1 -1.1104 3.83565 4.96623 3.80514
80 1 -1.1104 4.06506 10.6705 3.56782
236 1 -1.1104 1.07622 5.06984 6.53054
234 1 -1.1104 1.04969 7.7848 6.81971
62 1 -1.1104 1.01682 10.7089 6.59399
238 1 -1.1104 3.75836 7.96355 6.71961
57 1 -1.1104 6.64316 7.88881 0.836346
64 1 -1.1104 6.66291 10.5672 0.715548
78 1 -1.1104 3.73249 10.8192 6.26335
235 1 -1.1104 6.54058 7.84644 6.58145
69 1 -1.1104 6.60843 4.97218 3.74936
65 1 -1.1104 6.67973 10.738 6.47606
237 1 -1.1104 6.63191 5.17698 6.71729
331 2 2.2208 10.8351 17.8948 10.7493
320 2 2.2208 8.01985 17.735 7.9121
63 1 -1.1104 6.78637 5.20168 1.02611
70 1 -1.1104 6.77441 10.8842 3.7244
59 1 -1.1104 6.78966 7.8661 3.94533
84 2 2.2208 11.0209 6.6073 5.16975
85 2 2.2208 10.9365 12.1988 5.18975
86 1 -1.1104 12.2741 7.87024 1.04338
87 1 -1.1104 12.5548 8.14443 3.93951
88 1 -1.1104 12.3416 5.07777 0.984341
89 1 -1.1104 12.5745 10.6277 1.05733
91 2 2.2208 11.0194 9.32396 2.33153
92 1 -1.1104 12.2994 5.21863 3.86195
93 1 -1.1104 12.1125 10.9716 3.68949
94 1 -1.1104 9.4744 7.91577 0.853099
95 2 2.2208 8.18495 6.4432 2.30703
96 2 2.2208 8.18905 12.131 2.46274
97 1 -1.1104 9.62681 7.88139 3.75703
98 2 2.2208 8.18293 9.24831 5.24845
99 1 -1.1104 9.61257 5.05607 0.967196
100 1 -1.1104 9.52601 10.7631 0.922178
102 1 -1.1104 9.48688 5.07916 3.81272
103 1 -1.1104 9.56849 10.6753 3.72279
90 1 -1.1104 12.23 10.7946 6.64592
269 1 -1.1104 9.5534 5.32491 6.64039
267 1 -1.1104 9.47128 8.10646 6.77516
265 1 -1.1104 12.2688 8.10133 6.70433
101 1 -1.1104 9.44769 10.9072 6.55034
266 1 -1.1104 12.3635 5.26211 6.48356
9836 2 2.2208 -0.434841 14.8622 13.557
328 1 -1.1104 12.1856 13.7607 9.35559
106 2 2.2208 5.1837 17.7909 5.38064
107 1 -1.1104 0.865196 13.3991 0.859222
109 1 -1.1104 1.11299 19.2864 1.09238
113 1 -1.1104 1.21309 13.6187 3.57448
114 1 -1.1104 1.06539 19.1269 3.88575
116 1 -1.1104 1.08665 16.3012 1.11212
119 2 2.2208 5.14795 15.0552 2.37828
120 2 2.2208 5.2226 20.4006 2.46266
121 1 -1.1104 1.06386 16.417 3.85894
123 1 -1.1104 3.77079 13.6301 1.04892
125 1 -1.1104 3.86964 19.1211 1.19622
127 2 2.2208 2.42474 17.7165 2.48661
128 1 -1.1104 3.75534 13.489 3.83535
129 1 -1.1104 3.81954 19.0712 3.99079
130 2 2.2208 2.50154 15.0113 5.15834
131 2 2.2208 2.5884 20.5906 5.2504
132 1 -1.1104 3.84461 16.5531 1.03957
134 1 -1.1104 3.96995 16.2344 3.92302
302 1 -1.1104 1.05965 19.1933 6.74466
124 1 -1.1104 3.73236 13.5647 6.6422
133 1 -1.1104 3.63407 16.5332 6.68032
117 1 -1.1104 0.973874 16.322 6.68186
108 1 -1.1104 0.95774 13.4183 6.49109
126 1 -1.1104 3.92051 19.2713 6.79091
122 1 -1.1104 6.69123 16.5942 3.78771
118 1 -1.1104 6.40743 16.179 6.61427
111 1 -1.1104 6.70834 13.5117 6.63639
139 1 -1.1104 6.54577 19.2697 3.88119
138 1 -1.1104 6.85881 19.1841 1.02922
112 1 -1.1104 6.67851 19.1246 6.62345
140 1 -1.1104 6.58783 16.3816 1.01248
319 1 -1.1104 9.52378 13.5605 9.34273
327 1 -1.1104 12.1415 19.2953 9.34163
115 1 -1.1104 6.6984 13.6514 3.79404
110 1 -1.1104 6.57314 13.5623 1.08439
141 2 2.2208 10.7693 17.8735 5.11883
142 1 -1.1104 12.3305 13.6241 0.966699
144 1 -1.1104 12.4276 19.1454 1.09771
146 1 -1.1104 12.3904 13.7232 3.66046
147 1 -1.1104 12.1473 19.352 3.89999
148 1 -1.1104 12.3294 16.3963 1.17934
150 2 2.2208 10.8739 15.0674 2.44807
151 2 2.2208 10.8308 20.684 2.56508
152 1 -1.1104 12.3143 16.5622 3.87909
153 1 -1.1104 9.33694 13.5811 0.934206
155 1 -1.1104 9.64185 19.2857 0.9242
157 2 2.2208 8.13492 17.7346 2.41121
158 1 -1.1104 9.52805 13.654 3.66798
159 1 -1.1104 9.51038 19.2907 3.7134
160 2 2.2208 7.99534 15.0305 5.13848
161 2 2.2208 7.95084 20.6299 5.31115
162 1 -1.1104 9.27523 16.4574 0.979041
164 1 -1.1104 9.41333 16.3744 3.77778
154 1 -1.1104 9.55863 13.6434 6.52652
145 1 -1.1104 12.208 19.2971 6.6696
143 1 -1.1104 12.1313 13.5404 6.53384
156 1 -1.1104 9.36845 19.3139 6.42649
200 2 2.2208 -0.178234 -1.89709 8.06844
472 2 2.2208 8.05042 12.1843 13.6721
536 2 2.2208 13.512 17.7815 13.6492
149 1 -1.1104 12.1937 16.5485 6.55191
471 2 2.2208 10.9743 9.36931 13.6435
444 2 2.2208 5.26783 9.30907 13.6319
374 2 2.2208 5.13976 -1.91994 13.5853
175 2 2.2208 5.22334 0.761361 10.607
176 1 -1.1104 0.964008 -3.10506 12.3896
177 1 -1.1104 1.01035 2.42222 12.2857
180 1 -1.1104 1.0374 -3.3685 9.46635
181 1 -1.1104 1.15612 2.07102 9.57243
184 1 -1.1104 1.15074 -0.340465 12.3305
186 2 2.2208 5.23146 -1.91585 8.03446
188 1 -1.1104 1.1107 -0.543678 9.37478
190 1 -1.1104 3.72868 -3.2057 12.3496
191 1 -1.1104 4.01333 2.13154 12.1832
192 2 2.2208 2.37917 1.05039 7.97015
193 1 -1.1104 3.83627 -3.33954 9.42291
194 1 -1.1104 3.97842 2.32958 9.11118
195 2 2.2208 2.44101 -1.80545 10.921
196 2 2.2208 2.57743 3.5751 10.8961
197 1 -1.1104 3.7297 -0.529232 12.2749
198 1 -1.1104 3.80095 -0.500714 9.45121
187 2 2.2208 5.29384 3.76187 7.89948
290 1 -1.1104 6.66376 13.4618 9.26309
9421 2 2.2208 13.6167 14.9467 5.16712
178 1 -1.1104 6.60607 -3.35778 12.2302
189 1 -1.1104 6.73694 -0.532959 9.34004
183 1 -1.1104 6.68665 2.5185 9.43667
322 1 -1.1104 9.33808 13.5503 12.273
318 1 -1.1104 9.21167 19.3495 9.27756
329 1 -1.1104 12.1555 19.2308 12.1923
315 1 -1.1104 9.47023 16.3915 12.3161
185 1 -1.1104 6.5102 -0.471082 12.0754
9535 2 2.2208 13.5027 12.2168 8.0407
179 1 -1.1104 6.69523 2.25417 12.2441
182 1 -1.1104 6.72656 -3.28887 9.52382
211 2 2.2208 10.8922 0.930419 10.8633
212 1 -1.1104 12.2634 -3.53048 12.3325
213 1 -1.1104 12.1919 2.30977 12.3343
214 1 -1.1104 12.3305 -3.28138 9.53691
215 1 -1.1104 12.0868 2.3304 9.42405
216 1 -1.1104 12.3137 -0.611839 12.4283
217 2 2.2208 10.9502 -1.95463 8.05359
218 2 2.2208 10.7755 3.8293 8.18597
219 1 -1.1104 12.3705 -0.452617 9.43283
220 1 -1.1104 9.40336 -3.26908 12.372
221 1 -1.1104 9.39627 2.32723 12.3366
222 2 2.2208 8.06621 0.990185 8.02539
223 1 -1.1104 9.47185 -3.18593 9.50917
224 1 -1.1104 9.3281 2.45537 9.5397
225 2 2.2208 8.1252 -1.82834 10.8762
227 1 -1.1104 9.49616 -0.543061 12.2259
228 1 -1.1104 9.57494 -0.443729 9.38138
226 2 2.2208 8.0634 3.73375 10.879
83 2 2.2208 -0.299271 12.0683 4.98443
317 2 2.2208 8.23012 14.8719 10.9262
325 2 2.2208 10.8889 15.0411 7.84592
316 2 2.2208 7.98192 20.6354 10.7278
239 1 -1.1104 3.76199 5.17525 6.53629
229 2 2.2208 13.6764 0.917538 8.03086
710 2 2.2208 13.6476 20.7166 -0.336188
240 2 2.2208 5.34146 6.54748 10.88
241 2 2.2208 5.04291 12.2641 10.7655
242 1 -1.1104 0.856189 8.10007 12.3202
244 1 -1.1104 1.13072 7.77981 9.53553
246 1 -1.1104 0.995616 5.12458 11.9839
247 1 -1.1104 0.933075 10.7951 12.217
250 2 2.2208 5.11488 9.39011 7.9863
251 1 -1.1104 0.991627 4.76016 9.29337
252 1 -1.1104 0.938688 10.6874 9.35011
255 1 -1.1104 3.69475 7.99931 12.3743
256 2 2.2208 2.49941 6.34577 8.21501
257 2 2.2208 2.31056 12.2655 7.97094
258 1 -1.1104 3.96388 7.8603 9.58142
259 2 2.2208 2.26684 9.33614 10.913
260 1 -1.1104 3.68759 5.12635 12.4434
261 1 -1.1104 3.70109 10.8408 12.2703
262 1 -1.1104 3.93671 5.10869 9.6436
263 1 -1.1104 3.69365 10.8124 9.3059
51 2 2.2208 8.03312 -4.6604 2.44095
249 1 -1.1104 6.48842 10.6488 12.1445
253 1 -1.1104 6.61357 5.16636 9.61867
254 1 -1.1104 6.6289 10.6943 9.27015
135 2 2.2208 -0.403986 14.9351 2.33464
245 1 -1.1104 6.64816 7.90464 9.35011
376 2 2.2208 5.24456 3.62235 13.6275
9323 2 2.2208 13.5849 3.74175 5.22221
248 1 -1.1104 6.47822 5.1071 12.4287
243 1 -1.1104 6.5839 7.91969 12.2156
470 2 2.2208 7.91785 6.64637 13.618
25 2 2.2208 -0.320054 -1.93186 2.3374
264 1 -1.1104 9.55459 10.7462 9.39033
268 1 -1.1104 9.43633 5.19988 9.54742
270 1 -1.1104 9.40238 10.6465 12.1918
271 1 -1.1104 9.4596 5.16087 12.207
272 2 2.2208 8.01174 9.39339 10.9624
273 1 -1.1104 9.42486 7.95807 9.53969
274 2 2.2208 8.04722 12.1072 7.96361
275 2 2.2208 8.05869 6.67715 8.18474
276 2 2.2208 10.9537 6.508 10.8457
277 2 2.2208 10.8972 12.1731 10.7668
278 1 -1.1104 12.4623 7.96102 12.3498
279 1 -1.1104 12.3172 7.93593 9.4926
280 1 -1.1104 12.1936 5.00066 12.2806
281 1 -1.1104 12.2421 10.788 12.3519
282 2 2.2208 10.8767 9.36823 8.15428
283 1 -1.1104 12.2833 5.18168 9.50713
284 1 -1.1104 12.3134 10.7301 9.3646
285 1 -1.1104 9.33368 7.95648 12.1591
314 1 -1.1104 9.52304 16.4042 9.29614
443 2 2.2208 2.40956 6.51749 13.6078
628 2 2.2208 5.39068 12.0882 -0.399114
286 1 -1.1104 3.86136 19.3674 12.214
287 1 -1.1104 3.68637 13.5245 12.1228
291 1 -1.1104 0.841794 18.981 9.37644
292 1 -1.1104 0.914454 16.3199 9.41071
293 2 2.2208 5.21044 20.5631 8.161
294 1 -1.1104 0.856895 13.5722 9.45332
295 2 2.2208 5.24306 14.8782 8.04681
298 1 -1.1104 0.976397 19.2008 12.1833
299 1 -1.1104 0.972399 13.6308 12.1341
300 2 2.2208 5.12862 17.8041 10.9911
301 1 -1.1104 3.70322 19.3312 9.52487
303 2 2.2208 2.4686 17.7998 8.16098
304 1 -1.1104 3.97353 16.3133 9.54522
305 1 -1.1104 3.8933 13.7091 9.43232
307 1 -1.1104 0.942643 16.3477 12.2421
308 1 -1.1104 3.74837 16.4235 12.4886
309 2 2.2208 2.27171 20.6382 10.7899
310 2 2.2208 2.33144 14.8144 10.8151
9553 2 2.2208 -0.378833 6.38189 10.8034
9585 2 2.2208 13.5941 20.6615 10.7791
289 1 -1.1104 6.75346 16.1337 9.60697
297 1 -1.1104 6.4761 13.5744 12.169
306 1 -1.1104 6.63494 16.6242 12.4109
296 1 -1.1104 6.66777 19.2519 12.1566
288 1 -1.1104 6.47333 19.0608 9.34763
326 1 -1.1104 12.2928 16.3931 12.1685
324 2 2.2208 10.8074 20.5743 7.83518
321 1 -1.1104 9.31498 19.358 12.1499
163 1 -1.1104 9.39884 16.528 6.34814
330 1 -1.1104 12.1211 13.553 12.2271
323 1 -1.1104 12.1612 16.572 9.23372
684 2 2.2208 -0.355706 17.7825 -0.357708
534 2 2.2208 10.9491 15.0501 13.6412
506 2 2.2208 2.32413 17.7531 13.6377
445 2 2.2208 2.39887 12.2056 13.6046
601 2 2.2208 13.6786 3.81055 -0.373573
591 2 2.2208 10.8391 0.916721 -0.412008
507 2 2.2208 5.22801 20.7519 13.4531
408 2 2.2208 10.8375 -1.88161 13.6697
681 2 2.2208 5.29768 17.8667 -0.291555
708 2 2.2208 8.03423 15.0153 -0.325082
334 2 2.2208 5.33381 0.904652 16.4837
335 1 -1.1104 1.17494 -3.34846 17.9768
336 1 -1.1104 1.04778 2.34925 17.8108
339 1 -1.1104 0.925029 -3.29498 15.1005
341 1 -1.1104 0.879062 2.29285 15.0663
347 1 -1.1104 1.04334 -0.351719 17.9144
349 2 2.2208 5.24847 -1.70337 19.3133
351 1 -1.1104 1.03493 -0.576908 15.1387
355 1 -1.1104 4.06575 -3.2199 17.9198
356 1 -1.1104 3.69916 2.39854 17.9718
357 2 2.2208 2.60576 0.944086 19.2843
358 1 -1.1104 3.72179 -3.24281 15.0918
360 1 -1.1104 3.8401 2.3826 15.1688
362 2 2.2208 2.45247 -1.83718 16.501
364 1 -1.1104 3.97301 -0.474977 17.9551
365 1 -1.1104 3.90814 -0.471239 15.1633
350 2 2.2208 5.21209 3.86194 19.2733
363 2 2.2208 2.45338 3.83993 16.5066
340 1 -1.1104 0.983922 -3.24065 20.8242
342 1 -1.1104 0.887446 2.24788 20.5556
361 1 -1.1104 3.75204 2.32547 20.7223
359 1 -1.1104 3.75055 -3.14925 20.5821
366 1 -1.1104 3.88042 -0.504264 20.7576
352 1 -1.1104 1.14838 -0.324356 20.7059
343 1 -1.1104 6.47062 -3.27151 14.9957
348 1 -1.1104 6.68448 -0.42922 17.8953
337 1 -1.1104 6.7904 -3.28594 17.8947
353 1 -1.1104 6.54696 -0.474894 15.0246
354 1 -1.1104 6.91379 -0.372249 20.7656
9691 2 2.2208 -0.299312 3.54928 19.178
345 1 -1.1104 6.75098 2.43659 15.0887
9648 2 2.2208 13.4602 3.78715 16.5438
346 1 -1.1104 6.50367 2.26859 20.6957
338 1 -1.1104 6.71692 2.34808 17.9289
344 1 -1.1104 6.39762 -3.03264 20.8412
377 2 2.2208 10.71 0.892729 16.5815
378 1 -1.1104 12.2144 -3.24715 18.0676
379 1 -1.1104 12.1479 2.22004 17.785
380 1 -1.1104 12.3259 -3.21197 15.0181
382 1 -1.1104 12.1953 2.3733 15.023
384 1 -1.1104 12.1913 -0.519751 17.8466
385 2 2.2208 10.8813 -1.85253 19.353
387 1 -1.1104 12.2563 -0.459847 15.0698
389 1 -1.1104 9.77141 -3.10867 17.9573
390 1 -1.1104 9.29961 2.38754 17.9672
391 2 2.2208 8.09359 0.972267 19.4143
392 1 -1.1104 9.3191 -3.39192 15.2534
394 1 -1.1104 9.34393 2.19958 15.0745
396 2 2.2208 8.07294 -1.80383 16.5788
397 2 2.2208 7.84103 3.77595 16.5026
398 1 -1.1104 9.3272 -0.448567 17.9
399 1 -1.1104 9.51466 -0.577373 15.1789
386 2 2.2208 10.7413 3.88275 19.2612
393 1 -1.1104 9.3051 -3.32973 20.7428
388 1 -1.1104 12.3971 -0.262942 20.6359
400 1 -1.1104 9.63096 -0.612119 20.7504
381 1 -1.1104 12.1431 -3.21652 20.8043
383 1 -1.1104 12.1258 2.31085 20.7829
395 1 -1.1104 9.48659 2.43854 20.7582
9726 2 2.2208 13.6667 12.2252 13.6733
594 2 2.2208 13.5372 -4.66154 24.9813
632 2 2.2208 -0.34059 6.48695 27.5983
410 2 2.2208 5.28705 6.62664 16.5122
411 2 2.2208 5.29096 12.3515 16.4804
412 1 -1.1104 0.898072 7.8738 17.9915
414 1 -1.1104 1.10174 7.6165 15.1225
418 1 -1.1104 0.914577 5.14423 17.8191
419 1 -1.1104 1.04129 10.5802 17.8515
422 2 2.2208 5.26879 9.43232 19.2288
423 1 -1.1104 1.09623 4.97963 14.8682
425 1 -1.1104 1.16004 10.563 15.1927
431 1 -1.1104 3.8253 8.04137 18.068
432 2 2.2208 2.37663 6.57318 19.2877
433 2 2.2208 2.50213 12.1556 19.2878
434 1 -1.1104 3.93929 7.9871 15.1884
436 2 2.2208 2.59123 9.30019 16.5194
437 1 -1.1104 3.86901 5.12569 17.9136
438 1 -1.1104 3.96146 10.7987 17.7655
439 1 -1.1104 3.95777 5.17843 15.0471
441 1 -1.1104 3.98225 10.9545 14.9563
426 1 -1.1104 1.1652 10.8309 20.6232
424 1 -1.1104 1.08765 5.23838 20.5559
435 1 -1.1104 3.872 7.98525 20.7466
442 1 -1.1104 3.96217 10.7773 20.7046
440 1 -1.1104 3.75072 5.07467 20.7769
415 1 -1.1104 1.0662 8.11708 20.6249
430 1 -1.1104 6.61758 10.7208 20.4517
420 1 -1.1104 6.69244 5.27327 17.8951
421 1 -1.1104 6.78935 10.9038 17.7205
429 1 -1.1104 6.77938 10.7298 14.9158
416 1 -1.1104 6.69631 8.05141 15.2433
417 1 -1.1104 6.73329 7.91763 20.6838
427 1 -1.1104 6.70571 5.29283 15.084
428 1 -1.1104 6.66005 5.12866 20.6204
413 1 -1.1104 6.58813 7.99373 17.9532
446 2 2.2208 10.7679 6.66947 16.5002
447 2 2.2208 10.8613 12.1687 16.478
448 1 -1.1104 12.1053 8.10801 17.9184
449 1 -1.1104 12.2812 7.91259 15.2066
451 1 -1.1104 12.2871 5.4761 17.869
452 1 -1.1104 12.3163 11.0552 17.6424
453 2 2.2208 10.7406 9.48504 19.1827
454 1 -1.1104 12.0069 4.95597 15.0995
456 1 -1.1104 12.2341 10.7534 15.0539
458 1 -1.1104 9.37794 8.19204 17.8147
459 2 2.2208 8.07166 6.73174 19.2433
460 2 2.2208 8.08147 12.3636 19.2441
461 1 -1.1104 9.48758 8.02514 14.939
463 2 2.2208 8.13059 9.39534 16.313
464 1 -1.1104 9.43369 5.17627 17.6946
465 1 -1.1104 9.5101 10.9573 17.9525
466 1 -1.1104 9.25201 5.24712 14.9414
468 1 -1.1104 9.60646 10.8193 14.9656
467 1 -1.1104 9.30096 5.36302 20.6373
455 1 -1.1104 12.1069 5.17897 20.5415
457 1 -1.1104 12.1703 10.9668 20.5584
469 1 -1.1104 9.43569 10.8002 20.6523
462 1 -1.1104 9.5324 8.00883 20.5481
450 1 -1.1104 12.2974 8.05604 20.783
9837 2 2.2208 -0.353062 20.7663 13.8664
695 1 -1.1104 9.51012 19.2056 23.5406
600 2 2.2208 13.6156 0.979424 24.8488
473 2 2.2208 5.32466 17.9322 16.4946
474 1 -1.1104 1.07162 13.373 17.9034
475 1 -1.1104 1.07214 19.1667 17.7825
478 1 -1.1104 0.901805 13.5062 15.016
480 1 -1.1104 0.957522 19.0578 15.0656
486 1 -1.1104 0.863885 16.2814 17.9764
488 2 2.2208 5.15201 15.0214 19.4151
489 2 2.2208 5.38067 20.6715 19.3095
490 1 -1.1104 0.927504 16.4117 15.0646
494 1 -1.1104 3.74425 13.5867 17.8581
495 1 -1.1104 3.97998 19.3072 17.8079
496 2 2.2208 2.43372 17.6344 19.1884
497 1 -1.1104 4.01737 13.6641 14.966
499 1 -1.1104 3.81417 19.3089 14.8852
501 2 2.2208 2.23954 15.062 16.5187
502 2 2.2208 2.43662 20.4798 16.4798
503 1 -1.1104 3.92754 16.6457 17.9891
504 1 -1.1104 3.66252 16.4703 15.1328
505 1 -1.1104 3.93669 16.5466 20.6851
479 1 -1.1104 0.972346 13.6667 20.723
498 1 -1.1104 3.55538 13.8398 20.5096
476 1 -1.1104 6.69788 13.6595 17.9215
493 1 -1.1104 6.69589 16.3148 20.8241
492 1 -1.1104 6.58193 16.4699 15.2838
482 1 -1.1104 6.71789 13.7176 14.9511
484 1 -1.1104 6.64047 19.2171 14.9446
477 1 -1.1104 6.90802 19.1435 17.8361
487 1 -1.1104 6.80896 16.3842 18.1535
485 1 -1.1104 6.66805 19.2768 20.459
500 1 -1.1104 3.88284 19.4592 20.6465
525 1 -1.1104 9.47914 13.7397 20.605
520 1 -1.1104 12.3574 16.7031 20.8744
509 2 2.2208 10.9109 17.729 16.4681
510 1 -1.1104 12.2131 13.8566 17.7688
511 1 -1.1104 12.2798 19.1867 17.9284
512 1 -1.1104 12.3559 13.6845 15.0997
514 1 -1.1104 12.2027 19.0969 14.9652
516 1 -1.1104 12.3085 16.5005 18.0724
517 2 2.2208 11.0365 15.1426 19.4093
518 2 2.2208 10.9465 20.6026 19.3077
519 1 -1.1104 12.2863 16.4049 15.1013
521 1 -1.1104 9.48808 13.7087 17.8767
522 1 -1.1104 9.75881 19.1454 17.8448
523 2 2.2208 8.11579 17.8262 19.4746
524 1 -1.1104 9.43671 13.5492 15.0229
526 1 -1.1104 9.37545 19.1077 15.0971
528 2 2.2208 7.9926 15.0803 16.4965
529 2 2.2208 8.17794 20.4687 16.518
530 1 -1.1104 9.6174 16.5162 17.8134
531 1 -1.1104 9.39195 16.344 15.0756
527 1 -1.1104 9.44233 19.3607 20.5658
513 1 -1.1104 12.2693 13.7975 20.8187
515 1 -1.1104 12.2907 19.3978 20.7388
532 1 -1.1104 9.51059 16.5944 20.8396
373 2 2.2208 2.58749 -4.58603 13.7431
697 1 -1.1104 12.3688 16.6612 26.5066
9914 2 2.2208 13.61 9.5554 22.1571
9724 2 2.2208 13.5893 12.2967 19.2651
537 2 2.2208 5.26378 1.02909 22.1742
538 1 -1.1104 1.03892 -3.25917 23.6551
539 1 -1.1104 0.966869 2.20065 23.5057
542 1 -1.1104 0.968276 -3.43808 26.514
543 1 -1.1104 0.97082 2.27251 26.2889
546 1 -1.1104 0.675665 -0.736543 23.5502
548 2 2.2208 5.18259 -1.81321 24.9788
550 1 -1.1104 1.15232 -0.400602 26.3403
552 1 -1.1104 3.70344 -3.2455 23.452
553 1 -1.1104 3.77926 2.43717 23.5595
554 2 2.2208 2.4681 0.974989 24.9303
555 1 -1.1104 3.81695 -3.33988 26.1327
556 1 -1.1104 3.92869 2.33708 26.2782
557 2 2.2208 2.35397 -1.6751 22.1621
558 2 2.2208 2.46736 3.64918 22.0487
559 1 -1.1104 3.65998 -0.513958 23.639
560 1 -1.1104 3.76554 -0.443177 26.467
549 2 2.2208 5.16917 3.98407 24.9369
570 2 2.2208 -0.37051 -2.05261 25.125
541 1 -1.1104 6.74595 2.43796 23.3738
702 1 -1.1104 12.374 13.6128 26.2607
544 1 -1.1104 6.72695 -3.22731 26.4382
551 1 -1.1104 6.63913 -0.352627 26.1567
547 1 -1.1104 6.56555 -0.446805 23.4806
508 2 2.2208 5.27265 15.1405 13.7269
696 1 -1.1104 9.22665 13.5502 23.282
540 1 -1.1104 6.60504 -3.22816 23.6159
9652 2 2.2208 13.6023 1.01835 13.6605
545 1 -1.1104 6.57802 2.52131 26.2128
573 2 2.2208 10.8612 0.956741 22.2294
574 1 -1.1104 12.2608 -3.26347 23.4629
575 1 -1.1104 12.4642 2.40017 23.5152
576 1 -1.1104 12.1937 -3.36899 26.3563
577 1 -1.1104 12.2005 2.36116 26.2811
578 1 -1.1104 12.2451 -0.599768 23.5086
579 2 2.2208 11.065 -1.9735 24.8297
580 2 2.2208 10.8497 3.77666 24.8786
581 1 -1.1104 12.2813 -0.568513 26.3715
582 1 -1.1104 9.38919 -3.39001 23.44
583 1 -1.1104 9.61266 2.32036 23.5159
584 2 2.2208 8.03089 1.04503 24.8392
585 1 -1.1104 9.36846 -3.19357 26.2418
586 1 -1.1104 9.38754 2.35965 26.2661
587 2 2.2208 8.04495 -1.87737 22.1534
589 1 -1.1104 9.40496 -0.558327 23.6623
590 1 -1.1104 9.64214 -0.386671 26.2215
588 2 2.2208 7.92231 3.8531 22.0466
599 2 2.2208 13.5887 -1.83216 22.0606
627 2 2.2208 2.35873 9.33188 27.5991
713 2 2.2208 13.6609 15.0837 22.2555
691 1 -1.1104 9.28214 19.2385 26.262
658 1 -1.1104 6.75592 13.6891 26.2096
592 2 2.2208 8.00609 -1.78817 27.5927
686 2 2.2208 -0.322319 17.7595 22.1978
602 2 2.2208 5.09721 6.70486 22.2138
603 2 2.2208 5.29196 12.2217 22.048
604 1 -1.1104 0.97888 7.88261 23.5872
606 1 -1.1104 0.883023 8.08195 26.3154
608 1 -1.1104 1.11133 4.98995 23.3908
609 1 -1.1104 1.04196 10.7172 23.4581
612 2 2.2208 5.1442 9.41544 24.9931
613 1 -1.1104 0.940953 5.12543 26.1755
614 1 -1.1104 1.07587 10.6714 26.1206
617 1 -1.1104 3.59289 8.08497 23.4957
618 2 2.2208 2.29607 6.45245 24.8255
619 2 2.2208 2.59709 12.0167 24.926
620 1 -1.1104 3.80872 7.94097 26.2118
621 2 2.2208 2.4825 9.37307 21.9087
622 1 -1.1104 3.6183 5.15853 23.4703
623 1 -1.1104 3.90273 10.7894 23.4088
624 1 -1.1104 3.69798 5.1442 26.3569
625 1 -1.1104 3.97692 10.8735 26.3854
610 1 -1.1104 6.60381 5.16341 23.3463
703 1 -1.1104 12.2259 19.088 23.6703
611 1 -1.1104 6.70958 10.7556 23.2927
616 1 -1.1104 6.5121 10.8273 26.1574
615 1 -1.1104 6.59569 5.24447 26.2739
9654 2 2.2208 13.5665 0.918477 19.3021
605 1 -1.1104 6.57985 7.93481 23.5692
607 1 -1.1104 6.78534 8.10862 26.2302
653 2 2.2208 10.9749 12.0306 27.6494
561 2 2.2208 5.28718 1.03364 27.7004
633 1 -1.1104 9.59399 10.5605 26.2245
634 1 -1.1104 9.54424 5.28299 26.2748
635 1 -1.1104 9.44977 10.7168 23.499
636 1 -1.1104 9.45516 5.14257 23.3296
637 2 2.2208 8.02975 9.33423 21.9999
638 1 -1.1104 9.54402 8.01372 26.1785
639 2 2.2208 8.09787 12.1977 24.8329
640 2 2.2208 8.08042 6.63577 24.8402
641 2 2.2208 10.9068 6.64593 22.05
642 2 2.2208 10.6792 12.2907 22.0552
643 1 -1.1104 12.2602 8.10143 23.6565
644 1 -1.1104 12.3751 7.97618 26.2816
645 1 -1.1104 12.2453 5.36259 23.3076
646 1 -1.1104 12.2954 10.7501 23.5268
647 2 2.2208 10.8614 9.28945 24.8775
648 1 -1.1104 12.3257 5.09115 26.1999
649 1 -1.1104 12.2995 10.7323 26.254
650 1 -1.1104 9.43349 7.89413 23.3825
372 2 2.2208 -0.38864 -1.85915 13.8289
698 2 2.2208 10.9107 20.5808 24.9599
699 2 2.2208 10.8571 15.1545 24.9909
705 2 2.2208 10.9926 17.8896 22.2153
675 1 -1.1104 6.60491 16.146 23.6589
481 1 -1.1104 0.981607 19.1662 20.6699
491 1 -1.1104 1.11558 16.3762 20.6322
483 1 -1.1104 6.59193 13.5598 20.7523
664 1 -1.1104 6.72012 18.9491 23.3321
667 1 -1.1104 6.6217 13.4407 23.4496
660 1 -1.1104 6.73565 16.2749 26.4535
678 2 2.2208 2.39157 20.7095 22.0864
676 1 -1.1104 1.03838 16.288 23.3673
674 1 -1.1104 4.02832 13.5669 26.2931
673 1 -1.1104 4.04851 16.4283 26.2694
672 2 2.2208 2.46902 17.6923 24.9383
677 1 -1.1104 3.72814 16.2664 23.5879
671 1 -1.1104 3.77833 19.1066 26.4605
670 2 2.2208 5.17776 17.6734 22.2322
669 1 -1.1104 1.1061 13.573 23.4617
668 1 -1.1104 1.29832 19.0846 23.4927
666 2 2.2208 5.20794 14.8317 24.8716
665 2 2.2208 5.26509 20.5762 24.9205
679 2 2.2208 2.38737 14.9152 22.1612
657 1 -1.1104 4.00705 19.1789 23.6489
659 1 -1.1104 3.87382 13.4319 23.5083
661 1 -1.1104 0.933368 19.0928 26.3541
662 1 -1.1104 1.12898 16.3884 26.3274
663 1 -1.1104 1.14354 13.5111 26.3944
563 2 2.2208 2.39825 3.57298 27.641
371 2 2.2208 -0.372104 -1.70675 19.3378
693 1 -1.1104 6.64921 19.1443 26.3128
704 1 -1.1104 12.0859 13.6013 23.5744
694 2 2.2208 7.98778 17.6543 24.9988
692 1 -1.1104 9.58333 13.3988 26.2345
687 1 -1.1104 9.46102 16.4737 26.5018
690 2 2.2208 7.92136 14.9651 22.1151
689 2 2.2208 8.04881 20.6065 22.0538
688 1 -1.1104 9.39255 16.4718 23.6261
707 2 2.2208 10.844 17.7304 27.7186
626 2 2.2208 5.17274 6.51313 27.7209
701 1 -1.1104 12.2999 19.3385 26.497
700 1 -1.1104 12.1628 16.3533 23.6284
706 2 2.2208 7.9819 20.8077 27.7574
651 2 2.2208 11.0274 6.59764 27.663
369 2 2.2208 2.48578 -4.53608 19.4412
9764 2 2.2208 -0.302451 6.54957 16.4637
9833 2 2.2208 -0.322826 20.5104 19.312
405 2 2.2208 13.5037 -1.78432 16.5061
683 2 2.2208 -0.402945 14.8725 25.0727
9794 2 2.2208 13.688 17.888 19.3207
9729 2 2.2208 -0.370861 12.0563 16.3897
9855 2 2.2208 13.5673 3.81149 22.0275
631 2 2.2208 -0.2632 12.252 22.0578
654 2 2.2208 13.6418 12.2414 24.9845
593 2 2.2208 8.15323 3.78929 27.6822
652 2 2.2208 8.0698 9.33599 27.6004
680 2 2.2208 2.32738 20.59 27.7257
407 2 2.2208 8.04321 0.945761 13.6891
375 2 2.2208 2.51428 0.915904 13.7347
409 2 2.2208 10.8601 3.66653 13.7395
562 2 2.2208 2.33888 -1.92828 27.5994
682 2 2.2208 2.61658 15.03 27.6344
9767 2 2.2208 -0.285007 9.41552 13.7197
566 2 2.2208 5.26154 -4.60977 27.7049
535 2 2.2208 8.03992 17.7781 13.8436
533 2 2.2208 10.7728 20.5944 13.77
9721 2 2.2208 13.5626 6.48047 13.7679
714 2 2.2208 5.15753 23.4452 5.21118
715 2 2.2208 5.22981 29.0686 5.27847
716 1 -1.1104 0.970249 25.0088 0.995791
717 1 -1.1104 0.958058 24.7716 3.8388
718 1 -1.1104 0.866195 22.1306 0.94322
719 1 -1.1104 0.952902 27.6718 0.890872
720 2 2.2208 5.09212 26.3647 2.5572
721 1 -1.1104 1.04479 22.0702 3.77739
722 1 -1.1104 1.09789 27.712 3.74555
723 1 -1.1104 3.74697 24.9552 1.21403
724 2 2.2208 2.41427 23.4151 2.42441
725 2 2.2208 2.34845 29.2579 2.31895
726 1 -1.1104 3.95457 24.9944 3.85528
727 2 2.2208 2.37265 26.1838 5.22551
728 1 -1.1104 3.70153 22.2435 0.963662
729 1 -1.1104 3.53192 27.7881 1.01323
730 1 -1.1104 3.80683 21.9718 3.73328
731 1 -1.1104 3.99283 27.535 4.15442
862 1 -1.1104 3.82226 22.0335 6.67933
855 1 -1.1104 0.994895 24.9387 6.69557
857 1 -1.1104 1.16327 22.143 6.4648
861 1 -1.1104 3.7377 24.8449 6.63179
858 1 -1.1104 0.977276 27.7321 6.53948
735 1 -1.1104 6.73638 24.7914 0.783992
736 1 -1.1104 6.73959 24.8964 3.84133
860 1 -1.1104 6.64586 27.6313 6.82525
739 1 -1.1104 6.49269 22.0591 3.84382
740 1 -1.1104 6.87046 27.6196 3.71692
737 1 -1.1104 6.48448 21.9333 1.09292
738 1 -1.1104 6.43833 27.679 0.982086
859 1 -1.1104 6.48952 22.1181 6.69224
863 1 -1.1104 4.01766 27.6334 6.79702
856 1 -1.1104 6.5175 24.8544 6.57062
10403 2 2.2208 13.6741 34.5877 13.6046
741 2 2.2208 10.7344 23.5876 5.30029
742 2 2.2208 10.7391 29.13 5.08182
743 1 -1.1104 12.3191 25.0834 1.10434
744 1 -1.1104 12.284 24.9364 3.75165
745 1 -1.1104 12.3325 22.0432 1.06973
746 1 -1.1104 12.1866 27.8416 1.01153
747 2 2.2208 10.833 26.2981 2.32736
748 1 -1.1104 12.2007 22.1168 3.8804
749 1 -1.1104 12.2554 27.6795 3.80048
750 1 -1.1104 9.48992 24.7555 1.05465
751 2 2.2208 7.93614 23.4502 2.54731
752 2 2.2208 7.8722 29.0659 2.27797
753 1 -1.1104 9.44202 24.856 3.82775
754 2 2.2208 7.94824 26.3538 5.22861
755 1 -1.1104 9.45426 22.0998 1.07726
756 1 -1.1104 9.26291 27.8256 0.769684
757 1 -1.1104 9.34123 21.9912 4.05267
758 1 -1.1104 9.4142 27.6391 3.66158
893 1 -1.1104 9.48953 27.7245 6.4693
891 1 -1.1104 9.25298 24.98 6.67593
888 1 -1.1104 12.1494 24.8784 6.50914
892 1 -1.1104 9.33366 22.1158 6.61835
890 1 -1.1104 12.152 27.7554 6.49966
10210 2 2.2208 13.5673 31.8495 10.6693
1222 2 2.2208 8.07118 40.3783 13.496
762 2 2.2208 5.1788 34.6476 5.2634
763 1 -1.1104 0.855486 30.5705 1.07452
764 1 -1.1104 0.815512 35.9654 0.969182
766 1 -1.1104 0.765191 30.4243 3.6871
767 1 -1.1104 0.713942 36.1956 3.85832
769 1 -1.1104 0.829995 33.2755 0.927981
770 2 2.2208 5.19437 31.9565 2.39614
771 2 2.2208 5.0921 37.571 2.4313
772 1 -1.1104 0.727258 33.4956 3.52778
774 1 -1.1104 3.76243 30.5368 1.0086
775 1 -1.1104 3.71158 35.951 0.959837
776 2 2.2208 2.25894 34.7666 2.39086
777 1 -1.1104 3.75924 30.4925 3.84149
778 1 -1.1104 3.76703 36.2726 3.7889
779 2 2.2208 2.43672 31.9626 5.15489
780 2 2.2208 2.28381 37.5548 5.14077
781 1 -1.1104 3.67143 33.3194 1.00927
782 1 -1.1104 3.59591 33.3749 3.85003
920 1 -1.1104 3.74768 33.1607 6.57521
919 1 -1.1104 3.7924 36.0294 6.56093
918 1 -1.1104 3.61013 30.4917 6.57574
912 1 -1.1104 0.866484 30.6523 6.38372
913 1 -1.1104 0.950812 36.1024 6.49981
773 1 -1.1104 6.48929 33.2815 3.88609
768 1 -1.1104 6.52242 36.1935 3.69207
786 1 -1.1104 6.65401 30.4875 0.990692
765 1 -1.1104 6.43421 36.22 0.939056
914 1 -1.1104 6.47997 30.3132 6.67537
916 1 -1.1104 0.980106 33.4544 6.29227
10336 2 2.2208 13.5278 23.5005 13.4122
787 1 -1.1104 6.52731 30.384 3.73778
917 1 -1.1104 6.52621 33.2531 6.70823
788 1 -1.1104 6.45939 33.6031 0.940626
789 2 2.2208 10.91 34.7577 5.30955
790 1 -1.1104 12.0763 30.5152 0.9033
791 1 -1.1104 12.1914 36.2629 1.02332
792 1 -1.1104 12.3735 30.5167 3.68517
793 1 -1.1104 12.3637 36.1695 3.78345
794 1 -1.1104 12.238 33.3915 0.878961
795 2 2.2208 10.8212 31.9971 2.28564
796 2 2.2208 10.8304 37.5976 2.397
797 1 -1.1104 12.2843 33.4815 3.70243
798 1 -1.1104 9.32596 30.7306 0.94967
799 1 -1.1104 9.42981 36.0913 0.978943
800 2 2.2208 7.9603 34.7927 2.4476