ITEM: TIMESTEP
30000
ITEM: NUMBER OF ATOMS
18000
ITEM: BOX BOUNDS pp pp pp
-3.8962366246291880e-01 2.7729623662462949e+01
-4.7622113868411802e+00 3.3284221138684802e+02
-4.0017337167138312e-01 2.7740173371672132e+01
ITEM: ATOMS id type q x y z
1 2 2.2208 5.38809 0.939754 5.0535
2 2 2.2208 5.33604 6.4836 5.05966
3 1 -1.1104 0.931919 -3.10452 0.899033
5 1 -1.1104 0.98375 2.43613 0.865542
7 1 -1.1104 0.85445 8.10009 0.795172
15 1 -1.1104 0.860805 -3.30941 3.82808
16 1 -1.1104 1.06684 2.39408 3.72308
21 2 2.2208 5.13658 -1.90909 2.16138
22 2 2.2208 5.11571 3.77348 2.26173
23 1 -1.1104 0.790328 -0.30304 0.867484
25 1 -1.1104 0.953492 5.16084 0.901574
31 1 -1.1104 0.93165 -0.389531 3.5583
32 1 -1.1104 1.18975 5.22747 3.60486
35 2 2.2208 2.39532 0.91071 2.30821
36 2 2.2208 2.46286 6.53293 2.35487
37 1 -1.1104 3.90453 -3.25496 0.696902
39 1 -1.1104 3.98721 2.32862 0.736917
41 1 -1.1104 3.88911 7.83815 0.87105
43 1 -1.1104 3.77727 -3.38135 3.48139
44 1 -1.1104 3.79872 2.28966 3.6737
61 2 2.2208 -0.484847 6.36783 4.89139
46 2 2.2208 2.42298 -1.88475 5.00509
47 2 2.2208 2.53926 3.77235 5.28871
48 1 -1.1104 3.57544 -0.49989 0.966866
50 1 -1.1104 3.8844 5.1669 0.930542
52 1 -1.1104 3.7988 -0.652285 3.55133
53 1 -1.1104 3.85576 5.09557 3.80521
17 1 -1.1104 0.903182 7.91299 3.58489
40 1 -1.1104 3.94483 2.36912 6.39965
38 1 -1.1104 3.62941 -3.31225 6.44458
10 1 -1.1104 6.49651 -3.36501 6.58753
6 1 -1.1104 1.1734 2.25524 6.57353
26 1 -1.1104 1.04762 5.19459 6.61173
24 1 -1.1104 1.06308 -0.505353 6.25214
42 1 -1.1104 3.8675 7.89453 6.36369
12 1 -1.1104 6.61696 2.29686 6.53776
51 1 -1.1104 3.9668 5.11558 6.4872
8 1 -1.1104 0.976513 7.77971 6.51545
49 1 -1.1104 4.03247 -0.588845 6.40508
4 1 -1.1104 0.853597 -3.15351 6.48699
30 1 -1.1104 6.75814 5.22335 6.61867
27 1 -1.1104 6.5168 -0.463994 0.840065
20 1 -1.1104 6.57609 8.06228 3.8516
19 1 -1.1104 6.53059 2.35843 3.6529
11 1 -1.1104 6.78148 2.34227 0.804289
28 1 -1.1104 6.80967 -0.73464 6.49989
45 1 -1.1104 3.83534 8.01202 3.60242
66 2 2.2208 2.2859 -4.65431 2.2717
117 2 2.2208 13.4527 -4.871 2.26587
29 1 -1.1104 6.58139 5.17307 0.692596
9 1 -1.1104 6.6261 -3.38119 0.823566
113 2 2.2208 13.6039 -1.97137 5.18156
33 1 -1.1104 6.63234 -0.399259 3.5997
18 1 -1.1104 6.52146 -3.12949 3.91479
34 1 -1.1104 6.59889 5.11676 3.65909
13 1 -1.1104 6.78288 7.92411 1.04773
94 1 -1.1104 9.42396 7.74463 1.01321
75 1 -1.1104 12.2275 7.83954 0.846588
69 2 2.2208 10.755 0.81825 5.06723
70 2 2.2208 10.8602 6.63887 5.22958
71 1 -1.1104 12.2155 -3.31498 0.935343
73 1 -1.1104 12.3182 2.27326 0.92065
77 1 -1.1104 12.039 -3.52064 3.54475
78 1 -1.1104 12.2904 2.06701 3.88048
80 2 2.2208 10.8079 -1.99569 2.23468
81 2 2.2208 10.7891 3.69292 2.31893
82 1 -1.1104 12.2235 -0.426005 0.951066
84 1 -1.1104 12.1426 4.99251 1.02826
86 1 -1.1104 12.2432 -0.718166 3.8123
87 1 -1.1104 12.2779 5.03529 3.86902
88 2 2.2208 8.06302 0.885876 2.17424
89 2 2.2208 8.05544 6.57774 2.2946
90 1 -1.1104 9.27873 -3.35256 0.827592
92 1 -1.1104 9.48714 2.25036 0.785553
96 1 -1.1104 9.29884 -3.2706 3.56226
97 1 -1.1104 9.51435 2.20351 3.80813
98 1 -1.1104 9.29364 7.84835 3.86347
99 2 2.2208 7.99255 -1.88757 5.10139
100 2 2.2208 8.00948 3.77766 5.1549
101 1 -1.1104 9.2994 -0.516386 0.794994
103 1 -1.1104 9.34099 4.92628 0.819911
105 1 -1.1104 9.54042 -0.487532 3.56638
106 1 -1.1104 9.36361 5.12623 3.63872
79 1 -1.1104 12.1964 7.8459 3.51018
102 1 -1.1104 9.49948 -0.565239 6.43033
72 1 -1.1104 12.2511 -3.40446 6.55201
85 1 -1.1104 12.1783 5.01281 6.53284
104 1 -1.1104 9.38708 5.19499 6.4376
74 1 -1.1104 12.1884 2.46662 6.57618
91 1 -1.1104 9.38283 -3.25986 6.60654
95 1 -1.1104 9.49369 7.81259 6.65841
93 1 -1.1104 9.60443 2.22694 6.56783
83 1 -1.1104 12.2059 -0.479018 6.52713
111 2 2.2208 13.6459 0.802065 2.3623
76 1 -1.1104 12.1346 7.92493 6.52971
112 2 2.2208 13.6363 6.42584 2.34054
161 2 2.2208 2.57841 0.934356 13.5059
167 2 2.2208 -0.170877 0.786282 10.6374
252 2 2.2208 2.34869 -4.57553 13.5558
153 1 -1.1104 3.78193 8.01147 9.37274
150 1 -1.1104 3.99539 7.8042 12.1579
121 1 -1.1104 3.72919 5.13536 9.36954
122 2 2.2208 5.27755 0.931825 10.8287
123 2 2.2208 5.22764 6.6071 10.6541
124 1 -1.1104 1.1837 -3.33776 12.0365
125 1 -1.1104 1.04173 2.20711 12.1697
130 1 -1.1104 1.02719 -3.22358 9.21816
131 1 -1.1104 1.23062 2.1944 9.34807
136 2 2.2208 5.27714 -1.98436 7.82692
137 2 2.2208 5.18304 3.70635 7.96261
138 1 -1.1104 0.970976 -0.683484 12.0688
139 1 -1.1104 1.02257 5.08799 12.0561
142 1 -1.1104 1.12604 -0.535359 9.14123
143 1 -1.1104 1.03635 4.95537 9.25087
146 2 2.2208 2.64175 0.784287 7.89935
147 2 2.2208 2.4386 6.59119 7.86835
148 1 -1.1104 3.79107 -3.32153 12.076
149 1 -1.1104 3.89932 2.24222 12.1902
151 1 -1.1104 3.76226 -3.33956 9.26737
152 1 -1.1104 3.87039 2.23055 9.13127
154 2 2.2208 2.44709 -1.87209 10.6758
155 2 2.2208 2.44871 3.65253 10.7046
156 1 -1.1104 3.73455 -0.591803 11.9965
157 1 -1.1104 3.77179 5.02675 12.0652
158 1 -1.1104 3.94784 -0.562626 9.32549
132 1 -1.1104 0.949873 7.92303 9.26165
126 1 -1.1104 1.08353 7.88979 11.9604
133 1 -1.1104 6.41369 -3.21352 9.54514
135 1 -1.1104 6.57254 8.05951 9.26134
159 2 2.2208 5.31534 -1.9758 13.5152
160 2 2.2208 5.32663 3.6535 13.497
14 1 -1.1104 6.68172 8.0395 6.63118
140 1 -1.1104 6.57227 -0.348713 12.3593
134 1 -1.1104 6.54141 2.37911 9.38879
127 1 -1.1104 6.67358 -3.44059 12.217
145 1 -1.1104 6.54569 5.27105 9.16483
165 2 2.2208 -0.30862 6.4412 10.601
162 2 2.2208 2.40563 6.54525 13.4257
166 2 2.2208 -0.37789 3.70624 13.4595
201 2 2.2208 7.98228 0.877169 13.5827
180 1 -1.1104 12.0827 -3.4887 9.27639
212 2 2.2208 8.07738 -4.77454 8.01218
183 1 -1.1104 9.38694 2.13598 9.2589
203 2 2.2208 7.93658 6.62236 13.4624
202 2 2.2208 10.9144 3.67586 13.6093
196 2 2.2208 10.8238 -2.08994 8.10766
210 2 2.2208 10.879 -4.88677 10.9616
208 2 2.2208 13.6391 -1.90234 10.9313
186 1 -1.1104 12.2002 -3.4115 12.1526
185 1 -1.1104 12.2264 2.31333 12.1626
211 2 2.2208 13.586 -4.70071 7.87267
179 1 -1.1104 12.0296 5.04214 9.54423
178 2 2.2208 8.0672 0.777609 7.94889
193 1 -1.1104 9.35438 -3.5267 9.24692
194 1 -1.1104 9.53084 7.88554 12.2587
199 1 -1.1104 12.0933 7.86859 9.36716
177 2 2.2208 8.0229 -2.03119 10.8941
144 1 -1.1104 6.73657 -0.420485 9.52538
141 1 -1.1104 6.53476 5.16277 12.1542
175 1 -1.1104 9.44042 -0.380935 12.0105
129 1 -1.1104 6.7372 7.9028 12.0794
172 1 -1.1104 9.49104 5.11405 9.22708
195 1 -1.1104 9.55277 2.46768 12.2094
182 1 -1.1104 9.41851 7.92893 9.4899
128 1 -1.1104 6.70679 2.36083 12.0342
173 1 -1.1104 9.47278 -0.690276 9.35868
176 2 2.2208 8.04215 3.75731 10.6646
184 1 -1.1104 12.1243 -0.6373 9.5563
174 1 -1.1104 9.27685 5.32232 11.9498
181 1 -1.1104 12.2582 7.93578 12.0379
190 2 2.2208 10.8301 0.945526 10.603
191 2 2.2208 10.5965 3.73712 7.94093
188 1 -1.1104 12.3273 -0.518028 12.2242
197 1 -1.1104 9.48901 -3.34675 12.0919
189 2 2.2208 10.665 6.58958 10.6599
198 2 2.2208 7.96015 6.61735 7.98309
187 1 -1.1104 12.1234 5.03425 12.1552
192 1 -1.1104 12.0953 2.2733 9.32547
205 2 2.2208 13.7614 0.852572 13.5705
200 2 2.2208 10.9745 -1.96147 13.6126
204 2 2.2208 13.6586 6.61884 13.5498
213 2 2.2208 7.93739 -4.87159 13.4329
214 2 2.2208 5.45001 0.801405 16.3662
215 2 2.2208 5.26017 6.46645 16.3955
216 1 -1.1104 1.16652 -3.41201 17.7293
217 1 -1.1104 1.03628 2.30112 17.8439
218 1 -1.1104 0.92503 7.93154 17.8702
222 1 -1.1104 0.912977 -3.29868 14.8403
223 1 -1.1104 1.07115 2.29056 14.9004
224 1 -1.1104 1.01119 7.86042 14.8128
228 2 2.2208 5.14604 -1.97944 19.091
229 2 2.2208 5.21525 3.81153 19.0851
230 1 -1.1104 1.07747 -0.549984 17.6711
231 1 -1.1104 0.92794 5.1943 17.8288
234 1 -1.1104 1.17786 -0.53918 14.9344
235 1 -1.1104 1.08111 4.94927 14.9772
238 2 2.2208 2.44266 0.921738 19.1563
239 2 2.2208 2.32529 6.56013 19.2053
240 1 -1.1104 3.69843 -3.34441 17.8033
241 1 -1.1104 3.88619 2.46177 17.6554
243 1 -1.1104 3.77068 -3.45897 14.9371
244 1 -1.1104 4.07937 2.2175 14.9617
246 2 2.2208 2.37282 -1.81292 16.411
247 2 2.2208 2.54057 3.75044 16.2968
248 1 -1.1104 3.74504 -0.49347 17.6353
249 1 -1.1104 3.83407 5.27389 17.8412
250 1 -1.1104 3.93711 -0.628416 14.7395
251 1 -1.1104 4.05505 4.94599 14.9458
245 1 -1.1104 3.65789 7.97717 14.8123
301 1 -1.1104 1.15908 5.30636 20.7935
305 1 -1.1104 3.70001 2.31915 20.3024
295 1 -1.1104 0.794902 2.45971 20.6944
307 1 -1.1104 3.67327 -0.36297 20.5777
220 1 -1.1104 6.83445 2.40381 17.6836
227 1 -1.1104 6.3686 7.91536 15.0658
236 1 -1.1104 6.82124 -0.513201 15.0514
242 1 -1.1104 3.71498 8.02344 17.6111
294 1 -1.1104 1.15069 -3.31234 20.5263
296 1 -1.1104 0.957188 7.84819 20.6411
257 2 2.2208 2.4361 -4.83821 19.0839
221 1 -1.1104 6.67508 7.9089 17.882
232 1 -1.1104 6.57908 -0.869601 17.6396
233 1 -1.1104 6.68492 5.10615 17.6275
225 1 -1.1104 6.58084 -3.32939 14.8421
297 1 -1.1104 6.51011 -3.29231 20.4311
298 1 -1.1104 6.54402 2.31085 20.5474
302 1 -1.1104 6.2671 -0.681216 20.5915
253 2 2.2208 -0.427372 3.70543 19.2261
255 2 2.2208 -0.188406 6.58157 16.2602
306 1 -1.1104 3.74724 7.84554 20.4537
304 1 -1.1104 3.80804 -3.43976 20.5471
308 1 -1.1104 3.78001 5.04481 20.5922
256 2 2.2208 -0.176377 0.908179 16.3537
303 1 -1.1104 6.597 5.14154 20.4838
299 1 -1.1104 6.51909 7.83015 20.6219
219 1 -1.1104 6.64223 -3.56962 17.8297
226 1 -1.1104 6.72319 2.24941 14.8687
237 1 -1.1104 6.68838 5.14169 14.9048
278 1 -1.1104 9.37877 8.03475 17.7265
260 2 2.2208 10.9511 0.920456 16.3415
261 2 2.2208 10.9148 6.49983 16.3046
262 1 -1.1104 12.1568 -3.27363 17.8384
263 1 -1.1104 12.2997 2.29227 17.7629
265 1 -1.1104 12.2495 -3.44527 15.0365
266 1 -1.1104 12.2291 2.26424 15.0181
267 1 -1.1104 12.1367 8.08097 14.9804
268 2 2.2208 10.7016 -1.87888 19.1825
269 2 2.2208 10.7389 3.63963 19.1179
270 1 -1.1104 12.1481 -0.424395 17.6486
271 1 -1.1104 12.1566 5.10477 17.921
272 1 -1.1104 12.4118 -0.655259 15.0294
273 1 -1.1104 12.2257 5.11113 15.1736
274 2 2.2208 8.03306 0.933091 19.0277
275 2 2.2208 8.03489 6.4757 19.0784
276 1 -1.1104 9.44456 -3.24593 17.8709
277 1 -1.1104 9.56126 2.26336 17.7056
279 1 -1.1104 9.48258 -3.27759 14.9127
280 1 -1.1104 9.42758 2.20655 15.0205
282 2 2.2208 8.11784 -2.09099 16.3931
283 2 2.2208 8.17328 3.70625 16.3054
284 1 -1.1104 9.47685 -0.465111 17.7093
285 1 -1.1104 9.488 5.13695 17.6334
286 1 -1.1104 9.42877 -0.680188 14.9298
287 1 -1.1104 9.4087 5.17649 14.8534
264 1 -1.1104 12.1513 7.88177 17.9712
281 1 -1.1104 9.14739 8.07112 14.9652
384 1 -1.1104 9.44496 5.12859 20.4394
383 1 -1.1104 8.84709 -0.572735 20.3923
371 1 -1.1104 12.2323 8.09908 20.6301
382 1 -1.1104 9.37836 7.97193 20.4373
369 1 -1.1104 12.2655 -3.37625 20.7288
380 1 -1.1104 9.64541 -3.47221 20.5406
374 1 -1.1104 11.879 -0.494549 20.6363
381 1 -1.1104 9.3585 2.34338 20.5677
370 1 -1.1104 12.1408 2.32769 20.5124
9617 2 2.2208 13.754 -4.77562 19.2664
289 2 2.2208 13.7053 -1.79208 16.3775
290 2 2.2208 13.639 3.78447 16.4741
9616 2 2.2208 13.6207 6.47839 19.2141
300 1 -1.1104 0.858768 -0.384236 20.5804
63 2 2.2208 -0.43566 6.45187 27.6046
349 2 2.2208 -0.408968 6.49147 22.0522
57 2 2.2208 5.3789 1.07239 27.6333
67 2 2.2208 5.3184 -4.743 27.6089
309 2 2.2208 5.15713 0.861573 21.873
310 2 2.2208 5.26377 6.40398 21.9519
311 1 -1.1104 0.871268 -3.3875 23.2652
312 1 -1.1104 1.09866 2.24719 23.4685
313 1 -1.1104 0.992934 7.67017 23.5152
317 1 -1.1104 1.01301 -3.42322 26.2024
318 1 -1.1104 1.10596 2.3188 26.0862
319 1 -1.1104 1.24922 8.04526 26.2243
323 2 2.2208 5.19194 -1.79618 24.6399
324 2 2.2208 5.1458 3.71034 24.7354
325 1 -1.1104 0.983427 -0.646088 23.2382
326 1 -1.1104 1.06232 4.96749 23.5459
329 1 -1.1104 0.998904 -0.661716 26.1129
330 1 -1.1104 1.02081 5.0694 26.1683
333 2 2.2208 2.49101 0.866319 24.8108
334 2 2.2208 2.39556 6.4313 24.9455
335 1 -1.1104 3.82337 -3.19327 23.31
336 1 -1.1104 3.83335 2.22728 23.3145
337 1 -1.1104 3.80529 7.72032 23.3047
338 1 -1.1104 4.04942 -3.61664 26.0292
339 1 -1.1104 3.90582 2.26376 26.2259
340 1 -1.1104 3.99025 7.98027 26.2464
341 2 2.2208 2.44853 -1.88579 22.0297
342 2 2.2208 2.39702 3.88392 22.1549
343 1 -1.1104 3.7816 -0.474371 23.3526
344 1 -1.1104 4.07731 5.00296 23.3075
345 1 -1.1104 3.74234 -0.572556 26.2429
346 1 -1.1104 3.88328 4.92323 26.3059
55 2 2.2208 2.27171 -1.86063 27.5055
314 1 -1.1104 6.50937 -3.34362 23.253
316 1 -1.1104 6.6575 7.9226 23.3576
321 1 -1.1104 6.54084 2.2116 26.307
320 1 -1.1104 6.69045 -3.05593 25.9797
327 1 -1.1104 6.69156 -0.410112 23.3757
315 1 -1.1104 6.38732 2.16772 23.4642
332 1 -1.1104 6.61614 5.02735 26.0153
353 2 2.2208 2.37823 -4.73034 24.7652
352 2 2.2208 -0.238632 -4.89621 21.9282
56 2 2.2208 5.25563 6.54517 27.6554
54 2 2.2208 2.4131 3.77574 27.6326
363 1 -1.1104 12.1342 2.38782 23.3306
396 2 2.2208 10.8833 -4.85014 22.0535
120 2 2.2208 10.6251 -4.77863 27.5962
375 1 -1.1104 12.365 5.14982 20.6035
377 1 -1.1104 12.2622 -0.488964 23.4683
362 1 -1.1104 12.1389 2.43701 26.1689
110 2 2.2208 10.8295 0.892032 27.6518
356 1 -1.1104 9.33467 5.23801 23.2418
373 2 2.2208 10.668 1.07772 21.9399
360 2 2.2208 7.91182 -1.99703 22.0341
361 1 -1.1104 9.27723 7.94627 26.3756
331 1 -1.1104 6.67517 -0.552377 26.1292
357 2 2.2208 8.06681 6.56886 24.7507
115 2 2.2208 13.6482 -2.01125 27.567
390 1 -1.1104 9.21007 -3.48419 23.5233
108 2 2.2208 7.86404 -1.92856 27.5617
395 2 2.2208 13.6268 3.71774 22.0566
354 1 -1.1104 9.32242 5.17447 25.9881
379 1 -1.1104 12.0865 7.77147 25.9269
365 1 -1.1104 12.2929 5.12118 26.356
368 1 -1.1104 12.1628 -0.710289 26.3184
376 1 -1.1104 12.1919 5.05294 23.6283
387 1 -1.1104 9.41424 7.91943 23.3383
322 1 -1.1104 6.5933 7.77385 26.2214
386 1 -1.1104 9.2868 -3.37244 26.0514
355 1 -1.1104 9.3239 -0.522975 26.1672
358 1 -1.1104 9.46661 -0.555934 23.2918
359 2 2.2208 7.8182 3.7069 21.9853
328 1 -1.1104 6.58978 5.0228 23.3665
388 2 2.2208 10.7713 3.89934 24.8045
391 2 2.2208 10.7242 -1.9781 24.8468
378 1 -1.1104 12.3916 7.95688 23.2219
364 2 2.2208 7.95965 0.862079 24.8043
366 1 -1.1104 12.1811 -3.37754 23.5126
367 2 2.2208 10.8366 6.54515 21.8432
385 1 -1.1104 9.35894 2.32532 26.0406
389 1 -1.1104 9.1973 2.4008 23.3492
372 1 -1.1104 12.0944 -3.39005 26.297
393 2 2.2208 13.6161 6.42443 24.8681
394 2 2.2208 13.5866 -2.0683 22.1249
392 2 2.2208 13.6899 0.84355 24.9792
109 2 2.2208 10.9224 6.4867 27.5461
107 2 2.2208 8.09742 3.77509 27.5454
398 2 2.2208 5.1645 12.1542 5.08355
399 2 2.2208 5.08815 17.7853 5.0568
400 1 -1.1104 0.905851 13.5736 1.06419
402 1 -1.1104 0.95333 19.3726 1.00965
406 1 -1.1104 0.733114 13.7883 3.56847
407 1 -1.1104 0.877331 19.5621 3.64012
410 2 2.2208 5.13322 9.35059 2.35335
411 2 2.2208 5.20987 15.0878 2.23987
412 2 2.2208 5.28144 20.7154 2.23661
413 1 -1.1104 0.983994 10.7939 0.987351
415 1 -1.1104 0.879978 16.5385 0.745302
421 1 -1.1104 0.773257 10.7484 3.63776
422 1 -1.1104 1.01893 16.3956 3.64157
425 2 2.2208 2.3778 12.1491 2.2027
426 2 2.2208 2.26604 17.8598 2.31028
427 1 -1.1104 3.74593 13.4496 0.797233
429 1 -1.1104 3.72023 18.9852 0.89565
430 1 -1.1104 3.90029 13.6491 3.52409
431 1 -1.1104 3.88447 19.2983 3.59892
432 2 2.2208 2.32599 9.30705 5.06602
433 2 2.2208 2.27218 14.9997 4.9853
434 2 2.2208 2.24263 20.7019 5.0206
435 1 -1.1104 3.78163 10.6207 0.806753
437 1 -1.1104 3.84093 16.3625 0.752964
439 1 -1.1104 3.61483 10.8361 3.64665
440 1 -1.1104 3.68936 16.4255 3.72776
403 1 -1.1104 6.4626 13.6176 0.854091
414 1 -1.1104 0.786929 10.533 6.44853
423 1 -1.1104 6.38144 10.8128 3.63329
452 2 2.2208 -0.590394 12.1326 5.15057
420 1 -1.1104 6.67956 16.254 6.81144
409 1 -1.1104 6.68539 19.2719 3.72058
436 1 -1.1104 3.63947 10.6504 6.52913
498 1 -1.1104 3.64602 18.9829 6.35317
401 1 -1.1104 0.913322 13.4812 6.16031
428 1 -1.1104 3.62002 13.5642 6.47376
438 1 -1.1104 3.90443 16.4306 6.61592
496 1 -1.1104 0.81493 19.2243 6.40669
497 1 -1.1104 6.74118 19.3178 6.72022
447 2 2.2208 -0.500265 15.0439 2.29003
446 2 2.2208 -0.554477 20.6478 2.25794
448 2 2.2208 -0.411805 9.31351 2.25501
405 1 -1.1104 6.61269 19.2444 0.878047
419 1 -1.1104 6.46892 16.391 0.860752
424 1 -1.1104 6.69687 16.3965 3.80353
408 1 -1.1104 6.70859 13.6582 3.81371
417 1 -1.1104 6.66107 10.7708 0.659699
453 2 2.2208 10.8869 12.2455 5.21495
454 2 2.2208 10.8504 17.7602 5.21019
455 1 -1.1104 12.091 13.5101 1.00067
457 1 -1.1104 12.2862 19.1272 0.734093
458 1 -1.1104 12.2412 13.7027 3.76385
459 1 -1.1104 12.2532 19.3473 3.83256
460 2 2.2208 10.754 9.23943 2.31365
461 2 2.2208 10.7154 15.0396 2.3465
462 2 2.2208 10.8755 20.4704 2.27009
463 1 -1.1104 12.1668 10.6838 0.72688
465 1 -1.1104 12.0337 16.3868 0.914884
467 1 -1.1104 12.0715 10.7972 3.73476
468 1 -1.1104 12.1455 16.5112 3.76692
469 2 2.2208 8.0214 12.152 2.32873
470 2 2.2208 8.02243 17.8358 2.28567
471 1 -1.1104 9.21665 13.4497 0.874182
473 1 -1.1104 9.4252 18.9659 0.710228
474 1 -1.1104 9.56789 13.2962 3.58356
475 1 -1.1104 9.59509 18.9935 3.69421
476 2 2.2208 7.98472 9.31839 5.32482
477 2 2.2208 8.0579 14.9582 5.19528
478 2 2.2208 8.06763 20.6242 5.03694
479 1 -1.1104 9.3287 10.5112 1.07661
481 1 -1.1104 9.17816 16.168 1.02054
483 1 -1.1104 9.39437 10.6734 3.81224
484 1 -1.1104 9.51452 16.3624 3.8398
472 1 -1.1104 9.21003 13.4868 6.45579
480 1 -1.1104 9.41621 10.8059 6.67062
456 1 -1.1104 12.0985 13.6083 6.68434
404 1 -1.1104 6.34416 13.5044 6.6785
418 1 -1.1104 6.47118 10.8586 6.51065
464 1 -1.1104 12.2945 10.9072 6.65039
466 1 -1.1104 12.2015 16.3774 6.52622
482 1 -1.1104 9.35222 16.4589 6.59092
495 2 2.2208 13.6904 20.5078 5.06572
492 2 2.2208 13.6899 15.1551 5.15726
491 2 2.2208 13.5694 9.44511 5.08591
545 2 2.2208 -0.507845 20.4854 13.5863
416 1 -1.1104 1.0624 16.3311 6.53181
536 2 2.2208 2.42093 12.1842 13.5471
535 2 2.2208 5.21891 9.27856 13.63
534 2 2.2208 5.24089 14.9215 13.5927
540 2 2.2208 -0.481458 9.14561 7.81426
499 2 2.2208 5.16363 11.9952 10.6846
500 2 2.2208 5.18363 17.6905 10.9251
501 1 -1.1104 1.086 13.6405 12.2418
502 1 -1.1104 0.958508 19.0734 12.3406
505 1 -1.1104 0.980137 13.544 9.18965
506 1 -1.1104 1.02965 18.9779 9.47997
509 2 2.2208 5.14003 9.37569 7.73603
510 2 2.2208 5.01751 15.0134 7.93305
511 2 2.2208 5.05087 20.7619 8.0428
512 1 -1.1104 0.910408 10.8243 12.253
513 1 -1.1104 0.986776 16.3494 12.4924
516 1 -1.1104 0.81988 10.7538 9.15953
517 1 -1.1104 0.877908 16.3615 9.31843
520 2 2.2208 2.37531 12.1015 7.6952
521 2 2.2208 2.33812 17.8512 7.98407
522 1 -1.1104 3.90449 13.6466 11.9716
523 1 -1.1104 3.79871 19.1397 12.259
524 1 -1.1104 3.65915 13.4675 9.15863
525 1 -1.1104 3.71715 19.0746 9.48725
526 2 2.2208 2.32598 9.49952 10.626
527 2 2.2208 2.46159 14.9706 10.7247
528 2 2.2208 2.42548 20.5194 10.8768
529 1 -1.1104 3.51527 10.8937 11.9508
530 1 -1.1104 3.90789 16.4085 12.2055
531 1 -1.1104 3.66652 10.7351 9.1401
532 1 -1.1104 3.71096 16.3497 9.57041
514 1 -1.1104 6.55716 10.5346 12.134
543 2 2.2208 -0.464441 12.1628 10.6176
541 2 2.2208 -0.4467 14.9588 13.5765
533 2 2.2208 2.41043 17.6711 13.6973
503 1 -1.1104 6.5553 13.5071 12.142
507 1 -1.1104 6.46151 13.6106 9.39266
504 1 -1.1104 6.59753 19.1002 12.1211
518 1 -1.1104 6.6538 10.6709 9.25604
508 1 -1.1104 6.48068 19.1097 9.3271
539 2 2.2208 -0.457732 9.26401 13.4799
538 2 2.2208 -0.406301 14.9878 7.77101
537 2 2.2208 -0.302107 20.5508 7.93686
554 2 2.2208 8.06368 9.44046 10.7754
576 2 2.2208 7.96797 17.9281 13.5057
579 2 2.2208 7.98829 12.0772 13.6617
567 1 -1.1104 9.30607 19.308 12.0379
582 2 2.2208 13.542 17.6269 7.99402
559 2 2.2208 10.7123 14.9577 7.95246
515 1 -1.1104 6.60273 16.1164 12.2703
551 1 -1.1104 12.1132 16.3841 9.49734
562 2 2.2208 10.8384 9.32939 8.07058
573 1 -1.1104 12.3052 19.0766 12.2845
552 2 2.2208 8.04169 20.5926 10.768
584 2 2.2208 13.6761 12.2501 7.83724
560 1 -1.1104 12.0786 19.1261 6.62065
572 1 -1.1104 12.2731 13.5096 12.1843
548 1 -1.1104 9.3779 16.3761 12.1623
564 1 -1.1104 12.1887 13.6938 9.36243
519 1 -1.1104 6.53044 16.4026 9.46697
556 1 -1.1104 12.1615 16.4086 12.2863
561 1 -1.1104 9.34417 19.276 6.36005
550 2 2.2208 7.90243 12.3298 7.99296
555 1 -1.1104 12.1526 10.6745 9.47835
549 1 -1.1104 9.38313 10.8157 12.2148
547 1 -1.1104 9.39695 10.6802 9.3281
569 2 2.2208 7.85652 17.8547 8.02242
566 1 -1.1104 9.42263 13.5647 9.24443
558 2 2.2208 10.9133 20.7276 7.88122
571 2 2.2208 10.811 17.8445 10.8332
546 1 -1.1104 9.42311 16.4387 9.45513
570 2 2.2208 10.7581 12.1472 10.6473
565 1 -1.1104 9.42546 19.3531 9.24403
563 1 -1.1104 12.2485 19.2606 9.42221
568 1 -1.1104 9.43669 13.5888 12.0814
553 2 2.2208 7.93487 14.9697 10.6276
557 1 -1.1104 12.0305 10.798 12.1798
585 2 2.2208 10.7167 20.5673 13.594
578 2 2.2208 10.7674 9.45377 13.7786
580 2 2.2208 13.5419 9.23387 10.8081
583 2 2.2208 13.7699 17.6602 13.5655
574 2 2.2208 13.5712 20.4917 10.8468
586 2 2.2208 5.16931 12.1637 16.3489
587 2 2.2208 5.20902 17.8804 16.4363
588 1 -1.1104 0.82035 13.6055 17.9863
589 1 -1.1104 1.18715 19.046 17.9883
592 1 -1.1104 0.928799 13.5674 15.1004
593 1 -1.1104 0.798291 19.1773 15.2504
596 2 2.2208 5.12977 9.22613 19.1663
597 2 2.2208 4.99036 14.8015 19.1655
598 2 2.2208 5.25166 20.6652 19.1965
599 1 -1.1104 1.10431 10.6297 17.5426
600 1 -1.1104 0.823747 16.3128 17.9631
603 1 -1.1104 0.944483 10.7338 14.8704
604 1 -1.1104 0.929776 16.4624 15.0709
607 2 2.2208 2.30382 12.0219 19.3278
608 2 2.2208 2.31956 17.6047 19.5001
609 1 -1.1104 3.62214 13.4296 17.8538
610 1 -1.1104 3.88567 19.1468 17.9825
611 1 -1.1104 3.90832 13.5636 14.8228
612 1 -1.1104 3.90678 19.0643 15.0211
613 2 2.2208 2.46677 9.41752 16.2924
614 2 2.2208 2.27065 14.8822 16.6553
615 2 2.2208 2.21194 20.3746 16.5938
616 1 -1.1104 3.93217 10.7383 17.9613
617 1 -1.1104 3.56648 16.3134 17.9074
618 1 -1.1104 3.71651 10.6977 14.9909
619 1 -1.1104 3.9468 16.4285 15.0608
662 1 -1.1104 0.840715 10.7342 20.3853
620 2 2.2208 -0.588059 17.641 16.4391
660 1 -1.1104 6.30617 13.3205 20.4283
623 2 2.2208 -0.471659 12.069 16.3022
605 1 -1.1104 6.46838 10.6469 14.9835
595 1 -1.1104 6.68509 19.3831 14.8852
594 1 -1.1104 6.64892 13.5742 14.8961
606 1 -1.1104 6.72752 16.4307 15.1498
665 1 -1.1104 6.55701 16.4133 20.5206
664 1 -1.1104 6.66289 10.6352 20.5938
667 1 -1.1104 3.82971 19.344 20.8781
658 1 -1.1104 0.805754 13.6043 20.5886
669 1 -1.1104 3.69683 16.2852 20.5788
666 1 -1.1104 3.63349 13.4456 20.5835
661 1 -1.1104 6.6592 19.2547 20.54
659 1 -1.1104 0.808247 19.1729 20.7839
668 1 -1.1104 3.7315 10.6514 20.6454
624 2 2.2208 -0.460331 9.3545 19.1559
544 2 2.2208 5.25911 20.5701 13.4497
590 1 -1.1104 6.52963 13.5279 17.6029
601 1 -1.1104 6.64582 10.7427 17.7541
591 1 -1.1104 6.71492 19.1285 17.7232
602 1 -1.1104 6.45909 16.2681 17.947
625 2 2.2208 10.8254 12.2088 16.5264
626 2 2.2208 10.7874 17.728 16.321
627 1 -1.1104 12.3008 13.5339 17.8906
628 1 -1.1104 12.2688 19.2031 17.6632
629 1 -1.1104 12.3548 13.5145 15.1765
630 1 -1.1104 12.4254 19.0838 15.0328
632 2 2.2208 10.6975 9.39934 19.2482
633 2 2.2208 10.9786 14.9097 19.0545
634 2 2.2208 10.8981 20.5885 18.9485
635 1 -1.1104 12.2736 10.7089 17.855
636 1 -1.1104 12.2376 16.4089 17.6603
637 1 -1.1104 12.0281 10.8496 15.1162
638 1 -1.1104 12.2198 16.2614 14.9005
639 2 2.2208 7.88691 12.1082 19.1678
640 2 2.2208 8.01102 17.7719 19.2319
641 1 -1.1104 9.41333 13.5714 17.7981
642 1 -1.1104 9.43659 19.1031 17.6483
643 1 -1.1104 9.49549 13.4474 14.9202
644 1 -1.1104 9.52147 19.23 14.9185
646 2 2.2208 7.92182 9.32244 16.4706
647 2 2.2208 8.08569 15.0803 16.4027
648 2 2.2208 8.00266 20.4731 16.3255
649 1 -1.1104 9.21301 10.7899 17.857
650 1 -1.1104 9.41142 16.403 17.8525
651 1 -1.1104 9.35081 10.8549 15.2483
652 1 -1.1104 9.47354 16.4984 14.8063
631 1 -1.1104 12.3077 19.2957 20.3317
727 1 -1.1104 12.12 16.4218 20.6526
726 1 -1.1104 12.1332 10.9592 20.6149
731 1 -1.1104 9.45889 10.7054 20.7601
730 1 -1.1104 9.13161 13.5738 20.5035
645 1 -1.1104 9.52856 19.204 20.4624
722 1 -1.1104 11.9216 13.5985 20.6914
577 2 2.2208 10.7175 14.9143 13.612
663 1 -1.1104 1.10378 16.3966 20.7205
445 2 2.2208 5.28502 12.0982 27.6209
442 2 2.2208 2.19915 14.9177 27.6486
451 2 2.2208 -0.404145 12.053 27.6698
443 2 2.2208 2.55608 9.38099 27.5519
704 2 2.2208 -0.559956 20.5581 24.6367
670 2 2.2208 5.03874 11.9432 21.9426
671 2 2.2208 5.07479 17.6897 22.0073
672 1 -1.1104 1.10585 13.5714 23.3435
673 1 -1.1104 1.05827 19.2271 23.4739
676 1 -1.1104 0.984909 13.5912 26.2151
677 1 -1.1104 0.829436 19.1659 26.0665
680 2 2.2208 5.35263 9.23281 24.7929
681 2 2.2208 4.98595 14.8308 24.7031
682 2 2.2208 5.0516 20.5348 24.7686
683 1 -1.1104 1.16572 10.5797 23.3803
684 1 -1.1104 0.80015 16.3634 23.3032
687 1 -1.1104 1.06659 10.8245 26.1813
688 1 -1.1104 0.801068 16.4099 26.1262
691 2 2.2208 2.35169 12.0906 24.7953
692 2 2.2208 2.14829 17.6408 24.8258
693 1 -1.1104 3.68994 13.3312 23.1334
694 1 -1.1104 3.85566 19.0778 23.3911
695 1 -1.1104 3.81614 13.4612 26.0573
696 1 -1.1104 3.40996 19.1126 26.22
697 2 2.2208 2.44302 9.14896 22.0004
698 2 2.2208 2.35711 14.8882 21.9637
699 2 2.2208 2.38984 20.6284 22.1545
700 1 -1.1104 3.8611 10.4728 23.4087
701 1 -1.1104 3.67477 16.3353 23.4499
702 1 -1.1104 4.06775 10.676 26.0027
703 1 -1.1104 3.58115 16.3047 26.2918
444 2 2.2208 5.10223 17.7531 27.542
441 2 2.2208 2.22429 20.5513 27.5822
686 1 -1.1104 6.43818 16.2192 23.3471
678 1 -1.1104 6.581 13.3571 26.1677
689 1 -1.1104 6.8555 10.5181 26.1278
708 2 2.2208 -0.48846 12.2852 21.9885
705 2 2.2208 -0.455497 15.0158 24.7949
450 2 2.2208 -0.438455 17.7992 27.5234
707 2 2.2208 -0.440303 17.772 22.0289
485 2 2.2208 8.04879 20.4874 27.552
735 1 -1.1104 9.40442 13.5916 23.4195
709 1 -1.1104 9.46633 16.3675 26.296
715 2 2.2208 7.95935 9.27352 22.002
740 1 -1.1104 12.0937 13.5846 23.4191
486 2 2.2208 7.97958 14.921 27.6954
737 2 2.2208 8.07971 12.1245 24.8331
690 1 -1.1104 6.61429 16.2056 26.2721
675 1 -1.1104 6.57879 19.0809 23.3392
719 1 -1.1104 12.1552 16.3001 26.3485
728 1 -1.1104 12.2812 19.1729 23.2793
739 2 2.2208 10.8605 17.8215 21.853
713 2 2.2208 7.95629 20.7131 21.9661
732 1 -1.1104 9.37135 16.4558 20.7337
679 1 -1.1104 6.36503 19.0466 26.0253
720 1 -1.1104 12.3478 19.4084 26.1852
738 2 2.2208 10.7464 12.1096 22.0515
724 2 2.2208 10.7542 14.9537 24.8556
711 1 -1.1104 9.31752 16.419 23.3383
725 1 -1.1104 12.175 16.3971 23.4526
487 2 2.2208 7.97291 9.32569 27.6609
733 1 -1.1104 9.42221 13.589 26.2939
729 1 -1.1104 12.2945 10.8198 23.3817
716 1 -1.1104 9.37552 19.1831 25.9763
718 2 2.2208 10.6471 20.6283 24.8118
685 1 -1.1104 6.69667 10.6018 23.3166
674 1 -1.1104 6.45827 13.3852 23.4442
734 1 -1.1104 9.38566 19.3752 23.2337
721 1 -1.1104 12.2247 10.8562 26.206
712 1 -1.1104 9.48514 10.8363 23.5073
488 2 2.2208 10.8319 17.8308 27.5141
723 1 -1.1104 12.3092 13.5895 26.2631
714 2 2.2208 7.82474 14.9808 21.9663
717 2 2.2208 10.8259 9.35896 24.8544
736 2 2.2208 7.88094 17.7038 24.7214
710 1 -1.1104 9.57093 10.6566 26.2893
9794 2 2.2208 13.594 20.6154 27.4871
742 2 2.2208 13.5563 17.7677 24.8874
494 2 2.2208 13.557 14.8511 27.5992
489 2 2.2208 10.644 12.0979 27.7209
746 2 2.2208 5.20015 23.4174 5.11365
748 2 2.2208 5.35907 29.0219 5.05652
749 1 -1.1104 1.07492 24.9088 0.73073
750 1 -1.1104 1.06531 30.4618 0.69797
753 1 -1.1104 0.965506 24.9255 3.48856
754 1 -1.1104 1.02194 30.574 3.6915
757 2 2.2208 5.38573 26.1441 2.25979
758 2 2.2208 5.2493 31.9228 2.28302
759 1 -1.1104 0.9373 22.0324 0.786256
760 1 -1.1104 1.06014 27.5979 0.790365
761 1 -1.1104 0.902307 33.4286 0.857568
765 1 -1.1104 0.903121 22.2738 3.60739
766 1 -1.1104 1.14627 27.7626 3.86168
767 1 -1.1104 1.11936 33.2101 3.84574
771 2 2.2208 2.39751 23.5283 2.11922
772 2 2.2208 2.40772 29.11 2.27918
773 1 -1.1104 4.00802 24.8904 0.64232
774 1 -1.1104 3.85236 30.5621 0.692373
775 1 -1.1104 3.94518 24.8044 3.60795
776 1 -1.1104 3.91044 30.3057 3.67462
778 2 2.2208 2.59518 26.1761 4.99059
779 2 2.2208 2.54601 31.8805 5.12041
780 1 -1.1104 3.7782 22.0404 0.873254
781 1 -1.1104 3.72473 27.7625 1.18134
782 1 -1.1104 3.5361 33.2625 0.91049
783 1 -1.1104 3.79174 21.9714 3.71782
784 1 -1.1104 4.08765 27.4753 3.725
785 1 -1.1104 3.76628 33.1611 3.61889
769 1 -1.1104 6.78918 27.7375 3.72395
751 1 -1.1104 6.76551 24.7512 0.925094
756 1 -1.1104 6.65341 30.4777 3.73548
841 1 -1.1104 3.83771 27.5875 6.43957
838 1 -1.1104 3.86583 24.7464 6.5702
834 1 -1.1104 1.20267 33.2223 6.6364
842 1 -1.1104 4.00497 33.1292 6.70237
790 2 2.2208 -0.368133 31.9874 2.35597
789 2 2.2208 -0.370099 29.1143 5.30055
770 1 -1.1104 6.66726 33.2565 3.71097
786 2 2.2208 -0.531399 26.318 2.28597
755 1 -1.1104 6.68158 24.7555 3.74353
768 1 -1.1104 6.57471 21.9947 3.66349
835 1 -1.1104 6.35369 21.7957 6.39814
840 1 -1.1104 3.60574 21.8423 6.47907
828 1 -1.1104 0.975883 24.9189 6.35569
833 1 -1.1104 1.1745 27.4438 6.59869
831 1 -1.1104 6.74435 30.3181 6.61737
836 1 -1.1104 6.62783 27.5385 6.58759
752 1 -1.1104 6.52082 30.686 0.69782
763 1 -1.1104 6.69261 27.6888 0.864614
764 1 -1.1104 6.58663 33.3777 1.04636
762 1 -1.1104 6.79209 22.0094 0.800242
898 1 -1.1104 12.1652 27.7123 6.65561
793 2 2.2208 10.8418 23.4673 4.96737
794 2 2.2208 10.7135 29.096 5.02981
795 1 -1.1104 12.0903 24.7943 0.721725
796 1 -1.1104 12.0462 30.6971 0.864656
797 1 -1.1104 12.4459 24.7225 3.55369
798 1 -1.1104 12.196 30.2971 3.73136
799 2 2.2208 10.8521 26.2476 2.36464
800 2 2.2208 10.7591 31.9217 2.27564
801 1 -1.1104 12.4373 21.9507 0.879361
802 1 -1.1104 12.392 27.7515 0.904403
803 1 -1.1104 12.2804 33.1923 1.05896
804 1 -1.1104 12.2098 21.8903 3.52261
805 1 -1.1104 12.2377 27.6359 3.64383
806 1 -1.1104 12.0866 33.1659 3.86976
807 2 2.2208 7.99604 23.395 2.26857
808 2 2.2208 8.0833 28.9327 2.28321
809 1 -1.1104 9.50611 24.7716 1.03366
810 1 -1.1104 9.27863 30.5599 0.858833
811 1 -1.1104 9.48889 24.8391 3.72447
812 1 -1.1104 9.42041 30.3946 3.65141
814 2 2.2208 7.97691 26.1804 5.15475
815 2 2.2208 8.09965 31.8686 5.05886
816 1 -1.1104 9.46281 21.666 0.761691
817 1 -1.1104 9.59168 27.5211 0.774753
818 1 -1.1104 9.48716 33.3981 0.899055
819 1 -1.1104 9.34536 21.9441 3.57065
820 1 -1.1104 9.3965 27.6142 3.5113
821 1 -1.1104 9.50082 33.3345 3.65164
895 1 -1.1104 12.1894 24.9061 6.37251
903 1 -1.1104 9.51697 22.0053 6.48988
905 1 -1.1104 9.32206 33.31 6.47159
901 1 -1.1104 9.62034 30.4769 6.6111
900 1 -1.1104 9.4077 24.7747 6.53701
899 1 -1.1104 12.1757 33.2017 6.52308
896 1 -1.1104 12.2279 30.4511 6.48515
826 2 2.2208 13.646 28.9407 2.22463
904 1 -1.1104 9.38251 27.547 6.56474
830 1 -1.1104 6.75854 24.7582 6.42829
824 2 2.2208 13.5649 31.756 4.9639