30000
Atoms. Timestep: 2000000
2 26.9223 22.5074 135.766
2 16.161 14.5987 456.727
2 5.09069 16.8215 68.5424
2 25.9916 10.4898 69.833
1 12.1489 28.7918 479.68
1 28.1994 3.41981 56.8497
1 12.697 11.4024 179.038
1 29.4106 17.4744 66.9929
1 18.0197 23.6661 397.651
1 8.07763 28.2939 69.0865
1 16.9326 18.0768 122.471
1 3.8807 10.0693 83.4078
2 4.19362 6.6163 466.304
2 23.8064 16.0691 167.543
2 22.401 8.6317 71.9055
2 11.5506 1.50373 55.5801
1 25.3354 11.9511 461.499
1 24.3013 -2.24891 106.79
1 13.2324 14.6455 476.625
1 27.0836 28.434 67.4279
1 8.54733 -1.79529 348.15
1 26.9064 9.72574 441.294
1 29.6297 15.0197 465.565
1 -2.02084 -0.373537 491.971
2 24.7389 14.8771 58.9199
2 18.1837 15.8406 91.4589
2 11.3296 26.7278 80.3478
2 13.4681 26.4226 479.582
1 4.27025 22.2685 382.304
1 24.711 26.0352 135.404
1 23.6 1.20734 129.105
1 17.7659 15.3804 463.108
1 25.2509 1.63976 474.017
1 20.6372 12.6762 488.232
1 9.98654 10.8497 411.376
1 12.0736 -0.636361 82.7016
2 13.7853 11.5926 55.6376
2 13.5924 23.7701 55.7595
2 24.7149 23.8865 58.3671
2 4.90702 0.661142 95.4282
1 22.7703 18.1148 397.05
1 1.96688 -1.09483 69.6813
1 0.242035 -0.922996 439.1
1 1.93666 28.6857 146.986
1 5.09877 25.822 142.361
1 26.5246 13.5703 159.11
1 25.7013 5.96254 487.983
1 0.0796557 11.5307 156.383
2 5.16169 23.0747 86.3316
2 2.93988 9.71991 464.496
2 24.6298 11.9014 490.013
2 26.3021 9.09221 480.1
1 10.76 13.9265 146.924
1 0.566441 16.1124 420.502
1 11.7311 24.8258 454.596
1 10.212 13.2328 159.193
1 11.301 25.5352 78.1484
1 10.3454 -1.61986 442.179
1 6.88113 1.28954 98.6328
1 3.23663 21.3011 357.854
2 9.93444 11.1082 432.202
2 4.0206 1.23466 64.559
2 17.3614 1.64578 72.3754
2 6.45752 -1.99904 102.475
1 14.6904 18.154 327.003
1 15.8114 8.41767 452.32
1 0.368705 2.05693 444.992
1 0.0633198 0.6706 104.557
1 3.81285 28.2504 419.117
1 19.9656 29.3855 117.891
1 12.6781 10.3337 436.223
1 3.44405 13.8596 60.6968
2 25.8804 -0.531809 53.3033
2 11.8236 0.729611 486.366
2 10.7548 14.1483 433.898
2 1.46199 15.1192 54.2557
1 10.7043 -1.22727 97.1004
1 6.52003 2.3791 471.785
1 11.9453 7.91964 79.2813
1 26.6138 17.8795 72.8369
1 8.88599 13.5956 181.027
1 28.2322 24.9462 418.221
1 23.3436 12.6757 446.511
1 15.7478 14.7007 127.555
2 8.47666 27.247 471.507
2 9.77976 -0.26601 477.293
2 6.66937 3.4296 63.678
2 2.4845 25.0183 113.688
1 20.5449 7.43434 464.675
1 14.6933 25.8941 56.5562
1 11.611 6.15227 445.381
1 11.5899 24.3943 93.9055
1 23.9909 27.1017 62.0347
1 27.6753 13.2295 478.15
1 23.4535 17.6356 110.007
1 12.8878 0.627775 57.7248
2 12.3374 28.32 100.72
2 20.7693 17.0771 87.4033
2 16.5267 25.4365 469.254
2 0.756847 18.3417 430.154
1 27.7216 11.833 474.63
1 13.9566 -0.533086 491.928
1 9.51848 17.5022 482.914
1 18.4762 20.0447 67.9403
1 1.65776 15.3781 56.5672
1 2.77629 20.1526 107.122
1 3.00596 25.0367 155.392
1 11.7787 0.825508 88.9737
2 23.0749 4.69935 481.915
2 3.6568 -0.26376 480.398
2 19.9621 16.094 462.967
2 3.82544 28.8613 447.966
1 1.59171 16.3267 97.1032
1 15.141 17.8554 131.592
1 26.9391 5.70158 443.353
1 18.7954 1.55368 483.42
1 23.7429 21.2198 79.4303
1 8.3714 0.587329 399.233
1 26.1664 25.0271 487.673
1 -0.867912 10.9797 54.3583
2 -1.30563 25.5225 487.262
2 8.2258 11.9915 493.409
2 14.509 27.1193 475.5
2 2.18363 6.68704 68.6325
1 4.44672 11.4412 465.627
1 25.4238 7.66197 474.075
1 23.2013 25.089 56.8551
1 18.2813 24.5494 430.266
1 6.8422 1.63971 84.4452
1 11.1604 20.2183 116.273
1 -0.333129 2.9796 78.1634
1 22.0975 12.4909 475.017
2 1.11066 -0.452413 55.4924
2 7.6221 14.8227 447.44
2 19.6866 14.4461 447.871
2 23.4229 22.19 493.352
1 23.9171 27.042 70.6012
1 21.7746 22.5146 389.56
1 5.73264 23.4682 413.018
1 23.663 4.16686 59.3675
1 3.20969 8.05343 442.487
1 28.0408 8.83532 398.604
1 15.5434 10.4548 119.092
1 -2.33268 28.3879 111.962
2 -1.69234 19.5154 96.8578
2 -0.552686 22.9503 468.956
2 3.16726 15.8563 98.5839
2 15.1907 -0.907971 451.378
1 1.18944 0.836365 124.234
1 8.89883 23.8523 63.848
1 12.5818 23.5698 446.333
1 16.9042 17.7496 185.55
1 23.6338 8.65176 153.672
1 13.4122 3.96057 78.8992
1 20.1919 2.72715 77.8384
1 3.20974 26.1836 60.5822
2 3.91462 7.63922 83.962
2 26.9467 2.31275 73.0761
2 24.2065 20.5961 65.609
2 4.05932 12.7299 487.775
1 0.438093 17.7258 244.876
1 22.7121 13.2543 112.992
1 24.5458 9.49176 205.877
1 16.7389 10.7993 171.142
1 25.9406 14.9046 70.2803
1 19.5242 28.3106 490.474
1 27.2465 -0.0205787 438.784
1 16.8996 18.3035 56.6968
2 14.8418 2.79142 472.171
2 9.66608 22.4957 488.635
2 13.577 12.7544 475.202
2 7.70393 25.9585 482.678
1 14.1744 21.9432 111.542
1 0.758806 28.9631 93.9697
1 19.1167 7.72871 138.73
1 14.1869 0.313284 123.612
1 4.33612 26.5629 447.538
1 5.64157 26.2523 73.2691
1 7.27732 3.32361 483.435
1 29.6876 27.3763 152.312
2 16.9095 24.5061 88.601
2 9.9203 8.86119 62.9259
2 27.6725 1.30254 468.999
2 10.2215 1.71936 90.3615
1 3.2326 26.1763 192.225
1 25.6809 -0.388949 95.0739
1 4.34046 0.732147 487.869
1 9.93698 4.94666 64.2218
1 26.8058 8.45138 67.3003
1 4.26138 10.9564 72.0044
1 5.50019 2.83265 459.937
1 11.7051 22.8007 489.939
2 2.12222 20.1324 437.604
2 2.14532 24.8704 56.7978
2 -0.916112 0.599738 71.8923
2 2.31374 -1.43769 94.0751
1 13.3245 3.83847 465.356
1 -2.16543 21.4849 450.693
1 24.3682 -0.727235 411.609
1 0.322618 17.484 85.7372
1 12.1572 12.1971 478.273
1 21.747 14.9172 458.968
1 10.8625 19.9342 456.487
1 0.976652 11.8332 56.7107
2 19.4036 10.0084 465.942
2 27.5811 17.4236 480.3
2 27.2988 15.434 477.048
2 24.8578 0.93639 438.822
1 20.234 6.76744 76.5432
1 -1.93526 28.7024 60.582
1 24.3266 3.97025 105.703
1 7.84462 23.3811 459.241
1 7.46349 9.07271 415.595
1 28.2483 27.6032 446.385
1 2.06933 19.6479 58.2078
1 8.79787 7.6782 54.889
2 29.0552 13.317 459.312
2 21.0696 25.0389 86.9741
2 19.0108 8.91631 429.788
2 2.36615 -0.327908 411.161
1 22.7444 27.7067 73.4545
1 17.3671 8.71295 85.0299
1 1.26131 22.8238 84.0281
1 25.1695 21.6127 191.579
1 16.6446 10.1424 87.7091
1 25.3461 27.5285 162.246
1 2.1005 14.5511 79.6868
1 -0.876316 16.9088 456.778
2 8.15507 18.1936 463.549
2 20.5085 2.37494 75.5995
2 23.8061 9.38365 81.1161
2 16.7718 25.5918 462.553
1 4.87803 9.25983 62.3603
1 4.65738 25.9963 454.657
1 28.1887 4.66794 63.9695
1 12.8374 5.98027 91.8797
1 25.5333 17.7333 175.523
1 15.1227 22.0891 85.1705
1 27.2233 21.3553 144.321
1 6.60431 3.12371 462.608
2 0.528053 7.20213 82.8252
2 17.6149 14.1085 87.8407
2 27.3385 19.4657 477.31
2 4.41337 13.8059 484.112
1 25.7793 8.15507 92.7302
1 18.6624 13.9307 102.202
1 22.9662 19.0373 437.382
1 6.43108 16.5772 70.6266
1 5.95185 4.85663 67.2281
1 29.111 12.8907 108.7
1 2.98645 4.95487 452.997
1 15.1886 29.2219 65.1658
2 21.1622 6.55496 82.0046
2 29.5593 -1.16583 78.5019
2 5.95818 11.2446 63.6604
2 4.38575 18.8261 400.218
1 18.6008 17.8383 461.761
1 18.6705 29.0701 70.2146
1 6.20785 1.13789 64.4928
1 4.12693 2.22312 122.894
1 12.4855 23.4051 60.5789
1 9.4089 22.8857 105.018
1 13.9074 13.6915 125.263
1 13.5812 2.5204 60.7168
2 -0.135042 8.36321 86.1637
2 -0.240634 -1.92731 419.034
2 15.0886 3.81419 485.777
2 2.37413 6.15204 488.05
1 12.2495 -1.91581 456.394
1 10.5079 9.0936 433.212
1 28.0071 6.92563 476.939
1 17.9061 29.6083 459.969
1 25.8896 5.33009 58.0383
1 -1.27546 2.0895 473.239
1 25.5406 16.6466 484.316
1 17.37 23.3961 70.6602
2 8.853 20.3536 466.443
2 10.4081 25.8738 415.054
2 4.71522 24.5926 442.212
2 11.0674 26.4354 448.531
1 8.98113 8.87342 84.3478
1 3.7657 5.90718 85.8858
1 3.53992 16.7536 474.694
1 3.03779 16.7023 53.925
1 25.9605 17.6211 108.666
1 22.8528 6.91052 463.006
1 8.33577 21.1291 438.612
1 9.36527 13.5535 59.132
2 26.7738 26.4878 466.343
2 3.54042 24.2772 89.6848
2 24.505 1.16091 86.742
2 1.89675 14.6731 444.101
1 6.9048 19.4247 465.326
1 7.93403 17.2161 418.94
1 3.60325 25.6389 468.478
1 26.2654 7.74621 86.3076
1 21.6587 21.693 475.791
1 9.29291 27.4835 421.963
1 24.2204 23.2387 92.8133
1 8.01511 -1.38994 97.5954
2 -0.511628 27.3945 78.0433
2 23.0617 7.85444 143.604
2 19.6505 26.6966 485.563
2 21.4164 -0.614525 449.756
1 2.29038 -0.369908 80.0519
1 2.88226 22.0946 142.915
1 20.5658 27.0395 380.283
1 6.88376 20.5182 473.728
1 -1.29552 9.34511 487.049
1 0.477959 -0.0549863 412.372
1 -0.389565 12.1743 459.886
1 0.928197 10.0147 451.439
2 28.8301 18.1511 114.185
2 3.80466 9.00429 103.764
2 15.0923 14.3844 108.692
2 12.61 13.919 464.947
1 4.93393 9.0102 94.1825
1 13.3303 2.87405 483.539
1 -0.455424 23.2429 448.885
1 12.9806 2.37023 428.133
1 1.20439 8.6242 444.723
1 12.1397 5.69217 84.088
1 5.26247 10.5437 237.578
1 17.8523 5.61821 104.358
2 23.8446 -0.27438 473.806
2 1.88501 12.6479 124.288
2 22.1647 5.62865 456.605
2 23.1841 8.19691 473.369
1 8.59841 3.23567 214.558
1 28.0331 5.75594 87.7203
1 21.4628 12.1289 483.756
1 9.07064 14.2495 484.057
1 20.2516 -0.177776 430.073
1 4.42073 23.6507 120.82
1 21.741 24.7408 476.018
1 20.6462 0.0727 485.84
2 14.4655 23.1995 478.191
2 17.424 8.61147 82.7331
2 12.1998 0.574203 463.74
2 2.36604 12.388 156.058
1 17.7282 2.83857 91.5731
1 14.3583 6.43749 78.2277
1 16.9094 28.5979 96.6322
1 19.4759 19.9273 62.1817
1 23.7081 25.5313 109.488
1 9.87087 16.8442 86.5649
1 -0.349706 14.9771 153.508
1 15.393 7.42778 490.7
2 27.678 21.2073 451.136
2 9.0781 15.567 146.864
2 25.8052 -1.54393 73.3525
2 11.7877 5.02348 485.806
1 8.03712 23.0414 82.2723
1 19.5938 25.7497 477.192
1 22.2113 8.09748 166.741
1 19.3564 21.3015 455.726
1 15.7916 15.844 470.49
1 5.50409 2.03235 71.4513
1 -0.652616 1.32726 391.349
1 0.0467281 3.8179 86.5537
2 10.7364 29.4273 457.982
2 5.41518 -1.74342 79.6369
2 6.72945 -0.0235114 131.457
2 1.12 28.1693 106.668
1 26.3578 25.7351 451.554
1 1.22333 23.5532 125.34
1 14.3207 23.9736 452.911
1 2.96537 -0.730339 53.7982
1 4.76138 24.6166 470.582
1 25.3392 1.15022 77.0722
1 25.2998 2.88804 429.98
1 12.3804 12.6783 462.986
2 0.00619906 19.7588 110.682
2 0.186356 3.91716 485.683
2 20.0616 28.496 60.985
2 21.6519 5.88942 62.7051
1 24.3393 8.69827 65.5712
1 8.90359 9.74468 450.452
1 3.73636 21.8065 480.433
1 25.086 -1.73815 97.5498
1 -0.613347 16.1259 78.635
1 26.2751 5.52669 81.8114
1 4.43318 25.3135 112.409
1 9.77353 0.790337 66.9036
2 0.483683 25.776 125.144
2 10.7545 17.7804 477.108
2 -1.78454 23.5577 491.29
2 -1.04117 26.151 59.5473
1 11.3865 6.04577 223.457
1 4.92699 20.6037 460.373
1 3.40216 23.4954 449.133
1 15.1597 1.94468 469.98
1 24.5821 29.5928 61.1931
1 17.9201 11.2398 63.0051
1 3.30961 26.9791 65.1149
1 15.6396 -1.48896 493.389
2 6.65183 18.0338 63.7463
2 11.2359 11.2098 131.814
2 14.1876 0.0768875 65.2839
2 11.0688 12.8841 490.847
1 10.3492 19.9213 157.314
1 2.72196 1.31528 115.178
1 11.0014 24.8248 144.544
1 28.352 -1.83478 485.241
1 16.3448 13.5661 429.168
1 8.98703 15.2989 114.403
1 14.3463 5.34915 152.484
1 12.7126 6.20252 441.68
2 23.6196 0.621845 64.5784
2 19.6064 1.11531 436.077
2 18.1569 23.1042 456.429
2 28.7126 4.47867 70.8316
1 3.44432 24.4608 73.4836
1 18.6655 20.3447 452.617
1 19.535 10.6473 85.8012
1 -0.891991 23.3541 117.344
1 22.3641 2.77218 132.095
1 16.4497 18.0045 118.38
1 9.11911 26.3439 403.182
1 -1.38478 6.24857 73.6748
2 17.5606 18.1217 67.0675
2 27.7632 10.6543 80.1606
2 23.011 3.78047 157.671
2 27.9043 4.82252 475.742
1 16.4361 6.56621 133.461
1 1.67899 23.3405 54.9643
1 20.8383 5.48899 71.764
1 10.7785 27.3863 125.671
1 7.82953 7.78373 487.03
1 8.60388 7.10702 217.418
1 2.78342 10.6555 75.5973
1 -1.39639 18.6771 449.129
2 26.2802 1.12925 79.1911
2 27.226 11.1101 483.552
2 0.566737 12.6047 99.0615
2 5.65727 26.8552 81.6994
1 0.512224 26.3184 473.966
1 17.422 8.44573 131.632
1 16.8185 17.576 73.0162
1 8.41824 2.96933 91.1189
1 16.1086 6.90892 478.525
1 4.03676 -0.753495 71.9035
1 10.2392 28.1651 138.117
1 6.39135 9.50921 119.808
2 26.1752 29.5578 84.8008
2 9.05626 1.56003 113.534
2 8.21952 3.54199 70.18
2 6.41682 12.575 441.602
1 24.6276 16.5415 434.684
1 19.4325 25.8081 492.623
1 22.1806 14.7032 487.128
1 15.1981 8.53465 96.5113
1 14.6727 -1.24573 486.128
1 15.1667 7.03217 140.063
1 28.7604 10.4465 55.0752
1 3.10928 26.7838 460.59
2 13.0918 22.5485 460.121
2 11.9244 23.7154 83.1688
2 21.7028 19.9639 63.0006
2 23.2235 -0.911976 481.797
1 26.0521 15.8458 462.147
1 10.3629 -0.421019 113.926
1 16.3124 6.20987 451.03
1 22.5064 -2.14855 133.996
1 21.554 2.34658 102.679
1 11.4259 1.05445 418.03
1 2.60182 8.57463 439.208
1 3.98933 3.36701 54.3135
2 11.054 2.38842 105.887
2 7.58322 19.271 489.128
2 -1.8929 26.4785 85.3681
2 21.1275 22.2304 71.1281
1 10.7165 0.237257 77.3809
1 13.421 4.86211 67.7985
1 2.69252 28.798 88.5384
1 23.7011 1.13345 471.615
1 -1.25538 8.71306 71.8733
1 19.4716 12.8207 109.989
1 2.02277 19.685 471.408
1 11.4281 2.21562 118.049
2 8.49312 9.87884 490.507
2 25.6312 3.42396 478.937
2 13.1097 19.019 62.4355
2 11.9476 24.7091 444.523
1 10.7778 10.1178 118.813
1 0.0390389 21.9936 69.1882
1 23.2533 6.35561 111.419
1 8.90821 25.5598 78.8842
1 17.8508 6.34848 440.448
1 6.86363 16.8739 415.286
1 7.30572 20.6668 101.664
1 2.90614 -1.54663 133.982
2 15.1034 4.34077 70.7426
2 7.95835 0.0362701 56.4617
2 18.2455 13.9 150.99
2 14.0819 18.579 66.8262
1 19.9643 1.36158 60.4364
1 23.2478 3.60014 68.6575
1 9.25947 15.7207 421.656
1 3.3724 -2.16624 462.677
1 14.2984 17.6707 443.123
1 11.8051 18.2638 77.0353
1 17.2058 19.219 95.2313
1 20.9099 27.157 71.6944
2 9.49054 8.85447 389.176
2 20.4546 8.82123 118.245
2 17.3628 6.16271 490.883
2 25.4225 5.80643 60.3888
1 15.405 1.89634 448.177
1 -2.0916 0.774255 467.821
1 6.67733 7.97771 457.338
1 14.5075 2.48659 375.937
1 17.7566 29.0408 119.984
1 16.469 25.1472 486.46
1 14.0658 29.1898 99.873
1 19.3675 13.2621 130.869
2 22.8222 1.37525 491.355
2 5.45089 25.2592 54.089
2 5.86044 -2.04608 411.868
2 25.5766 12.3697 107.782
1 24.4995 20.2288 492.371
1 7.31292 13.7692 89.9473
1 19.1602 28.396 480.1
1 12.6391 -0.506803 69.2395
1 0.667703 9.66831 120.275
1 8.80091 26.1828 459.009
1 8.68946 3.63749 109.014
1 5.60094 29.5911 74.1071
2 7.54748 11.0627 478.962
2 18.8233 3.47942 60.7415
2 27.7102 22.281 64.2904
2 6.51436 29.2222 67.076
1 5.77072 16.1944 102.909
1 15.8312 27.6055 469.324
1 6.49484 -1.36397 57.7407
1 26.792 27.6309 58.3491
1 23.0617 28.2786 214.194
1 13.4445 17.3483 60.6595
1 29.3535 19.9115 106.585
1 18.2057 -1.40051 386.334
2 9.45994 17.2268 113.132
2 7.428 28.3371 408.983
2 14.4482 0.922924 483.287
2 4.51179 24.3639 78.9426
1 3.80306 10.9677 55.8696
1 0.373266 3.68371 75.6782
1 24.301 -0.840861 66.4718
1 13.2746 10.482 67.5293
1 23.3122 16.0152 169.956
1 26.8836 10.9799 86.2888
1 5.35579 9.38595 475.231
1 2.08968 0.704836 118.35
2 3.1512 22.2915 484.871
2 14.6258 29.2044 60.2541
2 17.1596 28.5854 478.944
2 21.0721 28.1022 79.4319
1 29.0895 3.63868 385.009
1 25.0795 17.2677 488.507
1 2.69915 3.90003 56.8598
1 25.8418 17.0415 159.388
1 24.7333 27.838 75.2749
1 11.5902 26.7067 150.273
1 -1.23225 3.7346 406.83
1 20.959 11.9623 57.8902
2 17.7524 14.8012 60.8453
2 1.64765 18.0637 452.392
2 17.4246 16.2366 144.759
2 13.6069 15.7153 482.583
1 13.0064 1.8271 86.2505
1 16.1206 18.1301 338.604
1 2.16828 -2.28111 96.5148
1 20.1411 0.736743 400.037
1 8.59636 20.9633 56.9403
1 27.9222 -1.89195 96.6701
1 7.68451 25.793 123.822
1 9.73358 24.2685 139.396
2 12.7581 25.8877 62.0671
2 -2.20335 15.2497 101.343
2 6.71031 9.09937 471.875
2 14.0209 22.16 142.13
1 5.63268 12.0117 483.485
1 -1.68717 9.6622 431.68
1 4.94115 13.5877 459.529
1 2.44155 17.5958 488.692
1 14.9818 -0.782371 67.2901
1 2.76626 16.3688 68.0742
1 22.4492 17.1722 486.765
1 16.2027 23.6265 94.3219
2 14.1598 23.525 474.001
2 7.89168 2.55975 96.5633
2 11.3628 17.6414 55.3455
2 7.64426 8.17682 466.447
1 -1.1328 6.70845 138.221
1 27.7264 28.6539 136.704
1 26.0474 29.1947 478.151
1 13.8293 16.8511 63.4458
1 15.2363 3.66194 91.6193
1 1.83422 9.47239 111.367
1 18.9945 26.2741 403.442
1 28.2387 19.3627 446.26
2 10.9892 20.3151 68.4018
2 7.61281 20.011 475.96
2 7.80526 -0.786139 459.06
2 9.75574 27.7844 445.374
1 6.5131 13.1301 446.02
1 8.60066 24.1009 92.2419
1 16.8276 21.7101 100.248
1 13.3438 15.5781 463.363
1 8.159 21.584 493.389
1 5.03534 6.95329 103.146
1 24.6183 9.62048 453.528
1 7.63107 10.8827 154.366
2 -1.22268 9.3007 452.504
2 4.13962 8.64584 71.6092
2 15.3598 7.34674 101.177
2 21.6423 22.4343 80.0717
1 13.8126 -1.25426 63.1839
1 1.38237 7.54387 99.1814
1 -0.779953 10.7913 422.07
1 4.59112 23.3596 95.6555
1 -0.386585 9.70224 115.193
1 5.75327 20.7014 127.63
1 17.4828 23.4217 103.909
1 22.0155 15.6173 464.153
2 3.72641 20.0035 61.9896
2 -0.502681 28.8385 466.395
2 15.2848 10.7683 66.2451
2 16.8737 -1.00159 128.977
1 3.72025 0.517623 471.266
1 8.0058 27.645 86.6148
1 14.1378 29.2574 69.6128
1 13.9184 23.701 66.2376
1 3.14741 15.0964 436.715
1 25.0816 18.6001 120.139
1 0.421227 25.0011 71.0818
1 3.26312 9.06578 466.668
2 10.9388 1.12275 82.017
2 2.52209 11.9896 61.3874
2 2.19618 -0.24071 463.036
2 8.49286 5.42907 65.9623
1 1.38397 -2.28926 162.727
1 19.4388 10.6246 468.248
1 1.93143 15.2626 464.784
1 29.015 9.29461 426.106
1 5.06824 18.7254 139.987
1 0.368878 20.7214 74.219
1 22.7593 25.5646 112.42
1 10.8967 20.0968 104.786
2 7.19282 29.0586 490.231
2 18.9668 24.7442 442.938
2 20.6633 22.7434 459.566
2 25.5308 18.8512 116.205
1 2.1573 6.23888 479.992
1 21.2441 9.8482 88.2704
1 10.1197 -1.55348 53.4662
1 21.0211 24.6228 79.7025
1 28.5982 26.3326 110.427
1 7.15463 11.8384 408.965
1 22.5979 5.8197 83.54
1 28.3014 2.75466 92.2942
2 20.5745 12.3783 111.9
2 4.01386 5.51247 416.418
2 9.71698 26.9566 64.5927
2 5.34448 18.4265 95.3292
1 20.6886 7.93717 431.281
1 1.13803 15.7695 149.556
1 11.1748 7.17414 56.7552
1 -0.0525833 0.338182 454.234
1 11.2938 22.9954 65.3185
1 25.8106 2.66922 58.5188
1 12.9025 27.3581 104.002
1 22.7073 6.76434 116.555
2 1.42722 21.888 481.685
2 0.906054 8.82545 101.23
2 10.306 19.1624 64.9746
2 23.6361 18.6315 59.4551
1 25.5457 17.2285 111.598
1 2.17457 -1.87243 404.534
1 -1.69579 17.8774 487.129
1 11.8672 21.2003 99.7247
1 10.4907 8.98648 81.5292
1 12.1399 22.3616 129.143
1 -1.28283 9.3905 407.368
1 24.3033 10.0357 136.169
2 2.26874 26.6047 62.8566
2 4.92 9.44073 493.201
2 8.53802 5.06426 93.6991
2 14.9024 14.1395 452.398
1 3.31741 26.8233 442.264
1 6.65243 1.53546 174.966
1 20.5602 6.73108 79.5334
1 21.6613 -0.0249742 66.5167
1 12.0424 26.6592 475.132
1 12.8011 1.63867 100.178
1 22.7958 -2.19894 211.302
1 17.7888 1.00099 464.83
2 15.4638 13.4412 484.843
2 25.229 10.7578 66.1916
2 -2.33016 3.84664 96.6274
2 22.7714 -1.55343 68.1219
1 28.0425 22.3347 106.655
1 24.3436 0.870394 91.7484
1 9.12091 21.4033 460.969
1 19.9501 -1.44908 100.79
1 2.57607 12.2526 105.356
1 10.2538 25.1673 431.414
1 -1.44648 8.31761 481.38
1 28.5943 16.9638 112.169
2 11.0786 6.88546 490.87
2 23.0923 13.2139 82.7197
2 6.54869 -0.443187 108.286
2 11.519 4.9633 76.6769
1 19.5242 9.39703 170.913
1 23.1911 13.3655 466.823
1 1.96788 1.87176 456.081
1 19.3846 7.6357 134.195
1 12.6025 -0.188149 484.326
1 22.0595 13.5234 102.525
1 -2.04837 9.2788 74.8533
1 12.0566 4.75758 447.804
2 12.747 10.5289 85.4274
2 16.7787 25.253 69.5439
2 12.536 -1.71454 71.3258
2 19.9233 6.12646 111.266
1 -1.21645 12.6414 142.724
1 9.34925 24.2132 96.8625
1 14.7365 14.2418 387.238
1 27.623 12.3463 70.2036
1 16.4087 28.3612 466.12
1 23.4738 6.86114 59.6335
1 5.83061 18.3377 493.273
1 4.11877 8.21476 112.856
2 11.4083 18.0164 116.328
2 13.7819 -0.297903 100.963
2 24.534 28.3949 491.674
2 16.6979 15.0265 80.1431
1 3.54574 13.5042 136.894
1 7.33935 16.8622 484.699
1 19.6645 7.10976 96.1399
1 17.4443 7.73511 88.7129
1 28.356 22.9217 56.4424
1 21.0407 13.9669 481.57
1 10.0037 19.33 71.7486
1 21.2375 23.9694 58.2201
2 10.7996 7.38917 475.96
2 21.8939 1.8763 67.983
2 20.6885 -1.2434 92.3899
2 5.92642 28.5186 57.0725
1 13.3653 8.52802 378.292
1 4.06938 9.20459 88.6256
1 8.90176 19.0298 477.641
1 0.421839 25.0421 108.808
1 15.3069 25.3008 89.9678
1 25.4255 16.6491 145.644
1 23.2429 19.4619 474.477
1 15.292 8.42257 487.915
2 -0.499401 15.6749 60.3769
2 13.3126 15.1504 61.2091
2 9.57458 21.216 106.387
2 -1.69328 13.7787 75.1606
1 23.7311 18.53 233.535
1 25.9773 27.3055 406.297
1 7.1764 6.04674 101.473
1 6.72684 27.5403 108.138
1 15.8652 28.549 55.8089
1 19.4887 24.6407 111.278
1 7.6312 -0.620576 476.482
1 10.2483 25.9895 443.678
2 16.5772 6.34306 61.342
2 20.8305 21.9051 93.0256
2 13.0767 14.6631 64.5555
2 1.56906 4.73389 491.995
1 2.05274 16.0943 77.2023
1 21.0332 12.2501 127.657
1 13.1336 26.6424 193.971
1 12.6181 29.5894 490.384
1 21.3572 24.1621 452.603
1 1.7725 27.4637 154.278
1 22.0102 3.83865 91.261
1 19.4142 4.81874 493.45
2 -0.620959 6.62212 469.791
2 15.6237 10.3203 98.796
2 28.7331 -0.18092 74.9835
2 -2.27538 2.74248 121.347
1 13.4027 28.4969 422.523
1 12.1992 21.3233 441.012
1 4.65598 -0.926218 438.35
1 25.3574 29.539 418.69
1 24.1385 11.2731 88.2564
1 19.5952 27.6963 122.137
1 22.6926 7.8501 69.7559
1 0.0534534 17.2875 143.943
2 13.7769 3.7201 74.2727
2 7.10641 -1.05294 119.524
2 20.604 -0.640386 77.4724
2 22.6647 28.8166 54.3801
1 25.2634 24.3564 442.197
1 8.44273 10.8456 182.104
1 21.9515 15.7249 438.789
1 24.9741 24.6613 97.7638
1 24.8399 11.1215 427.944
1 14.9469 11.5206 484.011
1 13.801 6.78293 125.942
1 28.6092 17.4916 432.315
2 19.9891 28.3483 85.0602
2 -0.00737966 9.07736 66.6302
2 4.31323 3.48808 91.9376
2 18.5694 6.10769 121.7
1 15.4496 13.5588 463.882
1 26.2296 -0.681211 105.982
1 7.49435 22.3285 465.46
1 2.17135 19.2968 136.19
1 13.7637 8.74866 99.1766
1 26.0568 19.5068 466.426
1 -2.15733 14.234 91.7282
1 10.6583 -0.487337 74.6222
2 -1.00238 25.2392 98.4466
2 15.7949 25.4572 488.884
2 15.4223 12.6622 58.8703
2 -1.27305 25.0026 63.5671
1 14.4217 6.71808 443.718
1 27.7264 20.1702 398.818
1 10.6986 -0.435806 491.34
1 28.6475 22.4584 479.758
1 28.7055 1.72517 135.52
1 19.1241 27.7291 396.605
1 26.4234 2.90701 438.364
1 -0.588893 1.85963 119.88
2 27.3571 15.5757 483.277
2 3.15164 21.4399 80.4681
2 0.991866 1.69609 79.868
2 24.3041 21.6512 475.442
1 10.6055 15.2688 453.895
1 25.4119 16.7034 62.4702
1 23.6582 21.975 454.799
1 27.3874 18.9038 139.123
1 8.33264 -2.01201 464.996
1 9.6053 18.5312 470.854
1 21.6802 14.7747 91.1949
1 20.8999 14.0728 456.309
2 20.5417 22.3904 96.8939
2 0.0355309 13.8358 63.4913
2 19.9872 11.9935 493.248
2 11.188 20.3029 94.754
1 9.33743 0.991987 88.1632
1 18.9915 12.1756 461.483
1 4.82679 0.663515 108.979
1 23.5496 -1.45624 85.3641
1 13.7412 12.3298 65.1165
1 26.7987 14.4241 178.489
1 16.1217 4.47413 62.6314
1 -0.895455 29.3926 91.4046
2 23.4526 18.467 96.6578
2 11.3706 8.57619 487.355
2 28.1239 13.1869 98.5953
2 -0.596867 19.7061 69.6562
1 2.02888 18.6168 476.651
1 16.0742 2.12606 421.852
1 14.9684 -0.949166 130.873
1 3.57402 28.3416 434.893
1 10.0211 29.5694 481.285
1 19.6052 26.7771 438.68
1 19.4994 9.71355 77.1616
1 0.473703 19.5531 412.659
2 11.5812 29.6222 55.1097
2 1.74157 7.06095 106.865
2 9.38634 3.95831 80.9163
2 16.3566 29.4711 70.0184
1 28.1785 0.12724 53.6487
1 3.09852 23.4833 87.4594
1 14.1419 6.95851 85.5422
1 11.1951 23.5266 414.736
1 17.555 25.2456 457.204
1 19.2016 12.0863 83.7007
1 23.7074 -1.55585 70.1662
1 28.394 25.9732 64.078
2 1.00857 12.2774 475.965
2 8.19907 6.18672 473.227
2 -2.32825 26.4662 477.766
2 4.19326 19.8803 90.7509
1 20.6071 5.13469 101.018
1 24.087 6.88561 217.374
1 15.7376 19.9124 448.903
1 16.9044 18.5684 98.3279
1 27.388 11.2922 67.937
1 24.108 23.988 152.645
1 1.74548 28.4924 467.086
1 22.8111 5.6136 454.507
2 17.6428 1.54936 84.0383
2 14.1788 6.34844 83.3688
2 14.8786 29.0716 103.876
2 2.72781 26.5013 73.0937
1 24.872 19.8957 57.6897
1 18.1517 -1.18926 81.549
1 23.5125 16.0644 474.621
1 7.80115 5.02132 127.621
1 14.8874 27.9403 152.516
1 16.7676 29.3392 439.583
1 -1.95104 -2.28838 464.6
1 14.0971 5.97858 181.93
2 27.4927 -2.2623 468.359
2 7.56397 20.8183 93.9903
2 2.9734 1.55242 154.04
2 -1.76171 3.39716 64.0307
1 29.6523 20.4871 98.9227
1 2.38729 24.3637 138.206
1 12.7649 19.7024 55.6551
1 -0.408828 2.15023 59.9936
1 8.46497 13.5607 54.8378
1 23.0469 5.45622 75.2481
1 24.9735 9.41715 216.324
1 5.39512 28.7725 98.2472
2 11.0432 13.2955 83.3255
2 13.4118 8.49563 104.666
2 0.377759 15.6592 81.0489
2 2.64149 16.7866 466.557
1 5.04123 -0.0764786 59.6858
1 12.2548 6.10001 190.977
1 12.7295 13.4856 452.698
1 14.583 29.3131 108.727
1 9.4981 9.81486 126.596
1 15.4467 8.93419 476.171
1 26.2119 13.0873 491.233
1 7.228 25.7691 82.8802
2 9.30697 16.543 100.81
2 1.72835 26.1341 467.288
2 1.63599 11.069 83.6417
2 10.0764 -0.0852869 69.1717
1 15.9388 -1.96107 463.529
1 15.2711 23.3721 489.984
1 6.60575 13.9253 473.161
1 26.1341 15.8933 472.699
1 -0.260328 21.6211 405.957
1 17.0473 21.5741 137.265
1 15.1089 -1.92734 79.2402
1 9.47765 13.92 486.973
2 4.27335 11.1263 473.925
2 25.5918 9.08891 109.772
2 21.9081 25.5568 70.312
2 29.2148 13.7659 485.573
1 5.44262 0.80533 116.553
1 3.79468 17.4932 402.442
1 18.5377 9.46017 144.037
1 25.4156 2.64502 398.606
1 19.5156 10.2704 137.332
1 28.3354 22.6529 439.946
1 4.89348 26.9402 58.5687
1 4.4998 26.356 87.9641
2 22.6237 5.53322 442.16
2 18.6962 23.8593 492.911
2 22.3723 8.31696 158.522
2 27.0092 24.17 440.778
1 23.3902 6.11607 72.7167
1 -0.262289 2.74635 466.761
1 12.857 21.289 478.868
1 12.0015 18.2406 107.657
1 -0.23888 13.4465 89.7742
1 11.1998 16.0736 435.241
1 27.1139 13.3555 142.011
1 18.9613 6.50539 113.156
2 25.7258 28.2009 69.5294
2 27.8162 21.889 447.464
2 13.2779 25.3623 102.677
2 14.0968 17.0113 82.1532
1 29.2831 10.0063 482.966
1 22.0337 -0.293148 123.157
1 -1.92248 7.33349 89.0398
1 17.0055 28.9462 359.433
1 11.4008 15.2289 94.6902
1 13.6244 21.1079 79.9575
1 -0.688411 1.60803 488.374
1 24.4364 15.4145 490.983
2 17.5297 4.97794 92.0694
2 6.47074 7.38104 63.0979
2 -2.2459 0.989689 60.9461
2 25.3451 28.1418 91.148
1 15.9169 24.2594 420.655
1 6.45771 9.01067 141.636
1 -2.04483 22.6914 53.5898
1 8.81172 9.99546 108.253
1 1.34571 19.3758 481.203
1 0.486916 3.52454 115.604
1 15.5519 29.1456 87.485
1 14.2819 11.9219 100.182
2 22.1648 27.0359 57.7798
2 16.3628 25.4953 104.492
2 -1.41383 5.31304 67.4774
2 9.66859 7.8274 75.3953
1 14.939 24.0328 136.902
1 -2.03119 9.00061 136.862
1 1.51888 22.8808 89.875
1 11.9057 14.5102 68.5327
1 20.2891 -1.59372 147.425
1 16.7066 8.97985 110.549
1 7.12525 29.0844 462.409
1 24.7671 8.18178 440.012
2 20.3781 21.7049 125.422
2 7.62163 22.351 103.432
2 0.220079 10.8674 449.5
2 21.3397 21.8848 59.0341
1 24.2986 5.6823 69.6957
1 8.88192 18.9064 106.628
1 3.74665 14.485 482.004
1 19.7731 23.6822 168.754
1 29.0355 -1.34148 69.7447
1 16.0287 4.84043 491.844
1 23.3976 14.1846 124.111
1 29.6016 26.9725 57.8169
2 19.6918 24.7006 67.2641
2 14.212 9.38745 490.091
2 4.13669 1.7753 77.1177
2 6.46223 14.5295 62.2979
1 28.8609 16.695 62.9501
1 22.4086 0.510696 87.5049
1 14.0885 13.4341 70.6202
1 27.6669 19.8708 74.5156
1 5.8686 1.68669 447.576
1 11.4924 9.61715 97.1978
1 18.2033 29.5977 456.291
1 24.8013 23.5493 411.578
2 12.8844 19.6371 105.99
2 1.69721 2.02546 103.84
2 22.3623 11.9666 68.3862
2 14.009 1.11435 443.702
1 10.0391 27.4875 473.432
1 27.1604 26.5115 74.1447
1 -2.36659 -1.95999 119.213
1 20.3772 29.6 75.7158
1 -1.94229 -2.20857 482.504
1 21.707 3.79237 57.4475
1 20.1706 12.406 465.935
1 20.8145 12.0907 165.955
2 18.7048 27.4589 92.3067
2 14.3271 12.4386 492.7
2 14.6327 12.4369 120.334
2 3.25995 6.17478 134.669
1 16.3908 28.5954 129.536
1 23.5707 23.3814 474.046
1 23.5498 28.96 112.663
1 -0.848531 -1.70838 64.2041
1 9.06295 0.565602 64.1011
1 25.3812 16.5082 84.5529
1 -0.486919 11.6182 75.2016
1 19.1948 22.3486 468.159
2 18.7573 11.783 66.235
2 0.653947 27.8335 489.475
2 -0.163672 18.9628 127.979
2 5.36475 21.3559 73.3085
1 -0.727528 13.4983 102.277
1 28.5673 19.7285 479.452
1 21.0444 21.5933 422.09
1 12.2311 1.13477 53.3869
1 9.8457 29.4665 462.274
1 6.85006 15.9122 155.99
1 7.578 1.66826 102.494
1 3.61764 28.5581 62.3735
2 -0.627957 10.3614 73.1785
2 13.873 1.79991 92.1111
2 23.8107 9.44802 94.162
2 15.2147 7.80172 72.3587
1 19.5287 4.77216 463.996
1 14.3418 18.7709 78.0124
1 14.7563 15.9738 117.456
1 6.30771 25.3648 80.2107
1 7.13267 10.174 94.2384
1 17.1486 24.0595 60.7167
1 6.55846 6.70374 434.954
1 21.6092 8.78305 446.765
2 23.1332 10.9494 454.951
2 8.0767 24.1847 84.3822
2 11.6113 3.90797 68.6854
2 12.9237 17.0537 96.0087
1 10.6254 23.4416 450.975
1 28.8585 24.5461 477.167
1 7.01621 17.2979 122.924
1 26.1712 0.753215 115.434
1 25.8425 16.3306 481.764
1 18.7192 2.13169 136.647
1 -0.0904009 -2.00888 487.848
1 6.35523 12.934 71.4352
2 14.9616 21.7649 75.1868
2 27.1259 13.7265 82.2551
2 21.0863 -2.02938 475.105
2 4.69574 14.4593 477.175
1 13.1234 -1.35915 87.5341
1 15.9694 25.7377 171.319
1 8.85355 8.1372 151.233
1 23.1498 16.1458 430.515
1 4.69098 20.2983 148.63
1 9.91354 -1.04537 474.941
1 24.0467 20.3131 109.597
1 24.3333 6.86252 145.226
2 10.9504 25.3649 473.384
2 9.59614 19.5012 61.4454
2 20.2025 11.7559 62.4122
2 28.7758 -1.08436 107.661
1 9.65665 25.3294 152.726
1 14.1632 27.831 96.7897
1 19.7132 5.27133 123.654
1 -1.88161 -0.498124 66.5731
1 23.8079 24.4443 470.667
1 2.48722 27.0167 101.224
1 0.00639284 18.5561 132.261
1 0.477101 28.7625 459.35
2 10.8944 10.7441 477.181
2 1.85056 19.0304 484.391
2 8.51126 3.85427 491.457
2 21.6103 13.2842 55.8906
1 0.807834 18.9536 95.3369
1 -0.00707505 -2.20362 88.3913
1 10.1693 16.143 122.054
1 9.03408 21.3488 124.583
1 19.6704 22.0643 111.789
1 8.96269 20.1839 89.4446
1 8.80926 16.8368 480.146
1 2.44609 -0.345294 103.7
2 29.6412 18.3961 57.9815
2 0.164229 27.3037 95.693
2 12.1962 10.9883 466.853
2 6.36378 2.25654 73.7965
1 28.6385 15.8894 72.0857
1 8.41343 28.9854 459.399
1 5.2047 0.888636 75.1396
1 6.32056 19.5944 74.3644
1 18.5508 17.6193 86.882
1 1.37331 7.10604 133.958
1 -0.185137 26.7255 75.7622
1 8.29053 0.728391 469.79
2 5.1951 24.7546 71.3452
2 8.02769 19.1544 53.2843
2 8.96295 4.68249 73.6808
2 8.80308 2.55877 463.301
1 12.0497 6.28714 482.338
1 13.8495 14.0272 147.184
1 15.4285 6.28213 109.218
1 19.2076 24.4595 74.6143
1 7.99417 9.01781 87.0618
1 3.79805 26.7723 485.587
1 22.1141 5.87078 147.41
1 1.93074 4.32231 438.581
2 29.6748 18.7995 62.7245
2 28.6032 28.8558 58.7867
2 28.9844 7.91777 73.0632
2 26.4552 16.7331 77.8635
1 4.31753 12.6805 79.3428
1 24.5857 13.5879 429.357
1 19.5331 21.8264 486.28
1 13.2488 4.18877 81.9526
1 22.446 23.01 176.305
1 21.0194 17.534 160.691
1 17.9899 22.0324 64.7916
1 15.0338 28.2932 174.196
2 18.6795 28.7749 104.461
2 25.3337 10.5181 73.3646