ITEM: TIMESTEP
100000
ITEM: NUMBER OF ATOMS
18000
ITEM: BOX BOUNDS pp pp pp
-3.5325172205031835e-01 2.7693251722049567e+01
-4.2073164304993078e+00 3.3228731643049139e+02
-3.6211306832962875e-01 2.7702113068329307e+01
ITEM: ATOMS id type q x y z
1 2 2.2208 5.229 1.25131 5.25388
2 2 2.2208 5.39203 6.92433 5.15544
3 1 -1.1104 1.1089 -2.87173 1.07089
5 1 -1.1104 1.00075 2.83908 1.0721
7 1 -1.1104 1.09767 8.27736 0.914888
15 1 -1.1104 0.972935 -2.93447 3.87202
16 1 -1.1104 1.07375 2.6916 3.92516
17 1 -1.1104 1.08147 8.27672 3.68883
21 2 2.2208 5.29852 -1.37764 2.24936
22 2 2.2208 5.2487 3.96141 2.28907
23 1 -1.1104 1.042 0.0323073 1.07726
25 1 -1.1104 1.03687 5.56866 1.02509
31 1 -1.1104 1.0551 0.013655 4.0226
32 1 -1.1104 0.928603 5.53595 3.90071
35 2 2.2208 2.41005 1.28473 2.5309
36 2 2.2208 2.4563 6.7955 2.40866
37 1 -1.1104 3.82551 -2.9054 1.00424
39 1 -1.1104 3.74547 2.7148 1.06835
41 1 -1.1104 3.82275 8.36643 0.960066
43 1 -1.1104 3.77738 -2.83112 3.75855
44 1 -1.1104 3.72496 2.75226 3.77646
45 1 -1.1104 3.82425 8.39475 3.75617
46 2 2.2208 2.38426 -1.52737 5.3462
47 2 2.2208 2.57547 4.17667 5.27582
48 1 -1.1104 3.7829 -0.0105434 0.868426
50 1 -1.1104 3.85574 5.53727 0.89902
52 1 -1.1104 3.8105 -0.107647 3.7235
53 1 -1.1104 3.90601 5.51646 3.81054
65 2 2.2208 5.18341 -4.16178 5.27934
20 1 -1.1104 6.73882 8.37774 3.69569
38 1 -1.1104 3.79303 -2.80488 6.68794
19 1 -1.1104 6.63468 2.8984 3.76272
13 1 -1.1104 6.57029 8.3434 1.04944
27 1 -1.1104 6.5597 -0.144114 0.960891
34 1 -1.1104 6.65379 5.67032 3.7925
12 1 -1.1104 6.63668 2.6926 6.39924
66 2 2.2208 2.43887 -4.34607 2.42535
54 2 2.2208 2.37367 4.19845 -0.35516
57 2 2.2208 5.18848 1.41032 -0.434571
18 1 -1.1104 6.57204 -2.66913 3.91538
10 1 -1.1104 6.66949 -2.79657 6.73143
11 1 -1.1104 6.55449 2.73091 0.81548
42 1 -1.1104 3.98674 8.40169 6.51474
49 1 -1.1104 3.7587 -0.13298 6.62892
14 1 -1.1104 6.74467 8.46844 6.55588
56 2 2.2208 5.19907 6.86564 -0.357715
63 2 2.2208 -0.338345 7.06557 -0.369176
33 1 -1.1104 6.61482 0.0667725 3.75349
9 1 -1.1104 6.62594 -2.98968 0.961181
29 1 -1.1104 6.72732 5.58555 0.983479
69 2 2.2208 10.8523 1.39109 5.22859
70 2 2.2208 10.9428 6.98082 5.16171
71 1 -1.1104 12.2677 -2.94682 1.00256
73 1 -1.1104 12.3439 2.62443 0.983877
75 1 -1.1104 12.1509 8.42594 0.870087
77 1 -1.1104 12.1202 -2.86683 3.88009
78 1 -1.1104 12.3782 2.80742 3.90041
79 1 -1.1104 12.3241 8.31848 3.66135
80 2 2.2208 10.9309 -1.35045 2.42387
81 2 2.2208 10.9246 4.1035 2.42256
82 1 -1.1104 12.2296 -0.151558 1.02039
84 1 -1.1104 12.431 5.55115 1.0142
86 1 -1.1104 12.4067 -0.0143291 3.90119
87 1 -1.1104 12.234 5.54685 3.73844
88 2 2.2208 8.02284 1.395 2.393
89 2 2.2208 8.13691 7.00398 2.42382
90 1 -1.1104 9.46333 -2.77232 1.20266
92 1 -1.1104 9.65436 2.69746 1.07104
94 1 -1.1104 9.35654 8.37607 0.855423
96 1 -1.1104 9.34277 -2.82131 4.04052
97 1 -1.1104 9.53224 2.7109 3.77774
98 1 -1.1104 9.54478 8.41291 3.87642
99 2 2.2208 8.00322 -1.32074 5.12559
100 2 2.2208 8.02597 4.15627 5.26527
101 1 -1.1104 9.1904 -0.0666059 0.86723
103 1 -1.1104 9.51534 5.42403 0.980367
105 1 -1.1104 9.44479 0.0225981 3.65891
106 1 -1.1104 9.51057 5.45261 3.76588
119 2 2.2208 10.9493 -4.21743 5.31392
108 2 2.2208 8.13126 -1.48875 -0.406493
107 2 2.2208 8.00649 4.15734 -0.338091
110 2 2.2208 11.0244 1.36133 -0.496147
85 1 -1.1104 12.1326 5.61771 6.57866
91 1 -1.1104 9.60321 -2.66528 6.65921
102 1 -1.1104 9.52063 0.131657 6.4688
112 2 2.2208 13.7042 6.96376 2.24673
117 2 2.2208 13.6296 -4.30181 2.42343
72 1 -1.1104 12.4284 -2.85125 6.68083
74 1 -1.1104 12.2158 2.71832 6.62005
76 1 -1.1104 12.317 8.32107 6.56868
95 1 -1.1104 9.61559 8.35522 6.64396
169 2 2.2208 5.16303 -4.17146 11.0001
40 1 -1.1104 4.0118 2.63216 6.58299
165 2 2.2208 -0.481775 7.07246 11.0369
28 1 -1.1104 6.73259 -0.0743747 6.64141
30 1 -1.1104 6.58661 5.5542 6.50478
168 2 2.2208 2.50671 -4.23662 8.11861
4 1 -1.1104 1.04699 -2.98643 6.60083
8 1 -1.1104 1.00358 8.41918 6.5739
24 1 -1.1104 0.945155 -0.102781 6.78398
6 1 -1.1104 1.25271 2.85501 6.71983
26 1 -1.1104 1.0103 5.58612 6.72274
51 1 -1.1104 3.84941 5.51819 6.71076
121 1 -1.1104 3.72192 5.73728 9.48727
122 2 2.2208 5.19646 1.50636 10.7148
123 2 2.2208 5.22041 7.02572 10.7663
124 1 -1.1104 1.0194 -2.62813 12.3044
125 1 -1.1104 1.02129 2.97085 12.3285
126 1 -1.1104 0.985019 8.35252 12.2358
130 1 -1.1104 1.04852 -2.94894 9.49108
131 1 -1.1104 1.13851 2.81809 9.47949
132 1 -1.1104 1.04384 8.30412 9.47033
136 2 2.2208 5.28972 -1.45551 7.95713
137 2 2.2208 5.20291 4.22771 8.05315
138 1 -1.1104 1.17071 0.213087 12.2899
139 1 -1.1104 1.14672 5.72275 12.4228
142 1 -1.1104 1.12071 -0.167373 9.44788
143 1 -1.1104 0.891645 5.6626 9.57003
146 2 2.2208 2.46472 1.43074 7.96896
147 2 2.2208 2.50384 7.0348 8.05989
148 1 -1.1104 3.73554 -2.78776 12.2188
149 1 -1.1104 3.88236 2.98734 12.1518
150 1 -1.1104 4.04185 8.44084 12.2642
151 1 -1.1104 3.83309 -2.79211 9.43598
152 1 -1.1104 3.79094 2.88342 9.26436
153 1 -1.1104 3.80045 8.53151 9.53313
154 2 2.2208 2.40808 -1.36059 10.7926
155 2 2.2208 2.40872 4.24269 10.816
156 1 -1.1104 3.78512 0.166116 12.2645
157 1 -1.1104 3.90151 5.55866 12.1407
158 1 -1.1104 3.87417 0.0123508 9.35627
144 1 -1.1104 6.61108 0.150999 9.45365
160 2 2.2208 5.39874 4.3621 13.6081
129 1 -1.1104 6.61367 8.42104 12.3403
140 1 -1.1104 6.60099 0.0617724 12.2354
201 2 2.2208 8.02524 1.40454 13.6757
180 1 -1.1104 12.3544 -2.87697 9.35605
197 1 -1.1104 9.65395 -2.72224 12.2535
190 2 2.2208 10.8618 1.43404 10.9494
83 1 -1.1104 12.3253 -0.0351466 6.73855
93 1 -1.1104 9.48773 2.91425 6.53622
174 1 -1.1104 9.44767 5.77017 12.2008
194 1 -1.1104 9.46692 8.48594 12.2489
176 2 2.2208 8.10378 4.1866 10.8121
196 2 2.2208 10.9177 -1.29865 8.04745
172 1 -1.1104 9.46472 5.5481 9.40009
134 1 -1.1104 6.50343 3.0319 9.4721
187 1 -1.1104 12.2637 5.40912 12.0481
211 2 2.2208 13.7074 -4.29173 8.08182
212 2 2.2208 8.0161 -4.05975 8.21387
184 1 -1.1104 12.2588 0.10084 9.54859
193 1 -1.1104 9.4865 -2.74344 9.50115
198 2 2.2208 8.13308 6.9994 7.99387
191 2 2.2208 10.852 4.17502 7.93691
195 1 -1.1104 9.5446 2.8468 12.22
128 1 -1.1104 6.76378 2.74779 12.207
135 1 -1.1104 6.63608 8.28667 9.46023
177 2 2.2208 8.06234 -1.31171 10.8055
175 1 -1.1104 9.51276 -0.0553482 12.3011
188 1 -1.1104 12.4008 -0.0861009 12.2857
181 1 -1.1104 12.2227 8.30197 12.1451
179 1 -1.1104 12.3528 5.53517 9.42945
192 1 -1.1104 12.1366 2.87947 9.49177
145 1 -1.1104 6.6238 5.79868 9.44327
199 1 -1.1104 12.2467 8.31567 9.36313
178 2 2.2208 8.05339 1.39801 8.02396
189 2 2.2208 10.8762 6.92357 10.862
182 1 -1.1104 9.47867 8.37936 9.48142
183 1 -1.1104 9.29475 2.73483 9.4298
127 1 -1.1104 6.69498 -2.77696 12.3208
133 1 -1.1104 6.57649 -2.612 9.56467
141 1 -1.1104 6.67603 5.67079 12.1625
186 1 -1.1104 12.4964 -2.98433 12.2168
104 1 -1.1104 9.40423 5.66015 6.57713
185 1 -1.1104 12.4093 2.65033 12.1572
173 1 -1.1104 9.5046 0.105027 9.38504
213 2 2.2208 8.04878 -3.98955 13.6409
214 2 2.2208 5.31957 1.41529 16.5009
215 2 2.2208 5.27953 7.04588 16.3964
216 1 -1.1104 1.19672 -2.82259 17.8977
217 1 -1.1104 1.04214 2.79845 17.873
218 1 -1.1104 1.10519 8.39298 17.9134
222 1 -1.1104 1.15097 -2.82901 15.1051
223 1 -1.1104 1.24271 2.95604 15.0976
224 1 -1.1104 1.01268 8.52589 15.0061
228 2 2.2208 5.21061 -1.34558 19.2624
229 2 2.2208 5.22911 4.17095 19.2659
230 1 -1.1104 1.04375 0.0563641 17.7701
231 1 -1.1104 0.952682 5.61741 17.9606
234 1 -1.1104 0.982322 -0.0103478 15.0283
235 1 -1.1104 1.18385 5.79171 15.1018
238 2 2.2208 2.47421 1.40011 19.1839
239 2 2.2208 2.38286 7.03452 19.3037
240 1 -1.1104 3.92345 -2.74855 17.7326
241 1 -1.1104 3.90187 2.78151 17.7477
242 1 -1.1104 3.91433 8.41996 17.8563
243 1 -1.1104 3.95944 -2.76162 14.9682
244 1 -1.1104 4.06178 2.83907 14.9248
245 1 -1.1104 3.90047 8.39916 15.0719
246 2 2.2208 2.37906 -1.30907 16.4106
247 2 2.2208 2.485 4.28716 16.3379
248 1 -1.1104 3.87421 0.0619668 17.8959
249 1 -1.1104 3.92594 5.65057 17.8591
250 1 -1.1104 3.68081 0.125596 14.9856
251 1 -1.1104 3.97209 5.64749 15.0307
253 2 2.2208 -0.321639 4.23188 19.28
220 1 -1.1104 6.68029 2.79222 17.9591
255 2 2.2208 -0.44943 7.0704 16.5218
162 2 2.2208 2.58273 7.17836 13.6381
259 2 2.2208 5.29185 -4.12758 16.4859
227 1 -1.1104 6.63481 8.51167 15.0849
232 1 -1.1104 6.66353 0.0720999 17.7243
305 1 -1.1104 3.91253 2.75169 20.6618
258 2 2.2208 -0.302076 -4.19885 16.4855
159 2 2.2208 5.19645 -1.25294 13.6518
219 1 -1.1104 6.76672 -2.77169 17.9061
225 1 -1.1104 6.67828 -2.75281 15.106
221 1 -1.1104 6.7798 8.37839 17.8634
226 1 -1.1104 6.79684 2.92073 15.0068
302 1 -1.1104 6.50881 0.0994709 20.5807
300 1 -1.1104 1.05486 -0.0412229 20.5467
303 1 -1.1104 6.60692 5.73399 20.6379
297 1 -1.1104 6.69785 -2.74883 20.648
161 2 2.2208 2.41992 1.56397 13.6466
9617 2 2.2208 13.6772 -4.11325 19.345
237 1 -1.1104 6.77955 5.74221 15.0814
236 1 -1.1104 6.54987 0.00879222 15.0955
233 1 -1.1104 6.62661 5.5492 17.8473
260 2 2.2208 10.8468 1.40328 16.3313
261 2 2.2208 10.8442 6.9345 16.4483
262 1 -1.1104 12.3609 -2.68075 17.9906
263 1 -1.1104 12.2835 2.82062 17.7634
264 1 -1.1104 12.3265 8.33106 17.9804
265 1 -1.1104 12.3535 -2.79588 15.192
266 1 -1.1104 12.2603 2.90689 14.9889
267 1 -1.1104 12.3095 8.42099 15.0326
268 2 2.2208 10.8316 -1.42866 19.256
269 2 2.2208 10.8359 4.17722 19.1841
270 1 -1.1104 12.2067 0.132232 17.8822
271 1 -1.1104 12.2299 5.55141 17.797
272 1 -1.1104 12.1537 -0.00260674 15.1992
273 1 -1.1104 12.1518 5.70801 14.9022
274 2 2.2208 8.10898 1.41175 19.1633
275 2 2.2208 8.04328 7.07699 19.2195
276 1 -1.1104 9.53909 -2.80319 17.7444
277 1 -1.1104 9.36884 3.0072 17.662
278 1 -1.1104 9.48732 8.43218 17.7756
279 1 -1.1104 9.58633 -2.83371 14.9675
280 1 -1.1104 9.47191 2.84311 14.9004
281 1 -1.1104 9.48767 8.38455 15.1041
282 2 2.2208 8.06496 -1.35904 16.4062
283 2 2.2208 8.04151 4.23699 16.4984
284 1 -1.1104 9.5836 0.0153386 17.8382
285 1 -1.1104 9.54617 5.72905 17.9033
286 1 -1.1104 9.19979 0.0441848 14.9941
287 1 -1.1104 9.44718 5.55416 14.9392
200 2 2.2208 10.9411 -1.5264 13.6168
9616 2 2.2208 13.6867 7.10339 19.3106
202 2 2.2208 10.8276 4.2792 13.6059
375 1 -1.1104 12.1267 5.5468 20.5722
382 1 -1.1104 9.41911 8.44052 20.6349
374 1 -1.1104 12.1664 0.0305979 20.6096
288 2 2.2208 13.6525 1.55331 19.2709
289 2 2.2208 13.6836 -1.33098 16.5405
370 1 -1.1104 12.0964 2.70564 20.5555
203 2 2.2208 8.09882 7.1507 13.6714
301 1 -1.1104 1.00894 5.51265 20.5758
353 2 2.2208 2.4624 -4.29574 24.9019
295 1 -1.1104 1.16226 2.73413 20.579
294 1 -1.1104 1.01239 -2.89641 20.6166
307 1 -1.1104 3.68694 -0.0734601 20.7048
306 1 -1.1104 3.89973 8.40604 20.6427
296 1 -1.1104 0.993757 8.38224 20.5816
304 1 -1.1104 3.97581 -2.82559 20.5419
308 1 -1.1104 3.75361 5.56684 20.8713
309 2 2.2208 5.04681 1.45477 21.9914
310 2 2.2208 5.23856 7.09869 22.0361
311 1 -1.1104 1.1023 -2.75804 23.4242
312 1 -1.1104 0.987252 2.81069 23.3725
313 1 -1.1104 1.06558 8.52685 23.4188
317 1 -1.1104 1.07831 -2.84943 26.1406
318 1 -1.1104 1.04133 2.70432 26.1835
319 1 -1.1104 1.14459 8.31478 26.254
323 2 2.2208 5.31747 -1.39465 24.9804
324 2 2.2208 5.09405 4.16422 24.8265
325 1 -1.1104 1.19148 0.0402574 23.4389
326 1 -1.1104 1.16868 5.63781 23.3543
329 1 -1.1104 0.927517 -0.11873 26.301
330 1 -1.1104 0.925105 5.578 26.3158
333 2 2.2208 2.47527 1.33061 24.9009
334 2 2.2208 2.49863 7.02217 24.9305
335 1 -1.1104 4.10645 -2.82547 23.5002
336 1 -1.1104 3.77009 2.71548 23.4846
337 1 -1.1104 3.76132 8.49385 23.5376
338 1 -1.1104 3.81261 -2.83401 26.2121
339 1 -1.1104 3.83151 2.74031 26.2005
340 1 -1.1104 3.99245 8.48102 26.3193
341 2 2.2208 2.52184 -1.49716 22.0636
342 2 2.2208 2.34477 4.18029 21.9863
343 1 -1.1104 3.90727 0.0127255 23.4987
344 1 -1.1104 3.83799 5.72206 23.5623
345 1 -1.1104 3.79435 0.0525695 26.2149
346 1 -1.1104 3.77574 5.49658 26.189
316 1 -1.1104 6.55422 8.43372 23.5605
314 1 -1.1104 6.78564 -2.81818 23.5112
327 1 -1.1104 6.58137 -0.0518894 23.4912
64 2 2.2208 -0.36719 1.41984 27.8092
55 2 2.2208 2.37032 -1.44864 27.6491
298 1 -1.1104 6.57065 2.91366 20.6826
315 1 -1.1104 6.51422 2.73534 23.4659
320 1 -1.1104 6.60869 -2.88177 26.1673
67 2 2.2208 5.25477 -4.35447 27.6418
116 2 2.2208 13.7375 4.13686 27.6568
378 1 -1.1104 12.1384 8.21145 23.5293
377 1 -1.1104 12.3279 0.0160707 23.4986
397 2 2.2208 7.97544 -4.35676 24.8652
392 2 2.2208 13.6952 1.47661 24.8404
367 2 2.2208 10.7468 6.98318 22.13
395 2 2.2208 13.6103 4.2412 21.9571
366 1 -1.1104 12.2049 -2.85378 23.3922
322 1 -1.1104 6.67388 8.31575 26.1861
328 1 -1.1104 6.59762 5.56854 23.4194
331 1 -1.1104 6.70074 -0.143892 26.3049
386 1 -1.1104 9.49903 -2.89012 26.3734
396 2 2.2208 10.8978 -4.14957 22.1248
355 1 -1.1104 9.4855 0.0548571 26.2381
359 2 2.2208 7.91931 4.23162 21.9777
9700 2 2.2208 13.6127 -4.21981 24.907
363 1 -1.1104 12.3479 2.82981 23.4343
369 1 -1.1104 12.3146 -2.78103 20.7066
358 1 -1.1104 9.48807 -0.00574737 23.441
371 1 -1.1104 12.2428 8.37015 20.644
354 1 -1.1104 9.38603 5.66085 26.4628
383 1 -1.1104 9.3491 0.0242606 20.6742
299 1 -1.1104 6.59401 8.42931 20.6934
380 1 -1.1104 9.46079 -2.85598 20.7514
321 1 -1.1104 6.53554 2.81679 26.2919
365 1 -1.1104 12.1527 5.52644 26.2495
379 1 -1.1104 12.1479 8.41953 26.2337
391 2 2.2208 10.8677 -1.41282 24.9102
372 1 -1.1104 12.2365 -2.79945 26.2739
385 1 -1.1104 9.43026 3.02165 26.1249
364 2 2.2208 7.95331 1.2525 24.763
388 2 2.2208 10.7445 4.11483 24.7682
357 2 2.2208 7.82959 6.85995 24.8272
387 1 -1.1104 9.40196 8.18272 23.4575
332 1 -1.1104 6.4815 5.5116 26.0836
368 1 -1.1104 12.3523 0.0592943 26.2305
373 2 2.2208 10.8916 1.51431 22.0241
384 1 -1.1104 9.33455 5.71121 20.7364
381 1 -1.1104 9.35939 2.73271 20.5075
356 1 -1.1104 9.32024 5.49457 23.6587
360 2 2.2208 8.07438 -1.45905 22.0766
390 1 -1.1104 9.38742 -2.78091 23.5758
361 1 -1.1104 9.39373 8.36407 26.2077
362 1 -1.1104 12.2964 2.76449 26.2313
376 1 -1.1104 12.1929 5.58231 23.4302
389 1 -1.1104 9.36302 2.82031 23.2703
120 2 2.2208 10.8496 -4.27346 27.6306
109 2 2.2208 10.7487 6.87475 27.6566
398 2 2.2208 5.23635 12.7377 5.28396
399 2 2.2208 5.18875 18.1396 5.12237
400 1 -1.1104 0.931119 13.9825 1.01312
402 1 -1.1104 0.960468 19.6146 1.05798
406 1 -1.1104 1.11319 13.993 3.8976
407 1 -1.1104 1.00471 19.5599 3.80378
410 2 2.2208 5.22029 9.7697 2.35037
411 2 2.2208 5.32373 15.5326 2.29555
412 2 2.2208 5.14343 20.9698 2.31547
413 1 -1.1104 1.1879 11.2 0.96142
415 1 -1.1104 1.06971 16.922 0.8027
421 1 -1.1104 1.11803 11.1533 3.77589
422 1 -1.1104 1.09673 16.7292 3.72908
425 2 2.2208 2.52391 12.6712 2.43889
426 2 2.2208 2.47562 18.2387 2.38302
427 1 -1.1104 3.8589 14.0397 0.959626
429 1 -1.1104 3.80565 19.5617 0.902723
430 1 -1.1104 3.91554 14.0371 3.8861
431 1 -1.1104 3.72965 19.5348 3.80678
432 2 2.2208 2.49051 9.77981 5.10387
433 2 2.2208 2.4164 15.4569 5.24723
434 2 2.2208 2.4239 21.047 5.19211
435 1 -1.1104 3.88053 11.1493 1.1337
437 1 -1.1104 3.78663 16.8442 0.903131
439 1 -1.1104 3.8876 11.3057 4.00954
440 1 -1.1104 3.7628 16.7974 3.65829
443 2 2.2208 2.50405 9.81383 -0.428673
442 2 2.2208 2.45591 15.4807 -0.474553
405 1 -1.1104 6.50176 19.5837 0.886501
408 1 -1.1104 6.60277 14.1119 3.77988
424 1 -1.1104 6.49343 16.7807 3.84552
417 1 -1.1104 6.68273 11.1684 1.03431
451 2 2.2208 -0.415874 12.5959 -0.447706
447 2 2.2208 -0.309244 15.4937 2.36748
452 2 2.2208 -0.423057 12.6563 5.12713
441 2 2.2208 2.36381 21.0125 -0.533188
419 1 -1.1104 6.6212 16.7546 0.920453
423 1 -1.1104 6.62138 11.137 3.9009
446 2 2.2208 -0.35204 20.9224 2.40546
436 1 -1.1104 3.71141 11.1702 6.71875
448 2 2.2208 -0.194615 9.82896 2.31388
444 2 2.2208 5.19606 18.2571 -0.55701
445 2 2.2208 5.22334 12.6361 -0.410732
409 1 -1.1104 6.71751 19.5013 3.63235
403 1 -1.1104 6.63518 13.9276 0.957166
490 2 2.2208 13.6991 12.5623 2.49768
9794 2 2.2208 13.6584 21.0599 -0.413941
453 2 2.2208 10.8025 12.4492 5.09933
454 2 2.2208 10.793 18.0938 5.18817
455 1 -1.1104 12.32 13.8531 0.887236
457 1 -1.1104 12.1919 19.5051 0.920875
458 1 -1.1104 12.2164 13.9439 3.63302
459 1 -1.1104 12.3717 19.5535 3.76319
460 2 2.2208 10.8567 9.80207 2.21399
461 2 2.2208 10.8278 15.3725 2.4096
462 2 2.2208 10.8091 20.8553 2.41616
463 1 -1.1104 12.2944 11.1616 1.12154
465 1 -1.1104 12.1827 16.8273 0.901239
467 1 -1.1104 12.3643 11.1432 3.87185
468 1 -1.1104 12.1389 16.8278 3.80099
469 2 2.2208 8.00649 12.5212 2.50195
470 2 2.2208 8.10159 18.1783 2.33391
471 1 -1.1104 9.39291 14.0373 0.977897
473 1 -1.1104 9.21073 19.7278 1.1392
474 1 -1.1104 9.38525 13.9894 3.82945
475 1 -1.1104 9.53464 19.5241 3.86718
476 2 2.2208 8.05753 9.78498 5.24179
477 2 2.2208 7.93772 15.4239 5.21989
478 2 2.2208 8.01365 20.9291 5.10316
479 1 -1.1104 9.42175 11.1614 0.930043
481 1 -1.1104 9.47094 16.776 1.05876
483 1 -1.1104 9.42907 11.165 3.66315
484 1 -1.1104 9.33622 16.7782 3.75241
491 2 2.2208 13.7802 9.72017 5.18948
464 1 -1.1104 12.2098 11.1503 6.59027
486 2 2.2208 8.07695 15.3746 -0.451043
456 1 -1.1104 12.1435 13.8878 6.21708
472 1 -1.1104 9.38503 13.9076 6.65662
488 2 2.2208 10.8863 18.0894 -0.439367
492 2 2.2208 13.6172 15.3325 5.12058
561 1 -1.1104 9.38885 19.4828 6.64738
9793 2 2.2208 13.6818 18.1955 2.27814
495 2 2.2208 13.6412 21.0939 5.18616
489 2 2.2208 10.842 12.5424 -0.378542
428 1 -1.1104 3.84029 14.1155 6.66333
496 1 -1.1104 1.09693 19.6533 6.65894
537 2 2.2208 -0.502573 20.9656 8.04465
497 1 -1.1104 6.56081 19.6066 6.48341
438 1 -1.1104 3.79774 16.8035 6.59796
416 1 -1.1104 0.902491 16.7519 6.52093
498 1 -1.1104 3.80554 19.5573 6.59404
401 1 -1.1104 0.959226 14.1264 6.68144
414 1 -1.1104 1.00083 11.2137 6.50449
499 2 2.2208 5.24261 12.5895 10.995
500 2 2.2208 5.07163 18.094 10.7988
501 1 -1.1104 0.930861 14.0825 12.1333
502 1 -1.1104 0.928424 19.706 12.2123
505 1 -1.1104 0.931982 14.002 9.37303
506 1 -1.1104 0.989225 19.6627 9.36101
509 2 2.2208 5.18392 9.74063 8.02565
510 2 2.2208 5.16242 15.4032 8.07508
511 2 2.2208 5.20907 21.0107 7.89798
512 1 -1.1104 0.907838 11.2758 12.1134
513 1 -1.1104 0.908737 16.8686 11.9591
516 1 -1.1104 1.01627 11.2292 9.34798
517 1 -1.1104 0.894253 16.8122 9.32237
520 2 2.2208 2.36984 12.6619 7.98106
521 2 2.2208 2.32928 18.1934 7.93252
522 1 -1.1104 3.82995 13.9605 12.4058
523 1 -1.1104 3.74241 19.5045 12.1687
524 1 -1.1104 3.82088 14.0473 9.52269
525 1 -1.1104 3.79761 19.6596 9.4843
526 2 2.2208 2.38318 9.89484 10.6902
527 2 2.2208 2.37189 15.3121 10.6984
528 2 2.2208 2.40127 21.0291 10.6622
529 1 -1.1104 3.73316 11.1633 12.3364
530 1 -1.1104 3.7807 16.8177 12.1382
531 1 -1.1104 3.81556 11.3319 9.49262
532 1 -1.1104 3.70649 16.7594 9.37126
420 1 -1.1104 6.51584 16.9052 6.63928
508 1 -1.1104 6.55924 19.6272 9.47537
518 1 -1.1104 6.63431 11.1836 9.44637
507 1 -1.1104 6.59625 14.0076 9.50384
503 1 -1.1104 6.68655 14.0419 12.3789
582 2 2.2208 13.5378 18.1195 7.96132
480 1 -1.1104 9.39332 11.1406 6.52673
482 1 -1.1104 9.33397 16.8525 6.47821
418 1 -1.1104 6.5868 11.2343 6.5837
404 1 -1.1104 6.6516 14.0928 6.60332
504 1 -1.1104 6.55541 19.7413 12.0575
515 1 -1.1104 6.56094 16.8818 12.0289
519 1 -1.1104 6.53173 16.8186 9.31567
578 2 2.2208 10.921 9.85623 13.5766
566 1 -1.1104 9.3633 13.8512 9.41782
554 2 2.2208 8.11055 9.79206 10.8524
555 1 -1.1104 12.2037 11.4043 9.33482
563 1 -1.1104 12.1066 19.4831 9.27353
574 2 2.2208 13.6557 21.0851 10.8446
548 1 -1.1104 9.4433 16.7512 12.0704
514 1 -1.1104 6.73355 11.2916 12.1831
575 2 2.2208 13.5947 15.2772 10.7894
553 2 2.2208 8.02699 15.3757 10.7601
466 1 -1.1104 12.1606 16.7201 6.6051
560 1 -1.1104 12.161 19.4553 6.47814
549 1 -1.1104 9.45414 11.1851 12.1509
565 1 -1.1104 9.38683 19.4972 9.32715
558 2 2.2208 10.8872 20.9548 7.91315
572 1 -1.1104 12.2674 13.9779 12.2193
571 2 2.2208 10.8472 18.1062 10.7354
556 1 -1.1104 12.3714 16.7642 12.1688
562 2 2.2208 10.8771 9.61385 8.03907
557 1 -1.1104 12.3126 11.1902 12.3089
547 1 -1.1104 9.40637 11.0687 9.35218
551 1 -1.1104 12.1571 16.6535 9.31716
552 2 2.2208 7.8566 21.1238 10.6663
546 1 -1.1104 9.44171 16.7115 9.18272
550 2 2.2208 7.96913 12.6235 8.04776
573 1 -1.1104 12.304 19.6931 12.0493
564 1 -1.1104 12.0438 14.0172 9.24813
559 2 2.2208 10.8109 15.2848 7.86751
569 2 2.2208 7.9779 18.2113 7.99137
570 2 2.2208 10.8382 12.6652 10.642
568 1 -1.1104 9.49233 14.0578 12.1449
567 1 -1.1104 9.47004 19.6553 12.025
586 2 2.2208 5.25722 12.7403 16.4816
587 2 2.2208 5.11222 18.3041 16.3874
588 1 -1.1104 0.987745 14.0481 17.8547
589 1 -1.1104 0.948718 19.7806 17.7377
592 1 -1.1104 1.03913 14.0997 14.8537
593 1 -1.1104 0.964187 19.6874 14.9936
596 2 2.2208 5.29662 9.74149 19.1936
597 2 2.2208 5.24981 15.3997 19.2722
598 2 2.2208 5.1772 20.9855 19.1545
599 1 -1.1104 0.849581 11.1733 17.7356
600 1 -1.1104 1.14928 16.8671 17.6061
603 1 -1.1104 1.15385 11.2627 15.0442
604 1 -1.1104 0.963194 16.8114 14.8597
607 2 2.2208 2.39902 12.456 19.1854
608 2 2.2208 2.51505 18.1971 19.1678
609 1 -1.1104 3.78984 13.8541 17.8523
610 1 -1.1104 3.74655 19.5948 17.7647
611 1 -1.1104 3.77096 13.9123 15.0742
612 1 -1.1104 3.75733 19.6076 14.9538
613 2 2.2208 2.55748 9.73235 16.4403
614 2 2.2208 2.37249 15.3946 16.4032
615 2 2.2208 2.40517 21.1038 16.3732
616 1 -1.1104 3.76176 11.067 18.0555
617 1 -1.1104 3.86729 16.7597 17.6911
618 1 -1.1104 3.84452 11.084 15.1807
619 1 -1.1104 3.64136 16.7499 14.9923
591 1 -1.1104 6.61684 19.539 17.8207
605 1 -1.1104 6.689 11.3884 15.0754
536 2 2.2208 2.36828 12.6087 13.6335
535 2 2.2208 5.28634 9.93108 13.6818
544 2 2.2208 5.14921 21.0544 13.5288
602 1 -1.1104 6.51257 16.8569 17.6839
658 1 -1.1104 1.17002 14 20.5668
594 1 -1.1104 6.63262 14.2174 15.096
539 2 2.2208 -0.305345 9.81915 13.5636
669 1 -1.1104 3.80045 16.9721 20.6668
659 1 -1.1104 0.995804 19.7351 20.5164
668 1 -1.1104 3.84889 11.2269 20.6965
534 2 2.2208 5.28536 15.4703 13.6311
533 2 2.2208 2.35608 18.2203 13.4683
606 1 -1.1104 6.48111 16.9641 14.8291
590 1 -1.1104 6.59746 13.977 18.0837
595 1 -1.1104 6.49122 19.6978 14.919
601 1 -1.1104 6.86836 11.3272 17.8235
625 2 2.2208 10.8374 12.5402 16.3078
626 2 2.2208 10.9537 18.2973 16.4678
627 1 -1.1104 12.1854 14.1228 17.793
628 1 -1.1104 12.3948 19.6309 17.7883
629 1 -1.1104 12.3052 13.9494 14.8775
630 1 -1.1104 12.2602 19.5851 14.8494
632 2 2.2208 10.7544 9.82184 19.2251
633 2 2.2208 10.8403 15.4377 19.0863
634 2 2.2208 10.9729 21.0526 19.2845
635 1 -1.1104 12.2833 11.0698 17.7146
636 1 -1.1104 12.245 16.857 17.7299
637 1 -1.1104 12.4369 11.2363 15.0353
638 1 -1.1104 12.1847 16.7175 14.9945
639 2 2.2208 8.15285 12.5673 19.0943
640 2 2.2208 8.10862 18.2637 19.3121
641 1 -1.1104 9.47667 13.9816 17.7542
642 1 -1.1104 9.46629 19.542 17.8346
643 1 -1.1104 9.41568 14.1432 14.9865
644 1 -1.1104 9.335 19.6349 15.0335
646 2 2.2208 8.16215 9.91628 16.4633
647 2 2.2208 7.99838 15.5704 16.4568
648 2 2.2208 7.84965 21.0572 16.4346
649 1 -1.1104 9.58624 11.1598 17.6899
650 1 -1.1104 9.43744 16.8027 17.8218
651 1 -1.1104 9.46138 11.2188 14.838
652 1 -1.1104 9.36063 16.795 14.9199
577 2 2.2208 10.8725 15.3794 13.5763
579 2 2.2208 8.16293 12.6607 13.6701
576 2 2.2208 7.95362 18.3082 13.3678
657 2 2.2208 13.7099 20.9623 16.3706
655 2 2.2208 13.7313 9.73963 16.3828
660 1 -1.1104 6.73714 13.9921 20.6655
731 1 -1.1104 9.39775 11.1332 20.5461
653 2 2.2208 13.6134 12.4568 19.1658
585 2 2.2208 10.7963 20.9777 13.6393
666 1 -1.1104 3.94603 14.1418 20.6757
667 1 -1.1104 3.84746 19.6853 20.6626
663 1 -1.1104 1.08108 16.9927 20.4605
662 1 -1.1104 1.09324 11.1175 20.5851
670 2 2.2208 5.19304 12.6067 22.1236
671 2 2.2208 5.29141 18.1953 21.9485
672 1 -1.1104 1.13266 14.159 23.4721
673 1 -1.1104 1.08688 19.8029 23.527
676 1 -1.1104 1.03718 14.0315 26.3539
677 1 -1.1104 0.941986 19.5626 26.2441
680 2 2.2208 5.12609 9.80194 24.7803
681 2 2.2208 5.25499 15.3826 24.7848
682 2 2.2208 5.24277 20.9185 24.6532
683 1 -1.1104 1.01242 11.3846 23.5224
684 1 -1.1104 1.09152 16.9531 23.3584
687 1 -1.1104 1.10867 11.1982 26.3309
688 1 -1.1104 0.878154 16.756 26.0729
691 2 2.2208 2.42116 12.6621 24.9909
692 2 2.2208 2.49553 18.261 24.6992
693 1 -1.1104 3.84775 14.1078 23.5692
694 1 -1.1104 3.80606 19.4887 23.3378
695 1 -1.1104 3.86357 14.034 26.283
696 1 -1.1104 3.77713 19.4773 26.1583
697 2 2.2208 2.43516 9.97465 22.083
698 2 2.2208 2.53057 15.4827 22.1224
699 2 2.2208 2.41246 21.0907 22.0064
700 1 -1.1104 3.69236 11.3052 23.5503
701 1 -1.1104 3.87585 16.86 23.4803
702 1 -1.1104 3.73157 11.2471 26.2597
703 1 -1.1104 3.87822 16.7977 26.1226
678 1 -1.1104 6.69549 13.9536 26.2048
705 2 2.2208 -0.34632 15.3509 24.8367
665 1 -1.1104 6.59729 16.8382 20.4785
689 1 -1.1104 6.53535 11.1422 26.3062
690 1 -1.1104 6.68484 16.8156 26.198
487 2 2.2208 7.89672 9.80051 27.5609
716 1 -1.1104 9.33078 19.4506 26.3209
722 1 -1.1104 12.2969 13.9481 20.5987
727 1 -1.1104 12.3449 16.7193 20.5089
664 1 -1.1104 6.57564 11.1533 20.7023
732 1 -1.1104 9.48293 16.8287 20.7093
631 1 -1.1104 12.2663 19.4501 20.7443
645 1 -1.1104 9.5184 19.5474 20.7157
726 1 -1.1104 12.2419 11.0726 20.6169
720 1 -1.1104 12.3221 19.6275 26.2883
729 1 -1.1104 12.1634 11.2001 23.4521
733 1 -1.1104 9.43678 13.9296 26.2373
675 1 -1.1104 6.58474 19.4437 23.4398
685 1 -1.1104 6.55346 11.1405 23.3793
679 1 -1.1104 6.62004 19.7312 26.1601
710 1 -1.1104 9.36687 11.1581 26.1926
711 1 -1.1104 9.49338 16.5869 23.4041
725 1 -1.1104 12.325 16.7674 23.4587
738 2 2.2208 10.8331 12.5644 21.9494
724 2 2.2208 10.8943 15.2443 24.7274
661 1 -1.1104 6.65236 19.6106 20.5493
686 1 -1.1104 6.58381 16.724 23.4482
745 2 2.2208 13.6251 20.9652 22.0143
714 2 2.2208 8.05381 15.4089 22.0275
735 1 -1.1104 9.45012 13.9866 23.343
719 1 -1.1104 12.3171 16.7923 26.1769
723 1 -1.1104 12.2486 14.0282 26.3005
712 1 -1.1104 9.39786 11.2158 23.4894
739 2 2.2208 10.9643 18.1145 22.1527
709 1 -1.1104 9.43973 16.7396 26.4401
730 1 -1.1104 9.54994 14.0798 20.5155
740 1 -1.1104 12.2827 14.0281 23.3129
744 2 2.2208 13.7185 15.3727 21.9701
734 1 -1.1104 9.52971 19.4499 23.4869
737 2 2.2208 8.08951 12.5833 24.8959
721 1 -1.1104 12.198 11.2475 26.3427
674 1 -1.1104 6.70991 13.8768 23.5442
715 2 2.2208 7.95805 9.70997 22.0534
736 2 2.2208 8.01931 18.1445 24.8447
728 1 -1.1104 12.2058 19.5949 23.4063
717 2 2.2208 10.8234 9.70724 24.9685
713 2 2.2208 8.14887 20.9342 22.1647
718 2 2.2208 10.8977 20.9656 24.9367
485 2 2.2208 7.94191 21.0464 27.5652
746 2 2.2208 5.30623 23.8369 5.09882
748 2 2.2208 5.21491 29.4691 5.10359
749 1 -1.1104 1.08267 25.2846 1.00122
750 1 -1.1104 1.05905 30.844 1.02082
753 1 -1.1104 1.16994 25.2755 3.68542
754 1 -1.1104 0.966014 30.7679 3.77396
757 2 2.2208 5.1499 26.5893 2.32415
758 2 2.2208 5.23612 32.1869 2.39165
759 1 -1.1104 0.947786 22.4261 0.860627
760 1 -1.1104 1.12186 28.0876 0.893328
761 1 -1.1104 1.02787 33.5234 0.930318
765 1 -1.1104 1.19989 22.294 3.66544
766 1 -1.1104 1.12038 28.0252 3.65366
767 1 -1.1104 1.06956 33.6626 3.74981
771 2 2.2208 2.36834 23.8161 2.34863
772 2 2.2208 2.451 29.4342 2.46542
773 1 -1.1104 3.75666 25.111 1.04592
774 1 -1.1104 3.73309 30.7319 0.99558
775 1 -1.1104 3.86593 25.1736 3.72976
776 1 -1.1104 3.89592 30.8823 3.81398
778 2 2.2208 2.43833 26.5607 5.16635
779 2 2.2208 2.36005 32.241 5.15063
780 1 -1.1104 3.69177 22.4088 0.862569
781 1 -1.1104 3.84511 27.988 0.857316
782 1 -1.1104 3.86253 33.5833 0.954339
783 1 -1.1104 3.85211 22.3513 3.63724
784 1 -1.1104 3.94403 27.9804 3.83438
785 1 -1.1104 3.89634 33.5881 3.71027
791 2 2.2208 5.2048 23.8568 -0.448494
751 1 -1.1104 6.63449 25.1059 1.02758
762 1 -1.1104 6.48094 22.35 0.940736
755 1 -1.1104 6.659 25.254 3.72274
768 1 -1.1104 6.72179 22.4291 3.71138
1080 2 2.2208 2.49643 32.1036 -0.473863
763 1 -1.1104 6.61669 28.0904 0.945586
829 1 -1.1104 1.14868 30.87 6.4731
752 1 -1.1104 6.53737 30.8527 0.79333
769 1 -1.1104 6.58619 27.99 3.59552
770 1 -1.1104 6.60537 33.562 3.92424
841 1 -1.1104 3.76635 27.9372 6.6028
831 1 -1.1104 6.48464 30.7648 6.63188
747 2 2.2208 5.25044 29.3679 -0.42188
756 1 -1.1104 6.75384 30.788 3.80912
764 1 -1.1104 6.80473 33.482 1.07412
1115 2 2.2208 10.8475 29.3472 -0.517883
793 2 2.2208 10.8043 23.9276 5.08829
794 2 2.2208 10.7023 29.4749 5.06289
795 1 -1.1104 12.2776 25.1345 0.982023
796 1 -1.1104 12.2623 30.8379 0.93856
797 1 -1.1104 12.3025 25.2649 3.84527
798 1 -1.1104 12.1683 30.7718 3.73262
799 2 2.2208 10.8993 26.5854 2.25658
800 2 2.2208 10.7936 32.2329 2.30338
801 1 -1.1104 12.3025 22.2959 0.953356
802 1 -1.1104 12.2043 28.0209 0.872735
803 1 -1.1104 12.1879 33.5661 0.908913
804 1 -1.1104 12.4101 22.4166 3.73501
805 1 -1.1104 12.298 27.9002 3.67044
806 1 -1.1104 12.3189 33.823 3.70007
807 2 2.2208 8.05864 23.7689 2.19697
808 2 2.2208 8.00777 29.3991 2.23896
809 1 -1.1104 9.47546 25.1323 0.924157
810 1 -1.1104 9.43114 30.6518 0.824612
811 1 -1.1104 9.47837 25.0638 3.61351
812 1 -1.1104 9.4121 30.8952 3.81108
814 2 2.2208 8.02109 26.517 5.09561
815 2 2.2208 7.97318 32.1218 5.26709
816 1 -1.1104 9.51122 22.4649 0.948895
817 1 -1.1104 9.46185 27.9082 0.915953
818 1 -1.1104 9.38525 33.6239 1.02139
819 1 -1.1104 9.5704 22.3396 3.67732
820 1 -1.1104 9.43131 27.8703 3.78887
821 1 -1.1104 9.48157 33.6385 3.92885
822 2 2.2208 10.8635 23.7263 -0.499972
827 2 2.2208 13.617 26.5951 5.23166
826 2 2.2208 13.5944 29.436 2.31488
813 2 2.2208 8.03576 26.5627 -0.407807
1114 2 2.2208 13.5149 32.2658 -0.434949
823 2 2.2208 13.6236 26.6077 -0.456813
904 1 -1.1104 9.27369 27.8035 6.75052
900 1 -1.1104 9.34935 25.063 6.38357
899 1 -1.1104 12.2014 33.6986 6.59115
898 1 -1.1104 11.9758 28.0399 6.43573
824 2 2.2208 13.5029 32.2944 5.20641
832 1 -1.1104 0.912618 22.4378 6.51168
839 1 -1.1104 3.77892 30.774 6.61003
834 1 -1.1104 0.935229 33.6652 6.36442
884 2 2.2208 -0.304403 26.5149 7.90296
882 2 2.2208 -0.46369 23.8641 10.8593
833 1 -1.1104 1.05133 28.1711 6.52621
842 1 -1.1104 3.69857 33.6775 6.47782
840 1 -1.1104 3.84929 22.322 6.42821
828 1 -1.1104 1.04845 25.127 6.44926
838 1 -1.1104 4.02938 25.1784 6.54621
835 1 -1.1104 6.59061 22.5543 6.49839
830 1 -1.1104 6.60365 25.2931 6.5695
844 2 2.2208 5.07835 23.7987 10.8399
845 2 2.2208 5.28481 29.3936 10.8505
846 1 -1.1104 0.890775 25.3802 12.1396
847 1 -1.1104 0.884497 30.7668 12.264
850 1 -1.1104 0.893765 25.2247 9.49235
851 1 -1.1104 1.01274 30.9191 9.40287
854 2 2.2208 5.26547 26.6211 8.01441
855 2 2.2208 5.16413 32.2361 8.1042
856 1 -1.1104 0.946379 22.4636 12.0101
857 1 -1.1104 1.1456 28.028 12.2017
858 1 -1.1104 0.813744 33.5083 12.2192