ITEM: TIMESTEP
60000
ITEM: NUMBER OF ATOMS
18000
ITEM: BOX BOUNDS pp pp pp
-3.5230761547363493e-01 2.7692307615473343e+01
-4.2601597768655832e+00 3.3234015977686215e+02
-3.5600854951832889e-01 2.7696008549517998e+01
ITEM: ATOMS id type q x y z
1 2 2.2208 5.24066 1.22518 5.20237
2 2 2.2208 5.42087 6.9378 5.15369
3 1 -1.1104 1.26344 -2.9743 0.991434
5 1 -1.1104 1.082 2.71829 1.12685
7 1 -1.1104 0.97467 8.42195 1.12314
15 1 -1.1104 1.10043 -2.83537 3.77159
16 1 -1.1104 0.983601 2.57391 3.89028
17 1 -1.1104 1.10095 8.3467 3.92083
21 2 2.2208 5.30048 -1.502 2.48809
22 2 2.2208 5.21935 4.04115 2.3818
23 1 -1.1104 1.07742 -0.0774411 1.0478
25 1 -1.1104 1.169 5.59088 1.21657
31 1 -1.1104 1.01865 -0.158286 3.87485
32 1 -1.1104 1.12284 5.44027 3.96135
35 2 2.2208 2.43745 1.22277 2.42336
36 2 2.2208 2.59459 6.78971 2.43873
37 1 -1.1104 4.00271 -3.00004 0.972224
39 1 -1.1104 3.92067 2.65456 0.964999
41 1 -1.1104 3.8292 8.29864 0.829053
43 1 -1.1104 3.98512 -3.04657 3.78106
44 1 -1.1104 3.94925 2.51526 3.8861
45 1 -1.1104 4.01654 8.36221 3.79967
46 2 2.2208 2.36969 -1.47245 5.28635
47 2 2.2208 2.48304 3.90942 5.2493
48 1 -1.1104 3.97984 -0.174819 0.991614
50 1 -1.1104 3.89337 5.33137 0.892681
52 1 -1.1104 3.79674 -0.18767 3.79652
53 1 -1.1104 3.94858 5.44968 3.74612
65 2 2.2208 5.44458 -4.30492 5.24684
20 1 -1.1104 6.74428 8.25692 3.91201
38 1 -1.1104 3.97997 -2.74089 6.484
19 1 -1.1104 6.65423 2.77631 3.8026
13 1 -1.1104 6.6001 8.32382 1.11165
27 1 -1.1104 6.71206 -0.0939473 1.08881
34 1 -1.1104 6.85341 5.55089 3.91845
12 1 -1.1104 6.73068 2.57133 6.51991
66 2 2.2208 2.54423 -4.4113 2.5579
54 2 2.2208 2.65072 3.92239 -0.436519
57 2 2.2208 5.4277 1.2094 -0.414365
18 1 -1.1104 6.72205 -2.93754 3.75837
10 1 -1.1104 6.82866 -2.96042 6.76596
11 1 -1.1104 6.75091 2.72583 0.94858
42 1 -1.1104 4.00666 8.36142 6.68676
49 1 -1.1104 3.73257 -0.163424 6.68245
14 1 -1.1104 6.7856 8.4046 6.60961
56 2 2.2208 5.40549 6.95411 -0.361886
63 2 2.2208 -0.282966 6.84603 -0.359252
33 1 -1.1104 6.66227 -0.0923819 3.85594
9 1 -1.1104 6.78264 -2.93814 0.981144
29 1 -1.1104 6.73021 5.5611 0.920418
69 2 2.2208 10.9145 1.22882 5.10161
70 2 2.2208 10.9622 6.89632 5.22615
71 1 -1.1104 12.2631 -2.92254 1.06965
73 1 -1.1104 12.4416 2.79173 0.961749
75 1 -1.1104 12.3489 8.48557 0.947137
77 1 -1.1104 12.0911 -2.91806 3.91209
78 1 -1.1104 12.2985 2.73171 3.79901
79 1 -1.1104 12.2612 8.27568 3.7335
80 2 2.2208 11.0461 -1.48294 2.40688
81 2 2.2208 10.9441 4.15031 2.45121
82 1 -1.1104 12.3434 -0.00364831 1.10251
84 1 -1.1104 12.4292 5.7144 0.96079
86 1 -1.1104 12.295 -0.103062 3.83822
87 1 -1.1104 12.3222 5.4143 3.81074
88 2 2.2208 8.11501 1.26198 2.40402
89 2 2.2208 8.20946 6.93272 2.44535
90 1 -1.1104 9.53251 -2.9295 1.01911
92 1 -1.1104 9.44778 2.60899 1.206
94 1 -1.1104 9.41268 8.45492 1.06657
96 1 -1.1104 9.53968 -2.98583 3.90162
97 1 -1.1104 9.63033 2.63651 3.89299
98 1 -1.1104 9.48178 8.2797 3.88028
99 2 2.2208 8.08912 -1.55214 5.13723
100 2 2.2208 8.13913 4.00613 5.32107
101 1 -1.1104 9.59165 -0.0569392 1.14953
103 1 -1.1104 9.6049 5.61708 1.08431
105 1 -1.1104 9.50239 -0.0806591 3.79795
106 1 -1.1104 9.62212 5.4873 3.83087
119 2 2.2208 10.8955 -4.29861 5.26844
108 2 2.2208 8.15143 -1.53782 -0.312644
107 2 2.2208 8.05315 4.13008 -0.277473
110 2 2.2208 10.9517 1.34324 -0.190197
85 1 -1.1104 12.4307 5.52869 6.58079
91 1 -1.1104 9.41409 -3.01228 6.6613
102 1 -1.1104 9.52055 -0.262886 6.6162
112 2 2.2208 13.7465 6.89815 2.45504
117 2 2.2208 13.6143 -4.32421 2.37394
72 1 -1.1104 12.2569 -2.80615 6.68354
74 1 -1.1104 12.2432 2.82443 6.56327
76 1 -1.1104 12.2472 8.41579 6.72239
95 1 -1.1104 9.62787 8.35364 6.69022
169 2 2.2208 5.20926 -4.14408 10.7459
40 1 -1.1104 3.84297 2.69577 6.73628
165 2 2.2208 -0.304058 6.87533 10.9154
28 1 -1.1104 6.76592 -0.169853 6.58296
30 1 -1.1104 6.66703 5.38981 6.69907
168 2 2.2208 2.54217 -4.3858 7.92734
4 1 -1.1104 1.14388 -2.85437 6.65406
8 1 -1.1104 1.11144 8.36353 6.69781
24 1 -1.1104 0.951748 0.0737889 6.71073
6 1 -1.1104 1.09768 2.79784 6.77926
26 1 -1.1104 1.15874 5.55485 6.78643
51 1 -1.1104 3.94277 5.59481 6.46504
121 1 -1.1104 3.90167 5.43979 9.35256
122 2 2.2208 5.31195 1.36152 10.8123
123 2 2.2208 5.3715 6.94112 10.9605
124 1 -1.1104 1.11511 -2.85892 12.142
125 1 -1.1104 1.10599 2.81556 12.2107
126 1 -1.1104 1.01293 8.34715 12.2951
130 1 -1.1104 1.01296 -3.07109 9.35197
131 1 -1.1104 1.19202 2.69277 9.51944
132 1 -1.1104 1.04051 8.26265 9.54604
136 2 2.2208 5.37649 -1.43255 8.07299
137 2 2.2208 5.33462 4.11613 7.93681
138 1 -1.1104 1.0556 -0.0776752 12.1225
139 1 -1.1104 1.00293 5.46118 12.1959
142 1 -1.1104 1.13214 -0.140707 9.44621
143 1 -1.1104 1.10135 5.48165 9.51491
146 2 2.2208 2.36965 1.39267 8.14771
147 2 2.2208 2.61692 6.92298 8.06381
148 1 -1.1104 3.81779 -2.79586 12.2354
149 1 -1.1104 3.95587 2.71878 12.4427
150 1 -1.1104 3.91727 8.23659 12.3672
151 1 -1.1104 3.95077 -2.78119 9.29812
152 1 -1.1104 3.99023 2.72537 9.49164
153 1 -1.1104 3.85056 8.37396 9.55221
154 2 2.2208 2.48355 -1.45888 10.8129
155 2 2.2208 2.50286 4.03141 10.8447
156 1 -1.1104 3.81642 -0.0847116 12.2178
157 1 -1.1104 3.78809 5.45018 12.156
158 1 -1.1104 3.82253 -0.0591041 9.46866
144 1 -1.1104 6.5457 0.0200807 9.37976
160 2 2.2208 5.23058 4.13155 13.647
129 1 -1.1104 6.84026 8.20408 12.2784
140 1 -1.1104 6.55165 -0.254468 12.1096
201 2 2.2208 8.20929 1.36916 13.6019
180 1 -1.1104 12.1415 -3.04032 9.40554
197 1 -1.1104 9.5102 -2.88222 12.21
190 2 2.2208 10.8638 1.22444 10.8086
83 1 -1.1104 12.2123 -0.0258779 6.59921
93 1 -1.1104 9.51983 2.61738 6.59136
174 1 -1.1104 9.53751 5.44799 12.1964
194 1 -1.1104 9.52282 8.3259 12.2903
176 2 2.2208 8.17943 4.23837 10.7564
196 2 2.2208 10.8045 -1.50773 7.99294
172 1 -1.1104 9.60939 5.51074 9.29244
134 1 -1.1104 6.67826 2.92462 9.39044
187 1 -1.1104 12.3196 5.59322 12.3459
211 2 2.2208 13.637 -4.30278 8.02269
212 2 2.2208 8.12537 -4.22832 8.08752
184 1 -1.1104 12.1807 -0.139122 9.32569
193 1 -1.1104 9.51044 -2.98747 9.42146
198 2 2.2208 8.27922 7.00698 8.0477
191 2 2.2208 11.0056 4.158 8.08538
195 1 -1.1104 9.59397 2.59122 12.1823
128 1 -1.1104 6.73158 2.65273 12.2898
135 1 -1.1104 6.78448 8.52365 9.61405
177 2 2.2208 8.13262 -1.506 10.8365
175 1 -1.1104 9.39287 -0.115751 12.1952
188 1 -1.1104 12.216 -0.0569702 12.3208
181 1 -1.1104 12.1938 8.36572 12.2992
179 1 -1.1104 12.4491 5.66762 9.58713
192 1 -1.1104 12.3432 2.59522 9.49356
145 1 -1.1104 6.80985 5.72711 9.48073
199 1 -1.1104 12.2889 8.41496 9.42777
178 2 2.2208 8.12765 1.27308 7.97576
189 2 2.2208 10.948 7.06107 10.9182
182 1 -1.1104 9.50306 8.41555 9.6539
183 1 -1.1104 9.55129 2.75893 9.36188
127 1 -1.1104 6.64728 -3.04263 12.1968
133 1 -1.1104 6.68253 -2.77299 9.44402
141 1 -1.1104 6.79483 5.53544 12.3854
186 1 -1.1104 12.1729 -3.00291 12.2779
104 1 -1.1104 9.50507 5.60455 6.62311
185 1 -1.1104 12.2545 2.77907 12.1963
173 1 -1.1104 9.42064 -0.166047 9.4863
213 2 2.2208 8.22464 -4.40336 13.5525
214 2 2.2208 5.32132 1.27835 16.3901
215 2 2.2208 5.3603 6.88709 16.3939
216 1 -1.1104 1.1933 -2.9386 17.6716
217 1 -1.1104 0.982951 2.711 17.7983
218 1 -1.1104 1.0383 8.32018 17.8246
222 1 -1.1104 1.205 -2.92429 14.8404
223 1 -1.1104 1.15019 2.60634 15.0909
224 1 -1.1104 0.995075 8.3543 15.014
228 2 2.2208 5.39231 -1.53704 19.1704
229 2 2.2208 5.18533 4.10006 19.2742
230 1 -1.1104 1.26825 -0.137728 17.7619
231 1 -1.1104 1.03761 5.48135 17.9
234 1 -1.1104 1.07332 -0.13484 14.7897
235 1 -1.1104 0.964143 5.46538 15.1544
238 2 2.2208 2.54887 1.17109 19.2781
239 2 2.2208 2.50227 7.01344 19.3144
240 1 -1.1104 4.00464 -2.97307 17.7137
241 1 -1.1104 3.80857 2.63745 17.978
242 1 -1.1104 3.75798 8.35793 17.7902
243 1 -1.1104 4.04136 -2.94326 15.0019
244 1 -1.1104 4.04611 2.70897 15.1409
245 1 -1.1104 3.86508 8.3911 15.0083
246 2 2.2208 2.55008 -1.58728 16.3559
247 2 2.2208 2.38922 4.10007 16.6092
248 1 -1.1104 3.99217 -0.122957 17.9549
249 1 -1.1104 3.86978 5.48231 17.9402
250 1 -1.1104 3.75786 -0.123654 14.9831
251 1 -1.1104 3.74077 5.47189 15.0538
253 2 2.2208 -0.258478 4.05234 19.2887
220 1 -1.1104 6.69239 2.57049 17.7432
255 2 2.2208 -0.364389 6.99015 16.511
162 2 2.2208 2.33424 6.85905 13.7154
259 2 2.2208 5.3804 -4.40215 16.4066
227 1 -1.1104 6.66533 8.25686 15.1382
232 1 -1.1104 6.87535 -0.117073 17.8281
305 1 -1.1104 3.91611 2.64507 20.8963
258 2 2.2208 -0.211503 -4.34441 16.4478
159 2 2.2208 5.28088 -1.5851 13.5474
219 1 -1.1104 6.795 -2.99556 17.8462
225 1 -1.1104 6.91135 -2.93477 14.8663
221 1 -1.1104 6.61054 8.20281 17.9608
226 1 -1.1104 6.83821 2.7765 14.9942
302 1 -1.1104 6.78236 -0.194826 20.6389
300 1 -1.1104 1.11234 -0.251912 20.5999
303 1 -1.1104 6.68106 5.47685 20.8116
297 1 -1.1104 6.73392 -3.01135 20.5637
161 2 2.2208 2.479 1.28945 13.6279
9617 2 2.2208 13.6904 -4.25169 19.352
237 1 -1.1104 6.72082 5.54096 15.1207
236 1 -1.1104 6.67997 -0.0528063 14.9567
233 1 -1.1104 6.65826 5.32589 17.8693
260 2 2.2208 10.8933 1.2448 16.5823
261 2 2.2208 10.8721 6.84411 16.5306
262 1 -1.1104 12.3331 -2.85025 17.9995
263 1 -1.1104 12.2688 2.89315 17.9928
264 1 -1.1104 12.4229 8.36169 17.9778
265 1 -1.1104 12.3474 -2.90458 14.9972
266 1 -1.1104 12.3399 2.68143 15.1814
267 1 -1.1104 12.0395 8.287 15.1746
268 2 2.2208 10.9752 -1.56607 19.3435
269 2 2.2208 10.8729 4.14741 19.2236
270 1 -1.1104 12.2223 0.0340529 17.9684
271 1 -1.1104 12.2233 5.70125 17.8288
272 1 -1.1104 12.1009 0.0794199 14.9721
273 1 -1.1104 12.3046 5.448 14.9886
274 2 2.2208 8.08514 1.14263 19.2101
275 2 2.2208 8.14356 6.77337 19.2378
276 1 -1.1104 9.65049 -2.8692 17.9143
277 1 -1.1104 9.47842 2.50964 17.8708
278 1 -1.1104 9.554 8.2235 17.7225
279 1 -1.1104 9.69044 -3.01337 14.9534
280 1 -1.1104 9.61012 2.6477 15.0356
281 1 -1.1104 9.34274 8.26763 15.0391
282 2 2.2208 8.18411 -1.57492 16.4409
283 2 2.2208 8.1992 4.02471 16.4799
284 1 -1.1104 9.65487 -0.161628 17.9056
285 1 -1.1104 9.44144 5.40718 17.8241
286 1 -1.1104 9.48186 -0.0615121 15.0183
287 1 -1.1104 9.45274 5.38419 15.0546
200 2 2.2208 10.8878 -1.4938 13.5849
9616 2 2.2208 13.6506 6.85834 19.2187
202 2 2.2208 11.0002 4.04406 13.6365
375 1 -1.1104 12.3188 5.4046 20.6004
382 1 -1.1104 9.39235 8.27199 20.6196
374 1 -1.1104 12.4307 -0.101179 20.8931
288 2 2.2208 13.7103 1.16874 19.4685
289 2 2.2208 13.6531 -1.37095 16.5082
370 1 -1.1104 12.472 2.5401 20.728
203 2 2.2208 8.17622 6.82019 13.6407
301 1 -1.1104 1.15736 5.42187 20.767
353 2 2.2208 2.58226 -4.32935 24.9888
295 1 -1.1104 1.14074 2.65559 20.7034
294 1 -1.1104 1.21428 -2.87401 20.5494
307 1 -1.1104 3.94272 -0.154805 20.6295
306 1 -1.1104 3.85586 8.3075 20.7259
296 1 -1.1104 1.11522 8.21498 20.6417
304 1 -1.1104 3.88604 -2.92777 20.5322
308 1 -1.1104 3.91577 5.46198 20.678
309 2 2.2208 5.39284 1.2483 22.0474
310 2 2.2208 5.20607 6.85361 22.1584
311 1 -1.1104 1.14439 -3.02231 23.3901
312 1 -1.1104 1.18322 2.63447 23.5513
313 1 -1.1104 1.14249 8.25466 23.5214
317 1 -1.1104 1.33016 -3.09354 26.3796
318 1 -1.1104 0.955985 2.51424 26.3068
319 1 -1.1104 1.01321 8.30531 26.4436
323 2 2.2208 5.35282 -1.54097 24.8506
324 2 2.2208 5.24928 3.97149 24.8816
325 1 -1.1104 1.04316 -0.126266 23.4204
326 1 -1.1104 1.14424 5.39963 23.6731
329 1 -1.1104 1.23974 -0.385734 26.3414
330 1 -1.1104 1.12267 5.31805 26.401
333 2 2.2208 2.53324 1.14202 24.8628
334 2 2.2208 2.47039 6.89115 25.0362
335 1 -1.1104 3.9997 -3.00737 23.4372
336 1 -1.1104 3.96992 2.54214 23.4531
337 1 -1.1104 3.83303 8.23291 23.4942
338 1 -1.1104 3.97677 -2.90684 26.2536
339 1 -1.1104 3.90517 2.56927 26.3525
340 1 -1.1104 3.92296 8.37846 26.2023
341 2 2.2208 2.50966 -1.55782 22.0121
342 2 2.2208 2.4686 4.16158 22.1913
343 1 -1.1104 3.96784 -0.218192 23.4587
344 1 -1.1104 3.81772 5.38731 23.6547
345 1 -1.1104 4.0137 -0.106283 26.3288
346 1 -1.1104 3.95368 5.47733 26.2633
316 1 -1.1104 6.70564 8.28367 23.6461
314 1 -1.1104 6.7446 -2.81812 23.4688
327 1 -1.1104 6.7734 -0.127488 23.3829
64 2 2.2208 -0.353464 1.32826 27.7791
55 2 2.2208 2.67245 -1.52878 27.7594
298 1 -1.1104 6.79237 2.62214 20.4275
315 1 -1.1104 6.68899 2.69179 23.3276
320 1 -1.1104 6.81402 -2.83375 26.3236
67 2 2.2208 5.41149 -4.39565 27.7121
116 2 2.2208 13.6484 4.22091 27.729
378 1 -1.1104 12.4055 8.16094 23.5105
377 1 -1.1104 12.3031 -0.109789 23.6589
397 2 2.2208 8.04582 -4.33961 24.7921
392 2 2.2208 13.7853 1.22696 24.9095
367 2 2.2208 10.8662 6.80437 22.0798
395 2 2.2208 13.7855 4.01671 22.0106
366 1 -1.1104 12.2055 -2.95898 23.6821
322 1 -1.1104 6.59565 8.29218 26.3376
328 1 -1.1104 6.5973 5.41979 23.4291
331 1 -1.1104 6.76095 -0.0532891 26.3229
386 1 -1.1104 9.5558 -2.95752 26.2532
396 2 2.2208 10.86 -4.15776 22.0937
355 1 -1.1104 9.66698 -0.101866 26.3698
359 2 2.2208 8.00092 3.91252 21.9617
9700 2 2.2208 13.6497 -4.34389 24.9483
363 1 -1.1104 12.1422 2.57702 23.5828
369 1 -1.1104 12.2836 -2.91557 20.7955
358 1 -1.1104 9.43085 -0.190033 23.5211
371 1 -1.1104 12.0638 8.10826 20.7663
354 1 -1.1104 9.47802 5.38936 26.4192
383 1 -1.1104 9.64658 -0.235256 20.6827
299 1 -1.1104 6.58669 8.15789 20.6176
380 1 -1.1104 9.56932 -2.87002 20.6602
321 1 -1.1104 6.7556 2.71664 26.1081
365 1 -1.1104 12.2296 5.4875 26.3293
379 1 -1.1104 12.2068 8.3631 26.3163
391 2 2.2208 10.8774 -1.56555 25.0332
372 1 -1.1104 12.3661 -2.9443 26.404
385 1 -1.1104 9.45818 2.73539 26.408
364 2 2.2208 8.20061 1.40011 24.8367
388 2 2.2208 10.8106 3.97967 24.9667
357 2 2.2208 8.06854 6.89683 24.8637
387 1 -1.1104 9.51639 8.20622 23.4441
332 1 -1.1104 6.71982 5.47032 26.2429
368 1 -1.1104 12.356 -0.332866 26.283
373 2 2.2208 10.9474 1.14494 22.1763
384 1 -1.1104 9.48674 5.47888 20.5544
381 1 -1.1104 9.47976 2.74948 20.6091
356 1 -1.1104 9.46801 5.35115 23.4217
360 2 2.2208 8.11544 -1.56394 22.0668
390 1 -1.1104 9.45848 -2.95127 23.4575
361 1 -1.1104 9.30332 8.14528 26.3088
362 1 -1.1104 12.1894 2.50185 26.4097
376 1 -1.1104 12.327 5.44712 23.3572
389 1 -1.1104 9.44594 2.60207 23.4507
120 2 2.2208 10.9189 -4.30588 27.7553
109 2 2.2208 11.0128 6.88008 27.7423
398 2 2.2208 5.27252 12.576 5.29891
399 2 2.2208 5.26899 18.3691 5.40257
400 1 -1.1104 1.17118 14.0587 0.954558
402 1 -1.1104 0.988681 19.6805 0.878082
406 1 -1.1104 1.1289 14.0209 3.90848
407 1 -1.1104 1.11163 19.5632 3.82345
410 2 2.2208 5.39977 9.81638 2.53156
411 2 2.2208 5.24437 15.3557 2.38472
412 2 2.2208 5.24587 20.9296 2.50713
413 1 -1.1104 0.988391 11.2305 1.06291
415 1 -1.1104 1.23342 16.9664 1.05372
421 1 -1.1104 1.01743 11.2026 3.91366
422 1 -1.1104 1.06098 16.71 3.93981
425 2 2.2208 2.5236 12.4614 2.49139
426 2 2.2208 2.46711 18.1923 2.53678
427 1 -1.1104 3.78897 14.0801 1.1034
429 1 -1.1104 3.84624 19.5665 1.13787
430 1 -1.1104 3.7465 13.8517 3.97031
431 1 -1.1104 3.90883 19.5362 3.80126
432 2 2.2208 2.4787 9.72084 5.34061
433 2 2.2208 2.40721 15.3626 5.31848
434 2 2.2208 2.34176 21.0095 5.13734
435 1 -1.1104 3.93623 11.0694 0.973237
437 1 -1.1104 3.93689 16.8226 1.00433
439 1 -1.1104 3.97135 11.2118 3.78735
440 1 -1.1104 3.68324 16.6069 3.8133
443 2 2.2208 2.46705 9.67022 -0.275395
442 2 2.2208 2.53655 15.4811 -0.35862
405 1 -1.1104 6.5998 19.4228 1.02804
408 1 -1.1104 6.5625 13.8309 3.74466
424 1 -1.1104 6.61311 16.7579 3.85685
417 1 -1.1104 6.70853 11.0141 0.913085
451 2 2.2208 -0.308404 12.5113 -0.3189
447 2 2.2208 -0.215991 15.3974 2.43034
452 2 2.2208 -0.365594 12.5835 5.32375
441 2 2.2208 2.45521 20.9795 -0.36995
419 1 -1.1104 6.67642 16.7145 1.08843
423 1 -1.1104 6.8356 11.0702 3.91748
446 2 2.2208 -0.322515 20.9466 2.44065
436 1 -1.1104 3.75675 10.9517 6.75346
448 2 2.2208 -0.348354 9.7284 2.50126
444 2 2.2208 5.20466 18.1192 -0.320459
445 2 2.2208 5.18476 12.4952 -0.340619
409 1 -1.1104 6.63986 19.4275 3.93483
403 1 -1.1104 6.65787 13.8981 0.993311
490 2 2.2208 13.6108 12.5406 2.36933
9794 2 2.2208 13.7587 20.9708 -0.474127
453 2 2.2208 10.982 12.6822 5.23256
454 2 2.2208 10.8888 18.1714 5.24299
455 1 -1.1104 12.2772 13.9693 1.0422
457 1 -1.1104 12.3596 19.5467 0.936353
458 1 -1.1104 12.4513 13.8879 3.73652
459 1 -1.1104 12.256 19.3882 3.6688
460 2 2.2208 10.8872 9.76486 2.39262
461 2 2.2208 10.896 15.4105 2.37356
462 2 2.2208 10.8621 20.8938 2.19633
463 1 -1.1104 12.3677 11.2147 1.03363
465 1 -1.1104 12.3128 16.7175 0.955585
467 1 -1.1104 12.257 11.0117 3.8275
468 1 -1.1104 12.3411 16.7499 3.86842
469 2 2.2208 8.04024 12.5666 2.46276
470 2 2.2208 8.02 18.0478 2.42657
471 1 -1.1104 9.53688 13.9641 0.95148
473 1 -1.1104 9.51639 19.5175 0.915111
474 1 -1.1104 9.52874 13.8664 3.80636
475 1 -1.1104 9.47493 19.5163 3.76128
476 2 2.2208 8.18925 9.81384 5.28673
477 2 2.2208 8.07439 15.371 5.29466
478 2 2.2208 8.09937 20.9106 5.27424
479 1 -1.1104 9.57449 11.249 1.12982
481 1 -1.1104 9.50297 16.6371 1.00874
483 1 -1.1104 9.51743 11.1029 3.85778
484 1 -1.1104 9.61279 16.7411 3.84011
491 2 2.2208 13.7138 9.74202 5.17576
464 1 -1.1104 12.4177 11.1564 6.62127
486 2 2.2208 8.06465 15.1701 -0.374484
456 1 -1.1104 12.267 13.9033 6.61195
472 1 -1.1104 9.50616 13.9669 6.56457
488 2 2.2208 10.9421 18.0592 -0.377234
492 2 2.2208 13.8084 15.2785 5.19344
561 1 -1.1104 9.36927 19.5049 6.52059
9793 2 2.2208 13.6805 18.1213 2.36322
495 2 2.2208 13.6395 20.9314 5.06574
489 2 2.2208 10.892 12.6022 -0.420808
428 1 -1.1104 3.8451 13.7411 6.71025
496 1 -1.1104 0.918988 19.5209 6.68258
537 2 2.2208 -0.426701 20.9037 8.12395
497 1 -1.1104 6.63736 19.6066 6.65403
438 1 -1.1104 3.90273 16.7545 6.60463
416 1 -1.1104 1.15246 16.7939 6.85905
498 1 -1.1104 3.80513 19.6418 6.71915
401 1 -1.1104 0.902857 13.9458 6.72872
414 1 -1.1104 0.978245 11.1601 6.73459
499 2 2.2208 5.14075 12.5813 10.7412
500 2 2.2208 5.27135 18.2774 10.9741
501 1 -1.1104 1.06021 14.0326 12.2336
502 1 -1.1104 1.08466 19.5427 12.2283
505 1 -1.1104 0.862208 13.9862 9.58933
506 1 -1.1104 1.0085 19.5423 9.41101
509 2 2.2208 5.31703 9.68418 8.03214
510 2 2.2208 5.24449 15.3361 7.96837
511 2 2.2208 5.23882 20.8857 8.02526
512 1 -1.1104 0.900699 11.1977 12.2774
513 1 -1.1104 0.942843 16.9392 12.3656
516 1 -1.1104 0.947658 11.2791 9.54429
517 1 -1.1104 0.93921 16.7636 9.61116
520 2 2.2208 2.40225 12.423 8.16576
521 2 2.2208 2.3241 18.2127 8.07373
522 1 -1.1104 3.63135 14.1086 12.2021
523 1 -1.1104 3.82635 19.7603 12.2605
524 1 -1.1104 3.71628 13.9582 9.43239
525 1 -1.1104 3.89942 19.4957 9.32023
526 2 2.2208 2.44258 9.63102 10.9698
527 2 2.2208 2.3539 15.4072 10.7921
528 2 2.2208 2.4362 21.0359 10.7909
529 1 -1.1104 4.05759 11.1666 12.2791
530 1 -1.1104 3.82779 17.0124 12.2194
531 1 -1.1104 3.845 11.0878 9.6044
532 1 -1.1104 3.67486 16.6091 9.43316
420 1 -1.1104 6.64913 16.8002 6.65685
508 1 -1.1104 6.75144 19.6873 9.47488
518 1 -1.1104 6.54567 11.3163 9.25439
507 1 -1.1104 6.52625 14.0752 9.43601
503 1 -1.1104 6.59386 13.9687 12.279
582 2 2.2208 13.6268 18.149 7.94024
480 1 -1.1104 9.45802 11.2107 6.69359
482 1 -1.1104 9.30735 16.6617 6.75145
418 1 -1.1104 6.7526 11.313 6.59139
404 1 -1.1104 6.71255 13.9462 6.55579
504 1 -1.1104 6.6665 19.5322 12.2922
515 1 -1.1104 6.67672 16.6988 12.1868
519 1 -1.1104 6.61203 16.8017 9.43887
578 2 2.2208 10.757 9.74085 13.7396
566 1 -1.1104 9.3629 14.0622 9.30593
554 2 2.2208 8.07358 9.84777 11.0261
555 1 -1.1104 12.2401 11.2315 9.51265
563 1 -1.1104 12.0792 19.5498 9.27432
574 2 2.2208 13.6502 20.8436 10.9046
548 1 -1.1104 9.43074 16.7263 12.2387
514 1 -1.1104 6.69511 11.0965 12.2756
575 2 2.2208 13.7326 15.3115 10.9024
553 2 2.2208 8.00124 15.4133 10.835
466 1 -1.1104 12.1806 16.7173 6.64592
560 1 -1.1104 12.2393 19.4125 6.42296
549 1 -1.1104 9.46426 11.1599 12.3927
565 1 -1.1104 9.38029 19.5497 9.41525
558 2 2.2208 10.7684 20.969 8.00113
572 1 -1.1104 12.3905 14.0118 12.3277
571 2 2.2208 10.8925 18.105 10.8031
556 1 -1.1104 12.1683 16.6274 12.2546
562 2 2.2208 10.8255 9.84484 8.06763
557 1 -1.1104 12.3338 11.1937 12.3452
547 1 -1.1104 9.43084 11.2826 9.49288
551 1 -1.1104 12.2407 16.7547 9.45968
552 2 2.2208 8.15434 20.8979 11.0261
546 1 -1.1104 9.38295 16.8103 9.52981
550 2 2.2208 8.06677 12.5477 7.99973
573 1 -1.1104 12.1842 19.4306 12.3516
564 1 -1.1104 12.2576 14.0147 9.48357
559 2 2.2208 10.8525 15.3548 8.08888
569 2 2.2208 7.95596 18.159 8.02061
570 2 2.2208 10.9436 12.6217 10.89
568 1 -1.1104 9.54804 14.0057 12.1076
567 1 -1.1104 9.47552 19.5087 12.3022
586 2 2.2208 5.24328 12.4458 16.493
587 2 2.2208 5.21708 18.0213 16.4925
588 1 -1.1104 1.11498 13.9409 17.9421
589 1 -1.1104 1.11839 19.5298 17.9229
592 1 -1.1104 0.924046 13.8819 15.1657
593 1 -1.1104 1.10789 19.5908 15.0325
596 2 2.2208 5.17527 9.64303 19.2956
597 2 2.2208 5.09974 15.43 19.2774
598 2 2.2208 5.17392 20.9818 19.2665
599 1 -1.1104 1.04347 11.022 17.8544
600 1 -1.1104 1.09283 16.7235 17.8137
603 1 -1.1104 1.12479 11.1486 14.9488
604 1 -1.1104 1.17848 16.6958 15.1517
607 2 2.2208 2.55171 12.5358 19.2933
608 2 2.2208 2.4445 18.1571 19.3575
609 1 -1.1104 3.88441 13.8391 17.811
610 1 -1.1104 3.78889 19.5487 17.917
611 1 -1.1104 3.69865 13.987 15.0596
612 1 -1.1104 3.9157 19.7068 15.0901
613 2 2.2208 2.4585 9.68401 16.5752
614 2 2.2208 2.37651 15.3739 16.4506
615 2 2.2208 2.68345 21.0389 16.4046
616 1 -1.1104 3.85132 10.976 18.0224
617 1 -1.1104 3.72573 16.7462 17.8533
618 1 -1.1104 3.77075 11.2015 15.1218
619 1 -1.1104 3.83106 16.8062 14.8514
591 1 -1.1104 6.53593 19.5028 17.7897
605 1 -1.1104 6.58514 11.1143 15.1632
536 2 2.2208 2.37963 12.5965 13.7318
535 2 2.2208 5.24135 9.69341 13.6991
544 2 2.2208 5.35558 21.0169 13.6444
602 1 -1.1104 6.61496 16.7038 18.0421
658 1 -1.1104 1.01737 13.9858 20.7847
594 1 -1.1104 6.46186 14.0815 15.063
539 2 2.2208 -0.354462 9.77333 13.6312
669 1 -1.1104 3.86866 16.7354 20.6567
659 1 -1.1104 0.98206 19.6482 20.8362
668 1 -1.1104 3.76966 11.1336 20.6597
534 2 2.2208 5.21972 15.4329 13.5644
533 2 2.2208 2.47137 18.1983 13.6014
606 1 -1.1104 6.62047 16.829 15.175
590 1 -1.1104 6.59718 13.9316 17.8073
595 1 -1.1104 6.58423 19.4959 14.9742
601 1 -1.1104 6.67652 11.2007 17.9157
625 2 2.2208 10.8092 12.4651 16.5029
626 2 2.2208 10.8947 18.2836 16.4883
627 1 -1.1104 12.4232 13.9119 17.8765
628 1 -1.1104 12.2135 19.471 18.1106
629 1 -1.1104 12.101 13.9249 15.1199
630 1 -1.1104 12.2678 19.6523 15.1444
632 2 2.2208 10.7384 9.67525 19.3347
633 2 2.2208 10.8016 15.4718 19.2153
634 2 2.2208 10.9185 20.9307 19.2886
635 1 -1.1104 12.0878 10.9957 17.821
636 1 -1.1104 12.2569 16.7623 17.8779
637 1 -1.1104 12.1806 11.0725 14.9749
638 1 -1.1104 12.2252 16.7996 15.0585
639 2 2.2208 8.05019 12.5767 19.2331
640 2 2.2208 8.08945 18.1898 19.2495
641 1 -1.1104 9.48686 13.9841 17.8058
642 1 -1.1104 9.56817 19.5749 17.8569
643 1 -1.1104 9.3783 13.9326 15.0348
644 1 -1.1104 9.38405 19.4985 14.8495
646 2 2.2208 8.03342 9.67482 16.5991
647 2 2.2208 7.9878 15.3495 16.524
648 2 2.2208 8.12637 20.8764 16.5018
649 1 -1.1104 9.46144 11.0707 17.9557
650 1 -1.1104 9.41013 16.876 17.9035
651 1 -1.1104 9.28408 11.1352 15.2922
652 1 -1.1104 9.44527 16.7868 14.961
577 2 2.2208 10.8786 15.319 13.6803
579 2 2.2208 7.93678 12.6255 13.7973
576 2 2.2208 7.99722 18.1267 13.6838
657 2 2.2208 13.7294 20.9904 16.4981
655 2 2.2208 13.6586 9.72122 16.4817
660 1 -1.1104 6.60496 13.957 20.6536
731 1 -1.1104 9.36105 11.2354 20.7388
653 2 2.2208 13.7681 12.6143 19.295
585 2 2.2208 10.9532 20.8609 13.7034
666 1 -1.1104 3.77364 14.0411 20.5805
667 1 -1.1104 3.85184 19.5629 20.7706
663 1 -1.1104 1.12389 16.7054 20.6077
662 1 -1.1104 0.904723 11.1662 20.805
670 2 2.2208 5.32998 12.5017 22.071
671 2 2.2208 5.19516 18.1536 22.1146
672 1 -1.1104 0.833947 13.7894 23.6732
673 1 -1.1104 1.07198 19.6988 23.5132
676 1 -1.1104 1.08883 14.0418 26.3336
677 1 -1.1104 0.912404 19.7179 26.2112
680 2 2.2208 5.37036 9.68498 25.0325
681 2 2.2208 5.30735 15.3512 24.8753
682 2 2.2208 5.18838 21.0487 24.7996
683 1 -1.1104 1.17893 11.0868 23.5793
684 1 -1.1104 1.04116 16.7745 23.3523
687 1 -1.1104 1.03086 11.0813 26.3957
688 1 -1.1104 0.940058 16.9542 26.0962
691 2 2.2208 2.48105 12.4841 24.9831
692 2 2.2208 2.38878 18.2627 24.9334
693 1 -1.1104 3.86444 13.8749 23.3657
694 1 -1.1104 3.94704 19.5484 23.5854
695 1 -1.1104 3.97687 14.0038 26.4063
696 1 -1.1104 3.7188 19.5036 26.4776
697 2 2.2208 2.54073 9.73778 22.1607
698 2 2.2208 2.39288 15.2659 22.0485
699 2 2.2208 2.40708 20.9883 22.099
700 1 -1.1104 3.99966 11.1066 23.5042
701 1 -1.1104 3.83867 16.705 23.4995
702 1 -1.1104 4.03007 11.0611 26.3545
703 1 -1.1104 3.74752 16.7341 26.3275
678 1 -1.1104 6.64501 13.832 26.2065
705 2 2.2208 -0.393644 15.3852 24.7926
665 1 -1.1104 6.62667 16.9295 20.8018
689 1 -1.1104 6.87363 11.1261 26.2358
690 1 -1.1104 6.61179 16.7318 26.4033
487 2 2.2208 8.15425 9.83924 27.7626
716 1 -1.1104 9.40674 19.4794 26.3806
722 1 -1.1104 12.2558 13.8707 20.6437
727 1 -1.1104 12.1991 16.724 20.5505
664 1 -1.1104 6.53508 10.9661 20.6224
732 1 -1.1104 9.37584 16.7047 20.6294
631 1 -1.1104 12.1148 19.52 20.7232
645 1 -1.1104 9.4748 19.3457 20.8506
726 1 -1.1104 12.2452 11.0147 20.7481
720 1 -1.1104 12.3237 19.6196 26.0983
729 1 -1.1104 12.4086 10.9728 23.4546
733 1 -1.1104 9.4691 13.9828 26.1962
675 1 -1.1104 6.72258 19.5521 23.3446
685 1 -1.1104 6.84457 11.2121 23.4229
679 1 -1.1104 6.5387 19.621 26.3259
710 1 -1.1104 9.63231 11.089 26.1886
711 1 -1.1104 9.35153 16.756 23.5158
725 1 -1.1104 12.3075 16.726 23.4073
738 2 2.2208 10.8592 12.551 22.0219
724 2 2.2208 10.8767 15.2618 24.8505
661 1 -1.1104 6.63887 19.5281 20.572
686 1 -1.1104 6.53059 16.7548 23.5272
745 2 2.2208 13.6783 20.8579 22.0811
714 2 2.2208 7.98869 15.4225 22.0069
735 1 -1.1104 9.58053 13.9647 23.2379
719 1 -1.1104 12.3328 16.7456 26.3374
723 1 -1.1104 12.3761 13.9582 26.211
712 1 -1.1104 9.54169 11.0044 23.4904
739 2 2.2208 10.8103 18.0071 22.0589
709 1 -1.1104 9.55036 16.7128 26.3031
730 1 -1.1104 9.37903 14.0629 20.4514
740 1 -1.1104 12.2199 13.8187 23.5218
744 2 2.2208 13.5478 15.2149 22.0479
734 1 -1.1104 9.4327 19.5863 23.6872
737 2 2.2208 8.05304 12.5444 24.8225
721 1 -1.1104 12.3226 11.0584 26.3507
674 1 -1.1104 6.76346 13.9533 23.5019
715 2 2.2208 8.04229 9.67354 22.0555
736 2 2.2208 7.95026 18.0995 24.906
728 1 -1.1104 12.3412 19.5808 23.4546
717 2 2.2208 10.9512 9.6329 24.8156
713 2 2.2208 8.01026 20.9661 22.0618
718 2 2.2208 10.7846 20.9396 24.839
485 2 2.2208 8.01101 20.908 27.6818
746 2 2.2208 5.13974 23.7853 5.24697
748 2 2.2208 5.23197 29.4473 5.24147
749 1 -1.1104 0.951498 25.3287 0.950691
750 1 -1.1104 1.02487 30.6438 0.820033
753 1 -1.1104 0.890988 25.1656 3.75243
754 1 -1.1104 1.09909 30.6569 3.6958
757 2 2.2208 5.27519 26.5733 2.48523
758 2 2.2208 5.0447 32.2419 2.45842
759 1 -1.1104 1.1431 22.4481 1.06727
760 1 -1.1104 0.9886 27.9523 0.988189
761 1 -1.1104 1.04789 33.5669 0.890843
765 1 -1.1104 1.08996 22.3739 3.71218
766 1 -1.1104 1.06205 27.8664 3.92788
767 1 -1.1104 0.741611 33.4798 3.53151
771 2 2.2208 2.46001 23.7982 2.30277
772 2 2.2208 2.47174 29.3958 2.37059
773 1 -1.1104 3.92014 25.1951 0.990422
774 1 -1.1104 3.73926 30.8431 1.00482
775 1 -1.1104 3.8636 25.3141 3.76316
776 1 -1.1104 3.89911 30.8072 3.82593
778 2 2.2208 2.45857 26.6301 5.13683
779 2 2.2208 2.48031 32.1612 5.25909
780 1 -1.1104 3.91569 22.5579 1.05619
781 1 -1.1104 3.75607 28.0381 1.11212
782 1 -1.1104 3.8483 33.6526 1.04905
783 1 -1.1104 3.79581 22.4265 3.8584
784 1 -1.1104 3.72903 28.1713 3.86224
785 1 -1.1104 3.63784 33.6929 3.88682
791 2 2.2208 5.34454 23.708 -0.321148
751 1 -1.1104 6.78326 25.1947 1.21567
762 1 -1.1104 6.69032 22.1653 1.00537
755 1 -1.1104 6.43983 25.1444 3.92286
768 1 -1.1104 6.56133 22.3956 3.84209
1080 2 2.2208 2.37157 32.1199 -0.451597
763 1 -1.1104 6.63573 27.924 1.23198
829 1 -1.1104 1.02299 30.7392 6.47816
752 1 -1.1104 6.58055 30.83 0.896725
769 1 -1.1104 6.67781 28.0084 3.98698
770 1 -1.1104 6.53671 33.6554 3.77834
841 1 -1.1104 3.84207 28.0688 6.50197
831 1 -1.1104 6.56305 30.9885 6.45291
747 2 2.2208 5.20765 29.4511 -0.289705
756 1 -1.1104 6.63462 30.9102 3.62183
764 1 -1.1104 6.5447 33.5896 0.998886
1115 2 2.2208 10.8058 29.4637 -0.415745
793 2 2.2208 10.877 23.6827 5.23177
794 2 2.2208 10.8117 29.3013 5.30657
795 1 -1.1104 12.2699 25.33 1.11507
796 1 -1.1104 12.1603 30.795 1.03092
797 1 -1.1104 12.2893 25.1551 3.87259
798 1 -1.1104 12.047 30.9384 4.07293
799 2 2.2208 10.8803 26.5796 2.45787
800 2 2.2208 10.8143 32.1453 2.45906
801 1 -1.1104 12.281 22.5315 1.04225
802 1 -1.1104 12.2343 28.0382 0.906567
803 1 -1.1104 12.2044 33.6684 0.924214
804 1 -1.1104 12.2013 22.2454 3.65942
805 1 -1.1104 12.1815 28.0513 3.77646
806 1 -1.1104 12.245 33.6269 3.69731
807 2 2.2208 7.97799 23.7029 2.46421
808 2 2.2208 7.96765 29.3798 2.51737
809 1 -1.1104 9.54053 25.0808 0.989377
810 1 -1.1104 9.54917 30.9123 0.969469
811 1 -1.1104 9.38681 25.1698 3.8218
812 1 -1.1104 9.28728 30.7677 3.65586
814 2 2.2208 7.98808 26.5002 5.2129
815 2 2.2208 8.01158 32.2679 5.20946
816 1 -1.1104 9.43064 22.1699 1.02526
817 1 -1.1104 9.46861 28.1482 1.06897
818 1 -1.1104 9.37198 33.7467 0.986146
819 1 -1.1104 9.4025 22.3004 3.93228
820 1 -1.1104 9.37517 27.909 3.92454
821 1 -1.1104 9.35255 33.6124 3.81167
822 2 2.2208 10.9037 23.6915 -0.353061
827 2 2.2208 13.6917 26.5851 5.13583
826 2 2.2208 13.6544 29.3758 2.39449
813 2 2.2208 8.11301 26.5285 -0.380288
1114 2 2.2208 13.5016 32.2355 -0.403275
823 2 2.2208 13.6219 26.5481 -0.30165
904 1 -1.1104 9.38724 27.9869 6.68382
900 1 -1.1104 9.28281 25.1626 6.61842
899 1 -1.1104 12.2102 33.4994 6.5921
898 1 -1.1104 12.2468 27.9121 6.57706
824 2 2.2208 13.5381 32.2008 5.31162
832 1 -1.1104 1.01458 22.3713 6.5031
839 1 -1.1104 3.74746 30.9783 6.80796
834 1 -1.1104 1.04275 33.5894 6.54533
884 2 2.2208 -0.340538 26.4775 8.03234
882 2 2.2208 -0.338349 23.7591 10.8651
833 1 -1.1104 1.02819 27.8319 6.73309
842 1 -1.1104 3.80032 33.7042 6.6531
840 1 -1.1104 3.94628 22.3993 6.54691
828 1 -1.1104 1.04694 25.161 6.61745
838 1 -1.1104 3.77249 25.1613 6.50533
835 1 -1.1104 6.70102 22.2595 6.61461
830 1 -1.1104 6.63765 25.0766 6.74543
844 2 2.2208 5.25435 23.7212 10.8415
845 2 2.2208 5.13191 29.3799 10.7199
846 1 -1.1104 0.959272 25.0675 12.3239
847 1 -1.1104 1.14199 30.8454 12.2026
850 1 -1.1104 1.04502 25.2933 9.50686
851 1 -1.1104 0.944897 30.9215 9.28629
854 2 2.2208 5.1967 26.5033 7.95025
855 2 2.2208 5.26218 32.3726 7.92041
856 1 -1.1104 1.04724 22.3544 12.1903
857 1 -1.1104 0.986747 28.0574 12.1881
858 1 -1.1104 0.961656 33.5857 12.1556
862 1 -1.1104 1.06525 22.5105 9.24749