ITEM: TIMESTEP
90000
ITEM: NUMBER OF ATOMS
18000
ITEM: BOX BOUNDS pp pp pp
-3.5454394872462369e-01 2.7694543948723823e+01
-4.2476650876167810e+00 3.3232766508760989e+02
-3.5621446141064589e-01 2.7696214461410268e+01
ITEM: ATOMS id type q x y z
1 2 2.2208 5.16846 1.31813 4.94946
2 2 2.2208 5.33333 6.91768 5.24771
3 1 -1.1104 0.99404 -2.80124 0.748937
5 1 -1.1104 1.02976 2.66233 0.726098
7 1 -1.1104 1.13282 8.20666 0.848302
15 1 -1.1104 0.910644 -2.82378 3.55343
16 1 -1.1104 1.09043 2.70214 3.53226
17 1 -1.1104 0.990536 8.18515 3.80465
21 2 2.2208 5.26894 -1.55509 2.33516
22 2 2.2208 5.32185 4.21744 2.35552
23 1 -1.1104 1.09931 -0.0389065 0.832393
25 1 -1.1104 1.14713 5.52954 0.816905
31 1 -1.1104 1.10734 -0.113288 3.53167
32 1 -1.1104 1.13343 5.40607 3.76313
35 2 2.2208 2.50578 1.37091 2.24664
36 2 2.2208 2.45894 6.85668 2.3318
37 1 -1.1104 3.86067 -2.79561 0.927463
39 1 -1.1104 3.99832 2.78154 0.876849
41 1 -1.1104 3.91035 8.47195 1.00638
43 1 -1.1104 3.85958 -2.90064 3.63383
44 1 -1.1104 3.98988 2.67269 3.62499
45 1 -1.1104 3.76842 8.22373 3.74779
46 2 2.2208 2.36964 -1.62514 5.07388
47 2 2.2208 2.47206 4.03205 5.1064
48 1 -1.1104 4.01209 -0.0912814 0.926699
50 1 -1.1104 3.89975 5.60413 1.1411
52 1 -1.1104 3.84781 -0.146272 3.7112
53 1 -1.1104 3.89083 5.52127 3.79413
65 2 2.2208 5.33173 -4.34386 5.2583
20 1 -1.1104 6.5934 8.37142 3.76685
38 1 -1.1104 3.70649 -2.94436 6.52596
19 1 -1.1104 6.75352 2.76135 3.6242
13 1 -1.1104 6.66398 8.21379 1.09838
27 1 -1.1104 6.74679 -0.160666 0.988065
34 1 -1.1104 6.7013 5.46585 3.82584
12 1 -1.1104 6.73886 2.77286 6.41416
66 2 2.2208 2.39516 -4.20672 2.25722
54 2 2.2208 2.50804 4.10076 -0.57219
57 2 2.2208 5.35241 1.32171 -0.524696
18 1 -1.1104 6.64297 -2.89994 3.85551
10 1 -1.1104 6.54671 -2.95273 6.61965
11 1 -1.1104 6.65847 2.62523 0.879064
42 1 -1.1104 3.81392 8.45812 6.56688
49 1 -1.1104 3.84709 -0.158084 6.52547
14 1 -1.1104 6.77304 8.18798 6.59195
56 2 2.2208 5.28058 6.92696 -0.392741
63 2 2.2208 -0.375352 7.03073 -0.48455
33 1 -1.1104 6.63292 -0.207418 3.66957
9 1 -1.1104 6.67509 -2.89259 1.06811
29 1 -1.1104 6.6641 5.437 0.97572
69 2 2.2208 10.9764 1.31756 5.19497
70 2 2.2208 10.9245 6.93031 5.11617
71 1 -1.1104 12.145 -2.9242 0.924845
73 1 -1.1104 12.4405 2.79639 0.875765
75 1 -1.1104 12.3692 8.38751 0.875791
77 1 -1.1104 12.3143 -2.99102 3.72708
78 1 -1.1104 12.2982 2.60428 3.6652
79 1 -1.1104 12.2685 8.36008 3.73237
80 2 2.2208 10.8613 -1.54193 2.36849
81 2 2.2208 10.9204 4.11872 2.37983
82 1 -1.1104 12.2788 -0.0206637 0.929875
84 1 -1.1104 12.3688 5.58081 1.06006
86 1 -1.1104 12.41 -0.135 3.72905
87 1 -1.1104 12.4879 5.60039 3.82335
88 2 2.2208 8.07732 1.2766 2.39175
89 2 2.2208 8.01823 6.83468 2.44069
90 1 -1.1104 9.42804 -2.77793 1.00722
92 1 -1.1104 9.5185 2.90051 0.90784
94 1 -1.1104 9.50869 8.49302 0.8947
96 1 -1.1104 9.49853 -2.9391 3.76495
97 1 -1.1104 9.58007 2.7092 3.75074
98 1 -1.1104 9.46362 8.22484 3.84764
99 2 2.2208 8.17442 -1.46303 5.10925
100 2 2.2208 8.08615 4.11205 5.2237
101 1 -1.1104 9.4089 0.0712581 0.870352
103 1 -1.1104 9.53017 5.71761 0.992977
105 1 -1.1104 9.64686 -0.0772693 3.86606
106 1 -1.1104 9.48481 5.57373 3.85692
119 2 2.2208 10.7716 -4.33227 5.0839
108 2 2.2208 8.17673 -1.4373 -0.463058
107 2 2.2208 8.06111 4.10944 -0.445379
110 2 2.2208 10.9876 1.39716 -0.510361
85 1 -1.1104 12.3149 5.48562 6.69542
91 1 -1.1104 9.49687 -2.77164 6.60316
102 1 -1.1104 9.42338 -0.0474988 6.54115
112 2 2.2208 13.8096 6.99736 2.42076
117 2 2.2208 13.6797 -4.29994 2.32954
72 1 -1.1104 12.2199 -2.79004 6.54714
74 1 -1.1104 12.4567 2.68461 6.54908
76 1 -1.1104 12.2889 8.35792 6.53205
95 1 -1.1104 9.62468 8.45965 6.57875
169 2 2.2208 5.22957 -4.42274 10.7393
40 1 -1.1104 3.91564 2.49976 6.38611
165 2 2.2208 -0.262438 6.9014 10.8535
28 1 -1.1104 6.62279 -0.0312826 6.63375
30 1 -1.1104 6.80073 5.56938 6.68237
168 2 2.2208 2.41955 -4.33665 7.93019
4 1 -1.1104 0.964804 -2.99415 6.4458
8 1 -1.1104 1.06442 8.21703 6.74534
24 1 -1.1104 1.02632 -0.130861 6.33835
6 1 -1.1104 1.11631 2.73063 6.46153
26 1 -1.1104 0.892349 5.4309 6.57033
51 1 -1.1104 3.8437 5.48549 6.48791
121 1 -1.1104 3.91783 5.59184 9.33108
122 2 2.2208 5.22945 1.31725 10.71
123 2 2.2208 5.20333 6.84843 10.6461
124 1 -1.1104 1.10756 -2.94422 12.1603
125 1 -1.1104 1.05132 2.71167 12.1101
126 1 -1.1104 1.1848 8.27698 12.3558
130 1 -1.1104 1.08655 -2.94039 9.30764
131 1 -1.1104 0.98964 2.51229 9.30595
132 1 -1.1104 1.06235 8.18551 9.51466
136 2 2.2208 5.26188 -1.4578 8.05498
137 2 2.2208 5.29256 4.09332 7.90414
138 1 -1.1104 1.16739 -0.0770561 11.9998
139 1 -1.1104 1.13611 5.40963 12.2154
142 1 -1.1104 0.900052 -0.10744 9.16198
143 1 -1.1104 1.11825 5.40925 9.33341
146 2 2.2208 2.44889 1.28239 7.80686
147 2 2.2208 2.4212 6.84419 7.98094
148 1 -1.1104 3.96326 -2.78282 12.056
149 1 -1.1104 3.94726 2.64826 12.1351
150 1 -1.1104 4.05583 8.23611 12.0704
151 1 -1.1104 3.87576 -2.99965 9.26929
152 1 -1.1104 3.82167 2.72173 9.22014
153 1 -1.1104 3.77714 8.26773 9.424
154 2 2.2208 2.50268 -1.59366 10.7672
155 2 2.2208 2.48061 4.08172 10.7366
156 1 -1.1104 3.8631 -0.10666 12.1466
157 1 -1.1104 3.86192 5.47916 12.2662
158 1 -1.1104 3.94989 -0.16813 9.41428
144 1 -1.1104 6.73149 -0.0425998 9.35685
160 2 2.2208 5.30444 4.08741 13.4787
129 1 -1.1104 6.80871 8.37092 12.2971
140 1 -1.1104 6.6371 -0.0759678 12.0704
201 2 2.2208 8.06098 1.28791 13.6391
180 1 -1.1104 12.1633 -2.97871 9.44052
197 1 -1.1104 9.33481 -2.92961 12.1329
190 2 2.2208 10.6313 1.25602 10.9563
83 1 -1.1104 12.2408 0.0573731 6.66773
93 1 -1.1104 9.39267 2.74821 6.61203
174 1 -1.1104 9.39196 5.43489 12.2532
194 1 -1.1104 9.46905 8.34471 12.0032
176 2 2.2208 8.02574 4.10506 10.7547
196 2 2.2208 10.8917 -1.42957 7.94789
172 1 -1.1104 9.50255 5.45258 9.47199
134 1 -1.1104 6.62696 2.66645 9.22743
187 1 -1.1104 12.2655 5.64476 12.233
211 2 2.2208 13.7616 -4.34237 7.84507
212 2 2.2208 8.25233 -4.15866 8.08205
184 1 -1.1104 12.2379 -0.064861 9.35526
193 1 -1.1104 9.36792 -2.69413 9.44902
198 2 2.2208 8.11832 6.84148 8.04506
191 2 2.2208 10.8226 4.05964 7.94614
195 1 -1.1104 9.39325 2.68074 12.3376
128 1 -1.1104 6.68654 2.60603 12.0508
135 1 -1.1104 6.49947 8.24766 9.46185
177 2 2.2208 8.04756 -1.4185 10.8072
175 1 -1.1104 9.3438 -0.0913468 12.3992
188 1 -1.1104 12.0717 -0.079445 12.1874
181 1 -1.1104 12.253 8.26674 12.2804
179 1 -1.1104 12.2204 5.51189 9.45448
192 1 -1.1104 12.1293 2.76133 9.27343
145 1 -1.1104 6.63019 5.50903 9.36144
199 1 -1.1104 12.1944 8.39121 9.34955
178 2 2.2208 8.00883 1.39971 7.89375
189 2 2.2208 10.7574 6.88839 10.9305
182 1 -1.1104 9.40301 8.34488 9.37909
183 1 -1.1104 9.33984 2.73363 9.41974
127 1 -1.1104 6.60639 -2.86392 12.0918
133 1 -1.1104 6.51743 -2.88476 9.39569
141 1 -1.1104 6.6717 5.44381 12.1438
186 1 -1.1104 12.1704 -2.74848 12.2699
104 1 -1.1104 9.49972 5.56577 6.59122
185 1 -1.1104 12.3111 2.81451 12.0574
173 1 -1.1104 9.43877 -0.0434032 9.40067
213 2 2.2208 7.901 -4.33223 13.6356
214 2 2.2208 5.22481 1.34063 16.3462
215 2 2.2208 5.25789 6.90145 16.441
216 1 -1.1104 0.969224 -2.72995 17.7689
217 1 -1.1104 0.790479 2.73538 17.8481
218 1 -1.1104 1.09292 8.11196 17.813
222 1 -1.1104 1.06882 -2.97792 14.932
223 1 -1.1104 1.1109 2.59385 14.8151
224 1 -1.1104 0.94991 8.26931 15.0608
228 2 2.2208 5.21738 -1.52172 19.1268
229 2 2.2208 5.10253 4.0867 19.2455
230 1 -1.1104 0.953602 -0.068665 17.6283
231 1 -1.1104 1.0876 5.49057 17.7799
234 1 -1.1104 0.954029 -0.119458 14.8482
235 1 -1.1104 1.08773 5.42965 14.901
238 2 2.2208 2.43237 1.28516 19.0854
239 2 2.2208 2.57155 6.97778 19.2348
240 1 -1.1104 3.68661 -2.90837 17.6849
241 1 -1.1104 3.82368 2.76956 17.785
242 1 -1.1104 3.91291 8.37553 17.8137
243 1 -1.1104 3.87137 -2.96654 14.8087
244 1 -1.1104 3.92481 2.63492 14.8538
245 1 -1.1104 3.86233 8.34409 15.0782
246 2 2.2208 2.39505 -1.66847 16.2404
247 2 2.2208 2.42436 3.97737 16.4001
248 1 -1.1104 3.76438 -0.0250646 17.7421
249 1 -1.1104 3.85199 5.59115 17.8351
250 1 -1.1104 3.74342 -0.33379 14.9196
251 1 -1.1104 3.88616 5.58551 14.9885
253 2 2.2208 -0.460447 4.1532 19.1907
220 1 -1.1104 6.56246 2.54969 17.7017
255 2 2.2208 -0.37329 6.79799 16.4088
162 2 2.2208 2.52393 6.86013 13.6618
259 2 2.2208 5.12154 -4.2772 16.401
227 1 -1.1104 6.72658 8.30115 15.1236
232 1 -1.1104 6.66137 -0.0692263 17.7585
305 1 -1.1104 3.68394 2.60345 20.5144
258 2 2.2208 -0.445144 -4.3536 16.3523
159 2 2.2208 5.27018 -1.50669 13.5715
219 1 -1.1104 6.50902 -2.81757 17.7314
225 1 -1.1104 6.65352 -2.93863 15.1535
221 1 -1.1104 6.60742 8.3621 17.7542
226 1 -1.1104 6.63768 2.69523 14.9451
302 1 -1.1104 6.61683 -0.057723 20.4885
300 1 -1.1104 0.992134 -0.205066 20.5492
303 1 -1.1104 6.55511 5.70296 20.7045
297 1 -1.1104 6.62532 -2.86383 20.5851
161 2 2.2208 2.53428 1.19704 13.4711
9617 2 2.2208 13.6164 -4.34823 19.09
237 1 -1.1104 6.59911 5.57624 15.0736
236 1 -1.1104 6.52576 -0.182124 14.9523
233 1 -1.1104 6.63408 5.45215 18.0115
260 2 2.2208 10.8836 1.3148 16.5266
261 2 2.2208 10.8332 6.89321 16.3995
262 1 -1.1104 12.2513 -2.87335 17.8128
263 1 -1.1104 12.1778 2.87874 17.815
264 1 -1.1104 12.2237 8.33677 17.8376
265 1 -1.1104 12.2468 -2.88633 15.0687
266 1 -1.1104 12.1548 2.7511 14.9678
267 1 -1.1104 12.2836 8.31632 15.0445
268 2 2.2208 10.7761 -1.41396 19.1529
269 2 2.2208 10.8261 4.19251 19.1757
270 1 -1.1104 12.2296 0.0531502 17.9268
271 1 -1.1104 12.1365 5.68605 17.8314
272 1 -1.1104 12.2665 -0.00103348 15.0832
273 1 -1.1104 12.4256 5.4789 15.0169
274 2 2.2208 7.89066 1.39632 19.2973
275 2 2.2208 8.03432 6.89709 19.3892
276 1 -1.1104 9.41162 -2.86833 17.7744
277 1 -1.1104 9.3086 2.85626 17.8222
278 1 -1.1104 9.49684 8.30931 17.5889
279 1 -1.1104 9.42798 -3.05832 14.8857
280 1 -1.1104 9.49914 2.58688 14.9199
281 1 -1.1104 9.62608 8.29209 14.7965
282 2 2.2208 7.9485 -1.38276 16.3984
283 2 2.2208 8.0184 4.10051 16.4333
284 1 -1.1104 9.44382 -0.035352 17.9479
285 1 -1.1104 9.29545 5.5609 17.7298
286 1 -1.1104 9.44871 -0.243384 15.2587
287 1 -1.1104 9.37677 5.51231 14.9434
200 2 2.2208 10.8383 -1.56417 13.6722
9616 2 2.2208 13.7048 6.91135 19.2411
202 2 2.2208 10.9401 4.22752 13.5627
375 1 -1.1104 12.1692 5.56206 20.702
382 1 -1.1104 9.52308 8.3659 20.5863
374 1 -1.1104 12.1363 0.122115 20.6184
288 2 2.2208 13.6772 1.43186 19.2704
289 2 2.2208 13.7229 -1.45413 16.3449
370 1 -1.1104 12.219 2.85837 20.5271
203 2 2.2208 8.02861 6.86632 13.6824
301 1 -1.1104 0.993297 5.53812 20.5707
353 2 2.2208 2.58545 -4.24937 24.7865
295 1 -1.1104 1.04734 2.64588 20.5942
294 1 -1.1104 0.934697 -2.93707 20.6635
307 1 -1.1104 3.7369 -0.139136 20.6192
306 1 -1.1104 3.90957 8.31914 20.7105
296 1 -1.1104 1.05027 8.30242 20.4125
304 1 -1.1104 3.92546 -2.99841 20.544
308 1 -1.1104 3.82683 5.58293 20.7207
309 2 2.2208 5.14328 1.26333 21.9479
310 2 2.2208 5.20734 6.94538 22.1181
311 1 -1.1104 1.05085 -2.85481 23.3217
312 1 -1.1104 1.13496 2.64584 23.2973
313 1 -1.1104 0.988596 8.42557 23.204
317 1 -1.1104 0.974064 -2.98802 26.104
318 1 -1.1104 1.25665 2.6667 26.0396
319 1 -1.1104 0.979896 8.27164 25.9518
323 2 2.2208 5.29644 -1.5415 24.7448
324 2 2.2208 5.35207 4.08 24.7109
325 1 -1.1104 1.05434 0.0186667 23.4524
326 1 -1.1104 1.01377 5.40631 23.3351
329 1 -1.1104 1.26542 -0.0934623 26.2043
330 1 -1.1104 1.07166 5.47551 26.1363
333 2 2.2208 2.61263 1.19864 24.8618
334 2 2.2208 2.42711 6.94361 24.7851
335 1 -1.1104 3.90942 -2.7605 23.4518
336 1 -1.1104 3.99168 2.60482 23.3538
337 1 -1.1104 3.96279 8.30571 23.4296
338 1 -1.1104 3.91186 -2.85075 26.1431
339 1 -1.1104 4.03067 2.70159 26.1506
340 1 -1.1104 3.72196 8.26953 26.1714
341 2 2.2208 2.37987 -1.52335 21.9858
342 2 2.2208 2.43579 4.10627 21.895
343 1 -1.1104 3.76524 -0.222566 23.4002
344 1 -1.1104 3.8476 5.52353 23.4676
345 1 -1.1104 4.04624 -0.110319 26.116
346 1 -1.1104 4.1055 5.53049 26.1852
316 1 -1.1104 6.80408 8.36576 23.6197
314 1 -1.1104 6.69674 -3.01426 23.4799
327 1 -1.1104 6.56108 -0.077761 23.2729
64 2 2.2208 -0.373969 1.29284 27.5748
55 2 2.2208 2.52349 -1.44415 27.6541
298 1 -1.1104 6.49743 2.82094 20.5424
315 1 -1.1104 6.76662 2.68757 23.3937
320 1 -1.1104 6.79526 -2.89474 26.3474
67 2 2.2208 5.26881 -4.25333 27.7127
116 2 2.2208 13.7214 4.1365 27.5034
378 1 -1.1104 12.2297 8.24305 23.3811
377 1 -1.1104 12.3794 -0.138568 23.2972
397 2 2.2208 8.06453 -4.30274 24.7493
392 2 2.2208 13.7866 1.30978 24.774
367 2 2.2208 10.7994 6.97038 21.9613
395 2 2.2208 13.5968 4.10742 22.0416
366 1 -1.1104 12.2367 -2.97664 23.4173
322 1 -1.1104 6.52989 8.36882 26.2936
328 1 -1.1104 6.60962 5.54162 23.4623
331 1 -1.1104 6.69725 -0.136876 25.9937
386 1 -1.1104 9.72615 -2.83686 26.219
396 2 2.2208 10.8297 -4.21041 21.9779
355 1 -1.1104 9.40417 -0.134753 26.1638
359 2 2.2208 8.11841 4.21807 22.0911
9700 2 2.2208 13.7028 -4.21594 24.8568
363 1 -1.1104 12.455 2.61681 23.3528
369 1 -1.1104 12.1955 -2.72427 20.4871
358 1 -1.1104 9.5919 -0.21035 23.2264
371 1 -1.1104 12.3554 8.37824 20.6924
354 1 -1.1104 9.45036 5.40969 26.2495
383 1 -1.1104 9.36056 -0.0567408 20.5716
299 1 -1.1104 6.73223 8.49038 20.6847
380 1 -1.1104 9.42646 -2.85884 20.5259
321 1 -1.1104 6.74787 2.82634 26.1995
365 1 -1.1104 12.3468 5.51592 26.3532
379 1 -1.1104 12.2951 8.36099 26.3431
391 2 2.2208 10.8977 -1.49524 24.8161
372 1 -1.1104 12.3535 -2.91122 26.2998
385 1 -1.1104 9.65606 2.65251 26.143
364 2 2.2208 8.13194 1.37425 24.7647
388 2 2.2208 10.9826 4.04591 24.9012
357 2 2.2208 8.06428 6.85921 24.9232
387 1 -1.1104 9.53795 8.36476 23.3363
332 1 -1.1104 6.7278 5.60206 26.2433
368 1 -1.1104 12.2752 -0.141602 26.107
373 2 2.2208 10.8351 1.36551 21.9535
384 1 -1.1104 9.41144 5.55992 20.6554
381 1 -1.1104 9.35534 2.83832 20.6157
356 1 -1.1104 9.52572 5.56057 23.4148
360 2 2.2208 8.12409 -1.38017 21.9948
390 1 -1.1104 9.42484 -2.86997 23.3236
361 1 -1.1104 9.43369 8.22541 26.1901
362 1 -1.1104 12.365 2.69117 26.1101
376 1 -1.1104 12.4184 5.50791 23.4908
389 1 -1.1104 9.52537 2.74231 23.3179
120 2 2.2208 10.902 -4.34061 27.6049
109 2 2.2208 10.8674 7.00968 27.6457
398 2 2.2208 5.23796 12.6224 5.23115
399 2 2.2208 5.15592 18.049 5.28325
400 1 -1.1104 1.099 13.862 1.02574
402 1 -1.1104 1.07956 19.7394 0.929721
406 1 -1.1104 1.08059 13.9339 3.70379
407 1 -1.1104 0.988466 19.6975 3.77642
410 2 2.2208 5.2581 9.7347 2.42428
411 2 2.2208 5.27365 15.3687 2.37688
412 2 2.2208 5.33163 20.8268 2.36276
413 1 -1.1104 1.19048 10.9738 0.882898
415 1 -1.1104 0.898626 16.8471 1.03021
421 1 -1.1104 1.09203 10.9931 3.75366
422 1 -1.1104 1.07618 16.8613 3.78492
425 2 2.2208 2.56315 12.519 2.53485
426 2 2.2208 2.39023 18.1553 2.36771
427 1 -1.1104 3.8762 14.0551 1.08131
429 1 -1.1104 3.98472 19.559 0.959457
430 1 -1.1104 3.88576 13.8427 3.81575
431 1 -1.1104 3.87025 19.5447 3.89424
432 2 2.2208 2.38687 9.80034 5.23252
433 2 2.2208 2.45848 15.3641 5.23156
434 2 2.2208 2.42371 21.0179 5.06326
435 1 -1.1104 4.00569 11.2208 0.998733
437 1 -1.1104 3.78316 16.8358 0.954908
439 1 -1.1104 3.84461 11.1019 3.92456
440 1 -1.1104 3.72653 16.4986 3.77113
443 2 2.2208 2.58041 9.81298 -0.424628
442 2 2.2208 2.29682 15.3891 -0.438618
405 1 -1.1104 6.72797 19.529 0.998769
408 1 -1.1104 6.67288 14.0271 3.86395
424 1 -1.1104 6.45407 16.7642 3.74328
417 1 -1.1104 6.72347 10.9933 1.07238
451 2 2.2208 -0.318596 12.6067 -0.380794
447 2 2.2208 -0.311365 15.4302 2.31168
452 2 2.2208 -0.349148 12.4958 5.0998
441 2 2.2208 2.60356 20.9616 -0.329521
419 1 -1.1104 6.77402 16.7183 1.02668
423 1 -1.1104 6.51462 11.0551 3.91763
446 2 2.2208 -0.415238 21.0236 2.33048
436 1 -1.1104 3.79375 11.1737 6.63972
448 2 2.2208 -0.33594 9.8 2.35552
444 2 2.2208 5.33193 18.1426 -0.425883
445 2 2.2208 5.18961 12.7068 -0.326239
409 1 -1.1104 6.72448 19.6382 3.80879
403 1 -1.1104 6.69054 13.96 0.965712
490 2 2.2208 13.604 12.5012 2.44348
9794 2 2.2208 13.6214 21.0123 -0.360249
453 2 2.2208 10.8854 12.7346 5.11533
454 2 2.2208 10.9275 18.2822 5.24518
455 1 -1.1104 12.249 14.0877 0.847792
457 1 -1.1104 12.1761 19.7243 0.95544
458 1 -1.1104 12.2259 13.859 3.61031
459 1 -1.1104 12.3783 19.5462 3.6793
460 2 2.2208 10.8632 9.66889 2.39554
461 2 2.2208 10.9126 15.4276 2.34819
462 2 2.2208 10.8574 21.0711 2.36103
463 1 -1.1104 12.2676 11.1726 1.02485
465 1 -1.1104 12.1859 16.8097 0.989686
467 1 -1.1104 12.1822 11.1029 3.74873
468 1 -1.1104 12.2974 16.603 3.81639
469 2 2.2208 8.11651 12.5702 2.38385
470 2 2.2208 8.11677 18.1735 2.38082
471 1 -1.1104 9.50685 14.1584 0.965402
473 1 -1.1104 9.42018 19.7487 0.918893
474 1 -1.1104 9.40443 14.034 3.77025
475 1 -1.1104 9.52567 19.5848 3.77748
476 2 2.2208 8.10964 9.79086 5.14502
477 2 2.2208 7.92543 15.3074 5.17322
478 2 2.2208 7.99494 20.9447 5.0929
479 1 -1.1104 9.52977 11.1868 0.990601
481 1 -1.1104 9.39584 16.9346 0.854212
483 1 -1.1104 9.45654 11.101 3.7817
484 1 -1.1104 9.50681 16.8139 3.76994
491 2 2.2208 13.6522 9.78118 5.17238
464 1 -1.1104 12.4079 11.0614 6.68918
486 2 2.2208 8.05386 15.478 -0.440629
456 1 -1.1104 12.2544 13.8961 6.45848
472 1 -1.1104 9.42884 13.9623 6.50091
488 2 2.2208 10.7824 18.3041 -0.390214
492 2 2.2208 13.579 15.2871 5.26119
561 1 -1.1104 9.63899 19.7018 6.5534
9793 2 2.2208 13.7087 18.1417 2.22343
495 2 2.2208 13.6312 20.8822 5.18577
489 2 2.2208 10.7693 12.5254 -0.471675
428 1 -1.1104 3.74786 13.9035 6.62251
496 1 -1.1104 1.0619 19.6195 6.55497
537 2 2.2208 -0.281938 21.1198 7.88657
497 1 -1.1104 6.73692 19.555 6.60734
438 1 -1.1104 3.84464 16.8056 6.60336
416 1 -1.1104 1.0585 16.7618 6.48323
498 1 -1.1104 3.80307 19.5568 6.72499
401 1 -1.1104 1.12416 13.9262 6.5167
414 1 -1.1104 1.05764 11.0824 6.5743
499 2 2.2208 5.13108 12.4786 10.8004
500 2 2.2208 5.24915 18.1131 10.9306
501 1 -1.1104 0.935532 13.8174 12.2932
502 1 -1.1104 0.892264 19.4233 12.0593
505 1 -1.1104 0.937968 13.9775 9.46346
506 1 -1.1104 1.05161 19.6379 9.3443
509 2 2.2208 5.24093 9.71199 8.00715
510 2 2.2208 5.21153 15.316 8.01029
511 2 2.2208 5.34337 21.0656 8.05477
512 1 -1.1104 0.887125 11.1107 11.9531
513 1 -1.1104 0.9383 16.731 12.0919
516 1 -1.1104 1.15643 11.1104 9.29235
517 1 -1.1104 0.96765 16.7146 9.29955
520 2 2.2208 2.41832 12.5672 7.99862
521 2 2.2208 2.56392 18.1577 8.08525
522 1 -1.1104 3.79258 13.8983 12.1972
523 1 -1.1104 3.76036 19.5679 12.1484
524 1 -1.1104 3.87572 13.936 9.31117
525 1 -1.1104 3.84054 19.4848 9.37487
526 2 2.2208 2.35621 9.71297 10.8262
527 2 2.2208 2.391 15.3479 10.7605
528 2 2.2208 2.40713 20.8797 10.9149
529 1 -1.1104 3.59093 10.9654 12.4321
530 1 -1.1104 3.68916 16.6534 12.0925
531 1 -1.1104 3.83465 11.1719 9.56815
532 1 -1.1104 3.89397 16.7436 9.47001
420 1 -1.1104 6.48006 16.6765 6.51951
508 1 -1.1104 6.55109 19.5443 9.42753
518 1 -1.1104 6.72394 11.1098 9.31505
507 1 -1.1104 6.4545 13.9449 9.5111
503 1 -1.1104 6.58311 13.9569 12.2265
582 2 2.2208 13.6073 18.1629 8.05945
480 1 -1.1104 9.58876 11.2413 6.53272
482 1 -1.1104 9.39974 16.7008 6.46365
418 1 -1.1104 6.83822 11.0579 6.65336
404 1 -1.1104 6.56856 13.8249 6.57198
504 1 -1.1104 6.57663 19.6121 12.1978
515 1 -1.1104 6.65725 16.7596 12.1555
519 1 -1.1104 6.67471 16.8044 9.33774
578 2 2.2208 10.9192 9.79148 13.6435
566 1 -1.1104 9.25152 14.2541 9.32902
554 2 2.2208 8.07269 9.79879 10.726
555 1 -1.1104 12.1983 11.1455 9.43083
563 1 -1.1104 12.1892 19.5384 9.35896
574 2 2.2208 13.6335 21.0021 10.659
548 1 -1.1104 9.41451 16.8184 12.1844
514 1 -1.1104 6.64785 11.1252 12.003
575 2 2.2208 13.6247 15.2981 10.8423
553 2 2.2208 7.92734 15.3236 10.8802
466 1 -1.1104 12.1291 16.6746 6.63329
560 1 -1.1104 12.2981 19.6108 6.57351
549 1 -1.1104 9.46872 11.1294 12.1948
565 1 -1.1104 9.24471 19.7211 9.35591
558 2 2.2208 10.8974 21.0591 8.03817
572 1 -1.1104 12.1722 13.8628 12.0508
571 2 2.2208 10.9232 18.1051 10.8798
556 1 -1.1104 12.2224 16.6455 12.2178
562 2 2.2208 10.8983 9.74142 8.01553
557 1 -1.1104 12.2549 11.0943 12.2277
547 1 -1.1104 9.56279 11.2482 9.43216
551 1 -1.1104 12.474 16.8778 9.49027
552 2 2.2208 8.04554 21.0415 10.7402
546 1 -1.1104 9.53884 17.0316 9.34774
550 2 2.2208 8.02671 12.5529 7.9933
573 1 -1.1104 12.2734 19.4661 12.2538
564 1 -1.1104 12.1791 14.0592 9.34263
559 2 2.2208 10.705 15.4453 7.9544
569 2 2.2208 8.05805 18.1996 8.0531
570 2 2.2208 10.9814 12.5527 10.7418
568 1 -1.1104 9.44182 13.9086 12.206
567 1 -1.1104 9.4605 19.5702 12.3831
586 2 2.2208 5.3077 12.5493 16.3697
587 2 2.2208 5.12973 18.1479 16.4477
588 1 -1.1104 1.06915 13.8364 17.7325
589 1 -1.1104 1.05194 19.5217 17.8024
592 1 -1.1104 1.15434 14.0143 15.0601
593 1 -1.1104 1.02843 19.6424 14.9475
596 2 2.2208 5.27909 9.83031 19.2538
597 2 2.2208 5.24648 15.3475 19.3095
598 2 2.2208 5.24374 20.945 19.2197
599 1 -1.1104 1.01058 10.9397 17.8073
600 1 -1.1104 0.996691 16.694 17.7989
603 1 -1.1104 0.856508 11.1415 14.8002
604 1 -1.1104 0.789164 16.8554 14.9256
607 2 2.2208 2.46716 12.5403 19.2072
608 2 2.2208 2.45429 18.0909 19.2453
609 1 -1.1104 3.89287 13.9906 17.8527
610 1 -1.1104 3.67772 19.5611 17.8399
611 1 -1.1104 3.83138 14.0238 14.9742
612 1 -1.1104 3.76315 19.5476 14.9178
613 2 2.2208 2.50031 9.68839 16.451
614 2 2.2208 2.45446 15.3495 16.4541
615 2 2.2208 2.3587 20.9578 16.407
616 1 -1.1104 3.84251 11.2006 17.9133
617 1 -1.1104 3.71858 16.8197 17.7053
618 1 -1.1104 3.78984 11.3382 15.1219
619 1 -1.1104 3.8008 16.9086 14.9589
591 1 -1.1104 6.57225 19.6832 17.9225
605 1 -1.1104 6.66686 11.1188 14.8607
536 2 2.2208 2.33941 12.5044 13.6474
535 2 2.2208 5.29745 9.60663 13.4206
544 2 2.2208 5.27657 21.0045 13.6137
602 1 -1.1104 6.46842 16.8423 17.8534
658 1 -1.1104 1.18131 13.9816 20.5408
594 1 -1.1104 6.63277 13.9911 14.9122
539 2 2.2208 -0.390603 9.72655 13.4924
669 1 -1.1104 3.80927 16.7334 20.5696
659 1 -1.1104 0.988313 19.6376 20.4712
668 1 -1.1104 3.6775 11.3403 20.6519
534 2 2.2208 5.0862 15.3801 13.5837
533 2 2.2208 2.40759 18.2359 13.5072
606 1 -1.1104 6.63564 16.7814 15.0342
590 1 -1.1104 6.64192 14.0168 17.7675
595 1 -1.1104 6.56837 19.6279 15.096
601 1 -1.1104 6.60996 11.1863 17.9309
625 2 2.2208 10.7922 12.5493 16.4495
626 2 2.2208 10.8241 18.2684 16.3776
627 1 -1.1104 12.2356 13.8569 17.7474
628 1 -1.1104 12.1984 19.6925 17.8468
629 1 -1.1104 12.3271 13.9262 15.0025
630 1 -1.1104 12.341 19.619 15.1417
632 2 2.2208 10.7873 9.78359 19.1963
633 2 2.2208 10.8098 15.4381 19.2388
634 2 2.2208 10.7097 20.9803 19.3964
635 1 -1.1104 12.1512 11.1458 17.8426
636 1 -1.1104 12.1567 16.7146 17.8915
637 1 -1.1104 12.2407 11.1249 15.0783
638 1 -1.1104 12.1841 16.7014 15.0809
639 2 2.2208 7.99499 12.6171 19.3666
640 2 2.2208 7.93101 18.1874 19.2983
641 1 -1.1104 9.54222 14.0212 17.8148
642 1 -1.1104 9.34662 19.5596 17.9071
643 1 -1.1104 9.38787 13.8937 14.9581
644 1 -1.1104 9.47175 19.6199 14.9713
646 2 2.2208 8.07684 9.63877 16.2943
647 2 2.2208 7.95847 15.4155 16.3022
648 2 2.2208 8.05313 21.0051 16.4704
649 1 -1.1104 9.43126 11.2101 17.6857
650 1 -1.1104 9.24495 16.8448 17.9061
651 1 -1.1104 9.38973 11.0179 14.756
652 1 -1.1104 9.33488 16.8122 15.02
577 2 2.2208 10.7528 15.2706 13.5471
579 2 2.2208 7.98211 12.5081 13.5087
576 2 2.2208 7.96897 18.2281 13.6209
657 2 2.2208 13.6865 21.0053 16.4823
655 2 2.2208 13.6005 9.65196 16.5294
660 1 -1.1104 6.67999 13.882 20.6704
731 1 -1.1104 9.32156 11.1768 20.5276
653 2 2.2208 13.5445 12.3573 19.2022
585 2 2.2208 10.918 21.0006 13.5767
666 1 -1.1104 3.8184 14.1096 20.6233
667 1 -1.1104 3.85607 19.4612 20.6419
663 1 -1.1104 0.991453 16.7965 20.6668
662 1 -1.1104 1.00053 11.0319 20.5836
670 2 2.2208 5.19746 12.6184 22.1812
671 2 2.2208 5.18879 18.1581 21.9613
672 1 -1.1104 1.20101 14.1069 23.4236
673 1 -1.1104 0.990528 19.5478 23.2386
676 1 -1.1104 1.0522 13.9255 26.1915
677 1 -1.1104 1.04719 19.4775 26.1175
680 2 2.2208 5.28801 9.71155 24.8511
681 2 2.2208 5.22288 15.4503 24.9661
682 2 2.2208 5.21456 20.9814 24.8554
683 1 -1.1104 1.0476 11.3727 23.4353
684 1 -1.1104 0.979812 16.7846 23.3851
687 1 -1.1104 1.04296 11.2144 26.165
688 1 -1.1104 0.991414 16.7167 26.1648
691 2 2.2208 2.40362 12.6101 24.7556
692 2 2.2208 2.39232 18.1878 24.7774
693 1 -1.1104 3.87679 14.0667 23.5494
694 1 -1.1104 3.63978 19.6385 23.365
695 1 -1.1104 3.75112 13.9542 26.434
696 1 -1.1104 3.68332 19.5513 26.2068
697 2 2.2208 2.44683 9.78188 22.0581
698 2 2.2208 2.4176 15.3906 22.0628
699 2 2.2208 2.39885 21.0102 22.0239
700 1 -1.1104 3.78043 11.1122 23.4193
701 1 -1.1104 3.86552 16.8513 23.4766
702 1 -1.1104 3.93266 11.0111 26.2745
703 1 -1.1104 3.72191 16.7805 26.1752
678 1 -1.1104 6.41893 14.0438 26.1959
705 2 2.2208 -0.420042 15.3911 24.7732
665 1 -1.1104 6.66417 16.7471 20.5436
689 1 -1.1104 6.64176 11.1924 26.3194
690 1 -1.1104 6.62543 16.8008 26.3371
487 2 2.2208 7.88176 9.66961 27.5827
716 1 -1.1104 9.40283 19.7299 26.1099
722 1 -1.1104 12.3805 13.9255 20.661
727 1 -1.1104 12.2138 16.6099 20.7504
664 1 -1.1104 6.53113 11.237 20.6682
732 1 -1.1104 9.39304 16.8318 20.6136
631 1 -1.1104 12.1947 19.4206 20.6227
645 1 -1.1104 9.31079 19.7255 20.7393
726 1 -1.1104 12.1199 11.2831 20.7165
720 1 -1.1104 12.141 19.5648 26.2372
729 1 -1.1104 12.2925 11.224 23.4651
733 1 -1.1104 9.40283 13.9719 26.2928
675 1 -1.1104 6.35515 19.4087 23.6455
685 1 -1.1104 6.76993 11.1013 23.5732
679 1 -1.1104 6.59425 19.7499 26.3271
710 1 -1.1104 9.36165 11.0871 26.2802
711 1 -1.1104 9.35193 16.7177 23.3847
725 1 -1.1104 12.2194 16.8273 23.4688
738 2 2.2208 10.8212 12.6196 22.0501
724 2 2.2208 10.8145 15.4061 24.933
661 1 -1.1104 6.61515 19.6231 20.7442
686 1 -1.1104 6.57484 16.7203 23.3609
745 2 2.2208 13.7048 20.9174 22.0649
714 2 2.2208 7.9477 15.3046 22.0689
735 1 -1.1104 9.40609 13.7585 23.3506
719 1 -1.1104 12.1118 16.7905 26.3116
723 1 -1.1104 12.2909 13.8796 26.2862
712 1 -1.1104 9.5974 11.0601 23.5036
739 2 2.2208 10.7758 18.0599 21.9841
709 1 -1.1104 9.43112 16.7556 26.1394
730 1 -1.1104 9.46091 14.0463 20.6676
740 1 -1.1104 12.1642 14.1236 23.5011
744 2 2.2208 13.5768 15.3492 21.9875
734 1 -1.1104 9.2892 19.5242 23.4268
737 2 2.2208 8.14777 12.546 24.9861
721 1 -1.1104 12.2623 11.1408 26.2514
674 1 -1.1104 6.58393 14.1054 23.4418
715 2 2.2208 8.09997 9.82359 22.1728
736 2 2.2208 8.01965 18.2252 24.7822
728 1 -1.1104 12.2771 19.579 23.447
717 2 2.2208 10.991 9.7108 24.8216
713 2 2.2208 8.01383 20.939 22.1083
718 2 2.2208 10.7853 21.0155 24.8078
485 2 2.2208 7.97523 21.0774 27.6814
746 2 2.2208 5.1942 23.789 5.15886
748 2 2.2208 5.2519 29.3618 5.28897
749 1 -1.1104 1.1285 25.2796 0.911782
750 1 -1.1104 0.969941 30.8374 0.985739
753 1 -1.1104 0.892865 25.365 3.84999
754 1 -1.1104 1.05194 30.814 3.72951
757 2 2.2208 5.30148 26.553 2.41826
758 2 2.2208 5.15421 32.2564 2.31486
759 1 -1.1104 1.05088 22.4498 0.936209
760 1 -1.1104 1.14314 28.0222 1.09831
761 1 -1.1104 1.08965 33.7173 1.0912
765 1 -1.1104 1.03807 22.5592 3.71984
766 1 -1.1104 1.23746 28.1005 3.83933
767 1 -1.1104 0.9028 33.7138 3.81359
771 2 2.2208 2.40855 23.8799 2.24883
772 2 2.2208 2.51498 29.4893 2.44
773 1 -1.1104 3.95649 25.2141 0.967422
774 1 -1.1104 3.94781 30.8797 0.874853
775 1 -1.1104 3.81341 25.209 3.80101
776 1 -1.1104 3.86235 30.721 3.67746
778 2 2.2208 2.51843 26.5893 5.17308
779 2 2.2208 2.48521 32.1703 5.13667
780 1 -1.1104 3.88253 22.3988 1.12039
781 1 -1.1104 3.93083 28.019 0.785156
782 1 -1.1104 3.74173 33.6736 0.949882
783 1 -1.1104 3.83331 22.4569 3.77828
784 1 -1.1104 3.87702 27.9265 3.79879
785 1 -1.1104 3.93214 33.5158 3.81661
791 2 2.2208 5.29309 23.8002 -0.337119
751 1 -1.1104 6.72118 25.2005 1.1228
762 1 -1.1104 6.58216 22.3426 1.06999
755 1 -1.1104 6.50592 25.1624 3.86607
768 1 -1.1104 6.57414 22.3106 3.83699
1080 2 2.2208 2.51142 32.1637 -0.419383
763 1 -1.1104 6.61047 27.9446 1.03638
829 1 -1.1104 1.17808 30.83 6.55192
752 1 -1.1104 6.7771 30.7033 0.905134
769 1 -1.1104 6.61929 28.1309 3.90035
770 1 -1.1104 6.69006 33.6939 3.7691
841 1 -1.1104 3.90096 27.9592 6.57923
831 1 -1.1104 6.62631 30.7823 6.58769
747 2 2.2208 5.26023 29.2843 -0.500541
756 1 -1.1104 6.55952 30.9095 3.64833
764 1 -1.1104 6.64797 33.586 1.01082
1115 2 2.2208 10.8626 29.4737 -0.480825
793 2 2.2208 10.8917 23.8346 5.15297
794 2 2.2208 10.7454 29.5035 5.11845
795 1 -1.1104 12.3334 25.3171 1.01497
796 1 -1.1104 12.3957 30.6135 0.913967
797 1 -1.1104 12.1717 25.3011 3.71258
798 1 -1.1104 12.3102 30.7464 3.74973
799 2 2.2208 10.7718 26.7788 2.32506
800 2 2.2208 10.9577 32.2307 2.40775
801 1 -1.1104 12.2089 22.5065 0.973042
802 1 -1.1104 12.2143 27.8698 0.852737
803 1 -1.1104 12.199 33.584 0.980354
804 1 -1.1104 12.3215 22.4377 3.75676
805 1 -1.1104 12.2506 28.101 3.78325
806 1 -1.1104 12.3978 33.6638 3.86188
807 2 2.2208 7.93398 23.787 2.41209
808 2 2.2208 7.96316 29.4418 2.35022
809 1 -1.1104 9.48268 25.2069 1.04237
810 1 -1.1104 9.62645 30.7716 0.932578
811 1 -1.1104 9.3414 25.3047 3.88536
812 1 -1.1104 9.41085 30.9502 3.53889
814 2 2.2208 7.96096 26.555 5.17506
815 2 2.2208 7.87457 32.2535 5.08087
816 1 -1.1104 9.34396 22.4746 1.05297
817 1 -1.1104 9.3799 28.0407 0.774563
818 1 -1.1104 9.33083 33.6285 0.847893
819 1 -1.1104 9.34806 22.3481 3.69883
820 1 -1.1104 9.3056 28.1674 3.71678
821 1 -1.1104 9.54524 33.6682 3.68042
822 2 2.2208 10.8084 23.8503 -0.328524
827 2 2.2208 13.6495 26.697 5.10545
826 2 2.2208 13.753 29.4286 2.34473
813 2 2.2208 8.01575 26.5127 -0.426851
1114 2 2.2208 13.6487 32.2311 -0.482946
823 2 2.2208 13.6609 26.6439 -0.461398
904 1 -1.1104 9.54055 27.9927 6.5672
900 1 -1.1104 9.37308 25.1128 6.58836
899 1 -1.1104 12.192 33.6222 6.56668
898 1 -1.1104 12.4319 27.9324 6.59218
824 2 2.2208 13.7051 32.2307 5.18382
832 1 -1.1104 0.926183 22.5156 6.55199
839 1 -1.1104 3.75216 30.7287 6.60677
834 1 -1.1104 1.08733 33.701 6.60902
884 2 2.2208 -0.264989 26.5141 7.93023
882 2 2.2208 -0.345672 23.8528 10.6733
833 1 -1.1104 1.09266 27.9793 6.66311
842 1 -1.1104 3.83022 33.5976 6.61724
840 1 -1.1104 3.72109 22.3929 6.56012
828 1 -1.1104 1.1258 25.2517 6.52709
838 1 -1.1104 3.90807 25.2047 6.53999
835 1 -1.1104 6.75278 22.286 6.52591
830 1 -1.1104 6.64551 25.1296 6.64095
844 2 2.2208 5.16709 23.7891 10.8187
845 2 2.2208 5.41018 29.467 10.8188
846 1 -1.1104 1.02673 25.0932 12.1116
847 1 -1.1104 1.01264 30.6329 12.1447
850 1 -1.1104 0.951846 25.1548 9.32277
851 1 -1.1104 1.09393 30.7374 9.31953
854 2 2.2208 5.27575 26.5087 7.99258
855 2 2.2208 5.07812 32.1853 7.98969
856 1 -1.1104 0.918768 22.3699 12.0999
857 1 -1.1104 1.05126 27.7646 12.3272
858 1 -1.1104 0.891088 33.4831 12.3686