LAMMPS (29 Oct 2020)
OMP_NUM_THREADS environment is not set. Defaulting to 1 thread. (../comm.cpp:94)
  using 1 OpenMP thread(s) per MPI task
OMP_NUM_THREADS environment is not set. Defaulting to 1 thread. (../comm.cpp:94)
  using 1 OpenMP thread(s) per MPI task
Reading data file ...
  orthogonal box = (-0.35362568 -6.4625868 -0.36089164) to (27.693626 498.58259 27.700892)
  1 by 26 by 2 MPI processor grid
  reading atoms ...
  27000 atoms
  reading velocities ...
  27000 velocities
Finding 1-2 1-3 1-4 neighbors ...
  special bond factors lj:    0.0      0.0      0.0     
  special bond factors coul:  0.0      0.0      0.0     
     0 = max # of 1-2 neighbors
     0 = max # of 1-3 neighbors
     0 = max # of 1-4 neighbors
     1 = max # of special neighbors
  special bonds CPU = 0.004 seconds
  read_data CPU = 0.090 seconds
Setting atom values ...
  18000 settings made for charge
Setting atom values ...
  9000 settings made for charge
PPPM initialization ...
  using 12-bit tables for long-range coulomb (../kspace.cpp:328)
  G vector (1/distance) = 0.29895603
  grid = 40 360 40
  stencil order = 5
  estimated absolute RMS force accuracy = 0.00015620399
  estimated relative force accuracy = 1.0847766e-05
  using single precision MKL FFT
  3d grid and FFT values/proc = 21375 11200
Neighbor list info ...
  update every 1 steps, delay 0 steps, check yes
  max neighbors/atom: 2000, page size: 100000
  master list distance cutoff = 11.3
  ghost atom cutoff = 11.3
  binsize = 5.65, bins = 5 90 5
  2 neighbor lists, perpetual/occasional/extra = 2 0 0
  (1) pair coul/long, perpetual
      attributes: half, newton on
      pair build: half/bin/newton
      stencil: half/bin/3d/newton
      bin: standard
  (2) pair eam/alloy, perpetual, copy from (1)
      attributes: half, newton on
      pair build: copy
      stencil: none
      bin: none
Setting up Verlet run ...
  Unit style    : metal
  Current step  : 0
  Time step     : 0.001
Per MPI rank memory allocation (min/avg/max) = 8.685 | 9.415 | 9.462 Mbytes
Step Temp E_pair E_mol TotEng Press 
       0          600   -353246.67            0   -351152.73   -750.08841 
  100000    600.95085   -353255.29            0   -351158.03   -875.88596 
Loop time of 955.852 on 52 procs for 100000 steps with 27000 atoms

Performance: 9.039 ns/day, 2.655 hours/ns, 104.619 timesteps/s
99.8% CPU use with 52 MPI tasks x 1 OpenMP threads

MPI task timing breakdown:
Section |  min time  |  avg time  |  max time  |%varavg| %total
---------------------------------------------------------------
Pair    | 621.56     | 640.29     | 649.8      |  23.0 | 66.99
Bond    | 0.010294   | 0.013555   | 0.018308   |   1.5 |  0.00
Kspace  | 220.88     | 230.6      | 250.03     |  38.4 | 24.13
Neigh   | 50.947     | 52.065     | 53.649     |   8.4 |  5.45
Comm    | 23.131     | 25.651     | 28.641     |  23.5 |  2.68
Output  | 6.51e-05   | 7.1156e-05 | 0.00030192 |   0.0 |  0.00
Modify  | 2.5598     | 4.6847     | 9.1959     |  94.4 |  0.49
Other   |            | 2.548      |            |       |  0.27

Nlocal:        519.231 ave         532 max         481 min
Histogram: 1 1 2 1 2 1 5 8 21 10
Nghost:        4858.17 ave        4903 max        4817 min
Histogram: 3 1 5 11 4 12 10 3 0 3
Neighs:       104897.0 ave      107680 max       96799 min
Histogram: 1 1 2 1 0 4 5 11 17 10

Total # of neighbors = 5454668
Ave neighs/atom = 202.02474
Ave special neighs/atom = 0.0000000
Neighbor list builds = 16543
Dangerous builds = 0
18000 atoms in group oxygen
PPPM initialization ...
  using 12-bit tables for long-range coulomb (../kspace.cpp:328)
  G vector (1/distance) = 0.29895603
  grid = 40 360 40
  stencil order = 5
  estimated absolute RMS force accuracy = 0.00015620399
  estimated relative force accuracy = 1.0847766e-05
  using single precision MKL FFT
  3d grid and FFT values/proc = 21375 11200
Setting up Verlet run ...
  Unit style    : metal
  Current step  : 0
  Time step     : 0.001
Per MPI rank memory allocation (min/avg/max) = 9.640 | 9.695 | 9.712 Mbytes
Step f_2 Temp v_Tdiff v_deltaT 
       0            0    600.95085            0            0 
  100000    726.81067    600.94532  0.018234855    211.70498 
  200000    1425.1712    602.45288   0.02196465    255.00755 
  300000    2126.2628    599.61028  0.022295741    258.85149 
  400000    2827.3257    601.43924  0.022086689    256.42441 
  500000    3524.4606    598.52811  0.021646361    251.31224 
  600000    4222.6249    604.79731  0.022471331    260.89007 
  700000    4923.8087    604.58251  0.022099324     256.5711 
  800000      5625.18    600.55634  0.022139594    257.03863 
  900000    6322.1491    600.27235  0.022987775    266.88593 
 1000000     7021.798    601.48216  0.021862715    253.82409 
 1100000    7723.6743    602.95775  0.022109237    256.68619 
 1200000    8421.7987    599.72367  0.022350534    259.48763 
 1300000    9120.1735    602.92105  0.022102193     256.6044 
 1400000    9822.7092     599.1678  0.022004318    255.46809 
 1500000    10522.306    603.00115  0.022013473    255.57438 
Loop time of 14106.5 on 52 procs for 1500000 steps with 27000 atoms

Performance: 9.187 ns/day, 2.612 hours/ns, 106.334 timesteps/s
99.8% CPU use with 52 MPI tasks x 1 OpenMP threads

MPI task timing breakdown:
Section |  min time  |  avg time  |  max time  |%varavg| %total
---------------------------------------------------------------
Pair    | 9358       | 9543.9     | 9716.2     |  85.1 | 67.66
Bond    | 0.15077    | 0.19887    | 0.27778    |   5.7 |  0.00
Kspace  | 3181.4     | 3351.2     | 3530.2     | 144.5 | 23.76
Neigh   | 766.55     | 797.58     | 838.27     |  47.4 |  5.65
Comm    | 281.03     | 332.13     | 375.28     |  99.9 |  2.35
Output  | 0.0016415  | 0.001743   | 0.0035469  |   0.6 |  0.00
Modify  | 12.025     | 14.301     | 17.752     |  50.0 |  0.10
Other   |            | 67.2       |            |       |  0.48

Nlocal:        519.231 ave         533 max         486 min
Histogram: 3 1 0 1 1 7 6 11 14 8
Nghost:        4877.37 ave        4931 max        4835 min
Histogram: 6 5 3 9 10 6 3 5 3 2
Neighs:       104883.0 ave      107706 max       97876 min
Histogram: 3 0 1 1 2 3 7 15 11 9

Total # of neighbors = 5453938
Ave neighs/atom = 201.99770
Ave special neighs/atom = 0.0000000
Neighbor list builds = 253511
Dangerous builds = 0
Total wall time: 4:11:02
