LAMMPS (29 Oct 2020)
OMP_NUM_THREADS environment is not set. Defaulting to 1 thread. (../comm.cpp:94)
  using 1 OpenMP thread(s) per MPI task
OMP_NUM_THREADS environment is not set. Defaulting to 1 thread. (../comm.cpp:94)
  using 1 OpenMP thread(s) per MPI task
Reading data file ...
  triclinic box = (-0.16405575 -2.0623759 -0.16347012) to (28.058056 336.79038 28.057470) with tilt (0.0000000 0.0000000 0.0000000)
  2 by 13 by 2 MPI processor grid
  reading atoms ...
  18001 atoms
  reading velocities ...
  18001 velocities
Finding 1-2 1-3 1-4 neighbors ...
  special bond factors lj:    0.0      0.0      0.0     
  special bond factors coul:  0.0      0.0      0.0     
     0 = max # of 1-2 neighbors
     0 = max # of 1-3 neighbors
     0 = max # of 1-4 neighbors
     1 = max # of special neighbors
  special bonds CPU = 0.003 seconds
  read_data CPU = 0.060 seconds
Setting atom values ...
  12000 settings made for charge
Setting atom values ...
  6001 settings made for charge
PPPM initialization ...
WARNING: System is not charge neutral, net charge = 2.2208000 (../kspace.cpp:313)
  using 12-bit tables for long-range coulomb (../kspace.cpp:328)
  G vector (1/distance) = 0.2985034
  grid = 40 240 40
  stencil order = 5
  estimated absolute RMS force accuracy = 0.00016046877
  estimated relative force accuracy = 1.1143939e-05
  using single precision MKL FFT
  3d grid and FFT values/proc = 15000 7600
Neighbor list info ...
  update every 1 steps, delay 0 steps, check yes
  max neighbors/atom: 2000, page size: 100000
  master list distance cutoff = 11.3
  ghost atom cutoff = 11.3
  binsize = 5.65, bins = 5 60 5
  2 neighbor lists, perpetual/occasional/extra = 2 0 0
  (1) pair coul/long, perpetual
      attributes: half, newton on
      pair build: half/bin/newton/tri
      stencil: half/bin/3d/newton/tri
      bin: standard
  (2) pair eam/alloy, perpetual, copy from (1)
      attributes: half, newton on
      pair build: copy
      stencil: none
      bin: none
Setting up Verlet run ...
  Unit style    : metal
  Current step  : 0
  Time step     : 0.001
Per MPI rank memory allocation (min/avg/max) = 8.317 | 8.345 | 8.362 Mbytes
Step Temp E_pair E_mol TotEng Press 
       0          900   -233948.74            0   -231854.73   -649.20986 
  100000    891.08595   -233949.02            0   -231875.74   -617.92999 
Loop time of 689.257 on 52 procs for 100000 steps with 18001 atoms

Performance: 12.535 ns/day, 1.915 hours/ns, 145.084 timesteps/s
99.8% CPU use with 52 MPI tasks x 1 OpenMP threads

MPI task timing breakdown:
Section |  min time  |  avg time  |  max time  |%varavg| %total
---------------------------------------------------------------
Pair    | 451.61     | 464.99     | 476.08     |  27.4 | 67.46
Bond    | 0.0075018  | 0.010223   | 0.014855   |   1.7 |  0.00
Kspace  | 128.83     | 142.91     | 155.95     |  59.6 | 20.73
Neigh   | 58.371     | 61.009     | 65.968     |  24.8 |  8.85
Comm    | 14.925     | 15.911     | 17.915     |  20.6 |  2.31
Output  | 5.0722e-05 | 5.6454e-05 | 0.00029867 |   0.0 |  0.00
Modify  | 1.7969     | 3.1541     | 4.9542     |  63.0 |  0.46
Other   |            | 1.272      |            |       |  0.18

Nlocal:        346.173 ave         368 max         328 min
Histogram: 1 7 6 8 9 5 8 3 0 5
Nghost:        4036.12 ave        4144 max        3945 min
Histogram: 3 9 3 9 5 7 7 1 6 2
Neighs:        69756.8 ave       74071 max       65413 min
Histogram: 1 4 7 7 6 9 6 5 3 4

Total # of neighbors = 3627353
Ave neighs/atom = 201.50842
Ave special neighs/atom = 0.0000000
Neighbor list builds = 19764
Dangerous builds = 0
12000 atoms in group oxygen
PPPM initialization ...
  using 12-bit tables for long-range coulomb (../kspace.cpp:328)
  G vector (1/distance) = 0.2985034
  grid = 40 240 40
  stencil order = 5
  estimated absolute RMS force accuracy = 0.00016046877
  estimated relative force accuracy = 1.1143939e-05
  using single precision MKL FFT
  3d grid and FFT values/proc = 15000 7600
Setting up Verlet run ...
  Unit style    : metal
  Current step  : 0
  Time step     : 0.001
Per MPI rank memory allocation (min/avg/max) = 8.568 | 8.596 | 8.613 Mbytes
Step f_2 Temp v_Tdiff v_deltaT 
       0            0    891.08595            0            0 
  100000    973.39986     899.2267  0.036941198    428.88387 
  200000    1884.8828    906.03763  0.044654146    518.43049 
  300000    2798.9582    906.95422  0.044696156    518.91822 
  400000    3709.7286    908.58568  0.044212544    513.30353 
  500000    4629.8041    912.23557  0.044377849    515.22271 
  600000    5558.3486    906.33582  0.044961276    521.99624 
  700000    6477.6558     906.1785  0.044299948    514.31828 
  800000    7391.7288    910.24653  0.043447586    504.42244 
  900000    8316.9509    898.81505  0.044797279    520.09225 
 1000000    9231.0293     910.3889   0.04517364    524.46176 
 1100000    10148.136    910.67328  0.044977517    522.18479 
 1200000    11072.921    912.49697  0.044481914    516.43089 
 1300000    12000.329    911.25587  0.044368454    515.11363 
 1400000    12927.689    907.71173  0.044247362    513.70777 
 1500000    13846.572    908.18097  0.044828468    520.45435 
Loop time of 10198.6 on 52 procs for 1500000 steps with 18001 atoms

Performance: 12.708 ns/day, 1.889 hours/ns, 147.079 timesteps/s
99.8% CPU use with 52 MPI tasks x 1 OpenMP threads

MPI task timing breakdown:
Section |  min time  |  avg time  |  max time  |%varavg| %total
---------------------------------------------------------------
Pair    | 6696.5     | 6827.7     | 7029       |  96.1 | 66.95
Bond    | 0.1104     | 0.15973    | 0.25706    |   8.3 |  0.00
Kspace  | 1893       | 2138       | 2273.5     | 186.2 | 20.96
Neigh   | 894.26     | 940.67     | 1007.3     |  79.4 |  9.22
Comm    | 223        | 237.99     | 277.01     |  86.4 |  2.33
Output  | 0.0015756  | 0.0016766  | 0.0035739  |   0.7 |  0.00
Modify  | 8.1091     | 8.8172     | 9.4335     |  12.2 |  0.09
Other   |            | 45.24      |            |       |  0.44

Nlocal:        346.173 ave         366 max         334 min
Histogram: 9 3 6 10 6 11 2 2 0 3
Nghost:        4038.73 ave        4113 max        3952 min
Histogram: 3 2 1 8 11 9 6 3 1 8
Neighs:        69755.3 ave       73922 max       66739 min
Histogram: 4 5 6 10 12 5 4 3 1 2

Total # of neighbors = 3627274
Ave neighs/atom = 201.50403
Ave special neighs/atom = 0.0000000
Neighbor list builds = 304551
Dangerous builds = 0
Total wall time: 3:01:28
