LAMMPS (29 Oct 2020)
OMP_NUM_THREADS environment is not set. Defaulting to 1 thread. (../comm.cpp:94)
  using 1 OpenMP thread(s) per MPI task
#---------------------------------------
#
# This script is used to calculate the thermal conuctivity of UO2 using Muller-Plathe method
# By Ziqiang Wang on 03/18/2022 on Jilin university
#
#---------------------------------------

variable     Nevery    equal   50
variable     T         equal   600

clear
OMP_NUM_THREADS environment is not set. Defaulting to 1 thread. (../comm.cpp:94)
  using 1 OpenMP thread(s) per MPI task
units          metal
boundary       p p p
atom_style     full

read_data vac_0.005_relaxed.dat
Reading data file ...
  orthogonal box = (-0.36111329 -4.1846755 -0.35483882) to (27.701113 332.26468 27.694839)
  2 by 13 by 2 MPI processor grid
  reading atoms ...
  17910 atoms
  reading velocities ...
  17910 velocities
Finding 1-2 1-3 1-4 neighbors ...
  special bond factors lj:    0.0      0.0      0.0     
  special bond factors coul:  0.0      0.0      0.0     
     0 = max # of 1-2 neighbors
     0 = max # of 1-3 neighbors
     0 = max # of 1-4 neighbors
     1 = max # of special neighbors
  special bonds CPU = 0.004 seconds
  read_data CPU = 0.056 seconds

set           type     1    charge     -1.1104
Setting atom values ...
  11940 settings made for charge
set           type     2    charge      2.2208
Setting atom values ...
  5970 settings made for charge

kspace_style    pppm   1.0e-05
pair_style      hybrid/overlay  coul/long  11.0  eam/alloy
pair_coeff      * * coul/long
pair_coeff      * * eam/alloy CeThUNpPuAmCmO.eam.alloy O Th
newton          on
neighbor        0.3 bin
neigh_modify    delay 0 check yes every 1

#The first equilation
velocity        all create $T 10001 mom yes rot yes dist gaussian
velocity        all create 600 10001 mom yes rot yes dist gaussian
fix             nvt  all  nvt  temp  $T $T  0.1
fix             nvt  all  nvt  temp  600 $T  0.1
fix             nvt  all  nvt  temp  600 600  0.1

run             100000
PPPM initialization ...
  using 12-bit tables for long-range coulomb (../kspace.cpp:328)
  G vector (1/distance) = 0.29885966
  grid = 40 240 40
  stencil order = 5
  estimated absolute RMS force accuracy = 0.00015707368
  estimated relative force accuracy = 1.0908164e-05
  using single precision MKL FFT
  3d grid and FFT values/proc = 15000 7600
Neighbor list info ...
  update every 1 steps, delay 0 steps, check yes
  max neighbors/atom: 2000, page size: 100000
  master list distance cutoff = 11.3
  ghost atom cutoff = 11.3
  binsize = 5.65, bins = 5 60 5
  2 neighbor lists, perpetual/occasional/extra = 2 0 0
  (1) pair coul/long, perpetual
      attributes: half, newton on
      pair build: half/bin/newton
      stencil: half/bin/3d/newton
      bin: standard
  (2) pair eam/alloy, perpetual, copy from (1)
      attributes: half, newton on
      pair build: copy
      stencil: none
      bin: none
Per MPI rank memory allocation (min/avg/max) = 8.152 | 8.184 | 8.204 Mbytes
Step Temp E_pair E_mol TotEng Press 
       0          600   -234249.81            0   -232860.86    -46.16857 
  100000    598.76183   -234230.16            0   -232844.07    525.74224 
Loop time of 648.683 on 52 procs for 100000 steps with 17910 atoms

Performance: 13.319 ns/day, 1.802 hours/ns, 154.159 timesteps/s
99.8% CPU use with 52 MPI tasks x 1 OpenMP threads

MPI task timing breakdown:
Section |  min time  |  avg time  |  max time  |%varavg| %total
---------------------------------------------------------------
Pair    | 428.3      | 451.71     | 464.17     |  36.7 | 69.64
Bond    | 0.0068907  | 0.010305   | 0.015249   |   1.9 |  0.00
Kspace  | 128.22     | 142.59     | 167.85     |  73.3 | 21.98
Neigh   | 30.649     | 34.934     | 37.407     |  23.7 |  5.39
Comm    | 13.964     | 15.008     | 17.163     |  24.2 |  2.31
Output  | 5.27e-05   | 5.8754e-05 | 0.00029657 |   0.0 |  0.00
Modify  | 1.8028     | 3.1917     | 5.4859     |  67.0 |  0.49
Other   |            | 1.233      |            |       |  0.19

Nlocal:        344.423 ave         368 max         309 min
Histogram: 1 2 1 2 10 11 10 6 5 4
Nghost:        4149.85 ave        4266 max        3980 min
Histogram: 4 0 0 7 7 5 8 11 4 6
Neighs:        69329.3 ave       74882 max       60077 min
Histogram: 2 1 1 0 4 10 16 10 4 4

Total # of neighbors = 3605124
Ave neighs/atom = 201.29112
Ave special neighs/atom = 0.0000000
Neighbor list builds = 16232
Dangerous builds = 0
unfix           nvt
reset_timestep  0

# the second run
fix             1 all nve

group           oxygen type 1
11940 atoms in group oxygen
fix             2 oxygen thermal/conductivity ${Nevery} y 20
fix             2 oxygen thermal/conductivity 50 y 20

compute         ke all ke/atom
variable        temp atom c_ke/1.5
compute         layers all chunk/atom bin/1d y lower 0.05 units reduced
fix             3      all ave/chunk  2000 50 100000 layers v_temp file profile_${T}K.mp
fix             3      all ave/chunk  2000 50 100000 layers v_temp file profile_600K.mp

variable        Tdiff    equal     f_3[11][3]-f_3[1][3]
variable        deltaT   equal     v_Tdiff*1.5/0.0001292

timestep        0.001
thermo_style    custom step f_2 temp v_Tdiff v_deltaT
thermo          100000

run             1500000
PPPM initialization ...
  using 12-bit tables for long-range coulomb (../kspace.cpp:328)
  G vector (1/distance) = 0.29885966
  grid = 40 240 40
  stencil order = 5
  estimated absolute RMS force accuracy = 0.00015707368
  estimated relative force accuracy = 1.0908164e-05
  using single precision MKL FFT
  3d grid and FFT values/proc = 15000 7600
Per MPI rank memory allocation (min/avg/max) = 8.403 | 8.435 | 8.454 Mbytes
Step f_2 Temp v_Tdiff v_deltaT 
       0            0    598.76183            0            0 
  100000    701.05308    600.61065  0.016660049    193.42162 
  200000    1393.9084    600.29936  0.017919706    208.04612 
  300000    2090.6319     605.1657  0.017922146    208.07445 
  400000    2784.6339     604.5184  0.017983218    208.78349 
  500000    3483.3959    601.52743  0.017722301    205.75426 
  600000    4187.5482    603.45029   0.01760565    204.39997 
  700000    4885.8501    606.08293   0.01785426     207.2863 
  800000    5585.0833     605.2787  0.017880621    207.59235 
  900000    6283.1682    603.26156  0.016972044    197.04386 
 1000000    6980.6705    599.28939  0.017750313    206.07948 
 1100000    7685.3669    605.69367  0.018053722    209.60203 
 1200000    8381.8065    597.50304  0.018368893    213.26115 
 1300000    9079.0269    602.17405  0.017598112    204.31245 
 1400000    9783.4164    602.84962  0.016723247    194.15535 
 1500000    10484.465     601.6719  0.017327393    201.16943 
Loop time of 9582.1 on 52 procs for 1500000 steps with 17910 atoms

Performance: 13.525 ns/day, 1.774 hours/ns, 156.542 timesteps/s
99.8% CPU use with 52 MPI tasks x 1 OpenMP threads

MPI task timing breakdown:
Section |  min time  |  avg time  |  max time  |%varavg| %total
---------------------------------------------------------------
Pair    | 6298.6     | 6646.7     | 6834.4     | 139.8 | 69.37
Bond    | 0.10651    | 0.15759    | 0.22442    |   7.3 |  0.00
Kspace  | 1919.2     | 2125.4     | 2511.7     | 278.9 | 22.18
Neigh   | 464.15     | 535.26     | 571.84     |  92.3 |  5.59
Comm    | 211.45     | 223.94     | 254.99     |  76.3 |  2.34
Output  | 0.0015861  | 0.0016752  | 0.0033823  |   0.6 |  0.00
Modify  | 8.0196     | 8.6589     | 9.4333     |  10.8 |  0.09
Other   |            | 41.98      |            |       |  0.44

Nlocal:        344.423 ave         365 max         303 min
Histogram: 2 0 0 1 5 11 9 10 7 7
Nghost:        4166.10 ave        4287 max        3951 min
Histogram: 2 2 0 1 11 4 3 14 11 4
Neighs:        69319.0 ave       73586 max       58005 min
Histogram: 1 0 2 0 0 4 9 19 11 6

Total # of neighbors = 3604587
Ave neighs/atom = 201.26114
Ave special neighs/atom = 0.0000000
Neighbor list builds = 248438
Dangerous builds = 0

Total wall time: 2:50:31
