LAMMPS (29 Oct 2020)
OMP_NUM_THREADS environment is not set. Defaulting to 1 thread. (../comm.cpp:94)
  using 1 OpenMP thread(s) per MPI task
OMP_NUM_THREADS environment is not set. Defaulting to 1 thread. (../comm.cpp:94)
  using 1 OpenMP thread(s) per MPI task
Reading data file ...
  orthogonal box = (-0.039484262 -0.51676813 -0.040772616) to (27.379484 328.59677 27.380773)
  2 by 13 by 2 MPI processor grid
  reading atoms ...
  17640 atoms
  reading velocities ...
  17640 velocities
Finding 1-2 1-3 1-4 neighbors ...
  special bond factors lj:    0.0      0.0      0.0     
  special bond factors coul:  0.0      0.0      0.0     
     0 = max # of 1-2 neighbors
     0 = max # of 1-3 neighbors
     0 = max # of 1-4 neighbors
     1 = max # of special neighbors
  special bonds CPU = 0.004 seconds
  read_data CPU = 0.079 seconds
Setting atom values ...
  11760 settings made for charge
Setting atom values ...
  5880 settings made for charge
PPPM initialization ...
  using 12-bit tables for long-range coulomb (../kspace.cpp:328)
  G vector (1/distance) = 0.30005873
  grid = 40 240 40
  stencil order = 5
  estimated absolute RMS force accuracy = 0.00014641121
  estimated relative force accuracy = 1.0167696e-05
  using single precision MKL FFT
  3d grid and FFT values/proc = 15000 7600
Neighbor list info ...
  update every 1 steps, delay 0 steps, check yes
  max neighbors/atom: 2000, page size: 100000
  master list distance cutoff = 11.3
  ghost atom cutoff = 11.3
  binsize = 5.65, bins = 5 59 5
  2 neighbor lists, perpetual/occasional/extra = 2 0 0
  (1) pair coul/long, perpetual
      attributes: half, newton on
      pair build: half/bin/newton
      stencil: half/bin/3d/newton
      bin: standard
  (2) pair eam/alloy, perpetual, copy from (1)
      attributes: half, newton on
      pair build: copy
      stencil: none
      bin: none
Setting up Verlet run ...
  Unit style    : metal
  Current step  : 0
  Time step     : 0.001
Per MPI rank memory allocation (min/avg/max) = 8.168 | 8.192 | 8.208 Mbytes
Step Temp E_pair E_mol TotEng Press 
       0          600   -237534.96            0   -236166.95    1385.6224 
  100000    598.89894   -237525.51            0   -236160.01    1706.5757 
Loop time of 659.92 on 52 procs for 100000 steps with 17640 atoms

Performance: 13.092 ns/day, 1.833 hours/ns, 151.533 timesteps/s
99.8% CPU use with 52 MPI tasks x 1 OpenMP threads

MPI task timing breakdown:
Section |  min time  |  avg time  |  max time  |%varavg| %total
---------------------------------------------------------------
Pair    | 423.66     | 438.04     | 459.46     |  38.1 | 66.38
Bond    | 0.0063363  | 0.011615   | 0.017411   |   2.3 |  0.00
Kspace  | 140.09     | 164.26     | 177.99     |  67.5 | 24.89
Neigh   | 33.825     | 35.719     | 38.199     |  16.5 |  5.41
Comm    | 15.268     | 16.254     | 18.274     |  24.3 |  2.46
Output  | 5.9549e-05 | 6.5396e-05 | 0.00029413 |   0.0 |  0.00
Modify  | 2.7487     | 4.1741     | 6.0006     |  52.8 |  0.63
Other   |            | 1.46       |            |       |  0.22

Nlocal:        339.231 ave         361 max         319 min
Histogram: 1 4 8 5 8 14 5 1 3 3
Nghost:        4252.35 ave        4304 max        4199 min
Histogram: 5 8 7 2 1 2 7 10 7 3
Neighs:        71826.2 ave       77094 max       64385 min
Histogram: 2 1 4 4 6 5 15 8 3 4

Total # of neighbors = 3734963
Ave neighs/atom = 211.73260
Ave special neighs/atom = 0.0000000
Neighbor list builds = 16214
Dangerous builds = 0
11760 atoms in group oxygen
PPPM initialization ...
  using 12-bit tables for long-range coulomb (../kspace.cpp:328)
  G vector (1/distance) = 0.30005873
  grid = 40 240 40
  stencil order = 5
  estimated absolute RMS force accuracy = 0.00014641121
  estimated relative force accuracy = 1.0167696e-05
  using single precision MKL FFT
  3d grid and FFT values/proc = 15000 7600
Setting up Verlet run ...
  Unit style    : metal
  Current step  : 0
  Time step     : 0.001
Per MPI rank memory allocation (min/avg/max) = 8.419 | 8.442 | 8.459 Mbytes
Step f_2 Temp v_Tdiff v_deltaT 
       0            0    598.89894            0            0 
  100000    698.92904     602.1588  0.019763306    229.45014 
  200000     1377.688    602.91853  0.020914862     242.8196 
  300000    2056.1346    604.54233  0.020710934    240.45202 
  400000     2737.976     602.4135  0.020525486    238.29899 
  500000     3422.773    601.31434  0.019920721    231.27772 
  600000    4100.7893    600.93534  0.021253993    246.75689 
  700000    4778.8157    598.85343  0.020889769    242.52827 
  800000    5458.2054    603.57776  0.020772607    241.16803 
  900000    6136.3569    598.52896  0.021533798    250.00539 
 1000000    6813.5764    604.47156  0.020835228    241.89506 
Loop time of 6531.6 on 52 procs for 1000000 steps with 17640 atoms

Performance: 13.228 ns/day, 1.814 hours/ns, 153.102 timesteps/s
99.8% CPU use with 52 MPI tasks x 1 OpenMP threads

MPI task timing breakdown:
Section |  min time  |  avg time  |  max time  |%varavg| %total
---------------------------------------------------------------
Pair    | 4206.9     | 4325.2     | 4484.6     |  95.2 | 66.22
Bond    | 0.068801   | 0.11795    | 0.17417    |   6.9 |  0.00
Kspace  | 1445.1     | 1628.9     | 1750.3     | 170.1 | 24.94
Neigh   | 344.8      | 365.8      | 392.81     |  52.3 |  5.60
Comm    | 153.4      | 163.14     | 185.84     |  77.0 |  2.50
Output  | 0.0011392  | 0.0012181  | 0.0024351  |   0.5 |  0.00
Modify  | 5.6512     | 6.185      | 6.7309     |  11.3 |  0.09
Other   |            | 42.21      |            |       |  0.65

Nlocal:        339.231 ave         358 max         323 min
Histogram: 4 3 2 8 15 6 5 4 3 2
Nghost:        4251.40 ave        4301 max        4204 min
Histogram: 4 9 10 2 3 0 4 9 7 4
Neighs:        71837.8 ave       76630 max       65322 min
Histogram: 4 1 3 3 5 6 16 6 5 3

Total # of neighbors = 3735563
Ave neighs/atom = 211.76661
Ave special neighs/atom = 0.0000000
Neighbor list builds = 166179
Dangerous builds = 0
Total wall time: 1:59:51
