ITEM: TIMESTEP
60000
ITEM: NUMBER OF ATOMS
17730
ITEM: BOX BOUNDS pp pp pp
-4.4873938629400795e-01 2.7788739386293795e+01
-5.4231200806118283e+00 3.3350312008060246e+02
-4.3370080429243874e-01 2.7773700804292694e+01
ITEM: ATOMS id type q x y z
1 2 2.2208 5.39677 0.393002 5.25831
2 1 -1.1104 1.02124 -3.79482 1.05327
6 1 -1.1104 1.12115 -3.92039 3.82
10 1 -1.1104 0.684251 -1.23769 1.04763
12 2 2.2208 5.33839 -2.43936 2.36753
14 1 -1.1104 0.879989 -0.857234 3.87991
16 1 -1.1104 3.73379 -3.71133 0.906987
18 2 2.2208 2.27105 0.204568 2.35991
19 1 -1.1104 3.8425 -3.74294 3.75311
21 2 2.2208 2.46238 -2.49687 5.14155
23 1 -1.1104 3.65238 -1.01857 0.874452
24 1 -1.1104 3.8333 -0.870074 3.85275
174 1 -1.1104 3.93195 -1.03545 6.57034
11 1 -1.1104 6.60899 -1.00819 0.902472
9016 2 2.2208 2.52746 -5.25247 7.87119
9013 2 2.2208 8.09834 -5.31374 2.1874
330 2 2.2208 2.5812 5.80006 13.5853
170 1 -1.1104 1.07342 -1.17871 6.53833
172 1 -1.1104 3.98884 -3.82314 6.53082
9017 2 2.2208 5.25855 -5.37361 10.8869
8 1 -1.1104 6.58633 -3.79767 3.77081
15 1 -1.1104 6.65227 -1.14836 3.63635
4 1 -1.1104 6.82605 -3.71033 0.645582
31 2 2.2208 10.9094 0.300184 5.09521
32 1 -1.1104 12.2683 -3.86907 0.756703
34 1 -1.1104 12.4072 -4.03105 3.71326
36 1 -1.1104 12.1053 -0.945 1.05279
37 2 2.2208 10.8885 -2.56981 2.31065
39 1 -1.1104 12.1654 -1.22208 3.64255
40 1 -1.1104 9.65427 -3.9476 0.787376
42 2 2.2208 8.11869 0.129201 2.30336
43 1 -1.1104 9.54628 -3.83756 3.60791
45 2 2.2208 8.04195 -2.55202 5.00717
47 1 -1.1104 9.4283 -1.209 0.856944
48 1 -1.1104 9.35285 -1.24079 3.84421
171 1 -1.1104 6.73903 -0.910171 6.5478
205 1 -1.1104 12.3916 -3.84043 6.55026
207 1 -1.1104 12.2115 -0.986386 6.45767
208 1 -1.1104 9.37628 -4.00177 6.27209
9014 2 2.2208 11.0223 -5.34723 5.04034
312 2 2.2208 -0.332299 17.4888 10.842
231 1 -1.1104 12.2948 18.7169 9.45045
9019 2 2.2208 7.98043 -5.40651 7.93906
3 1 -1.1104 1.13029 1.67658 0.845037
7 1 -1.1104 0.945579 1.91383 3.72301
13 2 2.2208 5.3601 3.15703 2.40676
17 1 -1.1104 3.8175 1.8746 1.19652
20 1 -1.1104 3.93398 1.64872 3.98297
22 2 2.2208 2.57997 2.92435 5.12119
54 2 2.2208 5.11157 6.05831 5.2488
56 1 -1.1104 0.845904 7.50967 1.08354
60 1 -1.1104 0.979164 4.59084 0.872605
67 1 -1.1104 1.00496 4.52874 3.94854
72 2 2.2208 2.31639 5.86546 2.2635
76 1 -1.1104 3.76213 4.57594 0.862941
79 1 -1.1104 3.87871 4.62843 3.82005
74 1 -1.1104 3.94729 7.55645 4.12285
58 1 -1.1104 1.31749 7.53803 3.77523
71 1 -1.1104 3.79571 7.19682 1.02405
69 1 -1.1104 6.6095 4.81246 3.95015
402 2 2.2208 5.33562 -2.47429 13.6885
236 1 -1.1104 0.990046 4.52743 6.8653
239 1 -1.1104 3.88042 4.43639 6.56282
234 1 -1.1104 1.00352 7.32927 6.5236
173 1 -1.1104 4.1268 1.59776 6.77531
167 1 -1.1104 1.27439 1.84344 6.65037
238 1 -1.1104 3.88936 7.35701 6.60105
237 1 -1.1104 6.66837 4.59942 6.66234
320 2 2.2208 7.84454 17.0939 7.9371
9 1 -1.1104 6.69674 1.95135 3.71824
57 1 -1.1104 6.3856 7.57151 0.791833
59 1 -1.1104 6.79134 7.44524 3.70845
5 1 -1.1104 6.70814 1.73882 0.878555
63 1 -1.1104 6.63774 4.67529 1.07785
33 1 -1.1104 12.1913 1.87593 0.882123
35 1 -1.1104 12.1983 1.70009 3.58204
38 2 2.2208 10.7696 3.05543 2.37126
41 1 -1.1104 9.43049 1.63719 0.77375
44 1 -1.1104 9.23395 1.47943 3.82703
46 2 2.2208 8.04719 3.24569 5.1233
84 2 2.2208 10.833 6.03758 5.04071
88 1 -1.1104 12.0153 4.58116 1.02262
92 1 -1.1104 12.1105 4.51645 3.81537
95 2 2.2208 8.16446 6.00267 2.284
99 1 -1.1104 9.15801 4.44005 0.887712
102 1 -1.1104 9.25109 4.40463 3.56982
97 1 -1.1104 9.44456 7.30853 3.79807
86 1 -1.1104 12.15 7.48957 0.876135
87 1 -1.1104 12.0499 7.3462 3.76043
94 1 -1.1104 9.29219 7.41556 0.897178
206 1 -1.1104 12.3238 1.81323 6.54972
169 1 -1.1104 6.78976 1.83463 6.66648
266 1 -1.1104 12.1909 4.70382 6.61038
235 1 -1.1104 6.73848 7.34821 6.2867
209 1 -1.1104 9.57942 1.69772 6.54795
265 1 -1.1104 12.2078 7.48933 6.51934
55 2 2.2208 5.23291 11.7114 4.88874
61 1 -1.1104 0.913829 10.2848 0.815144
66 2 2.2208 5.04968 8.69157 2.44638
68 1 -1.1104 0.958195 10.2968 3.79082
73 2 2.2208 2.11826 11.6333 2.2439
75 2 2.2208 2.31668 8.86339 5.30274
77 1 -1.1104 3.53433 10.1798 0.878861
80 1 -1.1104 3.93208 10.3818 3.6053
107 1 -1.1104 1.09541 13.1843 0.953141
113 1 -1.1104 0.751068 13.0025 3.77488
123 1 -1.1104 4.08797 12.9418 0.61544
128 1 -1.1104 3.69395 13.1514 3.69195
105 2 2.2208 13.5482 6.02264 2.21796
124 1 -1.1104 3.74111 13.1651 6.45891
111 1 -1.1104 6.52641 12.8886 6.5383
78 1 -1.1104 3.93325 10.2409 6.51968
108 1 -1.1104 0.926379 12.9435 6.63804
62 1 -1.1104 1.08245 10.3708 6.4867
104 2 2.2208 13.5674 11.6754 2.2174
115 1 -1.1104 6.53792 13.2149 3.63357
110 1 -1.1104 7.05323 13.0574 0.832853
70 1 -1.1104 6.88755 10.217 3.50129
64 1 -1.1104 6.50146 10.2838 0.732918
85 2 2.2208 10.8039 11.7833 5.20671
89 1 -1.1104 12.5082 10.1687 0.79275
91 2 2.2208 10.9015 8.88544 2.30822
93 1 -1.1104 12.2005 10.2912 3.80443
96 2 2.2208 8.06164 11.458 2.1741
98 2 2.2208 8.0972 8.87974 5.13765
100 1 -1.1104 9.58007 10.3495 0.958308
103 1 -1.1104 9.58388 10.3286 3.96814
142 1 -1.1104 12.1827 12.8943 0.796817
146 1 -1.1104 12.2291 13.0371 3.75624
153 1 -1.1104 9.60672 12.9943 0.790337
158 1 -1.1104 9.30601 12.9997 3.58628
65 1 -1.1104 6.56031 10.3178 6.22844
143 1 -1.1104 12.2783 12.9536 6.5425
90 1 -1.1104 12.1788 10.16 6.62476
101 1 -1.1104 9.50429 10.2131 6.58421
82 2 2.2208 -0.338315 8.80791 2.3694
9012 2 2.2208 -0.359858 -5.16992 5.17042
9010 2 2.2208 2.40849 -5.20999 2.33708
437 2 2.2208 10.8698 3.17961 13.6061
119 2 2.2208 5.20619 14.3372 2.2135
130 2 2.2208 2.22586 14.4967 5.2224
106 2 2.2208 5.02956 17.2909 4.85203
109 1 -1.1104 0.982363 18.6352 0.843665
114 1 -1.1104 0.884339 18.8647 3.67751
116 1 -1.1104 0.746576 15.941 0.758303
120 2 2.2208 5.20792 20.0966 2.20558
121 1 -1.1104 0.846966 15.7039 3.72805
125 1 -1.1104 3.71781 18.5275 0.748712
127 2 2.2208 2.25489 17.2242 2.22858
129 1 -1.1104 3.59651 18.8528 3.38211
131 2 2.2208 2.2335 20.1861 5.08879
132 1 -1.1104 3.89251 15.6419 0.85866
134 1 -1.1104 3.47326 16.0328 3.917
117 1 -1.1104 0.808582 15.8747 6.54563
133 1 -1.1104 3.7234 15.8319 6.62054
317 2 2.2208 8.32076 14.5815 10.9912
302 1 -1.1104 0.854912 18.7654 6.38623
9469 2 2.2208 -0.160195 0.25217 10.8671
358 2 2.2208 10.6409 5.96206 -0.456264
331 2 2.2208 5.27406 8.78767 13.6318
9470 2 2.2208 -0.252088 3.1795 8.0561
160 2 2.2208 8.06092 14.1929 5.07862
122 1 -1.1104 6.36332 15.9472 3.43338
138 1 -1.1104 6.70959 18.6202 0.946092
140 1 -1.1104 6.70915 15.8394 0.870985
139 1 -1.1104 6.49359 18.8312 3.678
150 2 2.2208 10.7874 14.2692 2.36515
141 2 2.2208 10.9085 17.3059 5.02468
144 1 -1.1104 12.1763 18.7407 0.928244
147 1 -1.1104 12.1395 18.8433 3.69786
148 1 -1.1104 12.1133 15.9965 1.12791
151 2 2.2208 10.7706 19.9874 2.26529
152 1 -1.1104 12.35 15.8435 3.79882
155 1 -1.1104 9.37516 18.5287 0.781437
157 2 2.2208 8.00077 17.2642 2.25162
159 1 -1.1104 9.3497 18.7819 3.77965
161 2 2.2208 7.91078 20.0251 5.0804
162 1 -1.1104 9.36183 15.7335 0.960126
164 1 -1.1104 9.42493 15.93 3.74983
163 1 -1.1104 9.32263 15.8498 6.68033
149 1 -1.1104 12.0917 15.6727 6.57414
29 2 2.2208 -0.44106 8.99962 8.11554
347 2 2.2208 -0.163175 8.71478 13.5953
25 2 2.2208 -0.397893 -2.48443 2.54281
562 2 2.2208 10.923 14.6049 13.6071
316 2 2.2208 8.00009 20.1676 10.6078
323 1 -1.1104 12.3485 15.8563 9.37109
230 1 -1.1104 12.1469 18.6356 12.2593
145 1 -1.1104 12.3556 18.6483 6.59614
326 2 2.2208 -0.408143 14.5096 13.5633
166 1 -1.1104 1.26427 -3.89809 6.60918
175 2 2.2208 5.25804 0.0859607 10.7346
176 1 -1.1104 1.02026 -4.0527 12.3551
180 1 -1.1104 1.05074 -3.7976 9.65584
184 1 -1.1104 1.27782 -1.36386 12.2544
186 2 2.2208 5.3679 -2.63807 7.97381
188 1 -1.1104 1.18756 -1.05913 9.46144
190 1 -1.1104 3.97232 -4.26393 12.2452
192 2 2.2208 2.57261 0.26571 7.82455
193 1 -1.1104 4.184 -4.1814 9.13751
195 2 2.2208 2.54889 -2.53552 10.8468
197 1 -1.1104 3.85147 -1.29206 12.2356
198 1 -1.1104 4.05302 -1.38472 9.53341
182 1 -1.1104 6.85675 -4.09935 9.65419
118 1 -1.1104 6.42214 15.7595 6.44633
210 1 -1.1104 9.7908 -1.05997 6.91764
9653 2 2.2208 13.486 6.09071 7.82765
168 1 -1.1104 6.62586 -3.7938 6.5154
185 1 -1.1104 6.59471 -1.08716 12.162
189 1 -1.1104 6.85211 -1.42034 9.1794
178 1 -1.1104 6.78038 -3.73873 12.3885
211 2 2.2208 10.9228 0.340131 10.8025
212 1 -1.1104 12.1866 -4.01476 12.0666
214 1 -1.1104 12.7027 -3.64288 9.20003
216 1 -1.1104 12.3172 -1.32266 12.2788
217 2 2.2208 10.9649 -2.48895 8.0292
219 1 -1.1104 12.0626 -1.08352 9.3508
220 1 -1.1104 9.35847 -3.90225 12.2424
222 2 2.2208 8.17094 0.553816 7.83354
223 1 -1.1104 9.93473 -3.82614 9.49565
225 2 2.2208 8.17625 -2.51461 10.7578
227 1 -1.1104 9.32166 -1.05538 12.2627
228 1 -1.1104 9.36441 -0.709245 9.70042
9444 2 2.2208 13.5973 0.331518 7.91441
329 2 2.2208 8.05736 0.384737 13.4936
534 2 2.2208 2.40276 17.2218 13.5726
535 2 2.2208 5.25523 20.025 13.2442
321 1 -1.1104 9.47253 18.9644 11.8718
315 1 -1.1104 9.5786 16.0965 12.4541
177 1 -1.1104 1.00355 1.65004 12.1391
181 1 -1.1104 0.975778 1.80586 9.3911
187 2 2.2208 5.2217 3.09379 7.881
191 1 -1.1104 3.70698 1.49048 12.335
194 1 -1.1104 3.86197 1.50603 9.42454
196 2 2.2208 2.2125 3.03015 10.7978
240 2 2.2208 5.36825 5.92371 10.6421
246 1 -1.1104 0.978968 4.39783 12.1556
251 1 -1.1104 1.15948 4.84953 9.51572
256 2 2.2208 2.39333 6.01919 7.93785
258 1 -1.1104 3.94898 7.42925 9.30336
260 1 -1.1104 3.64597 4.41839 11.9768
262 1 -1.1104 3.9922 4.56097 9.34077
242 1 -1.1104 1.02134 7.18618 12.0475
244 1 -1.1104 1.29558 7.46645 9.25423
255 1 -1.1104 3.89335 7.36931 12.249
179 1 -1.1104 6.54844 1.70854 12.3297
183 1 -1.1104 6.60159 1.52801 9.3602
327 2 2.2208 5.09956 2.99964 13.5765
269 1 -1.1104 9.43549 4.57853 6.55297
267 1 -1.1104 9.36273 7.44997 6.69898
200 2 2.2208 -0.29376 -2.48061 8.01752
245 1 -1.1104 6.50926 7.24425 9.24206
253 1 -1.1104 6.73699 4.453 9.48963
248 1 -1.1104 6.65687 4.54586 12.2401
243 1 -1.1104 6.71457 7.2975 12.0038
213 1 -1.1104 12.3061 1.4866 12.2149
215 1 -1.1104 12.4 1.75965 9.46569
218 2 2.2208 10.8713 3.28211 7.97456
221 1 -1.1104 9.64619 1.7332 12.2559
224 1 -1.1104 9.54735 1.67904 9.27878
226 2 2.2208 7.95101 3.07899 10.8504
268 1 -1.1104 9.36605 4.49619 9.27835
271 1 -1.1104 9.4995 4.52181 12.2352
275 2 2.2208 7.97582 6.06371 7.90059
276 2 2.2208 10.7518 5.80531 10.7353
278 1 -1.1104 12.3277 7.16314 12.3282
280 1 -1.1104 12.3919 4.42559 12.2304
283 1 -1.1104 12.3879 4.62327 9.26774
285 1 -1.1104 9.60338 7.24905 12.0526
279 1 -1.1104 12.2485 7.58534 9.35306
81 2 2.2208 -0.358946 6.00771 5.20367
306 1 -1.1104 6.71321 15.7332 12.3048
232 1 -1.1104 12.3219 16.0047 12.1926
318 1 -1.1104 9.41451 18.685 9.09434
241 2 2.2208 5.40625 11.5911 11.1119
247 1 -1.1104 1.25631 10.2253 12.0143
250 2 2.2208 5.29491 8.9482 7.89469
252 1 -1.1104 1.04893 10.3188 9.26586
257 2 2.2208 2.39138 11.6845 7.97391
259 2 2.2208 2.49413 8.87399 10.695
261 1 -1.1104 3.84932 10.2834 12.266
263 1 -1.1104 3.69049 10.3093 9.48431
287 1 -1.1104 4.14467 12.9425 12.5094
294 1 -1.1104 0.975099 13.2119 9.50444
299 1 -1.1104 0.955088 13.1553 12.1411
305 1 -1.1104 3.79874 13.2008 9.48763
290 1 -1.1104 6.65641 13.0764 9.22169
254 1 -1.1104 6.70132 9.96418 9.346
156 1 -1.1104 9.67547 18.6609 6.36515
314 1 -1.1104 9.50404 15.9395 9.67764
273 1 -1.1104 9.44296 7.2615 9.45792
154 1 -1.1104 9.41163 13.1209 6.65383
297 1 -1.1104 6.90063 13.0658 11.9991
249 1 -1.1104 6.64717 10.0871 12.246
322 1 -1.1104 9.62376 13.0428 12.2815
319 1 -1.1104 9.47436 13.1993 9.49026
229 1 -1.1104 12.2365 13.1127 12.0792
204 1 -1.1104 12.1784 13.065 9.22541
264 1 -1.1104 9.79145 10.3951 9.24731
270 1 -1.1104 9.55511 10.2375 12.1867
272 2 2.2208 8.05731 8.66323 10.6801
274 2 2.2208 8.05991 11.649 8.01853
277 2 2.2208 11.0001 11.6664 10.7264
281 1 -1.1104 12.4809 10.1008 12.2066
282 2 2.2208 10.8757 8.77738 7.98454
284 1 -1.1104 12.3843 10.2975 9.4145
9028 2 2.2208 5.39378 -5.12844 -0.472799
9020 2 2.2208 10.7996 -5.25901 10.7299
126 1 -1.1104 3.69292 18.5773 6.49079
112 1 -1.1104 6.55941 18.4094 6.49548
9672 2 2.2208 -0.310602 5.91874 10.7244
310 2 2.2208 2.37432 14.7098 10.7453
295 2 2.2208 5.27244 14.4299 8.09397
309 2 2.2208 2.34912 20.254 10.6133
286 1 -1.1104 3.85089 18.4874 12.0184
291 1 -1.1104 0.936085 18.8197 9.34024
292 1 -1.1104 0.950181 15.8519 9.38869
293 2 2.2208 5.2586 20.293 7.88874
298 1 -1.1104 0.710762 18.7341 12.2075
300 2 2.2208 5.09051 17.2454 10.6973
301 1 -1.1104 3.79087 18.8844 9.17025
303 2 2.2208 2.43565 17.3347 7.90248
304 1 -1.1104 3.8211 16.1618 9.36344
307 1 -1.1104 0.969331 16.0018 12.1946
308 1 -1.1104 3.7301 15.7097 12.3407
288 1 -1.1104 6.54036 18.7161 9.34942
289 1 -1.1104 6.79862 15.8032 9.51519
337 2 2.2208 8.21816 17.3008 13.6825
296 1 -1.1104 6.74852 18.6392 12.0663
201 2 2.2208 10.8794 17.468 10.7817
324 2 2.2208 10.9451 20.0925 7.96602
233 2 2.2208 10.8272 14.4845 7.95509
9305 2 2.2208 8.21725 -5.17263 13.6047
332 2 2.2208 2.34186 11.8117 13.4374
27 2 2.2208 -0.391445 3.27593 2.29757
9011 2 2.2208 5.15519 -5.23545 5.10305
436 2 2.2208 10.7888 -2.60146 13.6022
137 2 2.2208 -0.469554 17.2402 5.28372
348 2 2.2208 11.0033 17.1955 -0.424913
202 2 2.2208 13.5784 20.2036 5.16072
9602 2 2.2208 13.4844 0.341208 2.41331
9029 2 2.2208 -0.29778 -5.24865 -0.394654
49 2 2.2208 13.6115 14.6917 10.8934
357 2 2.2208 -0.359826 6.06308 -0.345329
336 2 2.2208 10.7102 19.9466 13.5933
340 2 2.2208 2.22422 -2.48656 -0.357947
339 2 2.2208 5.23477 0.298062 -0.327505
333 2 2.2208 8.08835 5.84752 13.449
335 2 2.2208 8.2008 11.6105 13.5956
362 2 2.2208 5.12681 0.229971 16.5435
363 1 -1.1104 1.03503 -3.92822 18.0369
367 1 -1.1104 1.34782 -3.91362 15.1021
375 1 -1.1104 0.959328 -1.22572 17.8959
377 2 2.2208 5.29478 -2.60901 19.4556
379 1 -1.1104 1.02202 -1.26971 15.0089
383 1 -1.1104 3.72842 -4.11798 18.1195
385 2 2.2208 2.37765 0.383721 19.4223
386 1 -1.1104 3.95238 -3.69548 15.1719
390 2 2.2208 2.51798 -2.65915 16.6019
392 1 -1.1104 3.86152 -1.05646 18.1984
393 1 -1.1104 3.85283 -1.08162 15.1632
349 2 2.2208 8.06279 20.2063 27.6278
380 1 -1.1104 1.04739 -1.23182 20.4728
381 1 -1.1104 6.80029 -1.23074 15.0286
9330 2 2.2208 5.35825 -5.32293 16.5604
9787 2 2.2208 -0.474887 0.0791686 16.5554
9333 2 2.2208 -0.347026 -5.36013 16.7264
681 1 -1.1104 6.73777 18.849 23.4692
368 1 -1.1104 0.808753 -3.75074 20.754
394 1 -1.1104 4.02271 -1.18869 20.912
371 1 -1.1104 6.80632 -3.79931 15.1496
376 1 -1.1104 6.48241 -1.45082 17.974
365 1 -1.1104 6.78719 -4.05909 18.1301
405 2 2.2208 10.9454 0.235894 16.4517
406 1 -1.1104 12.3742 -3.92999 17.885
408 1 -1.1104 12.1211 -3.8638 15.1481
412 1 -1.1104 12.2347 -1.02412 17.8474
413 2 2.2208 10.7525 -2.60183 19.4995
415 1 -1.1104 12.4353 -1.08202 15.1823
417 1 -1.1104 9.55148 -4.08819 17.8873
419 2 2.2208 8.11047 0.180275 19.3452
420 1 -1.1104 9.48605 -4.03802 15.0113
424 2 2.2208 8.15861 -2.52685 16.412
426 1 -1.1104 9.27827 -1.38478 18.078
427 1 -1.1104 9.62477 -1.25109 14.9504
428 1 -1.1104 9.55354 -1.15479 20.8043
409 1 -1.1104 12.2576 -3.85033 20.6998
500 2 2.2208 7.84466 20.2151 21.9284
421 1 -1.1104 9.31283 -3.95231 20.7371
372 1 -1.1104 6.5764 -3.86442 21.0028
9303 2 2.2208 4.95424 -5.27473 22.2204
364 1 -1.1104 1.01454 1.62178 17.9371
369 1 -1.1104 0.86237 1.39928 14.9551
378 2 2.2208 5.1893 3.01506 19.2531
384 1 -1.1104 3.56623 1.64461 17.9057
388 1 -1.1104 3.92418 1.63959 15.0634
391 2 2.2208 2.21834 3.14897 16.3211
438 2 2.2208 5.11867 5.9921 16.4395
446 1 -1.1104 1.12993 4.47581 17.8595
451 1 -1.1104 1.04724 4.59507 14.9178
460 2 2.2208 2.44355 5.99203 19.3529
465 1 -1.1104 3.93094 4.5246 17.9473
467 1 -1.1104 3.7066 4.27044 15.0566
459 1 -1.1104 3.87934 7.6391 18.0264
462 1 -1.1104 4.18276 7.46311 15.0826
440 1 -1.1104 1.09807 7.38573 17.815
442 1 -1.1104 1.27789 7.56785 14.7594
452 1 -1.1104 0.918837 4.7459 20.7103
443 1 -1.1104 0.914393 7.40396 20.5499
468 1 -1.1104 3.75119 4.40537 20.5826
9277 2 2.2208 10.9531 -5.38614 21.9701
456 1 -1.1104 6.51205 4.73767 20.4554
463 1 -1.1104 3.60243 7.51922 20.6368
370 1 -1.1104 1.01073 1.77188 20.8276
373 1 -1.1104 6.52488 1.66171 15.0564
455 1 -1.1104 6.39911 4.54782 14.9781
441 1 -1.1104 6.50034 7.17026 17.7498
448 1 -1.1104 6.70355 4.1396 17.7681
366 1 -1.1104 6.61415 1.28107 17.9374
444 1 -1.1104 6.85047 7.56823 14.9584
407 1 -1.1104 12.3511 1.83279 17.8344
410 1 -1.1104 12.3639 1.6663 15.0442
414 2 2.2208 10.8242 3.35463 19.0589
418 1 -1.1104 9.30082 1.32896 17.4302
422 1 -1.1104 9.33988 1.67684 14.9583
425 2 2.2208 8.08348 2.92818 16.3039
474 2 2.2208 10.8505 6.11712 16.4302
477 1 -1.1104 12.2085 7.43341 15.0581
479 1 -1.1104 12.2393 4.66032 17.8853
482 1 -1.1104 12.1585 4.4817 14.9852
487 2 2.2208 8.03 5.8779 19.2533
492 1 -1.1104 9.34316 4.79755 17.8725
494 1 -1.1104 9.35829 4.32388 14.9896
476 1 -1.1104 12.4623 7.55297 18.1046
486 1 -1.1104 9.46671 7.37722 17.8014
489 1 -1.1104 9.63525 7.29995 14.7871
483 1 -1.1104 12.3042 4.66578 20.7495
445 1 -1.1104 6.52101 7.47649 20.7422
374 1 -1.1104 6.47496 1.81797 20.7123
490 1 -1.1104 9.46699 7.23582 20.5283
495 1 -1.1104 9.57191 4.55382 20.6491
411 1 -1.1104 12.2059 1.98054 20.4394
478 1 -1.1104 12.2245 7.58587 20.6289
9995 2 2.2208 13.6078 3.18764 22.0216
439 2 2.2208 5.22238 11.5273 16.626
447 1 -1.1104 1.03421 9.97611 17.7132
450 2 2.2208 5.11974 8.9658 19.3777
453 1 -1.1104 0.997394 10.3306 15.0042
461 2 2.2208 2.45069 11.5866 19.2847
464 2 2.2208 2.53736 8.91833 16.3048
466 1 -1.1104 3.66532 10.1992 17.8197
469 1 -1.1104 3.77683 10.2188 15.0342
502 1 -1.1104 1.30015 12.6005 17.6793
506 1 -1.1104 0.964815 13.0752 14.9026
522 1 -1.1104 3.88162 12.9511 18.0436
525 1 -1.1104 3.8776 13.2369 15.1805
507 1 -1.1104 0.92858 13.2037 20.625
454 1 -1.1104 0.964557 10.3436 20.306
360 2 2.2208 10.8609 11.3426 27.6269
470 1 -1.1104 3.66915 10.2483 20.9577
504 1 -1.1104 6.60607 12.9974 17.9656
457 1 -1.1104 6.79316 10.2268 15.1301
449 1 -1.1104 6.42698 10.0895 18.0232
510 1 -1.1104 6.6217 12.8547 15.0193
475 2 2.2208 10.7971 11.6201 16.3474
480 1 -1.1104 12.0897 10.4501 17.6411
481 2 2.2208 10.8504 8.86241 19.15
484 1 -1.1104 12.321 10.3341 14.9361
488 2 2.2208 7.96624 11.5733 19.3126
491 2 2.2208 8.0905 8.85662 16.4621
493 1 -1.1104 9.39462 10.2935 17.7891
496 1 -1.1104 9.63004 10.3138 15.0001
538 1 -1.1104 12.401 13.2136 17.7357
540 1 -1.1104 12.4529 13.1011 14.7867
549 1 -1.1104 9.57611 13.0416 17.8848
552 1 -1.1104 9.42157 13.0358 14.9648
458 1 -1.1104 6.35383 10.348 20.6263
541 1 -1.1104 12.3132 12.9657 20.589
485 1 -1.1104 12.468 10.3118 20.3916
623 2 2.2208 -0.254459 11.5868 16.3314
361 2 2.2208 13.6679 8.68151 27.6035
516 2 2.2208 5.17249 14.4328 19.2953
529 2 2.2208 2.41345 14.4436 16.4272
501 2 2.2208 5.38151 17.3773 16.3959
503 1 -1.1104 1.11902 18.7866 17.6576
508 1 -1.1104 1.19846 18.8325 14.7985
514 1 -1.1104 0.98179 15.9491 17.7373
517 2 2.2208 5.17767 20.1588 18.9156
518 1 -1.1104 1.10433 15.7659 14.955
523 1 -1.1104 3.82057 18.5126 17.7091
524 2 2.2208 2.38992 17.265 19.2605
527 1 -1.1104 3.86685 18.7646 14.7864
530 2 2.2208 2.45833 20.1301 16.1081
531 1 -1.1104 3.88347 15.7546 18.0576
532 1 -1.1104 3.91877 16.1285 15.1337
509 1 -1.1104 1.26695 18.7893 20.6619
512 1 -1.1104 6.69461 18.673 14.9743
528 1 -1.1104 3.8528 18.8483 20.7169
519 1 -1.1104 1.00306 16.0084 20.7271
533 1 -1.1104 3.7515 15.9912 20.7614
403 2 2.2208 2.38066 0.0621816 13.7237
9904 2 2.2208 -0.369289 5.8233 16.4211
359 2 2.2208 7.90813 8.78234 27.5739
351 2 2.2208 8.26252 -2.50414 27.5621
556 2 2.2208 8.05655 14.532 16.3642
545 2 2.2208 11.0015 14.4492 19.3404
543 1 -1.1104 11.9281 18.719 20.7254
515 1 -1.1104 6.68955 15.9297 17.7646
520 1 -1.1104 6.87205 15.6779 14.9873
505 1 -1.1104 6.68366 18.8339 17.7773
537 2 2.2208 10.9219 17.162 16.5476
539 1 -1.1104 12.2481 18.6706 17.9553
542 1 -1.1104 12.2216 18.4627 15.0736
544 1 -1.1104 12.278 15.8284 17.9099
546 2 2.2208 10.6931 20.0871 19.239
547 1 -1.1104 12.3991 15.9075 15.0068
550 1 -1.1104 9.2652 18.575 17.7723
551 2 2.2208 8.14507 17.1307 19.3346
554 1 -1.1104 9.553 18.5842 15.0926
557 2 2.2208 8.07059 20.054 16.5521
558 1 -1.1104 9.50067 15.5855 17.8355
559 1 -1.1104 9.41493 15.7956 14.9909
555 1 -1.1104 9.28058 18.8188 20.6269
560 1 -1.1104 9.63699 16.0252 20.5097
548 1 -1.1104 12.2343 15.8071 20.778
352 2 2.2208 7.96188 3.13846 27.6182
325 2 2.2208 13.5411 14.3261 27.7547
9328 2 2.2208 2.51178 -5.2905 13.7429
435 1 -1.1104 9.44396 18.692 23.5886
387 1 -1.1104 3.63169 -3.75311 20.8438
354 2 2.2208 2.29055 8.64422 27.7683
565 2 2.2208 5.23129 0.337861 22.0208
566 1 -1.1104 0.794814 -4.05991 23.5171
570 1 -1.1104 0.969911 -3.82085 26.4378
574 1 -1.1104 0.992273 -1.04787 23.5383
576 2 2.2208 5.37049 -2.4579 24.9698
578 1 -1.1104 0.997076 -1.37731 26.4266
580 1 -1.1104 3.57156 -4.03915 23.5665
582 2 2.2208 2.40054 0.273531 24.9381
583 1 -1.1104 3.86332 -3.90487 26.5144
585 2 2.2208 2.32649 -2.47312 22.1938
587 1 -1.1104 3.83131 -1.10653 23.7619
588 1 -1.1104 3.63511 -0.910172 26.4431
575 1 -1.1104 6.70992 -1.08871 23.6059
355 2 2.2208 5.18932 11.5096 27.5762
416 1 -1.1104 12.3729 -0.99863 20.46
345 2 2.2208 2.34176 19.9683 27.739
353 2 2.2208 5.20983 6.00715 27.6953
382 1 -1.1104 6.75918 -1.0688 20.8397
568 1 -1.1104 6.62083 -3.99056 23.6439
579 1 -1.1104 6.73745 -1.12423 26.3452
572 1 -1.1104 6.66159 -3.95579 26.1382
601 2 2.2208 10.8681 0.398053 21.9733
602 1 -1.1104 12.3515 -3.72172 23.3329
604 1 -1.1104 12.1991 -4.13197 26.2517
606 1 -1.1104 12.4623 -0.879943 23.1827
607 2 2.2208 11.0111 -2.50766 24.8121
609 1 -1.1104 12.4467 -1.111 26.2994
610 1 -1.1104 9.42355 -3.85376 23.4366
612 2 2.2208 8.03655 0.223839 24.8896
613 1 -1.1104 9.34779 -4.14473 26.1784
615 2 2.2208 8.01788 -2.52889 22.1559
617 1 -1.1104 9.1962 -1.18018 23.6485
618 1 -1.1104 9.67009 -1.32878 26.2744
9828 2 2.2208 13.6609 -2.18689 21.8228
9978 2 2.2208 -0.398124 0.395897 22.4379
344 2 2.2208 5.29731 17.3074 27.7037
9276 2 2.2208 8.11582 -5.3433 24.7223
389 1 -1.1104 3.74113 1.61053 20.7218
567 1 -1.1104 0.971075 1.66909 23.6535
571 1 -1.1104 0.77554 1.75043 26.2114
577 2 2.2208 5.09344 2.98097 24.8765
581 1 -1.1104 3.69901 1.77145 23.5667
584 1 -1.1104 3.70259 1.86689 26.4365
586 2 2.2208 2.16221 3.14861 22.1821
630 2 2.2208 5.04307 5.90246 22.0512
636 1 -1.1104 0.993023 4.57086 23.6896
641 1 -1.1104 0.948073 4.46065 26.2502
646 2 2.2208 2.31423 6.03427 24.9595
650 1 -1.1104 3.8207 4.45509 23.3144
652 1 -1.1104 3.68096 4.50731 26.2619
648 1 -1.1104 3.75028 7.35942 26.4404
634 1 -1.1104 0.943539 7.28037 26.3943
645 1 -1.1104 3.57113 7.49528 23.3806
632 1 -1.1104 0.865257 7.39244 23.6044
573 1 -1.1104 6.37028 1.48904 26.2514
627 1 -1.1104 12.4922 18.7908 26.4335
423 1 -1.1104 9.47227 1.71514 20.5281
563 1 -1.1104 9.35516 15.7492 26.0067
638 1 -1.1104 6.65854 4.60677 23.3164
643 1 -1.1104 6.47653 4.45664 26.3017
569 1 -1.1104 6.74572 1.60938 23.5867
635 1 -1.1104 6.39287 7.48575 26.3211
633 1 -1.1104 6.35666 7.33775 23.4566
603 1 -1.1104 12.362 1.77735 23.5732
605 1 -1.1104 12.15 1.62045 26.3137
608 2 2.2208 10.8392 3.08378 25.0003
611 1 -1.1104 9.52611 1.66333 23.4698
614 1 -1.1104 9.22464 1.52774 26.3464
616 2 2.2208 8.19092 3.06421 22.1627
662 1 -1.1104 9.374 4.70384 26.1681
664 1 -1.1104 9.46867 4.43195 23.6319
668 2 2.2208 7.97923 5.965 24.7494
669 2 2.2208 10.982 5.95751 21.9541
673 1 -1.1104 12.2257 4.54007 23.5582
676 1 -1.1104 12.2221 4.55509 26.4721
672 1 -1.1104 12.1848 7.38626 26.3894
671 1 -1.1104 12.037 7.32185 23.5526
678 1 -1.1104 9.45946 7.33118 23.4611
666 1 -1.1104 9.20851 7.31462 26.333
9753 2 2.2208 -0.252885 -2.56405 13.7263
10010 2 2.2208 -0.445378 -2.48145 19.3624
629 2 2.2208 10.7539 14.3311 24.9171
526 1 -1.1104 3.52902 13.0531 20.6575
631 2 2.2208 5.32043 11.5164 22.1694
637 1 -1.1104 0.701527 10.1249 23.2114
640 2 2.2208 5.03569 8.82793 24.7949
642 1 -1.1104 0.769784 10.0585 25.8868
647 2 2.2208 2.25028 11.6234 24.931
649 2 2.2208 2.27136 8.83063 22.1629
651 1 -1.1104 3.76855 10.059 23.492
653 1 -1.1104 3.72456 10.0187 26.4074
619 1 -1.1104 3.90147 12.8808 26.1272
656 1 -1.1104 0.920375 12.9761 23.494
683 1 -1.1104 0.92599 12.9356 26.4808
687 1 -1.1104 3.80488 13.0379 23.47
9831 2 2.2208 -0.363851 2.90789 19.2976
511 1 -1.1104 6.68041 13.0973 20.6595
521 1 -1.1104 6.56569 15.6095 20.8468
9730 2 2.2208 13.6149 3.09733 27.6334
553 1 -1.1104 9.46462 13.0447 20.73
497 1 -1.1104 9.42207 10.1658 20.5599
644 1 -1.1104 6.47831 10.3869 26.1466
660 1 -1.1104 6.73079 12.7045 23.3735
686 1 -1.1104 6.64934 13.2575 26.0721
639 1 -1.1104 6.76253 10.2059 23.5651
626 1 -1.1104 12.3525 12.9259 26.2567
661 1 -1.1104 9.31689 10.155 26.1834
663 1 -1.1104 9.65413 10.2256 23.514
665 2 2.2208 8.00032 8.70514 21.9713
667 2 2.2208 8.13034 11.5634 24.7842
670 2 2.2208 11.0348 11.5586 21.8993
674 1 -1.1104 12.252 10.1429 23.4347
675 2 2.2208 10.7561 8.68477 24.8945
677 1 -1.1104 12.2275 9.87895 26.2463
600 1 -1.1104 12.057 13.0301 23.4566
429 1 -1.1104 9.51356 13.1376 23.6013
473 1 -1.1104 9.64152 12.7742 26.3212
350 2 2.2208 10.8973 0.346334 27.7037
396 2 2.2208 13.5363 8.80707 21.9465
10005 2 2.2208 13.6109 -2.52648 16.4558
679 2 2.2208 5.28605 14.4791 24.8073
591 2 2.2208 2.49957 14.4596 22.3363
655 2 2.2208 5.1796 17.3901 22.1059
654 1 -1.1104 3.79815 18.8396 26.2882
685 1 -1.1104 3.98858 18.7643 23.4088
680 2 2.2208 5.20662 20.18 24.9145
621 2 2.2208 2.74691 17.135 24.9535
690 1 -1.1104 1.09434 15.7159 26.2172
689 1 -1.1104 1.0239 18.6988 26.4606
657 1 -1.1104 1.05707 18.5403 23.8202
593 2 2.2208 2.60872 20.1692 21.9383
595 1 -1.1104 3.85866 15.8959 23.5169
597 1 -1.1104 0.938791 15.7408 23.3901
620 1 -1.1104 3.91821 15.7765 26.2612
472 1 -1.1104 6.45206 18.6874 26.3209
346 2 2.2208 8.23203 14.4265 27.692
561 1 -1.1104 9.55472 15.7156 23.4405
513 1 -1.1104 6.45252 18.3536 20.5238
684 2 2.2208 10.9079 20.1523 24.9395
599 2 2.2208 10.7436 17.2911 22.0557
628 1 -1.1104 12.6105 15.7702 23.6884
688 1 -1.1104 6.61788 15.9412 26.1837
499 2 2.2208 7.98681 14.375 22.14
498 1 -1.1104 9.39439 18.714 26.363
404 1 -1.1104 11.9671 15.6488 26.403
598 1 -1.1104 6.5155 15.9715 23.5584
471 2 2.2208 8.11732 17.3299 24.9083
622 1 -1.1104 12.2537 18.4305 23.6012
536 2 2.2208 5.29296 14.5435 13.6418
430 2 2.2208 -0.230191 17.3878 16.212
9327 2 2.2208 11.1641 -5.31798 16.5107
596 2 2.2208 -0.361429 8.6377 19.1018
343 2 2.2208 2.26918 14.4207 27.683
342 2 2.2208 2.3483 3.23435 27.7205
433 2 2.2208 13.6848 20.0517 21.8904
9278 2 2.2208 2.38693 -5.31121 25.1317
9786 2 2.2208 13.5055 5.81989 24.8392
432 2 2.2208 -0.132138 20.0958 19.2165
589 2 2.2208 -0.237703 20.0995 24.9314
17500 2 2.2208 13.7455 -5.22381 19.2431
399 2 2.2208 13.5798 17.2733 24.9099
592 2 2.2208 13.5412 17.1376 19.3472
334 2 2.2208 10.9052 8.76896 13.7215
9732 2 2.2208 13.6508 -2.61113 27.6771
691 2 2.2208 5.26518 22.7881 4.89475
693 1 -1.1104 0.742656 24.2691 0.724938
694 1 -1.1104 0.96051 24.1785 3.53541
695 1 -1.1104 0.83937 21.2953 0.881056
697 2 2.2208 5.17364 25.7715 2.19937
698 1 -1.1104 0.968438 21.5915 3.65612
700 1 -1.1104 3.55729 24.5043 0.834541
701 2 2.2208 2.17957 22.814 1.9843
703 1 -1.1104 3.61522 24.2943 3.57632
704 2 2.2208 2.15917 25.5524 4.89226
705 1 -1.1104 3.5849 21.4826 0.721856
707 1 -1.1104 3.80185 21.6815 3.32903
708 1 -1.1104 3.55019 27.0647 3.55956
838 1 -1.1104 3.69097 24.1542 6.3571
696 1 -1.1104 1.01491 27.0743 0.721927
699 1 -1.1104 0.829929 27.2542 3.44592
706 1 -1.1104 3.75126 27.2994 0.901378
836 1 -1.1104 6.54763 21.2701 6.38038
1008 2 2.2208 13.6878 36.9132 5.07239
709 2 2.2208 -0.325075 28.6494 4.98719
834 1 -1.1104 0.953474 21.5684 6.50368
989 2 2.2208 7.9596 45.6175 7.94442
833 1 -1.1104 6.50567 24.2665 6.32448
714 1 -1.1104 6.45185 21.4231 0.663285
713 1 -1.1104 6.59501 24.4607 3.7705
712 1 -1.1104 6.46952 24.5106 0.941704
716 1 -1.1104 6.60345 21.6092 3.48721
715 1 -1.1104 6.66315 27.3617 0.6786
718 2 2.2208 10.799 23.0664 5.08044
720 1 -1.1104 12.1297 24.4835 0.713303
721 1 -1.1104 12.2896 24.4686 3.72117
722 1 -1.1104 12.4416 21.577 0.874279
724 2 2.2208 10.7161 25.7407 2.28896
725 1 -1.1104 12.3387 21.5656 3.87147
727 1 -1.1104 9.34942 24.0412 0.811273
728 2 2.2208 8.02785 23.1327 2.30453
730 1 -1.1104 9.5805 24.3241 3.66672
731 2 2.2208 7.98683 25.8014 5.30047
732 1 -1.1104 9.25896 21.4137 1.13267
734 1 -1.1104 9.37334 21.5062 3.7687
723 1 -1.1104 12.2665 27.2204 0.814926
735 1 -1.1104 9.37975 27.1682 3.61296
733 1 -1.1104 9.39932 27.0545 0.894016
868 1 -1.1104 9.49286 24.39 6.37732
726 1 -1.1104 12.2736 27.1126 3.73944
865 1 -1.1104 12.2625 24.3359 6.6642
1018 2 2.2208 13.6302 37.1242 11.0207
810 2 2.2208 -0.43814 45.6764 5.0128
717 1 -1.1104 6.40698 27.0885 3.59637
968 1 -1.1104 6.88303 41.3447 9.42392
692 2 2.2208 4.92388 28.6079 5.07955
702 2 2.2208 2.3013 28.5271 2.20725
740 1 -1.1104 1.00745 29.9699 1.0468
743 1 -1.1104 0.926513 29.8988 3.76711
746 1 -1.1104 0.726151 32.732 1.27108
747 2 2.2208 5.19794 31.4976 2.45072
749 1 -1.1104 1.20303 33.068 4.15074
751 1 -1.1104 3.98359 30.0412 0.869642
754 1 -1.1104 3.90043 30.1946 3.89634
756 2 2.2208 2.36621 31.4676 5.20662
758 1 -1.1104 3.71947 32.9949 0.690175
759 1 -1.1104 3.73318 32.7971 3.60599
893 1 -1.1104 0.881521 32.7362 6.81149
991 1 -1.1104 9.58586 41.3596 12.1432
992 1 -1.1104 12.2024 44.2292 9.44154
889 1 -1.1104 1.09087 29.8979 6.46059
897 1 -1.1104 3.67765 33.0555 6.56759
980 2 2.2208 -0.279686 42.7721 7.97157
837 1 -1.1104 6.6353 27.1908 6.5337
763 1 -1.1104 6.74518 29.8808 0.652268
765 1 -1.1104 6.38605 32.691 0.880178
750 1 -1.1104 6.53374 32.7455 3.63279
764 1 -1.1104 6.68001 29.8369 3.57658
719 2 2.2208 10.8979 28.5139 5.11629
729 2 2.2208 7.97235 28.5128 2.17046
767 1 -1.1104 12.1218 30.1932 0.834794
769 1 -1.1104 12.4366 30.0638 3.71349
771 1 -1.1104 12.2069 32.9046 0.982884
772 2 2.2208 10.9469 31.4709 2.32279
774 1 -1.1104 12.2098 33.0097 3.69834
775 1 -1.1104 9.4798 30.2764 0.855657
778 1 -1.1104 9.6359 30.1089 3.57093
780 2 2.2208 7.95488 31.3104 5.0146
782 1 -1.1104 9.37658 32.9627 1.07177
783 1 -1.1104 9.39247 32.6902 3.67651
926 1 -1.1104 9.29249 30.064 6.46896
928 1 -1.1104 9.11945 32.8854 6.5117
894 1 -1.1104 6.44976 32.8061 6.12848
1221 2 2.2208 2.21995 39.9883 13.5207
982 2 2.2208 -0.440407 39.8904 10.8962
1024 2 2.2208 2.46363 28.7437 13.5556
739 2 2.2208 5.003 34.2939 5.08559
741 1 -1.1104 0.908789 35.529 0.903304