ITEM: TIMESTEP
30000
ITEM: NUMBER OF ATOMS
17730
ITEM: BOX BOUNDS pp pp pp
-4.3932738736888249e-01 2.7779327387369126e+01
-5.2969681317283763e+00 3.3337696813171891e+02
-4.3064583136629503e-01 2.7770645831366245e+01
ITEM: ATOMS id type q x y z
1 2 2.2208 5.34489 0.254197 5.30923
2 1 -1.1104 1.60764 -3.51251 1.08445
6 1 -1.1104 1.19056 -3.74373 3.85822
10 1 -1.1104 1.31466 -0.794028 1.08791
12 2 2.2208 5.60689 -2.29812 2.4897
14 1 -1.1104 1.12166 -0.808945 4.03116
16 1 -1.1104 4.15945 -3.65677 0.904675
18 2 2.2208 2.62385 0.438456 2.48154
19 1 -1.1104 3.93724 -3.95279 4.06933
21 2 2.2208 2.51793 -2.30795 5.20629
23 1 -1.1104 4.00192 -0.946994 0.914647
24 1 -1.1104 4.00688 -1.11728 3.96359
8 1 -1.1104 6.78773 -3.65962 3.95263
170 1 -1.1104 1.29991 -0.941422 6.87217
9020 2 2.2208 11.0381 -5.22407 10.9227
26 2 2.2208 -0.176467 0.625706 5.48598
9018 2 2.2208 -0.420091 -5.16028 10.9002
9011 2 2.2208 5.48317 -5.24771 5.14961
9013 2 2.2208 8.14116 -5.22139 2.3503
316 2 2.2208 7.91566 20.2808 10.8005
9010 2 2.2208 2.63912 -5.02317 2.38664
311 2 2.2208 -0.321079 20.3452 8.11187
9025 2 2.2208 11.1099 -5.13478 -0.190304
9019 2 2.2208 8.26488 -5.06908 8.04491
4 1 -1.1104 6.88674 -3.34133 1.13923
11 1 -1.1104 6.70909 -0.73939 1.0488
15 1 -1.1104 6.75983 -0.724423 3.75645
31 2 2.2208 11.071 0.777622 5.23504
32 1 -1.1104 12.4717 -3.64612 0.866285
34 1 -1.1104 12.3833 -3.83838 3.66235
36 1 -1.1104 12.4618 -0.820108 1.05715
37 2 2.2208 11.0777 -2.31297 2.3639
39 1 -1.1104 12.4395 -0.899873 3.81847
40 1 -1.1104 9.56043 -3.8042 0.947821
42 2 2.2208 8.3387 0.417995 2.38623
43 1 -1.1104 9.74789 -3.71874 3.86045
45 2 2.2208 8.24608 -2.25901 5.13704
47 1 -1.1104 9.72837 -0.933937 1.00018
48 1 -1.1104 9.77089 -0.968284 3.69285
137 2 2.2208 -0.400392 17.3491 5.16611
52 2 2.2208 13.7353 11.6139 7.92639
318 1 -1.1104 9.43613 18.948 9.35344
81 2 2.2208 -0.107799 6.24857 5.27413
3 1 -1.1104 0.882035 1.85868 1.17424
7 1 -1.1104 1.19053 2.02043 3.85829
13 2 2.2208 5.44027 3.4629 2.30914
17 1 -1.1104 4.1816 2.01734 0.945277
20 1 -1.1104 3.94166 1.66991 4.10794
22 2 2.2208 2.66637 3.37932 5.28093
54 2 2.2208 5.55015 6.14417 5.1508
56 1 -1.1104 1.3185 7.5685 1.00416
60 1 -1.1104 1.24484 4.85037 0.881109
67 1 -1.1104 1.03075 4.83155 3.76574
72 2 2.2208 2.54593 6.04188 2.31612
76 1 -1.1104 4.04769 4.72829 1.01935
79 1 -1.1104 4.0938 4.62457 3.81472
74 1 -1.1104 4.01713 7.46816 3.53537
58 1 -1.1104 1.28038 7.56447 3.84922
71 1 -1.1104 4.17004 7.68156 0.775507
239 1 -1.1104 4.04287 4.55856 6.50714
233 2 2.2208 11.0445 14.4867 7.97401
9017 2 2.2208 5.33277 -5.13367 10.8746
335 2 2.2208 8.18577 11.7291 13.616
5 1 -1.1104 6.76277 2.0286 0.987263
69 1 -1.1104 6.91792 4.73619 3.85871
63 1 -1.1104 6.9302 4.85027 1.02088
9 1 -1.1104 6.88282 2.13509 3.79559
59 1 -1.1104 6.87972 7.55939 3.97299
235 1 -1.1104 6.88581 7.49213 6.62351
57 1 -1.1104 6.89018 7.46014 0.959283
33 1 -1.1104 12.2948 1.90324 0.970682
35 1 -1.1104 12.5927 1.98058 3.61448
38 2 2.2208 11.0295 3.15039 2.26862
41 1 -1.1104 9.5271 1.92338 0.858575
44 1 -1.1104 9.74266 1.89583 3.91449
46 2 2.2208 8.22592 2.97543 5.15288
84 2 2.2208 11.0406 6.12812 5.18349
87 1 -1.1104 12.3452 7.4223 3.60474
88 1 -1.1104 12.4655 4.7372 0.8461
92 1 -1.1104 12.3251 4.84665 3.64976
94 1 -1.1104 9.76379 7.51092 0.880546
95 2 2.2208 8.43079 6.10245 2.37805
99 1 -1.1104 9.72424 4.75555 0.934408
102 1 -1.1104 9.60801 4.52537 3.84164
97 1 -1.1104 9.58724 7.34374 3.79126
86 1 -1.1104 12.5574 7.64367 0.873293
265 1 -1.1104 12.5144 7.50221 6.72995
27 2 2.2208 -0.148096 3.33389 2.39417
9021 2 2.2208 13.6638 -5.24551 8.17831
9745 2 2.2208 -0.237637 0.465236 -0.336441
344 2 2.2208 5.30498 17.3471 -0.349275
55 2 2.2208 5.36082 11.6476 5.11343
61 1 -1.1104 1.05694 10.4436 1.0646
66 2 2.2208 5.39891 8.95549 2.2604
68 1 -1.1104 1.23477 10.4763 3.93256
73 2 2.2208 2.49069 11.8647 2.18213
75 2 2.2208 2.49123 9.0727 5.0817
77 1 -1.1104 3.95263 10.2643 0.950423
80 1 -1.1104 3.79407 10.4448 3.83399
107 1 -1.1104 0.957046 13.0651 0.947338
113 1 -1.1104 1.06531 13.1479 3.58844
123 1 -1.1104 3.80025 13.1504 0.753045
128 1 -1.1104 3.71621 13.1272 3.56811
124 1 -1.1104 3.7682 13.3729 6.56469
333 2 2.2208 8.32324 5.99135 13.5824
70 1 -1.1104 6.60488 10.4179 3.73757
115 1 -1.1104 6.66614 13.2925 3.66059
64 1 -1.1104 6.77603 10.2936 0.922277
110 1 -1.1104 6.47574 12.9255 0.879806
85 2 2.2208 10.957 11.6921 5.26407
89 1 -1.1104 12.576 10.3755 1.00757
91 2 2.2208 11.0269 8.86947 2.33954
93 1 -1.1104 12.4114 10.2427 3.81616
96 2 2.2208 8.17219 11.7278 2.19793
98 2 2.2208 8.16897 8.92586 5.25192
100 1 -1.1104 9.65299 10.3299 0.896517
103 1 -1.1104 9.42981 10.2426 3.61564
142 1 -1.1104 12.6721 13.3095 0.960519
146 1 -1.1104 12.6232 13.1775 3.86684
153 1 -1.1104 9.74999 13.2013 1.0177
158 1 -1.1104 9.77898 13.1507 4.05442
9012 2 2.2208 -0.0887078 -5.16997 5.28823
65 1 -1.1104 6.55681 10.301 6.41108
101 1 -1.1104 9.50033 10.3146 6.48363
312 2 2.2208 -0.354861 17.2623 10.7814
357 2 2.2208 -0.110154 6.12543 -0.444035
119 2 2.2208 5.25562 14.5441 2.33776
130 2 2.2208 2.52764 14.8273 5.12157
106 2 2.2208 5.13703 17.4276 5.04637
109 1 -1.1104 0.879567 18.8986 0.722755
114 1 -1.1104 0.983247 19.0391 3.64801
116 1 -1.1104 1.07116 15.9668 1.03517
120 2 2.2208 5.17507 20.3739 2.6659
121 1 -1.1104 0.907927 16.1002 3.81642
125 1 -1.1104 3.88439 18.6291 1.07798
127 2 2.2208 2.45578 17.3348 2.38021
129 1 -1.1104 3.72136 18.9028 3.82059
131 2 2.2208 2.37104 20.3238 5.35759
132 1 -1.1104 3.87464 15.8815 1.03471
134 1 -1.1104 3.8337 15.9851 3.76235
29 2 2.2208 -0.3138 9.03083 8.15613
327 2 2.2208 5.49121 3.19474 13.5523
49 2 2.2208 13.7806 14.561 10.9211
334 2 2.2208 10.8867 8.85184 13.6022
139 1 -1.1104 6.61625 18.7671 3.66399
138 1 -1.1104 6.86927 18.825 0.999388
122 1 -1.1104 6.62585 15.9139 3.89123
140 1 -1.1104 6.64019 15.8607 0.944857
150 2 2.2208 11.0975 14.5867 2.45837
160 2 2.2208 8.17536 14.7036 5.14196
141 2 2.2208 11.0427 17.4559 5.35722
144 1 -1.1104 12.2727 18.5791 0.992289
147 1 -1.1104 12.3517 18.6352 3.83918
148 1 -1.1104 12.4039 15.8816 1.08382
151 2 2.2208 10.8942 20.0627 2.43824
152 1 -1.1104 12.279 15.9152 3.89841
155 1 -1.1104 9.53589 18.5761 1.04889
157 2 2.2208 8.09208 17.4124 2.4664
159 1 -1.1104 9.43932 18.867 3.75123
161 2 2.2208 8.07457 20.2446 5.18915
162 1 -1.1104 9.44669 15.9775 1.28353
164 1 -1.1104 9.62431 15.9712 3.95864
145 1 -1.1104 12.4597 18.9481 6.78257
156 1 -1.1104 9.46029 18.8147 6.55328
82 2 2.2208 -0.26369 9.00135 2.32246
329 2 2.2208 8.28798 0.38386 13.6461
9469 2 2.2208 -0.343694 0.606782 10.9036
174 1 -1.1104 3.93849 -1.08793 6.71596
172 1 -1.1104 4.10515 -3.91683 6.86998
166 1 -1.1104 1.30307 -3.64282 6.67113
175 2 2.2208 5.44464 0.3962 10.8482
176 1 -1.1104 1.00804 -3.78068 12.4462
180 1 -1.1104 1.13247 -3.78331 9.36455
184 1 -1.1104 1.03959 -0.70966 12.4063
186 2 2.2208 5.51308 -2.3167 8.21739
188 1 -1.1104 1.022 -0.891721 9.66553
190 1 -1.1104 3.82135 -3.76362 12.5507
192 2 2.2208 2.62186 0.277938 8.20628
193 1 -1.1104 3.8919 -3.84624 9.858
195 2 2.2208 2.45228 -2.43049 10.949
197 1 -1.1104 3.84063 -1.08044 12.219
198 1 -1.1104 3.97438 -1.11326 9.59676
25 2 2.2208 -0.181962 -2.29328 2.44093
9016 2 2.2208 2.5669 -5.31712 8.01707
30 2 2.2208 -0.347176 11.8756 10.8299
9470 2 2.2208 -0.0918465 3.35449 8.17634
168 1 -1.1104 6.85802 -3.88316 6.82073
171 1 -1.1104 6.81414 -1.11597 6.73587
207 1 -1.1104 12.5074 -0.72476 6.71453
205 1 -1.1104 12.576 -3.76724 6.60159
178 1 -1.1104 6.66583 -3.80331 12.5368
182 1 -1.1104 6.81606 -3.66907 9.63035
189 1 -1.1104 6.90724 -0.877084 9.5616
208 1 -1.1104 9.77698 -3.789 6.61894
210 1 -1.1104 9.77456 -0.891514 6.54421
185 1 -1.1104 6.5315 -1.12531 12.2121
211 2 2.2208 11.1231 0.499557 10.8312
212 1 -1.1104 12.692 -3.92172 12.2766
214 1 -1.1104 12.5209 -3.84896 9.49557
216 1 -1.1104 12.4937 -0.960886 12.4152
217 2 2.2208 10.9831 -2.49491 8.09491
219 1 -1.1104 12.18 -1.28062 9.71032
220 1 -1.1104 9.77678 -3.67376 12.0633
222 2 2.2208 8.32143 0.481618 7.98977
223 1 -1.1104 9.79853 -4.06447 9.37726
225 2 2.2208 8.1571 -2.36155 10.9715
227 1 -1.1104 9.43601 -0.751098 12.2014
228 1 -1.1104 9.62855 -1.01635 9.45927
135 2 2.2208 -0.400213 14.5922 2.49742
173 1 -1.1104 4.05542 1.72994 6.73643
167 1 -1.1104 1.3677 1.90878 6.70983
238 1 -1.1104 3.84395 7.57914 6.39163
9672 2 2.2208 -0.0145921 6.29141 11.0163
234 1 -1.1104 1.17094 7.44103 6.57372
236 1 -1.1104 1.21433 4.70695 6.6301
177 1 -1.1104 1.21492 2.09927 12.1646
181 1 -1.1104 0.98178 2.06302 9.61553
187 2 2.2208 5.39103 3.19849 7.96812
191 1 -1.1104 3.98776 1.8631 12.1801
194 1 -1.1104 3.76165 1.73638 9.47442
196 2 2.2208 2.5735 3.38581 10.7728
240 2 2.2208 5.40814 6.0039 10.6225
244 1 -1.1104 1.04612 7.88027 9.67513
246 1 -1.1104 1.23424 4.75948 12.2449
251 1 -1.1104 1.40745 5.01706 9.34578
255 1 -1.1104 3.97687 7.71171 12.1101
256 2 2.2208 2.60568 6.12372 7.88917
258 1 -1.1104 3.72615 7.72175 9.11168
260 1 -1.1104 3.9706 4.77125 12.1146
262 1 -1.1104 4.13311 4.60187 9.12877
242 1 -1.1104 1.30713 7.5577 12.351
243 1 -1.1104 6.81569 7.07892 12.1022
206 1 -1.1104 12.4494 2.06031 6.56385
237 1 -1.1104 6.8194 4.47964 6.4672
209 1 -1.1104 9.58593 1.84694 6.68163
267 1 -1.1104 9.88894 7.56274 6.61716
266 1 -1.1104 12.57 4.76498 6.42236
269 1 -1.1104 9.73832 4.56273 6.54678
169 1 -1.1104 7.0479 1.64983 6.65267
245 1 -1.1104 6.66065 7.48579 9.33896
248 1 -1.1104 6.56364 4.37334 11.8055
253 1 -1.1104 7.0302 4.52334 9.38165
179 1 -1.1104 7.04161 1.59044 12.186
183 1 -1.1104 6.81949 1.84763 9.43059
213 1 -1.1104 12.6266 1.91875 12.1024
215 1 -1.1104 12.3074 1.93235 9.28089
218 2 2.2208 10.932 3.36545 8.0158
221 1 -1.1104 9.68317 1.78038 12.5208
224 1 -1.1104 9.58247 1.7215 9.43845
226 2 2.2208 8.2596 2.98988 10.9578
268 1 -1.1104 9.62813 4.62763 9.55789
271 1 -1.1104 9.70188 4.62117 12.4092
273 1 -1.1104 9.59491 7.28134 9.31603
275 2 2.2208 8.13563 5.88671 8.07186
276 2 2.2208 11.0518 6.0027 10.7985
278 1 -1.1104 12.2899 7.50758 12.4858
280 1 -1.1104 12.3434 4.76705 12.4483
283 1 -1.1104 12.4877 4.76467 9.36001
285 1 -1.1104 9.52047 7.43086 11.9998
279 1 -1.1104 12.4646 7.61283 9.57959
232 1 -1.1104 12.4095 16.0416 12.184
78 1 -1.1104 3.62724 10.2309 6.66582
315 1 -1.1104 9.79429 16.1646 12.3073
62 1 -1.1104 0.940546 10.3878 6.89984
108 1 -1.1104 0.922074 13.2849 6.58824
323 1 -1.1104 12.4474 15.7783 9.40946
241 2 2.2208 5.34512 11.7496 10.7311
247 1 -1.1104 1.09803 10.2853 12.274
250 2 2.2208 5.1518 8.93165 7.81657
252 1 -1.1104 1.15787 10.5995 9.53706
257 2 2.2208 2.3497 11.8488 7.91641
259 2 2.2208 2.60339 8.98918 10.7821
261 1 -1.1104 4.08035 10.4842 12.006
263 1 -1.1104 4.05247 10.6303 9.05523
287 1 -1.1104 3.89938 13.2132 12.4301
294 1 -1.1104 0.856601 13.1074 9.37839
299 1 -1.1104 1.01554 13.0584 12.3156
305 1 -1.1104 3.88276 13.4007 9.51697
90 1 -1.1104 12.3723 10.2096 6.62189
143 1 -1.1104 12.206 13.0771 6.5868
111 1 -1.1104 6.50467 13.0671 6.48655
154 1 -1.1104 9.27275 13.2767 6.8237
254 1 -1.1104 6.73404 10.2358 9.30314
297 1 -1.1104 6.76362 13.0453 12.1494
249 1 -1.1104 6.66076 10.3602 12.3066
290 1 -1.1104 6.67209 13.2073 9.22278
322 1 -1.1104 9.65171 13.065 12.3343
319 1 -1.1104 9.6239 13.1569 9.45801
229 1 -1.1104 12.3453 13.1136 12.2393
204 1 -1.1104 12.3648 12.9283 9.35144
264 1 -1.1104 9.50551 10.2997 9.29674
270 1 -1.1104 9.55325 10.2231 12.2251
272 2 2.2208 8.31209 8.87642 10.6345
274 2 2.2208 8.07036 11.8125 7.91269
277 2 2.2208 11.0604 11.6898 10.7816
281 1 -1.1104 12.2412 10.3268 12.1545
282 2 2.2208 10.9237 9.02153 8.00504
284 1 -1.1104 12.3438 10.3318 9.39879
317 2 2.2208 7.97013 14.6065 10.8855
302 1 -1.1104 1.07296 19.1493 6.5087
118 1 -1.1104 7.04164 15.6866 6.94571
200 2 2.2208 -0.293491 -2.35739 8.09022
126 1 -1.1104 3.93296 18.813 6.50665
133 1 -1.1104 3.94869 16.1645 6.66431
117 1 -1.1104 1.29065 16.1082 6.51993
306 1 -1.1104 6.97424 15.9438 12.5966
310 2 2.2208 2.57154 14.6324 10.9419
309 2 2.2208 2.44924 20.3383 10.9038
286 1 -1.1104 3.83989 18.925 12.3893
291 1 -1.1104 1.01722 19.0408 9.42042
292 1 -1.1104 0.921058 16.0766 9.55609
293 2 2.2208 5.2971 20.1981 7.92691
295 2 2.2208 5.29602 14.5523 8.02503
298 1 -1.1104 1.06468 18.6749 12.3395
300 2 2.2208 5.22678 17.5997 10.834
301 1 -1.1104 3.68935 19.13 9.24382
303 2 2.2208 2.38091 17.3847 8.11696
304 1 -1.1104 3.83186 16.2497 9.55407
307 1 -1.1104 1.10692 15.7872 12.2931
308 1 -1.1104 4.1796 15.8876 12.2262
296 1 -1.1104 6.79892 18.8554 12.3654
348 2 2.2208 10.8863 17.3122 -0.430025
321 1 -1.1104 9.63271 19.0295 12.2326
231 1 -1.1104 12.34 18.7519 9.43276
112 1 -1.1104 6.69839 18.7584 6.73181
163 1 -1.1104 9.72428 15.953 6.62904
201 2 2.2208 11.0999 17.5016 10.8443
314 1 -1.1104 9.75625 16.1809 9.30834
320 2 2.2208 8.22278 17.4701 7.99561
397 2 2.2208 -0.21035 20.02 13.579
230 1 -1.1104 12.7318 18.8432 12.3351
149 1 -1.1104 12.4292 15.7982 6.67089
288 1 -1.1104 6.61016 18.7716 9.62749
324 2 2.2208 10.9572 20.185 8.08523
289 1 -1.1104 6.75783 16.165 9.63804
402 2 2.2208 5.21799 -2.4563 13.6806
535 2 2.2208 5.3088 20.3489 13.7089
349 2 2.2208 8.00605 20.3544 -0.212481
83 2 2.2208 -0.210201 11.8006 5.24487
339 2 2.2208 5.45325 0.352966 -0.440982
340 2 2.2208 2.80996 -2.29042 -0.388557
337 2 2.2208 8.24206 17.4335 13.5517
347 2 2.2208 -0.247385 9.01124 13.5757
9734 2 2.2208 -0.207924 3.33758 13.5782
332 2 2.2208 2.4476 11.7172 13.5761
353 2 2.2208 5.56109 6.2945 -0.370886
403 2 2.2208 2.61062 0.463447 13.5641
331 2 2.2208 5.45873 8.70602 13.5312
336 2 2.2208 11.1283 20.2951 13.5783
362 2 2.2208 5.31462 0.25952 16.4403
363 1 -1.1104 1.11215 -3.8522 17.8563
367 1 -1.1104 1.18086 -3.88661 15.1616
375 1 -1.1104 1.39987 -1.13858 17.9154
377 2 2.2208 5.39114 -2.39024 19.161
379 1 -1.1104 1.15355 -1.13858 15.1395
383 1 -1.1104 3.76676 -3.93421 17.9767
385 2 2.2208 2.59628 0.499415 19.1849
386 1 -1.1104 4.10742 -3.87941 15.2735
390 2 2.2208 2.68766 -2.53882 16.5221
392 1 -1.1104 3.99243 -0.977746 17.7977
393 1 -1.1104 3.92332 -1.09273 15.0455
9329 2 2.2208 2.39561 -5.30702 19.3294
589 2 2.2208 -0.251826 20.1015 25.0794
9278 2 2.2208 2.41108 -5.20622 24.8033
17627 2 2.2208 -0.311979 -5.24119 22.1022
9327 2 2.2208 11.1938 -5.26089 16.6744
10010 2 2.2208 -0.316712 -2.65169 19.1831
9787 2 2.2208 -0.258503 0.273646 16.3065
9333 2 2.2208 -0.298624 -5.19056 16.4572
371 1 -1.1104 7.04011 -4.15321 15.2002
330 2 2.2208 2.68882 5.75752 13.6951
381 1 -1.1104 6.93688 -1.09385 15.0825
365 1 -1.1104 6.62058 -3.81096 17.9142
376 1 -1.1104 6.91006 -0.894594 17.7867
405 2 2.2208 10.995 0.466486 16.3725
406 1 -1.1104 12.4843 -3.99378 18.0686
408 1 -1.1104 12.5824 -3.86998 15.2945
412 1 -1.1104 12.633 -1.03794 18.0181
413 2 2.2208 11.0431 -2.46167 19.0962
415 1 -1.1104 12.6503 -0.930417 15.2003
417 1 -1.1104 9.6469 -3.65656 17.7108
419 2 2.2208 8.33541 0.450606 19.204
420 1 -1.1104 9.73392 -3.82673 14.9585
424 2 2.2208 8.13958 -2.35895 16.4003
426 1 -1.1104 9.68792 -0.993536 17.7429
427 1 -1.1104 9.63113 -1.01717 15.1674
9904 2 2.2208 -0.29818 5.98516 16.4905
9307 2 2.2208 8.18723 -5.32792 19.319
430 2 2.2208 -0.289586 17.3656 16.4339
416 1 -1.1104 12.6253 -0.908606 20.76
341 2 2.2208 -0.348174 17.474 27.7166
431 2 2.2208 -0.316402 14.4462 19.2413
364 1 -1.1104 1.34747 1.73584 17.7447
369 1 -1.1104 1.30793 1.77234 14.8907
378 2 2.2208 5.45271 3.2209 19.3988
384 1 -1.1104 4.03603 1.73196 17.8957
388 1 -1.1104 4.09792 1.80291 14.9944
391 2 2.2208 2.61092 3.21562 16.5851
438 2 2.2208 5.36457 5.80619 16.4929
440 1 -1.1104 0.965809 7.48592 17.6852
446 1 -1.1104 1.20487 4.48996 17.9644
451 1 -1.1104 1.09421 4.73018 15.0238
460 2 2.2208 2.54808 5.9058 19.4152
465 1 -1.1104 4.01149 4.53896 18.0496
467 1 -1.1104 4.08342 4.49894 15.0569
442 1 -1.1104 1.01473 7.49216 14.9431
459 1 -1.1104 3.91574 7.35276 17.9916
370 1 -1.1104 1.20731 1.88785 20.7295
373 1 -1.1104 6.84188 1.80818 15.0423
9831 2 2.2208 -0.268785 3.0205 19.2898
462 1 -1.1104 3.95815 7.28417 15.2394
468 1 -1.1104 4.31589 4.56298 20.8269
343 2 2.2208 2.3715 14.511 27.704
9276 2 2.2208 8.35835 -5.21323 25.0107
441 1 -1.1104 6.83619 7.48915 17.8204
444 1 -1.1104 6.76564 7.37306 14.9415
455 1 -1.1104 6.9916 4.4032 14.8183
366 1 -1.1104 6.66222 1.87721 17.6311
448 1 -1.1104 6.93007 4.87474 17.5939
407 1 -1.1104 12.3603 1.60382 17.8962
410 1 -1.1104 12.3714 1.81765 14.8858
414 2 2.2208 11.0937 3.32251 19.4259
418 1 -1.1104 9.67981 1.8844 17.7555
422 1 -1.1104 9.56752 1.93438 15.1434
425 2 2.2208 8.26643 3.27347 16.4162
474 2 2.2208 11.0952 6.07349 16.4783
477 1 -1.1104 12.5124 7.44459 15.1898
479 1 -1.1104 12.6198 4.66792 17.7214
482 1 -1.1104 12.6241 4.4533 15.25
487 2 2.2208 8.36679 6.16777 19.1831
489 1 -1.1104 9.66479 7.3638 15.0706
492 1 -1.1104 9.6864 4.72238 17.7162
494 1 -1.1104 9.76301 4.70301 15.193
486 1 -1.1104 9.71211 7.63407 17.7986
476 1 -1.1104 12.6665 7.45326 17.8415
478 1 -1.1104 12.3164 7.59772 20.7796
350 2 2.2208 11.1504 0.491232 27.6193
9305 2 2.2208 8.38495 -5.24183 13.7904
596 2 2.2208 -0.296202 8.92647 19.206
439 2 2.2208 5.24468 11.6124 16.3695
447 1 -1.1104 1.10344 10.2224 18.0994
450 2 2.2208 5.38255 8.92412 19.5354
453 1 -1.1104 1.04129 10.271 15.1116
461 2 2.2208 2.62744 11.8044 19.242
464 2 2.2208 2.69899 8.62797 16.5903
466 1 -1.1104 4.02556 10.3182 17.9251
469 1 -1.1104 3.83113 10.0809 15.0052
502 1 -1.1104 1.01936 13.1228 17.9409
506 1 -1.1104 1.08832 13.1467 15.0634
522 1 -1.1104 3.88435 12.927 17.7779
525 1 -1.1104 3.85759 13.0469 15.1702
504 1 -1.1104 6.5255 13.0668 17.8417
598 1 -1.1104 6.50428 15.8092 23.7204
355 2 2.2208 5.13136 11.7573 27.6882
352 2 2.2208 8.29254 3.39722 27.7519
622 1 -1.1104 12.3802 18.9303 23.4977
449 1 -1.1104 6.8788 10.2492 17.7295
510 1 -1.1104 6.6694 12.9746 15.0279
457 1 -1.1104 6.78682 10.2914 14.9219
475 2 2.2208 11.013 11.7732 16.3882
480 1 -1.1104 12.6484 10.2585 17.8919
481 2 2.2208 11.1528 8.89708 19.327
484 1 -1.1104 12.7331 10.399 15.3193
488 2 2.2208 8.12444 11.8206 19.1886
491 2 2.2208 8.22214 8.98102 16.4711
493 1 -1.1104 9.69753 10.4339 17.5754
496 1 -1.1104 9.68308 10.2693 14.9176
538 1 -1.1104 12.3013 13.2758 17.7867
540 1 -1.1104 12.3039 13.2229 15.1324
549 1 -1.1104 9.32922 13.1772 17.8584
552 1 -1.1104 9.54373 13.3147 15.1108
541 1 -1.1104 12.5502 13.2728 20.6611
564 2 2.2208 -0.294537 17.386 22.4477
497 1 -1.1104 9.71606 10.3765 20.5282
359 2 2.2208 8.2586 8.84479 27.7228
472 1 -1.1104 6.82259 18.9042 26.2642
498 1 -1.1104 9.68079 18.8372 26.2342
516 2 2.2208 5.34116 14.6807 19.2678
529 2 2.2208 2.52829 14.7246 16.4441
501 2 2.2208 5.38059 17.4822 16.6952
503 1 -1.1104 1.15396 18.6188 17.8813
508 1 -1.1104 0.866238 18.5676 14.9782
514 1 -1.1104 1.16911 15.748 18.0536
517 2 2.2208 5.28752 20.1137 19.4172
518 1 -1.1104 1.14187 15.9625 15.0589
523 1 -1.1104 3.97591 18.6146 18.2174
524 2 2.2208 2.48578 17.392 19.4095
527 1 -1.1104 3.7719 18.5301 15.4144
530 2 2.2208 2.37535 20.0032 16.5801
531 1 -1.1104 3.97015 16.0104 17.8614
532 1 -1.1104 4.20398 15.8375 15.1496
533 1 -1.1104 3.8544 16.015 20.7517
436 2 2.2208 11.1483 -2.40069 13.7415
435 1 -1.1104 9.57235 18.6374 23.6714
623 2 2.2208 -0.361933 11.8135 16.438
9830 2 2.2208 -0.23036 3.08325 25.0464
528 1 -1.1104 4.0216 18.8683 21.0268
509 1 -1.1104 1.21595 18.8195 20.682
9303 2 2.2208 5.31383 -5.1961 22.2085
9277 2 2.2208 11.0672 -5.1708 22.1843
512 1 -1.1104 6.60054 18.7584 15.0045
515 1 -1.1104 6.63589 15.9953 18.083
505 1 -1.1104 6.73179 18.9406 17.7446
520 1 -1.1104 7.03421 16.1331 15.3264
556 2 2.2208 8.14804 14.5043 16.4594
537 2 2.2208 11.1793 17.5807 16.4153
539 1 -1.1104 12.1345 19.2315 17.5052
542 1 -1.1104 12.5247 18.6767 14.9793
544 1 -1.1104 12.2381 16.1169 18.052
545 2 2.2208 10.9826 14.5657 19.2816
546 2 2.2208 11.0899 20.2571 19.2444
547 1 -1.1104 12.682 15.9993 15.1227
550 1 -1.1104 9.46068 18.7017 18.1099
551 2 2.2208 8.2446 17.4863 19.4957
554 1 -1.1104 9.61112 18.9615 15.3511
557 2 2.2208 8.22197 20.1303 16.612
558 1 -1.1104 9.48534 16.0141 17.8907
559 1 -1.1104 9.86993 16.2475 15.0454
562 2 2.2208 11.0626 14.6804 13.7478
404 1 -1.1104 12.4137 16.2276 26.4073
548 1 -1.1104 12.424 15.9242 20.7862
368 1 -1.1104 1.23535 -3.84906 20.7468
351 2 2.2208 8.12136 -2.47596 27.696
387 1 -1.1104 4.11389 -3.82637 20.9377
380 1 -1.1104 1.10506 -0.967653 20.7627
394 1 -1.1104 4.0966 -1.20569 20.6046
9979 2 2.2208 -0.404164 -2.53788 25.0193
565 2 2.2208 5.46645 0.390073 22.1295
566 1 -1.1104 1.00543 -3.88108 23.36
570 1 -1.1104 1.20232 -4.06868 26.3906
574 1 -1.1104 1.1076 -0.981537 23.6694
576 2 2.2208 5.4609 -2.44938 24.8151
578 1 -1.1104 1.21516 -1.0606 26.3698
580 1 -1.1104 3.73267 -3.81329 23.6206
582 2 2.2208 2.55734 0.226298 25.04
583 1 -1.1104 4.07333 -3.94355 26.4453
585 2 2.2208 2.55096 -2.43633 22.0445
587 1 -1.1104 4.04563 -1.18206 23.3972
588 1 -1.1104 4.19924 -1.02487 26.1171
9978 2 2.2208 -0.219831 0.435309 22.1147
409 1 -1.1104 12.3577 -3.98556 20.8602
372 1 -1.1104 6.98023 -3.94737 20.8119
572 1 -1.1104 6.79655 -3.9223 26.4015
382 1 -1.1104 6.94227 -1.09203 20.5677
428 1 -1.1104 9.73809 -0.953629 20.5566
421 1 -1.1104 9.82967 -3.75371 20.7094
568 1 -1.1104 6.87219 -3.90221 23.5559
575 1 -1.1104 6.93836 -1.01113 23.4587
579 1 -1.1104 6.88386 -1.19713 26.328
601 2 2.2208 11.1653 0.328513 22.2868
602 1 -1.1104 12.4067 -3.63209 23.6361
604 1 -1.1104 12.5743 -3.63908 26.4376
606 1 -1.1104 12.5853 -0.899167 23.7437
607 2 2.2208 10.9762 -2.32342 24.9739
609 1 -1.1104 12.4075 -0.85536 26.3085
610 1 -1.1104 9.77072 -3.74697 23.5289
612 2 2.2208 8.1631 0.329318 24.8789
613 1 -1.1104 9.70237 -3.48977 26.3066
615 2 2.2208 8.38194 -2.39973 21.9103
617 1 -1.1104 9.57608 -1.01171 23.5012
618 1 -1.1104 9.75099 -0.615738 26.2983
432 2 2.2208 -0.192806 20.0507 19.3148
543 1 -1.1104 12.5232 18.651 20.601
389 1 -1.1104 3.95956 1.65353 20.5717
452 1 -1.1104 1.29495 4.40973 20.916
463 1 -1.1104 4.1086 7.59474 20.7383
443 1 -1.1104 1.11258 7.52091 20.6651
567 1 -1.1104 1.26707 1.73854 23.596
571 1 -1.1104 1.18469 1.71986 26.5855
577 2 2.2208 5.54913 3.05215 25.0165
581 1 -1.1104 4.30347 1.6298 23.6605
584 1 -1.1104 4.01669 1.93982 26.5303
586 2 2.2208 2.69307 3.00728 22.4734
630 2 2.2208 5.404 5.87549 22.2121
636 1 -1.1104 1.15967 4.60754 23.4476
641 1 -1.1104 1.38884 4.69579 26.1795
646 2 2.2208 2.49143 6.02279 24.7936
650 1 -1.1104 4.20431 4.31332 23.632
652 1 -1.1104 3.91654 4.771 26.268
632 1 -1.1104 1.0463 7.41827 23.7262
648 1 -1.1104 3.76827 7.5238 26.2025
634 1 -1.1104 1.03619 7.65069 26.3696
645 1 -1.1104 3.88887 7.2645 23.2804
500 2 2.2208 8.37164 20.2264 22.2211
395 2 2.2208 -0.103453 5.95988 21.9998
495 1 -1.1104 9.61875 4.6359 20.8482
423 1 -1.1104 9.75855 1.78159 20.6412
490 1 -1.1104 9.58885 7.4307 20.7597
573 1 -1.1104 6.79967 1.73643 26.4186
374 1 -1.1104 6.87903 1.54046 20.523
456 1 -1.1104 7.1302 4.45284 20.701
445 1 -1.1104 6.98115 7.69325 20.7333
411 1 -1.1104 12.5934 1.86966 20.7014
569 1 -1.1104 6.92795 1.74554 23.4318
638 1 -1.1104 7.08665 4.61027 23.5673
643 1 -1.1104 6.97896 4.72109 26.2979
483 1 -1.1104 12.588 4.64695 20.6599
635 1 -1.1104 6.79777 7.55494 26.3426
633 1 -1.1104 6.52327 7.38677 23.5777
603 1 -1.1104 12.6253 1.87055 23.5542
605 1 -1.1104 12.572 1.84739 26.1994
608 2 2.2208 11.086 3.24089 24.9201
611 1 -1.1104 9.72496 1.88467 23.5248
614 1 -1.1104 9.69568 1.91661 26.3156
616 2 2.2208 8.29497 3.14015 22.1212
662 1 -1.1104 9.74962 4.59229 26.3471
664 1 -1.1104 9.73922 4.56233 23.5585
666 1 -1.1104 9.71701 7.38026 26.0595
668 2 2.2208 8.36619 5.91534 24.879
669 2 2.2208 11.0157 6.06717 22.1455
673 1 -1.1104 12.4192 4.76633 23.4102
676 1 -1.1104 12.4277 4.7962 26.3829
672 1 -1.1104 12.4861 7.62418 26.2339
671 1 -1.1104 12.2207 7.57926 23.4083
678 1 -1.1104 9.52135 7.46076 23.3418
526 1 -1.1104 3.92783 13.358 20.635
470 1 -1.1104 3.84893 10.3336 20.605
454 1 -1.1104 0.90171 10.3012 20.909
342 2 2.2208 2.69124 3.3987 27.8171
507 1 -1.1104 0.981803 13.2781 20.8381
631 2 2.2208 5.2557 11.7618 22.0767
637 1 -1.1104 1.05498 10.1076 23.7347
640 2 2.2208 5.26378 8.82281 24.8066
642 1 -1.1104 1.06847 10.3896 26.3761
647 2 2.2208 2.36538 11.6549 24.7814
649 2 2.2208 2.47943 8.78946 21.9993
651 1 -1.1104 3.79002 10.536 23.4014
653 1 -1.1104 3.7417 10.3191 26.3906
619 1 -1.1104 3.8009 13.1077 26.3856
656 1 -1.1104 1.04539 12.8984 23.4893
683 1 -1.1104 0.944622 13.094 26.1981
687 1 -1.1104 3.75049 13.4701 23.5075
511 1 -1.1104 6.71363 13.2922 20.8481
560 1 -1.1104 9.41911 15.9279 20.8534
658 2 2.2208 -0.413145 8.95567 25.0612
686 1 -1.1104 6.58827 13.2988 26.196
458 1 -1.1104 6.68198 10.276 20.7415
485 1 -1.1104 12.4854 10.5127 20.567
553 1 -1.1104 9.53803 13.2094 20.6826
660 1 -1.1104 6.73505 12.8885 23.565
644 1 -1.1104 6.66164 10.4325 26.3693
639 1 -1.1104 6.77392 10.0616 23.4963
626 1 -1.1104 12.3523 13.1705 26.2531
661 1 -1.1104 9.52598 10.221 26.2478
663 1 -1.1104 9.69063 10.3793 23.41
665 2 2.2208 8.30454 9.04305 21.9731
667 2 2.2208 8.219 11.6902 24.8938
670 2 2.2208 11.1269 11.9599 21.9683
674 1 -1.1104 12.5683 10.3614 23.4457
675 2 2.2208 10.9818 9.01103 24.9339
677 1 -1.1104 12.2882 10.5144 26.1845
600 1 -1.1104 12.3153 13.3265 23.5733
429 1 -1.1104 9.63749 13.0555 23.7996
473 1 -1.1104 9.42294 12.9891 26.4023
684 2 2.2208 11.0412 20.1097 25.0264
688 1 -1.1104 6.79046 16.1401 26.5957
358 2 2.2208 11.187 6.29833 27.6463
681 1 -1.1104 6.99181 18.7005 23.4038
360 2 2.2208 11.053 11.7851 27.704
519 1 -1.1104 1.08631 16.1073 20.7859
655 2 2.2208 5.41312 17.3474 22.2125
654 1 -1.1104 4.13487 18.6726 26.4691
685 1 -1.1104 3.97808 18.7604 23.7793
680 2 2.2208 5.4595 20.1464 25.0493
621 2 2.2208 2.64559 17.3934 24.9761
690 1 -1.1104 0.976597 16.06 26.3385
689 1 -1.1104 1.32421 18.6808 26.226
657 1 -1.1104 1.23285 18.7723 23.4014
591 2 2.2208 2.35738 14.6748 22.2516
679 2 2.2208 5.18964 14.4224 24.9256
593 2 2.2208 2.58741 20.2099 22.1786
595 1 -1.1104 3.90195 16.0334 23.5545
597 1 -1.1104 1.00901 15.8914 23.7575
620 1 -1.1104 3.84633 15.9289 26.4974
599 2 2.2208 10.8966 17.2783 22.1077
627 1 -1.1104 12.3798 18.8617 26.4485
629 2 2.2208 10.9084 14.4794 24.9802
561 1 -1.1104 9.36558 15.8845 23.7403
513 1 -1.1104 6.6918 18.8775 20.7054
471 2 2.2208 8.10631 17.3865 25.0523
521 1 -1.1104 6.66701 16.0176 20.8651
555 1 -1.1104 9.59469 18.7257 20.8692
628 1 -1.1104 12.4062 16.2908 23.5893
563 1 -1.1104 9.58801 15.7129 26.6319
499 2 2.2208 7.92527 14.6066 22.2236
346 2 2.2208 8.10951 14.4372 27.723
9753 2 2.2208 -0.314993 -2.40484 13.707
356 2 2.2208 -0.289466 11.6852 27.593
437 2 2.2208 11.1189 3.22016 13.8004
326 2 2.2208 -0.378894 14.5659 13.7381
354 2 2.2208 2.39383 8.94513 27.7071
345 2 2.2208 2.57372 20.1816 27.7023
536 2 2.2208 5.26315 14.6222 13.7905
534 2 2.2208 2.60934 17.2136 13.7323
691 2 2.2208 5.42546 23.1486 5.29214
693 1 -1.1104 0.979247 24.5213 0.720569
694 1 -1.1104 1.03317 24.3447 3.47981
695 1 -1.1104 1.17579 21.8002 1.03458
697 2 2.2208 5.12422 25.9008 2.38963
698 1 -1.1104 1.34166 21.7188 4.08511
700 1 -1.1104 3.96842 24.3995 1.0024
701 2 2.2208 2.60758 22.9405 2.35263
703 1 -1.1104 3.80079 24.5733 3.53777
704 2 2.2208 2.41339 25.8251 5.15554
705 1 -1.1104 3.80331 21.604 0.934218
707 1 -1.1104 4.04044 21.9528 3.78483
706 1 -1.1104 3.77292 27.0399 0.888862
713 1 -1.1104 6.75674 24.4188 3.9237
715 1 -1.1104 6.72492 27.1226 1.25505
1015 2 2.2208 -0.410288 25.8608 8.12335
1033 2 2.2208 -0.306956 23.149 -0.468376
1432 1 -1.1104 3.74916 47.0135 0.998301
716 1 -1.1104 6.87812 21.5935 3.79814
712 1 -1.1104 6.66014 24.4088 1.2801
714 1 -1.1104 6.48315 21.5435 1.13426
718 2 2.2208 10.885 23.1059 5.27614
720 1 -1.1104 12.2968 24.4435 1.09284
721 1 -1.1104 12.1735 24.4608 3.84975
722 1 -1.1104 12.2111 21.5281 0.924266
724 2 2.2208 10.8725 25.9082 2.43721
725 1 -1.1104 12.3069 21.6172 3.88043
727 1 -1.1104 9.50275 24.5666 1.14003
728 2 2.2208 8.23553 23.1567 2.57823
730 1 -1.1104 9.58623 24.4722 3.74486
731 2 2.2208 7.9685 25.8858 5.35483
732 1 -1.1104 9.44401 21.5526 1.22557
734 1 -1.1104 9.55183 21.4133 3.98804
709 2 2.2208 -0.388005 28.7598 5.28272
983 1 -1.1104 9.41195 44.1624 9.55016
868 1 -1.1104 9.40895 24.4127 6.4885
696 1 -1.1104 0.963869 27.1441 1.08245
708 1 -1.1104 3.91557 27.2454 3.78444
717 1 -1.1104 6.61385 27.432 4.06376
699 1 -1.1104 1.05413 27.2549 3.86761
692 2 2.2208 5.1932 28.6632 5.2917
702 2 2.2208 2.23766 28.5822 2.37386
740 1 -1.1104 1.02305 30.0557 0.954208
743 1 -1.1104 0.938072 30.1919 3.79981
746 1 -1.1104 1.09165 32.9702 0.912606
747 2 2.2208 5.12003 31.4695 2.57681
749 1 -1.1104 1.11476 33.0424 3.80678
751 1 -1.1104 3.75527 29.9251 0.680926
754 1 -1.1104 3.67332 30.1532 3.85091
756 2 2.2208 2.28022 31.4325 5.31982
758 1 -1.1104 3.86284 32.7172 1.24589
759 1 -1.1104 3.75996 32.9388 4.01512
893 1 -1.1104 0.960275 33.0411 6.6674
750 1 -1.1104 6.62666 32.6419 3.83666
763 1 -1.1104 6.55028 30.1488 1.05804
889 1 -1.1104 1.15671 30.0504 6.76434
1021 2 2.2208 -0.39134 34.2779 10.7544
1038 2 2.2208 2.46075 37.0724 -0.286257
710 2 2.2208 -0.309721 23.3463 5.02925
723 1 -1.1104 12.2308 27.4173 0.892714
733 1 -1.1104 9.47229 27.3479 1.14313
765 1 -1.1104 6.52042 33.0442 0.899331
735 1 -1.1104 9.51395 27.3128 3.93255
867 1 -1.1104 12.2337 27.3038 6.75275
726 1 -1.1104 12.2 27.3922 3.93906
764 1 -1.1104 6.68695 30.0723 3.80383
719 2 2.2208 10.8987 28.7525 5.21143
729 2 2.2208 8.1219 28.6917 2.63297
767 1 -1.1104 12.0895 30.0637 1.14081
769 1 -1.1104 12.3133 30.1086 4.02001
771 1 -1.1104 12.0282 33.0711 1.07075
772 2 2.2208 10.7602 31.39 2.5218
774 1 -1.1104 12.312 32.8932 3.93026
775 1 -1.1104 9.17329 30.3154 1.27883
778 1 -1.1104 9.41474 30.1809 3.91645
780 2 2.2208 7.96579 31.4714 5.17866
782 1 -1.1104 9.31683 33.1441 1.16668
783 1 -1.1104 9.43881 32.8229 3.80888
1274 2 2.2208 -0.242066 37.1872 13.685
894 1 -1.1104 6.63823 32.8316 6.8038
928 1 -1.1104 9.54224 32.7653 6.56596
1047 2 2.2208 10.7505 34.3835 -0.368311
1031 2 2.2208 5.26649 28.6583 -0.381521
739 2 2.2208 5.11783 34.3481 5.28837
741 1 -1.1104 1.23771 35.7376 1.09288
744 1 -1.1104 1.04116 35.7933 3.969
748 2 2.2208 5.24088 37.1646 2.52641
752 1 -1.1104 3.86919 35.5336 1.07746
753 2 2.2208 2.42487 34.1969 2.43091
755 1 -1.1104 3.72678 35.7364 3.91191
757 2 2.2208 2.32147 37.3263 5.26395
785 2 2.2208 5.02575 40.1271 5.22493
791 1 -1.1104 0.92078 38.6705 1.26357
796 1 -1.1104 0.927655 38.5942 3.93379