ITEM: TIMESTEP
90000
ITEM: NUMBER OF ATOMS
17730
ITEM: BOX BOUNDS pp pp pp
-4.3150668854747898e-01 2.7771506688547461e+01
-5.3424659005351556e+00 3.3342246590052508e+02
-4.4074559018649156e-01 2.7780745590187145e+01
ITEM: ATOMS id type q x y z
1 2 2.2208 5.21278 0.422514 5.15352
2 1 -1.1104 0.962575 -3.91691 1.07315
6 1 -1.1104 1.07097 -4.24336 3.76564
10 1 -1.1104 1.06548 -1.10982 0.898633
12 2 2.2208 5.47509 -2.3717 2.4163
14 1 -1.1104 0.883096 -1.24094 3.62335
16 1 -1.1104 3.65525 -3.9594 0.835249
18 2 2.2208 2.41845 0.292816 2.43922
19 1 -1.1104 4.22126 -4.01968 3.57768
21 2 2.2208 2.40082 -2.70467 5.07366
23 1 -1.1104 3.93912 -0.939733 1.05444
24 1 -1.1104 3.7743 -1.28171 3.85317
313 2 2.2208 -0.330851 14.4089 7.97108
4 1 -1.1104 6.53593 -3.63113 0.923897
8 1 -1.1104 6.86011 -3.85411 3.8371
170 1 -1.1104 1.03847 -1.21007 6.38382
9011 2 2.2208 5.36108 -5.31105 5.1945
171 1 -1.1104 6.54179 -1.11637 6.73403
348 2 2.2208 10.8103 17.386 -0.382657
9010 2 2.2208 2.45626 -5.20163 2.34032
9013 2 2.2208 8.15725 -5.32756 2.31884
11 1 -1.1104 6.70351 -0.796608 1.20483
27 2 2.2208 -0.408473 3.16653 2.23337
344 2 2.2208 5.38302 17.3568 -0.155873
15 1 -1.1104 6.66769 -1.01615 4.16614
31 2 2.2208 11.0613 0.291623 5.1262
32 1 -1.1104 12.5028 -3.76332 1.0747
34 1 -1.1104 12.3643 -3.84556 3.72521
36 1 -1.1104 12.3059 -0.972385 0.76818
37 2 2.2208 11.0743 -2.40586 2.27097
39 1 -1.1104 12.4031 -1.00094 3.52958
40 1 -1.1104 9.40312 -3.98229 0.915197
42 2 2.2208 8.1271 0.520416 2.35546
43 1 -1.1104 9.69939 -3.73347 3.79178
45 2 2.2208 8.28124 -2.47864 5.14874
47 1 -1.1104 9.55889 -0.861496 0.628729
48 1 -1.1104 9.52488 -1.05255 3.67841
208 1 -1.1104 9.56856 -3.91722 6.58366
9328 2 2.2208 2.31434 -5.24081 13.6013
334 2 2.2208 10.7088 8.77638 13.4183
105 2 2.2208 13.5939 5.89939 2.31133
104 2 2.2208 13.636 11.5396 2.37831
3 1 -1.1104 1.11779 1.77958 1.27044
7 1 -1.1104 1.17798 1.47749 3.85041
13 2 2.2208 5.13512 3.08907 2.37921
17 1 -1.1104 3.85894 1.8799 0.653665
20 1 -1.1104 3.94747 1.50807 3.5302
22 2 2.2208 2.43549 3.03969 5.11888
54 2 2.2208 5.20422 5.92496 5.14105
56 1 -1.1104 1.01608 7.34638 1.03094
60 1 -1.1104 0.900154 4.76029 0.904174
67 1 -1.1104 0.993879 4.49588 3.6415
72 2 2.2208 2.47842 5.97387 2.32633
76 1 -1.1104 3.70631 4.6278 0.955462
79 1 -1.1104 3.79143 4.32948 3.88626
74 1 -1.1104 3.86954 7.28983 3.75824
58 1 -1.1104 1.10012 7.29855 3.82469
71 1 -1.1104 3.73253 7.47193 1.05075
234 1 -1.1104 1.03097 7.09191 6.44986
238 1 -1.1104 3.83073 7.4501 6.49609
236 1 -1.1104 0.943888 4.34983 6.38031
536 2 2.2208 5.12323 14.3981 13.5765
5 1 -1.1104 6.64098 1.82623 1.09584
57 1 -1.1104 6.59159 7.2175 0.741013
9 1 -1.1104 6.69019 1.77699 3.89961
69 1 -1.1104 6.55774 4.52374 3.87928
59 1 -1.1104 6.51297 7.47096 3.7792
63 1 -1.1104 6.51678 4.61669 1.10477
33 1 -1.1104 12.4106 1.54986 0.946191
35 1 -1.1104 12.3298 1.59958 3.60954
38 2 2.2208 10.8556 3.08125 2.52504
41 1 -1.1104 9.52498 1.85945 0.907762
44 1 -1.1104 9.59989 1.67089 3.76697
46 2 2.2208 7.97379 3.07017 5.16765
84 2 2.2208 10.8071 6.06381 5.18582
88 1 -1.1104 12.1235 4.32457 0.905739
92 1 -1.1104 12.329 4.55397 3.72023
95 2 2.2208 7.91195 6.01453 2.4611
99 1 -1.1104 9.34169 4.58647 1.04312
102 1 -1.1104 9.58813 4.60397 3.83177
97 1 -1.1104 9.5035 7.50946 3.80812
86 1 -1.1104 12.2547 7.19424 0.771866
87 1 -1.1104 12.2625 7.23546 3.62435
94 1 -1.1104 9.47582 7.46659 0.790826
266 1 -1.1104 12.1718 4.61894 6.50195
267 1 -1.1104 9.50144 7.38098 6.73624
265 1 -1.1104 12.181 7.38 6.59135
9014 2 2.2208 10.9707 -5.13815 5.16745
55 2 2.2208 5.20166 11.4826 5.08449
61 1 -1.1104 1.22611 10.2311 0.889415
66 2 2.2208 5.11666 8.84048 2.21571
68 1 -1.1104 0.80581 10.2158 3.75452
73 2 2.2208 2.39171 11.7182 2.24085
75 2 2.2208 2.4415 8.64717 5.13059
77 1 -1.1104 3.98007 10.3921 0.820994
80 1 -1.1104 3.63484 10.0544 3.66163
107 1 -1.1104 0.939146 13.1126 0.86264
113 1 -1.1104 0.907772 13.0945 3.64567
123 1 -1.1104 3.84359 13.0991 0.796203
128 1 -1.1104 3.611 12.9019 3.71918
124 1 -1.1104 3.77935 12.8561 6.51785
115 1 -1.1104 6.60089 12.9454 3.70572
70 1 -1.1104 6.589 10.2125 3.74492
437 2 2.2208 10.9952 3.03568 13.6511
119 2 2.2208 5.05965 14.3695 2.42747
9029 2 2.2208 -0.187323 -5.13266 -0.47518
108 1 -1.1104 0.97822 12.871 6.58866
201 2 2.2208 10.969 17.2356 10.8263
64 1 -1.1104 6.74582 10.0966 1.06171
110 1 -1.1104 6.72317 12.9153 0.996054
85 2 2.2208 10.7825 11.6242 4.9993
89 1 -1.1104 12.1635 10.2512 0.998172
91 2 2.2208 10.821 8.72576 2.20144
93 1 -1.1104 12.1016 10.0587 3.90326
96 2 2.2208 8.04857 11.6404 2.34599
98 2 2.2208 8.01114 8.69288 5.19111
100 1 -1.1104 9.51451 10.1941 0.771185
103 1 -1.1104 9.19018 10.2933 3.63041
142 1 -1.1104 12.1482 13.0189 0.978354
146 1 -1.1104 12.1997 12.8469 3.76832
153 1 -1.1104 9.55293 12.9939 0.824525
158 1 -1.1104 9.3452 12.9958 3.51253
154 1 -1.1104 9.46002 13.0286 6.48645
101 1 -1.1104 9.45564 10.1971 6.24623
65 1 -1.1104 6.54424 9.99804 6.45958
9020 2 2.2208 10.9349 -5.11688 11.0918
130 2 2.2208 2.3723 14.4418 5.07482
106 2 2.2208 5.45776 17.222 5.43343
109 1 -1.1104 0.66293 18.5152 1.00959
114 1 -1.1104 0.883898 18.6007 3.60755
116 1 -1.1104 0.912105 15.8078 0.983815
120 2 2.2208 5.26579 20.1502 2.44439
121 1 -1.1104 1.16716 15.8712 3.79895
125 1 -1.1104 3.80056 18.5939 1.12277
127 2 2.2208 2.4111 17.2001 2.56933
129 1 -1.1104 3.74187 18.7185 3.95058
131 2 2.2208 2.6189 20.2256 5.11823
132 1 -1.1104 3.7006 15.8039 1.08987
134 1 -1.1104 4.01786 15.8117 3.79009
140 1 -1.1104 6.39987 15.7771 1.17666
118 1 -1.1104 6.74336 15.6924 6.76145
122 1 -1.1104 6.67678 15.7687 3.96282
9012 2 2.2208 -0.357719 -5.30811 5.08749
9734 2 2.2208 -0.387573 3.08375 13.6163
139 1 -1.1104 6.86311 18.6235 3.90208
138 1 -1.1104 6.54849 18.5923 1.18599
150 2 2.2208 10.7897 14.3951 2.14506
160 2 2.2208 8.07316 14.4012 5.08331
141 2 2.2208 10.7873 17.2332 5.1576
144 1 -1.1104 12.1674 18.77 0.803164
147 1 -1.1104 12.063 18.5427 3.81029
148 1 -1.1104 12.1058 15.9633 0.998033
151 2 2.2208 10.8227 20.1234 2.26718
152 1 -1.1104 12.0802 15.5725 3.9462
155 1 -1.1104 9.30597 18.7081 0.852229
157 2 2.2208 8.00885 17.1184 2.61931
159 1 -1.1104 9.41733 18.5997 3.79326
161 2 2.2208 8.11146 20.0895 5.16573
162 1 -1.1104 9.28017 15.7832 1.00878
164 1 -1.1104 9.40681 15.7364 3.97649
330 2 2.2208 2.23316 6.06799 13.5963
203 2 2.2208 13.5853 8.60335 5.136
9016 2 2.2208 2.32405 -5.32562 7.93197
436 2 2.2208 10.9252 -2.46134 13.6302
317 2 2.2208 8.04161 14.5634 10.7901
9019 2 2.2208 8.13999 -5.18423 7.96211
314 1 -1.1104 9.43497 15.6991 9.37116
174 1 -1.1104 3.86696 -0.917478 6.71552
166 1 -1.1104 1.15317 -3.90579 6.52513
172 1 -1.1104 3.81029 -3.87516 6.47451
175 2 2.2208 5.30477 0.275799 10.897
176 1 -1.1104 0.750484 -3.67248 11.9366
180 1 -1.1104 1.2382 -3.76414 9.16364
184 1 -1.1104 1.04814 -1.0346 12.0943
186 2 2.2208 5.0413 -2.55698 8.03254
188 1 -1.1104 0.820451 -1.1493 9.15213
190 1 -1.1104 3.81949 -3.91532 12.1772
192 2 2.2208 2.35341 0.383638 7.80059
193 1 -1.1104 3.76331 -4.05716 9.3576
195 2 2.2208 2.44086 -2.42361 10.7683
197 1 -1.1104 3.93677 -1.09808 12.2761
198 1 -1.1104 3.59943 -0.687885 9.45571
178 1 -1.1104 6.69407 -4.03756 12.1828
9442 2 2.2208 13.543 3.2275 5.16305
207 1 -1.1104 12.4316 -0.900066 6.49102
205 1 -1.1104 12.365 -3.79987 6.516
9469 2 2.2208 -0.350663 0.0678187 10.6153
185 1 -1.1104 6.67229 -1.22659 12.3556
182 1 -1.1104 6.65717 -3.92872 9.37961
168 1 -1.1104 6.77643 -3.63561 6.79595
210 1 -1.1104 9.4819 -1.0365 6.49176
189 1 -1.1104 6.4144 -1.30934 9.47643
211 2 2.2208 10.9891 0.403933 10.6961
212 1 -1.1104 12.2731 -3.564 12.1744
214 1 -1.1104 12.4201 -3.74141 9.4024
216 1 -1.1104 12.4475 -0.847826 12.2345
217 2 2.2208 10.9419 -2.32444 8.06405
219 1 -1.1104 12.2886 -0.995831 9.33349
220 1 -1.1104 9.53559 -3.7399 12.4674
222 2 2.2208 7.99925 0.260489 7.81759
223 1 -1.1104 9.49676 -3.56775 9.75074
225 2 2.2208 7.96124 -2.44084 10.8926
227 1 -1.1104 9.69436 -0.965816 12.1577
228 1 -1.1104 9.38942 -0.758878 9.33911
402 2 2.2208 5.36808 -2.55344 13.5999
239 1 -1.1104 3.69598 4.5575 6.57001
173 1 -1.1104 3.85947 1.8352 6.41606
169 1 -1.1104 6.65144 1.63653 6.63554
233 2 2.2208 10.7353 14.3294 7.80711
167 1 -1.1104 0.898841 1.61157 6.49645
177 1 -1.1104 0.838382 1.67007 12.0304
181 1 -1.1104 1.17078 1.95475 9.24498
187 2 2.2208 5.25137 3.15621 8.01939
191 1 -1.1104 3.90175 1.49236 12.4207
194 1 -1.1104 3.92346 1.72091 9.63444
196 2 2.2208 2.49381 3.11236 10.8465
240 2 2.2208 5.22273 5.91545 10.8522
246 1 -1.1104 1.01758 4.48966 12.189
251 1 -1.1104 1.08518 4.58815 9.22454
256 2 2.2208 2.39279 6.07335 8.00256
258 1 -1.1104 3.63999 7.41893 9.46476
260 1 -1.1104 3.74259 4.4442 12.3183
262 1 -1.1104 3.8446 4.67262 9.33086
244 1 -1.1104 1.10315 7.57488 9.23828
255 1 -1.1104 3.73231 7.2069 12.36
242 1 -1.1104 0.941942 7.28898 12.0021
352 2 2.2208 7.84615 3.25983 -0.406882
230 1 -1.1104 12.2851 19.1157 12.0946
235 1 -1.1104 6.66377 7.07569 6.59904
206 1 -1.1104 12.1865 1.82328 6.68966
316 2 2.2208 8.15645 19.9987 10.5995
237 1 -1.1104 6.65574 4.5623 6.53989
248 1 -1.1104 6.49946 4.53943 12.1916
253 1 -1.1104 6.63828 4.61957 9.37355
209 1 -1.1104 9.32583 1.80005 6.31325
269 1 -1.1104 9.3442 4.75052 6.52494
183 1 -1.1104 6.62631 1.70505 9.29992
179 1 -1.1104 6.78079 1.73778 12.3428
245 1 -1.1104 6.4072 7.44384 9.27495
243 1 -1.1104 6.5226 7.54892 12.0505
213 1 -1.1104 12.3632 1.75276 12.2
215 1 -1.1104 12.312 1.66936 9.40435
218 2 2.2208 10.7862 3.18339 7.9302
221 1 -1.1104 9.31039 1.7621 12.0512
224 1 -1.1104 9.34445 1.91195 9.07506
226 2 2.2208 8.03353 3.15716 11.0333
268 1 -1.1104 9.45341 4.65094 9.50646
271 1 -1.1104 9.47115 4.50195 12.2599
275 2 2.2208 8.16665 5.87836 7.98883
276 2 2.2208 10.8453 5.8972 10.8479
278 1 -1.1104 12.1939 7.44653 12.172
280 1 -1.1104 12.3218 4.58323 12.259
283 1 -1.1104 12.2299 4.47653 9.24478
285 1 -1.1104 9.25653 7.28565 12.1567
279 1 -1.1104 12.0027 7.44777 9.3862
273 1 -1.1104 9.22067 7.43229 9.36601
288 1 -1.1104 6.68765 18.6491 9.38624
78 1 -1.1104 3.74165 10.2019 6.55742
200 2 2.2208 -0.267558 -2.61975 7.68795
62 1 -1.1104 0.826779 9.95179 6.81424
241 2 2.2208 5.44901 11.7088 10.804
247 1 -1.1104 0.930856 10.1294 12.1604
250 2 2.2208 5.21938 8.66361 7.79707
252 1 -1.1104 0.82827 10.3839 9.27435
257 2 2.2208 2.36829 11.3977 7.93895
259 2 2.2208 2.2862 8.81305 10.6254
261 1 -1.1104 3.91118 10.1856 12.1897
263 1 -1.1104 3.78577 10.2065 9.2167
287 1 -1.1104 3.68247 13.2643 12.0604
294 1 -1.1104 0.944478 13.1367 9.45696
299 1 -1.1104 1.05615 13.1463 12.3003
305 1 -1.1104 3.97959 12.9852 9.41569
290 1 -1.1104 6.57262 12.9923 9.48441
52 2 2.2208 13.4613 11.723 7.98899
90 1 -1.1104 12.0584 10.2942 6.65264
143 1 -1.1104 12.2579 13.1043 6.54559
111 1 -1.1104 6.64253 12.9155 6.4129
82 2 2.2208 -0.315892 8.62511 2.31094
297 1 -1.1104 6.4627 13.2302 12.1922
254 1 -1.1104 6.68202 10.3264 9.25823
249 1 -1.1104 6.67325 10.3384 12.3206
322 1 -1.1104 9.2773 12.9472 12.1182
319 1 -1.1104 9.26168 12.9387 9.34811
229 1 -1.1104 12.2265 13.0386 12.3276
204 1 -1.1104 12.0593 12.9345 9.22617
264 1 -1.1104 9.48812 10.2157 9.26651
270 1 -1.1104 9.39249 10.0705 11.9932
272 2 2.2208 7.88272 8.94772 10.7873
274 2 2.2208 8.01979 11.5977 7.77806
277 2 2.2208 10.8572 11.6173 10.7139
281 1 -1.1104 12.2764 10.2908 12.0887
282 2 2.2208 10.7209 8.67777 8.08497
284 1 -1.1104 12.2561 10.2523 9.57663
323 1 -1.1104 12.1151 15.8623 9.50932
126 1 -1.1104 3.8616 18.7639 6.69475
302 1 -1.1104 1.1012 18.655 6.47192
133 1 -1.1104 3.74654 15.8035 6.48236
117 1 -1.1104 0.996732 15.7617 6.58021
112 1 -1.1104 6.62323 18.692 6.65055
318 1 -1.1104 9.58964 18.4412 9.49887
295 2 2.2208 5.21293 14.1735 7.92827
306 1 -1.1104 6.80701 16.1008 12.1951
296 1 -1.1104 6.7986 18.8349 12.0931
289 1 -1.1104 6.73148 15.818 9.341
298 1 -1.1104 1.04113 18.7671 12.2622
293 2 2.2208 5.21081 20.3205 7.99161
292 1 -1.1104 1.1535 15.9478 9.42321
291 1 -1.1104 1.11444 18.8486 9.4891
307 1 -1.1104 1.01983 16.0656 12.2782
304 1 -1.1104 4.00246 15.9549 9.61989
303 2 2.2208 2.47665 17.2619 7.93039
286 1 -1.1104 3.90697 18.5994 12.519
301 1 -1.1104 3.80283 18.7319 9.60026
300 2 2.2208 5.234 17.2508 10.9779
309 2 2.2208 2.4911 20.0568 10.9368
308 1 -1.1104 3.82322 15.7597 12.3025
310 2 2.2208 2.37888 14.5023 10.7628
232 1 -1.1104 12.4773 15.9528 12.2696
315 1 -1.1104 9.79631 15.8515 12.596
231 1 -1.1104 12.4265 18.574 9.34852
320 2 2.2208 8.15867 17.2736 8.01015
324 2 2.2208 10.9163 19.884 8.07166
156 1 -1.1104 9.08567 18.816 6.65201
149 1 -1.1104 12.3537 16.098 6.6423
163 1 -1.1104 9.45056 15.97 6.62596
145 1 -1.1104 12.0731 18.6457 6.67537
321 1 -1.1104 9.718 18.5976 12.1854
137 2 2.2208 -0.422339 17.3143 5.31109
165 2 2.2208 13.5044 17.3667 2.36533
9653 2 2.2208 13.5237 5.94855 7.92896
202 2 2.2208 13.6807 20.2146 5.13508
341 2 2.2208 -0.44834 17.0679 -0.365148
25 2 2.2208 -0.321745 -2.73246 2.3913
329 2 2.2208 8.09081 0.190303 13.6423
331 2 2.2208 5.15817 8.75255 13.5134
9753 2 2.2208 -0.419554 -2.38612 13.5059
332 2 2.2208 2.42879 11.6671 13.3898
333 2 2.2208 7.98118 5.95611 13.6127
337 2 2.2208 8.27964 17.1955 13.5556
312 2 2.2208 -0.295 17.3882 10.8059
311 2 2.2208 -0.151952 20.1546 8.12152
535 2 2.2208 5.47257 20.031 13.5678
9672 2 2.2208 -0.334187 5.88339 10.6527
534 2 2.2208 2.36833 17.291 13.529
9745 2 2.2208 -0.283609 0.357916 -0.313706
362 2 2.2208 5.11718 0.25425 16.3885
363 1 -1.1104 1.0075 -3.85013 17.5917
367 1 -1.1104 0.78897 -3.9981 14.7384
375 1 -1.1104 1.05412 -1.00612 17.7426
377 2 2.2208 5.31656 -2.62068 19.1638
379 1 -1.1104 0.843112 -1.25648 15.0143
383 1 -1.1104 3.82797 -4.03273 17.7394
385 2 2.2208 2.54797 0.258947 19.1369
386 1 -1.1104 3.75778 -3.93377 14.7495
390 2 2.2208 2.25516 -2.55021 16.3505
392 1 -1.1104 3.70209 -1.06759 17.7957
393 1 -1.1104 3.88023 -1.02581 15.0561
365 1 -1.1104 6.73424 -4.1484 18.1042
350 2 2.2208 10.7414 0.518456 27.5302
356 2 2.2208 -0.396902 11.6574 27.7467
346 2 2.2208 8.07014 14.5028 27.714
598 1 -1.1104 6.79224 15.8027 23.5924
371 1 -1.1104 6.59979 -3.8479 15.1686
381 1 -1.1104 6.89797 -1.07245 15.036
376 1 -1.1104 6.59914 -1.39743 17.7904
405 2 2.2208 10.7737 0.256193 16.4537
406 1 -1.1104 12.2925 -3.9068 17.6457
408 1 -1.1104 12.0672 -4.17499 14.8704
412 1 -1.1104 12.3056 -1.25641 17.8776
413 2 2.2208 10.9842 -2.69343 19.3172
415 1 -1.1104 12.4726 -1.20059 15.2245
417 1 -1.1104 9.55605 -4.13972 17.8778
419 2 2.2208 8.0619 0.0815319 19.1048
420 1 -1.1104 9.19377 -4.07931 15.1357
424 2 2.2208 8.17948 -2.61279 16.4939
426 1 -1.1104 9.35308 -1.28606 17.8436
427 1 -1.1104 9.73209 -1.23338 15.0208
416 1 -1.1104 12.1883 -1.32864 20.7089
398 2 2.2208 13.6208 14.3288 22.1641
325 2 2.2208 13.5563 14.1816 27.6506
409 1 -1.1104 12.4232 -4.0845 20.6733
364 1 -1.1104 0.947806 1.65149 17.637
369 1 -1.1104 0.899864 1.44447 14.8509
378 2 2.2208 5.15328 3.14124 19.1928
384 1 -1.1104 3.73498 1.62027 17.7961
388 1 -1.1104 3.697 1.63898 15.0773
391 2 2.2208 2.31571 3.26796 16.3691
438 2 2.2208 5.21321 5.98925 16.3568
446 1 -1.1104 0.950066 4.3811 17.8975
451 1 -1.1104 0.90127 4.48061 15.0652
460 2 2.2208 2.31443 6.06719 19.1759
465 1 -1.1104 3.89682 4.47009 17.6518
467 1 -1.1104 3.64715 4.68327 15.0585
459 1 -1.1104 3.6889 7.51305 17.7295
462 1 -1.1104 3.74932 7.39286 15.0769
440 1 -1.1104 0.761546 7.44714 17.7963
442 1 -1.1104 0.787853 7.36185 14.7588
443 1 -1.1104 0.833556 7.564 20.7195
9276 2 2.2208 8.17228 -5.21868 24.9565
589 2 2.2208 -0.350408 20.1322 25.0102
9978 2 2.2208 -0.38316 0.439623 21.8938
684 2 2.2208 10.7905 20.0097 24.8255
455 1 -1.1104 6.54056 4.4586 15.1753
373 1 -1.1104 6.65107 1.79733 15.0646
366 1 -1.1104 6.64074 1.78026 17.8683
448 1 -1.1104 6.52196 4.70693 17.9581
444 1 -1.1104 6.4581 7.26942 14.7613
441 1 -1.1104 6.61346 7.35471 17.8588
407 1 -1.1104 12.3963 1.71783 17.6922
410 1 -1.1104 12.2745 1.68023 15.1282
414 2 2.2208 11.0789 3.02193 19.0431
418 1 -1.1104 9.48716 1.65599 17.734
422 1 -1.1104 9.54115 1.52997 14.8165
425 2 2.2208 7.99713 3.1406 16.5052
474 2 2.2208 10.6607 5.84835 16.4211
479 1 -1.1104 12.3004 4.62408 17.8299
482 1 -1.1104 12.3156 4.65724 15.2911
487 2 2.2208 8.09192 5.85157 19.2494
492 1 -1.1104 9.40682 4.50429 17.7298
494 1 -1.1104 9.34225 4.54965 14.9872
489 1 -1.1104 9.2487 7.33171 14.9934
477 1 -1.1104 12.1236 7.25057 14.9687
486 1 -1.1104 9.28054 7.27568 17.9229
476 1 -1.1104 12.1009 7.45943 17.8416
374 1 -1.1104 6.53865 1.51898 20.5116
445 1 -1.1104 6.49056 7.28787 20.6136
9329 2 2.2208 2.268 -5.20878 19.0982
349 2 2.2208 8.19017 20.2491 27.7044
396 2 2.2208 13.5959 8.74235 22.0884
9327 2 2.2208 10.9753 -5.33739 16.4174
432 2 2.2208 -0.380358 20.0946 19.2142
439 2 2.2208 5.18904 11.6362 16.2459
447 1 -1.1104 0.8732 10.3505 17.8251
450 2 2.2208 5.30307 8.70168 19.3014
453 1 -1.1104 1.17757 9.9067 15.0206
461 2 2.2208 2.40274 11.2669 19.1495
464 2 2.2208 2.34996 8.75107 16.4564
466 1 -1.1104 3.83239 10.269 17.6167
469 1 -1.1104 3.91611 10.0921 14.8281
502 1 -1.1104 0.980701 13.0126 17.8773
506 1 -1.1104 0.968666 12.9221 15.0452
522 1 -1.1104 3.98957 12.8912 17.6
525 1 -1.1104 3.7086 13.1062 14.695
454 1 -1.1104 1.03218 9.98502 20.4592
470 1 -1.1104 3.79418 10.2236 20.5381
327 2 2.2208 5.04105 3.17111 13.7314
504 1 -1.1104 6.62809 12.9463 17.7072
449 1 -1.1104 6.61519 10.1492 17.9537
510 1 -1.1104 6.65764 13.1625 14.8857
457 1 -1.1104 6.71289 10.2783 15.0909
475 2 2.2208 10.8334 11.3576 16.4158
480 1 -1.1104 12.1881 10.2253 18.2209
481 2 2.2208 10.8001 8.68613 19.263
484 1 -1.1104 12.3329 10.0041 15.0575
488 2 2.2208 8.07163 11.4827 19.3002
491 2 2.2208 7.94718 8.73374 16.4188
493 1 -1.1104 9.46312 10.1783 17.7423
496 1 -1.1104 9.57286 10.2084 14.9761
538 1 -1.1104 12.0708 12.9514 17.7967
540 1 -1.1104 12.4328 12.8857 15.0329
549 1 -1.1104 9.48711 13.2154 17.959
552 1 -1.1104 9.4527 13.078 15.1169
485 1 -1.1104 12.2166 10.1298 20.947
354 2 2.2208 2.43505 9.06653 27.813
435 1 -1.1104 9.49931 18.47 23.6666
562 2 2.2208 11.0413 14.2689 13.8119
401 2 2.2208 13.5444 8.60885 16.5376
622 1 -1.1104 12.3715 18.7335 23.6095
529 2 2.2208 2.62296 14.3456 16.3599
516 2 2.2208 5.09619 14.3167 19.223
501 2 2.2208 5.44983 17.382 16.4743
503 1 -1.1104 0.95163 18.6551 17.8464
508 1 -1.1104 1.20072 18.7716 15.029
514 1 -1.1104 1.21345 15.8207 18.0509
517 2 2.2208 5.24407 20.1328 19.2343
518 1 -1.1104 0.960722 15.8939 15.1815
523 1 -1.1104 3.81075 18.5645 17.8698
524 2 2.2208 2.55154 17.1055 19.3096
527 1 -1.1104 3.89507 18.763 15.3123
530 2 2.2208 2.45604 20.1757 16.6367
531 1 -1.1104 3.90567 15.7567 18.024
532 1 -1.1104 4.07178 15.8654 15.1905
512 1 -1.1104 6.68976 18.638 14.9522
519 1 -1.1104 1.1503 15.8763 20.8722
520 1 -1.1104 6.71845 15.7594 14.8478
533 1 -1.1104 3.90622 16.0052 20.6815
658 2 2.2208 -0.289589 8.88845 24.8837
521 1 -1.1104 6.8035 15.9038 20.8726
9303 2 2.2208 4.95716 -5.20526 22.1241
471 2 2.2208 8.00567 17.4128 24.9115
505 1 -1.1104 6.74336 18.9347 17.879
515 1 -1.1104 6.77857 15.8144 17.8945
548 1 -1.1104 12.3254 15.621 20.878
556 2 2.2208 8.11974 14.3661 16.4103
545 2 2.2208 11.1044 14.3101 19.0591
537 2 2.2208 11.0052 17.2783 16.4541
539 1 -1.1104 12.4267 18.7213 17.8936
542 1 -1.1104 12.427 18.7054 15.0113
544 1 -1.1104 12.4786 15.875 17.7655
546 2 2.2208 10.8699 20.0066 19.2318
547 1 -1.1104 12.3574 15.6141 15.1086
550 1 -1.1104 9.50804 18.4801 17.9198
551 2 2.2208 8.35817 17.0189 19.3974
554 1 -1.1104 9.53463 18.9371 15.0335
557 2 2.2208 8.0933 20.1654 16.5315
558 1 -1.1104 9.82044 16.0163 17.8356
559 1 -1.1104 9.61363 15.7263 15.3088
560 1 -1.1104 9.67912 15.6537 20.5611
555 1 -1.1104 9.54222 18.6026 20.8105
339 2 2.2208 5.18594 0.209115 27.7704
404 1 -1.1104 12.2288 15.8562 26.4805
513 1 -1.1104 6.43227 19.0032 20.7668
342 2 2.2208 2.41427 3.29437 27.709
9831 2 2.2208 -0.324393 3.01459 19.2229
380 1 -1.1104 1.03211 -0.9912 20.6346
345 2 2.2208 2.24768 20.0589 27.7125
394 1 -1.1104 3.76216 -1.05871 20.6251
563 1 -1.1104 9.48914 15.821 26.3007
500 2 2.2208 7.9175 20.3795 22.034
387 1 -1.1104 3.77365 -3.78732 20.6392
372 1 -1.1104 6.47901 -4.12381 20.9153
368 1 -1.1104 1.13629 -3.95668 20.4559
565 2 2.2208 5.25878 0.282 22.0873
566 1 -1.1104 1.00096 -4.03529 23.6017
570 1 -1.1104 1.14774 -4.08332 26.1259
574 1 -1.1104 1.1367 -1.20574 23.4292
576 2 2.2208 5.33512 -2.44559 24.9736
578 1 -1.1104 1.24016 -1.16102 26.2127
580 1 -1.1104 3.84265 -3.88365 23.6715
582 2 2.2208 2.41209 0.424011 24.9699
583 1 -1.1104 4.04555 -3.86456 26.4659
585 2 2.2208 2.51037 -2.56779 22.1017
587 1 -1.1104 3.63221 -1.11943 23.4694
588 1 -1.1104 3.83069 -0.923702 26.3313
382 1 -1.1104 6.52876 -1.26288 20.4146
579 1 -1.1104 6.58127 -1.09379 26.417
9793 2 2.2208 13.5921 0.322154 25.052
428 1 -1.1104 9.40854 -1.26196 20.51
575 1 -1.1104 6.69991 -1.04812 23.2923
568 1 -1.1104 6.73928 -3.78903 23.6074
572 1 -1.1104 6.95387 -4.18436 26.4571
421 1 -1.1104 9.51175 -3.86551 20.7261
601 2 2.2208 10.946 0.280952 21.9952
602 1 -1.1104 12.2969 -3.78954 23.5378
604 1 -1.1104 12.3996 -3.95297 26.3167
606 1 -1.1104 12.5205 -0.898902 23.5181
607 2 2.2208 11.0945 -2.59632 24.9735
609 1 -1.1104 12.1742 -1.15181 26.1968
610 1 -1.1104 9.53285 -3.97197 23.5194
612 2 2.2208 7.86972 0.415378 24.8825
613 1 -1.1104 9.72328 -3.8063 26.3109
615 2 2.2208 8.06433 -2.57793 22.0232
617 1 -1.1104 9.502 -1.10274 23.3981
618 1 -1.1104 9.28868 -1.20437 26.1828
10010 2 2.2208 -0.263805 -2.56414 19.2455
627 1 -1.1104 12.0625 18.7884 26.3126
543 1 -1.1104 12.2525 18.7043 20.7797
370 1 -1.1104 0.912864 1.95957 20.6383
389 1 -1.1104 3.57996 1.95789 20.8406
463 1 -1.1104 3.88968 7.38042 20.5467
499 2 2.2208 8.13824 14.4935 22.1798
468 1 -1.1104 3.45549 4.54057 20.395
452 1 -1.1104 0.888543 4.66496 20.6973
567 1 -1.1104 0.840454 1.82507 23.4756
571 1 -1.1104 1.0153 1.71964 26.3455
577 2 2.2208 5.33071 3.3158 24.8975
581 1 -1.1104 3.99157 1.66041 23.4449
584 1 -1.1104 3.59785 1.71409 26.4399
586 2 2.2208 2.26826 3.35418 21.9326
630 2 2.2208 5.14763 5.99712 21.902
636 1 -1.1104 0.882219 4.89569 23.5111
641 1 -1.1104 1.02182 4.58872 26.3204
646 2 2.2208 2.41974 6.05935 24.7922
650 1 -1.1104 3.70033 4.43138 23.2807
652 1 -1.1104 3.87787 4.70992 26.0926
648 1 -1.1104 4.0132 7.4786 26.325
645 1 -1.1104 3.84117 7.16314 23.3093
634 1 -1.1104 1.07959 7.63291 26.4794
632 1 -1.1104 1.02247 7.52995 23.4518
633 1 -1.1104 6.62666 7.24317 23.386
360 2 2.2208 10.7963 11.5251 27.619
490 1 -1.1104 9.38526 7.20257 20.5977
483 1 -1.1104 12.1574 4.57291 20.6234
478 1 -1.1104 12.2594 7.33454 20.51
456 1 -1.1104 6.35054 4.58294 20.5122
569 1 -1.1104 6.55876 1.73122 23.516
638 1 -1.1104 6.45683 4.66393 23.5538
643 1 -1.1104 6.53119 4.71861 26.4124
573 1 -1.1104 6.32958 1.73515 26.3102
635 1 -1.1104 6.59821 7.26865 26.0696
495 1 -1.1104 9.37772 4.37823 20.6876
423 1 -1.1104 9.47643 1.61225 20.4707
411 1 -1.1104 12.3532 1.61024 20.4606
603 1 -1.1104 12.1236 1.83509 23.1559
605 1 -1.1104 11.946 1.65971 26.2068
608 2 2.2208 10.7578 3.15409 24.7029
611 1 -1.1104 9.39981 1.77312 23.4855
614 1 -1.1104 9.34059 1.75545 26.1397
616 2 2.2208 7.95009 3.01385 21.9813
662 1 -1.1104 9.34184 4.32593 26.2358
664 1 -1.1104 9.36436 4.65698 23.35
668 2 2.2208 7.88262 6.00748 24.914
669 2 2.2208 10.8276 5.93953 22.0279
673 1 -1.1104 12.1211 4.34364 23.3014
676 1 -1.1104 12.1582 4.3783 26.4386
672 1 -1.1104 12.324 7.27935 26.2034
678 1 -1.1104 9.35003 7.41983 23.2805
671 1 -1.1104 12.5559 7.47564 23.4872
666 1 -1.1104 9.4336 7.13686 26.2712
628 1 -1.1104 12.2403 15.995 23.6861
507 1 -1.1104 1.04402 12.9896 20.8957
526 1 -1.1104 3.65349 12.9668 20.3255
511 1 -1.1104 6.60253 12.8046 20.4623
631 2 2.2208 5.44803 11.5867 22.0587
637 1 -1.1104 0.911411 10.31 23.3929
640 2 2.2208 5.29812 8.81738 24.8961
642 1 -1.1104 0.992505 10.1682 26.2912
647 2 2.2208 2.58995 11.6386 24.7228
649 2 2.2208 2.47256 8.78382 21.9899
651 1 -1.1104 3.95179 10.082 23.5077
653 1 -1.1104 4.145 10.1058 26.285
619 1 -1.1104 3.79663 12.8888 26.0703
656 1 -1.1104 1.02145 13.1679 23.5323
683 1 -1.1104 1.2536 12.9691 26.2262
687 1 -1.1104 3.98944 12.9398 23.1979
644 1 -1.1104 6.90464 9.96862 26.2611
639 1 -1.1104 6.65063 10.2515 23.6713
686 1 -1.1104 6.59385 12.9403 26.4197
660 1 -1.1104 6.79351 12.9322 23.5129
458 1 -1.1104 6.65545 10.0359 20.6702
431 2 2.2208 -0.2384 14.3589 19.4272
9025 2 2.2208 11.0464 -5.16096 27.7821
541 1 -1.1104 12.0961 13.0389 20.7333
497 1 -1.1104 9.64601 10.0289 20.5353
553 1 -1.1104 9.06443 12.5885 20.9877
626 1 -1.1104 12.0894 12.7772 26.283
661 1 -1.1104 9.45857 9.95922 26.2917
663 1 -1.1104 9.41615 10.1083 23.2486
665 2 2.2208 7.92149 8.82779 22.2344
667 2 2.2208 8.12447 11.6256 24.9589
670 2 2.2208 10.8941 11.4989 22.0863
674 1 -1.1104 12.2132 10.3426 23.5471
675 2 2.2208 10.9054 8.67692 24.9523
677 1 -1.1104 12.2547 10.0484 26.4056
600 1 -1.1104 12.2569 13.1178 23.6872
429 1 -1.1104 9.67361 12.9786 23.754
473 1 -1.1104 9.17531 13.0274 26.4036
498 1 -1.1104 9.3997 18.5717 26.3625
629 2 2.2208 10.927 14.598 24.8709
599 2 2.2208 10.9243 17.2577 22.125
472 1 -1.1104 6.40961 18.823 26.5012
509 1 -1.1104 1.07671 18.3852 20.5878
528 1 -1.1104 3.76293 18.9918 20.8921
593 2 2.2208 2.60801 20.224 22.2618
561 1 -1.1104 9.57084 15.7622 23.3802
690 1 -1.1104 1.11854 15.7517 26.4127
591 2 2.2208 2.38397 14.5193 22.0307
657 1 -1.1104 1.17038 18.6128 23.5924
689 1 -1.1104 1.11798 18.5774 26.4319
597 1 -1.1104 1.00278 15.8457 23.5958
595 1 -1.1104 3.88622 15.895 23.5692
688 1 -1.1104 6.65383 15.8473 26.4227
681 1 -1.1104 6.82032 18.6795 23.4681
679 2 2.2208 5.44775 14.5014 24.937
620 1 -1.1104 3.97274 15.6658 26.3705
655 2 2.2208 5.31421 17.3842 22.0128
654 1 -1.1104 3.80905 18.7737 26.5655
685 1 -1.1104 4.0635 18.5788 23.7471
680 2 2.2208 5.35794 20.2137 24.984
621 2 2.2208 2.5534 17.2347 24.9953
340 2 2.2208 2.51237 -2.46956 27.7588
9786 2 2.2208 13.5731 5.77575 25.0013
353 2 2.2208 5.1889 6.11814 27.6679
355 2 2.2208 5.393 11.6177 27.7375
625 2 2.2208 13.6718 11.472 19.2808
564 2 2.2208 -0.269655 17.3257 22.265
590 2 2.2208 -0.450802 14.4338 25.0468
343 2 2.2208 2.57133 14.5432 27.6287
336 2 2.2208 11.0034 20.0653 13.7452
359 2 2.2208 8.11273 8.643 27.6266
9979 2 2.2208 -0.34746 -2.32761 24.8599
400 2 2.2208 13.6221 5.92279 19.2513
682 2 2.2208 13.6108 11.613 24.8302
9995 2 2.2208 13.6168 3.06989 22.0805
399 2 2.2208 13.5929 17.2725 24.9845
357 2 2.2208 -0.431833 6.07261 27.6787
351 2 2.2208 8.12042 -2.65874 27.7299
9736 2 2.2208 13.6767 6.02871 13.7367
403 2 2.2208 2.44947 0.16497 13.7154
335 2 2.2208 8.08049 11.8338 13.6481
358 2 2.2208 10.6982 5.80274 27.7249
361 2 2.2208 13.542 8.82972 27.6462
397 2 2.2208 -0.317435 20.0971 13.7231
691 2 2.2208 5.26528 23.1246 5.14635
693 1 -1.1104 0.883961 24.3034 0.703987
694 1 -1.1104 1.03134 24.5471 3.6486
695 1 -1.1104 0.946412 21.3713 1.04133
697 2 2.2208 5.2582 25.7618 2.41797
698 1 -1.1104 0.907411 21.5288 3.82567
700 1 -1.1104 3.75489 24.199 0.815224
701 2 2.2208 2.34326 22.8168 2.24948
703 1 -1.1104 3.64464 24.3093 3.65992
704 2 2.2208 2.50669 25.7534 5.09116
705 1 -1.1104 3.97537 21.458 1.0636
707 1 -1.1104 3.93756 21.5318 3.78791
706 1 -1.1104 3.88719 27.1595 0.927886
696 1 -1.1104 1.0119 27.3591 1.21861
708 1 -1.1104 3.79375 27.1224 3.58891
832 1 -1.1104 1.08729 24.1877 6.67647
834 1 -1.1104 1.07634 21.6215 6.65102
839 1 -1.1104 3.90243 21.5417 6.54392
714 1 -1.1104 6.80997 21.6161 1.07608
1044 2 2.2208 8.11445 37.0989 -0.310447
838 1 -1.1104 3.86949 24.4469 6.44885
835 1 -1.1104 1.13508 26.8688 6.64488
1038 2 2.2208 2.30182 37.1637 -0.419219
1013 2 2.2208 13.6212 22.8421 7.90614
715 1 -1.1104 6.63779 27.1657 1.20379
716 1 -1.1104 6.54841 21.5216 3.70794
717 1 -1.1104 6.80768 27.4336 4.11217
712 1 -1.1104 6.80255 24.1934 1.16672
713 1 -1.1104 6.52508 24.4104 3.90053
718 2 2.2208 10.9087 22.8523 5.26697
720 1 -1.1104 12.2266 24.5435 1.11497
721 1 -1.1104 12.2712 24.318 3.90862
722 1 -1.1104 12.4245 21.6285 0.848949
724 2 2.2208 10.9447 25.7834 2.3848
725 1 -1.1104 12.1136 21.4574 3.70643
727 1 -1.1104 9.42458 24.3659 1.20179
728 2 2.2208 8.15024 22.926 2.50795
730 1 -1.1104 9.41101 24.2907 3.86138
731 2 2.2208 8.14507 25.9085 5.15476
732 1 -1.1104 9.5624 21.5547 0.931957
734 1 -1.1104 9.46526 21.3512 3.67514
733 1 -1.1104 9.38897 27.1592 1.05104
723 1 -1.1104 12.0823 27.2783 0.892385
726 1 -1.1104 12.421 27.3737 3.85409
866 1 -1.1104 12.4118 21.4934 6.49555
1015 2 2.2208 -0.264703 25.5712 7.99671
869 1 -1.1104 9.61555 21.4643 6.60703
865 1 -1.1104 12.2696 24.4635 6.49026
836 1 -1.1104 6.65379 21.8862 6.56616
837 1 -1.1104 6.65136 27.2618 7.05361
699 1 -1.1104 1.04012 27.255 4.0702
692 2 2.2208 5.19391 28.6577 5.57027
702 2 2.2208 2.46686 28.8594 2.48602
740 1 -1.1104 1.04766 30.1171 0.897909
743 1 -1.1104 0.976729 30.2575 4.02
746 1 -1.1104 1.00323 33.0041 0.994626
747 2 2.2208 5.32769 31.4457 2.34353
749 1 -1.1104 1.14029 32.8143 3.64363
751 1 -1.1104 3.86148 29.9797 0.955686
754 1 -1.1104 3.80273 29.8671 3.78866
756 2 2.2208 2.54878 31.5544 5.19077
758 1 -1.1104 3.86069 32.9587 0.913682
759 1 -1.1104 3.874 33.0054 3.79097
765 1 -1.1104 6.77839 32.8667 0.924424
750 1 -1.1104 6.65649 32.9864 3.792
897 1 -1.1104 3.80084 33.0698 6.47648
763 1 -1.1104 6.72069 29.9563 0.908782
891 1 -1.1104 6.5201 30.002 6.79652
895 1 -1.1104 3.79399 30.2087 6.67645
889 1 -1.1104 0.971944 29.8515 6.67515
989 2 2.2208 8.01204 45.7173 8.16673
992 1 -1.1104 12.4999 44.2483 9.48675
1052 2 2.2208 2.4491 42.8864 -0.168117
1056 2 2.2208 8.01056 42.8462 -0.308711
735 1 -1.1104 9.71195 27.0975 3.93764
764 1 -1.1104 6.57198 30.2795 3.75167
995 1 -1.1104 12.4748 44.025 12.2282
719 2 2.2208 10.8807 28.4666 5.34433
729 2 2.2208 8.05047 28.6208 2.42615
767 1 -1.1104 12.51 30.0807 0.977758
769 1 -1.1104 12.2309 30.2247 3.73194
771 1 -1.1104 12.3393 32.8677 1.03725
772 2 2.2208 10.8714 31.4406 2.39106
774 1 -1.1104 12.3116 32.9063 3.82416
775 1 -1.1104 9.64634 30.1146 1.12162
778 1 -1.1104 9.49224 29.8616 3.71099
780 2 2.2208 8.01037 31.312 5.24692
782 1 -1.1104 9.65463 32.9982 1.08428
783 1 -1.1104 9.15362 32.7798 3.95301
928 1 -1.1104 9.9278 32.8616 6.64826
923 1 -1.1104 12.1196 30.0608 6.59588
925 1 -1.1104 12.6331 32.747 6.73465
1249 2 2.2208 7.97819 45.6978 13.6616
739 2 2.2208 5.37866 34.3409 5.45169
741 1 -1.1104 0.943296 35.7127 0.795765
744 1 -1.1104 0.643572 35.7279 3.81073
748 2 2.2208 5.25357 37.0075 2.71424