ITEM: TIMESTEP
50000
ITEM: NUMBER OF ATOMS
18000
ITEM: BOX BOUNDS xy xz yz pp pp pp
-1.5054571783101198e-01 2.8044545717831500e+01 0.0000000000000000e+00
-1.4743331769594770e+00 3.3620233317696244e+02 0.0000000000000000e+00
-1.4371778408572572e-01 2.8037717784086219e+01 0.0000000000000000e+00
ITEM: ATOMS id type q mass x y z
121 2 2.2208 232.038 -0.114103 21.023 11.1368
9052 2 2.2208 232.038 13.8481 9.83168 8.45574
7 2 2.2208 232.038 8.6764 -1.34502 2.75691
4 1 -1.1104 15.9994 12.8448 22.3747 12.6615
324 1 -1.1104 15.9994 12.7162 5.40125 12.3942
29 2 2.2208 232.038 11.3156 9.81643 -0.0620352
9004 2 2.2208 232.038 -0.02386 6.84535 2.91698
8 2 2.2208 232.038 5.68103 1.48372 2.64451
9 1 -1.1104 15.9994 12.7128 8.30698 12.7982
10 2 2.2208 232.038 11.3738 1.49784 2.56166
11 1 -1.1104 15.9994 9.86991 22.4105 12.6533
323 1 -1.1104 15.9994 9.79776 8.16018 12.4134
13 2 2.2208 232.038 2.91818 4.13267 2.66379
14 1 -1.1104 15.9994 6.91695 22.504 12.7888
322 1 -1.1104 15.9994 7.07313 8.36586 12.5104
53 2 2.2208 232.038 2.92003 -1.34704 8.42477
17 2 2.2208 232.038 8.35833 4.16639 2.66551
18 2 2.2208 232.038 5.56507 7.0798 2.73085
8997 2 2.2208 232.038 0.102552 4.02848 5.61244
20 2 2.2208 232.038 11.2787 6.97341 2.62455
21 1 -1.1104 15.9994 4.10102 22.2506 12.556
22 1 -1.1104 15.9994 1.43035 16.8094 12.7254
23 2 2.2208 232.038 2.83835 9.8721 2.82182
8994 2 2.2208 232.038 0.147157 7.09078 8.47369
16 2 2.2208 232.038 8.50268 7.01122 -0.0210228
3 2 2.2208 232.038 3.07488 -1.42714 2.71643
27 2 2.2208 232.038 8.42574 9.89205 2.64819
28 2 2.2208 232.038 5.69342 12.7787 2.76905
57 2 2.2208 232.038 8.77931 -1.4636 8.32504
30 2 2.2208 232.038 11.2927 12.6602 2.55709
31 1 -1.1104 15.9994 12.7766 13.9923 12.6528
32 1 -1.1104 15.9994 12.6068 11.0602 12.8215
33 2 2.2208 232.038 2.79348 15.5035 2.57897
335 2 2.2208 232.038 11.383 6.98601 13.861
35 1 -1.1104 15.9994 9.76063 14.0627 12.5021
36 1 -1.1104 15.9994 6.99156 13.9429 12.4723
37 2 2.2208 232.038 8.62168 15.4599 2.69329
38 2 2.2208 232.038 5.66819 18.3333 2.54416
39 1 -1.1104 15.9994 9.76458 11.2085 12.6577
40 2 2.2208 232.038 11.4054 18.0023 2.7446
41 1 -1.1104 15.9994 7.0902 11.2095 12.6882
42 1 -1.1104 15.9994 4.08813 13.8364 12.6545
43 2 2.2208 232.038 2.70628 20.9307 2.56266
321 1 -1.1104 15.9994 9.91276 5.41577 12.5131
45 1 -1.1104 15.9994 1.24977 14.1038 12.6052
46 1 -1.1104 15.9994 4.26259 11.0921 12.7012
47 2 2.2208 232.038 8.50739 20.9514 2.64278
48 2 2.2208 232.038 5.49076 23.8227 2.6782
49 1 -1.1104 15.9994 1.52278 11.344 12.6554
50 2 2.2208 232.038 11.2427 23.8011 2.5628
51 1 -1.1104 15.9994 1.32742 22.374 12.3705
52 2 2.2208 232.038 3.05223 1.3415 5.56311
668 2 2.2208 232.038 0.014512 15.5728 -0.0873386
54 1 -1.1104 15.9994 12.8178 19.6475 12.6559
8998 2 2.2208 232.038 0.174034 1.39825 8.30869
56 2 2.2208 232.038 8.50954 1.37833 5.41471
8988 2 2.2208 232.038 -0.0119772 12.6168 8.4512
58 2 2.2208 232.038 5.94183 1.38512 8.36144
8984 2 2.2208 232.038 0.0706091 4.34091 11.2404
60 2 2.2208 232.038 11.4805 1.39796 8.32591
61 1 -1.1104 15.9994 12.8301 16.8222 12.3901
62 2 2.2208 232.038 2.8922 7.01648 5.56031
63 2 2.2208 232.038 2.91957 4.27686 8.40257
64 1 -1.1104 15.9994 9.91041 19.521 12.625
65 2 2.2208 232.038 5.73997 4.33845 5.55789
66 2 2.2208 232.038 8.45985 6.83276 5.31794
67 2 2.2208 232.038 8.63329 4.26219 8.25115
68 2 2.2208 232.038 5.75159 7.08318 8.3442
69 2 2.2208 232.038 11.2927 4.34071 5.36384
70 2 2.2208 232.038 11.1548 7.05176 8.30791
71 1 -1.1104 15.9994 7.18025 19.6328 12.5763
72 2 2.2208 232.038 2.79342 12.5777 5.51947
73 2 2.2208 232.038 2.80817 10.0115 8.3125
74 1 -1.1104 15.9994 9.94638 16.7312 12.6663
75 2 2.2208 232.038 5.59732 9.85427 5.5986
76 2 2.2208 232.038 8.49172 12.7974 5.55219
77 2 2.2208 232.038 8.26245 9.92843 8.3142
78 2 2.2208 232.038 5.42269 12.6051 8.47199
79 2 2.2208 232.038 11.1703 9.84775 5.43467
80 2 2.2208 232.038 11.1975 12.7042 8.48901
666 2 2.2208 232.038 2.95053 12.7144 -0.0777691
82 2 2.2208 232.038 2.73601 18.2974 5.47844
83 2 2.2208 232.038 2.79039 15.5048 8.27789
105 2 2.2208 232.038 11.4609 -1.46164 11.057
85 2 2.2208 232.038 5.69575 15.5841 5.63562
86 2 2.2208 232.038 8.48984 18.4026 5.47385
87 2 2.2208 232.038 8.4543 15.4784 8.40773
88 2 2.2208 232.038 5.59965 18.2017 8.30317
89 2 2.2208 232.038 11.3411 15.4371 5.51743
90 2 2.2208 232.038 11.4165 18.077 8.26472
663 2 2.2208 232.038 3.02593 6.96025 0.0282876
92 2 2.2208 232.038 2.79343 23.7309 5.37796
93 2 2.2208 232.038 2.83941 20.9967 8.38256
320 1 -1.1104 15.9994 6.87128 5.5641 12.4803
95 2 2.2208 232.038 5.58271 21.0506 5.49978
96 2 2.2208 232.038 8.46313 23.8172 5.42165
97 2 2.2208 232.038 8.43416 21.0884 8.32841
98 2 2.2208 232.038 5.48182 23.8863 8.23048
99 2 2.2208 232.038 11.2517 21.0644 5.60941
100 2 2.2208 232.038 11.2171 23.2638 8.36623
101 1 -1.1104 15.9994 6.97485 16.7515 12.6199
102 2 2.2208 232.038 2.95258 1.48468 11.2474
81 2 2.2208 232.038 -0.0371323 15.4667 5.58562
104 2 2.2208 232.038 8.55026 1.30926 11.0786
328 2 2.2208 232.038 8.66212 -1.3657 13.9043
106 1 -1.1104 15.9994 4.31514 19.5903 12.6705
107 2 2.2208 232.038 2.86374 7.10097 11.1094
108 2 2.2208 232.038 5.65349 4.10676 11.1239
109 2 2.2208 232.038 8.3675 7.05634 11.0611
110 2 2.2208 232.038 11.3427 4.03391 11.0642
111 1 -1.1104 15.9994 1.28086 19.4113 9.67348
112 2 2.2208 232.038 2.83553 12.6327 11.1447
113 2 2.2208 232.038 5.61125 9.85471 11.1279
114 2 2.2208 232.038 8.466 12.6691 11.2012
115 2 2.2208 232.038 11.2577 9.68069 11.2163
116 1 -1.1104 15.9994 4.22861 16.6355 12.5708
117 2 2.2208 232.038 2.79653 18.0555 11.1805
118 2 2.2208 232.038 5.66265 15.4436 11.1427
119 2 2.2208 232.038 8.51257 18.1684 11.2355
120 2 2.2208 232.038 11.2496 15.4355 11.1797
8981 2 2.2208 232.038 -0.102861 15.5084 11.3653
122 2 2.2208 232.038 2.75066 23.8293 11.1071
123 2 2.2208 232.038 5.5791 21.1048 11.2542
124 2 2.2208 232.038 8.41906 23.726 11.3544
125 2 2.2208 232.038 11.2829 20.8603 11.3503
126 1 -1.1104 15.9994 1.61692 -0.205679 1.22919
127 1 -1.1104 15.9994 4.46381 -0.0742309 1.22784
128 1 -1.1104 15.9994 1.47782 0.122792 4.10542
129 1 -1.1104 15.9994 4.29362 -0.0427585 4.1714
130 1 -1.1104 15.9994 1.6671 2.60458 1.18565
131 1 -1.1104 15.9994 4.41825 2.71409 1.35791
132 1 -1.1104 15.9994 1.42284 2.72459 4.19049
133 1 -1.1104 15.9994 4.35701 2.73277 4.12954
134 1 -1.1104 15.9994 7.31952 -0.319628 1.34314
135 1 -1.1104 15.9994 10.1699 -0.0481523 1.43974
136 1 -1.1104 15.9994 7.03552 0.00556087 4.20797
137 1 -1.1104 15.9994 9.86986 -0.00676371 4.2424
138 1 -1.1104 15.9994 7.19803 2.63589 1.20994
139 1 -1.1104 15.9994 9.87607 2.83031 1.25012
140 1 -1.1104 15.9994 7.10465 2.88247 4.04044
141 1 -1.1104 15.9994 9.91961 2.7477 4.09951
142 1 -1.1104 15.9994 12.8995 -0.0218244 1.06009
143 1 -1.1104 15.9994 12.7946 0.128397 4.01607
144 1 -1.1104 15.9994 13.0083 2.79788 1.10886
145 1 -1.1104 15.9994 12.9723 2.82025 3.85822
146 1 -1.1104 15.9994 1.47 5.54859 1.24699
147 1 -1.1104 15.9994 4.20444 5.46741 1.40908
148 1 -1.1104 15.9994 1.48229 5.48983 4.01784
149 1 -1.1104 15.9994 4.39427 5.5604 4.20572
150 1 -1.1104 15.9994 1.49398 8.57003 1.41374
151 1 -1.1104 15.9994 4.46505 8.34955 1.31378
152 1 -1.1104 15.9994 1.53076 8.38622 4.17642
153 1 -1.1104 15.9994 4.15757 8.26162 4.11435
154 1 -1.1104 15.9994 6.99343 5.40828 1.26417
155 1 -1.1104 15.9994 9.95252 5.41969 1.14915
156 1 -1.1104 15.9994 7.08068 5.68504 3.8906
157 1 -1.1104 15.9994 9.91526 5.4864 4.0236
158 1 -1.1104 15.9994 7.15815 8.29152 1.27675
159 1 -1.1104 15.9994 9.95261 8.16065 1.33623
160 1 -1.1104 15.9994 7.14381 8.32137 4.12323
161 1 -1.1104 15.9994 10.1364 8.09519 4.17623
162 1 -1.1104 15.9994 12.6264 5.49 1.27588
163 1 -1.1104 15.9994 12.6401 5.73299 4.06039
164 1 -1.1104 15.9994 12.6574 8.40995 1.28138
165 1 -1.1104 15.9994 12.8033 8.44338 4.15668
166 1 -1.1104 15.9994 1.41244 11.378 1.32324
167 1 -1.1104 15.9994 4.25496 11.1229 1.37851
168 1 -1.1104 15.9994 1.38389 11.1482 4.06291
169 1 -1.1104 15.9994 4.23978 11.2102 4.1182
170 1 -1.1104 15.9994 1.57523 14.0738 1.29166
171 1 -1.1104 15.9994 4.29444 14.0352 1.286
172 1 -1.1104 15.9994 1.36515 13.9456 4.17962
173 1 -1.1104 15.9994 4.32754 13.976 4.27456
174 1 -1.1104 15.9994 7.03903 11.2 1.30788
175 1 -1.1104 15.9994 9.9207 11.0674 1.13269
176 1 -1.1104 15.9994 7.16751 11.2922 4.17746
177 1 -1.1104 15.9994 9.86329 11.1879 3.93534
178 1 -1.1104 15.9994 7.17883 14.3119 1.16097
179 1 -1.1104 15.9994 10.1078 13.821 1.21639
180 1 -1.1104 15.9994 7.15757 14.0324 4.02013
181 1 -1.1104 15.9994 10.0612 13.947 4.08635
182 1 -1.1104 15.9994 12.7785 11.2362 1.21702
183 1 -1.1104 15.9994 12.5775 11.148 4.23354
184 1 -1.1104 15.9994 12.9338 13.9004 1.39314
185 1 -1.1104 15.9994 12.6555 13.9902 4.04109
186 1 -1.1104 15.9994 1.32822 16.7493 1.25919
187 1 -1.1104 15.9994 4.28156 16.7759 1.16294
188 1 -1.1104 15.9994 1.49695 16.7584 3.93702
189 1 -1.1104 15.9994 4.34937 17.0684 3.93862
190 1 -1.1104 15.9994 1.34151 19.4562 1.13075
191 1 -1.1104 15.9994 4.26832 19.4281 1.10878
192 1 -1.1104 15.9994 1.30885 19.5803 3.93647
193 1 -1.1104 15.9994 4.29396 19.8484 4.19233
194 1 -1.1104 15.9994 7.25465 16.9376 1.25768
195 1 -1.1104 15.9994 10.0526 16.5623 1.41235
196 1 -1.1104 15.9994 7.13859 16.7404 4.09515
197 1 -1.1104 15.9994 9.78677 16.7675 4.03718
198 1 -1.1104 15.9994 7.19937 19.5894 1.25883
199 1 -1.1104 15.9994 9.89927 19.5183 1.22677
200 1 -1.1104 15.9994 6.99528 19.5512 4.14403
201 1 -1.1104 15.9994 9.86682 19.7529 4.06756
202 1 -1.1104 15.9994 12.8148 16.7407 1.2943
203 1 -1.1104 15.9994 12.6197 16.7833 4.13898
204 1 -1.1104 15.9994 12.7323 19.3357 1.25936
205 1 -1.1104 15.9994 12.4732 19.5866 4.24411
206 1 -1.1104 15.9994 1.05744 22.2026 1.55043
207 1 -1.1104 15.9994 4.25023 22.2523 1.24864
208 1 -1.1104 15.9994 1.50626 22.1829 4.28002
209 1 -1.1104 15.9994 4.23151 22.4635 3.97075
210 1 -1.1104 15.9994 7.16361 22.2913 1.16943
211 1 -1.1104 15.9994 9.90606 22.3527 1.322
212 1 -1.1104 15.9994 7.20321 22.2558 4.24253
213 1 -1.1104 15.9994 9.89485 22.6733 4.0381
214 1 -1.1104 15.9994 12.7594 22.2314 1.46416
215 1 -1.1104 15.9994 12.6244 22.6066 4.04926
216 1 -1.1104 15.9994 1.57218 -0.127993 6.95828
217 1 -1.1104 15.9994 4.49228 -0.0292617 7.09053
319 1 -1.1104 15.9994 4.32037 8.32682 12.5667
219 1 -1.1104 15.9994 4.58131 0.089368 9.86873
220 1 -1.1104 15.9994 1.78684 2.70537 6.98278
221 1 -1.1104 15.9994 4.41342 3.00169 7.03807
222 1 -1.1104 15.9994 1.52272 0.0379805 9.74387
223 1 -1.1104 15.9994 4.29832 2.90604 9.6711
224 1 -1.1104 15.9994 7.34141 -0.0102315 7.00197
225 1 -1.1104 15.9994 10.1061 0.0602861 7.13698
226 1 -1.1104 15.9994 7.30368 -0.0787045 9.72998
227 1 -1.1104 15.9994 10.0755 -0.0526963 9.76161
228 1 -1.1104 15.9994 7.0552 2.77693 6.83475
229 1 -1.1104 15.9994 9.90613 2.86552 6.8899
230 1 -1.1104 15.9994 7.2975 2.77827 9.67499
231 1 -1.1104 15.9994 10.0568 2.8333 9.63453
232 1 -1.1104 15.9994 12.8222 -0.0916473 6.80085
233 1 -1.1104 15.9994 12.8397 -0.0459099 9.52788
234 1 -1.1104 15.9994 12.6589 2.77321 6.93774
235 1 -1.1104 15.9994 12.973 2.56961 9.55052
236 1 -1.1104 15.9994 1.50124 5.68104 6.89172
237 1 -1.1104 15.9994 4.30598 5.77473 6.91123
238 1 -1.1104 15.9994 1.33636 2.80516 9.85992
239 1 -1.1104 15.9994 4.5613 5.62748 9.86252
240 1 -1.1104 15.9994 1.45311 8.51259 6.89592
241 1 -1.1104 15.9994 4.14981 8.58484 6.82742
242 1 -1.1104 15.9994 1.53787 5.56353 9.74
243 1 -1.1104 15.9994 4.37487 8.46101 9.58922
244 1 -1.1104 15.9994 7.08059 5.37861 6.83961
245 1 -1.1104 15.9994 9.81448 5.55742 6.72643
246 1 -1.1104 15.9994 7.28624 5.78886 9.61383
247 1 -1.1104 15.9994 10.1333 5.55293 9.60687
248 1 -1.1104 15.9994 6.81719 8.33418 6.76701
249 1 -1.1104 15.9994 9.67578 8.41384 7.04789
250 1 -1.1104 15.9994 7.01974 8.65285 9.64215
251 1 -1.1104 15.9994 9.8547 8.37767 9.80019
252 1 -1.1104 15.9994 12.5489 5.65063 6.9467
253 1 -1.1104 15.9994 12.7396 5.42953 9.58895
254 1 -1.1104 15.9994 12.5373 8.35331 7.17172
255 1 -1.1104 15.9994 12.6371 8.18899 9.86535
256 1 -1.1104 15.9994 1.53616 11.261 6.95161
257 1 -1.1104 15.9994 4.12374 11.1609 6.85829
258 1 -1.1104 15.9994 1.52959 8.37617 9.82149
259 1 -1.1104 15.9994 4.22946 11.1873 9.82298
260 1 -1.1104 15.9994 1.26335 14.1893 6.83275
261 1 -1.1104 15.9994 4.04994 14.0325 6.99255
262 1 -1.1104 15.9994 1.38836 11.0885 9.74357
263 1 -1.1104 15.9994 4.25374 14.0141 9.93549
264 1 -1.1104 15.9994 6.75091 11.345 7.13224
265 1 -1.1104 15.9994 9.63709 11.3126 6.81748
266 1 -1.1104 15.9994 6.80787 11.213 9.81342
267 1 -1.1104 15.9994 9.87435 11.0755 9.6782
268 1 -1.1104 15.9994 7.03603 14.1302 6.89941
269 1 -1.1104 15.9994 9.91862 14.1194 6.97415
270 1 -1.1104 15.9994 7.03114 13.8782 9.70362
271 1 -1.1104 15.9994 9.73278 14.0501 9.7821
272 1 -1.1104 15.9994 12.487 11.1312 7.12601
273 1 -1.1104 15.9994 12.6035 11.18 9.94338
274 1 -1.1104 15.9994 12.6927 13.9649 6.81328
275 1 -1.1104 15.9994 12.6814 13.8838 9.8379
276 1 -1.1104 15.9994 1.42057 16.893 6.90133
277 1 -1.1104 15.9994 4.08585 16.8787 6.80502
278 1 -1.1104 15.9994 1.31515 14.0998 9.69709
279 1 -1.1104 15.9994 4.24845 16.8665 9.56191
280 1 -1.1104 15.9994 1.31924 19.6172 6.81156
281 1 -1.1104 15.9994 4.19653 19.5948 6.91528
282 1 -1.1104 15.9994 1.4429 16.7082 9.92384
283 1 -1.1104 15.9994 4.26624 19.6208 9.62891
284 1 -1.1104 15.9994 7.18642 16.9439 6.97079
285 1 -1.1104 15.9994 10.069 16.9965 6.70039
286 1 -1.1104 15.9994 7.1824 16.837 9.91742
287 1 -1.1104 15.9994 9.87379 16.6691 9.78931
288 1 -1.1104 15.9994 7.03992 19.6228 6.89744
289 1 -1.1104 15.9994 9.93676 19.6262 6.8598
290 1 -1.1104 15.9994 7.14347 19.6046 9.65721
291 1 -1.1104 15.9994 10.0031 19.4285 9.76115
292 1 -1.1104 15.9994 12.7982 16.7415 6.92991
293 1 -1.1104 15.9994 12.8022 16.6268 9.60231
294 1 -1.1104 15.9994 12.6932 19.7266 6.9193
295 1 -1.1104 15.9994 12.6053 19.2925 9.74158
296 1 -1.1104 15.9994 1.30935 22.408 6.97561
297 1 -1.1104 15.9994 4.13309 22.3629 6.91888
298 1 -1.1104 15.9994 1.42544 22.3716 9.50154
299 1 -1.1104 15.9994 4.37243 22.4837 9.77088
300 1 -1.1104 15.9994 7.04306 22.453 6.94779
301 1 -1.1104 15.9994 9.82892 22.2056 6.8044
302 1 -1.1104 15.9994 7.2058 22.3198 10.0017
303 1 -1.1104 15.9994 9.83968 22.1762 10.0084
304 1 -1.1104 15.9994 12.6272 22.388 7.05043
305 1 -1.1104 15.9994 12.7092 22.4443 9.80982
306 1 -1.1104 15.9994 1.44249 -0.0971687 12.5481
307 1 -1.1104 15.9994 4.39315 -0.244568 12.4613
308 1 -1.1104 15.9994 1.68355 2.80245 12.5662
309 1 -1.1104 15.9994 4.47383 2.70071 12.6176
310 1 -1.1104 15.9994 7.08846 -0.105938 12.5214
311 1 -1.1104 15.9994 10.1379 -0.328906 12.4532
312 1 -1.1104 15.9994 7.25692 2.79567 12.5934
313 1 -1.1104 15.9994 9.98553 2.46576 12.2888
314 1 -1.1104 15.9994 12.9197 -0.145853 12.4257
315 1 -1.1104 15.9994 12.8054 2.54392 12.494
316 1 -1.1104 15.9994 1.31722 5.56812 12.7031
317 1 -1.1104 15.9994 4.24364 5.44756 12.4744
318 1 -1.1104 15.9994 1.57328 8.27372 12.7302
483 1 -1.1104 15.9994 1.38277 19.6297 12.4677
59 2 2.2208 232.038 11.4971 -1.33225 5.43116
8993 2 2.2208 232.038 0.139172 9.6731 5.56187
344 2 2.2208 232.038 5.65313 18.2381 13.9474
374 2 2.2208 232.038 11.3417 20.9144 -0.140219
9690 2 2.2208 232.038 0.04936 4.13918 -0.0237523
103 2 2.2208 232.038 5.92175 -1.40065 11.0404
9007 2 2.2208 232.038 0.183653 1.31839 2.72544
94 2 2.2208 232.038 -0.0634619 23.9922 8.31986
91 2 2.2208 232.038 -0.0136484 21.0561 5.49586
24 2 2.2208 232.038 0.0898081 12.6324 2.76556
84 2 2.2208 232.038 -0.00398256 18.1157 8.24379
8983 2 2.2208 232.038 -0.0492528 9.78207 11.3633
9688 2 2.2208 232.038 0.0438073 9.91578 -0.0236652
44 2 2.2208 232.038 -0.082209 23.8157 2.73216
336 2 2.2208 232.038 2.86776 9.85023 13.937
25 2 2.2208 232.038 5.67564 9.89655 -0.0750901
26 2 2.2208 232.038 8.53493 12.6745 -0.0454701
330 2 2.2208 232.038 11.4142 1.17212 13.8015
661 2 2.2208 232.038 8.6263 1.51036 -0.135028
9664 2 2.2208 232.038 -0.104833 18.2344 13.9418
676 2 2.2208 232.038 8.48126 23.9214 -0.0908539
325 2 2.2208 232.038 5.77266 4.2513 -0.13989
334 2 2.2208 232.038 5.68705 6.9056 13.8209
346 2 2.2208 232.038 2.71339 21.0395 13.9897
327 1 -1.1104 15.9994 6.91873 22.6709 26.6578
9676 2 2.2208 232.038 -0.0929696 12.6825 25.2963
434 2 2.2208 232.038 0.138603 18.4803 25.1731
407 2 2.2208 232.038 8.63034 -1.38085 25.3086
9668 2 2.2208 232.038 0.140612 7.01258 19.5395
332 1 -1.1104 15.9994 9.83069 22.4271 23.8071
675 2 2.2208 232.038 5.57921 21.0806 27.9167
405 2 2.2208 232.038 5.94277 -1.42423 22.3305
9665 2 2.2208 232.038 0.188292 -1.35014 16.7425
340 2 2.2208 232.038 11.3441 12.485 14.1386
337 1 -1.1104 15.9994 7.09258 22.6411 23.8985
9669 2 2.2208 232.038 0.155253 9.90071 16.8885
394 2 2.2208 232.038 -0.0598051 23.7596 19.4808
9667 2 2.2208 232.038 0.123783 4.19404 16.9107
9700 2 2.2208 232.038 0.0379441 12.5149 19.7992
342 1 -1.1104 15.9994 4.15147 22.5022 26.6514
353 2 2.2208 232.038 3.04871 -1.46695 19.7474
355 2 2.2208 232.038 5.72683 -1.37357 16.5743
403 2 2.2208 232.038 3.02361 -1.45564 25.1643
9673 2 2.2208 232.038 0.0365294 4.21349 22.3617
677 1 -1.1104 15.9994 10.1285 13.989 26.7207
9666 2 2.2208 232.038 0.0923211 1.40688 19.6744
345 2 2.2208 232.038 11.3979 18.1207 13.9852
431 2 2.2208 232.038 0.148655 15.4158 22.4025
351 1 -1.1104 15.9994 1.31105 22.4875 26.9199
352 2 2.2208 232.038 2.91457 1.56212 16.8215
329 2 2.2208 232.038 5.76781 1.46903 14.0472
354 1 -1.1104 15.9994 4.40793 22.2833 24.0313
9671 2 2.2208 232.038 0.188746 -1.35092 22.4304
356 2 2.2208 232.038 8.56334 1.24913 16.7922
656 1 -1.1104 15.9994 7.06638 17.0706 26.5142
358 2 2.2208 232.038 5.77826 1.25774 19.747
655 1 -1.1104 15.9994 9.86724 16.7812 23.8809
360 2 2.2208 232.038 11.5671 1.4318 19.5703
361 1 -1.1104 15.9994 1.04677 21.9341 24.2304
362 2 2.2208 232.038 2.83221 7.17063 16.8647
363 2 2.2208 232.038 3.07042 4.16788 19.5806
364 1 -1.1104 15.9994 12.6992 19.5464 26.624
365 2 2.2208 232.038 5.8749 4.13796 16.8326
366 2 2.2208 232.038 8.52018 7.05537 16.5661
367 2 2.2208 232.038 8.60833 4.19645 19.6118
368 2 2.2208 232.038 5.81233 7.1582 19.4363
369 2 2.2208 232.038 11.1772 4.15778 16.5658
370 2 2.2208 232.038 11.248 7.06598 19.6693
371 1 -1.1104 15.9994 12.8365 19.7518 23.7729
372 2 2.2208 232.038 2.80747 12.6806 16.8719
373 2 2.2208 232.038 2.85689 9.93536 19.7748
9672 2 2.2208 232.038 0.153888 1.45756 25.1561
375 2 2.2208 232.038 5.65868 9.92829 16.6484
376 2 2.2208 232.038 8.31477 12.6609 16.7855
377 2 2.2208 232.038 8.58659 9.83316 19.6296
378 2 2.2208 232.038 5.67624 12.6539 19.6277
379 2 2.2208 232.038 11.2389 9.72283 16.6173
380 2 2.2208 232.038 11.1812 12.6932 19.4285
381 1 -1.1104 15.9994 12.7648 16.8556 26.687
382 2 2.2208 232.038 2.91311 18.2164 16.6859
383 2 2.2208 232.038 2.82005 15.3981 19.4978
339 2 2.2208 232.038 5.62378 12.5617 13.9872
385 2 2.2208 232.038 5.73681 15.6305 16.6952
386 2 2.2208 232.038 8.48991 18.2603 16.8829
387 2 2.2208 232.038 8.39232 15.4733 19.5674
388 2 2.2208 232.038 5.66923 18.3128 19.5344
389 2 2.2208 232.038 11.2036 15.3469 16.8276
390 2 2.2208 232.038 11.1894 18.2221 19.6072
391 1 -1.1104 15.9994 12.7368 22.2739 26.747
392 2 2.2208 232.038 2.60123 23.9968 16.7096
393 2 2.2208 232.038 2.72395 21.1778 19.6037
659 2 2.2208 232.038 3.0141 1.45109 27.9245
395 2 2.2208 232.038 5.6859 21.1334 16.8009
396 2 2.2208 232.038 8.39414 23.9654 16.9269
397 2 2.2208 232.038 8.46481 21.2404 19.7567
398 2 2.2208 232.038 5.44926 23.8749 19.5856
399 2 2.2208 232.038 11.244 20.9658 16.9011
400 2 2.2208 232.038 11.253 23.8591 19.6049
401 1 -1.1104 15.9994 12.6794 16.8119 23.7521
402 2 2.2208 232.038 2.90806 1.56465 22.4163
9661 2 2.2208 232.038 0.143568 1.38674 14.0057
404 1 -1.1104 15.9994 9.78546 19.6726 26.2909
331 2 2.2208 232.038 2.90961 4.11796 14.079
406 2 2.2208 232.038 8.72122 1.52327 22.4661
350 2 2.2208 232.038 11.2803 23.7822 14.2134
408 2 2.2208 232.038 5.97616 1.51541 25.2301
652 1 -1.1104 15.9994 1.41107 19.7754 26.5155
410 2 2.2208 232.038 11.5266 1.37093 25.0846
411 1 -1.1104 15.9994 7.06009 19.8329 26.5751
412 2 2.2208 232.038 2.92969 7.08351 22.4747
413 2 2.2208 232.038 3.08394 4.20856 25.2822
414 1 -1.1104 15.9994 9.96208 19.6024 23.6772
415 2 2.2208 232.038 5.77375 4.11598 22.5184
416 2 2.2208 232.038 8.66879 6.94173 22.4098
417 2 2.2208 232.038 8.71689 4.19249 25.3151
418 2 2.2208 232.038 5.77562 7.01108 25.1866
419 2 2.2208 232.038 11.4326 4.23387 22.3199
420 2 2.2208 232.038 11.42 6.88242 25.4307
421 1 -1.1104 15.9994 7.09334 19.6683 23.8068
422 2 2.2208 232.038 2.87674 12.4926 22.6079
423 2 2.2208 232.038 2.93097 9.92473 25.2776
424 1 -1.1104 15.9994 10 16.8002 26.6254
425 2 2.2208 232.038 5.90554 9.87587 22.4776
426 2 2.2208 232.038 8.55857 12.7224 22.3038
427 2 2.2208 232.038 8.5485 9.71562 25.3019
428 2 2.2208 232.038 5.65623 12.5942 25.239
429 2 2.2208 232.038 11.3724 9.84581 22.6172
430 2 2.2208 232.038 11.2882 12.5797 25.2904
674 2 2.2208 232.038 2.84283 23.9451 27.8612
432 2 2.2208 232.038 2.7822 18.3606 22.0415
433 2 2.2208 232.038 2.85976 15.4668 25.1302
654 1 -1.1104 15.9994 6.99418 16.7566 23.6586
435 2 2.2208 232.038 5.76287 15.3856 22.2512
436 2 2.2208 232.038 8.44674 18.4153 22.3718
437 2 2.2208 232.038 8.50779 15.4452 25.1055
438 2 2.2208 232.038 5.66725 18.2885 25.171
439 2 2.2208 232.038 11.3084 15.3983 22.5035
440 2 2.2208 232.038 11.2668 18.2381 25.0933
653 1 -1.1104 15.9994 4.25896 19.7247 26.5888
442 1 -1.1104 15.9994 12.7763 22.4651 23.9667
443 2 2.2208 232.038 2.85997 21.2407 25.1182
651 1 -1.1104 15.9994 4.20431 19.311 23.7538
445 2 2.2208 232.038 5.47045 21.2618 22.3303
446 2 2.2208 232.038 8.35619 23.9209 22.4164
447 2 2.2208 232.038 8.48164 21.1569 25.19
448 2 2.2208 232.038 5.58792 23.9896 25.1126
449 2 2.2208 232.038 11.4308 21.1166 22.5064
450 2 2.2208 232.038 11.2377 23.9772 25.0562
451 1 -1.1104 15.9994 1.56612 0.0218418 15.2667
452 1 -1.1104 15.9994 4.2599 0.0448792 15.3701
453 1 -1.1104 15.9994 1.50585 2.82767 15.4066
454 1 -1.1104 15.9994 4.24816 2.69391 15.4058
455 1 -1.1104 15.9994 7.13037 -0.120658 15.4357
456 1 -1.1104 15.9994 9.92824 -0.141321 15.2306
457 1 -1.1104 15.9994 7.09602 2.59903 15.5399
458 1 -1.1104 15.9994 10.0323 2.74237 15.1155
459 1 -1.1104 15.9994 12.7358 -0.193635 15.347
460 1 -1.1104 15.9994 12.6557 2.56321 15.2915
461 1 -1.1104 15.9994 1.37839 5.62061 15.7052
462 1 -1.1104 15.9994 4.39322 5.49807 15.2894
463 1 -1.1104 15.9994 1.39864 8.31151 15.5515
464 1 -1.1104 15.9994 4.11513 8.36184 15.2552
465 1 -1.1104 15.9994 7.21515 5.4603 15.2143
466 1 -1.1104 15.9994 9.90789 5.64464 15.2875
467 1 -1.1104 15.9994 6.91941 8.46876 15.2775
468 1 -1.1104 15.9994 9.89774 8.50517 15.2415
469 1 -1.1104 15.9994 12.7324 5.28032 15.0566
470 1 -1.1104 15.9994 12.6209 8.21128 15.4896
471 1 -1.1104 15.9994 1.49176 11.1891 15.394
472 1 -1.1104 15.9994 4.29788 11.2241 15.4388
473 1 -1.1104 15.9994 1.37663 14.0291 15.4151
474 1 -1.1104 15.9994 4.12791 13.9896 15.4866
475 1 -1.1104 15.9994 7.04544 11.224 15.4435
476 1 -1.1104 15.9994 9.80431 11.1 15.3708
477 1 -1.1104 15.9994 7.08425 14.2212 15.4056
478 1 -1.1104 15.9994 9.82752 13.8018 15.3915
479 1 -1.1104 15.9994 12.6802 11.107 15.6916
480 1 -1.1104 15.9994 12.7136 13.6912 15.4401
481 1 -1.1104 15.9994 1.59595 16.7896 15.5071
482 1 -1.1104 15.9994 4.38231 16.8087 15.1887
664 2 2.2208 232.038 0.0174463 15.5389 16.7752
484 1 -1.1104 15.9994 1.43585 19.3237 15.363
485 1 -1.1104 15.9994 7.17464 16.8818 15.4118
486 1 -1.1104 15.9994 9.79468 16.6059 15.4555
487 1 -1.1104 15.9994 7.00365 19.5492 15.5417
488 1 -1.1104 15.9994 9.90224 19.5236 15.344
489 1 -1.1104 15.9994 12.6137 16.5625 15.1512
490 1 -1.1104 15.9994 12.6958 19.4218 15.3881
491 1 -1.1104 15.9994 1.52309 22.7727 14.9621
492 1 -1.1104 15.9994 4.2276 22.4521 15.3563
493 1 -1.1104 15.9994 7.09671 22.4438 15.4358
494 1 -1.1104 15.9994 9.95908 22.348 15.4395
495 1 -1.1104 15.9994 12.8763 22.3551 15.6188
496 1 -1.1104 15.9994 1.61671 0.12372 18.2613
497 1 -1.1104 15.9994 4.35485 -6.16126e-05 18.2023
498 1 -1.1104 15.9994 1.56379 -0.213864 21.0593
499 1 -1.1104 15.9994 4.31619 0.0283503 21.1885
500 1 -1.1104 15.9994 1.5488 2.6914 18.3249
501 1 -1.1104 15.9994 4.53999 2.80575 18.2244
502 1 -1.1104 15.9994 1.5129 2.72042 20.98
503 1 -1.1104 15.9994 4.28357 2.77932 21.0985
504 1 -1.1104 15.9994 7.17309 -0.256179 18.0997
505 1 -1.1104 15.9994 10.0139 -0.105117 18.2653
506 1 -1.1104 15.9994 7.0483 -0.0978837 20.8911
507 1 -1.1104 15.9994 9.9211 -0.116262 20.9841
508 1 -1.1104 15.9994 7.23635 2.71404 18.3843
509 1 -1.1104 15.9994 9.8798 2.66768 18.0894
510 1 -1.1104 15.9994 7.23729 2.71634 21.2891
511 1 -1.1104 15.9994 10.0316 2.65994 20.9456
512 1 -1.1104 15.9994 12.8312 -0.0334711 18.1619
513 1 -1.1104 15.9994 12.9207 0.0216261 21.0559
514 1 -1.1104 15.9994 12.7025 2.91394 18.1587
515 1 -1.1104 15.9994 12.897 2.69539 20.9733
516 1 -1.1104 15.9994 1.59988 5.61313 18.318
517 1 -1.1104 15.9994 4.5467 5.69873 18.0072
518 1 -1.1104 15.9994 1.63314 5.54818 21.118
519 1 -1.1104 15.9994 4.51685 5.70535 21.1229
520 1 -1.1104 15.9994 1.60037 8.35595 18.483
521 1 -1.1104 15.9994 4.54172 8.54497 17.8953
522 1 -1.1104 15.9994 1.46337 8.32996 21.0838
523 1 -1.1104 15.9994 4.31282 8.31609 20.9139
524 1 -1.1104 15.9994 7.21605 5.41443 18.1381
525 1 -1.1104 15.9994 9.83414 5.70543 17.9771
526 1 -1.1104 15.9994 7.23563 5.55625 21.1542
527 1 -1.1104 15.9994 9.86595 5.42062 20.8953
528 1 -1.1104 15.9994 7.24539 8.36007 18.0005
529 1 -1.1104 15.9994 10.0765 8.57637 18.272
530 1 -1.1104 15.9994 7.38295 8.37656 20.9239
531 1 -1.1104 15.9994 9.8817 8.34247 21.2187
532 1 -1.1104 15.9994 12.5776 5.65952 18.1218
533 1 -1.1104 15.9994 12.5715 5.66434 21.0542
534 1 -1.1104 15.9994 12.8823 8.1102 18.3583
535 1 -1.1104 15.9994 12.7635 8.40914 21.2544
536 1 -1.1104 15.9994 1.31796 11.185 18.2249
537 1 -1.1104 15.9994 4.19966 11.2752 18.3393
538 1 -1.1104 15.9994 1.3717 11.2076 20.938
539 1 -1.1104 15.9994 4.25956 11.0973 21.1327
540 1 -1.1104 15.9994 1.4021 14.0272 18.2529
541 1 -1.1104 15.9994 4.18655 13.9839 18.1379
542 1 -1.1104 15.9994 1.4137 13.9511 21.0102
543 1 -1.1104 15.9994 4.18664 13.7949 21.2529
544 1 -1.1104 15.9994 6.98982 11.1753 18.1129
545 1 -1.1104 15.9994 9.7238 11.1804 18.1291
546 1 -1.1104 15.9994 7.13763 11.1399 21.0555
547 1 -1.1104 15.9994 9.81543 11.189 21.0565
548 1 -1.1104 15.9994 6.93884 14.0875 18.298
549 1 -1.1104 15.9994 9.87246 14.0433 18.2323
550 1 -1.1104 15.9994 6.98298 13.8926 20.9415
551 1 -1.1104 15.9994 9.70071 14.2632 21.1391
552 1 -1.1104 15.9994 12.5014 10.9948 18.3004
553 1 -1.1104 15.9994 12.6756 11.3181 21.0093
554 1 -1.1104 15.9994 12.6552 14.1763 18.0157
555 1 -1.1104 15.9994 12.5342 14.1191 20.8006
556 1 -1.1104 15.9994 1.34164 16.7956 18.2616
557 1 -1.1104 15.9994 4.17905 16.5818 17.9465
558 1 -1.1104 15.9994 1.57158 16.8103 20.9834
559 1 -1.1104 15.9994 4.34346 16.7238 20.841
560 1 -1.1104 15.9994 4.27942 19.492 18.0718
561 1 -1.1104 15.9994 4.42552 19.6376 15.4449
562 1 -1.1104 15.9994 1.87024 19.2297 20.0205
563 1 -1.1104 15.9994 4.31171 19.6907 20.9371
564 1 -1.1104 15.9994 7.0223 16.932 18.1339
565 1 -1.1104 15.9994 9.60695 16.8332 18.1048
566 1 -1.1104 15.9994 7.12376 16.6949 20.9398
567 1 -1.1104 15.9994 9.77666 16.844 20.8841
568 1 -1.1104 15.9994 7.02001 19.8391 18.3671
569 1 -1.1104 15.9994 9.7745 19.6529 18.4652
570 1 -1.1104 15.9994 7.05149 19.6084 21.066
571 1 -1.1104 15.9994 10.0042 19.8106 21.0352
572 1 -1.1104 15.9994 12.5171 16.779 18.1375
573 1 -1.1104 15.9994 12.5584 16.8057 21.1276
574 1 -1.1104 15.9994 12.5141 19.6354 18.0741
575 1 -1.1104 15.9994 12.7105 19.7388 21.0382
576 1 -1.1104 15.9994 1.56502 22.5231 18.1402
577 1 -1.1104 15.9994 4.32444 22.4522 18.0243
578 1 -1.1104 15.9994 1.26064 21.8149 21.037
579 1 -1.1104 15.9994 4.16738 22.3581 20.8058
580 1 -1.1104 15.9994 7.19958 22.5598 18.3724
581 1 -1.1104 15.9994 9.91632 22.4649 18.2182
582 1 -1.1104 15.9994 7.0226 22.4499 21.0611
583 1 -1.1104 15.9994 9.8654 22.5825 21.1584
584 1 -1.1104 15.9994 12.7175 22.408 18.4636
585 1 -1.1104 15.9994 12.736 22.4533 21.2379
586 1 -1.1104 15.9994 1.4614 0.0394602 23.7085
587 1 -1.1104 15.9994 4.34943 -0.0946428 23.7835
588 1 -1.1104 15.9994 1.57692 0.00598412 26.4557
589 1 -1.1104 15.9994 4.51379 0.14484 26.5689
590 1 -1.1104 15.9994 1.56404 2.76894 23.7992
591 1 -1.1104 15.9994 4.50328 2.90685 23.8462
592 1 -1.1104 15.9994 1.86116 2.60359 26.4678
593 1 -1.1104 15.9994 4.54919 2.89856 26.537
594 1 -1.1104 15.9994 7.35688 0.0783897 23.7796
595 1 -1.1104 15.9994 10.0773 -0.159318 23.9486
596 1 -1.1104 15.9994 7.15413 0.00213843 26.6718
597 1 -1.1104 15.9994 9.92289 -0.015293 26.8784
598 1 -1.1104 15.9994 7.34188 2.7027 23.851
599 1 -1.1104 15.9994 10.1795 2.7873 23.7289
600 1 -1.1104 15.9994 7.25084 2.74505 26.7911
601 1 -1.1104 15.9994 10.0895 2.72831 26.6142
602 1 -1.1104 15.9994 12.8348 -0.131247 23.7131
603 1 -1.1104 15.9994 12.9045 -0.0959408 26.5518
604 1 -1.1104 15.9994 12.7792 2.89481 23.8137
605 1 -1.1104 15.9994 12.772 2.62881 26.5132
606 1 -1.1104 15.9994 1.54503 5.74643 24.0766
607 1 -1.1104 15.9994 4.45793 5.53598 24.0077
608 1 -1.1104 15.9994 1.62572 5.51687 26.8404
609 1 -1.1104 15.9994 4.53732 5.68293 26.7144
610 1 -1.1104 15.9994 1.56859 8.39095 23.8709
611 1 -1.1104 15.9994 4.27494 8.38807 24.0336
612 1 -1.1104 15.9994 1.42126 8.55393 26.6619
613 1 -1.1104 15.9994 4.16646 8.4079 26.7796
614 1 -1.1104 15.9994 7.18812 5.61722 23.8698
615 1 -1.1104 15.9994 10.0739 5.58638 23.7189
616 1 -1.1104 15.9994 7.22762 5.51768 26.6206
617 1 -1.1104 15.9994 10.1081 5.46348 26.6694
618 1 -1.1104 15.9994 7.05261 8.40276 23.8898
619 1 -1.1104 15.9994 9.95441 8.34385 24.0291
620 1 -1.1104 15.9994 7.02673 8.42407 26.7447
621 1 -1.1104 15.9994 9.83759 8.31839 26.7853
622 1 -1.1104 15.9994 12.7631 5.66206 23.8647
623 1 -1.1104 15.9994 12.8749 5.52294 26.6418
624 1 -1.1104 15.9994 12.748 8.34307 23.9826
625 1 -1.1104 15.9994 12.6274 8.34773 26.7921
626 1 -1.1104 15.9994 1.45767 11.0796 23.8865
627 1 -1.1104 15.9994 4.42505 11.2192 23.9053
628 1 -1.1104 15.9994 1.3923 11.3633 26.7276
629 1 -1.1104 15.9994 4.21177 11.3368 26.7595
630 1 -1.1104 15.9994 1.25282 13.7532 23.8804
631 1 -1.1104 15.9994 4.36335 13.9625 23.9505
632 1 -1.1104 15.9994 1.52806 14.0271 26.7677
633 1 -1.1104 15.9994 4.53518 14.0761 26.6823