LAMMPS (29 Oct 2020)
OMP_NUM_THREADS environment is not set. Defaulting to 1 thread. (../comm.cpp:94)
  using 1 OpenMP thread(s) per MPI task
OMP_NUM_THREADS environment is not set. Defaulting to 1 thread. (../comm.cpp:94)
  using 1 OpenMP thread(s) per MPI task
Reading data file ...
  orthogonal box = (-0.48219989 -9.7424330 -0.49396027) to (27.822200 556.54243 27.833960)
  1 by 26 by 2 MPI processor grid
  reading atoms ...
  30000 atoms
  reading velocities ...
  30000 velocities
Finding 1-2 1-3 1-4 neighbors ...
  special bond factors lj:    0.0      0.0      0.0     
  special bond factors coul:  0.0      0.0      0.0     
     0 = max # of 1-2 neighbors
     0 = max # of 1-3 neighbors
     0 = max # of 1-4 neighbors
     1 = max # of special neighbors
  special bonds CPU = 0.003 seconds
  read_data CPU = 0.122 seconds
Setting atom values ...
  20000 settings made for charge
Setting atom values ...
  10000 settings made for charge
PPPM initialization ...
  using 12-bit tables for long-range coulomb (../kspace.cpp:328)
  G vector (1/distance) = 0.29729502
  grid = 40 375 40
  stencil order = 5
  estimated absolute RMS force accuracy = 0.00017564525
  estimated relative force accuracy = 1.2197887e-05
  using single precision MKL FFT
  3d grid and FFT values/proc = 22500 12000
Neighbor list info ...
  update every 1 steps, delay 0 steps, check yes
  max neighbors/atom: 2000, page size: 100000
  master list distance cutoff = 11.3
  ghost atom cutoff = 11.3
  binsize = 5.65, bins = 6 101 6
  2 neighbor lists, perpetual/occasional/extra = 2 0 0
  (1) pair coul/long, perpetual
      attributes: half, newton on
      pair build: half/bin/newton
      stencil: half/bin/3d/newton
      bin: standard
  (2) pair eam/alloy, perpetual, copy from (1)
      attributes: half, newton on
      pair build: copy
      stencil: none
      bin: none
Setting up Verlet run ...
  Unit style    : metal
  Current step  : 0
  Time step     : 0.001
Per MPI rank memory allocation (min/avg/max) = 9.482 | 9.519 | 9.555 Mbytes
Step Temp E_pair E_mol TotEng Press 
       0         1500   -388577.81            0    -382761.3   -820.51339 
  100000    1487.8759   -388561.91            0   -382792.41   -1294.3203 
Loop time of 1116.85 on 52 procs for 100000 steps with 30000 atoms

Performance: 7.736 ns/day, 3.102 hours/ns, 89.537 timesteps/s
99.8% CPU use with 52 MPI tasks x 1 OpenMP threads

MPI task timing breakdown:
Section |  min time  |  avg time  |  max time  |%varavg| %total
---------------------------------------------------------------
Pair    | 703.02     | 724.57     | 744.51     |  38.1 | 64.88
Bond    | 0.0092729  | 0.013491   | 0.018138   |   1.8 |  0.00
Kspace  | 255.32     | 277.47     | 301.59     |  68.0 | 24.84
Neigh   | 70.541     | 75.516     | 80.103     |  25.2 |  6.76
Comm    | 26.817     | 30.104     | 32.509     |  32.7 |  2.70
Output  | 5.9427e-05 | 6.5112e-05 | 0.00028792 |   0.0 |  0.00
Modify  | 2.7077     | 6.1709     | 11.081     | 116.0 |  0.55
Other   |            | 3.01       |            |       |  0.27

Nlocal:        576.923 ave         605 max         546 min
Histogram: 6 5 0 4 7 7 8 7 4 4
Nghost:        4898.04 ave        4984 max        4772 min
Histogram: 1 8 4 1 0 5 10 10 6 7
Neighs:       116054.0 ave      125971 max      107045 min
Histogram: 5 2 6 13 5 3 6 4 3 5

Total # of neighbors = 6034798
Ave neighs/atom = 201.15993
Ave special neighs/atom = 0.0000000
Neighbor list builds = 25074
Dangerous builds = 0
20000 atoms in group oxygen
PPPM initialization ...
  using 12-bit tables for long-range coulomb (../kspace.cpp:328)
  G vector (1/distance) = 0.29729502
  grid = 40 375 40
  stencil order = 5
  estimated absolute RMS force accuracy = 0.00017564525
  estimated relative force accuracy = 1.2197887e-05
  using single precision MKL FFT
  3d grid and FFT values/proc = 22500 12000
Setting up Verlet run ...
  Unit style    : metal
  Current step  : 0
  Time step     : 0.001
Per MPI rank memory allocation (min/avg/max) = 9.732 | 9.770 | 9.806 Mbytes
Step f_2 Temp v_Tdiff v_deltaT 
       0            0    1487.8759            0            0 
  100000    1677.9023     1504.639  0.070449704    817.91452 
  200000    3113.6363    1488.8757  0.098974924    1149.0897 
  300000    4534.9703    1490.5796   0.10597417    1230.3502 
  400000    5955.7251    1488.7342   0.10468282    1215.3579 
  500000    7358.7143    1499.3466   0.10755291    1248.6793 
  600000    8771.4823    1495.0816   0.10705478    1242.8961 
  700000    10196.182    1499.9634    0.1056449    1226.5275 
  800000    11605.446    1497.0917   0.10841352    1258.6709 
  900000    13022.946     1500.636   0.10697774    1242.0016 
 1000000    14434.362    1495.3498   0.10571011    1227.2846 
 1100000    15845.371     1487.271   0.10563194     1226.377 
 1200000    17256.068    1500.9761    0.1035446    1202.1431 
 1300000    18666.694    1493.5756   0.10597449     1230.354 
 1400000    20088.984    1498.0972   0.10288026    1194.4303 
 1500000    21504.079    1488.8291   0.10543753    1224.1199 
Loop time of 16498.6 on 52 procs for 1500000 steps with 30000 atoms

Performance: 7.855 ns/day, 3.055 hours/ns, 90.917 timesteps/s
99.8% CPU use with 52 MPI tasks x 1 OpenMP threads

MPI task timing breakdown:
Section |  min time  |  avg time  |  max time  |%varavg| %total
---------------------------------------------------------------
Pair    | 10383      | 10660      | 10952      | 141.0 | 64.61
Bond    | 0.12726    | 0.19923    | 0.28297    |   6.3 |  0.00
Kspace  | 3783.7     | 4119.3     | 4490.8     | 260.5 | 24.97
Neigh   | 1084.8     | 1159.2     | 1234.8     |  96.2 |  7.03
Comm    | 390.89     | 453.05     | 494.54     | 130.3 |  2.75
Output  | 0.0018405  | 0.0019327  | 0.0038308  |   0.6 |  0.00
Modify  | 13.853     | 19.705     | 27.253     |  97.4 |  0.12
Other   |            | 86.78      |            |       |  0.53

Nlocal:        576.923 ave         604 max         546 min
Histogram: 1 8 3 3 5 11 5 7 6 3
Nghost:        4903.58 ave        5012 max        4798 min
Histogram: 6 4 6 5 4 7 3 7 4 6
Neighs:       115998.0 ave      124996 max      105186 min
Histogram: 1 4 4 7 9 6 5 5 6 5

Total # of neighbors = 6031913
Ave neighs/atom = 201.06377
Ave special neighs/atom = 0.0000000
Neighbor list builds = 390468
Dangerous builds = 0
Total wall time: 4:53:36
