LAMMPS (29 Oct 2020)
OMP_NUM_THREADS environment is not set. Defaulting to 1 thread. (../comm.cpp:94)
  using 1 OpenMP thread(s) per MPI task
OMP_NUM_THREADS environment is not set. Defaulting to 1 thread. (../comm.cpp:94)
  using 1 OpenMP thread(s) per MPI task
Reading data file ...
  orthogonal box = (-0.4942814 -5.6287200 -0.48339694) to (27.834281 333.70872 27.823397)
  2 by 13 by 2 MPI processor grid
  reading atoms ...
  18000 atoms
  reading velocities ...
  18000 velocities
Finding 1-2 1-3 1-4 neighbors ...
  special bond factors lj:    0.0      0.0      0.0     
  special bond factors coul:  0.0      0.0      0.0     
     0 = max # of 1-2 neighbors
     0 = max # of 1-3 neighbors
     0 = max # of 1-4 neighbors
     1 = max # of special neighbors
  special bonds CPU = 0.004 seconds
  read_data CPU = 0.071 seconds
Setting atom values ...
  12000 settings made for charge
Setting atom values ...
  6000 settings made for charge
PPPM initialization ...
  using 12-bit tables for long-range coulomb (../kspace.cpp:328)
  G vector (1/distance) = 0.29836551
  grid = 40 240 40
  stencil order = 5
  estimated absolute RMS force accuracy = 0.00016150949
  estimated relative force accuracy = 1.1216213e-05
  using single precision MKL FFT
  3d grid and FFT values/proc = 15000 7600
Neighbor list info ...
  update every 1 steps, delay 0 steps, check yes
  max neighbors/atom: 2000, page size: 100000
  master list distance cutoff = 11.3
  ghost atom cutoff = 11.3
  binsize = 5.65, bins = 6 61 6
  2 neighbor lists, perpetual/occasional/extra = 2 0 0
  (1) pair coul/long, perpetual
      attributes: half, newton on
      pair build: half/bin/newton
      stencil: half/bin/3d/newton
      bin: standard
  (2) pair eam/alloy, perpetual, copy from (1)
      attributes: half, newton on
      pair build: copy
      stencil: none
      bin: none
Setting up Verlet run ...
  Unit style    : metal
  Current step  : 0
  Time step     : 0.001
Per MPI rank memory allocation (min/avg/max) = 8.149 | 8.171 | 8.185 Mbytes
Step Temp E_pair E_mol TotEng Press 
       0         1500   -233149.34            0   -229659.51      999.707 
  100000    1509.8426   -233153.12            0   -229640.39    913.20473 
Loop time of 687.685 on 52 procs for 100000 steps with 18000 atoms

Performance: 12.564 ns/day, 1.910 hours/ns, 145.415 timesteps/s
99.8% CPU use with 52 MPI tasks x 1 OpenMP threads

MPI task timing breakdown:
Section |  min time  |  avg time  |  max time  |%varavg| %total
---------------------------------------------------------------
Pair    | 455.13     | 464.03     | 475.82     |  25.9 | 67.48
Bond    | 0.0073936  | 0.010282   | 0.015302   |   1.6 |  0.00
Kspace  | 138.43     | 151.74     | 161.77     |  53.8 | 22.07
Neigh   | 44.363     | 47.23      | 50.166     |  19.6 |  6.87
Comm    | 18.646     | 20.255     | 22.107     |  16.1 |  2.95
Output  | 6.0266e-05 | 6.5631e-05 | 0.00026932 |   0.0 |  0.00
Modify  | 2.2504     | 2.8942     | 4.9169     |  50.5 |  0.42
Other   |            | 1.527      |            |       |  0.22

Nlocal:        346.154 ave         366 max         332 min
Histogram: 4 7 12 3 5 10 2 5 2 2
Nghost:        3994.10 ave        4091 max        3927 min
Histogram: 2 13 12 1 4 6 6 2 2 4
Neighs:        69682.2 ave       75764 max       65237 min
Histogram: 7 7 4 4 12 4 7 3 2 2

Total # of neighbors = 3623473
Ave neighs/atom = 201.30406
Ave special neighs/atom = 0.0000000
Neighbor list builds = 24995
Dangerous builds = 0
12000 atoms in group oxygen
PPPM initialization ...
  using 12-bit tables for long-range coulomb (../kspace.cpp:328)
  G vector (1/distance) = 0.29836551
  grid = 40 240 40
  stencil order = 5
  estimated absolute RMS force accuracy = 0.00016150949
  estimated relative force accuracy = 1.1216213e-05
  using single precision MKL FFT
  3d grid and FFT values/proc = 15000 7600
Setting up Verlet run ...
  Unit style    : metal
  Current step  : 0
  Time step     : 0.001
Per MPI rank memory allocation (min/avg/max) = 8.400 | 8.422 | 8.436 Mbytes
Step f_2 Temp v_Tdiff v_deltaT 
       0            0    1509.8426            0            0 
  100000    1635.4144    1502.3494  0.061191777    710.43085 
  200000    3193.3264    1503.5779  0.075220318     873.3009 
  300000    4732.2921     1501.493  0.073928637    858.30461 
  400000    6294.4062    1517.3124  0.072593274    842.80117 
  500000    7838.9039    1506.2756  0.074223057     861.7228 
  600000    9382.9097    1511.1429  0.075065911    871.50825 
  700000    10907.031    1510.8043  0.075050358    871.32768 
  800000    12458.384     1505.716  0.074833699     868.8123 
  900000    13998.357    1505.6361  0.074341252    863.09503 
 1000000    15550.969    1521.8418  0.074103595    860.33586 
 1100000    17101.099    1507.9076  0.072332845    839.77761 
 1200000     18662.65    1510.1048  0.074383557    863.58618 
 1300000    20228.085    1522.7224   0.07585059     880.6183 
 1400000    21777.302    1516.7031  0.073917916    858.18013 
 1500000    23325.287    1517.8608  0.075643984    878.21963 
Loop time of 10247.6 on 52 procs for 1500000 steps with 18000 atoms

Performance: 12.647 ns/day, 1.898 hours/ns, 146.376 timesteps/s
99.8% CPU use with 52 MPI tasks x 1 OpenMP threads

MPI task timing breakdown:
Section |  min time  |  avg time  |  max time  |%varavg| %total
---------------------------------------------------------------
Pair    | 6709.8     | 6879.3     | 7069.5     | 105.6 | 67.13
Bond    | 0.12055    | 0.15308    | 0.21049    |   5.4 |  0.00
Kspace  | 2095.6     | 2296.4     | 2459.8     | 197.5 | 22.41
Neigh   | 682.91     | 713.7      | 754.33     |  63.1 |  6.96
Comm    | 278.77     | 302.52     | 340.07     |  82.7 |  2.95
Output  | 0.00172    | 0.0018056  | 0.0036185  |   0.6 |  0.00
Modify  | 8.3679     | 9.2084     | 10.132     |  13.5 |  0.09
Other   |            | 46.32      |            |       |  0.45

Nlocal:        346.154 ave         368 max         332 min
Histogram: 4 9 7 10 7 7 2 1 4 1
Nghost:        3985.58 ave        4090 max        3926 min
Histogram: 6 11 9 9 5 1 3 4 2 2
Neighs:        69658.0 ave       75538 max       64797 min
Histogram: 6 7 4 7 4 5 8 6 2 3

Total # of neighbors = 3622215
Ave neighs/atom = 201.23417
Ave special neighs/atom = 0.0000000
Neighbor list builds = 379079
Dangerous builds = 0
Total wall time: 3:02:15
