LAMMPS (29 Oct 2020)
OMP_NUM_THREADS environment is not set. Defaulting to 1 thread. (../comm.cpp:94)
  using 1 OpenMP thread(s) per MPI task
OMP_NUM_THREADS environment is not set. Defaulting to 1 thread. (../comm.cpp:94)
  using 1 OpenMP thread(s) per MPI task
Reading data file ...
  orthogonal box = (-0.35634607 -4.3246191 -0.35557035) to (27.696346 332.40462 27.695570)
  2 by 13 by 2 MPI processor grid
  reading atoms ...
  17820 atoms
  reading velocities ...
  17820 velocities
Finding 1-2 1-3 1-4 neighbors ...
  special bond factors lj:    0.0      0.0      0.0     
  special bond factors coul:  0.0      0.0      0.0     
     0 = max # of 1-2 neighbors
     0 = max # of 1-3 neighbors
     0 = max # of 1-4 neighbors
     1 = max # of special neighbors
  special bonds CPU = 0.004 seconds
  read_data CPU = 0.057 seconds
Setting atom values ...
  11880 settings made for charge
Setting atom values ...
  5940 settings made for charge
PPPM initialization ...
  using 12-bit tables for long-range coulomb (../kspace.cpp:328)
  G vector (1/distance) = 0.29883514
  grid = 40 240 40
  stencil order = 5
  estimated absolute RMS force accuracy = 0.00015689179
  estimated relative force accuracy = 1.0895532e-05
  using single precision MKL FFT
  3d grid and FFT values/proc = 15000 7600
Neighbor list info ...
  update every 1 steps, delay 0 steps, check yes
  max neighbors/atom: 2000, page size: 100000
  master list distance cutoff = 11.3
  ghost atom cutoff = 11.3
  binsize = 5.65, bins = 5 60 5
  2 neighbor lists, perpetual/occasional/extra = 2 0 0
  (1) pair coul/long, perpetual
      attributes: half, newton on
      pair build: half/bin/newton
      stencil: half/bin/3d/newton
      bin: standard
  (2) pair eam/alloy, perpetual, copy from (1)
      attributes: half, newton on
      pair build: copy
      stencil: none
      bin: none
Setting up Verlet run ...
  Unit style    : metal
  Current step  : 0
  Time step     : 0.001
Per MPI rank memory allocation (min/avg/max) = 8.156 | 8.181 | 8.197 Mbytes
Step Temp E_pair E_mol TotEng Press 
       0          600   -232877.67            0    -231495.7    340.60561 
  100000    601.24761    -232903.8            0   -231518.95   -368.20697 
Loop time of 614.763 on 52 procs for 100000 steps with 17820 atoms

Performance: 14.054 ns/day, 1.708 hours/ns, 162.664 timesteps/s
99.8% CPU use with 52 MPI tasks x 1 OpenMP threads

MPI task timing breakdown:
Section |  min time  |  avg time  |  max time  |%varavg| %total
---------------------------------------------------------------
Pair    | 399.25     | 413.37     | 425.55     |  28.9 | 67.24
Bond    | 0.0063684  | 0.010013   | 0.022362   |   2.7 |  0.00
Kspace  | 130.85     | 147.88     | 162.54     |  58.2 | 24.06
Neigh   | 30.118     | 33.629     | 37.454     |  25.6 |  5.47
Comm    | 14.108     | 15.134     | 17.576     |  24.7 |  2.46
Output  | 5.7434e-05 | 6.2704e-05 | 0.00027644 |   0.0 |  0.00
Modify  | 1.8742     | 3.4316     | 5.455      |  66.1 |  0.56
Other   |            | 1.305      |            |       |  0.21

Nlocal:        342.692 ave         365 max         318 min
Histogram: 1 2 8 7 8 8 7 2 3 6
Nghost:        4124.85 ave        4272 max        3988 min
Histogram: 3 4 6 2 11 15 3 2 2 4
Neighs:        68605.8 ave       73712 max       60526 min
Histogram: 1 1 0 3 11 10 10 5 5 6

Total # of neighbors = 3567504
Ave neighs/atom = 200.19663
Ave special neighs/atom = 0.0000000
Neighbor list builds = 16233
Dangerous builds = 0
11880 atoms in group oxygen
PPPM initialization ...
  using 12-bit tables for long-range coulomb (../kspace.cpp:328)
  G vector (1/distance) = 0.29883514
  grid = 40 240 40
  stencil order = 5
  estimated absolute RMS force accuracy = 0.00015689179
  estimated relative force accuracy = 1.0895532e-05
  using single precision MKL FFT
  3d grid and FFT values/proc = 15000 7600
Setting up Verlet run ...
  Unit style    : metal
  Current step  : 0
  Time step     : 0.001
Per MPI rank memory allocation (min/avg/max) = 8.407 | 8.432 | 8.448 Mbytes
Step f_2 Temp v_Tdiff v_deltaT 
       0            0    601.24761            0            0 
  100000    692.25843    598.86499  0.017573148    204.02262 
  200000    1364.4912    597.94331  0.019945594    231.56649 
  300000    2037.6937    599.54727  0.019999045    232.18705 
  400000    2714.9694    595.98684  0.019141697    222.23332 
  500000     3387.834    596.10985   0.01972102    228.95921 
  600000    4061.4503    602.26432  0.019573386    227.24519 
  700000    4733.9489    596.33817  0.019570629    227.21318 
  800000    5411.4177    596.42952  0.020227009    234.83369 
  900000     6084.347    599.55171  0.019643066    228.05418 
 1000000    6756.4358    598.13396  0.020211983    234.65925 
Loop time of 6113.72 on 52 procs for 1000000 steps with 17820 atoms

Performance: 14.132 ns/day, 1.698 hours/ns, 163.567 timesteps/s
99.8% CPU use with 52 MPI tasks x 1 OpenMP threads

MPI task timing breakdown:
Section |  min time  |  avg time  |  max time  |%varavg| %total
---------------------------------------------------------------
Pair    | 3936.1     | 4112.9     | 4233.1     |  89.9 | 67.27
Bond    | 0.061921   | 0.097707   | 0.18039    |   7.9 |  0.00
Kspace  | 1336.6     | 1469.4     | 1654.5     | 171.8 | 24.03
Neigh   | 310.96     | 341.63     | 368.73     |  72.0 |  5.59
Comm    | 140.87     | 151.22     | 173.66     |  72.2 |  2.47
Output  | 0.0011293  | 0.0012272  | 0.0024012  |   0.5 |  0.00
Modify  | 5.4749     | 6.0573     | 6.495      |  11.5 |  0.10
Other   |            | 32.37      |            |       |  0.53

Nlocal:        342.692 ave         363 max         304 min
Histogram: 1 1 0 3 4 9 14 8 8 4
Nghost:        4127.62 ave        4216 max        3973 min
Histogram: 1 2 3 3 6 6 2 13 10 6
Neighs:        68612.8 ave       73082 max       59176 min
Histogram: 2 0 1 1 5 4 13 10 10 6

Total # of neighbors = 3567867
Ave neighs/atom = 200.21700
Ave special neighs/atom = 0.0000000
Neighbor list builds = 165651
Dangerous builds = 0
Total wall time: 1:52:08
