LAMMPS (29 Oct 2020)
OMP_NUM_THREADS environment is not set. Defaulting to 1 thread. (../comm.cpp:94)
  using 1 OpenMP thread(s) per MPI task
#-------------------------------
#
#This input script is used to simulate the defected configuration generated by overlapping cascades initiated at
#different energies
#Ziqiang Wang on 01/24/2022
#
#-------------------------------

clear
OMP_NUM_THREADS environment is not set. Defaulting to 1 thread. (../comm.cpp:94)
  using 1 OpenMP thread(s) per MPI task
units                    metal
dimension                    3
boundary                 p p p
atom_style               full
atom_modify              map  array

read_data               perfect_relaxed.dat
Reading data file ...
  triclinic box = (0.0000000 0.0000000 0.0000000) to (27.894000 334.72800 27.894000) with tilt (0.0000000 0.0000000 0.0000000)
  2 by 13 by 2 MPI processor grid
  reading atoms ...
  24000 atoms
  reading velocities ...
  24000 velocities
Finding 1-2 1-3 1-4 neighbors ...
  special bond factors lj:    0.0      0.0      0.0     
  special bond factors coul:  0.0      0.0      0.0     
     0 = max # of 1-2 neighbors
     0 = max # of 1-3 neighbors
     0 = max # of 1-4 neighbors
     1 = max # of special neighbors
  special bonds CPU = 0.003 seconds
  read_data CPU = 0.083 seconds

variable                ratio    equal   0.01

group                   vac_O    id      8075 17025  7329 15944  8552  6187 15119 17179 13985  7696  7620 15195                                          12909  9496 11661 10739 11675 12692 14741 15399 13504  8218  6521 15342                                           7293 17737 17622  7183 13159 16052 14823 13069  7538  8262 10201  7951                                          13870 16788  7417 10393 16825 15972  9858 12487  9628 14339  9233 14938                                          15221 10003 13458 17770  9715  7742 17383 13809 12278 12860 15575  9470                                          16937 13385 15674 17136 16111 14152 17826 11842 17568 10939 10559 11155                                          16650 15887 17491 10252 12081  8759  8723 12264 14600 14532 16354 11181                                          10306 10613 13845  8710 14103 14280 16234 11872 17682 12406 15546  8865                                          8655 10908 17123 16975 15076 17975 12200 10776 16480 12177 14517 11386                                           10385 17931 16455 17437 12955 11377 15923 10081  9181 11589 12184 17962                                          11366 13690 11700 10317 15368 17300  9972 10761 17082 15028  9901 14080                                          14962 10979 11905 17275 10136 14474 10718 11944 12040 17723 13274 17940                                          11354 14403 11286 16580 12043 13910 13428 11622 15843 12710 13321 10727                                          12535 17500 14790 16093 16273 11528 13726 14165  9659 14914 17984 14773                                          11769 13076 14236 14282 15627 17020 13629 13991 12668 14692 17534 16537
180 atoms in group vac_O

group                   oct_O    id     18001 18009 18012 18025 18032 18038 18053 18073 18080 18093 18120 18152                                          18160 18168 18172 18188 18192 18203 18223 18243 18251 18259 18262 18275                                          18289 18299 18305 18318 18323 18337 18340 18390 18397 18403 18416 18424                                          18434 18440 18453 18464 18470 18481 18489 18492 18505 18512 18529 18545                                          18548 18553 18611 18624 18626 18644 18673 18684 18690 18711 18722 18728                                          18741 18745 18748 18753 18797 18827 18833 18882 18888 18903 18910 18912                                          18936 18951 18959 18962 18973 18998 19003 19014 19031 19082 19088 19102                                          19105 19118 19122 19133 19182 19188 19201 19210 19212 19228 19239 19258                                          19263 19271 19317 19325 19337 19364 19412 19415 19428 19432 19465 19478                                          19488 19505 19519 19534 19538 19544 19563 19568 19588 19631 19639 19642                                          19655 19662 19669 19678 19683 19698 19705 19767 19775 19786 19805 19833                                          19844 19862 19875 19882 19888 19903 19930 19955 20000 20032 20080 20083                                          20094 20102 20105 20118 20135 20268 20273 20291 20332 20349 20361 20369                                          20435 20477 20498 20523 20528 20552 20565 20572 20595 20608 20613 20628                                          20660 20706 20723 20753 20896 20910 20963 20993 21003 21037 21052 21076
180 atoms in group oct_O


group                   tot_oct   type   3 4
6000 atoms in group tot_oct
#group                   tot_oct_O    type   3

group                   delete_oct_O    subtract   tot_oct  oct_O
5820 atoms in group delete_oct_O

delete_atoms            group  vac_O
WARNING: Ignoring 'compress yes' for molecular system (../delete_atoms.cpp:125)
Deleted 180 atoms, new total = 23820
delete_atoms            group  delete_oct_O
WARNING: Ignoring 'compress yes' for molecular system (../delete_atoms.cpp:125)
Deleted 5820 atoms, new total = 18000

kspace_style                   pppm            1.0e-5
pair_style                     hybrid/overlay     coul/long    11.0   eam/alloy
pair_coeff                     * * coul/long
pair_coeff                     * * eam/alloy CeThUNpPuAmCmO.eam.alloy O Th O O
neighbor                 2.0  bin
neigh_modify             delay  0  every  1  check   yes

set                      type      1      charge    -1.1104
Setting atom values ...
  11820 settings made for charge
set                      type      2      charge     2.2208
Setting atom values ...
  6000 settings made for charge
set                      type      3      charge    -1.1104
Setting atom values ...
  84 settings made for charge
set                      type      4      charge    -1.1104
Setting atom values ...
  96 settings made for charge

# Minimize the defected configuration at 0K
min_style                cg
fix                      relax   all  box/relax  aniso 0.0 vmax 0.001
minimize                 1.0e-30 1.0e-30 10000 10000
PPPM initialization ...
  using 12-bit tables for long-range coulomb (../kspace.cpp:328)
  G vector (1/distance) = 0.29916851
  grid = 40 240 40
  stencil order = 5
  estimated absolute RMS force accuracy = 0.00015502622
  estimated relative force accuracy = 1.0765975e-05
  using single precision MKL FFT
  3d grid and FFT values/proc = 18225 7600
Neighbor list info ...
  update every 1 steps, delay 0 steps, check yes
  max neighbors/atom: 2000, page size: 100000
  master list distance cutoff = 13
  ghost atom cutoff = 13
  binsize = 6.5, bins = 5 52 5
  2 neighbor lists, perpetual/occasional/extra = 2 0 0
  (1) pair coul/long, perpetual
      attributes: half, newton on
      pair build: half/bin/newton/tri
      stencil: half/bin/3d/newton/tri
      bin: standard
  (2) pair eam/alloy, perpetual, copy from (1)
      attributes: half, newton on
      pair build: copy
      stencil: none
      bin: none
Per MPI rank memory allocation (min/avg/max) = 10.44 | 10.47 | 10.49 Mbytes
Step Temp E_pair E_mol TotEng Press Volume 
       0            0   -228681.95            0   -228681.95     22560.67    260443.57 
    1626            0   -234412.02            0   -234412.02    101.80847    266825.65 
Loop time of 24.649 on 52 procs for 1626 steps with 18000 atoms

99.8% CPU use with 52 MPI tasks x 1 OpenMP threads

Minimization stats:
  Stopping criterion = linesearch alpha is zero
  Energy initial, next-to-last, final = 
     -228681.954872808  -234412.016902062  -234412.016902062
  Force two-norm initial, final = 10595.704 45.135459
  Force max component initial, final = 7322.3799 39.372392
  Final line search alpha, max atom move = 5.1931801e-12 2.0446792e-10
  Iterations, force evaluations = 1626 2115

MPI task timing breakdown:
Section |  min time  |  avg time  |  max time  |%varavg| %total
---------------------------------------------------------------
Pair    | 13.773     | 14.437     | 15.11      |   8.7 | 58.57
Bond    | 0.00020481 | 0.00029846 | 0.00047076 |   0.0 |  0.00
Kspace  | 3.3017     | 3.9769     | 4.641      |  16.6 | 16.13
Neigh   | 0.0542     | 0.060623   | 0.068045   |   1.5 |  0.25
Comm    | 0.33331    | 0.34462    | 0.35409    |   0.7 |  1.40
Output  | 0          | 0          | 0          |   0.0 |  0.00
Modify  | 0          | 0          | 0          |   0.0 |  0.00
Other   |            | 5.829      |            |       | 23.65

Nlocal:        346.154 ave         392 max         313 min
Histogram: 3 9 7 10 6 3 7 1 4 2
Nghost:        5625.33 ave        5787 max        5479 min
Histogram: 3 6 5 4 4 13 7 7 1 2
Neighs:       110726.0 ave      126201 max      101047 min
Histogram: 6 11 5 11 5 2 4 2 4 2

Total # of neighbors = 5757726
Ave neighs/atom = 319.87367
Ave special neighs/atom = 0.0000000
Neighbor list builds = 15
Dangerous builds = 0
unfix                    relax
reset_timestep           0

# Apply the temperature to the system and relax the configurations
reset_atom_ids
Resetting atom IDs ...
PPPM initialization ...
  using 12-bit tables for long-range coulomb (../kspace.cpp:328)
  G vector (1/distance) = 0.29883329
  grid = 40 240 40
  stencil order = 5
  estimated absolute RMS force accuracy = 0.00015719008
  estimated relative force accuracy = 1.0916247e-05
  using single precision MKL FFT
  3d grid and FFT values/proc = 18225 7600
Finding 1-2 1-3 1-4 neighbors ...
  special bond factors lj:    0.0      0.0      0.0     
  special bond factors coul:  0.0      0.0      0.0     
     0 = max # of 1-2 neighbors
     0 = max # of 1-3 neighbors
     0 = max # of 1-4 neighbors
     1 = max # of special neighbors
  special bonds CPU = 0.001 seconds
variable                 temp   index  600
velocity                 all  create  ${temp}  4526826  rot  yes  mom  yes  dist  gaussian
velocity                 all  create  600  4526826  rot  yes  mom  yes  dist  gaussian
fix                      npt  all  npt  temp  ${temp}  ${temp}  $(100*dt)  aniso  0.0  0.0  $(1000*dt)
fix                      npt  all  npt  temp  600  ${temp}  $(100*dt)  aniso  0.0  0.0  $(1000*dt)
fix                      npt  all  npt  temp  600  600  $(100*dt)  aniso  0.0  0.0  $(1000*dt)
fix                      npt  all  npt  temp  600  600  0.10000000000000000555  aniso  0.0  0.0  $(1000*dt)
fix                      npt  all  npt  temp  600  600  0.10000000000000000555  aniso  0.0  0.0  1
timestep                 0.001
thermo                   100000
thermo_style             custom  step  temp  ke  pe  press

shell                    mkdir   Frenkel_${ratio}_relax
shell                    mkdir   Frenkel_0.01_relax
dump                     1  all  custom  100000  ./Frenkel_${ratio}_relax/dump_relax.atom.*  id type q mass x y z
dump                     1  all  custom  100000  ./Frenkel_0.01_relax/dump_relax.atom.*  id type q mass x y z
dump_modify              1  element  O Th O Th

run                      100000
PPPM initialization ...
  using 12-bit tables for long-range coulomb (../kspace.cpp:328)
  G vector (1/distance) = 0.29883329
  grid = 40 240 40
  stencil order = 5
  estimated absolute RMS force accuracy = 0.00015719008
  estimated relative force accuracy = 1.0916247e-05
  using single precision MKL FFT
  3d grid and FFT values/proc = 18225 7600
Per MPI rank memory allocation (min/avg/max) = 10.59 | 10.62 | 10.64 Mbytes
Step Temp KinEng PotEng Press 
       0          600     1395.932   -234412.02     5689.497 
  100000    604.13871    1405.5609   -235253.75    252.51352 
Loop time of 882.116 on 52 procs for 100000 steps with 18000 atoms

Performance: 9.795 ns/day, 2.450 hours/ns, 113.364 timesteps/s
99.8% CPU use with 52 MPI tasks x 1 OpenMP threads

MPI task timing breakdown:
Section |  min time  |  avg time  |  max time  |%varavg| %total
---------------------------------------------------------------
Pair    | 557.03     | 568.65     | 580.86     |  22.3 | 64.46
Bond    | 0.010139   | 0.014402   | 0.019999   |   1.9 |  0.00
Kspace  | 154.32     | 166.66     | 178.53     |  41.4 | 18.89
Neigh   | 2.8488     | 2.9905     | 3.1726     |   4.2 |  0.34
Comm    | 16.961     | 17.409     | 17.762     |   4.6 |  1.97
Output  | 0.0049292  | 0.004934   | 0.0050968  |   0.0 |  0.00
Modify  | 112.9      | 118.04     | 122.34     |  26.0 | 13.38
Other   |            | 8.351      |            |       |  0.95

Nlocal:        346.154 ave         366 max         330 min
Histogram: 4 10 3 9 7 4 4 1 3 7
Nghost:        5615.50 ave        5726 max        5496 min
Histogram: 2 7 12 6 1 0 0 6 15 3
Neighs:       110755.0 ave      118241 max      106211 min
Histogram: 11 5 11 6 3 3 3 5 2 3

Total # of neighbors = 5759246
Ave neighs/atom = 319.95811
Ave special neighs/atom = 0.0000000
Neighbor list builds = 726
Dangerous builds = 0
shell                    mkdir  thermal_condu
WARNING: Shell command 'mkdir' failed with error 'File exists' (../input.cpp:1197)
write_data               ./thermal_condu/Frenkel_${ratio}_relaxed.dat
write_data               ./thermal_condu/Frenkel_0.01_relaxed.dat
System init for write_data ...
PPPM initialization ...
  using 12-bit tables for long-range coulomb (../kspace.cpp:328)
  G vector (1/distance) = 0.29882144
  grid = 40 240 40
  stencil order = 5
  estimated absolute RMS force accuracy = 0.00015782553
  estimated relative force accuracy = 1.0960377e-05
  using single precision MKL FFT
  3d grid and FFT values/proc = 18225 7600

Total wall time: 0:15:07
