ITEM: TIMESTEP
300000
ITEM: NUMBER OF ATOMS
18000
ITEM: BOX BOUNDS xy xz yz pp pp pp
-9.6136874984580872e-02 2.7990136874983730e+01 0.0000000000000000e+00
-1.1283201876465419e+00 3.3585632018765733e+02 0.0000000000000000e+00
-9.7739089424228570e-02 2.7991739089424534e+01 0.0000000000000000e+00
ITEM: ATOMS id type q mass x y z
8988 2 2.2208 232.038 -0.0534716 12.93 8.28647
324 1 -1.1104 15.9994 12.4938 5.86491 12.4577
8994 2 2.2208 232.038 -0.133856 7.27276 8.24916
4 1 -1.1104 15.9994 12.6516 22.7128 12.6516
323 1 -1.1104 15.9994 9.78636 8.59775 12.5042
322 1 -1.1104 15.9994 6.98396 8.68584 12.4317
55 2 2.2208 232.038 5.47927 -1.15984 5.509
8 2 2.2208 232.038 5.50573 1.65808 2.65355
9 1 -1.1104 15.9994 12.5463 8.4935 12.5438
10 2 2.2208 232.038 11.0355 1.6545 2.8034
11 1 -1.1104 15.9994 9.78845 22.6666 12.5081
321 1 -1.1104 15.9994 9.79125 5.7163 12.5081
13 2 2.2208 232.038 2.71421 4.33674 2.73675
14 1 -1.1104 15.9994 6.93198 22.5688 12.3996
340 2 2.2208 232.038 11.1466 12.8204 14.0645
8981 2 2.2208 232.038 -0.0422217 15.6204 11.2398
17 2 2.2208 232.038 8.29994 4.55119 2.64862
18 2 2.2208 232.038 5.59519 7.26164 2.65447
8991 2 2.2208 232.038 14.0401 12.7744 5.61087
20 2 2.2208 232.038 11.212 7.24772 2.6976
21 1 -1.1104 15.9994 4.16573 22.7554 12.4918
22 1 -1.1104 15.9994 1.3335 16.8971 12.4274
23 2 2.2208 232.038 2.72778 10.06 2.61029
320 1 -1.1104 15.9994 6.90722 5.79954 12.5432
7 2 2.2208 232.038 8.31899 -1.16395 2.69812
59 2 2.2208 232.038 11.0273 -1.16677 5.61092
27 2 2.2208 232.038 8.24428 10.1066 2.67024
28 2 2.2208 232.038 5.39289 12.7395 2.68426
9003 2 2.2208 232.038 -0.108507 -1.20261 5.56911
30 2 2.2208 232.038 11.1245 12.8345 2.62511
31 1 -1.1104 15.9994 12.6559 14.2082 12.428
32 1 -1.1104 15.9994 12.6565 11.2813 12.578
33 2 2.2208 232.038 2.6663 15.7055 2.72377
319 1 -1.1104 15.9994 4.1978 8.74282 12.4197
35 1 -1.1104 15.9994 9.86477 14.2054 12.7372
36 1 -1.1104 15.9994 7.11464 14.1034 12.5161
37 2 2.2208 232.038 8.48166 15.8656 2.79564
38 2 2.2208 232.038 5.48292 18.4147 2.8908
39 1 -1.1104 15.9994 9.97049 11.3912 12.4897
40 2 2.2208 232.038 11.3211 18.4618 2.72478
41 1 -1.1104 15.9994 7.08214 11.3354 12.5143
42 1 -1.1104 15.9994 4.2531 14.2992 12.6718
43 2 2.2208 232.038 2.74505 21.196 2.57933
318 1 -1.1104 15.9994 1.37764 8.6737 12.5157
45 1 -1.1104 15.9994 1.33457 14.1726 12.5333
46 1 -1.1104 15.9994 4.16021 11.5377 12.6724
47 2 2.2208 232.038 8.35111 21.2314 2.78086
48 2 2.2208 232.038 5.53381 24.1016 2.85018
49 1 -1.1104 15.9994 1.41259 11.4705 12.3767
50 2 2.2208 232.038 11.0671 24.0562 2.69733
51 1 -1.1104 15.9994 1.31155 22.4724 12.3122
52 2 2.2208 232.038 2.63325 1.68299 5.51241
94 2 2.2208 232.038 -0.054431 24.1125 8.32074
54 1 -1.1104 15.9994 12.6835 19.7607 12.4335
483 1 -1.1104 15.9994 1.39407 19.7169 12.797
56 2 2.2208 232.038 8.31696 1.75979 5.51273
8984 2 2.2208 232.038 -0.112719 4.58013 11.1575
58 2 2.2208 232.038 5.38256 1.71565 8.24965
3 2 2.2208 232.038 2.72488 -1.19014 2.84933
60 2 2.2208 232.038 11.0777 1.67039 8.35512
61 1 -1.1104 15.9994 12.8114 17.05 12.4613
62 2 2.2208 232.038 2.79259 7.28418 5.48526
63 2 2.2208 232.038 2.67152 4.45825 8.28888
64 1 -1.1104 15.9994 9.71 19.9356 12.571
65 2 2.2208 232.038 5.53501 4.47949 5.38558
66 2 2.2208 232.038 8.24753 7.25057 5.5212
67 2 2.2208 232.038 8.25015 4.43422 8.285
68 2 2.2208 232.038 5.495 7.24738 8.40694
69 2 2.2208 232.038 11.1947 4.49898 5.44918
70 2 2.2208 232.038 11.1174 7.29826 8.31802
71 1 -1.1104 15.9994 6.85464 19.7286 12.5512
72 2 2.2208 232.038 2.65441 12.7966 5.47815
73 2 2.2208 232.038 2.64774 10.1683 8.3323
74 1 -1.1104 15.9994 9.89507 16.9711 12.5308
75 2 2.2208 232.038 5.57288 10.1339 5.59197
76 2 2.2208 232.038 8.39306 12.8212 5.48911
77 2 2.2208 232.038 8.36093 10.168 8.37096
78 2 2.2208 232.038 5.55292 12.9884 8.32901
79 2 2.2208 232.038 11.1793 10.1118 5.50928
80 2 2.2208 232.038 11.1652 12.8623 8.32648
317 1 -1.1104 15.9994 3.9906 5.87405 12.4143
82 2 2.2208 232.038 2.68528 18.4415 5.63026
83 2 2.2208 232.038 2.61754 15.5442 8.42304
325 2 2.2208 232.038 5.44138 4.46841 -0.0675648
85 2 2.2208 232.038 5.2989 15.6318 5.60628
86 2 2.2208 232.038 8.43487 18.4574 5.63358
87 2 2.2208 232.038 8.44088 15.8136 8.40071
88 2 2.2208 232.038 5.47116 18.6036 8.29044
89 2 2.2208 232.038 11.0763 15.5989 5.61479
90 2 2.2208 232.038 11.2557 18.5321 8.39955
316 1 -1.1104 15.9994 1.24111 5.97244 12.4469
92 2 2.2208 232.038 2.755 24.0102 5.52987
93 2 2.2208 232.038 2.73422 21.2686 8.35279
91 2 2.2208 232.038 0.0358693 21.3959 5.59631
95 2 2.2208 232.038 5.5676 21.3381 5.58522
96 2 2.2208 232.038 8.4713 24.0206 5.51761
97 2 2.2208 232.038 8.30822 21.2588 8.44034
98 2 2.2208 232.038 5.45051 24.0925 8.35886
99 2 2.2208 232.038 11.1364 21.19 5.42332
100 2 2.2208 232.038 11.2308 23.729 8.43132
101 1 -1.1104 15.9994 7.0591 16.9477 12.2879
102 2 2.2208 232.038 2.73919 1.69181 11.1424
8993 2 2.2208 232.038 0.0587826 10.0631 5.44736
104 2 2.2208 232.038 8.30577 1.64377 11.2574
315 1 -1.1104 15.9994 12.4917 3.18628 12.7658
106 1 -1.1104 15.9994 4.08544 19.9213 12.5718
107 2 2.2208 232.038 2.57673 7.33699 11.1258
108 2 2.2208 232.038 5.50041 4.51092 11.1771
109 2 2.2208 232.038 8.3408 7.26366 11.1254
110 2 2.2208 232.038 11.1118 4.52838 11.1462
111 1 -1.1104 15.9994 1.33471 19.8791 9.81447
112 2 2.2208 232.038 2.86826 12.913 11.2237
113 2 2.2208 232.038 5.59442 10.1491 11.1093
114 2 2.2208 232.038 8.52941 12.8917 11.1878
115 2 2.2208 232.038 11.205 9.99524 11.1255
116 1 -1.1104 15.9994 4.2722 17.0844 12.4452
117 2 2.2208 232.038 2.63809 18.5698 11.1067
118 2 2.2208 232.038 5.55949 15.7749 11.0569
119 2 2.2208 232.038 8.27007 18.3529 10.9842
120 2 2.2208 232.038 11.4076 15.5756 11.1562
338 2 2.2208 232.038 8.47629 10.0404 13.9404
122 2 2.2208 232.038 2.69361 24.1387 11.2222
123 2 2.2208 232.038 5.52564 21.347 11.1119
124 2 2.2208 232.038 8.32117 23.939 11.1243
125 2 2.2208 232.038 11.1386 21.1004 11.2088
126 1 -1.1104 15.9994 1.43933 0.0625697 1.23575
127 1 -1.1104 15.9994 4.03924 0.138115 1.28276
128 1 -1.1104 15.9994 1.18649 0.119159 3.95656
129 1 -1.1104 15.9994 4.01539 0.246928 4.11997
130 1 -1.1104 15.9994 1.30169 2.94921 1.34288
131 1 -1.1104 15.9994 4.18969 3.03138 1.33242
132 1 -1.1104 15.9994 1.36831 3.03674 4.18892
133 1 -1.1104 15.9994 4.16011 2.97568 4.17318
134 1 -1.1104 15.9994 6.8211 0.315761 1.53895
135 1 -1.1104 15.9994 9.81533 0.196536 1.51593
81 2 2.2208 232.038 -0.219328 15.6961 5.5815
137 1 -1.1104 15.9994 9.6491 0.258231 4.23221
138 1 -1.1104 15.9994 6.924 3.17616 1.33229
139 1 -1.1104 15.9994 9.66659 2.89498 1.31591
140 1 -1.1104 15.9994 6.86392 0.202888 4.22131
141 1 -1.1104 15.9994 9.70048 3.04881 4.05972
142 1 -1.1104 15.9994 12.473 0.284152 1.35318
143 1 -1.1104 15.9994 12.4306 0.128029 4.31701
144 1 -1.1104 15.9994 12.562 3.03207 1.32234
145 1 -1.1104 15.9994 12.6307 3.02301 4.01638
146 1 -1.1104 15.9994 1.1541 5.69774 1.33785
147 1 -1.1104 15.9994 4.1576 5.88635 1.19343
148 1 -1.1104 15.9994 1.31598 5.79481 4.15862
149 1 -1.1104 15.9994 4.25082 5.64014 3.93758
150 1 -1.1104 15.9994 1.50813 8.60567 1.2313
151 1 -1.1104 15.9994 4.26948 8.56314 1.25062
152 1 -1.1104 15.9994 1.41602 8.48735 4.19276
153 1 -1.1104 15.9994 4.11 8.55111 3.98401
154 1 -1.1104 15.9994 7.06696 5.95899 1.31976
155 1 -1.1104 15.9994 9.90596 5.88985 1.28962
156 1 -1.1104 15.9994 6.87185 3.18403 4.01671
157 1 -1.1104 15.9994 9.85141 5.94153 3.97568
158 1 -1.1104 15.9994 7.02899 8.65741 1.32591
159 1 -1.1104 15.9994 9.78725 8.69473 1.32984
160 1 -1.1104 15.9994 7.06593 6.04098 4.08426
161 1 -1.1104 15.9994 9.74762 8.59761 4.24321
162 1 -1.1104 15.9994 12.6304 5.79055 1.43603
163 1 -1.1104 15.9994 12.6228 5.75307 4.07081
164 1 -1.1104 15.9994 12.6304 8.54369 1.42665
165 1 -1.1104 15.9994 12.5073 8.68887 4.19021
166 1 -1.1104 15.9994 1.32263 11.4223 1.39401
167 1 -1.1104 15.9994 4.18612 11.4489 1.34732
168 1 -1.1104 15.9994 1.35958 11.372 4.0328
169 1 -1.1104 15.9994 4.15126 11.3621 4.15025
170 1 -1.1104 15.9994 1.38096 14.1844 1.15927
171 1 -1.1104 15.9994 3.99689 14.1614 1.26769
172 1 -1.1104 15.9994 1.40442 14.224 3.96866
173 1 -1.1104 15.9994 4.14876 14.1215 4.18441
174 1 -1.1104 15.9994 6.92009 11.4566 1.42243
175 1 -1.1104 15.9994 9.71839 11.4814 1.2141
176 1 -1.1104 15.9994 6.91629 8.81481 4.08318
177 1 -1.1104 15.9994 9.72522 11.4773 4.11662
178 1 -1.1104 15.9994 6.84506 14.193 1.85164
179 1 -1.1104 15.9994 9.79503 14.3883 1.3727
180 1 -1.1104 15.9994 6.92921 11.7822 4.13507
181 1 -1.1104 15.9994 9.58086 14.23 4.07824
182 1 -1.1104 15.9994 12.5556 11.389 1.40831
183 1 -1.1104 15.9994 12.6615 11.3891 4.0753
184 1 -1.1104 15.9994 12.5878 14.1036 1.35363
185 1 -1.1104 15.9994 12.4451 14.1151 4.14273
186 1 -1.1104 15.9994 1.44027 17.1289 1.35291
187 1 -1.1104 15.9994 4.03076 17.0469 1.28162
188 1 -1.1104 15.9994 1.41577 17.068 4.20468
189 1 -1.1104 15.9994 4.13912 17.0887 4.15404
190 1 -1.1104 15.9994 1.23048 19.8356 1.28843
191 1 -1.1104 15.9994 4.16549 19.6767 1.26095
192 1 -1.1104 15.9994 1.22683 19.8475 4.20968
193 1 -1.1104 15.9994 4.14067 19.9088 4.13877
194 1 -1.1104 15.9994 7.01529 16.8683 1.45469
195 1 -1.1104 15.9994 9.8669 17.0555 1.37401
196 1 -1.1104 15.9994 6.82843 16.7119 4.27491
197 1 -1.1104 15.9994 9.88359 17.0536 4.13632
198 1 -1.1104 15.9994 6.89015 19.7024 1.30187
199 1 -1.1104 15.9994 9.90333 19.8535 1.43737
200 1 -1.1104 15.9994 7.09255 19.7033 4.12333
201 1 -1.1104 15.9994 9.87327 19.7397 4.26405
202 1 -1.1104 15.9994 12.7168 16.9925 1.1908
203 1 -1.1104 15.9994 12.7003 17.0146 4.11154
204 1 -1.1104 15.9994 12.5742 19.816 1.42658
205 1 -1.1104 15.9994 12.6619 19.7534 4.16429
206 1 -1.1104 15.9994 1.28473 22.6965 1.3892
207 1 -1.1104 15.9994 4.31645 22.4327 1.63545
208 1 -1.1104 15.9994 1.30913 22.4526 4.07336
209 1 -1.1104 15.9994 4.22827 22.7221 4.22656
210 1 -1.1104 15.9994 7.02717 22.6341 1.54883
211 1 -1.1104 15.9994 9.8419 22.5751 1.37442
212 1 -1.1104 15.9994 7.10774 22.6459 4.21422
213 1 -1.1104 15.9994 9.74453 22.6057 4.01391
214 1 -1.1104 15.9994 12.6311 22.7156 1.30633
215 1 -1.1104 15.9994 12.449 22.469 4.05627
216 1 -1.1104 15.9994 1.42208 0.203429 6.90712
217 1 -1.1104 15.9994 4.18767 0.274756 6.77881
314 1 -1.1104 15.9994 12.7594 0.249769 12.6136
219 1 -1.1104 15.9994 4.22244 0.28691 9.60896
220 1 -1.1104 15.9994 1.2693 3.05151 6.97444
221 1 -1.1104 15.9994 4.11429 3.10253 6.93672
222 1 -1.1104 15.9994 1.43837 0.281057 9.65736
223 1 -1.1104 15.9994 3.97337 3.10835 9.64736
224 1 -1.1104 15.9994 6.86482 0.219912 6.98291
225 1 -1.1104 15.9994 9.6573 0.193601 7.20325
226 1 -1.1104 15.9994 7.10177 0.236908 9.75203
227 1 -1.1104 15.9994 9.83346 0.29474 9.84607
228 1 -1.1104 15.9994 6.92157 3.07221 6.79105
229 1 -1.1104 15.9994 9.75471 2.95416 6.88511
230 1 -1.1104 15.9994 6.71682 2.99936 9.72816
231 1 -1.1104 15.9994 9.62053 3.14444 9.79561
232 1 -1.1104 15.9994 12.5715 0.133892 6.98443
233 1 -1.1104 15.9994 12.563 0.23151 9.78639
234 1 -1.1104 15.9994 12.4305 3.00472 6.90462
235 1 -1.1104 15.9994 12.5333 3.04055 9.78138
236 1 -1.1104 15.9994 1.15605 5.85514 6.97627
237 1 -1.1104 15.9994 3.90809 5.94018 6.91951
238 1 -1.1104 15.9994 1.26903 2.99958 9.93136
239 1 -1.1104 15.9994 4.22058 5.8533 9.72866
240 1 -1.1104 15.9994 1.44782 8.6856 6.85195
241 1 -1.1104 15.9994 4.26328 8.57332 6.8012
242 1 -1.1104 15.9994 1.5198 5.78515 9.78115
243 1 -1.1104 15.9994 4.05375 8.69803 9.62997
244 1 -1.1104 15.9994 6.82716 5.78603 6.83912
245 1 -1.1104 15.9994 9.64171 5.72536 6.95835
246 1 -1.1104 15.9994 6.944 5.77049 9.60653
247 1 -1.1104 15.9994 9.73571 6.02048 9.74014
248 1 -1.1104 15.9994 6.99258 8.74129 6.92606
249 1 -1.1104 15.9994 9.77502 8.73965 6.81169
250 1 -1.1104 15.9994 6.94365 8.70628 9.75847
251 1 -1.1104 15.9994 9.73548 8.66849 9.74384
252 1 -1.1104 15.9994 12.5132 5.83984 6.88375
253 1 -1.1104 15.9994 12.4527 5.90215 9.64297
254 1 -1.1104 15.9994 12.498 8.76179 7.00836
255 1 -1.1104 15.9994 12.5782 8.67093 9.80481
256 1 -1.1104 15.9994 1.46529 11.5166 6.88247
257 1 -1.1104 15.9994 4.12446 11.48 6.99005
258 1 -1.1104 15.9994 1.17392 8.61441 9.72143
259 1 -1.1104 15.9994 4.1297 11.5814 9.70772
260 1 -1.1104 15.9994 1.37236 14.148 6.87801
261 1 -1.1104 15.9994 3.97632 14.3381 7.04128
262 1 -1.1104 15.9994 1.33319 11.4685 9.57667
263 1 -1.1104 15.9994 4.18874 14.3113 9.88973
264 1 -1.1104 15.9994 6.95916 11.5016 7.03465
265 1 -1.1104 15.9994 9.75078 11.4786 6.82055
266 1 -1.1104 15.9994 7.07489 11.5372 9.77143
267 1 -1.1104 15.9994 9.92593 11.4609 9.67225
268 1 -1.1104 15.9994 6.79051 14.1461 6.37478
269 1 -1.1104 15.9994 9.61368 14.23 6.88323
270 1 -1.1104 15.9994 6.95769 14.2226 9.55895
271 1 -1.1104 15.9994 9.87605 14.2651 9.86129
272 1 -1.1104 15.9994 12.5075 11.4914 6.94668
273 1 -1.1104 15.9994 12.6353 11.5139 9.72719
274 1 -1.1104 15.9994 12.3772 14.3795 6.98032
275 1 -1.1104 15.9994 12.7063 14.1353 9.70918
276 1 -1.1104 15.9994 1.10901 17.0199 6.90709
277 1 -1.1104 15.9994 3.9884 17.072 6.92791
278 1 -1.1104 15.9994 1.38146 14.1663 9.73119
279 1 -1.1104 15.9994 4.18132 17.1129 9.53616
280 1 -1.1104 15.9994 1.46041 19.6866 7.02453
281 1 -1.1104 15.9994 4.08575 19.9943 7.00966
282 1 -1.1104 15.9994 1.31264 16.9865 9.72688
283 1 -1.1104 15.9994 4.17398 19.9353 9.82964
284 1 -1.1104 15.9994 6.83997 17.0108 6.91139
285 1 -1.1104 15.9994 9.7476 16.9701 6.96409
286 1 -1.1104 15.9994 6.81849 17.0186 9.50573
287 1 -1.1104 15.9994 9.89501 17.0182 9.67341
288 1 -1.1104 15.9994 6.84606 19.8126 6.97425
289 1 -1.1104 15.9994 9.68483 19.823 7.09566
290 1 -1.1104 15.9994 7.05449 19.8928 9.71967
291 1 -1.1104 15.9994 9.76506 19.7243 9.84619
292 1 -1.1104 15.9994 12.4847 17.1474 6.92072
293 1 -1.1104 15.9994 12.6235 16.9891 9.61247
294 1 -1.1104 15.9994 12.5582 20.0115 6.98995
295 1 -1.1104 15.9994 12.6253 19.8037 9.72484
296 1 -1.1104 15.9994 1.41087 22.7008 7.00489
297 1 -1.1104 15.9994 4.11537 22.5578 6.94422
298 1 -1.1104 15.9994 1.30562 22.6998 9.60073
299 1 -1.1104 15.9994 4.07335 22.7508 9.82279
300 1 -1.1104 15.9994 7.02832 22.6164 6.95387
301 1 -1.1104 15.9994 9.84817 22.5525 7.06252
302 1 -1.1104 15.9994 6.86606 22.6557 9.66547
303 1 -1.1104 15.9994 9.83353 22.4863 9.8122
304 1 -1.1104 15.9994 12.8407 22.7257 7.07472
305 1 -1.1104 15.9994 12.6748 22.6503 9.94065
306 1 -1.1104 15.9994 1.42734 0.233249 12.5236
307 1 -1.1104 15.9994 4.11579 0.282708 12.4197
308 1 -1.1104 15.9994 1.19476 3.07415 12.476
309 1 -1.1104 15.9994 4.11809 3.00941 12.5916
310 1 -1.1104 15.9994 6.86366 0.23103 12.693
311 1 -1.1104 15.9994 9.77391 0.102224 12.4977
312 1 -1.1104 15.9994 6.91581 2.92833 12.4888
313 1 -1.1104 15.9994 9.62411 2.93915 12.594
9701 2 2.2208 232.038 14.0147 7.17957 -0.0885017
8983 2 2.2208 232.038 -0.0686469 10.2119 11.0815
57 2 2.2208 232.038 8.37172 -1.21192 8.38127
9081 2 2.2208 232.038 13.9952 1.67361 11.1495
346 2 2.2208 232.038 2.69212 21.3754 13.9435
661 2 2.2208 232.038 8.37014 1.64385 -0.120368
24 2 2.2208 232.038 -0.0858213 12.872 2.58098
9004 2 2.2208 232.038 0.0476626 7.24197 2.70644
84 2 2.2208 232.038 -0.128587 18.3861 8.30899
9101 2 2.2208 232.038 14.0974 24.0604 11.4047
330 2 2.2208 232.038 11.204 1.69807 13.8577
9007 2 2.2208 232.038 -0.142989 1.72774 2.73647
44 2 2.2208 232.038 -0.0809889 24.0564 2.74822
121 2 2.2208 232.038 -0.047882 21.356 11.0591
8997 2 2.2208 232.038 -0.0273935 4.50156 5.57999
2 2 2.2208 232.038 14.0288 21.2415 8.35301
29 2 2.2208 232.038 11.1511 10.0028 -0.0741789
9096 2 2.2208 232.038 13.9792 18.5643 11.0489
326 2 2.2208 232.038 2.7621 -1.13993 14.0811
9042 2 2.2208 232.038 13.9818 4.47651 8.25881
666 2 2.2208 232.038 2.73079 12.8043 -0.158103
668 2 2.2208 232.038 -0.00435736 15.7706 -0.0534069
674 2 2.2208 232.038 2.742 24.2631 -0.0585839
19 2 2.2208 232.038 11.2299 4.39673 -0.150826
663 2 2.2208 232.038 2.69699 7.36348 -0.189204
673 2 2.2208 232.038 -0.130179 21.3032 -0.0818578
329 2 2.2208 232.038 5.49716 1.62917 13.9057
26 2 2.2208 232.038 8.24711 12.9224 -0.0400556
16 2 2.2208 232.038 8.38576 7.36362 -0.162549
25 2 2.2208 232.038 5.54058 10.1198 -0.203042
9350 2 2.2208 232.038 13.8921 4.3958 19.5939
327 1 -1.1104 15.9994 7.00373 22.5784 26.8168
405 2 2.2208 232.038 5.55279 -1.1303 22.373
409 2 2.2208 232.038 11.0321 -1.15559 22.3283
9669 2 2.2208 232.038 -0.0202066 10.1586 16.7562
9400 2 2.2208 232.038 14.0249 4.44548 25.1123
332 1 -1.1104 15.9994 9.94182 22.6282 23.9318
431 2 2.2208 232.038 -0.131596 15.6966 22.3397
9676 2 2.2208 232.038 -0.11346 12.9727 25.1658
353 2 2.2208 232.038 2.71267 -1.00782 19.6336
9349 2 2.2208 232.038 14.0773 7.09099 16.9012
337 1 -1.1104 15.9994 7.04828 22.6605 23.8902
646 1 -1.1104 15.9994 1.21299 17.1855 23.6391
403 2 2.2208 232.038 2.79148 -1.12827 25.209
394 2 2.2208 232.038 -0.0458939 24.1401 19.7073
647 1 -1.1104 15.9994 4.14651 16.9974 23.8743
342 1 -1.1104 15.9994 4.19567 22.8395 26.7611
645 1 -1.1104 15.9994 12.6317 14.1901 26.5943
644 1 -1.1104 15.9994 12.4265 14.2578 23.8611
407 2 2.2208 232.038 8.31428 -1.17725 25.1677
441 2 2.2208 232.038 -0.0877936 21.2938 22.4882
677 1 -1.1104 15.9994 9.82004 14.1827 26.7218
344 2 2.2208 232.038 5.46988 18.5326 13.9206
9672 2 2.2208 232.038 -0.0338388 1.62209 25.1802
9340 2 2.2208 232.038 13.953 -1.23418 19.6928
351 1 -1.1104 15.9994 1.45991 22.6949 26.8442
352 2 2.2208 232.038 2.78856 1.65108 16.8294
643 1 -1.1104 15.9994 12.5598 11.3404 26.8392
354 1 -1.1104 15.9994 4.32153 22.3792 24.1401
9668 2 2.2208 232.038 -0.015648 7.28692 19.5851
356 2 2.2208 232.038 8.27249 1.59449 16.8119
9673 2 2.2208 232.038 -0.123805 4.64481 22.44
358 2 2.2208 232.038 5.52016 1.73332 19.592
671 2 2.2208 232.038 8.4011 18.5161 28.0481
360 2 2.2208 232.038 11.21 1.68159 19.6281
361 1 -1.1104 15.9994 1.25886 22.5557 24.0954
362 2 2.2208 232.038 2.82631 7.33942 16.8071
363 2 2.2208 232.038 2.72865 4.44555 19.5399
364 1 -1.1104 15.9994 12.7732 19.9523 26.775
365 2 2.2208 232.038 5.54579 4.58286 16.7981
366 2 2.2208 232.038 8.45283 7.27701 16.8355
367 2 2.2208 232.038 8.43927 4.42741 19.5333
368 2 2.2208 232.038 5.61769 7.22152 19.4532
369 2 2.2208 232.038 11.1602 4.41036 16.8342
370 2 2.2208 232.038 11.2047 7.32061 19.6447
371 1 -1.1104 15.9994 12.6576 19.8473 23.8431
372 2 2.2208 232.038 2.80471 12.8889 16.6829
373 2 2.2208 232.038 2.71082 10.0802 19.497
434 2 2.2208 232.038 -0.0653936 18.4737 25.0856
375 2 2.2208 232.038 5.60552 10.247 16.6777
376 2 2.2208 232.038 8.37901 12.8298 16.7666
377 2 2.2208 232.038 8.39844 10.0188 19.5998
378 2 2.2208 232.038 5.50659 12.9076 19.5632
379 2 2.2208 232.038 11.2717 9.90132 16.8638
380 2 2.2208 232.038 11.1817 12.8567 19.6628
381 1 -1.1104 15.9994 12.6452 17.0346 26.5794
382 2 2.2208 232.038 2.75194 18.4155 16.9028
383 2 2.2208 232.038 2.69244 15.6087 19.5549
642 1 -1.1104 15.9994 12.5084 11.434 23.9375
385 2 2.2208 232.038 5.56417 15.7223 16.7624
386 2 2.2208 232.038 8.46002 18.4511 16.8699
387 2 2.2208 232.038 8.50988 15.6454 19.6219
388 2 2.2208 232.038 5.63778 18.5077 19.5619
389 2 2.2208 232.038 11.2627 15.582 16.7102
390 2 2.2208 232.038 11.2252 18.4821 19.5684
391 1 -1.1104 15.9994 12.5484 22.6992 26.6956
392 2 2.2208 232.038 2.75155 24.1497 16.9393
393 2 2.2208 232.038 2.69823 21.4649 19.6185
653 1 -1.1104 15.9994 4.18427 19.8477 26.7257
395 2 2.2208 232.038 5.53137 21.2902 16.8652
396 2 2.2208 232.038 8.38186 24.0492 16.704
397 2 2.2208 232.038 8.39442 21.3116 19.6165
398 2 2.2208 232.038 5.57191 24.0965 19.6778
399 2 2.2208 232.038 11.2004 21.2548 16.7032
400 2 2.2208 232.038 11.1267 23.9932 19.5415
401 1 -1.1104 15.9994 12.4222 17.147 23.8829
402 2 2.2208 232.038 2.59111 1.63744 22.478
649 1 -1.1104 15.9994 4.09393 17.0495 26.6328
404 1 -1.1104 15.9994 9.71669 19.893 26.6181
655 1 -1.1104 15.9994 9.80258 17.1671 23.8892
406 2 2.2208 232.038 8.28656 1.61456 22.4373
656 1 -1.1104 15.9994 6.95661 17.1487 26.7682
408 2 2.2208 232.038 5.58263 1.65256 25.2112
650 1 -1.1104 15.9994 1.22342 19.7503 23.7437
410 2 2.2208 232.038 11.1826 1.65687 25.217
411 1 -1.1104 15.9994 6.9676 19.8007 26.6475
412 2 2.2208 232.038 2.71157 7.34945 22.2427
413 2 2.2208 232.038 2.64833 4.4202 25.316
414 1 -1.1104 15.9994 9.76393 19.8591 23.7638
415 2 2.2208 232.038 5.43583 4.41787 22.3961
416 2 2.2208 232.038 8.32593 7.26526 22.3425
417 2 2.2208 232.038 8.22281 4.54668 25.193
418 2 2.2208 232.038 5.47153 7.1523 25.1683
419 2 2.2208 232.038 11.1649 4.41923 22.2056
420 2 2.2208 232.038 11.2237 7.10089 25.1137
421 1 -1.1104 15.9994 6.91045 19.8035 23.8891
422 2 2.2208 232.038 2.62786 12.8007 22.3392
423 2 2.2208 232.038 2.7043 10.0611 25.0665
424 1 -1.1104 15.9994 9.73604 17.0409 26.6693
425 2 2.2208 232.038 5.61474 9.92787 22.402
426 2 2.2208 232.038 8.36046 12.8471 22.3747
427 2 2.2208 232.038 8.28342 10.0392 25.2555
428 2 2.2208 232.038 5.47871 12.8821 25.1757
429 2 2.2208 232.038 11.1011 9.96996 22.4592
430 2 2.2208 232.038 11.082 12.9026 25.325
648 1 -1.1104 15.9994 1.45426 17.1256 26.4712
432 2 2.2208 232.038 2.68352 18.3154 22.2349
433 2 2.2208 232.038 2.82705 15.719 25.2334
652 1 -1.1104 15.9994 1.13097 19.9199 26.6205
435 2 2.2208 232.038 5.37635 15.5381 22.2781
436 2 2.2208 232.038 8.37783 18.4275 22.4054
437 2 2.2208 232.038 8.13845 15.6706 25.2223
438 2 2.2208 232.038 5.53906 18.5319 25.2685
439 2 2.2208 232.038 11.2121 15.832 22.5256
440 2 2.2208 232.038 11.183 18.6154 25.2037
651 1 -1.1104 15.9994 4.10407 19.7045 23.9585
442 1 -1.1104 15.9994 12.6152 22.8013 23.8148
443 2 2.2208 232.038 2.74002 21.15 25.2016
654 1 -1.1104 15.9994 6.99381 17.005 23.7504
445 2 2.2208 232.038 5.51545 21.2852 22.407
446 2 2.2208 232.038 8.40924 24.0906 22.3789
447 2 2.2208 232.038 8.35676 21.2522 25.0953
448 2 2.2208 232.038 5.3333 24.1172 25.0925
449 2 2.2208 232.038 11.1724 21.2623 22.376
450 2 2.2208 232.038 11.1547 24.2185 25.2165
451 1 -1.1104 15.9994 1.40113 0.151618 15.4321
452 1 -1.1104 15.9994 4.04909 0.180035 15.3804
453 1 -1.1104 15.9994 1.32739 3.06425 15.4071
454 1 -1.1104 15.9994 4.08511 3.00038 15.3692
455 1 -1.1104 15.9994 6.94382 0.380396 15.4328
456 1 -1.1104 15.9994 9.74898 0.109104 15.4533
457 1 -1.1104 15.9994 6.90871 3.06567 15.3444
458 1 -1.1104 15.9994 9.63081 2.87611 15.4246
459 1 -1.1104 15.9994 12.6359 0.0725676 15.3907
460 1 -1.1104 15.9994 12.5564 2.98884 15.3221
461 1 -1.1104 15.9994 1.36363 5.77038 15.3461
462 1 -1.1104 15.9994 4.18439 5.86493 15.4322
463 1 -1.1104 15.9994 1.40682 8.7285 15.4113
464 1 -1.1104 15.9994 4.1895 8.74643 15.2321
465 1 -1.1104 15.9994 7.04511 5.77004 15.4183
466 1 -1.1104 15.9994 9.94461 5.72058 15.3094
467 1 -1.1104 15.9994 6.93134 8.52452 15.4233
468 1 -1.1104 15.9994 9.84082 8.47525 15.4343
469 1 -1.1104 15.9994 12.6987 5.76121 15.4202
470 1 -1.1104 15.9994 12.5541 8.49476 15.326
471 1 -1.1104 15.9994 1.39302 11.5173 15.2326
472 1 -1.1104 15.9994 4.22174 11.5251 15.3664
473 1 -1.1104 15.9994 1.41869 14.2126 15.3036
474 1 -1.1104 15.9994 4.41307 14.2403 15.3366
475 1 -1.1104 15.9994 7.15784 11.509 15.3263
476 1 -1.1104 15.9994 9.80725 11.2854 15.3837
477 1 -1.1104 15.9994 7.11622 14.4046 15.2592
478 1 -1.1104 15.9994 9.68889 14.1558 15.4631
479 1 -1.1104 15.9994 12.5446 11.4286 15.4831
480 1 -1.1104 15.9994 12.5775 14.3536 15.2199
481 1 -1.1104 15.9994 1.40995 17.2089 15.3955
482 1 -1.1104 15.9994 4.18557 17.0359 15.3852
641 1 -1.1104 15.9994 9.66978 11.2803 26.653
484 1 -1.1104 15.9994 3.61757 19.6507 15.1784
485 1 -1.1104 15.9994 7.02284 17.1371 15.2865
486 1 -1.1104 15.9994 9.77424 17.0374 15.4237
487 1 -1.1104 15.9994 6.80683 20.0014 15.4843
488 1 -1.1104 15.9994 9.84591 19.9021 15.384
489 1 -1.1104 15.9994 12.5291 17.1927 15.2743
490 1 -1.1104 15.9994 12.5404 19.8821 15.2731
491 1 -1.1104 15.9994 1.46555 22.8382 15.0363
492 1 -1.1104 15.9994 4.24286 22.5129 15.2435
493 1 -1.1104 15.9994 7.00888 22.6241 15.2072
494 1 -1.1104 15.9994 9.73601 22.683 15.3545
495 1 -1.1104 15.9994 12.6436 22.6706 15.4829
496 1 -1.1104 15.9994 1.1618 0.260633 18.2801
497 1 -1.1104 15.9994 4.08302 0.396982 18.1635
498 1 -1.1104 15.9994 1.40373 0.285307 21.0416
499 1 -1.1104 15.9994 4.19636 0.229759 20.9628
500 1 -1.1104 15.9994 1.32383 3.03901 18.1377
501 1 -1.1104 15.9994 4.06883 3.20924 18.2693
502 1 -1.1104 15.9994 1.28569 3.09201 20.9202
503 1 -1.1104 15.9994 4.0473 2.93009 21.0142
504 1 -1.1104 15.9994 7.01922 0.304968 18.2315
505 1 -1.1104 15.9994 9.75688 0.247164 18.1648
506 1 -1.1104 15.9994 6.99402 0.270018 20.9686
507 1 -1.1104 15.9994 9.67638 0.10997 21.084
508 1 -1.1104 15.9994 6.87949 3.11345 18.1781
509 1 -1.1104 15.9994 9.80318 3.00225 18.1391
510 1 -1.1104 15.9994 6.91526 2.94829 21.1177
511 1 -1.1104 15.9994 9.76801 2.97877 20.9523
512 1 -1.1104 15.9994 12.5675 0.167766 18.2843
513 1 -1.1104 15.9994 12.6046 0.343916 21.0539
514 1 -1.1104 15.9994 12.668 2.92235 18.1494
515 1 -1.1104 15.9994 12.6355 3.04059 20.9701
516 1 -1.1104 15.9994 1.40259 5.72776 18.1427
517 1 -1.1104 15.9994 4.1784 6.0048 18.1582
518 1 -1.1104 15.9994 1.43857 5.85455 21.0773
519 1 -1.1104 15.9994 4.14205 5.83612 21.1006
520 1 -1.1104 15.9994 1.44605 8.71959 18.2025
521 1 -1.1104 15.9994 4.31583 8.68105 18.0247
522 1 -1.1104 15.9994 1.38958 8.61006 20.9487
523 1 -1.1104 15.9994 4.21933 8.61939 20.846
524 1 -1.1104 15.9994 7.03005 5.92566 18.1504
525 1 -1.1104 15.9994 9.84234 5.96107 18.1463
526 1 -1.1104 15.9994 7.1135 5.6884 20.9997
527 1 -1.1104 15.9994 9.81381 5.8118 20.8854
528 1 -1.1104 15.9994 7.14249 8.58858 18.1706
529 1 -1.1104 15.9994 9.96784 8.5935 18.2915
530 1 -1.1104 15.9994 6.89905 8.43342 20.8947
531 1 -1.1104 15.9994 9.6867 8.68065 20.9987
532 1 -1.1104 15.9994 12.5833 5.68064 18.1962
533 1 -1.1104 15.9994 12.6314 5.77403 21.0171
534 1 -1.1104 15.9994 12.7973 8.52375 18.3607
535 1 -1.1104 15.9994 12.6189 8.58441 21.127
536 1 -1.1104 15.9994 1.43314 11.4976 18.1722
537 1 -1.1104 15.9994 4.16085 11.493 18.1448
538 1 -1.1104 15.9994 1.19726 11.3275 20.9969
539 1 -1.1104 15.9994 4.16007 11.3611 20.987
540 1 -1.1104 15.9994 1.23684 14.3253 18.1875
541 1 -1.1104 15.9994 3.97967 14.2808 18.0899
542 1 -1.1104 15.9994 1.28135 14.1502 20.9931
543 1 -1.1104 15.9994 4.11385 14.1146 21.0328
544 1 -1.1104 15.9994 6.94872 11.4841 18.0967
545 1 -1.1104 15.9994 9.91902 11.2078 18.2185
546 1 -1.1104 15.9994 6.99672 11.2646 21.032
547 1 -1.1104 15.9994 9.8236 11.4219 21.0395
548 1 -1.1104 15.9994 6.74772 14.1851 18.1166
549 1 -1.1104 15.9994 9.70963 14.1345 18.2839
550 1 -1.1104 15.9994 7.00833 14.0288 21.0101
551 1 -1.1104 15.9994 9.81854 14.3588 21.2182
552 1 -1.1104 15.9994 12.7307 11.3798 18.1732
553 1 -1.1104 15.9994 12.4598 11.5373 21.0785
554 1 -1.1104 15.9994 12.4545 14.2878 18.2297
555 1 -1.1104 15.9994 12.5828 14.2983 21.1287
556 1 -1.1104 15.9994 1.31356 17.0525 18.3427
557 1 -1.1104 15.9994 4.16586 17.0366 18.2989
558 1 -1.1104 15.9994 1.28009 16.9076 21.0075
559 1 -1.1104 15.9994 4.01846 16.9019 20.9996
560 1 -1.1104 15.9994 1.56348 19.7587 18.2305
561 1 -1.1104 15.9994 4.35125 19.7513 18.1107
562 1 -1.1104 15.9994 1.19273 19.7851 21.0732
563 1 -1.1104 15.9994 4.11535 19.6573 20.9562
564 1 -1.1104 15.9994 7.16209 17.0078 18.1066
565 1 -1.1104 15.9994 9.89538 17.0319 18.1815
566 1 -1.1104 15.9994 6.92411 16.8931 20.8109
567 1 -1.1104 15.9994 9.81284 17.0206 21.005
568 1 -1.1104 15.9994 7.07001 19.8705 18.2047
569 1 -1.1104 15.9994 9.72391 19.8071 18.1304
570 1 -1.1104 15.9994 6.91651 19.8859 21.0291
571 1 -1.1104 15.9994 9.73998 19.709 20.9308
572 1 -1.1104 15.9994 12.5474 17.0193 18.115
573 1 -1.1104 15.9994 12.6555 17.1995 20.9981
574 1 -1.1104 15.9994 12.6955 19.9386 18.2933
575 1 -1.1104 15.9994 12.6072 19.9893 21.0503
576 1 -1.1104 15.9994 1.56924 22.9736 18.3011
577 1 -1.1104 15.9994 4.25811 22.6031 18.2178
578 1 -1.1104 15.9994 1.13849 22.4394 20.9845
579 1 -1.1104 15.9994 4.42738 22.4594 20.9039
580 1 -1.1104 15.9994 7.00497 22.7139 18.08
581 1 -1.1104 15.9994 9.69192 22.5336 18.0951
582 1 -1.1104 15.9994 7.13399 22.6055 20.9475
583 1 -1.1104 15.9994 9.97935 22.517 20.9486
584 1 -1.1104 15.9994 12.621 22.6196 18.2979
585 1 -1.1104 15.9994 12.6687 22.6959 21.0356
586 1 -1.1104 15.9994 1.34017 0.120168 23.7924
587 1 -1.1104 15.9994 4.05891 0.213757 23.7681
588 1 -1.1104 15.9994 1.35652 0.146012 26.6161
589 1 -1.1104 15.9994 4.1203 0.157704 26.6413
590 1 -1.1104 15.9994 1.2314 3.07391 23.7742
591 1 -1.1104 15.9994 4.10271 3.07127 23.8239
592 1 -1.1104 15.9994 1.3746 2.87638 26.6761
593 1 -1.1104 15.9994 4.09471 3.02229 26.6445
594 1 -1.1104 15.9994 6.91252 0.311695 23.9547
595 1 -1.1104 15.9994 9.66787 0.188554 23.8054
596 1 -1.1104 15.9994 6.81888 0.21126 26.7773
597 1 -1.1104 15.9994 9.76856 0.296785 26.6746
598 1 -1.1104 15.9994 6.83851 2.95506 23.6847
599 1 -1.1104 15.9994 9.66615 2.95753 23.9775
600 1 -1.1104 15.9994 6.98047 3.08842 26.5479
601 1 -1.1104 15.9994 9.84523 3.01419 26.6945
602 1 -1.1104 15.9994 12.4126 0.0884945 23.8614
603 1 -1.1104 15.9994 12.6371 0.0101974 26.7575
604 1 -1.1104 15.9994 12.5239 2.92731 23.7457
605 1 -1.1104 15.9994 12.6981 2.93588 26.5344
606 1 -1.1104 15.9994 1.22542 5.8775 23.9931
607 1 -1.1104 15.9994 3.90593 5.80374 23.7915
608 1 -1.1104 15.9994 1.24262 5.87165 26.7545
609 1 -1.1104 15.9994 4.08086 5.75241 26.5232
610 1 -1.1104 15.9994 1.31051 8.65926 23.664
611 1 -1.1104 15.9994 4.21058 8.62752 23.7119
612 1 -1.1104 15.9994 1.23893 8.68407 26.4498
613 1 -1.1104 15.9994 4.06619 8.59285 26.4269
614 1 -1.1104 15.9994 6.86969 5.77403 23.8178
615 1 -1.1104 15.9994 9.76288 5.88601 23.7305
616 1 -1.1104 15.9994 6.85329 5.83007 26.6499
617 1 -1.1104 15.9994 9.67953 5.80017 26.5402
618 1 -1.1104 15.9994 7.0853 8.65118 23.6911
619 1 -1.1104 15.9994 9.78082 8.65022 23.6692
620 1 -1.1104 15.9994 6.82992 8.59345 26.5798
621 1 -1.1104 15.9994 9.60081 8.52014 26.5007
622 1 -1.1104 15.9994 12.5557 5.68736 23.6398
623 1 -1.1104 15.9994 12.6541 5.85556 26.6358
624 1 -1.1104 15.9994 12.5155 8.54341 23.8567
625 1 -1.1104 15.9994 12.5354 8.54037 26.649
626 1 -1.1104 15.9994 1.26434 11.6285 23.8432
627 1 -1.1104 15.9994 4.15362 11.3282 23.7455
628 1 -1.1104 15.9994 1.3722 11.4405 26.6134
629 1 -1.1104 15.9994 3.96297 11.3844 26.4789
630 1 -1.1104 15.9994 1.31945 14.2625 23.8265
631 1 -1.1104 15.9994 3.95377 14.2507 23.8164
632 1 -1.1104 15.9994 1.28097 14.2239 26.5541
633 1 -1.1104 15.9994 4.15834 14.2306 26.6