ITEM: TIMESTEP
170000
ITEM: NUMBER OF ATOMS
18000
ITEM: BOX BOUNDS xy xz yz pp pp pp
-9.9267635942733537e-02 2.7993267635942576e+01 0.0000000000000000e+00
-1.1001633709673173e+00 3.3582816337097387e+02 0.0000000000000000e+00
-1.0194718383935036e-01 2.7995947183839448e+01 0.0000000000000000e+00
ITEM: ATOMS id type q mass x y z
9096 2 2.2208 232.038 13.9476 18.4143 11.2424
324 1 -1.1104 15.9994 12.7049 5.85526 12.5307
55 2 2.2208 232.038 5.68773 -1.11311 5.55514
4 1 -1.1104 15.9994 12.5427 22.8087 12.6502
323 1 -1.1104 15.9994 9.76442 8.73169 12.5964
322 1 -1.1104 15.9994 6.96516 8.82659 12.3723
9662 2 2.2208 232.038 -0.158929 7.2276 13.898
8 2 2.2208 232.038 5.61734 1.88937 2.66674
9 1 -1.1104 15.9994 12.5177 8.59863 12.6919
10 2 2.2208 232.038 11.3847 1.731 2.76951
11 1 -1.1104 15.9994 9.81004 22.8327 12.5868
321 1 -1.1104 15.9994 9.85573 5.95966 12.6031
13 2 2.2208 232.038 2.68091 4.58602 2.58751
14 1 -1.1104 15.9994 7.01929 22.7886 12.7564
7 2 2.2208 232.038 8.41425 -1.04273 2.6243
8984 2 2.2208 232.038 -0.0252915 4.67601 10.9338
17 2 2.2208 232.038 8.57482 4.54662 2.61558
18 2 2.2208 232.038 5.36262 7.27186 2.58035
103 2 2.2208 232.038 5.6804 -1.10307 11.1031
20 2 2.2208 232.038 11.2186 7.34848 2.70872
21 1 -1.1104 15.9994 4.1904 22.7982 12.2966
22 1 -1.1104 15.9994 1.4183 17.0998 12.5926
23 2 2.2208 232.038 2.7954 10.2692 2.64472
320 1 -1.1104 15.9994 7.06838 5.98754 12.6019
8997 2 2.2208 232.038 -0.108546 4.43435 5.28343
333 2 2.2208 232.038 8.4383 4.47595 14.1179
27 2 2.2208 232.038 8.49826 10.2042 2.61497
28 2 2.2208 232.038 5.76489 12.8934 2.5993
8998 2 2.2208 232.038 -0.00578315 1.77686 8.32095
30 2 2.2208 232.038 11.3623 12.8954 2.73843
31 1 -1.1104 15.9994 12.5371 14.1798 12.6097
32 1 -1.1104 15.9994 12.4784 11.4949 12.4189
33 2 2.2208 232.038 2.84471 15.6984 2.66014
319 1 -1.1104 15.9994 4.06906 8.63469 12.6118
35 1 -1.1104 15.9994 9.77287 14.2262 12.5137
36 1 -1.1104 15.9994 7.1199 14.3275 12.5676
37 2 2.2208 232.038 8.37274 15.6075 2.77655
38 2 2.2208 232.038 5.61493 18.5109 2.81708
39 1 -1.1104 15.9994 9.5451 11.538 12.4908
40 2 2.2208 232.038 11.1032 18.4759 2.76241
41 1 -1.1104 15.9994 6.81416 11.5099 12.5304
42 1 -1.1104 15.9994 4.2183 14.3207 12.5901
43 2 2.2208 232.038 2.64498 21.2601 2.69846
318 1 -1.1104 15.9994 1.15208 8.69756 12.543
45 1 -1.1104 15.9994 1.46719 14.4821 12.5378
46 1 -1.1104 15.9994 4.1223 11.3233 12.6363
47 2 2.2208 232.038 8.41213 21.2851 2.9048
48 2 2.2208 232.038 5.50142 24.2096 2.64316
49 1 -1.1104 15.9994 1.41267 11.5352 12.4583
50 2 2.2208 232.038 11.1505 24.1338 2.72156
51 1 -1.1104 15.9994 1.37837 22.7361 12.5137
52 2 2.2208 232.038 2.8566 1.73716 5.38477
9086 2 2.2208 232.038 14.0121 7.1873 11.201
54 1 -1.1104 15.9994 12.4483 19.9895 12.6961
483 1 -1.1104 15.9994 1.35376 19.831 12.7603
56 2 2.2208 232.038 8.37725 1.64696 5.49388
3 2 2.2208 232.038 2.86529 -1.12575 2.64035
58 2 2.2208 232.038 5.66866 1.69089 8.29124
5 2 2.2208 232.038 14.1524 15.6808 8.42493
60 2 2.2208 232.038 11.3619 1.68963 8.46568
61 1 -1.1104 15.9994 12.5145 17.026 12.5421
62 2 2.2208 232.038 2.82812 7.32297 5.53287
63 2 2.2208 232.038 2.78768 4.56697 8.13279
64 1 -1.1104 15.9994 9.64537 19.9906 12.6279
65 2 2.2208 232.038 5.58486 4.61287 5.37758
66 2 2.2208 232.038 8.36445 7.15291 5.47104
67 2 2.2208 232.038 8.40762 4.47229 8.27164
68 2 2.2208 232.038 5.46562 7.35313 8.36874
69 2 2.2208 232.038 11.216 4.47415 5.63852
70 2 2.2208 232.038 11.3035 7.21537 8.41056
71 1 -1.1104 15.9994 6.85776 19.9427 12.4697
72 2 2.2208 232.038 2.74106 12.9851 5.4288
73 2 2.2208 232.038 2.62098 10.1182 8.40824
74 1 -1.1104 15.9994 9.7183 17.0616 12.5811
75 2 2.2208 232.038 5.38939 10.2499 5.54976
76 2 2.2208 232.038 8.44582 12.9161 5.52085
77 2 2.2208 232.038 8.29854 10.0933 8.36375
78 2 2.2208 232.038 5.61306 12.8441 8.35879
79 2 2.2208 232.038 11.2516 10.1093 5.70842
80 2 2.2208 232.038 11.1736 12.8429 8.33043
317 1 -1.1104 15.9994 4.32239 5.79485 12.522
82 2 2.2208 232.038 2.7106 18.5339 5.54652
83 2 2.2208 232.038 2.75284 15.722 8.31759
91 2 2.2208 232.038 -0.123985 21.2632 5.45381
85 2 2.2208 232.038 5.50789 15.623 5.47064
86 2 2.2208 232.038 8.26647 18.5077 5.56287
87 2 2.2208 232.038 8.30448 15.6988 8.39439
88 2 2.2208 232.038 5.49701 18.5219 8.30096
89 2 2.2208 232.038 11.1929 15.7343 5.48919
90 2 2.2208 232.038 11.1834 18.4497 8.35508
316 1 -1.1104 15.9994 1.35708 5.84131 12.4236
92 2 2.2208 232.038 2.63753 24.1196 5.4756
93 2 2.2208 232.038 2.68218 21.308 8.39511
9041 2 2.2208 232.038 14.0555 7.1971 5.53912
95 2 2.2208 232.038 5.45643 21.3762 5.36441
96 2 2.2208 232.038 8.23806 24.0982 5.54631
97 2 2.2208 232.038 8.33808 21.2517 8.28604
98 2 2.2208 232.038 5.61185 24.1399 8.41172
99 2 2.2208 232.038 11.2486 21.2103 5.60576
100 2 2.2208 232.038 11.1994 23.8863 8.39084
101 1 -1.1104 15.9994 6.9708 17.2533 12.525
102 2 2.2208 232.038 2.66693 1.71513 11.0535
8988 2 2.2208 232.038 -0.0558098 12.8955 8.20596
104 2 2.2208 232.038 8.40497 1.57963 11.1476
315 1 -1.1104 15.9994 12.4991 3.08142 12.4772
106 1 -1.1104 15.9994 4.08139 20.008 12.5514
107 2 2.2208 232.038 2.74976 7.35594 11.124
108 2 2.2208 232.038 5.60227 4.40636 11.1406
109 2 2.2208 232.038 8.32151 7.27535 11.0944
110 2 2.2208 232.038 11.1639 4.39866 11.2574
111 1 -1.1104 15.9994 1.36229 19.8844 9.90028
112 2 2.2208 232.038 2.7344 12.9595 11.2005
113 2 2.2208 232.038 5.46928 10.1057 11.173
114 2 2.2208 232.038 8.20453 12.7397 11.1287
115 2 2.2208 232.038 11.1177 10.0494 11.1719
116 1 -1.1104 15.9994 4.05852 17.0888 12.6233
117 2 2.2208 232.038 2.79263 18.5531 11.149
118 2 2.2208 232.038 5.53341 15.7897 11.1595
119 2 2.2208 232.038 8.39491 18.5101 11.1145
120 2 2.2208 232.038 11.1487 15.6514 11.1309
34 2 2.2208 232.038 -0.115419 18.4979 2.67328
122 2 2.2208 232.038 2.71449 24.1483 11.0676
123 2 2.2208 232.038 5.6055 21.2779 11.1283
124 2 2.2208 232.038 8.3819 24.1181 11.2549
125 2 2.2208 232.038 11.1621 21.3173 11.2267
126 1 -1.1104 15.9994 1.42218 0.212993 1.26213
127 1 -1.1104 15.9994 4.12259 0.476473 1.24092
128 1 -1.1104 15.9994 1.52925 0.229898 4.03713
129 1 -1.1104 15.9994 4.31409 0.332677 4.01426
130 1 -1.1104 15.9994 1.40354 3.08249 1.20601
131 1 -1.1104 15.9994 4.22459 3.33781 1.24723
132 1 -1.1104 15.9994 1.2909 3.02488 4.07314
133 1 -1.1104 15.9994 4.1095 3.33201 4.00139
134 1 -1.1104 15.9994 6.87774 0.426223 1.4113
135 1 -1.1104 15.9994 9.7334 0.23446 1.20655
1 2 2.2208 232.038 13.827 24.1658 5.63395
137 1 -1.1104 15.9994 9.76216 0.274898 4.03585
138 1 -1.1104 15.9994 7.11484 3.17679 1.27097
139 1 -1.1104 15.9994 9.92322 3.15329 1.28702
140 1 -1.1104 15.9994 7.05664 0.384922 4.10041
141 1 -1.1104 15.9994 9.79054 2.97845 4.09282
142 1 -1.1104 15.9994 12.7266 0.171051 1.39641
143 1 -1.1104 15.9994 12.6955 0.3067 4.16158
144 1 -1.1104 15.9994 12.6733 3.04084 1.25763
145 1 -1.1104 15.9994 12.5307 3.13703 4.24575
146 1 -1.1104 15.9994 1.19661 6.00598 1.14959
147 1 -1.1104 15.9994 4.10727 5.95286 1.15616
148 1 -1.1104 15.9994 1.33383 5.95945 3.95936
149 1 -1.1104 15.9994 4.00226 5.9843 3.98868
150 1 -1.1104 15.9994 1.23325 8.87403 1.30357
151 1 -1.1104 15.9994 4.11346 8.67042 1.20645
152 1 -1.1104 15.9994 1.49531 8.81014 3.97344
153 1 -1.1104 15.9994 4.42745 8.79575 4.04699
154 1 -1.1104 15.9994 7.11982 5.99836 1.30083
155 1 -1.1104 15.9994 9.93669 5.96626 1.24579
156 1 -1.1104 15.9994 6.97802 3.27901 4.09723
157 1 -1.1104 15.9994 9.90276 5.87608 4.07469
158 1 -1.1104 15.9994 6.91536 8.87381 1.66634
159 1 -1.1104 15.9994 9.64815 8.7083 1.33702
160 1 -1.1104 15.9994 6.86736 6.21789 4.20138
161 1 -1.1104 15.9994 9.58922 8.76971 4.19268
162 1 -1.1104 15.9994 12.671 5.9009 1.33634
163 1 -1.1104 15.9994 12.6821 5.84734 4.09812
164 1 -1.1104 15.9994 12.5956 8.65685 1.31083
165 1 -1.1104 15.9994 12.4778 8.75169 4.16035
166 1 -1.1104 15.9994 1.486 11.5807 1.30518
167 1 -1.1104 15.9994 4.22738 11.3554 1.36887
168 1 -1.1104 15.9994 1.38977 11.5067 4.20809
169 1 -1.1104 15.9994 4.08697 11.6383 4.04952
170 1 -1.1104 15.9994 1.2252 14.2884 1.38672
171 1 -1.1104 15.9994 4.18926 14.138 1.27283
172 1 -1.1104 15.9994 1.38536 14.3668 4.14302
173 1 -1.1104 15.9994 4.19881 14.2977 4.06455
174 1 -1.1104 15.9994 7.13823 11.5322 1.23295
175 1 -1.1104 15.9994 9.96014 11.5367 1.2681
176 1 -1.1104 15.9994 6.82747 11.1775 4.10554
177 1 -1.1104 15.9994 9.83024 11.5032 4.11884
178 1 -1.1104 15.9994 6.85989 14.4408 1.35622
179 1 -1.1104 15.9994 9.74116 14.3009 1.40087
180 1 -1.1104 15.9994 6.91291 14.1189 4.21894
181 1 -1.1104 15.9994 9.72726 14.2145 4.21973
182 1 -1.1104 15.9994 12.7762 11.409 1.37004
183 1 -1.1104 15.9994 12.585 11.5688 4.21549
184 1 -1.1104 15.9994 12.5224 14.2325 1.32734
185 1 -1.1104 15.9994 12.5355 14.3663 4.17055
186 1 -1.1104 15.9994 1.54981 17.0638 1.35343
187 1 -1.1104 15.9994 4.25475 17.091 1.34586
188 1 -1.1104 15.9994 1.23414 17.0206 4.2613
189 1 -1.1104 15.9994 4.18234 16.9876 4.08587
190 1 -1.1104 15.9994 1.39368 19.9048 1.31186
191 1 -1.1104 15.9994 4.1871 19.9293 1.3713
192 1 -1.1104 15.9994 1.01925 19.8326 4.03404
193 1 -1.1104 15.9994 4.05482 19.8459 4.17758
194 1 -1.1104 15.9994 7.14381 17.2275 1.42284
195 1 -1.1104 15.9994 9.89202 17.0972 1.44603
196 1 -1.1104 15.9994 6.97672 16.8442 4.14861
197 1 -1.1104 15.9994 9.7071 16.9825 4.31223
198 1 -1.1104 15.9994 6.92531 20.0422 1.41807
199 1 -1.1104 15.9994 9.75942 19.8692 1.44029
200 1 -1.1104 15.9994 6.86308 19.8111 4.21747
201 1 -1.1104 15.9994 9.71187 19.8175 4.23054
202 1 -1.1104 15.9994 12.6186 17.1263 1.40706
203 1 -1.1104 15.9994 12.4051 17.1474 3.99706
204 1 -1.1104 15.9994 12.6293 19.9252 1.37097
205 1 -1.1104 15.9994 12.5692 19.9858 4.12027
206 1 -1.1104 15.9994 1.29336 22.7487 1.32915
207 1 -1.1104 15.9994 4.20015 22.8351 1.19547
208 1 -1.1104 15.9994 1.23628 22.718 4.14966
209 1 -1.1104 15.9994 4.05332 22.6388 3.87685
210 1 -1.1104 15.9994 7.08872 22.7888 1.48479
211 1 -1.1104 15.9994 9.80111 22.6907 1.37787
212 1 -1.1104 15.9994 6.91165 22.739 4.12315
213 1 -1.1104 15.9994 9.84579 22.7573 4.21423
214 1 -1.1104 15.9994 12.5642 22.7664 1.39031
215 1 -1.1104 15.9994 12.6367 22.6706 4.28122
216 1 -1.1104 15.9994 1.48842 0.239553 6.76928
217 1 -1.1104 15.9994 4.2815 0.234325 6.92993
314 1 -1.1104 15.9994 12.61 0.215168 12.5241
219 1 -1.1104 15.9994 4.33787 0.308597 9.67598
220 1 -1.1104 15.9994 1.52832 3.05039 6.82087
221 1 -1.1104 15.9994 4.16723 3.08293 6.82813
222 1 -1.1104 15.9994 1.33059 0.284786 9.62837
223 1 -1.1104 15.9994 4.11032 3.05861 9.80026
224 1 -1.1104 15.9994 7.06066 0.175096 6.85928
225 1 -1.1104 15.9994 9.77782 0.269627 6.92688
226 1 -1.1104 15.9994 7.17891 0.189021 9.66565
227 1 -1.1104 15.9994 10.0823 0.182703 9.83723
228 1 -1.1104 15.9994 7.04689 2.96821 7.02735
229 1 -1.1104 15.9994 9.86012 3.03351 6.88573
230 1 -1.1104 15.9994 6.83651 2.97369 9.80622
231 1 -1.1104 15.9994 9.69541 2.9933 9.88873
232 1 -1.1104 15.9994 12.6361 0.199985 6.91731
233 1 -1.1104 15.9994 12.8038 0.164818 9.75262
234 1 -1.1104 15.9994 12.7151 2.86722 7.08678
235 1 -1.1104 15.9994 12.6078 2.9643 9.8333
236 1 -1.1104 15.9994 1.42523 5.90788 6.79756
237 1 -1.1104 15.9994 4.24994 5.93973 6.92063
238 1 -1.1104 15.9994 1.34986 3.14477 9.54699
239 1 -1.1104 15.9994 4.17871 5.92221 9.75883
240 1 -1.1104 15.9994 1.49884 8.54206 6.85504
241 1 -1.1104 15.9994 4.09362 8.81961 7.14741
242 1 -1.1104 15.9994 1.36246 5.95855 9.64474
243 1 -1.1104 15.9994 4.28084 8.69924 9.86124
244 1 -1.1104 15.9994 7.06107 5.79979 6.94322
245 1 -1.1104 15.9994 9.94639 5.79757 6.81071
246 1 -1.1104 15.9994 6.98438 5.83836 9.50249
247 1 -1.1104 15.9994 9.7293 5.70176 9.66056
248 1 -1.1104 15.9994 6.66864 8.49122 6.53986
249 1 -1.1104 15.9994 9.64263 8.53836 7.14516
250 1 -1.1104 15.9994 6.92675 8.54673 9.733
251 1 -1.1104 15.9994 9.71796 8.64555 9.81704
252 1 -1.1104 15.9994 12.7342 5.76142 6.96943
253 1 -1.1104 15.9994 12.6242 5.73155 9.73999
254 1 -1.1104 15.9994 12.4785 8.64713 6.95787
255 1 -1.1104 15.9994 12.5499 8.52038 9.7807
256 1 -1.1104 15.9994 1.24451 11.3725 6.97267
257 1 -1.1104 15.9994 4.10632 11.4567 6.97897
258 1 -1.1104 15.9994 1.39146 8.68286 9.75361
259 1 -1.1104 15.9994 4.10333 11.5852 9.56247
260 1 -1.1104 15.9994 1.38142 14.2926 6.90041
261 1 -1.1104 15.9994 4.10299 14.2914 7.03322
262 1 -1.1104 15.9994 1.39388 11.6218 9.80278
263 1 -1.1104 15.9994 4.12603 14.3608 9.81135
264 1 -1.1104 15.9994 7.05147 11.28 6.76993
265 1 -1.1104 15.9994 9.7653 11.4482 6.9012
266 1 -1.1104 15.9994 6.83733 11.3931 9.66995
267 1 -1.1104 15.9994 9.60281 11.4011 9.60643
268 1 -1.1104 15.9994 7.05507 14.079 7.11324
269 1 -1.1104 15.9994 9.86578 14.2945 6.96603
270 1 -1.1104 15.9994 7.04435 14.2899 9.81393
271 1 -1.1104 15.9994 9.84355 14.2566 9.65376
272 1 -1.1104 15.9994 12.6667 11.381 6.92394
273 1 -1.1104 15.9994 12.5272 11.3262 9.69612
274 1 -1.1104 15.9994 12.5577 14.2084 6.93867
275 1 -1.1104 15.9994 12.6642 14.1788 9.7406
276 1 -1.1104 15.9994 1.33957 17.183 6.94931
277 1 -1.1104 15.9994 4.09362 17.1494 6.93402
278 1 -1.1104 15.9994 1.27067 14.3043 9.82231
279 1 -1.1104 15.9994 4.0896 17.1284 9.72857
280 1 -1.1104 15.9994 1.47333 20.0466 6.89337
281 1 -1.1104 15.9994 4.22831 20.0207 7.07156
282 1 -1.1104 15.9994 1.53278 17.1482 9.59784
283 1 -1.1104 15.9994 4.26239 19.913 9.83687
284 1 -1.1104 15.9994 6.93827 17.0991 6.82455
285 1 -1.1104 15.9994 9.69924 17.0452 6.99176
286 1 -1.1104 15.9994 6.91049 17.063 9.71656
287 1 -1.1104 15.9994 9.77945 17.0246 9.84213
288 1 -1.1104 15.9994 6.83872 19.9596 6.94042
289 1 -1.1104 15.9994 9.82361 19.8596 6.89738
290 1 -1.1104 15.9994 7.08401 19.8701 9.75348
291 1 -1.1104 15.9994 9.91377 19.8652 9.64012
292 1 -1.1104 15.9994 12.4754 17.0944 6.89256
293 1 -1.1104 15.9994 12.5921 16.9613 9.79145
294 1 -1.1104 15.9994 12.5066 19.7645 6.94412
295 1 -1.1104 15.9994 12.6196 19.6953 9.79381
296 1 -1.1104 15.9994 1.27869 22.7505 6.87183
297 1 -1.1104 15.9994 4.15507 22.8451 6.78226
298 1 -1.1104 15.9994 1.28415 22.7233 9.69621
299 1 -1.1104 15.9994 4.33385 22.601 9.68932
300 1 -1.1104 15.9994 6.89849 22.6995 6.79261
301 1 -1.1104 15.9994 9.7092 22.7067 6.99145
302 1 -1.1104 15.9994 7.16657 22.7388 9.71756
303 1 -1.1104 15.9994 9.83085 22.7899 9.82716
304 1 -1.1104 15.9994 12.4812 22.5574 7.11095
305 1 -1.1104 15.9994 12.6138 22.6078 9.85132
306 1 -1.1104 15.9994 1.41631 0.250199 12.5035
307 1 -1.1104 15.9994 4.08504 0.338662 12.3955
308 1 -1.1104 15.9994 1.25336 3.15675 12.2569
309 1 -1.1104 15.9994 4.0663 2.90413 12.5176
310 1 -1.1104 15.9994 6.89054 0.140322 12.4586
311 1 -1.1104 15.9994 9.69809 0.215903 12.4833
312 1 -1.1104 15.9994 6.95217 3.06509 12.5581
313 1 -1.1104 15.9994 9.68501 2.97903 12.6991
26 2 2.2208 232.038 8.35211 12.9276 -0.297765
15 2 2.2208 232.038 14.0582 15.7446 2.73943
9004 2 2.2208 232.038 -0.0526137 7.48395 2.70949
12 2 2.2208 232.038 13.9602 21.3501 2.75292
44 2 2.2208 232.038 -0.131192 24.1642 2.59743
9101 2 2.2208 232.038 13.8793 24.1017 11.2687
9052 2 2.2208 232.038 13.9852 10.0694 8.28725
25 2 2.2208 232.038 5.57454 10.1098 -0.149786
81 2 2.2208 232.038 -0.0495162 15.7695 5.55917
338 2 2.2208 232.038 8.31909 10.1134 14.0194
94 2 2.2208 232.038 -0.148104 24.0716 8.18437
9007 2 2.2208 232.038 0.0760418 1.62747 2.65793
9042 2 2.2208 232.038 14.1023 4.40868 8.34353
331 2 2.2208 232.038 2.72103 4.48991 13.7535
669 2 2.2208 232.038 2.86539 18.5527 -0.0892687
328 2 2.2208 232.038 8.28213 -1.14312 14.0504
335 2 2.2208 232.038 11.1834 7.31139 13.9731
670 2 2.2208 232.038 5.76072 15.8014 -0.171026
336 2 2.2208 232.038 2.73461 10.0271 13.9839
344 2 2.2208 232.038 5.34654 18.6391 14.1709
665 2 2.2208 232.038 13.9517 24.2409 -0.206097
674 2 2.2208 232.038 2.59456 24.1973 -0.0892863
355 2 2.2208 232.038 5.5737 -0.944032 16.7427
327 1 -1.1104 15.9994 7.06001 22.7453 26.7478
357 2 2.2208 232.038 8.53038 -1.10542 19.5853
9665 2 2.2208 232.038 -0.0655119 -1.14667 16.6535
660 2 2.2208 232.038 5.62232 -0.957333 28.0329
330 2 2.2208 232.038 11.2488 1.6638 13.9499
332 1 -1.1104 15.9994 9.7026 22.6149 23.8476
9692 2 2.2208 232.038 0.0520268 -1.07786 27.97
339 2 2.2208 232.038 5.57503 12.8798 14.0339
407 2 2.2208 232.038 8.36119 -1.13662 25.363
29 2 2.2208 232.038 11.3086 10.1935 27.9851
337 1 -1.1104 15.9994 6.9292 22.9219 23.9037
646 1 -1.1104 15.9994 1.22523 17.0353 23.6931
9671 2 2.2208 232.038 0.0644461 -0.892977 22.3311
9672 2 2.2208 232.038 -0.0189858 1.83501 25.2212
647 1 -1.1104 15.9994 4.04432 17.2984 23.9163
342 1 -1.1104 15.9994 4.08511 22.7684 26.6546
645 1 -1.1104 15.9994 12.8301 14.2913 26.6301
644 1 -1.1104 15.9994 12.7157 14.291 24.0738
9668 2 2.2208 232.038 -0.0995758 7.36679 19.4475
405 2 2.2208 232.038 5.59855 -0.915941 22.3604
677 1 -1.1104 15.9994 9.84366 14.3105 26.5348
353 2 2.2208 232.038 2.85756 -0.863171 19.5433
403 2 2.2208 232.038 2.8449 -0.95901 25.1867
9673 2 2.2208 232.038 -0.0967093 4.65544 22.3683
351 1 -1.1104 15.9994 1.25021 22.7639 26.814
352 2 2.2208 232.038 2.8889 1.68922 16.6749
643 1 -1.1104 15.9994 12.6875 11.5038 26.6214
354 1 -1.1104 15.9994 4.35077 22.7623 24.0514
340 2 2.2208 232.038 11.1495 12.9214 13.8231
356 2 2.2208 232.038 8.49162 1.64792 16.7394
349 2 2.2208 232.038 5.41885 24.219 13.9962
358 2 2.2208 232.038 5.75231 1.78832 19.6465
662 2 2.2208 232.038 11.2233 -1.14586 28.08
360 2 2.2208 232.038 11.301 1.81281 19.4903
361 1 -1.1104 15.9994 1.02671 22.7013 24.0301
362 2 2.2208 232.038 2.7253 7.35627 16.6442
363 2 2.2208 232.038 2.78613 4.62419 19.5188
364 1 -1.1104 15.9994 12.4355 19.9942 26.5155
365 2 2.2208 232.038 5.62641 4.51161 16.7254
366 2 2.2208 232.038 8.27083 7.31203 16.6683
367 2 2.2208 232.038 8.50022 4.55715 19.5102
368 2 2.2208 232.038 5.44055 7.45594 19.5702
369 2 2.2208 232.038 11.1467 4.4684 16.7787
370 2 2.2208 232.038 11.1758 7.36352 19.5882
371 1 -1.1104 15.9994 12.5797 20.0385 23.8892
372 2 2.2208 232.038 2.68691 12.9389 16.6289
373 2 2.2208 232.038 2.73287 10.2481 19.5772
329 2 2.2208 232.038 5.60973 1.79742 13.8288
375 2 2.2208 232.038 5.53067 10.1274 16.8496
376 2 2.2208 232.038 8.34989 12.9105 16.8173
377 2 2.2208 232.038 8.44272 10.1614 19.5603
378 2 2.2208 232.038 5.55377 13.0345 19.518
379 2 2.2208 232.038 11.1456 10.1344 16.7528
380 2 2.2208 232.038 11.1476 12.8593 19.6178
381 1 -1.1104 15.9994 12.6628 17.0837 26.7672
382 2 2.2208 232.038 2.77006 18.5575 16.9672
383 2 2.2208 232.038 2.81908 15.7095 19.5737
642 1 -1.1104 15.9994 12.7703 11.4442 23.6884
385 2 2.2208 232.038 5.57799 15.7232 16.9348
386 2 2.2208 232.038 8.33219 18.5487 16.8956
387 2 2.2208 232.038 8.39872 15.724 19.6283
388 2 2.2208 232.038 5.47829 18.5964 19.616
389 2 2.2208 232.038 11.0268 15.7032 16.8816
390 2 2.2208 232.038 11.0669 18.5337 19.6475
391 1 -1.1104 15.9994 12.6362 22.8208 26.6593
392 2 2.2208 232.038 2.869 24.0662 16.6371
393 2 2.2208 232.038 2.72738 21.5146 19.4642
653 1 -1.1104 15.9994 4.1684 19.919 26.64
395 2 2.2208 232.038 5.58278 21.488 16.8106
396 2 2.2208 232.038 8.27128 24.1273 16.847
397 2 2.2208 232.038 8.27606 21.3658 19.7415
398 2 2.2208 232.038 5.45574 24.396 19.6415
399 2 2.2208 232.038 11.0497 21.3405 16.8362
400 2 2.2208 232.038 11.0146 24.232 19.6563
401 1 -1.1104 15.9994 12.4172 17.1446 23.8858
402 2 2.2208 232.038 2.8387 1.80905 22.3211
649 1 -1.1104 15.9994 4.24082 17.177 26.6187
404 1 -1.1104 15.9994 9.60746 19.933 26.8119
655 1 -1.1104 15.9994 9.66495 17.09 23.8153
406 2 2.2208 232.038 8.45018 1.6618 22.3232
656 1 -1.1104 15.9994 7.1583 17.0661 26.5864
408 2 2.2208 232.038 5.51524 1.83513 25.1793
650 1 -1.1104 15.9994 1.2904 19.8513 23.7864
410 2 2.2208 232.038 11.1554 1.67399 25.1798
411 1 -1.1104 15.9994 6.87593 20.0516 26.6496
412 2 2.2208 232.038 2.80007 7.38057 22.2307
413 2 2.2208 232.038 2.6899 4.75872 25.0328
414 1 -1.1104 15.9994 9.81182 19.901 23.9226
415 2 2.2208 232.038 5.58279 4.63752 22.2741
416 2 2.2208 232.038 8.33087 7.33581 22.3885
417 2 2.2208 232.038 8.42145 4.34289 25.1121
418 2 2.2208 232.038 5.49728 7.37268 24.9526
419 2 2.2208 232.038 11.3068 4.57768 22.2452
420 2 2.2208 232.038 11.1743 7.33562 25.1653
421 1 -1.1104 15.9994 6.96899 20.024 23.8251
422 2 2.2208 232.038 2.7382 12.8838 22.4266
423 2 2.2208 232.038 2.69348 10.118 25.1058
424 1 -1.1104 15.9994 9.83059 17.1296 26.7658
425 2 2.2208 232.038 5.56754 10.2717 22.4206
426 2 2.2208 232.038 8.40689 12.9352 22.3884
427 2 2.2208 232.038 8.35031 10.1363 25.176
428 2 2.2208 232.038 5.55608 13.0066 25.1555
429 2 2.2208 232.038 11.2256 10.1417 22.3968
430 2 2.2208 232.038 11.2606 13.0167 25.2312
648 1 -1.1104 15.9994 1.29217 17.0237 26.6543
432 2 2.2208 232.038 2.70749 18.5714 22.417
433 2 2.2208 232.038 2.61051 15.7854 25.2139
652 1 -1.1104 15.9994 1.33336 19.8609 26.4937
435 2 2.2208 232.038 5.49774 15.8007 22.4624
436 2 2.2208 232.038 8.31786 18.5753 22.4052
437 2 2.2208 232.038 8.37707 15.7498 25.0826
438 2 2.2208 232.038 5.51151 18.7692 25.0837
439 2 2.2208 232.038 11.1566 15.7205 22.4149
440 2 2.2208 232.038 11.1458 18.5893 25.2917
651 1 -1.1104 15.9994 4.18331 19.9839 23.7077
442 1 -1.1104 15.9994 12.4572 22.8055 23.8996
443 2 2.2208 232.038 2.60331 21.552 25.1196
654 1 -1.1104 15.9994 6.79099 17.0626 23.8802
445 2 2.2208 232.038 5.40335 21.5399 22.3868
446 2 2.2208 232.038 8.32197 24.1578 22.5068
447 2 2.2208 232.038 8.25434 21.4105 25.2433
448 2 2.2208 232.038 5.5007 24.2825 25.2959
449 2 2.2208 232.038 11.1107 21.3083 22.4199
450 2 2.2208 232.038 11.1394 24.287 25.1872
451 1 -1.1104 15.9994 1.37589 0.198438 15.4098
452 1 -1.1104 15.9994 4.2135 0.396765 15.2802
453 1 -1.1104 15.9994 1.47736 3.05399 15.1954
454 1 -1.1104 15.9994 4.25945 3.29843 15.2416
455 1 -1.1104 15.9994 7.0876 0.342094 15.357
456 1 -1.1104 15.9994 10.0468 0.197164 15.3435
457 1 -1.1104 15.9994 6.94764 3.05928 15.1919
458 1 -1.1104 15.9994 9.81256 2.93313 15.2625
459 1 -1.1104 15.9994 12.8906 0.310035 15.3309
460 1 -1.1104 15.9994 12.6075 3.11724 15.4512
461 1 -1.1104 15.9994 1.30563 5.71835 15.1277
462 1 -1.1104 15.9994 4.21988 5.91699 15.2308
463 1 -1.1104 15.9994 1.28448 8.56257 15.2744
464 1 -1.1104 15.9994 4.13867 8.69139 15.3211
465 1 -1.1104 15.9994 7.15996 5.70223 15.5106
466 1 -1.1104 15.9994 9.80117 5.77101 15.3303
467 1 -1.1104 15.9994 6.90512 8.7057 15.2108
468 1 -1.1104 15.9994 9.63834 8.59556 15.312
469 1 -1.1104 15.9994 12.6647 5.89978 15.3498
470 1 -1.1104 15.9994 12.4544 8.69955 15.4619
471 1 -1.1104 15.9994 1.20742 11.4392 15.2209
472 1 -1.1104 15.9994 4.16433 11.3401 15.3874
473 1 -1.1104 15.9994 1.37064 14.3659 15.1941
474 1 -1.1104 15.9994 4.07308 14.2205 15.2058
475 1 -1.1104 15.9994 6.92551 11.4835 15.4329
476 1 -1.1104 15.9994 9.67181 11.473 15.5129
477 1 -1.1104 15.9994 7.00802 14.3519 15.6101
478 1 -1.1104 15.9994 9.71243 14.2462 15.2787
479 1 -1.1104 15.9994 12.3868 11.5437 15.3362
480 1 -1.1104 15.9994 12.5892 14.3593 15.3938
481 1 -1.1104 15.9994 1.40067 17.5482 15.3103
482 1 -1.1104 15.9994 4.13582 17.1809 15.5843
641 1 -1.1104 15.9994 9.93939 11.5318 26.5756
484 1 -1.1104 15.9994 3.65261 20.0011 15.3515
485 1 -1.1104 15.9994 6.84316 17.0476 15.2324
486 1 -1.1104 15.9994 9.56944 17.0426 15.5289
487 1 -1.1104 15.9994 6.70698 19.9938 15.3693
488 1 -1.1104 15.9994 9.58777 19.8021 15.3555
489 1 -1.1104 15.9994 12.2165 16.9567 15.3453
490 1 -1.1104 15.9994 12.1989 19.8431 15.3517
491 1 -1.1104 15.9994 1.48833 22.5783 15.1891
492 1 -1.1104 15.9994 4.20818 22.7583 15.2246
493 1 -1.1104 15.9994 6.81383 22.7433 15.3318
494 1 -1.1104 15.9994 9.62898 22.7471 15.3449
495 1 -1.1104 15.9994 12.3393 22.8578 15.3928
496 1 -1.1104 15.9994 1.52713 0.36571 18.1383
497 1 -1.1104 15.9994 4.3337 0.452515 18.2212
498 1 -1.1104 15.9994 1.32016 0.355994 20.8353
499 1 -1.1104 15.9994 4.22057 0.454581 20.8706
500 1 -1.1104 15.9994 1.29925 3.19033 18.1065
501 1 -1.1104 15.9994 4.1712 3.15652 18.1605
502 1 -1.1104 15.9994 1.3003 3.00635 20.9664
503 1 -1.1104 15.9994 4.24491 3.15018 20.9884
504 1 -1.1104 15.9994 7.1062 0.20813 18.2179
505 1 -1.1104 15.9994 9.90226 0.247103 18.1518
506 1 -1.1104 15.9994 6.98039 0.362331 20.9969
507 1 -1.1104 15.9994 9.79288 0.161289 20.9981
508 1 -1.1104 15.9994 6.93358 2.88737 18.0181
509 1 -1.1104 15.9994 9.87412 3.04189 18.1534
510 1 -1.1104 15.9994 7.11116 3.29465 20.8378
511 1 -1.1104 15.9994 9.83598 3.04051 20.7958
512 1 -1.1104 15.9994 12.62 0.318631 18.1082
513 1 -1.1104 15.9994 12.5597 0.216277 20.904
514 1 -1.1104 15.9994 12.5802 3.06851 18.1238
515 1 -1.1104 15.9994 12.5861 3.13022 20.999
516 1 -1.1104 15.9994 1.33859 5.99713 17.9201
517 1 -1.1104 15.9994 4.19345 5.86258 18.0289
518 1 -1.1104 15.9994 1.31505 5.95207 20.8607
519 1 -1.1104 15.9994 4.11062 5.97072 20.8432
520 1 -1.1104 15.9994 1.32349 8.77832 18.0409
521 1 -1.1104 15.9994 4.10942 8.57804 18.1212
522 1 -1.1104 15.9994 1.47294 8.72572 20.8614
523 1 -1.1104 15.9994 4.05926 8.87756 20.995
524 1 -1.1104 15.9994 7.10108 5.87045 18.2963
525 1 -1.1104 15.9994 9.81649 5.87908 18.146
526 1 -1.1104 15.9994 6.90404 6.16098 20.9647
527 1 -1.1104 15.9994 9.8084 5.89462 20.9347
528 1 -1.1104 15.9994 6.97383 8.5972 18.0671
529 1 -1.1104 15.9994 9.70455 8.66025 18.1624
530 1 -1.1104 15.9994 6.87801 8.81054 21.0241
531 1 -1.1104 15.9994 9.69859 8.69901 21.015
532 1 -1.1104 15.9994 12.5305 5.69339 18.1689
533 1 -1.1104 15.9994 12.5742 6.05886 20.9821
534 1 -1.1104 15.9994 12.6626 8.61615 18.1489
535 1 -1.1104 15.9994 12.6273 8.6706 20.9433
536 1 -1.1104 15.9994 1.42125 11.4442 18.0778
537 1 -1.1104 15.9994 4.21186 11.6271 18.1074
538 1 -1.1104 15.9994 1.32089 11.4806 20.9627
539 1 -1.1104 15.9994 4.30108 11.5122 20.9146
540 1 -1.1104 15.9994 1.32265 14.1434 18.0613
541 1 -1.1104 15.9994 4.08973 14.3397 17.9707
542 1 -1.1104 15.9994 1.46938 14.2682 20.8904
543 1 -1.1104 15.9994 4.1519 14.2331 20.94
544 1 -1.1104 15.9994 7.10122 11.4714 18.2657
545 1 -1.1104 15.9994 9.72359 11.3956 18.1873
546 1 -1.1104 15.9994 6.9655 11.4986 21.0462
547 1 -1.1104 15.9994 9.84629 11.53 20.9802
548 1 -1.1104 15.9994 6.96741 14.2801 18.3969
549 1 -1.1104 15.9994 9.73896 14.1368 18.2368
550 1 -1.1104 15.9994 6.90757 14.2371 21.0421
551 1 -1.1104 15.9994 9.81904 14.1556 20.9056
552 1 -1.1104 15.9994 12.4676 11.6317 18.2465
553 1 -1.1104 15.9994 12.5339 11.4459 20.8533
554 1 -1.1104 15.9994 12.6159 14.4474 18.3683
555 1 -1.1104 15.9994 12.4436 14.2957 21.2832
556 1 -1.1104 15.9994 1.54424 16.752 17.9843
557 1 -1.1104 15.9994 4.26495 17.1658 18.2234
558 1 -1.1104 15.9994 1.34602 16.9703 20.9585
559 1 -1.1104 15.9994 4.18028 17.0897 21.055
560 1 -1.1104 15.9994 1.62129 19.688 18.3153
561 1 -1.1104 15.9994 4.33163 19.9819 17.9928
562 1 -1.1104 15.9994 1.25194 19.8554 21.1018
563 1 -1.1104 15.9994 4.00226 19.8488 20.9041
564 1 -1.1104 15.9994 6.90463 17.1557 18.2763
565 1 -1.1104 15.9994 9.66075 17.055 18.3426
566 1 -1.1104 15.9994 7.11036 17.0844 21.0981
567 1 -1.1104 15.9994 9.76043 16.9349 21.0246
568 1 -1.1104 15.9994 7.08499 19.9792 18.1625
569 1 -1.1104 15.9994 9.8548 19.885 18.2031
570 1 -1.1104 15.9994 6.75815 19.8488 21.1546
571 1 -1.1104 15.9994 9.67955 19.7978 21.0783
572 1 -1.1104 15.9994 12.3398 17.262 18.1934
573 1 -1.1104 15.9994 12.4846 17.1418 20.954
574 1 -1.1104 15.9994 12.4259 20.0288 18.2194
575 1 -1.1104 15.9994 12.5113 19.9051 21.1931
576 1 -1.1104 15.9994 1.63214 23.0563 18.1123
577 1 -1.1104 15.9994 4.28678 22.8338 18.0032
578 1 -1.1104 15.9994 1.14748 22.6282 20.7751
579 1 -1.1104 15.9994 4.22945 22.6277 20.8559
580 1 -1.1104 15.9994 6.92662 22.7893 18.2143
581 1 -1.1104 15.9994 9.56345 22.6128 18.217
582 1 -1.1104 15.9994 6.92508 22.7519 21.0432
583 1 -1.1104 15.9994 9.73468 22.7871 20.9024
584 1 -1.1104 15.9994 12.5033 22.804 18.1259
585 1 -1.1104 15.9994 12.4362 22.6627 20.8927
586 1 -1.1104 15.9994 1.59679 0.450982 23.6711
587 1 -1.1104 15.9994 4.25779 0.365844 23.6218
588 1 -1.1104 15.9994 1.24413 0.499642 26.5922
589 1 -1.1104 15.9994 4.02738 0.353016 26.6106
590 1 -1.1104 15.9994 1.43725 3.35316 23.7559
591 1 -1.1104 15.9994 4.22121 3.21972 23.6962
592 1 -1.1104 15.9994 1.4054 3.19359 26.6102
593 1 -1.1104 15.9994 4.18055 3.08937 26.4129
594 1 -1.1104 15.9994 7.07815 0.387541 23.8937
595 1 -1.1104 15.9994 9.8218 0.191327 23.8573
596 1 -1.1104 15.9994 7.01152 0.285013 26.7856
597 1 -1.1104 15.9994 9.80857 0.248452 26.5961
598 1 -1.1104 15.9994 6.86361 3.06904 23.6507
599 1 -1.1104 15.9994 9.82703 3.05598 23.546
600 1 -1.1104 15.9994 6.98785 3.02849 26.61
601 1 -1.1104 15.9994 9.91356 2.992 26.5418
602 1 -1.1104 15.9994 12.5174 0.368189 23.73
603 1 -1.1104 15.9994 12.6374 0.282429 26.5414
604 1 -1.1104 15.9994 12.6971 3.14558 23.8502
605 1 -1.1104 15.9994 12.6132 3.06245 26.6243
606 1 -1.1104 15.9994 1.32496 6.03795 23.6852
607 1 -1.1104 15.9994 4.10789 6.03365 23.6612
608 1 -1.1104 15.9994 1.25778 6.01594 26.5253
609 1 -1.1104 15.9994 4.14014 5.92377 26.5662
610 1 -1.1104 15.9994 1.32274 8.64214 23.7719
611 1 -1.1104 15.9994 4.19411 8.80968 23.6109
612 1 -1.1104 15.9994 1.21603 8.8924 26.4131
613 1 -1.1104 15.9994 4.04664 8.78134 26.4326
614 1 -1.1104 15.9994 6.92494 5.91684 23.7784
615 1 -1.1104 15.9994 9.89603 5.8488 23.7858
616 1 -1.1104 15.9994 6.78928 5.95682 26.553
617 1 -1.1104 15.9994 9.6705 5.85302 26.516
618 1 -1.1104 15.9994 7.06076 8.71975 23.8012
619 1 -1.1104 15.9994 9.80918 8.66112 23.7484
620 1 -1.1104 15.9994 7.00799 8.74416 26.5759
621 1 -1.1104 15.9994 9.95295 8.5938 26.7453
622 1 -1.1104 15.9994 12.7435 5.79742 23.8382
623 1 -1.1104 15.9994 12.6769 5.95612 26.5874
624 1 -1.1104 15.9994 12.6575 8.58205 23.8818
625 1 -1.1104 15.9994 12.6707 8.75443 26.7331
626 1 -1.1104 15.9994 1.14474 11.5397 23.761
627 1 -1.1104 15.9994 4.08802 11.4912 23.8004
628 1 -1.1104 15.9994 1.40254 11.6297 26.6181
629 1 -1.1104 15.9994 4.29935 11.5281 26.6368
630 1 -1.1104 15.9994 1.24209 14.2921 23.7864
631 1 -1.1104 15.9994 4.05917 14.3133 23.8503
632 1 -1.1104 15.9994 1.39441 14.2276 26.5661
633 1 -1.1104 15.9994 4.10283 14.272 26.6405
634 1 -1.1104 15.9994 6.98322 11.6411 23.8055
635 1 -1.1104 15.9994 9.7663 11.5134 24.0113
636 1 -1.1104 15.9994 6.99425 11.4731 26.5123
637 1 -1.1104 15.9994 9.82077 22.8334 26.5716
638 1 -1.1104 15.9994 6.91731 14.3332 23.8513
639 1 -1.1104 15.9994 9.82603 14.2587 23.6104
640 1 -1.1104 15.9994 6.98734 14.2868 26.4898
431 2 2.2208 232.038 -0.0649464 15.8099 22.4018
676 2 2.2208 232.038 8.38957 24.1893 28.1026