ITEM: TIMESTEP
250000
ITEM: NUMBER OF ATOMS
18000
ITEM: BOX BOUNDS xy xz yz pp pp pp
-1.0676532926432954e-01 2.8000765329263984e+01 0.0000000000000000e+00
-1.0305608248797842e+00 3.3575856082489162e+02 0.0000000000000000e+00
-1.0802691358087185e-01 2.8002026913580892e+01 0.0000000000000000e+00
ITEM: ATOMS id type q mass x y z
8998 2 2.2208 232.038 -0.0664521 1.80236 8.45657
324 1 -1.1104 15.9994 12.6924 5.99483 12.6925
103 2 2.2208 232.038 5.63189 -1.0667 11.1674
4 1 -1.1104 15.9994 12.4458 22.7686 12.5031
323 1 -1.1104 15.9994 9.78026 8.69429 12.6202
322 1 -1.1104 15.9994 7.11526 8.7339 12.6344
81 2 2.2208 232.038 -0.145462 15.8446 5.47809
8 2 2.2208 232.038 5.67324 1.76506 2.725
9 1 -1.1104 15.9994 12.7375 8.77142 12.6055
10 2 2.2208 232.038 11.1577 1.72827 2.65945
11 1 -1.1104 15.9994 9.7688 22.7037 12.5698
321 1 -1.1104 15.9994 9.95941 5.93445 12.6392
13 2 2.2208 232.038 2.59753 4.52212 2.80207
14 1 -1.1104 15.9994 7.08186 22.9301 12.6154
3 2 2.2208 232.038 2.73277 -0.997597 2.777
9314 2 2.2208 232.038 14.067 -1.02262 14.0216
17 2 2.2208 232.038 8.47119 4.56661 2.66818
18 2 2.2208 232.038 5.48607 7.35511 2.85482
7 2 2.2208 232.038 8.59221 -1.1052 2.65282
20 2 2.2208 232.038 11.2646 7.35742 2.7218
21 1 -1.1104 15.9994 4.11843 22.7492 12.3422
22 1 -1.1104 15.9994 1.3223 17.1614 12.4219
23 2 2.2208 232.038 2.7615 10.1643 2.87681
320 1 -1.1104 15.9994 7.09432 5.95145 12.5159
670 2 2.2208 232.038 5.68547 15.7476 -0.0465373
9003 2 2.2208 232.038 0.0148247 -1.05531 5.4797
27 2 2.2208 232.038 8.32983 10.2522 2.72138
28 2 2.2208 232.038 5.56358 12.8358 2.7924
338 2 2.2208 232.038 8.43804 10.2244 14.1202
30 2 2.2208 232.038 11.108 12.9939 2.78689
31 1 -1.1104 15.9994 12.4751 14.4028 12.6235
32 1 -1.1104 15.9994 12.6409 11.5705 12.6285
33 2 2.2208 232.038 2.78193 15.7115 2.75404
319 1 -1.1104 15.9994 4.06186 8.88597 12.5631
35 1 -1.1104 15.9994 9.77292 14.3364 12.5646
36 1 -1.1104 15.9994 6.90344 14.5092 12.5566
37 2 2.2208 232.038 8.57538 15.7814 2.55533
38 2 2.2208 232.038 5.52775 18.4513 2.62051
39 1 -1.1104 15.9994 9.90252 11.609 12.5821
40 2 2.2208 232.038 11.2396 18.5385 2.66803
41 1 -1.1104 15.9994 6.97136 11.6455 12.679
42 1 -1.1104 15.9994 3.95872 14.3498 12.6892
43 2 2.2208 232.038 2.71135 21.4759 2.6021
318 1 -1.1104 15.9994 1.22032 8.71119 12.6141
45 1 -1.1104 15.9994 1.16976 14.4051 12.7346
46 1 -1.1104 15.9994 4.05462 11.5864 12.7415
47 2 2.2208 232.038 8.40872 21.3102 2.66009
48 2 2.2208 232.038 5.409 24.1556 2.7813
49 1 -1.1104 15.9994 1.3116 11.6154 12.7202
50 2 2.2208 232.038 11.1927 24.1201 2.80873
51 1 -1.1104 15.9994 1.42914 22.9517 12.3871
52 2 2.2208 232.038 2.68482 1.7285 5.60619
668 2 2.2208 232.038 -0.0791185 15.8627 -0.0525057
54 1 -1.1104 15.9994 12.6271 20.1066 12.4509
483 1 -1.1104 15.9994 1.41293 20.0275 12.725
56 2 2.2208 232.038 8.50227 1.70934 5.45139
24 2 2.2208 232.038 -0.106612 12.9837 2.86981
58 2 2.2208 232.038 5.60273 1.84939 8.41511
8997 2 2.2208 232.038 -0.0103186 4.55729 5.65853
60 2 2.2208 232.038 11.3276 1.82394 8.35984
61 1 -1.1104 15.9994 12.4134 17.3274 12.5013
62 2 2.2208 232.038 2.68132 7.37526 5.6558
63 2 2.2208 232.038 2.78253 4.5424 8.5075
64 1 -1.1104 15.9994 9.74964 19.9272 12.4227
65 2 2.2208 232.038 5.65486 4.54703 5.53802
66 2 2.2208 232.038 8.44915 7.28711 5.52227
67 2 2.2208 232.038 8.57708 4.51762 8.3059
68 2 2.2208 232.038 5.64123 7.27622 8.28066
69 2 2.2208 232.038 11.2839 4.67063 5.49284
70 2 2.2208 232.038 11.2 7.39458 8.39625
71 1 -1.1104 15.9994 7.05019 19.9253 12.5454
72 2 2.2208 232.038 2.80925 13.1104 5.62907
73 2 2.2208 232.038 2.74885 10.1801 8.39529
74 1 -1.1104 15.9994 9.64945 17.2214 12.5675
75 2 2.2208 232.038 5.55073 10.0675 5.52678
76 2 2.2208 232.038 8.40415 12.9193 5.78289
77 2 2.2208 232.038 8.3146 10.0916 8.45545
78 2 2.2208 232.038 5.48955 13.0772 8.50513
79 2 2.2208 232.038 11.114 10.1517 5.66898
80 2 2.2208 232.038 11.213 13.0966 8.49881
317 1 -1.1104 15.9994 4.35124 5.984 12.5427
82 2 2.2208 232.038 2.76633 18.699 5.43866
83 2 2.2208 232.038 2.66796 15.9106 8.29401
5 2 2.2208 232.038 13.9684 15.7694 8.45498
85 2 2.2208 232.038 5.46117 15.7532 5.6838
86 2 2.2208 232.038 8.40882 18.5845 5.54808
87 2 2.2208 232.038 8.32308 15.7802 8.33516
88 2 2.2208 232.038 5.41717 18.6156 8.27898
89 2 2.2208 232.038 11.1528 15.6964 5.638
90 2 2.2208 232.038 11.0847 18.5037 8.4205
316 1 -1.1104 15.9994 1.50913 5.89918 12.4799
92 2 2.2208 232.038 2.7108 24.2078 5.51932
93 2 2.2208 232.038 2.73198 21.4128 8.31706
9096 2 2.2208 232.038 13.9739 18.6263 11.173
95 2 2.2208 232.038 5.60381 21.2451 5.55137
96 2 2.2208 232.038 8.38746 24.1003 5.44755
97 2 2.2208 232.038 8.28992 21.3152 8.32504
98 2 2.2208 232.038 5.55135 24.1639 8.36503
99 2 2.2208 232.038 11.1896 21.2358 5.51448
100 2 2.2208 232.038 11.1371 23.8782 8.32389
101 1 -1.1104 15.9994 6.90253 17.1166 12.5602
102 2 2.2208 232.038 2.8224 1.73798 11.2388
9004 2 2.2208 232.038 -0.0449123 7.40187 2.83256
104 2 2.2208 232.038 8.43818 1.78144 11.1166
315 1 -1.1104 15.9994 12.5372 3.13328 12.5668
106 1 -1.1104 15.9994 4.20805 20.0126 12.3387
107 2 2.2208 232.038 2.72463 7.47532 11.2692
108 2 2.2208 232.038 5.63833 4.59448 11.1363
109 2 2.2208 232.038 8.40313 7.43214 11.1831
110 2 2.2208 232.038 11.238 4.52819 11.1267
111 1 -1.1104 15.9994 1.47781 20.131 9.91084
112 2 2.2208 232.038 2.70639 13.0314 11.2335
113 2 2.2208 232.038 5.58189 10.1659 11.2579
114 2 2.2208 232.038 8.40047 12.9532 11.2528
115 2 2.2208 232.038 11.1511 10.2425 11.2297
116 1 -1.1104 15.9994 4.11226 17.1903 12.5423
117 2 2.2208 232.038 2.84687 18.6307 11.1559
118 2 2.2208 232.038 5.57104 15.7715 11.1741
119 2 2.2208 232.038 8.33096 18.544 11.2218
120 2 2.2208 232.038 11.1198 15.8012 11.2657
34 2 2.2208 232.038 -0.0900186 18.6607 2.65004
122 2 2.2208 232.038 2.86717 24.2168 11.1181
123 2 2.2208 232.038 5.69011 21.4868 11.1946
124 2 2.2208 232.038 8.40218 24.291 11.1796
125 2 2.2208 232.038 11.0569 21.3322 11.1
126 1 -1.1104 15.9994 1.43578 0.397001 1.48614
127 1 -1.1104 15.9994 4.25218 0.421173 1.32678
128 1 -1.1104 15.9994 1.41383 0.312092 4.15588
129 1 -1.1104 15.9994 4.19552 0.308023 4.0756
130 1 -1.1104 15.9994 1.31641 3.21883 1.33059
131 1 -1.1104 15.9994 3.91668 3.21306 1.30781
132 1 -1.1104 15.9994 1.25436 3.0946 4.34517
133 1 -1.1104 15.9994 4.11153 3.17916 4.14058
134 1 -1.1104 15.9994 7.09272 0.296167 1.21096
135 1 -1.1104 15.9994 9.83188 0.277027 1.2905
6 2 2.2208 232.038 13.9576 18.4005 5.50177
137 1 -1.1104 15.9994 9.83341 0.307205 4.00542
138 1 -1.1104 15.9994 6.8476 3.03625 1.23935
139 1 -1.1104 15.9994 9.7424 3.1183 1.39785
140 1 -1.1104 15.9994 6.99537 0.363711 4.14718
141 1 -1.1104 15.9994 9.88743 3.28459 4.11867
142 1 -1.1104 15.9994 12.6271 0.292986 1.26661
143 1 -1.1104 15.9994 12.6855 0.358747 4.18277
144 1 -1.1104 15.9994 12.5128 3.14242 1.30505
145 1 -1.1104 15.9994 12.645 3.19544 4.11838
146 1 -1.1104 15.9994 1.36699 5.98754 1.2986
147 1 -1.1104 15.9994 4.15759 5.9818 1.48202
148 1 -1.1104 15.9994 1.25871 5.94157 4.08164
149 1 -1.1104 15.9994 4.11795 5.94849 4.28187
150 1 -1.1104 15.9994 1.38888 8.78635 1.55337
151 1 -1.1104 15.9994 4.25175 8.78295 1.47117
152 1 -1.1104 15.9994 1.35924 8.71403 4.25721
153 1 -1.1104 15.9994 4.18755 8.78534 4.23494
154 1 -1.1104 15.9994 6.97439 5.9557 1.29594
155 1 -1.1104 15.9994 9.87114 5.98271 1.18784
156 1 -1.1104 15.9994 7.0875 3.15601 4.0587
157 1 -1.1104 15.9994 9.93034 6.02249 4.0262
158 1 -1.1104 15.9994 6.91373 8.71551 1.31259
159 1 -1.1104 15.9994 9.66592 8.76997 1.4073
160 1 -1.1104 15.9994 6.94919 5.96971 4.12787
161 1 -1.1104 15.9994 9.67764 8.75295 4.15359
162 1 -1.1104 15.9994 12.6085 5.88334 1.33239
163 1 -1.1104 15.9994 12.6387 5.97394 4.09921
164 1 -1.1104 15.9994 12.5926 8.7204 1.33878
165 1 -1.1104 15.9994 12.4405 8.7191 4.10424
166 1 -1.1104 15.9994 1.34052 11.4889 1.28205
167 1 -1.1104 15.9994 4.16406 11.479 1.39343
168 1 -1.1104 15.9994 1.44283 11.5304 4.24745
169 1 -1.1104 15.9994 4.06874 11.5255 4.27958
170 1 -1.1104 15.9994 1.46505 14.3507 1.42394
171 1 -1.1104 15.9994 4.22903 14.3365 1.4587
172 1 -1.1104 15.9994 1.39771 14.3214 4.17094
173 1 -1.1104 15.9994 4.37029 14.2967 4.32923
174 1 -1.1104 15.9994 7.03446 11.5685 1.40736
175 1 -1.1104 15.9994 9.86177 11.6523 1.38353
176 1 -1.1104 15.9994 6.86205 8.92184 4.1709
177 1 -1.1104 15.9994 9.71215 11.5398 4.35568
178 1 -1.1104 15.9994 6.96054 14.2404 1.76774
179 1 -1.1104 15.9994 9.8806 14.3668 1.3486
180 1 -1.1104 15.9994 7.04662 11.9162 4.23714
181 1 -1.1104 15.9994 9.37413 14.3107 4.1738
182 1 -1.1104 15.9994 12.57 11.5882 1.38389
183 1 -1.1104 15.9994 12.3612 11.5034 4.15736
184 1 -1.1104 15.9994 12.7033 14.332 1.43147
185 1 -1.1104 15.9994 12.3478 14.2926 4.26524
186 1 -1.1104 15.9994 1.37455 17.1156 1.5085
187 1 -1.1104 15.9994 4.17294 17.0209 1.40499
188 1 -1.1104 15.9994 1.29208 17.018 4.08598
189 1 -1.1104 15.9994 4.12405 17.1039 4.14639
190 1 -1.1104 15.9994 1.25103 19.9401 1.27923
191 1 -1.1104 15.9994 4.21695 19.9735 1.34984
192 1 -1.1104 15.9994 1.4937 20.0373 4.09504
193 1 -1.1104 15.9994 4.13294 19.8912 4.06863
194 1 -1.1104 15.9994 7.10451 17.0298 1.40685
195 1 -1.1104 15.9994 9.79892 17.2915 1.29566
196 1 -1.1104 15.9994 7.11767 16.3945 4.16466
197 1 -1.1104 15.9994 9.843 17.0771 4.16372
198 1 -1.1104 15.9994 7.01474 19.8946 1.46039
199 1 -1.1104 15.9994 9.77366 20.0031 1.29829
200 1 -1.1104 15.9994 7.07677 19.7963 4.19105
201 1 -1.1104 15.9994 9.74467 19.7645 4.08653
202 1 -1.1104 15.9994 12.5809 17.0524 1.4428
203 1 -1.1104 15.9994 12.6427 16.9172 4.24412
204 1 -1.1104 15.9994 12.6093 19.8291 1.31015
205 1 -1.1104 15.9994 12.5651 19.8599 4.02427
206 1 -1.1104 15.9994 1.24266 22.9961 1.36797
207 1 -1.1104 15.9994 4.10635 22.8298 1.33544
208 1 -1.1104 15.9994 1.18041 22.9346 4.11534
209 1 -1.1104 15.9994 4.04559 22.7744 4.12912
210 1 -1.1104 15.9994 6.98077 22.7025 1.50611
211 1 -1.1104 15.9994 9.67053 22.6809 1.39909
212 1 -1.1104 15.9994 7.07814 22.504 4.29109
213 1 -1.1104 15.9994 9.80237 22.727 4.16767
214 1 -1.1104 15.9994 12.4694 22.6441 1.48017
215 1 -1.1104 15.9994 12.5054 22.6561 4.24423
216 1 -1.1104 15.9994 1.41241 0.314606 6.94377
217 1 -1.1104 15.9994 4.23944 0.203554 7.08286
314 1 -1.1104 15.9994 12.6231 0.30218 12.5995
219 1 -1.1104 15.9994 4.25887 0.24945 9.90916
220 1 -1.1104 15.9994 1.41134 3.05853 7.05523
221 1 -1.1104 15.9994 4.11632 3.04907 6.78808
222 1 -1.1104 15.9994 1.46293 0.313167 9.86358
223 1 -1.1104 15.9994 4.13268 3.16051 9.79627
224 1 -1.1104 15.9994 6.97165 0.450004 6.86654
225 1 -1.1104 15.9994 9.82609 0.407764 6.83337
226 1 -1.1104 15.9994 7.09142 0.265369 9.79296
227 1 -1.1104 15.9994 9.93963 0.459201 9.67537
228 1 -1.1104 15.9994 7.00383 3.11737 6.81517
229 1 -1.1104 15.9994 9.78664 3.15225 7.02034
230 1 -1.1104 15.9994 7.24502 3.14922 9.54058
231 1 -1.1104 15.9994 9.88487 3.18973 9.80028
232 1 -1.1104 15.9994 12.5698 0.355193 7.06999
233 1 -1.1104 15.9994 12.6481 0.289109 9.88147
234 1 -1.1104 15.9994 12.6047 3.10855 6.90636
235 1 -1.1104 15.9994 12.6756 3.13372 9.78839
236 1 -1.1104 15.9994 1.44267 5.82691 7.05486
237 1 -1.1104 15.9994 4.13029 5.8594 6.92783
238 1 -1.1104 15.9994 1.44799 3.07885 9.78483
239 1 -1.1104 15.9994 4.24322 5.82146 9.83721
240 1 -1.1104 15.9994 1.2715 8.84396 6.8966
241 1 -1.1104 15.9994 4.14121 8.70085 7.08693
242 1 -1.1104 15.9994 1.28923 6.00378 9.7471
243 1 -1.1104 15.9994 4.28063 8.59169 9.75934
244 1 -1.1104 15.9994 7.02017 5.87541 6.94163
245 1 -1.1104 15.9994 9.98806 5.87986 6.85214
246 1 -1.1104 15.9994 7.04525 6.00111 9.5538
247 1 -1.1104 15.9994 9.89192 5.87704 9.8047
248 1 -1.1104 15.9994 7.00438 8.59147 6.89605
249 1 -1.1104 15.9994 9.6226 8.74574 6.97331
250 1 -1.1104 15.9994 6.95599 8.74382 9.83016
251 1 -1.1104 15.9994 9.76339 8.7555 9.69061
252 1 -1.1104 15.9994 12.7159 5.96319 7.10984
253 1 -1.1104 15.9994 12.6872 5.9138 9.81577
254 1 -1.1104 15.9994 12.4048 8.61971 6.89911
255 1 -1.1104 15.9994 12.6124 8.77064 9.70122
256 1 -1.1104 15.9994 1.28043 11.6663 7.07244
257 1 -1.1104 15.9994 4.01081 11.7647 7.08635
258 1 -1.1104 15.9994 1.50637 8.9235 9.8175
259 1 -1.1104 15.9994 4.31145 11.4254 9.81231
260 1 -1.1104 15.9994 1.26267 14.4431 6.91481
261 1 -1.1104 15.9994 4.15551 14.4413 7.04918
262 1 -1.1104 15.9994 1.33778 11.6262 9.82584
263 1 -1.1104 15.9994 4.1018 14.4284 9.76566
264 1 -1.1104 15.9994 6.86854 11.4375 6.96348
265 1 -1.1104 15.9994 9.76724 11.7262 7.3131
266 1 -1.1104 15.9994 6.88487 11.4791 9.92687
267 1 -1.1104 15.9994 9.79571 11.5762 10.0011
268 1 -1.1104 15.9994 6.96729 14.331 6.90632
269 1 -1.1104 15.9994 9.83235 14.3406 7.01365
270 1 -1.1104 15.9994 6.93316 14.2775 9.78859
271 1 -1.1104 15.9994 9.64089 14.2741 9.73067
272 1 -1.1104 15.9994 12.5286 11.4493 6.99316
273 1 -1.1104 15.9994 12.4581 11.5272 9.8082
274 1 -1.1104 15.9994 12.4643 14.3778 6.96527
275 1 -1.1104 15.9994 12.5754 14.3271 9.88034
276 1 -1.1104 15.9994 1.35107 17.1661 6.83812
277 1 -1.1104 15.9994 4.22227 17.1602 6.92888
278 1 -1.1104 15.9994 1.26689 14.4023 9.93531
279 1 -1.1104 15.9994 4.16164 17.1657 9.60065
280 1 -1.1104 15.9994 1.3973 19.9409 6.87217
281 1 -1.1104 15.9994 4.13547 19.9749 6.85259
282 1 -1.1104 15.9994 1.22849 17.2094 9.68557
283 1 -1.1104 15.9994 4.0419 19.9596 9.69059
284 1 -1.1104 15.9994 6.88045 17.2577 6.8196
285 1 -1.1104 15.9994 9.759 17.0801 6.93013
286 1 -1.1104 15.9994 6.95007 17.1834 9.65935
287 1 -1.1104 15.9994 9.72911 17.0764 9.69962
288 1 -1.1104 15.9994 7.07848 20.0352 6.90764
289 1 -1.1104 15.9994 9.86638 19.9477 7.00285
290 1 -1.1104 15.9994 7.03041 19.863 9.56776
291 1 -1.1104 15.9994 9.75043 20.0679 9.72137
292 1 -1.1104 15.9994 12.5157 17.2322 7.02642
293 1 -1.1104 15.9994 12.5571 17.0971 9.67824
294 1 -1.1104 15.9994 12.5732 19.9733 6.99785
295 1 -1.1104 15.9994 12.4538 19.9201 9.71008
296 1 -1.1104 15.9994 1.44536 22.9076 6.96456
297 1 -1.1104 15.9994 4.20597 22.6803 6.87586
298 1 -1.1104 15.9994 1.43651 22.7262 9.72121
299 1 -1.1104 15.9994 4.10558 22.8225 9.58987
300 1 -1.1104 15.9994 6.95379 22.8706 7.00965
301 1 -1.1104 15.9994 9.8588 22.7149 6.94519
302 1 -1.1104 15.9994 6.94496 22.6924 9.65318
303 1 -1.1104 15.9994 9.7646 22.8419 9.78944
304 1 -1.1104 15.9994 12.6195 22.6956 6.9557
305 1 -1.1104 15.9994 12.4056 22.8292 9.74924
306 1 -1.1104 15.9994 1.14474 0.338141 12.5751
307 1 -1.1104 15.9994 4.08474 0.444289 12.7182
308 1 -1.1104 15.9994 1.29323 3.21964 12.6432
309 1 -1.1104 15.9994 4.12854 3.23564 12.5778
310 1 -1.1104 15.9994 6.90676 0.332313 12.6726
311 1 -1.1104 15.9994 9.55662 0.365477 12.3985
312 1 -1.1104 15.9994 6.96599 3.17676 12.5177
313 1 -1.1104 15.9994 9.82578 3.14807 12.6362
1 2 2.2208 232.038 13.9375 24.0268 5.508
25 2 2.2208 232.038 5.54641 10.0868 -0.0751113
8994 2 2.2208 232.038 -0.133894 7.49665 8.37857
12 2 2.2208 232.038 14.0113 21.2815 2.85401
9688 2 2.2208 232.038 -0.054702 10.2742 -0.0812726
9007 2 2.2208 232.038 0.0209614 1.79699 2.79452
15 2 2.2208 232.038 14.0665 15.7712 2.78716
44 2 2.2208 232.038 -0.187756 24.3003 2.79462
29 2 2.2208 232.038 11.2554 10.2571 -0.0427245
8993 2 2.2208 232.038 -0.0745903 10.2348 5.69008
8981 2 2.2208 232.038 -0.136546 15.8348 11.1327
659 2 2.2208 232.038 2.73344 1.90065 -0.139394
329 2 2.2208 232.038 5.46864 1.86396 14.0503
331 2 2.2208 232.038 2.77071 4.68008 13.9323
9661 2 2.2208 232.038 -0.0597407 1.8229 13.9896
665 2 2.2208 232.038 13.8659 24.1764 -0.0305969
26 2 2.2208 232.038 8.43103 13.0357 0.0804212
663 2 2.2208 232.038 2.69681 7.46532 -0.061939
673 2 2.2208 232.038 -0.165186 21.5017 -0.0312396
674 2 2.2208 232.038 2.72868 24.311 -0.0569602
9690 2 2.2208 232.038 -0.0709078 4.68051 -0.0186356
9666 2 2.2208 232.038 0.0265935 1.84768 19.5358
327 1 -1.1104 15.9994 7.00593 22.9618 26.6884
664 2 2.2208 232.038 -0.107431 15.9596 16.913
330 2 2.2208 232.038 11.2182 1.8611 13.9983
403 2 2.2208 232.038 2.67164 -0.863531 25.204
328 2 2.2208 232.038 8.31592 -1.09295 13.9691
332 1 -1.1104 15.9994 9.74102 22.8476 23.9751
405 2 2.2208 232.038 5.54741 -0.881062 22.4697
344 2 2.2208 232.038 5.54618 18.6899 14.142
657 2 2.2208 232.038 14.0415 24.3085 22.3794
441 2 2.2208 232.038 -0.129265 21.4194 22.4341
337 1 -1.1104 15.9994 6.96507 22.8134 23.7754
646 1 -1.1104 15.9994 1.42811 17.167 24.0759
349 2 2.2208 232.038 5.45032 24.2906 13.8601
357 2 2.2208 232.038 8.44588 -0.967004 19.4811
647 1 -1.1104 15.9994 4.19866 17.1334 23.872
342 1 -1.1104 15.9994 4.16556 22.817 26.7664
645 1 -1.1104 15.9994 12.6036 14.4386 26.6781
644 1 -1.1104 15.9994 12.5123 14.539 23.8332
345 2 2.2208 232.038 11.0262 18.6111 13.9861
9379 2 2.2208 232.038 13.9562 24.0726 16.7517
677 1 -1.1104 15.9994 9.83578 14.4705 26.6649
434 2 2.2208 232.038 0.0021144 18.7298 25.1882
340 2 2.2208 232.038 11.2552 12.9651 14.044
343 2 2.2208 232.038 8.27298 15.81 14.0561
351 1 -1.1104 15.9994 1.38567 22.9307 26.6404
352 2 2.2208 232.038 2.68239 1.77543 16.8454
643 1 -1.1104 15.9994 12.4865 11.7035 26.7359
354 1 -1.1104 15.9994 4.25988 22.7274 23.9721
9339 2 2.2208 232.038 14.0075 1.81433 16.8259
356 2 2.2208 232.038 8.34873 1.74069 16.8285
348 2 2.2208 232.038 8.31668 21.4872 14.0311
358 2 2.2208 232.038 5.60402 1.80277 19.5418
409 2 2.2208 232.038 11.2331 -1.00655 22.4304
360 2 2.2208 232.038 11.0195 1.82842 19.568
361 1 -1.1104 15.9994 0.996738 22.6709 24.0223
362 2 2.2208 232.038 2.68995 7.45845 16.7542
363 2 2.2208 232.038 2.76375 4.48062 19.5423
364 1 -1.1104 15.9994 12.5745 20.1901 26.6074
365 2 2.2208 232.038 5.54241 4.68864 16.7081
366 2 2.2208 232.038 8.44547 7.47489 16.7762
367 2 2.2208 232.038 8.39198 4.6658 19.6832
368 2 2.2208 232.038 5.55644 7.33832 19.4821
369 2 2.2208 232.038 11.1484 4.53693 16.7806
370 2 2.2208 232.038 11.208 7.38206 19.5973
371 1 -1.1104 15.9994 12.553 20.0091 23.8954
372 2 2.2208 232.038 2.74 13.1107 16.8607
373 2 2.2208 232.038 2.75945 10.2408 19.5479
350 2 2.2208 232.038 11.0791 24.1371 13.996
375 2 2.2208 232.038 5.6304 10.3049 16.8136
376 2 2.2208 232.038 8.46152 13.1446 16.9528
377 2 2.2208 232.038 8.39837 10.2394 19.5475
378 2 2.2208 232.038 5.59195 13.0595 19.7035
379 2 2.2208 232.038 11.2259 10.2222 16.8561
380 2 2.2208 232.038 11.2384 13.171 19.5998
381 1 -1.1104 15.9994 12.6896 17.2121 26.7268
382 2 2.2208 232.038 2.91393 18.519 16.9164
383 2 2.2208 232.038 2.84572 15.8253 19.7397
642 1 -1.1104 15.9994 12.6072 11.8193 23.819
385 2 2.2208 232.038 5.57225 15.8334 16.8663
386 2 2.2208 232.038 8.42921 18.6039 16.8973
387 2 2.2208 232.038 8.43607 15.9521 19.613
388 2 2.2208 232.038 5.53958 18.6451 19.5237
389 2 2.2208 232.038 11.2203 15.9531 16.817
390 2 2.2208 232.038 11.2483 18.7795 19.6217
391 1 -1.1104 15.9994 12.5983 22.9492 26.5714
392 2 2.2208 232.038 2.63762 24.3639 16.833
393 2 2.2208 232.038 2.54955 21.5876 19.5947
653 1 -1.1104 15.9994 4.00068 20.0508 26.7213
395 2 2.2208 232.038 5.59354 21.3969 16.6567
396 2 2.2208 232.038 8.3232 24.2525 16.7813
397 2 2.2208 232.038 8.4855 21.3726 19.5334
398 2 2.2208 232.038 5.6237 24.2349 19.4813
399 2 2.2208 232.038 11.1284 21.4381 16.7143
400 2 2.2208 232.038 11.2089 24.4173 19.6381
401 1 -1.1104 15.9994 12.6423 17.3681 23.9519
402 2 2.2208 232.038 2.80139 1.84156 22.3978
649 1 -1.1104 15.9994 4.17088 17.2453 26.6834
404 1 -1.1104 15.9994 9.63538 19.8961 26.6403
655 1 -1.1104 15.9994 9.71645 17.3016 23.8962
406 2 2.2208 232.038 8.35675 1.85013 22.5254
656 1 -1.1104 15.9994 7.04541 17.2453 26.6696
408 2 2.2208 232.038 5.52463 1.80274 25.2657
650 1 -1.1104 15.9994 1.415 19.8687 23.8302
410 2 2.2208 232.038 11.1642 1.78907 25.1895
411 1 -1.1104 15.9994 6.86946 20.2013 26.945
412 2 2.2208 232.038 2.90642 7.42142 22.3741
413 2 2.2208 232.038 2.77856 4.71917 25.2503
414 1 -1.1104 15.9994 9.67069 20.0723 23.6846
415 2 2.2208 232.038 5.6275 4.61062 22.411
416 2 2.2208 232.038 8.44725 7.47004 22.352
417 2 2.2208 232.038 8.42328 4.76936 25.1647
418 2 2.2208 232.038 5.60453 7.45265 25.1084
419 2 2.2208 232.038 11.2522 4.67746 22.308
420 2 2.2208 232.038 11.1855 7.44392 25.2722
421 1 -1.1104 15.9994 6.8718 20.0357 23.9656
422 2 2.2208 232.038 2.76255 12.9108 22.5125
423 2 2.2208 232.038 2.9549 10.1976 25.2214
424 1 -1.1104 15.9994 9.81706 17.1586 26.7118
425 2 2.2208 232.038 5.58882 10.236 22.4296
426 2 2.2208 232.038 8.48817 13.044 22.4693
427 2 2.2208 232.038 8.4264 10.1832 25.319
428 2 2.2208 232.038 5.62685 12.989 25.3318
429 2 2.2208 232.038 11.2427 10.2048 22.4121
430 2 2.2208 232.038 11.1146 13.052 25.2568
648 1 -1.1104 15.9994 1.39552 17.1605 26.7419
432 2 2.2208 232.038 2.96809 18.668 22.46
433 2 2.2208 232.038 2.80592 15.8316 25.4047
652 1 -1.1104 15.9994 1.28285 20.1044 26.5951
435 2 2.2208 232.038 5.64209 15.7456 22.6031
436 2 2.2208 232.038 8.21528 18.6887 22.5239
437 2 2.2208 232.038 8.47265 15.9084 25.2984
438 2 2.2208 232.038 5.47842 18.747 25.3555
439 2 2.2208 232.038 11.1583 15.835 22.4635
440 2 2.2208 232.038 11.0592 18.6448 25.2925
651 1 -1.1104 15.9994 4.16605 19.9685 23.8302
442 1 -1.1104 15.9994 12.6032 22.7345 23.8087
443 2 2.2208 232.038 2.70483 21.5418 25.0743
654 1 -1.1104 15.9994 6.90321 17.2146 23.8964
445 2 2.2208 232.038 5.37907 21.5087 22.3491
446 2 2.2208 232.038 8.30283 24.262 22.4057
447 2 2.2208 232.038 8.2289 21.4823 25.2414
448 2 2.2208 232.038 5.56199 24.302 25.1465
449 2 2.2208 232.038 11.1595 21.5737 22.4086
450 2 2.2208 232.038 11.2798 24.3112 25.2134
451 1 -1.1104 15.9994 1.19368 0.311216 15.468
452 1 -1.1104 15.9994 4.05925 0.410276 15.41
453 1 -1.1104 15.9994 1.32698 3.22763 15.5131
454 1 -1.1104 15.9994 4.07604 3.08042 15.4965
455 1 -1.1104 15.9994 7.0147 0.315161 15.5117
456 1 -1.1104 15.9994 9.88427 0.213689 15.3915
457 1 -1.1104 15.9994 6.9118 3.27051 15.297
458 1 -1.1104 15.9994 9.8344 3.1637 15.3915
459 1 -1.1104 15.9994 12.644 0.351015 15.3895
460 1 -1.1104 15.9994 12.5564 3.10199 15.4822
461 1 -1.1104 15.9994 1.25269 6.06498 15.2291
462 1 -1.1104 15.9994 4.17948 5.87821 15.2827
463 1 -1.1104 15.9994 1.37852 8.88699 15.4104
464 1 -1.1104 15.9994 4.21829 8.70434 15.4705
465 1 -1.1104 15.9994 7.09363 6.06237 15.3203
466 1 -1.1104 15.9994 9.69378 5.9368 15.4978
467 1 -1.1104 15.9994 6.95617 8.95453 15.4322
468 1 -1.1104 15.9994 9.86904 8.73877 15.3903
469 1 -1.1104 15.9994 12.4749 5.95056 15.4445
470 1 -1.1104 15.9994 12.6012 8.75344 15.3558
471 1 -1.1104 15.9994 1.39631 11.7166 15.4673
472 1 -1.1104 15.9994 4.24008 11.5422 15.5095
473 1 -1.1104 15.9994 1.25183 14.5305 15.6498
474 1 -1.1104 15.9994 3.9652 14.4183 15.4603
475 1 -1.1104 15.9994 7.03483 11.8035 15.414
476 1 -1.1104 15.9994 9.69336 11.516 15.4527
477 1 -1.1104 15.9994 6.75677 14.4316 15.4587
478 1 -1.1104 15.9994 9.72564 14.4643 15.4286
479 1 -1.1104 15.9994 12.5513 11.6134 15.4259
480 1 -1.1104 15.9994 12.5531 14.438 15.5245
481 1 -1.1104 15.9994 1.35712 17.442 15.3432
482 1 -1.1104 15.9994 4.23575 17.2119 15.468
641 1 -1.1104 15.9994 9.84254 11.6211 26.6597
484 1 -1.1104 15.9994 3.82966 19.8838 15.1445
485 1 -1.1104 15.9994 6.95877 17.2968 15.3912
486 1 -1.1104 15.9994 9.76284 17.1657 15.4378
487 1 -1.1104 15.9994 6.98655 20.0892 15.387
488 1 -1.1104 15.9994 9.69573 19.9649 15.4115
489 1 -1.1104 15.9994 12.5646 17.2667 15.3223
490 1 -1.1104 15.9994 12.4849 20.0337 15.2679
491 1 -1.1104 15.9994 1.64795 23.047 15.1111
492 1 -1.1104 15.9994 4.36792 22.4575 15.0689
493 1 -1.1104 15.9994 7.00134 22.9317 15.3268
494 1 -1.1104 15.9994 9.68885 22.6831 15.3907
495 1 -1.1104 15.9994 12.5361 22.7401 15.3675
496 1 -1.1104 15.9994 1.41144 0.52128 18.3193
497 1 -1.1104 15.9994 4.0322 0.374835 18.1925
498 1 -1.1104 15.9994 1.45982 0.335289 21.1189
499 1 -1.1104 15.9994 4.22564 0.405167 20.9721
500 1 -1.1104 15.9994 1.42016 3.26001 18.1815
501 1 -1.1104 15.9994 4.29163 3.16578 18.1706
502 1 -1.1104 15.9994 1.34979 3.04205 21.0579
503 1 -1.1104 15.9994 4.12942 3.2568 21.0062
504 1 -1.1104 15.9994 6.81878 0.35276 18.2011
505 1 -1.1104 15.9994 9.64018 0.359842 18.2824
506 1 -1.1104 15.9994 7.11936 0.288427 21.0545
507 1 -1.1104 15.9994 9.8547 0.412969 20.9919
508 1 -1.1104 15.9994 7.12793 3.18101 18.1313
509 1 -1.1104 15.9994 9.69637 3.08872 18.1218
510 1 -1.1104 15.9994 6.97578 3.2876 20.9417
511 1 -1.1104 15.9994 9.74896 3.23592 21.0323
512 1 -1.1104 15.9994 12.7184 0.303751 18.2697
513 1 -1.1104 15.9994 12.6473 0.225206 21.0588
514 1 -1.1104 15.9994 12.5448 3.29635 18.2747
515 1 -1.1104 15.9994 12.5327 3.1747 21.1049
516 1 -1.1104 15.9994 1.37131 6.08574 18.1621
517 1 -1.1104 15.9994 4.13151 5.85515 18.1333
518 1 -1.1104 15.9994 1.40653 6.00004 20.98
519 1 -1.1104 15.9994 4.38236 5.93198 20.9397
520 1 -1.1104 15.9994 1.33002 8.79347 18.1658
521 1 -1.1104 15.9994 3.97484 8.78992 18.1332
522 1 -1.1104 15.9994 1.43636 8.84641 20.9965
523 1 -1.1104 15.9994 4.26678 8.85489 21.0226
524 1 -1.1104 15.9994 6.81745 5.91854 18.1554
525 1 -1.1104 15.9994 9.67724 6.01122 18.3801
526 1 -1.1104 15.9994 7.20391 6.0286 20.9627
527 1 -1.1104 15.9994 9.8848 6.07894 20.9586
528 1 -1.1104 15.9994 6.94789 8.85009 18.1163
529 1 -1.1104 15.9994 9.90141 8.75446 18.1675
530 1 -1.1104 15.9994 7.05125 8.9043 21.0854
531 1 -1.1104 15.9994 9.86096 8.85751 21.0624
532 1 -1.1104 15.9994 12.6965 5.9637 18.1313
533 1 -1.1104 15.9994 12.5574 5.93661 20.9776
534 1 -1.1104 15.9994 12.8224 8.85614 18.2266
535 1 -1.1104 15.9994 12.4606 8.74384 21.1461
536 1 -1.1104 15.9994 1.41696 11.6349 18.1358
537 1 -1.1104 15.9994 4.12982 11.563 18.3053
538 1 -1.1104 15.9994 1.41944 11.6278 20.9856
539 1 -1.1104 15.9994 4.0819 11.6297 21.0032
540 1 -1.1104 15.9994 1.50357 14.3743 18.4052
541 1 -1.1104 15.9994 4.1479 14.4176 18.3513
542 1 -1.1104 15.9994 1.37155 14.2949 21.2069
543 1 -1.1104 15.9994 4.24925 14.344 21.1789
544 1 -1.1104 15.9994 6.84288 11.6501 18.271
545 1 -1.1104 15.9994 9.71558 11.5397 18.2481
546 1 -1.1104 15.9994 6.82935 11.634 21.0044
547 1 -1.1104 15.9994 9.63187 11.6006 21.0225
548 1 -1.1104 15.9994 7.03224 14.4649 18.2725
549 1 -1.1104 15.9994 9.84684 14.5702 18.1617
550 1 -1.1104 15.9994 6.9225 14.3905 21.1639
551 1 -1.1104 15.9994 9.83659 14.4868 20.921
552 1 -1.1104 15.9994 12.5276 11.7205 18.189
553 1 -1.1104 15.9994 12.6841 11.6956 20.9831
554 1 -1.1104 15.9994 12.6469 14.4892 18.1117
555 1 -1.1104 15.9994 12.6559 14.4458 21.1067
556 1 -1.1104 15.9994 1.53244 17.0324 18.2235
557 1 -1.1104 15.9994 4.37611 17.1995 18.2664
558 1 -1.1104 15.9994 1.41692 17.1101 21.1554
559 1 -1.1104 15.9994 4.32976 17.1445 20.9916
560 1 -1.1104 15.9994 1.71614 19.7952 18.3386
561 1 -1.1104 15.9994 4.5577 19.9166 17.9475
562 1 -1.1104 15.9994 1.26527 19.9794 21.142
563 1 -1.1104 15.9994 4.07843 19.8765 20.778
564 1 -1.1104 15.9994 7.00946 17.2854 18.2011
565 1 -1.1104 15.9994 9.92841 17.3169 18.4576
566 1 -1.1104 15.9994 7.01821 17.2384 21.09
567 1 -1.1104 15.9994 9.83399 17.3166 21.2495
568 1 -1.1104 15.9994 7.08879 20.1195 18.2354
569 1 -1.1104 15.9994 9.8635 20.0507 18.1405
570 1 -1.1104 15.9994 6.94891 19.9748 20.9969
571 1 -1.1104 15.9994 9.9245 19.9376 20.9301
572 1 -1.1104 15.9994 12.601 17.198 18.2704
573 1 -1.1104 15.9994 12.5959 17.256 21.1574
574 1 -1.1104 15.9994 12.6683 20.0001 18.0244
575 1 -1.1104 15.9994 12.5798 20.2056 21.0049
576 1 -1.1104 15.9994 1.42286 23.0891 18.2409
577 1 -1.1104 15.9994 4.17396 22.8351 17.9328
578 1 -1.1104 15.9994 1.03654 22.7328 20.9378
579 1 -1.1104 15.9994 4.28603 22.6631 20.7058
580 1 -1.1104 15.9994 7.02285 22.8559 18.1027
581 1 -1.1104 15.9994 9.80328 22.8878 18.1985
582 1 -1.1104 15.9994 7.09259 22.7714 20.9816
583 1 -1.1104 15.9994 9.81177 22.8372 20.9488
584 1 -1.1104 15.9994 12.5726 22.7442 18.1667
585 1 -1.1104 15.9994 12.6638 22.9982 21.1225
586 1 -1.1104 15.9994 1.40212 0.415924 23.8618
587 1 -1.1104 15.9994 4.1579 0.378393 23.8059
588 1 -1.1104 15.9994 1.3868 0.487307 26.7171
589 1 -1.1104 15.9994 4.08865 0.476409 26.5373
590 1 -1.1104 15.9994 1.40902 3.30242 23.8863
591 1 -1.1104 15.9994 4.08099 3.10276 23.7912
592 1 -1.1104 15.9994 1.3544 3.40295 26.7532
593 1 -1.1104 15.9994 4.09268 3.21334 26.6095
594 1 -1.1104 15.9994 7.01156 0.417529 23.9442
595 1 -1.1104 15.9994 9.76472 0.37214 23.8159
596 1 -1.1104 15.9994 6.91762 0.466367 26.6154
597 1 -1.1104 15.9994 9.80408 0.423332 26.6188
598 1 -1.1104 15.9994 7.02984 3.29802 23.7625
599 1 -1.1104 15.9994 9.76945 3.16823 23.9345
600 1 -1.1104 15.9994 7.0548 3.14882 26.6227
601 1 -1.1104 15.9994 9.84376 3.16852 26.783
602 1 -1.1104 15.9994 12.7226 0.369006 23.9716
603 1 -1.1104 15.9994 12.5673 0.379691 26.615
604 1 -1.1104 15.9994 12.5784 3.22228 23.774
605 1 -1.1104 15.9994 12.7533 3.19649 26.4909
606 1 -1.1104 15.9994 1.66325 6.1654 23.7534
607 1 -1.1104 15.9994 4.30733 5.98007 23.8683
608 1 -1.1104 15.9994 1.30595 6.09506 26.5658
609 1 -1.1104 15.9994 4.08469 6.09766 26.851
610 1 -1.1104 15.9994 1.38898 8.81258 23.819
611 1 -1.1104 15.9994 4.15363 8.68983 23.841
612 1 -1.1104 15.9994 1.54066 8.90343 26.7042
613 1 -1.1104 15.9994 4.20885 8.68008 26.582
614 1 -1.1104 15.9994 7.08479 6.11858 23.7694
615 1 -1.1104 15.9994 9.87202 5.95451 23.7899
616 1 -1.1104 15.9994 6.79887 5.91534 26.5543
617 1 -1.1104 15.9994 9.7788 6.01136 26.6438
618 1 -1.1104 15.9994 6.94369 8.84101 23.8198
619 1 -1.1104 15.9994 9.91001 8.80932 23.8063
620 1 -1.1104 15.9994 6.91986 8.80131 26.621
621 1 -1.1104 15.9994 9.93892 8.74538 26.7638
622 1 -1.1104 15.9994 12.617 6.09894 23.7439
623 1 -1.1104 15.9994 12.4538 5.89979 26.6073
624 1 -1.1104 15.9994 12.764 8.98573 24.0273
625 1 -1.1104 15.9994 12.4705 8.87048 26.6486
626 1 -1.1104 15.9994 1.38542 11.5744 23.9332
627 1 -1.1104 15.9994 4.34593 11.4934 23.9916
628 1 -1.1104 15.9994 1.39467 11.5731 26.6475
629 1 -1.1104 15.9994 4.22436 11.6663 26.7686
630 1 -1.1104 15.9994 1.60836 14.2893 23.9751
631 1 -1.1104 15.9994 4.37626 14.3533 23.9584
632 1 -1.1104 15.9994 1.28418 14.3924 26.7934
633 1 -1.1104 15.9994 4.23732 14.277 26.8667
634 1 -1.1104 15.9994 7.10047 11.5744 23.7743
635 1 -1.1104 15.9994 9.89418 11.5968 23.9007
636 1 -1.1104 15.9994 6.9981 11.5409 26.7102
637 1 -1.1104 15.9994 9.75151 22.6992 26.6804
638 1 -1.1104 15.9994 7.16063 14.4691 24.1834
639 1 -1.1104 15.9994 9.78649 14.3989 23.7699
640 1 -1.1104 15.9994 7.09147 14.4419 26.9619
335 2 2.2208 232.038 11.2116 7.41538 14.0004
353 2 2.2208 232.038 2.85684 -1.10625 19.6776
9671 2 2.2208 232.038 -0.00516695 -1.02128 22.4699