ITEM: TIMESTEP
100000
ITEM: NUMBER OF ATOMS
17730
ITEM: BOX BOUNDS pp pp pp
-4.3848330412267184e-01 2.7778483304122862e+01
-5.3867735330091326e+00 3.3346677353301135e+02
-4.4633285963108260e-01 2.7786332859630686e+01
ITEM: ATOMS id type q x y z
1 2 2.2208 5.43802 0.494684 5.23534
2 1 -1.1104 1.19596 -4.11103 0.93918
6 1 -1.1104 1.33236 -3.99651 3.77274
10 1 -1.1104 1.26754 -1.07378 0.806043
12 2 2.2208 5.31889 -2.58885 2.34036
14 1 -1.1104 1.12791 -1.17988 3.55896
16 1 -1.1104 4.03761 -4.00851 0.855623
18 2 2.2208 2.73937 0.297249 2.3483
19 1 -1.1104 3.89125 -3.85588 3.68449
21 2 2.2208 2.63526 -2.57775 5.13314
23 1 -1.1104 4.04769 -1.29087 0.890316
24 1 -1.1104 4.1676 -1.0898 3.78668
11 1 -1.1104 6.84495 -1.08582 1.12117
9016 2 2.2208 -0.168419 8.67465 7.94617
9089 2 2.2208 -0.128663 0.16188 5.24361
8 1 -1.1104 6.90378 -3.81189 3.75486
9086 2 2.2208 -0.380511 -2.52387 2.5908
309 2 2.2208 10.9688 5.84612 -0.427225
136 2 2.2208 -0.273007 20.0207 2.40795
510 2 2.2208 11.1042 14.3594 13.6887
8866 2 2.2208 13.5291 19.9858 5.46321
105 1 -1.1104 9.43366 18.7503 12.0978
380 2 2.2208 2.63306 19.8223 -0.315073
307 2 2.2208 2.6592 3.23684 -0.43926
15 1 -1.1104 7.10444 -0.978741 3.99693
4 1 -1.1104 6.75851 -3.89269 0.929588
31 2 2.2208 11.001 0.361596 5.23235
32 1 -1.1104 12.6206 -4.11541 1.15855
34 1 -1.1104 12.657 -4.07292 3.91642
36 1 -1.1104 12.8457 -1.37625 1.10633
37 2 2.2208 11.216 -2.52465 2.55568
39 1 -1.1104 12.5093 -1.06756 3.89183
40 1 -1.1104 9.72878 -3.71365 1.06857
42 2 2.2208 8.37334 0.178961 2.29069
43 1 -1.1104 9.90463 -4.16194 3.87008
45 2 2.2208 8.28134 -2.41775 5.20401
47 1 -1.1104 9.7527 -1.20151 0.900057
48 1 -1.1104 9.82595 -1.22668 3.81996
210 1 -1.1104 9.73276 -1.0652 6.69939
635 2 2.2208 8.11425 20.1053 -0.314611
8401 2 2.2208 8.33529 -5.33222 13.5326
306 2 2.2208 2.77629 -2.54719 -0.501527
145 1 -1.1104 12.3496 18.6626 6.75815
603 2 2.2208 2.53297 8.69776 -0.356505
3 1 -1.1104 1.36724 1.65322 1.17601
7 1 -1.1104 1.1834 1.84604 3.84788
13 2 2.2208 5.54572 3.20925 2.26684
17 1 -1.1104 4.322 1.62138 1.28569
20 1 -1.1104 4.04698 1.8035 3.87937
22 2 2.2208 2.55894 3.02587 5.30907
54 2 2.2208 5.50525 5.82592 5.15057
56 1 -1.1104 1.31147 7.38022 1.08219
60 1 -1.1104 1.22799 4.505 1.05904
67 1 -1.1104 1.32192 4.42475 3.85996
72 2 2.2208 2.59531 5.80489 2.39032
74 1 -1.1104 4.09557 7.38983 3.84588
76 1 -1.1104 4.08737 4.50451 1.06382
79 1 -1.1104 3.95243 4.61409 4.03125
58 1 -1.1104 1.11417 7.29278 3.84323
71 1 -1.1104 4.03786 7.34139 1.02259
9 1 -1.1104 6.97395 1.88841 3.77478
236 1 -1.1104 1.00565 4.3098 6.5756
9090 2 2.2208 -0.145979 3.14902 2.47027
8817 2 2.2208 -0.403675 20.0126 8.06321
239 1 -1.1104 4.01973 4.66466 6.83671
634 2 2.2208 13.6761 19.9921 -0.230255
9094 2 2.2208 -0.0926924 5.89663 5.23805
59 1 -1.1104 6.89727 7.26335 3.96061
5 1 -1.1104 6.99183 1.7105 1.17314
57 1 -1.1104 6.77699 7.34461 1.14368
69 1 -1.1104 6.96057 4.61756 3.56387
63 1 -1.1104 6.9716 4.51568 0.768456
33 1 -1.1104 12.4717 1.44085 1.17558
35 1 -1.1104 12.7203 1.6 4.06419
38 2 2.2208 11.2674 2.99013 2.3538
41 1 -1.1104 9.68982 1.61497 1.13115
44 1 -1.1104 9.91532 1.72766 3.92017
46 2 2.2208 8.2162 3.06024 5.27352
84 2 2.2208 11.0548 5.75851 5.26944
88 1 -1.1104 12.6913 4.44467 1.1144
92 1 -1.1104 12.5566 4.41346 3.87365
94 1 -1.1104 9.6181 7.14548 0.863991
95 2 2.2208 8.21016 5.84742 2.35767
97 1 -1.1104 9.7552 7.2858 3.73504
99 1 -1.1104 9.81903 4.37422 0.829216
102 1 -1.1104 9.7999 4.48945 3.48598
87 1 -1.1104 12.454 7.20564 4.11419
86 1 -1.1104 12.4804 7.26511 1.36493
169 1 -1.1104 6.88559 1.402 6.74134
27 1 -1.1104 12.4675 18.635 12.2893
8390 2 2.2208 2.70437 -5.29312 8.0378
201 1 -1.1104 9.69665 15.9952 12.5739
9095 2 2.2208 -0.301179 8.79108 2.41658
55 2 2.2208 5.5359 11.5737 5.37261
61 1 -1.1104 1.00183 9.97743 1.00023
66 2 2.2208 5.39946 8.82016 2.5127
68 1 -1.1104 1.12491 10.2085 3.65397
73 2 2.2208 2.46809 11.5114 2.33413
75 2 2.2208 2.52558 8.78612 5.0573
77 1 -1.1104 4.04161 10.145 1.03191
80 1 -1.1104 3.93701 10.1712 3.84094
107 1 -1.1104 1.32843 12.7532 1.00456
113 1 -1.1104 1.11558 12.9229 3.7406
123 1 -1.1104 3.86248 12.9159 1.11198
128 1 -1.1104 4.03559 13.259 3.84012
9099 2 2.2208 -0.15512 14.3087 2.63054
9107 2 2.2208 -0.137276 0.120721 -0.339003
9096 2 2.2208 -0.165979 11.5778 5.16259
8984 2 2.2208 -0.182676 14.2959 8.00221
350 2 2.2208 2.50211 14.3552 -0.271664
110 1 -1.1104 6.86056 13.1991 0.764669
115 1 -1.1104 6.83823 12.9061 3.83862
70 1 -1.1104 6.91507 10.0991 3.5572
64 1 -1.1104 6.66611 10.3382 1.01686
85 2 2.2208 11.0822 11.5455 5.29126
89 1 -1.1104 12.3613 9.96165 1.02314
91 2 2.2208 11.3135 8.6689 2.48505
93 1 -1.1104 12.3534 9.95918 3.94365
96 2 2.2208 8.24865 11.6234 2.53151
98 2 2.2208 8.21573 8.63895 5.13673
100 1 -1.1104 9.5385 9.95886 1.06301
103 1 -1.1104 9.69356 10.0791 3.77355
142 1 -1.1104 12.6784 13.1716 0.995893
146 1 -1.1104 12.4411 12.984 3.99213
153 1 -1.1104 9.78559 12.8424 1.30791
158 1 -1.1104 9.52649 12.8513 3.89785
90 1 -1.1104 12.3656 10.1214 6.7486
111 1 -1.1104 6.93103 13.016 6.69878
8393 2 2.2208 11.2194 -5.29328 10.7926
379 2 2.2208 5.29589 17.1132 -0.173359
9100 2 2.2208 -0.197227 17.0748 5.29183
130 2 2.2208 2.81278 14.3652 5.40631
119 2 2.2208 5.48802 14.6012 2.53111
106 2 2.2208 5.36826 17.2381 5.37924
109 1 -1.1104 1.11616 18.4718 1.05667
114 1 -1.1104 1.1581 18.5024 3.72418
116 1 -1.1104 0.994561 15.4885 1.11628
120 2 2.2208 5.2848 19.8899 2.51513
121 1 -1.1104 1.23946 15.5479 4.19488
125 1 -1.1104 3.75311 18.503 1.15498
127 2 2.2208 2.6327 17.0255 2.69395
129 1 -1.1104 4.12022 18.408 3.90581
131 2 2.2208 2.54365 19.9051 5.29305
132 1 -1.1104 4.03896 15.9245 1.32415
134 1 -1.1104 4.26724 15.8908 3.93222
204 1 -1.1104 0.946488 18.4495 6.71238
628 2 2.2208 8.20207 8.71976 -0.148963
133 1 -1.1104 3.99931 15.6869 6.70884
8460 2 2.2208 11.0214 -5.30821 -0.39933
29 1 -1.1104 6.71245 15.72 12.2488
349 2 2.2208 10.7627 17.3285 -0.322545
135 2 2.2208 8.28176 17.2328 8.13929
140 1 -1.1104 6.78324 15.8939 1.00221
122 1 -1.1104 7.18639 15.6477 3.7047
138 1 -1.1104 6.65796 18.6253 1.06995
139 1 -1.1104 6.84679 18.4437 3.87098
160 2 2.2208 8.35087 14.2612 5.22455
150 2 2.2208 11.1573 14.3365 2.48145
141 2 2.2208 11.0398 17.1199 5.52074
144 1 -1.1104 12.0711 18.6828 1.04888
147 1 -1.1104 12.5538 18.5356 3.77984
148 1 -1.1104 12.5017 16.0214 0.807095
151 2 2.2208 11.0801 19.8957 2.63275
152 1 -1.1104 12.4701 15.6767 4.11588
155 1 -1.1104 9.41497 18.6075 0.999656
157 2 2.2208 8.16065 17.1767 2.50843
159 1 -1.1104 9.90422 18.295 3.8774
161 2 2.2208 8.34782 19.9375 5.35994
162 1 -1.1104 9.66726 15.6701 0.924867
164 1 -1.1104 9.69963 15.5794 3.81012
149 1 -1.1104 12.6313 15.9397 6.73146
9132 2 2.2208 -0.148258 6.05994 -0.280803
163 1 -1.1104 9.69034 15.8879 6.79602
166 1 -1.1104 1.32634 -3.83675 6.75968
174 1 -1.1104 4.16245 -0.868121 6.50047
170 1 -1.1104 1.4306 -1.15965 6.36339
172 1 -1.1104 4.02955 -3.95062 6.39114
293 1 -1.1104 6.81099 18.6962 12.2855
9091 2 2.2208 -0.223965 -2.56025 8.06693
8985 2 2.2208 -0.13745 0.242577 10.9882
175 2 2.2208 5.57327 0.195871 10.8866
176 1 -1.1104 1.28575 -4.14925 12.1151
180 1 -1.1104 1.23231 -3.83471 9.41536
184 1 -1.1104 1.3075 -1.19816 12.339
186 2 2.2208 5.53284 -2.37188 8.04208
188 1 -1.1104 1.29467 -1.06968 9.49588
190 1 -1.1104 4.14259 -4.04138 12.2616
192 2 2.2208 2.80555 0.0990293 8.16569
193 1 -1.1104 4.22271 -3.92667 9.46011
195 2 2.2208 2.64937 -2.63244 10.9173
197 1 -1.1104 3.96694 -1.20287 12.3082
198 1 -1.1104 4.08177 -1.28065 9.31935
25 2 2.2208 11.0117 17.2845 10.729
168 1 -1.1104 6.94272 -3.91765 6.73118
208 1 -1.1104 9.75151 -3.80404 6.44
205 1 -1.1104 12.5758 -3.9626 6.57037
189 1 -1.1104 7.04028 -1.15625 9.50837
171 1 -1.1104 7.06587 -1.27485 6.74777
185 1 -1.1104 6.83123 -1.1915 12.4677
178 1 -1.1104 6.98995 -3.84716 12.3835
182 1 -1.1104 6.87536 -4.08347 9.60562
207 1 -1.1104 12.5901 -1.02736 6.61608
211 2 2.2208 11.3556 0.258131 10.8355
212 1 -1.1104 12.6357 -4.28869 12.4482
214 1 -1.1104 12.4892 -3.89449 9.54782
216 1 -1.1104 12.647 -1.23976 12.289
217 2 2.2208 11.2785 -2.55761 7.94717
219 1 -1.1104 12.5832 -1.24395 9.47225
220 1 -1.1104 9.85853 -3.81524 12.1713
222 2 2.2208 8.35461 0.212143 7.92597
223 1 -1.1104 9.88731 -4.15061 9.28359
225 2 2.2208 8.38658 -2.47949 10.8078
227 1 -1.1104 9.73412 -1.14922 12.2887
228 1 -1.1104 9.81287 -1.14016 9.627
9102 2 2.2208 -0.216803 3.01243 8.13442
238 1 -1.1104 4.04811 7.38281 6.47548
234 1 -1.1104 1.31337 7.28337 6.5239
167 1 -1.1104 1.26053 1.51596 6.68735
173 1 -1.1104 4.10246 1.8521 6.61081
177 1 -1.1104 1.45069 1.51563 12.3746
181 1 -1.1104 1.33302 1.76351 9.74056
187 2 2.2208 5.40979 3.07145 8.17369
191 1 -1.1104 4.39253 1.69157 12.2884
194 1 -1.1104 4.10454 1.443 9.49159
196 2 2.2208 2.60243 3.09424 10.7907
240 2 2.2208 5.48726 5.8926 10.9859
244 1 -1.1104 1.06597 7.05814 9.39697
246 1 -1.1104 1.3339 4.23285 12.2781
251 1 -1.1104 1.2529 4.4941 9.36909
256 2 2.2208 2.63658 5.8042 8.05674
258 1 -1.1104 4.12748 7.32901 9.42421
260 1 -1.1104 3.88705 4.53536 12.3976
262 1 -1.1104 4.03871 4.50738 9.7702
242 1 -1.1104 1.17109 7.2295 12.3418
255 1 -1.1104 4.11984 7.41447 12.1245
9017 2 2.2208 -0.305527 5.92288 10.9661
253 1 -1.1104 6.84599 4.55812 9.3011
266 1 -1.1104 12.5698 4.25022 6.64423
267 1 -1.1104 9.63554 7.42376 6.48484
206 1 -1.1104 12.4213 1.66744 6.65971
269 1 -1.1104 9.55442 4.59955 6.57242
248 1 -1.1104 6.72779 4.53447 12.4637
183 1 -1.1104 7.04774 1.52009 9.65049
243 1 -1.1104 6.99385 7.34568 12.1997
235 1 -1.1104 6.8706 7.17082 6.52144
237 1 -1.1104 6.84376 4.34826 6.43163
179 1 -1.1104 7.08059 1.62592 12.4484
209 1 -1.1104 9.56721 1.72957 6.60733
245 1 -1.1104 6.82029 7.46441 9.35156
265 1 -1.1104 12.1264 7.13335 7.45724
213 1 -1.1104 12.9866 1.48219 12.3496
215 1 -1.1104 12.4532 1.65359 9.49623
218 2 2.2208 11.1565 2.99974 8.07307
221 1 -1.1104 10.1009 1.74251 12.3058
224 1 -1.1104 9.79737 1.43339 9.55331
226 2 2.2208 8.29825 2.946 10.8842
268 1 -1.1104 9.78406 4.31131 9.49903
271 1 -1.1104 9.45172 4.33363 12.3643
275 2 2.2208 8.08476 5.95412 7.83938
276 2 2.2208 11.0112 5.63751 11.0315
278 1 -1.1104 12.4892 7.25365 12.133
279 1 -1.1104 12.4152 4.43202 12.5749
281 1 -1.1104 12.4458 4.29756 9.46032
282 1 -1.1104 9.65873 7.31 12.0647
273 1 -1.1104 9.82617 7.18942 9.26114
78 1 -1.1104 4.09646 10.2864 6.63168
9009 2 2.2208 -0.11571 11.317 10.8543
62 1 -1.1104 1.34065 10.0089 6.67873
124 1 -1.1104 4.18926 12.868 6.85761
108 1 -1.1104 1.44849 12.805 6.37141
241 2 2.2208 5.51089 11.6855 10.9248
247 1 -1.1104 1.48281 10.1038 12.1949
250 2 2.2208 5.31877 8.81575 7.97226
252 1 -1.1104 1.29993 9.8997 9.27752
257 2 2.2208 2.62551 11.4464 8.0293
259 2 2.2208 2.67056 8.69441 10.7427
261 1 -1.1104 4.13021 10.1917 12.4252
263 1 -1.1104 4.01048 10.3194 9.62106
52 1 -1.1104 4.01382 13.1297 9.61035
284 1 -1.1104 3.9257 13.0462 12.5091
291 1 -1.1104 1.30461 12.7899 9.54138
296 1 -1.1104 1.26524 12.7665 12.2708
50 1 -1.1104 12.5321 18.5695 9.44234
101 1 -1.1104 9.6386 10.2197 6.52453
154 1 -1.1104 9.95096 13.0384 6.58154
65 1 -1.1104 6.9211 10.0201 6.45077
287 1 -1.1104 6.90682 12.9911 9.39732
294 1 -1.1104 6.60083 13.0872 12.2207
254 1 -1.1104 6.71761 10.145 9.24292
143 1 -1.1104 12.5636 12.9734 6.55499
249 1 -1.1104 6.98732 10.1404 12.117
264 1 -1.1104 9.4228 10.2066 9.49626
270 1 -1.1104 9.84366 10.2114 12.3825
272 2 2.2208 8.25155 8.62644 10.5552
274 2 2.2208 8.35092 11.6259 8.06828
277 2 2.2208 11.0024 11.6841 10.9077
280 2 2.2208 10.9653 8.97794 7.92427
26 1 -1.1104 12.3183 13.0495 12.2207
30 1 -1.1104 12.6196 12.8768 9.38771
104 1 -1.1104 9.38658 12.8398 12.1384
137 1 -1.1104 9.70031 12.9228 9.32603
9006 1 -1.1104 12.426 10.0615 9.68383
8950 2 2.2208 -0.256704 17.1984 10.8202
602 2 2.2208 5.50249 5.84945 -0.41231
126 1 -1.1104 4.08373 18.4615 6.76998
567 2 2.2208 11.3381 0.205509 -0.318844
292 2 2.2208 5.63343 14.36 8.11711
117 1 -1.1104 1.42539 15.5449 6.84863
229 2 2.2208 2.49342 14.1018 11.0104
289 1 -1.1104 1.11616 15.5443 9.50646
288 1 -1.1104 1.23171 18.5335 9.511
283 1 -1.1104 4.27201 18.5034 12.4493
233 2 2.2208 5.36949 17.1548 10.9289
295 1 -1.1104 1.20417 18.2752 12.3095
232 1 -1.1104 3.68229 18.5562 9.4057
231 1 -1.1104 3.79312 15.7981 12.5041
290 2 2.2208 5.33437 19.9767 8.21925
230 2 2.2208 2.61185 19.8715 10.9737
28 1 -1.1104 1.23182 15.3846 12.6228
53 1 -1.1104 3.98831 15.8433 9.63613
203 2 2.2208 2.53702 16.884 8.20469
285 1 -1.1104 6.75581 18.6284 9.49084
81 2 2.2208 11.1453 14.4441 8.1429
199 2 2.2208 8.16709 14.4419 10.9583
156 1 -1.1104 9.66994 18.8683 6.73516
82 2 2.2208 11.0874 20.0844 8.26645
112 1 -1.1104 6.99062 18.6145 6.94546
83 1 -1.1104 12.4404 15.631 9.59913
286 1 -1.1104 6.93999 15.736 9.37261
51 1 -1.1104 12.4245 15.8856 12.3124
165 1 -1.1104 9.79929 18.6565 9.50298
200 2 2.2208 8.33251 20.17 10.8177
118 1 -1.1104 6.88621 15.6538 6.55418
202 1 -1.1104 9.54391 15.8252 9.60817
8387 2 2.2208 5.41793 -5.27214 5.36153
299 2 2.2208 5.51747 -2.70841 13.5924
308 2 2.2208 11.2173 -2.56479 13.5832
305 2 2.2208 5.47337 0.325775 -0.338846
8410 2 2.2208 -0.052753 -5.31319 5.45007
8388 2 2.2208 8.38248 -5.22609 2.40656
310 2 2.2208 11.0623 11.6168 -0.259235
569 2 2.2208 8.47813 2.94984 -0.289847
511 2 2.2208 8.17701 17.5121 13.6629
420 2 2.2208 2.56633 5.97853 13.6336
8404 2 2.2208 2.76309 -5.3725 13.5583
301 2 2.2208 8.2063 -2.52332 -0.432305
9215 2 2.2208 -0.255144 11.5109 -0.379843
433 2 2.2208 8.20576 11.6144 13.6401
311 2 2.2208 5.60493 0.470814 16.5888
312 1 -1.1104 1.26863 -3.99491 17.7181
316 1 -1.1104 1.36964 -3.93744 14.7938
324 1 -1.1104 1.22192 -1.17548 17.7906
326 2 2.2208 5.36355 -2.58268 19.2095
328 1 -1.1104 1.14686 -1.238 15.097
332 1 -1.1104 4.03158 -4.05661 17.9634
334 2 2.2208 2.64819 0.268595 19.3024
335 1 -1.1104 4.16584 -3.86624 15.1007
339 2 2.2208 2.7509 -2.62977 16.5912
341 1 -1.1104 4.23363 -1.07363 17.8656
342 1 -1.1104 3.9438 -1.20871 15.1436
482 2 2.2208 2.48787 16.9335 13.9549
336 1 -1.1104 4.21634 -3.94489 20.7044
9239 2 2.2208 -0.260679 -2.58076 19.382
300 2 2.2208 2.71769 0.134947 13.7542
9240 2 2.2208 -0.204962 0.238916 16.4484
343 1 -1.1104 3.80458 -1.13114 20.612
386 2 2.2208 11.0511 3.04193 13.9175
8495 2 2.2208 5.34015 -5.40559 22.1704
8496 2 2.2208 8.30825 -5.33947 19.2842
17453 2 2.2208 -0.246408 -5.35124 16.6214
320 1 -1.1104 6.90409 -3.93595 15.0635
346 2 2.2208 -0.338959 19.9294 24.8914
314 1 -1.1104 6.70508 -3.89808 17.7771
325 1 -1.1104 6.94758 -1.13501 18.0998
330 1 -1.1104 6.98272 -0.770179 15.3146
354 2 2.2208 11.0875 0.21643 16.4558
355 1 -1.1104 12.459 -3.99268 17.873
357 1 -1.1104 12.5764 -3.82759 15.1537
361 1 -1.1104 12.4372 -1.07427 17.9123
362 2 2.2208 11.1993 -2.65129 19.2461
364 1 -1.1104 12.6201 -1.13217 15.089
366 1 -1.1104 9.58159 -4.13976 17.8171
368 2 2.2208 8.14397 0.24635 19.4099
369 1 -1.1104 9.8183 -4.02974 15.0142
373 2 2.2208 8.35476 -2.55824 16.4651
375 1 -1.1104 9.6637 -1.21646 17.8223
376 1 -1.1104 9.68989 -1.32621 15.0994
358 1 -1.1104 12.174 -4.08135 20.6815
9114 2 2.2208 -0.264063 -2.59528 13.7942
422 2 2.2208 2.59585 11.64 13.7213
313 1 -1.1104 1.01989 1.609 18.2029
318 1 -1.1104 1.21148 1.69091 15.3951
327 2 2.2208 5.27373 3.2526 19.5813
333 1 -1.1104 4.05319 1.74814 18.1397
337 1 -1.1104 4.02483 1.82035 15.1283
340 2 2.2208 2.57793 3.04026 16.6849
387 2 2.2208 5.52064 6.02993 16.7311
395 1 -1.1104 1.16054 4.70175 18.3443
400 1 -1.1104 1.17948 4.48287 15.2448
409 2 2.2208 2.69535 5.82686 19.5523
411 1 -1.1104 4.19274 7.21971 15.3535
414 1 -1.1104 3.80478 4.49595 18.0218
416 1 -1.1104 4.07072 4.56367 15.2345
408 1 -1.1104 3.9063 7.24324 18.2097
389 1 -1.1104 1.0087 7.24579 17.8012
391 1 -1.1104 1.17231 7.22768 15.0361
9282 2 2.2208 -0.338034 5.6301 16.6433
9211 2 2.2208 -0.0571348 3.06296 19.4943
392 1 -1.1104 1.29023 7.34534 20.5752
421 2 2.2208 5.50211 8.77779 13.6408
17448 2 2.2208 -0.214156 -5.19634 22.0725
447 2 2.2208 8.38364 5.97826 13.8065
390 1 -1.1104 6.94149 7.59699 18.1272
315 1 -1.1104 6.62477 1.88208 18.0915
397 1 -1.1104 6.64892 4.69273 18.2386
322 1 -1.1104 6.74665 2.08872 15.437
404 1 -1.1104 6.8625 4.71714 15.4184
393 1 -1.1104 6.89113 7.42609 15.2448
356 1 -1.1104 12.5726 1.76918 17.8851
359 1 -1.1104 12.5497 1.65541 14.9903
363 2 2.2208 11.0568 3.07106 19.3797
367 1 -1.1104 9.57805 1.48495 17.8953
371 1 -1.1104 9.73505 1.57722 15.0566
374 2 2.2208 8.07479 3.31286 16.8466
423 2 2.2208 10.932 5.74765 16.6887
428 1 -1.1104 12.3654 4.49403 18.1444
431 1 -1.1104 12.5236 4.52199 15.3268
436 2 2.2208 8.33902 6.07769 19.4744
441 1 -1.1104 9.51945 4.3645 18.1558
443 1 -1.1104 9.56002 4.48117 15.4323
426 1 -1.1104 12.4488 7.35647 17.7272
438 1 -1.1104 9.68374 7.12754 15.0745
435 1 -1.1104 9.70413 7.29342 17.8383
432 1 -1.1104 12.5779 4.46727 20.7956
353 2 2.2208 5.36879 3.24155 13.8057
9246 2 2.2208 -0.391981 11.4554 16.5778
9281 2 2.2208 -0.333283 8.596 19.193
388 2 2.2208 5.38798 11.3185 16.4237
396 1 -1.1104 1.22924 9.8139 17.8585
399 2 2.2208 5.50135 8.86505 19.4511
402 1 -1.1104 1.0554 10.1216 14.857
410 2 2.2208 2.55304 11.5925 19.5339
413 2 2.2208 2.47931 8.62862 16.5084
415 1 -1.1104 3.90396 10.3252 18.0962
418 1 -1.1104 4.08786 9.96623 15.2667
450 1 -1.1104 1.21272 12.7876 17.8824
454 1 -1.1104 1.15334 12.8307 15.4734
470 1 -1.1104 4.09399 12.7355 18.1443
473 1 -1.1104 4.27591 12.6788 15.0401
9248 2 2.2208 -0.323965 8.52436 13.7902
303 2 2.2208 5.37377 19.9653 13.7051
384 2 2.2208 8.36209 0.201098 13.7498
8527 2 2.2208 5.5705 -5.3014 16.3574
484 2 2.2208 5.32535 14.4271 13.6786
429 1 -1.1104 12.3654 7.75721 15.0498
458 1 -1.1104 6.98166 13.1216 15.0545
452 1 -1.1104 6.75013 12.9927 18.0755
406 1 -1.1104 6.8821 10.0257 15.2423
398 1 -1.1104 6.83072 10.0722 17.8898
425 1 -1.1104 12.2603 9.98994 17.3553
424 2 2.2208 10.9418 11.5915 16.5418
430 2 2.2208 11.0918 8.69391 19.3117
437 2 2.2208 8.16096 11.5134 19.3797
440 2 2.2208 8.31275 8.57769 16.604
442 1 -1.1104 9.65174 10.1098 18.0156
445 1 -1.1104 9.79015 10.0046 15.1478
486 1 -1.1104 12.2522 12.6586 18.0425
488 1 -1.1104 12.5621 12.9877 15.1862
497 1 -1.1104 9.46756 13.0892 18.1418
500 1 -1.1104 9.66332 12.8862 15.1659
434 1 -1.1104 12.5193 10.0991 20.5135
489 1 -1.1104 12.4504 13.1626 20.8259
632 1 -1.1104 9.64386 15.693 26.383
302 2 2.2208 10.9586 8.57202 13.6676
464 2 2.2208 5.44175 14.3502 19.4403
477 2 2.2208 2.42321 14.2202 16.6914
449 2 2.2208 5.30817 17.3209 16.5419
451 1 -1.1104 1.21129 18.5114 18.1051
456 1 -1.1104 1.26311 18.7894 15.2137
462 1 -1.1104 1.13773 15.5742 18.0035
465 2 2.2208 5.16056 20.0823 19.3696
466 1 -1.1104 0.993594 15.8093 15.2712
471 1 -1.1104 4.0913 18.6266 17.8355
472 2 2.2208 2.54453 17.1449 19.2574
475 1 -1.1104 3.89779 18.6159 15.1603
478 2 2.2208 2.56099 19.948 16.5962
479 1 -1.1104 4.07484 15.9327 18.0104
480 1 -1.1104 3.84332 15.5778 15.1947
9351 2 2.2208 -0.355959 14.4257 19.4799
577 2 2.2208 7.92215 17.155 25.2716
9352 2 2.2208 -0.314559 17.2296 16.5271
476 1 -1.1104 3.81716 18.539 20.6843
9353 2 2.2208 -0.324103 14.3381 13.8516
546 2 2.2208 11.0477 14.2293 25.0525
9141 2 2.2208 -0.231084 19.9299 13.7093
548 1 -1.1104 12.6636 15.6678 26.2702
468 1 -1.1104 6.74133 15.9257 15.0016
463 1 -1.1104 6.81845 15.8216 17.9223
382 2 2.2208 10.9661 17.1062 22.2785
460 1 -1.1104 6.81657 18.7767 15.2699
469 1 -1.1104 6.68807 16.0055 20.9259
453 1 -1.1104 6.72989 18.5823 17.8224
493 2 2.2208 10.9484 14.5138 19.6879
504 2 2.2208 8.18994 14.5236 16.5165
485 2 2.2208 11.1904 17.2463 16.5599
487 1 -1.1104 12.377 18.5317 18.0991
490 1 -1.1104 12.2628 18.8004 15.1346
492 1 -1.1104 12.4256 15.6955 18.1992
494 2 2.2208 10.8839 19.9496 19.3643
495 1 -1.1104 12.5022 16.1647 15.3144
498 1 -1.1104 9.58393 18.512 17.7552
499 2 2.2208 8.21126 17.2656 19.2776
502 1 -1.1104 9.67088 18.707 15.0767
505 2 2.2208 8.34982 19.8644 16.5629
506 1 -1.1104 9.62499 15.8517 18.0234
507 1 -1.1104 9.8256 15.6427 15.1889
503 1 -1.1104 9.46111 18.6135 20.7075
491 1 -1.1104 12.309 18.5744 20.8213
304 2 2.2208 11.0444 20.1421 13.9863
317 1 -1.1104 1.19133 -4.03209 20.6854
329 1 -1.1104 1.27994 -1.08435 20.4911
631 1 -1.1104 9.58177 15.448 23.5563
496 1 -1.1104 12.392 15.8785 21.0719
9170 2 2.2208 -0.190977 -2.46468 24.8865
513 2 2.2208 5.53425 0.404629 22.2989
514 1 -1.1104 0.883822 -3.88128 23.3152
518 1 -1.1104 1.5176 -4.10331 26.5448
522 1 -1.1104 1.39117 -0.991443 23.589
524 2 2.2208 5.55525 -2.59062 24.797
526 1 -1.1104 1.19341 -1.32568 26.2796
528 1 -1.1104 3.74072 -4.12935 23.4978
530 2 2.2208 2.70561 0.332014 25.0494
531 1 -1.1104 4.37097 -4.11322 26.3688
533 2 2.2208 2.78103 -2.61199 22.1181
535 1 -1.1104 4.16764 -1.48481 23.4383
536 1 -1.1104 3.92081 -1.09629 26.2913
9169 2 2.2208 -0.255241 0.287691 22.1769
331 1 -1.1104 6.75945 -1.37397 20.9466
321 1 -1.1104 6.83574 -4.06778 20.6658
365 1 -1.1104 12.3495 -1.38647 20.7401
520 1 -1.1104 6.98547 -3.66774 26.2476
370 1 -1.1104 9.55582 -4.06386 20.9403
377 1 -1.1104 9.631 -1.28137 20.6341
523 1 -1.1104 6.92702 -1.09814 23.6897
527 1 -1.1104 6.88463 -1.20298 26.5487
516 1 -1.1104 6.73016 -3.92693 23.5619
549 2 2.2208 11.139 0.171046 22.1825
550 1 -1.1104 12.8402 -3.82182 23.5842
552 1 -1.1104 12.7533 -4.02981 26.5947
554 1 -1.1104 12.5479 -1.13945 23.5832
555 2 2.2208 11.3296 -2.55228 25.0187
557 1 -1.1104 12.7484 -1.29017 26.4399
558 1 -1.1104 9.82506 -3.90716 23.8507
560 2 2.2208 8.405 0.0765029 24.903
561 1 -1.1104 9.82963 -3.72295 26.5737
563 2 2.2208 8.21153 -2.56947 22.0741
565 1 -1.1104 10.01 -1.24752 23.384
566 1 -1.1104 9.83226 -0.930777 26.1137
576 1 -1.1104 9.36789 18.5101 23.5012
401 1 -1.1104 1.1269 4.26274 21.096
417 1 -1.1104 3.92896 4.50392 20.7765
319 1 -1.1104 1.18274 1.60098 20.8401
412 1 -1.1104 4.0125 7.38547 20.8225
9166 2 2.2208 -0.11882 3.25232 24.9247
338 1 -1.1104 4.30089 1.72888 20.9939
515 1 -1.1104 1.40665 1.88409 23.7385
519 1 -1.1104 1.29799 1.73759 26.3819
525 2 2.2208 5.49388 3.13775 25.1861
529 1 -1.1104 4.10841 1.28976 23.6899
532 1 -1.1104 4.15786 1.84729 26.498
534 2 2.2208 2.65587 3.13687 22.4139
578 2 2.2208 5.48612 6.07983 22.2747
584 1 -1.1104 1.30384 4.63099 23.8201
589 1 -1.1104 1.44203 4.52857 26.4321
593 1 -1.1104 3.95732 7.47811 23.7233
594 2 2.2208 2.71902 6.14172 25.0365
598 1 -1.1104 4.14778 4.63704 23.5046
600 1 -1.1104 4.09004 4.5538 26.2808
580 1 -1.1104 1.40725 7.34543 23.6265
596 1 -1.1104 4.09033 7.33224 26.5391
582 1 -1.1104 1.24403 7.33854 26.669
9459 2 2.2208 -0.119162 5.78107 22.2769
394 1 -1.1104 6.8861 7.48046 20.7971
323 1 -1.1104 6.94243 1.65084 20.8469
427 1 -1.1104 12.4474 7.36086 20.6738
444 1 -1.1104 9.71417 4.59038 20.7566
517 1 -1.1104 6.95978 1.63733 23.4556
586 1 -1.1104 6.80344 4.40545 23.5944
405 1 -1.1104 6.96221 4.74962 20.8645
372 1 -1.1104 9.88254 1.65643 20.6452
583 1 -1.1104 7.11129 7.2371 26.7791
521 1 -1.1104 6.90199 1.65918 26.4731
581 1 -1.1104 6.69941 7.23758 23.8953
591 1 -1.1104 6.88855 4.62733 26.2928
360 1 -1.1104 12.6857 1.55109 20.9275
551 1 -1.1104 12.5917 1.70303 23.6576
553 1 -1.1104 12.6736 1.48289 26.7929
556 2 2.2208 11.1775 2.9131 25.0816
559 1 -1.1104 9.59737 1.63189 23.4536
562 1 -1.1104 9.89311 1.84675 26.6117
564 2 2.2208 8.26314 3.20692 22.227
610 1 -1.1104 9.77489 4.43077 26.3201
612 1 -1.1104 9.66414 4.30796 23.7543
616 2 2.2208 8.38985 5.84557 24.9428
617 2 2.2208 11.1266 5.79528 22.2754
619 1 -1.1104 12.3456 7.26311 23.6938
621 1 -1.1104 12.5135 4.40644 23.4698
624 1 -1.1104 12.2629 4.22635 26.4004
614 1 -1.1104 9.76042 7.30483 26.165
620 1 -1.1104 12.6731 7.28854 26.5471
626 1 -1.1104 9.52741 7.15643 23.3008
439 1 -1.1104 9.75987 7.29712 20.7598
474 1 -1.1104 4.07987 13.0533 20.9534
455 1 -1.1104 1.35183 12.8885 20.8523
419 1 -1.1104 4.16464 10.1426 20.7228
403 1 -1.1104 1.16814 10.0726 20.8024
9284 2 2.2208 -0.198509 8.72176 25.0672
9387 2 2.2208 -0.320434 11.3624 22.2117
579 2 2.2208 5.51295 11.6099 22.3165
585 1 -1.1104 1.15302 10.0915 23.5512
588 2 2.2208 5.44211 8.73194 25.1393
590 1 -1.1104 1.17864 10.1328 26.1921
595 2 2.2208 2.57801 11.5797 25.0169
597 2 2.2208 2.60328 8.81127 22.1364
599 1 -1.1104 3.89315 10.1832 23.576
601 1 -1.1104 3.86438 10.1647 26.3052
352 1 -1.1104 1.33077 13.0749 23.5361
538 1 -1.1104 1.05029 12.9186 26.5232
572 1 -1.1104 3.90789 12.8176 26.4095
627 1 -1.1104 4.03352 13.0625 23.587
459 1 -1.1104 7.13473 13.0233 20.8911
501 1 -1.1104 9.66201 12.9802 21.0832
587 1 -1.1104 6.76901 10.3591 23.6341
407 1 -1.1104 6.98424 10.1949 20.8614
448 1 -1.1104 7.03777 12.8796 23.5039
592 1 -1.1104 6.6177 10.0785 26.391
446 1 -1.1104 9.73899 10.0049 20.948
629 1 -1.1104 6.69963 13.1221 26.3061
609 1 -1.1104 9.55905 10.0859 26.3375
611 1 -1.1104 9.78031 10.0173 23.6
613 2 2.2208 8.24899 8.83621 22.2172
615 2 2.2208 8.14025 11.6767 25.0504
618 2 2.2208 10.9267 11.5109 22.1685
622 1 -1.1104 12.4693 10.2174 23.2493
623 2 2.2208 11.0086 8.68234 24.8261
625 1 -1.1104 12.3481 10.022 26.3117
383 1 -1.1104 12.4133 13.095 23.5419
540 1 -1.1104 12.2401 12.8981 26.2886
575 1 -1.1104 9.71089 12.6737 23.8478
606 1 -1.1104 9.50027 12.9731 26.7987
9112 2 2.2208 -0.139712 2.98379 13.707
9173 2 2.2208 -0.227971 14.3103 24.8905
574 1 -1.1104 6.78461 15.7166 26.5072
9167 2 2.2208 -0.410056 17.0915 22.002
571 1 -1.1104 6.63501 15.9359 23.7014
481 1 -1.1104 3.84322 15.9284 20.7903
467 1 -1.1104 0.907473 15.832 20.7796
457 1 -1.1104 1.09606 18.6726 20.8735
483 2 2.2208 5.2132 14.4821 25.0932
381 2 2.2208 2.59198 14.449 22.1903
544 1 -1.1104 1.1767 15.8607 23.5566
543 1 -1.1104 3.97726 15.824 23.8452
542 2 2.2208 2.51226 19.9971 22.3265
539 1 -1.1104 1.08838 15.6487 26.4795
509 2 2.2208 5.45508 19.8502 24.9196
633 1 -1.1104 3.86932 18.5708 23.5406
573 1 -1.1104 3.90558 15.4916 26.8227
568 1 -1.1104 1.19488 18.5052 26.4301
378 1 -1.1104 1.0817 18.5579 23.6801
351 2 2.2208 5.36766 17.2076 22.0678
344 2 2.2208 2.47996 17.2649 25.0427
345 1 -1.1104 4.03172 18.0938 26.3788
8457 2 2.2208 8.36944 -5.38229 24.9551
607 1 -1.1104 9.34085 18.6393 26.4257
547 2 2.2208 10.8669 19.835 25.1502
508 1 -1.1104 9.44108 15.7399 20.8095
630 2 2.2208 8.0406 20.0076 22.0915
537 1 -1.1104 6.58715 18.7228 23.4855
461 1 -1.1104 6.82271 18.6945 20.668
608 2 2.2208 8.2663 14.2825 22.3044
605 1 -1.1104 6.54346 18.5855 26.5442
541 1 -1.1104 12.1766 18.3585 26.5174
545 1 -1.1104 12.374 15.8485 23.9151
512 1 -1.1104 12.241 18.6846 23.4767
604 2 2.2208 5.4965 11.714 27.6935
348 2 2.2208 8.15783 14.4788 27.7191
9103 2 2.2208 -0.322971 17.2025 27.6575
636 2 2.2208 5.28153 22.577 5.2679
638 1 -1.1104 0.972448 24.2909 1.03514
639 1 -1.1104 1.0682 24.1903 3.83892
640 1 -1.1104 1.00209 21.4193 1.05331
642 2 2.2208 5.21842 25.4308 2.56397
643 1 -1.1104 0.92577 21.4556 3.95426
645 1 -1.1104 3.77882 24.0743 1.19943
646 2 2.2208 2.40495 22.7235 2.54022
648 1 -1.1104 3.66696 24.0004 3.86819
649 2 2.2208 2.29763 25.6954 5.27099
650 1 -1.1104 3.70319 21.2907 1.0691
652 1 -1.1104 4.07323 21.1299 3.86527
653 1 -1.1104 3.86057 26.9019 3.85858
651 1 -1.1104 3.77143 27.0638 1.03435
644 1 -1.1104 1.09336 26.9631 3.71899
641 1 -1.1104 1.35984 27.1483 0.83682
1027 2 2.2208 10.8835 39.6538 -0.302941
780 1 -1.1104 1.01368 27.1535 6.61064
943 2 2.2208 13.3488 34.3992 7.87327
777 1 -1.1104 1.09037 24.2397 6.83003
784 1 -1.1104 3.85944 21.1247 6.86483
783 1 -1.1104 4.09205 23.8727 6.84898
956 2 2.2208 8.0372 42.4848 -0.364223
785 1 -1.1104 3.79517 26.8589 6.68692
1504 1 -1.1104 12.3457 46.7109 6.82529
961 2 2.2208 2.55424 42.5056 -0.327026
661 1 -1.1104 6.79574 21.4213 3.91547
662 1 -1.1104 6.63189 26.9304 3.84009
658 1 -1.1104 6.75818 24.2359 3.81421
778 1 -1.1104 6.84162 24.0773 6.72623
659 1 -1.1104 6.77519 21.5603 1.11497
657 1 -1.1104 6.46027 24.3645 1.0427
663 2 2.2208 11.092 22.931 5.40779
665 1 -1.1104 12.1423 24.2055 1.18156
666 1 -1.1104 12.4261 24.2327 3.83109
667 1 -1.1104 12.2452 21.4536 0.91072
669 2 2.2208 10.8881 25.7464 2.50603
670 1 -1.1104 12.5297 21.4186 4.012
672 1 -1.1104 9.50332 24.1706 1.05056
673 2 2.2208 8.20976 22.9666 2.60637
675 1 -1.1104 9.50036 24.2373 3.9573
676 2 2.2208 8.06349 25.7472 5.30244
677 1 -1.1104 9.42685 21.3453 1.47463
679 1 -1.1104 9.56527 21.3353 4.04968
668 1 -1.1104 12.1677 26.9992 0.894309
678 1 -1.1104 9.27503 27.0524 1.00733
680 1 -1.1104 9.54655 27.0307 3.85874
660 1 -1.1104 6.55995 27.1405 1.09902
671 1 -1.1104 12.4937 26.9652 3.94994
811 1 -1.1104 12.1917 21.5776 6.9321
656 2 2.2208 -0.416714 25.6638 2.29689
637 2 2.2208 5.26355 28.3971 5.47435
647 2 2.2208 2.56965 28.4945 2.53518
685 1 -1.1104 1.0058 29.9284 1.14374
688 1 -1.1104 1.19617 29.8423 3.96383
691 1 -1.1104 0.732149 32.1758 0.437331
692 2 2.2208 4.98543 31.389 2.52438
694 1 -1.1104 0.919269 32.6166 3.68913
696 1 -1.1104 3.75229 29.8807 1.03328
699 1 -1.1104 3.75687 29.8218 3.96591
701 2 2.2208 2.3451 31.3538 5.23651
703 1 -1.1104 3.2908 32.695 1.11587
704 1 -1.1104 3.71944 32.7026 3.87709
1472 1 -1.1104 1.08226 46.6322 6.76609
695 1 -1.1104 6.49609 32.54 4.13342
710 1 -1.1104 6.55674 32.4229 1.23399
1511 1 -1.1104 12.2358 46.7017 12.4374
838 1 -1.1104 0.929115 32.6963 6.62195
840 1 -1.1104 3.7621 29.8014 6.88436
959 2 2.2208 13.6897 25.6384 11.0675
654 2 2.2208 -0.191956 28.6028 5.37632
1481 1 -1.1104 6.67817 46.7918 9.45034
709 1 -1.1104 6.24319 29.8959 3.87271
708 1 -1.1104 6.67447 29.9561 1.12963
664 2 2.2208 10.8923 28.5568 5.42877
674 2 2.2208 7.89033 28.5296 2.432
712 1 -1.1104 12.3849 29.7462 1.24621
714 1 -1.1104 12.1118 29.9481 4.19722
716 1 -1.1104 12.1226 32.6436 1.23619
717 2 2.2208 10.8081 31.17 2.63579
719 1 -1.1104 12.2321 32.7541 3.93758
720 1 -1.1104 9.54404 29.8256 1.01307
723 1 -1.1104 9.16026 29.5735 4.03698
725 2 2.2208 7.94276 31.2749 5.37543
727 1 -1.1104 9.47809 32.6166 1.12285
728 1 -1.1104 9.29174 32.5278 3.95167
836 1 -1.1104 6.48789 29.9359 6.65309
870 1 -1.1104 12.1445 32.9219 6.62526
873 1 -1.1104 9.31952 32.6215 6.74428
868 1 -1.1104 12.1646 29.9658 6.85497
964 2 2.2208 10.9624 28.5747 -0.301024
698 2 2.2208 2.15797 34.0292 2.39799
684 2 2.2208 5.30032 34.0757 5.4374
689 1 -1.1104 0.703667 35.3755 3.79027
693 2 2.2208 4.99539 36.9863 2.38144
697 1 -1.1104 0.822977 35.2409 1.09642
700 1 -1.1104 3.53226 35.5899 3.32781
702 2 2.2208 2.41935 36.7851 4.95844
730 2 2.2208 5.0604 39.6535 5.1994
736 1 -1.1104 0.628275 38.5669 1.37217
741 1 -1.1104 1.03812 38.2951 3.76137