ITEM: TIMESTEP
50000
ITEM: NUMBER OF ATOMS
17640
ITEM: BOX BOUNDS pp pp pp
-4.2537907301177591e-01 2.7765379073012227e+01
-5.3888259267869687e+00 3.3346882592678594e+02
-4.3902929902574628e-01 2.7779029299025787e+01
ITEM: ATOMS id type q x y z
1 2 2.2208 5.35791 0.212455 5.2103
2 1 -1.1104 0.84973 -4.01671 1.10808
6 1 -1.1104 0.698725 -3.92328 3.78254
10 1 -1.1104 0.884547 -1.22799 1.03588
12 2 2.2208 5.20207 -2.62164 2.49682
14 1 -1.1104 1.01465 -1.21862 3.99467
16 1 -1.1104 3.64574 -3.89092 0.944021
18 2 2.2208 2.50078 0.258333 2.40408
19 1 -1.1104 3.78658 -4.20584 3.60241
21 2 2.2208 2.42299 -2.78168 5.12089
23 1 -1.1104 3.79142 -1.17306 1.08051
24 1 -1.1104 3.87785 -1.30253 3.9266
174 1 -1.1104 3.66271 -1.29714 6.55981
9512 2 2.2208 -0.251552 -2.6527 13.5681
11 1 -1.1104 6.44819 -0.868371 1.30293
233 1 -1.1104 9.6405 18.6467 9.35148
8 1 -1.1104 6.62965 -4.10861 3.70703
4 1 -1.1104 6.41763 -3.83079 0.992108
15 1 -1.1104 6.61405 -1.36824 4.03141
52 2 2.2208 10.7442 -5.33088 5.34566
137 1 -1.1104 12.4235 15.5535 9.45621
135 2 2.2208 11.0228 14.3353 8.08305
31 2 2.2208 10.7941 0.262425 5.37767
32 1 -1.1104 12.2464 -4.01915 1.05118
34 1 -1.1104 12.0821 -3.85673 3.9482
36 1 -1.1104 12.2737 -1.26635 0.8256
37 2 2.2208 10.7767 -2.68494 2.2936
39 1 -1.1104 12.1595 -1.2028 3.63006
40 1 -1.1104 9.30127 -4.00633 1.03874
42 2 2.2208 8.0586 0.238469 2.49657
43 1 -1.1104 9.32547 -4.06721 3.80483
45 2 2.2208 8.09611 -2.58461 5.19658
47 1 -1.1104 9.29261 -1.34999 1.08274
48 1 -1.1104 9.39506 -1.20111 3.69227
690 2 2.2208 10.7869 14.3857 13.4924
210 1 -1.1104 9.36824 -1.13433 6.61924
207 1 -1.1104 12.3215 -1.1667 6.41272
9164 2 2.2208 -0.300469 0.323162 10.7947
203 2 2.2208 5.29175 -5.29141 10.8519
3 1 -1.1104 0.784424 1.43937 1.10775
7 1 -1.1104 0.852586 1.6731 3.64367
13 2 2.2208 5.19275 3.1538 2.66465
17 1 -1.1104 3.79165 1.68127 1.06317
20 1 -1.1104 3.87572 1.65778 3.74324
22 2 2.2208 2.37262 2.99095 5.09866
54 2 2.2208 5.19072 5.99496 5.3044
56 1 -1.1104 0.988835 7.3499 0.828573
58 1 -1.1104 0.984965 7.3384 3.68636
60 1 -1.1104 0.636553 4.43943 0.877866
67 1 -1.1104 1.19662 4.4449 3.79289
71 1 -1.1104 3.66045 7.52291 1.21992
72 2 2.2208 2.46328 5.91917 2.3737
74 1 -1.1104 3.84036 7.3202 3.88584
76 1 -1.1104 3.59028 4.64968 1.02584
79 1 -1.1104 3.72342 4.48625 3.81998
234 1 -1.1104 0.843365 7.23527 6.52892
239 1 -1.1104 3.86027 4.41582 6.35096
9 1 -1.1104 6.59723 1.63783 3.78634
63 1 -1.1104 6.58015 4.56133 1.02218
5 1 -1.1104 6.62446 1.83438 1.06673
167 1 -1.1104 0.863672 1.78809 6.38233
696 2 2.2208 5.37785 20.0217 13.5908
200 1 -1.1104 9.50722 18.5406 12.2253
50 1 -1.1104 12.3105 18.729 12.3261
59 1 -1.1104 6.64012 7.35759 3.84871
57 1 -1.1104 6.53431 7.45262 0.960333
69 1 -1.1104 6.6327 4.60413 4.04357
33 1 -1.1104 12.034 1.64934 0.934612
35 1 -1.1104 12.2309 1.76768 3.96758
38 2 2.2208 10.8656 3.05222 2.59067
41 1 -1.1104 9.42054 1.57709 1.25245
44 1 -1.1104 9.68115 1.7833 4.01552
46 2 2.2208 8.06269 3.16168 5.29073
84 2 2.2208 10.9637 6.04225 5.14444
86 1 -1.1104 12.183 7.32775 0.871654
88 1 -1.1104 12.289 4.37681 0.972584
92 1 -1.1104 12.4598 4.55122 3.90588
94 1 -1.1104 9.3422 7.35668 0.966918
95 2 2.2208 7.82047 5.99061 2.3223
97 1 -1.1104 9.38351 7.36048 3.67814
99 1 -1.1104 9.38265 4.4708 1.13645
102 1 -1.1104 9.57259 4.58207 4.02989
87 1 -1.1104 12.3506 7.51155 3.64689
266 1 -1.1104 12.0159 4.68104 6.8018
265 1 -1.1104 12.4775 7.38632 6.71135
231 2 2.2208 8.00045 -5.2761 7.9793
209 1 -1.1104 9.41347 1.72473 6.64749
206 1 -1.1104 12.2059 1.69276 6.61201
112 1 -1.1104 6.71854 18.6659 6.76201
642 2 2.2208 4.99762 -5.37709 -0.316323
55 2 2.2208 5.11006 11.4255 5.33131
61 1 -1.1104 0.796314 10.1 0.911908
66 2 2.2208 5.04554 8.92971 2.43669
68 1 -1.1104 0.884658 10.1461 3.68596
73 2 2.2208 2.30285 11.5938 2.53405
75 2 2.2208 2.40295 8.64305 5.18285
77 1 -1.1104 3.71001 10.2824 0.932248
80 1 -1.1104 3.68699 10.1649 3.90713
107 1 -1.1104 1.11066 13.017 0.781713
113 1 -1.1104 0.954392 13.1162 3.64916
123 1 -1.1104 4.05745 13.149 1.02707
128 1 -1.1104 3.65386 12.8453 3.92138
115 1 -1.1104 6.46441 13.1685 3.87358
124 1 -1.1104 3.77469 13.067 6.52497
108 1 -1.1104 1.08911 12.9951 6.47973
62 1 -1.1104 0.845624 10.0852 6.56742
348 2 2.2208 10.8187 11.6736 -0.429241
311 2 2.2208 8.02245 14.4496 10.6957
698 2 2.2208 2.40732 0.249118 13.5473
110 1 -1.1104 6.71004 12.7853 0.94391
70 1 -1.1104 6.71222 10.3707 3.68907
64 1 -1.1104 6.47568 10.0876 0.953859
85 2 2.2208 10.9851 11.5257 5.31556
89 1 -1.1104 12.3216 10.0766 0.719658
91 2 2.2208 10.9316 8.76602 2.22762
93 1 -1.1104 12.5447 10.1059 3.78986
96 2 2.2208 7.95565 11.6208 2.36205
98 2 2.2208 8.13356 8.75748 5.0501
100 1 -1.1104 9.35973 10.1397 0.911343
103 1 -1.1104 9.53874 10.1447 3.82488
142 1 -1.1104 12.3727 12.8454 0.895368
146 1 -1.1104 12.2548 13.1643 3.87568
153 1 -1.1104 9.3773 12.9877 1.03816
158 1 -1.1104 9.26994 13.0154 3.69119
154 1 -1.1104 9.6001 13.244 6.71459
101 1 -1.1104 9.45322 10.2359 6.55277
65 1 -1.1104 6.45691 10.1892 6.54183
104 1 -1.1104 12.3422 18.6201 9.4832
332 2 2.2208 8.06198 20.1611 -0.412182
312 2 2.2208 13.6035 0.376425 8.04433
687 2 2.2208 5.32717 3.18193 13.6145
130 2 2.2208 2.34211 14.4869 5.25423
119 2 2.2208 5.13754 14.3954 2.23669
106 2 2.2208 5.40074 17.2842 5.38298
109 1 -1.1104 1.16588 18.6447 0.99706
114 1 -1.1104 1.26221 18.7342 3.68624
116 1 -1.1104 1.01946 15.8827 1.00897
120 2 2.2208 5.20514 19.9102 2.38657
121 1 -1.1104 0.936455 15.8895 3.79681
125 1 -1.1104 3.80017 18.4919 0.960333
127 2 2.2208 2.45994 17.2626 2.30915
129 1 -1.1104 4.07381 18.7108 3.85801
131 2 2.2208 2.48994 20.1132 5.2259
132 1 -1.1104 3.73931 15.9176 0.807454
134 1 -1.1104 3.90964 15.761 3.60829
117 1 -1.1104 1.24348 15.8969 6.59832
314 1 -1.1104 9.53236 16.005 9.52761
126 1 -1.1104 4.01713 18.7148 6.88154
138 1 -1.1104 6.55416 18.6513 1.01599
140 1 -1.1104 6.69706 15.7162 1.22965
118 1 -1.1104 6.77199 15.8202 6.76977
122 1 -1.1104 6.88121 15.9652 4.10832
139 1 -1.1104 6.6232 18.6891 3.77179
160 2 2.2208 8.04307 14.4112 5.20936
150 2 2.2208 10.8204 14.5157 2.47045
141 2 2.2208 10.8787 17.2364 5.12753
144 1 -1.1104 12.0788 18.6997 1.02274
147 1 -1.1104 12.2655 18.7868 3.87314
148 1 -1.1104 12.2799 15.7628 0.789881
151 2 2.2208 10.8643 20.0028 2.31952
152 1 -1.1104 12.3902 16.0265 3.62461
155 1 -1.1104 9.30457 18.6921 1.05028
157 2 2.2208 8.00915 17.3462 2.44122
159 1 -1.1104 9.44746 18.5885 3.84021
161 2 2.2208 8.12241 19.9616 5.24977
162 1 -1.1104 9.5186 16.007 1.06484
164 1 -1.1104 9.49397 15.7834 3.86556
296 1 -1.1104 6.59913 18.4929 12.3073
319 2 2.2208 5.18654 0.233397 -0.399704
8950 2 2.2208 -0.412512 -2.80911 2.37862
171 1 -1.1104 6.57899 -1.15775 6.75447
105 1 -1.1104 12.4263 15.8307 12.3008
168 1 -1.1104 6.58304 -3.77868 6.62405
170 1 -1.1104 0.665967 -0.954543 6.78253
166 1 -1.1104 1.26539 -3.88187 6.67959
172 1 -1.1104 3.94413 -3.92895 6.24022
175 2 2.2208 5.21573 0.252063 10.8733
176 1 -1.1104 1.0251 -4.06766 12.2025
180 1 -1.1104 1.02041 -3.92929 9.51744
184 1 -1.1104 0.881185 -1.1853 12.1324
186 2 2.2208 5.26272 -2.44365 8.03317
188 1 -1.1104 1.14562 -0.80739 9.59732
190 1 -1.1104 3.96201 -3.85272 12.0092
192 2 2.2208 2.30734 0.316957 7.89064
193 1 -1.1104 3.92546 -3.92214 9.39216
195 2 2.2208 2.36167 -2.5461 10.5888
197 1 -1.1104 3.61888 -1.1745 12.2653
198 1 -1.1104 4.03534 -1.07836 9.3067
189 1 -1.1104 6.75158 -1.1534 9.3146
185 1 -1.1104 6.66607 -1.13908 12.0184
182 1 -1.1104 6.62368 -4.07548 9.46171
289 1 -1.1104 6.65337 15.9558 9.49051
149 1 -1.1104 12.237 15.6222 6.51399
83 2 2.2208 -0.385924 11.5418 5.10074
9168 2 2.2208 -0.415632 0.344821 5.03798
145 1 -1.1104 12.4859 18.6703 6.80973
9157 2 2.2208 13.6598 5.78227 2.50584
9151 2 2.2208 13.6605 11.3996 2.30859
178 1 -1.1104 6.8364 -3.98408 12.1865
208 1 -1.1104 9.61932 -4.06458 6.69723
205 1 -1.1104 12.4164 -4.06246 6.60523
211 2 2.2208 10.8425 0.231195 10.7722
212 1 -1.1104 12.4922 -3.90491 12.356
214 1 -1.1104 12.1057 -3.80234 9.48795
216 1 -1.1104 12.2669 -0.994227 12.2651
217 2 2.2208 10.8919 -2.52985 7.97312
219 1 -1.1104 12.2076 -0.98141 9.39896
220 1 -1.1104 9.53296 -4.0421 12.259
222 2 2.2208 7.98313 0.383529 8.05168
223 1 -1.1104 9.21378 -4.11593 9.51176
225 2 2.2208 8.0439 -2.65463 10.755
227 1 -1.1104 9.45686 -1.2664 12.2456
228 1 -1.1104 9.51562 -1.12131 9.44957
334 2 2.2208 7.93192 -2.58426 -0.290972
9068 2 2.2208 -0.22719 17.3569 5.2279
136 2 2.2208 11.0142 19.9878 7.97514
237 1 -1.1104 6.68275 4.81712 6.74678
156 1 -1.1104 9.52 18.7569 6.5452
173 1 -1.1104 3.93954 1.66652 6.43612
238 1 -1.1104 3.90031 7.41358 6.76706
236 1 -1.1104 1.05212 4.5085 6.75234
177 1 -1.1104 1.09181 1.69109 12.2956
181 1 -1.1104 1.19077 2.09944 9.32889
187 2 2.2208 5.21523 3.10443 8.02172
191 1 -1.1104 3.77582 1.82811 12.0414
194 1 -1.1104 3.8497 1.69809 9.21454
196 2 2.2208 2.39551 3.22066 10.8804
240 2 2.2208 5.1935 5.97701 10.9472
242 1 -1.1104 0.884982 7.41882 12.4003
244 1 -1.1104 0.926861 7.41684 9.55348
246 1 -1.1104 0.927725 4.5104 12.2965
251 1 -1.1104 0.76875 4.55534 9.45909
255 1 -1.1104 3.74176 7.47384 12.4834
256 2 2.2208 2.4815 5.85979 7.98904
260 1 -1.1104 3.89164 4.5694 12.2818
262 1 -1.1104 3.78964 4.36655 9.24157
258 1 -1.1104 3.67571 7.34903 9.38233
245 1 -1.1104 6.8282 7.58222 9.29583
169 1 -1.1104 6.87118 1.95535 6.7595
243 1 -1.1104 6.6864 7.47477 12.0901
248 1 -1.1104 6.87956 4.66336 12.3711
183 1 -1.1104 6.5738 1.63355 9.45412
346 2 2.2208 7.99489 8.84032 -0.210866
269 1 -1.1104 9.41897 4.32084 6.74151
267 1 -1.1104 9.67624 7.42002 6.48951
163 1 -1.1104 9.56337 15.9522 6.61618
253 1 -1.1104 6.73407 4.72083 9.55575
179 1 -1.1104 6.82048 1.88059 12.1739
213 1 -1.1104 12.4916 1.7822 12.2267
215 1 -1.1104 12.3572 1.5412 9.4544
218 2 2.2208 10.7855 2.91674 8.01072
221 1 -1.1104 9.64186 1.66905 12.2167
224 1 -1.1104 9.38672 1.51262 9.48177
226 2 2.2208 8.11306 3.18154 10.9008
268 1 -1.1104 9.53318 4.74776 9.37265
271 1 -1.1104 9.62827 4.51634 12.4725
275 2 2.2208 8.36376 5.98019 7.97643
276 2 2.2208 10.9294 5.96956 10.933
280 1 -1.1104 12.1932 4.75268 12.4126
283 1 -1.1104 12.2703 4.23136 9.70091
285 1 -1.1104 9.39315 7.31532 12.1384
273 1 -1.1104 9.51104 7.68724 9.41442
278 1 -1.1104 12.2661 7.45632 12.0385
279 1 -1.1104 12.5221 7.1356 9.47151
700 2 2.2208 8.08581 0.260799 13.5466
697 2 2.2208 2.34673 17.2071 13.4299
229 2 2.2208 8.09656 17.4253 7.91198
316 2 2.2208 8.38786 20.2407 10.8874
78 1 -1.1104 3.71545 10.1972 6.7302
241 2 2.2208 5.21218 11.7651 10.8703
247 1 -1.1104 1.11372 10.2822 12.3698
250 2 2.2208 5.35806 8.88488 8.04635
252 1 -1.1104 0.970818 10.1584 9.42264
257 2 2.2208 2.49766 11.649 7.91444
259 2 2.2208 2.3498 8.80112 10.7201
261 1 -1.1104 3.83592 10.3381 12.1905
263 1 -1.1104 3.95959 10.2315 9.39777
287 1 -1.1104 3.7097 13.0671 12.0885
294 1 -1.1104 1.17864 13.1341 9.25272
299 1 -1.1104 0.984949 13.0097 12.2456
305 1 -1.1104 3.823 12.963 9.29614
335 2 2.2208 2.42134 -5.31036 13.42
143 1 -1.1104 12.5573 12.8581 6.56798
232 2 2.2208 10.8055 -5.27175 10.981
235 1 -1.1104 6.75151 7.45943 6.61511
297 1 -1.1104 6.54846 12.9349 12.2433
290 1 -1.1104 6.78088 13.3409 9.46154
249 1 -1.1104 6.65859 10.1815 12.0984
111 1 -1.1104 6.69186 12.8102 6.68635
254 1 -1.1104 6.85986 10.4675 9.40206
90 1 -1.1104 12.2049 10.1058 6.60883
230 1 -1.1104 9.47434 13.1904 9.55877
264 1 -1.1104 9.47581 10.2776 9.44613
270 1 -1.1104 9.43503 10.1664 12.1778
272 2 2.2208 7.95143 8.8525 10.7701
274 2 2.2208 8.14828 11.6884 8.11819
277 2 2.2208 10.7848 11.4865 10.9202
281 1 -1.1104 12.3241 10.3563 12.2984
282 2 2.2208 10.9644 8.58441 7.96953
284 1 -1.1104 12.1725 10.0992 9.28047
165 1 -1.1104 9.34573 13.0107 12.1313
49 1 -1.1104 12.2945 12.907 12.4029
53 1 -1.1104 12.4437 12.6646 9.4311
701 2 2.2208 5.16852 8.74204 13.6888
25 2 2.2208 10.9079 17.2818 10.9782
327 2 2.2208 13.6029 0.22931 2.17508
133 1 -1.1104 3.82839 15.907 6.4452
306 1 -1.1104 6.59304 15.6199 12.1895
302 1 -1.1104 1.21567 18.6843 6.59042
295 2 2.2208 5.40399 14.5555 7.97042
310 2 2.2208 2.30159 14.5509 10.7918
286 1 -1.1104 3.80559 18.7431 12.473
291 1 -1.1104 1.1692 18.648 9.66035
292 1 -1.1104 0.87958 15.742 9.4598
293 2 2.2208 5.33263 20.0845 8.10407
298 1 -1.1104 1.02345 18.8033 12.4357
300 2 2.2208 5.33634 17.2533 10.6727
301 1 -1.1104 3.8772 18.7251 9.73348
303 2 2.2208 2.37458 17.3195 8.12172
304 1 -1.1104 3.81482 16.0487 9.14152
307 1 -1.1104 0.918134 15.6908 12.3945
308 1 -1.1104 3.62676 15.8338 11.9752
309 2 2.2208 2.60813 20.2008 10.9533
288 1 -1.1104 6.72654 18.6961 9.51128
9167 2 2.2208 -0.343959 20.2444 8.14167
315 1 -1.1104 9.46861 15.8087 12.5007
204 2 2.2208 13.7076 2.91065 -0.364495
27 2 2.2208 -0.37303 14.4512 7.82102
324 2 2.2208 2.47271 -2.43295 -0.373386
9063 2 2.2208 -0.311531 11.726 11.0158
30 2 2.2208 13.5624 -2.52089 10.6894
313 2 2.2208 -0.301021 14.5409 2.34996
9064 2 2.2208 13.6515 14.5018 5.06537
9146 2 2.2208 13.6073 17.0547 8.22824
9145 2 2.2208 -0.291972 5.92916 5.22856
199 2 2.2208 13.5948 17.2414 2.20972
325 2 2.2208 2.34777 3.36755 -0.4382
9160 2 2.2208 -0.420667 8.66747 8.14355
81 2 2.2208 10.6193 5.88554 -0.301082
689 2 2.2208 2.42084 11.6404 13.5018
702 2 2.2208 8.01081 11.6033 13.5295
320 2 2.2208 7.89963 3.12883 -0.28813
685 2 2.2208 -0.317033 20.1048 13.6004
342 2 2.2208 2.50608 20.0398 -0.420457
347 2 2.2208 2.31944 8.73225 -0.325465
350 2 2.2208 5.29505 0.343746 16.3702
351 1 -1.1104 1.14258 -3.94384 17.8796
355 1 -1.1104 1.06373 -4.07524 15.2073
363 1 -1.1104 1.00257 -1.00402 18.3071
365 2 2.2208 5.28795 -2.45888 19.3677
367 1 -1.1104 1.1311 -1.19906 15.099
371 1 -1.1104 3.90858 -3.67482 17.8344
373 2 2.2208 2.37421 0.254326 19.4195
374 1 -1.1104 3.95113 -4.10207 14.9493
378 2 2.2208 2.49915 -2.66768 16.3185
380 1 -1.1104 3.98838 -1.02453 17.7657
381 1 -1.1104 3.93947 -1.25483 14.876
369 1 -1.1104 6.87337 -1.02252 15.1842
353 1 -1.1104 6.61065 -4.1014 17.899
390 2 2.2208 13.6734 20.1175 16.6252
9502 2 2.2208 -0.407479 -5.26958 16.512
382 1 -1.1104 3.89852 -1.2147 20.7806
368 1 -1.1104 0.939816 -1.30446 20.7002
613 2 2.2208 7.84569 -5.27506 24.9323
705 2 2.2208 2.63734 5.85057 13.9546
691 2 2.2208 11.0062 20.1676 13.9138
359 1 -1.1104 6.87519 -4.06066 15.2007
364 1 -1.1104 6.5226 -1.13319 17.8127
393 2 2.2208 10.9592 0.426849 16.4232
394 1 -1.1104 12.3954 -4.2967 18.0011
396 1 -1.1104 12.2814 -3.88512 15.2199
400 1 -1.1104 12.4304 -1.30546 17.9677
401 2 2.2208 10.9519 -2.55378 19.4204
403 1 -1.1104 12.2388 -1.12087 15.1501
405 1 -1.1104 9.49925 -3.78735 17.844
407 2 2.2208 8.09337 0.370721 19.388
408 1 -1.1104 9.52944 -3.83183 15.1991
412 2 2.2208 8.20804 -2.32735 16.6344
414 1 -1.1104 9.35549 -0.899615 18.078
415 1 -1.1104 9.55433 -0.95361 15.1308
397 1 -1.1104 11.9589 -4.20646 20.9017
336 2 2.2208 8.24956 -5.30629 13.7365
340 2 2.2208 2.62257 14.3382 27.6749
370 1 -1.1104 6.61213 -1.17589 20.5765
404 1 -1.1104 12.1594 -1.32311 20.951
416 1 -1.1104 9.41402 -1.22757 20.7229
409 1 -1.1104 9.37143 -3.80847 20.7704
612 2 2.2208 10.7031 -5.22912 22.3589
352 1 -1.1104 0.961064 1.63445 18.0303
357 1 -1.1104 0.985103 1.29025 15.103
366 2 2.2208 5.13531 2.98362 19.3243
372 1 -1.1104 3.88436 1.61653 17.7144
376 1 -1.1104 3.74675 1.63225 14.7386
379 2 2.2208 2.33207 2.9911 16.5063
426 2 2.2208 5.26909 5.82166 16.5901
434 1 -1.1104 0.864582 4.44122 17.7882
439 1 -1.1104 1.13816 4.37818 15.0482
448 2 2.2208 2.34217 6.02647 19.3584
450 1 -1.1104 4.05876 7.08712 15.2809
453 1 -1.1104 3.69895 4.23755 18.002
455 1 -1.1104 4.0692 4.42122 15.0298
447 1 -1.1104 3.73314 7.16103 18.065
428 1 -1.1104 0.843043 7.27596 18.0242
430 1 -1.1104 1.09888 7.10785 15.2104
354 1 -1.1104 6.74945 1.54448 18.0121
361 1 -1.1104 6.49583 1.80389 14.9726
431 1 -1.1104 0.972384 7.35449 20.6955
358 1 -1.1104 1.00916 1.51434 20.8119
440 1 -1.1104 1.07821 4.60162 20.6774
451 1 -1.1104 3.87031 7.48607 20.7038
362 1 -1.1104 6.52527 1.75136 20.7762
9508 2 2.2208 13.6186 0.237217 19.3086
432 1 -1.1104 6.86345 7.45235 15.0913
443 1 -1.1104 6.79129 4.73544 15.075
429 1 -1.1104 6.57033 7.27193 17.9472
436 1 -1.1104 6.39455 4.30503 17.929
395 1 -1.1104 12.2308 1.7019 18.0724
398 1 -1.1104 12.1195 1.85634 15.1925
402 2 2.2208 10.806 2.8914 19.4529
406 1 -1.1104 9.65301 1.67716 17.874
410 1 -1.1104 9.48452 1.86635 14.9157
413 2 2.2208 8.05118 3.08036 16.4364
462 2 2.2208 10.7076 5.80259 16.5261
464 1 -1.1104 12.0646 7.05726 17.8971
467 1 -1.1104 12.3488 4.30112 17.9675
470 1 -1.1104 12.2162 4.39235 15.1246
475 2 2.2208 7.95369 5.8413 19.5204
477 1 -1.1104 9.8768 7.40852 15.0814
480 1 -1.1104 9.14988 4.54016 17.9564
482 1 -1.1104 9.46445 4.53364 15.1192
465 1 -1.1104 12.4199 7.03118 14.9692
474 1 -1.1104 9.40964 7.28982 18.178
483 1 -1.1104 9.38967 4.47725 20.7174
444 1 -1.1104 6.57554 4.2097 20.8185
411 1 -1.1104 9.4953 1.67444 20.6906
389 2 2.2208 -0.400723 14.2535 19.1209
427 2 2.2208 5.176 11.5897 16.3272
435 1 -1.1104 0.827537 10.1263 17.9378
438 2 2.2208 5.40305 8.81656 19.2331
441 1 -1.1104 1.04875 10.2162 15.0695
449 2 2.2208 2.36605 11.4985 19.2042
452 2 2.2208 2.52592 8.53817 16.5199
454 1 -1.1104 3.85247 9.80718 17.8221
457 1 -1.1104 3.89422 10.0089 15.0552
490 1 -1.1104 1.26861 12.8195 17.7486
494 1 -1.1104 0.951629 12.9908 14.9407
510 1 -1.1104 3.87908 12.8635 17.7176
513 1 -1.1104 3.87978 12.874 14.8161
492 1 -1.1104 6.71765 13.1175 17.8335
514 1 -1.1104 4.00686 12.7573 20.4984
445 1 -1.1104 6.76265 10.2782 14.9005
584 2 2.2208 2.44865 -5.34154 25.1094
446 1 -1.1104 6.79325 10.0525 20.6236
442 1 -1.1104 0.864803 10.1669 20.8162
201 2 2.2208 5.16761 5.98672 27.5748
583 2 2.2208 5.10597 -5.23233 22.1223
437 1 -1.1104 6.51691 10.2977 17.8043
498 1 -1.1104 6.84244 13.0532 15.1301
463 2 2.2208 10.9779 11.5892 16.3513
468 1 -1.1104 12.124 9.99405 17.8278
469 2 2.2208 10.7978 8.76275 19.2778
472 1 -1.1104 12.3736 10.0248 15.0902
476 2 2.2208 8.00938 11.633 19.208
479 2 2.2208 8.04709 8.92033 16.3859
481 1 -1.1104 9.27601 10.0813 17.8129
484 1 -1.1104 9.64862 10.3352 14.9321
526 1 -1.1104 12.1456 12.8071 17.8224
528 1 -1.1104 12.2249 13.0447 15.1456
537 1 -1.1104 9.32215 12.9435 17.7169
540 1 -1.1104 9.53039 13.194 15.0212
541 1 -1.1104 9.60432 13.1107 20.7111
473 1 -1.1104 12.1118 10.0536 20.7918
529 1 -1.1104 12.3621 12.9358 20.5421
647 2 2.2208 13.4842 8.51001 16.4668
419 2 2.2208 8.05469 -5.31713 19.3901
459 2 2.2208 -0.382934 8.63537 25.1473
504 2 2.2208 5.19591 14.4847 19.1356
517 2 2.2208 2.32277 14.4229 16.293
489 2 2.2208 5.30988 17.5116 16.2961
491 1 -1.1104 1.04669 18.4633 17.9922
496 1 -1.1104 1.24323 18.5531 15.2314
502 1 -1.1104 0.957608 15.5998 17.7961
505 2 2.2208 5.09162 19.9397 19.3438
506 1 -1.1104 0.852082 15.7808 15.0331
511 1 -1.1104 3.64849 18.5533 17.7635
512 2 2.2208 2.38363 17.1522 19.2073
515 1 -1.1104 3.87967 18.781 15.0462
518 2 2.2208 2.49469 20.1348 16.3485
519 1 -1.1104 3.92074 15.8356 17.6724
520 1 -1.1104 3.66063 15.7908 14.8808
521 1 -1.1104 3.74665 15.5938 20.5493
516 1 -1.1104 3.84889 18.3712 20.5347
493 1 -1.1104 6.80442 18.9031 17.9805
384 2 2.2208 5.38882 -5.29845 16.3358
675 2 2.2208 -0.364789 14.325 24.9581
9215 2 2.2208 -0.173732 20.1488 24.8753
582 2 2.2208 13.6461 3.02002 22.2833
684 2 2.2208 -0.265872 8.82311 13.7731
500 1 -1.1104 6.79058 18.8448 15.1376
508 1 -1.1104 6.53322 16.0357 15.0605
643 2 2.2208 10.8937 17.1979 22.2003
503 1 -1.1104 6.54662 15.9872 17.9321
533 2 2.2208 10.9656 14.5183 19.3371
544 2 2.2208 8.01466 14.4488 16.4825
525 2 2.2208 10.9488 17.2901 16.559
527 1 -1.1104 12.2289 18.4047 18.2903
530 1 -1.1104 12.4233 18.7444 15.1948
532 1 -1.1104 12.2266 15.6919 17.907
534 2 2.2208 11.0243 19.9273 19.6205
535 1 -1.1104 12.3906 16.243 15.0991
538 1 -1.1104 9.36721 18.6909 18.0967
539 2 2.2208 8.1056 17.2282 19.2899
542 1 -1.1104 9.66172 18.6958 15.2388
545 2 2.2208 8.13695 20.159 16.637
546 1 -1.1104 9.54819 15.9696 18.0465
547 1 -1.1104 9.40006 15.9214 15.2674
614 1 -1.1104 9.53998 15.8242 23.6389
536 1 -1.1104 12.2496 15.8967 20.7351
543 1 -1.1104 9.54762 18.7787 20.9068
509 1 -1.1104 6.51448 15.6177 20.7929
9401 2 2.2208 -0.300416 20.0197 19.276
341 2 2.2208 5.26762 17.3613 27.7493
356 1 -1.1104 0.828223 -3.96548 21.023
339 2 2.2208 8.1471 14.3963 27.7734
693 2 2.2208 8.13638 17.0214 13.7965
375 1 -1.1104 3.78707 -4.04926 20.6736
553 2 2.2208 5.25154 0.256504 22.1258
554 1 -1.1104 1.20084 -4.00497 23.7182
558 1 -1.1104 0.865941 -3.79168 26.4248
562 1 -1.1104 0.914465 -1.42467 23.6744
564 2 2.2208 5.0809 -2.4909 25.0259
566 1 -1.1104 0.977992 -1.06018 26.4744
568 1 -1.1104 3.67109 -3.98289 23.3891
570 2 2.2208 2.28023 0.529718 25.0587
571 1 -1.1104 3.75961 -3.9562 26.4992
573 2 2.2208 2.5477 -2.48588 22.2337
575 1 -1.1104 3.9129 -0.957474 23.591
576 1 -1.1104 3.66414 -1.20094 26.2553
567 1 -1.1104 6.53343 -1.19511 26.5039
556 1 -1.1104 6.39794 -3.82934 23.5623
563 1 -1.1104 6.51257 -1.21779 23.3289
360 1 -1.1104 6.68605 -3.83972 20.7106
560 1 -1.1104 6.49681 -3.91611 26.3864
548 1 -1.1104 9.55667 16.0484 20.8415
387 2 2.2208 -0.317704 11.5673 16.4339
9511 2 2.2208 -0.261435 3.00976 13.8373
586 2 2.2208 13.5569 6.01823 19.3615
610 2 2.2208 -0.270064 17.1569 22.0566
9501 2 2.2208 13.6463 8.72863 22.1151
589 2 2.2208 10.8247 0.217099 22.1337
590 1 -1.1104 12.2826 -3.78057 23.6316
592 1 -1.1104 12.5169 -4.16108 26.5371
594 1 -1.1104 12.1114 -0.943363 23.7252
595 2 2.2208 10.8223 -2.5162 25.064
597 1 -1.1104 12.1521 -1.25429 26.5319
598 1 -1.1104 9.24714 -3.80669 23.4795
600 2 2.2208 7.92588 0.176662 25.0177
601 1 -1.1104 9.3394 -3.83808 26.2533
603 2 2.2208 7.91856 -2.40249 22.1067
605 1 -1.1104 9.36386 -1.1953 23.5874
606 1 -1.1104 9.21093 -1.05718 26.3734
344 2 2.2208 10.8664 17.2741 27.716
383 2 2.2208 13.633 14.5244 16.383
456 1 -1.1104 3.77596 4.45438 20.903
377 1 -1.1104 3.57623 1.67375 20.7776
555 1 -1.1104 0.679241 1.4688 23.5686
559 1 -1.1104 0.92647 2.02241 26.5883
565 2 2.2208 5.27176 3.18131 25.0593
569 1 -1.1104 3.73214 1.72665 23.7558
572 1 -1.1104 3.76064 1.717 26.6084
574 2 2.2208 2.29898 2.94882 22.2431
618 2 2.2208 5.20758 5.82702 22.1614
620 1 -1.1104 0.985077 7.07158 23.4646
622 1 -1.1104 0.934954 7.31036 26.28
624 1 -1.1104 0.701496 4.29801 23.4207
629 1 -1.1104 0.807021 4.5584 26.3177
634 2 2.2208 2.33027 5.94341 24.9827
638 1 -1.1104 3.78101 4.56315 23.7256
640 1 -1.1104 3.70269 4.5933 26.502
636 1 -1.1104 3.73829 7.42485 26.402
633 1 -1.1104 3.93814 7.22213 23.6807
561 1 -1.1104 6.49756 1.74616 26.4373
557 1 -1.1104 6.57652 1.78883 23.7698
621 1 -1.1104 6.70974 7.44869 23.6627
608 2 2.2208 8.17834 14.3219 22.1359
646 1 -1.1104 6.78143 15.5956 26.5707
466 1 -1.1104 12.2362 7.31618 20.8641
478 1 -1.1104 9.53372 7.18111 20.9795
433 1 -1.1104 6.69033 7.03496 20.7107
626 1 -1.1104 6.66722 4.62707 23.5793
471 1 -1.1104 12.2127 4.36528 20.7382
399 1 -1.1104 12.1589 1.44248 20.6865
623 1 -1.1104 6.44741 7.2542 26.3586
631 1 -1.1104 6.46303 4.49028 26.6165
591 1 -1.1104 12.2549 1.75373 23.6195
593 1 -1.1104 12.3463 1.51996 26.4855
596 2 2.2208 10.9259 3.07396 25.1535
599 1 -1.1104 9.38312 1.55255 23.5246
602 1 -1.1104 9.4761 1.74812 26.7385
604 2 2.2208 8.03358 2.98018 22.2141
650 1 -1.1104 9.14793 4.61669 26.3468
652 1 -1.1104 9.47043 4.41381 23.6668
656 2 2.2208 8.00254 6.07609 24.9129
657 2 2.2208 11.0245 5.88254 22.2645
659 1 -1.1104 12.3605 7.11357 23.6024
661 1 -1.1104 12.2797 4.55944 23.7192
664 1 -1.1104 11.9627 4.8947 26.2491
660 1 -1.1104 12.4869 7.74166 26.2634
654 1 -1.1104 9.40519 7.60948 26.4803
666 1 -1.1104 9.58908 7.42428 23.6454
524 1 -1.1104 12.3138 15.8335 23.5505
549 2 2.2208 11.046 14.4961 25.0464
9509 2 2.2208 -0.291237 17.2145 16.4661
495 1 -1.1104 0.99226 12.8432 20.7607
343 2 2.2208 5.41154 11.5044 27.7058
458 1 -1.1104 3.91495 10.1351 20.6526
619 2 2.2208 5.34868 11.4726 21.8812
625 1 -1.1104 1.02408 10.1282 23.5674
628 2 2.2208 5.18731 8.78487 24.9851
630 1 -1.1104 1.13299 10.0996 26.1889
635 2 2.2208 2.46745 11.5278 24.9285
637 2 2.2208 2.43099 8.84821 22.1924
639 1 -1.1104 3.78259 10.2488 23.4877
641 1 -1.1104 3.95631 10.1616 26.3026
392 1 -1.1104 1.14899 12.8614 23.6688
486 1 -1.1104 1.29855 13.0245 26.4592
669 1 -1.1104 3.91986 12.9352 26.166
670 1 -1.1104 4.00593 12.9298 23.2529
345 2 2.2208 -0.100466 11.5845 27.6961
609 2 2.2208 8.03038 20.0451 22.0767
499 1 -1.1104 6.80051 13.0067 20.6869
672 1 -1.1104 6.68486 12.7232 26.1552
485 1 -1.1104 9.37374 10.2404 20.6705
632 1 -1.1104 6.70647 10.1792 26.35
424 1 -1.1104 6.75164 12.926 23.3322
627 1 -1.1104 6.44308 9.97347 23.4116
617 1 -1.1104 12.3576 13.0933 23.4694
552 1 -1.1104 9.52569 12.7508 23.6849
649 1 -1.1104 9.22056 10.3066 26.3436
651 1 -1.1104 9.32319 10.2329 23.3775
653 2 2.2208 8.13787 8.72864 22.0507
655 2 2.2208 7.99223 11.5381 24.8324
658 2 2.2208 10.8786 11.6121 22.1948
662 1 -1.1104 12.168 10.03 23.4733
663 2 2.2208 10.6675 8.8216 25.0145
665 1 -1.1104 11.9373 10.3949 25.9761
585 1 -1.1104 9.63531 13.1805 26.5089
522 1 -1.1104 12.3732 13.0665 26.1578
497 1 -1.1104 1.09613 18.598 20.9574
507 1 -1.1104 0.879761 15.6894 20.4911
501 1 -1.1104 6.64525 18.4663 20.546
579 1 -1.1104 6.76058 18.7651 26.6106
461 1 -1.1104 6.58862 18.5177 23.5744
425 2 2.2208 5.15228 14.4244 24.6808
386 2 2.2208 2.33348 16.9668 24.7903
388 1 -1.1104 3.91933 18.6602 26.5684
391 2 2.2208 5.3574 17.1604 22.1494
423 1 -1.1104 1.09748 18.8044 23.5088
460 2 2.2208 5.19384 19.9376 25.0813
580 1 -1.1104 1.03203 15.8578 26.1648
588 1 -1.1104 1.32337 18.4589 26.3587
644 2 2.2208 2.44657 14.2046 21.9551
645 2 2.2208 2.4759 20.124 22.3216
648 1 -1.1104 3.6861 15.7766 23.2403
667 1 -1.1104 0.971815 15.7929 23.4777
671 1 -1.1104 3.73985 15.9 26.1482
673 1 -1.1104 3.98105 18.4072 23.4896
611 2 2.2208 13.6026 -2.6446 16.553
668 1 -1.1104 6.72167 15.7535 23.6376
531 1 -1.1104 12.6947 18.5044 21.0932
523 1 -1.1104 12.271 18.8095 26.5249
578 2 2.2208 8.13767 17.1409 24.9821
615 1 -1.1104 9.60234 15.8433 26.3267
577 1 -1.1104 9.53739 18.6797 23.583
551 1 -1.1104 12.4491 15.8425 26.3362
607 1 -1.1104 9.3273 18.659 26.4091
550 2 2.2208 10.9483 20.028 25.0187
488 1 -1.1104 12.3949 18.6607 23.8198
417 2 2.2208 -0.381803 6.11088 16.5885
704 2 2.2208 10.9145 3.26762 13.731
695 2 2.2208 5.31761 14.3186 13.7371
703 2 2.2208 10.8851 8.80717 13.7073
349 2 2.2208 -0.137228 17.2095 27.754
682 2 2.2208 8.25327 5.88176 13.8102
420 2 2.2208 10.9314 -2.43434 13.7457
329 2 2.2208 10.8412 0.0606774 27.7741
686 2 2.2208 5.36747 -2.60319 13.7402
706 2 2.2208 5.25933 22.9033 5.15064
708 1 -1.1104 0.99329 24.3369 0.989143
709 1 -1.1104 1.09092 24.3175 3.72804
710 1 -1.1104 0.971217 21.1191 0.945074
712 2 2.2208 5.30638 25.8287 2.38999
713 1 -1.1104 1.14081 21.5227 3.97292
715 1 -1.1104 3.89769 24.2152 1.09252
716 2 2.2208 2.46413 23.0081 2.46492
718 1 -1.1104 3.69776 24.3761 3.91776
719 2 2.2208 2.61209 25.8324 5.32134
720 1 -1.1104 3.63108 21.444 0.982576
722 1 -1.1104 4.10845 21.5651 3.71878
714 1 -1.1104 1.1118 27.217 3.83261
723 1 -1.1104 3.95915 27.1697 3.95134
721 1 -1.1104 4.01973 27.0711 0.981448
730 1 -1.1104 6.84673 27.1997 0.985025
996 2 2.2208 5.12792 45.4467 -0.287993
727 1 -1.1104 6.34659 24.404 0.771536
711 1 -1.1104 1.24337 27.3689 0.932595
853 1 -1.1104 3.82106 24.3904 6.74348
854 1 -1.1104 3.85844 21.5193 6.52296
1388 1 -1.1104 1.09105 46.5633 4.16614
9854 2 2.2208 -0.233792 34.0736 10.9452
728 1 -1.1104 6.82523 24.4502 3.62947
729 1 -1.1104 6.75142 21.5439 1.19984
731 1 -1.1104 6.87842 21.6062 3.97573
733 2 2.2208 11.034 22.8492 5.26635
735 1 -1.1104 12.4677 24.032 1.11917
736 1 -1.1104 12.4392 24.4327 3.81076
737 1 -1.1104 12.5021 21.5108 0.866004
739 2 2.2208 10.8368 25.6966 2.45135
740 1 -1.1104 12.4374 21.4012 3.68487
742 1 -1.1104 9.23008 24.3766 1.07143
743 2 2.2208 8.18811 22.9204 2.47852
745 1 -1.1104 9.69453 24.3323 3.81169
746 2 2.2208 8.18612 25.7057 5.27016
747 1 -1.1104 9.6832 21.6388 1.05356
749 1 -1.1104 9.74955 21.6055 3.648
750 1 -1.1104 9.56066 27.1197 3.82449
738 1 -1.1104 12.4627 26.9053 1.05018
741 1 -1.1104 12.4786 27.1615 3.85026
732 1 -1.1104 6.6796 27.1466 3.90471
748 1 -1.1104 9.63237 27.1717 0.904954
1015 2 2.2208 13.6611 34.1795 8.17556
1029 2 2.2208 13.6476 42.5147 10.7468
9861 2 2.2208 -0.384442 36.8868 7.93541
707 2 2.2208 5.38807 28.5522 5.27524
717 2 2.2208 2.47168 28.5237 2.47092
755 1 -1.1104 1.05811 30.1332 1.11676
758 1 -1.1104 1.00406 29.9093 4.04852
761 1 -1.1104 1.15559 32.7698 0.931508
762 2 2.2208 5.26648 31.074 2.36994
764 1 -1.1104 1.06263 32.6342 3.91536
766 1 -1.1104 3.80203 29.7688 1.04811
769 1 -1.1104 3.9118 29.8737 3.88875
771 2 2.2208 2.57097 31.3691 5.35743
773 1 -1.1104 3.68575 32.5886 1.05036
774 1 -1.1104 3.9437 32.5728 3.69787
779 1 -1.1104 6.63828 29.8322 3.85179
1028 2 2.2208 13.6769 25.6215 10.9639
9837 2 2.2208 -0.293416 31.257 2.39332
9849 2 2.2208 -0.288332 28.6719 5.35048
1032 2 2.2208 10.8648 42.5737 13.4699
752 1 -1.1104 9.50118 46.5641 6.62642
780 1 -1.1104 6.76709 32.9178 0.858104
778 1 -1.1104 6.71442 29.8879 1.08064
765 1 -1.1104 6.98176 32.6415 3.80808
734 2 2.2208 11.1077 28.5488 4.98677
744 2 2.2208 8.16131 28.2935 2.48697
782 1 -1.1104 12.2064 29.6633 1.20052
784 1 -1.1104 12.4371 29.8932 3.64648
786 1 -1.1104 12.1947 32.5234 0.917121
787 2 2.2208 10.9202 31.2382 2.42835
789 1 -1.1104 12.3711 32.7787 3.75048
790 1 -1.1104 9.44875 29.7973 1.22705
793 1 -1.1104 9.45626 29.865 3.74984
795 2 2.2208 8.14907 31.1995 5.2017
797 1 -1.1104 9.58429 32.4293 0.691073
798 1 -1.1104 9.82536 32.8571 3.58127
1390 1 -1.1104 6.42866 46.5644 3.95644
9839 2 2.2208 -0.313317 22.8565 5.04123
937 2 2.2208 11.0124 42.4732 7.83158
9781 2 2.2208 -0.358625 33.9068 5.32387
754 2 2.2208 5.33642 34.0236 5.07293
756 1 -1.1104 1.00148 35.5678 0.727931
759 1 -1.1104 1.03891 35.3015 3.60043
763 2 2.2208 5.42738 36.7847 2.31209
767 1 -1.1104 3.84038 35.4751 0.667983
768 2 2.2208 2.46008 33.9767 2.24019
770 1 -1.1104 3.69981 35.2482 3.46223
772 2 2.2208 2.40549 36.724 5.1184
800 2 2.2208 5.16044 39.5425 5.20309
806 1 -1.1104 1.10141 38.184 0.786046
811 1 -1.1104 1.28187 38.173 3.64644
816 2 2.2208 2.55155 39.5251 2.33935
820 1 -1.1104 3.94577 38.1869 1.02644
822 1 -1.1104 4.02656 38.1638 3.70884
1018 2 2.2208 8.07903 31.2871 -0.360866
9843 2 2.2208 -0.156341 36.7486 2.4067
978 1 -1.1104 0.728762 38.2712 6.39424
911 1 -1.1104 4.03556 35.408 6.40495