ITEM: TIMESTEP
80000
ITEM: NUMBER OF ATOMS
17640
ITEM: BOX BOUNDS pp pp pp
-4.3043085383611085e-01 2.7770430853837382e+01
-5.3334128304457300e+00 3.3341341283043613e+02
-4.4558473992604120e-01 2.7785584739926183e+01
ITEM: ATOMS id type q x y z
1 2 2.2208 5.18674 0.349051 5.11175
2 1 -1.1104 0.78372 -4.2844 1.22898
6 1 -1.1104 0.680948 -3.79376 3.88901
10 1 -1.1104 1.02215 -1.13329 0.99018
12 2 2.2208 5.17365 -2.57538 2.55317
14 1 -1.1104 0.869155 -0.944575 3.69152
16 1 -1.1104 3.75068 -4.00729 0.95205
18 2 2.2208 2.33411 0.243202 2.3811
19 1 -1.1104 3.69512 -4.02774 3.80425
21 2 2.2208 2.15942 -2.46835 5.22574
23 1 -1.1104 3.8113 -1.03597 0.891053
24 1 -1.1104 3.67851 -1.13678 3.76752
8 1 -1.1104 6.61287 -3.82154 3.71031
166 1 -1.1104 0.903947 -3.93425 6.867
11 1 -1.1104 6.72743 -1.30699 1.02499
174 1 -1.1104 3.76031 -1.10472 6.63329
170 1 -1.1104 0.952279 -1.16537 6.59409
4 1 -1.1104 6.39013 -4.32515 1.06099
168 1 -1.1104 6.49016 -3.8368 6.54367
691 2 2.2208 10.6011 19.9706 13.6226
316 2 2.2208 7.91127 19.8694 10.8049
328 2 2.2208 13.5608 8.59078 5.10732
9068 2 2.2208 -0.551666 17.2909 5.08628
15 1 -1.1104 6.59585 -0.913985 3.85269
31 2 2.2208 10.8628 0.257778 5.22629
32 1 -1.1104 12.1633 -3.89963 0.857714
34 1 -1.1104 12.2322 -4.09227 3.66707
36 1 -1.1104 12.2584 -1.15917 0.916355
37 2 2.2208 10.6407 -2.49949 2.53076
39 1 -1.1104 12.2724 -1.10742 3.77089
40 1 -1.1104 9.40322 -3.88516 1.14415
42 2 2.2208 8.05079 0.295911 2.23538
43 1 -1.1104 9.37045 -3.86455 3.8232
45 2 2.2208 7.94352 -2.46161 5.44767
47 1 -1.1104 9.51223 -1.07765 1.07515
48 1 -1.1104 9.42926 -0.910147 3.99009
205 1 -1.1104 12.2336 -3.6703 6.56806
208 1 -1.1104 9.34342 -3.71279 6.61607
210 1 -1.1104 9.38963 -1.04187 6.73154
204 2 2.2208 13.591 3.18532 -0.240244
344 2 2.2208 10.8275 17.2848 -0.373663
3 1 -1.1104 0.812734 1.67499 0.798793
7 1 -1.1104 1.00048 1.84285 3.53582
13 2 2.2208 5.11049 3.16961 2.19437
17 1 -1.1104 3.83803 1.79592 0.954644
20 1 -1.1104 3.76051 1.96176 3.84231
22 2 2.2208 2.28093 3.11947 5.24562
54 2 2.2208 4.89187 5.97973 5.19285
56 1 -1.1104 0.933386 7.31082 0.80677
60 1 -1.1104 0.851157 4.58598 0.966623
67 1 -1.1104 0.888894 4.51961 3.69643
72 2 2.2208 2.35313 6.00874 2.25605
76 1 -1.1104 3.79981 4.66443 0.778443
79 1 -1.1104 3.58981 4.64972 3.74965
71 1 -1.1104 3.7258 7.46391 0.86638
58 1 -1.1104 0.553308 7.3413 3.7596
74 1 -1.1104 3.68403 7.41846 3.61376
9 1 -1.1104 6.62464 1.73699 3.44191
169 1 -1.1104 6.40818 1.78459 6.51242
238 1 -1.1104 3.49364 7.27534 6.61861
59 1 -1.1104 6.37178 7.39277 3.87176
236 1 -1.1104 0.750226 4.48798 6.67383
63 1 -1.1104 6.47974 4.28783 0.741678
57 1 -1.1104 6.66158 7.40796 0.685787
69 1 -1.1104 6.35561 4.55308 3.54612
5 1 -1.1104 6.74417 1.54271 0.696917
33 1 -1.1104 12.194 1.78701 1.03473
35 1 -1.1104 12.2316 1.55153 3.86579
38 2 2.2208 10.7597 3.14542 2.45259
41 1 -1.1104 9.38521 1.57563 0.837598
44 1 -1.1104 9.47435 1.78766 3.8081
46 2 2.2208 7.77921 3.06739 5.18621
84 2 2.2208 10.482 5.962 4.88924
86 1 -1.1104 12.1882 7.58776 0.844849
88 1 -1.1104 12.2444 4.78944 0.856592
92 1 -1.1104 12.0869 4.52485 3.73899
94 1 -1.1104 9.39598 7.51623 0.849727
95 2 2.2208 7.71082 5.80268 2.10769
97 1 -1.1104 8.97506 7.32155 3.64956
99 1 -1.1104 9.55055 4.59784 0.938766
102 1 -1.1104 9.03408 4.40353 3.43184
87 1 -1.1104 12.0671 7.40513 3.77872
206 1 -1.1104 12.271 1.87427 6.75516
237 1 -1.1104 6.58424 4.51386 6.56642
232 2 2.2208 10.9831 -5.19827 10.7342
267 1 -1.1104 9.37708 7.31261 6.30975
55 2 2.2208 5.04357 11.6929 5.27501
61 1 -1.1104 0.709792 10.4313 1.01008
66 2 2.2208 5.13883 8.80747 2.17185
68 1 -1.1104 0.969862 10.0608 3.65271
73 2 2.2208 2.28317 11.7252 2.29249
75 2 2.2208 2.20078 8.77441 5.00898
77 1 -1.1104 3.54984 10.1081 1.10027
80 1 -1.1104 3.75257 10.1118 3.68369
107 1 -1.1104 0.875004 13.1208 0.839427
113 1 -1.1104 0.964379 13.1272 3.77755
123 1 -1.1104 3.67672 13.2349 1.09763
128 1 -1.1104 3.74187 13.0776 3.73636
62 1 -1.1104 0.850567 10.0613 6.59713
65 1 -1.1104 6.46161 10.2511 6.63219
64 1 -1.1104 6.55109 10.182 0.657401
70 1 -1.1104 6.45446 10.2761 3.76123
108 1 -1.1104 0.63435 12.9665 6.77235
690 2 2.2208 10.6628 14.2448 13.5699
9146 2 2.2208 13.534 17.232 7.99543
115 1 -1.1104 6.45764 13.0547 3.53781
110 1 -1.1104 6.49685 13.0406 0.900886
203 2 2.2208 5.16701 -5.28786 10.8117
85 2 2.2208 10.8502 11.7262 5.08955
89 1 -1.1104 12.2275 10.4043 0.767059
91 2 2.2208 10.7787 8.89109 2.25631
93 1 -1.1104 12.2306 10.3352 3.76815
96 2 2.2208 7.90752 11.6127 2.30619
98 2 2.2208 7.78043 8.70563 5.12903
100 1 -1.1104 9.22551 10.1705 0.909807
103 1 -1.1104 9.27268 10.4628 3.70694
142 1 -1.1104 12.0218 13.2432 0.998286
146 1 -1.1104 12.3142 13.0364 3.78958
153 1 -1.1104 9.21851 12.9742 0.936726
158 1 -1.1104 9.35596 13.0883 3.76071
90 1 -1.1104 11.952 10.3234 6.61823
101 1 -1.1104 9.47957 10.23 6.54919
9153 2 2.2208 13.5163 -5.13465 7.91222
703 2 2.2208 10.779 8.65327 13.5958
130 2 2.2208 2.33486 14.5516 5.2101
119 2 2.2208 5.07265 14.5782 2.38288
106 2 2.2208 5.12439 17.1796 5.14208
109 1 -1.1104 0.758233 18.8064 1.07608
114 1 -1.1104 0.930855 18.7173 3.68173
116 1 -1.1104 0.763277 15.7641 1.10349
120 2 2.2208 5.16706 20.1644 2.37357
121 1 -1.1104 0.897333 15.5602 3.84223
125 1 -1.1104 3.75964 18.6101 1.09964
127 2 2.2208 2.37585 17.241 2.42842
129 1 -1.1104 3.72584 18.6229 3.79871
131 2 2.2208 2.35592 20.1898 5.21561
132 1 -1.1104 3.66648 15.954 0.904288
134 1 -1.1104 3.64637 15.8281 3.91507
202 2 2.2208 2.32045 -5.30149 8.07918
139 1 -1.1104 6.54151 18.7441 3.82051
140 1 -1.1104 6.40475 15.8697 1.04243
122 1 -1.1104 6.53517 15.9182 3.706
302 1 -1.1104 0.999246 18.5758 6.42216
50 1 -1.1104 12.3938 18.9497 12.2878
695 2 2.2208 5.07273 14.3556 13.5977
317 2 2.2208 13.5601 19.975 5.20048
138 1 -1.1104 6.55979 18.605 0.865513
112 1 -1.1104 6.39949 18.8375 6.42862
160 2 2.2208 7.84662 14.2255 5.06039
150 2 2.2208 10.7502 14.5185 2.27715
141 2 2.2208 10.6039 17.3358 5.23079
144 1 -1.1104 11.9383 18.6058 1.19758
147 1 -1.1104 11.998 18.7879 3.84282
148 1 -1.1104 12.4185 16.0198 0.976152
151 2 2.2208 10.788 20.2297 2.40688
152 1 -1.1104 12.255 15.8488 3.70416
155 1 -1.1104 9.37083 18.5976 1.15732
157 2 2.2208 7.9733 17.3031 2.30589
159 1 -1.1104 9.32908 18.6871 3.95864
161 2 2.2208 7.954 19.9369 5.13269
162 1 -1.1104 9.23822 15.8869 0.717915
164 1 -1.1104 9.37268 16.0198 3.70891
145 1 -1.1104 12.386 18.7455 6.62767
163 1 -1.1104 9.54705 16.0058 6.65254
329 2 2.2208 10.7473 0.312706 -0.332958
149 1 -1.1104 12.2208 15.7688 6.67481
200 1 -1.1104 9.36832 18.6788 12.3313
172 1 -1.1104 3.56526 -3.87134 6.72581
171 1 -1.1104 6.51439 -1.04506 6.57678
105 1 -1.1104 12.2613 16.0335 12.2513
52 2 2.2208 10.7085 -5.11148 5.16451
312 2 2.2208 13.5424 0.263362 8.19516
175 2 2.2208 5.25654 0.498841 10.8787
176 1 -1.1104 0.957211 -3.79978 12.3741
180 1 -1.1104 1.21328 -3.97428 9.64977
184 1 -1.1104 0.850778 -1.04424 11.9488
186 2 2.2208 5.17286 -2.43446 8.17077
188 1 -1.1104 0.870675 -0.83235 9.10985
190 1 -1.1104 3.86952 -3.82061 12.1107
192 2 2.2208 2.31751 0.48997 7.91249
193 1 -1.1104 3.91486 -3.74597 9.42102
195 2 2.2208 2.4507 -2.30489 10.8293
197 1 -1.1104 3.82927 -1.00255 12.342
198 1 -1.1104 3.85866 -0.782453 9.63502
185 1 -1.1104 6.65826 -1.16913 12.2141
189 1 -1.1104 6.61403 -1.03119 9.62991
178 1 -1.1104 6.72713 -3.94759 12.2554
231 2 2.2208 7.89698 -5.21931 8.15105
9160 2 2.2208 -0.312968 8.67355 7.91296
331 2 2.2208 13.41 11.5919 8.0504
696 2 2.2208 5.11035 19.8609 13.5198
9064 2 2.2208 13.7031 14.4234 5.29496
182 1 -1.1104 6.65163 -3.82094 9.28489
207 1 -1.1104 12.1226 -0.840965 6.62801
211 2 2.2208 10.7781 0.365977 10.796
212 1 -1.1104 12.1207 -3.80678 12.3021
214 1 -1.1104 12.0131 -3.84561 9.36205
216 1 -1.1104 12.0412 -0.916782 12.3226
217 2 2.2208 10.7342 -2.50112 8.0904
219 1 -1.1104 11.9583 -0.986855 9.51794
220 1 -1.1104 9.4955 -3.80689 12.5068
222 2 2.2208 8.07997 0.203052 8.09738
223 1 -1.1104 9.35385 -3.94884 9.66126
225 2 2.2208 8.04089 -2.53777 11.108
227 1 -1.1104 9.29878 -1.02642 12.3234
228 1 -1.1104 9.19529 -1.2282 9.38632
25 2 2.2208 10.7908 17.1848 10.9048
137 1 -1.1104 12.2527 15.9488 9.51931
698 2 2.2208 2.28401 0.321214 13.6321
233 1 -1.1104 9.02803 18.3481 9.64367
173 1 -1.1104 3.67222 1.83318 6.58138
239 1 -1.1104 3.64083 4.42282 6.57689
234 1 -1.1104 1.03121 7.17889 6.39102
167 1 -1.1104 0.887863 1.64748 6.3404
177 1 -1.1104 0.524325 1.80435 12.2023
181 1 -1.1104 1.11616 1.90227 9.17656
187 2 2.2208 5.11078 3.23605 7.89433
191 1 -1.1104 3.70287 1.71798 12.3192
194 1 -1.1104 3.97989 1.73052 9.4281
196 2 2.2208 2.27006 3.10099 10.8698
240 2 2.2208 4.9949 5.97253 10.7235
242 1 -1.1104 0.935508 7.23469 12.0203
244 1 -1.1104 1.13007 7.52962 9.32857
246 1 -1.1104 0.91349 4.43603 12.2675
251 1 -1.1104 1.01551 4.50444 9.35771
255 1 -1.1104 3.66904 7.36362 12.3513
256 2 2.2208 2.29612 5.86231 7.98246
260 1 -1.1104 3.59702 4.55333 12.179
262 1 -1.1104 3.70478 4.45488 9.36347
258 1 -1.1104 3.78237 7.16822 9.27332
248 1 -1.1104 6.4913 4.59689 12.1067
253 1 -1.1104 6.55196 4.66294 9.289
179 1 -1.1104 6.7076 1.86085 12.3421
243 1 -1.1104 6.45243 7.22915 12.1715
245 1 -1.1104 6.60199 7.36316 9.3827
235 1 -1.1104 6.44792 7.39454 6.60572
269 1 -1.1104 9.39762 4.52365 6.22054
265 1 -1.1104 12.2664 7.46856 6.49213
199 2 2.2208 13.4478 17.361 2.42747
183 1 -1.1104 6.60468 1.87117 9.29085
266 1 -1.1104 12.219 4.73057 6.51929
209 1 -1.1104 9.37196 1.8549 6.54952
213 1 -1.1104 12.1283 1.82591 12.1037
215 1 -1.1104 12.2825 1.6319 9.49518
218 2 2.2208 10.6752 3.18946 7.85455
221 1 -1.1104 9.26045 1.59099 12.2274
224 1 -1.1104 9.40306 1.76623 9.31535
226 2 2.2208 7.9561 3.11091 10.4661
268 1 -1.1104 9.46196 4.65557 9.18559
271 1 -1.1104 9.51941 4.57389 12.0627
275 2 2.2208 7.94131 5.95412 7.79461
276 2 2.2208 10.646 6.06863 10.7461
280 1 -1.1104 12.4323 4.58243 12.2718
283 1 -1.1104 12.0832 4.69239 9.52157
285 1 -1.1104 9.43566 7.3663 12.187
273 1 -1.1104 9.3084 7.53509 9.29441
279 1 -1.1104 12.5131 7.48533 9.30996
278 1 -1.1104 12.1648 7.39451 12.0894
348 2 2.2208 10.778 11.697 -0.464652
104 1 -1.1104 12.1004 18.7265 9.53128
124 1 -1.1104 3.74409 12.9517 6.5159
111 1 -1.1104 6.54335 13.0709 6.5603
78 1 -1.1104 3.50728 10.3599 6.40221
241 2 2.2208 5.17081 11.4764 10.7222
247 1 -1.1104 0.959445 9.88182 12.1967
250 2 2.2208 4.98739 8.96742 7.90454
252 1 -1.1104 0.958572 10.2477 9.35422
257 2 2.2208 2.17575 11.5724 7.85503
259 2 2.2208 2.3077 8.82906 10.6852
261 1 -1.1104 3.68921 10.0374 11.9441
263 1 -1.1104 3.69811 10.2649 9.22832
287 1 -1.1104 3.73474 12.7771 11.8135
294 1 -1.1104 0.694321 13.0956 9.65697
299 1 -1.1104 0.953171 12.9256 12.2913
305 1 -1.1104 3.39539 12.9769 9.23426
254 1 -1.1104 6.55804 10.1675 9.32784
705 2 2.2208 2.32741 5.84205 13.5618
704 2 2.2208 10.8149 3.34794 13.6034
154 1 -1.1104 9.33578 13.0439 6.6033
143 1 -1.1104 12.2286 13.1301 6.67392
341 2 2.2208 5.06447 17.1842 -0.470447
297 1 -1.1104 6.45409 13.0692 12.3476
249 1 -1.1104 6.56581 10.0949 12.2466
290 1 -1.1104 6.46182 12.8741 9.29594
230 1 -1.1104 9.36173 12.9871 9.39173
264 1 -1.1104 9.37027 10.0585 9.38277
270 1 -1.1104 9.2027 10.1276 12.107
272 2 2.2208 8.05166 8.68801 10.6966
274 2 2.2208 8.06696 11.5972 7.87312
277 2 2.2208 10.6971 11.4316 10.6068
281 1 -1.1104 12.16 10.4342 12.0909
282 2 2.2208 10.782 8.72074 7.77265
284 1 -1.1104 12.2407 10.1914 9.43088
165 1 -1.1104 9.35768 12.8382 12.212
49 1 -1.1104 12.1941 13.1063 12.1298
53 1 -1.1104 12.2061 13.1347 9.3595
338 2 2.2208 13.6246 14.4334 -0.32389
321 2 2.2208 13.5964 8.88848 10.8851
688 2 2.2208 13.5969 11.6547 13.552
306 1 -1.1104 6.45989 15.7469 12.2786
133 1 -1.1104 3.83369 15.8458 6.84535
126 1 -1.1104 3.77814 18.6307 6.44079
117 1 -1.1104 0.95252 15.7792 6.45853
296 1 -1.1104 6.37275 18.5565 12.1028
289 1 -1.1104 6.22378 15.5718 9.576
295 2 2.2208 5.03443 14.2255 8.02557
310 2 2.2208 2.37545 14.2068 10.8881
286 1 -1.1104 3.59848 18.4923 12.2237
291 1 -1.1104 0.823953 18.7613 9.05726
292 1 -1.1104 0.918345 15.9346 9.46328
293 2 2.2208 4.89099 19.9971 7.83981
298 1 -1.1104 0.777933 18.3989 11.9706
300 2 2.2208 5.06314 17.0896 10.6942
301 1 -1.1104 3.57839 18.4225 9.3814
303 2 2.2208 2.15103 17.1653 8.05812
304 1 -1.1104 3.7805 15.7309 9.40441
307 1 -1.1104 0.879911 15.851 12.2388
308 1 -1.1104 3.64449 15.7347 12.2937
309 2 2.2208 2.47337 19.9452 10.5723
288 1 -1.1104 6.14949 18.4525 9.11
156 1 -1.1104 9.45058 18.6875 6.68855
702 2 2.2208 7.93127 11.5476 13.5516
229 2 2.2208 7.74705 17.275 7.87308
9157 2 2.2208 13.7207 5.86763 2.37038
314 1 -1.1104 9.20499 15.7016 9.30497
136 2 2.2208 10.7112 20.1308 7.99028
118 1 -1.1104 6.64675 15.8211 6.54911
9162 2 2.2208 13.6217 -2.51509 5.02875
135 2 2.2208 10.7502 14.6244 8.07491
315 1 -1.1104 9.43273 15.7791 12.1212
311 2 2.2208 7.73318 14.3776 10.8796
697 2 2.2208 2.19382 17.1125 13.6262
30 2 2.2208 13.6091 -2.39306 11.0047
326 2 2.2208 13.5873 3.17029 5.00203
687 2 2.2208 5.14052 2.99644 13.6976
701 2 2.2208 5.25963 8.67499 13.5331
9148 2 2.2208 -0.440751 0.117198 -0.37013
682 2 2.2208 7.77078 5.9593 13.6147
343 2 2.2208 4.84949 11.9536 -0.469846
689 2 2.2208 2.06035 11.5485 13.5531
693 2 2.2208 7.85724 17.2621 13.4774
335 2 2.2208 2.38197 -5.34579 13.5559
694 2 2.2208 13.6056 5.96024 13.5786
350 2 2.2208 4.96805 0.322886 16.5776
351 1 -1.1104 0.957787 -3.96803 18.1161
355 1 -1.1104 0.892385 -3.66471 15.2511
363 1 -1.1104 0.795253 -1.22957 17.8151
365 2 2.2208 5.25379 -2.30606 19.2702
367 1 -1.1104 0.914232 -0.886806 14.9674
371 1 -1.1104 3.83131 -3.81891 17.8692
373 2 2.2208 2.25503 0.236873 19.3863
374 1 -1.1104 3.61816 -4.16345 14.9678
378 2 2.2208 2.17204 -2.46409 16.5118
380 1 -1.1104 3.65642 -1.15468 18.0416
381 1 -1.1104 3.61399 -1.17358 15.2009
369 1 -1.1104 6.27966 -1.18816 15.0845
353 1 -1.1104 6.65891 -3.90241 18.0092
382 1 -1.1104 3.66229 -0.911164 20.7357
375 1 -1.1104 3.79968 -3.78349 20.8586
368 1 -1.1104 0.800737 -1.22653 20.7126
364 1 -1.1104 6.47568 -0.899138 17.8429
582 2 2.2208 13.5381 3.26664 22.2185
360 1 -1.1104 6.70153 -3.86718 20.8865
336 2 2.2208 8.1433 -5.28091 13.729
359 1 -1.1104 6.58873 -3.95437 15.1424
487 2 2.2208 13.5381 17.0687 19.0611
393 2 2.2208 10.9214 0.162996 16.5162
394 1 -1.1104 12.153 -4.02294 17.8043
396 1 -1.1104 12.2924 -3.93007 15.0177
400 1 -1.1104 12.2234 -1.11768 18.0064
401 2 2.2208 10.6706 -2.44556 19.4878
403 1 -1.1104 12.0932 -1.28523 15.2795
405 1 -1.1104 9.4221 -3.85405 17.9641
407 2 2.2208 7.88567 0.372706 19.2347
408 1 -1.1104 9.38232 -3.80301 15.15
412 2 2.2208 7.99464 -2.51212 16.5725
414 1 -1.1104 9.3799 -1.05418 17.9921
415 1 -1.1104 9.36125 -1.23696 15.2795
342 2 2.2208 2.02952 20.0768 27.7987
692 2 2.2208 13.3606 0.344004 13.799
404 1 -1.1104 12.1414 -0.750577 20.7082
397 1 -1.1104 12.1468 -3.63312 20.7964
583 2 2.2208 5.04466 -5.21109 22.278
340 2 2.2208 2.10189 14.4003 27.7415
352 1 -1.1104 0.86586 1.69702 17.8612
357 1 -1.1104 1.07423 1.78003 15.012
366 2 2.2208 5.25677 3.22862 19.3686
372 1 -1.1104 3.56065 1.69907 17.9153
376 1 -1.1104 3.85041 1.72807 15.1644
379 2 2.2208 2.20543 3.12427 16.5456
426 2 2.2208 5.23796 5.9058 16.3886
434 1 -1.1104 0.877707 4.63292 17.9538
439 1 -1.1104 0.965924 4.44238 15.0442
448 2 2.2208 2.41159 5.81727 19.4312
453 1 -1.1104 3.88845 4.56418 18.0785
455 1 -1.1104 3.68998 4.39183 14.8381
447 1 -1.1104 3.59261 7.31432 17.7853
428 1 -1.1104 0.997157 7.42434 17.648
430 1 -1.1104 0.828763 7.37483 14.8575
361 1 -1.1104 6.59103 1.63872 15.1025
450 1 -1.1104 4.00713 7.32824 14.9104
431 1 -1.1104 0.931629 7.20271 20.6409
440 1 -1.1104 1.1413 4.33987 20.7462
432 1 -1.1104 6.68107 7.32786 15.1039
377 1 -1.1104 3.91499 1.90731 20.5612
436 1 -1.1104 6.6622 4.73199 17.7843
443 1 -1.1104 6.51483 4.5501 14.9959
354 1 -1.1104 6.52245 1.97685 17.7106
362 1 -1.1104 6.65429 1.74606 20.894
433 1 -1.1104 6.64673 7.33813 20.7266
451 1 -1.1104 3.86795 7.44676 20.6618
358 1 -1.1104 0.963811 1.62888 20.8781
444 1 -1.1104 6.77548 4.7244 20.6745
679 2 2.2208 13.4506 -2.33776 22.0948
429 1 -1.1104 6.38314 7.40674 17.769
395 1 -1.1104 12.2699 1.76862 17.6811
398 1 -1.1104 12.0189 1.78894 14.9936
402 2 2.2208 10.7175 3.08488 19.2427
406 1 -1.1104 9.22411 1.71998 17.8261
410 1 -1.1104 9.44924 1.68509 15.1977
413 2 2.2208 7.83288 3.21233 16.4529
462 2 2.2208 10.7385 6.03913 16.4802
464 1 -1.1104 12.2377 7.41827 17.6723
467 1 -1.1104 12.1865 4.68937 17.8367
470 1 -1.1104 12.1882 4.59108 15.0126
475 2 2.2208 8.06977 6.18375 19.239
480 1 -1.1104 9.45712 4.70498 17.8257
482 1 -1.1104 9.30087 4.69996 14.9104
465 1 -1.1104 11.9695 7.22842 14.8935
474 1 -1.1104 9.33238 7.5159 17.6424
477 1 -1.1104 9.18196 7.36161 15.0055
466 1 -1.1104 12.2528 7.47885 20.4778
411 1 -1.1104 9.32856 1.81045 20.6307
478 1 -1.1104 9.31049 7.28053 20.6683
420 2 2.2208 10.7673 -2.35095 13.8106
333 2 2.2208 13.5988 8.75615 27.6071
399 1 -1.1104 12.0357 1.95673 20.6391
385 2 2.2208 2.47028 -5.24639 19.2659
549 2 2.2208 10.5462 14.5349 25.0088
427 2 2.2208 5.09724 11.576 16.4297
435 1 -1.1104 0.793538 10.1323 17.5245
438 2 2.2208 5.19532 8.87352 19.1942
441 1 -1.1104 0.629022 10.1815 14.8503
449 2 2.2208 2.2298 11.4044 19.1352
452 2 2.2208 2.23619 8.68896 16.3166
454 1 -1.1104 3.66861 10.2448 17.7222
457 1 -1.1104 3.39663 10.2822 14.9645
490 1 -1.1104 0.979347 12.8266 17.692
494 1 -1.1104 0.857742 13.0078 14.8423
510 1 -1.1104 3.84897 13.1648 17.8273
513 1 -1.1104 3.5707 13.0717 14.6839
492 1 -1.1104 6.40625 12.9031 17.6793
458 1 -1.1104 3.70737 10.112 20.5922
437 1 -1.1104 6.72764 10.1078 17.8141
445 1 -1.1104 6.37294 9.981 15.0978
686 2 2.2208 5.16318 -2.45163 13.6473
418 2 2.2208 10.6996 -5.29156 16.4778
498 1 -1.1104 6.4109 12.8401 15.0767
463 2 2.2208 10.7568 11.3401 16.3588
468 1 -1.1104 12.1447 10.0116 17.8486
469 2 2.2208 10.631 8.75884 19.2111
472 1 -1.1104 12.2824 10.0741 14.8279
476 2 2.2208 8.0925 11.498 19.3072
479 2 2.2208 7.98746 8.77279 16.332
481 1 -1.1104 9.33426 10.2455 17.8033
484 1 -1.1104 9.40398 9.91185 14.9212
526 1 -1.1104 12.2349 12.9466 17.7459
528 1 -1.1104 12.0954 12.7541 15.0299
537 1 -1.1104 9.34436 12.8944 17.8583
540 1 -1.1104 9.26839 13.1252 14.8797
529 1 -1.1104 12.083 13.1091 20.4846
473 1 -1.1104 12.138 10.2594 20.6231
577 1 -1.1104 9.11551 18.9649 23.5506
504 2 2.2208 5.11491 14.5455 19.3757
517 2 2.2208 2.25468 14.3845 16.329
489 2 2.2208 5.13981 16.9897 16.3808
491 1 -1.1104 0.847015 18.2481 17.7362
496 1 -1.1104 0.754811 18.5211 14.9323
502 1 -1.1104 1.06626 15.5367 17.8852
505 2 2.2208 5.10387 20.0102 19.3354
506 1 -1.1104 1.05479 15.8066 14.9923
511 1 -1.1104 3.65288 18.555 17.7042
512 2 2.2208 2.29303 17.0737 19.1721
515 1 -1.1104 3.81225 18.5351 14.965
518 2 2.2208 2.3383 19.8202 16.3227
519 1 -1.1104 3.81243 15.8279 17.8671
520 1 -1.1104 3.67701 15.9832 14.9914
497 1 -1.1104 0.929072 18.3663 20.4953
516 1 -1.1104 3.78337 18.4511 20.5349
508 1 -1.1104 6.66961 15.882 14.7967
503 1 -1.1104 6.61676 15.5414 17.6601
509 1 -1.1104 6.65143 15.9113 20.4968
613 2 2.2208 7.84666 -5.41128 24.876
9401 2 2.2208 -0.3267 19.8019 19.1663
531 1 -1.1104 11.7135 18.4478 20.4264
493 1 -1.1104 6.54433 18.5501 17.6442
500 1 -1.1104 6.4447 18.6787 14.7699
533 2 2.2208 10.8065 14.5024 19.279
544 2 2.2208 7.91992 14.4314 16.5194
525 2 2.2208 10.7914 17.1212 16.5112
527 1 -1.1104 11.9673 18.6068 17.7704
530 1 -1.1104 11.9965 18.3244 15.0283
532 1 -1.1104 12.1171 15.5997 17.7169
534 2 2.2208 10.7234 20.1807 19.1481
535 1 -1.1104 12.3393 15.5815 15.0828
538 1 -1.1104 9.28629 18.7713 17.892
539 2 2.2208 8.00207 17.3987 19.305
542 1 -1.1104 9.1324 18.8564 15.0716
545 2 2.2208 7.77443 20.1832 16.3959
546 1 -1.1104 9.33662 15.8363 17.8869
547 1 -1.1104 9.50172 16.1169 15.0122
543 1 -1.1104 9.21586 18.9759 20.6684
419 2 2.2208 8.02809 -5.39147 19.5514
370 1 -1.1104 6.45359 -0.863407 20.636
390 2 2.2208 13.5381 19.997 16.2302
356 1 -1.1104 0.889913 -3.9675 20.8925
553 2 2.2208 5.1587 0.49675 22.1465
554 1 -1.1104 1.1106 -3.73612 23.7069
558 1 -1.1104 0.990928 -4.05749 26.4867
562 1 -1.1104 0.953624 -1.06661 23.4903
564 2 2.2208 5.19195 -2.38435 25.0313
566 1 -1.1104 0.909537 -1.09564 26.457
568 1 -1.1104 3.82431 -3.78729 23.7925
570 2 2.2208 2.26633 0.258991 25.0144
571 1 -1.1104 3.66576 -3.85274 26.2439
573 2 2.2208 2.3833 -2.45189 22.1652
575 1 -1.1104 3.76083 -0.877437 23.4707
576 1 -1.1104 3.82004 -0.935999 26.3724
556 1 -1.1104 6.51683 -3.87487 23.5038
560 1 -1.1104 6.72287 -3.89197 26.5313
567 1 -1.1104 6.68726 -1.10745 26.5604
417 2 2.2208 -0.488368 6.11573 16.4765
611 2 2.2208 13.6453 -2.49671 16.6004
609 2 2.2208 7.91644 20.1792 22.0045
81 2 2.2208 10.6466 6.04718 27.7205
676 2 2.2208 13.5942 14.4686 22.0728
332 2 2.2208 7.97792 20.028 27.7725
409 1 -1.1104 9.48135 -3.87042 20.977
681 2 2.2208 13.6814 6.0245 24.936
416 1 -1.1104 9.32751 -1.07491 20.7855
563 1 -1.1104 6.75242 -1.09104 23.6983
589 2 2.2208 10.7897 0.384883 22.2281
590 1 -1.1104 12.2772 -3.65846 23.5993
592 1 -1.1104 12.2977 -3.83265 26.2416
594 1 -1.1104 12.1476 -0.806113 23.703
595 2 2.2208 10.9558 -2.38062 24.9667
597 1 -1.1104 12.3494 -1.07202 26.471
598 1 -1.1104 9.47567 -3.88099 23.9257
600 2 2.2208 7.99193 0.385984 25.1219
601 1 -1.1104 9.55573 -3.62986 26.5053
603 2 2.2208 8.09218 -2.36915 22.3248
605 1 -1.1104 9.46382 -1.02603 23.7087
606 1 -1.1104 9.51543 -0.884608 26.4198
579 1 -1.1104 6.41218 18.8535 26.2699
643 2 2.2208 10.7193 17.2648 22.1724
488 1 -1.1104 12.2127 18.7834 23.5587
646 1 -1.1104 6.53587 15.9229 26.2722
456 1 -1.1104 3.74592 4.55393 20.8076
523 1 -1.1104 12.2755 18.9004 26.4638
347 2 2.2208 2.19259 8.86865 27.7046
555 1 -1.1104 0.966602 1.75688 23.5523
559 1 -1.1104 0.870025 1.80469 26.3468
565 2 2.2208 5.1219 3.15181 24.9182
569 1 -1.1104 3.61126 1.85198 23.5891
572 1 -1.1104 3.78097 1.95601 26.4886
574 2 2.2208 2.42458 3.13625 22.1274
618 2 2.2208 5.20024 5.91076 22.1389
620 1 -1.1104 0.983793 7.43381 23.3279
622 1 -1.1104 0.990646 7.19244 26.3236
624 1 -1.1104 1.0022 4.68995 23.4507
629 1 -1.1104 1.16802 4.49113 26.2122
634 2 2.2208 2.33114 6.05768 25.0186
638 1 -1.1104 3.93942 4.43168 23.3768
640 1 -1.1104 3.77457 4.64501 26.1004
636 1 -1.1104 3.65297 7.65394 26.4074
633 1 -1.1104 3.7798 7.45347 23.5152
621 1 -1.1104 6.6161 7.36405 23.6943
561 1 -1.1104 6.42051 1.8321 26.2334
626 1 -1.1104 6.62579 4.69017 23.5151
9287 2 2.2208 -0.293044 0.392594 16.5371
615 1 -1.1104 9.05847 15.8028 25.9504
483 1 -1.1104 9.21188 4.52316 20.8495
631 1 -1.1104 6.55561 4.74843 26.4067
471 1 -1.1104 12.2096 4.62984 20.7855
623 1 -1.1104 6.4509 7.53603 26.315
557 1 -1.1104 6.59004 1.74843 23.5729
591 1 -1.1104 12.3081 1.74333 23.7209
593 1 -1.1104 12.3677 1.9096 26.5818
596 2 2.2208 10.9402 3.18854 24.9378
599 1 -1.1104 9.46262 1.74473 23.4912
602 1 -1.1104 9.47452 1.78512 26.2688
604 2 2.2208 8.00382 3.14589 22.1634
650 1 -1.1104 9.43501 4.61796 26.4645
652 1 -1.1104 9.41468 4.57537 23.5643
656 2 2.2208 8.04346 5.97387 24.9075
657 2 2.2208 10.6832 6.08619 22.0445
659 1 -1.1104 12.0951 7.44392 23.3742
661 1 -1.1104 12.1246 4.58802 23.6091
664 1 -1.1104 12.1068 4.7766 26.5144
660 1 -1.1104 12.2486 7.45553 26.2982
666 1 -1.1104 9.34571 7.48549 23.4964
654 1 -1.1104 9.33942 7.2765 26.2048
9501 2 2.2208 13.5939 8.78664 22.142
442 1 -1.1104 0.843671 9.9606 20.6407
446 1 -1.1104 6.52224 10.1639 20.612
514 1 -1.1104 3.75069 12.817 20.3905
495 1 -1.1104 1.02051 12.8427 20.6158
619 2 2.2208 5.10896 11.6496 21.7987
625 1 -1.1104 0.92826 9.99609 23.596
628 2 2.2208 5.10375 8.9447 25.0864
630 1 -1.1104 0.868907 10.1196 26.3619
635 2 2.2208 2.27853 11.4791 24.8035
637 2 2.2208 2.38569 8.7434 21.8072
639 1 -1.1104 3.89404 10.119 23.6458
641 1 -1.1104 3.58946 10.2999 26.518
392 1 -1.1104 0.961038 12.9037 23.3921
486 1 -1.1104 0.596555 13.0349 26.1454
669 1 -1.1104 3.37793 13.0025 26.4457
670 1 -1.1104 3.76817 13.0318 23.3587
627 1 -1.1104 6.57502 10.1949 23.3827
632 1 -1.1104 6.21139 10.6203 26.1513
9256 2 2.2208 -0.296302 3.22142 24.9557
499 1 -1.1104 6.53344 13.0075 20.7227
485 1 -1.1104 9.42486 10.3459 20.6056
668 1 -1.1104 6.4104 15.8314 23.3408
541 1 -1.1104 9.48296 13.2018 20.7419
672 1 -1.1104 6.32749 13.277 26.291
424 1 -1.1104 6.61667 13.1207 23.5313
617 1 -1.1104 12.1479 13.0484 23.5555
552 1 -1.1104 9.5984 13.0367 23.4797
649 1 -1.1104 9.08904 10.3734 26.3202
651 1 -1.1104 9.43383 10.3214 23.4602
653 2 2.2208 7.97798 8.96571 22.1977
655 2 2.2208 7.97967 11.8208 24.8874
658 2 2.2208 10.8868 11.7723 22.0263
662 1 -1.1104 12.3338 10.3543 23.4261
663 2 2.2208 10.7301 8.86543 24.8644
665 1 -1.1104 12.029 10.3525 26.1998
585 1 -1.1104 9.24923 13.1696 26.1275
522 1 -1.1104 12.0193 13.111 26.5479
524 1 -1.1104 11.9203 16.0526 23.6293
614 1 -1.1104 9.21752 16.0257 23.5044
521 1 -1.1104 3.93956 15.707 21.0021
507 1 -1.1104 1.16425 15.6848 20.6882
501 1 -1.1104 6.51712 18.6861 20.6484
578 2 2.2208 7.72965 17.4645 24.8763
461 1 -1.1104 6.2611 18.5986 23.3574
671 1 -1.1104 3.67242 15.5903 26.2298
667 1 -1.1104 0.71117 15.9729 23.5451
648 1 -1.1104 3.66295 15.8245 23.4802
673 1 -1.1104 3.58845 18.6159 23.4266
425 2 2.2208 5.06644 14.4474 24.881
386 2 2.2208 2.31077 17.1656 25.1462
388 1 -1.1104 3.51151 18.6392 26.3763
391 2 2.2208 5.11562 17.2709 22.1065
423 1 -1.1104 0.577397 18.8511 23.3771
460 2 2.2208 5.06442 20.1053 24.7095
580 1 -1.1104 0.778228 15.9754 26.45
588 1 -1.1104 0.919942 18.7139 26.3967
644 2 2.2208 2.42956 14.3764 22.1375
645 2 2.2208 2.21187 19.9905 22.2626
550 2 2.2208 10.9339 20.3131 25.1121
389 2 2.2208 -0.287263 14.38 19.1252
551 1 -1.1104 12.0347 15.9026 26.3698
607 1 -1.1104 9.43158 18.5349 26.4131
608 2 2.2208 7.85506 14.5688 22.0219
9216 2 2.2208 13.4935 11.7579 24.9954
536 1 -1.1104 12.1714 15.7767 21.0528
548 1 -1.1104 9.51367 16.1816 20.481
674 2 2.2208 13.6433 3.27341 16.5626
677 2 2.2208 13.4354 11.5558 19.2519
9506 2 2.2208 -0.394922 0.392277 22.1419
383 2 2.2208 13.6162 14.2306 16.3948
678 2 2.2208 13.5477 17.1674 24.8138
422 2 2.2208 13.5138 19.9658 22.1344
9508 2 2.2208 13.5587 0.574894 19.2618
334 2 2.2208 8.16852 -2.53554 27.8198
201 2 2.2208 5.00913 6.13294 27.5027
700 2 2.2208 7.91381 0.249838 13.8552
9169 2 2.2208 13.5762 -5.14415 13.6865
319 2 2.2208 5.18192 0.510815 27.6959
320 2 2.2208 8.0516 3.16699 27.6733
325 2 2.2208 2.24108 3.24471 27.6807
346 2 2.2208 7.94501 8.79396 27.5637
324 2 2.2208 2.41377 -2.66379 27.7991
339 2 2.2208 7.84143 14.3867 27.6018
706 2 2.2208 5.0206 22.8679 5.11403
708 1 -1.1104 0.703582 24.3326 1.01504
709 1 -1.1104 0.963365 24.3374 3.66197
710 1 -1.1104 0.872176 21.4911 1.06756
712 2 2.2208 5.03489 25.4261 2.32779
713 1 -1.1104 0.681441 21.6036 3.73791
715 1 -1.1104 3.54472 24.2053 0.997798
716 2 2.2208 2.13276 22.826 2.40865
718 1 -1.1104 3.50203 24.0524 3.77261
719 2 2.2208 2.14393 25.8075 5.00777
720 1 -1.1104 3.7071 21.331 0.7817
722 1 -1.1104 3.60729 21.4068 3.75533
721 1 -1.1104 3.71118 26.9853 0.649608
711 1 -1.1104 0.987671 27.0573 0.995752
714 1 -1.1104 0.884843 27.2699 3.80249
855 1 -1.1104 3.76611 27.0067 6.43557
847 1 -1.1104 0.834509 24.3868 6.53781
853 1 -1.1104 3.59216 24.3126 6.46871
851 1 -1.1104 6.59226 21.514 6.66341
731 1 -1.1104 6.44195 21.4254 3.80551
727 1 -1.1104 6.21079 23.9311 0.894677
729 1 -1.1104 6.43554 21.2535 0.922445
732 1 -1.1104 6.40836 26.9722 3.70802
730 1 -1.1104 6.3631 26.9048 0.667141
854 1 -1.1104 3.77803 21.4937 6.57379
849 1 -1.1104 1.03923 21.5801 6.45821
852 1 -1.1104 6.2978 26.7691 6.42475
1029 2 2.2208 13.4201 42.9083 10.9352
850 1 -1.1104 0.911877 27.0681 6.61369
753 2 2.2208 13.48 25.6181 5.23471
728 1 -1.1104 6.30086 24.2812 3.72162
733 2 2.2208 10.5936 22.9716 5.16873
735 1 -1.1104 12.0621 24.3615 0.801605
736 1 -1.1104 11.8215 24.4636 3.76444
737 1 -1.1104 12.0912 21.5649 0.757649
739 2 2.2208 10.5742 25.7465 2.37136
740 1 -1.1104 12.1192 21.6388 3.77335
742 1 -1.1104 9.16643 24.1431 0.961422
743 2 2.2208 7.82381 22.7774 2.27372
745 1 -1.1104 9.0452 24.4557 3.70877
746 2 2.2208 7.88635 25.638 5.24113
747 1 -1.1104 9.24803 21.4755 0.865634
749 1 -1.1104 9.45449 21.5104 3.80385
748 1 -1.1104 9.14665 27.1788 0.920855
884 1 -1.1104 9.25704 21.4598 6.52947
885 1 -1.1104 8.97244 27.3064 6.4022
750 1 -1.1104 9.30091 27.1812 3.78331
1381 2 2.2208 7.87642 28.5254 13.5359
1427 1 -1.1104 12.3781 46.8976 3.86206
723 1 -1.1104 3.57621 26.9137 3.58916
707 2 2.2208 5.08149 28.4496 5.15101
717 2 2.2208 2.31582 28.4486 2.18063
755 1 -1.1104 1.04625 30.044 0.995277
758 1 -1.1104 1.0343 29.9921 3.69369
761 1 -1.1104 0.754317 32.8148 0.850569
762 2 2.2208 4.99192 31.3381 2.27592
764 1 -1.1104 0.699735 32.7033 3.82907
766 1 -1.1104 3.8211 29.7452 0.819176
769 1 -1.1104 3.78767 29.9579 3.73362
771 2 2.2208 2.17502 31.363 5.08579
773 1 -1.1104 3.50936 32.6698 0.719092
774 1 -1.1104 3.61876 32.9515 3.65533
780 1 -1.1104 6.31218 32.7521 1.10105
765 1 -1.1104 6.6943 32.3863 3.63871
778 1 -1.1104 6.5651 30.0231 0.82785
909 1 -1.1104 6.53705 32.7536 6.55172
904 1 -1.1104 0.875098 29.9319 6.75622
1011 2 2.2208 10.7543 34.1869 -0.273266
741 1 -1.1104 12.0828 27.3682 3.67805
779 1 -1.1104 6.60894 29.6724 3.75047
738 1 -1.1104 11.9256 27.1179 0.922638
734 2 2.2208 10.6564 28.6091 5.21144
744 2 2.2208 7.78453 28.3617 2.29847
782 1 -1.1104 12.2939 30.1287 0.87484
784 1 -1.1104 12.2772 29.9302 3.66489
786 1 -1.1104 12.2807 32.8496 1.11996
787 2 2.2208 10.6964 31.3421 2.41245
789 1 -1.1104 12.1064 32.7082 3.82155
790 1 -1.1104 9.41118 30.0599 1.02891
793 1 -1.1104 9.28476 29.9801 4.06594
795 2 2.2208 7.99975 31.2454 5.24653
797 1 -1.1104 9.36104 32.7859 1.08488
798 1 -1.1104 9.56894 32.7847 3.83897
906 1 -1.1104 6.435 29.7917 6.58662
941 1 -1.1104 9.45186 29.8247 6.67969
940 1 -1.1104 12.0616 32.8815 6.45861
1380 2 2.2208 2.0934 28.4527 13.7114
1169 2 2.2208 7.85222 34.1555 13.582
938 1 -1.1104 12.2176 30.0951 6.53832
943 1 -1.1104 9.31705 32.7905 6.62368
754 2 2.2208 5.18224 34.0128 5.10735
756 1 -1.1104 0.945907 35.495 1.01965
759 1 -1.1104 0.670219 35.4793 3.72139
763 2 2.2208 4.94314 36.9653 2.25993
767 1 -1.1104 3.626 35.4711 0.60298
768 2 2.2208 2.26501 34.1087 2.42703
770 1 -1.1104 3.7512 35.7936 3.73413
772 2 2.2208 2.32814 37.0115 5.29229
800 2 2.2208 5.18414 39.6623 5.01555
806 1 -1.1104 0.767955 38.2888 0.940631
811 1 -1.1104 0.671754 38.2831 3.97412
816 2 2.2208 2.1864 39.8329 2.21491