ITEM: TIMESTEP
70000
ITEM: NUMBER OF ATOMS
17640
ITEM: BOX BOUNDS pp pp pp
-4.4064930766965643e-01 2.7780649307670675e+01
-5.3244984267081881e+00 3.3340449842670063e+02
-4.4785603917242328e-01 2.7787856039172638e+01
ITEM: ATOMS id type q x y z
1 2 2.2208 5.14347 0.417801 5.09319
2 1 -1.1104 0.574992 -4.11923 0.796027
6 1 -1.1104 0.628722 -3.93665 3.63601
10 1 -1.1104 1.0106 -1.18174 0.862401
12 2 2.2208 5.16671 -2.54115 2.00533
14 1 -1.1104 0.819356 -0.912077 3.50319
16 1 -1.1104 3.38459 -3.81848 0.715571
18 2 2.2208 2.38879 0.164069 2.23861
19 1 -1.1104 3.68709 -4.07088 3.75049
21 2 2.2208 2.29659 -2.56052 4.89229
23 1 -1.1104 3.80159 -1.25323 0.803933
24 1 -1.1104 3.88871 -1.2464 3.62491
15 1 -1.1104 6.44632 -0.888871 3.82008
11 1 -1.1104 6.61567 -1.18801 0.993291
168 1 -1.1104 6.52825 -4.01012 6.35859
172 1 -1.1104 3.65736 -3.98643 6.4442
166 1 -1.1104 0.770194 -3.96243 6.36577
8 1 -1.1104 6.52647 -3.87979 3.44345
171 1 -1.1104 6.42105 -0.974786 6.60874
170 1 -1.1104 0.767891 -1.08189 6.33723
687 2 2.2208 5.05126 3.06164 13.4421
4 1 -1.1104 6.306 -4.13004 0.696239
31 2 2.2208 10.9137 0.160814 5.15426
32 1 -1.1104 12.0693 -3.93515 0.749292
34 1 -1.1104 11.9906 -4.16468 3.4684
36 1 -1.1104 12.2516 -0.992113 0.685445
37 2 2.2208 10.7868 -2.90941 2.25898
39 1 -1.1104 11.9553 -1.44175 3.65934
40 1 -1.1104 9.20475 -4.19251 1.01294
42 2 2.2208 8.24952 0.200261 2.39536
43 1 -1.1104 9.0985 -4.03031 3.68074
45 2 2.2208 7.80831 -2.51743 5.05406
47 1 -1.1104 9.38351 -1.35302 0.768817
48 1 -1.1104 9.39333 -1.17877 3.80009
210 1 -1.1104 9.35495 -1.30354 6.54755
208 1 -1.1104 9.23179 -3.99232 6.51129
205 1 -1.1104 11.8278 -4.09968 6.40478
207 1 -1.1104 12.1575 -0.969154 6.52711
692 2 2.2208 13.5048 0.448426 13.4615
9153 2 2.2208 13.2783 -5.24467 7.88315
693 2 2.2208 7.87739 17.165 13.498
3 1 -1.1104 0.828218 1.62597 0.796296
7 1 -1.1104 1.02375 1.85027 3.56795
13 2 2.2208 4.99806 2.91688 2.23751
17 1 -1.1104 3.79036 1.6168 0.826528
20 1 -1.1104 3.71057 1.71122 3.99016
22 2 2.2208 2.26858 3.21322 5.04144
54 2 2.2208 5.01072 5.87435 4.92124
56 1 -1.1104 0.909085 7.37719 0.759408
60 1 -1.1104 1.01465 4.4255 0.573552
67 1 -1.1104 0.969329 4.63724 3.35376
72 2 2.2208 2.53924 5.94327 2.02742
76 1 -1.1104 3.97039 4.23177 0.787029
79 1 -1.1104 3.57482 4.57275 3.57837
71 1 -1.1104 3.8337 6.99622 0.690068
58 1 -1.1104 1.00956 7.2466 3.73463
234 1 -1.1104 0.85801 7.30238 6.36719
63 1 -1.1104 6.53084 4.62389 0.867516
9 1 -1.1104 6.65129 1.74249 3.54368
69 1 -1.1104 6.40454 4.35157 3.74653
5 1 -1.1104 6.64348 1.39708 1.0253
238 1 -1.1104 3.49996 7.2645 6.61621
169 1 -1.1104 6.65512 1.77367 6.58515
74 1 -1.1104 3.82791 7.43984 3.5131
59 1 -1.1104 6.60117 7.17231 3.5797
235 1 -1.1104 6.35555 7.40612 6.2742
167 1 -1.1104 0.848863 1.6513 6.25678
237 1 -1.1104 6.35899 4.34123 6.3905
57 1 -1.1104 6.80509 7.52795 0.841806
33 1 -1.1104 12.0932 1.70823 0.981591
35 1 -1.1104 12.3315 1.53343 3.83512
38 2 2.2208 10.6874 2.972 2.18292
41 1 -1.1104 9.42668 1.49295 0.780486
44 1 -1.1104 9.42859 1.52048 3.9331
46 2 2.2208 7.92312 2.99427 5.06146
84 2 2.2208 10.7231 5.8033 5.04862
86 1 -1.1104 12.104 7.36597 0.797406
88 1 -1.1104 11.7907 4.53641 0.750475
92 1 -1.1104 12.1244 4.4415 3.5359
94 1 -1.1104 9.57471 7.13582 1.00813
95 2 2.2208 7.893 5.76483 2.15868
97 1 -1.1104 9.26252 6.97893 3.64291
99 1 -1.1104 9.21786 4.17124 0.751943
102 1 -1.1104 9.2064 4.26729 3.49348
87 1 -1.1104 12.0485 7.13607 3.60243
267 1 -1.1104 9.48641 7.30865 6.55126
269 1 -1.1104 9.26687 4.52824 6.28141
209 1 -1.1104 9.41039 1.62741 6.63609
265 1 -1.1104 12.317 7.22834 6.48919
206 1 -1.1104 12.1261 1.82653 6.53032
336 2 2.2208 7.85865 -5.15446 13.4283
266 1 -1.1104 12.2954 4.4859 6.50549
9157 2 2.2208 13.5397 5.72665 2.21399
55 2 2.2208 5.34679 11.5433 4.94383
61 1 -1.1104 0.869633 10.1316 0.883266
66 2 2.2208 5.28224 8.71644 2.21888
68 1 -1.1104 0.682414 10.1104 3.60008
73 2 2.2208 2.29053 11.6096 2.2229
75 2 2.2208 2.31661 8.87539 5.06937
77 1 -1.1104 3.68227 10.4559 0.573245
80 1 -1.1104 3.7769 10.3147 3.67598
107 1 -1.1104 0.938443 13.0859 0.313373
113 1 -1.1104 1.00155 12.9966 3.38004
123 1 -1.1104 3.65244 13.294 1.16828
128 1 -1.1104 3.82345 13.0277 3.70296
70 1 -1.1104 6.63029 10.0919 3.50202
65 1 -1.1104 6.69791 10.2811 6.22173
124 1 -1.1104 3.92095 12.8705 6.3986
64 1 -1.1104 6.41241 10.4395 0.695959
110 1 -1.1104 6.6466 13.1392 0.87693
111 1 -1.1104 6.64682 12.9298 6.42474
108 1 -1.1104 1.08033 13.1217 6.45801
78 1 -1.1104 3.89565 10.0949 6.38163
62 1 -1.1104 0.876728 10.1681 6.44853
9167 2 2.2208 -0.414507 20.0236 7.81863
115 1 -1.1104 6.58104 12.9731 3.58798
85 2 2.2208 10.899 11.3779 4.92865
89 1 -1.1104 11.9275 10.2434 0.713891
91 2 2.2208 10.7593 8.61807 2.26426
93 1 -1.1104 12.3673 9.96578 3.62858
96 2 2.2208 7.91544 11.4888 2.28225
98 2 2.2208 7.97501 8.53865 5.06071
100 1 -1.1104 9.18491 9.95589 0.799753
103 1 -1.1104 9.3799 9.84637 3.78831
142 1 -1.1104 12.2432 13.1545 0.749462
146 1 -1.1104 12.0687 13.0416 3.53554
153 1 -1.1104 9.48352 12.6708 0.963125
158 1 -1.1104 9.33322 12.8113 3.6402
90 1 -1.1104 12.3866 9.90813 6.18992
101 1 -1.1104 9.46695 10.3198 6.49324
698 2 2.2208 2.28348 0.298132 13.3767
30 2 2.2208 13.3586 -2.38463 10.8555
143 1 -1.1104 12.2166 12.9873 6.35432
130 2 2.2208 2.26277 14.2939 5.03465
119 2 2.2208 5.16132 14.6374 2.10419
106 2 2.2208 5.32973 17.2503 5.02685
109 1 -1.1104 1.03813 18.5421 0.89234
114 1 -1.1104 0.997234 18.5348 3.76707
116 1 -1.1104 0.888334 15.8548 0.642691
120 2 2.2208 5.1848 20.0049 2.30934
121 1 -1.1104 0.93277 15.8415 3.5916
125 1 -1.1104 3.73964 18.594 1.02581
127 2 2.2208 2.36588 17.214 2.36736
129 1 -1.1104 3.59379 18.4418 3.98259
131 2 2.2208 2.35494 19.8025 5.11722
132 1 -1.1104 3.90475 15.8172 0.526945
134 1 -1.1104 3.70756 15.6876 3.37741
133 1 -1.1104 3.5972 15.8013 6.16306
138 1 -1.1104 6.42543 18.3923 0.822777
117 1 -1.1104 0.9611 15.6877 6.52379
112 1 -1.1104 6.68508 18.6411 6.47591
126 1 -1.1104 4.00362 18.6593 6.62722
140 1 -1.1104 6.57428 15.7815 0.582423
122 1 -1.1104 6.59196 15.8551 3.70966
691 2 2.2208 10.798 19.9103 13.5858
302 1 -1.1104 0.788767 18.4789 6.51798
118 1 -1.1104 6.37608 15.6499 6.64283
328 2 2.2208 13.6939 8.60122 5.03125
139 1 -1.1104 6.52295 18.5545 3.32778
160 2 2.2208 7.84624 14.3662 4.99047
150 2 2.2208 10.6661 14.3246 2.23151
141 2 2.2208 10.7832 17.2295 5.12807
144 1 -1.1104 12.1002 18.6513 1.08405
147 1 -1.1104 12.1016 18.5509 3.92792
148 1 -1.1104 12.341 15.9422 0.839103
151 2 2.2208 10.6556 20.2311 2.1855
152 1 -1.1104 12.1929 15.644 3.8063
155 1 -1.1104 9.24544 18.7454 0.6007
157 2 2.2208 7.98204 17.2156 2.1906
159 1 -1.1104 9.25531 18.7925 3.50959
161 2 2.2208 8.1137 20.0104 4.98128
162 1 -1.1104 9.32311 15.6631 0.731821
164 1 -1.1104 9.2994 15.9494 3.78284
163 1 -1.1104 9.33044 15.9535 6.602
156 1 -1.1104 9.4894 18.6857 6.36025
695 2 2.2208 4.9078 14.2846 13.4927
149 1 -1.1104 12.3781 15.836 6.42801
174 1 -1.1104 3.68599 -1.09502 6.45455
686 2 2.2208 5.10642 -2.45477 13.5383
175 2 2.2208 4.90644 0.419358 10.6359
176 1 -1.1104 1.13927 -3.87489 11.9737
180 1 -1.1104 0.796586 -4.00141 9.14401
184 1 -1.1104 1.00216 -0.984588 11.9369
186 2 2.2208 5.16472 -2.40899 7.86706
188 1 -1.1104 0.731923 -1.1097 9.28051
190 1 -1.1104 3.75058 -3.73001 12.0603
192 2 2.2208 2.23365 0.122612 7.75718
193 1 -1.1104 3.61933 -3.76314 9.16514
195 2 2.2208 2.34138 -2.44284 10.6711
197 1 -1.1104 3.76208 -1.18611 11.9593
198 1 -1.1104 3.67823 -1.06124 9.18676
185 1 -1.1104 6.52624 -1.0524 12.1357
178 1 -1.1104 6.47166 -3.75185 12.0549
182 1 -1.1104 6.46101 -3.69428 9.27898
689 2 2.2208 2.15513 11.4312 13.4829
315 1 -1.1104 9.15429 15.728 12.1572
9063 2 2.2208 -0.427952 11.4427 10.4752
200 1 -1.1104 9.41337 18.5427 12.1358
104 1 -1.1104 12.3714 18.5265 9.57816
231 2 2.2208 7.86002 -5.26772 7.75083
189 1 -1.1104 6.44884 -0.891046 9.23865
211 2 2.2208 10.5771 0.495039 10.603
212 1 -1.1104 12.0241 -3.77516 12.2132
214 1 -1.1104 11.9163 -3.85943 9.38589
216 1 -1.1104 11.9696 -0.851709 12.0885
217 2 2.2208 10.6236 -2.42307 7.90392
219 1 -1.1104 12.0164 -1.15343 9.31626
220 1 -1.1104 9.3947 -3.72374 12.3648
222 2 2.2208 7.89518 0.322338 7.77496
223 1 -1.1104 9.0989 -3.82168 9.40523
225 2 2.2208 7.76779 -2.27159 10.6239
227 1 -1.1104 9.26923 -0.779098 12.0967
228 1 -1.1104 9.34005 -1.11621 9.28952
312 2 2.2208 13.6032 0.369112 8.00375
9151 2 2.2208 13.5062 11.5091 2.29404
688 2 2.2208 13.5374 11.4395 13.5147
136 2 2.2208 10.896 20.1652 8.00469
202 2 2.2208 2.12262 -5.1221 7.76132
311 2 2.2208 7.83226 14.3983 10.5028
199 2 2.2208 13.5265 17.2854 2.37241
173 1 -1.1104 3.81798 1.53562 6.67299
239 1 -1.1104 3.67182 4.63859 6.27723
236 1 -1.1104 0.917175 4.55796 6.36076
177 1 -1.1104 0.942222 1.79827 12.1881
181 1 -1.1104 0.682167 1.81119 9.17664
187 2 2.2208 5.08684 3.14479 7.92861
191 1 -1.1104 3.55553 1.64181 11.998
194 1 -1.1104 3.52678 1.75505 9.15117
196 2 2.2208 2.20553 2.99938 10.6655
240 2 2.2208 5.23791 5.90625 10.4875
242 1 -1.1104 0.871437 7.27458 12.1664
244 1 -1.1104 0.733335 7.07483 9.40174
246 1 -1.1104 0.705315 4.50605 11.9062
251 1 -1.1104 0.93577 4.32624 9.03401
255 1 -1.1104 3.81626 7.13407 12.0651
256 2 2.2208 2.34209 5.7404 7.74964
260 1 -1.1104 3.6855 4.2835 11.9169
262 1 -1.1104 3.82462 4.56356 9.17009
258 1 -1.1104 3.69368 7.19031 9.32415
245 1 -1.1104 6.57839 7.26155 8.85753
248 1 -1.1104 6.61069 4.60353 11.9256
253 1 -1.1104 6.55574 4.40789 9.13785
183 1 -1.1104 6.22449 1.69396 9.17356
179 1 -1.1104 6.24681 1.68236 12.1521
322 2 2.2208 13.5487 19.9826 10.7755
705 2 2.2208 2.40059 5.75953 13.5656
327 2 2.2208 13.4956 0.128828 2.32999
694 2 2.2208 13.6148 5.96467 13.3778
243 1 -1.1104 6.57365 7.41606 11.8692
9064 2 2.2208 13.5965 14.3721 4.99303
213 1 -1.1104 12.0807 1.73391 11.7646
215 1 -1.1104 12.1667 1.8065 9.16641
218 2 2.2208 10.8047 3.1307 7.74974
221 1 -1.1104 9.19352 1.84826 12.2592
224 1 -1.1104 9.22013 1.82382 9.21297
226 2 2.2208 7.90599 3.13226 10.6359
268 1 -1.1104 9.41504 4.41516 9.25313
271 1 -1.1104 9.26723 4.73265 12.2477
275 2 2.2208 7.97193 5.67695 7.69239
276 2 2.2208 10.6349 6.0655 10.7149
280 1 -1.1104 12.1288 4.55564 12.0272
283 1 -1.1104 12.2079 4.70353 9.21222
285 1 -1.1104 9.39106 7.41798 12.0462
273 1 -1.1104 9.2346 7.31382 9.15289
279 1 -1.1104 12.0907 7.42081 9.03876
278 1 -1.1104 12.1213 7.41885 12.0674
682 2 2.2208 7.88168 5.95856 13.5244
704 2 2.2208 10.5705 3.22597 13.4534
701 2 2.2208 5.19119 8.73691 13.2833
241 2 2.2208 5.14043 11.7021 10.6648
247 1 -1.1104 1.01636 10.1677 11.885
250 2 2.2208 5.18199 8.79091 7.68523
252 1 -1.1104 0.920702 10.1608 9.28148
257 2 2.2208 2.47062 11.5584 7.8995
259 2 2.2208 2.3078 8.54146 10.6812
261 1 -1.1104 3.73572 10.0169 11.883
263 1 -1.1104 3.6734 10.0908 9.16955
287 1 -1.1104 3.63526 12.8242 12.1252
294 1 -1.1104 0.754082 13.0582 9.06423
299 1 -1.1104 0.910066 13.1317 12.131
305 1 -1.1104 3.59493 12.9793 9.2886
297 1 -1.1104 6.39062 12.9324 12.002
249 1 -1.1104 6.87103 10.077 12.1554
254 1 -1.1104 6.5293 10.181 9.25191
295 2 2.2208 4.96658 14.444 7.78232
697 2 2.2208 2.23489 17.2711 13.4382
317 2 2.2208 13.6424 20.0394 5.04302
233 1 -1.1104 9.4276 18.7027 9.31792
703 2 2.2208 10.8513 8.68806 13.3921
702 2 2.2208 8.0053 11.4743 13.5758
290 1 -1.1104 6.39711 13.0686 9.12796
154 1 -1.1104 9.39633 13.0837 6.273
230 1 -1.1104 9.30547 12.9499 9.06132
264 1 -1.1104 9.30559 10.2527 9.12092
270 1 -1.1104 9.64071 10.0553 11.9991
272 2 2.2208 7.97937 8.81466 10.4381
274 2 2.2208 7.98805 11.4745 7.8526
277 2 2.2208 10.9088 11.6882 10.6899
281 1 -1.1104 12.4278 10.2845 11.7258
282 2 2.2208 10.6753 8.79718 7.75053
284 1 -1.1104 12.1435 10.2446 8.88037
165 1 -1.1104 9.55881 12.9009 12.1448
49 1 -1.1104 12.3496 12.984 12.2081
53 1 -1.1104 12.2536 13.0218 9.23881
700 2 2.2208 7.95869 0.467639 13.628
229 2 2.2208 7.90038 17.2278 7.85256
9162 2 2.2208 13.453 -2.71618 5.23933
306 1 -1.1104 6.15495 15.832 12.2359
296 1 -1.1104 6.52081 18.7903 11.946
310 2 2.2208 2.17137 14.325 10.6699
286 1 -1.1104 3.73607 18.6186 11.9904
291 1 -1.1104 0.860926 18.6765 9.33019
292 1 -1.1104 0.821719 15.6725 9.46991
293 2 2.2208 5.11302 20.2635 7.82628
298 1 -1.1104 0.881823 18.7517 12.0451
300 2 2.2208 4.99657 17.2883 10.5238
301 1 -1.1104 3.70242 18.8738 9.30255
303 2 2.2208 2.34289 17.3166 7.96437
304 1 -1.1104 3.64537 15.9099 9.16162
307 1 -1.1104 0.814144 15.8105 12.3008
308 1 -1.1104 3.5493 15.8215 11.9072
309 2 2.2208 2.19427 19.9884 10.811
288 1 -1.1104 6.45246 18.7287 9.33224
289 1 -1.1104 6.55709 15.9606 9.33003
321 2 2.2208 13.5087 8.70485 10.4782
50 1 -1.1104 12.3522 18.5892 12.197
316 2 2.2208 7.95831 19.9589 10.7238
105 1 -1.1104 12.2242 15.6514 12.0392
9146 2 2.2208 13.5871 17.2328 8.01674
137 1 -1.1104 12.1774 15.8033 9.37539
145 1 -1.1104 12.2533 18.8592 6.8937
135 2 2.2208 10.7675 14.4363 7.70131
318 2 2.2208 13.4972 3.1764 10.5324
25 2 2.2208 10.6922 17.1784 10.7632
690 2 2.2208 10.822 14.3717 13.6357
314 1 -1.1104 9.45737 15.8893 9.09135
696 2 2.2208 5.01167 19.8636 13.5672
9512 2 2.2208 -0.4359 -2.61108 13.4889
232 2 2.2208 10.6571 -5.26146 10.8733
420 2 2.2208 10.6554 -2.25309 13.5638
9160 2 2.2208 -0.441644 8.52 7.82091
685 2 2.2208 -0.478586 20.0518 13.3555
203 2 2.2208 4.9565 -5.06018 10.5821
684 2 2.2208 -0.375516 8.70679 13.4809
9161 2 2.2208 -0.359231 3.2225 2.17334
335 2 2.2208 2.34692 -5.23443 13.4868
337 2 2.2208 13.5293 20.0615 -0.403987
342 2 2.2208 2.15264 19.9936 -0.377062
350 2 2.2208 5.06836 0.296117 16.366
351 1 -1.1104 0.968909 -4.1079 18.0335
355 1 -1.1104 1.07878 -3.93162 14.9284
363 1 -1.1104 0.698658 -1.12522 17.8318
365 2 2.2208 5.00448 -2.58735 19.2772
367 1 -1.1104 0.882653 -1.1571 14.8385
371 1 -1.1104 3.72427 -4.01815 17.7295
373 2 2.2208 2.28384 0.218625 19.2324
374 1 -1.1104 3.69332 -3.69259 14.8355
378 2 2.2208 2.36286 -2.44486 16.2897
380 1 -1.1104 3.40481 -1.15523 17.8729
381 1 -1.1104 3.65254 -1.13815 15.0398
382 1 -1.1104 3.51696 -1.18758 20.7382
353 1 -1.1104 6.42556 -3.95285 17.666
364 1 -1.1104 6.36833 -1.09867 17.6827
369 1 -1.1104 6.4771 -0.917491 14.9733
359 1 -1.1104 6.39739 -4.00375 14.8374
370 1 -1.1104 6.49924 -1.22522 20.6115
360 1 -1.1104 6.51979 -3.84394 20.4535
356 1 -1.1104 0.878695 -4.04637 20.7338
375 1 -1.1104 3.73069 -4.11281 20.5732
368 1 -1.1104 0.748302 -1.37193 20.5554
9216 2 2.2208 13.4944 11.378 24.8312
393 2 2.2208 10.5613 0.252103 16.4295
394 1 -1.1104 12.0976 -4.09627 17.9327
396 1 -1.1104 12.0652 -4.02379 15.1959
400 1 -1.1104 12.1207 -1.12314 17.9274
401 2 2.2208 10.6502 -2.47461 19.3948
403 1 -1.1104 11.9 -1.27162 15.0837
405 1 -1.1104 9.48154 -3.90487 17.9118
407 2 2.2208 7.91345 0.086265 19.2295
408 1 -1.1104 9.0845 -3.87231 15.2702
412 2 2.2208 7.80605 -2.35128 16.3473
414 1 -1.1104 9.19469 -1.1765 17.8497
415 1 -1.1104 9.25741 -0.925342 14.8995
397 1 -1.1104 12.1042 -3.91141 20.4216
404 1 -1.1104 12.0051 -1.04446 20.6748
409 1 -1.1104 9.21795 -4.18542 20.7704
680 2 2.2208 10.5699 -5.31042 27.5985
347 2 2.2208 2.50864 8.69201 27.6722
332 2 2.2208 7.88023 19.9069 27.5735
416 1 -1.1104 9.12547 -1.41635 20.7142
549 2 2.2208 10.9607 14.3378 24.6994
352 1 -1.1104 1.00193 1.76211 17.7253
357 1 -1.1104 0.834895 1.49524 15.0789
366 2 2.2208 5.07094 2.99544 19.073
372 1 -1.1104 3.78537 1.53813 17.7506
376 1 -1.1104 3.6721 1.84553 15.0278
379 2 2.2208 2.2762 3.06377 16.245
426 2 2.2208 5.20643 5.76012 16.2912
434 1 -1.1104 0.947449 4.59165 17.4609
439 1 -1.1104 0.731945 4.22323 14.7192
448 2 2.2208 2.10797 5.84553 19.1199
450 1 -1.1104 3.72563 7.4547 14.7584
453 1 -1.1104 3.78085 4.42878 17.5432
455 1 -1.1104 3.86975 4.48629 14.8104
447 1 -1.1104 3.52731 7.39539 17.6338
428 1 -1.1104 0.555038 7.63646 17.531
430 1 -1.1104 0.950037 7.29247 14.9734
451 1 -1.1104 3.68071 7.16175 20.2732
432 1 -1.1104 6.58958 7.34478 14.8762
361 1 -1.1104 6.43472 1.82646 14.9459
377 1 -1.1104 3.52946 1.70392 20.5645
456 1 -1.1104 3.50029 4.47727 20.5444
443 1 -1.1104 6.60199 4.5172 14.8656
440 1 -1.1104 0.643893 4.32427 20.2659
358 1 -1.1104 0.518781 1.59853 20.6065
431 1 -1.1104 0.825352 7.59524 20.6454
429 1 -1.1104 6.51072 7.24436 17.5683
436 1 -1.1104 6.66007 4.36714 17.7927
433 1 -1.1104 6.3838 7.28428 20.7041
444 1 -1.1104 6.28484 4.4152 20.522
354 1 -1.1104 6.63804 1.62021 17.8385
362 1 -1.1104 6.25966 1.50413 20.6688
395 1 -1.1104 12.0525 1.66724 17.6183
398 1 -1.1104 12.052 1.82298 14.7872
402 2 2.2208 10.4786 3.07163 19.2332
406 1 -1.1104 9.34267 1.59491 17.875
410 1 -1.1104 9.12617 1.76713 14.9771
413 2 2.2208 7.958 3.16394 16.3497
462 2 2.2208 10.8673 5.93295 16.4868
464 1 -1.1104 12.0251 7.21594 17.8773
467 1 -1.1104 11.9094 4.48328 17.9025
470 1 -1.1104 12.083 4.54694 14.8589
475 2 2.2208 7.85049 5.85499 19.1446
480 1 -1.1104 9.38215 4.6082 17.7622
482 1 -1.1104 9.48013 4.50486 15.0786
465 1 -1.1104 12.1689 7.16092 14.9196
474 1 -1.1104 9.39323 7.28462 17.6562
477 1 -1.1104 9.34913 7.39045 14.9612
411 1 -1.1104 9.2607 1.70621 20.6431
399 1 -1.1104 12.0655 1.79195 20.5211
466 1 -1.1104 12.1959 7.29645 20.6712
471 1 -1.1104 12.0004 4.33047 20.6736
478 1 -1.1104 9.47518 7.21376 20.4565
678 2 2.2208 13.6391 17.1802 24.6659
418 2 2.2208 10.6298 -5.29936 16.5451
427 2 2.2208 5.14335 11.615 16.1492
435 1 -1.1104 1.02893 10.1423 17.6494
438 2 2.2208 5.04833 8.86528 19.0672
441 1 -1.1104 0.790817 10.0607 14.7279
449 2 2.2208 2.37635 11.7578 19.0981
452 2 2.2208 2.31585 8.67256 16.2054
454 1 -1.1104 3.64733 10.1841 17.4557
457 1 -1.1104 3.66965 10.2253 14.5002
490 1 -1.1104 0.810533 12.9052 17.721
494 1 -1.1104 1.0165 12.8789 14.974
510 1 -1.1104 3.61063 13.1688 17.623
513 1 -1.1104 3.46143 12.9102 14.9531
492 1 -1.1104 6.56483 13.0147 17.4502
498 1 -1.1104 6.37736 12.855 14.6708
437 1 -1.1104 6.45762 10.0835 17.5506
445 1 -1.1104 6.58657 10.0981 14.9121
442 1 -1.1104 1.03879 10.2808 20.4943
495 1 -1.1104 0.977317 13.1522 20.4545
499 1 -1.1104 6.33041 12.9324 20.2925
458 1 -1.1104 3.8818 10.2558 20.5497
514 1 -1.1104 3.76498 13.1549 20.3749
446 1 -1.1104 6.69948 10.0549 20.4327
463 2 2.2208 10.9029 11.5244 16.3752
468 1 -1.1104 12.2726 10.2898 17.6596
469 2 2.2208 10.9431 8.69015 19.1366
472 1 -1.1104 12.2452 9.99148 14.6301
476 2 2.2208 8.2579 11.4433 19.0699
479 2 2.2208 8.00511 8.7495 16.2659
481 1 -1.1104 9.715 10.1461 17.7511
484 1 -1.1104 9.56741 10.0571 14.828
526 1 -1.1104 12.1422 13.0207 17.5195
528 1 -1.1104 12.3615 12.7411 14.8707
537 1 -1.1104 9.16218 13.069 17.7389
540 1 -1.1104 9.18671 12.7434 15.0002
607 1 -1.1104 9.68904 18.5575 26.2459
485 1 -1.1104 9.4375 9.97947 20.5144
541 1 -1.1104 9.12566 13.0789 20.6266
348 2 2.2208 10.7169 11.4574 27.5783
504 2 2.2208 5.07125 14.4244 18.9695
517 2 2.2208 2.17182 14.4905 16.5017
489 2 2.2208 5.16363 17.2538 16.2987
491 1 -1.1104 0.9762 18.7455 17.7014
496 1 -1.1104 0.799192 18.6144 14.8644
502 1 -1.1104 0.915805 15.7816 17.8328
505 2 2.2208 5.27225 19.8169 19.0604
506 1 -1.1104 0.993021 15.8947 14.9284
511 1 -1.1104 3.73474 18.7408 17.6684
512 2 2.2208 2.25663 17.4581 19.058
515 1 -1.1104 3.56968 18.4105 14.8442
518 2 2.2208 2.15031 19.952 16.1487
519 1 -1.1104 3.70699 15.99 17.6203
520 1 -1.1104 3.77994 15.7605 14.9013
503 1 -1.1104 6.48617 15.6752 17.6948
521 1 -1.1104 3.67134 15.9244 20.3264
500 1 -1.1104 6.45438 18.6415 14.84
507 1 -1.1104 0.80532 15.7685 20.7423
501 1 -1.1104 6.73358 18.2711 20.4497
497 1 -1.1104 0.778425 18.514 20.5966
508 1 -1.1104 6.63897 15.714 14.8942
509 1 -1.1104 6.59525 15.5524 20.4725
516 1 -1.1104 3.70805 18.6758 20.4205
647 2 2.2208 13.3915 8.77741 16.2481
493 1 -1.1104 6.5989 18.4557 17.7611
533 2 2.2208 10.821 14.4297 19.1648
544 2 2.2208 7.96841 14.3757 16.2574
525 2 2.2208 10.8537 17.0863 16.4702
527 1 -1.1104 12.4276 18.6215 17.9213
530 1 -1.1104 12.4698 18.4733 14.8673
532 1 -1.1104 11.9587 15.8148 17.8456
534 2 2.2208 10.8091 20.0189 19.3663
535 1 -1.1104 12.2302 15.7763 14.754
538 1 -1.1104 9.48076 18.6972 17.5664
539 2 2.2208 7.84682 16.9957 19.1324
542 1 -1.1104 9.40918 18.3158 14.8518
545 2 2.2208 7.97729 19.8793 16.2174
546 1 -1.1104 9.2442 15.8565 17.7282
547 1 -1.1104 9.63014 15.5365 15.135
536 1 -1.1104 12.2398 15.6842 20.4707
548 1 -1.1104 9.31546 16.0249 20.5117
340 2 2.2208 2.24869 14.49 27.5725
543 1 -1.1104 9.34956 18.771 20.582
677 2 2.2208 13.5313 11.5198 19.0637
674 2 2.2208 13.4895 3.04037 16.1942
523 1 -1.1104 12.3022 18.5156 26.3444
383 2 2.2208 13.591 14.278 16.2144
553 2 2.2208 5.07487 0.163245 21.9418
554 1 -1.1104 0.78919 -4.08557 23.566
558 1 -1.1104 0.661811 -4.04211 26.3659
562 1 -1.1104 1.00812 -1.0396 23.4486
564 2 2.2208 5.16363 -2.48583 24.7887
566 1 -1.1104 0.86066 -0.989403 26.3393
568 1 -1.1104 3.64566 -4.11359 23.4499
570 2 2.2208 2.29551 0.38768 24.8378
571 1 -1.1104 3.62559 -4.01987 26.3153
573 2 2.2208 2.18591 -2.6225 21.9621
575 1 -1.1104 3.59985 -1.16801 23.4649
576 1 -1.1104 3.66714 -0.948384 26.396
556 1 -1.1104 6.50788 -3.79543 23.6364
567 1 -1.1104 6.62415 -1.35566 26.1523
560 1 -1.1104 6.67591 -4.19939 26.2049
324 2 2.2208 2.09714 -2.58455 27.4821
319 2 2.2208 5.16837 0.0436121 27.7741
201 2 2.2208 5.16424 5.89249 27.5496
586 2 2.2208 13.5181 5.74548 19.2503
563 1 -1.1104 6.45372 -1.10009 23.3861
589 2 2.2208 10.6488 0.296658 22.0666
590 1 -1.1104 12.2632 -3.89582 23.494
592 1 -1.1104 12.1525 -3.95384 26.2585
594 1 -1.1104 12.1015 -1.09482 23.4437
595 2 2.2208 10.8602 -2.62669 24.9148
597 1 -1.1104 12.1154 -1.29517 26.3371
598 1 -1.1104 9.51672 -4.09773 23.5023
600 2 2.2208 8.0958 0.282605 24.7757
601 1 -1.1104 9.29148 -3.93622 26.1736
603 2 2.2208 7.89075 -2.65353 22.1448
605 1 -1.1104 9.4097 -1.30038 23.2365
606 1 -1.1104 9.26851 -1.17961 26.2275
333 2 2.2208 13.4566 8.61507 27.3655
339 2 2.2208 8.10304 14.4002 27.4807
488 1 -1.1104 12.1575 18.5062 23.4567
334 2 2.2208 7.97719 -2.70873 27.713
329 2 2.2208 10.5851 0.240694 27.6818
524 1 -1.1104 12.1548 15.7468 23.2277
555 1 -1.1104 0.631052 1.7601 23.3183
559 1 -1.1104 1.10106 1.82218 26.0997
565 2 2.2208 5.00618 2.94497 24.8348
569 1 -1.1104 3.62362 1.74363 23.2861
572 1 -1.1104 3.75419 1.75362 26.1796
574 2 2.2208 2.15609 3.04913 21.8696
618 2 2.2208 5.11659 5.93787 22.0081
620 1 -1.1104 0.818791 7.40591 23.3079
622 1 -1.1104 0.969086 7.26576 26.2082
624 1 -1.1104 0.859656 4.51766 23.1942
629 1 -1.1104 1.01724 4.51491 26.0403
634 2 2.2208 2.30848 5.91713 24.7123
638 1 -1.1104 3.61687 4.61555 23.4695
640 1 -1.1104 3.84018 4.48647 26.2457
636 1 -1.1104 3.71886 7.33651 26.2928
633 1 -1.1104 3.72074 7.33572 23.3668
621 1 -1.1104 6.67923 7.39415 23.4581
561 1 -1.1104 6.485 1.24314 26.4995
631 1 -1.1104 6.64963 4.1842 26.1095
557 1 -1.1104 6.42778 1.62773 23.4352
623 1 -1.1104 6.57245 7.31834 26.1425
626 1 -1.1104 6.33143 4.43983 23.325
325 2 2.2208 2.30599 2.84356 27.561
390 2 2.2208 13.6433 19.8384 16.4317
320 2 2.2208 7.83793 2.92184 27.7202
81 2 2.2208 10.5161 5.76816 27.6459
577 1 -1.1104 9.33333 18.492 23.3435
483 1 -1.1104 8.97107 4.52894 20.6687
591 1 -1.1104 12.1914 1.55436 23.4754
593 1 -1.1104 12.1425 1.45766 26.2363
596 2 2.2208 10.7641 3.0154 24.8877
599 1 -1.1104 9.35845 1.64166 23.438
602 1 -1.1104 9.17036 1.65818 26.4208
604 2 2.2208 7.69008 3.12596 22.0501
650 1 -1.1104 9.44805 4.46603 26.3093
652 1 -1.1104 9.111 4.31782 23.2951
656 2 2.2208 7.82223 5.74321 24.8965
657 2 2.2208 10.645 5.85634 22.0412
659 1 -1.1104 12.1463 7.44036 23.2143
661 1 -1.1104 12.0056 4.53943 23.5227
664 1 -1.1104 12.2391 4.19514 26.1198
660 1 -1.1104 12.1053 7.22278 25.9988
666 1 -1.1104 9.36876 7.22144 23.477
654 1 -1.1104 9.32355 7.2998 26.5304
9505 2 2.2208 13.5392 -5.31768 19.0226
204 2 2.2208 13.5557 3.07175 27.73
9508 2 2.2208 13.4007 0.312141 19.0443
343 2 2.2208 5.2473 11.8208 27.576
619 2 2.2208 5.45528 11.6708 21.8486
625 1 -1.1104 1.03298 10.2718 23.3319
628 2 2.2208 5.12798 8.86605 24.7019
630 1 -1.1104 1.07859 10.2535 26.2635
635 2 2.2208 2.37336 11.7435 24.7553
637 2 2.2208 2.36629 8.8558 21.7539
639 1 -1.1104 3.93562 10.5758 23.3256
641 1 -1.1104 3.91336 10.2009 26.0557
392 1 -1.1104 0.879838 13.2617 23.3976
486 1 -1.1104 0.822608 13.0731 25.866
669 1 -1.1104 3.57147 12.8874 26.4061
670 1 -1.1104 3.7631 13.2193 23.4704
424 1 -1.1104 6.59044 13.0078 23.3262
632 1 -1.1104 6.66067 10.1128 26.2457
627 1 -1.1104 6.60177 10.2073 23.4735
672 1 -1.1104 6.69212 13.1256 26.1957
550 2 2.2208 10.8062 19.9969 24.9721
473 1 -1.1104 12.196 10.1608 20.4637
346 2 2.2208 7.86663 8.71903 27.7288
422 2 2.2208 13.5707 19.954 22.1138
529 1 -1.1104 11.9601 12.8188 20.2465
617 1 -1.1104 12.1518 13.011 23.2366
552 1 -1.1104 9.43518 12.9632 23.5441
649 1 -1.1104 9.35452 10.1368 26.0851
651 1 -1.1104 9.26966 10.116 23.1094
653 2 2.2208 7.977 8.64057 21.9554
655 2 2.2208 7.86652 11.6174 24.7791
658 2 2.2208 10.5962 11.5607 21.995
662 1 -1.1104 12.0245 10.3699 23.515
663 2 2.2208 10.7441 8.87601 24.6799
665 1 -1.1104 12.0909 10.0543 26.3155
585 1 -1.1104 9.34828 12.8826 26.3947
522 1 -1.1104 12.1433 12.6466 26.0398
609 2 2.2208 8.05579 20.0571 22.1048
646 1 -1.1104 6.44926 15.868 26.1331
487 2 2.2208 13.6169 17.088 19.1401
341 2 2.2208 5.23706 17.2554 27.6322
579 1 -1.1104 6.49947 18.706 26.1912
461 1 -1.1104 6.55428 18.6138 23.5317
425 2 2.2208 5.16118 14.5935 24.7238
386 2 2.2208 2.21898 17.3614 24.6472
388 1 -1.1104 3.56459 18.6108 26.0906
391 2 2.2208 5.15671 17.2143 21.8562
423 1 -1.1104 0.769249 18.7444 23.3664
460 2 2.2208 5.03767 19.9394 24.7365
580 1 -1.1104 0.919296 15.868 26.0965
588 1 -1.1104 0.91688 18.7405 26.0988
644 2 2.2208 2.38959 14.4965 22.0541
645 2 2.2208 2.46741 20.1017 21.9262
648 1 -1.1104 3.51659 15.9448 23.2003
667 1 -1.1104 0.808575 16.1138 23.3811
671 1 -1.1104 3.73403 15.8972 26.1131
673 1 -1.1104 3.70201 18.6463 23.1281
668 1 -1.1104 6.69425 15.7941 23.2785
9502 2 2.2208 -0.421428 -5.33422 16.507
344 2 2.2208 10.8498 17.1001 27.6817
611 2 2.2208 13.4854 -2.5836 16.5003
531 1 -1.1104 12.0762 18.6092 20.59
421 2 2.2208 13.5998 0.329965 24.6429
9173 2 2.2208 13.5225 -2.45793 27.7919
551 1 -1.1104 12.1117 15.6461 26.1988
615 1 -1.1104 9.41186 15.8108 26.3867
578 2 2.2208 7.98664 17.3249 24.9673
643 2 2.2208 10.6627 17.2428 21.9284
614 1 -1.1104 9.33759 15.9169 23.4068
608 2 2.2208 7.93711 14.606 21.8301
9215 2 2.2208 -0.382304 20.1227 24.6886
581 2 2.2208 -0.21943 11.5788 22.076
681 2 2.2208 13.6423 5.73896 24.7352
459 2 2.2208 -0.35613 8.78615 24.8129
582 2 2.2208 13.5658 3.02449 21.884
679 2 2.2208 13.3055 -2.49679 22.0656
676 2 2.2208 13.6166 14.3784 21.8582
706 2 2.2208 5.2343 22.798 5.06646
708 1 -1.1104 0.640891 24.2347 0.971363
709 1 -1.1104 0.929545 24.1282 3.78999
710 1 -1.1104 0.930159 21.4222 0.888645
712 2 2.2208 5.15798 25.447 2.14099
713 1 -1.1104 0.872783 21.3262 3.61038
715 1 -1.1104 3.58222 24.105 0.973022
716 2 2.2208 2.35231 22.5144 2.36936
718 1 -1.1104 3.92127 24.0923 3.48778
719 2 2.2208 2.28049 25.6158 5.10036
720 1 -1.1104 3.70772 21.2758 1.00743
722 1 -1.1104 3.84809 21.2089 3.82306
723 1 -1.1104 3.42246 27.2227 3.82781
853 1 -1.1104 4.04662 24.3669 6.34996
854 1 -1.1104 3.6352 21.4742 6.44279
850 1 -1.1104 0.997045 27.0033 6.4159
727 1 -1.1104 6.64712 24.0959 0.98077
728 1 -1.1104 6.70882 24.3247 3.86628
714 1 -1.1104 0.80394 26.8072 3.73988
855 1 -1.1104 3.7805 26.9924 6.64619
721 1 -1.1104 3.80098 26.9556 0.71852
849 1 -1.1104 0.989316 21.3101 6.33057
730 1 -1.1104 6.49135 27.0337 0.962646
711 1 -1.1104 0.885465 26.9648 0.766707
852 1 -1.1104 6.79166 27.1275 6.34966
966 1 -1.1104 7.24835 43.9369 9.1817
1034 2 2.2208 13.558 22.8389 2.31033
729 1 -1.1104 6.57218 21.2333 0.800931
731 1 -1.1104 6.70827 21.3826 3.74787
732 1 -1.1104 6.34454 27.0042 3.57117
848 1 -1.1104 6.88896 24.2812 6.50633
733 2 2.2208 11.0456 22.9261 5.04581
735 1 -1.1104 11.8318 24.0884 0.933174
736 1 -1.1104 12.3472 24.3056 3.69878
737 1 -1.1104 12.1842 21.4843 0.905393
739 2 2.2208 10.7174 25.8674 2.2185
740 1 -1.1104 12.2517 21.4453 3.5542
742 1 -1.1104 9.27657 24.4732 0.720483
743 2 2.2208 8.09954 23.0293 2.36385
745 1 -1.1104 9.56954 24.3636 3.64343
746 2 2.2208 8.11594 25.6134 5.06025
747 1 -1.1104 9.28681 21.6767 0.867764
749 1 -1.1104 9.46317 21.6053 3.70941
883 1 -1.1104 9.69075 24.1921 6.42639
750 1 -1.1104 9.32031 27.0558 3.66021
880 1 -1.1104 12.3859 24.0767 6.56449
741 1 -1.1104 12.2488 27.0857 3.55281
851 1 -1.1104 6.61506 21.6371 6.464
881 1 -1.1104 12.2068 21.4939 6.47334
884 1 -1.1104 9.41808 21.6249 6.58534
738 1 -1.1104 12.2031 27.1171 0.646821
1000 1 -1.1104 9.15341 44.1117 12.043
707 2 2.2208 5.08874 28.2311 5.08686
717 2 2.2208 2.4019 28.4782 2.34229
755 1 -1.1104 0.957078 29.8375 1.06645
758 1 -1.1104 0.962339 29.8203 3.78069
761 1 -1.1104 0.940642 32.7917 0.638729
762 2 2.2208 5.02258 31.3255 2.29162
764 1 -1.1104 1.15688 32.5788 3.71845
766 1 -1.1104 3.58393 29.7677 0.800015
769 1 -1.1104 3.77956 30.103 3.63023
771 2 2.2208 2.32226 31.2752 5.16636
773 1 -1.1104 3.67801 32.6011 0.871144
774 1 -1.1104 3.76722 32.6178 3.59841
904 1 -1.1104 1.07085 29.7725 6.66158
910 1 -1.1104 3.93688 29.852 6.37393
908 1 -1.1104 1.0824 32.8275 6.44531
912 1 -1.1104 3.64909 32.8384 6.41021
909 1 -1.1104 6.48311 32.6908 6.49549
1206 2 2.2208 10.972 37.0727 13.5729
1035 2 2.2208 13.643 28.4076 2.27359
748 1 -1.1104 9.36321 27.1582 0.813175
882 1 -1.1104 12.1622 27.055 6.50521
779 1 -1.1104 6.56714 29.8108 3.68536
778 1 -1.1104 6.4088 29.8922 0.956162
780 1 -1.1104 6.62198 32.5573 0.926561
765 1 -1.1104 6.62059 32.9399 3.75132
734 2 2.2208 10.7854 28.4132 5.12686
744 2 2.2208 7.98958 28.4555 2.25669
782 1 -1.1104 12.1942 29.8808 0.961666
784 1 -1.1104 12.3107 30.0225 3.67728
786 1 -1.1104 12.4014 32.8235 0.829808
787 2 2.2208 10.9068 31.4664 2.24627
789 1 -1.1104 12.206 32.9721 3.5731
790 1 -1.1104 9.38127 29.8475 0.78958
793 1 -1.1104 9.49198 29.8779 3.40319
795 2 2.2208 8.07424 31.1077 4.96705
797 1 -1.1104 9.80411 32.6857 1.0809
798 1 -1.1104 9.3196 32.5196 3.68902
943 1 -1.1104 9.32647 32.974 6.4194
938 1 -1.1104 12.1755 29.9419 6.33981
941 1 -1.1104 9.43507 29.8586 6.28576
1007 1 -1.1104 12.2395 44.0704 8.9946
940 1 -1.1104 12.0916 32.8841 6.38256
754 2 2.2208 5.11119 34.0817 5.00248
756 1 -1.1104 1.09716 35.5266 0.774331
759 1 -1.1104 0.692921 35.7783 3.94369
763 2 2.2208 5.16653 36.7959 2.24368
767 1 -1.1104 3.86485 35.2764 0.956606
768 2 2.2208 2.25593 33.9353 2.2494