LAMMPS (29 Oct 2020)
OMP_NUM_THREADS environment is not set. Defaulting to 1 thread. (../comm.cpp:94)
  using 1 OpenMP thread(s) per MPI task
OMP_NUM_THREADS environment is not set. Defaulting to 1 thread. (../comm.cpp:94)
  using 1 OpenMP thread(s) per MPI task
Reading data file ...
  triclinic box = (-0.22158292 -2.7339610 -0.22431195) to (28.115583 337.46196 28.118312) with tilt (0.0000000 0.0000000 0.0000000)
  2 by 13 by 2 MPI processor grid
  reading atoms ...
  18000 atoms
  reading velocities ...
  18000 velocities
Finding 1-2 1-3 1-4 neighbors ...
  special bond factors lj:    0.0      0.0      0.0     
  special bond factors coul:  0.0      0.0      0.0     
     0 = max # of 1-2 neighbors
     0 = max # of 1-3 neighbors
     0 = max # of 1-4 neighbors
     1 = max # of special neighbors
  special bonds CPU = 0.004 seconds
  read_data CPU = 0.100 seconds
Setting atom values ...
  12000 settings made for charge
Setting atom values ...
  6000 settings made for charge
PPPM initialization ...
  using 12-bit tables for long-range coulomb (../kspace.cpp:328)
  G vector (1/distance) = 0.29827299
  grid = 40 240 40
  stencil order = 5
  estimated absolute RMS force accuracy = 0.00016234912
  estimated relative force accuracy = 1.1274522e-05
  using single precision MKL FFT
  3d grid and FFT values/proc = 15000 7600
Neighbor list info ...
  update every 1 steps, delay 0 steps, check yes
  max neighbors/atom: 2000, page size: 100000
  master list distance cutoff = 11.3
  ghost atom cutoff = 11.3
  binsize = 5.65, bins = 6 61 6
  2 neighbor lists, perpetual/occasional/extra = 2 0 0
  (1) pair coul/long, perpetual
      attributes: half, newton on
      pair build: half/bin/newton/tri
      stencil: half/bin/3d/newton/tri
      bin: standard
  (2) pair eam/alloy, perpetual, copy from (1)
      attributes: half, newton on
      pair build: copy
      stencil: none
      bin: none
Setting up Verlet run ...
  Unit style    : metal
  Current step  : 0
  Time step     : 0.001
Per MPI rank memory allocation (min/avg/max) = 8.314 | 8.341 | 8.359 Mbytes
Step Temp E_pair E_mol TotEng Press 
       0         1500   -232851.88            0   -229362.05    641.81142 
  100000     1495.834   -232835.52            0   -229355.39    691.22844 
Loop time of 681.136 on 52 procs for 100000 steps with 18000 atoms

Performance: 12.685 ns/day, 1.892 hours/ns, 146.814 timesteps/s
99.8% CPU use with 52 MPI tasks x 1 OpenMP threads

MPI task timing breakdown:
Section |  min time  |  avg time  |  max time  |%varavg| %total
---------------------------------------------------------------
Pair    | 446.96     | 455.52     | 469.48     |  24.6 | 66.88
Bond    | 0.0069469  | 0.010044   | 0.013832   |   1.8 |  0.00
Kspace  | 126.15     | 142.08     | 151.55     |  52.9 | 20.86
Neigh   | 59.262     | 62.017     | 65.69      |  22.4 |  9.10
Comm    | 15.219     | 17.048     | 19.653     |  27.3 |  2.50
Output  | 5.506e-05  | 6.1501e-05 | 0.00030487 |   0.0 |  0.00
Modify  | 1.7876     | 3.1452     | 5.4487     |  71.9 |  0.46
Other   |            | 1.317      |            |       |  0.19

Nlocal:        346.154 ave         366 max         330 min
Histogram: 3 6 7 12 4 6 5 1 5 3
Nghost:        3975.08 ave        4079 max        3905 min
Histogram: 6 9 8 6 9 2 0 4 4 4
Neighs:        69556.2 ave       73952 max       66128 min
Histogram: 5 6 6 9 7 8 2 2 3 4

Total # of neighbors = 3616921
Ave neighs/atom = 200.94006
Ave special neighs/atom = 0.0000000
Neighbor list builds = 24991
Dangerous builds = 0
12000 atoms in group oxygen
PPPM initialization ...
  using 12-bit tables for long-range coulomb (../kspace.cpp:328)
  G vector (1/distance) = 0.29827299
  grid = 40 240 40
  stencil order = 5
  estimated absolute RMS force accuracy = 0.00016234912
  estimated relative force accuracy = 1.1274522e-05
  using single precision MKL FFT
  3d grid and FFT values/proc = 15000 7600
Setting up Verlet run ...
  Unit style    : metal
  Current step  : 0
  Time step     : 0.001
Per MPI rank memory allocation (min/avg/max) = 8.564 | 8.592 | 8.610 Mbytes
Step f_2 Temp v_Tdiff v_deltaT 
       0            0     1495.834            0            0 
  100000    1604.5746    1510.6664  0.067773991    786.84974 
  200000    3108.7299    1495.1218  0.080118524    930.16862 
  300000    4609.3704    1499.6199  0.081010324    940.52234 
  400000    6099.6995    1497.8763  0.079863367    927.20627 
  500000    7583.0235    1502.3235  0.083104053    964.83034 
  600000    9091.6467     1504.115  0.080179354    930.87485 
  700000    10601.097    1507.4689  0.081810321    949.81023 
  800000    12097.282    1515.7033  0.081382165    944.83938 
  900000    13602.784    1501.6911  0.082073219    952.86245 
 1000000    15096.101    1505.3267  0.082679263    959.89856 
 1100000    16601.728    1510.1271  0.082268789    955.13299 
 1200000    18100.727    1500.0394  0.082895681    962.41116 
 1300000    19604.342    1514.2327  0.080597798    935.73295 
 1400000    21097.571    1513.5924   0.08439667     979.8375 
 1500000    22605.785    1508.5976  0.082466517     957.4286 
Loop time of 10126.3 on 52 procs for 1500000 steps with 18000 atoms

Performance: 12.798 ns/day, 1.875 hours/ns, 148.130 timesteps/s
99.8% CPU use with 52 MPI tasks x 1 OpenMP threads

MPI task timing breakdown:
Section |  min time  |  avg time  |  max time  |%varavg| %total
---------------------------------------------------------------
Pair    | 6651.1     | 6752.6     | 6868.4     |  60.1 | 66.68
Bond    | 0.099791   | 0.14838    | 0.21171    |   6.3 |  0.00
Kspace  | 2001.9     | 2120.1     | 2221.6     | 124.7 | 20.94
Neigh   | 905.92     | 942.99     | 995.75     |  69.8 |  9.31
Comm    | 235.92     | 253.35     | 303.9      | 114.3 |  2.50
Output  | 0.0015593  | 0.0016568  | 0.0035026  |   0.6 |  0.00
Modify  | 8.0441     | 8.8768     | 9.8544     |  14.3 |  0.09
Other   |            | 48.23      |            |       |  0.48

Nlocal:        346.154 ave         366 max         333 min
Histogram: 6 11 5 11 2 4 4 0 4 5
Nghost:        3977.29 ave        4082 max        3914 min
Histogram: 6 9 9 10 4 4 2 1 4 3
Neighs:        69517.6 ave       73721 max       66537 min
Histogram: 4 9 8 8 8 3 2 4 2 4

Total # of neighbors = 3614917
Ave neighs/atom = 200.82872
Ave special neighs/atom = 0.0000000
Neighbor list builds = 380103
Dangerous builds = 0
Total wall time: 3:00:08
