ITEM: TIMESTEP
100000
ITEM: NUMBER OF ATOMS
18000
ITEM: BOX BOUNDS xy xz yz pp pp pp
-1.2973998723180649e-01 2.8023739987231334e+01 0.0000000000000000e+00
-1.6602044688260882e+00 3.3638820446881476e+02 0.0000000000000000e+00
-1.3244430734054308e-01 2.8026444307339919e+01 0.0000000000000000e+00
ITEM: ATOMS id type q mass x y z
217 1 -1.1104 15.9994 2.73495 -1.55054 6.47737
306 1 -1.1104 15.9994 0.714806 -1.16453 12.638
803 1 -1.1104 15.9994 1.38673 21.8343 4.39553
4 1 -1.1104 15.9994 7.05001 21.9183 12.4253
5 1 -1.1104 15.9994 4.21605 21.814 12.5306
6 1 -1.1104 15.9994 1.3021 21.64 12.7046
356 2 2.2208 232.038 11.2183 3.21154 -0.0479315
8 2 2.2208 232.038 5.44224 0.432784 2.70351
9 1 -1.1104 15.9994 12.7942 18.9285 12.4587
10 2 2.2208 232.038 11.1245 0.480779 2.70004
128 1 -1.1104 15.9994 1.15056 -1.07201 4.16127
489 1 -1.1104 15.9994 8.57698 11.2935 13.285
13 2 2.2208 232.038 2.76535 3.27993 2.89093
14 3 -1.1104 15.9994 9.64916 10.3407 1.37444
15 1 -1.1104 15.9994 12.6037 15.8443 12.5459
16 1 -1.1104 15.9994 9.97169 16.4432 12.5354
17 2 2.2208 232.038 8.32037 3.00475 2.83213
18 2 2.2208 232.038 5.06555 6.17403 2.7281
19 1 -1.1104 15.9994 7.16537 19.0361 12.6152
20 2 2.2208 232.038 11.3927 6.32505 2.59309
21 4 2.2208 232.038 2.76529 17.6169 2.29306
22 2 2.2208 232.038 2.54868 12.4121 0.706789
23 2 2.2208 232.038 2.60767 9.22229 2.77477
24 4 2.2208 232.038 8.1347 6.07547 2.88462
39 3 -1.1104 15.9994 9.82671 -0.989212 1.39994
26 1 -1.1104 15.9994 9.67052 13.7856 12.5622
27 2 2.2208 232.038 8.41919 9.15534 2.86565
28 2 2.2208 232.038 5.53959 11.8314 2.9413
29 1 -1.1104 15.9994 6.92059 16.1962 12.5715
30 2 2.2208 232.038 11.2308 11.75 2.58426
31 3 -1.1104 15.9994 4.0281 16.149 12.5233
32 1 -1.1104 15.9994 4.28844 18.9658 12.7032
33 2 2.2208 232.038 2.65035 14.4278 3.54519
34 3 -1.1104 15.9994 4.12868 5.71634 9.65853
487 1 -1.1104 15.9994 10.4942 8.93034 13.2857
8995 2 2.2208 232.038 13.9696 5.98788 5.63468
37 2 2.2208 232.038 8.324 14.5412 2.8624
38 2 2.2208 232.038 5.8865 17.6645 2.94286
9274 3 -1.1104 15.9994 1.32658 4.6 6.68625
40 2 2.2208 232.038 11.186 17.5472 2.84098
41 1 -1.1104 15.9994 1.37289 18.9229 12.3259
42 2 2.2208 232.038 2.62418 23.5212 0.435884
43 2 2.2208 232.038 2.73298 20.8345 2.7278
44 1 -1.1104 15.9994 3.43558 13.4542 10.2306
220 1 -1.1104 15.9994 1.07712 0.511093 6.63468
46 1 -1.1104 15.9994 1.16133 16.0576 12.8511
47 2 2.2208 232.038 8.30925 20.4985 2.75175
48 2 2.2208 232.038 5.62736 23.3722 2.79916
216 1 -1.1104 15.9994 0.875718 -1.5343 8.44257
50 2 2.2208 232.038 11.2794 23.0256 2.52588
644 1 -1.1104 15.9994 4.42816 13.4832 1.73191
52 2 2.2208 232.038 2.88877 0.501837 5.04859
333 1 -1.1104 15.9994 12.3308 13.2267 12.7397
54 4 2.2208 232.038 2.73271 0.250904 8.16833
485 1 -1.1104 15.9994 4.16582 13.3556 12.8146
56 2 2.2208 232.038 8.40271 0.253731 5.65187
8976 2 2.2208 232.038 13.9041 20.3867 2.66187
58 2 2.2208 232.038 6.03181 0.450021 8.40711
9229 1 -1.1104 15.9994 1.28354 19.1158 9.55741
60 2 2.2208 232.038 11.2299 0.328232 8.37882
61 1 -1.1104 15.9994 12.6685 10.3946 12.3521
62 2 2.2208 232.038 2.49326 6.24556 5.27555
63 2 2.2208 232.038 2.65233 3.76988 8.44507
64 3 -1.1104 15.9994 12.6433 1.66225 7.0322
65 2 2.2208 232.038 5.45899 3.15015 5.76404
66 2 2.2208 232.038 8.75943 6.22824 6.19807
67 2 2.2208 232.038 8.30869 3.29588 8.43079
68 2 2.2208 232.038 5.9996 5.98439 8.5101
69 2 2.2208 232.038 11.1982 3.10106 5.59256
70 2 2.2208 232.038 11.4821 5.72042 8.51156
332 1 -1.1104 15.9994 6.78437 13.3384 12.5802
72 2 2.2208 232.038 2.44343 11.5987 5.3221
73 2 2.2208 232.038 2.73775 7.21645 8.42803
74 3 -1.1104 15.9994 4.10075 21.9639 4.30862
75 2 2.2208 232.038 5.42571 9.1239 5.68434
76 2 2.2208 232.038 8.45455 11.7456 5.81893
77 2 2.2208 232.038 7.62022 8.89808 8.4958
78 2 2.2208 232.038 5.72892 11.9692 8.48067
79 2 2.2208 232.038 11.2347 9.0911 5.00003
80 2 2.2208 232.038 11.2214 12.2891 8.48908
81 4 2.2208 232.038 2.56561 10.3032 8.41374
82 2 2.2208 232.038 2.61432 17.5528 5.82516
83 2 2.2208 232.038 2.64656 14.7691 8.25872
362 2 2.2208 232.038 2.6986 0.604204 0.0562595
85 2 2.2208 232.038 5.73794 14.6854 5.83573
86 2 2.2208 232.038 8.40285 17.583 5.80725
87 2 2.2208 232.038 8.37506 14.7778 8.35975
88 2 2.2208 232.038 5.69706 17.7013 8.35507
89 2 2.2208 232.038 11.2283 14.6513 5.54776
90 2 2.2208 232.038 11.2175 17.6316 8.38106
91 3 -1.1104 15.9994 9.83062 21.7037 12.5179
92 2 2.2208 232.038 2.67393 23.2651 5.66884
93 2 2.2208 232.038 3.02266 20.4401 8.37414
126 1 -1.1104 15.9994 1.20365 -1.31261 1.40101
95 2 2.2208 232.038 5.59718 20.4615 5.57788
96 2 2.2208 232.038 8.44923 23.1808 5.55598
97 2 2.2208 232.038 8.45699 20.57 8.39034
98 2 2.2208 232.038 5.53145 23.3877 8.32493
99 2 2.2208 232.038 11.2572 20.3746 5.5645
100 2 2.2208 232.038 11.3199 23.2936 8.24297
101 3 -1.1104 15.9994 9.80847 13.2689 4.14186
102 2 2.2208 232.038 2.84247 0.749074 11.6834
252 1 -1.1104 15.9994 13.6353 6.3779 7.96885
104 2 2.2208 232.038 8.42859 0.42546 11.3839
351 2 2.2208 232.038 10.7394 11.3152 13.8457
106 4 2.2208 232.038 10.8167 9.05546 8.08609
107 2 2.2208 232.038 2.8323 6.16413 11.5667
108 2 2.2208 232.038 5.3377 3.30043 10.9242
109 2 2.2208 232.038 8.55318 6.2006 10.9135
110 2 2.2208 232.038 11.2268 3.16611 10.9487
111 1 -1.1104 15.9994 12.7487 21.683 12.4488
112 2 2.2208 232.038 2.68403 11.8793 11.5959
113 2 2.2208 232.038 5.21891 9.0147 11.1095
114 2 2.2208 232.038 8.41652 12.0934 10.9884
115 2 2.2208 232.038 11.4145 9.071 11.2276
116 1 -1.1104 15.9994 9.89936 19.1157 12.5689
117 2 2.2208 232.038 2.71547 17.4435 11.0086
118 2 2.2208 232.038 5.38012 14.8392 11.1419
119 2 2.2208 232.038 8.3019 17.6873 11.1968
120 2 2.2208 232.038 11.2545 14.8779 10.9076
350 2 2.2208 232.038 11.0884 14.6243 -0.118427
122 2 2.2208 232.038 2.64312 23.2932 11.1928
123 2 2.2208 232.038 5.66959 20.5123 11.2348
124 2 2.2208 232.038 8.39461 23.2289 11.0394
125 2 2.2208 232.038 11.2849 20.5082 11.1025
71 2 2.2208 232.038 8.25282 11.7474 0.0242305
127 1 -1.1104 15.9994 4.21704 -0.969432 1.18582
330 1 -1.1104 15.9994 6.61885 9.57269 12.768
129 1 -1.1104 15.9994 4.38374 -1.10095 4.01766
130 1 -1.1104 15.9994 1.13714 2.14659 1.25127
131 1 -1.1104 15.9994 4.05102 2.11608 1.2477
132 1 -1.1104 15.9994 2.56274 0.459333 2.68824
133 1 -1.1104 15.9994 4.27414 2.0025 4.20693
134 1 -1.1104 15.9994 6.93184 -0.942842 1.5611
135 1 -1.1104 15.9994 12.647 -0.930221 1.33963
136 1 -1.1104 15.9994 7.0304 -1.10902 4.29588
137 1 -1.1104 15.9994 9.80905 -0.970075 4.16257
138 1 -1.1104 15.9994 6.81942 1.90896 1.38352
139 1 -1.1104 15.9994 9.75609 1.9559 1.37322
140 1 -1.1104 15.9994 6.93854 1.71479 4.27057
141 1 -1.1104 15.9994 9.75693 1.77877 4.25503
190 1 -1.1104 15.9994 4.8958 19.6022 2.46522
143 1 -1.1104 15.9994 12.6284 -1.02861 4.22686
144 1 -1.1104 15.9994 12.5627 1.9069 1.19486
145 1 -1.1104 15.9994 12.5116 1.73154 4.0676
146 1 -1.1104 15.9994 1.02582 4.66485 3.84048
147 1 -1.1104 15.9994 1.18908 4.79367 1.17874
148 1 -1.1104 15.9994 1.29846 2.02379 4.26827
149 1 -1.1104 15.9994 3.88551 4.73405 4.27466
150 1 -1.1104 15.9994 1.35329 7.62645 1.37633
151 1 -1.1104 15.9994 4.01721 7.72592 1.39394
152 1 -1.1104 15.9994 1.10427 7.5402 4.16314
153 1 -1.1104 15.9994 4.03174 7.5574 4.14988
154 1 -1.1104 15.9994 6.80432 7.44745 1.32628
155 1 -1.1104 15.9994 7.14369 4.67341 1.29976
156 1 -1.1104 15.9994 4.04636 4.9581 1.25954
157 1 -1.1104 15.9994 9.42168 4.65969 4.451
158 1 -1.1104 15.9994 6.90038 7.6813 3.88928
159 1 -1.1104 15.9994 9.69975 4.81819 1.73448
160 1 -1.1104 15.9994 6.59455 4.51775 3.70276
161 1 -1.1104 15.9994 9.49338 7.47882 4.21852
162 1 -1.1104 15.9994 12.413 4.74551 1.35599
163 1 -1.1104 15.9994 12.459 4.61101 4.06498
164 1 -1.1104 15.9994 12.7435 7.57271 1.16414
165 1 -1.1104 15.9994 12.7704 7.39337 4.19899
166 1 -1.1104 15.9994 1.12471 10.6319 1.26609
167 1 -1.1104 15.9994 4.12761 10.5827 1.28799
168 1 -1.1104 15.9994 0.97273 10.2731 4.10599
169 1 -1.1104 15.9994 4.18848 10.2861 4.09468
170 1 -1.1104 15.9994 0.988324 13.9082 1.86015
171 1 -1.1104 15.9994 2.51394 12.1089 2.95454
172 1 -1.1104 15.9994 0.83342 13.133 4.60846
173 1 -1.1104 15.9994 4.27829 13.1005 4.71039
174 1 -1.1104 15.9994 6.83798 10.176 1.54011
175 1 -1.1104 15.9994 11.0895 8.69749 2.61846
176 1 -1.1104 15.9994 6.97861 10.4213 4.44161
177 1 -1.1104 15.9994 9.07025 8.74595 6.54295
178 1 -1.1104 15.9994 6.90201 13.165 1.47406
179 1 -1.1104 15.9994 9.8712 13.2035 1.39933
180 1 -1.1104 15.9994 6.91624 13.3532 4.28852
181 1 -1.1104 15.9994 9.74345 10.6232 4.24239
182 1 -1.1104 15.9994 12.5018 10.3229 1.19204
183 1 -1.1104 15.9994 12.7445 10.4795 4.09022
184 1 -1.1104 15.9994 12.6857 13.0238 1.31384
185 1 -1.1104 15.9994 12.6845 13.2953 4.08708
186 1 -1.1104 15.9994 0.893712 17.041 0.982645
648 1 -1.1104 15.9994 9.56479 7.26563 1.32914
188 1 -1.1104 15.9994 1.37995 16.3898 3.59746
189 1 -1.1104 15.9994 4.18201 16.3631 3.56203
8975 2 2.2208 232.038 -0.112055 9.03065 -0.19155
191 1 -1.1104 15.9994 4.76547 17.3464 0.898116
192 1 -1.1104 15.9994 2.80965 19.3297 0.896762
193 1 -1.1104 15.9994 0.810135 19.2521 3.21169
194 1 -1.1104 15.9994 6.88335 15.955 1.6946
195 1 -1.1104 15.9994 9.66748 16.0375 1.43534
196 1 -1.1104 15.9994 7.05053 16.1292 4.30553
197 1 -1.1104 15.9994 9.77811 16.2199 4.05233
198 1 -1.1104 15.9994 7.17743 18.988 1.28053
199 1 -1.1104 15.9994 9.71828 18.9647 1.34373
200 1 -1.1104 15.9994 6.88876 18.9335 4.36953
201 1 -1.1104 15.9994 9.68158 19.0531 4.04649
202 1 -1.1104 15.9994 12.515 16.0574 1.31526
203 1 -1.1104 15.9994 12.7455 16.1642 4.25788
204 1 -1.1104 15.9994 12.7065 18.9368 1.36781
205 1 -1.1104 15.9994 12.5403 19.0028 4.12089
206 1 -1.1104 15.9994 1.29366 21.8232 1.41864
207 1 -1.1104 15.9994 4.1631 22.14 1.38674
208 1 -1.1104 15.9994 1.40646 19.6067 6.76363
209 1 -1.1104 15.9994 3.28841 18.8955 4.08696
210 1 -1.1104 15.9994 6.95497 21.8871 1.2079
211 1 -1.1104 15.9994 9.75068 21.7851 1.3603
212 1 -1.1104 15.9994 7.02455 21.9162 3.96843
213 1 -1.1104 15.9994 9.90817 22.0057 4.19848
214 1 -1.1104 15.9994 12.536 21.7485 1.07683
215 1 -1.1104 15.9994 12.6342 21.9083 3.83371
9227 1 -1.1104 15.9994 0.318826 17.2152 6.18827
329 1 -1.1104 15.9994 4.09589 10.9 9.85742
331 1 -1.1104 15.9994 10.3655 11.2291 11.3953
25 2 2.2208 232.038 5.48352 9.03919 -0.0391615
8945 2 2.2208 232.038 0.00850211 23.7611 8.32093
221 1 -1.1104 15.9994 4.68814 0.302275 6.74963
222 1 -1.1104 15.9994 1.26041 0.687476 9.83377
223 1 -1.1104 15.9994 4.03093 0.985873 9.73869
224 1 -1.1104 15.9994 7.08063 -1.19345 7.01813
225 1 -1.1104 15.9994 9.80729 -1.0432 7.01102
226 1 -1.1104 15.9994 7.17883 -1.05359 9.81927
227 1 -1.1104 15.9994 9.81167 -1.19002 9.92575
228 1 -1.1104 15.9994 7.13295 1.88454 6.96901
229 1 -1.1104 15.9994 9.72205 1.75326 6.91458
230 1 -1.1104 15.9994 7.03902 1.77194 9.96012
231 1 -1.1104 15.9994 9.71325 1.8885 9.63576
232 1 -1.1104 15.9994 12.497 -1.10687 7.28534
233 1 -1.1104 15.9994 12.5977 -1.1509 9.97653
234 1 -1.1104 15.9994 12.614 4.20641 6.99868
235 1 -1.1104 15.9994 12.6217 1.86852 9.74466
236 1 -1.1104 15.9994 0.353384 3.03491 8.83204
237 1 -1.1104 15.9994 2.98411 2.28195 6.72435
238 1 -1.1104 15.9994 2.87457 3.24282 10.5667
239 1 -1.1104 15.9994 5.10128 3.37241 8.43494
240 1 -1.1104 15.9994 1.07778 7.18233 6.77615
241 1 -1.1104 15.9994 3.70181 5.6693 7.09679
242 1 -1.1104 15.9994 1.4199 5.63537 9.56168
243 1 -1.1104 15.9994 3.17029 8.30422 10.3324
244 1 -1.1104 15.9994 6.90678 4.70343 6.83456
245 1 -1.1104 15.9994 9.94685 4.46284 7.14424
246 1 -1.1104 15.9994 7.08293 4.55288 9.8932
247 1 -1.1104 15.9994 9.84816 4.68346 9.75306
248 1 -1.1104 15.9994 6.75999 7.45839 6.6515
249 1 -1.1104 15.9994 10.9117 7.09535 6.83219
250 1 -1.1104 15.9994 6.66731 7.19682 10.425
251 1 -1.1104 15.9994 8.41414 6.61863 8.59866
219 1 -1.1104 15.9994 4.52061 -1.46769 8.8198
253 1 -1.1104 15.9994 12.7929 4.72682 10.0528
254 1 -1.1104 15.9994 12.8885 9.07954 6.62871
255 1 -1.1104 15.9994 12.3217 7.96333 9.55816
256 1 -1.1104 15.9994 0.94692 10.3555 6.78481
257 1 -1.1104 15.9994 3.33536 8.61916 6.74978
258 1 -1.1104 15.9994 1.03664 8.56387 8.95403
259 1 -1.1104 15.9994 5.39539 8.53495 8.68217
260 1 -1.1104 15.9994 1.85567 12.4711 7.57322
261 1 -1.1104 15.9994 4.34921 11.0999 6.86777
262 1 -1.1104 15.9994 1.03898 11.2575 9.98654
263 1 -1.1104 15.9994 4.75369 14.0819 7.8039
264 1 -1.1104 15.9994 6.89796 10.5278 7.13109
265 1 -1.1104 15.9994 9.26931 11.109 8.70308
266 1 -1.1104 15.9994 6.7848 10.5544 10.1297
267 1 -1.1104 15.9994 9.51857 8.55849 9.94686
268 1 -1.1104 15.9994 7.21445 13.095 7.11562
269 1 -1.1104 15.9994 9.98986 13.4055 7.04465
270 1 -1.1104 15.9994 6.71003 13.4399 9.86022
271 1 -1.1104 15.9994 9.68074 13.6329 9.7824
272 1 -1.1104 15.9994 11.0839 10.844 6.66723
273 1 -1.1104 15.9994 12.3724 10.451 9.29431
274 1 -1.1104 15.9994 12.8436 13.1594 7.09662
275 1 -1.1104 15.9994 12.5878 13.3596 9.89463
276 1 -1.1104 15.9994 2.2781 15.1369 5.75236
277 1 -1.1104 15.9994 4.54956 16.5839 6.52977
278 1 -1.1104 15.9994 0.422346 14.7274 7.94539
279 1 -1.1104 15.9994 4.29457 16.3388 9.80031
280 1 -1.1104 15.9994 2.19772 16.9352 7.99826
281 1 -1.1104 15.9994 4.35893 19.1992 7.01834
282 1 -1.1104 15.9994 1.43943 15.7912 10.2217
283 1 -1.1104 15.9994 4.14959 19.1146 9.82271
284 1 -1.1104 15.9994 7.16836 16.1187 7.07016
285 1 -1.1104 15.9994 9.9047 16.0785 6.94082
286 1 -1.1104 15.9994 7.03105 16.3887 9.75726
287 1 -1.1104 15.9994 9.65682 16.4449 9.70886
288 1 -1.1104 15.9994 7.08238 18.9934 7.05823
289 1 -1.1104 15.9994 9.82711 19.0334 6.89005
290 1 -1.1104 15.9994 7.13065 19.2085 9.64608
291 1 -1.1104 15.9994 9.91522 19.0838 9.73915
292 1 -1.1104 15.9994 12.7045 16.0146 6.99636
293 1 -1.1104 15.9994 12.6947 16.1849 9.60725
294 1 -1.1104 15.9994 12.6657 18.881 7.06473
295 1 -1.1104 15.9994 12.6712 19.0666 9.68375
296 1 -1.1104 15.9994 1.57462 22.2612 7.43897
297 1 -1.1104 15.9994 4.47858 21.9653 7.01749
298 1 -1.1104 15.9994 1.00328 21.7672 9.93183
299 1 -1.1104 15.9994 3.86517 22.0223 9.77255
300 1 -1.1104 15.9994 7.09614 21.935 6.80512
301 1 -1.1104 15.9994 9.84128 21.8114 6.91233
302 1 -1.1104 15.9994 6.86133 21.9038 9.82115
303 1 -1.1104 15.9994 9.80923 21.8797 9.74553
304 1 -1.1104 15.9994 12.6511 21.7587 6.71815
305 1 -1.1104 15.9994 12.651 21.8715 9.6098
8948 2 2.2208 232.038 -0.0259503 16.9693 8.51672
307 1 -1.1104 15.9994 4.29011 -0.986365 12.2443
308 1 -1.1104 15.9994 1.10801 2.09764 12.6085
309 1 -1.1104 15.9994 4.45961 2.0322 12.6098
310 1 -1.1104 15.9994 7.08409 -0.94356 12.6436
311 1 -1.1104 15.9994 9.7662 -1.23225 12.7314
312 1 -1.1104 15.9994 7.06612 1.73658 12.6688
313 1 -1.1104 15.9994 10.0805 1.52179 12.5416
314 1 -1.1104 15.9994 12.5835 -0.936873 12.7105
315 1 -1.1104 15.9994 12.5519 2.19445 12.6673
316 1 -1.1104 15.9994 1.25152 4.76761 12.556
317 1 -1.1104 15.9994 4.25008 4.72887 12.4842
318 1 -1.1104 15.9994 1.33523 7.68107 12.4485
319 1 -1.1104 15.9994 4.2868 7.46279 12.7651
320 1 -1.1104 15.9994 6.76629 4.80217 12.574
321 1 -1.1104 15.9994 9.96174 4.2777 12.645
322 1 -1.1104 15.9994 8.53866 7.00938 13.0433
323 1 -1.1104 15.9994 10.7319 6.57241 11.347
324 1 -1.1104 15.9994 12.6381 4.77865 13.1557
325 1 -1.1104 15.9994 12.8552 7.6102 12.6867
326 1 -1.1104 15.9994 1.25836 10.433 12.6898
327 1 -1.1104 15.9994 4.07968 10.4534 12.7354
328 1 -1.1104 15.9994 1.09596 13.2949 12.5013
53 2 2.2208 232.038 13.9794 0.454963 11.2626
36 2 2.2208 232.038 8.28338 17.3898 0.264463
8981 2 2.2208 232.038 0.0703282 0.920643 2.73069
187 1 -1.1104 15.9994 3.08114 15.4499 0.812926
345 2 2.2208 232.038 5.42516 20.3132 0.255218
94 2 2.2208 232.038 10.8739 6.63432 13.8478
45 2 2.2208 232.038 8.2609 23.2982 -0.00508858
682 2 2.2208 232.038 11.1521 8.90169 0.119965
8951 4 2.2208 232.038 -0.0760573 20.384 8.23696
35 2 2.2208 232.038 5.44452 14.8628 0.182836
8941 2 2.2208 232.038 -0.110056 3.43328 11.1731
8946 2 2.2208 232.038 13.9709 3.32952 2.74752
354 2 2.2208 232.038 7.97848 14.5916 13.8782
84 2 2.2208 232.038 11.2276 23.1051 13.8856
359 2 2.2208 232.038 8.28064 20.3697 13.9215
57 2 2.2208 232.038 11.2318 17.858 13.8686
357 2 2.2208 232.038 2.91778 20.3756 13.9342
344 2 2.2208 232.038 8.15442 3.36356 13.9248
12 2 2.2208 232.038 2.54047 6.15024 -0.0938245
360 2 2.2208 232.038 5.64759 23.2341 13.8559
464 1 -1.1104 15.9994 2.54913 0.288307 13.8724
375 2 2.2208 232.038 8.33044 0.484177 0.0732152
518 1 -1.1104 15.9994 9.79284 -1.1131 21.1005
338 4 2.2208 232.038 2.47207 11.8558 25.6256
339 3 -1.1104 15.9994 1.25431 4.66446 26.6102
516 1 -1.1104 15.9994 9.7148 -0.909445 18.3654
681 2 2.2208 232.038 2.70759 17.3508 27.4719
415 3 -1.1104 15.9994 0.639892 23.0699 27.1717
687 2 2.2208 232.038 -0.186112 3.40663 28.0813
9361 1 -1.1104 15.9994 1.13756 18.8678 26.8302
368 2 2.2208 232.038 -0.0715301 20.3506 16.6901
346 3 -1.1104 15.9994 0.998814 12.8872 27.0822
372 4 2.2208 232.038 11.3504 3.2713 14.2033
348 3 -1.1104 15.9994 9.53098 10.2863 23.7933
336 2 2.2208 232.038 5.57863 6.19631 14.1081
683 2 2.2208 232.038 8.25649 6.22456 27.8219
9653 2 2.2208 232.038 -0.0131906 3.30425 22.4359
462 1 -1.1104 15.9994 1.00552 -1.2265 15.3475
353 3 -1.1104 15.9994 6.94314 18.5095 26.649
665 1 -1.1104 15.9994 7.36336 16.1735 23.873
680 1 -1.1104 15.9994 3.27459 21.7407 26.9058
660 1 -1.1104 15.9994 4.26241 15.8387 26.3694
678 1 -1.1104 15.9994 3.67248 22.0649 24.1852
358 3 -1.1104 15.9994 9.44779 1.89947 21.0608
664 1 -1.1104 15.9994 4.24601 19.0236 26.6076
349 2 2.2208 232.038 8.24053 9.11684 14.2394
674 1 -1.1104 15.9994 12.5978 16.1281 26.6181
352 2 2.2208 232.038 2.70436 14.7391 14.0016
363 2 2.2208 232.038 2.68185 0.52147 16.6662
659 1 -1.1104 15.9994 1.22087 15.8043 26.4231
663 1 -1.1104 15.9994 2.78543 17.6238 25.0764
662 1 -1.1104 15.9994 4.29139 19.4069 23.8032
367 2 2.2208 232.038 8.23752 0.504264 16.9237
677 1 -1.1104 15.9994 0.996793 22.6317 23.5256
369 2 2.2208 232.038 5.47541 0.506417 19.6705
672 1 -1.1104 15.9994 9.80139 19.1042 26.3634
371 2 2.2208 232.038 11.1598 0.94135 19.6108
658 1 -1.1104 15.9994 4.37152 16.3459 23.5005
373 2 2.2208 232.038 2.603 6.15493 16.8712
374 2 2.2208 232.038 2.65239 3.30678 19.6079
9362 2 2.2208 232.038 13.8991 3.31993 25.1859
376 2 2.2208 232.038 5.54533 3.44111 16.7447
377 2 2.2208 232.038 8.31352 6.28113 16.9245
378 2 2.2208 232.038 8.26338 3.50342 19.8873
379 2 2.2208 232.038 5.51954 6.29436 19.6283
380 2 2.2208 232.038 11.1025 3.51417 17.2807
381 2 2.2208 232.038 11.0194 6.12903 19.7975
382 3 -1.1104 15.9994 4.22209 -0.957293 15.3164
383 2 2.2208 232.038 2.67166 11.8559 16.7883
384 2 2.2208 232.038 2.5879 8.88552 19.6979
499 1 -1.1104 15.9994 9.64394 15.9629 15.3268
386 2 2.2208 232.038 5.44184 9.11011 16.9093
387 2 2.2208 232.038 8.39914 11.8761 16.8664
388 2 2.2208 232.038 8.28217 8.98069 19.7995
389 2 2.2208 232.038 5.42021 11.6711 19.7761
390 2 2.2208 232.038 11.1074 8.9933 16.9407
391 2 2.2208 232.038 11.169 11.94 19.6834
9281 2 2.2208 232.038 13.8911 3.43836 19.6017
393 2 2.2208 232.038 2.61663 17.5334 16.9109
394 2 2.2208 232.038 2.59691 14.6167 19.7976
395 4 2.2208 232.038 8.52293 17.524 25.3683
396 2 2.2208 232.038 5.54639 14.8108 16.9124
397 2 2.2208 232.038 8.42912 17.5965 16.8522
398 2 2.2208 232.038 8.25686 14.6474 19.6089
399 2 2.2208 232.038 5.46848 17.5098 19.6797
400 2 2.2208 232.038 11.1603 14.7479 17.1095
401 2 2.2208 232.038 11.2461 17.5984 19.5567
656 1 -1.1104 15.9994 12.4232 13.1029 26.7701
403 2 2.2208 232.038 2.72179 23.2261 16.7843
404 2 2.2208 232.038 2.61638 20.3582 19.4764
405 3 -1.1104 15.9994 1.18463 4.84621 15.2864
406 2 2.2208 232.038 5.52789 20.4083 16.7554
407 2 2.2208 232.038 8.27209 23.2282 16.6932
408 2 2.2208 232.038 8.34189 20.5934 19.4922
409 2 2.2208 232.038 5.60372 23.2514 19.3765
410 2 2.2208 232.038 11.1073 20.4697 16.7716
411 2 2.2208 232.038 11.1544 23.3625 19.6434
676 1 -1.1104 15.9994 12.7669 19.0128 26.616
413 2 2.2208 232.038 2.72126 0.452496 22.4639
669 1 -1.1104 15.9994 7.20634 18.8898 23.9822
342 2 2.2208 232.038 2.63409 3.37225 13.9705
666 1 -1.1104 15.9994 9.91952 15.9051 24.4615
417 2 2.2208 232.038 8.26665 0.514248 22.5792
673 1 -1.1104 15.9994 12.7442 15.9673 23.7062
419 2 2.2208 232.038 5.41879 0.525321 25.2721
655 1 -1.1104 15.9994 12.6258 13.1393 23.9584
421 2 2.2208 232.038 11.119 0.623246 25.2012
422 3 -1.1104 15.9994 9.71403 18.9368 15.4738
423 2 2.2208 232.038 2.69408 6.14564 22.4052
424 2 2.2208 232.038 2.63671 3.36277 25.2569
425 4 2.2208 232.038 2.23483 23.1961 25.4896
426 2 2.2208 232.038 5.41014 3.44111 22.5224
427 2 2.2208 232.038 8.16578 6.24818 22.5929
428 2 2.2208 232.038 8.27838 3.287 25.162
429 2 2.2208 232.038 5.46422 6.06942 25.3213
430 2 2.2208 232.038 11.0504 3.38911 22.2475
431 2 2.2208 232.038 11.0507 6.07415 25.3383
432 1 -1.1104 15.9994 12.4236 21.8252 26.5475
433 2 2.2208 232.038 2.53863 11.9097 22.2943
434 2 2.2208 232.038 2.74843 8.63058 25.1549
435 1 -1.1104 15.9994 12.6748 21.8227 23.6903
436 2 2.2208 232.038 5.43527 9.10971 22.6451
437 2 2.2208 232.038 8.17389 11.903 22.3667
438 2 2.2208 232.038 8.38062 9.02524 25.284
439 2 2.2208 232.038 5.6271 11.6826 25.4436
440 2 2.2208 232.038 11.1379 9.02733 22.5116
441 2 2.2208 232.038 11.1827 11.6751 25.2937
442 1 -1.1104 15.9994 9.59641 21.9574 26.7372
443 2 2.2208 232.038 2.48871 17.5548 22.3036
444 2 2.2208 232.038 2.6095 15.2499 24.7725
445 1 -1.1104 15.9994 6.63786 21.628 26.7875
446 2 2.2208 232.038 5.40678 14.716 22.3712
447 2 2.2208 232.038 8.40359 17.5647 22.0532
448 2 2.2208 232.038 8.29539 14.3154 25.2467
449 2 2.2208 232.038 5.25707 17.745 25.0945
450 2 2.2208 232.038 11.2022 14.7872 22.5159
451 2 2.2208 232.038 11.6458 17.4836 25.3024
452 1 -1.1104 15.9994 9.92716 21.5494 23.9113
453 2 2.2208 232.038 2.67524 23.35 22.2545
454 2 2.2208 232.038 2.6825 19.9429 25.321
455 1 -1.1104 15.9994 6.53251 21.6411 23.9854
456 2 2.2208 232.038 5.61587 20.6342 22.1902
457 3 -1.1104 15.9994 4.09148 13.329 15.4153
458 2 2.2208 232.038 8.35007 20.733 25.1355
459 2 2.2208 232.038 5.49617 23.1254 25.2336
460 2 2.2208 232.038 11.2463 20.4202 22.3183
461 2 2.2208 232.038 11.2351 23.3157 25.1933
524 1 -1.1104 15.9994 12.5019 -1.17045 20.9943
49 1 -1.1104 15.9994 12.4348 10.4444 15.2811
667 1 -1.1104 15.9994 6.85481 13.1135 26.6755
465 1 -1.1104 15.9994 4.22128 1.9294 15.4185
466 1 -1.1104 15.9994 6.92733 -0.836046 15.3508
467 1 -1.1104 15.9994 9.5706 -0.863668 15.4751
468 1 -1.1104 15.9994 6.90268 1.98194 15.4483
469 1 -1.1104 15.9994 9.70411 1.88337 15.0817
470 1 -1.1104 15.9994 12.5616 -1.00326 15.6193
471 1 -1.1104 15.9994 12.5886 1.63814 15.1549
472 1 -1.1104 15.9994 1.30525 2.08924 15.4517
473 1 -1.1104 15.9994 4.05526 4.77572 15.4241
474 1 -1.1104 15.9994 1.24733 7.54765 15.293
475 1 -1.1104 15.9994 4.15501 7.46856 15.5774
476 1 -1.1104 15.9994 6.99628 4.76036 15.4373
477 1 -1.1104 15.9994 9.633 4.98681 18.3611
478 1 -1.1104 15.9994 6.82352 7.70801 15.4059
670 1 -1.1104 15.9994 9.8442 18.3847 23.646
480 1 -1.1104 15.9994 12.8497 4.18325 15.7788
481 1 -1.1104 15.9994 12.4774 7.22703 15.5414
482 1 -1.1104 15.9994 1.3016 10.4378 15.4271
483 1 -1.1104 15.9994 4.08953 10.4463 15.487
484 1 -1.1104 15.9994 1.04993 13.1571 15.3002
679 1 -1.1104 15.9994 0.62154 21.1759 25.6163
486 1 -1.1104 15.9994 6.75051 10.4942 15.4998
668 1 -1.1104 15.9994 9.89789 16.5261 26.9544
488 1 -1.1104 15.9994 6.86332 13.3579 15.3531
347 2 2.2208 232.038 2.66856 9.01743 14.0829
490 1 -1.1104 15.9994 9.71713 10.5107 15.6253
491 1 -1.1104 15.9994 12.6532 13.5643 15.5249
492 1 -1.1104 15.9994 1.28551 16.0531 15.5704
493 1 -1.1104 15.9994 4.20297 16.1896 15.3388
494 1 -1.1104 15.9994 1.39404 18.9744 15.2524
495 1 -1.1104 15.9994 4.12107 18.9145 15.4478
496 1 -1.1104 15.9994 6.86241 16.2037 15.3976
497 1 -1.1104 15.9994 9.78692 13.3149 15.4832
498 1 -1.1104 15.9994 6.91719 19.1638 15.3126
675 1 -1.1104 15.9994 12.5876 18.9776 23.7483
500 1 -1.1104 15.9994 12.334 16.0894 15.1687
501 1 -1.1104 15.9994 12.6492 18.935 15.2602
502 1 -1.1104 15.9994 1.4585 21.8414 15.4608
503 1 -1.1104 15.9994 4.37168 21.8408 15.2239
504 1 -1.1104 15.9994 6.91991 21.8253 15.1875
505 1 -1.1104 15.9994 9.79612 21.9071 15.1732
506 1 -1.1104 15.9994 12.6301 21.6921 15.1434
507 1 -1.1104 15.9994 1.30063 -0.88145 18.1403
508 1 -1.1104 15.9994 3.95941 -0.94142 18.3096
509 1 -1.1104 15.9994 1.38281 -0.951173 21.054
365 2 2.2208 232.038 5.56791 11.8544 14.1004
511 1 -1.1104 15.9994 1.37474 1.86061 18.2754
512 1 -1.1104 15.9994 4.21488 2.03673 21.0541
513 1 -1.1104 15.9994 1.26801 1.79253 21.1152
514 1 -1.1104 15.9994 4.19942 -0.766255 21.1978
515 1 -1.1104 15.9994 6.89358 -0.971255 18.2126
340 2 2.2208 232.038 5.57595 0.674077 13.9776
517 1 -1.1104 15.9994 7.00826 -0.899387 20.9282
9652 3 -1.1104 15.9994 0.87546 16.3681 23.6449
519 1 -1.1104 15.9994 4.25752 1.79508 18.0872
520 1 -1.1104 15.9994 9.72143 1.95793 18.0382
521 1 -1.1104 15.9994 6.86252 2.04398 21.1671
522 1 -1.1104 15.9994 6.98519 1.94349 18.3328
657 1 -1.1104 15.9994 2.62495 14.7035 22.6148
479 1 -1.1104 15.9994 9.90212 4.78527 15.4339
525 1 -1.1104 15.9994 12.6382 1.81594 18.0578
526 1 -1.1104 15.9994 12.6647 1.70952 21.1003
527 1 -1.1104 15.9994 1.09576 4.77873 18.2427
528 1 -1.1104 15.9994 4.06426 4.55102 18.2284
529 1 -1.1104 15.9994 1.34253 4.78708 20.9606
530 1 -1.1104 15.9994 4.10534 4.76076 21.116
531 1 -1.1104 15.9994 1.26231 7.52289 18.1277
532 1 -1.1104 15.9994 4.03948 7.44547 18.2811
533 1 -1.1104 15.9994 1.11948 7.47737 20.9699
534 1 -1.1104 15.9994 3.98019 7.67437 21.1668
535 1 -1.1104 15.9994 6.75377 4.84846 18.1124
536 1 -1.1104 15.9994 11.1785 3.28129 19.72
537 1 -1.1104 15.9994 6.9284 5.00577 20.8735
538 1 -1.1104 15.9994 9.55111 4.99441 21.337
539 1 -1.1104 15.9994 6.94016 7.67002 18.3444
540 1 -1.1104 15.9994 9.6684 7.6491 18.3694
541 1 -1.1104 15.9994 6.71443 7.64887 21.1491
542 1 -1.1104 15.9994 9.51499 7.58936 21.1871
543 1 -1.1104 15.9994 12.7122 5.13632 18.377
544 1 -1.1104 15.9994 12.5473 4.77868 21.2544
545 1 -1.1104 15.9994 12.662 7.91985 18.2
546 1 -1.1104 15.9994 12.4525 7.65461 21.1181
547 1 -1.1104 15.9994 1.3815 10.34 18.2999
548 1 -1.1104 15.9994 4.08128 10.3336 18.5043
549 1 -1.1104 15.9994 1.11171 10.2617 21.0008
550 1 -1.1104 15.9994 4.02392 10.3579 21.2189
551 1 -1.1104 15.9994 1.38043 13.4083 18.0935
552 1 -1.1104 15.9994 4.18783 13.1494 18.2457
553 1 -1.1104 15.9994 1.18263 13.079 20.9262
554 1 -1.1104 15.9994 4.12478 13.0987 20.9995
555 1 -1.1104 15.9994 6.89696 10.3868 18.3724
556 1 -1.1104 15.9994 9.73948 10.5406 18.3725
557 1 -1.1104 15.9994 6.80914 10.3441 21.1185
558 1 -1.1104 15.9994 9.7173 10.4884 21.1232
559 1 -1.1104 15.9994 7.14124 13.3124 18.0257
560 1 -1.1104 15.9994 9.76336 13.3609 18.3948
561 1 -1.1104 15.9994 6.81567 13.1838 20.8878
562 1 -1.1104 15.9994 9.68441 13.2297 21.0996
563 1 -1.1104 15.9994 12.557 10.5823 18.1299
564 1 -1.1104 15.9994 12.5178 10.4758 21.1373
565 1 -1.1104 15.9994 12.5037 13.2231 18.3075
566 1 -1.1104 15.9994 12.4773 13.3981 21.0555
567 1 -1.1104 15.9994 1.35178 16.1643 18.176
568 1 -1.1104 15.9994 4.05016 16.1123 18.0707
569 1 -1.1104 15.9994 1.14174 16.1425 20.944
570 1 -1.1104 15.9994 4.20355 16.0677 20.7462
571 1 -1.1104 15.9994 1.12685 18.9943 18.1381
572 1 -1.1104 15.9994 4.25072 19.0423 18.3375
573 1 -1.1104 15.9994 1.24497 19.047 20.7974
574 1 -1.1104 15.9994 4.09067 18.9184 21.0134
575 1 -1.1104 15.9994 6.91675 16.1036 18.3979
576 1 -1.1104 15.9994 9.73694 16.209 18.239
577 1 -1.1104 15.9994 6.86901 15.8359 21.069
578 1 -1.1104 15.9994 9.72969 15.9631 21.0753
579 1 -1.1104 15.9994 7.02997 18.9726 18.1639
580 1 -1.1104 15.9994 9.84943 19.0239 18.2275
581 1 -1.1104 15.9994 6.89878 18.7887 21.0613
582 1 -1.1104 15.9994 9.77014 18.8799 20.8965
583 1 -1.1104 15.9994 12.7268 16.007 17.9728
584 1 -1.1104 15.9994 12.5991 16.3579 20.955
585 1 -1.1104 15.9994 12.5025 18.89 18.0555
586 1 -1.1104 15.9994 12.5984 19.0029 20.8815
587 1 -1.1104 15.9994 1.24242 21.7427 18.1878
588 1 -1.1104 15.9994 3.91585 21.8818 18.1196
589 1 -1.1104 15.9994 1.34168 21.83 21.0394
590 1 -1.1104 15.9994 4.08709 21.9398 21.1031
591 1 -1.1104 15.9994 6.9082 21.7844 17.9023
592 1 -1.1104 15.9994 9.69612 21.9851 17.9595
593 1 -1.1104 15.9994 6.73235 21.7777 20.5976
594 1 -1.1104 15.9994 10.0939 21.6113 20.6448
595 1 -1.1104 15.9994 12.6808 21.6779 17.9646
596 1 -1.1104 15.9994 12.8026 21.7615 20.96
597 1 -1.1104 15.9994 1.34023 -0.967132 24.1189
598 1 -1.1104 15.9994 4.09712 -0.822037 23.8074
599 1 -1.1104 15.9994 1.37437 -1.00152 26.8763
600 1 -1.1104 15.9994 4.1709 -1.04349 26.505
601 1 -1.1104 15.9994 1.35784 1.90984 23.9057
602 1 -1.1104 15.9994 4.1735 1.85879 23.9242
603 1 -1.1104 15.9994 1.16481 1.88819 26.7803
604 1 -1.1104 15.9994 3.91265 1.81271 26.6953
605 1 -1.1104 15.9994 7.01748 -0.975398 23.6789
606 1 -1.1104 15.9994 9.75902 -0.997699 23.9375
607 1 -1.1104 15.9994 6.83068 -0.745214 26.6403
608 1 -1.1104 15.9994 9.61491 -1.03618 26.7538
609 1 -1.1104 15.9994 6.94787 1.92287 23.7521
610 1 -1.1104 15.9994 9.76863 2.02687 23.7897
611 1 -1.1104 15.9994 6.83869 1.92011 26.6898
612 1 -1.1104 15.9994 9.6406 1.64457 26.6343
613 1 -1.1104 15.9994 12.7178 -1.03161 23.825
614 1 -1.1104 15.9994 12.3706 -0.838544 26.5647
615 1 -1.1104 15.9994 12.5555 2.01798 23.7979
616 1 -1.1104 15.9994 12.4959 2.01603 26.5628
617 1 -1.1104 15.9994 1.41776 4.83618 23.785
618 1 -1.1104 15.9994 4.07859 4.63511 23.9059
619 3 -1.1104 15.9994 9.58877 7.61149 15.587
620 1 -1.1104 15.9994 4.06154 4.73708 26.6341
621 1 -1.1104 15.9994 1.29368 7.56083 23.8182
622 1 -1.1104 15.9994 4.18239 7.44359 23.8447
623 1 -1.1104 15.9994 1.31257 7.43499 26.7597
624 1 -1.1104 15.9994 3.97692 7.56853 26.7599
625 1 -1.1104 15.9994 6.83926 4.85368 23.8955
626 1 -1.1104 15.9994 9.55056 4.69298 23.904
627 1 -1.1104 15.9994 6.87782 4.675 26.7098
628 1 -1.1104 15.9994 9.71141 4.69244 26.8545
629 1 -1.1104 15.9994 6.81034 7.679 24.011
630 1 -1.1104 15.9994 9.7727 7.44253 24.0203
671 1 -1.1104 15.9994 7.33925 15.814 26.8729
632 1 -1.1104 15.9994 9.72944 7.579 26.8328
633 1 -1.1104 15.9994 12.3526 4.78494 23.8803
634 1 -1.1104 15.9994 12.3811 4.78985 26.796
635 1 -1.1104 15.9994 12.5405 7.52899 23.9026
636 1 -1.1104 15.9994 12.4784 7.51223 26.6706
637 1 -1.1104 15.9994 1.33571 10.1715 26.3898
638 1 -1.1104 15.9994 1.13712 10.8893 23.9221