ITEM: TIMESTEP
50000
ITEM: NUMBER OF ATOMS
18000
ITEM: BOX BOUNDS pp pp pp
-5.5207511236761220e-01 2.7892075112367834e+01
-6.3570778411884694e+00 3.3443707784118578e+02
-5.4277247728823996e-01 2.7882772477288025e+01
ITEM: ATOMS id type x y z
3673 2 4.85329 -0.524015 5.36179
6 1 0.934648 -2.37439 3.93038
14 2 4.97738 -3.61364 2.57626
9 1 3.7096 -2.07325 0.87462
63 2 2.18673 -0.785838 2.48717
10 1 3.7369 -4.9538 3.89725
3604 2 2.28571 -3.66799 5.49872
12 1 3.63861 -2.23415 3.73556
3548 1 0.905644 -5.07086 4.05937
3551 1 3.4552 -4.93014 1.1706
3549 1 0.383944 -2.12338 1.34937
18 1 6.37047 -5.14457 4.23526
17 1 6.15522 -5.01334 1.10793
3607 1 0.682698 -2.4344 6.66064
3617 1 6.48324 -4.95153 7.0121
3611 1 3.6504 -2.15241 6.85082
14406 1 0.859827 -4.68057 0.640692
14420 1 6.50325 -2.18639 1.11926
3615 2 7.90978 -6.25257 8.51611
3 2 2.08425 -6.29628 2.67602
15 2 7.51185 -6.19193 2.55652
20 1 6.57335 -2.27468 3.93573
19 1 9.18158 -2.04318 0.932635
3685 2 10.8757 -0.663574 5.23855
30 1 12.537 -1.97277 3.89141
31 1 11.9549 -1.85606 1.05848
26 2 10.7451 -3.03674 2.446
3616 2 7.85974 -3.52682 5.15796
24 1 9.36087 -2.1053 4.22646
75 2 7.88838 -0.597204 2.56385
3557 1 10.2715 -4.80987 1.04909
22 1 12.6298 -4.45165 1.67848
3629 1 11.1827 -4.33432 4.32268
3575 1 8.63225 -4.27477 2.88336
3623 1 9.37614 -1.8241 6.93077
124 2 2.16471 7.43231 -0.427003
3628 2 13.2955 -3.75877 5.341
3867 2 13.4435 16.4546 7.85393
3631 1 12.2201 -1.96555 6.96947
7408 2 13.5899 13.6878 10.9885
62 2 -0.460479 1.96487 2.49755
11 1 3.6251 0.607487 1.05292
7 1 0.816908 0.488223 0.923115
74 2 5.07385 2.18215 2.49494
8 1 0.963165 0.517377 3.8383
69 1 3.6848 3.32706 1.21281
70 1 3.46462 0.899442 3.80122
3664 2 2.29052 2.09922 5.30232
3733 2 4.94896 5.00129 5.42333
123 2 2.18835 4.64204 2.38491
72 1 3.57671 3.6458 3.94033
129 1 3.65856 5.8037 0.741035
120 1 0.739349 3.57894 3.96025
65 1 0.945688 3.3378 0.801176
68 1 0.436547 6.42512 3.88783
130 1 3.46732 6.32066 3.82922
67 1 0.840645 6.16056 1.31421
71 1 6.64714 3.40588 0.805713
3669 1 3.54073 0.613556 6.87788
3677 1 6.27911 0.803822 6.63646
3729 1 3.52832 6.15168 6.69175
3667 1 0.884591 6.31344 6.62484
137 1 6.48283 6.41521 1.40208
78 1 6.07931 0.632127 3.74416
3679 1 6.27428 3.84415 6.84671
79 2 8.0865 1.94385 -0.493771
242 2 -0.434262 19.3849 2.32642
77 1 6.6433 0.624992 0.885895
80 1 6.6314 3.34313 4.08814
138 1 6.68763 6.12494 3.85262
32 1 12.1203 0.787645 3.87788
23 1 9.34091 0.834651 1.26902
89 1 12.1806 0.767064 1.09641
90 1 9.12009 0.598681 4.08292
86 2 10.9183 2.14694 2.42256
82 1 9.33419 3.61093 0.891942
3676 2 8.0405 2.07586 5.38499
3745 2 10.751 4.93661 5.20704
91 1 12.3767 3.38368 1.28996
92 1 12.2241 3.61571 3.92363
135 2 8.08461 4.86635 2.39987
84 1 9.4737 3.47644 3.99686
3689 1 12.5836 0.879589 6.58182
83 1 9.47885 6.5193 0.944129
7213 2 4.91383 -6.15712 11.054
141 1 12.2798 6.35222 0.954477
3737 1 6.28768 6.55519 6.64312
3627 2 13.4288 -6.33099 8.45454
193 2 4.90805 10.1454 -0.312729
3793 2 5.06375 10.4462 5.3314
125 1 0.66042 9.20327 3.58649
127 1 0.834911 8.92369 1.02141
134 2 4.9795 7.73055 2.6849
128 1 0.758463 12.1245 4.17812
183 2 2.2881 10.4859 2.53809
3724 2 2.02617 7.66928 5.26461
131 1 3.72935 8.93385 1.2106
132 1 3.33578 9.07675 4.06334
186 1 1.10863 12.4246 1.33544
190 1 3.30544 11.9311 3.93719
200 1 4.22652 11.966 1.23863
140 1 6.72548 9.0078 4.02142
197 1 6.46283 11.7653 3.91337
16 2 7.97398 -4.02725 -0.324245
3731 1 3.59861 8.84856 6.55084
185 2 -0.12808 10.6 -0.258544
201 1 6.84468 15.4317 -0.290082
142 1 9.52947 6.32714 3.7371
150 1 12.1278 6.47493 3.82214
139 1 6.44229 9.13448 1.42659
14606 1 9.63375 11.698 0.790285
3805 2 10.7184 10.7492 5.33963
151 1 12.2915 9.32055 1.14662
146 2 10.84 7.85655 2.65966
152 1 12.1174 9.28871 4.08754
195 2 7.95005 10.4059 2.37838
3736 2 8.04304 7.49528 5.10957
143 1 9.51295 8.99576 1.03207
144 1 9.35705 9.40647 3.72881
210 1 12.1243 12.2191 3.93642
202 1 9.19418 12.0952 3.50189
213 1 12.1722 12.1471 1.02906
3743 1 9.47023 9.28672 6.66486
3739 1 6.48833 9.19268 6.6641
3751 1 11.9671 9.41481 6.80605
3811 1 12.1261 12.1212 6.50524
244 2 2.23459 19.366 -0.425042
3748 2 13.5547 7.89126 5.27223
3844 2 2.42051 19.1295 5.24859
3784 2 1.98804 13.6084 5.02011
194 2 5.06023 13.3932 2.95898
3853 2 5.02986 16.1587 5.21294
245 1 0.514256 18.2451 0.601181
246 1 0.795692 17.7793 3.44171
188 1 0.667306 15.2076 3.73105
249 1 3.59081 17.9571 1.07385
243 2 2.06624 16.4253 2.1926
250 1 3.72108 17.5809 3.87743
191 1 0.825148 15.2229 0.833434
192 1 3.43441 15.0314 3.5493
199 1 4.21759 14.8149 0.93326
3791 1 5.33592 13.8748 5.34489
254 2 5.26128 19.0718 2.67097
3847 1 0.905826 17.7339 6.35377
3808 2 13.5093 13.5138 4.90673
258 1 6.57468 17.8549 4.13182
3792 1 6.41273 15.1785 3.54865
29 2 10.7121 -6.16818 2.88243
7468 2 13.6049 19.2199 10.955
3857 1 6.47009 17.9364 6.87422
3786 1 3.3201 14.6396 6.66604
196 2 5.18592 13.3617 -0.332891
203 1 6.65891 13.2368 1.25544
257 1 6.17068 17.6174 1.14633
206 2 10.8744 13.527 2.32219
3796 2 8.003 13.4401 4.88138
3856 2 7.87479 19.1575 5.02799
14604 1 9.41562 14.7476 1.07022
269 1 12.2338 17.9686 0.707497
3865 2 10.6855 16.5504 4.96982
270 1 11.8816 17.8973 3.57039
212 1 11.9666 14.9491 3.70518
261 1 9.10095 17.7812 1.02623
255 2 7.69897 16.2532 2.0996
262 1 9.14402 17.9959 3.69467
204 1 9.25734 15.1187 3.42663
211 1 11.9207 15.202 0.712288
266 2 10.6989 19.2787 2.20209
136 2 8.00912 7.83742 -0.199593
3803 1 9.28884 14.5511 6.60894
3869 1 11.8649 17.6149 6.58767
7348 2 13.6245 7.64858 10.9272
3609 1 3.63476 -4.95718 7.08216
3619 1 6.41988 -2.00989 6.69495
265 2 8.34296 13.2701 -0.367456
73 2 5.13688 -0.666203 -0.310579
3605 1 0.907731 -5.13075 6.56372
7273 2 4.99105 -0.719112 11.0014
7205 1 0.814686 -4.74819 12.4151
3606 1 0.524789 -2.01385 9.32365
7207 1 1.01667 -2.06056 12.3537
3614 2 5.16507 -3.45334 8.23491
7209 1 3.88887 -4.65299 12.5158
3663 2 2.20675 -0.75907 8.17136
3610 1 3.53913 -4.88068 9.81344
7204 2 2.28409 -3.56094 11.0263
7211 1 3.73992 -1.89451 12.2456
3612 1 3.40815 -2.15203 9.48034
7148 1 0.828835 -4.74308 9.75787
3620 1 6.59513 -1.9765 9.79525
7219 1 6.52196 -2.14313 12.5018
7217 1 6.70301 -4.79819 12.554
3618 1 6.56259 -4.66 9.8663
64 2 2.32522 2.01132 -0.433111
45 1 12.5668 -6.30955 4.45568
88 2 13.5319 2.27403 -0.489345
3687 2 13.5616 -0.522128 8.29034
7441 2 -0.459233 15.9658 10.9707
34 1 9.25978 -4.70357 6.88768
3621 1 11.9319 -4.94055 7.27913
7285 2 10.7334 -0.306109 10.9343
7229 1 12.104 -4.45831 12.5018
3630 1 12.398 -4.89459 9.79421
7231 1 12.0289 -1.46417 12.5225
3626 2 10.8621 -3.27197 8.1988
3632 1 12.168 -1.99104 9.83178
7221 1 9.44183 -4.62126 12.4876
3675 2 7.97775 -0.393239 8.28751
3622 1 9.46978 -4.8508 9.85532
7216 2 8.03992 -3.26599 11.0146
7223 1 9.29111 -1.79592 12.364
3624 1 9.35531 -1.84766 9.60404
259 2 7.84748 19.455 -0.415924
3665 1 0.956362 0.610071 6.52033
3671 1 3.65228 3.42666 6.7345
66 1 0.77538 3.36687 6.81863
3670 1 3.64309 0.541311 9.42139
7265 1 0.970075 0.820739 12.3419
3666 1 0.633662 3.71321 9.77935
3674 2 4.99369 2.1619 7.98626
3608 1 0.744438 0.603572 9.28224
7269 1 3.53162 0.929971 12.1076
7264 2 2.28505 2.04376 10.7513
7261 1 0.641742 3.79526 12.3318
7333 2 4.90315 5.19863 11.0206
3723 2 2.36947 4.78566 8.27749
7271 1 3.57934 3.76855 12.2757
3672 1 3.69489 3.28977 9.54273
3738 1 3.67258 6.28895 9.4621
7267 1 0.611306 6.50972 9.22738
7277 1 6.29569 1.04309 12.2262
7329 1 3.3707 6.36178 12.323
3678 1 6.50464 0.896393 9.32895
7279 1 6.40545 3.99756 12.5566
7337 1 6.43681 6.43136 12.2909
14598 1 6.97971 11.2085 -0.344236
87 2 13.5421 -0.501568 2.26397
3749 1 12.0668 6.46784 6.50309
3681 1 9.44373 0.909338 6.77431
3691 1 12.0608 3.74639 6.92953
3742 1 6.43296 6.48679 9.53745
3680 1 6.49372 3.79397 9.38804
3683 1 9.31379 3.6378 6.72356
3682 1 9.37056 1.07074 9.40079
3690 1 12.2762 0.997073 9.35507
7289 1 11.9213 1.3581 12.4275
3686 2 10.8285 2.40319 8.42168
7281 1 9.18865 0.789154 12.328
7276 2 7.7594 2.46126 10.8876
3684 1 9.40044 3.95995 9.6195
7283 1 9.37221 3.4827 12.3077
3735 2 7.85739 5.11345 8.10749
7345 2 10.7293 5.30784 11.1654
7291 1 12.0875 3.61286 10.055
7341 1 9.29351 6.36403 12.5286
3692 1 12.317 6.20279 9.37812
3750 1 9.56117 6.76856 9.55728
7349 1 12.1536 6.70809 12.2679
198 1 6.5832 12.0148 6.82287
3806 2 10.9046 13.5689 7.79047
133 2 5.42977 4.81567 -0.32451
7325 1 0.639701 6.33551 12.1639
3789 1 3.90464 11.4901 6.72426
3725 1 0.794684 9.0556 6.55511
3727 1 1.38035 12.318 7.04161
7393 2 4.93136 10.5149 10.8653
7327 1 0.594462 9.22791 12.2401
3734 2 5.01592 7.76444 8.10613
3728 1 3.52808 11.862 9.58699
3783 2 2.21609 10.2725 7.78624
3730 1 3.29237 8.99293 9.49833
7324 2 2.09034 7.69588 10.7823
7331 1 3.58476 9.24848 12.284
7389 1 3.63762 11.6429 12.5515
7385 1 0.777558 11.9873 12.413
3726 1 0.69092 9.44214 9.24643
3838 1 0.562063 12.5625 9.81359
3740 1 6.2191 9.19642 9.52164
253 2 4.85447 16.8346 -0.407236
3797 1 9.34605 11.9038 6.5557
3741 1 9.12816 6.55027 6.7747
7339 1 6.35054 9.33218 12.2821
7397 1 6.56064 12.1639 12.6473
3732 1 6.57397 12.1164 9.55828
3801 1 12.0205 11.8725 9.04055
7401 1 9.3236 11.8997 12.2004
3744 1 9.08312 9.48803 9.65032
7343 1 9.34186 8.97119 12.3665
7336 2 7.75371 8.03364 10.8864
3795 2 7.92915 10.4712 8.10168
7405 2 11.0121 10.7752 10.9115
3746 2 11.057 7.7698 8.30295
3752 1 11.9938 9.08741 9.75115
3802 1 9.18856 12.589 9.3536
7409 1 12.0955 9.37327 12.4031
7413 1 12.1506 12.4671 12.233
7399 1 6.50558 14.9917 9.75151
3799 1 6.50529 15.1523 7.04668
2 2 -0.538089 -3.66917 2.98154
3845 1 0.401814 14.9882 6.597
7384 2 2.37001 13.4793 11.203
3846 1 2.16234 19.4119 7.96512
3849 1 3.88495 17.4797 6.67402
7497 1 0.560232 18.0927 12.2575
3794 2 4.4258 13.2097 7.95895
3906 1 0.387219 17.9867 9.44671
7444 2 2.43848 19.034 10.6777
7391 1 3.67422 14.6438 12.7279
3785 1 1.07352 15.1654 9.55653
3854 2 4.91655 19.2686 8.05809
7449 1 3.36172 17.4689 12.1333
3788 1 4.00835 14.4546 9.91842
7453 2 5.0602 16.3429 10.892
3850 1 3.70129 17.578 9.39893
3843 2 1.92299 16.5649 7.84617
7387 1 0.8759 14.9931 12.5734
3858 1 6.35192 17.8138 9.77208
3800 1 6.41979 14.8357 12.3841
7457 1 6.14929 17.6286 12.5844
3842 2 -0.395263 19.1582 7.64212
3807 2 13.5645 10.7687 7.8752
147 2 13.5665 5.04172 2.32373
3798 2 7.53175 13.6842 8.17182
7469 1 12.1617 18.1049 12.4622
3861 1 9.31737 17.5841 6.49555
3870 1 12.3285 14.9503 6.5155
7465 2 10.813 16.4856 11.0978
7411 1 12.0235 14.7956 9.46364
3790 1 9.11911 15.1176 9.16289
3804 1 11.9901 15.0875 12.27
7456 2 7.83272 19.3213 11.3675
7461 1 9.29654 17.8314 12.5057
85 2 10.7175 -0.826599 -0.473333
3855 2 7.82491 16.9034 8.19104
7396 2 7.88691 13.5188 11.2795
3866 2 10.6166 19.2685 8.20188
7463 1 12.1938 17.7552 9.59164
7403 1 9.1509 15.324 12.217
3862 1 9.2708 18.0649 9.67332
3868 2 13.4319 19.1191 5.16666
267 2 13.4502 16.5577 2.07647
3661 2 -0.402997 -0.931042 5.3035
7228 2 13.6409 -3.39126 11.1078
7225 2 10.7483 -6.09409 11.1375
145 2 10.6132 4.81869 -0.293612
3602 2 -0.488506 -3.72807 8.37082
28 2 13.5025 -3.45395 -0.0834446
3781 2 -0.539804 10.6096 5.34312
7312 2 -0.483297 -0.710027 10.9731
3570 1 8.35854 -6.20915 0.264866
7274 2 4.95462 2.40281 13.6173
189 1 2.40252 11.2714 -0.593076
209 2 10.8475 10.4854 -0.517389
7323 2 2.02787 5.0323 13.6184
10873 2 5.02524 -0.630645 16.7253
10805 1 0.755405 -4.6518 18.0963
7206 1 0.835892 -4.87755 15.3464
10807 1 0.763069 -1.9793 17.8762
10814 2 5.08989 -3.59364 19.4668
7208 1 1.05634 -2.01012 15.183
10809 1 3.63039 -5.0261 18.2282
10863 2 2.03939 -0.670247 19.2587
7210 1 3.67678 -4.78986 15.4864
10804 2 2.22821 -3.39239 16.8403
10811 1 3.64294 -2.03978 18.168
7212 1 3.86302 -2.01331 15.1745
10812 1 3.19029 -1.70465 20.8188
10806 1 0.964589 -4.85011 20.9162
10819 1 6.55887 -2.15045 18.111
7218 1 6.14878 -4.85866 15.4142
10817 1 6.40946 -5.02387 18.1567
10808 1 0.365779 -1.7649 20.7457
7220 1 6.56252 -2.16199 15.4329
11008 2 13.3996 13.5661 16.7615
10818 1 6.30746 -4.96027 21.1667
7286 2 10.357 2.15007 13.9385
7226 2 10.8058 -3.36502 13.9618
7383 2 2.23051 10.6112 13.8578
10885 2 10.713 -0.620387 16.849
10829 1 12.0058 -4.58416 18.1302
7230 1 12.0111 -4.96814 15.2717
10831 1 11.9494 -2.13939 18.4483
10826 2 10.7333 -3.60729 19.6747
7232 1 12.1707 -1.93366 15.4808
10821 1 9.06009 -5.018 18.1382
10875 2 8.15128 -0.863217 19.7196
7222 1 9.2235 -4.52029 15.257
10816 2 7.85843 -3.60899 16.8522
10823 1 9.29014 -2.20716 18.1772
7224 1 9.58328 -1.87885 15.3849
10824 1 9.39007 -2.11068 21.117
25 2 10.484 -6.38173 27.7879
10822 1 9.20851 -4.79219 21.1255
10820 1 6.47613 -2.16999 20.8425
7227 2 13.4721 -6.16262 13.9495
7266 1 0.766057 0.85634 15.2115
7270 1 3.70952 0.669611 15.3631
10865 1 0.806077 0.72088 17.9536
10874 2 5.11743 2.21141 19.5055
10869 1 3.83136 0.818565 18.1991
10864 2 2.13178 2.35409 16.6717
10933 2 4.95406 5.12722 16.7861
10867 1 0.790724 3.80608 18.1878
7268 1 0.99168 3.55597 15.2054
10923 2 2.3065 5.03656 19.6366
10871 1 3.50867 3.64415 18.1694
7272 1 3.68516 3.66111 15.0987
10929 1 3.50286 6.48021 17.9147
7330 1 3.6396 6.72354 15.1125
7326 1 0.838156 6.49237 15.0048
7280 1 6.54228 3.75106 15.1332
10877 1 6.47555 0.66859 17.9907
7338 1 6.21587 6.46388 15.372
10937 1 6.35243 6.38176 18.2493
10930 1 3.55439 6.57763 20.8584
10868 1 1.08284 3.41028 20.7432
10870 1 3.56376 1.06107 21.13
10880 1 6.7954 3.55969 21.1976
10925 1 0.642621 6.47602 17.7592
10872 1 3.9369 3.7751 20.9464
7278 1 6.49165 0.706447 15.1415
10879 1 6.46033 3.37182 18.0135
10921 2 -0.482922 4.95237 16.5331
10938 1 6.40105 6.57227 21.1005
10926 1 0.891415 6.28237 21.0041
7382 2 -0.544098 13.3143 13.7129
10878 1 6.33549 0.542991 21.2763
7282 1 9.31704 0.691999 15.1907
7290 1 12.1068 0.73138 15.3011
10889 1 12.1856 0.731929 18.3152
10886 2 10.8307 2.21373 19.7386
10881 1 9.35213 0.403231 18.1765
10876 2 7.72712 2.04809 16.5482
10945 2 10.6251 4.81829 16.5329
10891 1 11.9935 3.49197 18.1794
7292 1 12.0074 3.50949 15.2983
10935 2 7.83631 4.95385 19.5461
10883 1 9.11569 3.16193 18.0895
7284 1 9.18636 3.62737 15.1431
10941 1 9.27966 6.3007 18.0754
10949 1 12.3388 6.30238 18.1536
7342 1 9.4623 6.34818 15.149
10884 1 9.37964 3.51339 20.8687
7350 1 12.1685 6.47269 15.2389
10890 1 12.463 0.700091 21.13
10892 1 12.3721 3.3889 20.8623
10882 1 9.19372 0.909936 21.2892
10942 1 9.08824 6.39132 20.8437
14668 2 13.5083 19.3038 22.2448
7215 2 8.14479 -6.18936 13.7418
11042 2 -0.366104 19.478 19.3607
10993 2 4.94232 10.7274 16.5734
10927 1 1.05807 9.01627 18.1946
10934 2 4.98277 7.84207 19.5687
7328 1 0.761829 9.18983 15.2747
10983 2 2.42052 10.4227 19.4433
10924 2 2.17542 7.7404 16.4584
10931 1 3.89784 9.28522 17.9869
7332 1 3.50272 9.27971 15.2715
10985 1 0.890947 11.8407 18.2238
7386 1 0.744091 12.0772 15.2127
10989 1 3.5529 12.0947 18.0619
7390 1 3.53321 11.9935 15.3353
10986 1 0.83918 11.9681 20.8439
7340 1 6.31854 9.36133 15.2308
7398 1 6.41825 12.1676 15.3972
10928 1 1.03266 9.11025 20.8369
10932 1 3.45811 9.22506 21.0924
10998 1 6.36221 11.8155 20.6201
10861 2 -0.480963 -0.628605 16.4706
10940 1 6.37473 9.09616 20.7087
10827 2 13.6339 -6.22633 19.6145
7394 2 5.06318 13.5092 14.1653
7214 2 5.09241 -3.47355 13.9215
10997 1 6.17411 12.1926 17.9691
10939 1 6.5355 9.06461 17.9034
11005 2 10.591 10.5604 16.7498
10951 1 12.2105 9.27926 18.1671
10946 2 10.8246 7.62955 19.4659
7352 1 12.0171 9.33422 15.2905
10995 2 7.764 10.5386 19.3787
10936 2 7.83791 7.65772 16.6484
10943 1 9.5211 8.9541 17.863
7344 1 9.02029 9.03556 15.2835
11009 1 12.0982 11.8508 18.112
7410 1 12.2079 12.1813 15.0827
11001 1 9.13921 12.1542 18.1978
7402 1 9.30367 11.7108 15.0438
11002 1 9.33909 11.7746 21.0365
10948 2 13.609 7.56209 16.7628
10952 1 11.8592 8.64227 21.2169
10888 2 13.4383 2.25579 16.5732
10994 2 4.9967 13.2592 19.5158
10984 2 2.25042 13.4556 16.6978
11053 2 5.17893 16.4108 16.6793
11045 1 0.626185 18.0701 17.8048
7446 1 1.02559 17.6242 15.0554
10987 1 0.723402 14.9735 18.2457
7388 1 0.731991 14.6383 15.2941
11049 1 3.51861 17.7805 17.9841
11043 2 2.1027 16.2263 19.521
7450 1 3.79736 17.8353 15.3441
10991 1 3.62274 14.7859 18.0703
7392 1 3.71164 14.8609 15.4234
11044 2 2.18802 19.1788 16.5456
11054 2 5.02155 19.1002 19.5935
7458 1 6.55398 18.0272 15.2283
11000 1 6.43145 14.7502 20.7013
11057 1 6.42956 17.8338 18.0956
11058 1 6.53725 17.6944 20.958
10988 1 0.858897 14.8832 20.9672
11050 1 3.67295 17.5632 20.7708
10999 1 6.39918 14.8756 17.9909
256 2 10.5579 16.3754 27.8173
7406 2 10.6408 13.6142 13.7672
10992 1 3.73285 14.6977 21.1021
7335 2 7.71925 5.11315 13.8249
7334 2 5.02854 7.89125 13.9356
7400 1 6.30363 15.0817 15.2212
10996 2 7.61287 13.6322 16.4664
11006 2 10.5021 13.3872 19.7185
11065 2 10.6496 16.3194 16.5536
11069 1 12.0537 17.8862 18.1995
7470 1 12.2653 17.6218 15.5064
11011 1 11.7903 14.9163 18.135
7412 1 12.126 14.913 15.293
11061 1 9.28393 17.6537 18.0162
11055 2 7.70978 16.4577 19.3902
7462 1 9.47135 17.9228 15.0962
11056 2 7.97042 19.3625 16.4004
11003 1 9.19759 15.0648 17.7725
7404 1 9.08291 14.6998 14.9562
11066 2 10.8681 19.2039 19.3454
14548 2 13.4153 7.68818 22.3213
14608 2 13.4247 13.268 21.8861
7275 2 7.91327 -0.498904 13.8838
11004 1 9.25704 14.8238 20.9629
4 2 2.83202 -3.56912 27.8295
11062 1 9.12829 17.8861 20.9982
7454 2 5.04523 19.2322 13.8807
10810 1 3.67561 -4.9456 20.5669
17960 1 3.59385 -5.1347 26.704
14473 2 4.95823 -0.596824 22.2726
14405 1 0.853566 -4.6487 23.939
14407 1 0.431968 -1.93596 23.6449
14414 2 5.30773 -3.3938 25.0787
14409 1 3.61729 -4.92969 23.6003
14463 2 2.38048 -0.851894 25.0907
14410 1 3.60912 -2.53994 26.106
14404 2 2.37679 -3.54032 22.2783
14411 1 3.61771 -2.08261 23.5376
3547 1 0.100583 -5.1406 26.302
14412 1 1.11742 -2.41078 27.1191
17952 1 6.12766 -1.88667 26.6626
14417 1 6.28106 -5.12422 23.8649
14419 1 6.27952 -2.03472 23.6714
3561 1 6.48063 -4.81825 26.5001
14662 1 9.37478 18.0649 26.8671
10947 2 13.5569 4.88817 19.491
10830 1 12.3049 -4.9823 20.8575
10832 1 11.926 -2.13294 21.164
7203 2 2.24775 -5.99558 13.9223
7263 2 2.47032 -0.662208 13.7923
7455 2 7.80975 16.4206 13.7255
14418 1 8.88079 -2.2167 26.7079
14485 2 10.7383 -0.597085 22.372
14429 1 12.0007 -4.95717 24.201
14431 1 12.306 -2.13481 23.9483
14426 2 10.5632 -3.38167 25.2066
14432 1 12.1847 -1.85423 26.4063
14421 1 9.0413 -4.70416 23.696
14475 2 7.8249 -0.843642 25.2798
14422 1 9.47585 -5.26695 26.2398
14416 2 7.71371 -3.53425 22.4096
14423 1 9.09678 -2.09112 23.6713
14430 1 11.9262 -4.68564 27.3314
7395 2 7.91853 10.4716 13.7947
14602 1 9.44984 14.7567 26.4661
7346 2 10.9273 7.90535 13.8583
10866 1 0.534187 0.845666 20.7063
14465 1 0.975731 0.692307 23.7019
14470 1 3.73867 0.57621 26.7953
14469 1 3.81699 0.792915 23.8624
14408 1 0.933624 0.519142 26.4377
14466 1 0.913397 3.37332 26.4962
14474 2 5.47902 2.18639 25.2342
14464 2 2.23798 2.14516 22.3342
14533 2 5.00203 4.85745 22.4602
14467 1 0.7641 3.39242 23.415
14523 2 2.38067 5.1051 25.4862
14471 1 3.72179 3.64884 23.927
14472 1 4.02091 3.3511 26.8325
14530 1 3.86296 6.16303 26.5847
14468 1 0.789099 5.99573 26.6851
14525 1 0.840629 6.52441 24.1467
14529 1 3.58155 6.48818 23.8014
14480 1 6.7575 6.32447 27.0193
14537 1 6.36722 6.51546 23.9801
14479 1 6.69419 3.70875 23.8688
14482 1 6.7178 0.81578 26.6096
14477 1 6.39273 0.632195 23.8757
10803 2 2.25324 -6.32732 19.4659
10825 2 10.8315 -6.0743 16.8424
14478 1 6.62534 3.44145 26.6335
10982 2 -0.522028 13.2721 19.4302
14489 1 12.2494 0.58046 23.7424
10950 1 12.1084 5.80319 20.8554
14481 1 9.45363 0.554216 23.9794
81 1 9.24299 3.5365 26.5428
14490 1 12.4315 0.982543 26.5428
14476 2 7.88373 2.01299 22.4554
14424 1 9.57877 0.539384 26.6237
76 2 10.7431 1.97751 25.235
14486 1 11.8721 3.58187 26.6923
14483 1 9.4419 3.2063 23.8298
14535 2 8.0697 4.86773 25.3477
14545 2 10.8301 4.92724 22.4458
14491 1 12.1323 3.35922 23.9229
14484 1 9.6006 6.13147 26.4172
14549 1 12.2298 6.37209 23.7665
14550 1 12.4515 6.35772 26.7192
14541 1 9.31288 6.19807 23.7503
11068 2 13.5761 19.1636 16.6637
14656 2 7.92313 19.0091 22.4075
10990 1 3.72154 11.853 20.6811
14413 2 4.79331 -6.20774 22.3774
14637 1 1.08951 11.2328 23.567
14593 2 5.08427 10.4606 22.3546
14534 2 5.05036 7.73082 25.1816
14528 1 0.815876 9.29314 26.3141
14583 2 2.58257 10.9306 25.4071
14524 2 2.07489 7.97044 22.5285
14531 1 3.53587 9.33109 23.9327
14532 1 3.57208 8.95452 26.7148
14589 1 3.82753 12.1283 23.4298
14586 1 0.559061 12.1428 26.1573
14590 1 4.8443 11.381 26.0895
14597 1 6.58868 11.8155 23.4601
14538 1 6.51344 8.91317 26.9339
14527 1 -0.290687 9.05763 23.5336
14607 2 13.6175 10.5552 25.1822
14540 1 6.7981 13.4524 26.3564
11010 1 11.9861 11.7437 20.8661
10944 1 9.28488 9.42898 20.6053
10887 2 13.4386 -0.658989 19.6132
14539 1 6.34332 8.91623 23.962
14610 1 12.3787 11.8288 26.7673
14601 1 9.64885 11.7348 23.7879
14609 1 12.3033 11.9316 23.793
14544 1 9.4739 11.9427 26.3609
14543 1 9.39191 8.85074 23.6682
14536 2 7.74061 7.57547 22.665
14542 1 9.17346 9.21147 26.5211
14595 2 7.59046 10.5725 25.2769
14605 2 10.7468 10.3123 22.5652
14551 1 12.3014 9.26071 23.7387
14546 2 10.8789 7.71576 25.1918
14552 1 12.178 8.99275 26.7885
14670 1 12.2135 17.8868 26.3802
10813 2 5.06223 -6.33088 16.7042
7466 2 10.7699 19.4904 13.7866
11067 2 13.4471 16.4511 19.2859
11046 1 0.845511 17.7874 20.7814
14669 1 12.1847 17.7617 23.7085
14596 2 7.80889 13.3165 22.0685
14585 1 3.34232 13.3667 26.3795
14584 2 2.10064 13.2278 22.3476
14653 2 4.89123 16.2941 22.406
14645 1 0.756433 18.0862 23.4965
14643 2 2.21743 16.5007 25.2624
14650 1 3.62494 18.3611 26.6085
14587 1 0.484297 15.5016 23.9263
14594 2 4.94915 13.5248 24.732
14600 1 5.02853 15.7398 25.8176
14654 2 5.05482 19.215 25.034
14644 2 2.25463 19.1428 22.1879
14591 1 3.23746 14.627 23.8292
14649 1 3.59714 17.55 23.7551
14646 1 0.736205 17.7397 26.4609
14588 1 0.371735 14.9755 26.588
14658 1 6.49566 18.0993 26.9136
14599 1 6.31614 14.8268 23.4323
14428 2 13.533 -3.55586 22.5357
7202 2 -0.461636 -3.44362 13.8755
11070 1 12.008 17.8559 20.845
11012 1 12.0159 14.8213 20.7538
14603 1 8.99434 14.5205 23.5437
14611 1 11.6069 14.7448 23.5391
14665 2 10.3836 16.3242 22.23
14612 1 12.3586 14.6499 26.1588
14657 1 6.27294 17.74 23.5734
14666 2 10.6544 19.2012 25.4059
205 2 10.8169 13.2892 24.8825
14655 2 7.68109 15.861 25.2773
14661 1 9.18663 17.2956 24.0243
7287 2 13.49 -0.680181 14.0898
14667 2 13.4979 16.3167 24.9654
14592 1 2.6087 15.9195 27.6053
7443 2 2.2165 16.0511 14.1033
7407 2 13.5735 10.7396 13.8706
14642 2 -0.554913 19.4448 25.0238
7262 2 -0.504234 2.28581 13.7817
7442 2 -0.570653 19.0199 14.2846
10828 2 13.4717 -3.28507 16.7891
10922 2 -0.495473 7.81515 19.4706
11007 2 13.5043 10.5176 19.2275
7467 2 13.4278 16.4577 14.0541
184 2 1.69685 13.7158 27.8144
3913 2 5.08249 21.9775 5.15826
305 1 0.629329 23.8705 0.756365
306 1 0.682059 23.3762 3.52463
247 1 0.81196 20.916 0.881567
314 2 4.94465 24.8013 2.27376
248 1 0.777767 20.5326 3.72677
309 1 3.59753 23.405 1.04975
303 2 2.33908 22.0289 2.2097
310 1 3.71711 23.2839 3.70195
3904 2 2.12246 24.8446 5.10856
251 1 3.5265 20.8453 0.601103
252 1 3.74473 20.5209 3.51621
3859 1 6.42019 20.756 3.72884
3905 1 0.992324 23.5555 6.38755
3851 1 3.82315 20.6533 6.43766
318 1 6.35788 23.5676 3.60951
3917 1 6.56794 23.3164 6.56945
366 1 0.610417 26.9202 1.12707
7701 1 9.37315 40.6626 11.9425
422 2 -0.309447 36.1819 2.34483
260 1 6.45669 20.6468 1.1585
317 1 6.73102 23.3374 0.58507
3860 1 6.58892 20.458 6.33928
3925 2 10.688 21.9858 5.22594
329 1 11.987 23.7522 0.987807
330 1 12.1904 23.4971 3.63784
271 1 12.2439 20.8842 1.27613
326 2 10.7018 24.8508 2.24369
272 1 12.1354 20.5867 4.018
321 1 9.40151 23.4234 0.754487
315 2 7.85872 22.2767 2.26978
322 1 9.29474 23.3008 3.69478
3916 2 7.9303 24.7443 5.06126
263 1 9.32869 20.6401 0.879579
264 1 9.24698 20.6727 3.78969
3921 1 9.36338 23.4772 6.36261
3871 1 12.3136 20.343 6.7455
4112 2 10.8365 41.6271 10.6097
3988 2 13.6381 30.2968 4.90491
331 1 12.2609 26.5654 0.807174
324 1 9.37705 26.2368 3.59454
3863 1 9.48243 20.7604 6.83863
4103 1 9.41358 43.274 6.58216
3929 1 12.2792 23.3294 6.54683
3907 1 0.845888 26.4546 6.26789
308 1 0.720628 26.3857 3.7886
312 1 3.63326 26.1362 3.55628
311 1 3.01014 26.3922 1.1552
3973 2 5.08205 27.7253 4.88945
363 2 2.14163 27.5674 2.65672
374 2 5.14166 30.7097 2.33236
368 1 0.940379 29.3318 3.71144
370 1 3.87215 29.3598 3.69343
3964 2 2.21501 30.6894 5.07225
371 1 3.82272 32.1727 1.01492
372 1 3.76904 32.0043 3.66475
425 1 0.841199 32.2042 0.903599
3967 1 0.75002 32.0565 3.79836
367 1 3.78162 29.0035 1.05831
14766 1 1.09248 29.3649 1.01795
378 1 6.69183 29.2375 3.78362
320 1 6.56822 26.2337 3.41368
3987 2 13.4835 27.7402 7.96702
7767 2 13.6338 44.408 13.6702
3965 1 0.791842 29.2683 6.38518
332 1 12.3115 26.3429 3.83498
319 1 6.03436 26.2119 0.624046
377 1 6.42845 29.278 0.843261
3919 1 6.54069 26.2388 6.26054
323 1 9.17112 26.3021 0.957916
380 1 6.7199 31.9523 3.49299
379 1 6.4957 31.9963 0.576283
3985 2 10.7688 27.663 5.14075
375 2 8.00241 27.7636 2.3979
390 1 12.0102 29.177 1.03055
386 2 10.6146 30.514 2.43738
392 1 12.333 32.0249 3.96275
381 1 9.367 32.0663 1.03861
382 1 9.34921 28.9007 3.74069
3976 2 8.02202 30.4296 5.23184
384 1 9.46316 31.7776 3.94714
3989 1 12.0046 29.1202 3.68218
391 1 11.9017 32.0372 1.32526
14778 1 8.91696 29.3842 0.98437
3991 1 12.4153 31.889 6.63725
3981 1 9.28119 29.0825 6.56788
3927 2 13.6219 21.8698 7.9984
4157 1 6.62121 46.0628 6.4195
7574 2 5.12832 30.5153 13.5463
7681 2 -0.502093 38.8452 10.7008
4033 2 5.26482 33.3016 5.19554
426 1 1.08611 34.7052 3.90301
434 2 5.34095 36.1502 2.48286
429 1 3.73352 35.0277 1.10131
423 2 2.33128 33.366 2.51988
430 1 4.0377 34.6326 3.76243
4024 2 2.55093 36.1017 5.20367
428 1 0.994035 34.7627 1.11206
486 1 0.871588 37.491 3.70642
427 1 1.11855 37.5429 1.00994
431 1 3.67408 37.5799 0.828249
432 1 3.62752 37.6403 3.76971
483 2 2.20454 38.9843 2.2935
4093 2 5.24421 38.9829 4.9335
4037 1 6.71763 34.7392 6.55876
7501 2 -0.44993 22.4658 11.0485
440 1 6.82316 37.6605 3.71539
438 1 6.75926 34.7267 3.84311
327 2 13.6352 22.3707 2.34357
4027 1 1.31511 34.8924 6.76587
7699 1 6.78323 43.4476 12.1217
424 2 2.39749 36.2182 -0.253804
437 1 6.71171 34.7019 1.10587
439 1 6.5107 37.4178 0.838367
383 1 9.31074 34.9239 0.879966
4045 2 11.0119 33.3557 5.23482
449 1 12.1884 34.6231 0.818224
450 1 12.2257 34.6875 3.62829
446 2 10.7273 36.0364 2.49148
441 1 9.555 37.6782 1.18865
435 2 7.9886 33.3962 2.46371
442 1 9.55778 34.5695 3.86855
4036 2 8.07319 36.0525 5.33986
452 1 12.5276 37.4974 3.88103
443 1 12.2405 37.3165 1.04247
444 1 9.37856 37.6815 4.03039
365 2 2.05694 27.9947 -0.434199
505 2 10.708 38.8941 -0.447015
493 2 5.27284 38.6703 -0.401265
4049 1 12.0635 34.9167 6.36868
545 1 1.13012 45.9829 0.95133
550 1 3.8259 45.8644 3.94055
4153 2 5.28449 44.5108 5.12884
485 1 0.722787 40.3984 0.708071
487 1 0.927257 43.2956 0.819492
494 2 5.08025 41.7042 2.39204
488 1 0.942317 43.1004 3.82649
489 1 3.65453 40.4037 0.906752
543 2 2.51942 44.4508 2.37311
490 1 3.71618 40.4566 3.78145
491 1 3.70922 42.9634 0.817709
492 1 3.91725 43.1817 3.68452
482 2 2.3181 41.8007 5.20141
538 1 0.792313 40.4334 3.59462
498 1 6.61291 40.4544 3.72034
499 1 6.55543 43.2701 1.00182
436 2 7.8304 36.0506 -0.417414
4085 1 1.09604 40.3695 6.68806
546 1 1.14052 45.8358 3.95151
387 2 13.5372 27.7413 2.28
4115 1 9.53866 40.0836 9.35854
302 2 -0.492188 24.9619 2.47348
4105 2 11.0911 38.9743 5.28383
495 2 8.05638 39.0535 2.29579
500 1 6.66134 43.0598 3.91901
497 1 6.56772 40.2584 0.749163
4165 2 10.8123 44.8019 5.08804
509 1 12.0126 40.1934 0.946778
510 1 12.3384 40.127 3.72663
506 2 10.7395 41.8963 2.35605
512 1 12.3025 42.9746 3.85703
501 1 9.41132 40.3801 0.776244
555 2 7.83686 44.7441 2.3838
502 1 9.40832 40.3513 3.74704
4096 2 8.0134 41.7103 5.22123
503 1 9.42546 43.169 1.06922
504 1 9.49898 43.4557 3.7687
565 1 12.3155 42.9081 1.06163
7703 1 9.51113 43.2003 12.3341
3898 1 0.752576 21.1282 6.73702
3909 1 3.56429 23.5487 6.27668
7711 1 12.252 40.3778 12.5228
7445 1 0.817866 20.7809 10.1332
7459 1 5.93379 20.3121 12.1554
7513 2 5.10095 21.9933 10.6017
7505 1 1.19507 23.729 12.3296
3914 2 5.07835 24.9576 7.88574
7509 1 4.00933 23.5733 11.8661
3903 2 2.31882 21.879 8.02581
3910 1 3.69794 23.4026 9.18465
7504 2 2.39776 25.0025 10.5889
7451 1 2.99492 20.3115 12.4034
3852 1 3.89007 20.3955 9.55677
7559 1 0.897888 23.2933 9.16466
3896 1 0.17801 20.7347 12.6991
7507 1 0.811311 26.4809 12.0033
7517 1 6.78902 23.5196 9.05687
3918 1 6.74585 20.549 9.51047
3908 1 0.839424 26.23 9.18305
4155 2 8.08352 44.7827 8.10176
7519 1 6.58302 23.3694 12.0824
3864 1 9.26532 20.639 9.69612
7471 1 12.094 20.7588 12.4442
7525 2 10.6502 21.9125 10.8429
7529 1 12.5642 23.489 12.396
3930 1 12.2601 23.4451 9.41394
3926 2 10.7513 24.8377 7.93223
3872 1 12.166 20.6063 9.39245
3915 2 7.87352 21.9531 8.06688
3922 1 9.54416 23.3589 9.36785
7516 2 8.08165 24.7155 10.8632
7521 1 10.1151 23.9142 11.7888
7528 2 13.3335 24.7824 10.8571
7515 1 9.28099 20.5975 12.2554
7531 1 12.6826 26.0849 12.5917
3979 1 6.41426 31.9922 6.39532
4025 1 0.839908 31.8824 6.71678
3977 1 6.55647 28.8181 6.52947
3920 1 6.48069 26.073 9.27928
7523 1 6.62147 26.3116 12.1055
3911 1 3.52121 26.4531 6.10881
3971 1 3.60671 31.8033 6.52807
7511 1 3.5994 26.3806 12.2438
3969 1 3.88575 29.2385 6.31336
3912 1 3.62584 26.2085 8.97536
7572 1 3.74309 28.929 12.1
7573 2 5.177 27.5484 10.8139
3963 2 2.24042 27.7073 7.79903
7565 1 1.25433 29.4473 12.525
3966 1 0.761032 29.1414 9.09982
7567 1 0.728331 31.7502 9.76157
3974 2 5.16416 30.3925 7.86002
3970 1 3.53623 28.6585 9.28213
7564 2 2.20335 30.3256 10.6523
3972 1 3.797 31.7064 9.50249
7571 1 3.84506 31.829 12.0589
7579 1 6.4609 31.5431 11.936
3980 1 6.80521 31.8846 9.1316
304 2 2.22835 24.6928 -0.401692
7697 1 6.25717 40.2895 12.436
3931 1 12.1137 26.3254 6.78828
549 1 3.62759 45.994 1.29913
3932 1 12.0401 26.3179 9.52662
3923 1 9.2365 26.3327 6.49915
7577 1 6.76604 28.8651 12.0562
3924 1 9.12934 26.0738 9.16744
3978 1 6.53252 28.9523 9.47254
3983 1 9.45973 31.7655 6.85407
3990 1 12.1552 29.2855 6.30906
7581 1 9.58035 26.4459 12.2225
7585 2 10.6224 27.6115 10.686
3975 2 8.00348 27.4763 7.87924
7589 1 12.1135 29.018 12.3367
7591 1 12.1028 31.7358 12.106
3986 2 10.9471 30.6296 8.18091
3992 1 12.3711 32.0742 9.50778
3982 1 9.17473 28.8325 9.36572
7576 2 7.85214 30.264 10.5298