LAMMPS (29 Oct 2020)
OMP_NUM_THREADS environment is not set. Defaulting to 1 thread. (../comm.cpp:94)
  using 1 OpenMP thread(s) per MPI task
OMP_NUM_THREADS environment is not set. Defaulting to 1 thread. (../comm.cpp:94)
  using 1 OpenMP thread(s) per MPI task
Reading data file ...
  orthogonal box = (-0.43227725 -5.2753162 -0.43214974) to (27.772277 333.35532 27.772150)
  2 by 13 by 2 MPI processor grid
  reading atoms ...
  17640 atoms
  reading velocities ...
  17640 velocities
Finding 1-2 1-3 1-4 neighbors ...
  special bond factors lj:    0.0      0.0      0.0     
  special bond factors coul:  0.0      0.0      0.0     
     0 = max # of 1-2 neighbors
     0 = max # of 1-3 neighbors
     0 = max # of 1-4 neighbors
     1 = max # of special neighbors
  special bonds CPU = 0.004 seconds
  read_data CPU = 0.060 seconds
Setting atom values ...
  11760 settings made for charge
Setting atom values ...
  5880 settings made for charge
PPPM initialization ...
  using 12-bit tables for long-range coulomb (../kspace.cpp:328)
  G vector (1/distance) = 0.29851483
  grid = 40 240 40
  stencil order = 5
  estimated absolute RMS force accuracy = 0.00015865338
  estimated relative force accuracy = 1.1017867e-05
  using single precision MKL FFT
  3d grid and FFT values/proc = 15000 7600
Neighbor list info ...
  update every 1 steps, delay 0 steps, check yes
  max neighbors/atom: 2000, page size: 100000
  master list distance cutoff = 11.3
  ghost atom cutoff = 11.3
  binsize = 5.65, bins = 5 60 5
  2 neighbor lists, perpetual/occasional/extra = 2 0 0
  (1) pair coul/long, perpetual
      attributes: half, newton on
      pair build: half/bin/newton
      stencil: half/bin/3d/newton
      bin: standard
  (2) pair eam/alloy, perpetual, copy from (1)
      attributes: half, newton on
      pair build: copy
      stencil: none
      bin: none
Setting up Verlet run ...
  Unit style    : metal
  Current step  : 0
  Time step     : 0.001
Per MPI rank memory allocation (min/avg/max) = 8.147 | 8.169 | 8.186 Mbytes
Step Temp E_pair E_mol TotEng Press 
       0         1200   -228963.99            0   -226227.97    1298.6156 
   50000    1195.7976   -228946.08            0   -226219.64    1868.7304 
Loop time of 335.621 on 52 procs for 50000 steps with 17640 atoms

Performance: 12.872 ns/day, 1.865 hours/ns, 148.978 timesteps/s
99.8% CPU use with 52 MPI tasks x 1 OpenMP threads

MPI task timing breakdown:
Section |  min time  |  avg time  |  max time  |%varavg| %total
---------------------------------------------------------------
Pair    | 214.16     | 221.68     | 231.61     |  27.4 | 66.05
Bond    | 0.0030904  | 0.0052561  | 0.0076502  |   1.3 |  0.00
Kspace  | 67.263     | 79.139     | 86.845     |  49.2 | 23.58
Neigh   | 20.011     | 22.71      | 25.136     |  22.5 |  6.77
Comm    | 9.0603     | 9.7873     | 10.853     |  14.2 |  2.92
Output  | 5.2728e-05 | 5.8819e-05 | 0.00029892 |   0.0 |  0.00
Modify  | 1.1239     | 1.576      | 2.519      |  34.3 |  0.47
Other   |            | 0.7234     |            |       |  0.22

Nlocal:        339.231 ave         367 max         320 min
Histogram: 4 2 9 9 15 6 3 1 1 2
Nghost:        3977.35 ave        4162 max        3850 min
Histogram: 6 6 3 11 9 8 5 0 0 4
Neighs:        67359.4 ave       74363 max       59166 min
Histogram: 4 1 2 3 8 15 10 6 0 3

Total # of neighbors = 3502688
Ave neighs/atom = 198.56508
Ave special neighs/atom = 0.0000000
Neighbor list builds = 10989
Dangerous builds = 0
11760 atoms in group oxygen
PPPM initialization ...
  using 12-bit tables for long-range coulomb (../kspace.cpp:328)
  G vector (1/distance) = 0.29851483
  grid = 40 240 40
  stencil order = 5
  estimated absolute RMS force accuracy = 0.00015865338
  estimated relative force accuracy = 1.1017867e-05
  using single precision MKL FFT
  3d grid and FFT values/proc = 15000 7600
Setting up Verlet run ...
  Unit style    : metal
  Current step  : 0
  Time step     : 0.001
Per MPI rank memory allocation (min/avg/max) = 8.398 | 8.420 | 8.437 Mbytes
Step f_2 Temp v_Tdiff v_deltaT 
       0            0    1195.7976            0            0 
  100000    1303.1593    1200.0184  0.049693201    576.93345 
  200000    2535.5583    1199.3839  0.059612426    692.09473 
  300000    3770.4808    1205.9555  0.059358888    689.15118 
  400000    5007.5013    1194.4072  0.058305015    676.91581 
  500000    6245.0295    1202.4828   0.05882023    682.89741 
  600000    7480.2316     1197.688  0.059107794      686.236 
  700000    8717.9409    1211.6525  0.058386526    677.86215 
  800000    9950.7692    1204.3559  0.060559464    703.08975 
  900000    11186.491    1208.3409  0.060935055    707.45033 
 1000000    12422.174    1209.3889  0.058374013    677.71687 
Loop time of 6714.78 on 52 procs for 1000000 steps with 17640 atoms

Performance: 12.867 ns/day, 1.865 hours/ns, 148.925 timesteps/s
99.8% CPU use with 52 MPI tasks x 1 OpenMP threads

MPI task timing breakdown:
Section |  min time  |  avg time  |  max time  |%varavg| %total
---------------------------------------------------------------
Pair    | 4282.7     | 4459.3     | 4612       | 107.1 | 66.41
Bond    | 0.069179   | 0.10348    | 0.14931    |   6.5 |  0.00
Kspace  | 1344.3     | 1526.9     | 1712.7     | 211.6 | 22.74
Neigh   | 422.59     | 490.2      | 542.05     | 119.2 |  7.30
Comm    | 187.07     | 202.25     | 230.75     |  76.3 |  3.01
Output  | 0.0010971  | 0.001161   | 0.0023255  |   0.5 |  0.00
Modify  | 5.6103     | 6.1421     | 6.7737     |  10.0 |  0.09
Other   |            | 29.84      |            |       |  0.44

Nlocal:        339.231 ave         364 max         309 min
Histogram: 3 2 9 1 4 7 11 6 2 7
Nghost:        3974.63 ave        4132 max        3845 min
Histogram: 4 6 9 8 4 6 3 6 2 4
Neighs:        67340.0 ave       73284 max       56855 min
Histogram: 3 1 4 2 5 2 7 12 10 6

Total # of neighbors = 3501682
Ave neighs/atom = 198.50805
Ave special neighs/atom = 0.0000000
Neighbor list builds = 237880
Dangerous builds = 0
Total wall time: 1:57:30
