LAMMPS (29 Oct 2020)
OMP_NUM_THREADS environment is not set. Defaulting to 1 thread. (../comm.cpp:94)
  using 1 OpenMP thread(s) per MPI task
OMP_NUM_THREADS environment is not set. Defaulting to 1 thread. (../comm.cpp:94)
  using 1 OpenMP thread(s) per MPI task
Reading data file ...
  orthogonal box = (-0.40325506 -4.6640384 -0.39829456) to (27.743255 332.74404 27.738295)
  2 by 13 by 2 MPI processor grid
  reading atoms ...
  17640 atoms
  reading velocities ...
  17640 velocities
Finding 1-2 1-3 1-4 neighbors ...
  special bond factors lj:    0.0      0.0      0.0     
  special bond factors coul:  0.0      0.0      0.0     
     0 = max # of 1-2 neighbors
     0 = max # of 1-3 neighbors
     0 = max # of 1-4 neighbors
     1 = max # of special neighbors
  special bonds CPU = 0.003 seconds
  read_data CPU = 0.062 seconds
Setting atom values ...
  11760 settings made for charge
Setting atom values ...
  5880 settings made for charge
PPPM initialization ...
  using 12-bit tables for long-range coulomb (../kspace.cpp:328)
  G vector (1/distance) = 0.29867681
  grid = 40 240 40
  stencil order = 5
  estimated absolute RMS force accuracy = 0.00015727946
  estimated relative force accuracy = 1.0922454e-05
  using single precision MKL FFT
  3d grid and FFT values/proc = 15000 7600
Neighbor list info ...
  update every 1 steps, delay 0 steps, check yes
  max neighbors/atom: 2000, page size: 100000
  master list distance cutoff = 11.3
  ghost atom cutoff = 11.3
  binsize = 5.65, bins = 5 60 5
  2 neighbor lists, perpetual/occasional/extra = 2 0 0
  (1) pair coul/long, perpetual
      attributes: half, newton on
      pair build: half/bin/newton
      stencil: half/bin/3d/newton
      bin: standard
  (2) pair eam/alloy, perpetual, copy from (1)
      attributes: half, newton on
      pair build: copy
      stencil: none
      bin: none
Setting up Verlet run ...
  Unit style    : metal
  Current step  : 0
  Time step     : 0.001
Per MPI rank memory allocation (min/avg/max) = 8.137 | 8.173 | 8.196 Mbytes
Step Temp E_pair E_mol TotEng Press 
       0          900   -229829.23            0   -227777.22   -548.15755 
   50000    904.80024   -229812.13            0   -227749.17    187.74539 
Loop time of 333.893 on 52 procs for 50000 steps with 17640 atoms

Performance: 12.938 ns/day, 1.855 hours/ns, 149.749 timesteps/s
99.8% CPU use with 52 MPI tasks x 1 OpenMP threads

MPI task timing breakdown:
Section |  min time  |  avg time  |  max time  |%varavg| %total
---------------------------------------------------------------
Pair    | 212.76     | 224.7      | 230.43     |  26.8 | 67.30
Bond    | 0.0027666  | 0.0051462  | 0.007722   |   1.4 |  0.00
Kspace  | 69.517     | 76.814     | 92.698     |  61.7 | 23.01
Neigh   | 15.88      | 20.484     | 22.467     |  37.4 |  6.13
Comm    | 8.9163     | 9.6875     | 10.869     |  15.7 |  2.90
Output  | 5.3772e-05 | 5.9233e-05 | 0.000269   |   0.0 |  0.00
Modify  | 1.0904     | 1.4688     | 1.8558     |  21.2 |  0.44
Other   |            | 0.7355     |            |       |  0.22

Nlocal:        339.231 ave         366 max         301 min
Histogram: 5 3 0 0 4 12 12 4 5 7
Nghost:        4026.29 ave        4202 max        3779 min
Histogram: 4 6 4 2 3 3 5 9 5 11
Neighs:        67581.4 ave       74353 max       51232 min
Histogram: 3 1 0 1 3 0 8 18 10 8

Total # of neighbors = 3514234
Ave neighs/atom = 199.21961
Ave special neighs/atom = 0.0000000
Neighbor list builds = 9894
Dangerous builds = 0
11760 atoms in group oxygen
PPPM initialization ...
  using 12-bit tables for long-range coulomb (../kspace.cpp:328)
  G vector (1/distance) = 0.29867681
  grid = 40 240 40
  stencil order = 5
  estimated absolute RMS force accuracy = 0.00015727946
  estimated relative force accuracy = 1.0922454e-05
  using single precision MKL FFT
  3d grid and FFT values/proc = 15000 7600
Setting up Verlet run ...
  Unit style    : metal
  Current step  : 0
  Time step     : 0.001
Per MPI rank memory allocation (min/avg/max) = 8.388 | 8.423 | 8.446 Mbytes
Step f_2 Temp v_Tdiff v_deltaT 
       0            0    904.80024            0            0 
  100000    1020.9986    913.99398  0.032933948    382.36007 
  200000    2018.3284    912.35581  0.037214066    432.05185 
  300000    3018.7557    911.90734  0.038556719    447.63993 
  400000    4012.7102    906.64909  0.037089318    430.60353 
  500000    5008.2386    903.78628  0.038050552    441.76337 
  600000    6004.7739    904.16847  0.037289153    432.92361 
  700000    7003.4216    912.26665  0.036399345    422.59301 
  800000     8004.385    907.97581  0.037434449    434.61047 
  900000    8998.5163    908.67849   0.03630703    421.52124 
 1000000    10010.133    909.54245  0.035630344    413.66498 
Loop time of 6648.67 on 52 procs for 1000000 steps with 17640 atoms

Performance: 12.995 ns/day, 1.847 hours/ns, 150.406 timesteps/s
99.8% CPU use with 52 MPI tasks x 1 OpenMP threads

MPI task timing breakdown:
Section |  min time  |  avg time  |  max time  |%varavg| %total
---------------------------------------------------------------
Pair    | 4230.5     | 4463.3     | 4617.3     | 113.8 | 67.13
Bond    | 0.063256   | 0.10213    | 0.13497    |   5.3 |  0.00
Kspace  | 1353.8     | 1540.5     | 1853.8     | 257.7 | 23.17
Neigh   | 323        | 417.82     | 461.07     | 170.3 |  6.28
Comm    | 175.67     | 191.54     | 207.42     |  60.2 |  2.88
Output  | 0.0011272  | 0.0011879  | 0.002396   |   0.5 |  0.00
Modify  | 5.6991     | 6.1505     | 6.8043     |  10.6 |  0.09
Other   |            | 29.19      |            |       |  0.44

Nlocal:        339.231 ave         366 max         289 min
Histogram: 1 2 4 1 0 5 15 11 9 4
Nghost:        4018.69 ave        4167 max        3749 min
Histogram: 4 3 4 4 3 2 2 4 13 13
Neighs:        67577.9 ave       73761 max       49227 min
Histogram: 1 3 0 1 2 1 1 14 20 9

Total # of neighbors = 3514050
Ave neighs/atom = 199.20918
Ave special neighs/atom = 0.0000000
Neighbor list builds = 202383
Dangerous builds = 0
Total wall time: 1:56:23
