ITEM: TIMESTEP
50000
ITEM: NUMBER OF ATOMS
18000
ITEM: BOX BOUNDS pp pp pp
-5.3859671364328587e-01 2.7878596713643315e+01
-6.5115678307303435e+00 3.3459156783073718e+02
-5.5567868989193159e-01 2.7895678689891746e+01
ITEM: ATOMS id type x y z
3673 2 5.09785 -0.873754 5.06993
5 2 1.94052 -3.26997 2.08145
6 1 0.382828 -4.15471 3.8644
14 2 5.27946 -3.83275 2.54009
9 1 2.34423 -2.08139 4.16285
63 2 2.21956 -0.340297 2.53364
3604 2 2.40186 -3.91657 5.52355
12 1 4.9559 -3.83487 4.98111
3551 1 3.71532 -1.89859 2.00311
3547 1 0.446683 -1.49541 2.21088
3548 1 3.18268 -4.67757 3.2517
3559 1 2.10481 -1.48274 -0.227284
10 1 -0.0862721 -6.28163 2.33957
3557 1 4.0149 -4.12915 0.779436
79 2 7.97306 1.90852 -0.223956
148 2 13.4176 7.53556 -0.172526
3812 1 13.584 14.5469 9.22295
17 1 6.25769 -5.41453 1.06706
17946 1 0.00785442 -3.67376 0.580126
3688 2 13.4965 1.95018 5.24943
3553 1 1.74594 -5.47194 0.838188
20 1 6.37062 -2.13313 3.82883
19 1 6.58573 -2.2805 1.04792
18 1 6.61591 -5.41471 3.74388
3685 2 10.6171 -0.889277 5.32031
30 1 12.1154 -5.08685 0.273178
31 1 12.1381 -2.54299 1.0032
26 2 10.6529 -3.92433 2.27299
32 1 11.9985 -2.36211 3.76046
21 1 9.30074 -2.57756 0.77254
75 2 7.83807 -0.829197 2.49356
22 1 9.64476 -5.27152 3.56527
3616 2 7.84101 -3.70986 5.21504
24 1 9.22162 -2.62695 3.69274
3564 1 9.23147 -5.39379 0.601745
3572 1 12.4061 -5.23859 3.62593
7274 2 5.10372 1.77306 13.6706
3687 2 13.595 -0.913412 7.97281
3868 2 13.6251 19.0068 5.33597
3617 1 6.57544 -5.49258 6.47182
87 2 13.5583 -1.07085 2.23874
3623 1 9.24809 -2.21699 6.4502
3629 1 12.2738 -5.2757 6.23538
3631 1 11.9163 -2.27873 6.861
3808 2 13.4745 13.2997 5.03188
70 1 3.84196 0.548991 3.88052
8 1 0.848514 0.48849 4.2642
66 1 0.525033 3.20328 3.68252
7 1 0.871069 0.68079 0.964306
74 2 5.09997 1.89566 2.48386
69 1 0.45853 3.07824 0.877912
3664 2 2.10102 2.06666 5.27317
11 1 3.79738 0.492392 1.14097
3733 2 5.19979 4.85041 5.12286
123 2 2.18575 4.65129 2.25547
71 1 3.6679 3.43899 1.05987
72 1 3.31722 3.11736 3.90115
130 1 3.66514 6.00789 3.76799
129 1 3.34771 6.23776 1.1367
68 1 0.745268 6.19796 3.7083
67 1 0.472561 6.23381 1.19567
14420 1 6.61155 0.480429 1.3091
3861 1 9.06759 17.5451 6.59271
80 1 6.27494 3.2947 4.03278
78 1 6.55362 0.531995 3.73805
3665 1 0.883208 3.54981 6.59353
3677 1 6.29285 0.316567 6.51418
7459 1 13.5069 18.5138 13.3138
77 1 6.42762 3.56045 0.743025
137 1 6.60931 6.12078 0.767609
138 1 6.39657 6.31352 3.80411
82 1 9.38322 0.345669 3.87704
90 1 12.1262 0.543435 3.33823
86 2 10.7136 1.89142 2.23285
81 1 9.36041 3.30914 0.94154
3676 2 7.81977 1.79277 5.22392
23 1 9.37491 0.398184 1.2207
3745 2 10.5215 4.75051 5.23056
91 1 12.2889 0.255785 0.676537
92 1 11.8971 3.34739 3.55739
135 2 7.9068 4.82846 2.16057
84 1 9.01759 3.15369 3.63641
14492 1 11.9632 3.32809 0.984352
142 1 9.09494 6.217 3.63095
150 1 11.8685 6.3568 3.88445
83 1 12.0892 6.19872 1.10262
14484 1 9.38215 6.11475 0.83583
7456 2 7.76611 19.0341 11.1058
14652 1 4.42993 18.2762 -0.415045
3679 1 6.45621 3.17748 6.75377
3681 1 9.2668 0.70657 6.85031
3689 1 12.3041 0.455566 6.58244
3691 1 12.1124 3.29705 6.18733
3749 1 12.1036 6.03314 6.61196
7413 1 11.1064 13.9335 10.6471
7415 1 13.5002 14.7326 12.3558
3793 2 4.95598 10.4751 4.98974
126 1 0.708296 9.1979 3.96387
127 1 0.98877 11.7842 0.989538
134 2 4.92212 7.55684 2.38835
128 1 0.978853 11.7873 3.7647
183 2 2.15279 10.3052 2.47359
3724 2 2.22467 7.42177 5.15483
131 1 3.5367 9.03901 0.937856
132 1 3.54064 9.02813 3.8962
198 1 3.70368 11.8293 3.81698
125 1 0.801702 8.9904 1.10994
186 1 3.75074 11.9214 0.676963
14598 1 6.42258 11.6704 0.599942
7288 2 13.5734 1.68897 10.7451
73 2 4.99107 -0.987708 -0.108841
7468 2 13.3824 19.3986 11.0679
7408 2 13.5247 13.0544 10.9918
3857 1 6.47743 17.5804 6.49614
3739 1 6.35232 9.22014 6.81579
197 1 6.66501 11.9877 3.43927
139 1 6.29861 8.88405 1.03906
140 1 6.36093 9.05225 3.67291
3805 2 10.7429 10.5955 5.32434
151 1 12.0465 9.10075 0.842715
146 2 10.5663 7.46038 2.47736
152 1 12.2474 8.95484 3.79318
141 1 9.20508 8.75263 0.891212
195 2 7.84654 10.3643 2.23393
3736 2 7.87934 7.78651 4.98217
144 1 9.23514 9.07475 3.63483
210 1 12.1394 11.6301 3.90451
201 1 9.46861 11.7411 0.859888
202 1 9.47567 12.0001 3.59363
213 1 12.2515 11.8602 1.02111
3796 2 7.81679 13.3963 5.13371
7396 2 8.56779 12.9767 11.0034
3801 1 9.17581 12.0832 6.42584
253 2 5.39231 16.3059 -0.322762
7263 2 2.13288 -1.03224 13.6095
244 2 2.04038 19.4059 -0.522347
194 2 5.04201 13.339 2.13023
3784 2 2.11432 13.3986 5.41311
14588 1 0.0535396 16.211 1.32968
254 2 4.8545 18.9953 2.45451
3844 2 2.34618 19.053 5.26677
3853 2 5.26209 16.2286 5.13974
246 1 0.717251 17.5635 4.10519
188 1 0.427638 14.3588 3.94151
243 2 1.80597 16.0785 2.81229
250 1 3.78232 17.5949 4.12039
191 1 2.28578 17.8863 1.27009
192 1 3.47286 14.535 3.76013
189 1 4.50661 15.6933 1.79176
187 1 2.06898 14.3987 1.19771
3845 1 0.588803 17.4351 6.93277
3662 2 -0.467509 2.02811 8.03389
200 1 6.50475 14.7864 3.80064
14600 1 6.45232 14.3907 0.574337
61 2 -0.142732 -1.21116 -0.260517
3787 1 0.850904 14.7346 6.98107
3804 1 9.03193 14.7773 9.44501
7461 1 12.2391 17.2204 11.314
208 2 13.6141 13.0738 -0.412473
258 1 6.36772 17.6188 3.75136
14604 1 6.355 17.5518 1.34107
206 2 10.8122 13.1023 2.18145
3856 2 7.90113 18.9338 5.0987
266 2 10.914 18.8977 2.31134
3865 2 10.5883 16.2308 5.1584
269 1 12.2986 17.4769 0.777202
270 1 12.2491 17.4746 3.86181
211 1 12.0742 14.6012 0.859652
212 1 12.1771 14.7354 3.87282
261 1 9.2073 17.0014 0.931182
255 2 7.83318 16.1211 2.43379
262 1 9.33684 17.5339 3.71094
203 1 9.26153 14.956 3.85103
14606 1 9.18834 14.438 1.09417
3811 1 11.9859 14.8701 6.59933
3869 1 11.9489 17.8309 6.4082
265 2 10.7515 15.7047 -0.440516
7463 1 9.34537 17.693 12.6522
3619 1 6.60337 -2.48624 6.968
7203 2 2.27284 -6.44891 13.2844
7202 2 -0.542295 -3.79246 13.6419
3609 1 3.57818 -5.60232 6.59833
58 1 0.715205 -2.45566 6.54963
3605 1 0.882804 -5.00005 6.86878
3611 1 3.5551 -2.47582 6.8675
7273 2 5.075 -0.912808 11.0382
7205 1 0.753643 -4.9621 12.1807
3606 1 0.908692 -5.29941 9.45886
7207 1 0.804895 -2.23867 12.2218
3614 2 5.13797 -4.03071 7.81291
3608 1 0.53458 -2.15652 9.29363
7209 1 3.74882 -5.07022 12.5436
3663 2 2.22885 -1.01896 7.8757
3610 1 3.81704 -5.07666 9.54318
7204 2 2.22044 -3.78931 10.8535
7211 1 3.79862 -2.30063 12.5596
3612 1 3.23301 -2.22308 9.63946
7323 2 2.19187 4.74173 13.3956
7465 2 10.2458 16.2881 10.7529
7217 1 6.53913 -5.07238 12.319
3618 1 6.57824 -5.34855 9.30771
3620 1 6.21715 -2.58893 9.75998
3862 1 9.28123 17.9195 9.73241
7219 1 6.72161 -2.38846 12.4246
3621 1 9.1957 -5.09158 6.50054
7285 2 10.8144 -0.833786 10.7238
7229 1 12.0738 -5.13684 12.0418
3630 1 12.1482 -5.02926 9.47068
7231 1 12.3682 -2.37333 12.632
3626 2 10.5612 -3.56566 8.07238
3632 1 12.2947 -2.44337 9.66575
7221 1 9.28568 -4.98581 12.2064
3675 2 7.66509 -0.740803 8.13618
3622 1 9.36338 -5.05313 9.14408
7216 2 7.83976 -3.93747 10.8702
7223 1 9.53364 -2.25762 12.4177
3624 1 9.32682 -2.14563 9.65189
3803 1 9.6645 14.6266 12.6557
207 2 13.5358 10.392 2.38676
3667 1 0.844218 6.18841 6.69517
3671 1 3.70962 3.61903 6.70749
3729 1 3.64101 6.49766 6.69374
3669 1 3.60723 0.578869 6.57659
3607 1 0.612632 0.553472 6.82755
7265 1 0.651112 0.577837 12.4412
3666 1 0.68435 0.811994 9.70695
7269 1 3.64744 0.510108 12.2214
3674 2 5.04232 1.80454 8.01786
3670 1 3.76656 0.515891 9.26716
7264 2 2.38189 2.10347 10.7999
7333 2 4.99217 4.88779 10.8925
7267 1 0.898398 3.51711 11.9195
3723 2 2.17645 4.9299 7.97693
7271 1 3.613 3.33111 12.3197
3672 1 3.6113 3.50377 9.6132
7261 1 0.67876 3.49589 9.29361
7329 1 3.69363 6.37686 12.4298
7325 1 0.609512 6.18412 12.5998
3668 1 0.745499 6.36731 9.42001
3726 1 3.51659 6.08598 9.78232
7279 1 6.27388 3.22958 12.2696
3678 1 6.43539 0.642089 9.38188
7337 1 6.42189 6.1672 12.4038
3730 1 6.66339 6.02167 9.55078
7457 1 6.8459 16.8183 12.0283
7227 2 13.529 -6.32954 13.6839
3683 1 9.17555 3.40431 6.52682
7395 2 7.94157 10.1836 13.5803
3680 1 6.20472 3.22555 9.42031
3737 1 6.48981 6.16145 6.59258
3741 1 9.46978 6.20923 6.45894
7277 1 6.72741 0.370329 11.9853
7289 1 12.3599 0.250723 12.2206
3690 1 12.0081 0.379649 9.12325
3686 2 10.4761 2.24385 8.02231
7281 1 9.64111 0.451921 12.489
3682 1 9.19369 0.6776 9.6699
7276 2 7.89196 1.94448 10.8554
3684 1 9.28268 3.50656 9.56755
7283 1 9.34582 3.17545 12.498
3735 2 7.74724 4.74652 8.09991
7345 2 10.6931 4.80891 11.3003
7291 1 11.8871 3.13402 11.7071
3692 1 12.3203 3.13137 9.04004
3750 1 12.3257 5.93063 9.57509
3742 1 9.52753 5.94914 9.36552
7341 1 9.20238 6.0343 12.4855
7349 1 12.0881 6.32847 12.2941
7411 1 11.209 16.4332 8.5585
7226 2 10.8194 -3.75903 13.482
3806 2 10.9127 13.6033 8.0672
3727 1 0.851885 11.7525 6.75543
3731 1 3.83609 9.2523 6.78467
3725 1 0.651946 8.99668 6.7882
190 1 3.46987 12.0349 6.71556
7393 2 4.81215 10.3042 11.0267
7327 1 0.992241 9.15707 12.3119
3734 2 4.82313 7.65351 8.30731
3728 1 0.626076 9.09474 9.42903
3783 2 2.24427 10.5542 8.09283
7324 2 2.14809 7.63347 11.0573
7331 1 3.5667 9.03985 12.4452
3732 1 3.24246 9.13893 9.73786
7385 1 0.9763 11.6133 12.1018
3786 1 0.747285 12.0375 9.53871
7389 1 3.89574 12.2579 12.3923
7397 1 3.91423 11.862 9.66757
3797 1 6.39866 12.0093 6.17539
3740 1 6.65635 12.1292 8.9745
7339 1 6.34744 8.97265 12.3561
3794 2 5.2759 13.396 7.56651
3866 2 10.6755 19.0295 7.87506
3743 1 9.39599 9.32928 6.71639
3807 2 13.4778 10.4426 7.84864
7409 1 6.64125 11.801 12.0593
3738 1 6.11195 8.78038 9.71566
3751 1 12.024 9.04634 6.51899
3809 1 12.0254 12.0248 6.60006
7403 1 12.0801 11.79 12.4777
7401 1 9.47334 11.6599 12.4866
3744 1 9.55074 8.97536 9.36099
7343 1 9.09882 8.83485 12.3096
7336 2 7.87476 7.49656 10.9313
3795 2 8.05999 10.5612 7.99955
7405 2 10.7824 10.3458 10.9195
3746 2 10.7536 7.48571 8.09519
3752 1 12.2333 8.8416 9.58537
7351 1 12.3415 9.05216 12.3146
3802 1 9.35338 11.579 9.57042
3810 1 12.0546 11.7957 9.40551
3748 2 13.4551 7.41835 4.98199
7391 1 5.62677 19.452 12.0977
3858 1 6.41072 17.7417 9.38212
7399 1 6.83262 14.0944 12.3502
3791 1 3.4988 14.6333 6.64211
3849 1 3.5422 17.5901 6.74651
7384 2 2.23385 13.247 10.7912
3843 2 2.28389 16.2401 8.07944
3800 1 6.28022 14.9814 9.258
7387 1 0.761968 14.5427 12.1998
3792 1 0.665627 14.7172 9.62956
3850 1 3.72509 17.3414 9.53239
3798 2 5.47418 13.4722 10.661
3789 1 4.03686 14.9966 11.8885
3790 1 3.55918 14.3012 9.31548
3854 2 5.26204 19.2335 7.9953
7444 2 2.17902 18.9233 10.7812
7449 1 3.37483 17.6081 12.5236
3846 1 0.993838 17.4588 9.48876
7445 1 0.740868 17.213 12.3333
7453 2 5.05224 16.8717 11.0715
3799 1 6.54447 14.9821 6.61967
3855 2 7.97138 16.2784 7.97953
3867 2 13.3052 16.3723 7.54
204 1 9.29065 14.7183 6.66724
147 2 13.248 4.59205 2.45162
3628 2 13.6807 -3.65826 5.23736
7348 2 13.59 7.5272 10.9288
7225 2 10.7287 -6.34953 10.8936
245 1 0.133148 17.9722 -0.653849
256 2 7.84461 18.5872 -0.434547
16 2 7.84866 -3.62452 -0.458257
209 2 10.7832 10.3548 -0.513452
145 2 10.5839 4.74686 -0.50285
10873 2 5.00112 -0.957398 16.5332
10805 1 0.880975 -5.1322 17.9471
7206 1 0.823868 -5.19246 14.6871
10807 1 1.10387 -2.23097 17.9187
10814 2 5.01587 -3.78384 19.4342
7208 1 0.665887 -2.4687 15.1925
10809 1 3.7393 -5.12403 17.7285
10863 2 2.27777 -0.770077 19.4974
7210 1 3.70774 -5.48048 14.9644
10804 2 2.36717 -3.83587 16.6062
10811 1 3.91861 -2.25849 18.0145
7212 1 3.53796 -2.29294 15.3408
10810 1 3.86761 -5.41636 20.8047
10817 1 6.38771 -5.21353 18.3679
7218 1 6.66055 -5.27558 15.4478
7334 2 4.9448 7.3463 13.881
10806 1 0.991456 -5.00125 20.76
10812 1 3.56055 -2.36826 20.9002
133 2 5.28335 4.65437 27.7109
14602 1 9.50582 14.5295 26.5749
28 2 13.618 -3.74309 27.7482
7220 1 6.45939 -2.39289 15.1933
7214 2 5.14705 -3.72903 13.8644
10819 1 6.62134 -2.47548 17.7869
10885 2 10.6153 -0.609517 16.3516
10829 1 12.3663 -5.22906 18.0402
7230 1 12.1732 -5.25138 15.1633
10831 1 12.0634 -2.37216 18.1946
10826 2 10.7737 -3.6926 19.4485
7232 1 12.0905 -2.56688 15.2686
10821 1 9.44071 -5.37537 17.7935
10875 2 7.85084 -1.02121 19.3953
7222 1 9.50646 -5.08971 14.9089
10816 2 8.14582 -3.55256 16.5446
10823 1 9.21173 -2.33565 18.1303
7224 1 9.46819 -2.10073 15.1343
237 1 0.0651564 14.2232 27.5843
10822 1 9.26743 -5.19546 20.669
14428 2 13.6657 -3.83158 22.3648
10820 1 6.52116 -2.3148 20.8116
10830 1 12.0692 -5.04179 20.5422
10832 1 12.2161 -2.22743 20.8947
205 2 10.8805 13.3001 24.9991
7383 2 2.21646 10.4719 13.8407
10827 2 13.568 -6.45121 19.2101
10865 1 0.791644 0.592998 18.2351
7266 1 0.859792 0.379242 15.4448
10874 2 4.94063 1.78478 19.6269
10869 1 3.72477 0.642642 18.1986
7270 1 3.65452 0.213553 14.9498
10864 2 2.31697 1.95845 16.652
10933 2 5.04027 4.57238 16.6265
10867 1 0.630127 3.18852 17.6996
7268 1 0.803841 3.30882 14.7903
10923 2 2.2963 4.69326 19.4243
10871 1 3.58325 3.38613 18.0854
7272 1 3.55074 3.5424 15.1541
7326 1 0.63538 6.42913 15.3609
7330 1 3.56354 6.00293 15.3904
10929 1 3.80785 5.93414 17.9697
7280 1 6.20755 3.31538 15.2231
10868 1 0.871602 3.42646 20.6684
10925 1 1.02357 6.06362 18.0639
10879 1 6.62517 3.15714 18.1839
7278 1 6.51364 0.530377 14.9532
10877 1 6.22055 0.442476 17.9175
14526 1 -0.361007 6.64503 23.2195
10926 1 0.484907 6.23891 20.538
85 2 10.6816 -0.823534 27.7718
7338 1 6.31317 6.09628 15.3179
10937 1 6.43428 5.88775 18.0808
10889 1 11.994 0.532006 18.0024
7282 1 9.32626 1.00152 15.214
7290 1 12.1268 0.3117 15.1093
10886 2 10.8985 1.7363 19.4042
10881 1 9.03283 0.291781 17.8919
10876 2 7.92222 1.8657 16.7743
10945 2 10.7918 4.78496 16.6243
10891 1 12.1591 3.24571 17.8834
7292 1 12.2138 3.22314 14.9611
10935 2 7.85588 4.57945 19.5242
10883 1 9.29158 3.13141 18.1257
7284 1 9.34953 3.71842 15.397
7342 1 9.14297 6.26392 15.0619
10941 1 9.50814 6.3076 17.9207
10949 1 12.2659 6.18378 18.3387
7275 2 8.01769 -0.849539 13.7769
7350 1 12.0124 6.41844 15.6672
10882 1 9.16336 0.377113 20.8118
10890 1 12.3517 0.535356 20.7809
10884 1 9.56548 3.31023 20.6183
10942 1 9.48819 5.97559 20.8016
10892 1 12.4166 3.14484 20.7032
10888 2 13.5957 2.06777 16.4289
14658 1 6.50332 14.6358 26.3702
14608 2 13.628 13.2142 22.0434
10993 2 4.97615 10.1955 16.7766
10927 1 0.570035 8.8305 17.9446
10934 2 4.96555 7.39426 19.4216
7328 1 0.69648 9.07789 15.1379
10983 2 2.32903 10.5003 19.3047
10924 2 2.18294 7.41699 16.5468
10931 1 3.47963 8.96277 17.8663
7332 1 3.71648 8.79568 15.1205
10985 1 0.746869 11.8847 17.9924
7386 1 0.943963 11.7206 15.1819
10989 1 3.70742 11.7658 18.1023
7390 1 3.54883 11.6397 15.2388
7398 1 6.71312 11.7723 15.0059
7340 1 6.38665 8.84554 15.2146
10997 1 6.52541 11.5594 17.7993
7286 2 10.757 2.09557 13.7379
11000 1 6.44793 14.4863 20.6627
10990 1 3.6127 11.9034 20.7773
10932 1 3.61349 9.00023 20.7862
64 2 2.15564 1.74473 27.5634
14487 2 13.4585 -1.07615 25.0387
10939 1 6.45726 9.01372 18.243
11005 2 10.7968 10.4371 16.6272
10951 1 12.2921 9.03069 17.9407
10946 2 10.8088 7.63147 19.4047
7352 1 12.1907 9.36817 15.108
10995 2 7.84772 10.5041 19.4903
10936 2 8.06355 7.73827 16.6731
10943 1 9.38877 9.12763 17.8861
7344 1 9.24859 9.14144 15.0868
11009 1 12.0403 12.0733 17.8718
7410 1 12.6418 11.8538 15.3575
11001 1 9.35204 11.7053 18.0856
7402 1 9.68066 11.6936 15.1539
14667 2 13.458 16.1155 25.2073
10940 1 6.67009 8.79711 20.9333
11002 1 9.44902 11.8332 20.7544
7346 2 11.0178 7.51198 13.847
14657 1 6.61872 17.7235 23.9606
10984 2 2.20936 13.2239 16.4341
7394 2 5.21027 13.0154 13.9666
10994 2 5.20539 13.1307 19.382
11053 2 5.07197 15.9093 16.3404
11045 1 0.715869 17.5885 17.8824
7446 1 0.885344 17.6156 15.1403
10987 1 0.947056 14.5782 17.7745
11054 2 5.07562 19.0209 19.4677
7388 1 1.0159 14.5664 14.799
11049 1 3.21806 17.7126 18.2214
11043 2 2.14779 16.2319 19.265
7450 1 3.81737 17.3981 15.2929
10991 1 3.62028 14.7872 17.5054
7392 1 3.79947 14.59 14.7336
11044 2 2.14114 19.0755 16.8804
10992 1 3.74862 14.7659 20.3007
7458 1 6.40411 17.5235 15.1172
11057 1 6.14992 17.7174 17.9581
10999 1 6.2512 14.6547 17.8453
7454 2 4.68263 19.0393 14.0486
11050 1 3.77967 17.7604 20.6527
11046 1 0.803891 17.634 20.6441
10988 1 0.902434 14.6814 20.6684
7443 2 1.98499 16.0605 13.6822
193 2 5.00683 10.4999 27.8639
14596 2 7.8436 13.2105 22.2638
7400 1 6.55123 14.4651 15.1785
10996 2 7.88733 13.0032 16.5399
11006 2 10.555 13.3351 19.3872
11056 2 7.76074 18.7309 16.5699
11065 2 10.8172 15.8339 16.6667
11069 1 11.9086 17.2868 18.2968
7470 1 12.1143 17.4203 15.5247
11011 1 12.1084 14.8221 17.9484
11066 2 10.6442 18.9464 19.5038
7412 1 12.3787 14.6764 15.1856
11061 1 9.17343 17.3575 17.9219
11055 2 7.77765 16.0703 19.4249
7462 1 9.20311 17.3337 15.4118
11003 1 9.23689 14.7273 18.129
7404 1 9.56579 14.4733 15.2958
11070 1 12.286 17.2716 21.1237
7466 2 10.6676 19.0085 14.2222
7287 2 13.4081 -1.0997 14.004
10808 1 0.548249 -1.97927 20.5544
4 2 2.48216 -3.89309 27.5658
17948 1 1.34576 -5.33608 26.2552
17952 1 3.98984 -5.23273 26.3502
14473 2 5.09257 -1.01932 22.3723
14405 1 1.1392 -5.03099 23.5624
14407 1 0.684934 -2.25361 23.4014
14414 2 5.25104 -3.82374 25.1581
14408 1 0.951274 -2.70571 26.1048
14409 1 3.80284 -5.39567 23.5118
14463 2 2.24032 -1.05721 25.185
14410 1 3.76511 -2.26244 26.3831
14404 2 2.26536 -3.73479 22.2732
14411 1 3.47091 -2.51904 24.026
10818 1 6.5257 -5.22558 20.9734
14419 1 6.48086 -2.55288 23.755
7335 2 7.81775 4.71602 14.0276
14425 2 10.7336 -6.40701 21.9402
14418 1 6.38905 -2.53552 26.5725
3499 1 6.64608 -5.21005 26.5259
14417 1 6.65474 -5.15017 23.585
14662 1 9.09755 17.5779 26.4149
10824 1 9.41642 -2.22848 20.6846
17960 1 9.42237 -5.32815 26.2562
14429 1 9.4257 -5.23356 23.4588
17971 1 12.232 -5.5673 23.1721
14485 2 10.7318 -0.816895 22.2603
14431 1 11.8552 -2.50812 23.7237
14426 2 10.5818 -3.70251 25.0806
14432 1 12.0865 -2.45523 26.4298
14475 2 7.74427 -0.766486 25.107
14422 1 12.4914 -5.31053 26.0518
14416 2 7.83029 -3.84225 22.117
14423 1 9.15466 -2.28424 23.3274
14424 1 9.17128 -2.23045 26.2727
14650 1 6.60906 17.2722 26.6355
14547 2 13.5235 4.51985 25.0767
10866 1 0.9855 0.502222 21.0003
7406 2 11.051 13.1376 13.9607
10930 1 3.57053 6.0223 20.8158
10878 1 6.4852 0.511489 21.0216
11067 2 13.3941 15.9182 19.4931
10870 1 3.78504 0.536333 21.109
10872 1 3.68343 3.31678 20.9343
14466 1 0.614449 0.0933363 26.495
14465 1 1.25246 0.321558 23.5988
14472 1 1.16485 2.72725 25.5159
14474 2 5.01076 1.8293 25.2859
14469 1 3.92482 0.253368 23.8042
14470 1 3.81485 0.437469 26.7138
14464 2 2.16624 2.08955 22.3723
14533 2 5.11438 4.69056 22.2527
14467 1 1.41983 4.6079 23.1724
14523 2 2.79336 4.57213 25.4321
14471 1 3.79713 3.13806 23.8821
14530 1 3.63694 3.09809 26.6695
14532 1 3.8467 6.19477 26.93
14529 1 3.97097 5.82825 23.7393
14412 1 6.52269 0.573171 26.9083
14468 1 1.14138 4.6661 27.1309
14525 1 1.21116 6.58253 25.2162
14480 1 6.61017 6.20389 26.3231
14477 1 6.59145 0.496109 23.8155
10938 1 6.47166 5.91575 20.714
7455 2 8.16766 15.8413 13.8556
14669 1 11.9423 17.6121 23.7994
14670 1 12.0355 17.3966 26.6323
14522 2 -0.176017 4.70421 25.0991
10950 1 12.3688 5.97397 20.9967
14461 2 -0.455918 -0.692648 22.2869
10880 1 6.44996 3.24948 20.7913
14537 1 6.76314 6.48893 23.5269
14479 1 6.43851 3.32249 23.4394
14478 1 6.54579 3.31513 26.257
14481 1 9.27391 0.476452 23.7817
14482 1 9.3355 0.671988 26.6586
14489 1 12.0712 0.324048 23.6465
14490 1 12.3069 3.0734 26.502
14476 2 7.89865 1.81238 22.2224
76 2 10.918 1.8144 25.1297
14486 1 9.41569 3.25005 26.3333
14483 1 9.39969 3.41325 23.358
14535 2 8.02935 4.58668 24.9554
14545 2 10.8083 4.57128 22.249
14491 1 12.0882 3.04766 23.5347
14494 1 12.1508 0.303321 26.3305
14549 1 12.0857 6.05377 23.8086
14542 1 9.33403 5.95327 26.163
14541 1 9.30645 6.07396 23.6908
14550 1 11.9044 5.87029 26.4202
11008 2 13.5646 13.4323 16.7472
14603 1 9.43346 14.7006 23.7389
10986 1 0.822679 11.9391 20.7043
14582 2 -0.385516 13.6247 24.9788
10928 1 1.02133 8.95461 20.7462
14585 1 0.744786 11.9903 23.5713
14528 1 0.861535 9.36019 26.6986
14593 2 4.98541 10.1466 22.2495
14527 1 0.851874 9.23322 23.6538
14534 2 5.19599 7.64426 25.0503
14540 1 3.57605 8.83214 26.4288
14583 2 2.10992 10.5671 25.059
14524 2 1.82603 7.52427 22.3031
14531 1 3.60587 8.86592 23.5548
14590 1 3.67065 11.5047 26.3733
14589 1 3.61195 11.8241 23.26
14586 1 0.582219 11.9185 26.4962
14597 1 6.29236 11.6599 23.472
14539 1 6.41113 9.1168 23.5681
14538 1 6.69343 9.12755 26.551
14665 2 10.7591 16.0371 22.1825
11062 1 9.61128 17.239 20.7821
10998 1 6.44729 11.6381 20.8133
11010 1 12.1463 11.7351 20.7661
10952 1 12.0837 8.88286 20.924
10944 1 9.48433 8.85684 20.5178
143 1 6.58372 11.7773 26.1531
149 1 9.47224 8.96431 26.4188
14601 1 9.24828 11.9365 23.6745
14610 1 12.4301 11.6589 26.7412
14609 1 12.2467 11.8964 23.8649
14544 1 9.68782 11.8083 26.3537
14543 1 9.41057 9.23305 23.5027
14536 2 8.07704 7.45368 21.8992
14595 2 7.8881 10.3533 24.7506
14605 2 10.925 10.6528 22.1909
14551 1 12.2136 8.93826 23.657
14546 2 10.7761 7.24931 25.0972
14552 1 12.4842 8.79149 26.6794
11068 2 13.6441 18.8668 16.8281
10802 2 -0.447166 -3.64683 19.2321
11012 1 12.0949 14.5361 20.8361
11004 1 9.08591 14.6814 20.8477
14656 2 7.85964 19.0353 22.3132
14599 1 6.45443 14.7314 23.4878
10947 2 13.6287 4.57573 19.5287
14594 2 5.0844 13.194 24.9893
14584 2 2.18805 13.2501 21.988
249 1 2.93866 17.1214 26.1302
199 1 0.349356 16.6742 25.7521
14654 2 4.97122 18.6861 25.5349
14644 2 2.32905 19.067 22.0512
14587 1 0.765393 14.829 23.3395
14591 1 3.81795 14.502 23.5234
14649 1 3.74099 17.2953 23.274
14646 1 1.7768 14.3397 25.9233
14645 1 0.657918 17.6472 23.524
14653 2 5.01562 15.9431 22.0857
14643 2 2.2787 15.9815 24.4107
14655 2 7.95204 16.0221 25.028
184 2 1.65923 15.9954 27.6215
14661 1 9.0507 17.5085 23.7865
14607 2 13.5666 10.2534 25.1162
14666 2 10.6497 18.7906 25.0813
11058 1 6.52507 17.732 21.0037
14612 1 12.1789 14.4917 26.4582
14611 1 12.1042 14.7446 23.7104
14668 2 13.4286 19.0466 22.3883
196 2 7.78943 13.1001 27.7488
136 2 7.84756 7.62695 27.8795
11007 2 13.5573 10.4931 19.3098
14592 1 3.70562 14.7903 27.4446
10828 2 13.5851 -3.66644 16.7965
10862 2 -0.518545 1.8627 19.3131
268 2 13.603 18.7426 27.7489
88 2 13.5918 1.61044 27.7918
185 2 2.09263 12.8944 27.7879
124 2 2.25773 7.58677 27.8816
3913 2 4.92323 21.9177 5.14336
306 1 0.504023 23.0712 3.97982
314 2 4.60072 24.6287 2.40069
309 1 3.55895 23.257 0.88609
303 2 1.95714 21.877 2.24191
310 1 3.33823 23.1948 3.80775
3904 2 1.9789 24.614 5.04495
357 1 1.04526 23.9485 1.28979
248 1 0.575768 20.7602 3.64052
247 1 0.520879 20.6618 0.96384
251 1 3.75959 20.4385 1.15334
252 1 3.58552 20.5548 3.88941
260 1 6.30547 20.5065 3.68407
318 1 6.18255 23.5325 3.45839
317 1 6.29859 22.8727 0.876637
257 1 6.7408 20.2942 1.04737
320 1 6.38875 26.5728 3.61188
311 1 3.16111 25.9554 0.953375
366 1 0.450713 26.187 3.79407
445 2 10.9673 33.2229 -0.437097
4106 2 10.7623 41.7206 7.88357
3925 2 10.6589 21.8885 5.1935
329 1 11.974 23.159 0.715417
330 1 12.1303 23.3276 3.57121
271 1 12.238 20.181 0.969563
326 2 10.7078 24.6117 2.35873
272 1 12.0897 20.6016 3.70235
321 1 9.05115 22.7087 1.19929
315 2 7.68401 21.8086 2.77895
322 1 8.93391 23.1403 4.14636
3916 2 7.77447 24.8957 5.31621
264 1 9.26336 20.262 3.61117
3929 1 11.8284 23.434 6.42547
4048 2 13.4528 36.2739 4.97084
263 1 9.58875 20.0908 0.650754
567 2 13.6332 44.5369 2.4334
3872 1 12.0202 20.1871 9.46349
7475 1 13.563 21.7043 10.9622
324 1 9.07471 25.892 3.70991
4150 1 3.56052 45.9274 9.24658
484 2 2.08236 41.6694 -0.227069
325 2 10.8898 21.4946 -0.494949
312 1 3.32882 26.1152 3.7544
307 1 0.553122 26.7945 1.05883
327 2 13.6131 22.0162 2.36114
319 1 6.22533 25.8959 1.10089
308 1 0.807744 29.3307 3.92472
3973 2 4.9323 27.8129 4.91903
363 2 1.88815 27.7366 2.87204
426 1 0.923761 31.9855 3.79717
374 2 5.03978 30.4175 2.07342
370 1 3.54672 29.1316 3.61436
3964 2 2.11745 30.7564 5.2906
371 1 3.70741 31.7304 0.585905
372 1 3.48525 32.1988 3.80472
367 1 3.75702 28.9349 0.546478
425 1 0.974981 32.0676 0.755099
3967 1 1.30973 29.2087 0.984151
380 1 6.54675 31.9734 3.86384
378 1 6.29951 29.2841 3.54192
3965 1 0.656815 28.9086 6.68474
368 1 6.67842 29.14 0.818234
379 1 6.34979 32.0361 1.08723
3987 2 13.5013 27.4981 7.64705
3979 1 6.35841 31.866 6.50978
3928 2 13.4394 24.5292 5.13092
14792 1 12.5978 29.1432 1.06155
332 1 9.25236 25.2571 0.451387
3985 2 10.5628 27.6812 5.01987
375 2 7.99465 27.6427 2.31723
14778 1 9.28589 29.1802 0.846663
391 1 12.0402 31.9014 1.08579
386 2 10.6795 30.2845 2.41735
392 1 12.1817 31.7569 3.83646
381 1 10.4661 27.3786 1.983
382 1 9.24675 29.1218 3.51988
3976 2 7.86679 30.5243 5.03465
383 1 9.17978 32.0025 1.04356
384 1 9.34086 31.8477 3.71665
3989 1 12.2232 28.9191 3.72403
3983 1 9.50495 31.7711 6.44011
4162 1 9.59995 45.8585 9.53568
3993 1 11.9975 26.0778 3.99357
557 1 6.83295 46.0695 0.777557
259 2 7.63572 21.786 -0.288333
387 2 13.3253 27.3323 2.67744
7643 1 9.31143 40.4329 12.2789
546 1 0.709026 45.8891 3.66338
389 2 13.4038 27.5681 -0.488235
4033 2 5.13481 33.3409 5.08066
434 2 4.86345 36.1159 2.48112
429 1 3.70882 34.4083 1.05256
423 2 2.09801 33.397 2.28211
430 1 3.45567 34.881 3.71085
4024 2 1.9605 36.0822 5.12558
428 1 0.377081 34.5893 3.61349
427 1 0.575332 34.6013 0.88771
4084 1 0.574375 37.5852 3.43427
431 1 3.66726 37.3485 0.992803
432 1 3.64275 37.5876 3.84514
486 1 1.19177 37.5225 0.801718
4093 2 4.94356 38.9496 5.20374
483 2 2.13126 38.7899 2.32436
440 1 6.34152 37.5147 3.75221
437 1 6.51836 34.7274 0.874825
438 1 6.29183 35.0758 3.8688
439 1 6.32155 37.4965 1.04125
4103 1 9.33756 43.2779 6.57007
4027 1 0.387186 37.5082 6.39863
7646 2 10.2618 36.2149 13.6427
3927 2 13.6036 21.9573 8.17324
4045 2 10.7916 33.3722 5.13051
449 1 12.0587 34.8979 1.05886
450 1 12.3479 34.5939 3.92444
446 2 10.5669 36.2878 2.43418
441 1 9.25597 34.9771 0.995989
435 2 7.94984 33.4465 2.29714
442 1 9.39356 34.8379 3.87218
4036 2 7.74256 36.2387 5.11782
452 1 12.034 37.5613 3.89265
443 1 9.3726 37.7273 0.977337
444 1 9.07873 37.599 3.78296
451 1 12.1367 37.6429 1.16446
495 2 7.90762 38.9311 2.12194
4105 2 10.8652 39.0338 5.23955
4041 1 9.30748 34.7613 6.57982
7648 2 13.6295 36.0343 10.9234
7749 1 3.82172 45.615 12.0993
545 1 0.573854 43.0313 1.02537
4153 2 5.19361 44.3278 5.14624
485 1 0.660722 40.4823 3.65656
487 1 0.395478 40.1937 1.26022
494 2 5.14393 41.7088 2.00736
488 1 0.667243 43.1849 3.81274
489 1 3.50099 40.4132 0.961239
543 2 1.98429 44.6174 2.33044
490 1 3.19049 40.0904 3.75959
491 1 3.68419 43.2105 0.843803
492 1 3.54736 43.3817 3.81116
482 2 2.19118 41.8496 4.98204
500 1 6.34708 43.1324 3.81787
499 1 6.56249 43.2659 0.938174
447 2 13.3886 33.2968 2.29978
498 1 6.21235 40.548 3.74283
4099 1 6.48787 42.7942 6.48229
7743 2 2.14467 44.112 13.3235
7623 2 2.00811 32.9756 13.5281
497 1 6.46899 40.1621 0.497536
4165 2 10.7729 44.5586 5.15972
509 1 12.3675 40.2239 0.789628
510 1 11.9375 40.4649 3.55761
511 1 12.6106 43.1647 0.927135
506 2 10.8493 41.9814 2.4171
512 1 12.1569 43.2611 3.83864
501 1 9.38745 40.2925 0.929656
555 2 7.71503 44.3649 2.44863
502 1 9.27719 40.3727 3.74508
4096 2 7.90188 41.8498 5.10259
503 1 9.28841 42.9946 1.16559
504 1 9.2555 43.1242 3.89917
4112 2 13.1421 44.5321 8.03425
4104 1 9.55224 42.9518 9.66543
365 2 2.22601 27.5653 -0.456842
3851 1 3.6215 20.4467 6.70285
3859 1 6.75481 20.5669 6.47091
3909 1 3.58723 23.5294 6.50149
3905 1 0.77118 23.3075 6.75765
3847 1 0.776123 20.5788 6.47616
3852 1 0.620489 20.5338 9.23741
7447 1 0.550153 20.4078 12.1189
3918 1 3.55788 20.3688 9.49347
7451 1 3.32533 20.6494 12.3783
7513 2 4.99723 21.6096 10.9817
7505 1 3.42999 23.4075 12.4877
3906 1 1.02284 23.2468 9.49827
3914 2 5.08414 24.7145 7.99207
3903 2 2.08995 21.8906 8.02328
3910 1 3.70034 22.9516 9.51957
7504 2 2.09391 24.6872 10.9338
7559 1 0.279542 23.0062 12.5527
7517 1 5.97989 23.1096 12.1344
3860 1 6.30756 20.4976 9.53097
3908 1 0.897106 26.0343 9.35465
388 2 13.6344 30.695 -0.307118
7515 1 6.44283 23.459 9.21205
7507 1 0.594925 25.4561 12.2705
3917 1 6.43487 23.5091 6.52906
7519 1 6.4207 25.9439 12.3913
3863 1 9.29597 20.5083 6.33331
7528 2 13.3347 24.0604 11.1471
7708 2 13.2663 41.7376 10.9694
3871 1 12.1917 20.5841 6.52269
7471 1 11.5474 20.091 12.3733
3921 1 8.97969 23.5134 6.99141
7525 2 10.5489 21.5564 11.0056
3930 1 12.1561 23.4409 9.21679
3926 2 10.7289 24.5965 8.01609
7521 1 11.37 23.3009 12.2507
3915 2 7.78827 21.7282 8.07
3922 1 9.38525 23.2639 9.93117
7516 2 7.66231 24.5405 10.8263
3864 1 9.18087 20.5286 9.41694
7509 1 8.53174 20.7897 12.0238
3932 1 12.1746 26.1732 9.58745
7523 1 9.42505 25.8478 12.2906
7531 1 12.8103 25.8798 12.3339
433 2 5.00619 33.2079 -0.513114
3971 1 3.56768 32.0139 6.54008
3911 1 3.29157 26.2736 6.2866
3969 1 3.50106 29.097 6.354
3919 1 6.2941 26.4794 6.66341
3968 1 0.682573 31.6904 6.60209
3907 1 0.54036 26.1204 6.5547
7511 1 3.3238 26.2056 12.307
3912 1 3.71213 26.2939 9.36022
7565 1 1.00235 28.5799 12.222
7572 1 3.67333 31.7947 12.2062
7573 2 4.8523 27.4848 11.0317
3963 2 2.16388 27.5457 7.97087
3966 1 0.436426 28.7712 9.64125
7567 1 1.0291 31.7729 9.43494
3974 2 5.0707 30.309 7.87211
7569 1 3.61171 28.9977 12.2043
3970 1 3.60223 28.9516 9.40872
7564 2 2.07793 30.2782 10.8347
3972 1 3.61977 31.8281 9.19201
7571 1 0.635965 31.9853 12.1989
3980 1 6.51223 31.9341 9.23268
3978 1 6.46374 29.0832 9.2821
7577 1 6.33408 28.5751 12.3547
3920 1 6.44704 26.1164 9.53087
390 1 12.8864 25.7928 1.07231
505 2 10.7133 39.0437 -0.463069
3991 1 12.2009 32.0524 6.53621
3981 1 9.50322 29.3396 6.14622
3977 1 6.37577 29.2436 6.42758
3931 1 12.0785 25.9726 6.86424
3923 1 8.97264 26.3384 6.48753
3924 1 9.26099 26.0862 9.39258
7579 1 6.41142 31.5766 12.0542
3990 1 12.0012 28.8287 6.57918
7585 2 10.3597 27.4864 10.7876
3975 2 7.70851 27.5023 8.04228
7589 1 11.9948 28.6845 12.1648
7591 1 12.4698 31.7849 12.4928
3986 2 10.7249 30.5952 7.76647
7581 1 9.18175 28.6579 12.1708
3982 1 9.43939 28.9969 9.46198
7576 2 7.93361 30.543 10.6768
3984 1 9.33562 31.7004 9.13554
7635 1 9.78943 31.4731 11.6539
3992 1 12.2435 32.0058 9.13591
7583 1 12.2957 28.6526 9.32288
7769 1 12.2103 45.924 12.5026
4031 1 3.06233 37.4755 6.59743
4029 1 3.64264 34.7968 6.63456
4039 1 6.37597 37.4867 6.6836
7697 1 6.27686 40.0022 12.3911
4025 1 0.652791 34.7662 6.53507
7633 2 5.17211 32.9834 10.9272
7625 1 0.810354 34.7799 12.3028
4026 1 0.879555 34.7509 9.59768
4034 2 4.92044 36.0953 8.02688
7629 1 4.56393 34.3445 12.3446