ITEM: TIMESTEP
100000
ITEM: NUMBER OF ATOMS
18000
ITEM: BOX BOUNDS pp pp pp
-5.5014241709872747e-01 2.7890142417098378e+01
-6.6224253424794499e+00 3.3470242534249275e+02
-5.3406920357250320e-01 2.7874069203571395e+01
ITEM: ATOMS id type x y z
3673 2 5.24783 -0.85001 5.19807
5 2 2.48268 -3.61411 2.2097
14 2 5.58478 -3.62218 2.2411
9 1 1.50883 -2.1832 3.8877
63 2 2.32473 -0.449165 2.15309
3604 2 2.44881 -3.63862 5.39359
12 1 4.16559 -2.91876 3.99492
3551 1 4.09063 -1.9349 1.54622
10 1 0.821978 -2.58896 1.12218
3553 1 1.35936 -5.25293 0.783963
3548 1 3.47074 -5.20929 3.47147
6 1 0.648236 -4.83203 3.56453
3557 1 3.94647 -4.52586 0.548275
251 1 4.31814 18.1358 -0.723617
79 2 7.78527 1.85468 -0.460824
3559 1 2.48985 -1.37716 -0.204113
7346 2 10.6811 7.60097 13.6354
3613 2 5.29849 -6.35337 5.10279
20 1 6.98406 -2.24955 3.63279
19 1 7.04189 -2.15744 0.820256
7201 2 -0.34166 -6.30648 10.9057
17 1 6.56969 -5.10051 0.817678
18 1 6.5499 -5.0386 3.71195
3685 2 11.1166 -1.11486 4.92672
30 1 12.4589 -5.4133 0.706554
31 1 12.5355 -2.47696 0.596214
26 2 10.979 -3.80652 1.98458
32 1 12.5714 -2.60993 3.57189
21 1 9.69807 -2.39143 0.5468
75 2 8.07911 -0.887941 2.29276
22 1 9.75986 -5.25829 3.49925
3616 2 8.41167 -3.4794 4.92176
24 1 9.52871 -2.358 3.31962
3564 1 9.64637 -5.33743 0.769946
3572 1 12.6035 -5.40752 3.4882
3621 1 9.3358 -4.95484 6.58626
3631 1 12.2206 -2.40289 6.56062
7459 1 13.155 17.7494 12.3811
242 2 -0.399279 18.9682 2.2243
70 1 3.74589 0.274964 3.5932
8 1 0.741462 0.73975 3.75018
66 1 1.02972 3.42139 3.58311
7 1 0.72982 0.574828 0.999145
74 2 5.28083 1.89284 2.29115
69 1 0.879519 3.31056 0.779756
3664 2 2.21098 1.83891 5.01773
11 1 3.62487 0.917691 0.838367
3733 2 5.07586 4.76969 4.90736
123 2 2.22257 4.87229 2.20535
71 1 3.71896 3.54547 0.688903
72 1 3.71566 3.34824 3.31886
130 1 3.80258 6.23633 3.51369
67 1 1.01388 6.47793 0.784308
129 1 3.97386 6.22897 0.775862
68 1 0.784736 6.17867 3.92642
138 1 6.66301 6.1142 3.6431
7225 2 10.7651 -6.58056 10.6147
3667 1 0.60322 6.12653 6.46092
3671 1 3.82459 3.55838 6.16822
3729 1 3.74778 6.30836 6.51133
187 1 0.679546 14.6861 -0.91194
3677 1 6.83655 0.582265 6.48478
14420 1 6.5164 0.395803 0.963513
78 1 6.59449 0.61591 3.77346
80 1 6.38949 3.38956 3.69915
77 1 6.45339 3.24279 1.00401
82 1 9.68421 0.554515 3.83111
90 1 12.3692 0.38266 3.5733
86 2 10.8247 1.78383 2.25363
81 1 9.20708 3.27847 1.0099
3676 2 8.08071 2.12971 5.09502
23 1 9.44383 0.298052 0.844058
3745 2 10.9319 4.68275 5.08357
91 1 12.0853 0.481216 0.738118
92 1 12.0979 3.07624 3.70245
135 2 7.86079 4.7502 2.27426
84 1 9.45138 3.47389 3.80542
14492 1 12.2322 3.21594 0.741725
150 1 12.2387 6.15562 3.69668
83 1 12.2674 6.27269 0.85956
142 1 9.3918 6.33678 3.56757
14484 1 9.50411 5.97895 0.725211
3741 1 9.51455 6.40255 6.68795
3737 1 6.7619 6.29442 6.4217
3749 1 12.3263 6.01051 6.54114
3683 1 9.59948 3.35943 6.54562
3748 2 13.6938 7.75033 5.14274
3793 2 5.26975 10.4482 5.12801
126 1 1.16381 9.01615 3.64834
127 1 0.940975 11.6274 0.643187
134 2 5.2225 7.7438 2.17798
128 1 0.976703 12.054 3.79069
183 2 2.4573 10.4404 2.32684
3724 2 2.37679 7.58294 4.95975
131 1 3.529 9.07074 1.05319
132 1 3.8941 8.81784 3.88837
198 1 3.71387 11.6961 3.7179
125 1 0.752825 8.96691 0.857591
186 1 4.03248 12.0928 0.669459
3725 1 0.635995 9.22875 6.3731
14598 1 6.57512 11.7123 0.833675
7323 2 2.23768 4.5562 13.5853
133 2 5.31414 4.66979 -0.432421
190 1 3.66049 11.9153 6.37678
3731 1 3.61613 9.00019 6.54665
137 1 6.71659 6.23954 0.802502
139 1 6.67947 9.09112 0.639671
197 1 6.49565 11.907 3.80128
3797 1 6.63309 11.7876 6.49107
140 1 6.68173 9.13979 3.78894
3805 2 10.8367 10.4316 5.01459
151 1 12.5044 9.082 0.864304
146 2 10.888 7.68524 2.0953
152 1 12.1893 8.89434 3.76812
141 1 9.54756 8.81396 0.694686
195 2 8.02465 10.3589 2.0325
3736 2 8.1688 7.60307 4.90099
144 1 9.34135 9.27596 3.47073
210 1 12.3991 11.9012 3.50329
201 1 9.34132 11.6577 0.624307
202 1 9.2537 12.0911 3.18999
213 1 12.2933 11.7661 0.789132
3751 1 12.3481 9.08588 6.39207
3739 1 6.60396 9.20756 6.59308
3801 1 9.52572 11.9661 6.11936
3743 1 9.44511 9.00515 6.28022
7227 2 13.5178 -6.60602 13.4853
7408 2 13.2721 12.7664 10.8376
14588 1 0.209767 16.3113 1.62428
3784 2 2.3853 13.3131 5.06065
194 2 5.22241 13.3749 2.27468
249 1 2.46428 18.0506 1.33692
189 1 3.81388 15.5556 0.73155
14592 1 2.01469 13.9179 1.8567
254 2 5.42878 19.0087 2.12378
3844 2 2.17332 19.147 5.05774
3853 2 5.11445 16.1773 5.03064
246 1 1.06035 17.5721 3.88431
188 1 1.02516 14.939 4.09493
243 2 2.36624 16.1832 2.65032
250 1 4.23101 17.6315 3.3202
192 1 4.02129 14.568 3.72259
14600 1 6.57211 14.6076 0.738599
3857 1 6.59598 17.6725 6.39967
3861 1 9.63565 17.3008 6.54264
7202 2 -0.281116 -3.58904 13.6575
7215 2 8.08179 -6.61918 13.5097
3662 2 -0.527639 1.85234 7.93649
3787 1 0.850493 14.6147 6.94544
3747 2 13.6615 4.92914 8.00018
200 1 6.66447 14.9463 3.55477
258 1 6.56485 17.6681 3.53794
7443 2 2.6044 16.014 13.5597
14604 1 6.73824 17.5404 0.710893
206 2 10.845 13.2487 2.0836
3796 2 8.04652 13.3074 5.0277
3856 2 8.06755 18.9516 5.24132
266 2 10.9814 19.1276 2.31966
3865 2 11.0268 16.1714 4.85888
269 1 12.3376 17.249 0.661061
270 1 12.3784 17.6891 3.71946
211 1 12.1811 14.409 0.813589
212 1 12.5943 14.733 3.78786
261 1 9.5494 17.5323 0.996919
255 2 7.9197 16.0316 2.12079
262 1 9.2224 17.3271 3.77905
203 1 9.71855 14.6934 3.43223
14606 1 9.2973 14.9244 0.664883
3869 1 12.5096 17.7655 6.39839
7275 2 8.08284 -1.10753 13.591
7334 2 5.08348 7.53134 13.6526
121 2 -0.537485 5.02944 -0.235864
147 2 13.6061 4.82928 2.39472
7441 2 -0.428582 16.1218 10.9568
3609 1 3.81433 -5.10842 6.79816
7415 1 13.114 14.914 12.5011
265 2 10.9561 16.0805 -0.530755
3605 1 0.889942 -5.07847 6.48911
58 1 1.10831 -2.31656 6.51286
3611 1 3.94637 -2.31455 6.70185
7273 2 5.26693 -0.915645 10.7546
7205 1 1.07757 -5.20248 12.2088
3606 1 0.776671 -5.0344 9.26734
7207 1 0.9157 -2.15214 11.9491
3614 2 5.35584 -3.83558 8.10817
3608 1 1.1016 -2.27385 9.28205
7209 1 3.82913 -5.14068 12.1481
3663 2 2.30675 -0.938923 7.96769
3610 1 3.72027 -5.18709 9.41469
7204 2 2.34145 -3.60803 10.6886
7211 1 3.99982 -2.06415 12.2884
3612 1 3.70299 -2.19203 9.35619
7219 1 6.76827 -2.33143 12.4089
7226 2 10.8978 -3.78242 13.6193
3661 2 -0.382561 -0.902538 5.00224
3619 1 6.58515 -2.18755 6.50826
3629 1 12.1962 -5.19053 6.15758
3623 1 9.51358 -2.17521 6.39623
3855 2 8.10031 16.2072 7.84858
3867 2 13.6428 16.2078 7.44898
3620 1 6.51488 -2.51752 9.58683
3618 1 6.54785 -5.29351 9.61778
3617 1 6.56878 -5.33776 6.5999
7217 1 6.55132 -5.10443 12.2356
7285 2 10.9526 -0.99801 10.7925
7229 1 12.2798 -5.30063 12.304
3630 1 12.3012 -5.16819 9.09922
7231 1 12.4382 -2.37248 12.0778
3626 2 10.9664 -3.83307 7.78793
3632 1 12.2035 -2.38376 9.30525
7221 1 9.60032 -5.07801 12.1801
3675 2 8.29093 -0.729345 7.81693
3622 1 9.65967 -5.19539 9.33779
7216 2 8.1213 -3.99148 10.6268
7223 1 9.66071 -2.49576 12.3662
3624 1 9.51518 -2.44272 9.41649
3669 1 3.81834 0.699414 6.47896
3607 1 1.03145 0.645691 6.62753
182 2 -0.41759 13.4776 2.0034
3665 1 1.16076 3.43494 6.43614
7265 1 1.04154 0.635686 12.3835
3666 1 0.898581 0.553754 9.41356
7269 1 3.77809 0.661553 12.1875
3674 2 5.11743 1.9415 7.87768
3670 1 3.87561 0.527603 9.24607
7264 2 2.4833 1.90505 10.8487
7333 2 5.22581 4.60611 10.7398
7267 1 1.13096 3.34946 11.8346
3723 2 2.29909 4.7693 7.80437
7271 1 3.79918 3.33857 12.1862
3672 1 3.99267 3.54724 8.90529
7261 1 1.18474 3.34737 9.21144
3668 1 0.746387 6.18281 9.58415
7329 1 3.54505 6.04462 12.244
7325 1 0.760788 5.86051 12.4381
3726 1 3.70944 6.12837 9.35446
3730 1 6.58771 5.92969 9.43819
7337 1 6.47158 5.7887 12.292
7396 2 8.69606 13.2714 10.5768
3679 1 6.53433 3.38166 6.5093
3841 2 -0.42428 16.152 5.36316
3689 1 12.4323 0.338021 6.20069
3680 1 6.805 3.36755 9.3301
3678 1 6.67158 0.260224 9.1657
7277 1 6.82039 0.265677 11.957
7279 1 6.85581 3.15382 12.3876
3681 1 9.61202 0.628937 6.78209
3691 1 12.2477 3.31915 6.58488
3690 1 12.335 0.637065 9.11809
3686 2 10.9327 1.98948 8.07013
7281 1 9.44923 0.340473 12.2808
3682 1 9.70221 0.64794 9.53784
7276 2 8.27742 1.87554 10.8355
3684 1 9.50592 3.37435 9.50488
7283 1 10.2253 2.98542 12.0883
3735 2 8.06061 4.61234 7.89018
7345 2 10.8355 4.81685 10.8296
7291 1 12.3576 0.609729 12.1546
3692 1 12.3648 3.50106 9.60205
3750 1 12.246 6.0135 9.255
7341 1 9.23452 5.74405 12.2622
3742 1 9.30103 6.19854 9.51277
7349 1 12.268 6.31581 11.9878
3727 1 0.942253 11.835 6.49053
7413 1 10.9374 13.5625 10.7413
7393 2 5.14956 9.99882 10.6896
7327 1 0.923337 8.69429 12.3035
3734 2 5.20267 7.5023 7.82125
3728 1 0.720503 9.1153 9.33667
3783 2 2.18038 10.2679 7.87758
7324 2 2.14256 7.45068 10.7553
7331 1 3.59846 9.01999 12.0429
3732 1 3.66516 8.82416 9.25693
7385 1 0.694541 11.7913 12.1841
3786 1 0.863744 11.8389 9.39889
7389 1 3.42596 11.9363 11.8354
7397 1 4.21175 11.5209 9.21068
7339 1 6.34762 8.72642 12.2082
7409 1 6.07415 11.414 12.5519
3811 1 12.0518 14.7391 6.51614
7457 1 7.8359 16.2204 11.3792
3803 1 9.76767 14.9206 12.6245
3603 2 2.45163 -6.61794 8.17158
3809 1 12.5378 11.9211 6.53739
3738 1 6.61442 8.71947 9.38963
3740 1 6.82983 11.51 9.6346
7403 1 12.0101 11.7255 12.4268
7401 1 9.29422 11.3212 12.1631
3744 1 9.71302 8.92025 9.19188
7343 1 9.31808 8.58254 12.1368
7336 2 7.83634 7.32422 10.8329
3795 2 8.01825 10.3894 7.70761
7405 2 10.7424 10.2683 10.7929
3746 2 10.9408 7.57425 7.94465
3752 1 12.5366 8.73101 9.05963
7351 1 12.2123 9.04543 12.2149
3802 1 9.45169 11.7548 9.05211
3810 1 12.0039 11.5142 9.36064
204 1 9.46911 14.5267 6.25561
7391 1 6.11329 18.8451 11.7961
3845 1 0.943272 17.5483 6.7414
3849 1 3.83907 17.6624 6.18381
3794 2 4.97231 13.1287 7.67874
3791 1 3.75969 15.034 6.38305
3800 1 6.40051 14.5205 9.31048
7384 2 1.89582 13.1957 10.9235
7453 2 5.64702 16.6825 10.8915
7445 1 0.827623 17.6383 12.0249
3846 1 1.14228 17.5123 9.44582
3798 2 5.42727 13.0828 10.7843
3854 2 5.18482 18.9877 7.93185
3843 2 2.21394 15.9469 7.95977
7387 1 1.07942 14.7576 12.3352
3792 1 0.507134 14.4592 9.42605
3850 1 3.84346 17.587 9.19164
3789 1 4.06693 14.4242 12.1136
3790 1 3.40517 14.139 9.71549
7444 2 2.21994 18.9876 10.6743
7449 1 3.71007 17.6365 12.0648
7458 1 5.47702 16.3633 13.0594
3804 1 9.3945 14.7787 9.20809
3862 1 9.31792 17.6382 9.30475
7465 2 10.39 16.2703 10.8654
3812 1 12.8526 14.7807 9.45279
3866 2 10.8385 18.95 7.82213
3799 1 6.61336 14.4613 6.27149
7461 1 9.50875 17.9659 12.4636
7411 1 12.0225 17.372 9.80925
7399 1 6.96943 13.7724 12.1727
3858 1 6.66052 17.6494 9.13667
7456 2 8.08108 19.0373 10.9024
3806 2 10.7522 13.1523 7.6947
3602 2 -0.376664 -3.66316 7.93092
122 2 -0.48178 7.95974 2.28321
256 2 8.26019 18.7522 -0.381846
7312 2 -0.550703 -0.604052 10.8955
7214 2 5.23854 -3.55741 13.4386
3628 2 13.7484 -4.01155 4.97328
7381 2 -0.499143 10.4503 10.7547
7383 2 2.31841 10.3827 13.5308
7262 2 -0.555455 2.10809 13.541
10873 2 5.30623 -0.907773 16.6002
10805 1 1.14953 -5.03588 17.8176
7206 1 1.15486 -4.94573 15.0284
10807 1 0.679259 -2.24598 17.9358
10814 2 5.16613 -3.77909 19.2518
7208 1 0.852204 -2.19545 15.0307
10809 1 3.94372 -5.04156 17.9678
10863 2 2.36098 -1.0211 19.3188
7210 1 3.87048 -4.96823 15.3273
10804 2 2.43713 -3.59363 16.5119
10811 1 3.63947 -2.25119 17.9662
7212 1 3.72342 -2.34368 14.8273
10817 1 6.55115 -5.15969 17.8158
14425 2 10.8334 -6.59579 22.2573
10819 1 6.47133 -2.2879 17.9598
10922 2 -0.542242 7.49131 19.2573
85 2 10.8976 -0.714108 27.8389
16 2 8.08892 -3.64247 27.5081
14607 2 13.6328 10.3592 24.9132
7218 1 6.5903 -5.10866 14.8405
7220 1 6.98836 -2.09143 15.2977
10885 2 10.7371 -0.768252 16.4391
10829 1 12.1713 -5.18662 17.7363
7230 1 12.449 -5.53668 15.1684
10831 1 12.1293 -2.33304 17.6579
10826 2 10.8457 -3.76945 19.3083
7232 1 12.5579 -2.81838 14.7599
10821 1 9.50148 -5.29648 17.7549
10875 2 8.15758 -0.912893 19.3314
7222 1 9.39884 -5.12082 15.0025
10816 2 7.99371 -3.81201 16.4377
10823 1 9.43344 -2.49699 17.9514
7224 1 9.68601 -2.19189 14.9479
10888 2 13.6952 1.88273 16.3249
10820 1 6.70813 -2.37212 20.7487
10830 1 12.1558 -5.41354 20.6095
14415 2 8.16487 -6.53133 25.0426
10865 1 0.664483 0.301792 18.0339
7266 1 1.03542 0.513265 15.0119
10874 2 5.34899 1.69972 19.3831
10869 1 3.81782 0.430294 18.1117
7270 1 3.78896 0.431349 15.2823
10864 2 2.17212 1.8315 16.5635
10933 2 5.00297 4.70406 16.3634
10867 1 0.819859 3.25341 17.8506
7268 1 0.68363 3.19205 15.0818
10923 2 2.59146 4.61042 19.3977
10871 1 3.72622 3.07142 17.9564
7272 1 3.45104 3.3003 15.2024
7326 1 0.98857 6.14103 15.1062
10929 1 3.73035 6.21659 17.7606
7330 1 3.72581 6.26236 15.0752
10925 1 0.871169 6.05897 17.7628
10868 1 0.869045 3.20638 20.6477
10877 1 6.7873 0.507853 17.8893
7280 1 6.29166 3.25552 14.9881
10926 1 0.854427 6.30517 20.6715
10866 1 1.16522 0.374535 20.6949
7338 1 6.25616 6.02701 15.1027
10930 1 3.97401 5.9479 20.7079
10802 2 -0.50886 -3.66218 19.186
61 2 0.081818 -1.08797 27.9483
7278 1 6.72982 0.44384 15.003
10937 1 6.54392 5.79037 17.8218
10880 1 6.57008 3.03615 20.7415
10879 1 6.63054 3.10137 17.8347
7290 1 12.3029 0.0669182 14.8857
10889 1 12.5351 0.411816 17.8662
7282 1 9.5979 0.611476 15.1931
10886 2 10.9815 1.78507 19.3196
10881 1 9.50573 0.190554 18.007
10876 2 8.0368 1.87324 16.4731
10945 2 11.043 4.69375 16.3319
10891 1 12.4409 3.13948 17.7359
7292 1 12.0803 3.23086 14.8799
10935 2 8.09395 4.4154 19.059
10883 1 9.56719 2.75407 17.729
7284 1 9.2633 3.61826 15.0054
10949 1 12.1785 6.14692 17.9524
10941 1 9.33049 6.02911 17.8779
7350 1 11.6526 6.65577 15.5369
7342 1 9.25696 6.2203 14.9574
10942 1 9.51269 5.98734 20.7528
10884 1 9.22709 3.20516 20.5092
10892 1 11.9792 3.29141 20.4269
10950 1 12.2681 5.89182 20.7043
7466 2 10.5497 19.2124 14.037
28 2 13.6754 -3.85696 27.799
184 2 2.22956 16.414 27.6547
10993 2 5.14494 10.3365 16.5545
10927 1 0.916235 8.85605 17.7935
10934 2 5.13211 7.62684 19.2565
7328 1 0.680807 9.09335 15.1296
10983 2 2.27603 10.5003 19.3423
10924 2 2.16352 7.59464 16.4144
10931 1 3.44613 9.23414 17.5571
7332 1 3.75867 8.96392 15.1169
10985 1 0.541344 11.9286 17.7384
7386 1 0.938795 11.77 15.0939
10989 1 3.43473 11.8704 17.8799
7390 1 3.38115 11.7307 14.9916
10986 1 0.650453 11.9816 20.5288
7340 1 6.61779 8.84654 15.0208
10997 1 6.28178 11.7993 17.9488
7398 1 6.43576 11.8169 15.2995
10947 2 13.6409 4.663 19.0849
10932 1 3.44202 8.85659 20.467
10939 1 6.32091 8.72283 17.7307
11005 2 10.7891 10.4417 16.4982
10951 1 11.9292 8.9723 18.1315
10946 2 10.7493 7.49224 19.3017
7352 1 12.3653 9.26456 15.1238
10995 2 8.06693 10.3178 19.2651
10936 2 7.96534 7.37763 16.4288
10943 1 9.09111 9.1614 17.5223
7344 1 9.70664 8.97978 14.8734
11009 1 11.9109 11.8557 17.8805
7410 1 12.3287 11.8524 15.1118
11001 1 9.1692 11.898 17.9886
7402 1 9.23652 11.76 15.1991
10803 2 2.27231 -6.4993 19.2461
7274 2 5.01024 1.80341 13.7282
10998 1 6.50358 11.8567 20.7419
10944 1 9.33377 8.9656 20.6328
10952 1 12.1132 8.87145 20.7237
11002 1 9.26474 11.6097 20.6879
185 2 2.10093 13.0116 27.5713
10984 2 2.09131 13.3036 16.4806
7394 2 5.0625 13.1128 13.8809
10994 2 4.96894 13.1814 19.4486
11053 2 5.14356 15.981 16.4039
11045 1 1.01871 17.8148 17.5797
7446 1 0.91555 17.5134 14.8082
10987 1 0.467379 14.9348 17.8357
11054 2 4.92376 18.6467 19.2552
7388 1 0.908316 14.6041 15.038
11049 1 3.66858 17.2291 17.9266
11043 2 2.12015 16.1797 19.0756
7450 1 3.85702 17.5598 15.149
10991 1 3.54996 14.6101 17.7691
7392 1 3.6929 14.691 15.0223
11044 2 2.17349 19.0949 16.0904
11057 1 6.75758 17.4518 18.1864
11050 1 3.70062 17.2849 20.8141
10999 1 6.43823 14.5471 17.8784
7462 1 6.74804 17.585 15.4451
14668 2 13.4662 18.7885 22.0078
193 2 5.2012 10.3377 27.7556
10988 1 0.865528 14.7192 20.5476
14611 1 12.4475 14.5056 23.637
136 2 7.89055 7.72012 27.6247
7400 1 6.61641 14.5545 15.0801
10996 2 7.69641 13.1516 16.3948
11006 2 10.8029 13.1695 19.3749
11056 2 7.9726 18.8538 16.8187
11065 2 10.6614 16.0509 16.5776
11069 1 12.2758 17.6112 18.0402
7470 1 12.2408 17.6397 15.3046
11011 1 12.2097 14.6926 18.0423
11066 2 10.838 19.1044 19.3017
7412 1 12.1098 14.7631 15.3129
11061 1 9.4606 17.3224 17.8938
11055 2 7.8889 15.8471 19.367
11003 1 9.22701 14.7092 18.1685
7404 1 9.39135 14.4199 15.2955
7463 1 9.49307 17.4558 15.283
11000 1 6.60867 14.6458 20.698
11012 1 12.43 14.8153 20.8572
11062 1 9.2446 17.4663 20.5723
10813 2 5.34902 -6.43237 16.4742
7286 2 10.9423 1.59937 13.7998
10810 1 3.52718 -5.10278 20.7587
10812 1 3.9176 -2.40523 20.5332
245 1 0.375313 18.1556 27.794
7335 2 7.80923 4.83077 13.8156
10808 1 1.16467 -2.47439 20.5832
4 2 2.53844 -3.95316 27.4223
10806 1 0.97245 -5.04888 20.4936
17948 1 0.865241 -5.1836 26.2612
17952 1 3.98505 -5.11177 26.3381
14473 2 5.22125 -0.930705 22.1149
14405 1 0.928831 -5.00034 23.3312
14407 1 1.34794 -2.01829 23.3735
14414 2 5.29238 -3.81145 24.6921
14408 1 1.08153 -2.73813 26.1904
14409 1 3.89152 -5.21058 23.4614
14463 2 2.46649 -1.15741 25.2025
14410 1 4.1327 -2.43033 26.2455
14404 2 2.4051 -3.70296 22.0485
14411 1 3.78856 -2.46988 23.3775
14461 2 -0.467109 -0.743878 22.1559
14612 1 12.2275 14.7105 26.4331
124 2 2.31398 7.55683 27.9006
64 2 2.33657 1.96212 27.6801
10818 1 6.45115 -5.41795 20.4704
10824 1 9.39041 -2.25014 20.9103
10822 1 9.26237 -5.01952 20.6174
10832 1 12.2772 -2.29082 20.646
14417 1 6.72337 -5.31415 23.4245
3499 1 6.58831 -5.17064 26.1263
14418 1 6.72183 -2.37868 26.2373
14419 1 6.4763 -2.50097 23.3941
17960 1 9.45802 -5.31036 26.5069
14429 1 9.68393 -5.18155 23.7059
17971 1 12.224 -5.19573 23.4786
14485 2 10.8219 -0.960731 22.3118
14431 1 12.4955 -2.36549 23.4169
14426 2 11.0948 -3.67006 24.9318
14432 1 12.3107 -2.33405 26.3166
14475 2 7.95351 -0.840416 24.9972
14422 1 12.3134 -5.04357 26.3572
14416 2 7.87163 -3.74565 21.9437
14423 1 9.38079 -2.3781 23.4033
14424 1 9.62963 -2.33991 26.0788
10872 1 3.71581 3.12692 20.7702
196 2 8.13294 13.1509 27.5448
14522 2 -0.200592 4.71385 24.7925
10870 1 4.02049 0.519186 20.761
14472 1 1.0193 2.86111 25.7072
14466 1 0.968793 0.0511797 26.1679
14465 1 0.796091 0.710734 23.4036
14474 2 5.01079 1.80935 25.0417
14469 1 3.8458 0.355395 23.3436
14470 1 3.7756 0.558822 26.2336
14464 2 2.34889 1.77471 22.075
14533 2 5.323 4.4156 22.1902
14523 2 2.88935 4.77522 24.9065
14471 1 3.70934 3.11474 23.5227
14530 1 3.86177 3.4307 26.487
14532 1 3.69639 6.17353 26.2583
14519 1 1.21521 3.88845 23.0862
14529 1 4.06724 6.1889 23.4335
14468 1 1.56084 5.34816 26.8402
14477 1 6.65025 0.446215 23.477
14412 1 6.34146 0.425306 26.4518
14467 1 1.40634 6.46747 23.9513
10938 1 6.555 5.93724 20.6359
10882 1 9.79941 0.531109 20.9397
14650 1 7.17112 17.1694 26.4654
14537 1 6.75473 6.01274 23.7613
14480 1 6.50694 6.33019 26.3962
14478 1 6.59093 3.21881 26.5792
14479 1 6.52909 3.21224 23.7353
10878 1 7.07156 0.237854 20.8087
10890 1 12.6544 0.682644 20.6063
14481 1 9.49279 0.46659 23.5812
14482 1 9.19548 0.291957 26.3716
14489 1 12.4399 0.587339 23.5378
14490 1 12.0986 3.44578 26.4576
14476 2 8.23533 1.81835 22.0176
76 2 11.102 2.01758 24.9454
14486 1 9.41022 3.39419 26.3818
14483 1 9.67026 3.47005 23.6093
14535 2 7.98867 4.75796 25.1584
14545 2 10.6769 4.63865 21.9058
14491 1 12.4608 3.37352 23.4369
14494 1 12.1786 0.510729 26.2125
14550 1 11.9531 6.34463 26.3269
14541 1 9.36464 6.21245 23.7363
14542 1 9.20265 6.34769 26.5304
14549 1 12.2673 6.27995 23.4961
14602 1 9.59461 14.7908 26.2948
209 2 10.9306 10.516 27.7901
10928 1 0.853314 9.23252 20.9135
10990 1 3.47189 11.8079 20.7182
14585 1 0.641751 11.9005 23.4231
14528 1 0.824495 8.96789 26.3128
14593 2 5.02192 10.3802 21.8835
14527 1 0.697192 8.99095 23.6693
14534 2 5.19128 7.62479 24.8931
14540 1 3.48366 9.1795 26.2915
14583 2 2.04535 10.385 24.7644
14524 2 2.23193 7.5321 22.0966
14531 1 3.54742 8.9917 23.2688
14590 1 3.80045 11.8818 26.3335
14589 1 3.56624 11.7293 23.2966
14586 1 0.714414 11.7493 25.9956
14597 1 6.2311 11.6888 23.7323
145 2 10.8957 4.8942 27.8452
14656 2 7.87201 18.7401 21.9803
143 1 6.68485 11.5651 26.4276
14538 1 6.292 9.0435 26.1201
14539 1 6.50939 8.91754 23.4368
11010 1 11.9732 11.7515 20.8386
10940 1 6.5498 9.13744 20.436
149 1 9.35002 9.07761 26.182
14601 1 9.06437 11.8494 23.4874
14610 1 12.3618 11.9293 26.4447
14609 1 12.2492 11.72 23.3987
14544 1 9.71583 11.8311 26.371
14543 1 9.4005 8.99051 23.3628
14536 2 7.91342 7.5706 22.0253
14595 2 7.79449 10.3297 24.7979
14605 2 10.7211 10.5167 22.2159
14551 1 12.1585 9.09417 23.4975
14546 2 10.8422 7.53726 24.8911
14552 1 12.4082 8.83067 26.294
7395 2 7.98109 10.0752 13.7846
14596 2 8.00476 13.1851 22.0194
7455 2 7.81748 16.0657 13.7503
11070 1 12.1257 17.5688 20.6381
14548 2 13.5885 7.59394 22.2311
14547 2 13.4539 4.71388 24.7162
14599 1 6.67509 14.4519 23.4712
11046 1 1.03521 17.4793 20.6563
10992 1 3.85002 14.5915 20.8573
11058 1 6.49885 17.3358 20.7958
14646 1 3.26607 14.6974 26.3644
14652 1 0.592637 16.3093 25.7684
14594 2 5.08388 13.1976 24.9115
14584 2 2.12419 13.1519 22.0113
191 1 2.33802 18.245 25.8789
14654 2 4.81638 18.9611 25.2074
14644 2 2.25023 19.0168 22.0844
14587 1 1.02494 14.6808 23.3203
14591 1 3.74476 14.6207 23.6586
14649 1 3.99002 17.7669 23.378
14645 1 0.863993 17.4418 23.3281
14653 2 5.27571 16.1064 22.224
14643 2 2.55178 16.2105 24.501
237 1 5.04348 16.394 25.4425
14662 1 9.5443 17.8433 26.5468
14670 1 12.4324 17.6039 26.1329
14669 1 12.2458 17.3704 23.3905
14655 2 7.9371 15.8063 24.881
14658 1 6.91175 14.5154 26.2986
14657 1 6.7088 17.4748 23.5069
14665 2 10.721 16.0706 22.1812
14666 2 10.8125 18.9087 24.9085
14661 1 9.28285 17.2455 23.6065
205 2 10.9782 13.2156 24.733
14603 1 9.49783 14.4707 23.4749
11004 1 9.49556 14.5266 20.8384
11068 2 13.6574 19.2354 16.408
253 2 5.4862 15.992 27.5364
14642 2 -0.368343 18.8201 25.1117
244 2 2.20752 19.6512 27.8302
10801 2 -0.370048 -6.44064 16.2439
7467 2 13.5275 16.1891 14.2516
179 2 -0.415386 10.428 27.7864
7406 2 10.764 13.0645 13.6952
7263 2 2.31359 -0.951012 13.7332
13 2 5.36024 -6.33113 27.8063
11007 2 13.4655 10.221 19.2416
14641 2 -0.393217 16.3138 22.0017
7322 2 -0.468849 7.47165 13.689
11008 2 13.5492 13.2166 16.5621
10948 2 13.5047 7.69781 16.4432
14521 2 -0.426195 4.78389 21.5881
10815 2 7.96107 -6.57286 19.2872
7454 2 5.07847 19.0902 13.7435
73 2 4.94243 -0.821527 27.8519
3913 2 5.04484 21.7533 4.9591
306 1 0.965977 23.3022 3.74046
314 2 5.10921 24.9529 2.25916
309 1 3.34553 24.118 1.10154
303 2 2.30765 21.964 2.17049
310 1 3.64144 23.5172 3.56885
3904 2 2.18433 24.7732 4.86678
357 1 0.376548 23.5245 0.783653
248 1 0.996639 20.5005 3.65788
252 1 3.30533 20.7499 3.87163
247 1 0.77225 20.4962 1.18266
199 1 4.42081 21.0037 1.15081
312 1 3.62252 26.452 3.75165
366 1 0.568459 26.0595 3.68486
319 1 6.54677 26.3894 0.944534
301 2 -0.500825 21.7784 -0.372475
7683 2 2.44391 39.1076 13.5671
7681 2 -0.373737 39.1738 10.8402
260 1 6.54453 20.4188 3.9248
321 1 5.97073 23.2512 0.599283
318 1 6.48197 23.5029 3.62874
317 1 7.10896 20.4072 1.12592
263 1 8.76764 23.1301 1.02775
3925 2 10.792 21.7871 5.07565
329 1 12.24 22.9287 1.02909
330 1 12.3471 23.1531 3.87736
326 2 10.7277 24.7949 2.16308
272 1 12.1955 20.5573 3.60526
315 2 8.10497 21.9075 2.6405
322 1 9.63403 23.2139 3.75787
3916 2 8.0471 24.5392 4.97586
264 1 9.49467 20.284 3.70365
271 1 12.6161 20.356 0.772356
257 1 9.85001 20.6454 1.00917
3921 1 9.45775 23.1312 6.31033
331 1 12.4113 26.1605 0.692176
3871 1 12.4792 20.3287 6.45466
3929 1 12.3648 23.2318 6.54499
7509 1 9.67727 20.3714 12.2132
7648 2 13.5505 36.1173 10.5855
7646 2 10.5255 36.2773 13.2742
3907 1 0.573877 26.4244 6.52303
307 1 0.940808 26.4071 0.743477
311 1 3.67624 26.8479 0.83524
308 1 0.565317 28.9226 3.38208
3973 2 5.26533 27.5656 5.08225
363 2 2.26883 27.7105 2.55884
426 1 0.471073 31.7216 3.63784
374 2 5.27434 30.6551 2.33389
370 1 3.66492 29.3475 3.4907
3964 2 2.30035 30.8324 4.87515
371 1 3.80415 32.0799 0.71671
372 1 3.57955 32.1733 3.60331
367 1 2.91566 29.4512 1.13864
425 1 0.779096 31.936 1.032
3967 1 0.493245 28.9035 0.373283
3968 1 0.87122 32.2021 6.2603
379 1 6.43662 32.1761 0.813243
380 1 6.57146 31.6992 3.62894
368 1 6.19736 29.5481 0.610582
378 1 6.35754 28.9351 3.39355
3971 1 3.7576 31.7024 6.41696
3979 1 6.73959 31.7745 6.47341
320 1 6.69919 26.2815 3.78937
4104 1 9.27259 43.2593 9.31162
7528 2 13.4653 24.3724 10.6566
3931 1 12.2475 25.7048 6.72314
4108 2 13.5432 42.0632 5.107
387 2 13.4732 27.5226 2.48768
390 1 11.8647 26.1687 3.49915
324 1 9.27251 25.8928 3.48257
332 1 9.74577 26.6205 0.911407
3985 2 10.7606 27.5902 4.92853
375 2 7.78752 27.8534 2.18595
14778 1 9.27525 29.1461 1.00528
391 1 12.2584 31.9592 0.852372
386 2 10.6571 30.5765 2.26728
392 1 12.0738 31.8997 3.7788
382 1 9.28742 28.9473 3.66695
3976 2 8.02186 30.2323 5.0595
383 1 9.39546 31.8489 0.945227
384 1 9.25594 32.0071 3.60954
3989 1 12.0535 29.2019 3.65133
14732 1 12.2985 29.1907 0.472375
3990 1 12.0627 29.4322 6.36527
3991 1 12.2086 31.943 6.3139
3983 1 9.43779 31.678 6.52755
423 2 2.14837 33.5491 2.17759
4033 2 5.16833 33.2609 4.9537
434 2 5.14287 36.1199 2.1848
429 1 3.66788 34.823 0.773992
430 1 3.70828 34.7547 3.47923
4024 2 2.28502 36.0414 4.89875
428 1 0.757948 34.7466 3.68972
427 1 0.513189 34.852 0.786861
4084 1 0.875299 37.4183 3.68665
431 1 3.76673 37.6212 0.601209
432 1 3.6999 37.6349 3.43099
486 1 1.09916 37.4038 1.13738
4093 2 5.07141 39.1228 5.07126
483 2 2.39356 39.0826 1.98544
4031 1 3.73124 37.786 6.38287
4029 1 3.54708 34.4271 6.46137
438 1 6.58843 34.6152 3.53381
437 1 6.51424 34.9235 0.771678
440 1 6.54619 37.7998 3.58097
439 1 6.4933 37.7529 0.719547
7623 2 1.91636 33.1343 13.5521
4045 2 10.6842 33.1829 5.01562
449 1 11.9758 34.7296 0.837852
450 1 12.1552 34.7428 3.75223
446 2 10.7315 36.3767 2.22932
441 1 9.30446 34.7447 0.798539
435 2 7.99137 33.5339 2.26509
442 1 9.2848 34.7152 3.69025
4036 2 7.76838 36.214 5.04253
452 1 12.2995 37.5534 3.69002
443 1 9.11823 37.6083 0.78428
444 1 9.3563 37.7032 3.62734
451 1 12.1325 37.6458 0.893531
4105 2 10.6353 38.9276 5.02853
4043 1 9.19164 37.4905 6.31036
4049 1 12.0071 34.5615 6.67927
4041 1 8.98537 34.4872 6.12438
4051 1 11.8679 37.6009 6.27743
4048 2 13.4504 36.2323 5.33884
545 1 0.905791 43.192 0.752358
4153 2 5.09683 44.7312 4.91962
485 1 0.639851 40.2892 3.88386
487 1 0.770992 40.3226 1.01413
494 2 5.16154 41.8396 2.11436
488 1 1.01014 43.2783 3.43227
489 1 3.67877 40.3113 0.649429
543 2 2.25862 44.6847 1.99811
490 1 3.43156 40.5164 3.57435
491 1 3.44108 43.2313 0.81735
492 1 3.98786 43.3554 3.33588
482 2 2.20425 42.0419 5.00783
499 1 6.4593 43.1403 0.672717
497 1 6.58228 40.494 0.748153
500 1 6.83631 43.298 3.5158
4085 1 0.973115 40.4643 6.7228
4099 1 6.38933 43.2918 6.3241
7755 2 7.82749 44.7402 13.4462
498 1 6.42944 40.6138 3.50373
4097 1 6.53488 40.5065 6.47051
4089 1 3.74471 40.4519 6.42636
4087 1 0.508832 43.1533 6.34816
507 2 13.552 38.9917 2.41002
495 2 7.86604 39.1761 2.17101
4165 2 10.5315 44.778 5.05901
509 1 11.9983 40.3413 1.07943
510 1 12.2225 40.3581 3.70879
511 1 12.6581 43.0735 1.16939
506 2 10.8213 41.9394 2.17447
512 1 12.209 43.2489 3.64057
501 1 9.24425 40.3851 0.707232
555 2 8.10765 44.5946 2.06824
502 1 9.5573 40.6804 3.42747
4096 2 7.96587 42.0071 5.0595
503 1 9.25181 43.0758 0.777616
504 1 9.50254 43.7152 3.39012
4103 1 9.20091 43.2315 6.38699
4111 1 12.0205 43.4586 6.36264
4101 1 9.34646 40.3454 6.52005
4082 2 -0.421207 41.851 7.99282
7695 2 8.01643 39.0628 13.5895
3851 1 3.75816 20.3673 6.51353
3917 1 6.4241 23.2002 6.25735
7706 2 10.7257 42.1124 13.5589
3909 1 3.73771 23.1292 6.58403
3847 1 0.585286 20.4681 6.59966
3905 1 0.785977 23.4928 6.40764
7682 2 -0.555325 41.9896 13.5489
7451 1 3.77178 20.7661 12.1509
7447 1 0.760203 20.6152 12.1522
3852 1 0.651062 20.3636 9.3837
3918 1 3.68509 20.5425 9.31494
7513 2 5.16798 21.9312 10.8442
7505 1 3.6584 23.4592 11.9069
3906 1 0.554598 23.3612 9.44256
3914 2 5.025 24.753 7.936
3903 2 2.30914 21.7305 7.81751
3910 1 3.48563 23.5546 9.15782
7504 2 2.14509 24.8526 10.6444
7559 1 0.713952 23.1205 12.3146
7507 1 0.928732 25.8862 12.2979
7517 1 6.55838 23.0393 12.2295
3860 1 6.84292 20.4025 9.29407
3912 1 3.30698 26.3687 9.48478
7515 1 6.45296 23.4255 9.30737
7519 1 6.81282 26.027 12.1363
7575 2 7.88734 27.1593 13.4855
3859 1 6.48193 20.5993 6.72723
3863 1 9.63288 20.3478 6.43498
4047 2 13.5444 33.1498 7.62437
7475 1 12.2902 23.3469 12.3629
3872 1 12.3784 20.1979 8.96273
7471 1 12.5012 21.0246 11.7787
7525 2 10.7582 21.8961 11.0378
3930 1 12.0844 23.0315 9.21994
3926 2 10.8137 24.414 7.9449
7521 1 9.68323 23.4975 12.2153
3915 2 7.9551 22.023 7.94614
3922 1 9.28019 23.0311 9.52848
7516 2 8.1465 24.333 10.9896
3864 1 9.42645 20.4618 9.44424
7523 1 9.37619 26.1719 12.1742
4155 2 7.88085 44.5962 8.05303
7701 1 12.3379 40.2425 12.3307
3928 2 13.397 24.75 5.11331
3911 1 3.85806 25.992 6.4479
3965 1 1.15405 29.3183 6.16235
3969 1 3.93482 28.8981 6.44751
3977 1 6.80326 28.7715 6.39948
3919 1 6.85733 25.9093 6.68876
4110 1 12.1492 40.6995 9.61718
3908 1 0.444636 26.11 9.56822
7511 1 3.94004 26.0759 12.4148
3920 1 6.34205 26.0515 9.53811
7565 1 1.19371 28.8449 11.9508
7573 2 5.06367 27.4108 10.8675
3963 2 2.27785 27.8201 7.67189
3966 1 0.829167 29.1317 8.97516
7567 1 0.686218 32.059 9.09413
3974 2 4.99947 30.5295 7.89086
7569 1 3.85411 29.11 12.1892
3970 1 3.66992 29.2033 9.01551
7564 2 2.35193 30.3588 10.7016
3972 1 3.55552 31.9066 9.1739
7571 1 3.29742 32.0325 11.7742
7625 1 0.690102 31.9693 11.8404
7579 1 6.41356 31.5535 12.2316
3980 1 5.97672 31.9103 9.35868
3923 1 9.41351 26.0636 6.30667
7597 2 13.6916 27.5661 10.6084
3932 1 12.267 26.2713 9.36808
3924 1 9.41681 25.8368 9.17353
7577 1 6.38895 28.9514 12.1723
7531 1 12.4239 26.2763 11.9707
3981 1 9.42733 28.9856 6.45027
3978 1 6.66597 28.9313 9.29724
7585 2 10.4348 27.4827 10.7913
3975 2 8.06151 27.5031 7.9487
7591 1 12.8279 31.5463 12.6324
3986 2 10.6585 30.3917 8.05433
3982 1 9.45733 29.0412 9.31973
7576 2 7.73287 30.4192 10.7516
3984 1 8.86743 31.8546 9.19792
7635 1 9.7933 31.6012 11.7477
3992 1 12.0214 31.8121 9.73227
7583 1 12.3597 29.0485 9.0846
7589 1 11.9356 28.8516 11.8206
7581 1 9.07057 28.842 12.1821
7707 2 13.7392 38.9609 13.5977
445 2 10.8037 33.3887 -0.506003
448 2 13.4882 36.1869 -0.462977
4027 1 0.916859 37.5898 6.3769
4025 1 0.90614 34.9686 6.72995
4037 1 6.17568 34.8854 6.06662
4039 1 6.42721 37.4914 6.45327
7563 2 2.44073 27.7882 13.5333
7572 1 0.81948 34.6962 12.3462