LAMMPS (29 Oct 2020)
OMP_NUM_THREADS environment is not set. Defaulting to 1 thread. (../comm.cpp:94)
  using 1 OpenMP thread(s) per MPI task
OMP_NUM_THREADS environment is not set. Defaulting to 1 thread. (../comm.cpp:94)
  using 1 OpenMP thread(s) per MPI task
Lattice spacing in x,y,z = 5.5788000 5.5788000 5.5788000
Created orthogonal box = (0.0000000 0.0000000 0.0000000) to (27.894000 334.72800 27.894000)
  2 by 13 by 2 MPI processor grid
Changing box ...
  triclinic box = (0.0000000 0.0000000 0.0000000) to (27.894000 334.72800 27.894000) with tilt (0.0000000 0.0000000 0.0000000)
Created 12000 atoms
  create_atoms CPU = 0.007 seconds
Lattice spacing in x,y,z = 5.5788000 5.5788000 5.5788000
Created 6000 atoms
  create_atoms CPU = 0.001 seconds
12000 atoms in group oxygen
6000 atoms in group uranium
Setting atom values ...
  45 settings made for type/ratio
Setting atom values ...
  45 settings made for type/ratio
45 atoms in group anti_oxygen
45 atoms in group anti_uranium
Setting atom values ...
  45 settings made for type
Setting atom values ...
  45 settings made for type
Setting atom values ...
  12000 settings made for charge
Setting atom values ...
  6000 settings made for charge
PPPM initialization ...
  using 12-bit tables for long-range coulomb (../kspace.cpp:328)
  G vector (1/distance) = 0.29916851
  grid = 40 240 40
  stencil order = 5
  estimated absolute RMS force accuracy = 0.00015502622
  estimated relative force accuracy = 1.0765975e-05
  using single precision MKL FFT
  3d grid and FFT values/proc = 18225 7600
Neighbor list info ...
  update every 1 steps, delay 0 steps, check yes
  max neighbors/atom: 2000, page size: 100000
  master list distance cutoff = 13
  ghost atom cutoff = 13
  binsize = 6.5, bins = 5 52 5
  2 neighbor lists, perpetual/occasional/extra = 2 0 0
  (1) pair coul/long, perpetual
      attributes: half, newton on
      pair build: half/bin/newton/tri
      stencil: half/bin/3d/newton/tri
      bin: standard
  (2) pair eam/alloy, perpetual, copy from (1)
      attributes: half, newton on
      pair build: copy
      stencil: none
      bin: none
Setting up cg style minimization ...
  Unit style    : metal
  Current step  : 0
WARNING: Energy due to 3 extra global DOFs will be included in minimizer energies
Per MPI rank memory allocation (min/avg/max) = 10.42 | 10.45 | 10.47 Mbytes
Step Temp E_pair E_mol TotEng Press Volume 
       0            0   -231588.92            0   -231588.92    19820.881    260443.57 
     623            0   -235362.08            0   -235362.08     28.76818    263894.89 
Loop time of 9.16491 on 52 procs for 623 steps with 18000 atoms

99.6% CPU use with 52 MPI tasks x 1 OpenMP threads

Minimization stats:
  Stopping criterion = linesearch alpha is zero
  Energy initial, next-to-last, final = 
     -231588.917151428  -235362.084353346  -235362.084353362
  Force two-norm initial, final = 5677.1781 31.292485
  Force max component initial, final = 3614.4358 10.221723
  Final line search alpha, max atom move = 1.2081061e-11 1.2348926e-10
  Iterations, force evaluations = 623 779

MPI task timing breakdown:
Section |  min time  |  avg time  |  max time  |%varavg| %total
---------------------------------------------------------------
Pair    | 5.0293     | 5.1716     | 5.3315     |   3.3 | 56.43
Bond    | 7.2587e-05 | 0.00010447 | 0.00016191 |   0.0 |  0.00
Kspace  | 1.5867     | 1.7506     | 1.9006     |   5.8 | 19.10
Neigh   | 0.039897   | 0.04618    | 0.050235   |   1.0 |  0.50
Comm    | 0.18517    | 0.19056    | 0.19479    |   0.5 |  2.08
Output  | 0          | 0          | 0          |   0.0 |  0.00
Modify  | 0          | 0          | 0          |   0.0 |  0.00
Other   |            | 2.006      |            |       | 21.89

Nlocal:        346.154 ave         380 max         304 min
Histogram: 1 1 6 6 7 7 6 9 7 2
Nghost:        5626.13 ave        5719 max        5527 min
Histogram: 7 11 3 2 2 0 1 8 9 9
Neighs:       111451.0 ave      121831 max       97496 min
Histogram: 1 1 5 7 7 5 8 10 4 4

Total # of neighbors = 5795457
Ave neighs/atom = 321.96983
Ave special neighs/atom = 0.0000000
Neighbor list builds = 12
Dangerous builds = 0
PPPM initialization ...
  using 12-bit tables for long-range coulomb (../kspace.cpp:328)
  G vector (1/distance) = 0.29893969
  grid = 40 240 40
  stencil order = 5
  estimated absolute RMS force accuracy = 0.00015680388
  estimated relative force accuracy = 1.0889427e-05
  using single precision MKL FFT
  3d grid and FFT values/proc = 18225 7600
Setting up Verlet run ...
  Unit style    : metal
  Current step  : 0
  Time step     : 0.001
Per MPI rank memory allocation (min/avg/max) = 10.56 | 10.59 | 10.61 Mbytes
Step Dt Time Atoms Temp PotEng KinEng Press Volume 
       0        0.001            0    18000         1500   -235362.09      3489.83    14153.461    263894.89 
   50000        0.001           50    18000      1520.55   -232698.42    3537.6406    492.71261    273832.18 
  100000        0.001          100    18000    1509.9625    -232677.2    3513.0084   -1235.0601     274120.4 
  150000        0.001          150    18000    1492.3578   -232650.91    3472.0501    -373.9292    273907.82 
  200000        0.001          200    18000    1510.8676   -232664.75     3515.114   -1198.3346    274177.03 
  250000        0.001          250    18000    1495.2833   -232682.36    3478.8564   -949.20083    274090.05 
  300000        0.001          300    18000    1505.9163   -232678.13    3503.5946    516.75395    273826.06 
  350000        0.001          350    18000    1505.0576   -232661.87    3501.5968   -72.394019    273881.17 
  400000        0.001          400    18000     1506.651   -232677.22     3505.304     -158.942    273907.43 
  450000        0.001          450    18000    1501.3475   -232719.33    3492.9651   -1294.8487    273974.97 
  500000        0.001          500    18000    1497.5805   -232640.45    3484.2008   -1289.1294    274285.83 
Loop time of 4694.89 on 52 procs for 500000 steps with 18000 atoms

Performance: 9.201 ns/day, 2.608 hours/ns, 106.499 timesteps/s
99.8% CPU use with 52 MPI tasks x 1 OpenMP threads

MPI task timing breakdown:
Section |  min time  |  avg time  |  max time  |%varavg| %total
---------------------------------------------------------------
Pair    | 2744.1     | 2785.3     | 2853       |  50.6 | 59.33
Bond    | 0.050355   | 0.074014   | 0.09547    |   3.9 |  0.00
Kspace  | 975.07     | 1047.4     | 1092.3     |  88.7 | 22.31
Neigh   | 64.942     | 67.198     | 71.558     |  24.1 |  1.43
Comm    | 134.52     | 139.08     | 143.58     |  20.7 |  2.96
Output  | 0.041378   | 0.041415   | 0.043062   |   0.1 |  0.00
Modify  | 575.54     | 607.79     | 634.97     |  59.1 | 12.95
Other   |            | 48.01      |            |       |  1.02

Nlocal:        346.154 ave         367 max         332 min
Histogram: 6 4 8 12 5 5 5 3 2 2
Nghost:        5442.42 ave        5565 max        5341 min
Histogram: 3 5 7 12 6 4 6 3 4 2
Neighs:       105776.0 ave      112732 max      101398 min
Histogram: 4 8 7 13 5 5 3 4 2 1

Total # of neighbors = 5500349
Ave neighs/atom = 305.57494
Ave special neighs/atom = 0.0000000
Neighbor list builds = 16862
Dangerous builds = 0
System init for write_data ...
PPPM initialization ...
  using 12-bit tables for long-range coulomb (../kspace.cpp:328)
  G vector (1/distance) = 0.29819369
  grid = 40 240 40
  stencil order = 5
  estimated absolute RMS force accuracy = 0.00016303783
  estimated relative force accuracy = 1.1322351e-05
  using single precision MKL FFT
  3d grid and FFT values/proc = 18225 7600
Total wall time: 1:18:24
