LAMMPS (29 Oct 2020)
OMP_NUM_THREADS environment is not set. Defaulting to 1 thread. (../comm.cpp:94)
  using 1 OpenMP thread(s) per MPI task
OMP_NUM_THREADS environment is not set. Defaulting to 1 thread. (../comm.cpp:94)
  using 1 OpenMP thread(s) per MPI task
Lattice spacing in x,y,z = 5.5788000 5.5788000 5.5788000
Created orthogonal box = (0.0000000 0.0000000 0.0000000) to (27.894000 334.72800 27.894000)
  2 by 13 by 2 MPI processor grid
Changing box ...
  triclinic box = (0.0000000 0.0000000 0.0000000) to (27.894000 334.72800 27.894000) with tilt (0.0000000 0.0000000 0.0000000)
Created 6000 atoms
  create_atoms CPU = 0.006 seconds
Lattice spacing in x,y,z = 5.5788000 5.5788000 5.5788000
Created 12000 atoms
  create_atoms CPU = 0.002 seconds
Lattice spacing in x,y,z = 5.5788000 5.5788000 5.5788000
Created 6000 atoms
  create_atoms CPU = 0.002 seconds
12000 atoms in group oxygen
6000 atoms in group uranium
3000 atoms in group octoxygen
3000 atoms in group octuran
Setting atom values ...
  30 settings made for type/ratio
Setting atom values ...
  15 settings made for type/ratio
Setting atom values ...
  2970 settings made for type/ratio
Setting atom values ...
  2985 settings made for type/ratio
30 atoms in group odel
15 atoms in group udel
2970 atoms in group octOdel
2985 atoms in group octUdel
WARNING: Ignoring 'compress yes' for molecular system (../delete_atoms.cpp:125)
Deleted 30 atoms, new total = 23970
WARNING: Ignoring 'compress yes' for molecular system (../delete_atoms.cpp:125)
Deleted 15 atoms, new total = 23955
WARNING: Ignoring 'compress yes' for molecular system (../delete_atoms.cpp:125)
Deleted 2970 atoms, new total = 20985
WARNING: Ignoring 'compress yes' for molecular system (../delete_atoms.cpp:125)
Deleted 2985 atoms, new total = 18000
12000 atoms in group 1
6000 atoms in group 2
Setting atom values ...
  12000 settings made for type
Setting atom values ...
  6000 settings made for type
Setting atom values ...
  12000 settings made for charge
Setting atom values ...
  6000 settings made for charge
PPPM initialization ...
  using 12-bit tables for long-range coulomb (../kspace.cpp:328)
  G vector (1/distance) = 0.29916851
  grid = 40 240 40
  stencil order = 5
  estimated absolute RMS force accuracy = 0.00015502622
  estimated relative force accuracy = 1.0765975e-05
  using single precision MKL FFT
  3d grid and FFT values/proc = 18225 7600
Neighbor list info ...
  update every 1 steps, delay 0 steps, check yes
  max neighbors/atom: 2000, page size: 100000
  master list distance cutoff = 13
  ghost atom cutoff = 13
  binsize = 6.5, bins = 5 52 5
  2 neighbor lists, perpetual/occasional/extra = 2 0 0
  (1) pair coul/long, perpetual
      attributes: half, newton on
      pair build: half/bin/newton/tri
      stencil: half/bin/3d/newton/tri
      bin: standard
  (2) pair eam/alloy, perpetual, copy from (1)
      attributes: half, newton on
      pair build: copy
      stencil: none
      bin: none
Setting up cg style minimization ...
  Unit style    : metal
  Current step  : 0
WARNING: Energy due to 3 extra global DOFs will be included in minimizer energies
Per MPI rank memory allocation (min/avg/max) = 10.44 | 10.47 | 10.49 Mbytes
Step Temp E_pair E_mol TotEng Press Volume 
       0            0   -234876.63            0   -234876.63    7945.6869    260443.57 
     183            0   -236179.05            0   -236179.05    63.749164    262391.09 
Loop time of 3.25962 on 52 procs for 183 steps with 18000 atoms

99.4% CPU use with 52 MPI tasks x 1 OpenMP threads

Minimization stats:
  Stopping criterion = linesearch alpha is zero
  Energy initial, next-to-last, final = 
     -234876.631450708  -236179.046650198  -236179.046650198
  Force two-norm initial, final = 2720.2903 44.470449
  Force max component initial, final = 1924.9946 31.206047
  Final line search alpha, max atom move = 4.1738634e-12 1.3024978e-10
  Iterations, force evaluations = 183 281

MPI task timing breakdown:
Section |  min time  |  avg time  |  max time  |%varavg| %total
---------------------------------------------------------------
Pair    | 1.8084     | 1.9178     | 2.0268     |   3.3 | 58.83
Bond    | 2.4007e-05 | 3.589e-05  | 5.3192e-05 |   0.0 |  0.00
Kspace  | 0.46256    | 0.57206    | 0.68202    |   6.0 | 17.55
Neigh   | 0.0068763  | 0.0079391  | 0.0090904  |   0.7 |  0.24
Comm    | 0.048045   | 0.049655   | 0.05159    |   0.4 |  1.52
Output  | 0          | 0          | 0          |   0.0 |  0.00
Modify  | 0          | 0          | 0          |   0.0 |  0.00
Other   |            | 0.7122     |            |       | 21.85

Nlocal:        346.154 ave         392 max         299 min
Histogram: 4 1 5 7 14 5 2 4 6 4
Nghost:        5656.98 ave        5808 max        5520 min
Histogram: 7 8 5 0 3 9 8 3 1 8
Neighs:       111712.0 ave      127431 max       96661 min
Histogram: 4 0 8 7 15 2 2 6 5 3

Total # of neighbors = 5809007
Ave neighs/atom = 322.72261
Ave special neighs/atom = 0.0000000
Neighbor list builds = 2
Dangerous builds = 0
Resetting atom IDs ...
PPPM initialization ...
  using 12-bit tables for long-range coulomb (../kspace.cpp:328)
  G vector (1/distance) = 0.29905291
  grid = 40 240 40
  stencil order = 5
  estimated absolute RMS force accuracy = 0.00015585195
  estimated relative force accuracy = 1.0823319e-05
  using single precision MKL FFT
  3d grid and FFT values/proc = 18225 7600
Finding 1-2 1-3 1-4 neighbors ...
  special bond factors lj:    0.0      0.0      0.0     
  special bond factors coul:  0.0      0.0      0.0     
     0 = max # of 1-2 neighbors
     0 = max # of 1-3 neighbors
     0 = max # of 1-4 neighbors
     1 = max # of special neighbors
  special bonds CPU = 0.002 seconds
PPPM initialization ...
  using 12-bit tables for long-range coulomb (../kspace.cpp:328)
  G vector (1/distance) = 0.29905291
  grid = 40 240 40
  stencil order = 5
  estimated absolute RMS force accuracy = 0.00015585195
  estimated relative force accuracy = 1.0823319e-05
  using single precision MKL FFT
  3d grid and FFT values/proc = 18225 7600
Setting up Verlet run ...
  Unit style    : metal
  Current step  : 0
  Time step     : 0.001
Per MPI rank memory allocation (min/avg/max) = 10.59 | 10.62 | 10.64 Mbytes
Step Temp Time Dt Atoms TotEng KinEng PotEng Press v_latt 
       0          600            0        0.001    18000   -234783.12     1395.932   -236179.05    5745.9228    5.5926754 
   50000    600.37127           50        0.001    18000   -233689.36    1396.7958   -235086.15    14.793467    5.6186734 
  100000    601.81932          100        0.001    18000   -233705.31    1400.1648   -235105.47   -336.49362    5.6189267 
Loop time of 872.858 on 52 procs for 100000 steps with 18000 atoms

Performance: 9.899 ns/day, 2.425 hours/ns, 114.566 timesteps/s
99.8% CPU use with 52 MPI tasks x 1 OpenMP threads

MPI task timing breakdown:
Section |  min time  |  avg time  |  max time  |%varavg| %total
---------------------------------------------------------------
Pair    | 553.05     | 561.76     | 575.17     |  25.0 | 64.36
Bond    | 0.0070697  | 0.014245   | 0.020174   |   1.9 |  0.00
Kspace  | 150.18     | 163.9      | 172.39     |  46.6 | 18.78
Neigh   | 2.6627     | 2.7662     | 2.9289     |   4.5 |  0.32
Comm    | 16.552     | 17.281     | 17.746     |   6.9 |  1.98
Output  | 0.011106   | 0.011115   | 0.011439   |   0.0 |  0.00
Modify  | 111.98     | 118.54     | 123.27     |  26.6 | 13.58
Other   |            | 8.581      |            |       |  0.98

Nlocal:        346.154 ave         366 max         323 min
Histogram: 1 1 7 9 7 6 7 5 3 6
Nghost:        5623.29 ave        5704 max        5528 min
Histogram: 4 9 7 3 2 3 0 2 10 12
Neighs:       110497.0 ave      117181 max      102389 min
Histogram: 1 1 7 8 6 6 7 9 3 4

Total # of neighbors = 5745863
Ave neighs/atom = 319.21461
Ave special neighs/atom = 0.0000000
Neighbor list builds = 682
Dangerous builds = 0
System init for write_data ...
PPPM initialization ...
  using 12-bit tables for long-range coulomb (../kspace.cpp:328)
  G vector (1/distance) = 0.29877162
  grid = 40 240 40
  stencil order = 5
  estimated absolute RMS force accuracy = 0.00015823389
  estimated relative force accuracy = 1.0988735e-05
  using single precision MKL FFT
  3d grid and FFT values/proc = 18225 7600
Total wall time: 0:14:36
