LAMMPS (29 Oct 2020)
OMP_NUM_THREADS environment is not set. Defaulting to 1 thread. (../comm.cpp:94)
  using 1 OpenMP thread(s) per MPI task
#---------------------------------------
#
# This script is used to calculate the thermal conuctivity of UO2 using Muller-Plathe method
# By Ziqiang Wang on 03/18/2022 on Jilin university
#
#---------------------------------------

variable     Nevery    equal   50
variable     T         equal   900

clear
OMP_NUM_THREADS environment is not set. Defaulting to 1 thread. (../comm.cpp:94)
  using 1 OpenMP thread(s) per MPI task
units          metal
boundary       p p p
atom_style     full

read_data vac_0_relaxed.dat
Reading data file ...
  orthogonal box = (-0.38966413 -3.6187975 -0.40056334) to (27.729664 249.67880 27.740563)
  2 by 13 by 2 MPI processor grid
  reading atoms ...
  13500 atoms
  reading velocities ...
  13500 velocities
Finding 1-2 1-3 1-4 neighbors ...
  special bond factors lj:    0.0      0.0      0.0     
  special bond factors coul:  0.0      0.0      0.0     
     0 = max # of 1-2 neighbors
     0 = max # of 1-3 neighbors
     0 = max # of 1-4 neighbors
     1 = max # of special neighbors
  special bonds CPU = 0.003 seconds
  read_data CPU = 0.080 seconds

set           type     1    charge     -1.1104
Setting atom values ...
  9000 settings made for charge
set           type     2    charge      2.2208
Setting atom values ...
  4500 settings made for charge

kspace_style    pppm   1.0e-05
pair_style      hybrid/overlay  coul/long  11.0  eam/alloy
pair_coeff      * * coul/long
pair_coeff      * * eam/alloy CeThUNpPuAmCmO.eam.alloy O Th Th O
newton          on
neighbor        0.3 bin
neigh_modify    delay 0 check yes every 1

#The first equilation
velocity        all create $T 10002 mom yes rot yes dist gaussian
velocity        all create 900 10002 mom yes rot yes dist gaussian
fix             nvt  all  nvt  temp  $T $T  0.1
fix             nvt  all  nvt  temp  900 $T  0.1
fix             nvt  all  nvt  temp  900 900  0.1

run             100000
PPPM initialization ...
  using 12-bit tables for long-range coulomb (../kspace.cpp:328)
  G vector (1/distance) = 0.29981091
  grid = 40 192 40
  stencil order = 5
  estimated absolute RMS force accuracy = 0.00014460861
  estimated relative force accuracy = 1.0042512e-05
  using single precision MKL FFT
  3d grid and FFT values/proc = 12500 6000
Neighbor list info ...
  update every 1 steps, delay 0 steps, check yes
  max neighbors/atom: 2000, page size: 100000
  master list distance cutoff = 11.3
  ghost atom cutoff = 11.3
  binsize = 5.65, bins = 5 45 5
  2 neighbor lists, perpetual/occasional/extra = 2 0 0
  (1) pair coul/long, perpetual
      attributes: half, newton on
      pair build: half/bin/newton
      stencil: half/bin/3d/newton
      bin: standard
  (2) pair eam/alloy, perpetual, copy from (1)
      attributes: half, newton on
      pair build: copy
      stencil: none
      bin: none
Per MPI rank memory allocation (min/avg/max) = 7.951 | 7.974 | 7.984 Mbytes
Step Temp E_pair E_mol TotEng Press 
       0          900   -176045.58            0   -174475.18   -112.96522 
  100000    894.10449   -176060.43            0   -174500.32   -523.98497 
Loop time of 508.823 on 52 procs for 100000 steps with 13500 atoms

Performance: 16.980 ns/day, 1.413 hours/ns, 196.532 timesteps/s
99.8% CPU use with 52 MPI tasks x 1 OpenMP threads

MPI task timing breakdown:
Section |  min time  |  avg time  |  max time  |%varavg| %total
---------------------------------------------------------------
Pair    | 340.9      | 347.49     | 353.59     |  14.1 | 68.29
Bond    | 0.006183   | 0.00859    | 0.017735   |   2.0 |  0.00
Kspace  | 107.23     | 112.09     | 119        |  30.7 | 22.03
Neigh   | 31.854     | 32.84      | 34         |   9.1 |  6.45
Comm    | 12.234     | 12.933     | 14.485     |  16.8 |  2.54
Output  | 5.1016e-05 | 5.6191e-05 | 0.00025501 |   0.0 |  0.00
Modify  | 1.3714     | 2.4178     | 3.673      |  46.9 |  0.48
Other   |            | 1.041      |            |       |  0.20

Nlocal:        259.615 ave         275 max         241 min
Histogram: 1 1 3 6 9 9 11 9 0 3
Nghost:        3608.37 ave        3632 max        3562 min
Histogram: 3 1 0 2 2 4 14 11 11 4
Neighs:        52425.6 ave       56797 max       47839 min
Histogram: 1 0 4 10 9 12 13 0 1 2

Total # of neighbors = 2726133
Ave neighs/atom = 201.93578
Ave special neighs/atom = 0.0000000
Neighbor list builds = 19516
Dangerous builds = 0
unfix           nvt
reset_timestep  0

# the second run
fix             1 all nve

group           oxygen type 1
9000 atoms in group oxygen
fix             2 oxygen thermal/conductivity ${Nevery} y 20
fix             2 oxygen thermal/conductivity 50 y 20

compute         ke all ke/atom
variable        temp atom c_ke/1.5
compute         layers all chunk/atom bin/1d y lower 0.05 units reduced
fix             3      all ave/chunk  2000 50 100000 layers v_temp file profile_${T}K.mp
fix             3      all ave/chunk  2000 50 100000 layers v_temp file profile_900K.mp

variable        Tdiff    equal     f_3[11][3]-f_3[1][3]
variable        deltaT   equal     v_Tdiff*1.5/0.0001292

timestep        0.001
thermo_style    custom step f_2 temp v_Tdiff v_deltaT
thermo          100000

run             1500000
PPPM initialization ...
  using 12-bit tables for long-range coulomb (../kspace.cpp:328)
  G vector (1/distance) = 0.29981091
  grid = 40 192 40
  stencil order = 5
  estimated absolute RMS force accuracy = 0.00014460861
  estimated relative force accuracy = 1.0042512e-05
  using single precision MKL FFT
  3d grid and FFT values/proc = 12500 6000
Per MPI rank memory allocation (min/avg/max) = 8.202 | 8.225 | 8.234 Mbytes
Step f_2 Temp v_Tdiff v_deltaT 
       0            0    894.10449            0            0 
  100000    1016.9423    899.23765  0.025301491    293.74796 
  200000    2023.6401    891.10318  0.025191126    292.46663 
  300000    3039.0248    899.55156  0.024506581    284.51913 
  400000    4044.9054     897.5794  0.025736931    298.80338 
  500000    5044.3287     896.2693  0.026638564    309.27125 
  600000     6045.564    894.40538  0.025784539    299.35611 
  700000    7048.7471    903.46887  0.026685369    309.81466 
  800000     8059.558     895.4489  0.025994113    301.78923 
  900000    9069.8461    890.92481  0.026566604    308.43581 
 1000000    10074.565    898.35066  0.026404425    306.55292 
 1100000    11086.502    900.46938   0.02592928    301.03653 
 1200000    12102.009    892.55054  0.025463865    295.63311 
 1300000    13120.278    902.89632  0.025999546    301.85231 
 1400000    14119.729    897.97538  0.027082063    314.42024 
 1500000    15133.849    899.74046  0.026800457    311.15081 
Loop time of 7550.11 on 52 procs for 1500000 steps with 13500 atoms

Performance: 17.165 ns/day, 1.398 hours/ns, 198.673 timesteps/s
99.9% CPU use with 52 MPI tasks x 1 OpenMP threads

MPI task timing breakdown:
Section |  min time  |  avg time  |  max time  |%varavg| %total
---------------------------------------------------------------
Pair    | 5050.6     | 5142.5     | 5214.5     |  50.0 | 68.11
Bond    | 0.088194   | 0.1269     | 0.21204    |   7.2 |  0.00
Kspace  | 1588.3     | 1675.5     | 1774.3     | 111.0 | 22.19
Neigh   | 481.16     | 498.75     | 514.52     |  36.3 |  6.61
Comm    | 183.41     | 193.4      | 216.6      |  60.9 |  2.56
Output  | 0.001548   | 0.001644   | 0.0035     |   0.6 |  0.00
Modify  | 6.0074     | 6.6414     | 7.2397     |  10.3 |  0.09
Other   |            | 33.18      |            |       |  0.44

Nlocal:        259.615 ave         273 max         241 min
Histogram: 3 1 1 0 6 16 13 7 3 2
Nghost:        3606.29 ave        3640 max        3501 min
Histogram: 2 2 0 0 0 2 6 11 20 9
Neighs:        52408.2 ave       55094 max       48545 min
Histogram: 2 2 1 3 6 8 17 5 6 2

Total # of neighbors = 2725229
Ave neighs/atom = 201.86881
Ave special neighs/atom = 0.0000000
Neighbor list builds = 296873
Dangerous builds = 0

Total wall time: 2:14:19
