LAMMPS data file via write_data, version 29 Oct 2020, timestep = 100000

18000 atoms
4 atom types

-0.21393208891932153 28.10793208891943 xlo xhi
-2.6062860463631874 337.33428604635145 ylo yhi
-0.1905960512774206 28.084596051277803 zlo zhi
0.0 0.0 0.0 xy xz yz

Masses

1 15.9994
2 232.0381
3 15.9994
4 232.0381

Atoms # full

350 0 2 2.2208 11.340880341617321 14.429070889660922 -0.0995775836873768 0 0 0
35 0 2 2.2208 5.490707614426841 14.689037074417309 0.2598834471482163 0 0 0
36 0 2 2.2208 8.536716634484584 17.422636522194235 0.2386628422047099 0 0 0
4 0 1 -1.1104 6.939388643354477 21.456284417075935 12.73658731548412 0 0 0
5 0 1 -1.1104 4.018777931224302 21.537324126840286 12.689691151258302 0 0 0
6 0 1 -1.1104 1.0818944306736158 21.709351928777522 12.525555976252406 0 0 0
684 0 2 2.2208 11.290125494199724 19.901629548879104 -0.1019609472175852 0 0 0
8 0 2 2.2208 5.487672844891329 -0.06283462004975911 2.639281598663331 0 0 0
9 0 1 -1.1104 12.765345192062151 18.385590979111022 12.656744246180962 0 0 0
10 0 2 2.2208 11.268975124544852 -0.06653204246073541 2.6168372692798707 0 0 0
313 0 1 -1.1104 9.769825995565126 1.2027371246814522 12.903015367790957 0 0 0
239 0 1 -1.1104 2.5183531134524664 2.41165968521815 10.286697773989223 0 0 0
13 0 2 2.2208 2.7148078416913717 2.6742929604286183 2.6959161480118996 0 0 0
307 0 1 -1.1104 4.838203459646476 -2.230161549081668 8.239096280348688 0 0 0
15 0 1 -1.1104 12.285399409296318 15.402125853093452 12.926906241384204 0 0 0
16 0 1 -1.1104 9.898596000187778 18.4827020485417 12.481195263609978 0 0 0
17 0 2 2.2208 8.597831244092701 2.4841263790443002 2.4982042275698495 0 0 0
18 0 2 2.2208 5.301987699335915 5.6002011256393915 2.4811814929218237 0 0 0
19 0 1 -1.1104 7.082500238298131 18.41268476129256 12.726705450302598 0 0 0
20 0 2 2.2208 11.987334638149251 5.410031092092697 2.577438529108298 0 0 0
21 0 4 2.2208 2.5318790653884355 17.31463589745602 2.6375141233204253 0 0 0
415 0 3 -1.1104 2.664533625297549 18.958768319476317 0.6793601256168866 0 0 0
23 0 2 2.2208 2.613180628582875 8.47801421130405 2.37128610549207 0 0 0
24 0 4 2.2208 8.851710737650567 6.1199246015579005 2.507573586040582 0 0 0
648 0 1 -1.1104 8.386049972938954 7.536794354544381 0.7206028993314186 0 0 1
9642 0 2 2.2208 0.06877548447948778 14.065406475715724 0.20422726498902924 0 0 0
27 0 2 2.2208 8.517619803437203 9.34152978871289 2.2870080336371665 0 0 0
28 0 2 2.2208 5.565856105344627 11.569070239286118 2.8009112056913095 0 0 0
29 0 1 -1.1104 7.065191682833558 15.654662733346912 12.505905140835635 0 0 0
30 0 2 2.2208 11.41221166343813 11.577435928031552 2.634044784115118 0 0 0
31 0 3 -1.1104 3.9521748133330297 16.018519238833505 12.664606479546205 0 0 0
32 0 1 -1.1104 4.097709568467075 18.682897948777438 12.593261167055495 0 0 0
33 0 2 2.2208 2.65257107952935 13.737339957054667 2.7703751363429694 0 0 0
34 0 3 -1.1104 3.963567515623969 5.557658229937689 9.707903029425209 0 0 0
354 0 2 2.2208 7.923818984073378 14.056925771250368 13.838999908393584 0 0 0
344 0 2 2.2208 7.887941721439368 2.9146233988206065 13.87852653639173 0 0 0
37 0 2 2.2208 8.498697079780758 14.3432171395291 3.0398315319175095 0 0 0
38 0 2 2.2208 5.793751479731695 17.123110782943435 2.7000259179924417 0 0 0
25 0 2 2.2208 5.599330325573875 8.193486313634613 -0.057388442233667875 0 0 0
40 0 2 2.2208 11.457254432508348 17.053929214676486 2.7269960215887727 0 0 0
41 0 1 -1.1104 1.3776937714338293 18.719711077811585 12.725452045672597 0 0 0
347 0 2 2.2208 2.519673655018916 8.632964114536211 13.798480586645637 0 0 0
43 0 2 2.2208 2.545993920078739 20.48767385724123 2.7514722050169054 0 0 0
44 0 1 -1.1104 3.744387396120355 13.25119175376438 9.861338401511436 0 0 0
315 0 1 -1.1104 12.242812846982691 1.8262661074205953 12.423823635481703 0 0 0
46 0 1 -1.1104 1.0044528946068287 15.901999412296318 12.67484548758064 0 0 0
47 0 2 2.2208 8.237569114033054 20.045749463048338 3.00242349913029 0 0 0
48 0 2 2.2208 5.277013351923922 22.621160487984085 2.8205872809233186 0 0 0
49 0 1 -1.1104 12.576403184036838 12.881741832968135 12.70710861989664 0 0 0
50 0 2 2.2208 11.297465641248742 22.52770814661062 2.9312380808479155 0 0 0
42 0 2 2.2208 2.8099490827309723 22.8873043127892 0.159682332752518 0 0 0
52 0 2 2.2208 2.4486530924636716 -0.25062481112255136 5.048584159416933 0 0 0
192 0 1 -1.1104 0.735084288191254 17.37727594345885 4.915902370800411 0 0 0
54 0 4 2.2208 2.539647659247831 1.25360486529963 8.460076405792474 0 0 0
219 0 1 -1.1104 2.275935058673407 -2.4066481136594886 5.925609279310262 0 0 0
56 0 2 2.2208 8.271221595196971 -0.19812584890451504 5.254622151847896 0 0 0
891 0 1 -1.1104 1.1894861384541975 21.62509422728609 4.289663460050482 0 0 0
58 0 2 2.2208 5.764624782331372 -0.21468275533759984 8.30332263131047 0 0 0
216 0 1 -1.1104 0.5162981568003652 -2.2172237530872017 8.31999214017681 0 0 0
60 0 2 2.2208 11.254138165130444 -0.1306640074860222 8.313052968980502 0 0 0
61 0 1 -1.1104 12.669677295905778 10.084060486952641 12.422399443466006 0 0 0
62 0 2 2.2208 2.413678750208252 5.7595655238857715 5.232061440954141 0 0 0
63 0 2 2.2208 2.5294383040524067 4.334006214110867 8.351595720464154 0 0 0
64 0 3 -1.1104 12.679370601227705 1.307085994532862 3.958565564803973 0 0 0
65 0 2 2.2208 5.051184001208372 2.586189213390521 5.825594490027503 0 0 0
66 0 2 2.2208 8.308895046759789 5.812241791829853 5.779007307088468 0 0 0
67 0 2 2.2208 8.30726150470232 2.805800420102602 8.104096638858621 0 0 0
68 0 2 2.2208 5.745180134853471 5.578688961379892 8.34596669342907 0 0 0
69 0 2 2.2208 10.939928548805321 2.828095716289142 5.265429685444561 0 0 0
70 0 2 2.2208 11.171327609444212 5.656439767992267 8.17507296805353 0 0 0
9147 0 1 -1.1104 1.1084366488270054 21.575695519335664 1.1507356222106286 1 0 0
72 0 2 2.2208 2.5353809515380545 11.350467899127676 5.405889158617259 0 0 0
73 0 2 2.2208 4.217332976720225 8.532654049426657 6.3164780893426515 0 0 0
74 0 3 -1.1104 4.124058236048504 21.59235598248941 4.410956526272395 0 0 0
75 0 2 2.2208 6.532861150017552 8.434787872563101 4.7207743833024916 0 0 0
76 0 2 2.2208 8.363178888890536 11.472392508781342 5.604613352203503 0 0 0
77 0 2 2.2208 7.506488407877421 8.599100411286306 8.370145395235442 0 0 0
78 0 2 2.2208 5.037573655038122 11.577425455475483 8.431928126604564 0 0 0
79 0 2 2.2208 11.08265696870606 8.468932602648309 4.706615992118469 0 0 0
80 0 2 2.2208 11.176518464648352 11.892521325420036 8.69235729295676 0 0 0
81 0 4 2.2208 2.1554229962503184 9.159803730339975 8.654641636421044 0 0 0
82 0 2 2.2208 2.576794700862799 17.17284406390031 6.092008457284279 0 0 0
83 0 2 2.2208 2.4736674205865934 14.470840401520961 8.317457396589043 0 0 0
8945 0 2 2.2208 -0.13041017799703253 23.279118265013736 8.335432445659043 0 0 0
85 0 2 2.2208 5.340187067482483 14.630838403862926 5.481595215016471 0 0 0
86 0 2 2.2208 8.372301257965082 17.14662762841289 5.543959608248972 0 0 0
87 0 2 2.2208 7.985647326420467 14.33830342371525 8.176970112766698 0 0 0
88 0 2 2.2208 5.4302348379452 17.318415718533284 8.624559735231726 0 0 0
89 0 2 2.2208 11.265565984962763 14.372362379615852 5.51023175509023 0 0 0
90 0 2 2.2208 10.982815423552545 17.15849893489849 8.308120885717761 0 0 0
91 0 3 -1.1104 9.896411946130039 21.237286511090954 12.673597213685033 0 0 0
92 0 2 2.2208 2.587039622509545 23.109087585091878 5.34579821286433 0 0 0
93 0 2 2.2208 2.773863306936614 20.177020381655904 8.51252976779457 0 0 0
333 0 1 -1.1104 9.936724330742269 13.205817059256525 12.930023974598113 0 0 0
95 0 2 2.2208 5.165866166004735 19.902425029293227 5.630447373572262 0 0 0
96 0 2 2.2208 8.261233659070085 22.674178036672718 5.645301773379458 0 0 0
97 0 2 2.2208 8.23227172502091 19.994559374345254 8.425951550900185 0 0 0
98 0 2 2.2208 5.554123270234305 22.866521485073697 8.69087741567303 0 0 0
99 0 2 2.2208 11.063839638640713 19.97478759354826 5.65194724997681 0 0 0
100 0 2 2.2208 11.123375525077593 22.72620272508023 8.333807243203895 0 0 0
101 0 3 -1.1104 9.964826332960433 12.999553936287866 4.259905505601292 0 0 0
102 0 2 2.2208 2.7190348488136826 0.11413429153513986 11.73210858879865 0 0 0
493 0 1 -1.1104 3.829398015307799 13.026231214742893 12.61507564878216 0 0 0
104 0 2 2.2208 8.342605956172799 -0.020765752711937535 11.109880704540952 0 0 0
8941 0 2 2.2208 -0.007352644035798432 2.9287727886291868 11.129207287939247 0 0 0
106 0 4 2.2208 10.74600942666027 8.859897674498024 7.8353260601950865 0 0 0
107 0 2 2.2208 2.553821811923368 6.124923007701989 11.425156745441138 0 0 0
108 0 2 2.2208 5.24835742765618 2.808993108561008 10.937846067140871 0 0 0
109 0 2 2.2208 8.307631428421708 5.718894787778484 10.850703964107838 0 0 0
110 0 2 2.2208 11.131013581266766 2.9397508629380797 10.721743516331047 0 0 0
111 0 1 -1.1104 12.61652715496279 21.14896157447573 12.599511244669648 0 0 0
112 0 2 2.2208 2.4606940460243125 11.806125622413992 11.417984185876469 0 0 0
113 0 2 2.2208 4.947736303056002 8.850899538009203 11.010287661729276 0 0 0
114 0 2 2.2208 7.872743716775848 11.44701873786332 11.033872215030994 0 0 0
115 0 2 2.2208 11.275860730755184 8.64785361114665 11.176745628522031 0 0 0
236 0 1 -1.1104 2.7489329844487567 2.9745663105039566 6.26909795726797 0 0 0
117 0 2 2.2208 2.5429448195593496 17.245109094181945 11.170422621367921 0 0 0
118 0 2 2.2208 5.257152960434432 14.552100639653768 11.153652377609292 0 0 0
119 0 2 2.2208 8.39346897134076 17.01957342870338 11.345003223554961 0 0 0
120 0 2 2.2208 11.068765398979334 14.44182513284146 11.203562797923148 0 0 0
382 0 3 -1.1104 1.2620939672301734 -1.6203648170553928 12.442198329470342 0 0 0
122 0 2 2.2208 2.565146780809051 23.09709499686651 11.210437303773224 0 0 0
123 0 2 2.2208 5.34108698072704 20.14554785593067 11.43949647985542 0 0 0
124 0 2 2.2208 8.279046130397898 22.730892794230382 11.27968466970337 0 0 0
125 0 2 2.2208 11.252712082119745 19.781494433070765 11.247149296339888 0 0 0
225 0 1 -1.1104 9.89818595372796 -1.6013260069162636 6.64776120643303 0 0 0
127 0 1 -1.1104 3.8349635465058616 -1.4672077471723348 1.061479811917416 0 0 0
351 0 2 2.2208 11.04370227335165 11.137399879102814 13.779213035484279 0 0 0
129 0 1 -1.1104 4.3598341637331135 -1.4314907255950442 4.400954043129062 0 0 0
130 0 1 -1.1104 1.336338602953542 1.4056271050293663 0.9553441464648135 0 0 0
131 0 1 -1.1104 4.03470322348732 1.4170676124951267 1.2375905123235258 0 0 0
132 0 1 -1.1104 1.073485889043176 1.624434921520625 4.165782647374557 0 0 0
133 0 1 -1.1104 4.0411246567096155 1.317669634968312 4.219811382787687 0 0 0
134 0 1 -1.1104 6.714249559024331 -1.345317892887105 0.9993033261862356 0 0 0
135 0 1 -1.1104 12.347308454755153 -1.3542703863345593 1.1274430031725668 0 0 0
136 0 1 -1.1104 6.832415329713825 -1.6913351989452463 4.02438129376547 0 0 0
137 0 1 -1.1104 9.726998397825664 -1.6457409851202252 3.813348124969519 0 0 0
138 0 1 -1.1104 7.205304892537641 1.6147418770151374 1.0661881676897098 0 0 0
139 0 1 -1.1104 9.876634754449679 1.1396068181017494 1.1176683558942915 0 0 0
140 0 1 -1.1104 6.96957525808522 1.2844701589567291 3.804365967314141 0 0 0
141 0 1 -1.1104 9.766753026919927 1.0486521505930693 4.093666816226559 0 0 0
465 0 1 -1.1104 4.466831343292919 -1.2789952665609292 12.373178313270579 0 0 0
143 0 1 -1.1104 12.581090018588375 -1.5371271467358518 4.159766841044949 0 0 0
144 0 1 -1.1104 12.812098397284963 1.2518317844089326 1.3043919672190738 0 0 0
145 0 1 -1.1104 10.64027529894878 3.5968665265036486 2.246109307392578 0 0 0
146 0 1 -1.1104 1.4353136307768406 4.2166595226067605 1.2560734392706558 0 0 0
147 0 1 -1.1104 4.271739910822373 3.9760240737743575 1.2625173422166736 0 0 0
148 0 1 -1.1104 1.3921584573950345 4.2145189456549454 3.883878121857403 0 0 0
149 0 1 -1.1104 4.359959014449528 4.063709664030344 3.8567862308631904 0 0 0
150 0 1 -1.1104 1.1000483655592979 6.931507667143271 1.0130086501184052 0 0 0
151 0 1 -1.1104 3.503660557667962 6.623309077256082 1.4741562786519775 0 0 0
152 0 1 -1.1104 1.1679703807238642 6.975851649549118 3.855211227360642 0 0 0
153 0 1 -1.1104 4.092633465119513 7.278945393844212 4.29184087896608 0 0 0
154 0 1 -1.1104 10.27827217939304 5.92857026386021 4.204039348837959 0 0 0
155 0 1 -1.1104 7.433700157345552 4.4386674957498125 1.572079502502291 0 0 0
156 0 1 -1.1104 6.915715585719323 6.051998617337058 3.938342294562137 0 0 0
157 0 1 -1.1104 8.907238429350826 3.836489374264429 4.251502767978162 0 0 0
345 0 2 2.2208 5.453961995321489 19.731772583188793 -0.14826115278382823 0 0 0
159 0 1 -1.1104 10.413844702730817 5.633966471107242 0.8119261453060357 0 0 0
160 0 1 -1.1104 6.291806959255662 8.025943025808004 2.3581519574977197 0 0 0
161 0 1 -1.1104 8.642810428909463 7.743533609940141 4.18416323444355 0 0 0
162 0 1 -1.1104 13.078066866203107 4.158260373499153 1.1195105722612506 0 0 0
163 0 1 -1.1104 12.65423177155118 3.9129933279689406 4.406631941307498 0 0 0
164 0 1 -1.1104 13.219827628954997 6.803271344928158 1.3775734054790885 0 0 0
165 0 1 -1.1104 12.80124929659939 6.956493184549349 4.062260157983894 0 0 0
166 0 1 -1.1104 1.1581628921073885 9.796242775031791 0.9334422501899138 0 0 0
167 0 1 -1.1104 4.107183104011321 9.838443046408255 1.2509003617387782 0 0 0
168 0 1 -1.1104 1.4728321411317653 9.672797605019133 4.04427665578264 0 0 0
169 0 1 -1.1104 4.302138501525621 10.038216526206579 4.364007163606722 0 0 0
170 0 1 -1.1104 1.2856229118434406 12.322590194131918 1.2874716276006248 0 0 0
171 0 1 -1.1104 4.2484709372910725 12.613536299234402 1.29551517243359 0 0 0
172 0 1 -1.1104 1.23512546253566 12.429426248595387 3.9871235285947755 0 0 0
173 0 1 -1.1104 3.932317606279252 12.639820020714644 4.053487721288703 0 0 0
174 0 1 -1.1104 6.886302100435962 10.605263033503775 1.0847558649270337 0 0 0
175 0 1 -1.1104 10.519014374239616 8.013499910433397 2.344199892025941 0 0 0
176 0 1 -1.1104 7.1785795927075755 10.538654770171762 3.7730330128536127 0 0 0
177 0 1 -1.1104 10.167275077871928 7.139212165856809 6.600816742041164 0 0 0
178 0 1 -1.1104 7.043845298399757 13.285838989351172 1.3738883871328402 0 0 0
179 0 1 -1.1104 10.055819672392355 12.944629633445112 1.4733372887746041 0 0 0
180 0 1 -1.1104 6.947203792802295 13.211540121244775 4.390791328819765 0 0 0
181 0 1 -1.1104 9.775387145710315 10.345383208863847 3.9726916740198863 0 0 0
182 0 1 -1.1104 12.871159759087552 10.038732590554492 1.3788028469574567 0 0 0
183 0 1 -1.1104 12.773922203329937 9.882151005035597 4.1450598528480835 0 0 0
184 0 1 -1.1104 12.80696557057741 12.907124665298518 1.0211830504245578 0 0 0
185 0 1 -1.1104 12.802724732853758 12.876989667654913 4.066470641780885 0 0 0
356 0 2 2.2208 11.190465044720513 2.8653163577212437 -0.08654213925949993 0 0 0
187 0 1 -1.1104 4.479064969787763 15.311629235490054 2.687525992027989 0 0 0
188 0 1 -1.1104 0.5682700869650192 14.856841633756884 2.918785891523138 0 0 0
189 0 1 -1.1104 2.869717146123751 15.31415404202349 4.501394206534782 0 0 0
190 0 1 -1.1104 0.8418264836778399 16.787271835142278 1.152964289366659 0 0 0
487 0 1 -1.1104 10.272466723198907 8.562388128682649 13.001108181939372 0 0 0
45 0 2 2.2208 8.37044925012285 22.805099574752916 -0.012311126187637378 0 0 0
193 0 1 -1.1104 4.775683397194403 17.19651921356791 4.874183861685662 0 0 0
194 0 1 -1.1104 7.347645896355911 15.966569005915145 1.2966213913581113 0 0 0
195 0 1 -1.1104 10.041553424094857 15.956701545731201 1.2482894277506558 0 0 0
196 0 1 -1.1104 7.084905009292075 15.804335837630203 4.180599249591624 0 0 0
197 0 1 -1.1104 10.010075672017818 15.749956425709463 4.029949178656506 0 0 0
198 0 1 -1.1104 6.977302560631078 18.8638053592985 1.4333086364885517 0 0 0
199 0 1 -1.1104 9.793384615279798 18.786064759233867 1.3660999482349054 0 0 0
200 0 1 -1.1104 6.963051712146974 18.629193767182947 4.3267903874004086 0 0 0
201 0 1 -1.1104 10.029032502314037 18.358413181277015 4.207698817541382 0 0 0
202 0 1 -1.1104 12.90272331655216 15.679770924190029 1.2858457916652921 0 0 0
203 0 1 -1.1104 12.849334228735207 15.59682748898923 4.1815727226375 0 0 0
204 0 1 -1.1104 12.732460768152832 18.38860880823989 1.2439213557534623 0 0 0
205 0 1 -1.1104 12.727725055227923 18.396436889064226 4.173719840025209 0 0 0
206 0 1 -1.1104 0.7911496034541303 19.023293848166386 2.6773418654237036 0 0 0
207 0 1 -1.1104 4.3048114312941905 21.318252914756847 0.9645713852366685 0 0 0
208 0 1 -1.1104 2.3414172162264455 19.199137731309765 4.918716586840187 0 0 0
209 0 1 -1.1104 4.231030730802193 18.911668671564403 3.0668665923471075 0 0 0
210 0 1 -1.1104 6.901163564459938 21.63395382719512 1.7708446630421526 0 0 0
211 0 1 -1.1104 9.859461293384953 21.468851987570183 1.5525144131963657 0 0 0
212 0 1 -1.1104 6.929211221991342 21.16824075215933 4.60507426942256 0 0 0
213 0 1 -1.1104 9.68138427014212 21.469733228886426 4.389230013023879 0 0 0
214 0 1 -1.1104 12.529197525920827 21.42836353827782 1.3849661203875354 0 0 0
215 0 1 -1.1104 12.628689287993994 21.15263863317408 4.117642619554321 0 0 0
8958 0 2 2.2208 -0.1994798383806092 8.443222042978073 5.7046997548920375 0 0 0
9646 0 2 2.2208 -0.04117140652510593 19.95838038995645 0.03697313245194651 0 0 0
26 0 1 -1.1104 9.610410845505498 15.788953131239628 13.331070631573507 0 0 0
8977 0 2 2.2208 -0.13074371670254326 5.589777216210334 2.5198966838607095 0 0 0
220 0 1 -1.1104 0.9486578994197672 0.6405909123327743 6.769011286873116 0 0 0
221 0 1 -1.1104 4.157489663625582 0.6903788231787069 6.936251672285525 0 0 0
222 0 1 -1.1104 0.9437534516486523 0.13874859672885523 10.047073695174864 0 0 0
223 0 1 -1.1104 4.211612303109713 0.4935287820720689 9.960601302178203 0 0 0
224 0 1 -1.1104 7.012234645429577 -1.320160395214297 6.879420915101227 0 0 0
217 0 1 -1.1104 0.43734918148091817 -1.5783219527465173 4.091956746139569 0 0 0
226 0 1 -1.1104 7.064470496490913 -1.7082232457125144 9.797312495472212 0 0 0
227 0 1 -1.1104 9.72957423333044 -1.4263119598139367 9.728611720416815 0 0 0
228 0 1 -1.1104 6.784493075080638 1.5418544579783964 6.847700222321873 0 0 0
229 0 1 -1.1104 9.689134307839447 1.4338218033840762 6.844545821641225 0 0 0
230 0 1 -1.1104 6.930530199230725 1.361371088586381 9.732580623416604 0 0 0
231 0 1 -1.1104 9.667259699473185 1.4258889911930988 9.789098479667256 0 0 0
232 0 1 -1.1104 12.584474616665387 -1.2208681897493778 6.728696342714152 0 0 0
233 0 1 -1.1104 12.321329539371872 -1.6123246057317098 9.57958580489544 0 0 0
234 0 1 -1.1104 12.660229808359361 1.604554319964907 6.995584225985 0 0 0
235 0 1 -1.1104 12.460182052026166 1.4048061636580909 9.650517101842754 0 0 0
8981 0 2 2.2208 -0.03877159200715732 0.3145852362689762 2.733806896751154 0 0 0
237 0 1 -1.1104 4.47293366987766 2.9372623854503197 8.342835449141988 0 0 0
238 0 1 -1.1104 0.5537603424585469 2.932348617124585 8.261509495420585 0 0 0
9274 0 3 -1.1104 0.8880156713909767 5.035674916869245 6.67067364757777 0 0 0
240 0 1 -1.1104 1.9541482945293 7.794028040606833 6.698962020956692 0 0 0
241 0 1 -1.1104 3.9180223203234466 5.685147033081074 6.906265927881815 0 0 0
242 0 1 -1.1104 1.2101079563899728 4.4877308316105955 12.57281483048775 0 0 0
243 0 1 -1.1104 0.6365836102066788 7.392114547256926 9.10191749109471 0 0 0
244 0 1 -1.1104 6.64911177598996 4.05503584594545 6.675415915258119 0 0 0
245 0 1 -1.1104 9.667772419868454 4.203350047072399 6.824857594241538 0 0 0
246 0 1 -1.1104 6.779775382567617 4.010502961243923 9.487983868260075 0 0 0
247 0 1 -1.1104 10.006925074966729 4.22762553564266 9.509550678486422 0 0 0
248 0 1 -1.1104 6.156828748409067 7.290597645160502 6.462420230578456 0 0 0
249 0 1 -1.1104 12.695373302945626 7.624786564407651 6.636718953489869 0 0 0
250 0 1 -1.1104 6.681461446082315 7.089124612518865 10.079475512623288 0 0 0
251 0 1 -1.1104 8.17347425227723 6.3922632542418905 8.191770039407826 0 0 0
252 0 1 -1.1104 12.83041817300149 4.837481364288945 6.83114208723439 0 0 0
253 0 1 -1.1104 12.892970571922294 4.205095015122182 9.870741483149114 0 0 0
254 0 1 -1.1104 11.753193991971413 10.43674972273419 6.755160454170591 0 0 0
255 0 1 -1.1104 12.374098784165833 7.451081429271581 9.214872238992022 0 0 0
256 0 1 -1.1104 0.62692702181959 10.032396534578968 7.121361631482295 0 0 0
257 0 1 -1.1104 3.3066142744927487 10.427881783151273 7.223314397912473 0 0 0
191 0 1 -1.1104 4.594119051552971 17.05258435552717 0.7055847202140849 0 0 0
259 0 1 -1.1104 4.44131475935932 8.212670305999847 8.593558570907195 0 0 0
260 0 1 -1.1104 1.0364420837732562 12.831213897291759 6.769503006390223 0 0 0
261 0 1 -1.1104 3.9601517330934914 13.02273251152023 6.864319576261443 0 0 0
262 0 1 -1.1104 1.058399889912085 10.864163495897973 9.901751845884721 0 0 0
263 0 1 -1.1104 3.7047159855152807 10.59668703619252 9.790390966219336 0 0 0
264 0 1 -1.1104 6.17085580061527 9.85204862461875 6.717194664059419 0 0 0
265 0 1 -1.1104 9.361277618986186 10.53613904773384 8.76938274270601 0 0 0
266 0 1 -1.1104 6.500042367342704 10.227703246478756 9.53165806522962 0 0 0
267 0 1 -1.1104 9.475462973600965 8.102535493012715 9.748379320313868 0 0 0
268 0 1 -1.1104 6.867206098608756 12.732823324013815 7.235067381520405 0 0 0
269 0 1 -1.1104 9.77674262016202 12.964307939827039 7.029779213418078 0 0 0
270 0 1 -1.1104 6.512636465867978 13.045707530985426 9.906628390235946 0 0 0
271 0 1 -1.1104 9.324071972922262 13.251387854827213 10.027551222372194 0 0 0
272 0 1 -1.1104 8.779134869332395 9.539874178164153 6.4900278379709615 0 0 0
273 0 1 -1.1104 12.336758884351072 9.791901235330002 9.160737501808423 0 0 0
274 0 1 -1.1104 12.662121863617891 12.919503451175657 7.115364521319665 0 0 0
275 0 1 -1.1104 12.745508106304248 12.747291757573967 10.044156440909367 0 0 0
276 0 1 -1.1104 0.7173438171456991 15.533782882155082 6.833973371856743 0 0 0
277 0 1 -1.1104 4.117129163015681 15.628165420492707 7.204660798808132 0 0 0
278 0 1 -1.1104 0.8939178001149002 13.585995010004064 9.607885824397163 0 0 0
279 0 1 -1.1104 3.9417559060922276 15.9793133771224 9.846217665310693 0 0 0
280 0 1 -1.1104 1.3105007402610735 18.5453365723589 7.547165725830557 0 0 0
281 0 1 -1.1104 4.033963238454926 18.78150803777095 7.272858201487659 0 0 0
282 0 1 -1.1104 1.3317874254284061 16.246460479808942 9.572314277072936 0 0 0
283 0 1 -1.1104 3.897939159934573 18.81812461055022 9.915393311190556 0 0 0
284 0 1 -1.1104 7.0869118121770835 15.881705003165633 7.056252524901573 0 0 0
285 0 1 -1.1104 9.867526205347293 15.901532391621226 6.830081241673345 0 0 0
286 0 1 -1.1104 6.980851266900815 15.533634553120788 9.88517062484277 0 0 0
287 0 1 -1.1104 9.794660844841454 15.8511836059033 9.897336224713648 0 0 0
288 0 1 -1.1104 6.723794651931987 18.45367968307035 7.105485773911801 0 0 0
289 0 1 -1.1104 9.503512415610958 18.759891950144414 6.89799740192665 0 0 0
290 0 1 -1.1104 6.960722660920873 18.339653639420998 10.012108372995277 0 0 0
291 0 1 -1.1104 9.600552720864878 18.592838295544944 9.595643622520386 0 0 0
292 0 1 -1.1104 12.58946123786701 15.947500563725242 7.11835771838778 0 0 0
293 0 1 -1.1104 12.552387823169257 15.532369659254316 9.868232643274602 0 0 0
294 0 1 -1.1104 12.741688417521381 18.57751179705732 6.980957904753007 0 0 0
295 0 1 -1.1104 12.488235181246607 18.273612585029966 9.877204517509469 0 0 0
296 0 1 -1.1104 0.8396523835551936 21.079334795105176 7.152179801089106 0 0 0
297 0 1 -1.1104 3.6800958861753874 21.870473008639934 7.199998162309979 0 0 0
298 0 1 -1.1104 1.097594921420131 21.729186917494758 9.533974487631292 0 0 0
299 0 1 -1.1104 4.143449289493768 21.571634554603957 9.941829675802738 0 0 0
300 0 1 -1.1104 6.588882794373604 21.264385002767874 7.131405561634213 0 0 0
301 0 1 -1.1104 9.509364321957696 21.405077978988714 7.099857191055492 0 0 0
302 0 1 -1.1104 6.928964478643411 21.383620911579232 10.081881719408242 0 0 0
303 0 1 -1.1104 9.705174043894413 21.20819359780285 9.794852463185526 0 0 0
304 0 1 -1.1104 12.378919573658116 21.47375739299096 6.849607620614529 0 0 0
305 0 1 -1.1104 12.745323188292888 21.263294176399736 9.866115416158681 0 0 0
8947 0 2 2.2208 0.06319068206533193 19.733736517820937 5.131316513216145 0 0 0
158 0 1 -1.1104 5.949421263553653 5.977353350213857 0.08735256866799125 0 0 0
308 0 1 -1.1104 1.2190000661822546 1.664462248023166 12.76833500786333 0 0 0
309 0 1 -1.1104 4.189031591867277 1.8203315113015064 12.586876823725085 0 0 0
310 0 1 -1.1104 6.840583431834019 -1.1949899486609568 12.773328180812772 0 0 0
311 0 1 -1.1104 9.841504976607183 -1.403537414698966 12.438346775836202 0 0 0
312 0 1 -1.1104 7.06705125711526 1.3693008567762088 12.626858571424306 0 0 0
14 0 3 -1.1104 10.043129596289972 10.331027435044989 1.235046303821919 0 0 0
314 0 1 -1.1104 12.66450579794054 -0.9840511826299003 12.434494060971467 0 0 0
489 0 1 -1.1104 8.397750725931198 11.135461635563928 13.412241769514923 0 0 0
258 0 1 -1.1104 0.9554885940329916 4.871520658193016 10.022597423168284 0 0 0
317 0 1 -1.1104 3.9792921751976498 4.574840333729202 12.431265410770852 0 0 0
318 0 1 -1.1104 0.9509958490985778 7.193415222901174 12.611299720711889 0 0 0
319 0 1 -1.1104 4.444538752545811 7.46203301875149 12.730027359930736 0 0 0
320 0 1 -1.1104 6.5341273383534215 4.388031552959526 12.422856835999918 0 0 0
321 0 1 -1.1104 9.460950945393039 4.048803125774277 12.25867809625346 0 0 0
322 0 1 -1.1104 8.190390646416574 6.832253511359393 12.833752861722116 0 0 0
323 0 1 -1.1104 10.767356450261257 6.149084325665773 11.33668875356309 0 0 0
324 0 1 -1.1104 12.518823211857061 4.347449143213173 12.924923180289841 0 0 0
325 0 1 -1.1104 12.753614668442012 7.143909530340507 12.36589347858665 0 0 0
326 0 1 -1.1104 0.9791528063133924 10.043332113834001 12.65298380953796 0 0 0
327 0 1 -1.1104 2.6348781565492203 8.455113303454581 10.969730705255397 0 0 0
328 0 1 -1.1104 0.9834238500813015 13.20971335041623 12.607269013460682 0 0 0
329 0 1 -1.1104 4.056864008846012 10.384100349439393 12.393158322250363 0 0 0
330 0 1 -1.1104 6.601039707665485 9.641847531326375 12.28407232047266 0 0 0
331 0 1 -1.1104 10.187461893673614 10.640200981318495 11.310014303778264 0 0 0
332 0 1 -1.1104 6.426144354756349 12.912089198336243 12.499492022815508 0 0 0
9229 0 1 -1.1104 1.157976252085557 19.0830487247745 10.084710023427439 1 0 0
803 0 1 -1.1104 2.608858923414172 23.022716825530335 2.5014129209712546 0 0 0
39 0 3 -1.1104 9.831727517945723 -1.5554156163164545 1.1479966042612084 0 0 0
218 0 1 -1.1104 2.79716614005935 -1.8064935858025997 10.248660558988025 0 0 0
128 0 1 -1.1104 2.308405975987562 -0.368425665390514 2.9048892645236357 0 0 0
126 0 1 -1.1104 0.6460348623009381 -1.5950738435065865 1.0897074405616822 0 0 0
8942 0 2 2.2208 0.23808015916901126 -2.589135931293943 10.558180877139689 0 0 0
22 0 2 2.2208 2.9011439176575493 11.356921938912985 0.030562362431393892 0 0 0
186 0 1 -1.1104 2.497734780355537 14.899314486358632 0.648891074216954 0 0 0
682 0 2 2.2208 11.319983504324936 8.52589786027037 -0.06392857397041814 0 0 0
94 0 2 2.2208 10.833801142369335 6.2073519865888604 13.677101210768619 0 0 0
362 0 2 2.2208 2.630097009931019 -0.06009965459683763 -0.09170919620778234 0 0 0
8968 0 2 2.2208 -0.15776707362409798 23.06063882744893 2.6098074090614802 0 0 0
121 0 2 2.2208 -0.18171340583879353 20.143593667730254 11.970591859003893 0 0 0
71 0 2 2.2208 8.513505354433958 11.859727197504762 -0.059310512561621176 0 0 0
53 0 2 2.2208 13.916598299648522 0.0946319140405847 11.11082594354284 0 0 0
3 0 2 2.2208 3.083594992989587 -2.4353916729593896 13.876195667369096 0 0 0
11 0 2 2.2208 5.6353138878546325 17.20517286462517 13.83210013020455 0 0 0
467 0 1 -1.1104 9.532543780639294 -1.560194086933648 15.22330060732703 0 0 0
338 0 4 2.2208 2.7108075322180585 11.398457628075047 25.209343452079167 0 0 0
339 0 3 -1.1104 1.1217835843379944 4.10676707417761 26.781110584602846 0 0 -1
8850 0 1 -1.1104 12.642373702742091 -1.4999808810853654 18.486155781439876 0 1 0
365 0 2 2.2208 5.421592556886884 11.276879774523639 14.157407896510959 0 0 0
9445 0 1 -1.1104 1.196470638972731 21.2995906936271 15.36869504734516 1 0 0
12 0 2 2.2208 2.6766862483098435 5.545931525079021 28.05586590442219 0 0 -1
485 0 1 -1.1104 3.8753396143548122 10.038490291798283 15.378151479568029 0 0 0
316 0 1 -1.1104 1.0323091396139472 4.316695241955386 15.464645322076205 0 0 0
346 0 3 -1.1104 1.3782146906232102 10.015899970883144 26.455198721461098 0 0 -1
57 0 2 2.2208 11.307339047850933 17.490384207530667 14.072376965890317 0 0 0
348 0 3 -1.1104 9.558036450275416 9.841725584804255 21.234884549056837 0 0 0
524 0 1 -1.1104 12.419056626119513 -1.769890952759221 21.12578363252961 0 0 0
679 0 1 -1.1104 1.5266481504971516 21.440445675775553 26.54150783556238 0 0 0
463 0 1 -1.1104 4.128452858748509 -1.3046126429145397 15.54676949257858 0 0 0
9382 0 2 2.2208 13.936313246373087 14.342874249115452 25.292563910773403 0 0 0
353 0 3 -1.1104 7.308742035470128 18.43642482927594 26.765354515059755 0 0 -1
659 0 1 -1.1104 0.7442139546980007 15.655333045744698 26.844033914251867 0 0 0
681 0 2 2.2208 2.360240568406683 16.910237612825764 27.74472818967195 0 0 -1
669 0 1 -1.1104 7.06547311238989 18.071677189607197 24.088836729023708 0 0 0
9652 0 3 -1.1104 2.696737339110787 16.861814006819266 25.351928271016423 0 0 0
358 0 3 -1.1104 6.850196224733102 1.3198486759051717 21.046852457902098 0 0 0
518 0 1 -1.1104 9.98618556745213 -1.7174543314088937 21.038532634761484 0 0 0
683 0 2 2.2208 8.255216940733698 5.643993671355692 27.744543899185732 0 0 -1
668 0 1 -1.1104 10.037238869570126 16.010644410128705 26.85035497045436 0 0 0
667 0 1 -1.1104 4.164198330969634 12.508841765883737 23.646705210749953 0 0 0
363 0 2 2.2208 2.571415443679266 0.026016950901859497 16.688711730730112 0 0 0
673 0 1 -1.1104 12.223868543856625 15.803586662439669 23.994614409759034 0 0 0
678 0 1 -1.1104 4.140264203369934 21.51358716325154 23.880437384760032 0 0 0
672 0 1 -1.1104 9.998899318563808 18.579231075074688 26.660684058032178 0 0 0
367 0 2 2.2208 8.507109305604832 -0.11434615450573198 16.80646322626085 0 0 0
657 0 1 -1.1104 0.9931999019017447 15.59884478203796 24.006798901821426 0 0 0
369 0 2 2.2208 5.470127571730708 0.10567688858260127 19.539053129442713 0 0 0
352 0 2 2.2208 2.399796029644118 14.33384986580401 13.966120765714146 0 0 0
371 0 2 2.2208 11.092211176488775 0.22541191880572656 19.183584717646767 0 0 0