LAMMPS (29 Oct 2020)
OMP_NUM_THREADS environment is not set. Defaulting to 1 thread. (../comm.cpp:94)
  using 1 OpenMP thread(s) per MPI task
#---------------------------------------
#
# This script is used to calculate the thermal conuctivity of UO2 using Muller-Plathe method
# By Ziqiang Wang on 03/18/2022 on Jilin university
#
#---------------------------------------

variable     Nevery    equal   50
variable     T         equal   1200

clear
OMP_NUM_THREADS environment is not set. Defaulting to 1 thread. (../comm.cpp:94)
  using 1 OpenMP thread(s) per MPI task
units          metal
boundary       p p p
atom_style     full

read_data vac_0_relaxed.dat
Reading data file ...
  orthogonal box = (-0.43662185 -7.9031625 -0.43506424) to (27.776622 500.02316 27.775064)
  2 by 26 by 1 MPI processor grid
  reading atoms ...
  27000 atoms
  reading velocities ...
  27000 velocities
Finding 1-2 1-3 1-4 neighbors ...
  special bond factors lj:    0.0      0.0      0.0     
  special bond factors coul:  0.0      0.0      0.0     
     0 = max # of 1-2 neighbors
     0 = max # of 1-3 neighbors
     0 = max # of 1-4 neighbors
     1 = max # of special neighbors
  special bonds CPU = 0.004 seconds
  read_data CPU = 0.100 seconds

set           type     1    charge     -1.1104
Setting atom values ...
  18000 settings made for charge
set           type     2    charge      2.2208
Setting atom values ...
  9000 settings made for charge

kspace_style    pppm   1.0e-05
pair_style      hybrid/overlay  coul/long  11.0  eam/alloy
pair_coeff      * * coul/long
pair_coeff      * * eam/alloy CeThUNpPuAmCmO.eam.alloy O Th Th O
newton          on
neighbor        0.3 bin
neigh_modify    delay 0 check yes every 1

#The first equilation
velocity        all create $T 10004 mom yes rot yes dist gaussian
velocity        all create 1200 10004 mom yes rot yes dist gaussian
fix             nvt  all  nvt  temp  $T $T  0.1
fix             nvt  all  nvt  temp  1200 $T  0.1
fix             nvt  all  nvt  temp  1200 1200  0.1

run             100000
PPPM initialization ...
  using 12-bit tables for long-range coulomb (../kspace.cpp:328)
  G vector (1/distance) = 0.29865404
  grid = 40 360 40
  stencil order = 5
  estimated absolute RMS force accuracy = 0.0001586041
  estimated relative force accuracy = 1.1014445e-05
  using single precision MKL FFT
  3d grid and FFT values/proc = 21375 11200
Neighbor list info ...
  update every 1 steps, delay 0 steps, check yes
  max neighbors/atom: 2000, page size: 100000
  master list distance cutoff = 11.3
  ghost atom cutoff = 11.3
  binsize = 5.65, bins = 5 90 5
  2 neighbor lists, perpetual/occasional/extra = 2 0 0
  (1) pair coul/long, perpetual
      attributes: half, newton on
      pair build: half/bin/newton
      stencil: half/bin/3d/newton
      bin: standard
  (2) pair eam/alloy, perpetual, copy from (1)
      attributes: half, newton on
      pair build: copy
      stencil: none
      bin: none
Per MPI rank memory allocation (min/avg/max) = 9.236 | 9.324 | 9.372 Mbytes
Step Temp E_pair E_mol TotEng Press 
       0         1200   -350937.97            0   -346750.09    613.75851 
  100000    1199.7577    -351017.8            0   -346830.77    99.203431 
Loop time of 937.332 on 52 procs for 100000 steps with 27000 atoms

Performance: 9.218 ns/day, 2.604 hours/ns, 106.686 timesteps/s
99.8% CPU use with 52 MPI tasks x 1 OpenMP threads

MPI task timing breakdown:
Section |  min time  |  avg time  |  max time  |%varavg| %total
---------------------------------------------------------------
Pair    | 629.24     | 640.04     | 650.79     |  18.6 | 68.28
Bond    | 0.010486   | 0.014023   | 0.018896   |   1.4 |  0.00
Kspace  | 188.77     | 201.17     | 214.36     |  36.5 | 21.46
Neigh   | 71.559     | 72.722     | 74.926     |   9.5 |  7.76
Comm    | 15.579     | 16.307     | 18.955     |  17.5 |  1.74
Output  | 6.1318e-05 | 6.6479e-05 | 0.00027004 |   0.0 |  0.00
Modify  | 2.357      | 5.2067     | 6.8717     |  61.7 |  0.56
Other   |            | 1.863      |            |       |  0.20

Nlocal:        519.231 ave         532 max         489 min
Histogram: 2 0 0 3 4 5 7 11 9 11
Nghost:        4747.38 ave        4797 max        4668 min
Histogram: 1 3 2 2 7 8 6 13 7 3
Neighs:       104737.0 ave      108682 max       99185 min
Histogram: 2 0 3 4 5 13 10 9 5 1

Total # of neighbors = 5446304
Ave neighs/atom = 201.71496
Ave special neighs/atom = 0.0000000
Neighbor list builds = 22673
Dangerous builds = 0
unfix           nvt
reset_timestep  0

# the second run
fix             1 all nve

group           oxygen type 1
18000 atoms in group oxygen
fix             2 oxygen thermal/conductivity ${Nevery} y 20
fix             2 oxygen thermal/conductivity 50 y 20

compute         ke all ke/atom
variable        temp atom c_ke/1.5
compute         layers all chunk/atom bin/1d y lower 0.05 units reduced
fix             3      all ave/chunk  2000 50 100000 layers v_temp file profile_${T}K.mp
fix             3      all ave/chunk  2000 50 100000 layers v_temp file profile_1200K.mp

variable        Tdiff    equal     f_3[11][3]-f_3[1][3]
variable        deltaT   equal     v_Tdiff*1.5/0.0001292

timestep        0.001
thermo_style    custom step f_2 temp v_Tdiff v_deltaT
thermo          100000

run             1500000
PPPM initialization ...
  using 12-bit tables for long-range coulomb (../kspace.cpp:328)
  G vector (1/distance) = 0.29865404
  grid = 40 360 40
  stencil order = 5
  estimated absolute RMS force accuracy = 0.0001586041
  estimated relative force accuracy = 1.1014445e-05
  using single precision MKL FFT
  3d grid and FFT values/proc = 21375 11200
Per MPI rank memory allocation (min/avg/max) = 9.558 | 9.602 | 9.622 Mbytes
Step f_2 Temp v_Tdiff v_deltaT 
       0            0    1199.7577            0            0 
  100000    1335.3428    1199.0169  0.051033243    592.49121 
  200000    2565.3188    1189.7678  0.065886651     764.9379 
  300000     3792.084    1191.6164   0.06725696    780.84706 
  400000    5015.8716       1195.7  0.068390863    794.01157 
  500000     6248.151    1196.8042  0.066518072    772.26864 
  600000    7472.6437    1194.4953  0.068225448    792.09111 
  700000    8702.1779    1200.0741  0.067694619    785.92824 
  800000    9930.1777    1190.0313  0.066652664    773.83124 
  900000    11159.275    1201.6293  0.067729386    786.33189 
 1000000    12390.665    1193.9184  0.067524539    783.95362 
 1100000    13617.752    1194.9428  0.067742961    786.48948 
 1200000    14850.501    1196.4567  0.067873297    788.00268 
 1300000    16076.341    1185.7657  0.066992219    777.77344 
 1400000    17310.629    1197.8409  0.068049551    790.04896 
 1500000    18547.851    1200.7706  0.069416936    805.92418 
Loop time of 13883.3 on 52 procs for 1500000 steps with 27000 atoms

Performance: 9.335 ns/day, 2.571 hours/ns, 108.043 timesteps/s
99.8% CPU use with 52 MPI tasks x 1 OpenMP threads

MPI task timing breakdown:
Section |  min time  |  avg time  |  max time  |%varavg| %total
---------------------------------------------------------------
Pair    | 9258.2     | 9370.9     | 9455.5     |  48.0 | 67.50
Bond    | 0.14721    | 0.2074     | 0.26787    |   5.2 |  0.00
Kspace  | 2891.7     | 3003.1     | 3144       | 111.2 | 21.63
Neigh   | 1135.2     | 1174.7     | 1204.6     |  52.5 |  8.46
Comm    | 233.44     | 247.63     | 285.53     |  72.9 |  1.78
Output  | 0.0016229  | 0.0017119  | 0.003526   |   0.6 |  0.00
Modify  | 11.632     | 13.934     | 15.726     |  29.6 |  0.10
Other   |            | 72.85      |            |       |  0.52

Nlocal:        519.231 ave         531 max         487 min
Histogram: 2 0 3 0 3 4 1 13 14 12
Nghost:        4741.06 ave        4819 max        4623 min
Histogram: 2 3 3 0 2 6 20 10 3 3
Neighs:       104721.0 ave      108137 max       97901 min
Histogram: 1 1 2 1 2 6 13 13 8 5

Total # of neighbors = 5445473
Ave neighs/atom = 201.68419
Ave special neighs/atom = 0.0000000
Neighbor list builds = 368495
Dangerous builds = 0

Total wall time: 4:07:01
