LAMMPS (29 Oct 2020)
OMP_NUM_THREADS environment is not set. Defaulting to 1 thread. (../comm.cpp:94)
  using 1 OpenMP thread(s) per MPI task
OMP_NUM_THREADS environment is not set. Defaulting to 1 thread. (../comm.cpp:94)
  using 1 OpenMP thread(s) per MPI task
Reading data file ...
  triclinic box = (-0.22845988 -2.7658675 -0.23230014) to (28.122460 337.49387 28.126300) with tilt (0.0000000 0.0000000 0.0000000)
  2 by 13 by 2 MPI processor grid
  reading atoms ...
  18000 atoms
  reading velocities ...
  18000 velocities
Finding 1-2 1-3 1-4 neighbors ...
  special bond factors lj:    0.0      0.0      0.0     
  special bond factors coul:  0.0      0.0      0.0     
     0 = max # of 1-2 neighbors
     0 = max # of 1-3 neighbors
     0 = max # of 1-4 neighbors
     1 = max # of special neighbors
  special bonds CPU = 0.004 seconds
  read_data CPU = 0.063 seconds
Setting atom values ...
  12000 settings made for charge
Setting atom values ...
  6000 settings made for charge
PPPM initialization ...
  using 12-bit tables for long-range coulomb (../kspace.cpp:328)
  G vector (1/distance) = 0.29825258
  grid = 40 240 40
  stencil order = 5
  estimated absolute RMS force accuracy = 0.00016250417
  estimated relative force accuracy = 1.128529e-05
  using single precision MKL FFT
  3d grid and FFT values/proc = 15000 7600
Neighbor list info ...
  update every 1 steps, delay 0 steps, check yes
  max neighbors/atom: 2000, page size: 100000
  master list distance cutoff = 11.3
  ghost atom cutoff = 11.3
  binsize = 5.65, bins = 6 61 6
  2 neighbor lists, perpetual/occasional/extra = 2 0 0
  (1) pair coul/long, perpetual
      attributes: half, newton on
      pair build: half/bin/newton/tri
      stencil: half/bin/3d/newton/tri
      bin: standard
  (2) pair eam/alloy, perpetual, copy from (1)
      attributes: half, newton on
      pair build: copy
      stencil: none
      bin: none
Setting up Verlet run ...
  Unit style    : metal
  Current step  : 0
  Time step     : 0.001
Per MPI rank memory allocation (min/avg/max) = 8.313 | 8.341 | 8.357 Mbytes
Step Temp E_pair E_mol TotEng Press 
       0         1500   -232715.32            0   -229225.49    1518.0565 
  100000    1493.6608   -232722.98            0    -229247.9    924.86628 
Loop time of 702.75 on 52 procs for 100000 steps with 18000 atoms

Performance: 12.295 ns/day, 1.952 hours/ns, 142.298 timesteps/s
99.8% CPU use with 52 MPI tasks x 1 OpenMP threads

MPI task timing breakdown:
Section |  min time  |  avg time  |  max time  |%varavg| %total
---------------------------------------------------------------
Pair    | 449.08     | 459.24     | 468.04     |  19.1 | 65.35
Bond    | 0.0065812  | 0.010462   | 0.015987   |   2.1 |  0.00
Kspace  | 143.83     | 154.42     | 166.43     |  42.4 | 21.97
Neigh   | 58.725     | 62.012     | 65.615     |  23.0 |  8.82
Comm    | 19.145     | 21.772     | 25.649     |  29.5 |  3.10
Output  | 5.6862e-05 | 6.2848e-05 | 0.00026076 |   0.0 |  0.00
Modify  | 1.6919     | 3.7133     | 5.7947     |  68.3 |  0.53
Other   |            | 1.58       |            |       |  0.22

Nlocal:        346.154 ave         365 max         332 min
Histogram: 3 6 11 10 4 5 4 2 3 4
Nghost:        3980.87 ave        4080 max        3920 min
Histogram: 7 10 11 6 2 3 3 4 1 5
Neighs:        69509.1 ave       73132 max       66454 min
Histogram: 3 4 8 14 3 4 6 3 3 4

Total # of neighbors = 3614471
Ave neighs/atom = 200.80394
Ave special neighs/atom = 0.0000000
Neighbor list builds = 24996
Dangerous builds = 0
12000 atoms in group oxygen
PPPM initialization ...
  using 12-bit tables for long-range coulomb (../kspace.cpp:328)
  G vector (1/distance) = 0.29825258
  grid = 40 240 40
  stencil order = 5
  estimated absolute RMS force accuracy = 0.00016250417
  estimated relative force accuracy = 1.128529e-05
  using single precision MKL FFT
  3d grid and FFT values/proc = 15000 7600
Setting up Verlet run ...
  Unit style    : metal
  Current step  : 0
  Time step     : 0.001
Per MPI rank memory allocation (min/avg/max) = 8.564 | 8.591 | 8.608 Mbytes
Step f_2 Temp v_Tdiff v_deltaT 
       0            0    1493.6608            0            0 
  100000    1568.8618    1488.2487  0.067094788    778.96426 
  200000    3033.8985    1492.3505  0.082754143    960.76791 
  300000    4499.4037    1495.6554  0.082429558    956.99951 
  400000    5962.3424    1495.5173  0.082869478    962.10694 
  500000    7430.0578    1488.2285  0.081544583    946.72504 
  600000    8898.4121    1493.5223  0.084475246    980.74976 
  700000    10352.611    1510.0115   0.08368455    971.56985 
  800000    11813.719    1489.0728  0.085506597    992.72365 
  900000    13281.704    1495.0928  0.082927452    962.78002 
 1000000    14747.323    1494.9572  0.083633009    970.97147 
 1100000    16206.002    1506.9802  0.084394258     979.8095 
 1200000    17670.326    1490.4181  0.084881296    985.46396 
 1300000    19131.984    1508.4632  0.083166701    965.55768 
 1400000     20594.96    1509.6466  0.084076928    976.12533 
 1500000    22077.026    1503.6095  0.083490326    969.31493 
Loop time of 10593.9 on 52 procs for 1500000 steps with 18000 atoms

Performance: 12.233 ns/day, 1.962 hours/ns, 141.591 timesteps/s
99.8% CPU use with 52 MPI tasks x 1 OpenMP threads

MPI task timing breakdown:
Section |  min time  |  avg time  |  max time  |%varavg| %total
---------------------------------------------------------------
Pair    | 6782       | 6913.1     | 7117.1     |  79.7 | 65.26
Bond    | 0.09978    | 0.15638    | 0.23372    |   7.2 |  0.00
Kspace  | 2117.1     | 2355.8     | 2460.7     | 132.3 | 22.24
Neigh   | 916.65     | 948.63     | 1022.5     |  71.1 |  8.95
Comm    | 290.43     | 316.62     | 360.16     |  97.0 |  2.99
Output  | 0.0016907  | 0.001784   | 0.003473   |   0.6 |  0.00
Modify  | 8.1535     | 9.0017     | 10.383     |  17.0 |  0.08
Other   |            | 50.59      |            |       |  0.48

Nlocal:        346.154 ave         368 max         332 min
Histogram: 4 6 6 17 6 4 4 1 1 3
Nghost:        3960.92 ave        4077 max        3907 min
Histogram: 4 11 17 8 5 2 1 0 2 2
Neighs:        69477.1 ave       73888 max       66259 min
Histogram: 5 4 4 12 13 5 3 2 1 3

Total # of neighbors = 3612810
Ave neighs/atom = 200.71167
Ave special neighs/atom = 0.0000000
Neighbor list builds = 379868
Dangerous builds = 0
Total wall time: 3:08:17
