LAMMPS data file via write_data, version 29 Oct 2020, timestep = 9

27300 atoms
1 atom types

0.0 489.584107683342 xlo xhi
0.0 262.471408050373 ylo yhi
0.0 2.472773160743 zlo zhi

Masses

1 55.845

Atoms # atomic

4 1 1.1656764468648568 2.0190108311566255 1.6485154404956632 0 0 0
1 1 3.497029340595124 2.0190108311566246 3.3511713936593766e-13 0 0 0
5 1 5.8283822343253755 2.019010831156624 0.8242577202479948 0 0 0
10 1 8.159735128055617 2.0190108311566264 1.6485154404956477 0 0 0
7 1 10.491088021785837 2.019010831156625 3.190921768466083e-13 0 0 0
11 1 12.822440915516044 2.0190108311566246 0.8242577202480027 0 0 0
16 1 15.15379380924625 2.0190108311566264 1.6485154404956788 0 0 0
13 1 17.48514670297645 2.019010831156625 3.3664652868826446e-13 0 0 0
17 1 19.81649959670665 2.019010831156625 0.8242577202479866 0 0 0
22 1 22.147852490436847 2.0190108311566366 1.648515440495658 0 0 0
19 1 24.47920538416705 2.019010831156625 3.365543234395965e-13 0 0 0
23 1 26.810558277897247 2.0190108311566246 0.8242577202480131 0 0 0
25 1 31.47326406535765 2.0190108311566255 3.2016309861336306e-13 0 0 0
28 1 29.14191117162745 2.019010831156627 1.6485154404956692 0 0 0
29 1 33.804616959087845 2.019010831156624 0.8242577202479869 0 0 0
34 1 36.13596985281805 2.019010831156626 1.6485154404956686 0 0 0
426 1 2.3313528937299837 4.038021662313374 0.8242577202479968 0 0 0
422 1 4.662705787460251 4.0380216623133744 1.6485154404956668 0 0 0
429 1 6.9940586811904994 4.0380216623133744 3.2317571608624896e-13 0 0 0
432 1 9.325411574920729 4.038021662313374 0.8242577202479836 0 0 0
428 1 11.656764468650945 4.038021662313375 1.6485154404956617 0 0 0
435 1 13.988117362381148 4.038021662313374 3.459197123587216e-13 0 0 0
438 1 16.31947025611135 4.038021662313374 0.8242577202480136 0 0 0
434 1 18.650823149841553 4.038021662313375 1.6485154404956621 0 0 0
441 1 20.98217604357175 4.0380216623133744 3.202487549910712e-13 0 0 0
440 1 25.64488183103215 4.0380216623133744 1.648515440495678 0 0 0
444 1 23.31352893730195 4.038021662313374 0.8242577202479973 0 0 0
447 1 27.97623472476235 4.038021662313375 3.467008862981627e-13 0 0 0
450 1 30.30758761849255 4.0380216623133744 0.8242577202479969 0 0 0
446 1 32.63894051222275 4.038021662313375 1.6485154404956524 0 0 0
453 1 34.97029340595295 4.0380216623133744 3.303926072909218e-13 0 0 0
456 1 37.30164629968315 4.038021662313373 0.8242577202480126 0 0 0
424 1 1.1656764468648555 6.057032493470108 1.6485154404956643 0 0 0
846 1 2.331352893729984 8.07604332462684 0.8242577202479966 0 0 0
421 1 3.497029340595124 6.057032493470109 3.356938684825253e-13 0 0 0
842 1 4.66270578746025 8.076043324626841 1.648515440495667 0 0 0
425 1 5.828382234325376 6.05703249347011 0.8242577202479949 0 0 0
430 1 8.159735128055615 6.05703249347011 1.6485154404956488 0 0 0
849 1 6.994058681190499 8.076043324626841 3.231264743463808e-13 0 0 0
427 1 10.491088021785837 6.05703249347011 3.1990628616263017e-13 0 0 0
852 1 9.325411574920729 8.076043324626841 0.8242577202479833 0 0 0
431 1 12.822440915516045 6.05703249347011 0.8242577202480026 0 0 0
848 1 11.656764468650943 8.076043324626841 1.6485154404956617 0 0 0
855 1 13.988117362381148 8.076043324626841 3.461128364744236e-13 0 0 0
436 1 15.153793809246247 6.05703249347011 1.6485154404956797 0 0 0
858 1 16.31947025611135 8.076043324626841 0.8242577202480137 0 0 0
433 1 17.485146702976447 6.05703249347011 3.3730015600653746e-13 0 0 0
437 1 19.81649959670665 6.05703249347011 0.8242577202479866 0 0 0
854 1 18.650823149841553 8.076043324626841 1.6485154404956626 0 0 0
442 1 22.14785249043685 6.0570324934701105 1.648515440495654 0 0 0
861 1 20.98217604357175 8.076043324626841 3.206523071971669e-13 0 0 0
439 1 24.47920538416705 6.057032493470109 3.3726039026001634e-13 0 0 0
860 1 25.64488183103215 8.076043324626841 1.6485154404956786 0 0 0
864 1 23.313528937301953 8.076043324626841 0.8242577202479965 0 0 0
443 1 26.810558277897247 6.05703249347011 0.8242577202480136 0 0 0
867 1 27.97623472476235 8.076043324626841 3.4690383233026527e-13 0 0 0
445 1 31.47326406535765 6.05703249347011 3.2084437884900667e-13 0 0 0
448 1 29.14191117162745 6.05703249347011 1.6485154404956701 0 0 0
870 1 30.30758761849255 8.076043324626841 0.8242577202479965 0 0 0
449 1 33.80461695908785 6.05703249347011 0.8242577202479873 0 0 0
866 1 32.63894051222275 8.076043324626841 1.6485154404956526 0 0 0
454 1 36.13596985281805 6.05703249347011 1.6485154404956694 0 0 0
873 1 34.97029340595295 8.076043324626841 3.303165938168887e-13 0 0 0
876 1 37.30164629968315 8.076043324626841 0.8242577202480121 0 0 0
844 1 1.1656764468648557 10.095054155783565 1.6485154404956641 0 0 0
841 1 3.4970293405951236 10.095054155783567 3.358566533195049e-13 0 0 0
845 1 5.828382234325376 10.095054155783567 0.8242577202479952 0 0 0
850 1 8.159735128055615 10.095054155783567 1.6485154404956488 0 0 0
847 1 10.491088021785837 10.095054155783567 3.198706886261487e-13 0 0 0
851 1 12.822440915516045 10.095054155783567 0.8242577202480026 0 0 0
856 1 15.153793809246247 10.095054155783567 1.6485154404956797 0 0 0
853 1 17.485146702976447 10.095054155783567 3.3739628347490343e-13 0 0 0
857 1 19.81649959670665 10.095054155783567 0.8242577202479866 0 0 0
862 1 22.14785249043685 10.095054155783567 1.648515440495654 0 0 0
859 1 24.47920538416705 10.095054155783567 3.3740157242583257e-13 0 0 0
863 1 26.81055827789725 10.095054155783567 0.8242577202480135 0 0 0
865 1 31.47326406535765 10.095054155783567 3.2038922454888083e-13 0 0 0
868 1 29.14191117162745 10.095054155783567 1.6485154404956703 0 0 0
869 1 33.80461695908785 10.095054155783567 0.8242577202479876 0 0 0
874 1 36.13596985281805 10.095054155783567 1.6485154404956694 0 0 0
1264 1 1.1656764468648555 14.133075818096998 1.6485154404956643 0 0 0
1266 1 2.331352893729984 12.114064986940285 0.8242577202479966 0 0 0
1261 1 3.4970293405951236 14.133075818097 3.35972354188907e-13 0 0 0
1262 1 4.66270578746025 12.114064986940285 1.6485154404956672 0 0 0
1265 1 5.8283822343253755 14.133075818097 0.824257720247995 0 0 0
1269 1 6.994058681190499 12.114064986940285 3.2324291926786395e-13 0 0 0
1270 1 8.159735128055615 14.133075818097 1.6485154404956488 0 0 0
1267 1 10.491088021785837 14.133075818097 3.197151936636815e-13 0 0 0
1272 1 9.325411574920729 12.114064986940285 0.8242577202479834 0 0 0
1268 1 11.656764468650943 12.114064986940285 1.6485154404956617 0 0 0
1271 1 12.822440915516045 14.133075818097 0.824257720248003 0 0 0
1275 1 13.988117362381148 12.114064986940285 3.461032886365081e-13 0 0 0
1276 1 15.153793809246247 14.133075818097 1.6485154404956794 0 0 0
1278 1 16.31947025611135 12.114064986940285 0.8242577202480135 0 0 0
1273 1 17.485146702976447 14.133075818097 3.3736220503862984e-13 0 0 0
1274 1 18.650823149841553 12.114064986940285 1.6485154404956626 0 0 0
1277 1 19.81649959670665 14.133075818097 0.8242577202479864 0 0 0
1281 1 20.98217604357175 12.114064986940285 3.2028600252237333e-13 0 0 0
1282 1 22.14785249043685 14.133075818097 1.6485154404956537 0 0 0
1279 1 24.47920538416705 14.133075818097 3.3714628523240644e-13 0 0 0
1280 1 25.64488183103215 12.114064986940285 1.6485154404956783 0 0 0
1284 1 23.31352893730195 12.114064986940285 0.8242577202479971 0 0 0
1283 1 26.81055827789725 14.133075818097 0.8242577202480134 0 0 0
1287 1 27.97623472476235 12.114064986940285 3.467580030270898e-13 0 0 0
1285 1 31.47326406535765 14.133075818097 3.207518309567056e-13 0 0 0
1288 1 29.14191117162745 14.133075818097 1.64851544049567 0 0 0
1290 1 30.30758761849255 12.114064986940285 0.8242577202479964 0 0 0
1286 1 32.63894051222275 12.114064986940285 1.6485154404956528 0 0 0
1289 1 33.80461695908785 14.133075818097 0.8242577202479874 0 0 0
1293 1 34.97029340595295 12.114064986940285 3.304716777123212e-13 0 0 0
1294 1 36.13596985281805 14.133075818097 1.6485154404956697 0 0 0
1296 1 37.30164629968315 12.114064986940285 0.8242577202480121 0 0 0
1686 1 2.331352893729984 16.15208664925371 0.8242577202479966 0 0 0
1682 1 4.66270578746025 16.15208664925371 1.648515440495667 0 0 0
1689 1 6.994058681190498 16.15208664925371 3.2328709295969175e-13 0 0 0
1692 1 9.325411574920729 16.15208664925371 0.8242577202479834 0 0 0
1688 1 11.656764468650943 16.15208664925371 1.648515440495662 0 0 0
1695 1 13.988117362381148 16.15208664925371 3.462604114385769e-13 0 0 0
1698 1 16.31947025611135 16.15208664925371 0.8242577202480136 0 0 0
1694 1 18.650823149841553 16.15208664925371 1.6485154404956626 0 0 0
1701 1 20.98217604357175 16.15208664925371 3.2006305346868647e-13 0 0 0
1700 1 25.64488183103215 16.15208664925371 1.6485154404956779 0 0 0
1704 1 23.31352893730195 16.15208664925371 0.8242577202479971 0 0 0
1707 1 27.97623472476235 16.152086649253715 3.4669310506529464e-13 0 0 0
1710 1 30.30758761849255 16.15208664925371 0.8242577202479967 0 0 0
1706 1 32.63894051222275 16.15208664925371 1.6485154404956526 0 0 0
1713 1 34.97029340595295 16.15208664925371 3.3037470222473757e-13 0 0 0
1716 1 37.30164629968315 16.15208664925371 0.8242577202480122 0 0 0
1684 1 1.1656764468648555 18.171097480410424 1.6485154404956643 0 0 0
1681 1 3.4970293405951236 18.171097480410424 3.356969822742495e-13 0 0 0
1685 1 5.8283822343253755 18.171097480410424 0.8242577202479949 0 0 0
1690 1 8.159735128055615 18.171097480410424 1.6485154404956488 0 0 0
1687 1 10.491088021785837 18.171097480410424 3.1959677162171787e-13 0 0 0
1691 1 12.822440915516045 18.171097480410424 0.8242577202480027 0 0 0
1696 1 15.153793809246247 18.171097480410424 1.6485154404956797 0 0 0
1693 1 17.485146702976447 18.171097480410424 3.3743736987838827e-13 0 0 0
1697 1 19.81649959670665 18.171097480410427 0.8242577202479865 0 0 0
1702 1 22.14785249043685 18.171097480410427 1.648515440495654 0 0 0
1699 1 24.47920538416705 18.171097480410424 3.3752221260191767e-13 0 0 0
1703 1 26.810558277897247 18.171097480410427 0.8242577202480135 0 0 0
1705 1 31.47326406535765 18.171097480410424 3.208100174959034e-13 0 0 0
1708 1 29.14191117162745 18.171097480410427 1.6485154404956701 0 0 0
1709 1 33.80461695908785 18.171097480410424 0.8242577202479876 0 0 0
1714 1 36.13596985281805 18.171097480410424 1.6485154404956697 0 0 0
2104 1 1.1656764468648562 22.209119142723857 1.6485154404956643 0 0 0
2106 1 2.3313528937299846 20.19010831156714 0.8242577202479965 0 0 0
2101 1 3.4970293405951236 22.209119142723857 3.3571151555400485e-13 0 0 0
2102 1 4.66270578746025 20.19010831156714 1.648515440495667 0 0 0
2105 1 5.828382234325376 22.209119142723857 0.8242577202479948 0 0 0
2109 1 6.994058681190499 20.19010831156714 3.2293556185959615e-13 0 0 0
2110 1 8.159735128055615 22.209119142723857 1.6485154404956486 0 0 0
2107 1 10.491088021785837 22.209119142723857 3.2019230921120667e-13 0 0 0
2112 1 9.325411574920729 20.19010831156714 0.8242577202479835 0 0 0
2108 1 11.656764468650943 20.19010831156714 1.648515440495662 0 0 0
2111 1 12.822440915516045 22.209119142723857 0.8242577202480021 0 0 0
2115 1 13.988117362381148 20.19010831156714 3.4607970323669186e-13 0 0 0
2116 1 15.153793809246247 22.20911914272386 1.6485154404956797 0 0 0
2118 1 16.31947025611135 20.19010831156714 0.8242577202480137 0 0 0
2113 1 17.485146702976447 22.20911914272386 3.3738729770393024e-13 0 0 0
2114 1 18.650823149841553 20.19010831156714 1.6485154404956626 0 0 0
2117 1 19.81649959670665 22.20911914272386 0.8242577202479869 0 0 0
2121 1 20.98217604357175 20.190108311567144 3.208681657959028e-13 0 0 0
2122 1 22.14785249043685 22.20911914272386 1.6485154404956537 0 0 0
2119 1 24.47920538416705 22.20911914272386 3.3696800901275713e-13 0 0 0
2120 1 25.64488183103215 20.190108311567144 1.6485154404956786 0 0 0
2124 1 23.313528937301953 20.190108311567144 0.8242577202479966 0 0 0
2123 1 26.810558277897247 22.209119142723857 0.8242577202480135 0 0 0
2127 1 27.97623472476235 20.190108311567144 3.4737949856896496e-13 0 0 0
2125 1 31.47326406535765 22.20911914272386 3.2042934302736015e-13 0 0 0
2128 1 29.14191117162745 22.209119142723857 1.64851544049567 0 0 0
2130 1 30.307587618492555 20.19010831156714 0.824257720247996 0 0 0
2126 1 32.63894051222275 20.19010831156714 1.6485154404956528 0 0 0
2129 1 33.80461695908785 22.20911914272386 0.8242577202479876 0 0 0
2133 1 34.97029340595295 20.19010831156714 3.3027484290510713e-13 0 0 0
2134 1 36.13596985281805 22.20911914272386 1.6485154404956697 0 0 0
2136 1 37.30164629968315 20.19010831156714 0.8242577202480122 0 0 0
2526 1 2.3313528937299846 24.228129973880574 0.8242577202479966 0 0 0
2522 1 4.66270578746025 24.228129973880574 1.648515440495667 0 0 0
2529 1 6.994058681190498 24.228129973880574 3.232481171305194e-13 0 0 0
2532 1 9.325411574920729 24.228129973880574 0.8242577202479833 0 0 0
2528 1 11.656764468650943 24.228129973880574 1.6485154404956617 0 0 0
2535 1 13.988117362381148 24.228129973880574 3.462488167423689e-13 0 0 0
2538 1 16.31947025611135 24.228129973880577 0.8242577202480137 0 0 0
2534 1 18.650823149841553 24.228129973880577 1.6485154404956626 0 0 0
2541 1 20.98217604357175 24.228129973880577 3.205717992251177e-13 0 0 0
2540 1 25.64488183103215 24.228129973880577 1.6485154404956786 0 0 0
2544 1 23.313528937301953 24.228129973880577 0.8242577202479967 0 0 0
2547 1 27.97623472476235 24.228129973880574 3.466148193847411e-13 0 0 0
2550 1 30.30758761849255 24.228129973880574 0.8242577202479966 0 0 0
2546 1 32.63894051222275 24.228129973880577 1.6485154404956526 0 0 0
2553 1 34.97029340595295 24.228129973880577 3.302815200394773e-13 0 0 0
2556 1 37.30164629968315 24.228129973880577 0.8242577202480121 0 0 0
2524 1 1.165676446864855 26.247140805037287 1.6485154404956643 0 0 0
2946 1 2.331352893729985 28.266151636194 0.8242577202479963 0 0 0
2521 1 3.4970293405951236 26.247140805037287 3.3557242733395193e-13 0 0 0
2942 1 4.662705787460251 28.266151636194 1.648515440495667 0 0 0
2525 1 5.8283822343253755 26.247140805037287 0.824257720247995 0 0 0
2530 1 8.159735128055614 26.247140805037287 1.6485154404956488 0 0 0
2949 1 6.994058681190499 28.266151636194 3.2353758945212865e-13 0 0 0
2527 1 10.491088021785837 26.24714080503729 3.1933092470394325e-13 0 0 0
2952 1 9.325411574920729 28.266151636194003 0.8242577202479834 0 0 0
2531 1 12.822440915516044 26.24714080503729 0.8242577202480031 0 0 0
2948 1 11.656764468650943 28.266151636194003 1.6485154404956617 0 0 0
2955 1 13.988117362381148 28.266151636194003 3.463701018062864e-13 0 0 0
2536 1 15.153793809246245 26.24714080503729 1.6485154404956797 0 0 0
2958 1 16.31947025611135 28.266151636194 0.8242577202480137 0 0 0
2533 1 17.485146702976447 26.24714080503729 3.373270022959038e-13 0 0 0
2537 1 19.81649959670665 26.24714080503729 0.8242577202479866 0 0 0
2954 1 18.650823149841553 28.266151636194 1.6485154404956626 0 0 0
2542 1 22.14785249043685 26.24714080503729 1.6485154404956537 0 0 0
2961 1 20.98217604357175 28.266151636194 3.2063534162015293e-13 0 0 0
2539 1 24.47920538416705 26.24714080503729 3.3703877077467105e-13 0 0 0
2960 1 25.64488183103215 28.266151636194 1.6485154404956786 0 0 0
2964 1 23.313528937301953 28.266151636194 0.8242577202479968 0 0 0
2543 1 26.810558277897247 26.24714080503729 0.8242577202480132 0 0 0
2967 1 27.97623472476235 28.266151636194003 3.4703247019972833e-13 0 0 0
2545 1 31.47326406535765 26.247140805037287 3.207877269156594e-13 0 0 0
2548 1 29.14191117162745 26.247140805037287 1.64851544049567 0 0 0
2970 1 30.30758761849255 28.266151636194 0.8242577202479965 0 0 0
2549 1 33.80461695908785 26.24714080503729 0.8242577202479876 0 0 0
2966 1 32.63894051222275 28.266151636194 1.6485154404956526 0 0 0
2554 1 36.13596985281805 26.24714080503729 1.6485154404956697 0 0 0
2973 1 34.97029340595295 28.266151636194 3.3030072947120255e-13 0 0 0
2976 1 37.30164629968315 28.266151636194 0.8242577202480121 0 0 0
2944 1 1.1656764468648553 30.285162467350712 1.6485154404956648 0 0 0
2941 1 3.497029340595125 30.285162467350712 3.351134406381541e-13 0 0 0
2945 1 5.828382234325377 30.285162467350712 0.8242577202479953 0 0 0
2950 1 8.159735128055615 30.285162467350712 1.648515440495649 0 0 0
2947 1 10.491088021785837 30.285162467350716 3.2012673176605453e-13 0 0 0
2951 1 12.822440915516045 30.285162467350716 0.8242577202480027 0 0 0
2956 1 15.153793809246247 30.285162467350716 1.6485154404956797 0 0 0
2953 1 17.485146702976447 30.285162467350712 3.374813979285662e-13 0 0 0
2957 1 19.81649959670665 30.285162467350712 0.8242577202479867 0 0 0
2962 1 22.14785249043685 30.285162467350712 1.6485154404956537 0 0 0
2959 1 24.47920538416705 30.285162467350712 3.368948562627046e-13 0 0 0
2963 1 26.810558277897247 30.285162467350716 0.8242577202480137 0 0 0
2965 1 31.47326406535765 30.285162467350712 3.2091890723375734e-13 0 0 0
2968 1 29.14191117162745 30.285162467350716 1.6485154404956697 0 0 0
2969 1 33.80461695908785 30.285162467350712 0.8242577202479873 0 0 0
2974 1 36.13596985281805 30.285162467350712 1.6485154404956697 0 0 0
3366 1 2.331352893729984 32.30417329850742 0.8242577202479966 0 0 0
3362 1 4.66270578746025 32.30417329850743 1.6485154404956672 0 0 0
3369 1 6.994058681190499 32.30417329850743 3.2318600665934745e-13 0 0 0
3372 1 9.325411574920729 32.30417329850743 0.8242577202479836 0 0 0
3368 1 11.656764468650943 32.30417329850743 1.6485154404956615 0 0 0
3375 1 13.98811736238115 32.30417329850743 3.457186351102247e-13 0 0 0
3378 1 16.31947025611135 32.30417329850743 0.8242577202480135 0 0 0
3374 1 18.650823149841553 32.30417329850743 1.6485154404956626 0 0 0
3381 1 20.98217604357175 32.30417329850743 3.20540159204205e-13 0 0 0
3380 1 25.64488183103215 32.30417329850743 1.6485154404956786 0 0 0
3384 1 23.313528937301953 32.30417329850743 0.8242577202479968 0 0 0
3387 1 27.97623472476235 32.30417329850743 3.469445142211533e-13 0 0 0
3390 1 30.30758761849255 32.30417329850743 0.8242577202479965 0 0 0
3386 1 32.63894051222275 32.30417329850743 1.6485154404956528 0 0 0
3393 1 34.97029340595295 32.30417329850743 3.3044749737178243e-13 0 0 0
3396 1 37.30164629968315 32.30417329850743 0.8242577202480121 0 0 0
3364 1 1.1656764468648562 34.32318412966414 1.648515440495664 0 0 0
3786 1 2.331352893729984 36.34219496082086 0.8242577202479967 0 0 0
3361 1 3.4970293405951227 34.32318412966414 3.364699580381988e-13 0 0 0
3782 1 4.66270578746025 36.34219496082086 1.6485154404956672 0 0 0
3365 1 5.8283822343253755 34.32318412966414 0.824257720247995 0 0 0
3370 1 8.159735128055615 34.32318412966414 1.6485154404956486 0 0 0
3789 1 6.994058681190499 36.34219496082086 3.232130289561515e-13 0 0 0
3367 1 10.491088021785837 34.32318412966414 3.199112947389102e-13 0 0 0
3792 1 9.325411574920729 36.34219496082086 0.8242577202479835 0 0 0
3371 1 12.822440915516045 34.32318412966414 0.8242577202480027 0 0 0
3788 1 11.656764468650943 36.34219496082086 1.6485154404956617 0 0 0
3795 1 13.988117362381148 36.34219496082086 3.4615339170780056e-13 0 0 0
3376 1 15.153793809246247 34.32318412966414 1.6485154404956797 0 0 0
3798 1 16.31947025611135 36.34219496082086 0.8242577202480136 0 0 0
3373 1 17.485146702976447 34.32318412966414 3.373712914877615e-13 0 0 0
3377 1 19.81649959670665 34.32318412966414 0.8242577202479867 0 0 0
3794 1 18.650823149841553 36.34219496082086 1.6485154404956626 0 0 0
3382 1 22.14785249043685 34.32318412966414 1.6485154404956537 0 0 0
3801 1 20.98217604357175 36.34219496082086 3.2058175068304246e-13 0 0 0
3379 1 24.47920538416705 34.32318412966414 3.37062197203396e-13 0 0 0
3800 1 25.64488183103215 36.34219496082086 1.6485154404956786 0 0 0
3804 1 23.313528937301953 36.34219496082086 0.8242577202479967 0 0 0
3383 1 26.810558277897247 34.32318412966414 0.8242577202480134 0 0 0
3807 1 27.97623472476235 36.34219496082086 3.4689050640820747e-13 0 0 0
3385 1 31.47326406535765 34.32318412966414 3.20522355599226e-13 0 0 0
3388 1 29.14191117162745 34.32318412966414 1.6485154404956701 0 0 0
3810 1 30.30758761849255 36.34219496082086 0.8242577202479965 0 0 0
3389 1 33.80461695908785 34.32318412966414 0.8242577202479878 0 0 0
3806 1 32.63894051222275 36.34219496082086 1.6485154404956526 0 0 0
3394 1 36.13596985281805 34.32318412966414 1.6485154404956692 0 0 0
3813 1 34.97029340595295 36.342194960820855 3.3046374153509025e-13 0 0 0
3816 1 37.30164629968315 36.34219496082086 0.8242577202480122 0 0 0
3784 1 1.1656764468648555 38.361205791977575 1.6485154404956643 0 0 0
3781 1 3.4970293405951236 38.361205791977575 3.3564781219726925e-13 0 0 0
3785 1 5.8283822343253755 38.361205791977575 0.8242577202479948 0 0 0
3790 1 8.159735128055615 38.361205791977575 1.6485154404956486 0 0 0
3787 1 10.491088021785837 38.361205791977575 3.197284934411305e-13 0 0 0
3791 1 12.822440915516045 38.361205791977575 0.8242577202480026 0 0 0
3796 1 15.153793809246247 38.361205791977575 1.6485154404956794 0 0 0
3793 1 17.485146702976447 38.361205791977575 3.373616181310499e-13 0 0 0
3797 1 19.81649959670665 38.361205791977575 0.8242577202479865 0 0 0
3802 1 22.14785249043685 38.361205791977575 1.6485154404956537 0 0 0
3799 1 24.47920538416705 38.361205791977575 3.3739156898099406e-13 0 0 0
3803 1 26.81055827789725 38.361205791977575 0.8242577202480136 0 0 0
3805 1 31.47326406535765 38.361205791977575 3.2089853653692775e-13 0 0 0
3808 1 29.14191117162745 38.361205791977575 1.6485154404956701 0 0 0
3809 1 33.80461695908785 38.361205791977575 0.824257720247987 0 0 0
3814 1 36.13596985281805 38.361205791977575 1.64851544049567 0 0 0
4204 1 1.1656764468648555 42.399227454291 1.6485154404956643 0 0 0
4206 1 2.331352893729984 40.38021662313429 0.8242577202479966 0 0 0
4201 1 3.497029340595124 42.399227454291 3.3583515758350233e-13 0 0 0
4202 1 4.66270578746025 40.38021662313429 1.648515440495667 0 0 0
4205 1 5.828382234325376 42.399227454291 0.824257720247995 0 0 0
4209 1 6.994058681190498 40.38021662313429 3.2326535827657593e-13 0 0 0
4210 1 8.159735128055615 42.399227454291 1.6485154404956486 0 0 0
4207 1 10.491088021785837 42.399227454291 3.198111194064663e-13 0 0 0
4212 1 9.325411574920729 40.38021662313429 0.8242577202479834 0 0 0
4208 1 11.656764468650943 40.38021662313429 1.6485154404956617 0 0 0
4211 1 12.822440915516045 42.399227454291 0.8242577202480026 0 0 0
4215 1 13.988117362381148 40.38021662313429 3.461589726481701e-13 0 0 0
4216 1 15.153793809246247 42.399227454291 1.6485154404956794 0 0 0
4218 1 16.31947025611135 40.38021662313429 0.8242577202480136 0 0 0
4213 1 17.485146702976447 42.399227454291 3.3745090187504286e-13 0 0 0
4214 1 18.650823149841553 40.38021662313429 1.6485154404956628 0 0 0
4217 1 19.81649959670665 42.399227454291 0.8242577202479865 0 0 0
4221 1 20.98217604357175 40.38021662313429 3.204012687557406e-13 0 0 0
4222 1 22.14785249043685 42.399227454291 1.648515440495654 0 0 0
4219 1 24.47920538416705 42.399227454291 3.371908464140334e-13 0 0 0
4220 1 25.64488183103215 40.38021662313429 1.6485154404956783 0 0 0
4224 1 23.31352893730195 40.38021662313429 0.8242577202479968 0 0 0
4223 1 26.81055827789725 42.399227454291 0.8242577202480136 0 0 0
4227 1 27.97623472476235 40.38021662313429 3.4695053252623604e-13 0 0 0
4225 1 31.47326406535765 42.399227454291 3.2053268484307475e-13 0 0 0
4228 1 29.14191117162745 42.399227454291 1.6485154404956701 0 0 0
4230 1 30.30758761849255 40.38021662313429 0.8242577202479965 0 0 0
4226 1 32.63894051222275 40.38021662313429 1.6485154404956526 0 0 0
4229 1 33.80461695908785 42.399227454291 0.8242577202479875 0 0 0
4233 1 34.97029340595295 40.38021662313429 3.30249627925965e-13 0 0 0
4234 1 36.13596985281805 42.399227454291 1.6485154404956697 0 0 0
4236 1 37.30164629968315 40.38021662313429 0.8242577202480121 0 0 0
4626 1 2.331352893729984 44.418238285447714 0.8242577202479964 0 0 0
4622 1 4.66270578746025 44.418238285447714 1.6485154404956672 0 0 0
4629 1 6.994058681190499 44.418238285447714 3.232641671387283e-13 0 0 0
4632 1 9.325411574920729 44.418238285447714 0.8242577202479835 0 0 0
4628 1 11.656764468650943 44.418238285447714 1.6485154404956617 0 0 0
4635 1 13.988117362381148 44.418238285447714 3.460397607401926e-13 0 0 0
4638 1 16.319470256111348 44.418238285447714 0.8242577202480132 0 0 0
4634 1 18.65082314984155 44.418238285447714 1.6485154404956623 0 0 0
4641 1 20.98217604357175 44.418238285447714 3.2007647751990503e-13 0 0 0
4640 1 25.64488183103215 44.418238285447714 1.6485154404956783 0 0 0
4644 1 23.31352893730195 44.418238285447714 0.8242577202479968 0 0 0
4647 1 27.97623472476235 44.418238285447714 3.4695235434233364e-13 0 0 0
4650 1 30.30758761849255 44.418238285447714 0.8242577202479965 0 0 0
4646 1 32.63894051222275 44.418238285447714 1.6485154404956526 0 0 0
4653 1 34.97029340595295 44.418238285447714 3.302513692985092e-13 0 0 0
4656 1 37.30164629968315 44.418238285447714 0.8242577202480121 0 0 0
4624 1 1.1656764468648557 46.43724911660443 1.6485154404956643 0 0 0
5046 1 2.331352893729984 48.45625994776114 0.8242577202479963 0 0 0
4621 1 3.4970293405951236 46.43724911660443 3.355119727902747e-13 0 0 0
5042 1 4.66270578746025 48.45625994776114 1.648515440495667 0 0 0
4625 1 5.8283822343253755 46.43724911660443 0.8242577202479949 0 0 0
4630 1 8.159735128055615 46.43724911660443 1.6485154404956488 0 0 0
5049 1 6.994058681190499 48.45625994776114 3.232494021537672e-13 0 0 0
4627 1 10.491088021785837 46.43724911660443 3.1977143576011806e-13 0 0 0
5052 1 9.325411574920729 48.45625994776114 0.8242577202479834 0 0 0
4631 1 12.822440915516045 46.43724911660443 0.8242577202480026 0 0 0
5048 1 11.656764468650943 48.45625994776114 1.6485154404956617 0 0 0
5055 1 13.988117362381148 48.45625994776114 3.461280420151094e-13 0 0 0
4636 1 15.153793809246247 46.43724911660443 1.6485154404956797 0 0 0
5058 1 16.31947025611135 48.45625994776114 0.8242577202480136 0 0 0
4633 1 17.485146702976447 46.43724911660443 3.375700481784832e-13 0 0 0
4637 1 19.81649959670665 46.43724911660443 0.8242577202479868 0 0 0
5054 1 18.650823149841553 48.45625994776114 1.6485154404956626 0 0 0
4642 1 22.14785249043685 46.43724911660443 1.648515440495654 0 0 0
5061 1 20.98217604357175 48.45625994776114 3.2058462373387853e-13 0 0 0
4639 1 24.47920538416705 46.43724911660443 3.3736218071666266e-13 0 0 0
5060 1 25.64488183103215 48.45625994776114 1.6485154404956786 0 0 0
5064 1 23.313528937301953 48.45625994776114 0.8242577202479968 0 0 0
4643 1 26.810558277897247 46.43724911660443 0.8242577202480135 0 0 0
5067 1 27.97623472476235 48.45625994776114 3.468918985940212e-13 0 0 0
4645 1 31.47326406535765 46.43724911660443 3.2090546079268826e-13 0 0 0
4648 1 29.14191117162745 46.43724911660443 1.6485154404956701 0 0 0
5070 1 30.30758761849255 48.45625994776114 0.8242577202479965 0 0 0
4649 1 33.80461695908785 46.43724911660443 0.8242577202479875 0 0 0
5066 1 32.63894051222275 48.45625994776114 1.6485154404956526 0 0 0
4654 1 36.13596985281805 46.43724911660443 1.6485154404956697 0 0 0
5073 1 34.97029340595295 48.45625994776114 3.303081206406829e-13 0 0 0
5076 1 37.30164629968315 48.45625994776114 0.8242577202480122 0 0 0
5044 1 1.1656764468648557 50.47527077891786 1.6485154404956643 0 0 0
5041 1 3.497029340595124 50.47527077891786 3.3591043330290756e-13 0 0 0
5045 1 5.828382234325376 50.47527077891786 0.824257720247995 0 0 0
5050 1 8.159735128055615 50.47527077891786 1.6485154404956486 0 0 0
5047 1 10.491088021785837 50.47527077891786 3.198897686212787e-13 0 0 0
5051 1 12.822440915516045 50.47527077891786 0.8242577202480027 0 0 0
5056 1 15.153793809246247 50.47527077891786 1.6485154404956797 0 0 0
5053 1 17.485146702976447 50.47527077891786 3.375721098202091e-13 0 0 0
5057 1 19.81649959670665 50.47527077891786 0.8242577202479869 0 0 0
5062 1 22.14785249043685 50.47527077891786 1.6485154404956537 0 0 0
5059 1 24.47920538416705 50.47527077891786 3.3713649945813204e-13 0 0 0
5063 1 26.810558277897247 50.47527077891786 0.8242577202480134 0 0 0
5065 1 31.47326406535765 50.47527077891786 3.2072393743181765e-13 0 0 0
5068 1 29.14191117162745 50.47527077891786 1.64851544049567 0 0 0
5069 1 33.80461695908785 50.47527077891786 0.8242577202479875 0 0 0
5074 1 36.13596985281805 50.47527077891786 1.6485154404956697 0 0 0
5466 1 2.3313528937299846 52.49428161007457 0.8242577202479967 0 0 0
5462 1 4.662705787460251 52.49428161007457 1.6485154404956672 0 0 0
5469 1 6.994058681190499 52.49428161007457 3.2320562608148977e-13 0 0 0
5472 1 9.325411574920729 52.49428161007457 0.8242577202479834 0 0 0
5468 1 11.656764468650943 52.49428161007457 1.6485154404956617 0 0 0
5475 1 13.988117362381148 52.49428161007457 3.459037856903774e-13 0 0 0
5478 1 16.319470256111348 52.49428161007457 0.8242577202480132 0 0 0
5474 1 18.65082314984155 52.49428161007457 1.6485154404956623 0 0 0
5481 1 20.98217604357175 52.49428161007457 3.202534591138959e-13 0 0 0
5480 1 25.64488183103215 52.49428161007457 1.6485154404956786 0 0 0
5484 1 23.313528937301953 52.49428161007457 0.8242577202479967 0 0 0
5487 1 27.97623472476235 52.49428161007457 3.469377929415107e-13 0 0 0
5490 1 30.30758761849255 52.49428161007457 0.8242577202479965 0 0 0
5486 1 32.63894051222275 52.49428161007457 1.6485154404956526 0 0 0
5493 1 34.97029340595295 52.49428161007457 3.3025684065195647e-13 0 0 0
5496 1 37.30164629968315 52.49428161007457 0.8242577202480121 0 0 0
5464 1 1.1656764468648553 54.513292441231286 1.6485154404956643 0 0 0
5886 1 2.331352893729984 56.532303272388 0.8242577202479966 0 0 0
5461 1 3.4970293405951236 54.513292441231286 3.3574721825449197e-13 0 0 0
5882 1 4.66270578746025 56.532303272388 1.648515440495667 0 0 0
5465 1 5.828382234325376 54.513292441231286 0.824257720247995 0 0 0
5470 1 8.159735128055615 54.513292441231286 1.6485154404956488 0 0 0
5889 1 6.994058681190499 56.532303272388 3.232005979258897e-13 0 0 0
5467 1 10.491088021785837 54.513292441231286 3.1997611684684986e-13 0 0 0
5892 1 9.325411574920729 56.532303272388 0.8242577202479834 0 0 0
5471 1 12.822440915516045 54.513292441231286 0.8242577202480027 0 0 0
5888 1 11.656764468650943 56.532303272388 1.6485154404956617 0 0 0
5895 1 13.988117362381148 56.532303272388 3.460949693773646e-13 0 0 0
5476 1 15.153793809246247 54.513292441231286 1.6485154404956797 0 0 0
5898 1 16.31947025611135 56.532303272388 0.8242577202480136 0 0 0