ITEM: TIMESTEP
100000
ITEM: NUMBER OF ATOMS
18000
ITEM: BOX BOUNDS xy xz yz pp pp pp
-2.2382693179876909e-01 2.8117826931798334e+01 0.0000000000000000e+00
-2.6877098448127441e+00 3.3741570984480694e+02 0.0000000000000000e+00
-2.2315100842260563e-01 2.8117151008422653e+01 0.0000000000000000e+00
ITEM: ATOMS id type q mass x y z
1 4 2.2208 232.038 0.509981 11.4039 2.06138
2 3 -1.1104 15.9994 7.15774 7.43233 0.873844
9848 3 -1.1104 15.9994 0.85546 21.8467 0.906559
100 2 2.2208 232.038 11.0032 23.1463 8.124
50 2 2.2208 232.038 11.1906 23.1376 2.44252
61 2 2.2208 232.038 0.618488 2.64375 5.03139
19 3 -1.1104 15.9994 9.65523 5.22682 1.19041
8 2 2.2208 232.038 5.86376 0.124711 2.58909
9 4 2.2208 232.038 10.8747 3.60749 5.29672
10 2 2.2208 232.038 10.8005 1.32156 1.76375
360 2 2.2208 232.038 10.9662 6.00916 13.7827
12 4 2.2208 232.038 8.77241 6.51464 2.83651
13 2 2.2208 232.038 2.60417 3.60732 2.12836
136 1 -1.1104 15.9994 9.28541 -1.82531 5.23996
15 4 2.2208 232.038 5.39965 5.9385 2.38794
14 3 -1.1104 15.9994 6.47264 21.8537 0.988723
17 2 2.2208 232.038 8.02777 3.00571 2.16632
8476 4 2.2208 232.038 8.62332 -1.76923 2.98684
9514 2 2.2208 232.038 13.921 2.95601 13.7612
20 2 2.2208 232.038 11.838 5.19769 2.16814
374 2 2.2208 232.038 5.59348 22.9302 13.7689
22 4 2.2208 232.038 5.30766 11.9814 2.4625
23 2 2.2208 232.038 3.61125 8.97839 2.23704
24 3 -1.1104 15.9994 3.79417 -1.36489 3.27825
349 1 -1.1104 15.9994 9.68204 21.6136 12.5274
39 3 -1.1104 15.9994 10.0189 -1.11983 0.575987
27 2 2.2208 232.038 7.91696 9.21873 2.13715
28 2 2.2208 232.038 3.18862 14.4686 2.33313
348 1 -1.1104 15.9994 6.71497 21.6344 12.4687
30 2 2.2208 232.038 10.8781 12.1262 2.42557
31 3 -1.1104 15.9994 9.3671 2.36324 0.304764
32 4 2.2208 232.038 10.9411 0.451872 5.67162
350 2 2.2208 232.038 -0.174649 5.94913 13.7338
127 1 -1.1104 15.9994 6.51658 1.66931 0.621443
347 1 -1.1104 15.9994 3.96942 21.5654 12.5405
130 1 -1.1104 15.9994 0.345348 2.41562 2.71149
37 2 2.2208 232.038 8.39648 17.3877 2.4962
38 2 2.2208 232.038 5.14613 17.4128 2.28346
9237 2 2.2208 232.038 13.8241 11.5929 4.92981
40 2 2.2208 232.038 11.5576 17.4612 2.32951
41 4 2.2208 232.038 2.26244 0.0780315 2.07938
42 4 2.2208 232.038 7.94493 14.0281 2.39954
43 2 2.2208 232.038 2.63318 20.3815 2.21683
346 1 -1.1104 15.9994 1.26562 21.5049 12.2852
345 1 -1.1104 15.9994 12.4865 18.536 12.1874
8656 1 -1.1104 15.9994 2.36497 -1.71339 0.502513
47 2 2.2208 232.038 8.16034 20.8378 2.2981
5 3 -1.1104 15.9994 5.7184 14.2984 1.9693
49 1 -1.1104 15.9994 12.6394 21.3112 12.321
71 3 -1.1104 15.9994 10.8914 -2.19366 7.77594
225 1 -1.1104 15.9994 9.64241 -1.3584 10.0197
52 2 2.2208 232.038 2.82164 -0.158558 5.9257
344 1 -1.1104 15.9994 12.5679 15.6298 12.2269
343 1 -1.1104 15.9994 9.74843 18.9895 12.4504
46 3 -1.1104 15.9994 4.57956 -0.15299 0.530063
56 2 2.2208 232.038 7.6468 0.305792 5.92198
342 1 -1.1104 15.9994 7.02424 18.8717 12.373
58 2 2.2208 232.038 5.51168 -0.644432 8.54172
178 1 -1.1104 15.9994 9.88303 16.3325 0.987852
60 2 2.2208 232.038 11.3811 -0.308013 8.90801
16 3 -1.1104 15.9994 4.07713 4.45636 0.798086
62 2 2.2208 232.038 3.11303 5.53275 5.75668
63 2 2.2208 232.038 2.35957 2.69254 8.13526
81 3 -1.1104 15.9994 3.94523 13.1681 0.700911
65 2 2.2208 232.038 5.11998 2.76977 5.00667
66 2 2.2208 232.038 7.8559 5.42339 6.14855
67 2 2.2208 232.038 5.85783 2.88094 8.69811
68 2 2.2208 232.038 5.45042 6.33351 8.14697
69 2 2.2208 232.038 8.96892 2.5261 8.36735
70 2 2.2208 232.038 10.8963 5.95017 8.33919
9175 2 2.2208 232.038 -0.0901677 19.8438 11.1267
72 2 2.2208 232.038 2.67344 11.9016 5.09069
73 2 2.2208 232.038 2.75364 9.10875 8.15703
74 3 -1.1104 15.9994 6.60623 3.11615 6.72034
75 2 2.2208 232.038 5.49189 8.89259 5.43738
76 2 2.2208 232.038 8.43103 11.5913 5.33177
77 2 2.2208 232.038 8.22845 8.77284 8.22549
78 2 2.2208 232.038 5.48248 11.7633 8.10154
79 2 2.2208 232.038 10.9034 8.4989 5.64123
80 2 2.2208 232.038 11.3391 11.6661 8.1501
124 2 2.2208 232.038 8.2527 23.0044 11.1679
82 2 2.2208 232.038 2.57808 17.2989 5.1511
83 2 2.2208 232.038 2.58843 14.4905 8.27412
128 1 -1.1104 15.9994 0.677641 -1.74732 2.79692
85 2 2.2208 232.038 5.57653 14.6651 5.46393
86 2 2.2208 232.038 8.27522 17.4571 5.66871
87 2 2.2208 232.038 8.18996 14.4714 8.03539
88 2 2.2208 232.038 5.28077 17.3077 7.98649
89 2 2.2208 232.038 11.3489 14.6713 5.32816
90 2 2.2208 232.038 11.2572 17.4775 8.09823
169 1 -1.1104 15.9994 0.410502 11.3658 4.35794
338 1 -1.1104 15.9994 1.31259 18.5924 12.5435
93 2 2.2208 232.038 2.76219 20.2864 8.11082
94 3 -1.1104 15.9994 12.9539 1.18615 9.55878
95 2 2.2208 232.038 5.46698 20.2565 5.36199
48 2 2.2208 232.038 5.40757 23.2494 2.67653
97 2 2.2208 232.038 8.36427 20.1905 8.02946
4 3 -1.1104 15.9994 3.7286 16.0443 0.815818
99 2 2.2208 232.038 11.0833 20.1443 5.35393
9402 1 -1.1104 15.9994 12.7811 -0.137903 6.98795
34 3 -1.1104 15.9994 3.98137 18.9579 0.767089
102 2 2.2208 232.038 2.72358 0.392922 11.1363
341 1 -1.1104 15.9994 9.88248 16.1467 12.2626
104 2 2.2208 232.038 7.96442 0.365476 11.1712
121 3 -1.1104 15.9994 10.7757 10.5001 0.793429
106 3 -1.1104 15.9994 2.96292 2.51223 5.36766
107 2 2.2208 232.038 2.62828 5.97814 10.9501
108 2 2.2208 232.038 5.37301 3.0759 11.6414
109 2 2.2208 232.038 7.99845 5.47706 10.6428
110 2 2.2208 232.038 11.2075 2.93624 10.8823
111 3 -1.1104 15.9994 1.17396 13.539 0.703346
112 2 2.2208 232.038 2.57215 11.6164 11.1503
113 2 2.2208 232.038 5.49513 8.95069 11.1257
114 2 2.2208 232.038 8.56213 11.8591 10.9276
115 2 2.2208 232.038 10.9366 8.65313 11.2525
116 4 2.2208 232.038 11.3204 9.00011 2.50071
117 2 2.2208 232.038 2.72617 17.1642 10.8376
118 2 2.2208 232.038 5.45719 14.374 11.0199
119 2 2.2208 232.038 8.24417 17.2372 10.8572
120 2 2.2208 232.038 11.1828 14.4504 10.8061
183 1 -1.1104 15.9994 10.8525 10.8445 4.39753
9524 2 2.2208 232.038 13.9451 14.5088 13.6673
123 2 2.2208 232.038 5.4523 20.2328 10.968
354 2 2.2208 232.038 5.42031 0.123378 13.9191
125 2 2.2208 232.038 11.3423 20.1175 10.8022
202 1 -1.1104 15.9994 12.6165 16.0991 0.918847
180 1 -1.1104 15.9994 6.80679 12.5807 0.579351
340 1 -1.1104 15.9994 6.94398 16.0092 12.3664
129 1 -1.1104 15.9994 4.00973 1.70315 3.02182
9517 2 2.2208 232.038 -0.0752596 11.6848 13.8923
131 1 -1.1104 15.9994 2.2492 1.89635 0.569618
165 1 -1.1104 15.9994 12.8436 8.39578 4.2039
133 1 -1.1104 15.9994 1.50306 0.419877 4.23304
370 2 2.2208 232.038 11.2854 17.4969 13.7017
92 2 2.2208 232.038 2.64959 23.3116 5.13275
337 1 -1.1104 15.9994 4.21729 15.8986 12.1257
137 1 -1.1104 15.9994 9.26357 1.90177 5.42964
358 2 2.2208 232.038 8.25958 3.08649 13.9403
139 1 -1.1104 15.9994 8.37827 0.607047 2.15491
140 1 -1.1104 15.9994 6.85913 -1.01456 4.16292
141 1 -1.1104 15.9994 9.48347 -0.089086 7.2078
9332 1 -1.1104 15.9994 13.0283 10.8767 2.54481
336 1 -1.1104 15.9994 1.44046 16.0071 12.5728
144 1 -1.1104 15.9994 12.2784 2.90589 1.2693
145 1 -1.1104 15.9994 12.96 4.45526 4.0401
146 1 -1.1104 15.9994 1.398 4.51093 3.97891
147 1 -1.1104 15.9994 1.73985 8.88418 3.47365
167 1 -1.1104 15.9994 2.13372 10.1124 0.556045
149 1 -1.1104 15.9994 4.08061 4.45964 3.74982
9179 2 2.2208 232.038 -0.249226 3.09311 11.1669
151 1 -1.1104 15.9994 2.63749 6.36357 2.13948
339 1 -1.1104 15.9994 4.01122 18.8377 12.2013
153 1 -1.1104 15.9994 4.16857 7.39267 3.93945
154 1 -1.1104 15.9994 6.64587 1.91651 3.67528
155 1 -1.1104 15.9994 9.32656 5.34794 4.56332
156 1 -1.1104 15.9994 7.18683 4.4999 3.78797
157 1 -1.1104 15.9994 9.48179 4.11956 6.95215
164 1 -1.1104 15.9994 12.9372 8.31189 0.858709
159 1 -1.1104 15.9994 11.0321 6.85668 3.42699
21 4 2.2208 232.038 0.906104 6.75365 3.57569
161 1 -1.1104 15.9994 6.77268 7.50301 3.16804
158 1 -1.1104 15.9994 1.12187 7.55866 -0.0268639
163 1 -1.1104 15.9994 12.2414 4.60908 6.74677
11 3 -1.1104 15.9994 12.1537 5.25602 -0.318312
8667 1 -1.1104 15.9994 10.3902 -0.0680572 3.38484
160 1 -1.1104 15.9994 4.45089 7.42929 0.586856
355 2 2.2208 232.038 11.1805 0.0591921 13.8759
143 1 -1.1104 15.9994 10.3075 3.30236 2.88939
9519 2 2.2208 232.038 13.9173 8.8494 13.7618
36 3 -1.1104 15.9994 6.80962 -1.47767 0.920689
171 1 -1.1104 15.9994 2.64377 11.9499 2.96343
135 1 -1.1104 15.9994 12.5577 0.126403 0.773355
173 1 -1.1104 15.9994 4.4749 10.1876 3.97117
98 2 2.2208 232.038 5.35811 22.8958 8.26482
175 1 -1.1104 15.9994 9.82122 7.90533 1.18632
176 1 -1.1104 15.9994 5.44413 9.83004 1.38668
177 1 -1.1104 15.9994 7.28306 10.0453 4.3112
84 3 -1.1104 15.9994 7.06665 16.2815 0.873624
179 1 -1.1104 15.9994 9.22882 18.9139 0.921265
9180 2 2.2208 232.038 -0.0443197 22.8945 8.19669
181 1 -1.1104 15.9994 8.70594 11.5103 2.48867
182 1 -1.1104 15.9994 9.4655 8.57642 3.79313
188 1 -1.1104 15.9994 1.93812 16.5371 2.53988
184 1 -1.1104 15.9994 12.5977 13.2544 0.806898
185 1 -1.1104 15.9994 12.4331 13.2614 3.68715
335 1 -1.1104 15.9994 12.559 12.948 12.2159
187 1 -1.1104 15.9994 6.99661 16.249 3.90465
363 2 2.2208 232.038 8.17507 8.78731 13.621
189 1 -1.1104 15.9994 1.32353 14.2209 3.67745
9184 2 2.2208 232.038 -0.183058 14.8184 5.47211
199 1 -1.1104 15.9994 6.85443 18.8441 1.53364
192 1 -1.1104 15.9994 1.45538 19.0689 3.96153
193 1 -1.1104 15.9994 4.10592 18.9387 3.78151
194 1 -1.1104 15.9994 7.13443 18.8367 4.09172
195 1 -1.1104 15.9994 9.80675 13.8125 3.69874
196 1 -1.1104 15.9994 4.24724 13.3366 4.1523
197 1 -1.1104 15.9994 6.83822 12.6712 3.90029
198 1 -1.1104 15.9994 3.76274 21.8768 3.79425
365 2 2.2208 232.038 11.2562 11.8917 13.8005
200 1 -1.1104 15.9994 4.25768 16.0406 3.95148
201 1 -1.1104 15.9994 10.0116 16.3723 3.71591
138 1 -1.1104 15.9994 6.94614 4.69031 0.913046
203 1 -1.1104 15.9994 12.8937 16.312 3.95341
204 1 -1.1104 15.9994 12.5018 18.8845 1.00013
205 1 -1.1104 15.9994 12.5522 19.0209 3.83688
206 1 -1.1104 15.9994 1.04956 18.8622 0.841061
207 1 -1.1104 15.9994 3.75892 21.7276 0.714071
208 1 -1.1104 15.9994 0.963448 21.7755 3.53894
209 1 -1.1104 15.9994 4.15113 21.4957 6.6303
210 1 -1.1104 15.9994 6.8847 21.4427 4.00772
211 1 -1.1104 15.9994 9.55989 21.7251 0.699565
212 1 -1.1104 15.9994 9.71596 18.8538 3.63693
213 1 -1.1104 15.9994 9.50844 21.8243 4.04292
214 1 -1.1104 15.9994 12.4858 21.8674 1.03167
215 1 -1.1104 15.9994 12.4069 21.6717 3.73149
216 1 -1.1104 15.9994 2.00944 -2.07839 5.72461
217 1 -1.1104 15.9994 4.17031 -1.71765 7.1201
218 1 -1.1104 15.9994 1.15599 -1.26586 8.84689
219 1 -1.1104 15.9994 3.81039 -1.28886 9.86088
220 1 -1.1104 15.9994 1.14518 1.10086 6.94598
221 1 -1.1104 15.9994 4.0764 1.20974 8.09304
222 1 -1.1104 15.9994 0.989819 1.42273 9.56589
223 1 -1.1104 15.9994 3.58835 2.55126 10.1832
224 1 -1.1104 15.9994 7.00336 -1.44247 6.98326
334 1 -1.1104 15.9994 12.2611 10.0895 12.6991
226 1 -1.1104 15.9994 7.15785 -1.53701 9.53947
227 1 -1.1104 15.9994 9.72058 1.4294 10.1773
228 1 -1.1104 15.9994 4.93909 0.569779 5.43419
229 1 -1.1104 15.9994 7.05791 1.04019 8.31176
230 1 -1.1104 15.9994 5.69885 0.903526 10.5683
231 1 -1.1104 15.9994 7.53941 3.02062 10.295
333 1 -1.1104 15.9994 9.63851 13.2659 12.3057
233 1 -1.1104 15.9994 12.9602 -1.59941 9.71958
234 1 -1.1104 15.9994 12.4884 -1.21755 4.91203
235 1 -1.1104 15.9994 12.4658 4.64291 9.60807
236 1 -1.1104 15.9994 1.37594 4.45114 6.80464
237 1 -1.1104 15.9994 4.17288 4.33481 7.36518
238 1 -1.1104 15.9994 1.28154 4.53931 9.53073
239 1 -1.1104 15.9994 3.93086 4.49522 12.536
240 1 -1.1104 15.9994 1.24406 7.26561 5.785
241 1 -1.1104 15.9994 3.8998 7.69393 6.84768
242 1 -1.1104 15.9994 1.27527 7.3024 8.97255
243 1 -1.1104 15.9994 3.84295 7.37282 9.53737
244 1 -1.1104 15.9994 5.56964 5.54269 5.98283
245 1 -1.1104 15.9994 11.0386 1.92127 7.76494
246 1 -1.1104 15.9994 5.332 4.71297 9.90584
247 1 -1.1104 15.9994 7.35888 4.83472 8.3965
248 1 -1.1104 15.9994 6.77094 7.58901 6.73772
249 1 -1.1104 15.9994 9.6531 6.98023 7.0026
250 1 -1.1104 15.9994 6.61038 7.70948 9.5348
251 1 -1.1104 15.9994 9.33849 7.25067 9.48786
252 1 -1.1104 15.9994 12.5654 2.05212 5.46397
253 1 -1.1104 15.9994 9.83529 4.44356 9.49709
254 1 -1.1104 15.9994 12.5032 7.34439 6.8834
255 1 -1.1104 15.9994 12.274 7.49124 9.51592
256 1 -1.1104 15.9994 1.25777 10.3049 6.81271
257 1 -1.1104 15.9994 3.92618 10.6215 6.88656
258 1 -1.1104 15.9994 1.34013 10.0502 9.50009
259 1 -1.1104 15.9994 3.93675 10.2726 9.91113
260 1 -1.1104 15.9994 1.26229 13.2074 6.36442
261 1 -1.1104 15.9994 4.30913 13.5174 6.97459
262 1 -1.1104 15.9994 1.06418 12.9674 9.54686
263 1 -1.1104 15.9994 3.85311 13.0471 9.6747
264 1 -1.1104 15.9994 6.83038 10.5682 6.91268
265 1 -1.1104 15.9994 9.67607 10.08 6.92875
266 1 -1.1104 15.9994 6.79907 10.3403 9.70926
267 1 -1.1104 15.9994 9.64657 10.0779 9.78605
268 1 -1.1104 15.9994 7.02955 13.2455 6.77086
269 1 -1.1104 15.9994 9.98683 13.183 6.67805
270 1 -1.1104 15.9994 6.90707 13.3394 9.68473
271 1 -1.1104 15.9994 9.8784 12.9868 9.4464
272 1 -1.1104 15.9994 12.2162 9.92553 6.8998
273 1 -1.1104 15.9994 12.5152 10.4499 9.6377
274 1 -1.1104 15.9994 12.6406 13.1067 6.5624
275 1 -1.1104 15.9994 12.6394 13.2514 9.28085
276 1 -1.1104 15.9994 1.17885 15.9305 6.78609
277 1 -1.1104 15.9994 4.30239 15.9866 6.65385
278 1 -1.1104 15.9994 1.23936 15.77 9.85413
279 1 -1.1104 15.9994 3.91446 15.9412 9.40077
280 1 -1.1104 15.9994 1.24637 18.7179 6.72465
281 1 -1.1104 15.9994 4.07904 18.6699 6.55049
282 1 -1.1104 15.9994 0.953612 18.539 9.4674
283 1 -1.1104 15.9994 4.03547 18.7959 9.39168
284 1 -1.1104 15.9994 7.10948 16.0093 6.73724
285 1 -1.1104 15.9994 9.68676 15.9021 6.74451
286 1 -1.1104 15.9994 6.81148 15.8932 9.38648
287 1 -1.1104 15.9994 9.59468 15.8507 9.69816
288 1 -1.1104 15.9994 7.00923 18.6653 6.98441
289 1 -1.1104 15.9994 9.74168 18.9094 6.74697
290 1 -1.1104 15.9994 6.49049 18.6997 9.54599
291 1 -1.1104 15.9994 9.57185 18.8616 9.59048
292 1 -1.1104 15.9994 12.506 16.1376 6.64911
293 1 -1.1104 15.9994 12.6667 16.0729 9.3347
294 1 -1.1104 15.9994 12.4578 18.7793 6.4254
295 1 -1.1104 15.9994 12.6275 18.8047 9.42783
296 1 -1.1104 15.9994 1.64909 21.906 6.72575
9292 1 -1.1104 15.9994 12.8854 0.858615 2.87553
298 1 -1.1104 15.9994 1.32952 21.2087 9.72291
299 1 -1.1104 15.9994 3.96484 21.5812 9.617
300 1 -1.1104 15.9994 6.90839 21.3305 6.59576
301 1 -1.1104 15.9994 9.93162 21.6478 6.7894
302 1 -1.1104 15.9994 6.877 21.5484 9.48267
303 1 -1.1104 15.9994 9.73335 21.6082 9.61547
304 1 -1.1104 15.9994 12.7997 21.5336 6.55115
305 1 -1.1104 15.9994 12.5966 21.8306 9.63051
306 1 -1.1104 15.9994 0.914553 -1.06193 12.0657
307 1 -1.1104 15.9994 3.8803 -1.23399 12.5348
308 1 -1.1104 15.9994 1.08208 1.66141 12.486
309 1 -1.1104 15.9994 3.98383 1.56253 12.857
310 1 -1.1104 15.9994 6.57007 -0.996163 12.4699
311 1 -1.1104 15.9994 9.66457 -1.18524 12.4284
312 1 -1.1104 15.9994 6.97589 1.55655 12.6607
313 1 -1.1104 15.9994 9.65109 1.52316 12.9043
314 1 -1.1104 15.9994 12.7509 -1.30709 12.5186
315 1 -1.1104 15.9994 12.4059 1.54957 12.4531
316 1 -1.1104 15.9994 1.27308 4.58717 12.5394
617 1 -1.1104 15.9994 0.418588 0.177908 0.699797
318 1 -1.1104 15.9994 1.29788 7.2819 12.2142
319 1 -1.1104 15.9994 4.14263 7.32722 12.3946
320 1 -1.1104 15.9994 6.81978 4.63217 12.4593
321 1 -1.1104 15.9994 9.51674 4.45506 12.3297
322 1 -1.1104 15.9994 6.70099 7.33849 12.234
323 1 -1.1104 15.9994 9.56015 7.35675 12.4277
324 1 -1.1104 15.9994 12.4995 4.43094 12.3331
325 1 -1.1104 15.9994 12.5085 7.24373 12.3033
326 1 -1.1104 15.9994 0.880402 10.1115 12.1019
327 1 -1.1104 15.9994 4.06818 10.132 12.625
328 1 -1.1104 15.9994 1.38446 13.1608 12.5875
329 1 -1.1104 15.9994 4.06012 12.9463 12.3887
330 1 -1.1104 15.9994 6.82498 10.2241 12.5867
331 1 -1.1104 15.9994 9.55702 10.3641 12.4928
332 1 -1.1104 15.9994 7.03719 13.0522 12.3765
8475 4 2.2208 232.038 12.4267 -1.25183 2.48227
368 2 2.2208 232.038 8.36396 14.5314 13.7017
122 2 2.2208 232.038 2.59392 22.9713 11.1117
96 2 2.2208 232.038 8.26114 23.0141 5.29458
64 3 -1.1104 15.9994 9.54823 13.3472 0.732407
359 2 2.2208 232.038 5.5472 6.04319 13.8259
26 3 -1.1104 15.9994 0.905668 4.33388 0.782919
353 2 2.2208 232.038 8.16002 -2.64416 13.8871
174 1 -1.1104 15.9994 7.8729 9.73285 -0.0264194
191 1 -1.1104 15.9994 0.189033 16.3087 0.516878
9228 2 2.2208 232.038 13.8386 3.02871 7.85426
371 2 2.2208 232.038 2.64487 20.0194 13.8883
375 2 2.2208 232.038 11.1522 23.0041 13.5947
9169 2 2.2208 232.038 -0.110499 14.4363 11.2335
3 2 2.2208 232.038 13.8605 22.9262 10.9969
373 2 2.2208 232.038 8.35203 20.1628 13.8572
9189 2 2.2208 232.038 -0.163256 11.649 8.35489
369 2 2.2208 232.038 5.69022 17.4337 13.7354
9238 2 2.2208 232.038 13.8075 8.90818 8.25801
9174 2 2.2208 232.038 -0.215901 8.65271 11.0685
9272 2 2.2208 232.038 13.7468 6.10356 10.961
9227 2 2.2208 232.038 13.7515 5.96003 5.57552
351 2 2.2208 232.038 2.64579 -2.58134 13.9038
684 1 -1.1104 15.9994 9.75464 18.9302 23.6133
471 2 2.2208 232.038 8.40406 23.183 22.0856
9788 1 -1.1104 15.9994 0.626187 4.25139 26.6107
409 2 2.2208 232.038 -0.0160699 17.5235 19.4747
680 1 -1.1104 15.9994 9.4478 15.7857 23.4798
9165 2 2.2208 232.038 8.28022 -2.6337 24.9272
380 2 2.2208 232.038 5.37355 -2.74427 16.8022
449 2 2.2208 232.038 11.0754 20.2976 27.7458
425 2 2.2208 232.038 11.1715 22.9553 19.3069
723 2 2.2208 232.038 11.2641 8.65509 27.576
716 2 2.2208 232.038 5.47382 3.30614 27.498
362 1 -1.1104 15.9994 12.4446 21.5076 26.3342
710 2 2.2208 232.038 2.67631 0.0465798 27.3903
421 2 2.2208 232.038 8.38139 22.8629 16.5898
423 2 2.2208 232.038 5.60692 23.1004 19.3328
379 2 2.2208 232.038 -0.208856 -0.0247772 19.6416
367 1 -1.1104 15.9994 12.4573 21.4667 23.5627
9588 2 2.2208 232.038 -0.202701 0.00169195 24.8571
679 1 -1.1104 15.9994 6.64917 15.916 23.8971
720 2 2.2208 232.038 2.64449 11.8884 27.822
641 1 -1.1104 15.9994 7.11434 4.60042 26.2813
372 1 -1.1104 15.9994 9.59519 21.831 26.34
417 2 2.2208 232.038 2.52304 23.1306 16.5246
364 2 2.2208 232.038 5.58287 11.6929 14.0962
18 2 2.2208 232.038 2.90385 5.99431 27.7619
376 1 -1.1104 15.9994 6.83187 21.4255 26.8283
377 2 2.2208 232.038 2.61367 -0.0446904 16.6426
692 1 -1.1104 15.9994 4.03257 21.704 23.5419
682 1 -1.1104 15.9994 9.5737 15.8735 26.4136
691 1 -1.1104 15.9994 1.00383 21.6267 23.3587
381 2 2.2208 232.038 8.24728 0.130644 16.5948
727 2 2.2208 232.038 8.4302 17.3216 27.6504
383 2 2.2208 232.038 5.53061 0.234709 19.22
356 2 2.2208 232.038 2.39321 3.00453 14.0073
385 2 2.2208 232.038 11.1278 0.200928 19.4285
681 1 -1.1104 15.9994 6.6773 16.1139 26.5852
387 2 2.2208 232.038 2.77537 5.94688 16.7106
388 2 2.2208 232.038 2.66476 2.89339 19.3426
690 1 -1.1104 15.9994 12.8258 18.7784 26.4713
390 2 2.2208 232.038 5.52206 3.13673 16.5877
391 2 2.2208 232.038 8.33423 6.14665 16.5593
392 2 2.2208 232.038 8.53477 3.08456 19.2012
393 2 2.2208 232.038 5.54553 5.75414 19.4238
394 2 2.2208 232.038 11.2341 2.98619 16.4288
395 2 2.2208 232.038 11.2305 6.03569 19.2092
689 1 -1.1104 15.9994 12.5461 18.7379 23.7346
397 2 2.2208 232.038 2.73536 11.8026 16.5969
398 2 2.2208 232.038 2.71661 8.87475 19.2846
688 1 -1.1104 15.9994 12.5714 15.9023 26.7195
400 2 2.2208 232.038 5.48799 8.79214 16.6965
401 2 2.2208 232.038 8.5103 11.618 16.4545
402 2 2.2208 232.038 8.12537 8.94436 19.4533
403 2 2.2208 232.038 5.54971 11.8713 19.4422
404 2 2.2208 232.038 11.0533 8.81092 16.5934
405 2 2.2208 232.038 11.1848 11.7864 19.1936
406 1 -1.1104 15.9994 9.55494 21.7729 23.5397
407 2 2.2208 232.038 2.84705 17.1897 16.6676
408 2 2.2208 232.038 2.5433 14.5698 19.4526
678 1 -1.1104 15.9994 3.66529 19.0116 26.4958
410 2 2.2208 232.038 5.48659 14.7679 16.6411
411 2 2.2208 232.038 8.46249 17.374 16.555
412 2 2.2208 232.038 8.31264 14.4631 19.3261
413 2 2.2208 232.038 5.48159 17.231 19.3497
414 2 2.2208 232.038 11.4404 14.7674 16.7103
415 2 2.2208 232.038 11.1043 17.3597 19.4027
683 1 -1.1104 15.9994 6.8396 18.8711 23.6831
317 1 -1.1104 15.9994 3.98803 4.51028 15.2414
418 2 2.2208 232.038 2.91716 20.3179 19.2758
382 2 2.2208 232.038 8.42952 -2.66421 19.4971
420 2 2.2208 232.038 5.57387 19.994 16.5147
613 1 -1.1104 15.9994 1.1274 -1.41107 26.2996
422 2 2.2208 232.038 8.27438 20.247 19.4077
730 2 2.2208 232.038 2.50182 23.0126 27.8065
424 2 2.2208 232.038 11.2096 20.289 16.4129
361 2 2.2208 232.038 2.89695 8.8191 13.9028
426 1 -1.1104 15.9994 6.77242 21.7888 23.8598
427 2 2.2208 232.038 2.68841 0.152602 22.0056
728 2 2.2208 232.038 11.001 14.5967 27.8801
429 1 -1.1104 15.9994 4.19891 21.6566 26.397
687 1 -1.1104 15.9994 12.3634 16.1071 23.5997
431 2 2.2208 232.038 8.33689 0.278708 22.0776
9534 2 2.2208 232.038 13.8267 0.0609987 16.7867
433 2 2.2208 232.038 5.36808 0.451965 24.9493
9718 1 -1.1104 15.9994 1.28403 7.26879 20.7054
435 2 2.2208 232.038 11.1665 0.112841 24.8167
686 1 -1.1104 15.9994 9.84134 18.8778 26.5154
437 2 2.2208 232.038 2.79906 5.96162 22.0413
438 2 2.2208 232.038 2.58366 3.30119 24.7712
439 1 -1.1104 15.9994 1.38737 21.7888 26.3084
440 2 2.2208 232.038 5.5979 3.04355 21.9807
441 2 2.2208 232.038 8.49427 5.94437 22.0914
442 2 2.2208 232.038 8.38121 3.09491 25.008
443 2 2.2208 232.038 5.82971 5.92617 24.7665
444 2 2.2208 232.038 11.2757 2.9286 22.1834
445 2 2.2208 232.038 11.3496 5.6818 24.9064
473 2 2.2208 232.038 5.41857 23.1247 25.1001
447 2 2.2208 232.038 2.77024 11.7022 22.2276
448 2 2.2208 232.038 2.74491 8.56476 25.156
718 2 2.2208 232.038 11.3065 3.33318 27.4985
450 2 2.2208 232.038 5.52922 8.67723 22.2286
451 2 2.2208 232.038 8.4396 11.7635 22.1178
452 2 2.2208 232.038 8.57242 8.90407 24.6674
453 2 2.2208 232.038 5.60771 11.7183 25.0817
454 2 2.2208 232.038 11.215 8.94111 22.083
455 2 2.2208 232.038 11.2236 11.8819 24.855
685 1 -1.1104 15.9994 6.92486 18.6586 26.4096
457 2 2.2208 232.038 2.73865 17.527 22.174
458 2 2.2208 232.038 2.72919 14.6626 24.9822
665 1 -1.1104 15.9994 6.95017 13.4266 26.3199
460 2 2.2208 232.038 5.47465 14.7219 22.3042
461 2 2.2208 232.038 8.34126 17.4555 22.0256
462 2 2.2208 232.038 8.19437 14.5372 24.86
463 2 2.2208 232.038 5.39493 17.4782 25.1035
464 2 2.2208 232.038 10.9889 14.7114 22.1075
465 2 2.2208 232.038 10.985 17.4868 25.0042
705 2 2.2208 232.038 13.8339 23.0124 27.9836
626 1 -1.1104 15.9994 9.73103 1.42605 26.0786
468 2 2.2208 232.038 2.69029 20.1144 24.912
698 2 2.2208 232.038 13.8655 20.0037 19.1019
470 2 2.2208 232.038 5.55666 20.2376 22.2437
693 2 2.2208 232.038 13.9621 5.93911 16.3124
472 2 2.2208 232.038 8.22709 20.3851 25.0959
396 2 2.2208 232.038 -0.201023 8.73415 16.6153
474 2 2.2208 232.038 11.1551 20.1243 22.0555
726 2 2.2208 232.038 5.45244 14.669 27.7827
476 1 -1.1104 15.9994 1.12821 -1.14704 14.9703
477 1 -1.1104 15.9994 4.12539 -1.42065 15.4459
478 1 -1.1104 15.9994 1.0627 1.53044 15.4676
479 1 -1.1104 15.9994 4.03611 1.81271 15.4643
480 1 -1.1104 15.9994 6.99672 -1.42188 15.3588
481 1 -1.1104 15.9994 9.6817 -1.40729 15.2992
482 1 -1.1104 15.9994 6.89637 1.45682 15.4868
483 1 -1.1104 15.9994 9.75518 1.58159 15.2969
484 1 -1.1104 15.9994 12.5175 -1.41083 15.354
485 1 -1.1104 15.9994 12.603 1.35561 15.0874
467 2 2.2208 232.038 2.58541 23.0428 22.1901
487 1 -1.1104 15.9994 1.16135 4.57504 15.4373
488 1 -1.1104 15.9994 1.2119 7.2141 15.0022
489 1 -1.1104 15.9994 4.12319 7.25093 15.1629
490 1 -1.1104 15.9994 6.91304 4.76768 15.0482
491 1 -1.1104 15.9994 9.44065 4.47667 15.3724
492 1 -1.1104 15.9994 6.82919 7.5588 15.2808
493 1 -1.1104 15.9994 9.61302 7.62611 15.0543
494 1 -1.1104 15.9994 12.4193 4.48206 14.9328
495 1 -1.1104 15.9994 12.3436 7.40541 14.9036
496 1 -1.1104 15.9994 1.50657 10.4008 14.8917
497 1 -1.1104 15.9994 4.16409 10.2881 15.3858
498 1 -1.1104 15.9994 1.28239 13.0193 15.3796
499 1 -1.1104 15.9994 4.11667 13.2769 15.3744
500 1 -1.1104 15.9994 7.00223 10.3025 15.327
501 1 -1.1104 15.9994 9.73311 10.4631 15.2728
502 1 -1.1104 15.9994 6.84847 13.0283 15.2057
503 1 -1.1104 15.9994 9.86052 13.0338 15.0186
504 1 -1.1104 15.9994 12.5336 10.3771 15.3986
505 1 -1.1104 15.9994 12.6761 13.227 15.0782
506 1 -1.1104 15.9994 1.33973 15.8923 15.4085
507 1 -1.1104 15.9994 4.29481 15.7705 14.991
508 1 -1.1104 15.9994 1.69547 18.4526 15.2625
509 1 -1.1104 15.9994 4.36272 18.5604 15.3646
510 1 -1.1104 15.9994 7.13267 16.0954 14.98
511 1 -1.1104 15.9994 9.98221 16.1146 15.0436
512 1 -1.1104 15.9994 7.06063 18.7785 15.2099
513 1 -1.1104 15.9994 9.70894 18.645 15.2051
514 1 -1.1104 15.9994 12.8759 16.0437 15.0444
515 1 -1.1104 15.9994 12.8603 19.0209 15.147
516 1 -1.1104 15.9994 1.1446 21.6035 15.0988
517 1 -1.1104 15.9994 4.10472 21.2222 15.1202
518 1 -1.1104 15.9994 7.02266 21.3557 15.1646
519 1 -1.1104 15.9994 9.72322 21.67 15.1348
520 1 -1.1104 15.9994 12.5235 21.7329 15.0838
521 1 -1.1104 15.9994 0.859439 -1.15693 17.6594
522 1 -1.1104 15.9994 3.97118 -1.34034 18.1383
523 1 -1.1104 15.9994 1.36751 -1.27847 20.6331
524 1 -1.1104 15.9994 3.95294 -1.26236 20.7555
525 1 -1.1104 15.9994 1.2985 1.51687 18.1478
526 1 -1.1104 15.9994 4.06979 1.6254 18.1987
527 1 -1.1104 15.9994 1.23103 1.56687 20.7832
528 1 -1.1104 15.9994 4.27991 1.43466 20.8217
529 1 -1.1104 15.9994 6.71826 -1.63386 18.0885
530 1 -1.1104 15.9994 9.37415 -0.958479 18.1683
531 1 -1.1104 15.9994 6.81827 -1.27444 20.98
532 1 -1.1104 15.9994 9.54802 -1.47533 21.0198
533 1 -1.1104 15.9994 6.88081 1.53188 17.8519
534 1 -1.1104 15.9994 9.71632 1.64484 17.9114
535 1 -1.1104 15.9994 7.01503 1.68543 20.5662
536 1 -1.1104 15.9994 9.89113 1.50811 20.8245
537 1 -1.1104 15.9994 12.3003 -1.35172 18.1946
538 1 -1.1104 15.9994 12.5564 -1.23052 20.9938
539 1 -1.1104 15.9994 12.379 1.55778 17.8946
540 1 -1.1104 15.9994 12.5712 1.56097 20.6809
541 1 -1.1104 15.9994 1.44349 4.61365 18.2008
542 1 -1.1104 15.9994 4.38113 4.70167 17.9269
543 1 -1.1104 15.9994 1.25615 4.62141 20.8303
544 1 -1.1104 15.9994 4.21494 4.31475 20.6924
545 1 -1.1104 15.9994 1.19036 7.21077 17.8346
546 1 -1.1104 15.9994 4.06227 7.58228 17.9589
547 1 -1.1104 15.9994 4.13009 7.18402 20.4527
548 1 -1.1104 15.9994 4.14197 10.2378 20.8571
549 1 -1.1104 15.9994 7.09861 4.58335 17.8648
550 1 -1.1104 15.9994 9.92085 4.74541 17.8761
551 1 -1.1104 15.9994 7.11454 4.54197 20.7852
552 1 -1.1104 15.9994 9.90214 4.30777 20.5564
553 1 -1.1104 15.9994 6.75384 7.38588 18.0801
554 1 -1.1104 15.9994 9.76579 7.47987 18.0536
555 1 -1.1104 15.9994 6.92452 7.36498 20.8488
556 1 -1.1104 15.9994 9.89075 7.40113 20.7165
557 1 -1.1104 15.9994 12.7247 4.46139 17.9648
558 1 -1.1104 15.9994 12.6282 4.27941 20.5821
559 1 -1.1104 15.9994 12.4396 7.29371 17.8239
560 1 -1.1104 15.9994 12.5072 7.41104 20.5504
561 1 -1.1104 15.9994 1.24366 10.1734 17.7019
562 1 -1.1104 15.9994 4.08557 10.4114 17.9974
563 1 -1.1104 15.9994 1.29312 10.1866 20.6741
564 1 -1.1104 15.9994 4.22971 10.0727 23.7513
565 1 -1.1104 15.9994 1.33903 13.0834 18.0547
566 1 -1.1104 15.9994 4.37843 13.094 18.071
567 1 -1.1104 15.9994 1.30067 13.0829 20.6547
568 1 -1.1104 15.9994 4.37707 13.3284 20.9406
569 1 -1.1104 15.9994 6.80028 10.376 17.9437
570 1 -1.1104 15.9994 9.79754 10.3174 17.8286
571 1 -1.1104 15.9994 6.79747 10.1564 20.9569
572 1 -1.1104 15.9994 9.43269 10.5542 20.5666
573 1 -1.1104 15.9994 7.06239 13.1225 18.0555
574 1 -1.1104 15.9994 9.82432 13.0813 17.7229
575 1 -1.1104 15.9994 7.05274 12.9663 20.8093
576 1 -1.1104 15.9994 9.63337 13.3926 20.7485
577 1 -1.1104 15.9994 12.6717 10.3609 17.9427
578 1 -1.1104 15.9994 12.3914 10.3377 20.7048
579 1 -1.1104 15.9994 12.7378 13.2348 18.0752
580 1 -1.1104 15.9994 12.6175 13.2911 20.8262
581 1 -1.1104 15.9994 1.42059 16.1885 18.1666
582 1 -1.1104 15.9994 4.10106 15.8572 17.9774
583 1 -1.1104 15.9994 1.24538 15.981 20.8969
584 1 -1.1104 15.9994 4.03637 16.078 20.7139
585 1 -1.1104 15.9994 1.16996 18.9628 17.9988
586 1 -1.1104 15.9994 4.13583 18.7684 18.1251
587 1 -1.1104 15.9994 1.18284 19.1166 20.7131
588 1 -1.1104 15.9994 3.97296 18.8935 20.8543
589 1 -1.1104 15.9994 6.79612 15.8234 18.2017
590 1 -1.1104 15.9994 9.83081 15.8443 18.0657
591 1 -1.1104 15.9994 6.88891 15.992 20.9992
592 1 -1.1104 15.9994 9.80356 16.246 20.79
593 1 -1.1104 15.9994 6.96211 18.955 18.1802
594 1 -1.1104 15.9994 9.50542 18.5306 18.0365
595 1 -1.1104 15.9994 6.78223 18.7461 20.8073
596 1 -1.1104 15.9994 9.66229 18.9582 20.9209
597 1 -1.1104 15.9994 12.8199 16.0077 18.0629
598 1 -1.1104 15.9994 12.6196 15.8344 20.8725
599 1 -1.1104 15.9994 12.1715 18.8763 17.7914
600 1 -1.1104 15.9994 12.5057 18.5494 20.7844
601 1 -1.1104 15.9994 0.922676 21.7865 17.8289
602 1 -1.1104 15.9994 3.8983 21.6397 17.7402
603 1 -1.1104 15.9994 1.24279 21.8726 20.4247
604 1 -1.1104 15.9994 4.17175 21.7039 20.5267
605 1 -1.1104 15.9994 6.84459 21.5977 18.0295
606 1 -1.1104 15.9994 9.79801 21.3668 18.0485
607 1 -1.1104 15.9994 6.89495 21.6419 20.9515
608 1 -1.1104 15.9994 9.67924 21.5868 20.8167
609 1 -1.1104 15.9994 12.6401 21.7301 17.9277
610 1 -1.1104 15.9994 12.4509 21.3752 20.7861
611 1 -1.1104 15.9994 1.43461 -1.38589 23.498
612 1 -1.1104 15.9994 4.10937 -1.01866 23.7211
9590 2 2.2208 232.038 -0.0553443 14.2486 16.8429
614 1 -1.1104 15.9994 4.24592 -1.11348 26.2287
615 1 -1.1104 15.9994 1.28738 1.55497 23.3207
616 1 -1.1104 15.9994 4.11015 1.63307 23.5705
475 2 2.2208 232.038 11.2626 23.173 24.9206
618 1 -1.1104 15.9994 3.88 1.8344 26.3365
619 1 -1.1104 15.9994 6.79202 -1.25464 23.723
620 1 -1.1104 15.9994 9.71683 -0.958466 23.5629
621 1 -1.1104 15.9994 7.20086 -1.18216 26.543
622 1 -1.1104 15.9994 10.0518 -1.29573 26.2426
623 1 -1.1104 15.9994 6.95021 1.66333 23.5161
624 1 -1.1104 15.9994 9.87069 1.88137 23.465
625 1 -1.1104 15.9994 6.84234 1.65079 26.3492
436 2 2.2208 232.038 -0.139626 2.99705 22.3495
627 1 -1.1104 15.9994 12.5832 -1.18974 23.6018
628 1 -1.1104 15.9994 12.6805 -1.6713 26.7766
629 1 -1.1104 15.9994 12.5507 1.42002 23.6856
630 1 -1.1104 15.9994 12.5398 1.5556 26.6541
631 1 -1.1104 15.9994 1.16847 4.48183 23.5844
632 1 -1.1104 15.9994 4.1921 4.68109 23.4273
633 1 -1.1104 15.9994 1.10044 1.2725 26.1616
634 1 -1.1104 15.9994 4.2845 4.6448 26.0795
635 1 -1.1104 15.9994 1.54692 7.41628 23.321
636 1 -1.1104 15.9994 4.20108 7.25778 23.4717
430 2 2.2208 232.038 5.5752 -2.53437 22.2065
638 1 -1.1104 15.9994 1.87803 6.67461 26.0142
639 1 -1.1104 15.9994 7.14897 4.46238 23.4357
640 1 -1.1104 15.9994 9.86366 4.50349 23.415
724 2 2.2208 232.038 -0.00892429 14.3107 27.3085
642 1 -1.1104 15.9994 9.86086 4.24917 26.3757
643 1 -1.1104 15.9994 7.18266 7.27072 23.4292
644 1 -1.1104 15.9994 9.91918 7.29667 23.4205
645 1 -1.1104 15.9994 7.13306 7.49738 26.0311