ITEM: TIMESTEP
40000
ITEM: NUMBER OF ATOMS
18000
ITEM: BOX BOUNDS xy xz yz pp pp pp
-2.1256150217094244e-01 2.8106561502170802e+01 0.0000000000000000e+00
-2.8327749753749942e+00 3.3756077497537279e+02 0.0000000000000000e+00
-2.1540160959603358e-01 2.8109401609596080e+01 0.0000000000000000e+00
ITEM: ATOMS id type q mass x y z
1 4 2.2208 232.038 2.37078 9.44409 2.32123
2 3 -1.1104 15.9994 7.58081 7.49797 2.03736
9848 3 -1.1104 15.9994 1.35731 21.4984 1.15962
100 2 2.2208 232.038 11.2032 22.9394 8.29192
165 1 -1.1104 15.9994 13.5215 8.54032 4.58811
432 2 2.2208 232.038 8.4115 23.2384 0.017442
19 3 -1.1104 15.9994 8.68154 5.29352 2.2262
8 2 2.2208 232.038 5.88362 -0.179018 2.74623
9 4 2.2208 232.038 11.3283 3.34829 6.00471
10 2 2.2208 232.038 11.0518 0.526533 1.28319
717 2 2.2208 232.038 8.68571 6.26614 -0.084568
12 4 2.2208 232.038 9.06147 6.59452 3.99558
13 2 2.2208 232.038 2.66853 3.83627 2.44357
136 1 -1.1104 15.9994 9.44767 -1.50372 5.36276
15 4 2.2208 232.038 6.36765 5.06139 2.5319
14 3 -1.1104 15.9994 7.03659 21.5435 1.61181
17 2 2.2208 232.038 8.87075 2.87315 3.38888
18 2 2.2208 232.038 3.25623 6.1464 -0.125946
178 1 -1.1104 15.9994 7.98888 14.8251 0.795516
20 2 2.2208 232.038 11.7501 5.37594 2.41683
21 4 2.2208 232.038 1.68461 6.95463 4.08097
22 4 2.2208 232.038 5.90028 11.5307 3.21337
23 2 2.2208 232.038 5.25606 8.04833 2.92214
24 3 -1.1104 15.9994 3.78195 -0.83274 4.40752
349 1 -1.1104 15.9994 9.68494 21.5573 12.7084
81 3 -1.1104 15.9994 3.93602 15.5649 1.22427
27 2 2.2208 232.038 8.42882 9.6803 2.20869
28 2 2.2208 232.038 3.30712 14.1473 2.91327
348 1 -1.1104 15.9994 6.68431 21.4295 12.8801
30 2 2.2208 232.038 11.3714 12.0777 2.98664
31 3 -1.1104 15.9994 11.051 2.78427 1.93529
32 4 2.2208 232.038 11.1574 0.168621 5.8336
50 2 2.2208 232.038 11.3486 23.2416 2.69269
9199 2 2.2208 232.038 0.0439739 18.0576 2.87063
347 1 -1.1104 15.9994 3.94933 21.308 12.6537
162 1 -1.1104 15.9994 13.1833 4.1947 1.14729
37 2 2.2208 232.038 8.61584 17.7041 2.91594
38 2 2.2208 232.038 5.25779 16.935 3.05334
9180 2 2.2208 232.038 -0.0766236 22.9503 8.46601
40 2 2.2208 232.038 11.8601 17.1006 2.69984
41 4 2.2208 232.038 2.73762 0.627894 3.16017
42 4 2.2208 232.038 8.33512 13.9571 2.71573
43 2 2.2208 232.038 3.04789 20.1588 3.03158
346 1 -1.1104 15.9994 1.46967 21.7437 12.6452
345 1 -1.1104 15.9994 12.6841 18.7901 12.5087
715 2 2.2208 232.038 0.0105452 6.1393 0.160067
47 2 2.2208 232.038 8.68336 20.7837 2.83891
5 3 -1.1104 15.9994 5.87772 14.3264 2.74847
49 1 -1.1104 15.9994 12.5896 21.6243 12.4635
172 1 -1.1104 15.9994 2.17364 11.5082 3.24045
225 1 -1.1104 15.9994 9.74824 -1.60591 9.9347
52 2 2.2208 232.038 2.9933 0.14436 6.51899
344 1 -1.1104 15.9994 12.6391 15.9832 12.7279
343 1 -1.1104 15.9994 9.90323 18.6134 12.7136
46 3 -1.1104 15.9994 4.01202 -1.06592 1.6991
56 2 2.2208 232.038 7.77028 0.387192 6.28737
342 1 -1.1104 15.9994 7.13192 18.7076 12.9458
58 2 2.2208 232.038 5.45435 -0.790488 8.78576
44 2 2.2208 232.038 -0.152176 22.8644 2.8893
60 2 2.2208 232.038 11.2507 -0.0570092 9.05617
16 3 -1.1104 15.9994 4.2649 4.29707 1.07693
62 2 2.2208 232.038 3.11984 5.44202 6.50226
63 2 2.2208 232.038 2.14993 2.92746 8.85625
9402 1 -1.1104 15.9994 13.1158 0.00862082 7.43105
65 2 2.2208 232.038 5.33861 2.8231 5.18367
66 2 2.2208 232.038 7.90377 5.24342 6.86562
67 2 2.2208 232.038 5.68546 2.80764 8.60928
68 2 2.2208 232.038 5.48836 6.21077 9.03341
69 2 2.2208 232.038 8.91374 2.68713 8.92331
70 2 2.2208 232.038 11.6921 5.65219 8.62937
71 3 -1.1104 15.9994 11.4792 -2.32052 7.7442
72 2 2.2208 232.038 2.63496 11.3179 5.57098
73 2 2.2208 232.038 2.64133 8.57148 9.11542
74 3 -1.1104 15.9994 7.43234 2.79135 7.06713
75 2 2.2208 232.038 5.38221 8.57645 6.045
76 2 2.2208 232.038 8.7264 11.3305 5.75168
77 2 2.2208 232.038 8.19043 8.85445 8.70633
78 2 2.2208 232.038 5.66303 11.4786 8.59953
79 2 2.2208 232.038 11.1466 8.49021 6.07558
80 2 2.2208 232.038 11.4298 11.5081 8.76386
39 3 -1.1104 15.9994 9.74334 -1.49803 1.10079
82 2 2.2208 232.038 2.60922 17.2083 5.68865
83 2 2.2208 232.038 2.62626 14.4298 8.65142
128 1 -1.1104 15.9994 1.03895 -1.69062 3.24871
85 2 2.2208 232.038 5.74091 14.4207 5.80223
86 2 2.2208 232.038 8.36446 17.2857 6.21346
87 2 2.2208 232.038 8.45109 14.383 8.44294
88 2 2.2208 232.038 5.50784 17.4281 8.68026
89 2 2.2208 232.038 11.5105 14.5405 5.82759
90 2 2.2208 232.038 11.3907 17.2986 8.4466
9314 1 -1.1104 15.9994 13.2945 6.96455 1.76033
338 1 -1.1104 15.9994 1.43443 18.84 12.8635
93 2 2.2208 232.038 2.98676 20.1148 8.66078
94 3 -1.1104 15.9994 12.6663 1.22763 10.1238
95 2 2.2208 232.038 5.56737 20.2947 5.73003
9190 2 2.2208 232.038 -0.126259 8.94523 5.93904
97 2 2.2208 232.038 8.28267 20.0793 8.52793
33 2 2.2208 232.038 0.149548 15.0871 2.87568
99 2 2.2208 232.038 11.3579 19.9075 5.56485
174 1 -1.1104 15.9994 8.43216 9.27631 0.0808117
34 3 -1.1104 15.9994 4.38353 18.612 1.66215
102 2 2.2208 232.038 3.08657 0.0876917 11.1577
341 1 -1.1104 15.9994 9.73927 15.7625 12.7653
104 2 2.2208 232.038 8.10073 -0.0907797 11.26
121 3 -1.1104 15.9994 10.9299 10.0884 1.59211
106 3 -1.1104 15.9994 3.62751 2.94534 7.50013
107 2 2.2208 232.038 2.83104 5.58917 11.5008
108 2 2.2208 232.038 5.41285 2.72672 12.1181
109 2 2.2208 232.038 8.23412 5.43055 11.4935
110 2 2.2208 232.038 11.2733 2.77655 11.7224
111 3 -1.1104 15.9994 1.77312 13.8399 1.33696
112 2 2.2208 232.038 2.56548 11.3871 11.2447
113 2 2.2208 232.038 5.56633 8.90868 11.7635
114 2 2.2208 232.038 8.45742 11.5568 11.3964
115 2 2.2208 232.038 11.3021 8.54297 11.3747
116 4 2.2208 232.038 11.8812 8.7317 3.02726
117 2 2.2208 232.038 2.67987 17.178 11.4845
118 2 2.2208 232.038 5.44889 14.4247 11.6412
119 2 2.2208 232.038 8.45942 17.081 11.1289
120 2 2.2208 232.038 11.2673 14.561 11.4634
183 1 -1.1104 15.9994 11.4436 10.61 4.87086
730 2 2.2208 232.038 2.79219 22.8565 -0.0648365
123 2 2.2208 232.038 5.62355 19.9188 11.5362
124 2 2.2208 232.038 8.15648 22.8352 11.3698
125 2 2.2208 232.038 11.3323 20.0505 11.2606
202 1 -1.1104 15.9994 12.847 15.8661 1.41401
729 2 2.2208 232.038 -0.0486533 20.2893 -0.26256
340 1 -1.1104 15.9994 6.86698 15.7999 12.928
129 1 -1.1104 15.9994 4.85617 1.77589 3.21006
9332 1 -1.1104 15.9994 13.5015 11.0749 3.01267
131 1 -1.1104 15.9994 2.98734 1.86733 1.28806
449 2 2.2208 232.038 11.1432 20.2843 0.29379
133 1 -1.1104 15.9994 2.93244 2.19585 4.83665
169 1 -1.1104 15.9994 0.114814 11.2859 5.63598
8476 4 2.2208 232.038 8.67875 -2.17826 3.2296
337 1 -1.1104 15.9994 4.14354 15.8681 12.9628
137 1 -1.1104 15.9994 12.8927 1.79728 5.38693
714 2 2.2208 232.038 0.250108 2.5065 -0.137436
139 1 -1.1104 15.9994 8.78527 0.923307 2.22586
140 1 -1.1104 15.9994 6.9417 -1.12788 4.66874
141 1 -1.1104 15.9994 9.68218 1.74518 5.37305
168 1 -1.1104 15.9994 -0.312878 9.61671 2.34905
336 1 -1.1104 15.9994 1.18963 15.8698 12.712
144 1 -1.1104 15.9994 13.0172 1.54791 0.883877
145 1 -1.1104 15.9994 12.9989 4.66942 4.52231
146 1 -1.1104 15.9994 1.82033 4.77539 4.7871
147 1 -1.1104 15.9994 1.80951 9.09618 4.60191
158 1 -1.1104 15.9994 1.35188 7.99796 0.836091
149 1 -1.1104 15.9994 4.55535 4.43429 3.90248
84 3 -1.1104 15.9994 6.9674 17.1405 1.471
151 1 -1.1104 15.9994 3.28749 6.61983 2.46473
339 1 -1.1104 15.9994 4.42216 18.5534 12.7943
153 1 -1.1104 15.9994 3.94632 7.23078 5.13825
154 1 -1.1104 15.9994 7.19473 1.60893 4.35701
155 1 -1.1104 15.9994 10.3491 4.447 4.22341
156 1 -1.1104 15.9994 7.56475 4.38235 4.66128
157 1 -1.1104 15.9994 9.862 4.46666 7.56318
716 2 2.2208 232.038 5.61629 2.88455 -0.0667422
159 1 -1.1104 15.9994 11.6195 6.78445 4.12194
91 2 2.2208 232.038 0.139632 20.1719 5.89749
161 1 -1.1104 15.9994 6.46896 6.7351 4.33469
130 1 -1.1104 15.9994 0.7942 2.50216 2.61682
163 1 -1.1104 15.9994 13.1204 4.52173 7.46181
167 1 -1.1104 15.9994 4.03191 9.03649 0.939033
8667 1 -1.1104 15.9994 11.0924 -0.164339 3.15178
160 1 -1.1104 15.9994 5.73001 6.77703 0.752668
96 2 2.2208 232.038 8.52197 22.9119 5.74836
728 2 2.2208 232.038 11.1372 14.5978 0.147415
11 3 -1.1104 15.9994 11.0024 5.49903 0.236821
36 3 -1.1104 15.9994 7.03186 -1.52068 1.18155
171 1 -1.1104 15.9994 4.30479 12.068 1.52429
135 1 -1.1104 15.9994 12.6237 -1.29633 1.0495
173 1 -1.1104 15.9994 4.27398 9.7204 3.84143
98 2 2.2208 232.038 5.56212 22.8123 8.69069
175 1 -1.1104 15.9994 10.3567 7.60314 1.83332
176 1 -1.1104 15.9994 6.17738 9.82934 1.71688
177 1 -1.1104 15.9994 6.71781 9.48217 4.41319
164 1 -1.1104 15.9994 13.1987 9.50345 1.00336
179 1 -1.1104 15.9994 10.0931 12.7729 1.14266
180 1 -1.1104 15.9994 7.34059 12.0002 1.46595
181 1 -1.1104 15.9994 9.13067 11.6266 3.56664
182 1 -1.1104 15.9994 9.59937 8.72691 4.19159
188 1 -1.1104 15.9994 2.25803 16.2228 3.36055
184 1 -1.1104 15.9994 12.6029 13.3277 1.61631
185 1 -1.1104 15.9994 12.7994 13.0289 4.41651
335 1 -1.1104 15.9994 12.7562 13.2069 13.0035
187 1 -1.1104 15.9994 7.35976 15.925 4.35615
6 3 -1.1104 15.9994 1.01589 5.59516 2.24939
189 1 -1.1104 15.9994 1.46501 13.6282 4.24781
92 2 2.2208 232.038 2.72829 22.9636 5.70697
127 1 -1.1104 15.9994 5.74964 0.690299 0.637824
192 1 -1.1104 15.9994 1.47852 18.7569 4.49311
193 1 -1.1104 15.9994 4.17631 18.4502 4.53211
194 1 -1.1104 15.9994 8.01479 19.2649 0.972219
195 1 -1.1104 15.9994 10.2861 13.8945 3.99226
196 1 -1.1104 15.9994 4.38867 12.6872 4.53407
197 1 -1.1104 15.9994 7.23037 12.4222 4.60969
198 1 -1.1104 15.9994 4.29207 21.6317 4.44868
199 1 -1.1104 15.9994 9.17922 19.4394 4.72461
200 1 -1.1104 15.9994 4.22327 15.677 4.59625
201 1 -1.1104 15.9994 10.199 16.9837 4.90735
138 1 -1.1104 15.9994 7.07159 3.06588 1.82617
203 1 -1.1104 15.9994 12.8915 15.8592 4.35818
204 1 -1.1104 15.9994 12.8433 18.7691 1.38179
205 1 -1.1104 15.9994 12.8419 18.6922 4.05738
206 1 -1.1104 15.9994 1.80958 19.0211 1.63886
207 1 -1.1104 15.9994 4.21209 21.419 1.59064
208 1 -1.1104 15.9994 1.3999 21.5749 4.24322
209 1 -1.1104 15.9994 4.09057 21.6244 7.08474
210 1 -1.1104 15.9994 7.07936 21.908 4.42103
211 1 -1.1104 15.9994 9.82637 21.998 1.48476
212 1 -1.1104 15.9994 6.82817 18.9742 3.76398
213 1 -1.1104 15.9994 10.1524 21.7397 4.31875
214 1 -1.1104 15.9994 12.446 21.5882 1.49522
215 1 -1.1104 15.9994 13.0012 21.987 3.97943
216 1 -1.1104 15.9994 1.43518 -1.45248 7.11666
217 1 -1.1104 15.9994 4.25661 -1.72516 7.14118
218 1 -1.1104 15.9994 1.58629 -1.45812 9.78842
219 1 -1.1104 15.9994 4.16777 -2.06229 10.1549
220 1 -1.1104 15.9994 1.12361 1.50125 7.34701
221 1 -1.1104 15.9994 3.56464 0.264063 8.71948
222 1 -1.1104 15.9994 1.509 1.04005 10.2378
223 1 -1.1104 15.9994 4.03329 3.07792 10.17
224 1 -1.1104 15.9994 7.14047 -1.71372 7.48781
334 1 -1.1104 15.9994 12.6272 10.0405 12.7832
226 1 -1.1104 15.9994 6.86245 -1.74317 10.2134
227 1 -1.1104 15.9994 9.84621 1.32226 10.2833
228 1 -1.1104 15.9994 5.34498 1.005 6.63248
229 1 -1.1104 15.9994 7.25694 0.862863 8.65798
230 1 -1.1104 15.9994 5.22588 0.642722 10.7168
231 1 -1.1104 15.9994 7.21767 2.61753 10.5661
333 1 -1.1104 15.9994 9.66055 12.8339 12.7944
233 1 -1.1104 15.9994 12.6535 -1.7562 10.366
234 1 -1.1104 15.9994 12.5623 -1.5976 5.30654
235 1 -1.1104 15.9994 12.7198 4.18211 10.107
236 1 -1.1104 15.9994 1.00243 4.14786 7.28755
237 1 -1.1104 15.9994 3.22537 5.34796 8.95193
238 1 -1.1104 15.9994 1.14611 4.14835 10.1715
239 1 -1.1104 15.9994 3.95996 4.18676 13.1145
240 1 -1.1104 15.9994 1.19967 6.84605 6.54676
241 1 -1.1104 15.9994 4.22727 7.69953 7.66957
242 1 -1.1104 15.9994 0.994101 7.18732 9.65808
243 1 -1.1104 15.9994 4.06199 7.39667 10.6021
244 1 -1.1104 15.9994 5.5376 4.76685 7.15007
245 1 -1.1104 15.9994 9.44196 0.0627556 7.5187
246 1 -1.1104 15.9994 5.66202 5.04065 11.0189
247 1 -1.1104 15.9994 7.5063 5.06077 9.16165
248 1 -1.1104 15.9994 6.71995 7.39257 7.29596
249 1 -1.1104 15.9994 9.53231 6.70506 6.19984
250 1 -1.1104 15.9994 6.93318 7.54498 10.1957
251 1 -1.1104 15.9994 10.2961 7.48463 9.20832
252 1 -1.1104 15.9994 11.292 2.19135 7.90446
253 1 -1.1104 15.9994 9.88101 4.4951 10.2132
254 1 -1.1104 15.9994 12.6762 7.15916 7.35066
255 1 -1.1104 15.9994 13.0799 7.15657 10.1768
256 1 -1.1104 15.9994 1.53551 9.61282 7.41706
257 1 -1.1104 15.9994 4.10045 10.2875 7.13472
258 1 -1.1104 15.9994 1.12614 10.0287 10.147
259 1 -1.1104 15.9994 4.04912 10.0634 10.0812
260 1 -1.1104 15.9994 1.48307 12.9142 7.35616
261 1 -1.1104 15.9994 4.30295 13.0313 7.32646
262 1 -1.1104 15.9994 1.03747 13.0331 9.98829
263 1 -1.1104 15.9994 4.19523 12.9714 10.3142
264 1 -1.1104 15.9994 7.0976 10.3496 7.19247
265 1 -1.1104 15.9994 9.56932 9.88819 7.27791
266 1 -1.1104 15.9994 7.03349 10.2106 10.0238
267 1 -1.1104 15.9994 9.74871 10.2851 10.1992
268 1 -1.1104 15.9994 7.0012 13.0214 7.16351
269 1 -1.1104 15.9994 10.0625 12.835 7.17645
270 1 -1.1104 15.9994 7.13814 13.0816 10.09
271 1 -1.1104 15.9994 9.79018 13.2078 10.2513
272 1 -1.1104 15.9994 12.554 10.0606 7.37561
273 1 -1.1104 15.9994 12.8228 9.8082 10.266
274 1 -1.1104 15.9994 12.7315 12.8573 7.56003
275 1 -1.1104 15.9994 12.9067 12.802 10.1226
276 1 -1.1104 15.9994 1.24159 15.743 7.14915
277 1 -1.1104 15.9994 3.93097 15.8926 7.24728
278 1 -1.1104 15.9994 1.2885 16.0327 9.89491
279 1 -1.1104 15.9994 4.24484 15.8833 10.259
280 1 -1.1104 15.9994 1.28786 18.5151 7.33468
281 1 -1.1104 15.9994 4.19926 18.6904 7.1919
282 1 -1.1104 15.9994 1.44823 18.6529 10.1488
283 1 -1.1104 15.9994 4.1682 18.7613 10.008
284 1 -1.1104 15.9994 7.0124 15.7526 7.07605
285 1 -1.1104 15.9994 9.98845 15.6894 7.2054
286 1 -1.1104 15.9994 7.14439 15.7851 9.96371
287 1 -1.1104 15.9994 10.1169 15.814 9.97188
288 1 -1.1104 15.9994 6.90859 18.6679 7.20336
289 1 -1.1104 15.9994 9.89934 18.6331 7.15446
290 1 -1.1104 15.9994 7.08118 18.6897 9.91739
291 1 -1.1104 15.9994 9.91512 18.7218 9.85607
292 1 -1.1104 15.9994 12.8518 15.5959 7.27682
293 1 -1.1104 15.9994 12.5559 15.8872 9.99433
294 1 -1.1104 15.9994 12.7525 18.847 6.86518
295 1 -1.1104 15.9994 12.6421 18.8728 9.62052
296 1 -1.1104 15.9994 1.53811 21.5776 7.0331
9194 2 2.2208 232.038 0.0458432 -0.370321 8.65082
298 1 -1.1104 15.9994 1.53541 21.4076 9.88786
299 1 -1.1104 15.9994 4.19888 21.5225 10.1206
300 1 -1.1104 15.9994 6.77773 21.1846 7.40929
301 1 -1.1104 15.9994 9.65914 21.652 7.14154
302 1 -1.1104 15.9994 6.93817 21.5159 10.2581
303 1 -1.1104 15.9994 9.63864 21.5295 9.96375
304 1 -1.1104 15.9994 12.425 21.5089 6.68818
305 1 -1.1104 15.9994 12.6297 21.7973 9.45061
306 1 -1.1104 15.9994 1.52075 -1.25429 12.5873
307 1 -1.1104 15.9994 4.1558 -1.77411 12.852
308 1 -1.1104 15.9994 1.13749 1.58732 13.134
309 1 -1.1104 15.9994 4.11024 0.98234 13.0435
310 1 -1.1104 15.9994 6.98358 -1.79519 12.9705
311 1 -1.1104 15.9994 9.9964 -1.41459 13.0301
312 1 -1.1104 15.9994 6.93963 1.33985 13.0148
313 1 -1.1104 15.9994 10.0323 1.29755 13.1049
314 1 -1.1104 15.9994 12.8703 -1.41534 13.4301
315 1 -1.1104 15.9994 12.7169 1.31084 13.0693
316 1 -1.1104 15.9994 1.28578 4.30766 12.9006
617 1 -1.1104 15.9994 1.11256 -0.0651921 1.24325
318 1 -1.1104 15.9994 1.20378 7.1092 12.5875
319 1 -1.1104 15.9994 3.96931 7.29288 13.2001
320 1 -1.1104 15.9994 6.62739 4.16047 13.4432
321 1 -1.1104 15.9994 9.62544 4.19121 12.8921
322 1 -1.1104 15.9994 6.67576 7.44643 12.9987
323 1 -1.1104 15.9994 9.37155 7.10087 12.4003
324 1 -1.1104 15.9994 12.4601 4.25145 13.111
325 1 -1.1104 15.9994 12.3197 6.99106 12.9399
326 1 -1.1104 15.9994 1.18447 9.93333 12.8328
327 1 -1.1104 15.9994 4.24975 10.2135 12.6974
328 1 -1.1104 15.9994 1.18256 13.0419 12.5746
329 1 -1.1104 15.9994 4.03425 13.0702 12.9915
330 1 -1.1104 15.9994 7.21838 10.242 12.8965
331 1 -1.1104 15.9994 9.73422 10.1831 12.8771
332 1 -1.1104 15.9994 6.86431 12.9106 12.8271
8475 4 2.2208 232.038 12.7925 -1.81264 3.03071
9170 3 -1.1104 15.9994 1.59702 10.8105 0.583648
64 3 -1.1104 15.9994 9.99058 16.3949 1.72349
4 3 -1.1104 15.9994 10.3569 19.0354 2.49282
122 2 2.2208 232.038 2.96497 22.9515 11.3968
61 2 2.2208 232.038 0.451371 2.65748 5.53506
191 1 -1.1104 15.9994 0.490617 16.16 1.01861
26 3 -1.1104 15.9994 1.74317 4.44979 0.135137
731 2 2.2208 232.038 5.68986 20.0694 0.129333
9237 2 2.2208 232.038 13.8004 11.3474 5.54112
9189 2 2.2208 232.038 -0.146348 11.4673 8.71957
712 2 2.2208 232.038 8.12597 0.0819412 -0.0499089
132 1 -1.1104 15.9994 0.974017 0.454193 4.45169
725 2 2.2208 232.038 2.64714 17.2123 0.0435611
726 2 2.2208 232.038 5.71408 14.5961 0.0421871
9179 2 2.2208 232.038 -0.0853006 2.68763 11.635
9169 2 2.2208 232.038 -0.200313 14.5715 11.2163
48 2 2.2208 232.038 5.51321 23.1669 2.92046
9184 2 2.2208 232.038 -0.0452836 14.0933 6.17131
9200 2 2.2208 232.038 -0.23158 11.8487 3.19023
705 2 2.2208 232.038 13.8928 22.9569 0.166675
9365 1 -1.1104 15.9994 -0.163895 16.327 4.69523
9175 2 2.2208 232.038 0.131818 20.1002 11.4884
723 2 2.2208 232.038 11.1821 8.73166 -0.1687
684 1 -1.1104 15.9994 9.61595 18.7668 24.1975
373 2 2.2208 232.038 8.4603 20.3707 14.3446
473 2 2.2208 232.038 5.58063 23.0612 25.3036
434 2 2.2208 232.038 11.5637 -2.80456 22.6955
680 1 -1.1104 15.9994 9.64141 15.6387 23.9716
355 2 2.2208 232.038 11.2183 -0.0802775 14.4264
369 2 2.2208 232.038 5.82666 17.4521 14.1896
721 2 2.2208 232.038 5.92199 8.81467 28.0863
352 2 2.2208 232.038 0.0426946 -0.11875 14.2275
626 1 -1.1104 15.9994 9.99889 1.42226 27.6442
475 2 2.2208 232.038 11.1652 23.1093 25.4263
362 1 -1.1104 15.9994 12.3119 21.3926 26.9313
366 2 2.2208 232.038 2.53061 14.3907 14.4081
421 2 2.2208 232.038 8.32454 23.0447 17.0728
423 2 2.2208 232.038 5.51358 23.0343 19.8472
356 2 2.2208 232.038 2.76471 2.68326 14.4107
367 1 -1.1104 15.9994 12.7056 21.481 24.1063
17654 2 2.2208 232.038 -0.0564089 -2.87842 22.7248
679 1 -1.1104 15.9994 6.92398 15.8507 23.9919
471 2 2.2208 232.038 8.32216 22.9959 22.5186
358 2 2.2208 232.038 8.1232 2.67967 14.5359
372 1 -1.1104 15.9994 9.65257 21.7076 26.7353
417 2 2.2208 232.038 2.76614 22.7946 16.8783
363 2 2.2208 232.038 8.34503 8.75803 14.2847
720 2 2.2208 232.038 3.04412 11.8856 28.0084
376 1 -1.1104 15.9994 6.863 21.7458 26.8858
377 2 2.2208 232.038 2.86127 -0.100108 17.2711
692 1 -1.1104 15.9994 4.22397 21.4556 23.9412
682 1 -1.1104 15.9994 9.74478 15.842 26.8659
691 1 -1.1104 15.9994 1.43777 21.5592 24.0857
381 2 2.2208 232.038 8.39199 -0.13275 17.0802
350 2 2.2208 232.038 -0.163482 5.74022 14.2431
383 2 2.2208 232.038 5.59301 -0.0843729 19.8625
365 2 2.2208 232.038 11.217 11.5115 14.1198
385 2 2.2208 232.038 11.5266 0.0920891 19.9327
681 1 -1.1104 15.9994 6.98686 16.0231 26.8946
387 2 2.2208 232.038 2.66964 5.62276 16.9895
388 2 2.2208 232.038 2.93442 2.88741 19.699
690 1 -1.1104 15.9994 12.8389 18.6233 26.8154
390 2 2.2208 232.038 5.65175 2.66156 17.0295
391 2 2.2208 232.038 8.25598 5.87606 17.0439
392 2 2.2208 232.038 8.43516 2.77955 19.9853
393 2 2.2208 232.038 5.6387 5.59847 19.7047
394 2 2.2208 232.038 11.1369 2.8229 17.0494
395 2 2.2208 232.038 11.25 5.74109 19.9847
689 1 -1.1104 15.9994 12.6704 18.8572 23.9709
397 2 2.2208 232.038 2.66348 11.5397 16.9625
398 2 2.2208 232.038 2.72845 8.43102 19.7355
688 1 -1.1104 15.9994 12.7122 15.6941 27.0175
400 2 2.2208 232.038 5.59656 8.62923 17.1928
401 2 2.2208 232.038 8.11748 11.7518 17.1148
402 2 2.2208 232.038 8.18758 8.52006 19.9062
403 2 2.2208 232.038 5.60423 11.6581 19.6848
404 2 2.2208 232.038 11.0901 8.65012 17.1121
405 2 2.2208 232.038 11.0791 11.4186 19.6794
406 1 -1.1104 15.9994 9.81956 21.6418 23.9755
407 2 2.2208 232.038 2.77097 17.4914 17.0229
408 2 2.2208 232.038 2.79797 14.3108 19.8605
678 1 -1.1104 15.9994 4.16078 18.9539 27.1639
410 2 2.2208 232.038 5.63607 14.5673 17.0851
411 2 2.2208 232.038 8.31772 17.2234 17.1149
412 2 2.2208 232.038 8.56652 14.4175 19.9947
413 2 2.2208 232.038 5.61771 17.1993 20.0237
414 2 2.2208 232.038 11.2399 14.3629 16.9792
415 2 2.2208 232.038 11.2138 17.1455 19.8032
683 1 -1.1104 15.9994 7.05165 18.9136 24.1322
317 1 -1.1104 15.9994 3.99678 4.26277 15.7751
418 2 2.2208 232.038 2.6041 20.2372 19.9355
9588 2 2.2208 232.038 -0.0707781 -0.0657252 25.7097
420 2 2.2208 232.038 5.56658 20.0429 17.1565
396 2 2.2208 232.038 -0.225105 8.65415 17.0248
422 2 2.2208 232.038 8.59158 20.119 19.7517
370 2 2.2208 232.038 11.0452 17.2314 14.1299
424 2 2.2208 232.038 11.4425 19.7967 16.9476
425 2 2.2208 232.038 10.8537 22.8764 19.8353
426 1 -1.1104 15.9994 6.97794 21.6736 23.9683
427 2 2.2208 232.038 2.62726 0.235355 22.6656
9165 2 2.2208 232.038 8.57644 -2.67889 25.2451
429 1 -1.1104 15.9994 4.09804 21.4126 26.9902
687 1 -1.1104 15.9994 12.5262 15.8587 24.053
431 2 2.2208 232.038 8.56592 0.0475304 22.4125
386 2 2.2208 232.038 -0.110187 2.88627 17.1463
433 2 2.2208 232.038 5.71316 0.0755246 25.2635
9718 1 -1.1104 15.9994 1.26536 7.0617 20.8548
435 2 2.2208 232.038 11.3284 0.174113 25.4099
686 1 -1.1104 15.9994 10.2774 18.4352 27.5376
437 2 2.2208 232.038 2.67556 5.87376 22.6232
438 2 2.2208 232.038 2.52639 3.08697 25.2792
439 1 -1.1104 15.9994 1.3465 21.4972 26.7519
440 2 2.2208 232.038 5.48723 2.95987 22.6506
441 2 2.2208 232.038 8.22335 5.62455 22.7533
442 2 2.2208 232.038 8.34733 3.08756 25.1682
443 2 2.2208 232.038 5.45415 5.99024 25.2669
444 2 2.2208 232.038 11.2531 3.16518 22.5401
445 2 2.2208 232.038 11.3459 5.70357 25.5658
9788 1 -1.1104 15.9994 0.276332 3.8876 26.347
447 2 2.2208 232.038 2.82643 11.529 22.4247
448 2 2.2208 232.038 2.59346 8.63046 25.2275
724 2 2.2208 232.038 -0.0130406 14.4664 27.9958
450 2 2.2208 232.038 5.52969 8.97748 22.5962
451 2 2.2208 232.038 8.55682 11.4804 22.9079
452 2 2.2208 232.038 8.52922 8.67766 25.5146
453 2 2.2208 232.038 5.75954 11.6389 25.5863
454 2 2.2208 232.038 11.0494 8.593 22.6995
455 2 2.2208 232.038 11.2806 11.6205 25.3056
685 1 -1.1104 15.9994 7.09904 19.0206 26.8185
457 2 2.2208 232.038 2.69105 17.4143 22.7606
458 2 2.2208 232.038 2.77519 14.3879 25.1874
378 2 2.2208 232.038 2.74872 -2.82624 19.8826
460 2 2.2208 232.038 5.50957 14.4031 22.7647
461 2 2.2208 232.038 8.40044 17.4448 22.7406
462 2 2.2208 232.038 8.26489 14.2786 25.3774
463 2 2.2208 232.038 5.6007 17.3636 25.4831
464 2 2.2208 232.038 11.2178 14.391 22.5899
465 2 2.2208 232.038 11.395 17.4281 25.6752
9516 2 2.2208 232.038 -0.1184 17.2341 14.2121
701 2 2.2208 232.038 13.9956 11.6059 22.4152
468 2 2.2208 232.038 2.88869 20.0717 25.3155
371 2 2.2208 232.038 2.79216 20.1312 14.2364
470 2 2.2208 232.038 5.5148 20.2315 22.5258
710 2 2.2208 232.038 3.27937 0.0462658 28.129
472 2 2.2208 232.038 8.24682 20.505 25.4084
693 2 2.2208 232.038 13.9662 5.67202 17.0491
474 2 2.2208 232.038 11.4192 20.161 22.8074
722 2 2.2208 232.038 8.6033 11.5185 27.7868
476 1 -1.1104 15.9994 1.38725 -1.68894 15.7379
477 1 -1.1104 15.9994 4.22159 -1.62453 15.6917
478 1 -1.1104 15.9994 1.22227 1.00896 15.8604
479 1 -1.1104 15.9994 4.02886 1.44302 15.9902
480 1 -1.1104 15.9994 7.04984 -1.63795 15.5465
481 1 -1.1104 15.9994 9.84639 -1.54682 15.6852
482 1 -1.1104 15.9994 6.7592 1.40738 15.7041
483 1 -1.1104 15.9994 9.72101 1.31313 15.9913
484 1 -1.1104 15.9994 12.7692 -1.81227 16.0393
485 1 -1.1104 15.9994 12.4826 1.39308 15.6789
467 2 2.2208 232.038 2.79093 23.0837 22.6722
487 1 -1.1104 15.9994 1.16473 4.13019 15.7051
488 1 -1.1104 15.9994 1.34321 7.13096 15.4911
489 1 -1.1104 15.9994 4.18883 7.24316 15.7711
490 1 -1.1104 15.9994 6.88109 4.1191 15.704
491 1 -1.1104 15.9994 9.40707 4.40738 15.597
492 1 -1.1104 15.9994 6.97309 7.23872 15.9122
493 1 -1.1104 15.9994 9.74368 7.35804 15.3864
494 1 -1.1104 15.9994 12.3719 4.3434 15.7948
495 1 -1.1104 15.9994 12.4961 7.12545 16.0007
496 1 -1.1104 15.9994 1.12817 9.93526 15.4209
497 1 -1.1104 15.9994 3.94038 10.3396 15.6104
498 1 -1.1104 15.9994 1.32153 12.9905 15.5109
499 1 -1.1104 15.9994 3.9811 13.034 15.8598
500 1 -1.1104 15.9994 6.66664 10.4928 15.8198
501 1 -1.1104 15.9994 9.63663 10.0305 15.7808
502 1 -1.1104 15.9994 6.64325 13.1446 15.4309
503 1 -1.1104 15.9994 9.86693 13.0942 15.8204
504 1 -1.1104 15.9994 12.5429 9.8321 15.6578
505 1 -1.1104 15.9994 12.8218 12.8773 15.5321
506 1 -1.1104 15.9994 1.23475 16.0248 15.6539
507 1 -1.1104 15.9994 3.86467 15.7676 15.7561
508 1 -1.1104 15.9994 1.21967 18.8395 15.5688
509 1 -1.1104 15.9994 4.26987 18.744 15.6592
510 1 -1.1104 15.9994 6.90036 15.7162 15.7708
511 1 -1.1104 15.9994 9.6014 15.8302 15.4516
512 1 -1.1104 15.9994 7.08155 18.6593 15.8105
513 1 -1.1104 15.9994 9.70799 18.8033 15.553
514 1 -1.1104 15.9994 12.5356 15.7213 15.521
515 1 -1.1104 15.9994 12.6751 18.5824 15.1388
516 1 -1.1104 15.9994 1.22287 21.6072 15.4478
517 1 -1.1104 15.9994 4.13006 21.7456 15.6655
518 1 -1.1104 15.9994 6.92208 21.61 15.6131
519 1 -1.1104 15.9994 9.91851 21.7002 15.6542
520 1 -1.1104 15.9994 12.7139 21.4779 15.3394
521 1 -1.1104 15.9994 1.16661 -1.46348 18.3908
522 1 -1.1104 15.9994 4.18367 -1.53893 18.542
523 1 -1.1104 15.9994 1.68987 -1.50256 21.267
524 1 -1.1104 15.9994 4.37536 -1.30187 21.4843
525 1 -1.1104 15.9994 1.66314 1.43925 18.6994
526 1 -1.1104 15.9994 4.35338 1.26923 18.4172
527 1 -1.1104 15.9994 1.00346 1.49139 21.5264
528 1 -1.1104 15.9994 3.85077 1.60793 21.2917
529 1 -1.1104 15.9994 6.90572 -1.64118 18.2026
530 1 -1.1104 15.9994 10.1123 -1.21463 18.458
531 1 -1.1104 15.9994 7.23677 -1.27439 21.119
532 1 -1.1104 15.9994 10.2554 -1.38953 20.9668
533 1 -1.1104 15.9994 6.99697 1.01386 18.5703
534 1 -1.1104 15.9994 9.92664 1.36869 18.9207
535 1 -1.1104 15.9994 6.83566 1.55692 21.4395
536 1 -1.1104 15.9994 9.9539 1.5171 21.5155
537 1 -1.1104 15.9994 12.8639 -1.4631 18.8016
538 1 -1.1104 15.9994 13.2039 -1.46145 21.4158
539 1 -1.1104 15.9994 12.6574 1.39768 18.4662
540 1 -1.1104 15.9994 12.4927 1.63888 21.3516
541 1 -1.1104 15.9994 1.40794 4.35978 18.48
542 1 -1.1104 15.9994 4.40518 4.21277 18.4368
543 1 -1.1104 15.9994 1.28432 4.30464 21.3459
544 1 -1.1104 15.9994 3.92871 4.47225 21.1004
545 1 -1.1104 15.9994 1.28372 7.24226 18.131
546 1 -1.1104 15.9994 4.16478 7.07925 18.3225
547 1 -1.1104 15.9994 3.87284 7.45557 21.4267
548 1 -1.1104 15.9994 4.15793 10.2155 21.2267
549 1 -1.1104 15.9994 7.11696 4.11903 18.7911
550 1 -1.1104 15.9994 9.79659 4.53394 18.4004
551 1 -1.1104 15.9994 6.74734 4.24319 21.6278
552 1 -1.1104 15.9994 9.60996 4.40836 21.1552
553 1 -1.1104 15.9994 6.93929 7.14365 18.5262
554 1 -1.1104 15.9994 9.65713 7.06192 18.8193
555 1 -1.1104 15.9994 6.8766 7.15599 21.2907
556 1 -1.1104 15.9994 9.78524 6.96902 21.3374
557 1 -1.1104 15.9994 12.662 4.25444 18.4311
558 1 -1.1104 15.9994 12.7131 4.44285 21.2504
559 1 -1.1104 15.9994 12.7065 6.82632 18.5937
560 1 -1.1104 15.9994 12.6031 7.30955 21.4767
561 1 -1.1104 15.9994 1.4407 10.0623 18.1443
562 1 -1.1104 15.9994 4.23903 10.0226 18.3318
563 1 -1.1104 15.9994 1.25586 10.2492 20.923
564 1 -1.1104 15.9994 4.07686 10.007 24.0828
565 1 -1.1104 15.9994 1.51491 13.0356 18.3012
566 1 -1.1104 15.9994 4.3318 12.8799 18.3963
567 1 -1.1104 15.9994 1.51348 12.9742 21.4174
568 1 -1.1104 15.9994 4.4313 13.0212 21.1164
569 1 -1.1104 15.9994 7.03896 10.2009 18.5803
570 1 -1.1104 15.9994 9.60363 9.9553 18.2843
571 1 -1.1104 15.9994 7.05885 10.1811 21.4654
572 1 -1.1104 15.9994 9.72597 10.057 21.1218
573 1 -1.1104 15.9994 6.81657 13.0229 18.41
574 1 -1.1104 15.9994 9.57843 13.0189 18.565
575 1 -1.1104 15.9994 7.26082 12.9651 21.2295
576 1 -1.1104 15.9994 10.1941 13.0432 21.3224
577 1 -1.1104 15.9994 12.6416 9.84666 18.4151
578 1 -1.1104 15.9994 12.7354 9.9999 21.1045
579 1 -1.1104 15.9994 12.4182 12.8106 18.3621
580 1 -1.1104 15.9994 12.7387 13.0134 21.199
581 1 -1.1104 15.9994 1.47981 15.9479 18.1973
582 1 -1.1104 15.9994 4.36288 15.8776 18.5167
583 1 -1.1104 15.9994 1.47597 15.66 21.2537
584 1 -1.1104 15.9994 4.06521 16.032 21.3164
585 1 -1.1104 15.9994 1.19545 18.8883 18.5614
586 1 -1.1104 15.9994 3.93706 18.9812 18.6074
587 1 -1.1104 15.9994 1.10488 18.8911 21.2309
588 1 -1.1104 15.9994 4.17079 18.8085 21.2852
589 1 -1.1104 15.9994 7.15262 15.9674 18.7885
590 1 -1.1104 15.9994 9.97261 15.7939 18.3027
591 1 -1.1104 15.9994 6.97456 15.9863 21.4054
592 1 -1.1104 15.9994 9.91926 15.9381 21.1864
593 1 -1.1104 15.9994 7.14582 18.634 18.486
594 1 -1.1104 15.9994 9.86915 18.6633 18.4472
595 1 -1.1104 15.9994 6.89408 18.5714 21.1835
596 1 -1.1104 15.9994 9.80998 18.8681 21.1781
597 1 -1.1104 15.9994 12.7965 15.4019 18.2812
598 1 -1.1104 15.9994 12.6418 15.8234 21.2098
599 1 -1.1104 15.9994 12.5922 18.2579 18.0679
600 1 -1.1104 15.9994 12.6515 18.5971 20.8988
601 1 -1.1104 15.9994 1.26779 21.5624 18.3939
602 1 -1.1104 15.9994 3.99593 21.6417 18.3828
603 1 -1.1104 15.9994 1.27134 21.6054 21.3056
604 1 -1.1104 15.9994 4.14947 21.7783 21.121
605 1 -1.1104 15.9994 6.98408 21.5932 18.588
606 1 -1.1104 15.9994 9.97058 21.3431 18.2465
607 1 -1.1104 15.9994 6.98557 21.5951 21.3764
608 1 -1.1104 15.9994 9.68758 21.6555 21.1797
609 1 -1.1104 15.9994 12.7137 21.3702 18.1392
610 1 -1.1104 15.9994 12.5715 21.5227 21.3724
611 1 -1.1104 15.9994 1.37983 -1.54216 24.1624
612 1 -1.1104 15.9994 4.27794 -1.4 24.1664
613 1 -1.1104 15.9994 1.43592 -1.21734 26.926
614 1 -1.1104 15.9994 4.32562 -1.54094 26.9314
615 1 -1.1104 15.9994 1.24946 1.52756 24.2099
616 1 -1.1104 15.9994 4.07291 1.453 23.914
374 2 2.2208 232.038 5.58664 23.0642 14.4077
618 1 -1.1104 15.9994 4.28296 1.62863 26.6858
619 1 -1.1104 15.9994 7.20409 -1.25691 23.6843
620 1 -1.1104 15.9994 10.1791 -1.1266 23.8865
621 1 -1.1104 15.9994 7.20039 -1.5123 26.5518
622 1 -1.1104 15.9994 10.0754 -1.14065 26.9384
623 1 -1.1104 15.9994 6.94682 1.61326 24.0489
624 1 -1.1104 15.9994 9.61707 1.3871 24.4177
625 1 -1.1104 15.9994 6.94946 1.58957 26.8054
389 2 2.2208 232.038 -0.0802186 5.51908 19.7321
627 1 -1.1104 15.9994 12.9871 -1.50578 24.0341
628 1 -1.1104 15.9994 12.8164 -1.3475 26.5839
629 1 -1.1104 15.9994 12.509 1.39368 24.014
630 1 -1.1104 15.9994 12.6895 1.66725 26.5443
631 1 -1.1104 15.9994 1.28814 4.36306 23.9717
632 1 -1.1104 15.9994 3.98541 4.70468 24.1041
633 1 -1.1104 15.9994 1.64627 1.49469 26.9695
634 1 -1.1104 15.9994 4.02514 4.55092 26.4787
635 1 -1.1104 15.9994 1.03332 7.37806 23.895
636 1 -1.1104 15.9994 4.09055 7.40465 24.0207
368 2 2.2208 232.038 8.37688 14.1852 14.2106
638 1 -1.1104 15.9994 1.80604 6.74063 26.6876
639 1 -1.1104 15.9994 6.84771 4.564 24.2401
640 1 -1.1104 15.9994 9.72708 4.22215 23.9322
351 2 2.2208 232.038 2.66571 -2.97773 14.5462
642 1 -1.1104 15.9994 10.119 4.03967 26.5505
643 1 -1.1104 15.9994 7.22781 7.45688 23.9396
644 1 -1.1104 15.9994 9.99704 6.85135 24.113
645 1 -1.1104 15.9994 7.20941 7.2775 26.8241