ITEM: TIMESTEP
100000
ITEM: NUMBER OF ATOMS
18000
ITEM: BOX BOUNDS xy xz yz pp pp pp
-1.3418832471306266e-01 2.8028188324712691e+01 0.0000000000000000e+00
-1.7293278567713499e+00 3.3645732785676722e+02 0.0000000000000000e+00
-1.3941817537021550e-01 2.8033418175370617e+01 0.0000000000000000e+00
ITEM: ATOMS id type x y z
1 1 1.31071 -0.247856 1.276
2 1 4.12208 -0.213997 1.26758
3 1 4.10579 -0.260553 4.17808
4 1 1.46981 -0.432901 4.39646
5 1 1.64572 2.50254 1.08125
6 1 4.38122 2.63469 1.07234
7 1 4.38344 2.4495 4.13987
8 1 1.56483 2.47748 4.10581
12150 2 11.1079 23.706 13.7568
10 1 10.0007 2.4199 0.916813
11 1 9.80765 -0.160553 4.08187
12 1 7.11277 2.54352 3.86935
13 1 7.03473 5.19472 1.16232
14 1 9.85544 5.29649 1.12121
15 1 9.83464 2.69203 3.75245
16 1 7.08078 5.40238 4.08179
20 1 12.6529 2.36415 3.93175
18 1 12.8092 -0.364806 4.23871
19 1 12.5634 5.10607 4.10084
12147 2 0.0463051 23.7374 13.7762
21 1 1.46023 5.10874 1.28134
22 1 4.13347 5.36922 1.41221
23 1 4.31831 5.25586 4.21972
24 1 1.44834 5.34581 4.11796
25 1 1.51841 7.92367 1.3843
26 1 4.27237 8.19159 1.17402
27 1 4.14981 8.07364 4.18585
28 1 1.49664 8.20575 4.19138
12059 2 11.2468 -1.72733 5.45785
30 1 7.0392 8.01352 1.24701
31 1 9.79633 5.26775 4.24545
32 1 6.88884 8.18445 3.84204
12071 2 0.0457031 9.53022 5.31705
34 1 9.85201 8.10278 1.09937
35 1 9.89681 8.17862 3.83828
36 1 7.05033 11.2101 6.90144
37 1 12.6845 5.40907 1.06555
38 1 12.6693 7.84584 3.89125
39 1 12.707 8.10881 1.16789
40 1 12.6941 10.66 4.00394
41 1 1.51203 10.7494 1.15951
42 1 4.11487 10.9763 1.5175
43 1 4.3449 10.8754 4.23755
44 1 1.48231 11.1801 3.99359
45 1 1.49505 13.7171 1.34976
46 1 4.29492 13.8409 1.36085
47 1 4.25458 13.5865 4.11746
48 1 1.51846 14.0271 3.95967
49 1 7.1225 11.0916 3.75037
50 1 9.66495 10.8456 1.02668
51 1 9.87774 11.093 3.84395
52 1 8.43614 9.19336 5.65705
53 1 7.06587 13.6752 1.07665
54 1 9.8791 13.8551 1.10445
12106 2 0.0408938 3.86784 11.1586
56 1 7.23731 13.6927 3.93008
57 1 12.6462 10.835 1.19333
55 1 13.1501 13.5238 3.71974
59 1 12.6691 13.6707 1.02393
60 1 12.6428 16.297 4.01812
61 1 1.25664 16.6406 1.35596
62 1 4.21525 16.7533 1.31053
63 1 4.23572 16.6294 4.1458
64 1 1.1539 16.6971 3.98487
65 1 1.23008 19.3348 1.10702
66 1 4.1132 19.2367 1.18103
67 1 4.21119 19.6066 3.92952
68 1 1.23251 19.4412 3.88786
69 1 6.87938 16.4679 1.16248
70 1 9.76115 16.6194 1.24239
71 1 9.62044 16.741 3.98107
72 1 6.97077 16.5461 4.05605
73 1 6.82536 19.5042 1.33295
74 1 9.63507 19.6043 1.31276
75 1 9.63488 19.6527 4.06555
76 1 6.86453 19.4465 4.02066
77 1 12.5351 16.6569 1.13941
78 1 12.4282 22.39 3.93833
79 1 12.4026 19.4176 1.1209
12140 2 11.147 12.5349 13.9182
81 1 1.16241 22.1692 1.24335
82 1 3.92989 22.1469 1.12434
83 1 3.98094 22.3065 4.20585
84 1 1.09415 22.4842 4.13769
85 1 6.97663 22.2769 1.2624
86 1 9.98858 22.3667 1.31459
87 1 9.65195 22.3211 4.00088
88 1 6.88112 22.1189 4.1129
372 1 6.9238 -0.0311406 0.972467
6133 1 11.2942 17.8239 5.63517
91 1 1.5863 -0.356134 7.18769
92 1 4.38128 -0.107031 6.868
93 1 4.31802 2.51509 9.62137
94 1 4.06147 -0.400664 9.74976
95 1 1.384 2.32074 6.98222
96 1 4.19742 2.59625 6.98097
97 1 7.49648 5.22718 6.92022
98 1 1.5924 2.50741 9.87434
99 1 7.09154 2.40863 6.92688
100 1 9.80956 -0.291034 6.84503
101 1 9.93903 -0.193597 9.8484
102 1 7.15579 2.41117 9.84102
103 1 6.88276 7.92993 7.18958
104 1 9.9044 2.53395 6.71825
105 1 10.0292 2.72406 9.76423
106 1 7.03154 5.30336 9.44465
107 1 12.4383 -0.504646 6.96946
108 1 12.6559 -0.253426 9.75388
109 1 12.753 2.40081 6.72789
110 1 12.8216 2.36543 9.59475
111 1 1.51944 5.25579 7.09464
112 1 4.26801 5.41402 6.87437
113 1 4.25466 5.36753 9.81744
114 1 1.2845 5.2562 9.71906
115 1 1.27376 8.24009 6.89021
116 1 4.02543 7.9923 7.05903
117 1 4.06915 8.26843 9.73365
118 1 1.33006 8.24647 9.83497
119 1 9.90423 11.2532 6.91096
120 1 9.89634 7.56391 6.88915
121 1 10.1151 5.02667 7.51293
122 1 9.66566 8.15674 9.42273
123 1 6.98908 7.9011 9.96476
124 1 12.6653 8.26509 6.69689
125 1 9.89256 5.65929 10.1015
126 2 8.45877 6.53651 8.28321
127 1 12.8581 5.36284 6.92164
128 1 12.7524 5.16703 9.89742
12034 2 -0.116358 18.0304 2.5947
130 1 12.5999 8.21606 9.62634
131 1 1.56844 11.0482 6.88802
132 1 4.1438 10.8845 7.00689
133 1 4.37815 11.0867 9.80188
134 1 1.53802 11.0472 9.68274
135 1 1.20755 14.005 7.04841
136 1 4.1096 13.7863 6.88436
137 1 4.06859 13.8026 9.5731
138 1 1.2288 13.8032 9.75339
139 1 9.73451 13.9409 6.91029
12146 2 2.8368 20.7996 13.6788
141 1 9.84938 11.0009 9.78886
142 1 6.88511 10.8976 9.58246
143 1 6.78814 13.85 6.81226
144 1 10.1461 13.715 4.05497
145 1 9.74776 13.8883 9.63543
146 1 6.90391 13.683 9.87867
147 1 12.7872 16.3608 6.89547
148 1 12.5129 11.0382 9.57383
149 1 9.51766 16.8136 7.12208
150 1 12.3971 13.81 9.3704
151 1 1.51936 16.8252 6.79358
152 1 4.11298 16.8259 7.03445
153 1 4.37514 16.4286 9.83852
154 1 1.36004 16.6924 9.38497
155 1 1.40704 19.5681 6.70099
156 1 4.17739 19.4662 6.7981
157 1 4.03344 19.6022 9.5096
158 1 1.41947 19.4403 9.65969
159 1 6.9891 16.612 6.74326
160 1 12.4511 19.522 3.96092
161 1 9.81721 16.76 9.69931
162 1 6.96212 16.5257 9.62192
163 1 6.92114 19.4545 6.88897
164 1 9.68004 19.8079 6.79974
165 1 9.79175 19.5204 9.70199
166 1 6.95147 19.4697 9.69101
12050 2 11.1422 23.5574 2.56502
168 1 12.6235 16.4746 9.85261
169 1 12.403 22.6346 6.69874
170 1 12.6199 19.1262 9.50658
171 1 1.32199 22.3557 6.70337
172 1 4.02381 22.3659 6.97217
173 1 4.32913 22.4406 9.65554
174 1 1.45425 22.1432 9.61672
175 1 6.90183 22.1435 6.94342
176 1 9.70766 22.52 6.98442
177 1 9.8583 22.2751 9.56966
178 1 6.97424 22.563 9.7699
412 1 6.91189 10.7572 1.048
180 1 12.755 22.3435 9.5992
181 1 1.71214 -0.355576 12.6816
182 1 4.31281 -0.195982 12.5573
183 1 1.47162 2.41792 12.6379
184 1 4.35085 2.68066 12.5698
185 1 7.12938 -0.384309 12.6472
186 1 10.0413 -0.121872 12.583
187 1 7.11176 2.59966 12.5315
188 1 9.89399 2.73159 12.6496
189 1 12.878 0.021101 12.5701
190 1 12.7006 2.57704 12.4524
191 1 1.51507 5.33289 12.4114
192 1 4.24691 5.30199 12.605
193 1 1.50421 8.26362 12.6278
194 1 4.34656 8.12834 12.4591
195 1 7.02677 5.24053 12.5447
196 1 9.72501 5.43619 12.7301
197 1 6.97172 8.25041 12.7474
198 1 9.8152 8.19624 12.3267
199 1 12.6422 5.56522 12.6649
200 1 12.5814 8.2647 12.4428
201 1 1.39429 11.0127 12.4712
202 1 4.1565 11.0135 12.4741
203 1 1.68871 13.6642 12.5723
204 1 4.39134 13.7627 12.3729
205 1 7.06812 10.993 12.2965
206 1 9.75617 10.9082 12.6125
207 1 7.01903 13.9671 12.7346
208 1 9.83472 14.0236 12.524
209 1 12.7642 11.0569 12.5253
210 1 12.5236 14.0338 12.5104
211 1 1.41133 16.4295 12.2379
212 1 4.13308 16.7889 12.4213
213 1 1.38704 19.3989 12.507
214 1 4.38774 19.5951 12.4409
215 1 6.94744 16.6436 12.3311
216 1 9.6463 16.8503 12.6712
217 1 7.11147 19.4973 12.5315
218 1 9.87142 19.6629 12.3386
219 1 12.5017 16.6627 12.7154
220 1 12.661 19.4896 12.1444
221 1 1.44402 22.2857 12.4103
222 1 4.0269 22.4384 12.5775
223 1 6.94966 22.3788 12.3706
224 1 9.6629 22.4468 12.4664
225 1 12.4913 22.2279 12.3514
12125 2 11.1993 20.9729 10.9881
12110 2 11.3329 4.15263 11.3972
17 1 12.7481 2.48317 1.00759
12124 2 8.44024 23.943 11.0558
6111 1 12.4328 10.9129 6.73029
12109 2 8.49432 6.77512 11.4238
12032 2 2.63687 17.9302 -0.164084
12008 2 5.6573 1.06422 2.56047
5723 1 7.07224 -0.205599 7.13931
12010 2 11.3088 0.950034 2.53536
12123 2 5.59629 21.0337 10.9842
12108 2 5.682 3.9923 11.0741
12013 2 2.86262 3.74391 2.71471
12122 2 2.74793 23.6572 11.057
12107 2 2.77804 6.76267 11.1235
12112 2 2.82022 12.4045 11.0871
12017 2 8.36272 3.86445 2.58393
12018 2 5.68496 6.69025 2.50065
12104 2 8.52448 1.13754 11.1976
12020 2 11.285 6.83264 2.47815
167 1 12.819 19.8825 6.80793
5634 1 9.81466 -0.382393 1.17854
12023 2 2.91548 9.38937 2.81922
12120 2 11.0219 15.4841 11.2099
12102 2 2.86501 1.00336 11.1943
12113 2 5.57722 9.63468 11.0706
12027 2 8.41658 9.56639 2.51801
12028 2 5.72245 12.2593 2.41351
12100 2 11.2517 23.8856 8.26081
12030 2 11.3123 12.2535 2.44522
12099 2 10.9656 20.9537 5.48847
12098 2 5.48173 23.7252 8.23241
12033 2 2.82813 15.0947 2.46443
12014 2 0.0728373 6.61402 2.77791
12097 2 8.2798 21.0551 8.33533
12096 2 8.43895 23.7976 5.47155
12037 2 8.41416 15.1818 2.59848
12038 2 5.65794 17.8261 2.64127
12095 2 5.49556 20.703 5.52596
12040 2 11.0272 18.1285 2.70374
5633 1 6.89683 -0.155615 4.11377
12093 2 2.66297 20.8007 8.10985
12043 2 2.67956 20.6878 2.56387
89 1 12.6253 22.2525 1.04966
12092 2 2.69646 23.7964 5.45119
12148 2 8.43769 20.879 13.8878
12047 2 8.20817 20.8009 2.59712
12048 2 5.50811 23.5242 2.48172
12090 2 11.1361 18.1326 8.20271
5639 1 12.6727 -0.26834 1.23021
12119 2 8.42146 18.0799 11.0629
12052 2 2.96651 1.09873 5.65203
12024 2 0.0271432 12.2926 2.53511
12118 2 5.67555 15.0938 11.146
12064 2 0.115743 6.76816 8.28631
12056 2 8.48385 1.20241 5.47378
5718 1 1.23436 -0.211082 10.0077
12058 2 5.69378 1.09913 8.361
9 1 7.16388 2.49016 1.05219
12060 2 11.3093 0.952563 8.27126
12117 2 2.75384 17.9774 10.879
12062 2 2.8263 6.58535 5.39422
12063 2 2.68316 3.78973 8.4243
12089 2 10.9303 15.512 5.5042
12065 2 5.66564 3.7324 5.48019
12066 2 8.50337 6.88999 5.01859
12067 2 8.58329 3.52559 8.3167
12068 2 5.30266 6.79707 8.43546
12069 2 11.3733 3.80027 5.38282
12070 2 11.5638 6.77062 8.25809
12115 2 11.2718 9.64435 11.1801
12072 2 2.78562 12.3426 5.41214
12073 2 2.57727 9.65596 8.30391
12114 2 8.42491 12.4491 11.1745
12075 2 5.82994 9.42408 5.52442
12076 2 8.49345 12.4583 5.31772
12077 2 8.43778 9.85831 8.06654
12078 2 5.51344 12.4353 8.31745
12079 2 10.9411 9.60472 5.4378
12080 2 11.143 12.3885 8.18839
12111 2 -0.0240589 9.60104 11.1384
12082 2 2.80219 17.9358 5.37533
12083 2 2.79885 15.1279 8.35931
12054 2 0.144434 1.05841 8.33266
12085 2 5.59775 15.1425 5.45463
12086 2 8.496 18.1853 5.48308
12087 2 8.0787 15.1361 8.33409
12088 2 5.62227 18.0099 8.2677
5726 1 7.10658 -0.240477 9.79517
140 1 12.6369 13.5678 6.32516
12061 2 0.108779 3.83952 5.54101
15081 2 13.7667 18.4635 5.48827
12105 2 11.2699 -1.58846 11.0625
12103 2 5.59502 -1.54444 11.1495
12149 2 5.50663 23.7312 13.8777
12091 2 -0.120556 21.0048 5.31023
12004 2 0.131236 1.08927 2.78484
12084 2 0.0502009 18.0778 8.02192
12081 2 -0.0623165 15.2742 5.2997
12055 2 5.66919 -1.60402 5.64404
12012 2 2.65781 6.46832 -0.0462416
12142 2 -0.0443788 18.111 13.8705
12132 2 0.168944 6.73432 13.9292
12094 2 -0.110878 23.6192 8.26645
12121 2 0.0469796 20.834 10.9981
15091 2 13.8903 23.7074 5.31208
12011 2 0.0648718 3.74428 -0.123941
12141 2 2.75769 15.3287 13.7908
12101 2 -0.0970154 -1.66617 11.1807
12074 2 0.0453773 12.4626 8.24142
12007 2 8.48312 -1.6234 2.72127
12144 2 5.62957 17.9054 13.7553
12137 2 0.0203732 12.4451 13.7616
12022 2 2.81357 12.2045 -0.116774
12128 2 8.57717 -1.58887 13.9143
12138 2 8.47241 9.57236 13.9134
12130 2 11.2797 1.33428 13.8146
226 1 4.1382 -0.325164 15.3964
227 1 1.51906 -0.280004 15.6021
228 1 4.36368 2.40184 15.3949
229 1 1.49215 2.40431 15.3068
230 1 9.84563 -0.236599 15.2794
231 1 6.90806 -0.277901 15.4299
232 1 9.88653 2.52218 15.4107
233 1 7.04344 2.41253 15.3852
234 1 12.6475 -0.165604 15.2802
235 1 12.6296 2.52902 15.397
236 1 4.25491 5.13937 15.4137
237 1 1.32026 5.23044 15.266
238 1 4.15281 7.99713 15.305
239 1 1.5624 8.00874 15.319
240 1 9.75137 5.41866 15.428
241 1 6.98164 5.34224 15.5013
242 1 10.0973 8.10097 15.3914
243 1 7.07533 8.23102 15.531
244 1 12.5877 5.1962 15.1749
245 1 12.8142 8.02636 15.1418
246 1 4.28376 10.903 15.1719
247 1 1.61842 10.9227 15.6067
248 1 4.20694 13.7911 15.294
249 1 1.48181 13.7679 15.2048
250 1 9.67469 11.0974 15.3183
251 1 7.01304 10.9282 15.1939
252 1 9.79231 13.8872 15.3494
253 1 7.04811 13.9179 15.4426
254 1 12.7014 10.8055 15.3611
255 1 12.5396 13.726 15.2462
256 1 4.18405 16.4801 15.233
257 1 1.41417 16.9155 15.3687
258 1 4.3259 19.4715 15.2062
259 1 1.43263 19.6792 15.2968
260 1 9.84072 16.5394 15.4468
261 1 6.99931 16.6423 15.1848
262 1 9.95844 19.467 15.3539
263 1 7.10405 19.5494 15.3329
264 1 12.5847 16.3547 15.5973
265 1 12.9081 19.3492 15.2652
266 1 4.25126 22.3361 15.3014
267 1 1.52652 22.2376 15.1749
268 1 9.94199 22.2672 15.2738
269 1 7.10687 22.254 15.209
270 1 12.6317 22.1708 15.295
271 1 1.52801 -0.411257 18.1716
272 1 4.23588 -0.31356 18.3024
273 1 4.42424 -0.415821 21.1147
274 1 1.66459 -0.465554 20.9553
275 1 1.50104 2.281 18.1002
276 1 4.46779 2.67985 18.2602
277 1 4.40175 2.32744 21.0682
278 1 1.4896 2.327 20.9739
279 1 7.0508 -0.438141 18.2447
280 1 9.77483 -0.362666 18.2375
281 1 9.62004 -0.34217 20.9134
282 1 7.11666 -0.430383 21.027
283 1 7.28255 2.28896 18.1657
284 1 10.0685 2.53743 18.251
285 1 9.85884 2.62326 21.0583
286 1 7.04663 2.37076 21.1529
287 1 12.5113 -0.191179 18.1881
288 1 12.5494 -0.227864 21.1227
289 1 12.7201 2.67285 18.2201
290 1 12.7713 2.3285 20.8995
291 1 1.38111 5.2504 18.1281
292 1 4.03622 5.53084 18.0258
293 1 4.24624 5.01749 20.9545
294 1 1.5234 5.40292 20.9188
295 1 1.37493 8.10696 18.1682
296 1 4.06956 8.3887 17.9638
297 1 4.04621 8.07723 20.992
298 1 1.41382 8.27579 21.0553
299 1 6.97006 5.239 18.4739
300 1 9.82528 5.45886 18.0071
301 1 9.89971 5.23021 20.8664
302 1 6.95323 5.26275 21.0947
303 1 6.8221 8.05895 18.1478
304 1 9.82253 8.19311 18.2648
305 1 9.73836 8.19345 20.9887
306 1 7.02975 8.07149 20.9496
307 1 12.523 5.30677 18.0345
308 1 12.6015 5.33114 20.9756
309 1 12.4508 8.09208 18.2167
310 1 12.5194 8.11287 20.8178
311 1 1.37203 10.9631 18.3462
312 1 4.21129 11.1463 18.1757
313 1 4.16345 10.8555 20.9348
314 1 1.11814 10.979 21.0444
315 1 1.18375 13.6998 17.9924
316 1 4.24564 14.0245 18.2142
317 1 4.15732 13.5886 21.0121
318 1 1.42374 13.7774 20.8704
319 1 6.73886 11.0078 18.0654
320 1 9.70979 10.9014 18.2344
321 1 9.82915 11.2022 21.0449
322 1 6.8949 10.7948 20.9865
323 1 6.94778 13.7855 18.2898
324 1 9.86443 13.7414 18.2163
325 1 9.9533 14.0289 21.0533
326 1 7.09518 13.7905 20.8297
327 1 12.4556 11.1124 18.0706
328 1 12.4725 10.8615 20.8719
329 1 12.6014 13.8004 18.2161
330 1 12.7137 13.9033 21.0201
331 1 1.46098 16.7109 18.0315
332 1 4.1431 16.8248 18.2311
333 1 4.14636 16.4514 21.0592
334 1 1.31607 16.6493 20.7877
335 1 1.35874 19.5674 18.1166
336 1 4.38891 19.5429 18.2611
337 1 4.16512 19.2634 20.986
338 1 1.33761 19.5165 20.8786
339 1 6.9532 16.5796 18.0869
340 1 9.76034 16.5787 18.2428
341 1 9.98939 16.6338 21.2544
342 1 7.00999 16.6101 20.8657
343 1 7.14555 19.4437 18.1177
344 1 9.87251 19.4828 18.1348
345 1 9.78507 19.4598 20.9077
346 1 7.05061 19.3722 21.0422
347 1 12.5838 16.7707 18.0943
348 1 12.9922 16.4701 20.918
349 1 12.5358 19.534 18.0805
350 1 12.5651 19.4452 21.0637
351 1 1.44141 22.2468 18.1306
352 1 3.98102 22.3921 18.1144
353 1 4.28034 22.0152 20.9567
354 1 1.42192 22.3064 20.908
355 1 6.95529 22.1885 18.1094
356 1 9.74217 22.2603 18.0606
357 1 9.8045 22.2983 20.8577
358 1 7.0657 22.2254 20.8996
359 1 12.6417 22.0581 18.143
360 1 12.6856 22.3236 20.9563
361 1 1.41309 -0.259725 23.8284
362 1 4.18399 -0.310781 23.8603
363 1 4.48605 -0.219028 26.6018
364 1 1.5267 -0.33966 26.6575
365 1 1.48929 2.51702 23.7528
366 1 4.3701 2.54955 23.6954
367 1 4.43586 2.43843 26.5555
368 1 1.53124 2.258 26.5306
369 1 7.19493 -0.417321 26.4727
370 1 9.96928 -0.361564 23.7726
371 1 9.90842 -0.336124 26.6098
12214 2 0.135571 6.63378 25.2795
373 1 7.28122 2.52751 23.9044
374 1 10.0418 2.38889 23.73
375 1 9.9747 2.57603 26.4609
376 1 7.31365 2.76645 26.5348
377 1 12.7607 -0.467859 23.8075
378 1 12.6894 -0.110248 26.7156
379 1 12.7155 2.49074 23.7318
380 1 12.7915 2.49936 26.3391
381 1 1.52793 5.28447 23.7779
382 1 4.23699 5.114 23.6955
383 1 4.16219 5.08709 26.6828
384 1 1.20531 5.13714 26.7585
385 1 1.49683 8.1075 23.8794
386 1 4.23104 7.89968 23.778
387 1 3.96824 7.74652 26.5667
388 1 1.41373 7.93286 26.6831
389 1 7.04694 5.37525 23.863
390 1 10.0239 5.16588 23.6259
391 1 10.0152 5.28238 26.648
392 1 7.13768 8.00129 26.658
393 1 7.17095 8.19928 23.5132
394 1 9.9001 7.9377 23.8902
395 1 9.9574 8.0816 26.5573
396 1 5.58086 9.3532 25.2373
397 1 12.8447 5.35178 23.8498
398 1 12.7644 5.21803 26.5984
399 1 12.6095 8.13376 23.7034
400 1 12.6972 7.96885 26.4699
401 1 1.42591 10.8392 23.8632
402 1 4.27619 11.1302 23.7009
403 1 4.3752 11.0234 26.8002
404 1 1.55815 10.6164 26.53
405 1 1.42206 13.6629 23.8286
406 1 4.20616 13.9013 23.6964
407 1 4.25618 13.5392 26.5417
408 1 1.4114 13.4005 26.6426
409 1 7.28222 11.0549 23.6089
410 1 9.84305 10.7868 23.8738
411 1 9.95432 10.5828 26.4678
12155 2 5.67074 -1.67412 16.8031
413 1 7.01094 13.7673 23.5929
414 1 9.93098 13.7494 24.063
415 1 9.79095 13.951 26.6929
416 1 7.10434 13.7575 26.3972
417 1 12.6579 10.9166 23.7119
418 1 12.8124 10.7179 26.5423
419 1 12.6115 13.5278 23.817
420 1 12.7543 13.717 26.5636
421 1 1.28952 16.389 23.7773
422 1 4.06653 16.6828 23.8189
423 1 4.18715 16.2982 26.6791
424 1 1.37113 16.5742 26.5818
425 1 1.45083 19.5507 23.5979
426 1 4.21675 19.3682 23.7597
427 1 4.02306 19.5013 26.4052
428 1 1.25948 19.2834 26.5507
429 1 6.89899 16.574 23.9532
430 1 9.808 16.6676 23.7933
431 1 9.90289 16.8681 26.6479
432 1 7.02578 16.6663 26.6408
433 1 6.88995 19.2798 23.7144
434 1 9.82424 19.4628 23.8897
435 1 9.68613 19.5277 26.6397
436 1 6.92807 19.2632 26.6529
437 1 12.7253 16.6282 23.6986
438 1 12.6153 16.3701 26.5851
439 1 12.5497 19.2883 23.8453
440 1 12.5894 19.5021 26.5048
441 1 1.48972 22.2732 23.6596
442 1 4.27957 22.3055 23.7311
443 1 4.32229 22.3038 26.6496
444 1 1.38921 22.0697 26.4501
445 1 7.07898 22.1799 23.7605
446 1 9.71801 22.2937 23.8019
447 1 9.70407 22.254 26.669
448 1 6.89406 21.954 26.6298
449 1 12.8127 22.1717 23.7282
450 1 12.4908 22.3163 26.5289
12209 2 11.283 -1.72014 22.3432
12250 2 11.202 23.6595 25.0151
12224 2 0.135556 12.114 25.0808
12134 2 5.5807 6.80347 13.9768
12194 2 -0.0446175 23.7586 19.4519
15031 2 13.9039 18.0886 27.8934
12249 2 11.0857 20.883 22.4197
12204 2 -0.0231464 1.05434 25.3218
12046 2 8.34648 23.5723 27.9408
12136 2 2.82288 9.58998 14.0193
12181 2 0.0457029 15.2751 16.5777
12248 2 5.40015 23.7019 25.1123
5993 1 7.03502 -0.263217 23.7239
12009 2 11.3359 -1.69468 27.8887
12036 2 8.38867 17.9031 27.9302
12207 2 8.49565 -1.67332 25.1559
12159 2 11.2712 -1.57542 16.6515
12127 2 0.177546 1.0601 13.9654
12041 2 -0.138011 20.8327 27.9561
12171 2 0.144941 9.53664 16.648
12154 2 0.12548 1.13928 19.5666
15242 2 13.9059 20.7914 25.184
12223 2 3.01736 9.32173 25.2468
12232 2 2.74914 17.91 22.2229
12225 2 5.66466 9.56514 22.6336
12247 2 8.31371 20.7601 25.1387
12152 2 2.90191 1.18652 16.8214
12031 2 -0.0238554 15.0408 27.9315
12246 2 8.3442 23.6015 22.2625
12235 2 5.62289 15.2279 22.4026
12156 2 8.44181 1.01391 16.7314
12227 2 8.36056 9.37772 25.1893
12158 2 5.79153 0.892199 19.6397
12230 2 11.2739 12.2202 25.3343
12160 2 11.1887 1.00843 19.6911
12245 2 5.58979 20.7904 22.3952
12162 2 2.6691 6.59875 16.6676
12163 2 2.78298 3.804 19.7167
12161 2 -0.062857 4.01947 16.6128
12165 2 5.62028 3.82751 16.7684
12166 2 8.47457 6.79875 16.945
12167 2 8.32087 3.86016 19.6128
12168 2 5.46932 6.61936 19.6089
12169 2 11.1334 3.90516 16.8277
12170 2 11.2076 6.6753 19.5428
12243 2 2.8367 20.7972 24.9935
12172 2 2.77474 12.4299 16.8055
12173 2 2.80335 9.62494 19.5819
12242 2 2.94333 23.6885 22.2496
12175 2 5.57375 9.56201 16.7201
12176 2 8.3454 12.406 16.8028
12177 2 8.12902 9.53435 19.7213
12178 2 5.56926 12.3248 19.6604
12179 2 11.2167 9.64845 16.8612
12180 2 11.1344 12.4826 19.6096
12233 2 2.86755 15.0339 25.1435
12182 2 2.9382 18.2344 16.8118
12183 2 2.81457 15.2367 19.4888
12222 2 2.72174 12.2167 22.5277
12185 2 5.54767 15.2507 16.6526
12186 2 8.45249 18.0484 16.8578
12187 2 8.44622 15.1401 19.4499
12188 2 5.75401 18.1255 19.5396
12189 2 11.2203 15.1596 16.914
12190 2 11.2424 17.9982 19.7048
12226 2 8.545 12.4364 22.3447
12192 2 2.70774 23.6057 16.6818
12193 2 2.8285 20.8448 19.4103
12229 2 11.1271 9.54059 22.4411
12195 2 5.6278 20.8001 16.633
12196 2 8.37298 23.6023 16.5354
12197 2 8.53945 20.9474 19.4501
12198 2 5.61315 23.6123 19.4193
12199 2 11.25 20.8726 16.7188
12200 2 11.2119 23.5631 19.4528
12240 2 11.1272 17.9794 25.0657
12202 2 2.88584 0.989758 22.425
12236 2 8.42581 17.9163 22.427
12239 2 11.3363 15.2134 22.53
12228 2 5.73614 12.1573 25.2017
12206 2 8.41461 1.039 22.4284
29 1 6.93718 5.35093 26.4973
12208 2 5.75651 1.0496 25.13
33 1 7.19139 11.0188 26.5296
12210 2 11.3351 1.0814 25.0932
12238 2 5.5445 17.8969 25.2391
12212 2 2.86727 6.65492 22.4113
12213 2 2.91169 3.75982 25.2033
12237 2 8.39116 15.2445 25.1499
12215 2 5.68367 3.93108 22.4421
12216 2 8.43255 6.66732 22.3999
12217 2 8.6767 3.9151 25.081
12218 2 5.67311 6.72855 25.1092
12219 2 11.3732 3.80272 22.2164
12220 2 11.4197 6.65057 25.2501
12045 2 5.53673 20.6538 28.0129
12244 2 0.0794151 23.5146 25.0776
12234 2 -0.0779767 17.8976 25.0881
15172 2 13.9096 9.59184 19.517
12006 2 8.53208 1.12525 27.7405
12126 2 2.86925 -1.71385 14.0688
12241 2 0.0204443 20.9032 22.2284
12221 2 -0.00820704 9.51242 22.3653
12025 2 5.65571 9.41165 27.6611
12164 2 0.0435456 6.75947 19.5918
12191 2 0.086585 20.98 16.4958
12026 2 8.54349 12.3291 27.9027
12049 2 11.2209 20.8959 27.8479
12211 2 0.110045 3.80065 22.3877
12042 2 2.64664 23.6985 27.881
12029 2 11.3517 9.41345 28.0322
12002 2 2.9818 1.1328 27.9859
12035 2 5.59161 14.9576 27.9679
12135 2 11.3488 6.79544 14.0185
12015 2 5.70896 3.87468 27.8017
12184 2 0.0107718 18.1367 19.3105
12231 2 0.033255 15.122 22.3363
12143 2 8.4528 15.2578 13.9864
12145 2 11.1242 18.007 13.9784
12016 2 8.51367 6.46871 27.8601
12133 2 8.46078 3.95575 14.0471
12139 2 5.58008 12.3603 13.9856
12021 2 0.0893493 9.32342 27.9629
12129 2 5.63521 1.12331 13.9789
12039 2 11.1757 15.3323 27.9897
12019 2 11.3139 3.81349 27.9479
12131 2 2.89797 3.81261 13.9795
451 1 1.4006 25.098 1.04608
452 1 4.26794 24.953 1.11891
453 1 4.11149 25.0695 3.98566
454 1 1.16059 25.246 4.04867
455 1 6.94451 24.9646 0.965357
456 1 9.67918 25.215 1.17682
457 1 9.79808 24.9861 4.01345
458 1 6.99481 25.0494 4.02082
12285 2 5.47261 43.4411 -0.13229
460 1 12.6351 25.2402 3.98683
461 1 1.31355 27.8955 1.52922
462 1 3.91643 27.8876 1.12721
463 1 4.11557 27.6763 3.94985
464 1 1.15357 28.0714 4.26233
465 1 1.22664 30.6935 1.27428
466 1 4.02474 30.4708 1.24301
467 1 1.35741 30.9872 4.05779
468 1 1.28089 33.7307 4.21831
469 1 6.98881 27.7637 1.07568
470 1 9.59108 28.0119 1.13763
471 1 9.652 27.7744 4.07725
472 1 6.87721 27.7666 3.95828
473 1 7.03363 30.4814 0.979932
12376 2 8.50407 37.9193 13.9335
475 1 9.83763 30.7557 4.11459
476 1 7.0255 30.5213 3.76214
477 1 9.75615 31.1079 1.40444
12377 2 5.50938 40.6938 13.8401
479 2 11.2736 32.2223 2.61072
480 1 12.5491 31.1188 4.10406
481 1 1.19744 33.6404 1.36413
12382 2 5.51458 46.1776 13.863
483 1 4.20198 33.6128 3.94825
484 1 1.42056 36.3786 3.98485
12370 2 0.115869 34.9454 13.8167
486 1 3.99761 36.0014 1.16251
487 1 4.19851 36.4034 4.07238
488 1 1.11089 36.4932 1.06969
489 1 4.24758 30.5635 3.9491
490 1 5.72423 33.0154 1.75602
491 1 8.08142 34.726 2.07447
492 1 7.1595 33.4923 4.15275
493 1 6.43288 36.2137 0.863593
494 1 9.94874 36.6388 1.14282
495 1 9.68084 36.4076 4.14555
496 1 6.90882 36.4181 4.0229
497 1 10.2853 33.707 1.0982
498 1 9.95748 33.5215 4.02086
499 1 12.4125 36.0793 1.15436
500 1 12.3333 36.582 3.9748
501 1 1.31982 39.3043 1.00075
502 1 4.02819 39.2379 1.39859
503 1 3.99186 39.1891 4.19289
504 1 1.24963 39.1426 4.15918
505 1 1.20462 42.1513 1.06907
506 1 4.14256 41.8937 1.16117
507 1 4.06952 42.0999 3.82174
508 1 1.19869 41.9688 3.81739
509 1 6.82769 39.1013 1.26334
510 1 9.82768 39.3021 1.46703
511 1 9.72701 39.1622 4.1249
512 1 6.88175 39.1605 3.97312
513 1 6.92799 41.9945 1.1008
514 1 9.74429 42.0192 1.28481
515 1 9.69126 41.8326 4.03188
516 1 6.83106 42.0504 4.24916
517 1 12.5638 39.0708 1.29078
518 1 12.5383 39.2096 4.00105
519 1 12.6738 41.9935 1.25913
520 1 12.5661 42.0751 3.99211
521 1 1.47668 44.9228 1.2539
522 1 4.05277 44.9685 1.19287
523 1 3.92343 44.891 4.04074
524 1 1.23826 44.8519 4.0631
525 1 1.11095 47.6746 1.27037
526 1 3.98724 47.8085 0.996351
527 1 4.10953 47.7527 3.93073
528 1 1.23001 47.7366 4.08609
529 1 6.78669 44.6727 1.34687
530 1 9.64204 44.8806 1.13172
531 1 9.77994 44.844 4.05944
532 1 6.78514 44.9778 4.00686
533 1 6.75364 47.5529 1.17878
534 1 9.58786 47.5599 1.16206
535 1 9.66483 47.8292 3.9832
536 1 6.87327 47.6527 4.13449
537 1 12.6534 44.8982 1.28273
538 1 12.4502 44.7728 3.7597
539 1 12.4016 47.7296 1.14241
540 1 12.5902 47.7641 4.0854
541 1 1.44236 25.0878 6.70554
542 1 4.12957 25.4264 6.93894
543 1 4.00715 25.1973 9.71433
544 1 1.12636 24.9848 9.65514
545 1 6.85901 24.9834 6.77091
546 1 9.6997 25.2537 6.86281
547 1 9.86192 25.2009 9.51682
548 1 6.98939 25.4062 9.53672
549 1 12.5093 27.8621 6.68639
550 1 12.5884 25.1251 9.65133
551 1 1.06867 27.7946 7.08471
552 1 4.01367 28.2349 6.83764
553 1 4.11266 27.9909 9.66194
554 1 1.32754 27.9049 9.8648
555 1 1.12723 30.5455 6.82264
556 1 3.9254 30.795 6.7694
557 1 4.32041 30.8409 9.49274
558 1 1.38627 30.6438 9.55324
559 1 6.85321 28.0578 6.76528
560 1 9.66416 28.0772 6.74348
561 1 9.72813 28.0073 9.62216
562 1 6.90767 28.0703 9.60593
563 1 6.8315 30.736 6.53352
564 1 9.58307 30.6495 6.79208
565 1 9.56478 30.7061 9.56779
566 1 7.06047 30.5962 9.59843
567 1 12.45 27.9703 3.98404
568 1 12.6616 27.7306 9.53657
569 1 12.43 30.5416 6.91396
570 1 12.4345 30.8286 9.65292
571 1 1.18145 33.4001 7.03377
572 1 4.20278 33.5681 6.79953
573 1 4.19693 33.6914 9.82005
574 1 1.21832 33.5084 9.67426
575 1 1.38989 36.155 6.93019
576 1 4.07718 36.5942 6.89662
577 1 4.0755 36.4258 9.71344
578 1 1.25615 36.3811 9.62359
579 1 6.95897 33.5377 7.02309
580 1 9.70196 33.4494 6.94835
581 1 9.71319 33.5683 9.64764
582 1 6.99214 33.5931 9.85338
583 1 6.79131 36.4491 6.79501
584 1 9.61449 36.3687 6.75024
585 1 9.56225 36.5639 9.61377
586 1 6.93768 36.2851 9.54588
587 1 12.6328 33.5109 6.76304
588 1 12.5557 33.6847 9.63156
589 1 12.4494 36.3871 6.95758
590 1 12.6182 36.3178 9.58614
591 1 1.11913 39.2768 6.88387
592 1 3.92432 39.3623 6.90775
593 1 4.08859 39.2077 9.73031
594 1 1.2817 39.1661 9.67637
595 1 1.26107 42.1204 6.83515
596 1 4.15064 41.997 6.67322
597 1 4.11615 41.988 9.59143
598 1 1.29484 41.9272 9.69545
599 1 6.861 39.3791 6.9648
600 1 9.65149 39.2386 6.90575
601 1 9.63433 39.3935 9.62992
602 1 6.73819 39.459 9.88395
603 1 7.03548 42.0151 7.20504
604 1 9.73083 42.0329 6.80468
605 1 9.71337 42.0914 9.73482
606 1 6.89025 42.1806 9.89792
607 1 12.485 39.1919 6.86762
608 1 12.4726 39.2321 9.50024
609 1 12.5582 42.1678 6.9228
610 1 12.478 42.0546 9.73495
611 1 1.09567 44.8635 6.93813
612 1 3.8833 44.9188 7.0606
613 1 4.10093 44.7165 9.65681
614 1 1.12339 44.8171 9.54813
615 1 1.1509 47.7865 6.7798
616 1 3.95611 47.5553 6.61907
617 1 4.04853 47.6382 9.37115
618 1 1.10682 47.6268 9.5178
619 1 6.87338 44.8179 6.82254
620 1 9.63875 44.823 6.76788
621 1 9.76116 44.967 9.67609
622 1 6.91307 45.0299 9.54367
623 1 6.89233 47.7997 6.87871
624 1 9.6708 47.7246 6.82712
625 1 9.70989 47.6794 9.62734
626 1 6.73341 47.7242 9.60933
627 1 12.4054 44.8497 6.94455
628 1 12.5325 44.7706 9.85727
629 1 12.4943 47.6285 6.86104
630 1 12.4529 47.7751 9.7023
631 1 1.27172 25.1326 12.3927
632 1 4.30093 25.0259 12.3478
633 1 7.04601 25.1773 12.3905
634 1 9.9628 25.3727 12.3842
635 1 12.6628 25.1141 12.3291
636 1 1.36591 27.8816 12.6841
637 1 4.36214 27.7147 12.5301
638 1 1.41945 30.7558 12.5211
639 1 4.3072 30.6144 12.433
640 1 7.12969 27.9042 12.5269
641 1 9.83291 27.9664 12.3622
642 1 6.92073 30.76 12.4091
643 1 9.75342 30.8758 12.424
644 1 12.5485 27.9985 12.4631
15317 2 13.9434 37.8292 8.32136
646 1 1.3719 33.3742 12.4699
647 1 4.20018 33.7114 12.5193
648 1 1.15636 36.2239 12.2941
649 1 3.83177 36.4737 12.5282
650 1 6.92962 33.6235 12.4969
651 1 9.83856 33.8067 12.3313
652 1 6.96701 36.51 12.3652
653 1 9.61912 36.7419 12.4402
654 1 12.5954 33.5883 12.5631
655 1 12.3866 36.419 12.5179
656 1 1.21867 39.042 12.3704
657 1 4.09093 39.2879 12.573
658 1 1.24426 41.8916 12.4085
659 1 3.98658 42.0975 12.5066
660 1 7.07917 39.3268 12.6287
661 1 10.0805 39.3893 12.3735
662 1 6.99943 41.9841 12.7176
663 1 9.77432 42.1047 12.688
664 1 12.7606 39.2195 12.2734
665 1 12.7374 42.1616 12.5893
666 1 1.22431 44.766 12.3898
667 1 3.94067 44.8556 12.392
668 1 1.21897 47.6516 12.3475
669 1 4.14809 47.7152 12.329
670 1 6.85683 44.835 12.6057
671 1 9.57042 44.8444 12.5685
672 1 6.79637 47.5801 12.6051
673 1 9.64201 47.6895 12.402
674 1 12.4612 44.9933 12.6488
675 1 12.4943 47.8864 12.6842
12363 2 11.1437 49.1374 11.057
15272 2 13.8131 37.8646 2.63404
12253 2 2.49394 26.3909 2.66409
12362 2 5.56828 49.1131 10.9242
12254 2 -0.0885601 29.193 2.55153
6553 1 12.6935 33.8124 3.79876
12257 2 8.24797 26.3855 2.48938
12258 2 5.42885 29.0262 2.58222
645 1 12.4136 30.8133 12.4404
12260 2 10.9312 29.0551 2.55444
12360 2 10.8909 43.4718 11.2513
179 1 12.5084 25.2645 6.89397
12263 2 2.69375 32.2042 2.442
12359 2 8.38805 46.3699 11.0081
482 1 3.5237 33.1959 0.395925
12385 2 8.31032 49.1443 13.7073
12267 2 7.82147 32.354 2.29869
12268 2 5.77486 35.0066 2.9117
12345 2 11.3194 26.5713 11.0622
12270 2 10.9325 35.323 2.71918
12358 2 5.46262 43.4741 11.2815
12344 2 8.35245 29.3887 10.9751
12273 2 2.75608 37.83 2.63974
12357 2 2.58657 46.2445 10.9116
12343 2 5.44972 26.5313 10.7917
474 1 7.24278 33.493 -0.0547498
12277 2 8.35419 37.7623 2.64451
12278 2 5.59268 40.7306 2.56674
12371 2 8.27286 32.162 13.7816
12280 2 11.1011 40.6113 2.6419
12355 2 11.2839 37.8718 11.095
6463 1 12.6685 33.1545 1.11896
12283 2 2.66261 43.4764 2.59672
12354 2 8.40373 40.782 11.2014
12346 2 -0.072638 32.0327 11.2366
459 1 12.4477 27.8392 1.11356
12287 2 8.44333 43.4016 2.68248
12288 2 5.46533 46.2495 2.65503
15336 2 13.8505 49.2006 8.19154
12290 2 11.0353 46.2658 2.46045
12353 2 5.52257 37.931 11.1521
12292 2 2.68023 49.0609 2.58807
12361 2 -0.126235 49.0203 11.0267
12294 2 8.41261 49.0532 2.60021
12372 2 5.47696 35.0868 13.7857
12284 2 -0.0944203 46.1562 2.59447
12297 2 2.69659 29.5164 5.35301
12298 2 2.38655 26.3902 8.30899
6451 1 12.7266 25.0202 1.05109
12300 2 5.45945 26.4342 5.33327
12301 2 8.26341 29.3229 5.32269
12302 2 8.2342 26.6872 8.21183
12303 2 5.43145 29.2947 8.14837
12304 2 11.2647 26.5196 5.33956
12305 2 10.9442 29.3067 8.22717
12352 2 2.61594 40.5303 10.9219
12307 2 2.64558 34.9972 5.48064