ITEM: TIMESTEP
80000
ITEM: NUMBER OF ATOMS
27000
ITEM: BOX BOUNDS pp pp pp
-3.4815544956495093e-01 2.7688155449565357e+01
-6.4135968758259851e+00 4.9853359687582946e+02
-3.5875872585834051e-01 2.7698758725857878e+01
ITEM: ATOMS id type q x y z
1 2 2.2208 5.25466 -0.891784 5.17675
2 1 -1.1104 1.00791 -5.13829 0.918482
3 1 -1.1104 1.04695 0.603806 0.856337
6 1 -1.1104 1.06858 -5.01592 3.73429
7 1 -1.1104 1.1062 0.470086 3.74209
10 1 -1.1104 0.977133 -2.34554 0.888257
12 2 2.2208 5.30466 -3.708 2.37482
13 2 2.2208 5.16177 1.95176 2.3356
14 1 -1.1104 0.973878 -2.32146 3.72024
16 1 -1.1104 3.95823 -5.05776 0.900738
17 1 -1.1104 3.79905 0.668971 1.08041
18 2 2.2208 2.33101 -0.88518 2.27384
19 1 -1.1104 3.74621 -4.88599 3.67611
20 1 -1.1104 3.9196 0.620893 3.85325
21 2 2.2208 2.32402 -3.67819 5.13232
22 2 2.2208 2.39427 1.87952 5.0645
23 1 -1.1104 3.78422 -2.34206 0.913983
24 1 -1.1104 3.9183 -2.14928 3.66003
5 1 -1.1104 6.70961 0.365946 0.884681
104 1 -1.1104 6.69593 -5.0075 6.53902
103 1 -1.1104 0.941854 0.355696 6.66337
26 2 2.2208 5.27105 -6.47974 5.16164
25 2 2.2208 2.52244 -6.36996 2.32147
15 1 -1.1104 6.74334 -2.3193 3.82734
4 1 -1.1104 6.66436 -4.99495 0.862975
77 1 -1.1104 3.84081 3.34463 3.80211
66 1 -1.1104 6.6528 3.27078 3.62433
108 1 -1.1104 3.79851 -5.11569 6.37537
107 1 -1.1104 6.60985 -2.27575 6.47176
106 1 -1.1104 1.05414 -2.3131 6.44736
110 1 -1.1104 3.73083 -2.35418 6.57958
102 1 -1.1104 1.07373 -5.26911 6.53801
105 1 -1.1104 6.67622 0.59266 6.65612
11 1 -1.1104 6.5511 -2.25356 0.94839
8 1 -1.1104 6.64832 -5.0141 3.75005
9 1 -1.1104 6.7487 0.614813 3.71413
27 2 2.2208 10.8494 -0.824134 5.10782
28 1 -1.1104 12.2409 -4.88585 0.898726
29 1 -1.1104 12.2267 0.590001 0.903459
30 1 -1.1104 12.4371 -5.11674 3.66841
31 1 -1.1104 12.2682 0.611078 3.61966
32 1 -1.1104 12.2008 -2.24247 0.812887
33 2 2.2208 10.9621 -3.71692 2.34192
34 2 2.2208 10.7951 1.91163 2.30043
35 1 -1.1104 12.3647 -2.24105 3.68403
36 1 -1.1104 9.40362 -5.07124 0.976571
37 1 -1.1104 9.54185 0.677319 0.909307
38 2 2.2208 8.03619 -0.90258 2.31187
39 1 -1.1104 9.47311 -5.14293 3.65753
40 1 -1.1104 9.70257 0.518114 3.59541
41 2 2.2208 7.99702 -3.64395 5.18403
42 2 2.2208 7.98658 1.99554 4.97304
43 1 -1.1104 9.33775 -2.33974 0.842181
44 1 -1.1104 9.56199 -2.25686 3.69051
140 1 -1.1104 12.1488 0.44336 6.49445
141 1 -1.1104 12.3263 -2.33869 6.46957
143 1 -1.1104 9.41111 0.513396 6.35945
144 1 -1.1104 9.59192 -2.27784 6.51927
47 2 2.2208 10.8079 -6.52901 4.94794
142 1 -1.1104 9.43744 -5.11667 6.44613
139 1 -1.1104 12.1227 -5.27124 6.43338
12669 2 2.2208 13.666 -3.65921 5.07885
75 1 -1.1104 3.889 3.40564 0.875232
59 1 -1.1104 1.02102 3.38652 1.18329
64 1 -1.1104 0.969254 3.2864 3.75755
49 2 2.2208 5.2263 4.78409 5.13879
50 2 2.2208 5.31029 10.4058 5.02865
51 1 -1.1104 1.10772 6.09103 0.917185
52 1 -1.1104 0.985185 11.7713 0.979132
55 1 -1.1104 0.903233 6.19934 3.98384
56 1 -1.1104 1.03846 11.8573 3.76799
60 1 -1.1104 1.14653 8.853 0.877027
63 2 2.2208 5.25447 7.5375 2.34746
65 1 -1.1104 1.04727 8.96612 3.66995
68 1 -1.1104 3.77797 6.17112 1.02889
69 1 -1.1104 3.86617 11.8016 0.914122
70 2 2.2208 2.44654 4.66988 2.46031
71 2 2.2208 2.47661 10.401 2.29999
72 1 -1.1104 3.76148 6.1837 3.75334
73 1 -1.1104 3.97945 11.7693 3.6834
74 2 2.2208 2.48365 7.50838 5.13572
76 1 -1.1104 4.06805 9.10196 0.966009
78 1 -1.1104 3.73082 8.91879 3.67753
455 2 2.2208 2.47997 7.61814 -0.434734
54 1 -1.1104 6.68453 11.7879 0.866669
171 1 -1.1104 1.05897 5.96967 6.5776
173 1 -1.1104 6.5534 6.21648 6.48677
175 1 -1.1104 0.947833 3.05651 6.48473
181 1 -1.1104 3.73045 3.44425 6.55469
180 1 -1.1104 3.84009 11.6686 6.50023
179 1 -1.1104 3.94979 6.18989 6.46506
177 1 -1.1104 6.55721 3.29936 6.51645
13191 2 2.2208 -0.29499 10.3251 -0.397823
12731 2 2.2208 -0.191332 7.53683 2.35477
61 1 -1.1104 6.58948 3.36612 0.982763
57 1 -1.1104 6.68063 6.02467 3.69704
58 1 -1.1104 6.61904 11.602 3.66727
67 1 -1.1104 6.517 8.88551 3.88374
99 1 -1.1104 9.23658 3.31147 3.5957
88 1 -1.1104 12.1079 3.49029 3.60564
53 1 -1.1104 6.54358 6.20304 0.884319
62 1 -1.1104 6.66637 8.81519 1.01108
97 1 -1.1104 9.42685 3.31178 0.784549
85 1 -1.1104 12.0593 3.31203 0.924534
79 2 2.2208 10.7798 4.83958 5.01543
80 2 2.2208 10.9521 10.4029 5.00057
81 1 -1.1104 12.1666 6.17339 0.940678
82 1 -1.1104 12.3118 11.7939 0.88354
83 1 -1.1104 12.1711 6.19185 3.69912
84 1 -1.1104 12.2292 11.8032 3.72043
86 1 -1.1104 12.224 8.9601 0.836662
87 2 2.2208 10.8777 7.53114 2.36773
89 1 -1.1104 12.2174 8.99275 3.67914
90 1 -1.1104 9.38712 6.11307 0.844478
91 1 -1.1104 9.38777 11.7961 0.872105
92 2 2.2208 8.03645 4.62327 2.16958
93 2 2.2208 8.06116 10.2952 2.29909
94 1 -1.1104 9.36201 6.13008 3.6057
95 1 -1.1104 9.45154 11.7156 3.71747
96 2 2.2208 8.02851 7.56013 5.17454
98 1 -1.1104 9.43691 8.96915 0.825515
100 1 -1.1104 9.56926 8.96172 3.72419
492 2 2.2208 10.7496 10.4126 -0.501772
12730 2 2.2208 13.671 10.2491 2.2587
174 1 -1.1104 6.73633 11.7231 6.45679
220 1 -1.1104 9.51026 8.95785 6.55239
213 1 -1.1104 12.181 6.17823 6.43976
214 1 -1.1104 12.338 11.7024 6.40901
218 1 -1.1104 9.66035 11.7452 6.43227
215 1 -1.1104 12.0517 3.52958 6.58983
219 1 -1.1104 9.30582 3.25665 6.51396
217 1 -1.1104 9.33826 6.09377 6.53409
109 1 -1.1104 3.6906 0.564279 6.57234
111 2 2.2208 5.12718 -0.977182 10.7236
112 1 -1.1104 1.08709 -5.13653 12.1961
113 1 -1.1104 1.05207 0.558071 12.1895
116 1 -1.1104 0.997678 -5.1634 9.26624
117 1 -1.1104 1.05707 0.455353 9.45129
120 1 -1.1104 0.976293 -2.22148 12.158
122 2 2.2208 5.08232 -3.70072 7.92017
124 2 2.2208 5.08637 1.97527 7.92447
125 1 -1.1104 0.910007 -2.26904 9.37892
127 1 -1.1104 3.80476 -5.09572 12.2164
128 1 -1.1104 3.84969 0.392964 12.1722
129 2 2.2208 2.28241 -0.964628 8.01358
131 1 -1.1104 3.7108 -5.14281 9.2591
132 1 -1.1104 3.8116 0.38071 9.22064
133 2 2.2208 2.25603 -3.6185 10.7761
134 2 2.2208 2.41967 1.76849 10.6705
135 1 -1.1104 3.61847 -2.3287 12.1758
136 1 -1.1104 3.71273 -2.38142 9.47792
245 2 2.2208 5.25434 1.87146 13.5244
118 1 -1.1104 6.51783 -5.1638 9.32686
121 1 -1.1104 6.47696 -2.27817 12.1963
115 1 -1.1104 6.67543 0.463164 12.1594
126 1 -1.1104 6.59494 -2.25366 9.13501
119 1 -1.1104 6.46711 0.425997 9.37947
193 1 -1.1104 1.005 3.27598 12.1052
130 2 2.2208 2.34333 -0.851572 13.6518
123 2 2.2208 5.1812 -3.61518 13.5909
12829 2 2.2208 -0.464675 -3.56562 13.6244
114 1 -1.1104 6.53478 -5.15747 12.0035
145 2 2.2208 10.7067 -0.903924 10.6401
146 1 -1.1104 12.3335 -5.05023 11.9855
147 1 -1.1104 12.1048 0.567553 11.9621
148 1 -1.1104 12.2659 -5.03845 9.21859
149 1 -1.1104 12.1685 0.531354 9.25999
150 1 -1.1104 12.2349 -2.35443 12.2648
151 2 2.2208 10.9468 -3.84162 7.85886
153 2 2.2208 10.6498 1.96934 7.91558
154 1 -1.1104 12.2171 -2.35173 9.35547
155 1 -1.1104 9.44638 -5.08513 12.1268
156 1 -1.1104 9.29861 0.68428 12.0254
157 2 2.2208 7.99722 -0.905267 7.88715
159 1 -1.1104 9.46864 -5.16544 9.174
160 1 -1.1104 9.43514 0.474296 9.22267
161 2 2.2208 7.98924 -3.62405 10.6869
162 2 2.2208 7.94239 1.87635 10.6907
163 1 -1.1104 9.36334 -2.27346 12.0096
164 1 -1.1104 9.25624 -2.24089 9.24189
170 2 2.2208 10.7279 -6.46875 10.655
168 2 2.2208 8.06725 -6.42418 7.92635
165 2 2.2208 13.5731 -0.843919 7.95171
12792 2 2.2208 13.5397 -6.54657 13.4762
166 2 2.2208 13.522 -0.925606 13.4809
158 2 2.2208 7.99646 -0.822255 13.4916
152 2 2.2208 10.8045 -3.7317 13.5575
279 2 2.2208 10.8544 1.91689 13.4134
12791 2 2.2208 13.64 -3.57817 10.7792
167 2 2.2208 13.5039 1.86235 10.6774
12793 2 2.2208 13.5642 -6.47036 7.84807
172 1 -1.1104 1.19006 11.7452 6.54998
176 1 -1.1104 1.10603 8.90533 6.45337
198 1 -1.1104 0.918631 3.25495 9.28594
211 1 -1.1104 3.5884 3.31084 9.4432
209 1 -1.1104 3.87254 3.13846 12.1362
200 1 -1.1104 6.43634 3.30185 9.34018
182 1 -1.1104 3.91543 8.95312 6.42144
183 2 2.2208 5.1739 4.73526 10.6915
184 2 2.2208 5.21226 10.25 10.7477
185 1 -1.1104 1.02543 6.1794 12.1962
186 1 -1.1104 1.17219 11.7866 12.0326
189 1 -1.1104 0.887532 6.12509 9.42114
190 1 -1.1104 1.04026 11.7836 9.25744
194 1 -1.1104 1.06281 8.9092 12.011
197 2 2.2208 5.15428 7.45155 7.87826
199 1 -1.1104 1.09791 9.0283 9.26781
202 1 -1.1104 3.74339 5.96368 12.109
203 1 -1.1104 3.89735 11.7127 12.1207
204 2 2.2208 2.38947 4.658 7.95567
205 2 2.2208 2.51235 10.3751 7.87542
206 1 -1.1104 3.85221 6.03654 9.29868
207 1 -1.1104 3.87401 11.8928 9.35634
208 2 2.2208 2.39139 7.59489 10.7909
210 1 -1.1104 3.83326 8.81393 12.0354
212 1 -1.1104 3.88913 8.9412 9.39494
12911 2 2.2208 -0.397255 4.68452 10.904
201 1 -1.1104 6.60959 8.78462 9.20917
196 1 -1.1104 6.6722 8.8868 12.1847
178 1 -1.1104 6.57244 8.97541 6.68211
187 1 -1.1104 6.63739 6.11925 12.1389
313 2 2.2208 2.41065 4.58522 13.5231
312 2 2.2208 5.27498 7.46525 13.5552
191 1 -1.1104 6.72736 6.15242 9.21749
216 1 -1.1104 12.2212 8.87613 6.42752
195 1 -1.1104 6.70445 3.39407 12.247
230 1 -1.1104 12.1219 3.26268 9.27853
241 1 -1.1104 9.23513 3.24674 9.30752
188 1 -1.1104 6.57697 11.6491 12.129
239 1 -1.1104 9.61688 3.3956 12.0992
227 1 -1.1104 12.3627 3.32932 12.0403
192 1 -1.1104 6.51661 11.795 9.24448
221 2 2.2208 10.8759 4.61295 10.6339
222 2 2.2208 10.7709 10.3339 10.7751
223 1 -1.1104 12.2972 6.13669 12.0898
224 1 -1.1104 12.1689 11.866 12.0963
225 1 -1.1104 12.3048 6.16976 9.28867
226 1 -1.1104 12.2997 11.7715 9.14276
228 1 -1.1104 12.2953 9.11183 11.996
229 2 2.2208 10.9339 7.60352 7.88212
231 1 -1.1104 12.2301 8.98317 9.27264
232 1 -1.1104 9.5257 6.06463 11.9284
233 1 -1.1104 9.22997 11.6551 12.0681
234 2 2.2208 8.07143 4.78083 7.95973
235 2 2.2208 7.99758 10.3519 7.87473
236 1 -1.1104 9.57231 6.10829 9.28873
237 1 -1.1104 9.34816 11.7498 9.096
238 2 2.2208 7.97502 7.47347 10.7325
240 1 -1.1104 9.4395 8.82432 12.144
242 1 -1.1104 9.37208 8.87949 9.49472
359 2 2.2208 7.98357 10.3242 13.5423
358 2 2.2208 8.10026 4.65767 13.5165
243 2 2.2208 13.6343 7.48277 10.6601
244 2 2.2208 13.6147 4.80133 7.86723
13015 2 2.2208 13.6125 10.2757 13.4561
12946 2 2.2208 -0.400844 1.95068 19.1875
246 2 2.2208 5.11957 -0.844553 16.281
247 1 -1.1104 1.16287 -5.11476 18.0376
248 1 -1.1104 0.94106 0.57279 17.9673
250 1 -1.1104 0.841658 -4.98986 14.955
252 1 -1.1104 1.01095 0.489036 15.024
257 1 -1.1104 0.882576 -2.2518 17.9883
259 2 2.2208 5.24777 -3.6969 19.1499
260 2 2.2208 5.12631 1.9481 19.2692
261 1 -1.1104 0.91741 -2.30312 15.1649
264 1 -1.1104 3.77988 -5.02978 17.6645
265 1 -1.1104 3.75327 0.628439 17.676
266 2 2.2208 2.40117 -0.844567 19.2345
267 1 -1.1104 3.76296 -4.93153 15.0374
269 1 -1.1104 3.85957 0.557112 14.8412
271 2 2.2208 2.31887 -3.705 16.3771
272 2 2.2208 2.46948 2.01414 16.4396
273 1 -1.1104 3.76354 -2.34783 17.7729
274 1 -1.1104 3.80454 -2.18305 14.992
258 1 -1.1104 6.53332 -2.27862 17.7494
263 1 -1.1104 6.63721 -2.30905 14.8366
249 1 -1.1104 6.50189 0.518591 17.6947
338 1 -1.1104 6.51851 3.28198 14.9511
262 1 -1.1104 0.982102 -2.23606 20.8506
253 1 -1.1104 1.07344 0.580726 20.6552
268 1 -1.1104 3.85601 -5.08225 20.6922
251 1 -1.1104 0.985629 -5.09791 20.769
275 1 -1.1104 3.6773 -2.3072 20.6394
278 2 2.2208 5.09129 -6.43378 16.3536
280 1 -1.1104 6.47824 -4.89519 17.6807
255 1 -1.1104 6.60577 0.484231 14.9702
254 1 -1.1104 6.54357 -5.02651 14.8898
283 2 2.2208 10.6766 -0.881061 16.3179
284 1 -1.1104 12.1167 -4.97918 17.8546
285 1 -1.1104 12.1579 0.59091 17.7839
286 1 -1.1104 12.0754 -5.28815 14.9493
288 1 -1.1104 12.1854 0.435901 14.7833
290 1 -1.1104 12.138 -2.13983 17.75
291 2 2.2208 10.7198 -3.70373 19.1829
292 2 2.2208 10.7438 1.91328 19.1685
293 1 -1.1104 12.1179 -2.21723 15.006
295 1 -1.1104 9.30582 -5.13958 17.8235
296 1 -1.1104 9.34631 0.466572 17.8191
297 2 2.2208 7.91194 -0.956847 19.228
298 1 -1.1104 9.32756 -4.98099 14.939
300 1 -1.1104 9.35209 0.492737 14.8283
302 2 2.2208 7.92724 -3.71403 16.3757
303 2 2.2208 7.9198 1.8535 16.3579
304 1 -1.1104 9.39284 -2.33336 17.6925
305 1 -1.1104 9.30876 -2.2057 14.6782
310 2 2.2208 7.9043 -6.38271 19.1677
301 1 -1.1104 9.28591 0.499017 20.5759
282 1 -1.1104 6.56024 -2.23584 20.5604
256 1 -1.1104 6.56134 0.436165 20.5722
299 1 -1.1104 9.48196 -4.92798 20.5637
306 1 -1.1104 9.35906 -2.19296 20.5399
287 1 -1.1104 12.2382 -5.09401 20.6676
294 1 -1.1104 12.1161 -2.39996 20.6014
289 1 -1.1104 12.0764 0.331954 20.4955
307 2 2.2208 13.4924 -0.892051 19.1869
311 2 2.2208 10.7221 -6.70573 16.2588
351 1 -1.1104 3.77617 3.28664 17.7961
353 1 -1.1104 3.82759 3.37006 15.0121
329 1 -1.1104 0.965029 3.3467 17.6535
314 2 2.2208 2.54722 10.2518 13.3966
334 1 -1.1104 0.975233 3.30577 14.8828
315 2 2.2208 5.35781 4.69251 16.3476
316 2 2.2208 5.21122 10.2842 16.3014
317 1 -1.1104 0.958902 6.11669 17.8977
318 1 -1.1104 0.886038 11.6292 17.8424
321 1 -1.1104 0.896273 5.97144 15.0942
323 1 -1.1104 1.15609 11.5474 14.8734
330 1 -1.1104 0.929832 8.86251 17.5728
333 2 2.2208 5.33595 7.3879 19.1104
336 1 -1.1104 0.993007 8.95005 14.8926
342 1 -1.1104 3.91859 5.94419 17.5621
343 1 -1.1104 3.80126 11.6138 17.6609
344 2 2.2208 2.49544 4.812 19.1804
345 2 2.2208 2.44663 10.2378 19.0259
346 1 -1.1104 3.7081 6.14572 14.8999
348 1 -1.1104 3.84376 11.6038 14.9285
350 2 2.2208 2.32648 7.40329 16.3327
352 1 -1.1104 3.81456 8.79122 17.7882
355 1 -1.1104 3.78943 8.97687 14.8794
332 1 -1.1104 6.63244 8.80901 17.7042
320 1 -1.1104 6.55016 11.6772 17.7181
356 1 -1.1104 4.05237 8.96199 20.4376
349 1 -1.1104 3.73571 11.747 20.5772
322 1 -1.1104 0.941836 6.20849 20.6557
331 1 -1.1104 6.68702 3.26185 17.9712
337 1 -1.1104 1.17891 8.81786 20.3649
326 1 -1.1104 6.79538 6.05443 20.5353
347 1 -1.1104 3.81293 6.14861 20.5567
339 1 -1.1104 6.64434 3.19622 20.6713
387 1 -1.1104 9.44152 3.40144 20.5842
367 1 -1.1104 12.2693 11.6654 20.4975
374 1 -1.1104 12.236 8.88467 20.3893
325 1 -1.1104 6.77468 5.97543 14.9767
319 1 -1.1104 6.72834 6.09842 17.827
327 1 -1.1104 6.70843 11.7614 14.9553
368 1 -1.1104 12.3182 3.2881 17.7786
371 1 -1.1104 12.2598 3.3159 14.8786
384 1 -1.1104 9.43713 3.32746 17.6931
340 1 -1.1104 6.67373 8.89676 14.9486
357 2 2.2208 10.8169 7.4441 13.4616
13016 2 2.2208 13.7285 7.5005 16.2513
386 1 -1.1104 9.42803 3.13071 14.8158
360 2 2.2208 10.8305 4.71617 16.2903
361 2 2.2208 11.0136 10.2886 16.2519
362 1 -1.1104 12.2083 6.06953 17.7148
363 1 -1.1104 12.2988 11.656 17.7765
364 1 -1.1104 12.2787 6.06488 14.8782
366 1 -1.1104 12.2668 11.7911 14.8042
369 1 -1.1104 12.3654 8.94107 17.6333
370 2 2.2208 10.881 7.44565 19.1132
373 1 -1.1104 12.1883 8.86646 14.8988
375 1 -1.1104 9.45083 5.92254 17.7373
376 1 -1.1104 9.40474 11.6333 17.7491
377 2 2.2208 8.0999 4.61991 19.2549
378 2 2.2208 8.03154 10.2249 19.1419
379 1 -1.1104 9.4646 6.2687 14.8019
381 1 -1.1104 9.53483 11.8084 14.8396
383 2 2.2208 8.19256 7.55069 16.3534
385 1 -1.1104 9.47726 8.79901 17.7278
388 1 -1.1104 9.45004 9.05144 15.0198
372 1 -1.1104 12.2429 3.1833 20.5813
12980 2 2.2208 13.6949 10.3422 19.0732
341 1 -1.1104 6.82514 8.82917 20.4733
382 1 -1.1104 9.31486 11.8822 20.5152
365 1 -1.1104 12.1615 6.14391 20.517
328 1 -1.1104 6.7148 11.579 20.5635
393 2 2.2208 2.34605 2.01588 27.6824
392 2 2.2208 2.46328 -3.6596 27.7288
13101 2 2.2208 -0.453169 -0.865441 27.6035
418 2 2.2208 5.28961 -6.4558 27.5804
391 2 2.2208 5.18957 -0.733228 27.5411
270 1 -1.1104 3.71177 0.518999 20.7228
394 2 2.2208 5.00333 -0.711014 22.0847
395 1 -1.1104 0.961874 -4.86007 23.4691
396 1 -1.1104 0.933847 0.543536 23.3902
399 1 -1.1104 1.09744 -4.92352 26.21
400 1 -1.1104 0.936463 0.517424 26.3041
403 1 -1.1104 1.00539 -2.29304 23.4842
404 2 2.2208 5.09301 -3.64673 24.8804
405 2 2.2208 5.19097 1.98057 25.0184
406 1 -1.1104 0.867838 -2.30495 26.2153
408 1 -1.1104 3.79161 -4.89568 23.4027
409 1 -1.1104 3.72784 0.658326 23.5762
410 2 2.2208 2.37555 -0.864688 24.8987
411 1 -1.1104 3.76877 -4.94727 26.2349
412 1 -1.1104 3.62527 0.575624 26.2783
413 2 2.2208 2.44109 -3.57109 22.1549
414 2 2.2208 2.35589 1.95899 22.004
415 1 -1.1104 3.71243 -2.00895 23.3723
416 1 -1.1104 3.70862 -2.17744 26.2621
419 2 2.2208 2.51016 -6.38389 24.7637
424 1 -1.1104 6.48214 -2.19765 23.5401
420 2 2.2208 5.29566 -6.45739 22.1101
281 1 -1.1104 6.5316 -5.08975 20.5065
407 1 -1.1104 6.51972 -2.08756 26.1903
401 1 -1.1104 6.64146 -4.99179 26.0426
397 1 -1.1104 6.69169 -5.06411 23.2177
452 1 -1.1104 6.63087 3.49122 23.4595
422 2 2.2208 8.00845 -3.61013 27.694
423 2 2.2208 8.00669 2.01702 27.5334
421 2 2.2208 10.854 -0.844521 27.4141
444 2 2.2208 10.9309 -6.31996 27.5839
13092 2 2.2208 13.6645 -0.835883 24.6367
402 1 -1.1104 6.63886 0.60832 26.2143
398 1 -1.1104 6.45104 0.674403 23.4324
425 2 2.2208 10.6207 -0.880473 21.9675
426 1 -1.1104 12.2701 -4.95138 23.4271
427 1 -1.1104 12.0574 0.670072 23.1388
428 1 -1.1104 12.0777 -4.98603 26.2351
429 1 -1.1104 12.2017 0.456858 25.9986
430 1 -1.1104 12.196 -2.1331 23.2875
431 2 2.2208 10.9053 -3.5258 24.6579
432 2 2.2208 10.8217 1.91147 24.6969
433 1 -1.1104 12.3135 -2.25084 25.9692
434 1 -1.1104 9.46866 -5.10245 23.4642
435 1 -1.1104 9.31451 0.587937 23.3498
436 2 2.2208 7.97297 -0.782595 24.7682
437 1 -1.1104 9.31105 -5.03203 26.2849
438 1 -1.1104 9.45824 0.613403 26.1553
439 2 2.2208 7.97844 -3.59853 21.8932
440 2 2.2208 7.88557 2.04223 21.9581
441 1 -1.1104 9.37992 -2.16048 23.3335
442 1 -1.1104 9.3348 -2.25454 26.095
445 2 2.2208 8.10732 -6.43507 24.8198
13090 2 2.2208 13.5309 1.98216 21.9299
450 1 -1.1104 6.58034 3.49402 26.1457
13091 2 2.2208 13.6118 -3.6698 21.9346
13094 2 2.2208 13.3844 -6.45819 24.7885
453 2 2.2208 5.31586 4.79561 27.7134
13157 2 2.2208 -0.325573 7.52193 24.9073
13190 2 2.2208 -0.358252 10.4626 21.9651
454 2 2.2208 5.30445 10.4184 27.5755
478 1 -1.1104 6.75407 9.02507 26.1871
354 1 -1.1104 3.77016 3.26601 20.6394
324 1 -1.1104 0.973213 11.5945 20.5135
463 1 -1.1104 6.65136 11.8328 23.2626
451 1 -1.1104 6.61637 8.95362 23.2357
457 1 -1.1104 1.04227 3.38521 23.4942
448 1 -1.1104 0.933353 3.34072 26.3647
335 1 -1.1104 1.15748 3.49066 20.3924
466 1 -1.1104 6.7972 6.28375 23.3434
469 1 -1.1104 3.88808 3.25089 23.384
464 1 -1.1104 3.70466 3.33991 26.2513
447 1 -1.1104 0.981186 9.07952 26.1354
449 2 2.2208 5.30554 7.57415 24.7367
456 1 -1.1104 1.14967 8.86514 23.3144
460 1 -1.1104 0.991965 11.8355 26.2986
461 1 -1.1104 1.15935 6.32263 26.3132
462 1 -1.1104 3.9658 8.96478 26.0752
465 1 -1.1104 3.92748 8.9127 23.3185
467 1 -1.1104 1.08326 11.7304 23.5216
468 1 -1.1104 1.08077 6.0103 23.3932
470 2 2.2208 2.40357 7.5288 21.9617
471 1 -1.1104 3.8188 11.8308 26.2177
472 1 -1.1104 3.96754 6.29377 26.2143
473 2 2.2208 2.46718 10.2838 24.7974
474 2 2.2208 5.17876 10.3746 22.0396
475 2 2.2208 2.5127 4.80923 24.8408
476 1 -1.1104 3.85638 11.7627 23.5496
477 2 2.2208 5.21434 4.69104 21.9494
479 1 -1.1104 3.98883 6.06768 23.3915
502 1 -1.1104 12.2948 6.05266 23.3243
484 2 2.2208 8.11455 7.56614 22.0198
490 1 -1.1104 9.55782 6.2441 23.3574
503 2 2.2208 10.9207 10.3821 21.8211
491 2 2.2208 10.7392 4.75186 27.482
380 1 -1.1104 9.44059 6.09467 20.6245
482 1 -1.1104 9.47494 9.10022 23.2104
497 1 -1.1104 12.3104 8.9344 23.3169
485 1 -1.1104 9.35743 11.751 26.0887
486 1 -1.1104 9.37078 6.17255 26.1627
501 1 -1.1104 12.2976 11.821 23.4479
496 2 2.2208 10.8656 7.50365 24.8271
480 1 -1.1104 9.49349 8.83364 26.1942
481 1 -1.1104 9.30179 3.26538 26.0624
459 1 -1.1104 6.60767 6.15569 26.1912
498 1 -1.1104 12.3031 3.2779 23.4439
458 1 -1.1104 6.55957 11.7832 26.0927
495 1 -1.1104 12.1628 3.39648 26.1842
483 1 -1.1104 9.45082 3.39114 23.3978
505 2 2.2208 13.7741 4.84349 24.7615
500 1 -1.1104 12.2583 6.14664 26.2301
494 1 -1.1104 12.1954 8.95384 26.0818
493 2 2.2208 8.0347 7.55729 27.532
489 1 -1.1104 9.43878 11.83 23.3255
504 2 2.2208 10.8146 4.71803 21.914
13154 2 2.2208 13.7111 7.50567 21.8976
487 2 2.2208 8.0793 10.2761 24.6517
389 1 -1.1104 9.53077 8.86269 20.4346
499 1 -1.1104 12.2286 11.7443 26.2181
488 2 2.2208 8.02408 4.73041 24.8165
507 2 2.2208 5.29571 15.8758 5.09111
508 2 2.2208 5.30864 21.5449 5.06233
509 1 -1.1104 1.06265 17.3173 0.948983
511 1 -1.1104 1.0784 17.3836 3.63631
513 1 -1.1104 0.861265 14.3856 0.830937
514 1 -1.1104 1.01482 20.0476 0.938201
518 2 2.2208 5.16271 18.777 2.23431
519 1 -1.1104 1.07716 14.6455 3.62241
520 1 -1.1104 1.02254 20.3085 3.61564
523 1 -1.1104 3.89261 17.3173 0.723649
524 2 2.2208 2.4545 15.9384 2.18008
525 2 2.2208 2.36387 21.6787 2.25972
526 1 -1.1104 3.80158 17.2189 3.49306
528 2 2.2208 2.37679 18.689 4.98747
529 1 -1.1104 3.78333 14.3947 0.841194
530 1 -1.1104 3.76712 20.2039 0.884281
531 1 -1.1104 4.02162 14.5113 3.70022
532 1 -1.1104 3.77898 20.2384 3.62686
527 2 2.2208 2.54273 13.0187 5.1369
517 2 2.2208 5.36033 13.177 2.27732
521 1 -1.1104 6.78237 14.4866 3.50932
890 2 2.2208 2.36741 13.115 -0.517507
613 1 -1.1104 3.69562 17.2808 6.28885
609 1 -1.1104 1.13419 14.469 6.40208
607 1 -1.1104 1.01657 17.3529 6.53601
610 1 -1.1104 1.01393 20.2027 6.37967
614 1 -1.1104 3.86309 14.4913 6.45716
615 1 -1.1104 3.76048 19.992 6.58592
13246 2 2.2208 -0.40499 18.7378 2.35306
13244 2 2.2208 -0.48885 21.631 4.93899
13243 2 2.2208 -0.24596 15.8739 5.1556
13682 2 2.2208 -0.464201 21.5615 -0.422709
515 1 -1.1104 6.68635 14.5826 0.835518
522 1 -1.1104 6.61256 20.246 3.69876
611 1 -1.1104 6.7024 14.56 6.29535
516 1 -1.1104 6.70632 20.3769 0.697782
512 1 -1.1104 6.58866 17.4211 3.60928
510 1 -1.1104 6.58382 17.4809 0.744564
533 2 2.2208 10.9894 15.9659 4.9492
534 2 2.2208 10.8038 21.4757 5.11241
535 1 -1.1104 12.1676 17.2539 0.831293
536 1 -1.1104 12.3721 17.4287 3.43347
537 1 -1.1104 12.3211 14.519 0.779158
538 1 -1.1104 12.2075 20.1676 0.715529
540 2 2.2208 10.7919 18.812 2.15046
541 1 -1.1104 12.2171 14.5121 3.51365
542 1 -1.1104 12.3179 19.9848 3.56343
543 1 -1.1104 9.27273 17.3473 0.643753
544 2 2.2208 8.08296 15.912 2.11022
545 2 2.2208 8.08661 21.5442 2.19194
546 1 -1.1104 9.48212 17.2273 3.57681
548 2 2.2208 8.0433 18.717 4.95067
549 1 -1.1104 9.50857 14.6333 0.881432
550 1 -1.1104 9.39499 20.1232 0.831025
551 1 -1.1104 9.53542 14.4957 3.67028
552 1 -1.1104 9.42675 20.1484 3.66068
539 2 2.2208 10.7613 13.1834 2.23192
547 2 2.2208 8.23671 13.0861 5.11205
643 1 -1.1104 12.311 14.4542 6.54646
647 1 -1.1104 9.291 20.1099 6.36754
919 2 2.2208 10.718 21.5455 -0.639454
13220 2 2.2208 13.788 18.7049 4.88856
13219 2 2.2208 13.6941 13.0698 5.11284
608 1 -1.1104 6.71766 17.2675 6.34078
612 1 -1.1104 6.48843 20.0097 6.4072
642 1 -1.1104 12.4463 17.2369 6.16741
644 1 -1.1104 12.2314 19.9951 6.33317
645 1 -1.1104 9.44598 17.4372 6.41494
554 1 -1.1104 1.09651 22.9274 0.879382
553 2 2.2208 5.22533 27.1207 5.25902
555 1 -1.1104 0.986668 28.6227 0.79668
558 1 -1.1104 1.06701 23.0094 3.68959
559 1 -1.1104 1.04158 28.4296 3.67107
562 1 -1.1104 1.0153 25.7865 0.958315
563 1 -1.1104 1.02714 31.4473 1.04741
566 2 2.2208 5.32011 24.4001 2.31304
567 2 2.2208 5.14894 30.0615 2.40696
568 1 -1.1104 0.932606 25.7503 3.68119
569 1 -1.1104 1.1236 31.2755 3.79161
572 1 -1.1104 3.9386 23.0038 0.996997
573 1 -1.1104 3.80649 28.6492 1.14045
574 2 2.2208 2.43785 27.2528 2.34379
575 1 -1.1104 4.00973 23.1081 3.71199
576 1 -1.1104 3.87108 28.6551 3.83414
577 2 2.2208 2.45292 24.4097 5.16731
579 2 2.2208 2.47318 29.9595 5.08879
580 1 -1.1104 3.69524 25.9134 0.808139
581 1 -1.1104 3.64781 31.3299 0.864373
582 1 -1.1104 3.78826 25.8472 3.8428
583 1 -1.1104 3.81281 31.5064 3.68456
13307 2 2.2208 -0.302742 29.8903 2.35501
13305 2 2.2208 -0.481557 27.0046 5.04194
13748 2 2.2208 -0.455944 27.2107 -0.605373
578 2 2.2208 2.38321 29.9745 -0.499003
669 1 -1.1104 0.954304 28.4101 6.51017
673 1 -1.1104 1.22016 31.3262 6.57479
565 1 -1.1104 6.5477 31.2926 1.11551
676 1 -1.1104 3.86104 22.9686 6.45156
668 1 -1.1104 0.960704 23.0468 6.49096
672 1 -1.1104 0.949458 25.7214 6.5621
678 1 -1.1104 3.82068 25.6524 6.50925
677 1 -1.1104 3.83433 28.5177 6.55917
671 1 -1.1104 6.55558 28.4743 6.7652
13306 2 2.2208 -0.377625 24.3999 2.2841
564 1 -1.1104 6.60832 25.8771 0.896059
570 1 -1.1104 6.77648 25.7972 3.6991
561 1 -1.1104 6.67082 28.4645 3.91079
571 1 -1.1104 6.74603 31.2412 3.80271
560 1 -1.1104 6.68696 22.973 3.65292
556 1 -1.1104 6.76907 23.0422 0.923132
557 1 -1.1104 6.53215 28.6691 0.987923
584 2 2.2208 10.8573 26.9203 5.13763
585 1 -1.1104 12.3159 22.9776 0.941971
586 1 -1.1104 12.1229 28.4484 1.12288
587 1 -1.1104 12.22 22.7386 3.79988
588 1 -1.1104 12.3062 28.3571 3.92311
589 1 -1.1104 12.4136 25.8074 0.884871
590 1 -1.1104 12.0972 31.3894 0.942885
591 2 2.2208 10.9175 24.2524 2.17325
592 2 2.2208 10.8007 29.9382 2.38989
593 1 -1.1104 12.1882 25.5718 3.58031
594 1 -1.1104 12.2231 31.2604 3.6676
595 1 -1.1104 9.52212 22.9691 0.802173
596 1 -1.1104 9.29014 28.6821 0.897126
597 2 2.2208 8.03974 27.1808 2.16806
598 1 -1.1104 9.45542 22.8898 3.58258
599 1 -1.1104 9.33463 28.5654 3.74946
600 2 2.2208 8.02271 24.3432 5.07325
602 2 2.2208 8.06008 29.8646 5.26006
603 1 -1.1104 9.51354 25.8857 0.735246
604 1 -1.1104 9.43952 31.4905 1.03926
605 1 -1.1104 9.47348 25.7399 3.68621
606 1 -1.1104 9.56395 31.3772 3.68586
601 2 2.2208 8.04187 30.0554 -0.297822
714 1 -1.1104 12.2394 25.6499 6.27493
712 1 -1.1104 12.1875 22.7459 6.58556
985 2 2.2208 8.00889 24.4326 -0.591373
716 1 -1.1104 9.44581 23.0907 6.47957
718 1 -1.1104 9.41614 25.7194 6.34795
616 2 2.2208 5.34822 15.929 10.769
617 2 2.2208 5.17459 21.4761 10.6957
618 1 -1.1104 0.870094 17.2807 11.9922
620 1 -1.1104 1.01757 17.2823 9.24345
622 1 -1.1104 1.02655 14.592 12.2846
623 1 -1.1104 1.04874 20.1286 12.0541
627 2 2.2208 5.24173 18.6072 7.87734
628 1 -1.1104 1.16152 14.4762 9.22866
629 1 -1.1104 1.06106 20.2327 9.30657
632 1 -1.1104 3.87574 17.4026 12.1122
633 2 2.2208 2.4793 15.9225 7.81617
634 2 2.2208 2.52838 21.4691 7.76882
635 1 -1.1104 3.79807 17.4194 9.17261
637 2 2.2208 2.36242 18.843 10.7011
638 1 -1.1104 3.8622 14.5723 12.1671
639 1 -1.1104 3.77586 20.2586 12.2529
640 1 -1.1104 3.86207 14.6461 9.29501
641 1 -1.1104 3.70235 20.1008 9.32785
13374 2 2.2208 -0.417807 15.8633 10.6206
636 2 2.2208 2.54488 13.1795 10.5675
626 2 2.2208 5.22016 13.1934 7.85899
624 1 -1.1104 6.58243 14.49 12.1197
746 2 2.2208 2.4485 15.9524 13.5253
747 2 2.2208 2.41109 21.5955 13.4903
745 2 2.2208 5.14736 18.7598 13.502
13373 2 2.2208 -0.500836 18.7779 7.94768
13375 2 2.2208 -0.30892 21.6641 10.7449
13538 2 2.2208 -0.592656 18.6385 13.4359
631 1 -1.1104 6.6375 20.1694 9.31623
625 1 -1.1104 6.6012 20.1252 12.0759
619 1 -1.1104 6.68215 17.2836 11.9805
630 1 -1.1104 6.67235 14.5611 9.158
621 1 -1.1104 6.75615 17.2127 9.20716
662 2 2.2208 7.95949 13.0519 10.6513
646 1 -1.1104 9.64887 14.5882 6.45382
654 2 2.2208 10.8288 13.1712 7.98909
648 2 2.2208 10.8701 15.9662 10.5673
649 2 2.2208 10.9245 21.4676 10.6109
650 1 -1.1104 12.1942 17.3778 11.9913
651 1 -1.1104 12.3105 17.3813 9.06798
652 1 -1.1104 12.1124 14.6068 11.9789
653 1 -1.1104 12.2655 20.1051 11.8105
655 2 2.2208 10.7651 18.7351 7.80223
656 1 -1.1104 12.3372 14.6214 9.26494
657 1 -1.1104 12.3539 20.0496 9.03123
658 1 -1.1104 9.31265 17.3255 11.9992
659 2 2.2208 8.1969 15.8694 7.75608
660 2 2.2208 8.02154 21.4447 7.86031
661 1 -1.1104 9.53863 17.1142 9.18089
663 2 2.2208 8.00482 18.7293 10.6569
664 1 -1.1104 9.46254 14.4216 11.8197
665 1 -1.1104 9.32421 20.1565 12.0158
666 1 -1.1104 9.37785 14.443 9.23882
667 1 -1.1104 9.46545 20.0672 9.15414
783 2 2.2208 10.901 13.1812 13.4638
786 2 2.2208 8.04923 21.5153 13.434
785 2 2.2208 8.12496 15.9274 13.4373
784 2 2.2208 10.788 18.7152 13.3511
813 2 2.2208 13.7382 21.4922 13.4517
13494 2 2.2208 13.6454 15.9001 13.4162
679 1 -1.1104 3.94371 31.2056 6.63027
680 2 2.2208 5.23264 27.0112 10.735
681 1 -1.1104 0.935992 22.9332 12.1434
682 1 -1.1104 1.08023 28.4589 12.2198
685 1 -1.1104 1.012 23.0629 9.30458
686 1 -1.1104 0.976556 28.6426 9.3737
689 1 -1.1104 1.08057 25.6391 12.1995
690 1 -1.1104 0.890422 31.144 12.1838
693 2 2.2208 5.23731 24.2997 7.92029
694 2 2.2208 5.24704 29.8392 8.07239
696 1 -1.1104 1.12503 25.7801 9.38629
697 1 -1.1104 0.966558 31.3842 9.51298
700 1 -1.1104 3.82625 22.9147 11.9977
701 1 -1.1104 3.84227 28.3696 12.1626
702 2 2.2208 2.42146 27.1279 7.8723
704 1 -1.1104 3.92901 22.9538 9.35982
705 1 -1.1104 3.72218 28.4153 9.40809
706 2 2.2208 2.42504 24.257 10.7402
707 2 2.2208 2.50198 29.8476 10.8369
708 1 -1.1104 3.82205 25.6525 12.1219
709 1 -1.1104 3.78728 31.2872 12.182
710 1 -1.1104 3.84617 25.663 9.25605
711 1 -1.1104 3.7697 31.2606 9.4036
698 1 -1.1104 6.65379 25.7663 9.23104
695 2 2.2208 5.29369 29.9724 13.6313
814 2 2.2208 5.18059 24.2729 13.5745
703 2 2.2208 2.44792 27.0616 13.6018
13458 2 2.2208 -0.383393 24.3832 7.86586
13621 2 2.2208 -0.370773 24.2517 13.4547
13459 2 2.2208 -0.299894 27.1653 10.8476
13457 2 2.2208 -0.387489 29.9119 7.92526
674 1 -1.1104 6.57686 25.7174 6.55405
691 1 -1.1104 6.6431 25.6721 12.1097
670 1 -1.1104 6.60937 22.8954 6.49612
675 1 -1.1104 6.63774 31.345 6.47844
699 1 -1.1104 6.6301 31.3121 9.26921
684 1 -1.1104 6.63809 28.5862 12.1854
692 1 -1.1104 6.76169 31.4418 12.2138
688 1 -1.1104 6.57424 28.4894 9.49533
683 1 -1.1104 6.65595 22.7916 12.2013
717 1 -1.1104 9.29621 28.6272 6.77363
719 1 -1.1104 9.49081 31.3614 6.52103
715 1 -1.1104 12.1427 31.2624 6.48668
713 1 -1.1104 12.3483 28.4024 6.48959
687 1 -1.1104 6.64341 22.968 9.3999
736 1 -1.1104 9.56744 22.841 9.23685
720 2 2.2208 10.9155 27.0978 10.7298
721 1 -1.1104 12.3966 22.9371 12.1827
722 1 -1.1104 12.2775 28.3654 12.1384
723 1 -1.1104 12.2389 22.9341 9.42778
724 1 -1.1104 12.1214 28.6407 9.26874
725 1 -1.1104 12.12 25.6251 12.1478
726 1 -1.1104 12.2565 31.2153 12.1151
727 2 2.2208 10.904 24.2312 7.9147
728 2 2.2208 10.7591 29.9131 7.96762
730 1 -1.1104 12.28 25.708 9.13204
731 1 -1.1104 12.1919 31.3243 9.24972
732 1 -1.1104 9.47891 22.9751 12.1832
733 1 -1.1104 9.48693 28.6327 12.3969
734 2 2.2208 8.00888 27.1296 7.88608
737 1 -1.1104 9.44946 28.6516 9.45253
738 2 2.2208 8.07914 24.2873 10.7658
739 2 2.2208 8.05659 30.0333 10.8762
740 1 -1.1104 9.43869 25.7596 12.0873
741 1 -1.1104 9.51717 31.3372 12.4117
742 1 -1.1104 9.51451 25.7327 9.28701
743 1 -1.1104 9.44076 31.2169 9.28879
729 2 2.2208 10.984 29.9548 13.5567
13416 2 2.2208 13.6638 24.251 10.7387
857 2 2.2208 10.8045 24.3276 13.5179
735 2 2.2208 8.11339 27.0907 13.492
744 2 2.2208 5.28926 13.2187 13.4739
775 2 2.2208 2.35672 13.075 16.3324
760 2 2.2208 5.22861 12.9143 19.1692
748 2 2.2208 5.13965 15.8872 16.2873
749 2 2.2208 5.29435 21.5195 16.1795