ITEM: TIMESTEP
90000
ITEM: NUMBER OF ATOMS
27000
ITEM: BOX BOUNDS pp pp pp
-3.4843661974618279e-01 2.7688436619746600e+01
-6.5788677582096593e+00 4.9869886775821180e+02
-3.6245778100961584e-01 2.7702457781009119e+01
ITEM: ATOMS id type q x y z
1 2 2.2208 5.14633 -1.21601 5.33734
2 1 -1.1104 1.09836 -5.36979 1.19121
3 1 -1.1104 0.919943 0.259962 1.15167
6 1 -1.1104 0.984112 -5.36054 3.86849
7 1 -1.1104 1.06756 0.225132 3.91364
10 1 -1.1104 1.00311 -2.5182 1.04785
12 2 2.2208 5.15538 -3.89187 2.525
13 2 2.2208 5.16755 1.75204 2.60362
14 1 -1.1104 0.943693 -2.51351 3.98517
16 1 -1.1104 3.78208 -5.48334 1.15379
17 1 -1.1104 3.66489 0.269518 1.24068
18 2 2.2208 2.41126 -1.22727 2.54011
19 1 -1.1104 3.84098 -5.26261 3.91681
20 1 -1.1104 3.74857 0.274022 4.12023
21 2 2.2208 2.35709 -3.97172 5.22977
22 2 2.2208 2.39555 1.58571 5.43541
23 1 -1.1104 3.78566 -2.5639 1.38503
24 1 -1.1104 3.77329 -2.45868 3.99727
106 1 -1.1104 0.863514 -2.66554 6.67326
102 1 -1.1104 1.03254 -5.36256 6.75385
485 1 -1.1104 9.37142 11.4573 26.2657
8 1 -1.1104 6.52048 -5.20112 4.07231
9 1 -1.1104 6.59943 0.117686 3.80632
15 1 -1.1104 6.45384 -2.5849 3.95591
486 1 -1.1104 9.40249 5.90847 26.1877
5 1 -1.1104 6.33314 0.152538 1.19975
4 1 -1.1104 6.71485 -5.19961 1.19637
61 1 -1.1104 6.41512 3.04062 1.06702
103 1 -1.1104 0.89707 0.235547 6.78632
105 1 -1.1104 6.52059 0.274414 6.739
175 1 -1.1104 1.11061 3.10393 6.83726
393 2 2.2208 2.29098 1.62756 -0.153247
392 2 2.2208 2.36038 -3.97126 -0.325059
391 2 2.2208 5.13239 -1.12234 -0.196149
11 1 -1.1104 6.59503 -2.52184 1.0803
27 2 2.2208 10.7683 -1.23672 5.16956
28 1 -1.1104 12.0892 -5.33602 1.17061
29 1 -1.1104 12.1278 0.304225 1.08189
30 1 -1.1104 12.3162 -5.42251 3.93082
31 1 -1.1104 12.242 0.242983 3.91801
32 1 -1.1104 12.1198 -2.65224 1.00635
33 2 2.2208 10.8081 -3.99373 2.54904
34 2 2.2208 10.8088 1.62183 2.47851
35 1 -1.1104 12.0957 -2.67547 3.93117
36 1 -1.1104 9.37458 -5.35024 1.29524
37 1 -1.1104 9.30587 0.116929 1.09828
38 2 2.2208 7.89277 -1.25371 2.38189
39 1 -1.1104 9.32585 -5.32027 4.05155
40 1 -1.1104 9.39389 0.212412 3.96133
41 2 2.2208 7.92248 -3.865 5.31626
42 2 2.2208 7.98865 1.66502 5.26364
43 1 -1.1104 9.3872 -2.58074 1.1209
44 1 -1.1104 9.17303 -2.59072 3.81858
45 2 2.2208 13.5214 1.63181 5.27369
501 1 -1.1104 12.164 11.3844 23.5675
421 2 2.2208 10.7303 -1.25261 -0.326409
99 1 -1.1104 9.50389 3.08126 4.00584
97 1 -1.1104 9.25272 3.00418 1.24366
85 1 -1.1104 12.0618 3.09403 1.00422
143 1 -1.1104 9.21002 0.362101 6.65451
422 2 2.2208 7.93539 -4.00457 -0.339475
443 2 2.2208 13.4488 1.79379 27.6864
13155 2 2.2208 13.53 10.0704 24.915
59 1 -1.1104 0.911283 3.03946 1.2367
77 1 -1.1104 3.8174 3.10431 3.92223
75 1 -1.1104 3.78011 3.11427 1.07232
64 1 -1.1104 0.900321 3.07562 3.95792
49 2 2.2208 5.23051 4.52127 5.32416
50 2 2.2208 5.1915 10.3249 5.36714
51 1 -1.1104 1.15012 5.85346 1.01953
52 1 -1.1104 1.05655 11.4448 1.03055
55 1 -1.1104 1.00074 5.90798 3.98429
56 1 -1.1104 0.901302 11.4656 3.96661
60 1 -1.1104 1.01641 8.68742 1.07721
63 2 2.2208 5.22688 7.33448 2.55443
65 1 -1.1104 1.00196 8.77473 3.97885
68 1 -1.1104 3.81411 5.89608 1.18726
69 1 -1.1104 3.71107 11.4793 1.00402
70 2 2.2208 2.45312 4.61436 2.39658
71 2 2.2208 2.35599 10.1882 2.52735
72 1 -1.1104 3.87835 5.97803 3.95195
73 1 -1.1104 3.72669 11.4872 3.9782
74 2 2.2208 2.41373 7.28159 5.32669
76 1 -1.1104 3.75825 8.74135 1.02122
78 1 -1.1104 3.80319 8.81025 3.92784
171 1 -1.1104 0.960726 5.8829 6.79247
182 1 -1.1104 3.7908 8.68953 6.74462
478 1 -1.1104 6.59978 8.80141 26.3246
54 1 -1.1104 6.5817 11.4344 1.13402
53 1 -1.1104 6.6072 5.89687 1.03784
57 1 -1.1104 6.62702 5.83583 3.88259
67 1 -1.1104 6.57007 8.72416 3.93074
62 1 -1.1104 6.61726 8.72388 1.1845
66 1 -1.1104 6.63989 3.02204 3.90588
58 1 -1.1104 6.71858 11.5832 3.7556
180 1 -1.1104 3.83673 11.5269 6.88591
453 2 2.2208 5.12308 4.43581 -0.326135
309 2 2.2208 13.5198 1.78528 16.5303
88 1 -1.1104 12.1332 3.13298 3.95433
79 2 2.2208 10.8024 4.45696 5.42519
80 2 2.2208 10.7187 10.103 5.3112
81 1 -1.1104 12.0235 5.85754 1.15252
82 1 -1.1104 12.3852 11.4386 1.13965
83 1 -1.1104 12.1591 5.76329 4.16242
84 1 -1.1104 12.0885 11.4301 3.90056
86 1 -1.1104 12.1497 8.65251 0.934936
87 2 2.2208 10.7963 7.23193 2.53294
89 1 -1.1104 12.1954 8.65549 3.81369
90 1 -1.1104 9.28119 5.81218 0.968572
91 1 -1.1104 9.47791 11.578 1.05378
92 2 2.2208 7.99784 4.4579 2.47715
93 2 2.2208 7.98467 10.0945 2.55595
94 1 -1.1104 9.28398 5.88623 3.9193
95 1 -1.1104 9.29832 11.4849 4.0665
96 2 2.2208 7.87785 7.23927 5.23621
98 1 -1.1104 9.34208 8.70693 1.09905
100 1 -1.1104 9.33667 8.54056 3.86632
493 2 2.2208 7.91378 7.27698 -0.251193
492 2 2.2208 10.711 10.044 -0.408087
12729 2 2.2208 13.5392 7.18077 5.39296
500 1 -1.1104 12.1458 5.8275 26.2133
491 2 2.2208 10.6538 4.55194 27.7143
166 2 2.2208 13.629 -1.04583 13.6674
108 1 -1.1104 3.9251 -5.37112 6.85837
110 1 -1.1104 3.73294 -2.61924 6.70999
104 1 -1.1104 6.47332 -5.40836 6.78343
107 1 -1.1104 6.52869 -2.50603 6.96245
109 1 -1.1104 3.69603 0.258574 6.88274
111 2 2.2208 5.12764 -1.16666 10.9238
112 1 -1.1104 1.08096 -5.35381 12.3039
113 1 -1.1104 0.985799 0.315238 12.357
116 1 -1.1104 1.02389 -5.45576 9.50032
117 1 -1.1104 1.02811 0.303603 9.64841
120 1 -1.1104 0.999051 -2.55022 12.2993
122 2 2.2208 5.21552 -3.94538 8.19421
124 2 2.2208 5.16676 1.56325 8.1912
125 1 -1.1104 0.904666 -2.61593 9.35999
127 1 -1.1104 3.76951 -5.25988 12.4444
128 1 -1.1104 3.73669 0.0646851 12.3606
129 2 2.2208 2.34157 -1.1198 8.06361
131 1 -1.1104 3.85684 -5.36636 9.62501
132 1 -1.1104 3.6396 0.191587 9.49905
133 2 2.2208 2.37277 -3.87697 10.9483
134 2 2.2208 2.37331 1.65062 10.9072
135 1 -1.1104 3.76411 -2.59908 12.3533
136 1 -1.1104 3.8798 -2.47046 9.50243
12866 2 2.2208 13.6478 10.0883 8.09365
126 1 -1.1104 6.82587 -2.53779 9.59229
119 1 -1.1104 6.49601 0.228914 9.54534
389 1 -1.1104 9.24454 8.62443 20.7491
118 1 -1.1104 6.67989 -5.3213 9.71988
115 1 -1.1104 6.56837 0.348448 12.3254
211 1 -1.1104 3.78112 2.94546 9.49759
198 1 -1.1104 0.926711 3.023 9.56441
209 1 -1.1104 3.70486 3.07763 12.2098
195 1 -1.1104 6.55493 3.13055 12.3257
123 2 2.2208 5.12995 -3.94565 13.6998
141 1 -1.1104 12.1403 -2.70022 6.67429
142 1 -1.1104 9.26734 -5.39061 6.73641
139 1 -1.1104 12.0197 -5.42033 6.60843
219 1 -1.1104 9.40624 3.10838 6.80591
215 1 -1.1104 12.1307 3.07 6.68932
144 1 -1.1104 9.33191 -2.35253 6.64757
140 1 -1.1104 12.0389 0.139242 6.73762
114 1 -1.1104 6.59071 -5.27927 12.4361
121 1 -1.1104 6.50846 -2.54039 12.275
145 2 2.2208 10.7799 -1.05598 10.9083
146 1 -1.1104 12.2079 -5.27761 12.4501
147 1 -1.1104 12.1481 0.388941 12.3762
148 1 -1.1104 12.3378 -5.26224 9.53109
149 1 -1.1104 12.1934 0.270964 9.49669
150 1 -1.1104 12.2885 -2.42788 12.3487
151 2 2.2208 10.8263 -4.02149 8.13991
153 2 2.2208 10.7967 1.61358 8.05067
154 1 -1.1104 12.1464 -2.47341 9.56908
155 1 -1.1104 9.36533 -5.28399 12.4549
156 1 -1.1104 9.44582 0.317399 12.3018
157 2 2.2208 7.88761 -1.0442 8.12144
159 1 -1.1104 9.48835 -5.38666 9.52687
160 1 -1.1104 9.26968 0.32058 9.43968
161 2 2.2208 8.09703 -3.86792 11.0297
162 2 2.2208 8.05289 1.62991 10.8984
163 1 -1.1104 9.41712 -2.48633 12.3259
164 1 -1.1104 9.39761 -2.43651 9.57043
506 2 2.2208 13.5076 7.21247 27.6254
167 2 2.2208 13.4995 1.60354 10.9137
450 1 -1.1104 6.56186 3.07046 26.4453
101 2 2.2208 13.617 4.49856 2.60739
181 1 -1.1104 3.89252 2.94575 6.73198
179 1 -1.1104 3.7821 5.8362 6.71519
176 1 -1.1104 1.0063 8.6626 6.82411
172 1 -1.1104 0.92584 11.6944 6.74042
177 1 -1.1104 6.56692 3.17398 6.75706
178 1 -1.1104 6.46473 8.86262 6.67878
193 1 -1.1104 0.96769 3.19992 12.4407
183 2 2.2208 5.09649 4.51346 10.9549
184 2 2.2208 5.34914 10.1444 10.8032
185 1 -1.1104 0.965091 5.91489 12.4117
186 1 -1.1104 0.994356 11.4464 12.3185
189 1 -1.1104 0.850786 5.91076 9.5383
190 1 -1.1104 1.23031 11.5546 9.45153
194 1 -1.1104 1.13239 8.47917 12.4005
197 2 2.2208 5.16045 7.22768 8.08914
199 1 -1.1104 0.886821 8.73706 9.47684
202 1 -1.1104 3.65374 6.03623 12.2955
203 1 -1.1104 3.89108 11.7282 12.2606
204 2 2.2208 2.36203 4.39021 8.18651
205 2 2.2208 2.34299 10.1284 8.10046
206 1 -1.1104 3.62968 5.90877 9.46848
207 1 -1.1104 4.01993 11.6239 9.61506
208 2 2.2208 2.36044 7.36647 10.9459
210 1 -1.1104 3.99737 8.805 12.2697
212 1 -1.1104 3.73508 8.85776 9.51899
314 2 2.2208 2.37888 10.1082 13.7377
372 1 -1.1104 12.234 3.10814 20.7245
196 1 -1.1104 6.67953 8.67167 12.247
192 1 -1.1104 6.80378 11.67 9.54576
188 1 -1.1104 6.71047 11.4509 12.3999
201 1 -1.1104 6.49948 8.72079 9.43063
13093 2 2.2208 13.6322 -3.97488 -0.307674
173 1 -1.1104 6.67339 5.85653 6.67294
220 1 -1.1104 9.41752 8.6739 6.62423
216 1 -1.1104 12.2066 8.66649 6.60085
213 1 -1.1104 12.2972 5.86112 6.79269
214 1 -1.1104 12.1792 11.4213 6.75331
174 1 -1.1104 6.54508 11.5895 6.81508
200 1 -1.1104 6.59436 3.16157 9.49446
187 1 -1.1104 6.54325 6.02309 12.2779
217 1 -1.1104 9.48118 5.88713 6.70125
218 1 -1.1104 9.2885 11.4343 6.80803
191 1 -1.1104 6.60004 6.00406 9.55782
241 1 -1.1104 9.31909 2.92841 9.47837
239 1 -1.1104 9.33386 3.14135 12.3457
227 1 -1.1104 12.1936 3.15116 12.4237
230 1 -1.1104 12.2399 3.11575 9.60014
221 2 2.2208 10.7691 4.52948 10.8802
222 2 2.2208 10.8042 10.219 10.9254
223 1 -1.1104 12.2924 5.93704 12.2638
224 1 -1.1104 11.9963 11.5565 12.3149
225 1 -1.1104 12.2351 5.8757 9.47287
226 1 -1.1104 12.1913 11.5575 9.52212
228 1 -1.1104 12.2121 8.83982 12.3053
229 2 2.2208 10.7831 7.32922 8.05055
231 1 -1.1104 12.2427 8.71209 9.43871
232 1 -1.1104 9.39091 6.00847 12.1889
233 1 -1.1104 9.29627 11.7472 12.3805
234 2 2.2208 7.93995 4.47604 8.09334
235 2 2.2208 7.95529 10.1387 8.15149
236 1 -1.1104 9.54031 5.85617 9.42913
237 1 -1.1104 9.46176 11.5122 9.39703
238 2 2.2208 7.97175 7.30855 10.8629
240 1 -1.1104 9.44204 9.00191 12.2884
242 1 -1.1104 9.23022 8.78556 9.60067
459 1 -1.1104 6.60583 5.9272 26.3454
130 2 2.2208 2.35562 -1.18269 13.791
12669 2 2.2208 13.5854 -4.01106 5.35919
245 2 2.2208 5.16022 1.62005 13.6088
246 2 2.2208 5.0528 -1.10736 16.4028
247 1 -1.1104 0.903038 -5.40908 17.9147
248 1 -1.1104 1.07223 0.491166 17.8933
250 1 -1.1104 0.998043 -5.34826 15.1219
252 1 -1.1104 0.978021 0.333178 15.078
257 1 -1.1104 0.980183 -2.43903 17.953
259 2 2.2208 5.07057 -3.91363 19.2759
260 2 2.2208 5.1266 1.78109 19.3029
261 1 -1.1104 1.10405 -2.60774 15.1977
264 1 -1.1104 3.62945 -5.31354 17.8556
265 1 -1.1104 3.64321 0.320524 17.9682
266 2 2.2208 2.27195 -0.960354 19.4312
267 1 -1.1104 3.87937 -5.27074 15.2041
269 1 -1.1104 3.76987 0.292579 15.0688
271 2 2.2208 2.39348 -3.95804 16.5121
272 2 2.2208 2.32173 1.8148 16.5166
273 1 -1.1104 3.59687 -2.52936 17.9668
274 1 -1.1104 3.75894 -2.53929 15.1078
251 1 -1.1104 0.957082 -5.1774 20.8155
497 1 -1.1104 12.1353 8.58952 23.4913
255 1 -1.1104 6.46977 0.296858 15.021
254 1 -1.1104 6.5196 -5.24632 15.1935
334 1 -1.1104 0.98087 3.22832 15.2297
351 1 -1.1104 3.70648 3.13 17.9102
353 1 -1.1104 3.63958 3.13755 15.0763
329 1 -1.1104 0.872804 3.33783 18.1265
482 1 -1.1104 9.42601 8.74492 23.3544
152 2 2.2208 10.8397 -3.78193 13.7613
258 1 -1.1104 6.50038 -2.6487 17.9806
280 1 -1.1104 6.59588 -5.36244 17.9813
158 2 2.2208 7.87458 -1.19305 13.6129
279 2 2.2208 10.767 1.74246 13.6845
263 1 -1.1104 6.47751 -2.57909 14.9808
249 1 -1.1104 6.51733 0.230788 17.9032
283 2 2.2208 10.7999 -1.04777 16.5121
284 1 -1.1104 12.2829 -5.26979 17.9593
285 1 -1.1104 12.121 0.483005 17.9189
286 1 -1.1104 12.1396 -5.24972 15.2373
288 1 -1.1104 12.1602 0.173396 15.0869
290 1 -1.1104 12.1976 -2.52926 18.018
291 2 2.2208 10.7315 -4.03664 19.4093
292 2 2.2208 10.7706 1.87559 19.2404
293 1 -1.1104 12.1865 -2.53117 15.1611
295 1 -1.1104 9.40604 -5.2641 17.9603
296 1 -1.1104 9.38044 0.351223 17.813
297 2 2.2208 8.03147 -1.16362 19.2375
298 1 -1.1104 9.28953 -5.23199 15.203
300 1 -1.1104 9.21016 0.295863 15.2085
302 2 2.2208 7.95201 -3.86687 16.5398
303 2 2.2208 7.89697 1.73141 16.3815
304 1 -1.1104 9.41185 -2.47597 17.8006
305 1 -1.1104 9.35729 -2.48373 15.1196
490 1 -1.1104 9.37467 5.93173 23.406
371 1 -1.1104 12.2038 3.15928 15.102
313 2 2.2208 2.30046 4.6126 13.8084
312 2 2.2208 5.17133 7.23097 13.6667
503 2 2.2208 10.7271 10.1819 22.0668
315 2 2.2208 5.1238 4.56563 16.534
316 2 2.2208 5.20263 10.2032 16.4851
317 1 -1.1104 0.897566 6.06858 18.0556
318 1 -1.1104 0.804451 11.6344 17.9309
321 1 -1.1104 0.934156 5.91584 15.2956
323 1 -1.1104 0.937245 11.65 15.143
330 1 -1.1104 1.00617 8.93374 17.8811
333 2 2.2208 5.05255 7.3554 19.2382
336 1 -1.1104 0.94823 8.78286 15.2208
342 1 -1.1104 3.76539 5.90047 18.0387
343 1 -1.1104 3.64031 11.7132 17.933
344 2 2.2208 2.3282 4.58623 19.3951
345 2 2.2208 2.36485 10.2572 19.2888
346 1 -1.1104 3.63563 6.02606 15.0884
348 1 -1.1104 3.74766 11.4729 15.1399
350 2 2.2208 2.26566 7.45466 16.5209
352 1 -1.1104 3.96903 8.8166 17.9279
355 1 -1.1104 3.67889 8.75774 15.1283
337 1 -1.1104 0.902964 8.86003 20.6163
349 1 -1.1104 3.71584 11.606 20.7674
320 1 -1.1104 6.56313 11.6301 17.8688
340 1 -1.1104 6.57355 8.74259 15.0389
319 1 -1.1104 6.45878 6.08931 17.8444
332 1 -1.1104 6.69714 8.77406 17.8459
354 1 -1.1104 3.68339 3.29541 20.838
380 1 -1.1104 9.25022 5.78183 20.6436
359 2 2.2208 8.12021 10.1727 13.6495
358 2 2.2208 8.02023 4.41604 13.5728
357 2 2.2208 10.8728 7.41158 13.7503
384 1 -1.1104 9.28897 3.10002 17.9398
325 1 -1.1104 6.5657 5.90485 15.1377
365 1 -1.1104 12.1137 5.86553 20.7961
339 1 -1.1104 6.49095 3.31292 20.6678
387 1 -1.1104 9.38468 3.04338 20.6482
331 1 -1.1104 6.50234 2.98486 17.7589
326 1 -1.1104 6.29052 5.92729 20.6657
327 1 -1.1104 6.60183 11.5235 15.0924
338 1 -1.1104 6.48304 3.0499 15.0645
368 1 -1.1104 12.2321 3.30984 17.9684
386 1 -1.1104 9.43476 3.17414 15.0806
367 1 -1.1104 12.1073 11.5635 20.8213
374 1 -1.1104 11.9812 8.57732 20.6734
360 2 2.2208 10.8882 4.59879 16.5383
361 2 2.2208 10.8053 10.1898 16.6383
362 1 -1.1104 12.2806 6.0586 17.9081
363 1 -1.1104 12.1158 11.5766 18.0584
364 1 -1.1104 12.2104 5.9959 15.0849
366 1 -1.1104 12.2779 11.7459 15.0753
369 1 -1.1104 12.1682 8.99338 18.0277
370 2 2.2208 10.6655 7.23496 19.3037
373 1 -1.1104 12.1435 8.82206 15.1741
375 1 -1.1104 9.38986 5.90522 17.7871
376 1 -1.1104 9.34684 11.4953 17.8636
377 2 2.2208 7.76243 4.45953 19.3364
378 2 2.2208 8.02208 10.1425 19.412
379 1 -1.1104 9.42017 5.92367 15.0284
381 1 -1.1104 9.40761 11.4914 15.1851
383 2 2.2208 7.94833 7.36213 16.4126
385 1 -1.1104 9.43089 8.65128 17.8437
388 1 -1.1104 9.46102 8.70345 15.1001
262 1 -1.1104 0.904474 -2.3907 20.6275
253 1 -1.1104 0.911463 0.489432 20.719
270 1 -1.1104 3.75539 0.428027 20.7501
268 1 -1.1104 3.76297 -5.31688 20.8141
275 1 -1.1104 3.77609 -2.47539 20.8421
394 2 2.2208 5.2189 -1.09462 22.1567
395 1 -1.1104 1.08776 -5.43731 23.6017
396 1 -1.1104 1.04143 0.2573 23.5153
399 1 -1.1104 0.82955 -5.17385 26.3981
400 1 -1.1104 0.984349 0.36596 26.2912
403 1 -1.1104 0.958452 -2.51828 23.4605
404 2 2.2208 5.21118 -3.87697 24.9695
405 2 2.2208 5.1447 1.74922 24.9667
406 1 -1.1104 1.01493 -2.47126 26.2583
408 1 -1.1104 3.79987 -5.33732 23.6348
409 1 -1.1104 3.79116 0.350583 23.6051
410 2 2.2208 2.52047 -1.12987 24.9661
411 1 -1.1104 3.74701 -5.36874 26.5123
412 1 -1.1104 3.75484 0.0884205 26.4088
413 2 2.2208 2.51739 -3.95819 22.1412
414 2 2.2208 2.26881 1.72848 22.253
415 1 -1.1104 3.84037 -2.48405 23.4958
416 1 -1.1104 3.86083 -2.64323 26.4169
382 1 -1.1104 9.42568 11.461 20.5493
281 1 -1.1104 6.58739 -5.23069 20.7238
424 1 -1.1104 6.59698 -2.57054 23.6526
397 1 -1.1104 6.60378 -5.31132 23.4057
402 1 -1.1104 6.46527 0.26976 26.4414
398 1 -1.1104 6.43802 0.182442 23.6793
457 1 -1.1104 0.886343 2.95682 23.7596
469 1 -1.1104 3.79741 3.2607 23.6016
464 1 -1.1104 3.79688 2.97827 26.4108
452 1 -1.1104 6.62464 3.09852 23.5616
484 2 2.2208 7.84145 7.31007 22.0436
495 1 -1.1104 12.0477 3.08201 26.3384
502 1 -1.1104 12.2622 5.85042 23.4868
301 1 -1.1104 9.18589 0.182419 20.9042
256 1 -1.1104 6.60743 0.45581 20.6741
407 1 -1.1104 6.39143 -2.60757 26.4563
282 1 -1.1104 6.54802 -2.3952 20.6356
401 1 -1.1104 6.6241 -5.28011 26.1961
299 1 -1.1104 9.38025 -5.35451 20.8744
306 1 -1.1104 9.30689 -2.49789 20.8172
294 1 -1.1104 12.1445 -2.47139 20.8413
289 1 -1.1104 12.0917 0.363096 20.7135
287 1 -1.1104 12.3377 -5.35992 20.7888
423 2 2.2208 7.84648 1.60198 -0.33994
425 2 2.2208 10.7954 -1.16692 22.2018
426 1 -1.1104 12.2722 -5.32515 23.5783
427 1 -1.1104 12.264 0.389061 23.5155
428 1 -1.1104 12.1338 -5.21709 26.4978
429 1 -1.1104 12.064 0.324604 26.3349
430 1 -1.1104 12.0899 -2.48727 23.578
431 2 2.2208 10.7623 -3.93133 24.9784
432 2 2.2208 10.7245 1.58111 24.8061
433 1 -1.1104 12.1299 -2.42178 26.2669
434 1 -1.1104 9.4606 -5.36208 23.5858
435 1 -1.1104 9.38751 0.171587 23.6433
436 2 2.2208 7.83465 -1.09904 24.97
437 1 -1.1104 9.37549 -5.39851 26.4236
438 1 -1.1104 9.11275 0.325657 26.3604
439 2 2.2208 8.03031 -3.94254 22.1855
440 2 2.2208 7.96834 1.63929 22.112
441 1 -1.1104 9.29272 -2.56814 23.5109
442 1 -1.1104 9.29431 -2.58189 26.3503
498 1 -1.1104 12.08 3.20463 23.5216
308 2 2.2208 13.6358 -3.81851 16.5851
335 1 -1.1104 0.761155 3.19725 20.8853
322 1 -1.1104 0.80985 6.09328 21.0238
324 1 -1.1104 0.887994 11.6887 20.6905
341 1 -1.1104 6.50989 8.76812 20.6898
328 1 -1.1104 6.5407 11.5779 20.6497
463 1 -1.1104 6.52729 11.5116 23.4366
347 1 -1.1104 3.66803 6.04978 20.7769
454 2 2.2208 5.1653 10.1027 -0.34312
356 1 -1.1104 3.76291 8.96923 20.6228
504 2 2.2208 10.717 4.42839 22.0553
448 1 -1.1104 0.909855 3.05307 26.5254
455 2 2.2208 2.34169 7.40198 -0.318646
447 1 -1.1104 1.0981 8.85727 26.3247
449 2 2.2208 5.15498 7.34021 24.9737
456 1 -1.1104 1.01828 8.75865 23.5468
460 1 -1.1104 1.00175 11.6297 26.4238
461 1 -1.1104 1.04672 6.0196 26.4366
462 1 -1.1104 3.81936 8.70642 26.2612
465 1 -1.1104 3.77797 8.8158 23.505
467 1 -1.1104 1.09269 11.7388 23.5214
468 1 -1.1104 0.876356 5.91762 23.6833
470 2 2.2208 2.29972 7.41659 22.1557
471 1 -1.1104 3.79331 11.6742 26.3897
472 1 -1.1104 3.78841 5.95638 26.3335
473 2 2.2208 2.28545 10.1782 24.9729
474 2 2.2208 5.07672 10.1019 22.0788
475 2 2.2208 2.32676 4.46474 25.0422
476 1 -1.1104 3.68514 11.4546 23.5622
477 2 2.2208 5.0708 4.56077 22.1379
479 1 -1.1104 3.60116 5.97046 23.5169
458 1 -1.1104 6.42347 11.5196 26.2003
466 1 -1.1104 6.47211 5.76174 23.7057
13154 2 2.2208 13.5279 7.17373 22.1667
505 2 2.2208 13.5557 4.42907 24.883
481 1 -1.1104 9.30727 3.13722 26.4771
480 1 -1.1104 9.27451 8.73613 26.2465
483 1 -1.1104 9.38484 3.12181 23.5701
496 2 2.2208 10.7308 7.15758 24.7308
451 1 -1.1104 6.53499 8.62558 23.497
488 2 2.2208 7.94982 4.53941 25.0142
499 1 -1.1104 12.2244 11.5488 26.3398
489 1 -1.1104 9.34447 11.474 23.4058
494 1 -1.1104 12.1423 8.62897 26.2728
487 2 2.2208 7.98965 10.1649 24.8356
13014 2 2.2208 13.6258 4.63611 19.315
244 2 2.2208 13.5793 4.31182 8.06525
12980 2 2.2208 13.6244 10.2164 19.3795
13016 2 2.2208 13.5619 7.54048 16.6858
13092 2 2.2208 13.5455 -1.12368 24.9175
307 2 2.2208 13.4346 -0.991706 19.3907
165 2 2.2208 13.5506 -1.05179 8.04726
12678 2 2.2208 -0.348051 1.70917 2.5405
12730 2 2.2208 13.5631 10.0808 2.56804
12731 2 2.2208 -0.339539 7.2802 2.53967
169 2 2.2208 8.05717 -6.65622 13.8944
507 2 2.2208 5.15872 15.7048 5.2888
508 2 2.2208 5.3366 21.3419 5.31013
509 1 -1.1104 0.738442 17.1147 1.19877
511 1 -1.1104 1.10753 17.0988 3.95076
513 1 -1.1104 0.996101 14.2387 1.15414
514 1 -1.1104 0.865685 20.0252 1.23019
518 2 2.2208 5.29326 18.621 2.51429
519 1 -1.1104 0.90321 14.2686 3.89516
520 1 -1.1104 1.03242 19.8835 3.90266
523 1 -1.1104 3.74949 17.1963 1.11756
524 2 2.2208 2.32556 15.7478 2.44794
525 2 2.2208 2.33935 21.3375 2.53778
526 1 -1.1104 3.90816 17.2228 3.96409
528 2 2.2208 2.4788 18.722 5.35726
529 1 -1.1104 3.74241 14.4234 1.06412
530 1 -1.1104 3.91488 20.1401 1.05317
531 1 -1.1104 3.73126 14.2902 4.00225
532 1 -1.1104 3.81206 19.9606 3.88057
527 2 2.2208 2.21254 12.9328 5.31056
517 2 2.2208 5.22487 12.9365 2.54988
615 1 -1.1104 3.8022 19.9796 6.77484
510 1 -1.1104 6.69504 17.2078 1.14935
609 1 -1.1104 1.12947 14.5302 6.69659
611 1 -1.1104 6.56183 14.2815 6.56873
522 1 -1.1104 6.68892 19.8754 4.10085
516 1 -1.1104 6.72089 20.0724 1.37758
612 1 -1.1104 6.61029 20.0633 6.85594
512 1 -1.1104 6.64273 17.2463 3.97304
515 1 -1.1104 6.55315 14.3004 1.16424
613 1 -1.1104 3.80047 17.2603 6.75912
607 1 -1.1104 0.913304 17.1934 6.57847
610 1 -1.1104 0.966253 20.1004 6.80813
608 1 -1.1104 6.56965 17.113 6.81565
890 2 2.2208 2.35531 12.9787 -0.283627
891 2 2.2208 2.47553 18.6605 -0.222881
521 1 -1.1104 6.51987 14.3948 3.79238
533 2 2.2208 10.821 15.7053 5.27515
534 2 2.2208 10.7941 21.2922 5.37272
535 1 -1.1104 12.2289 17.056 1.24389
536 1 -1.1104 12.2379 17.1544 3.86858
537 1 -1.1104 12.1352 14.3445 1.09888
538 1 -1.1104 12.2053 19.9823 1.0516
540 2 2.2208 10.921 18.5539 2.55819
541 1 -1.1104 12.0421 14.2277 3.9722
542 1 -1.1104 12.3708 19.9086 3.95175
543 1 -1.1104 9.42015 17.0974 1.16236
544 2 2.2208 7.95577 15.8571 2.6135
545 2 2.2208 8.13312 21.305 2.51737
546 1 -1.1104 9.38744 17.1564 4.02707
548 2 2.2208 7.94651 18.5391 5.40527
549 1 -1.1104 9.17276 14.3802 1.09869
550 1 -1.1104 9.57326 19.877 1.21552
551 1 -1.1104 9.26169 14.474 4.0456
552 1 -1.1104 9.48381 19.9469 3.88011
539 2 2.2208 10.6796 12.8801 2.54226
547 2 2.2208 8.02797 13.0341 5.33956
645 1 -1.1104 9.37816 17.2804 6.63672
921 2 2.2208 8.0979 18.5846 -0.114447
918 2 2.2208 10.7073 15.5852 -0.191987
13221 2 2.2208 13.5048 15.7245 2.54196
626 2 2.2208 5.19713 13.0754 8.15215
13220 2 2.2208 13.6926 18.3829 5.31131
13716 2 2.2208 13.7108 26.8837 24.8342
554 1 -1.1104 1.15788 22.7119 1.02864
553 2 2.2208 5.28787 26.9847 5.47341
555 1 -1.1104 1.14717 28.2012 1.08287
558 1 -1.1104 1.05262 22.6678 3.92282
559 1 -1.1104 1.22797 28.4636 4.01329
562 1 -1.1104 1.11225 25.5311 1.01742
563 1 -1.1104 1.04247 31.0424 0.998267
566 2 2.2208 5.34239 24.1184 2.46739
567 2 2.2208 5.18285 29.849 2.51986
568 1 -1.1104 1.22449 25.5173 3.96132
569 1 -1.1104 0.99748 31.4098 3.80039
572 1 -1.1104 3.87952 22.8282 1.06423
573 1 -1.1104 3.79986 28.5008 1.07932
574 2 2.2208 2.57378 26.9939 2.50493
575 1 -1.1104 3.9245 22.6146 3.72695
576 1 -1.1104 3.87971 28.3029 3.9931
577 2 2.2208 2.59479 24.2261 5.25899
579 2 2.2208 2.4958 29.849 5.29788
580 1 -1.1104 3.87759 25.5529 1.13542
581 1 -1.1104 3.81544 31.2009 1.0917
582 1 -1.1104 4.04226 25.5633 3.89491
583 1 -1.1104 3.79858 31.1591 3.83353
676 1 -1.1104 3.82926 22.8071 6.77037
668 1 -1.1104 1.04968 22.7459 6.74903
557 1 -1.1104 6.66027 28.3315 1.16174
669 1 -1.1104 1.18796 28.3436 6.78196
570 1 -1.1104 6.6976 25.5972 3.96429
670 1 -1.1104 6.5872 22.8284 6.77382
560 1 -1.1104 6.65424 22.7519 4.02819
671 1 -1.1104 6.52694 28.3337 6.70813
556 1 -1.1104 6.77715 22.8478 1.04506
564 1 -1.1104 6.72757 25.5028 1.07616
674 1 -1.1104 6.73685 25.4175 6.81581
578 2 2.2208 2.39738 29.7091 -0.339522
601 2 2.2208 7.98937 29.7709 27.7059
565 1 -1.1104 6.47522 31.3032 1.13165
561 1 -1.1104 6.73411 28.5088 3.80888
571 1 -1.1104 6.54969 31.227 4.01342
584 2 2.2208 10.943 26.8324 5.25683
585 1 -1.1104 12.2776 22.6389 0.980726
586 1 -1.1104 12.3239 28.3788 0.991875
587 1 -1.1104 12.3142 22.7468 3.79169
588 1 -1.1104 12.3595 28.1607 3.80418
589 1 -1.1104 12.2409 25.5987 0.997362
590 1 -1.1104 12.2019 31.1526 1.18511
591 2 2.2208 10.842 24.076 2.39934
592 2 2.2208 10.9715 29.5268 2.55625
593 1 -1.1104 12.3023 25.4114 3.85609
594 1 -1.1104 12.3154 30.9109 3.90766
595 1 -1.1104 9.46541 22.6623 1.15367
596 1 -1.1104 9.38001 28.2879 0.952473
597 2 2.2208 8.04511 26.9741 2.45965
598 1 -1.1104 9.52257 22.7213 3.97455
599 1 -1.1104 9.43913 28.1597 3.95561
600 2 2.2208 8.07772 24.1382 5.34137
602 2 2.2208 8.04237 29.8405 5.40359
603 1 -1.1104 9.63915 25.5001 1.06778
604 1 -1.1104 9.42373 30.9449 1.11953
605 1 -1.1104 9.5391 25.6098 3.77518
606 1 -1.1104 9.50353 31.2125 3.84437
13219 2 2.2208 13.5724 12.7958 5.33822
716 1 -1.1104 9.37083 22.7156 6.7538
715 1 -1.1104 12.2205 31.1428 6.63007
713 1 -1.1104 12.1244 28.3544 6.69572
718 1 -1.1104 9.46901 25.4378 6.782
13273 2 2.2208 13.7165 26.8292 2.46426
985 2 2.2208 8.13588 24.2594 -0.333337
714 1 -1.1104 12.3304 25.4996 6.64867
719 1 -1.1104 9.44812 31.1977 6.63987
13652 2 2.2208 13.5538 12.9809 22.2176
614 1 -1.1104 3.83871 14.3665 6.79236
616 2 2.2208 5.20637 15.7995 11.1047
617 2 2.2208 5.2898 21.3964 10.9118
618 1 -1.1104 1.08208 17.0891 12.2304
620 1 -1.1104 0.931306 17.1208 9.47745
622 1 -1.1104 1.10366 14.3463 12.3023
623 1 -1.1104 1.0671 19.9936 12.4065
627 2 2.2208 5.21198 18.5367 8.17935
628 1 -1.1104 1.05981 14.3851 9.49176
629 1 -1.1104 1.00863 20.1048 9.65558
632 1 -1.1104 3.75664 17.1494 12.3664
633 2 2.2208 2.40868 15.8746 8.18883
634 2 2.2208 2.45152 21.4084 8.09382
635 1 -1.1104 3.73861 17.1854 9.66596
637 2 2.2208 2.38825 18.6517 10.9357
638 1 -1.1104 3.90262 14.4555 12.3239
639 1 -1.1104 3.97652 19.9486 12.3486
640 1 -1.1104 3.86841 14.5213 9.62161
641 1 -1.1104 3.81141 20.0158 9.65141
746 2 2.2208 2.43595 15.6631 13.8059
744 2 2.2208 5.23693 12.9418 13.7103
636 2 2.2208 2.41499 13.0037 10.9851
624 1 -1.1104 6.6375 14.4183 12.4522
625 1 -1.1104 6.79616 19.9559 12.3695
619 1 -1.1104 6.57073 17.1915 12.284
630 1 -1.1104 6.70863 14.411 9.6019
747 2 2.2208 2.57782 21.3114 13.6649
745 2 2.2208 5.1939 18.5142 13.7622
647 1 -1.1104 9.45359 20.089 6.57415
642 1 -1.1104 12.2186 17.0378 6.62171
644 1 -1.1104 12.333 20.0137 6.70181
646 1 -1.1104 9.30931 14.3425 6.77642
621 1 -1.1104 6.58644 17.1978 9.47818
643 1 -1.1104 12.1014 14.3175 6.6747
631 1 -1.1104 6.64234 19.9853 9.50859
648 2 2.2208 10.786 15.7464 10.8588
649 2 2.2208 10.8495 21.3934 10.9144
650 1 -1.1104 12.2363 17.0956 12.4142
651 1 -1.1104 12.1736 16.9772 9.42356
652 1 -1.1104 12.1381 14.3305 12.4201
653 1 -1.1104 12.1973 19.9326 12.4635
655 2 2.2208 10.7471 18.4911 8.0953
656 1 -1.1104 12.1063 14.1969 9.55245
657 1 -1.1104 12.1317 19.8071 9.69459
658 1 -1.1104 9.48085 17.1898 12.3581
659 2 2.2208 7.99526 15.7754 8.12813
660 2 2.2208 8.00905 21.4017 8.21577
661 1 -1.1104 9.39845 17.183 9.49513
663 2 2.2208 8.1046 18.5902 10.9215
664 1 -1.1104 9.37238 14.4982 12.2646
665 1 -1.1104 9.49188 19.9308 12.2103
666 1 -1.1104 9.40005 14.3905 9.41448
667 1 -1.1104 9.40321 20.0297 9.38106
662 2 2.2208 8.05097 12.9783 10.9152
654 2 2.2208 10.8212 12.895 8.08267
786 2 2.2208 8.04118 21.3791 13.7169
683 1 -1.1104 6.70616 22.8694 12.3078
13343 2 2.2208 13.6418 15.6404 8.12707
13346 2 2.2208 13.6126 18.474 11.1407
13344 2 2.2208 13.6671 21.2936 8.11068
13618 2 2.2208 -0.342989 29.7118 19.3138
678 1 -1.1104 3.9381 25.5845 6.77554
679 1 -1.1104 3.77971 31.1414 6.77746
675 1 -1.1104 6.52358 31.133 6.87039
672 1 -1.1104 1.26602 25.5202 6.58858
677 1 -1.1104 3.91318 28.4656 6.77561
673 1 -1.1104 1.14904 31.103 6.64715
680 2 2.2208 5.23043 27.0856 10.9304
681 1 -1.1104 0.959647 22.7392 12.24
682 1 -1.1104 1.0172 28.269 12.3063
685 1 -1.1104 1.21072 22.8629 9.49399
686 1 -1.1104 1.01939 28.5044 9.50419
689 1 -1.1104 1.07699 25.537 12.2388
690 1 -1.1104 1.0997 31.257 12.3467
693 2 2.2208 5.2657 24.1675 8.12387
694 2 2.2208 5.16599 29.7853 8.1961
696 1 -1.1104 1.0042 25.6802 9.40012
697 1 -1.1104 1.00634 31.2788 9.51314
700 1 -1.1104 3.87825 22.6685 12.1941
701 1 -1.1104 3.65955 28.2413 12.3611
702 2 2.2208 2.45675 26.9827 8.22236
704 1 -1.1104 3.7771 22.8108 9.50113
705 1 -1.1104 3.79503 28.4673 9.64259
706 2 2.2208 2.35715 24.1371 10.9893
707 2 2.2208 2.49162 29.8464 11.0269
708 1 -1.1104 3.88425 25.3381 12.3723
709 1 -1.1104 3.96353 31.114 12.4332
710 1 -1.1104 3.82226 25.6025 9.69479
711 1 -1.1104 3.88999 31.2578 9.67954
703 2 2.2208 2.40872 26.9443 13.7963
692 1 -1.1104 6.77906 31.2546 12.4003
691 1 -1.1104 6.58566 25.7597 12.3523
687 1 -1.1104 6.58175 22.8303 9.59507
688 1 -1.1104 6.75658 28.4143 9.39907
698 1 -1.1104 6.60583 25.5403 9.64603
684 1 -1.1104 6.54227 28.4765 12.2915
814 2 2.2208 5.33648 24.1727 13.7525
712 1 -1.1104 12.19 22.8001 6.65696
717 1 -1.1104 9.36567 28.4358 6.70378
699 1 -1.1104 6.71631 31.1645 9.71441
736 1 -1.1104 9.45121 22.8567 9.57167
720 2 2.2208 10.9318 26.8825 10.9223
721 1 -1.1104 12.3232 22.6768 12.0839
722 1 -1.1104 12.3224 28.341 12.4593
723 1 -1.1104 12.3734 22.6441 9.45816
724 1 -1.1104 12.3258 28.3383 9.73559
725 1 -1.1104 12.2995 25.5052 12.2119
726 1 -1.1104 12.2101 31.1424 12.3927
727 2 2.2208 10.8571 24.019 8.18969
728 2 2.2208 10.9023 29.8064 8.18527
730 1 -1.1104 12.2879 25.3546 9.42825
731 1 -1.1104 12.3286 31.0889 9.56206
732 1 -1.1104 9.4906 22.7629 12.2798
733 1 -1.1104 9.5104 28.2583 12.2998
734 2 2.2208 8.14005 27.0322 8.06813
737 1 -1.1104 9.5775 28.5234 9.59044
738 2 2.2208 8.12609 24.3129 10.9948
739 2 2.2208 7.91112 29.7745 10.9551
740 1 -1.1104 9.38687 25.6928 12.3002
741 1 -1.1104 9.44268 31.1795 12.333
742 1 -1.1104 9.34218 25.6248 9.47794
743 1 -1.1104 9.44082 31.2256 9.422
729 2 2.2208 10.9006 29.7576 13.7735
857 2 2.2208 10.8213 24.2409 13.7696
735 2 2.2208 8.12864 27.0727 13.7813
13495 2 2.2208 13.6537 15.7853 19.4383
13345 2 2.2208 13.4859 12.9619 10.9348
13306 2 2.2208 -0.28687 24.168 2.55878
775 2 2.2208 2.41811 12.9744 16.4883
760 2 2.2208 5.23622 13.0297 19.2819
748 2 2.2208 5.23196 15.7584 16.6774
749 2 2.2208 5.22363 21.3747 16.5586
750 1 -1.1104 1.00156 17.3238 17.9568
752 1 -1.1104 1.05205 17.0674 15.1506
756 1 -1.1104 1.00854 14.4341 18.0129
757 1 -1.1104 1.19817 20.0947 18.0873
761 2 2.2208 5.25583 18.4398 19.3369
762 1 -1.1104 1.02371 14.3185 15.153
764 1 -1.1104 0.980378 19.9631 15.2344
770 1 -1.1104 3.79725 17.2213 18.0823
771 2 2.2208 2.39858 15.8401 19.4533
772 2 2.2208 2.5458 21.4767 19.397
773 1 -1.1104 3.78734 17.0771 15.1636
776 2 2.2208 2.49581 18.6052 16.6942
777 1 -1.1104 3.93374 14.4624 17.8706
778 1 -1.1104 4.01423 20.0682 17.9054
779 1 -1.1104 3.73916 14.4199 15.1216
781 1 -1.1104 3.85851 19.9178 15.051
759 1 -1.1104 6.61343 19.9433 17.8888
782 1 -1.1104 3.8929 19.9211 20.8461
763 1 -1.1104 1.03232 14.4823 20.8483
753 1 -1.1104 1.00558 17.2764 20.7157
765 1 -1.1104 0.995012 20.0322 20.7283
13717 2 2.2208 13.5279 24.2516 -0.376655
996 1 -1.1104 12.3082 22.6688 23.4491
751 1 -1.1104 6.66877 17.0299 17.9527
754 1 -1.1104 6.61832 17.1791 15.0535
768 1 -1.1104 6.69352 19.9711 15.1669
766 1 -1.1104 6.40371 14.3523 15.242