ITEM: TIMESTEP
50000
ITEM: NUMBER OF ATOMS
27000
ITEM: BOX BOUNDS pp pp pp
-3.5708304723846929e-01 2.7697083047238728e+01
-6.3731131796324014e+00 4.9849311317963395e+02
-3.5684951594904296e-01 2.7696849515949051e+01
ITEM: ATOMS id type q x y z
1 2 2.2208 5.3436 -0.782909 5.39369
2 1 -1.1104 0.779334 -5.01118 1.25538
3 1 -1.1104 1.12217 0.580037 0.927221
6 1 -1.1104 1.03207 -4.84637 3.98176
7 1 -1.1104 1.00415 0.774542 3.83129
10 1 -1.1104 0.973213 -2.10059 1.07459
12 2 2.2208 5.10012 -3.55777 2.5804
13 2 2.2208 5.2265 2.23702 2.60942
14 1 -1.1104 0.872281 -1.92929 3.93525
16 1 -1.1104 3.64364 -5.03139 1.16572
17 1 -1.1104 3.77497 0.869341 1.25162
18 2 2.2208 2.39612 -0.660731 2.42853
19 1 -1.1104 3.71877 -4.91884 4.00392
20 1 -1.1104 3.84584 0.69112 3.97831
21 2 2.2208 2.26284 -3.55223 5.34389
22 2 2.2208 2.52758 2.06858 5.30631
23 1 -1.1104 3.72059 -2.1033 1.07086
24 1 -1.1104 3.67894 -2.18408 3.81432
102 1 -1.1104 0.895506 -4.7938 6.89381
11 1 -1.1104 6.68441 -2.13894 1.18893
108 1 -1.1104 3.69172 -4.77374 6.72372
4 1 -1.1104 6.54263 -4.95346 1.10509
5 1 -1.1104 6.49152 0.890864 1.0579
106 1 -1.1104 0.989766 -2.22689 6.77684
110 1 -1.1104 3.80143 -2.08511 6.84313
170 2 2.2208 10.8339 -6.40004 10.889
26 2 2.2208 5.10957 -6.26685 5.3151
137 2 2.2208 5.22102 -6.26181 10.948
25 2 2.2208 2.37904 -6.29368 2.56096
418 2 2.2208 5.2708 -6.38573 27.6888
9 1 -1.1104 6.61357 0.65445 3.91287
15 1 -1.1104 6.62159 -2.23367 3.92222
8 1 -1.1104 6.58242 -5.0488 3.86603
27 2 2.2208 10.8637 -0.804879 5.36395
28 1 -1.1104 12.2119 -4.87897 1.17803
29 1 -1.1104 12.2363 0.737855 0.963805
30 1 -1.1104 12.168 -4.92971 3.72342
31 1 -1.1104 12.3366 0.521933 4.04763
32 1 -1.1104 12.3677 -2.03399 1.14914
33 2 2.2208 10.7797 -3.40142 2.4955
34 2 2.2208 10.7927 2.12655 2.387
35 1 -1.1104 12.186 -2.0511 3.86589
36 1 -1.1104 9.44852 -4.78663 0.960993
37 1 -1.1104 9.35015 0.474488 0.881572
38 2 2.2208 7.91268 -0.602398 2.43165
39 1 -1.1104 9.46066 -4.92866 3.89138
40 1 -1.1104 9.43365 0.818377 3.87483
41 2 2.2208 8.04177 -3.64483 5.31846
42 2 2.2208 8.10942 2.0711 5.32705
43 1 -1.1104 9.45839 -2.16709 1.00093
44 1 -1.1104 9.36801 -2.07404 3.90209
142 1 -1.1104 9.47971 -4.95886 6.69945
139 1 -1.1104 12.3821 -4.909 6.57826
104 1 -1.1104 6.57425 -4.89376 6.7827
144 1 -1.1104 9.54383 -2.19897 6.7017
423 2 2.2208 8.03141 2.09022 -0.425395
443 2 2.2208 13.6176 2.1191 27.7368
243 2 2.2208 13.6914 7.69249 10.8944
421 2 2.2208 10.8072 -0.806666 27.6572
307 2 2.2208 13.5603 -0.673132 19.4417
278 2 2.2208 5.19861 -6.41105 16.4982
446 2 2.2208 10.7919 -6.21718 22.1365
47 2 2.2208 10.8271 -6.26047 5.27791
466 1 -1.1104 6.56679 6.41356 23.5348
77 1 -1.1104 3.86554 3.5966 4.03927
64 1 -1.1104 0.982815 3.43823 3.71961
59 1 -1.1104 1.17321 3.5361 1.00261
75 1 -1.1104 3.9579 3.69627 1.2065
49 2 2.2208 5.18643 4.97872 5.34396
50 2 2.2208 5.14818 10.6186 5.34892
51 1 -1.1104 1.14419 6.37572 1.03408
52 1 -1.1104 0.974411 11.9997 1.21548
55 1 -1.1104 1.10225 6.31193 3.77554
56 1 -1.1104 0.966199 12.0106 3.92225
60 1 -1.1104 1.22846 9.33137 1.05235
63 2 2.2208 5.28511 7.75631 2.43213
65 1 -1.1104 1.13962 9.13869 3.8573
68 1 -1.1104 3.86345 6.40586 1.12873
69 1 -1.1104 3.89692 11.9403 1.37786
70 2 2.2208 2.48717 4.86464 2.49266
71 2 2.2208 2.38622 10.5962 2.5281
72 1 -1.1104 3.9016 6.33013 3.99219
73 1 -1.1104 3.77756 11.8898 4.03225
74 2 2.2208 2.48637 7.68143 5.40383
76 1 -1.1104 3.93317 9.18956 1.10719
78 1 -1.1104 3.91567 9.15609 4.0315
171 1 -1.1104 1.00807 6.19068 6.74769
176 1 -1.1104 1.11423 9.11185 6.68176
180 1 -1.1104 3.67722 12.0298 6.85535
175 1 -1.1104 1.0091 3.38271 6.50622
172 1 -1.1104 0.856666 11.9401 6.68831
57 1 -1.1104 6.61355 6.2605 3.90979
54 1 -1.1104 6.68761 12.1889 1.21518
53 1 -1.1104 6.76497 6.42364 1.09286
66 1 -1.1104 6.64038 3.45439 4.09685
181 1 -1.1104 3.83763 3.5117 6.78562
455 2 2.2208 2.54302 7.73712 -0.297668
454 2 2.2208 5.36033 10.7436 -0.169308
495 1 -1.1104 12.2576 3.45905 26.2706
61 1 -1.1104 6.70311 3.52501 1.18539
85 1 -1.1104 12.2464 3.60446 0.96855
97 1 -1.1104 9.4246 3.43302 1.13287
88 1 -1.1104 12.3221 3.39725 3.7215
62 1 -1.1104 6.7696 9.18851 0.962628
67 1 -1.1104 6.63523 9.10654 3.68128
58 1 -1.1104 6.56094 11.9463 3.94307
99 1 -1.1104 9.34319 3.44684 3.97086
79 2 2.2208 10.9099 4.78831 5.30479
80 2 2.2208 10.9406 10.4166 5.21459
81 1 -1.1104 12.3093 6.39339 0.91067
82 1 -1.1104 12.2919 12.005 0.994921
83 1 -1.1104 12.1787 6.21422 3.72658
84 1 -1.1104 12.2175 11.9987 3.76791
86 1 -1.1104 12.2388 9.07409 1.17256
87 2 2.2208 10.8408 7.81151 2.42279
89 1 -1.1104 12.1769 9.03323 3.82481
90 1 -1.1104 9.50081 6.32904 1.02493
91 1 -1.1104 9.54799 11.8882 1.05339
92 2 2.2208 8.11583 4.86323 2.46689
93 2 2.2208 8.05207 10.5028 2.41404
94 1 -1.1104 9.37545 6.19532 3.77418
95 1 -1.1104 9.37224 11.8367 3.95109
96 2 2.2208 7.9914 7.61628 5.17725
98 1 -1.1104 9.48116 9.18908 1.12865
100 1 -1.1104 9.36396 9.15409 3.89262
492 2 2.2208 10.8829 10.4291 27.6267
493 2 2.2208 8.15113 7.80095 27.7239
177 1 -1.1104 6.56133 3.53283 6.78837
218 1 -1.1104 9.47707 12.0067 6.69237
213 1 -1.1104 12.1689 6.20657 6.74129
483 1 -1.1104 9.4034 3.70793 23.4158
382 1 -1.1104 9.44474 12.1031 20.8473
459 1 -1.1104 6.73913 6.50818 26.3909
103 1 -1.1104 1.06535 0.47989 6.73535
105 1 -1.1104 6.85783 0.702776 6.63336
109 1 -1.1104 3.95263 0.708448 6.7869
111 2 2.2208 5.20478 -0.753101 10.8096
112 1 -1.1104 1.03635 -4.8134 12.4117
113 1 -1.1104 1.00043 0.714755 12.2982
116 1 -1.1104 1.08963 -4.83369 9.68005
117 1 -1.1104 1.0067 0.801332 9.52447
120 1 -1.1104 1.03324 -2.18593 12.2596
122 2 2.2208 5.24533 -3.55776 8.11978
124 2 2.2208 5.34342 2.06017 8.17939
125 1 -1.1104 1.05183 -2.03464 9.60034
127 1 -1.1104 3.81531 -4.89805 12.4574
128 1 -1.1104 3.77029 0.757592 12.2177
129 2 2.2208 2.38658 -0.760418 8.1687
131 1 -1.1104 3.87288 -4.92865 9.6121
132 1 -1.1104 3.76092 0.740232 9.44099
133 2 2.2208 2.55442 -3.4951 11.0331
134 2 2.2208 2.395 2.10465 10.909
135 1 -1.1104 3.84989 -2.05844 12.3428
136 1 -1.1104 3.8729 -2.21578 9.49835
123 2 2.2208 5.27169 -3.58266 13.7904
245 2 2.2208 5.30619 2.06836 13.6674
107 1 -1.1104 6.81223 -2.29178 6.68515
114 1 -1.1104 6.5545 -4.82754 12.3434
119 1 -1.1104 6.62982 0.535751 9.50219
12673 2 2.2208 13.6036 -6.34217 2.55017
494 1 -1.1104 12.2277 9.0045 26.3167
489 1 -1.1104 9.40298 11.962 23.6959
374 1 -1.1104 12.278 9.16266 20.6902
504 2 2.2208 10.8375 4.89648 22.0137
488 2 2.2208 7.96922 5.01227 24.8407
138 2 2.2208 2.31508 -6.24411 8.16151
140 1 -1.1104 12.3037 0.683607 6.87336
141 1 -1.1104 12.2479 -2.27671 6.71747
143 1 -1.1104 9.62175 0.752794 6.58024
46 2 2.2208 13.6203 -0.643856 2.50305
168 2 2.2208 7.86302 -6.26602 8.20633
121 1 -1.1104 6.46852 -2.20209 12.2638
118 1 -1.1104 6.67569 -4.94558 9.66338
115 1 -1.1104 6.57477 0.571174 12.3405
126 1 -1.1104 6.61923 -2.16743 9.56692
145 2 2.2208 10.9987 -0.627371 10.9212
146 1 -1.1104 12.1711 -4.81913 12.3241
147 1 -1.1104 12.3552 0.65212 12.2824
148 1 -1.1104 12.2197 -4.90952 9.4867
149 1 -1.1104 12.2989 0.678119 9.53081
150 1 -1.1104 12.0646 -2.14091 12.2487
151 2 2.2208 10.9393 -3.53759 8.07283
153 2 2.2208 10.7883 2.14464 8.10252
154 1 -1.1104 12.2469 -1.98247 9.41846
155 1 -1.1104 9.3983 -4.99498 12.3027
156 1 -1.1104 9.43702 0.828754 12.4389
157 2 2.2208 8.18251 -0.743765 8.16465
159 1 -1.1104 9.46006 -4.96643 9.40246
160 1 -1.1104 9.56379 0.823579 9.56081
161 2 2.2208 8.00875 -3.56685 11.0464
162 2 2.2208 8.03132 1.95041 11.0138
163 1 -1.1104 9.28179 -1.92906 12.3149
164 1 -1.1104 9.60756 -2.10303 9.55886
169 2 2.2208 8.06733 -6.36991 13.7179
12866 2 2.2208 13.6386 10.4863 7.96769
152 2 2.2208 10.6297 -3.48255 13.6795
499 1 -1.1104 12.2782 11.8751 26.2741
167 2 2.2208 13.6517 2.20982 10.8895
490 1 -1.1104 9.61973 6.4167 23.4291
182 1 -1.1104 3.89058 9.32541 6.80559
179 1 -1.1104 3.75109 6.36986 6.85519
372 1 -1.1104 12.2363 3.51592 20.6743
198 1 -1.1104 0.990822 3.61355 9.45411
193 1 -1.1104 1.02401 3.55269 12.206
209 1 -1.1104 3.8581 3.5523 12.2074
211 1 -1.1104 3.94873 3.62713 9.51473
183 2 2.2208 5.09282 4.93002 10.9708
184 2 2.2208 5.37465 10.5653 10.8859
185 1 -1.1104 1.02442 6.31342 12.2566
186 1 -1.1104 1.10989 12.0726 12.3136
189 1 -1.1104 1.02821 6.4105 9.47105
190 1 -1.1104 1.08806 12.0462 9.50783
194 1 -1.1104 1.03873 9.11084 12.1944
197 2 2.2208 5.32579 7.75813 8.06851
199 1 -1.1104 0.937461 9.23581 9.57415
202 1 -1.1104 3.855 6.37898 12.3303
203 1 -1.1104 3.84737 12.1222 12.3393
204 2 2.2208 2.5076 4.85837 8.11064
205 2 2.2208 2.33775 10.5356 8.1217
206 1 -1.1104 3.86576 6.39984 9.55023
207 1 -1.1104 3.86118 11.7747 9.57779
208 2 2.2208 2.40223 7.80751 10.9069
210 1 -1.1104 3.89768 9.15046 12.3928
212 1 -1.1104 3.79496 9.25478 9.57686
173 1 -1.1104 6.64455 6.39555 6.55658
196 1 -1.1104 6.72639 9.09783 12.372
191 1 -1.1104 6.54545 6.20819 9.49339
187 1 -1.1104 6.56422 6.25701 12.4231
188 1 -1.1104 6.52723 11.8538 12.3176
195 1 -1.1104 6.87144 3.46011 12.4876
201 1 -1.1104 6.61864 9.08134 9.5763
313 2 2.2208 2.43763 4.99838 13.6751
502 1 -1.1104 12.2171 6.35485 23.3283
365 1 -1.1104 12.1759 6.37672 20.625
174 1 -1.1104 6.41166 11.9969 6.74491
192 1 -1.1104 6.66054 11.9924 9.5163
220 1 -1.1104 9.36518 9.07737 6.66287
178 1 -1.1104 6.59968 9.25298 6.68345
219 1 -1.1104 9.3238 3.54613 6.81801
200 1 -1.1104 6.63011 3.24263 9.74297
215 1 -1.1104 12.1823 3.41559 6.56571
227 1 -1.1104 12.2531 3.47033 12.3559
217 1 -1.1104 9.38361 6.28625 6.48167
214 1 -1.1104 12.2653 11.7598 6.46448
241 1 -1.1104 9.4441 3.56915 9.41357
216 1 -1.1104 12.2418 8.98181 6.64292
239 1 -1.1104 9.53373 3.55809 12.3575
230 1 -1.1104 12.1127 3.58127 9.42419
221 2 2.2208 10.7857 5.0286 10.9694
222 2 2.2208 10.9449 10.6342 10.9447
223 1 -1.1104 12.1255 6.4198 12.3859
224 1 -1.1104 12.2062 12.1539 12.2341
225 1 -1.1104 12.1725 6.22274 9.44322
226 1 -1.1104 12.2085 12.0397 9.42759
228 1 -1.1104 12.2245 9.22218 12.3783
229 2 2.2208 10.8408 7.69957 8.08456
231 1 -1.1104 12.2688 9.14423 9.55862
232 1 -1.1104 9.30689 6.39553 12.3482
233 1 -1.1104 9.41698 11.9129 12.2979
234 2 2.2208 8.01625 4.932 8.08953
235 2 2.2208 8.01697 10.5544 8.08337
236 1 -1.1104 9.22567 6.38415 9.33379
237 1 -1.1104 9.39815 11.956 9.59726
238 2 2.2208 7.96571 7.73323 10.9077
240 1 -1.1104 9.56945 9.15509 12.2548
242 1 -1.1104 9.38157 9.18465 9.45237
358 2 2.2208 8.0471 4.99385 13.6918
500 1 -1.1104 12.3741 6.25481 26.1956
367 1 -1.1104 12.0828 11.9699 20.6047
276 2 2.2208 2.44607 -6.31331 13.6833
389 1 -1.1104 9.44648 9.1851 20.7402
130 2 2.2208 2.45837 -0.680023 13.6097
246 2 2.2208 5.19154 -0.732055 16.4175
247 1 -1.1104 1.05596 -4.76917 17.8237
248 1 -1.1104 1.05757 0.663876 17.9016
250 1 -1.1104 1.01657 -4.86593 15.0884
252 1 -1.1104 0.939079 0.821125 15.1444
257 1 -1.1104 0.913856 -2.0358 17.8623
259 2 2.2208 5.16859 -3.39469 19.3253
260 2 2.2208 5.27727 2.20053 19.3418
261 1 -1.1104 1.05791 -1.85044 14.9815
264 1 -1.1104 3.85383 -4.8396 17.9688
265 1 -1.1104 3.88889 0.654271 17.8572
266 2 2.2208 2.43896 -0.586627 19.3079
267 1 -1.1104 4.02961 -4.99445 15.2142
269 1 -1.1104 3.79644 0.659594 14.9633
271 2 2.2208 2.37413 -3.51343 16.4371
272 2 2.2208 2.46756 2.12692 16.5035
273 1 -1.1104 3.81839 -2.07198 17.9217
274 1 -1.1104 3.7852 -2.23685 15.1792
251 1 -1.1104 1.00231 -4.82157 20.6499
263 1 -1.1104 6.67641 -2.14023 15.1416
268 1 -1.1104 3.80099 -4.71257 20.6949
262 1 -1.1104 1.14835 -1.92721 20.6055
249 1 -1.1104 6.81539 0.756309 17.9676
280 1 -1.1104 6.66454 -4.89586 17.98
281 1 -1.1104 6.56879 -4.92282 20.6852
255 1 -1.1104 6.61268 0.690924 15.1903
275 1 -1.1104 3.85596 -1.96442 20.692
310 2 2.2208 7.97274 -6.39045 19.3277
158 2 2.2208 8.00776 -0.690233 13.7361
254 1 -1.1104 6.85089 -4.85395 15.1965
279 2 2.2208 10.8511 2.11179 13.6352
258 1 -1.1104 6.64558 -2.01466 17.9126
283 2 2.2208 10.7955 -0.707772 16.464
284 1 -1.1104 12.2582 -4.82241 17.8778
285 1 -1.1104 12.2819 0.745162 17.9073
286 1 -1.1104 12.183 -4.76959 15.1232
288 1 -1.1104 12.1216 0.69513 15.0218
290 1 -1.1104 12.2665 -2.16905 17.9625
291 2 2.2208 10.7704 -3.35213 19.3385
292 2 2.2208 10.889 2.0527 19.2611
293 1 -1.1104 12.2242 -2.05888 15.0863
295 1 -1.1104 9.38628 -4.86108 18.0868
296 1 -1.1104 9.59104 0.771885 17.922
297 2 2.2208 7.99552 -0.597246 19.3032
298 1 -1.1104 9.43496 -4.99761 15.1759
300 1 -1.1104 9.35789 0.787292 15.0895
302 2 2.2208 8.00325 -3.52579 16.6687
303 2 2.2208 8.06112 2.18079 16.5056
304 1 -1.1104 9.51172 -2.05692 18.0426
305 1 -1.1104 9.42178 -2.11439 15.12
287 1 -1.1104 12.3571 -4.92805 20.8387
301 1 -1.1104 9.51413 0.73324 20.7194
306 1 -1.1104 9.17722 -2.01328 20.6244
299 1 -1.1104 9.41925 -4.73528 20.6991
486 1 -1.1104 9.49035 6.25029 26.1798
487 2 2.2208 8.06632 10.5466 24.9191
484 2 2.2208 8.07374 7.84054 22.0001
311 2 2.2208 10.8313 -6.26493 16.5587
314 2 2.2208 2.44013 10.6568 13.7635
312 2 2.2208 5.26907 7.88511 13.6756
353 1 -1.1104 3.76817 3.48509 15.0477
334 1 -1.1104 1.00825 3.68561 15.049
329 1 -1.1104 1.08018 3.61156 17.868
351 1 -1.1104 3.88957 3.55261 17.8371
315 2 2.2208 5.25683 4.9403 16.4643
316 2 2.2208 5.13411 10.6738 16.4677
317 1 -1.1104 1.05157 6.38884 17.7968
318 1 -1.1104 1.03366 12.2335 18.0762
321 1 -1.1104 1.03299 6.34086 14.9902
323 1 -1.1104 0.925557 12.0544 15.2205
330 1 -1.1104 0.904216 9.2177 17.7362
333 2 2.2208 5.2455 7.76233 19.2308
336 1 -1.1104 0.972718 9.18862 15.0136
342 1 -1.1104 3.9551 6.38759 17.8286
343 1 -1.1104 3.68845 12.1395 17.9877
344 2 2.2208 2.43877 4.99842 19.2214
345 2 2.2208 2.38545 10.7887 19.3368
346 1 -1.1104 3.89792 6.36634 14.9598
348 1 -1.1104 3.79957 12.0454 15.1
350 2 2.2208 2.42193 7.74738 16.3604
352 1 -1.1104 3.72917 9.22507 17.9367
355 1 -1.1104 3.79252 9.20052 15.2043
349 1 -1.1104 3.85495 12.0977 20.7872
337 1 -1.1104 0.982894 9.3134 20.6189
324 1 -1.1104 0.853385 12.2066 20.8736
320 1 -1.1104 6.60495 11.9315 17.981
325 1 -1.1104 6.64012 6.4431 15.1547
319 1 -1.1104 6.54565 6.37317 17.9255
338 1 -1.1104 6.52555 3.61095 15.1949
332 1 -1.1104 6.52524 9.1789 17.7487
357 2 2.2208 10.8007 7.85829 13.6846
359 2 2.2208 7.93559 10.5417 13.806
371 1 -1.1104 12.134 3.42437 15.0014
384 1 -1.1104 9.3691 3.60708 17.9492
339 1 -1.1104 6.584 3.53422 20.5958
387 1 -1.1104 9.41329 3.45204 20.6375
340 1 -1.1104 6.65337 9.2333 14.9691
327 1 -1.1104 6.72533 12.0614 15.1696
331 1 -1.1104 6.59139 3.42944 17.7456
368 1 -1.1104 12.1812 3.63054 17.8924
386 1 -1.1104 9.36495 3.56259 15.087
360 2 2.2208 10.7939 4.93174 16.3567
361 2 2.2208 10.7059 10.5673 16.5472
362 1 -1.1104 12.2672 6.34568 17.939
363 1 -1.1104 12.1486 11.8593 17.8315
364 1 -1.1104 12.148 6.35328 15.0683
366 1 -1.1104 12.1847 12.0394 15.0945
369 1 -1.1104 12.2083 9.02231 17.9031
370 2 2.2208 10.9124 7.64982 19.2004
373 1 -1.1104 12.0325 9.31102 15.175
375 1 -1.1104 9.45723 6.41445 17.8007
376 1 -1.1104 9.49971 11.9244 18.0474
377 2 2.2208 7.92897 4.87871 19.2081
378 2 2.2208 8.05756 10.6264 19.3448
379 1 -1.1104 9.41201 6.42522 15.1636
381 1 -1.1104 9.36247 11.9731 15.1883
383 2 2.2208 7.94362 7.76094 16.5944
385 1 -1.1104 9.31125 9.15937 17.8838
388 1 -1.1104 9.31774 9.08981 14.9238
498 1 -1.1104 12.0949 3.44641 23.4983
380 1 -1.1104 9.17595 6.26794 20.69
480 1 -1.1104 9.52295 8.99066 26.2558
496 2 2.2208 10.9469 7.63103 24.7353
482 1 -1.1104 9.5692 9.17662 23.4812
481 1 -1.1104 9.48952 3.58644 26.3229
392 2 2.2208 2.40193 -3.63726 -0.280062
12792 2 2.2208 13.6258 -6.3411 13.8013
391 2 2.2208 5.2238 -0.67007 -0.171096
13154 2 2.2208 13.6447 7.70086 22.018
253 1 -1.1104 1.14008 0.971414 20.6805
282 1 -1.1104 6.60803 -2.04029 20.7096
256 1 -1.1104 6.74219 0.709278 20.7688
478 1 -1.1104 6.84134 9.37739 26.3801
270 1 -1.1104 3.84517 0.868082 20.7642
393 2 2.2208 2.44836 2.30379 27.7623
394 2 2.2208 5.26812 -0.689518 22.1193
395 1 -1.1104 0.971363 -4.80749 23.5158
396 1 -1.1104 1.03887 0.620182 23.4827
399 1 -1.1104 0.916344 -4.97172 26.3406
400 1 -1.1104 1.06851 0.770216 26.1749
403 1 -1.1104 1.10159 -2.1007 23.4794
404 2 2.2208 5.26562 -3.54773 24.9775
405 2 2.2208 5.22407 2.20039 24.9023
406 1 -1.1104 0.942547 -2.26232 26.3731
408 1 -1.1104 3.82014 -5.06904 23.5122
409 1 -1.1104 3.81821 0.794178 23.6165
410 2 2.2208 2.46058 -0.627801 24.9598
411 1 -1.1104 3.85747 -4.92141 26.4516
412 1 -1.1104 3.68771 0.743094 26.4383
413 2 2.2208 2.47968 -3.49394 22.1093
414 2 2.2208 2.38884 2.22432 22.196
415 1 -1.1104 3.97119 -2.13246 23.4963
416 1 -1.1104 3.81197 -2.10082 26.4648
424 1 -1.1104 6.70265 -2.13707 23.539
397 1 -1.1104 6.55328 -4.91718 23.4072
402 1 -1.1104 6.64563 0.789364 26.2633
166 2 2.2208 13.6388 -0.698192 13.7263
503 2 2.2208 10.8807 10.5932 22.0999
165 2 2.2208 13.6258 -0.717672 7.95831
407 1 -1.1104 6.63705 -2.04144 26.4705
401 1 -1.1104 6.55984 -4.95576 26.2458
422 2 2.2208 8.00256 -3.42902 27.7432
289 1 -1.1104 12.1752 0.71714 20.7732
294 1 -1.1104 12.0243 -1.99669 20.8081
398 1 -1.1104 6.71478 0.808436 23.4978
425 2 2.2208 10.7967 -0.606525 22.1862
426 1 -1.1104 12.2266 -4.84421 23.6434
427 1 -1.1104 12.2191 0.744447 23.394
428 1 -1.1104 12.0718 -4.99602 26.2954
429 1 -1.1104 12.194 0.687437 26.2461
430 1 -1.1104 12.1927 -2.06668 23.5058
431 2 2.2208 10.6924 -3.51952 24.8859
432 2 2.2208 10.8183 2.13802 24.8435
433 1 -1.1104 12.1985 -2.15963 26.3913
434 1 -1.1104 9.29299 -4.78477 23.4877
435 1 -1.1104 9.43548 0.816939 23.4896
436 2 2.2208 8.04497 -0.596901 24.9585
437 1 -1.1104 9.27008 -4.77497 26.2439
438 1 -1.1104 9.42357 0.713809 26.3397
439 2 2.2208 7.95795 -3.40151 21.9629
440 2 2.2208 8.07931 2.19884 22.0717
441 1 -1.1104 9.36854 -1.86805 23.5035
442 1 -1.1104 9.37585 -2.07199 26.3077
445 2 2.2208 7.91307 -6.27521 24.9428
244 2 2.2208 13.5455 4.92048 8.00894
12793 2 2.2208 13.7789 -6.29196 8.08926
444 2 2.2208 10.7585 -6.27261 27.7405
453 2 2.2208 5.32557 5.0106 27.8873
322 1 -1.1104 0.880452 6.47109 20.6999
354 1 -1.1104 3.72383 3.67362 20.737
457 1 -1.1104 1.10651 3.4941 23.642
335 1 -1.1104 0.978448 3.75171 20.6448
356 1 -1.1104 3.81899 9.24627 20.5851
452 1 -1.1104 6.56197 3.53161 23.5489
347 1 -1.1104 3.7526 6.36688 20.7519
448 1 -1.1104 1.00542 3.63858 26.2896
469 1 -1.1104 3.876 3.6808 23.5087
464 1 -1.1104 3.75262 3.55598 26.3785
447 1 -1.1104 1.0971 9.02617 26.4022
449 2 2.2208 5.33528 7.86013 24.8482
456 1 -1.1104 1.04457 9.06378 23.6701
460 1 -1.1104 0.927343 11.867 26.4688
461 1 -1.1104 1.16433 6.16738 26.2324
462 1 -1.1104 3.87616 9.2473 26.2182
465 1 -1.1104 3.83207 9.27017 23.443
467 1 -1.1104 0.976455 11.9441 23.4669
468 1 -1.1104 1.01236 6.26016 23.5275
470 2 2.2208 2.30817 7.77934 22.1396
471 1 -1.1104 3.68082 11.9842 26.5968
472 1 -1.1104 4.16376 6.40084 26.3667
473 2 2.2208 2.32979 10.6336 25.0272
474 2 2.2208 5.2126 10.6526 22.2382
475 2 2.2208 2.55823 4.89349 24.8373
476 1 -1.1104 3.72675 12.1503 23.7928
477 2 2.2208 5.19016 5.03054 22.078
479 1 -1.1104 3.78787 6.48884 23.5843
326 1 -1.1104 6.53496 6.39315 20.5922
341 1 -1.1104 6.61023 9.30185 20.6445
328 1 -1.1104 6.62287 12.1641 20.6935
450 1 -1.1104 6.61554 3.62251 26.4112
458 1 -1.1104 6.61418 12.119 26.4749
501 1 -1.1104 12.2821 11.8995 23.4717
485 1 -1.1104 9.36638 11.883 26.4831
491 2 2.2208 10.8652 5.03602 27.6931
497 1 -1.1104 12.3609 9.01814 23.4594
463 1 -1.1104 6.62082 11.8802 23.6157
451 1 -1.1104 6.73982 9.06167 23.5421
12943 2 2.2208 13.6028 -6.30635 19.2764
12733 2 2.2208 -0.385827 4.85442 5.26922
12791 2 2.2208 13.5301 -3.56751 10.939
13091 2 2.2208 13.7525 -3.56003 22.1768
13014 2 2.2208 13.6957 4.98422 19.3428
12911 2 2.2208 -0.390849 4.92409 10.796
13125 2 2.2208 -0.54727 -3.55279 24.8668
12980 2 2.2208 13.5115 10.5206 19.2655
13016 2 2.2208 13.6665 7.84537 16.5725
308 2 2.2208 13.6296 -3.39039 16.5853
13017 2 2.2208 -0.402497 4.98552 16.4219
390 2 2.2208 13.6296 4.89998 13.739
12679 2 2.2208 -0.459903 -3.43689 2.56647
13101 2 2.2208 -0.268382 -0.67248 -0.4918
12731 2 2.2208 -0.290681 7.63502 2.37339
13092 2 2.2208 13.5398 -0.707119 24.9521
12730 2 2.2208 13.6792 10.6006 2.31612
12678 2 2.2208 -0.325409 2.24361 2.31775
13093 2 2.2208 13.6641 -3.59331 27.8796
45 2 2.2208 13.7392 2.09059 5.34875
12976 2 2.2208 -0.370929 -3.44148 19.2993
12947 2 2.2208 -0.443076 -0.733781 16.4769
101 2 2.2208 13.6382 4.9789 2.41631
505 2 2.2208 13.6277 4.83775 24.7625
420 2 2.2208 5.20969 -6.26914 22.044
507 2 2.2208 5.1422 16.1856 5.29684
508 2 2.2208 5.17527 21.7257 5.23958
509 1 -1.1104 1.06531 17.6086 1.11171
511 1 -1.1104 0.912832 17.6177 3.80689
513 1 -1.1104 0.811261 14.8079 1.09488
514 1 -1.1104 0.91368 20.4201 1.01193
518 2 2.2208 5.16199 19.0582 2.4425
519 1 -1.1104 0.90703 14.7519 3.90914
520 1 -1.1104 0.88187 20.4236 3.81379
523 1 -1.1104 3.73807 17.7621 1.25878
524 2 2.2208 2.3022 16.1129 2.57799
525 2 2.2208 2.30061 21.8917 2.41587
526 1 -1.1104 3.60038 17.5972 3.9154
528 2 2.2208 2.27886 18.9036 5.19872
529 1 -1.1104 3.67127 14.7842 1.1281
530 1 -1.1104 3.72819 20.4631 1.05545
531 1 -1.1104 3.79284 14.8409 4.02499
532 1 -1.1104 3.856 20.5286 3.73225
527 2 2.2208 2.35877 13.4131 5.30934
610 1 -1.1104 0.954686 20.4806 6.72025
517 2 2.2208 5.12885 13.3157 2.61856
512 1 -1.1104 6.68126 17.4304 3.93496
516 1 -1.1104 6.47575 20.4084 0.980471
510 1 -1.1104 6.56987 17.6384 0.970735
521 1 -1.1104 6.5136 14.8251 3.9013
608 1 -1.1104 6.5716 17.5917 6.82672
612 1 -1.1104 6.53518 20.3067 6.8899
614 1 -1.1104 3.75713 14.8845 6.69474
890 2 2.2208 2.12328 13.3398 27.7972
986 1 -1.1104 9.47258 23.0781 23.4417
522 1 -1.1104 6.66852 20.4272 3.9018
515 1 -1.1104 6.52696 14.9114 1.22565
533 2 2.2208 10.9355 16.2384 5.31055
534 2 2.2208 10.7577 21.6647 5.27051
535 1 -1.1104 12.2038 17.6157 1.07887
536 1 -1.1104 12.1849 17.6383 3.8166
537 1 -1.1104 12.1834 14.9002 1.0039
538 1 -1.1104 12.0829 20.2314 1.01692
540 2 2.2208 10.7427 18.9548 2.61784
541 1 -1.1104 12.2462 14.959 3.76511
542 1 -1.1104 12.1733 20.3634 3.87811
543 1 -1.1104 9.3328 17.5439 1.16399
544 2 2.2208 8.01415 16.1366 2.56748
545 2 2.2208 7.97366 21.7575 2.43614
546 1 -1.1104 9.41521 17.6273 4.03508
548 2 2.2208 7.95722 18.8548 5.29882
549 1 -1.1104 9.35945 14.8344 1.0739
550 1 -1.1104 9.35675 20.4077 1.10801
551 1 -1.1104 9.41085 14.6825 3.92863
552 1 -1.1104 9.24937 20.3348 3.80503
647 1 -1.1104 9.46855 20.1311 6.59751
642 1 -1.1104 12.2519 17.5212 6.67772
539 2 2.2208 10.8039 13.3066 2.41301
547 2 2.2208 7.93644 13.2315 5.25453
968 1 -1.1104 6.57577 31.4003 26.2078
13714 2 2.2208 13.6961 24.598 22.1222
643 1 -1.1104 12.2321 14.8257 6.65156
920 2 2.2208 8.05393 13.371 -0.285798
921 2 2.2208 8.0201 18.9705 -0.399353
553 2 2.2208 5.06903 27.4272 5.23938
554 1 -1.1104 0.923876 23.2204 1.02522
555 1 -1.1104 0.93062 28.6879 1.00375
558 1 -1.1104 1.01857 23.1815 4.02055
559 1 -1.1104 1.00744 28.779 3.84984
562 1 -1.1104 1.04838 26.0496 0.953667
563 1 -1.1104 0.957567 31.3188 1.1861
566 2 2.2208 5.13594 24.611 2.4977
567 2 2.2208 5.13548 30.2253 2.28627
568 1 -1.1104 0.92834 25.9351 3.66422
569 1 -1.1104 0.971085 31.722 3.90522
572 1 -1.1104 3.77407 23.2113 0.888689
573 1 -1.1104 3.69027 28.7479 1.04741
574 2 2.2208 2.45365 27.4481 2.43969
575 1 -1.1104 3.67652 23.3254 3.82808
576 1 -1.1104 3.85041 28.8728 3.83353
577 2 2.2208 2.31834 24.6775 5.26959
579 2 2.2208 2.31936 30.316 5.28206
580 1 -1.1104 3.89438 26.0662 1.14245
581 1 -1.1104 3.91071 31.638 0.953418
582 1 -1.1104 3.67315 26.0704 3.93205
583 1 -1.1104 3.6996 31.6818 3.82096
668 1 -1.1104 1.05487 23.269 6.75696
677 1 -1.1104 3.69828 28.6906 6.5862
13494 2 2.2208 13.6304 16.1099 13.5811
561 1 -1.1104 6.53002 28.5847 3.75756
669 1 -1.1104 0.877309 28.6188 6.70688
942 2 2.2208 5.12331 27.3268 27.7316
943 2 2.2208 2.29237 24.6384 27.6836
571 1 -1.1104 6.55891 31.5532 3.75306
962 1 -1.1104 6.5511 22.9977 26.251
674 1 -1.1104 6.52548 25.836 6.67036
13574 2 2.2208 13.5144 27.3881 13.6835
993 1 -1.1104 12.1428 28.7955 26.175
565 1 -1.1104 6.73288 31.6374 0.909394
556 1 -1.1104 6.69737 23.1613 1.12549
557 1 -1.1104 6.50494 28.6351 0.938237
570 1 -1.1104 6.37442 25.9257 3.92676
560 1 -1.1104 6.5283 23.2096 3.7854
564 1 -1.1104 6.51492 25.8872 1.03669
584 2 2.2208 10.6904 27.3141 5.23814
585 1 -1.1104 12.2851 22.8863 1.06994
586 1 -1.1104 12.2665 28.6485 0.90855
587 1 -1.1104 12.1918 22.9943 3.86266
588 1 -1.1104 12.0367 28.6117 3.91313
589 1 -1.1104 12.1371 25.8956 1.01509
590 1 -1.1104 12.2483 31.6584 1.12838
591 2 2.2208 10.8725 24.4054 2.46974
592 2 2.2208 10.8842 30.1167 2.41696
593 1 -1.1104 12.2308 25.877 3.72415
594 1 -1.1104 12.1175 31.3764 3.85995
595 1 -1.1104 9.41116 23.173 1.13297
596 1 -1.1104 9.32113 28.7358 1.04188
597 2 2.2208 7.92259 27.2687 2.48909
598 1 -1.1104 9.51284 23.1255 3.95669
599 1 -1.1104 9.31064 28.7609 3.84852
600 2 2.2208 7.96888 24.5331 5.24238
602 2 2.2208 7.92396 30.1526 5.19887
603 1 -1.1104 9.30122 25.9278 1.09509
604 1 -1.1104 9.52428 31.591 0.994914
605 1 -1.1104 9.31797 25.8854 3.87072
606 1 -1.1104 9.31464 31.6412 3.80678
718 1 -1.1104 9.26801 26.0142 6.70892
712 1 -1.1104 12.0814 23.0972 6.65266
670 1 -1.1104 6.71208 23.0774 6.61935
719 1 -1.1104 9.30673 31.6994 6.65369
984 2 2.2208 10.7653 27.3276 -0.40044
601 2 2.2208 7.98624 30.1759 27.7208
675 1 -1.1104 6.57438 31.5287 6.44771
713 1 -1.1104 12.142 28.6391 6.54547
714 1 -1.1104 12.0491 25.9993 6.57652
716 1 -1.1104 9.38121 23.2367 6.70014
607 1 -1.1104 0.842301 17.5142 6.59186
615 1 -1.1104 3.6537 20.2644 6.4916
611 1 -1.1104 6.59076 14.8485 6.69134
609 1 -1.1104 1.0022 14.7545 6.84384
613 1 -1.1104 3.74993 17.5629 6.64941
626 2 2.2208 5.1802 13.3354 8.22054
616 2 2.2208 5.09078 16.273 11.017
617 2 2.2208 5.05897 21.7709 11.0138
618 1 -1.1104 1.03669 17.6128 12.1318
620 1 -1.1104 0.801524 17.6659 9.28558
622 1 -1.1104 0.937807 14.9863 12.3559
623 1 -1.1104 0.895241 20.407 12.2932
627 2 2.2208 5.17506 19.0132 8.11083
628 1 -1.1104 0.988651 14.8808 9.46807
629 1 -1.1104 1.1119 20.548 9.53391
632 1 -1.1104 3.78233 17.5616 12.3296
633 2 2.2208 2.33819 16.2261 8.04207
634 2 2.2208 2.34729 21.9424 8.05533
635 1 -1.1104 3.65261 17.486 9.52123
637 2 2.2208 2.27704 18.9549 10.734
638 1 -1.1104 3.68563 14.69 12.2757
639 1 -1.1104 3.75713 20.2319 12.0441
640 1 -1.1104 3.80568 14.7654 9.49482
641 1 -1.1104 3.88051 20.3835 9.46436
636 2 2.2208 2.35748 13.4098 10.9155
625 1 -1.1104 6.59774 20.5894 12.3872
747 2 2.2208 2.34744 21.8658 13.7128
988 1 -1.1104 12.2743 25.9792 26.2632
981 1 -1.1104 9.47928 23.2967 26.2605
13221 2 2.2208 13.6591 16.2172 2.41707
645 1 -1.1104 9.33305 17.4807 6.73475
644 1 -1.1104 12.3009 20.4191 6.6449
989 2 2.2208 10.7593 30.0912 24.7588
631 1 -1.1104 6.51303 20.5103 9.62247
621 1 -1.1104 6.50255 17.7434 9.79743
619 1 -1.1104 6.51694 17.5649 12.5267
624 1 -1.1104 6.5989 14.7867 12.2724
646 1 -1.1104 9.37283 14.7935 6.54355
630 1 -1.1104 6.65799 14.925 9.52085
662 2 2.2208 8.02576 13.3909 10.8737
654 2 2.2208 10.8189 13.3348 8.01328
648 2 2.2208 10.7919 16.1225 10.7943
649 2 2.2208 10.7144 21.7877 10.919
650 1 -1.1104 12.2779 17.4984 12.2546
651 1 -1.1104 12.1178 17.5204 9.52929
652 1 -1.1104 12.0989 14.8455 12.2822
653 1 -1.1104 12.2433 20.391 12.3083
655 2 2.2208 10.6978 18.8916 8.04665
656 1 -1.1104 12.2651 14.7983 9.45484
657 1 -1.1104 12.1641 20.2959 9.43828
658 1 -1.1104 9.31814 17.7353 12.3455
659 2 2.2208 7.95823 16.1758 8.03033
660 2 2.2208 7.96129 21.7378 8.10527
661 1 -1.1104 9.25488 17.5244 9.55891
663 2 2.2208 7.89363 19.0779 10.9299
664 1 -1.1104 9.44847 14.8878 12.3192
665 1 -1.1104 9.49593 20.548 12.3823
666 1 -1.1104 9.5107 14.54 9.32232
667 1 -1.1104 9.32929 20.4738 9.57636
783 2 2.2208 10.7627 13.3554 13.6839
784 2 2.2208 10.7685 19.0641 13.6952
785 2 2.2208 7.90353 16.2579 13.767
13343 2 2.2208 13.6535 16.147 7.95308
974 1 -1.1104 9.58615 31.5214 26.2451
958 1 -1.1104 6.66208 23.2067 23.6138
673 1 -1.1104 0.955397 31.4629 6.65653
672 1 -1.1104 0.928956 26.0407 6.57009
676 1 -1.1104 3.94376 23.1679 6.57926
678 1 -1.1104 3.63724 25.9046 6.90714
679 1 -1.1104 3.79164 31.6556 6.6648
680 2 2.2208 5.18633 27.4125 10.9411
681 1 -1.1104 0.938154 23.2497 12.3496
682 1 -1.1104 0.852967 28.8328 12.1877
685 1 -1.1104 0.947708 23.2921 9.45745
686 1 -1.1104 1.00449 28.7365 9.40222
689 1 -1.1104 0.969988 26.0593 12.2502
690 1 -1.1104 0.881539 31.5761 12.3291
693 2 2.2208 5.2148 24.5666 8.17253
694 2 2.2208 5.11743 30.1527 8.02494
696 1 -1.1104 0.859879 26.0387 9.29317
697 1 -1.1104 0.805388 31.5757 9.43728
700 1 -1.1104 3.74012 23.1811 12.3116
701 1 -1.1104 3.63295 28.7856 12.3212
702 2 2.2208 2.34351 27.3298 8.06665
704 1 -1.1104 3.68441 23.219 9.48766
705 1 -1.1104 3.67202 28.989 9.49742
706 2 2.2208 2.197 24.6659 10.8525
707 2 2.2208 2.26865 30.264 10.9403
708 1 -1.1104 3.75009 25.9165 12.234
709 1 -1.1104 3.68541 31.6952 12.3289
710 1 -1.1104 3.76763 26.1755 9.51771
711 1 -1.1104 3.71635 31.5373 9.50304
688 1 -1.1104 6.55979 28.7721 9.48616
691 1 -1.1104 6.59753 26.0819 12.3426
703 2 2.2208 2.40544 27.3545 13.6571
695 2 2.2208 5.17237 30.2385 13.5415
814 2 2.2208 5.15752 24.6039 13.7457
967 1 -1.1104 6.67561 31.6099 23.3633
959 1 -1.1104 6.66282 28.8054 23.3763
671 1 -1.1104 6.7285 28.8301 6.62019
717 1 -1.1104 9.36974 28.76 6.63793
715 1 -1.1104 12.1971 31.5194 6.60797
692 1 -1.1104 6.50445 31.5231 12.071
684 1 -1.1104 6.6802 28.7553 12.2629
699 1 -1.1104 6.5231 31.6317 9.27921
698 1 -1.1104 6.67345 25.951 9.4597
687 1 -1.1104 6.61509 23.1433 9.47431
683 1 -1.1104 6.53363 23.2099 12.3542
736 1 -1.1104 9.39686 23.1838 9.57585
720 2 2.2208 10.7536 27.3648 10.7727
721 1 -1.1104 12.1659 23.2883 12.3201
722 1 -1.1104 12.1658 28.7298 12.3016
723 1 -1.1104 12.1158 23.1197 9.44403
724 1 -1.1104 12.2108 28.6344 9.35959
725 1 -1.1104 12.1209 26.0245 12.2195
726 1 -1.1104 12.3341 31.4913 12.2279
727 2 2.2208 10.7543 24.5682 8.13711
728 2 2.2208 10.82 30.164 7.96674
730 1 -1.1104 12.1519 25.8833 9.3821
731 1 -1.1104 12.1305 31.3339 9.4488
732 1 -1.1104 9.32908 23.2656 12.328
733 1 -1.1104 9.3612 28.8211 12.2109
734 2 2.2208 8.02792 27.3306 8.14241
737 1 -1.1104 9.53571 28.7646 9.35711
738 2 2.2208 7.97425 24.5716 10.9293
739 2 2.2208 8.00214 30.1504 10.856
740 1 -1.1104 9.38775 25.9761 12.2548
741 1 -1.1104 9.31523 31.7013 12.3309
742 1 -1.1104 9.32919 25.8995 9.4563
743 1 -1.1104 9.33969 31.5354 9.46968
729 2 2.2208 10.8631 30.2206 13.6599
872 1 -1.1104 12.2467 31.6016 20.7611
966 1 -1.1104 6.60481 26.0213 23.4198