ITEM: TIMESTEP
70000
ITEM: NUMBER OF ATOMS
27000
ITEM: BOX BOUNDS pp pp pp
-3.4942825225527485e-01 2.7689428252255603e+01
-6.3938222547886197e+00 4.9851382225479620e+02
-3.5592298596626559e-01 2.7695922985965751e+01
ITEM: ATOMS id type q x y z
1 2 2.2208 5.17884 -0.854715 5.3138
2 1 -1.1104 0.993007 -4.97806 1.17335
3 1 -1.1104 0.934401 0.881167 1.3242
6 1 -1.1104 0.90524 -5.03477 4.03888
7 1 -1.1104 1.02804 0.578803 4.14247
10 1 -1.1104 0.945791 -1.91675 1.16047
12 2 2.2208 5.18641 -3.53642 2.49289
13 2 2.2208 5.20157 2.06412 2.52403
14 1 -1.1104 1.01696 -2.28335 4.00648
16 1 -1.1104 3.68138 -4.97381 1.27048
17 1 -1.1104 3.73594 0.817727 1.20312
18 2 2.2208 2.36626 -0.737102 2.5959
19 1 -1.1104 3.66926 -4.92676 3.7602
20 1 -1.1104 3.78543 0.473293 3.91105
21 2 2.2208 2.34855 -3.63616 5.29841
22 2 2.2208 2.38023 2.01099 5.2939
23 1 -1.1104 3.83374 -2.07168 1.2036
24 1 -1.1104 3.83294 -2.16076 3.92043
110 1 -1.1104 3.75071 -2.16701 6.73808
12678 2 2.2208 -0.465207 2.07253 2.61064
26 2 2.2208 5.12504 -6.26004 5.353
12679 2 2.2208 -0.423452 -3.49927 2.44368
11 1 -1.1104 6.62329 -2.07921 1.25014
5 1 -1.1104 6.788 0.706926 1.18844
106 1 -1.1104 0.943997 -2.25079 6.70683
25 2 2.2208 2.29223 -6.35847 2.591
4 1 -1.1104 6.5832 -4.96422 1.16356
15 1 -1.1104 6.73525 -2.19837 3.87774
8 1 -1.1104 6.51687 -4.96482 3.97564
104 1 -1.1104 6.52493 -4.9314 6.77523
9 1 -1.1104 6.4574 0.64239 4.00662
61 1 -1.1104 6.68089 3.48814 1.21464
108 1 -1.1104 3.79074 -4.86058 6.66423
109 1 -1.1104 3.75367 0.661179 6.72675
391 2 2.2208 5.16728 -0.703716 -0.135013
393 2 2.2208 2.31103 2.12388 -0.0862281
107 1 -1.1104 6.73927 -2.19793 6.63341
27 2 2.2208 10.731 -0.763495 5.28462
28 1 -1.1104 12.1365 -5.08032 1.19994
29 1 -1.1104 12.1663 0.607266 1.13956
30 1 -1.1104 12.3158 -4.73818 3.92784
31 1 -1.1104 12.1137 0.568324 4.02272
32 1 -1.1104 12.1012 -2.1246 1.09453
33 2 2.2208 10.8069 -3.5926 2.59207
34 2 2.2208 10.7858 1.99754 2.52144
35 1 -1.1104 12.1224 -2.10435 3.82089
36 1 -1.1104 9.41241 -4.97547 1.14211
37 1 -1.1104 9.51091 0.537214 1.21786
38 2 2.2208 8.08489 -0.834003 2.61325
39 1 -1.1104 9.49876 -5.05512 3.84438
40 1 -1.1104 9.3102 0.607413 3.86859
41 2 2.2208 7.95225 -3.53468 5.3983
42 2 2.2208 7.87041 1.96955 5.17328
43 1 -1.1104 9.35977 -2.13151 1.02954
44 1 -1.1104 9.55331 -2.13622 3.96485
142 1 -1.1104 9.26029 -4.9181 6.55529
421 2 2.2208 10.8289 -0.813865 -0.323389
47 2 2.2208 10.7752 -6.38395 5.30892
144 1 -1.1104 9.4737 -1.92968 6.90135
139 1 -1.1104 12.2229 -4.871 6.75503
12673 2 2.2208 13.6286 -6.29972 2.64601
141 1 -1.1104 12.1434 -2.12556 6.76201
422 2 2.2208 8.03087 -3.56011 -0.308894
46 2 2.2208 13.4904 -0.721858 2.50578
12669 2 2.2208 13.5998 -3.43315 5.38515
13093 2 2.2208 13.6314 -3.49729 -0.329849
443 2 2.2208 13.5977 1.89969 -0.291917
444 2 2.2208 10.7248 -6.428 -0.131624
75 1 -1.1104 3.76857 3.48015 1.29891
64 1 -1.1104 1.01409 3.36187 3.81949
59 1 -1.1104 0.867935 3.46634 1.24291
77 1 -1.1104 3.7864 3.42759 4.0332
49 2 2.2208 5.15747 4.83779 5.39723
50 2 2.2208 5.27229 10.4251 5.42872
51 1 -1.1104 0.863119 6.06274 1.07161
52 1 -1.1104 1.08486 11.9133 1.10573
55 1 -1.1104 0.908487 6.27939 4.02328
56 1 -1.1104 1.17097 12.0012 3.79379
60 1 -1.1104 1.02158 8.91178 1.19456
63 2 2.2208 5.25712 7.62342 2.5633
65 1 -1.1104 0.983035 9.00118 4.04559
68 1 -1.1104 3.90478 6.275 1.17129
69 1 -1.1104 3.79526 11.6585 1.11973
70 2 2.2208 2.36716 4.90282 2.48592
71 2 2.2208 2.38379 10.3426 2.56014
72 1 -1.1104 3.69031 6.35985 3.98797
73 1 -1.1104 3.77454 11.8373 3.93872
74 2 2.2208 2.45787 7.78436 5.40415
76 1 -1.1104 3.83544 8.9197 1.30692
78 1 -1.1104 3.96185 9.07379 4.11659
172 1 -1.1104 1.02882 11.8852 6.52588
12733 2 2.2208 -0.36988 4.7838 5.30545
454 2 2.2208 5.20223 10.4324 -0.218818
177 1 -1.1104 6.6833 3.34572 6.78239
66 1 -1.1104 6.48614 3.57319 3.93069
58 1 -1.1104 6.59534 11.8072 3.90719
54 1 -1.1104 6.60417 11.8437 1.04611
53 1 -1.1104 6.70043 6.32942 1.12848
57 1 -1.1104 6.65049 6.28269 3.98485
62 1 -1.1104 6.54805 9.06225 1.07326
67 1 -1.1104 6.63735 9.08888 3.80295
175 1 -1.1104 1.08699 3.37115 6.64599
455 2 2.2208 2.38404 7.69581 -0.263782
85 1 -1.1104 12.246 3.44067 1.02196
99 1 -1.1104 9.41319 3.39132 3.93309
97 1 -1.1104 9.39156 3.41283 1.15986
88 1 -1.1104 12.3273 3.42112 3.77864
79 2 2.2208 10.813 4.92918 5.28928
80 2 2.2208 10.7901 10.4557 5.2038
81 1 -1.1104 12.3412 6.26356 1.11314
82 1 -1.1104 12.292 11.9251 1.09911
83 1 -1.1104 12.1076 6.29707 3.78726
84 1 -1.1104 12.1681 11.907 3.84941
86 1 -1.1104 12.1453 9.02297 1.1166
87 2 2.2208 10.7331 7.65047 2.48975
89 1 -1.1104 12.1947 9.12559 3.89022
90 1 -1.1104 9.48961 6.34125 1.14443
91 1 -1.1104 9.51971 11.7586 1.14216
92 2 2.2208 8.06418 4.89903 2.4593
93 2 2.2208 7.99507 10.4072 2.53261
94 1 -1.1104 9.42249 6.1726 3.90688
95 1 -1.1104 9.33271 11.8884 3.83557
96 2 2.2208 7.94194 7.74187 5.32632
98 1 -1.1104 9.34565 9.03895 1.17078
100 1 -1.1104 9.42533 8.97925 3.99781
213 1 -1.1104 12.2444 6.12817 6.75979
215 1 -1.1104 12.2321 3.40406 6.54244
220 1 -1.1104 9.41676 9.04881 6.76326
219 1 -1.1104 9.41248 3.47547 6.79618
216 1 -1.1104 12.1186 8.87811 6.67723
492 2 2.2208 10.8563 10.5021 -0.400156
493 2 2.2208 8.0196 7.6373 -0.445759
12729 2 2.2208 13.5397 7.62391 5.28881
102 1 -1.1104 0.859157 -4.99031 6.75287
103 1 -1.1104 1.0563 0.434956 6.90744
105 1 -1.1104 6.48665 0.52812 6.67148
111 2 2.2208 5.25804 -0.771433 10.8792
112 1 -1.1104 1.12391 -4.83861 12.2516
113 1 -1.1104 1.19808 0.633134 12.3333
116 1 -1.1104 1.01887 -4.92322 9.42937
117 1 -1.1104 0.850194 0.730225 9.63072
120 1 -1.1104 0.95635 -2.1477 12.3951
122 2 2.2208 5.20885 -3.62802 8.15764
124 2 2.2208 5.28196 2.00957 8.09278
125 1 -1.1104 1.00833 -2.20214 9.43513
127 1 -1.1104 3.87583 -4.86001 12.2318
128 1 -1.1104 3.91769 0.630977 12.3601
129 2 2.2208 2.41845 -0.824378 8.06117
131 1 -1.1104 3.78852 -4.9303 9.43059
132 1 -1.1104 3.8202 0.607901 9.52387
133 2 2.2208 2.43813 -3.43752 10.8946
134 2 2.2208 2.39795 1.87208 10.9245
135 1 -1.1104 3.82707 -2.046 12.209
136 1 -1.1104 3.87053 -2.15961 9.49498
130 2 2.2208 2.5171 -0.696794 13.7526
12797 2 2.2208 -0.347666 -0.80872 10.9105
123 2 2.2208 5.18805 -3.49024 13.6638
138 2 2.2208 2.37624 -6.3999 8.14764
137 2 2.2208 5.29932 -6.35967 11.0105
12832 2 2.2208 -0.319919 -6.34127 10.8788
245 2 2.2208 5.17234 2.0357 13.7525
12831 2 2.2208 -0.297051 2.15557 8.13928
119 1 -1.1104 6.69141 0.747854 9.39399
118 1 -1.1104 6.57952 -5.08925 9.58838
115 1 -1.1104 6.65774 0.640387 12.1639
126 1 -1.1104 6.70639 -2.05473 9.48257
121 1 -1.1104 6.61785 -2.19878 12.2353
12829 2 2.2208 -0.415572 -3.61407 13.8109
12830 2 2.2208 -0.53772 -3.56966 8.14511
143 1 -1.1104 9.28975 0.851077 6.64242
140 1 -1.1104 12.2076 0.601407 6.88015
114 1 -1.1104 6.67349 -4.87446 12.1749
145 2 2.2208 10.7856 -0.719949 10.8793
146 1 -1.1104 12.1723 -5.08091 12.2725
147 1 -1.1104 12.1978 0.806448 12.3437
148 1 -1.1104 12.1667 -4.94751 9.46967
149 1 -1.1104 12.2117 0.651826 9.69988
150 1 -1.1104 12.1271 -2.14388 12.4028
151 2 2.2208 10.7354 -3.58817 8.09933
153 2 2.2208 10.9327 2.06505 8.15583
154 1 -1.1104 12.0847 -2.1089 9.63018
155 1 -1.1104 9.38576 -4.93334 12.2497
156 1 -1.1104 9.49376 0.768839 12.3536
157 2 2.2208 8.05866 -0.677417 8.00429
159 1 -1.1104 9.40404 -5.06999 9.32168
160 1 -1.1104 9.42411 0.619873 9.46135
161 2 2.2208 7.97214 -3.58075 10.836
162 2 2.2208 8.20233 2.04575 10.8935
163 1 -1.1104 9.36395 -1.90981 12.2455
164 1 -1.1104 9.35528 -2.27603 9.48123
152 2 2.2208 10.7471 -3.58005 13.6311
169 2 2.2208 8.00674 -6.31462 13.6987
168 2 2.2208 8.01524 -6.42553 8.0146
165 2 2.2208 13.5089 -0.752788 8.17312
167 2 2.2208 13.6433 2.19431 10.9526
170 2 2.2208 10.7906 -6.44709 10.9662
182 1 -1.1104 3.95889 8.90768 6.86949
171 1 -1.1104 0.901103 6.21663 6.66903
181 1 -1.1104 3.87012 3.41553 6.70074
176 1 -1.1104 1.03328 9.14894 6.79856
178 1 -1.1104 6.5585 9.07666 6.61242
180 1 -1.1104 3.86329 11.9391 6.65687
179 1 -1.1104 3.74354 6.17046 6.94966
198 1 -1.1104 1.01387 3.40758 9.50572
193 1 -1.1104 1.10015 3.37458 12.3671
211 1 -1.1104 3.93424 3.39445 9.4627
209 1 -1.1104 3.75372 3.40122 12.3378
183 2 2.2208 5.20944 4.7863 10.9774
184 2 2.2208 5.27212 10.5238 10.833
185 1 -1.1104 1.01751 6.22366 12.3494
186 1 -1.1104 1.0105 11.8873 12.3864
189 1 -1.1104 1.06742 6.23275 9.39908
190 1 -1.1104 1.08784 11.747 9.40238
194 1 -1.1104 1.12869 9.17911 12.1692
197 2 2.2208 5.3271 7.60482 8.20547
199 1 -1.1104 0.910126 8.9045 9.62794
202 1 -1.1104 3.83073 6.27545 12.5097
203 1 -1.1104 3.86259 11.7825 12.2823
204 2 2.2208 2.42754 4.76562 8.18368
205 2 2.2208 2.57392 10.4036 8.02492
206 1 -1.1104 3.87277 6.12114 9.54244
207 1 -1.1104 3.80294 11.9085 9.40898
208 2 2.2208 2.33546 7.63642 10.9641
210 1 -1.1104 4.13082 9.15879 12.3175
212 1 -1.1104 3.87495 9.08321 9.56611
192 1 -1.1104 6.56909 11.762 9.47474
173 1 -1.1104 6.57069 6.23879 6.65083
174 1 -1.1104 6.68401 11.9503 6.72669
201 1 -1.1104 6.71142 9.0134 9.35134
188 1 -1.1104 6.68107 11.8297 12.1902
196 1 -1.1104 6.81292 9.05852 12.1715
195 1 -1.1104 6.57856 3.50092 12.4262
187 1 -1.1104 6.60884 6.29896 12.2645
191 1 -1.1104 6.69272 6.19023 9.51516
214 1 -1.1104 12.1326 11.7485 6.668
217 1 -1.1104 9.35549 6.36684 6.70676
218 1 -1.1104 9.50599 11.9085 6.78766
239 1 -1.1104 9.40522 3.62108 12.3175
227 1 -1.1104 12.2434 3.66575 12.4026
241 1 -1.1104 9.51603 3.47454 9.46315
230 1 -1.1104 12.323 3.46138 9.50349
200 1 -1.1104 6.76665 3.4412 9.61367
221 2 2.2208 10.7926 4.96106 10.8612
222 2 2.2208 10.93 10.4878 10.8967
223 1 -1.1104 12.2211 6.28666 12.2268
224 1 -1.1104 12.3038 11.8921 12.2489
225 1 -1.1104 12.2845 6.28887 9.61544
226 1 -1.1104 12.3696 12.0337 9.43039
228 1 -1.1104 12.3163 9.02586 12.4653
229 2 2.2208 10.8254 7.64614 8.16497
231 1 -1.1104 12.3479 9.09294 9.66043
232 1 -1.1104 9.41703 6.21983 12.3843
233 1 -1.1104 9.60843 11.8464 12.3478
234 2 2.2208 8.05134 4.83964 8.08402
235 2 2.2208 8.14573 10.4061 8.21027
236 1 -1.1104 9.48389 6.02602 9.41291
237 1 -1.1104 9.2612 11.9233 9.48669
238 2 2.2208 8.08559 7.63535 10.9321
240 1 -1.1104 9.65535 9.16208 12.13
242 1 -1.1104 9.58761 9.02478 9.60895
359 2 2.2208 8.07105 10.4138 13.5852
358 2 2.2208 7.8946 4.90926 13.7306
357 2 2.2208 10.8866 7.70249 13.7602
244 2 2.2208 13.6052 4.95292 8.25519
243 2 2.2208 13.748 7.72232 10.9621
12866 2 2.2208 13.68 10.5775 8.03073
13015 2 2.2208 13.6309 10.4668 13.7285
246 2 2.2208 5.19195 -0.68229 16.633
247 1 -1.1104 1.10158 -4.84028 17.9622
248 1 -1.1104 1.13318 0.656049 17.989
250 1 -1.1104 0.990143 -5.05855 15.0562
252 1 -1.1104 1.11719 0.640493 15.2058
257 1 -1.1104 0.985193 -2.07857 17.9116
259 2 2.2208 5.30063 -3.58208 19.3861
260 2 2.2208 5.22115 1.98509 19.4048
261 1 -1.1104 1.015 -2.11609 15.1718
264 1 -1.1104 3.93993 -4.93278 17.9896
265 1 -1.1104 3.73652 0.592887 18.1948
266 2 2.2208 2.37306 -0.719344 19.3985
267 1 -1.1104 3.83079 -4.97933 15.0705
269 1 -1.1104 3.81207 0.68596 15.2942
271 2 2.2208 2.3171 -3.53144 16.4862
272 2 2.2208 2.31988 2.15681 16.541
273 1 -1.1104 3.86763 -2.08708 17.9273
274 1 -1.1104 3.83949 -2.17672 15.2202
262 1 -1.1104 1.09304 -2.13171 20.8073
251 1 -1.1104 0.978428 -4.88754 20.6165
278 2 2.2208 5.22951 -6.33076 16.5783
12946 2 2.2208 -0.434912 1.95648 19.468
12976 2 2.2208 -0.292884 -3.54393 19.4204
263 1 -1.1104 6.64152 -1.99752 15.029
254 1 -1.1104 6.59618 -4.87618 15.0229
281 1 -1.1104 6.46143 -5.04249 20.6182
258 1 -1.1104 6.65403 -2.05444 17.9639
275 1 -1.1104 3.80538 -2.10278 20.869
268 1 -1.1104 3.76607 -4.94106 20.8423
158 2 2.2208 7.95789 -0.501743 13.7966
279 2 2.2208 10.926 2.17334 13.6881
249 1 -1.1104 6.623 0.785322 17.8738
255 1 -1.1104 6.47215 0.824914 15.1665
280 1 -1.1104 6.69515 -4.78573 17.8245
283 2 2.2208 10.8579 -0.705621 16.4534
284 1 -1.1104 12.1722 -4.94686 17.9066
285 1 -1.1104 12.2476 0.581339 17.8838
286 1 -1.1104 12.2596 -4.9606 14.9865
288 1 -1.1104 12.1505 0.518986 15.0482
290 1 -1.1104 12.3773 -2.15853 17.7555
291 2 2.2208 10.7937 -3.58235 19.3293
292 2 2.2208 10.7921 2.08949 19.2508
293 1 -1.1104 12.2259 -2.17481 15.0271
295 1 -1.1104 9.35512 -5.01348 17.973
296 1 -1.1104 9.41636 0.626954 17.7787
297 2 2.2208 8.09067 -0.65366 19.2993
298 1 -1.1104 9.36373 -4.81718 15.0653
300 1 -1.1104 9.30639 0.938979 15.067
302 2 2.2208 8.01552 -3.42831 16.4508
303 2 2.2208 8.0042 2.16585 16.4628
304 1 -1.1104 9.41065 -2.05312 17.9632
305 1 -1.1104 9.3883 -1.9683 15.1609
287 1 -1.1104 12.2279 -4.94844 20.7025
311 2 2.2208 10.9036 -6.41961 16.5388
294 1 -1.1104 12.2279 -2.3413 20.7224
256 1 -1.1104 6.56537 0.760769 20.842
289 1 -1.1104 12.0944 0.544574 20.632
368 1 -1.1104 12.1404 3.37307 17.8318
306 1 -1.1104 9.3978 -2.14369 20.7654
307 2 2.2208 13.5578 -0.82261 19.3558
12943 2 2.2208 13.6734 -6.32684 19.4094
13018 2 2.2208 -0.360573 10.4487 16.5551
313 2 2.2208 2.44485 4.99592 13.8898
312 2 2.2208 5.24274 7.63185 13.6637
314 2 2.2208 2.54991 10.4978 13.7581
354 1 -1.1104 3.69167 3.32919 20.8172
351 1 -1.1104 3.90609 3.52719 17.941
353 1 -1.1104 3.77182 3.4869 15.224
334 1 -1.1104 0.953288 3.53549 15.1639
329 1 -1.1104 0.864276 3.49406 18.0981
315 2 2.2208 5.20093 4.76387 16.6696
316 2 2.2208 5.26678 10.4254 16.3795
317 1 -1.1104 0.883893 6.31284 17.938
318 1 -1.1104 1.07938 11.9139 17.9299
321 1 -1.1104 1.02667 6.45962 15.0231
323 1 -1.1104 1.01973 11.9598 15.0974
330 1 -1.1104 1.10833 9.14844 17.873
333 2 2.2208 5.21129 7.79793 19.342
336 1 -1.1104 1.06239 9.32633 15.0038
342 1 -1.1104 3.75772 6.25996 18.0352
343 1 -1.1104 3.88286 11.8436 17.8337
344 2 2.2208 2.23822 4.9158 19.4355
345 2 2.2208 2.34086 10.4304 19.216
346 1 -1.1104 3.89016 6.28817 15.253
348 1 -1.1104 3.88007 11.8414 15.1024
350 2 2.2208 2.45999 7.68772 16.5188
352 1 -1.1104 3.7817 9.04674 17.8686
355 1 -1.1104 4.00477 8.98786 15.0891
324 1 -1.1104 0.964183 11.7932 20.5645
347 1 -1.1104 3.79356 6.27297 20.6899
13019 2 2.2208 -0.410073 7.72581 19.3531
356 1 -1.1104 3.75807 9.0364 20.7108
338 1 -1.1104 6.61919 3.64399 15.2202
328 1 -1.1104 6.64256 11.8219 20.6177
340 1 -1.1104 6.7977 8.90376 15.1139
325 1 -1.1104 6.52723 6.20561 15.0904
320 1 -1.1104 6.75829 11.7967 17.8301
327 1 -1.1104 6.6464 11.7867 14.919
341 1 -1.1104 6.70595 9.11282 20.7592
339 1 -1.1104 6.59235 3.49262 20.7096
13016 2 2.2208 13.4667 7.6956 16.6069
371 1 -1.1104 12.2647 3.4048 15.1175
326 1 -1.1104 6.5515 6.28863 20.8733
374 1 -1.1104 12.2471 9.10475 20.828
331 1 -1.1104 6.72621 3.51699 17.9414
332 1 -1.1104 6.59531 9.15735 18.0069
319 1 -1.1104 6.65711 6.41387 18.0095
386 1 -1.1104 9.46977 3.56112 15.0686
384 1 -1.1104 9.35858 3.46478 17.8934
360 2 2.2208 10.8055 4.87058 16.4611
361 2 2.2208 10.713 10.3018 16.5398
362 1 -1.1104 12.2154 6.24238 18.0067
363 1 -1.1104 12.2856 11.6664 17.9362
364 1 -1.1104 12.1077 6.29712 15.1109
366 1 -1.1104 12.0979 11.7702 15.0581
369 1 -1.1104 12.2103 8.97093 17.9316
370 2 2.2208 10.8837 7.6861 19.3565
373 1 -1.1104 12.1987 9.03871 15.1945
375 1 -1.1104 9.46959 6.23109 17.8784
376 1 -1.1104 9.59429 11.845 17.9292
377 2 2.2208 8.02092 4.89401 19.3939
378 2 2.2208 8.08163 10.4082 19.3362
379 1 -1.1104 9.35015 6.2261 15.1792
381 1 -1.1104 9.34562 11.8554 15.0377
383 2 2.2208 8.00532 7.53119 16.4908
385 1 -1.1104 9.40567 9.04822 17.9543
388 1 -1.1104 9.43096 8.93629 15.0688
382 1 -1.1104 9.53984 11.9124 20.7633
389 1 -1.1104 9.4432 9.12316 20.7295
12980 2 2.2208 13.5992 10.4314 19.3112
380 1 -1.1104 9.40268 6.34808 20.7458
387 1 -1.1104 9.41407 3.48668 20.7362
372 1 -1.1104 12.2098 3.26388 20.6439
365 1 -1.1104 12.3516 6.15252 20.7234
13014 2 2.2208 13.635 4.8044 19.3147
13124 2 2.2208 -0.365582 2.07281 25.1017
253 1 -1.1104 0.9461 0.696727 20.917
419 2 2.2208 2.29387 -6.51666 25.0246
270 1 -1.1104 3.72245 0.574384 20.8337
392 2 2.2208 2.30779 -3.58274 27.8962
394 2 2.2208 5.15549 -0.634059 22.1913
395 1 -1.1104 1.08306 -4.8857 23.4046
396 1 -1.1104 1.02084 0.681784 23.6976
399 1 -1.1104 0.829323 -5.11435 26.2293
400 1 -1.1104 1.07911 0.680819 26.5784
403 1 -1.1104 0.869388 -2.18517 23.6245
404 2 2.2208 5.03667 -3.52745 25.0407
405 2 2.2208 5.28319 2.00627 24.9343
406 1 -1.1104 1.13593 -2.30182 26.4098
408 1 -1.1104 3.83187 -5.0384 23.6522
409 1 -1.1104 3.72085 0.590445 23.6481
410 2 2.2208 2.40791 -0.648468 25.06
411 1 -1.1104 3.67373 -5.12884 26.4362
412 1 -1.1104 3.79118 0.776044 26.4318
413 2 2.2208 2.41527 -3.53125 22.2415
414 2 2.2208 2.29815 2.07793 22.2599
415 1 -1.1104 3.72064 -2.17497 23.7657
416 1 -1.1104 3.81897 -2.26717 26.5198
13127 2 2.2208 -0.419917 -6.35924 27.7874
398 1 -1.1104 6.75749 0.726536 23.6656
401 1 -1.1104 6.5235 -5.09951 26.3571
402 1 -1.1104 6.58115 0.52268 26.3147
397 1 -1.1104 6.63189 -4.89025 23.48
424 1 -1.1104 6.44339 -2.2047 23.5237
418 2 2.2208 5.15658 -6.42088 27.7963
423 2 2.2208 8.00232 2.03557 27.8441
13094 2 2.2208 13.5436 -6.3437 25.0787
282 1 -1.1104 6.53727 -1.99815 20.7552
299 1 -1.1104 9.33723 -4.89111 20.8034
13092 2 2.2208 13.5681 -0.729023 24.9393
13091 2 2.2208 13.7347 -3.56323 22.1728
301 1 -1.1104 9.40215 0.688978 20.7109
407 1 -1.1104 6.63988 -2.33785 26.4045
425 2 2.2208 10.8615 -0.728378 22.1053
426 1 -1.1104 12.2251 -4.93804 23.5575
427 1 -1.1104 12.2169 0.634222 23.5191
428 1 -1.1104 12.0985 -4.91987 26.3687
429 1 -1.1104 12.1217 0.521239 26.4379
430 1 -1.1104 12.3254 -2.17587 23.3589
431 2 2.2208 10.8525 -3.52515 24.9788
432 2 2.2208 10.7897 2.02202 24.9189
433 1 -1.1104 12.2288 -2.23504 26.3319
434 1 -1.1104 9.50963 -4.8859 23.5736
435 1 -1.1104 9.43105 0.497788 23.5955
436 2 2.2208 7.96761 -0.900881 24.9875
437 1 -1.1104 9.18873 -4.9614 26.5198
438 1 -1.1104 9.43813 0.653959 26.4087
439 2 2.2208 7.91722 -3.46378 22.1826
440 2 2.2208 7.96681 2.09502 22.1715
441 1 -1.1104 9.4627 -2.09185 23.5699
442 1 -1.1104 9.29057 -2.21868 26.3218
446 2 2.2208 10.8946 -6.19612 22.2933
349 1 -1.1104 3.71923 11.825 20.6714
335 1 -1.1104 0.871176 3.462 20.8826
322 1 -1.1104 0.867375 6.36376 20.8507
450 1 -1.1104 6.80412 3.35665 26.3628
453 2 2.2208 5.15591 4.87966 27.8179
337 1 -1.1104 1.11378 9.08136 20.5487
457 1 -1.1104 0.968505 3.53078 23.5922
448 1 -1.1104 1.12042 3.48914 26.3511
469 1 -1.1104 3.7558 3.49784 23.602
451 1 -1.1104 6.62661 9.03394 23.4402
464 1 -1.1104 3.88146 3.45809 26.5686
447 1 -1.1104 1.17541 9.15441 26.3627
449 2 2.2208 5.23378 7.67253 24.906
456 1 -1.1104 0.92894 9.01899 23.5835
460 1 -1.1104 0.966921 11.917 26.2941
461 1 -1.1104 0.9429 6.3138 26.3294
462 1 -1.1104 3.83066 9.02351 26.3147
465 1 -1.1104 3.89138 8.9603 23.5222
467 1 -1.1104 1.10209 11.7546 23.4937
468 1 -1.1104 0.781585 6.24792 23.5697
470 2 2.2208 2.35012 7.60197 22.1426
471 1 -1.1104 3.78666 11.7995 26.3361
472 1 -1.1104 3.85044 6.2886 26.3385
473 2 2.2208 2.43631 10.3945 24.8061
474 2 2.2208 5.35948 10.4421 21.9769
475 2 2.2208 2.44806 4.89451 25.0652
476 1 -1.1104 3.85915 11.8135 23.4593
477 2 2.2208 5.2421 4.84129 22.1747
479 1 -1.1104 3.84625 6.20438 23.4623
478 1 -1.1104 6.57239 9.04371 26.2069
459 1 -1.1104 6.73814 6.15329 26.3669
463 1 -1.1104 6.68146 11.7923 23.668
13154 2 2.2208 13.5655 7.47529 22.1823
504 2 2.2208 10.7655 4.78483 22.227
13155 2 2.2208 13.6426 10.3363 24.8919
491 2 2.2208 10.7918 4.81108 27.7301
506 2 2.2208 13.5601 7.62148 27.783
485 1 -1.1104 9.55776 11.774 26.3056
497 1 -1.1104 12.1036 8.88205 23.5087
482 1 -1.1104 9.46494 9.06521 23.6495
503 2 2.2208 10.8904 10.4186 22.1482
490 1 -1.1104 9.45779 6.24499 23.548
484 2 2.2208 8.02099 7.58942 22.2486
367 1 -1.1104 12.4664 11.7832 20.762
502 1 -1.1104 12.2926 6.14704 23.5565
488 2 2.2208 8.06012 4.79347 25.026
499 1 -1.1104 12.1622 11.7029 26.3137
487 2 2.2208 8.0366 10.3362 24.9159
495 1 -1.1104 12.3838 3.21644 26.2011
481 1 -1.1104 9.40722 3.28514 26.3002
489 1 -1.1104 9.46696 11.7934 23.4792
498 1 -1.1104 12.1662 3.51583 23.433
494 1 -1.1104 12.3834 8.98475 26.3642
452 1 -1.1104 6.56724 3.51321 23.5239
500 1 -1.1104 12.2036 6.1532 26.3199
486 1 -1.1104 9.52117 6.21159 26.3388
483 1 -1.1104 9.41044 3.49187 23.5641
480 1 -1.1104 9.52416 9.00254 26.3576
496 2 2.2208 10.8732 7.58629 24.9167
501 1 -1.1104 12.2645 11.7844 23.6438
466 1 -1.1104 6.69956 6.29294 23.6471
458 1 -1.1104 6.66773 11.8446 26.3309
507 2 2.2208 5.20723 16.0723 5.22542
508 2 2.2208 5.15615 21.5513 5.24419
509 1 -1.1104 1.03686 17.4377 1.21617
511 1 -1.1104 1.12501 17.4267 3.96074
513 1 -1.1104 1.05579 14.786 1.1266
514 1 -1.1104 0.867297 20.2986 1.03708
518 2 2.2208 5.13748 18.8668 2.45466
519 1 -1.1104 1.00672 14.6364 3.91961
520 1 -1.1104 0.829019 20.3835 3.99031
523 1 -1.1104 3.73275 17.3567 0.751045
524 2 2.2208 2.48174 16.1207 2.37843
525 2 2.2208 2.32614 21.6644 2.37654
526 1 -1.1104 3.82606 17.3739 3.84281
528 2 2.2208 2.3317 19.0384 5.44277
529 1 -1.1104 3.80346 14.4836 0.940491
530 1 -1.1104 3.82674 20.1744 1.07608
531 1 -1.1104 3.94603 14.6034 3.74305
532 1 -1.1104 3.6209 20.2932 3.88268
517 2 2.2208 5.21101 13.1885 2.35976
527 2 2.2208 2.51771 13.2862 5.30518
610 1 -1.1104 0.931843 20.4821 6.70022
515 1 -1.1104 6.59594 14.6948 0.973137
13243 2 2.2208 -0.466378 16.1203 5.18106
13246 2 2.2208 -0.317575 18.938 2.51013
521 1 -1.1104 6.52213 14.5898 3.86187
510 1 -1.1104 6.6418 17.4026 1.13215
608 1 -1.1104 6.62676 17.5538 6.62957
889 2 2.2208 5.1855 21.7142 -0.363275
890 2 2.2208 2.35218 13.2498 -0.217528
522 1 -1.1104 6.56036 20.147 3.83825
516 1 -1.1104 6.52119 20.2297 1.01871
512 1 -1.1104 6.66965 17.3882 3.82405
533 2 2.2208 10.7348 16.0312 5.14858
534 2 2.2208 10.7747 21.6662 5.26312
535 1 -1.1104 12.294 17.3763 0.882593
536 1 -1.1104 12.2019 17.4057 3.72227
537 1 -1.1104 12.3817 14.6109 1.06957
538 1 -1.1104 12.2704 20.1134 0.914679
540 2 2.2208 10.7742 18.8737 2.37327
541 1 -1.1104 12.2397 14.7244 3.71657
542 1 -1.1104 12.2238 20.2021 3.72043
543 1 -1.1104 9.52759 17.5189 0.80169
544 2 2.2208 7.92226 15.9872 2.41901
545 2 2.2208 7.91841 21.6643 2.42627
546 1 -1.1104 9.41074 17.4319 3.73175
548 2 2.2208 8.0456 18.8648 5.1496
549 1 -1.1104 9.37178 14.5613 1.13018
550 1 -1.1104 9.3527 20.2244 1.16928
551 1 -1.1104 9.39237 14.6564 3.83712
552 1 -1.1104 9.39269 20.2248 3.96724
539 2 2.2208 10.8707 13.1824 2.43277
643 1 -1.1104 12.1249 14.6013 6.59179
547 2 2.2208 7.94116 13.2533 5.40816
646 1 -1.1104 9.33249 14.707 6.6166
644 1 -1.1104 12.0314 20.4916 6.55346
642 1 -1.1104 12.051 17.4255 6.55901
918 2 2.2208 10.8651 16.1202 -0.377533
921 2 2.2208 7.93913 18.7468 -0.381329
13221 2 2.2208 13.6706 16.1289 2.34498
13222 2 2.2208 13.491 21.7004 2.39988
13651 2 2.2208 13.6517 13.2123 -0.412312
553 2 2.2208 5.14415 27.2175 5.26853
554 1 -1.1104 1.07486 23.0736 0.979999
555 1 -1.1104 0.888791 28.5071 1.00016
558 1 -1.1104 0.856521 23.1069 3.89471
559 1 -1.1104 0.743046 28.6308 3.89412
562 1 -1.1104 0.909475 25.8066 1.10565
563 1 -1.1104 1.0632 31.4661 0.773332
566 2 2.2208 5.09411 24.4724 2.52616
567 2 2.2208 5.27713 30.097 2.41165
568 1 -1.1104 0.816288 25.967 3.84486
569 1 -1.1104 1.01603 31.4845 3.75363
572 1 -1.1104 3.818 22.9168 1.08432
573 1 -1.1104 3.74309 28.7229 0.931673
574 2 2.2208 2.25045 27.2283 2.58824
575 1 -1.1104 3.68951 23.1656 3.91432
576 1 -1.1104 3.81843 28.555 3.75828
577 2 2.2208 2.26411 24.5183 5.17627
579 2 2.2208 2.33923 30.0828 5.17421
580 1 -1.1104 3.64273 25.9168 1.05498
581 1 -1.1104 3.76169 31.3477 0.974044
582 1 -1.1104 3.67874 25.9443 3.8769
583 1 -1.1104 3.9367 31.3181 3.82112
668 1 -1.1104 0.854835 23.136 6.71833
676 1 -1.1104 3.69474 23.2279 6.6533
13305 2 2.2208 -0.688988 27.3102 5.27124
578 2 2.2208 2.32532 30.0066 -0.417608
571 1 -1.1104 6.64896 31.4794 3.85998
671 1 -1.1104 6.43678 28.5714 6.721
564 1 -1.1104 6.36802 25.8213 1.08423
13307 2 2.2208 -0.50982 30.1042 2.41965
678 1 -1.1104 3.74784 26.0077 6.74677
679 1 -1.1104 3.76959 31.3809 6.70559
942 2 2.2208 5.11407 27.357 -0.26265
13748 2 2.2208 -0.598779 27.3455 -0.424078
565 1 -1.1104 6.70583 31.532 1.13103
557 1 -1.1104 6.63313 28.5489 1.02508
560 1 -1.1104 6.45929 23.0204 3.88671
561 1 -1.1104 6.56256 28.6315 3.99775
556 1 -1.1104 6.59613 23.13 1.11759
570 1 -1.1104 6.51756 25.7812 3.85915
584 2 2.2208 10.8497 27.2342 5.26713
585 1 -1.1104 12.1568 22.9923 0.958763
586 1 -1.1104 12.2015 28.5858 1.34383
587 1 -1.1104 12.0987 22.9843 3.72628
588 1 -1.1104 12.1472 28.6621 3.96555
589 1 -1.1104 12.1846 25.8101 0.963137
590 1 -1.1104 12.3365 31.5222 1.16721
591 2 2.2208 10.6649 24.4602 2.46862
592 2 2.2208 10.8097 30.0346 2.56049
593 1 -1.1104 12.1073 25.825 3.87008
594 1 -1.1104 12.3224 31.4443 3.9248
595 1 -1.1104 9.26567 23.0045 1.05444
596 1 -1.1104 9.38122 28.6645 1.03484
597 2 2.2208 7.95142 27.1932 2.55083
598 1 -1.1104 9.31583 22.9607 3.90727
599 1 -1.1104 9.39855 28.4159 3.79049
600 2 2.2208 7.92798 24.4163 5.21502
602 2 2.2208 7.97382 30.0095 5.45154
603 1 -1.1104 9.30859 25.9393 1.21337
604 1 -1.1104 9.6244 31.4542 1.23118
605 1 -1.1104 9.32232 25.7079 3.94698
606 1 -1.1104 9.50841 31.418 3.95028
715 1 -1.1104 12.2368 31.4877 6.75077
716 1 -1.1104 9.35232 23.1714 6.60771
713 1 -1.1104 12.3287 28.7402 6.91188
719 1 -1.1104 9.21583 31.5525 6.61153
601 2 2.2208 8.06212 30.0134 -0.339124
984 2 2.2208 10.8116 27.2302 -0.263852
675 1 -1.1104 6.49607 31.3434 6.67302
13275 2 2.2208 13.5547 24.3831 5.15059
13274 2 2.2208 13.5825 30.0702 5.41705
13273 2 2.2208 13.6207 27.3114 2.62251
609 1 -1.1104 0.954615 14.6758 6.60983
607 1 -1.1104 0.992766 17.5161 6.74455
613 1 -1.1104 3.86053 17.5072 6.63357
614 1 -1.1104 3.72225 14.6972 6.6318
615 1 -1.1104 3.61468 20.3146 6.72979
636 2 2.2208 2.37915 13.3134 10.9413
626 2 2.2208 5.15477 13.4293 8.10922
616 2 2.2208 5.16581 16.0996 10.9287
617 2 2.2208 5.14477 21.7579 10.682
618 1 -1.1104 0.837716 17.3537 12.3157
620 1 -1.1104 0.888508 17.5183 9.5458
622 1 -1.1104 0.833856 14.5927 12.0966
623 1 -1.1104 0.875155 20.1371 12.2388
627 2 2.2208 5.16328 18.9146 8.03061
628 1 -1.1104 0.980162 14.5723 9.40201
629 1 -1.1104 1.03241 20.3346 9.45909
632 1 -1.1104 3.78659 17.4191 12.1752
633 2 2.2208 2.33658 16.1304 8.11544
634 2 2.2208 2.36323 21.875 8.01642
635 1 -1.1104 3.71325 17.5191 9.4095
637 2 2.2208 2.35982 18.9526 10.8195
638 1 -1.1104 3.77673 14.5739 12.3459
639 1 -1.1104 3.69388 20.2581 12.2268
640 1 -1.1104 3.75733 14.6284 9.58558
641 1 -1.1104 3.65783 20.3136 9.47886
746 2 2.2208 2.40399 16.071 13.6305
13373 2 2.2208 -0.514043 18.9789 8.13617
13376 2 2.2208 -0.400296 13.1462 8.00026
611 1 -1.1104 6.45489 14.8085 6.9543
624 1 -1.1104 6.61769 14.5641 12.3098
619 1 -1.1104 6.67634 17.4313 12.1208
631 1 -1.1104 6.5136 20.269 9.31051
630 1 -1.1104 6.6082 14.6471 9.5518
621 1 -1.1104 6.52345 17.4642 9.50426
13539 2 2.2208 -0.490461 13.2575 13.671
647 1 -1.1104 9.37123 20.3284 6.60372
612 1 -1.1104 6.39776 20.1729 6.64859
645 1 -1.1104 9.39332 17.5693 6.48878
625 1 -1.1104 6.67311 20.2922 12.1667
654 2 2.2208 10.8321 13.2636 8.0897
648 2 2.2208 10.82 16.1315 10.7421
649 2 2.2208 10.7184 21.7166 10.8518
650 1 -1.1104 12.219 17.3927 12.2604
651 1 -1.1104 12.1609 17.7319 9.34353
652 1 -1.1104 12.1875 14.7051 12.2746
653 1 -1.1104 12.1549 20.1989 12.2506
655 2 2.2208 10.7547 18.8585 7.97098
656 1 -1.1104 12.3663 14.9419 9.42207
657 1 -1.1104 12.1494 20.3375 9.41156
658 1 -1.1104 9.4548 17.4426 12.1685
659 2 2.2208 7.89456 16.1026 8.15381
660 2 2.2208 7.88234 21.6426 7.90005
661 1 -1.1104 9.46798 17.4077 9.38445
663 2 2.2208 8.12174 18.8534 10.8326
664 1 -1.1104 9.36905 14.6098 12.2595
665 1 -1.1104 9.48499 20.1064 12.3408
666 1 -1.1104 9.63755 14.6355 9.38195
667 1 -1.1104 9.40079 20.3661 9.39753
783 2 2.2208 10.8188 13.2541 13.7278
662 2 2.2208 7.99424 13.2341 10.9452
813 2 2.2208 13.5687 21.7615 13.599
785 2 2.2208 8.15923 15.9968 13.6007
13345 2 2.2208 13.6925 13.3414 10.9346
13343 2 2.2208 13.5559 16.1382 7.97541
13344 2 2.2208 13.5507 21.6266 8.16261
13494 2 2.2208 13.5403 16.0678 13.6624
672 1 -1.1104 0.993224 25.8221 6.59151
670 1 -1.1104 6.47725 23.0456 6.60631
677 1 -1.1104 3.65247 28.6678 6.62951
673 1 -1.1104 0.803262 31.6217 6.72671
669 1 -1.1104 0.836237 28.7158 6.60704
680 2 2.2208 5.08047 27.2825 10.9833
681 1 -1.1104 0.829872 23.1161 12.2241
682 1 -1.1104 0.882007 28.6293 12.1798
685 1 -1.1104 0.926419 23.2096 9.43259
686 1 -1.1104 0.872449 28.8034 9.47662
689 1 -1.1104 0.972166 25.9258 12.3012
690 1 -1.1104 1.03815 31.3576 12.2715
693 2 2.2208 5.09317 24.6167 8.01986
694 2 2.2208 5.11774 30.0235 8.11836
696 1 -1.1104 0.944764 25.9909 9.35178
697 1 -1.1104 0.869811 31.4885 9.50847
700 1 -1.1104 3.67138 22.928 12.1572
701 1 -1.1104 3.72304 28.7199 12.2679
702 2 2.2208 2.38688 27.3608 8.03094
704 1 -1.1104 3.73166 23.2359 9.39856
705 1 -1.1104 3.63109 28.585 9.50172
706 2 2.2208 2.37554 24.4544 10.9281
707 2 2.2208 2.30779 29.9537 10.8921
708 1 -1.1104 3.75811 25.7564 12.2956
709 1 -1.1104 3.84656 31.5161 12.319
710 1 -1.1104 3.79899 25.9297 9.57212
711 1 -1.1104 3.74084 31.42 9.46071
695 2 2.2208 5.15103 30.1213 13.6696
698 1 -1.1104 6.54646 25.9386 9.56138
699 1 -1.1104 6.427 31.5096 9.45163
683 1 -1.1104 6.54868 22.9992 12.254
692 1 -1.1104 6.66779 31.5167 12.3332
684 1 -1.1104 6.58027 28.542 12.2066
688 1 -1.1104 6.50007 28.6557 9.51973
13621 2 2.2208 -0.588158 24.5157 13.6217
714 1 -1.1104 12.2564 25.9128 6.66363
718 1 -1.1104 9.56984 25.873 6.88056
674 1 -1.1104 6.60008 25.8163 6.57705
712 1 -1.1104 12.2351 23.154 6.55817
717 1 -1.1104 9.49145 28.8875 6.61071
687 1 -1.1104 6.53137 23.0593 9.45284
691 1 -1.1104 6.45685 25.8787 12.3759
736 1 -1.1104 9.33521 22.9865 9.51541
720 2 2.2208 10.7174 27.3497 10.9432
721 1 -1.1104 12.1615 23.0729 12.226
722 1 -1.1104 11.928 28.6837 12.2971
723 1 -1.1104 12.2213 23.1759 9.56246
724 1 -1.1104 11.9155 28.7064 9.69691
725 1 -1.1104 12.089 25.7693 12.2231
726 1 -1.1104 12.3341 31.4681 12.3381
727 2 2.2208 10.7861 24.6409 8.07149
728 2 2.2208 10.8002 30.2186 8.12826
730 1 -1.1104 12.0946 26.0496 9.40262
731 1 -1.1104 12.1178 31.4782 9.44541
732 1 -1.1104 9.36426 23.1306 12.3462
733 1 -1.1104 9.22859 28.6489 12.4566
734 2 2.2208 7.91828 27.2267 8.02775
737 1 -1.1104 9.35071 28.8546 9.49776
738 2 2.2208 7.85425 24.4884 10.9219
739 2 2.2208 7.98112 30.1702 10.8511
740 1 -1.1104 9.26271 25.8357 12.4176
741 1 -1.1104 9.49465 31.5083 12.2561
742 1 -1.1104 9.33742 25.9725 9.52489
743 1 -1.1104 9.26199 31.5462 9.30899
729 2 2.2208 10.7931 30.1318 13.7727
744 2 2.2208 5.19938 13.2537 13.6546