ITEM: TIMESTEP
10000
ITEM: NUMBER OF ATOMS
27000
ITEM: BOX BOUNDS pp pp pp
-3.5570326208995301e-01 2.7695703262090202e+01
-6.3649617727313510e+00 4.9848496177273358e+02
-3.5710848641724385e-01 2.7697108486417573e+01
ITEM: ATOMS id type q x y z
1 2 2.2208 5.13514 -0.810077 5.2767
2 1 -1.1104 1.08405 -4.97753 1.0022
3 1 -1.1104 1.02642 0.477712 1.03865
6 1 -1.1104 1.20054 -4.97024 3.79955
7 1 -1.1104 1.02101 0.493976 3.94536
10 1 -1.1104 1.00733 -2.34091 1.17719
12 2 2.2208 5.12978 -3.55376 2.4283
13 2 2.2208 5.34098 2.02923 2.59814
14 1 -1.1104 0.843593 -2.15145 3.95163
16 1 -1.1104 3.71314 -4.94829 0.958812
17 1 -1.1104 3.92167 0.496003 1.33979
18 2 2.2208 2.39051 -0.839184 2.51927
19 1 -1.1104 3.88672 -5.01018 3.90236
20 1 -1.1104 3.74855 0.548894 4.04375
21 2 2.2208 2.4704 -3.60234 5.26228
22 2 2.2208 2.35229 1.98567 5.32692
23 1 -1.1104 3.77071 -2.10566 1.14864
24 1 -1.1104 3.84233 -2.1558 3.85968
105 1 -1.1104 6.52139 0.483889 6.74138
110 1 -1.1104 3.85471 -2.22411 6.70538
13090 2 2.2208 13.7434 2.05462 22.1598
12832 2 2.2208 -0.385964 -6.46049 11.0596
102 1 -1.1104 1.10333 -5.04283 6.6917
393 2 2.2208 2.39009 1.95274 27.7514
392 2 2.2208 2.45254 -3.70053 27.7206
12678 2 2.2208 -0.367917 1.92973 2.40049
12691 2 2.2208 -0.336888 -0.890011 5.39705
12679 2 2.2208 -0.41639 -3.54529 2.47937
4 1 -1.1104 6.5951 -5.04983 1.00865
11 1 -1.1104 6.66834 -2.20881 1.11321
8 1 -1.1104 6.80577 -4.88257 3.86991
9 1 -1.1104 6.58696 0.641825 3.94514
15 1 -1.1104 6.47757 -2.06101 3.89889
5 1 -1.1104 6.73551 0.606018 1.25798
104 1 -1.1104 6.59222 -5.06305 6.61764
27 2 2.2208 10.7786 -0.695951 5.33286
28 1 -1.1104 12.3601 -4.96232 1.1465
29 1 -1.1104 12.1407 0.564196 1.04274
30 1 -1.1104 12.2996 -4.92768 3.83584
31 1 -1.1104 12.2375 0.521459 3.78314
32 1 -1.1104 12.2458 -2.18593 0.999975
33 2 2.2208 10.8698 -3.44694 2.53071
34 2 2.2208 10.7291 1.94018 2.43953
35 1 -1.1104 12.2362 -2.12834 3.81165
36 1 -1.1104 9.42519 -4.98063 1.17962
37 1 -1.1104 9.46566 0.448195 1.09061
38 2 2.2208 8.05221 -0.86208 2.46095
39 1 -1.1104 9.57012 -4.84963 3.90879
40 1 -1.1104 9.39013 0.686031 3.84784
41 2 2.2208 8.06159 -3.64169 5.26713
42 2 2.2208 8.01353 1.9011 5.39364
43 1 -1.1104 9.32922 -2.33388 1.09127
44 1 -1.1104 9.37604 -2.06402 3.89625
141 1 -1.1104 12.1979 -1.99951 6.55027
139 1 -1.1104 12.187 -5.00425 6.60418
143 1 -1.1104 9.51198 0.465998 6.80881
142 1 -1.1104 9.37392 -5.00056 6.5925
12879 2 2.2208 -0.354978 7.41083 8.15276
421 2 2.2208 10.8385 -0.794143 27.6722
59 1 -1.1104 0.973181 3.44244 1.04589
75 1 -1.1104 3.74615 3.38829 1.17005
64 1 -1.1104 1.05164 3.47757 3.89086
77 1 -1.1104 3.8076 3.38673 3.88405
49 2 2.2208 5.30787 4.76571 5.38657
50 2 2.2208 5.32025 10.49 5.41756
51 1 -1.1104 1.08296 6.18097 1.14818
52 1 -1.1104 1.04093 11.7825 1.16755
55 1 -1.1104 1.08916 6.27422 3.9605
56 1 -1.1104 1.1248 11.5244 3.89444
60 1 -1.1104 1.06231 9.02996 1.27894
63 2 2.2208 5.24646 7.61659 2.49713
65 1 -1.1104 1.21553 8.80726 3.91401
68 1 -1.1104 3.81182 6.03766 1.23675
69 1 -1.1104 3.76795 11.8769 1.27881
70 2 2.2208 2.36266 4.84154 2.56943
71 2 2.2208 2.51271 10.3777 2.49574
72 1 -1.1104 3.95913 6.13685 3.98305
73 1 -1.1104 3.91272 11.7091 3.98939
74 2 2.2208 2.55279 7.66303 5.45597
76 1 -1.1104 3.81913 9.00462 1.10588
78 1 -1.1104 4.01164 8.96778 3.84401
53 1 -1.1104 6.45412 6.25016 0.926491
175 1 -1.1104 1.10572 3.46602 6.65828
179 1 -1.1104 3.94172 6.29934 6.76826
180 1 -1.1104 3.89014 11.7495 6.8441
453 2 2.2208 5.13811 4.79232 27.7171
455 2 2.2208 2.46293 7.54095 27.8508
12733 2 2.2208 -0.349731 4.86201 5.25978
12731 2 2.2208 -0.22828 7.58035 2.54128
13191 2 2.2208 -0.330431 10.2986 27.906
12759 2 2.2208 -0.266662 10.2823 5.2499
61 1 -1.1104 6.5963 3.32626 1.09483
66 1 -1.1104 6.81247 3.51362 3.93415
54 1 -1.1104 6.77088 11.6862 1.16784
57 1 -1.1104 6.6788 6.20027 3.87627
62 1 -1.1104 6.57682 9.12094 1.07841
67 1 -1.1104 6.57272 9.05024 4.04734
174 1 -1.1104 6.72802 11.6982 6.71947
178 1 -1.1104 6.62018 8.87461 6.88198
99 1 -1.1104 9.4934 3.50882 3.9395
97 1 -1.1104 9.36317 3.37657 1.18111
58 1 -1.1104 6.67766 11.8269 3.90414
88 1 -1.1104 12.1268 3.40617 3.8145
79 2 2.2208 10.8817 4.82432 5.308
80 2 2.2208 10.9544 10.4196 5.30184
81 1 -1.1104 12.1786 6.04145 0.958936
82 1 -1.1104 12.353 11.5988 0.913098
83 1 -1.1104 12.1741 6.06637 3.80073
84 1 -1.1104 12.3313 11.7694 3.68637
85 1 -1.1104 12.2279 3.36023 0.962916
86 1 -1.1104 12.201 8.91258 0.9328
87 2 2.2208 10.741 7.58127 2.46365
89 1 -1.1104 12.2172 8.96185 3.77711
90 1 -1.1104 9.19762 6.13628 1.14738
91 1 -1.1104 9.52661 11.7751 1.12764
92 2 2.2208 8.05204 4.84498 2.54135
93 2 2.2208 8.18007 10.3529 2.48675
94 1 -1.1104 9.44374 6.21212 3.86223
95 1 -1.1104 9.49798 11.6897 3.89442
96 2 2.2208 7.97108 7.68902 5.41568
98 1 -1.1104 9.4403 9.00819 1.04981
100 1 -1.1104 9.41033 8.95774 3.84454
499 1 -1.1104 12.1437 11.8369 26.3291
219 1 -1.1104 9.54626 3.27007 6.66828
217 1 -1.1104 9.46689 6.13959 6.70088
215 1 -1.1104 12.2849 3.35021 6.78595
213 1 -1.1104 12.2955 6.15756 6.62393
218 1 -1.1104 9.458 11.7145 6.76528
220 1 -1.1104 9.55286 8.95682 6.68643
173 1 -1.1104 6.64847 6.17076 6.7905
177 1 -1.1104 6.68781 3.22209 6.66811
216 1 -1.1104 12.3343 8.91242 6.77324
214 1 -1.1104 12.3872 11.7311 6.56935
103 1 -1.1104 1.01194 0.592183 6.63631
106 1 -1.1104 0.973407 -2.32504 6.70624
109 1 -1.1104 3.70781 0.626541 6.83442
137 2 2.2208 5.16402 -6.33962 10.9675
108 1 -1.1104 3.84365 -4.98063 6.65761
111 2 2.2208 5.19277 -0.736819 10.8877
112 1 -1.1104 0.939745 -4.85027 12.3569
113 1 -1.1104 0.924916 0.746845 12.2404
116 1 -1.1104 0.99611 -5.20763 9.36932
117 1 -1.1104 1.13322 0.487266 9.51729
120 1 -1.1104 0.96568 -2.11639 12.4042
122 2 2.2208 5.32377 -3.52027 8.11539
124 2 2.2208 5.18791 1.88028 8.13101
125 1 -1.1104 0.92085 -2.39749 9.53642
127 1 -1.1104 3.716 -4.96317 12.4002
128 1 -1.1104 3.85674 0.555651 12.3318
129 2 2.2208 2.39267 -0.80814 8.11212
130 2 2.2208 2.35701 -0.761782 13.7086
131 1 -1.1104 3.77105 -5.09874 9.56879
132 1 -1.1104 3.94391 0.635306 9.67105
133 2 2.2208 2.4462 -3.52709 10.9234
134 2 2.2208 2.42748 1.93195 10.7649
135 1 -1.1104 3.78846 -2.11011 12.2113
136 1 -1.1104 3.82246 -2.21284 9.49255
245 2 2.2208 5.22598 2.05134 13.7099
463 1 -1.1104 6.59756 11.893 23.4759
123 2 2.2208 5.12326 -3.5523 13.8367
12830 2 2.2208 -0.425577 -3.66578 8.04177
498 1 -1.1104 12.1732 3.53826 23.5076
12797 2 2.2208 -0.443913 -0.784038 10.9522
12829 2 2.2208 -0.364095 -3.45168 13.7604
12831 2 2.2208 -0.393514 2.01927 8.09428
107 1 -1.1104 6.7503 -2.26392 6.78926
140 1 -1.1104 12.3326 0.630545 6.41027
119 1 -1.1104 6.61285 0.655935 9.50009
121 1 -1.1104 6.45691 -2.16226 12.3353
115 1 -1.1104 6.75835 0.689475 12.4219
126 1 -1.1104 6.44537 -2.18546 9.59497
459 1 -1.1104 6.4855 6.18499 26.3146
144 1 -1.1104 9.44489 -2.19688 6.66072
118 1 -1.1104 6.67647 -4.94269 9.56871
114 1 -1.1104 6.47373 -4.94999 12.4168
145 2 2.2208 10.6815 -0.896214 10.8297
146 1 -1.1104 12.1117 -4.86223 12.2943
147 1 -1.1104 12.2632 0.513811 12.2788
148 1 -1.1104 12.116 -4.95519 9.45977
149 1 -1.1104 12.2739 0.587536 9.35037
150 1 -1.1104 12.0764 -2.20202 12.2437
151 2 2.2208 10.6805 -3.62811 8.10594
153 2 2.2208 10.9352 1.99246 8.07344
154 1 -1.1104 12.1457 -2.17012 9.42735
155 1 -1.1104 9.36761 -4.88875 12.2173
156 1 -1.1104 9.47504 0.527662 12.1966
157 2 2.2208 8.07774 -0.873505 8.11506
159 1 -1.1104 9.29512 -4.99559 9.4233
160 1 -1.1104 9.37592 0.601673 9.48177
161 2 2.2208 7.85798 -3.54758 10.9226
162 2 2.2208 8.1051 2.0116 10.8823
163 1 -1.1104 9.42199 -2.17302 12.1767
164 1 -1.1104 9.49708 -2.25755 9.39184
158 2 2.2208 8.02306 -0.88916 13.6366
152 2 2.2208 10.7681 -3.52707 13.6431
279 2 2.2208 10.9514 1.94215 13.7262
443 2 2.2208 13.7034 2.06206 27.7192
13157 2 2.2208 -0.246062 7.63982 24.8592
500 1 -1.1104 12.0686 6.09831 26.2309
181 1 -1.1104 3.92709 3.47098 6.796
171 1 -1.1104 1.14841 6.16743 6.59522
176 1 -1.1104 0.967558 9.03316 6.84898
172 1 -1.1104 1.08025 11.7442 6.71006
182 1 -1.1104 3.82587 9.06971 6.70295
183 2 2.2208 5.24784 4.80215 10.8312
184 2 2.2208 5.34022 10.3829 11.066
185 1 -1.1104 0.920892 6.11459 12.402
186 1 -1.1104 1.03011 11.7157 12.2188
189 1 -1.1104 1.03939 5.94141 9.53188
190 1 -1.1104 0.984042 11.5208 9.49707
193 1 -1.1104 1.10317 3.40582 12.2395
194 1 -1.1104 1.07103 8.82575 12.171
197 2 2.2208 5.20687 7.68836 8.23366
198 1 -1.1104 1.03707 3.23717 9.46211
199 1 -1.1104 1.0804 8.82697 9.47191
202 1 -1.1104 3.82626 6.08915 12.3156
203 1 -1.1104 3.86952 11.7405 12.3015
204 2 2.2208 2.51392 4.79397 8.07346
205 2 2.2208 2.42338 10.4055 8.14999
206 1 -1.1104 3.93651 6.19246 9.61303
207 1 -1.1104 3.90058 11.6687 9.46282
208 2 2.2208 2.41249 7.5031 10.9349
209 1 -1.1104 3.94446 3.27469 12.1841
210 1 -1.1104 3.88139 8.95269 12.3935
211 1 -1.1104 3.91022 3.40195 9.49239
212 1 -1.1104 3.78562 9.05724 9.59817
313 2 2.2208 2.43256 4.75718 13.7499
314 2 2.2208 2.46053 10.3023 13.7257
312 2 2.2208 5.24837 7.53642 13.7432
12880 2 2.2208 -0.309429 10.3407 10.8414
12911 2 2.2208 -0.372014 4.70732 10.9996
195 1 -1.1104 6.57316 3.26142 12.2161
187 1 -1.1104 6.6635 6.1207 12.2823
188 1 -1.1104 6.71518 11.7298 12.381
192 1 -1.1104 6.76751 11.7915 9.54999
196 1 -1.1104 6.71119 8.88134 12.2956
200 1 -1.1104 6.85497 3.33546 9.46958
201 1 -1.1104 6.53421 8.99029 9.64386
230 1 -1.1104 12.3109 3.42674 9.54737
191 1 -1.1104 6.66114 6.32931 9.43704
227 1 -1.1104 12.1631 3.3015 12.2232
241 1 -1.1104 9.52277 3.32371 9.45863
239 1 -1.1104 9.50192 3.30526 12.1976
221 2 2.2208 10.7576 4.58934 10.83
222 2 2.2208 10.8683 10.3519 10.8954
223 1 -1.1104 12.1447 5.94893 12.3503
224 1 -1.1104 12.1905 11.6801 12.1652
225 1 -1.1104 12.2592 6.2586 9.55396
226 1 -1.1104 12.1679 11.6994 9.4656
228 1 -1.1104 12.3725 8.85382 12.1934
229 2 2.2208 10.7729 7.49117 8.10448
231 1 -1.1104 12.1419 8.87341 9.42407
232 1 -1.1104 9.38461 6.20558 12.2581
233 1 -1.1104 9.50359 11.8371 12.3451
234 2 2.2208 8.0742 4.73864 7.99323
235 2 2.2208 8.04152 10.3395 8.09674
236 1 -1.1104 9.42854 6.28875 9.48783
237 1 -1.1104 9.41982 11.7914 9.42551
238 2 2.2208 7.98526 7.61823 10.8832
240 1 -1.1104 9.51705 9.0053 12.185
242 1 -1.1104 9.22062 8.97201 9.45401
357 2 2.2208 10.7993 7.63331 13.685
359 2 2.2208 7.99908 10.3399 13.6654
450 1 -1.1104 6.70077 3.40027 26.4495
12946 2 2.2208 -0.335519 1.92873 19.3203
246 2 2.2208 5.16406 -0.823677 16.5205
247 1 -1.1104 0.806609 -4.83259 17.8244
248 1 -1.1104 1.0623 0.681534 17.9171
250 1 -1.1104 0.926719 -5.009 15.1137
252 1 -1.1104 1.10988 0.636815 15.0257
255 1 -1.1104 6.56766 0.652476 15.0537
257 1 -1.1104 0.887455 -2.02236 18.0958
259 2 2.2208 5.35396 -3.51516 19.1622
260 2 2.2208 5.24321 1.99966 19.3009
261 1 -1.1104 0.967891 -2.16112 15.1973
264 1 -1.1104 3.55148 -4.95115 17.851
265 1 -1.1104 3.80118 0.565485 18.028
266 2 2.2208 2.45844 -0.733605 19.3855
267 1 -1.1104 3.93575 -5.09781 15.135
269 1 -1.1104 3.82827 0.602929 15.2532
271 2 2.2208 2.35487 -3.59298 16.5593
272 2 2.2208 2.45867 1.98037 16.5211
273 1 -1.1104 3.75492 -2.22782 17.9632
274 1 -1.1104 3.80048 -2.24351 15.1553
280 1 -1.1104 6.56007 -4.94908 17.8774
275 1 -1.1104 3.91264 -2.21451 20.769
281 1 -1.1104 6.58314 -4.95092 20.5564
268 1 -1.1104 3.84346 -5.05116 20.6692
270 1 -1.1104 3.72627 0.588122 20.912
251 1 -1.1104 0.961709 -5.00563 20.7031
253 1 -1.1104 1.09876 0.478045 20.7199
12976 2 2.2208 -0.471338 -3.55616 19.2997
12947 2 2.2208 -0.32186 -0.760235 16.5423
307 2 2.2208 13.5937 -0.796899 19.3369
310 2 2.2208 7.85862 -6.38518 19.1882
263 1 -1.1104 6.49635 -2.17221 15.1019
254 1 -1.1104 6.71249 -4.95792 15.2042
249 1 -1.1104 6.61929 0.430149 17.7962
258 1 -1.1104 6.66184 -2.22127 17.8377
283 2 2.2208 10.831 -0.817003 16.5137
284 1 -1.1104 12.2021 -5.03374 18.0753
285 1 -1.1104 12.1328 0.546796 17.9297
286 1 -1.1104 12.1505 -4.99088 15.1383
288 1 -1.1104 12.1983 0.493637 15.1676
290 1 -1.1104 12.2244 -2.24264 17.8459
291 2 2.2208 10.7866 -3.52982 19.2126
292 2 2.2208 10.8748 2.02881 19.3862
293 1 -1.1104 12.1999 -2.23069 15.0139
295 1 -1.1104 9.25086 -5.06514 17.8263
296 1 -1.1104 9.39188 0.774285 17.8851
297 2 2.2208 8.01432 -0.800068 19.3449
298 1 -1.1104 9.45002 -4.84247 14.9298
300 1 -1.1104 9.42338 0.51503 15.0635
302 2 2.2208 8.03624 -3.57306 16.4861
303 2 2.2208 8.0992 1.9394 16.4331
304 1 -1.1104 9.48899 -2.20197 17.8231
305 1 -1.1104 9.34207 -2.09878 15.0904
256 1 -1.1104 6.61792 0.646024 20.8023
299 1 -1.1104 9.24373 -5.08554 20.6859
289 1 -1.1104 12.2969 0.713312 20.6217
301 1 -1.1104 9.45696 0.672158 20.8734
311 2 2.2208 10.7685 -6.34958 16.4475
13017 2 2.2208 -0.395749 4.83474 16.5427
334 1 -1.1104 1.1195 3.20578 14.9518
351 1 -1.1104 3.82155 3.4582 17.793
353 1 -1.1104 3.84915 3.48622 14.9811
315 2 2.2208 5.32515 4.86671 16.5056
316 2 2.2208 5.22691 10.4004 16.4853
317 1 -1.1104 1.01835 6.09147 17.8539
318 1 -1.1104 1.03639 11.7496 17.7981
321 1 -1.1104 0.984773 6.12997 15.1524
323 1 -1.1104 1.06728 11.776 15.0589
329 1 -1.1104 1.1753 3.53697 17.7644
330 1 -1.1104 1.09923 9.02427 17.7198
333 2 2.2208 5.24415 7.59566 19.3025
336 1 -1.1104 1.08427 9.00829 14.9858
342 1 -1.1104 3.79989 6.22939 17.86
343 1 -1.1104 3.83622 11.8375 17.8011
344 2 2.2208 2.44534 4.85881 19.2342
345 2 2.2208 2.5356 10.5661 19.2996
346 1 -1.1104 3.85738 6.21315 15.0551
348 1 -1.1104 3.74187 11.6771 15.0304
350 2 2.2208 2.37152 7.53942 16.4401
352 1 -1.1104 3.89531 9.05554 18.0343
355 1 -1.1104 3.8129 8.99799 15.0893
347 1 -1.1104 3.86322 6.17887 20.7436
13018 2 2.2208 -0.359237 10.4079 16.47
13020 2 2.2208 -0.381984 7.52525 13.6711
13019 2 2.2208 -0.391298 7.60824 19.2093
380 1 -1.1104 9.31355 6.24657 20.5658
331 1 -1.1104 6.64722 3.44547 17.9868
319 1 -1.1104 6.61425 6.08953 18.0074
325 1 -1.1104 6.77035 6.30818 15.2138
332 1 -1.1104 6.76203 8.97546 17.9247
340 1 -1.1104 6.52876 8.92141 15.2188
320 1 -1.1104 6.76863 11.7984 17.8146
327 1 -1.1104 6.50394 11.711 14.9322
341 1 -1.1104 6.67703 8.95476 20.7172
389 1 -1.1104 9.3668 8.95022 20.7274
367 1 -1.1104 12.2971 11.681 20.7679
384 1 -1.1104 9.41693 3.35083 17.7956
358 2 2.2208 8.08682 4.68832 13.5913
368 1 -1.1104 12.1597 3.46837 17.8958
338 1 -1.1104 6.62809 3.47338 15.1758
492 2 2.2208 10.8551 10.4321 27.5792
360 2 2.2208 10.761 4.82105 16.5698
361 2 2.2208 10.8515 10.3128 16.3879
362 1 -1.1104 12.082 6.29572 17.8214
363 1 -1.1104 12.1703 11.7784 17.9534
364 1 -1.1104 12.3295 6.1088 15.0885
366 1 -1.1104 12.3696 11.6723 15.0308
369 1 -1.1104 12.2796 9.03806 17.7513
370 2 2.2208 10.695 7.59077 19.2507
371 1 -1.1104 12.3163 3.35836 15.1193
373 1 -1.1104 12.2611 9.07017 14.9573
375 1 -1.1104 9.3624 6.13767 17.871
376 1 -1.1104 9.41539 11.8773 17.7508
377 2 2.2208 7.96567 4.75763 19.3232
378 2 2.2208 8.14298 10.4328 19.3063
379 1 -1.1104 9.64431 6.22487 15.1349
381 1 -1.1104 9.35668 11.7539 15.0068
383 2 2.2208 7.97107 7.51175 16.5291
385 1 -1.1104 9.60269 9.06024 17.8536
386 1 -1.1104 9.36624 3.36809 14.9758
388 1 -1.1104 9.39857 8.98036 15.0923
374 1 -1.1104 12.1679 9.05184 20.5369
339 1 -1.1104 6.61808 3.53607 20.7809
328 1 -1.1104 6.65903 11.643 20.58
372 1 -1.1104 12.3596 3.46366 20.871
382 1 -1.1104 9.57731 11.7699 20.7621
387 1 -1.1104 9.32426 3.39564 20.6617
365 1 -1.1104 12.1824 6.42196 20.6115
391 2 2.2208 5.23551 -0.745651 -0.206018
419 2 2.2208 2.44586 -6.37902 24.9686
488 2 2.2208 7.97911 4.76037 25.0026
13124 2 2.2208 -0.400508 2.01555 24.8268
390 2 2.2208 13.6304 4.78758 13.7143
13104 2 2.2208 -0.430401 -0.849983 22.1249
497 1 -1.1104 12.3124 9.08235 23.2604
13158 2 2.2208 -0.290324 4.91433 27.795
262 1 -1.1104 1.07703 -2.21291 20.6701
394 2 2.2208 5.1571 -0.75682 22.2028
395 1 -1.1104 1.01161 -4.96099 23.4837
396 1 -1.1104 0.982895 0.556621 23.5134
399 1 -1.1104 1.03725 -5.00718 26.3926
400 1 -1.1104 0.97192 0.509229 26.3338
403 1 -1.1104 1.1503 -2.18235 23.6529
404 2 2.2208 5.34468 -3.64427 24.8481
405 2 2.2208 5.19074 2.07074 24.9949
406 1 -1.1104 1.23195 -2.17955 26.3187
408 1 -1.1104 3.86162 -5.00713 23.4285
409 1 -1.1104 3.79931 0.583386 23.6154
410 2 2.2208 2.47157 -0.815547 24.9419
411 1 -1.1104 3.87744 -4.97957 26.3826
412 1 -1.1104 3.7179 0.666609 26.5299
413 2 2.2208 2.34338 -3.67029 22.0185
414 2 2.2208 2.37195 2.00938 22.0269
415 1 -1.1104 3.89362 -2.28971 23.4819
416 1 -1.1104 4.01577 -2.12149 26.4358
417 2 2.2208 -0.3934 -6.34702 22.1799
12699 2 2.2208 -0.279136 -6.38811 5.24269
423 2 2.2208 8.12421 1.88404 -0.162452
487 2 2.2208 7.92875 10.3842 24.8683
287 1 -1.1104 12.1621 -4.94448 20.7625
294 1 -1.1104 12.1345 -2.18999 20.816
306 1 -1.1104 9.34427 -2.20903 20.5883
424 1 -1.1104 6.68914 -2.08243 23.4002
398 1 -1.1104 6.57451 0.730154 23.4653
402 1 -1.1104 6.5923 0.551624 26.3719
401 1 -1.1104 6.63938 -4.98517 26.2359
422 2 2.2208 8.0002 -3.62754 27.7301
407 1 -1.1104 6.63113 -2.19448 26.3028
282 1 -1.1104 6.69263 -2.17329 20.5883
466 1 -1.1104 6.56409 6.14809 23.6402
397 1 -1.1104 6.76404 -4.98295 23.429
425 2 2.2208 10.8719 -0.745607 22.2172
426 1 -1.1104 12.1074 -4.95755 23.4993
427 1 -1.1104 12.3946 0.667827 23.4291
428 1 -1.1104 12.149 -5.07817 26.4455
429 1 -1.1104 12.2785 0.5632 26.2051
430 1 -1.1104 12.1689 -2.23001 23.6162
431 2 2.2208 10.6808 -3.58901 24.9046
432 2 2.2208 10.8597 2.11617 25.0096
433 1 -1.1104 12.1475 -2.26986 26.3266
434 1 -1.1104 9.48104 -5.11836 23.3811
435 1 -1.1104 9.43851 0.588554 23.5957
436 2 2.2208 7.9429 -0.787917 24.9442
437 1 -1.1104 9.45546 -5.07393 26.3777
438 1 -1.1104 9.61071 0.699941 26.509
439 2 2.2208 8.00474 -3.56927 22.0116
440 2 2.2208 7.93004 1.96913 22.1495
441 1 -1.1104 9.41422 -2.16717 23.4654
442 1 -1.1104 9.27364 -2.21362 26.2709
458 1 -1.1104 6.69717 11.8743 26.3534
47 2 2.2208 11.031 -6.38368 5.21369
451 1 -1.1104 6.78344 8.99154 23.5048
13192 2 2.2208 -0.333169 4.81115 22.1286
335 1 -1.1104 1.13511 3.46576 20.4961
324 1 -1.1104 1.14091 11.8836 20.6833
337 1 -1.1104 1.12886 8.87928 20.526
349 1 -1.1104 3.99336 11.9001 20.746
322 1 -1.1104 1.0028 6.23216 20.7758
326 1 -1.1104 6.50709 6.12391 20.8187
356 1 -1.1104 3.85523 9.10991 20.76
454 2 2.2208 5.21042 10.5149 27.7334
354 1 -1.1104 3.83976 3.38446 20.662
452 1 -1.1104 6.6034 3.31647 23.7216
469 1 -1.1104 3.82026 3.41695 23.6199
448 1 -1.1104 1.06788 3.30288 26.1944
457 1 -1.1104 1.01714 3.31875 23.3836
464 1 -1.1104 3.80119 3.36563 26.3677
447 1 -1.1104 1.027 8.98774 26.3777
449 2 2.2208 5.13006 7.68906 24.8852
456 1 -1.1104 0.989648 8.90091 23.4364
460 1 -1.1104 1.15046 11.8258 26.3554
461 1 -1.1104 1.05698 6.14192 26.4108
462 1 -1.1104 3.8904 9.18191 26.2788
465 1 -1.1104 3.94093 9.02498 23.4124
467 1 -1.1104 1.04142 11.8198 23.4811
468 1 -1.1104 1.07712 6.12178 23.4881
470 2 2.2208 2.47589 7.55828 22.0773
471 1 -1.1104 3.85684 11.9122 26.4136
472 1 -1.1104 3.75804 6.26002 26.3866
473 2 2.2208 2.40804 10.4826 24.7275
474 2 2.2208 5.27758 10.4672 22.0224
475 2 2.2208 2.41554 4.79089 24.9715
476 1 -1.1104 3.8629 11.7777 23.5212
477 2 2.2208 5.14366 4.74608 22.1973
479 1 -1.1104 3.81845 6.14927 23.4718
478 1 -1.1104 6.5801 8.87752 26.2854
493 2 2.2208 7.87839 7.69127 27.6836
489 1 -1.1104 9.51686 11.7684 23.5128
502 1 -1.1104 12.1367 6.25419 23.3631
490 1 -1.1104 9.47199 6.12398 23.5484
494 1 -1.1104 12.1559 9.14023 26.076
495 1 -1.1104 12.2702 3.30493 26.3988
496 2 2.2208 10.8612 7.48555 24.7966
483 1 -1.1104 9.45385 3.39372 23.4737
503 2 2.2208 10.9302 10.3735 22.1629
484 2 2.2208 8.0562 7.56097 22.0796
504 2 2.2208 10.765 4.9429 22.0514
480 1 -1.1104 9.19642 8.94471 26.4545
491 2 2.2208 10.6766 4.77614 27.7154
501 1 -1.1104 12.2696 11.7941 23.5519
481 1 -1.1104 9.45417 3.40504 26.4241
485 1 -1.1104 9.47635 11.7773 26.3337
482 1 -1.1104 9.45145 8.91682 23.537
486 1 -1.1104 9.45177 6.15172 26.3296
445 2 2.2208 8.17726 -6.46414 24.8053
446 2 2.2208 10.9266 -6.37553 22.0209
168 2 2.2208 7.98362 -6.39012 7.98787
276 2 2.2208 2.48653 -6.31508 13.8537
26 2 2.2208 5.30174 -6.36822 5.16464
13127 2 2.2208 -0.41869 -6.35332 27.7085
12977 2 2.2208 -0.416945 -6.28684 16.5146
507 2 2.2208 5.2205 16.0611 5.2435
508 2 2.2208 5.32518 21.5315 5.22658
509 1 -1.1104 1.15943 17.42 1.05957
511 1 -1.1104 1.01059 17.1791 3.84627
513 1 -1.1104 1.00597 14.5186 1.14846
514 1 -1.1104 0.915498 20.2167 1.08374
517 2 2.2208 5.25488 13.231 2.52824
518 2 2.2208 5.34014 18.8042 2.32329
519 1 -1.1104 1.18456 14.4015 3.99344
520 1 -1.1104 1.13405 20.0671 4.07829
523 1 -1.1104 3.79991 17.4859 1.12195
524 2 2.2208 2.47667 15.9583 2.51883
525 2 2.2208 2.43897 21.582 2.5777
526 1 -1.1104 3.73206 17.272 3.92748
527 2 2.2208 2.56123 13.0904 5.29951
528 2 2.2208 2.39846 18.6163 5.32496
529 1 -1.1104 3.87721 14.7685 0.930106
530 1 -1.1104 3.81271 20.2617 1.02888
531 1 -1.1104 3.98445 14.6071 3.78979
532 1 -1.1104 3.99757 20.1326 3.75934
609 1 -1.1104 1.1946 14.388 6.80657
610 1 -1.1104 0.900243 20.0956 6.84204
615 1 -1.1104 3.80404 20.0336 6.68685
612 1 -1.1104 6.60432 20.0618 6.60589
891 2 2.2208 2.42304 18.7532 27.75
607 1 -1.1104 1.15137 17.1235 6.58171
613 1 -1.1104 3.81631 17.4162 6.66869
13245 2 2.2208 -0.349758 13.1812 2.46916
13243 2 2.2208 -0.250642 15.8173 5.36196
13244 2 2.2208 -0.44361 21.5593 5.41177
512 1 -1.1104 6.72605 17.5129 3.908
516 1 -1.1104 6.72921 20.2232 0.896568
522 1 -1.1104 6.76271 20.19 3.8342
608 1 -1.1104 6.66177 17.2528 6.66652
510 1 -1.1104 6.68773 17.3913 1.16233
521 1 -1.1104 6.72913 14.7379 3.8313
611 1 -1.1104 6.74359 14.5957 6.55096
515 1 -1.1104 6.66506 14.5084 1.08875
533 2 2.2208 10.8089 16.0013 5.24911
534 2 2.2208 10.9038 21.5344 5.2536
535 1 -1.1104 12.1573 17.3677 0.997115
536 1 -1.1104 12.202 17.3403 3.71976
537 1 -1.1104 12.1412 14.511 0.935219
538 1 -1.1104 12.0643 20.1253 1.03973
539 2 2.2208 10.9173 13.1824 2.53759
540 2 2.2208 10.7215 18.7961 2.38534
541 1 -1.1104 12.1649 14.4942 3.95233
542 1 -1.1104 12.3649 20.1512 3.87784
543 1 -1.1104 9.2673 17.252 0.826222
544 2 2.2208 8.09101 15.9125 2.35578
545 2 2.2208 8.01743 21.6971 2.37706
546 1 -1.1104 9.46041 17.4581 3.83383
547 2 2.2208 8.16786 13.3004 5.33013
548 2 2.2208 8.0904 18.7885 5.23712
549 1 -1.1104 9.49488 14.5369 1.05969
550 1 -1.1104 9.27682 20.0673 1.12286
551 1 -1.1104 9.37121 14.5747 3.93392
552 1 -1.1104 9.5923 20.3084 3.80902
642 1 -1.1104 12.3899 17.3523 6.50996
643 1 -1.1104 12.3079 14.4682 6.65892
645 1 -1.1104 9.50787 17.4462 6.61412
646 1 -1.1104 9.54733 14.6899 6.84911
644 1 -1.1104 12.2492 20.2738 6.74129
647 1 -1.1104 9.39354 20.2125 6.57482
553 2 2.2208 5.38714 27.067 5.30481
554 1 -1.1104 1.02298 23.0572 1.11353
555 1 -1.1104 0.984315 28.5443 1.26673
558 1 -1.1104 1.13866 22.9802 3.94912
559 1 -1.1104 1.1332 28.6359 4.08785
562 1 -1.1104 0.93126 25.7797 1.09056
563 1 -1.1104 1.02132 31.3145 1.00165
566 2 2.2208 5.29738 24.4579 2.44556
567 2 2.2208 5.37665 29.9869 2.569
568 1 -1.1104 0.930595 25.8683 3.87632
569 1 -1.1104 1.19633 31.357 3.68288
572 1 -1.1104 3.82648 23.1486 1.14212
573 1 -1.1104 3.7538 28.5891 1.16187
574 2 2.2208 2.41951 27.113 2.5919
575 1 -1.1104 3.96077 22.8622 3.87717
576 1 -1.1104 3.90337 28.7044 3.98821
577 2 2.2208 2.536 24.2179 5.37171
579 2 2.2208 2.56454 29.925 5.3402
580 1 -1.1104 3.71471 25.8612 1.12316
581 1 -1.1104 3.95114 31.4615 1.11989
582 1 -1.1104 3.83939 25.7573 3.83591
583 1 -1.1104 4.01332 31.4282 3.91003
668 1 -1.1104 1.00668 22.7607 6.80412
561 1 -1.1104 6.7896 28.5945 3.87854
578 2 2.2208 2.41709 29.8213 27.7968
669 1 -1.1104 1.06013 28.4784 6.69496
673 1 -1.1104 1.19389 31.4275 6.60487
677 1 -1.1104 3.9016 28.4909 6.6224
678 1 -1.1104 3.95881 25.6802 6.49208
942 2 2.2208 5.08703 27.1802 -0.266464
13306 2 2.2208 -0.295638 24.3239 2.52754
13305 2 2.2208 -0.309322 27.1452 5.38956
13307 2 2.2208 -0.397317 29.8816 2.63817
556 1 -1.1104 6.70221 23.0977 1.00937
560 1 -1.1104 6.71195 22.9802 3.9417
557 1 -1.1104 6.60207 28.5186 1.10289
564 1 -1.1104 6.64495 25.8614 1.05926
565 1 -1.1104 6.77126 31.3064 1.08311
570 1 -1.1104 6.66913 25.8515 3.73851
671 1 -1.1104 6.91188 28.4872 6.70889
674 1 -1.1104 6.57921 25.5821 6.58997
976 1 -1.1104 9.47245 31.5327 23.5798
571 1 -1.1104 6.82412 31.3952 3.94521
584 2 2.2208 10.9566 27.1861 5.14947
585 1 -1.1104 12.1635 22.8092 0.992956
586 1 -1.1104 12.3844 28.5329 0.976982
587 1 -1.1104 12.1394 22.8561 3.89952
588 1 -1.1104 12.3764 28.5362 3.75024
589 1 -1.1104 12.1651 25.7336 0.967719
590 1 -1.1104 12.2354 31.2704 1.22381
591 2 2.2208 10.8592 24.4116 2.33059
592 2 2.2208 10.9137 29.9184 2.4571
593 1 -1.1104 12.2086 25.7664 3.78048
594 1 -1.1104 12.3408 31.3448 3.79262
595 1 -1.1104 9.48196 23.0273 0.971595
596 1 -1.1104 9.52131 28.6794 0.985192
597 2 2.2208 8.08944 27.2037 2.41604
598 1 -1.1104 9.46502 22.9314 3.77411
599 1 -1.1104 9.61505 28.4672 3.78105
600 2 2.2208 8.08583 24.2947 5.205
602 2 2.2208 8.20869 29.9148 5.29142
603 1 -1.1104 9.44517 25.79 0.978187
604 1 -1.1104 9.64586 31.3349 1.05564
605 1 -1.1104 9.4444 25.7889 3.72198
606 1 -1.1104 9.6309 31.2919 3.86988
716 1 -1.1104 9.42751 22.9553 6.66447
718 1 -1.1104 9.41578 25.7288 6.75829
714 1 -1.1104 12.295 25.8472 6.55435
984 2 2.2208 10.8195 27.1318 27.7038
670 1 -1.1104 6.61275 22.8557 6.77637
712 1 -1.1104 12.2305 22.9859 6.7596
713 1 -1.1104 12.4009 28.5762 6.6664
717 1 -1.1104 9.65849 28.5264 6.55353
719 1 -1.1104 9.57914 31.4449 6.60349
715 1 -1.1104 12.3838 31.2801 6.68769
601 2 2.2208 8.05978 30.089 -0.449936
614 1 -1.1104 4.0428 14.4851 6.73595
616 2 2.2208 5.269 15.8568 10.9317
617 2 2.2208 5.32014 21.6062 10.7659
618 1 -1.1104 0.936003 17.2941 12.2421
619 1 -1.1104 6.64667 17.4441 12.2505
620 1 -1.1104 1.11279 17.2144 9.48081
622 1 -1.1104 0.933729 14.5881 12.3066
623 1 -1.1104 1.11927 20.0135 12.3086
626 2 2.2208 5.33163 13.1435 8.0527
627 2 2.2208 5.29721 18.6985 8.07007
628 1 -1.1104 0.894447 14.3648 9.58825
629 1 -1.1104 0.958551 20.2399 9.55941
632 1 -1.1104 3.85708 17.167 12.2644
633 2 2.2208 2.55792 15.9002 8.10654
634 2 2.2208 2.3769 21.5126 8.20071
635 1 -1.1104 3.84277 17.1929 9.47313
636 2 2.2208 2.34074 13.07 10.8661
637 2 2.2208 2.53385 18.7189 10.8267
638 1 -1.1104 3.76126 14.4253 12.2556
639 1 -1.1104 3.81873 20.2107 12.1395
640 1 -1.1104 3.82796 14.452 9.48122
641 1 -1.1104 3.92036 20.0855 9.45331
747 2 2.2208 2.30989 21.521 13.7217
745 2 2.2208 5.20658 18.7717 13.5189
746 2 2.2208 2.34452 16.0387 13.6032
744 2 2.2208 5.17791 13.1594 13.6053
13373 2 2.2208 -0.457513 18.7288 8.19157
975 1 -1.1104 9.36052 25.8578 26.247
13374 2 2.2208 -0.564889 15.918 11.0303
13376 2 2.2208 -0.464306 13.1467 8.04926
13539 2 2.2208 -0.397681 13.1443 13.7512
13538 2 2.2208 -0.460532 18.645 13.7463
621 1 -1.1104 6.64331 17.3127 9.43049
625 1 -1.1104 6.49969 20.2444 12.2541
631 1 -1.1104 6.72958 20.1061 9.32274
624 1 -1.1104 6.58982 14.5601 12.3778
630 1 -1.1104 6.68247 14.5528 9.47171
648 2 2.2208 10.7635 15.9255 10.843
649 2 2.2208 10.7445 21.4923 10.8285
650 1 -1.1104 12.1294 17.3526 12.3213
651 1 -1.1104 12.1534 17.3262 9.33727
652 1 -1.1104 12.1482 14.5104 12.3445
653 1 -1.1104 12.1628 20.1285 12.2202
655 2 2.2208 10.8433 18.6989 7.987
656 1 -1.1104 12.3653 14.4842 9.45356
657 1 -1.1104 12.3088 20.1536 9.40006
658 1 -1.1104 9.46004 17.4386 12.1867
659 2 2.2208 8.08288 15.8277 8.01191
660 2 2.2208 8.08803 21.5337 7.97669
661 1 -1.1104 9.51058 17.3217 9.41038
662 2 2.2208 8.09105 13.1411 10.8758
663 2 2.2208 8.03802 18.6381 10.7417
664 1 -1.1104 9.4436 14.5725 12.1662
665 1 -1.1104 9.30984 20.132 12.1988
666 1 -1.1104 9.40434 14.5368 9.45782
667 1 -1.1104 9.39996 20.1621 9.30923
654 2 2.2208 10.8866 13.1567 8.20792
783 2 2.2208 10.856 13.0141 13.6277
785 2 2.2208 8.05959 15.9038 13.541
786 2 2.2208 8.08772 21.4906 13.6548
974 1 -1.1104 9.54852 31.4564 26.256
672 1 -1.1104 1.24894 25.4579 6.87928
676 1 -1.1104 3.90467 22.8213 6.80324
679 1 -1.1104 4.08753 31.194 6.66983
680 2 2.2208 5.33986 27.1126 10.86
681 1 -1.1104 0.999975 22.9335 12.3313
682 1 -1.1104 1.27816 28.5936 12.3801
685 1 -1.1104 0.986125 22.9589 9.58246
686 1 -1.1104 1.19425 28.6833 9.64935
689 1 -1.1104 0.953945 25.7973 12.4205
690 1 -1.1104 1.02937 31.475 12.312
692 1 -1.1104 6.61907 31.3575 12.2233
693 2 2.2208 5.25757 24.216 8.06417
694 2 2.2208 5.38771 29.909 8.083
696 1 -1.1104 0.999131 25.8317 9.56147
697 1 -1.1104 1.09294 31.3579 9.52691
700 1 -1.1104 3.75397 23.0189 12.2935
701 1 -1.1104 3.87109 28.6475 12.437
702 2 2.2208 2.56378 27.1007 8.04521
704 1 -1.1104 3.83797 22.8074 9.51637
705 1 -1.1104 3.86612 28.6136 9.53552
706 2 2.2208 2.42109 24.3066 10.9378
707 2 2.2208 2.54609 30.0395 11.0223
708 1 -1.1104 3.66913 25.846 12.1859
709 1 -1.1104 3.74615 31.4494 12.2675
710 1 -1.1104 3.90938 25.8386 9.36904
711 1 -1.1104 3.87969 31.4436 9.50977
684 1 -1.1104 6.69916 28.4618 12.2872
687 1 -1.1104 6.70357 22.9662 9.5777
683 1 -1.1104 6.74349 23.0832 12.3433
703 2 2.2208 2.46936 27.1257 13.6907
13457 2 2.2208 -0.193486 29.905 8.06464
13458 2 2.2208 -0.377351 24.4034 8.26095
13459 2 2.2208 -0.301873 27.1902 10.8795
675 1 -1.1104 6.80089 31.2963 6.75175
688 1 -1.1104 6.69497 28.566 9.41744
691 1 -1.1104 6.69613 25.8051 12.1709
698 1 -1.1104 6.79913 25.7248 9.4245
699 1 -1.1104 6.67833 31.368 9.55814
720 2 2.2208 10.9798 27.2279 11.0024
721 1 -1.1104 12.2924 22.8783 12.2239
722 1 -1.1104 12.2067 28.5964 12.4154
723 1 -1.1104 12.3251 22.9142 9.48816
724 1 -1.1104 12.3516 28.3935 9.35846
725 1 -1.1104 12.2631 25.6741 12.1628
726 1 -1.1104 12.3643 31.2679 12.2957
727 2 2.2208 10.9903 24.4266 8.02999
728 2 2.2208 11.0724 29.9474 8.07785
730 1 -1.1104 12.4969 25.862 9.51236
731 1 -1.1104 12.5018 31.3267 9.47305
732 1 -1.1104 9.59539 22.9289 12.1698
733 1 -1.1104 9.46616 28.6843 12.3603
734 2 2.2208 8.25372 27.1983 8.09699
736 1 -1.1104 9.45281 23.0559 9.39798
737 1 -1.1104 9.5048 28.6273 9.44292
738 2 2.2208 8.20696 24.4562 10.814
739 2 2.2208 8.00609 29.9054 10.8611
740 1 -1.1104 9.45126 25.8058 12.286
741 1 -1.1104 9.59879 31.4235 12.2724
742 1 -1.1104 9.73272 25.8734 9.4983
743 1 -1.1104 9.54741 31.2346 9.60911
986 1 -1.1104 9.35217 23.0274 23.3869
729 2 2.2208 10.7857 29.9647 13.7006
857 2 2.2208 10.8732 24.2922 13.5316
748 2 2.2208 5.20243 15.9632 16.3546
749 2 2.2208 5.31407 21.6387 16.4751
750 1 -1.1104 1.03476 17.5549 17.9915
752 1 -1.1104 0.960276 17.316 15.0943
756 1 -1.1104 1.10326 14.4999 17.8057
757 1 -1.1104 0.850606 20.1681 17.9142
760 2 2.2208 5.41763 13.1705 19.1861