ITEM: TIMESTEP
30000
ITEM: NUMBER OF ATOMS
27000
ITEM: BOX BOUNDS pp pp pp
-3.5978232971973040e-01 2.7699782329720030e+01
-6.2240913836080951e+00 4.9834409138361661e+02
-3.5805454110569490e-01 2.7698054541105584e+01
ITEM: ATOMS id type q x y z
1 2 2.2208 5.23181 -0.751231 5.3022
2 1 -1.1104 0.936798 -4.81878 0.948355
3 1 -1.1104 1.10559 0.601908 1.04345
6 1 -1.1104 1.12487 -4.93045 3.88366
7 1 -1.1104 0.98429 0.747053 3.71777
10 1 -1.1104 1.20772 -2.17722 1.08171
12 2 2.2208 5.24613 -3.53157 2.369
13 2 2.2208 5.22133 2.09526 2.52948
14 1 -1.1104 0.861059 -2.12424 3.79122
16 1 -1.1104 3.88972 -4.93176 0.972151
17 1 -1.1104 4.08765 0.741971 1.05645
18 2 2.2208 2.46738 -0.798495 2.46461
19 1 -1.1104 3.9183 -5.08099 3.77677
20 1 -1.1104 3.83095 0.445134 4.01219
21 2 2.2208 2.38277 -3.57045 5.26602
22 2 2.2208 2.41383 1.95014 5.23685
23 1 -1.1104 3.90678 -2.09177 1.13348
24 1 -1.1104 3.72518 -2.36545 3.81675
110 1 -1.1104 3.90634 -2.22615 6.59965
108 1 -1.1104 3.74352 -4.85918 6.50717
103 1 -1.1104 1.01827 0.50391 6.57092
109 1 -1.1104 3.89948 0.713294 6.74116
106 1 -1.1104 1.0976 -2.2895 6.50449
459 1 -1.1104 6.68774 6.36071 26.2955
102 1 -1.1104 0.896935 -5.12994 6.67016
5 1 -1.1104 6.66878 0.715038 1.15429
75 1 -1.1104 3.91334 3.53095 0.986556
64 1 -1.1104 1.04843 3.59395 3.79218
77 1 -1.1104 3.75175 3.45148 3.88991
59 1 -1.1104 1.28563 3.60379 0.990495
175 1 -1.1104 1.05117 3.39684 6.62176
12946 2 2.2208 -0.456199 2.06741 19.3758
13015 2 2.2208 13.5166 10.5534 13.5753
393 2 2.2208 2.37834 2.03333 27.6395
390 2 2.2208 13.6192 4.83276 13.659
11 1 -1.1104 6.69939 -2.03638 1.16254
4 1 -1.1104 6.78565 -4.88746 1.08761
9 1 -1.1104 6.61877 0.833165 3.83478
8 1 -1.1104 6.69454 -4.96541 3.65764
15 1 -1.1104 6.61286 -2.11566 3.88402
104 1 -1.1104 6.59101 -4.90889 6.47116
27 2 2.2208 10.8502 -0.748949 5.25989
28 1 -1.1104 12.2578 -4.89822 0.948047
29 1 -1.1104 12.3315 0.66783 1.12122
30 1 -1.1104 12.1547 -5.08182 3.76764
31 1 -1.1104 12.091 0.6749 3.79683
32 1 -1.1104 12.2505 -2.15031 1.08709
33 2 2.2208 10.7487 -3.48269 2.4572
34 2 2.2208 10.9646 2.15609 2.34791
35 1 -1.1104 12.2825 -2.17921 3.92873
36 1 -1.1104 9.43294 -4.83081 1.2183
37 1 -1.1104 9.66527 0.782397 1.15073
38 2 2.2208 8.01149 -0.579986 2.46097
39 1 -1.1104 9.37873 -5.06639 3.95312
40 1 -1.1104 9.32357 0.633505 4.02387
41 2 2.2208 8.02203 -3.51531 5.18135
42 2 2.2208 8.02894 2.12032 5.26177
43 1 -1.1104 9.4406 -1.85992 1.15742
44 1 -1.1104 9.45248 -2.17776 3.99299
142 1 -1.1104 9.32037 -4.83733 6.69668
140 1 -1.1104 12.1241 0.710645 6.54971
144 1 -1.1104 9.57656 -1.94743 6.76698
66 1 -1.1104 6.54512 3.55722 3.89612
61 1 -1.1104 6.77384 3.48932 0.95549
99 1 -1.1104 9.42758 3.4787 3.77328
88 1 -1.1104 12.2455 3.5486 3.79602
107 1 -1.1104 6.73652 -2.08167 6.67286
143 1 -1.1104 9.40474 0.748987 6.64267
423 2 2.2208 8.16426 2.03063 -0.290579
422 2 2.2208 8.10847 -3.48027 -0.299815
49 2 2.2208 5.21415 4.80363 5.29827
50 2 2.2208 5.16449 10.4692 5.25118
51 1 -1.1104 0.868483 6.32092 0.899055
52 1 -1.1104 0.919242 11.9205 1.00787
55 1 -1.1104 0.937717 6.38094 3.80858
56 1 -1.1104 1.05043 11.7678 3.80993
60 1 -1.1104 0.869946 9.11573 0.883682
63 2 2.2208 5.1449 7.57269 2.37468
65 1 -1.1104 1.20319 8.97451 3.71601
68 1 -1.1104 3.80696 6.14589 0.920059
69 1 -1.1104 3.65117 11.9212 0.996319
70 2 2.2208 2.4497 4.92031 2.36272
71 2 2.2208 2.45434 10.461 2.38115
72 1 -1.1104 3.78084 6.35926 3.92448
73 1 -1.1104 3.63869 12.0457 3.77155
74 2 2.2208 2.2926 7.74505 5.41386
76 1 -1.1104 3.59317 9.02458 0.986617
78 1 -1.1104 3.73926 9.12586 3.88006
172 1 -1.1104 0.897262 11.7836 6.65818
179 1 -1.1104 3.76374 6.32766 6.83686
176 1 -1.1104 0.696567 9.06007 6.73626
171 1 -1.1104 0.988965 6.19006 6.71665
453 2 2.2208 5.19186 4.90424 -0.445058
492 2 2.2208 10.8616 10.4799 27.6828
57 1 -1.1104 6.66466 6.26864 3.83406
178 1 -1.1104 6.55112 9.10388 6.68527
182 1 -1.1104 3.73285 8.98027 6.84883
13155 2 2.2208 13.7421 10.5475 24.8684
85 1 -1.1104 12.2573 3.61259 0.936388
54 1 -1.1104 6.42485 11.803 1.00798
67 1 -1.1104 6.48093 9.16358 3.80637
53 1 -1.1104 6.57061 6.23379 0.968947
62 1 -1.1104 6.57215 9.04027 1.08589
58 1 -1.1104 6.60087 11.8718 3.81777
174 1 -1.1104 6.5819 11.8866 6.67798
97 1 -1.1104 9.53992 3.45854 0.976714
79 2 2.2208 10.8787 4.85501 5.34735
80 2 2.2208 10.6885 10.6085 5.22442
81 1 -1.1104 12.2542 6.37883 1.14306
82 1 -1.1104 12.0067 11.9341 1.0684
83 1 -1.1104 12.1462 6.33659 3.81212
84 1 -1.1104 12.2545 12.0547 3.84701
86 1 -1.1104 12.2168 9.08758 1.08502
87 2 2.2208 10.8062 7.73283 2.53658
89 1 -1.1104 12.0977 9.16591 3.98841
90 1 -1.1104 9.34857 6.26719 1.16859
91 1 -1.1104 9.24129 12.0347 1.11604
92 2 2.2208 8.08513 4.89455 2.33042
93 2 2.2208 7.87369 10.5555 2.4009
94 1 -1.1104 9.45314 6.43509 3.90248
95 1 -1.1104 9.45159 11.9194 3.95264
96 2 2.2208 7.92328 7.78422 5.12793
98 1 -1.1104 9.37038 9.04391 1.09466
100 1 -1.1104 9.35352 9.30321 3.87721
214 1 -1.1104 12.1329 11.714 6.61055
213 1 -1.1104 12.1067 6.17488 6.75874
218 1 -1.1104 9.24604 12.0669 6.78106
244 2 2.2208 13.5407 4.89392 8.06924
165 2 2.2208 13.704 -0.723074 8.11215
243 2 2.2208 13.4779 7.72857 10.8579
181 1 -1.1104 3.76842 3.51432 6.69503
111 2 2.2208 5.12618 -0.803333 10.821
112 1 -1.1104 1.13834 -4.93118 12.2819
113 1 -1.1104 1.05101 0.595273 12.2557
116 1 -1.1104 1.22702 -4.94286 9.376
117 1 -1.1104 1.0621 0.54422 9.49452
120 1 -1.1104 1.05348 -2.17748 12.2157
122 2 2.2208 5.26901 -3.4957 7.98224
124 2 2.2208 5.36107 2.16991 8.10833
125 1 -1.1104 0.908677 -2.08268 9.28912
127 1 -1.1104 4.03874 -4.97294 12.0661
128 1 -1.1104 3.81867 0.622636 12.2556
129 2 2.2208 2.56203 -0.791753 8.05023
131 1 -1.1104 4.0148 -5.01304 9.34338
132 1 -1.1104 3.97231 0.559146 9.45718
133 2 2.2208 2.56147 -3.58828 10.767
134 2 2.2208 2.36719 2.04363 10.8845
135 1 -1.1104 3.79433 -2.21277 12.1527
136 1 -1.1104 3.7741 -2.15863 9.43936
123 2 2.2208 5.38214 -3.49377 13.6394
130 2 2.2208 2.46042 -0.730816 13.6029
245 2 2.2208 5.23874 2.16807 13.6333
45 2 2.2208 13.5082 2.0173 5.29276
12866 2 2.2208 13.6506 10.434 8.05019
118 1 -1.1104 6.74155 -4.81708 9.29129
121 1 -1.1104 6.45967 -2.05607 12.2681
126 1 -1.1104 6.79424 -2.10866 9.51843
198 1 -1.1104 1.00375 3.32052 9.36037
193 1 -1.1104 1.04259 3.54752 12.1911
209 1 -1.1104 3.70924 3.41242 12.2497
105 1 -1.1104 6.65929 0.629117 6.72137
141 1 -1.1104 12.3805 -2.13119 6.77438
177 1 -1.1104 6.6895 3.4562 6.63055
119 1 -1.1104 6.78504 0.602136 9.65945
482 1 -1.1104 9.43252 9.16713 23.4671
139 1 -1.1104 12.1871 -4.84357 6.53948
114 1 -1.1104 6.73514 -4.90519 12.094
115 1 -1.1104 6.55403 0.6765 12.3418
145 2 2.2208 10.8394 -0.726211 10.919
146 1 -1.1104 12.3436 -4.98078 12.3321
147 1 -1.1104 12.2307 0.697308 12.1689
148 1 -1.1104 12.3128 -5.09215 9.48334
149 1 -1.1104 12.3204 0.680438 9.33007
150 1 -1.1104 12.281 -2.14425 12.2935
151 2 2.2208 10.9393 -3.64058 8.0621
153 2 2.2208 10.8054 2.05033 8.08971
154 1 -1.1104 12.3349 -2.22581 9.5687
155 1 -1.1104 9.49062 -4.82251 12.2197
156 1 -1.1104 9.30414 0.502683 12.3394
157 2 2.2208 8.13295 -0.720351 8.14435
159 1 -1.1104 9.64618 -4.94585 9.44117
160 1 -1.1104 9.61215 0.855534 9.50411
161 2 2.2208 8.16863 -3.56509 10.7445
162 2 2.2208 7.94811 2.07619 10.9297
163 1 -1.1104 9.48019 -2.19516 12.3424
164 1 -1.1104 9.57452 -2.2545 9.43697
152 2 2.2208 10.9011 -3.63274 13.5951
158 2 2.2208 7.94943 -0.779382 13.7205
195 1 -1.1104 6.72491 3.56849 12.2913
200 1 -1.1104 6.46102 3.56388 9.52089
241 1 -1.1104 9.24948 3.61912 9.54849
230 1 -1.1104 12.0496 3.36066 9.51991
227 1 -1.1104 12.239 3.45846 12.3333
239 1 -1.1104 9.54376 3.47211 12.2779
180 1 -1.1104 3.73186 11.7686 6.66234
211 1 -1.1104 3.74424 3.54332 9.58004
183 2 2.2208 5.15815 4.94879 10.8935
184 2 2.2208 5.23658 10.455 10.9073
185 1 -1.1104 0.943528 6.26797 12.3508
186 1 -1.1104 1.02206 11.7244 12.2036
189 1 -1.1104 0.891338 6.1793 9.50905
190 1 -1.1104 0.975047 12.0007 9.40449
194 1 -1.1104 0.815248 9.00491 12.3298
197 2 2.2208 5.17931 7.57795 8.14168
199 1 -1.1104 0.903597 9.07088 9.44725
202 1 -1.1104 3.73804 6.20485 12.3827
203 1 -1.1104 3.79569 11.8921 12.3885
204 2 2.2208 2.28332 4.77335 8.16557
205 2 2.2208 2.2875 10.4005 8.0452
206 1 -1.1104 3.79851 6.29419 9.56221
207 1 -1.1104 3.74021 11.8322 9.51857
208 2 2.2208 2.25127 7.50569 10.8757
210 1 -1.1104 3.77094 9.01508 12.4378
212 1 -1.1104 3.82022 9.07761 9.68925
314 2 2.2208 2.39993 10.4332 13.6866
13020 2 2.2208 -0.43906 7.68964 13.6548
188 1 -1.1104 6.58818 11.9592 12.196
312 2 2.2208 5.21982 7.69921 13.7631
497 1 -1.1104 12.2 9.18688 23.3669
502 1 -1.1104 12.4259 6.28627 23.4105
486 1 -1.1104 9.51686 6.34026 26.4204
220 1 -1.1104 9.36065 9.23879 6.82603
215 1 -1.1104 12.1856 3.53875 6.70093
217 1 -1.1104 9.19832 6.56289 6.73751
216 1 -1.1104 12.2676 8.93229 6.64961
192 1 -1.1104 6.60473 11.8554 9.51721
191 1 -1.1104 6.54004 6.24507 9.54512
219 1 -1.1104 9.46424 3.5359 6.82403
196 1 -1.1104 6.66654 9.04454 12.4452
173 1 -1.1104 6.57819 6.20947 6.64527
187 1 -1.1104 6.49935 6.30483 12.3327
201 1 -1.1104 6.49219 8.98516 9.60226
221 2 2.2208 10.7262 4.84883 10.8872
222 2 2.2208 10.6508 10.4574 10.8159
223 1 -1.1104 12.1335 6.33653 12.2964
224 1 -1.1104 12.0668 11.9168 12.3144
225 1 -1.1104 12.2521 6.2036 9.52347
226 1 -1.1104 12.131 11.9532 9.53002
228 1 -1.1104 12.1771 9.16381 12.2878
229 2 2.2208 10.8231 7.69518 8.04021
231 1 -1.1104 12.1732 9.11041 9.41642
232 1 -1.1104 9.21414 6.35597 12.1279
233 1 -1.1104 9.34523 11.9676 12.2817
234 2 2.2208 8.04917 5.01267 8.15382
235 2 2.2208 7.94895 10.5531 7.97775
236 1 -1.1104 9.3955 6.18184 9.43205
237 1 -1.1104 9.40174 11.8612 9.57017
238 2 2.2208 7.94575 7.67736 10.8419
240 1 -1.1104 9.39774 9.24425 12.294
242 1 -1.1104 9.27368 9.03936 9.57652
357 2 2.2208 10.826 7.77263 13.5729
359 2 2.2208 8.02273 10.6871 13.6251
358 2 2.2208 8.01371 4.90741 13.7183
13090 2 2.2208 13.7536 2.01997 22.1089
13192 2 2.2208 -0.317776 4.88282 22.0758
246 2 2.2208 5.42604 -0.691848 16.4645
247 1 -1.1104 0.984096 -4.95369 17.9504
248 1 -1.1104 0.925507 0.641127 18.0897
250 1 -1.1104 0.983277 -5.08972 15.116
252 1 -1.1104 1.01363 0.736414 15.1505
257 1 -1.1104 1.03703 -2.15253 17.9735
259 2 2.2208 5.20494 -3.52799 19.268
260 2 2.2208 5.19508 2.05218 19.3198
261 1 -1.1104 1.0266 -2.06533 15.0471
264 1 -1.1104 3.78269 -4.90635 17.8833
265 1 -1.1104 3.63505 0.695691 17.8402
266 2 2.2208 2.35226 -0.739686 19.2746
267 1 -1.1104 3.85755 -4.95674 14.9548
269 1 -1.1104 3.84892 0.713935 15.0433
271 2 2.2208 2.53 -3.50751 16.3961
272 2 2.2208 2.46745 2.10193 16.5074
273 1 -1.1104 3.83515 -1.99337 17.8251
274 1 -1.1104 3.82955 -2.13905 15.0665
275 1 -1.1104 3.79425 -2.09692 20.6548
270 1 -1.1104 3.72024 0.694054 20.7019
382 1 -1.1104 9.35673 11.9165 20.6803
488 2 2.2208 8.10427 5.03775 24.7822
353 1 -1.1104 3.85455 3.56841 15.1334
262 1 -1.1104 1.01652 -2.38852 20.7033
253 1 -1.1104 0.910305 0.56261 20.7034
279 2 2.2208 10.7154 1.96839 13.641
281 1 -1.1104 6.63529 -4.81941 20.6659
256 1 -1.1104 6.67216 0.66117 20.7013
255 1 -1.1104 6.61831 0.667782 15.0703
258 1 -1.1104 6.69238 -2.08411 17.762
254 1 -1.1104 6.65134 -5.15838 15.1406
263 1 -1.1104 6.658 -2.20513 15.0011
249 1 -1.1104 6.60309 0.746573 17.8334
280 1 -1.1104 6.46416 -4.94771 17.9433
283 2 2.2208 10.8054 -0.740262 16.5686
284 1 -1.1104 12.1947 -4.96382 17.701
285 1 -1.1104 12.1835 0.669244 17.7206
286 1 -1.1104 12.4122 -4.9162 14.9647
288 1 -1.1104 12.2199 0.775062 15.0526
290 1 -1.1104 12.2629 -2.17391 17.874
291 2 2.2208 10.8608 -3.49279 19.1955
292 2 2.2208 10.8597 2.06679 19.1901
293 1 -1.1104 12.1667 -2.11535 15.2005
295 1 -1.1104 9.24526 -4.89377 17.8549
296 1 -1.1104 9.40825 0.772598 17.9227
297 2 2.2208 7.93942 -0.655144 19.3455
298 1 -1.1104 9.4419 -5.02495 14.939
300 1 -1.1104 9.43024 0.693723 15.1136
302 2 2.2208 8.02971 -3.55066 16.5024
303 2 2.2208 7.99553 2.13544 16.4266
304 1 -1.1104 9.47264 -2.1443 17.8867
305 1 -1.1104 9.34089 -2.04769 15.0557
299 1 -1.1104 9.59804 -4.79325 20.6094
282 1 -1.1104 6.60808 -2.17854 20.5382
289 1 -1.1104 12.1865 0.602078 20.5864
331 1 -1.1104 6.45005 3.52295 17.9747
384 1 -1.1104 9.3235 3.6994 17.8026
368 1 -1.1104 12.2949 3.49225 17.9688
371 1 -1.1104 12.2981 3.54141 15.0445
301 1 -1.1104 9.35078 0.70319 20.7761
500 1 -1.1104 12.1914 6.319 26.3259
313 2 2.2208 2.40344 4.81904 13.6328
351 1 -1.1104 3.80573 3.44493 17.9536
334 1 -1.1104 0.948755 3.51223 15.0453
329 1 -1.1104 1.12635 3.39569 17.9116
315 2 2.2208 5.18994 4.89753 16.5456
316 2 2.2208 5.11336 10.4406 16.5744
317 1 -1.1104 0.88911 6.34948 17.8825
318 1 -1.1104 0.960215 11.9463 17.9366
321 1 -1.1104 1.07496 6.3241 15.1525
323 1 -1.1104 1.09846 11.8813 15.0031
330 1 -1.1104 1.12402 9.09411 18.0297
333 2 2.2208 5.22679 7.70004 19.3609
336 1 -1.1104 0.971404 9.07614 15.0743
342 1 -1.1104 3.70764 6.19146 17.9867
343 1 -1.1104 3.82723 11.7705 17.9744
344 2 2.2208 2.36383 4.83688 19.2357
345 2 2.2208 2.43392 10.4745 19.4705
346 1 -1.1104 3.85378 6.288 15.0889
348 1 -1.1104 3.82565 11.8357 15.2021
350 2 2.2208 2.31459 7.60551 16.5526
352 1 -1.1104 3.68364 9.02605 17.9247
355 1 -1.1104 3.84858 9.06148 15.1705
324 1 -1.1104 1.08323 11.8079 20.7651
320 1 -1.1104 6.61449 11.7527 17.9142
337 1 -1.1104 1.05247 9.03237 20.738
332 1 -1.1104 6.58112 8.96978 18.02
349 1 -1.1104 3.73294 11.8633 20.8571
327 1 -1.1104 6.53456 11.8141 15.0444
340 1 -1.1104 6.49519 9.05992 15.0761
325 1 -1.1104 6.60259 6.19936 15.2436
341 1 -1.1104 6.6924 9.00907 20.7571
490 1 -1.1104 9.53047 6.52219 23.4812
356 1 -1.1104 3.92685 9.15524 20.762
478 1 -1.1104 6.6711 9.0972 26.3765
387 1 -1.1104 9.55784 3.43423 20.6068
319 1 -1.1104 6.65073 6.17726 17.897
328 1 -1.1104 6.58358 11.7907 20.7788
338 1 -1.1104 6.61999 3.55129 15.0249
339 1 -1.1104 6.64203 3.52014 20.7477
374 1 -1.1104 12.3042 9.03522 20.6055
389 1 -1.1104 9.47896 9.00222 20.6102
386 1 -1.1104 9.43125 3.40954 15.0874
360 2 2.2208 10.8197 4.90645 16.4669
361 2 2.2208 10.7999 10.4716 16.4161
362 1 -1.1104 12.2194 6.27314 18.0401
363 1 -1.1104 12.3033 12.1063 17.9257
364 1 -1.1104 12.278 6.23317 15.196
366 1 -1.1104 12.0527 12.0173 15.1786
369 1 -1.1104 12.1284 9.17005 17.8726
370 2 2.2208 10.8249 7.65548 19.3259
373 1 -1.1104 12.1404 9.15767 15.0418
375 1 -1.1104 9.46503 6.4688 17.7092
376 1 -1.1104 9.48601 11.8499 18.0199
377 2 2.2208 8.09906 4.97816 19.2115
378 2 2.2208 8.09396 10.4238 19.2851
379 1 -1.1104 9.40882 6.27365 15.0493
381 1 -1.1104 9.36396 11.9364 15.0945
383 2 2.2208 8.02147 7.71227 16.2985
385 1 -1.1104 9.36699 9.14834 17.6165
388 1 -1.1104 9.28268 9.22292 15.043
365 1 -1.1104 12.2805 6.29354 20.7031
380 1 -1.1104 9.4984 6.33255 20.6601
367 1 -1.1104 12.1806 11.9429 20.6208
372 1 -1.1104 12.4028 3.4536 20.7481
268 1 -1.1104 3.74483 -4.89895 20.6016
251 1 -1.1104 0.981167 -4.96817 20.6662
463 1 -1.1104 6.72835 12.0711 23.5479
354 1 -1.1104 3.86418 3.42816 20.7345
392 2 2.2208 2.51149 -3.55227 -0.392203
391 2 2.2208 5.37291 -0.729168 27.7597
394 2 2.2208 5.3222 -0.648232 22.0583
395 1 -1.1104 0.991117 -4.95886 23.4984
396 1 -1.1104 1.15957 0.77566 23.5938
399 1 -1.1104 1.15113 -4.96854 26.3732
400 1 -1.1104 0.834871 0.633486 26.2654
403 1 -1.1104 0.956615 -2.12435 23.4403
404 2 2.2208 5.2774 -3.57992 24.9371
405 2 2.2208 5.29528 2.10153 24.9376
406 1 -1.1104 1.20966 -2.16139 26.1154
408 1 -1.1104 3.93529 -4.9243 23.6224
409 1 -1.1104 4.00227 0.660684 23.4941
410 2 2.2208 2.53673 -0.712353 24.8134
411 1 -1.1104 3.97632 -5.00119 26.2869
412 1 -1.1104 3.71026 0.628215 26.444
413 2 2.2208 2.47449 -3.61433 22.1449
414 2 2.2208 2.37293 2.0608 22.1045
415 1 -1.1104 3.71886 -2.34924 23.5277
416 1 -1.1104 3.97688 -2.14027 26.4354
452 1 -1.1104 6.68659 3.62413 23.4876
335 1 -1.1104 0.958766 3.30807 20.7147
448 1 -1.1104 1.07921 3.44599 26.2814
457 1 -1.1104 0.891416 3.60454 23.5548
464 1 -1.1104 3.87207 3.35839 26.3317
481 1 -1.1104 9.58126 3.55563 26.0176
287 1 -1.1104 12.293 -4.8197 20.5684
306 1 -1.1104 9.44775 -2.11325 20.7083
294 1 -1.1104 12.2828 -2.19337 20.6555
402 1 -1.1104 6.63594 0.617433 26.2978
424 1 -1.1104 6.55818 -1.97604 23.5365
407 1 -1.1104 6.7249 -2.21553 26.2319
421 2 2.2208 10.8553 -0.708093 -0.456448
401 1 -1.1104 6.77529 -4.89098 26.2959
398 1 -1.1104 6.83258 0.804724 23.4833
397 1 -1.1104 6.74067 -4.85547 23.4411
425 2 2.2208 10.9444 -0.726465 22.0644
426 1 -1.1104 12.3755 -4.81384 23.5193
427 1 -1.1104 12.2169 0.704973 23.394
428 1 -1.1104 12.3736 -5.00643 26.2692
429 1 -1.1104 12.0845 0.614143 26.206
430 1 -1.1104 12.2685 -2.03977 23.6771
431 2 2.2208 10.7821 -3.46488 24.9712
432 2 2.2208 10.8536 1.98423 24.8738
433 1 -1.1104 12.3938 -2.13914 26.3308
434 1 -1.1104 9.49785 -4.88806 23.5357
435 1 -1.1104 9.51605 0.727029 23.5097
436 2 2.2208 8.01553 -0.738524 24.8838
437 1 -1.1104 9.5448 -4.78359 26.3503
438 1 -1.1104 9.43914 0.604841 26.3775
439 2 2.2208 8.16712 -3.46585 22.0193
440 2 2.2208 8.02771 2.10236 22.1868
441 1 -1.1104 9.48997 -2.04752 23.4226
442 1 -1.1104 9.42502 -2.14778 26.3486
450 1 -1.1104 6.61084 3.3975 26.3013
483 1 -1.1104 9.38988 3.55372 23.4091
495 1 -1.1104 12.3089 3.56376 26.2396
451 1 -1.1104 6.54808 9.3512 23.6336
455 2 2.2208 2.32217 7.6348 -0.50714
494 1 -1.1104 12.1545 9.13315 26.2805
493 2 2.2208 8.06116 7.70078 -0.320213
322 1 -1.1104 1.09719 6.26369 20.5938
454 2 2.2208 5.15051 10.3678 -0.42885
347 1 -1.1104 3.8354 6.3998 20.8138
458 1 -1.1104 6.68321 11.901 26.2133
469 1 -1.1104 3.72401 3.45913 23.5486
447 1 -1.1104 0.974297 9.0624 26.2773
449 2 2.2208 5.25303 7.73502 24.8895
456 1 -1.1104 0.989884 9.11136 23.6309
460 1 -1.1104 0.956978 11.9972 26.3563
461 1 -1.1104 1.01835 6.34931 26.1225
462 1 -1.1104 3.93329 8.95294 26.4032
465 1 -1.1104 3.74988 9.14866 23.5995
467 1 -1.1104 1.03894 11.836 23.5751
468 1 -1.1104 1.03326 6.23149 23.4562
470 2 2.2208 2.40483 7.70918 22.1793
471 1 -1.1104 3.72857 11.7424 26.2484
472 1 -1.1104 3.76044 6.19587 26.3379
473 2 2.2208 2.3646 10.4528 24.97
474 2 2.2208 5.25454 10.5831 22.1396
475 2 2.2208 2.42521 4.88176 25.0212
476 1 -1.1104 3.91985 11.8106 23.4727
477 2 2.2208 5.24785 4.88436 22.0292
479 1 -1.1104 3.92011 6.31473 23.5247
466 1 -1.1104 6.65479 6.36611 23.4493
326 1 -1.1104 6.69774 6.28868 20.5856
487 2 2.2208 8.10439 10.5467 24.8273
498 1 -1.1104 12.1826 3.43116 23.5167
501 1 -1.1104 12.4073 12.0274 23.4554
485 1 -1.1104 9.50547 11.8886 26.2181
491 2 2.2208 10.8258 4.9364 27.6571
484 2 2.2208 8.03766 7.67362 22.1562
496 2 2.2208 10.784 7.83456 24.9342
503 2 2.2208 10.9035 10.4931 21.8991
504 2 2.2208 10.9946 4.82913 22.0737
499 1 -1.1104 12.2776 11.9585 26.2396
480 1 -1.1104 9.30722 9.03488 26.3547
489 1 -1.1104 9.57494 11.8866 23.4449
12729 2 2.2208 13.5561 7.57933 5.25659
307 2 2.2208 13.7493 -0.628758 19.2749
12829 2 2.2208 -0.272906 -3.63639 13.6054
12797 2 2.2208 -0.412389 -0.731422 10.7831
13092 2 2.2208 13.6589 -0.703702 24.9691
166 2 2.2208 13.6415 -0.716609 13.579
46 2 2.2208 13.735 -0.604447 2.54046
12730 2 2.2208 13.5206 10.6613 2.4479
13104 2 2.2208 -0.374006 -0.829119 22.0284
506 2 2.2208 13.6699 7.66596 -0.199031
12830 2 2.2208 -0.460169 -3.49164 7.9801
12678 2 2.2208 -0.365403 2.15978 2.48332
13014 2 2.2208 13.6363 4.84812 19.3626
13154 2 2.2208 13.6946 7.61809 22.1025
13093 2 2.2208 13.683 -3.52272 -0.204469
12980 2 2.2208 13.5779 10.5429 19.2729
13157 2 2.2208 -0.459925 7.79709 24.8969
920 2 2.2208 7.94112 13.2991 27.6009
912 2 2.2208 2.34171 13.2133 22.1606
775 2 2.2208 2.48334 13.1692 16.502
507 2 2.2208 5.24868 16.2274 5.37884
508 2 2.2208 5.24573 21.7383 5.25555
509 1 -1.1104 0.99342 17.5 1.03218
511 1 -1.1104 1.07896 17.5527 3.87044
513 1 -1.1104 0.865515 14.774 1.01979
514 1 -1.1104 0.982981 20.411 0.981264
518 2 2.2208 5.15729 18.9723 2.39374
519 1 -1.1104 0.992458 14.7352 3.95641
520 1 -1.1104 1.07157 20.3894 3.73597
523 1 -1.1104 3.82264 17.4993 1.03532
524 2 2.2208 2.32445 16.0541 2.43498
525 2 2.2208 2.33719 21.6943 2.49644
526 1 -1.1104 3.83883 17.6629 4.07078
528 2 2.2208 2.41978 18.9773 5.30418
529 1 -1.1104 3.67009 14.6536 0.893934
530 1 -1.1104 3.77613 20.2446 1.10248
531 1 -1.1104 3.74527 14.7058 3.78258
532 1 -1.1104 3.82497 20.3148 3.87674
517 2 2.2208 5.07094 13.3727 2.28621
615 1 -1.1104 3.90373 20.3956 6.85301
527 2 2.2208 2.46056 13.2311 5.30279
607 1 -1.1104 1.04083 17.4864 6.68535
608 1 -1.1104 6.68464 17.5443 6.69034
890 2 2.2208 2.4826 13.2513 -0.443335
13343 2 2.2208 13.5677 16.0621 8.07358
610 1 -1.1104 1.07678 20.344 6.51053
978 2 2.2208 8.02424 30.1136 21.9286
13538 2 2.2208 -0.418528 18.9517 13.5492
976 1 -1.1104 9.42337 31.5178 23.2329
979 2 2.2208 8.02679 24.5032 21.9621
516 1 -1.1104 6.65476 20.1431 1.04883
522 1 -1.1104 6.64378 20.3083 3.91701
512 1 -1.1104 6.67526 17.4436 3.85152
521 1 -1.1104 6.51565 14.5169 3.85662
510 1 -1.1104 6.70349 17.4741 0.891954
515 1 -1.1104 6.53271 14.7233 0.919708
533 2 2.2208 10.779 16.0578 5.2168
534 2 2.2208 10.916 21.6949 5.25625
535 1 -1.1104 12.233 17.4836 1.03069
536 1 -1.1104 12.2149 17.5232 3.96317
537 1 -1.1104 12.1124 14.7409 0.918341
538 1 -1.1104 12.2968 20.3 1.07161
540 2 2.2208 10.9241 18.8442 2.45998
541 1 -1.1104 12.0862 14.6576 3.7899
542 1 -1.1104 12.304 20.2962 3.87324
543 1 -1.1104 9.43796 17.4397 0.926496
544 2 2.2208 8.01651 16.1282 2.38369
545 2 2.2208 8.04654 21.593 2.26876
546 1 -1.1104 9.48285 17.4591 3.78695
547 2 2.2208 7.92415 13.3352 5.21195
548 2 2.2208 8.14048 18.9111 5.18078
549 1 -1.1104 9.36089 14.6184 0.87677
550 1 -1.1104 9.58605 20.4116 0.922382
551 1 -1.1104 9.3043 14.6949 3.73874
552 1 -1.1104 9.4986 20.3845 3.71853
794 2 2.2208 10.769 13.3331 19.2803
644 1 -1.1104 12.1511 20.2305 6.72794
647 1 -1.1104 9.32709 20.3562 6.59353
642 1 -1.1104 12.2043 17.3741 6.58184
646 1 -1.1104 9.44911 14.7225 6.70282
918 2 2.2208 10.783 16.0928 27.6566
921 2 2.2208 8.0629 18.7471 27.662
553 2 2.2208 5.27902 27.4665 5.1819
554 1 -1.1104 1.02708 23.093 1.02183
555 1 -1.1104 0.96371 28.8593 1.03739
558 1 -1.1104 1.01454 23.0839 3.91331
559 1 -1.1104 1.04282 28.8855 3.8451
562 1 -1.1104 1.02136 25.9886 1.09724
563 1 -1.1104 1.22849 31.6587 1.18147
566 2 2.2208 5.12484 24.5232 2.47828
567 2 2.2208 5.19228 30.2339 2.41657
568 1 -1.1104 0.969974 26.0336 3.83124
569 1 -1.1104 0.989464 31.6447 3.95552
572 1 -1.1104 3.69157 23.0301 1.05803
573 1 -1.1104 3.86702 28.725 0.927826
574 2 2.2208 2.4318 27.4841 2.3901
575 1 -1.1104 3.70487 23.0797 3.95681
576 1 -1.1104 3.86589 28.8687 3.83354
577 2 2.2208 2.43657 24.6062 5.28597
579 2 2.2208 2.41992 30.2122 5.27685
580 1 -1.1104 3.93663 26.0201 1.04694
581 1 -1.1104 3.95025 31.5822 1.05852
582 1 -1.1104 3.81036 26.2113 3.89639
583 1 -1.1104 3.99259 31.6411 3.82921
571 1 -1.1104 6.72662 31.5981 3.56287
565 1 -1.1104 6.66067 31.4932 0.806222
561 1 -1.1104 6.70847 28.9029 3.83063
679 1 -1.1104 3.79854 31.6621 6.5675
674 1 -1.1104 6.67126 25.9752 6.54468
539 2 2.2208 10.724 13.2806 2.42132
671 1 -1.1104 6.76809 28.7816 6.70656
668 1 -1.1104 1.12866 23.0673 6.70483
669 1 -1.1104 1.05338 28.703 6.51344
980 1 -1.1104 9.45381 28.7375 26.2227
557 1 -1.1104 6.79156 28.8065 1.01535
560 1 -1.1104 6.62944 23.0666 3.87203
570 1 -1.1104 6.59034 25.9485 3.81331
983 1 -1.1104 9.40974 28.6653 23.3306
556 1 -1.1104 6.51788 23.0986 1.11851
564 1 -1.1104 6.71132 26.0336 0.924654
584 2 2.2208 10.9592 27.3123 5.20796
585 1 -1.1104 12.2585 23.1223 1.05729
586 1 -1.1104 12.2705 28.7423 1.12874
587 1 -1.1104 12.3419 23.0796 3.86842
588 1 -1.1104 12.3976 28.8664 3.89191
589 1 -1.1104 12.1983 25.8765 1.0406
590 1 -1.1104 12.2328 31.4752 1.01108
591 2 2.2208 10.7875 24.4653 2.47995
592 2 2.2208 10.8929 30.0967 2.49731
593 1 -1.1104 12.1487 26.0032 3.771
594 1 -1.1104 12.2104 31.6282 3.92172
595 1 -1.1104 9.31339 23.1625 0.955152
596 1 -1.1104 9.58181 28.733 1.12661
597 2 2.2208 8.06433 27.3705 2.41812
598 1 -1.1104 9.42641 23.0394 3.83428
599 1 -1.1104 9.60817 28.7337 3.89447
600 2 2.2208 8.06307 24.5398 5.25748
602 2 2.2208 8.18727 30.131 5.123
603 1 -1.1104 9.47455 25.9115 1.10028
604 1 -1.1104 9.40623 31.6651 0.96465
605 1 -1.1104 9.50842 25.9329 3.89841
606 1 -1.1104 9.53495 31.6602 3.80262
718 1 -1.1104 9.54516 25.9408 6.75675
717 1 -1.1104 9.53351 28.6788 6.57971
719 1 -1.1104 9.30772 31.5671 6.63787
670 1 -1.1104 6.59739 23.121 6.54823
716 1 -1.1104 9.46619 23.1883 6.68255
714 1 -1.1104 12.3655 25.9718 6.71125
712 1 -1.1104 12.2405 23.1792 6.68818
713 1 -1.1104 12.3615 28.6446 6.578
984 2 2.2208 10.7951 27.351 -0.370651
997 2 2.2208 10.9542 27.4266 22.0336
614 1 -1.1104 3.79691 14.6088 6.66304
805 2 2.2208 7.99349 13.2568 16.636
609 1 -1.1104 1.18794 14.732 6.61835
613 1 -1.1104 3.89257 17.617 6.76483
616 2 2.2208 5.189 16.0051 11.0654
617 2 2.2208 5.4248 21.7173 10.8748
618 1 -1.1104 1.14435 17.449 12.3593
620 1 -1.1104 0.895271 17.4831 9.54672
622 1 -1.1104 0.903973 14.6939 12.3719
623 1 -1.1104 0.928304 20.4619 12.2
627 2 2.2208 5.28043 18.839 8.22969
628 1 -1.1104 1.04713 14.8821 9.65983
629 1 -1.1104 1.10749 20.2274 9.45805
632 1 -1.1104 3.79852 17.5104 12.3665
633 2 2.2208 2.35377 16.2643 8.24574
634 2 2.2208 2.53088 21.7139 8.2208
635 1 -1.1104 3.65223 17.5055 9.52652
636 2 2.2208 2.42207 13.2955 10.843
637 2 2.2208 2.46798 19.0417 11.0204
638 1 -1.1104 3.84119 14.5823 12.4677
639 1 -1.1104 3.85088 20.3836 12.3257
640 1 -1.1104 3.81734 14.7623 9.53389
641 1 -1.1104 3.89705 20.2392 9.71998
624 1 -1.1104 6.69437 14.7456 12.3819
626 2 2.2208 5.14773 13.3441 8.14241
746 2 2.2208 2.40085 16.043 13.8181
936 2 2.2208 8.00806 13.2035 22.1502
745 2 2.2208 5.33535 18.9853 13.6884
783 2 2.2208 10.8017 13.3956 13.7267
744 2 2.2208 5.24176 13.1337 13.7946
611 1 -1.1104 6.58761 14.7675 6.72676
643 1 -1.1104 12.1087 14.6253 6.67732
612 1 -1.1104 6.68429 20.2903 6.64702
645 1 -1.1104 9.27646 17.4224 6.49237
621 1 -1.1104 6.59407 17.5555 9.69325
631 1 -1.1104 6.68176 20.3416 9.50738
630 1 -1.1104 6.54652 14.6991 9.60488
625 1 -1.1104 6.83151 20.4299 12.2173
619 1 -1.1104 6.52078 17.551 12.4939
648 2 2.2208 10.8091 16.1305 10.8179
649 2 2.2208 10.9206 21.8673 10.9149
650 1 -1.1104 12.2183 17.5711 12.2137
651 1 -1.1104 12.1192 17.6459 9.42975
652 1 -1.1104 12.3511 14.8337 12.2685
653 1 -1.1104 12.3023 20.4087 12.3538
655 2 2.2208 10.7242 19.0437 8.02782
656 1 -1.1104 12.1322 14.7617 9.60719
657 1 -1.1104 12.145 20.4276 9.52272
658 1 -1.1104 9.36219 17.4024 12.3656
659 2 2.2208 7.98041 16.1128 8.09042
660 2 2.2208 8.09681 21.8781 8.15521
661 1 -1.1104 9.35868 17.6184 9.34202
662 2 2.2208 7.97268 13.3681 10.8943
663 2 2.2208 8.02137 18.985 10.8642
664 1 -1.1104 9.52926 14.6128 12.0602
665 1 -1.1104 9.61634 20.285 12.2191
666 1 -1.1104 9.34649 14.8267 9.41555
667 1 -1.1104 9.35866 20.3823 9.45272
654 2 2.2208 10.8428 13.1866 8.16061
786 2 2.2208 8.14153 21.7688 13.6784
784 2 2.2208 10.8162 18.9816 13.6991
13494 2 2.2208 13.6805 16.1878 13.6538
988 1 -1.1104 12.2872 25.9332 26.2413
974 1 -1.1104 9.42397 31.4613 26.2509
675 1 -1.1104 6.65941 31.5351 6.51815
672 1 -1.1104 1.022 26.0856 6.63026
677 1 -1.1104 4.00166 28.975 6.6321
678 1 -1.1104 3.80101 26.0994 6.62219
673 1 -1.1104 0.923499 31.4985 6.61757
676 1 -1.1104 3.85929 23.2895 6.70511
680 2 2.2208 5.29962 27.3715 10.7269
681 1 -1.1104 1.04277 23.178 12.1319
682 1 -1.1104 0.98183 28.6784 12.1298
685 1 -1.1104 0.983667 23.0291 9.4664
686 1 -1.1104 0.980838 28.8636 9.42489
689 1 -1.1104 0.988253 25.9621 12.1123
690 1 -1.1104 1.07693 31.6459 12.1641
693 2 2.2208 5.37597 24.5393 8.02139
694 2 2.2208 5.36825 30.1216 8.22293
696 1 -1.1104 0.931472 25.956 9.29142
697 1 -1.1104 1.20256 31.6586 9.43205
700 1 -1.1104 4.01743 23.2012 12.407
701 1 -1.1104 3.82672 28.6707 12.1351
702 2 2.2208 2.45122 27.3379 8.04081
704 1 -1.1104 3.94319 23.0214 9.5886
705 1 -1.1104 3.82009 28.7109 9.45724
706 2 2.2208 2.52717 24.4992 10.8987
707 2 2.2208 2.44064 30.2148 10.851
708 1 -1.1104 3.91148 25.847 12.3272
709 1 -1.1104 3.8254 31.4261 12.3051
710 1 -1.1104 3.92686 25.9332 9.37411
711 1 -1.1104 3.99062 31.6109 9.3398
699 1 -1.1104 6.87695 31.813 9.52925
691 1 -1.1104 6.7601 26.0399 12.0708
703 2 2.2208 2.46647 27.391 13.5415
13620 2 2.2208 -0.281105 27.3226 16.4276
688 1 -1.1104 6.81391 28.8566 9.44492
695 2 2.2208 5.15955 30.1912 13.6723
13749 2 2.2208 -0.314547 24.4935 24.8951
885 1 -1.1104 9.36268 26.003 20.6672
715 1 -1.1104 12.2287 31.5601 6.58251
683 1 -1.1104 6.72544 23.2325 12.4348
698 1 -1.1104 6.77043 26.0455 9.23227
687 1 -1.1104 6.73187 23.2541 9.57524
692 1 -1.1104 6.60829 31.6388 12.2511
684 1 -1.1104 6.64282 28.7321 12.2008
736 1 -1.1104 9.5832 23.2058 9.48715
720 2 2.2208 10.9461 27.4698 10.8364
721 1 -1.1104 12.4024 23.2395 12.3977
722 1 -1.1104 12.2879 28.79 12.3027
723 1 -1.1104 12.393 23.2182 9.64377
724 1 -1.1104 12.2938 28.6972 9.39337
725 1 -1.1104 12.4689 25.9805 12.2673
726 1 -1.1104 12.2085 31.5234 12.2501
727 2 2.2208 10.9696 24.5587 8.1366
728 2 2.2208 10.7663 30.1739 7.97362
730 1 -1.1104 12.2876 25.9433 9.42694
731 1 -1.1104 12.1647 31.5119 9.40594
732 1 -1.1104 9.59 23.215 12.2667
733 1 -1.1104 9.52355 28.8509 12.249
734 2 2.2208 8.2283 27.3711 8.05957
737 1 -1.1104 9.47476 28.7764 9.43253
738 2 2.2208 8.15598 24.7472 10.9651
739 2 2.2208 8.14429 30.2213 10.8312
740 1 -1.1104 9.60484 26.0847 12.3502
741 1 -1.1104 9.53729 31.4477 12.28
742 1 -1.1104 9.52811 25.874 9.51055
743 1 -1.1104 9.41973 31.576 9.43729
857 2 2.2208 10.9805 24.6324 13.7455
729 2 2.2208 10.8524 30.2018 13.6286
987 1 -1.1104 12.1936 31.6761 26.2739
747 2 2.2208 2.45551 21.7352 13.6665
13682 2 2.2208 -0.413859 21.8416 27.6433
760 2 2.2208 5.19169 13.1804 19.4073
748 2 2.2208 5.23668 16.0939 16.5981
749 2 2.2208 5.30386 21.6704 16.4329
750 1 -1.1104 1.0913 17.4742 17.8008
752 1 -1.1104 1.15084 17.4745 15.1866
756 1 -1.1104 1.06958 14.6696 17.8793
757 1 -1.1104 1.07341 20.4378 17.9678
761 2 2.2208 5.29294 18.9292 19.2606
762 1 -1.1104 0.895306 14.613 14.9896
764 1 -1.1104 1.11318 20.3537 15.093
770 1 -1.1104 3.84531 17.4785 17.9124
771 2 2.2208 2.38242 15.9755 19.2735
772 2 2.2208 2.56159 21.7169 19.2411
773 1 -1.1104 3.94477 17.6917 15.2201
13534 2 2.2208 -0.354393 18.832 19.3071
776 2 2.2208 2.39696 18.9139 16.4602
777 1 -1.1104 3.65973 14.5165 17.9114
778 1 -1.1104 3.99928 20.2776 17.8294
779 1 -1.1104 3.84996 14.6134 15.2879
781 1 -1.1104 3.85564 20.1688 15.0586