LAMMPS (29 Oct 2020)
OMP_NUM_THREADS environment is not set. Defaulting to 1 thread. (../comm.cpp:94)
  using 1 OpenMP thread(s) per MPI task
OMP_NUM_THREADS environment is not set. Defaulting to 1 thread. (../comm.cpp:94)
  using 1 OpenMP thread(s) per MPI task
Reading data file ...
  orthogonal box = (-0.27717828 -3.4472206 -0.27717828) to (27.617178 331.52722 27.617178)
  2 by 13 by 2 MPI processor grid
  reading atoms ...
  18000 atoms
  reading velocities ...
  18000 velocities
Finding 1-2 1-3 1-4 neighbors ...
  special bond factors lj:    0.0      0.0      0.0     
  special bond factors coul:  0.0      0.0      0.0     
     0 = max # of 1-2 neighbors
     0 = max # of 1-3 neighbors
     0 = max # of 1-4 neighbors
     1 = max # of special neighbors
  special bonds CPU = 0.004 seconds
  read_data CPU = 0.057 seconds
Setting atom values ...
  12000 settings made for charge
Setting atom values ...
  6000 settings made for charge
45 atoms in group sphere_1
12 atoms in group oxygen_1
3 atoms in group thorium_1
15 atoms in group 2
30 atoms in group delete_1
WARNING: Ignoring 'compress yes' for molecular system (../delete_atoms.cpp:125)
Deleted 30 atoms, new total = 17970
45 atoms in group sphere_2
12 atoms in group oxygen_2
3 atoms in group thorium_2
15 atoms in group 4
30 atoms in group delete_2
WARNING: Ignoring 'compress yes' for molecular system (../delete_atoms.cpp:125)
Deleted 30 atoms, new total = 17940
45 atoms in group sphere_3
24 atoms in group oxygen_2
6 atoms in group thorium_2
30 atoms in group 4
30 atoms in group delete_3
WARNING: Ignoring 'compress yes' for molecular system (../delete_atoms.cpp:125)
Deleted 30 atoms, new total = 17910
PPPM initialization ...
  using 12-bit tables for long-range coulomb (../kspace.cpp:328)
  G vector (1/distance) = 0.299142
  grid = 40 240 40
  stencil order = 5
  estimated absolute RMS force accuracy = 0.00015485404
  estimated relative force accuracy = 1.0754018e-05
  using single precision MKL FFT
  3d grid and FFT values/proc = 18225 7600
Neighbor list info ...
  update every 1 steps, delay 0 steps, check yes
  max neighbors/atom: 2000, page size: 100000
  master list distance cutoff = 13
  ghost atom cutoff = 13
  binsize = 6.5, bins = 5 52 5
  2 neighbor lists, perpetual/occasional/extra = 2 0 0
  (1) pair coul/long, perpetual
      attributes: half, newton on
      pair build: half/bin/newton
      stencil: half/bin/3d/newton
      bin: standard
  (2) pair eam/alloy, perpetual, copy from (1)
      attributes: half, newton on
      pair build: copy
      stencil: none
      bin: none
Setting up cg style minimization ...
  Unit style    : metal
  Current step  : 0
WARNING: Energy due to 3 extra global DOFs will be included in minimizer energies
Per MPI rank memory allocation (min/avg/max) = 9.485 | 10.18 | 10.28 Mbytes
Step Temp E_pair E_mol TotEng Press Volume 
       0            0   -235472.76            0   -235472.76   -691.84862    260641.98 
       3            0   -235472.79            0   -235472.79    655.20563    260458.94 
Loop time of 1.44973 on 52 procs for 3 steps with 17910 atoms

98.8% CPU use with 52 MPI tasks x 1 OpenMP threads

Minimization stats:
  Stopping criterion = linesearch alpha is zero
  Energy initial, next-to-last, final = 
     -235472.755392729  -235472.790145509  -235472.790145509
  Force two-norm initial, final = 285.03925 197.22233
  Force max component initial, final = 272.38307 108.85493
  Final line search alpha, max atom move = 2.7378019e-13 2.9802322e-11
  Iterations, force evaluations = 3 129

MPI task timing breakdown:
Section |  min time  |  avg time  |  max time  |%varavg| %total
---------------------------------------------------------------
Pair    | 0.82809    | 0.88017    | 0.94824    |   3.0 | 60.71
Bond    | 1.0791e-05 | 1.6095e-05 | 2.5401e-05 |   0.0 |  0.00
Kspace  | 0.20953    | 0.27736    | 0.32965    |   5.3 | 19.13
Neigh   | 0          | 0          | 0          |   0.0 |  0.00
Comm    | 0.021008   | 0.021972   | 0.02302    |   0.4 |  1.52
Output  | 0          | 0          | 0          |   0.0 |  0.00
Modify  | 0          | 0          | 0          |   0.0 |  0.00
Other   |            | 0.2702     |            |       | 18.64

Nlocal:        344.423 ave         404 max         297 min
Histogram: 6 6 8 4 5 6 8 5 1 3
Nghost:        5630.00 ave        5833 max        5460 min
Histogram: 7 3 7 4 5 8 8 5 3 2
Neighs:       110600.0 ave      130396 max       95906 min
Histogram: 9 4 5 7 4 9 5 5 1 3

Total # of neighbors = 5751225
Ave neighs/atom = 321.11809
Ave special neighs/atom = 0.0000000
Neighbor list builds = 0
Dangerous builds = 0
Resetting atom IDs ...
PPPM initialization ...
  using 12-bit tables for long-range coulomb (../kspace.cpp:328)
  G vector (1/distance) = 0.29916004
  grid = 40 240 40
  stencil order = 5
  estimated absolute RMS force accuracy = 0.00015468441
  estimated relative force accuracy = 1.0742238e-05
  using single precision MKL FFT
  3d grid and FFT values/proc = 18225 7600
Finding 1-2 1-3 1-4 neighbors ...
  special bond factors lj:    0.0      0.0      0.0     
  special bond factors coul:  0.0      0.0      0.0     
     0 = max # of 1-2 neighbors
     0 = max # of 1-3 neighbors
     0 = max # of 1-4 neighbors
     1 = max # of special neighbors
  special bonds CPU = 0.001 seconds
PPPM initialization ...
  using 12-bit tables for long-range coulomb (../kspace.cpp:328)
  G vector (1/distance) = 0.29916004
  grid = 40 240 40
  stencil order = 5
  estimated absolute RMS force accuracy = 0.00015468441
  estimated relative force accuracy = 1.0742238e-05
  using single precision MKL FFT
  3d grid and FFT values/proc = 18225 7600
Setting up Verlet run ...
  Unit style    : metal
  Current step  : 3
  Time step     : 0.001
Per MPI rank memory allocation (min/avg/max) = 8.360 | 9.097 | 9.157 Mbytes
Step Dt Time Atoms Temp PotEng KinEng Press Volume 
       3        0.001            0    17910          600   -235472.79     1388.952    6351.2104    260458.94 
   10000        0.001        9.997    17910    599.32242   -234201.35    1387.3834    96.707106    264934.62 
   20000        0.001       19.997    17910     599.1566   -234198.41    1386.9996   -341.48234     265018.2 
   30000        0.001       29.997    17910    600.27372   -234211.73    1389.5856   -148.96972    264918.88 
   40000        0.001       39.997    17910    601.49235   -234196.41    1392.4066   -972.33373     265097.3 
   50000        0.001       49.997    17910    598.78596   -234192.86    1386.1416    787.06653    264844.42 
   60000        0.001       59.997    17910    597.56845    -234194.4    1383.3231   -915.52616    265043.66 
   70000        0.001       69.997    17910    594.92653   -234204.34    1377.2073   -558.68192    264981.76 
   80000        0.001       79.997    17910    601.43681    -234211.4    1392.2781    81.220231    264893.53 
   90000        0.001       89.997    17910    606.61609   -234211.54    1404.2677    99.879695    264878.31 
  100000        0.001       99.997    17910    604.10325   -234205.46    1398.4507   -108.46134    264953.55 
  100003        0.001          100    17910    605.48987   -234208.54    1401.6606   -211.62709    264961.73 
Loop time of 825.159 on 52 procs for 100000 steps with 17910 atoms

Performance: 10.471 ns/day, 2.292 hours/ns, 121.189 timesteps/s
99.8% CPU use with 52 MPI tasks x 1 OpenMP threads

MPI task timing breakdown:
Section |  min time  |  avg time  |  max time  |%varavg| %total
---------------------------------------------------------------
Pair    | 530.01     | 541.74     | 556.48     |  27.9 | 65.65
Bond    | 0.0092392  | 0.013571   | 0.018677   |   1.8 |  0.00
Kspace  | 146.17     | 160.95     | 172.72     |  51.5 | 19.51
Neigh   | 1.8563     | 1.9634     | 2.0659     |   3.7 |  0.24
Comm    | 16.282     | 16.781     | 17.312     |   5.1 |  2.03
Output  | 0.054165   | 0.054217   | 0.056082   |   0.1 |  0.01
Modify  | 91.198     | 96.755     | 100.04     |  22.6 | 11.73
Other   |            | 6.901      |            |       |  0.84

Nlocal:        344.423 ave         364 max         322 min
Histogram: 1 1 0 11 13 10 5 4 2 5
Nghost:        5591.48 ave        5704 max        5463 min
Histogram: 3 9 1 12 3 0 5 3 4 12
Neighs:       109971.0 ave      117442 max      102579 min
Histogram: 1 1 8 10 8 10 3 6 2 3

Total # of neighbors = 5718491
Ave neighs/atom = 319.29040
Ave special neighs/atom = 0.0000000
Neighbor list builds = 664
Dangerous builds = 0
System init for write_data ...
PPPM initialization ...
  using 12-bit tables for long-range coulomb (../kspace.cpp:328)
  G vector (1/distance) = 0.29884861
  grid = 40 240 40
  stencil order = 5
  estimated absolute RMS force accuracy = 0.00015717276
  estimated relative force accuracy = 1.0915044e-05
  using single precision MKL FFT
  3d grid and FFT values/proc = 18225 7600
Total wall time: 0:13:47
