ITEM: TIMESTEP
100000
ITEM: NUMBER OF ATOMS
17820
ITEM: BOX BOUNDS pp pp pp
-3.6690365493565669e-01 2.7706903654935495e+01
-4.3548688572852630e+00 3.3243486885728885e+02
-3.5124936191336070e-01 2.7691249361912604e+01
ITEM: ATOMS id type q x y z
1 2 2.2208 5.18031 1.25372 5.25551
2 1 -1.1104 0.904225 -2.93641 1.12094
3 1 -1.1104 1.15784 2.84093 1.22474
6 1 -1.1104 0.988873 -2.79343 3.98728
7 1 -1.1104 0.868113 2.84228 3.97202
10 1 -1.1104 0.970497 -0.145965 1.10313
12 2 2.2208 5.11791 -1.54997 2.46717
13 2 2.2208 5.10554 3.9984 2.58844
14 1 -1.1104 1.04984 -0.0790289 3.87384
16 1 -1.1104 3.79206 -2.96339 1.19987
17 1 -1.1104 3.92488 2.57194 1.17151
18 2 2.2208 2.42977 1.29035 2.53032
19 1 -1.1104 3.66846 -2.86161 3.88579
20 1 -1.1104 3.79967 2.6375 3.88477
21 2 2.2208 2.32046 -1.37787 5.25966
22 2 2.2208 2.464 4.1129 5.33271
23 1 -1.1104 3.78988 -0.164863 0.964542
24 1 -1.1104 3.7625 -0.148038 3.86118
17454 2 2.2208 13.5847 -4.26891 7.97456
164 1 -1.1104 1.07805 2.7946 6.75646
169 1 -1.1104 3.74234 -2.93901 6.6991
163 1 -1.1104 0.898314 -2.74446 6.72767
171 1 -1.1104 3.70895 0.03243 6.58987
170 1 -1.1104 3.71543 2.76472 6.76269
8 1 -1.1104 6.55559 -2.92374 4.08081
52 2 2.2208 8.02006 -4.33736 2.50813
229 2 2.2208 -0.475405 12.6206 10.9611
166 1 -1.1104 6.4059 2.71191 6.66024
330 2 2.2208 8.09164 9.66085 -0.457539
556 2 2.2208 2.39713 -1.64963 -0.325926
9 1 -1.1104 6.62726 2.61328 3.80429
4 1 -1.1104 6.52767 -2.96359 1.24281
11 1 -1.1104 6.58066 0.0657859 1.10993
15 1 -1.1104 6.57707 -0.153516 3.88847
5 1 -1.1104 6.53129 2.95339 1.027
31 2 2.2208 10.6443 1.25871 5.19461
32 1 -1.1104 12.1029 -2.75095 1.0218
33 1 -1.1104 12.1082 2.81298 0.958421
34 1 -1.1104 12.1542 -2.80815 3.83682
35 1 -1.1104 12.1909 2.78477 3.70595
36 1 -1.1104 12.1628 0.141652 1.19098
37 2 2.2208 10.6775 -1.33595 2.43833
38 2 2.2208 10.7968 4.14918 2.31619
39 1 -1.1104 12.1273 0.0312856 3.85156
40 1 -1.1104 9.34187 -3.05534 1.15015
41 1 -1.1104 9.18665 2.63422 1.03784
42 2 2.2208 7.91504 1.37206 2.38024
43 1 -1.1104 9.42564 -2.7133 3.93902
44 1 -1.1104 9.28103 3.07558 3.81115
45 2 2.2208 7.89696 -1.41867 5.30799
46 2 2.2208 7.95476 4.0995 5.34186
47 1 -1.1104 9.27898 -0.046388 0.991794
48 1 -1.1104 9.21135 0.148143 3.7879
204 1 -1.1104 9.47677 -3.00777 6.58919
168 1 -1.1104 6.45228 -0.072154 6.85197
205 1 -1.1104 9.2509 2.62029 6.76228
201 1 -1.1104 12.2056 -2.87194 6.71924
202 1 -1.1104 12.1121 2.77426 6.52732
203 1 -1.1104 12.2071 -0.0454322 6.69436
555 2 2.2208 5.19235 1.35089 -0.269208
9212 2 2.2208 13.5206 1.35228 2.48667
328 2 2.2208 5.37096 12.5544 -0.385808
54 2 2.2208 5.20783 6.90376 5.17431
55 2 2.2208 5.24062 12.6314 5.23961
56 1 -1.1104 0.885304 8.25245 1.00936
58 1 -1.1104 0.841587 8.40196 3.80777
60 1 -1.1104 1.16387 5.57164 0.92937
61 1 -1.1104 1.16122 11.0572 1.07903
65 2 2.2208 5.37744 9.77882 2.34291
66 1 -1.1104 0.761909 5.63015 3.65273
67 1 -1.1104 1.08813 11.1253 3.81746
70 1 -1.1104 3.63347 8.24785 0.988638
71 2 2.2208 2.34183 7.10831 2.53299
72 2 2.2208 2.4001 12.5071 2.45412
73 1 -1.1104 3.54418 8.38184 3.90148
74 2 2.2208 2.35794 9.73871 5.21446
75 1 -1.1104 4.35099 5.27186 0.83047
76 1 -1.1104 3.97176 10.9674 0.609421
78 1 -1.1104 3.61341 5.53458 3.75736
79 1 -1.1104 3.80535 11.0702 3.7489
77 1 -1.1104 3.78057 11.2068 6.49527
59 1 -1.1104 6.26881 8.49572 4.00294
235 1 -1.1104 3.7949 5.51259 6.57515
234 1 -1.1104 3.8308 8.3814 6.68911
57 1 -1.1104 6.38852 8.2659 0.922805
63 1 -1.1104 6.58487 11.06 0.80009
233 1 -1.1104 6.57253 5.53843 6.7235
230 1 -1.1104 0.937665 8.37403 6.73391
232 1 -1.1104 0.979346 5.61629 6.54024
62 1 -1.1104 1.03613 11.1566 6.66099
196 2 2.2208 10.7476 15.3808 8.16692
29 2 2.2208 2.31037 -4.3585 2.5565
68 1 -1.1104 6.41126 5.36797 3.9178
69 1 -1.1104 6.68591 11.3155 3.81801
83 2 2.2208 10.8723 7.12863 5.33794
84 2 2.2208 10.8438 12.5837 5.27924
85 1 -1.1104 12.3217 8.42704 1.23647
86 1 -1.1104 12.2668 8.41933 3.91524
87 1 -1.1104 12.3393 5.55536 0.952456
88 1 -1.1104 12.1372 11.1984 1.05606
90 2 2.2208 10.7319 9.74124 2.48902
91 1 -1.1104 11.9434 5.56264 3.75437
92 1 -1.1104 12.284 11.2669 3.91687
93 1 -1.1104 9.60144 8.50035 0.780906
94 2 2.2208 8.11239 12.6656 2.40853
95 1 -1.1104 9.61468 8.54322 4.06917
96 2 2.2208 7.82239 9.76871 5.20837
97 1 -1.1104 9.37097 5.33135 1.02348
98 1 -1.1104 9.39319 11.1595 1.04725
100 1 -1.1104 9.47887 11.1728 3.93517
265 1 -1.1104 9.51567 5.4412 6.31356
99 1 -1.1104 9.17921 11.0997 6.66368
262 1 -1.1104 12.0932 5.6665 6.59532
64 1 -1.1104 6.4976 11.1211 6.63633
207 1 -1.1104 9.48761 13.9845 12.3679
261 1 -1.1104 12.2052 8.51353 6.64044
231 1 -1.1104 6.53074 8.29898 6.75145
263 1 -1.1104 9.39696 8.25458 6.84178
133 2 2.2208 -0.415822 20.9282 2.47777
103 2 2.2208 5.1873 18.2112 5.24146
104 1 -1.1104 0.837647 13.8674 1.15853
106 1 -1.1104 0.92358 19.4076 1.04297
110 1 -1.1104 1.02775 14.078 3.95416
111 1 -1.1104 1.0359 19.4988 3.89063
113 1 -1.1104 1.00998 16.7303 1.01353
116 2 2.2208 5.15723 15.3867 2.3802
117 2 2.2208 5.16538 20.9098 2.53921
118 1 -1.1104 0.859122 16.8174 3.88069
120 1 -1.1104 3.78544 13.7657 1.10897
122 1 -1.1104 3.84203 19.4783 1.14915
124 2 2.2208 2.32762 18.2147 2.40805
125 1 -1.1104 3.68909 13.9158 3.8698
126 1 -1.1104 3.78001 19.6099 3.95584
127 2 2.2208 2.35168 15.3774 5.26155
128 2 2.2208 2.19918 20.9927 5.35467
129 1 -1.1104 3.78465 16.7459 1.14433
131 1 -1.1104 3.73803 16.8053 3.86788
137 1 -1.1104 6.66126 16.732 1.13848
119 1 -1.1104 6.5385 16.7116 3.74784
132 2 2.2208 -0.430248 15.3571 2.51689
134 2 2.2208 -0.475921 18.2499 5.22578
108 1 -1.1104 6.74316 13.8651 6.52585
9224 2 2.2208 13.6896 6.96519 13.6907
9130 2 2.2208 13.6683 9.64065 10.9268
112 1 -1.1104 6.67112 14.0127 3.7416
135 1 -1.1104 6.68849 19.6752 1.2101
140 1 -1.1104 12.2087 13.8841 6.70796
136 1 -1.1104 6.74648 19.3819 3.90916
107 1 -1.1104 6.67073 13.9858 0.903798
138 2 2.2208 10.7176 18.1135 5.3246
139 1 -1.1104 12.3916 13.9101 1.04988
141 1 -1.1104 12.1791 19.5422 1.31842
143 1 -1.1104 12.3898 14.0065 3.98602
144 1 -1.1104 12.2921 19.6359 4.02619
145 1 -1.1104 12.3618 16.7772 1.27509
147 2 2.2208 10.8662 15.427 2.54053
148 2 2.2208 10.922 21.0053 2.51603
149 1 -1.1104 12.3002 16.8634 4.05168
150 1 -1.1104 9.57064 14.0883 1.00891
152 1 -1.1104 9.50971 19.4965 1.09076
154 2 2.2208 8.08838 18.1263 2.40808
155 1 -1.1104 9.56414 14.0627 3.92681
156 1 -1.1104 9.59226 19.549 3.83277
157 2 2.2208 8.01104 15.465 5.25081
158 2 2.2208 8.13008 20.9355 5.16086
159 1 -1.1104 9.53954 16.7876 1.00261
161 1 -1.1104 9.46377 16.7742 3.90604
286 1 -1.1104 6.41866 14.131 9.3953
109 1 -1.1104 6.68707 19.594 6.73047
160 1 -1.1104 9.29977 16.7991 6.74122
564 2 2.2208 10.9418 18.1689 -0.322005
8522 2 2.2208 5.2064 -4.37901 10.8669
316 2 2.2208 5.2598 -1.60359 13.5659
80 1 -1.1104 12.1361 19.6551 9.45939
167 1 -1.1104 0.992624 -0.148142 6.79421
173 2 2.2208 5.20734 1.36397 11.0492
174 1 -1.1104 0.96596 -2.65954 12.1977
175 1 -1.1104 0.78768 2.72214 12.1376
178 1 -1.1104 1.11353 -2.7014 9.50202
179 1 -1.1104 0.92277 2.79208 9.55752
183 2 2.2208 5.22751 -1.47689 8.22168
184 2 2.2208 5.24242 4.08849 8.13868
185 1 -1.1104 0.977373 0.0680864 9.80448
187 1 -1.1104 3.76933 -3.05867 12.1529
188 1 -1.1104 3.93164 2.89362 12.1567
189 2 2.2208 2.49472 1.35555 8.18245
190 1 -1.1104 3.7716 -3.13294 9.52569
191 1 -1.1104 3.89632 2.7612 9.52797
192 2 2.2208 2.47462 -1.4301 10.9238
193 2 2.2208 2.36764 4.19726 11.0234
194 1 -1.1104 3.7674 -0.156264 12.3258
195 1 -1.1104 3.81342 -0.220823 9.49495
9218 2 2.2208 -0.566186 20.9848 8.04732
181 1 -1.1104 6.74127 2.73532 9.58221
200 2 2.2208 -0.368987 7.11136 10.8691
165 1 -1.1104 6.65073 -2.85884 6.96411
206 1 -1.1104 9.38883 -0.233194 6.51669
9125 2 2.2208 13.5404 6.96589 7.98924
8524 2 2.2208 10.7875 -4.35738 10.8521
176 1 -1.1104 6.67506 -2.85812 12.2662
186 1 -1.1104 6.67236 0.0343917 9.61298
180 1 -1.1104 6.67546 -2.87777 9.66197
182 1 -1.1104 6.80175 -0.205989 12.3446
177 1 -1.1104 6.68489 2.73911 12.3453
208 2 2.2208 10.9665 1.27426 10.826
209 1 -1.1104 12.2968 -2.95812 12.2412
210 1 -1.1104 12.222 2.68213 12.0809
211 1 -1.1104 12.2087 -2.8201 9.41857
212 1 -1.1104 12.239 2.68809 9.16955
213 1 -1.1104 12.277 -0.110546 12.3387
214 2 2.2208 10.8717 -1.46226 8.11676
215 2 2.2208 10.7084 4.10923 7.99372
216 1 -1.1104 12.2919 -0.167251 9.47988
217 1 -1.1104 9.462 -2.93631 12.2484
218 1 -1.1104 9.41461 2.64692 12.1902
219 2 2.2208 7.92479 1.22106 8.13893
220 1 -1.1104 9.42201 -2.92939 9.57791
221 1 -1.1104 9.52762 2.73804 9.44668
222 2 2.2208 8.09575 -1.56558 10.8155
223 2 2.2208 8.11538 4.05077 10.8609
224 1 -1.1104 9.60573 -0.170359 12.1415
225 1 -1.1104 9.56189 -0.0863372 9.37573
312 2 2.2208 8.06811 20.9845 10.9079
327 2 2.2208 2.32351 9.58831 -0.35175
9260 2 2.2208 13.6612 1.37439 13.6722
236 2 2.2208 5.20358 6.94125 10.8838
237 2 2.2208 5.2198 12.59 10.7656
238 1 -1.1104 0.838965 8.21738 12.407
240 1 -1.1104 1.06288 8.38527 9.58377
242 1 -1.1104 0.985475 5.53556 12.3973
243 1 -1.1104 0.917365 11.176 12.2413
246 2 2.2208 5.10607 9.75523 8.1238
247 1 -1.1104 0.887774 5.5561 9.38291
248 1 -1.1104 0.940844 11.2247 9.51931
251 1 -1.1104 3.78182 8.44444 12.1973
252 2 2.2208 2.41524 6.91 8.09696
253 2 2.2208 2.30949 12.638 8.00902
254 1 -1.1104 3.87037 8.2112 9.3948
255 2 2.2208 2.39989 9.91037 10.8666
256 1 -1.1104 3.86827 5.60183 12.2632
257 1 -1.1104 3.82721 11.3434 12.2924
258 1 -1.1104 3.66371 5.65388 9.45642
259 1 -1.1104 3.73635 11.1823 9.48021
249 1 -1.1104 6.54855 5.49936 9.38748
250 1 -1.1104 6.37832 11.3693 9.37318
307 1 -1.1104 9.23964 13.9532 9.38756
9219 2 2.2208 13.6637 1.40213 7.90403
245 1 -1.1104 6.69458 11.1566 12.2814
239 1 -1.1104 6.74465 8.37038 12.2542
9049 2 2.2208 13.6231 4.09664 10.7538
244 1 -1.1104 6.75903 5.47441 12.1506
241 1 -1.1104 6.50004 8.48751 9.51087
89 1 -1.1104 12.209 11.2116 6.79696
260 1 -1.1104 9.28647 11.1324 9.59783
264 1 -1.1104 9.21964 5.41054 9.30189
266 1 -1.1104 9.51775 11.1942 12.4695
267 1 -1.1104 9.41003 5.48165 12.2639
268 2 2.2208 8.01714 9.68498 10.9147
269 1 -1.1104 9.49903 8.39089 9.56653
270 2 2.2208 7.90387 12.6312 7.98141
271 2 2.2208 7.94947 6.95769 8.10459
272 2 2.2208 10.8646 6.8869 10.841
273 2 2.2208 10.8873 12.536 10.9291
274 1 -1.1104 12.187 8.27222 12.197
275 1 -1.1104 12.2715 8.35793 9.51052
276 1 -1.1104 12.2887 5.50261 12.2004
277 1 -1.1104 12.2456 11.21 12.3095
278 2 2.2208 10.7489 9.72347 8.14372
279 1 -1.1104 11.951 5.5284 9.46088
280 1 -1.1104 12.1046 11.0739 9.47191
281 1 -1.1104 9.43942 8.27749 12.2586
123 1 -1.1104 3.81947 19.659 6.72467
298 1 -1.1104 0.881845 19.5882 6.71726
105 1 -1.1104 1.14229 13.9206 6.55371
403 2 2.2208 13.6686 -4.27465 13.661
321 2 2.2208 2.30302 18.3137 13.7113
292 1 -1.1104 6.50667 19.4326 12.5378
114 1 -1.1104 0.995788 16.6497 6.6934
121 1 -1.1104 3.76058 14.022 6.66409
130 1 -1.1104 3.86684 16.7545 6.70244
282 1 -1.1104 3.83322 19.661 12.1334
283 1 -1.1104 3.83463 14.0031 12.3401
287 1 -1.1104 1.02706 19.5226 9.64488
288 1 -1.1104 1.07612 16.7742 9.44479
289 2 2.2208 5.24591 20.9932 7.97664
290 1 -1.1104 0.838124 13.9556 9.66146
291 2 2.2208 5.16595 15.3705 8.00736
294 1 -1.1104 0.985295 19.6919 12.3874
295 1 -1.1104 0.96388 14.0272 12.3234
296 2 2.2208 5.19163 18.1309 10.9482
297 1 -1.1104 3.9524 19.6091 9.45383
299 2 2.2208 2.44269 18.2528 8.1191
300 1 -1.1104 3.81486 16.7051 9.62571
301 1 -1.1104 3.63501 13.9615 9.38847
303 1 -1.1104 0.80431 16.8257 12.385
304 1 -1.1104 3.75135 16.7159 12.7254
305 2 2.2208 2.53782 21.0044 10.7523
306 2 2.2208 2.2883 15.3733 11.0254
293 1 -1.1104 6.75576 13.9975 12.2317
115 1 -1.1104 6.45467 16.8056 6.49541
28 2 2.2208 -0.346703 4.08959 2.35601
226 1 -1.1104 9.61508 19.6218 12.4554
198 1 -1.1104 12.2133 16.8911 9.55464
373 2 2.2208 5.28479 4.18639 13.5999
199 2 2.2208 13.6564 21.087 10.6824
81 1 -1.1104 12.258 16.8785 12.4019
285 1 -1.1104 6.54522 16.8915 9.39708
284 1 -1.1104 6.76841 19.6735 9.62091
308 1 -1.1104 9.38974 19.5018 9.5464
146 1 -1.1104 12.1399 16.7248 6.86603
313 2 2.2208 7.93638 15.402 10.7944
310 1 -1.1104 9.43319 16.7625 9.59016
197 2 2.2208 10.8005 20.9231 8.03666
27 1 -1.1104 12.3007 19.6115 12.2539
26 1 -1.1104 12.3954 14.0473 12.4012
311 1 -1.1104 9.38731 16.7924 12.3092
302 1 -1.1104 6.63623 16.7463 12.2821
227 2 2.2208 7.96293 18.1849 8.07685
50 1 -1.1104 12.0936 13.9534 9.4302
142 1 -1.1104 12.0013 19.5488 6.84117
153 1 -1.1104 9.32111 19.5306 6.55149
151 1 -1.1104 9.40618 14.0339 6.50273
25 2 2.2208 10.8901 18.2636 10.9963
405 2 2.2208 10.851 -1.56459 13.6203
314 2 2.2208 13.5974 4.14089 5.17792
468 2 2.2208 10.9102 9.7587 13.7133
318 2 2.2208 10.8842 4.12312 13.5452
9110 2 2.2208 -0.426968 18.2454 10.9041
9211 2 2.2208 -0.40231 1.45133 5.24331
324 2 2.2208 8.11716 18.011 13.7205
323 2 2.2208 5.02021 21.158 13.6228
309 2 2.2208 -0.394041 15.4116 8.05691
9210 2 2.2208 -0.433815 -1.43824 2.48395
101 2 2.2208 13.5075 12.5711 2.53445
9209 2 2.2208 13.508 18.2109 8.12322
102 2 2.2208 13.6394 6.96698 2.4556
620 2 2.2208 -0.290024 12.5081 -0.359476
400 2 2.2208 -0.496672 15.4225 13.8259
671 2 2.2208 2.49665 21.0183 -0.361342
442 2 2.2208 2.41424 6.99175 13.6531
9221 2 2.2208 -0.405329 6.77238 -0.281153
317 2 2.2208 8.1101 1.2236 13.7086
326 2 2.2208 8.14723 15.3933 -0.329105
586 2 2.2208 8.0058 -1.59214 -0.343309
675 2 2.2208 -0.462401 18.1076 -0.463625
333 2 2.2208 5.42493 1.43671 16.3852
334 1 -1.1104 0.946225 -2.94908 17.8065
335 1 -1.1104 0.976711 2.59297 17.8953
338 1 -1.1104 0.936777 -3.08859 15.0859
340 1 -1.1104 0.914335 2.92673 15.2118
346 1 -1.1104 0.903427 -0.319135 17.9587
348 2 2.2208 5.29562 -1.55886 19.111
349 2 2.2208 5.27043 3.9737 19.1746
350 1 -1.1104 0.951263 -0.304671 15.1297
354 1 -1.1104 3.83935 -2.99048 17.7988
355 1 -1.1104 3.98969 2.37325 17.9734
356 2 2.2208 2.37711 1.21496 19.1909
357 1 -1.1104 3.73048 -2.79249 14.9243
359 1 -1.1104 4.15682 3.04088 15.2713
361 2 2.2208 2.32331 -1.59168 16.4657
362 2 2.2208 2.40648 4.09436 16.2568
363 1 -1.1104 3.83476 -0.195184 17.3664
352 1 -1.1104 6.37006 -0.142355 14.9483
364 1 -1.1104 3.75393 -0.0992889 20.4836
558 2 2.2208 13.6527 20.9652 22.2294
8707 2 2.2208 7.80076 -4.33298 24.8505
651 1 -1.1104 6.76324 16.8612 26.4091
342 1 -1.1104 6.57381 -2.99184 14.9911
339 1 -1.1104 0.853991 -2.95051 20.7221
347 1 -1.1104 6.66591 -0.0851624 17.8268
8757 2 2.2208 10.7871 -4.41424 21.9739
674 2 2.2208 -0.218225 15.2197 24.8567
358 1 -1.1104 3.63721 -2.90917 20.6956
360 1 -1.1104 3.86095 2.82989 20.725
647 2 2.2208 13.6924 7.06467 24.8518
561 2 2.2208 4.96615 -4.32076 22.1383
336 1 -1.1104 6.69104 -3.0696 17.7867
8758 2 2.2208 7.8681 -4.49512 19.2581
337 1 -1.1104 6.82277 2.60933 17.9574
344 1 -1.1104 6.81936 2.65568 15.0208
374 2 2.2208 10.9201 1.32933 16.4265
375 1 -1.1104 12.1976 -2.91348 17.9725
376 1 -1.1104 12.3577 2.76533 17.7186
377 1 -1.1104 12.205 -2.81433 15.0726
379 1 -1.1104 12.2436 2.70505 14.9148
381 1 -1.1104 12.2346 -0.0640034 17.8802
382 2 2.2208 10.8119 -1.5812 19.2279
383 2 2.2208 10.8116 4.10224 19.2025
384 1 -1.1104 12.3808 -0.0349922 15.066
386 1 -1.1104 9.45273 -3.03235 17.9977
387 1 -1.1104 9.48452 2.663 17.8767
388 2 2.2208 8.10516 1.39229 19.2924
389 1 -1.1104 9.43102 -2.79598 15.1367
391 1 -1.1104 9.5778 2.63284 14.9957
393 2 2.2208 7.97283 -1.50806 16.2871
395 1 -1.1104 9.53095 -0.106744 17.6732
396 1 -1.1104 9.53388 -0.173837 14.9139
394 2 2.2208 8.19486 4.11097 16.4895
397 1 -1.1104 9.47099 -0.106158 20.6547
380 1 -1.1104 12.1728 2.61558 20.5067
378 1 -1.1104 12.0922 -2.93248 20.6625
399 2 2.2208 10.7093 -4.24352 16.5174
353 1 -1.1104 6.68095 -0.182991 20.6714
595 1 -1.1104 12.2588 16.7513 23.6434
676 2 2.2208 -0.246916 20.9278 24.9669
560 2 2.2208 5.07514 -4.30123 27.641
9402 2 2.2208 13.6395 18.2524 19.2563
441 2 2.2208 5.14256 9.93471 13.7513
407 2 2.2208 5.25228 6.87204 16.5041
408 2 2.2208 5.23357 12.6856 16.5217
409 1 -1.1104 1.01188 8.25078 17.9385
411 1 -1.1104 1.0909 8.44709 15.1806
415 1 -1.1104 0.903501 5.37212 17.8319
416 1 -1.1104 0.855531 11.0552 17.9993
419 2 2.2208 5.1965 9.72122 19.3713
420 1 -1.1104 1.1415 5.70709 15.1571
422 1 -1.1104 1.10285 11.2827 15.1039
428 1 -1.1104 3.89898 8.2603 17.8148
429 2 2.2208 2.3773 6.78375 19.1812
430 2 2.2208 2.43055 12.5195 19.4209
431 1 -1.1104 3.85221 8.59177 15.1853
433 2 2.2208 2.45248 9.75669 16.6598
434 1 -1.1104 3.69357 5.40091 17.7165
435 1 -1.1104 3.67157 11.0997 18.0324
436 1 -1.1104 3.85078 5.74223 14.8973
438 1 -1.1104 4.00591 11.4578 15.0458
439 1 -1.1104 3.83691 11.1407 20.6758
437 1 -1.1104 3.89494 5.47075 20.466
424 1 -1.1104 6.73876 5.4996 15.0758
672 2 2.2208 5.2834 18.165 27.7649
421 1 -1.1104 0.969004 5.53516 20.6365
9331 2 2.2208 13.7682 6.96842 19.3015
440 2 2.2208 2.45056 12.5452 13.7591
9296 2 2.2208 13.5273 4.15074 27.6995
413 1 -1.1104 6.68258 8.30682 15.216
426 1 -1.1104 6.65085 11.161 15.0729
417 1 -1.1104 6.7081 5.39778 17.8288
410 1 -1.1104 6.5991 8.34054 17.9597
418 1 -1.1104 6.59781 11.102 17.917
444 2 2.2208 10.8784 7.04038 16.4978
445 2 2.2208 10.9081 12.5569 16.5938
446 1 -1.1104 12.1774 8.25821 17.9806
447 1 -1.1104 12.3387 8.30701 15.0658
449 1 -1.1104 12.2022 5.44125 17.8477
450 1 -1.1104 12.2914 11.07 18.0101
451 2 2.2208 10.7625 9.70924 19.3914
452 1 -1.1104 12.3908 5.48723 14.9868
454 1 -1.1104 12.2207 11.1236 15.2385
456 1 -1.1104 9.36077 8.27061 17.8033
457 2 2.2208 8.00721 6.83106 19.3168
458 2 2.2208 7.99339 12.5528 19.4502
459 1 -1.1104 9.5375 8.30095 15.0241
461 2 2.2208 8.00976 9.7484 16.537
462 1 -1.1104 9.36214 5.45123 17.9212
463 1 -1.1104 9.48109 11.1773 18.0968
464 1 -1.1104 9.57499 5.52667 15.1808
466 1 -1.1104 9.4397 11.2571 15.3094
414 1 -1.1104 6.69317 8.31629 20.6891
455 1 -1.1104 12.1565 11.1816 20.7335
460 1 -1.1104 9.35935 8.28357 20.5581
465 1 -1.1104 9.45334 5.53275 20.7144
448 1 -1.1104 12.3888 8.42042 20.7641
453 1 -1.1104 12.2516 5.5278 20.5899
593 1 -1.1104 12.3926 13.9834 26.2246
425 1 -1.1104 6.65323 5.38144 20.5795
467 1 -1.1104 9.41484 11.1919 20.9083
479 1 -1.1104 6.65466 14.0238 20.6955
470 1 -1.1104 0.995649 13.8435 17.9306
471 1 -1.1104 1.02148 19.6886 17.9031
474 1 -1.1104 1.01938 14.0505 15.1101
476 1 -1.1104 0.976006 19.683 15.1933
482 1 -1.1104 0.929854 16.732 17.9873
484 2 2.2208 5.23751 15.3496 19.2233
485 2 2.2208 5.24148 20.8334 19.2335
486 1 -1.1104 1.20801 16.7589 15.1444
490 1 -1.1104 3.8314 13.7995 17.882
491 1 -1.1104 3.6592 19.7014 17.9305
492 2 2.2208 2.56816 18.0026 19.208
493 1 -1.1104 3.86748 14.428 15.1213
495 1 -1.1104 3.7215 19.5755 15.0209
497 2 2.2208 2.37298 15.2935 16.7487
498 2 2.2208 2.40147 20.9549 16.5562
499 1 -1.1104 3.78268 16.5871 18.0632
475 1 -1.1104 1.00998 13.9672 20.5887
494 1 -1.1104 3.84047 13.9051 20.8562
477 1 -1.1104 1.16986 19.5351 20.6946
478 1 -1.1104 6.77105 13.9541 15.1467
487 1 -1.1104 1.06028 16.7208 20.6586
496 1 -1.1104 4.01917 19.4127 20.6657
588 1 -1.1104 12.4128 14.0142 23.518
472 1 -1.1104 6.63068 13.8824 17.7253
481 1 -1.1104 6.76565 19.6522 20.7028
510 1 -1.1104 12.3469 19.6361 20.7989
488 1 -1.1104 6.8216 16.7196 14.9903
473 1 -1.1104 6.73186 19.5919 17.8254
483 1 -1.1104 6.96214 16.533 18.2341
504 2 2.2208 10.6735 18.2237 16.4525
505 1 -1.1104 12.2851 14.004 18.002
506 1 -1.1104 12.2841 19.7201 18.0499
507 1 -1.1104 12.2338 13.9019 15.1305
509 1 -1.1104 12.2723 19.641 15.006
511 1 -1.1104 12.2621 16.8704 17.9865
512 2 2.2208 10.8822 15.3856 19.2644
513 2 2.2208 10.8799 20.9774 19.4836
514 1 -1.1104 12.1872 16.7688 15.2587
516 1 -1.1104 9.41401 13.9116 17.9722
517 1 -1.1104 9.61779 19.7127 17.9798
518 2 2.2208 8.06937 18.0823 19.4137
519 1 -1.1104 9.52625 14.1668 15.1792
521 1 -1.1104 9.00294 19.5634 15.3112
523 2 2.2208 8.08728 15.5152 16.5714
524 2 2.2208 7.98746 21.0926 16.6645
525 1 -1.1104 9.60329 16.8628 17.8925
526 1 -1.1104 9.48783 16.8077 15.0771
515 1 -1.1104 12.5026 16.8364 20.8148
508 1 -1.1104 12.1735 13.9579 20.7727
8528 2 2.2208 10.7061 -4.28632 27.6311
522 1 -1.1104 9.48057 19.5795 20.6989
351 1 -1.1104 0.984983 -0.048786 20.6341
341 1 -1.1104 0.964648 2.76725 20.7314
531 2 2.2208 5.20987 1.21525 22.0583
532 1 -1.1104 0.946997 -2.81185 23.5392
533 1 -1.1104 0.954292 2.80596 23.4247
536 1 -1.1104 1.02062 -2.8972 26.2303
537 1 -1.1104 1.06036 2.61004 26.5058
540 1 -1.1104 0.871013 0.0295286 23.5109
542 2 2.2208 5.23181 -1.49841 25.0069
543 2 2.2208 5.17347 4.06774 24.7075
544 1 -1.1104 0.954403 -0.168674 26.3613
546 1 -1.1104 3.69272 -2.92835 23.4655
547 1 -1.1104 3.89804 2.54198 23.4718
548 2 2.2208 2.49614 1.29433 24.7834
549 1 -1.1104 3.75185 -2.85115 26.2982
550 1 -1.1104 3.88533 2.7345 26.283
551 2 2.2208 2.30672 -1.52746 22.0196
552 2 2.2208 2.39579 4.21413 22.0098
553 1 -1.1104 3.78939 -0.26837 23.5026
554 1 -1.1104 3.75849 -0.0391945 26.3085
545 1 -1.1104 6.72192 -0.210254 26.4118
539 1 -1.1104 6.57494 2.68893 26.2747
17662 2 2.2208 13.622 -4.47408 24.9877
367 2 2.2208 13.683 9.79429 22.1025
343 1 -1.1104 6.48079 -2.91988 20.7533
385 1 -1.1104 12.2017 -0.165296 20.67
392 1 -1.1104 9.53384 2.7279 20.7234
538 1 -1.1104 6.47257 -2.92792 26.3389
587 2 2.2208 7.90771 4.12127 27.6597
390 1 -1.1104 9.25398 -3.04178 20.7777
345 1 -1.1104 6.68908 2.60349 20.7242
534 1 -1.1104 6.50309 -3.10288 23.4572
541 1 -1.1104 6.50196 -0.301127 23.5385
535 1 -1.1104 6.63093 2.66106 23.4663
567 2 2.2208 10.9015 1.33233 22.0251
568 1 -1.1104 12.0629 -2.90176 23.5387
569 1 -1.1104 12.165 2.78222 23.238
570 1 -1.1104 12.1005 -3.1357 26.2723
571 1 -1.1104 12.0987 2.71897 26.1727
572 1 -1.1104 12.1779 -0.0379543 23.5597
573 2 2.2208 10.7664 -1.43889 24.8746
574 2 2.2208 10.9855 4.13549 24.8521
575 1 -1.1104 12.2957 -0.210984 26.2861
576 1 -1.1104 9.44854 -3.03789 23.4905
577 1 -1.1104 9.36061 2.67618 23.4399
578 2 2.2208 7.99696 1.33229 24.8604
579 1 -1.1104 9.3242 -2.77341 26.2669
580 1 -1.1104 9.39955 2.76978 26.2744
581 2 2.2208 7.98036 -1.62176 22.1276
582 2 2.2208 8.11649 3.9867 21.9545
583 1 -1.1104 9.2661 -0.0491297 23.5464
584 1 -1.1104 9.54219 0.0288967 26.3912
502 1 -1.1104 9.66542 13.8827 23.6806
585 2 2.2208 10.7387 1.42159 27.7336
559 1 -1.1104 6.70175 19.6132 26.3503
443 2 2.2208 8.04954 12.6356 13.6892
432 1 -1.1104 3.73735 8.31363 20.5877
427 1 -1.1104 6.54456 11.1193 20.6825
412 1 -1.1104 0.886033 8.38003 20.7143
423 1 -1.1104 1.0538 11.0666 20.887
596 2 2.2208 5.27697 6.75943 21.9244
597 2 2.2208 5.29917 12.6644 22.2559
598 1 -1.1104 1.04767 8.75001 23.5039
600 1 -1.1104 1.13294 8.16429 26.192
602 1 -1.1104 1.0208 5.70724 23.4753
605 2 2.2208 5.37936 9.59909 24.6497
606 1 -1.1104 0.946435 5.40327 26.2825
607 1 -1.1104 0.948135 10.8213 26.3408
610 1 -1.1104 3.91444 8.16919 23.4131
611 2 2.2208 2.40507 6.98038 24.8174
612 1 -1.1104 3.87324 8.54032 26.1231
613 2 2.2208 2.57309 9.6233 22.047
614 1 -1.1104 3.88459 5.43947 23.3998
615 1 -1.1104 3.83883 10.9439 23.6035
616 1 -1.1104 3.7553 5.61595 26.1806
609 1 -1.1104 6.52491 11.1103 26.1099
9298 2 2.2208 13.5232 -1.59503 22.184
608 1 -1.1104 6.45951 5.58929 26.2844
601 1 -1.1104 6.70073 8.32026 26.2694
603 1 -1.1104 6.69146 5.51971 23.376
406 2 2.2208 13.6327 12.5129 13.6797
401 2 2.2208 -0.387377 18.2888 16.4844
402 2 2.2208 13.7111 -1.49678 16.4349
528 1 -1.1104 9.59625 19.5291 23.5752
604 1 -1.1104 6.62165 11.0278 23.2946
621 2 2.2208 10.9306 15.4544 24.9827
599 1 -1.1104 6.73478 8.21993 23.2468
624 1 -1.1104 9.37715 11.1821 26.262
625 1 -1.1104 9.20131 5.6131 26.2993
626 1 -1.1104 9.59422 11.1382 23.4245
627 1 -1.1104 9.60707 5.47166 23.5471
628 2 2.2208 8.11169 9.66277 21.9266
629 1 -1.1104 9.48904 8.24916 26.0587
630 2 2.2208 8.15134 12.5985 24.8709
631 2 2.2208 8.17866 6.88589 24.6698
632 2 2.2208 10.8868 6.86889 22.0758
633 2 2.2208 10.959 12.5113 22.2426
634 1 -1.1104 12.3046 8.2444 23.4849
635 1 -1.1104 12.1439 8.33445 26.3644
636 1 -1.1104 12.3462 5.48945 23.4377
637 1 -1.1104 12.4241 11.1012 23.4681
638 2 2.2208 10.8856 9.72353 24.8895
639 1 -1.1104 12.1226 5.60882 26.3316
640 1 -1.1104 12.209 11.2107 26.2728
641 1 -1.1104 9.5773 8.34236 23.2497
365 2 2.2208 13.8007 15.4378 22.1142
500 1 -1.1104 3.92477 16.7262 20.7656
673 2 2.2208 2.44493 15.3163 27.7556
666 1 -1.1104 6.76557 16.8129 23.705
648 1 -1.1104 3.83378 19.4604 23.6902
650 1 -1.1104 4.03799 14.2248 23.5537
652 1 -1.1104 0.869706 19.6608 26.462
653 1 -1.1104 1.03567 16.8953 26.1268
654 1 -1.1104 0.939079 14.0684 26.548
656 2 2.2208 5.36411 20.942 24.8828
657 2 2.2208 5.35583 15.433 24.9581
659 1 -1.1104 1.09375 19.6513 23.5806
660 1 -1.1104 0.806604 13.6414 23.3337
661 2 2.2208 5.25088 18.0766 22.196
662 1 -1.1104 3.73424 19.6522 26.4075
663 2 2.2208 2.45825 18.2088 24.8487
664 1 -1.1104 3.87616 16.7617 26.2767
665 1 -1.1104 4.11755 14.1237 26.5841
667 1 -1.1104 0.999618 16.6066 23.3808
668 1 -1.1104 4.01034 16.8683 23.602
669 2 2.2208 2.48483 21.0845 22.1585
670 2 2.2208 2.45482 15.2411 22.1876
677 2 2.2208 -0.296841 18.1647 22.0526
618 1 -1.1104 9.49891 14.0502 26.461
565 2 2.2208 8.14336 21.041 27.826
646 1 -1.1104 9.73879 16.8664 26.2544
623 1 -1.1104 12.5619 16.8209 26.4561
469 2 2.2208 13.6203 12.5775 19.3026
622 2 2.2208 10.9519 20.8641 25.1154
527 1 -1.1104 9.68497 16.6763 20.7955
520 1 -1.1104 9.4011 13.943 20.8908
644 1 -1.1104 9.45327 16.7085 23.5256
592 1 -1.1104 12.3425 19.6749 23.6359
557 2 2.2208 8.14716 18.3056 24.8712
619 1 -1.1104 9.49248 19.6919 26.4677
642 2 2.2208 8.13575 15.3025 22.1386
658 1 -1.1104 6.85684 13.9699 23.4984
643 2 2.2208 8.08486 21.0042 22.0206
566 2 2.2208 10.9385 18.1499 22.1845
594 1 -1.1104 12.4604 19.5812 26.5415
489 1 -1.1104 6.8917 16.8434 20.8546
649 1 -1.1104 6.71084 13.882 26.2569
655 1 -1.1104 6.76544 19.6761 23.6265
9262 2 2.2208 13.6078 1.26295 19.2654
529 2 2.2208 10.9748 21.0292 13.678
9301 2 2.2208 13.5855 -4.39331 19.2639
480 2 2.2208 13.6158 9.69184 16.652
9256 2 2.2208 13.689 4.17791 16.3708
530 2 2.2208 10.8923 15.3285 13.8264
322 2 2.2208 -0.402442 4.07716 13.7414
329 2 2.2208 10.6783 6.92872 27.6644
320 2 2.2208 5.38945 15.3286 13.6635
331 2 2.2208 10.8766 12.6126 27.644
617 2 2.2208 5.19011 7.13495 27.4987
325 2 2.2208 2.53741 4.12376 27.7453
319 2 2.2208 8.13633 6.89532 13.7199
398 2 2.2208 13.8166 21.0379 27.73
678 2 2.2208 5.2911 23.6947 5.17943
679 2 2.2208 5.24333 29.4078 5.16271
680 1 -1.1104 1.14847 25.0645 1.07583
681 1 -1.1104 1.11961 25.2364 3.89201
682 1 -1.1104 1.07432 22.2426 1.13075
683 1 -1.1104 1.17314 28.0038 1.00961
684 2 2.2208 5.26546 26.6036 2.53185
685 1 -1.1104 1.02023 22.4073 3.87642
686 1 -1.1104 0.891042 28.1224 3.68697
687 1 -1.1104 4.10622 25.2459 0.938399
688 2 2.2208 2.50617 23.7381 2.42722
689 2 2.2208 2.4277 29.524 2.30095
690 1 -1.1104 3.8152 25.3063 3.75073
691 2 2.2208 2.31624 26.7012 5.22492
692 1 -1.1104 3.90274 22.2859 1.08164
693 1 -1.1104 4.02928 28.1002 1.01861
694 1 -1.1104 3.77844 22.4893 3.83782
695 1 -1.1104 3.681 27.9817 3.62777
826 1 -1.1104 3.91334 27.9073 6.44109
702 1 -1.1104 6.8607 28.2073 0.940161
9746 1 -1.1104 0.640058 27.747 6.41043
906 1 -1.1104 12.3942 44.7695 6.60167
9896 2 2.2208 -0.199222 46.2007 -0.250948
824 1 -1.1104 3.80212 25.1234 6.47861
696 2 2.2208 -0.0361308 29.5484 5.30216
1229 2 2.2208 5.29469 23.8866 -0.413328
10026 2 2.2208 -0.210279 43.5479 13.7444
699 1 -1.1104 6.7424 25.2119 1.0905
701 1 -1.1104 6.68657 22.3601 1.0817
700 1 -1.1104 6.71784 25.0841 3.91856
704 1 -1.1104 6.59347 27.9257 3.82234
703 1 -1.1104 6.58732 22.2525 3.86657
705 2 2.2208 10.9376 23.774 5.31439
706 2 2.2208 11.0937 29.4771 5.33267
707 1 -1.1104 12.2601 25.2383 1.21568
708 1 -1.1104 12.3825 25.1759 3.98277
709 1 -1.1104 12.364 22.3522 0.957361
710 1 -1.1104 12.4949 28.0211 1.11006
711 2 2.2208 10.9345 26.5718 2.52312
712 1 -1.1104 12.2886 22.4462 3.7205
713 1 -1.1104 12.3766 28.0511 3.81324
714 1 -1.1104 9.58622 25.152 1.14967
715 2 2.2208 8.01239 23.7366 2.51384
716 2 2.2208 8.14128 29.3909 2.57844
717 1 -1.1104 9.59346 25.2276 3.8873
718 2 2.2208 8.0625 26.5712 5.18917
719 1 -1.1104 9.53988 22.3518 1.14106
720 1 -1.1104 9.6107 27.9742 1.14845
721 1 -1.1104 9.4307 22.3836 3.88508
722 1 -1.1104 9.56567 27.8756 3.94674
854 1 -1.1104 9.43414 28.1125 6.74766
849 1 -1.1104 12.3146 25.0721 6.70552
850 1 -1.1104 12.3133 22.2634 6.59416
851 1 -1.1104 12.3059 28.0481 6.61608
797 2 2.2208 -0.177114 46.2828 5.23703
986 2 2.2208 -0.404323 29.5778 10.9019
9884 2 2.2208 -0.494581 23.8153 5.26747
726 2 2.2208 -0.167998 35.1119 5.13022
727 2 2.2208 5.33531 34.9873 5.07792
728 1 -1.1104 1.25185 30.9147 1.01541
729 1 -1.1104 1.12995 36.3802 0.872206
731 1 -1.1104 1.24594 30.917 3.80871
732 1 -1.1104 1.11657 36.4746 3.76233
734 1 -1.1104 1.11564 33.6189 1.03576
735 2 2.2208 5.33004 32.2768 2.46032
736 2 2.2208 5.31446 37.8338 2.43007
737 1 -1.1104 0.971952 33.6288 3.85191
739 1 -1.1104 3.90901 30.9112 0.823356
740 1 -1.1104 3.87541 36.4345 0.934475
741 2 2.2208 2.48061 35.096 2.30647
742 1 -1.1104 3.93435 30.9004 3.70591
743 1 -1.1104 3.87312 36.3377 3.74556
744 2 2.2208 2.59568 32.2805 5.18665
745 2 2.2208 2.7309 37.8981 5.17388
746 1 -1.1104 3.89999 33.6979 1.12399
747 1 -1.1104 3.88224 33.738 3.78425
879 1 -1.1104 4.07929 30.9656 6.41651
873 1 -1.1104 0.928104 31.2725 6.414
730 1 -1.1104 6.63938 36.4611 0.884722
880 1 -1.1104 4.0709 36.5031 6.53318
733 1 -1.1104 6.77836 36.5294 3.70363
751 1 -1.1104 6.7094 30.9344 3.84539
874 1 -1.1104 1.27318 36.5714 6.51889
877 1 -1.1104 1.19104 33.8865 6.59717
881 1 -1.1104 3.91752 33.6955 6.59709
878 1 -1.1104 6.78034 33.6314 6.61158
1010 2 2.2208 5.36783 35.0618 -0.384537
971 2 2.2208 8.28244 43.3506 10.9118
738 1 -1.1104 6.82888 33.613 3.87247
752 1 -1.1104 6.77118 33.6758 1.09493
750 1 -1.1104 6.7135 30.8898 1.07505
753 2 2.2208 10.9076 34.9797 5.24552
754 1 -1.1104 12.425 30.8321 1.09278
755 1 -1.1104 12.3939 36.3262 0.965141
756 1 -1.1104 12.4305 30.7344 3.99217
757 1 -1.1104 12.2943 36.3623 3.85077
758 1 -1.1104 12.3984 33.5774 1.10663
759 2 2.2208 10.9903 32.1704 2.50748
760 2 2.2208 10.955 37.7228 2.46365
761 1 -1.1104 12.4136 33.5784 3.89897
762 1 -1.1104 9.50168 30.8383 1.13128
763 1 -1.1104 9.46189 36.307 1.04627
764 2 2.2208 8.12499 34.9839 2.44157
765 1 -1.1104 9.54325 30.7111 3.8861
766 1 -1.1104 9.48564 36.3592 3.81953
767 2 2.2208 8.24206 32.1397 5.24019
768 2 2.2208 8.12645 37.9384 5.3433
769 1 -1.1104 9.5494 33.6117 1.14767
770 1 -1.1104 9.68858 33.4602 3.89049