ITEM: TIMESTEP
30000
ITEM: NUMBER OF ATOMS
17820
ITEM: BOX BOUNDS pp pp pp
-3.6036982653354704e-01 2.7700369826533425e+01
-4.3719260530333068e+00 3.3245192605304010e+02
-3.6071088352953984e-01 2.7700710883529453e+01
ITEM: ATOMS id type q x y z
1 2 2.2208 5.23069 1.33634 5.47236
2 1 -1.1104 1.09224 -2.98686 0.995348
3 1 -1.1104 1.03035 2.70277 1.24452
6 1 -1.1104 1.00194 -2.96566 3.95973
7 1 -1.1104 1.00078 2.61448 4.07055
10 1 -1.1104 0.891608 -0.272926 1.1911
12 2 2.2208 5.20501 -1.58808 2.49153
13 2 2.2208 5.22157 3.9872 2.73407
14 1 -1.1104 0.997906 -0.246256 4.06285
16 1 -1.1104 4.02601 -2.96842 1.18006
17 1 -1.1104 3.77769 2.69881 1.3014
18 2 2.2208 2.4491 1.19067 2.6535
19 1 -1.1104 3.89468 -2.98201 3.90111
20 1 -1.1104 3.78312 2.58755 4.06293
21 2 2.2208 2.43579 -1.57829 5.4626
22 2 2.2208 2.4366 4.00076 5.56641
23 1 -1.1104 3.82447 -0.127193 1.02579
24 1 -1.1104 3.85481 -0.231656 3.79446
9210 2 2.2208 -0.406743 -1.55278 2.51628
164 1 -1.1104 1.09348 2.40765 6.68914
9211 2 2.2208 -0.46462 1.12449 5.32547
30 2 2.2208 5.21789 -4.3386 5.35123
28 2 2.2208 -0.444071 3.98528 2.63395
163 1 -1.1104 1.00749 -2.97083 6.75036
325 2 2.2208 2.48325 4.11419 -0.0976322
555 2 2.2208 5.24484 1.26738 -0.275991
9 1 -1.1104 6.76591 2.42238 4.06461
4 1 -1.1104 6.66159 -2.95954 1.02634
15 1 -1.1104 6.69146 -0.10305 3.78799
8 1 -1.1104 6.65137 -3.03673 3.82824
5 1 -1.1104 6.65047 3.04585 1.12138
11 1 -1.1104 6.61598 -0.0431815 1.05257
31 2 2.2208 10.8432 1.25944 5.33006
32 1 -1.1104 12.1374 -3.04611 1.14313
33 1 -1.1104 12.4429 2.51695 0.885068
34 1 -1.1104 12.3515 -2.91463 3.83472
35 1 -1.1104 12.2574 2.62073 3.96362
36 1 -1.1104 12.1463 -0.205521 1.14571
37 2 2.2208 10.8128 -1.47977 2.49628
38 2 2.2208 11.0739 3.90861 2.45838
39 1 -1.1104 12.2868 -0.10531 3.75134
40 1 -1.1104 9.41089 -2.86273 1.00184
41 1 -1.1104 9.59096 2.58541 1.06345
42 2 2.2208 8.00614 1.35577 2.47466
43 1 -1.1104 9.56007 -3.00851 3.82798
44 1 -1.1104 9.43244 2.89088 3.92603
45 2 2.2208 8.15782 -1.50722 5.22941
46 2 2.2208 7.99132 3.95862 5.48335
47 1 -1.1104 9.45084 -0.210239 1.17424
48 1 -1.1104 9.39092 -0.0472637 4.00007
204 1 -1.1104 9.40462 -2.98234 6.71545
53 2 2.2208 10.877 -4.40375 5.2972
203 1 -1.1104 12.2985 -0.160609 6.60343
206 1 -1.1104 9.46924 -0.222265 6.67427
52 2 2.2208 7.99725 -4.3114 2.47244
49 2 2.2208 13.716 -4.6038 2.48662
51 2 2.2208 13.6987 -1.67663 5.22052
54 2 2.2208 5.41572 6.81337 5.42043
55 2 2.2208 5.29668 12.3236 5.35459
56 1 -1.1104 0.858689 8.37758 1.16468
58 1 -1.1104 1.04751 8.24916 3.86406
60 1 -1.1104 1.2205 5.59222 1.16115
61 1 -1.1104 1.12818 11.1225 1.14969
65 2 2.2208 5.41717 9.69123 2.62289
66 1 -1.1104 0.893718 5.44759 4.04027
67 1 -1.1104 0.932792 11.0483 4.12186
70 1 -1.1104 3.63485 8.17501 1.11862
71 2 2.2208 2.58663 6.74714 2.79086
72 2 2.2208 2.49706 12.4043 2.68081
73 1 -1.1104 3.91344 8.26884 3.90619
74 2 2.2208 2.41956 9.58013 5.34676
75 1 -1.1104 4.20081 5.563 1.39047
76 1 -1.1104 3.98189 10.8521 0.756698
78 1 -1.1104 3.99094 5.33628 4.33169
79 1 -1.1104 3.91416 10.9673 3.82327
57 1 -1.1104 6.45034 8.24853 1.08216
327 2 2.2208 2.28329 9.47576 -0.0630513
9213 2 2.2208 -0.392859 6.72249 5.38609
82 2 2.2208 -0.406084 12.3025 5.45327
328 2 2.2208 5.42977 12.3935 -0.097976
620 2 2.2208 -0.279505 12.3606 -0.29273
59 1 -1.1104 6.553 8.42874 4.28375
77 1 -1.1104 3.84612 11.1038 6.64767
234 1 -1.1104 3.89142 8.34174 6.85324
230 1 -1.1104 1.00842 8.11295 6.74294
232 1 -1.1104 1.05015 5.34956 6.76893
235 1 -1.1104 3.79468 5.7131 7.04526
68 1 -1.1104 6.81331 5.21108 4.0283
63 1 -1.1104 6.70376 10.9566 1.17926
69 1 -1.1104 6.80895 11.1763 3.89837
83 2 2.2208 10.9062 6.92934 5.40595
84 2 2.2208 10.8031 12.5857 5.3335
85 1 -1.1104 12.2261 8.19849 1.36713
86 1 -1.1104 12.4101 8.32852 4.12519
87 1 -1.1104 12.3093 5.33956 1.19701
88 1 -1.1104 12.3093 11.0391 1.09566
90 2 2.2208 10.7356 9.69248 2.52979
91 1 -1.1104 12.1354 5.39584 3.86832
92 1 -1.1104 12.3282 11.1787 3.99903
93 1 -1.1104 9.53479 8.39828 1.33274
94 2 2.2208 8.04402 12.459 2.47334
95 1 -1.1104 9.69437 8.40398 4.18953
96 2 2.2208 8.1266 9.72727 5.25617
97 1 -1.1104 9.46377 5.1706 1.42362
98 1 -1.1104 9.47597 11.2182 1.13862
100 1 -1.1104 9.51472 11.2374 3.8095
265 1 -1.1104 9.50218 5.4928 6.39743
329 2 2.2208 10.7472 6.86203 0.0439235
330 2 2.2208 8.0322 9.52984 -0.112018
331 2 2.2208 10.8491 12.5212 -0.30044
262 1 -1.1104 12.3287 5.45962 6.65672
64 1 -1.1104 6.59968 10.9275 6.69839
101 2 2.2208 13.7397 12.4474 2.51813
102 2 2.2208 13.6239 6.86811 2.59807
672 2 2.2208 5.32254 18.0606 -0.339798
671 2 2.2208 2.39667 20.8122 -0.308151
103 2 2.2208 5.18398 17.8368 5.2685
104 1 -1.1104 1.17268 13.7953 1.42104
106 1 -1.1104 1.05602 19.5079 1.24485
110 1 -1.1104 0.989111 13.7295 4.09342
111 1 -1.1104 0.970867 19.4159 4.03498
113 1 -1.1104 0.995189 16.5335 1.07779
116 2 2.2208 5.20626 15.1623 2.54802
117 2 2.2208 5.26805 20.7747 2.40124
118 1 -1.1104 1.04377 16.6271 3.9951
120 1 -1.1104 3.94564 13.6262 1.17661
122 1 -1.1104 3.87016 19.3544 1.00958
124 2 2.2208 2.4951 17.8422 2.46478
125 1 -1.1104 3.85065 13.7824 3.99112
126 1 -1.1104 3.89075 19.2161 3.83919
127 2 2.2208 2.37465 15.1226 5.30732
128 2 2.2208 2.41999 20.8394 5.30447
129 1 -1.1104 3.69366 16.564 1.16376
131 1 -1.1104 3.82824 16.3718 3.86375
133 2 2.2208 -0.325726 20.8677 2.61856
132 2 2.2208 -0.435239 15.1415 2.64607
675 2 2.2208 -0.225374 17.9963 -0.319033
673 2 2.2208 2.47089 15.0835 -0.228062
135 1 -1.1104 6.83381 19.2921 0.947248
137 1 -1.1104 6.64467 16.619 1.19444
105 1 -1.1104 0.917131 13.9345 6.8848
119 1 -1.1104 6.70788 16.5912 3.95906
112 1 -1.1104 6.64644 13.8608 3.97412
136 1 -1.1104 6.68278 19.5138 3.65275
107 1 -1.1104 6.68699 13.8825 1.24045
138 2 2.2208 10.8454 18.0026 5.37074
139 1 -1.1104 12.245 13.9544 1.04144
141 1 -1.1104 12.2418 19.5151 1.07178
143 1 -1.1104 12.3012 13.864 3.75966
144 1 -1.1104 12.2111 19.3903 3.94518
145 1 -1.1104 12.3332 16.7596 1.17578
147 2 2.2208 10.8615 15.2746 2.39249
148 2 2.2208 11.0199 20.8862 2.49227
149 1 -1.1104 12.2464 16.5967 3.89526
150 1 -1.1104 9.38655 13.8671 1.23874
152 1 -1.1104 9.55852 19.2731 1.11397
154 2 2.2208 8.10494 18.1257 2.52435
155 1 -1.1104 9.51347 14.0094 3.94564
156 1 -1.1104 9.47891 19.5453 3.90039
157 2 2.2208 8.06086 15.3424 5.38876
158 2 2.2208 8.1261 20.7455 5.20879
159 1 -1.1104 9.45273 16.5439 0.959658
161 1 -1.1104 9.37632 16.7198 3.88191
564 2 2.2208 10.8565 18.1293 -0.330628
151 1 -1.1104 9.40336 13.8442 6.70302
8991 2 2.2208 13.7061 21.001 5.33653
565 2 2.2208 8.05436 20.825 -0.224954
370 2 2.2208 13.6466 15.3012 -0.315532
169 1 -1.1104 3.8999 -3.03142 6.82827
171 1 -1.1104 3.86466 -0.169644 6.59527
170 1 -1.1104 3.88642 2.7288 6.9033
167 1 -1.1104 1.12732 -0.26522 6.95865
173 2 2.2208 5.21679 1.36212 10.9773
174 1 -1.1104 0.945549 -2.70174 12.1737
175 1 -1.1104 0.784736 2.58035 12.1011
178 1 -1.1104 1.28269 -3.14246 9.52354
179 1 -1.1104 0.901427 2.56912 9.40024
183 2 2.2208 5.24504 -1.53951 8.11922
184 2 2.2208 5.17727 4.24272 8.30646
185 1 -1.1104 1.00966 -0.464985 9.93008
187 1 -1.1104 3.90149 -3.06903 12.3502
188 1 -1.1104 3.90352 2.6979 12.2971
189 2 2.2208 2.4939 1.24502 8.25877
190 1 -1.1104 3.99527 -3.05799 9.63669
191 1 -1.1104 3.70338 2.7747 9.6203
192 2 2.2208 2.63467 -1.7291 10.9646
193 2 2.2208 2.42798 4.02557 11.0119
194 1 -1.1104 4.13446 -0.310952 12.3111
195 1 -1.1104 3.80736 -0.185025 9.53582
316 2 2.2208 5.34209 -1.70228 13.6186
9216 2 2.2208 -0.198853 -1.70319 8.26197
9215 2 2.2208 -0.389906 4.03352 8.1801
172 2 2.2208 -0.184796 -4.27525 11.0466
8522 2 2.2208 5.33795 -4.52524 10.8943
176 1 -1.1104 6.67388 -3.11288 12.3953
182 1 -1.1104 6.69868 -0.301186 12.3759
181 1 -1.1104 6.45529 2.79831 9.67074
8524 2 2.2208 10.9443 -4.33041 10.9381
165 1 -1.1104 6.63288 -2.97839 6.61543
202 1 -1.1104 12.298 2.6659 6.83474
403 2 2.2208 13.8747 -4.40534 13.7683
168 1 -1.1104 6.64182 -0.227919 6.70441
186 1 -1.1104 6.57682 -0.0241596 9.70895
180 1 -1.1104 6.73679 -2.93968 9.5322
205 1 -1.1104 9.40396 2.72166 6.87924
8523 2 2.2208 8.06088 -4.3048 8.06045
166 1 -1.1104 6.73363 2.68034 6.84103
177 1 -1.1104 6.66802 2.70379 12.43
201 1 -1.1104 12.1646 -2.9623 6.5844
208 2 2.2208 10.9186 1.25096 10.7605
209 1 -1.1104 12.2631 -2.97227 12.188
210 1 -1.1104 12.3515 2.50668 12.3204
211 1 -1.1104 12.207 -3.03502 9.37871
212 1 -1.1104 12.3129 2.52832 9.48933
213 1 -1.1104 12.2984 -0.241304 12.3544
214 2 2.2208 10.8646 -1.5466 8.02113
215 2 2.2208 10.9322 4.10449 8.05944
216 1 -1.1104 12.2648 -0.248336 9.38265
217 1 -1.1104 9.38834 -3.01073 12.3322
218 1 -1.1104 9.36374 2.66767 12.3713
219 2 2.2208 8.0554 1.2317 8.20507
220 1 -1.1104 9.54911 -2.90387 9.46777
221 1 -1.1104 9.37331 2.65019 9.65925
222 2 2.2208 8.08324 -1.676 10.89
223 2 2.2208 8.10687 4.10752 10.9203
224 1 -1.1104 9.57491 -0.00263756 12.1309
225 1 -1.1104 9.49864 -0.18267 9.45857
9220 2 2.2208 13.7086 -1.65532 10.902
8529 2 2.2208 8.08158 -4.45293 13.76
62 1 -1.1104 1.01958 10.8735 6.75788
200 2 2.2208 -0.248404 6.85092 10.9074
228 2 2.2208 -0.446767 9.69811 8.17217
236 2 2.2208 5.27939 6.95525 10.9386
237 2 2.2208 5.35885 12.5628 11.0056
238 1 -1.1104 0.938494 8.25813 12.4549
240 1 -1.1104 0.978612 8.46726 9.53901
242 1 -1.1104 1.05653 5.49926 12.2756
243 1 -1.1104 0.980873 11.123 12.4744
246 2 2.2208 5.21608 9.80953 8.23519
247 1 -1.1104 1.08266 5.49298 9.52686
248 1 -1.1104 1.14367 11.0793 9.58812
251 1 -1.1104 3.80692 8.39048 12.4822
252 2 2.2208 2.31914 6.93642 8.18603
253 2 2.2208 2.41137 12.5815 8.23138
254 1 -1.1104 3.75127 8.51246 9.6356
255 2 2.2208 2.47026 9.80174 11.0224
256 1 -1.1104 3.96889 5.48999 12.3676
257 1 -1.1104 3.8536 11.0381 12.6729
258 1 -1.1104 3.94084 5.45289 9.78116
259 1 -1.1104 3.9738 11.2372 9.59715
244 1 -1.1104 6.80808 5.66555 12.234
249 1 -1.1104 6.79142 5.48448 9.48416
250 1 -1.1104 6.6887 11.1383 9.54334
442 2 2.2208 2.4113 6.87801 13.7146
441 2 2.2208 5.29422 9.6428 13.8456
89 1 -1.1104 12.1751 10.9468 6.99802
9126 2 2.2208 13.6078 12.3578 8.19373
245 1 -1.1104 6.60083 11.1509 12.3061
233 1 -1.1104 6.57506 5.36511 6.76802
231 1 -1.1104 6.73376 8.31826 6.98331
241 1 -1.1104 6.56446 8.41864 9.72202
239 1 -1.1104 6.54662 8.33846 12.371
99 1 -1.1104 9.48688 11.0556 6.66703
261 1 -1.1104 12.3666 8.24161 6.89977
263 1 -1.1104 9.56638 8.11694 6.83564
260 1 -1.1104 9.51572 11.0746 9.6176
264 1 -1.1104 9.43875 5.47674 9.402
266 1 -1.1104 9.56578 11.0423 12.3842
267 1 -1.1104 9.62143 5.52043 12.456
268 2 2.2208 7.97212 9.68751 11.0486
269 1 -1.1104 9.36393 8.37657 9.59155
270 2 2.2208 8.09548 12.313 8.0932
271 2 2.2208 8.07458 6.9077 8.13232
272 2 2.2208 10.8055 6.89297 10.9376
273 2 2.2208 10.8995 12.3024 10.972
274 1 -1.1104 12.1894 8.26278 12.2561
275 1 -1.1104 12.2508 8.25791 9.59885
276 1 -1.1104 12.3865 5.39149 12.2504
277 1 -1.1104 12.3 11.0637 12.427
278 2 2.2208 10.8578 9.53713 8.22921
279 1 -1.1104 12.1797 5.49282 9.51362
280 1 -1.1104 12.2944 11.08 9.66764
281 1 -1.1104 9.39948 8.39984 12.3217
123 1 -1.1104 3.92711 19.2419 6.69533
114 1 -1.1104 1.07023 16.6057 6.71542
298 1 -1.1104 1.09037 19.4345 6.82802
130 1 -1.1104 3.73482 16.4368 6.78876
121 1 -1.1104 3.82509 13.7829 6.83762
9218 2 2.2208 -0.383791 20.8532 8.11137
282 1 -1.1104 3.95997 19.4022 12.3563
283 1 -1.1104 3.88297 13.7106 12.3202
287 1 -1.1104 1.11322 19.3767 9.60229
288 1 -1.1104 1.14219 16.777 9.68161
289 2 2.2208 5.25454 20.7645 7.95337
290 1 -1.1104 0.922894 14.0365 9.53789
291 2 2.2208 5.33091 15.1793 8.17313
294 1 -1.1104 1.03264 19.485 12.524
295 1 -1.1104 0.987448 13.6779 12.3564
296 2 2.2208 5.23523 18.0246 10.9072
297 1 -1.1104 3.93114 19.4181 9.48897
299 2 2.2208 2.54811 17.9641 8.17303
300 1 -1.1104 3.92599 16.5503 9.72356
301 1 -1.1104 3.83842 13.8539 9.63497
303 1 -1.1104 1.03708 16.7371 12.5037
304 1 -1.1104 3.72215 16.5722 12.5687
305 2 2.2208 2.5001 20.7922 10.9958
306 2 2.2208 2.42916 15.3074 11.1136
323 2 2.2208 5.21789 21.0079 13.7664
108 1 -1.1104 6.6252 13.7956 6.90568
109 1 -1.1104 6.63213 19.4031 6.51323
285 1 -1.1104 6.75488 16.6621 9.56421
321 2 2.2208 2.40416 18.166 13.907
320 2 2.2208 5.3942 15.2529 13.8859
199 2 2.2208 13.6701 20.8175 10.9647
293 1 -1.1104 6.62074 13.8532 12.4437
9208 2 2.2208 13.589 15.289 10.8807
80 1 -1.1104 12.1302 19.3744 9.60443
312 2 2.2208 7.92342 20.9225 10.9574
115 1 -1.1104 6.5005 16.5162 6.7242
226 1 -1.1104 9.44004 19.5261 12.2447
227 2 2.2208 8.00704 18.1201 8.07163
81 1 -1.1104 12.1925 16.5849 12.3462
310 1 -1.1104 9.56161 16.4894 9.54547
197 2 2.2208 10.8105 20.8587 8.18935
198 1 -1.1104 12.2664 16.6051 9.50414
140 1 -1.1104 12.1814 13.8605 6.70034
142 1 -1.1104 12.1899 19.48 6.70834
146 1 -1.1104 12.1444 16.6887 6.6927
26 1 -1.1104 12.362 13.754 12.3373
311 1 -1.1104 9.46369 16.5691 12.2255
308 1 -1.1104 9.45589 19.3171 9.46938
292 1 -1.1104 6.71004 19.5259 12.5914
302 1 -1.1104 6.55055 16.5913 12.2861
284 1 -1.1104 6.64085 19.4658 9.52394
286 1 -1.1104 6.72616 13.873 9.47256
27 1 -1.1104 12.2693 19.4443 12.359
313 2 2.2208 8.09458 15.1258 10.8704
50 1 -1.1104 12.2682 13.8202 9.5672
160 1 -1.1104 9.40887 16.6132 6.7355
196 2 2.2208 10.86 15.1708 8.11398
153 1 -1.1104 9.44337 19.4203 6.73031
307 1 -1.1104 9.39896 13.747 9.59674
207 1 -1.1104 9.47695 13.6727 12.3343
25 2 2.2208 10.7058 17.9963 10.9111
503 2 2.2208 13.7491 18.0507 13.8082
333 2 2.2208 5.31153 1.32649 16.622
334 1 -1.1104 1.0885 -3.08439 17.9374
335 1 -1.1104 0.897645 2.48544 18.1128
338 1 -1.1104 1.21431 -3.20736 14.9945
340 1 -1.1104 0.806593 2.90261 15.4493
346 1 -1.1104 1.00851 -0.325821 18.0937
348 2 2.2208 5.24751 -1.64914 19.2838
349 2 2.2208 5.25081 4.02086 19.4004
350 1 -1.1104 1.03179 -0.431853 15.3309
354 1 -1.1104 3.969 -3.02459 17.6871
355 1 -1.1104 3.85572 2.64066 17.904
356 2 2.2208 2.43789 1.32837 19.4316
357 1 -1.1104 3.86846 -2.84324 15.1098
359 1 -1.1104 3.91309 2.58863 15.3753
361 2 2.2208 2.34603 -1.74124 16.5843
362 2 2.2208 2.44951 4.01392 16.4799
363 1 -1.1104 3.96273 -0.335084 17.4539
352 1 -1.1104 6.39858 -0.315859 15.1103
351 1 -1.1104 1.28441 -0.221298 20.849
373 2 2.2208 5.14067 3.92235 13.7539
368 2 2.2208 -0.310191 1.1566 16.5406
336 1 -1.1104 6.73842 -3.0286 17.955
501 2 2.2208 -0.499782 4.02246 19.4221
322 2 2.2208 -0.382887 3.92389 13.8081
9406 2 2.2208 -0.270312 -1.68758 19.4221
366 2 2.2208 5.34639 -4.31318 16.3915
371 2 2.2208 2.49221 -4.35792 13.7054
8784 2 2.2208 2.50295 -4.45115 19.3449
9329 2 2.2208 -0.247961 -1.54349 13.7938
347 1 -1.1104 6.59839 -0.252911 17.9844
342 1 -1.1104 6.78417 -3.06198 15.1116
344 1 -1.1104 6.53421 2.56386 15.0314
337 1 -1.1104 6.7257 2.5619 17.9277
374 2 2.2208 10.8128 1.2364 16.5162
375 1 -1.1104 12.2782 -2.96916 17.8105
376 1 -1.1104 12.2329 2.58742 17.901
377 1 -1.1104 12.467 -2.96523 15.0357
379 1 -1.1104 12.1517 2.6555 15.1925
381 1 -1.1104 12.3428 -0.234709 18.0547
382 2 2.2208 10.9098 -1.65908 19.3248
383 2 2.2208 10.9492 4.02588 19.4095
384 1 -1.1104 12.151 -0.0686014 15.1071
386 1 -1.1104 9.38397 -2.93549 17.8785
387 1 -1.1104 9.36837 2.55712 17.9457
388 2 2.2208 7.9853 1.29165 19.3724
389 1 -1.1104 9.54224 -2.95782 15.0219
391 1 -1.1104 9.32327 2.5352 15.1851
393 2 2.2208 7.96101 -1.54046 16.5449
394 2 2.2208 8.12802 3.93537 16.5468
395 1 -1.1104 9.56939 -0.261045 17.8048
396 1 -1.1104 9.19125 -0.150587 15.0595
318 2 2.2208 10.8533 3.88549 13.7366
405 2 2.2208 10.7252 -1.607 13.6951
399 2 2.2208 10.8665 -4.31474 16.5147
317 2 2.2208 7.87657 1.13956 13.7105
9337 2 2.2208 -0.354687 12.3618 16.6562
407 2 2.2208 5.33901 6.76235 16.5209
408 2 2.2208 5.20636 12.4278 16.59
409 1 -1.1104 1.06169 8.17525 17.9265
411 1 -1.1104 0.982845 8.29887 15.1765
415 1 -1.1104 1.07792 5.34299 17.9359
416 1 -1.1104 1.11216 10.9591 18.0678
419 2 2.2208 5.33183 9.5252 19.3513
420 1 -1.1104 0.962999 5.6315 15.0252
422 1 -1.1104 1.05499 11.0781 15.2268
428 1 -1.1104 3.7731 8.23421 18.0125
429 2 2.2208 2.49105 6.77369 19.4309
430 2 2.2208 2.41908 12.4685 19.3658
431 1 -1.1104 3.9646 8.26702 15.287
433 2 2.2208 2.5033 9.63934 16.6684
434 1 -1.1104 3.90559 5.3877 18.0267
435 1 -1.1104 3.89243 10.9471 18.0497
436 1 -1.1104 3.92149 5.45343 15.1055
438 1 -1.1104 3.82735 11.1191 15.2276
439 1 -1.1104 3.6362 10.9439 20.6023
432 1 -1.1104 3.98922 8.21301 20.6863
404 2 2.2208 -0.243261 9.55365 19.5362
591 2 2.2208 -0.345175 9.57396 13.7207
440 2 2.2208 2.42893 12.4271 13.8895
424 1 -1.1104 6.77039 5.3431 15.1491
413 1 -1.1104 6.70464 8.18877 15.1267
372 2 2.2208 -0.31029 6.89484 16.6046
412 1 -1.1104 1.1969 8.15945 20.8161
319 2 2.2208 8.05486 6.72367 13.7335
410 1 -1.1104 6.71346 8.16961 18.0655
418 1 -1.1104 6.69765 11.0827 18.0289
417 1 -1.1104 6.61802 5.27158 17.9568
426 1 -1.1104 6.66079 10.9625 15.1275
444 2 2.2208 10.8557 6.67756 16.5092
445 2 2.2208 10.8726 12.4029 16.4467
446 1 -1.1104 12.2746 8.20744 18.1148
447 1 -1.1104 12.2665 8.19199 15.2392
449 1 -1.1104 12.2262 5.43978 17.9203
450 1 -1.1104 12.1765 10.9499 17.7846
451 2 2.2208 10.868 9.58344 19.3279
452 1 -1.1104 12.2639 5.39064 15.0601
454 1 -1.1104 12.3667 10.9786 14.9552
456 1 -1.1104 9.47697 7.91225 17.9922
457 2 2.2208 8.1852 6.72681 19.4171
458 2 2.2208 8.04262 12.4482 19.3864
459 1 -1.1104 9.51843 8.13698 15.1511
461 2 2.2208 8.1328 9.58479 16.4909
462 1 -1.1104 9.45754 5.30987 18.0592
463 1 -1.1104 9.50236 10.9719 17.9195
464 1 -1.1104 9.49703 5.31057 15.2238
466 1 -1.1104 9.50775 10.9901 15.196
443 2 2.2208 8.13095 12.5186 13.7908
468 2 2.2208 10.9542 9.6556 13.7776
427 1 -1.1104 6.47409 10.946 20.8459
460 1 -1.1104 9.61132 8.2376 20.9012
470 1 -1.1104 0.997949 13.7964 17.9162
471 1 -1.1104 0.923392 19.318 17.9134
474 1 -1.1104 0.819499 13.8791 15.2394
476 1 -1.1104 1.09416 19.5259 15.1992
482 1 -1.1104 1.04876 16.6434 17.8852
484 2 2.2208 5.31882 15.3886 19.2752
485 2 2.2208 5.35567 20.7907 19.2839
486 1 -1.1104 1.29659 16.7143 15.215
490 1 -1.1104 3.60044 13.8167 17.8962
491 1 -1.1104 3.88228 19.5657 17.9922
492 2 2.2208 2.48457 17.9445 19.2851
493 1 -1.1104 3.78083 14.0963 15.1196
495 1 -1.1104 4.09055 19.6393 15.0425
497 2 2.2208 2.24629 15.2032 16.6937
498 2 2.2208 2.60096 20.8569 16.5449
499 1 -1.1104 3.70404 16.395 17.8265
494 1 -1.1104 3.94007 13.64 20.6774
475 1 -1.1104 1.11223 13.9631 20.6794
487 1 -1.1104 1.11847 16.6551 20.7568
400 2 2.2208 -0.405629 15.2404 13.7094
478 1 -1.1104 6.63486 13.7495 15.3228
488 1 -1.1104 6.56758 16.6402 15.0984
472 1 -1.1104 6.6131 13.9587 17.9093
473 1 -1.1104 7.05108 19.6749 17.8869
483 1 -1.1104 6.87848 16.5324 18.0744
504 2 2.2208 10.9133 18.0516 16.528
505 1 -1.1104 12.2691 13.6836 17.9621
506 1 -1.1104 12.4897 19.3304 17.8528
507 1 -1.1104 12.2344 13.7767 15.061
509 1 -1.1104 12.2725 19.255 15.0137
511 1 -1.1104 12.3998 16.5582 17.8898
512 2 2.2208 10.9021 15.2963 19.2797
513 2 2.2208 10.9083 20.8587 19.353
514 1 -1.1104 12.2527 16.5952 15.0939
516 1 -1.1104 9.52602 13.8255 17.9931
517 1 -1.1104 9.67638 19.5787 17.8616
518 2 2.2208 8.08854 18.1938 19.1945
519 1 -1.1104 9.41027 13.9118 15.2418
521 1 -1.1104 9.30686 19.62 15.0385
523 2 2.2208 8.12094 15.2454 16.621
524 2 2.2208 8.16509 21.0412 16.7495
525 1 -1.1104 9.60932 16.677 18.0091
526 1 -1.1104 9.47938 16.7833 15.0939
529 2 2.2208 10.7816 20.8214 13.8088
530 2 2.2208 10.8599 15.1133 13.7114
324 2 2.2208 8.05997 17.9956 13.6314
520 1 -1.1104 9.54442 13.5982 20.8388
515 1 -1.1104 12.1945 16.6096 20.6939
479 1 -1.1104 6.72944 13.839 20.7365
590 2 2.2208 13.7362 20.8571 16.5457
358 1 -1.1104 3.76325 -2.97613 20.7833
364 1 -1.1104 3.93346 -0.253088 20.7164
341 1 -1.1104 0.927588 2.59693 21.0273
339 1 -1.1104 1.09275 -3.03584 20.6775
9471 2 2.2208 -0.342787 1.25335 22.2758
360 1 -1.1104 3.77463 2.62986 20.8009
531 2 2.2208 5.24093 1.24838 22.2534
532 1 -1.1104 1.11377 -3.04603 23.5465
533 1 -1.1104 1.00308 2.5982 23.82
536 1 -1.1104 1.03577 -2.99233 26.3819
537 1 -1.1104 0.960277 2.56908 26.5467
540 1 -1.1104 1.12738 -0.199348 23.7039
542 2 2.2208 5.17921 -1.57676 24.9552
543 2 2.2208 5.33165 4.176 25.203
544 1 -1.1104 1.04896 -0.0667083 26.4857
546 1 -1.1104 3.90843 -3.10893 23.5252
547 1 -1.1104 3.86406 2.50069 23.7386
548 2 2.2208 2.52062 1.30562 25.146
549 1 -1.1104 3.77943 -2.92778 26.4683
550 1 -1.1104 3.89397 2.69297 26.4832
551 2 2.2208 2.44666 -1.66197 22.2802
552 2 2.2208 2.42327 3.93337 22.3195
553 1 -1.1104 3.98023 -0.219858 23.6531
554 1 -1.1104 3.87846 -0.237814 26.3038
9473 2 2.2208 -0.433231 4.02248 25.1183
9254 2 2.2208 -0.289685 -1.59714 25.0023
556 2 2.2208 2.44616 -1.54292 27.8155
563 2 2.2208 -0.317083 1.22212 27.841
385 1 -1.1104 12.3302 -0.267633 20.6221
397 1 -1.1104 9.47517 -0.164126 20.7675
378 1 -1.1104 12.2927 -2.9881 20.7211
353 1 -1.1104 6.68142 -0.226196 20.8164
534 1 -1.1104 6.5789 -2.99325 23.4684
538 1 -1.1104 6.67041 -3.05607 26.2715
541 1 -1.1104 6.7976 -0.0378703 23.5955
545 1 -1.1104 6.80427 -0.215887 26.3273
343 1 -1.1104 6.47191 -3.07152 20.6066
345 1 -1.1104 6.50066 2.47844 20.7877
380 1 -1.1104 12.1915 2.55436 20.9421
392 1 -1.1104 9.35744 2.5527 20.8553
390 1 -1.1104 9.40092 -2.88573 20.7095
539 1 -1.1104 6.69332 2.83281 26.4234
535 1 -1.1104 6.67992 2.77458 23.7051
567 2 2.2208 10.9289 1.1079 22.206
568 1 -1.1104 12.2156 -2.99554 23.534
569 1 -1.1104 12.1289 2.55676 23.6391
570 1 -1.1104 12.3117 -2.93042 26.3995
571 1 -1.1104 12.2066 2.71891 26.304
572 1 -1.1104 12.2347 -0.262376 23.6099
573 2 2.2208 10.9492 -1.45629 24.9275
574 2 2.2208 10.8813 3.99116 25.0214
575 1 -1.1104 12.2715 -0.0421237 26.4676
576 1 -1.1104 9.34179 -3.0981 23.5383
577 1 -1.1104 9.53187 2.63177 23.5616
578 2 2.2208 8.07971 1.34263 24.9386
579 1 -1.1104 9.49273 -2.87295 26.2286
580 1 -1.1104 9.42154 2.62033 26.3334
581 2 2.2208 8.01344 -1.54924 22.198
582 2 2.2208 8.07625 4.05381 22.3223
583 1 -1.1104 9.42848 -0.100213 23.6088
584 1 -1.1104 9.45253 -0.0595132 26.4191
9463 2 2.2208 13.6488 4.03885 22.1609
586 2 2.2208 8.18613 -1.5283 27.7501
587 2 2.2208 8.19139 4.05364 27.8569
585 2 2.2208 10.8237 1.26975 27.7432
437 1 -1.1104 3.91667 5.43515 20.8237
421 1 -1.1104 1.00691 5.44896 20.6425
423 1 -1.1104 0.908191 10.9306 21.0399
596 2 2.2208 5.32415 6.86203 22.1427
597 2 2.2208 5.27645 12.3989 22.1186
598 1 -1.1104 1.16408 8.44762 23.5502
600 1 -1.1104 0.950178 7.90715 26.4655
602 1 -1.1104 0.899651 5.49441 23.545
605 2 2.2208 5.35091 9.57629 24.8637
606 1 -1.1104 1.0823 5.31617 26.3979
607 1 -1.1104 1.11991 10.6748 26.4203
610 1 -1.1104 3.87899 8.0537 23.536
611 2 2.2208 2.40082 6.76305 25.0029
612 1 -1.1104 3.76108 8.51374 26.3567
613 2 2.2208 2.6195 9.52488 22.1426
614 1 -1.1104 3.73702 5.26589 23.859
615 1 -1.1104 3.88954 10.8421 23.5191
616 1 -1.1104 3.89307 5.62656 26.515
609 1 -1.1104 6.38214 10.936 26.3361
617 2 2.2208 5.09236 7.12733 27.8032
601 1 -1.1104 6.55598 8.01922 26.2603
414 1 -1.1104 6.7522 8.20062 20.7656
425 1 -1.1104 6.79204 5.42504 20.7427
645 2 2.2208 13.6045 12.4863 24.9421
465 1 -1.1104 9.57442 5.31856 20.8745
467 1 -1.1104 9.38382 10.9648 20.7331
453 1 -1.1104 12.347 5.46023 20.6521
603 1 -1.1104 6.68717 5.50344 23.6597
455 1 -1.1104 12.2925 10.905 20.758
448 1 -1.1104 12.2865 8.22562 20.8271
608 1 -1.1104 6.52128 5.47969 26.9548
599 1 -1.1104 6.69886 8.14728 23.6183
604 1 -1.1104 6.66196 10.9494 23.5383
624 1 -1.1104 9.40843 11.1783 26.5389
625 1 -1.1104 9.31428 5.45983 26.5149
626 1 -1.1104 9.51374 11.0211 23.6033
627 1 -1.1104 9.59664 5.43185 23.6302
628 2 2.2208 8.08849 9.61578 22.1716
629 1 -1.1104 9.36575 8.22397 26.5902
630 2 2.2208 8.04786 12.4709 24.8693
631 2 2.2208 8.21431 6.84784 25.0634
632 2 2.2208 11.0324 6.85121 22.2398
633 2 2.2208 10.9147 12.4055 22.1197
634 1 -1.1104 12.3768 8.31753 23.6505
635 1 -1.1104 12.1432 8.28637 26.6076
636 1 -1.1104 12.2938 5.36131 23.7031
637 1 -1.1104 12.1692 11.1077 23.5832
638 2 2.2208 10.8781 9.6342 25.0083
639 1 -1.1104 12.1815 5.40111 26.5043
640 1 -1.1104 12.0966 11.0371 26.3993
641 1 -1.1104 9.59805 8.14416 23.6999
496 1 -1.1104 3.90155 19.3435 20.7061
651 1 -1.1104 6.65897 16.6229 26.2132
477 1 -1.1104 1.04517 19.4201 20.8489
676 2 2.2208 -0.362204 20.7724 24.9058
500 1 -1.1104 3.94373 16.5713 20.8013
648 1 -1.1104 3.92756 19.5829 23.5836
650 1 -1.1104 3.93998 13.8241 23.3938
652 1 -1.1104 1.06982 19.5078 26.2681
653 1 -1.1104 1.14425 16.7159 26.4147
654 1 -1.1104 0.9371 13.9486 26.6586
656 2 2.2208 5.28886 20.9076 25.0796
657 2 2.2208 5.19511 15.1792 24.959
659 1 -1.1104 1.05159 19.4389 23.6528
660 1 -1.1104 0.913124 13.9268 23.4279
661 2 2.2208 5.30154 17.959 22.1425
662 1 -1.1104 3.81003 19.4149 26.4125
663 2 2.2208 2.53212 18.0467 24.9725
664 1 -1.1104 3.9652 16.5674 26.4813
665 1 -1.1104 4.04181 13.739 26.602
667 1 -1.1104 0.977836 16.6374 23.5368
668 1 -1.1104 3.81624 16.5999 23.6062
669 2 2.2208 2.60874 20.7306 22.0763
670 2 2.2208 2.46954 15.0915 22.1854
674 2 2.2208 -0.343896 15.1999 25.098
489 1 -1.1104 6.78656 16.5587 20.7557
481 1 -1.1104 6.63511 19.4713 20.8136
666 1 -1.1104 6.73663 16.6256 23.423
621 2 2.2208 10.8644 15.2153 24.8613
528 1 -1.1104 9.54195 19.3849 23.5107
508 1 -1.1104 12.2884 13.7613 20.6978
618 1 -1.1104 9.58313 13.9811 26.4425
365 2 2.2208 13.6948 15.2456 22.1461
643 2 2.2208 8.06616 20.8956 22.2994
619 1 -1.1104 9.50316 19.4429 26.332
510 1 -1.1104 12.3049 19.5493 20.6758
522 1 -1.1104 9.52711 19.536 20.6828
558 2 2.2208 13.73 20.8696 22.0895
649 1 -1.1104 6.72422 13.6674 26.4055
644 1 -1.1104 9.55434 16.6238 23.5886
502 1 -1.1104 9.4248 13.9233 23.5069
592 1 -1.1104 12.2941 19.5242 23.4942
557 2 2.2208 8.06706 18.0267 24.8393
588 1 -1.1104 12.2246 13.7221 23.5525
593 1 -1.1104 12.3371 13.8381 26.2509
527 1 -1.1104 9.52396 16.5619 20.6608
642 2 2.2208 8.1479 15.174 22.0998
646 1 -1.1104 9.52067 16.5817 26.3057
559 1 -1.1104 6.63676 19.4403 26.2899
594 1 -1.1104 12.1975 19.4622 26.3663
623 1 -1.1104 12.3729 16.5791 26.2354
655 1 -1.1104 6.6992 19.3482 23.5509
566 2 2.2208 10.8644 18.0016 22.1547
658 1 -1.1104 6.72834 13.8509 23.516
595 1 -1.1104 12.3644 16.6984 23.4843
622 2 2.2208 10.8739 20.8552 24.9435
369 2 2.2208 13.6525 18.1769 24.9129
326 2 2.2208 8.04017 15.281 27.7394
678 2 2.2208 5.21633 23.5858 5.26793
679 2 2.2208 5.19521 29.3473 5.06694
680 1 -1.1104 1.14883 25.1503 1.04454
681 1 -1.1104 1.01164 25.0756 3.76181
682 1 -1.1104 1.04987 22.2372 1.09801
683 1 -1.1104 0.94424 27.8997 1.06205
684 2 2.2208 5.23801 26.3823 2.56078
685 1 -1.1104 1.26014 22.2879 3.86454
686 1 -1.1104 0.665061 27.8951 3.7167
687 1 -1.1104 3.83446 24.9647 1.12143
688 2 2.2208 2.49771 23.6589 2.54636
689 2 2.2208 2.45049 29.2242 2.43028
690 1 -1.1104 3.89104 24.9798 3.95866
691 2 2.2208 2.28977 26.4817 5.39973
692 1 -1.1104 3.74218 22.1446 1.12053
693 1 -1.1104 3.71938 27.8571 0.900317
694 1 -1.1104 4.06773 22.0633 3.76678
695 1 -1.1104 3.62224 27.8676 3.73203
696 2 2.2208 -0.148759 29.4005 5.29176
9746 1 -1.1104 0.409631 27.8008 6.63102
698 2 2.2208 -0.405843 26.4043 2.43148
9884 2 2.2208 -0.293033 23.7519 5.24244
704 1 -1.1104 6.44968 27.9405 3.75448
822 1 -1.1104 6.59878 22.1969 6.65067
819 1 -1.1104 1.12999 24.9819 6.64352
1229 2 2.2208 5.22089 23.6955 -0.265413
1230 2 2.2208 2.44023 26.5216 -0.447038
699 1 -1.1104 6.64826 25.1262 1.1556
703 1 -1.1104 6.72306 22.2779 3.82374
701 1 -1.1104 6.70115 22.2026 1.12387
700 1 -1.1104 6.58978 25.102 4.04288
702 1 -1.1104 6.64448 27.7938 0.936725
705 2 2.2208 10.8886 23.6368 5.24692
706 2 2.2208 10.7544 29.2358 5.08829
707 1 -1.1104 12.2809 25.0805 0.933369
708 1 -1.1104 12.1366 24.9811 3.89309
709 1 -1.1104 12.3544 22.2584 1.20914
710 1 -1.1104 12.1942 27.7459 0.997925
711 2 2.2208 10.7997 26.3343 2.4106
712 1 -1.1104 12.2996 22.2508 3.99006
713 1 -1.1104 12.2265 27.7375 3.73917
714 1 -1.1104 9.55103 25.0256 1.04741
715 2 2.2208 8.06609 23.6382 2.48426
716 2 2.2208 7.9875 29.3291 2.35122
717 1 -1.1104 9.35944 25.0031 3.68864
718 2 2.2208 8.00372 26.3978 5.34703
719 1 -1.1104 9.47623 22.0821 1.19994
720 1 -1.1104 9.35426 27.782 1.03733
721 1 -1.1104 9.53562 22.348 3.99395
722 1 -1.1104 9.44194 27.7286 3.82303
1259 2 2.2208 10.8306 23.6643 -0.381504
1008 2 2.2208 10.8578 29.3734 -0.376745
854 1 -1.1104 9.39278 27.8709 6.51947
823 1 -1.1104 6.6758 28.003 6.51596
9888 2 2.2208 13.5405 26.3778 5.17159
9887 2 2.2208 13.5426 29.3029 2.48027
1260 2 2.2208 8.13393 26.4802 -0.41729
727 2 2.2208 5.19425 34.9435 5.2997
728 1 -1.1104 0.947866 30.8084 0.93276
729 1 -1.1104 0.795282 36.2633 1.0236
731 1 -1.1104 1.13825 30.6238 3.75205
732 1 -1.1104 1.11753 36.3601 3.8165
734 1 -1.1104 1.04391 33.6732 1.06434
735 2 2.2208 5.33041 32.0546 2.32952
736 2 2.2208 5.12561 37.7799 2.38448
737 1 -1.1104 0.956704 33.5015 3.91417
739 1 -1.1104 3.86256 30.6828 1.14721
740 1 -1.1104 3.83974 36.3288 0.997726
741 2 2.2208 2.425 34.9375 2.4625
742 1 -1.1104 3.82627 30.7597 3.74599
743 1 -1.1104 3.88855 36.2821 3.77507
744 2 2.2208 2.52615 32.1487 5.27551
745 2 2.2208 2.45432 37.7149 5.30198
746 1 -1.1104 3.75108 33.5249 0.999042
747 1 -1.1104 3.83265 33.5645 3.8743
879 1 -1.1104 4.08673 30.9803 6.37309
1009 2 2.2208 2.42027 37.7229 -0.268024
9889 2 2.2208 -0.323195 32.0284 2.47239
1010 2 2.2208 5.34697 34.8986 -0.264695
751 1 -1.1104 6.67999 30.7613 3.80982
873 1 -1.1104 0.859433 31.0337 6.44333
752 1 -1.1104 6.54251 33.4121 1.08337
726 2 2.2208 -0.336755 34.9266 5.24744
874 1 -1.1104 0.916158 36.4501 6.67799
881 1 -1.1104 3.78964 33.749 6.76085
730 1 -1.1104 6.67627 36.1148 1.15336
738 1 -1.1104 6.61133 33.4586 3.92415
733 1 -1.1104 6.58766 36.2474 3.91727
750 1 -1.1104 6.58619 30.5817 0.982791
753 2 2.2208 10.8755 34.9618 5.23497
754 1 -1.1104 12.3418 30.7172 1.02543
755 1 -1.1104 12.2784 36.2226 1.11358
756 1 -1.1104 12.102 30.774 3.81404
757 1 -1.1104 12.3497 36.3725 3.87526
758 1 -1.1104 12.4063 33.4888 1.03475
759 2 2.2208 10.8632 32.1071 2.43766
760 2 2.2208 11.0648 37.8294 2.49689
761 1 -1.1104 12.4521 33.5584 3.86706
762 1 -1.1104 9.49065 30.615 1.103
763 1 -1.1104 9.46041 36.1727 1.0184
764 2 2.2208 8.01686 34.8988 2.58796
765 1 -1.1104 9.44363 30.5724 3.76197
766 1 -1.1104 9.43592 36.2639 3.76784
767 2 2.2208 8.07537 32.0055 5.20286
768 2 2.2208 8.09779 37.8739 5.31985
769 1 -1.1104 9.48766 33.4129 1.00412
770 1 -1.1104 9.43504 33.2999 3.74583
1011 2 2.2208 8.0371 37.696 -0.110432
910 1 -1.1104 9.47796 30.7069 6.62023
907 1 -1.1104 12.2194 30.6255 6.62741
1013 2 2.2208 10.8325 34.9551 -0.311143