ITEM: TIMESTEP
20000
ITEM: NUMBER OF ATOMS
17820
ITEM: BOX BOUNDS pp pp pp
-3.6604168776222706e-01 2.7706041687762241e+01
-4.4034275180126849e+00 3.3248342751801664e+02
-3.6299355815265039e-01 2.7702993558152603e+01
ITEM: ATOMS id type q x y z
1 2 2.2208 5.176 1.04812 5.19582
2 1 -1.1104 1.18411 -2.97928 1.12714
3 1 -1.1104 1.07393 2.50956 1.22615
6 1 -1.1104 0.987454 -2.97777 3.76563
7 1 -1.1104 0.859557 2.57043 3.95317
10 1 -1.1104 1.06434 -0.340416 1.10766
12 2 2.2208 5.37809 -1.63119 2.50574
13 2 2.2208 5.25133 3.92559 2.64898
14 1 -1.1104 1.07389 -0.110813 3.87221
16 1 -1.1104 3.9346 -3.10061 1.08521
17 1 -1.1104 3.85686 2.59183 1.09766
18 2 2.2208 2.46168 1.08972 2.44008
19 1 -1.1104 3.8246 -3.12579 3.97174
20 1 -1.1104 3.78783 2.58961 3.80578
21 2 2.2208 2.39662 -1.7214 5.27411
22 2 2.2208 2.47167 3.91749 5.11763
23 1 -1.1104 3.85266 -0.283823 0.983179
24 1 -1.1104 3.88818 -0.361968 3.88066
4 1 -1.1104 6.72808 -2.98232 1.08869
169 1 -1.1104 3.9458 -3.08979 6.60744
165 1 -1.1104 6.75107 -3.10751 6.79729
164 1 -1.1104 1.16125 2.49797 6.61302
166 1 -1.1104 6.72387 2.44516 6.73666
15 1 -1.1104 6.78961 -0.45884 3.81999
198 1 -1.1104 12.234 16.478 9.45724
170 1 -1.1104 4.01078 2.52358 6.63025
9211 2 2.2208 -0.421326 1.18914 5.32021
28 2 2.2208 -0.327266 3.97501 2.49076
563 2 2.2208 -0.298646 1.12329 -0.361246
11 1 -1.1104 6.64824 -0.0935558 1.03809
8 1 -1.1104 6.5256 -3.1699 3.87147
9 1 -1.1104 6.69394 2.26274 3.94268
5 1 -1.1104 6.73393 2.90794 1.14168
31 2 2.2208 10.9385 1.09924 5.28785
32 1 -1.1104 12.4127 -3.10869 1.03908
33 1 -1.1104 12.4037 2.45882 1.04235
34 1 -1.1104 11.9531 -3.14011 3.87749
35 1 -1.1104 12.3155 2.49359 3.75403
36 1 -1.1104 12.3401 -0.277004 0.998347
37 2 2.2208 10.9063 -1.58066 2.4838
38 2 2.2208 10.9612 3.9001 2.31839
39 1 -1.1104 12.3917 -0.342887 3.83576
40 1 -1.1104 9.57184 -3.14844 0.976872
41 1 -1.1104 9.59989 2.51703 1.07203
42 2 2.2208 8.12404 1.20293 2.44606
43 1 -1.1104 9.31459 -3.04994 3.86357
44 1 -1.1104 9.58652 2.77951 3.91505
45 2 2.2208 8.03014 -1.71863 5.28661
46 2 2.2208 8.0434 3.79018 5.31206
47 1 -1.1104 9.56457 -0.120759 0.953262
48 1 -1.1104 9.54902 -0.133789 3.81047
206 1 -1.1104 9.54241 -0.462011 6.58496
204 1 -1.1104 9.54531 -3.23221 6.7487
199 2 2.2208 13.5631 20.842 10.8365
197 2 2.2208 10.9264 20.7444 8.05086
205 1 -1.1104 9.5641 2.45576 6.70114
168 1 -1.1104 6.51634 -0.329732 6.6986
54 2 2.2208 5.41861 6.74429 5.23043
55 2 2.2208 5.38056 12.2617 5.17224
56 1 -1.1104 1.06099 8.1112 1.04927
58 1 -1.1104 0.893202 8.21711 3.79859
60 1 -1.1104 1.08158 5.41508 1.26138
61 1 -1.1104 0.923333 10.826 1.11516
65 2 2.2208 5.29214 9.57013 2.32785
66 1 -1.1104 0.949701 5.42137 3.94247
67 1 -1.1104 1.15298 10.9254 3.84326
70 1 -1.1104 3.74874 8.36388 1.0125
71 2 2.2208 2.48944 6.74572 2.63774
72 2 2.2208 2.52762 12.4124 2.50244
73 1 -1.1104 3.6872 8.15439 3.88043
74 2 2.2208 2.50846 9.52079 5.26972
75 1 -1.1104 4.16757 5.40234 0.869284
76 1 -1.1104 3.827 11.0754 0.736982
78 1 -1.1104 3.899 5.25731 3.86186
79 1 -1.1104 3.94734 10.9957 3.66618
327 2 2.2208 2.22609 9.65422 -0.33623
59 1 -1.1104 6.46415 8.23785 3.78495
57 1 -1.1104 6.57351 8.1504 0.736368
63 1 -1.1104 6.73234 11.0723 0.917647
69 1 -1.1104 6.825 10.868 3.60739
77 1 -1.1104 4.13332 10.8383 6.52406
62 1 -1.1104 1.34218 11.0574 6.42132
234 1 -1.1104 3.92525 8.06278 6.57964
64 1 -1.1104 6.79467 10.9677 6.50598
81 1 -1.1104 12.3235 16.4459 12.192
227 2 2.2208 8.14748 17.9801 8.03403
235 1 -1.1104 3.96049 5.29475 6.6956
313 2 2.2208 8.2419 15.1167 10.699
68 1 -1.1104 6.84246 5.04448 3.93021
83 2 2.2208 10.9263 6.91867 5.15
84 2 2.2208 11.1248 12.4808 5.16493
85 1 -1.1104 12.3492 7.98652 0.909346
86 1 -1.1104 12.4624 8.16247 3.72322
87 1 -1.1104 12.2536 5.28396 1.00338
88 1 -1.1104 12.3082 10.8856 1.04257
90 2 2.2208 10.8911 9.44236 2.40844
91 1 -1.1104 12.0124 5.25222 3.84316
92 1 -1.1104 12.2963 10.8382 3.82307
93 1 -1.1104 9.69851 8.2123 0.612633
94 2 2.2208 8.18937 12.3911 2.32892
95 1 -1.1104 9.67969 8.24977 3.97792
96 2 2.2208 8.1617 9.60035 5.13494
97 1 -1.1104 9.50019 5.25576 1.0638
98 1 -1.1104 9.55813 10.9952 1.0655
100 1 -1.1104 9.61816 11.0346 3.8632
265 1 -1.1104 9.46038 5.2798 6.15818
99 1 -1.1104 9.50606 10.891 6.57227
233 1 -1.1104 6.68151 5.24427 6.72285
231 1 -1.1104 6.82803 8.16857 6.66371
89 1 -1.1104 12.2985 10.8906 6.64699
8524 2 2.2208 10.8281 -4.33877 10.8693
17454 2 2.2208 13.6055 -4.32693 8.07287
308 1 -1.1104 9.4073 19.5579 9.39055
103 2 2.2208 5.31035 18.0085 5.20421
104 1 -1.1104 1.09511 13.6745 1.10455
106 1 -1.1104 1.21053 19.5063 0.947814
110 1 -1.1104 1.07041 13.8495 3.92957
111 1 -1.1104 1.13856 19.2816 3.89546
113 1 -1.1104 1.10459 16.4755 0.980493
116 2 2.2208 5.25864 15.2051 2.33739
117 2 2.2208 5.44118 20.6022 2.4437
118 1 -1.1104 1.19798 16.5684 3.85103
120 1 -1.1104 3.78774 13.8903 1.03348
122 1 -1.1104 3.99858 19.3474 1.04307
124 2 2.2208 2.56352 17.9948 2.40769
125 1 -1.1104 3.93765 13.8082 3.72536
126 1 -1.1104 3.92038 19.4276 3.81195
127 2 2.2208 2.63945 15.2655 5.19096
128 2 2.2208 2.41859 20.7201 5.18937
129 1 -1.1104 3.82252 16.6484 1.04155
131 1 -1.1104 3.99923 16.6501 3.91269
172 2 2.2208 -0.342046 -4.37197 10.9089
132 2 2.2208 -0.338121 15.0629 2.36398
133 2 2.2208 -0.270858 20.7188 2.45336
298 1 -1.1104 0.97146 19.1653 6.66043
135 1 -1.1104 6.89219 19.3329 1.0554
114 1 -1.1104 1.03032 16.4994 6.75546
123 1 -1.1104 3.81098 19.2681 6.69775
105 1 -1.1104 1.06154 13.8167 6.70139
130 1 -1.1104 3.97781 16.5937 6.76148
137 1 -1.1104 6.75408 16.6363 0.882072
119 1 -1.1104 6.65117 16.5655 3.69834
136 1 -1.1104 6.77588 19.1555 3.93111
107 1 -1.1104 6.67878 13.8601 1.12449
112 1 -1.1104 6.79337 13.6989 3.85397
138 2 2.2208 10.9505 17.9308 5.18953
139 1 -1.1104 12.2309 13.7618 0.937446
141 1 -1.1104 12.4332 19.4506 1.08843
143 1 -1.1104 12.4923 13.5995 3.7308
144 1 -1.1104 12.5069 19.2575 3.76789
145 1 -1.1104 12.3837 16.6523 1.02514
147 2 2.2208 10.9187 15.0884 2.46825
148 2 2.2208 10.9285 20.7881 2.3624
149 1 -1.1104 12.3157 16.4511 3.7884
150 1 -1.1104 9.6348 13.7678 1.07731
152 1 -1.1104 9.67489 19.2312 1.0875
154 2 2.2208 8.15257 17.8464 2.38877
155 1 -1.1104 9.66762 13.8999 3.88089
156 1 -1.1104 9.68748 19.4639 3.80911
157 2 2.2208 8.07973 15.1156 5.21751
158 2 2.2208 8.10942 20.8726 5.22959
159 1 -1.1104 9.60376 16.4794 1.09574
161 1 -1.1104 9.39219 16.5715 3.94837
115 1 -1.1104 6.95562 16.8252 6.53589
146 1 -1.1104 12.3543 16.5329 6.65946
151 1 -1.1104 9.59305 13.7691 6.5097
142 1 -1.1104 12.3824 19.3086 6.52461
160 1 -1.1104 9.64742 16.4211 6.69117
153 1 -1.1104 9.65258 19.2374 6.49532
140 1 -1.1104 12.4701 13.8039 6.61067
108 1 -1.1104 6.68939 13.8149 6.70294
564 2 2.2208 10.8935 17.8322 -0.338664
9215 2 2.2208 -0.289633 3.9511 7.97604
171 1 -1.1104 3.75568 -0.318351 6.49689
167 1 -1.1104 1.02558 -0.335275 6.66934
163 1 -1.1104 1.01234 -3.13766 6.50639
173 2 2.2208 5.25058 1.10652 10.8789
174 1 -1.1104 1.05601 -2.69542 12.1399
175 1 -1.1104 0.812953 2.66013 11.9561
178 1 -1.1104 1.04478 -3.09367 9.37592
179 1 -1.1104 1.01235 2.57306 9.19849
183 2 2.2208 5.2476 -1.67677 8.02643
184 2 2.2208 5.21245 3.94786 8.09555
185 1 -1.1104 1.30365 -0.206546 9.5957
187 1 -1.1104 3.97653 -3.23103 12.129
188 1 -1.1104 4.11931 2.68632 12.0208
189 2 2.2208 2.58876 1.02845 7.96602
190 1 -1.1104 3.79742 -3.03061 9.33009
191 1 -1.1104 3.79991 2.65118 9.32711
192 2 2.2208 2.67921 -1.60668 10.7168
193 2 2.2208 2.44866 4.01533 10.863
194 1 -1.1104 3.97018 -0.456343 12.131
195 1 -1.1104 3.9222 -0.268832 9.32067
316 2 2.2208 5.27318 -1.68655 13.5108
182 1 -1.1104 6.67645 -0.274764 12.235
186 1 -1.1104 6.70355 -0.36414 9.42704
176 1 -1.1104 6.73061 -2.94147 12.1995
180 1 -1.1104 6.66925 -3.03129 9.50212
196 2 2.2208 11.0173 15.2142 7.8976
202 1 -1.1104 12.2348 2.59031 6.67604
9220 2 2.2208 13.7081 -1.67688 10.8073
203 1 -1.1104 12.3541 -0.120336 6.40813
201 1 -1.1104 12.2844 -3.01303 6.74374
181 1 -1.1104 6.68081 2.40014 9.48583
177 1 -1.1104 6.83191 2.64688 12.2912
208 2 2.2208 10.9284 1.14579 10.8313
209 1 -1.1104 12.113 -2.91938 12.3713
210 1 -1.1104 12.2257 2.59681 12.2236
211 1 -1.1104 12.34 -2.87889 9.57829
212 1 -1.1104 12.3036 2.61483 9.50815
213 1 -1.1104 12.3626 -0.287647 12.0152
214 2 2.2208 10.8604 -1.67899 8.01387
215 2 2.2208 10.8706 4.02045 7.92817
216 1 -1.1104 12.2118 -0.242819 9.22002
217 1 -1.1104 9.51084 -2.85985 12.2773
218 1 -1.1104 9.44549 2.67336 12.2802
219 2 2.2208 8.11536 0.999428 8.15085
220 1 -1.1104 9.52845 -3.07712 9.465
221 1 -1.1104 9.57509 2.59491 9.45793
222 2 2.2208 8.0883 -1.67276 10.8903
223 2 2.2208 7.98052 3.97992 10.7538
224 1 -1.1104 9.41095 -0.0669387 12.3082
225 1 -1.1104 9.44817 -0.365972 9.4025
322 2 2.2208 -0.269524 3.84749 13.6433
9219 2 2.2208 13.6536 1.08711 7.9249
9260 2 2.2208 13.6358 1.13714 13.5708
228 2 2.2208 -0.290274 9.6147 8.04168
230 1 -1.1104 1.0534 8.29173 6.69318
9221 2 2.2208 -0.216523 6.73537 -0.284773
50 1 -1.1104 12.3514 13.864 9.34842
200 2 2.2208 -0.318546 6.76152 10.8744
232 1 -1.1104 1.0935 5.28058 6.60008
236 2 2.2208 5.31878 6.70109 10.7632
237 2 2.2208 5.18175 12.4262 10.8347
238 1 -1.1104 1.04467 8.2496 12.1173
240 1 -1.1104 1.07745 8.25119 9.36133
242 1 -1.1104 1.00952 5.35911 12.3565
243 1 -1.1104 1.08669 11.0269 12.3275
246 2 2.2208 5.37546 9.51698 8.12924
247 1 -1.1104 0.948887 5.28157 9.42054
248 1 -1.1104 1.05274 10.9677 9.3006
251 1 -1.1104 3.79217 8.1719 12.2517
252 2 2.2208 2.48647 6.70162 7.90167
253 2 2.2208 2.45782 12.3699 7.92354
254 1 -1.1104 3.88718 8.04869 9.40046
255 2 2.2208 2.51257 9.46773 10.7744
256 1 -1.1104 3.83347 5.38566 12.3415
257 1 -1.1104 3.89569 10.9838 12.1996
258 1 -1.1104 3.80256 5.35861 9.52397
259 1 -1.1104 3.81475 11.0156 9.46739
241 1 -1.1104 6.69914 8.11414 9.3878
442 2 2.2208 2.46285 6.83052 13.6408
314 2 2.2208 13.5424 3.87497 5.27778
441 2 2.2208 5.26524 9.63991 13.5965
261 1 -1.1104 12.2516 8.22875 6.67106
443 2 2.2208 8.10487 12.3783 13.6095
239 1 -1.1104 6.60972 8.22928 12.2336
244 1 -1.1104 6.64534 5.3981 12.2089
262 1 -1.1104 12.2763 5.40962 6.60514
249 1 -1.1104 6.59372 5.28022 9.39025
245 1 -1.1104 6.72953 11.0509 12.264
250 1 -1.1104 6.59445 10.9562 9.45001
263 1 -1.1104 9.57742 8.12407 6.69461
260 1 -1.1104 9.49085 10.8539 9.48581
264 1 -1.1104 9.42335 5.42248 9.16535
266 1 -1.1104 9.42709 10.8954 12.2597
267 1 -1.1104 9.39251 5.46234 12.1892
268 2 2.2208 8.05356 9.61217 10.8647
269 1 -1.1104 9.3109 8.23839 9.35674
270 2 2.2208 8.18109 12.3985 7.95858
271 2 2.2208 8.05415 6.81927 7.95289
272 2 2.2208 10.8056 6.78544 10.7529
273 2 2.2208 10.8723 12.2656 10.9
274 1 -1.1104 12.2842 8.23404 12.3475
275 1 -1.1104 12.2054 8.27046 9.48298
276 1 -1.1104 12.1918 5.55664 11.9746
277 1 -1.1104 12.1676 10.93 12.1824
278 2 2.2208 10.8556 9.61268 8.00523
279 1 -1.1104 12.2379 5.33207 9.37465
280 1 -1.1104 12.2836 11.2529 9.21623
281 1 -1.1104 9.32959 8.23607 12.2567
319 2 2.2208 7.96699 6.74823 13.6896
468 2 2.2208 10.6785 9.536 13.6578
109 1 -1.1104 6.77048 19.56 6.77944
27 1 -1.1104 12.3544 19.2328 12.1708
80 1 -1.1104 12.196 19.5096 9.49747
323 2 2.2208 5.13476 20.7086 13.61
321 2 2.2208 2.22985 18.0372 13.5695
121 1 -1.1104 3.92978 13.7395 6.57339
282 1 -1.1104 3.75329 19.3102 12.0801
283 1 -1.1104 3.88465 13.9737 12.1649
287 1 -1.1104 1.01106 19.2653 9.45727
288 1 -1.1104 1.0618 16.5754 9.44009
289 2 2.2208 5.25015 20.7325 7.95275
290 1 -1.1104 1.05819 13.7683 9.51104
291 2 2.2208 5.24776 15.0844 8.10396
294 1 -1.1104 0.934268 19.425 12.192
295 1 -1.1104 0.986954 13.7823 12.2565
296 2 2.2208 5.2425 17.8896 10.8594
297 1 -1.1104 3.77348 19.4344 9.353
299 2 2.2208 2.47523 17.8664 7.99084
300 1 -1.1104 3.81695 16.4433 9.675
301 1 -1.1104 3.85304 13.7476 9.38459
303 1 -1.1104 0.984848 16.6256 12.282
304 1 -1.1104 3.84843 16.5868 12.6329
305 2 2.2208 2.33253 20.6413 10.7427
306 2 2.2208 2.31531 15.15 10.8163
292 1 -1.1104 6.55859 19.2015 12.7422
320 2 2.2208 5.40277 15.3069 13.6096
302 1 -1.1104 6.71919 16.4399 11.9734
284 1 -1.1104 6.73532 19.287 9.62249
285 1 -1.1104 6.70295 16.4708 9.2815
400 2 2.2208 -0.260643 15.0987 13.6631
207 1 -1.1104 9.48802 13.6042 12.1808
293 1 -1.1104 6.64445 13.7943 12.3508
310 1 -1.1104 9.47689 16.724 9.56698
26 1 -1.1104 12.3078 13.6262 12.2339
311 1 -1.1104 9.66014 16.3691 12.2717
9130 2 2.2208 13.6298 9.71894 10.7434
226 1 -1.1104 9.52912 19.2012 12.0452
25 2 2.2208 10.9987 17.8936 10.7937
286 1 -1.1104 6.70645 13.6424 9.44188
312 2 2.2208 8.06324 20.8668 10.8316
307 1 -1.1104 9.56408 13.8068 9.36204
565 2 2.2208 8.38885 20.7493 -0.241989
373 2 2.2208 5.1923 3.9121 13.6272
318 2 2.2208 10.8914 4.05713 13.4107
529 2 2.2208 10.8092 20.5633 13.6605
324 2 2.2208 8.15904 17.7492 13.4384
503 2 2.2208 13.6808 17.8832 13.6954
325 2 2.2208 2.51834 4.14197 -0.337582
406 2 2.2208 13.6134 12.355 13.5671
555 2 2.2208 5.3092 1.2131 -0.242323
556 2 2.2208 2.43143 -1.69659 -0.343342
370 2 2.2208 13.703 15.1506 -0.250118
585 2 2.2208 10.9453 1.08792 -0.402506
587 2 2.2208 8.15207 3.92218 -0.377778
328 2 2.2208 5.35871 12.4119 -0.276361
671 2 2.2208 2.59717 20.7504 -0.33981
326 2 2.2208 8.15382 15.1563 -0.326619
333 2 2.2208 5.28931 1.14774 16.3503
334 1 -1.1104 1.05784 -3.06371 17.8246
335 1 -1.1104 1.05083 2.4967 17.9359
338 1 -1.1104 1.00422 -3.09068 15.055
340 1 -1.1104 0.884528 2.75593 15.2522
346 1 -1.1104 0.915707 -0.226644 17.9948
348 2 2.2208 5.26848 -1.56341 19.1804
349 2 2.2208 5.25973 3.8714 19.2142
350 1 -1.1104 1.21898 -0.396403 15.0751
354 1 -1.1104 3.9579 -2.95392 17.7744
355 1 -1.1104 3.81327 2.48927 18.028
356 2 2.2208 2.34932 1.15346 19.3038
357 1 -1.1104 3.88019 -2.83536 14.8431
359 1 -1.1104 4.01083 2.5698 15.1474
361 2 2.2208 2.38846 -1.82939 16.4365
362 2 2.2208 2.42322 3.81586 16.4238
363 1 -1.1104 3.84842 -0.33845 17.3494
352 1 -1.1104 6.31768 -0.324419 15.0302
8528 2 2.2208 10.9567 -4.3793 27.684
364 1 -1.1104 3.84427 -0.26114 20.5905
358 1 -1.1104 3.85395 -2.88756 20.556
341 1 -1.1104 0.93407 2.61055 20.7
336 1 -1.1104 6.67294 -2.96563 17.846
347 1 -1.1104 6.63457 -0.250168 17.9674
342 1 -1.1104 6.57533 -3.05298 14.9899
343 1 -1.1104 6.57289 -3.15403 20.5833
339 1 -1.1104 1.17094 -2.92792 20.5187
351 1 -1.1104 0.988217 -0.191742 20.8872
399 2 2.2208 10.8741 -4.41269 16.5002
337 1 -1.1104 6.59366 2.42224 17.8415
344 1 -1.1104 6.64437 2.5589 15.0851
374 2 2.2208 10.7981 1.29238 16.3774
375 1 -1.1104 12.2909 -2.96457 17.7651
376 1 -1.1104 12.2465 2.53275 17.8925
377 1 -1.1104 12.3615 -2.9557 15.1155
379 1 -1.1104 12.279 2.65107 14.8174
381 1 -1.1104 12.2626 -0.228658 17.6692
382 2 2.2208 10.8269 -1.66774 19.2271
383 2 2.2208 10.8726 3.88236 19.284
384 1 -1.1104 12.0769 -0.228514 14.8633
386 1 -1.1104 9.34499 -2.99809 17.693
387 1 -1.1104 9.50378 2.45248 17.892
388 2 2.2208 8.06003 1.13419 19.3463
389 1 -1.1104 9.39028 -2.98404 15.1077
391 1 -1.1104 9.42946 2.5803 15.0975
393 2 2.2208 8.11028 -1.63578 16.5499
394 2 2.2208 8.06824 3.95554 16.4527
395 1 -1.1104 9.5672 -0.230721 17.9674
396 1 -1.1104 9.34135 -0.151336 15.1743
366 2 2.2208 5.20477 -4.37863 16.3688
392 1 -1.1104 9.37191 2.43478 20.559
390 1 -1.1104 9.65558 -3.20314 20.4925
385 1 -1.1104 12.299 -0.30654 20.5162
644 1 -1.1104 9.50086 16.4811 23.45
353 1 -1.1104 6.70808 -0.208057 20.7599
345 1 -1.1104 6.58451 2.54244 20.7111
397 1 -1.1104 9.48264 -0.442393 20.7714
380 1 -1.1104 12.1557 2.46526 20.7488
378 1 -1.1104 12.3799 -2.95785 20.6626
619 1 -1.1104 9.80088 19.4334 26.2935
407 2 2.2208 5.18207 6.67289 16.4842
408 2 2.2208 5.24376 12.3683 16.3925
409 1 -1.1104 1.04403 8.20067 18.1696
411 1 -1.1104 0.922445 8.29607 15.1356
415 1 -1.1104 1.01611 5.33445 17.9335
416 1 -1.1104 1.07962 10.9382 17.9624
419 2 2.2208 5.4399 9.57463 19.1465
420 1 -1.1104 1.10565 5.43533 15.1745
422 1 -1.1104 1.10687 10.9935 15.2538
428 1 -1.1104 3.92605 8.1779 17.9482
429 2 2.2208 2.53266 6.81921 19.3948
430 2 2.2208 2.41691 12.2984 19.1585
431 1 -1.1104 3.79159 8.31111 15.159
433 2 2.2208 2.47356 9.57229 16.6421
434 1 -1.1104 3.79614 5.30803 17.8972
435 1 -1.1104 3.99695 10.8251 17.7222
436 1 -1.1104 3.79676 5.52695 15.0564
438 1 -1.1104 3.81228 11.1201 14.9468
417 1 -1.1104 6.6152 5.22616 17.8029
412 1 -1.1104 1.04674 8.26639 20.8716
439 1 -1.1104 3.90987 10.7678 20.5674
418 1 -1.1104 6.78164 10.758 17.6614
372 2 2.2208 -0.312018 6.79179 16.6056
432 1 -1.1104 3.86321 8.14317 20.755
566 2 2.2208 10.8653 17.9086 22.1129
424 1 -1.1104 6.58119 5.39704 14.9791
410 1 -1.1104 6.79726 8.05415 17.7171
413 1 -1.1104 6.51795 8.12416 14.9818
426 1 -1.1104 6.48056 10.8841 14.9762
444 2 2.2208 10.8367 6.79375 16.3044
445 2 2.2208 10.852 12.5024 16.5991
446 1 -1.1104 12.2631 8.02905 17.9123
447 1 -1.1104 12.1467 8.11236 15.0541
449 1 -1.1104 12.1179 5.27436 17.7376
450 1 -1.1104 12.3406 10.9574 17.8644
451 2 2.2208 10.9022 9.47085 19.2206
452 1 -1.1104 12.0618 5.46618 14.8837
454 1 -1.1104 12.3189 11.0789 15.0517
456 1 -1.1104 9.40792 8.03172 17.6849
457 2 2.2208 8.13602 6.69041 19.2074
458 2 2.2208 8.19674 12.3462 19.2608
459 1 -1.1104 9.29207 8.1959 14.9819
461 2 2.2208 8.00878 9.48094 16.2995
462 1 -1.1104 9.36529 5.2182 17.9663
463 1 -1.1104 9.57408 10.8979 17.8517
464 1 -1.1104 9.31403 5.31082 14.9735
466 1 -1.1104 9.45492 11.0881 15.0778
455 1 -1.1104 12.4484 11.0756 20.7745
453 1 -1.1104 12.258 5.30107 20.5466
460 1 -1.1104 9.45402 8.09672 20.6539
465 1 -1.1104 9.56831 5.28612 20.6028
401 2 2.2208 -0.366486 17.9348 16.4124
589 2 2.2208 -0.299432 20.8223 19.209
470 1 -1.1104 1.04371 13.7578 17.792
471 1 -1.1104 0.950348 19.3993 17.6088
474 1 -1.1104 0.964978 13.73 15.1614
476 1 -1.1104 0.987539 19.4954 14.9767
482 1 -1.1104 1.11133 16.5339 17.7839
484 2 2.2208 5.28727 14.9546 19.2334
485 2 2.2208 5.31408 20.7092 19.2329
486 1 -1.1104 1.20279 16.5648 14.9473
490 1 -1.1104 3.68098 13.5679 17.7311
491 1 -1.1104 3.65703 19.4251 17.8784
492 2 2.2208 2.53269 17.9635 19.1695
493 1 -1.1104 3.92958 14.2305 15.0262
495 1 -1.1104 3.68924 19.424 14.7659
497 2 2.2208 2.40123 15.088 16.5907
498 2 2.2208 2.47356 20.782 16.4271
499 1 -1.1104 3.76498 16.3369 17.8644
9442 2 2.2208 -0.353563 15.1602 19.1989
494 1 -1.1104 3.91488 13.4825 20.5447
472 1 -1.1104 6.56421 13.4974 17.8461
489 1 -1.1104 6.64928 16.3574 20.8573
475 1 -1.1104 1.02547 13.8048 20.5173
487 1 -1.1104 1.01835 16.5114 20.795
478 1 -1.1104 6.69681 13.6802 15.1448
483 1 -1.1104 6.85254 16.1359 18.0579
473 1 -1.1104 6.84867 19.4084 17.8028
488 1 -1.1104 6.76418 16.4716 14.8311
504 2 2.2208 10.8836 17.8947 16.5786
505 1 -1.1104 12.3347 13.7568 17.8351
506 1 -1.1104 12.3325 19.3556 17.8943
507 1 -1.1104 12.2354 13.7878 14.9735
509 1 -1.1104 12.0857 19.1952 15.1134
511 1 -1.1104 12.3199 16.5338 17.8711
512 2 2.2208 10.7725 15.0564 19.3044
513 2 2.2208 10.9731 20.6315 19.3092
514 1 -1.1104 12.3865 16.4198 14.9872
516 1 -1.1104 9.23146 13.8801 17.9413
517 1 -1.1104 9.47187 19.4621 17.7879
518 2 2.2208 8.05208 17.9188 19.3113
519 1 -1.1104 9.41626 13.7976 15.1216
521 1 -1.1104 8.97972 19.559 14.8746
523 2 2.2208 8.07478 15.1754 16.4977
524 2 2.2208 8.14033 20.8677 16.5961
525 1 -1.1104 9.57884 16.563 17.9466
526 1 -1.1104 9.60872 16.6071 14.9971
9255 2 2.2208 -0.365513 12.4846 21.9658
510 1 -1.1104 12.3111 19.1622 20.603
527 1 -1.1104 9.4266 16.5511 20.7389
508 1 -1.1104 12.2589 13.6619 20.7431
520 1 -1.1104 9.55603 13.7487 20.6408
481 1 -1.1104 6.80607 19.2012 20.6146
515 1 -1.1104 12.2633 16.3384 20.8014
479 1 -1.1104 6.70568 13.5648 20.6761
522 1 -1.1104 9.68034 19.182 20.4655
594 1 -1.1104 12.4175 19.3687 26.2139
590 2 2.2208 13.6083 20.7048 16.5154
9473 2 2.2208 -0.252775 3.97348 24.9581
480 2 2.2208 13.6545 9.63459 16.4147
9471 2 2.2208 -0.327553 1.21104 22.1246
368 2 2.2208 -0.276901 1.10788 16.385
17560 2 2.2208 -0.309037 -4.38399 21.9961
593 1 -1.1104 12.2307 13.5824 26.2489
360 1 -1.1104 3.70625 2.54666 20.792
531 2 2.2208 5.21356 1.15603 22.1031
532 1 -1.1104 0.930204 -2.99017 23.4144
533 1 -1.1104 0.990044 2.74154 23.4785
536 1 -1.1104 1.12955 -3.03502 26.2661
537 1 -1.1104 1.08861 2.66658 26.5065
540 1 -1.1104 1.18805 -0.289126 23.4519
542 2 2.2208 5.24755 -1.76646 25.0018
543 2 2.2208 5.24733 4.02347 24.9336
544 1 -1.1104 1.05139 -0.218946 26.3295
546 1 -1.1104 3.88563 -3.06807 23.4074
547 1 -1.1104 3.91392 2.53357 23.5963
548 2 2.2208 2.6384 1.15937 24.995
549 1 -1.1104 3.89531 -3.019 26.3712
550 1 -1.1104 3.88135 2.69414 26.4496
551 2 2.2208 2.6002 -1.69533 22.0181
552 2 2.2208 2.33731 4.04676 21.9894
553 1 -1.1104 3.84883 -0.202588 23.498
554 1 -1.1104 3.79649 -0.344623 26.32
9406 2 2.2208 -0.287294 -1.70172 19.304
9262 2 2.2208 13.6566 1.15267 19.1304
534 1 -1.1104 6.63044 -3.08786 23.4827
541 1 -1.1104 6.68056 -0.388231 23.5917
9256 2 2.2208 13.5532 4.02859 16.3692
535 1 -1.1104 6.80137 2.58073 23.4253
545 1 -1.1104 6.62227 -0.211161 26.2868
538 1 -1.1104 6.64656 -3.14896 26.3402
539 1 -1.1104 6.71845 2.62978 26.257
567 2 2.2208 10.9325 0.965211 22.0984
568 1 -1.1104 12.4684 -3.0191 23.5031
569 1 -1.1104 12.1324 2.38122 23.5728
570 1 -1.1104 12.3833 -3.10467 26.2614
571 1 -1.1104 12.436 2.40348 26.4034
572 1 -1.1104 12.2754 -0.414753 23.363
573 2 2.2208 10.984 -1.78029 24.7525
574 2 2.2208 11.0065 3.90738 24.9172
575 1 -1.1104 12.2702 -0.374407 26.2365
576 1 -1.1104 9.41102 -3.09516 23.402
577 1 -1.1104 9.51696 2.3572 23.4868
578 2 2.2208 8.04344 1.14405 24.8065
579 1 -1.1104 9.61081 -2.90662 26.3163
580 1 -1.1104 9.45405 2.68328 26.2626
581 2 2.2208 7.99 -1.69265 22.1471
582 2 2.2208 8.12001 3.89433 21.9195
583 1 -1.1104 9.4789 -0.456093 23.516
584 1 -1.1104 9.43779 -0.194305 26.4248
622 2 2.2208 11.0024 20.9135 24.8591
586 2 2.2208 7.98757 -1.59182 27.5485
651 1 -1.1104 6.71491 16.6192 26.2522
658 1 -1.1104 6.79789 13.7385 23.5127
621 2 2.2208 10.9122 15.0571 24.8329
437 1 -1.1104 3.83905 5.30344 20.6981
421 1 -1.1104 0.980144 5.41641 20.7095
427 1 -1.1104 6.81809 10.8593 20.4744
620 2 2.2208 -0.317364 12.3477 27.6439
617 2 2.2208 5.05795 7.07505 27.5254
9550 2 2.2208 -0.287729 6.77066 22.0804
423 1 -1.1104 1.08207 11.014 20.8489
596 2 2.2208 5.30491 6.66153 22.0316
597 2 2.2208 5.30819 12.2582 21.9256
598 1 -1.1104 1.09851 8.52626 23.5806
600 1 -1.1104 1.03007 8.10745 26.2788
602 1 -1.1104 0.954471 5.54059 23.6081
605 2 2.2208 5.31689 9.53889 24.6117
606 1 -1.1104 1.17019 5.32488 26.3909
607 1 -1.1104 0.969332 10.8059 26.4505
610 1 -1.1104 3.87933 8.07726 23.5035
611 2 2.2208 2.3549 6.91806 24.8459
612 1 -1.1104 3.75318 8.72001 26.2491
613 2 2.2208 2.59727 9.59954 22.0924
614 1 -1.1104 3.67388 5.25137 23.4872
615 1 -1.1104 3.89001 10.9164 23.3491
616 1 -1.1104 3.90604 5.68555 26.2515
609 1 -1.1104 6.38806 10.8831 26.1827
643 2 2.2208 8.06999 20.6184 22.1521
592 1 -1.1104 12.3757 19.4869 23.4171
414 1 -1.1104 6.58272 8.10655 20.4976
448 1 -1.1104 12.3863 8.06415 20.6704
467 1 -1.1104 9.57432 10.9627 20.6852
601 1 -1.1104 6.58874 8.07958 25.9537
603 1 -1.1104 6.60629 5.2412 23.5181
608 1 -1.1104 6.62436 5.3864 26.5212
604 1 -1.1104 6.82326 10.9726 23.3209
599 1 -1.1104 6.65847 8.07875 23.2204
425 1 -1.1104 6.70195 5.47798 20.6478
624 1 -1.1104 9.3498 10.9023 26.3057
625 1 -1.1104 9.3915 5.33751 26.2941
626 1 -1.1104 9.50644 10.832 23.4524
627 1 -1.1104 9.43765 5.16311 23.3774
628 2 2.2208 8.17814 9.58458 21.9919
629 1 -1.1104 9.44896 8.08098 26.036
630 2 2.2208 8.12615 12.3339 24.7603
631 2 2.2208 8.09323 6.67181 24.8591
632 2 2.2208 10.9669 6.56967 22.0375
633 2 2.2208 10.9879 12.191 22.0703
634 1 -1.1104 12.2784 7.93779 23.4265
635 1 -1.1104 12.3258 7.96659 26.2672
636 1 -1.1104 12.3805 5.15909 23.2618
637 1 -1.1104 12.3949 10.7943 23.4559
638 2 2.2208 10.7947 9.47889 24.7185
639 1 -1.1104 12.376 5.11312 26.1411
640 1 -1.1104 12.2324 10.8665 26.2804
641 1 -1.1104 9.45005 7.89511 23.3534
331 2 2.2208 10.86 12.2737 27.6727
674 2 2.2208 -0.360976 15.0606 24.8763
675 2 2.2208 -0.286484 17.8346 27.67
477 1 -1.1104 1.04207 19.3008 20.5918
528 1 -1.1104 9.49752 19.3486 23.4999
500 1 -1.1104 3.88016 16.344 20.6526
496 1 -1.1104 3.84497 19.0786 20.6691
648 1 -1.1104 3.89533 19.5098 23.5202
650 1 -1.1104 4.09129 14.065 23.2926
652 1 -1.1104 1.30006 19.2663 26.2743
653 1 -1.1104 1.04917 16.5598 26.339
654 1 -1.1104 0.864625 13.8066 26.472
656 2 2.2208 5.32702 20.6345 24.9382
657 2 2.2208 5.36183 15.1426 24.8898
659 1 -1.1104 1.2633 19.4619 23.4296
660 1 -1.1104 1.02404 13.6273 23.1934
661 2 2.2208 5.31578 17.8455 22.0407
662 1 -1.1104 3.97865 19.2831 26.3464
663 2 2.2208 2.54358 17.9192 24.911
664 1 -1.1104 3.85713 16.5234 26.3523
665 1 -1.1104 4.08475 13.7595 26.4068
667 1 -1.1104 1.09441 16.4623 23.516
668 1 -1.1104 3.93791 16.7381 23.4747
669 2 2.2208 2.49908 20.746 22.0142
670 2 2.2208 2.57827 15.0875 22.1229
673 2 2.2208 2.52304 15.1266 27.5325
655 1 -1.1104 6.74164 19.2946 23.338
676 2 2.2208 -0.219808 20.6681 24.7941
559 1 -1.1104 6.87538 19.3129 26.3139
677 2 2.2208 -0.19806 17.9991 22.0235
666 1 -1.1104 6.74163 16.5831 23.5753
649 1 -1.1104 6.85896 13.6131 26.3815
642 2 2.2208 8.11111 15.0865 22.0834
557 2 2.2208 8.2744 18.1066 24.9415
588 1 -1.1104 12.2865 13.716 23.4794
646 1 -1.1104 9.46531 16.6332 26.31
502 1 -1.1104 9.53383 13.6636 23.4118
618 1 -1.1104 9.48698 13.6625 26.2862
623 1 -1.1104 12.2735 16.464 26.2849
595 1 -1.1104 12.2977 16.5456 23.6199
329 2 2.2208 10.7726 6.59867 27.5937
330 2 2.2208 8.06875 9.57652 27.5933
672 2 2.2208 5.35252 17.8907 27.6328
317 2 2.2208 7.94072 1.22696 13.7029
405 2 2.2208 10.7456 -1.57938 13.6674
591 2 2.2208 -0.22272 9.59439 13.6218
440 2 2.2208 2.45584 12.4881 13.7294
332 2 2.2208 13.6436 9.43849 27.5998
530 2 2.2208 10.9266 15.1555 13.6597
678 2 2.2208 5.29016 23.6529 5.20794
679 2 2.2208 5.15359 29.1632 5.1952
680 1 -1.1104 1.08102 24.8694 0.86242
681 1 -1.1104 1.23178 25.0619 3.64105
682 1 -1.1104 1.14696 22.1287 1.0757
683 1 -1.1104 1.27488 27.7032 0.899878
684 2 2.2208 5.23756 26.4397 2.35145
685 1 -1.1104 0.952714 22.2161 3.82152
686 1 -1.1104 1.02971 27.791 3.69275
687 1 -1.1104 3.95251 24.8058 0.921813
688 2 2.2208 2.61679 23.4912 2.31371
689 2 2.2208 2.46598 29.1444 2.39323
690 1 -1.1104 3.9714 24.9409 3.67458
691 2 2.2208 2.41934 26.3001 5.18097
692 1 -1.1104 3.98854 21.9709 1.10137
693 1 -1.1104 3.89452 27.7234 0.778356
694 1 -1.1104 3.86883 22.1835 3.85766
695 1 -1.1104 3.80147 27.6412 3.60032
696 2 2.2208 -0.106093 29.2212 5.3532
704 1 -1.1104 6.63312 27.8404 3.75607
699 1 -1.1104 6.79334 24.9963 1.20441
702 1 -1.1104 6.77851 27.8533 0.96597
698 2 2.2208 -0.0804002 26.3539 2.18871
824 1 -1.1104 3.76094 24.9314 6.61241
825 1 -1.1104 3.76549 22.0574 6.59874
701 1 -1.1104 6.80109 22.042 1.12555
9746 1 -1.1104 0.580771 27.4248 6.39771
826 1 -1.1104 4.11428 27.5367 6.24898
821 1 -1.1104 1.02389 22.0175 6.66185
820 1 -1.1104 6.64329 25.0021 6.61946
703 1 -1.1104 6.68832 22.0528 3.89881
700 1 -1.1104 6.82637 24.9799 3.937
705 2 2.2208 10.968 23.5796 5.22938
706 2 2.2208 10.9516 29.2217 5.22922
707 1 -1.1104 12.3509 24.9976 0.957099
708 1 -1.1104 12.3933 25.0557 3.70771
709 1 -1.1104 12.2695 22.1826 1.01473
710 1 -1.1104 12.337 27.7293 1.00052
711 2 2.2208 10.9061 26.3075 2.3638
712 1 -1.1104 12.2103 22.2208 3.69204
713 1 -1.1104 12.256 27.7209 3.88419
714 1 -1.1104 9.54622 24.9698 0.938389
715 2 2.2208 8.14612 23.6805 2.42455
716 2 2.2208 8.04557 29.2605 2.47437
717 1 -1.1104 9.61059 25.1179 3.80085
718 2 2.2208 8.19311 26.4308 5.12393
719 1 -1.1104 9.62043 22.2279 0.975891
720 1 -1.1104 9.45211 27.7076 1.01034
721 1 -1.1104 9.47169 22.2915 3.75605
722 1 -1.1104 9.54162 27.9126 3.67933
851 1 -1.1104 12.3343 27.8783 6.66745
822 1 -1.1104 6.68961 22.3049 6.55293
906 1 -1.1104 12.2754 44.573 6.6316
9887 2 2.2208 13.6474 29.0347 2.52225
823 1 -1.1104 6.77956 27.7812 6.47172
852 1 -1.1104 9.40325 25.0783 6.62371
853 1 -1.1104 9.45522 22.1011 6.56012
724 1 -1.1104 12.4044 41.6707 12.3919
727 2 2.2208 5.30208 34.783 5.32974
728 1 -1.1104 1.01435 30.6111 0.889442
729 1 -1.1104 0.99911 36.28 1.15756
731 1 -1.1104 1.21307 30.5981 3.77829
732 1 -1.1104 0.933686 36.283 3.9742
734 1 -1.1104 0.97792 33.3842 0.913853
735 2 2.2208 5.22265 32.052 2.6275
736 2 2.2208 5.22575 37.7422 2.47964
737 1 -1.1104 1.10238 33.4781 3.76107
739 1 -1.1104 3.86125 30.4319 1.00471
740 1 -1.1104 3.78635 36.3375 1.08181
741 2 2.2208 2.45051 34.9319 2.56994
742 1 -1.1104 3.88733 30.5047 3.71556
743 1 -1.1104 3.83849 36.4019 3.96313
744 2 2.2208 2.4261 31.992 5.20634
745 2 2.2208 2.50842 37.8298 5.25731
746 1 -1.1104 3.81444 33.5396 1.23776
747 1 -1.1104 3.93599 33.5473 3.89129
879 1 -1.1104 3.88834 30.7161 6.41981
873 1 -1.1104 0.906825 30.9139 6.47187
738 1 -1.1104 6.7047 33.3589 3.97956
730 1 -1.1104 6.70997 36.1359 1.14174
880 1 -1.1104 4.0102 36.2811 6.77253
750 1 -1.1104 6.71662 30.6958 0.981129
953 1 -1.1104 3.99417 39.1095 6.70526
798 1 -1.1104 9.51671 41.7691 6.90273
881 1 -1.1104 3.95205 33.4506 6.64332
878 1 -1.1104 6.67577 33.2876 6.67284
875 1 -1.1104 6.68541 30.5963 6.60958
967 1 -1.1104 9.44829 44.4118 9.66832
1010 2 2.2208 5.31072 34.8979 -0.294862
971 2 2.2208 8.10315 43.196 10.9828
751 1 -1.1104 6.61826 30.7471 3.78257
752 1 -1.1104 6.61235 33.3781 1.08351
733 1 -1.1104 6.68434 36.4383 3.81492
753 2 2.2208 10.8684 34.8656 5.24434
754 1 -1.1104 12.2861 30.6527 0.892346
755 1 -1.1104 12.0351 36.0917 1.19678
756 1 -1.1104 12.3421 30.611 3.74387
757 1 -1.1104 12.2197 36.2481 4.05304
758 1 -1.1104 12.3359 33.441 0.932457
759 2 2.2208 10.9985 31.9157 2.48295
760 2 2.2208 10.7967 37.6304 2.54802
761 1 -1.1104 12.29 33.4263 3.86972
762 1 -1.1104 9.37022 30.5291 1.03994
763 1 -1.1104 9.35307 36.0253 1.15508
764 2 2.2208 8.0776 34.8456 2.57178
765 1 -1.1104 9.54444 30.6139 3.97546
766 1 -1.1104 9.41737 36.1821 3.93323
767 2 2.2208 8.01422 31.9907 5.31203
768 2 2.2208 8.07365 37.6519 5.26196
769 1 -1.1104 9.57831 33.1782 1.05906
770 1 -1.1104 9.55383 33.3859 3.84467
1011 2 2.2208 8.09067 37.5964 -0.161838
910 1 -1.1104 9.5227 30.6116 6.72918
771 2 2.2208 13.6683 34.759 2.41371
912 1 -1.1104 9.44448 33.3109 6.69318
908 1 -1.1104 12.1758 36.2497 6.65343
911 1 -1.1104 9.39558 36.1133 6.64684
725 1 -1.1104 12.1737 41.8558 9.64287
1013 2 2.2208 10.8057 34.8082 -0.300012
1017 2 2.2208 5.19217 40.3887 -0.273896
772 2 2.2208 5.32252 40.486 5.3903
773 2 2.2208 5.2535 46.0667 5.30593
774 1 -1.1104 0.981539 41.8274 1.12894