ITEM: TIMESTEP
10000
ITEM: NUMBER OF ATOMS
17820
ITEM: BOX BOUNDS pp pp pp
-3.6915034420849119e-01 2.7709150344208322e+01
-4.3661297998204720e+00 3.3244612979982412e+02
-3.6035785544148241e-01 2.7700357855441347e+01
ITEM: ATOMS id type q x y z
1 2 2.2208 5.23719 1.25479 5.20574
2 1 -1.1104 1.12599 -2.74389 0.832774
3 1 -1.1104 1.21193 2.72996 0.825277
6 1 -1.1104 1.1702 -3.01791 3.69369
7 1 -1.1104 1.27021 2.65243 3.68661
10 1 -1.1104 1.05357 -0.0259729 0.960316
12 2 2.2208 5.25316 -1.4548 2.36442
13 2 2.2208 5.22941 4.00398 2.2981
14 1 -1.1104 1.14861 -0.0677274 3.82558
16 1 -1.1104 3.86387 -2.93983 0.823517
17 1 -1.1104 3.94217 2.78938 0.913749
18 2 2.2208 2.57013 1.29138 2.25047
19 1 -1.1104 3.91449 -2.86908 3.81305
20 1 -1.1104 4.01997 2.6282 3.6362
21 2 2.2208 2.39212 -1.42304 5.08611
22 2 2.2208 2.64971 3.99702 5.03908
23 1 -1.1104 3.93124 -0.0721834 0.822578
24 1 -1.1104 3.93821 -0.0879815 3.71097
164 1 -1.1104 1.14523 2.72344 6.45779
171 1 -1.1104 3.81357 -0.0247172 6.54506
8521 2 2.2208 2.47491 -4.49695 7.85996
15 1 -1.1104 6.71861 -0.224346 3.59516
4 1 -1.1104 6.59123 -2.90592 1.0833
8 1 -1.1104 6.80821 -2.89986 3.85035
170 1 -1.1104 3.97303 2.63681 6.53113
165 1 -1.1104 6.7322 -3.03969 6.53295
9214 2 2.2208 -0.36042 9.65503 2.42611
314 2 2.2208 13.5794 4.16024 5.01647
11 1 -1.1104 6.59458 -0.164608 0.854223
5 1 -1.1104 6.74955 2.78402 0.873358
9 1 -1.1104 6.73453 2.5137 3.6932
166 1 -1.1104 6.67073 2.61943 6.56524
31 2 2.2208 10.921 1.40353 4.99724
32 1 -1.1104 12.3273 -2.96831 0.989285
33 1 -1.1104 12.3931 2.56735 0.942592
34 1 -1.1104 12.2898 -2.91855 3.65836
35 1 -1.1104 12.358 2.73325 3.5851
36 1 -1.1104 12.3122 -0.274036 0.875325
37 2 2.2208 10.8003 -1.67447 2.29994
38 2 2.2208 11.0811 3.98912 2.16043
39 1 -1.1104 12.3025 -0.100312 3.74595
40 1 -1.1104 9.4126 -2.93298 0.924175
41 1 -1.1104 9.60744 2.49461 1.02297
42 2 2.2208 8.19652 1.29402 2.29498
43 1 -1.1104 9.5386 -2.99054 3.68265
44 1 -1.1104 9.50913 3.00021 3.75695
45 2 2.2208 8.20014 -1.50883 5.06775
46 2 2.2208 7.87966 3.97156 5.08545
47 1 -1.1104 9.41265 -0.314772 0.862287
48 1 -1.1104 9.57187 0.0495595 3.71553
204 1 -1.1104 9.55371 -2.8631 6.57291
202 1 -1.1104 12.3028 2.76297 6.47318
203 1 -1.1104 12.2301 0.0201318 6.6581
317 2 2.2208 8.0861 1.38518 13.4483
206 1 -1.1104 9.52656 -0.0844891 6.45707
205 1 -1.1104 9.43187 2.70954 6.4175
9211 2 2.2208 -0.311698 1.3155 5.15975
400 2 2.2208 -0.325438 15.2788 13.4881
9217 2 2.2208 -0.456017 1.50911 10.6186
54 2 2.2208 5.45595 6.75219 5.0781
55 2 2.2208 5.21327 12.4811 5.19934
56 1 -1.1104 1.15726 8.18254 0.866313
57 1 -1.1104 6.41185 8.18342 0.838801
58 1 -1.1104 1.11602 8.17065 3.81952
59 1 -1.1104 6.56223 8.32799 3.82532
60 1 -1.1104 1.1506 5.47989 1.14763
61 1 -1.1104 0.985719 10.9403 0.915735
65 2 2.2208 5.13248 9.68051 2.37879
66 1 -1.1104 1.10085 5.39352 3.77458
67 1 -1.1104 1.01522 11.0897 3.59807
70 1 -1.1104 3.7424 8.27102 1.02137
71 2 2.2208 2.50464 6.89686 2.42365
72 2 2.2208 2.40638 12.5521 2.31499
73 1 -1.1104 3.87784 8.24744 3.6928
74 2 2.2208 2.47772 9.64592 5.19874
75 1 -1.1104 4.0587 5.46749 0.83167
76 1 -1.1104 3.77083 11.2469 0.774554
78 1 -1.1104 3.73902 5.39915 3.76955
79 1 -1.1104 3.76487 11.0802 3.71647
233 1 -1.1104 6.56215 5.42908 6.6735
29 2 2.2208 2.53793 -4.26141 2.33716
232 1 -1.1104 1.16291 5.27043 6.37182
77 1 -1.1104 3.69025 10.9587 6.61873
235 1 -1.1104 3.97638 5.43162 6.53549
62 1 -1.1104 0.984271 10.855 6.36757
230 1 -1.1104 1.07611 8.04758 6.60766
231 1 -1.1104 6.66275 8.19552 6.59111
530 2 2.2208 10.951 15.2635 13.5425
172 2 2.2208 -0.178703 -4.16704 10.8173
229 2 2.2208 -0.4495 12.5308 10.7089
68 1 -1.1104 6.54226 5.26371 3.69898
69 1 -1.1104 6.52534 11.1223 3.76188
63 1 -1.1104 6.48171 11.2055 0.924283
83 2 2.2208 10.8364 6.94555 5.01703
84 2 2.2208 10.7816 12.5166 5.20978
85 1 -1.1104 12.2064 8.17086 0.830721
86 1 -1.1104 12.2751 8.36799 3.65925
87 1 -1.1104 12.5098 5.44388 0.863425
88 1 -1.1104 12.2577 11.0799 0.916042
90 2 2.2208 10.8427 9.66082 2.28009
91 1 -1.1104 12.0937 5.5852 3.61587
92 1 -1.1104 12.1548 11.0209 3.76691
93 1 -1.1104 9.61606 8.49802 0.72621
94 2 2.2208 8.03754 12.5035 2.32614
95 1 -1.1104 9.5684 8.38265 3.89594
96 2 2.2208 7.99309 9.62657 5.03069
97 1 -1.1104 9.53339 5.28926 0.877419
98 1 -1.1104 9.41308 11.2218 0.890371
100 1 -1.1104 9.27225 11.1273 3.543
265 1 -1.1104 9.3903 5.36731 6.04641
64 1 -1.1104 6.68055 11.1342 6.6234
89 1 -1.1104 12.3003 11.2243 6.63873
262 1 -1.1104 12.0852 5.55915 6.49276
263 1 -1.1104 9.48201 8.18999 6.52813
30 2 2.2208 5.23564 -4.36181 5.2269
133 2 2.2208 -0.206598 20.8725 2.52653
134 2 2.2208 -0.287221 18.3033 5.29047
103 2 2.2208 5.46383 18.2032 5.30117
104 1 -1.1104 0.944122 13.7501 0.771753
106 1 -1.1104 1.13516 19.4979 0.882438
110 1 -1.1104 1.06012 13.7442 3.77449
111 1 -1.1104 1.1544 19.5832 3.86133
113 1 -1.1104 1.00367 16.7184 0.828486
116 2 2.2208 5.24091 15.5294 2.39262
117 2 2.2208 5.41838 21.0247 2.28353
118 1 -1.1104 1.1535 16.8036 3.65025
120 1 -1.1104 3.81388 14.0112 0.957166
122 1 -1.1104 4.00417 19.5282 1.05736
124 2 2.2208 2.49345 18.1935 2.34833
125 1 -1.1104 3.82012 13.8963 3.75334
126 1 -1.1104 3.98617 19.638 3.83671
127 2 2.2208 2.44348 15.3809 5.20922
128 2 2.2208 2.59415 21.0389 5.12246
129 1 -1.1104 3.78407 16.8516 0.949617
131 1 -1.1104 4.08806 16.7641 3.98925
135 1 -1.1104 6.71445 19.5591 1.01229
119 1 -1.1104 6.79362 16.824 3.76133
136 1 -1.1104 6.826 19.5239 3.74113
123 1 -1.1104 3.8938 19.6693 6.66778
298 1 -1.1104 1.1917 19.5995 6.46659
105 1 -1.1104 0.975489 13.7935 6.57133
130 1 -1.1104 4.00026 16.7877 6.69502
121 1 -1.1104 3.64788 13.8231 6.48851
440 2 2.2208 2.30963 12.4551 13.3951
107 1 -1.1104 6.65043 14.0442 0.979398
112 1 -1.1104 6.56128 13.8897 3.76154
137 1 -1.1104 6.70592 16.8868 1.01829
138 2 2.2208 10.9273 18.1343 5.11186
139 1 -1.1104 12.3306 13.8522 0.914537
141 1 -1.1104 12.4639 19.3979 1.11586
143 1 -1.1104 12.3557 13.7922 3.90543
144 1 -1.1104 12.3834 19.3737 3.87653
145 1 -1.1104 12.405 16.5217 0.964152
147 2 2.2208 10.8243 15.3018 2.40523
148 2 2.2208 10.9751 20.8093 2.47828
149 1 -1.1104 12.3715 16.6578 3.65622
150 1 -1.1104 9.4785 13.9712 0.914534
152 1 -1.1104 9.57106 19.4325 0.8499
154 2 2.2208 8.12787 18.2569 2.33195
155 1 -1.1104 9.46318 13.8634 3.73641
156 1 -1.1104 9.58847 19.3981 3.697
157 2 2.2208 8.06613 15.3163 5.08391
158 2 2.2208 8.18228 20.9508 5.21949
159 1 -1.1104 9.53225 16.7517 1.02321
161 1 -1.1104 9.57803 16.6638 3.84991
160 1 -1.1104 9.48235 16.7914 6.58751
153 1 -1.1104 9.61414 19.5193 6.52402
140 1 -1.1104 12.2629 14.0055 6.57858
115 1 -1.1104 6.81229 16.8914 6.63146
142 1 -1.1104 12.4659 19.6187 6.60315
9210 2 2.2208 -0.358778 -1.55545 2.30698
169 1 -1.1104 3.85854 -2.97915 6.46304
591 2 2.2208 -0.320085 9.58676 13.4288
163 1 -1.1104 0.952533 -3.08634 6.60629
167 1 -1.1104 1.06594 -0.197292 6.6616
173 2 2.2208 5.22953 1.28592 10.7194
174 1 -1.1104 1.20875 -2.76776 12.2121
175 1 -1.1104 0.885815 2.6465 12.0194
178 1 -1.1104 1.30875 -2.97683 9.40999
179 1 -1.1104 1.03361 2.68536 9.29508
183 2 2.2208 5.47178 -1.63124 7.94118
184 2 2.2208 5.23043 4.05555 8.02478
185 1 -1.1104 1.11827 -0.0383725 9.74942
187 1 -1.1104 3.93998 -3.1089 12.3724
188 1 -1.1104 3.81598 2.87628 11.9822
189 2 2.2208 2.53453 1.29986 7.95685
190 1 -1.1104 4.06981 -2.8681 9.34361
191 1 -1.1104 3.88299 2.63313 9.32461
192 2 2.2208 2.65123 -1.5734 10.7394
193 2 2.2208 2.47532 4.12908 10.7124
194 1 -1.1104 3.9253 -0.403163 12.11
195 1 -1.1104 3.97458 -0.167142 9.14702
316 2 2.2208 5.33615 -1.60987 13.4611
9130 2 2.2208 13.6568 9.6398 10.8541
9216 2 2.2208 -0.315391 -1.65557 7.94752
373 2 2.2208 5.21254 4.17114 13.4494
322 2 2.2208 -0.252428 4.13213 13.578
168 1 -1.1104 6.68552 -0.14174 6.54457
201 1 -1.1104 12.144 -2.8363 6.47747
319 2 2.2208 8.06391 6.85637 13.3282
405 2 2.2208 10.8884 -1.56321 13.6202
371 2 2.2208 2.43559 -4.39374 13.619
186 1 -1.1104 6.76021 -0.108198 9.36326
176 1 -1.1104 6.61084 -2.91035 12.0805
180 1 -1.1104 6.90022 -2.95995 9.38866
181 1 -1.1104 6.81727 2.75718 9.34345
177 1 -1.1104 6.72566 2.83458 12.0993
182 1 -1.1104 6.67559 0.0235544 12.0499
208 2 2.2208 10.9572 1.16075 10.7746
209 1 -1.1104 12.2544 -3.07917 12.0235
210 1 -1.1104 12.3726 2.61227 12.0865
211 1 -1.1104 12.5037 -2.99983 9.22107
212 1 -1.1104 12.2321 2.62548 9.31195
213 1 -1.1104 12.248 -0.254815 11.9746
214 2 2.2208 10.9272 -1.444 7.90896
215 2 2.2208 10.8804 4.07419 7.74237
216 1 -1.1104 12.4288 -0.282192 9.30015
217 1 -1.1104 9.53306 -3.03611 12.1662
218 1 -1.1104 9.60883 2.56698 12.1528
219 2 2.2208 8.1243 1.24584 7.774
220 1 -1.1104 9.6848 -2.7989 9.28174
221 1 -1.1104 9.44989 2.84518 9.24364
222 2 2.2208 8.16285 -1.51597 10.6578
223 2 2.2208 8.14564 4.067 10.7303
224 1 -1.1104 9.37673 -0.157908 12.1978
225 1 -1.1104 9.50423 0.00778219 9.40961
318 2 2.2208 10.9271 4.01931 13.4949
132 2 2.2208 -0.287059 15.2988 2.17435
324 2 2.2208 8.12867 17.9394 13.5059
228 2 2.2208 -0.361967 9.68942 7.94852
200 2 2.2208 -0.305545 6.87809 10.6508
234 1 -1.1104 3.808 8.18605 6.62545
236 2 2.2208 5.21731 6.88937 10.7992
237 2 2.2208 5.31141 12.4738 10.6813
238 1 -1.1104 1.12444 8.28968 12.0961
240 1 -1.1104 1.00697 8.39097 9.32643
242 1 -1.1104 0.933667 5.55321 12.0895
243 1 -1.1104 1.03215 11.0387 11.9703
246 2 2.2208 5.27227 9.69752 7.91247
247 1 -1.1104 1.11785 5.36552 9.23317
248 1 -1.1104 0.860719 11.0796 9.11866
251 1 -1.1104 3.86466 8.32295 12.1027
252 2 2.2208 2.44038 6.72122 7.89815
253 2 2.2208 2.49036 12.4675 7.88246
254 1 -1.1104 3.92219 8.28281 9.28954
255 2 2.2208 2.47813 9.66811 10.5962
256 1 -1.1104 3.74386 5.57066 12.1553
257 1 -1.1104 3.94565 10.9477 12.116
258 1 -1.1104 3.702 5.52427 9.44987
259 1 -1.1104 3.90172 11.1471 9.27378
241 1 -1.1104 6.5958 8.44721 9.4238
245 1 -1.1104 6.73424 11.0194 12.1454
239 1 -1.1104 6.67485 8.36258 12.2744
8991 2 2.2208 13.7727 20.8551 5.22761
198 1 -1.1104 12.2228 16.8042 9.2953
261 1 -1.1104 12.485 8.27544 6.60062
226 1 -1.1104 9.54226 19.4427 12.1722
197 2 2.2208 10.9721 20.9908 8.04451
80 1 -1.1104 12.191 19.6403 9.51942
249 1 -1.1104 6.76962 5.60432 9.23557
244 1 -1.1104 6.62518 5.45125 12.0717
99 1 -1.1104 9.49431 11.0442 6.54037
250 1 -1.1104 6.71574 11.0809 9.40773
260 1 -1.1104 9.48262 11.2462 9.29399
264 1 -1.1104 9.60838 5.51707 9.08999
266 1 -1.1104 9.44554 11.1995 12.0055
267 1 -1.1104 9.43146 5.45191 11.8818
268 2 2.2208 8.12429 9.74256 10.7802
269 1 -1.1104 9.39637 8.43999 9.32794
270 2 2.2208 8.05264 12.5336 7.99146
271 2 2.2208 8.1402 6.86845 8.00313
272 2 2.2208 10.943 6.87508 10.789
273 2 2.2208 10.906 12.4994 10.644
274 1 -1.1104 12.3295 8.1965 12.25
275 1 -1.1104 12.2201 8.24687 9.48662
276 1 -1.1104 12.3072 5.52364 12.2217
277 1 -1.1104 12.2466 10.844 12.1047
278 2 2.2208 10.8987 9.66234 7.84098
279 1 -1.1104 12.4029 5.39204 9.39397
280 1 -1.1104 12.2808 11.0819 9.43952
281 1 -1.1104 9.44017 8.2263 12.1711
293 1 -1.1104 6.73731 13.8363 11.974
9213 2 2.2208 -0.19965 6.78904 5.08687
309 2 2.2208 -0.302938 15.3114 7.96673
302 1 -1.1104 6.69729 16.6261 11.8944
108 1 -1.1104 6.65136 14.0482 6.49618
292 1 -1.1104 6.66284 19.4623 12.5313
323 2 2.2208 5.07563 20.9943 13.5281
284 1 -1.1104 6.49074 19.7494 9.52502
114 1 -1.1104 1.11995 16.707 6.60681
282 1 -1.1104 3.82465 19.543 12.131
283 1 -1.1104 3.68235 13.6683 11.8484
287 1 -1.1104 1.08073 19.6139 9.16559
288 1 -1.1104 1.18612 16.6903 9.54611
289 2 2.2208 5.30515 21.062 8.01637
290 1 -1.1104 1.14899 13.7809 9.39133
291 2 2.2208 5.34568 15.5706 8.01801
294 1 -1.1104 1.05692 19.4852 12.0783
295 1 -1.1104 0.867493 13.924 12.0416
296 2 2.2208 5.3132 18.1896 10.8453
297 1 -1.1104 3.86172 19.6884 9.36794
299 2 2.2208 2.54318 18.2129 8.01178
300 1 -1.1104 3.81284 16.8246 9.62068
301 1 -1.1104 4.00075 14.0542 9.22934
303 1 -1.1104 1.22872 16.618 12.2938
304 1 -1.1104 3.98976 16.8289 12.4564
305 2 2.2208 2.40129 20.973 10.7148
306 2 2.2208 2.40427 15.2092 10.7613
321 2 2.2208 2.41398 18.1322 13.5405
320 2 2.2208 5.34953 15.223 13.2739
207 1 -1.1104 9.46296 13.9064 12.1469
311 1 -1.1104 9.4635 16.5481 12.0583
26 1 -1.1104 12.3158 13.8218 12.0247
50 1 -1.1104 12.346 13.8882 9.23641
312 2 2.2208 8.09457 20.9966 10.7714
313 2 2.2208 8.19855 15.2481 10.7307
25 2 2.2208 10.8258 18.101 10.7285
286 1 -1.1104 6.62344 14.1094 9.33297
109 1 -1.1104 6.76199 19.6799 6.72617
227 2 2.2208 8.08457 18.2585 7.98949
151 1 -1.1104 9.53454 13.8966 6.45147
146 1 -1.1104 12.2048 16.8061 6.45599
81 1 -1.1104 12.37 16.5103 12.2529
308 1 -1.1104 9.36846 19.5381 9.34541
529 2 2.2208 10.7103 20.8401 13.591
196 2 2.2208 10.8527 15.2389 7.81599
27 1 -1.1104 12.3563 19.4028 12.1797
310 1 -1.1104 9.41707 16.8018 9.35828
307 1 -1.1104 9.54045 13.9428 9.26074
285 1 -1.1104 6.63486 17.0384 9.23764
9110 2 2.2208 -0.379112 18.259 10.6268
51 2 2.2208 13.5615 -1.52789 5.17875
563 2 2.2208 -0.339236 1.24615 -0.472072
333 2 2.2208 5.26491 1.40839 16.3913
334 1 -1.1104 0.877373 -2.95311 17.8519
335 1 -1.1104 1.12586 2.68271 17.8914
338 1 -1.1104 1.03332 -2.98708 15.047
340 1 -1.1104 0.983628 2.98259 15.139
346 1 -1.1104 1.00956 -0.0723132 17.903
348 2 2.2208 5.21484 -1.4671 19.1448
349 2 2.2208 5.29471 4.10211 19.0888
350 1 -1.1104 0.933327 -0.353806 15.1299
354 1 -1.1104 3.83227 -2.8502 17.9022
355 1 -1.1104 3.97343 2.5266 17.8323
356 2 2.2208 2.43269 1.22742 19.1815
357 1 -1.1104 3.89799 -2.68101 15.0995
359 1 -1.1104 4.02989 2.8553 15.0167
361 2 2.2208 2.25702 -1.61064 16.4552
362 2 2.2208 2.53677 4.09953 16.3105
363 1 -1.1104 3.71709 -0.129144 17.3758
352 1 -1.1104 6.23376 -0.175321 14.9217
364 1 -1.1104 3.94968 -0.103153 20.3571
336 1 -1.1104 6.62887 -2.90882 17.7048
501 2 2.2208 -0.320978 4.11324 19.0408
337 1 -1.1104 6.74609 2.69538 17.8527
358 1 -1.1104 3.85823 -3.01183 20.585
9255 2 2.2208 -0.285841 12.5599 21.7892
339 1 -1.1104 1.05285 -2.97657 20.6375
9406 2 2.2208 -0.454067 -1.40854 19.2452
565 2 2.2208 8.17941 20.9063 27.7457
555 2 2.2208 5.33151 1.29663 27.4796
342 1 -1.1104 6.7504 -2.90981 14.8874
347 1 -1.1104 6.62173 -0.0218482 17.6373
343 1 -1.1104 6.7126 -2.97872 20.566
344 1 -1.1104 6.70341 2.49473 14.9682
374 2 2.2208 10.8387 1.40723 16.228
375 1 -1.1104 12.1875 -2.87695 17.8497
376 1 -1.1104 12.2291 2.84098 17.6562
377 1 -1.1104 12.2104 -2.78986 15.0758
379 1 -1.1104 12.2986 2.75055 14.8523
381 1 -1.1104 12.3793 -0.00359682 17.5633
382 2 2.2208 10.8027 -1.47818 19.1838
383 2 2.2208 10.9644 4.16652 19.0808
384 1 -1.1104 12.3859 -0.0882168 14.7683
386 1 -1.1104 9.43934 -2.83581 17.8294
387 1 -1.1104 9.56158 2.7716 17.6895
388 2 2.2208 8.11575 1.17588 19.2958
389 1 -1.1104 9.46999 -2.92749 14.9406
391 1 -1.1104 9.44054 2.66829 14.8327
393 2 2.2208 8.00234 -1.47881 16.2262
394 2 2.2208 8.07111 4.045 16.3078
395 1 -1.1104 9.34028 -0.0225465 17.8658
396 1 -1.1104 9.37622 -0.0400755 15.0314
378 1 -1.1104 12.1821 -2.84057 20.6745
353 1 -1.1104 6.68161 -0.225093 20.6351
345 1 -1.1104 6.59752 2.53789 20.5489
385 1 -1.1104 12.3014 -0.100796 20.6466
392 1 -1.1104 9.53852 2.6528 20.5585
397 1 -1.1104 9.44127 -0.200347 20.5237
372 2 2.2208 -0.42761 6.94693 16.3283
407 2 2.2208 5.19576 6.9117 16.3368
408 2 2.2208 5.32057 12.4885 16.2459
409 1 -1.1104 1.03874 8.25759 17.832
411 1 -1.1104 0.967769 8.30329 14.9158
415 1 -1.1104 1.19641 5.25764 17.8075
416 1 -1.1104 1.07767 11.1215 17.6817
419 2 2.2208 5.31693 9.61334 19.0908
420 1 -1.1104 1.05818 5.59182 14.886
422 1 -1.1104 0.991468 10.987 14.7986
428 1 -1.1104 3.72229 8.25464 17.7402
429 2 2.2208 2.48907 6.8244 19.1288
430 2 2.2208 2.45692 12.4807 19.1237
431 1 -1.1104 3.74294 8.44367 14.8846
433 2 2.2208 2.40967 9.67732 16.4365
434 1 -1.1104 4.01483 5.38759 17.7818
435 1 -1.1104 3.84377 10.9962 17.6498
436 1 -1.1104 3.85634 5.62 15.0976
438 1 -1.1104 3.72889 11.2549 14.8807
439 1 -1.1104 4.03931 11.1566 20.4698
424 1 -1.1104 6.80394 5.47212 14.8026
410 1 -1.1104 6.69595 8.1708 17.7415
432 1 -1.1104 4.08013 8.23324 20.5267
412 1 -1.1104 1.30075 8.34994 20.5553
421 1 -1.1104 1.03938 5.60781 20.5573
671 2 2.2208 2.60739 20.8171 27.6441
9337 2 2.2208 -0.426881 12.3272 16.2468
399 2 2.2208 10.8845 -4.27113 16.3726
586 2 2.2208 7.97372 -1.56388 27.4564
417 1 -1.1104 6.65365 5.33409 17.5838
414 1 -1.1104 6.82934 8.18649 20.4716
413 1 -1.1104 6.68311 8.14791 14.9554
426 1 -1.1104 6.68718 10.8755 14.9243
418 1 -1.1104 6.78135 10.9413 17.8258
444 2 2.2208 10.9606 6.84562 16.3034
445 2 2.2208 10.8607 12.4273 16.2813
446 1 -1.1104 12.3541 8.47442 17.7482
447 1 -1.1104 12.3377 8.24195 15.0283
449 1 -1.1104 12.4421 5.57255 17.8173
450 1 -1.1104 12.3661 11.2457 17.8116
451 2 2.2208 10.8552 9.73078 19.1064
452 1 -1.1104 12.4853 5.53582 15.1287
454 1 -1.1104 12.3379 11.0482 14.9322
456 1 -1.1104 9.54621 8.23098 17.7755
457 2 2.2208 8.23984 6.92111 19.1289
458 2 2.2208 8.12367 12.5125 19.1285
459 1 -1.1104 9.50252 8.22939 14.942
461 2 2.2208 8.15712 9.48871 16.2506
462 1 -1.1104 9.54595 5.53464 17.5868
463 1 -1.1104 9.55866 11.0629 17.7301
464 1 -1.1104 9.7473 5.44572 14.6833
466 1 -1.1104 9.50003 11.0822 14.8278
448 1 -1.1104 12.3637 8.32073 20.6132
649 1 -1.1104 6.83653 13.8629 26.4675
622 2 2.2208 10.9645 21.0761 24.75
427 1 -1.1104 6.63879 11.0922 20.6376
453 1 -1.1104 12.2194 5.42924 20.5276
425 1 -1.1104 6.73853 5.378 20.3634
460 1 -1.1104 9.53036 8.35129 20.5669
455 1 -1.1104 12.2273 11.0559 20.5709
467 1 -1.1104 9.36 11.2523 20.612
398 2 2.2208 13.7353 20.8495 27.6709
326 2 2.2208 8.06805 15.3866 27.7269
470 1 -1.1104 0.915254 13.9054 17.8451
471 1 -1.1104 0.908934 19.5691 17.8464
474 1 -1.1104 0.894799 13.8176 14.8519
476 1 -1.1104 1.08882 19.6028 14.9686
482 1 -1.1104 0.955519 16.7776 17.6771
484 2 2.2208 5.24487 15.2251 19.123
485 2 2.2208 5.3666 20.906 19.1757
486 1 -1.1104 1.20945 16.7517 14.9631
490 1 -1.1104 3.73776 13.8061 17.5363
491 1 -1.1104 3.55536 19.7147 18.0202
492 2 2.2208 2.52031 18.1262 19.3238
493 1 -1.1104 3.65723 14.4534 14.6615
495 1 -1.1104 3.82994 19.6456 14.8134
497 2 2.2208 2.30375 15.2071 16.4062
498 2 2.2208 2.47495 20.8617 16.3633
499 1 -1.1104 3.78607 16.492 17.6935
475 1 -1.1104 1.07311 13.9002 20.4453
494 1 -1.1104 3.7182 13.957 20.435
477 1 -1.1104 1.08738 19.592 20.6326
487 1 -1.1104 0.924425 16.7697 20.4908
472 1 -1.1104 6.6508 13.6323 17.6176
478 1 -1.1104 6.48634 13.6741 14.6875
621 2 2.2208 10.9975 15.3912 24.7319
561 2 2.2208 5.23972 -4.31172 22.0216
515 1 -1.1104 12.3781 16.7555 20.6643
481 1 -1.1104 6.68281 19.6437 20.6959
488 1 -1.1104 6.74628 16.4538 14.6031
473 1 -1.1104 6.82409 19.5775 17.7917
483 1 -1.1104 6.90564 16.3968 18.05
504 2 2.2208 10.956 18.1326 16.3422
505 1 -1.1104 12.2739 13.8772 17.8186
506 1 -1.1104 12.3094 19.5325 17.8438
507 1 -1.1104 12.1642 13.9062 14.9456
509 1 -1.1104 12.1427 19.4105 15.1166
511 1 -1.1104 12.3858 16.6761 17.8415
512 2 2.2208 10.9729 15.4662 19.2567
513 2 2.2208 10.8917 20.8706 19.1328
514 1 -1.1104 12.2715 16.6369 15.0176
516 1 -1.1104 9.48831 13.8618 17.6806
517 1 -1.1104 9.59852 19.5355 17.5776
518 2 2.2208 8.14811 18.1058 19.1571
519 1 -1.1104 9.45737 13.8549 14.8988
521 1 -1.1104 9.09586 19.5357 14.9775
523 2 2.2208 8.08943 15.1939 16.4249
524 2 2.2208 8.00953 20.877 16.4575
525 1 -1.1104 9.66653 16.7551 17.8175
526 1 -1.1104 9.5514 16.651 14.9916
527 1 -1.1104 9.71887 16.8431 20.5973
522 1 -1.1104 9.45986 19.6623 20.4194
508 1 -1.1104 12.2906 13.8456 20.4324
520 1 -1.1104 9.47565 14.0182 20.5227
510 1 -1.1104 12.3016 19.5175 20.7212
593 1 -1.1104 12.3069 13.9949 26.005
351 1 -1.1104 1.13483 -0.0995746 20.6554
329 2 2.2208 10.8405 6.9191 27.5651
360 1 -1.1104 3.72977 2.63831 20.5526
341 1 -1.1104 0.851135 2.79291 20.7401
531 2 2.2208 5.29398 1.25047 21.9207
532 1 -1.1104 1.00007 -2.88325 23.385
533 1 -1.1104 1.17254 2.65946 23.5527
536 1 -1.1104 0.987779 -2.90367 26.1072
537 1 -1.1104 1.15689 2.64636 26.0694
540 1 -1.1104 0.966266 -0.162308 23.4148
542 2 2.2208 5.16548 -1.56943 24.76
543 2 2.2208 5.35163 4.12206 24.7924
544 1 -1.1104 1.04685 -0.223053 26.1153
546 1 -1.1104 3.77978 -2.8748 23.3
547 1 -1.1104 3.91493 2.55166 23.2887
548 2 2.2208 2.50467 1.26133 24.7953
549 1 -1.1104 3.83125 -2.92212 25.9847
550 1 -1.1104 3.94746 2.62963 26.1559
551 2 2.2208 2.38835 -1.48339 21.8549
552 2 2.2208 2.51418 4.02804 22.0095
553 1 -1.1104 3.89866 -0.16714 23.3113
554 1 -1.1104 3.8656 -0.206783 26.2241
534 1 -1.1104 6.58727 -2.97355 23.537
538 1 -1.1104 6.72204 -3.0789 26.2724
325 2 2.2208 2.53754 4.03675 27.4991
327 2 2.2208 2.31361 9.69966 27.6826
9471 2 2.2208 -0.360482 1.35794 22.0693
556 2 2.2208 2.48928 -1.49835 27.4654
9254 2 2.2208 -0.345692 -1.55183 24.6837
559 1 -1.1104 6.89124 19.3986 26.3774
564 2 2.2208 11.1368 18.0305 27.5793
380 1 -1.1104 12.2956 2.75233 20.5586
390 1 -1.1104 9.43862 -2.95867 20.5939
558 2 2.2208 13.7114 20.9238 22.0719
642 2 2.2208 8.14186 15.3905 22.0231
587 2 2.2208 8.21933 4.06214 27.496
9221 2 2.2208 -0.242844 6.90213 27.5468
541 1 -1.1104 6.57411 -0.205127 23.2659
539 1 -1.1104 6.70695 2.72996 26.1949
545 1 -1.1104 6.68422 -0.21156 26.1132
585 2 2.2208 10.9999 1.18217 27.6702
535 1 -1.1104 6.76786 2.57019 23.4024
567 2 2.2208 11.0113 1.26922 22.0108
568 1 -1.1104 12.356 -2.77388 23.307
569 1 -1.1104 12.1821 2.79982 23.4104
570 1 -1.1104 12.3725 -2.96096 26.0536
571 1 -1.1104 12.2976 2.85096 26.2612
572 1 -1.1104 12.3512 -0.027618 23.5435
573 2 2.2208 10.956 -1.58589 24.7133
574 2 2.2208 10.7224 4.20021 24.7589
575 1 -1.1104 12.3414 0.00976522 26.2751
576 1 -1.1104 9.489 -3.19057 23.31
577 1 -1.1104 9.49046 2.85733 23.3656
578 2 2.2208 8.14015 1.31516 24.7808
579 1 -1.1104 9.55024 -2.98712 26.1179
580 1 -1.1104 9.51037 2.73626 26.148
581 2 2.2208 8.0719 -1.59083 22.0255
582 2 2.2208 8.10353 4.02991 21.869
583 1 -1.1104 9.56576 -0.330199 23.3796
584 1 -1.1104 9.6927 -0.117713 26.0662
401 2 2.2208 -0.442067 18.0914 16.3557
332 2 2.2208 13.643 9.6848 27.526
437 1 -1.1104 3.77932 5.40451 20.5794
423 1 -1.1104 1.12682 11.0583 20.6375
596 2 2.2208 5.33263 6.8148 21.8705
597 2 2.2208 5.32983 12.6277 22.0227
598 1 -1.1104 1.39549 8.44581 23.2814
600 1 -1.1104 1.05396 8.18659 26.0735
602 1 -1.1104 1.13737 5.56572 23.3649
605 2 2.2208 5.24629 9.58029 24.659
606 1 -1.1104 0.973043 5.53607 26.2093
607 1 -1.1104 1.06388 10.9904 26.1468
609 1 -1.1104 6.30398 10.9595 26.2858
610 1 -1.1104 3.98878 8.10519 23.3293
611 2 2.2208 2.46752 6.87013 24.807
612 1 -1.1104 3.67009 8.6003 26.1475
613 2 2.2208 2.76455 9.63927 21.8228
614 1 -1.1104 3.92 5.37926 23.4842
615 1 -1.1104 4.05811 10.8324 23.1974
616 1 -1.1104 3.69686 5.54477 26.2068
646 1 -1.1104 9.48546 16.732 26.2612
368 2 2.2208 -0.231371 1.46809 16.231
617 2 2.2208 5.02964 7.03953 27.6063
8758 2 2.2208 8.05109 -4.24685 19.0845
658 1 -1.1104 6.7653 14.0657 23.4809
330 2 2.2208 7.98505 9.69768 27.6567
603 1 -1.1104 6.75321 5.53455 23.4948
465 1 -1.1104 9.57195 5.452 20.4579
608 1 -1.1104 6.31422 5.39849 26.7277
601 1 -1.1104 6.55699 8.18958 26.1551
604 1 -1.1104 6.75028 11.1925 23.4698
599 1 -1.1104 6.79892 8.33692 23.3314
624 1 -1.1104 9.35659 11.0569 26.2283
625 1 -1.1104 9.29401 5.43789 25.9483
626 1 -1.1104 9.59963 11.2483 23.4383
627 1 -1.1104 9.50441 5.57798 23.1314
628 2 2.2208 8.22695 9.78671 22.0309
629 1 -1.1104 9.43714 8.36074 26.0293
630 2 2.2208 8.1611 12.6858 24.938
631 2 2.2208 8.18551 7.05485 24.7757
632 2 2.2208 10.8851 6.98201 21.9796
633 2 2.2208 10.7631 12.6591 21.9252
634 1 -1.1104 12.1591 8.41121 23.4533
635 1 -1.1104 12.2688 8.3933 26.2088
636 1 -1.1104 12.2397 5.5494 23.5267
637 1 -1.1104 12.3925 11.1727 23.346
638 2 2.2208 10.9026 9.85216 24.782
639 1 -1.1104 12.1123 5.60597 26.189
640 1 -1.1104 12.2043 11.2567 26.1293
641 1 -1.1104 9.64545 8.4088 23.3092
331 2 2.2208 10.8894 12.5907 27.694
672 2 2.2208 5.32613 18.1122 27.6652
496 1 -1.1104 4.04752 19.4224 20.7556
489 1 -1.1104 6.75455 16.7234 20.6578
500 1 -1.1104 3.94756 16.6849 20.5752
17560 2 2.2208 -0.401073 -4.32643 21.85
648 1 -1.1104 3.72628 19.7069 23.4724
650 1 -1.1104 3.98024 13.9592 23.1286
652 1 -1.1104 1.17313 19.5706 26.1542
653 1 -1.1104 1.08134 16.8562 26.0181
654 1 -1.1104 0.916781 14.0238 26.2726
656 2 2.2208 5.36125 21.0158 24.8326
657 2 2.2208 5.27176 15.3346 24.789
659 1 -1.1104 0.950501 19.5515 23.3445
660 1 -1.1104 0.838424 13.9287 23.227
661 2 2.2208 5.37184 18.1429 22.0467
662 1 -1.1104 3.95947 19.5699 26.3712
663 2 2.2208 2.43324 18.1763 24.6185
664 1 -1.1104 3.89508 16.8855 26.3738
665 1 -1.1104 4.06775 14.0843 26.2593
667 1 -1.1104 1.16077 16.6121 23.2106
668 1 -1.1104 3.8876 16.7994 23.316
669 2 2.2208 2.54988 20.9269 21.8807
670 2 2.2208 2.5532 15.2426 21.9973
479 1 -1.1104 6.72079 14.0103 20.5568
673 2 2.2208 2.52501 15.3817 27.4652
588 1 -1.1104 12.3345 13.8052 23.3758
589 2 2.2208 -0.225474 20.922 19.209
592 1 -1.1104 12.2426 19.5521 23.4101
502 1 -1.1104 9.41668 13.9195 23.3481
594 1 -1.1104 12.4985 19.5623 26.3031
566 2 2.2208 10.8485 18.2421 22.0472
528 1 -1.1104 9.4994 19.6392 23.4539
643 2 2.2208 8.09984 21.0799 22.0437
595 1 -1.1104 12.4247 16.6989 23.4879
651 1 -1.1104 6.77545 16.6791 26.2607
619 1 -1.1104 9.72634 19.6361 26.1398
623 1 -1.1104 12.3494 16.7007 26.2035
655 1 -1.1104 6.74819 19.6481 23.4111
557 2 2.2208 8.2355 18.1612 25.0346
618 1 -1.1104 9.67608 14.0541 26.2071
644 1 -1.1104 9.59108 16.759 23.406
666 1 -1.1104 6.61248 16.7045 23.3506
676 2 2.2208 -0.305894 21.0014 24.6661
674 2 2.2208 -0.268235 15.2571 24.628
620 2 2.2208 -0.327193 12.4618 27.4199
9550 2 2.2208 -0.25713 6.98994 21.8038
369 2 2.2208 13.7792 18.1739 24.7445
9331 2 2.2208 13.6749 7.05031 19.1841
366 2 2.2208 5.23641 -4.40257 16.4271
328 2 2.2208 5.2683 12.6403 27.6885
468 2 2.2208 10.841 9.65153 13.554
442 2 2.2208 2.3253 6.94244 13.5701
441 2 2.2208 5.26313 9.72619 13.5971
443 2 2.2208 8.09253 12.5019 13.4107
9329 2 2.2208 -0.427965 -1.52109 13.6475
678 2 2.2208 5.45308 23.8073 5.21866
679 2 2.2208 5.23275 29.4953 5.34251
680 1 -1.1104 1.10916 25.2041 1.01265
681 1 -1.1104 1.09323 25.3303 3.75076
682 1 -1.1104 1.18636 22.3723 1.12785
683 1 -1.1104 0.910974 27.9647 1.087
684 2 2.2208 5.3472 26.5778 2.43778
685 1 -1.1104 1.22167 22.4261 3.90731
686 1 -1.1104 0.88767 28.0689 4.06627
687 1 -1.1104 3.90852 25.0039 0.94375
688 2 2.2208 2.4612 23.7376 2.3489
689 2 2.2208 2.44454 29.5094 2.45559
690 1 -1.1104 3.90513 25.2661 3.7105
691 2 2.2208 2.63688 26.6875 5.21767
692 1 -1.1104 3.91509 22.2317 0.916746
693 1 -1.1104 3.86036 28.0825 1.05126
694 1 -1.1104 3.99317 22.5138 3.65006
695 1 -1.1104 3.85033 28.1247 3.83203
698 2 2.2208 -0.265275 26.4731 2.36175
826 1 -1.1104 4.0815 27.8175 6.59645
821 1 -1.1104 1.15352 22.5934 6.66171
704 1 -1.1104 6.63877 28.0301 3.87228
699 1 -1.1104 6.75793 25.1104 1.02748
820 1 -1.1104 6.87755 25.2501 6.68731
701 1 -1.1104 6.72433 22.4939 0.984048
822 1 -1.1104 6.90424 22.4675 6.572
824 1 -1.1104 4.18724 25.0782 6.61834
825 1 -1.1104 3.95912 22.3435 6.47398
9642 2 2.2208 13.697 32.2111 5.29114
700 1 -1.1104 6.70215 25.1969 3.70236
703 1 -1.1104 6.93462 22.2777 3.77714
702 1 -1.1104 6.54065 28.0104 1.08255
705 2 2.2208 10.9585 23.7916 5.35276
706 2 2.2208 11.0532 29.3321 5.37849
707 1 -1.1104 12.3004 25.2557 1.06489
708 1 -1.1104 12.4509 25.2071 3.83884
709 1 -1.1104 12.2136 22.5027 0.966492
710 1 -1.1104 12.2484 28.0317 1.0026
711 2 2.2208 10.9712 26.6296 2.5772
712 1 -1.1104 12.3156 22.3364 3.89084
713 1 -1.1104 12.4626 28.0013 3.85981
714 1 -1.1104 9.49828 25.1863 0.962048
715 2 2.2208 8.18126 23.7833 2.30511
716 2 2.2208 8.10661 29.3827 2.51492
717 1 -1.1104 9.40777 25.1878 3.88224
718 2 2.2208 8.23237 26.5476 5.24393
719 1 -1.1104 9.53554 22.1999 1.07687
720 1 -1.1104 9.25957 27.8943 1.18494
721 1 -1.1104 9.69468 22.3479 3.95038
722 1 -1.1104 9.57256 27.9348 3.94146
852 1 -1.1104 9.64199 25.1828 6.56288
850 1 -1.1104 12.3072 22.3634 6.52748
854 1 -1.1104 9.62835 27.9897 6.76824
849 1 -1.1104 12.2667 25.092 6.58769
851 1 -1.1104 12.4359 27.9381 6.74965
853 1 -1.1104 9.5697 22.4189 6.71821
727 2 2.2208 5.31541 35.0628 5.27029
728 1 -1.1104 0.92806 30.9068 1.07241
729 1 -1.1104 0.964755 36.2936 0.961689
731 1 -1.1104 0.973334 30.8837 3.7212
732 1 -1.1104 1.03562 36.4489 3.92139
734 1 -1.1104 1.05054 33.5941 0.931175
735 2 2.2208 5.33835 32.2377 2.42973
736 2 2.2208 5.19467 37.7974 2.33277
737 1 -1.1104 0.919954 33.6873 3.70932
739 1 -1.1104 3.855 30.9083 0.799179
740 1 -1.1104 3.73968 36.484 0.943277
741 2 2.2208 2.39883 35.0727 2.48413
742 1 -1.1104 3.56188 31.0499 3.86393
743 1 -1.1104 3.68583 36.4522 3.79698
744 2 2.2208 2.43915 32.5101 5.37645
745 2 2.2208 2.4037 37.8603 5.24268
746 1 -1.1104 3.70618 33.7414 0.973924
747 1 -1.1104 3.91538 33.8935 3.87801
879 1 -1.1104 4.1173 31.089 6.51171
730 1 -1.1104 6.55245 36.3735 1.03876
873 1 -1.1104 0.949639 30.9096 6.54714
881 1 -1.1104 3.82583 33.7826 6.7135
874 1 -1.1104 1.0072 36.396 6.5942
877 1 -1.1104 0.873481 33.7605 6.52255
1004 2 2.2208 7.923 43.4531 -0.281231
750 1 -1.1104 6.62931 30.7221 1.20225
981 2 2.2208 13.6824 37.8538 5.21314
1017 2 2.2208 5.29864 40.6276 -0.382101
738 1 -1.1104 6.69036 33.6598 3.97523
878 1 -1.1104 6.68155 33.5739 6.61327
752 1 -1.1104 6.72969 33.5635 1.17769
733 1 -1.1104 6.72623 36.3615 3.77278
751 1 -1.1104 6.54489 30.9009 3.87887
753 2 2.2208 10.8402 35.1063 5.2358
754 1 -1.1104 12.2478 30.7082 1.15801
755 1 -1.1104 12.2537 36.3565 1.24005
756 1 -1.1104 12.34 30.8344 3.9073
757 1 -1.1104 12.1891 36.481 3.98276
758 1 -1.1104 12.3923 33.6304 1.05285
759 2 2.2208 11.0606 32.2078 2.52146
760 2 2.2208 10.8444 37.899 2.47688
761 1 -1.1104 12.3122 33.6239 3.74047
762 1 -1.1104 9.50578 30.8505 0.999106
763 1 -1.1104 9.41768 36.2992 1.24989
764 2 2.2208 8.0682 34.8595 2.51972
765 1 -1.1104 9.47399 30.7995 3.85657
766 1 -1.1104 9.4137 36.4908 3.97305
767 2 2.2208 8.03846 32.1146 5.23154
768 2 2.2208 7.9781 37.7279 5.29163
769 1 -1.1104 9.54253 33.435 1.16146
770 1 -1.1104 9.57274 33.6498 3.82676
908 1 -1.1104 12.1958 36.4998 6.64254
909 1 -1.1104 12.3464 33.5789 6.68413
910 1 -1.1104 9.62008 30.788 6.50909
1601 1 -1.1104 9.47664 47.5531 9.38564
970 1 -1.1104 9.42388 39.2729 12.5238
875 1 -1.1104 6.92303 30.7926 6.6629
912 1 -1.1104 9.61642 33.7097 6.68033
907 1 -1.1104 12.4016 30.7357 6.68281
749 2 2.2208 -0.408704 37.8838 2.48584
974 2 2.2208 8.02269 40.6674 7.88529
772 2 2.2208 5.18959 40.6526 5.0878