ITEM: TIMESTEP
70000
ITEM: NUMBER OF ATOMS
17820
ITEM: BOX BOUNDS pp pp pp
-3.6284173316398460e-01 2.7702841733164210e+01
-4.2932301307831455e+00 3.3237323013079134e+02
-3.6625828347700740e-01 2.7706258283476494e+01
ITEM: ATOMS id type q x y z
1 2 2.2208 5.12585 1.47477 5.33834
2 1 -1.1104 1.08105 -2.73079 0.906508
3 1 -1.1104 0.959151 2.8506 1.09687
6 1 -1.1104 1.08597 -2.76887 3.76209
7 1 -1.1104 0.884477 2.82393 3.86091
10 1 -1.1104 1.08882 -0.0138866 1.21426
12 2 2.2208 5.3202 -1.4163 2.45795
13 2 2.2208 5.21133 4.24777 2.5525
14 1 -1.1104 1.03276 0.0484102 4.07139
16 1 -1.1104 3.95566 -2.91204 1.08292
17 1 -1.1104 3.91216 2.77987 1.18804
18 2 2.2208 2.42795 1.42255 2.48804
19 1 -1.1104 3.97319 -2.82774 3.92105
20 1 -1.1104 3.68131 2.83521 3.85769
21 2 2.2208 2.44489 -1.51537 5.32197
22 2 2.2208 2.41108 4.37023 5.28305
23 1 -1.1104 3.78721 -0.0353046 1.06522
24 1 -1.1104 3.88533 -0.170091 3.99245
164 1 -1.1104 0.953493 2.92685 6.6473
8521 2 2.2208 2.41439 -4.25448 8.01509
325 2 2.2208 2.36576 4.28804 -0.328024
9 1 -1.1104 6.47674 2.61135 3.95854
4 1 -1.1104 6.64201 -2.87656 0.872666
8 1 -1.1104 6.69758 -2.76619 3.80749
556 2 2.2208 2.49448 -1.40622 -0.315868
199 2 2.2208 13.6664 21.0429 10.8902
167 1 -1.1104 1.03408 -0.078115 7.05226
585 2 2.2208 10.8771 1.31975 -0.503561
586 2 2.2208 7.99099 -1.52469 -0.362177
15 1 -1.1104 6.67139 -0.108084 3.83015
5 1 -1.1104 6.66296 2.91397 0.960508
11 1 -1.1104 6.54737 0.0582396 0.933593
31 2 2.2208 10.8889 1.45715 5.26685
32 1 -1.1104 12.2168 -2.79679 0.867655
33 1 -1.1104 12.248 2.78452 0.953618
34 1 -1.1104 12.3032 -2.78481 3.75241
35 1 -1.1104 12.1442 2.7436 3.79536
36 1 -1.1104 12.2357 -0.0092291 1.0208
37 2 2.2208 10.7315 -1.36675 2.37028
38 2 2.2208 10.9197 4.16157 2.34936
39 1 -1.1104 12.2163 0.0166878 3.78424
40 1 -1.1104 9.39416 -2.95181 1.03412
41 1 -1.1104 9.58802 2.67762 0.954244
42 2 2.2208 7.99007 1.30609 2.38676
43 1 -1.1104 9.38063 -2.807 3.6948
44 1 -1.1104 9.30248 3.11777 3.74828
45 2 2.2208 8.03431 -1.43195 5.29077
46 2 2.2208 7.9243 4.17921 5.38014
47 1 -1.1104 9.43384 -0.0488479 0.97668
48 1 -1.1104 9.46442 0.0286032 3.83035
8524 2 2.2208 10.8957 -4.1779 11.0668
326 2 2.2208 8.11226 15.6124 -0.384452
8522 2 2.2208 5.32385 -4.19165 10.7401
30 2 2.2208 5.38954 -4.28824 5.27404
8523 2 2.2208 8.20364 -4.25866 8.15258
29 2 2.2208 2.50688 -4.21626 2.48418
286 1 -1.1104 6.56048 14.0165 9.57684
54 2 2.2208 5.30242 7.05375 5.31197
55 2 2.2208 5.0927 12.6574 5.40764
56 1 -1.1104 0.994085 8.31062 1.16001
58 1 -1.1104 1.06483 8.3966 4.04667
60 1 -1.1104 1.09042 5.64573 1.10448
61 1 -1.1104 0.880456 11.1527 1.09687
65 2 2.2208 5.29989 9.91198 2.46672
66 1 -1.1104 0.978491 5.6355 3.87209
67 1 -1.1104 0.889825 11.2184 3.96772
70 1 -1.1104 3.66218 8.28223 0.953925
71 2 2.2208 2.50809 7.00451 2.52531
72 2 2.2208 2.34214 12.6161 2.49355
73 1 -1.1104 3.82961 8.3602 3.84436
74 2 2.2208 2.51474 9.79938 5.30372
75 1 -1.1104 4.06514 5.62372 1.13321
76 1 -1.1104 3.75077 11.2892 0.799902
78 1 -1.1104 3.78676 5.66795 3.99408
79 1 -1.1104 3.67054 11.1491 3.77189
57 1 -1.1104 6.3358 8.61667 0.806489
328 2 2.2208 5.36623 12.9001 -0.206353
77 1 -1.1104 3.82329 11.1737 6.65893
312 2 2.2208 7.98077 21.2183 10.9801
230 1 -1.1104 1.01482 8.46447 6.70955
59 1 -1.1104 6.39865 8.67623 4.17108
68 1 -1.1104 6.63255 5.37867 3.8549
234 1 -1.1104 3.80778 8.35374 6.78265
62 1 -1.1104 0.989104 11.4005 6.80239
327 2 2.2208 2.1888 9.79621 -0.291805
8528 2 2.2208 10.732 -4.3239 -0.368808
69 1 -1.1104 6.60938 11.3817 3.92241
53 2 2.2208 10.7696 -4.22102 5.14919
63 1 -1.1104 6.60877 11.4294 1.02903
330 2 2.2208 8.11624 9.76583 -0.198817
83 2 2.2208 10.9217 7.1084 5.35769
84 2 2.2208 10.72 12.7817 5.26852
85 1 -1.1104 12.29 8.46925 1.16788
86 1 -1.1104 12.2909 8.39031 3.85603
87 1 -1.1104 12.1793 5.71683 1.13866
88 1 -1.1104 12.3303 11.2148 1.08208
90 2 2.2208 10.8446 9.68544 2.57356
91 1 -1.1104 11.9996 5.38106 3.85349
92 1 -1.1104 12.2074 11.18 3.88822
93 1 -1.1104 9.4862 8.53476 1.14146
94 2 2.2208 8.05913 12.7227 2.58854
95 1 -1.1104 9.52122 8.56736 4.11844
96 2 2.2208 8.0327 9.86308 5.26435
97 1 -1.1104 9.10189 5.55972 1.37955
98 1 -1.1104 9.39554 11.1826 1.20829
100 1 -1.1104 9.41578 11.3234 3.93875
265 1 -1.1104 9.56775 5.55825 6.3576
329 2 2.2208 10.7251 7.03089 -0.254795
261 1 -1.1104 12.1018 8.41983 6.7865
370 2 2.2208 13.6177 15.4391 -0.165718
101 2 2.2208 13.688 12.5984 2.52832
9216 2 2.2208 -0.409007 -1.38167 8.28861
672 2 2.2208 5.08066 18.3541 -0.219797
103 2 2.2208 5.14184 18.2925 5.3695
104 1 -1.1104 1.04331 14.0029 1.13992
106 1 -1.1104 1.10825 19.5394 1.01241
110 1 -1.1104 0.94609 14.0228 3.99501
111 1 -1.1104 1.03371 19.6018 3.83718
113 1 -1.1104 1.00566 16.8073 1.17256
116 2 2.2208 5.20942 15.4406 2.58001
117 2 2.2208 5.2259 21.0788 2.54275
118 1 -1.1104 0.983749 16.8227 3.86821
120 1 -1.1104 3.8525 14.1363 1.18051
122 1 -1.1104 3.83398 19.7156 1.14976
124 2 2.2208 2.42603 18.1841 2.56457
125 1 -1.1104 3.66446 14.0039 4.08717
126 1 -1.1104 3.769 19.614 3.97358
127 2 2.2208 2.40352 15.4582 5.35928
128 2 2.2208 2.50755 21.1195 5.33336
129 1 -1.1104 3.77124 16.8982 1.15371
131 1 -1.1104 3.74206 16.8303 3.84845
52 2 2.2208 7.94562 -4.28492 2.47884
196 2 2.2208 10.792 15.6013 8.10971
102 2 2.2208 13.6395 6.91168 2.47172
200 2 2.2208 -0.537238 6.8796 10.9401
119 1 -1.1104 6.50624 16.898 4.02906
136 1 -1.1104 6.66152 19.7253 3.94022
112 1 -1.1104 6.50266 14.1182 3.97808
135 1 -1.1104 6.60844 19.7863 1.23276
107 1 -1.1104 6.76457 14.136 1.24343
137 1 -1.1104 6.60345 16.9047 1.09427
138 2 2.2208 10.6915 18.2285 5.26917
139 1 -1.1104 12.1696 14.1223 1.09867
141 1 -1.1104 12.0808 19.7433 1.12536
143 1 -1.1104 12.1072 14.1485 3.93244
144 1 -1.1104 12.1443 19.7118 4.079
145 1 -1.1104 12.1727 17.0146 1.09379
147 2 2.2208 10.6685 15.4932 2.49582
148 2 2.2208 10.9497 21.1347 2.47906
149 1 -1.1104 12.183 16.8125 3.74754
150 1 -1.1104 9.5101 13.9899 1.1001
152 1 -1.1104 9.35389 19.6663 1.08426
154 2 2.2208 7.94562 18.3334 2.50562
155 1 -1.1104 9.33544 14.1815 3.96239
156 1 -1.1104 9.53716 19.6981 3.79988
157 2 2.2208 7.95595 15.5662 5.34326
158 2 2.2208 8.11398 21.1557 5.29531
159 1 -1.1104 9.4506 16.9414 1.08354
161 1 -1.1104 9.31436 16.9585 3.8513
565 2 2.2208 7.91091 21.1181 -0.288937
146 1 -1.1104 12.321 16.8872 6.66178
8991 2 2.2208 13.6477 21.0845 5.43692
9126 2 2.2208 13.6535 12.7057 7.9996
207 1 -1.1104 9.53497 14.0432 12.1317
564 2 2.2208 10.8191 18.3026 -0.326153
9208 2 2.2208 13.6771 15.2999 10.9064
227 2 2.2208 7.84186 18.104 8.28313
170 1 -1.1104 3.90729 2.81074 6.97601
163 1 -1.1104 0.993876 -3.03011 6.69404
169 1 -1.1104 3.87557 -2.94423 6.66228
171 1 -1.1104 3.76242 0.0385492 6.66984
173 2 2.2208 5.18383 1.40271 10.7355
174 1 -1.1104 1.25432 -2.52265 12.1932
175 1 -1.1104 0.743112 2.77784 12.3533
178 1 -1.1104 1.2047 -2.81593 9.46276
179 1 -1.1104 0.909333 2.69142 9.55693
183 2 2.2208 5.33714 -1.43641 7.97818
184 2 2.2208 5.27581 4.18114 8.26147
185 1 -1.1104 1.01215 -0.0521336 9.94133
187 1 -1.1104 3.87648 -2.88421 12.2429
188 1 -1.1104 3.88994 2.89624 12.1846
189 2 2.2208 2.4657 1.51276 8.22082
190 1 -1.1104 4.00617 -2.9007 9.37834
191 1 -1.1104 3.85186 2.80372 9.59781
192 2 2.2208 2.68028 -1.51084 10.7705
193 2 2.2208 2.45626 4.12789 10.986
194 1 -1.1104 3.93949 -0.117027 12.1851
195 1 -1.1104 3.85749 -0.124067 9.25395
172 2 2.2208 -0.18954 -4.05984 11.031
226 1 -1.1104 9.26756 19.687 12.2893
168 1 -1.1104 6.63273 0.140857 6.70634
166 1 -1.1104 6.65058 2.90521 6.76417
9209 2 2.2208 13.6156 18.3467 8.12798
205 1 -1.1104 9.43886 2.61461 6.64592
165 1 -1.1104 6.7185 -2.80734 6.63007
180 1 -1.1104 6.85079 -2.95345 9.43317
181 1 -1.1104 6.72128 2.74725 9.51832
202 1 -1.1104 12.1848 2.90829 6.54991
201 1 -1.1104 12.0242 -2.87351 6.60516
203 1 -1.1104 12.3029 -0.0100437 6.71065
204 1 -1.1104 9.42375 -3.03108 6.61052
182 1 -1.1104 6.75884 -0.0198081 12.2095
176 1 -1.1104 6.62432 -2.6798 12.2556
186 1 -1.1104 6.67942 -0.0846372 9.47605
206 1 -1.1104 9.53395 -0.137266 6.79017
177 1 -1.1104 6.57808 2.78961 12.4175
208 2 2.2208 10.8975 1.4415 10.8541
209 1 -1.1104 12.2842 -2.72175 12.3167
210 1 -1.1104 12.1467 3.00144 12.2312
211 1 -1.1104 12.2569 -2.7502 9.44991
212 1 -1.1104 12.2421 2.77326 9.3595
213 1 -1.1104 12.1889 0.097154 12.3572
214 2 2.2208 10.9785 -1.44515 8.05581
215 2 2.2208 10.7737 4.2042 7.95885
216 1 -1.1104 12.4056 0.116556 9.43303
217 1 -1.1104 9.48128 -2.77522 12.3368
218 1 -1.1104 9.43643 2.77697 12.2801
219 2 2.2208 8.12414 1.43378 8.02484
220 1 -1.1104 9.60496 -2.82749 9.56126
221 1 -1.1104 9.59581 2.86287 9.45823
222 2 2.2208 8.06661 -1.43543 10.9388
223 2 2.2208 8.1031 4.2419 10.9542
224 1 -1.1104 9.42549 0.00901692 12.2923
225 1 -1.1104 9.51612 0.120423 9.63106
9219 2 2.2208 13.6985 1.48759 8.05817
235 1 -1.1104 3.74698 5.52097 6.63322
231 1 -1.1104 6.60845 8.39347 6.78263
80 1 -1.1104 12.1819 19.8068 9.71057
308 1 -1.1104 9.32854 19.569 9.52145
232 1 -1.1104 1.01812 5.73259 6.73656
236 2 2.2208 5.15613 6.99168 10.9463
237 2 2.2208 5.14681 12.5503 10.9538
238 1 -1.1104 0.958146 8.29836 12.3123
240 1 -1.1104 0.820713 8.46297 9.5472
242 1 -1.1104 0.962261 5.51391 12.2778
243 1 -1.1104 0.924587 11.127 12.4396
246 2 2.2208 5.16005 9.85025 8.10479
247 1 -1.1104 1.02503 5.56632 9.51975
248 1 -1.1104 1.05605 11.2617 9.686
251 1 -1.1104 3.68132 8.36114 12.492
252 2 2.2208 2.32904 6.92474 8.21206
253 2 2.2208 2.42421 12.5913 8.31968
254 1 -1.1104 3.71837 8.33252 9.65407
255 2 2.2208 2.30713 9.73812 11.0381
256 1 -1.1104 3.73802 5.63563 12.2816
257 1 -1.1104 3.69114 11.1791 12.3806
258 1 -1.1104 3.62788 5.4979 9.45641
259 1 -1.1104 3.69358 11.2053 9.49032
245 1 -1.1104 6.41058 11.1958 12.3511
233 1 -1.1104 6.57775 5.63233 6.7968
250 1 -1.1104 6.52526 11.2845 9.53316
239 1 -1.1104 6.55914 8.47137 12.2968
262 1 -1.1104 12.3595 5.66457 6.6298
64 1 -1.1104 6.57874 11.2026 6.75253
132 2 2.2208 -0.295384 15.3054 2.64841
241 1 -1.1104 6.52932 8.47474 9.55303
89 1 -1.1104 12.2048 11.2414 6.62442
263 1 -1.1104 9.38041 8.38623 6.86834
249 1 -1.1104 6.6444 5.72767 9.55775
244 1 -1.1104 6.5684 5.69434 12.2502
99 1 -1.1104 9.26975 11.2714 6.8316
260 1 -1.1104 9.52651 11.2075 9.66667
264 1 -1.1104 9.44441 5.52579 9.08559
266 1 -1.1104 9.4319 11.1408 12.3817
267 1 -1.1104 9.38667 5.62239 12.2125
268 2 2.2208 7.99964 9.86355 10.9528
269 1 -1.1104 9.33832 8.29188 9.63662
270 2 2.2208 8.00617 12.611 8.04498
271 2 2.2208 7.9813 6.9794 8.15633
272 2 2.2208 10.8745 7.14196 10.9535
273 2 2.2208 10.9498 12.6295 10.7669
274 1 -1.1104 12.3018 8.68705 12.331
275 1 -1.1104 12.1767 8.40014 9.56785
276 1 -1.1104 12.2201 5.83553 12.3056
277 1 -1.1104 12.2594 11.3336 12.2434
278 2 2.2208 10.8395 9.8496 8.14576
279 1 -1.1104 12.3035 5.63764 9.42502
280 1 -1.1104 12.2759 11.1584 9.37649
281 1 -1.1104 9.33891 8.30591 12.5443
153 1 -1.1104 9.29475 19.6944 6.68647
160 1 -1.1104 9.28765 16.9191 6.73687
140 1 -1.1104 12.2788 14.0648 6.66691
9130 2 2.2208 13.8138 9.91708 10.9217
114 1 -1.1104 1.13238 16.9029 6.73323
109 1 -1.1104 6.39511 19.6363 7.13522
285 1 -1.1104 6.51423 16.8422 9.6495
123 1 -1.1104 3.74684 19.68 6.779
302 1 -1.1104 6.55018 16.8165 12.213
298 1 -1.1104 1.03313 19.6505 6.6842
105 1 -1.1104 0.910713 14.1164 6.73911
121 1 -1.1104 3.73199 13.9229 6.90106
130 1 -1.1104 3.85956 16.8817 6.66703
282 1 -1.1104 3.49068 19.7263 12.1708
283 1 -1.1104 3.84503 14.0482 12.3747
287 1 -1.1104 0.877205 19.6391 9.47444
288 1 -1.1104 0.881427 16.9433 9.60353
289 2 2.2208 5.19809 21.2232 8.17902
290 1 -1.1104 1.09789 14.2362 9.45486
291 2 2.2208 5.18673 15.423 8.23179
294 1 -1.1104 0.818456 19.663 12.2729
295 1 -1.1104 1.02347 13.9142 12.3067
296 2 2.2208 5.16041 18.368 11.0568
297 1 -1.1104 3.84472 19.8449 9.43693
299 2 2.2208 2.47714 18.2874 8.12309
300 1 -1.1104 3.76147 17.0323 9.65331
301 1 -1.1104 3.72273 14.0289 9.72103
303 1 -1.1104 0.912752 16.7481 12.317
304 1 -1.1104 3.75635 16.8736 12.4856
305 2 2.2208 2.29212 21.0231 10.7664
306 2 2.2208 2.32848 15.4929 11.0915
284 1 -1.1104 6.66069 19.8128 9.89401
108 1 -1.1104 6.56026 13.971 6.6171
620 2 2.2208 -0.349946 12.689 -0.303242
197 2 2.2208 10.7506 21.012 8.27181
311 1 -1.1104 9.32996 16.7372 12.4208
292 1 -1.1104 6.34914 19.5703 12.9996
142 1 -1.1104 12.0879 19.7086 6.80708
25 2 2.2208 10.6834 18.1871 11.0222
313 2 2.2208 7.84123 15.405 10.8357
293 1 -1.1104 6.79428 13.9457 12.2673
50 1 -1.1104 12.1674 14.0667 9.48262
198 1 -1.1104 12.154 16.8535 9.48446
310 1 -1.1104 9.40702 16.8139 9.59537
81 1 -1.1104 12.1139 16.8605 12.2577
115 1 -1.1104 6.55646 16.8807 6.86711
307 1 -1.1104 9.33471 14.1008 9.29524
151 1 -1.1104 9.42465 14.1207 6.55839
26 1 -1.1104 12.2873 14.0821 12.2473
27 1 -1.1104 12.0989 19.6972 12.4558
82 2 2.2208 -0.379413 12.561 5.47974
9211 2 2.2208 -0.382693 1.34958 5.35839
28 2 2.2208 -0.571766 4.14334 2.52182
315 2 2.2208 13.6081 15.4301 5.19669
228 2 2.2208 -0.481593 9.80842 8.22879
9296 2 2.2208 13.7104 4.1806 -0.385389
9207 2 2.2208 -0.455177 -4.21445 5.26977
323 2 2.2208 4.93041 21.1034 13.7344
555 2 2.2208 5.232 1.37556 -0.370427
9260 2 2.2208 13.6538 1.45471 13.7595
9223 2 2.2208 -0.423369 -4.16674 -0.375164
617 2 2.2208 5.13418 7.22164 -0.402059
673 2 2.2208 2.38676 15.5301 -0.23428
671 2 2.2208 2.30973 21.0342 -0.216148
468 2 2.2208 10.8016 9.86633 13.7835
324 2 2.2208 8.01156 18.0618 13.7474
398 2 2.2208 13.6256 20.9456 -0.33765
333 2 2.2208 5.36495 1.52217 16.5773
334 1 -1.1104 0.9589 -3.00089 17.8249
335 1 -1.1104 1.03756 2.68061 18.1098
338 1 -1.1104 0.907193 -3.01979 15.0277
340 1 -1.1104 0.528385 3.00827 15.4941
346 1 -1.1104 0.824844 -0.174181 18.0098
348 2 2.2208 5.2046 -1.52673 19.2375
349 2 2.2208 5.28221 4.11887 19.4919
350 1 -1.1104 0.880164 -0.329392 15.3433
354 1 -1.1104 3.80326 -2.86975 17.7716
355 1 -1.1104 3.76866 2.65562 18.103
356 2 2.2208 2.39098 1.32795 19.1926
357 1 -1.1104 3.73181 -2.45798 15.1495
359 1 -1.1104 4.04835 2.79624 15.3752
361 2 2.2208 2.25815 -1.55184 16.669
362 2 2.2208 2.4952 4.03762 16.4886
363 1 -1.1104 3.88293 0.0268328 17.6525
352 1 -1.1104 6.40373 -0.0242955 14.9636
368 2 2.2208 -0.476726 1.37283 16.5111
503 2 2.2208 13.6073 18.1825 13.7233
364 1 -1.1104 3.65736 -0.239389 20.5562
358 1 -1.1104 3.78834 -3.09386 20.6633
339 1 -1.1104 0.973778 -2.97435 20.6655
322 2 2.2208 -0.454876 4.23808 13.7219
347 1 -1.1104 6.63083 0.130229 17.8034
366 2 2.2208 5.12006 -4.19625 16.4047
373 2 2.2208 5.05262 4.21403 13.7075
647 2 2.2208 13.6346 7.00848 25.0298
399 2 2.2208 10.7763 -4.28869 16.5352
8758 2 2.2208 8.07807 -4.2674 19.3491
336 1 -1.1104 6.60616 -2.69702 17.7487
342 1 -1.1104 6.57286 -2.9005 15.045
337 1 -1.1104 6.6939 2.91872 18.1003
344 1 -1.1104 6.7668 2.72102 15.2157
374 2 2.2208 10.6711 1.46361 16.4463
375 1 -1.1104 12.1622 -2.79227 17.9317
376 1 -1.1104 12.2244 2.8534 17.9798
377 1 -1.1104 12.1828 -2.8723 15.0296
379 1 -1.1104 12.1775 2.91232 15.1916
381 1 -1.1104 12.2251 0.0433072 17.8278
382 2 2.2208 10.7532 -1.39028 19.3379
383 2 2.2208 10.8057 4.15302 19.4006
384 1 -1.1104 12.1584 0.1349 15.0284
386 1 -1.1104 9.34816 -2.88029 18.0322
387 1 -1.1104 9.3992 2.79109 17.9428
388 2 2.2208 8.04791 1.43014 19.3503
389 1 -1.1104 9.31281 -2.78544 15.1454
391 1 -1.1104 9.45013 2.92753 15.0122
393 2 2.2208 7.99789 -1.38733 16.5596
395 1 -1.1104 9.37863 0.0143877 17.8679
396 1 -1.1104 9.28063 -0.0971357 15.1608
394 2 2.2208 8.07368 4.27868 16.5022
318 2 2.2208 10.8914 4.20477 13.6605
343 1 -1.1104 6.5608 -2.94601 20.5712
8784 2 2.2208 2.34762 -4.39144 19.3159
317 2 2.2208 8.12056 1.42552 13.654
8757 2 2.2208 10.93 -4.47893 22.0379
407 2 2.2208 5.19575 6.93355 16.531
408 2 2.2208 5.25136 12.5025 16.7401
409 1 -1.1104 0.888993 8.32424 18.0183
411 1 -1.1104 0.874781 8.39731 15.2171
415 1 -1.1104 1.15466 5.49235 18.0377
416 1 -1.1104 0.958014 11.094 18.0701
419 2 2.2208 5.20949 9.68188 19.4164
420 1 -1.1104 1.03918 5.65935 15.1344
422 1 -1.1104 0.970334 11.287 15.3244
428 1 -1.1104 3.73621 8.18809 18.035
429 2 2.2208 2.4902 6.89365 19.3378
430 2 2.2208 2.34484 12.6233 19.501
431 1 -1.1104 3.77502 8.55609 15.2304
433 2 2.2208 2.29021 9.74213 16.6755
434 1 -1.1104 3.92835 5.49594 17.9291
435 1 -1.1104 3.81567 11.0555 17.9818
436 1 -1.1104 3.88622 5.7185 14.9683
438 1 -1.1104 3.72114 11.2081 15.1279
371 2 2.2208 2.41368 -4.17015 13.6806
644 1 -1.1104 9.37343 16.9096 23.5339
440 2 2.2208 2.46506 12.6415 13.8098
410 1 -1.1104 6.66662 8.35958 18.091
439 1 -1.1104 3.68091 11.0405 20.5613
442 2 2.2208 2.3501 6.94422 13.7713
369 2 2.2208 13.5796 18.2448 25.0773
417 1 -1.1104 6.61948 5.58116 17.8666
418 1 -1.1104 6.71951 11.2082 18.0101
8529 2 2.2208 8.06303 -4.28022 13.8252
424 1 -1.1104 6.71407 5.55904 15.1146
426 1 -1.1104 6.60042 11.2235 15.1202
413 1 -1.1104 6.52409 8.41516 15.2061
444 2 2.2208 10.7602 6.95673 16.4255
445 2 2.2208 10.6959 12.6571 16.5347
446 1 -1.1104 12.1764 8.33 17.7863
447 1 -1.1104 12.2064 8.45733 15.2031
449 1 -1.1104 12.2046 5.56441 17.8879
450 1 -1.1104 12.121 11.0822 18.04
451 2 2.2208 10.7872 9.76784 19.3223
452 1 -1.1104 12.3537 5.72175 15.2466
454 1 -1.1104 12.1417 11.1746 15.0281
456 1 -1.1104 9.32349 8.31578 17.8195
457 2 2.2208 7.99056 6.87645 19.3285
458 2 2.2208 8.03015 12.6359 19.4033
459 1 -1.1104 9.43532 8.5028 15.1546
461 2 2.2208 7.84753 9.80303 16.6536
462 1 -1.1104 9.30143 5.54963 17.9698
463 1 -1.1104 9.38271 11.2002 17.9288
464 1 -1.1104 9.42761 5.60729 14.9581
466 1 -1.1104 9.30922 11.1749 15.2202
319 2 2.2208 8.00223 6.95691 13.7571
455 1 -1.1104 12.2192 11.1784 20.8293
443 2 2.2208 7.98266 12.5975 13.6721
489 1 -1.1104 6.5801 16.6811 20.888
470 1 -1.1104 0.865257 13.8576 17.8818
471 1 -1.1104 1.11994 19.4912 17.8917
474 1 -1.1104 1.01407 14.0354 15.1255
476 1 -1.1104 0.896297 19.4588 15.0452
482 1 -1.1104 0.812348 16.6664 17.9906
484 2 2.2208 5.12607 15.4936 19.3676
485 2 2.2208 5.02775 20.931 19.1435
486 1 -1.1104 1.20903 16.7554 15.2735
490 1 -1.1104 3.61148 13.8659 17.8607
491 1 -1.1104 3.65383 19.5854 18.0628
492 2 2.2208 2.43554 18.1655 19.2266
493 1 -1.1104 3.74973 14.454 14.9951
495 1 -1.1104 3.69645 19.6406 14.8604
497 2 2.2208 2.30041 15.2841 16.5712
498 2 2.2208 2.34012 20.9721 16.5253
499 1 -1.1104 3.53272 16.641 17.9202
557 2 2.2208 8.09664 18.2575 24.8024
593 1 -1.1104 12.3395 13.9361 26.3946
478 1 -1.1104 6.56513 13.9135 15.0566
494 1 -1.1104 3.76674 13.8815 20.7672
475 1 -1.1104 0.868544 13.9269 20.7265
487 1 -1.1104 0.984924 16.7417 20.6761
496 1 -1.1104 3.76726 19.5967 20.781
590 2 2.2208 13.5621 20.8136 16.5992
472 1 -1.1104 6.48173 14.0009 17.963
488 1 -1.1104 6.49003 16.7687 14.9756
473 1 -1.1104 6.75951 19.7486 18.0103
483 1 -1.1104 6.71792 16.7562 18.0405
504 2 2.2208 10.5931 18.2027 16.513
505 1 -1.1104 12.1342 13.8378 17.8947
506 1 -1.1104 12.0938 19.6063 17.8998
507 1 -1.1104 12.2343 13.9996 14.9592
509 1 -1.1104 12.1176 19.5409 15.2246
511 1 -1.1104 12.1097 16.8435 17.9495
512 2 2.2208 10.7647 15.3464 19.319
513 2 2.2208 10.864 21.0326 19.4077
514 1 -1.1104 12.233 16.8432 15.0215
516 1 -1.1104 9.26768 13.9489 17.8534
517 1 -1.1104 9.45364 19.6284 17.8858
518 2 2.2208 7.93134 18.1727 19.2796
519 1 -1.1104 9.43014 14.1168 15.0963
521 1 -1.1104 9.11872 19.4728 15.1559
523 2 2.2208 7.88534 15.4153 16.5489
524 2 2.2208 7.90321 21.0806 16.585
525 1 -1.1104 9.37608 16.778 17.9651
526 1 -1.1104 9.18961 16.7792 15.2583
515 1 -1.1104 12.1772 16.8636 20.8092
527 1 -1.1104 9.41308 16.7056 20.6197
481 1 -1.1104 6.67118 19.5459 20.8084
479 1 -1.1104 6.62504 13.9859 20.7102
522 1 -1.1104 9.50444 19.5039 20.6115
9224 2 2.2208 13.6186 7.05762 13.6828
351 1 -1.1104 0.966999 -0.171349 20.766
345 1 -1.1104 6.59328 2.65017 20.777
469 2 2.2208 13.464 12.5911 19.316
341 1 -1.1104 0.833943 2.75615 20.8751
360 1 -1.1104 3.75184 2.68635 20.9483
531 2 2.2208 5.29381 1.36541 22.1181
532 1 -1.1104 1.07356 -2.75182 23.5056
533 1 -1.1104 0.998083 3.00601 23.7103
536 1 -1.1104 1.08474 -2.71392 26.276
537 1 -1.1104 0.937127 2.77893 26.4211
540 1 -1.1104 1.13328 0.025691 23.4815
542 2 2.2208 5.22834 -1.36253 24.9043
543 2 2.2208 5.11123 4.21449 24.9792
544 1 -1.1104 0.996429 -0.0533066 26.4129
546 1 -1.1104 3.8492 -2.72337 23.543
547 1 -1.1104 3.90995 2.86064 23.6217
548 2 2.2208 2.43736 1.32855 24.9241
549 1 -1.1104 3.7704 -2.72634 26.2867
550 1 -1.1104 3.92089 2.75037 26.3256
551 2 2.2208 2.45438 -1.47061 22.1719
552 2 2.2208 2.28271 4.19276 22.1725
553 1 -1.1104 3.87209 -0.00257283 23.4184
554 1 -1.1104 3.87057 -0.0483853 26.367
534 1 -1.1104 6.67076 -2.84012 23.4134
645 2 2.2208 13.7301 12.6093 24.9664
535 1 -1.1104 6.64648 2.7008 23.4712
538 1 -1.1104 6.7413 -2.81361 26.2597
9297 2 2.2208 13.6227 1.42516 24.9093
367 2 2.2208 13.5897 9.76145 22.152
380 1 -1.1104 12.2842 2.75906 20.8854
378 1 -1.1104 12.1851 -2.89787 20.7267
390 1 -1.1104 9.44059 -2.89827 20.767
397 1 -1.1104 9.35947 0.0238573 20.6855
392 1 -1.1104 9.45399 2.75656 20.7
541 1 -1.1104 6.49472 -0.0320179 23.5642
539 1 -1.1104 6.74832 2.817 26.2402
353 1 -1.1104 6.56206 -0.172256 20.6251
545 1 -1.1104 6.60557 -0.105443 26.2816
385 1 -1.1104 12.0543 -0.0556958 20.7143
567 2 2.2208 10.669 1.32789 22.1914
568 1 -1.1104 12.1901 -3.02501 23.3938
569 1 -1.1104 12.1671 2.68228 23.5885
570 1 -1.1104 12.2824 -2.75935 26.2275
571 1 -1.1104 12.3859 2.90018 26.3172
572 1 -1.1104 12.085 -0.0166853 23.6781
573 2 2.2208 10.7401 -1.50484 24.8827
574 2 2.2208 10.8537 4.24176 25.054
575 1 -1.1104 12.0844 -0.0861152 26.3357
576 1 -1.1104 9.36377 -3.0062 23.5303
577 1 -1.1104 9.37626 2.75473 23.32
578 2 2.2208 7.92552 1.37126 24.9114
579 1 -1.1104 9.39276 -2.97401 26.2994
580 1 -1.1104 9.45929 2.69155 26.2294
581 2 2.2208 7.96749 -1.50374 22.0972
582 2 2.2208 8.09019 4.21598 22.1459
583 1 -1.1104 9.29448 -0.0879809 23.4505
584 1 -1.1104 9.23078 -0.140468 26.2507
649 1 -1.1104 6.85012 14.1434 26.3714
427 1 -1.1104 6.56236 11.0383 20.8869
594 1 -1.1104 12.2222 19.6948 26.3889
432 1 -1.1104 3.95337 8.29368 20.6874
437 1 -1.1104 3.90564 5.37987 20.6814
412 1 -1.1104 0.958135 8.23894 20.8103
421 1 -1.1104 1.15018 5.52843 20.7822
423 1 -1.1104 0.880125 10.9374 21.4793
596 2 2.2208 5.16437 6.94556 22.1952
597 2 2.2208 5.29244 12.6139 22.2365
598 1 -1.1104 0.984351 8.71174 23.6472
600 1 -1.1104 0.797833 8.17626 26.4211
602 1 -1.1104 0.756463 5.7356 23.6161
605 2 2.2208 5.39082 9.8511 24.8611
606 1 -1.1104 1.00853 5.62702 26.2416
607 1 -1.1104 0.832588 11.0549 26.3692
610 1 -1.1104 3.77675 8.18946 23.5574
611 2 2.2208 2.30571 7.06382 24.8974
612 1 -1.1104 3.6278 8.76738 26.1813
613 2 2.2208 2.54013 9.63315 22.1927
614 1 -1.1104 3.64741 5.56311 23.6419
615 1 -1.1104 4.11258 10.9823 23.4409
616 1 -1.1104 3.82402 5.78953 26.4162
609 1 -1.1104 6.17726 11.3696 26.2973
601 1 -1.1104 6.68503 8.5157 26.2086
425 1 -1.1104 6.70865 5.43277 20.8011
608 1 -1.1104 6.69695 5.84221 26.6683
465 1 -1.1104 9.4929 5.50728 20.724
467 1 -1.1104 9.36791 11.1245 20.7265
453 1 -1.1104 12.1161 5.54737 20.6534
502 1 -1.1104 9.58244 14.214 23.5958
414 1 -1.1104 6.73293 8.15089 20.6932
460 1 -1.1104 9.34428 8.33911 20.6705
603 1 -1.1104 6.54449 5.45419 23.6812
448 1 -1.1104 12.1579 8.28195 20.7176
599 1 -1.1104 6.58848 8.08592 23.5912
604 1 -1.1104 6.86535 11.0457 23.6061
624 1 -1.1104 9.22038 11.1057 26.306
625 1 -1.1104 9.58093 5.50287 26.4698
626 1 -1.1104 9.56109 11.165 23.5388
627 1 -1.1104 9.41958 5.46151 23.5597
628 2 2.2208 8.00989 9.74494 22.0869
629 1 -1.1104 9.38614 8.37876 26.3936
630 2 2.2208 8.10006 12.626 25.0699
631 2 2.2208 8.00381 6.91743 24.9901
632 2 2.2208 10.7053 7.02213 22.0996
633 2 2.2208 10.7932 12.6302 22.2061
634 1 -1.1104 12.1784 8.30388 23.4815
635 1 -1.1104 12.2436 8.34583 26.3842
636 1 -1.1104 12.2485 5.59427 23.5839
637 1 -1.1104 12.1892 11.1737 23.5306
638 2 2.2208 10.7527 9.79474 24.9877
639 1 -1.1104 12.3125 5.67083 26.5706
640 1 -1.1104 12.0881 11.191 26.4808
641 1 -1.1104 9.23172 8.33845 23.5078
655 1 -1.1104 6.62587 19.5868 23.5435
406 2 2.2208 13.7434 12.5961 13.7478
9400 2 2.2208 13.5041 15.4575 16.5132
508 1 -1.1104 12.1766 14.0838 20.7385
477 1 -1.1104 1.02073 19.5118 20.6241
500 1 -1.1104 3.7483 16.8006 20.8554
648 1 -1.1104 3.96545 19.7384 23.4671
650 1 -1.1104 4.11284 14.2279 23.5134
652 1 -1.1104 0.79882 19.6789 26.2157
653 1 -1.1104 0.99447 16.9174 26.5045
654 1 -1.1104 0.969801 14.2064 26.622
656 2 2.2208 5.18676 21.1167 24.8546
657 2 2.2208 5.26102 15.4983 24.9146
659 1 -1.1104 0.879816 19.5572 23.4535
660 1 -1.1104 0.89668 13.9327 23.469
661 2 2.2208 5.16777 18.2375 22.1815
662 1 -1.1104 3.47329 19.7952 26.4272
663 2 2.2208 2.34853 18.2737 25.0559
664 1 -1.1104 3.8071 17.1234 26.2704
665 1 -1.1104 4.09158 14.3554 26.5781
667 1 -1.1104 0.847702 16.7909 23.6826
668 1 -1.1104 3.8026 16.9199 23.6034
669 2 2.2208 2.40872 20.9855 22.144
670 2 2.2208 2.41942 15.4366 22.2754
651 1 -1.1104 6.61353 17.0271 26.3116
592 1 -1.1104 12.2408 19.6354 23.6372
618 1 -1.1104 9.56687 14.0252 26.4116
646 1 -1.1104 9.55881 16.9003 26.3467
9331 2 2.2208 13.5589 6.97778 19.2455
643 2 2.2208 7.91221 21.0471 21.9851
588 1 -1.1104 12.3291 13.9391 23.6803
559 1 -1.1104 6.30758 19.7504 26.4615
622 2 2.2208 10.7284 20.9984 24.8698
642 2 2.2208 7.93988 15.5373 22.1297
619 1 -1.1104 9.24318 19.6734 26.2456
623 1 -1.1104 12.4292 16.7695 26.3792
658 1 -1.1104 6.79274 13.9125 23.6966
566 2 2.2208 10.8581 18.3232 22.1117
621 2 2.2208 10.8494 15.3957 25.0008
666 1 -1.1104 6.66996 16.8674 23.44
528 1 -1.1104 9.4607 19.7554 23.4725
510 1 -1.1104 12.2866 19.7371 20.8828
595 1 -1.1104 12.2247 16.8215 23.5574
520 1 -1.1104 9.4004 13.9643 20.8137
530 2 2.2208 10.7883 15.3619 13.5546
529 2 2.2208 10.7346 21.0061 13.7302
9298 2 2.2208 13.5543 -1.40436 22.0809
9402 2 2.2208 13.5991 18.1166 19.3806
9262 2 2.2208 13.6361 1.35134 19.2731
9256 2 2.2208 13.6255 4.24285 16.5331
480 2 2.2208 13.5816 9.81296 16.5432
558 2 2.2208 13.7286 21.1157 22.0713
403 2 2.2208 13.7217 -4.24455 13.7687
441 2 2.2208 5.04211 9.79879 13.7947
405 2 2.2208 10.8002 -1.32798 13.6922
316 2 2.2208 5.28598 -1.33331 13.4733
587 2 2.2208 8.13392 4.09421 27.7761
331 2 2.2208 10.9107 12.5074 27.8373
320 2 2.2208 5.2404 15.3647 13.6245
321 2 2.2208 2.26288 18.337 13.6751
9446 2 2.2208 13.6198 -1.52329 27.749
678 2 2.2208 5.20822 23.8155 5.3178
679 2 2.2208 5.16493 29.5304 5.3198
680 1 -1.1104 0.979724 25.1888 0.991068
681 1 -1.1104 1.06445 25.2971 3.83986
682 1 -1.1104 1.08177 22.5471 1.128
683 1 -1.1104 1.02734 28.0557 1.18253
684 2 2.2208 5.10637 26.675 2.3392
685 1 -1.1104 1.10339 22.4451 3.8658
686 1 -1.1104 0.605785 28.0528 3.9902
687 1 -1.1104 3.73557 25.3607 1.01836
688 2 2.2208 2.3956 23.9145 2.42598
689 2 2.2208 2.50392 29.5764 2.37268
690 1 -1.1104 3.87743 25.2541 3.8146
691 2 2.2208 2.46125 26.4905 5.29843
692 1 -1.1104 3.85292 22.4688 0.934352
693 1 -1.1104 3.72434 28.1765 1.10222
694 1 -1.1104 3.88831 22.4972 3.86699
695 1 -1.1104 3.70497 28.0157 3.70542
826 1 -1.1104 3.96606 27.7994 6.46362
701 1 -1.1104 6.53649 22.4961 1.12835
964 2 2.2208 -0.369185 43.6167 8.01907
823 1 -1.1104 6.69192 28.0812 6.60632
699 1 -1.1104 6.53947 25.2987 0.913949
700 1 -1.1104 6.62451 25.3545 3.77247
704 1 -1.1104 6.50942 28.1042 3.81873
702 1 -1.1104 6.49648 28.2036 1.01343
986 2 2.2208 -0.420062 29.5899 10.9273
703 1 -1.1104 6.68204 22.4962 4.06181
705 2 2.2208 10.7337 23.8814 5.20471
706 2 2.2208 10.9035 29.4922 5.28283
707 1 -1.1104 12.0505 25.2229 1.06348
708 1 -1.1104 12.2731 25.3453 3.91961
709 1 -1.1104 12.4367 22.4375 1.18906
710 1 -1.1104 12.284 28.0448 1.0663
711 2 2.2208 10.8169 26.7306 2.58844
712 1 -1.1104 12.3242 22.6473 3.90099
713 1 -1.1104 12.2073 28.2123 3.82469
714 1 -1.1104 9.35665 25.1936 1.08062
715 2 2.2208 7.95893 23.9165 2.40464
716 2 2.2208 7.9691 29.363 2.40825
717 1 -1.1104 9.44554 25.3505 3.88204
718 2 2.2208 8.05618 26.6756 5.21791
719 1 -1.1104 9.44196 22.4292 1.10823
720 1 -1.1104 9.37272 27.9002 1.12714
721 1 -1.1104 9.45379 22.5462 3.84914
722 1 -1.1104 9.3123 28.2623 3.91869
854 1 -1.1104 9.4984 28.0706 6.67328
849 1 -1.1104 12.1269 25.2122 6.72701
852 1 -1.1104 9.44248 25.2447 6.64955
9891 2 2.2208 -0.235852 40.807 5.17468
9894 2 2.2208 -0.341411 40.7061 10.8699
987 2 2.2208 -0.294665 32.3251 8.01922
9901 2 2.2208 13.7835 35.1058 13.731
1006 2 2.2208 7.99202 40.7679 13.6688
727 2 2.2208 5.18441 35.1543 5.25364
728 1 -1.1104 1.15697 30.9206 1.00702
729 1 -1.1104 1.12113 36.4845 0.983075
731 1 -1.1104 0.951578 30.9431 3.53901
732 1 -1.1104 1.01732 36.4512 3.97557
734 1 -1.1104 1.18314 33.7788 1.02912
735 2 2.2208 5.26255 32.3153 2.55335
736 2 2.2208 5.25637 37.9355 2.40656
737 1 -1.1104 0.993022 33.8594 3.75927
739 1 -1.1104 3.98511 31.0411 1.0394
740 1 -1.1104 3.75919 36.6313 1.09293
741 2 2.2208 2.43606 35.1839 2.44763
742 1 -1.1104 3.93073 30.7846 3.83697
743 1 -1.1104 3.80812 36.5241 3.6803
744 2 2.2208 2.45544 32.2937 5.30152
745 2 2.2208 2.51868 37.9544 5.33152
746 1 -1.1104 3.99168 33.8014 1.24965
747 1 -1.1104 3.78208 33.7004 3.9835
879 1 -1.1104 4.02044 31.0365 6.45477
730 1 -1.1104 6.53733 36.471 1.15831
9893 2 2.2208 -0.43335 46.2734 10.7947
738 1 -1.1104 6.62138 33.7505 3.99142
733 1 -1.1104 6.71541 36.6021 3.85117
752 1 -1.1104 6.70599 33.7175 1.09117
9794 2 2.2208 13.6841 37.8885 10.808
942 1 -1.1104 6.5996 39.2305 12.1951
750 1 -1.1104 6.72146 30.7207 0.933741
751 1 -1.1104 6.65485 31.0096 3.86852
1011 2 2.2208 8.02023 37.746 -0.27207
753 2 2.2208 10.8707 35.0589 5.20064
754 1 -1.1104 12.2314 30.8091 1.12152
755 1 -1.1104 12.2598 36.4645 0.759707
756 1 -1.1104 12.335 30.9204 4.00821
757 1 -1.1104 12.2377 36.4199 3.59943
758 1 -1.1104 12.3686 33.6025 1.00379
759 2 2.2208 10.8795 32.2137 2.49906
760 2 2.2208 10.901 37.9838 2.36778
761 1 -1.1104 12.2488 33.7217 3.87528
762 1 -1.1104 9.48099 30.5305 1.10701
763 1 -1.1104 9.33468 36.256 0.884666
764 2 2.2208 8.0843 35.0885 2.49009
765 1 -1.1104 9.52749 30.9834 3.85705
766 1 -1.1104 9.56128 36.5315 3.59622
767 2 2.2208 8.1492 32.1733 5.32347
768 2 2.2208 8.03211 37.9789 5.18728
769 1 -1.1104 9.5434 33.4624 0.95858
770 1 -1.1104 9.49861 33.6718 3.88155
1142 2 2.2208 10.8675 32.2619 13.6912
909 1 -1.1104 12.3099 33.4488 6.7634
908 1 -1.1104 12.2679 36.4801 6.70592
912 1 -1.1104 9.49099 33.6959 6.67401
698 2 2.2208 -0.426035 26.5934 2.4127
999 2 2.2208 -0.491247 37.8856 13.6738