ITEM: TIMESTEP
50000
ITEM: NUMBER OF ATOMS
17820
ITEM: BOX BOUNDS pp pp pp
-3.5469056953317485e-01 2.7694690569533396e+01
-4.4228644187918889e+00 3.3250286441880303e+02
-3.6823617701461775e-01 2.7708236177014388e+01
ITEM: ATOMS id type q x y z
1 2 2.2208 5.174 1.07228 5.14538
2 1 -1.1104 1.01455 -2.94105 0.816897
3 1 -1.1104 1.13434 2.56263 1.1286
6 1 -1.1104 0.947844 -3.03473 3.68532
7 1 -1.1104 1.1754 2.49067 3.94904
10 1 -1.1104 1.07999 -0.202939 0.860303
12 2 2.2208 5.2917 -1.64976 2.38009
13 2 2.2208 5.24671 3.88689 2.49498
14 1 -1.1104 0.736627 -0.17877 3.78139
16 1 -1.1104 3.87733 -3.12606 0.845731
17 1 -1.1104 3.848 2.43641 0.957504
18 2 2.2208 2.47388 1.05238 2.37592
19 1 -1.1104 3.68866 -3.16279 3.62988
20 1 -1.1104 3.85941 2.46243 3.79348
21 2 2.2208 2.36042 -1.70541 5.12602
22 2 2.2208 2.44123 3.89755 5.26489
23 1 -1.1104 3.73156 -0.304897 1.00943
24 1 -1.1104 3.80664 -0.319163 3.82501
166 1 -1.1104 6.54683 2.46938 6.41874
169 1 -1.1104 3.77733 -2.96517 6.34134
165 1 -1.1104 6.59143 -3.11797 6.36765
171 1 -1.1104 3.92261 -0.334591 6.67572
163 1 -1.1104 0.883117 -3.22142 6.48475
170 1 -1.1104 3.81802 2.47936 6.39153
29 2 2.2208 2.25941 -4.41461 2.30838
9210 2 2.2208 -0.449224 -1.70435 2.35931
28 2 2.2208 -0.254207 3.99803 2.36882
11 1 -1.1104 6.74548 -0.231972 0.863316
9 1 -1.1104 6.69785 2.46329 3.55737
4 1 -1.1104 6.69266 -3.10472 0.960237
15 1 -1.1104 6.60828 -0.285819 3.64035
8 1 -1.1104 6.54839 -3.11899 3.69527
5 1 -1.1104 6.63426 2.74069 0.784877
31 2 2.2208 10.8966 1.24475 5.04328
32 1 -1.1104 11.9658 -2.96113 0.818754
33 1 -1.1104 12.4146 2.60695 0.767743
34 1 -1.1104 12.2806 -3.12068 3.73615
35 1 -1.1104 12.388 2.59888 3.66766
36 1 -1.1104 12.2879 -0.324872 0.864314
37 2 2.2208 10.77 -1.60188 2.28974
38 2 2.2208 11.026 3.89279 2.11517
39 1 -1.1104 12.2011 -0.178302 3.71865
40 1 -1.1104 9.47532 -2.94452 0.927427
41 1 -1.1104 9.5629 2.3502 0.795391
42 2 2.2208 7.99608 1.19002 2.28991
43 1 -1.1104 9.45484 -3.07322 3.64584
44 1 -1.1104 9.49531 2.79026 3.61677
45 2 2.2208 8.00827 -1.58606 5.10726
46 2 2.2208 7.90403 3.7874 5.20792
47 1 -1.1104 9.54136 -0.159466 0.8753
48 1 -1.1104 9.47078 -0.254909 3.71321
202 1 -1.1104 12.3594 2.54144 6.3925
205 1 -1.1104 9.30841 2.47764 6.34957
206 1 -1.1104 9.4628 -0.136162 6.46614
168 1 -1.1104 6.55087 -0.311877 6.41199
204 1 -1.1104 9.30031 -2.86446 6.49429
201 1 -1.1104 12.0845 -2.96293 6.27968
203 1 -1.1104 12.2378 -0.224354 6.4861
8524 2 2.2208 10.6985 -4.40426 10.6875
54 2 2.2208 5.20309 6.72511 5.14911
55 2 2.2208 5.22906 12.2457 5.02897
56 1 -1.1104 1.05086 7.99192 0.896142
58 1 -1.1104 0.940729 8.31892 3.77362
60 1 -1.1104 1.10857 5.36334 0.973573
61 1 -1.1104 0.98351 10.9365 0.860827
65 2 2.2208 5.31966 9.37502 2.31315
66 1 -1.1104 1.18539 5.4224 3.76877
67 1 -1.1104 1.04935 11.1185 3.76848
70 1 -1.1104 3.68596 8.05687 0.841821
71 2 2.2208 2.37765 6.74313 2.24643
72 2 2.2208 2.55282 12.2753 2.23867
73 1 -1.1104 3.71209 8.03317 3.53384
74 2 2.2208 2.37202 9.49847 5.10648
75 1 -1.1104 4.20511 5.2588 0.905206
76 1 -1.1104 3.86151 10.9051 0.723317
78 1 -1.1104 3.92238 5.09955 3.76029
79 1 -1.1104 3.79079 10.7426 3.53263
57 1 -1.1104 6.45944 8.2032 0.685787
77 1 -1.1104 3.86048 10.8572 6.29802
230 1 -1.1104 0.840473 7.95239 6.75076
50 1 -1.1104 12.3341 13.7898 9.43754
234 1 -1.1104 3.67592 7.99749 6.63099
232 1 -1.1104 1.03836 5.30733 6.3945
9213 2 2.2208 -0.339984 6.64468 5.16809
62 1 -1.1104 0.878769 10.9061 6.54019
235 1 -1.1104 3.86734 5.27945 6.64875
9214 2 2.2208 -0.411809 9.68511 2.32507
59 1 -1.1104 6.43177 8.31005 3.9678
68 1 -1.1104 6.68038 5.04206 3.80293
63 1 -1.1104 6.64269 11.0283 1.04213
69 1 -1.1104 6.64341 10.949 3.74055
64 1 -1.1104 6.77219 10.9531 6.55407
83 2 2.2208 10.9125 6.8574 5.06396
84 2 2.2208 10.9849 12.3396 5.00708
85 1 -1.1104 12.4866 8.19715 0.884989
86 1 -1.1104 12.2954 8.07529 3.72085
87 1 -1.1104 12.2316 5.41276 0.766116
88 1 -1.1104 12.33 11.0241 0.917264
90 2 2.2208 10.9393 9.45921 2.24936
91 1 -1.1104 12.1541 5.37073 3.65251
92 1 -1.1104 12.4657 10.8176 3.71226
93 1 -1.1104 9.55805 8.17836 0.723765
94 2 2.2208 8.02652 12.3049 2.32989
95 1 -1.1104 9.67854 8.19329 3.83057
96 2 2.2208 8.04914 9.46246 5.04029
97 1 -1.1104 9.49981 5.02835 0.875958
98 1 -1.1104 9.58716 10.9536 0.836999
100 1 -1.1104 9.61246 11.0364 3.58761
265 1 -1.1104 9.66551 5.22425 5.75897
262 1 -1.1104 12.3756 5.42334 6.63648
231 1 -1.1104 6.60337 8.1284 6.58438
261 1 -1.1104 12.284 8.31587 6.51504
89 1 -1.1104 12.1869 10.9609 6.5737
99 1 -1.1104 9.45915 10.9038 6.36735
263 1 -1.1104 9.5313 8.07839 6.61353
233 1 -1.1104 6.77522 5.22374 6.56028
103 2 2.2208 5.32148 17.9316 5.20158
104 1 -1.1104 1.13176 13.6958 1.07483
106 1 -1.1104 1.15089 19.1784 0.923422
110 1 -1.1104 0.940932 13.922 3.91821
111 1 -1.1104 1.10116 19.3489 3.8404
113 1 -1.1104 1.09374 16.5469 0.955338
116 2 2.2208 5.37441 15.1783 2.55673
117 2 2.2208 5.22513 20.6247 2.40987
118 1 -1.1104 1.12295 16.5865 3.82388
120 1 -1.1104 3.98444 13.4977 1.13359
122 1 -1.1104 3.91873 19.4103 1.00382
124 2 2.2208 2.43108 17.8621 2.32697
125 1 -1.1104 3.73721 13.6171 3.88621
126 1 -1.1104 3.75975 19.3383 3.74128
127 2 2.2208 2.44976 15.0815 5.24806
128 2 2.2208 2.49808 20.6795 5.14516
129 1 -1.1104 3.80046 16.5097 1.10293
131 1 -1.1104 3.97903 16.5707 3.85256
310 1 -1.1104 9.5231 16.57 9.52737
298 1 -1.1104 1.05033 19.4413 6.51733
114 1 -1.1104 1.06471 16.5741 6.57946
105 1 -1.1104 1.06088 13.7203 6.80122
121 1 -1.1104 3.78427 13.7289 6.57833
108 1 -1.1104 6.62122 13.6381 6.46219
115 1 -1.1104 6.59982 16.6098 6.53704
123 1 -1.1104 4.07417 19.2496 6.52036
134 2 2.2208 -0.383168 17.9892 5.20676
112 1 -1.1104 6.58465 13.7106 3.81104
119 1 -1.1104 6.67238 16.5257 3.76702
135 1 -1.1104 6.73237 19.4797 0.924035
107 1 -1.1104 6.71255 13.7979 1.07673
140 1 -1.1104 12.2767 13.7083 6.52058
137 1 -1.1104 6.59282 16.6056 1.00468
136 1 -1.1104 6.65447 19.3041 3.78527
138 2 2.2208 10.8517 17.9898 5.09254
139 1 -1.1104 12.232 13.7457 0.850957
141 1 -1.1104 12.3195 19.2413 0.861931
143 1 -1.1104 12.3514 13.701 3.65733
144 1 -1.1104 12.1914 19.4444 3.8545
145 1 -1.1104 12.4189 16.4278 0.745342
147 2 2.2208 10.9374 14.9957 2.35306
148 2 2.2208 11.0137 20.7456 2.32413
149 1 -1.1104 12.381 16.5332 3.6475
150 1 -1.1104 9.4926 13.7082 1.10567
152 1 -1.1104 9.41844 19.3769 1.12911
154 2 2.2208 7.98781 18.0296 2.20413
155 1 -1.1104 9.47945 13.711 3.8067
156 1 -1.1104 9.46014 19.3254 3.66806
157 2 2.2208 8.11992 15.0903 5.19956
158 2 2.2208 8.12866 20.7181 5.13732
159 1 -1.1104 9.55522 16.497 0.901663
161 1 -1.1104 9.59392 16.4058 3.78861
160 1 -1.1104 9.5307 16.5994 6.72942
151 1 -1.1104 9.44931 13.7633 6.58377
146 1 -1.1104 12.2417 16.6979 6.55674
153 1 -1.1104 9.58372 19.3964 6.58368
142 1 -1.1104 12.2705 19.5108 6.63386
8991 2 2.2208 13.6429 20.8616 5.2041
53 2 2.2208 10.8301 -4.38871 5.03744
199 2 2.2208 13.6738 20.8295 10.8684
164 1 -1.1104 0.93994 2.59905 6.53498
167 1 -1.1104 1.23165 -0.443024 6.7117
173 2 2.2208 5.19105 1.13454 10.6839
174 1 -1.1104 1.01368 -2.63853 12.2967
175 1 -1.1104 0.717375 2.37554 12.0986
178 1 -1.1104 0.990903 -3.0475 9.27984
179 1 -1.1104 1.09072 2.54548 9.15031
183 2 2.2208 5.29271 -1.69474 7.7677
184 2 2.2208 5.2412 3.95185 8.01036
185 1 -1.1104 1.04267 -0.259916 9.5441
187 1 -1.1104 3.81379 -3.17976 11.9723
188 1 -1.1104 3.95237 2.50143 11.999
189 2 2.2208 2.49617 1.11592 7.97093
190 1 -1.1104 3.90278 -2.93941 9.13344
191 1 -1.1104 3.92939 2.49234 9.29474
192 2 2.2208 2.513 -1.75333 10.6133
193 2 2.2208 2.38629 3.69783 10.8962
194 1 -1.1104 3.6091 -0.506975 12.1339
195 1 -1.1104 3.80262 -0.113995 9.45891
316 2 2.2208 5.2132 -1.68767 13.3633
311 1 -1.1104 9.55314 16.5697 12.2296
373 2 2.2208 5.14886 3.7675 13.5695
371 2 2.2208 2.33664 -4.40597 13.5594
186 1 -1.1104 6.59296 -0.219492 9.24503
182 1 -1.1104 6.71284 -0.362582 12.1804
181 1 -1.1104 6.77639 2.62022 9.33132
172 2 2.2208 -0.369101 -4.33774 10.8804
200 2 2.2208 -0.194187 6.65364 10.8684
405 2 2.2208 10.8542 -1.80737 13.5313
177 1 -1.1104 6.74762 2.45229 12.1163
180 1 -1.1104 6.54818 -3.06023 9.24916
176 1 -1.1104 6.51107 -3.08932 12.0913
208 2 2.2208 10.8762 1.15232 10.8077
209 1 -1.1104 12.2776 -3.10009 12.012
210 1 -1.1104 12.2949 2.44131 12.0933
211 1 -1.1104 12.3253 -2.8813 9.03497
212 1 -1.1104 12.3993 2.52806 9.33343
213 1 -1.1104 12.2041 -0.309361 12.2115
214 2 2.2208 10.8865 -1.6809 7.9345
215 2 2.2208 10.8575 3.80275 7.82081
216 1 -1.1104 12.152 -0.136884 9.30659
217 1 -1.1104 9.35112 -3.02041 11.9837
218 1 -1.1104 9.45666 2.48306 12.0115
219 2 2.2208 7.98713 1.08203 7.87108
220 1 -1.1104 9.53831 -3.07367 9.21334
221 1 -1.1104 9.56203 2.4109 9.18811
222 2 2.2208 7.96388 -1.55893 10.6723
223 2 2.2208 8.07573 3.85799 10.7619
224 1 -1.1104 9.4891 -0.248249 12.0457
225 1 -1.1104 9.30136 -0.317146 9.32683
318 2 2.2208 10.9467 3.88225 13.5651
8523 2 2.2208 8.00689 -4.47537 7.88665
9215 2 2.2208 -0.5223 3.86862 7.894
227 2 2.2208 8.15428 17.8718 8.06187
80 1 -1.1104 12.2139 19.5067 9.56474
591 2 2.2208 -0.426002 9.57847 13.5306
229 2 2.2208 -0.444167 12.3988 10.7616
441 2 2.2208 5.17017 9.5476 13.5761
228 2 2.2208 -0.403425 9.37456 8.0638
236 2 2.2208 5.179 6.66444 10.9023
237 2 2.2208 5.27337 12.3292 10.6733
238 1 -1.1104 1.08947 8.30419 12.243
240 1 -1.1104 1.01468 8.06514 9.45311
242 1 -1.1104 1.00088 5.24761 12.2817
243 1 -1.1104 0.999505 11.0439 12.183
246 2 2.2208 5.28486 9.48485 7.93529
247 1 -1.1104 0.915254 5.22773 9.30391
248 1 -1.1104 1.00852 10.9054 9.36542
251 1 -1.1104 3.81126 8.10652 12.2913
252 2 2.2208 2.35739 6.67032 8.02898
253 2 2.2208 2.43205 12.3013 8.00277
254 1 -1.1104 4.01455 8.14756 9.38136
255 2 2.2208 2.36575 9.4115 10.7566
256 1 -1.1104 3.7806 5.21175 12.3472
257 1 -1.1104 3.66813 10.8881 12.1325
258 1 -1.1104 3.87923 5.16187 9.58709
259 1 -1.1104 3.8076 10.8611 9.32214
442 2 2.2208 2.49027 6.78007 13.7003
440 2 2.2208 2.33249 12.5248 13.522
239 1 -1.1104 6.56848 8.09335 12.2184
241 1 -1.1104 6.671 8.26416 9.41348
244 1 -1.1104 6.71897 5.21066 12.2613
245 1 -1.1104 6.58602 10.9267 12.1862
250 1 -1.1104 6.68065 10.9578 9.29622
249 1 -1.1104 6.6303 5.27019 9.37226
260 1 -1.1104 9.55068 10.9063 9.20234
264 1 -1.1104 9.38134 5.26494 9.00449
266 1 -1.1104 9.36225 10.9153 11.9575
267 1 -1.1104 9.62569 5.25421 11.9355
268 2 2.2208 8.02945 9.53264 10.8313
269 1 -1.1104 9.3925 8.17692 9.35523
270 2 2.2208 8.04972 12.2876 7.84619
271 2 2.2208 8.01297 6.74144 8.0505
272 2 2.2208 10.8425 6.84365 10.5895
273 2 2.2208 10.8966 12.3932 10.7076
274 1 -1.1104 12.2504 8.22921 12.1057
275 1 -1.1104 12.3498 8.05944 9.29835
276 1 -1.1104 12.2779 5.26853 12.2399
277 1 -1.1104 12.0987 11.1204 12.2189
278 2 2.2208 10.7825 9.61885 7.85833
279 1 -1.1104 12.1488 5.28787 9.2398
280 1 -1.1104 12.3057 11.0302 9.29813
281 1 -1.1104 9.37142 8.02354 12.1177
319 2 2.2208 7.96432 6.72131 13.6659
468 2 2.2208 10.7944 9.54181 13.4838
443 2 2.2208 8.13324 12.4196 13.5876
293 1 -1.1104 6.82764 13.7271 12.057
109 1 -1.1104 6.77997 19.3074 6.62689
284 1 -1.1104 6.77255 19.4038 9.62294
207 1 -1.1104 9.67859 13.7684 12.3014
27 1 -1.1104 12.4821 19.5605 12.3826
323 2 2.2208 5.18781 20.9638 13.6554
130 1 -1.1104 3.76099 16.483 6.79806
282 1 -1.1104 3.84732 19.4878 11.9486
283 1 -1.1104 3.92644 13.8494 12.0873
287 1 -1.1104 1.06412 19.3535 9.26287
288 1 -1.1104 1.04375 16.7481 9.51493
289 2 2.2208 5.33235 20.7709 7.87578
290 1 -1.1104 1.03296 13.7533 9.51169
291 2 2.2208 5.26435 15.1488 7.99692
294 1 -1.1104 0.976873 19.5127 11.9947
295 1 -1.1104 0.918237 13.7862 12.0601
296 2 2.2208 5.27758 17.9637 10.6813
297 1 -1.1104 3.9497 19.431 9.15694
299 2 2.2208 2.54107 18.019 7.89913
300 1 -1.1104 3.9662 16.5666 9.52803
301 1 -1.1104 3.92925 13.6928 9.32092
303 1 -1.1104 0.891284 16.6993 12.2538
304 1 -1.1104 3.86847 16.7044 12.4072
305 2 2.2208 2.43466 20.904 10.7836
306 2 2.2208 2.38833 15.1598 10.752
320 2 2.2208 5.49853 15.0994 13.4617
321 2 2.2208 2.27613 18.226 13.5113
292 1 -1.1104 6.65191 19.3385 12.6285
285 1 -1.1104 6.72529 16.6302 9.26727
400 2 2.2208 -0.417882 15.169 13.5366
9445 2 2.2208 -0.305098 20.8186 13.5643
530 2 2.2208 10.943 15.2697 13.5751
503 2 2.2208 13.7948 17.946 13.5394
302 1 -1.1104 6.80581 16.5064 12.0369
9209 2 2.2208 13.707 18.0639 8.13651
312 2 2.2208 8.0069 20.8352 11.0029
196 2 2.2208 10.8993 15.1789 7.99368
324 2 2.2208 8.12028 17.8729 13.5161
25 2 2.2208 10.9397 17.9437 10.7957
313 2 2.2208 8.19196 15.0342 10.7263
226 1 -1.1104 9.4818 19.4744 12.1847
198 1 -1.1104 12.3221 16.6355 9.39272
307 1 -1.1104 9.51076 13.689 9.39146
26 1 -1.1104 12.4218 13.9408 12.1556
529 2 2.2208 10.8891 20.6944 13.6621
81 1 -1.1104 12.3362 16.6593 12.1231
197 2 2.2208 10.9204 20.7679 7.98248
308 1 -1.1104 9.42962 19.2748 9.43873
286 1 -1.1104 6.63593 13.769 9.17664
314 2 2.2208 13.6841 3.97817 5.15972
9218 2 2.2208 -0.32498 20.7557 7.95923
9211 2 2.2208 -0.482673 1.16959 5.10898
162 2 2.2208 13.7683 17.879 2.29564
315 2 2.2208 13.7245 15.2503 5.20572
132 2 2.2208 -0.230926 15.1755 2.33117
9219 2 2.2208 13.6445 1.12386 7.88563
9216 2 2.2208 -0.346292 -1.56407 7.78132
30 2 2.2208 5.10821 -4.44348 5.05667
317 2 2.2208 8.16047 1.07789 13.5459
556 2 2.2208 2.35778 -1.66155 -0.561119
330 2 2.2208 8.05137 9.54797 -0.436317
9329 2 2.2208 -0.486011 -1.67955 13.9093
333 2 2.2208 5.27012 1.20541 16.2852
334 1 -1.1104 0.935427 -3.16934 17.8802
335 1 -1.1104 1.11171 2.56623 17.8642
338 1 -1.1104 0.957374 -3.24686 15.0635
340 1 -1.1104 0.917533 2.6889 15.0878
346 1 -1.1104 1.00795 -0.324223 17.8069
348 2 2.2208 5.29904 -1.5987 19.1199
349 2 2.2208 5.32872 3.91218 19.126
350 1 -1.1104 1.10185 -0.502254 15.0906
354 1 -1.1104 3.93218 -3.06834 17.6328
355 1 -1.1104 3.84105 2.50379 17.7773
356 2 2.2208 2.49509 1.10957 19.0915
357 1 -1.1104 3.81512 -2.813 14.8303
359 1 -1.1104 3.88486 2.42122 15.0929
361 2 2.2208 2.35541 -1.77812 16.4809
362 2 2.2208 2.33486 3.9085 16.2526
363 1 -1.1104 4.0249 -0.367487 17.3678
339 1 -1.1104 1.02451 -3.09538 20.5477
352 1 -1.1104 6.34302 -0.234744 14.7833
364 1 -1.1104 3.74942 -0.311287 20.4007
336 1 -1.1104 6.84284 -3.11336 17.8268
341 1 -1.1104 1.22013 2.54626 20.5718
358 1 -1.1104 3.82785 -3.02507 20.4567
351 1 -1.1104 0.901339 -0.25 20.5207
558 2 2.2208 13.7192 20.6736 21.9648
368 2 2.2208 -0.25071 1.09749 16.3695
501 2 2.2208 -0.24629 3.97405 19.0615
342 1 -1.1104 6.65387 -2.98203 14.9671
353 1 -1.1104 6.79163 -0.282522 20.5499
347 1 -1.1104 6.78575 -0.219189 17.6928
344 1 -1.1104 6.79918 2.54791 14.9594
337 1 -1.1104 6.7129 2.46337 17.7879
374 2 2.2208 10.9733 1.11468 16.3078
375 1 -1.1104 12.2072 -3.11674 17.7794
376 1 -1.1104 12.2706 2.52798 17.7712
377 1 -1.1104 12.1509 -3.04828 15.018
379 1 -1.1104 12.2359 2.57229 14.9398
381 1 -1.1104 12.4066 -0.28115 17.7202
382 2 2.2208 10.9466 -1.57485 19.0805
383 2 2.2208 11.0147 3.93105 19.2318
384 1 -1.1104 12.2541 -0.297414 14.9574
386 1 -1.1104 9.55493 -2.96679 17.7308
387 1 -1.1104 9.69855 2.53209 17.6692
388 2 2.2208 8.18275 1.12566 19.155
389 1 -1.1104 9.35636 -3.30394 14.8675
391 1 -1.1104 9.63136 2.54513 14.9624
393 2 2.2208 8.03268 -1.69658 16.3689
394 2 2.2208 8.12466 3.90674 16.3169
395 1 -1.1104 9.51888 -0.202871 17.7021
396 1 -1.1104 9.41922 -0.449618 14.8681
390 1 -1.1104 9.48771 -2.95766 20.578
345 1 -1.1104 6.71889 2.52927 20.4929
343 1 -1.1104 6.77839 -3.0474 20.6965
385 1 -1.1104 12.2484 -0.281326 20.4202
397 1 -1.1104 9.51435 -0.204341 20.5554
378 1 -1.1104 12.3585 -3.1492 20.5102
392 1 -1.1104 9.55853 2.47738 20.5781
17560 2 2.2208 -0.461214 -4.51037 22.1113
380 1 -1.1104 12.3055 2.50236 20.5998
407 2 2.2208 5.29033 6.65178 16.4671
408 2 2.2208 5.22572 12.389 16.2252
409 1 -1.1104 0.998119 8.24463 17.8908
411 1 -1.1104 1.03719 8.27557 14.998
415 1 -1.1104 1.04494 5.50212 17.8621
416 1 -1.1104 1.20749 10.867 17.9232
419 2 2.2208 5.22649 9.51351 19.1922
420 1 -1.1104 0.977183 5.49545 15.0492
422 1 -1.1104 1.06624 10.9225 14.9632
428 1 -1.1104 3.78427 8.05404 17.8794
429 2 2.2208 2.46019 6.75278 19.1506
430 2 2.2208 2.46883 12.2826 19.2577
431 1 -1.1104 3.82283 8.19028 15.0029
433 2 2.2208 2.51806 9.61644 16.3286
434 1 -1.1104 3.79749 5.21948 17.8337
435 1 -1.1104 4.05408 10.7306 17.6132
436 1 -1.1104 3.7923 5.30518 15.1389
438 1 -1.1104 3.75782 11.1336 14.9133
404 2 2.2208 -0.381665 9.53047 19.2848
439 1 -1.1104 3.84259 10.8724 20.5536
9337 2 2.2208 -0.238339 12.2329 16.3539
372 2 2.2208 -0.287332 6.87907 16.4636
432 1 -1.1104 3.72891 8.06002 20.6121
410 1 -1.1104 6.6713 8.06115 17.8712
437 1 -1.1104 3.89929 5.11951 20.6519
412 1 -1.1104 1.02591 8.12998 20.7315
424 1 -1.1104 6.52101 5.25267 15.0985
418 1 -1.1104 6.82159 10.9833 17.6945
426 1 -1.1104 6.72347 11.0893 14.9235
427 1 -1.1104 6.73734 10.7126 20.6343
417 1 -1.1104 6.60725 5.35299 17.7256
425 1 -1.1104 6.7155 5.15996 20.5943
413 1 -1.1104 6.62544 8.27592 14.8604
444 2 2.2208 10.9018 6.65956 16.3384
445 2 2.2208 10.8479 12.4054 16.3024
446 1 -1.1104 12.3427 8.20842 17.7113
447 1 -1.1104 12.2188 8.13386 14.8082
449 1 -1.1104 12.4663 5.32789 17.768
450 1 -1.1104 12.2298 11.0345 17.7279
451 2 2.2208 10.9664 9.55282 19.1938
452 1 -1.1104 12.189 5.32471 15.0701
454 1 -1.1104 12.2533 10.885 14.8861
456 1 -1.1104 9.60773 8.24901 17.8301
457 2 2.2208 8.12321 6.77598 19.2726
458 2 2.2208 8.05192 12.3909 19.2033
459 1 -1.1104 9.51472 8.04602 14.955
461 2 2.2208 8.21336 9.65204 16.4388
462 1 -1.1104 9.64076 5.30817 17.8414
463 1 -1.1104 9.52114 10.9519 17.7721
464 1 -1.1104 9.42558 5.24787 14.9387
466 1 -1.1104 9.50598 10.8924 14.9835
465 1 -1.1104 9.52393 5.35131 20.5238
414 1 -1.1104 6.53181 7.97791 20.6374
453 1 -1.1104 12.4173 5.31554 20.5481
448 1 -1.1104 12.4019 8.17582 20.6651
460 1 -1.1104 9.61984 8.09936 20.6436
467 1 -1.1104 9.50249 10.933 20.4362
455 1 -1.1104 12.3084 10.9563 20.7574
470 1 -1.1104 0.917541 13.7326 17.6418
471 1 -1.1104 1.04845 19.3243 17.7348
474 1 -1.1104 1.04817 13.7578 14.8601
476 1 -1.1104 0.947432 19.3468 15.0038
482 1 -1.1104 0.973534 16.6157 17.6917
484 2 2.2208 5.27765 15.1938 19.2714
485 2 2.2208 5.34077 20.7164 19.2533
486 1 -1.1104 1.38352 16.5427 14.8025
490 1 -1.1104 3.74429 13.4126 17.6463
491 1 -1.1104 3.89785 19.4659 17.7434
492 2 2.2208 2.52705 18.0447 19.1029
493 1 -1.1104 3.91134 14.1296 14.906
495 1 -1.1104 3.71467 19.5679 14.7215
497 2 2.2208 2.44222 15.0739 16.5146
498 2 2.2208 2.47318 20.6816 16.3548
499 1 -1.1104 3.69146 16.3649 17.9415
494 1 -1.1104 3.81703 13.7812 20.5161
475 1 -1.1104 1.08851 13.7346 20.3477
589 2 2.2208 -0.207897 20.6762 19.0786
500 1 -1.1104 3.88749 16.5917 20.6836
477 1 -1.1104 1.2291 19.3737 20.536
487 1 -1.1104 1.08899 16.4057 20.4529
401 2 2.2208 -0.398363 17.9774 16.3352
489 1 -1.1104 6.78336 16.7083 20.6703
496 1 -1.1104 3.86553 19.2764 20.6219
646 1 -1.1104 9.43972 16.5434 26.1835
478 1 -1.1104 6.79823 13.8072 14.9513
479 1 -1.1104 6.65551 13.6219 20.6322
472 1 -1.1104 6.63151 13.7588 17.7931
488 1 -1.1104 6.8874 16.7065 15.0361
473 1 -1.1104 6.90395 19.627 18.0038
483 1 -1.1104 6.92997 16.4544 18.0429
504 2 2.2208 10.9419 17.8971 16.4779
505 1 -1.1104 12.2314 13.9174 17.6547
506 1 -1.1104 12.3848 19.5178 17.8799
507 1 -1.1104 12.4266 13.7589 14.9321
509 1 -1.1104 12.1211 19.1823 15.0495
511 1 -1.1104 12.3684 16.7386 17.8087
512 2 2.2208 10.8033 15.1838 19.1939
513 2 2.2208 10.9279 20.7908 19.3659
514 1 -1.1104 12.2941 16.5016 14.9594
516 1 -1.1104 9.48128 13.8275 17.7757
517 1 -1.1104 9.64158 19.249 17.8315
518 2 2.2208 8.10752 17.9966 19.1605
519 1 -1.1104 9.52798 13.6228 14.89
521 1 -1.1104 9.28583 19.4276 14.9884
523 2 2.2208 8.03184 15.1605 16.4174
524 2 2.2208 8.21177 20.9043 16.5836
525 1 -1.1104 9.55724 16.56 17.7151
526 1 -1.1104 9.55355 16.4928 14.9403
527 1 -1.1104 9.42659 16.5878 20.7636
522 1 -1.1104 9.38439 19.4043 20.5919
508 1 -1.1104 12.1259 13.8145 20.6124
520 1 -1.1104 9.35565 13.7726 20.5377
481 1 -1.1104 6.58929 19.4623 20.6334
590 2 2.2208 13.5781 20.8533 16.4174
510 1 -1.1104 12.3431 19.326 20.7163
9254 2 2.2208 -0.438096 -1.61976 24.7957
563 2 2.2208 -0.298191 1.12584 27.7435
9223 2 2.2208 -0.487424 -4.42777 27.5036
360 1 -1.1104 3.91061 2.38892 20.3812
531 2 2.2208 5.3597 1.14603 21.9243
532 1 -1.1104 1.05141 -2.95156 23.3326
533 1 -1.1104 1.14934 2.50954 23.4942
536 1 -1.1104 1.09933 -3.14255 25.9866
537 1 -1.1104 1.01383 2.63943 26.3834
540 1 -1.1104 1.12579 -0.192525 23.4194
542 2 2.2208 5.15637 -1.6928 24.6156
543 2 2.2208 5.25599 4.09554 24.867
544 1 -1.1104 1.05352 -0.15749 26.217
546 1 -1.1104 3.85483 -3.1835 23.3828
547 1 -1.1104 3.9376 2.48305 23.3705
548 2 2.2208 2.5186 1.16873 24.8868
549 1 -1.1104 3.67778 -2.96769 25.9934
550 1 -1.1104 3.82264 2.50424 26.3144
551 2 2.2208 2.46396 -1.64579 22.0527
552 2 2.2208 2.57172 3.83534 21.9612
553 1 -1.1104 3.82599 -0.234474 23.2508
554 1 -1.1104 3.9251 -0.388246 26.0604
562 2 2.2208 2.40166 -4.4577 24.799
325 2 2.2208 2.53102 3.8684 27.695
9471 2 2.2208 -0.312919 1.23545 22.0283
555 2 2.2208 5.2538 1.08473 27.5342
561 2 2.2208 5.25155 -4.51309 21.9903
9473 2 2.2208 -0.355467 3.90222 24.8861
560 2 2.2208 5.12022 -4.48564 27.6313
541 1 -1.1104 6.6093 -0.126062 23.4119
539 1 -1.1104 6.63324 2.57346 26.1717
545 1 -1.1104 6.65364 -0.222819 26.2371
538 1 -1.1104 6.39309 -2.98512 26.1673
586 2 2.2208 8.00852 -1.65555 27.5022
534 1 -1.1104 6.51633 -3.05034 23.3089
535 1 -1.1104 6.74785 2.65084 23.3431
567 2 2.2208 10.9001 1.0993 21.9648
568 1 -1.1104 12.1429 -3.22607 23.613
569 1 -1.1104 12.2477 2.38685 23.2631
570 1 -1.1104 12.3092 -3.11664 26.0943
571 1 -1.1104 12.3873 2.44939 26.0253
572 1 -1.1104 12.2534 -0.530559 23.1607
573 2 2.2208 10.8998 -1.65734 24.7867
574 2 2.2208 10.9696 3.92661 24.6239
575 1 -1.1104 12.2561 -0.271612 26.0266
576 1 -1.1104 9.32742 -3.09114 23.2908
577 1 -1.1104 9.56185 2.54903 23.2878
578 2 2.2208 8.08287 1.165 24.7516
579 1 -1.1104 9.36926 -3.10117 26.0763
580 1 -1.1104 9.55312 2.47669 25.9982
581 2 2.2208 8.05141 -1.67436 22.0865
582 2 2.2208 8.08758 3.97157 21.8863
583 1 -1.1104 9.38384 -0.229269 23.3453
584 1 -1.1104 9.38378 -0.297562 26.102
587 2 2.2208 8.14316 3.77357 27.46
585 2 2.2208 10.9209 1.03806 27.4758
8707 2 2.2208 8.06498 -4.55358 24.6704
8757 2 2.2208 10.912 -4.59631 21.9923
592 1 -1.1104 12.1821 19.4512 23.3143
620 2 2.2208 -0.177998 12.4118 27.6425
9550 2 2.2208 -0.348261 6.62334 22.084
421 1 -1.1104 1.12899 5.39267 20.5982
423 1 -1.1104 1.00827 11.0447 20.7896
596 2 2.2208 5.22904 6.6314 21.8967
597 2 2.2208 5.23549 12.3086 22.0703
598 1 -1.1104 1.00121 8.26464 23.491
600 1 -1.1104 1.14125 8.13473 26.306
602 1 -1.1104 0.933725 5.15132 23.3361
605 2 2.2208 5.3755 9.4615 24.6571
606 1 -1.1104 1.16541 5.28534 26.1911
607 1 -1.1104 1.05644 10.8795 26.2655
610 1 -1.1104 4.03809 8.00226 23.3011
611 2 2.2208 2.51363 6.76336 24.8031
612 1 -1.1104 3.75408 8.3961 25.998
613 2 2.2208 2.46992 9.35695 21.9179
614 1 -1.1104 3.86071 5.28599 23.3531
615 1 -1.1104 3.98429 10.6816 23.3601
616 1 -1.1104 3.94552 5.45808 26.2898
617 2 2.2208 5.24625 6.85214 27.5251
327 2 2.2208 2.4005 9.39628 27.6069
9221 2 2.2208 -0.380486 6.82126 27.5548
609 1 -1.1104 6.14933 10.8665 26.2554
608 1 -1.1104 6.67538 5.43552 26.4478
603 1 -1.1104 6.69089 5.33117 23.4899
601 1 -1.1104 6.62557 8.10328 25.9837
604 1 -1.1104 6.91637 10.9905 23.4397
599 1 -1.1104 6.67572 8.05577 23.4003
624 1 -1.1104 9.22144 10.8917 26.1813
625 1 -1.1104 9.5832 5.19048 26.098
626 1 -1.1104 9.55352 10.9379 23.2351
627 1 -1.1104 9.44788 5.27181 23.2091
628 2 2.2208 8.07196 9.51579 22.0495
629 1 -1.1104 9.53493 8.20632 26.1283
630 2 2.2208 8.17237 12.3337 24.8316
631 2 2.2208 8.16399 6.59982 24.8723
632 2 2.2208 10.9642 6.65331 21.9738
633 2 2.2208 10.7407 12.3974 21.9636
634 1 -1.1104 12.2367 8.16583 23.352
635 1 -1.1104 12.3166 8.26349 26.2869
636 1 -1.1104 12.3259 5.24739 23.4418
637 1 -1.1104 12.2727 10.8986 23.5781
638 2 2.2208 10.8198 9.57883 24.7716
639 1 -1.1104 12.34 5.41503 26.1094
640 1 -1.1104 12.1975 10.9831 26.2749
641 1 -1.1104 9.46937 8.16028 23.436
331 2 2.2208 10.8996 12.3065 27.5734
329 2 2.2208 10.9129 6.7219 27.5299
8758 2 2.2208 8.14531 -4.48116 19.0672
671 2 2.2208 2.54368 20.7486 27.4807
673 2 2.2208 2.54022 15.1444 27.7042
677 2 2.2208 -0.222215 17.9266 21.9114
674 2 2.2208 -0.307819 15.0615 24.7412
648 1 -1.1104 3.8477 19.3501 23.3991
650 1 -1.1104 3.92582 13.8621 23.1969
652 1 -1.1104 1.16959 19.475 26.1755
653 1 -1.1104 0.975042 16.6605 26.1514
654 1 -1.1104 0.982783 14.0288 26.3765
656 2 2.2208 5.34585 20.7827 24.9108
657 2 2.2208 5.14186 15.1386 24.8203
659 1 -1.1104 1.031 19.3022 23.4576
660 1 -1.1104 0.897555 13.5093 23.1488
661 2 2.2208 5.17765 18.0817 22.0742
662 1 -1.1104 3.99258 19.5089 26.2054
663 2 2.2208 2.45083 17.9405 24.9015
664 1 -1.1104 3.8794 16.6379 26.3761
665 1 -1.1104 4.0276 13.7268 26.3725
667 1 -1.1104 0.981848 16.4972 23.4452
668 1 -1.1104 3.82448 16.6584 23.5767
669 2 2.2208 2.47836 20.7067 22.0863
670 2 2.2208 2.49063 15.0538 21.8917
666 1 -1.1104 6.63156 16.5072 23.5585
672 2 2.2208 5.3132 18.052 27.7343
651 1 -1.1104 6.66615 16.5727 26.2883
649 1 -1.1104 6.846 13.7246 26.2662
565 2 2.2208 8.07764 20.7557 27.6114
658 1 -1.1104 6.65016 13.7867 23.4409
515 1 -1.1104 12.3051 16.5942 20.4335
566 2 2.2208 10.7158 18.0685 22.1236
623 1 -1.1104 12.268 16.6455 26.1836
557 2 2.2208 7.923 17.9487 24.863
559 1 -1.1104 6.56897 19.4412 26.2562
643 2 2.2208 7.97098 20.8571 21.953
642 2 2.2208 8.05384 15.2442 22.0491
588 1 -1.1104 12.1739 13.7007 23.4257
593 1 -1.1104 12.2592 13.7914 26.208
621 2 2.2208 10.9181 15.1802 24.8457
326 2 2.2208 8.14597 15.0388 27.6615
528 1 -1.1104 9.34636 19.4414 23.4916
594 1 -1.1104 12.1722 19.4858 26.1449
644 1 -1.1104 9.40964 16.6584 23.5153
619 1 -1.1104 9.35185 19.4441 26.3774
618 1 -1.1104 9.49811 13.6917 26.2869
622 2 2.2208 10.7716 20.8361 24.8827
502 1 -1.1104 9.56578 13.9331 23.4286
595 1 -1.1104 12.1082 16.6341 23.4091
655 1 -1.1104 6.61013 19.3245 23.3809
9406 2 2.2208 -0.381637 -1.69918 19.2345
676 2 2.2208 -0.41071 20.7274 24.7582
645 2 2.2208 13.7078 12.3995 24.8525
469 2 2.2208 13.71 12.3963 19.2517
9400 2 2.2208 13.806 15.168 16.3062
9402 2 2.2208 13.6783 18.0841 19.0961
328 2 2.2208 5.45844 12.4813 27.7317
564 2 2.2208 10.9782 17.9701 27.558
678 2 2.2208 5.24249 23.4774 5.16895
679 2 2.2208 5.26932 29.1306 5.11134
680 1 -1.1104 0.893538 24.8626 1.03081
681 1 -1.1104 1.03042 24.9572 3.68079
682 1 -1.1104 1.19825 22.0613 0.869765
683 1 -1.1104 1.11506 27.6662 1.0985
684 2 2.2208 5.20714 26.4582 2.34425
685 1 -1.1104 1.08912 21.9963 3.68832
686 1 -1.1104 0.644808 27.7347 4.05894
687 1 -1.1104 3.81518 24.9571 0.994319
688 2 2.2208 2.47266 23.4374 2.30092
689 2 2.2208 2.3694 29.1986 2.33963
690 1 -1.1104 3.7477 24.8683 3.7104
691 2 2.2208 2.58261 26.276 5.16744
692 1 -1.1104 3.94482 22.2101 1.02608
693 1 -1.1104 3.99247 27.7733 0.926344
694 1 -1.1104 3.984 22.0582 3.59368
695 1 -1.1104 3.6924 27.732 3.79052
698 2 2.2208 -0.410337 26.2594 2.45427
825 1 -1.1104 3.8598 22.0854 6.51242
696 2 2.2208 -0.327809 29.4708 5.23575
826 1 -1.1104 3.93388 27.7105 6.57008
821 1 -1.1104 1.1183 22.2662 6.57852
819 1 -1.1104 1.24237 25.2765 6.68796
824 1 -1.1104 3.86133 24.9197 6.55055
701 1 -1.1104 6.72435 22.2036 1.00863
822 1 -1.1104 6.78245 22.135 6.75946
702 1 -1.1104 6.71683 27.8091 1.09129
704 1 -1.1104 6.56659 27.7537 3.77386
700 1 -1.1104 6.70038 24.9486 3.75947
699 1 -1.1104 6.58696 25.0842 1.06182
703 1 -1.1104 6.78637 22.0799 3.99119
705 2 2.2208 10.866 23.6207 5.24801
706 2 2.2208 10.8998 29.1714 5.17169
707 1 -1.1104 12.1616 24.9054 0.993339
708 1 -1.1104 12.3473 25.0115 3.82321
709 1 -1.1104 12.3229 22.052 1.01493
710 1 -1.1104 12.4533 27.6504 1.11104
711 2 2.2208 10.8127 26.3579 2.35547
712 1 -1.1104 12.2688 22.3274 3.85671
713 1 -1.1104 12.3794 27.9203 3.8717
714 1 -1.1104 9.40501 24.9094 1.09789
715 2 2.2208 8.0752 23.5627 2.34586
716 2 2.2208 8.11186 29.2047 2.45709
717 1 -1.1104 9.31704 24.8649 3.8142
718 2 2.2208 8.02561 26.3523 5.1615
719 1 -1.1104 9.48626 22.1249 0.983885
720 1 -1.1104 9.51914 27.7504 1.02328
721 1 -1.1104 9.56388 22.1462 3.79072
722 1 -1.1104 9.38746 27.6513 3.7689
820 1 -1.1104 6.55672 24.9023 6.45442
823 1 -1.1104 6.77662 27.763 6.56976
853 1 -1.1104 9.34499 22.0137 6.76333
852 1 -1.1104 9.43492 24.9643 6.58135
849 1 -1.1104 12.2589 25.1066 6.65286
697 2 2.2208 10.7571 40.3916 10.8479
727 2 2.2208 5.26012 34.8663 5.12565
728 1 -1.1104 1.01039 30.4907 0.802605
729 1 -1.1104 1.03496 36.1655 1.01209
731 1 -1.1104 0.94606 30.4852 3.58316
732 1 -1.1104 0.968611 36.2524 3.72224
734 1 -1.1104 1.0547 33.2797 0.85741
735 2 2.2208 5.17521 32.1094 2.33108
736 2 2.2208 5.10905 37.5483 2.45558
737 1 -1.1104 1.00603 33.4463 3.71412
739 1 -1.1104 3.80886 30.6202 1.02525
740 1 -1.1104 3.74112 36.2537 0.98991
741 2 2.2208 2.39588 34.6402 2.34745
742 1 -1.1104 3.92627 30.448 3.73717
743 1 -1.1104 3.8417 36.1436 3.75881
744 2 2.2208 2.41896 32.0816 5.09909
745 2 2.2208 2.52031 37.6026 5.21271
746 1 -1.1104 3.91787 33.3603 0.842492
747 1 -1.1104 3.85883 33.2863 3.62823
879 1 -1.1104 3.97204 30.8486 6.22754
877 1 -1.1104 1.14735 33.6002 6.56656
749 2 2.2208 -0.413193 37.5987 2.3212
873 1 -1.1104 0.777824 31.0612 6.30039
881 1 -1.1104 3.95366 33.6058 6.65683
874 1 -1.1104 1.02703 36.3258 6.58396
730 1 -1.1104 6.64225 36.1954 1.00741
878 1 -1.1104 6.63594 33.5631 6.5266
726 2 2.2208 -0.336637 34.7309 5.18099
778 1 -1.1104 0.846086 38.9744 0.910298
876 1 -1.1104 6.62286 36.2561 6.59745
750 1 -1.1104 6.65424 30.6024 1.03066
752 1 -1.1104 6.76955 33.4767 1.04114
733 1 -1.1104 6.61074 36.1603 3.76481
751 1 -1.1104 6.55379 30.6676 3.75939
738 1 -1.1104 6.63412 33.4508 3.61136
753 2 2.2208 10.9503 34.7686 5.29287
754 1 -1.1104 12.3169 30.6448 1.05268
755 1 -1.1104 12.2746 36.2226 0.96124
756 1 -1.1104 12.2306 30.6019 3.80809
757 1 -1.1104 12.3529 36.3302 3.70324
758 1 -1.1104 12.3876 33.4559 1.04926
759 2 2.2208 10.901 32.036 2.46488
760 2 2.2208 10.9046 37.6152 2.40264
761 1 -1.1104 12.3638 33.4158 3.75503
762 1 -1.1104 9.51399 30.5555 1.04724
763 1 -1.1104 9.46178 36.0506 0.914984
764 2 2.2208 8.1593 34.8464 2.37842
765 1 -1.1104 9.39012 30.6272 3.7992
766 1 -1.1104 9.47448 36.2768 3.68959
767 2 2.2208 8.03337 32.0819 5.24267
768 2 2.2208 8.16144 37.6886 5.08381
769 1 -1.1104 9.5039 33.2629 1.08313