ITEM: TIMESTEP
40000
ITEM: NUMBER OF ATOMS
17820
ITEM: BOX BOUNDS pp pp pp
-3.5761295456604392e-01 2.7697612954565940e+01
-4.3857328221132645e+00 3.3246573282212285e+02
-3.6422700415849329e-01 2.7704227004158259e+01
ITEM: ATOMS id type q x y z
1 2 2.2208 5.14993 1.17444 5.2467
2 1 -1.1104 0.927382 -3.02717 1.12491
3 1 -1.1104 1.05704 2.5771 0.937286
6 1 -1.1104 1.04196 -2.92539 3.8995
7 1 -1.1104 1.10139 2.66702 3.84511
10 1 -1.1104 1.08466 -0.244937 1.12048
12 2 2.2208 5.21967 -1.57606 2.40653
13 2 2.2208 5.30385 3.99999 2.56551
14 1 -1.1104 0.91671 -0.126126 3.97469
16 1 -1.1104 3.88946 -2.94476 0.989401
17 1 -1.1104 3.76024 2.77977 1.05461
18 2 2.2208 2.57178 1.17349 2.44925
19 1 -1.1104 3.84682 -3.10139 3.86459
20 1 -1.1104 3.9879 2.62701 3.95532
21 2 2.2208 2.36705 -1.60774 5.27042
22 2 2.2208 2.46823 4.0382 5.28453
23 1 -1.1104 3.77874 -0.215225 0.912618
24 1 -1.1104 3.71492 -0.281071 3.69379
4 1 -1.1104 6.62325 -2.92935 1.06816
8 1 -1.1104 6.71192 -2.89184 3.77572
11 1 -1.1104 6.48759 -0.15545 1.12704
324 2 2.2208 8.12956 17.9813 13.4812
9 1 -1.1104 6.72218 2.48297 3.86804
165 1 -1.1104 6.65058 -3.01724 6.68798
5 1 -1.1104 6.59872 2.78574 0.972933
29 2 2.2208 2.57059 -4.46194 2.47596
9209 2 2.2208 13.6911 18.2018 8.05356
166 1 -1.1104 6.57489 2.62938 6.69234
171 1 -1.1104 3.76286 -0.257164 6.65508
8521 2 2.2208 2.45688 -4.49197 8.02151
133 2 2.2208 -0.299059 20.9571 2.49625
15 1 -1.1104 6.56305 -0.270955 3.89002
9126 2 2.2208 13.6809 12.5976 7.98702
31 2 2.2208 10.8638 1.26209 5.25067
32 1 -1.1104 12.3199 -2.88045 1.03624
33 1 -1.1104 12.1977 2.50688 0.942705
34 1 -1.1104 12.1154 -2.9336 3.81008
35 1 -1.1104 12.3846 2.69317 3.66914
36 1 -1.1104 12.2016 -0.139132 0.988617
37 2 2.2208 10.7723 -1.50449 2.5145
38 2 2.2208 10.867 3.88883 2.4116
39 1 -1.1104 12.1638 -0.074854 3.84396
40 1 -1.1104 9.47778 -2.79568 0.957235
41 1 -1.1104 9.50375 2.69624 1.12496
42 2 2.2208 8.00189 1.4548 2.47763
43 1 -1.1104 9.39174 -2.82649 3.92979
44 1 -1.1104 9.39412 2.87996 3.83567
45 2 2.2208 8.11915 -1.48734 5.26722
46 2 2.2208 7.89517 3.95074 5.35215
47 1 -1.1104 9.25938 -0.149222 1.02646
48 1 -1.1104 9.46789 -0.0437826 3.87116
205 1 -1.1104 9.41285 2.61047 6.72109
162 2 2.2208 13.4313 18.2052 2.42568
313 2 2.2208 8.0989 15.3104 10.8887
172 2 2.2208 -0.322499 -4.30671 10.8386
201 1 -1.1104 12.2506 -3.10654 6.61542
315 2 2.2208 13.6994 15.3606 5.24667
51 2 2.2208 13.5302 -1.56327 5.13688
54 2 2.2208 5.36222 6.81155 5.21864
55 2 2.2208 5.21185 12.4535 5.30483
56 1 -1.1104 1.0337 8.18133 1.06272
58 1 -1.1104 1.0148 8.22499 3.88439
60 1 -1.1104 1.36592 5.37197 1.06257
61 1 -1.1104 0.921003 11.0198 1.08737
65 2 2.2208 5.3026 9.68566 2.45775
66 1 -1.1104 1.05161 5.57529 3.85444
67 1 -1.1104 1.08189 10.9608 3.845
70 1 -1.1104 3.75491 8.39085 0.923012
71 2 2.2208 2.45498 6.88721 2.39224
72 2 2.2208 2.41025 12.6003 2.50619
73 1 -1.1104 3.81828 8.31985 3.71707
74 2 2.2208 2.48223 9.65889 5.21616
75 1 -1.1104 4.4129 5.42389 1.0132
76 1 -1.1104 3.88133 11.2 0.726799
78 1 -1.1104 3.80193 5.44531 3.77452
79 1 -1.1104 3.8098 10.9959 3.89087
57 1 -1.1104 6.38406 8.30727 0.942293
59 1 -1.1104 6.47083 8.41908 3.9533
77 1 -1.1104 3.69871 11.1025 6.82139
69 1 -1.1104 6.60842 11.1078 4.0918
328 2 2.2208 5.26521 12.743 -0.294314
68 1 -1.1104 6.69813 5.27333 3.83613
327 2 2.2208 2.3077 9.71231 -0.336732
25 2 2.2208 10.85 18.2298 10.8187
82 2 2.2208 -0.337774 12.4875 5.20515
63 1 -1.1104 6.66701 11.0945 1.08279
83 2 2.2208 10.8392 6.96567 5.30265
84 2 2.2208 10.803 12.5103 5.20625
85 1 -1.1104 12.3714 8.25172 0.970516
86 1 -1.1104 12.304 8.13793 3.71843
87 1 -1.1104 12.2528 5.48761 1.04429
88 1 -1.1104 12.0631 11.0769 1.07885
90 2 2.2208 10.7283 9.5118 2.21476
91 1 -1.1104 11.8283 5.30584 3.94865
92 1 -1.1104 12.0788 10.9668 3.94011
93 1 -1.1104 9.65132 8.37429 0.651563
94 2 2.2208 8.08397 12.4906 2.4688
95 1 -1.1104 9.63284 8.35765 3.8886
96 2 2.2208 8.07778 9.66946 5.21962
97 1 -1.1104 9.45921 5.20087 0.846704
98 1 -1.1104 9.26401 11.1593 1.02613
100 1 -1.1104 9.35587 11.0489 3.80281
265 1 -1.1104 9.49128 5.40068 6.40186
99 1 -1.1104 9.45053 11.0857 6.64609
89 1 -1.1104 12.2325 11.2722 6.70051
64 1 -1.1104 6.51136 11.0911 6.88918
207 1 -1.1104 9.34776 13.9371 12.3353
103 2 2.2208 5.23049 18.076 5.26313
104 1 -1.1104 1.11463 13.9228 1.15532
106 1 -1.1104 0.982939 19.5291 1.1623
110 1 -1.1104 1.00475 13.817 3.9197
111 1 -1.1104 1.11686 19.5834 3.96719
113 1 -1.1104 1.07701 16.69 0.975224
116 2 2.2208 5.24217 15.3273 2.40449
117 2 2.2208 5.14167 20.9113 2.51835
118 1 -1.1104 1.01275 16.532 3.92955
120 1 -1.1104 3.85678 13.849 1.21561
122 1 -1.1104 3.68906 19.511 1.08973
124 2 2.2208 2.30371 18.2385 2.45147
125 1 -1.1104 3.80779 13.8542 3.90683
126 1 -1.1104 3.78758 19.498 3.77116
127 2 2.2208 2.51994 15.2338 5.28577
128 2 2.2208 2.45801 21.0432 5.17465
129 1 -1.1104 3.81324 16.7212 1.16695
131 1 -1.1104 3.76158 16.7064 3.96984
137 1 -1.1104 6.58646 16.8268 1.13419
114 1 -1.1104 1.06894 16.7048 6.72217
298 1 -1.1104 0.969747 19.6659 6.70785
123 1 -1.1104 3.91169 19.4494 6.55449
115 1 -1.1104 6.52034 16.7486 6.68465
136 1 -1.1104 6.42866 19.4912 3.95974
142 1 -1.1104 12.2263 19.4909 6.73126
112 1 -1.1104 6.42455 13.9039 3.81428
119 1 -1.1104 6.62474 16.7806 3.8278
109 1 -1.1104 6.6356 19.6268 6.75255
135 1 -1.1104 6.49804 19.6032 1.20416
107 1 -1.1104 6.63064 13.9546 1.14889
138 2 2.2208 10.8254 18.2144 5.25027
139 1 -1.1104 12.0153 13.7711 0.910759
141 1 -1.1104 12.071 19.5251 1.0082
143 1 -1.1104 12.2032 13.8543 3.73652
144 1 -1.1104 12.157 19.6516 3.89166
145 1 -1.1104 12.1764 16.6004 1.0336
147 2 2.2208 10.7465 15.3625 2.42794
148 2 2.2208 10.8126 20.9865 2.3693
149 1 -1.1104 12.2458 16.8815 3.99065
150 1 -1.1104 9.30156 14.055 0.949143
152 1 -1.1104 9.2926 19.5001 0.91487
154 2 2.2208 8.02194 18.1933 2.41094
155 1 -1.1104 9.39101 13.9609 3.7967
156 1 -1.1104 9.40121 19.6482 3.76512
157 2 2.2208 7.90912 15.343 5.14255
158 2 2.2208 8.0089 20.9333 5.07019
159 1 -1.1104 9.50109 16.7763 1.11443
161 1 -1.1104 9.4976 16.7114 3.81844
160 1 -1.1104 9.29185 16.778 6.70207
140 1 -1.1104 12.364 13.9643 6.49248
153 1 -1.1104 9.43014 19.4965 6.53741
146 1 -1.1104 12.1702 16.6325 6.65542
564 2 2.2208 10.7674 18.2466 -0.32529
326 2 2.2208 8.03292 15.3977 -0.293862
164 1 -1.1104 1.12563 2.59943 6.49483
169 1 -1.1104 3.72203 -3.03093 6.52623
170 1 -1.1104 3.94008 2.58412 6.61709
163 1 -1.1104 1.11358 -3.11688 6.71564
167 1 -1.1104 1.06055 -0.204633 6.78648
173 2 2.2208 5.27933 1.32463 10.8456
174 1 -1.1104 1.16572 -2.62164 12.3448
175 1 -1.1104 0.937 2.76825 12.1121
178 1 -1.1104 1.15429 -2.88906 9.47643
179 1 -1.1104 0.94616 2.69685 9.49134
183 2 2.2208 5.40482 -1.67281 8.03074
184 2 2.2208 5.2334 4.12358 8.11352
185 1 -1.1104 1.04114 -0.17796 9.71051
187 1 -1.1104 3.95721 -3.0777 12.1403
188 1 -1.1104 4.16042 2.94506 12.1296
189 2 2.2208 2.46977 1.27333 8.03785
190 1 -1.1104 3.90306 -3.02335 9.31226
191 1 -1.1104 3.80889 2.6196 9.49918
192 2 2.2208 2.65925 -1.67022 10.7677
193 2 2.2208 2.36474 4.10344 11.0432
194 1 -1.1104 3.85074 -0.421297 12.2068
195 1 -1.1104 3.94189 -0.241307 9.4694
316 2 2.2208 5.19846 -1.62125 13.4369
176 1 -1.1104 6.76419 -3.07107 12.2592
307 1 -1.1104 9.35783 13.9675 9.51851
180 1 -1.1104 6.74468 -2.93722 9.50276
9220 2 2.2208 13.6439 -1.63581 10.8678
206 1 -1.1104 9.48034 -0.130448 6.73415
204 1 -1.1104 9.44449 -3.02623 6.78541
203 1 -1.1104 12.2519 -0.276133 6.7593
9214 2 2.2208 -0.290737 9.64294 2.42709
168 1 -1.1104 6.68542 -0.165887 6.56773
186 1 -1.1104 6.77686 -0.198287 9.41972
181 1 -1.1104 6.65962 2.67993 9.43207
202 1 -1.1104 12.1077 2.71219 6.60387
9049 2 2.2208 13.5968 4.13217 10.9151
177 1 -1.1104 6.82144 2.67547 12.3612
182 1 -1.1104 6.71831 -0.220891 12.1148
208 2 2.2208 10.846 1.26422 10.956
209 1 -1.1104 12.2893 -2.99913 12.2575
210 1 -1.1104 12.2782 2.64361 12.2685
211 1 -1.1104 12.4034 -3.04033 9.46595
212 1 -1.1104 12.1958 2.60066 9.46382
213 1 -1.1104 12.2106 -0.0754843 12.2979
214 2 2.2208 10.9352 -1.66919 8.09118
215 2 2.2208 10.8412 4.09688 7.91383
216 1 -1.1104 12.2394 -0.294564 9.46458
217 1 -1.1104 9.48465 -2.90322 12.2633
218 1 -1.1104 9.47554 2.68952 12.141
219 2 2.2208 8.16618 1.17426 8.11378
220 1 -1.1104 9.45833 -3.11901 9.34047
221 1 -1.1104 9.61853 2.66867 9.44908
222 2 2.2208 8.14046 -1.65228 10.9505
223 2 2.2208 8.18669 4.10276 10.81
224 1 -1.1104 9.51644 0.0228992 12.2603
225 1 -1.1104 9.54744 -0.406755 9.61616
9219 2 2.2208 13.5095 1.2525 7.97532
317 2 2.2208 8.0495 1.31503 13.5878
318 2 2.2208 10.8784 3.94112 13.643
235 1 -1.1104 3.88387 5.33748 6.66621
62 1 -1.1104 1.0793 11.1908 6.60967
230 1 -1.1104 1.07672 8.41883 6.68839
234 1 -1.1104 3.88799 8.13891 6.64661
232 1 -1.1104 1.04614 5.45589 6.72598
233 1 -1.1104 6.71208 5.37539 6.68983
229 2 2.2208 -0.41281 12.4268 10.8648
80 1 -1.1104 12.2188 19.5876 9.47269
236 2 2.2208 5.17811 6.81223 10.9226
237 2 2.2208 5.24739 12.5241 10.8971
238 1 -1.1104 1.00246 8.4866 12.2373
240 1 -1.1104 0.874656 8.14091 9.54026
242 1 -1.1104 0.970518 5.65465 12.3545
243 1 -1.1104 0.935195 11.1779 12.259
246 2 2.2208 5.17265 9.63347 8.15219
247 1 -1.1104 1.05553 5.4571 9.53032
248 1 -1.1104 0.977623 11.1973 9.45944
251 1 -1.1104 4.03832 8.36933 12.2189
252 2 2.2208 2.4017 6.84889 8.1161
253 2 2.2208 2.41743 12.4714 8.14218
254 1 -1.1104 3.62966 8.28306 9.51544
255 2 2.2208 2.28831 9.75016 10.8133
256 1 -1.1104 3.81014 5.56192 12.269
257 1 -1.1104 3.82647 11.2346 12.2832
258 1 -1.1104 3.83018 5.52514 9.53237
259 1 -1.1104 3.7838 11.1133 9.5544
250 1 -1.1104 6.48625 11.0437 9.62224
239 1 -1.1104 6.65674 8.24354 12.2977
245 1 -1.1104 6.65162 11.0001 12.3337
227 2 2.2208 7.98114 18.1686 8.09595
244 1 -1.1104 6.71378 5.46864 12.2692
442 2 2.2208 2.4351 6.94256 13.7057
9110 2 2.2208 -0.197418 18.1922 10.8806
261 1 -1.1104 12.247 8.38653 6.64239
262 1 -1.1104 12.228 5.6411 6.69969
231 1 -1.1104 6.7593 8.2874 6.62285
249 1 -1.1104 6.70598 5.53063 9.44005
241 1 -1.1104 6.5769 8.23438 9.43343
263 1 -1.1104 9.48736 8.25437 6.70043
9130 2 2.2208 13.6978 9.78101 10.8941
260 1 -1.1104 9.42299 11.0444 9.41415
264 1 -1.1104 9.65439 5.44261 9.28344
266 1 -1.1104 9.40053 11.1493 12.1922
267 1 -1.1104 9.42356 5.55647 12.1719
268 2 2.2208 7.96942 9.70108 10.9555
269 1 -1.1104 9.59009 8.21645 9.59618
270 2 2.2208 8.04829 12.5538 7.88546
271 2 2.2208 8.04186 6.8946 8.04339
272 2 2.2208 10.9229 6.95224 10.9512
273 2 2.2208 10.792 12.5264 10.8364
274 1 -1.1104 12.3476 8.33707 12.3357
275 1 -1.1104 12.3783 8.57328 9.48162
276 1 -1.1104 12.203 5.46894 12.3371
277 1 -1.1104 12.2535 11.3124 12.4072
278 2 2.2208 10.8824 9.73163 7.96903
279 1 -1.1104 12.3249 5.6832 9.56279
280 1 -1.1104 12.4484 11.1923 9.56556
281 1 -1.1104 9.47087 8.30908 12.3725
443 2 2.2208 8.01497 12.4588 13.6081
310 1 -1.1104 9.43553 16.8051 9.54504
105 1 -1.1104 1.07043 13.9803 6.92784
302 1 -1.1104 6.71019 16.7014 12.1334
121 1 -1.1104 3.92207 13.7065 6.68233
130 1 -1.1104 3.8247 16.5308 6.90903
284 1 -1.1104 6.5335 19.5746 9.62721
282 1 -1.1104 3.85935 19.6984 11.9372
283 1 -1.1104 4.01193 13.9535 12.1585
287 1 -1.1104 1.07763 19.5783 9.38985
288 1 -1.1104 0.925668 16.9115 9.4552
289 2 2.2208 5.20754 21.01 7.93499
290 1 -1.1104 0.984305 13.8802 9.59926
291 2 2.2208 5.28875 15.2064 8.106
294 1 -1.1104 1.09334 19.7234 12.3206
295 1 -1.1104 1.32585 13.9583 12.302
296 2 2.2208 5.1808 18.1846 10.7938
297 1 -1.1104 3.74901 19.7183 9.30119
299 2 2.2208 2.37025 18.1954 7.94584
300 1 -1.1104 3.85044 16.8329 9.65242
301 1 -1.1104 3.84837 13.9944 9.54712
303 1 -1.1104 1.05933 16.8407 12.2259
304 1 -1.1104 3.86342 16.7458 12.5565
305 2 2.2208 2.42704 21.1625 10.7973
306 2 2.2208 2.48333 15.3772 10.9431
323 2 2.2208 5.08495 21.1036 13.4576
321 2 2.2208 2.35013 18.305 13.5922
292 1 -1.1104 6.66475 19.58 12.6165
320 2 2.2208 5.41117 15.3169 13.6259
308 1 -1.1104 9.38323 19.6068 9.44367
108 1 -1.1104 6.62725 13.9514 6.59971
312 2 2.2208 7.98119 20.9371 10.8515
151 1 -1.1104 9.4606 14.0544 6.73439
196 2 2.2208 10.8639 15.4359 7.97823
50 1 -1.1104 12.2134 13.9307 9.39114
311 1 -1.1104 9.64018 16.6901 12.1556
198 1 -1.1104 12.3555 16.6784 9.44832
26 1 -1.1104 12.3355 13.8797 12.2822
197 2 2.2208 10.9265 20.9022 8.07645
27 1 -1.1104 12.3437 19.5279 12.1959
226 1 -1.1104 9.48192 19.4723 12.2561
286 1 -1.1104 6.65036 13.8099 9.35162
285 1 -1.1104 6.68197 16.6433 9.41992
293 1 -1.1104 6.71128 13.8098 12.216
81 1 -1.1104 12.2016 16.8081 12.2691
49 2 2.2208 13.6316 -4.3531 2.37718
8943 2 2.2208 13.677 9.70602 5.20548
405 2 2.2208 10.8879 -1.49025 13.6448
440 2 2.2208 2.43675 12.54 13.7112
560 2 2.2208 5.25611 -4.40501 -0.345143
565 2 2.2208 7.94624 21.0766 -0.344606
325 2 2.2208 2.503 4.0398 -0.375521
587 2 2.2208 8.22195 3.92711 -0.46623
586 2 2.2208 7.98273 -1.61356 -0.462986
620 2 2.2208 -0.256524 12.4435 -0.402877
617 2 2.2208 5.14431 6.955 -0.510201
9296 2 2.2208 13.6993 4.10956 -0.493176
331 2 2.2208 10.625 12.4143 -0.363527
329 2 2.2208 10.8486 6.77588 -0.419566
330 2 2.2208 7.81169 9.58296 -0.309959
406 2 2.2208 13.8203 12.6727 13.6145
9260 2 2.2208 13.6721 1.18689 13.8187
673 2 2.2208 2.40675 15.2535 -0.389645
672 2 2.2208 5.15949 18.1449 -0.362941
333 2 2.2208 5.22514 1.39389 16.4294
334 1 -1.1104 0.935912 -3.0147 17.9798
335 1 -1.1104 1.04131 2.53266 18.0394
338 1 -1.1104 0.903052 -2.98508 14.9911
340 1 -1.1104 0.799709 2.86014 15.2587
346 1 -1.1104 0.935169 -0.206469 17.8711
348 2 2.2208 5.23589 -1.36853 19.2309
349 2 2.2208 5.18791 4.02131 19.2283
350 1 -1.1104 0.995973 -0.214359 15.0493
354 1 -1.1104 3.85064 -2.90208 17.9156
355 1 -1.1104 3.84012 2.70479 17.9645
356 2 2.2208 2.43572 1.29411 19.2463
357 1 -1.1104 3.66923 -2.55554 14.8467
359 1 -1.1104 4.03518 2.82507 15.155
361 2 2.2208 2.263 -1.64343 16.4849
362 2 2.2208 2.41548 4.09193 16.3803
363 1 -1.1104 3.87642 -0.198022 17.5932
352 1 -1.1104 6.2444 0.00701027 14.8244
347 1 -1.1104 6.71029 0.0135675 17.744
336 1 -1.1104 6.40226 -2.78306 17.8236
342 1 -1.1104 6.49724 -2.88711 15.0378
373 2 2.2208 5.2742 4.13605 13.7356
358 1 -1.1104 3.75775 -2.91893 20.6414
676 2 2.2208 -0.305368 20.9105 24.7679
618 1 -1.1104 9.4642 13.9142 26.2829
619 1 -1.1104 9.45754 19.4456 26.2218
644 1 -1.1104 9.39023 16.6877 23.4378
344 1 -1.1104 6.80829 2.64772 15.0627
337 1 -1.1104 6.69881 2.60155 17.8375
374 2 2.2208 10.8019 1.23057 16.4419
375 1 -1.1104 12.1818 -2.81155 17.7689
376 1 -1.1104 12.349 2.56778 17.8706
377 1 -1.1104 12.2086 -2.92051 15.1525
379 1 -1.1104 12.2689 2.59982 15.0316
381 1 -1.1104 12.2715 -0.025857 17.9114
382 2 2.2208 10.8977 -1.55306 19.2038
383 2 2.2208 10.8908 4.12063 19.2107
384 1 -1.1104 12.2042 -0.14382 15.0701
386 1 -1.1104 9.21315 -2.99008 17.8859
387 1 -1.1104 9.51457 2.68828 17.8069
388 2 2.2208 8.11736 1.28601 19.2687
389 1 -1.1104 9.32831 -2.90033 15.1547
391 1 -1.1104 9.48337 2.66203 15.1154
393 2 2.2208 7.86829 -1.45768 16.3836
394 2 2.2208 8.06237 4.02428 16.52
395 1 -1.1104 9.41863 -0.22451 17.7996
396 1 -1.1104 9.26708 -0.216685 15.005
390 1 -1.1104 9.40329 -2.93339 20.6725
378 1 -1.1104 12.2484 -2.90318 20.6326
397 1 -1.1104 9.68221 -0.0264549 20.7075
561 2 2.2208 5.26991 -4.25265 21.9672
402 2 2.2208 13.6184 -1.50389 16.463
649 1 -1.1104 6.71345 14.0048 26.3262
594 1 -1.1104 12.1208 19.5729 26.3542
407 2 2.2208 5.16722 6.87572 16.3905
408 2 2.2208 5.22821 12.3808 16.5237
409 1 -1.1104 1.16545 8.36013 17.7352
411 1 -1.1104 1.10102 8.31479 15.0565
415 1 -1.1104 0.902231 5.5242 17.8653
416 1 -1.1104 0.929924 11.1257 18.1061
419 2 2.2208 5.25889 9.58585 19.2228
420 1 -1.1104 1.05029 5.64498 15.0341
422 1 -1.1104 0.870988 11.1092 15.1653
428 1 -1.1104 3.78315 8.23622 17.9218
429 2 2.2208 2.40123 6.85662 19.2141
430 2 2.2208 2.4019 12.4323 19.2392
431 1 -1.1104 3.80812 8.31016 14.9899
433 2 2.2208 2.53798 9.7297 16.4471
434 1 -1.1104 3.62805 5.43128 17.8637
435 1 -1.1104 3.73719 11.0424 17.9163
436 1 -1.1104 3.80832 5.55611 15.076
438 1 -1.1104 3.89984 11.1543 15.1319
424 1 -1.1104 6.62143 5.45781 15.1171
413 1 -1.1104 6.48839 8.19872 15.1154
418 1 -1.1104 6.69303 10.9878 17.8297
410 1 -1.1104 6.52355 8.24323 17.8019
426 1 -1.1104 6.6339 11.0198 15.0466
427 1 -1.1104 6.6693 11.1165 20.8018
557 2 2.2208 8.18274 18.1354 24.9036
642 2 2.2208 8.0332 15.4139 22.0291
643 2 2.2208 8.1197 20.8903 22.0691
562 2 2.2208 2.37038 -4.35206 24.9251
417 1 -1.1104 6.58489 5.46883 17.8499
414 1 -1.1104 6.5023 8.42746 20.6556
444 2 2.2208 10.9233 6.97356 16.4325
445 2 2.2208 10.9349 12.5491 16.4223
446 1 -1.1104 12.178 8.366 17.7398
447 1 -1.1104 12.1827 8.35139 15.0101
449 1 -1.1104 12.2903 5.48555 17.8269
450 1 -1.1104 12.2716 11.087 18.0232
451 2 2.2208 10.817 9.74982 19.2995
452 1 -1.1104 12.3345 5.46062 15.0502
454 1 -1.1104 12.3062 11.159 15.1933
456 1 -1.1104 9.31644 8.29239 17.9363
457 2 2.2208 7.89968 6.85531 19.2409
458 2 2.2208 8.11239 12.5737 19.3158
459 1 -1.1104 9.47169 8.42013 15.1578
461 2 2.2208 8.09546 9.6818 16.46
462 1 -1.1104 9.36878 5.58158 17.831
463 1 -1.1104 9.41384 10.9852 17.8931
464 1 -1.1104 9.55952 5.45876 15.1772
466 1 -1.1104 9.36268 11.0576 15.0127
425 1 -1.1104 6.43842 5.59671 20.6925
455 1 -1.1104 12.2444 11.1275 20.7336
469 2 2.2208 13.6485 12.593 19.3256
319 2 2.2208 8.08102 6.85654 13.6843
588 1 -1.1104 12.1832 14.0722 23.335
9331 2 2.2208 13.5154 6.97761 19.1442
468 2 2.2208 10.8765 9.90163 13.653
470 1 -1.1104 1.02834 13.789 17.7438
471 1 -1.1104 0.981765 19.5354 17.8233
474 1 -1.1104 1.04564 13.8536 15.0671
476 1 -1.1104 1.04867 19.5954 15.0235
482 1 -1.1104 0.996674 16.6532 17.723
484 2 2.2208 5.21544 15.2976 19.1071
485 2 2.2208 5.38418 20.8892 19.2786
486 1 -1.1104 1.33012 16.7851 14.892
490 1 -1.1104 3.73702 13.7441 17.7716
491 1 -1.1104 3.60953 19.7549 18.1555
492 2 2.2208 2.51311 18.1228 19.1952
493 1 -1.1104 3.72799 14.0843 14.9771
495 1 -1.1104 3.87384 19.5932 14.7731
497 2 2.2208 2.31605 15.1976 16.5376
498 2 2.2208 2.50777 20.8985 16.3938
499 1 -1.1104 3.77313 16.6016 17.7891
475 1 -1.1104 0.98849 13.7785 20.4228
487 1 -1.1104 1.0146 16.6499 20.5607
478 1 -1.1104 6.61148 13.7784 15.0287
472 1 -1.1104 6.55931 13.7444 17.8073
477 1 -1.1104 0.713975 19.4688 20.7226
494 1 -1.1104 3.76742 13.8443 20.581
479 1 -1.1104 6.72704 14.0406 20.6113
481 1 -1.1104 6.672 19.5509 20.685
593 1 -1.1104 12.1914 13.9147 26.2283
510 1 -1.1104 12.3879 19.8545 20.5003
488 1 -1.1104 6.66371 16.6501 14.8881
473 1 -1.1104 6.89945 19.676 18.0411
483 1 -1.1104 6.9832 16.4013 18.0672
504 2 2.2208 10.9471 18.0905 16.3949
505 1 -1.1104 12.3445 13.7559 17.773
506 1 -1.1104 12.1795 19.3879 17.8731
507 1 -1.1104 12.273 14.0105 14.9814
509 1 -1.1104 12.0459 19.6451 15.1065
511 1 -1.1104 12.3258 16.6959 17.6187
512 2 2.2208 10.9402 15.3265 19.227
513 2 2.2208 10.813 20.9647 19.1089
514 1 -1.1104 12.2332 16.8821 14.8663
516 1 -1.1104 9.53008 13.8674 17.9622
517 1 -1.1104 9.50703 19.4516 17.6981
518 2 2.2208 8.00774 18.0175 19.1608
519 1 -1.1104 9.42966 13.8256 15.0653
521 1 -1.1104 8.98781 19.4649 14.991
523 2 2.2208 8.01048 15.3024 16.4856
524 2 2.2208 8.05065 21.0052 16.4967
525 1 -1.1104 9.63736 16.6336 17.608
526 1 -1.1104 9.4961 16.758 14.9294
508 1 -1.1104 12.3396 14.0606 20.6795
621 2 2.2208 10.9384 15.3704 24.8832
528 1 -1.1104 9.66406 19.5661 23.4532
9400 2 2.2208 13.6251 15.3497 16.3726
530 2 2.2208 10.9227 15.3689 13.6647
364 1 -1.1104 3.72279 -0.136651 20.6815
360 1 -1.1104 3.66001 2.77025 20.9371
339 1 -1.1104 0.79857 -2.95307 20.5834
351 1 -1.1104 0.952615 0.0161084 20.6767
345 1 -1.1104 6.59978 2.67429 20.6467
341 1 -1.1104 0.941914 2.69929 20.8129
353 1 -1.1104 6.75722 0.0341604 20.5466
343 1 -1.1104 6.62233 -2.69724 20.6606
531 2 2.2208 5.11691 1.41076 22.1135
532 1 -1.1104 0.82409 -2.89576 23.4653
533 1 -1.1104 0.901412 2.73467 23.4617
536 1 -1.1104 1.01226 -3.09067 26.3982
537 1 -1.1104 1.28695 2.50199 26.3449
540 1 -1.1104 1.00627 -0.130382 23.3956
542 2 2.2208 5.18035 -1.70782 24.7588
543 2 2.2208 5.31149 4.02668 24.8749
544 1 -1.1104 1.02606 -0.28205 26.2519
546 1 -1.1104 3.75073 -3.10582 23.2678
547 1 -1.1104 3.73093 2.6268 23.6268
548 2 2.2208 2.55907 1.14834 24.9345
549 1 -1.1104 3.77117 -2.95169 26.0977
550 1 -1.1104 3.99604 2.62177 26.2697
551 2 2.2208 2.24845 -1.58188 21.8483
552 2 2.2208 2.33154 4.04017 22.1648
553 1 -1.1104 3.89563 -0.233582 23.3956
554 1 -1.1104 4.01641 -0.215506 26.2161
535 1 -1.1104 6.49999 2.76862 23.49
534 1 -1.1104 6.59519 -2.89273 23.4675
545 1 -1.1104 6.73134 -0.349148 26.1597
646 1 -1.1104 9.46806 16.6662 26.2797
623 1 -1.1104 12.2452 16.6975 26.2663
8758 2 2.2208 7.94215 -4.2898 19.3646
9301 2 2.2208 13.6751 -4.27581 19.2129
399 2 2.2208 10.7875 -4.26371 16.5121
392 1 -1.1104 9.45427 2.72096 20.6144
380 1 -1.1104 12.3313 2.6716 20.6521
674 2 2.2208 -0.240965 15.3588 24.8105
541 1 -1.1104 6.58099 -0.0478574 23.4452
8757 2 2.2208 10.911 -4.22649 21.9829
539 1 -1.1104 6.8338 2.62118 26.3058
385 1 -1.1104 12.3405 -0.192204 20.7342
658 1 -1.1104 6.69198 13.9667 23.5162
9297 2 2.2208 13.7631 1.33918 24.8036
538 1 -1.1104 6.54427 -3.04532 26.2222
9298 2 2.2208 13.6855 -1.49744 21.995
567 2 2.2208 10.9308 1.43147 22.122
568 1 -1.1104 12.1801 -2.80383 23.4367
569 1 -1.1104 12.1962 2.81159 23.4002
570 1 -1.1104 12.2001 -2.8557 26.213
571 1 -1.1104 12.337 2.72613 26.0821
572 1 -1.1104 12.3068 0.120463 23.4997
573 2 2.2208 10.904 -1.55591 24.8004
574 2 2.2208 10.8613 4.14514 24.7723
575 1 -1.1104 12.4225 0.00954868 26.3287
576 1 -1.1104 9.37063 -2.81463 23.451
577 1 -1.1104 9.35968 2.5949 23.5012
578 2 2.2208 8.11937 1.1275 24.8912
579 1 -1.1104 9.47927 -2.92458 26.1444
580 1 -1.1104 9.49657 2.56349 26.3211
581 2 2.2208 8.10097 -1.39173 22.0662
582 2 2.2208 7.97307 4.0663 22.0646
583 1 -1.1104 9.5768 -0.194758 23.6113
584 1 -1.1104 9.56513 -0.223839 26.3289
366 2 2.2208 5.19082 -4.25953 16.3817
369 2 2.2208 13.5908 18.2978 24.8225
647 2 2.2208 13.6601 7.0058 24.8903
439 1 -1.1104 3.90356 10.9041 20.6938
437 1 -1.1104 3.9109 5.37404 20.7
432 1 -1.1104 3.8139 8.24887 20.5737
412 1 -1.1104 1.108 8.21755 20.6721
421 1 -1.1104 0.99784 5.40934 20.6891
9550 2 2.2208 -0.365304 6.92919 22.011
423 1 -1.1104 0.910172 10.9811 21.16
596 2 2.2208 5.21111 6.96645 22.1031
597 2 2.2208 5.16391 12.5569 22.1533
598 1 -1.1104 0.975579 8.52977 23.3619
600 1 -1.1104 0.945521 8.29855 26.2575
602 1 -1.1104 1.07924 5.68335 23.5758
605 2 2.2208 5.24324 9.65007 24.8047
606 1 -1.1104 1.07738 5.49034 26.5064
607 1 -1.1104 0.945899 10.8791 26.4021
610 1 -1.1104 3.89628 8.1527 23.5145
611 2 2.2208 2.45079 6.95174 24.9287
612 1 -1.1104 3.79684 8.48152 26.2223
613 2 2.2208 2.53588 9.584 22.0786
614 1 -1.1104 3.76223 5.44684 23.4088
615 1 -1.1104 3.63436 10.8914 23.4769
616 1 -1.1104 3.74945 5.5719 26.3539
609 1 -1.1104 6.04973 10.9472 26.3227
603 1 -1.1104 6.59071 5.46309 23.7208
601 1 -1.1104 6.62836 8.20608 26.1907
599 1 -1.1104 6.62787 8.37326 23.5115
400 2 2.2208 -0.396927 15.23 13.6482
453 1 -1.1104 12.1621 5.47404 20.7182
465 1 -1.1104 9.33648 5.23154 20.6308
448 1 -1.1104 12.2069 8.33215 20.4522
467 1 -1.1104 9.51699 11.1192 20.7508
460 1 -1.1104 9.3889 8.17792 20.6899
666 1 -1.1104 6.6694 16.8692 23.5419
608 1 -1.1104 6.64076 5.47271 26.7576
604 1 -1.1104 6.60275 11.2011 23.6394
624 1 -1.1104 9.01994 10.9704 26.2854
625 1 -1.1104 9.47008 5.25782 26.1766
626 1 -1.1104 9.33459 11.0669 23.4617
627 1 -1.1104 9.52422 5.60308 23.4169
628 2 2.2208 8.09582 9.7124 22.079
629 1 -1.1104 9.35958 8.15497 26.2295
630 2 2.2208 8.02503 12.5583 24.8607
631 2 2.2208 8.03979 6.91299 24.8646
632 2 2.2208 10.8181 7.04982 22.0164
633 2 2.2208 10.8916 12.515 22.1397
634 1 -1.1104 12.1351 8.27362 23.4533
635 1 -1.1104 12.1465 8.34929 26.3723
636 1 -1.1104 12.3219 5.59652 23.4234
637 1 -1.1104 12.1224 11.157 23.5282
638 2 2.2208 10.7178 9.72504 24.9733
639 1 -1.1104 12.3311 5.4041 26.278
640 1 -1.1104 12.0667 11.0682 26.2737
641 1 -1.1104 9.43216 8.39592 23.5143
590 2 2.2208 13.5358 21.052 16.444
9337 2 2.2208 -0.584477 12.5317 16.4827
367 2 2.2208 13.5897 9.76642 22.0132
592 1 -1.1104 12.2682 19.7086 23.4559
622 2 2.2208 10.8439 20.9697 24.9004
496 1 -1.1104 3.75999 19.6093 20.6453
500 1 -1.1104 3.76919 16.7808 20.6349
522 1 -1.1104 9.49122 19.5284 20.498
671 2 2.2208 2.45875 21.0073 27.6181
648 1 -1.1104 3.95215 19.7016 23.453
650 1 -1.1104 4.02694 14.2618 23.2796
652 1 -1.1104 1.13726 19.5187 26.4644
653 1 -1.1104 0.950817 16.7431 26.1512
654 1 -1.1104 0.790801 14.0523 26.5167
656 2 2.2208 5.38461 20.9063 24.9597
657 2 2.2208 5.20824 15.5253 24.9001
659 1 -1.1104 1.03513 19.6541 23.5086
660 1 -1.1104 0.903805 14.0198 23.1832
661 2 2.2208 5.31645 18.1295 22.08
662 1 -1.1104 3.9361 19.5732 26.3043
663 2 2.2208 2.35024 18.2298 24.8102
664 1 -1.1104 3.70593 16.7221 26.4662
665 1 -1.1104 3.89631 13.9749 26.4141
667 1 -1.1104 0.975674 16.8772 23.4583
668 1 -1.1104 3.99245 16.9046 23.5114
669 2 2.2208 2.50392 21.0199 21.9711
670 2 2.2208 2.49085 15.3289 21.9369
651 1 -1.1104 6.48725 16.7759 26.4849
559 1 -1.1104 6.75529 19.6351 26.387
655 1 -1.1104 6.83626 19.5351 23.5455
365 2 2.2208 13.6646 15.4169 22.1211
502 1 -1.1104 9.45256 13.9366 23.6422
595 1 -1.1104 12.0791 16.9272 23.2755
489 1 -1.1104 6.71291 16.8388 20.6745
566 2 2.2208 10.7359 18.1415 21.9021
515 1 -1.1104 12.3059 16.7869 20.4323
520 1 -1.1104 9.68123 13.9989 20.7331
527 1 -1.1104 9.55123 16.6677 20.6366
555 2 2.2208 5.39478 1.18573 27.5389
556 2 2.2208 2.40674 -1.65616 27.7484
8529 2 2.2208 8.15349 -4.37271 13.5821
529 2 2.2208 10.844 20.9203 13.5686
370 2 2.2208 13.419 15.3456 27.6808
585 2 2.2208 10.9268 1.22759 27.66
675 2 2.2208 -0.407705 18.0816 27.7033
441 2 2.2208 5.32357 9.74144 13.6375
9446 2 2.2208 13.5849 -1.51087 27.7243
678 2 2.2208 5.30825 23.743 5.1436
679 2 2.2208 5.205 29.4094 5.18483
680 1 -1.1104 0.940229 25.0015 0.925029
681 1 -1.1104 1.14712 25.0215 3.84316
682 1 -1.1104 0.99268 22.1424 0.810697
683 1 -1.1104 1.14014 27.8531 1.07443
684 2 2.2208 5.28223 26.5589 2.45324
685 1 -1.1104 1.23019 22.3917 3.73134
686 1 -1.1104 0.876593 27.9975 3.72173
687 1 -1.1104 3.7668 25.1725 1.02955
688 2 2.2208 2.54175 23.6695 2.33383
689 2 2.2208 2.48383 29.354 2.39978
690 1 -1.1104 4.0485 25.28 3.98986
691 2 2.2208 2.4938 26.6038 5.24515
692 1 -1.1104 3.88235 22.3345 0.954743
693 1 -1.1104 3.76211 27.9242 1.12642
694 1 -1.1104 3.86457 22.3462 3.89327
695 1 -1.1104 3.71025 27.9239 3.90607
9746 1 -1.1104 0.327552 27.6665 6.28491
704 1 -1.1104 6.55433 27.9763 3.9325
696 2 2.2208 -0.152675 29.5136 5.2328
825 1 -1.1104 3.90756 22.2548 6.55272
700 1 -1.1104 6.74255 25.1307 3.70421
699 1 -1.1104 6.63821 25.2573 0.980386
703 1 -1.1104 6.55874 22.3119 3.63657
826 1 -1.1104 3.84807 27.9115 6.59399
823 1 -1.1104 6.67501 27.8026 6.71109
820 1 -1.1104 6.69399 25.0799 6.61483
702 1 -1.1104 6.51925 28.0383 1.15988
701 1 -1.1104 6.76153 22.4416 1.03287
705 2 2.2208 10.8837 23.7303 5.24489
706 2 2.2208 10.8009 29.3195 5.24102
707 1 -1.1104 12.294 25.16 1.15112
708 1 -1.1104 12.3026 25.1005 3.865
709 1 -1.1104 12.3102 22.3719 0.902305
710 1 -1.1104 12.1627 27.9927 1.01612
711 2 2.2208 10.9089 26.5742 2.36006
712 1 -1.1104 12.2464 22.3159 3.66403
713 1 -1.1104 12.3846 27.9303 3.74787
714 1 -1.1104 9.50156 25.13 0.853658
715 2 2.2208 8.03837 23.8231 2.38085
716 2 2.2208 7.94914 29.3263 2.40858
717 1 -1.1104 9.48327 25.1701 3.61292
718 2 2.2208 8.02584 26.4985 5.19062
719 1 -1.1104 9.54814 22.3737 1.01783
720 1 -1.1104 9.32296 27.9442 0.942056
721 1 -1.1104 9.42073 22.4478 3.68642
722 1 -1.1104 9.49202 27.757 3.88858
851 1 -1.1104 12.3394 28.0504 6.66343
852 1 -1.1104 9.45056 25.1104 6.58177
9888 2 2.2208 13.7472 26.5214 5.2156
9887 2 2.2208 13.683 29.4051 2.37525
9885 2 2.2208 13.7399 43.5855 10.9307
822 1 -1.1104 6.68931 22.3361 6.55327
854 1 -1.1104 9.4616 27.8325 6.55251
849 1 -1.1104 12.3103 25.3238 6.75839
850 1 -1.1104 12.0845 22.3496 6.54433
725 1 -1.1104 12.3434 42.0148 9.60075
1260 2 2.2208 8.07954 26.5804 -0.619216
727 2 2.2208 5.06184 34.9266 5.2401
728 1 -1.1104 0.963735 30.6672 1.01722
729 1 -1.1104 0.946934 36.3069 0.967516
731 1 -1.1104 1.18919 30.8284 3.70961
732 1 -1.1104 1.03158 36.4613 3.72441
734 1 -1.1104 0.969632 33.5678 1.0361
735 2 2.2208 5.30701 32.1721 2.37577
736 2 2.2208 4.99772 37.7226 2.52594
737 1 -1.1104 1.10821 33.604 3.90908
739 1 -1.1104 3.84629 30.6702 0.91605
740 1 -1.1104 3.65357 36.2144 0.95372
741 2 2.2208 2.31426 34.9484 2.48192
742 1 -1.1104 4.00599 30.7405 3.59996
743 1 -1.1104 3.82716 36.3066 3.76619
744 2 2.2208 2.43847 32.1811 5.39131
745 2 2.2208 2.29202 37.8819 5.21472
746 1 -1.1104 3.80322 33.474 1.02239
747 1 -1.1104 3.79866 33.5624 3.93445
879 1 -1.1104 3.97274 30.9607 6.59566
752 1 -1.1104 6.66427 33.55 1.02759
730 1 -1.1104 6.37588 36.3026 1.0617
738 1 -1.1104 6.58006 33.6013 3.86994
880 1 -1.1104 3.69605 36.6079 6.6458
874 1 -1.1104 1.06171 36.4534 6.67026
877 1 -1.1104 1.0507 33.6236 6.75423
750 1 -1.1104 6.62212 30.7739 1.15404
873 1 -1.1104 0.818281 30.9938 6.53087
876 1 -1.1104 6.50796 36.3011 6.77386
878 1 -1.1104 6.68913 33.6108 6.59024
881 1 -1.1104 3.72713 33.6489 6.73099
9642 2 2.2208 13.6421 31.9871 5.28505
733 1 -1.1104 6.53735 36.3983 3.85783
751 1 -1.1104 6.71263 30.686 3.84475
753 2 2.2208 10.8705 35.1048 5.46424
754 1 -1.1104 12.2662 30.6881 1.03643
755 1 -1.1104 12.1585 36.2181 1.31942
756 1 -1.1104 12.3442 30.7541 3.87506
757 1 -1.1104 12.2275 36.3284 3.9571
758 1 -1.1104 12.1379 33.3702 1.07489
759 2 2.2208 10.733 32.2082 2.62389
760 2 2.2208 10.8949 37.7625 2.52019
761 1 -1.1104 12.3233 33.4856 3.91947
762 1 -1.1104 9.52276 30.8277 1.14161
763 1 -1.1104 9.32276 36.3316 1.13866
764 2 2.2208 7.91366 34.8901 2.58225
765 1 -1.1104 9.45073 30.5878 3.81936
766 1 -1.1104 9.36981 36.468 3.89337
767 2 2.2208 7.90144 32.1637 5.33455
768 2 2.2208 7.99638 37.7835 5.15618
769 1 -1.1104 9.45614 33.5858 1.36937
770 1 -1.1104 9.40543 33.6675 4.12689
907 1 -1.1104 12.2339 30.7634 6.61012
912 1 -1.1104 9.51671 33.6667 6.76072
910 1 -1.1104 9.4476 30.699 6.63959
909 1 -1.1104 12.2038 33.8681 6.78358
911 1 -1.1104 9.45761 36.3961 6.68448
1210 2 2.2208 10.8451 43.2771 13.633
908 1 -1.1104 12.3003 36.6368 6.68108
1202 2 2.2208 13.7515 40.7704 13.6477
949 1 -1.1104 6.70871 39.1708 6.68664
772 2 2.2208 5.34388 40.4979 5.24008
773 2 2.2208 5.37051 46.199 5.33047