ITEM: TIMESTEP
60000
ITEM: NUMBER OF ATOMS
17820
ITEM: BOX BOUNDS pp pp pp
-3.6437236697664804e-01 2.7704372366976916e+01
-4.3052197114484843e+00 3.3238521971146105e+02
-3.6262014691267241e-01 2.7702620146912288e+01
ITEM: ATOMS id type q x y z
1 2 2.2208 5.19483 1.24524 5.33479
2 1 -1.1104 1.10387 -2.8621 1.19343
3 1 -1.1104 1.08522 2.6709 1.10619
6 1 -1.1104 1.03912 -2.79352 3.95102
7 1 -1.1104 1.15072 2.677 3.86954
10 1 -1.1104 1.17235 -0.0907961 1.18342
12 2 2.2208 5.26189 -1.35681 2.33622
13 2 2.2208 5.34318 4.05513 2.59275
14 1 -1.1104 1.04999 0.0351852 3.98168
16 1 -1.1104 3.96833 -2.77815 1.13934
17 1 -1.1104 3.85474 2.72435 1.05868
18 2 2.2208 2.53275 1.40028 2.46674
19 1 -1.1104 3.90954 -2.79432 3.84073
20 1 -1.1104 3.90287 2.72017 3.81041
21 2 2.2208 2.58008 -1.38519 5.29211
22 2 2.2208 2.41088 4.1053 5.19006
23 1 -1.1104 3.95818 0.0314398 0.93126
24 1 -1.1104 3.80039 -0.0806616 3.81693
171 1 -1.1104 3.85234 -0.1586 6.67577
163 1 -1.1104 1.07714 -2.94527 6.84913
29 2 2.2208 2.47425 -4.17738 2.53066
164 1 -1.1104 1.02833 2.79032 6.55833
555 2 2.2208 5.41534 1.36043 -0.54363
556 2 2.2208 2.57897 -1.53148 -0.378069
563 2 2.2208 -0.296826 1.31168 -0.379895
9211 2 2.2208 -0.392798 1.44049 5.26325
28 2 2.2208 -0.257401 4.06043 2.39665
9210 2 2.2208 -0.318579 -1.47663 2.43634
9223 2 2.2208 -0.403065 -4.26415 -0.44509
9 1 -1.1104 6.76351 2.50437 4.15993
15 1 -1.1104 6.61419 -0.197677 3.72687
4 1 -1.1104 6.72185 -2.78508 0.829732
11 1 -1.1104 6.72303 -0.032575 0.923163
165 1 -1.1104 6.77837 -2.8458 6.4969
8 1 -1.1104 6.62591 -3.07735 3.7312
5 1 -1.1104 6.74192 2.85847 1.02872
31 2 2.2208 10.903 1.38692 5.31009
32 1 -1.1104 12.2761 -2.8542 1.03802
33 1 -1.1104 12.2414 2.79987 1.18351
34 1 -1.1104 12.298 -2.90137 3.72121
35 1 -1.1104 12.3148 2.75805 3.8864
36 1 -1.1104 12.3672 -0.0307271 1.06479
37 2 2.2208 10.8697 -1.53544 2.47918
38 2 2.2208 10.8613 4.04246 2.35348
39 1 -1.1104 12.2463 -0.109001 3.7707
40 1 -1.1104 9.4774 -2.89963 0.98451
41 1 -1.1104 9.44692 2.48403 1.00944
42 2 2.2208 8.19843 1.29743 2.40341
43 1 -1.1104 9.53511 -2.95238 3.79668
44 1 -1.1104 9.44379 2.93751 3.75339
45 2 2.2208 8.1664 -1.54108 5.07994
46 2 2.2208 7.97715 3.98065 5.39391
47 1 -1.1104 9.53185 -0.183016 1.01776
48 1 -1.1104 9.66311 -0.00470614 3.78133
203 1 -1.1104 12.2486 -0.168583 6.52597
202 1 -1.1104 12.381 2.64791 6.70348
53 2 2.2208 10.9294 -4.38867 5.22163
205 1 -1.1104 9.43686 2.64496 6.71796
201 1 -1.1104 12.315 -2.95647 6.52256
52 2 2.2208 8.153 -4.34631 2.40887
166 1 -1.1104 6.51974 2.60869 6.79095
168 1 -1.1104 6.67629 -0.194675 6.46053
204 1 -1.1104 9.5018 -3.18455 6.4875
585 2 2.2208 10.9425 1.21842 -0.369265
587 2 2.2208 8.22087 4.04278 -0.383883
54 2 2.2208 5.21738 6.88324 5.1788
55 2 2.2208 5.35451 12.5901 5.28859
56 1 -1.1104 0.950439 8.39504 0.972326
58 1 -1.1104 0.852776 8.27169 3.85061
60 1 -1.1104 1.08397 5.47967 1.11747
61 1 -1.1104 1.06982 11.1137 0.964876
65 2 2.2208 5.28532 9.77537 2.44787
66 1 -1.1104 0.890147 5.49784 3.94396
67 1 -1.1104 1.11462 11.0612 3.85083
70 1 -1.1104 3.86396 8.29986 1.03922
71 2 2.2208 2.24477 6.88177 2.55584
72 2 2.2208 2.49965 12.5788 2.47656
73 1 -1.1104 3.56817 8.29478 3.81443
74 2 2.2208 2.494 9.76014 5.29982
75 1 -1.1104 4.23389 5.63986 1.04106
76 1 -1.1104 3.83514 11.0432 0.832456
78 1 -1.1104 3.71573 5.38806 3.74959
79 1 -1.1104 3.89457 11.1112 3.85965
59 1 -1.1104 6.42329 8.46434 4.02358
328 2 2.2208 5.31076 12.6789 -0.2169
68 1 -1.1104 6.62399 5.33319 3.98577
82 2 2.2208 -0.374165 12.6063 5.32048
232 1 -1.1104 1.03728 5.54314 6.72881
77 1 -1.1104 3.91421 11.2111 6.67108
234 1 -1.1104 3.8542 8.32629 6.66781
235 1 -1.1104 3.84995 5.53788 6.50588
230 1 -1.1104 0.956492 8.38643 6.71333
233 1 -1.1104 6.63437 5.38964 6.75192
9214 2 2.2208 -0.430593 9.68968 2.31639
9213 2 2.2208 -0.449823 6.89773 5.28715
69 1 -1.1104 6.74542 11.0618 3.65361
57 1 -1.1104 6.56375 8.31944 0.925249
331 2 2.2208 10.7531 12.6297 -0.36894
63 1 -1.1104 6.58313 11.1325 0.973559
83 2 2.2208 10.9557 7.00113 5.0927
84 2 2.2208 11.046 12.4947 5.18787
85 1 -1.1104 12.209 8.46089 1.0434
86 1 -1.1104 12.2483 8.48489 3.62725
87 1 -1.1104 12.2286 5.52747 0.888334
88 1 -1.1104 12.1993 11.1595 0.978669
90 2 2.2208 10.7176 9.82027 2.27655
91 1 -1.1104 12.0748 5.42125 3.7563
92 1 -1.1104 12.2364 11.2817 3.68915
93 1 -1.1104 9.52796 8.53085 0.723913
94 2 2.2208 7.98301 12.4975 2.5285
95 1 -1.1104 9.62925 8.29316 3.7074
96 2 2.2208 8.09586 9.58227 5.13363
97 1 -1.1104 9.43018 5.33601 1.11665
98 1 -1.1104 9.42118 11.2685 0.946279
100 1 -1.1104 9.54065 11.2188 3.8209
265 1 -1.1104 9.57907 5.50788 6.14707
262 1 -1.1104 12.1439 5.56992 6.58629
329 2 2.2208 10.8191 6.96261 -0.357077
89 1 -1.1104 12.3519 11.1011 6.56923
231 1 -1.1104 6.54166 8.18131 6.72233
101 2 2.2208 13.7409 12.4695 2.3474
103 2 2.2208 5.39934 18.13 5.38123
104 1 -1.1104 1.20666 13.8419 1.14477
106 1 -1.1104 1.14234 19.5191 1.11775
110 1 -1.1104 0.966203 13.8339 4.0231
111 1 -1.1104 1.07728 19.4259 3.8921
113 1 -1.1104 1.14161 16.7243 1.11513
116 2 2.2208 5.34473 15.4143 2.60787
117 2 2.2208 5.19586 21.0057 2.42516
118 1 -1.1104 1.15902 16.6148 3.92893
120 1 -1.1104 3.71694 14.0372 1.34036
122 1 -1.1104 3.90985 19.4743 1.07352
124 2 2.2208 2.71769 17.9852 2.46324
125 1 -1.1104 4.00301 13.8171 3.96294
126 1 -1.1104 3.95024 19.6453 3.81003
127 2 2.2208 2.38267 15.2786 5.42856
128 2 2.2208 2.44405 20.9357 5.21801
129 1 -1.1104 4.05005 16.6738 1.13155
131 1 -1.1104 3.93195 16.7086 4.00389
123 1 -1.1104 3.84793 19.4824 6.70635
114 1 -1.1104 1.08484 16.7168 6.82902
298 1 -1.1104 1.06913 19.4296 6.68871
133 2 2.2208 -0.359885 20.8683 2.44855
134 2 2.2208 -0.185322 18.06 5.32558
675 2 2.2208 -0.232368 18.1295 -0.187336
132 2 2.2208 -0.305974 15.302 2.54404
671 2 2.2208 2.47669 21.0723 -0.27953
673 2 2.2208 2.44522 15.2551 -0.384735
672 2 2.2208 5.2995 18.1852 -0.274908
137 1 -1.1104 6.69143 16.6822 1.06107
119 1 -1.1104 6.89144 16.7503 4.0471
112 1 -1.1104 6.5853 13.9074 3.89585
115 1 -1.1104 6.58973 16.8057 6.82211
107 1 -1.1104 6.63225 13.9139 1.2802
135 1 -1.1104 6.80442 19.6115 1.1762
136 1 -1.1104 6.65473 19.456 3.91225
138 2 2.2208 10.8063 18.1196 5.29091
139 1 -1.1104 12.423 14.0149 1.07893
141 1 -1.1104 12.2266 19.4417 1.00679
143 1 -1.1104 12.3362 14.0016 3.79155
144 1 -1.1104 12.3445 19.6186 3.85384
145 1 -1.1104 12.2529 16.7856 1.20939
147 2 2.2208 10.9595 15.272 2.55216
148 2 2.2208 10.8318 20.8908 2.51225
149 1 -1.1104 12.2049 16.7896 4.00654
150 1 -1.1104 9.56081 13.9658 0.984867
152 1 -1.1104 9.55999 19.3674 1.14006
154 2 2.2208 8.13714 18.1037 2.51799
155 1 -1.1104 9.29795 13.8653 3.97115
156 1 -1.1104 9.33092 19.5428 3.98676
157 2 2.2208 8.0699 15.3551 5.51572
158 2 2.2208 7.98206 21.0044 5.26041
159 1 -1.1104 9.48494 16.6975 1.21343
161 1 -1.1104 9.54572 16.6874 4.08953
153 1 -1.1104 9.41798 19.5067 6.67825
140 1 -1.1104 12.5339 13.8081 6.68251
151 1 -1.1104 9.53784 13.9859 6.76534
142 1 -1.1104 12.2735 19.5639 6.69923
370 2 2.2208 13.7354 15.2949 -0.305776
326 2 2.2208 8.01805 15.3761 -0.411488
564 2 2.2208 10.8947 18.0067 -0.130971
8522 2 2.2208 5.20105 -4.33529 10.896
170 1 -1.1104 3.66159 2.62598 6.69119
169 1 -1.1104 3.82451 -2.96239 6.54733
167 1 -1.1104 1.04344 -0.0613381 6.79049
173 2 2.2208 5.17016 1.16976 10.8073
174 1 -1.1104 0.962095 -2.4781 12.2806
175 1 -1.1104 0.831126 2.97461 11.9514
178 1 -1.1104 1.1322 -2.89435 9.47188
179 1 -1.1104 0.970587 2.7023 9.23341
183 2 2.2208 5.30107 -1.75076 7.96989
184 2 2.2208 5.13861 4.11268 8.05974
185 1 -1.1104 1.1061 -0.0526307 9.70393
187 1 -1.1104 3.74546 -2.8199 12.2758
188 1 -1.1104 3.7948 2.81405 12.1816
189 2 2.2208 2.38312 1.24357 8.04583
190 1 -1.1104 3.90458 -2.976 9.33465
191 1 -1.1104 3.84581 2.58985 9.48884
192 2 2.2208 2.62711 -1.50242 10.797
193 2 2.2208 2.43463 4.19044 10.7947
194 1 -1.1104 4.08242 -0.18947 12.0731
195 1 -1.1104 3.92385 -0.321916 9.38099
180 1 -1.1104 6.55537 -2.86047 9.44117
316 2 2.2208 5.39493 -1.47969 13.6135
9217 2 2.2208 -0.389757 1.49465 10.8052
9215 2 2.2208 -0.360883 4.1693 8.00632
9216 2 2.2208 -0.329362 -1.38208 8.05378
371 2 2.2208 2.35753 -4.22295 13.7024
373 2 2.2208 5.10251 4.03626 13.6271
322 2 2.2208 -0.283121 4.12117 13.6347
8523 2 2.2208 8.11221 -4.35874 8.09165
186 1 -1.1104 6.63835 -0.157166 9.46082
176 1 -1.1104 6.61269 -2.96145 12.2764
182 1 -1.1104 6.81165 -0.233146 12.3547
206 1 -1.1104 9.55278 -0.209409 6.58697
181 1 -1.1104 6.72405 2.48594 9.48936
177 1 -1.1104 6.85817 2.64243 12.0825
208 2 2.2208 10.9629 1.25047 10.8135
209 1 -1.1104 12.2055 -2.85363 12.2325
210 1 -1.1104 12.2811 2.68753 12.2193
211 1 -1.1104 12.283 -2.9342 9.35218
212 1 -1.1104 12.4472 2.73622 9.47282
213 1 -1.1104 12.2837 -0.104419 12.1516
214 2 2.2208 10.8896 -1.58093 7.90669
215 2 2.2208 10.9747 4.0741 8.08096
216 1 -1.1104 12.2101 -0.130529 9.40105
217 1 -1.1104 9.42141 -2.952 12.1344
218 1 -1.1104 9.60795 2.74643 12.2844
219 2 2.2208 7.99498 1.14681 8.00898
220 1 -1.1104 9.41303 -2.9636 9.38476
221 1 -1.1104 9.55107 2.67227 9.39403
222 2 2.2208 8.16155 -1.51821 10.7708
223 2 2.2208 8.1218 4.04123 10.7268
224 1 -1.1104 9.55071 0.0220559 12.2691
225 1 -1.1104 9.48718 -0.160816 9.3202
405 2 2.2208 10.7282 -1.46225 13.5977
317 2 2.2208 8.19165 1.35655 13.5969
318 2 2.2208 10.8799 4.15965 13.6021
591 2 2.2208 -0.4187 9.83622 13.7414
62 1 -1.1104 0.979239 11.1739 6.49063
229 2 2.2208 -0.346041 12.5615 10.9479
228 2 2.2208 -0.392336 9.72665 8.06222
200 2 2.2208 -0.381273 6.87045 10.7749
236 2 2.2208 5.17092 6.89238 10.8672
237 2 2.2208 5.10208 12.4377 10.9742
238 1 -1.1104 0.925928 8.3832 12.1243
240 1 -1.1104 0.909963 8.36033 9.45391
242 1 -1.1104 1.19604 5.72379 12.2618
243 1 -1.1104 1.12893 11.0782 12.3167
246 2 2.2208 5.24874 9.73839 7.97502
247 1 -1.1104 1.01393 5.47808 9.45338
248 1 -1.1104 1.07281 11.0141 9.44715
251 1 -1.1104 3.76417 8.35577 12.3126
252 2 2.2208 2.45115 6.90567 8.03176
253 2 2.2208 2.37074 12.5303 8.00175
254 1 -1.1104 3.75806 8.30087 9.55906
255 2 2.2208 2.40332 9.68703 10.8513
256 1 -1.1104 3.90956 5.50092 12.2241
257 1 -1.1104 3.80928 11.0992 12.4355
258 1 -1.1104 3.74839 5.5138 9.33461
259 1 -1.1104 3.81901 11.0683 9.54897
244 1 -1.1104 6.75789 5.32259 12.121
442 2 2.2208 2.43976 6.89936 13.6577
441 2 2.2208 5.3319 9.61824 13.7132
64 1 -1.1104 6.87037 11.1248 6.51838
245 1 -1.1104 6.51597 11.0451 12.3176
250 1 -1.1104 6.63889 11.0702 9.69098
241 1 -1.1104 6.65696 8.37174 9.40615
239 1 -1.1104 6.62696 8.23285 12.2241
249 1 -1.1104 6.59696 5.41604 9.46148
99 1 -1.1104 9.56708 11.0203 6.59522
261 1 -1.1104 12.2693 8.31296 6.68837
263 1 -1.1104 9.30106 8.19289 6.58643
260 1 -1.1104 9.39923 10.9936 9.43394
264 1 -1.1104 9.41465 5.50868 9.184
266 1 -1.1104 9.42988 11.0932 12.2864
267 1 -1.1104 9.43308 5.48193 12.2232
268 2 2.2208 7.98579 9.68471 10.8289
269 1 -1.1104 9.48245 8.28992 9.47318
270 2 2.2208 8.12567 12.4076 8.01841
271 2 2.2208 7.96418 6.94172 8.0755
272 2 2.2208 10.9275 6.95847 10.7829
273 2 2.2208 10.8816 12.4046 10.8116
274 1 -1.1104 12.1281 8.26669 12.1293
275 1 -1.1104 12.3166 8.30823 9.31263
276 1 -1.1104 12.3601 5.53678 12.241
277 1 -1.1104 12.2206 11.1043 12.2884
278 2 2.2208 10.8973 9.76007 8.05315
279 1 -1.1104 12.1719 5.44671 9.47601
280 1 -1.1104 12.2727 11.2067 9.44457
281 1 -1.1104 9.36523 8.30272 12.2163
468 2 2.2208 10.7543 9.67954 13.6681
9110 2 2.2208 -0.379622 18.0741 10.9818
309 2 2.2208 -0.469634 15.2113 8.08532
105 1 -1.1104 0.880527 13.894 6.80729
121 1 -1.1104 3.83984 13.8905 6.72802
130 1 -1.1104 3.80247 16.5673 6.68847
282 1 -1.1104 3.76286 19.5096 12.3011
283 1 -1.1104 3.81748 14.0406 12.3208
287 1 -1.1104 1.10624 19.4567 9.55843
288 1 -1.1104 0.975135 16.7848 9.5674
289 2 2.2208 5.23981 20.8728 8.12221
290 1 -1.1104 1.01006 13.9024 9.57132
291 2 2.2208 5.25688 15.4055 8.29135
294 1 -1.1104 0.939425 19.4335 12.5132
295 1 -1.1104 1.07539 13.9267 12.2853
296 2 2.2208 5.14405 18.0298 11.0575
297 1 -1.1104 3.88526 19.6423 9.49412
299 2 2.2208 2.39582 18.2201 8.19501
300 1 -1.1104 3.81349 16.7396 9.71616
301 1 -1.1104 3.7687 13.8337 9.61118
303 1 -1.1104 1.22742 16.7173 12.4044
304 1 -1.1104 3.91937 16.6901 12.6371
305 2 2.2208 2.44034 20.9998 10.9864
306 2 2.2208 2.43938 15.2775 10.9716
321 2 2.2208 2.35964 18.2801 13.7752
292 1 -1.1104 6.66223 19.4181 12.6536
323 2 2.2208 5.05503 20.9711 13.6755
284 1 -1.1104 6.61624 19.2943 9.60154
9445 2 2.2208 -0.437601 21.0361 13.8311
400 2 2.2208 -0.341949 15.2638 13.8161
503 2 2.2208 13.6184 17.8556 13.5587
324 2 2.2208 8.10205 17.9368 13.7407
312 2 2.2208 7.99297 20.7378 10.9606
197 2 2.2208 10.893 20.7878 8.12313
81 1 -1.1104 12.26 16.4948 12.2549
108 1 -1.1104 6.64833 13.8057 6.66026
199 2 2.2208 13.5639 20.7728 10.8589
26 1 -1.1104 12.2566 13.7887 12.2857
307 1 -1.1104 9.36497 13.9409 9.49272
109 1 -1.1104 6.54128 19.587 6.8388
198 1 -1.1104 12.3998 16.5931 9.28725
226 1 -1.1104 9.42293 19.318 12.3042
313 2 2.2208 8.00156 15.199 11.0039
25 2 2.2208 10.817 18.1138 10.8232
286 1 -1.1104 6.54086 13.7616 9.4812
293 1 -1.1104 6.58913 13.9397 12.4447
50 1 -1.1104 12.1795 13.9035 9.48886
310 1 -1.1104 9.53457 16.6897 9.60232
308 1 -1.1104 9.43378 19.5069 9.53777
302 1 -1.1104 6.60646 16.6538 12.3337
27 1 -1.1104 12.2568 19.4313 12.2689
207 1 -1.1104 9.60359 13.7106 12.3754
160 1 -1.1104 9.46231 16.8191 6.88513
146 1 -1.1104 12.378 16.6562 6.721
196 2 2.2208 10.8606 15.3592 8.13492
285 1 -1.1104 6.68322 16.5674 9.57955
311 1 -1.1104 9.47221 16.5886 12.4005
80 1 -1.1104 12.1154 19.4626 9.4941
227 2 2.2208 8.09638 18.0715 8.20448
333 2 2.2208 5.38097 1.41299 16.5281
334 1 -1.1104 1.04725 -2.97448 17.8224
335 1 -1.1104 1.19056 2.70506 17.879
338 1 -1.1104 0.989697 -3.16412 15.1193
340 1 -1.1104 0.910094 2.91244 15.2435
346 1 -1.1104 0.946858 -0.0754385 18.0405
348 2 2.2208 5.10857 -1.64753 19.2466
349 2 2.2208 5.19824 4.0119 19.3557
350 1 -1.1104 0.849697 -0.331948 15.095
354 1 -1.1104 3.69583 -3.14445 17.9581
355 1 -1.1104 3.88347 2.81969 17.789
356 2 2.2208 2.47667 1.28527 19.1021
357 1 -1.1104 3.9106 -2.51871 15.0448
359 1 -1.1104 3.96677 2.77818 15.1538
361 2 2.2208 2.28514 -1.58773 16.5667
362 2 2.2208 2.4215 4.12082 16.4313
363 1 -1.1104 3.86995 -0.156311 17.6237
352 1 -1.1104 6.40451 -0.0899572 15.2266
364 1 -1.1104 3.74667 -0.262093 20.4991
358 1 -1.1104 3.74822 -2.94382 20.7263
339 1 -1.1104 1.09753 -3.01365 20.5412
366 2 2.2208 5.17767 -4.36398 16.4884
351 1 -1.1104 0.976607 -0.340848 20.7648
341 1 -1.1104 1.08969 2.48999 20.6113
353 1 -1.1104 6.49736 -0.189143 20.6957
368 2 2.2208 -0.383919 1.28112 16.5073
9406 2 2.2208 -0.45772 -1.58489 19.2491
342 1 -1.1104 6.80858 -2.81976 14.9958
336 1 -1.1104 6.62948 -2.92057 17.827
347 1 -1.1104 6.67302 -0.101066 17.9131
337 1 -1.1104 6.73152 2.78379 17.9047
344 1 -1.1104 6.63779 2.7069 14.9432
374 2 2.2208 11.0673 1.37714 16.5388
375 1 -1.1104 12.1791 -2.91332 17.6345
376 1 -1.1104 12.4921 2.5899 17.844
377 1 -1.1104 12.2054 -2.88093 14.9199
379 1 -1.1104 12.2817 2.6501 15.0848
381 1 -1.1104 12.2886 -0.223947 17.8435
382 2 2.2208 10.8241 -1.59788 19.2313
383 2 2.2208 10.9345 3.96711 19.1506
384 1 -1.1104 12.0224 -0.14895 15.1361
386 1 -1.1104 9.34825 -3.06831 17.8507
387 1 -1.1104 9.51416 2.81177 17.8835
388 2 2.2208 8.08482 1.22016 19.1866
389 1 -1.1104 9.4496 -2.98903 15.0374
391 1 -1.1104 9.50775 2.73857 15.2298
393 2 2.2208 8.07048 -1.52079 16.4911
395 1 -1.1104 9.4264 0.010098 17.8166
396 1 -1.1104 9.30814 -0.262764 15.063
394 2 2.2208 8.14524 4.13756 16.4601
8758 2 2.2208 7.91237 -4.35088 19.3592
385 1 -1.1104 12.418 -0.168596 20.6764
343 1 -1.1104 6.56706 -3.03714 20.6368
397 1 -1.1104 9.57355 -0.0807423 20.4944
378 1 -1.1104 12.302 -2.98211 20.676
399 2 2.2208 10.7711 -4.42013 16.6018
8529 2 2.2208 8.15524 -4.4092 13.6161
380 1 -1.1104 12.3891 2.67118 20.5783
9262 2 2.2208 13.8051 1.19669 19.2538
407 2 2.2208 5.30448 6.80484 16.5835
408 2 2.2208 5.21672 12.343 16.5628
409 1 -1.1104 0.870411 8.35268 17.8124
411 1 -1.1104 1.04706 8.41804 15.057
415 1 -1.1104 0.930759 5.5115 18.0088
416 1 -1.1104 0.897242 10.9933 18.0737
419 2 2.2208 5.0653 9.72997 19.2634
420 1 -1.1104 0.948519 5.64622 14.9962
422 1 -1.1104 1.07581 11.1927 15.2416
428 1 -1.1104 3.82765 8.21097 18.0204
429 2 2.2208 2.32058 6.75878 19.3205
430 2 2.2208 2.35339 12.4292 19.3884
431 1 -1.1104 3.90201 8.23703 15.1885
433 2 2.2208 2.44268 9.67739 16.5373
434 1 -1.1104 3.83161 5.44751 17.9573
435 1 -1.1104 3.76618 10.9617 17.9735
436 1 -1.1104 3.79923 5.54294 15.1337
438 1 -1.1104 3.89699 11.0592 15.1425
413 1 -1.1104 6.74353 8.22625 15.0378
424 1 -1.1104 6.64123 5.56875 14.9692
432 1 -1.1104 3.78647 8.27317 20.7077
414 1 -1.1104 6.66654 8.24516 20.5908
439 1 -1.1104 3.73719 11.059 20.6189
437 1 -1.1104 3.73162 5.38216 20.7593
412 1 -1.1104 1.09804 8.11317 20.7816
421 1 -1.1104 1.03191 5.39517 20.8163
423 1 -1.1104 0.817363 11.0177 21.2745
404 2 2.2208 -0.410986 9.66269 19.4296
440 2 2.2208 2.48064 12.5656 13.7848
319 2 2.2208 7.98276 6.82709 13.4988
418 1 -1.1104 6.55877 11.0383 17.8972
426 1 -1.1104 6.72762 11.1246 15.0279
410 1 -1.1104 6.59556 8.36087 17.9558
417 1 -1.1104 6.76045 5.52322 17.805
444 2 2.2208 10.946 6.90643 16.4054
445 2 2.2208 10.6795 12.4407 16.5742
446 1 -1.1104 12.2764 8.21456 17.8194
447 1 -1.1104 12.2519 8.19561 14.9209
449 1 -1.1104 12.3168 5.44704 17.805
450 1 -1.1104 12.284 11.06 17.836
451 2 2.2208 10.9414 9.65751 19.1483
452 1 -1.1104 12.1631 5.38235 15.101
454 1 -1.1104 12.2051 11.0385 15.069
456 1 -1.1104 9.39633 8.2653 17.757
457 2 2.2208 8.05729 6.96523 19.3088
458 2 2.2208 7.86419 12.4864 19.4208
459 1 -1.1104 9.46266 8.28602 14.958
461 2 2.2208 8.0786 9.56361 16.4546
462 1 -1.1104 9.58032 5.66418 17.778
463 1 -1.1104 9.32432 11.0736 17.8302
464 1 -1.1104 9.46758 5.53966 15.0006
466 1 -1.1104 9.44963 11.0684 15.1575
467 1 -1.1104 9.42273 11.0841 20.7208
448 1 -1.1104 12.4098 8.17854 20.6328
453 1 -1.1104 12.3827 5.33211 20.5936
425 1 -1.1104 6.58008 5.43848 20.6042
465 1 -1.1104 9.41807 5.51594 20.5388
460 1 -1.1104 9.42563 8.42837 20.4942
443 2 2.2208 7.99046 12.4166 13.6735
470 1 -1.1104 0.902553 13.6964 17.844
471 1 -1.1104 0.922253 19.4063 17.9407
474 1 -1.1104 1.03009 13.956 15.0483
476 1 -1.1104 1.12947 19.521 15.0215
482 1 -1.1104 0.863754 16.5444 17.8763
484 2 2.2208 5.02028 15.3091 19.4178
485 2 2.2208 5.25571 20.9553 19.4029
486 1 -1.1104 1.20925 16.7205 15.0914
490 1 -1.1104 3.61512 13.6663 17.8499
491 1 -1.1104 3.64079 19.7005 18.2212
492 2 2.2208 2.44217 18.0287 19.3784
493 1 -1.1104 3.80159 14.0063 15.0829
495 1 -1.1104 3.96654 19.3746 14.9569
497 2 2.2208 2.33449 15.0685 16.6165
498 2 2.2208 2.66578 20.904 16.4597
499 1 -1.1104 3.67065 16.3187 18.0121
494 1 -1.1104 3.81379 13.8108 20.7119
589 2 2.2208 -0.223733 20.8724 19.3176
477 1 -1.1104 1.04562 19.4713 20.6618
401 2 2.2208 -0.411265 18.1128 16.6201
320 2 2.2208 5.40027 15.2491 13.8399
530 2 2.2208 10.9168 15.2283 13.6956
472 1 -1.1104 6.40074 13.8705 17.9609
478 1 -1.1104 6.58491 13.8311 15.2836
510 1 -1.1104 12.4763 19.4263 20.6803
488 1 -1.1104 6.7534 16.6331 15.1351
473 1 -1.1104 6.77557 19.8957 18.1505
483 1 -1.1104 6.85554 16.6819 18.2513
504 2 2.2208 10.7853 18.0532 16.5866
505 1 -1.1104 12.1197 13.8258 17.9813
506 1 -1.1104 12.5348 19.4905 17.8844
507 1 -1.1104 12.3052 13.8559 15.1739
509 1 -1.1104 12.2193 19.3904 15.1599
511 1 -1.1104 12.2333 16.5989 17.9586
512 2 2.2208 10.893 15.1617 19.3548
513 2 2.2208 10.9225 20.91 19.4165
514 1 -1.1104 12.2253 16.5585 15.0906
516 1 -1.1104 9.38441 14.0337 18.0016
517 1 -1.1104 9.5531 19.5636 17.986
518 2 2.2208 8.0778 18.1 19.4096
519 1 -1.1104 9.36195 13.7779 15.1747
521 1 -1.1104 9.25295 19.3876 15.2501
523 2 2.2208 7.96959 15.3483 16.7433
524 2 2.2208 8.20111 21.0063 16.8452
525 1 -1.1104 9.51954 16.7271 18.1421
526 1 -1.1104 9.53922 16.7591 15.1402
508 1 -1.1104 12.4144 13.7776 20.8058
529 2 2.2208 10.9161 20.8308 13.6909
515 1 -1.1104 12.2527 16.6129 20.776
590 2 2.2208 13.689 20.8033 16.445
560 2 2.2208 5.30578 -4.34908 27.7514
562 2 2.2208 2.49236 -4.18019 24.7431
561 2 2.2208 5.24886 -4.31651 22.1334
9254 2 2.2208 -0.395247 -1.66901 24.7687
9473 2 2.2208 -0.336581 4.05592 24.8132
17560 2 2.2208 -0.371818 -4.42397 21.9908
360 1 -1.1104 3.83359 2.5824 20.6645
531 2 2.2208 5.2731 1.19215 22.0776
532 1 -1.1104 1.02874 -2.84635 23.503
533 1 -1.1104 1.09623 2.66756 23.3773
536 1 -1.1104 1.05298 -2.8539 26.342
537 1 -1.1104 1.08051 2.78123 26.3953
540 1 -1.1104 1.0769 -0.167709 23.6422
542 2 2.2208 5.28083 -1.4675 24.9443
543 2 2.2208 5.19867 4.12642 24.8541
544 1 -1.1104 1.04809 -0.0461475 26.3551
546 1 -1.1104 3.77676 -2.84729 23.3949
547 1 -1.1104 3.91696 2.69472 23.5278
548 2 2.2208 2.49685 1.28467 24.9595
549 1 -1.1104 3.86437 -2.85271 26.319
550 1 -1.1104 3.88375 2.73315 26.1884
551 2 2.2208 2.4358 -1.46048 22.1284
552 2 2.2208 2.46969 4.02972 22.119
553 1 -1.1104 3.90584 -0.134259 23.6165
554 1 -1.1104 3.97547 -0.0226016 26.3338
541 1 -1.1104 6.78612 -0.0772955 23.4512
345 1 -1.1104 6.72968 2.6524 20.6517
9471 2 2.2208 -0.366961 1.25751 21.926
325 2 2.2208 2.49664 4.15352 27.8775
8707 2 2.2208 8.03309 -4.28549 24.8318
8757 2 2.2208 10.8988 -4.33424 22.2668
390 1 -1.1104 9.35874 -3.06074 20.7165
534 1 -1.1104 6.56416 -2.92215 23.2998
538 1 -1.1104 6.6369 -2.96877 26.1864
535 1 -1.1104 6.75341 2.62184 23.3381
8528 2 2.2208 10.8619 -4.26431 27.6017
545 1 -1.1104 6.82759 -0.124387 26.1697
392 1 -1.1104 9.43891 2.66632 20.5216
539 1 -1.1104 6.7569 2.77987 26.1355
567 2 2.2208 10.8701 1.21673 21.9444
568 1 -1.1104 12.1883 -2.95513 23.4931
569 1 -1.1104 12.2489 2.65606 23.2534
570 1 -1.1104 12.4449 -3.04986 26.2506
571 1 -1.1104 12.3721 2.59436 26.3817
572 1 -1.1104 12.2384 -0.174391 23.4996
573 2 2.2208 10.8573 -1.45586 24.9405
574 2 2.2208 10.7954 4.28255 24.6993
575 1 -1.1104 12.426 -0.294458 26.3484
576 1 -1.1104 9.36605 -2.75976 23.4706
577 1 -1.1104 9.45967 2.65335 23.4396
578 2 2.2208 8.15336 1.31811 24.8891
579 1 -1.1104 9.46361 -2.78454 26.3074
580 1 -1.1104 9.60264 2.65565 26.3195
581 2 2.2208 8.03108 -1.4476 21.9695
582 2 2.2208 8.02869 4.08521 21.9624
583 1 -1.1104 9.52765 0.0196927 23.4219
584 1 -1.1104 9.4844 -0.154917 26.2947
9297 2 2.2208 13.6096 1.29499 24.7816
9446 2 2.2208 13.8276 -1.4934 27.7084
9298 2 2.2208 13.7553 -1.57296 21.9024
586 2 2.2208 8.18708 -1.50785 27.5815
620 2 2.2208 -0.272097 12.4588 27.6595
596 2 2.2208 5.22589 6.87145 21.9609
597 2 2.2208 5.24758 12.5606 22.2018
598 1 -1.1104 0.877743 8.48721 23.5704
600 1 -1.1104 0.889101 8.11981 26.3422
602 1 -1.1104 0.961378 5.61344 23.704
605 2 2.2208 5.38071 9.72426 24.6853
606 1 -1.1104 1.02221 5.42429 26.4013
607 1 -1.1104 0.905953 10.9257 26.2101
610 1 -1.1104 3.72276 8.22068 23.5952
611 2 2.2208 2.31841 6.9257 25.0252
612 1 -1.1104 3.77695 8.44809 26.3681
613 2 2.2208 2.51481 9.67656 22.2103
614 1 -1.1104 3.78619 5.51893 23.4139
615 1 -1.1104 4.02346 11.1358 23.469
616 1 -1.1104 3.81396 5.62092 26.3017
609 1 -1.1104 6.34125 11.203 26.1874
617 2 2.2208 5.29222 7.1149 27.6446
599 1 -1.1104 6.57514 8.26289 23.2937
604 1 -1.1104 6.64173 11.1014 23.574
9221 2 2.2208 -0.462071 6.75495 27.69
327 2 2.2208 2.36724 9.63541 27.7158
455 1 -1.1104 12.1564 11.1698 20.645
427 1 -1.1104 6.66669 11.0502 20.7517
601 1 -1.1104 6.59966 8.43894 26.0971
603 1 -1.1104 6.69358 5.49312 23.541
608 1 -1.1104 6.61589 5.5684 26.5449
624 1 -1.1104 9.24935 11.0547 26.2438
625 1 -1.1104 9.21459 5.56734 26.2764
626 1 -1.1104 9.42813 11.083 23.3994
627 1 -1.1104 9.43753 5.64414 23.5213
628 2 2.2208 8.10099 9.75329 21.9724
629 1 -1.1104 9.43216 8.26918 26.1552
630 2 2.2208 7.94475 12.569 24.9549
631 2 2.2208 7.92708 7.04721 24.8292
632 2 2.2208 10.8352 6.93101 22.0347
633 2 2.2208 10.7956 12.5135 22.0865
634 1 -1.1104 12.0789 8.22988 23.5642
635 1 -1.1104 12.2437 8.25392 26.3586
636 1 -1.1104 12.1457 5.51358 23.3886
637 1 -1.1104 12.204 11.0977 23.5319
638 2 2.2208 10.73 9.69639 24.9807
639 1 -1.1104 12.1667 5.34495 26.096
640 1 -1.1104 12.2011 11.0996 26.2221
641 1 -1.1104 9.3015 8.34726 23.3987
647 2 2.2208 13.6351 6.83176 24.8349
645 2 2.2208 13.6841 12.4635 24.8886
330 2 2.2208 8.01184 9.74852 27.8195
677 2 2.2208 -0.301044 18.1194 22.0957
475 1 -1.1104 1.01322 13.8384 20.6376
496 1 -1.1104 3.92062 19.3953 20.8994
658 1 -1.1104 6.67752 13.8774 23.5935
666 1 -1.1104 6.71531 16.7501 23.6289
500 1 -1.1104 3.83086 16.637 20.9856
487 1 -1.1104 1.03804 16.6388 20.6745
648 1 -1.1104 3.79439 19.4035 23.7387
650 1 -1.1104 4.02436 14.1433 23.3894
652 1 -1.1104 1.11009 19.6488 26.4464
653 1 -1.1104 1.09404 16.8083 26.4607
654 1 -1.1104 0.891482 14.0136 26.526
656 2 2.2208 5.32252 20.892 24.9049
657 2 2.2208 5.31202 15.3662 25.0528
659 1 -1.1104 1.10134 19.5065 23.6536
660 1 -1.1104 0.740926 13.8997 23.4994
661 2 2.2208 5.25516 18.0355 22.3441
662 1 -1.1104 4.06278 19.6126 26.352
663 2 2.2208 2.4408 18.0894 25.0155
664 1 -1.1104 3.91701 16.8399 26.4697
665 1 -1.1104 4.06633 14.0563 26.5773
667 1 -1.1104 1.01069 16.7305 23.4801
668 1 -1.1104 3.83624 16.7784 23.7995
669 2 2.2208 2.60803 20.8059 22.2312
670 2 2.2208 2.42244 15.1955 22.285
651 1 -1.1104 6.70816 16.7129 26.3215
559 1 -1.1104 6.81981 19.5022 26.3354
674 2 2.2208 -0.334536 15.3365 25.0014
565 2 2.2208 8.10769 20.9072 27.7345
621 2 2.2208 10.8347 15.3179 24.9656
479 1 -1.1104 6.49728 13.8718 20.7403
489 1 -1.1104 6.84218 16.7309 20.8431
593 1 -1.1104 12.2721 14.0365 26.515
527 1 -1.1104 9.49783 16.4605 20.8184
520 1 -1.1104 9.38446 13.8627 20.7765
655 1 -1.1104 6.59409 19.5348 23.4842
588 1 -1.1104 12.3194 13.8554 23.6414
642 2 2.2208 8.05087 15.2966 22.2231
649 1 -1.1104 6.69871 13.8188 26.4646
643 2 2.2208 8.11961 20.9899 22.1108
557 2 2.2208 8.19706 18.1679 24.8772
623 1 -1.1104 12.3292 16.8846 26.3224
481 1 -1.1104 6.77932 19.5075 20.9165
619 1 -1.1104 9.43972 19.7315 26.3881
646 1 -1.1104 9.6203 16.7783 26.4901
622 2 2.2208 10.9712 20.9034 24.8652
618 1 -1.1104 9.34275 13.9344 26.306
566 2 2.2208 10.9505 18.0264 22.0689
592 1 -1.1104 12.3705 19.4428 23.356
595 1 -1.1104 12.1702 16.701 23.7257
502 1 -1.1104 9.46819 13.9996 23.5222
644 1 -1.1104 9.4979 16.7664 23.6286
594 1 -1.1104 12.2128 19.5513 26.3105
522 1 -1.1104 9.58126 19.3794 20.8352
528 1 -1.1104 9.53586 19.5405 23.4824
678 2 2.2208 5.30345 23.7341 5.29974
679 2 2.2208 5.27627 29.2606 5.3578
680 1 -1.1104 1.17252 25.1862 1.04314
681 1 -1.1104 0.951281 25.1234 3.88952
682 1 -1.1104 1.01869 22.3465 1.01023
683 1 -1.1104 1.05309 27.9466 0.914786
684 2 2.2208 5.29744 26.3803 2.32859
685 1 -1.1104 1.13671 22.3148 3.78304
686 1 -1.1104 0.692025 27.912 3.61146
687 1 -1.1104 3.87487 25.0169 1.04189
688 2 2.2208 2.49238 23.8418 2.5275
689 2 2.2208 2.49648 29.2568 2.40747
690 1 -1.1104 3.81132 25.0884 3.85976
691 2 2.2208 2.37402 26.4065 5.30306
692 1 -1.1104 3.85651 22.3895 1.0982
693 1 -1.1104 4.05428 27.8319 0.836487
694 1 -1.1104 3.89052 22.4472 4.02671
695 1 -1.1104 3.68845 27.9312 3.75881
696 2 2.2208 -0.105571 29.4442 5.10778
699 1 -1.1104 6.68786 25.0481 1.06242
9746 1 -1.1104 0.531236 27.7088 6.33141
822 1 -1.1104 6.58063 22.2721 6.64478
821 1 -1.1104 0.89304 22.2492 6.60009
704 1 -1.1104 6.69752 27.9791 3.97532
702 1 -1.1104 6.79636 27.8107 1.1899
826 1 -1.1104 3.85077 27.6702 6.58061
9884 2 2.2208 -0.427848 23.8121 5.27721
1229 2 2.2208 5.23287 23.7327 -0.372804
700 1 -1.1104 6.65078 25.0291 3.71748
703 1 -1.1104 6.68123 22.3604 3.98455
701 1 -1.1104 6.61937 22.4226 1.10047
705 2 2.2208 10.8125 23.477 5.30882
706 2 2.2208 10.9062 29.284 5.34143
707 1 -1.1104 12.3379 24.9298 1.13555
708 1 -1.1104 12.2844 25.1096 3.89443
709 1 -1.1104 12.246 22.1658 0.887263
710 1 -1.1104 12.3549 27.7315 1.0284
711 2 2.2208 10.957 26.4797 2.46529
712 1 -1.1104 12.0714 22.4259 3.90204
713 1 -1.1104 12.3393 27.8998 3.99351
714 1 -1.1104 9.48184 25.1931 1.07743
715 2 2.2208 8.0592 23.6775 2.4882
716 2 2.2208 8.15852 29.4428 2.57312
717 1 -1.1104 9.3691 25.0041 3.92462
718 2 2.2208 8.06052 26.5153 5.10208
719 1 -1.1104 9.50632 22.2228 1.09035
720 1 -1.1104 9.51536 27.9885 1.10012
721 1 -1.1104 9.42537 22.1885 3.94379
722 1 -1.1104 9.61867 27.9931 4.01565
1259 2 2.2208 10.9198 23.6826 -0.388903
1008 2 2.2208 11.0168 29.3198 -0.451161
1260 2 2.2208 8.21806 26.6746 -0.348861
849 1 -1.1104 12.2858 25.1043 6.66562
820 1 -1.1104 6.66924 25.1201 6.44388
853 1 -1.1104 9.44591 22.1634 6.73636
9887 2 2.2208 13.5981 29.2093 2.56767
9888 2 2.2208 13.7823 26.5034 5.40694
1261 2 2.2208 13.8072 26.4476 -0.26883
727 2 2.2208 5.38922 34.9077 5.36848
728 1 -1.1104 1.05993 30.7744 0.952686
729 1 -1.1104 1.15924 36.262 1.15378
731 1 -1.1104 1.12846 30.7337 3.57215
732 1 -1.1104 0.997008 36.2532 3.93573
734 1 -1.1104 1.14675 33.555 1.19177
735 2 2.2208 5.28195 32.1865 2.49424
736 2 2.2208 5.35915 37.7301 2.48422
737 1 -1.1104 0.92747 33.5053 4.07995
739 1 -1.1104 3.74934 30.792 0.942619
740 1 -1.1104 3.88365 36.2038 1.17505
741 2 2.2208 2.47269 34.8675 2.66117
742 1 -1.1104 3.79933 30.7595 3.64636
743 1 -1.1104 3.98942 36.3949 3.91197
744 2 2.2208 2.54723 32.2037 5.36608
745 2 2.2208 2.54639 37.7989 5.29807
746 1 -1.1104 3.84545 33.5621 1.1287
747 1 -1.1104 3.72461 33.5059 3.89674
879 1 -1.1104 4.16579 30.9494 6.41744
873 1 -1.1104 0.782065 31.061 6.44911
1009 2 2.2208 2.57129 37.7056 -0.218546
874 1 -1.1104 1.09482 36.4081 6.75565
751 1 -1.1104 6.63716 30.7399 3.90686
877 1 -1.1104 1.08582 33.7417 6.87641
733 1 -1.1104 6.78988 36.2937 3.77025
750 1 -1.1104 6.71773 30.7433 1.14817
752 1 -1.1104 6.67129 33.6366 1.14857
730 1 -1.1104 6.81852 36.2535 0.980019
1010 2 2.2208 5.14722 35.0145 -0.35392
878 1 -1.1104 6.72918 33.5525 6.74705
738 1 -1.1104 6.65675 33.39 4.04852
753 2 2.2208 11.0599 34.893 5.32555
754 1 -1.1104 12.3556 30.5383 0.990987
755 1 -1.1104 12.3907 36.3113 1.03284
756 1 -1.1104 12.1052 30.6489 3.79449
757 1 -1.1104 12.4337 36.2919 4.04283
758 1 -1.1104 12.3903 33.383 1.03452
759 2 2.2208 10.9491 32.113 2.46355
760 2 2.2208 11.0206 37.7536 2.54258
761 1 -1.1104 12.1502 33.5568 3.745
762 1 -1.1104 9.45695 30.6342 1.14383
763 1 -1.1104 9.58802 36.1836 1.07976
764 2 2.2208 8.12268 34.9023 2.42424
765 1 -1.1104 9.35202 30.7819 3.90285
766 1 -1.1104 9.61457 36.3653 3.94645
767 2 2.2208 8.12507 32.0317 5.46707
768 2 2.2208 8.22054 37.6866 5.24222
769 1 -1.1104 9.60762 33.3811 1.07401