ITEM: TIMESTEP
90000
ITEM: NUMBER OF ATOMS
17820
ITEM: BOX BOUNDS pp pp pp
-3.6405522302387960e-01 2.7704055223023534e+01
-4.3552265310460356e+00 3.3243522653105089e+02
-3.6018180348700363e-01 2.7700181803486448e+01
ITEM: ATOMS id type q x y z
1 2 2.2208 5.06625 1.1538 5.26055
2 1 -1.1104 0.884354 -2.904 0.837509
3 1 -1.1104 0.803363 2.63906 0.88358
6 1 -1.1104 0.950008 -2.82512 3.7002
7 1 -1.1104 0.838877 2.56935 3.73874
10 1 -1.1104 0.833754 -0.0171965 0.961198
12 2 2.2208 5.10591 -1.59331 2.3538
13 2 2.2208 5.15516 4.15197 2.55475
14 1 -1.1104 0.985137 -0.129213 3.7529
16 1 -1.1104 3.69815 -3.02666 1.00582
17 1 -1.1104 3.59492 2.67174 1.062
18 2 2.2208 2.2483 1.16043 2.34481
19 1 -1.1104 3.71546 -2.81752 3.83736
20 1 -1.1104 3.75257 2.81709 3.9137
21 2 2.2208 2.26987 -1.55413 5.23794
22 2 2.2208 2.47438 4.09267 5.25338
23 1 -1.1104 3.6522 -0.208211 0.869045
24 1 -1.1104 3.80011 -0.0301873 3.62631
164 1 -1.1104 0.826007 2.63638 6.4602
169 1 -1.1104 3.6236 -2.91349 6.70345
9 1 -1.1104 6.52394 2.44945 3.8321
163 1 -1.1104 1.02154 -2.9926 6.62159
5 1 -1.1104 6.49949 3.04556 0.938235
170 1 -1.1104 3.79133 2.64275 6.68359
8523 2 2.2208 8.0068 -4.30011 7.89508
9210 2 2.2208 -0.482196 -1.50076 2.24439
168 1 -1.1104 6.53606 -0.075738 6.57149
171 1 -1.1104 3.72484 -0.219991 6.60008
9211 2 2.2208 -0.518688 1.17683 5.05746
8521 2 2.2208 2.34873 -4.37801 7.89475
8 1 -1.1104 6.48517 -2.96233 3.74325
4 1 -1.1104 6.64526 -2.96672 0.904458
11 1 -1.1104 6.48259 -0.0535939 0.980135
308 1 -1.1104 9.52671 19.5422 9.36605
15 1 -1.1104 6.50558 -0.141256 3.79674
31 2 2.2208 10.7017 1.37387 5.21285
32 1 -1.1104 12.275 -2.91887 1.05915
33 1 -1.1104 12.1042 2.53629 0.975265
34 1 -1.1104 12.1171 -2.83005 3.80388
35 1 -1.1104 12.1775 2.59706 3.78766
36 1 -1.1104 12.2685 -0.163995 0.737688
37 2 2.2208 10.8431 -1.58731 2.33955
38 2 2.2208 10.8171 3.89481 2.35522
39 1 -1.1104 12.0298 -0.13974 3.88645
40 1 -1.1104 9.44072 -3.01184 1.05528
41 1 -1.1104 9.2794 2.51708 1.03012
42 2 2.2208 7.92712 1.12888 2.42675
43 1 -1.1104 9.28274 -2.73174 3.81851
44 1 -1.1104 9.34819 2.96635 3.90814
45 2 2.2208 7.84453 -1.43051 5.14281
46 2 2.2208 7.77452 3.96029 5.32166
47 1 -1.1104 9.33935 -0.165173 0.938985
48 1 -1.1104 9.29431 0.0885489 3.86234
201 1 -1.1104 12.2204 -2.8175 6.59668
165 1 -1.1104 6.42791 -2.97103 6.4701
202 1 -1.1104 12.2787 2.63838 6.55534
206 1 -1.1104 9.21636 -0.210088 6.64392
53 2 2.2208 10.8308 -4.2169 5.14777
203 1 -1.1104 12.1373 -0.160091 6.5325
204 1 -1.1104 9.25942 -2.88097 6.57525
25 2 2.2208 10.9175 18.1806 10.6618
314 2 2.2208 13.6328 4.11828 5.13484
54 2 2.2208 5.24373 7.08182 5.03819
55 2 2.2208 5.14649 12.3414 5.23928
56 1 -1.1104 0.750555 8.19337 0.966034
58 1 -1.1104 0.9249 8.07792 3.77817
60 1 -1.1104 0.941048 5.42452 0.888608
61 1 -1.1104 0.96738 11.0275 1.05788
65 2 2.2208 5.21359 9.67037 2.26197
66 1 -1.1104 1.16892 5.42012 3.60312
67 1 -1.1104 0.92177 10.9743 3.83778
70 1 -1.1104 3.65162 8.1829 0.797956
71 2 2.2208 2.28702 6.85904 2.23921
72 2 2.2208 2.32815 12.5335 2.47874
73 1 -1.1104 3.71416 8.33329 3.74035
74 2 2.2208 2.33822 9.65399 5.17613
75 1 -1.1104 4.08682 5.31749 0.938567
76 1 -1.1104 3.85186 10.9404 0.492248
78 1 -1.1104 3.76687 5.56192 3.67355
79 1 -1.1104 3.70839 11.0781 3.56405
77 1 -1.1104 3.86054 10.8972 6.5733
230 1 -1.1104 1.0116 8.26753 6.47771
57 1 -1.1104 6.33535 8.16729 0.797513
59 1 -1.1104 6.58469 8.33679 3.85895
68 1 -1.1104 6.5494 5.08348 3.90187
69 1 -1.1104 6.45541 10.9845 3.82719
64 1 -1.1104 6.66196 10.9766 6.66807
62 1 -1.1104 0.950918 11.0614 6.65611
29 2 2.2208 2.33082 -4.28104 2.32197
63 1 -1.1104 6.80079 11.0366 0.927758
83 2 2.2208 10.9032 6.84317 5.43234
84 2 2.2208 10.855 12.5119 5.27032
85 1 -1.1104 12.1954 8.304 1.02077
86 1 -1.1104 12.2932 8.00894 3.80022
87 1 -1.1104 12.2281 5.41251 0.998283
88 1 -1.1104 12.0779 11.1038 0.970266
90 2 2.2208 10.7338 9.58764 2.36973
91 1 -1.1104 11.9581 5.16058 3.88489
92 1 -1.1104 12.1353 11.1089 3.86417
93 1 -1.1104 9.4386 8.33703 0.865114
94 2 2.2208 8.06269 12.4371 2.47176
95 1 -1.1104 9.54627 8.19809 4.06
96 2 2.2208 8.0191 9.49641 5.19455
97 1 -1.1104 9.40884 5.17005 0.924859
98 1 -1.1104 9.39858 11.0408 0.99079
100 1 -1.1104 9.29002 11.1009 4.00212
265 1 -1.1104 9.26823 5.43211 6.35511
89 1 -1.1104 12.2188 11.0627 6.73466
231 1 -1.1104 6.58524 8.31085 6.639
261 1 -1.1104 12.2317 8.25155 6.61912
263 1 -1.1104 9.49644 8.25258 6.75723
81 1 -1.1104 12.2659 16.5764 12.1109
262 1 -1.1104 12.2178 5.50529 6.67896
233 1 -1.1104 6.58764 5.46281 6.7339
9207 2 2.2208 -0.427028 -4.49871 5.05695
26 1 -1.1104 12.4642 13.94 12.1865
103 2 2.2208 5.2409 18.048 5.13698
104 1 -1.1104 0.990154 13.9352 1.11211
106 1 -1.1104 0.982645 19.4177 0.985075
110 1 -1.1104 0.869892 13.873 3.80432
111 1 -1.1104 0.978962 19.5628 3.705
113 1 -1.1104 1.10371 16.704 0.923932
116 2 2.2208 5.22393 15.1983 2.42804
117 2 2.2208 5.26729 20.8445 2.25152
118 1 -1.1104 1.05262 16.6896 3.84337
120 1 -1.1104 3.87016 13.6636 1.08433
122 1 -1.1104 3.82246 19.3305 1.06259
124 2 2.2208 2.46064 17.9607 2.36795
125 1 -1.1104 3.78924 13.7587 3.78578
126 1 -1.1104 3.69923 19.2766 3.82341
127 2 2.2208 2.2505 15.2628 5.22092
128 2 2.2208 2.46176 20.8411 5.11192
129 1 -1.1104 3.91433 16.5992 0.955642
131 1 -1.1104 3.88209 16.5794 3.76646
123 1 -1.1104 3.89215 19.4496 6.48367
135 1 -1.1104 6.56033 19.3848 0.962017
119 1 -1.1104 6.65268 16.5454 3.70687
137 1 -1.1104 6.65509 16.4884 1.00029
136 1 -1.1104 6.69277 19.2991 3.80453
112 1 -1.1104 6.64044 13.8105 3.62586
109 1 -1.1104 6.73385 19.4688 6.56248
121 1 -1.1104 3.83841 13.7476 6.57424
298 1 -1.1104 1.08612 19.4657 6.47725
114 1 -1.1104 0.883201 16.6784 6.60538
311 1 -1.1104 9.57483 16.7535 12.0638
197 2 2.2208 10.8498 20.8714 7.8542
30 2 2.2208 5.02137 -4.3668 5.1961
307 1 -1.1104 9.51367 13.8411 9.38386
108 1 -1.1104 6.58062 13.7551 6.55981
151 1 -1.1104 9.42937 13.7667 6.55831
107 1 -1.1104 6.73707 13.8901 0.92356
138 2 2.2208 10.7389 17.9331 5.0203
139 1 -1.1104 12.2289 14.0149 1.01986
141 1 -1.1104 12.2798 19.6864 0.838643
143 1 -1.1104 12.2987 13.9122 3.8918
144 1 -1.1104 12.2263 19.5215 3.56925
145 1 -1.1104 12.2412 16.7757 0.926727
147 2 2.2208 10.7419 15.2598 2.36085
148 2 2.2208 10.8181 20.8543 2.31496
149 1 -1.1104 12.2287 16.6341 3.81591
150 1 -1.1104 9.39931 13.8067 1.04604
152 1 -1.1104 9.38876 19.4113 0.701166
154 2 2.2208 8.02274 18.0603 2.377
155 1 -1.1104 9.40991 13.7663 3.8043
156 1 -1.1104 9.66371 19.2452 3.48563
157 2 2.2208 7.93136 15.1209 5.17618
158 2 2.2208 8.00179 20.8951 5.27602
159 1 -1.1104 9.51645 16.5725 0.946322
161 1 -1.1104 9.35041 16.5447 3.77034
146 1 -1.1104 12.2104 16.5272 6.56657
160 1 -1.1104 9.54309 16.6248 6.52539
140 1 -1.1104 12.1736 13.8704 6.60204
142 1 -1.1104 12.1903 19.4676 6.47235
322 2 2.2208 -0.395041 3.9424 13.5807
227 2 2.2208 8.09141 17.9586 7.89491
302 1 -1.1104 6.80463 16.6316 12.0945
9217 2 2.2208 -0.540766 1.36794 10.658
167 1 -1.1104 0.993749 -0.162441 6.71496
173 2 2.2208 5.12754 1.38967 10.8397
174 1 -1.1104 1.06662 -2.53484 12.0924
175 1 -1.1104 0.704153 2.55201 11.9556
178 1 -1.1104 1.02977 -2.99632 9.33037
179 1 -1.1104 0.935195 2.67891 9.3239
183 2 2.2208 5.14518 -1.51864 8.12151
184 2 2.2208 5.14668 3.93921 8.03971
185 1 -1.1104 0.872059 -0.188443 9.55528
187 1 -1.1104 3.8628 -3.07761 12.0861
188 1 -1.1104 3.86398 2.85101 11.9362
189 2 2.2208 2.29829 1.1937 8.117
190 1 -1.1104 3.80414 -3.05108 9.39822
191 1 -1.1104 3.67341 2.46966 9.29216
192 2 2.2208 2.5678 -1.61576 10.57
193 2 2.2208 2.32539 4.07148 10.8216
194 1 -1.1104 3.90919 -0.371076 12.1555
195 1 -1.1104 3.87421 -0.149715 9.34578
316 2 2.2208 5.26708 -1.60877 13.5639
166 1 -1.1104 6.5803 2.55637 6.7463
181 1 -1.1104 6.56142 2.55749 9.53621
186 1 -1.1104 6.42033 -0.172185 9.44287
313 2 2.2208 8.08998 15.2787 10.75
9110 2 2.2208 -0.361709 18.0894 10.731
9445 2 2.2208 -0.397824 20.7919 13.6827
591 2 2.2208 -0.309982 9.73609 13.6638
180 1 -1.1104 6.61003 -3.15842 9.41848
182 1 -1.1104 6.66038 -0.194084 12.2243
176 1 -1.1104 6.57559 -3.017 12.2072
318 2 2.2208 10.7638 4.11948 13.6127
205 1 -1.1104 9.46719 2.58267 6.74866
292 1 -1.1104 6.63886 19.3518 12.4351
177 1 -1.1104 6.54296 2.73213 12.296
208 2 2.2208 10.8137 1.34558 10.7353
209 1 -1.1104 12.318 -2.84443 12.1265
210 1 -1.1104 12.2473 2.74257 12.1094
211 1 -1.1104 12.153 -2.98541 9.25377
212 1 -1.1104 12.1784 2.67129 9.47201
213 1 -1.1104 12.149 0.038497 12.1416
214 2 2.2208 10.7982 -1.49426 7.9585
215 2 2.2208 10.8595 4.07834 7.98106
216 1 -1.1104 12.2454 -0.223951 9.41098
217 1 -1.1104 9.49318 -2.87089 12.3096
218 1 -1.1104 9.45932 2.75237 12.1682
219 2 2.2208 8.04655 1.06235 8.04923
220 1 -1.1104 9.45902 -2.83299 9.42822
221 1 -1.1104 9.40931 2.69487 9.5136
222 2 2.2208 7.87464 -1.55491 10.7777
223 2 2.2208 7.88868 4.14105 10.8139
224 1 -1.1104 9.32237 -0.163679 12.0273
225 1 -1.1104 9.39814 -0.231985 9.37291
9049 2 2.2208 13.6938 4.13534 10.763
27 1 -1.1104 12.2643 19.4523 12.1913
310 1 -1.1104 9.52751 16.6618 9.20202
405 2 2.2208 10.7658 -1.38559 13.5218
440 2 2.2208 2.40584 12.6651 13.6413
235 1 -1.1104 3.73259 5.55529 6.54069
442 2 2.2208 2.28178 7.02388 13.4666
232 1 -1.1104 0.874785 5.45398 6.41107
234 1 -1.1104 3.77018 8.17883 6.58539
312 2 2.2208 8.17093 20.9341 10.6429
200 2 2.2208 -0.474818 6.88811 10.6687
236 2 2.2208 5.14845 6.91645 10.762
237 2 2.2208 5.21752 12.5693 10.7986
238 1 -1.1104 0.980271 8.20636 12.1658
240 1 -1.1104 0.978882 8.25901 9.40306
242 1 -1.1104 0.908029 5.44222 12.0688
243 1 -1.1104 0.988268 11.0801 12.2711
246 2 2.2208 5.16532 9.70335 8.06023
247 1 -1.1104 1.05746 5.39616 9.22518
248 1 -1.1104 0.861965 11.0994 9.52282
251 1 -1.1104 3.74328 8.47742 12.2755
252 2 2.2208 2.33316 6.84006 7.94457
253 2 2.2208 2.38603 12.3964 8.01953
254 1 -1.1104 3.75334 8.45035 9.40375
255 2 2.2208 2.35432 9.72486 10.8205
256 1 -1.1104 3.76452 5.603 12.131
257 1 -1.1104 3.66183 11.2327 12.3229
258 1 -1.1104 3.89599 5.57549 9.46492
259 1 -1.1104 3.82408 11.1836 9.45096
244 1 -1.1104 6.45662 5.56297 12.1804
241 1 -1.1104 6.64803 8.30383 9.41386
249 1 -1.1104 6.64062 5.46852 9.42665
228 2 2.2208 -0.477128 9.60831 7.9705
50 1 -1.1104 12.2696 13.895 9.25012
99 1 -1.1104 9.5085 10.9793 6.71173
468 2 2.2208 10.7949 9.7178 13.583
245 1 -1.1104 6.52805 11.1229 12.2362
239 1 -1.1104 6.40273 8.31478 12.2018
250 1 -1.1104 6.61158 11.1 9.365
260 1 -1.1104 9.47076 11.0463 9.71136
264 1 -1.1104 9.57353 5.52726 9.26002
266 1 -1.1104 9.44141 11.081 12.347
267 1 -1.1104 9.29168 5.55708 12.2734
268 2 2.2208 8.02069 9.64404 11.0216
269 1 -1.1104 9.41707 8.31241 9.70163
270 2 2.2208 8.01078 12.3449 7.98645
271 2 2.2208 8.08083 6.93719 8.08756
272 2 2.2208 10.7891 6.83215 10.7873
273 2 2.2208 10.9461 12.5157 10.9065
274 1 -1.1104 12.1211 8.32157 12.1717
275 1 -1.1104 12.2967 8.14999 9.3115
276 1 -1.1104 12.2209 5.6299 12.1402
277 1 -1.1104 12.3119 11.0297 12.214
278 2 2.2208 10.7415 9.69429 8.17265
279 1 -1.1104 12.2741 5.40516 9.32794
280 1 -1.1104 12.2209 11.013 9.47229
281 1 -1.1104 9.38628 8.30452 12.3381
196 2 2.2208 10.8612 15.2505 7.97736
319 2 2.2208 7.78308 6.82772 13.6579
284 1 -1.1104 6.75032 19.3999 9.44887
130 1 -1.1104 3.63289 16.7406 6.58951
105 1 -1.1104 1.10609 13.6829 6.59765
282 1 -1.1104 3.89512 19.5923 11.7891
283 1 -1.1104 3.92732 14.0376 12.1747
287 1 -1.1104 1.19552 19.444 9.32535
288 1 -1.1104 1.00675 16.7199 9.37352
289 2 2.2208 5.15375 20.8941 7.95642
290 1 -1.1104 0.862868 13.9705 9.42103
291 2 2.2208 5.19177 15.1867 7.9281
294 1 -1.1104 1.03938 19.4949 12.2456
295 1 -1.1104 1.06017 13.9453 12.2263
296 2 2.2208 5.41275 18.0421 10.7343
297 1 -1.1104 3.97891 19.3779 9.17202
299 2 2.2208 2.54271 18.0316 8.0449
300 1 -1.1104 4.01753 16.5717 9.43693
301 1 -1.1104 3.75082 13.8622 9.40979
303 1 -1.1104 1.00713 16.816 12.1211
304 1 -1.1104 3.94097 16.7707 12.2173
305 2 2.2208 2.39482 20.989 10.7524
306 2 2.2208 2.40677 15.33 10.8331
323 2 2.2208 5.2576 20.7784 13.4257
133 2 2.2208 -0.329126 20.833 2.38703
320 2 2.2208 5.51079 15.2802 13.495
309 2 2.2208 -0.387274 15.3027 8.06496
162 2 2.2208 13.647 18.0641 2.33508
198 1 -1.1104 12.2639 16.6875 9.28851
293 1 -1.1104 6.6722 13.8184 12.0047
153 1 -1.1104 9.36692 19.4239 6.43274
115 1 -1.1104 6.55543 16.8118 6.49124
9214 2 2.2208 -0.428664 9.71045 2.40131
285 1 -1.1104 6.75848 16.6611 9.23571
226 1 -1.1104 9.48043 19.5602 11.9689
207 1 -1.1104 9.52043 14.0196 12.2028
80 1 -1.1104 12.1667 19.552 9.2997
286 1 -1.1104 6.5522 13.8339 9.31096
8943 2 2.2208 13.5575 9.79305 5.23357
9213 2 2.2208 -0.494978 6.9193 5.11297
82 2 2.2208 -0.359454 12.3798 5.25662
398 2 2.2208 13.7301 20.8899 -0.437802
441 2 2.2208 5.16079 9.8028 13.6099
443 2 2.2208 8.11175 12.4696 13.6951
400 2 2.2208 -0.35214 15.2171 13.6284
328 2 2.2208 5.41919 12.5738 -0.350692
329 2 2.2208 10.6847 6.78033 -0.327256
671 2 2.2208 2.42427 20.788 -0.342997
672 2 2.2208 5.24887 17.8727 -0.448731
333 2 2.2208 5.24106 1.36312 16.5317
334 1 -1.1104 0.908105 -2.92089 17.6688
335 1 -1.1104 0.980143 2.5761 17.8782
338 1 -1.1104 0.930841 -2.91785 14.8987
340 1 -1.1104 0.834284 2.87096 15.0804
346 1 -1.1104 0.878237 -0.0770853 17.894
348 2 2.2208 5.16379 -1.74376 19.3112
349 2 2.2208 5.21257 4.10152 19.2047
350 1 -1.1104 1.01968 -0.181606 14.9791
354 1 -1.1104 3.71764 -2.97725 17.7308
355 1 -1.1104 3.80501 2.64109 17.8538
356 2 2.2208 2.39595 1.18325 19.1702
357 1 -1.1104 3.70749 -2.45616 14.9522
359 1 -1.1104 4.01191 2.64061 15.2073
361 2 2.2208 2.27244 -1.47289 16.4317
362 2 2.2208 2.30232 4.04501 16.2849
363 1 -1.1104 3.84767 -0.148888 17.5442
352 1 -1.1104 6.10569 -0.295164 15.2179
342 1 -1.1104 6.63564 -2.84964 14.9526
364 1 -1.1104 3.66139 -0.316641 20.4963
368 2 2.2208 -0.305542 1.25559 16.32
351 1 -1.1104 0.772573 -0.194855 20.6483
341 1 -1.1104 1.07913 2.62264 20.5179
339 1 -1.1104 0.971816 -2.88724 20.5072
501 2 2.2208 -0.572857 4.05715 19.1472
347 1 -1.1104 6.68392 -0.28811 17.9272
358 1 -1.1104 3.68012 -3.14805 20.702
360 1 -1.1104 3.78336 2.44753 20.652
343 1 -1.1104 6.67235 -3.00633 20.5524
365 2 2.2208 13.5943 15.3408 21.9084
336 1 -1.1104 6.58036 -3.01719 17.8059
344 1 -1.1104 6.65964 2.40314 15.018
337 1 -1.1104 6.74323 2.54701 17.8179
374 2 2.2208 10.9892 1.28859 16.5601
375 1 -1.1104 12.2681 -2.98032 17.7164
376 1 -1.1104 12.2772 2.66446 17.8862
377 1 -1.1104 12.2665 -2.80428 14.914
379 1 -1.1104 12.2241 2.75344 15.1676
381 1 -1.1104 12.3813 -0.176872 17.9031
382 2 2.2208 10.9277 -1.77829 19.237
383 2 2.2208 10.9445 3.99629 19.3344
384 1 -1.1104 12.1225 -0.150909 15.1293
386 1 -1.1104 9.3838 -2.96077 17.8515
387 1 -1.1104 9.44539 2.60743 17.8413
388 2 2.2208 8.03102 1.22187 19.2825
389 1 -1.1104 9.3947 -2.87272 15.0038
391 1 -1.1104 9.49679 2.73979 15.064
393 2 2.2208 8.00897 -1.4755 16.5097
395 1 -1.1104 9.6262 -0.325219 17.7871
396 1 -1.1104 9.10531 -0.0551264 14.9213
394 2 2.2208 8.13438 3.86481 16.4533
378 1 -1.1104 12.1586 -3.08692 20.669
397 1 -1.1104 9.34675 -0.158145 20.5811
380 1 -1.1104 12.1859 2.64338 20.8034
345 1 -1.1104 6.64021 2.63806 20.6712
562 2 2.2208 2.2511 -4.46651 24.6367
479 1 -1.1104 6.55736 13.8179 20.5239
353 1 -1.1104 6.45398 -0.268948 20.7219
392 1 -1.1104 9.47573 2.65588 20.5387
390 1 -1.1104 9.40046 -2.95791 20.3957
9262 2 2.2208 13.7216 1.35262 19.2354
404 2 2.2208 -0.348405 9.63195 19.149
407 2 2.2208 5.17969 6.7599 16.2782
408 2 2.2208 5.33688 12.4075 16.358
409 1 -1.1104 1.06804 8.13758 17.707
411 1 -1.1104 1.08265 8.44797 15.007
415 1 -1.1104 0.81728 5.46665 17.7026
416 1 -1.1104 1.04308 11.1106 17.9072
419 2 2.2208 5.29529 9.61282 19.1391
420 1 -1.1104 0.943041 5.6042 14.8333
422 1 -1.1104 1.23853 11.2676 15.0575
428 1 -1.1104 3.88859 8.1948 17.907
429 2 2.2208 2.39483 6.74887 19.0839
430 2 2.2208 2.4912 12.4417 19.1384
431 1 -1.1104 3.92968 8.3723 15.0903
433 2 2.2208 2.46643 9.63111 16.5394
434 1 -1.1104 3.73133 5.37947 17.643
435 1 -1.1104 3.87981 10.9485 17.7799
436 1 -1.1104 3.8249 5.43809 15.0023
438 1 -1.1104 4.01719 11.1872 15.0844
421 1 -1.1104 0.979783 5.43366 20.3955
372 2 2.2208 -0.476445 6.78647 16.2571
437 1 -1.1104 3.80138 5.36631 20.4391
413 1 -1.1104 6.64086 8.24295 15.004
427 1 -1.1104 6.72937 11.0463 20.5105
412 1 -1.1104 1.13387 8.34119 20.5037
560 2 2.2208 5.22255 -4.33193 27.4892
424 1 -1.1104 6.59638 5.28393 14.9365
410 1 -1.1104 6.67967 8.09808 17.7626
426 1 -1.1104 6.7148 11.0464 15.0095
418 1 -1.1104 6.74192 11.0554 17.7652
417 1 -1.1104 6.75664 5.30769 17.8564
444 2 2.2208 10.804 6.8366 16.463
445 2 2.2208 10.8584 12.3783 16.4519
446 1 -1.1104 12.2539 8.21825 17.8302
447 1 -1.1104 12.1219 8.244 15.0457
449 1 -1.1104 12.1867 5.49252 17.8784
450 1 -1.1104 12.321 10.9973 17.9168
451 2 2.2208 10.9229 9.65711 19.2913
452 1 -1.1104 12.1003 5.47761 15.0466
454 1 -1.1104 12.4068 10.919 15.0473
456 1 -1.1104 9.44782 8.23797 17.8357
457 2 2.2208 8.0678 6.71845 19.1258
458 2 2.2208 8.10633 12.4672 19.0839
459 1 -1.1104 9.3158 8.17379 15.0404
461 2 2.2208 7.97793 9.59327 16.4559
462 1 -1.1104 9.49063 5.29827 17.9248
463 1 -1.1104 9.57164 11.0233 17.8759
464 1 -1.1104 9.36052 5.42461 15.0614
466 1 -1.1104 9.545 11.1642 14.9914
467 1 -1.1104 9.39779 11.1311 20.637
460 1 -1.1104 9.46797 8.35676 20.6163
465 1 -1.1104 9.39759 5.45107 20.7708
448 1 -1.1104 12.3505 8.19528 20.6366
425 1 -1.1104 6.43813 5.30404 20.7262
455 1 -1.1104 12.3226 11.0729 20.6421
453 1 -1.1104 12.3072 5.46716 20.6201
8758 2 2.2208 8.0367 -4.39788 19.0529
566 2 2.2208 10.7681 18.0222 21.9508
623 1 -1.1104 12.2787 16.665 26.2156
470 1 -1.1104 1.13855 13.8395 17.7213
471 1 -1.1104 1.04356 19.3661 17.8597
474 1 -1.1104 1.04979 13.9407 14.9879
476 1 -1.1104 1.04615 19.3792 15.0432
482 1 -1.1104 1.02431 16.5912 17.7228
484 2 2.2208 5.31794 15.3356 19.166
485 2 2.2208 5.16982 20.7444 19.1924
486 1 -1.1104 1.43349 16.5856 14.7685
490 1 -1.1104 3.82316 13.6284 17.6546
491 1 -1.1104 3.82584 19.5039 17.8818
492 2 2.2208 2.51683 18.0136 19.1473
493 1 -1.1104 3.84032 14.2898 14.8378
495 1 -1.1104 3.94786 19.2206 14.724
497 2 2.2208 2.47269 15.2895 16.3764
498 2 2.2208 2.49047 20.7088 16.4286
499 1 -1.1104 3.67915 16.3754 17.8767
475 1 -1.1104 1.02262 13.9705 20.5254
494 1 -1.1104 3.91933 13.6657 20.4059
477 1 -1.1104 0.887225 19.5401 20.6539
487 1 -1.1104 1.06211 16.652 20.524
472 1 -1.1104 6.72705 13.7001 17.6823
478 1 -1.1104 6.61656 13.7651 14.929
481 1 -1.1104 6.61038 19.4004 20.7004
655 1 -1.1104 6.571 19.5272 23.3849
666 1 -1.1104 6.55507 16.6749 23.4677
366 2 2.2208 5.26762 -4.2284 16.4255
488 1 -1.1104 6.86286 16.641 14.8364
473 1 -1.1104 6.8221 19.6001 17.833
483 1 -1.1104 6.81295 16.36 18.0296
504 2 2.2208 10.9258 18.0797 16.4446
505 1 -1.1104 12.395 13.8426 17.8014
506 1 -1.1104 12.2506 19.4365 17.7491
507 1 -1.1104 12.3305 13.8123 14.9681
509 1 -1.1104 12.3293 19.5234 14.8809
511 1 -1.1104 12.2522 16.5457 17.7079
512 2 2.2208 10.8048 15.2448 19.1456
513 2 2.2208 10.8836 20.9193 19.144
514 1 -1.1104 12.4555 16.7508 14.961
516 1 -1.1104 9.44108 13.7998 17.6848
517 1 -1.1104 9.46752 19.5018 17.6763
518 2 2.2208 8.07363 18.0356 19.2639
519 1 -1.1104 9.49914 13.9617 14.9882
521 1 -1.1104 9.3479 19.5172 14.8269
523 2 2.2208 8.07561 15.3351 16.3859
524 2 2.2208 8.22551 20.8862 16.5048
525 1 -1.1104 9.52606 16.6335 17.7684
526 1 -1.1104 9.53264 16.7667 15.0156
520 1 -1.1104 9.36384 13.8066 20.4749
510 1 -1.1104 12.3156 19.4244 20.5448
515 1 -1.1104 12.2604 16.7139 20.5551
527 1 -1.1104 9.62798 16.6715 20.5285
508 1 -1.1104 12.1281 13.9463 20.5142
594 1 -1.1104 12.3195 19.7013 26.1768
563 2 2.2208 -0.444329 1.32885 27.5305
643 2 2.2208 8.08576 20.8532 22.0356
531 2 2.2208 5.18073 1.11661 22.0629
532 1 -1.1104 0.755439 -2.96117 23.4516
533 1 -1.1104 0.882345 2.60943 23.2981
536 1 -1.1104 1.12192 -3.00705 26.1221
537 1 -1.1104 0.973772 2.69725 26.0396
540 1 -1.1104 0.807343 -0.220379 23.3039
542 2 2.2208 5.02801 -1.54683 24.8651
543 2 2.2208 5.13724 4.01378 24.8412
544 1 -1.1104 0.929936 -0.110333 26.0878
546 1 -1.1104 3.83233 -3.055 23.5024
547 1 -1.1104 3.72542 2.54237 23.4546
548 2 2.2208 2.1818 1.22461 24.7131
549 1 -1.1104 3.87421 -2.81303 26.1987
550 1 -1.1104 3.66338 2.84347 26.3203
551 2 2.2208 2.18065 -1.65194 21.9696
552 2 2.2208 2.4246 4.04455 21.8202
553 1 -1.1104 3.69321 -0.377387 23.3883
554 1 -1.1104 3.52831 -0.0263098 26.2037
538 1 -1.1104 6.62821 -3.07747 26.0229
545 1 -1.1104 6.36435 -0.208061 26.1106
534 1 -1.1104 6.6918 -2.97805 23.269
539 1 -1.1104 6.53652 2.65048 26.1634
9254 2 2.2208 -0.494468 -1.53561 24.7733
642 2 2.2208 8.01196 15.1261 21.9777
555 2 2.2208 4.98382 1.38949 27.7136
556 2 2.2208 2.30194 -1.52327 27.6034
332 2 2.2208 13.517 9.61843 27.5471
587 2 2.2208 8.08636 3.91646 27.577
586 2 2.2208 7.99712 -1.68848 27.6855
619 1 -1.1104 9.4423 19.5778 26.1576
385 1 -1.1104 12.2524 -0.175946 20.6525
535 1 -1.1104 6.51871 2.70492 23.4378
541 1 -1.1104 6.56047 -0.0395491 23.4244
567 2 2.2208 10.7509 1.33771 22.0164
568 1 -1.1104 12.3427 -2.78629 23.4566
569 1 -1.1104 12.1998 2.83477 23.4311
570 1 -1.1104 12.1129 -3.00719 26.231
571 1 -1.1104 12.0887 2.63002 26.2745
572 1 -1.1104 12.0857 0.00610006 23.518
573 2 2.2208 10.7888 -1.56194 24.8212
574 2 2.2208 10.8819 4.09306 24.8198
575 1 -1.1104 12.1537 -0.043802 26.1288
576 1 -1.1104 9.48413 -3.03785 23.2288
577 1 -1.1104 9.38581 2.74244 23.3629
578 2 2.2208 7.86868 1.24267 24.8937
579 1 -1.1104 9.50633 -2.87481 26.252
580 1 -1.1104 9.28142 2.61517 26.1069
581 2 2.2208 7.97789 -1.53782 21.9946
582 2 2.2208 8.01988 4.06726 22.0614
583 1 -1.1104 9.27166 -0.191352 23.3379
584 1 -1.1104 9.27252 -0.1126 26.2222
585 2 2.2208 10.7926 1.17098 27.5066
8528 2 2.2208 10.8477 -4.2681 27.5786
439 1 -1.1104 3.85679 10.9213 20.6219
432 1 -1.1104 3.7937 8.03928 20.5053
649 1 -1.1104 6.6109 13.8332 26.1106
8707 2 2.2208 8.01189 -4.33889 24.5646
423 1 -1.1104 1.08387 11.0688 20.7277
596 2 2.2208 5.17792 6.95517 21.9771
597 2 2.2208 5.20463 12.3836 21.8383
598 1 -1.1104 1.14669 8.49465 23.3726
600 1 -1.1104 0.942263 7.98482 26.1808
602 1 -1.1104 0.945929 5.60528 23.3065
605 2 2.2208 5.21177 9.59309 24.5437
606 1 -1.1104 1.04575 5.42853 26.088
607 1 -1.1104 0.789357 10.7048 26.3352
610 1 -1.1104 3.79947 8.14768 23.3128
611 2 2.2208 2.32691 6.89417 24.7734
612 1 -1.1104 3.7414 8.40302 26.0788
613 2 2.2208 2.45603 9.64235 21.9514
614 1 -1.1104 3.74544 5.26097 23.3671
615 1 -1.1104 3.77749 10.9402 23.303
616 1 -1.1104 3.84792 5.5548 26.1485
609 1 -1.1104 6.31179 10.894 26.3042
620 2 2.2208 -0.333424 12.4455 27.6043
617 2 2.2208 5.19933 6.89973 27.5561
599 1 -1.1104 6.61549 8.22107 23.3047
601 1 -1.1104 6.58741 8.22216 26.1059
608 1 -1.1104 6.48826 5.34884 26.5119
658 1 -1.1104 6.73684 13.6822 23.3284
414 1 -1.1104 6.52664 8.1816 20.5114
603 1 -1.1104 6.52644 5.41082 23.6096
604 1 -1.1104 6.64353 10.9161 23.3207
624 1 -1.1104 9.06582 11.0451 26.3093
625 1 -1.1104 9.31285 5.33689 26.227
626 1 -1.1104 9.52508 11.1534 23.5277
627 1 -1.1104 9.46551 5.48523 23.3523
628 2 2.2208 8.05409 9.74926 21.9948
629 1 -1.1104 9.40267 8.09312 26.1305
630 2 2.2208 7.94077 12.3964 24.775
631 2 2.2208 8.02374 6.84438 24.8049
632 2 2.2208 10.8148 6.97622 21.9023
633 2 2.2208 10.7871 12.5324 22.022
634 1 -1.1104 12.2786 8.49516 23.6667
635 1 -1.1104 12.2331 8.18037 26.4453
636 1 -1.1104 12.1833 5.65027 23.4161
637 1 -1.1104 12.1945 11.1807 23.3866
638 2 2.2208 10.6916 9.69317 24.7811
639 1 -1.1104 12.1143 5.39796 26.2389
640 1 -1.1104 12.0132 10.9977 26.2833
641 1 -1.1104 9.36084 8.34702 23.3555
331 2 2.2208 10.7516 12.4961 27.5512
647 2 2.2208 13.5631 6.92295 24.8853
675 2 2.2208 -0.295025 17.9529 27.4087
557 2 2.2208 7.9784 18.1154 24.7245
496 1 -1.1104 3.7492 19.4533 20.7023
500 1 -1.1104 3.89652 16.7001 20.6851
648 1 -1.1104 3.86151 19.4166 23.4102
650 1 -1.1104 4.01318 13.948 23.0729
652 1 -1.1104 1.12081 19.5805 26.1946
653 1 -1.1104 1.27186 16.6261 26.0668
654 1 -1.1104 0.89712 13.844 26.4352
656 2 2.2208 5.16534 20.8609 24.7683
657 2 2.2208 5.17327 15.1227 24.8339
659 1 -1.1104 1.03053 19.3205 23.4873
660 1 -1.1104 0.82591 13.7454 23.2214
661 2 2.2208 5.21089 18.0249 22.0403
662 1 -1.1104 3.85636 19.5077 26.2184
663 2 2.2208 2.50533 18.0926 24.8065
664 1 -1.1104 4.02522 16.6876 26.2294
665 1 -1.1104 3.90744 13.8098 26.412
667 1 -1.1104 1.10098 16.5048 23.5179
668 1 -1.1104 3.80548 16.6733 23.5422
669 2 2.2208 2.47885 20.7995 21.9602
670 2 2.2208 2.47932 15.2158 22.0719
9473 2 2.2208 -0.430321 3.97761 24.7222
559 1 -1.1104 6.68542 19.4817 26.086
677 2 2.2208 -0.296221 17.8587 22.0838
17662 2 2.2208 13.6548 -4.23945 24.7728
674 2 2.2208 -0.281252 15.0712 24.8683
326 2 2.2208 7.96546 15.2476 27.6079
622 2 2.2208 10.8558 20.9735 24.8387
564 2 2.2208 10.9755 18.0777 27.5432
502 1 -1.1104 9.48266 13.9985 23.4128
489 1 -1.1104 6.64662 16.6445 20.6209
522 1 -1.1104 9.43634 19.3544 20.4015
644 1 -1.1104 9.50405 16.6675 23.2565
646 1 -1.1104 9.46744 16.677 26.2031
592 1 -1.1104 12.3722 19.5033 23.4151
595 1 -1.1104 12.2686 16.7884 23.3682
528 1 -1.1104 9.49641 19.4934 23.252
651 1 -1.1104 6.76317 16.7231 26.3214
565 2 2.2208 8.00209 20.7736 27.5669
621 2 2.2208 10.8194 15.4472 24.7437
618 1 -1.1104 9.34089 13.904 26.2448
593 1 -1.1104 12.2116 13.9262 26.234
588 1 -1.1104 12.1229 13.9683 23.1978
9256 2 2.2208 13.6102 4.18933 16.4759
402 2 2.2208 13.5917 -1.46422 16.4202
480 2 2.2208 13.6203 9.5596 16.3907
469 2 2.2208 13.6621 12.4399 19.163
9331 2 2.2208 13.6613 6.89667 19.2311
9337 2 2.2208 -0.31719 12.528 16.3679
9400 2 2.2208 13.7714 15.2652 16.2833
9402 2 2.2208 13.6756 18.1819 19.191
9297 2 2.2208 13.5274 1.3519 24.7149
529 2 2.2208 10.9121 20.8008 13.5942
325 2 2.2208 2.32337 3.9765 27.6834
327 2 2.2208 2.17278 9.468 27.6687
330 2 2.2208 7.90382 9.5504 27.7458
673 2 2.2208 2.46186 15.1554 27.5777
373 2 2.2208 5.08232 3.93905 13.6767
317 2 2.2208 7.97449 1.27203 13.5412
321 2 2.2208 2.37547 18.1148 13.4582
324 2 2.2208 8.29584 17.9903 13.4847
530 2 2.2208 11.0091 15.3031 13.6832
678 2 2.2208 5.22203 23.6527 5.32065
679 2 2.2208 5.15855 29.3 5.00928
680 1 -1.1104 1.05272 24.9749 0.75032
681 1 -1.1104 1.12751 25.1316 3.60031
682 1 -1.1104 1.06339 22.303 1.10387
683 1 -1.1104 1.00712 27.8579 0.899921
684 2 2.2208 5.19463 26.4937 2.28474
685 1 -1.1104 1.10671 22.3548 3.88983
686 1 -1.1104 0.4732 27.9274 3.54283
687 1 -1.1104 3.82405 25.0762 1.01337
688 2 2.2208 2.58399 23.7663 2.43378
689 2 2.2208 2.38915 29.1918 2.26302
690 1 -1.1104 3.84563 25.0885 3.71489
691 2 2.2208 2.46433 26.4323 5.32121
692 1 -1.1104 3.89989 22.1755 0.983879
693 1 -1.1104 3.69993 27.7799 0.858613
694 1 -1.1104 3.97339 22.3756 3.80574
695 1 -1.1104 3.59633 27.8584 3.85927
696 2 2.2208 -0.115009 29.374 5.1799
698 2 2.2208 -0.379926 26.2741 2.24373
826 1 -1.1104 3.88662 27.8016 6.40199
702 1 -1.1104 6.51721 27.8624 0.922241
823 1 -1.1104 6.65847 27.9306 6.37493
821 1 -1.1104 0.997114 22.3026 6.69245
824 1 -1.1104 3.83713 24.9802 6.61696
700 1 -1.1104 6.60867 25.0691 3.91569
703 1 -1.1104 6.66553 22.2395 3.71238
819 1 -1.1104 1.08595 24.8846 6.49009
704 1 -1.1104 6.68014 27.8581 3.6007
701 1 -1.1104 6.60037 22.1933 1.02468
699 1 -1.1104 6.68134 25.0949 0.987981
705 2 2.2208 10.8573 23.7445 5.18593
706 2 2.2208 10.791 29.2935 4.98176
707 1 -1.1104 12.1288 25.162 0.792337
708 1 -1.1104 12.2676 25.1437 3.77748
709 1 -1.1104 12.2095 22.4237 0.974134
710 1 -1.1104 12.4146 27.8903 0.90458
711 2 2.2208 10.8685 26.5 2.34063
712 1 -1.1104 12.256 22.4685 3.74544
713 1 -1.1104 12.2706 27.7425 3.72025
714 1 -1.1104 9.44582 25.0414 1.01401
715 2 2.2208 8.02655 23.6872 2.4475
716 2 2.2208 8.00761 29.2815 2.30507
717 1 -1.1104 9.4198 25.0315 3.79103
718 2 2.2208 8.06774 26.3823 5.18949
719 1 -1.1104 9.35998 22.2456 1.09264
720 1 -1.1104 9.40921 27.8009 0.811782
721 1 -1.1104 9.45045 22.1433 3.88133
722 1 -1.1104 9.45869 27.9773 3.69708
849 1 -1.1104 12.1918 25.0376 6.6336
851 1 -1.1104 12.1831 27.8505 6.47693
854 1 -1.1104 9.52306 27.8542 6.53465
9887 2 2.2208 13.6324 29.1646 2.3238
1202 2 2.2208 13.5986 40.3632 13.6408
852 1 -1.1104 9.42575 25.103 6.60246
850 1 -1.1104 12.2657 22.1684 6.50918
9888 2 2.2208 13.6062 26.3381 5.13996
727 2 2.2208 5.30884 34.8458 5.12749
728 1 -1.1104 0.923572 30.5386 0.994682
729 1 -1.1104 0.987839 36.2789 0.805101
731 1 -1.1104 1.19203 30.5659 3.83306
732 1 -1.1104 0.956855 36.3261 3.63111
734 1 -1.1104 0.906238 33.4398 1.10589
735 2 2.2208 5.17099 32.0181 2.29353
736 2 2.2208 5.31305 37.7286 2.28474
737 1 -1.1104 1.06774 33.5652 3.84223
739 1 -1.1104 3.73332 30.4731 0.833481
740 1 -1.1104 3.80288 36.082 0.968724
741 2 2.2208 2.35403 34.8974 2.32754
742 1 -1.1104 3.78383 30.6972 3.53108
743 1 -1.1104 4.20817 36.4449 3.80891
744 2 2.2208 2.39519 32.1446 5.15106
745 2 2.2208 2.47605 37.6752 5.17299
746 1 -1.1104 3.86489 33.3199 0.9078
747 1 -1.1104 3.74106 33.5228 3.65006
879 1 -1.1104 3.85285 30.9442 6.32321
881 1 -1.1104 3.84824 33.5425 6.53999
730 1 -1.1104 6.73547 36.2347 0.859002
873 1 -1.1104 0.799616 31.0394 6.51977
874 1 -1.1104 1.07243 36.5377 6.40676
750 1 -1.1104 6.44631 30.7379 1.00236
733 1 -1.1104 6.78745 36.2302 3.84175
9885 2 2.2208 13.5824 43.1559 10.7853
1601 1 -1.1104 9.35755 47.3341 9.29424
697 2 2.2208 10.7978 40.3983 10.9522
978 2 2.2208 10.785 43.2173 7.9879
1409 1 -1.1104 9.40948 47.4647 1.11381
738 1 -1.1104 6.59504 33.343 3.83261
751 1 -1.1104 6.55055 30.5866 3.64337
752 1 -1.1104 6.62349 33.4031 1.12861
753 2 2.2208 10.8005 34.8825 5.31362
754 1 -1.1104 12.1128 30.4052 0.916272
755 1 -1.1104 12.1227 36.0431 1.00791
756 1 -1.1104 12.191 30.6316 3.81442
757 1 -1.1104 12.2054 36.3094 3.91387
758 1 -1.1104 12.1815 33.2398 0.9324
759 2 2.2208 10.9156 31.957 2.42116
760 2 2.2208 10.9316 37.7182 2.39124
761 1 -1.1104 12.2178 33.3322 3.7236
762 1 -1.1104 9.36546 30.6624 1.00324
763 1 -1.1104 9.46046 36.1426 0.944974
764 2 2.2208 8.0262 34.7565 2.29571
765 1 -1.1104 9.42653 30.6728 3.6817
766 1 -1.1104 9.44914 36.2945 3.74801
767 2 2.2208 8.03621 32.1592 5.12197
768 2 2.2208 8.10842 37.684 5.11326
769 1 -1.1104 9.4856 33.3846 0.897366
770 1 -1.1104 9.45257 33.4834 3.85796
909 1 -1.1104 12.2273 33.5468 6.42067
911 1 -1.1104 9.475 36.2886 6.74723
9642 2 2.2208 13.7162 32.0166 5.17846
771 2 2.2208 13.6079 34.8616 2.36716
1374 1 -1.1104 3.73077 47.3572 0.997508
964 2 2.2208 -0.256992 43.2564 8.02231