ITEM: TIMESTEP
80000
ITEM: NUMBER OF ATOMS
17820
ITEM: BOX BOUNDS pp pp pp
-3.5755405232943432e-01 2.7697554052329536e+01
-4.4495760677233145e+00 3.3252957606772912e+02
-3.6060718261457625e-01 2.7700607182613940e+01
ITEM: ATOMS id type q x y z
1 2 2.2208 5.14876 1.11845 5.21332
2 1 -1.1104 1.04989 -3.18493 0.99881
3 1 -1.1104 0.977434 2.59247 0.973668
6 1 -1.1104 0.997815 -3.12125 3.89181
7 1 -1.1104 1.03335 2.53786 3.93779
10 1 -1.1104 0.986846 -0.417552 1.11053
12 2 2.2208 5.29089 -1.7054 2.37257
13 2 2.2208 5.11819 3.86146 2.56425
14 1 -1.1104 1.02328 -0.244296 4.00744
16 1 -1.1104 3.93974 -2.93806 1.12482
17 1 -1.1104 3.60465 2.49221 0.938583
18 2 2.2208 2.36564 1.04964 2.33452
19 1 -1.1104 3.75945 -3.27928 3.86034
20 1 -1.1104 3.68543 2.37725 3.70184
21 2 2.2208 2.44307 -1.75129 5.21973
22 2 2.2208 2.41013 3.84904 5.36485
23 1 -1.1104 3.79962 -0.246227 0.887958
24 1 -1.1104 3.85257 -0.500241 3.75202
11 1 -1.1104 6.64133 -0.139955 0.991959
15 1 -1.1104 6.72874 -0.389227 3.75803
9 1 -1.1104 6.53167 2.45478 3.7979
166 1 -1.1104 6.76234 2.44348 6.56416
164 1 -1.1104 1.08272 2.4326 6.63455
171 1 -1.1104 3.81721 -0.182987 6.52216
168 1 -1.1104 6.83198 -0.312622 6.55942
49 2 2.2208 13.7657 -4.45205 2.45472
30 2 2.2208 5.25482 -4.4467 5.35579
8 1 -1.1104 6.57143 -3.11661 3.88121
4 1 -1.1104 6.75405 -3.08872 1.10289
5 1 -1.1104 6.45529 2.71677 1.01329
31 2 2.2208 10.9833 1.10147 5.12952
32 1 -1.1104 12.3604 -3.19775 1.16737
33 1 -1.1104 12.2086 2.38231 0.940956
34 1 -1.1104 12.3346 -3.10408 3.80667
35 1 -1.1104 12.309 2.49667 3.69057
36 1 -1.1104 12.3401 -0.360191 0.991666
37 2 2.2208 10.9477 -1.7458 2.31765
38 2 2.2208 10.7801 3.76364 2.15373
39 1 -1.1104 12.4194 -0.362436 3.67487
40 1 -1.1104 9.51509 -3.03964 1.02663
41 1 -1.1104 9.31511 2.43285 0.923097
42 2 2.2208 7.91205 1.10194 2.33645
43 1 -1.1104 9.45116 -3.21238 3.72447
44 1 -1.1104 9.35219 2.5765 3.64566
45 2 2.2208 8.17448 -1.76763 5.10594
46 2 2.2208 8.03013 3.8253 5.2855
47 1 -1.1104 9.37162 -0.255377 0.906733
48 1 -1.1104 9.61595 -0.261277 3.64576
8524 2 2.2208 10.9486 -4.46936 10.8453
201 1 -1.1104 12.3199 -3.21096 6.62387
9212 2 2.2208 13.7315 1.05275 2.37713
205 1 -1.1104 9.56721 2.61104 6.53696
202 1 -1.1104 12.3745 2.42685 6.60867
314 2 2.2208 13.6835 3.94558 5.13415
327 2 2.2208 2.315 9.47768 -0.410366
54 2 2.2208 5.27464 6.6859 5.1811
55 2 2.2208 5.25251 12.3386 5.27739
56 1 -1.1104 0.964931 8.13344 1.09946
58 1 -1.1104 1.12566 8.09356 3.7948
60 1 -1.1104 1.00918 5.27573 0.982501
61 1 -1.1104 0.988433 10.9869 0.992656
65 2 2.2208 5.2087 9.38343 2.38248
66 1 -1.1104 1.00454 5.23035 3.65626
67 1 -1.1104 1.1135 10.8455 3.70276
70 1 -1.1104 3.65002 7.99509 0.987716
71 2 2.2208 2.4081 6.71415 2.45133
72 2 2.2208 2.43738 12.3612 2.40528
73 1 -1.1104 3.94051 8.0808 3.71584
74 2 2.2208 2.45835 9.57998 5.11391
75 1 -1.1104 4.06315 5.21076 0.875231
76 1 -1.1104 3.90085 10.85 0.569147
78 1 -1.1104 3.71705 5.27334 3.9382
79 1 -1.1104 3.72063 10.974 3.48338
57 1 -1.1104 6.3919 8.1632 0.778155
59 1 -1.1104 6.58691 8.07793 4.00936
234 1 -1.1104 3.70031 8.07885 6.64782
68 1 -1.1104 6.49008 4.98812 3.95032
63 1 -1.1104 6.61625 10.9965 1.01331
62 1 -1.1104 0.98804 10.826 6.57742
235 1 -1.1104 3.75492 5.31584 6.66991
328 2 2.2208 5.3244 12.4628 -0.31951
69 1 -1.1104 6.64141 10.8956 3.77588
64 1 -1.1104 6.51851 10.9686 6.60662
83 2 2.2208 10.9468 6.92956 5.20911
84 2 2.2208 10.9449 12.3597 5.11063
85 1 -1.1104 12.3953 8.29652 1.03058
86 1 -1.1104 12.3526 8.09714 3.71027
87 1 -1.1104 12.2175 5.28198 1.12801
88 1 -1.1104 12.2141 11.128 1.00161
90 2 2.2208 10.7873 9.42375 2.30211
91 1 -1.1104 11.7617 5.3687 3.73818
92 1 -1.1104 12.2147 10.915 3.66417
93 1 -1.1104 9.66782 8.09798 0.651572
94 2 2.2208 7.97619 12.3324 2.46846
95 1 -1.1104 9.55821 8.28995 3.82934
96 2 2.2208 8.08441 9.48307 5.08353
97 1 -1.1104 9.34957 4.94298 0.83572
98 1 -1.1104 9.44844 10.8521 1.03466
100 1 -1.1104 9.53213 10.8669 3.85728
265 1 -1.1104 9.53671 5.25625 6.16406
162 2 2.2208 13.7075 18.0615 2.4467
102 2 2.2208 13.6625 6.70623 2.35268
307 1 -1.1104 9.49344 13.6658 9.34402
262 1 -1.1104 12.4004 5.34903 6.43044
99 1 -1.1104 9.48239 10.7453 6.68412
263 1 -1.1104 9.48936 8.0008 6.71766
103 2 2.2208 5.22925 17.904 5.28679
104 1 -1.1104 1.05554 13.7735 1.12987
106 1 -1.1104 1.21188 19.4241 1.18951
110 1 -1.1104 0.964586 13.5716 3.88751
111 1 -1.1104 1.06815 19.3158 3.91599
113 1 -1.1104 1.14902 16.5743 0.978703
116 2 2.2208 5.29072 15.0204 2.48663
117 2 2.2208 5.33897 20.7239 2.46624
118 1 -1.1104 1.22199 16.3127 3.66018
120 1 -1.1104 3.86669 13.7275 1.01081
122 1 -1.1104 3.85087 19.4517 1.12722
124 2 2.2208 2.60008 17.8108 2.50236
125 1 -1.1104 3.82737 13.6677 3.72321
126 1 -1.1104 3.79721 19.2054 3.96688
127 2 2.2208 2.39431 14.9991 5.18347
128 2 2.2208 2.57449 20.7201 5.25435
129 1 -1.1104 3.93862 16.4327 1.14673
131 1 -1.1104 3.96974 16.3504 4.05917
135 1 -1.1104 6.68899 19.3393 1.03895
9049 2 2.2208 13.679 3.90848 10.8256
112 1 -1.1104 6.67651 13.799 3.92495
136 1 -1.1104 6.57191 19.4419 3.9256
107 1 -1.1104 6.7234 13.899 1.1546
105 1 -1.1104 1.05584 13.8916 6.7036
298 1 -1.1104 1.04182 19.3573 6.72595
108 1 -1.1104 6.65812 13.7609 6.72025
312 2 2.2208 8.12797 20.809 10.9078
134 2 2.2208 -0.354781 17.9489 5.33197
115 1 -1.1104 6.5865 16.5284 6.62116
119 1 -1.1104 6.6389 16.6954 3.92289
153 1 -1.1104 9.47662 19.367 6.72697
137 1 -1.1104 6.73881 16.6243 1.03358
151 1 -1.1104 9.47973 13.5497 6.56937
138 2 2.2208 10.955 17.857 5.11291
139 1 -1.1104 12.2827 13.8756 0.865258
141 1 -1.1104 12.1209 19.4985 0.981528
143 1 -1.1104 12.1096 13.7337 3.77827
144 1 -1.1104 12.4148 19.2897 3.72138
145 1 -1.1104 12.2442 16.6072 0.983964
147 2 2.2208 10.8231 15.095 2.26858
148 2 2.2208 10.825 20.7889 2.4672
149 1 -1.1104 12.1477 16.5333 3.76801
150 1 -1.1104 9.57593 13.726 1.04136
152 1 -1.1104 9.35553 19.3744 1.15843
154 2 2.2208 8.0575 17.9627 2.46462
155 1 -1.1104 9.37567 13.8442 3.80222
156 1 -1.1104 9.52404 19.5135 3.87283
157 2 2.2208 8.02725 15.1497 5.22421
158 2 2.2208 8.02097 20.7419 5.23067
159 1 -1.1104 9.62269 16.5326 0.86385
161 1 -1.1104 9.37271 16.6375 3.78653
160 1 -1.1104 9.61333 16.4324 6.56475
226 1 -1.1104 9.51038 19.3107 12.3572
133 2 2.2208 -0.298389 20.8403 2.55093
146 1 -1.1104 12.5239 16.5291 6.50531
8991 2 2.2208 13.5818 20.7853 5.28204
170 1 -1.1104 3.90957 2.54502 6.52065
200 2 2.2208 -0.404975 6.64582 10.863
207 1 -1.1104 9.68838 13.8036 12.217
27 1 -1.1104 12.3515 19.3521 12.2062
293 1 -1.1104 6.84873 13.7137 12.2953
169 1 -1.1104 3.88003 -3.00968 6.69333
163 1 -1.1104 1.0883 -3.15205 6.64679
167 1 -1.1104 1.03929 -0.305132 6.75779
173 2 2.2208 5.38331 1.26886 10.7458
174 1 -1.1104 1.0655 -2.55489 12.1248
175 1 -1.1104 1.01198 2.43993 11.9957
178 1 -1.1104 1.08843 -3.4192 9.34721
179 1 -1.1104 1.12287 2.42103 9.39662
183 2 2.2208 5.38796 -1.57525 7.88989
184 2 2.2208 5.22424 3.98073 8.11463
185 1 -1.1104 0.960702 -0.566783 9.91487
187 1 -1.1104 3.83154 -3.27183 12.2209
188 1 -1.1104 4.07272 2.75767 11.9766
189 2 2.2208 2.47481 1.0299 8.0726
190 1 -1.1104 3.94016 -3.17196 9.37538
191 1 -1.1104 4.02705 2.488 9.34812
192 2 2.2208 2.7841 -1.80358 10.7835
193 2 2.2208 2.39883 3.95126 10.9512
194 1 -1.1104 4.08677 -0.467968 12.1942
195 1 -1.1104 3.90934 -0.236398 9.35804
181 1 -1.1104 6.80402 2.69871 9.29968
182 1 -1.1104 6.75559 -0.417689 12.0831
316 2 2.2208 5.52502 -1.72609 13.5815
186 1 -1.1104 6.96748 -0.212872 9.29759
180 1 -1.1104 6.65293 -3.02903 9.23248
556 2 2.2208 2.46713 -1.75891 -0.354273
9219 2 2.2208 13.6028 1.10022 8.0709
206 1 -1.1104 9.67774 -0.385653 6.52904
204 1 -1.1104 9.47491 -3.16388 6.57131
26 1 -1.1104 12.3219 13.6681 12.0422
165 1 -1.1104 6.71373 -3.04486 6.45537
177 1 -1.1104 6.81979 2.54596 12.124
203 1 -1.1104 12.3624 -0.366935 6.46164
318 2 2.2208 10.9064 4.11369 13.6551
197 2 2.2208 10.9124 20.8215 8.03104
176 1 -1.1104 6.68864 -3.04183 12.2884
208 2 2.2208 10.8635 1.24954 10.7898
209 1 -1.1104 12.1877 -2.97703 12.2395
210 1 -1.1104 12.2038 2.47116 12.298
211 1 -1.1104 12.2642 -3.05942 9.51886
212 1 -1.1104 12.2552 2.64532 9.43252
213 1 -1.1104 12.3468 -0.328316 12.176
214 2 2.2208 10.8352 -1.7961 7.98749
215 2 2.2208 10.9324 4.04135 7.90137
216 1 -1.1104 12.22 -0.385861 9.45341
217 1 -1.1104 9.40267 -2.90162 12.0635
218 1 -1.1104 9.59724 2.61881 12.2322
219 2 2.2208 8.24417 1.06846 8.04388
220 1 -1.1104 9.45813 -3.10859 9.3303
221 1 -1.1104 9.52696 2.57507 9.30482
222 2 2.2208 8.07194 -1.64282 10.6773
223 2 2.2208 8.12844 3.92363 10.8226
224 1 -1.1104 9.63519 -0.110033 12.1253
225 1 -1.1104 9.56799 -0.303119 9.33732
77 1 -1.1104 3.77189 10.9706 6.56991
230 1 -1.1104 1.05602 8.077 6.55117
233 1 -1.1104 6.73327 5.27844 6.64085
227 2 2.2208 8.25037 17.8027 8.07546
232 1 -1.1104 0.944598 5.24634 6.58881
231 1 -1.1104 6.56645 8.08801 6.5959
236 2 2.2208 5.22019 6.84503 10.8724
237 2 2.2208 5.22765 12.3411 10.768
238 1 -1.1104 1.05551 8.17963 12.341
240 1 -1.1104 0.941867 7.96088 9.53122
242 1 -1.1104 0.955768 5.26139 12.1275
243 1 -1.1104 1.1012 10.976 12.1494
246 2 2.2208 5.21218 9.50094 8.01952
247 1 -1.1104 1.05667 5.3255 9.37104
248 1 -1.1104 0.917226 10.9201 9.35677
251 1 -1.1104 3.71097 8.25602 12.2005
252 2 2.2208 2.36417 6.71761 8.04631
253 2 2.2208 2.41297 12.2931 8.01837
254 1 -1.1104 3.70283 8.16587 9.39247
255 2 2.2208 2.37191 9.52804 10.791
256 1 -1.1104 3.6963 5.55359 12.1804
257 1 -1.1104 3.71801 11.0366 12.17
258 1 -1.1104 3.90656 5.31493 9.43823
259 1 -1.1104 3.76263 10.7987 9.36925
241 1 -1.1104 6.52282 8.20343 9.41995
249 1 -1.1104 6.8184 5.49499 9.47161
250 1 -1.1104 6.55568 10.9493 9.34338
245 1 -1.1104 6.43834 10.8972 12.059
239 1 -1.1104 6.54539 8.15656 12.4398
244 1 -1.1104 6.49551 5.42372 12.1655
9220 2 2.2208 13.7549 -1.7367 10.7676
321 2 2.2208 2.34031 18.0156 13.5708
406 2 2.2208 13.6773 12.2849 13.6765
324 2 2.2208 8.21614 17.877 13.6176
261 1 -1.1104 12.3635 8.08737 6.60213
89 1 -1.1104 12.3632 10.9573 6.53862
286 1 -1.1104 6.70292 13.8014 9.51732
260 1 -1.1104 9.47948 10.8604 9.48323
264 1 -1.1104 9.5183 5.39728 9.28236
266 1 -1.1104 9.37173 11.0948 12.2671
267 1 -1.1104 9.50967 5.32905 12.0605
268 2 2.2208 7.95121 9.45532 10.8788
269 1 -1.1104 9.28212 8.19711 9.54818
270 2 2.2208 8.02754 12.2565 7.94987
271 2 2.2208 7.9644 6.81633 7.97775
272 2 2.2208 10.761 6.814 10.7174
273 2 2.2208 10.9159 12.3014 10.7543
274 1 -1.1104 12.3028 8.11808 12.3178
275 1 -1.1104 12.2564 8.09145 9.46751
276 1 -1.1104 12.435 5.36358 12.025
277 1 -1.1104 12.2053 10.8483 12.1893
278 2 2.2208 10.8369 9.52503 7.94223
279 1 -1.1104 12.2428 5.29102 9.15145
280 1 -1.1104 12.2407 10.8947 9.33211
281 1 -1.1104 9.42867 8.10165 12.2852
81 1 -1.1104 12.1845 16.6417 12.314
319 2 2.2208 8.01773 6.84983 13.6881
468 2 2.2208 10.8737 9.5993 13.6225
311 1 -1.1104 9.50554 16.5928 12.1902
285 1 -1.1104 6.62718 16.6517 9.37426
123 1 -1.1104 3.95324 19.4826 6.65647
121 1 -1.1104 3.86911 13.7506 6.45185
284 1 -1.1104 6.83749 19.3172 9.73652
308 1 -1.1104 9.48335 19.3591 9.6623
114 1 -1.1104 1.04384 16.5887 6.67182
130 1 -1.1104 3.73455 16.6398 6.7926
282 1 -1.1104 3.8679 19.4364 12.1055
283 1 -1.1104 3.96192 13.8252 12.1286
287 1 -1.1104 1.13114 19.3532 9.4552
288 1 -1.1104 0.928062 16.6038 9.35636
289 2 2.2208 5.48063 20.7524 7.97293
290 1 -1.1104 1.1158 13.7464 9.44011
291 2 2.2208 5.20157 15.2217 8.14908
294 1 -1.1104 0.890083 19.3084 12.1745
295 1 -1.1104 1.06407 13.6882 12.2204
296 2 2.2208 5.33597 18.1426 10.9102
297 1 -1.1104 4.09381 19.2963 9.26821
299 2 2.2208 2.52339 18.0417 8.04695
300 1 -1.1104 3.76214 16.4359 9.68492
301 1 -1.1104 3.79013 13.6332 9.26465
303 1 -1.1104 1.16765 16.4629 12.2377
304 1 -1.1104 3.95152 16.7781 12.776
305 2 2.2208 2.50655 20.8886 10.7
306 2 2.2208 2.33665 15.134 10.8565
320 2 2.2208 5.33826 15.2191 13.5652
302 1 -1.1104 6.78381 16.6116 12.1611
292 1 -1.1104 6.62185 19.2608 12.6817
80 1 -1.1104 12.3426 19.2836 9.35545
109 1 -1.1104 6.83152 19.2543 6.67739
530 2 2.2208 10.9294 15.1697 13.6054
196 2 2.2208 10.9707 15.0978 7.9449
310 1 -1.1104 9.4854 16.4954 9.377
198 1 -1.1104 12.2372 16.5944 9.50889
323 2 2.2208 5.11029 20.6514 13.6577
140 1 -1.1104 12.2523 13.6946 6.6466
50 1 -1.1104 12.376 13.7535 9.27827
142 1 -1.1104 12.117 19.3552 6.52763
313 2 2.2208 8.20257 15.1684 10.8567
25 2 2.2208 10.9273 18.0001 10.8579
373 2 2.2208 5.16252 3.94547 13.5364
405 2 2.2208 10.9393 -1.63264 13.5682
9209 2 2.2208 13.735 17.9351 8.02536
9208 2 2.2208 13.6012 15.0317 10.8086
28 2 2.2208 -0.437745 3.93827 2.405
101 2 2.2208 13.636 12.4341 2.27942
9218 2 2.2208 -0.281244 20.7911 8.07675
132 2 2.2208 -0.383935 15.0905 2.48424
9126 2 2.2208 13.7912 12.1418 8.03603
326 2 2.2208 8.16232 15.2147 -0.334896
317 2 2.2208 8.1303 1.18979 13.5514
443 2 2.2208 8.11133 12.4036 13.7586
442 2 2.2208 2.33475 6.79346 13.5709
564 2 2.2208 10.8759 18.0295 -0.400785
325 2 2.2208 2.37796 3.9836 -0.347287
331 2 2.2208 10.8572 12.4011 -0.362282
322 2 2.2208 -0.267234 3.91042 13.6829
333 2 2.2208 5.4998 1.34714 16.4653
334 1 -1.1104 1.01165 -3.15521 17.9292
335 1 -1.1104 1.22171 2.42958 17.7735
338 1 -1.1104 1.09671 -3.34866 14.9253
340 1 -1.1104 0.870389 2.69801 15.1862
346 1 -1.1104 1.08194 -0.346827 17.7821
348 2 2.2208 5.36675 -1.77396 19.1921
349 2 2.2208 5.20208 3.95155 19.1629
350 1 -1.1104 1.04189 -0.557073 15.1608
354 1 -1.1104 3.92813 -3.24081 17.7892
355 1 -1.1104 4.03004 2.34434 18.0068
356 2 2.2208 2.55198 0.973864 19.1808
357 1 -1.1104 3.99711 -2.899 15.0947
359 1 -1.1104 4.11758 2.61894 15.1678
361 2 2.2208 2.37902 -1.89006 16.5208
362 2 2.2208 2.47851 4.03205 16.4483
363 1 -1.1104 4.06429 -0.366218 17.2877
352 1 -1.1104 6.45123 -0.10986 14.7776
364 1 -1.1104 3.94437 -0.412648 20.4006
347 1 -1.1104 6.79801 -0.199508 17.8288
9224 2 2.2208 13.8139 6.75057 13.5559
358 1 -1.1104 3.75555 -3.09345 20.6093
353 1 -1.1104 6.67055 -0.331085 20.6302
343 1 -1.1104 6.62182 -3.10157 20.5525
339 1 -1.1104 1.10721 -3.03896 20.7541
469 2 2.2208 13.7639 12.2605 19.2369
336 1 -1.1104 6.73975 -3.04318 17.8468
342 1 -1.1104 6.64506 -2.99969 15.0749
337 1 -1.1104 6.71616 2.75125 17.8055
344 1 -1.1104 6.83004 2.74629 14.8977
374 2 2.2208 10.8996 1.16546 16.2841
375 1 -1.1104 12.3068 -3.06293 17.8532
376 1 -1.1104 12.1846 2.68267 17.8748
377 1 -1.1104 12.2374 -2.93045 15.2014
379 1 -1.1104 12.3297 2.51766 15.1389
381 1 -1.1104 12.2384 -0.246443 17.8756
382 2 2.2208 10.8644 -1.59487 19.2351
383 2 2.2208 10.7914 3.91426 19.1848
384 1 -1.1104 12.3226 -0.205428 15.0407
386 1 -1.1104 9.43296 -3.16163 17.7603
387 1 -1.1104 9.54642 2.40341 17.7108
388 2 2.2208 8.12951 1.15364 19.2571
389 1 -1.1104 9.48999 -2.88089 14.8884
391 1 -1.1104 9.5028 2.753 14.9597
393 2 2.2208 8.11674 -1.612 16.4606
395 1 -1.1104 9.54996 -0.212991 17.7782
396 1 -1.1104 9.37229 -0.216702 15.0488
394 2 2.2208 8.09098 4.08283 16.3845
378 1 -1.1104 12.2338 -2.98292 20.6045
397 1 -1.1104 9.41291 -0.163815 20.5386
370 2 2.2208 13.5213 15.2685 27.5495
9471 2 2.2208 -0.299806 1.13682 22.1209
367 2 2.2208 13.576 9.52958 22.1428
392 1 -1.1104 9.36256 2.60834 20.5085
380 1 -1.1104 12.1083 2.39797 20.6648
372 2 2.2208 -0.352751 6.72931 16.3968
369 2 2.2208 13.7307 18.1311 24.8469
332 2 2.2208 13.5961 9.62661 27.6234
407 2 2.2208 5.35646 6.78142 16.4529
408 2 2.2208 5.13963 12.394 16.4655
409 1 -1.1104 1.06405 8.1958 17.9631
411 1 -1.1104 1.01452 8.18991 15.1061
415 1 -1.1104 1.02504 5.36619 17.8054
416 1 -1.1104 1.05027 10.9738 17.8386
419 2 2.2208 5.23759 9.5955 19.2633
420 1 -1.1104 1.13403 5.50782 14.9496
422 1 -1.1104 1.10702 11.0014 15.0304
428 1 -1.1104 3.91098 8.13674 17.8474
429 2 2.2208 2.45949 6.8444 19.3467
430 2 2.2208 2.3648 12.4315 19.1978
431 1 -1.1104 3.82127 8.36332 14.9615
433 2 2.2208 2.39518 9.46036 16.425
434 1 -1.1104 3.89498 5.30375 17.7756
435 1 -1.1104 3.8334 10.8523 17.8691
436 1 -1.1104 3.75176 5.54704 15.0724
438 1 -1.1104 3.91123 10.9223 15.1479
439 1 -1.1104 3.86315 10.9039 20.7156
432 1 -1.1104 3.85131 8.23855 20.6187
427 1 -1.1104 6.52493 11.0046 20.6818
426 1 -1.1104 6.70558 10.8873 15.0235
417 1 -1.1104 6.6839 5.42128 17.8254
412 1 -1.1104 1.07714 8.12369 20.7112
421 1 -1.1104 1.15714 5.41714 20.5746
9406 2 2.2208 -0.309504 -1.73693 19.3883
410 1 -1.1104 6.69091 8.23369 17.9505
413 1 -1.1104 6.60646 8.25327 15.2371
418 1 -1.1104 6.60776 11.0065 17.8307
424 1 -1.1104 6.54445 5.38185 14.9517
444 2 2.2208 10.8246 6.76698 16.3283
445 2 2.2208 10.8831 12.5413 16.4406
446 1 -1.1104 12.276 8.31753 17.8251
447 1 -1.1104 12.3529 8.13399 15.069
449 1 -1.1104 12.2851 5.42609 17.6832
450 1 -1.1104 12.2725 10.9995 17.8761
451 2 2.2208 10.8714 9.51872 19.2959
452 1 -1.1104 12.4838 5.45877 14.9467
454 1 -1.1104 12.2658 10.9202 15.1349
456 1 -1.1104 9.52603 8.1644 17.6362
457 2 2.2208 8.11627 6.89993 19.1158
458 2 2.2208 7.97516 12.4321 19.2662
459 1 -1.1104 9.51491 8.15372 14.8964
461 2 2.2208 7.98688 9.65968 16.4287
462 1 -1.1104 9.43295 5.39405 17.819
463 1 -1.1104 9.49979 11.0099 17.8929
464 1 -1.1104 9.53653 5.49769 15.0132
466 1 -1.1104 9.56015 11.0158 15.1137
448 1 -1.1104 12.2699 7.98548 20.5911
455 1 -1.1104 12.2415 10.766 20.6702
467 1 -1.1104 9.49364 11.0153 20.6881
644 1 -1.1104 9.48375 16.5138 23.3337
465 1 -1.1104 9.34133 5.47551 20.5475
414 1 -1.1104 6.61375 8.27675 20.8427
425 1 -1.1104 6.62366 5.3723 20.6499
470 1 -1.1104 0.914842 13.5873 17.6576
471 1 -1.1104 0.753234 19.4032 17.9127
474 1 -1.1104 1.10943 13.7615 14.9935
476 1 -1.1104 0.878948 19.2048 14.9517
482 1 -1.1104 0.878975 16.4666 17.7976
484 2 2.2208 5.25773 15.3217 19.2196
485 2 2.2208 5.34135 20.7175 19.17
486 1 -1.1104 1.44481 16.3845 14.9981
490 1 -1.1104 3.79357 13.6191 17.71
491 1 -1.1104 3.41319 19.7104 18.0777
492 2 2.2208 2.38226 18.0121 19.2942
493 1 -1.1104 3.98199 13.9637 14.985
495 1 -1.1104 3.63053 19.3779 14.8235
497 2 2.2208 2.35504 14.981 16.5024
498 2 2.2208 2.38547 20.7652 16.3896
499 1 -1.1104 3.61716 16.3674 17.9701
502 1 -1.1104 9.43124 13.6701 23.3482
487 1 -1.1104 0.991354 16.5121 20.5742
622 2 2.2208 10.8675 20.7527 24.9682
478 1 -1.1104 6.61752 13.6433 15.0281
477 1 -1.1104 0.976296 19.3064 20.6925
500 1 -1.1104 3.78771 16.7493 20.6797
475 1 -1.1104 1.06134 13.7905 20.5521
494 1 -1.1104 3.70191 13.9975 20.5112
440 2 2.2208 2.41161 12.3189 13.6765
366 2 2.2208 5.35709 -4.47588 16.4952
9261 2 2.2208 -0.423458 9.54837 24.9134
472 1 -1.1104 6.59532 13.8028 17.7302
488 1 -1.1104 6.62817 16.606 15.0533
473 1 -1.1104 6.87275 19.5535 17.9075
483 1 -1.1104 6.94014 16.4806 17.8889
504 2 2.2208 10.8658 17.8361 16.394
505 1 -1.1104 12.3084 13.906 17.8328
506 1 -1.1104 12.3658 19.5092 17.9101
507 1 -1.1104 12.2189 13.7845 15.1551
509 1 -1.1104 12.2267 19.3611 15.0604
511 1 -1.1104 12.4951 16.7498 17.7469
512 2 2.2208 11.0057 15.1664 19.362
513 2 2.2208 10.923 20.8553 19.3159
514 1 -1.1104 12.3234 16.5263 14.9029
516 1 -1.1104 9.4149 13.9222 17.9798
517 1 -1.1104 9.55836 19.3584 18.0085
518 2 2.2208 8.01746 17.908 19.2148
519 1 -1.1104 9.3473 13.7926 15.1816
521 1 -1.1104 9.29831 19.2858 15.1011
523 2 2.2208 7.95317 15.1723 16.4527
524 2 2.2208 8.28178 20.7549 16.7188
525 1 -1.1104 9.76898 16.4589 17.7556
526 1 -1.1104 9.4558 16.5416 14.9607
9296 2 2.2208 13.6756 3.98847 27.5348
9262 2 2.2208 13.6442 1.21423 19.2449
479 1 -1.1104 6.59457 13.6797 20.6535
510 1 -1.1104 12.3823 19.3105 20.7253
590 2 2.2208 13.6355 20.6784 16.3505
520 1 -1.1104 9.59273 13.8184 20.6485
527 1 -1.1104 9.50783 16.5268 20.5343
351 1 -1.1104 1.11 -0.27858 20.7682
360 1 -1.1104 3.72006 2.42327 20.6795
341 1 -1.1104 1.09976 2.55282 20.7633
531 2 2.2208 5.15525 0.991478 21.8535
532 1 -1.1104 0.860028 -3.168 23.5145
533 1 -1.1104 1.04375 2.61597 23.6235
536 1 -1.1104 0.98163 -3.25914 26.2677
537 1 -1.1104 1.00274 2.51563 26.4228
540 1 -1.1104 0.937054 -0.13513 23.5525
542 2 2.2208 5.22662 -1.6857 24.7773
543 2 2.2208 5.29261 3.9985 24.8466
544 1 -1.1104 1.04202 -0.441708 26.3904
546 1 -1.1104 3.76236 -3.11913 23.4447
547 1 -1.1104 3.90362 2.52477 23.4539
548 2 2.2208 2.41008 1.22795 24.8795
549 1 -1.1104 3.77472 -3.11007 26.1785
550 1 -1.1104 3.88259 2.62004 26.2852
551 2 2.2208 2.40446 -1.76341 22.1623
552 2 2.2208 2.47989 3.91709 22.0846
553 1 -1.1104 3.82033 -0.305267 23.3771
554 1 -1.1104 3.92011 -0.268635 26.1968
594 1 -1.1104 12.3101 19.5065 26.2745
538 1 -1.1104 6.66689 -3.11717 26.2824
541 1 -1.1104 6.6538 -0.335282 23.3176
535 1 -1.1104 6.59228 2.48267 23.4072
545 1 -1.1104 6.59962 -0.291594 26.2651
534 1 -1.1104 6.57801 -3.08156 23.4487
398 2 2.2208 13.6417 20.9894 27.7408
480 2 2.2208 13.6541 9.59095 16.4452
390 1 -1.1104 9.43622 -3.15275 20.7676
385 1 -1.1104 12.1748 -0.230748 20.5952
345 1 -1.1104 6.52313 2.53529 20.6286
539 1 -1.1104 6.70129 2.60205 26.1351
567 2 2.2208 10.7878 1.26259 22.0348
568 1 -1.1104 12.1467 -3.06775 23.3732
569 1 -1.1104 12.1702 2.35474 23.4129
570 1 -1.1104 12.2239 -3.0063 26.2753
571 1 -1.1104 12.3494 2.52054 26.2222
572 1 -1.1104 12.14 -0.404687 23.4486
573 2 2.2208 10.7633 -1.71344 24.9225
574 2 2.2208 10.8664 3.84715 24.78
575 1 -1.1104 12.2216 -0.321691 26.2027
576 1 -1.1104 9.32838 -2.94922 23.5304
577 1 -1.1104 9.29682 2.75806 23.312
578 2 2.2208 7.88953 0.997037 24.8287
579 1 -1.1104 9.55499 -3.10887 26.3941
580 1 -1.1104 9.64595 2.41571 26.228
581 2 2.2208 8.08343 -1.71143 21.924
582 2 2.2208 7.87144 3.92873 21.9334
583 1 -1.1104 9.39045 -0.204817 23.3842
584 1 -1.1104 9.40772 -0.370355 26.165
585 2 2.2208 10.9571 0.94517 27.6227
9298 2 2.2208 13.5572 -1.66679 21.9323
9297 2 2.2208 13.5756 1.02409 24.7279
565 2 2.2208 7.97696 20.7653 27.6817
587 2 2.2208 8.1359 3.74591 27.4201
557 2 2.2208 7.93344 17.9624 24.8627
437 1 -1.1104 3.92866 5.25965 20.6411
423 1 -1.1104 0.966282 10.997 20.7785
596 2 2.2208 5.35239 6.63034 22.1412
597 2 2.2208 5.10576 12.4261 22.1301
598 1 -1.1104 1.04354 8.50011 23.445
600 1 -1.1104 0.786758 8.00445 26.317
602 1 -1.1104 0.967464 5.55886 23.5827
605 2 2.2208 5.42112 9.47787 24.7623
606 1 -1.1104 1.01267 5.36823 26.3554
607 1 -1.1104 1.10022 10.6998 26.1239
610 1 -1.1104 3.9828 8.0354 23.3542
611 2 2.2208 2.29798 6.90404 24.8398
612 1 -1.1104 3.73422 8.40358 26.197
613 2 2.2208 2.50147 9.65674 21.9581
614 1 -1.1104 3.93112 5.26318 23.4118
615 1 -1.1104 3.74998 10.8348 23.4114
616 1 -1.1104 3.77078 5.52829 26.2039
609 1 -1.1104 6.3266 10.9998 26.1169
601 1 -1.1104 6.69887 8.06581 26.1897
617 2 2.2208 5.1286 6.79879 27.5791
608 1 -1.1104 6.57753 5.17683 26.6549
603 1 -1.1104 6.65298 5.33424 23.6016
599 1 -1.1104 6.77244 7.98105 23.5186
604 1 -1.1104 6.53725 11.0158 23.3957
589 2 2.2208 -0.360474 20.6636 19.2372
460 1 -1.1104 9.49021 8.18824 20.5024
672 2 2.2208 5.28985 17.8803 27.806
453 1 -1.1104 12.1688 5.16925 20.6589
624 1 -1.1104 9.22781 10.8721 26.2268
625 1 -1.1104 9.44951 5.19218 26.1433
626 1 -1.1104 9.4239 10.8623 23.5303
627 1 -1.1104 9.42539 5.23296 23.5293
628 2 2.2208 7.91881 9.71656 22.045
629 1 -1.1104 9.52331 7.96407 25.9716
630 2 2.2208 7.92971 12.3518 25.0712
631 2 2.2208 8.17928 6.70606 24.8593
632 2 2.2208 10.7853 6.66904 21.9311
633 2 2.2208 10.8321 12.341 22.1906
634 1 -1.1104 12.1343 8.04108 23.4081
635 1 -1.1104 12.2176 8.19505 26.316
636 1 -1.1104 12.1817 5.32652 23.5241
637 1 -1.1104 12.2779 10.9393 23.4384
638 2 2.2208 10.8418 9.5375 24.8382
639 1 -1.1104 12.1845 5.35072 26.2855
640 1 -1.1104 12.3003 11.0045 26.2474
641 1 -1.1104 9.42412 8.08625 23.0841
671 2 2.2208 2.4744 20.8859 27.7683
588 1 -1.1104 12.2796 13.8717 23.4423
593 1 -1.1104 12.3192 13.9377 26.1812
368 2 2.2208 -0.309572 1.01529 16.4283
522 1 -1.1104 9.36881 19.4068 20.8221
559 1 -1.1104 6.63993 19.316 26.3511
586 2 2.2208 7.99829 -1.68039 27.6617
508 1 -1.1104 12.4034 13.6547 20.7314
496 1 -1.1104 3.88892 19.3309 20.6738
655 1 -1.1104 6.75962 19.3919 23.4177
673 2 2.2208 2.5234 15.1439 27.7532
666 1 -1.1104 6.60501 16.6156 23.5117
648 1 -1.1104 3.94747 19.4022 23.3657
650 1 -1.1104 4.1152 14.2039 23.1825
652 1 -1.1104 1.08913 19.4296 26.3019
653 1 -1.1104 1.01478 16.6985 26.2462
654 1 -1.1104 0.944563 13.8825 26.5327
656 2 2.2208 5.227 20.7542 24.8792
657 2 2.2208 5.18738 15.2437 24.9045
659 1 -1.1104 1.19347 19.3445 23.4679
660 1 -1.1104 0.898116 13.821 23.4012
661 2 2.2208 5.2066 17.9023 22.0307
662 1 -1.1104 3.89691 19.3444 26.3486
663 2 2.2208 2.37641 18.0271 24.9216
664 1 -1.1104 3.73973 16.5503 26.436
665 1 -1.1104 4.05895 13.7916 26.4951
667 1 -1.1104 0.946766 16.6634 23.3837
668 1 -1.1104 3.73802 16.7491 23.5127
669 2 2.2208 2.59243 20.7821 22.0131
670 2 2.2208 2.5095 15.2791 22.0305
649 1 -1.1104 6.85412 13.8856 26.4436
658 1 -1.1104 6.70987 13.7301 23.5901
618 1 -1.1104 9.50816 13.6739 26.2858
646 1 -1.1104 9.29216 16.5416 26.1965
595 1 -1.1104 12.5091 16.7065 23.4531
528 1 -1.1104 9.35749 19.3268 23.7656
621 2 2.2208 10.8356 15.1663 24.7439
566 2 2.2208 10.9293 17.9851 22.0761
623 1 -1.1104 12.1212 16.7138 26.3612
619 1 -1.1104 9.41282 19.4512 26.3982
592 1 -1.1104 12.2177 19.4536 23.4521
481 1 -1.1104 6.53556 19.3284 20.5546
329 2 2.2208 10.7668 6.63645 27.548
515 1 -1.1104 12.4039 16.6666 20.6252
642 2 2.2208 8.1369 15.0617 21.9867
643 2 2.2208 7.97604 20.8353 22.0477
651 1 -1.1104 6.57414 16.5629 26.3028
489 1 -1.1104 6.68795 16.5046 20.7501
9256 2 2.2208 13.5898 3.98656 16.344
402 2 2.2208 13.6846 -1.69633 16.4175
555 2 2.2208 5.18623 1.22064 27.5765
330 2 2.2208 8.09247 9.50483 27.5815
9260 2 2.2208 13.7087 0.95128 13.5103
8528 2 2.2208 10.8661 -4.44573 27.7452
9446 2 2.2208 13.6692 -1.66677 27.5331
620 2 2.2208 -0.249769 12.4093 27.6822
529 2 2.2208 10.9209 20.7674 13.6489
441 2 2.2208 5.21326 9.61481 13.6945
678 2 2.2208 5.26863 23.5182 5.26241
679 2 2.2208 5.16048 29.3181 5.37601
680 1 -1.1104 1.20823 25.0419 1.26538
681 1 -1.1104 1.21531 24.8617 4.01301
682 1 -1.1104 1.16567 22.4082 1.21076
683 1 -1.1104 0.99312 27.808 1.07641
684 2 2.2208 5.24756 26.5166 2.59342
685 1 -1.1104 1.0402 22.131 4.00127
686 1 -1.1104 0.813776 27.7629 4.10141
687 1 -1.1104 3.87174 24.9119 1.10922
688 2 2.2208 2.62012 23.4775 2.40487
689 2 2.2208 2.48467 29.2492 2.45352
690 1 -1.1104 4.00087 24.8783 3.75482
691 2 2.2208 2.6811 26.207 5.18482
692 1 -1.1104 4.04106 22.093 1.03534
693 1 -1.1104 3.70974 27.684 1.11825
694 1 -1.1104 3.96459 22.1414 3.77555
695 1 -1.1104 3.66701 27.8045 3.82845
826 1 -1.1104 3.79116 27.6058 6.62703
700 1 -1.1104 6.67962 24.958 3.86738
971 2 2.2208 8.0296 43.2467 11.0102
699 1 -1.1104 6.67831 25.1245 1.16429
703 1 -1.1104 6.76234 22.0985 3.7999
820 1 -1.1104 6.72604 24.9746 6.6637
702 1 -1.1104 6.55209 27.8812 1.02003
825 1 -1.1104 3.85502 22.1349 6.69542
821 1 -1.1104 1.15971 22.2266 6.6445
824 1 -1.1104 4.04074 24.8964 6.58519
823 1 -1.1104 6.60908 27.8469 6.592
982 2 2.2208 13.7896 43.059 5.36815
1549 1 -1.1104 6.74869 47.3646 6.74762
704 1 -1.1104 6.5873 27.8449 3.83689
701 1 -1.1104 6.69305 22.1981 1.03007
705 2 2.2208 10.897 23.5217 5.27363
706 2 2.2208 10.9384 29.138 5.27747
707 1 -1.1104 12.206 25.0686 0.855333
708 1 -1.1104 12.3072 24.8665 3.76378
709 1 -1.1104 12.2055 22.4021 1.10093
710 1 -1.1104 12.1813 27.8848 0.809513
711 2 2.2208 10.864 26.4288 2.45195
712 1 -1.1104 12.2788 22.1259 3.88397
713 1 -1.1104 12.314 27.6732 3.74462
714 1 -1.1104 9.43599 24.9843 0.952892
715 2 2.2208 8.11707 23.6545 2.48387
716 2 2.2208 8.07714 29.2154 2.29759
717 1 -1.1104 9.49134 25.0374 3.85867
718 2 2.2208 7.97926 26.428 5.28403
719 1 -1.1104 9.30618 22.2217 1.06236
720 1 -1.1104 9.38151 27.7764 1.01216
721 1 -1.1104 9.57127 22.184 3.8761
722 1 -1.1104 9.49151 27.7246 3.84805
851 1 -1.1104 12.3027 27.7045 6.72872
852 1 -1.1104 9.57838 25.0484 6.63079
1399 1 -1.1104 12.3791 47.4677 3.90117
988 2 2.2208 -0.424641 34.679 10.9624
987 2 2.2208 -0.287374 31.8385 7.98626
727 2 2.2208 5.23286 34.8096 5.25651
728 1 -1.1104 0.970743 30.5763 0.924604
729 1 -1.1104 1.01384 36.2307 1.13297
731 1 -1.1104 1.0684 30.7387 3.74699
732 1 -1.1104 1.01133 36.2934 3.69768
734 1 -1.1104 1.05216 33.3663 1.1712
735 2 2.2208 5.29629 32.0613 2.47614
736 2 2.2208 5.07898 37.7369 2.53497
737 1 -1.1104 1.13237 33.5099 3.95472
739 1 -1.1104 3.93523 30.5373 0.947767
740 1 -1.1104 3.87881 36.2588 1.05058
741 2 2.2208 2.49768 34.8842 2.47716
742 1 -1.1104 3.83322 30.5872 3.72897
743 1 -1.1104 3.82286 36.2893 4.0391
744 2 2.2208 2.4171 32.0309 5.38254
745 2 2.2208 2.41753 37.7181 5.37292
746 1 -1.1104 3.82707 33.4245 0.987575
747 1 -1.1104 3.84682 33.4794 3.76073
879 1 -1.1104 4.02096 30.8975 6.50751
873 1 -1.1104 0.919068 30.5819 6.63953
730 1 -1.1104 6.74015 36.0795 1.17053
752 1 -1.1104 6.66652 33.3844 1.16226
750 1 -1.1104 6.76094 30.662 0.956414
880 1 -1.1104 3.76511 36.3209 6.7679
874 1 -1.1104 1.09952 36.2286 6.61322
881 1 -1.1104 3.79013 33.5802 6.71997
875 1 -1.1104 6.64989 30.6479 6.79337
738 1 -1.1104 6.85616 33.4309 4.04513
1010 2 2.2208 5.36353 34.7666 -0.312574
968 1 -1.1104 9.49147 39.1476 9.69088
733 1 -1.1104 6.63002 36.4349 3.89573
751 1 -1.1104 6.58108 30.6561 3.9424
753 2 2.2208 10.9225 34.8432 5.18245
754 1 -1.1104 12.4163 30.6484 1.1731
755 1 -1.1104 12.4313 36.1617 1.09291
756 1 -1.1104 12.3291 30.558 3.88031
757 1 -1.1104 12.3406 36.2255 3.96568
758 1 -1.1104 12.434 33.4352 0.979877
759 2 2.2208 10.962 31.9104 2.44848
760 2 2.2208 11.0268 37.6859 2.32433
761 1 -1.1104 12.3868 33.3842 3.73424
762 1 -1.1104 9.55977 30.6152 0.988321
763 1 -1.1104 9.54793 36.1566 1.13908
764 2 2.2208 8.20563 34.8225 2.53805
765 1 -1.1104 9.63097 30.5705 3.86167
766 1 -1.1104 9.53704 36.1863 3.89806
767 2 2.2208 8.17321 32.0473 5.45301
768 2 2.2208 8.07236 37.7227 5.20292
769 1 -1.1104 9.52316 33.3927 1.12132
770 1 -1.1104 9.65775 33.289 4.00583
910 1 -1.1104 9.51754 30.5666 6.88851
912 1 -1.1104 9.54693 33.3259 6.71059
911 1 -1.1104 9.44328 36.287 6.69022
907 1 -1.1104 12.2327 30.6412 6.74432
1018 2 2.2208 10.843 46.1276 -0.25656
813 1 -1.1104 9.22037 38.9099 1.24327
909 1 -1.1104 12.2856 33.3923 6.60291
908 1 -1.1104 12.2564 36.2685 6.9405
1566 1 -1.1104 3.89125 47.5292 12.2806
981 2 2.2208 13.7155 37.6495 5.52691
1013 2 2.2208 10.9599 34.7492 -0.278368
1011 2 2.2208 8.07459 37.5311 -0.121692
1357 1 -1.1104 6.87743 47.5104 1.02134
778 1 -1.1104 1.03566 39.0643 0.971032
772 2 2.2208 5.46833 40.4953 5.40076
773 2 2.2208 5.26536 46.0911 5.29861
774 1 -1.1104 1.05178 41.9205 0.915533