LAMMPS (29 Oct 2020)
OMP_NUM_THREADS environment is not set. Defaulting to 1 thread. (../comm.cpp:94)
  using 1 OpenMP thread(s) per MPI task
OMP_NUM_THREADS environment is not set. Defaulting to 1 thread. (../comm.cpp:94)
  using 1 OpenMP thread(s) per MPI task
Reading data file ...
  orthogonal box = (-0.27717828 -3.4472206 -0.27717828) to (27.617178 331.52722 27.617178)
  2 by 13 by 2 MPI processor grid
  reading atoms ...
  18000 atoms
  reading velocities ...
  18000 velocities
Finding 1-2 1-3 1-4 neighbors ...
  special bond factors lj:    0.0      0.0      0.0     
  special bond factors coul:  0.0      0.0      0.0     
     0 = max # of 1-2 neighbors
     0 = max # of 1-3 neighbors
     0 = max # of 1-4 neighbors
     1 = max # of special neighbors
  special bonds CPU = 0.004 seconds
  read_data CPU = 0.058 seconds
90 atoms in group Th
90 atoms in group O
Setting atom values ...
  90 settings made for type
Setting atom values ...
  90 settings made for type
Setting atom values ...
  12000 settings made for charge
Setting atom values ...
  6000 settings made for charge
PPPM initialization ...
  using 12-bit tables for long-range coulomb (../kspace.cpp:328)
  G vector (1/distance) = 0.2991486
  grid = 40 240 40
  stencil order = 5
  estimated absolute RMS force accuracy = 0.00015521489
  estimated relative force accuracy = 1.0779078e-05
  using single precision MKL FFT
  3d grid and FFT values/proc = 18225 7600
Neighbor list info ...
  update every 1 steps, delay 0 steps, check yes
  max neighbors/atom: 2000, page size: 100000
  master list distance cutoff = 13
  ghost atom cutoff = 13
  binsize = 6.5, bins = 5 52 5
  2 neighbor lists, perpetual/occasional/extra = 2 0 0
  (1) pair coul/long, perpetual
      attributes: half, newton on
      pair build: half/bin/newton
      stencil: half/bin/3d/newton
      bin: standard
  (2) pair eam/alloy, perpetual, copy from (1)
      attributes: half, newton on
      pair build: copy
      stencil: none
      bin: none
Setting up cg style minimization ...
  Unit style    : metal
  Current step  : 0
WARNING: Energy due to 3 extra global DOFs will be included in minimizer energies
Per MPI rank memory allocation (min/avg/max) = 9.513 | 10.22 | 10.28 Mbytes
Step Temp E_pair E_mol TotEng Press Volume 
       0            0   -223404.58            0   -223404.58    42412.933    260641.98 
    2280            0   -233823.48            0   -233823.48    105.65732    268728.24 
Loop time of 35.7629 on 52 procs for 2280 steps with 18000 atoms

99.8% CPU use with 52 MPI tasks x 1 OpenMP threads

Minimization stats:
  Stopping criterion = linesearch alpha is zero
  Energy initial, next-to-last, final = 
     -223404.575643803  -233823.482933581  -233823.482933581
  Force two-norm initial, final = 13098.711 41.933406
  Force max component initial, final = 10141.283 23.339802
  Final line search alpha, max atom move = 5.1075535e-12 1.1920929e-10
  Iterations, force evaluations = 2280 3212

MPI task timing breakdown:
Section |  min time  |  avg time  |  max time  |%varavg| %total
---------------------------------------------------------------
Pair    | 20.601     | 21.389     | 22.221     |   9.6 | 59.81
Bond    | 0.00029765 | 0.00042138 | 0.00067092 |   0.0 |  0.00
Kspace  | 6.0586     | 6.8917     | 7.6889     |  17.2 | 19.27
Neigh   | 0.068859   | 0.079306   | 0.090634   |   2.0 |  0.22
Comm    | 0.69802    | 0.72213    | 0.74604    |   1.3 |  2.02
Output  | 0          | 0          | 0          |   0.0 |  0.00
Modify  | 0          | 0          | 0          |   0.0 |  0.00
Other   |            | 6.681      |            |       | 18.68

Nlocal:        346.154 ave         392 max         306 min
Histogram: 4 6 8 6 2 7 7 7 2 3
Nghost:        5596.48 ave        5699 max        5479 min
Histogram: 1 9 5 8 0 1 6 10 10 2
Neighs:       109443.0 ave      124465 max       97193 min
Histogram: 5 6 6 7 4 8 7 4 3 2

Total # of neighbors = 5691040
Ave neighs/atom = 316.16889
Ave special neighs/atom = 0.0000000
Neighbor list builds = 27
Dangerous builds = 0
PPPM initialization ...
  using 12-bit tables for long-range coulomb (../kspace.cpp:328)
  G vector (1/distance) = 0.29864975
  grid = 40 240 40
  stencil order = 5
  estimated absolute RMS force accuracy = 0.00015893325
  estimated relative force accuracy = 1.1037303e-05
  using single precision MKL FFT
  3d grid and FFT values/proc = 18225 7600
Setting up Verlet run ...
  Unit style    : metal
  Current step  : 0
  Time step     : 0.001
Per MPI rank memory allocation (min/avg/max) = 10.38 | 10.41 | 10.42 Mbytes
Step Dt Time Atoms Temp PotEng KinEng Press Volume v_latt 
       0        0.001            0    18000          600   -233823.49     1395.932    5653.7515    268728.24    5.6373768 
   10000        0.001           10    18000    601.85375   -234355.74    1400.2449     57.35875    268483.46    5.6356252 
   20000        0.001           20    18000    600.61615   -234396.72    1397.3655    46.573891    268394.24    5.6350011 
   30000        0.001           30    18000    601.46746   -234432.92    1399.3461   -342.04333    268346.02    5.6346633 
   40000        0.001           40    18000     602.6015   -234421.39    1401.9845   -1234.7306    268526.72    5.6359278 
   50000        0.001           50    18000    598.85611   -234445.42    1393.2707   -412.11029    268353.71    5.6347171 
   60000        0.001           60    18000     603.9208   -234450.21     1405.054    756.03362    268140.54     5.633225 
   70000        0.001           70    18000    607.93142   -234466.38    1414.3849    101.25286    268237.84     5.633906 
   80000        0.001           80    18000    598.91636   -234468.15    1393.4109   -353.77514    268257.92    5.6340466 
   90000        0.001           90    18000    605.06616   -234477.88    1407.7187    1096.9912    268002.64    5.6322591 
  100000        0.001          100    18000    602.38242   -234445.71    1401.4748   -1591.8742    268483.56    5.6356261 
Loop time of 880.565 on 52 procs for 100000 steps with 18000 atoms

Performance: 9.812 ns/day, 2.446 hours/ns, 113.563 timesteps/s
99.8% CPU use with 52 MPI tasks x 1 OpenMP threads

MPI task timing breakdown:
Section |  min time  |  avg time  |  max time  |%varavg| %total
---------------------------------------------------------------
Pair    | 533.13     | 547.97     | 563.75     |  27.8 | 62.23
Bond    | 0.010279   | 0.014227   | 0.019582   |   1.9 |  0.00
Kspace  | 181.1      | 196.96     | 212.06     |  46.9 | 22.37
Neigh   | 3.1147     | 3.2599     | 3.4371     |   4.4 |  0.37
Comm    | 24.518     | 25.232     | 26.327     |  11.2 |  2.87
Output  | 0.012621   | 0.012674   | 0.014655   |   0.2 |  0.00
Modify  | 92.856     | 98.2       | 103.8      |  27.9 | 11.15
Other   |            | 8.911      |            |       |  1.01

Nlocal:        346.154 ave         374 max         329 min
Histogram: 8 3 7 12 5 8 5 2 0 2
Nghost:        5588.12 ave        5720 max        5496 min
Histogram: 5 14 7 3 3 0 10 5 1 4
Neighs:       109228.0 ave      118142 max      102498 min
Histogram: 5 4 7 6 12 6 5 4 1 2

Total # of neighbors = 5679835
Ave neighs/atom = 315.54639
Ave special neighs/atom = 0.0000000
Neighbor list builds = 1108
Dangerous builds = 0
System init for write_data ...
PPPM initialization ...
  using 12-bit tables for long-range coulomb (../kspace.cpp:328)
  G vector (1/distance) = 0.29859986
  grid = 40 240 40
  stencil order = 5
  estimated absolute RMS force accuracy = 0.0001596652
  estimated relative force accuracy = 1.1088134e-05
  using single precision MKL FFT
  3d grid and FFT values/proc = 18225 7600
Total wall time: 0:15:16
