LAMMPS (29 Oct 2020)
OMP_NUM_THREADS environment is not set. Defaulting to 1 thread. (../comm.cpp:94)
  using 1 OpenMP thread(s) per MPI task
OMP_NUM_THREADS environment is not set. Defaulting to 1 thread. (../comm.cpp:94)
  using 1 OpenMP thread(s) per MPI task
Reading data file ...
  orthogonal box = (-0.48866221 -7.3228957 -0.48050073) to (27.828662 417.42290 27.820501)
  2 by 26 by 1 MPI processor grid
  reading atoms ...
  22500 atoms
  reading velocities ...
  22500 velocities
Finding 1-2 1-3 1-4 neighbors ...
  special bond factors lj:    0.0      0.0      0.0     
  special bond factors coul:  0.0      0.0      0.0     
     0 = max # of 1-2 neighbors
     0 = max # of 1-3 neighbors
     0 = max # of 1-4 neighbors
     1 = max # of special neighbors
  special bonds CPU = 0.003 seconds
  read_data CPU = 0.111 seconds
Setting atom values ...
  15000 settings made for charge
Setting atom values ...
  7500 settings made for charge
PPPM initialization ...
  using 12-bit tables for long-range coulomb (../kspace.cpp:328)
  G vector (1/distance) = 0.29762607
  grid = 40 288 40
  stencil order = 5
  estimated absolute RMS force accuracy = 0.00017122701
  estimated relative force accuracy = 1.1891058e-05
  using single precision MKL FFT
  3d grid and FFT values/proc = 19125 9600
Neighbor list info ...
  update every 1 steps, delay 0 steps, check yes
  max neighbors/atom: 2000, page size: 100000
  master list distance cutoff = 11.3
  ghost atom cutoff = 11.3
  binsize = 5.65, bins = 6 76 6
  2 neighbor lists, perpetual/occasional/extra = 2 0 0
  (1) pair coul/long, perpetual
      attributes: half, newton on
      pair build: half/bin/newton
      stencil: half/bin/3d/newton
      bin: standard
  (2) pair eam/alloy, perpetual, copy from (1)
      attributes: half, newton on
      pair build: copy
      stencil: none
      bin: none
Setting up Verlet run ...
  Unit style    : metal
  Current step  : 0
  Time step     : 0.001
Per MPI rank memory allocation (min/avg/max) = 8.259 | 8.283 | 8.341 Mbytes
Step Temp E_pair E_mol TotEng Press 
       0         1500   -291420.25            0   -287057.91    164.02163 
  100000    1508.2698   -291440.75            0   -287054.36   -416.47754 
Loop time of 829.359 on 52 procs for 100000 steps with 22500 atoms

Performance: 10.418 ns/day, 2.304 hours/ns, 120.575 timesteps/s
99.8% CPU use with 52 MPI tasks x 1 OpenMP threads

MPI task timing breakdown:
Section |  min time  |  avg time  |  max time  |%varavg| %total
---------------------------------------------------------------
Pair    | 536.19     | 547.93     | 562.42     |  27.8 | 66.07
Bond    | 0.0086858  | 0.012118   | 0.019907   |   1.9 |  0.00
Kspace  | 181.66     | 197.54     | 210.86     |  55.7 | 23.82
Neigh   | 53.833     | 57.05      | 60.379     |  23.9 |  6.88
Comm    | 18.579     | 20.152     | 22.914     |  22.5 |  2.43
Output  | 5.1964e-05 | 5.7456e-05 | 0.00026784 |   0.0 |  0.00
Modify  | 2.2518     | 4.6693     | 7.2052     |  60.9 |  0.56
Other   |            | 2.005      |            |       |  0.24

Nlocal:        432.692 ave         456 max         401 min
Histogram: 4 3 2 2 7 9 5 7 7 6
Nghost:        4366.79 ave        4460 max        4245 min
Histogram: 3 4 2 3 8 6 9 4 7 6
Neighs:        87065.0 ave       92043 max       79717 min
Histogram: 2 1 5 2 7 8 7 7 8 5

Total # of neighbors = 4527381
Ave neighs/atom = 201.21693
Ave special neighs/atom = 0.0000000
Neighbor list builds = 25044
Dangerous builds = 0
15000 atoms in group oxygen
PPPM initialization ...
  using 12-bit tables for long-range coulomb (../kspace.cpp:328)
  G vector (1/distance) = 0.29762607
  grid = 40 288 40
  stencil order = 5
  estimated absolute RMS force accuracy = 0.00017122701
  estimated relative force accuracy = 1.1891058e-05
  using single precision MKL FFT
  3d grid and FFT values/proc = 19125 9600
Setting up Verlet run ...
  Unit style    : metal
  Current step  : 0
  Time step     : 0.001
Per MPI rank memory allocation (min/avg/max) = 8.510 | 8.534 | 8.592 Mbytes
Step f_2 Temp v_Tdiff v_deltaT 
       0            0    1508.2698            0            0 
  100000    1639.4054    1509.0105  0.068846224    799.29827 
  200000    3162.4443    1498.4834  0.083785148    972.73779 
  300000    4668.0919    1502.4306  0.088216938    1024.1905 
  400000    6175.8346    1505.1627  0.088706032    1029.8688 
  500000     7682.745    1502.7258  0.087022577     1010.324 
  600000    9192.9693    1513.3633   0.08751674    1016.0612 
  700000    10678.166     1499.309  0.088849671    1031.5364 
  800000    12180.308     1503.592   0.08874949    1030.3733 
  900000    13699.235    1506.8058  0.085631054    994.16859 
 1000000    15181.155    1495.3343  0.087626929    1017.3405 
 1100000     16670.25    1523.1035  0.087236532     1012.808 
 1200000    18181.419    1500.3403  0.089074401    1034.1455 
 1300000     19690.19    1504.6767  0.087115394    1011.4016 
 1400000    21199.034    1512.5227  0.087172363     1012.063 
 1500000    22690.734    1497.1959  0.088590679    1028.5296 
Loop time of 12362.6 on 52 procs for 1500000 steps with 22500 atoms

Performance: 10.483 ns/day, 2.289 hours/ns, 121.333 timesteps/s
99.8% CPU use with 52 MPI tasks x 1 OpenMP threads

MPI task timing breakdown:
Section |  min time  |  avg time  |  max time  |%varavg| %total
---------------------------------------------------------------
Pair    | 7941.7     | 8127       | 8263.6     |  94.5 | 65.74
Bond    | 0.12704    | 0.18111    | 0.25197    |   6.5 |  0.00
Kspace  | 2793.6     | 2974.2     | 3187.3     | 184.4 | 24.06
Neigh   | 804.03     | 870.51     | 912.11     |  95.0 |  7.04
Comm    | 281.98     | 303.75     | 357.97     |  93.8 |  2.46
Output  | 0.0017481  | 0.0018568  | 0.0036426  |   0.6 |  0.00
Modify  | 9.8514     | 12.795     | 14.959     |  37.0 |  0.10
Other   |            | 74.18      |            |       |  0.60

Nlocal:        432.692 ave         453 max         401 min
Histogram: 4 3 3 2 3 9 5 6 6 11
Nghost:        4361.06 ave        4439 max        4250 min
Histogram: 4 5 3 2 2 6 9 4 10 7
Neighs:        87041.2 ave       91896 max       80204 min
Histogram: 3 3 3 4 5 7 8 6 8 5

Total # of neighbors = 4526144
Ave neighs/atom = 201.16196
Ave special neighs/atom = 0.0000000
Neighbor list builds = 382371
Dangerous builds = 0
Total wall time: 3:39:52
