LAMMPS (29 Oct 2020)
OMP_NUM_THREADS environment is not set. Defaulting to 1 thread. (../comm.cpp:94)
  using 1 OpenMP thread(s) per MPI task
OMP_NUM_THREADS environment is not set. Defaulting to 1 thread. (../comm.cpp:94)
  using 1 OpenMP thread(s) per MPI task
Reading data file ...
  orthogonal box = (-0.48646978 -6.0274787 -0.49010547) to (27.826470 334.10748 27.830105)
  2 by 13 by 2 MPI processor grid
  reading atoms ...
  17640 atoms
  reading velocities ...
  17640 velocities
Finding 1-2 1-3 1-4 neighbors ...
  special bond factors lj:    0.0      0.0      0.0     
  special bond factors coul:  0.0      0.0      0.0     
     0 = max # of 1-2 neighbors
     0 = max # of 1-3 neighbors
     0 = max # of 1-4 neighbors
     1 = max # of special neighbors
  special bonds CPU = 0.004 seconds
  read_data CPU = 0.067 seconds
Setting atom values ...
  11760 settings made for charge
Setting atom values ...
  5880 settings made for charge
PPPM initialization ...
  using 12-bit tables for long-range coulomb (../kspace.cpp:328)
  G vector (1/distance) = 0.29827915
  grid = 40 240 40
  stencil order = 5
  estimated absolute RMS force accuracy = 0.00016060426
  estimated relative force accuracy = 1.1153348e-05
  using single precision MKL FFT
  3d grid and FFT values/proc = 15000 7600
Neighbor list info ...
  update every 1 steps, delay 0 steps, check yes
  max neighbors/atom: 2000, page size: 100000
  master list distance cutoff = 11.3
  ghost atom cutoff = 11.3
  binsize = 5.65, bins = 6 61 6
  2 neighbor lists, perpetual/occasional/extra = 2 0 0
  (1) pair coul/long, perpetual
      attributes: half, newton on
      pair build: half/bin/newton
      stencil: half/bin/3d/newton
      bin: standard
  (2) pair eam/alloy, perpetual, copy from (1)
      attributes: half, newton on
      pair build: copy
      stencil: none
      bin: none
Setting up Verlet run ...
  Unit style    : metal
  Current step  : 0
  Time step     : 0.001
Per MPI rank memory allocation (min/avg/max) = 8.138 | 8.163 | 8.177 Mbytes
Step Temp E_pair E_mol TotEng Press 
       0         1500   -227978.53            0    -224558.5   -522.68475 
   50000    1514.0415   -228017.25            0    -224565.2   -1656.5613 
Loop time of 331.624 on 52 procs for 50000 steps with 17640 atoms

Performance: 13.027 ns/day, 1.842 hours/ns, 150.773 timesteps/s
99.8% CPU use with 52 MPI tasks x 1 OpenMP threads

MPI task timing breakdown:
Section |  min time  |  avg time  |  max time  |%varavg| %total
---------------------------------------------------------------
Pair    | 217.25     | 224.73     | 232.81     |  25.4 | 67.77
Bond    | 0.002946   | 0.0051435  | 0.0070811  |   1.4 |  0.00
Kspace  | 63.218     | 73.543     | 82.5       |  55.6 | 22.18
Neigh   | 21.184     | 23.177     | 25.05      |  20.0 |  6.99
Comm    | 7.4491     | 8.0086     | 9.1187     |  14.3 |  2.41
Output  | 5.4928e-05 | 5.9793e-05 | 0.00026731 |   0.0 |  0.00
Modify  | 0.89459    | 1.5035     | 2.4601     |  41.5 |  0.45
Other   |            | 0.6549     |            |       |  0.20

Nlocal:        339.231 ave         368 max         314 min
Histogram: 4 4 6 8 6 8 3 7 5 1
Nghost:        3911.00 ave        4033 max        3772 min
Histogram: 1 2 8 4 10 8 7 4 3 5
Neighs:        66906.3 ave       74818 max       58967 min
Histogram: 4 2 5 10 5 6 10 4 2 4

Total # of neighbors = 3479130
Ave neighs/atom = 197.22959
Ave special neighs/atom = 0.0000000
Neighbor list builds = 12501
Dangerous builds = 0
11760 atoms in group oxygen
PPPM initialization ...
  using 12-bit tables for long-range coulomb (../kspace.cpp:328)
  G vector (1/distance) = 0.29827915
  grid = 40 240 40
  stencil order = 5
  estimated absolute RMS force accuracy = 0.00016060426
  estimated relative force accuracy = 1.1153348e-05
  using single precision MKL FFT
  3d grid and FFT values/proc = 15000 7600
Setting up Verlet run ...
  Unit style    : metal
  Current step  : 0
  Time step     : 0.001
Per MPI rank memory allocation (min/avg/max) = 8.390 | 8.414 | 8.428 Mbytes
Step f_2 Temp v_Tdiff v_deltaT 
       0            0    1514.0415            0            0 
  100000    1581.3787    1499.3057  0.071003449    824.34345 
  200000    3019.9163    1508.3478  0.088264167    1024.7388 
  300000    4462.1161    1517.5466  0.084831943    984.89098 
  400000    5907.6337    1497.5467  0.086534431    1004.6567 
  500000    7349.0467    1509.3277  0.086816422    1007.9306 
  600000    8795.4547    1497.6906  0.085403933    991.53173 
  700000    10241.725    1510.4703  0.086008378    998.54928 
  800000    11677.127    1502.0811   0.08673993    1007.0425 
  900000     13124.19    1505.8983  0.085781318    995.91313 
 1000000    14565.899    1502.4381  0.087407641    1014.7946 
Loop time of 6537.02 on 52 procs for 1000000 steps with 17640 atoms

Performance: 13.217 ns/day, 1.816 hours/ns, 152.975 timesteps/s
99.8% CPU use with 52 MPI tasks x 1 OpenMP threads

MPI task timing breakdown:
Section |  min time  |  avg time  |  max time  |%varavg| %total
---------------------------------------------------------------
Pair    | 4272.9     | 4410.7     | 4571.2     | 109.7 | 67.47
Bond    | 0.068486   | 0.1017     | 0.1352     |   4.9 |  0.00
Kspace  | 1284.8     | 1460.4     | 1623.9     | 225.3 | 22.34
Neigh   | 432.47     | 467.15     | 507.03     |  72.2 |  7.15
Comm    | 148.31     | 162.42     | 197.49     |  95.2 |  2.48
Output  | 0.001097   | 0.0011703  | 0.002435   |   0.5 |  0.00
Modify  | 5.2849     | 5.7739     | 6.3605     |  11.3 |  0.09
Other   |            | 30.41      |            |       |  0.47

Nlocal:        339.231 ave         371 max         316 min
Histogram: 4 3 7 7 14 7 6 3 0 1
Nghost:        3894.33 ave        4019 max        3793 min
Histogram: 4 3 6 10 10 3 9 3 2 2
Neighs:        66896.5 ave       75517 max       59555 min
Histogram: 5 3 5 7 8 7 10 5 1 1

Total # of neighbors = 3478616
Ave neighs/atom = 197.20045
Ave special neighs/atom = 0.0000000
Neighbor list builds = 253549
Dangerous builds = 0
Total wall time: 1:54:29
