ITEM: TIMESTEP
80000
ITEM: NUMBER OF ATOMS
17820
ITEM: BOX BOUNDS pp pp pp
-3.6227084354708461e-01 2.7702270843547176e+01
-4.3865470285978958e+00 3.3246654702860354e+02
-3.5517175675575963e-01 2.7695171756756128e+01
ITEM: ATOMS id type q x y z
1 2 2.2208 5.00852 1.32216 4.98224
2 1 -1.1104 1.22205 -3.04446 0.976614
3 1 -1.1104 1.17599 2.49296 0.953643
6 1 -1.1104 1.07003 -2.96681 3.81967
7 1 -1.1104 0.928095 2.51757 3.8327
9 1 -1.1104 1.04759 -0.299843 1.01195
11 2 2.2208 5.09556 -1.67132 2.42596
13 1 -1.1104 0.962076 -0.332357 3.9562
15 1 -1.1104 3.80341 -3.01339 1.07785
16 1 -1.1104 3.83945 2.59746 0.958273
17 2 2.2208 2.32321 1.12071 2.38967
18 1 -1.1104 3.819 -3.06016 3.9775
20 2 2.2208 2.37358 -1.55135 5.41348
22 1 -1.1104 3.61623 -0.224038 0.99483
23 1 -1.1104 3.84367 -0.0886701 3.69423
21 2 2.2208 2.34727 4.02536 5.19165
76 1 -1.1104 3.83518 3.01368 3.68741
166 1 -1.1104 3.72254 2.32161 6.41526
12 2 2.2208 5.50682 3.88239 2.17175
19 1 -1.1104 6.49827 2.50221 3.66022
14 1 -1.1104 6.68325 -0.257612 4.02621
10 1 -1.1104 6.49923 -0.28223 1.12753
4 1 -1.1104 6.52513 -3.12316 1.10574
167 1 -1.1104 1.07488 -0.211284 6.73535
163 1 -1.1104 1.10185 -3.08482 6.68087
9012 2 2.2208 -0.263464 20.9329 13.7136
170 1 -1.1104 4.05302 -0.165168 6.59969
164 1 -1.1104 0.947764 2.54521 6.59363
165 1 -1.1104 6.60491 -2.54014 6.52271
168 1 -1.1104 3.76398 -3.01028 6.86111
8762 2 2.2208 13.7511 20.9223 5.26084
8 1 -1.1104 6.53601 -2.92788 3.77497
5 1 -1.1104 6.70384 2.34314 0.922694
314 2 2.2208 13.7859 12.3586 8.01594
31 2 2.2208 10.9077 1.1402 5.21694
32 1 -1.1104 12.2667 -2.98249 1.04461
33 1 -1.1104 12.2309 2.60064 0.968222
34 1 -1.1104 12.309 -3.12774 3.94467
35 1 -1.1104 12.3475 2.55937 3.86013
36 1 -1.1104 12.4566 -0.146241 1.13175
37 2 2.2208 10.9757 -1.61196 2.55373
38 2 2.2208 10.7857 3.95866 2.62422
39 1 -1.1104 12.3489 -0.208551 3.9701
40 1 -1.1104 9.45853 -2.99954 0.933315
41 1 -1.1104 9.38677 2.51733 1.03445
42 2 2.2208 8.00906 1.05094 2.48604
43 1 -1.1104 9.40586 -3.17294 3.84438
44 1 -1.1104 9.5376 2.40222 3.90065
45 2 2.2208 8.14704 -1.63187 5.10115
46 1 -1.1104 9.50508 -0.315864 1.22856
47 1 -1.1104 9.49313 -0.386664 3.83165
203 1 -1.1104 9.36337 -0.155753 6.47452
201 1 -1.1104 9.38546 -3.04338 6.60253
51 2 2.2208 13.6444 -1.60173 5.48722
50 2 2.2208 13.7666 1.29094 2.38302
198 1 -1.1104 12.1933 -2.94628 6.77891
9002 2 2.2208 13.6374 4.05099 5.3172
52 2 2.2208 5.23563 7.0278 5.05242
53 2 2.2208 5.342 12.5288 5.07929
54 1 -1.1104 0.939415 8.11671 1.0053
56 1 -1.1104 0.929433 8.22893 3.81718
58 1 -1.1104 0.909775 5.29979 0.859413
59 1 -1.1104 0.997916 10.8458 0.895378
64 2 2.2208 5.36856 9.77883 2.30488
65 1 -1.1104 1.16636 5.41308 3.80856
66 1 -1.1104 1.29246 11 3.68182
68 1 -1.1104 3.81896 8.26966 1.04852
69 2 2.2208 2.24365 6.85961 2.26753
70 2 2.2208 2.55601 12.3848 2.29865
71 1 -1.1104 3.70102 8.05357 3.72878
72 2 2.2208 2.56492 9.65376 5.06792
73 1 -1.1104 3.82208 5.47075 1.3213
74 1 -1.1104 3.86945 11.109 0.974071
77 1 -1.1104 4.08814 10.9476 3.77626
57 1 -1.1104 6.01232 5.72865 3.33291
230 1 -1.1104 3.776 5.67368 5.94292
61 1 -1.1104 6.67348 5.28808 0.401778
227 1 -1.1104 0.965556 5.41918 6.52825
62 1 -1.1104 6.71911 11.1624 1.0255
226 1 -1.1104 6.67505 8.42701 3.96014
225 1 -1.1104 1.11908 8.2618 6.63693
67 1 -1.1104 6.78211 11.2195 3.77158
319 2 2.2208 -0.518095 1.18503 5.20986
195 2 2.2208 8.1939 20.8205 10.7341
608 2 2.2208 5.2922 12.4583 -0.529923
320 2 2.2208 10.976 6.65855 -0.357857
55 1 -1.1104 6.69687 8.29359 1.11338
81 2 2.2208 10.8736 6.74807 5.26921
82 2 2.2208 10.8508 12.3531 5.16669
83 1 -1.1104 12.3208 8.22659 1.19863
84 1 -1.1104 12.2426 8.06906 3.95726
85 1 -1.1104 12.3362 5.39385 1.26954
86 1 -1.1104 12.2617 10.9571 1.21096
88 2 2.2208 10.9318 9.6626 2.43228
89 1 -1.1104 12.2297 5.32504 3.92739
90 1 -1.1104 12.4068 11.0463 3.9396
91 1 -1.1104 9.56555 8.06768 0.733249
92 2 2.2208 8.12538 6.74995 2.35207
93 2 2.2208 8.00751 12.5206 2.30981
94 1 -1.1104 9.51927 8.20821 3.67154
95 2 2.2208 8.22668 9.58333 5.3226
96 1 -1.1104 9.38149 5.23164 1.16211
97 1 -1.1104 9.4372 11.0795 1.05681
99 1 -1.1104 9.31332 5.42634 3.9173
100 1 -1.1104 9.53492 11.027 3.82292
101 2 2.2208 13.6648 12.4628 2.37122
102 2 2.2208 13.7133 6.87559 2.53011
192 2 2.2208 13.6926 9.59697 5.35201
98 1 -1.1104 9.44157 10.9487 6.72354
87 1 -1.1104 12.262 11.1659 6.61493
256 1 -1.1104 12.293 8.28073 6.89805
321 2 2.2208 8.0017 9.6855 -0.400661
103 2 2.2208 5.27903 18.0414 5.10862
104 1 -1.1104 1.17812 13.7579 1.06648
106 1 -1.1104 1.0491 19.4793 1.13391
110 1 -1.1104 1.00764 13.7484 3.87092
111 1 -1.1104 1.05231 19.5672 3.94832
113 1 -1.1104 1.12796 16.5224 0.94112
116 2 2.2208 5.33363 15.2296 2.41605
117 2 2.2208 5.2691 20.862 2.41193
118 1 -1.1104 1.08724 16.6966 3.77342
120 1 -1.1104 3.88116 13.8584 1.01239
122 1 -1.1104 3.95589 19.3789 0.939721
124 2 2.2208 2.65986 18.0563 2.4391
125 1 -1.1104 3.93095 13.778 3.73916
126 1 -1.1104 3.82745 19.4174 3.678
127 2 2.2208 2.37875 15.2385 5.13849
128 2 2.2208 2.46485 20.9821 5.28421
129 1 -1.1104 3.98805 16.5764 1.05392
131 1 -1.1104 3.96677 16.5969 3.74059
136 1 -1.1104 6.58726 19.5219 3.72229
137 1 -1.1104 6.72314 16.6686 0.97397
135 1 -1.1104 6.83497 19.6222 0.856784
107 1 -1.1104 6.70939 13.844 0.950368
105 1 -1.1104 1.04774 13.9464 6.60031
114 1 -1.1104 0.903142 16.6848 6.54017
293 1 -1.1104 1.11064 19.5001 6.84383
121 1 -1.1104 3.89393 13.9625 6.6068
123 1 -1.1104 3.81212 19.6143 6.60472
108 1 -1.1104 6.82967 13.6679 6.6157
130 1 -1.1104 3.67856 16.7097 6.63141
9163 2 2.2208 13.6533 18.1769 13.7816
119 1 -1.1104 6.65281 16.7611 3.81373
112 1 -1.1104 6.65706 13.9749 3.83227
115 1 -1.1104 6.70401 16.6667 6.55912
109 1 -1.1104 6.74683 19.4532 6.44205
8992 2 2.2208 13.8001 18.0752 2.3197
78 1 -1.1104 12.3261 16.6248 12.3252
138 2 2.2208 11.0426 18.1479 5.26975
139 1 -1.1104 12.2617 13.8327 1.03353
141 1 -1.1104 12.4098 19.3754 1.18231
143 1 -1.1104 12.2418 13.921 3.80509
144 1 -1.1104 12.3176 19.5037 3.84825
145 1 -1.1104 12.1725 16.6749 1.05424
147 2 2.2208 10.9586 15.3576 2.46807
148 2 2.2208 10.9007 20.9795 2.41059
149 1 -1.1104 12.4513 16.8378 3.85649
150 1 -1.1104 9.52938 13.8488 0.981966
152 1 -1.1104 9.54984 19.5433 1.12592
154 2 2.2208 8.12679 18.1611 2.28301
155 1 -1.1104 9.48108 13.7303 3.74365
156 1 -1.1104 9.5106 19.5322 3.84385
157 2 2.2208 8.21582 15.2185 5.17297
158 2 2.2208 8.15206 20.9087 5.21251
159 1 -1.1104 9.43036 16.73 1.05867
161 1 -1.1104 9.56319 16.6752 3.81671
160 1 -1.1104 9.64541 16.5764 6.56687
140 1 -1.1104 12.3573 13.7705 6.66923
153 1 -1.1104 9.6361 19.3435 6.62541
142 1 -1.1104 12.3547 19.7163 6.6074
151 1 -1.1104 9.53125 13.8393 6.55811
171 2 2.2208 5.05951 0.985529 10.8639
172 1 -1.1104 0.861171 -3.09075 12.3444
173 1 -1.1104 0.944381 2.59431 12.244
176 1 -1.1104 0.992482 -2.99314 9.482
177 1 -1.1104 3.88226 2.53043 9.41975
180 1 -1.1104 0.888653 -0.207824 12.3128
182 2 2.2208 5.06124 -1.53914 8.04054
183 1 -1.1104 0.853251 -0.273308 9.63594
184 1 -1.1104 3.75282 -3.15074 12.2784
185 1 -1.1104 3.81052 2.44902 12.318
186 2 2.2208 2.35022 1.32149 8.09407
187 1 -1.1104 3.74554 -3.01389 9.44428
188 2 2.2208 2.3608 -1.65968 10.9268
190 1 -1.1104 3.70326 -0.399937 12.2733
191 1 -1.1104 3.58325 -0.211646 9.41135
179 1 -1.1104 6.48404 -0.30852 9.52679
189 2 2.2208 2.39189 3.84088 10.8421
181 1 -1.1104 6.48374 -0.134729 12.3789
242 1 -1.1104 0.939326 2.64295 9.57257
175 1 -1.1104 6.30735 2.84338 11.9378
178 1 -1.1104 6.73557 -3.08484 9.46003
174 1 -1.1104 6.48999 -2.89058 12.2183
632 2 2.2208 5.39535 4.08985 13.6447
363 2 2.2208 5.16175 -1.61273 13.7063
364 2 2.2208 2.35287 1.23302 13.6478
169 1 -1.1104 9.52083 13.8575 9.27147
629 2 2.2208 10.7447 -1.71228 13.716
200 1 -1.1104 12.2252 -0.182018 6.83756
305 2 2.2208 10.6579 3.90829 13.6253
8820 2 2.2208 13.7674 4.14903 10.964
199 1 -1.1104 11.9321 2.60626 6.63966
224 2 2.2208 13.616 -1.58132 10.9741
204 2 2.2208 10.8383 1.25588 10.8303
205 1 -1.1104 12.1586 -2.99414 12.3341
206 1 -1.1104 12.238 2.65768 12.3455
207 1 -1.1104 12.1195 -2.98694 9.48266
208 1 -1.1104 12.1575 2.72732 9.6176
209 1 -1.1104 12.1511 -0.233481 12.2381
210 2 2.2208 10.6807 -1.49582 8.08252
212 1 -1.1104 12.4235 -0.0955896 9.54654
213 1 -1.1104 9.4762 -2.99604 12.2588
214 1 -1.1104 9.25461 2.67928 12.3062
215 1 -1.1104 9.47592 -3.28109 9.46449
216 1 -1.1104 9.48463 2.92131 9.51985
217 2 2.2208 8.03819 -1.54675 10.8366
219 1 -1.1104 9.38724 -0.108944 12.3658
220 1 -1.1104 9.56247 -0.271128 9.61592
218 2 2.2208 7.94027 4.1962 11.0417
9000 2 2.2208 13.5839 1.24636 8.09255
211 2 2.2208 10.8378 4.2219 8.28394
27 1 -1.1104 12.2893 13.6234 12.2268
80 2 2.2208 11.0067 20.8637 8.0407
75 1 -1.1104 3.89143 11.1052 6.55074
60 1 -1.1104 1.16793 10.9385 6.32157
8915 2 2.2208 -0.251178 6.83024 10.7919
229 1 -1.1104 3.94148 8.26555 6.45344
228 1 -1.1104 6.69719 7.70318 6.71705
231 2 2.2208 5.37095 6.91668 10.7497
232 2 2.2208 5.29236 12.4276 10.7208
233 1 -1.1104 1.07712 8.5051 12.3064
235 1 -1.1104 1.13598 8.06847 9.37103
237 1 -1.1104 1.32507 5.63033 11.9353
238 1 -1.1104 0.98468 11.2059 12.1403
241 2 2.2208 5.20981 9.60157 7.90526
243 1 -1.1104 1.17829 10.9916 9.26902
246 1 -1.1104 3.81681 8.20454 12.193
247 2 2.2208 2.38675 6.96932 7.81882
248 2 2.2208 2.58047 12.6359 7.92923
249 1 -1.1104 3.99565 7.98469 9.33155
250 2 2.2208 2.46238 9.68476 10.7612
251 1 -1.1104 4.01544 5.37218 11.5938
252 1 -1.1104 3.71474 11.0693 12.1009
253 1 -1.1104 1.49001 5.31365 9.33998
254 1 -1.1104 3.88115 10.9565 9.347
8947 2 2.2208 13.8336 20.8627 10.9981
30 1 -1.1104 12.4143 19.3728 9.4213
63 1 -1.1104 6.6159 10.7775 6.4704
257 1 -1.1104 12.3052 5.47989 6.83074
240 1 -1.1104 6.67702 11.113 12.083
245 1 -1.1104 6.77123 11.1701 9.27834
244 1 -1.1104 6.54939 5.5091 9.43224
239 1 -1.1104 6.81528 5.6393 12.4005
236 1 -1.1104 6.67079 8.37397 9.4492
234 1 -1.1104 6.56611 8.35956 12.2732
258 1 -1.1104 9.52353 8.25857 6.74035
202 1 -1.1104 9.53453 5.40164 7.03129
255 1 -1.1104 9.46398 11.1576 9.37625
259 1 -1.1104 9.50061 5.41634 12.4101
260 1 -1.1104 9.32873 5.69596 9.71386
261 1 -1.1104 9.39168 11.0836 12.367
263 2 2.2208 8.11988 9.72747 10.8839
264 1 -1.1104 9.67642 8.30045 9.4822
265 2 2.2208 8.11099 12.5715 7.98821
266 2 2.2208 8.11653 6.82468 8.24662
267 2 2.2208 10.9423 6.96412 10.9851
268 2 2.2208 10.8925 12.514 10.7522
269 1 -1.1104 12.1031 8.02399 12.7469
270 1 -1.1104 12.3873 8.36593 9.64908
271 1 -1.1104 12.3646 5.42168 12.6294
272 1 -1.1104 12.3719 10.8316 12.3051
273 2 2.2208 10.9145 9.71227 8.19198
274 1 -1.1104 12.3356 5.62041 9.69401
275 1 -1.1104 12.3658 11.1369 9.46715
276 1 -1.1104 9.45375 8.40447 12.231
133 1 -1.1104 9.41307 13.7327 12.2306
312 2 2.2208 5.38414 15.2325 13.5039
134 1 -1.1104 9.53822 19.4388 12.2513
222 1 -1.1104 9.59632 16.6077 12.3254
635 2 2.2208 5.44878 20.8451 13.5931
313 2 2.2208 2.63114 18.1307 13.6286
281 1 -1.1104 6.8172 13.957 9.42448
301 2 2.2208 2.38136 15.2922 10.8404
300 2 2.2208 2.47565 20.834 10.8907
299 1 -1.1104 3.98571 16.6078 12.0987
298 1 -1.1104 1.01789 16.7437 12.1657
296 1 -1.1104 3.9634 13.9732 9.32766
277 1 -1.1104 3.97213 19.4553 12.2666
278 1 -1.1104 3.83944 13.7858 12.1626
282 1 -1.1104 1.15531 19.583 9.52331
283 1 -1.1104 1.1549 16.723 9.43203
284 2 2.2208 5.27645 20.7642 7.99911
285 1 -1.1104 0.991937 13.7522 9.28847
286 2 2.2208 5.26085 15.4067 7.98528
289 1 -1.1104 1.12904 19.4206 12.4053
290 1 -1.1104 0.929865 13.9782 12.1037
291 2 2.2208 5.32565 17.9562 10.8785
292 1 -1.1104 4.00099 19.3949 9.38988
294 2 2.2208 2.3968 18.0422 8.06861
295 1 -1.1104 3.85195 16.6562 9.44628
297 1 -1.1104 6.69355 16.6089 12.0983
280 1 -1.1104 6.72003 16.7548 9.36959
279 1 -1.1104 6.82349 19.4326 9.34288
288 1 -1.1104 6.51927 13.8427 12.1232
146 1 -1.1104 12.2082 16.7048 6.61045
28 1 -1.1104 12.3199 19.4313 12.2592
8980 2 2.2208 13.6663 15.2748 10.8728
79 2 2.2208 10.9872 15.175 7.97066
287 1 -1.1104 6.88977 19.533 12.2132
132 1 -1.1104 12.3848 16.6561 9.39733
223 1 -1.1104 9.55986 16.5768 9.47816
162 2 2.2208 8.27082 18.0196 7.97976
29 1 -1.1104 12.2796 13.8285 9.37979
24 2 2.2208 10.996 17.9876 10.8467
193 1 -1.1104 9.67864 19.4475 9.48119
194 2 2.2208 8.1002 15.272 10.8511
315 2 2.2208 8.27645 20.9117 -0.313528
309 2 2.2208 7.94408 12.5007 13.6968
317 2 2.2208 10.9076 20.899 13.621
25 2 2.2208 8.22358 3.78274 -0.397621
304 2 2.2208 5.21428 6.98574 -0.328951
196 2 2.2208 5.37913 18.0643 -0.491304
395 2 2.2208 10.857 18.144 -0.288336
394 2 2.2208 8.15984 15.3743 -0.42296
323 2 2.2208 5.3698 1.23113 16.4125
324 1 -1.1104 0.954467 -3.03703 17.8659
325 1 -1.1104 0.950786 2.60753 17.8615
328 1 -1.1104 0.941645 -2.83158 15.0759
330 1 -1.1104 1.04543 2.65303 14.9542
336 1 -1.1104 1.02791 -0.194909 17.8432
338 2 2.2208 5.24884 -1.57624 19.2459
339 2 2.2208 5.24776 3.97463 19.1494
340 1 -1.1104 0.970804 -0.0647062 15.0792
344 1 -1.1104 3.81402 -2.87447 17.9747
345 1 -1.1104 3.78607 2.5978 17.8209
346 2 2.2208 2.45181 1.18407 19.1705
347 1 -1.1104 3.82802 -2.84235 15.1789
349 1 -1.1104 3.84983 2.76587 15.0485
351 2 2.2208 2.45708 -1.61639 16.4288
352 2 2.2208 2.43385 3.98647 16.2779
353 1 -1.1104 3.89214 -0.11962 17.8089
354 1 -1.1104 3.81141 -0.229461 15.0144
334 1 -1.1104 6.70204 2.51385 14.9018
332 1 -1.1104 6.66484 -3.07003 15.071
337 1 -1.1104 6.69185 -0.112816 17.8352
329 1 -1.1104 1.10028 -3.09805 20.746
355 1 -1.1104 3.93562 -0.363054 20.5815
341 1 -1.1104 1.07345 -0.280729 20.571
331 1 -1.1104 1.01879 2.3729 20.6329
350 1 -1.1104 3.92278 2.47731 20.7199
343 1 -1.1104 6.67512 -0.174689 20.6618
342 1 -1.1104 6.66005 -0.274207 15.0213
333 1 -1.1104 6.71007 -3.16259 20.6731
348 1 -1.1104 3.85196 -3.09228 20.6511
335 1 -1.1104 6.71491 2.72995 20.6017
390 2 2.2208 13.7379 21.0498 22.0988
326 1 -1.1104 6.59092 -2.84249 17.9024
327 1 -1.1104 6.77806 2.73403 17.8115
366 2 2.2208 10.9282 1.10556 16.6591
367 1 -1.1104 12.0689 -2.99681 17.802
368 1 -1.1104 12.1796 2.5475 18.0002
369 1 -1.1104 12.3193 -3.11749 14.9304
371 1 -1.1104 12.3706 2.83687 15.0982
373 1 -1.1104 12.4023 -0.275938 17.8636
374 2 2.2208 10.845 -1.65477 19.3048
376 1 -1.1104 12.2332 -0.00513827 15.2184
378 1 -1.1104 9.32543 -2.96869 17.8223
379 1 -1.1104 9.4918 2.57899 17.863
380 2 2.2208 8.11016 1.27977 19.3366
381 1 -1.1104 9.4704 -3.08227 15.073
383 1 -1.1104 9.42266 2.47633 15.1542
385 2 2.2208 7.97166 -1.62345 16.4889
387 1 -1.1104 9.63265 -0.123997 17.9495
388 1 -1.1104 9.39198 -0.355115 15.2571
386 2 2.2208 8.19087 4.10147 16.3503
372 1 -1.1104 12.365 2.49538 20.7844
384 1 -1.1104 9.59659 2.9043 20.7328
370 1 -1.1104 12.3426 -2.93354 20.6435
375 2 2.2208 10.8567 4.11892 19.1149
389 1 -1.1104 9.40806 -0.201625 20.6817
382 1 -1.1104 9.43523 -3.1084 20.4852
377 1 -1.1104 12.1222 -0.171177 20.639
633 2 2.2208 8.00219 1.09264 13.7034
399 2 2.2208 5.31186 6.72041 16.2955
400 2 2.2208 5.21698 12.395 16.3366
401 1 -1.1104 1.12268 8.23534 17.8778
403 1 -1.1104 1.09511 8.30902 15.0077
406 1 -1.1104 1.03963 5.43336 17.7215
407 1 -1.1104 0.924 10.9479 17.7734
410 2 2.2208 5.43219 9.65009 19.2753
411 1 -1.1104 1.06643 5.50814 14.8475
413 1 -1.1104 0.953405 11.1347 14.9781
418 1 -1.1104 4.10625 8.1529 17.7149
419 2 2.2208 2.44052 6.7954 19.0945
420 2 2.2208 2.48962 12.5023 19.1967
421 1 -1.1104 3.86761 8.16975 14.9748
423 2 2.2208 2.48684 9.5753 16.4521
424 1 -1.1104 3.73835 5.42718 17.6509
425 1 -1.1104 3.98892 10.9667 17.7211
426 1 -1.1104 3.9284 5.42389 14.7204
428 1 -1.1104 3.71576 11.0527 14.9919
408 1 -1.1104 6.60182 5.36482 17.8764
417 1 -1.1104 6.48402 10.9536 14.7979
427 1 -1.1104 3.84747 5.26692 20.5497
402 1 -1.1104 6.50682 7.90858 20.6765
450 1 -1.1104 6.7363 11.2609 20.2575
415 1 -1.1104 6.65202 5.37361 15.0543
414 1 -1.1104 1.13436 11.0772 20.5277
627 2 2.2208 13.6491 12.387 24.8837
634 2 2.2208 2.48924 6.92254 13.5573
311 2 2.2208 8.15016 6.86756 13.7877
405 1 -1.1104 6.65723 8.2132 14.96
409 1 -1.1104 6.57504 10.8382 17.5409
436 1 -1.1104 7.19931 8.11915 17.7175
435 2 2.2208 10.8183 12.5913 16.2636
438 1 -1.1104 12.4759 5.26084 17.7655
439 1 -1.1104 12.1297 11.1412 14.9842
442 2 2.2208 7.94177 6.64635 19.25
443 2 2.2208 8.22177 12.5084 19.106
444 1 -1.1104 9.57337 8.43637 15.0676
445 2 2.2208 8.05201 9.76498 16.2857
446 1 -1.1104 9.26621 5.34087 17.9492
447 1 -1.1104 9.30852 10.9926 17.7932
449 1 -1.1104 9.36814 11.1573 15.1085
262 1 -1.1104 9.57517 5.3772 14.9365
441 1 -1.1104 12.0573 11.4955 20.3943
437 1 -1.1104 12.1838 8.03939 20.6235
362 2 2.2208 13.6358 6.87748 19.1667
440 1 -1.1104 12.3471 5.26313 20.6285
9007 2 2.2208 13.7081 12.4805 13.7918
9231 2 2.2208 -0.295358 17.9818 16.3947
310 2 2.2208 10.8172 9.64978 13.6232
453 2 2.2208 5.28107 17.9112 16.4736
454 1 -1.1104 1.17428 13.8842 17.8603
455 1 -1.1104 1.23791 19.5011 17.8917
458 1 -1.1104 1.00791 14.0195 14.9146
460 1 -1.1104 1.12187 19.431 15.1657
466 1 -1.1104 1.13136 16.7174 17.8334
468 2 2.2208 5.24889 15.2757 19.144
469 2 2.2208 5.50841 20.8888 19.2041
470 1 -1.1104 1.27721 16.7289 15.047
474 1 -1.1104 3.85304 13.7762 17.8222
475 1 -1.1104 4.02338 19.4546 17.7666
476 2 2.2208 2.60997 18.1306 19.2304
477 1 -1.1104 3.86278 13.7467 15.0261
479 1 -1.1104 4.018 19.5148 14.9776
481 2 2.2208 2.43216 15.2679 16.3884
482 2 2.2208 2.62445 20.8659 16.5781
483 1 -1.1104 3.90003 16.6452 17.716
484 1 -1.1104 4.05772 16.637 14.8826
472 1 -1.1104 6.71999 16.6608 15.0703
462 1 -1.1104 6.61807 13.7999 15.0496
467 1 -1.1104 6.63362 16.7105 17.7961
464 1 -1.1104 6.91419 19.5799 15.0961
456 1 -1.1104 6.73943 13.8675 17.7701
457 1 -1.1104 6.75725 19.5103 17.8447
463 1 -1.1104 6.76367 13.9282 20.5125
480 1 -1.1104 4.00026 19.7678 20.6916
471 1 -1.1104 1.32478 16.6233 20.4981
485 1 -1.1104 3.90619 16.7496 20.5595
478 1 -1.1104 3.88697 13.9513 20.6554
459 1 -1.1104 1.11393 13.8026 20.6485
9190 2 2.2208 13.7179 18.2401 19.339
491 2 2.2208 10.8928 18.1805 16.5317
492 1 -1.1104 12.1753 13.5867 17.9189
493 1 -1.1104 12.3462 19.4533 17.9613
494 1 -1.1104 12.2646 13.9202 15.0461
496 1 -1.1104 12.1781 19.5211 15.0163
498 1 -1.1104 12.363 16.6353 17.8958
499 2 2.2208 10.8646 15.2762 19.3564
500 2 2.2208 10.9088 20.8737 19.2576
501 1 -1.1104 12.3205 16.7157 15.2107
503 1 -1.1104 9.56538 13.9648 17.7803
504 1 -1.1104 9.49219 19.6183 18.0762
505 2 2.2208 8.06498 18.0959 19.2285
506 1 -1.1104 9.34083 13.9682 14.9788
508 1 -1.1104 9.54621 19.4465 15.0778
510 2 2.2208 8.17632 15.1997 16.4889
511 2 2.2208 8.18405 20.896 16.5367
512 1 -1.1104 9.44193 16.6667 17.9172
513 1 -1.1104 9.60976 16.5702 15.1933
9191 2 2.2208 13.7169 21.0139 16.5282
507 1 -1.1104 9.568 13.6711 20.4778
514 1 -1.1104 9.41808 16.5755 20.697
9188 2 2.2208 13.5735 15.2235 16.684
518 2 2.2208 5.31453 1.18158 22.0066
519 1 -1.1104 1.18252 -3.13138 23.5235
520 1 -1.1104 1.05655 2.53496 23.4277
523 1 -1.1104 0.999812 -3.02951 26.1681
524 1 -1.1104 1.10749 2.53637 26.3038
527 1 -1.1104 1.15044 -0.33615 23.3033
529 2 2.2208 5.27573 -1.71408 24.8761
530 2 2.2208 5.31769 3.95005 24.7725
531 1 -1.1104 0.956294 -0.2821 26.2662
533 1 -1.1104 3.93014 -3.23438 23.6034
534 1 -1.1104 3.89403 2.57405 23.619
535 2 2.2208 2.44951 1.10615 24.871
536 1 -1.1104 3.85931 -3.10762 26.3901
537 1 -1.1104 4.03166 2.43902 26.3291
538 2 2.2208 2.50288 -1.79996 22.0403
540 1 -1.1104 3.84322 -0.257392 23.2986
541 1 -1.1104 3.99517 -0.307684 26.1551
539 2 2.2208 2.54348 3.89314 22.0497
526 1 -1.1104 6.78653 2.93479 26.1606
522 1 -1.1104 6.53366 2.54436 23.3735
528 1 -1.1104 6.68063 -0.177543 23.4671
525 1 -1.1104 6.78574 -3.01299 26.4265
521 1 -1.1104 6.64248 -3.11869 23.4728
576 2 2.2208 -0.375394 6.80207 22.0214
322 2 2.2208 2.45942 3.87684 27.5998
543 2 2.2208 2.37789 -1.66861 27.7189
517 1 -1.1104 12.1858 14.1703 23.4058
8661 2 2.2208 11.0062 -4.47416 27.6982
9004 2 2.2208 13.7129 3.92246 27.7781
532 1 -1.1104 6.6014 -0.079172 26.2755
572 2 2.2208 8.03904 -1.58036 27.6977
9049 2 2.2208 13.6078 1.20003 25.0339
9050 2 2.2208 13.5152 -1.58819 22.0615
553 2 2.2208 10.8247 1.35698 22.0637
554 1 -1.1104 12.0524 -3.00515 23.4906
555 1 -1.1104 12.1623 2.60448 23.5172
556 1 -1.1104 12.3372 -3.06992 26.3023
557 1 -1.1104 12.2669 2.50857 26.4003
558 1 -1.1104 12.1828 -0.172033 23.5775
559 2 2.2208 10.8205 -1.56487 24.8238
560 2 2.2208 10.88 3.9511 24.9569
561 1 -1.1104 12.3361 -0.296278 26.3441
562 1 -1.1104 9.53824 -2.92403 23.403
563 1 -1.1104 9.3578 2.58519 23.3359
564 2 2.2208 7.99732 1.19551 24.6694
565 1 -1.1104 9.49585 -2.97452 26.1653
566 1 -1.1104 9.50231 2.41477 26.1377
567 2 2.2208 8.10682 -1.71868 21.9854
569 1 -1.1104 9.31085 -0.385546 23.3685
570 1 -1.1104 9.48882 -0.25619 26.339
568 2 2.2208 8.07655 4.12128 22.0149
9051 2 2.2208 13.609 1.12069 19.3698
571 2 2.2208 10.9449 0.990747 27.7685
9376 2 2.2208 13.6572 -1.67732 27.6518
404 1 -1.1104 1.11296 8.09331 20.5796
416 1 -1.1104 6.60917 5.31783 20.5766
412 1 -1.1104 1.13831 5.36936 20.5292
429 1 -1.1104 3.94488 11.0653 20.5181
9194 2 2.2208 13.679 -1.59945 16.4142
8999 2 2.2208 -0.380042 6.89117 27.5827
422 1 -1.1104 3.915 8.14328 20.5831
582 2 2.2208 5.19578 6.54708 21.9001
583 2 2.2208 5.50541 12.498 21.9399
584 1 -1.1104 1.19245 8.32041 23.3898
586 1 -1.1104 1.14669 8.12359 26.2249
588 1 -1.1104 1.00805 5.4029 23.41
589 1 -1.1104 0.981657 10.9938 23.4164
592 2 2.2208 5.33396 9.66789 24.7482
593 1 -1.1104 1.34484 5.36475 26.0998
594 1 -1.1104 1.0696 10.9502 26.1755
597 1 -1.1104 4.38334 7.92775 23.5676
598 2 2.2208 2.5595 6.85444 24.9181
599 2 2.2208 2.54481 12.4658 24.746
600 1 -1.1104 3.80963 8.24243 26.3605
601 2 2.2208 2.46507 9.6822 21.8166
602 1 -1.1104 3.66956 5.36735 23.3824
603 1 -1.1104 3.74913 10.7965 23.4342
604 1 -1.1104 4.25229 5.46715 26.4002
605 1 -1.1104 3.8502 10.9158 26.2423
591 1 -1.1104 6.51392 11.0886 23.5432
585 1 -1.1104 6.413 5.3466 23.3041
587 1 -1.1104 6.69338 8.30214 26.4445
596 1 -1.1104 6.61986 11.0135 26.2593
448 1 -1.1104 9.59683 5.84194 20.6155
609 1 -1.1104 9.6503 19.4546 26.2825
357 2 2.2208 13.5081 9.54038 22.0641
610 1 -1.1104 9.33578 11.1814 26.2772
611 1 -1.1104 9.50967 5.27343 26.5544
612 1 -1.1104 9.41347 11.6331 23.0486
613 1 -1.1104 9.77217 5.28521 23.383
614 2 2.2208 8.18778 12.4306 24.7453
616 2 2.2208 11.1014 6.68951 22.1685
617 2 2.2208 11.0478 12.6729 22.101
618 1 -1.1104 12.3002 8.02651 23.4362
619 1 -1.1104 12.2678 8.04788 26.4451
620 1 -1.1104 12.4442 5.31875 23.5581
621 1 -1.1104 12.4978 11.3136 23.3217
622 1 -1.1104 12.2413 5.19476 26.3149
623 1 -1.1104 12.5148 11.3165 26.5948
626 2 2.2208 10.9046 12.4265 27.7421
392 1 -1.1104 9.57208 16.8062 26.2718
465 1 -1.1104 6.65795 19.3567 20.6337
461 1 -1.1104 1.11711 19.3581 20.7943
221 2 2.2208 2.53573 15.3561 27.5495
542 1 -1.1104 6.50263 19.3089 23.3591
606 1 -1.1104 3.83714 19.3534 23.4027
396 2 2.2208 2.43506 15.1928 22.0668
397 2 2.2208 2.39907 20.7943 22.1904
398 1 -1.1104 3.94763 16.4092 23.4734
430 1 -1.1104 1.14821 16.6635 23.3406
432 1 -1.1104 3.9157 13.7734 26.2907
433 1 -1.1104 3.96607 16.687 26.2786
434 2 2.2208 2.44183 18.0293 24.7888
451 1 -1.1104 3.90803 19.3166 26.1878
452 2 2.2208 5.2494 18.0187 22.0364
486 1 -1.1104 1.01736 13.8777 23.5145
487 1 -1.1104 0.924834 19.506 23.5795
489 2 2.2208 5.50196 15.3603 24.8785
515 2 2.2208 5.2914 20.9079 24.6842
544 1 -1.1104 1.12747 13.9163 26.2836
547 1 -1.1104 1.14524 16.8051 26.1859
548 1 -1.1104 1.11376 19.5276 26.3054
573 1 -1.1104 4.03537 13.6282 23.3787
549 1 -1.1104 6.75398 16.8299 26.2333
590 1 -1.1104 6.87812 20.035 26.1227
580 1 -1.1104 9.44133 19.8097 23.4227
49 2 2.2208 2.4958 20.8168 27.8037
574 2 2.2208 10.9966 20.9243 25.051
393 1 -1.1104 9.64111 16.9999 23.4742
581 2 2.2208 8.2605 18.285 24.8091
546 1 -1.1104 12.4221 14.0237 26.2724
551 1 -1.1104 12.5498 16.9331 23.5735
545 1 -1.1104 12.2832 19.658 23.5066
578 1 -1.1104 12.1971 16.7749 26.4011
473 1 -1.1104 6.56371 16.7147 20.564
552 2 2.2208 10.9711 15.3364 24.9032
365 2 2.2208 8.1441 15.2249 22.0087
495 1 -1.1104 12.4629 14.1924 20.6824
502 1 -1.1104 12.1616 16.9705 20.6172
497 1 -1.1104 12.3398 19.5972 20.8266
509 1 -1.1104 9.49102 19.4277 20.6995
579 1 -1.1104 9.47163 14.1811 23.4516
516 2 2.2208 10.9557 18.3089 22.0578
550 1 -1.1104 12.4533 19.634 26.3202
595 1 -1.1104 9.56141 13.9886 26.3299
488 1 -1.1104 6.81807 13.928 23.4412
431 1 -1.1104 6.90278 16.9066 23.2779
575 1 -1.1104 6.68388 14.0141 26.1791
360 2 2.2208 13.6583 15.1942 27.5411
577 2 2.2208 7.80357 20.8629 22.0295
318 2 2.2208 5.26453 1.12861 27.6041
490 2 2.2208 10.939 15.2473 13.7145
607 2 2.2208 2.51684 9.64806 27.656
307 2 2.2208 5.11492 9.69774 13.4993
306 2 2.2208 2.50133 12.4468 13.5494
316 2 2.2208 8.13114 18.0613 13.6689
636 2 2.2208 5.29735 23.7868 5.26531
637 2 2.2208 5.24874 29.2243 5.25309
638 1 -1.1104 0.983714 24.9694 1.11735
639 1 -1.1104 1.13784 25.072 3.90551
640 1 -1.1104 1.1772 22.2231 1.05888
641 1 -1.1104 1.19763 27.6461 0.934981
642 2 2.2208 5.30052 26.5396 2.47897
643 1 -1.1104 1.06233 22.3313 4.02521
644 1 -1.1104 1.12192 27.8853 3.89369
645 1 -1.1104 3.82246 25.0972 0.96498
646 2 2.2208 2.53542 23.6377 2.48523
647 2 2.2208 2.58032 29.1649 2.39753
648 1 -1.1104 4.00947 25.1107 3.87721
649 2 2.2208 2.48538 26.6108 5.36679
650 1 -1.1104 3.88516 22.1792 1.12395
651 1 -1.1104 4.06121 27.9573 1.22198
652 1 -1.1104 3.83494 22.0974 3.89092
653 1 -1.1104 3.83511 27.939 3.91049
657 1 -1.1104 6.74201 25.1476 0.768658
785 1 -1.1104 4.11456 27.8286 6.75757
782 1 -1.1104 6.84568 27.9464 6.70776
778 1 -1.1104 6.72122 25.1566 6.68319
784 1 -1.1104 3.9066 22.428 6.73505
783 1 -1.1104 3.9167 24.9717 6.76039
779 1 -1.1104 1.16088 22.3144 6.75007
660 1 -1.1104 6.84654 27.866 1.29433
777 1 -1.1104 1.13882 25.1415 6.85648
1547 1 -1.1104 9.53216 47.4454 9.52308
659 1 -1.1104 6.81888 22.4317 0.740933
661 1 -1.1104 6.58313 22.4419 3.70409
662 1 -1.1104 6.74244 27.9505 4.08472
658 1 -1.1104 6.78787 25.0729 3.82417
781 1 -1.1104 6.78389 22.2967 6.57434
663 2 2.2208 10.8691 23.6702 5.27381
664 2 2.2208 10.9239 29.1699 5.20264
665 1 -1.1104 12.2405 25.0369 0.959467
666 1 -1.1104 12.2253 25.0309 3.74186
667 1 -1.1104 12.5352 22.1749 1.06397
668 1 -1.1104 12.3557 27.9391 0.941533
669 2 2.2208 10.8853 26.5475 2.38347
670 1 -1.1104 12.2844 22.2292 3.84547
671 1 -1.1104 12.3073 27.8751 3.77105
672 1 -1.1104 9.4035 25.2783 1.09426
673 2 2.2208 8.08115 23.853 2.51864
674 2 2.2208 8.01819 29.3048 2.56774
675 1 -1.1104 9.45247 25.2104 3.95463
676 2 2.2208 8.07656 26.4476 5.26327
677 1 -1.1104 9.57791 22.4981 1.16839
678 1 -1.1104 9.60603 28.0676 1.04887
679 1 -1.1104 9.45199 22.3525 3.98931
680 1 -1.1104 9.45464 27.8813 3.77705
681 2 2.2208 13.6486 23.6301 2.47689
814 1 -1.1104 9.59411 22.2025 6.72616
815 1 -1.1104 9.62944 28.0339 6.72942
682 2 2.2208 13.7608 29.2169 2.31113
812 1 -1.1104 12.4336 27.7923 6.72289
813 1 -1.1104 9.49603 25.0528 6.69029
684 2 2.2208 5.25645 34.8209 5.27076
685 1 -1.1104 0.990349 30.5949 1.28587
686 1 -1.1104 1.0085 36.2084 1.14941
688 1 -1.1104 1.09394 30.5363 4.00574
689 1 -1.1104 0.987496 36.3224 3.9271
691 1 -1.1104 1.00228 33.301 1.12979
692 2 2.2208 5.0981 32.1355 2.49946
693 2 2.2208 5.2594 37.5734 2.25346
694 1 -1.1104 1.03229 33.407 3.83411
696 1 -1.1104 3.83867 30.7497 0.939556
697 1 -1.1104 3.7495 36.2188 0.84543
698 2 2.2208 2.46591 34.8922 2.50248
699 1 -1.1104 3.89929 30.6138 3.83729
700 1 -1.1104 3.90445 36.1032 3.79829
701 2 2.2208 2.47137 32.0024 5.216
702 2 2.2208 2.38557 37.6844 5.21672
703 1 -1.1104 3.8668 33.5143 1.07248
704 1 -1.1104 3.88423 33.4303 3.78009
708 1 -1.1104 6.62267 30.7178 1.11107
687 1 -1.1104 6.55294 36.181 0.842063
695 1 -1.1104 6.78749 33.4929 4.07027
709 1 -1.1104 6.78594 30.6807 3.95656
839 1 -1.1104 6.57711 33.5725 6.74209
837 1 -1.1104 6.70749 36.2643 6.65848
836 1 -1.1104 6.55597 30.7801 6.78089
690 1 -1.1104 6.63908 36.2616 3.78317
710 1 -1.1104 6.79842 33.543 1.14437
835 1 -1.1104 1.1417 36.2707 6.69443
838 1 -1.1104 0.994711 33.4562 6.62863
1506 1 -1.1104 6.6183 47.4533 9.53902
656 2 2.2208 10.9203 46.0408 10.9848
711 2 2.2208 10.8052 34.8358 5.25248
712 1 -1.1104 12.239 30.6903 1.10187
713 1 -1.1104 12.1527 36.4088 1.15639
714 1 -1.1104 12.3819 30.6224 3.85299
715 1 -1.1104 12.2038 36.3032 3.84248
716 1 -1.1104 12.2251 33.4689 1.21241
717 2 2.2208 10.8572 32.0935 2.42501
718 2 2.2208 10.8039 37.7144 2.44578
719 1 -1.1104 12.2209 33.3883 3.83407
720 1 -1.1104 9.34182 30.7719 1.20129
721 1 -1.1104 9.42097 36.2892 1.03257
722 2 2.2208 8.07059 34.805 2.47997
723 1 -1.1104 9.60549 30.6594 3.84936
724 1 -1.1104 9.36918 36.2093 3.85946
725 2 2.2208 8.10558 32.0426 5.30383
726 2 2.2208 8.02023 37.6694 5.18246
727 1 -1.1104 9.434 33.5919 1.04867
728 1 -1.1104 9.43268 33.5081 3.89143
868 1 -1.1104 12.0822 30.5786 6.73437
873 1 -1.1104 9.36238 33.7278 6.82233
942 2 2.2208 13.581 32.009 5.34329
872 1 -1.1104 9.49313 36.4725 6.79279
1515 1 -1.1104 3.85515 47.5309 12.3645
9692 2 2.2208 -0.519542 43.2143 7.99688
730 2 2.2208 5.22328 40.4443 5.0648
731 2 2.2208 5.2576 46.1319 5.29148
732 1 -1.1104 0.940566 41.7982 1.10034
734 1 -1.1104 0.999371 41.8238 3.72133
736 1 -1.1104 1.08015 39.0003 1.10313
737 1 -1.1104 1.14312 44.5816 1.12747
740 2 2.2208 5.14677 43.3546 2.57552
741 1 -1.1104 1.03429 39.0608 3.78432
742 1 -1.1104 0.889346 44.6115 3.84846
745 1 -1.1104 3.85327 41.9092 0.988635
746 2 2.2208 2.44998 40.4878 2.37983
747 2 2.2208 2.29663 46.0901 2.55791
748 1 -1.1104 3.83349 41.9611 3.73191
749 2 2.2208 2.37895 43.2107 5.24891
750 1 -1.1104 3.87902 39.057 1.0202
751 1 -1.1104 3.94076 44.8303 1.17901
752 1 -1.1104 3.77532 39.1431 3.71638
753 1 -1.1104 3.84013 44.7249 3.97694
744 1 -1.1104 6.64441 44.7998 3.84735
909 1 -1.1104 1.05652 44.5179 6.65579
739 1 -1.1104 6.6995 44.7235 1.04003
914 1 -1.1104 3.75574 39.2083 6.58692
9688 2 2.2208 -0.460503 40.3792 5.22457
9659 2 2.2208 13.5841 46.3044 8.09123
908 1 -1.1104 0.858568 39.04 6.55592
1357 1 -1.1104 9.62946 47.4876 1.22299
743 1 -1.1104 6.68841 39.0801 3.734
735 1 -1.1104 6.79664 41.9527 3.9809
911 1 -1.1104 6.72414 44.6928 6.68828
733 1 -1.1104 6.70653 41.7747 1.10585
738 1 -1.1104 6.7205 39.1069 0.879229
1529 1 -1.1104 12.1242 47.5265 6.74693
907 1 -1.1104 6.55861 41.7283 6.6638
756 1 -1.1104 9.43624 44.8203 6.77607
764 1 -1.1104 12.1699 38.9468 3.90992
757 2 2.2208 10.8686 40.4343 5.38928
758 2 2.2208 10.7903 46.1322 5.32506