ITEM: TIMESTEP
100000
ITEM: NUMBER OF ATOMS
17820
ITEM: BOX BOUNDS pp pp pp
-3.5993347010577453e-01 2.7699933470105638e+01
-4.3611573957516212e+00 3.3244115739576438e+02
-3.6129000899494051e-01 2.7701290008995485e+01
ITEM: ATOMS id type q x y z
1 2 2.2208 4.83099 1.4436 5.15436
2 1 -1.1104 0.937673 -2.92684 1.07321
3 1 -1.1104 0.84937 2.75439 1.16586
6 1 -1.1104 0.947758 -2.98783 3.97543
7 1 -1.1104 0.770543 2.6502 3.94397
9 1 -1.1104 0.882808 -0.184695 1.13548
11 2 2.2208 5.18534 -1.46217 2.46232
13 1 -1.1104 0.908424 0.000997082 3.92105
15 1 -1.1104 3.77839 -2.76293 1.03062
16 1 -1.1104 3.73487 2.67363 0.92266
17 2 2.2208 2.21922 1.29017 2.50848
18 1 -1.1104 3.78082 -2.90289 3.85502
20 2 2.2208 2.27225 -1.60196 5.30067
22 1 -1.1104 3.63662 0.0121343 1.03005
23 1 -1.1104 3.69846 -0.128618 3.84565
21 2 2.2208 2.21761 4.06846 5.37953
76 1 -1.1104 3.55614 2.87214 3.6848
12 2 2.2208 5.18559 3.91051 2.24858
166 1 -1.1104 3.70322 2.64995 6.57818
19 1 -1.1104 6.31675 2.61527 3.76969
543 2 2.2208 2.26799 -1.52191 -0.196684
322 2 2.2208 2.40504 4.03749 -0.41129
14 1 -1.1104 6.47807 -0.207719 4.44145
8 1 -1.1104 6.60871 -2.8233 3.84518
4 1 -1.1104 6.69751 -3.00797 0.986082
10 1 -1.1104 6.61614 -0.0594784 1.23409
308 2 2.2208 5.00814 -4.24237 5.29853
167 1 -1.1104 1.03927 -0.112355 6.76008
170 1 -1.1104 3.97225 -0.000862105 6.51349
8985 2 2.2208 13.5331 -4.29658 2.37744
5 1 -1.1104 6.57583 2.52624 1.14173
31 2 2.2208 10.7848 1.11448 5.3632
32 1 -1.1104 12.328 -2.92514 1.08194
33 1 -1.1104 12.244 2.69461 1.25652
34 1 -1.1104 11.9945 -2.92212 3.8448
35 1 -1.1104 12.1835 2.70084 4.02463
36 1 -1.1104 12.1772 -0.168105 1.06404
37 2 2.2208 10.7625 -1.47868 2.47205
38 2 2.2208 10.6589 4.10104 2.71892
39 1 -1.1104 12.372 -0.13744 3.73604
40 1 -1.1104 9.44105 -2.96469 0.90191
41 1 -1.1104 9.32024 2.68571 1.30642
42 2 2.2208 8.0312 1.3019 2.5508
43 1 -1.1104 9.41922 -2.83241 3.87698
44 1 -1.1104 9.47896 2.53578 4.23778
45 2 2.2208 7.92999 -1.57584 5.30994
46 1 -1.1104 9.46368 -0.0616672 1.01308
47 1 -1.1104 9.59796 -0.121303 3.75649
571 2 2.2208 10.8246 1.28735 -0.286178
572 2 2.2208 7.97149 -1.55831 -0.365433
8313 2 2.2208 10.7328 -4.27516 5.24054
8315 2 2.2208 8.00141 -4.29301 2.45045
203 1 -1.1104 9.32999 -0.132786 6.49011
199 1 -1.1104 11.9632 2.67514 6.93431
50 2 2.2208 13.5908 1.31131 2.50352
51 2 2.2208 13.6144 -1.50252 5.22716
9002 2 2.2208 13.482 4.12241 5.38477
607 2 2.2208 2.31417 9.73855 -0.143299
52 2 2.2208 5.20201 7.09286 5.07137
53 2 2.2208 5.21528 12.6157 5.2538
54 1 -1.1104 0.863053 8.48263 1.05491
56 1 -1.1104 0.990203 8.36539 3.91816
58 1 -1.1104 0.822925 5.58211 0.979704
59 1 -1.1104 0.923427 11.2876 1.24253
64 2 2.2208 5.09585 9.84892 2.53548
65 1 -1.1104 1.07805 5.42112 3.7832
66 1 -1.1104 0.953289 11.2395 4.08797
68 1 -1.1104 3.67132 8.26438 1.1897
69 2 2.2208 2.11228 6.95105 2.36066
70 2 2.2208 2.32156 12.6647 2.67562
71 1 -1.1104 3.64612 8.33464 3.89069
72 2 2.2208 2.41174 9.86526 5.32611
73 1 -1.1104 3.67935 5.50143 1.4987
74 1 -1.1104 3.66575 11.1875 1.11731
77 1 -1.1104 3.70844 11.102 3.91095
57 1 -1.1104 5.80132 5.73259 3.52982
230 1 -1.1104 3.64777 5.70858 6.09125
225 1 -1.1104 0.935615 8.19842 6.68993
60 1 -1.1104 0.9209 11.2272 6.78033
61 1 -1.1104 6.569 5.36518 0.522188
67 1 -1.1104 6.55386 11.1883 3.91193
304 2 2.2208 5.11393 7.07683 -0.270309
608 2 2.2208 5.13653 12.5689 -0.33956
62 1 -1.1104 6.35429 11.2488 1.20648
226 1 -1.1104 6.66497 8.45185 3.85174
227 1 -1.1104 0.909092 5.48321 6.666
55 1 -1.1104 6.45887 8.30576 1.23787
81 2 2.2208 10.5965 6.95602 5.32045
82 2 2.2208 10.9271 12.5122 5.309
83 1 -1.1104 12.0377 8.36157 1.42949
84 1 -1.1104 12.136 8.28422 4.11649
85 1 -1.1104 12.0359 5.39561 1.2502
86 1 -1.1104 12.0898 11.111 1.13841
88 2 2.2208 10.6593 9.84866 2.42978
89 1 -1.1104 12.0002 5.40331 4.04585
90 1 -1.1104 12.063 11.0709 4.01478
91 1 -1.1104 9.2631 8.17961 0.712643
92 2 2.2208 7.92616 6.89552 2.30315
93 2 2.2208 7.96262 12.6677 2.54588
94 1 -1.1104 9.36727 8.32786 3.67633
95 2 2.2208 8.09215 9.89889 5.0762
96 1 -1.1104 9.13852 5.46707 1.1288
97 1 -1.1104 9.17786 11.1623 1.13338
99 1 -1.1104 9.06875 5.65 3.84007
100 1 -1.1104 9.35747 11.1913 3.81531
320 2 2.2208 10.8452 6.80672 -0.147311
321 2 2.2208 7.79473 9.83453 -0.283237
628 2 2.2208 13.3871 9.7907 -0.26405
102 2 2.2208 13.4894 6.90625 2.67853
626 2 2.2208 10.8469 12.586 -0.405063
49 2 2.2208 2.48287 20.8969 -0.388118
221 2 2.2208 2.42227 15.4367 -0.440974
103 2 2.2208 5.22649 18.0486 5.31667
104 1 -1.1104 1.12801 14.0112 1.25757
106 1 -1.1104 1.06645 19.677 1.2578
110 1 -1.1104 0.843177 13.9725 4.05935
111 1 -1.1104 1.09727 19.4697 4.12765
113 1 -1.1104 1.10504 16.7986 0.967121
116 2 2.2208 5.19023 15.3836 2.41171
117 2 2.2208 5.285 20.8428 2.41012
118 1 -1.1104 0.99374 16.6774 3.84276
120 1 -1.1104 3.83676 13.7722 1.21351
122 1 -1.1104 3.90197 19.5995 1.13761
124 2 2.2208 2.40294 18.1015 2.44402
125 1 -1.1104 3.82351 13.8499 3.95059
126 1 -1.1104 3.9443 19.4028 3.88476
127 2 2.2208 2.54591 15.1748 5.32497
128 2 2.2208 2.54453 20.9042 5.24656
129 1 -1.1104 3.79976 16.7149 0.938359
131 1 -1.1104 3.81162 16.6257 3.77213
107 1 -1.1104 6.74739 14.0344 1.11858
135 1 -1.1104 6.80656 19.6017 1.05845
136 1 -1.1104 6.57492 19.6182 3.94646
114 1 -1.1104 1.00443 16.7246 6.70257
108 1 -1.1104 6.54653 13.9194 6.64907
293 1 -1.1104 1.01743 19.5594 6.81412
196 2 2.2208 5.21457 18.2446 -0.282326
395 2 2.2208 10.8249 18.1188 -0.12494
394 2 2.2208 8.12888 15.3521 -0.260566
119 1 -1.1104 6.52767 16.7457 3.81277
137 1 -1.1104 6.75765 16.97 1.11038
112 1 -1.1104 6.57052 14.0433 3.82317
138 2 2.2208 10.8314 18.0894 5.31773
139 1 -1.1104 12.1274 13.9284 1.10278
141 1 -1.1104 12.2026 19.6836 1.20804
143 1 -1.1104 12.1397 14.0349 3.88309
144 1 -1.1104 12.0878 19.6207 3.94378
145 1 -1.1104 12.1737 16.7635 1.13196
147 2 2.2208 10.9208 15.217 2.53498
148 2 2.2208 10.7862 21.0879 2.69541
149 1 -1.1104 12.2997 16.7798 3.94001
150 1 -1.1104 9.42961 13.9162 1.17852
152 1 -1.1104 9.42934 19.551 1.13709
154 2 2.2208 8.16777 18.1653 2.46589
155 1 -1.1104 9.39562 13.8802 3.97956
156 1 -1.1104 9.38739 19.5983 3.96649
157 2 2.2208 8.09448 15.31 5.29022
158 2 2.2208 7.89344 21.028 5.34983
159 1 -1.1104 9.56962 16.7298 1.25764
161 1 -1.1104 9.46493 16.7261 3.86022
153 1 -1.1104 9.41649 19.2817 6.60473
160 1 -1.1104 9.4426 16.6006 6.8853
9008 2 2.2208 13.6451 15.3477 5.26752
8992 2 2.2208 13.579 18.1767 2.47193
115 1 -1.1104 6.51749 16.7125 6.67067
303 2 2.2208 5.05224 -4.35353 10.9375
163 1 -1.1104 0.721334 -3.04023 6.75551
168 1 -1.1104 3.52528 -2.88798 6.72123
632 2 2.2208 5.15763 4.26863 13.6168
164 1 -1.1104 0.927785 2.73033 6.73549
171 2 2.2208 5.07392 1.21249 11.0003
172 1 -1.1104 0.951681 -2.92138 12.3818
173 1 -1.1104 0.913905 2.61729 12.2081
176 1 -1.1104 0.768362 -2.90255 9.46442
177 1 -1.1104 3.85995 2.77377 9.64789
180 1 -1.1104 0.872154 -0.0571965 12.4042
182 2 2.2208 5.01695 -1.55359 8.27488
183 1 -1.1104 0.847648 -0.175739 9.53884
184 1 -1.1104 3.74432 -2.88781 12.3569
185 1 -1.1104 3.82834 2.7501 12.357
186 2 2.2208 2.38897 1.37393 8.01266
187 1 -1.1104 3.69942 -2.95501 9.60618
188 2 2.2208 2.30127 -1.57125 10.9391
190 1 -1.1104 3.62409 -0.0688239 12.2279
191 1 -1.1104 3.56704 -0.166746 9.30041
189 2 2.2208 2.35588 3.95852 10.967
242 1 -1.1104 1.07708 2.73146 9.45497
179 1 -1.1104 6.37169 -0.111511 9.53327
175 1 -1.1104 6.57634 2.72572 11.9989
174 1 -1.1104 6.50985 -2.95424 12.2014
165 1 -1.1104 6.30508 -2.58867 6.64233
181 1 -1.1104 6.55948 -0.220671 12.2058
178 1 -1.1104 6.39489 -2.97346 9.45171
363 2 2.2208 5.20252 -1.62467 13.6723
8445 2 2.2208 2.29345 -4.32618 13.6885
305 2 2.2208 10.6581 3.98194 13.5769
224 2 2.2208 13.5363 -1.40749 10.8253
9000 2 2.2208 13.5029 1.48842 8.0914
198 1 -1.1104 12.0276 -2.83656 6.73547
197 2 2.2208 13.4624 -4.32469 8.09308
200 1 -1.1104 12.1229 -0.141039 6.55602
201 1 -1.1104 9.17684 -2.9669 6.76057
204 2 2.2208 10.7961 1.26466 10.736
205 1 -1.1104 12.1215 -2.92664 12.2569
206 1 -1.1104 12.2101 2.68501 12.3596
207 1 -1.1104 12.0842 -2.84813 9.45255
208 1 -1.1104 12.2378 2.93931 9.48531
209 1 -1.1104 12.2587 -0.17657 12.2627
210 2 2.2208 10.548 -1.44996 8.02087
212 1 -1.1104 12.1252 0.0293987 9.32984
213 1 -1.1104 9.21997 -2.87351 12.1644
214 1 -1.1104 9.42401 2.74337 12.1493
215 1 -1.1104 9.27568 -3.21265 9.46477
216 1 -1.1104 9.40072 2.92778 9.37342
217 2 2.2208 7.97726 -1.44936 10.7602
219 1 -1.1104 9.31477 -0.157633 12.3095
220 1 -1.1104 9.54494 -0.360552 9.60418
218 2 2.2208 8.09389 4.1488 10.8257
211 2 2.2208 10.8939 4.39499 8.26007
8348 2 2.2208 10.8011 -4.34233 10.8117
8820 2 2.2208 13.5944 4.14462 11.0162
8416 2 2.2208 7.90634 -4.34569 13.63
8915 2 2.2208 -0.406937 6.99881 10.9036
229 1 -1.1104 3.80767 8.46729 6.5933
75 1 -1.1104 3.88713 11.0871 6.65536
231 2 2.2208 5.31078 7.03405 10.759
232 2 2.2208 5.17553 12.3274 10.8566
233 1 -1.1104 0.920399 8.41753 12.3714
235 1 -1.1104 0.987106 8.1633 9.50104
237 1 -1.1104 1.10006 5.52945 12.4835
238 1 -1.1104 0.8047 11.175 12.2852
241 2 2.2208 5.20702 9.65789 8.00792
243 1 -1.1104 0.846357 11.0706 9.50709
246 1 -1.1104 3.71196 8.19481 12.193
247 2 2.2208 2.43755 6.93878 8.04578
248 2 2.2208 2.39548 12.4793 8.26222
249 1 -1.1104 3.98235 7.94057 9.34649
250 2 2.2208 2.19712 9.68292 10.9559
251 1 -1.1104 3.83497 5.49954 11.9042
252 1 -1.1104 3.78131 11.0307 12.1544
253 1 -1.1104 1.48577 5.47566 9.47248
254 1 -1.1104 3.56924 10.8715 9.47146
245 1 -1.1104 6.58212 11.1484 9.31424
228 1 -1.1104 6.5696 7.82569 6.574
244 1 -1.1104 6.57312 5.64471 9.3224
234 1 -1.1104 6.74013 8.26541 12.2217
239 1 -1.1104 6.68106 5.44477 12.2952
236 1 -1.1104 6.67175 8.48161 9.43457
9011 2 2.2208 -0.574737 9.69642 8.06058
63 1 -1.1104 6.52269 11.054 6.67306
87 1 -1.1104 12.2252 11.3401 6.74527
314 2 2.2208 13.6743 12.7595 8.00914
98 1 -1.1104 9.44783 11.2182 6.60474
258 1 -1.1104 9.29282 8.36401 6.72577
257 1 -1.1104 12.2811 5.73546 6.84534
240 1 -1.1104 6.76964 11.1705 12.1552
256 1 -1.1104 12.1207 8.42229 6.93941
202 1 -1.1104 9.34636 5.64436 6.96138
255 1 -1.1104 9.48789 11.179 9.6277
259 1 -1.1104 9.4466 5.70213 12.3652
260 1 -1.1104 9.47859 5.66254 9.66233
261 1 -1.1104 9.4198 11.341 12.2133
263 2 2.2208 8.14121 9.7863 10.9573
264 1 -1.1104 9.50183 8.40406 9.67023
265 2 2.2208 8.04504 12.5957 8.0844
266 2 2.2208 8.09709 7.01719 8.11663
267 2 2.2208 10.9202 7.14147 11.0938
268 2 2.2208 10.8221 12.5393 10.8594
269 1 -1.1104 12.1526 8.37929 12.7236
270 1 -1.1104 12.2464 8.45695 9.75377
271 1 -1.1104 12.1846 5.5158 12.5787
272 1 -1.1104 12.358 11.0436 12.4032
273 2 2.2208 10.7875 9.78452 8.1162
274 1 -1.1104 12.2472 5.79321 9.82234
275 1 -1.1104 12.3234 11.2662 9.45115
276 1 -1.1104 9.48188 8.58519 12.3438
26 2 2.2208 13.6863 6.98946 8.28762
8901 2 2.2208 13.7257 9.87939 10.7492
123 1 -1.1104 3.85933 19.4641 6.78629
105 1 -1.1104 1.12535 14.093 6.79609
130 1 -1.1104 3.82149 16.6517 6.71786
109 1 -1.1104 6.55385 19.4555 6.76059
121 1 -1.1104 3.8413 13.9402 6.82
301 2 2.2208 2.44462 15.4231 10.8824
300 2 2.2208 2.32767 20.8257 10.9347
299 1 -1.1104 3.76587 16.722 12.2715
298 1 -1.1104 0.929503 16.7354 12.2305
296 1 -1.1104 3.8241 13.7584 9.67201
277 1 -1.1104 3.85834 19.4857 12.3353
278 1 -1.1104 3.761 13.8136 12.2686
282 1 -1.1104 0.887566 19.3592 9.53745
283 1 -1.1104 1.03727 16.753 9.54709
284 2 2.2208 5.20801 20.9622 8.15356
285 1 -1.1104 0.973285 13.9346 9.55703
286 2 2.2208 5.13371 15.3989 8.16375
289 1 -1.1104 0.99265 19.5989 12.4445
290 1 -1.1104 0.877221 13.8631 12.3617
291 2 2.2208 5.15318 18.1309 11.0059
292 1 -1.1104 3.80132 19.404 9.53928
294 2 2.2208 2.40917 18.1397 8.16588
295 1 -1.1104 3.78592 16.7138 9.50427
288 1 -1.1104 6.6396 13.8802 12.4437
279 1 -1.1104 6.62867 19.6389 9.51733
280 1 -1.1104 6.48638 16.9023 9.35795
281 1 -1.1104 6.69245 13.7512 9.59011
297 1 -1.1104 6.65089 16.6704 12.2461
8980 2 2.2208 13.6187 15.3564 11.0617
151 1 -1.1104 9.5291 13.8052 6.82527
194 2 2.2208 8.04193 15.2991 10.8481
142 1 -1.1104 12.2876 19.5113 6.73209
78 1 -1.1104 12.2196 16.6262 12.4018
29 1 -1.1104 12.2816 14.0264 9.58726
193 1 -1.1104 9.47037 19.6369 9.57408
223 1 -1.1104 9.43093 16.7272 9.60517
146 1 -1.1104 12.2934 16.7914 6.67144
30 1 -1.1104 12.1951 19.6319 9.53094
24 2 2.2208 10.7744 18.3287 10.9166
287 1 -1.1104 6.53285 19.3761 12.4124
222 1 -1.1104 9.43156 16.7973 12.3655
27 1 -1.1104 12.2904 13.889 12.5137
133 1 -1.1104 9.39793 14.1908 12.3507
28 1 -1.1104 12.1675 19.4923 12.2932
162 2 2.2208 8.01041 18.0837 8.13215
134 1 -1.1104 9.36021 19.7178 12.3074
80 2 2.2208 10.9369 20.9972 8.13451
132 1 -1.1104 12.2743 16.8588 9.5608
195 2 2.2208 7.95108 21.0004 10.876
169 1 -1.1104 9.41471 13.9792 9.4585
79 2 2.2208 10.9375 15.4192 8.25114
140 1 -1.1104 12.3253 13.9139 6.72709
316 2 2.2208 8.1095 18.156 13.7301
323 2 2.2208 5.17168 1.23345 16.4948
324 1 -1.1104 1.00854 -2.95543 17.7954
325 1 -1.1104 1.08315 2.76663 17.8428
328 1 -1.1104 1.024 -2.89457 14.9941
330 1 -1.1104 0.981546 2.75582 14.932
336 1 -1.1104 0.834909 -0.151227 17.9773
338 2 2.2208 5.16996 -1.49575 19.2546
339 2 2.2208 5.03301 3.94968 19.1319
340 1 -1.1104 0.895513 -0.131726 15.2486
344 1 -1.1104 3.82653 -2.91035 17.8434
345 1 -1.1104 3.74221 2.64493 17.8619
346 2 2.2208 2.37796 1.23851 19.3891
347 1 -1.1104 3.80666 -2.94166 15.123
349 1 -1.1104 3.7962 2.64112 15.1136
351 2 2.2208 2.41831 -1.57726 16.5163
352 2 2.2208 2.36918 4.08615 16.4814
353 1 -1.1104 3.68026 -0.141879 17.8844
354 1 -1.1104 3.69272 -0.213035 15.0373
364 2 2.2208 2.39245 1.2815 13.7926
331 1 -1.1104 1.00627 2.72623 20.5879
342 1 -1.1104 6.58204 -0.150957 15.0725
337 1 -1.1104 6.64062 -0.0294298 17.8135
334 1 -1.1104 6.51377 2.76264 14.92
332 1 -1.1104 6.47787 -2.92997 15.1854
326 1 -1.1104 6.67109 -2.79723 17.9501
624 2 2.2208 2.449 -4.30008 19.2786
9195 2 2.2208 13.6721 -4.32036 19.2552
9379 2 2.2208 13.5413 -4.28004 13.5746
327 1 -1.1104 6.52479 2.66593 17.6404
366 2 2.2208 10.7875 1.21531 16.367
367 1 -1.1104 12.1658 -3.01248 17.8319
368 1 -1.1104 12.2219 2.65546 17.8429
369 1 -1.1104 12.03 -2.92895 14.9492
371 1 -1.1104 12.0529 2.93178 15.0781
373 1 -1.1104 12.4074 -0.197737 17.9571
374 2 2.2208 10.9286 -1.54634 19.321
376 1 -1.1104 12.2745 -0.0885241 15.0645
378 1 -1.1104 9.40446 -2.94428 17.9166
379 1 -1.1104 9.38529 2.6613 17.7312
380 2 2.2208 8.01023 1.2796 19.1954
381 1 -1.1104 9.2898 -3.05042 15.0758
383 1 -1.1104 9.35069 2.45451 14.8401
385 2 2.2208 7.9159 -1.55948 16.5177
387 1 -1.1104 9.53139 -0.0781972 17.9101
388 1 -1.1104 9.48232 -0.247926 15.0888
386 2 2.2208 7.96995 4.13203 16.483
375 2 2.2208 10.7691 4.21311 19.3405
629 2 2.2208 10.7793 -1.63157 13.659
633 2 2.2208 7.84651 1.16741 13.5603
8417 2 2.2208 8.03321 -4.22944 19.3769
377 1 -1.1104 12.2806 -0.130465 20.8788
9194 2 2.2208 13.6891 -1.49694 16.4296
9051 2 2.2208 13.5725 1.26509 19.3925
8998 2 2.2208 13.5815 1.32109 13.7141
399 2 2.2208 5.15273 7.05703 16.4096
400 2 2.2208 5.12238 12.5142 16.4295
401 1 -1.1104 1.03016 8.43837 17.8243
403 1 -1.1104 0.997087 8.30136 14.9641
406 1 -1.1104 0.898202 5.52542 17.8016
407 1 -1.1104 1.09282 11.2657 17.6687
410 2 2.2208 5.28157 9.64287 19.4498
411 1 -1.1104 0.893817 5.53853 15.0909
413 1 -1.1104 1.09081 11.0961 14.968
418 1 -1.1104 3.88978 8.25659 17.9164
419 2 2.2208 2.36264 7.00661 19.1615
420 2 2.2208 2.40958 12.6102 19.201
421 1 -1.1104 3.80268 8.37663 15.1118
423 2 2.2208 2.41641 9.82213 16.3043
424 1 -1.1104 3.67784 5.5203 17.7917
425 1 -1.1104 3.91126 11.2067 17.8996
426 1 -1.1104 3.81391 5.57294 15.0077
428 1 -1.1104 3.87531 11.1753 14.9511
409 1 -1.1104 6.5665 11.1441 17.7041
405 1 -1.1104 6.55678 8.36767 15.1088
306 2 2.2208 2.30887 12.4687 13.5852
414 1 -1.1104 0.988268 11.2604 20.7319
634 2 2.2208 2.38005 6.92662 13.6106
307 2 2.2208 5.27737 9.77508 13.59
408 1 -1.1104 6.45733 5.49577 17.81
450 1 -1.1104 6.62687 11.1656 20.4567
415 1 -1.1104 6.56893 5.5828 15.1943
412 1 -1.1104 0.957576 5.61111 20.4733
427 1 -1.1104 3.67599 5.34198 20.4864
310 2 2.2208 10.7186 10.1427 13.8528
417 1 -1.1104 6.55087 11.278 14.9786
436 1 -1.1104 6.85818 8.30407 17.9671
435 2 2.2208 10.6447 12.8621 16.6294
438 1 -1.1104 12.4266 5.30388 18.0496
439 1 -1.1104 12.1632 11.3902 15.3253
442 2 2.2208 7.66887 6.6839 19.3812
443 2 2.2208 8.01164 12.7008 19.3017
444 1 -1.1104 9.36881 8.58426 15.1623
445 2 2.2208 8.0954 9.91381 16.436
446 1 -1.1104 9.28927 5.38964 18.3043
447 1 -1.1104 9.44313 11.2523 17.8581
449 1 -1.1104 9.38789 11.4668 15.0692
262 1 -1.1104 9.44764 5.36073 15.1184
311 2 2.2208 8.12856 7.01211 13.8678
441 1 -1.1104 12.1027 11.489 20.6752
437 1 -1.1104 12.1483 8.16518 20.5856
309 2 2.2208 8.02819 12.8001 13.6139
9007 2 2.2208 13.7293 12.4582 13.8608
362 2 2.2208 13.6278 6.82217 19.439
312 2 2.2208 5.18453 15.3709 13.8699
453 2 2.2208 5.15336 18.1049 16.5501
454 1 -1.1104 0.988877 14.1037 18.0569
455 1 -1.1104 0.857155 19.5059 18.0479
458 1 -1.1104 1.04185 13.9961 15.2548
460 1 -1.1104 0.999011 19.5727 15.2557
466 1 -1.1104 0.851611 16.7343 17.8224
468 2 2.2208 5.17023 15.2554 19.3162
469 2 2.2208 5.22674 20.8449 19.26
470 1 -1.1104 1.01118 16.728 15.0383
474 1 -1.1104 3.75517 13.9597 17.9376
475 1 -1.1104 3.81834 19.5551 17.9475
476 2 2.2208 2.40599 18.1905 19.3417
477 1 -1.1104 3.66787 13.8811 15.1272
479 1 -1.1104 3.92663 19.3784 15.1297
481 2 2.2208 2.35775 15.3155 16.5234
482 2 2.2208 2.4724 20.9184 16.4715
483 1 -1.1104 3.78033 16.7268 17.9556
484 1 -1.1104 3.72719 16.713 15.1434
462 1 -1.1104 6.50525 14.0638 15.1409
472 1 -1.1104 6.53953 16.8611 15.0817
457 1 -1.1104 6.61455 19.3862 17.9733
313 2 2.2208 2.38316 18.1071 13.7314
635 2 2.2208 5.33221 20.9012 13.8359
9231 2 2.2208 -0.485355 18.2236 16.6096
630 2 2.2208 -0.513063 20.8017 19.3252
478 1 -1.1104 3.76712 13.9277 20.6805
9014 2 2.2208 -0.436549 15.3543 13.7539
9012 2 2.2208 -0.413787 20.9151 13.8005
464 1 -1.1104 6.64533 19.6557 15.2148
467 1 -1.1104 6.52038 16.7739 18.0283
502 1 -1.1104 12.3729 17.022 20.9262
456 1 -1.1104 6.5424 13.9644 17.8817
491 2 2.2208 10.855 18.1105 16.582
492 1 -1.1104 12.2893 13.7407 18.1215
493 1 -1.1104 12.2843 19.4043 18.0277
494 1 -1.1104 12.0387 14.2093 15.3153
496 1 -1.1104 12.237 19.6261 15.1558
498 1 -1.1104 12.0728 16.6683 18.0489
499 2 2.2208 10.85 15.2908 19.5259
500 2 2.2208 10.7015 21.0022 19.5063
501 1 -1.1104 12.3299 16.831 15.1435
503 1 -1.1104 9.36747 14.1831 18.0155
504 1 -1.1104 9.194 19.581 18.1983
505 2 2.2208 7.96622 18.1917 19.5088
506 1 -1.1104 9.22581 14.1643 15.1835
508 1 -1.1104 9.34105 19.4825 15.2434
510 2 2.2208 7.91183 15.5018 16.5521
511 2 2.2208 8.01495 20.8435 16.7296
512 1 -1.1104 9.48252 16.8184 17.9148
513 1 -1.1104 9.41026 16.7403 15.125
9190 2 2.2208 13.6916 18.243 19.4769
463 1 -1.1104 6.64297 13.8563 20.7256
490 2 2.2208 10.8716 15.4479 13.8563
9188 2 2.2208 13.52 15.3548 16.6711
317 2 2.2208 10.8293 21.0398 13.8092
507 1 -1.1104 9.36725 13.8583 20.9664
8379 2 2.2208 2.35292 -4.33863 24.9747
625 2 2.2208 5.17466 -4.51967 22.177
350 1 -1.1104 3.68499 2.64424 20.6564
329 1 -1.1104 1.12242 -2.91539 20.5499
355 1 -1.1104 3.71487 -0.126971 20.7734
341 1 -1.1104 0.75308 -0.0759153 20.6959
348 1 -1.1104 3.74526 -2.9174 20.7272
518 2 2.2208 5.09844 1.33332 22.1276
519 1 -1.1104 1.10746 -2.87222 23.4685
520 1 -1.1104 1.11029 2.67749 23.514
523 1 -1.1104 1.02451 -2.95076 26.398
524 1 -1.1104 0.898058 2.69512 26.2961
527 1 -1.1104 0.847934 -0.0462032 23.5511
529 2 2.2208 5.15868 -1.61475 24.9455
530 2 2.2208 5.01454 3.96042 24.7086
531 1 -1.1104 0.91264 -0.180519 26.3551
533 1 -1.1104 3.6873 -2.95471 23.4815
534 1 -1.1104 3.68282 2.54229 23.5621
535 2 2.2208 2.36046 1.22572 25.0221
536 1 -1.1104 3.85033 -2.97165 26.4277
537 1 -1.1104 3.6857 2.64613 26.3252
538 2 2.2208 2.34412 -1.53077 22.0029
540 1 -1.1104 3.79073 -0.172074 23.5742
541 1 -1.1104 3.86345 -0.172206 26.3226
539 2 2.2208 2.38967 4.11363 22.0641
343 1 -1.1104 6.59458 -0.125305 20.6196
335 1 -1.1104 6.46087 2.66002 20.7954
526 1 -1.1104 6.64863 2.90766 26.3422
521 1 -1.1104 6.46945 -2.98187 23.6198
522 1 -1.1104 6.73452 2.63801 23.6265
525 1 -1.1104 6.60742 -2.92954 26.4439
532 1 -1.1104 6.53849 0.0171596 26.2612
318 2 2.2208 5.22317 1.24385 27.7424
384 1 -1.1104 9.28496 2.85837 20.542
9049 2 2.2208 13.453 1.30773 24.9551
9050 2 2.2208 13.6181 -1.5567 22.1132
333 1 -1.1104 6.63382 -2.95843 20.6985
372 1 -1.1104 12.0056 2.57758 20.7282
370 1 -1.1104 12.2432 -2.85323 20.6462
389 1 -1.1104 9.48849 -0.0711975 20.7618
528 1 -1.1104 6.51045 -0.274912 23.3932
382 1 -1.1104 9.35185 -2.96369 20.7176
553 2 2.2208 10.8146 1.32648 22.0359
554 1 -1.1104 12.196 -2.8471 23.4374
555 1 -1.1104 12.2183 2.5301 23.4996
556 1 -1.1104 12.2039 -2.86001 26.1891
557 1 -1.1104 12.112 2.6384 26.3942
558 1 -1.1104 12.0844 -0.101157 23.5742
559 2 2.2208 10.8051 -1.53699 24.9841
560 2 2.2208 10.6918 4.24269 24.9877
561 1 -1.1104 12.1023 -0.0526991 26.3896
562 1 -1.1104 9.45763 -2.94621 23.5056
563 1 -1.1104 9.52074 2.8992 23.3956
564 2 2.2208 8.0711 1.32289 24.8114
565 1 -1.1104 9.40794 -3.04742 26.2615
566 1 -1.1104 9.22977 2.56319 26.4395
567 2 2.2208 7.98702 -1.42626 22.1107
569 1 -1.1104 9.36061 -0.0476514 23.4435
570 1 -1.1104 9.26588 -0.172461 26.3144
568 2 2.2208 7.99579 4.24666 22.1379
25 2 2.2208 8.09049 4.00574 27.7258
9004 2 2.2208 13.5281 4.03957 27.7019
9376 2 2.2208 13.4737 -1.47576 27.6924
429 1 -1.1104 3.75747 11.1127 20.7035
404 1 -1.1104 0.897794 8.41635 20.6822
416 1 -1.1104 6.43897 5.33979 20.6711
422 1 -1.1104 3.72072 8.12668 20.8442
582 2 2.2208 5.08085 6.77516 22.1929
583 2 2.2208 5.29481 12.4456 22.1568
584 1 -1.1104 0.797846 8.27728 23.5522
586 1 -1.1104 0.817975 8.23367 26.3435
588 1 -1.1104 1.0186 5.52355 23.4282
589 1 -1.1104 0.95457 11.2046 23.6457
592 2 2.2208 5.29476 9.71039 25.0039
593 1 -1.1104 1.20566 5.36748 26.2316
594 1 -1.1104 0.823438 11.0762 26.4622
597 1 -1.1104 4.13567 8.28718 23.7113
598 2 2.2208 2.31007 6.92703 24.8874
599 2 2.2208 2.33256 12.5956 25.0156
600 1 -1.1104 3.60708 8.22516 26.2971
601 2 2.2208 2.30514 9.74967 22.0707
602 1 -1.1104 3.6335 5.53272 23.5913
603 1 -1.1104 3.69186 11.0537 23.4921
604 1 -1.1104 4.21466 5.4202 26.5698
605 1 -1.1104 3.63755 11.0942 26.3567
591 1 -1.1104 6.42895 11.1465 23.7156
585 1 -1.1104 6.35016 5.38959 23.6053
596 1 -1.1104 6.51634 11.0714 26.5215
587 1 -1.1104 6.40613 8.33606 26.4042
615 2 2.2208 13.6244 6.85783 24.9602
402 1 -1.1104 6.42001 8.00026 20.7694
448 1 -1.1104 9.22978 5.80601 20.894
440 1 -1.1104 12.1931 5.30799 20.9213
610 1 -1.1104 9.24352 11.0174 26.4646
611 1 -1.1104 9.45346 5.32709 26.5232
612 1 -1.1104 9.29987 11.3526 23.207
613 1 -1.1104 9.58449 5.65137 23.5071
614 2 2.2208 8.1083 12.4672 24.85
616 2 2.2208 11.0302 6.67194 22.1158
617 2 2.2208 10.9478 12.6833 22.2858
618 1 -1.1104 12.3992 8.02164 23.4351
619 1 -1.1104 12.2821 8.00333 26.6988
620 1 -1.1104 12.4799 5.26813 23.6873
621 1 -1.1104 12.5284 11.453 23.3272
622 1 -1.1104 12.2349 5.36624 26.4246
623 1 -1.1104 12.308 11.3263 26.3756
357 2 2.2208 13.4367 9.6359 22.1257
627 2 2.2208 13.7005 12.5275 24.9462
485 1 -1.1104 3.83507 16.855 20.6657
9123 2 2.2208 -0.441282 18.1452 22.209
461 1 -1.1104 1.00992 19.7063 20.7253
480 1 -1.1104 3.71243 19.7194 20.6897
549 1 -1.1104 6.49518 16.9191 26.4493
471 1 -1.1104 0.799815 16.962 20.6054
459 1 -1.1104 0.823219 14.0275 20.7593
606 1 -1.1104 3.6913 19.5189 23.5139
396 2 2.2208 2.44984 15.2517 22.1299
397 2 2.2208 2.50601 20.946 22.271
398 1 -1.1104 3.84933 16.6696 23.4905
430 1 -1.1104 1.04045 16.616 23.4726
432 1 -1.1104 3.74385 13.9712 26.4079
433 1 -1.1104 3.77518 16.8618 26.351
434 2 2.2208 2.33766 18.1926 24.9204
451 1 -1.1104 3.66621 19.6068 26.2822
452 2 2.2208 5.17019 18.0945 22.0662
486 1 -1.1104 0.736804 13.8453 23.6522
487 1 -1.1104 0.911068 19.3502 23.5706
489 2 2.2208 5.23454 15.4137 24.9831
515 2 2.2208 5.21508 20.9214 24.8819
544 1 -1.1104 0.967151 13.9364 26.4235
547 1 -1.1104 1.0434 16.7021 26.2924
548 1 -1.1104 0.862369 19.4181 26.4673
573 1 -1.1104 3.7178 13.8003 23.4607
575 1 -1.1104 6.67041 14.0743 26.3785
542 1 -1.1104 6.52864 19.4645 23.5585
465 1 -1.1104 6.5504 19.4397 20.7867
517 1 -1.1104 12.2749 14.2608 23.619
580 1 -1.1104 9.34397 19.9536 23.4424
473 1 -1.1104 6.62275 16.7047 20.8158
392 1 -1.1104 9.31528 16.7627 26.399
495 1 -1.1104 12.2958 14.1597 20.8664
356 2 2.2208 13.7557 15.5113 22.3977
545 1 -1.1104 12.2283 19.6657 23.8646
514 1 -1.1104 9.44877 16.8484 20.7875
551 1 -1.1104 12.336 17.0011 23.5883
365 2 2.2208 7.97887 15.308 22.1557
574 2 2.2208 10.9467 20.984 25.1504
579 1 -1.1104 9.44859 14.1216 23.5907
393 1 -1.1104 9.46028 17.1162 23.6431
431 1 -1.1104 6.65134 16.6946 23.5799
590 1 -1.1104 6.60814 19.7693 26.3373
581 2 2.2208 8.00015 18.3147 25.0056
552 2 2.2208 10.7462 15.5368 24.9528
488 1 -1.1104 6.52686 13.9706 23.5349
497 1 -1.1104 12.3004 19.763 20.8683
595 1 -1.1104 9.4722 13.984 26.4947
390 2 2.2208 13.5876 20.9838 22.3037
578 1 -1.1104 12.2215 16.9019 26.5066
509 1 -1.1104 9.47048 19.6524 20.7711
577 2 2.2208 7.77472 21.1118 22.1757
516 2 2.2208 10.8721 18.3226 22.3013
609 1 -1.1104 9.45542 19.6016 26.2802
550 1 -1.1104 12.3181 19.5166 26.54
546 1 -1.1104 12.2599 14.0965 26.4273
315 2 2.2208 8.1237 21.0294 27.7548
360 2 2.2208 13.5649 15.4924 27.6614
636 2 2.2208 5.2776 23.828 5.16265
637 2 2.2208 5.3185 29.389 5.26909
638 1 -1.1104 1.18053 25.1699 0.939232
639 1 -1.1104 1.01934 25.1627 3.87275
640 1 -1.1104 0.981609 22.5244 1.06867
641 1 -1.1104 1.17673 27.8844 1.0928
642 2 2.2208 5.24635 26.6443 2.38585
643 1 -1.1104 1.2653 22.274 3.82386
644 1 -1.1104 1.03585 27.9121 3.85309
645 1 -1.1104 3.84043 25.2026 1.26447
646 2 2.2208 2.34432 23.8003 2.5129
647 2 2.2208 2.53273 29.464 2.51724
648 1 -1.1104 3.90271 25.1764 3.84866
649 2 2.2208 2.54409 26.5029 5.27744
650 1 -1.1104 3.76969 22.3886 1.01903
651 1 -1.1104 3.99646 28.0699 1.05624
652 1 -1.1104 3.89416 22.3813 3.85558
653 1 -1.1104 3.79736 28.071 3.98705
659 1 -1.1104 6.39919 22.3252 0.619031
660 1 -1.1104 6.7572 28.0033 1.06862
781 1 -1.1104 6.70186 22.3881 6.74333
953 2 2.2208 5.07416 23.854 -0.26222
9700 2 2.2208 -0.362723 29.4453 5.29799
9945 2 2.2208 -0.320632 29.3646 -0.40125
777 1 -1.1104 0.989603 25.2072 6.88243
951 2 2.2208 2.50096 26.6728 -0.398913
657 1 -1.1104 6.77376 25.1704 0.600836
658 1 -1.1104 6.65252 25.211 3.65314
661 1 -1.1104 6.53895 22.4772 3.66511
662 1 -1.1104 6.64725 27.9288 3.85412
663 2 2.2208 10.8219 23.7349 5.30841
664 2 2.2208 10.9324 29.4113 5.27126
665 1 -1.1104 12.2936 25.1859 1.18652
666 1 -1.1104 12.2575 25.2507 3.9238
667 1 -1.1104 12.193 22.423 1.16928
668 1 -1.1104 12.0935 28.0573 1.18143
669 2 2.2208 10.8095 26.5776 2.51924
670 1 -1.1104 12.213 22.4634 3.93769
671 1 -1.1104 12.2154 28.1027 3.80286
672 1 -1.1104 9.42816 25.2311 1.20048
673 2 2.2208 7.92308 23.8756 2.28836
674 2 2.2208 8.00236 29.4157 2.54812
675 1 -1.1104 9.4976 25.2013 3.98778
676 2 2.2208 8.10754 26.4944 5.36563
677 1 -1.1104 9.41461 22.4701 1.06742
678 1 -1.1104 9.42476 27.9644 1.18094
679 1 -1.1104 9.19378 22.3348 3.996
680 1 -1.1104 9.42108 28.0226 4.06952
1197 2 2.2208 10.7792 29.3997 -0.373021
1192 2 2.2208 8.20214 26.7471 -0.345022
684 2 2.2208 5.22892 35.0015 5.31301
685 1 -1.1104 1.02005 30.7732 1.0566
686 1 -1.1104 0.792377 36.4617 1.01299
688 1 -1.1104 1.08915 30.8086 3.88732
689 1 -1.1104 1.10682 36.2744 3.87975
691 1 -1.1104 1.09051 33.5898 1.05221
692 2 2.2208 5.38256 32.2888 2.36358
693 2 2.2208 5.26364 37.8397 2.54129
694 1 -1.1104 1.14287 33.5656 3.83856
696 1 -1.1104 3.88348 30.8532 1.02247
697 1 -1.1104 3.68282 36.334 1.07032
698 2 2.2208 2.54989 34.9753 2.49767
699 1 -1.1104 3.91571 30.7126 3.89396
700 1 -1.1104 3.83347 36.3858 3.92287
701 2 2.2208 2.58489 32.1977 5.19244
702 2 2.2208 2.55775 37.7813 5.22976
703 1 -1.1104 3.98632 33.6436 0.986501
704 1 -1.1104 4.06094 33.5383 3.74953
710 1 -1.1104 6.91289 33.7144 1.17588
842 1 -1.1104 3.88165 33.6057 6.76808
834 1 -1.1104 1.1424 30.8053 6.69634
707 2 2.2208 -0.340657 35.0687 5.17505
706 2 2.2208 -0.335836 32.2092 2.41828
705 2 2.2208 -0.394754 37.9006 2.45599
1224 2 2.2208 -0.434329 35.0467 -0.449825
1221 2 2.2208 2.39174 37.7333 -0.353979
1222 2 2.2208 2.43153 32.1522 -0.375641
1223 2 2.2208 5.2177 35.1458 -0.262647
687 1 -1.1104 6.54717 36.4989 1.15923
695 1 -1.1104 6.72438 33.6097 3.91898
709 1 -1.1104 6.62082 30.9388 3.87313
708 1 -1.1104 6.61969 30.8705 1.13389
690 1 -1.1104 6.5885 36.3967 3.99074
711 2 2.2208 10.9223 34.9438 5.06249
712 1 -1.1104 12.2841 30.8246 0.977142
713 1 -1.1104 12.2575 36.498 1.08184
714 1 -1.1104 12.2336 30.8735 3.77336
715 1 -1.1104 12.4077 36.4858 3.86683
716 1 -1.1104 12.3752 33.6315 0.889622
717 2 2.2208 10.8268 32.1137 2.38869
718 2 2.2208 10.9302 37.8663 2.44614
719 1 -1.1104 12.4228 33.7333 3.71879
720 1 -1.1104 9.31058 30.7909 1.10384
721 1 -1.1104 9.40683 36.4389 1.1101
722 2 2.2208 8.01726 35.023 2.60309
723 1 -1.1104 9.37601 30.7123 3.99241
724 1 -1.1104 9.39631 36.3681 3.90988
725 2 2.2208 8.15601 32.2271 5.21923
726 2 2.2208 8.01397 37.8699 5.2868
727 1 -1.1104 9.54601 33.62 1.16692
728 1 -1.1104 9.53966 33.52 3.8415
1251 2 2.2208 8.04567 32.228 -0.302493
1252 2 2.2208 10.9281 35.0869 -0.239843
1253 2 2.2208 13.7205 32.2606 -0.372833
1250 2 2.2208 8.07526 37.7991 -0.327637
1281 2 2.2208 2.50491 43.2164 -0.277886
9688 2 2.2208 -0.318519 40.6223 5.29774
730 2 2.2208 5.25727 40.6426 5.23026
731 2 2.2208 5.25823 46.2779 5.19503
732 1 -1.1104 1.22069 42.1157 1.11594
734 1 -1.1104 1.1882 42.0166 3.88981
736 1 -1.1104 1.08363 39.3556 1.21544
737 1 -1.1104 1.03406 44.9269 1.04167
740 2 2.2208 5.33493 43.3618 2.57672
741 1 -1.1104 1.0655 39.1877 3.89321
742 1 -1.1104 1.18106 44.7552 3.84592
745 1 -1.1104 3.84664 41.8016 1.06137
746 2 2.2208 2.46397 40.6532 2.54164
747 2 2.2208 2.53949 46.1147 2.38696
748 1 -1.1104 3.94256 42.0341 3.91272
749 2 2.2208 2.48062 43.4295 5.43106
750 1 -1.1104 3.90189 39.0561 0.9872
751 1 -1.1104 3.89536 44.7295 1.00303
752 1 -1.1104 4.00218 39.1913 3.83715
753 1 -1.1104 3.89755 44.8829 3.82571
743 1 -1.1104 6.67579 39.2885 4.03763
739 1 -1.1104 6.64298 44.8548 1.16408
906 1 -1.1104 0.976033 41.9917 6.76205
9686 2 2.2208 -0.197224 43.3919 2.52636
914 1 -1.1104 3.82461 39.233 6.65757
912 1 -1.1104 3.8175 42.0048 6.87767