ITEM: TIMESTEP
60000
ITEM: NUMBER OF ATOMS
17820
ITEM: BOX BOUNDS pp pp pp
-3.5780409016310594e-01 2.7697804090163068e+01
-4.3347015548560943e+00 3.3241470155485695e+02
-3.5421390335289737e-01 2.7694213903353543e+01
ITEM: ATOMS id type q x y z
1 2 2.2208 5.12521 1.41226 5.09601
2 1 -1.1104 0.872868 -2.85359 1.05341
3 1 -1.1104 0.882377 2.94237 1.16628
6 1 -1.1104 0.858902 -2.82523 3.70613
7 1 -1.1104 0.816956 2.80405 4.03476
9 1 -1.1104 0.917017 -0.063626 0.928021
11 2 2.2208 5.08615 -1.47792 2.606
13 1 -1.1104 0.913275 -0.012219 3.69675
15 1 -1.1104 3.58606 -2.83659 1.15561
16 1 -1.1104 3.75455 2.78957 1.16046
17 2 2.2208 2.29024 1.44916 2.41164
18 1 -1.1104 3.59149 -2.86274 3.91979
20 2 2.2208 2.43336 -1.47722 5.16789
22 1 -1.1104 3.59674 -0.118422 1.06142
23 1 -1.1104 3.84441 -0.0589547 3.84025
21 2 2.2208 2.28171 4.0639 5.32737
76 1 -1.1104 3.62398 2.82135 3.85845
19 1 -1.1104 6.50365 2.58677 3.89233
8982 2 2.2208 -0.450064 -1.45522 2.49246
166 1 -1.1104 3.84714 2.7091 6.58763
168 1 -1.1104 3.69021 -2.71487 6.76971
14 1 -1.1104 6.54767 -0.17206 4.46709
10 1 -1.1104 6.52616 0.0758508 1.17896
8984 2 2.2208 -0.446453 4.28936 2.78148
543 2 2.2208 2.30853 -1.4616 -0.289813
170 1 -1.1104 4.04991 0.0682832 6.69638
308 2 2.2208 5.0003 -4.21389 5.23106
8415 2 2.2208 5.06023 -4.23903 -0.297253
8662 2 2.2208 -0.57109 -4.21165 -0.334923
318 2 2.2208 5.11299 1.40758 -0.12475
322 2 2.2208 2.33127 4.28118 -0.187258
8661 2 2.2208 10.667 -4.22324 -0.33225
4 1 -1.1104 6.67512 -2.96582 0.949201
5 1 -1.1104 6.68064 2.81527 1.13979
8 1 -1.1104 6.61726 -2.8109 3.81233
31 2 2.2208 10.7453 1.19585 5.21984
32 1 -1.1104 12.2552 -2.92458 1.01072
33 1 -1.1104 12.1915 2.72464 1.15401
34 1 -1.1104 12.1176 -2.93238 3.83335
35 1 -1.1104 12.2846 2.47206 3.96127
36 1 -1.1104 12.2918 -0.108924 1.05522
37 2 2.2208 10.8754 -1.45097 2.42024
38 2 2.2208 10.7626 4.03222 2.63734
39 1 -1.1104 12.1527 -0.135271 3.82716
40 1 -1.1104 9.46302 -2.87827 1.05826
41 1 -1.1104 9.5289 2.65152 1.28566
42 2 2.2208 8.02486 1.37063 2.50514
43 1 -1.1104 9.42414 -2.90994 3.99153
44 1 -1.1104 9.59187 2.70758 4.02269
45 2 2.2208 8.06246 -1.60109 5.3509
46 1 -1.1104 9.38423 -0.158001 0.987749
47 1 -1.1104 9.36147 -0.184954 3.86354
203 1 -1.1104 9.41385 -0.167446 6.58131
25 2 2.2208 8.20187 3.97137 -0.19276
201 1 -1.1104 9.37646 -3.01652 6.73001
571 2 2.2208 10.8854 1.39214 -0.277321
8315 2 2.2208 8.03023 -4.33902 2.46071
572 2 2.2208 7.95676 -1.35063 -0.358093
198 1 -1.1104 12.0476 -2.69021 6.65478
51 2 2.2208 13.5983 -1.48991 5.27386
12 2 2.2208 5.3447 4.17664 2.50094
8986 2 2.2208 -0.390085 6.96775 5.44985
607 2 2.2208 2.42251 9.81623 -0.228495
52 2 2.2208 5.32156 7.14882 5.09345
53 2 2.2208 5.3054 12.62 5.26192
54 1 -1.1104 1.01102 8.4755 1.06565
56 1 -1.1104 1.02366 8.39779 3.96957
58 1 -1.1104 1.01555 5.68557 1.21048
59 1 -1.1104 1.03921 11.2188 1.05067
64 2 2.2208 5.23806 9.85347 2.48841
65 1 -1.1104 0.946797 5.57989 4.03208
66 1 -1.1104 1.03985 11.2368 3.99084
68 1 -1.1104 3.79998 8.41947 1.16563
69 2 2.2208 2.35868 7.12759 2.57277
70 2 2.2208 2.362 12.5718 2.48274
71 1 -1.1104 3.88252 8.43348 3.89473
72 2 2.2208 2.36062 9.85029 5.2852
73 1 -1.1104 3.8167 5.6251 1.45655
74 1 -1.1104 3.75677 11.1866 1.26293
77 1 -1.1104 3.84965 11.1611 3.99582
57 1 -1.1104 6.43538 5.8298 3.63271
230 1 -1.1104 3.5955 5.73844 4.47018
608 2 2.2208 5.25595 12.5275 -0.235168
304 2 2.2208 5.21301 7.05026 -0.182964
55 1 -1.1104 6.80091 8.27448 1.15419
8999 2 2.2208 -0.400003 6.93053 -0.28406
8987 2 2.2208 -0.40764 9.80381 2.5179
8996 2 2.2208 -0.357211 12.6404 -0.314615
62 1 -1.1104 6.59857 11.0372 1.00904
226 1 -1.1104 6.71989 8.47171 3.82874
67 1 -1.1104 6.68689 11.1911 3.86796
61 1 -1.1104 6.4975 5.46018 0.847616
81 2 2.2208 10.6636 6.86074 5.45999
82 2 2.2208 10.9895 12.389 5.37508
83 1 -1.1104 12.0586 8.01736 1.24523
84 1 -1.1104 12.116 8.26532 4.13897
85 1 -1.1104 12.1303 5.40725 1.24058
86 1 -1.1104 12.1306 11.0112 1.2673
88 2 2.2208 10.9713 9.5849 2.52055
89 1 -1.1104 12.2444 5.29208 4.06071
90 1 -1.1104 12.2397 11.009 4.08557
91 1 -1.1104 9.51606 8.28768 0.842996
92 2 2.2208 8.14079 7.01673 2.48561
93 2 2.2208 8.04814 12.598 2.64159
94 1 -1.1104 9.4104 8.29641 3.96025
95 2 2.2208 8.1231 9.82584 5.1885
96 1 -1.1104 9.25448 5.43512 1.16025
97 1 -1.1104 9.33724 11.1076 1.21046
99 1 -1.1104 9.53789 5.72907 3.65345
100 1 -1.1104 9.61702 11.198 3.93669
320 2 2.2208 10.8664 6.73639 -0.252453
321 2 2.2208 7.98371 9.71232 -0.367602
258 1 -1.1104 9.35489 8.3971 6.77063
101 2 2.2208 13.5619 12.5232 2.63668
63 1 -1.1104 6.71795 11.0771 6.59224
628 2 2.2208 13.584 9.73065 -0.1616
8989 2 2.2208 -0.389534 15.2656 2.48026
103 2 2.2208 5.36964 18.1873 5.27364
104 1 -1.1104 1.05969 13.9524 1.21517
106 1 -1.1104 1.08792 19.687 1.05393
110 1 -1.1104 1.02235 13.9086 4.02108
111 1 -1.1104 1.05476 19.5303 3.86206
113 1 -1.1104 1.17429 16.7462 1.01896
116 2 2.2208 5.17824 15.4095 2.5074
117 2 2.2208 5.43609 20.9581 2.35036
118 1 -1.1104 0.962744 16.7169 3.84919
120 1 -1.1104 3.77342 13.987 1.22323
122 1 -1.1104 3.84765 19.7498 0.947574
124 2 2.2208 2.45035 18.1124 2.45103
125 1 -1.1104 3.73685 13.9482 3.99392
126 1 -1.1104 3.94447 19.5321 3.74087
127 2 2.2208 2.5179 15.4501 5.34328
128 2 2.2208 2.50085 20.8403 5.34388
129 1 -1.1104 3.84566 16.9784 1.14387
131 1 -1.1104 3.82136 16.8366 3.91315
121 1 -1.1104 3.84301 13.7618 6.76863
135 1 -1.1104 6.81615 19.4255 0.921144
49 2 2.2208 2.42997 21.0689 -0.309062
196 2 2.2208 5.19247 18.2354 -0.373143
221 2 2.2208 2.61071 15.3827 -0.257552
9001 2 2.2208 -0.277508 18.1813 -0.253717
137 1 -1.1104 6.49533 16.6909 1.07755
107 1 -1.1104 6.54385 13.9672 1.12744
119 1 -1.1104 6.70964 16.7365 3.86721
112 1 -1.1104 6.6232 14.0499 3.82549
136 1 -1.1104 6.69655 19.4928 3.98311
138 2 2.2208 10.9383 18.0345 5.47944
139 1 -1.1104 12.0916 13.8683 1.0817
141 1 -1.1104 12.3585 19.6534 1.2597
143 1 -1.1104 12.1399 13.8676 4.04969
144 1 -1.1104 12.3464 19.4469 4.03019
145 1 -1.1104 12.4247 16.7097 1.12403
147 2 2.2208 10.8444 15.3702 2.56951
148 2 2.2208 10.9335 20.9346 2.62028
149 1 -1.1104 12.2948 16.6815 3.98302
150 1 -1.1104 9.27141 13.9379 1.16751
152 1 -1.1104 9.52044 19.4208 0.977959
154 2 2.2208 8.06974 18.1225 2.51805
155 1 -1.1104 9.425 13.9988 3.93575
156 1 -1.1104 9.50228 19.621 3.69884
157 2 2.2208 8.08098 15.2198 5.24785
158 2 2.2208 8.09934 20.9427 5.26402
159 1 -1.1104 9.55104 16.6879 1.15503
161 1 -1.1104 9.51728 16.8313 3.99145
140 1 -1.1104 12.3021 13.8244 6.67482
108 1 -1.1104 6.7332 13.8718 6.66761
160 1 -1.1104 9.48934 16.5405 6.6932
360 2 2.2208 13.7094 15.3184 -0.309723
315 2 2.2208 8.28226 20.8292 -0.280381
395 2 2.2208 10.9228 18.0946 -0.200149
394 2 2.2208 7.96241 15.3507 -0.289568
167 1 -1.1104 1.03644 -0.170375 6.51414
9092 2 2.2208 -0.438869 4.05737 13.709
163 1 -1.1104 0.869432 -2.81747 6.60934
164 1 -1.1104 1.03159 2.69861 6.7804
171 2 2.2208 5.03393 1.31076 10.9143
172 1 -1.1104 1.03473 -2.90052 12.3793
173 1 -1.1104 0.919093 2.64767 12.357
176 1 -1.1104 0.840255 -2.79522 9.5361
177 1 -1.1104 3.07336 2.69436 9.73049
180 1 -1.1104 0.893921 -0.236211 12.2929
182 2 2.2208 4.96984 -1.5528 8.31127
183 1 -1.1104 0.838658 0.0329009 9.40548
184 1 -1.1104 3.71264 -2.94572 12.347
185 1 -1.1104 3.75468 2.74004 12.291
186 2 2.2208 2.43076 1.26567 7.91733
187 1 -1.1104 3.54891 -2.94763 9.68893
188 2 2.2208 2.29284 -1.54586 11.0434
190 1 -1.1104 3.64688 -0.102536 12.3044
191 1 -1.1104 3.49447 -0.2191 9.49446
189 2 2.2208 2.47103 4.21906 11.113
179 1 -1.1104 6.42517 0.180516 9.54201
175 1 -1.1104 6.69287 2.73411 12.0206
8993 2 2.2208 -0.426559 -1.44785 8.07907
181 1 -1.1104 6.40867 0.00927299 12.2903
174 1 -1.1104 6.51961 -2.96814 12.0403
632 2 2.2208 5.26518 4.31827 13.7635
302 2 2.2208 7.91612 -4.38908 7.97476
8348 2 2.2208 10.5656 -4.28827 11.0729
165 1 -1.1104 6.39441 -2.64222 6.68265
200 1 -1.1104 12.2578 -0.0364876 6.65974
178 1 -1.1104 6.37979 -2.84604 9.4381
199 1 -1.1104 11.9204 2.70557 6.72369
204 2 2.2208 10.727 1.31403 10.8361
205 1 -1.1104 12.1573 -2.90269 12.3481
206 1 -1.1104 12.1773 2.78829 12.2886
207 1 -1.1104 12.107 -2.7671 9.58096
208 1 -1.1104 12.1443 2.71083 9.55892
209 1 -1.1104 12.2098 -0.0446181 12.4232
210 2 2.2208 10.7901 -1.2439 8.13766
212 1 -1.1104 12.4813 -0.0361775 9.46659
213 1 -1.1104 9.34635 -2.76419 12.2887
214 1 -1.1104 9.46586 2.79123 12.365
215 1 -1.1104 9.1357 -2.9245 9.41088
216 1 -1.1104 9.20855 2.87176 9.4946
217 2 2.2208 7.90853 -1.465 10.8574
219 1 -1.1104 9.29448 0.0415117 12.3127
220 1 -1.1104 9.61949 -0.334372 9.78993
211 2 2.2208 10.8034 4.2114 8.30825
9000 2 2.2208 13.6012 1.40193 8.16192
305 2 2.2208 10.6979 4.20632 13.7039
8820 2 2.2208 13.5026 4.08619 10.9266
8416 2 2.2208 7.88637 -4.34563 13.7494
8915 2 2.2208 -0.338442 6.91492 11.0343
60 1 -1.1104 0.99579 11.167 6.80917
9011 2 2.2208 -0.430346 9.68658 8.24535
225 1 -1.1104 1.07819 8.3314 6.96536
75 1 -1.1104 3.77424 10.8061 6.62737
227 1 -1.1104 1.37603 5.44226 6.97885
229 1 -1.1104 3.86841 8.03908 6.68389
231 2 2.2208 5.21054 6.88634 10.8575
232 2 2.2208 5.26645 12.428 10.7785
233 1 -1.1104 0.844511 8.37461 12.4593
235 1 -1.1104 1.03364 8.2288 9.67244
237 1 -1.1104 1.17614 5.51799 12.4706
238 1 -1.1104 0.936756 11.1508 12.2147
241 2 2.2208 5.26822 9.58266 8.02732
242 1 -1.1104 0.802475 5.2939 9.78216
243 1 -1.1104 1.0932 11.1532 9.51219
246 1 -1.1104 3.69796 8.36955 12.2319
247 2 2.2208 2.43571 7.03041 8.25386
248 2 2.2208 2.57965 12.5541 8.08201
249 1 -1.1104 3.83175 8.25501 9.49197
250 2 2.2208 2.40383 9.76786 10.9589
251 1 -1.1104 3.88393 5.51866 12.3643
252 1 -1.1104 3.77158 11.1298 12.2475
253 1 -1.1104 3.6487 5.49226 9.39702
254 1 -1.1104 3.85933 10.9289 9.47538
8907 2 2.2208 -0.328676 12.643 10.919
240 1 -1.1104 6.60413 11.2557 12.3693
307 2 2.2208 5.20176 9.74967 13.6463
306 2 2.2208 2.35836 12.4698 13.7324
314 2 2.2208 13.654 12.5145 8.09695
87 1 -1.1104 12.3154 10.9604 6.85432
218 2 2.2208 8.09755 4.25246 10.9308
234 1 -1.1104 6.6476 8.36135 12.3016
228 1 -1.1104 6.66046 7.90464 6.66626
245 1 -1.1104 6.65034 10.9595 9.56568
244 1 -1.1104 6.75381 5.58713 9.47751
236 1 -1.1104 6.71003 8.31495 9.52164
239 1 -1.1104 6.6487 5.44647 12.2632
256 1 -1.1104 12.1538 8.25903 6.96314
98 1 -1.1104 9.4623 11.0174 6.5966
257 1 -1.1104 12.1948 5.4895 6.82304
202 1 -1.1104 9.46011 5.62551 6.96659
255 1 -1.1104 9.41568 11.0708 9.50907
259 1 -1.1104 9.43142 5.66802 12.3251
260 1 -1.1104 9.53112 5.63322 9.73704
261 1 -1.1104 9.36501 11.1084 12.3168
263 2 2.2208 8.08046 9.73028 10.9809
264 1 -1.1104 9.58093 8.27028 9.60263
265 2 2.2208 8.02359 12.4555 8.15083
266 2 2.2208 8.15097 6.93117 8.33992
267 2 2.2208 10.8755 6.9992 11.1203
268 2 2.2208 10.8966 12.6048 10.9535
269 1 -1.1104 12.3 8.3443 12.6122
270 1 -1.1104 12.2136 8.38615 9.72023
271 1 -1.1104 12.0954 5.69536 12.6836
272 1 -1.1104 12.1206 11.0968 12.3952
273 2 2.2208 10.7294 9.66389 8.17261
274 1 -1.1104 12.2107 5.50477 9.8332
275 1 -1.1104 12.2942 11.0926 9.46335
276 1 -1.1104 9.50221 8.44896 12.3321
309 2 2.2208 8.00601 12.5934 13.7193
123 1 -1.1104 3.94638 19.4785 6.5659
293 1 -1.1104 1.04376 19.6922 6.57957
114 1 -1.1104 1.03491 16.8598 6.76188
8686 2 2.2208 -0.316695 15.3912 8.15174
8880 2 2.2208 -0.417435 21.0721 8.06188
105 1 -1.1104 1.17857 13.9935 6.84555
130 1 -1.1104 3.72974 16.6178 6.76758
301 2 2.2208 2.34285 15.525 11.0491
300 2 2.2208 2.46123 21.0451 11.031
299 1 -1.1104 3.84735 16.7743 12.2499
298 1 -1.1104 1.04447 16.9049 12.457
296 1 -1.1104 3.86398 13.9224 9.55704
277 1 -1.1104 3.84484 19.6537 12.2045
278 1 -1.1104 3.86764 13.9059 12.4373
282 1 -1.1104 0.946069 19.5488 9.39308
283 1 -1.1104 1.1705 16.8475 9.68371
284 2 2.2208 5.3254 20.8957 8.15841
285 1 -1.1104 1.03996 14.0315 9.53837
286 2 2.2208 5.21238 15.16 8.04281
289 1 -1.1104 1.01467 19.7189 12.2142
290 1 -1.1104 1.17626 14.1152 12.4629
291 2 2.2208 5.20093 18.1269 10.8473
292 1 -1.1104 3.84217 19.4593 9.47655
294 2 2.2208 2.44526 18.2825 8.06015
295 1 -1.1104 3.95507 16.8477 9.52381
115 1 -1.1104 6.59282 16.6704 6.63356
297 1 -1.1104 6.73626 16.8642 12.3631
281 1 -1.1104 6.74298 13.8561 9.51584
279 1 -1.1104 6.65773 19.4302 9.45762
8980 2 2.2208 13.6482 15.4719 11.1342
134 1 -1.1104 9.4247 19.6156 12.3158
27 1 -1.1104 12.2609 14.0794 12.4673
29 1 -1.1104 12.2161 14.029 9.5844
146 1 -1.1104 12.3321 16.6391 6.92676
80 2 2.2208 10.8002 20.8584 8.11116
78 1 -1.1104 12.2295 16.7943 12.4371
287 1 -1.1104 6.63269 19.5943 12.3711
151 1 -1.1104 9.407 13.7946 6.77662
280 1 -1.1104 6.74686 16.5298 9.36233
288 1 -1.1104 6.66058 14.0095 12.3033
109 1 -1.1104 6.68564 19.5745 6.60602
194 2 2.2208 8.08159 15.3241 10.9962
133 1 -1.1104 9.49874 13.9795 12.4605
30 1 -1.1104 12.3422 19.5765 9.64627
195 2 2.2208 8.10467 20.8903 10.9171
153 1 -1.1104 9.46016 19.4433 6.71386
222 1 -1.1104 9.45425 16.8087 12.4656
132 1 -1.1104 12.288 16.6915 9.72451
79 2 2.2208 10.8113 15.2303 8.22366
169 1 -1.1104 9.42102 13.8472 9.68327
193 1 -1.1104 9.48082 19.496 9.5085
24 2 2.2208 10.8083 18.1475 11.0289
28 1 -1.1104 12.2167 19.4715 12.3385
223 1 -1.1104 9.367 16.7461 9.53067
142 1 -1.1104 12.1479 19.3926 6.8729
162 2 2.2208 8.01603 18.084 8.06946
490 2 2.2208 10.9049 15.4146 13.8734
323 2 2.2208 5.17494 1.26169 16.346
324 1 -1.1104 0.870634 -3.05015 17.9874
325 1 -1.1104 0.975687 2.67141 17.8964
328 1 -1.1104 1.0565 -2.92202 15.1762
330 1 -1.1104 1.04805 2.66247 15.2764
336 1 -1.1104 1.01528 -0.219735 18.0206
338 2 2.2208 5.10671 -1.47367 19.278
339 2 2.2208 5.0849 3.96699 19.2594
340 1 -1.1104 0.98891 -0.305605 15.1089
344 1 -1.1104 3.76229 -2.7912 17.9985
345 1 -1.1104 3.65913 2.84568 17.8734
346 2 2.2208 2.16753 1.28866 19.2592
347 1 -1.1104 3.82838 -2.915 15.0926
349 1 -1.1104 3.75181 2.64676 15.0833
351 2 2.2208 2.43786 -1.47474 16.5212
352 2 2.2208 2.31777 4.18176 16.5801
353 1 -1.1104 3.79741 0.0154571 17.7359
354 1 -1.1104 3.87435 -0.19665 15.0829
9088 2 2.2208 -0.455756 4.03477 19.3776
363 2 2.2208 5.27752 -1.55192 13.7436
624 2 2.2208 2.32269 -4.17508 19.334
9233 2 2.2208 -0.516222 -1.61251 19.3298
364 2 2.2208 2.43747 1.29413 13.5831
332 1 -1.1104 6.6615 -2.996 15.0816
335 1 -1.1104 6.35445 2.61438 20.6059
17516 2 2.2208 -0.457458 -4.32911 16.5024
331 1 -1.1104 0.946434 2.61626 20.7291
8445 2 2.2208 2.39675 -4.30433 13.6168
337 1 -1.1104 6.61265 -0.0496029 17.9148
326 1 -1.1104 6.55476 -2.95032 17.6292
334 1 -1.1104 6.49339 2.65141 14.8074
342 1 -1.1104 6.63877 -0.232836 15.109
327 1 -1.1104 6.62876 2.70171 17.7376
366 2 2.2208 10.7126 1.37942 16.5951
367 1 -1.1104 12.2658 -2.92559 17.8536
368 1 -1.1104 12.2066 2.79929 18.017
369 1 -1.1104 12.1957 -2.83058 15.0254
371 1 -1.1104 12.1333 2.87927 15.1385
373 1 -1.1104 12.107 0.0699042 17.923
374 2 2.2208 10.8776 -1.50991 19.2999
376 1 -1.1104 12.14 -0.0623392 15.1316
378 1 -1.1104 9.39312 -3.01874 17.8732
379 1 -1.1104 9.3967 2.56559 18.1255
380 2 2.2208 7.98485 1.3292 19.4549
381 1 -1.1104 9.39847 -2.96327 15.1245
383 1 -1.1104 9.21453 2.65951 15.2275
385 2 2.2208 8.01119 -1.50463 16.5143
387 1 -1.1104 9.31945 -0.180188 18.0502
388 1 -1.1104 9.4077 -0.138628 15.1414
386 2 2.2208 7.99804 4.15166 16.5799
375 2 2.2208 10.8052 4.17602 19.3474
633 2 2.2208 7.99694 1.35811 13.6828
8417 2 2.2208 8.06691 -4.40438 19.37
391 2 2.2208 10.7401 -4.29404 16.4372
629 2 2.2208 10.7044 -1.39107 13.7476
9194 2 2.2208 13.5532 -1.54585 16.4343
631 2 2.2208 -0.429944 9.67497 19.4769
399 2 2.2208 5.20653 6.95119 16.666
400 2 2.2208 5.20591 12.5827 16.6011
401 1 -1.1104 0.889094 8.19986 17.9702
403 1 -1.1104 1.07562 8.50368 15.2191
406 1 -1.1104 0.814229 5.44474 17.9847
407 1 -1.1104 0.980602 11.1384 17.9319
410 2 2.2208 5.32415 9.76581 19.3756
411 1 -1.1104 1.06453 5.55113 15.2301
413 1 -1.1104 1.00278 11.1316 15.0667
418 1 -1.1104 3.95379 8.38082 17.9235
419 2 2.2208 2.41683 6.79199 19.2715
420 2 2.2208 2.49671 12.5208 19.363
421 1 -1.1104 3.84775 8.26388 15.1719
423 2 2.2208 2.40881 9.77821 16.5151
424 1 -1.1104 3.74398 5.58306 17.9436
425 1 -1.1104 3.89605 11.0718 18.0519
426 1 -1.1104 3.88867 5.53489 15.1954
428 1 -1.1104 3.8501 10.9716 15.1299
408 1 -1.1104 6.41906 5.38404 17.7802
409 1 -1.1104 6.66883 11.108 17.97
9125 2 2.2208 -0.296325 12.477 16.6545
634 2 2.2208 2.35788 7.03324 13.8475
417 1 -1.1104 6.56639 11.1384 15.2718
405 1 -1.1104 6.58703 8.48977 15.0867
450 1 -1.1104 6.59261 11.1957 20.674
427 1 -1.1104 3.64552 5.29184 20.8066
415 1 -1.1104 6.65778 5.67235 15.1684
436 1 -1.1104 7.03097 8.11171 17.7103
435 2 2.2208 10.6949 12.5482 16.5472
438 1 -1.1104 12.5196 5.60128 17.9494
439 1 -1.1104 12.0025 11.3534 15.0722
442 2 2.2208 7.96394 6.70818 19.3451
443 2 2.2208 8.07078 12.4421 19.3256
444 1 -1.1104 9.74949 8.31589 15.1716
445 2 2.2208 8.06532 9.79935 16.4501
446 1 -1.1104 9.27368 5.37133 18.0479
447 1 -1.1104 9.34017 11.213 17.8647
449 1 -1.1104 9.31227 11.1989 15.0316
262 1 -1.1104 9.38965 5.37991 15.1772
310 2 2.2208 10.757 9.75189 13.7104
441 1 -1.1104 12.2406 11.274 20.4303
437 1 -1.1104 11.9729 8.08421 20.567
448 1 -1.1104 9.37902 5.80044 20.7273
311 2 2.2208 8.10661 7.01203 13.9635
416 1 -1.1104 6.44627 5.35995 20.7156
9007 2 2.2208 13.6257 12.5394 13.7973
9230 2 2.2208 -0.339409 15.3272 19.2883
9231 2 2.2208 -0.320987 18.2583 16.47
312 2 2.2208 5.33604 15.4159 13.6893
453 2 2.2208 5.29024 18.1871 16.4681
454 1 -1.1104 0.945726 13.9208 17.9213
455 1 -1.1104 1.02692 19.7504 17.7446
458 1 -1.1104 0.929805 13.8567 15.207
460 1 -1.1104 1.10692 19.7744 15.0755
466 1 -1.1104 0.939121 16.9153 18.0015
468 2 2.2208 5.31676 15.4184 19.363
469 2 2.2208 5.39131 20.8951 19.1406
470 1 -1.1104 1.27928 16.8365 15.1866
474 1 -1.1104 3.79909 13.9024 17.9182
475 1 -1.1104 3.898 19.709 17.7677
476 2 2.2208 2.45608 18.3433 19.3063
477 1 -1.1104 3.58184 13.8994 15.1566
479 1 -1.1104 3.82885 19.5444 15.0505
481 2 2.2208 2.43953 15.2465 16.5595
482 2 2.2208 2.44922 21.0934 16.4144
483 1 -1.1104 3.60467 16.8134 17.8373
484 1 -1.1104 3.9138 16.8052 15.0528
472 1 -1.1104 6.62688 16.7397 15.1188
465 1 -1.1104 6.5441 19.5976 20.6334
630 2 2.2208 -0.189797 21.0601 19.3747
9012 2 2.2208 -0.362954 21.0707 13.6863
635 2 2.2208 5.30584 20.9667 13.7138
313 2 2.2208 2.3859 18.3084 13.7605
317 2 2.2208 10.8664 20.9157 13.7752
467 1 -1.1104 6.5615 16.6809 17.8613
464 1 -1.1104 6.59131 19.6309 15.0856
462 1 -1.1104 6.61746 13.8037 15.1397
456 1 -1.1104 6.66446 13.8853 18.0078
457 1 -1.1104 6.67587 19.404 17.8845
491 2 2.2208 10.8998 18.1926 16.6958
492 1 -1.1104 12.2724 13.6308 18.0697
493 1 -1.1104 12.2396 19.6808 18.1626
494 1 -1.1104 12.107 14.0698 15.3648
496 1 -1.1104 12.3001 19.6253 15.2257
498 1 -1.1104 12.311 16.6787 18.0824
499 2 2.2208 10.9095 15.4242 19.4282
500 2 2.2208 10.87 21.0803 19.4751
501 1 -1.1104 12.2044 16.959 15.1779
503 1 -1.1104 9.44507 14.0863 17.8818
504 1 -1.1104 9.47287 19.5642 17.9451
505 2 2.2208 8.17545 18.2623 19.349
506 1 -1.1104 9.36111 14.0139 15.2633
508 1 -1.1104 9.39294 19.639 15.155
510 2 2.2208 7.99959 15.465 16.5202
511 2 2.2208 8.09878 21.0164 16.6171
512 1 -1.1104 9.34745 16.7784 18.0164
513 1 -1.1104 9.33618 16.8264 15.1834
507 1 -1.1104 9.65321 13.986 20.8514
9188 2 2.2208 13.5519 15.4138 16.6205
9191 2 2.2208 13.7942 20.9601 16.6751
316 2 2.2208 7.95696 18.1806 13.699
9120 2 2.2208 -0.509778 -4.14045 22.1385
625 2 2.2208 5.07229 -4.32728 22.1174
350 1 -1.1104 3.62898 2.45919 20.7315
8379 2 2.2208 2.40376 -4.26594 24.8454
329 1 -1.1104 0.95194 -2.89033 20.6906
348 1 -1.1104 3.62536 -2.98738 20.7297
341 1 -1.1104 0.87472 -0.0797996 20.7289
9090 2 2.2208 -0.41852 -1.48385 25.0203
355 1 -1.1104 3.62536 -0.164004 20.4747
518 2 2.2208 5.03847 1.28386 22.0759
519 1 -1.1104 0.889743 -2.78812 23.5242
520 1 -1.1104 0.90038 2.73696 23.5356
523 1 -1.1104 1.01202 -2.76277 26.3922
524 1 -1.1104 0.84726 2.84563 26.2693
527 1 -1.1104 0.872892 -0.000869205 23.4668
529 2 2.2208 5.1401 -1.47437 24.7639
530 2 2.2208 5.06946 4.06199 24.924
531 1 -1.1104 0.989848 0.0229552 26.3087
533 1 -1.1104 3.76074 -2.9872 23.4686
534 1 -1.1104 3.73202 2.58261 23.7174
535 2 2.2208 2.30344 1.27263 25.0593
536 1 -1.1104 3.77563 -2.76811 26.2465
537 1 -1.1104 3.66727 2.66234 26.4933
538 2 2.2208 2.23563 -1.48085 22.1289
540 1 -1.1104 3.74415 -0.172791 23.3391
541 1 -1.1104 3.66223 -0.0469916 26.2918
539 2 2.2208 2.38021 3.96892 22.1124
9161 2 2.2208 -0.458679 4.19557 24.9165
525 1 -1.1104 6.40324 -2.82931 26.1154
532 1 -1.1104 6.53042 0.309795 26.4779
9124 2 2.2208 -0.412531 1.25814 22.1136
370 1 -1.1104 12.0254 -2.98187 20.5637
8376 2 2.2208 7.87532 -4.23071 25.0006
343 1 -1.1104 6.46475 -0.183373 20.8516
372 1 -1.1104 12.0086 2.71815 20.8274
389 1 -1.1104 9.3655 -0.00560573 20.7911
382 1 -1.1104 9.22001 -2.94705 20.7772
522 1 -1.1104 6.53791 2.86534 23.458
528 1 -1.1104 6.50058 0.156477 23.7409
521 1 -1.1104 6.48393 -2.79303 23.3959
377 1 -1.1104 12.2877 -0.244421 20.6861
333 1 -1.1104 6.50742 -2.91689 20.4085
384 1 -1.1104 9.07364 2.8917 20.8791
526 1 -1.1104 6.68487 3.38425 26.3225
553 2 2.2208 10.6246 1.40158 22.2395
554 1 -1.1104 12.018 -2.74796 23.3145
555 1 -1.1104 12.1839 2.57695 23.6124
556 1 -1.1104 12.1213 -2.86642 26.2057
557 1 -1.1104 12.0505 2.57809 26.3438
558 1 -1.1104 12.0692 -0.085516 23.5735
559 2 2.2208 10.6819 -1.56382 24.8468
560 2 2.2208 10.8296 4.08399 24.9358
561 1 -1.1104 12.0405 -0.115127 26.3156
562 1 -1.1104 9.30055 -2.76622 23.553
563 1 -1.1104 9.4494 2.77586 23.625
564 2 2.2208 7.94681 1.53483 24.9942
565 1 -1.1104 9.19522 -2.72385 26.3128
566 1 -1.1104 9.31028 2.59504 26.4752
567 2 2.2208 7.91413 -1.50151 22.0908
569 1 -1.1104 9.22721 -0.0274369 23.4133
570 1 -1.1104 9.28617 0.0252277 26.3628
8488 2 2.2208 10.579 -4.30512 22.1131
9049 2 2.2208 13.4826 1.24383 24.8956
414 1 -1.1104 1.19169 11.055 20.7398
429 1 -1.1104 3.96818 11.1666 20.8605
9046 2 2.2208 -0.461203 9.68376 25.0395
412 1 -1.1104 0.918403 5.45784 20.8345
422 1 -1.1104 3.85315 8.14781 20.7429
404 1 -1.1104 1.1673 8.29469 20.8169
582 2 2.2208 5.04499 6.78379 22.0918
583 2 2.2208 5.38306 12.4316 22.2099
584 1 -1.1104 1.21225 8.21047 23.5763
586 1 -1.1104 1.00915 8.49511 26.3495
588 1 -1.1104 0.884793 5.61486 23.7014
589 1 -1.1104 0.863818 11.1657 23.5036
592 2 2.2208 5.21178 9.79501 25.178
593 1 -1.1104 1.00338 5.6876 26.4491
594 1 -1.1104 0.982788 11.1939 26.2508
597 1 -1.1104 4.02397 8.23556 23.7487
598 2 2.2208 2.51128 7.00296 25.0331
599 2 2.2208 2.43732 12.576 24.9797
600 1 -1.1104 3.68541 8.23052 26.518
601 2 2.2208 2.48849 9.72438 22.0508
602 1 -1.1104 3.63914 5.3122 23.5941
603 1 -1.1104 3.61012 10.9132 23.7499
604 1 -1.1104 3.93702 5.41503 26.4642
605 1 -1.1104 3.75778 11.2238 26.4944
591 1 -1.1104 6.3832 11.146 23.919
585 1 -1.1104 6.40134 5.60574 23.5951
596 1 -1.1104 6.68002 11.2032 26.4105
576 2 2.2208 -0.480575 6.87154 22.242
587 1 -1.1104 6.43572 8.27039 26.5602
568 2 2.2208 7.85054 4.33545 22.2407
402 1 -1.1104 6.5735 8.04185 20.5793
440 1 -1.1104 12.1946 5.28951 20.7471
610 1 -1.1104 9.42614 10.9433 26.4859
611 1 -1.1104 9.3822 5.45967 26.3765
612 1 -1.1104 9.25159 11.343 22.4239
613 1 -1.1104 9.5147 5.42256 23.5083
614 2 2.2208 8.2131 12.4749 24.8399
616 2 2.2208 10.969 6.74811 22.1805
617 2 2.2208 11.0805 12.6343 21.9596
618 1 -1.1104 12.1889 8.35188 23.2381
619 1 -1.1104 12.2522 8.08324 26.518
620 1 -1.1104 12.3748 5.45683 23.5753
621 1 -1.1104 12.3281 11.2468 23.4134
622 1 -1.1104 12.1617 5.27783 26.4277
623 1 -1.1104 12.4168 11.4345 26.7168
357 2 2.2208 13.4638 9.82767 22.1273
626 2 2.2208 10.7628 12.4451 27.8467
480 1 -1.1104 3.83309 19.8755 20.6398
463 1 -1.1104 6.8082 13.8945 20.8255
461 1 -1.1104 1.09237 19.5612 20.7096
473 1 -1.1104 6.68972 16.8129 20.7134
471 1 -1.1104 1.1386 16.7646 20.6624
478 1 -1.1104 3.90955 13.9776 20.7567
459 1 -1.1104 1.09669 13.8969 20.754
485 1 -1.1104 3.77061 16.9786 20.7905
606 1 -1.1104 3.84348 19.4658 23.5523
396 2 2.2208 2.49065 15.3174 22.1854
397 2 2.2208 2.44463 20.9874 22.2818
398 1 -1.1104 3.67571 16.808 23.5812
430 1 -1.1104 0.892152 16.7272 23.5606
432 1 -1.1104 3.84964 13.9892 26.503
433 1 -1.1104 3.93595 16.8428 26.3503
434 2 2.2208 2.47776 18.1007 24.9786
451 1 -1.1104 3.80636 19.8534 26.2016
452 2 2.2208 5.19247 18.0882 22.1404
486 1 -1.1104 1.05398 14.1174 23.6101
487 1 -1.1104 1.16155 19.4645 23.4783
489 2 2.2208 5.26556 15.283 24.937
515 2 2.2208 5.36047 21.0308 24.7857
544 1 -1.1104 1.09091 14.1836 26.445
547 1 -1.1104 1.09501 16.8747 26.3306
548 1 -1.1104 0.965657 19.6097 26.432
573 1 -1.1104 3.85395 13.8047 23.6523
9257 2 2.2208 -0.35628 20.9353 24.9681
9261 2 2.2208 -0.41729 15.3527 25.0183
390 2 2.2208 13.7315 21.0813 22.1986
552 2 2.2208 10.8316 15.3745 25.023
542 1 -1.1104 6.55333 19.5186 23.4367
365 2 2.2208 8.06796 15.3564 22.2117
551 1 -1.1104 12.2853 16.8267 23.5952
514 1 -1.1104 9.48829 16.907 20.7532
488 1 -1.1104 6.52048 13.9377 23.4809
581 2 2.2208 8.02544 18.1648 24.9273
595 1 -1.1104 9.42745 13.7959 26.4103
590 1 -1.1104 6.6188 19.7328 26.2421
574 2 2.2208 11.0058 20.8487 25.1169
502 1 -1.1104 12.3031 17.0398 20.8321
579 1 -1.1104 9.58915 14.1141 23.6447
516 2 2.2208 10.8847 18.3236 22.2867
393 1 -1.1104 9.49606 17.0227 23.3835
580 1 -1.1104 9.52985 19.9613 23.7144
392 1 -1.1104 9.29918 16.7463 26.3209
578 1 -1.1104 12.1735 16.7755 26.3485
546 1 -1.1104 12.3642 14.1573 26.3345
575 1 -1.1104 6.47631 14.0311 26.3943
609 1 -1.1104 9.61193 19.4291 26.3834
517 1 -1.1104 12.3053 14.0107 23.5505
577 2 2.2208 8.00058 21.0184 22.2532
549 1 -1.1104 6.68843 16.8647 26.193
497 1 -1.1104 12.08 19.8254 20.8477
545 1 -1.1104 12.2798 19.5262 23.7822
550 1 -1.1104 12.4285 19.4463 26.5908
509 1 -1.1104 9.44887 19.6562 20.7523
495 1 -1.1104 12.4576 14.1044 20.7578
431 1 -1.1104 6.56811 16.6537 23.5373
359 2 2.2208 13.8195 18.1639 25.0369
636 2 2.2208 5.25518 23.6668 5.25712
637 2 2.2208 5.35281 29.3692 5.45229
638 1 -1.1104 1.10379 25.1609 1.12154
639 1 -1.1104 1.15987 25.0852 3.98462
640 1 -1.1104 1.09248 22.4048 1.06952
641 1 -1.1104 1.13225 27.9951 1.19246
642 2 2.2208 5.23394 26.5374 2.5152
643 1 -1.1104 1.15672 22.3233 3.98377
644 1 -1.1104 1.22921 27.9133 3.87727
645 1 -1.1104 3.86597 25.2207 0.820789
646 2 2.2208 2.39843 23.7186 2.58956
647 2 2.2208 2.53905 29.4356 2.70014
648 1 -1.1104 3.86986 25.1112 3.72246
649 2 2.2208 2.60373 26.4957 5.36061
650 1 -1.1104 3.87303 22.4678 1.14438
651 1 -1.1104 3.94862 28.0785 1.20954
652 1 -1.1104 3.96774 22.2567 3.95093
653 1 -1.1104 3.90154 28.0663 4.0641
953 2 2.2208 5.382 23.9078 -0.235872
662 1 -1.1104 6.68235 27.8562 4.08797
660 1 -1.1104 6.70606 27.9756 1.19872
951 2 2.2208 2.39163 26.7261 -0.152414
9685 2 2.2208 -0.164644 26.5351 2.5644
661 1 -1.1104 6.79212 22.3535 3.67906
657 1 -1.1104 6.70494 25.1838 1.19552
659 1 -1.1104 6.63597 22.168 0.713813
658 1 -1.1104 6.6576 25.1373 4.06563
663 2 2.2208 10.9426 23.7449 5.52867
664 2 2.2208 10.9633 29.4241 5.3261
665 1 -1.1104 12.3524 24.9594 1.03511
666 1 -1.1104 12.3765 25.0397 3.90961
667 1 -1.1104 12.3466 22.18 1.15481
668 1 -1.1104 12.2667 27.7511 1.14129
669 2 2.2208 10.8369 26.4996 2.50579
670 1 -1.1104 12.4535 22.3146 3.91289
671 1 -1.1104 12.3862 27.8385 3.90172
672 1 -1.1104 9.56064 24.9847 1.09985
673 2 2.2208 8.23089 23.8149 2.54858
674 2 2.2208 8.13191 29.3391 2.63084
675 1 -1.1104 9.4903 25.2155 3.95606
676 2 2.2208 8.07719 26.567 5.42291
677 1 -1.1104 9.4902 22.1962 1.2449
678 1 -1.1104 9.62094 27.9759 1.11237
679 1 -1.1104 9.65256 22.4378 4.03679
680 1 -1.1104 9.60356 28.0587 3.89516
815 1 -1.1104 9.63065 27.8978 6.64104
1192 2 2.2208 7.93617 26.5562 -0.397659
1197 2 2.2208 10.8685 29.2027 -0.264024
681 2 2.2208 13.7207 23.763 2.54949
1222 2 2.2208 2.51207 32.1264 -0.227116
684 2 2.2208 5.32782 35.002 5.27534
685 1 -1.1104 1.12861 30.5655 1.23066
686 1 -1.1104 0.976106 36.2588 1.10946
688 1 -1.1104 1.13135 30.7658 4.14507
689 1 -1.1104 1.09243 36.3364 3.88323
691 1 -1.1104 1.02415 33.4691 1.25189
692 2 2.2208 5.32368 32.1297 2.43277
693 2 2.2208 5.37699 37.6775 2.36511
694 1 -1.1104 1.20821 33.5458 3.9278
696 1 -1.1104 3.82636 30.8744 1.26336
697 1 -1.1104 3.98336 36.3164 1.04096
698 2 2.2208 2.50457 34.9217 2.51392
699 1 -1.1104 4.04609 30.7812 4.04176
700 1 -1.1104 3.96445 36.2275 3.83192
701 2 2.2208 2.47745 32.169 5.38736
702 2 2.2208 2.59067 37.8197 5.1982
703 1 -1.1104 3.8783 33.6364 1.12863
704 1 -1.1104 3.85739 33.5366 4.1225
838 1 -1.1104 1.13905 33.3717 6.76147
690 1 -1.1104 6.64693 36.404 3.83393
695 1 -1.1104 6.68724 33.5479 3.8151
709 1 -1.1104 6.71065 30.69 3.97368
707 2 2.2208 -0.209877 34.9117 5.30933
1223 2 2.2208 5.39295 34.9701 -0.384691
710 1 -1.1104 6.69664 33.5055 1.05601
687 1 -1.1104 6.73898 36.1544 1.10203
708 1 -1.1104 6.56699 30.6234 1.1799
711 2 2.2208 10.9288 35.0199 5.2134
712 1 -1.1104 12.2587 30.5815 1.16544
713 1 -1.1104 12.3237 36.2645 0.985011
714 1 -1.1104 12.5032 30.5971 3.86858
715 1 -1.1104 12.3205 36.4194 3.94179
716 1 -1.1104 12.5404 33.4261 1.18814
717 2 2.2208 11.077 32.0839 2.5087
718 2 2.2208 10.9534 37.6627 2.51777
719 1 -1.1104 12.3537 33.4668 4.02301
720 1 -1.1104 9.35028 30.8527 1.22696
721 1 -1.1104 9.60085 36.3603 1.08532
722 2 2.2208 8.09849 34.8846 2.56238
723 1 -1.1104 9.57826 30.8157 3.98467
724 1 -1.1104 9.34791 36.4319 3.94371
725 2 2.2208 8.10321 32.1265 5.29911
726 2 2.2208 8.11486 37.7898 5.27696
727 1 -1.1104 9.68264 33.5445 1.10985
728 1 -1.1104 9.46973 33.649 3.85193
872 1 -1.1104 9.49722 36.3391 6.54798
729 2 2.2208 13.82 34.8922 2.4882
837 1 -1.1104 6.75221 36.3607 6.72738
873 1 -1.1104 9.50538 33.6211 6.68666
869 1 -1.1104 12.2151 36.3952 6.6889
942 2 2.2208 13.7469 32.1496 5.48689
1251 2 2.2208 8.12477 32.1537 -0.228073
1250 2 2.2208 8.16977 37.7281 -0.436013
730 2 2.2208 5.3414 40.4929 5.17597
731 2 2.2208 5.19117 46.2068 5.36875
732 1 -1.1104 1.05118 41.9526 1.00616
734 1 -1.1104 1.11278 41.9265 3.914
736 1 -1.1104 1.0737 38.8925 1.05885
737 1 -1.1104 1.26379 44.7655 1.08305
740 2 2.2208 5.28068 43.4525 2.52158
741 1 -1.1104 0.993308 39.0514 3.9744
742 1 -1.1104 1.01246 44.8145 3.84206
745 1 -1.1104 3.79745 41.8862 1.14486
746 2 2.2208 2.56629 40.4815 2.46
747 2 2.2208 2.49131 46.3123 2.37652
748 1 -1.1104 3.94965 41.9718 3.91745
749 2 2.2208 2.51292 43.3204 5.33254
750 1 -1.1104 3.8677 39.1243 1.0141
751 1 -1.1104 3.95271 44.6399 1.10134
752 1 -1.1104 4.05405 39.0657 3.77927