ITEM: TIMESTEP
40000
ITEM: NUMBER OF ATOMS
17820
ITEM: BOX BOUNDS pp pp pp
-3.6872125880337447e-01 2.7708721258803095e+01
-4.2697677454588590e+00 3.3234976774546107e+02
-3.6062113818057123e-01 2.7700621138180988e+01
ITEM: ATOMS id type q x y z
1 2 2.2208 5.26311 1.55956 5.31743
2 1 -1.1104 1.02147 -2.7055 0.996271
3 1 -1.1104 0.941444 2.74321 1.23234
6 1 -1.1104 1.18815 -2.81961 3.86991
7 1 -1.1104 1.19804 2.89164 4.10361
9 1 -1.1104 0.990292 0.0189913 1.01116
11 2 2.2208 5.28537 -1.32378 2.47556
13 1 -1.1104 1.1696 0.0151141 3.76567
15 1 -1.1104 4.04417 -2.63057 0.895894
16 1 -1.1104 3.88852 2.85696 1.19236
17 2 2.2208 2.45338 1.37421 2.47686
18 1 -1.1104 3.86961 -2.68728 3.62083
19 1 -1.1104 6.13212 2.83382 3.67206
20 2 2.2208 2.34498 -1.41502 5.16428
22 1 -1.1104 3.91518 0.0931528 1.23178
23 1 -1.1104 3.85069 0.209057 3.89327
166 1 -1.1104 3.49189 2.56008 6.19198
10 1 -1.1104 6.91269 -0.108694 1.14461
14 1 -1.1104 6.79452 0.208884 4.26241
8 1 -1.1104 6.57713 -2.69213 3.93944
21 2 2.2208 2.32368 4.31091 5.53661
163 1 -1.1104 0.971932 -2.77377 6.61745
5 1 -1.1104 6.64607 2.83147 0.903923
4 1 -1.1104 6.75999 -2.92953 1.12515
165 1 -1.1104 6.63918 -2.65653 6.68743
12 2 2.2208 5.57227 4.52484 2.28936
17444 2 2.2208 -0.367554 -4.18789 10.7729
170 1 -1.1104 4.57074 -0.077973 6.66868
8981 2 2.2208 13.5857 18.1922 7.94124
8314 2 2.2208 2.40782 -4.09581 2.28482
9000 2 2.2208 13.5836 1.34421 8.1931
31 2 2.2208 10.8866 1.06584 5.23057
32 1 -1.1104 12.279 -2.99349 0.954554
33 1 -1.1104 12.3992 2.76293 1.24311
34 1 -1.1104 12.1333 -3.0028 3.73943
35 1 -1.1104 12.3956 2.67441 4.07135
36 1 -1.1104 12.3213 -0.0642815 0.946172
37 2 2.2208 10.8986 -1.38077 2.23981
38 2 2.2208 10.9031 4.26481 2.63514
39 1 -1.1104 12.1791 -0.137643 3.74856
40 1 -1.1104 9.52667 -2.79954 0.991161
41 1 -1.1104 9.4761 2.6714 1.25413
42 2 2.2208 8.0919 1.44107 2.66304
43 1 -1.1104 9.38824 -3.01994 3.861
44 1 -1.1104 9.55966 2.63698 4.17563
45 2 2.2208 8.15284 -1.52626 5.10395
46 1 -1.1104 9.65196 -0.0295957 0.931976
47 1 -1.1104 9.44577 -0.20884 3.6856
203 1 -1.1104 9.37763 -0.336458 6.41744
201 1 -1.1104 9.34501 -3.0437 6.59174
199 1 -1.1104 11.961 2.5478 6.78538
200 1 -1.1104 12.2067 -0.223239 6.59761
8880 2 2.2208 -0.316742 21.045 8.0515
633 2 2.2208 7.9673 1.42668 13.5749
8315 2 2.2208 8.10221 -4.17533 2.33172
202 1 -1.1104 9.97028 5.64457 6.99951
8713 2 2.2208 -0.334439 18.2868 10.8629
51 2 2.2208 13.5574 -1.40492 5.27022
319 2 2.2208 -0.324971 1.4923 5.4105
8993 2 2.2208 -0.349131 -1.39886 7.9657
52 2 2.2208 5.16626 6.80161 5.3282
53 2 2.2208 5.17982 12.6053 5.17277
54 1 -1.1104 0.893101 8.24882 1.0519
56 1 -1.1104 1.15055 8.37617 4.03569
58 1 -1.1104 1.0873 5.57762 1.12572
59 1 -1.1104 0.848304 11.0325 1.02295
64 2 2.2208 5.20795 9.7659 2.39093
65 1 -1.1104 0.969015 5.58168 3.93732
66 1 -1.1104 0.947559 11.3107 3.88392
68 1 -1.1104 3.82765 8.5553 1.09294
69 2 2.2208 2.43077 6.79021 2.5219
70 2 2.2208 2.29089 12.5521 2.47291
71 1 -1.1104 4.10855 8.26234 3.89018
72 2 2.2208 2.36876 9.85941 5.23369
73 1 -1.1104 3.87817 5.74726 1.01452
74 1 -1.1104 3.78953 11.2432 1.16189
76 1 -1.1104 3.71686 5.2452 3.73568
77 1 -1.1104 3.84206 11.2121 3.72182
57 1 -1.1104 6.38197 6.37195 3.34532
226 1 -1.1104 6.44414 8.50961 6.25576
67 1 -1.1104 6.66907 10.8399 3.89633
55 1 -1.1104 6.63488 8.22392 1.20493
225 1 -1.1104 1.0021 8.39338 6.66848
60 1 -1.1104 0.964537 11.2926 6.69943
62 1 -1.1104 6.62951 11.233 1.08395
61 1 -1.1104 6.77145 5.4718 0.475698
227 1 -1.1104 0.818366 5.57993 6.51892
134 1 -1.1104 9.40206 19.5638 12.2831
79 2 2.2208 10.9371 15.4716 8.01053
228 1 -1.1104 6.74748 5.41891 6.2235
81 2 2.2208 11.0365 6.88367 5.49343
82 2 2.2208 10.8265 12.7358 5.33687
83 1 -1.1104 11.9417 8.11493 1.24738
84 1 -1.1104 12.077 8.33241 4.05753
85 1 -1.1104 12.3937 5.57536 0.924322
86 1 -1.1104 12.2878 10.8837 1.19356
88 2 2.2208 10.9318 9.73429 2.46385
89 1 -1.1104 12.3891 5.54263 3.84835
90 1 -1.1104 12.1912 11.096 3.96605
91 1 -1.1104 9.28136 8.19577 0.625529
92 2 2.2208 8.2733 6.92774 2.18365
93 2 2.2208 8.17422 12.5444 2.43935
94 1 -1.1104 8.86799 8.70136 3.49113
95 2 2.2208 8.12918 9.87802 5.41467
96 1 -1.1104 9.62025 5.44583 1.03497
97 1 -1.1104 9.40653 10.9917 0.883894
99 1 -1.1104 9.62713 5.85087 3.94639
100 1 -1.1104 9.5399 11.4068 3.98045
258 1 -1.1104 9.48276 8.55231 6.48618
635 2 2.2208 5.26129 20.9842 13.6267
310 2 2.2208 10.6534 9.85819 13.4582
9005 2 2.2208 13.6675 7.03614 13.4515
87 1 -1.1104 12.3083 11.2056 6.56735
98 1 -1.1104 9.56686 11.3592 6.69853
257 1 -1.1104 12.5424 5.3977 6.82296
103 2 2.2208 5.17762 18.2666 5.27148
104 1 -1.1104 1.01102 14.02 0.885059
106 1 -1.1104 0.880472 19.405 1.07869
110 1 -1.1104 0.966003 14.1783 3.72932
111 1 -1.1104 0.988593 19.7191 3.78624
113 1 -1.1104 1.08768 16.7859 0.986846
116 2 2.2208 5.32462 15.4461 2.34027
117 2 2.2208 5.12748 20.9129 2.43906
118 1 -1.1104 0.994807 16.8487 3.79117
120 1 -1.1104 3.94786 13.894 1.13892
122 1 -1.1104 3.77889 19.6339 1.03464
124 2 2.2208 2.37871 18.2189 2.4283
125 1 -1.1104 3.57209 13.9446 3.83974
126 1 -1.1104 3.78151 19.5215 3.80819
127 2 2.2208 2.39173 15.4182 5.17697
128 2 2.2208 2.44046 20.9697 5.15533
129 1 -1.1104 3.78741 16.9247 1.03884
131 1 -1.1104 3.93177 16.8119 3.96221
107 1 -1.1104 6.60871 14.058 1.02407
136 1 -1.1104 6.58682 19.5786 3.83011
137 1 -1.1104 6.6427 16.8718 0.941853
108 1 -1.1104 6.63242 14.0439 6.67843
119 1 -1.1104 6.70344 16.8683 3.76742
109 1 -1.1104 6.3902 19.6258 6.76045
130 1 -1.1104 3.7198 16.7922 6.76286
115 1 -1.1104 6.70283 16.9233 6.51818
121 1 -1.1104 3.7789 14.0257 6.58335
105 1 -1.1104 1.01471 14.1285 6.63978
123 1 -1.1104 3.72443 19.6799 6.53208
112 1 -1.1104 6.51945 14.0471 3.83044
293 1 -1.1104 0.999079 19.5878 6.67247
135 1 -1.1104 6.71571 19.5985 0.944492
315 2 2.2208 8.11034 21.0499 -0.279473
138 2 2.2208 10.9326 18.1803 5.17694
139 1 -1.1104 12.3945 13.8466 1.00217
141 1 -1.1104 12.2904 19.5773 1.10607
143 1 -1.1104 12.1364 13.9342 3.68004
144 1 -1.1104 12.3532 19.7173 3.91839
145 1 -1.1104 12.2666 16.7378 0.95196
147 2 2.2208 10.7885 15.377 2.19261
148 2 2.2208 10.9482 21.055 2.38546
149 1 -1.1104 12.2391 16.7631 3.7095
150 1 -1.1104 9.49505 13.7144 0.847614
152 1 -1.1104 9.52997 19.5734 0.981484
154 2 2.2208 8.05661 18.2493 2.4061
155 1 -1.1104 9.31897 14.0712 3.57194
156 1 -1.1104 9.40264 19.5998 3.82814
157 2 2.2208 7.9971 15.5854 5.08996
158 2 2.2208 7.96637 21.0052 5.24328
159 1 -1.1104 9.35166 16.6834 0.899656
161 1 -1.1104 9.49434 16.6712 3.69542
146 1 -1.1104 12.3799 16.8476 6.40782
151 1 -1.1104 9.43614 14.0589 6.59447
140 1 -1.1104 12.4399 14.0339 6.68483
80 2 2.2208 10.8223 21.0918 8.01345
153 1 -1.1104 9.26928 19.4971 6.54274
167 1 -1.1104 1.29994 0.157151 6.53913
168 1 -1.1104 3.7727 -2.84768 6.61193
164 1 -1.1104 0.978056 2.76054 7.22361
171 2 2.2208 5.02066 1.33019 11.0214
172 1 -1.1104 0.988757 -2.82754 12.1427
173 1 -1.1104 0.949441 2.83167 12.0211
176 1 -1.1104 0.965008 -2.6608 9.37122
177 1 -1.1104 3.03216 2.44972 9.84862
180 1 -1.1104 1.01439 -0.0799551 12.2437
182 2 2.2208 5.18574 -1.68919 8.17715
183 1 -1.1104 1.06462 0.0371012 9.48216
184 1 -1.1104 3.79212 -2.8902 12.0574
185 1 -1.1104 3.68896 2.67544 12.5148
186 2 2.2208 2.75877 1.34155 7.99602
187 1 -1.1104 3.6908 -2.8564 9.41341
188 2 2.2208 2.48088 -1.40441 10.8023
190 1 -1.1104 3.78767 -0.116431 12.289
191 1 -1.1104 4.04487 -0.110774 9.3312
179 1 -1.1104 6.46865 2.23833 9.63151
175 1 -1.1104 6.38528 2.78865 12.3284
181 1 -1.1104 6.72582 0.124549 12.0052
189 2 2.2208 2.5038 4.33223 10.9571
221 2 2.2208 2.48183 15.3297 -0.301846
198 1 -1.1104 12.143 -2.9964 6.5694
178 1 -1.1104 6.68327 -2.60917 9.61321
174 1 -1.1104 6.65488 -2.8145 12.4344
133 1 -1.1104 9.50963 13.9927 12.2057
194 2 2.2208 8.1007 15.4232 10.829
204 2 2.2208 10.7973 1.28061 10.7405
205 1 -1.1104 12.3364 -2.90186 12.1962
206 1 -1.1104 12.2199 2.75088 12.2567
207 1 -1.1104 12.3276 -3.01779 9.4297
208 1 -1.1104 12.398 2.74452 9.55659
209 1 -1.1104 12.262 -0.0311506 12.1479
210 2 2.2208 10.7204 -1.5412 7.96432
211 2 2.2208 11.025 4.12151 8.16958
212 1 -1.1104 12.2994 -0.143524 9.37253
213 1 -1.1104 9.61494 -3.02165 12.1875
214 1 -1.1104 9.46139 2.71197 12.0604
215 1 -1.1104 9.37878 -3.19165 9.43857
216 1 -1.1104 9.76229 2.73832 9.23708
217 2 2.2208 8.16468 -1.5587 11.0458
218 2 2.2208 7.89372 4.04912 10.5014
219 1 -1.1104 9.38271 -0.0797513 12.3906
220 1 -1.1104 9.59566 -0.332915 9.47954
305 2 2.2208 10.6233 4.09334 13.4894
193 1 -1.1104 9.50733 19.4997 9.28104
9011 2 2.2208 -0.279595 9.79951 8.13488
222 1 -1.1104 9.36085 16.8219 12.3041
311 2 2.2208 7.97944 6.99285 13.5303
9163 2 2.2208 13.6611 18.226 13.6271
223 1 -1.1104 9.45884 16.7195 9.45267
230 1 -1.1104 3.71746 5.69579 6.58953
63 1 -1.1104 6.5494 11.2807 6.6997
75 1 -1.1104 3.77505 11.3057 6.57752
229 1 -1.1104 3.74756 8.49394 6.77633
231 2 2.2208 5.17524 7.00857 10.7393
232 2 2.2208 5.25109 12.6039 10.865
233 1 -1.1104 0.972909 8.35705 12.4146
235 1 -1.1104 0.946941 8.22387 9.45035
237 1 -1.1104 1.0148 5.71658 12.2269
238 1 -1.1104 0.937874 11.1535 12.2013
241 2 2.2208 5.31049 9.85859 8.07247
242 1 -1.1104 0.895221 5.38256 9.48148
243 1 -1.1104 1.09455 11.0547 9.38951
246 1 -1.1104 3.74519 8.27037 12.2133
247 2 2.2208 2.45879 6.94309 8.05682
248 2 2.2208 2.37934 12.7999 7.9735
249 1 -1.1104 3.97475 8.58474 9.45501
250 2 2.2208 2.47511 9.61125 10.8636
251 1 -1.1104 3.94648 5.49935 12.3075
252 1 -1.1104 3.7428 11.0965 12.3041
253 1 -1.1104 3.60735 5.86427 9.64079
254 1 -1.1104 3.84183 11.2563 9.44181
236 1 -1.1104 6.71674 8.37039 9.15424
239 1 -1.1104 6.6197 5.56945 12.1567
240 1 -1.1104 6.47435 11.1824 12.1533
234 1 -1.1104 6.66846 8.50312 12.1981
245 1 -1.1104 6.67192 11.1645 9.49251
307 2 2.2208 5.14759 9.81533 13.4874
244 1 -1.1104 6.64164 5.70033 9.35901
256 1 -1.1104 12.4247 8.39213 6.71715
162 2 2.2208 8.03417 18.2607 8.05562
24 2 2.2208 10.6886 18.1608 10.8957
8998 2 2.2208 13.6303 1.43398 13.6055
132 1 -1.1104 12.351 16.7488 9.3441
169 1 -1.1104 9.58696 13.9598 9.42706
309 2 2.2208 8.028 12.6546 13.6005
255 1 -1.1104 9.53412 11.2363 9.56467
259 1 -1.1104 9.42569 5.45354 12.1294
260 1 -1.1104 9.37947 5.56904 9.35115
261 1 -1.1104 9.18315 11.229 12.077
263 2 2.2208 8.05034 9.82224 10.7718
264 1 -1.1104 9.54298 8.48634 9.2466
265 2 2.2208 8.21674 12.5212 8.07161
266 2 2.2208 7.98708 6.74454 7.82157
267 2 2.2208 10.7176 6.90237 10.7545
268 2 2.2208 10.9119 12.583 10.8336
269 1 -1.1104 12.0546 8.3142 12.4733
270 1 -1.1104 12.3255 8.25434 9.68476
271 1 -1.1104 12.2594 5.44955 12.5845
272 1 -1.1104 12.1458 11.0675 12.3034
273 2 2.2208 11.0124 9.81899 7.93808
274 1 -1.1104 12.3838 5.45405 9.71045
275 1 -1.1104 12.2793 11.1241 9.29094
276 1 -1.1104 9.45515 8.37406 11.951
114 1 -1.1104 1.05434 16.9023 6.60723
224 2 2.2208 13.6183 -1.48272 10.9603
280 1 -1.1104 6.54178 16.8603 9.29558
281 1 -1.1104 6.7629 13.9132 9.46465
279 1 -1.1104 6.62987 19.7746 9.51463
301 2 2.2208 2.44421 15.4429 10.8128
300 2 2.2208 2.47678 21.0432 10.7993
299 1 -1.1104 3.84481 16.7646 12.3734
298 1 -1.1104 0.964196 16.8306 12.1827
296 1 -1.1104 3.78403 14.0515 9.48617
277 1 -1.1104 3.77351 19.6675 12.2386
278 1 -1.1104 3.80355 14.0597 12.3007
282 1 -1.1104 0.98382 19.6885 9.51328
283 1 -1.1104 1.07822 16.7169 9.42378
284 2 2.2208 5.11597 21.1562 8.03903
285 1 -1.1104 1.01085 14.079 9.49035
286 2 2.2208 5.21153 15.3266 7.94533
289 1 -1.1104 1.05065 19.6608 12.4033
290 1 -1.1104 1.06998 14.019 12.3952
291 2 2.2208 5.27937 18.2458 10.8106
292 1 -1.1104 3.95247 19.6818 9.36066
294 2 2.2208 2.45019 18.2295 8.02933
295 1 -1.1104 3.81689 16.8155 9.55256
288 1 -1.1104 6.66561 14.0392 12.2526
297 1 -1.1104 6.55966 16.8592 12.1544
287 1 -1.1104 6.57408 19.5955 12.231
490 2 2.2208 10.9092 15.3715 13.6008
78 1 -1.1104 12.1613 16.7754 12.2586
27 1 -1.1104 12.3629 13.9158 12.4244
9008 2 2.2208 13.6311 15.3592 5.126
28 1 -1.1104 12.2239 19.5116 12.3669
142 1 -1.1104 12.2106 19.6272 6.60828
160 1 -1.1104 9.56725 16.8401 6.63963
195 2 2.2208 8.11104 20.9919 10.9169
29 1 -1.1104 12.3751 13.8706 9.53306
30 1 -1.1104 12.1727 19.3957 9.4438
101 2 2.2208 13.6338 12.5379 2.41338
312 2 2.2208 5.20829 15.4669 13.6338
322 2 2.2208 2.43456 4.24532 -0.15875
571 2 2.2208 10.96 1.45091 -0.229933
634 2 2.2208 2.35338 6.9618 13.6053
304 2 2.2208 5.13353 7.12892 -0.264117
360 2 2.2208 13.6218 15.3236 -0.316752
629 2 2.2208 10.9134 -1.47853 13.6334
608 2 2.2208 5.26715 12.6477 -0.272888
318 2 2.2208 5.30424 1.4811 -0.267299
395 2 2.2208 10.9534 18.2161 -0.345305
306 2 2.2208 2.31526 12.6126 13.5515
323 2 2.2208 5.28294 1.29022 16.4622
324 1 -1.1104 1.09198 -2.90081 17.8149
325 1 -1.1104 1.01216 2.66365 17.8507
328 1 -1.1104 1.03818 -2.88223 15.0085
330 1 -1.1104 0.947106 2.7436 14.9821
336 1 -1.1104 0.933195 -0.141101 17.9479
338 2 2.2208 5.15276 -1.57205 19.2886
339 2 2.2208 5.35593 4.02269 19.1932
340 1 -1.1104 1.17123 -0.164191 15.1475
344 1 -1.1104 3.89637 -2.95472 17.8618
345 1 -1.1104 3.88875 2.72894 17.848
346 2 2.2208 2.34969 1.31714 19.2656
347 1 -1.1104 3.84046 -2.93265 15.0104
349 1 -1.1104 3.68625 2.64039 15.2154
351 2 2.2208 2.53636 -1.56285 16.4945
352 2 2.2208 2.38745 4.1265 16.4989
353 1 -1.1104 3.85469 -0.00458172 17.8915
354 1 -1.1104 4.12098 -0.262459 15.1482
327 1 -1.1104 6.74196 2.59034 17.8506
342 1 -1.1104 6.66301 -0.20718 15.0381
332 1 -1.1104 6.71032 -2.91963 15.0152
337 1 -1.1104 6.53465 -0.22907 18.0006
334 1 -1.1104 6.61403 2.80048 15.0527
348 1 -1.1104 3.86609 -2.97893 20.6322
329 1 -1.1104 1.15835 -3.07588 20.6835
326 1 -1.1104 6.61988 -2.96143 17.8303
343 1 -1.1104 6.5531 -0.221054 20.7508
350 1 -1.1104 3.88728 2.60888 20.7733
333 1 -1.1104 6.72675 -2.92076 20.7222
355 1 -1.1104 3.73658 -0.12294 20.6218
341 1 -1.1104 0.908672 -0.188634 20.8135
9190 2 2.2208 13.5044 18.1994 19.2233
632 2 2.2208 5.26183 4.14409 13.8085
8379 2 2.2208 2.44726 -4.12998 24.8849
615 2 2.2208 13.6552 6.76779 24.8027
366 2 2.2208 10.7404 1.48394 16.3665
367 1 -1.1104 12.3458 -3.17907 17.7449
368 1 -1.1104 12.1356 2.58982 17.9392
369 1 -1.1104 12.2117 -2.84939 14.9579
371 1 -1.1104 11.9891 3.19651 15.0595
373 1 -1.1104 12.2636 -0.320704 17.955
374 2 2.2208 10.7477 -1.52505 19.3196
376 1 -1.1104 12.269 0.202908 15.0618
378 1 -1.1104 9.45158 -3.0403 17.9291
379 1 -1.1104 9.38244 2.75332 17.8405
380 2 2.2208 8.01343 1.30743 19.3398
381 1 -1.1104 9.55656 -2.83702 15.1141
383 1 -1.1104 9.32561 2.71248 14.8296
385 2 2.2208 7.91129 -1.56993 16.5608
387 1 -1.1104 9.44216 -0.0497699 17.9137
388 1 -1.1104 9.35557 -0.10789 15.0075
386 2 2.2208 8.12178 4.25631 16.4406
384 1 -1.1104 9.56199 2.99385 20.6534
377 1 -1.1104 12.2496 -0.0299053 20.8208
375 2 2.2208 10.7365 4.33587 19.134
8415 2 2.2208 5.33154 -4.21998 27.676
389 1 -1.1104 9.51166 0.0555699 20.7323
362 2 2.2208 13.6493 6.99047 19.278
8376 2 2.2208 8.11898 -4.2079 24.95
372 1 -1.1104 12.3518 2.66533 20.7261
382 1 -1.1104 9.49893 -3.06424 20.7482
370 1 -1.1104 12.3455 -2.8674 20.686
364 2 2.2208 2.33742 1.26756 13.6996
576 2 2.2208 -0.372487 6.9398 22.1883
399 2 2.2208 5.11163 6.97742 16.2724
400 2 2.2208 5.17105 12.5363 16.3535
401 1 -1.1104 1.29476 8.29927 17.7434
403 1 -1.1104 0.907061 8.2655 15.1241
406 1 -1.1104 0.905025 5.41161 17.9989
407 1 -1.1104 1.04354 11.0477 17.8295
410 2 2.2208 5.31263 9.77984 19.2588
411 1 -1.1104 0.851762 5.49153 15.1115
413 1 -1.1104 1.14751 11.2077 15.0381
418 1 -1.1104 4.06405 8.28576 17.9568
419 2 2.2208 2.35769 6.89896 19.2059
420 2 2.2208 2.33804 12.6391 19.2223
421 1 -1.1104 3.70137 8.32217 14.9372
423 2 2.2208 2.51363 9.79098 16.4814
424 1 -1.1104 3.62217 5.50972 17.8955
425 1 -1.1104 3.79362 11.1846 17.8206
426 1 -1.1104 3.66087 5.56998 15.099
428 1 -1.1104 3.77855 11.0762 15.0858
408 1 -1.1104 6.50092 5.41115 17.7335
417 1 -1.1104 6.47513 11.0683 14.8407
409 1 -1.1104 6.50138 11.2625 17.6591
402 1 -1.1104 6.47085 8.09748 20.5177
405 1 -1.1104 6.51012 8.31098 14.9923
450 1 -1.1104 6.71089 11.1243 20.4591
412 1 -1.1104 0.921205 5.48993 20.8738
414 1 -1.1104 0.972967 11.0951 20.5893
415 1 -1.1104 6.70122 5.59297 15.059
416 1 -1.1104 6.66548 5.35483 20.7659
581 2 2.2208 7.92031 18.2578 24.9247
316 2 2.2208 7.96684 18.1799 13.7006
436 1 -1.1104 6.75533 8.31539 17.8266
435 2 2.2208 10.707 12.5999 16.4116
438 1 -1.1104 12.3327 5.58151 17.9436
439 1 -1.1104 12.0616 11.1276 15.1585
442 2 2.2208 7.79556 6.86537 19.1621
443 2 2.2208 7.95804 12.5475 19.1773
444 1 -1.1104 9.24746 8.62972 14.6779
445 2 2.2208 7.94921 9.75118 16.1642
446 1 -1.1104 9.32073 5.55854 18.0337
447 1 -1.1104 9.27408 11.0861 17.9434
449 1 -1.1104 9.31993 11.3769 14.8613
262 1 -1.1104 9.47272 5.46546 14.9614
437 1 -1.1104 11.9825 8.10441 20.3846
441 1 -1.1104 12.2555 11.3541 20.5346
359 2 2.2208 13.6597 18.1959 24.8716
453 2 2.2208 5.13914 18.2599 16.4758
454 1 -1.1104 0.96137 13.9768 17.8677
455 1 -1.1104 0.875006 19.5067 18.0203
458 1 -1.1104 0.78237 13.9956 15.084
460 1 -1.1104 0.931959 19.6226 15.212
466 1 -1.1104 0.981697 16.6868 17.8983
468 2 2.2208 5.04307 15.4034 19.2415
469 2 2.2208 5.17102 21.1077 19.1527
470 1 -1.1104 0.890644 16.9063 14.9949
474 1 -1.1104 3.85172 13.9193 17.7763
475 1 -1.1104 3.60058 19.6236 17.7392
476 2 2.2208 2.35373 18.1656 19.2499
477 1 -1.1104 3.74775 14.0015 15.0103
479 1 -1.1104 3.83549 19.6863 15.1201
481 2 2.2208 2.40287 15.3265 16.3764
482 2 2.2208 2.25848 21.0984 16.4616
483 1 -1.1104 3.67115 16.7473 17.833
484 1 -1.1104 3.79858 16.7909 15.05
464 1 -1.1104 6.62802 19.5734 15.056
465 1 -1.1104 6.37697 19.4544 20.7413
467 1 -1.1104 6.3871 16.7515 17.9029
472 1 -1.1104 6.60752 16.838 15.0401
456 1 -1.1104 6.70136 14.1252 17.9325
463 1 -1.1104 6.515 13.9534 20.5119
480 1 -1.1104 3.63373 20.0286 20.4612
457 1 -1.1104 6.53434 19.6066 17.8362
485 1 -1.1104 3.68825 16.8593 20.7675
478 1 -1.1104 3.67727 14.0782 20.4302
461 1 -1.1104 0.929478 19.5634 20.9188
471 1 -1.1104 0.821423 16.7637 20.5596
462 1 -1.1104 6.47583 13.9594 14.9451
491 2 2.2208 10.7771 18.0263 16.427
492 1 -1.1104 12.0691 13.7408 17.7985
493 1 -1.1104 12.1785 19.4173 17.7673
494 1 -1.1104 12.0562 13.8114 14.9492
496 1 -1.1104 12.3533 19.5826 15.0933
498 1 -1.1104 12.1859 16.6272 17.9029
499 2 2.2208 10.7467 15.2408 19.294
500 2 2.2208 10.6059 20.9496 19.2752
501 1 -1.1104 12.2824 16.7151 15.2163
503 1 -1.1104 9.37055 13.9986 17.7012
504 1 -1.1104 9.1532 19.3718 17.6772
505 2 2.2208 7.92772 18.0202 19.2985
506 1 -1.1104 9.35425 14.1033 15.125
508 1 -1.1104 9.55113 19.4674 14.9931
510 2 2.2208 7.97595 15.2663 16.4067
511 2 2.2208 7.97443 20.9283 16.2841
512 1 -1.1104 9.39084 16.7892 17.8524
513 1 -1.1104 9.2727 16.7368 14.9446
9007 2 2.2208 13.6214 12.5804 13.7918
514 1 -1.1104 9.28025 16.7072 20.7434
507 1 -1.1104 9.3441 13.7174 20.5546
495 1 -1.1104 12.3865 14.0661 20.6953
497 1 -1.1104 12.0849 19.7193 20.5997
317 2 2.2208 10.8499 20.8596 13.6944
9188 2 2.2208 13.6319 15.4209 16.518
502 1 -1.1104 12.0619 16.9116 20.7028
509 1 -1.1104 9.22674 19.5258 20.5842
574 2 2.2208 10.6705 20.9518 25.0378
335 1 -1.1104 6.77825 2.66383 20.7275
9090 2 2.2208 -0.355724 -1.56691 24.9075
9051 2 2.2208 13.6606 1.25885 19.39
331 1 -1.1104 0.879182 2.73247 20.7899
518 2 2.2208 5.19448 1.26588 22.1095
519 1 -1.1104 1.08492 -3.00603 23.3556
520 1 -1.1104 1.07391 2.6746 23.5841
523 1 -1.1104 1.08543 -2.7365 26.3569
524 1 -1.1104 1.22587 2.69389 26.4878
527 1 -1.1104 0.989923 -0.200159 23.5523
529 2 2.2208 5.27204 -1.45043 24.9174
530 2 2.2208 5.26383 4.07444 24.7865
531 1 -1.1104 1.10149 -0.0704447 26.3219
533 1 -1.1104 3.84425 -2.87039 23.4624
534 1 -1.1104 3.78163 2.68407 23.445
535 2 2.2208 2.54199 1.35972 24.9732
536 1 -1.1104 3.8166 -2.88206 26.3638
537 1 -1.1104 4.0035 2.81283 26.3934
538 2 2.2208 2.35075 -1.50661 22.1789
539 2 2.2208 2.35416 4.079 22.0397
540 1 -1.1104 3.80582 -0.0529001 23.4535
541 1 -1.1104 3.98785 -0.13454 26.4422
532 1 -1.1104 6.74538 0.0483204 26.2207
521 1 -1.1104 6.71209 -2.98821 23.4549
526 1 -1.1104 6.70331 2.93735 26.2363
525 1 -1.1104 6.69816 -2.70811 26.2897
522 1 -1.1104 6.60184 2.64337 23.38
550 1 -1.1104 12.3428 19.5048 26.3779
528 1 -1.1104 6.55433 -0.147939 23.5954
553 2 2.2208 10.8256 1.48494 22.2248
554 1 -1.1104 12.3474 -2.83091 23.4817
555 1 -1.1104 12.1677 2.67635 23.6989
556 1 -1.1104 12.4868 -2.77876 26.2803
557 1 -1.1104 12.3924 2.72303 26.4992
558 1 -1.1104 12.3597 -0.00108224 23.5977
559 2 2.2208 10.853 -1.35512 24.8483
560 2 2.2208 10.7974 4.3429 24.8121
561 1 -1.1104 12.3659 0.0128258 26.2833
562 1 -1.1104 9.48256 -2.71781 23.5889
563 1 -1.1104 9.32242 2.87303 23.4842
564 2 2.2208 8.05292 1.40277 24.8613
565 1 -1.1104 9.67598 -2.79148 26.3642
566 1 -1.1104 9.51546 2.97659 26.3076
567 2 2.2208 8.02408 -1.56511 22.1466
569 1 -1.1104 9.4675 0.0252368 23.5421
570 1 -1.1104 9.57414 0.0388611 26.1822
568 2 2.2208 8.12239 4.28295 22.0478
25 2 2.2208 8.29399 4.12535 27.603
9194 2 2.2208 13.5346 -1.48888 16.4452
628 2 2.2208 13.624 9.65659 27.5575
579 1 -1.1104 9.47251 14.1613 23.3673
9125 2 2.2208 -0.31427 12.4919 16.511
545 1 -1.1104 12.0552 19.4945 23.4292
607 2 2.2208 2.30888 9.7429 27.7035
422 1 -1.1104 3.83392 8.43026 20.8712
404 1 -1.1104 1.09211 8.33839 20.7249
427 1 -1.1104 3.79946 5.34869 20.5139
429 1 -1.1104 3.6969 11.2457 20.7242
9088 2 2.2208 -0.355863 4.16528 19.3881
582 2 2.2208 5.18552 6.93826 21.9668
583 2 2.2208 5.38084 12.3184 22.0552
584 1 -1.1104 1.25792 8.29074 23.398
586 1 -1.1104 0.898547 8.42921 26.3102
588 1 -1.1104 1.02881 5.59871 23.6756
589 1 -1.1104 0.766769 11.0187 23.3714
592 2 2.2208 5.14927 9.68285 25.0098
593 1 -1.1104 1.1143 5.46918 26.4222
594 1 -1.1104 0.882698 11.1919 26.3009
597 1 -1.1104 4.13948 8.24899 23.6263
598 2 2.2208 2.6208 6.95626 24.7165
599 2 2.2208 2.45847 12.5691 24.8561
600 1 -1.1104 3.63313 8.26184 26.2673
601 2 2.2208 2.35871 9.82076 21.9768
602 1 -1.1104 3.71624 5.49623 23.306
603 1 -1.1104 3.74284 10.9915 23.5445
604 1 -1.1104 4.13549 5.62857 26.3204
605 1 -1.1104 3.67566 11.1082 26.3951
591 1 -1.1104 6.53475 11.0628 23.7218
596 1 -1.1104 6.48942 11.1399 26.4579
587 1 -1.1104 6.45308 8.42429 26.4873
585 1 -1.1104 6.44817 5.66773 23.4914
440 1 -1.1104 12.2954 5.41078 20.5395
448 1 -1.1104 9.42418 6.0225 20.6556
543 2 2.2208 2.42137 -1.39283 27.6772
626 2 2.2208 10.7428 12.3666 27.4635
610 1 -1.1104 9.318 11.0435 26.0444
611 1 -1.1104 9.37563 5.66311 26.2677
612 1 -1.1104 9.27618 11.4404 22.7437
613 1 -1.1104 9.67532 5.53491 23.2137
614 2 2.2208 8.15362 12.3951 24.6849
616 2 2.2208 11.0322 6.79167 21.9797
617 2 2.2208 10.9919 12.4885 22.0811
618 1 -1.1104 12.2966 8.11789 23.2483
619 1 -1.1104 12.1757 8.03154 26.3822
620 1 -1.1104 12.3691 5.40374 23.3527
621 1 -1.1104 12.458 11.2027 23.4361
622 1 -1.1104 12.2609 5.4632 26.2651
623 1 -1.1104 12.4047 11.2838 26.4917
357 2 2.2208 13.5773 9.74691 22.098
627 2 2.2208 13.6563 12.4288 24.9281
321 2 2.2208 7.93449 9.84261 27.6028
9251 2 2.2208 13.6614 4.00478 22.0104
473 1 -1.1104 6.52876 16.5912 20.5435
459 1 -1.1104 0.932313 13.9306 20.8304
9234 2 2.2208 -0.3479 1.32448 16.5161
546 1 -1.1104 12.1283 14.1201 26.352
488 1 -1.1104 6.69216 13.7647 23.4369
590 1 -1.1104 6.63871 20.0533 26.283
549 1 -1.1104 6.54066 16.8422 26.1905
542 1 -1.1104 6.51707 19.3949 23.4336
396 2 2.2208 2.29919 15.3442 22.0305
397 2 2.2208 2.18682 20.9735 22.1887
398 1 -1.1104 3.68747 16.6152 23.4962
430 1 -1.1104 0.821493 16.7514 23.5446
432 1 -1.1104 3.77764 14.0164 26.3639
433 1 -1.1104 3.69325 17.0034 26.3456
434 2 2.2208 2.25634 17.9834 24.8435
451 1 -1.1104 3.92093 19.7784 26.2577
452 2 2.2208 5.22557 18.0249 22.1083
486 1 -1.1104 1.00157 13.8918 23.4629
487 1 -1.1104 0.83027 19.5712 23.6531
489 2 2.2208 5.20497 15.3618 24.8661
515 2 2.2208 5.2055 21.0052 24.6017
544 1 -1.1104 1.04438 13.8351 26.1904
547 1 -1.1104 0.940959 16.5261 26.1931
548 1 -1.1104 1.09811 19.3616 26.3676
573 1 -1.1104 3.88994 13.8348 23.3377
606 1 -1.1104 3.66166 19.5179 23.3777
575 1 -1.1104 6.44139 13.9899 26.3997
431 1 -1.1104 6.5037 16.5955 23.2927
394 2 2.2208 8.11093 15.3712 27.6315
516 2 2.2208 10.6387 18.0802 22.2182
313 2 2.2208 2.32584 18.2277 13.762
552 2 2.2208 10.8047 15.3899 24.9317
390 2 2.2208 13.4371 20.8863 22.0895
609 1 -1.1104 9.35613 19.5469 26.4045
580 1 -1.1104 9.2673 19.7192 23.5607
517 1 -1.1104 12.1986 14.118 23.5282
578 1 -1.1104 12.1989 16.7259 26.2371
551 1 -1.1104 12.3013 16.7781 23.4341
392 1 -1.1104 9.38292 16.8403 26.2279
577 2 2.2208 7.96959 20.9439 22.0459
365 2 2.2208 7.98772 15.1566 22.0291
9045 2 2.2208 13.5006 4.11767 16.5781
393 1 -1.1104 9.30219 17.0003 23.5345
595 1 -1.1104 9.44686 13.7342 26.0864
363 2 2.2208 5.27779 -1.52849 13.6792
196 2 2.2208 5.21612 18.3031 27.6593
49 2 2.2208 2.43608 21.0704 27.5795
8999 2 2.2208 -0.259307 6.82241 27.6993
320 2 2.2208 10.9886 6.89392 27.6836
572 2 2.2208 8.16439 -1.33364 27.5365
636 2 2.2208 5.31982 23.8726 5.14648
637 2 2.2208 5.28928 29.4327 5.28994
638 1 -1.1104 0.855543 25.3025 0.939484
639 1 -1.1104 1.0101 25.4064 3.83945
640 1 -1.1104 1.07787 22.2842 0.893695
641 1 -1.1104 0.877384 28.1215 1.03967
642 2 2.2208 5.20733 26.5524 2.48468
643 1 -1.1104 0.995273 22.4487 3.79031
644 1 -1.1104 1.01596 28.1333 3.87178
645 1 -1.1104 3.65133 25.317 0.824085
646 2 2.2208 2.28478 23.9009 2.37372
647 2 2.2208 2.35706 29.503 2.47646
648 1 -1.1104 3.79329 25.1179 3.69827
649 2 2.2208 2.48774 26.7394 5.25432
650 1 -1.1104 3.96054 22.4945 1.18074
651 1 -1.1104 3.68316 27.9003 1.35225
652 1 -1.1104 3.90016 22.3383 3.78158
653 1 -1.1104 3.99646 27.9334 4.03839
657 1 -1.1104 6.60566 25.1458 1.33784
660 1 -1.1104 6.66785 27.9444 1.13294
662 1 -1.1104 6.62807 28.0081 3.94143
661 1 -1.1104 6.60512 22.3697 3.82341
783 1 -1.1104 3.93315 25.2028 6.60658
785 1 -1.1104 3.76372 27.9796 6.85823
781 1 -1.1104 6.59918 22.3705 6.54046
782 1 -1.1104 6.49137 27.9529 6.76248
658 1 -1.1104 6.58045 25.1926 3.91253
659 1 -1.1104 6.65915 22.4614 0.921234
778 1 -1.1104 6.6579 25.1558 6.65124
777 1 -1.1104 1.0205 25.1942 6.60516
935 2 2.2208 7.9875 40.644 8.1016
682 2 2.2208 13.572 29.437 2.54643
663 2 2.2208 10.8382 23.712 5.21813
664 2 2.2208 10.7592 29.3327 5.28045
665 1 -1.1104 12.1366 25.1335 1.20222
666 1 -1.1104 12.1013 25.2164 3.98649
667 1 -1.1104 12.2461 22.3908 0.862986
668 1 -1.1104 12.2924 28.0622 1.20873
669 2 2.2208 10.7693 26.6065 2.49074
670 1 -1.1104 12.3264 22.5067 3.78534
671 1 -1.1104 12.1518 28.0944 3.97224
672 1 -1.1104 9.32434 25.0858 1.08774
673 2 2.2208 8.00787 23.7806 2.46714
674 2 2.2208 8.07564 29.3517 2.46639
675 1 -1.1104 9.54055 25.0706 3.98237
676 2 2.2208 7.94505 26.6287 5.39975
677 1 -1.1104 9.48297 22.3668 1.1686
678 1 -1.1104 9.3474 27.8665 0.944613
679 1 -1.1104 9.48035 22.2241 3.9517
680 1 -1.1104 9.35766 28.0224 3.83017
810 1 -1.1104 12.4245 25.2609 6.62453
815 1 -1.1104 9.24804 28.1098 6.68269
956 2 2.2208 8.11885 29.3812 13.5038
10051 2 2.2208 13.6051 43.4683 -0.19651
812 1 -1.1104 12.153 28.0371 6.82579
813 1 -1.1104 9.60897 25.2791 6.74495
811 1 -1.1104 12.2933 22.3459 6.5467
814 1 -1.1104 9.41479 22.4034 6.70408
684 2 2.2208 5.22408 35.0636 5.12076
685 1 -1.1104 1.01797 30.8014 0.92303
686 1 -1.1104 1.06333 36.518 0.932662
688 1 -1.1104 0.941598 30.922 3.76401
689 1 -1.1104 1.04348 36.4301 3.82753
691 1 -1.1104 0.951565 33.608 0.957412
692 2 2.2208 5.16573 32.1341 2.42361
693 2 2.2208 5.1608 37.9244 2.49552
694 1 -1.1104 0.935883 33.6522 3.84018
696 1 -1.1104 3.65941 30.8078 0.950308
697 1 -1.1104 3.84437 36.6289 0.941567
698 2 2.2208 2.29251 35.1028 2.37873
699 1 -1.1104 3.84612 30.8311 3.8627
700 1 -1.1104 3.86712 36.3156 3.75698
701 2 2.2208 2.36776 32.2449 5.27923
702 2 2.2208 2.61039 37.744 5.23314
703 1 -1.1104 3.82999 33.7393 1.01507
704 1 -1.1104 3.75947 33.545 3.90476
687 1 -1.1104 6.64873 36.5291 1.18351
838 1 -1.1104 1.00943 33.7039 6.80713
709 1 -1.1104 6.80452 30.8511 3.61062
690 1 -1.1104 6.65704 36.6173 3.88259
710 1 -1.1104 6.68371 33.6085 0.925173
695 1 -1.1104 6.57457 33.6386 3.82587
708 1 -1.1104 6.31539 30.8677 1.00302
839 1 -1.1104 6.65868 33.5958 6.51145
841 1 -1.1104 3.98348 36.4049 6.63257
840 1 -1.1104 3.8487 30.8757 6.62902
835 1 -1.1104 1.10739 36.3756 6.47465
842 1 -1.1104 3.85964 33.6817 6.60183
754 1 -1.1104 12.2963 41.9898 12.3248
836 1 -1.1104 6.80931 30.7473 6.5248
837 1 -1.1104 6.64508 36.3846 6.66224
711 2 2.2208 10.83 35.0626 5.32799
712 1 -1.1104 12.0736 30.6359 1.26341
713 1 -1.1104 12.2825 36.5762 0.902921
714 1 -1.1104 12.2148 30.7427 4.03378
715 1 -1.1104 12.3001 36.4921 3.87
716 1 -1.1104 12.0809 33.7012 1.24307
717 2 2.2208 10.8311 32.2971 2.61351
718 2 2.2208 10.8902 37.9448 2.4268
719 1 -1.1104 12.0989 33.5834 4.01556
720 1 -1.1104 9.33507 30.7427 1.0548
721 1 -1.1104 9.51619 36.4006 0.98523
722 2 2.2208 8.06943 34.9841 2.4296
723 1 -1.1104 9.44943 30.7414 3.79175
724 1 -1.1104 9.48218 36.4959 3.8921
725 2 2.2208 8.07137 32.0621 5.22521
726 2 2.2208 8.14808 37.7809 5.2342
727 1 -1.1104 9.46824 33.5215 1.0736
728 1 -1.1104 9.31435 33.8179 3.92727
1055 2 2.2208 2.48251 35.131 13.6678
869 1 -1.1104 12.3178 36.5922 6.74995
941 2 2.2208 13.61 37.8753 5.24844
873 1 -1.1104 9.40748 33.5809 6.71554
871 1 -1.1104 9.4857 30.8906 6.61025
872 1 -1.1104 9.45679 36.5213 6.73649
868 1 -1.1104 12.2947 30.8878 6.92826
681 2 2.2208 13.6271 23.7395 2.30607
755 1 -1.1104 12.3705 42.131 9.5653
730 2 2.2208 5.27238 40.7808 5.16077
731 2 2.2208 5.23802 46.3474 5.26426
732 1 -1.1104 1.03317 42.0795 1.11559
734 1 -1.1104 1.01971 41.8577 3.91112
736 1 -1.1104 1.0233 39.3528 1.13989
737 1 -1.1104 1.08947 44.7529 1.07562
740 2 2.2208 5.23096 43.5843 2.51651
741 1 -1.1104 0.962367 39.1593 3.7877
742 1 -1.1104 0.936599 44.7719 3.86759
745 1 -1.1104 3.99063 42.1544 1.00793
746 2 2.2208 2.39323 40.6807 2.38853
747 2 2.2208 2.34109 46.1897 2.48737
748 1 -1.1104 3.73425 42.1236 3.93449
749 2 2.2208 2.37861 43.4352 5.27116
750 1 -1.1104 3.79837 39.4228 0.968993
751 1 -1.1104 3.73864 44.8278 1.19526
752 1 -1.1104 3.727 39.3659 3.93457
753 1 -1.1104 3.84967 44.9055 3.99317
735 1 -1.1104 6.72299 42.1411 3.88569
743 1 -1.1104 6.47686 39.3295 3.7168
912 1 -1.1104 3.93337 42.2072 6.63352
908 1 -1.1104 1.24094 39.2036 6.52988
909 1 -1.1104 1.08049 44.9401 6.74298
910 1 -1.1104 6.87276 39.2238 6.60995
907 1 -1.1104 6.74268 42.1471 6.64561
911 1 -1.1104 6.70131 45.069 6.74606