ITEM: TIMESTEP
20000
ITEM: NUMBER OF ATOMS
17820
ITEM: BOX BOUNDS pp pp pp
-3.6235077794758613e-01 2.7702350777947263e+01
-4.3490920951832504e+00 3.3242909209518518e+02
-3.5644765483735535e-01 2.7696447654837915e+01
ITEM: ATOMS id type q x y z
1 2 2.2208 5.40989 1.48404 5.46331
2 1 -1.1104 1.12886 -3.18943 1.02968
3 1 -1.1104 0.965288 2.40382 1.25746
6 1 -1.1104 1.0045 -3.07519 3.8389
7 1 -1.1104 1.32962 2.45983 4.03427
9 1 -1.1104 1.01506 -0.391712 0.991496
11 2 2.2208 5.4063 -1.51817 2.61888
13 1 -1.1104 0.972323 -0.258606 3.72283
15 1 -1.1104 3.92797 -2.94103 1.19112
16 1 -1.1104 3.8265 2.61676 1.40374
17 2 2.2208 2.39189 1.10964 2.47808
18 1 -1.1104 3.87083 -2.89423 3.78019
19 1 -1.1104 5.89505 2.77318 3.79146
20 2 2.2208 2.40994 -1.61926 5.15797
22 1 -1.1104 3.79095 -0.279956 1.16312
23 1 -1.1104 3.61834 0.0645405 4.10067
166 1 -1.1104 3.5747 2.42418 6.30496
21 2 2.2208 2.16458 4.00754 5.44985
8982 2 2.2208 -0.432194 -1.69082 2.40427
49 2 2.2208 2.29052 20.6625 -0.353569
8984 2 2.2208 -0.404584 3.82437 2.55272
303 2 2.2208 5.29047 -4.40661 10.9618
8992 2 2.2208 13.7989 17.9778 2.48747
322 2 2.2208 2.53625 4.00773 -0.269818
360 2 2.2208 13.7124 15.0922 -0.28342
170 1 -1.1104 4.71513 -0.2067 6.78996
318 2 2.2208 5.32545 1.13005 -0.327506
608 2 2.2208 5.16996 12.3729 -0.298315
10 1 -1.1104 6.65443 -0.30627 1.22568
571 2 2.2208 11.0341 1.09076 -0.307109
8 1 -1.1104 6.60824 -3.11989 3.9612
4 1 -1.1104 6.76037 -3.1011 1.14602
14 1 -1.1104 6.73853 -0.165823 4.36544
5 1 -1.1104 6.72906 2.52523 1.1856
31 2 2.2208 10.8225 1.21547 5.42113
32 1 -1.1104 12.1752 -3.17373 1.22198
33 1 -1.1104 12.3244 2.57112 1.13275
34 1 -1.1104 12.293 -2.99741 3.90577
35 1 -1.1104 12.2198 2.48738 3.99272
36 1 -1.1104 12.3253 -0.38809 1.10058
37 2 2.2208 10.8737 -1.68237 2.44497
38 2 2.2208 10.9132 3.9089 2.7436
39 1 -1.1104 12.2089 -0.190814 4.08666
40 1 -1.1104 9.48779 -2.94587 0.987807
41 1 -1.1104 9.47729 2.51169 0.880536
42 2 2.2208 8.19756 1.2391 2.36774
43 1 -1.1104 9.42158 -3.20485 3.89065
44 1 -1.1104 9.51362 2.59562 3.65981
45 2 2.2208 8.28372 -1.65788 5.17391
46 1 -1.1104 9.49897 -0.156447 1.06992
47 1 -1.1104 9.43897 -0.212787 3.69376
9008 2 2.2208 13.8245 15.2011 5.25133
572 2 2.2208 8.13097 -1.61625 -0.35467
26 2 2.2208 13.7887 6.68895 8.06912
203 1 -1.1104 9.44287 -0.452461 6.54535
198 1 -1.1104 12.3446 -3.08021 6.56722
8990 2 2.2208 -0.502796 20.8104 2.48975
12 2 2.2208 5.43471 4.30013 2.24496
287 1 -1.1104 6.66451 19.6107 12.3297
8981 2 2.2208 13.6686 18.0741 8.23726
52 2 2.2208 5.20272 6.63866 5.38552
53 2 2.2208 5.31243 12.3367 5.35262
54 1 -1.1104 1.01088 7.99501 1.11293
56 1 -1.1104 1.17498 8.17556 3.92669
58 1 -1.1104 1.12082 5.24222 1.25204
59 1 -1.1104 0.997863 10.8621 1.16697
64 2 2.2208 5.15337 9.65803 2.46039
65 1 -1.1104 0.966611 5.28663 4.12285
66 1 -1.1104 0.968979 10.9151 4.0541
68 1 -1.1104 3.74694 8.12213 1.02612
69 2 2.2208 2.47646 6.74595 2.63306
70 2 2.2208 2.51652 12.2474 2.52906
71 1 -1.1104 3.89266 8.01011 3.9177
72 2 2.2208 2.58142 9.54813 5.37328
73 1 -1.1104 3.91743 5.4855 1.02423
74 1 -1.1104 3.79019 10.8514 1.1486
76 1 -1.1104 3.69005 4.99772 3.68778
77 1 -1.1104 4.00688 10.8931 4.01155
57 1 -1.1104 6.26639 6.13485 3.40546
304 2 2.2208 5.25392 6.79839 -0.282619
101 2 2.2208 13.721 12.252 2.53014
55 1 -1.1104 6.63794 8.22828 1.39688
9118 2 2.2208 -0.463909 1.06994 -0.21903
229 1 -1.1104 3.86988 8.17824 6.75308
224 2 2.2208 13.7011 -1.6814 11.0071
226 1 -1.1104 6.59583 8.23397 6.19954
8991 2 2.2208 -0.261446 17.9411 5.28169
67 1 -1.1104 6.63644 10.7535 4.01906
62 1 -1.1104 6.51018 11.0251 1.2469
61 1 -1.1104 6.81861 5.43576 0.652518
81 2 2.2208 10.8798 6.66916 5.44128
82 2 2.2208 10.8528 12.3832 5.27071
83 1 -1.1104 12.3539 8.25896 1.3669
84 1 -1.1104 12.0012 8.34211 4.20969
85 1 -1.1104 12.315 5.29265 1.23661
86 1 -1.1104 12.3009 10.8722 1.14874
88 2 2.2208 10.7909 9.66588 2.47289
89 1 -1.1104 12.3635 5.52446 4.15467
90 1 -1.1104 12.3471 10.9468 3.99262
91 1 -1.1104 9.50053 8.08965 0.717474
92 2 2.2208 8.39121 6.78687 2.26429
93 2 2.2208 8.08089 12.3282 2.42971
94 1 -1.1104 8.94674 8.45029 3.5361
95 2 2.2208 8.16061 9.78233 5.40258
96 1 -1.1104 9.59316 5.18723 1.12255
97 1 -1.1104 9.28029 10.8633 1.16242
99 1 -1.1104 9.59299 5.69006 3.80417
100 1 -1.1104 9.57595 10.9544 3.90249
228 1 -1.1104 6.58591 5.59122 6.72539
146 1 -1.1104 12.4381 16.6821 6.63979
8980 2 2.2208 13.7057 15.0532 10.9463
103 2 2.2208 5.16731 17.9592 5.43091
104 1 -1.1104 1.00066 13.7515 1.07212
106 1 -1.1104 0.884362 19.3707 1.06079
110 1 -1.1104 1.1572 13.6302 3.86696
111 1 -1.1104 0.974799 19.3799 3.83134
113 1 -1.1104 1.0282 16.5424 1.18722
116 2 2.2208 5.26687 15.1885 2.55484
117 2 2.2208 5.21531 20.7544 2.38941
118 1 -1.1104 1.18171 16.554 4.02326
120 1 -1.1104 3.82384 13.6264 1.16222
122 1 -1.1104 3.754 19.2424 0.956953
124 2 2.2208 2.29974 17.9203 2.48158
125 1 -1.1104 3.81959 13.6981 4.02548
126 1 -1.1104 3.70419 19.2409 3.86355
127 2 2.2208 2.43545 15.0673 5.42879
128 2 2.2208 2.48174 20.7255 5.30232
129 1 -1.1104 3.89415 16.5392 1.02829
131 1 -1.1104 3.96272 16.4664 4.02925
137 1 -1.1104 6.69225 16.6093 1.11421
192 2 2.2208 13.7106 9.59802 5.24744
8880 2 2.2208 -0.449625 20.8695 7.98381
281 1 -1.1104 6.47659 13.7553 9.47412
395 2 2.2208 10.9057 18.0014 -0.240804
136 1 -1.1104 6.50209 19.2695 3.72219
112 1 -1.1104 6.54397 13.7188 3.76479
135 1 -1.1104 6.60015 19.3933 0.973791
119 1 -1.1104 6.73183 16.5104 3.86593
107 1 -1.1104 6.6213 13.783 0.95932
138 2 2.2208 10.9407 18.0679 5.25714
139 1 -1.1104 12.4275 13.6825 1.03285
141 1 -1.1104 12.2721 19.2379 1.20033
143 1 -1.1104 12.3576 13.8296 3.88901
144 1 -1.1104 12.3408 19.3423 4.02731
145 1 -1.1104 12.4575 16.5328 1.14545
147 2 2.2208 10.9786 15.239 2.46045
148 2 2.2208 10.8457 20.8243 2.52393
149 1 -1.1104 12.5772 16.6734 3.94328
150 1 -1.1104 9.67518 13.6487 1.03496
152 1 -1.1104 9.41751 19.3997 1.12367
154 2 2.2208 8.01383 18.0543 2.38267
155 1 -1.1104 9.56685 13.6729 3.80047
156 1 -1.1104 9.44662 19.4682 3.86603
157 2 2.2208 8.13899 15.1622 5.21705
158 2 2.2208 8.16528 20.8174 5.30756
159 1 -1.1104 9.43755 16.5685 1.07918
161 1 -1.1104 9.6531 16.5909 3.79814
142 1 -1.1104 12.2218 19.3769 6.88716
151 1 -1.1104 9.42303 13.8426 6.71743
9011 2 2.2208 -0.339603 9.64662 8.2459
8686 2 2.2208 -0.317524 15.2368 8.14127
162 2 2.2208 8.13801 17.966 8.11048
168 1 -1.1104 3.906 -3.00204 6.68526
163 1 -1.1104 1.05555 -3.10464 6.73872
167 1 -1.1104 1.42005 -0.10945 6.55448
164 1 -1.1104 0.927422 2.61155 7.10559
171 2 2.2208 5.06834 1.29258 10.9471
172 1 -1.1104 1.08563 -3.14041 12.3059
173 1 -1.1104 1.04462 2.58923 12.364
176 1 -1.1104 1.0345 -2.98756 9.57169
177 1 -1.1104 2.96141 2.3062 9.95189
180 1 -1.1104 1.24506 -0.321517 12.3521
182 2 2.2208 5.10945 -1.9063 8.1482
183 1 -1.1104 1.16269 -0.0445667 9.57738
184 1 -1.1104 3.74416 -2.87662 12.3722
185 1 -1.1104 3.79838 2.70477 12.5374
186 2 2.2208 2.61924 1.17241 8.18924
187 1 -1.1104 3.76326 -3.08892 9.5613
188 2 2.2208 2.47701 -1.68198 11.016
190 1 -1.1104 3.88917 -0.166533 12.5212
191 1 -1.1104 3.99436 -0.3097 9.5072
189 2 2.2208 2.51199 4.15906 11.1182
8993 2 2.2208 -0.329059 -1.66586 8.17837
194 2 2.2208 8.18148 15.303 10.9279
24 2 2.2208 10.8195 17.9801 10.9692
193 1 -1.1104 9.34469 19.299 9.59215
79 2 2.2208 10.9351 15.1471 8.01119
199 1 -1.1104 12.5061 2.47605 6.85694
8713 2 2.2208 -0.399348 18.1989 10.9369
179 1 -1.1104 6.29235 2.18637 9.48284
174 1 -1.1104 6.61334 -3.01372 12.387
202 1 -1.1104 9.64638 2.71398 6.53685
175 1 -1.1104 6.63685 2.37737 12.5142
181 1 -1.1104 6.37485 -0.255569 11.9995
165 1 -1.1104 6.71874 -2.60846 6.87444
201 1 -1.1104 9.52251 -3.15644 6.71672
178 1 -1.1104 6.56657 -2.88864 9.58843
200 1 -1.1104 12.2319 -0.244064 6.92252
204 2 2.2208 10.7333 1.22322 10.8402
205 1 -1.1104 12.3208 -3.11914 12.382
206 1 -1.1104 12.224 2.48758 12.3118
207 1 -1.1104 12.2532 -3.06214 9.59946
208 1 -1.1104 12.4281 2.8068 9.62123
209 1 -1.1104 12.3877 -0.346541 12.3905
210 2 2.2208 10.6463 -1.57624 8.15447
211 2 2.2208 10.9501 3.84523 7.98119
212 1 -1.1104 12.1164 -0.2216 9.64421
213 1 -1.1104 9.4603 -3.01412 12.1857
214 1 -1.1104 9.25683 2.47655 12.3315
215 1 -1.1104 9.26803 -3.0944 9.46977
216 1 -1.1104 9.6834 3.05386 9.71384
217 2 2.2208 8.09583 -1.62758 10.9503
218 2 2.2208 7.74231 3.79657 10.8578
219 1 -1.1104 9.35274 -0.232553 12.4405
220 1 -1.1104 9.43784 -0.324397 9.68466
51 2 2.2208 13.6447 -1.56054 5.40401
195 2 2.2208 8.04908 20.8219 10.9143
133 1 -1.1104 9.44541 13.7432 12.2251
225 1 -1.1104 0.991126 8.12813 6.66844
230 1 -1.1104 3.59535 5.41997 6.56342
227 1 -1.1104 1.06544 5.41163 6.85822
75 1 -1.1104 3.80597 11.0015 6.80803
60 1 -1.1104 1.15895 10.979 6.91981
231 2 2.2208 5.34395 6.79406 10.8797
232 2 2.2208 5.2075 12.4076 10.9813
233 1 -1.1104 0.916911 8.32801 12.3895
235 1 -1.1104 1.15791 8.09904 9.40563
237 1 -1.1104 1.06504 5.49506 12.449
238 1 -1.1104 1.13099 11.1333 12.2973
241 2 2.2208 5.19466 9.6323 8.12135
242 1 -1.1104 0.8499 5.02382 9.73871
243 1 -1.1104 1.11085 10.9793 9.68803
246 1 -1.1104 3.79308 8.26317 12.4308
247 2 2.2208 2.58811 6.70208 8.05303
248 2 2.2208 2.47801 12.4333 8.23221
249 1 -1.1104 3.99111 8.29257 9.45614
250 2 2.2208 2.55042 9.65762 11.0271
251 1 -1.1104 3.93229 5.50613 12.5066
252 1 -1.1104 3.74932 11.0738 12.3482
253 1 -1.1104 3.63138 5.53711 9.61976
254 1 -1.1104 3.8013 11.2083 9.62559
245 1 -1.1104 6.53239 10.8613 9.56944
63 1 -1.1104 6.69471 11.0181 6.69118
258 1 -1.1104 9.52606 8.27377 6.42241
240 1 -1.1104 6.59096 10.9445 12.2955
239 1 -1.1104 6.59553 5.13427 12.4787
236 1 -1.1104 6.62424 8.11685 9.10465
98 1 -1.1104 9.4852 11.1168 6.71847
234 1 -1.1104 6.80557 8.01184 12.2098
87 1 -1.1104 12.205 10.9543 6.84515
257 1 -1.1104 12.438 5.24153 6.9365
244 1 -1.1104 7.20531 5.65586 9.88976
255 1 -1.1104 9.3121 10.7898 9.40115
256 1 -1.1104 12.2936 8.0769 6.81218
259 1 -1.1104 9.55783 5.31322 11.8907
260 1 -1.1104 9.7713 5.77737 7.34693
261 1 -1.1104 9.27682 10.9637 12.1353
263 2 2.2208 8.07451 9.38129 10.8028
264 1 -1.1104 9.43294 7.95494 9.36581
265 2 2.2208 8.00053 12.3396 8.18947
266 2 2.2208 7.91104 6.87963 7.83704
267 2 2.2208 10.9582 6.93558 11.0341
268 2 2.2208 10.8195 12.316 10.7457
269 1 -1.1104 12.4394 8.32311 12.6013
270 1 -1.1104 12.3773 8.27223 9.64752
271 1 -1.1104 12.2381 5.46088 12.6688
272 1 -1.1104 11.9919 10.9572 12.269
273 2 2.2208 10.8784 9.43473 8.13241
274 1 -1.1104 12.1959 5.41199 9.81442
275 1 -1.1104 12.1333 10.932 9.51677
276 1 -1.1104 9.61734 8.31041 12.2203
114 1 -1.1104 1.10105 16.6181 6.88141
105 1 -1.1104 1.05397 13.7616 6.78651
293 1 -1.1104 0.989867 19.4049 6.81393
123 1 -1.1104 3.88588 19.4749 6.68335
121 1 -1.1104 4.00459 13.7212 6.73862
130 1 -1.1104 3.79021 16.5804 6.7402
301 2 2.2208 2.49283 15.3218 10.9768
300 2 2.2208 2.47434 20.9072 10.906
299 1 -1.1104 3.78386 16.7346 12.3343
298 1 -1.1104 0.917992 16.6522 12.3765
296 1 -1.1104 3.83333 13.8439 9.57882
277 1 -1.1104 3.97058 19.4472 12.2671
278 1 -1.1104 4.0101 13.8227 12.4158
282 1 -1.1104 0.99349 19.5491 9.4963
283 1 -1.1104 0.944133 16.5801 9.6589
284 2 2.2208 5.32478 20.9452 8.08093
285 1 -1.1104 1.06247 13.8344 9.62397
286 2 2.2208 5.34897 15.2718 8.08285
289 1 -1.1104 1.25361 19.4947 12.2683
290 1 -1.1104 1.11636 13.9257 12.3493
291 2 2.2208 5.22969 17.9893 10.9143
292 1 -1.1104 3.78099 19.3888 9.55407
294 2 2.2208 2.34183 18.0354 8.26872
295 1 -1.1104 3.76602 16.6776 9.43358
279 1 -1.1104 6.56094 19.4369 9.48589
288 1 -1.1104 6.63053 13.9689 12.2147
153 1 -1.1104 9.44857 19.3777 6.7365
27 1 -1.1104 12.3622 13.7497 12.2813
169 1 -1.1104 9.3391 13.599 9.67274
109 1 -1.1104 6.60156 19.2311 6.60171
29 1 -1.1104 12.2475 13.7772 9.39947
132 1 -1.1104 12.109 16.6781 9.48352
222 1 -1.1104 9.39797 16.5368 12.3588
160 1 -1.1104 9.48902 16.6021 6.67201
80 2 2.2208 10.8422 20.917 8.21791
78 1 -1.1104 12.5168 16.4845 12.3411
134 1 -1.1104 9.30732 19.3422 12.264
30 1 -1.1104 12.2205 19.4926 9.63329
223 1 -1.1104 9.47032 16.4238 9.43081
140 1 -1.1104 12.3205 13.7643 6.65117
108 1 -1.1104 6.72395 13.8243 6.48371
28 1 -1.1104 12.0853 19.3865 12.3604
297 1 -1.1104 6.55448 16.7093 12.3244
280 1 -1.1104 6.78562 16.4988 9.48607
115 1 -1.1104 6.61737 16.4692 6.60708
8987 2 2.2208 -0.461654 9.71244 2.60194
221 2 2.2208 2.41421 15.1148 -0.355472
490 2 2.2208 10.9328 15.2144 13.689
363 2 2.2208 5.2192 -1.52372 13.868
310 2 2.2208 10.745 9.84676 13.7329
543 2 2.2208 2.49726 -1.6383 -0.242955
25 2 2.2208 8.2578 3.96334 -0.348772
607 2 2.2208 2.33416 9.60314 -0.183703
320 2 2.2208 11.0526 6.65212 -0.271655
626 2 2.2208 10.919 12.3607 -0.469903
323 2 2.2208 5.28761 1.26957 16.6912
324 1 -1.1104 1.09523 -2.91553 18.0588
325 1 -1.1104 1.02224 2.48286 18.0052
328 1 -1.1104 1.13718 -3.08697 15.1977
330 1 -1.1104 1.03534 2.48087 15.1738
336 1 -1.1104 1.14916 -0.286587 17.9125
338 2 2.2208 5.25088 -1.64066 19.3512
339 2 2.2208 5.35672 3.95176 19.4919
340 1 -1.1104 1.02786 -0.283302 15.1497
344 1 -1.1104 3.91154 -2.91615 17.904
345 1 -1.1104 3.90932 2.67045 18.1765
346 2 2.2208 2.37553 1.15972 19.3595
347 1 -1.1104 3.89381 -3.06756 15.0817
349 1 -1.1104 3.81078 2.73718 15.3535
351 2 2.2208 2.50532 -1.61185 16.6488
352 2 2.2208 2.48722 3.99736 16.7291
353 1 -1.1104 4.08158 -0.24249 18.0535
354 1 -1.1104 3.958 -0.155117 15.2776
364 2 2.2208 2.50464 1.22557 13.8722
9233 2 2.2208 -0.359698 -1.58828 19.1988
624 2 2.2208 2.42894 -4.48588 19.3974
9234 2 2.2208 -0.366633 1.2789 16.507
331 1 -1.1104 0.987378 2.6843 20.8505
394 2 2.2208 7.92587 15.1494 27.7328
634 2 2.2208 2.49755 6.93011 13.8339
9188 2 2.2208 13.6892 15.2096 16.5122
9190 2 2.2208 13.6579 18.036 19.247
327 1 -1.1104 6.68246 2.74836 17.9948
342 1 -1.1104 6.63048 -0.0678112 15.1614
334 1 -1.1104 6.63703 2.67863 15.2775
326 1 -1.1104 6.66372 -3.04157 17.8612
337 1 -1.1104 6.74739 -0.199283 17.9182
332 1 -1.1104 6.68609 -2.96875 15.1024
366 2 2.2208 10.9432 1.16308 16.5148
367 1 -1.1104 12.3535 -2.97467 17.9544
368 1 -1.1104 12.1359 2.70968 17.8006
369 1 -1.1104 12.3525 -3.01539 15.0869
371 1 -1.1104 12.2969 2.96739 15.002
373 1 -1.1104 12.5751 -0.115798 17.7079
374 2 2.2208 10.9332 -1.75718 19.4954
376 1 -1.1104 12.3155 -0.124806 15.0268
378 1 -1.1104 9.57543 -3.06043 18.0895
379 1 -1.1104 9.45463 2.49224 17.9119
380 2 2.2208 8.13846 1.21296 19.3024
381 1 -1.1104 9.47938 -2.94038 15.2327
383 1 -1.1104 9.43604 2.45872 15.1502
385 2 2.2208 8.0035 -1.57014 16.586
387 1 -1.1104 9.60323 -0.218741 17.9102
388 1 -1.1104 9.58722 -0.218364 15.2059
386 2 2.2208 8.19616 4.07297 16.4325
9191 2 2.2208 13.6672 20.923 16.573
633 2 2.2208 8.12379 1.16631 13.9017
629 2 2.2208 10.8801 -1.7198 13.6485
632 2 2.2208 5.21978 4.04144 13.8975
546 1 -1.1104 12.2314 13.9076 26.3819
8999 2 2.2208 -0.393341 6.71833 27.9357
399 2 2.2208 5.38502 6.81097 16.568
400 2 2.2208 5.29821 12.4409 16.5151
401 1 -1.1104 1.05533 8.10764 18.1076
403 1 -1.1104 1.20031 8.25982 15.2241
406 1 -1.1104 1.07786 5.20119 17.9798
407 1 -1.1104 0.9749 10.915 17.9864
410 2 2.2208 5.415 9.55503 19.3939
411 1 -1.1104 0.958013 5.37265 15.2119
413 1 -1.1104 1.14373 10.978 15.1171
418 1 -1.1104 4.0094 8.18584 17.9261
419 2 2.2208 2.57244 6.75958 19.3636
420 2 2.2208 2.53921 12.3238 19.5653
421 1 -1.1104 3.9017 8.30929 15.2667
423 2 2.2208 2.49161 9.64401 16.5541
424 1 -1.1104 3.97086 5.37057 17.9496
425 1 -1.1104 3.79097 11.0413 18.0413
426 1 -1.1104 3.8215 5.51314 15.135
428 1 -1.1104 3.90443 11.1735 15.0652
408 1 -1.1104 6.55012 5.37396 17.9508
409 1 -1.1104 6.59986 11.0727 17.9295
417 1 -1.1104 6.62199 11.034 15.0521
427 1 -1.1104 3.90709 5.40866 20.889
402 1 -1.1104 6.5603 7.87992 20.642
631 2 2.2208 -0.513969 9.55986 19.4732
412 1 -1.1104 1.13442 5.39687 20.7183
429 1 -1.1104 3.99399 10.8832 20.9464
404 1 -1.1104 0.919843 8.21005 20.802
9230 2 2.2208 -0.392268 15.079 19.2922
317 2 2.2208 10.7563 20.8752 13.8008
9007 2 2.2208 13.7365 12.2999 13.7272
375 2 2.2208 10.8966 4.00117 19.201
405 1 -1.1104 6.78875 8.3271 15.1456
415 1 -1.1104 6.6451 5.51046 15.1711
450 1 -1.1104 6.70111 10.911 20.6246
436 1 -1.1104 7.31516 8.04156 17.9686
435 2 2.2208 10.8596 12.4319 16.4546
438 1 -1.1104 12.4882 5.48126 17.8151
439 1 -1.1104 12.0983 10.9913 15.0605
442 2 2.2208 8.00775 6.47091 19.3775
443 2 2.2208 8.01367 12.5007 19.3859
444 1 -1.1104 9.46666 8.36551 15.016
445 2 2.2208 8.08027 9.73344 16.4403
446 1 -1.1104 9.27152 5.28452 18.0338
447 1 -1.1104 9.52885 11.0015 17.9293
449 1 -1.1104 9.39408 11.1079 14.9701
262 1 -1.1104 9.48675 5.19617 14.6983
441 1 -1.1104 12.1554 11.1956 20.6217
437 1 -1.1104 12.2677 7.81274 20.9608
416 1 -1.1104 6.63253 5.31212 20.9296
581 2 2.2208 7.99959 18.1086 24.9547
311 2 2.2208 8.06505 6.82045 13.7682
549 1 -1.1104 6.56656 16.5667 26.4207
517 1 -1.1104 12.3869 13.9066 23.4153
453 2 2.2208 5.34688 18.0749 16.5734
454 1 -1.1104 1.00022 13.7508 18.0223
455 1 -1.1104 1.11277 19.3717 18.0082
458 1 -1.1104 0.987666 13.8452 15.2907
460 1 -1.1104 1.07376 19.3667 15.1466
466 1 -1.1104 1.01425 16.4982 17.8046
468 2 2.2208 5.36206 15.0579 19.1903
469 2 2.2208 5.27658 20.7996 19.2268
470 1 -1.1104 1.11943 16.5696 15.0803
474 1 -1.1104 3.92803 13.8091 17.8765
475 1 -1.1104 3.91047 19.4357 17.7634
476 2 2.2208 2.44958 17.9486 19.2915
477 1 -1.1104 3.66664 13.9087 15.0943
479 1 -1.1104 3.76739 19.685 14.9308
481 2 2.2208 2.38394 15.1761 16.5829
482 2 2.2208 2.38962 20.8655 16.5951
483 1 -1.1104 3.9006 16.5643 17.919
484 1 -1.1104 3.95896 16.87 15.0974
462 1 -1.1104 6.62816 13.8445 15.0532
467 1 -1.1104 6.68622 16.6314 17.8967
457 1 -1.1104 6.67284 19.3993 18.0008
9012 2 2.2208 -0.364813 20.9485 13.8369
514 1 -1.1104 9.42544 16.6569 20.6688
480 1 -1.1104 3.75764 19.5561 20.6754
459 1 -1.1104 1.05357 13.6968 20.7876
465 1 -1.1104 6.51797 19.4698 20.8854
495 1 -1.1104 12.3514 14.0297 20.6347
313 2 2.2208 2.51529 18.1978 13.6864
393 1 -1.1104 9.47573 16.974 23.4823
472 1 -1.1104 6.66836 16.6909 15.1385
464 1 -1.1104 6.49955 19.5417 15.1763
456 1 -1.1104 6.79715 13.8188 17.9582
491 2 2.2208 10.8605 18.0108 16.5118
492 1 -1.1104 12.3563 13.6384 17.8206
493 1 -1.1104 12.3897 19.4362 17.9025
494 1 -1.1104 12.1628 13.8908 15.0237
496 1 -1.1104 12.1169 19.4522 15.1771
498 1 -1.1104 12.1966 16.4374 17.7824
499 2 2.2208 10.8749 15.2637 19.2415
500 2 2.2208 10.8931 20.9019 19.335
501 1 -1.1104 12.2097 16.5901 15.0931
503 1 -1.1104 9.46884 13.9232 17.8696
504 1 -1.1104 9.45465 19.507 17.8135
505 2 2.2208 8.09486 18.0739 19.3456
506 1 -1.1104 9.41171 13.8626 15.0249
508 1 -1.1104 9.3486 19.3374 15.1429
510 2 2.2208 7.99638 15.2693 16.3338
511 2 2.2208 8.08335 20.8613 16.6605
512 1 -1.1104 9.46419 16.762 17.9433
513 1 -1.1104 9.44767 16.6493 15.0222
507 1 -1.1104 9.54717 13.5486 20.6759
473 1 -1.1104 6.61925 16.6856 20.5903
545 1 -1.1104 12.386 19.3682 23.4985
9194 2 2.2208 13.8185 -1.74039 16.4829
497 1 -1.1104 12.2417 19.5235 20.7046
463 1 -1.1104 6.53488 13.6874 20.7961
329 1 -1.1104 0.936621 -3.01721 20.7382
341 1 -1.1104 0.91843 -0.305411 20.8197
355 1 -1.1104 3.70389 -0.478251 20.668
580 1 -1.1104 9.39913 19.9055 23.6397
9088 2 2.2208 -0.403272 4.01182 19.5195
9161 2 2.2208 -0.300297 4.02264 25.0614
9163 2 2.2208 13.6438 17.9898 13.8008
9090 2 2.2208 -0.435074 -1.76122 24.9469
350 1 -1.1104 3.83555 2.307 20.9138
348 1 -1.1104 3.76101 -3.11577 20.8806
518 2 2.2208 5.23439 1.15618 22.2344
519 1 -1.1104 1.03832 -3.14094 23.5691
520 1 -1.1104 0.960413 2.47305 23.7769
523 1 -1.1104 1.00363 -2.92552 26.3394
524 1 -1.1104 1.05083 2.65282 26.4776
527 1 -1.1104 1.03244 -0.313637 23.5862
529 2 2.2208 5.17713 -1.59088 25.0572
530 2 2.2208 5.16603 4.004 24.825
531 1 -1.1104 1.01102 -0.0673442 26.4292
533 1 -1.1104 3.79102 -2.93508 23.7478
534 1 -1.1104 3.60424 2.64941 23.6344
535 2 2.2208 2.37332 1.15398 25.0225
536 1 -1.1104 3.71835 -3.12504 26.446
537 1 -1.1104 3.91882 2.5298 26.6081
538 2 2.2208 2.41909 -1.73147 22.1823
539 2 2.2208 2.48429 3.8621 22.1836
540 1 -1.1104 3.8792 -0.0421425 23.6116
541 1 -1.1104 3.90543 -0.182366 26.3869
316 2 2.2208 7.99687 18.0664 13.7129
635 2 2.2208 5.24733 20.9969 13.7065
335 1 -1.1104 6.52523 2.46676 20.7852
333 1 -1.1104 6.67697 -3.01669 20.69
528 1 -1.1104 6.54646 -0.202786 23.6024
532 1 -1.1104 6.67639 -0.298146 26.2395
525 1 -1.1104 6.58512 -3.03429 26.3071
522 1 -1.1104 6.65265 2.68384 23.6274
370 1 -1.1104 12.3286 -3.02494 20.7625
521 1 -1.1104 6.59754 -2.98574 23.5879
389 1 -1.1104 9.5146 -0.259727 20.7774
372 1 -1.1104 12.1859 2.40266 20.8637
382 1 -1.1104 9.54719 -3.06765 20.6729
384 1 -1.1104 9.31373 2.79034 20.6094
343 1 -1.1104 6.56565 -0.0746761 20.812
377 1 -1.1104 12.3946 -0.260624 20.8497
526 1 -1.1104 6.58477 2.84591 26.4783
553 2 2.2208 10.9395 1.07149 22.1633
554 1 -1.1104 12.2321 -2.99494 23.4897
555 1 -1.1104 12.3756 2.46741 23.598
556 1 -1.1104 12.2347 -3.1853 26.4146
557 1 -1.1104 12.3657 2.40056 26.3468
558 1 -1.1104 12.3056 -0.296842 23.6592
559 2 2.2208 10.7885 -1.76317 24.8848
560 2 2.2208 10.9133 3.84773 24.833
561 1 -1.1104 12.1334 -0.493946 26.3298
562 1 -1.1104 9.44096 -3.2008 23.5518
563 1 -1.1104 9.53787 2.461 23.5551
564 2 2.2208 8.07776 1.14799 24.9314
565 1 -1.1104 9.4694 -3.05538 26.3039
566 1 -1.1104 9.53514 2.56991 26.2891
567 2 2.2208 7.96775 -1.48724 22.172
568 2 2.2208 8.00708 4.07289 22.176
569 1 -1.1104 9.39634 -0.345598 23.5089
570 1 -1.1104 9.45652 -0.340565 26.3965
509 1 -1.1104 9.484 19.4108 20.5862
392 1 -1.1104 9.35552 16.4879 26.2256
551 1 -1.1104 12.1616 16.5756 23.4393
365 2 2.2208 8.1012 15.1373 22.0856
422 1 -1.1104 3.78448 8.12096 20.6722
321 2 2.2208 7.7982 9.54565 27.8158
414 1 -1.1104 1.07013 10.953 20.8234
582 2 2.2208 5.20517 6.81296 22.0816
583 2 2.2208 5.34899 12.3331 22.1913
584 1 -1.1104 1.14054 8.04873 23.6274
586 1 -1.1104 1.03547 8.21005 26.4014
588 1 -1.1104 0.929878 5.25978 23.4241
589 1 -1.1104 0.972864 10.7969 23.5042
592 2 2.2208 5.1571 9.61046 24.9869
593 1 -1.1104 1.13782 5.37807 26.4317
594 1 -1.1104 0.948548 11.0368 26.4096
597 1 -1.1104 4.04087 7.95662 23.6426
598 2 2.2208 2.54295 6.75943 25.11
599 2 2.2208 2.44876 12.2731 24.8714
600 1 -1.1104 3.81682 8.31764 26.4413
601 2 2.2208 2.39191 9.5296 22.2127
602 1 -1.1104 3.78456 5.34361 23.641
603 1 -1.1104 3.75706 10.8355 23.6522
604 1 -1.1104 4.03059 5.30993 26.4009
605 1 -1.1104 3.59575 10.9642 26.3198
591 1 -1.1104 6.46113 10.886 23.7988
596 1 -1.1104 6.17402 10.8783 26.575
585 1 -1.1104 6.49316 5.45577 23.6594
577 2 2.2208 7.89976 20.7784 22.2097
587 1 -1.1104 6.63628 8.0405 26.5102
627 2 2.2208 13.737 12.4417 24.9238
516 2 2.2208 10.9169 18.0701 22.0577
448 1 -1.1104 9.51705 5.86339 20.8555
440 1 -1.1104 12.4727 5.22646 20.7163
610 1 -1.1104 9.17951 11.0099 26.5575
611 1 -1.1104 9.54949 5.45302 26.4169
612 1 -1.1104 9.21691 11.3896 23.002
613 1 -1.1104 9.63523 5.17371 23.3556
614 2 2.2208 8.19856 12.2991 24.7893
616 2 2.2208 11.0308 6.70378 22.4076
617 2 2.2208 10.9795 12.5262 22.3008
618 1 -1.1104 12.2877 8.13067 23.6259
619 1 -1.1104 12.5945 7.79852 26.8331
620 1 -1.1104 12.4388 5.27365 23.5683
621 1 -1.1104 12.4231 11.206 23.5501
622 1 -1.1104 12.4395 5.08401 26.3289
623 1 -1.1104 12.5774 11.3227 26.5322
550 1 -1.1104 12.3631 19.4343 26.3733
595 1 -1.1104 9.62006 13.7047 26.2516
552 2 2.2208 10.9047 15.2401 24.9447
579 1 -1.1104 9.64574 14.1541 23.424
590 1 -1.1104 6.61017 19.8449 26.3566
485 1 -1.1104 3.98377 16.5601 20.7806
461 1 -1.1104 0.9942 19.2649 20.6319
488 1 -1.1104 6.80855 13.7361 23.3842
575 1 -1.1104 6.66067 13.6861 26.2464
471 1 -1.1104 1.02986 16.5756 20.6806
478 1 -1.1104 3.81681 13.741 20.7216
396 2 2.2208 2.36735 15.1474 22.0742
397 2 2.2208 2.32634 20.5342 22.1732
398 1 -1.1104 3.72768 16.651 23.5528
430 1 -1.1104 0.98463 16.3186 23.6275
432 1 -1.1104 3.77818 13.7569 26.275
433 1 -1.1104 3.75185 16.534 26.34
434 2 2.2208 2.39611 17.8817 24.9732
451 1 -1.1104 3.88456 19.502 26.3013
452 2 2.2208 5.18949 18.0104 22.1376
486 1 -1.1104 1.14519 13.6711 23.6135
487 1 -1.1104 0.861456 19.2329 23.502
489 2 2.2208 5.30044 15.1533 24.9367
515 2 2.2208 5.11632 20.8597 24.7989
544 1 -1.1104 0.980059 13.6835 26.3857
547 1 -1.1104 0.974699 16.5557 26.5141
548 1 -1.1104 0.952128 19.3715 26.2396
573 1 -1.1104 3.89461 13.9077 23.4556
606 1 -1.1104 3.62395 19.3247 23.4736
431 1 -1.1104 6.62689 16.6434 23.5718
542 1 -1.1104 6.48916 19.2874 23.5166
574 2 2.2208 10.91 20.7723 25.0933
9014 2 2.2208 -0.333008 15.2988 13.7498
9010 2 2.2208 -0.318102 9.65329 13.7036
578 1 -1.1104 12.1261 16.8031 26.0957
609 1 -1.1104 9.43161 19.1575 26.4223
502 1 -1.1104 12.2039 16.6726 20.5849
306 2 2.2208 2.43062 12.5831 13.8141
307 2 2.2208 5.22351 9.63834 13.7946
196 2 2.2208 5.15274 17.8602 27.8303
628 2 2.2208 13.7286 9.52788 27.7938
312 2 2.2208 5.26062 15.3232 13.7117
315 2 2.2208 8.06776 20.7742 27.8454
305 2 2.2208 10.713 3.83021 13.4718
309 2 2.2208 8.01484 12.4246 13.5764
636 2 2.2208 5.28211 23.6094 5.2352
637 2 2.2208 5.30498 29.2918 5.3691
638 1 -1.1104 1.09628 24.926 1.21732
639 1 -1.1104 1.13143 24.9699 3.90253
640 1 -1.1104 0.816723 22.1224 0.968111
641 1 -1.1104 1.04648 27.8708 1.23194
642 2 2.2208 5.20122 26.4623 2.46847
643 1 -1.1104 0.968673 22.088 3.90423
644 1 -1.1104 1.06279 27.9125 4.15418
645 1 -1.1104 3.74988 25.0688 1.03388
646 2 2.2208 2.4039 23.5812 2.51854
647 2 2.2208 2.36971 29.2371 2.48558
648 1 -1.1104 3.83428 24.9911 3.80111
649 2 2.2208 2.56602 26.3801 5.38764
650 1 -1.1104 3.64508 22.1411 0.9757
651 1 -1.1104 3.74452 27.9451 1.15317
652 1 -1.1104 3.77073 22.1231 3.91553
653 1 -1.1104 3.85748 27.8295 4.00579
953 2 2.2208 5.2278 23.6213 -0.193438
951 2 2.2208 2.29433 26.5702 -0.120586
657 1 -1.1104 6.45389 25.0046 1.18902
660 1 -1.1104 6.51305 27.7679 1.18649
662 1 -1.1104 6.58179 27.751 4.01454
784 1 -1.1104 3.97926 22.3466 6.60419
779 1 -1.1104 1.1235 22.1938 6.6956
783 1 -1.1104 3.87736 25.0383 6.72882
780 1 -1.1104 1.00528 27.7582 6.90069
782 1 -1.1104 6.74175 27.9093 6.77595
778 1 -1.1104 6.68627 24.9671 6.76728
661 1 -1.1104 6.60558 22.1515 3.79986
659 1 -1.1104 6.58777 22.26 0.929721
658 1 -1.1104 6.76739 24.9774 3.94418
663 2 2.2208 10.9372 23.6874 5.33933
664 2 2.2208 10.7362 29.3913 5.17992
665 1 -1.1104 12.2588 24.9925 1.01486
666 1 -1.1104 12.3312 25.1349 3.75127
667 1 -1.1104 12.2645 22.2158 1.28041
668 1 -1.1104 12.1358 27.7283 1.02325
669 2 2.2208 10.7201 26.5033 2.55817
670 1 -1.1104 12.2908 22.268 3.83511
671 1 -1.1104 12.4687 27.9702 3.82856
672 1 -1.1104 9.29788 25.0012 1.16842
673 2 2.2208 8.05529 23.6313 2.5848
674 2 2.2208 7.97745 29.2594 2.42034
675 1 -1.1104 9.4791 25.1104 4.06392
676 2 2.2208 8.07264 26.4302 5.37678
677 1 -1.1104 9.47446 22.364 1.17662
678 1 -1.1104 9.39363 27.7431 1.07896
679 1 -1.1104 9.41399 22.3493 4.1103
680 1 -1.1104 9.60609 27.9874 3.84263
810 1 -1.1104 12.1389 25.1908 6.56788
1302 1 -1.1104 1.07867 47.6455 1.09313
935 2 2.2208 7.9025 40.4477 8.05303
1547 1 -1.1104 9.38379 47.3847 9.48712
684 2 2.2208 5.26755 34.9514 5.22214
685 1 -1.1104 0.962997 30.6485 1.04287
686 1 -1.1104 0.987529 36.2965 1.06455
688 1 -1.1104 0.951273 30.6845 4.01175
689 1 -1.1104 1.04311 36.281 3.85756
691 1 -1.1104 1.00772 33.5727 0.9907
692 2 2.2208 5.15978 32.0749 2.42396
693 2 2.2208 5.14793 37.7098 2.42232
694 1 -1.1104 1.00715 33.4224 3.77619
696 1 -1.1104 3.6832 30.6358 1.04414
697 1 -1.1104 3.82332 36.2285 1.09968
698 2 2.2208 2.39183 34.9292 2.3926
699 1 -1.1104 3.85221 30.6423 3.80279
700 1 -1.1104 3.76678 36.378 3.80589
701 2 2.2208 2.39773 32.0956 5.18135
702 2 2.2208 2.42966 37.6752 5.37587
703 1 -1.1104 3.89014 33.4321 1.00929
704 1 -1.1104 3.87036 33.6252 3.91742
695 1 -1.1104 6.61192 33.5113 4.04522
687 1 -1.1104 6.49731 36.1606 1.01859
838 1 -1.1104 0.933024 33.5514 6.70273
842 1 -1.1104 3.71079 33.5476 6.5579
709 1 -1.1104 6.52281 30.6517 3.95662
708 1 -1.1104 6.50065 30.6111 1.02969
710 1 -1.1104 6.5719 33.3571 1.13684
839 1 -1.1104 6.62733 33.4649 6.70156
841 1 -1.1104 3.87541 36.2844 6.5094
690 1 -1.1104 6.55001 36.2931 3.68919
711 2 2.2208 10.7992 34.8715 5.36462
712 1 -1.1104 12.1257 30.6546 1.14795
713 1 -1.1104 12.0975 36.4081 1.10184
714 1 -1.1104 12.2347 30.85 3.90928
715 1 -1.1104 12.1613 36.2053 3.8833
716 1 -1.1104 12.0568 33.531 1.23821
717 2 2.2208 10.6503 31.9613 2.41814
718 2 2.2208 10.7251 37.6744 2.4613
719 1 -1.1104 12.1167 33.4686 4.06288
720 1 -1.1104 9.36912 30.5098 1.03069
721 1 -1.1104 9.37216 36.1388 1.09555
722 2 2.2208 8.00413 34.8489 2.41901
723 1 -1.1104 9.30931 30.6669 3.8217
724 1 -1.1104 9.39461 36.1541 3.9374
725 2 2.2208 8.07085 32.1492 5.17139
726 2 2.2208 7.96299 37.6084 5.25912
727 1 -1.1104 9.31403 33.3149 0.963182
728 1 -1.1104 9.46631 33.4431 3.75855
868 1 -1.1104 12.2517 30.6668 6.75028
947 2 2.2208 13.6646 34.8481 8.09
9692 2 2.2208 -0.490528 43.4382 8.0659
930 1 -1.1104 9.43985 44.7892 12.432
872 1 -1.1104 9.28968 36.3534 6.72803
869 1 -1.1104 12.0962 36.162 6.66571
870 1 -1.1104 12.3711 33.384 6.85338
873 1 -1.1104 9.42687 33.4097 6.70078
1515 1 -1.1104 3.88062 47.573 12.3344
9774 2 2.2208 -0.253478 40.3826 -0.312491
942 2 2.2208 13.6876 32.037 5.24304
730 2 2.2208 5.22585 40.5345 5.3392
731 2 2.2208 5.19759 46.1131 5.24528
732 1 -1.1104 0.999682 41.8364 1.12594
734 1 -1.1104 0.958119 41.971 3.75417
736 1 -1.1104 1.08166 39.0344 1.12522
737 1 -1.1104 1.10961 44.845 1.09989
740 2 2.2208 5.15281 43.2934 2.41873
741 1 -1.1104 1.02859 39.1556 4.07891
742 1 -1.1104 1.00468 44.7778 3.83718
745 1 -1.1104 3.81165 41.9162 1.00954
746 2 2.2208 2.50404 40.5103 2.43566
747 2 2.2208 2.48621 46.2132 2.42714
748 1 -1.1104 3.75072 41.9574 3.85231
749 2 2.2208 2.36568 43.3839 5.26645
750 1 -1.1104 3.82235 39.0629 1.02492
751 1 -1.1104 3.97805 44.7509 1.0736
752 1 -1.1104 3.91376 39.2403 3.86372
753 1 -1.1104 3.87269 44.7746 3.87657
733 1 -1.1104 6.51994 41.8988 0.991634
909 1 -1.1104 1.03336 44.7974 6.65933
743 1 -1.1104 6.68675 39.0886 3.82139
739 1 -1.1104 6.74157 44.6497 1.1666
738 1 -1.1104 6.62395 38.9571 1.01294
912 1 -1.1104 3.64921 42.0262 6.66692
735 1 -1.1104 6.6002 41.8797 3.67005
1360 1 -1.1104 9.37069 47.3996 4.0215
907 1 -1.1104 6.51868 42.0055 6.5532
910 1 -1.1104 6.57349 38.9974 6.69216
906 1 -1.1104 0.88869 42.0124 6.63042
914 1 -1.1104 3.83506 39.1055 6.82628
908 1 -1.1104 0.972667 39.2457 6.78428
1529 1 -1.1104 12.2868 47.3035 6.7497