ITEM: TIMESTEP
20000
ITEM: NUMBER OF ATOMS
17640
ITEM: BOX BOUNDS pp pp pp
-5.0209715322056392e-01 2.7842097153220401e+01
-6.0662828222512948e+00 3.3414628282224868e+02
-4.8495111647792094e-01 2.7824951116477923e+01
ITEM: ATOMS id type q x y z
1 2 2.2208 5.28354 -0.252378 5.17411
2 1 -1.1104 1.20637 -4.60114 0.754738
6 1 -1.1104 0.760976 -4.70944 3.66351
9 1 -1.1104 1.23386 -1.69825 1.04899
11 2 2.2208 5.32378 -3.27459 2.19637
13 1 -1.1104 0.868379 -1.85723 3.77979
15 1 -1.1104 4.07787 -4.52061 0.756066
17 2 2.2208 2.66205 -0.408936 2.26668
18 1 -1.1104 3.75867 -4.56377 3.35895
20 2 2.2208 2.3551 -3.23419 5.0797
22 1 -1.1104 3.87741 -1.8179 0.693621
23 1 -1.1104 4.25727 -1.75964 3.78876
160 1 -1.1104 1.2695 -4.69804 6.47727
47 1 -1.1104 6.78829 -1.71733 3.66025
8925 2 2.2208 -0.263912 -0.33653 5.06469
8940 2 2.2208 -0.136809 -2.93532 13.396
169 1 -1.1104 12.237 15.1077 9.10132
166 1 -1.1104 3.78385 -4.5241 6.40795
168 1 -1.1104 3.58748 -1.64186 6.3527
164 1 -1.1104 1.04346 -1.70529 6.55518
10 1 -1.1104 6.82158 -1.89088 0.530179
4 1 -1.1104 6.85935 -4.6156 0.766074
8 1 -1.1104 6.69047 -4.53075 3.4796
31 2 2.2208 10.9881 -0.437374 4.98887
32 1 -1.1104 12.5762 -4.91909 1.14905
34 1 -1.1104 12.549 -4.83758 3.66939
36 1 -1.1104 12.2869 -1.87921 0.97575
37 2 2.2208 11.0382 -3.38047 2.23453
39 1 -1.1104 12.3881 -2.11502 3.81097
40 1 -1.1104 9.71929 -4.78499 0.840856
42 2 2.2208 8.06564 -0.314541 2.48671
43 1 -1.1104 9.71289 -4.56391 3.75864
45 2 2.2208 8.04763 -3.17944 5.00391
46 1 -1.1104 9.47819 -2.03527 0.818367
205 1 -1.1104 9.30869 -1.84717 3.81818
201 1 -1.1104 12.7735 -1.54791 6.73392
199 1 -1.1104 12.4162 -4.44152 6.50309
203 1 -1.1104 9.83017 -1.30958 6.55111
325 2 2.2208 2.45169 16.5951 13.3452
167 1 -1.1104 3.88947 0.858532 3.6244
3 1 -1.1104 1.28724 0.988303 0.513214
7 1 -1.1104 1.30309 0.98632 3.45316
12 2 2.2208 5.19212 2.26966 2.2901
16 1 -1.1104 4.12629 0.94866 0.866881
19 1 -1.1104 3.95138 3.9643 3.67768
21 2 2.2208 2.46137 2.70476 4.7853
57 1 -1.1104 1.15992 3.82528 0.652704
64 1 -1.1104 1.12865 4.14572 3.33317
68 2 2.2208 2.69665 5.11754 2.11559
71 1 -1.1104 4.00366 3.53635 0.631483
228 1 -1.1104 0.606105 6.77294 3.78735
8927 2 2.2208 -0.204866 16.6347 5.04225
163 1 -1.1104 3.83393 0.965234 6.50896
53 1 -1.1104 1.31787 6.55702 0.963141
55 1 -1.1104 3.68936 6.67881 3.54915
314 2 2.2208 5.25208 2.45251 13.4443
161 1 -1.1104 1.00257 1.21619 6.49577
230 1 -1.1104 1.01561 4.12371 6.23129
232 1 -1.1104 1.87472 6.7843 6.51914
320 2 2.2208 5.18274 7.94076 13.6542
14 1 -1.1104 6.76169 1.20432 3.54883
60 1 -1.1104 6.71939 3.72592 1.18948
5 1 -1.1104 6.56464 1.06587 0.635767
44 1 -1.1104 9.51243 1.0257 3.88376
33 1 -1.1104 12.4375 0.902216 0.779292
35 1 -1.1104 12.3931 0.856394 3.62934
38 2 2.2208 10.7638 2.42949 2.22985
41 1 -1.1104 9.39443 1.0067 0.932538
78 2 2.2208 10.9841 5.14211 5.21477
81 1 -1.1104 12.6482 6.85529 3.34348
82 1 -1.1104 12.3217 3.60947 0.958174
86 1 -1.1104 12.4067 3.81227 3.66688
88 1 -1.1104 9.88924 6.91755 0.860539
89 2 2.2208 8.32992 5.55067 2.18748
93 1 -1.1104 9.52834 3.92312 0.693993
96 1 -1.1104 9.58314 4.03411 3.24548
80 1 -1.1104 12.641 6.35239 0.69051
91 1 -1.1104 9.67884 6.66412 3.62434
56 1 -1.1104 6.73031 6.50383 3.49024
261 1 -1.1104 9.55599 6.45563 6.48992
54 1 -1.1104 6.83826 6.6052 0.837188
259 1 -1.1104 12.3182 6.70229 6.67945
8856 2 2.2208 -0.23749 10.8402 10.4876
67 1 -1.1104 4.12753 6.24843 0.667903
52 2 2.2208 5.41058 10.927 4.89182
58 1 -1.1104 1.03137 9.7174 0.920488
63 2 2.2208 5.33783 7.80155 2.33586
65 1 -1.1104 1.08053 9.61645 3.59651
69 2 2.2208 2.49917 11.1252 2.17327
70 2 2.2208 2.42338 8.14538 4.59246
72 1 -1.1104 3.76937 9.39191 0.599887
74 1 -1.1104 4.02171 9.61114 3.37677
101 1 -1.1104 0.884583 12.6579 0.69818
107 1 -1.1104 0.865675 12.2991 3.62798
117 1 -1.1104 3.81097 12.2589 0.77965
122 1 -1.1104 3.83911 12.3675 3.60886
118 1 -1.1104 3.98822 12.1681 6.36957
8829 2 2.2208 -0.267693 -0.293832 10.6319
104 1 -1.1104 6.69703 12.2132 0.447884
66 1 -1.1104 6.88679 9.41977 3.50043
109 1 -1.1104 6.75548 12.3827 3.60456
61 1 -1.1104 6.73223 9.34769 0.753608
79 2 2.2208 10.9512 10.9243 4.86206
83 1 -1.1104 12.4381 9.64634 0.807838
85 2 2.2208 11.0222 8.17437 2.16775
87 1 -1.1104 12.6359 9.60273 3.78329
90 2 2.2208 8.2832 10.8152 2.21705
92 2 2.2208 8.17633 7.9445 5.12424
94 1 -1.1104 9.52703 9.67423 0.772117
97 1 -1.1104 9.71331 9.53756 3.59286
136 1 -1.1104 12.4712 12.2718 0.893706
140 1 -1.1104 12.5709 12.3814 3.72906
147 1 -1.1104 9.36488 12.47 0.761704
152 1 -1.1104 9.72925 12.3707 3.52976
148 1 -1.1104 9.74089 12.1562 6.24211
137 1 -1.1104 12.3122 12.2452 6.39614
62 1 -1.1104 6.77112 9.4033 6.35527
105 1 -1.1104 6.77701 12.1677 6.32144
95 1 -1.1104 9.68655 9.37984 6.61761
84 1 -1.1104 12.6489 9.50187 6.34388
8930 2 2.2208 -0.572186 13.9015 1.97165
8931 2 2.2208 -0.371461 19.3059 2.35965
8923 2 2.2208 -0.457141 2.56319 7.85175
113 2 2.2208 5.31034 13.8775 2.13438
124 2 2.2208 2.38356 13.8027 4.93436
100 2 2.2208 5.42785 16.5738 4.93985
103 1 -1.1104 1.06936 18.0087 0.929324
108 1 -1.1104 0.9922 17.9866 3.67327
110 1 -1.1104 1.12606 15.2488 0.591383
114 2 2.2208 5.25236 19.3435 2.06238
115 1 -1.1104 1.09118 15.1246 3.45051
119 1 -1.1104 3.61252 18.0678 0.86759
121 2 2.2208 2.41935 16.6691 2.131
123 1 -1.1104 4.0235 18.1805 3.56141
125 2 2.2208 2.45355 19.3264 4.87688
126 1 -1.1104 3.89558 15.1459 0.695274
128 1 -1.1104 4.06042 15.3095 3.37414
132 1 -1.1104 6.63654 18.3221 0.469615
296 1 -1.1104 1.25475 17.971 6.26725
120 1 -1.1104 4.2203 18.1063 6.46199
328 2 2.2208 11.1137 19.2095 13.5344
133 1 -1.1104 6.73501 18.0368 3.52502
134 1 -1.1104 6.82795 15.3395 0.785215
116 1 -1.1104 7.03844 15.2875 3.45127
144 2 2.2208 11.0239 13.6544 2.17345
135 2 2.2208 10.9824 16.5069 5.00811
138 1 -1.1104 12.0661 17.7494 0.61762
141 1 -1.1104 12.067 17.7073 3.41684
142 1 -1.1104 12.4331 14.9937 0.704413
145 2 2.2208 10.9104 19.3284 2.08616
146 1 -1.1104 12.9367 15.0543 3.34763
149 1 -1.1104 9.45341 18.0913 0.909084
151 2 2.2208 8.22556 16.6599 2.1385
153 1 -1.1104 9.35041 17.9582 3.5967
154 2 2.2208 8.2237 13.8566 4.91966
155 2 2.2208 8.1565 19.636 4.96509
156 1 -1.1104 9.6051 15.4188 0.783473
158 1 -1.1104 9.91111 14.8519 3.68616
131 2 2.2208 10.9879 19.7183 7.77412
8863 2 2.2208 -0.267987 8.08367 7.85212
139 1 -1.1104 13.0252 17.9097 6.28703
106 1 -1.1104 7.22082 17.7696 6.16863
157 1 -1.1104 9.52161 15.3628 6.25201
112 1 -1.1104 6.64856 15.0947 6.21139
335 2 2.2208 8.32526 -5.71039 13.5461
27 2 2.2208 -0.276879 -3.15573 2.23799
8830 2 2.2208 -0.28317 -3.07995 8.06428
8926 2 2.2208 -0.234506 2.52142 1.96572
313 2 2.2208 2.47572 -0.459405 13.5045
8929 2 2.2208 -0.298835 10.8018 4.97765
170 2 2.2208 5.13168 -0.53645 10.6367
171 1 -1.1104 1.10509 -4.69432 12.1933
175 1 -1.1104 1.22794 -4.31941 9.1197
179 1 -1.1104 1.02601 -1.64895 12.0575
181 2 2.2208 5.11149 -3.16863 7.77959
183 1 -1.1104 1.24015 -1.68086 9.26838
185 1 -1.1104 4.20682 -4.59342 11.7716
187 2 2.2208 2.46365 -0.257777 7.92468
188 1 -1.1104 4.17513 -4.42509 9.19965
190 2 2.2208 2.50975 -3.34368 10.6003
192 1 -1.1104 3.83273 -1.82611 12.0018
193 1 -1.1104 3.89687 -1.76232 9.28803
180 1 -1.1104 6.74151 -1.76461 11.922
331 2 2.2208 -0.296594 2.5471 13.5472
8257 2 2.2208 11.0484 -5.89478 5.10537
327 2 2.2208 5.31482 13.4092 13.3915
162 1 -1.1104 6.71153 -4.69409 6.22399
184 1 -1.1104 6.69867 -1.72771 9.01925
165 1 -1.1104 6.43547 -1.77944 6.5099
173 1 -1.1104 6.81895 -4.81666 11.8894
177 1 -1.1104 6.92909 -4.56745 9.04077
202 1 -1.1104 9.33579 -4.32952 6.39426
206 2 2.2208 10.8833 -0.428654 10.778
207 1 -1.1104 12.3231 -4.72373 11.8854
209 1 -1.1104 12.2617 -4.96031 9.05238
211 1 -1.1104 12.7218 -2.00239 12.4141
212 2 2.2208 10.9812 -3.13747 7.98059
214 1 -1.1104 12.2341 -1.87227 9.58036
215 1 -1.1104 9.80613 -4.62315 12.1011
217 2 2.2208 8.04973 -0.399022 7.88643
218 1 -1.1104 9.46172 -4.48432 9.22515
220 2 2.2208 8.03736 -3.10389 10.4308
222 1 -1.1104 9.61623 -1.5719 12.2057
223 1 -1.1104 9.47132 -1.81327 9.20124
8953 2 2.2208 -0.353325 13.6534 13.2377
26 2 2.2208 -0.29452 5.3015 10.9584
30 1 -1.1104 12.1042 18.0271 11.9528
233 1 -1.1104 3.76628 3.70985 6.68829
172 1 -1.1104 1.16015 1.10821 12.2328
176 1 -1.1104 1.18289 0.98938 9.28529
182 2 2.2208 5.19773 2.44912 7.94167
186 1 -1.1104 3.7529 1.27957 12.1709
189 1 -1.1104 3.85902 0.918249 9.33944
191 2 2.2208 2.41676 2.44836 10.7091
234 2 2.2208 5.41287 5.23942 10.6402
238 1 -1.1104 1.00431 6.54569 9.53246
240 1 -1.1104 1.15543 3.88096 12.3353
245 1 -1.1104 1.05885 3.67771 9.32041
249 1 -1.1104 3.918 6.4865 12.1332
250 2 2.2208 2.49068 5.29852 8.01454
252 1 -1.1104 3.97866 6.5469 8.98292
254 1 -1.1104 3.96572 3.79531 12.1345
256 1 -1.1104 3.88039 3.76018 9.43303
236 1 -1.1104 1.3119 6.89297 12.0806
242 1 -1.1104 6.66473 3.83985 12.0164
311 2 2.2208 -0.277857 8.00145 13.4402
200 1 -1.1104 12.0013 1.3262 6.25694
231 1 -1.1104 6.53927 0.924812 6.79399
229 1 -1.1104 6.86469 6.66517 6.80019
237 1 -1.1104 6.65304 6.78276 12.1832
260 1 -1.1104 12.4248 4.014 6.46302
178 1 -1.1104 6.67026 1.14443 9.5444
247 1 -1.1104 6.83119 3.64738 8.91984
239 1 -1.1104 7.14373 6.4246 9.61045
174 1 -1.1104 6.48033 0.929217 12.2501
263 1 -1.1104 9.58624 3.7801 6.85853
208 1 -1.1104 12.4616 0.89468 12.1928
210 1 -1.1104 12.1851 1.13071 9.39088
213 2 2.2208 11.082 2.46458 7.92044
216 1 -1.1104 9.28204 0.9777 11.778
219 1 -1.1104 9.62879 1.07217 8.68011
221 2 2.2208 8.26529 2.4618 10.3293
262 1 -1.1104 9.64838 3.98302 9.51532
265 1 -1.1104 9.64677 3.89499 12.0327
267 1 -1.1104 9.89476 6.81384 9.16514
269 2 2.2208 8.36534 5.25732 7.91267
270 2 2.2208 11.0288 5.4146 10.8806
273 1 -1.1104 12.6684 6.52417 9.37117
274 1 -1.1104 12.4431 3.77347 12.2643
277 1 -1.1104 12.668 3.9623 9.21423
279 1 -1.1104 9.6463 6.78339 11.8595
272 1 -1.1104 12.5611 6.67812 12.0076
73 1 -1.1104 3.84637 9.4238 6.33591
59 1 -1.1104 1.14431 9.4453 6.16352
102 1 -1.1104 0.845986 12.2051 6.36597
235 2 2.2208 5.29097 10.8488 10.625
241 1 -1.1104 1.08179 9.24148 12.0833
244 2 2.2208 5.41712 8.26099 7.84205
246 1 -1.1104 1.27756 9.50076 9.02826
251 2 2.2208 2.58326 10.7756 7.75363
253 2 2.2208 2.73622 7.97586 10.644
255 1 -1.1104 3.84946 9.26937 12.0041
257 1 -1.1104 4.08759 9.44397 9.29437
281 1 -1.1104 3.84697 12.2989 11.8183
288 1 -1.1104 1.02956 11.8602 9.00278
293 1 -1.1104 1.11043 12.2428 11.9899
299 1 -1.1104 3.92979 12.2546 8.99815
598 2 2.2208 7.99605 2.42977 -0.356782
539 2 2.2208 10.883 13.5619 13.4593
308 1 -1.1104 9.60301 15.0861 9.11188
318 2 2.2208 10.9908 2.42792 13.491
75 2 2.2208 -0.453791 5.13362 4.94544
243 1 -1.1104 6.80711 9.70308 11.948
291 1 -1.1104 6.61312 12.335 11.9339
284 1 -1.1104 6.47014 12.4515 9.35298
248 1 -1.1104 6.90732 9.54559 9.03159
258 1 -1.1104 9.69118 9.42969 9.14465
264 1 -1.1104 9.61266 9.35702 12.2395
266 2 2.2208 8.21585 8.24133 10.7377
268 2 2.2208 8.35526 10.8154 7.76876
271 2 2.2208 10.9692 10.9384 10.5024
275 1 -1.1104 12.2687 9.66076 11.8648
276 2 2.2208 11.1689 8.06717 7.98517
278 1 -1.1104 12.6379 9.19381 9.17411
305 1 -1.1104 9.6991 12.2983 9.11451
29 1 -1.1104 12.2623 12.1885 12.1206
76 1 -1.1104 12.3679 12.4432 9.23877
194 1 -1.1104 9.29454 12.1583 11.984
8255 2 2.2208 2.49001 -6.04373 1.96891
8262 2 2.2208 10.9262 -5.99747 10.6761
127 1 -1.1104 3.7403 15.2282 6.37592
111 1 -1.1104 1.09486 15.1309 6.34118
324 2 2.2208 8.21037 5.21759 13.4806
8788 2 2.2208 -0.188396 19.1033 7.84261
280 1 -1.1104 3.93786 18.049 12.2153
285 1 -1.1104 0.982776 17.594 9.17025
286 1 -1.1104 1.31838 14.9354 9.0685
287 2 2.2208 5.26025 19.5086 7.85441
289 2 2.2208 5.25679 13.7627 7.93302
292 1 -1.1104 1.00909 17.9842 12.0079
294 2 2.2208 5.41146 16.5709 10.8386
295 1 -1.1104 3.71932 18.2812 9.16631
297 2 2.2208 2.38367 16.5756 7.72169
298 1 -1.1104 3.77344 15.465 9.21371
301 1 -1.1104 0.96676 15.1915 11.8199
302 1 -1.1104 3.72792 15.1517 11.9734
303 2 2.2208 2.39786 19.348 10.6855
304 2 2.2208 2.44232 13.8189 10.4893
290 1 -1.1104 6.69959 17.923 12.127
8928 2 2.2208 -0.373047 8.09043 2.22616
282 1 -1.1104 6.66253 17.8514 9.34819
196 2 2.2208 8.22543 16.7898 7.7434
309 1 -1.1104 9.45632 15.1961 11.9769
150 1 -1.1104 9.67658 18.308 6.52802
8254 2 2.2208 5.13265 -5.98339 5.0394
129 1 -1.1104 12.1818 15.2839 12.0862
322 2 2.2208 8.19528 10.8931 13.3977
227 2 2.2208 8.14902 19.2716 10.763
28 2 2.2208 10.7862 16.5318 10.7324
300 1 -1.1104 6.73237 15.029 12.13
283 1 -1.1104 6.64394 15.2049 9.16744
77 1 -1.1104 11.9814 18.005 9.22387
130 2 2.2208 10.9884 13.6713 7.58319
143 1 -1.1104 12.48 15.1214 6.23452
307 2 2.2208 8.19007 13.7736 10.5198
306 1 -1.1104 9.11021 17.8163 9.51523
195 1 -1.1104 9.63953 17.8374 12.2102
8638 2 2.2208 -0.317138 13.6463 7.68886
321 2 2.2208 2.34981 10.8338 13.4218
17276 2 2.2208 -0.368423 -6.07802 5.25161
8258 2 2.2208 2.54833 -5.80227 7.96264
8261 2 2.2208 8.13972 -6.0038 7.74874
312 2 2.2208 5.2544 -2.91754 13.3773
329 2 2.2208 8.1245 16.314 13.4603
315 2 2.2208 8.38822 19.5168 -0.500861
596 2 2.2208 10.6522 -0.486279 -0.383559
8985 2 2.2208 -0.242094 -0.412249 -0.451818
341 2 2.2208 5.3205 -0.169928 16.4019
342 1 -1.1104 1.14974 -4.55763 17.8847
346 1 -1.1104 1.32327 -4.33682 14.6859
354 1 -1.1104 1.12449 -1.71552 17.8629
356 2 2.2208 5.38262 -3.06441 19.0937
358 1 -1.1104 1.34533 -1.67014 14.995
362 1 -1.1104 3.8097 -4.59148 17.7263
364 2 2.2208 2.46106 -0.490629 19.2659
365 1 -1.1104 3.86877 -4.57243 14.8804
369 2 2.2208 2.62656 -3.05439 16.279
371 1 -1.1104 4.20132 -1.80247 17.6944
372 1 -1.1104 4.06036 -1.73511 14.8076
347 1 -1.1104 1.27688 -4.67155 20.5415
344 1 -1.1104 6.66811 -4.45513 17.7566
382 2 2.2208 -0.267046 19.3864 24.9773
9056 2 2.2208 -0.230659 -0.278651 16.3646
359 1 -1.1104 1.20438 -2.09457 20.6441
373 1 -1.1104 4.2094 -1.60402 20.7802
366 1 -1.1104 4.1892 -4.329 20.7346
361 1 -1.1104 6.95905 -1.67245 20.3546
355 1 -1.1104 6.53493 -1.6916 17.7104
350 1 -1.1104 6.68515 -4.31621 14.7687
360 1 -1.1104 6.72332 -1.60675 14.9994
384 2 2.2208 11.0587 -0.318665 16.3533
385 1 -1.1104 12.5855 -4.5836 17.6954
387 1 -1.1104 12.2143 -4.65711 14.8073
391 1 -1.1104 12.5394 -1.72683 17.7115
392 2 2.2208 11.2102 -3.31203 19.2836
394 1 -1.1104 12.1728 -1.84814 15.0069
396 1 -1.1104 9.54765 -4.47238 17.8962
398 2 2.2208 8.23391 -0.32734 19.061
399 1 -1.1104 9.40456 -4.53587 15.1981
403 2 2.2208 8.09305 -2.93151 16.3342
405 1 -1.1104 9.46492 -1.66005 17.8116
406 1 -1.1104 9.52064 -1.52457 15.128
351 1 -1.1104 6.80755 -4.48758 20.6398
409 2 2.2208 11.1134 -5.97677 16.3991
388 1 -1.1104 12.6112 -4.59812 20.7334
395 1 -1.1104 12.6832 -1.74364 20.3058
400 1 -1.1104 9.74744 -4.73993 20.6819
381 2 2.2208 2.65544 13.7016 27.4752
9278 2 2.2208 -0.39689 5.18773 21.9438
17325 2 2.2208 -0.306386 -5.87411 16.4031
343 1 -1.1104 1.14694 1.0501 17.9899
348 1 -1.1104 1.27785 1.00683 15.141
357 2 2.2208 5.3034 2.56962 19.1966
363 1 -1.1104 4.28371 1.16225 17.8786
367 1 -1.1104 3.82496 1.09766 14.905
370 2 2.2208 2.6714 2.40898 16.389
417 2 2.2208 5.3906 5.13629 16.2817
419 1 -1.1104 0.91075 6.77759 17.9681
425 1 -1.1104 1.10069 3.80648 17.7214
430 1 -1.1104 1.27041 3.94593 15.0469
439 2 2.2208 2.37396 5.18035 19.2457
441 1 -1.1104 3.879 6.71501 14.9585
444 1 -1.1104 4.00598 4.02559 17.6951
446 1 -1.1104 4.02065 3.71693 14.9739
438 1 -1.1104 3.97986 6.63511 17.6115
421 1 -1.1104 1.16432 6.65156 14.8966
431 1 -1.1104 1.11921 3.71911 20.7232
422 1 -1.1104 0.967867 6.56958 20.5716
383 2 2.2208 2.52702 19.4549 27.7327
349 1 -1.1104 0.706269 0.802336 20.882
368 1 -1.1104 3.65576 1.48199 20.4386
8989 2 2.2208 -0.230652 16.2928 27.5202
634 2 2.2208 8.23192 16.6754 24.7059
427 1 -1.1104 6.81371 3.90268 17.5603
345 1 -1.1104 6.88463 1.10988 17.8122
423 1 -1.1104 6.6743 6.64954 14.9154
420 1 -1.1104 6.78481 7.09677 17.6727
352 1 -1.1104 6.64311 1.23076 14.9184
434 1 -1.1104 6.68227 3.87381 14.5678
386 1 -1.1104 12.1199 1.38886 17.5916
389 1 -1.1104 12.5886 1.261 14.8029
393 2 2.2208 10.8753 2.47672 19.0877
397 1 -1.1104 9.63605 0.982639 17.7144
401 1 -1.1104 9.49871 1.19315 14.8296
404 2 2.2208 8.09936 2.52377 16.3137
453 2 2.2208 11.0208 5.28363 16.341
456 1 -1.1104 12.4019 6.68244 14.589
458 1 -1.1104 12.3072 4.19628 17.7759
461 1 -1.1104 12.3587 3.97702 15.0763
465 1 -1.1104 9.67737 6.73183 17.6392
466 2 2.2208 8.19581 5.39675 19.1883
471 1 -1.1104 9.39791 3.97722 17.7992
473 1 -1.1104 9.55453 3.95117 14.8642
455 1 -1.1104 12.3211 6.93702 17.7453
468 1 -1.1104 9.51655 6.82403 14.9757
424 1 -1.1104 6.86654 6.75035 20.6061
9174 2 2.2208 -0.381378 10.7749 22.0019
402 1 -1.1104 9.42183 0.995748 20.7024
390 1 -1.1104 12.3972 0.971621 20.3472
353 1 -1.1104 6.44869 1.19051 20.6015
474 1 -1.1104 9.69117 3.97366 20.6701
8269 2 2.2208 5.43411 -5.95414 27.714
576 2 2.2208 11.1726 13.7953 24.745
418 2 2.2208 5.30671 11.0536 16.1067
426 1 -1.1104 1.07935 9.52841 17.3804
429 2 2.2208 5.11834 8.07238 18.9371
432 1 -1.1104 0.987561 9.68602 14.7626
440 2 2.2208 2.45685 10.806 19.0627
443 2 2.2208 2.37998 8.06423 16.2543
445 1 -1.1104 3.96307 9.56612 17.7624
448 1 -1.1104 3.67986 9.73069 14.7746
481 1 -1.1104 1.2199 12.2941 17.8438
485 1 -1.1104 0.857913 12.2675 14.7781
500 1 -1.1104 3.90706 12.4865 17.6479
503 1 -1.1104 3.84162 12.3015 14.7912
436 1 -1.1104 6.62886 9.62382 14.7549
9065 2 2.2208 -0.347452 11.0066 16.1758
8984 2 2.2208 -0.182573 -3.36458 24.9016
504 1 -1.1104 3.95296 12.3239 20.5861
486 1 -1.1104 1.00796 12.2442 20.553
449 1 -1.1104 3.69812 9.45428 20.3626
490 1 -1.1104 7.10794 12.7048 20.6822
9099 2 2.2208 -0.269842 8.15402 19.0578
428 1 -1.1104 6.77735 9.63195 17.7226
489 1 -1.1104 6.74305 12.2361 14.6471
483 1 -1.1104 6.5893 12.3892 17.6133
454 2 2.2208 10.8921 10.9516 16.3832
459 1 -1.1104 12.3268 9.66028 17.6915
460 2 2.2208 10.8529 8.0959 19.0596
463 1 -1.1104 12.4043 9.46939 14.8194
467 2 2.2208 8.05301 10.9684 19.2117
470 2 2.2208 8.1667 8.09066 16.3599
472 1 -1.1104 9.42541 9.50329 17.9248
475 1 -1.1104 9.39503 9.44376 15.0935
516 1 -1.1104 12.2937 12.3644 18.1343
518 1 -1.1104 12.2286 12.2953 15.1222
527 1 -1.1104 9.65223 12.2202 17.8597
530 1 -1.1104 9.47536 12.1937 15.0015
476 1 -1.1104 9.19987 9.77509 20.7188
464 1 -1.1104 12.3829 9.41773 20.3989
412 2 2.2208 11.0528 16.5873 22.1056
380 2 2.2208 8.32026 19.3116 21.9097
8417 2 2.2208 2.40152 -6.01127 19.2024
494 2 2.2208 5.5018 13.8033 19.0113
480 2 2.2208 5.16711 16.411 16.1222
482 1 -1.1104 1.06157 17.911 17.9134
487 1 -1.1104 0.937375 18.205 15.0436
492 1 -1.1104 1.12575 15.0093 17.8731
495 2 2.2208 5.20032 19.4106 19.3009
496 1 -1.1104 1.0055 15.3471 14.7593
501 1 -1.1104 4.19362 18.1165 17.7176
502 2 2.2208 2.4688 16.5297 19.1564
505 1 -1.1104 3.79462 18.1351 14.9634
507 2 2.2208 2.38221 13.7746 16.2069
508 2 2.2208 2.3402 19.4556 16.2781
509 1 -1.1104 3.57319 15.2517 17.3119
510 1 -1.1104 3.7024 15.1081 14.7354
511 1 -1.1104 4.14874 15.4086 20.0139
488 1 -1.1104 0.853191 17.803 20.6386
498 1 -1.1104 6.53044 17.472 14.5933
484 1 -1.1104 6.95027 15.6409 17.1854
493 1 -1.1104 6.61932 14.7578 14.7417
491 1 -1.1104 6.76513 17.8756 20.4284
602 1 -1.1104 9.78963 15.5255 25.7899
506 1 -1.1104 3.88814 18.0104 20.679
601 2 2.2208 11.1921 -6.02687 22.3248
523 2 2.2208 10.9773 13.8029 19.2391
515 2 2.2208 10.7799 16.6233 16.4586
520 1 -1.1104 12.383 17.9006 15.0825
522 1 -1.1104 12.448 15.1701 17.7975
524 2 2.2208 10.9944 19.4727 18.9936
525 1 -1.1104 12.5312 14.8104 15.0284
528 1 -1.1104 9.40823 17.6598 17.9713
529 2 2.2208 8.27257 16.299 19.4069
532 1 -1.1104 9.84008 18.1564 15.1565
534 2 2.2208 8.20782 13.6523 16.2165
535 1 -1.1104 9.55501 14.9195 17.9014
536 1 -1.1104 9.58808 14.8881 14.8336
517 1 -1.1104 12.3932 17.8111 17.6433
521 1 -1.1104 12.5471 18.0623 20.6399
533 1 -1.1104 9.63555 17.6944 20.7687
537 1 -1.1104 9.51586 14.9922 20.9001
526 1 -1.1104 12.1486 15.397 20.5171
637 1 -1.1104 9.37677 18.0832 26.2329
577 2 2.2208 10.9347 19.4696 24.7593
575 1 -1.1104 12.7208 15.1832 23.4581
605 1 -1.1104 9.79579 18.2346 23.2234
8456 2 2.2208 5.36337 -5.68623 16.2825
542 2 2.2208 5.42808 -0.364055 22.1697
543 1 -1.1104 1.02352 -4.91376 23.6114
547 1 -1.1104 1.11072 -4.63639 26.3967
551 1 -1.1104 1.18137 -1.91509 23.4854
553 2 2.2208 5.17171 -3.12144 25.0288
555 1 -1.1104 0.86812 -1.58936 26.4921
557 1 -1.1104 3.76979 -4.24597 23.847
559 2 2.2208 2.61109 -0.321481 25.0385
560 1 -1.1104 3.7424 -4.6244 26.5926
562 2 2.2208 2.65319 -3.06822 22.1559
564 1 -1.1104 3.91705 -1.68359 23.5562
565 1 -1.1104 3.68064 -1.95722 26.2007
545 1 -1.1104 6.95038 -4.46006 23.3367
552 1 -1.1104 6.64687 -1.92406 23.2023
9169 2 2.2208 -0.367044 19.3088 19.33
8295 2 2.2208 8.2807 -5.99022 24.8234
567 2 2.2208 2.51829 -3.16286 27.6738
549 1 -1.1104 6.76103 -4.64108 26.3356
556 1 -1.1104 6.58829 -1.87726 26.0821
407 1 -1.1104 9.87941 -1.74002 20.4322
578 2 2.2208 10.9621 -0.406019 22.1811
579 1 -1.1104 12.54 -4.55224 23.3054
581 1 -1.1104 12.3683 -4.48934 26.1693
583 1 -1.1104 12.2469 -1.57846 23.4257
584 2 2.2208 10.9544 -2.98519 24.8553
586 1 -1.1104 12.3794 -1.82499 26.2699
587 1 -1.1104 9.70048 -4.42634 23.5749
589 2 2.2208 8.11404 -0.465201 24.9706
590 1 -1.1104 9.61137 -4.58253 26.3294
592 2 2.2208 8.33601 -2.9517 21.7116
594 1 -1.1104 9.24124 -1.55604 23.3109
595 1 -1.1104 9.61458 -1.7288 26.135
333 2 2.2208 13.5947 2.21682 27.7055
411 2 2.2208 -0.210578 5.38594 16.3728
574 1 -1.1104 12.2171 18.3325 26.2728
442 1 -1.1104 3.96929 6.75981 20.4215
447 1 -1.1104 4.16093 4.13023 20.4266
544 1 -1.1104 0.990298 0.79442 23.6404
548 1 -1.1104 1.0234 1.20461 26.3327
554 2 2.2208 5.35201 2.33991 24.8477
558 1 -1.1104 4.11521 1.13613 23.3767
561 1 -1.1104 3.82161 1.17642 26.2052
563 2 2.2208 2.47088 2.23109 22.3181
607 2 2.2208 5.43678 5.49072 21.967
611 1 -1.1104 0.997911 6.72037 26.4408
613 1 -1.1104 1.12744 4.04693 23.4223
618 1 -1.1104 1.19939 3.96075 26.2582
622 1 -1.1104 3.89822 6.63412 23.1653
623 2 2.2208 2.47763 5.40265 24.8216
627 1 -1.1104 3.9181 3.81528 23.2637
629 1 -1.1104 4.02163 4.03766 26.1709
8376 2 2.2208 2.5037 -5.9668 25.1881
9024 2 2.2208 -0.0632131 13.7028 24.7104
625 1 -1.1104 3.89121 6.76767 26.1943
609 1 -1.1104 1.05994 6.96237 23.5806
612 1 -1.1104 6.50227 6.7578 26.1079
662 2 2.2208 11.0584 5.01942 27.6967
469 1 -1.1104 9.59448 6.76211 20.4998
435 1 -1.1104 6.72786 4.14903 20.5567
603 1 -1.1104 12.4496 15.2675 26.3589
8987 2 2.2208 -0.519078 2.2798 24.6204
462 1 -1.1104 12.3796 3.87392 20.7312
457 1 -1.1104 12.4189 6.87724 20.6864
615 1 -1.1104 6.87028 3.78956 23.5615
546 1 -1.1104 6.82129 0.953278 23.6753
610 1 -1.1104 6.82165 6.68254 23.3619
620 1 -1.1104 6.75687 3.89609 26.3442
550 1 -1.1104 6.54291 0.874041 26.4547
591 1 -1.1104 9.27891 1.01962 26.4279
580 1 -1.1104 12.3336 1.0306 23.302
582 1 -1.1104 12.0516 0.858085 26.2999
585 2 2.2208 11.0165 2.41684 24.9639
588 1 -1.1104 9.58309 1.13896 23.47
593 2 2.2208 8.11724 2.33625 22.0919
639 1 -1.1104 9.62958 3.67653 26.4767
641 1 -1.1104 9.76401 3.94371 23.5758
645 2 2.2208 7.98215 5.25503 24.8207
646 2 2.2208 10.9388 5.29699 22.1295
649 1 -1.1104 12.479 6.60758 26.1275
650 1 -1.1104 12.4787 3.77241 23.3951
653 1 -1.1104 12.2755 3.78369 26.2644
655 1 -1.1104 9.16143 7.04237 23.5335
643 1 -1.1104 9.57747 6.4996 26.3666
648 1 -1.1104 12.3375 6.83908 23.1883
9170 2 2.2208 -0.30175 13.8274 19.2597
9171 2 2.2208 -0.298916 16.7312 16.3613
631 1 -1.1104 6.67118 14.8728 26.2555
450 1 -1.1104 6.88234 15.0418 23.3571
433 1 -1.1104 1.1012 9.36742 20.4972
608 2 2.2208 5.28363 10.8506 22.0237
614 1 -1.1104 1.31293 9.54149 23.3597
617 2 2.2208 5.26677 7.99013 24.6953
619 1 -1.1104 1.13794 9.56936 26.3438
624 2 2.2208 2.6122 10.5667 24.694
626 2 2.2208 2.27384 8.09054 21.7917
628 1 -1.1104 3.88246 9.46932 23.1533
630 1 -1.1104 3.99954 9.49987 26.0902
451 1 -1.1104 4.19667 12.215 26.1343
512 1 -1.1104 1.01578 12.1358 23.4192
573 1 -1.1104 1.14164 12.3832 26.3411
656 1 -1.1104 3.78492 12.238 23.2401
621 1 -1.1104 6.7747 9.54933 26.0771
660 1 -1.1104 6.96868 12.109 26.1594
338 2 2.2208 7.82593 13.7566 27.6108
531 1 -1.1104 9.69907 12.4057 20.6222
499 1 -1.1104 6.72029 15.0566 20.1816
519 1 -1.1104 12.4716 12.2052 20.9184
616 1 -1.1104 6.74267 9.38018 23.3453
514 1 -1.1104 6.88692 12.1606 23.283
437 1 -1.1104 6.59881 9.67774 20.5396
638 1 -1.1104 9.59472 9.59601 26.2208
640 1 -1.1104 9.83923 9.74689 23.3863
642 2 2.2208 8.0833 8.21151 22.0374
644 2 2.2208 8.42253 10.903 24.6839
647 2 2.2208 11.0208 10.8448 21.7862
651 1 -1.1104 12.5179 9.58589 23.2546
652 2 2.2208 10.9008 8.02351 24.7776
654 1 -1.1104 12.4299 9.52442 26.1283
636 1 -1.1104 9.55724 12.6148 26.0583
413 1 -1.1104 12.5 12.4548 23.607
570 1 -1.1104 12.5884 12.521 26.2056
604 1 -1.1104 9.89435 12.3527 23.2403
541 1 -1.1104 12.5452 17.8247 23.5521
9027 2 2.2208 -0.320227 2.37838 19.3115
9175 2 2.2208 -0.284106 8.08437 25.1101
497 1 -1.1104 1.12625 15.0052 20.7005
633 2 2.2208 5.36149 10.7099 27.7169
8986 2 2.2208 -0.409501 -0.639911 22.0689
663 2 2.2208 13.5765 7.87743 27.5772
657 2 2.2208 8.31839 7.86875 27.5737
408 2 2.2208 2.61067 13.5271 21.8595
378 1 -1.1104 4.02848 17.8697 23.4396
414 2 2.2208 2.42934 19.2306 22.05
415 1 -1.1104 4.17158 14.9384 23.1825
416 1 -1.1104 1.11026 15.3761 23.4103
452 1 -1.1104 4.16029 15.1333 26.0295
477 2 2.2208 2.68178 16.6013 24.7984
478 1 -1.1104 4.063 18.0279 26.2379
479 2 2.2208 5.54335 16.5787 21.6715
513 1 -1.1104 1.19113 18.009 23.6368
538 2 2.2208 5.48671 13.5671 24.7282
540 2 2.2208 5.40103 19.5043 24.8291
599 1 -1.1104 1.39422 14.9213 25.9146
606 1 -1.1104 1.09981 17.7652 26.4229
8982 2 2.2208 -0.318208 16.5537 22.1528
661 2 2.2208 8.39124 13.6456 22.2071
572 1 -1.1104 6.85387 17.9708 23.2095
635 1 -1.1104 6.76097 17.8506 26.2276
379 1 -1.1104 9.58278 15.2462 23.4108
9063 2 2.2208 13.529 -3.40769 27.5749
597 2 2.2208 8.18844 -3.32155 27.7498
340 2 2.2208 5.29157 16.5706 27.5515
334 2 2.2208 5.33406 5.19556 27.5918
9026 2 2.2208 -0.440971 5.33428 27.746
632 2 2.2208 2.50532 8.07918 27.7316
9176 2 2.2208 -0.193807 11.08 27.7341
9030 2 2.2208 -0.289241 -3.26999 19.1654
658 2 2.2208 10.8827 11.023 27.5842
323 2 2.2208 10.8783 8.17719 13.8113
319 2 2.2208 2.59146 5.1407 13.6419
8377 2 2.2208 5.38411 -5.83568 22.1023
310 2 2.2208 10.9341 16.327 27.5053
568 2 2.2208 2.41642 2.56343 27.5505
317 2 2.2208 10.8975 -3.03505 13.6621
8378 2 2.2208 -0.277437 -6.11127 27.7144
8272 2 2.2208 2.59127 -5.97752 13.7333
9191 2 2.2208 13.6256 2.387 21.9222
374 2 2.2208 -0.430574 19.3472 13.715
326 2 2.2208 5.38571 19.3823 13.7694
316 2 2.2208 7.83914 -0.0546118 13.7069
566 2 2.2208 5.43531 -0.548066 27.6918
664 2 2.2208 5.37778 22.3107 5.03343
666 1 -1.1104 1.21372 23.9724 0.925008
667 1 -1.1104 1.12353 23.5639 3.622
668 1 -1.1104 1.3068 20.9473 0.850454
670 2 2.2208 5.31909 25.2954 2.19442
671 1 -1.1104 1.04694 20.7608 3.61206
673 1 -1.1104 4.02747 24.1743 0.61383
674 2 2.2208 2.48372 22.2857 2.36026
676 1 -1.1104 3.98495 23.7776 3.5951
677 2 2.2208 2.63459 25.1215 4.99273
678 1 -1.1104 4.10974 20.7834 0.73794
680 1 -1.1104 3.74616 20.8822 3.63769
9643 2 2.2208 13.5369 45.0209 13.6167
672 1 -1.1104 0.910101 26.3652 3.70529
809 1 -1.1104 3.94464 20.8532 6.43185
669 1 -1.1104 1.62717 26.8289 0.492889
804 1 -1.1104 1.11645 20.5736 6.45964
1033 2 2.2208 10.9129 25.0966 13.2037
686 1 -1.1104 6.73984 23.7558 3.58462
685 1 -1.1104 6.59527 23.8032 0.844035
689 1 -1.1104 6.43487 21.0529 3.607
687 1 -1.1104 6.7358 20.7231 0.613606
691 2 2.2208 10.9654 22.2478 4.77348
693 1 -1.1104 12.4913 23.4556 0.582128
694 1 -1.1104 12.5742 23.7422 3.70212
697 2 2.2208 10.9817 24.9922 2.20013
698 1 -1.1104 12.6099 20.6711 3.14217
700 1 -1.1104 9.48329 23.7351 0.817499
701 2 2.2208 8.03988 22.4397 2.17484
703 1 -1.1104 9.64882 23.6059 3.66023
704 2 2.2208 8.09586 25.0541 5.12867
705 1 -1.1104 9.77948 20.8466 0.962236
707 1 -1.1104 9.41046 21.041 3.4854
699 1 -1.1104 12.3247 26.5523 3.15678
696 1 -1.1104 12.6076 26.6141 0.258441
836 1 -1.1104 12.3955 20.727 6.04214
708 1 -1.1104 9.48914 26.3583 3.77517
806 1 -1.1104 6.71374 20.6945 6.46949
706 1 -1.1104 9.83165 26.4559 0.690157
9614 2 2.2208 -0.333194 27.8966 4.89438
695 1 -1.1104 12.5526 20.8793 0.306301
838 1 -1.1104 9.59373 23.6236 6.33188
839 1 -1.1104 9.79423 21.0504 6.37962
840 1 -1.1104 9.65574 26.6117 6.59423
9495 2 2.2208 -0.123034 24.8774 7.84085
681 1 -1.1104 3.69225 26.5742 3.79618
1034 2 2.2208 8.02202 27.9808 13.6245
9623 2 2.2208 -0.305184 36.4114 2.16182
679 1 -1.1104 4.16155 26.9817 0.857761
665 2 2.2208 5.13425 28.135 5.06363
675 2 2.2208 2.54175 28.1154 2.14116
715 1 -1.1104 1.13329 29.803 0.509767
718 1 -1.1104 1.10776 29.3678 3.55505
721 1 -1.1104 0.81256 32.4054 0.86629
722 2 2.2208 5.38925 30.9498 2.09327
724 1 -1.1104 0.911489 32.0621 3.7367
726 1 -1.1104 4.0466 29.6325 0.76564
729 1 -1.1104 4.05573 29.4174 3.35305
731 2 2.2208 2.48976 30.7575 5.22668
733 1 -1.1104 3.81983 32.2813 0.904352
734 1 -1.1104 3.92795 32.2051 3.81318
737 1 -1.1104 6.89658 29.4731 3.51914
9621 2 2.2208 -0.340857 33.479 5.04753
956 1 -1.1104 6.6226 40.6123 8.98913
1009 2 2.2208 2.57371 27.5173 13.4349
688 1 -1.1104 6.9361 26.4824 0.835656
690 1 -1.1104 6.81343 26.7249 3.86772
725 1 -1.1104 6.73998 32.3872 3.81421
736 1 -1.1104 6.87406 29.6047 0.997097
738 1 -1.1104 6.50679 32.3333 0.755496
692 2 2.2208 10.8778 28.0665 5.10354
702 2 2.2208 8.29762 27.9589 2.16161
740 1 -1.1104 12.4931 29.3937 0.634358
742 1 -1.1104 12.4847 29.3408 3.7516
744 1 -1.1104 12.4804 32.0894 0.855752
745 2 2.2208 10.844 30.9586 2.17909
747 1 -1.1104 12.3714 32.0452 3.79177
748 1 -1.1104 9.51577 29.4244 1.00456
751 1 -1.1104 9.85191 29.5628 3.68166
753 2 2.2208 8.18342 30.7848 5.1298
755 1 -1.1104 9.45513 32.263 0.807015
756 1 -1.1104 9.59099 32.2186 3.52816
837 1 -1.1104 12.1714 26.5452 6.35608
896 1 -1.1104 9.49221 29.3811 6.5391
861 1 -1.1104 6.7425 29.0839 6.56587
801 2 2.2208 13.5944 39.2815 2.47298
9792 2 2.2208 -0.397975 36.3708 13.4914
9496 2 2.2208 -0.432137 22.1555 10.7389
976 2 2.2208 5.28791 39.0636 -0.420444
714 2 2.2208 5.37216 33.7264 5.12796
716 1 -1.1104 0.823478 35.1785 0.610537
719 1 -1.1104 1.17914 35.0559 3.48826
723 2 2.2208 5.18882 36.4729 2.38791
727 1 -1.1104 3.64724 34.9448 1.05393
728 2 2.2208 2.47504 33.4796 2.38862
730 1 -1.1104 3.84635 34.9701 3.87861
732 2 2.2208 2.42641 36.3791 5.18295