LAMMPS (29 Oct 2020)
OMP_NUM_THREADS environment is not set. Defaulting to 1 thread. (../comm.cpp:94)
  using 1 OpenMP thread(s) per MPI task
OMP_NUM_THREADS environment is not set. Defaulting to 1 thread. (../comm.cpp:94)
  using 1 OpenMP thread(s) per MPI task
Reading data file ...
  orthogonal box = (-0.44328108 -5.3938515 -0.43819186) to (27.783281 333.47385 27.778192)
  2 by 13 by 2 MPI processor grid
  reading atoms ...
  17640 atoms
  reading velocities ...
  17640 velocities
Finding 1-2 1-3 1-4 neighbors ...
  special bond factors lj:    0.0      0.0      0.0     
  special bond factors coul:  0.0      0.0      0.0     
     0 = max # of 1-2 neighbors
     0 = max # of 1-3 neighbors
     0 = max # of 1-4 neighbors
     1 = max # of special neighbors
  special bonds CPU = 0.004 seconds
  read_data CPU = 0.052 seconds
Setting atom values ...
  11760 settings made for charge
Setting atom values ...
  5880 settings made for charge
PPPM initialization ...
  using 12-bit tables for long-range coulomb (../kspace.cpp:328)
  G vector (1/distance) = 0.29847839
  grid = 40 240 40
  stencil order = 5
  estimated absolute RMS force accuracy = 0.00015895485
  estimated relative force accuracy = 1.1038803e-05
  using single precision MKL FFT
  3d grid and FFT values/proc = 15000 7600
Neighbor list info ...
  update every 1 steps, delay 0 steps, check yes
  max neighbors/atom: 2000, page size: 100000
  master list distance cutoff = 11.3
  ghost atom cutoff = 11.3
  binsize = 5.65, bins = 5 60 5
  2 neighbor lists, perpetual/occasional/extra = 2 0 0
  (1) pair coul/long, perpetual
      attributes: half, newton on
      pair build: half/bin/newton
      stencil: half/bin/3d/newton
      bin: standard
  (2) pair eam/alloy, perpetual, copy from (1)
      attributes: half, newton on
      pair build: copy
      stencil: none
      bin: none
Setting up Verlet run ...
  Unit style    : metal
  Current step  : 0
  Time step     : 0.001
Per MPI rank memory allocation (min/avg/max) = 8.143 | 8.166 | 8.183 Mbytes
Step Temp E_pair E_mol TotEng Press 
       0         1200   -228732.79            0   -225996.77    455.64034 
   50000    1192.3086      -228726            0   -226007.51    674.33062 
Loop time of 326.392 on 52 procs for 50000 steps with 17640 atoms

Performance: 13.236 ns/day, 1.813 hours/ns, 153.190 timesteps/s
99.8% CPU use with 52 MPI tasks x 1 OpenMP threads

MPI task timing breakdown:
Section |  min time  |  avg time  |  max time  |%varavg| %total
---------------------------------------------------------------
Pair    | 214.83     | 220.87     | 229.45     |  23.4 | 67.67
Bond    | 0.0036679  | 0.0049786  | 0.0067031  |   1.1 |  0.00
Kspace  | 62.633     | 72.471     | 79.305     |  46.4 | 22.20
Neigh   | 21.145     | 22.908     | 24.899     |  18.1 |  7.02
Comm    | 7.359      | 7.838      | 8.898      |  13.9 |  2.40
Output  | 5.6057e-05 | 6.1344e-05 | 0.00028102 |   0.0 |  0.00
Modify  | 0.93741    | 1.6342     | 2.5331     |  42.2 |  0.50
Other   |            | 0.664      |            |       |  0.20

Nlocal:        339.231 ave         365 max         320 min
Histogram: 4 3 8 11 8 7 5 2 3 1
Nghost:        3954.21 ave        4095 max        3837 min
Histogram: 2 4 4 11 10 11 5 1 1 3
Neighs:        67117.7 ave       73245 max       61886 min
Histogram: 3 3 4 10 12 6 6 6 1 1

Total # of neighbors = 3490118
Ave neighs/atom = 197.85249
Ave special neighs/atom = 0.0000000
Neighbor list builds = 10978
Dangerous builds = 0
11760 atoms in group oxygen
PPPM initialization ...
  using 12-bit tables for long-range coulomb (../kspace.cpp:328)
  G vector (1/distance) = 0.29847839
  grid = 40 240 40
  stencil order = 5
  estimated absolute RMS force accuracy = 0.00015895485
  estimated relative force accuracy = 1.1038803e-05
  using single precision MKL FFT
  3d grid and FFT values/proc = 15000 7600
Setting up Verlet run ...
  Unit style    : metal
  Current step  : 0
  Time step     : 0.001
Per MPI rank memory allocation (min/avg/max) = 8.394 | 8.417 | 8.434 Mbytes
Step f_2 Temp v_Tdiff v_deltaT 
       0            0    1192.3086            0            0 
  100000    1293.1041    1201.6852  0.051389957    596.63262 
  200000    2498.1077    1198.6929  0.063127111     732.8999 
  300000    3677.2551    1202.5176  0.063372467    735.74845 
  400000    4879.0373    1204.2581  0.062680053     727.7096 
  500000    6067.0436     1195.027  0.065760857    763.47744 
  600000    7253.5312    1202.7011   0.06636513      770.493 
  700000    8443.9922    1202.3563   0.06332187    735.16103 
  800000    9630.3971    1206.1295  0.063589235    738.26511 
  900000    10818.126    1210.4994  0.064526975    749.15218 
 1000000    12021.671     1207.694  0.062901536    730.28099 
Loop time of 6501.83 on 52 procs for 1000000 steps with 17640 atoms

Performance: 13.289 ns/day, 1.806 hours/ns, 153.803 timesteps/s
99.8% CPU use with 52 MPI tasks x 1 OpenMP threads

MPI task timing breakdown:
Section |  min time  |  avg time  |  max time  |%varavg| %total
---------------------------------------------------------------
Pair    | 4261.6     | 4353.3     | 4516.4     |  90.2 | 66.95
Bond    | 0.072949   | 0.098458   | 0.13647    |   4.4 |  0.00
Kspace  | 1261.7     | 1453.5     | 1550       | 168.9 | 22.36
Neigh   | 458.44     | 496.99     | 539.05     |  77.5 |  7.64
Comm    | 146.49     | 160.03     | 191.04     |  81.6 |  2.46
Output  | 0.0010498  | 0.0011144  | 0.0023147  |   0.5 |  0.00
Modify  | 5.3234     | 5.7373     | 6.33       |  10.1 |  0.09
Other   |            | 32.16      |            |       |  0.49

Nlocal:        339.231 ave         362 max         313 min
Histogram: 1 1 5 9 7 9 9 4 5 2
Nghost:        3954.48 ave        4076 max        3811 min
Histogram: 2 1 3 4 12 7 13 5 2 3
Neighs:        67102.8 ave       71960 max       61451 min
Histogram: 2 5 2 6 7 7 8 7 4 4

Total # of neighbors = 3489348
Ave neighs/atom = 197.80884
Ave special neighs/atom = 0.0000000
Neighbor list builds = 238599
Dangerous builds = 0
Total wall time: 1:53:48
