LAMMPS (29 Oct 2020)
OMP_NUM_THREADS environment is not set. Defaulting to 1 thread. (../comm.cpp:94)
  using 1 OpenMP thread(s) per MPI task
OMP_NUM_THREADS environment is not set. Defaulting to 1 thread. (../comm.cpp:94)
  using 1 OpenMP thread(s) per MPI task
Reading data file ...
  orthogonal box = (-0.43528536 -5.2344580 -0.44055408) to (27.775285 333.31446 27.780554)
  2 by 13 by 2 MPI processor grid
  reading atoms ...
  17640 atoms
  reading velocities ...
  17640 velocities
Finding 1-2 1-3 1-4 neighbors ...
  special bond factors lj:    0.0      0.0      0.0     
  special bond factors coul:  0.0      0.0      0.0     
     0 = max # of 1-2 neighbors
     0 = max # of 1-3 neighbors
     0 = max # of 1-4 neighbors
     1 = max # of special neighbors
  special bonds CPU = 0.004 seconds
  read_data CPU = 0.062 seconds
Setting atom values ...
  11760 settings made for charge
Setting atom values ...
  5880 settings made for charge
PPPM initialization ...
  using 12-bit tables for long-range coulomb (../kspace.cpp:328)
  G vector (1/distance) = 0.29850978
  grid = 40 240 40
  stencil order = 5
  estimated absolute RMS force accuracy = 0.00015866781
  estimated relative force accuracy = 1.1018869e-05
  using single precision MKL FFT
  3d grid and FFT values/proc = 15000 7600
Neighbor list info ...
  update every 1 steps, delay 0 steps, check yes
  max neighbors/atom: 2000, page size: 100000
  master list distance cutoff = 11.3
  ghost atom cutoff = 11.3
  binsize = 5.65, bins = 5 60 5
  2 neighbor lists, perpetual/occasional/extra = 2 0 0
  (1) pair coul/long, perpetual
      attributes: half, newton on
      pair build: half/bin/newton
      stencil: half/bin/3d/newton
      bin: standard
  (2) pair eam/alloy, perpetual, copy from (1)
      attributes: half, newton on
      pair build: copy
      stencil: none
      bin: none
Setting up Verlet run ...
  Unit style    : metal
  Current step  : 0
  Time step     : 0.001
Per MPI rank memory allocation (min/avg/max) = 8.135 | 8.168 | 8.190 Mbytes
Step Temp E_pair E_mol TotEng Press 
       0         1200    -229087.4            0   -226351.38    68.142745 
   50000    1189.6748    -229049.8            0   -226337.32    679.44682 
Loop time of 328.652 on 52 procs for 50000 steps with 17640 atoms

Performance: 13.145 ns/day, 1.826 hours/ns, 152.137 timesteps/s
99.8% CPU use with 52 MPI tasks x 1 OpenMP threads

MPI task timing breakdown:
Section |  min time  |  avg time  |  max time  |%varavg| %total
---------------------------------------------------------------
Pair    | 210.65     | 223.75     | 229.51     |  27.0 | 68.08
Bond    | 0.0034338  | 0.0049967  | 0.00703    |   1.2 |  0.00
Kspace  | 64.777     | 72.01      | 89.034     |  64.7 | 21.91
Neigh   | 17.868     | 22.815     | 24.924     |  38.5 |  6.94
Comm    | 7.2709     | 7.7981     | 8.8798     |  17.9 |  2.37
Output  | 5.1157e-05 | 5.5973e-05 | 0.00025794 |   0.0 |  0.00
Modify  | 0.85052    | 1.6331     | 2.6248     |  45.9 |  0.50
Other   |            | 0.6403     |            |       |  0.19

Nlocal:        339.231 ave         366 max         289 min
Histogram: 1 2 4 1 0 7 12 13 6 6
Nghost:        3970.33 ave        4156 max        3705 min
Histogram: 4 3 4 5 1 3 8 12 5 7
Neighs:        67503.4 ave       73921 max       50265 min
Histogram: 2 2 0 2 2 0 4 19 13 8

Total # of neighbors = 3510179
Ave neighs/atom = 198.98974
Ave special neighs/atom = 0.0000000
Neighbor list builds = 10979
Dangerous builds = 0
11760 atoms in group oxygen
PPPM initialization ...
  using 12-bit tables for long-range coulomb (../kspace.cpp:328)
  G vector (1/distance) = 0.29850978
  grid = 40 240 40
  stencil order = 5
  estimated absolute RMS force accuracy = 0.00015866781
  estimated relative force accuracy = 1.1018869e-05
  using single precision MKL FFT
  3d grid and FFT values/proc = 15000 7600
Setting up Verlet run ...
  Unit style    : metal
  Current step  : 0
  Time step     : 0.001
Per MPI rank memory allocation (min/avg/max) = 8.385 | 8.419 | 8.440 Mbytes
Step f_2 Temp v_Tdiff v_deltaT 
       0            0    1189.6748            0            0 
  100000    1312.8929     1200.393  0.049529999    575.03869 
  200000    2569.1135    1198.2064  0.057713909    670.05313 
  300000    3812.5678    1187.6462   0.05874462    682.01959 
  400000    5061.1303    1208.2735  0.058572317    680.01916 
  500000    6315.1543    1200.0934   0.05978013    694.04175 
  600000     7575.475     1196.182   0.05946658    690.40148 
  700000    8832.1449    1194.5548  0.057213131    664.23914 
  800000     10097.21    1189.5893  0.058047726     673.9287 
  900000    11366.673    1201.6152  0.058981411    684.76871 
 1000000    12628.524    1206.1801  0.055995625      650.104 
Loop time of 6560.49 on 52 procs for 1000000 steps with 17640 atoms

Performance: 13.170 ns/day, 1.822 hours/ns, 152.428 timesteps/s
99.8% CPU use with 52 MPI tasks x 1 OpenMP threads

MPI task timing breakdown:
Section |  min time  |  avg time  |  max time  |%varavg| %total
---------------------------------------------------------------
Pair    | 4171.9     | 4417.9     | 4546.3     | 114.9 | 67.34
Bond    | 0.074785   | 0.099717   | 0.14273    |   5.1 |  0.00
Kspace  | 1288.9     | 1449.9     | 1791.4     | 277.6 | 22.10
Neigh   | 378.48     | 495.55     | 542.3      | 187.8 |  7.55
Comm    | 148.39     | 159.82     | 187.1      |  90.7 |  2.44
Output  | 0.001089   | 0.0011432  | 0.0023466  |   0.5 |  0.00
Modify  | 5.3121     | 5.7028     | 6.288      |  11.5 |  0.09
Other   |            | 31.56      |            |       |  0.48

Nlocal:        339.231 ave         362 max         289 min
Histogram: 3 3 2 0 0 1 11 11 14 7
Nghost:        3975.13 ave        4139 max        3707 min
Histogram: 4 6 2 2 2 4 0 11 14 7
Neighs:        67485.2 ave       72876 max       49701 min
Histogram: 4 0 0 1 2 1 0 10 18 16

Total # of neighbors = 3509232
Ave neighs/atom = 198.93605
Ave special neighs/atom = 0.0000000
Neighbor list builds = 237625
Dangerous builds = 0
Total wall time: 1:54:49
