LAMMPS data file via write_data, version 29 Oct 2020, timestep = 100000

18000 atoms
4 atom types

-0.2560712856784715 28.150071285678163 xlo xhi
-3.220306843343916 337.9483068433296 ylo yhi
-0.2416471011252828 28.13564710112549 zlo zhi
0.0 0.0 0.0 xy xz yz

Masses

1 15.9994
2 232.0381
3 15.9994
4 232.0381

Atoms # full

313 0 1 -1.1104 9.194445153491447 1.227052670249336 12.323202215746882 0 0 0
9025 0 2 2.2208 13.828716416477548 22.54926357890778 5.367496642967542 0 0 0
271 0 1 -1.1104 13.170276583444885 7.662769232769956 6.419358586411066 0 0 0
4 0 1 -1.1104 6.89186478780316 21.01512000184736 12.212472435210282 0 0 0
5 0 1 -1.1104 4.073581709741348 21.088751467782064 12.361213840397772 0 0 0
6 0 1 -1.1104 1.0424551689570063 20.925178966370975 12.119612763999262 0 0 0
330 0 1 -1.1104 6.157899267048049 6.496248074344988 12.473567817289632 0 0 0
8 0 2 2.2208 5.165497128866758 -0.79445230363257 2.596568899142262 0 0 0
9 0 1 -1.1104 12.49625775109111 18.233695406194347 12.3367898217693 0 0 0
10 0 2 2.2208 11.213215606484676 -0.7830763911357422 2.574643527343669 0 0 0
39 0 3 -1.1104 9.515327485448159 -2.09365379232076 1.2384198606272552 0 0 0
893 0 1 -1.1104 1.303876253442976 21.19194029375037 8.780011803095462 0 0 0
13 0 2 2.2208 2.4405040042902613 2.280967973233721 2.3592853315716247 0 0 0
276 0 1 -1.1104 1.2381835730829407 15.206177512395932 6.646950575488141 0 0 0
310 0 1 -1.1104 7.123374466655488 -2.1093658719257795 12.91918837675433 0 0 0
16 0 1 -1.1104 9.294063538399023 12.936880783647464 11.78761107287512 0 0 0
17 0 2 2.2208 8.079575079325897 1.6992565542004407 2.36853519328452 0 0 0
18 0 2 2.2208 5.059694183873943 5.165795599538516 2.307734006635715 0 0 0
19 0 1 -1.1104 6.585138716829835 18.153359070481265 12.36933131306307 0 0 0
20 0 2 2.2208 11.576900338003416 5.193146202145878 2.2880327912776477 0 0 0
21 0 4 2.2208 2.0689187507637037 16.07529956583459 2.56241664240448 0 0 0
360 0 2 2.2208 5.4958588424051396 22.52763639177895 13.535101564992388 0 0 0
23 0 2 2.2208 2.3424361633800013 7.980685353726993 2.2290052960205755 0 0 0
24 0 4 2.2208 8.274654515725683 4.885311214708643 2.5056428711356533 0 0 0
9229 0 1 -1.1104 0.638704054706346 14.921327558350892 9.408010323737772 1 0 0
639 0 1 -1.1104 0.786790738491751 12.10447101774671 0.6500516342617124 0 0 1
27 0 2 2.2208 8.405946760340651 8.157092694082518 2.356892540516536 0 0 0
28 0 2 2.2208 5.293378033454629 10.50224428206082 2.644181159577991 0 0 0
29 0 1 -1.1104 6.767776400841883 15.341588583949523 12.11183223052785 0 0 0
30 0 2 2.2208 11.158071618320415 10.822290081448584 2.4786139220536443 0 0 0
31 0 3 -1.1104 6.812647529777888 15.463503431736282 9.231220643252568 0 0 0
32 0 1 -1.1104 3.796349280675064 18.04445489740969 12.479790234755635 0 0 0
33 0 2 2.2208 2.328114550118078 12.929205204539496 2.0763294766233518 0 0 0
34 0 3 -1.1104 3.8875798351206665 3.925375360637926 9.591837592934848 0 0 0
354 0 2 2.2208 7.6568518280216225 13.904711927295054 13.474658626172285 0 0 0
359 0 2 2.2208 8.179853168023971 19.560783593228418 13.75100019522376 0 0 0
37 0 2 2.2208 8.162104634267596 13.8581253478573 2.3891344731641366 0 0 0
38 0 2 2.2208 5.561523595671564 16.881217512724927 2.1726907566841014 0 0 0
57 0 2 2.2208 10.950102255680136 16.950804357016565 13.635064612271718 0 0 0
40 0 2 2.2208 11.394027758589644 16.796298549659763 2.473057140833232 0 0 0
41 0 1 -1.1104 0.9878895296869874 17.787619247914837 11.967799159090651 0 0 0
352 0 2 2.2208 2.2781128175174694 13.689251954424652 13.898257569593357 0 0 0
43 0 2 2.2208 2.789505396721349 19.770778902798078 2.348398698527673 0 0 0
44 0 1 -1.1104 3.777578228841161 15.261151866393366 12.342940057262526 0 0 0
343 0 4 2.2208 10.665692439526147 13.631377947265655 13.81718641332169 0 0 0
46 0 1 -1.1104 1.061578285078984 15.159015600350578 12.38595663333023 0 0 0
47 0 2 2.2208 8.328516942255531 19.727149789256718 2.502778898244181 0 0 0
48 0 2 2.2208 5.366620536005091 22.511848765795623 2.3852557824667096 0 0 0
8948 0 2 2.2208 -0.22071354052919576 16.474332621639682 7.9363149157624395 0 0 0
50 0 2 2.2208 10.956467463202598 22.696609087724347 2.6198470566216336 0 0 0
497 0 1 -1.1104 12.177608690851267 14.766874127219708 12.332722123596506 0 0 0
52 0 2 2.2208 2.38674737579024 -0.49941544386930337 4.819624130909151 0 0 0
8946 0 2 2.2208 13.876342115825741 2.3525828593169624 2.571519027768179 0 0 0
54 0 4 2.2208 2.3426492515182518 -0.8556770498865283 8.022809596160114 0 0 0
9274 0 3 -1.1104 1.0371274435591142 3.531506933376223 4.030650274480608 0 0 0
56 0 2 2.2208 8.39372698096557 -0.6592428826156546 5.215017485393226 0 0 0
9147 0 1 -1.1104 0.36300309878961934 16.439198700200937 0.21045918442715822 1 0 0
58 0 2 2.2208 5.870531082811742 -0.6959283455467441 8.133017444388113 0 0 0
136 0 1 -1.1104 6.887158172730116 -2.348661894321049 4.153225935617502 0 0 0
60 0 2 2.2208 11.013946034334518 -0.6119215797707844 8.001437349614875 0 0 0
61 0 1 -1.1104 12.777400109634467 9.317999799810634 12.475420601568624 0 0 0
62 0 2 2.2208 2.2663039926508466 5.123769657925817 5.042287420124595 0 0 0
63 0 2 2.2208 2.456298885207074 2.561672952071406 8.046029198877331 0 0 0
64 0 3 -1.1104 9.549117016010063 -2.0789749582854173 6.70784000184405 0 0 0
65 0 2 2.2208 5.0697208732465535 2.2405701104530626 5.657382975879619 0 0 0
66 0 2 2.2208 8.436985196613712 5.452238448224263 5.849871059619185 0 0 0
67 0 2 2.2208 8.11012204298192 2.3875188920258217 8.042570355574423 0 0 0
68 0 2 2.2208 5.211132447171095 5.032854665131058 7.979546090446271 0 0 0
69 0 2 2.2208 11.104213549806124 2.212081278365161 5.306011010894804 0 0 0
70 0 2 2.2208 11.049292733800403 4.900935058763706 8.18607528403804 0 0 0
332 0 1 -1.1104 6.413872685780267 12.499254952488057 12.322620784976612 0 0 0
72 0 2 2.2208 2.66484782991427 10.854612285807828 5.064393402698687 0 0 0
73 0 2 2.2208 2.271219753426994 7.722693883058194 8.175872790435575 0 0 0
74 0 3 -1.1104 3.9768768002486734 21.006621911201428 3.7697095017851177 0 0 0
75 0 2 2.2208 5.762963295580435 7.709141173983039 5.334129565084292 0 0 0
76 0 2 2.2208 8.725089264353686 10.434929570623364 5.477037689974299 0 0 0
77 0 2 2.2208 7.937953563169842 7.993000522647273 8.356146459534331 0 0 0
78 0 2 2.2208 5.618302842021655 11.14375527577266 8.150771416626718 0 0 0
79 0 2 2.2208 11.318941861211867 7.9057389785517085 4.85192485803477 0 0 0
80 0 2 2.2208 11.187068282863613 11.622401276435266 7.826421677112749 0 0 0
81 0 4 2.2208 2.6191921406248704 10.938853179282605 8.309355305641798 0 0 0
82 0 2 2.2208 2.498253342220241 16.983210327579542 5.792405647098423 0 0 0
83 0 2 2.2208 2.4801995251901143 13.994163300673602 8.210250090595919 0 0 0
648 0 1 -1.1104 9.571991214501148 9.216783248271145 0.7605410145426589 0 0 1
85 0 2 2.2208 5.370712433942972 13.919860920424252 4.9379041534325845 0 0 0
86 0 2 2.2208 8.26555625400173 16.690103550722576 5.247518388490963 0 0 0
87 0 2 2.2208 8.014741390807583 14.00063166921586 8.042590148209465 0 0 0
88 0 2 2.2208 5.301099009433528 16.690112401395858 8.010952719681164 0 0 0
89 0 2 2.2208 11.139023509333521 13.798696973737314 4.894185875332205 0 0 0
90 0 2 2.2208 11.100349818841284 16.869321552530508 8.027655473789148 0 0 0
91 0 3 -1.1104 9.51588614758113 21.14256225846981 9.578297731826638 0 0 0
92 0 2 2.2208 2.5114708328429582 22.30061506388515 5.047388304128214 0 0 0
93 0 2 2.2208 2.806037221658612 19.455336108192324 8.450723610117285 0 0 0
499 0 1 -1.1104 9.571870648428453 18.24593831365588 12.178934487799177 0 0 0
95 0 2 2.2208 5.534026854889235 19.605043243421395 5.0084274611054465 0 0 0
96 0 2 2.2208 8.412630414224845 22.73910923897773 5.3119910113599085 0 0 0
97 0 2 2.2208 8.000104453558906 19.84608771480654 8.065451640795304 0 0 0
98 0 2 2.2208 5.35470858149549 22.259479983497524 7.87601163340125 0 0 0
99 0 2 2.2208 11.12109273610901 19.83929780020771 5.093542175556908 0 0 0
100 0 2 2.2208 11.13218471974659 22.639218118368373 7.933931979622929 0 0 0
101 0 3 -1.1104 6.95123998671398 12.416641454267056 6.659349656142969 0 0 0
102 0 2 2.2208 2.4198000366733488 -0.6519933479704849 11.361820210093704 0 0 0
35 0 2 2.2208 5.389277859093564 13.997213865153556 -0.19699265579354794 0 0 0
104 0 2 2.2208 8.051974247628742 -0.7882183946131617 11.178599913210778 0 0 0
365 0 2 2.2208 5.424359525592105 10.903565894375818 13.7877494406576 0 0 0
106 0 4 2.2208 11.469137937223556 8.426354411222652 8.010909237222117 0 0 0
107 0 2 2.2208 2.2858273511729315 5.120655492917999 10.948862221087474 0 0 0
108 0 2 2.2208 5.047030607312265 2.2145903690770705 10.760437301528118 0 0 0
109 0 2 2.2208 7.601813873644958 5.008092416150565 10.874790596997322 0 0 0
110 0 2 2.2208 10.935428896301708 2.2467412081608784 10.909255753683029 0 0 0
111 0 1 -1.1104 12.437443337831324 21.18860604098664 12.459887011663824 0 0 0
112 0 2 2.2208 2.0398173404373954 10.565388058709416 11.49630671269859 0 0 0
113 0 2 2.2208 5.1123553503276105 8.051875469060946 11.069883920715121 0 0 0
114 0 2 2.2208 8.50526969386209 10.997195127670691 10.574543172601881 0 0 0
115 0 2 2.2208 11.292863910785755 7.966705593066976 11.223358277221955 0 0 0
116 0 1 -1.1104 9.398784907610436 21.178985301211693 12.428395430492717 0 0 0
117 0 2 2.2208 2.504673442104933 16.577859726520174 10.856630774454603 0 0 0
118 0 2 2.2208 5.4127496243221564 13.796415206554043 10.862167078772641 0 0 0
119 0 2 2.2208 7.957560799754438 16.888402556817507 10.885583516635117 0 0 0
120 0 2 2.2208 11.122290801022483 13.93910893322921 10.520458946898 0 0 0
84 0 2 2.2208 10.823898222297242 22.618536630738735 13.66633772082078 0 0 0
122 0 2 2.2208 2.625585779237619 22.504444749848478 10.842975388630638 0 0 0
123 0 2 2.2208 5.518238373727025 19.619603333599105 11.014545162772528 0 0 0
124 0 2 2.2208 8.33672214601303 22.65131194006659 10.808093023731232 0 0 0
125 0 2 2.2208 10.989691740607316 19.77526596755586 10.699220322370255 0 0 0
415 0 3 -1.1104 1.1177007127629583 21.041523419564903 0.6500926809143565 0 0 0
127 0 1 -1.1104 3.9664148438534825 -2.1361885921004817 0.8151084869033296 0 0 0
128 0 1 -1.1104 0.5543308018957721 -2.340436613922902 3.706538077128492 0 0 0
349 0 2 2.2208 8.282159461064904 8.210854036138324 13.794434643024697 0 0 0
130 0 1 -1.1104 1.19829420006099 0.7007499867314197 0.6582188518338047 0 0 0
131 0 1 -1.1104 4.191997477336544 0.9077309403112896 1.3207698720937737 0 0 0
132 0 1 -1.1104 2.3180025216458824 -0.8583437754736981 2.6561906695531166 0 0 0
133 0 1 -1.1104 3.9712254969344842 1.1578507090006682 3.8971712884207252 0 0 0
134 0 1 -1.1104 6.494712867252262 -2.2592694333863244 1.2704336440299104 0 0 0
135 0 1 -1.1104 12.319885856929346 -1.9824029393988236 0.9593520819060962 0 0 0
55 0 2 2.2208 5.197994007995444 -3.2072674269223658 5.533230910138343 0 0 0
137 0 1 -1.1104 9.956988297856896 -2.062666743294018 4.057585118519048 0 0 0
138 0 1 -1.1104 6.794605796898909 0.7024936240847551 0.8052686301197826 0 0 0
139 0 1 -1.1104 9.638226403960811 0.909655523032218 0.9357032671276623 0 0 0
140 0 1 -1.1104 6.630848848814949 3.3360076075833858 2.8390380874788104 0 0 0
141 0 1 -1.1104 9.941956454084629 0.6299891893121932 3.7547346209576977 0 0 0
345 0 2 2.2208 5.628283578507053 19.67693456482848 -0.20381521147948745 0 0 0
143 0 1 -1.1104 12.756710770071537 -2.1597069775762248 4.133901354534504 0 0 0
144 0 1 -1.1104 12.525749702649732 0.9559521156783434 1.3123373403445542 0 0 0
145 0 1 -1.1104 12.711581732197514 1.077474529164078 4.1528598503138845 0 0 0
146 0 1 -1.1104 0.8423538879499578 3.4086685797814384 0.9725790101459112 0 0 0
147 0 1 -1.1104 3.838460927067388 3.7430230079131643 0.6284681704658311 0 0 0
148 0 1 -1.1104 0.8757531598225965 0.9841913667266319 3.6997195393026723 0 0 0
149 0 1 -1.1104 3.762740081033694 3.781358323368401 3.6765346278196445 0 0 0
150 0 1 -1.1104 1.006155781322879 6.555638002008527 0.7530102572580587 0 0 0
151 0 1 -1.1104 3.73920998362443 6.1691302864003195 0.8357303578854784 0 0 0
152 0 1 -1.1104 1.0225812456910444 6.318030258619354 3.5091175555451986 0 0 0
153 0 1 -1.1104 4.033140131704319 6.606236806883357 3.61250418303698 0 0 0
154 0 1 -1.1104 7.650991781474822 3.657178739942746 0.5647457154820026 0 0 0
155 0 1 -1.1104 10.078471050652093 3.6607244633082345 1.2945664270577395 0 0 0
156 0 1 -1.1104 6.87560050613282 0.4262047819171323 3.9330439177370056 0 0 0
157 0 1 -1.1104 6.84627057388331 6.474904515864843 1.3877796400369735 0 0 0
158 0 1 -1.1104 9.98161522341262 6.295935177873533 0.9500316743482671 0 0 0
159 0 1 -1.1104 7.0351217442703895 5.787046466954003 4.168090581262553 0 0 0
160 0 1 -1.1104 6.835975996006645 6.561987658204034 6.796577469205777 0 0 0
161 0 1 -1.1104 9.524089697902523 3.672722712120802 4.231089323841324 0 0 0
162 0 1 -1.1104 12.862458642247057 3.6355645847340914 0.9474588355932944 0 0 0
163 0 1 -1.1104 12.592499580208223 3.69971793986195 3.728593883363613 0 0 0
164 0 1 -1.1104 12.432187585003868 7.145524184065403 1.0057813174158143 0 0 0
165 0 1 -1.1104 12.759627243846529 6.460551037563862 3.901173493011743 0 0 0
51 0 2 2.2208 13.857107837930076 22.523822583863137 10.878443831504597 0 0 0
167 0 1 -1.1104 3.8924209061382578 9.114552066034799 0.9481665303706172 0 0 0
168 0 1 -1.1104 1.4442229296497724 9.164598566130772 4.275098336034082 0 0 0
169 0 1 -1.1104 4.359769328628367 9.336935178004994 4.261982815364609 0 0 0
15 0 1 -1.1104 9.383150172019034 15.488628832507459 12.792131051890404 0 0 0
171 0 1 -1.1104 2.4001181508630656 10.565109508373466 2.3851116351456794 0 0 0
172 0 1 -1.1104 0.8385089249382937 12.138079638758962 3.8690551104326887 0 0 0
9050 0 2 2.2208 13.940613593510935 16.786132428851825 10.749831286626135 0 0 0
174 0 1 -1.1104 6.639521178154761 9.288503409098212 0.9741560588720265 0 0 0
175 0 1 -1.1104 9.698701627775511 6.520473355731917 3.5478018020780913 0 0 0
176 0 1 -1.1104 6.954573524710754 8.881543584950663 3.759784953925763 0 0 0
177 0 1 -1.1104 9.794775102283333 9.271945019156572 3.7458810873301243 0 0 0
178 0 1 -1.1104 7.004950269567578 12.439998810006808 1.0266389431752088 0 0 0
179 0 1 -1.1104 9.529244316195436 12.218660430040424 1.029169517298598 0 0 0
180 0 1 -1.1104 6.798259054295804 11.801953351127251 3.7818434457498102 0 0 0
181 0 1 -1.1104 9.698904462037671 12.51779825185108 3.545987657292333 0 0 0
182 0 1 -1.1104 12.353807317856079 9.8907792615397 0.7529906797470645 0 0 0
183 0 1 -1.1104 12.628802918855007 9.533390584855013 3.5978881170152834 0 0 0
184 0 1 -1.1104 12.342010884712245 12.65835133328882 1.1473177085758428 0 0 0
185 0 1 -1.1104 12.586617511695891 12.268110142074887 3.859342298641714 0 0 0
186 0 1 -1.1104 4.104642902390075 12.251530971367698 3.757381555679894 0 0 0
170 0 1 -1.1104 3.795791841806068 15.073429087122793 1.6291761172376078 0 0 0
188 0 1 -1.1104 2.2992370228003884 19.079304641085017 4.4559522836269405 0 0 0
189 0 1 -1.1104 3.8134362852918358 9.257703916506586 7.337293827097158 0 0 0
193 0 1 -1.1104 0.5346467625421241 14.57125487939647 2.0584260166891886 0 0 0
8952 0 2 2.2208 -0.22348861603823258 13.885361988111256 5.031920350194668 0 0 0
296 0 1 -1.1104 0.7771994610813002 18.35651666509122 1.9305009483154016 0 0 0
236 0 1 -1.1104 0.8286567810394118 0.9129221776562242 7.880286631977521 0 0 0
194 0 1 -1.1104 6.675054772860245 15.311894612150518 0.9840913787279747 0 0 0
195 0 1 -1.1104 9.442751291739226 14.952599999029974 0.5645825018248323 0 0 0
196 0 1 -1.1104 6.540642564219343 14.956673998860413 3.5464686287855667 0 0 0
197 0 1 -1.1104 9.776867453693695 15.368005755691465 3.8157894162768633 0 0 0
198 0 1 -1.1104 7.354027565428497 18.147922574052778 1.0134142602245961 0 0 0
199 0 1 -1.1104 9.928270671889097 18.035720909037575 0.9498931827670176 0 0 0
200 0 1 -1.1104 7.13414257706515 17.98547304546439 3.8864442388845886 0 0 0
201 0 1 -1.1104 9.91124337512645 18.276105014166134 3.577755200803159 0 0 0
202 0 1 -1.1104 12.402728106374298 15.39498104248278 1.0979828159061868 0 0 0
203 0 1 -1.1104 12.713218849291902 15.48886370528059 3.9682307750313766 0 0 0
204 0 1 -1.1104 12.628365527238145 18.39807125470848 1.1873145372942102 0 0 0
205 0 1 -1.1104 12.714509416569 18.176704633749885 3.9597722357231837 0 0 0
335 0 2 2.2208 -0.1801093673970961 -3.05511910262868 5.9913106534483145 0 0 0
207 0 1 -1.1104 4.159243430552768 21.16839525642654 0.817526803259749 0 0 0
208 0 1 -1.1104 1.3956412827034426 21.24811986671155 3.2576432455144078 0 0 0
209 0 1 -1.1104 5.1356336539555025 19.18134208865613 2.466399319669285 0 0 0
210 0 1 -1.1104 6.980471542926867 21.103061648877325 1.0570429373539156 0 0 0
211 0 1 -1.1104 9.528550471540973 20.942308321323804 1.2529635814523539 0 0 0
212 0 1 -1.1104 6.807753688491134 21.250238309478974 3.8623513033981536 0 0 0
213 0 1 -1.1104 9.54412589299223 21.137430497124996 4.049249038729743 0 0 0
214 0 1 -1.1104 12.50906209767353 21.230894818270468 0.9020024530980167 0 0 0
215 0 1 -1.1104 12.436351051798384 21.251435522959305 3.671530238646243 0 0 0
307 0 1 -1.1104 4.296275327586383 -2.6441571497555487 12.551882674180938 0 0 0
308 0 1 -1.1104 0.8997321284450162 0.8596878941354983 12.353340315169246 0 0 0
273 0 1 -1.1104 12.476746636280563 11.883873297439843 12.674163642290377 0 0 0
357 0 2 2.2208 2.497971950139014 19.40462912339217 13.644050167267794 0 0 0
9040 0 2 2.2208 13.934213133379556 5.048329373778809 10.959279071004591 0 0 0
8947 0 2 2.2208 0.11710120109848016 19.407438200522133 4.326335928303893 0 0 0
222 0 1 -1.1104 2.954439679085201 0.9853630878994022 9.785249392485403 0 0 0
223 0 1 -1.1104 4.093898704869764 -0.7339992422034674 6.585420539370768 0 0 0
224 0 1 -1.1104 4.508372702002992 -1.2615817169811205 10.085801656779038 0 0 0
225 0 1 -1.1104 6.969786656593156 -2.1484132586228504 6.858966731587997 0 0 0
226 0 1 -1.1104 7.053389107215147 -2.2335834101072276 9.782899081898563 0 0 0
227 0 1 -1.1104 12.613219403739699 -2.493735138962679 9.887477941249367 0 0 0
228 0 1 -1.1104 6.875829165164231 0.6476821367181335 6.612363095173819 0 0 0
229 0 1 -1.1104 9.631562456119164 0.8830764956184257 6.56821338384092 0 0 0
230 0 1 -1.1104 6.695008245444826 0.9422610379508342 9.498055448820667 0 0 0
231 0 1 -1.1104 9.527082389959968 0.6014417976392071 9.515583765485724 0 0 0
232 0 1 -1.1104 12.321765502814907 -2.304110410019293 6.6163531020232815 0 0 0
282 0 1 -1.1104 0.7778735353582608 18.289794987416855 9.287425268173275 0 0 0
234 0 1 -1.1104 12.473086959842172 0.8174244871043225 6.919358624130653 0 0 0
235 0 1 -1.1104 12.576629352260179 0.7919948415417652 9.922630088070674 0 0 0
22 0 2 2.2208 2.607879303743898 10.903799290327349 -0.19561080113371088 0 0 0
237 0 1 -1.1104 2.447681372937323 1.6139291309090678 6.041735099303278 0 0 0
238 0 1 -1.1104 1.0486923027695263 3.4007029334331493 9.879180813135285 0 0 0
239 0 1 -1.1104 4.698132260944182 1.5632197716296834 7.6645103037717925 0 0 0
240 0 1 -1.1104 1.0696870161188416 6.578906904568349 6.562514406778326 0 0 0
241 0 1 -1.1104 4.140499824952214 6.537393882597466 6.711986845140994 0 0 0
242 0 1 -1.1104 0.9683602050267706 6.209206315436338 9.445306153474418 0 0 0
243 0 1 -1.1104 0.9583265242888716 3.9115762214595566 6.830156949165965 0 0 0
244 0 1 -1.1104 7.03577529487268 3.5974346416345693 6.399531179385859 0 0 0
245 0 1 -1.1104 9.751083977770575 3.567963479760875 6.875226135616707 0 0 0
246 0 1 -1.1104 6.425140386665827 3.513012454209571 9.371003862459782 0 0 0
247 0 1 -1.1104 9.51017218738483 3.526314774382787 9.666870945190391 0 0 0
248 0 1 -1.1104 8.64357966123386 5.645833042088882 8.586841702633128 0 0 0
249 0 1 -1.1104 8.836855275340548 7.929439599520156 5.962183162418568 0 0 0
250 0 1 -1.1104 6.360224359596894 6.676896196240662 9.634851049677945 0 0 0
251 0 1 -1.1104 10.880367277263135 6.533560861688898 6.596202865693631 0 0 0
252 0 1 -1.1104 12.636874555382397 3.648467153169466 6.624106227655455 0 0 0
253 0 1 -1.1104 12.052054543118766 3.4187036341364556 9.352647195731008 0 0 0
9227 0 1 -1.1104 4.005330326944703 16.764313944158523 3.76281036723437 1 0 0
255 0 1 -1.1104 12.415809218472864 6.360563477410673 12.20749981377925 0 0 0
256 0 1 -1.1104 3.897113673101573 6.64301025685515 9.328545681463787 0 0 0
257 0 1 -1.1104 3.6859102688211864 3.9848819893957423 6.472597643662996 0 0 0
258 0 1 -1.1104 1.1162006081728013 9.684206098885406 6.882433850316535 0 0 0
259 0 1 -1.1104 6.978878220553915 9.757251806490718 9.455854403428447 0 0 0
260 0 1 -1.1104 1.2823649360256666 12.363771070193353 6.9007578117138255 0 0 0
261 0 1 -1.1104 3.9823303788173314 11.831384033683753 6.604245209132131 0 0 0
262 0 1 -1.1104 4.0925007140242995 9.927028974310664 9.870213341295687 0 0 0
263 0 1 -1.1104 4.051158632707507 12.581162770927945 9.236174028123877 0 0 0
264 0 1 -1.1104 6.794345376378181 9.583274906387986 6.667417920149997 0 0 0
265 0 1 -1.1104 11.21177186461661 9.809819400819997 5.956196375234934 0 0 0
266 0 1 -1.1104 6.624869737058094 9.34232412815651 12.380537975339388 0 0 0
267 0 1 -1.1104 9.963614009889605 7.384937590815438 9.48950180114681 0 0 0
268 0 1 -1.1104 9.643854251124454 9.762029314033452 7.955497607433933 0 0 0
269 0 1 -1.1104 12.994567713276757 10.38702573296296 7.6854352349234505 0 0 0
270 0 1 -1.1104 6.926266989267756 12.517094638619968 9.494086078258434 0 0 0
9045 0 2 2.2208 13.855287579004713 10.700395966238332 10.787682547182914 0 0 0
891 0 1 -1.1104 0.44913039715570907 21.17016579077829 6.074164944832614 0 0 0
9173 0 1 -1.1104 12.967796737069378 8.700878698404237 9.848458040511884 0 0 0
274 0 1 -1.1104 12.35696729921651 12.878815726455823 6.468488018817697 0 0 0
275 0 1 -1.1104 12.684307365223479 12.679222745239992 9.488999769970508 0 0 0
336 0 2 2.2208 4.99895549129927 5.203192551370908 13.762155413778963 0 0 0
94 0 2 2.2208 10.88869721966583 5.547843659463918 13.798248513166143 0 0 0
278 0 1 -1.1104 1.1554179030548621 12.229347049158914 9.367055750555934 0 0 0
279 0 1 -1.1104 4.031765601593612 15.03585604123975 6.692913639610883 0 0 0
280 0 1 -1.1104 2.6598867071907493 16.738038556766732 8.162712237351876 0 0 0
281 0 1 -1.1104 4.277631023544169 18.291123221936214 6.681176810574118 0 0 0
166 0 1 -1.1104 0.7620913329698105 9.149900241735704 1.2012014989717366 0 0 0
283 0 1 -1.1104 4.178626926979511 15.379124747038322 9.481420339745634 0 0 0
284 0 1 -1.1104 6.75605015561485 15.085993930463173 6.49352344515981 0 0 0
285 0 1 -1.1104 9.911678690449532 15.265387106495496 6.489238037942364 0 0 0
286 0 1 -1.1104 9.681920361655207 12.84701352235344 9.156198757093374 0 0 0
287 0 1 -1.1104 9.669517976154909 12.491066823499024 6.372991408865392 0 0 0
288 0 1 -1.1104 6.906931321376133 17.983885282634674 6.694823261949184 0 0 0
289 0 1 -1.1104 9.615682966143881 18.330262259246155 6.409471832870347 0 0 0
290 0 1 -1.1104 6.6726136415286135 18.216411963179514 9.646774054097353 0 0 0
291 0 1 -1.1104 9.480905477385777 15.50097867879358 9.641066682296808 0 0 0
292 0 1 -1.1104 12.975620528782347 15.971969241392088 6.927700362109391 0 0 0
293 0 1 -1.1104 12.461455108757264 15.492675489197357 9.44502518029591 0 0 0
294 0 1 -1.1104 12.183553786026655 18.705104753975586 6.685853415366618 0 0 0
295 0 1 -1.1104 12.33328917062414 18.345895977371118 9.614091134207728 0 0 0
340 0 2 2.2208 5.271144252127081 -0.7810376523800743 13.744362222108881 0 0 0
297 0 1 -1.1104 3.3317639808316772 21.04565536633255 6.891550965797678 0 0 0
298 0 1 -1.1104 3.8761532595695787 18.29229181895614 9.885659391517324 0 0 0
299 0 1 -1.1104 4.023666827424878 20.970950963022144 9.403751743271206 0 0 0
300 0 1 -1.1104 6.667995969765301 20.745729933555605 6.6392646548796765 0 0 0
301 0 1 -1.1104 9.326524833503987 21.332877474605155 6.91887145676561 0 0 0
302 0 1 -1.1104 6.841551889149657 21.25965584874277 9.451753211335072 0 0 0
303 0 1 -1.1104 9.656122314233686 18.20542141009047 9.144469876158363 0 0 0
304 0 1 -1.1104 12.322277339503804 21.295432803113354 6.504233214569042 0 0 0
305 0 1 -1.1104 12.57982210447112 21.099507733840223 9.50734922307126 0 0 0
331 0 1 -1.1104 9.449641000114088 9.481968676719774 12.193940807587554 0 0 0
9298 0 2 2.2208 13.793824117327597 19.608929430450857 13.61260614980993 0 0 0
344 0 2 2.2208 7.834279549457367 2.462084373752959 13.795954683294779 0 0 0
309 0 1 -1.1104 3.7438745596251235 0.8888354960781595 12.402769629549729 0 0 0
277 0 1 -1.1104 2.2299984874602794 14.366962272385265 4.082778568134572 0 0 0
272 0 1 -1.1104 12.711145714430645 6.390391090926229 8.767094102063101 0 0 0
311 0 1 -1.1104 9.724646692693373 -2.2293994303200013 12.496028786465784 0 0 0
8967 0 2 2.2208 13.868327087006898 19.80646239101358 8.240507130694475 0 0 0
314 0 1 -1.1104 12.457428159899736 -2.328524842720088 12.758793079001874 0 0 0
315 0 1 -1.1104 11.677633515015676 0.6150873768668018 12.668501665571172 0 0 0
316 0 1 -1.1104 0.8446809599546818 4.033431283629522 12.617485610162577 0 0 0
317 0 1 -1.1104 3.7184134413214966 3.850841531748138 12.29229236388422 0 0 0
318 0 1 -1.1104 0.7780677310935282 6.826615059371732 12.51625882967893 0 0 0
319 0 1 -1.1104 3.461324439888501 6.725408031615524 12.3754867303581 0 0 0
220 0 1 -1.1104 0.13239952998969462 -0.7015990218324749 6.120505046655257 0 0 0
321 0 1 -1.1104 9.59825283682876 3.705956765882929 12.690162236518924 0 0 0
322 0 1 -1.1104 6.5612466012231385 3.77758300394443 12.548333157858744 0 0 0
323 0 1 -1.1104 9.223430529655328 6.537906456893245 12.153745896376813 0 0 0
8273 0 3 -1.1104 10.039366698364248 -1.9614149816510797 9.603533175031806 0 0 0
254 0 1 -1.1104 10.910949583673219 10.709881329302572 10.35414808647308 0 0 0
326 0 1 -1.1104 1.2070910184803283 9.228337071728891 9.77099598044763 0 0 0
327 0 1 -1.1104 3.7710946884662846 9.55118423062344 12.475026070101519 0 0 0
328 0 1 -1.1104 0.4037325157755004 12.081641038101761 12.306222624609958 0 0 0
329 0 1 -1.1104 3.3637729428370444 12.362797802108414 12.056077993707493 0 0 0
660 0 1 -1.1104 2.3108068450654065 14.061745825684632 0.005425158592522067 0 0 1
192 0 1 -1.1104 0.9474332167793149 18.659034643451612 6.752068654375254 0 0 0
484 0 1 -1.1104 0.7757827347076693 9.275617079361728 12.647582393776407 0 0 0
221 0 1 -1.1104 4.490848010487214 -2.871397004727715 8.06605482506988 0 0 0
312 0 1 -1.1104 6.4788498019261365 0.8228827357402607 12.711262640491537 0 0 0
218 0 1 -1.1104 0.7087382037123274 -0.8876774608578516 9.767776626419202 0 0 0
187 0 1 -1.1104 4.307685320489191 11.99188244647025 0.8853724534963904 0 0 0
129 0 1 -1.1104 4.272814898276727 -2.233560104507101 3.978125459436878 0 0 0
11 0 2 2.2208 5.115205336078768 16.697637997744973 13.7519837437968 0 0 0
325 0 1 -1.1104 12.42407706002342 3.458991461386536 12.326438493891036 0 0 0
216 0 1 -1.1104 0.45704252937945067 -2.6647316723808636 8.101715412600177 0 0 0
464 0 1 -1.1104 1.1965697394404986 -2.049148954984982 12.809369430467788 0 0 0
217 0 1 -1.1104 2.3246336567565007 -2.5223213181338293 6.1937113620559465 0 0 0
563 0 1 -1.1104 11.06023993014553 7.8686827906255505 13.710821422192854 0 0 0
206 0 1 -1.1104 3.102762986063031 17.527164552470047 1.2637887651235875 0 0 0
8945 0 2 2.2208 -0.17476067951880353 22.838348940423067 8.0667363008297 0 0 0
8443 0 1 -1.1104 0.6830955639554066 -2.1166026674952843 0.8875171785556545 0 1 0
190 0 1 -1.1104 0.5672553012840907 16.7761475805874 4.142186798242827 0 0 0
219 0 1 -1.1104 2.394241808710447 -2.824158806726258 10.211390461265886 0 0 0
8996 0 2 2.2208 13.73825758113274 2.1402073946476023 8.273715740497142 0 0 0
53 0 2 2.2208 13.619823733873769 -1.0287809594437731 11.252107991307902 0 0 0
9615 0 2 2.2208 -0.18752406048302847 22.29752102391743 13.670969722774847 0 0 0
351 0 2 2.2208 11.16921026698065 10.227514857361056 13.933555447735843 0 0 0
42 0 2 2.2208 2.5081295291241488 22.50439956674318 -0.2333974906326145 0 0 0
342 0 2 2.2208 2.4474173629074687 2.5539254234629283 13.881555598779931 0 0 0
500 0 1 -1.1104 9.318531056765059 11.8988766451147 13.940746607838745 0 0 0
1290 0 1 -1.1104 3.400903497559286 20.840492794521186 23.76921179157489 0 0 0
338 0 4 2.2208 2.3746824845790875 11.024476475617215 24.998836572201917 0 0 0
339 0 3 -1.1104 0.9215692643613809 3.7746246917086483 26.53541185083332 0 0 -1
375 0 2 2.2208 8.12896231256382 -0.6732238912762086 27.89567914001592 0 0 -1
8851 0 1 -1.1104 12.733380384122485 -2.134612820197282 18.627434315867717 0 1 0
489 0 1 -1.1104 9.382655382583986 14.311899464850281 15.398944755836684 0 0 0
350 0 2 2.2208 11.098400446738113 13.597275134050632 27.95377437817464 0 0 -1
518 0 1 -1.1104 9.959162367987254 -2.241191429275263 20.859029485957585 0 0 0
14 0 3 -1.1104 9.596973882845074 9.481349475149358 26.457496219176356 0 0 -1
666 0 1 -1.1104 9.963310355957804 15.523434461799773 23.597934065180162 0 0 0
493 0 1 -1.1104 3.4945522566578306 15.067989762775905 15.250972521411326 0 0 0
348 0 3 -1.1104 9.569221431121976 9.643592161236398 21.102417867714117 0 0 0
36 0 2 2.2208 8.388140547912988 16.642678357091263 28.03948758246064 0 0 -1
516 0 1 -1.1104 12.399840062094224 0.9722357795173618 17.64060304078556 0 0 0
598 0 1 -1.1104 4.286905256703954 -2.274025462262917 23.45751636723005 0 0 0
45 0 2 2.2208 8.108707927318388 22.56709951867362 28.07770689234255 0 0 -1
353 0 3 -1.1104 7.1897052048004415 17.98512291747422 26.359235000483388 0 0 -1
507 0 1 -1.1104 1.1355322909900596 -2.062747397117433 18.1402327293133 0 0 0
655 0 1 -1.1104 12.325254220082597 12.470664342096498 23.820824745859195 0 0 0
525 0 1 -1.1104 12.821157000946254 -2.3090367583492792 21.495352569563728 0 0 0
471 0 1 -1.1104 12.464229146844845 -2.158487536588676 15.73193204665618 0 0 0
358 0 3 -1.1104 9.49249156435335 3.3775332876616226 21.317848626766935 0 0 0
670 0 1 -1.1104 9.198678941241182 17.959125317349102 23.4073031666389 0 0 0
597 0 1 -1.1104 1.3348438521262975 -2.2766463895790054 23.463206489197738 0 0 0
519 0 1 -1.1104 9.850040935181198 -2.2099959191967766 18.33775245314412 0 0 0
8989 0 2 2.2208 13.841146846477864 16.75444900353547 28.055950806380537 0 0 -1
363 0 2 2.2208 2.273058938467089 -0.5945356581813175 16.824455885983173 0 0 0
608 0 1 -1.1104 9.466659827899926 -2.1374468383634575 26.7235042456364 0 0 0
665 0 1 -1.1104 7.4327455190436496 14.844375532890728 23.475442885564416 0 0 0
333 0 1 -1.1104 12.604507944073045 9.331929055509375 15.46187096673116 0 0 0