ITEM: TIMESTEP
565
ITEM: NUMBER OF ATOMS
27300
ITEM: BOX BOUNDS pp pp pp
0.0000000000000000e+00 4.8958410768334198e+02
0.0000000000000000e+00 2.6247140805037299e+02
0.0000000000000000e+00 2.4727731607429999e+00
ITEM: ATOMS id type x y z
4 1 1.27175 2.01903 1.32268
1 1 3.60317 2.01911 2.14694
5 1 5.93456 2.01919 0.498641
10 1 8.26593 2.01927 1.32332
7 1 10.5973 2.01936 2.14821
11 1 12.9286 2.01944 0.500543
16 1 15.2599 2.01952 1.32587
13 1 17.5911 2.01961 2.15143
17 1 19.9224 2.0197 0.504444
22 1 22.2536 2.01979 1.33048
19 1 24.5847 2.01989 2.15677
23 1 26.9158 2.01998 0.510552
25 1 31.5778 2.02019 2.16451
28 1 29.2468 2.02009 1.33739
29 1 33.9087 2.0203 0.519176
34 1 36.2395 2.02042 1.34694
423 1 0.105708 4.03799 2.14674
426 1 2.43713 4.03815 0.498125
422 1 4.76854 4.03831 1.32249
429 1 7.09992 4.03847 2.14706
432 1 9.43128 4.03863 0.499073
428 1 11.7626 4.03879 1.32407
435 1 14.0939 4.03896 2.14928
438 1 16.4252 4.03913 0.501949
434 1 18.7564 4.03931 1.32762
441 1 21.0877 4.03949 2.15353
440 1 25.7499 4.03987 1.33333
444 1 23.4188 4.03967 0.506911
447 1 28.081 4.04007 2.16002
450 1 30.412 4.04027 0.514216
446 1 32.743 4.04049 1.34149
453 1 35.0738 4.04071 2.16908
456 1 37.4046 4.04095 0.524224
424 1 1.27088 6.0571 1.32195
843 1 0.104397 8.07598 2.14564
846 1 2.43582 8.0763 0.497022
421 1 3.60229 6.05734 2.14621
842 1 4.76723 8.07661 1.32139
425 1 5.93369 6.05758 0.497904
430 1 8.26506 6.05782 1.32258
849 1 7.09862 8.07693 2.14596
427 1 10.5964 6.05806 2.14747
852 1 9.42998 8.07725 0.497961
431 1 12.9277 6.05831 0.499795
848 1 11.7613 8.07757 1.32295
855 1 14.0926 8.0779 2.14816
436 1 15.259 6.05856 1.32512
858 1 16.4239 8.07824 0.500811
433 1 17.5903 6.05882 2.15066
437 1 19.9215 6.05909 0.503674
854 1 18.7552 8.07859 1.32647
442 1 22.2527 6.05936 1.3297
861 1 21.0864 8.07895 2.15236
439 1 24.5839 6.05965 2.15598
860 1 25.7487 8.07971 1.33213
864 1 23.4176 8.07932 0.50573
443 1 26.915 6.05994 0.509746
867 1 28.0798 8.0801 2.15879
445 1 31.577 6.06056 2.16368
448 1 29.246 6.06025 1.33657
870 1 30.4109 8.08052 0.51297
449 1 33.9079 6.06089 0.518319
866 1 32.7418 8.08094 1.34022
454 1 36.2388 6.06123 1.34606
873 1 35.0727 8.08139 2.16777
876 1 37.4035 8.08185 0.522888
844 1 1.26913 10.0952 1.32048
841 1 3.60055 10.0956 2.14474
845 1 5.93195 10.096 0.496429
850 1 8.26333 10.0964 1.3211
847 1 10.5947 10.0968 2.14598
851 1 12.926 10.0972 0.498296
856 1 15.2573 10.0976 1.32361
853 1 17.5886 10.098 2.14914
857 1 19.9199 10.0984 0.50213
862 1 22.2511 10.0989 1.32813
859 1 24.5822 10.0994 2.15439
863 1 26.9134 10.0999 0.508131
865 1 31.5755 10.1009 2.162
868 1 29.2445 10.1004 1.33492
869 1 33.9064 10.1014 0.5166
874 1 36.2373 10.102 1.3443
1263 1 0.102213 12.114 2.14379
1264 1 1.26651 14.1332 1.31827
1266 1 2.43364 12.1144 0.495182
1261 1 3.59793 14.1338 2.14253
1262 1 4.76505 12.1149 1.31954
1265 1 5.92933 14.1343 0.494213
1269 1 7.09644 12.1154 2.14411
1270 1 8.26072 14.1349 1.31887
1267 1 10.5921 14.1354 2.14374
1272 1 9.42781 12.1158 0.496104
1268 1 11.7592 12.1163 1.32108
1271 1 12.9234 14.136 0.496045
1275 1 14.0905 12.1168 2.14627
1276 1 15.2548 14.1366 1.32133
1278 1 16.4218 12.1173 0.498912
1273 1 17.5861 14.1371 2.14684
1274 1 18.7531 12.1178 1.32455
1277 1 19.9173 14.1378 0.499808
1281 1 21.0843 12.1184 2.15042
1282 1 22.2486 14.1384 1.32578
1279 1 24.5798 14.139 2.152
1280 1 25.7467 12.1195 1.33012
1284 1 23.4155 12.1189 0.503757
1283 1 26.911 14.1397 0.505699
1287 1 28.0778 12.1201 2.15675
1285 1 31.5731 14.1411 2.15947
1288 1 29.2421 14.1404 1.33244
1290 1 30.4089 12.1207 0.510888
1286 1 32.7399 12.1213 1.33809
1289 1 33.9041 14.1419 0.514012
1293 1 35.0709 12.122 2.16559
1294 1 36.2351 14.1426 1.34164
1296 1 37.4017 12.1227 0.520653
1686 1 2.43058 16.1526 0.492601
1683 1 0.0991547 16.152 2.14121
1682 1 4.762 16.1532 1.31696
1689 1 7.0934 16.1538 2.14152
1692 1 9.42478 16.1544 0.4935
1688 1 11.7561 16.1551 1.31846
1695 1 14.0875 16.1557 2.14363
1698 1 16.4188 16.1564 0.496245
1694 1 18.7501 16.157 1.32185
1701 1 21.0814 16.1577 2.14769
1700 1 25.7438 16.1592 1.3273
1704 1 23.4126 16.1585 0.500985
1707 1 28.075 16.16 2.15388
1710 1 30.4061 16.1608 0.507961
1706 1 32.7372 16.1616 1.3351
1713 1 35.0682 16.1625 2.16253
1716 1 37.3992 16.1634 0.517508
1684 1 1.26301 18.1713 1.31531
1681 1 3.59444 18.172 2.13957
1685 1 5.92585 18.1727 0.491252
1690 1 8.25724 18.1734 1.3159
1687 1 10.5886 18.1741 2.14075
1691 1 12.92 18.1748 0.493035
1696 1 15.2513 18.1755 1.3183
1693 1 17.5827 18.1762 2.14378
1697 1 19.914 18.177 0.496701
1702 1 22.2453 18.1778 1.32263
1699 1 24.5765 18.1786 2.1488
1703 1 26.9077 18.1794 0.502443
1705 1 31.57 18.1812 2.15607
1708 1 29.2389 18.1803 1.32912
1709 1 33.9011 18.1822 0.510542
1714 1 36.2321 18.1831 1.33809
2104 1 1.25865 22.2094 1.31162
2106 1 2.42665 20.1907 0.489277
2103 1 0.0952247 20.19 2.13789
2101 1 3.59008 22.2102 2.13587
2102 1 4.75807 20.1915 1.31363
2105 1 5.92149 22.211 0.487546
2109 1 7.08948 20.1922 2.13818
2110 1 8.2529 22.2118 1.31218
2107 1 10.5843 22.2126 2.13701
2112 1 9.42088 20.193 0.490145
2108 1 11.7523 20.1937 1.31509
2111 1 12.9157 22.2135 0.489265
2115 1 14.0836 20.1945 2.14023
2116 1 15.2471 22.2144 1.31449
2118 1 16.415 20.1953 0.492807
2113 1 17.5784 22.2152 2.13993
2114 1 18.7463 20.1962 1.31837
2117 1 19.9098 22.2162 0.492805
2121 1 21.0776 20.197 2.14416
2122 1 22.2411 22.2171 1.31868
2119 1 24.5724 22.2181 2.14478
2120 1 25.7402 20.1988 1.32367
2124 1 23.4089 20.1979 0.497407
2123 1 26.9036 22.2191 0.498353
2127 1 28.0714 20.1998 2.15018
2125 1 31.5661 22.2212 2.15181
2128 1 29.2349 22.2201 1.32495
2130 1 30.4026 20.2007 0.504177
2126 1 32.7337 20.2017 1.33123
2129 1 33.8972 22.2223 0.506179
2133 1 35.0648 20.2028 2.15857
2134 1 36.2283 22.2235 1.33361
2136 1 37.3958 20.2039 0.513439
2526 1 2.42186 24.2288 0.48521
2523 1 0.0904279 24.228 2.13382
2522 1 4.75328 24.2297 1.30956
2529 1 7.0847 24.2306 2.13409
2532 1 9.41611 24.2315 0.486038
2528 1 11.7475 24.2324 1.31095
2535 1 14.0789 24.2333 2.13606
2538 1 16.4103 24.2342 0.488594
2534 1 18.7417 24.2352 1.31411
2541 1 21.073 24.2362 2.13984
2540 1 25.7356 24.2383 1.3192
2544 1 23.4043 24.2372 0.493016
2547 1 28.0669 24.2394 2.14562
2550 1 30.3982 24.2405 0.499526
2546 1 32.7294 24.2417 1.32647
2553 1 35.0605 24.2429 2.15369
2556 1 37.3917 24.2442 0.508432
2524 1 1.25342 26.2474 1.30718
2946 1 2.41621 28.2669 0.480404
2943 1 0.084775 28.266 2.12901
2521 1 3.58485 26.2484 2.13143
2942 1 4.74764 28.2679 1.30474
2525 1 5.91628 26.2493 0.483096
2530 1 8.2477 26.2502 1.30771
2949 1 7.07907 28.2689 2.12926
2527 1 10.5791 26.2512 2.13251
2952 1 9.41049 28.2699 0.481182
2531 1 12.9105 26.2522 0.484733
2948 1 11.7419 28.271 1.30606
2955 1 14.0733 28.272 2.13112
2536 1 15.2419 26.2532 1.30992
2958 1 16.4047 28.2731 0.483606
2533 1 17.5733 26.2542 2.1353
2537 1 19.9047 26.2552 0.488116
2954 1 18.7361 28.2742 1.30906
2542 1 22.236 26.2563 1.31392
2961 1 21.0675 28.2753 2.13471
2539 1 24.5674 26.2574 2.13994
2960 1 25.7303 28.2776 1.3139
2964 1 23.3989 28.2764 0.487808
2543 1 26.8987 26.2586 0.493422
2967 1 28.0616 28.2789 2.14021
2545 1 31.5613 26.261 2.14667
2548 1 29.23 26.2598 1.31992
2970 1 30.3929 28.2802 0.493999
2549 1 33.8925 26.2623 0.500907
2966 1 32.7242 28.2815 1.32081
2554 1 36.2237 26.2636 1.3282
2973 1 35.0555 28.2829 2.14789
2976 1 37.3867 28.2843 0.502469
2944 1 1.24735 30.2855 1.30201
2941 1 3.57878 30.2865 2.12626
2945 1 5.91022 30.2876 0.477907
2950 1 8.24165 30.2886 1.3025
2947 1 10.5731 30.2897 2.12727
2951 1 12.9045 30.2908 0.479444
2956 1 15.2359 30.2919 1.30457
2953 1 17.5674 30.293 2.12989
2957 1 19.8988 30.2942 0.482634
2962 1 22.2302 30.2954 1.30835
2959 1 24.5616 30.2966 2.13427
2963 1 26.8929 30.2979 0.487644
2965 1 31.5556 30.3006 2.14063
2968 1 29.2243 30.2992 1.31402
2969 1 33.887 30.302 0.494718
2974 1 36.2183 30.3035 1.32185
3366 1 2.40972 32.305 0.47487
3363 1 0.078284 32.304 2.12348
3362 1 4.74116 32.3061 1.2992
3369 1 7.07259 32.3072 2.1237
3372 1 9.40403 32.3083 0.475587
3368 1 11.7355 32.3095 1.30042
3375 1 14.0669 32.3106 2.12543
3378 1 16.3984 32.3118 0.47785
3374 1 18.7298 32.313 1.30322
3381 1 21.0612 32.3143 2.12879
3380 1 25.724 32.3169 1.30776
3384 1 23.3926 32.3155 0.481785
3387 1 28.0554 32.3182 2.13395
3390 1 30.3868 32.3196 0.487591
3386 1 32.7182 32.3211 1.31424
3393 1 35.0495 32.3226 2.14115
3396 1 37.3809 32.3242 0.495539
3364 1 1.24045 34.3235 1.29612
3786 1 2.40242 36.3431 0.468627
3783 1 0.0709832 36.342 2.11724
3361 1 3.57189 34.3247 2.12036
3782 1 4.73386 36.3443 1.29294
3365 1 5.90333 34.3258 0.471995
3370 1 8.23477 34.327 1.29656
3789 1 7.06531 36.3455 2.11742
3367 1 10.5662 34.3281 2.12129
3792 1 9.39676 36.3467 0.469269
3371 1 12.8977 34.3293 0.47341
3788 1 11.7282 36.3479 1.29405
3795 1 14.0597 36.3492 2.119
3376 1 15.2291 34.3305 1.29848
3798 1 16.3911 36.3504 0.47134
3373 1 17.5606 34.3318 2.12372
3377 1 19.892 34.333 0.476367
3794 1 18.7226 36.3518 1.29662
3382 1 22.2235 34.3343 1.30198
3801 1 21.0541 36.3531 2.12208
3379 1 24.5549 34.3357 2.12779
3800 1 25.717 36.3559 1.30079
3804 1 23.3855 36.3545 0.474956
3383 1 26.8863 34.3371 0.481023
3807 1 28.0484 36.3574 2.12683
3385 1 31.5492 34.34 2.1337
3388 1 29.2178 34.3385 1.30725
3810 1 30.3799 36.3589 0.480305
3389 1 33.8806 34.3416 0.487606
3806 1 32.7113 36.3605 1.30677
3394 1 36.2119 34.3432 1.31454
3813 1 35.0428 36.3621 2.13347
3816 1 37.3742 36.3638 0.487637
3784 1 1.23276 38.3616 1.28954
3781 1 3.5642 38.3628 2.11377
3785 1 5.89565 38.364 0.465383
3790 1 8.2271 38.3652 1.28991
3787 1 10.5586 38.3665 2.11459
3791 1 12.89 38.3678 0.466654
3796 1 15.2215 38.3691 1.29164
3793 1 17.553 38.3704 2.11679
3797 1 19.8845 38.3718 0.469335
3802 1 22.2159 38.3732 1.29482
3799 1 24.5474 38.3746 2.12049
3803 1 26.8789 38.3761 0.473572
3805 1 31.5418 38.3793 2.12588
3808 1 29.2104 38.3777 1.29962
3809 1 33.8733 38.3809 0.479576
3814 1 36.2048 38.3826 1.30627
4204 1 1.22433 42.3996 1.2823
4206 1 2.39435 40.3812 0.461708
4203 1 0.0629137 40.38 2.11032
4201 1 3.55577 42.4009 2.10653
4202 1 4.7258 40.3825 1.28601
4205 1 5.88722 42.4022 0.458111
4209 1 7.05725 40.3837 2.11045
4210 1 8.21869 42.4035 1.2826
4207 1 10.5502 42.4048 2.10723
4212 1 9.38872 40.385 0.46226
4208 1 11.7202 40.3863 1.28699
4211 1 12.8816 42.4062 0.459212
4215 1 14.0517 40.3876 2.11186
4216 1 15.2131 42.4075 1.28411
4218 1 16.3831 40.389 0.464104
4213 1 17.5446 42.4089 2.10915
4214 1 18.7146 40.3904 1.28928
4217 1 19.8761 42.4104 0.46157
4221 1 21.0461 40.3918 2.11462
4222 1 22.2076 42.4119 1.28691
4219 1 24.5391 42.4134 2.11242
4220 1 25.7091 40.3948 1.29302
4224 1 23.3776 40.3933 0.467347
4223 1 26.8706 42.415 0.465319
4227 1 28.0406 40.3964 2.11888
4225 1 31.5337 42.4183 2.1172
4228 1 29.2022 42.4166 1.29117
4230 1 30.3721 40.398 0.472158
4226 1 32.7036 40.3996 1.29841
4229 1 33.8652 42.42 0.47065
4233 1 35.0351 40.4014 2.12487
4234 1 36.1967 42.4218 1.29708
4236 1 37.3666 40.4032 0.478771
4626 1 2.38557 44.4193 0.454157
4623 1 0.0541319 44.418 2.10277
4622 1 4.71702 44.4206 1.27844
4629 1 7.04848 44.4219 2.10285
4632 1 9.37995 44.4233 0.454605
4628 1 11.7114 44.4246 1.27926
4635 1 14.0429 44.426 2.10404
4638 1 16.3744 44.4275 0.456185
4634 1 18.7059 44.4289 1.28124
4641 1 21.0374 44.4304 2.10643
4640 1 25.7005 44.4335 1.28449
4644 1 23.3689 44.4319 0.458995
4647 1 28.032 44.4352 2.11014
4650 1 30.3635 44.4368 0.463187
4646 1 32.6951 44.4386 1.28918
4653 1 35.0266 44.4404 2.11536
4656 1 37.3582 44.4423 0.468968
4624 1 1.21522 46.4376 1.27445
5046 1 2.37615 48.4573 0.446037
5043 1 0.0447113 48.456 2.09465
4621 1 3.54666 46.439 2.09867
5042 1 4.7076 48.4587 1.2703
4625 1 5.87812 46.4403 0.450231
4630 1 8.20958 46.4417 1.27468
5049 1 7.03907 48.4601 2.09467
4627 1 10.5411 46.4431 2.09923
5052 1 9.37054 48.4615 0.446365
4631 1 12.8725 46.4445 0.451136
5048 1 11.702 48.4629 1.27094
5055 1 14.0335 48.4643 2.09562
4636 1 15.204 46.4459 1.27593
5058 1 16.365 48.4658 0.447645
4633 1 17.5355 46.4474 2.10085
4637 1 19.8671 46.4489 0.453124
5054 1 18.6965 48.4673 1.27255
4642 1 22.1986 46.4504 1.2783
5061 1 21.028 48.4689 2.09758
4639 1 24.5301 46.452 2.10362
5060 1 25.6911 48.4721 1.27524
5064 1 23.3596 48.4705 0.449962
4643 1 26.8616 46.4537 0.456313
5067 1 28.0227 48.4738 2.10066
4645 1 31.5247 46.4571 2.1077
4648 1 29.1932 46.4554 1.28193
5070 1 30.3542 48.4755 0.453448
4649 1 33.8563 46.4589 0.460871
5066 1 32.6858 48.4774 1.27916
4654 1 36.1879 46.4608 1.28699
5073 1 35.0173 48.4792 2.10502
5076 1 37.3489 48.4811 0.458283
5044 1 1.20551 50.4757 1.26608
5041 1 3.53696 50.4771 2.09029
5045 1 5.86841 50.4785 0.441815
5050 1 8.19988 50.4799 1.26621
5047 1 10.5314 50.4813 2.09069
5051 1 12.8628 50.4827 0.442497
5056 1 15.1943 50.4842 1.26718
5053 1 17.5258 50.4857 2.09196
5057 1 19.8574 50.4873 0.444068
5062 1 22.1889 50.4889 1.26906
5059 1 24.5204 50.4905 2.09417
5063 1 26.852 50.4922 0.446625
5065 1 31.5151 50.4957 2.09746
5068 1 29.1835 50.4939 1.27198
5069 1 33.8466 50.4976 0.450311
5074 1 36.1782 50.4995 1.27608
5463 1 0.0347432 52.494 2.08604
5466 1 2.36619 52.4954 0.437426
5462 1 4.69764 52.4968 1.26167
5469 1 7.0291 52.4982 2.08599
5472 1 9.36057 52.4996 0.437619
5468 1 11.692 52.5011 1.26211
5475 1 14.0235 52.5026 2.08668
5478 1 16.355 52.5041 0.438564
5474 1 18.6865 52.5056 1.26331
5481 1 21.0181 52.5072 2.08816
5480 1 25.6811 52.5106 1.26538
5484 1 23.3496 52.5089 0.440331
5487 1 28.0127 52.5123 2.09053
5490 1 30.3442 52.5141 0.443027
5486 1 32.6758 52.5159 1.26841
5493 1 35.0073 52.5178 2.09393
5496 1 37.3389 52.5198 0.446802
5464 1 1.19531 54.5137 1.25726
5886 1 2.35578 56.5334 0.428422
5883 1 0.0243362 56.532 2.07704
5461 1 3.52675 54.5151 2.08146
5882 1 4.68723 56.5348 1.25264
5465 1 5.85821 54.5165 0.432948
5470 1 8.18967 54.518 1.25728
5889 1 7.01869 56.5363 2.07691
5467 1 10.5211 54.5194 2.08168
5892 1 9.35015 56.5378 0.428464
5471 1 12.8526 54.5209 0.433385
5888 1 11.6816 56.5392 1.25285
5895 1 14.0131 56.5408 2.0773
5476 1 15.1841 54.5224 1.25793
5898 1 16.3446 56.5423 0.429042
5473 1 17.5156 54.524 2.08256
5477 1 19.8471 54.5256 0.434494
5894 1 18.6761 56.5439 1.25362
5482 1 22.1786 54.5272 1.25928
5901 1 21.0076 56.5455 2.07827
5479 1 24.5102 54.5289 2.08416
5900 1 25.6706 56.5489 1.255
5904 1 23.3391 56.5472 0.430208
5483 1 26.8417 54.5306 0.436352
5907 1 28.0021 56.5506 2.07987
5485 1 31.5048 54.5342 2.08658
5488 1 29.1732 54.5324 1.26141
5910 1 30.3337 56.5524 0.432041
5489 1 33.8363 54.5361 0.439073
5906 1 32.6652 56.5543 1.25708
5494 1 36.1679 54.538 1.26445
5913 1 34.9968 56.5563 2.0822
5916 1 37.3283 56.5583 0.434651
5884 1 1.18473 58.5517 1.24811
5881 1 3.51617 58.5531 2.07229
5885 1 5.84763 58.5546 0.423736
5890 1 8.17908 58.5561 1.248
5887 1 10.5105 58.5576 2.07232
5891 1 12.842 58.5591 0.423906
5896 1 15.1735 58.5606 1.24832
5893 1 17.505 58.5622 2.07278
5897 1 19.8365 58.5638 0.424516
5902 1 22.168 58.5654 1.24908
5899 1 24.4995 58.5671 2.07371
5903 1 26.831 58.5689 0.42562
5905 1 31.494 58.5725 2.07518
5908 1 29.1625 58.5707 1.25037
5909 1 33.8255 58.5744 0.427294
5914 1 36.157 58.5764 1.25225
6304 1 1.1739 62.5897 1.23873
6306 1 2.34506 60.5714 0.419133
6303 1 0.0136143 60.57 2.06775
6301 1 3.50534 62.5912 2.06289
6302 1 4.67651 60.5729 1.24332
6305 1 5.83679 62.5926 0.414295
6309 1 7.00796 60.5744 2.06754
6310 1 8.16824 62.5941 1.2385
6307 1 10.4997 62.5956 2.06272
6312 1 9.33941 60.5758 0.419014
6308 1 11.6709 60.5773 1.2433
6311 1 12.8311 62.5971 0.414183
6315 1 14.0023 60.5789 2.06762
6316 1 15.1626 62.5987 1.23845
6318 1 16.3338 60.5804 0.4192
6313 1 17.4941 62.6003 2.06273
6314 1 18.6653 60.582 1.24359
6317 1 19.8255 62.6019 0.414268
6321 1 20.9968 60.5837 2.06802
6322 1 22.157 62.6035 1.2386
6324 1 23.3282 60.5853 0.419724
6320 1 25.6597 60.5871 1.24424
6319 1 24.4885 62.6053 2.06296
6327 1 27.9912 60.5888 2.0688
6323 1 26.8199 62.607 0.414576
6330 1 30.3227 60.5907 0.420634
6328 1 29.1514 62.6088 1.23899
6325 1 31.4829 62.6107 2.06344
6329 1 33.8143 62.6126 0.415145
6326 1 32.6542 60.5926 1.24529
6336 1 37.3172 60.5965 0.421997
6334 1 36.1458 62.6146 1.23966
6333 1 34.9857 60.5945 2.07
6726 1 2.33416 64.6094 0.409682
6723 1 0.00271353 64.608 2.05831
6722 1 4.6656 64.6109 1.23384
6729 1 6.99704 64.6124 2.058
6732 1 9.32849 64.6139 0.409392
6735 1 13.9914 64.6169 2.05775
6728 1 11.6599 64.6154 1.23357
6738 1 16.3228 64.6185 0.40917
6734 1 18.6543 64.6201 1.23337
6741 1 20.9857 64.6217 2.05758
6744 1 23.3172 64.6234 0.409026
6740 1 25.6486 64.6252 1.23326
6747 1 27.9801 64.6269 2.0575
6750 1 30.3115 64.6288 0.408976
6746 1 32.643 64.6307 1.23324
6756 1 37.3059 64.6347 0.409039
6753 1 34.9744 64.6326 2.05752
6724 1 1.16296 66.6277 1.22925
6721 1 3.4944 66.6292 2.05339
6725 1 5.82584 66.6307 0.404754
6730 1 8.15728 66.6321 1.22888
6727 1 10.4887 66.6336 2.05301
6731 1 12.8202 66.6352 0.404351
6736 1 15.1516 66.6367 1.22846
6733 1 17.483 66.6383 2.05257
6737 1 19.8145 66.6399 0.403895
6742 1 22.1459 66.6416 1.22799
6739 1 24.4773 66.6433 2.05208
6743 1 26.8087 66.6451 0.403386
6745 1 31.4716 66.6487 2.05153
6748 1 29.1402 66.6469 1.22746
6749 1 33.803 66.6507 0.402821
6754 1 36.1344 66.6526 1.22688
7144 1 1.15206 70.6657 1.2198
7146 1 2.32322 68.6475 0.400197
7141 1 3.4835 70.6672 2.04393
7142 1 4.65466 68.6489 1.22432
7145 1 5.81493 70.6686 0.395244
7149 1 6.98609 68.6504 2.04842
7150 1 8.14636 70.6701 1.2193
7147 1 10.4778 70.6716 2.04333
7152 1 9.31753 68.6519 0.399734
7148 1 11.649 68.6534 1.2238
7151 1 12.8092 70.6731 0.394548
7155 1 13.9804 68.6549 2.04784
7156 1 15.1406 70.6747 1.21851
7158 1 16.3118 68.6565 0.399097
7153 1 17.472 70.6762 2.04243
7154 1 18.6432 68.6581 1.2231
7157 1 19.8034 70.6779 0.393552
7161 1 20.9746 68.6597 2.04709
7162 1 22.1348 70.6795 1.21741
7159 1 24.4662 70.6812 2.04122
7160 1 25.6375 68.6631 1.22222
7164 1 23.3061 68.6614 0.398276
7163 1 26.7976 70.683 0.392227
7167 1 27.9689 68.6649 2.04613
7165 1 31.4604 70.6867 2.03965
7168 1 29.129 70.6848 1.21596
7170 1 30.3003 68.6668 0.397254
7166 1 32.6317 68.6687 1.22112
7169 1 33.7917 70.6886 0.390528
7173 1 34.963 68.6706 2.04496
7174 1 36.1231 70.6906 1.21413
7176 1 37.2944 68.6726 0.395999
7566 1 2.31239 72.6855 0.39081
7562 1 4.64382 72.6869 1.2149
7569 1 6.97525 72.6884 2.03894
7572 1 9.30667 72.6898 0.390172
7568 1 11.6381 72.6913 1.21413
7575 1 13.9695 72.6929 2.03804
7578 1 16.3009 72.6944 0.389125
7574 1 18.6323 72.696 1.21294
7581 1 20.9637 72.6976 2.0367
7580 1 25.6264 72.701 1.21129
7584 1 23.2951 72.6993 0.387638
7587 1 27.9578 72.7028 2.03489
7590 1 30.2892 72.7046 0.385657
7586 1 32.6205 72.7065 1.20913
7593 1 34.9518 72.7085 2.03254
7596 1 37.2832 72.7105 0.383108
7564 1 1.14134 74.7037 1.21052
7986 1 2.30181 76.7234 0.381645
7561 1 3.47277 74.7052 2.03462
7982 1 4.63324 76.7249 1.2057
7565 1 5.8042 74.7066 0.385894
7570 1 8.13562 74.7081 1.20988
7989 1 6.96466 76.7263 2.02969
7567 1 10.467 74.7095 2.03381
7992 1 9.29607 76.7278 0.380838
7571 1 12.7984 74.711 0.384913
7988 1 11.6275 76.7292 1.20469
7995 1 13.9589 76.7307 2.02847
7576 1 15.1298 74.7126 1.20873
7998 1 16.2903 76.7323 0.379396
7573 1 17.4612 74.7141 2.03248
7577 1 19.7926 74.7157 0.38339
7994 1 18.6216 76.7338 1.20302
7582 1 22.124 74.7174 1.20701
8001 1 20.953 76.7354 2.02657
7579 1 24.4553 74.7191 2.03056
8000 1 25.6157 76.7388 1.20065
8004 1 23.2844 76.7371 0.377268
7583 1 26.7867 74.7208 0.381271
8007 1 27.947 76.7405 2.02394
7585 1 31.4494 74.7244 2.028
7588 1 29.118 74.7226 1.20468
8010 1 30.2784 76.7424 0.37437
7589 1 33.7807 74.7263 0.378474
8006 1 32.6097 76.7442 1.19747
7594 1 36.112 74.7283 1.20163
8013 1 34.941 76.7461 2.02047
8016 1 37.2723 76.7481 0.370583
7984 1 1.13093 78.7417 1.20152
7981 1 3.46237 78.7431 2.0256
7985 1 5.79379 78.7446 0.376829
7990 1 8.1252 78.746 1.20075
7987 1 10.4566 78.7474 2.02459
7991 1 12.788 78.7489 0.375575
7996 1 15.1194 78.7504 1.19925
7993 1 17.4508 78.7519 2.02283
7997 1 19.7821 78.7535 0.373552
8002 1 22.1135 78.7551 1.19695
7999 1 24.4448 78.7568 2.02025
8003 1 26.7762 78.7585 0.370682
8005 1 31.4388 78.7621 2.01676
8008 1 29.1075 78.7603 1.19378
8009 1 33.7701 78.764 0.366848
8014 1 36.1014 78.7659 1.18959
8406 1 2.2916 80.7614 0.37282
8402 1 4.62303 80.7628 1.19685
8409 1 6.95445 80.7642 2.02078
8412 1 9.28585 80.7657 0.371852
8408 1 11.6173 80.7671 1.1956
8415 1 13.9486 80.7686 2.01926
8418 1 16.28 80.7701 0.370039
8414 1 18.6114 80.7716 1.19349
8421 1 20.9427 80.7732 2.01684
8420 1 25.6054 80.7765 1.19044
8424 1 23.2741 80.7748 0.367311
8427 1 27.9367 80.7782 2.01345
8430 1 30.268 80.7799 0.363556
8426 1 32.5993 80.7818 1.18631
8433 1 34.9306 80.7837 2.00892
8436 1 37.2619 80.7856 0.358619
8404 1 1.12096 82.7797 1.19291
8826 1 2.2819 84.7994 0.364438
8401 1 3.4524 82.7811 2.01697
8822 1 4.61332 84.8008 1.18844
8405 1 5.78382 82.7825 0.368161
8410 1 8.11523 82.7839 1.19202
8829 1 6.94474 84.8021 2.01232
8407 1 10.4466 82.7853 2.01578
8832 1 9.27614 84.8035 0.363321
8411 1 12.778 82.7867 0.366652
8828 1 11.6075 84.8049 1.18698
8835 1 13.9389 84.8063 2.01052
8416 1 15.1094 82.7882 1.19019
8838 1 16.2703 84.8078 0.361167
8413 1 17.4408 82.7897 2.01362
8417 1 19.7721 82.7912 0.364165
8834 1 18.6017 84.8093 1.18446
8422 1 22.1035 82.7928 1.18736
8841 1 20.933 84.8108 2.00763
8419 1 24.4348 82.7944 2.01043
8840 1 25.5957 84.814 1.18078
8844 1 23.2644 84.8124 0.357889
8423 1 26.7661 82.7961 0.360601
8847 1 27.927 84.8156 2.00353
8425 1 31.4288 82.7996 2.00607
8428 1 29.0975 82.7978 1.18341
8850 1 30.2583 84.8174 0.353353
8429 1 33.7601 82.8014 0.355811
8846 1 32.5897 84.8192 1.17579
8434 1 36.0913 82.8033 1.17817
8853 1 34.9209 84.821 1.99805
8856 1 37.2522 84.8229 0.347369
8824 1 1.11154 86.8177 1.18479
8821 1 3.44297 86.8191 2.00884
8825 1 5.77439 86.8204 0.359986
8830 1 8.1058 86.8217 1.18379
8827 1 10.4372 86.8231 2.00747
8831 1 12.7686 86.8245 0.358245
8836 1 15.1 86.8259 1.18167
8833 1 17.4313 86.8273 2.00496
8837 1 19.7627 86.8288 0.355338
8842 1 22.0941 86.8303 1.17835
8839 1 24.4254 86.8319 2.00121
8843 1 26.7568 86.8335 0.351146
8845 1 31.4194 86.8369 1.99607
8848 1 29.0881 86.8352 1.17369
8849 1 33.7507 86.8387 0.345494
8854 1 36.082 86.8405 1.1675
9244 1 1.10276 90.8557 1.17724
9246 1 2.27278 88.8374 0.356588
9241 1 3.43419 90.857 2.00127
9242 1 4.60421 88.8387 1.18056
9245 1 5.76561 90.8583 0.352384
9249 1 6.93563 88.84 2.0044
9250 1 8.09703 90.8595 1.17613
9247 1 10.4284 90.8608 1.99974
9252 1 9.26703 88.8413 0.355336
9248 1 11.5984 88.8426 1.17891
9251 1 12.7598 90.8622 0.350436
9255 1 13.9298 88.844 2.00235
9256 1 15.0912 90.8635 1.17375
9258 1 16.2612 88.8454 0.352874
9253 1 17.4226 90.8649 1.99692
9254 1 18.5926 88.8468 1.17603
9257 1 19.754 90.8663 0.347155
9261 1 20.9239 88.8483 1.99903
9262 1 22.0854 90.8677 1.17
9259 1 24.4167 90.8692 1.99268
9260 1 25.5867 88.8514 1.17179
9264 1 23.2553 88.8498 0.349104
9263 1 26.7481 90.8708 0.342405
9267 1 27.918 88.853 1.9943
9265 1 31.4108 90.874 1.98684
9268 1 29.0795 90.8724 1.16472
9270 1 30.2494 88.8546 0.343868
9266 1 32.5807 88.8563 1.16602
9269 1 33.7422 90.8757 0.33599
9273 1 34.912 88.8581 1.98797
9274 1 36.0736 90.8775 1.1577
9276 1 37.2434 88.86 0.336951
9666 1 2.26435 92.8754 0.349339
9662 1 4.59578 92.8766 1.17329
9669 1 6.9272 92.8778 1.99709
9672 1 9.25861 92.8791 0.347967
9668 1 11.59 92.8803 1.17147
9675 1 13.9214 92.8816 1.99482
9678 1 16.2528 92.8829 0.345234
9674 1 18.5842 92.8843 1.16826
9681 1 20.9156 92.8857 1.99112
9680 1 25.5784 92.8886 1.16353
9684 1 23.247 92.8871 0.34103
9687 1 27.9098 92.8901 1.98584
9690 1 30.2411 92.8917 0.33518
9686 1 32.5725 92.8933 1.15708
9693 1 34.9039 92.895 1.97876
9696 1 37.2353 92.8968 0.327442
9664 1 1.09469 94.8937 1.17032
10086 1 2.25666 96.9133 0.342747
9661 1 3.42612 94.8949 1.99433
10082 1 4.58809 96.9145 1.16667
9665 1 5.75755 94.8961 0.345419
9670 1 8.08897 94.8973 1.16912
10089 1 6.91951 96.9156 1.99044
9667 1 10.4204 94.8985 1.99267
10092 1 9.25094 96.9168 0.341269
10088 1 11.5824 96.9179 1.16471
9671 1 12.7518 94.8998 0.343288
10095 1 13.9138 96.9192 1.98798
9676 1 15.0832 94.901 1.16651
10098 1 16.2452 96.9204 0.338302
9673 1 17.4146 94.9023 1.98957
9677 1 19.746 94.9037 0.33968
10094 1 18.5766 96.9216 1.16122
9682 1 22.0774 94.905 1.16238
10101 1 20.908 96.9229 1.98395
9679 1 24.4088 94.9064 1.9849
10100 1 25.5709 96.9257 1.15606
10104 1 23.2395 96.9243 0.333722
9683 1 26.7402 94.9079 0.334445
10107 1 27.9023 96.9271 1.9782
9685 1 31.4031 94.9109 1.97846
9688 1 29.0716 94.9094 1.15656
10110 1 30.2338 96.9286 0.327339
9689 1 33.7345 94.9126 0.327364
10106 1 32.5652 96.9301 1.14902
9694 1 36.0659 94.9142 1.1488
10113 1 34.8967 96.9317 1.97047
10116 1 37.2282 96.9333 0.31889
10084 1 1.08739 98.9317 1.16408
10081 1 3.41882 98.9328 1.98808
10085 1 5.75025 98.9339 0.339135
10090 1 8.08168 98.935 1.1628
10087 1 10.4131 98.9362 1.9863
10091 1 12.7445 98.9373 0.336848
10096 1 15.076 98.9385 1.15999
10093 1 17.4074 98.9397 1.98296
10097 1 19.7388 98.9409 0.332959
10102 1 22.0703 98.9422 1.15554
10099 1 24.4017 98.9435 1.97791
10103 1 26.7332 98.9448 0.327305
10105 1 31.3961 98.9477 1.97096
10108 1 29.0647 98.9462 1.14925
10109 1 33.7276 98.9492 0.319651
10114 1 36.0592 98.9507 1.14086
10506 1 2.24976 100.951 0.336849
10502 1 4.58119 100.952 1.16076
10509 1 6.91263 100.953 1.98449
10512 1 9.24406 100.954 0.335281
10508 1 11.5755 100.956 1.15867
10515 1 13.9069 100.957 1.98187
10518 1 16.2384 100.958 0.332113
10514 1 18.5698 100.959 1.15494
10521 1 20.9013 100.96 1.97756
10520 1 25.5642 100.963 1.14942
10524 1 23.2328 100.961 0.327212
10527 1 27.8957 100.964 1.9714
10530 1 30.2272 100.965 0.320374
10526 1 32.5588 100.967 1.14188
10533 1 34.8903 100.968 1.96312
10536 1 37.2219 100.97 0.311315
10504 1 1.0809 102.97 1.15854
10926 1 2.24368 104.989 0.331672
10501 1 3.41233 102.971 1.98253
10922 1 4.57512 104.99 1.15556
10505 1 5.74377 102.972 0.333566
10510 1 8.07521 102.973 1.1572
10929 1 6.90656 104.991 1.97927
10507 1 10.4067 102.974 1.98065
10932 1 9.23801 104.992 0.330027
10928 1 11.5695 104.993 1.15337
10511 1 12.7381 102.975 0.331146
10935 1 13.9009 104.994 1.97651
10516 1 15.0696 102.976 1.15422
10938 1 16.2324 104.995 0.32669
10513 1 17.401 102.977 1.97711
10517 1 19.7325 102.978 0.327019
10934 1 18.5639 104.996 1.14944
10522 1 22.064 102.979 1.14949
10941 1 20.8954 104.997 1.97198
10519 1 24.3955 102.98 1.97175
10940 1 25.5584 104.999 1.14361
10944 1 23.2269 104.998 0.321521
10523 1 26.727 102.982 0.321011
10947 1 27.89 105.001 1.96547
10525 1 31.3901 102.984 1.96435
10528 1 29.0585 102.983 1.14281
10950 1 30.2216 105.002 0.314299
10529 1 33.7217 102.986 0.312869
10946 1 32.5532 105.003 1.13564
10534 1 36.0533 102.987 1.13388
10953 1 34.8848 105.004 1.95671
10956 1 37.2165 105.006 0.304724
10924 1 1.07524 107.008 1.15373
10921 1 3.40668 107.009 1.97771
10925 1 5.73813 107.009 0.32873
10930 1 8.06958 107.01 1.15234
10927 1 10.401 107.011 1.97575
10931 1 12.7325 107.012 0.326199
10936 1 15.064 107.013 1.14922
10933 1 17.3955 107.014 1.97204
10937 1 19.727 107.015 0.321874
10942 1 22.0585 107.016 1.14426
10939 1 24.3901 107.017 1.96642
10943 1 26.7216 107.018 0.315571
10945 1 31.3849 107.021 1.95866
10948 1 29.0532 107.019 1.13724
10949 1 33.7166 107.022 0.30702
10954 1 36.0483 107.023 1.12787
11344 1 1.07045 111.046 1.14966
11346 1 2.23846 109.027 0.32723
11341 1 3.40189 111.046 1.97363
11342 1 4.5699 109.028 1.15111
11345 1 5.73334 111.047 0.324638
11349 1 6.90135 109.029 1.9748
11350 1 8.0648 111.048 1.14822
11347 1 10.3963 111.049 1.97161
11352 1 9.23281 109.03 0.325522
11348 1 11.5643 109.03 1.14882
11351 1 12.7278 111.05 0.322017
11355 1 13.8958 109.031 1.97192
11356 1 15.0593 111.05 1.14499
11358 1 16.2273 109.032 0.322046
11353 1 17.3908 111.051 1.96776
11354 1 18.5588 109.033 1.14473
11357 1 19.7223 111.052 0.317531
11361 1 20.8903 109.034 1.96719
11362 1 22.0539 111.053 1.13985
11359 1 24.3855 111.054 1.96193
11360 1 25.5535 109.036 1.13865
11364 1 23.2219 109.035 0.316655
11363 1 26.7171 111.055 0.310986
11367 1 27.8851 109.037 1.9604
11365 1 31.3805 111.057 1.95386
11368 1 29.0488 111.056 1.13256
11370 1 30.2167 109.038 0.309116
11366 1 32.5484 109.039 1.13033
11369 1 33.7123 111.058 0.3021
11373 1 34.8802 109.04 1.95126
11374 1 36.0441 111.059 1.12281
11376 1 37.212 109.042 0.29911
11766 1 2.23409 113.065 0.323529
11762 1 4.56554 113.066 1.1474
11769 1 6.897 113.066 1.97107
11772 1 9.22848 113.067 0.321771
11768 1 11.56 113.068 1.14504
11775 1 13.8915 113.069 1.96811
11778 1 16.223 113.069 0.318184
11774 1 18.5545 113.07 1.14082
11781 1 20.8861 113.071 1.96322
11780 1 25.5494 113.073 1.13453
11784 1 23.2177 113.072 0.312614
11787 1 27.881 113.073 1.9562
11790 1 30.2128 113.074 0.304818
11786 1 32.5445 113.075 1.12593
11793 1 34.8764 113.076 1.94674
11796 1 37.2082 113.077 0.294462
11764 1 1.06652 115.084 1.14634
11761 1 3.39796 115.084 1.9703
11765 1 5.72942 115.085 0.321294
11770 1 8.06089 115.086 1.14486
11767 1 10.3924 115.086 1.96822
11771 1 12.7239 115.087 0.318602
11776 1 15.0554 115.088 1.14154
11773 1 17.387 115.088 1.96427
11777 1 19.7185 115.089 0.313988
11782 1 22.0502 115.09 1.13625
11779 1 24.3818 115.09 1.95826
11783 1 26.7135 115.091 0.307252
11785 1 31.377 115.093 1.94995
11788 1 29.0452 115.092 1.12874
11789 1 33.7088 115.094 0.298097
11794 1 36.0407 115.094 1.1187
12184 1 1.06346 119.122 1.14376
12186 1 2.2306 117.103 0.320573
12181 1 3.3949 119.122 1.96771
12182 1 4.56205 117.104 1.14443
12185 1 5.72637 119.123 0.318697
12189 1 6.89352 117.104 1.96809
12190 1 8.05785 119.123 1.14225
12187 1 10.3893 119.124 1.96559
12192 1 9.225 117.105 0.318776
12188 1 11.5565 117.105 1.14202
12191 1 12.7209 119.124 0.315951
12195 1 13.888 117.106 1.96506
12196 1 15.0524 119.125 1.13887
12198 1 16.2196 117.106 0.315102
12193 1 17.384 119.125 1.96156
12194 1 18.5512 117.107 1.13769
12197 1 19.7156 119.126 0.311241
12201 1 20.8828 117.108 1.96005
12202 1 22.0472 119.126 1.13346
12199 1 24.3789 119.127 1.95543
12200 1 25.5461 117.109 1.13125
12204 1 23.2144 117.108 0.309393
12203 1 26.7106 119.127 0.304359
12207 1 27.8778 117.11 1.95285
12205 1 31.3742 119.129 1.94693
12208 1 29.0424 119.128 1.12579
12210 1 30.2096 117.11 0.301397
12206 1 32.5414 117.111 1.12242