LAMMPS (29 Oct 2020)
OMP_NUM_THREADS environment is not set. Defaulting to 1 thread. (../comm.cpp:94)
  using 1 OpenMP thread(s) per MPI task
OMP_NUM_THREADS environment is not set. Defaulting to 1 thread. (../comm.cpp:94)
  using 1 OpenMP thread(s) per MPI task
Reading data file ...
  triclinic box = (0.0000000 0.0000000 0.0000000) to (27.894000 334.72800 27.894000) with tilt (0.0000000 0.0000000 0.0000000)
  2 by 13 by 2 MPI processor grid
  reading atoms ...
  24000 atoms
  reading velocities ...
  24000 velocities
Finding 1-2 1-3 1-4 neighbors ...
  special bond factors lj:    0.0      0.0      0.0     
  special bond factors coul:  0.0      0.0      0.0     
     0 = max # of 1-2 neighbors
     0 = max # of 1-3 neighbors
     0 = max # of 1-4 neighbors
     1 = max # of special neighbors
  special bonds CPU = 0.006 seconds
  read_data CPU = 0.082 seconds
180 atoms in group vac_O
180 atoms in group oct_O
3000 atoms in group tot_oct_Th
3000 atoms in group tot_oct_O
2820 atoms in group delete_oct_O
WARNING: Ignoring 'compress yes' for molecular system (../delete_atoms.cpp:125)
Deleted 180 atoms, new total = 23820
WARNING: Ignoring 'compress yes' for molecular system (../delete_atoms.cpp:125)
Deleted 3000 atoms, new total = 20820
WARNING: Ignoring 'compress yes' for molecular system (../delete_atoms.cpp:125)
Deleted 2820 atoms, new total = 18000
Setting atom values ...
  11820 settings made for charge
Setting atom values ...
  6000 settings made for charge
Setting atom values ...
  180 settings made for charge
Setting atom values ...
  0 settings made for charge
PPPM initialization ...
  using 12-bit tables for long-range coulomb (../kspace.cpp:328)
  G vector (1/distance) = 0.29916851
  grid = 40 240 40
  stencil order = 5
  estimated absolute RMS force accuracy = 0.00015502622
  estimated relative force accuracy = 1.0765975e-05
  using single precision MKL FFT
  3d grid and FFT values/proc = 18225 7600
Neighbor list info ...
  update every 1 steps, delay 0 steps, check yes
  max neighbors/atom: 2000, page size: 100000
  master list distance cutoff = 13
  ghost atom cutoff = 13
  binsize = 6.5, bins = 5 52 5
  2 neighbor lists, perpetual/occasional/extra = 2 0 0
  (1) pair coul/long, perpetual
      attributes: half, newton on
      pair build: half/bin/newton/tri
      stencil: half/bin/3d/newton/tri
      bin: standard
  (2) pair eam/alloy, perpetual, copy from (1)
      attributes: half, newton on
      pair build: copy
      stencil: none
      bin: none
Setting up cg style minimization ...
  Unit style    : metal
  Current step  : 0
WARNING: Energy due to 3 extra global DOFs will be included in minimizer energies
Per MPI rank memory allocation (min/avg/max) = 10.44 | 10.47 | 10.49 Mbytes
Step Temp E_pair E_mol TotEng Press Volume 
       0            0   -234225.85            0   -234225.85    11168.322    260443.57 
     338            0   -235909.75            0   -235909.75   -1432.5789    262458.39 
Loop time of 5.62391 on 52 procs for 338 steps with 18000 atoms

99.5% CPU use with 52 MPI tasks x 1 OpenMP threads

Minimization stats:
  Stopping criterion = linesearch alpha is zero
  Energy initial, next-to-last, final = 
     -234225.845385233  -235909.754692337  -235909.754692337
  Force two-norm initial, final = 3164.0101 409.41483
  Force max component initial, final = 1916.8660 262.48948
  Final line search alpha, max atom move = 6.0165540e-14 1.5792821e-11
  Iterations, force evaluations = 338 464

MPI task timing breakdown:
Section |  min time  |  avg time  |  max time  |%varavg| %total
---------------------------------------------------------------
Pair    | 3.0321     | 3.1745     | 3.3641     |   4.2 | 56.45
Bond    | 4.2297e-05 | 5.9079e-05 | 8.3033e-05 |   0.0 |  0.00
Kspace  | 0.92242    | 1.1131     | 1.2552     |   7.2 | 19.79
Neigh   | 0.0108     | 0.012305   | 0.014174   |   0.7 |  0.22
Comm    | 0.10735    | 0.11063    | 0.11336    |   0.4 |  1.97
Output  | 0          | 0          | 0          |   0.0 |  0.00
Modify  | 0          | 0          | 0          |   0.0 |  0.00
Other   |            | 1.213      |            |       | 21.57

Nlocal:        346.154 ave         402 max         298 min
Histogram: 2 4 6 10 6 11 7 3 1 2
Nghost:        5624.17 ave        5753 max        5497 min
Histogram: 2 7 5 8 6 2 8 5 4 5
Neighs:       111767.0 ave      129537 max       96646 min
Histogram: 2 5 5 11 5 10 8 3 1 2

Total # of neighbors = 5811868
Ave neighs/atom = 322.88156
Ave special neighs/atom = 0.0000000
Neighbor list builds = 3
Dangerous builds = 0
Resetting atom IDs ...
PPPM initialization ...
  using 12-bit tables for long-range coulomb (../kspace.cpp:328)
  G vector (1/distance) = 0.29902569
  grid = 40 240 40
  stencil order = 5
  estimated absolute RMS force accuracy = 0.0001561807
  estimated relative force accuracy = 1.084615e-05
  using single precision MKL FFT
  3d grid and FFT values/proc = 18225 7600
Finding 1-2 1-3 1-4 neighbors ...
  special bond factors lj:    0.0      0.0      0.0     
  special bond factors coul:  0.0      0.0      0.0     
     0 = max # of 1-2 neighbors
     0 = max # of 1-3 neighbors
     0 = max # of 1-4 neighbors
     1 = max # of special neighbors
  special bonds CPU = 0.001 seconds
PPPM initialization ...
  using 12-bit tables for long-range coulomb (../kspace.cpp:328)
  G vector (1/distance) = 0.29902569
  grid = 40 240 40
  stencil order = 5
  estimated absolute RMS force accuracy = 0.0001561807
  estimated relative force accuracy = 1.084615e-05
  using single precision MKL FFT
  3d grid and FFT values/proc = 18225 7600
Setting up Verlet run ...
  Unit style    : metal
  Current step  : 0
  Time step     : 0.001
Per MPI rank memory allocation (min/avg/max) = 10.59 | 10.62 | 10.64 Mbytes
Step Temp KinEng PotEng Press 
       0          600     1395.932   -235909.76     4248.089 
  100000    602.13857    1400.9075    -235227.8     377.7017 
Loop time of 942.985 on 52 procs for 100000 steps with 18000 atoms

Performance: 9.162 ns/day, 2.619 hours/ns, 106.046 timesteps/s
99.8% CPU use with 52 MPI tasks x 1 OpenMP threads

MPI task timing breakdown:
Section |  min time  |  avg time  |  max time  |%varavg| %total
---------------------------------------------------------------
Pair    | 562.01     | 571.06     | 584.88     |  22.7 | 60.56
Bond    | 0.010069   | 0.014157   | 0.018696   |   2.0 |  0.00
Kspace  | 197.11     | 210.33     | 219.59     |  37.8 | 22.30
Neigh   | 2.4847     | 2.6036     | 2.7799     |   4.2 |  0.28
Comm    | 26.802     | 27.63      | 28.741     |   9.8 |  2.93
Output  | 0.0059442  | 0.0059488  | 0.0061206  |   0.0 |  0.00
Modify  | 115.01     | 121.63     | 127.57     |  29.0 | 12.90
Other   |            | 9.703      |            |       |  1.03

Nlocal:        346.154 ave         368 max         326 min
Histogram: 2 4 7 7 7 10 7 1 4 3
Nghost:        5621.79 ave        5704 max        5532 min
Histogram: 6 11 3 2 4 3 2 1 10 10
Neighs:       110748.0 ave      117830 max      103869 min
Histogram: 1 5 6 5 10 9 7 4 2 3

Total # of neighbors = 5758900
Ave neighs/atom = 319.93889
Ave special neighs/atom = 0.0000000
Neighbor list builds = 637
Dangerous builds = 0
System init for write_data ...
PPPM initialization ...
  using 12-bit tables for long-range coulomb (../kspace.cpp:328)
  G vector (1/distance) = 0.29882278
  grid = 40 240 40
  stencil order = 5
  estimated absolute RMS force accuracy = 0.00015780854
  estimated relative force accuracy = 1.0959196e-05
  using single precision MKL FFT
  3d grid and FFT values/proc = 18225 7600
Total wall time: 0:15:49
