LAMMPS (29 Oct 2020)
OMP_NUM_THREADS environment is not set. Defaulting to 1 thread. (../comm.cpp:94)
  using 1 OpenMP thread(s) per MPI task
#-------------------------------
#
#This input script is used to simulate the defected configuration generated by overlapping cascades initiated at
#different energies
#Ziqiang Wang on 01/24/2022
#
#-------------------------------

clear
OMP_NUM_THREADS environment is not set. Defaulting to 1 thread. (../comm.cpp:94)
  using 1 OpenMP thread(s) per MPI task
units                    metal
dimension                    3
boundary                 p p p
atom_style               full
atom_modify              map  array

read_data               perfect_relaxed.dat
Reading data file ...
  triclinic box = (0.0000000 0.0000000 0.0000000) to (27.894000 334.72800 27.894000) with tilt (0.0000000 0.0000000 0.0000000)
  2 by 13 by 2 MPI processor grid
  reading atoms ...
  24000 atoms
  reading velocities ...
  24000 velocities
Finding 1-2 1-3 1-4 neighbors ...
  special bond factors lj:    0.0      0.0      0.0     
  special bond factors coul:  0.0      0.0      0.0     
     0 = max # of 1-2 neighbors
     0 = max # of 1-3 neighbors
     0 = max # of 1-4 neighbors
     1 = max # of special neighbors
  special bonds CPU = 0.006 seconds
  read_data CPU = 0.082 seconds

variable                ratio    equal   0.01

group                   vac_O    id      6002  6033  6062  6186  6206  6224  6272  6312  6352  6455  6482  6513                                           6612  6641  6752  6783  6905  6945  7082  7106  7126  7202  7242  7282                                           6993  7422  7453  7552  7586  7692  7723  7851  7885  7925  7624  8037                                           8052  8057  8072  7752  8325  8365  8482  8497  8502  8517  8652  8765                                           8805  8957  8972  8977  8992  9251  9285  9412  9437  9452  9142  9572                                           9333  9722  9753  9782  9886  9902  9917  9972 10020 10052 10173 10202                                          10233 10337 10352 10367 10472 10503 10622 10653 10682 10816 10836 10922                                          10962 11113 11142 11173 11282 11297 11312 11380 11412 11443 11562 11593                                          11692 11741 11832 11872 12001 12029 12061 12185 12205 12271 12311 12354                                          12453 12481 12509 12611 12640  6749 12779 12909  6939 12949 13081 13105                                          13125 13201 13241 13281 12989 13421 13449 13585 13604 13691 13853  7879                                          13889  7919 13929 13623 14039 14059 13754  8149  8189  8319 14329  8359                                          14369 14484 14504 14523  8589  8629 14654  8759 14769 14801 14829 14959                                          14980  9079  9119 15261 15289 15411 15432 15450  9529 15571 15329 15721                                          15749 15781 15885 15904 15923 15971 16051 16169 16201 16229 16339 16360
180 atoms in group vac_O

group                   oct_O    id      18065 18079 18095 21161 21181 21386 18215 18235 18435 18304 18320 18334                                           18362 21396 18455 18469 18531 18551 18793 21616 21636 18665 18685 18885                                           18754 18770 18784 18812 21846 18905 18919 18986 19006 19223 22081 19095                                           19109 19115 19315 19135 19241 19261 19320 19334 19340 19354 19585 19461                                           19481 19550 19564 19570 19765 19681 19701 19953 19780 19794 19815 19845                                           19909 19925 19939 20150 23011 20035 20049 20065 23081 20285 20164 20180                                           20375 20250 20264 20278 20315 20510 20390 20404 20600 23476 23496 20525                                           20545 20614 20630 20825 20700 20714 20728 23741 20765 20960 20840 20854                                           20886 23926 20975 20995 21063 21078 21093 21168 21188 21213 21233 21437                                           21303 21318 21333 21362 21403 21444 21468 21533 21539 21553 21792 21623                                           21643 21663 21683 21883 21753 21768 21783 21853 21872 21903 21988 21994                                           22008 22014 22224 22087 22097 22117 22137 22144 22164 22229 22243 22249                                           22263 22322 22342 22542 22364 22384 22587 22449 22463 22478 22674 22552                                           22573 22594 22614 22688 22703 22952 22773 22793 22814 22843 22908 22923                                           22938 23148 23018 23037 23242 23063 23283 23163 23178 23374 23252 23273
180 atoms in group oct_O

group                   tot_oct_Th   type   4
3000 atoms in group tot_oct_Th
group                   tot_oct_O    type   3
3000 atoms in group tot_oct_O

group                   delete_oct_O    subtract   tot_oct_O   oct_O
2820 atoms in group delete_oct_O


delete_atoms            group  vac_O
WARNING: Ignoring 'compress yes' for molecular system (../delete_atoms.cpp:125)
Deleted 180 atoms, new total = 23820
delete_atoms            group  tot_oct_Th
WARNING: Ignoring 'compress yes' for molecular system (../delete_atoms.cpp:125)
Deleted 3000 atoms, new total = 20820
delete_atoms            group  delete_oct_O
WARNING: Ignoring 'compress yes' for molecular system (../delete_atoms.cpp:125)
Deleted 2820 atoms, new total = 18000

kspace_style                   pppm            1.0e-5
pair_style                     hybrid/overlay     coul/long    11.0   eam/alloy
pair_coeff                     * * coul/long
pair_coeff                     * * eam/alloy CeThUNpPuAmCmO.eam.alloy O Th O Th
neighbor                 2.0  bin
neigh_modify             delay  0  every  1  check   yes

set                      type      1      charge    -1.1104
Setting atom values ...
  11820 settings made for charge
set                      type      2      charge     2.2208
Setting atom values ...
  6000 settings made for charge
set                      type      3      charge    -1.1104
Setting atom values ...
  180 settings made for charge
set                      type      4      charge     2.2208
Setting atom values ...
  0 settings made for charge

# Minimize the defected configuration at 0K
min_style                cg
fix                      relax   all  box/relax  aniso 0.0 vmax 0.001
minimize                 1.0e-30 1.0e-30 10000 10000
PPPM initialization ...
  using 12-bit tables for long-range coulomb (../kspace.cpp:328)
  G vector (1/distance) = 0.29916851
  grid = 40 240 40
  stencil order = 5
  estimated absolute RMS force accuracy = 0.00015502622
  estimated relative force accuracy = 1.0765975e-05
  using single precision MKL FFT
  3d grid and FFT values/proc = 18225 7600
Neighbor list info ...
  update every 1 steps, delay 0 steps, check yes
  max neighbors/atom: 2000, page size: 100000
  master list distance cutoff = 13
  ghost atom cutoff = 13
  binsize = 6.5, bins = 5 52 5
  2 neighbor lists, perpetual/occasional/extra = 2 0 0
  (1) pair coul/long, perpetual
      attributes: half, newton on
      pair build: half/bin/newton/tri
      stencil: half/bin/3d/newton/tri
      bin: standard
  (2) pair eam/alloy, perpetual, copy from (1)
      attributes: half, newton on
      pair build: copy
      stencil: none
      bin: none
Per MPI rank memory allocation (min/avg/max) = 10.44 | 10.47 | 10.49 Mbytes
Step Temp E_pair E_mol TotEng Press Volume 
       0            0   -234225.85            0   -234225.85    11168.322    260443.57 
     338            0   -235909.75            0   -235909.75   -1432.5789    262458.39 
Loop time of 5.62391 on 52 procs for 338 steps with 18000 atoms

99.5% CPU use with 52 MPI tasks x 1 OpenMP threads

Minimization stats:
  Stopping criterion = linesearch alpha is zero
  Energy initial, next-to-last, final = 
     -234225.845385233  -235909.754692337  -235909.754692337
  Force two-norm initial, final = 3164.0101 409.41483
  Force max component initial, final = 1916.8660 262.48948
  Final line search alpha, max atom move = 6.0165540e-14 1.5792821e-11
  Iterations, force evaluations = 338 464

MPI task timing breakdown:
Section |  min time  |  avg time  |  max time  |%varavg| %total
---------------------------------------------------------------
Pair    | 3.0321     | 3.1745     | 3.3641     |   4.2 | 56.45
Bond    | 4.2297e-05 | 5.9079e-05 | 8.3033e-05 |   0.0 |  0.00
Kspace  | 0.92242    | 1.1131     | 1.2552     |   7.2 | 19.79
Neigh   | 0.0108     | 0.012305   | 0.014174   |   0.7 |  0.22
Comm    | 0.10735    | 0.11063    | 0.11336    |   0.4 |  1.97
Output  | 0          | 0          | 0          |   0.0 |  0.00
Modify  | 0          | 0          | 0          |   0.0 |  0.00
Other   |            | 1.213      |            |       | 21.57

Nlocal:        346.154 ave         402 max         298 min
Histogram: 2 4 6 10 6 11 7 3 1 2
Nghost:        5624.17 ave        5753 max        5497 min
Histogram: 2 7 5 8 6 2 8 5 4 5
Neighs:       111767.0 ave      129537 max       96646 min
Histogram: 2 5 5 11 5 10 8 3 1 2

Total # of neighbors = 5811868
Ave neighs/atom = 322.88156
Ave special neighs/atom = 0.0000000
Neighbor list builds = 3
Dangerous builds = 0
unfix                    relax
reset_timestep           0

# Apply the temperature to the system and relax the configurations
reset_atom_ids
Resetting atom IDs ...
PPPM initialization ...
  using 12-bit tables for long-range coulomb (../kspace.cpp:328)
  G vector (1/distance) = 0.29902569
  grid = 40 240 40
  stencil order = 5
  estimated absolute RMS force accuracy = 0.0001561807
  estimated relative force accuracy = 1.084615e-05
  using single precision MKL FFT
  3d grid and FFT values/proc = 18225 7600
Finding 1-2 1-3 1-4 neighbors ...
  special bond factors lj:    0.0      0.0      0.0     
  special bond factors coul:  0.0      0.0      0.0     
     0 = max # of 1-2 neighbors
     0 = max # of 1-3 neighbors
     0 = max # of 1-4 neighbors
     1 = max # of special neighbors
  special bonds CPU = 0.001 seconds
variable                 temp   index  600
velocity                 all  create  ${temp}  4526826  rot  yes  mom  yes  dist  gaussian
velocity                 all  create  600  4526826  rot  yes  mom  yes  dist  gaussian
fix                      npt  all  npt  temp  ${temp}  ${temp}  $(100*dt)  aniso  0.0  0.0  $(1000*dt)
fix                      npt  all  npt  temp  600  ${temp}  $(100*dt)  aniso  0.0  0.0  $(1000*dt)
fix                      npt  all  npt  temp  600  600  $(100*dt)  aniso  0.0  0.0  $(1000*dt)
fix                      npt  all  npt  temp  600  600  0.10000000000000000555  aniso  0.0  0.0  $(1000*dt)
fix                      npt  all  npt  temp  600  600  0.10000000000000000555  aniso  0.0  0.0  1
timestep                 0.001
thermo                   100000
thermo_style             custom  step  temp  ke  pe  press

shell                    mkdir   Frenkel_${ratio}_relax
shell                    mkdir   Frenkel_0.01_relax
dump                     1  all  custom  100000  ./Frenkel_${ratio}_relax/dump_relax.atom.*  id type q mass x y z
dump                     1  all  custom  100000  ./Frenkel_0.01_relax/dump_relax.atom.*  id type q mass x y z
dump_modify              1  element  O Th O Th

run                      100000
PPPM initialization ...
  using 12-bit tables for long-range coulomb (../kspace.cpp:328)
  G vector (1/distance) = 0.29902569
  grid = 40 240 40
  stencil order = 5
  estimated absolute RMS force accuracy = 0.0001561807
  estimated relative force accuracy = 1.084615e-05
  using single precision MKL FFT
  3d grid and FFT values/proc = 18225 7600
Per MPI rank memory allocation (min/avg/max) = 10.59 | 10.62 | 10.64 Mbytes
Step Temp KinEng PotEng Press 
       0          600     1395.932   -235909.76     4248.089 
  100000    602.13857    1400.9075    -235227.8     377.7017 
Loop time of 942.985 on 52 procs for 100000 steps with 18000 atoms

Performance: 9.162 ns/day, 2.619 hours/ns, 106.046 timesteps/s
99.8% CPU use with 52 MPI tasks x 1 OpenMP threads

MPI task timing breakdown:
Section |  min time  |  avg time  |  max time  |%varavg| %total
---------------------------------------------------------------
Pair    | 562.01     | 571.06     | 584.88     |  22.7 | 60.56
Bond    | 0.010069   | 0.014157   | 0.018696   |   2.0 |  0.00
Kspace  | 197.11     | 210.33     | 219.59     |  37.8 | 22.30
Neigh   | 2.4847     | 2.6036     | 2.7799     |   4.2 |  0.28
Comm    | 26.802     | 27.63      | 28.741     |   9.8 |  2.93
Output  | 0.0059442  | 0.0059488  | 0.0061206  |   0.0 |  0.00
Modify  | 115.01     | 121.63     | 127.57     |  29.0 | 12.90
Other   |            | 9.703      |            |       |  1.03

Nlocal:        346.154 ave         368 max         326 min
Histogram: 2 4 7 7 7 10 7 1 4 3
Nghost:        5621.79 ave        5704 max        5532 min
Histogram: 6 11 3 2 4 3 2 1 10 10
Neighs:       110748.0 ave      117830 max      103869 min
Histogram: 1 5 6 5 10 9 7 4 2 3

Total # of neighbors = 5758900
Ave neighs/atom = 319.93889
Ave special neighs/atom = 0.0000000
Neighbor list builds = 637
Dangerous builds = 0
shell                    mkdir  thermal_condu
write_data               ./thermal_condu/Frenkel_${ratio}_relaxed.dat
write_data               ./thermal_condu/Frenkel_0.01_relaxed.dat
System init for write_data ...
PPPM initialization ...
  using 12-bit tables for long-range coulomb (../kspace.cpp:328)
  G vector (1/distance) = 0.29882278
  grid = 40 240 40
  stencil order = 5
  estimated absolute RMS force accuracy = 0.00015780854
  estimated relative force accuracy = 1.0959196e-05
  using single precision MKL FFT
  3d grid and FFT values/proc = 18225 7600

Total wall time: 0:15:49
