LAMMPS (29 Oct 2020)
OMP_NUM_THREADS environment is not set. Defaulting to 1 thread. (../comm.cpp:94)
  using 1 OpenMP thread(s) per MPI task
OMP_NUM_THREADS environment is not set. Defaulting to 1 thread. (../comm.cpp:94)
  using 1 OpenMP thread(s) per MPI task
Reading data file ...
  orthogonal box = (-0.4437009 -5.2519249 -0.44055416) to (27.783701 333.33192 27.780554)
  2 by 13 by 2 MPI processor grid
  reading atoms ...
  17730 atoms
  reading velocities ...
  17730 velocities
Finding 1-2 1-3 1-4 neighbors ...
  special bond factors lj:    0.0      0.0      0.0     
  special bond factors coul:  0.0      0.0      0.0     
     0 = max # of 1-2 neighbors
     0 = max # of 1-3 neighbors
     0 = max # of 1-4 neighbors
     1 = max # of special neighbors
  special bonds CPU = 0.004 seconds
  read_data CPU = 0.064 seconds
Setting atom values ...
  11820 settings made for charge
Setting atom values ...
  5910 settings made for charge
PPPM initialization ...
  using 12-bit tables for long-range coulomb (../kspace.cpp:328)
  G vector (1/distance) = 0.29850448
  grid = 40 240 40
  stencil order = 5
  estimated absolute RMS force accuracy = 0.00015913128
  estimated relative force accuracy = 1.1051056e-05
  using single precision MKL FFT
  3d grid and FFT values/proc = 15000 7600
Neighbor list info ...
  update every 1 steps, delay 0 steps, check yes
  max neighbors/atom: 2000, page size: 100000
  master list distance cutoff = 11.3
  ghost atom cutoff = 11.3
  binsize = 5.65, bins = 5 60 5
  2 neighbor lists, perpetual/occasional/extra = 2 0 0
  (1) pair coul/long, perpetual
      attributes: half, newton on
      pair build: half/bin/newton
      stencil: half/bin/3d/newton
      bin: standard
  (2) pair eam/alloy, perpetual, copy from (1)
      attributes: half, newton on
      pair build: copy
      stencil: none
      bin: none
Setting up Verlet run ...
  Unit style    : metal
  Current step  : 0
  Time step     : 0.001
Per MPI rank memory allocation (min/avg/max) = 8.143 | 8.169 | 8.188 Mbytes
Step Temp E_pair E_mol TotEng Press 
       0         1200   -230202.27            0   -227452.28   -19.683091 
   50000    1189.1816   -230215.37            0   -227490.18   -619.86036 
Loop time of 328.827 on 52 procs for 50000 steps with 17730 atoms

Performance: 13.138 ns/day, 1.827 hours/ns, 152.056 timesteps/s
99.8% CPU use with 52 MPI tasks x 1 OpenMP threads

MPI task timing breakdown:
Section |  min time  |  avg time  |  max time  |%varavg| %total
---------------------------------------------------------------
Pair    | 213.49     | 222.69     | 230.11     |  26.3 | 67.72
Bond    | 0.0031942  | 0.0049726  | 0.0071026  |   1.3 |  0.00
Kspace  | 64.235     | 72.934     | 82.65      |  52.9 | 22.18
Neigh   | 20.463     | 23.094     | 24.978     |  22.7 |  7.02
Comm    | 7.2966     | 7.8421     | 9.3023     |  17.8 |  2.38
Output  | 5.425e-05  | 5.9313e-05 | 0.00026502 |   0.0 |  0.00
Modify  | 0.88441    | 1.6166     | 2.6381     |  45.6 |  0.49
Other   |            | 0.6436     |            |       |  0.20

Nlocal:        340.962 ave         362 max         319 min
Histogram: 4 0 6 6 11 9 6 3 2 5
Nghost:        3983.35 ave        4122 max        3836 min
Histogram: 4 0 7 7 8 7 6 7 2 4
Neighs:        67938.9 ave       72994 max       59888 min
Histogram: 5 0 0 3 3 10 9 13 3 6

Total # of neighbors = 3532822
Ave neighs/atom = 199.25674
Ave special neighs/atom = 0.0000000
Neighbor list builds = 10993
Dangerous builds = 0
11820 atoms in group oxygen
PPPM initialization ...
  using 12-bit tables for long-range coulomb (../kspace.cpp:328)
  G vector (1/distance) = 0.29850448
  grid = 40 240 40
  stencil order = 5
  estimated absolute RMS force accuracy = 0.00015913128
  estimated relative force accuracy = 1.1051056e-05
  using single precision MKL FFT
  3d grid and FFT values/proc = 15000 7600
Setting up Verlet run ...
  Unit style    : metal
  Current step  : 0
  Time step     : 0.001
Per MPI rank memory allocation (min/avg/max) = 8.394 | 8.420 | 8.439 Mbytes
Step f_2 Temp v_Tdiff v_deltaT 
       0            0    1189.1816            0            0 
  100000    1299.3039    1191.2666  0.047344403    549.66412 
  200000    2550.7136    1197.8425  0.056872405    660.28333 
  300000    3779.7399    1198.0496  0.056180411    652.24935 
  400000    5030.7309    1198.9156  0.055414832    643.36105 
  500000    6284.0105    1203.2129  0.056088578    651.18318 
  600000    7531.4792    1195.7676  0.055844265    648.34672 
  700000    8769.1431    1193.5063  0.057875332    671.92723 
  800000    10021.623    1195.5209  0.056216882    652.67278 
  900000    11272.305     1197.823  0.056158091    651.99022 
 1000000    12525.008    1203.3305  0.055821163    648.07852 
Loop time of 6563.94 on 52 procs for 1000000 steps with 17730 atoms

Performance: 13.163 ns/day, 1.823 hours/ns, 152.348 timesteps/s
99.8% CPU use with 52 MPI tasks x 1 OpenMP threads

MPI task timing breakdown:
Section |  min time  |  avg time  |  max time  |%varavg| %total
---------------------------------------------------------------
Pair    | 4193.8     | 4414.3     | 4563.4     | 106.8 | 67.25
Bond    | 0.061789   | 0.095019   | 0.12572    |   4.9 |  0.00
Kspace  | 1277.8     | 1456.3     | 1694.1     | 215.9 | 22.19
Neigh   | 428.88     | 495.54     | 537.75     | 113.8 |  7.55
Comm    | 148.04     | 160.63     | 196.42     |  89.1 |  2.45
Output  | 0.0010593  | 0.0011148  | 0.0023775  |   0.5 |  0.00
Modify  | 5.2798     | 5.7665     | 6.3009     |  10.9 |  0.09
Other   |            | 31.37      |            |       |  0.48

Nlocal:        340.962 ave         366 max         309 min
Histogram: 3 3 4 3 2 14 7 8 4 4
Nghost:        3985.00 ave        4120 max        3841 min
Histogram: 3 6 7 4 3 2 12 7 3 5
Neighs:        67929.8 ave       73606 max       56492 min
Histogram: 2 2 1 1 5 2 7 19 8 5

Total # of neighbors = 3532349
Ave neighs/atom = 199.23006
Ave special neighs/atom = 0.0000000
Neighbor list builds = 235608
Dangerous builds = 0
Total wall time: 1:54:53
