ITEM: TIMESTEP
100000
ITEM: NUMBER OF ATOMS
18000
ITEM: BOX BOUNDS xy xz yz pp pp pp
-1.7505953121306606e-01 2.8069059531213480e+01 0.0000000000000000e+00
-1.9240290888698606e+00 3.3665202908884481e+02 0.0000000000000000e+00
-1.6521953579766296e-01 2.8059219535797645e+01 0.0000000000000000e+00
ITEM: ATOMS id type q mass x y z
187 1 -1.1104 15.9994 2.60547 15.8998 1.08425
8966 2 2.2208 232.038 13.8793 14.8001 2.69958
9040 2 2.2208 232.038 13.4863 6.05324 11.0207
4 1 -1.1104 15.9994 6.71577 21.8402 12.4961
5 1 -1.1104 15.9994 3.94096 21.8843 12.3518
6 1 -1.1104 15.9994 1.32718 21.7723 12.7296
9073 1 -1.1104 15.9994 0.878615 -1.33428 1.12244
8 2 2.2208 232.038 5.41085 0.435741 2.43587
9 1 -1.1104 15.9994 12.6328 18.8776 12.4363
10 2 2.2208 232.038 11.0665 0.306356 2.76902
465 1 -1.1104 15.9994 1.2584 -0.998049 12.7377
9005 2 2.2208 232.038 13.8413 11.7709 5.3315
13 2 2.2208 232.038 2.55965 3.25561 2.46225
39 3 -1.1104 15.9994 9.64464 -0.981386 1.06046
15 1 -1.1104 15.9994 12.5819 16.1384 12.5673
16 1 -1.1104 15.9994 9.85946 18.9081 12.4346
17 2 2.2208 232.038 8.3161 2.75874 2.80497
18 2 2.2208 232.038 5.01952 5.92902 2.52406
19 1 -1.1104 15.9994 6.96375 19.0467 12.479
20 2 2.2208 232.038 11.6248 5.88825 2.62373
21 4 2.2208 232.038 2.53733 17.3833 2.84623
22 2 2.2208 232.038 2.41611 11.8319 0.0026059
23 2 2.2208 232.038 2.6106 8.89647 2.60486
24 4 2.2208 232.038 8.32467 6.27008 2.45441
801 1 -1.1104 15.9994 2.77327 23.0141 2.72475
26 1 -1.1104 15.9994 9.86338 15.9103 12.3486
27 2 2.2208 232.038 8.34669 9.36725 2.58342
28 2 2.2208 232.038 5.2198 11.7694 2.67521
29 1 -1.1104 15.9994 7.1867 16.4451 12.4845
30 2 2.2208 232.038 11.1633 11.8304 2.5262
31 3 -1.1104 15.9994 4.00423 16.4096 12.4698
32 1 -1.1104 15.9994 4.24415 19.0994 12.6112
33 2 2.2208 232.038 2.66528 14.2093 2.45919
34 3 -1.1104 15.9994 6.54122 4.73434 9.73098
347 2 2.2208 232.038 2.5609 8.91752 13.9319
343 4 2.2208 232.038 11.154 14.6664 13.8786
37 2 2.2208 232.038 8.43187 14.517 2.58569
38 2 2.2208 232.038 6.01789 17.3215 2.49243
282 1 -1.1104 15.9994 1.02234 15.7073 9.72413
40 2 2.2208 232.038 11.1381 17.4527 2.57693
41 1 -1.1104 15.9994 1.34092 19.0707 12.3786
9257 1 -1.1104 15.9994 1.20398 4.74477 12.5203
43 2 2.2208 232.038 2.74108 20.6935 2.58341
44 1 -1.1104 15.9994 0.882647 12.8502 9.47945
8968 2 2.2208 232.038 -0.151542 23.2573 2.74267
46 1 -1.1104 15.9994 1.32616 16.1599 12.391
47 2 2.2208 232.038 8.39424 20.2133 2.65674
48 2 2.2208 232.038 5.32762 23.006 2.75387
49 1 -1.1104 15.9994 12.6055 13.4205 12.4748
50 2 2.2208 232.038 11.1905 22.9862 2.40358
415 3 -1.1104 15.9994 1.08448 21.8322 1.07789
52 2 2.2208 232.038 2.63587 0.324087 4.60312
14 3 -1.1104 15.9994 9.68788 10.5826 1.22856
54 4 2.2208 232.038 2.41191 0.141022 7.69165
893 1 -1.1104 15.9994 1.03261 19.263 9.60601
56 2 2.2208 232.038 8.17288 0.0415125 5.38654
8947 2 2.2208 232.038 -0.0836896 19.8963 4.86267
58 2 2.2208 232.038 5.75624 0.41827 8.18972
9613 2 2.2208 232.038 -0.147994 6.09683 13.861
60 2 2.2208 232.038 11.0562 0.203531 8.33791
61 1 -1.1104 15.9994 12.229 10.6074 12.2459
62 2 2.2208 232.038 2.37173 6.04642 5.34354
63 2 2.2208 232.038 2.66197 3.53348 8.30788
64 3 -1.1104 15.9994 7.62088 1.39588 7.20835
65 2 2.2208 232.038 5.11186 2.87719 5.57143
66 2 2.2208 232.038 8.49692 5.82527 5.90162
67 2 2.2208 232.038 8.06096 3.41256 8.39811
68 2 2.2208 232.038 5.36193 5.95794 8.26127
69 2 2.2208 232.038 11.2782 3.19781 5.33428
70 2 2.2208 232.038 11.1773 5.75591 8.12002
8981 2 2.2208 232.038 -0.0878435 0.482396 2.48274
72 2 2.2208 232.038 2.47204 11.6498 5.04405
73 2 2.2208 232.038 2.43967 8.25858 8.18159
74 3 -1.1104 15.9994 4.45946 21.6447 4.15869
75 2 2.2208 232.038 5.43295 8.85546 5.13268
76 2 2.2208 232.038 8.15996 11.8936 5.42902
77 2 2.2208 232.038 7.88788 8.73672 7.96348
78 2 2.2208 232.038 5.7248 11.7405 8.16378
79 2 2.2208 232.038 11.2348 8.70007 4.93552
80 2 2.2208 232.038 10.9579 12.115 8.21995
81 4 2.2208 232.038 2.39191 11.4835 8.31317
82 2 2.2208 232.038 2.50607 17.4863 6.11925
83 2 2.2208 232.038 2.58143 14.6825 8.35104
477 1 -1.1104 15.9994 6.75986 4.8023 12.5625
85 2 2.2208 232.038 5.27899 15.0088 5.13219
86 2 2.2208 232.038 8.31987 17.5116 5.32481
87 2 2.2208 232.038 8.20772 14.8627 8.11359
88 2 2.2208 232.038 5.40116 17.5606 8.35019
89 2 2.2208 232.038 11.187 14.8244 5.43261
90 2 2.2208 232.038 11.1674 17.7092 8.08203
91 3 -1.1104 15.9994 9.42476 21.9331 9.66971
92 2 2.2208 232.038 2.72819 23.2031 5.34242
93 2 2.2208 232.038 2.83759 20.3244 8.26176
9237 1 -1.1104 15.9994 1.06277 22.228 7.09175
95 2 2.2208 232.038 5.44736 20.0843 5.33383
96 2 2.2208 232.038 8.19516 22.9129 5.39573
97 2 2.2208 232.038 8.20878 20.389 8.22742
98 2 2.2208 232.038 5.42378 23.2802 8.45473
99 2 2.2208 232.038 11.2192 20.4767 5.24955
100 2 2.2208 232.038 10.8828 23.058 8.16756
101 3 -1.1104 15.9994 9.50044 13.3701 6.66292
102 2 2.2208 232.038 2.55956 0.568075 11.3787
333 1 -1.1104 15.9994 9.86027 13.2024 12.5624
104 2 2.2208 232.038 8.17963 0.238399 10.9557
803 1 -1.1104 15.9994 1.10751 21.7918 4.24355
106 4 2.2208 232.038 11.1924 9.12372 8.30956
107 2 2.2208 232.038 2.59672 6.01627 11.2697
108 2 2.2208 232.038 5.18816 3.32865 10.9973
109 2 2.2208 232.038 8.10486 6.07043 10.9575
110 2 2.2208 232.038 10.8794 3.28684 10.5715
111 1 -1.1104 15.9994 12.5605 21.9132 12.2226
112 2 2.2208 232.038 2.56087 11.7969 11.394
113 2 2.2208 232.038 5.49862 9.08295 11.1907
114 2 2.2208 232.038 8.39574 11.8568 10.9454
115 2 2.2208 232.038 10.7556 8.94687 11.3544
116 1 -1.1104 15.9994 9.66169 21.6088 12.4332
117 2 2.2208 232.038 2.64926 17.5109 10.9679
118 2 2.2208 232.038 5.57888 14.6222 11.2161
119 2 2.2208 232.038 8.38939 17.5958 10.9887
120 2 2.2208 232.038 11.1439 14.7624 10.7806
217 1 -1.1104 15.9994 2.71374 -1.54428 6.27918
122 2 2.2208 232.038 2.55809 23.2726 11.1582
123 2 2.2208 232.038 5.46126 20.4504 11.1913
124 2 2.2208 232.038 8.14977 23.1804 11.0254
125 2 2.2208 232.038 11.1167 20.3381 11.0612
331 1 -1.1104 15.9994 9.50357 10.4277 12.6373
127 1 -1.1104 15.9994 3.99589 -1.30768 0.993656
8941 2 2.2208 232.038 -0.150636 3.38308 11.1672
129 1 -1.1104 15.9994 4.25139 -1.1677 3.8967
130 1 -1.1104 15.9994 1.13298 2.04351 0.829282
131 1 -1.1104 15.9994 4.04481 1.70279 1.01982
132 1 -1.1104 15.9994 1.1504 1.93952 3.98678
133 1 -1.1104 15.9994 4.12145 1.85661 3.68712
134 1 -1.1104 15.9994 6.7567 -1.17607 1.07342
135 1 -1.1104 15.9994 12.4554 -1.09157 1.17565
136 1 -1.1104 15.9994 7.15567 -0.987431 3.83281
137 1 -1.1104 15.9994 9.82906 -1.35777 4.01537
138 1 -1.1104 15.9994 6.87454 1.6087 1.31318
139 1 -1.1104 15.9994 9.70152 1.94836 1.16002
140 1 -1.1104 15.9994 6.74989 1.72697 4.0253
141 1 -1.1104 15.9994 9.67569 1.49926 4.25416
42 2 2.2208 232.038 2.66596 23.1747 0.21078
143 1 -1.1104 15.9994 12.5606 -0.860011 4.12939
144 1 -1.1104 15.9994 12.475 1.66118 1.25848
145 1 -1.1104 15.9994 12.3996 1.86307 4.00588
146 1 -1.1104 15.9994 1.05532 4.79854 0.967945
147 1 -1.1104 15.9994 4.01947 4.53631 0.967956
148 1 -1.1104 15.9994 1.13161 4.56809 3.64362
149 1 -1.1104 15.9994 4.14749 4.51555 4.07756
150 1 -1.1104 15.9994 0.971567 7.42822 0.919894
151 1 -1.1104 15.9994 3.81131 7.30553 1.2938
152 1 -1.1104 15.9994 1.10032 7.48377 3.91619
153 1 -1.1104 15.9994 3.87151 7.32908 4.12035
154 1 -1.1104 15.9994 6.80589 4.86519 3.54786
155 1 -1.1104 15.9994 10.045 5.75234 0.61172
156 1 -1.1104 15.9994 6.49123 7.66181 3.01081
157 1 -1.1104 15.9994 9.74841 4.70969 3.20321
158 1 -1.1104 15.9994 7.74676 4.30164 1.14278
159 1 -1.1104 15.9994 8.31513 8.06697 0.675027
160 1 -1.1104 15.9994 6.28817 6.30992 0.475549
161 1 -1.1104 15.9994 8.94625 3.59698 5.66964
162 1 -1.1104 15.9994 12.515 4.42205 1.18058
163 1 -1.1104 15.9994 12.9571 4.50666 3.97339
164 1 -1.1104 15.9994 12.5818 7.48565 1.02887
165 1 -1.1104 15.9994 12.9027 7.39444 3.77966
166 1 -1.1104 15.9994 0.981858 10.1802 1.27251
167 1 -1.1104 15.9994 4.04376 9.9622 0.714741
168 1 -1.1104 15.9994 0.949677 10.2877 4.32988
169 1 -1.1104 15.9994 4.14303 10.1744 3.92498
170 1 -1.1104 15.9994 0.974485 13.3005 0.810153
171 1 -1.1104 15.9994 2.81368 11.6756 2.41813
172 1 -1.1104 15.9994 0.904138 13.006 3.93419
173 1 -1.1104 15.9994 6.88271 13.0608 3.9344
174 1 -1.1104 15.9994 6.77442 10.2475 1.03203
175 1 -1.1104 15.9994 10.4938 7.83596 2.63757
176 1 -1.1104 15.9994 6.90809 10.3453 3.82679
177 1 -1.1104 15.9994 8.77964 7.58716 4.3956
178 1 -1.1104 15.9994 7.00315 13.0141 1.13981
179 1 -1.1104 15.9994 9.65298 13.3443 0.838502
180 1 -1.1104 15.9994 9.85191 13.2203 3.83801
181 1 -1.1104 15.9994 9.76313 10.4787 4.03485
182 1 -1.1104 15.9994 12.6011 10.2429 1.10292
183 1 -1.1104 15.9994 12.5964 10.268 3.85166
184 1 -1.1104 15.9994 12.2707 13.2335 1.20762
185 1 -1.1104 15.9994 12.5305 13.2903 4.08656
682 2 2.2208 232.038 11.0883 8.7666 -0.118105
485 1 -1.1104 15.9994 4.18076 13.1751 12.4394
188 1 -1.1104 15.9994 0.848197 17.2671 4.43635
189 1 -1.1104 15.9994 4.85656 15.01 2.46472
190 1 -1.1104 15.9994 0.69196 19.4736 2.74317
126 1 -1.1104 15.9994 2.32626 0.24438 2.49269
329 1 -1.1104 15.9994 3.4469 13.1093 9.72275
193 1 -1.1104 15.9994 4.42397 17.1031 4.27006
194 1 -1.1104 15.9994 7.27149 15.9614 1.17364
195 1 -1.1104 15.9994 9.8564 16.1551 1.16019
196 1 -1.1104 15.9994 7.09942 15.9419 3.93475
197 1 -1.1104 15.9994 9.78289 16.2139 4.01823
198 1 -1.1104 15.9994 7.16964 18.8997 1.0084
199 1 -1.1104 15.9994 9.77483 18.7828 1.22783
200 1 -1.1104 15.9994 7.11073 18.9077 3.98395
201 1 -1.1104 15.9994 9.77974 18.8617 4.09281
202 1 -1.1104 15.9994 12.4379 15.988 1.1836
203 1 -1.1104 15.9994 12.5362 16.1423 4.047
204 1 -1.1104 15.9994 12.5782 18.8372 1.22826
205 1 -1.1104 15.9994 12.4772 18.9056 3.91768
206 1 -1.1104 15.9994 0.433919 17.5909 0.583351
207 1 -1.1104 15.9994 4.19144 21.577 1.06709
208 1 -1.1104 15.9994 4.57947 19.138 2.881
209 1 -1.1104 15.9994 2.71599 19.0309 1.08514
210 1 -1.1104 15.9994 6.82566 21.8523 1.26853
211 1 -1.1104 15.9994 9.76925 21.6695 1.04645
212 1 -1.1104 15.9994 7.13148 21.6996 3.87321
213 1 -1.1104 15.9994 9.96833 21.7929 3.81441
214 1 -1.1104 15.9994 12.5869 21.8233 1.06521
215 1 -1.1104 15.9994 12.6415 21.8994 3.8412
332 1 -1.1104 15.9994 7.09697 13.0936 12.418
330 1 -1.1104 15.9994 6.89248 10.4614 12.5562
216 1 -1.1104 15.9994 0.739341 -1.555 8.12239
328 1 -1.1104 15.9994 1.17029 13.4393 12.5263
9045 2 2.2208 232.038 13.9254 11.9003 10.9081
221 1 -1.1104 15.9994 4.79635 0.325326 6.13464
128 1 -1.1104 15.9994 0.855657 -1.33982 3.98377
223 1 -1.1104 15.9994 3.92849 0.580251 9.51987
224 1 -1.1104 15.9994 6.92502 -1.31602 6.73616
225 1 -1.1104 15.9994 9.53264 -0.995842 6.84401
226 1 -1.1104 15.9994 6.97298 -1.16265 9.52402
35 2 2.2208 232.038 5.52958 14.7096 0.150237
228 1 -1.1104 15.9994 2.76353 2.03282 6.40818
229 1 -1.1104 15.9994 4.80843 2.6394 7.98279
230 1 -1.1104 15.9994 6.80621 1.70437 9.76613
231 1 -1.1104 15.9994 9.7453 1.67852 9.48911
232 1 -1.1104 15.9994 12.3535 -1.14245 6.74688
233 1 -1.1104 15.9994 12.4388 -1.35962 9.56618
234 1 -1.1104 15.9994 12.1582 1.61531 6.82144
235 1 -1.1104 15.9994 12.3444 1.4954 9.90718
236 1 -1.1104 15.9994 0.92159 4.52607 6.89319
237 1 -1.1104 15.9994 0.507422 0.234029 6.09548
238 1 -1.1104 15.9994 1.16795 1.89009 8.48068
239 1 -1.1104 15.9994 3.55781 4.88317 6.68024
240 1 -1.1104 15.9994 1.03292 7.22425 6.71924
241 1 -1.1104 15.9994 4.07709 7.34081 6.89385
242 1 -1.1104 15.9994 0.840491 4.80021 9.62
243 1 -1.1104 15.9994 3.9055 4.86352 9.62118
244 1 -1.1104 15.9994 6.70487 4.50825 6.78939
245 1 -1.1104 15.9994 10.2838 3.66261 7.92071
246 1 -1.1104 15.9994 8.75207 3.85137 10.7767
247 1 -1.1104 15.9994 10.7307 5.77063 10.631
248 1 -1.1104 15.9994 6.78268 7.44451 6.50068
249 1 -1.1104 15.9994 10.8026 5.79192 5.54179
250 1 -1.1104 15.9994 6.55207 7.49554 9.46665
251 1 -1.1104 15.9994 8.56284 5.77106 8.33266
252 1 -1.1104 15.9994 12.8441 4.54192 6.64189
644 1 -1.1104 15.9994 4.06831 13.0414 0.773711
254 1 -1.1104 15.9994 12.5363 7.64083 7.05339
255 1 -1.1104 15.9994 12.3196 7.71928 9.70401
256 1 -1.1104 15.9994 0.857079 10.0172 7.324
257 1 -1.1104 15.9994 3.61785 10.25 6.75418
258 1 -1.1104 15.9994 0.876421 7.41657 9.53892
259 1 -1.1104 15.9994 3.90288 7.57143 9.8828
260 1 -1.1104 15.9994 1.1206 12.8077 6.76299
261 1 -1.1104 15.9994 3.93302 12.9507 7.17329
262 1 -1.1104 15.9994 4.19224 10.5265 9.66651
263 1 -1.1104 15.9994 1.32821 10.2818 9.96414
264 1 -1.1104 15.9994 6.62219 10.2835 6.54008
265 1 -1.1104 15.9994 9.81976 7.75452 6.94772
266 1 -1.1104 15.9994 7.11881 10.3567 9.4756
267 1 -1.1104 15.9994 9.40699 8.19101 9.68413
268 1 -1.1104 15.9994 6.91274 13.1734 6.86688
269 1 -1.1104 15.9994 9.24371 10.5188 7.40666
270 1 -1.1104 15.9994 6.80012 13.3971 9.66234
271 1 -1.1104 15.9994 10.2994 10.646 9.79867
272 1 -1.1104 15.9994 11.7562 10.2985 6.48063
273 1 -1.1104 15.9994 12.7982 10.436 9.15178
274 1 -1.1104 15.9994 12.2555 13.4734 6.99975
275 1 -1.1104 15.9994 12.4059 13.2336 9.7214
276 1 -1.1104 15.9994 2.5883 15.2604 4.56657
277 1 -1.1104 15.9994 4.18974 13.0545 4.18744
278 1 -1.1104 15.9994 0.983097 15.6137 6.95227
279 1 -1.1104 15.9994 4.22629 16.0541 9.70218
280 1 -1.1104 15.9994 2.26052 17.5078 8.44012
281 1 -1.1104 15.9994 4.17548 18.8245 7.01134
9239 1 -1.1104 15.9994 1.12101 21.7599 9.91645
283 1 -1.1104 15.9994 3.90079 15.9883 6.97361
284 1 -1.1104 15.9994 6.73787 16.0837 6.68322
285 1 -1.1104 15.9994 9.77228 16.2341 6.7595
286 1 -1.1104 15.9994 7.22251 16.0818 9.67848
287 1 -1.1104 15.9994 9.64214 13.3477 9.57366
288 1 -1.1104 15.9994 7.00652 18.6603 6.80152
289 1 -1.1104 15.9994 9.59471 19.0448 6.74634
290 1 -1.1104 15.9994 6.854 19.062 9.72213
291 1 -1.1104 15.9994 9.98363 16.1706 9.51316
292 1 -1.1104 15.9994 12.5597 16.1691 6.75657
293 1 -1.1104 15.9994 12.6572 16.1391 9.71496
294 1 -1.1104 15.9994 12.474 19.1089 6.85388
295 1 -1.1104 15.9994 12.3242 18.8706 9.58715
296 1 -1.1104 15.9994 2.60319 19.2444 4.62425
297 1 -1.1104 15.9994 3.95453 21.6868 6.94068
298 1 -1.1104 15.9994 4.08869 18.9955 9.85586
299 1 -1.1104 15.9994 3.96107 21.8628 9.64627
300 1 -1.1104 15.9994 6.69167 21.5579 6.67747
301 1 -1.1104 15.9994 9.59691 21.6395 6.74943
302 1 -1.1104 15.9994 6.68539 21.6961 9.58346
303 1 -1.1104 15.9994 9.54362 18.9697 9.59383
304 1 -1.1104 15.9994 12.4372 21.6967 6.85011
305 1 -1.1104 15.9994 12.4922 21.6306 9.47091
463 1 -1.1104 15.9994 6.86618 -1.29344 12.6006
307 1 -1.1104 15.9994 4.07601 -1.19001 12.313
308 1 -1.1104 15.9994 1.06969 2.04097 12.668
309 1 -1.1104 15.9994 4.11403 1.79032 12.8105
310 1 -1.1104 15.9994 9.4021 -0.985872 12.3668
385 2 2.2208 232.038 11.0455 -0.0351344 13.5194
312 1 -1.1104 15.9994 6.74897 1.51122 12.359
313 1 -1.1104 15.9994 9.8856 1.93768 12.461
314 1 -1.1104 15.9994 12.6858 -1.09392 12.3105
315 1 -1.1104 15.9994 12.6827 1.76815 12.9721
316 1 -1.1104 15.9994 2.55244 2.73236 10.6391
253 1 -1.1104 15.9994 12.6044 4.4379 9.47517
318 1 -1.1104 15.9994 1.3012 7.49738 12.4427
319 1 -1.1104 15.9994 4.11445 7.36561 12.7111
320 1 -1.1104 15.9994 4.07731 4.6902 12.5407
321 1 -1.1104 15.9994 9.58827 4.7499 13.2566
322 1 -1.1104 15.9994 6.86574 7.63413 12.511
323 1 -1.1104 15.9994 9.40814 7.53296 12.7456
324 1 -1.1104 15.9994 12.3441 4.44834 12.4751
325 1 -1.1104 15.9994 12.2322 7.86623 12.5673
326 1 -1.1104 15.9994 1.20259 10.429 12.5793
327 1 -1.1104 15.9994 3.87561 10.402 12.6512
192 1 -1.1104 15.9994 0.86206 19.123 6.8806
9621 2 2.2208 232.038 -0.0477483 17.5185 13.8411
227 1 -1.1104 15.9994 9.83468 -1.19864 9.77285
352 2 2.2208 232.038 2.82761 14.7925 13.8777
186 1 -1.1104 15.9994 0.383534 15.4664 2.52615
8952 2 2.2208 232.038 0.0186853 14.795 5.10004
360 2 2.2208 232.038 5.30384 23.0457 13.9214
222 1 -1.1104 15.9994 0.58402 0.096878 10.3196
1 2 2.2208 232.038 13.9226 0.314471 5.48357
342 2 2.2208 232.038 2.77833 3.32124 13.9293
344 2 2.2208 232.038 7.80729 3.21523 13.7045
191 1 -1.1104 15.9994 4.72731 17.3473 0.532699
354 2 2.2208 232.038 7.99498 14.7392 13.8689
9050 2 2.2208 232.038 13.8997 17.3853 11.0971
219 1 -1.1104 15.9994 4.5296 -1.82785 8.44543
8967 2 2.2208 232.038 13.901 20.2652 8.22944
9025 2 2.2208 232.038 13.8952 23.307 5.5052
8948 2 2.2208 232.038 -0.070531 17.2768 8.45206
9016 2 2.2208 232.038 13.8535 14.6717 8.09753
340 2 2.2208 232.038 5.43315 0.334095 13.7632
8945 2 2.2208 232.038 -0.131417 23.7737 8.15059
94 2 2.2208 232.038 10.9262 6.38762 13.8871
84 2 2.2208 232.038 10.9407 23.2597 13.779
631 2 2.2208 232.038 13.7054 11.8231 -0.134715
372 4 2.2208 232.038 11.2744 3.16917 13.8615
359 2 2.2208 232.038 8.25691 20.483 13.8773
8989 2 2.2208 232.038 13.9184 17.5636 27.9812
338 4 2.2208 232.038 2.54848 11.4175 24.9879
339 3 -1.1104 15.9994 1.17651 4.5424 26.4065
9331 2 2.2208 232.038 13.9092 17.4739 16.7468
462 1 -1.1104 15.9994 1.14655 -1.27202 15.3555
664 1 -1.1104 15.9994 4.08892 19.131 26.4783
350 2 2.2208 232.038 11.1629 14.7033 27.9449
523 1 -1.1104 15.9994 12.4937 -1.26441 18.2481
663 1 -1.1104 15.9994 1.01035 18.9669 26.3715
351 2 2.2208 232.038 11.0963 11.5779 13.951
368 2 2.2208 232.038 -0.144463 20.352 16.5636
348 3 -1.1104 15.9994 9.65897 10.2292 23.6877
356 2 2.2208 232.038 10.9933 3.39696 27.8595
524 1 -1.1104 15.9994 12.3885 -0.98296 20.9051
674 1 -1.1104 15.9994 12.6592 16.3127 26.5266
9652 3 -1.1104 15.9994 1.00427 18.8716 23.3278
353 3 -1.1104 15.9994 9.78383 18.7009 26.5898
516 1 -1.1104 15.9994 9.81075 -1.40905 18.1335
11 2 2.2208 232.038 5.65693 17.5128 14.0959
673 1 -1.1104 15.9994 12.3723 16.0786 23.6781
679 1 -1.1104 15.9994 1.20172 21.8911 26.6774
358 3 -1.1104 15.9994 9.53585 4.7989 20.9673
375 2 2.2208 232.038 8.25424 0.286129 27.9416
471 1 -1.1104 15.9994 12.6133 4.40972 15.2293
355 2 2.2208 232.038 5.49639 3.25735 27.9551
357 2 2.2208 232.038 2.71955 20.3567 13.9565
363 2 2.2208 232.038 2.56604 0.433268 16.8109
676 1 -1.1104 15.9994 12.5187 19.1953 26.6404
469 1 -1.1104 15.9994 9.41068 2.40016 15.4201
668 1 -1.1104 15.9994 9.60112 16.5883 23.6627
367 2 2.2208 232.038 8.09163 0.544742 16.6907
9620 2 2.2208 232.038 -0.164238 17.5368 19.2355
369 2 2.2208 232.038 5.32855 0.493343 19.5104
683 2 2.2208 232.038 8.29507 5.93724 27.4985
371 2 2.2208 232.038 11.1141 0.647782 19.6465
680 1 -1.1104 15.9994 3.90246 21.9021 26.3546
373 2 2.2208 232.038 2.74765 5.98667 16.6951
374 2 2.2208 232.038 2.6231 3.43614 19.6995
661 1 -1.1104 15.9994 2.60001 17.3785 25.0986
376 2 2.2208 232.038 5.43095 3.24399 16.7613
377 2 2.2208 232.038 8.29379 6.15345 16.823
378 2 2.2208 232.038 8.10204 3.31117 19.5398
379 2 2.2208 232.038 5.3634 6.1725 19.6404
380 2 2.2208 232.038 10.8006 3.17885 17.0009
381 2 2.2208 232.038 11.1173 5.96649 19.5227
382 3 -1.1104 15.9994 3.90335 -0.88383 15.0414
383 2 2.2208 232.038 2.68557 11.7844 16.7216
384 2 2.2208 232.038 2.49018 8.82148 19.6133
518 1 -1.1104 15.9994 9.62201 -1.07212 20.7316
386 2 2.2208 232.038 5.4256 8.89137 16.854
387 2 2.2208 232.038 8.29498 11.7531 16.875
388 2 2.2208 232.038 8.362 8.75813 19.5559
389 2 2.2208 232.038 5.45198 11.6958 19.3898
390 2 2.2208 232.038 11.1308 8.77285 16.7965
391 2 2.2208 232.038 11.2641 11.556 19.4373
667 1 -1.1104 15.9994 7.30141 16.1747 26.522
393 2 2.2208 232.038 2.73336 17.5422 16.7151
394 2 2.2208 232.038 2.63777 14.6825 19.2638
395 4 2.2208 232.038 8.25307 17.8058 25.0524
396 2 2.2208 232.038 5.4307 14.6986 16.5575
397 2 2.2208 232.038 8.3603 17.4718 16.8043
398 2 2.2208 232.038 8.10198 14.4536 19.626
399 2 2.2208 232.038 5.31625 17.4171 19.5114
400 2 2.2208 232.038 11.3465 14.7535 16.9585
401 2 2.2208 232.038 11.1829 17.5303 19.6827
660 1 -1.1104 15.9994 4.00104 15.5458 26.6662
403 2 2.2208 232.038 2.6844 23.0476 16.9405
404 2 2.2208 232.038 2.46618 20.2191 19.4816
666 1 -1.1104 15.9994 8.40053 14.6592 22.5142
406 2 2.2208 232.038 5.53144 20.1395 16.8668
407 2 2.2208 232.038 8.24625 23.1447 16.7964
408 2 2.2208 232.038 8.27517 20.2945 19.4582
409 2 2.2208 232.038 5.35016 23.0256 19.5574
410 2 2.2208 232.038 11.225 20.3697 16.768
411 2 2.2208 232.038 11.0521 23.0686 19.5125
669 1 -1.1104 15.9994 7.21861 18.9858 23.4838
413 2 2.2208 232.038 2.68809 0.451266 22.3314
678 1 -1.1104 15.9994 3.28807 21.6018 23.5685
658 1 -1.1104 15.9994 4.04941 15.8303 23.548
349 2 2.2208 232.038 8.11357 9.01615 14.0209
417 2 2.2208 232.038 8.18453 0.543645 22.2335
9311 2 2.2208 232.038 13.85 5.95516 16.5867
419 2 2.2208 232.038 5.29063 0.517028 25.2514
662 1 -1.1104 15.9994 4.28244 18.7555 23.6708
421 2 2.2208 232.038 11.018 0.56503 25.3023
422 3 -1.1104 15.9994 6.82591 21.6605 15.266
423 2 2.2208 232.038 2.66257 6.08618 22.2969
424 2 2.2208 232.038 2.58223 3.26502 25.0821
425 4 2.2208 232.038 2.42836 23.0485 25.1814
426 2 2.2208 232.038 5.4552 3.19896 22.3802
427 2 2.2208 232.038 8.14266 6.15216 22.483
428 2 2.2208 232.038 8.33308 3.27108 25.0543
429 2 2.2208 232.038 5.45903 6.16087 25.1167
430 2 2.2208 232.038 11.0227 3.35302 22.3791
431 2 2.2208 232.038 11.0983 6.20925 25.0062
432 1 -1.1104 15.9994 12.5276 21.9756 26.7074
433 2 2.2208 232.038 2.65526 11.7943 21.9127
434 2 2.2208 232.038 2.65921 8.43451 25.2832
435 1 -1.1104 15.9994 12.7404 21.7842 23.7191
436 2 2.2208 232.038 5.49343 8.9159 22.3651
437 2 2.2208 232.038 8.41524 11.9349 22.2409
438 2 2.2208 232.038 8.36698 8.91307 25.1066
439 2 2.2208 232.038 5.83396 11.6988 25.3749
440 2 2.2208 232.038 11.0183 8.94707 22.3032
441 2 2.2208 232.038 11.3133 11.8084 25.1519
442 1 -1.1104 15.9994 9.60547 21.4904 26.5662
443 2 2.2208 232.038 2.4499 17.2517 22.1528
444 2 2.2208 232.038 2.47151 14.6717 25.1591
445 1 -1.1104 15.9994 6.82573 21.8668 26.5683
446 2 2.2208 232.038 5.39948 14.3271 22.3055
447 2 2.2208 232.038 8.2886 17.1068 21.982
448 2 2.2208 232.038 8.36877 14.3791 24.9955
449 2 2.2208 232.038 5.18269 17.2186 25.3004
450 2 2.2208 232.038 11.0349 14.5603 22.3562
451 2 2.2208 232.038 11.3327 17.5797 25.054
452 1 -1.1104 15.9994 10.1335 21.9959 23.6577
453 2 2.2208 232.038 2.45631 23.2354 22.0448
454 2 2.2208 232.038 2.58662 19.6997 24.8485
455 1 -1.1104 15.9994 6.26406 21.5828 23.8533
456 2 2.2208 232.038 5.52409 20.0632 22.2322
457 3 -1.1104 15.9994 3.85175 13.1615 15.3095
458 2 2.2208 232.038 8.14457 20.9174 24.6224
459 2 2.2208 232.038 5.52985 23.1843 25.2529
460 2 2.2208 232.038 11.3331 20.5356 22.2918
461 2 2.2208 232.038 11.4422 23.0831 25.1274
648 1 -1.1104 15.9994 6.80608 7.50284 26.3516
675 1 -1.1104 15.9994 12.5585 18.9305 23.5645
464 1 -1.1104 15.9994 0.907528 1.71554 15.5368
346 3 -1.1104 15.9994 4.39575 9.96987 25.8643
466 1 -1.1104 15.9994 6.68298 -1.02601 15.3279
467 1 -1.1104 15.9994 9.42813 -0.711932 15.312
468 1 -1.1104 15.9994 6.69756 1.96808 15.251
659 1 -1.1104 15.9994 0.91897 15.8794 26.4418
470 1 -1.1104 15.9994 12.5674 -0.904526 15.2467
365 2 2.2208 232.038 5.37878 11.8473 14.0846
472 1 -1.1104 15.9994 1.26205 4.58021 15.3196
473 1 -1.1104 15.9994 3.99521 1.80057 15.3583
474 1 -1.1104 15.9994 1.36215 7.61396 15.0718
475 1 -1.1104 15.9994 4.03558 7.36264 15.6138
476 1 -1.1104 15.9994 7.05592 4.56903 15.3908
681 2 2.2208 232.038 2.50633 17.3783 27.5417
478 1 -1.1104 15.9994 6.80338 7.4222 15.228
479 1 -1.1104 15.9994 9.73384 7.72422 15.3793
656 1 -1.1104 15.9994 12.4751 13.4826 26.5349
481 1 -1.1104 15.9994 12.7094 7.52153 15.3451
482 1 -1.1104 15.9994 1.07031 10.5061 15.2839
483 1 -1.1104 15.9994 4.16287 10.403 15.4449
484 1 -1.1104 15.9994 1.14667 13.3363 15.181
665 1 -1.1104 15.9994 6.77838 16.2878 24.0044
486 1 -1.1104 15.9994 6.71327 10.3747 15.3416
487 1 -1.1104 15.9994 9.69173 10.4229 15.4793
488 1 -1.1104 15.9994 7.25064 12.9579 15.2969
489 1 -1.1104 15.9994 10.0038 13.3627 15.404
490 1 -1.1104 15.9994 12.5702 10.399 15.2063
491 1 -1.1104 15.9994 12.6062 13.3437 15.1035
492 1 -1.1104 15.9994 1.40531 16.1555 15.0362
671 1 -1.1104 15.9994 6.82358 18.8312 26.3243
494 1 -1.1104 15.9994 1.50733 18.9399 15.2632
495 1 -1.1104 15.9994 3.94435 16.2299 15.2874
496 1 -1.1104 15.9994 7.01573 16.1211 15.5314
497 1 -1.1104 15.9994 9.76704 16.0553 14.9444
498 1 -1.1104 15.9994 7.0329 18.777 15.5047
499 1 -1.1104 15.9994 9.83724 19.0147 15.3349
500 1 -1.1104 15.9994 12.4569 16.0447 15.2694
501 1 -1.1104 15.9994 12.781 18.9505 15.3115
502 1 -1.1104 15.9994 1.22228 21.9063 15.3834
503 1 -1.1104 15.9994 4.20913 19.0653 15.2906
504 1 -1.1104 15.9994 4.05475 21.6512 15.3486
505 1 -1.1104 15.9994 9.48999 21.7885 15.2185
506 1 -1.1104 15.9994 12.2618 21.6146 15.2504
507 1 -1.1104 15.9994 1.17939 -1.11749 18.2131
508 1 -1.1104 15.9994 4.05231 -1.00277 17.9424
509 1 -1.1104 15.9994 1.10536 -0.995129 20.8985
510 1 -1.1104 15.9994 3.72043 -0.890471 20.8539
511 1 -1.1104 15.9994 1.16574 1.95954 18.1535
512 1 -1.1104 15.9994 3.99227 1.84625 18.1372
513 1 -1.1104 15.9994 1.08715 1.84285 20.9314
514 1 -1.1104 15.9994 4.1287 1.80388 20.9314
515 1 -1.1104 15.9994 6.82212 -1.01925 18.0877
657 1 -1.1104 15.9994 1.07842 15.8077 23.2749
517 1 -1.1104 15.9994 6.75547 -1.02445 20.7938
672 1 -1.1104 15.9994 9.78914 16.0239 26.2984
519 1 -1.1104 15.9994 6.76576 2.00128 18.1629
520 1 -1.1104 15.9994 11.8976 1.65264 15.5373
521 1 -1.1104 15.9994 6.79841 1.84688 20.9649
522 1 -1.1104 15.9994 9.43588 2.04212 20.8393
317 1 -1.1104 15.9994 4.05116 4.66077 15.2232
9301 2 2.2208 232.038 13.7783 0.411373 16.7041
525 1 -1.1104 15.9994 12.352 1.76354 18.3193
526 1 -1.1104 15.9994 12.4249 1.81408 21.2151
527 1 -1.1104 15.9994 1.31512 4.62064 18.1293
528 1 -1.1104 15.9994 4.33893 4.72886 18.2121
529 1 -1.1104 15.9994 1.16834 4.76019 20.9536
530 1 -1.1104 15.9994 3.90345 4.80891 20.9111
531 1 -1.1104 15.9994 1.0502 7.36893 17.7326
532 1 -1.1104 15.9994 3.96688 7.50264 18.1585
533 1 -1.1104 15.9994 1.02549 7.56601 20.6154
534 1 -1.1104 15.9994 3.90886 7.47224 20.9593
535 1 -1.1104 15.9994 6.93724 4.72464 18.0861
536 1 -1.1104 15.9994 10.2607 5.18638 15.7694
537 1 -1.1104 15.9994 6.60916 4.56391 20.9444
538 1 -1.1104 15.9994 9.55254 1.60683 18.2351
539 1 -1.1104 15.9994 6.84273 7.52263 18.1842
540 1 -1.1104 15.9994 9.64598 4.63781 18.3218
541 1 -1.1104 15.9994 6.77917 7.46503 20.9485
542 1 -1.1104 15.9994 9.65479 7.51885 20.8397
543 1 -1.1104 15.9994 12.4824 4.48412 18.0756
544 1 -1.1104 15.9994 12.5418 4.79926 20.892
545 1 -1.1104 15.9994 12.6008 7.21277 18.1662
546 1 -1.1104 15.9994 12.3609 7.49253 20.6416
547 1 -1.1104 15.9994 1.20099 10.277 18.1098
548 1 -1.1104 15.9994 3.94111 10.3521 17.8949
549 1 -1.1104 15.9994 1.18965 10.3081 21.1549
550 1 -1.1104 15.9994 3.89978 10.4524 20.6351
551 1 -1.1104 15.9994 1.17807 13.3222 17.9679
552 1 -1.1104 15.9994 3.96637 13.1463 18.2227
553 1 -1.1104 15.9994 1.09795 13.0687 20.6164
554 1 -1.1104 15.9994 4.00737 13.1179 20.6858
555 1 -1.1104 15.9994 6.90226 10.2093 18.1623
556 1 -1.1104 15.9994 9.79902 10.2667 18.122
557 1 -1.1104 15.9994 6.80044 10.3275 20.8664
558 1 -1.1104 15.9994 9.64689 10.2398 20.8055
559 1 -1.1104 15.9994 6.82004 13.1207 18.0421
560 1 -1.1104 15.9994 9.94666 13.2262 18.1785
561 1 -1.1104 15.9994 6.85529 13.0154 20.9068
562 1 -1.1104 15.9994 9.89504 12.9399 20.9496
563 1 -1.1104 15.9994 12.4767 10.1633 18.0459
564 1 -1.1104 15.9994 12.5415 10.2098 20.8325
565 1 -1.1104 15.9994 12.6245 13.0493 18.0017
566 1 -1.1104 15.9994 12.6953 12.9917 20.743
567 1 -1.1104 15.9994 1.2925 16.0021 17.6216
568 1 -1.1104 15.9994 4.18594 15.9363 17.9162
569 1 -1.1104 15.9994 1.13086 15.9153 20.4044
570 1 -1.1104 15.9994 3.79719 15.9956 20.6892
571 1 -1.1104 15.9994 1.18372 18.8089 17.9329
572 1 -1.1104 15.9994 4.02721 18.9979 18.0478
573 1 -1.1104 15.9994 1.26898 18.7637 20.8719
574 1 -1.1104 15.9994 4.02721 18.7189 20.8281
575 1 -1.1104 15.9994 7.18673 15.7911 18.1526
576 1 -1.1104 15.9994 9.90782 16.1968 18.038
577 1 -1.1104 15.9994 6.51199 15.8729 20.8731
578 1 -1.1104 15.9994 9.79343 15.8586 20.59
579 1 -1.1104 15.9994 6.79674 18.8062 18.2136
580 1 -1.1104 15.9994 9.78651 18.9971 18.084
581 1 -1.1104 15.9994 6.81209 18.6067 20.8418
582 1 -1.1104 15.9994 9.61676 18.6125 20.9702
583 1 -1.1104 15.9994 12.7322 16.017 18.2552
584 1 -1.1104 15.9994 12.4955 15.9807 20.9568
585 1 -1.1104 15.9994 12.4613 18.8369 18.2867
586 1 -1.1104 15.9994 12.4244 19.0657 20.6745
587 1 -1.1104 15.9994 1.18561 21.6563 18.2949
588 1 -1.1104 15.9994 4.12033 21.6376 18.3106
589 1 -1.1104 15.9994 1.06146 21.5862 21.0433
590 1 -1.1104 15.9994 3.77247 21.7527 20.8931
591 1 -1.1104 15.9994 6.7847 21.602 18.1355
592 1 -1.1104 15.9994 9.83183 21.8249 18.0244
593 1 -1.1104 15.9994 6.8009 21.4943 20.9379
594 1 -1.1104 15.9994 9.86951 21.4742 20.8123
595 1 -1.1104 15.9994 12.6467 21.6897 18.0997
596 1 -1.1104 15.9994 12.5197 21.8665 20.8591
597 1 -1.1104 15.9994 1.20195 -0.906933 23.6692
598 1 -1.1104 15.9994 4.13949 -0.937963 23.5837
599 1 -1.1104 15.9994 1.00623 -0.945341 26.2543
600 1 -1.1104 15.9994 3.77961 -0.972916 26.3917
601 1 -1.1104 15.9994 1.25815 1.98935 23.5491
602 1 -1.1104 15.9994 3.98562 1.98846 23.7928
603 1 -1.1104 15.9994 1.04843 1.89806 26.2564
604 1 -1.1104 15.9994 4.00858 1.86558 26.6209
605 1 -1.1104 15.9994 6.86798 -1.05635 23.7257
606 1 -1.1104 15.9994 9.67741 -0.827175 23.7049
607 1 -1.1104 15.9994 6.55627 -1.05921 26.5509
608 1 -1.1104 15.9994 9.3119 -1.03092 26.49
609 1 -1.1104 15.9994 6.76945 1.84478 23.541
610 1 -1.1104 15.9994 9.65528 2.04652 23.6136
611 1 -1.1104 15.9994 6.7859 1.72896 26.542
612 1 -1.1104 15.9994 9.73423 1.88644 26.6105
613 1 -1.1104 15.9994 12.6235 -1.20984 23.6282
614 1 -1.1104 15.9994 12.4891 -0.940942 26.475
615 1 -1.1104 15.9994 12.6192 1.73534 23.9206
616 1 -1.1104 15.9994 12.4995 2.00902 26.7638
617 1 -1.1104 15.9994 1.19501 4.65584 23.6989
618 1 -1.1104 15.9994 4.01553 4.76376 23.6571
619 3 -1.1104 15.9994 9.68456 7.46304 18.0076
620 1 -1.1104 15.9994 3.91836 4.62501 26.3599
621 1 -1.1104 15.9994 1.22924 7.29054 23.5077
622 1 -1.1104 15.9994 4.08137 7.67862 23.6844
623 1 -1.1104 15.9994 1.06837 7.25115 26.4158
624 1 -1.1104 15.9994 4.09131 7.31013 26.7116
625 1 -1.1104 15.9994 6.9388 4.75177 23.6829
626 1 -1.1104 15.9994 9.52531 4.7577 23.7785
627 1 -1.1104 15.9994 6.88806 4.54169 26.2785
628 1 -1.1104 15.9994 9.69406 4.58908 26.3142
629 1 -1.1104 15.9994 6.82611 7.38873 23.5822
630 1 -1.1104 15.9994 9.65917 7.48457 23.7561
677 1 -1.1104 15.9994 0.77098 21.6411 24.1421
632 1 -1.1104 15.9994 9.72946 7.43394 26.4316
633 1 -1.1104 15.9994 12.2558 4.86309 23.5871
634 1 -1.1104 15.9994 12.4747 4.84607 26.2724