ITEM: TIMESTEP
100000
ITEM: NUMBER OF ATOMS
18000
ITEM: BOX BOUNDS pp pp pp
-4.5252113998629540e-01 2.7792521139986224e+01
-5.4671081862396704e+00 3.3354710818624551e+02
-4.5374698968380750e-01 2.7793746989683122e+01
ITEM: ATOMS id type x y z
3673 2 5.27786 0.30813 5.22132
5 2 2.53837 -2.53035 2.52205
6 1 1.49189 -4.03727 3.77923
14 2 5.65869 -2.51334 2.39747
9 1 3.50291 -0.953112 4.11482
63 2 2.31102 0.600386 2.51951
10 1 0.945722 -1.20611 3.64273
3604 2 2.49373 -2.66407 5.50065
3548 1 3.96011 -3.63996 1.17049
14406 1 1.52441 -1.1341 0.925348
3547 1 1.07817 -3.67562 1.23387
12 1 4.12139 -3.5812 3.87206
3551 1 3.99128 -0.914586 1.6293
3613 2 5.25572 -5.38531 5.12219
7213 2 5.30989 -5.47221 10.7393
3628 2 13.677 -2.36608 5.29606
193 2 5.2364 11.7519 -0.293794
20 1 6.5434 -1.05046 3.83053
17 1 6.62383 -3.97978 0.9383
19 1 6.70366 -0.989131 0.805602
18 1 6.82796 -3.97956 3.74138
3685 2 10.8818 0.355917 5.33681
30 1 12.1228 -3.90654 0.866291
31 1 12.1748 -1.1487 0.860258
26 2 10.8461 -2.48205 2.44908
32 1 12.1903 -1.02291 3.75737
21 1 9.40463 -1.07411 1.01487
75 2 8.05553 0.409153 2.26571
22 1 9.62328 -3.95615 3.72029
3616 2 8.07816 -2.58034 5.27671
24 1 9.21462 -1.20614 3.78696
3572 1 12.4701 -4.01576 3.69949
3571 1 9.395 -3.85642 0.928758
3619 1 6.60229 -1.38879 6.63363
3629 1 12.3362 -3.89937 6.65461
7455 2 8.02653 17.3887 13.6032
17952 1 2.25773 -5.39222 -0.411671
85 2 10.8902 0.201926 -0.361186
8 1 1.04949 1.73056 3.90858
11 1 3.64299 1.6791 0.888415
65 1 0.856538 4.49504 0.998442
66 1 0.663224 4.30264 3.90294
7 1 0.894196 1.76633 0.888601
74 2 5.26597 3.1242 2.40857
69 1 3.69402 4.49492 3.68135
70 1 3.78248 1.7473 3.70055
3664 2 2.40028 3.11786 5.26014
3733 2 5.35512 5.82062 5.35513
68 1 0.733178 6.90132 3.88608
123 2 2.21132 5.76357 2.52212
130 1 3.79521 7.30736 3.92005
71 1 3.85554 4.3965 0.903303
129 1 3.44705 6.98403 0.947209
67 1 0.539251 7.54098 1.17171
3667 1 3.87074 4.27924 6.32906
138 1 6.71553 7.03347 3.83386
80 1 6.66982 4.60776 0.813035
77 1 6.56708 1.87144 0.971734
3677 1 6.65454 1.59464 6.46326
7469 1 12.1954 18.5172 12.1986
3603 2 2.39852 -5.42159 7.99337
72 1 6.51169 4.60833 3.5714
29 2 10.8947 -5.43583 -0.285807
137 1 6.36737 7.36446 1.01901
3679 1 6.73128 4.4669 6.49252
78 1 6.63756 1.79071 3.84743
89 1 12.13 1.62128 1.09779
90 1 12.2787 1.69411 4.03102
86 2 10.8202 2.97341 2.36398
81 1 9.49863 4.4802 1.06243
82 1 9.51771 1.51469 3.83907
3676 2 7.97649 3.12863 5.17461
23 1 9.30306 1.81041 0.908385
3745 2 10.8269 5.82914 5.18085
91 1 12.2648 4.21641 1.02313
92 1 12.099 4.39368 3.68151
135 2 7.95331 5.97416 2.24494
142 1 9.4123 7.31599 3.71976
84 1 9.36305 4.48083 3.79993
14492 1 12.3831 7.00761 0.702973
83 1 9.5057 7.34612 1.01987
3681 1 9.39719 1.60125 6.68389
150 1 12.0806 7.23521 3.87217
3741 1 9.33732 7.24436 6.56205
3683 1 9.48895 4.31268 6.52645
15 2 8.12071 -5.30863 2.2541
7288 2 13.6302 3.17282 10.8384
61 2 -0.0745998 0.289077 -0.455355
7348 2 13.3441 8.71415 10.7608
126 1 0.443985 9.77263 5.00266
3793 2 5.63486 11.5876 5.07241
127 1 2.27078 9.33739 3.03661
134 2 5.10773 8.71718 2.49525
183 2 2.19571 11.5631 5.60129
3724 2 2.34075 8.31747 5.20918
131 1 4.37586 11.7766 3.21245
132 1 3.83773 10.1467 5.37097
185 2 2.34891 11.4261 2.06203
186 1 2.13456 13.0285 3.88407
125 1 0.882802 10.2406 0.359674
189 1 3.85344 13.1557 0.896917
14532 1 3.88081 10.0755 0.845489
190 1 4.26261 13.5819 5.27422
237 1 0.895693 13.239 1.20257
180 1 -0.131367 11.3605 2.80405
128 1 0.113603 13.6278 5.36552
194 2 4.92763 14.2373 2.58661
139 1 6.55597 10.1053 1.08354
265 2 10.6752 17.0926 -0.346768
3748 2 13.5478 8.70134 5.16097
147 2 13.5152 5.8332 2.3779
14598 1 6.72239 13.0526 1.09987
140 1 6.58013 9.92226 3.833
197 1 6.81155 13.1802 3.9659
14552 1 12.1962 12.777 0.880305
3805 2 10.7781 11.5444 5.0878
151 1 12.1733 9.77348 1.03658
146 2 10.7239 8.5226 2.43875
152 1 12.1525 10.1404 3.66083
141 1 9.13057 10.1185 1.05536
195 2 7.86291 11.668 2.47861
3736 2 7.95803 8.71725 5.11372
144 1 9.11118 10.1888 3.8498
210 1 12.2732 13.0128 3.66969
201 1 9.43523 13.0903 1.09783
202 1 9.35733 12.9383 3.73951
3809 1 12.2179 12.8893 6.54646
3743 1 9.31319 10.0163 6.69304
3801 1 9.46201 12.7996 6.50442
3866 2 10.8498 19.9885 7.95998
3811 1 12.237 15.8549 6.42208
3661 2 -0.353708 0.316645 5.3987
254 2 4.78171 20.2122 2.12044
3853 2 5.13812 17.3103 5.24673
245 1 0.810884 18.8535 1.0614
246 1 1.10409 18.6074 3.81379
187 1 0.937339 16.1245 0.621233
188 1 0.944588 15.9957 3.65537
249 1 3.72818 18.6555 0.797769
243 2 2.28558 17.5064 2.31318
250 1 4.04566 18.7317 3.6539
3784 2 2.1599 14.8725 5.22488
3844 2 2.27604 19.8767 5.0635
191 1 3.88454 15.7844 1.06242
192 1 3.66033 15.9579 3.82971
200 1 6.44838 15.7936 3.88407
258 1 7.15841 18.5281 3.93153
87 2 13.7016 0.30554 2.65622
209 2 10.7118 11.5449 -0.437818
3870 1 12.0976 18.6761 9.39221
7403 1 9.65595 15.8696 12.251
7465 2 10.8732 17.3578 10.6701
7312 2 -0.317075 0.179434 11.0252
206 2 11.0196 14.2792 2.40803
199 1 6.63934 15.7165 0.860159
3803 1 9.46915 15.6753 6.55234
14604 1 6.3313 18.6442 1.58041
3796 2 8.02263 14.476 5.27655
14606 1 9.50829 15.6583 1.11907
3865 2 10.8531 17.2518 5.18231
269 1 12.2068 18.5614 1.08426
270 1 12.4657 18.7483 4.02188
211 1 12.4648 15.9234 1.00004
266 2 11.306 20.1055 2.41288
212 1 12.2859 15.9211 3.58088
261 1 8.86579 18.2454 0.843193
255 2 7.96795 16.8349 2.40319
3856 2 8.02248 20.1663 5.47958
203 1 9.75339 18.8155 3.72061
204 1 9.57794 15.7938 3.73932
259 2 8.05717 19.996 2.42443
3869 1 12.3197 18.4903 6.6701
3857 1 6.6603 18.7774 6.55689
3625 2 11.0076 -5.40865 5.10445
3861 1 9.44533 18.5944 6.53136
3605 1 0.980421 -3.85988 6.67291
3609 1 3.879 -4.00783 6.71211
3611 1 4.09391 -1.23632 6.7635
7461 1 9.222 18.5308 12.043
3812 1 12.2875 15.7823 9.38817
3607 1 1.07619 -1.00412 6.54994
7273 2 5.31011 0.258491 10.8635
7205 1 1.06068 -4.01829 12.4058
3606 1 0.85839 -4.03489 9.62721
7207 1 1.0447 -1.13995 12.331
3614 2 5.37717 -2.70672 8.10992
3608 1 1.1411 -1.28349 9.40351
7209 1 3.90268 -4.00539 12.1667
3663 2 2.45285 0.350948 8.06635
3610 1 3.90558 -4.10244 9.37406
7204 2 2.56006 -2.57708 10.8404
7211 1 3.9091 -0.980984 12.2785
3612 1 3.97238 -1.23333 9.45831
7217 1 6.5578 -4.07834 12.2191
3867 2 13.587 17.1787 8.1429
3631 1 12.3129 -1.00753 6.57059
3623 1 9.37185 -1.22677 6.55503
3807 2 13.5242 11.2981 7.94711
3620 1 6.733 -1.24299 9.44401
3617 1 6.71105 -4.1576 6.59673
3621 1 9.61462 -4.09502 6.53703
7219 1 6.66026 -1.06052 12.3133
3618 1 6.76424 -4.17299 9.42479
7285 2 10.9559 0.343426 10.8915
7229 1 12.1548 -3.96917 12.3447
3630 1 12.206 -4.11072 9.42143
7231 1 12.4452 -1.20165 12.1544
3626 2 10.8344 -2.79744 8.00098
3632 1 12.2037 -1.16247 9.43504
7221 1 9.33415 -3.84159 12.4414
3675 2 8.09933 0.20449 8.04574
3622 1 9.21962 -3.98303 9.59259
7216 2 8.06747 -2.55979 10.961
7223 1 9.31273 -1.1091 12.1942
3624 1 9.62116 -1.36902 9.35787
3804 1 9.33925 15.6948 9.25887
3668 1 1.01583 4.35174 6.64376
3729 1 3.63161 7.35779 6.65605
3737 1 6.65201 7.43971 6.4577
3800 1 6.5665 15.859 9.7154
3669 1 3.92514 1.72927 6.74442
3725 1 0.96909 7.0112 6.66199
3665 1 0.950565 1.69171 6.62002
7261 1 1.06291 4.35675 9.63414
7265 1 0.837591 1.7105 12.1764
3666 1 0.963272 1.55042 9.38669
3674 2 5.36079 3.13972 8.06344
7269 1 3.60527 1.60841 12.2279
3670 1 3.89762 1.56689 9.50862
7264 2 2.4253 2.87563 10.8269
3671 1 5.01174 5.70633 8.0044
7333 2 5.25702 5.73273 10.6437
7325 1 0.930358 7.21003 12.2278
7267 1 1.01677 4.35214 12.3446
3723 2 2.63678 5.73816 8.13994
7271 1 3.95824 4.39454 12.1651
3672 1 3.61751 4.08643 9.3936
3726 1 0.858434 7.37471 9.3649
7329 1 3.67706 7.20809 12.4407
3730 1 3.63902 7.11888 9.75337
7337 1 6.36829 7.32543 12.2049
7277 1 6.59399 1.69731 12.2114
7279 1 6.57171 4.44419 12.2735
3749 1 12.1704 7.26826 6.49328
3691 1 12.4184 4.46477 6.70277
3738 1 6.61002 7.28633 9.53454
3689 1 12.2732 1.79602 6.67281
3678 1 6.86873 1.65403 9.27456
3680 1 6.69399 4.39972 9.54507
7289 1 12.2078 1.47346 12.4031
3690 1 12.2356 1.75796 9.54959
3686 2 10.804 3.14427 8.31872
7281 1 9.34776 1.66414 12.2312
3682 1 9.40387 1.5842 9.50066
7276 2 7.98205 2.91676 10.8806
3684 1 9.44552 4.50163 9.53553
7283 1 9.23923 4.44411 12.1819
3742 1 9.33492 7.19747 9.55174
3735 2 7.90831 5.69807 8.20986
7345 2 10.7864 5.88745 10.9244
7291 1 12.0078 4.23092 12.077
3692 1 12.1125 4.64208 9.52056
7341 1 9.45755 7.28225 12.2181
3750 1 12.163 7.54628 9.12368
7349 1 12.2192 7.3693 12.0649
3747 2 13.6774 6.08585 8.15165
7408 2 13.5657 14.3789 10.6293
3727 1 2.07868 9.82271 7.05084
3785 1 0.239297 11.6338 7.07703
3731 1 4.45684 11.8934 7.23328
7393 2 5.23345 11.2292 10.9591
7327 1 0.846185 10.081 12.1854
3734 2 5.30799 8.49479 8.00013
3728 1 0.970963 10.2083 9.55397
3783 2 2.44094 11.6368 8.62658
7324 2 2.23776 8.48669 10.8939
7331 1 3.74506 9.99697 12.2225
3732 1 4.00129 10.2409 9.37986
7389 1 3.68552 12.9593 12.1995
3786 1 0.889833 13.005 9.61637
7385 1 0.883957 12.9634 12.2778
3790 1 3.74078 13.334 9.54363
3789 1 2.33265 13.4536 7.21338
3794 2 4.76831 14.1139 7.49858
3797 1 6.57068 12.9928 9.55755
3740 1 6.77618 10.1489 9.59151
7322 2 -0.381771 8.61767 13.602
198 1 6.74416 13.0379 6.61528
7397 1 6.22225 13.0199 12.3849
7339 1 6.68873 10.0236 12.4427
3751 1 12.214 10.1431 6.4879
3739 1 6.51722 10.0521 6.66532
7401 1 9.3326 12.8512 12.2485
3744 1 9.42194 9.95154 9.53635
7343 1 9.47976 10.1883 12.4195
7336 2 8.10538 8.72128 10.9555
3795 2 8.01316 11.5688 8.07221
7405 2 10.8564 11.4235 10.8379
7351 1 12.1528 10.2782 12.1858
3746 2 10.6289 8.58835 7.9035
3752 1 12.1299 10.2477 9.34301
3802 1 9.36436 12.8406 9.46524
3810 1 12.2257 12.9616 9.35966
7413 1 12.2449 13.1183 12.0304
7457 1 6.65804 18.6407 12.2374
267 2 13.7151 17.2292 2.41845
207 2 13.6296 11.5059 2.34174
3862 1 9.39301 18.5666 9.23473
3791 1 3.92009 16.1077 6.8635
3787 1 0.911089 16.2273 6.60614
3662 2 -0.361521 2.86807 8.08846
3858 1 6.4798 18.6242 9.36559
3849 1 3.67772 18.8384 6.49201
3799 1 6.58393 15.9828 6.64187
3845 1 1.00412 18.79 6.49842
3798 2 5.14599 14.4632 10.8875
7384 2 1.84595 14.5347 10.8087
3854 2 5.25939 20.1644 7.92826
7449 1 3.76775 18.6603 12.3491
3846 1 0.735666 18.6316 9.37745
3788 1 0.787269 15.8521 9.29805
7445 1 1.00398 18.8407 12.28
7453 2 4.99862 17.6834 10.8339
3850 1 3.49813 18.7142 9.49066
3843 2 2.1861 17.4151 7.95458
3792 1 3.64024 15.9897 9.80767
7387 1 0.881978 15.9084 12.1758
7391 1 3.60495 15.4513 12.6008
7444 2 2.33749 20.1133 10.9258
7399 1 6.22771 15.8809 12.3324
7456 2 7.93097 20.0941 10.7604
3855 2 7.80529 17.13 8.13788
7409 1 12.3444 15.7039 12.2922
3806 2 10.8624 14.3388 7.87476
7396 2 8.33452 14.4239 10.8558
184 2 2.27036 14.3257 -0.340917
3687 2 13.5726 0.387217 8.05906
3722 2 -0.104073 8.63677 7.67141
7228 2 13.5464 -2.4887 10.7451
7321 2 -0.399297 5.84637 10.7913
7468 2 13.5129 19.9659 10.759
3602 2 -0.398841 -2.69971 8.2032
7467 2 13.5619 17.0675 13.7345
7214 2 5.2087 -2.4724 13.5792
7383 2 2.35095 11.4606 13.543
7203 2 2.46901 -5.42319 13.5063
7274 2 5.13705 2.9945 13.5641
7334 2 5.21634 8.63092 13.7405
124 2 2.21795 8.61226 -0.332121
253 2 5.23408 17.2541 -0.258596
7323 2 2.39608 5.74098 13.6403
7335 2 7.90644 5.83695 13.5405
88 2 13.6007 3.0126 -0.333904
196 2 8.02543 14.3544 -0.356842
10873 2 5.15806 0.216786 16.511
10805 1 1.06805 -3.97845 18.0145
7206 1 0.993129 -4.05569 15.2616
10807 1 0.952352 -1.18511 18.0205
10814 2 5.17274 -2.59581 19.3293
7208 1 1.12361 -1.21012 15.1861
10809 1 3.86413 -4.06359 17.8848
10863 2 2.44215 0.0961509 19.3217
7210 1 3.82755 -3.86641 14.8885
10804 2 2.49066 -2.63178 16.5302
10811 1 3.92494 -1.23344 17.9559
7212 1 3.82858 -1.0728 15.073
10808 1 0.79789 -1.12249 20.8582
10806 1 0.910143 -3.97111 20.6256
10812 1 3.68881 -1.30961 20.7625
10817 1 6.61223 -3.96121 17.9179
10819 1 6.65499 -1.12478 17.7897
10813 2 5.02692 -5.37651 16.4456
10810 1 3.9049 -3.97066 20.6332
7406 2 10.9625 14.4136 13.6625
10825 2 10.8632 -5.35045 16.6166
7220 1 6.66613 -1.26588 15.0728
7218 1 6.62338 -4.20403 15.0451
10885 2 10.8673 0.278013 16.5214
10829 1 12.3679 -3.9967 17.8932
7230 1 12.423 -4.05667 15.1647
10831 1 12.1617 -1.27861 17.6275
10826 2 10.8545 -2.55109 19.0909
7232 1 12.2983 -1.20326 15.066
10821 1 9.52479 -4.09566 17.9233
10875 2 8.03283 0.138724 19.219
7222 1 9.50001 -4.09727 15.1984
10816 2 8.00387 -2.61553 16.4618
10823 1 9.45918 -1.34666 17.8413
7224 1 9.3484 -1.22881 15.178
73 2 5.19485 0.303822 27.832
7227 2 13.5942 -5.39113 13.6395
7466 2 10.8307 20.1005 13.6538
14425 2 10.7903 -5.376 21.5731
10865 1 0.922145 1.74887 17.7414
7266 1 0.848821 1.50337 14.8494
10874 2 5.22384 3.01572 19.1751
10869 1 3.68795 1.57646 17.7617
7270 1 3.70649 1.66068 15.0972
10864 2 2.20233 2.96573 16.5245
10933 2 5.12645 5.88672 16.4908
10867 1 0.983974 4.37516 18.0161
7268 1 1.00146 4.48096 15.191
10923 2 2.25833 5.87705 19.4424
10871 1 3.83363 4.40127 17.8823
7272 1 3.64275 4.27235 15.139
10929 1 3.81983 7.1929 17.9137
7326 1 1.04118 7.10786 15.0352
10925 1 0.805593 7.17691 18.123
7330 1 3.69048 7.26954 15.0389
7280 1 6.49932 4.50935 15.09
10879 1 6.54991 4.68785 17.9033
10877 1 6.51501 1.76354 17.7527
10937 1 6.4663 7.35201 18.0383
7338 1 6.38416 7.28321 15.1492
11068 2 13.5635 19.8688 16.6179
25 2 10.7096 -5.39723 24.804
10926 1 0.916041 7.31644 20.6886
10887 2 13.6352 0.335545 19.2153
7278 1 6.53882 1.60337 15.0515
10889 1 12.1868 1.68426 17.9254
7290 1 12.051 1.42188 15.0187
10886 2 10.9176 3.18801 19.2178
10881 1 9.39009 1.50203 17.8922
7282 1 9.33853 1.72303 15.1945
10876 2 7.99742 3.20257 16.4424
10945 2 10.6508 5.91543 16.3964
10949 1 12.2026 7.23357 17.8331
10891 1 12.2489 4.42287 17.9273
7292 1 11.9581 4.24713 15.2177
10941 1 9.30513 7.36773 18.1718
10935 2 7.94264 5.86389 19.3259
10883 1 9.4936 4.53847 17.974
7284 1 9.14368 4.45132 14.9732
7342 1 9.1484 7.23003 15.2958
7350 1 12.0064 7.38098 15.1917
7286 2 10.8161 2.9142 13.7175
10892 1 12.2041 4.44322 20.8052
14607 2 13.5682 11.4398 24.9153
14461 2 -0.35586 0.248292 22.2212
10993 2 5.13299 11.538 16.6144
10927 1 0.920308 10.1919 18.0842
10934 2 5.2599 8.71366 19.5219
7328 1 0.927323 10.0098 15.0852
10983 2 2.29664 11.6023 19.3469
10924 2 2.27697 8.49627 16.5056
10931 1 3.72707 10.0686 17.9362
7332 1 3.7025 10.1541 14.9647
10985 1 0.98201 13.0469 18.0169
7386 1 0.845191 13.028 14.9492
10989 1 3.74976 13.0835 18.0445
7390 1 3.64253 13.0186 15.152
10986 1 0.913002 12.9802 20.7642
10990 1 3.80277 12.8311 20.9609
10998 1 6.44369 12.9727 20.668
7340 1 6.55042 10.0868 15.2206
10997 1 6.41243 13.189 17.8263
10994 2 5.17227 14.437 19.2614
7263 2 2.34737 0.308806 13.7021
10932 1 3.51403 10.1049 20.5522
16 2 7.98606 -2.40314 27.7687
14668 2 13.6058 19.9582 22.0673
10939 1 6.50673 10.2002 17.8712
10940 1 6.41512 10.126 20.9456
7398 1 6.55185 12.8954 14.9348
11005 2 10.749 11.4709 16.4182
10951 1 12.2977 10.166 17.9757
10946 2 10.7941 8.73607 19.448
7352 1 12.0563 9.98269 15.0312
10995 2 7.88693 11.522 19.3195
10936 2 7.91845 8.67546 16.6171
10943 1 9.44235 10.1461 17.9456
7344 1 9.29753 10.0179 15.105
11009 1 12.0478 12.994 17.8801
7410 1 12.0898 12.7741 15.0074
11001 1 9.08686 12.8841 17.8768
7402 1 9.24876 12.9722 15.1761
11010 1 12.0716 12.8702 20.8919
11002 1 9.22515 12.989 20.6658
10944 1 9.2936 10.1369 20.7362
14642 2 -0.443275 20.0115 24.8728
14608 2 13.6426 14.3345 22.1026
10803 2 2.38564 -5.45628 19.3159
7394 2 5.11504 14.397 14.1108
10984 2 2.29787 14.3893 16.4372
11053 2 5.27393 17.3296 16.5708
11045 1 0.740167 18.6639 17.9754
7446 1 0.823093 18.7423 15.0512
10987 1 1.05906 15.8354 18.0006
11054 2 5.10531 20.0363 19.331
7388 1 0.953694 15.9249 15.0572
11049 1 3.60825 18.781 18.0498
11043 2 2.44066 17.2592 19.4382
7450 1 3.6661 18.6961 15.0479
11044 2 2.2291 19.9945 16.3506
10991 1 3.74465 16.0035 17.8828
7392 1 3.66746 15.8252 15.2073
11057 1 6.58267 18.7887 17.7085
7400 1 6.65169 15.7705 15.0588
79 2 7.90005 3.13377 27.6717
7202 2 -0.386899 -2.57022 13.7693
10888 2 13.5624 3.18856 16.4197
11007 2 13.5013 11.4546 19.34
7458 1 6.40087 18.5067 14.8649
10999 1 6.61283 15.9666 17.8953
10996 2 7.9036 14.451 16.3311
11006 2 10.6772 14.4998 19.3278
11065 2 10.6673 17.2018 16.5716
11069 1 11.9542 18.5571 18.1889
7470 1 12.099 18.5019 15.1491
11011 1 12.1587 15.7426 18.0113
11066 2 10.8642 20.0887 19.4757
7412 1 12.3905 15.605 15.2271
11061 1 9.15063 18.5428 18.0517
11055 2 7.96323 17.1667 19.3274
7462 1 9.34292 18.6325 15.2023
11003 1 9.23428 15.7416 17.8629
7404 1 9.63636 15.6712 15.118
11056 2 8.01614 20.2384 16.6743
11070 1 12.1338 18.6256 20.856
14428 2 13.592 -2.5943 22.0732
11012 1 12.151 15.7295 20.834
11058 1 6.66601 18.5386 20.6229
14403 2 2.27168 -5.4297 24.8529
10922 2 -0.326022 8.66323 19.4541
4 2 2.28507 -2.86562 27.5655
17960 1 3.72979 -3.93828 26.1858
14473 2 5.11058 0.105934 22.2107
14405 1 0.659968 -4.03997 23.502
14407 1 0.639129 -1.20733 23.7135
14414 2 5.13284 -2.61631 24.8684
14408 1 1.15235 -1.21806 26.2555
14409 1 3.52379 -3.83882 23.6181
14463 2 2.26751 0.216839 24.939
14410 1 0.65114 -3.92751 26.2458
14404 2 2.20317 -2.60388 22.2482
14411 1 3.51766 -1.04745 23.5346
14412 1 3.9993 -1.27241 26.6919
14418 1 6.59159 -1.37471 26.3597
14417 1 6.38733 -4.06545 23.485
10818 1 6.74901 -4.31177 20.7962
17964 1 6.63458 -4.29377 26.3933
14419 1 6.4981 -1.24448 23.5694
10822 1 9.3618 -3.84267 20.5101
10832 1 11.9875 -1.2276 20.741
10820 1 6.63363 -1.40502 20.7175
10830 1 12.2727 -4.17097 20.5723
14611 1 12.2325 15.7048 23.5494
10824 1 9.3533 -1.16902 20.796
17972 1 12.2185 -3.96504 25.927
14485 2 10.8092 0.229832 22.0334
14429 1 11.7654 -3.87448 23.2491
14430 1 12.3039 -1.04819 26.2362
14431 1 12.4142 -1.04459 23.5228
14426 2 11.0124 -2.29122 24.8563
14421 1 9.11409 -4.38607 23.43
14475 2 8.02396 0.17439 24.9406
14422 1 9.62515 -4.01425 26.2849
14416 2 7.98664 -2.66871 22.1576
14423 1 9.47054 -1.44021 23.4121
14424 1 9.49904 -1.09069 26.3975
10866 1 1.04805 1.5635 20.5824
10868 1 1.05079 4.36876 20.5403
10930 1 3.81697 7.52081 20.621
10878 1 6.58439 1.49255 20.6987
10938 1 6.84054 7.29305 20.8851
7454 2 5.16719 20.1025 13.6896
14667 2 13.698 17.2025 25.0668
10870 1 3.867 1.72979 20.5945
10872 1 3.75813 4.63528 20.6606
14465 1 1.03203 1.59293 23.3203
14466 1 0.866373 1.7141 26.2209
14474 2 5.16787 3.08689 24.8539
14469 1 3.89823 1.84365 23.4542
14470 1 3.67617 1.66419 26.2302
14464 2 2.38936 3.10004 21.9996
14533 2 5.28943 5.87521 22.0172
14467 1 1.13907 4.3544 23.5797
14523 2 2.46674 5.81962 24.9242
14471 1 3.71869 4.58473 23.3789
14472 1 3.75951 4.52504 26.3755
14518 1 0.856609 4.35901 26.4765
14529 1 3.74761 7.20917 23.3876
14468 1 0.942329 6.92221 26.4765
14530 1 3.60953 7.37156 26.2468
14525 1 0.969763 7.20467 23.5298
14479 1 6.72078 4.3408 23.5214
14420 1 6.53843 1.71096 26.4132
14478 1 6.57 4.58291 26.3408
10948 2 13.5753 8.73207 16.4536
10982 2 -0.447267 14.4418 19.325
10880 1 6.61975 4.48196 20.633
10882 1 9.39456 1.66356 20.6179
10884 1 9.48643 4.46302 20.7182
10950 1 12.4572 7.1891 20.715
10890 1 12.1927 1.78478 20.7702
10942 1 9.71023 7.41422 20.9242
14477 1 6.6233 1.57704 23.6006
14537 1 6.63688 7.18279 23.6087
14480 1 6.50933 7.35177 26.3353
14489 1 12.4162 1.60922 23.6181
14490 1 12.1958 4.42594 26.5345
14432 1 12.0442 1.6895 26.5737
14481 1 9.50825 1.4763 23.6045
14482 1 9.44757 1.60459 26.2459
14476 2 8.08407 2.94504 22.1391
76 2 10.828 3.14979 25.1243
14483 1 9.41692 4.28311 23.5491
14535 2 7.87346 5.77541 25.0167
14545 2 11.0033 5.76295 22.2081
14491 1 12.3768 4.38731 23.7015
14484 1 9.4336 4.59004 26.2667
14549 1 12.2799 7.21025 23.4201
14541 1 9.46569 7.05334 23.564
14550 1 12.2641 7.21956 26.3183
14486 1 9.33798 7.42469 26.2418
14599 1 6.49455 15.5978 23.5886
10815 2 7.97078 -5.48594 19.2435
10928 1 0.863306 10.2443 20.6806
14590 1 1.13414 12.9754 24.1342
14528 1 0.778645 12.7991 26.6655
14527 1 0.883864 10.3646 23.3649
14593 2 5.06214 11.4955 22.3013
14526 1 3.90987 10.2124 26.4006
14534 2 5.15124 8.60141 25.027
14540 1 3.74448 12.9974 26.4768
14583 2 2.55446 11.2851 24.9566
14524 2 2.32514 8.71261 21.9758
14531 1 3.79872 9.94471 23.3815
14589 1 3.92435 12.8021 23.8169
14585 1 1.18023 9.57102 25.9229
14539 1 6.558 9.96516 23.7277
14597 1 6.55355 12.8771 23.6119
136 2 7.9498 8.82543 27.7902
14661 1 9.3791 18.5498 23.4598
10952 1 12.0946 10.0376 20.8511
143 1 6.57965 13.1446 26.518
14538 1 6.58803 10.2587 26.4026
14601 1 9.38731 12.855 23.5726
14609 1 12.2635 12.8263 23.7624
14610 1 12.2118 12.799 26.2907
14544 1 9.41613 13.0387 26.4025
14543 1 9.39651 9.92762 23.636
14536 2 8.08622 8.57289 22.3065
14542 1 9.42129 10.2518 26.4386
14595 2 7.98416 11.4399 24.9985
14605 2 10.71 11.5264 22.2035
14551 1 12.2935 10.1236 23.5364
14546 2 10.9635 8.66618 24.9657
149 1 12.1781 9.8581 26.4546
244 2 2.33584 20.077 27.6748
11067 2 13.6597 17.2952 19.2425
14603 1 9.30803 15.729 23.64
10992 1 3.89384 15.7159 20.6407
10988 1 1.08979 15.7718 20.7576
14521 2 -0.320435 5.64987 22.0507
14584 2 2.48351 14.3282 22.2162
11046 1 0.819175 18.6452 20.8033
11050 1 3.74954 18.5094 20.9938
14588 1 0.94005 15.7651 26.3743
14646 1 0.886339 18.5509 26.4586
14587 1 0.993781 15.8537 23.6166
14649 1 3.65847 18.5849 23.5862
14591 1 3.85053 15.6298 23.5984
14644 2 2.18693 20.0499 22.0987
14650 1 3.84277 18.628 26.2089
14643 2 2.34508 17.0893 25.1016
14592 1 3.68837 15.7791 26.5709
14594 2 5.29503 14.4764 25.0361
14653 2 5.17912 17.0372 22.1365
14654 2 5.22854 20.0862 24.8543
14645 1 0.832833 18.7191 23.7668
11008 2 13.581 14.2761 16.7106
11000 1 6.58087 15.8998 20.65
11004 1 9.34989 15.8456 20.8564
14655 2 8.0422 17.3138 24.9173
14600 1 6.68243 15.8258 26.2599
14596 2 7.90737 14.2191 22.2118
14602 1 9.42906 15.6899 26.4466
14666 2 10.9473 20.0609 25.1955
14670 1 12.2721 18.5999 26.5628
14662 1 9.50735 18.6544 26.5107
205 2 10.7446 14.3633 25.0609
14669 1 12.2256 18.621 23.5598
14665 2 10.8072 17.109 22.2395
14658 1 6.55717 18.6102 26.4315
14657 1 6.50031 18.4764 23.4294
14656 2 7.99657 19.9952 22.0625
14612 1 12.2173 15.815 26.4529
256 2 7.95398 20.2055 27.5925
11062 1 9.39497 18.743 20.8743
10921 2 -0.414042 5.93176 16.5782
7407 2 13.63 11.4951 13.7473
145 2 10.7729 5.87191 27.6926
7395 2 8.03052 11.4695 13.8336
7443 2 2.42836 17.2046 13.7687
7226 2 10.61 -2.54979 13.859
148 2 13.651 8.67468 27.8331
7346 2 10.6684 8.56194 13.772
64 2 2.30167 3.02471 27.7587
133 2 5.05834 5.98221 27.6742
7275 2 7.98959 0.210067 13.8059
3913 2 5.0157 22.969 4.99811
305 1 0.656791 24.699 0.767743
306 1 0.713465 24.1739 3.69958
247 1 0.967059 21.5788 0.950884
314 2 5.1999 25.6064 2.62236
248 1 0.830828 21.5927 3.73994
309 1 3.50867 24.1958 1.04151
303 2 2.15949 22.8813 2.42478
310 1 3.83107 24.4644 3.83722
3904 2 2.18947 25.7506 5.21803
251 1 3.6148 21.562 0.935933
252 1 3.61304 21.4255 3.64182
14712 1 5.4703 25.5877 -0.139838
260 1 5.72654 23.2739 1.97922
318 1 6.66552 24.4176 4.20404
308 1 0.840763 27.2102 3.84143
312 1 3.60328 27.1822 3.96923
311 1 3.23537 27.0083 0.813122
366 1 0.661739 27.7316 1.08908
4167 2 13.5009 45.5607 7.8229
567 2 13.6985 45.511 2.23522
3911 1 3.59337 27.1801 6.70376
264 1 9.13366 21.4871 3.61764
14718 1 7.9085 23.1517 0.214972
317 1 7.56094 25.6156 1.9151
3925 2 11.0072 22.9559 5.40493
329 1 12.5709 24.4832 1.04396
330 1 12.0861 24.5699 3.91082
271 1 12.3104 21.644 1.07777
326 2 10.5213 25.6798 2.49113
272 1 12.2849 21.6005 3.83237
321 1 10.2623 23.6021 1.57941
315 2 7.93012 23.3264 2.62661
322 1 9.34797 24.2107 4.09761
3916 2 7.97488 25.7744 5.28259
323 1 10.066 26.0319 0.394838
332 1 12.2664 27.2001 3.84366
4102 1 9.18666 41.2151 9.12604
320 1 6.62287 27.2175 4.0033
324 1 9.47431 27.2118 3.88395
262 1 6.56431 21.2121 3.67067
3871 1 12.1976 21.4037 6.60224
325 2 10.6782 22.7862 -0.364302
319 1 5.58955 27.8979 1.80689
3973 2 5.16515 28.6226 5.29662
363 2 2.56136 28.6076 2.66791
425 1 0.791316 32.9338 0.94773
426 1 0.833434 32.6946 3.74619
367 1 0.792482 30.2181 0.339445
374 2 5.27731 31.3913 2.35284
368 1 1.04241 29.9632 3.62298
369 1 3.53677 29.9231 0.88063
370 1 3.93057 30.0681 3.99435
3964 2 2.27666 31.4148 5.18627
371 1 3.82856 32.7064 0.896417
372 1 3.46294 32.6619 3.69828
378 1 6.60815 30.204 3.92616
257 1 6.54121 20.9847 0.828963
380 1 6.46136 32.9632 3.74064
3969 1 3.76986 29.9088 6.70028
3971 1 3.76807 32.987 6.56873
379 1 6.58856 32.8395 1.05734
7587 2 13.6312 28.6307 13.626
3979 1 6.47682 32.7147 6.66302
3965 1 0.963298 29.9584 6.50334
263 1 9.71215 20.7132 0.861677
14732 1 12.0447 27.696 1.03949
377 1 6.81023 30.0759 0.972767
14724 1 8.09756 27.9173 0.03197
3985 2 10.8976 28.5613 5.22355
375 2 7.7756 28.5606 2.46822
390 1 12.5742 30.3707 1.06636
391 1 12.2351 33.1741 0.964187
386 2 10.8608 31.3966 2.49905
392 1 12.1158 32.7741 3.69569
14778 1 9.63385 30.0512 0.988049
382 1 9.60864 29.7943 3.76021
3976 2 7.88584 31.3674 5.24972
383 1 9.58109 32.8822 1.07365
384 1 9.38779 32.8011 3.85419
3989 1 12.4089 30.0602 3.96049
3991 1 12.3122 32.632 6.5119
3983 1 9.33617 32.932 6.57357
557 1 6.62933 47.0005 0.811177
7695 2 7.90982 39.921 13.6627
3977 1 6.45461 29.9383 6.48681
376 2 7.92169 31.4631 -0.400329
7588 2 13.5079 31.6574 10.7618
4033 2 5.12016 34.3274 5.13926
434 2 5.27445 36.9727 2.32571
429 1 3.94845 35.4838 1.06413
423 2 2.25894 34.2422 2.3008
430 1 3.87104 35.6298 3.87075
4024 2 2.43061 37.2004 5.24844
428 1 1.0852 35.6166 3.75663
427 1 1.01971 35.6362 0.774678
4084 1 1.19462 38.5922 3.94079
431 1 3.93533 38.4639 0.725369
432 1 3.84947 38.3894 3.71164
486 1 1.05587 38.303 1.13055
4093 2 5.20116 39.9528 5.02895
437 1 6.75929 35.6766 0.962822
483 2 2.49014 39.7833 2.2746
440 1 6.62489 38.4925 3.76177
438 1 6.84357 35.6483 3.69013
4029 1 3.67433 35.614 6.64731
4022 2 -0.458744 37.317 7.94713
4025 1 0.731417 35.775 6.54549
7743 2 2.28123 45.6075 13.5587
4104 1 9.31925 43.8333 9.31906
447 2 13.5333 34.202 2.42188
439 1 6.57066 38.2614 0.928953
7701 1 9.61481 41.2105 12.2024
4037 1 6.53838 35.5416 6.52074
4045 2 10.7997 34.1053 5.19993
449 1 12.371 35.7178 0.900034
450 1 12.3124 35.5431 3.91604
446 2 10.6773 36.9964 2.42499
441 1 9.42899 35.6363 0.931116
435 2 7.99149 34.1688 2.41417
442 1 9.50807 35.5296 3.78653
4036 2 8.01251 37.0753 5.10801
452 1 12.2095 38.5953 3.81424
443 1 9.43252 38.5328 0.918122
444 1 9.36042 38.4469 3.69992
509 1 12.2801 38.4561 1.01161
4105 2 10.8023 39.9248 5.21266
495 2 8.10644 39.9345 2.14041
4049 1 12.3213 35.4507 6.54161
4043 1 9.38783 38.3091 6.38593
4051 1 12.3174 38.3306 6.70815
7703 1 9.58209 43.9051 12.1028
4041 1 9.58685 35.6289 6.43816
4100 1 6.60277 44.028 9.22141
7528 2 13.6699 25.7164 10.6576
4153 2 5.03403 45.4647 5.21762
485 1 0.735573 41.4208 4.05798
487 1 0.98747 44.1828 0.942185
494 2 5.07618 42.7845 2.22544
488 1 0.846414 44.2671 3.78765
489 1 3.77757 41.0809 0.980318
543 2 2.4032 45.4592 2.22578
490 1 3.6713 41.2373 3.68631
491 1 3.77673 43.9063 0.718331
492 1 3.52228 43.9656 3.77217
482 2 2.21619 42.4877 5.2595
14886 1 0.958778 41.2254 1.13637
499 1 6.59647 44.1421 1.02827
497 1 6.7723 41.2162 0.718395
500 1 6.33687 43.9699 3.80505
4099 1 6.626 44.0714 6.44415
571 1 12.4162 46.9124 0.808637
4101 1 9.44612 41.1213 6.44491
4097 1 6.55915 41.3129 6.38039
4091 1 3.72119 44.1685 6.74437
4087 1 0.787635 44.0621 6.50552
4089 1 3.71558 41.131 6.47152
7683 2 2.41596 39.6637 13.6959
7634 2 5.25532 37.1803 13.6331
373 2 5.88657 28.1876 -0.327186
3927 2 13.65 22.8205 8.16746
7755 2 8.1 45.5264 13.4584
7681 2 -0.388245 39.816 10.9073
498 1 6.6156 41.3944 3.3698
4103 1 9.54766 44.1256 6.37997
569 1 12.2979 44.294 0.918117
4165 2 10.7282 45.6278 4.96799
510 1 12.3374 41.3416 3.7493
511 1 12.06 41.3345 0.919449
506 2 10.694 42.7522 2.28116
501 1 9.55955 41.4043 0.848277
555 2 8.10442 45.5076 2.20194
502 1 9.56812 41.2437 3.82655
4096 2 7.88174 42.575 4.943
503 1 9.4474 44.2082 0.992621
504 1 9.25395 44.1361 3.68589
565 1 12.1687 44.1701 3.67095
4109 1 12.272 41.2168 6.5696
512 1 12.3885 44.0889 6.51994
4111 1 12.1732 44.0104 9.41804
4110 1 12.1087 41.0311 9.2865
7711 1 12.3363 44.2085 12.3892
4155 2 7.94955 45.516 7.91088
3907 1 0.848343 27.1053 6.41323
3852 1 0.792566 21.5281 6.61572
3851 1 3.64438 21.6567 6.29064
3905 1 0.835138 24.3338 6.45126
3909 1 3.66019 24.4231 6.62749
7459 1 1.38893 21.7081 9.50196
7513 2 5.08995 22.8188 10.7464
7505 1 1.27427 24.5975 12.1698
3906 1 1.14738 24.4968 9.37691
3918 1 3.93942 21.4675 9.06703
7447 1 0.951255 21.5556 12.2044
3914 2 5.08394 25.9278 8.09111
7509 1 4.11667 24.1982 12.441
3903 2 2.35375 22.96 7.8244
3910 1 3.9158 24.2741 9.55317
7504 2 2.61192 25.9888 10.9266
7451 1 3.74001 21.4947 12.1351
7501 2 0.178894 23.0865 10.8945
7515 1 6.08582 21.1278 11.8084
3860 1 6.66439 21.3398 9.20768
7565 1 0.913285 27.3225 12.297
3908 1 0.972983 27.2003 9.24142
7511 1 4.01323 27.3238 12.1397
3912 1 3.74664 27.2161 9.4046
3859 1 6.63385 21.7872 6.53375
7519 1 6.71611 26.9077 12.4236
3920 1 6.55516 27.0843 9.47853
3917 1 6.59789 24.4887 7.2089
507 2 13.4816 39.9403 2.45725
3919 1 6.49036 27.0948 6.76732
4088 1 0.944916 43.842 9.40748
3929 1 12.2567 24.2704 6.79827
3863 1 9.34435 21.4348 6.63743
3931 1 12.2036 27.1135 6.71838
7517 1 6.75782 24.0578 10.2918
3921 1 9.31225 24.3017 6.78519
7463 1 9.5607 21.1358 11.9266
7525 2 10.7871 22.885 10.9996
7529 1 12.1432 24.2893 12.1413
3930 1 12.2561 24.2464 9.44656
7471 1 12.3159 21.5039 12.2477
3926 2 10.8131 25.659 8.03094
3872 1 12.1604 21.34 9.49026
7521 1 9.35163 24.5057 12.2769
3915 2 7.94153 22.8547 8.213
3922 1 9.60839 24.2238 9.39766
7516 2 8.094 25.737 10.9157
3864 1 9.40018 21.3434 9.30831
7531 1 12.4294 27.2788 12.1006
7523 1 9.50488 27.3058 12.1733
3924 1 9.43691 27.0185 9.32365
3923 1 9.51947 27.1086 6.57021
3932 1 12.2737 27.0546 9.36718
3968 1 1.0515 32.9914 6.54643
3967 1 0.792848 30.0112 9.16425
7573 2 5.32128 28.529 10.8367
3963 2 2.2524 28.6063 8.00494
3966 1 0.967661 29.98 11.9075
7567 1 0.927184 32.7481 9.53766
7579 1 6.28776 32.342 12.0326
3974 2 5.08692 31.4716 8.09892
7569 1 3.89043 30.0085 12.2192
3970 1 3.8623 29.8939 9.54487
7564 2 2.37626 31.2807 10.8049
7571 1 3.32473 32.8101 12.2315
3972 1 3.75829 32.7329 9.37851
7706 2 10.62 42.7098 13.6677
4112 2 13.6082 42.9169 10.7514
3990 1 12.4749 29.807 6.53751
4021 2 -0.41113 34.3882 5.1614
3978 1 6.66943 29.9333 9.37855
3980 1 6.55968 32.8723 9.49413
7577 1 6.56542 29.6583 12.2694
3981 1 9.25724 29.8886 6.49478
7582 1 9.22005 29.7955 12.1503