LAMMPS (29 Oct 2020)
OMP_NUM_THREADS environment is not set. Defaulting to 1 thread. (../comm.cpp:94)
  using 1 OpenMP thread(s) per MPI task
#---------------------------------------
#
# This script is used to calculate the thermal conuctivity of UO2 using Muller-Plathe method
# By Ziqiang Wang on 03/18/2022 on Jilin university
#
#---------------------------------------

variable     Nevery    equal   50
variable     T         equal   1200

clear
OMP_NUM_THREADS environment is not set. Defaulting to 1 thread. (../comm.cpp:94)
  using 1 OpenMP thread(s) per MPI task
units          metal
boundary       p p p
atom_style     full

read_data vac_0_relaxed.dat
Reading data file ...
  orthogonal box = (-0.43856794 -3.7889061 -0.43876426) to (27.778568 249.84891 27.778764)
  2 by 13 by 2 MPI processor grid
  reading atoms ...
  13500 atoms
  reading velocities ...
  13500 velocities
Finding 1-2 1-3 1-4 neighbors ...
  special bond factors lj:    0.0      0.0      0.0     
  special bond factors coul:  0.0      0.0      0.0     
     0 = max # of 1-2 neighbors
     0 = max # of 1-3 neighbors
     0 = max # of 1-4 neighbors
     1 = max # of special neighbors
  special bonds CPU = 0.004 seconds
  read_data CPU = 0.078 seconds

set           type     1    charge     -1.1104
Setting atom values ...
  9000 settings made for charge
set           type     2    charge      2.2208
Setting atom values ...
  4500 settings made for charge

kspace_style    pppm   1.0e-05
pair_style      hybrid/overlay  coul/long  11.0  eam/alloy
pair_coeff      * * coul/long
pair_coeff      * * eam/alloy CeThUNpPuAmCmO.eam.alloy O Th Th O
newton          on
neighbor        0.3 bin
neigh_modify    delay 0 check yes every 1

#The first equilation
velocity        all create $T 10002 mom yes rot yes dist gaussian
velocity        all create 1200 10002 mom yes rot yes dist gaussian
fix             nvt  all  nvt  temp  $T $T  0.1
fix             nvt  all  nvt  temp  1200 $T  0.1
fix             nvt  all  nvt  temp  1200 1200  0.1

run             100000
PPPM initialization ...
  using 12-bit tables for long-range coulomb (../kspace.cpp:328)
  G vector (1/distance) = 0.29969262
  grid = 40 192 40
  stencil order = 5
  estimated absolute RMS force accuracy = 0.00014544049
  estimated relative force accuracy = 1.0100283e-05
  using single precision MKL FFT
  3d grid and FFT values/proc = 12500 6000
Neighbor list info ...
  update every 1 steps, delay 0 steps, check yes
  max neighbors/atom: 2000, page size: 100000
  master list distance cutoff = 11.3
  ghost atom cutoff = 11.3
  binsize = 5.65, bins = 5 45 5
  2 neighbor lists, perpetual/occasional/extra = 2 0 0
  (1) pair coul/long, perpetual
      attributes: half, newton on
      pair build: half/bin/newton
      stencil: half/bin/3d/newton
      bin: standard
  (2) pair eam/alloy, perpetual, copy from (1)
      attributes: half, newton on
      pair build: copy
      stencil: none
      bin: none
Per MPI rank memory allocation (min/avg/max) = 7.944 | 7.968 | 7.978 Mbytes
Step Temp E_pair E_mol TotEng Press 
       0         1200   -175491.94            0   -173398.08    2025.6498 
  100000    1191.9858    -175485.2            0   -173405.32    1815.1288 
Loop time of 510.944 on 52 procs for 100000 steps with 13500 atoms

Performance: 16.910 ns/day, 1.419 hours/ns, 195.716 timesteps/s
99.8% CPU use with 52 MPI tasks x 1 OpenMP threads

MPI task timing breakdown:
Section |  min time  |  avg time  |  max time  |%varavg| %total
---------------------------------------------------------------
Pair    | 341.33     | 347.21     | 352.43     |  13.6 | 67.96
Bond    | 0.0050177  | 0.008717   | 0.013152   |   2.0 |  0.00
Kspace  | 104.75     | 111.06     | 119.02     |  32.5 | 21.74
Neigh   | 35.263     | 36.102     | 37.635     |   9.7 |  7.07
Comm    | 12.366     | 13.085     | 14.472     |  15.7 |  2.56
Output  | 5.663e-05  | 6.2373e-05 | 0.00027722 |   0.0 |  0.00
Modify  | 1.3819     | 2.3813     | 3.6305     |  44.9 |  0.47
Other   |            | 1.095      |            |       |  0.21

Nlocal:        259.615 ave         269 max         245 min
Histogram: 3 1 3 0 6 6 11 13 6 3
Nghost:        3541.46 ave        3569 max        3469 min
Histogram: 2 2 1 0 2 2 5 12 18 8
Neighs:        52397.5 ave       54791 max       49597 min
Histogram: 3 2 2 5 9 8 8 10 3 2

Total # of neighbors = 2724671
Ave neighs/atom = 201.82748
Ave special neighs/atom = 0.0000000
Neighbor list builds = 21604
Dangerous builds = 0
unfix           nvt
reset_timestep  0

# the second run
fix             1 all nve

group           oxygen type 1
9000 atoms in group oxygen
fix             2 oxygen thermal/conductivity ${Nevery} y 20
fix             2 oxygen thermal/conductivity 50 y 20

compute         ke all ke/atom
variable        temp atom c_ke/1.5
compute         layers all chunk/atom bin/1d y lower 0.05 units reduced
fix             3      all ave/chunk  2000 50 100000 layers v_temp file profile_${T}K.mp
fix             3      all ave/chunk  2000 50 100000 layers v_temp file profile_1200K.mp

variable        Tdiff    equal     f_3[11][3]-f_3[1][3]
variable        deltaT   equal     v_Tdiff*1.5/0.0001292

timestep        0.001
thermo_style    custom step f_2 temp v_Tdiff v_deltaT
thermo          100000

run             1500000
PPPM initialization ...
  using 12-bit tables for long-range coulomb (../kspace.cpp:328)
  G vector (1/distance) = 0.29969262
  grid = 40 192 40
  stencil order = 5
  estimated absolute RMS force accuracy = 0.00014544049
  estimated relative force accuracy = 1.0100283e-05
  using single precision MKL FFT
  3d grid and FFT values/proc = 12500 6000
Per MPI rank memory allocation (min/avg/max) = 8.195 | 8.219 | 8.228 Mbytes
Step f_2 Temp v_Tdiff v_deltaT 
       0            0    1191.9858            0            0 
  100000    1327.3977    1196.0063  0.038242102    443.98725 
  200000    2618.8684     1204.137  0.042161972    489.49658 
  300000    3930.2022    1195.7732  0.040986206    475.84605 
  400000    5226.4955    1193.6903  0.041416677    480.84377 
  500000    6542.6086    1199.5911  0.042094132    488.70897 
  600000    7840.6519    1198.6596   0.04278492    496.72895 
  700000     9141.713    1196.3673  0.041750636    484.72101 
  800000    10441.695    1191.5519  0.041861143    486.00398 
  900000    11744.476    1196.2904  0.042120166    489.01122 
 1000000    13058.395    1198.5252  0.039985424    464.22706 
 1100000    14357.109    1199.9472  0.041336193    479.90936 
 1200000    15676.512    1195.8106  0.041401197    480.66405 
 1300000    16977.249    1197.4992  0.041607922    483.06411 
 1400000    18284.119    1197.5409  0.040627914    471.68631 
 1500000    19574.819    1196.4797  0.042630667    494.93809 
Loop time of 7614.35 on 52 procs for 1500000 steps with 13500 atoms

Performance: 17.020 ns/day, 1.410 hours/ns, 196.997 timesteps/s
99.8% CPU use with 52 MPI tasks x 1 OpenMP threads

MPI task timing breakdown:
Section |  min time  |  avg time  |  max time  |%varavg| %total
---------------------------------------------------------------
Pair    | 5075.7     | 5142.6     | 5218.2     |  47.5 | 67.54
Bond    | 0.082334   | 0.13141    | 0.20971    |   7.8 |  0.00
Kspace  | 1594.2     | 1672.7     | 1764.2     | 109.2 | 21.97
Neigh   | 544        | 561.87     | 578.24     |  35.4 |  7.38
Comm    | 186.59     | 197.39     | 216.17     |  53.2 |  2.59
Output  | 0.0015744  | 0.0016619  | 0.0035636  |   0.7 |  0.00
Modify  | 6.0525     | 6.6678     | 7.2971     |  11.1 |  0.09
Other   |            | 32.94      |            |       |  0.43

Nlocal:        259.615 ave         271 max         239 min
Histogram: 2 0 1 1 5 10 12 10 6 5
Nghost:        3541.37 ave        3578 max        3433 min
Histogram: 2 1 1 0 2 3 2 11 23 7
Neighs:        52393.0 ave       54524 max       47349 min
Histogram: 2 0 0 1 4 4 11 13 10 7

Total # of neighbors = 2724438
Ave neighs/atom = 201.81022
Ave special neighs/atom = 0.0000000
Neighbor list builds = 335515
Dangerous builds = 0

Total wall time: 2:15:25
