LAMMPS (29 Oct 2020)
OMP_NUM_THREADS environment is not set. Defaulting to 1 thread. (../comm.cpp:94)
  using 1 OpenMP thread(s) per MPI task
OMP_NUM_THREADS environment is not set. Defaulting to 1 thread. (../comm.cpp:94)
  using 1 OpenMP thread(s) per MPI task
Reading data file ...
  orthogonal box = (-0.057448237 -0.67254906 -0.04262464) to (27.397448 328.75255 27.382625)
  2 by 13 by 2 MPI processor grid
  reading atoms ...
  17640 atoms
  reading velocities ...
  17640 velocities
Finding 1-2 1-3 1-4 neighbors ...
  special bond factors lj:    0.0      0.0      0.0     
  special bond factors coul:  0.0      0.0      0.0     
     0 = max # of 1-2 neighbors
     0 = max # of 1-3 neighbors
     0 = max # of 1-4 neighbors
     1 = max # of special neighbors
  special bonds CPU = 0.004 seconds
  read_data CPU = 0.072 seconds
Setting atom values ...
  11760 settings made for charge
Setting atom values ...
  5880 settings made for charge
PPPM initialization ...
  using 12-bit tables for long-range coulomb (../kspace.cpp:328)
  G vector (1/distance) = 0.30001476
  grid = 40 240 40
  stencil order = 5
  estimated absolute RMS force accuracy = 0.00014675777
  estimated relative force accuracy = 1.0191763e-05
  using single precision MKL FFT
  3d grid and FFT values/proc = 15000 7600
Neighbor list info ...
  update every 1 steps, delay 0 steps, check yes
  max neighbors/atom: 2000, page size: 100000
  master list distance cutoff = 11.3
  ghost atom cutoff = 11.3
  binsize = 5.65, bins = 5 59 5
  2 neighbor lists, perpetual/occasional/extra = 2 0 0
  (1) pair coul/long, perpetual
      attributes: half, newton on
      pair build: half/bin/newton
      stencil: half/bin/3d/newton
      bin: standard
  (2) pair eam/alloy, perpetual, copy from (1)
      attributes: half, newton on
      pair build: copy
      stencil: none
      bin: none
Setting up Verlet run ...
  Unit style    : metal
  Current step  : 0
  Time step     : 0.001
Per MPI rank memory allocation (min/avg/max) = 8.162 | 8.188 | 8.206 Mbytes
Step Temp E_pair E_mol TotEng Press 
       0          600   -237344.82            0   -235976.81   -1024.8692 
  100000    596.05286      -237340            0   -235980.99   -709.99618 
Loop time of 640.018 on 52 procs for 100000 steps with 17640 atoms

Performance: 13.500 ns/day, 1.778 hours/ns, 156.246 timesteps/s
99.8% CPU use with 52 MPI tasks x 1 OpenMP threads

MPI task timing breakdown:
Section |  min time  |  avg time  |  max time  |%varavg| %total
---------------------------------------------------------------
Pair    | 417.55     | 430.89     | 443.1      |  28.9 | 67.32
Bond    | 0.0067022  | 0.010358   | 0.019345   |   2.2 |  0.00
Kspace  | 136.81     | 150.24     | 165.4      |  56.4 | 23.47
Neigh   | 31.875     | 34.788     | 37.17      |  17.9 |  5.44
Comm    | 17.644     | 19.406     | 20.978     |  16.6 |  3.03
Output  | 6.5352e-05 | 7.0622e-05 | 0.00029049 |   0.0 |  0.00
Modify  | 2.0467     | 3.146      | 5.0789     |  52.3 |  0.49
Other   |            | 1.539      |            |       |  0.24

Nlocal:        339.231 ave         357 max         311 min
Histogram: 1 1 4 4 2 9 12 10 4 5
Nghost:        4215.29 ave        4285 max        4102 min
Histogram: 3 0 3 3 6 6 11 8 6 6
Neighs:        71502.6 ave       76898 max       64553 min
Histogram: 2 1 2 5 9 13 6 8 4 2

Total # of neighbors = 3718133
Ave neighs/atom = 210.77851
Ave special neighs/atom = 0.0000000
Neighbor list builds = 16210
Dangerous builds = 0
11760 atoms in group oxygen
PPPM initialization ...
  using 12-bit tables for long-range coulomb (../kspace.cpp:328)
  G vector (1/distance) = 0.30001476
  grid = 40 240 40
  stencil order = 5
  estimated absolute RMS force accuracy = 0.00014675777
  estimated relative force accuracy = 1.0191763e-05
  using single precision MKL FFT
  3d grid and FFT values/proc = 15000 7600
Setting up Verlet run ...
  Unit style    : metal
  Current step  : 0
  Time step     : 0.001
Per MPI rank memory allocation (min/avg/max) = 8.413 | 8.439 | 8.457 Mbytes
Step f_2 Temp v_Tdiff v_deltaT 
       0            0    596.05286            0            0 
  100000    679.78184    596.28722  0.020193067    234.43963 
  200000    1332.8399      600.325   0.02305213    267.63309 
  300000    1987.2999    597.81719  0.023256319    270.00371 
  400000    2644.5713      606.054  0.022479487    260.98475 
  500000    3303.4061     605.4358  0.022210089    257.85707 
  600000    3962.8109    600.98527   0.02216279    257.30794 
  700000    4624.3532     597.4975  0.021796415    253.05436 
  800000    5282.8126    602.26005  0.022358425    259.57924 
  900000    5941.0326    603.51375  0.022844081    265.21766 
 1000000     6598.187    599.82703  0.022924313    266.14914 
Loop time of 6344.97 on 52 procs for 1000000 steps with 17640 atoms

Performance: 13.617 ns/day, 1.762 hours/ns, 157.605 timesteps/s
99.8% CPU use with 52 MPI tasks x 1 OpenMP threads

MPI task timing breakdown:
Section |  min time  |  avg time  |  max time  |%varavg| %total
---------------------------------------------------------------
Pair    | 4115.2     | 4259.4     | 4359.7     |  79.1 | 67.13
Bond    | 0.06297    | 0.1059     | 0.18268    |   6.9 |  0.00
Kspace  | 1371.6     | 1495       | 1659.2     | 151.2 | 23.56
Neigh   | 317.69     | 356.78     | 374.14     |  62.3 |  5.62
Comm    | 178.89     | 195.97     | 214.02     |  65.1 |  3.09
Output  | 0.0011891  | 0.0012911  | 0.002285   |   0.4 |  0.00
Modify  | 5.8871     | 7.135      | 8.5791     |  32.4 |  0.11
Other   |            | 30.56      |            |       |  0.48

Nlocal:        339.231 ave         358 max         308 min
Histogram: 1 1 1 3 6 6 12 11 7 4
Nghost:        4225.13 ave        4280 max        4126 min
Histogram: 1 0 2 10 3 6 6 10 6 8
Neighs:        71506.5 ave       77116 max       63040 min
Histogram: 1 1 1 4 8 7 12 11 5 2

Total # of neighbors = 3718339
Ave neighs/atom = 210.79019
Ave special neighs/atom = 0.0000000
Neighbor list builds = 166404
Dangerous builds = 0
Total wall time: 1:56:25
