ITEM: TIMESTEP
50000
ITEM: NUMBER OF ATOMS
18000
ITEM: BOX BOUNDS xy xz yz pp pp pp
-1.5428376224107282e-01 2.8048283762240835e+01 0.0000000000000000e+00
-1.7127621414323042e+00 3.3644076214143257e+02 0.0000000000000000e+00
-1.4742179504296163e-01 2.8041421795042655e+01 0.0000000000000000e+00
ITEM: ATOMS id type x y z
1 1 1.23773 -0.350287 1.22672
2 1 4.19589 -0.44689 1.39029
3 1 4.01785 -0.317149 4.22315
4 1 1.22151 -0.339016 3.9682
5 1 1.21795 2.47952 1.2132
6 1 4.12765 2.39661 1.16436
7 1 4.13197 2.45092 3.82888
8 1 1.27773 2.38977 4.06794
9 1 7.04168 -0.47032 1.16713
10 1 9.85302 -0.31334 1.15335
11 1 9.55754 -0.344498 4.14099
12 1 6.93637 -0.24252 4.02395
13 1 6.97316 2.28213 1.39173
14 1 9.571 2.55276 1.11437
15 1 9.59617 2.53681 3.96923
16 1 6.87438 2.52257 3.94726
17 1 12.5547 -0.350331 1.39533
18 1 12.6624 -0.568299 4.07278
19 1 12.2121 2.34575 1.56353
20 1 12.5869 2.33107 4.17655
21 1 1.29809 5.38594 1.27994
22 1 4.12041 5.31005 1.13081
23 1 3.99807 5.36393 4.0491
24 1 1.15945 5.17316 4.06223
25 1 1.26509 8.02779 1.53045
15051 2 13.9399 0.959826 5.39946
27 1 3.89364 8.10599 4.12913
28 1 1.17353 8.05024 4.10406
29 1 6.83997 5.30088 1.20114
30 1 9.85142 8.19744 1.07124
31 1 9.47661 5.29679 3.97058
32 1 6.81391 5.44152 4.05644
33 1 4.11345 8.03762 1.17582
34 1 7.07785 8.07211 1.21586
35 1 9.93647 8.10603 3.90193
36 1 6.79023 8.30742 4.03481
37 1 9.78712 5.31561 1.26532
38 1 12.309 5.0429 3.92615
39 1 12.6785 7.90698 1.36915
40 1 12.6162 8.06546 4.11642
41 1 1.05312 10.89 1.55581
42 1 3.9634 11.1013 1.47083
43 1 3.86601 10.9393 4.4861
44 1 1.18536 11.079 4.18286
45 1 1.16502 13.8599 1.35589
46 1 3.9229 13.8982 1.34669
47 1 4.153 13.8276 4.10714
48 1 1.23733 13.8672 4.35417
49 1 6.70477 10.765 1.16764
50 1 9.81304 11.0992 1.22505
51 1 9.62418 10.9404 3.99684
52 1 6.94472 11.0532 4.15326
53 1 6.79022 13.7442 1.30603
54 1 9.62217 13.7506 1.49025
55 1 9.66335 13.6337 4.25066
56 1 6.71984 13.6464 4.32138
57 1 12.4173 10.9258 1.34004
58 1 12.4389 10.8734 4.19948
59 1 12.5037 13.7904 1.54065
60 1 12.3988 13.7851 4.10437
61 1 1.06915 16.6586 1.23745
62 1 3.93075 16.7418 1.28874
63 1 4.1809 16.5098 4.07591
64 1 1.10766 16.8574 4.10366
65 1 1.19945 19.3914 1.22416
66 1 4.06964 19.4062 1.44605
67 1 4.0025 19.2079 4.15545
68 1 1.09907 19.5524 4.09112
69 1 6.81802 16.3713 1.15148
70 1 9.70511 16.5731 1.41061
71 1 9.6237 16.4072 4.02771
72 1 6.87822 16.548 4.08214
73 1 6.89618 19.5852 1.15937
74 1 9.5724 19.2943 1.63981
75 1 9.76323 19.2996 4.37693
76 1 6.80482 19.4332 3.97992
77 1 12.4785 16.5675 1.44223
78 1 12.6567 16.5336 4.28295
79 1 12.4517 19.2788 1.21258
80 1 12.5059 19.422 4.01928
81 1 1.29328 22.1754 1.23928
82 1 4.02038 22.3107 1.34559
83 1 4.01954 22.0549 4.07733
84 1 1.44117 22.3745 4.17184
85 1 6.87763 22.1974 1.47378
86 1 9.62935 22.1341 1.187
87 1 9.6282 22.2102 4.08731
88 1 6.7045 22.0912 4.12981
89 1 12.5838 21.9503 1.28386
90 1 12.3802 22.2938 3.99029
91 1 1.15194 -0.488266 6.90449
92 1 4.16201 -0.357079 6.92974
93 1 4.17907 -0.412511 9.76057
94 1 1.21646 -0.190208 9.57719
95 1 1.27422 2.62705 7.05028
96 1 3.93036 2.61792 6.85626
97 1 4.03128 2.31429 9.56117
98 1 1.15154 2.51714 9.83476
99 1 6.88427 -0.255172 6.85883
100 1 9.7035 -0.293376 6.92267
101 1 9.74977 -0.24616 9.62737
102 1 7.20485 -0.307834 9.74548
103 1 6.65907 2.48595 6.73287
104 1 9.52197 2.54409 6.84483
105 1 9.72006 2.42152 9.65713
106 1 7.0412 2.47026 9.60028
107 1 12.5818 -0.276228 7.04687
108 1 12.32 -0.130039 9.89491
109 1 12.7181 2.5505 6.83662
110 1 12.4908 2.65484 9.84988
111 1 1.27118 5.41073 6.93622
112 1 3.87879 5.29385 7.02182
113 1 4.09186 5.07484 9.60665
114 1 1.25647 5.33511 9.65436
115 1 1.07844 8.19811 7.04099
116 1 3.93607 8.15178 6.88551
117 1 3.91927 8.08089 9.66165
118 1 0.951039 8.15031 9.67118
119 1 6.66138 5.19269 7.03248
120 1 9.67826 5.2863 6.69907
121 1 9.83751 5.13903 9.3969
122 1 6.78369 5.31359 9.60476
123 1 6.92886 7.93982 6.95588
124 1 9.68768 7.89577 6.68417
125 1 9.67613 8.12133 9.57598
126 1 6.6456 8.28887 9.74987
127 1 12.2961 5.29109 6.7772
128 1 12.514 5.36142 9.63315
129 1 12.7045 8.00061 6.81854
130 1 12.4429 8.14927 9.63755
131 1 1.22923 10.8329 7.11641
132 1 3.90738 10.9728 7.13815
133 1 4.05819 10.9575 9.82606
134 1 1.22476 10.949 9.8277
135 1 1.27208 13.7159 7.0303
136 1 4.01083 13.7877 6.75778
137 1 4.12798 13.8456 9.51104
138 1 1.17166 13.9054 9.67551
139 1 6.82066 10.7005 6.9124
140 1 9.53877 10.7368 7.07631
141 1 9.49473 10.8956 9.97572
142 1 6.71375 11.1601 9.83689
143 1 6.85581 13.6017 7.16669
144 1 9.7782 13.5901 7.02763
145 1 9.85793 13.5582 9.88593
146 1 6.92866 14.0331 9.9317
147 1 12.4969 10.8786 7.04139
148 1 12.3424 10.9153 10.057
149 1 12.4812 13.7751 6.98367
150 1 12.5974 13.7579 9.82187
151 1 1.42507 16.4822 6.6785
152 1 4.03833 16.5451 7.19778
153 1 3.94975 16.5946 9.88813
154 1 1.33779 16.7828 9.497
155 1 1.10437 19.3365 6.98757
156 1 3.88063 19.2992 7.04409
157 1 4.16009 19.3855 9.62758
158 1 1.18503 19.44 9.84301
159 1 6.85839 16.6171 6.87201
160 1 9.53168 16.3725 6.96906
161 1 9.79937 16.4293 9.6476
162 1 6.91815 16.6274 9.78857
163 1 6.73179 19.3678 6.92283
164 1 9.52473 19.3882 7.00412
165 1 9.84782 19.2672 9.74624
166 1 7.02583 19.2473 9.68758
167 1 12.3442 16.5869 6.87461
168 1 12.4728 16.4516 9.73234
169 1 12.349 19.2797 6.93
170 1 12.6165 19.333 9.66516
171 1 1.09648 22.3308 7.07503
172 1 3.93181 22.2213 6.96559
173 1 3.98117 22.1721 9.79896
174 1 1.35495 22.3261 9.90645
175 1 6.76221 22.189 6.99261
176 1 9.70576 22.31 6.80575
177 1 9.8851 22.107 9.6154
178 1 6.95495 22.133 9.88713
179 1 12.5882 22.0764 6.82251
180 1 12.6667 22.2667 9.62964
181 1 1.27618 -0.26997 12.5543
182 1 3.87826 -0.442312 12.4292
183 1 1.08012 2.5614 12.6486
184 1 3.94413 2.35706 12.4405
185 1 6.74778 -0.48545 12.653
186 1 9.56421 -0.340768 12.6175
187 1 6.8523 2.48491 12.5892
188 1 9.58432 2.41309 12.2482
189 1 12.4964 -0.311114 12.68
190 1 12.5361 2.44973 12.6973
191 1 1.39777 5.3801 12.5777
192 1 4.23924 5.33361 12.3819
193 1 1.20533 8.33626 12.4595
194 1 3.93038 8.15989 12.3604
195 1 7.06385 5.51413 12.4167
196 1 9.72772 5.37781 12.323
197 1 6.88684 8.17816 12.2594
198 1 9.70066 8.07539 12.6327
199 1 12.4479 5.18367 12.6803
200 1 12.47 7.93632 12.5187
201 1 1.25681 11.0584 12.5612
202 1 4.0996 11.2234 12.6123
203 1 1.30512 13.5937 12.6809
204 1 3.97549 14.0238 12.5827
205 1 6.71661 10.843 12.541
206 1 9.71334 10.9507 12.7368
207 1 6.95135 13.6333 12.7429
208 1 9.59218 13.6289 12.5141
209 1 12.5547 10.7328 12.6822
210 1 12.4645 13.467 12.6222
211 1 1.33195 16.5858 12.6814
212 1 4.16033 16.8351 12.6737
213 1 1.19162 19.5795 12.6157
214 1 4.1647 19.4469 12.5908
215 1 7.06363 16.5302 12.6478
216 1 9.80014 16.384 12.5823
217 1 6.9815 19.3956 12.5005
218 1 9.80636 19.4611 12.6374
219 1 12.5786 16.5125 12.3322
220 1 12.5229 19.5071 12.4412
221 1 1.31982 22.4218 12.6831
222 1 4.13768 22.2594 12.6041
223 1 6.81756 22.1336 12.6748
224 1 9.70637 22.3534 12.6954
225 1 12.4628 22.2493 12.4693
12022 2 2.71137 12.3501 -0.0422444
12036 2 8.22131 17.7377 -0.142994
12134 2 5.67449 6.74635 13.6575
12133 2 8.25863 3.83564 13.7454
15061 2 13.8479 6.52986 5.57683
12021 2 0.117901 9.34329 0.0640925
15071 2 13.83 12.3237 5.59135
12008 2 5.63962 0.874988 2.64965
12129 2 5.41773 0.93788 13.7636
12010 2 11.0709 0.73744 2.90066
12125 2 11.1068 20.8981 11.0585
12138 2 8.33852 9.48927 13.9054
12013 2 2.71145 3.85778 2.54174
12124 2 8.18066 23.6704 11.4496
12024 2 -0.0459994 12.4489 2.77521
15032 2 13.9949 15.1958 2.8296
12017 2 8.32251 3.78797 2.50972
12018 2 5.549 6.69836 2.63253
15082 2 13.9303 15.1587 8.43018
12020 2 11.2048 6.57114 2.52657
12113 2 5.33502 9.68777 11.2002
12104 2 8.2942 0.946867 11.1695
12023 2 2.71738 9.51755 2.76246
12026 2 8.27236 12.3044 -0.00938914
12111 2 -0.160552 9.73863 11.1492
12107 2 2.52434 6.76451 10.9683
12027 2 8.40217 9.45109 2.54313
12028 2 5.48664 12.4636 2.72036
12004 2 -0.0951612 1.02758 2.68017
12030 2 11.0327 12.3855 2.72016
12102 2 2.62565 0.995914 11.0536
12114 2 8.1837 12.3844 11.2338
12033 2 2.61326 15.3019 2.61751
12032 2 2.45105 18.0976 -0.0729863
12100 2 11.0081 23.5103 8.32401
12099 2 11.0918 20.7453 5.43834
12037 2 8.23375 15.1558 2.80754
12038 2 5.37843 18.0607 2.81986
12098 2 5.38478 23.5298 8.45936
12040 2 11.0933 18.0259 2.82403
12097 2 8.32654 20.6722 8.39963
15116 2 13.9357 17.9587 11.0928
12043 2 2.72293 20.8458 2.82381
12123 2 5.52135 20.6761 11.2907
12096 2 8.17104 23.4595 5.6159
12095 2 5.41435 20.6324 5.68532
12047 2 8.29729 20.7494 2.74379
12048 2 5.35419 23.6687 2.73945
12115 2 11.0084 9.60526 11.2325
12050 2 11.0346 23.5595 2.69566
12042 2 2.59636 23.4781 -0.111896
12052 2 2.74202 1.00714 5.50697
12112 2 2.68749 12.4726 11.2659
12122 2 2.49458 23.7365 11.3421
12110 2 11.1242 3.75027 11.2217
12056 2 8.14219 1.02251 5.42891
12109 2 8.27473 6.79537 10.849
12058 2 5.52746 0.879061 8.22255
12108 2 5.51865 3.79081 10.9611
12060 2 11.1039 1.19934 8.22444
12120 2 11.2132 15.0102 11.256
12062 2 2.64017 6.65223 5.46572
12063 2 2.69488 3.91147 8.38413
12119 2 8.32372 17.9493 11.1344
12065 2 5.45404 3.77444 5.37226
12066 2 8.25895 6.7273 5.50487
12067 2 8.29392 3.90965 8.29175
12068 2 5.35549 6.74742 8.28033
12069 2 11.0841 3.93451 5.49918
12070 2 11.1445 6.68634 8.19054
15062 2 13.8796 3.95741 8.29893
12072 2 2.583 12.4044 5.57976
12073 2 2.60734 9.4039 8.24801
12118 2 5.32837 15.3404 11.1366
12075 2 5.36571 9.61034 5.55472
12076 2 8.1938 12.1149 5.7549
12077 2 8.28989 9.48483 8.41004
12078 2 5.31271 12.3923 8.31221
12079 2 11.1398 9.32307 5.45327
12080 2 11.082 12.1897 8.40611
12046 2 8.20453 23.4833 -0.172422
12082 2 2.47763 18.0525 5.52278
12083 2 2.63239 15.1436 8.22194
12117 2 2.60443 17.9735 11.1794
12085 2 5.44677 15.2208 5.5924
12086 2 8.20717 17.9636 5.49397
12087 2 8.2162 15.063 8.33408
12088 2 5.4805 17.8781 8.33133
12089 2 11.0312 15.0457 5.56368
12090 2 11.1234 17.7649 8.25911
15012 2 13.7007 3.626 2.70326
12092 2 2.71138 23.6482 5.57032
12093 2 2.48043 20.8747 8.39361
15091 2 13.9702 23.6581 5.55669
6021 1 12.7133 5.13653 1.08746
12074 2 -0.107916 12.4203 8.36511
15022 2 13.7637 9.5618 2.60069
15111 2 13.8269 12.1841 11.272
15146 2 13.8929 20.8276 13.9237
15121 2 13.8813 23.6542 11.187
15041 2 13.7843 23.6026 -0.106123
15021 2 13.8498 12.3423 0.0437238
15106 2 13.8111 6.61211 11.1801
15092 2 13.8156 20.6921 8.41847
12015 2 5.59202 3.73895 -0.132929
12045 2 5.48195 20.8561 -0.0158218
15126 2 13.8955 -1.66947 13.8649
12049 2 11.0053 20.6697 0.0554012
12145 2 11.266 18.0948 13.7282
12135 2 11.0785 6.75993 13.8132
12039 2 11.1422 15.1495 0.159306
12012 2 2.62884 6.68155 -0.111257
12136 2 2.65996 9.56544 13.8016
12143 2 8.3558 15.0366 13.921
226 1 4.14075 -0.467351 15.4118
227 1 1.37433 -0.27095 15.2297
228 1 4.18858 2.5307 15.2074
229 1 1.24315 2.45213 15.5354
230 1 9.70561 -0.408692 15.3974
231 1 6.75873 -0.137468 15.332
232 1 9.80755 2.4089 15.1153
233 1 7.01358 2.56506 15.4041
234 1 12.4435 -0.316477 15.5566
235 1 12.7469 2.53774 15.5095
236 1 3.91737 5.33135 15.2674
237 1 1.24013 5.33971 15.1604
238 1 4.15273 8.02975 15.3447
239 1 1.1179 8.14166 15.3231
240 1 9.56308 5.30553 15.2713
241 1 6.89777 5.34431 15.2243
242 1 9.79121 8.05485 15.6461
243 1 7.05102 8.06089 15.177
244 1 12.5841 5.306 15.3457
245 1 12.5555 8.07982 15.5906
246 1 3.8174 10.883 15.4377
247 1 1.18089 11.0658 15.4
248 1 3.97102 13.6301 15.5295
249 1 1.25748 13.9254 15.562
250 1 9.57745 10.8731 15.3632
251 1 6.80478 11.0661 15.3936
252 1 9.66771 13.759 15.3733
253 1 6.8816 13.8896 15.4936
254 1 12.3769 11.0609 15.6793
255 1 12.6284 13.9197 15.4134
256 1 4.3938 16.4283 15.37
257 1 1.41519 16.6873 15.5126
258 1 4.26973 19.3658 15.4584
259 1 1.35665 19.5286 15.5364
260 1 9.86994 16.5516 15.3561
261 1 7.24056 16.6184 15.3157
262 1 9.78933 19.4057 15.4199
263 1 7.03128 19.2968 15.4526
264 1 12.5094 16.5233 15.2294
265 1 12.5328 19.4448 15.4024
266 1 4.00743 22.2607 15.4631
267 1 1.19658 22.2968 15.4107
268 1 9.79285 22.2524 15.3709
269 1 6.94953 22.0941 15.4825
270 1 12.7093 22.3445 15.2208
271 1 1.35351 -0.264807 18.0895
272 1 4.08576 -0.189917 18.3249
273 1 4.1718 -0.297938 21.056
274 1 1.14751 -0.511094 20.8211
275 1 1.31737 2.44899 18.2956
276 1 3.96249 2.54981 18.1633
277 1 4.09218 2.53396 21.0725
278 1 1.21812 2.35975 21.1335
279 1 6.79921 -0.243398 18.1581
280 1 9.58763 -0.343815 18.2765
281 1 9.68867 -0.299778 21.0816
282 1 7.06291 -0.0666559 20.9337
283 1 6.94208 2.63876 18.2339
284 1 9.67837 2.58174 18.0895
285 1 9.75617 2.51241 20.9213
286 1 6.94554 2.6939 20.9467
287 1 12.6313 -0.422331 18.2793
288 1 12.3904 -0.483233 20.9289
289 1 12.6473 2.40746 18.168
290 1 12.7033 2.34281 20.9285
291 1 1.10001 5.33008 18.1026
292 1 3.88525 5.25614 18.1663
293 1 3.99093 5.15022 21.145
294 1 1.23355 5.3493 20.8823
295 1 1.13803 8.28692 18.1244
296 1 4.02575 8.25805 18.3442
297 2 5.71046 9.45162 19.3294
298 1 1.37474 8.07796 20.9812
299 1 6.93403 5.28025 18.1393
300 1 9.54216 5.23585 17.9313
301 1 9.49978 5.33177 20.9063
302 1 6.82188 5.50543 21.0358
303 1 6.89082 8.08193 18.0766
304 1 9.81801 8.22015 18.2974
305 1 9.86815 8.25932 21.2432
306 1 7.02587 8.23408 20.9206
307 1 12.6929 5.32251 18.2079
308 1 12.4957 5.10613 20.9418
309 1 12.4684 8.20967 18.3599
310 1 12.5792 8.07987 20.9011
311 1 1.22524 10.9206 18.4383
312 1 4.17265 10.8721 18.2372
313 1 4.32481 10.6726 20.9398
314 1 1.31654 10.9804 21.1032
315 1 1.27615 13.7731 18.3136
316 1 4.2964 13.7865 18.4301
317 1 4.05979 13.6857 21.1125
318 1 1.24504 13.6143 21.078
319 1 6.69478 10.7682 17.9498
320 1 9.59301 11.019 18.2072
321 1 9.63274 11.1546 21.2318
322 1 6.98889 10.8807 20.5419
323 1 6.99315 13.7097 18.218
324 1 9.66768 13.7821 18.0521
325 1 9.66854 13.9129 20.9804
326 1 6.86011 13.8472 21.1456
327 1 12.2693 10.9447 18.4243
328 1 12.482 10.9289 21.1608
329 1 12.4998 13.8672 18.2472
330 1 12.7243 13.6264 20.8656
331 1 1.32672 16.6631 18.4066
332 1 4.25828 16.6343 18.2656
333 1 3.87081 16.6927 21.0256
334 1 1.03057 16.369 21.0474
335 1 1.42821 19.3339 18.4616
336 1 4.008 19.5463 18.3123
337 1 4.12025 19.4701 21.0116
338 1 1.35242 19.3947 21.2005
339 1 7.01389 16.6617 18.3409
340 1 9.78306 16.6779 18.1502
341 1 9.70288 16.9211 20.8513
342 1 6.8303 16.5336 21.0921
343 1 6.92179 19.4598 18.0408
344 1 9.91196 19.4534 18.1447
345 1 12.5806 19.4626 21.1821
346 1 6.82518 19.4826 20.9873
347 1 12.5702 16.6108 18.2121
348 1 12.6297 16.5473 20.9344
349 1 12.5528 19.3411 18.2441
350 1 12.5621 19.1312 23.9136
351 1 1.08958 22.2825 18.275
352 1 3.78752 22.3846 18.2248
353 1 3.87673 22.3039 21.2665
354 1 1.15327 22.3012 20.9262
355 1 6.80199 22.1668 18.2717
356 1 9.52411 22.1685 18.3064
357 1 9.54284 22.226 21.0622
358 1 6.66197 22.0689 21.2088
359 1 12.2383 22.2982 18.0856
360 1 12.3957 22.3505 21.0392
361 1 1.31905 -0.276388 23.8365
362 1 4.2257 -0.322224 23.8252
363 1 4.10189 -0.239815 26.622
364 1 1.3185 -0.282356 26.6688
365 1 1.20778 2.45162 23.8176
366 1 3.85973 2.3532 23.7761
367 1 4.21754 2.62976 26.5146
368 1 1.33479 2.58049 26.5065
369 1 6.97722 -0.471484 23.6749
370 1 9.7582 -0.250477 23.7508
371 1 9.78213 -0.404562 26.3812
372 1 6.87431 -0.11508 26.732
373 1 6.88445 2.44047 23.7962
374 1 9.62764 2.68418 23.5709
375 1 10.0643 2.34337 26.4254
376 1 7.07067 2.50083 26.6698
377 1 12.6934 -0.507469 23.7524
378 1 12.5803 -0.305641 26.6219
379 1 12.5157 2.28065 23.666
380 1 12.6476 2.52109 26.6312
381 1 1.22322 5.24687 23.8758
382 1 4.04257 5.10325 23.8817
383 1 4.08 5.23697 26.6197
384 1 1.21675 5.26317 26.669
385 1 1.16648 8.11289 23.7716
386 1 4.2886 7.81683 20.9254
387 1 4.00823 8.32116 23.8116
388 1 1.29771 8.09515 26.6574
389 1 6.88459 5.1701 23.8242
390 1 9.68571 5.26989 23.7106
391 1 9.85003 5.15756 26.5046
392 1 7.23832 5.17274 26.6415
393 1 6.7617 8.13283 23.8413
394 1 9.50712 7.89445 23.878
395 1 9.95388 7.95348 26.6513
396 1 6.91989 7.90323 26.7786
397 1 12.6792 5.09465 23.8371
398 1 12.7032 5.25471 26.5758
399 1 12.5087 7.97191 23.8437
400 1 12.6915 8.19163 26.6576
401 1 1.20041 10.9624 23.9361
402 1 4.13573 11.0263 23.903
403 1 3.96207 10.9779 26.7502
404 1 1.26653 10.9263 26.8995
405 1 1.10162 13.621 23.8484
406 1 4.19149 13.6185 24.2056
407 1 4.10437 13.7651 26.8178
408 1 1.4106 13.7381 26.7617
409 1 6.98191 10.8556 23.8998
410 1 9.93376 10.8857 23.8846
411 1 9.64109 10.9069 26.6411
412 1 6.92613 10.8538 26.5478
413 1 6.85428 13.7746 24.0637
414 1 9.76265 13.4948 24.3288
415 1 9.70119 13.6464 27.004
416 1 7.00243 13.8106 26.7873
417 1 12.7914 10.8912 23.9292
418 1 12.6074 11.0242 26.8189
419 1 12.7611 13.5354 24.0285
420 1 12.5747 13.8074 26.9235
421 1 1.34969 16.5735 23.9263
422 1 4.1574 16.5176 23.8403
423 1 3.98895 16.6126 26.659
424 1 1.19312 16.6463 26.6051
425 1 1.10277 19.4224 23.8805
426 1 3.9959 19.2961 23.9476
427 1 4.0537 19.3878 26.7691
428 1 1.33566 19.4411 26.6534
429 1 6.99361 16.568 23.6877
430 1 9.66728 16.5975 23.9926
431 1 9.70492 16.3999 26.9258
432 1 6.83173 16.4691 26.5
433 1 6.81005 19.265 23.9648
434 1 9.57158 19.469 21.1323
435 1 9.59316 19.0868 26.8194
436 1 6.84484 19.3815 26.7438
12144 2 5.61025 17.8861 14.0834
438 1 12.5248 16.6458 26.6946
439 1 12.5531 19.3606 26.7059
12146 2 2.70173 20.7723 14.0078
441 1 1.18734 22.2523 23.8044
442 1 4.16972 21.9798 24.1691
443 1 4.0333 22.3043 26.8254
444 1 0.975467 22.1571 26.6302
445 1 6.99776 22.2798 23.8453
446 1 9.778 22.1912 23.7714
447 1 9.37489 21.9455 26.4545
448 1 6.60749 22.2751 26.7318
449 1 12.5962 22.1729 23.7961
450 1 12.5124 21.9783 26.6253
15171 2 13.9092 12.3721 16.8514
12250 2 11.0062 23.4406 25.1623
12148 2 8.38227 20.8064 14.0863
12151 2 -0.151928 -1.68387 16.7998
15232 2 13.9161 15.0435 25.4447
12227 2 8.40001 9.50416 25.1599
12249 2 11.0838 20.6775 22.4568
12226 2 8.50475 12.7457 22.5616
12225 2 5.45147 9.48587 22.6062
12191 2 -0.100049 20.7869 16.9446
12223 2 2.75189 9.78087 25.3698
12248 2 5.36703 23.5712 25.1717
12222 2 2.59828 12.3385 22.6418
12228 2 5.65778 12.3879 25.3674
12157 2 8.3501 -1.63671 19.6954
12220 2 11.0774 6.55865 25.1516
12247 2 8.2201 20.6599 25.137
12184 2 -0.103699 18.0287 19.8075
12211 2 -0.0801184 3.75634 22.4317
12155 2 5.37576 -1.71513 17.0666
12219 2 11.2829 3.85695 22.3187
12246 2 8.30201 23.5652 22.4719
12150 2 11.3094 23.7111 14.1522
12218 2 5.60491 6.59443 25.3192
12204 2 -0.119081 1.06089 25.1167
12245 2 5.38666 20.8402 22.6375
12152 2 2.77882 1.02341 16.7934
12019 2 11.3379 3.82206 28.0218
12243 2 2.65369 20.6112 25.3455
12016 2 8.37272 6.61662 28.0044
12156 2 8.31365 1.03569 16.7076
15141 2 13.877 15.2115 13.9966
12158 2 5.45085 1.14736 19.5945
12149 2 5.52641 23.6607 13.9741
12160 2 11.1685 1.0927 19.4846
12242 2 2.4152 23.7064 22.3529
12162 2 2.68014 6.71738 16.5668
12163 2 2.61894 3.75586 19.5624
12240 2 11.2401 18.0617 25.462
12165 2 5.57352 3.94928 16.679
12166 2 8.26383 6.69401 16.6047
12167 2 8.38057 3.92011 19.5687
12168 2 5.36154 6.35495 19.5968
12169 2 11.1223 3.90992 16.6125
12170 2 11.3044 6.74629 19.4767
12239 1 9.76549 19.4384 23.8865
12172 2 2.59767 12.4056 16.7327
12173 2 2.35291 9.56501 19.5894
12238 2 5.51324 17.8243 25.2269
12175 2 5.5343 9.43816 16.285
12176 2 8.23036 12.3558 16.7586
12177 2 8.82964 9.62885 19.8119
12178 2 5.6212 12.5452 19.5378
12179 2 11.1444 9.54995 16.8922
12180 2 11.1612 12.5409 19.7333
12237 2 8.34441 15.0651 25.2572
12182 2 2.61546 17.9422 17.0143
12183 2 2.56793 15.1675 19.6689
12236 2 8.42629 17.9251 22.4509
12185 2 5.60438 15.2105 16.7878
12186 2 8.30106 17.8926 16.7985
12187 2 8.36398 15.2033 19.6092
12188 2 5.63878 18.0191 19.7316
12189 2 11.0433 15.1834 16.7056
12190 2 11.0862 18.1236 19.5865
12235 2 5.44524 15.1126 22.4956
12192 2 2.71536 23.8242 16.8236
12193 2 2.66984 20.9274 19.822
15241 2 13.7468 23.7186 22.5786
12195 2 5.33382 20.8556 16.8338
12196 2 8.17872 23.5208 16.9423
12197 2 8.11931 20.7263 19.5742
12198 2 5.49587 23.6039 19.7355
12199 2 11.1849 20.8058 16.705
12200 2 10.8781 23.6058 19.6374
12233 2 2.61103 15.127 25.2424
12202 2 2.64614 1.00576 22.4086
12214 2 -0.0123302 6.73528 25.1541
12232 2 2.69951 18.0957 22.5065
26 1 4.24852 8.33124 26.5705
12206 2 8.32884 1.21335 22.3372
15181 2 13.8882 18.053 16.7952
12208 2 5.62244 1.12604 25.1569
12217 2 8.53046 3.86937 25.1426
12210 2 11.3411 0.943353 25.1049
12230 2 11.1865 12.315 25.4107
12212 2 2.67866 6.66818 22.4613
12213 2 2.77547 3.86449 25.3087
12229 2 11.1752 9.65269 22.5544
12215 2 5.54588 4.04245 22.3984
12216 2 8.33092 6.62413 22.3782
12002 2 2.66938 1.05854 28.0411
15192 2 13.8014 21.0322 19.7392
12161 2 -0.0939989 3.89449 16.7122
15221 2 13.8818 12.4772 22.5132
12221 2 -0.0912467 9.42698 22.2678
12141 2 2.50418 15.2987 13.9885
12035 2 5.47027 15.0986 27.95
12006 2 8.47318 0.911433 27.9351
15136 2 13.9001 9.38793 14.0044
12130 2 11.015 0.908215 14.0303
12139 2 5.36254 12.5129 14.0528
12029 2 11.1211 9.47485 27.9817
12131 2 2.68678 3.89197 13.9743
12025 2 5.64264 9.47766 28.0764
12140 2 11.0654 12.3925 14.0894
12142 2 -0.0756455 18.0414 14.1687
451 1 1.14416 24.8746 1.26331
452 1 3.93353 24.8643 1.32973
453 1 4.15445 24.9632 4.26891
454 1 0.975645 24.9678 4.11262
455 1 6.6862 24.9668 1.12569
456 1 9.62455 24.827 1.15095
457 1 9.69458 24.8616 4.0376
458 1 6.8396 24.9242 4.12368
459 1 12.2296 27.7316 1.08435
460 1 12.4672 25.1085 4.09353
461 1 1.11825 27.6963 1.1328
462 1 4.07423 27.6661 1.28601
463 1 3.79059 27.795 4.22572
464 1 1.18273 27.8029 4.09238
465 1 1.20127 33.1801 1.76443
466 1 3.79597 30.5164 1.15495
467 1 4.01329 30.5827 4.06963
468 1 0.99395 30.5808 1.5728
469 1 6.96551 27.5162 1.40807
470 1 9.63681 27.5539 1.32843
471 1 9.74234 27.6509 4.18327
472 1 6.82516 27.6641 4.06839
473 1 6.44283 30.2927 1.28307
474 1 9.25873 30.4993 1.31616
475 1 9.41777 30.6409 4.3114
476 1 6.66982 30.5978 3.8677
12262 2 2.34328 34.8809 0.151645
478 1 12.4778 27.9479 4.0533
15282 2 13.9714 43.2428 2.96464
15271 2 13.7199 40.3598 0.0411701
12289 2 11.0436 43.4082 0.239762
482 1 3.93069 33.5516 1.47022
483 1 3.35913 33.1981 4.20283
484 1 0.410298 33.6105 4.29329
15341 2 13.9317 29.2131 11.2498
486 1 3.75125 36.4177 1.37747
487 1 3.88291 36.3623 4.1326
488 1 1.21798 39.3036 4.23679
489 1 6.88176 33.3561 1.49791
490 1 9.53656 33.3257 1.63629
491 1 9.2849 33.44 4.29563
492 1 6.32161 33.3465 4.05417
493 1 6.6313 36.1379 1.33884
494 1 9.46711 36.2996 1.54591
495 1 9.61819 36.3915 4.22767
496 1 6.73209 36.1102 4.13415
15316 2 13.7477 40.5604 5.64323
498 1 12.0955 33.4571 4.3798
499 1 12.3654 36.4947 1.79946
500 1 12.5567 36.2939 4.37389
501 1 1.06309 36.5557 1.53639
502 1 3.80438 39.2046 1.51263
503 1 3.93938 39.3161 4.20255
504 1 1.21452 39.1192 1.2886
505 1 1.47211 41.9985 1.45986
506 1 4.15695 42.0125 1.39037
507 1 4.08932 42.1072 4.13297
508 1 1.22288 42.1554 3.94971
509 1 6.70462 38.9789 1.26567
510 1 9.42625 39.2928 1.62087
511 1 9.46498 39.1588 4.39896
512 1 6.75062 38.893 4.16403
513 1 6.86945 41.7867 1.51323
514 1 9.60052 41.921 1.46745
515 1 9.61418 42.0047 4.35282
516 1 6.91607 41.8493 4.40127
517 1 12.5899 39.1795 1.7319
518 1 12.2554 39.0818 4.24657
519 1 12.4163 41.7905 1.63437
520 1 12.4118 41.9657 4.39986
521 1 1.27017 44.7885 1.39148
522 1 4.02474 44.8585 1.57463
523 1 3.95835 44.7379 4.45878
524 1 1.01087 44.7726 4.19089
525 1 1.03648 47.5881 1.65638
526 1 4.01884 47.6853 1.4652
527 1 4.05185 47.5064 4.31546
528 1 1.07128 47.5734 4.39995
529 1 6.88966 44.6098 1.48901
530 1 9.47275 44.7076 1.70134
531 1 9.63115 44.7373 4.39743
532 1 6.80975 44.7174 4.27289
533 1 6.89643 47.3635 1.36542
534 1 9.74928 47.378 1.48393
535 1 9.7284 47.7588 4.47698
536 1 6.94489 47.5262 4.19639
537 1 12.3728 44.4219 1.68551
538 1 12.4342 44.7093 4.31501
539 1 12.637 47.5164 1.46232
540 1 12.5253 47.3717 4.15451
541 1 1.21071 24.9954 7.09935
542 1 4.06439 25.2824 6.89093
543 1 3.91785 25.1503 9.7035
544 1 1.24607 24.9854 9.84582
545 1 6.82404 24.9581 7.09583
546 1 9.71516 24.9506 6.92189
547 1 9.57112 24.9993 9.62412
548 1 6.63453 24.7789 9.93145
549 1 12.4936 25.0175 6.97838
550 1 12.3387 24.9592 9.76595
551 1 1.22918 27.7636 6.7278
552 1 4.16425 28.1173 6.72035
553 1 4.07781 27.8842 9.76812
554 1 1.23245 27.8723 10.0099
555 1 1.04171 30.7487 4.45152
556 1 4.05274 30.7927 6.98695
557 1 3.79741 30.6298 9.75143
558 1 1.02417 33.2544 9.76811
559 1 6.71634 27.8254 7.03013
560 1 9.47858 27.7185 6.95497
561 1 9.68571 27.6449 9.95099
562 1 6.88115 27.5883 9.87422
563 1 6.765 30.4811 6.81234
564 1 9.6469 30.4595 7.12212
565 1 9.5778 30.4439 9.88664
566 1 6.80008 30.4491 9.84664
567 1 12.3154 27.857 6.82826
568 1 12.3962 27.9191 9.95594
569 1 12.5471 30.5908 7.00601
570 1 12.4769 30.6927 9.79406
571 1 1.10852 36.3521 4.19738
572 1 3.95216 33.5973 7.0084
573 1 3.91156 33.379 9.81409
574 1 1.253 33.6291 7.13187
575 1 1.26871 36.414 6.94307
576 1 4.04356 36.3188 7.0312
577 1 4.04433 36.1588 9.89178
578 1 1.15238 36.1763 9.82247
579 1 6.82504 33.2372 6.94897
580 1 9.6804 33.2385 7.18868
581 1 9.32598 33.0709 9.96828
582 1 6.81825 33.3043 9.85077
583 1 6.64411 36.1178 7.02743
584 1 9.88972 35.8646 6.73786
585 1 10.1425 35.7956 10.3275
586 1 6.82391 36.0198 10.0436
587 1 12.419 33.273 7.20739
588 1 12.3311 33.5042 9.88239
589 1 12.4607 36.2828 7.24616
590 1 12.552 36.3275 9.89459
591 1 1.19934 39.389 7.07261
592 1 4.08192 39.175 7.12803
593 1 3.81021 38.8721 9.8681
594 1 1.2279 38.9259 9.68107
595 1 1.21678 42.0488 6.96241
596 1 4.02434 41.8484 7.08492
597 1 4.07123 41.9738 10.1287
598 1 1.24142 41.9269 9.68911
599 1 6.6601 39.4394 6.95395
600 1 9.65932 39.2475 7.04227
601 1 9.87238 39.2797 10.2494
602 1 6.70902 39.2366 10.0287
603 1 6.81756 42.0205 7.33239
604 1 9.66979 44.7127 7.24647
605 1 9.69424 41.9201 10.0447
606 1 6.8759 42.0019 10.1169
607 1 12.4375 38.9438 6.94881
608 1 12.6117 39.03 9.9535
609 1 12.3633 41.8981 7.0139
610 1 12.3632 41.8948 9.87945
611 1 1.07809 44.9187 7.04335
612 1 3.91675 44.5678 7.08433
613 1 4.11495 44.6545 9.86932
614 1 1.43849 44.7631 9.94583
615 1 1.15192 47.5282 7.18316
616 1 4.06451 47.5513 7.10684
617 1 4.09926 47.5969 10.0115
618 1 1.25044 47.6481 10.0973
619 1 6.71791 44.732 6.94244
620 1 9.6519 47.4892 7.18755
621 1 9.75613 44.8044 9.9764
622 1 6.99521 44.7833 9.89245
623 1 6.74758 47.4537 6.95597
12269 2 10.4027 32.0541 -0.0843145
625 1 9.78406 47.7082 9.80938
626 1 7.02579 47.5499 9.93766
627 1 12.6634 44.9133 7.13297
628 1 12.4732 44.7889 9.73632
629 1 12.6432 47.9027 6.90084
630 1 12.7604 47.684 9.66384
631 1 1.30453 25.1063 12.809
632 1 3.91855 25.1386 12.6223
633 1 6.95299 25.0612 12.7496
634 1 9.63154 25.2847 12.5196
635 1 12.5534 25.109 12.6098
636 1 1.43115 28.0365 12.918
637 1 4.10216 27.6982 12.6228
638 1 1.12541 30.6792 12.0195
639 1 3.95593 30.4881 12.6045
640 1 6.72577 27.9285 12.83
641 1 9.85407 28.094 12.6436
642 1 6.7816 30.7109 12.6896
643 1 9.67231 30.827 12.6767
644 1 12.5449 27.9415 12.8374
645 1 12.4615 30.661 12.8292
646 1 1.20152 33.4334 12.8594
647 1 4.01101 33.3656 12.6895
648 1 1.12363 36.2063 12.6129
649 1 4.03598 36.3526 12.6965
650 1 6.76201 33.52 12.6865
651 1 9.52088 33.5073 12.795
652 1 6.85819 36.4602 12.8138
653 1 9.55769 36.2873 12.9594
654 1 12.4635 33.5876 12.565
655 1 12.3846 36.3186 12.8976
656 1 1.28339 38.7877 12.7987
657 1 4.04961 39.1238 12.7981
658 1 1.21179 41.7718 12.6357
659 1 4.07636 41.9686 12.8748
660 1 6.84501 39.1172 12.7083
661 1 9.53461 39.2112 13.019
662 1 6.85256 42.0148 13.0155
663 1 9.94563 41.9431 12.8019
664 1 12.4387 39.2975 12.6906
665 1 12.5297 42.0996 12.8592
666 1 1.32302 44.7376 12.7439
667 1 4.0764 44.595 12.6162
668 1 1.38373 47.4301 12.8437
669 1 4.2485 47.2841 12.7403
670 1 6.9553 44.7277 12.598
671 1 9.59099 44.7915 12.7203
672 1 7.16688 47.6602 12.7569
673 1 9.72012 47.3022 12.8004
674 1 12.5625 44.8571 12.5818
675 1 12.4484 47.6996 12.678
12363 2 11.0352 48.9528 11.3606
480 1 13.1865 33.4258 1.50264
12253 2 2.73923 26.2928 2.89954
12362 2 5.36386 48.8968 11.4316
12265 2 5.3134 31.9966 0.0994286
15317 2 13.9122 37.7189 8.44468
12257 2 8.21277 26.1755 2.72295
12258 2 5.34049 28.9433 2.69333
12282 2 2.64194 46.1243 0.0655255
12260 2 10.9955 29.0867 2.71227
901 1 1.24996 50.3451 1.25774
15307 2 13.845 31.7917 8.43657
12263 2 2.78444 31.7846 2.63414
12360 2 11.1662 43.3333 11.3947
12259 2 11.057 26.22 -0.074464
1002 1 3.99338 50.4087 7.10666
12267 2 8.08271 31.955 2.90117
12268 2 5.26995 34.9551 2.78066
12276 2 8.26586 40.5288 0.122002
12270 2 10.9556 34.9265 2.99389
12359 2 8.31853 46.1275 11.3379
6571 1 12.1182 30.562 4.06129
12273 2 2.50237 37.8912 2.83259
12358 2 5.48863 43.169 11.4586
624 1 9.64066 50.2087 7.13784
12350 2 10.9949 32.1288 11.3502
12277 2 8.25167 37.7748 2.97477
12278 2 5.46596 40.5317 2.72834
15252 2 13.7657 26.4213 2.8257
12280 2 10.9846 40.7363 2.92101
12349 2 8.38427 34.9462 11.5081
12299 1 1.10151 30.8304 7.24278
12283 2 2.56681 43.3453 2.76003
12266 2 8.03461 34.9796 0.108715
15296 2 13.7285 29.1055 5.55064
15327 2 13.7718 43.4062 8.3167
12287 2 8.18944 43.2307 2.96404
12288 2 5.5197 45.9933 2.95493
12275 2 5.24294 37.7293 0.20331
12290 2 11.1316 46.1517 2.92312
477 1 12.1009 30.6582 0.191357
12292 2 2.51436 48.9967 2.9204
12352 2 2.81068 40.4266 11.2994
12294 2 8.29228 48.9475 2.93247
12295 2 11.2786 48.9204 0.341934
12357 2 2.8428 45.9705 11.2614
12297 2 2.54589 29.2376 5.55353
12298 2 2.48085 26.4573 8.32654
15346 2 13.7189 35.0067 11.2844
12300 2 5.5542 26.4255 5.61026
12301 2 8.11211 29.1782 5.49923
12302 2 8.22225 26.3969 8.29225
12303 2 5.26549 29.253 8.38988
12304 2 11.0307 26.2735 5.58879
12305 2 11.0118 29.3062 8.41759
12279 2 10.9586 37.7758 0.545075
12307 2 2.57632 34.9793 5.58412
12308 2 2.59906 32.1202 8.30856
12355 2 10.9577 37.7297 11.3731
12310 2 5.34325 31.9661 5.59916
12311 2 8.10409 34.9038 5.76426
12312 2 8.27806 31.9582 8.51412
12313 2 5.49514 34.7294 8.59717
12314 2 10.8441 31.899 5.64684
12315 2 11.0521 34.8595 8.53543
12354 2 8.3377 40.5457 11.318
12317 2 2.70347 40.5758 5.72487
12318 2 2.67935 37.5877 8.42251
6082 1 12.2565 24.8783 1.38411
12320 2 5.46957 37.7102 5.68636
12321 2 8.27965 40.512 5.83908
12322 1 9.59523 42.0813 7.13302
12323 2 5.44951 40.4161 8.61249
12324 2 11.0535 37.5463 5.69827
12325 2 10.8455 40.4335 8.54448
12348 2 5.39126 32.2534 11.3315
12327 2 2.67579 46.1742 5.65386
12328 2 2.56873 43.3613 8.46423
1106 1 9.65538 50.3191 12.6898