LAMMPS (29 Oct 2020)
OMP_NUM_THREADS environment is not set. Defaulting to 1 thread. (../comm.cpp:94)
  using 1 OpenMP thread(s) per MPI task
OMP_NUM_THREADS environment is not set. Defaulting to 1 thread. (../comm.cpp:94)
  using 1 OpenMP thread(s) per MPI task
Reading data file ...
  orthogonal box = (-0.36528843 -4.3023158 -0.3561032) to (27.705288 332.38232 27.696103)
  2 by 13 by 2 MPI processor grid
  reading atoms ...
  17640 atoms
  reading velocities ...
  17640 velocities
Finding 1-2 1-3 1-4 neighbors ...
  special bond factors lj:    0.0      0.0      0.0     
  special bond factors coul:  0.0      0.0      0.0     
     0 = max # of 1-2 neighbors
     0 = max # of 1-3 neighbors
     0 = max # of 1-4 neighbors
     1 = max # of special neighbors
  special bonds CPU = 0.003 seconds
  read_data CPU = 0.066 seconds
Setting atom values ...
  11760 settings made for charge
Setting atom values ...
  5880 settings made for charge
PPPM initialization ...
  using 12-bit tables for long-range coulomb (../kspace.cpp:328)
  G vector (1/distance) = 0.29881614
  grid = 40 240 40
  stencil order = 5
  estimated absolute RMS force accuracy = 0.00015618178
  estimated relative force accuracy = 1.0846224e-05
  using single precision MKL FFT
  3d grid and FFT values/proc = 15000 7600
Neighbor list info ...
  update every 1 steps, delay 0 steps, check yes
  max neighbors/atom: 2000, page size: 100000
  master list distance cutoff = 11.3
  ghost atom cutoff = 11.3
  binsize = 5.65, bins = 5 60 5
  2 neighbor lists, perpetual/occasional/extra = 2 0 0
  (1) pair coul/long, perpetual
      attributes: half, newton on
      pair build: half/bin/newton
      stencil: half/bin/3d/newton
      bin: standard
  (2) pair eam/alloy, perpetual, copy from (1)
      attributes: half, newton on
      pair build: copy
      stencil: none
      bin: none
Setting up Verlet run ...
  Unit style    : metal
  Current step  : 0
  Time step     : 0.001
Per MPI rank memory allocation (min/avg/max) = 8.146 | 8.177 | 8.199 Mbytes
Step Temp E_pair E_mol TotEng Press 
       0          600   -230457.29            0   -229089.28   -631.41307 
  100000    601.39811   -230459.87            0   -229088.67   -1258.3152 
Loop time of 638.614 on 52 procs for 100000 steps with 17640 atoms

Performance: 13.529 ns/day, 1.774 hours/ns, 156.589 timesteps/s
99.8% CPU use with 52 MPI tasks x 1 OpenMP threads

MPI task timing breakdown:
Section |  min time  |  avg time  |  max time  |%varavg| %total
---------------------------------------------------------------
Pair    | 425.07     | 439.97     | 457.43     |  36.9 | 68.89
Bond    | 0.0071548  | 0.0099261  | 0.014311   |   1.9 |  0.00
Kspace  | 126.46     | 145.68     | 161.09     |  65.1 | 22.81
Neigh   | 30.105     | 33.817     | 36.852     |  26.2 |  5.30
Comm    | 13.667     | 14.7       | 17.27      |  25.4 |  2.30
Output  | 5.5918e-05 | 6.1247e-05 | 0.00026427 |   0.0 |  0.00
Modify  | 1.7067     | 3.1751     | 5.2196     |  66.4 |  0.50
Other   |            | 1.269      |            |       |  0.20

Nlocal:        339.231 ave         365 max         317 min
Histogram: 1 3 4 11 11 15 3 0 1 3
Nghost:        4064.21 ave        4216 max        3901 min
Histogram: 4 3 4 8 4 8 6 6 5 4
Neighs:        67441.0 ave       73874 max       58495 min
Histogram: 3 2 2 0 2 14 19 6 1 3

Total # of neighbors = 3506933
Ave neighs/atom = 198.80573
Ave special neighs/atom = 0.0000000
Neighbor list builds = 16206
Dangerous builds = 0
11760 atoms in group oxygen
PPPM initialization ...
  using 12-bit tables for long-range coulomb (../kspace.cpp:328)
  G vector (1/distance) = 0.29881614
  grid = 40 240 40
  stencil order = 5
  estimated absolute RMS force accuracy = 0.00015618178
  estimated relative force accuracy = 1.0846224e-05
  using single precision MKL FFT
  3d grid and FFT values/proc = 15000 7600
Setting up Verlet run ...
  Unit style    : metal
  Current step  : 0
  Time step     : 0.001
Per MPI rank memory allocation (min/avg/max) = 8.397 | 8.427 | 8.450 Mbytes
Step f_2 Temp v_Tdiff v_deltaT 
       0            0    601.39811            0            0 
  100000    694.26569    599.22375  0.018237112    211.73118 
  200000     1363.848    594.04017   0.02072523      240.618 
  300000    2036.2973    596.85279  0.021270866    246.95277 
  400000     2707.223    594.25461  0.020664296    239.91056 
  500000    3380.0165    604.18637  0.020558725    238.68489 
  600000     4049.051    598.18332  0.020641431     239.6451 
  700000    4716.7843    602.80349  0.021661463    251.48757 
  800000    5386.8561    599.93922  0.020595531    239.11221 
  900000    6057.6682    598.47926  0.021460404     249.1533 
 1000000    6732.4846    603.35443  0.020950066    243.22832 
Loop time of 6366.38 on 52 procs for 1000000 steps with 17640 atoms

Performance: 13.571 ns/day, 1.768 hours/ns, 157.075 timesteps/s
99.8% CPU use with 52 MPI tasks x 1 OpenMP threads

MPI task timing breakdown:
Section |  min time  |  avg time  |  max time  |%varavg| %total
---------------------------------------------------------------
Pair    | 4179.8     | 4362.8     | 4548.4     | 125.4 | 68.53
Bond    | 0.068835   | 0.099487   | 0.16527    |   6.6 |  0.00
Kspace  | 1263.6     | 1470.2     | 1652.5     | 219.9 | 23.09
Neigh   | 309.85     | 348.84     | 381.42     |  87.2 |  5.48
Comm    | 136.58     | 148.22     | 177.81     |  88.9 |  2.33
Output  | 0.0010377  | 0.0011057  | 0.0022944  |   0.5 |  0.00
Modify  | 5.2179     | 5.734      | 6.2588     |  10.5 |  0.09
Other   |            | 30.48      |            |       |  0.48

Nlocal:        339.231 ave         367 max         319 min
Histogram: 1 6 6 16 7 7 4 1 2 2
Nghost:        4081.50 ave        4217 max        3894 min
Histogram: 2 2 2 6 9 7 5 7 4 8
Neighs:        67436.8 ave       73932 max       59007 min
Histogram: 3 3 1 2 2 15 16 5 2 3

Total # of neighbors = 3506716
Ave neighs/atom = 198.79342
Ave special neighs/atom = 0.0000000
Neighbor list builds = 166429
Dangerous builds = 0
Total wall time: 1:56:45
