ITEM: TIMESTEP
100000
ITEM: NUMBER OF ATOMS
18000
ITEM: BOX BOUNDS xy xz yz pp pp pp
-1.2631402204664713e-01 2.8020314022046506e+01 0.0000000000000000e+00
-1.5938316857008019e+00 3.3632183168570674e+02 0.0000000000000000e+00
-1.2662034508389886e-01 2.8020620345083376e+01 0.0000000000000000e+00
ITEM: ATOMS id type q mass x y z
9025 2 2.2208 232.038 13.9419 23.2624 5.40073
9274 3 -1.1104 15.9994 1.26798 4.599 6.64516
8938 2 2.2208 232.038 -0.094775 9.30808 10.8765
4 1 -1.1104 15.9994 7.47038 21.8545 12.3515
5 1 -1.1104 15.9994 4.37968 22.0715 12.5108
6 1 -1.1104 15.9994 1.48801 21.8598 12.4893
682 2 2.2208 232.038 11.3127 8.90918 -0.113647
8 2 2.2208 232.038 5.48098 0.360024 2.5071
9 1 -1.1104 15.9994 12.7495 19.2962 12.5301
10 2 2.2208 232.038 11.2126 0.42205 2.7441
126 1 -1.1104 15.9994 1.08569 -1.25749 1.00541
39 3 -1.1104 15.9994 7.08319 -0.970716 1.11414
13 2 2.2208 232.038 2.78537 3.35831 2.46588
14 3 -1.1104 15.9994 9.74141 10.5465 1.04098
15 1 -1.1104 15.9994 12.4596 13.8453 12.4143
16 1 -1.1104 15.9994 12.1841 16.4905 12.3131
17 2 2.2208 232.038 8.38123 2.91775 2.56634
18 2 2.2208 232.038 5.125 6.24273 2.57164
19 1 -1.1104 15.9994 6.85571 18.9897 12.5786
20 2 2.2208 232.038 11.472 6.38572 2.69252
21 4 2.2208 232.038 2.07878 17.9443 2.71763
22 2 2.2208 232.038 2.61048 11.8746 0.350155
23 2 2.2208 232.038 2.40158 9.19234 2.60265
24 4 2.2208 232.038 8.21758 5.98087 2.68963
94 2 2.2208 232.038 11.3289 6.53499 13.9338
26 1 -1.1104 15.9994 9.58524 14.3479 12.161
27 2 2.2208 232.038 8.36717 9.33413 2.49058
28 2 2.2208 232.038 5.49703 12.0105 2.64927
29 1 -1.1104 15.9994 6.72801 16.1611 12.28
30 2 2.2208 232.038 11.2022 11.7727 2.46213
31 3 -1.1104 15.9994 7.03866 16.4069 9.5341
32 1 -1.1104 15.9994 3.95522 19.1617 12.5028
33 2 2.2208 232.038 2.53121 14.517 2.71942
34 3 -1.1104 15.9994 2.84356 3.13234 10.7157
9286 2 2.2208 232.038 13.9202 9.20474 13.9677
342 2 2.2208 232.038 2.84264 3.31401 13.6136
37 2 2.2208 232.038 8.26224 14.6789 2.66007
38 2 2.2208 232.038 5.50214 17.6217 2.47833
36 2 2.2208 232.038 8.17057 17.6872 0.101883
40 2 2.2208 232.038 11.0801 17.4564 2.62359
41 1 -1.1104 15.9994 1.18087 19.032 12.4214
216 1 -1.1104 15.9994 2.45609 -1.53365 6.26089
43 2 2.2208 232.038 2.60708 21.0076 2.5955
44 1 -1.1104 15.9994 4.02813 16.151 12.5443
499 1 -1.1104 15.9994 9.39816 16.9536 13.1913
46 1 -1.1104 15.9994 1.07119 16.2278 12.5532
47 2 2.2208 232.038 8.25809 20.3861 2.68079
48 2 2.2208 232.038 5.6144 23.2699 2.74936
808 1 -1.1104 15.9994 10.7688 24.0865 4.56335
50 2 2.2208 232.038 11.0293 22.6688 2.62093
331 1 -1.1104 15.9994 9.56811 10.6153 12.5988
52 2 2.2208 232.038 2.5713 0.413155 4.9586
349 2 2.2208 232.038 8.20822 9.23856 13.8878
54 4 2.2208 232.038 2.47334 0.0764621 8.31737
333 1 -1.1104 15.9994 10.5489 12.2589 10.4456
56 2 2.2208 232.038 8.65887 0.352401 5.39989
9769 1 -1.1104 15.9994 13.0388 24.5129 1.79977
58 2 2.2208 232.038 5.81349 0.51063 8.2058
330 1 -1.1104 15.9994 6.77392 10.6719 12.6233
60 2 2.2208 232.038 11.1239 0.293079 7.93931
61 1 -1.1104 15.9994 12.5239 10.6396 11.9224
62 2 2.2208 232.038 2.62721 5.99617 5.24186
63 2 2.2208 232.038 2.70057 3.79607 8.39131
64 3 -1.1104 15.9994 11.1955 0.27974 5.39174
65 2 2.2208 232.038 5.62634 3.35294 5.36421
66 2 2.2208 232.038 8.59054 6.52602 5.88292
67 2 2.2208 232.038 8.22564 3.46721 8.24533
68 2 2.2208 232.038 5.56964 5.95179 8.13036
69 2 2.2208 232.038 11.1412 3.11676 5.34176
70 2 2.2208 232.038 11.3182 5.69119 8.23815
357 2 2.2208 232.038 2.77751 20.6315 13.8531
72 2 2.2208 232.038 2.73509 11.966 5.0114
73 2 2.2208 232.038 2.77188 8.33839 8.07466
74 3 -1.1104 15.9994 4.22225 22.0874 4.03746
75 2 2.2208 232.038 5.30346 9.03839 5.41024
76 2 2.2208 232.038 8.42545 12.0418 5.40209
77 2 2.2208 232.038 7.5766 9.31629 8.30718
78 2 2.2208 232.038 6.01618 12.124 8.31319
79 2 2.2208 232.038 10.9701 9.03174 4.77335
80 2 2.2208 232.038 11.4314 12.0537 8.23311
81 4 2.2208 232.038 2.801 11.4484 8.44024
82 2 2.2208 232.038 2.48122 17.7592 5.89872
83 2 2.2208 232.038 2.83055 15.1183 8.24307
329 1 -1.1104 15.9994 3.92037 13.3932 12.4885
85 2 2.2208 232.038 5.64622 14.7324 5.6496
86 2 2.2208 232.038 8.29662 17.5263 5.49757
87 2 2.2208 232.038 8.36364 15.1022 8.33433
88 2 2.2208 232.038 5.32436 17.6314 8.30577
89 2 2.2208 232.038 11.2951 14.6628 5.53475
90 2 2.2208 232.038 11.2226 17.5585 8.15333
91 3 -1.1104 15.9994 9.84855 21.8963 9.70072
92 2 2.2208 232.038 2.71269 23.3435 5.42564
93 2 2.2208 232.038 2.81401 20.3588 8.29434
306 1 -1.1104 15.9994 1.30473 -1.30724 12.4075
95 2 2.2208 232.038 5.61093 20.4419 5.39035
96 2 2.2208 232.038 8.53768 23.3452 5.39577
97 2 2.2208 232.038 8.31226 20.3761 8.28299
98 2 2.2208 232.038 5.50449 23.4113 8.19854
99 2 2.2208 232.038 11.0624 20.2509 5.52655
100 2 2.2208 232.038 11.2779 23.1808 8.35456
101 3 -1.1104 15.9994 9.64729 13.4672 4.00262
102 2 2.2208 232.038 2.64712 0.641887 11.5963
344 2 2.2208 232.038 7.92093 3.53923 14.116
104 2 2.2208 232.038 8.46835 0.558809 11.0243
53 2 2.2208 232.038 13.9629 0.3824 10.9281
106 4 2.2208 232.038 10.6327 8.69765 8.11751
107 2 2.2208 232.038 2.52924 6.18906 11.2125
108 2 2.2208 232.038 5.56595 3.39262 11.1096
109 2 2.2208 232.038 8.11369 6.56263 10.9879
110 2 2.2208 232.038 11.1676 3.26864 10.7756
111 1 -1.1104 15.9994 11.9447 22.0577 12.2654
112 2 2.2208 232.038 2.48656 12.0231 11.4367
113 2 2.2208 232.038 5.24404 9.45677 11.1727
114 2 2.2208 232.038 8.42166 12.11 11.2262
115 2 2.2208 232.038 10.9521 8.95538 11.4907
116 1 -1.1104 15.9994 9.79766 19.6747 12.5167
117 2 2.2208 232.038 2.50237 17.7027 11.176
118 2 2.2208 232.038 5.61776 14.6624 10.954
119 2 2.2208 232.038 8.30768 17.7662 11.2014
120 2 2.2208 232.038 11.4357 14.6494 10.5083
332 1 -1.1104 15.9994 6.68348 13.4251 12.4755
122 2 2.2208 232.038 2.54036 23.3989 11.0115
123 2 2.2208 232.038 5.51272 20.5741 11.1819
124 2 2.2208 232.038 8.34685 23.3939 10.9381
125 2 2.2208 232.038 11.2073 20.3824 10.8669
217 1 -1.1104 15.9994 4.55742 -1.41188 7.74343
127 1 -1.1104 15.9994 2.66665 0.270302 2.65971
128 1 -1.1104 15.9994 0.93334 -1.09347 3.98945
129 1 -1.1104 15.9994 4.26911 -1.0649 4.15396
130 1 -1.1104 15.9994 1.38917 1.95761 0.993066
131 1 -1.1104 15.9994 4.32058 1.86741 1.09348
132 1 -1.1104 15.9994 1.23157 2.19875 4.11879
133 1 -1.1104 15.9994 4.04306 2.04341 4.05474
134 1 -1.1104 15.9994 4.22522 -1.05934 1.09223
135 1 -1.1104 15.9994 9.80329 -1.04501 1.06769
136 1 -1.1104 15.9994 6.91693 -0.977751 3.95681
137 1 -1.1104 15.9994 9.79873 -1.05171 3.72343
138 1 -1.1104 15.9994 7.01305 1.85555 1.20107
139 1 -1.1104 15.9994 9.83888 1.64414 1.15812
140 1 -1.1104 15.9994 7.07241 1.66269 4.20051
141 1 -1.1104 15.9994 9.91358 1.91215 3.77976
142 1 -1.1104 15.9994 12.6527 -1.03721 1.14043
143 1 -1.1104 15.9994 12.7405 -1.09918 3.83877
144 1 -1.1104 15.9994 12.5676 1.89835 1.24869
145 1 -1.1104 15.9994 12.6965 2.02278 4.02967
146 1 -1.1104 15.9994 1.45705 4.78151 1.16988
147 1 -1.1104 15.9994 4.13624 4.67243 0.943485
148 1 -1.1104 15.9994 1.05991 4.92322 3.82907
149 1 -1.1104 15.9994 4.09587 4.88228 3.88413
150 1 -1.1104 15.9994 1.2783 7.65948 1.07764
151 1 -1.1104 15.9994 4.1896 7.54451 0.986842
152 1 -1.1104 15.9994 0.97142 7.83215 3.95425
153 1 -1.1104 15.9994 3.62128 7.65576 3.78234
154 1 -1.1104 15.9994 6.83866 5.03187 1.036
155 1 -1.1104 15.9994 9.44916 4.54213 1.21291
156 1 -1.1104 15.9994 6.85533 4.51858 3.60765
157 1 -1.1104 15.9994 9.58942 4.77374 4.0991
158 1 -1.1104 15.9994 7.19544 7.52342 1.39082
159 1 -1.1104 15.9994 9.73464 7.13357 1.25374
160 1 -1.1104 15.9994 6.61767 7.36491 4.02532
161 1 -1.1104 15.9994 9.27973 7.60966 3.9515
162 1 -1.1104 15.9994 12.4883 4.64534 1.3507
163 1 -1.1104 15.9994 12.3537 4.8471 4.00934
164 1 -1.1104 15.9994 12.9684 7.44889 1.2247
165 1 -1.1104 15.9994 12.8582 7.73205 4.15317
166 1 -1.1104 15.9994 0.9161 10.5495 1.22558
167 1 -1.1104 15.9994 4.07734 10.3766 1.32944
168 1 -1.1104 15.9994 2.69341 12.1099 2.67434
169 1 -1.1104 15.9994 4.31096 10.6461 4.05772
170 1 -1.1104 15.9994 1.10824 13.5434 0.890219
171 1 -1.1104 15.9994 4.19863 13.7242 1.16442
172 1 -1.1104 15.9994 1.05584 13.6056 4.16661
173 1 -1.1104 15.9994 4.24708 13.7528 4.17722
174 1 -1.1104 15.9994 6.82362 10.566 1.12884
175 1 -1.1104 15.9994 11.1197 8.90783 2.58884
176 1 -1.1104 15.9994 7.04238 10.3341 3.99974
177 1 -1.1104 15.9994 9.12856 9.11879 6.27394
178 1 -1.1104 15.9994 6.95917 13.3037 1.18448
179 1 -1.1104 15.9994 9.82598 13.3368 1.04734
180 1 -1.1104 15.9994 6.92056 13.268 3.97544
181 1 -1.1104 15.9994 9.68257 10.6833 3.86878
182 1 -1.1104 15.9994 12.8 10.4764 1.0819
183 1 -1.1104 15.9994 12.6793 10.6138 4.03362
184 1 -1.1104 15.9994 12.6874 13.2381 1.08369
185 1 -1.1104 15.9994 12.5929 13.2755 3.85915
186 1 -1.1104 15.9994 0.501673 17.6841 0.655711
187 1 -1.1104 15.9994 3.37368 16.5089 1.54449
188 1 -1.1104 15.9994 0.754963 15.8692 2.69129
189 1 -1.1104 15.9994 3.34091 16.5091 4.13137
190 1 -1.1104 15.9994 2.79169 19.3884 0.85731
8945 2 2.2208 232.038 -0.0874235 23.7126 8.16535
192 1 -1.1104 15.9994 0.510142 19.6531 2.56659
193 1 -1.1104 15.9994 2.14668 19.6474 4.53923
194 1 -1.1104 15.9994 6.88433 16.2112 1.22592
195 1 -1.1104 15.9994 9.68409 16.1905 1.25356
196 1 -1.1104 15.9994 6.52376 16.164 3.93284
197 1 -1.1104 15.9994 9.6251 16.2011 4.11909
198 1 -1.1104 15.9994 6.87172 19.1407 1.34769
199 1 -1.1104 15.9994 9.64752 18.9602 1.32697
200 1 -1.1104 15.9994 6.84486 18.7972 4.21026
201 1 -1.1104 15.9994 9.65505 18.9055 4.1248
202 1 -1.1104 15.9994 12.5933 15.9847 1.30321
203 1 -1.1104 15.9994 12.5108 16.0783 4.18671
204 1 -1.1104 15.9994 12.3825 18.9184 1.18016
205 1 -1.1104 15.9994 12.5544 18.9266 3.85367
206 1 -1.1104 15.9994 1.27392 22.0917 1.13842
207 1 -1.1104 15.9994 4.22868 21.8536 1.15957
208 1 -1.1104 15.9994 1.26944 22.1276 4.02254
209 1 -1.1104 15.9994 4.22431 19.2842 3.23163
210 1 -1.1104 15.9994 6.86002 21.9353 1.29873
211 1 -1.1104 15.9994 9.67886 21.6426 1.28538
212 1 -1.1104 15.9994 6.89616 21.7772 4.04596
213 1 -1.1104 15.9994 9.51467 21.6012 4.20263
214 1 -1.1104 15.9994 12.5822 21.7589 1.21891
215 1 -1.1104 15.9994 12.336 21.7115 4.11705
9866 1 -1.1104 15.9994 1.04458 21.8729 7.11517
894 1 -1.1104 15.9994 3.80264 21.8475 9.69114
465 1 -1.1104 15.9994 2.54624 0.642404 13.9718
343 4 2.2208 232.038 11.0448 14.978 13.735
220 1 -1.1104 15.9994 0.868027 0.43025 6.33305
221 1 -1.1104 15.9994 3.88295 1.45043 6.83787
222 1 -1.1104 15.9994 0.6078 0.259613 10.289
223 1 -1.1104 15.9994 4.17897 0.953142 9.6993
224 1 -1.1104 15.9994 7.01193 -0.891625 6.7777
225 1 -1.1104 15.9994 9.63189 -1.23454 6.77019
226 1 -1.1104 15.9994 6.81578 -1.03483 9.76397
227 1 -1.1104 15.9994 9.79892 -0.857239 9.45382
228 1 -1.1104 15.9994 6.97614 2.04411 6.91402
229 1 -1.1104 15.9994 9.70373 1.85181 6.7462
230 1 -1.1104 15.9994 6.89773 1.82734 9.6884
231 1 -1.1104 15.9994 9.76348 1.9917 9.47098
232 1 -1.1104 15.9994 12.8645 -1.06738 6.91379
233 1 -1.1104 15.9994 12.5602 -1.1233 9.72735
234 1 -1.1104 15.9994 12.642 1.99947 6.8462
235 1 -1.1104 15.9994 12.5719 1.73174 9.54207
236 1 -1.1104 15.9994 1.28295 2.1143 8.33193
237 1 -1.1104 15.9994 3.93483 4.58348 6.53847
238 1 -1.1104 15.9994 1.1132 4.95008 9.72613
239 1 -1.1104 15.9994 5.07756 3.82771 8.66492
240 1 -1.1104 15.9994 1.25037 7.22695 6.64129
241 1 -1.1104 15.9994 4.1876 7.2592 6.57535
242 1 -1.1104 15.9994 1.21494 7.65234 9.6165
243 1 -1.1104 15.9994 3.50124 6.18881 9.07601
244 1 -1.1104 15.9994 7.04845 5.02154 6.70049
245 1 -1.1104 15.9994 9.75506 4.60111 6.79054
246 1 -1.1104 15.9994 7.06548 4.93498 9.7841
247 1 -1.1104 15.9994 9.7678 4.56615 9.70832
248 1 -1.1104 15.9994 6.74113 7.69079 6.82715
249 1 -1.1104 15.9994 8.99454 7.03604 8.2811
250 1 -1.1104 15.9994 6.28752 7.68309 9.67423
251 1 -1.1104 15.9994 11.3275 7.12664 9.96174
252 1 -1.1104 15.9994 12.662 4.6655 6.67532
253 1 -1.1104 15.9994 12.7869 4.48907 9.5892
254 1 -1.1104 15.9994 10.8237 7.09651 6.32311
255 1 -1.1104 15.9994 12.9679 7.24801 7.74686
256 1 -1.1104 15.9994 1.21868 10.5467 4.1436
257 1 -1.1104 15.9994 3.29866 10.1895 6.58431
258 1 -1.1104 15.9994 0.816212 9.77212 7.70348
259 1 -1.1104 15.9994 2.94173 9.62945 10.0449
260 1 -1.1104 15.9994 1.43689 12.6193 6.83392
261 1 -1.1104 15.9994 4.25165 12.6603 6.79421
262 1 -1.1104 15.9994 0.838541 11.4218 9.9206
263 1 -1.1104 15.9994 2.17627 13.4137 9.59347
264 1 -1.1104 15.9994 6.6826 10.84 6.71214
265 1 -1.1104 15.9994 9.37912 10.7924 8.30953
266 1 -1.1104 15.9994 4.88726 9.61643 8.45242
267 1 -1.1104 15.9994 8.9785 8.7942 10.1113
268 1 -1.1104 15.9994 7.34243 13.4895 6.64189
269 1 -1.1104 15.9994 10.495 12.4417 6.24681
270 1 -1.1104 15.9994 4.49339 11.8521 10.0625
271 1 -1.1104 15.9994 6.91133 10.745 9.92414
272 1 -1.1104 15.9994 12.132 10.024 6.85846
273 1 -1.1104 15.9994 12.1676 9.72108 9.4317
274 1 -1.1104 15.9994 12.8561 13.3655 6.84483
275 1 -1.1104 15.9994 13.0047 13.1012 9.69594
276 1 -1.1104 15.9994 1.1118 15.7012 6.85051
277 1 -1.1104 15.9994 4.14334 16.093 6.58028
278 1 -1.1104 15.9994 1.11912 16.002 9.74842
279 1 -1.1104 15.9994 5.07489 14.2262 8.67405
280 1 -1.1104 15.9994 2.65227 17.5563 8.18388
281 1 -1.1104 15.9994 4.10282 19.1553 6.77682
282 1 -1.1104 15.9994 0.909739 19.394 9.73511
283 1 -1.1104 15.9994 4.0636 16.2348 9.86794
284 1 -1.1104 15.9994 7.05542 16.1331 6.76993
285 1 -1.1104 15.9994 9.75111 16.1717 6.87785
286 1 -1.1104 15.9994 7.48221 13.5623 9.8088
287 1 -1.1104 15.9994 10.3738 14.1283 8.50467
288 1 -1.1104 15.9994 6.87441 19.1132 7.06973
289 1 -1.1104 15.9994 9.57019 18.9928 6.87355
290 1 -1.1104 15.9994 6.93882 19.0887 9.85188
291 1 -1.1104 15.9994 9.95243 16.2988 9.79927
292 1 -1.1104 15.9994 12.5655 15.992 6.89242
293 1 -1.1104 15.9994 12.8851 16.1551 9.61911
294 1 -1.1104 15.9994 12.6176 18.9378 6.80416
295 1 -1.1104 15.9994 12.2813 18.8016 9.72719
296 1 -1.1104 15.9994 0.868867 19.137 7.10224
297 1 -1.1104 15.9994 3.94135 21.8666 6.87921
298 1 -1.1104 15.9994 0.631923 22.0986 9.74446
299 1 -1.1104 15.9994 3.98796 19.0908 9.79271
300 1 -1.1104 15.9994 7.08702 21.9542 6.80121
301 1 -1.1104 15.9994 9.72288 21.8572 6.94872
302 1 -1.1104 15.9994 6.6934 21.9252 9.62876
303 1 -1.1104 15.9994 9.60552 19.0057 9.7331
304 1 -1.1104 15.9994 12.5916 21.7838 6.93359
305 1 -1.1104 15.9994 12.5857 21.6436 9.5432
328 1 -1.1104 15.9994 1.03108 13.4815 12.507
307 1 -1.1104 15.9994 4.33263 -0.730316 12.3069
308 1 -1.1104 15.9994 1.15883 2.17939 12.3713
309 1 -1.1104 15.9994 4.70124 2.05844 12.698
310 1 -1.1104 15.9994 7.10831 -0.75788 12.4637
311 1 -1.1104 15.9994 9.65937 -1.12607 12.3797
312 1 -1.1104 15.9994 7.3371 1.94291 12.5171
313 1 -1.1104 15.9994 10.155 1.8274 12.3247
314 1 -1.1104 15.9994 12.4784 -0.928095 12.347
315 1 -1.1104 15.9994 12.7098 2.0032 12.3321
316 1 -1.1104 15.9994 1.29341 4.97204 12.7831
317 1 -1.1104 15.9994 4.21677 4.86058 12.2914
318 1 -1.1104 15.9994 1.06332 7.75613 12.49
319 1 -1.1104 15.9994 3.79862 7.63062 12.3984
320 1 -1.1104 15.9994 6.9662 5.11948 12.6987
321 1 -1.1104 15.9994 9.66909 4.58844 12.8198
322 1 -1.1104 15.9994 6.55537 7.93062 12.4773
323 1 -1.1104 15.9994 9.45665 7.60369 12.7325
324 1 -1.1104 15.9994 12.1852 4.80038 12.5914
325 1 -1.1104 15.9994 12.6739 7.39474 12.2747
326 1 -1.1104 15.9994 1.09708 10.552 12.5848
327 1 -1.1104 15.9994 3.88944 10.6635 12.6867
809 1 -1.1104 15.9994 10.8238 24.2076 0.677399
9227 1 -1.1104 15.9994 0.59653 17.4684 4.59155
490 1 -1.1104 15.9994 11.4315 8.95239 13.8628
121 2 2.2208 232.038 -0.222808 20.6181 11.3964
360 2 2.2208 232.038 5.55564 23.4542 13.9134
191 1 -1.1104 15.9994 4.90929 18.0099 -0.126545
365 2 2.2208 232.038 5.38441 12.0275 14.0793
45 2 2.2208 232.038 8.56316 23.5294 -0.00826683
42 2 2.2208 232.038 2.74836 23.4615 -0.0503049
57 2 2.2208 232.038 11.1811 18.1516 13.8675
336 2 2.2208 232.038 5.47995 6.29232 13.8295
11 2 2.2208 232.038 5.34976 17.609 13.8294
385 2 2.2208 232.038 11.0384 0.113928 13.7257
8981 2 2.2208 232.038 0.0346658 0.829908 2.55197
362 2 2.2208 232.038 2.81796 0.445409 -0.219528
351 2 2.2208 232.038 11.3247 11.4633 13.8436
84 2 2.2208 232.038 11.2149 23.3814 13.8701
356 2 2.2208 232.038 11.073 3.09769 -0.0788591
49 1 -1.1104 15.9994 13.68 12.0546 13.8443
71 2 2.2208 232.038 8.3184 11.893 27.9658
338 4 2.2208 232.038 2.83057 11.5676 25.23
339 3 -1.1104 15.9994 1.32282 4.56633 26.4547
464 1 -1.1104 15.9994 1.33576 -1.49705 15.1113
684 2 2.2208 232.038 11.0413 20.4463 27.9189
681 2 2.2208 232.038 2.63607 17.6197 27.5663
12 2 2.2208 232.038 2.79121 6.16456 27.8687
9641 2 2.2208 232.038 13.8041 23.1816 27.9509
370 2 2.2208 232.038 -0.221248 9.08698 16.6532
489 1 -1.1104 15.9994 9.89066 13.0966 14.4129
346 3 -1.1104 15.9994 0.758531 9.97467 25.3958
348 3 -1.1104 15.9994 9.79533 13.1019 21.116
9625 2 2.2208 232.038 0.0160188 9.15499 22.4131
9650 2 2.2208 232.038 13.8908 20.5312 19.3548
375 2 2.2208 232.038 8.34155 0.421277 27.8827
359 2 2.2208 232.038 8.19643 20.4491 13.9394
353 3 -1.1104 15.9994 7.10661 19.0981 26.3649
659 1 -1.1104 15.9994 1.32354 15.969 26.5226
674 1 -1.1104 15.9994 12.473 16.0187 26.5218
658 1 -1.1104 15.9994 4.72195 16.3975 23.6039
679 1 -1.1104 15.9994 1.14187 19.1307 26.5303
358 3 -1.1104 15.9994 9.69028 4.79634 21.0446
664 1 -1.1104 15.9994 4.25909 19.7781 26.0625
355 2 2.2208 232.038 5.57547 3.38773 27.8092
350 2 2.2208 232.038 11.2056 14.55 27.9456
678 1 -1.1104 15.9994 3.99941 22.293 23.6264
363 2 2.2208 232.038 2.74291 0.70321 16.8035
663 1 -1.1104 15.9994 2.7984 17.7438 25.179
676 1 -1.1104 15.9994 12.6043 18.9742 26.6914
661 1 -1.1104 15.9994 0.996572 18.9715 23.6316
367 2 2.2208 232.038 8.38656 0.450823 16.6704
662 1 -1.1104 15.9994 4.12633 19.2999 23.4376
369 2 2.2208 232.038 5.56071 0.596522 19.6687
9652 3 -1.1104 15.9994 1.31292 15.9907 23.5415
371 2 2.2208 232.038 11.3232 0.730538 19.5756
657 1 -1.1104 15.9994 3.33707 14.0994 22.9481
373 2 2.2208 232.038 2.79235 6.24947 16.7559
374 2 2.2208 232.038 2.74893 3.44476 19.5975
675 1 -1.1104 15.9994 12.6462 19.0714 23.7376
376 2 2.2208 232.038 5.56802 3.41542 16.8695
377 2 2.2208 232.038 8.19685 6.22612 16.8235
378 2 2.2208 232.038 8.41639 3.3795 19.4968
379 2 2.2208 232.038 5.52418 6.2734 19.6052
380 2 2.2208 232.038 11.2023 3.52241 17.2313
381 2 2.2208 232.038 11.1789 6.33225 19.6994
382 3 -1.1104 15.9994 4.39026 -0.533883 15.5008
383 2 2.2208 232.038 2.62691 11.7629 16.8126
384 2 2.2208 232.038 2.69093 9.10484 19.4469
677 1 -1.1104 15.9994 1.43961 21.8658 23.7503
386 2 2.2208 232.038 5.41683 9.10625 16.6974
387 2 2.2208 232.038 8.23483 11.8188 16.6637
388 2 2.2208 232.038 8.33233 9.0497 19.4844
389 2 2.2208 232.038 5.53379 11.8755 19.4079
390 2 2.2208 232.038 11.1256 8.94199 16.6923
391 2 2.2208 232.038 11.1645 11.9324 19.4297
673 1 -1.1104 15.9994 12.7692 16.2262 23.7259
393 2 2.2208 232.038 2.48327 17.6313 16.6598
394 2 2.2208 232.038 2.59832 14.7863 19.4619
395 4 2.2208 232.038 8.37075 17.5635 25.1495
396 2 2.2208 232.038 5.45273 14.8244 16.7543
397 2 2.2208 232.038 8.24439 17.791 16.7721
398 2 2.2208 232.038 8.54762 14.7365 19.4946
399 2 2.2208 232.038 5.45358 17.4433 19.3978
400 2 2.2208 232.038 11.2017 14.7462 17.1408
401 2 2.2208 232.038 11.0579 17.6844 19.544
665 1 -1.1104 15.9994 7.38145 16.0638 23.7994
403 2 2.2208 232.038 2.63734 23.385 16.5231
404 2 2.2208 232.038 2.65952 20.548 19.3103
683 2 2.2208 232.038 8.36513 6.18495 27.6876
406 2 2.2208 232.038 5.43281 20.4735 16.787
407 2 2.2208 232.038 8.28062 23.3862 16.6093
408 2 2.2208 232.038 8.10546 20.589 19.6016
409 2 2.2208 232.038 5.47806 23.4336 19.4789
410 2 2.2208 232.038 11.018 20.6165 16.7529
411 2 2.2208 232.038 10.9649 23.4926 19.6043
671 1 -1.1104 15.9994 6.99801 16.3548 26.5566
413 2 2.2208 232.038 2.70841 0.51282 22.2855
668 1 -1.1104 15.9994 9.56587 16.3026 26.6541
415 3 -1.1104 15.9994 1.41048 21.957 26.3741
667 1 -1.1104 15.9994 7.22784 13.3426 26.5353
417 2 2.2208 232.038 8.20498 0.56165 22.3665
669 1 -1.1104 15.9994 7.15676 18.8316 23.7065
419 2 2.2208 232.038 5.43427 0.534298 25.1011
660 1 -1.1104 15.9994 4.23996 16.0529 26.7405
421 2 2.2208 232.038 11.181 0.480025 25.1777
422 3 -1.1104 15.9994 9.68194 19.0041 15.4832
423 2 2.2208 232.038 2.73252 6.12223 22.2469
424 2 2.2208 232.038 2.73578 3.3569 24.9671
425 4 2.2208 232.038 2.74579 23.4774 25.0083
426 2 2.2208 232.038 5.58196 3.41927 22.3776
427 2 2.2208 232.038 8.46903 6.28825 22.3366
428 2 2.2208 232.038 8.29909 3.2955 25.0441
429 2 2.2208 232.038 5.56481 6.17129 25.053
430 2 2.2208 232.038 11.1014 3.35303 22.288
431 2 2.2208 232.038 11.1564 6.24742 25.1878
432 1 -1.1104 15.9994 12.2936 21.5686 26.4175
433 2 2.2208 232.038 2.79947 11.9412 21.9453
434 2 2.2208 232.038 2.64703 8.58604 25.0173
435 1 -1.1104 15.9994 12.692 21.8201 23.6181
436 2 2.2208 232.038 5.62771 9.15147 22.2668
437 2 2.2208 232.038 8.34104 11.7528 22.3565
438 2 2.2208 232.038 8.39869 8.94575 25.2268
439 2 2.2208 232.038 5.98279 11.8983 24.9971
440 2 2.2208 232.038 11.2718 9.0911 22.4387
441 2 2.2208 232.038 11.2741 11.754 25.1458
442 1 -1.1104 15.9994 9.65232 22.0604 26.6643
443 2 2.2208 232.038 2.725 17.5155 22.2958
444 2 2.2208 232.038 2.90139 15.1671 24.9542
445 1 -1.1104 15.9994 6.85622 21.9484 26.5877
446 2 2.2208 232.038 5.39729 14.3933 22.1822
447 2 2.2208 232.038 8.11348 17.5684 22.0388
448 2 2.2208 232.038 8.70184 14.4924 25.1154
449 2 2.2208 232.038 5.20814 17.8755 25.282
450 2 2.2208 232.038 11.3186 14.7321 22.1541
451 2 2.2208 232.038 11.5325 17.6324 25.1405
452 1 -1.1104 15.9994 9.93789 21.8151 23.7684
453 2 2.2208 232.038 2.74941 23.5476 21.8932
454 2 2.2208 232.038 2.43793 20.1707 24.8813
455 1 -1.1104 15.9994 6.62306 21.7247 23.7504
456 2 2.2208 232.038 5.46291 20.5697 22.1565
457 3 -1.1104 15.9994 4.28632 13.6269 15.2646
458 2 2.2208 232.038 8.29074 20.8224 25.024
459 2 2.2208 232.038 5.93691 23.3293 25.1294
460 2 2.2208 232.038 11.1338 20.5422 22.1548
461 2 2.2208 232.038 11.1787 23.1649 25.0729
670 1 -1.1104 15.9994 9.75406 18.8945 23.8395
680 1 -1.1104 15.9994 4.17842 22.493 26.4632
372 4 2.2208 232.038 11.0463 3.25784 13.941
9408 1 -1.1104 15.9994 0.132978 0.545756 16.3643
466 1 -1.1104 15.9994 7.16163 -0.899463 15.2307
467 1 -1.1104 15.9994 9.80635 -0.907609 15.3961
468 1 -1.1104 15.9994 6.84528 1.9569 15.3835
469 1 -1.1104 15.9994 9.56778 1.7209 14.9091
470 1 -1.1104 15.9994 12.6102 -0.953665 15.0806
471 1 -1.1104 15.9994 12.3504 1.91883 15.1166
472 1 -1.1104 15.9994 1.1996 2.75995 15.1229
473 1 -1.1104 15.9994 3.92431 2.37941 15.6022
474 1 -1.1104 15.9994 1.2363 7.34901 15.3172
475 1 -1.1104 15.9994 3.86021 5.16994 14.9843
476 1 -1.1104 15.9994 6.67313 4.83537 15.4623
477 1 -1.1104 15.9994 9.55266 4.33671 15.6727
478 1 -1.1104 15.9994 6.97371 7.71096 15.2847
479 1 -1.1104 15.9994 9.86017 7.33674 15.4883
480 1 -1.1104 15.9994 12.4204 4.51747 15.3251
481 1 -1.1104 15.9994 12.9932 7.34626 15.2806
482 1 -1.1104 15.9994 1.1703 10.3827 15.3206
483 1 -1.1104 15.9994 3.90113 7.85674 15.2995
484 1 -1.1104 15.9994 1.48613 13.2531 15.2415
485 1 -1.1104 15.9994 3.86065 10.7378 15.3393
486 1 -1.1104 15.9994 6.78451 10.4949 15.3388
487 1 -1.1104 15.9994 12.5887 10.4743 15.4967
488 1 -1.1104 15.9994 6.90853 13.2393 15.276
666 1 -1.1104 15.9994 9.96409 16.1247 23.9587
25 2 2.2208 232.038 5.43008 9.19201 27.9487
491 1 -1.1104 15.9994 12.4079 13.7642 15.3217
492 1 -1.1104 15.9994 1.14725 16.2311 15.3536
493 1 -1.1104 15.9994 4.08105 16.367 15.2895
494 1 -1.1104 15.9994 1.38256 19.0591 15.2125
495 1 -1.1104 15.9994 4.15935 19.2306 15.1556
496 1 -1.1104 15.9994 6.87022 16.3164 15.1602
497 1 -1.1104 15.9994 9.57373 15.6532 15.3975
498 1 -1.1104 15.9994 6.9023 19.2296 15.292
9331 2 2.2208 232.038 13.9013 17.793 16.631
500 1 -1.1104 15.9994 12.2255 16.4456 15.0722
501 1 -1.1104 15.9994 12.5263 19.303 15.4892
502 1 -1.1104 15.9994 1.17695 22.02 15.1635
503 1 -1.1104 15.9994 4.10907 22.2058 15.2836
504 1 -1.1104 15.9994 6.77589 21.8475 15.1667
505 1 -1.1104 15.9994 9.87982 21.8149 14.9205
506 1 -1.1104 15.9994 12.5076 21.9862 15.2587
507 1 -1.1104 15.9994 1.4696 -0.842104 18.0845
508 1 -1.1104 15.9994 4.10544 -0.737739 18.2711
509 1 -1.1104 15.9994 1.21761 -0.901723 20.9341
510 1 -1.1104 15.9994 4.17068 -0.859681 21.1958
511 1 -1.1104 15.9994 1.45271 1.92143 18.3062
512 1 -1.1104 15.9994 4.32359 2.08066 18.3896
513 1 -1.1104 15.9994 1.2188 2.03927 20.9191
514 1 -1.1104 15.9994 3.99309 1.85939 21.0098
515 1 -1.1104 15.9994 6.81321 -0.92181 18.0376
516 1 -1.1104 15.9994 9.75693 -0.935124 18.2055
517 1 -1.1104 15.9994 7.02369 -1.01351 20.9816
518 1 -1.1104 15.9994 10.0629 -0.954396 20.9722
519 1 -1.1104 15.9994 6.99449 2.0687 18.3463
520 1 -1.1104 15.9994 9.70253 1.90617 17.8257
521 1 -1.1104 15.9994 6.73444 1.96402 20.9302
522 1 -1.1104 15.9994 9.58268 1.6987 20.9846
523 1 -1.1104 15.9994 12.4743 -1.27393 17.9644
524 1 -1.1104 15.9994 12.668 -1.00641 20.5299
525 1 -1.1104 15.9994 12.5679 1.73353 17.9194
526 1 -1.1104 15.9994 12.6165 1.75597 21.0884
527 1 -1.1104 15.9994 1.30369 4.63045 17.9227
528 1 -1.1104 15.9994 4.11149 4.83573 18.0954
529 1 -1.1104 15.9994 1.14197 4.83769 20.9824
530 1 -1.1104 15.9994 4.16063 4.74658 20.9064
531 1 -1.1104 15.9994 1.10919 7.56253 18.0917
532 1 -1.1104 15.9994 3.88158 7.59794 18.1313
533 1 -1.1104 15.9994 1.33278 7.57739 20.8092
534 1 -1.1104 15.9994 4.11633 7.7534 20.8324
535 1 -1.1104 15.9994 6.95339 4.89798 18.1741
536 1 -1.1104 15.9994 9.79087 5.07997 18.1257
537 1 -1.1104 15.9994 6.94268 4.85939 20.9228
538 1 -1.1104 15.9994 11.2993 3.33423 19.5942
539 1 -1.1104 15.9994 6.70394 7.61356 18.0512
540 1 -1.1104 15.9994 9.56335 7.70439 18.0816
541 1 -1.1104 15.9994 7.10339 7.63543 20.9053
542 1 -1.1104 15.9994 9.90685 7.60079 20.9825
543 1 -1.1104 15.9994 12.7309 4.9476 18.1292
544 1 -1.1104 15.9994 12.6436 4.952 21.0744
545 1 -1.1104 15.9994 12.5973 7.55782 18.1452
546 1 -1.1104 15.9994 12.6709 7.66762 21.1714
547 1 -1.1104 15.9994 1.30165 10.3978 18.1915
548 1 -1.1104 15.9994 4.08785 10.2997 17.974
549 1 -1.1104 15.9994 1.23244 10.5718 20.9075
550 1 -1.1104 15.9994 4.1027 10.3923 20.6309
551 1 -1.1104 15.9994 1.30418 13.1431 18.0389
552 1 -1.1104 15.9994 4.05018 13.2539 17.9717
553 1 -1.1104 15.9994 1.28761 13.4544 20.8387
554 1 -1.1104 15.9994 4.1799 13.331 20.5813
555 1 -1.1104 15.9994 6.83295 10.4173 18.0487
556 1 -1.1104 15.9994 9.77783 10.4239 18.0749
557 1 -1.1104 15.9994 6.9454 10.5079 20.9121
558 1 -1.1104 15.9994 9.60666 10.3552 21.0148
559 1 -1.1104 15.9994 6.90173 13.6607 18.083
560 1 -1.1104 15.9994 9.74635 13.0593 17.7584
561 1 -1.1104 15.9994 6.93703 13.2816 20.9432
562 1 -1.1104 15.9994 10.9652 14.7282 19.4036
563 1 -1.1104 15.9994 12.6198 10.3435 18.0133
564 1 -1.1104 15.9994 12.5898 10.3885 20.899
565 1 -1.1104 15.9994 12.6685 13.2115 18.0953
566 1 -1.1104 15.9994 12.7622 13.3037 21.0445
567 1 -1.1104 15.9994 1.13977 16.0273 18.163
568 1 -1.1104 15.9994 3.94505 16.2639 18.0978
569 1 -1.1104 15.9994 1.32054 16.232 20.8436
570 1 -1.1104 15.9994 4.0991 16.1353 20.8837
571 1 -1.1104 15.9994 1.27148 19.1572 18.0276
572 1 -1.1104 15.9994 4.02052 19.0959 18.0208
573 1 -1.1104 15.9994 1.33893 19.096 20.8298
574 1 -1.1104 15.9994 3.99687 18.9739 20.7326
575 1 -1.1104 15.9994 6.79374 16.3187 17.853
576 1 -1.1104 15.9994 9.62456 16.4565 18.1823
577 1 -1.1104 15.9994 6.79739 15.9641 20.7299
578 1 -1.1104 15.9994 9.76885 16.2247 21.2522
579 1 -1.1104 15.9994 6.78278 19.1055 18.1659
580 1 -1.1104 15.9994 9.64907 19.2564 18.1129
581 1 -1.1104 15.9994 6.74031 19.0329 20.8877
582 1 -1.1104 15.9994 9.60082 19.0548 20.9568
583 1 -1.1104 15.9994 12.6439 16.272 17.826
584 1 -1.1104 15.9994 12.4996 16.3336 20.8729
585 1 -1.1104 15.9994 12.534 19.0454 18.0649
586 1 -1.1104 15.9994 12.4743 19.1304 20.9472
587 1 -1.1104 15.9994 1.20401 21.8706 17.9606
588 1 -1.1104 15.9994 4.02237 21.915 18.01
589 1 -1.1104 15.9994 1.0973 22.1231 20.872
590 1 -1.1104 15.9994 3.92901 21.9294 20.8425
591 1 -1.1104 15.9994 6.86166 21.9516 17.975
592 1 -1.1104 15.9994 9.72528 22.1556 17.8493
593 1 -1.1104 15.9994 6.46625 21.9207 20.6826
594 1 -1.1104 15.9994 9.82534 21.7995 20.5381
595 1 -1.1104 15.9994 12.4911 21.8617 17.9747
596 1 -1.1104 15.9994 12.5421 21.8759 20.7459
597 1 -1.1104 15.9994 1.23827 -0.78953 23.6808
598 1 -1.1104 15.9994 4.28277 -1.00922 23.7658
599 1 -1.1104 15.9994 1.41721 -1.00636 26.4224
600 1 -1.1104 15.9994 4.16474 -0.965578 26.4659
601 1 -1.1104 15.9994 1.39262 1.93705 23.5863
602 1 -1.1104 15.9994 4.09973 1.90469 23.7815
603 1 -1.1104 15.9994 1.4004 1.8747 26.4459
604 1 -1.1104 15.9994 4.0418 1.92938 26.4707
605 1 -1.1104 15.9994 6.94807 -0.774361 23.7225
606 1 -1.1104 15.9994 9.6356 -0.882469 23.6875
607 1 -1.1104 15.9994 6.89887 -0.802927 26.484
608 1 -1.1104 15.9994 9.71492 -0.937802 26.453
609 1 -1.1104 15.9994 6.93962 2.07093 23.5957
610 1 -1.1104 15.9994 9.74004 1.90672 23.8045
611 1 -1.1104 15.9994 6.80204 2.0327 26.5681
612 1 -1.1104 15.9994 9.66255 1.94044 26.5539
613 1 -1.1104 15.9994 12.5439 -1.0204 23.4668
614 1 -1.1104 15.9994 12.6325 -0.919229 26.3244
615 1 -1.1104 15.9994 12.6315 1.98367 23.9121
616 1 -1.1104 15.9994 12.4969 1.75783 26.7679
617 1 -1.1104 15.9994 1.40264 4.74915 23.6163
618 1 -1.1104 15.9994 4.17494 4.64184 23.6868
619 3 -1.1104 15.9994 9.6181 10.3953 15.4639
620 1 -1.1104 15.9994 4.10258 4.63438 26.4201
621 1 -1.1104 15.9994 1.26622 7.44527 23.6619
622 1 -1.1104 15.9994 4.26179 7.43721 23.4711
623 1 -1.1104 15.9994 1.21662 7.24813 26.5074
624 1 -1.1104 15.9994 3.94904 7.33541 26.3134
625 1 -1.1104 15.9994 7.03472 4.81237 23.7068
626 1 -1.1104 15.9994 9.816 4.74624 23.7153
627 1 -1.1104 15.9994 7.01679 4.82155 26.4362
628 1 -1.1104 15.9994 9.83304 4.80085 26.4928
629 1 -1.1104 15.9994 7.10875 7.63131 23.812
630 1 -1.1104 15.9994 9.92579 7.61047 23.7769
672 1 -1.1104 15.9994 9.60248 19.0659 26.5363
632 1 -1.1104 15.9994 9.74546 7.55544 26.6287
633 1 -1.1104 15.9994 12.6827 4.8362 23.8446
634 1 -1.1104 15.9994 12.7127 4.63979 26.6677
635 1 -1.1104 15.9994 12.5724 7.67343 24.0147
636 1 -1.1104 15.9994 12.5917 7.53486 26.6448
637 1 -1.1104 15.9994 2.41783 10.0086 23.2997
638 1 -1.1104 15.9994 4.49366 10.035 25.1036
639 1 -1.1104 15.9994 2.50919 9.99655 27.1551
640 1 -1.1104 15.9994 4.55763 11.7907 27.3507
641 1 -1.1104 15.9994 1.27283 12.4083 23.7435
642 1 -1.1104 15.9994 4.8541 11.758 23.0295