ITEM: TIMESTEP
70000
ITEM: NUMBER OF ATOMS
17820
ITEM: BOX BOUNDS pp pp pp
-3.5200537239180923e-01 2.7692005372392227e+01
-4.3009268676380259e+00 3.3238092686765413e+02
-3.5900052075513944e-01 2.7699000520754574e+01
ITEM: ATOMS id type q x y z
1 2 2.2208 5.1287 1.43052 5.27468
2 1 -1.1104 0.867754 -2.8369 1.10075
3 1 -1.1104 0.987138 2.92605 1.05901
6 1 -1.1104 0.995209 -2.77657 3.74984
7 1 -1.1104 0.809214 2.85371 3.77301
10 1 -1.1104 0.98221 -0.0817138 1.09148
12 2 2.2208 5.13205 -1.37337 2.42848
14 1 -1.1104 1.00526 0.229748 3.99908
16 1 -1.1104 3.70026 -2.9061 0.967585
17 1 -1.1104 3.74036 2.74246 0.822936
18 2 2.2208 2.40129 1.44676 2.37146
19 1 -1.1104 3.72832 -2.77747 3.75054
20 1 -1.1104 3.87579 2.87094 3.55006
21 2 2.2208 2.4234 -1.27605 5.05479
23 1 -1.1104 3.79207 0.0151493 0.984193
24 1 -1.1104 3.76305 0.00153912 3.84858
13 2 2.2208 5.23881 4.13909 2.35701
22 2 2.2208 2.41863 4.32609 5.2951
9728 2 2.2208 -0.496697 1.55378 5.26111
9726 2 2.2208 -0.480249 -1.38023 2.47408
327 2 2.2208 10.627 15.3227 13.5914
174 1 -1.1104 3.76178 0.096912 6.6913
9 1 -1.1104 6.60261 2.78222 3.89654
8 1 -1.1104 6.57386 -2.908 3.85807
332 2 2.2208 2.40953 4.2179 -0.473434
9011 2 2.2208 -0.427268 -4.06695 5.23935
9737 2 2.2208 -0.437391 1.37581 -0.455894
11 1 -1.1104 6.63929 0.0534252 0.98722
15 1 -1.1104 6.45715 0.0411079 3.84166
5 1 -1.1104 6.62309 2.84158 1.05395
4 1 -1.1104 6.43903 -2.82085 1.05435
31 2 2.2208 10.7959 1.41119 5.19008
32 1 -1.1104 12.1081 -2.7297 0.966379
33 1 -1.1104 12.2082 2.91058 0.989295
34 1 -1.1104 12.3218 -2.61438 3.88098
35 1 -1.1104 12.2696 2.83586 3.81832
36 1 -1.1104 12.2592 0.108071 0.969013
37 2 2.2208 10.7021 -1.37337 2.52846
39 1 -1.1104 12.1276 0.124561 3.90234
40 1 -1.1104 9.30125 -2.8592 1.01556
41 1 -1.1104 9.47894 2.87461 0.98937
42 2 2.2208 8.0114 1.38975 2.36949
43 1 -1.1104 9.42683 -2.89476 3.8094
44 1 -1.1104 9.57917 2.72338 3.77428
45 2 2.2208 7.98494 -1.4685 5.15659
47 1 -1.1104 9.35858 -0.0989773 0.917077
48 1 -1.1104 9.25898 -0.0988004 3.74033
38 2 2.2208 10.8583 4.2522 2.40945
46 2 2.2208 7.95534 4.11823 5.30325
209 1 -1.1104 9.37168 2.7006 6.64179
171 1 -1.1104 6.53702 -0.00906182 6.75294
9013 2 2.2208 10.8068 -4.29321 5.25322
169 1 -1.1104 6.6315 2.81729 6.77879
168 1 -1.1104 6.59607 -2.78338 6.72086
205 1 -1.1104 12.1694 -2.84774 6.72121
326 2 2.2208 10.6406 21.0202 13.5986
54 2 2.2208 5.1081 6.97029 5.29829
55 2 2.2208 5.16991 12.4728 5.27326
56 1 -1.1104 0.814921 8.60519 0.994349
58 1 -1.1104 0.810085 8.52417 3.77409
60 1 -1.1104 0.891361 5.63539 0.891736
61 1 -1.1104 0.907023 11.2864 1.01997
66 2 2.2208 4.99997 9.80837 2.36591
67 1 -1.1104 0.999268 5.68633 3.69816
68 1 -1.1104 0.811412 11.3144 3.81102
71 1 -1.1104 3.56359 8.37047 0.782892
72 2 2.2208 2.2281 7.04871 2.26227
73 2 2.2208 2.15017 12.5024 2.34604
74 1 -1.1104 3.61745 8.43554 3.63049
75 2 2.2208 2.17109 9.89882 5.17668
76 1 -1.1104 3.67893 5.53461 0.953333
77 1 -1.1104 3.6746 11.1 0.94614
79 1 -1.1104 3.74332 5.55927 3.90707
80 1 -1.1104 3.63169 11.2542 3.72527
9734 2 2.2208 -0.602925 9.81541 2.40563
69 1 -1.1104 6.50571 5.58229 3.74143
59 1 -1.1104 6.45616 8.31832 3.95347
236 1 -1.1104 0.956469 5.72697 6.64682
9016 2 2.2208 7.95903 -4.2552 7.97684
26 2 2.2208 10.7219 18.2509 10.9093
9017 2 2.2208 10.808 -4.28159 10.896
64 1 -1.1104 6.4669 11.2643 1.20313
70 1 -1.1104 6.38141 11.0341 3.92376
57 1 -1.1104 6.27936 8.30738 1.1678
63 1 -1.1104 6.66093 5.73492 0.8668
84 2 2.2208 10.7368 6.84415 5.35253
85 2 2.2208 10.7692 12.5393 5.24388
86 1 -1.1104 12.0056 8.44508 1.10566
87 1 -1.1104 12.1218 8.23439 3.94741
88 1 -1.1104 12.1197 5.64958 0.849609
89 1 -1.1104 12.112 11.3197 1.27672
91 2 2.2208 10.7306 9.75104 2.46329
92 1 -1.1104 12.3426 5.54416 3.76983
93 1 -1.1104 12.1601 11.1915 3.95241
94 1 -1.1104 9.12117 8.39503 1.16754
95 2 2.2208 7.89749 6.96162 2.55349
96 2 2.2208 7.88504 12.5925 2.48466
97 1 -1.1104 9.28134 8.28281 3.89591
98 2 2.2208 7.96864 9.80265 5.30751
99 1 -1.1104 9.29055 5.56029 1.05506
100 1 -1.1104 9.30397 11.11 0.908506
102 1 -1.1104 9.40096 5.46248 3.94006
103 1 -1.1104 9.23727 11.0835 3.78978
235 1 -1.1104 6.46871 8.44892 6.73302
90 1 -1.1104 11.9859 11.3134 6.73185
269 1 -1.1104 9.29098 5.62041 6.77516
265 1 -1.1104 12.0615 8.3685 6.68489
65 1 -1.1104 6.38016 11.1655 6.63775
335 2 2.2208 10.704 7.06726 -0.387627
9010 2 2.2208 5.21571 -4.1899 5.14112
50 1 -1.1104 12.1564 13.9236 9.52952
106 2 2.2208 5.00267 18.1067 5.1954
107 1 -1.1104 0.789002 13.9986 1.069
109 1 -1.1104 0.958041 19.6492 1.08958
113 1 -1.1104 0.805973 14.1089 3.91444
114 1 -1.1104 0.868694 19.5416 3.93613
116 1 -1.1104 0.834158 16.8174 0.910859
119 2 2.2208 4.98612 15.2522 2.36041
120 2 2.2208 5.22177 21.0092 2.48097
121 1 -1.1104 0.729101 16.8313 3.79271
123 1 -1.1104 3.5377 13.8747 0.940813
125 1 -1.1104 3.9055 19.5575 1.04744
127 2 2.2208 2.31643 18.174 2.4203
128 1 -1.1104 3.5775 13.8847 3.80736
129 1 -1.1104 3.86912 19.649 3.81673
130 2 2.2208 2.23301 15.3769 5.28098
131 2 2.2208 2.21731 21.019 5.36126
132 1 -1.1104 3.58909 16.7126 0.97618
134 1 -1.1104 3.62807 16.778 3.82405
9624 2 2.2208 -0.560971 18.1197 5.2823
115 1 -1.1104 6.43725 14.0177 3.81674
122 1 -1.1104 6.34137 16.6959 3.76104
118 1 -1.1104 6.47694 16.7685 6.81824
112 1 -1.1104 6.51039 19.4956 6.67115
117 1 -1.1104 0.855545 16.6971 6.75877
108 1 -1.1104 0.898938 14.028 6.57573
133 1 -1.1104 3.66108 16.7449 6.65685
124 1 -1.1104 3.77654 13.8979 6.54373
302 1 -1.1104 0.854344 19.6364 6.65632
126 1 -1.1104 3.56397 19.4329 6.72818
140 1 -1.1104 6.39865 16.637 1.04509
110 1 -1.1104 6.42897 13.9553 1.03856
138 1 -1.1104 6.6044 19.5973 1.01027
139 1 -1.1104 6.60025 19.751 3.86319
141 2 2.2208 10.6197 18.1862 5.25594
142 1 -1.1104 12.0805 14.0668 1.1106
144 1 -1.1104 12.1768 19.6121 1.2261
146 1 -1.1104 12.1127 13.971 3.99004
147 1 -1.1104 12.0905 19.6016 4.04116
148 1 -1.1104 12.0518 16.8467 1.17902
150 2 2.2208 10.6354 15.3169 2.41803
151 2 2.2208 10.7467 21.0149 2.5772
152 1 -1.1104 12.0594 16.7998 4.02813
153 1 -1.1104 9.35665 13.9398 0.981055
155 1 -1.1104 9.39516 19.5684 1.16032
157 2 2.2208 7.79856 18.1178 2.4656
158 1 -1.1104 9.22335 13.9645 3.8448
159 1 -1.1104 9.2063 19.5486 3.83541
160 2 2.2208 7.80533 15.4342 5.28863
161 2 2.2208 7.94478 21.0778 5.26768
162 1 -1.1104 9.19474 16.7259 1.1689
164 1 -1.1104 9.1846 16.8099 3.96307
156 1 -1.1104 9.29423 19.6318 6.66543
145 1 -1.1104 12.1358 19.5519 6.71858
163 1 -1.1104 9.24315 16.7889 6.708
143 1 -1.1104 12.0196 14.0938 6.6147
165 2 2.2208 13.6992 18.2473 2.41734
200 1 -1.1104 9.35066 14.0771 9.57787
9009 2 2.2208 2.39652 -4.31576 2.35864
170 1 -1.1104 0.744855 -0.00500761 6.65848
166 1 -1.1104 1.19913 -2.84742 6.73119
173 1 -1.1104 3.75421 2.87602 6.62683
9015 2 2.2208 5.12993 -4.15089 10.8163
17465 2 2.2208 -0.534486 -4.18366 -0.387804
311 2 2.2208 5.11506 4.2655 13.7032
9014 2 2.2208 2.46226 -4.12859 8.05385
9590 2 2.2208 -0.446944 4.3531 8.00313
172 1 -1.1104 3.84909 -2.6068 6.33519
167 1 -1.1104 0.941095 2.96184 6.69672
175 2 2.2208 5.06674 1.53194 10.8772
176 1 -1.1104 0.961012 -2.79488 12.3554
177 1 -1.1104 0.944008 2.87201 12.2442
180 1 -1.1104 1.0172 -2.67422 9.47225
181 1 -1.1104 0.895376 2.9097 9.36071
184 1 -1.1104 1.00116 0.0499767 12.2983
186 2 2.2208 5.0883 -1.40687 8.09734
187 2 2.2208 5.11263 4.22614 8.07307
188 1 -1.1104 0.862588 0.00771978 9.50014
190 1 -1.1104 3.79681 -2.69395 12.3129
191 1 -1.1104 3.69808 2.98628 12.2863
192 2 2.2208 2.27907 1.46937 7.93544
193 1 -1.1104 3.80031 -2.76936 9.37979
194 1 -1.1104 3.67181 2.89634 9.4793
195 2 2.2208 2.33159 -1.35839 10.8935
197 1 -1.1104 3.79839 0.078455 12.3237
198 1 -1.1104 3.49341 0.102432 9.34757
196 2 2.2208 2.37992 4.38597 10.9589
9589 2 2.2208 -0.455208 -1.3529 8.11755
27 1 -1.1104 12.0489 13.9343 12.2827
137 1 -1.1104 9.20083 19.4886 12.3507
83 2 2.2208 10.8596 20.952 7.95422
206 1 -1.1104 12.2401 2.82274 6.72297
178 1 -1.1104 6.59063 -2.72951 12.4056
182 1 -1.1104 6.496 -2.86242 9.44061
179 1 -1.1104 6.49897 2.85735 12.2718
210 1 -1.1104 9.53765 -0.109426 6.53248
185 1 -1.1104 6.43553 0.0711708 12.3486
207 1 -1.1104 12.1451 -0.068172 6.6709
208 1 -1.1104 9.40383 -2.88914 6.60633
189 1 -1.1104 6.46284 0.056535 9.46191
183 1 -1.1104 6.60421 3.04606 9.52077
211 2 2.2208 10.8684 1.25088 10.9214
212 1 -1.1104 12.0504 -2.91321 12.3103
213 1 -1.1104 12.2636 2.78524 12.4047
214 1 -1.1104 12.1942 -2.71943 9.42268
215 1 -1.1104 12.1148 2.63842 9.65133
216 1 -1.1104 12.3371 0.0525849 12.2778
217 2 2.2208 10.6839 -1.37825 8.06694
218 2 2.2208 10.7362 4.19714 8.05939
219 1 -1.1104 12.1346 -0.0186188 9.37096
220 1 -1.1104 9.29446 -2.93236 12.315
221 1 -1.1104 9.35734 2.62255 12.0899
222 2 2.2208 7.90502 1.45834 8.16228
223 1 -1.1104 9.34001 -2.69581 9.53408
224 1 -1.1104 9.36065 2.75969 9.4368
225 2 2.2208 7.88917 -1.4106 10.9441
227 1 -1.1104 9.32414 -0.121442 12.294
228 1 -1.1104 9.30327 -0.0351575 9.51904
226 2 2.2208 7.973 4.22169 10.8341
9727 2 2.2208 13.443 15.3837 10.8314
9645 2 2.2208 13.5613 9.76352 10.9801
62 1 -1.1104 0.935855 11.2535 6.72119
239 1 -1.1104 3.73711 5.68788 6.76514
9658 2 2.2208 -0.50556 9.88642 8.05637
204 2 2.2208 7.87915 15.5112 10.944
238 1 -1.1104 3.51523 8.35063 6.53202
234 1 -1.1104 0.760006 8.45086 6.5817
78 1 -1.1104 3.67804 11.1304 6.84565
240 2 2.2208 5.0716 7.10533 10.8827
241 2 2.2208 5.20125 12.709 10.9025
242 1 -1.1104 0.863631 8.54529 12.3156
244 1 -1.1104 1.03914 8.5338 9.47371
246 1 -1.1104 1.03348 5.75462 12.4047
247 1 -1.1104 0.880362 11.3588 12.3717
250 2 2.2208 5.10124 9.96624 8.10268
251 1 -1.1104 0.963727 5.74167 9.48155
252 1 -1.1104 0.957686 11.2738 9.5892
255 1 -1.1104 3.56798 8.62747 12.1961
256 2 2.2208 2.37571 7.16952 8.05495
257 2 2.2208 2.26324 12.695 8.19008
258 1 -1.1104 3.89745 8.59863 9.58538
259 2 2.2208 2.31687 9.9399 10.8678
260 1 -1.1104 3.61975 5.6504 12.5341
261 1 -1.1104 3.95078 11.2988 12.2427
262 1 -1.1104 3.69151 5.79046 9.6748
263 1 -1.1104 3.61489 11.3115 9.54662
254 1 -1.1104 6.35273 11.4266 9.48974
9659 2 2.2208 -0.563817 7.03693 10.8916
248 1 -1.1104 6.58698 5.62679 12.2562
249 1 -1.1104 6.48756 11.2128 12.3343
296 1 -1.1104 6.37524 19.5116 12.1563
317 2 2.2208 2.25342 7.0675 13.6989
318 2 2.2208 5.15445 9.87508 13.7224
9457 2 2.2208 -0.387675 1.41298 10.8362
237 1 -1.1104 6.41227 5.58823 6.4389
245 1 -1.1104 6.53452 8.54601 9.4896
243 1 -1.1104 6.39669 8.44136 12.3704
267 1 -1.1104 9.22678 8.43123 6.75528
253 1 -1.1104 6.42418 5.83343 9.40999
101 1 -1.1104 9.25639 11.1201 6.71228
266 1 -1.1104 12.1596 5.48468 6.65238
264 1 -1.1104 9.13576 11.1208 9.3795
268 1 -1.1104 9.31012 5.6475 9.52361
270 1 -1.1104 9.26631 11.0547 12.1394
271 1 -1.1104 9.42624 5.55427 12.4202
272 2 2.2208 7.74455 9.83088 10.9499
273 1 -1.1104 9.31678 8.35961 9.49411
274 2 2.2208 7.93487 12.7267 8.03837
275 2 2.2208 7.9211 7.18019 8.21046
276 2 2.2208 10.7791 7.07992 10.8801
277 2 2.2208 10.6732 12.5947 10.935
278 1 -1.1104 12.2829 8.54363 12.3579
279 1 -1.1104 12.2011 8.15266 9.43248
280 1 -1.1104 12.1393 5.61421 12.3029
281 1 -1.1104 12.0551 11.2139 12.1647
282 2 2.2208 10.6972 9.79454 8.14745
283 1 -1.1104 12.0865 5.45998 9.37021
284 1 -1.1104 12.1077 11.128 9.46332
285 1 -1.1104 9.32089 8.28707 12.3387
322 2 2.2208 7.85305 12.503 13.7897
52 2 2.2208 -0.550759 21.0321 8.06347
324 2 2.2208 5.11113 21.0631 13.7231
9430 2 2.2208 -0.452949 15.3221 8.08146
202 2 2.2208 2.31504 15.3825 10.8907
203 2 2.2208 2.30161 21.1096 10.8008
231 1 -1.1104 3.62794 16.7821 12.3238
232 1 -1.1104 0.705767 16.8883 12.2624
286 1 -1.1104 3.46191 19.6022 12.2079
287 1 -1.1104 3.667 14.13 12.1936
291 1 -1.1104 0.96814 19.7161 9.49147
292 1 -1.1104 0.838607 16.7737 9.53605
293 2 2.2208 5.11396 21.0696 8.01106
294 1 -1.1104 0.856672 14.0216 9.52739
295 2 2.2208 5.07381 15.5027 7.9084
298 1 -1.1104 0.825365 19.7515 12.3193
299 1 -1.1104 0.950544 13.9872 12.2931
300 2 2.2208 4.99154 18.2902 10.7768
301 1 -1.1104 3.7203 19.8637 9.42914
303 2 2.2208 2.1901 18.2194 8.10161
304 1 -1.1104 3.50515 16.8937 9.51927
305 1 -1.1104 3.56478 14.0481 9.34832
154 1 -1.1104 9.28516 13.9837 6.5422
323 2 2.2208 2.23543 18.2541 13.7855
9527 2 2.2208 13.529 15.5199 5.2587
328 2 2.2208 7.84025 18.1642 13.5809
30 1 -1.1104 9.34989 16.7528 9.44916
82 2 2.2208 10.7322 15.4079 7.98899
104 1 -1.1104 12.2173 16.8193 9.50932
230 1 -1.1104 9.32497 16.7367 12.2496
105 1 -1.1104 9.28425 13.8649 12.3501
199 2 2.2208 7.95044 18.2831 8.11753
229 2 2.2208 7.84877 21.0517 10.7938
81 1 -1.1104 12.1375 16.7369 12.2716
53 1 -1.1104 12.1601 19.5168 9.58076
201 1 -1.1104 9.5007 19.5955 9.50605
288 1 -1.1104 6.48813 19.7558 9.47274
297 1 -1.1104 6.65078 14.0582 12.2608
233 1 -1.1104 6.42839 16.8805 12.2242
290 1 -1.1104 6.5375 14.2992 9.39899
289 1 -1.1104 6.37215 16.9959 9.45745
111 1 -1.1104 6.52493 13.9449 6.65271
49 1 -1.1104 12.1459 19.5452 12.3587
149 1 -1.1104 12.1187 16.9776 6.71717
9732 2 2.2208 13.5385 12.6811 2.50838
9735 2 2.2208 -0.51794 12.6476 5.28756
9733 2 2.2208 -0.423351 7.05673 5.20378
309 2 2.2208 5.09148 -1.24541 13.6575
9748 2 2.2208 -0.427017 4.2392 13.6613
316 2 2.2208 10.7916 4.11971 13.7287
319 2 2.2208 2.38066 12.6072 13.6591
321 2 2.2208 10.5466 9.75228 13.7461
306 2 2.2208 -0.652757 21.0856 13.7162
330 2 2.2208 5.11669 1.46791 -0.477466
337 2 2.2208 10.767 1.3148 -0.359086
338 2 2.2208 7.89361 -1.33083 -0.432655
340 2 2.2208 2.35412 15.3289 -0.498995
346 2 2.2208 5.14913 1.46448 16.5239
347 1 -1.1104 0.95823 -2.7765 17.871
348 1 -1.1104 0.952764 3.07364 18.0051
351 1 -1.1104 1.1437 -2.79927 15.1863
353 1 -1.1104 1.03422 2.7599 15.1105
359 1 -1.1104 1.01412 0.176688 17.9934
361 2 2.2208 5.05652 -1.46758 19.3606
362 2 2.2208 5.16411 4.21128 19.2473
363 1 -1.1104 0.916051 -0.00431772 15.1925
367 1 -1.1104 3.68948 -2.95652 17.9481
368 1 -1.1104 3.78045 2.77064 17.9557
369 2 2.2208 2.47153 1.3856 19.445
370 1 -1.1104 3.77379 -2.74006 15.1463
372 1 -1.1104 3.81763 2.82347 15.0162
374 2 2.2208 2.41889 -1.3071 16.5292
375 2 2.2208 2.25068 4.30516 16.6297
376 1 -1.1104 3.76317 -0.0589209 17.9321
377 1 -1.1104 3.73132 0.106388 15.0503
313 2 2.2208 10.6459 18.2457 27.8541
9855 2 2.2208 -0.481043 4.16773 19.3492
357 1 -1.1104 6.64439 2.6122 15.22
349 1 -1.1104 6.44233 -2.8856 17.9314
350 1 -1.1104 6.53331 2.84573 17.9106
9817 2 2.2208 -0.468732 15.4029 24.8763
378 1 -1.1104 3.58087 -0.0316957 20.7999
373 1 -1.1104 3.80383 2.64906 20.738
371 1 -1.1104 3.68247 -2.90638 20.7518
9029 2 2.2208 2.48252 -4.08349 13.7379
17573 2 2.2208 -0.290891 -4.1374 16.417
9101 2 2.2208 5.07158 -4.27873 22.1642
365 1 -1.1104 6.4753 0.023136 15.2159
9138 2 2.2208 5.14539 -4.23736 16.5614
355 1 -1.1104 6.43227 -2.75081 15.0714
360 1 -1.1104 6.59428 -0.0127918 17.8508
389 2 2.2208 10.8142 1.33096 16.4403
390 1 -1.1104 12.0942 -2.95196 17.8933
391 1 -1.1104 12.2987 2.65198 17.8397
392 1 -1.1104 12.2167 -2.90611 15.1559
394 1 -1.1104 12.2398 2.79434 15.0473
396 1 -1.1104 12.2873 -0.0407041 17.8796
397 2 2.2208 10.8576 -1.37165 19.2745
398 2 2.2208 10.8611 4.03023 19.3309
399 1 -1.1104 12.1141 -0.077198 14.959
401 1 -1.1104 9.21051 -2.85357 17.7479
402 1 -1.1104 9.41227 2.96641 17.9899
403 2 2.2208 7.92978 1.42014 19.2953
404 1 -1.1104 9.35149 -2.8049 15.0442
406 1 -1.1104 9.39162 2.84646 15.1203
408 2 2.2208 7.891 -1.53529 16.4528
409 2 2.2208 7.9669 4.19176 16.4974
410 1 -1.1104 9.46527 0.116669 17.9113
411 1 -1.1104 9.45995 0.084958 15.115
356 1 -1.1104 6.47985 -2.93909 20.7411
400 1 -1.1104 12.2885 0.0629259 20.6828
358 1 -1.1104 6.54425 2.76813 20.7427
405 1 -1.1104 9.23922 -2.70353 20.3277
407 1 -1.1104 9.32933 2.94614 20.7052
366 1 -1.1104 6.48998 -0.0755493 20.6432
9812 2 2.2208 13.5788 4.1276 16.444
308 2 2.2208 13.4668 21.0088 27.8025
10019 2 2.2208 13.5696 4.12038 22.127
336 2 2.2208 7.98416 20.9983 27.7131
422 2 2.2208 5.10794 6.96393 16.4735
423 2 2.2208 5.0226 12.5658 16.6487
424 1 -1.1104 0.76472 8.69344 17.8355
426 1 -1.1104 0.867564 8.43452 15.1321
430 1 -1.1104 1.05518 5.72605 17.8749
431 1 -1.1104 0.763683 11.3835 17.9621
434 2 2.2208 5.15094 9.81302 19.375
435 1 -1.1104 0.915074 5.5863 15.1502
437 1 -1.1104 0.821605 11.2634 15.1676
443 1 -1.1104 3.68456 8.54127 17.9643
444 2 2.2208 2.36787 7.05147 19.2475
445 2 2.2208 2.25555 12.6339 19.3101
446 1 -1.1104 3.62872 8.3291 15.2308
448 2 2.2208 2.19319 9.93947 16.524
449 1 -1.1104 3.83593 5.54826 17.929
450 1 -1.1104 3.62943 11.2318 17.9151
451 1 -1.1104 3.78915 5.55825 15.1386
453 1 -1.1104 3.74799 11.1263 15.1282
9928 2 2.2208 -0.492914 6.93833 16.5011
436 1 -1.1104 0.865001 5.53474 20.6307
438 1 -1.1104 0.89891 11.1336 20.7652
433 1 -1.1104 6.58187 11.203 18.0226
425 1 -1.1104 6.58174 8.26654 18.0443
428 1 -1.1104 6.42792 8.30916 15.0649
447 1 -1.1104 3.80455 8.41596 20.6806
452 1 -1.1104 3.75568 5.58072 20.7775
454 1 -1.1104 3.75068 11.2025 20.588
427 1 -1.1104 0.9601 8.32082 20.6453
442 1 -1.1104 6.50717 11.2362 20.8287
432 1 -1.1104 6.52083 5.58082 17.8134
441 1 -1.1104 6.52225 11.2248 15.2757
439 1 -1.1104 6.56486 5.51709 14.9871
458 2 2.2208 10.791 6.8515 16.5284
459 2 2.2208 10.7875 12.5162 16.4847
460 1 -1.1104 12.088 8.40093 17.8333
461 1 -1.1104 12.0067 8.1827 14.9853
463 1 -1.1104 12.1237 5.54481 17.8386
464 1 -1.1104 12.2042 11.2242 18.0801
465 2 2.2208 10.7897 9.79343 19.1073
466 1 -1.1104 12.2535 5.43771 15.1165
468 1 -1.1104 12.1077 11.0129 15.2909
470 1 -1.1104 9.38349 8.46021 17.8879
471 2 2.2208 7.98533 6.97422 19.421
472 2 2.2208 8.03161 12.62 19.4723
473 1 -1.1104 9.30294 8.34317 15.2319
475 2 2.2208 7.95851 9.80206 16.6174
476 1 -1.1104 9.21247 5.62305 17.9021
477 1 -1.1104 9.44949 11.2999 17.8319
478 1 -1.1104 9.52174 5.53853 15.178
480 1 -1.1104 9.44049 11.1141 15.1632
469 1 -1.1104 12.2065 11.2903 20.9995
429 1 -1.1104 6.66184 8.48413 20.9536
440 1 -1.1104 6.51742 5.7524 20.8296
479 1 -1.1104 9.26222 5.59756 20.7872
462 1 -1.1104 12.2059 8.26162 20.6986
9887 2 2.2208 13.5611 6.95297 19.4305
385 2 2.2208 13.4677 21.0436 16.5324
485 2 2.2208 5.16362 18.1611 16.4091
486 1 -1.1104 1.01076 14.0424 17.8743
487 1 -1.1104 0.874197 19.613 17.8851
490 1 -1.1104 0.935552 14.0501 15.0906
492 1 -1.1104 0.85369 19.6968 15.109
498 1 -1.1104 0.829024 16.8562 17.9068
500 2 2.2208 5.19078 15.3608 19.3331
501 2 2.2208 5.06969 20.9632 19.2387
502 1 -1.1104 0.960272 16.8953 15.1466
506 1 -1.1104 3.61643 14.0216 17.8308
507 1 -1.1104 3.6775 19.5687 18.0861
508 2 2.2208 2.27947 18.2536 19.3202
509 1 -1.1104 3.69278 13.9338 15.1878
511 1 -1.1104 3.63256 19.6147 15.12
513 2 2.2208 2.28537 15.4543 16.5251
514 2 2.2208 2.0745 21.0724 16.4039
515 1 -1.1104 3.75618 16.8004 17.7888
516 1 -1.1104 3.72852 16.863 15.0614
381 2 2.2208 -0.51574 18.2586 16.4877
9997 2 2.2208 -0.549932 21.0278 19.2172
494 1 -1.1104 6.36384 14.0449 15.1244
488 1 -1.1104 6.57685 13.9088 18.0494
493 1 -1.1104 0.816136 19.5113 20.7424
503 1 -1.1104 0.924841 16.61 20.6773
510 1 -1.1104 3.71856 14.0279 20.5145
491 1 -1.1104 0.797551 13.8348 20.737
415 2 2.2208 -0.574694 9.89101 19.375
497 1 -1.1104 6.54437 19.6235 20.6447
496 1 -1.1104 6.49537 19.714 14.9653
504 1 -1.1104 6.4992 16.8705 15.1661
499 1 -1.1104 6.56896 16.7716 17.9587
489 1 -1.1104 6.44831 19.732 17.7546
521 2 2.2208 10.5984 18.2571 16.4506
522 1 -1.1104 12.0294 13.9594 18.0285
523 1 -1.1104 12.0088 19.7218 17.8242
524 1 -1.1104 12.2043 13.8738 15.2354
526 1 -1.1104 11.9261 19.6543 15.0772
528 1 -1.1104 12.1339 16.9571 17.9705
529 2 2.2208 10.7521 15.5447 19.3048
530 2 2.2208 10.6695 20.9987 19.331
531 1 -1.1104 12.0184 16.7581 15.2096
533 1 -1.1104 9.3361 14.0105 17.9237
534 1 -1.1104 9.1215 19.539 18.003
535 2 2.2208 7.79289 18.2082 19.4232
536 1 -1.1104 9.46209 13.8376 15.0254
538 1 -1.1104 9.15029 19.4829 15.0714
540 2 2.2208 7.93652 15.5589 16.6117
541 2 2.2208 7.9052 21.0557 16.6237
542 1 -1.1104 9.25691 16.8751 18.0045
543 1 -1.1104 9.25187 16.6536 15.0587
527 1 -1.1104 12.0391 19.6339 20.5867
532 1 -1.1104 12.1783 16.9039 20.7124
495 1 -1.1104 6.43647 14.0161 20.7679
539 1 -1.1104 9.22476 19.652 20.7741
544 1 -1.1104 9.3157 16.7478 20.7847
354 1 -1.1104 0.918496 2.73061 20.728
352 1 -1.1104 0.901211 -2.86317 20.7053
9736 2 2.2208 -0.423027 18.1213 27.6031
364 1 -1.1104 0.933689 -0.0816668 20.7512
577 2 2.2208 10.6829 18.3183 22.0337
549 2 2.2208 5.1649 1.24517 22.1553
550 1 -1.1104 0.923922 -2.99288 23.5464
551 1 -1.1104 0.748377 2.63895 23.4749
554 1 -1.1104 0.997195 -2.91854 26.3629
555 1 -1.1104 1.02385 2.84853 26.3329
558 1 -1.1104 0.93995 -0.0789179 23.5474
560 2 2.2208 5.17352 -1.49457 24.9173
561 2 2.2208 5.18943 4.09723 24.8015
562 1 -1.1104 0.927603 -0.181493 26.1468
564 1 -1.1104 3.64363 -2.93656 23.5728
565 1 -1.1104 3.59544 2.71302 23.3664
566 2 2.2208 2.31234 1.20966 24.8296
567 1 -1.1104 3.69305 -2.79498 26.3582
568 1 -1.1104 3.97139 2.90085 26.1954
569 2 2.2208 2.24569 -1.53815 22.1857
571 1 -1.1104 3.70694 -0.237811 23.5004
572 1 -1.1104 3.74795 -0.0201993 26.1111
570 2 2.2208 2.30683 4.15008 22.0471
382 2 2.2208 13.4047 18.2421 24.8693
9813 2 2.2208 -0.538441 1.38551 22.0718
584 1 -1.1104 12.0921 19.7739 26.291
557 1 -1.1104 6.52167 2.81645 26.3268
331 2 2.2208 2.28726 -1.46597 27.73
416 2 2.2208 13.5641 9.74765 16.5972
9815 2 2.2208 13.5701 -1.47661 16.481
395 1 -1.1104 12.2031 2.70888 20.6727
9098 2 2.2208 7.80584 -4.33441 24.8377
9099 2 2.2208 10.7034 -4.18989 22.1129
393 1 -1.1104 12.1329 -2.91877 20.7771
412 1 -1.1104 9.51561 0.101505 20.7128
553 1 -1.1104 6.45675 2.56335 23.5056
559 1 -1.1104 6.56139 -0.157975 23.4971
563 1 -1.1104 6.5183 -0.0431097 26.2998
556 1 -1.1104 6.43331 -2.84627 26.2999
552 1 -1.1104 6.50848 -2.84574 23.5923
585 2 2.2208 10.8187 1.39796 22.1235
586 1 -1.1104 12.1184 -2.80728 23.548
587 1 -1.1104 12.2407 2.82147 23.5726
588 1 -1.1104 12.1782 -2.80421 26.2251
589 1 -1.1104 12.098 2.67398 26.4463
590 1 -1.1104 12.0826 -0.118639 23.4791
591 2 2.2208 10.7806 -1.41299 24.9103
592 2 2.2208 10.7003 4.21987 24.9464
593 1 -1.1104 12.2459 -0.0811386 26.157
594 1 -1.1104 9.29538 -3.00977 23.3301
595 1 -1.1104 9.41203 2.8272 23.4551
596 2 2.2208 8.11443 1.33082 24.7702
597 1 -1.1104 9.21703 -2.75751 26.1722
598 1 -1.1104 9.35741 2.79152 26.1014
599 2 2.2208 7.94847 -1.59513 21.9298
600 2 2.2208 7.94253 4.28894 22.155
601 1 -1.1104 9.25128 -0.142343 23.4615
602 1 -1.1104 9.52469 0.0265566 26.2446
10004 2 2.2208 -0.54937 9.86916 24.9055
339 2 2.2208 8.03341 4.26742 27.77
343 2 2.2208 5.05221 7.14299 27.6488
345 2 2.2208 5.04395 12.7035 27.6879
10106 2 2.2208 -0.502068 6.99052 21.9844
614 2 2.2208 5.01441 6.95499 22.2649
615 2 2.2208 5.06507 12.5896 22.1968
616 1 -1.1104 0.733568 8.2985 23.4861
618 1 -1.1104 0.870047 8.49037 26.2127
620 1 -1.1104 0.867796 5.63609 23.3726
621 1 -1.1104 0.854465 11.2081 23.5766
624 2 2.2208 5.05734 9.89874 24.8609
625 1 -1.1104 0.626521 5.59961 26.0886
626 1 -1.1104 0.805657 11.2706 26.2752
629 1 -1.1104 3.60567 8.30631 23.4334
630 2 2.2208 2.22724 7.01491 24.8567
631 2 2.2208 2.24607 12.6541 24.8672
632 1 -1.1104 3.69337 8.53961 26.1062
633 2 2.2208 2.26177 9.81434 22.1431
634 1 -1.1104 3.66159 5.52201 23.5371
635 1 -1.1104 3.61159 11.1726 23.4145
636 1 -1.1104 3.69149 5.72192 26.1281
637 1 -1.1104 3.70254 11.3099 26.3061
581 1 -1.1104 12.1801 14.0349 23.4751
628 1 -1.1104 6.41563 11.3092 26.3443
627 1 -1.1104 6.48944 5.68836 26.332
344 2 2.2208 2.21632 9.86741 27.7265
9852 2 2.2208 13.5026 7.08336 24.8557
9854 2 2.2208 13.5536 12.676 24.811
481 1 -1.1104 9.46113 11.1731 20.6975
548 2 2.2208 7.8553 20.9733 22.0994
467 1 -1.1104 12.1262 5.45574 20.715
617 1 -1.1104 6.39962 8.51721 23.6886
474 1 -1.1104 9.41856 8.56865 20.8734
623 1 -1.1104 6.45515 11.2865 23.5073
622 1 -1.1104 6.555 5.64708 23.543
619 1 -1.1104 6.59271 8.4243 26.3568
575 1 -1.1104 9.25097 8.44412 23.6395
576 1 -1.1104 12.1438 11.2805 26.3792
603 1 -1.1104 12.0238 5.624 26.2478
604 2 2.2208 10.7064 9.88887 24.8962
605 1 -1.1104 12.0956 11.1983 23.6236
607 1 -1.1104 12.1861 5.6834 23.433
608 1 -1.1104 12.1939 8.49465 26.4212
609 1 -1.1104 12.1322 8.44982 23.4928
638 2 2.2208 10.7348 12.6517 22.2225
639 2 2.2208 10.7022 7.14343 22.2049
640 2 2.2208 7.84915 7.01862 24.9767
645 1 -1.1104 9.20312 11.3463 26.3447
646 1 -1.1104 9.36386 5.69154 26.447
647 1 -1.1104 9.27068 11.3298 23.4125
648 1 -1.1104 9.30242 5.64373 23.6131
649 2 2.2208 7.99371 9.79519 22.1548
650 1 -1.1104 9.46966 8.53642 26.3246
651 2 2.2208 7.75036 12.6706 24.8793
333 2 2.2208 10.7669 12.5335 27.7572
387 1 -1.1104 6.52394 17.0085 23.3935
456 1 -1.1104 6.35099 14.1738 23.5224
512 1 -1.1104 3.65304 19.7721 20.832
517 1 -1.1104 3.6973 16.7831 20.5908
579 1 -1.1104 9.29349 16.8614 26.4226
380 2 2.2208 2.32527 15.3235 22.0929
383 2 2.2208 2.29231 21.0557 22.114
384 1 -1.1104 3.63102 16.9219 23.3182
386 1 -1.1104 0.822323 16.7663 23.415
388 1 -1.1104 3.74763 14.0902 26.1
417 1 -1.1104 3.79019 16.9373 26.4087
418 2 2.2208 2.3083 18.2531 24.904
419 1 -1.1104 3.60631 19.5984 26.3734
420 2 2.2208 5.13409 18.3337 22.1591
421 1 -1.1104 1.05183 14.0096 23.4376
455 1 -1.1104 0.973565 19.6091 23.4654
457 2 2.2208 5.08697 15.5864 24.832
482 2 2.2208 5.16426 21.1355 24.9389
484 1 -1.1104 0.949063 14.0434 26.1813
518 1 -1.1104 0.856424 16.8142 26.2082
519 1 -1.1104 0.931226 19.6199 26.3924
545 1 -1.1104 3.58022 13.9183 23.5007
547 1 -1.1104 3.65528 19.6406 23.535
9810 2 2.2208 -0.521911 18.2184 22.0792
483 1 -1.1104 6.57538 19.6887 23.5353
342 2 2.2208 2.35483 20.9228 27.8071
520 1 -1.1104 6.50509 16.8232 26.1693
611 2 2.2208 10.7599 21.0627 24.9002
642 2 2.2208 8.00373 18.2271 24.8892
582 1 -1.1104 12.1266 19.611 23.3488
643 1 -1.1104 6.46152 19.5535 26.2057
546 1 -1.1104 6.4137 14.1639 26.3525
580 1 -1.1104 9.28241 16.7966 23.5405
537 1 -1.1104 9.291 14.1227 20.741
583 1 -1.1104 12.1351 14.0824 26.2753
573 2 2.2208 8.01186 15.5115 22.1306
610 2 2.2208 10.728 15.466 24.8936
574 1 -1.1104 9.30139 19.6058 26.3303
613 1 -1.1104 9.30437 13.9689 23.5021
606 1 -1.1104 12.1834 16.7467 23.5738
612 1 -1.1104 12.1122 16.8981 26.5075
644 1 -1.1104 9.39765 13.9375 26.4174
505 1 -1.1104 6.40359 16.9883 20.8007
641 1 -1.1104 9.32832 19.5728 23.4926
525 1 -1.1104 12.1918 14.0839 20.8449
9774 2 2.2208 -0.549662 12.6336 27.7177
334 2 2.2208 7.88009 9.73241 27.7998
341 2 2.2208 5.23457 18.294 27.6483
312 2 2.2208 7.78802 15.3408 27.5887
310 2 2.2208 2.36583 1.50515 13.7104
315 2 2.2208 10.7631 -1.44267 13.6774
314 2 2.2208 7.99619 1.30486 13.5624
320 2 2.2208 7.96596 6.9013 13.6942
325 2 2.2208 5.05477 15.3704 13.7068
9767 2 2.2208 -0.490467 15.4837 13.623
652 2 2.2208 5.11131 23.7931 5.21954
653 2 2.2208 5.20433 29.3668 5.25496
654 1 -1.1104 1.00004 25.1094 0.978365
655 1 -1.1104 0.943456 25.1842 3.74234
656 1 -1.1104 1.0125 22.3844 1.02369
657 1 -1.1104 1.0172 27.8985 1.05262
658 2 2.2208 5.25098 26.6876 2.40848
659 1 -1.1104 0.873318 22.4073 3.81533
660 1 -1.1104 1.10789 28.0533 3.71013
661 1 -1.1104 3.77716 25.2978 1.01228
662 2 2.2208 2.37694 23.7675 2.49196
663 2 2.2208 2.472 29.5693 2.38061
664 1 -1.1104 3.72129 25.151 3.70029
665 2 2.2208 2.37781 26.6651 5.0974
666 1 -1.1104 3.83701 22.3353 1.16346
667 1 -1.1104 3.86905 28.1339 1.02351
668 1 -1.1104 3.69793 22.4655 3.83897
669 1 -1.1104 3.91652 28.0478 3.78965
943 2 2.2208 -0.328991 40.7678 10.9095
796 1 -1.1104 0.994227 27.917 6.55587
676 1 -1.1104 6.72385 28.1214 0.893553
673 1 -1.1104 6.65677 25.1936 0.973112
675 1 -1.1104 6.53607 22.3072 0.99085
672 2 2.2208 -0.341544 26.5804 2.38714
793 1 -1.1104 0.848835 25.2934 6.65973
800 1 -1.1104 3.77956 22.2552 6.55761
801 1 -1.1104 3.65557 27.9533 6.67778
798 1 -1.1104 6.39268 27.9442 6.5577
670 2 2.2208 -0.463729 29.3898 5.18448
674 1 -1.1104 6.53416 25.3387 3.76166
677 1 -1.1104 6.60982 22.4511 3.94107
678 1 -1.1104 6.71046 28.115 3.76766
679 2 2.2208 10.7236 23.8801 5.12897
680 2 2.2208 10.8928 29.4822 5.28018
681 1 -1.1104 12.3365 25.0972 0.859501
682 1 -1.1104 12.1978 25.2357 3.73999
683 1 -1.1104 12.2424 22.3705 1.19617
684 1 -1.1104 12.2215 27.9491 0.882359
685 2 2.2208 10.9219 26.6539 2.34435
686 1 -1.1104 12.1678 22.3208 3.95376
687 1 -1.1104 12.3097 28.0162 3.73592
688 1 -1.1104 9.45683 25.2438 1.09268
689 2 2.2208 8.02181 23.9196 2.38554
690 2 2.2208 8.02312 29.4866 2.38587
691 1 -1.1104 9.15613 25.1993 3.96229
692 2 2.2208 7.96098 26.6618 5.15102
693 1 -1.1104 9.28468 22.3968 1.00914
694 1 -1.1104 9.44339 27.9206 0.963708
695 1 -1.1104 9.32975 22.2925 3.84219
696 1 -1.1104 9.54017 28.0596 3.73843
830 1 -1.1104 9.4001 22.5206 6.62774
794 1 -1.1104 6.51106 25.2115 6.48638
797 1 -1.1104 6.4557 22.4621 6.69325
829 1 -1.1104 9.22669 25.3648 6.68246
828 1 -1.1104 12.2889 28.1367 6.55489
982 2 2.2208 -0.247073 35.2127 10.8379
1008 2 2.2208 13.6026 29.4313 13.5664
700 2 2.2208 5.20779 35.0507 5.07624
701 1 -1.1104 0.871407 30.8944 0.968952
702 1 -1.1104 1.07045 36.5699 0.910293
704 1 -1.1104 0.953523 30.9396 3.83823
705 1 -1.1104 0.99251 36.379 3.72388
707 1 -1.1104 1.19754 33.6508 1.14283
708 2 2.2208 5.25091 32.223 2.43581
709 2 2.2208 5.198 37.9474 2.46776
710 1 -1.1104 1.11503 33.6665 3.87284
712 1 -1.1104 3.88401 30.8675 0.930416
713 1 -1.1104 3.75529 36.6003 1.06025
714 2 2.2208 2.42351 35.1744 2.40042
715 1 -1.1104 3.82919 30.8593 3.78992
716 1 -1.1104 3.79159 36.7063 3.89951
717 2 2.2208 2.28491 32.2276 5.09386
718 2 2.2208 2.43843 38.0006 5.14667
719 1 -1.1104 3.86479 33.8095 0.971019
720 1 -1.1104 3.83572 33.8367 3.73009
856 1 -1.1104 3.80265 30.8307 6.47099
850 1 -1.1104 0.888976 30.7992 6.67586
858 1 -1.1104 3.88126 33.6102 6.59453
854 1 -1.1104 1.12787 33.8143 6.75484
724 1 -1.1104 6.60435 30.9174 0.955943
722 2 2.2208 -0.467549 32.2195 2.34132
857 1 -1.1104 3.93068 36.411 6.71614
851 1 -1.1104 1.18788 36.4824 6.39377
971 2 2.2208 13.751 43.502 5.17063
984 2 2.2208 13.6496 46.2875 8.04833
726 1 -1.1104 6.61792 33.6954 0.976141
703 1 -1.1104 6.60647 36.6499 0.969764
706 1 -1.1104 6.56917 36.4579 3.7846
711 1 -1.1104 6.49498 33.7281 3.72526
725 1 -1.1104 6.60665 30.8863 3.80012
727 2 2.2208 10.7492 35.1478 5.17271
728 1 -1.1104 12.121 30.7171 1.21283
729 1 -1.1104 12.2385 36.5378 1.11232
730 1 -1.1104 12.3207 30.9763 3.76481
731 1 -1.1104 12.1388 36.5266 3.92456
732 1 -1.1104 12.1776 33.6319 1.00293
733 2 2.2208 10.8099 32.2994 2.46712
734 2 2.2208 10.8379 37.9698 2.40376