ITEM: TIMESTEP
80000
ITEM: NUMBER OF ATOMS
17820
ITEM: BOX BOUNDS pp pp pp
-3.5519540866825461e-01 2.7695195408668898e+01
-4.3385237634241962e+00 3.3241852376343905e+02
-3.5226506992512169e-01 2.7692265069924570e+01
ITEM: ATOMS id type q x y z
1 2 2.2208 5.38281 1.32446 5.1503
2 1 -1.1104 1.08601 -2.96354 1.1587
3 1 -1.1104 1.13733 2.62734 0.961572
6 1 -1.1104 1.14264 -2.90531 3.9454
7 1 -1.1104 1.21943 2.61684 3.83861
10 1 -1.1104 1.10748 -0.244001 1.20343
12 2 2.2208 5.40688 -1.62327 2.40448
14 1 -1.1104 1.06724 -0.0788468 3.94738
16 1 -1.1104 3.98556 -3.00323 1.05049
17 1 -1.1104 3.95742 2.79772 1.08567
18 2 2.2208 2.52135 1.34919 2.43129
19 1 -1.1104 4.01407 -2.9347 3.79203
20 1 -1.1104 4.03533 2.68094 3.8269
21 2 2.2208 2.4654 -1.49466 5.26021
23 1 -1.1104 4.08218 -0.122267 1.05173
24 1 -1.1104 3.94849 -0.118921 3.67032
13 2 2.2208 5.30297 4.17861 2.54528
22 2 2.2208 2.67992 4.07151 5.33904
5 1 -1.1104 6.7861 2.60556 1.15903
9015 2 2.2208 5.4735 -4.23623 10.8403
332 2 2.2208 2.55699 4.13844 -0.226959
9011 2 2.2208 -0.205265 -4.35449 5.29728
8 1 -1.1104 6.85364 -3.01693 3.76703
15 1 -1.1104 6.70806 -0.181045 3.85043
166 1 -1.1104 1.11746 -3.05161 6.61014
29 2 2.2208 13.7127 21.0407 5.22532
11 1 -1.1104 6.68408 -0.173648 1.10689
4 1 -1.1104 6.8765 -3.13595 1.02405
9 1 -1.1104 6.90766 2.65055 3.78555
31 2 2.2208 10.9968 1.24148 5.16256
32 1 -1.1104 12.288 -2.97971 1.1102
33 1 -1.1104 12.5356 2.57812 1.05694
34 1 -1.1104 12.4232 -3.10385 3.98404
35 1 -1.1104 12.5616 2.60817 3.88297
36 1 -1.1104 12.3502 -0.209183 0.986781
37 2 2.2208 10.9481 -1.67186 2.5191
39 1 -1.1104 12.4244 -0.238142 3.61465
40 1 -1.1104 9.48976 -3.00205 1.01072
41 1 -1.1104 9.69028 2.77975 1.00014
42 2 2.2208 8.21687 1.1904 2.48248
43 1 -1.1104 9.56461 -3.03823 4.02357
44 1 -1.1104 9.68198 2.6812 3.85164
45 2 2.2208 8.15913 -1.55835 5.28277
47 1 -1.1104 9.50779 -0.136659 1.0867
48 1 -1.1104 9.56247 -0.13847 3.90821
38 2 2.2208 11.0212 3.93489 2.40335
46 2 2.2208 8.05266 4.0428 5.35094
9022 2 2.2208 10.8818 -4.37132 -0.316493
9014 2 2.2208 2.51544 -4.43407 8.07946
9431 2 2.2208 13.8353 -1.58193 10.8905
338 2 2.2208 8.1123 -1.45574 -0.314179
9017 2 2.2208 10.9323 -4.40411 10.9011
137 1 -1.1104 9.42044 19.6339 12.356
9733 2 2.2208 -0.137226 6.83494 5.25579
171 1 -1.1104 6.77656 -0.290328 6.66851
209 1 -1.1104 9.57174 2.62062 6.64329
9731 2 2.2208 13.8663 -1.56754 5.383
9013 2 2.2208 10.9185 -4.38451 5.26112
345 2 2.2208 5.3162 12.5873 -0.226386
343 2 2.2208 5.41435 7.05843 -0.290005
54 2 2.2208 5.36357 6.92145 5.3866
55 2 2.2208 5.15065 12.4743 5.30934
56 1 -1.1104 1.25496 8.12737 1.24506
58 1 -1.1104 1.11701 8.29885 3.93994
60 1 -1.1104 1.11872 5.31344 1.20753
61 1 -1.1104 1.31605 10.8904 1.23486
66 2 2.2208 5.40392 9.82293 2.57349
67 1 -1.1104 1.25758 5.52827 4.02896
68 1 -1.1104 1.28283 11.1572 4.02761
71 1 -1.1104 4.0794 8.54594 1.02291
72 2 2.2208 2.76255 6.93644 2.56598
73 2 2.2208 2.37837 12.4623 2.55959
74 1 -1.1104 4.02016 8.46795 3.95387
75 2 2.2208 2.55285 9.70487 5.37323
76 1 -1.1104 4.09098 5.67082 1.11555
77 1 -1.1104 3.90753 11.2814 1.25094
79 1 -1.1104 3.90889 5.36059 4.00653
80 1 -1.1104 4.0935 11.1134 3.91924
59 1 -1.1104 6.72803 8.34528 3.907
64 1 -1.1104 6.69102 11.1931 1.23428
63 1 -1.1104 6.75403 5.54756 1.27875
57 1 -1.1104 6.87452 8.43018 1.07991
70 1 -1.1104 6.84676 11.0955 3.9009
344 2 2.2208 2.62567 9.7934 -0.275621
69 1 -1.1104 6.55454 5.40843 4.04654
237 1 -1.1104 6.77753 5.38822 6.70176
334 2 2.2208 8.26746 9.76494 -0.234408
84 2 2.2208 10.8499 6.74126 5.28336
85 2 2.2208 10.9375 12.5603 5.29367
86 1 -1.1104 12.1953 8.38068 1.04909
87 1 -1.1104 12.4381 8.15494 3.91017
88 1 -1.1104 12.369 5.43613 1.10165
89 1 -1.1104 12.2045 11.2093 0.960626
91 2 2.2208 11.0275 9.62829 2.64434
92 1 -1.1104 12.2702 5.31928 3.85326
93 1 -1.1104 12.5182 10.9177 3.92349
94 1 -1.1104 9.57677 8.35602 1.19733
95 2 2.2208 8.10687 6.95604 2.52916
96 2 2.2208 8.25019 12.5053 2.66123
97 1 -1.1104 9.64567 8.22889 3.9172
98 2 2.2208 8.13149 9.77766 5.48258
99 1 -1.1104 9.67976 5.53583 1.30017
100 1 -1.1104 9.5229 11.178 1.24832
102 1 -1.1104 9.2791 5.51624 4.01678
103 1 -1.1104 9.6919 11.0995 4.0832
9774 2 2.2208 -0.168764 12.4041 -0.253834
9734 2 2.2208 -0.1788 9.65477 2.55119
51 2 2.2208 -0.287964 18.1682 10.9418
333 2 2.2208 10.946 12.5858 -0.333015
335 2 2.2208 10.9453 6.86415 -0.215974
265 1 -1.1104 12.1541 8.22297 6.73885
9651 2 2.2208 -0.217607 12.5323 10.9404
342 2 2.2208 2.46962 20.9858 -0.300651
106 2 2.2208 5.30019 18.074 5.30032
107 1 -1.1104 1.05136 13.9493 1.14794
109 1 -1.1104 1.037 19.4583 1.15482
113 1 -1.1104 1.05815 13.7732 3.96955
114 1 -1.1104 1.23047 19.5373 4.00566
116 1 -1.1104 1.31024 16.7547 1.01946
119 2 2.2208 5.28007 15.1887 2.54535
120 2 2.2208 5.40795 20.8775 2.51757
121 1 -1.1104 1.06381 16.5981 3.9492
123 1 -1.1104 3.72425 13.891 1.13232
125 1 -1.1104 3.95982 19.662 1.15887
127 2 2.2208 2.50167 18.1906 2.45606
128 1 -1.1104 3.89882 13.9567 3.98722
129 1 -1.1104 4.1155 19.4707 3.95407
130 2 2.2208 2.41914 15.2068 5.25116
131 2 2.2208 2.66012 20.9419 5.33734
132 1 -1.1104 4.00198 16.7367 1.19396
134 1 -1.1104 3.72861 16.7407 3.82376
115 1 -1.1104 6.63731 13.7964 4.03706
138 1 -1.1104 6.81733 19.5337 1.19849
139 1 -1.1104 6.90472 19.493 3.9726
341 2 2.2208 5.43168 18.2289 -0.316681
108 1 -1.1104 1.09388 13.8443 6.82142
340 2 2.2208 2.5751 15.3977 -0.297788
312 2 2.2208 8.12056 15.357 -0.265925
313 2 2.2208 11.0283 18.0735 -0.358752
9010 2 2.2208 5.36614 -4.50954 5.24654
140 1 -1.1104 6.88318 16.7383 1.15058
110 1 -1.1104 6.64243 13.9353 1.13245
145 1 -1.1104 12.3675 19.6263 6.69119
122 1 -1.1104 6.54546 16.6497 4.02293
104 1 -1.1104 12.4816 16.7198 9.54377
143 1 -1.1104 12.3609 14.0198 6.86743
141 2 2.2208 10.9717 18.1059 5.26454
142 1 -1.1104 12.3785 14.05 1.09456
144 1 -1.1104 12.4387 19.307 0.941521
146 1 -1.1104 12.3274 13.846 3.94997
147 1 -1.1104 12.5573 19.5153 3.74831
148 1 -1.1104 12.3587 16.6429 1.07894
150 2 2.2208 10.9119 15.2524 2.46871
151 2 2.2208 10.8712 20.9146 2.58923
152 1 -1.1104 12.3182 16.6885 3.87753
153 1 -1.1104 9.46629 13.9158 1.11316
155 1 -1.1104 9.6244 19.6019 1.05332
157 2 2.2208 8.18511 18.1486 2.47935
158 1 -1.1104 9.5631 13.8861 3.9895
159 1 -1.1104 9.53637 19.5813 3.85829
160 2 2.2208 8.06491 15.3608 5.34153
161 2 2.2208 8.11529 20.875 5.3258
162 1 -1.1104 9.60237 16.7229 1.1498
164 1 -1.1104 9.40535 16.6485 3.89207
149 1 -1.1104 12.5327 16.7933 6.65869
9527 2 2.2208 13.7087 15.4178 5.31268
163 1 -1.1104 9.45994 16.8096 6.63555
307 2 2.2208 13.7152 15.3902 -0.305419
172 1 -1.1104 3.85527 -2.87489 6.52405
173 1 -1.1104 4.07125 2.71542 6.60986
170 1 -1.1104 1.17919 -0.135419 6.79436
168 1 -1.1104 6.7502 -3.132 6.53758
174 1 -1.1104 3.92761 -0.106078 6.5959
167 1 -1.1104 1.22235 2.59562 6.66106
175 2 2.2208 5.40231 1.22769 10.9309
176 1 -1.1104 1.20988 -2.95988 12.3757
177 1 -1.1104 1.16159 2.6323 12.297
180 1 -1.1104 1.09176 -3.05518 9.5763
181 1 -1.1104 1.08467 2.64495 9.52184
184 1 -1.1104 1.12758 -0.159981 12.2485
186 2 2.2208 5.2225 -1.62076 7.98254
187 2 2.2208 5.47298 3.99642 8.02332
188 1 -1.1104 1.20083 -0.313749 9.49434
190 1 -1.1104 4.03725 -2.84967 12.2162
191 1 -1.1104 3.95542 2.74274 12.2469
192 2 2.2208 2.58014 1.2623 8.15354
193 1 -1.1104 3.95542 -2.98732 9.34505
194 1 -1.1104 4.02746 2.6007 9.49733
195 2 2.2208 2.622 -1.66849 10.9351
197 1 -1.1104 3.99578 -0.0895173 12.3865
198 1 -1.1104 3.98206 -0.0810287 9.54536
196 2 2.2208 2.62064 4.02062 10.9191
183 1 -1.1104 6.76958 2.60758 9.43089
189 1 -1.1104 6.84023 -0.284054 9.46486
179 1 -1.1104 6.75333 2.59026 12.3565
26 2 2.2208 10.9283 18.1431 10.8853
52 2 2.2208 -0.174038 20.9893 8.10153
154 1 -1.1104 9.64944 13.8877 6.8164
169 1 -1.1104 6.7523 2.47963 6.77928
208 1 -1.1104 9.45507 -3.02663 6.80805
112 1 -1.1104 6.82503 19.6613 6.75374
185 1 -1.1104 6.80651 -0.20799 12.281
207 1 -1.1104 12.2511 -0.153355 6.49119
210 1 -1.1104 9.44201 -0.165403 6.61692
206 1 -1.1104 12.202 2.57073 6.6198
9016 2 2.2208 8.16076 -4.35749 8.08275
178 1 -1.1104 6.76987 -2.77799 12.3012
182 1 -1.1104 6.82218 -3.06841 9.35766
83 2 2.2208 11.0107 20.9558 8.11653
205 1 -1.1104 12.2529 -2.96176 6.70016
211 2 2.2208 10.9944 1.24069 10.876
212 1 -1.1104 12.4034 -2.98802 12.3598
213 1 -1.1104 12.4087 2.8159 12.1997
214 1 -1.1104 12.2797 -2.87033 9.47782
215 1 -1.1104 12.2605 2.60446 9.37651
216 1 -1.1104 12.3958 -0.0604296 12.2167
217 2 2.2208 10.9966 -1.62126 8.03229
218 2 2.2208 10.9189 3.9653 8.00611
219 1 -1.1104 12.4565 -0.248265 9.36863
220 1 -1.1104 9.56895 -3.04191 12.3924
221 1 -1.1104 9.59984 2.5962 12.2927
222 2 2.2208 8.10128 1.09413 8.13739
223 1 -1.1104 9.54392 -2.97407 9.40427
224 1 -1.1104 9.51728 2.67505 9.59323
225 2 2.2208 8.21044 -1.68624 10.7676
227 1 -1.1104 9.76378 -0.201689 12.2129
228 1 -1.1104 9.66395 -0.204914 9.53319
226 2 2.2208 8.18268 4.09262 10.9061
9456 2 2.2208 13.7301 1.27732 8.06272
9009 2 2.2208 2.51368 -4.259 2.50335
82 2 2.2208 10.8691 15.3875 8.16772
234 1 -1.1104 1.16148 8.17525 6.64871
236 1 -1.1104 1.34034 5.41551 6.76498
239 1 -1.1104 4.02032 5.45735 6.77013
78 1 -1.1104 3.92554 11.1197 6.67365
62 1 -1.1104 1.05398 11.0793 6.688
65 1 -1.1104 6.56268 11.0883 6.86592
238 1 -1.1104 3.92731 8.30575 6.80362
235 1 -1.1104 6.76042 8.34049 6.68116
240 2 2.2208 5.32007 6.85335 10.8863
241 2 2.2208 5.40594 12.5583 11.0056
242 1 -1.1104 1.10392 8.20604 12.2216
244 1 -1.1104 1.19222 8.28899 9.3963
246 1 -1.1104 1.33046 5.35037 12.3357
247 1 -1.1104 1.03749 10.9272 12.3573
250 2 2.2208 5.29301 9.72094 8.14233
251 1 -1.1104 1.11706 5.40148 9.64333
252 1 -1.1104 1.06475 11.2382 9.46238
255 1 -1.1104 3.96078 8.32837 12.2604
256 2 2.2208 2.60488 6.93261 8.10223
257 2 2.2208 2.52078 12.4312 8.11624
258 1 -1.1104 3.94285 8.26879 9.54145
259 2 2.2208 2.45801 9.76369 10.9461
260 1 -1.1104 4.01668 5.57196 12.3543
261 1 -1.1104 3.89491 11.1903 12.3351
262 1 -1.1104 3.88652 5.39263 9.51349
263 1 -1.1104 3.96963 11.2135 9.49111
243 1 -1.1104 6.7126 8.1218 12.3616
249 1 -1.1104 6.6042 11.0054 12.4117
245 1 -1.1104 6.605 8.32123 9.46009
253 1 -1.1104 6.61539 5.45395 9.44248
199 2 2.2208 8.17283 18.2039 8.09078
90 1 -1.1104 12.3091 11.1405 6.72596
254 1 -1.1104 6.67787 11.0757 9.73517
248 1 -1.1104 6.74636 5.36703 12.2741
101 1 -1.1104 9.29041 11.1976 7.02406
266 1 -1.1104 12.3491 5.39451 6.67416
269 1 -1.1104 9.63086 5.58323 6.67596
267 1 -1.1104 9.40971 8.36458 6.87204
289 1 -1.1104 6.83676 16.797 9.68729
297 1 -1.1104 6.6889 13.8867 12.4515
264 1 -1.1104 9.59076 11.0723 9.74368
268 1 -1.1104 9.51821 5.43647 9.44416
270 1 -1.1104 9.35762 11.1917 12.3395
271 1 -1.1104 9.47911 5.62857 12.1909
272 2 2.2208 8.1123 9.57721 10.978
273 1 -1.1104 9.44127 8.25198 9.52212
274 2 2.2208 8.0617 12.5445 8.24991
275 2 2.2208 8.14627 6.80845 8.12342
276 2 2.2208 10.8656 6.92614 10.8318
277 2 2.2208 10.8432 12.6021 11.0879
278 1 -1.1104 12.279 8.48416 12.1595
279 1 -1.1104 12.178 8.36752 9.44983
280 1 -1.1104 12.301 5.49145 12.2854
281 1 -1.1104 12.294 11.2338 12.373
282 2 2.2208 10.9034 9.81546 8.16866
283 1 -1.1104 12.3248 5.53646 9.45866
284 1 -1.1104 12.3766 11.1456 9.42821
285 1 -1.1104 9.59393 8.4146 12.3744
201 1 -1.1104 9.67386 19.4294 9.37322
50 1 -1.1104 12.3069 13.917 9.57836
9430 2 2.2208 -0.427646 15.4142 8.1358
124 1 -1.1104 3.85753 13.8509 6.78559
117 1 -1.1104 1.0004 16.7636 6.85514
302 1 -1.1104 1.17333 19.5219 6.64205
126 1 -1.1104 3.93481 19.5601 6.80077
133 1 -1.1104 4.03167 16.6538 6.61605
290 1 -1.1104 6.66408 13.9953 9.56132
288 1 -1.1104 6.66262 19.6848 9.57839
233 1 -1.1104 6.91605 16.6827 12.5208
202 2 2.2208 2.47339 15.2424 10.9262
203 2 2.2208 2.46301 20.9286 10.9765
231 1 -1.1104 3.95471 16.7246 12.3975
232 1 -1.1104 1.05031 16.7203 12.3812
286 1 -1.1104 3.90869 19.4532 12.4615
287 1 -1.1104 3.95552 13.9903 12.2977
291 1 -1.1104 0.905202 19.5504 9.50352
292 1 -1.1104 1.09031 16.6605 9.67919
293 2 2.2208 5.36548 21.1187 8.0071
294 1 -1.1104 1.07296 14.0431 9.50048
295 2 2.2208 5.33162 15.3205 8.09501
298 1 -1.1104 1.17959 19.5069 12.2548
299 1 -1.1104 1.23781 13.8281 12.4154
300 2 2.2208 5.33612 18.0692 11.0197
301 1 -1.1104 3.67307 19.4323 9.64125
303 2 2.2208 2.47068 18.0631 8.19875
304 1 -1.1104 3.87728 16.5314 9.50896
305 1 -1.1104 3.84716 13.9397 9.56503
296 1 -1.1104 6.80652 19.5433 12.358
118 1 -1.1104 6.67247 16.7311 6.76657
111 1 -1.1104 6.77046 14.0325 6.75945
229 2 2.2208 8.16817 20.9368 10.9608
30 1 -1.1104 9.61587 16.7172 9.55084
230 1 -1.1104 9.63478 16.8182 12.5513
156 1 -1.1104 9.62624 19.5276 6.67979
53 1 -1.1104 12.6047 19.4428 9.64402
105 1 -1.1104 9.47928 13.9808 12.4718
81 1 -1.1104 12.3767 16.8405 12.3432
204 2 2.2208 8.15365 15.4468 11.1359
49 1 -1.1104 12.3278 19.7256 12.4729
27 1 -1.1104 12.3532 14.1516 12.3053
200 1 -1.1104 9.55438 14.0113 9.70254
9735 2 2.2208 -0.354588 12.4584 5.35735
135 2 2.2208 -0.348893 15.3757 2.5362
9624 2 2.2208 -0.306507 18.183 5.34755
9658 2 2.2208 -0.251199 9.68774 8.09034
309 2 2.2208 5.30512 -1.49518 13.726
336 2 2.2208 8.17634 21.0739 -0.335936
339 2 2.2208 8.19134 4.10198 -0.132263
331 2 2.2208 2.58321 -1.49999 -0.17452
326 2 2.2208 10.9946 21.035 13.6492
346 2 2.2208 5.26649 1.43682 16.605
347 1 -1.1104 1.16628 -2.96957 17.9486
348 1 -1.1104 1.09767 2.83653 17.9287
351 1 -1.1104 1.10356 -2.89478 15.2066
353 1 -1.1104 1.46574 2.83879 15.2043
359 1 -1.1104 1.12464 -0.116209 17.9279
361 2 2.2208 5.22821 -1.46144 19.4193
362 2 2.2208 5.37642 3.9843 19.4499
363 1 -1.1104 1.0908 -0.115891 15.1129
367 1 -1.1104 4.0384 -2.95025 18.0603
368 1 -1.1104 3.89173 2.75334 18.1219
369 2 2.2208 2.48096 1.36714 19.5009
370 1 -1.1104 3.84227 -2.79879 15.172
372 1 -1.1104 3.95789 2.67251 15.2369
374 2 2.2208 2.49353 -1.55566 16.569
375 2 2.2208 2.51432 4.22367 16.6233
376 1 -1.1104 3.90801 -0.134924 18.0018
377 1 -1.1104 3.92169 0.00044585 15.217
350 1 -1.1104 6.80115 2.59805 17.9349
349 1 -1.1104 6.7374 -2.96838 17.8267
9737 2 2.2208 -0.265011 1.0541 27.8507
311 2 2.2208 5.29715 4.08424 13.7187
310 2 2.2208 2.60501 1.25583 13.7693
9136 2 2.2208 10.8153 -4.29224 16.4627
613 1 -1.1104 9.51726 13.9897 23.51
9137 2 2.2208 2.52084 -4.37931 19.3743
360 1 -1.1104 6.66188 -0.116572 17.999
365 1 -1.1104 6.67282 -0.146128 15.0424
357 1 -1.1104 6.83952 2.7509 15.1936
355 1 -1.1104 6.60915 -2.86581 15.0522
389 2 2.2208 10.87 1.3043 16.4965
390 1 -1.1104 12.2534 -2.8481 17.9639
391 1 -1.1104 12.3455 2.7604 17.8728
392 1 -1.1104 12.2871 -2.88681 15.213
394 1 -1.1104 12.4284 2.68548 15.0978
396 1 -1.1104 12.3377 -0.0669379 17.8177
397 2 2.2208 10.8432 -1.44006 19.2345
398 2 2.2208 10.888 4.14958 19.353
399 1 -1.1104 12.3523 0.0102235 14.9836
401 1 -1.1104 9.50288 -2.86752 18.0255
402 1 -1.1104 9.52537 2.68272 18.0032
403 2 2.2208 8.19453 1.24445 19.3566
404 1 -1.1104 9.49413 -2.82795 15.2352
406 1 -1.1104 9.5265 2.76 14.8655
408 2 2.2208 7.99468 -1.46169 16.5052
409 2 2.2208 8.13197 4.14685 16.5146
410 1 -1.1104 9.47489 -0.0455426 17.915
411 1 -1.1104 9.57747 -0.0560434 15.0088
574 1 -1.1104 9.60387 19.3647 26.3349
606 1 -1.1104 12.5268 16.9445 23.4788
315 2 2.2208 11.0378 -1.57805 13.6971
314 2 2.2208 8.22154 1.18329 13.7043
316 2 2.2208 10.8834 4.0901 13.5617
10106 2 2.2208 -0.123053 6.82141 22.1499
580 1 -1.1104 9.71731 16.8474 23.5569
17573 2 2.2208 -0.177074 -4.24955 16.6099
393 1 -1.1104 12.3719 -3.00677 20.6803
9998 2 2.2208 -0.32808 15.4283 19.3807
422 2 2.2208 5.33385 6.91493 16.5221
423 2 2.2208 5.29885 12.4868 16.5917
424 1 -1.1104 1.2012 8.29028 17.9044
426 1 -1.1104 1.16871 8.35547 15.1813
430 1 -1.1104 1.10357 5.59174 18.0111
431 1 -1.1104 1.19625 11.0826 17.9486
434 2 2.2208 5.2856 9.79003 19.2764
435 1 -1.1104 1.11419 5.67 15.2566
437 1 -1.1104 1.23934 11.0868 15.1096
443 1 -1.1104 4.04554 8.29839 17.9072
444 2 2.2208 2.50621 6.79092 19.4512
445 2 2.2208 2.52839 12.5548 19.2913
446 1 -1.1104 3.92455 8.17932 15.0694
448 2 2.2208 2.50597 9.65863 16.5747
449 1 -1.1104 3.84748 5.61449 18.0425
450 1 -1.1104 3.89504 11.2128 17.9878
451 1 -1.1104 4.03705 5.39797 15.1358
453 1 -1.1104 3.90514 11.0414 15.1129
433 1 -1.1104 6.78541 11.0005 17.9106
428 1 -1.1104 6.72204 8.30723 15.1551
441 1 -1.1104 6.74002 11.0766 15.1682
439 1 -1.1104 6.7303 5.50781 15.0593
317 2 2.2208 2.57121 6.86427 13.6942
319 2 2.2208 2.64916 12.427 13.7889
318 2 2.2208 5.40462 9.61333 13.8083
432 1 -1.1104 6.7086 5.42593 17.9341
415 2 2.2208 -0.238752 9.58007 19.4322
322 2 2.2208 7.99991 12.4804 13.9338
9767 2 2.2208 -0.27026 15.2769 13.707
321 2 2.2208 10.9692 9.69509 13.6636
425 1 -1.1104 6.85076 8.22 17.9195
458 2 2.2208 10.9518 6.70135 16.557
459 2 2.2208 10.9469 12.4021 16.4113
460 1 -1.1104 12.5109 8.31358 17.9571
461 1 -1.1104 12.3921 8.17515 15.0591
463 1 -1.1104 12.3013 5.58917 18.0709
464 1 -1.1104 12.358 11.1898 17.745
465 2 2.2208 10.9851 9.68242 19.2379
466 1 -1.1104 12.2554 5.45733 14.9299
468 1 -1.1104 12.3954 10.9721 15.0881
470 1 -1.1104 9.59515 8.31493 17.9961
471 2 2.2208 8.13057 6.83276 19.3636
472 2 2.2208 8.19293 12.4963 19.3145
473 1 -1.1104 9.61977 8.19183 15.1386
475 2 2.2208 8.09919 9.60231 16.563
476 1 -1.1104 9.52006 5.43043 17.8262
477 1 -1.1104 9.58981 11.1419 17.8325
478 1 -1.1104 9.54798 5.45237 15.1687
480 1 -1.1104 9.5213 11.0496 15.1372
611 2 2.2208 10.8645 20.9614 24.8814
9810 2 2.2208 -0.420993 18.2563 22.1459
9958 2 2.2208 13.869 18.106 19.2503
325 2 2.2208 5.32564 15.362 13.6977
485 2 2.2208 5.36786 18.1311 16.5602
486 1 -1.1104 1.00031 13.9774 17.8981
487 1 -1.1104 1.0295 19.6567 17.9212
490 1 -1.1104 1.06493 13.8201 15.1728
492 1 -1.1104 1.11471 19.5939 15.0474
498 1 -1.1104 1.04394 16.5898 17.9469
500 2 2.2208 5.33583 15.3902 19.3854
501 2 2.2208 5.34627 20.8916 19.2833
502 1 -1.1104 1.07779 16.735 15.2182
506 1 -1.1104 3.73589 13.9738 17.8544
507 1 -1.1104 3.94621 19.4875 17.8959
508 2 2.2208 2.54165 18.0974 19.2781
509 1 -1.1104 3.9273 13.8617 15.2212
511 1 -1.1104 4.10281 19.4718 15.1613
513 2 2.2208 2.43249 15.3634 16.6169
514 2 2.2208 2.52516 20.9753 16.484
515 1 -1.1104 3.91457 16.6855 18.0193
516 1 -1.1104 3.92302 16.7753 15.243
499 1 -1.1104 6.65395 16.6208 17.9873
504 1 -1.1104 6.86782 16.7931 15.2928
496 1 -1.1104 6.88209 19.402 15.0768
488 1 -1.1104 6.64696 13.779 17.9126
323 2 2.2208 2.51064 18.1515 13.7807
324 2 2.2208 5.44404 20.9135 13.7344
494 1 -1.1104 6.56884 13.9469 15.1335
505 1 -1.1104 6.73136 16.7509 20.8858
610 2 2.2208 10.7979 15.3933 24.8686
489 1 -1.1104 6.70758 19.391 18.0208
328 2 2.2208 8.26505 18.0838 13.848
385 2 2.2208 13.7963 20.9689 16.5356
521 2 2.2208 10.9447 18.2582 16.4471
522 1 -1.1104 12.39 14.1194 17.7763
523 1 -1.1104 12.3501 19.7206 18.0675
524 1 -1.1104 12.3941 13.8444 14.9548
526 1 -1.1104 12.3177 19.5977 15.2575
528 1 -1.1104 12.4295 16.9066 17.8368
529 2 2.2208 10.978 15.436 19.2226
530 2 2.2208 10.8711 20.9887 19.3427
531 1 -1.1104 12.4168 16.6673 15.0782
533 1 -1.1104 9.51844 13.9805 18.0788
534 1 -1.1104 9.42027 19.4998 17.9575
535 2 2.2208 8.06913 18.1195 19.4279
536 1 -1.1104 9.49584 13.8586 15.184
538 1 -1.1104 9.57948 19.5148 15.1276
540 2 2.2208 8.10499 15.2971 16.6001
541 2 2.2208 8.25348 20.9655 16.6056
542 1 -1.1104 9.75629 16.7345 17.8252
543 1 -1.1104 9.74077 16.6249 15.2516
9817 2 2.2208 -0.194058 15.2016 24.937
327 2 2.2208 10.8979 15.3219 13.852
527 1 -1.1104 12.35 19.6095 20.7867
366 1 -1.1104 6.84059 -0.0152843 20.7089
378 1 -1.1104 3.72429 -0.181144 20.726
354 1 -1.1104 1.11037 2.91567 20.9197
373 1 -1.1104 3.99661 2.58435 20.8324
352 1 -1.1104 1.17298 -2.87807 20.7676
364 1 -1.1104 1.02152 0.0387955 20.7325
358 1 -1.1104 6.82386 2.81516 20.8356
371 1 -1.1104 3.98315 -2.94389 20.9589
356 1 -1.1104 6.71466 -2.91299 20.5642
549 2 2.2208 5.39421 1.33045 22.215
550 1 -1.1104 1.05921 -2.89377 23.5019
551 1 -1.1104 1.27134 2.66396 23.5836
554 1 -1.1104 1.31412 -3.04102 26.334
555 1 -1.1104 1.12414 2.77234 26.2508
558 1 -1.1104 1.14887 -0.220722 23.7333
560 2 2.2208 5.20705 -1.43576 25.0138
561 2 2.2208 5.41008 4.23037 25.0388
562 1 -1.1104 1.09637 -0.2316 26.298
564 1 -1.1104 3.97254 -2.83043 23.6548
565 1 -1.1104 4.19644 2.72783 23.5512
566 2 2.2208 2.57297 1.30776 25.0447
567 1 -1.1104 3.91264 -2.78996 26.4321
568 1 -1.1104 3.93467 2.79726 26.3434
569 2 2.2208 2.5528 -1.47609 22.1586
571 1 -1.1104 3.95707 -0.0935633 23.5463
572 1 -1.1104 4.01323 0.0279775 26.4256
570 2 2.2208 2.59282 4.08304 22.2847
563 1 -1.1104 6.73187 -0.0891702 26.4081
557 1 -1.1104 6.78419 2.81179 26.3672
553 1 -1.1104 6.79274 2.63351 23.7244
556 1 -1.1104 6.65376 -2.79272 26.2872
9813 2 2.2208 -0.131242 1.36487 22.2432
9101 2 2.2208 5.39451 -4.31063 22.0658
641 1 -1.1104 9.5393 19.4988 23.5847
9811 2 2.2208 -0.187768 -1.71404 25.0221
407 1 -1.1104 9.54232 2.6867 20.7309
9814 2 2.2208 -0.146105 4.05935 24.887
559 1 -1.1104 6.64029 -0.3561 23.5156
395 1 -1.1104 12.3349 2.65806 20.8355
405 1 -1.1104 9.55283 -2.92976 20.6371
400 1 -1.1104 12.3992 -0.0674164 20.6609
412 1 -1.1104 9.63921 -0.102686 20.7639
552 1 -1.1104 6.87057 -3.05155 23.3976
585 2 2.2208 10.9164 1.32969 22.2838
586 1 -1.1104 12.3979 -2.85116 23.4555
587 1 -1.1104 12.3671 2.75574 23.5087
588 1 -1.1104 12.2839 -2.794 26.2328
589 1 -1.1104 12.4203 2.8104 26.3327
590 1 -1.1104 12.1497 -0.0047402 23.5687
591 2 2.2208 10.7715 -1.46494 25.0433
592 2 2.2208 11.0838 4.28824 24.9537
593 1 -1.1104 12.2522 -0.0567772 26.2319
594 1 -1.1104 9.64958 -2.93809 23.5217
595 1 -1.1104 9.40445 2.79216 23.6167
596 2 2.2208 8.04623 1.38675 24.9943
597 1 -1.1104 9.62012 -2.8141 26.4173
598 1 -1.1104 9.62897 2.7411 26.486
599 2 2.2208 8.06871 -1.61336 22.2638
600 2 2.2208 8.13829 4.17447 22.1526
601 1 -1.1104 9.4328 -0.134649 23.5807
602 1 -1.1104 9.46792 0.0329492 26.3452
10019 2 2.2208 13.8524 4.07531 22.0941
548 2 2.2208 8.14824 20.8722 22.0613
573 2 2.2208 8.0247 15.3949 22.2135
440 1 -1.1104 6.73233 5.50871 20.7141
447 1 -1.1104 3.97298 8.2725 20.9002
442 1 -1.1104 6.77596 11.2074 20.7712
436 1 -1.1104 1.18493 5.56875 20.9156
438 1 -1.1104 1.09719 10.9993 20.7442
454 1 -1.1104 3.92099 11.1674 20.6785
584 1 -1.1104 12.2516 19.477 26.1677
429 1 -1.1104 6.60028 8.34852 20.7465
427 1 -1.1104 1.12508 8.23766 20.7497
452 1 -1.1104 4.03034 5.5348 20.9271
614 2 2.2208 5.30502 6.95083 22.1622
615 2 2.2208 5.36706 12.4998 22.0953
616 1 -1.1104 1.30873 8.43111 23.5752
618 1 -1.1104 1.28874 8.14165 26.3903
620 1 -1.1104 1.17049 5.51695 23.6895
621 1 -1.1104 1.15719 11.2126 23.5561
624 2 2.2208 5.40247 9.72281 24.8889
625 1 -1.1104 1.03749 5.47685 26.3751
626 1 -1.1104 1.29173 10.8794 26.3612
629 1 -1.1104 4.01948 8.30331 23.6423
630 2 2.2208 2.61985 6.92851 25.013
631 2 2.2208 2.63304 12.5723 24.8434
632 1 -1.1104 4.02809 8.4899 26.3442
633 2 2.2208 2.54133 9.75035 22.1645
634 1 -1.1104 3.93211 5.54566 23.6289
635 1 -1.1104 4.06571 11.1898 23.4869
636 1 -1.1104 3.82358 5.64321 26.3712
637 1 -1.1104 3.98256 11.2101 26.3277
619 1 -1.1104 6.85183 8.3501 26.1232
617 1 -1.1104 6.96736 8.28503 23.4133
623 1 -1.1104 6.81404 11.1202 23.7255
628 1 -1.1104 6.6438 11.1305 26.4049
622 1 -1.1104 6.74614 5.44769 23.5102
581 1 -1.1104 12.3212 13.9354 23.4247
469 1 -1.1104 12.477 11.0974 20.6568
467 1 -1.1104 12.4118 5.54184 20.7283
479 1 -1.1104 9.46851 5.43274 20.6317
474 1 -1.1104 9.50692 8.25322 20.7951
481 1 -1.1104 9.61866 11.0485 20.6661
627 1 -1.1104 6.7948 5.61802 26.3846
462 1 -1.1104 12.2832 8.21523 20.7061
579 1 -1.1104 9.47328 16.8339 26.4122
575 1 -1.1104 9.6628 8.32108 23.5323
576 1 -1.1104 12.4711 11.1061 26.2865
603 1 -1.1104 12.5195 5.54273 26.3148
604 2 2.2208 11.0094 9.57843 24.8694
605 1 -1.1104 12.3914 11.0931 23.457
607 1 -1.1104 12.4329 5.47123 23.3793
608 1 -1.1104 12.4082 8.37096 26.2767
609 1 -1.1104 12.4764 8.33184 23.5467
638 2 2.2208 10.8546 12.5224 22.0558
639 2 2.2208 10.931 6.92242 22.1042
640 2 2.2208 8.22317 6.8695 24.9943
645 1 -1.1104 9.63731 11.0951 26.2794
646 1 -1.1104 9.58932 5.52478 26.3819
647 1 -1.1104 9.4393 11.1205 23.4377
648 1 -1.1104 9.46636 5.61034 23.6385
649 2 2.2208 8.17685 9.67464 22.083
650 1 -1.1104 9.57287 8.37292 26.3698
651 2 2.2208 8.20833 12.4761 25.0343
544 1 -1.1104 9.56226 16.8019 20.6666
525 1 -1.1104 12.3394 13.9967 20.6071
510 1 -1.1104 3.94879 13.9918 20.7405
512 1 -1.1104 3.80401 19.4647 20.6639
503 1 -1.1104 1.13719 16.8659 20.6473
491 1 -1.1104 1.17624 13.965 20.7503
517 1 -1.1104 4.04147 16.7504 20.8354
493 1 -1.1104 1.11664 19.607 20.5865
387 1 -1.1104 6.90976 16.7325 23.7292
483 1 -1.1104 6.62651 19.5699 23.7264
380 2 2.2208 2.47269 15.3627 21.9629
383 2 2.2208 2.49582 20.9708 22.1112
384 1 -1.1104 4.03397 16.8892 23.5126
386 1 -1.1104 1.20887 16.6556 23.5001
388 1 -1.1104 3.93275 13.9482 26.4443
417 1 -1.1104 3.8305 16.6013 26.1967
418 2 2.2208 2.5351 18.1068 24.8973
419 1 -1.1104 3.93672 19.4197 26.4471
420 2 2.2208 5.32748 18.1366 22.2546
421 1 -1.1104 1.21466 13.9952 23.5642
455 1 -1.1104 1.06395 19.453 23.6957
457 2 2.2208 5.25841 15.1938 24.9983
482 2 2.2208 5.20205 21.1926 24.8651
484 1 -1.1104 1.22211 13.7008 26.3925
518 1 -1.1104 0.957331 16.6931 26.3092
519 1 -1.1104 1.06967 19.5659 26.3667
545 1 -1.1104 3.98098 13.9579 23.4074
547 1 -1.1104 3.94747 19.6899 23.5211
546 1 -1.1104 6.6999 13.9324 26.3372
456 1 -1.1104 6.83331 13.8856 23.5796
520 1 -1.1104 6.63396 16.7472 26.3481
643 1 -1.1104 6.73871 19.7253 26.4338
495 1 -1.1104 6.69236 14.0255 20.5893
644 1 -1.1104 9.45848 14.0024 26.3711
642 2 2.2208 8.04823 18.2158 24.985
577 2 2.2208 11.0632 18.2013 22.0994
497 1 -1.1104 6.55853 19.5486 20.8489
537 1 -1.1104 9.42319 14.0141 20.7587
532 1 -1.1104 12.4418 16.7926 20.7045
539 1 -1.1104 9.49132 19.6298 20.7137
612 1 -1.1104 12.3431 16.7504 26.3148
583 1 -1.1104 12.2721 13.9843 26.2292
582 1 -1.1104 12.4126 19.6279 23.4843
10003 2 2.2208 -0.238389 12.5845 22.2077
10004 2 2.2208 -0.182626 9.63089 25.0016
9997 2 2.2208 -0.337503 21.0256 19.3084
9748 2 2.2208 -0.00365236 4.11381 13.6422
578 2 2.2208 -0.371276 20.9853 24.8932
9853 2 2.2208 -0.0779705 1.29198 16.5638
9893 2 2.2208 -0.319105 12.5482 16.5443
9758 2 2.2208 -0.315044 9.63667 13.8184
330 2 2.2208 5.47424 1.4477 27.8258
320 2 2.2208 8.07773 6.90232 13.7379
337 2 2.2208 10.9977 1.37492 27.718
652 2 2.2208 5.39731 23.8103 5.41966
653 2 2.2208 5.2438 29.362 5.22026
654 1 -1.1104 1.22194 25.2406 1.11613
655 1 -1.1104 1.1136 25.2056 3.86043
656 1 -1.1104 1.10808 22.4422 1.02596
657 1 -1.1104 1.30845 28.0818 0.964024
658 2 2.2208 5.33337 26.5959 2.50553
659 1 -1.1104 1.03579 22.4357 3.90373
660 1 -1.1104 1.11287 28.0714 3.83578
661 1 -1.1104 4.1019 25.1447 1.19237
662 2 2.2208 2.55058 23.7216 2.67783
663 2 2.2208 2.45362 29.4456 2.51721
664 1 -1.1104 4.11041 25.1717 4.04472
665 2 2.2208 2.56408 26.5725 5.20638
666 1 -1.1104 3.8374 22.3708 1.11427
667 1 -1.1104 4.03048 27.9479 0.992505
668 1 -1.1104 4.09857 22.1855 3.95843
669 1 -1.1104 3.8947 27.9188 3.79691
677 1 -1.1104 6.88662 22.4042 4.04528
676 1 -1.1104 6.77698 27.8858 1.06138
678 1 -1.1104 6.72281 27.9107 3.79606
1017 2 2.2208 2.57103 26.5856 -0.326325
675 1 -1.1104 6.70106 22.3338 1.12748
796 1 -1.1104 1.12066 28.0451 6.66922
1014 2 2.2208 5.36791 23.7127 -0.207482
972 2 2.2208 13.7753 26.7402 11.0112
981 2 2.2208 -0.374307 32.2847 8.19335
674 1 -1.1104 6.83167 25.216 3.89804
673 1 -1.1104 6.80554 25.1123 1.17388
772 2 2.2208 -0.23447 40.6573 5.25961
679 2 2.2208 10.9043 23.9134 5.31055
680 2 2.2208 10.9365 29.4326 5.21762
681 1 -1.1104 12.3565 25.2159 1.11045
682 1 -1.1104 12.4608 25.3273 3.90396
683 1 -1.1104 12.1958 22.3642 1.18192
684 1 -1.1104 12.4396 28.1133 1.19194
685 2 2.2208 11.0167 26.6211 2.46961
686 1 -1.1104 12.2478 22.4364 3.99204
687 1 -1.1104 12.3213 28.1996 3.75054
688 1 -1.1104 9.56465 25.1033 0.997506
689 2 2.2208 8.15337 23.6977 2.57297
690 2 2.2208 8.14865 29.4544 2.53664
691 1 -1.1104 9.49983 25.359 3.98697
692 2 2.2208 8.13135 26.6101 5.33384
693 1 -1.1104 9.4438 22.2579 1.11731
694 1 -1.1104 9.57243 27.8827 1.10964
695 1 -1.1104 9.60823 22.3708 3.92744
696 1 -1.1104 9.5418 28.0176 3.94058
828 1 -1.1104 12.619 28.0116 6.66591
970 2 2.2208 13.623 32.2281 5.35667
1022 2 2.2208 8.02238 26.6285 -0.265563
982 2 2.2208 -0.345179 35.0152 10.9974
723 2 2.2208 -0.405053 35.0375 5.20858
1031 2 2.2208 8.262 32.3031 -0.388065
700 2 2.2208 5.12559 35.1522 5.18987
701 1 -1.1104 0.934318 30.727 1.17741
702 1 -1.1104 0.893485 36.34 1.19116
704 1 -1.1104 1.09613 30.9894 3.85677
705 1 -1.1104 1.09954 36.5247 3.87152
707 1 -1.1104 1.20726 33.4902 1.06535
708 2 2.2208 5.246 32.3158 2.51198
709 2 2.2208 5.27811 37.8294 2.48498
710 1 -1.1104 0.993086 33.7847 3.75272
712 1 -1.1104 3.93384 30.8097 1.2455
713 1 -1.1104 3.90171 36.3511 1.05964
714 2 2.2208 2.36008 34.977 2.40074
715 1 -1.1104 3.86538 30.7496 3.98159
716 1 -1.1104 3.74176 36.5112 3.79041
717 2 2.2208 2.57097 32.1715 5.39535
718 2 2.2208 2.45023 37.813 5.35331
719 1 -1.1104 3.9419 33.6421 1.09809
720 1 -1.1104 3.75375 33.6375 3.93384
724 1 -1.1104 6.78265 30.9079 1.05794
856 1 -1.1104 4.01055 30.776 6.7053
711 1 -1.1104 6.4607 33.4453 4.02654
726 1 -1.1104 6.68896 33.7384 1.23584
725 1 -1.1104 6.6061 30.7038 3.77718
706 1 -1.1104 6.76254 36.4379 3.81623
944 1 -1.1104 9.51501 44.8747 9.50712
721 2 2.2208 -0.480836 37.8481 2.45976
722 2 2.2208 -0.400027 32.197 2.7122
851 1 -1.1104 1.01132 36.4784 6.81252
858 1 -1.1104 3.72507 33.5758 6.79546
1026 2 2.2208 2.50154 32.2074 -0.274448
852 1 -1.1104 6.71031 31.0095 6.71288
703 1 -1.1104 6.75783 36.3458 1.08428
727 2 2.2208 10.8211 35.1638 5.45227
728 1 -1.1104 12.3803 30.9374 0.93508
729 1 -1.1104 12.1763 36.5447 1.15243
730 1 -1.1104 12.323 30.981 3.81042
731 1 -1.1104 12.1955 36.4865 3.86094
732 1 -1.1104 12.2032 33.6882 1.19364
733 2 2.2208 10.8818 32.221 2.59834
734 2 2.2208 10.7546 37.8014 2.67944
735 1 -1.1104 12.1904 33.6984 4.00202
736 1 -1.1104 9.6197 30.8568 1.10107
737 1 -1.1104 9.43478 36.4231 1.04678
738 2 2.2208 8.09394 35.0088 2.61856
739 1 -1.1104 9.5086 30.8384 3.96485
740 1 -1.1104 9.42558 36.4522 3.95599
741 2 2.2208 8.0152 32.2546 5.31232
742 2 2.2208 8.0396 37.9243 5.35206
743 1 -1.1104 9.43743 33.621 1.13336
744 1 -1.1104 9.46359 33.6287 3.99057
884 1 -1.1104 12.3263 30.7097 6.71596
886 1 -1.1104 12.2477 33.5904 6.78301
889 1 -1.1104 9.40832 33.5567 6.9521
853 1 -1.1104 6.57886 36.5372 6.73283