ITEM: TIMESTEP
50000
ITEM: NUMBER OF ATOMS
17820
ITEM: BOX BOUNDS pp pp pp
-3.5614092662810243e-01 2.7696140926628150e+01
-4.2401546527594247e+00 3.3232015465277181e+02
-3.4120656845305125e-01 2.7681206568452836e+01
ITEM: ATOMS id type q x y z
1 2 2.2208 5.23874 1.48327 5.04674
2 1 -1.1104 0.970888 -2.85394 1.03679
3 1 -1.1104 0.982356 2.6842 0.829659
6 1 -1.1104 0.958922 -2.7888 3.69995
7 1 -1.1104 0.976725 2.75768 3.6213
10 1 -1.1104 1.16993 -0.13468 0.921015
12 2 2.2208 5.25019 -1.34563 2.49066
14 1 -1.1104 0.885383 -0.0723716 3.67409
16 1 -1.1104 4.00024 -2.87582 0.966353
17 1 -1.1104 3.71552 2.81043 1.0188
18 2 2.2208 2.34082 1.27461 2.40085
19 1 -1.1104 3.81532 -2.807 3.80025
20 1 -1.1104 3.73894 2.77719 3.84072
21 2 2.2208 2.3844 -1.51224 5.17362
23 1 -1.1104 3.99933 0.144434 1.08719
24 1 -1.1104 3.78885 -0.084337 3.84597
13 2 2.2208 5.16204 4.30807 2.41149
22 2 2.2208 2.27448 4.10298 5.16003
9013 2 2.2208 10.6572 -4.13838 5.28415
166 1 -1.1104 0.996214 -2.79718 6.52883
9009 2 2.2208 2.31391 -4.14505 2.32458
9527 2 2.2208 13.569 15.4457 5.17492
9 1 -1.1104 6.61336 2.97816 3.76436
174 1 -1.1104 3.83716 -0.0674673 6.65505
171 1 -1.1104 6.7333 0.133347 6.54506
11 1 -1.1104 6.62987 0.0851989 1.17698
15 1 -1.1104 6.6351 0.0479502 3.73537
5 1 -1.1104 6.65072 2.9889 0.944299
4 1 -1.1104 6.80654 -2.78157 1.07379
8 1 -1.1104 6.65278 -2.8232 3.84487
165 2 2.2208 13.4647 18.1741 2.29018
170 1 -1.1104 1.05918 0.0488488 6.36258
17462 2 2.2208 13.5226 -4.25311 2.34365
31 2 2.2208 10.8748 1.49353 5.21535
32 1 -1.1104 12.0728 -2.8488 1.00135
33 1 -1.1104 12.2699 2.65755 0.895417
34 1 -1.1104 12.0299 -2.73197 3.84552
35 1 -1.1104 12.3152 2.81352 3.76423
36 1 -1.1104 12.1023 -0.067393 1.1144
37 2 2.2208 10.7617 -1.34749 2.44446
39 1 -1.1104 12.357 0.186518 3.84653
40 1 -1.1104 9.3134 -2.80962 1.10274
41 1 -1.1104 9.32136 2.94353 1.02831
42 2 2.2208 7.95418 1.5868 2.27327
43 1 -1.1104 9.46481 -2.68198 3.95611
44 1 -1.1104 9.37081 2.7947 3.96458
45 2 2.2208 8.02565 -1.26912 5.2125
47 1 -1.1104 9.31459 0.152142 0.985172
48 1 -1.1104 9.36467 0.153688 3.79213
38 2 2.2208 10.5997 4.19477 2.42716
46 2 2.2208 7.95683 4.12383 5.20179
208 1 -1.1104 9.2871 -2.79451 6.59227
9016 2 2.2208 7.98642 -4.24245 8.01995
206 1 -1.1104 12.2133 2.87231 6.57674
207 1 -1.1104 12.3476 -0.137503 6.68503
9730 2 2.2208 13.6129 1.41088 2.25994
9731 2 2.2208 13.6335 -1.37025 5.22972
9429 2 2.2208 13.6702 4.22962 5.18053
9458 2 2.2208 13.4428 9.83879 5.19387
54 2 2.2208 5.35351 6.98927 5.34609
55 2 2.2208 5.23239 12.6715 5.08445
56 1 -1.1104 0.865735 8.33813 0.869152
58 1 -1.1104 1.02498 8.27645 3.95034
60 1 -1.1104 0.88368 5.59409 1.02397
61 1 -1.1104 0.866019 10.9542 0.953116
66 2 2.2208 5.10738 9.71481 2.34503
67 1 -1.1104 0.790719 5.54303 3.71683
68 1 -1.1104 1.12229 11.1384 3.77364
71 1 -1.1104 3.62564 8.44129 0.926171
72 2 2.2208 2.31874 7.02136 2.37045
73 2 2.2208 2.38485 12.572 2.29414
74 1 -1.1104 3.84982 8.37155 3.80931
75 2 2.2208 2.45923 9.8623 5.26852
76 1 -1.1104 3.65885 5.58311 0.985931
77 1 -1.1104 3.65231 11.2694 0.950461
79 1 -1.1104 3.64227 5.51398 3.75277
80 1 -1.1104 3.91392 11.1598 3.71314
70 1 -1.1104 6.60472 11.2399 3.70956
238 1 -1.1104 3.78117 8.39604 6.59229
69 1 -1.1104 6.52208 5.79385 3.78025
63 1 -1.1104 6.55003 5.62038 0.995827
57 1 -1.1104 6.51743 8.35016 1.13733
9564 2 2.2208 13.5918 4.22124 10.6739
78 1 -1.1104 3.80113 11.1193 6.52155
62 1 -1.1104 1.04521 11.3274 6.60722
236 1 -1.1104 0.987895 5.60488 6.63391
239 1 -1.1104 3.78685 5.52793 6.52822
26 2 2.2208 10.8022 18.2631 10.7619
344 2 2.2208 2.27107 9.73945 -0.484531
64 1 -1.1104 6.56326 11.1579 0.931052
59 1 -1.1104 6.43636 8.55368 3.86833
84 2 2.2208 10.7909 6.99927 5.27183
85 2 2.2208 10.5671 12.7033 5.2739
86 1 -1.1104 12.1648 8.23293 0.919932
87 1 -1.1104 12.1822 8.44767 3.69519
88 1 -1.1104 12.0161 5.49561 1.05793
89 1 -1.1104 12.2362 11.1299 0.92277
91 2 2.2208 10.7732 9.75259 2.45204
92 1 -1.1104 12.1218 5.67539 3.78234
93 1 -1.1104 11.9748 11.1898 3.67213
94 1 -1.1104 9.37039 8.45971 1.00042
95 2 2.2208 7.997 6.99882 2.41566
96 2 2.2208 7.88503 12.7109 2.30116
97 1 -1.1104 9.29749 8.36491 3.83167
98 2 2.2208 7.91657 9.86259 5.19253
99 1 -1.1104 9.33429 5.78761 0.923319
100 1 -1.1104 9.34522 11.2407 1.00171
102 1 -1.1104 9.22498 5.4617 3.8439
103 1 -1.1104 9.30836 11.1125 3.82342
101 1 -1.1104 9.30743 11.3131 6.54126
266 1 -1.1104 12.3167 5.7161 6.59071
267 1 -1.1104 9.31691 8.46285 6.43969
265 1 -1.1104 12.1529 8.52257 6.66
235 1 -1.1104 6.7033 8.41121 6.6557
269 1 -1.1104 9.3316 5.69466 6.63979
9625 2 2.2208 13.5624 7.06 2.43662
25 2 2.2208 13.5519 18.2131 7.94212
105 1 -1.1104 9.50864 13.9902 12.1653
106 2 2.2208 5.30388 18.303 5.28445
107 1 -1.1104 0.921307 14.0061 0.933432
109 1 -1.1104 0.849845 19.6827 1.01622
113 1 -1.1104 0.81856 13.8808 3.72523
114 1 -1.1104 0.891297 19.6622 3.82046
116 1 -1.1104 0.962605 16.8243 0.992804
119 2 2.2208 5.14319 15.4797 2.22391
120 2 2.2208 5.21817 21.046 2.45648
121 1 -1.1104 0.87562 16.8663 3.71951
123 1 -1.1104 3.77747 14.0731 1.12898
125 1 -1.1104 3.70392 19.6568 1.05912
127 2 2.2208 2.30066 18.2349 2.51426
128 1 -1.1104 3.68952 13.9874 3.80301
129 1 -1.1104 3.70425 19.6284 3.80175
130 2 2.2208 2.40052 15.3597 5.16626
131 2 2.2208 2.33678 21.0126 5.23067
132 1 -1.1104 3.78159 16.9508 1.05997
134 1 -1.1104 3.73776 16.7834 3.79406
49 1 -1.1104 12.2307 19.5659 12.0929
138 1 -1.1104 6.55225 19.834 0.983605
110 1 -1.1104 6.5904 14.0912 1.00686
122 1 -1.1104 6.55156 16.8229 3.70988
140 1 -1.1104 6.69734 17.058 0.962288
111 1 -1.1104 6.62176 14.1097 6.56134
124 1 -1.1104 3.79739 14.1038 6.55008
133 1 -1.1104 3.65473 16.9681 6.59787
117 1 -1.1104 0.934308 16.7358 6.72683
108 1 -1.1104 0.953046 14.1561 6.51409
118 1 -1.1104 6.47437 16.703 6.51284
154 1 -1.1104 9.30067 14.0752 6.81657
139 1 -1.1104 6.57245 19.6386 3.88715
115 1 -1.1104 6.50838 14.0557 3.80255
141 2 2.2208 10.7376 18.1692 5.19715
142 1 -1.1104 12.2777 14.0166 1.02961
144 1 -1.1104 12.147 19.5829 0.932734
146 1 -1.1104 12.1447 14.0141 3.78288
147 1 -1.1104 12.2251 19.6179 3.69514
148 1 -1.1104 12.1993 16.7355 0.89006
150 2 2.2208 10.7918 15.409 2.37087
151 2 2.2208 10.8016 21.0023 2.34097
152 1 -1.1104 12.1188 16.8207 3.75432
153 1 -1.1104 9.26169 14.1685 1.09171
155 1 -1.1104 9.39126 19.6116 0.842967
157 2 2.2208 8.0174 18.2744 2.45739
158 1 -1.1104 9.29919 14.1325 3.98216
159 1 -1.1104 9.43146 19.6424 3.87562
160 2 2.2208 7.93206 15.449 5.21956
161 2 2.2208 7.93209 21.0459 5.20936
162 1 -1.1104 9.45526 16.9651 0.919403
164 1 -1.1104 9.43135 16.9193 3.72427
149 1 -1.1104 12.2215 16.7676 6.62538
163 1 -1.1104 9.3056 16.8651 6.70008
145 1 -1.1104 12.0781 19.5468 6.51735
29 2 2.2208 13.5245 21.0526 5.09958
112 1 -1.1104 6.60961 19.6297 6.66524
143 1 -1.1104 12.0596 13.9785 6.51162
156 1 -1.1104 9.27996 19.6631 6.62152
104 1 -1.1104 12.1283 16.7151 9.4206
27 1 -1.1104 12.173 14.0537 12.381
167 1 -1.1104 0.947433 2.87345 6.59216
9431 2 2.2208 13.4801 -1.44668 10.8197
172 1 -1.1104 3.65374 -2.76705 6.62237
169 1 -1.1104 6.49806 2.86368 6.53474
9732 2 2.2208 13.4899 12.5544 2.39602
168 1 -1.1104 6.60751 -2.59339 6.57405
173 1 -1.1104 3.66613 2.75387 6.57082
175 2 2.2208 5.08737 1.37911 10.8472
176 1 -1.1104 0.974622 -2.91876 12.1018
177 1 -1.1104 0.869831 2.95454 12.2473
180 1 -1.1104 1.04468 -2.7711 9.33024
181 1 -1.1104 0.830199 2.72346 9.50865
184 1 -1.1104 0.942609 -0.0345244 12.2714
186 2 2.2208 5.17079 -1.40674 7.96569
187 2 2.2208 5.10943 4.04513 7.94444
188 1 -1.1104 0.806582 -0.0988971 9.38684
190 1 -1.1104 3.69704 -2.57535 12.2089
191 1 -1.1104 3.78952 2.7018 12.1642
192 2 2.2208 2.17813 1.38385 7.92284
193 1 -1.1104 3.79202 -2.78448 9.44876
194 1 -1.1104 3.69694 2.86392 9.44872
195 2 2.2208 2.2999 -1.26882 10.8242
197 1 -1.1104 3.73531 -0.0271121 12.3159
198 1 -1.1104 3.68631 -0.0726216 9.4349
196 2 2.2208 2.34418 4.30469 10.8502
288 1 -1.1104 6.30371 19.6558 9.43857
229 2 2.2208 7.8341 21.0916 10.6999
185 1 -1.1104 6.58029 -0.193899 12.2853
178 1 -1.1104 6.49879 -2.97698 12.3544
182 1 -1.1104 6.38958 -2.78664 9.39071
289 1 -1.1104 6.38745 16.6257 9.58484
311 2 2.2208 5.14605 4.12842 13.5465
209 1 -1.1104 9.53447 2.86391 6.78403
205 1 -1.1104 12.1364 -2.9433 6.69787
324 2 2.2208 5.10816 20.9619 13.6179
53 1 -1.1104 12.25 19.4983 9.23633
200 1 -1.1104 9.40617 14.0811 9.43911
183 1 -1.1104 6.56583 2.82213 9.37516
179 1 -1.1104 6.44993 2.73259 12.1484
9456 2 2.2208 13.4966 1.54403 7.92368
210 1 -1.1104 9.63335 0.158278 6.5796
189 1 -1.1104 6.58125 0.0294576 9.4737
211 2 2.2208 10.7204 1.36028 10.8114
212 1 -1.1104 12.3162 -2.8659 12.2916
213 1 -1.1104 12.226 2.71699 12.2345
214 1 -1.1104 12.0472 -2.77113 9.46891
215 1 -1.1104 12.1057 2.87803 9.34052
216 1 -1.1104 12.1871 -0.193021 12.2142
217 2 2.2208 10.7708 -1.39844 7.94476
218 2 2.2208 10.7661 4.27311 8.12813
219 1 -1.1104 12.1647 0.0244348 9.448
220 1 -1.1104 9.38022 -2.72833 12.2002
221 1 -1.1104 9.40838 2.83021 12.2661
222 2 2.2208 7.97865 1.42839 8.08301
223 1 -1.1104 9.27276 -2.84372 9.4548
224 1 -1.1104 9.38484 2.7725 9.49997
225 2 2.2208 7.94758 -1.3607 10.9186
227 1 -1.1104 9.38262 0.0578409 12.2048
228 1 -1.1104 9.34126 -0.0487716 9.39247
226 2 2.2208 7.92304 4.19189 10.8613
314 2 2.2208 7.98958 1.31039 13.6429
234 1 -1.1104 1.00669 8.5014 6.69659
240 2 2.2208 5.19688 6.92606 10.8342
241 2 2.2208 5.09035 12.6782 10.8343
242 1 -1.1104 1.11605 8.44658 12.1417
244 1 -1.1104 0.928789 8.37878 9.54655
246 1 -1.1104 1.05792 5.65634 12.277
247 1 -1.1104 1.02644 11.305 12.1157
250 2 2.2208 5.21951 9.83215 8.09892
251 1 -1.1104 0.973758 5.73157 9.43899
252 1 -1.1104 0.890929 11.0674 9.48482
255 1 -1.1104 3.84085 8.43401 12.23
256 2 2.2208 2.3 7.06174 7.89205
257 2 2.2208 2.3042 12.62 8.06452
258 1 -1.1104 3.69431 8.40762 9.31286
259 2 2.2208 2.44104 9.75417 10.8969
260 1 -1.1104 3.69661 5.54203 12.3421
261 1 -1.1104 3.6869 11.2332 12.3192
262 1 -1.1104 3.81128 5.59232 9.42199
263 1 -1.1104 3.64391 11.1808 9.44439
245 1 -1.1104 6.49997 8.45023 9.5022
254 1 -1.1104 6.53128 11.2222 9.44884
249 1 -1.1104 6.50697 11.3378 12.2667
243 1 -1.1104 6.51011 8.38051 12.2997
317 2 2.2208 2.54982 7.00873 13.7589
137 1 -1.1104 9.36779 19.7345 12.0477
30 1 -1.1104 9.25746 16.8893 9.43789
9018 2 2.2208 13.4603 -4.21569 7.93915
9727 2 2.2208 13.5847 15.3737 10.6849
237 1 -1.1104 6.57945 5.50453 6.54075
90 1 -1.1104 12.0447 11.2685 6.53539
322 2 2.2208 8.04295 12.6435 13.6552
253 1 -1.1104 6.63557 5.59051 9.35943
9640 2 2.2208 13.6422 6.96818 8.04607
65 1 -1.1104 6.58186 11.272 6.67201
248 1 -1.1104 6.42253 5.58027 12.2541
264 1 -1.1104 9.27171 11.2534 9.37997
268 1 -1.1104 9.23095 5.58428 9.4462
270 1 -1.1104 9.29699 11.158 12.1554
271 1 -1.1104 9.33815 5.61761 12.1694
272 2 2.2208 7.76429 9.84439 10.7886
273 1 -1.1104 9.38283 8.33457 9.26991
274 2 2.2208 7.88829 12.7211 7.99787
275 2 2.2208 7.92416 6.9894 8.02541
276 2 2.2208 10.6328 7.06084 10.8567
277 2 2.2208 10.7681 12.5821 10.9008
278 1 -1.1104 12.0901 8.43472 12.2289
279 1 -1.1104 12.0918 8.4094 9.44027
280 1 -1.1104 12.112 5.55956 12.3608
281 1 -1.1104 12.0262 11.2626 12.3174
282 2 2.2208 10.7238 9.76538 8.03549
283 1 -1.1104 12.0838 5.635 9.4626
284 1 -1.1104 12.1272 11.0684 9.48954
285 1 -1.1104 9.32551 8.43715 12.2675
320 2 2.2208 7.91209 7.08076 13.6698
83 2 2.2208 10.6394 20.9725 7.95896
302 1 -1.1104 0.810744 19.713 6.61931
204 2 2.2208 8.01141 15.3847 10.7926
290 1 -1.1104 6.59762 13.9459 9.26432
201 1 -1.1104 9.25932 19.7521 9.39515
126 1 -1.1104 3.83581 19.6174 6.59815
81 1 -1.1104 12.2787 16.8183 12.1686
202 2 2.2208 2.35316 15.4185 10.7911
203 2 2.2208 2.2911 21.0361 10.7166
231 1 -1.1104 3.78288 16.7262 12.2089
232 1 -1.1104 0.912249 16.7046 12.2721
286 1 -1.1104 3.65677 19.6221 12.1398
287 1 -1.1104 3.80598 13.9873 12.2066
291 1 -1.1104 0.860181 19.4936 9.42549
292 1 -1.1104 1.0259 16.8212 9.50588
293 2 2.2208 5.09327 21.1126 7.92507
294 1 -1.1104 0.933587 13.9987 9.45557
295 2 2.2208 5.04332 15.48 7.91676
298 1 -1.1104 0.928956 19.5215 12.201
299 1 -1.1104 0.938934 13.9641 12.1367
300 2 2.2208 5.16462 18.1881 10.7853
301 1 -1.1104 3.58875 19.6588 9.3756
303 2 2.2208 2.31726 18.2941 7.91447
304 1 -1.1104 3.77988 16.7692 9.50788
305 1 -1.1104 3.78203 14.0451 9.28846
297 1 -1.1104 6.56665 13.9653 12.2245
296 1 -1.1104 6.56838 19.5545 12.1365
233 1 -1.1104 6.55082 16.7952 12.2901
230 1 -1.1104 9.3353 16.922 12.07
199 2 2.2208 7.74077 18.0785 8.17833
50 1 -1.1104 12.101 13.8838 9.44578
82 2 2.2208 10.7133 15.4543 7.9671
9726 2 2.2208 -0.515764 -1.50108 2.3516
315 2 2.2208 10.8019 -1.3844 13.6133
28 2 2.2208 13.5791 20.9941 10.86
9645 2 2.2208 13.5979 9.79018 10.9631
9767 2 2.2208 -0.516519 15.4263 13.5072
309 2 2.2208 5.07391 -1.44139 13.6138
323 2 2.2208 2.29111 18.1454 13.5516
9029 2 2.2208 2.33531 -4.18819 13.5992
307 2 2.2208 13.6149 15.4951 -0.482219
325 2 2.2208 5.0985 15.3779 13.5558
318 2 2.2208 5.22271 9.91696 13.6858
319 2 2.2208 2.31803 12.7271 13.5989
310 2 2.2208 2.36254 1.416 13.6595
337 2 2.2208 10.8381 1.48027 -0.439617
339 2 2.2208 7.98 4.3389 -0.448614
335 2 2.2208 10.7522 7.00645 -0.399237
313 2 2.2208 10.7168 18.2638 -0.506835
9750 2 2.2208 13.5374 6.99084 13.8033
346 2 2.2208 5.26316 1.43645 16.4667
347 1 -1.1104 0.944319 -2.73551 17.754
348 1 -1.1104 1.11759 2.68707 17.8849
351 1 -1.1104 0.886724 -2.94759 15.0131
353 1 -1.1104 1.00882 2.69204 15.0765
359 1 -1.1104 1.0048 -0.0267727 17.8685
361 2 2.2208 5.08475 -1.39339 19.1802
362 2 2.2208 5.1914 4.11946 19.2051
363 1 -1.1104 0.94325 -0.00343698 15.0786
367 1 -1.1104 3.57496 -2.93444 17.8303
368 1 -1.1104 3.84159 2.75877 17.7617
369 2 2.2208 2.4579 1.32444 19.2628
370 1 -1.1104 3.66561 -2.70072 15.0083
372 1 -1.1104 3.842 2.83903 15.0718
374 2 2.2208 2.30858 -1.48052 16.3817
375 2 2.2208 2.36306 4.07982 16.4348
376 1 -1.1104 3.8328 -0.0515524 17.8257
377 1 -1.1104 3.83411 0.144486 15.058
364 1 -1.1104 0.998063 -0.0285596 20.5725
357 1 -1.1104 6.75207 2.68993 14.9456
360 1 -1.1104 6.72247 -0.00572814 17.8507
366 1 -1.1104 6.56656 0.0427146 20.7135
17545 2 2.2208 13.4873 -4.24907 24.8361
373 1 -1.1104 3.79744 2.87651 20.6153
9136 2 2.2208 10.7773 -4.29221 16.4263
350 1 -1.1104 6.63605 2.79617 17.8744
365 1 -1.1104 6.57964 -0.00253673 15.0529
355 1 -1.1104 6.51687 -2.83963 15.1807
349 1 -1.1104 6.49522 -2.73816 17.8003
389 2 2.2208 10.7602 1.23536 16.4219
390 1 -1.1104 12.2207 -2.74157 17.9958
391 1 -1.1104 12.3196 2.76739 17.8043
392 1 -1.1104 12.0829 -3.0703 15.0695
394 1 -1.1104 12.2711 2.80866 14.9376
396 1 -1.1104 12.1292 0.0172927 17.8226
397 2 2.2208 10.7781 -1.4603 19.284
398 2 2.2208 10.732 4.18635 19.0975
399 1 -1.1104 12.2017 -0.0699748 14.9447
401 1 -1.1104 9.4064 -2.83171 17.755
402 1 -1.1104 9.44525 2.74787 17.6787
403 2 2.2208 8.12727 1.32683 19.1927
404 1 -1.1104 9.3378 -2.94315 15.0226
406 1 -1.1104 9.45703 2.70924 14.9553
408 2 2.2208 7.98404 -1.44378 16.4401
409 2 2.2208 8.01856 4.12921 16.2503
410 1 -1.1104 9.36718 0.000928248 17.9039
411 1 -1.1104 9.43611 -0.0728788 15.0243
412 1 -1.1104 9.35219 -0.135274 20.6274
393 1 -1.1104 11.9746 -2.84081 20.7475
400 1 -1.1104 12.0778 0.0404012 20.6339
9100 2 2.2208 2.37919 -4.23553 24.9188
9812 2 2.2208 13.6097 4.19569 16.4113
9102 2 2.2208 7.85737 -4.1622 19.2185
356 1 -1.1104 6.47498 -2.83447 20.5437
405 1 -1.1104 9.18236 -2.9034 20.6112
395 1 -1.1104 12.1702 2.75053 20.6012
9818 2 2.2208 13.6429 1.44445 19.2787
9815 2 2.2208 13.5492 -1.29344 16.3438
9099 2 2.2208 10.6954 -4.30489 22.004
17546 2 2.2208 13.6585 -4.07292 19.1155
422 2 2.2208 5.32342 6.9383 16.3491
423 2 2.2208 5.10713 12.6595 16.4263
424 1 -1.1104 0.924941 8.37741 17.7781
426 1 -1.1104 0.994612 8.42903 15.0334
430 1 -1.1104 1.04716 5.52392 17.7315
431 1 -1.1104 1.03682 11.2794 17.7777
434 2 2.2208 5.17674 9.93457 19.2933
435 1 -1.1104 1.01435 5.67088 14.9955
437 1 -1.1104 0.871039 11.2864 14.9177
443 1 -1.1104 3.85657 8.43786 17.7626
444 2 2.2208 2.41561 6.99307 19.1901
445 2 2.2208 2.24364 12.6814 19.1076
446 1 -1.1104 3.86359 8.49932 15.0252
448 2 2.2208 2.33872 9.78371 16.509
449 1 -1.1104 3.82643 5.51131 17.6771
450 1 -1.1104 3.70023 11.3832 17.7011
451 1 -1.1104 3.77561 5.64653 14.9906
453 1 -1.1104 3.78678 11.2438 14.99
439 1 -1.1104 6.52395 5.50187 15.0221
425 1 -1.1104 6.62158 8.48981 17.8652
441 1 -1.1104 6.69351 11.2997 15.025
452 1 -1.1104 3.72751 5.52026 20.4431
433 1 -1.1104 6.60209 11.3118 17.826
432 1 -1.1104 6.56236 5.59711 17.9164
428 1 -1.1104 6.58017 8.45444 15.0458
440 1 -1.1104 6.54302 5.51807 20.6926
454 1 -1.1104 3.68426 11.409 20.5306
438 1 -1.1104 0.949658 11.1253 20.5963
436 1 -1.1104 1.01041 5.64368 20.6042
336 2 2.2208 8.02158 20.998 27.6486
9137 2 2.2208 2.25724 -4.17884 19.2305
9888 2 2.2208 13.5808 12.5161 19.3238
458 2 2.2208 10.7976 6.99797 16.5006
459 2 2.2208 10.8591 12.6926 16.2849
460 1 -1.1104 12.1561 8.52789 17.8739
461 1 -1.1104 12.1914 8.33228 15.0172
463 1 -1.1104 12.0364 5.65049 17.81
464 1 -1.1104 12.1726 11.2548 17.8912
465 2 2.2208 10.6737 9.76755 19.3094
466 1 -1.1104 11.9841 5.57899 15.1358
468 1 -1.1104 12.1388 11.2786 14.9298
470 1 -1.1104 9.42939 8.40673 17.856
471 2 2.2208 8.01263 6.95954 19.281
472 2 2.2208 7.97828 12.6329 19.1554
473 1 -1.1104 9.54106 8.27106 14.9472
475 2 2.2208 8.03025 9.84611 16.4996
476 1 -1.1104 9.20952 5.58476 17.7769
477 1 -1.1104 9.41419 11.2668 17.8074
478 1 -1.1104 9.32695 5.58174 15.0062
480 1 -1.1104 9.53309 11.1146 15.1447
462 1 -1.1104 12.2929 8.40422 20.6129
9098 2 2.2208 7.92266 -4.26751 24.8049
382 2 2.2208 13.5884 18.3746 24.861
9998 2 2.2208 -0.563537 15.4852 19.1766
485 2 2.2208 5.04356 18.2237 16.2856
486 1 -1.1104 0.684565 14.1652 17.6624
487 1 -1.1104 0.725749 19.4839 17.7548
490 1 -1.1104 0.8531 14.1134 15.0319
492 1 -1.1104 0.776676 19.6945 14.8823
498 1 -1.1104 0.720192 16.7817 17.7674
500 2 2.2208 4.99572 15.5619 19.2606
501 2 2.2208 5.21039 21.0925 19.1697
502 1 -1.1104 0.847107 16.9227 14.969
506 1 -1.1104 3.54329 14.0349 17.7588
507 1 -1.1104 3.72868 19.6113 17.6835
508 2 2.2208 2.16838 18.2894 19.1438
509 1 -1.1104 3.68039 13.9965 14.9235
511 1 -1.1104 3.68961 19.5537 14.9465
513 2 2.2208 2.16986 15.439 16.4299
514 2 2.2208 2.36228 20.9642 16.4052
515 1 -1.1104 3.53496 16.7664 17.8161
516 1 -1.1104 3.64424 16.7656 14.835
512 1 -1.1104 3.4378 19.8105 20.4756
497 1 -1.1104 6.5113 19.6988 20.6547
499 1 -1.1104 6.44285 16.9207 17.7395
496 1 -1.1104 6.46771 19.7145 15.0874
489 1 -1.1104 6.6443 19.6706 17.9526
494 1 -1.1104 6.5743 13.9893 15.0374
517 1 -1.1104 3.66614 17.0482 20.5088
493 1 -1.1104 0.814686 19.5723 20.596
491 1 -1.1104 0.941691 14.0829 20.3502
503 1 -1.1104 0.953837 16.9069 20.599
495 1 -1.1104 6.53828 14.0829 20.6428
488 1 -1.1104 6.31803 14.035 17.8409
504 1 -1.1104 6.59073 16.7957 14.9481
521 2 2.2208 10.6698 18.1552 16.376
522 1 -1.1104 12.081 14.1173 18.0065
523 1 -1.1104 12.0699 19.6909 17.8279
524 1 -1.1104 12.327 14.0443 15.2483
526 1 -1.1104 12.0909 19.4545 14.9005
528 1 -1.1104 12.1361 16.8845 17.864
529 2 2.2208 10.7724 15.4109 19.2808
530 2 2.2208 10.7731 21.0942 19.3601
531 1 -1.1104 12.1283 16.733 15.08
533 1 -1.1104 9.17502 13.9575 17.7165
534 1 -1.1104 9.3186 19.6402 17.7141
535 2 2.2208 8.01901 18.388 19.2713
536 1 -1.1104 9.44165 14.1395 15.0226
538 1 -1.1104 9.36082 19.4681 14.8623
540 2 2.2208 7.96175 15.3825 16.466
541 2 2.2208 7.99232 21.0766 16.386
542 1 -1.1104 9.48768 16.7621 17.9772
543 1 -1.1104 9.23759 16.7779 14.9654
381 2 2.2208 -0.634267 18.232 16.2846
537 1 -1.1104 9.45669 14.0867 20.5614
9958 2 2.2208 13.5242 18.2045 19.1959
385 2 2.2208 13.4511 21.1623 16.4318
539 1 -1.1104 9.51515 19.7325 20.7729
525 1 -1.1104 12.143 14.0388 20.6333
527 1 -1.1104 12.412 19.643 20.4935
532 1 -1.1104 12.0991 16.7917 20.6807
544 1 -1.1104 9.38684 16.8592 20.7239
414 2 2.2208 13.4584 15.4205 16.5555
371 1 -1.1104 3.70737 -2.77827 20.7475
352 1 -1.1104 0.858573 -2.77768 20.6393
358 1 -1.1104 6.55283 2.62071 20.7116
413 2 2.2208 13.6171 21.0913 21.9569
520 1 -1.1104 6.36648 16.8985 26.1584
354 1 -1.1104 0.895182 2.79598 20.6565
378 1 -1.1104 3.67952 0.023907 20.5437
549 2 2.2208 5.16599 1.43 21.9682
550 1 -1.1104 0.982175 -2.73716 23.4695
551 1 -1.1104 1.06337 2.71838 23.3523
554 1 -1.1104 0.948566 -2.8746 26.24
555 1 -1.1104 0.932274 2.68421 26.1406
558 1 -1.1104 1.03221 -0.0927377 23.4047
560 2 2.2208 5.20992 -1.3721 24.8187
561 2 2.2208 5.09711 4.14576 24.7952
562 1 -1.1104 1.14433 -0.130025 26.3163
564 1 -1.1104 3.93906 -2.84417 23.5737
565 1 -1.1104 3.71518 2.73262 23.3093
566 2 2.2208 2.42571 1.25152 24.749
567 1 -1.1104 3.75403 -2.88266 26.2375
568 1 -1.1104 3.83301 2.79731 26.1577
569 2 2.2208 2.35639 -1.40377 21.9358
570 2 2.2208 2.32049 4.15433 21.9744
571 1 -1.1104 3.7518 0.0197396 23.3984
572 1 -1.1104 3.9486 -0.0551441 26.1581
557 1 -1.1104 6.58384 2.82672 26.1728
553 1 -1.1104 6.53357 2.81448 23.3576
559 1 -1.1104 6.49552 0.0638514 23.4633
556 1 -1.1104 6.53021 -2.79606 26.275
552 1 -1.1104 6.51698 -2.64679 23.3275
9997 2 2.2208 -0.593286 21.0183 19.2629
407 1 -1.1104 9.36569 2.74117 20.5402
379 2 2.2208 13.459 15.4393 22.0052
9856 2 2.2208 13.5484 -1.4855 22.0005
10019 2 2.2208 13.5697 4.16031 21.9902
563 1 -1.1104 6.72867 0.156724 26.2078
585 2 2.2208 10.6731 1.38434 21.9748
586 1 -1.1104 12.1407 -3.01005 23.4231
587 1 -1.1104 12.1715 2.69643 23.3443
588 1 -1.1104 12.1376 -2.68663 26.1897
589 1 -1.1104 12.2731 2.81779 26.1444
590 1 -1.1104 12.259 -0.0605775 23.435
591 2 2.2208 10.6532 -1.47371 24.7926
592 2 2.2208 10.7741 4.12836 24.7134
593 1 -1.1104 12.1207 0.0836816 26.2285
594 1 -1.1104 9.24895 -2.88639 23.45
595 1 -1.1104 9.37526 2.73695 23.3609
596 2 2.2208 7.87926 1.39313 24.8095
597 1 -1.1104 9.28517 -2.78233 26.2514
598 1 -1.1104 9.35307 2.87277 26.2578
599 2 2.2208 7.88087 -1.38141 22.0114
600 2 2.2208 7.88862 4.12193 21.9916
601 1 -1.1104 9.26463 -0.107891 23.4651
602 1 -1.1104 9.44412 -0.0254032 26.2821
579 1 -1.1104 9.25934 16.7501 26.1668
9777 2 2.2208 13.5114 4.22584 27.6071
9816 2 2.2208 -0.390428 -1.4112 19.1518
10034 2 2.2208 13.5266 1.37077 24.7154
338 2 2.2208 8.10427 -1.43073 27.682
427 1 -1.1104 0.845128 8.3971 20.45
447 1 -1.1104 3.76876 8.58162 20.4748
614 2 2.2208 5.12212 7.15319 22.0102
615 2 2.2208 5.23202 12.6751 22.0832
616 1 -1.1104 0.905398 8.41936 23.3061
618 1 -1.1104 0.979436 8.41081 26.0545
620 1 -1.1104 1.02318 5.55285 23.3696
621 1 -1.1104 0.951437 11.2125 23.5256
624 2 2.2208 5.29491 9.81211 24.7863
625 1 -1.1104 1.08102 5.50987 26.2499
626 1 -1.1104 1.01804 11.2167 26.2419
629 1 -1.1104 3.75587 8.46507 23.3665
630 2 2.2208 2.33153 6.91764 24.6957
631 2 2.2208 2.43211 12.5768 24.8305
632 1 -1.1104 3.76586 8.36421 26.136
633 2 2.2208 2.32062 9.91256 22.0316
634 1 -1.1104 3.72376 5.65907 23.2451
635 1 -1.1104 3.89346 11.2126 23.4179
636 1 -1.1104 3.75541 5.59265 26.1474
637 1 -1.1104 3.81485 11.1017 26.1823
623 1 -1.1104 6.59885 11.3166 23.4225
622 1 -1.1104 6.4696 5.71786 23.4581
627 1 -1.1104 6.54127 5.6026 26.1493
617 1 -1.1104 6.5775 8.49802 23.4752
619 1 -1.1104 6.70583 8.35318 26.2591
341 2 2.2208 5.10845 18.3623 27.6341
429 1 -1.1104 6.66567 8.54338 20.5958
467 1 -1.1104 12.2647 5.53404 20.6038
469 1 -1.1104 11.9907 11.206 20.6993
10078 2 2.2208 13.6177 9.81556 22.1216
628 1 -1.1104 6.79786 11.1827 26.2156
481 1 -1.1104 9.30982 11.2125 20.7438
442 1 -1.1104 6.52072 11.2328 20.5754
479 1 -1.1104 9.47392 5.50731 20.6174
474 1 -1.1104 9.39888 8.34336 20.4427
575 1 -1.1104 9.38538 8.29773 23.3514
576 1 -1.1104 12.3213 11.3787 26.1933
603 1 -1.1104 12.2004 5.71763 26.1048
604 2 2.2208 10.8092 9.88881 24.7517
605 1 -1.1104 12.0858 11.4935 23.3929
607 1 -1.1104 12.1231 5.53133 23.376
608 1 -1.1104 12.146 8.53679 26.167
609 1 -1.1104 12.1559 8.46435 23.3898
638 2 2.2208 10.6798 12.7036 21.9902
639 2 2.2208 10.8848 6.95974 22.0996
640 2 2.2208 8.03037 6.99705 24.7465
645 1 -1.1104 9.54926 11.2479 26.2523
646 1 -1.1104 9.47502 5.59494 26.0716
647 1 -1.1104 9.38053 11.2259 23.3755
648 1 -1.1104 9.39194 5.49572 23.4045
649 2 2.2208 8.03129 9.88157 22.036
650 1 -1.1104 9.40424 8.36591 26.1714
651 2 2.2208 8.10843 12.6051 24.8748
9854 2 2.2208 13.4761 12.7108 24.9125
9852 2 2.2208 13.5538 7.03383 24.8215
333 2 2.2208 10.8279 12.62 27.7492
334 2 2.2208 7.97617 9.70358 27.5686
9744 2 2.2208 13.5248 9.80803 27.6107
581 1 -1.1104 11.9778 14.0837 23.3667
505 1 -1.1104 6.60334 16.9008 20.6547
643 1 -1.1104 6.61168 19.6667 26.28
510 1 -1.1104 3.68103 14.1431 20.6136
380 2 2.2208 2.28896 15.544 21.96
383 2 2.2208 2.34175 21.0335 22.0168
384 1 -1.1104 3.52088 17.0289 23.2826
386 1 -1.1104 0.958116 16.8699 23.3588
388 1 -1.1104 3.78506 13.9397 26.2516
417 1 -1.1104 3.66719 16.8476 26.2149
418 2 2.2208 2.48126 18.3802 24.8514
419 1 -1.1104 3.96741 19.7425 26.2662
420 2 2.2208 5.06972 18.2674 21.933
421 1 -1.1104 0.961366 14.0775 23.4199
455 1 -1.1104 1.01982 19.6815 23.5153
457 2 2.2208 5.13507 15.395 24.7642
482 2 2.2208 5.23831 21.1519 24.8189
484 1 -1.1104 0.865198 14.0236 26.2845
518 1 -1.1104 0.940226 16.9988 26.1852
519 1 -1.1104 1.09785 19.7865 26.1608
545 1 -1.1104 3.61596 14.0481 23.5239
547 1 -1.1104 3.90736 19.7128 23.4064
456 1 -1.1104 6.64863 14.1583 23.5207
546 1 -1.1104 6.64855 14.0353 26.2458
342 2 2.2208 2.37845 21.0458 27.5985
387 1 -1.1104 6.28542 16.8324 23.4299
583 1 -1.1104 12.2238 14.0193 26.2555
611 2 2.2208 10.8123 21.0115 24.8483
574 1 -1.1104 9.40971 19.6576 26.1264
612 1 -1.1104 12.0827 16.8785 26.1402
483 1 -1.1104 6.67941 19.7288 23.5278
606 1 -1.1104 12.1263 16.7526 23.5423
644 1 -1.1104 9.41091 14.109 26.2652
577 2 2.2208 10.8091 18.2295 22.0583
610 2 2.2208 10.6099 15.4532 24.7877
573 2 2.2208 7.83558 15.4446 21.9641
582 1 -1.1104 12.2157 19.6984 23.3566
642 2 2.2208 7.85011 18.16 24.8734
641 1 -1.1104 9.38455 19.5092 23.3226
343 2 2.2208 5.06636 6.98759 27.5937
613 1 -1.1104 9.27746 13.9215 23.2934
584 1 -1.1104 12.2409 19.7576 26.1376
548 2 2.2208 8.05274 20.9916 22.1043
580 1 -1.1104 9.21357 16.7749 23.378
329 2 2.2208 13.7551 18.2333 13.5365
327 2 2.2208 10.799 15.5581 13.6169
331 2 2.2208 2.44441 -1.54204 27.6376
340 2 2.2208 2.37717 15.3324 27.6301
332 2 2.2208 2.37338 4.14351 27.6099
308 2 2.2208 13.5236 21.0935 27.6137
345 2 2.2208 5.21049 12.5891 27.5749
328 2 2.2208 7.92546 18.2457 13.4816
330 2 2.2208 5.19691 1.47209 27.7013
326 2 2.2208 10.7006 20.9109 13.5764
9753 2 2.2208 13.4796 12.6661 13.6318
312 2 2.2208 7.88578 15.4842 27.6304
9022 2 2.2208 10.7009 -4.28796 27.6716
17467 2 2.2208 13.5814 -4.29721 13.5794
321 2 2.2208 10.8281 9.77269 13.614
9741 2 2.2208 13.7085 1.31525 13.5836
316 2 2.2208 10.8482 4.18612 13.6754
652 2 2.2208 5.03964 23.8658 5.24623
653 2 2.2208 5.13947 29.4519 5.20916
654 1 -1.1104 0.919083 25.2598 0.949172
655 1 -1.1104 0.886431 25.1735 3.79442
656 1 -1.1104 0.825864 22.4656 0.996222
657 1 -1.1104 0.824599 28.1518 1.1123
658 2 2.2208 5.05581 26.6346 2.46041
659 1 -1.1104 1.00178 22.3346 3.87935
660 1 -1.1104 0.89456 28.3164 3.85036
661 1 -1.1104 3.67824 25.2438 0.88762
662 2 2.2208 2.31114 23.8121 2.33964
663 2 2.2208 2.32244 29.5836 2.37761
664 1 -1.1104 3.67759 25.1764 3.74053
665 2 2.2208 2.23076 26.6513 5.11686
666 1 -1.1104 3.72013 22.325 1.05353
667 1 -1.1104 3.81141 28.0896 1.04383
668 1 -1.1104 3.90447 22.4534 3.83834
669 1 -1.1104 3.71947 28.0863 3.68902
796 1 -1.1104 0.782543 28.096 6.52715
676 1 -1.1104 6.69458 28.0207 1.03209
793 1 -1.1104 0.873645 25.2984 6.50542
673 1 -1.1104 6.45954 25.1384 1.00581
674 1 -1.1104 6.59387 25.3817 3.82542
801 1 -1.1104 3.57654 28.2056 6.41689
800 1 -1.1104 3.66822 22.5651 6.59133
797 1 -1.1104 6.43737 22.515 6.57181
941 2 2.2208 -0.429024 43.5057 8.05622
675 1 -1.1104 6.46607 22.4559 1.16894
677 1 -1.1104 6.69425 22.4744 3.84742
678 1 -1.1104 6.53058 28.2119 3.89901
679 2 2.2208 10.7283 23.7757 5.28654
680 2 2.2208 10.7015 29.3987 5.3483
681 1 -1.1104 12.1838 25.2539 0.883282
682 1 -1.1104 12.1875 25.3551 3.80566
683 1 -1.1104 12.221 22.4104 1.03129
684 1 -1.1104 12.1248 27.9961 1.0695
685 2 2.2208 10.6241 26.7071 2.53665
686 1 -1.1104 12.1475 22.5188 3.74106
687 1 -1.1104 12.224 28.0534 3.93063
688 1 -1.1104 9.3611 25.2398 1.08799
689 2 2.2208 7.87513 23.8962 2.49498
690 2 2.2208 7.95858 29.4328 2.45556
691 1 -1.1104 9.23241 25.3169 3.91982
692 2 2.2208 7.87388 26.7676 5.28566
693 1 -1.1104 9.36776 22.4846 0.982199
694 1 -1.1104 9.48517 27.9727 1.0386
695 1 -1.1104 9.40607 22.3288 3.71619
696 1 -1.1104 9.27518 28.1495 3.84559
971 2 2.2208 13.5791 43.464 5.16597
826 1 -1.1104 12.1374 25.1746 6.68883
829 1 -1.1104 9.32235 25.2284 6.62135
831 1 -1.1104 9.21423 27.9417 6.64418
827 1 -1.1104 12.1668 22.4076 6.52023
828 1 -1.1104 12.2097 28.0058 6.70284
972 2 2.2208 13.5521 26.5944 10.7228
698 2 2.2208 13.5132 29.4137 2.45085
1377 1 -1.1104 0.999967 47.6247 3.76411
700 2 2.2208 5.09262 35.1216 5.19366
701 1 -1.1104 1.02141 30.8301 0.919415
702 1 -1.1104 0.820335 36.3427 1.05392
704 1 -1.1104 0.963611 31.0828 3.87702
705 1 -1.1104 0.85159 36.6121 3.93274
707 1 -1.1104 1.07466 33.6025 0.928807
708 2 2.2208 5.25148 32.2965 2.40934
709 2 2.2208 5.25961 37.7745 2.27097
710 1 -1.1104 1.07716 33.9306 3.75994
712 1 -1.1104 3.86562 31.0216 0.977544
713 1 -1.1104 3.84907 36.5463 0.873239
714 2 2.2208 2.38877 35.1405 2.38167
715 1 -1.1104 3.66792 30.742 3.83363
716 1 -1.1104 3.61941 36.5472 3.53521
717 2 2.2208 2.38564 32.2535 5.3794
718 2 2.2208 2.40314 37.9239 5.03426
719 1 -1.1104 3.851 33.7779 0.986282
720 1 -1.1104 3.85721 33.6455 3.93472
725 1 -1.1104 6.57304 30.956 3.84903
858 1 -1.1104 3.68392 33.6705 6.72247
850 1 -1.1104 0.947248 30.9699 6.63684
724 1 -1.1104 6.71648 30.7859 1.11538
726 1 -1.1104 6.62703 33.5378 0.931188
711 1 -1.1104 6.54104 33.5708 3.75883
706 1 -1.1104 6.5417 36.2785 3.71323
1012 2 2.2208 10.8083 43.3185 13.5437
851 1 -1.1104 1.04909 36.4864 6.86261
857 1 -1.1104 3.80524 36.526 6.57314
854 1 -1.1104 0.940977 33.6572 6.4622
945 1 -1.1104 9.2382 39.2673 9.38606
703 1 -1.1104 6.76165 36.4456 1.04102
727 2 2.2208 10.6702 34.9961 5.19268
728 1 -1.1104 12.0641 30.7459 0.940739
729 1 -1.1104 12.2398 36.3901 0.990104
730 1 -1.1104 12.0531 30.778 3.7839
731 1 -1.1104 12.0105 36.3327 3.76895
732 1 -1.1104 12.1412 33.5671 0.913042
733 2 2.2208 10.7008 32.0964 2.5129