ITEM: TIMESTEP
100000
ITEM: NUMBER OF ATOMS
17820
ITEM: BOX BOUNDS pp pp pp
-3.5196627801658259e-01 2.7691966278017240e+01
-4.2876511059134375e+00 3.3236765110592881e+02
-3.5968051311925897e-01 2.7699680513118842e+01
ITEM: ATOMS id type q x y z
1 2 2.2208 5.46119 1.36949 5.35212
2 1 -1.1104 1.29294 -2.90545 1.08394
3 1 -1.1104 1.14724 2.61718 1.19921
6 1 -1.1104 1.16366 -2.86045 3.82319
7 1 -1.1104 1.2781 2.75913 4.04986
10 1 -1.1104 1.21823 -0.0229603 0.984483
12 2 2.2208 5.40851 -1.50306 2.56872
14 1 -1.1104 1.31003 -0.112839 3.86924
16 1 -1.1104 3.9699 -2.92534 1.10516
17 1 -1.1104 3.99291 2.84882 1.19474
18 2 2.2208 2.68988 1.24453 2.52681
19 1 -1.1104 3.86578 -2.95624 3.93961
20 1 -1.1104 4.0123 2.63362 3.98201
21 2 2.2208 2.60466 -1.53532 5.36456
23 1 -1.1104 4.1519 -0.169308 1.12064
24 1 -1.1104 3.99427 -0.21535 3.98354
13 2 2.2208 5.45481 4.13581 2.51509
22 2 2.2208 2.70372 4.02337 5.37241
9728 2 2.2208 -0.102652 1.3229 5.39273
163 1 -1.1104 9.59598 16.7245 6.78719
199 2 2.2208 8.20904 18.1072 8.06158
9726 2 2.2208 -0.122547 -1.5037 2.52894
9729 2 2.2208 -0.18347 4.14682 2.56367
9737 2 2.2208 -0.197795 1.15578 -0.279112
166 1 -1.1104 1.18394 -2.97317 6.66149
331 2 2.2208 2.72329 -1.52579 -0.273936
332 2 2.2208 2.49324 4.02269 -0.16153
8 1 -1.1104 6.64684 -2.89041 4.01334
11 1 -1.1104 6.87866 -0.0983854 1.16553
5 1 -1.1104 6.89403 2.72723 1.19891
9 1 -1.1104 6.67691 2.77819 3.98906
4 1 -1.1104 6.7564 -2.85913 1.17866
15 1 -1.1104 6.80451 -0.039816 4.09224
31 2 2.2208 10.9867 1.1765 5.35935
32 1 -1.1104 12.3382 -2.86829 1.29589
33 1 -1.1104 12.4389 2.69814 1.08876
34 1 -1.1104 12.2817 -2.88865 3.97661
35 1 -1.1104 12.4206 2.68962 3.89613
36 1 -1.1104 12.3079 -0.119951 1.26546
37 2 2.2208 10.859 -1.56205 2.56119
39 1 -1.1104 12.4639 -0.0629474 3.93053
40 1 -1.1104 9.57943 -3.13795 1.32468
41 1 -1.1104 9.55966 2.55942 1.27128
42 2 2.2208 8.22961 1.2771 2.59034
43 1 -1.1104 9.4447 -2.92325 3.98454
44 1 -1.1104 9.56033 2.68863 3.94697
45 2 2.2208 8.08417 -1.42631 5.44255
47 1 -1.1104 9.52983 -0.262516 1.17243
48 1 -1.1104 9.52595 -0.105533 3.9803
38 2 2.2208 11.0178 3.97725 2.51399
46 2 2.2208 8.158 4.04668 5.30653
9013 2 2.2208 10.936 -4.45945 5.31177
9012 2 2.2208 8.17388 -4.33431 2.56547
209 1 -1.1104 9.58465 2.68801 6.59676
210 1 -1.1104 9.5954 -0.0300624 6.77242
339 2 2.2208 8.26046 3.99806 -0.28042
54 2 2.2208 5.40486 6.84789 5.41296
55 2 2.2208 5.45536 12.4879 5.27596
56 1 -1.1104 1.35893 8.31445 1.05157
58 1 -1.1104 1.22185 8.15178 3.95044
60 1 -1.1104 1.10626 5.47207 1.20423
61 1 -1.1104 1.25928 11.0741 1.22457
66 2 2.2208 5.44195 9.66942 2.49191
67 1 -1.1104 1.34343 5.40116 3.96109
68 1 -1.1104 1.22951 11.0592 3.93839
71 1 -1.1104 4.04514 8.31343 1.32669
72 2 2.2208 2.77708 6.80204 2.65174
73 2 2.2208 2.69688 12.6154 2.52866
74 1 -1.1104 4.00728 8.25792 4.02804
75 2 2.2208 2.64186 9.74486 5.3108
76 1 -1.1104 4.00343 5.4734 1.20318
77 1 -1.1104 4.17006 11.0207 1.06757
79 1 -1.1104 4.21885 5.37809 4.02426
80 1 -1.1104 3.99157 11.1294 3.78947
238 1 -1.1104 3.98204 8.50378 6.61645
78 1 -1.1104 4.07719 11.148 6.57292
343 2 2.2208 5.38677 6.89825 -0.216574
9735 2 2.2208 -0.148933 12.5822 5.35548
9733 2 2.2208 -0.193789 6.91435 5.28328
9734 2 2.2208 -0.0233532 9.623 2.53499
9010 2 2.2208 5.26337 -4.3066 5.34443
9768 2 2.2208 -0.135165 6.92702 -0.29059
17465 2 2.2208 -0.258874 -4.315 -0.225656
63 1 -1.1104 6.74929 5.43371 1.05539
64 1 -1.1104 6.83238 10.9494 1.05004
70 1 -1.1104 6.93465 11.1389 3.81139
59 1 -1.1104 6.62943 8.25921 3.92928
57 1 -1.1104 6.83057 8.20242 1.16059
235 1 -1.1104 6.87216 8.22192 6.62666
69 1 -1.1104 6.94302 5.44905 3.90701
84 2 2.2208 11.0823 6.88218 5.26964
85 2 2.2208 11.2441 12.4463 5.4436
86 1 -1.1104 12.4118 8.28335 1.15347
87 1 -1.1104 12.4128 8.279 3.87536
88 1 -1.1104 12.4704 5.42626 1.09583
89 1 -1.1104 12.4812 11.0767 1.10069
91 2 2.2208 11.1329 9.65986 2.42593
92 1 -1.1104 12.3171 5.36399 3.9937
93 1 -1.1104 12.5105 11.0898 3.90627
94 1 -1.1104 9.67409 8.09472 1.15116
95 2 2.2208 8.23449 6.86569 2.50152
96 2 2.2208 8.28217 12.485 2.4355
97 1 -1.1104 9.5356 8.2947 3.96774
98 2 2.2208 8.31191 9.68254 5.33888
99 1 -1.1104 9.61608 5.41949 1.09775
100 1 -1.1104 9.58931 11.0079 1.14138
102 1 -1.1104 9.56354 5.54742 4.01948
103 1 -1.1104 9.72158 11.0105 3.92404
335 2 2.2208 11.0797 6.82658 -0.251273
237 1 -1.1104 6.8877 5.38204 6.79257
49 1 -1.1104 12.3489 19.3637 12.2677
106 2 2.2208 5.39606 18.1292 5.20969
107 1 -1.1104 1.38839 14.0045 1.17978
109 1 -1.1104 1.4344 19.4902 1.16261
113 1 -1.1104 1.31989 13.8471 3.88437
114 1 -1.1104 1.26341 19.4017 3.94574
116 1 -1.1104 1.20087 16.6249 1.19852
119 2 2.2208 5.56063 15.3598 2.52367
120 2 2.2208 5.54619 20.9176 2.41454
121 1 -1.1104 1.32709 16.6735 3.92419
123 1 -1.1104 4.10842 13.9369 1.14674
125 1 -1.1104 4.17976 19.5088 0.952652
127 2 2.2208 2.73388 18.1158 2.43992
128 1 -1.1104 4.12421 13.9361 3.99896
129 1 -1.1104 4.12135 19.5587 3.74646
130 2 2.2208 2.70781 15.3443 5.35093
131 2 2.2208 2.6476 21.0013 5.25983
132 1 -1.1104 4.00794 16.6493 1.15461
134 1 -1.1104 4.16103 16.5945 3.94407
126 1 -1.1104 3.97894 19.4676 6.62476
108 1 -1.1104 1.30405 14.0178 6.70744
135 2 2.2208 -0.183607 15.2107 2.60315
9624 2 2.2208 -0.202968 18.067 5.33329
136 2 2.2208 -0.090134 20.7733 2.57014
340 2 2.2208 2.61831 15.3243 -0.349361
30 1 -1.1104 9.67354 16.6936 9.53023
53 1 -1.1104 12.4673 19.5382 9.52231
137 1 -1.1104 9.54714 19.4653 12.2744
140 1 -1.1104 6.91087 16.7785 1.11088
122 1 -1.1104 6.88448 16.8252 3.94348
138 1 -1.1104 6.92265 19.5773 1.11782
139 1 -1.1104 6.97047 19.4917 3.80239
115 1 -1.1104 6.85596 13.821 3.89979
110 1 -1.1104 6.78013 14.0324 1.0507
141 2 2.2208 11.0883 18.1021 5.33369
142 1 -1.1104 12.5499 13.8891 1.12683
144 1 -1.1104 12.4384 19.4047 1.30025
146 1 -1.1104 12.5145 13.8162 4.13075
147 1 -1.1104 12.5008 19.4245 4.04891
148 1 -1.1104 12.541 16.6234 1.15021
150 2 2.2208 11.1118 15.2342 2.55932
151 2 2.2208 11.1166 20.9024 2.58357
152 1 -1.1104 12.4034 16.6328 3.8867
153 1 -1.1104 9.64213 13.7078 1.13711
155 1 -1.1104 9.62072 19.4066 1.16823
157 2 2.2208 8.40249 18.0353 2.45348
158 1 -1.1104 9.66117 13.8418 3.96141
159 1 -1.1104 9.74613 19.4792 3.91671
160 2 2.2208 8.24195 15.2866 5.39713
161 2 2.2208 8.21767 20.8502 5.36352
162 1 -1.1104 9.83071 16.4733 1.08601
164 1 -1.1104 9.65998 16.6755 3.73619
229 2 2.2208 8.18933 20.9125 10.9588
336 2 2.2208 8.22724 21.0021 -0.135364
118 1 -1.1104 6.93979 16.8233 6.69658
149 1 -1.1104 12.3931 16.6734 6.64645
154 1 -1.1104 9.80034 13.8566 6.72133
143 1 -1.1104 12.5277 13.8494 6.76011
312 2 2.2208 8.39518 15.2974 -0.291358
167 1 -1.1104 1.15744 2.70259 6.89097
170 1 -1.1104 1.27043 -0.082774 6.70912
173 1 -1.1104 4.09457 2.67904 6.76531
174 1 -1.1104 4.08642 -0.147769 6.92193
9457 2 2.2208 -0.265419 1.19481 10.8502
9015 2 2.2208 5.24502 -4.39367 11.0728
172 1 -1.1104 4.01875 -2.80655 6.76896
175 2 2.2208 5.33459 1.22352 11.0055
176 1 -1.1104 1.29455 -3.02279 12.2443
177 1 -1.1104 1.30555 2.65813 12.2017
180 1 -1.1104 1.07896 -2.97863 9.48996
181 1 -1.1104 1.27953 2.69422 9.46167
184 1 -1.1104 1.31786 -0.189286 12.2553
186 2 2.2208 5.35427 -1.53382 8.20299
187 2 2.2208 5.48814 4.05161 8.22913
188 1 -1.1104 1.22808 -0.286666 9.37028
190 1 -1.1104 3.96119 -2.9089 12.4141
191 1 -1.1104 4.02823 2.69081 12.2903
192 2 2.2208 2.62915 1.24824 8.16558
193 1 -1.1104 3.86825 -2.98775 9.6543
194 1 -1.1104 4.0043 2.69137 9.43361
195 2 2.2208 2.52809 -1.57005 10.9297
197 1 -1.1104 4.04812 -0.283576 12.4412
198 1 -1.1104 3.85882 -0.114321 9.64965
196 2 2.2208 2.49647 4.15984 10.9044
9589 2 2.2208 -0.243834 -1.71253 8.05184
17457 2 2.2208 -0.209906 -4.32461 10.8919
9590 2 2.2208 -0.125286 4.2029 8.17897
104 1 -1.1104 12.4925 16.8208 9.42592
9016 2 2.2208 8.04479 -4.4004 8.15616
9017 2 2.2208 11.1195 -4.33682 10.7349
206 1 -1.1104 12.3437 2.70407 6.86659
185 1 -1.1104 6.80481 -0.206403 12.4292
183 1 -1.1104 6.71662 2.6385 9.52914
168 1 -1.1104 6.61108 -2.9232 6.88162
205 1 -1.1104 12.407 -3.02866 6.84418
208 1 -1.1104 9.54436 -2.92823 6.73946
171 1 -1.1104 6.74901 -0.163289 6.82247
179 1 -1.1104 6.77986 2.60431 12.3368
169 1 -1.1104 6.83857 2.59339 6.78754
189 1 -1.1104 6.65745 0.0505472 9.56708
178 1 -1.1104 6.75064 -3.05649 12.3242
182 1 -1.1104 6.7606 -3.10534 9.6046
207 1 -1.1104 12.3491 -0.115185 6.68761
211 2 2.2208 10.9731 1.3345 10.8899
212 1 -1.1104 12.2415 -2.94713 12.2911
213 1 -1.1104 12.5027 2.64765 12.2426
214 1 -1.1104 12.5497 -3.13666 9.50277
215 1 -1.1104 12.3621 2.57486 9.49314
216 1 -1.1104 12.3956 -0.00696957 12.3067
217 2 2.2208 11.1087 -1.57335 8.07653
218 2 2.2208 10.917 4.07553 7.95803
219 1 -1.1104 12.4368 -0.148002 9.58265
220 1 -1.1104 9.47878 -3.04319 12.3539
221 1 -1.1104 9.47916 2.6923 12.3758
222 2 2.2208 8.07675 1.33096 8.21016
223 1 -1.1104 9.72445 -3.01057 9.51962
224 1 -1.1104 9.54007 2.63134 9.46009
225 2 2.2208 8.22365 -1.76171 10.8489
227 1 -1.1104 9.60666 -0.170275 12.2561
228 1 -1.1104 9.56295 -0.192049 9.43355
226 2 2.2208 8.10569 3.99019 10.9433
239 1 -1.1104 4.13676 5.54728 6.75034
234 1 -1.1104 1.20207 8.39958 6.66605
62 1 -1.1104 1.29856 11.1683 6.79184
9659 2 2.2208 -0.37766 7.01212 10.8989
9658 2 2.2208 -0.0331113 9.7076 8.10199
9651 2 2.2208 -0.174058 12.6321 10.9458
236 1 -1.1104 1.2332 5.66066 6.75831
240 2 2.2208 5.35372 6.8961 10.8682
241 2 2.2208 5.29783 12.4408 10.9514
242 1 -1.1104 1.07395 8.32202 12.2463
244 1 -1.1104 1.24365 8.29696 9.50223
246 1 -1.1104 1.14137 5.61381 12.3749
247 1 -1.1104 1.10963 11.1146 12.4847
250 2 2.2208 5.52332 9.69061 8.11742
251 1 -1.1104 1.15807 5.55112 9.4447
252 1 -1.1104 1.2628 11.2112 9.53447
255 1 -1.1104 3.99011 8.22361 12.3538
256 2 2.2208 2.69359 6.95992 8.07796
257 2 2.2208 2.65902 12.4858 8.15451
258 1 -1.1104 4.01004 8.35952 9.48593
259 2 2.2208 2.52515 9.63308 10.9882
260 1 -1.1104 3.97724 5.52712 12.3932
261 1 -1.1104 3.90393 11.0859 12.3339
262 1 -1.1104 4.03846 5.45024 9.49137
263 1 -1.1104 3.97626 10.9526 9.44341
266 1 -1.1104 12.3726 5.46135 6.65953
265 1 -1.1104 12.4555 8.22284 6.71559
248 1 -1.1104 6.75539 5.36388 12.3075
65 1 -1.1104 6.91031 11.1135 6.81696
267 1 -1.1104 9.74577 8.20918 6.80005
243 1 -1.1104 6.75371 8.14149 12.245
254 1 -1.1104 6.72433 11.1276 9.70821
249 1 -1.1104 6.70575 10.8293 12.2575
253 1 -1.1104 6.85763 5.3983 9.56606
245 1 -1.1104 6.8538 8.27576 9.43531
90 1 -1.1104 12.5266 11.0974 6.66203
101 1 -1.1104 9.80488 11.0713 6.83457
269 1 -1.1104 9.55711 5.59494 6.659
264 1 -1.1104 9.64926 11.068 9.53178
268 1 -1.1104 9.61623 5.2233 9.61291
270 1 -1.1104 9.62274 11.1918 12.3731
271 1 -1.1104 9.58475 5.45225 12.3587
272 2 2.2208 8.21019 9.64002 10.9929
273 1 -1.1104 9.52942 8.30777 9.70832
274 2 2.2208 8.36573 12.4885 8.14874
275 2 2.2208 8.23233 6.83143 8.1048
276 2 2.2208 10.8694 6.8307 10.8282
277 2 2.2208 11.0561 12.5296 11.0031
278 1 -1.1104 12.1357 8.26394 12.174
279 1 -1.1104 12.3697 8.28464 9.50357
280 1 -1.1104 12.3429 5.48629 12.116
281 1 -1.1104 12.393 11.1269 12.2678
282 2 2.2208 11.0663 9.68281 8.13135
283 1 -1.1104 12.3521 5.4078 9.36777
284 1 -1.1104 12.4478 11.1523 9.52717
285 1 -1.1104 9.4531 8.30739 12.4294
83 2 2.2208 10.9083 20.8223 8.19522
117 1 -1.1104 1.2671 16.7125 6.56522
124 1 -1.1104 4.0608 13.8756 6.94718
51 2 2.2208 -0.0558552 18.0743 10.9402
52 2 2.2208 -0.237799 21.0733 8.19091
302 1 -1.1104 1.24962 19.4269 6.68192
133 1 -1.1104 3.9904 16.649 6.62202
202 2 2.2208 2.6791 15.2636 10.9397
203 2 2.2208 2.69429 20.8601 10.827
231 1 -1.1104 4.04974 16.668 12.4592
232 1 -1.1104 1.26449 16.7638 12.3422
286 1 -1.1104 4.15335 19.51 12.208
287 1 -1.1104 3.76853 13.7762 12.3807
291 1 -1.1104 1.23861 19.4464 9.5603
292 1 -1.1104 1.31914 16.5798 9.46441
293 2 2.2208 5.51761 20.8654 8.03797
294 1 -1.1104 1.19057 13.8674 9.58921
295 2 2.2208 5.47948 15.2634 8.15709
298 1 -1.1104 1.21089 19.478 12.3345
299 1 -1.1104 1.07451 13.9605 12.409
300 2 2.2208 5.57214 18.1072 10.8574
301 1 -1.1104 4.15344 19.4305 9.31077
303 2 2.2208 2.57879 18.021 7.91129
304 1 -1.1104 4.1706 16.6214 9.5118
305 1 -1.1104 3.93063 13.8207 9.63831
9430 2 2.2208 -0.0527184 15.2127 8.19128
156 1 -1.1104 9.50499 19.4357 6.68657
201 1 -1.1104 9.57791 19.5347 9.49713
82 2 2.2208 11.1063 15.3171 8.17283
200 1 -1.1104 9.66224 13.7904 9.38825
50 1 -1.1104 12.5677 13.8993 9.42788
145 1 -1.1104 12.3271 19.5937 6.73639
27 1 -1.1104 12.4056 13.8654 12.3799
26 2 2.2208 11.011 18.134 10.8515
289 1 -1.1104 6.82684 16.6425 9.53086
297 1 -1.1104 6.75066 13.7269 12.2435
290 1 -1.1104 6.81098 13.8771 9.40387
112 1 -1.1104 6.76782 19.4588 6.77271
111 1 -1.1104 6.93171 13.8135 6.73577
233 1 -1.1104 6.7991 16.6656 12.4313
288 1 -1.1104 6.8671 19.5608 9.50132
296 1 -1.1104 6.86018 19.3866 12.3119
81 1 -1.1104 12.3306 16.615 12.2919
204 2 2.2208 8.21901 15.2729 10.9459
105 1 -1.1104 9.65289 13.8489 12.2857
230 1 -1.1104 9.64228 16.7808 12.3917
310 2 2.2208 2.58874 1.26395 13.7761
311 2 2.2208 5.42088 3.94296 13.6854
309 2 2.2208 5.52679 -1.48082 13.723
9029 2 2.2208 2.66582 -4.29357 13.6682
314 2 2.2208 8.17393 1.17279 13.7245
319 2 2.2208 2.45985 12.5016 13.8091
321 2 2.2208 10.9082 9.78743 13.6061
328 2 2.2208 8.1562 18.0316 13.9407
330 2 2.2208 5.4933 1.34396 -0.300873
9025 2 2.2208 5.50025 -4.38769 -0.377396
337 2 2.2208 10.9562 1.32012 -0.118125
338 2 2.2208 8.05253 -1.55895 -0.25298
334 2 2.2208 8.27096 9.53674 -0.133591
346 2 2.2208 5.43194 1.25276 16.5951
347 1 -1.1104 1.20003 -2.91562 17.9055
348 1 -1.1104 1.27399 2.63433 17.9349
351 1 -1.1104 1.11888 -3.0822 14.9895
353 1 -1.1104 1.11379 2.53847 15.0323
359 1 -1.1104 1.19953 -0.231024 18.1013
361 2 2.2208 5.36968 -1.53499 19.322
362 2 2.2208 5.3652 4.04298 19.2996
363 1 -1.1104 1.24952 -0.189657 15.2049
367 1 -1.1104 4.02676 -2.87042 17.9591
368 1 -1.1104 4.07037 2.73879 17.8989
369 2 2.2208 2.68025 1.23885 19.4035
370 1 -1.1104 3.9041 -2.76667 15.0058
372 1 -1.1104 4.01916 2.63282 15.0219
374 2 2.2208 2.5899 -1.4671 16.5923
375 2 2.2208 2.74744 4.04802 16.496
376 1 -1.1104 3.958 0.00884598 17.9896
377 1 -1.1104 4.15708 -0.0250821 15.2096
9101 2 2.2208 5.37117 -4.27707 22.0942
611 2 2.2208 11.0245 20.7535 24.9689
606 1 -1.1104 12.5714 16.9557 23.7
582 1 -1.1104 12.5479 19.5566 23.6554
354 1 -1.1104 1.1314 2.55322 20.5581
9748 2 2.2208 -0.154911 3.98298 13.5651
9816 2 2.2208 -0.163966 -1.56306 19.3397
9855 2 2.2208 -0.221834 4.10672 19.3219
355 1 -1.1104 6.73225 -2.92518 15.0937
9138 2 2.2208 5.41284 -4.27327 16.5393
364 1 -1.1104 1.16891 -0.172091 20.7409
9853 2 2.2208 -0.194787 1.34936 16.5273
371 1 -1.1104 4.12219 -2.92234 20.8435
483 1 -1.1104 6.95464 19.3108 23.5156
643 1 -1.1104 6.88953 19.44 26.2766
360 1 -1.1104 6.78273 -0.149468 18.0563
365 1 -1.1104 6.93232 -0.187793 15.3631
349 1 -1.1104 6.8535 -3.02533 17.8894
350 1 -1.1104 6.76113 2.54485 17.9387
357 1 -1.1104 6.79094 2.51941 15.2249
9136 2 2.2208 10.9785 -4.3293 16.3763
389 2 2.2208 10.9236 1.14471 16.4972
390 1 -1.1104 12.3191 -2.84372 17.876
391 1 -1.1104 12.3451 2.6079 17.8889
392 1 -1.1104 12.4095 -2.91294 15.2374
394 1 -1.1104 12.3473 2.82057 15.1398
396 1 -1.1104 12.5255 -0.0316892 17.8385
397 2 2.2208 11.0536 -1.42633 19.2621
398 2 2.2208 11.0248 4.1529 19.1099
399 1 -1.1104 12.4201 -0.117875 14.9994
401 1 -1.1104 9.62279 -2.73835 17.8156
402 1 -1.1104 9.61006 2.68111 17.8041
403 2 2.2208 8.26673 1.30081 19.364
404 1 -1.1104 9.54515 -2.9787 15.0163
406 1 -1.1104 9.53594 2.63746 15.1336
408 2 2.2208 8.17278 -1.50862 16.6112
409 2 2.2208 8.25452 4.0085 16.4931
410 1 -1.1104 9.57483 -0.0188684 18.0261
411 1 -1.1104 9.7071 -0.235592 15.1191
315 2 2.2208 10.9697 -1.56775 13.5995
644 1 -1.1104 9.83609 13.8835 26.4693
9102 2 2.2208 8.28803 -4.32919 19.2241
366 1 -1.1104 6.75969 -0.0554491 20.7019
405 1 -1.1104 9.71877 -2.88643 20.7657
393 1 -1.1104 12.4618 -2.91494 20.8334
316 2 2.2208 10.965 4.04402 13.7563
422 2 2.2208 5.56526 6.85269 16.5132
423 2 2.2208 5.47803 12.3606 16.6135
424 1 -1.1104 1.11662 8.26822 17.9063
426 1 -1.1104 1.23915 8.20982 15.0358
430 1 -1.1104 1.19714 5.51864 17.9142
431 1 -1.1104 1.29421 11.2469 18.0564
434 2 2.2208 5.34766 9.58185 19.2569
435 1 -1.1104 1.16232 5.3882 15.1403
437 1 -1.1104 1.11366 10.9799 15.2939
443 1 -1.1104 4.01047 8.34003 17.9275
444 2 2.2208 2.5024 6.80452 19.2357
445 2 2.2208 2.58347 12.4685 19.4013
446 1 -1.1104 4.05591 8.24382 15.1193
448 2 2.2208 2.51604 9.64844 16.4577
449 1 -1.1104 4.06872 5.48369 17.9418
450 1 -1.1104 4.19302 11.07 17.8618
451 1 -1.1104 4.02081 5.47263 15.1579
453 1 -1.1104 3.89023 11.2051 15.095
318 2 2.2208 5.35699 9.56817 13.6825
454 1 -1.1104 4.05392 11.0948 20.911
9893 2 2.2208 -0.232404 12.4887 16.6378
415 2 2.2208 -0.240019 9.66831 19.3864
9928 2 2.2208 -0.181232 6.81714 16.4953
9758 2 2.2208 -0.383415 9.7602 13.704
317 2 2.2208 2.5471 6.89776 13.7503
427 1 -1.1104 1.24355 8.29365 20.7431
438 1 -1.1104 1.24111 11.012 20.6968
548 2 2.2208 8.28786 20.751 22.0771
428 1 -1.1104 6.94984 8.28103 15.1206
425 1 -1.1104 6.83691 8.22555 17.8973
442 1 -1.1104 6.88667 10.8587 20.6947
441 1 -1.1104 6.63835 10.8993 15.0005
433 1 -1.1104 6.91055 11.1071 17.7857
439 1 -1.1104 6.79106 5.27151 15.0982
432 1 -1.1104 6.80479 5.36209 17.94
429 1 -1.1104 6.73991 8.14438 20.7107
458 2 2.2208 11.0249 6.88827 16.5235
459 2 2.2208 11.0522 12.3812 16.5024
460 1 -1.1104 12.4584 8.20287 17.7733
461 1 -1.1104 12.4439 8.40375 14.8823
463 1 -1.1104 12.4406 5.52728 18.0353
464 1 -1.1104 12.6593 11.1418 18.0267
465 2 2.2208 11.0539 9.54323 19.3624
466 1 -1.1104 12.3024 5.59337 15.1881
468 1 -1.1104 12.4103 11.186 15.065
470 1 -1.1104 9.58408 8.12751 17.9414
471 2 2.2208 8.28821 6.76634 19.299
472 2 2.2208 8.20694 12.3919 19.3576
473 1 -1.1104 9.70491 8.40229 15.135
475 2 2.2208 8.28865 9.67927 16.5829
476 1 -1.1104 9.61934 5.44374 17.8233
477 1 -1.1104 9.86831 10.7747 17.7647
478 1 -1.1104 9.55011 5.52175 15.0537
480 1 -1.1104 9.56632 11.1044 15.0445
532 1 -1.1104 12.3921 16.5571 20.8887
322 2 2.2208 8.01942 12.3882 13.7388
474 1 -1.1104 9.77065 8.12754 20.743
467 1 -1.1104 12.5032 5.482 20.78
485 2 2.2208 5.37662 17.9878 16.6227
486 1 -1.1104 1.20739 13.8111 18.0658
487 1 -1.1104 1.18673 19.5674 18.0136
490 1 -1.1104 1.10714 13.9799 15.1978
492 1 -1.1104 1.08094 19.5009 15.1272
498 1 -1.1104 1.13138 16.6749 18.0013
500 2 2.2208 5.50087 15.1787 19.3343
501 2 2.2208 5.2647 20.9143 19.3072
502 1 -1.1104 1.31757 16.6639 15.195
506 1 -1.1104 4.00628 13.7742 18.014
507 1 -1.1104 4.07362 19.5372 17.8044
508 2 2.2208 2.63634 18.0341 19.3268
509 1 -1.1104 3.92687 13.9256 15.2303
511 1 -1.1104 3.85043 19.6015 15.0389
513 2 2.2208 2.61911 15.2791 16.6499
514 2 2.2208 2.57905 20.9573 16.478
515 1 -1.1104 4.01915 16.6361 17.8985
516 1 -1.1104 3.98101 16.8377 15.1624
493 1 -1.1104 1.23753 19.4047 20.6542
517 1 -1.1104 4.10241 16.7554 20.6558
323 2 2.2208 2.59629 18.1499 13.7798
9998 2 2.2208 -0.17448 15.2632 19.4265
491 1 -1.1104 1.27774 13.8321 20.8773
9997 2 2.2208 -0.219756 20.9269 19.3983
381 2 2.2208 -0.102181 18.0601 16.5273
9767 2 2.2208 -0.171583 15.5054 13.6989
325 2 2.2208 5.30051 15.1969 13.8597
496 1 -1.1104 6.75394 19.4693 15.1178
489 1 -1.1104 6.71866 19.4771 17.9298
504 1 -1.1104 6.82295 16.516 15.2623
494 1 -1.1104 6.80475 13.7857 15.0755
488 1 -1.1104 6.88418 13.8656 17.9357
499 1 -1.1104 6.78644 16.6959 18.0935
521 2 2.2208 11.0088 18.0896 16.5915
522 1 -1.1104 12.6592 13.9727 18.0836
523 1 -1.1104 12.5139 19.5902 17.8368
524 1 -1.1104 12.3185 13.9121 15.2649
526 1 -1.1104 12.3637 19.3885 15.1298
528 1 -1.1104 12.3716 16.8627 17.9729
529 2 2.2208 11.032 15.3038 19.4266
530 2 2.2208 10.9552 20.8098 19.196
531 1 -1.1104 12.3813 16.7871 15.2958
533 1 -1.1104 9.77903 13.7527 17.9384
534 1 -1.1104 9.59556 19.5663 17.9151
535 2 2.2208 8.17301 18.1493 19.339
536 1 -1.1104 9.52693 13.9491 14.9561
538 1 -1.1104 9.57677 19.4517 15.1503
540 2 2.2208 8.32202 15.1293 16.5169
541 2 2.2208 8.15553 20.8996 16.5354
542 1 -1.1104 9.51761 16.5455 18.0562
543 1 -1.1104 9.53668 16.7527 15.2931
527 1 -1.1104 12.3318 19.3907 20.736
537 1 -1.1104 9.72014 13.8448 20.8706
539 1 -1.1104 9.56377 19.5174 20.6953
495 1 -1.1104 6.84712 13.8945 20.7757
327 2 2.2208 10.9354 15.3655 13.7597
326 2 2.2208 10.933 20.8938 13.727
581 1 -1.1104 12.4021 13.9734 23.4978
373 1 -1.1104 3.99468 2.80579 20.7774
378 1 -1.1104 3.99461 -0.161429 20.7541
352 1 -1.1104 1.19728 -3.01479 20.5803
17544 2 2.2208 -0.219155 -4.40035 21.9571
9814 2 2.2208 -0.177643 4.08855 25.068
9811 2 2.2208 -0.242122 -1.3878 24.9242
9813 2 2.2208 -0.246743 1.33803 22.1048
9100 2 2.2208 2.49141 -4.26809 24.9545
549 2 2.2208 5.41699 1.2243 22.0743
550 1 -1.1104 1.07004 -2.86794 23.4559
551 1 -1.1104 1.262 2.82708 23.5716
554 1 -1.1104 1.22736 -2.99376 26.3787
555 1 -1.1104 1.26264 2.60955 26.4472
558 1 -1.1104 1.22394 -0.0017069 23.4591
560 2 2.2208 5.39186 -1.37961 24.9208
561 2 2.2208 5.426 4.03847 24.9754
562 1 -1.1104 1.17084 -0.208286 26.3543
564 1 -1.1104 3.81887 -2.87968 23.4493
565 1 -1.1104 4.064 2.7233 23.464
566 2 2.2208 2.58339 1.36027 24.9037
567 1 -1.1104 3.88855 -2.9158 26.2834
568 1 -1.1104 3.9201 2.70358 26.4588
569 2 2.2208 2.51982 -1.5632 22.0678
571 1 -1.1104 4.05825 -0.0412518 23.4268
572 1 -1.1104 4.01187 0.00699648 26.3136
570 2 2.2208 2.67102 4.06566 22.0847
573 2 2.2208 8.29748 15.2187 22.2342
613 1 -1.1104 9.59909 13.7584 23.7707
9098 2 2.2208 8.24155 -4.18387 24.9219
395 1 -1.1104 12.3609 2.71992 20.6258
407 1 -1.1104 9.5541 2.69711 20.5597
356 1 -1.1104 6.86263 -2.92982 20.697
553 1 -1.1104 6.85123 2.60498 23.5161
557 1 -1.1104 6.79683 2.55529 26.3788
358 1 -1.1104 6.80545 2.60789 20.7146
559 1 -1.1104 6.9237 -0.0580647 23.4337
563 1 -1.1104 6.69763 -0.071022 26.3221
556 1 -1.1104 6.76528 -2.75184 26.3992
552 1 -1.1104 6.81734 -2.75676 23.5256
9099 2 2.2208 11.1003 -4.24799 22.0977
400 1 -1.1104 12.2474 -0.153642 20.7653
412 1 -1.1104 9.55792 -0.0740788 20.8101
585 2 2.2208 11.0583 1.31124 22.0447
586 1 -1.1104 12.3031 -2.79371 23.6431
587 1 -1.1104 12.4814 2.72191 23.4303
588 1 -1.1104 12.251 -2.78089 26.5374
589 1 -1.1104 12.3369 2.82567 26.2638
590 1 -1.1104 12.4872 -0.0585399 23.5774
591 2 2.2208 10.9976 -1.33325 24.9459
592 2 2.2208 11.0358 4.07652 24.8933
593 1 -1.1104 12.4495 0.0754679 26.5957
594 1 -1.1104 9.5647 -2.87059 23.4813
595 1 -1.1104 9.57981 2.69894 23.5626
596 2 2.2208 8.24919 1.27011 24.8675
597 1 -1.1104 9.50438 -2.75686 26.3853
598 1 -1.1104 9.67884 2.59808 26.4414
599 2 2.2208 8.24868 -1.51619 22.0973
600 2 2.2208 8.1541 4.09282 22.1332
601 1 -1.1104 9.74223 -0.0191109 23.4684
602 1 -1.1104 9.60404 0.0212629 26.2431
546 1 -1.1104 6.93258 13.7982 26.5606
577 2 2.2208 11.1625 18.0953 22.2565
9022 2 2.2208 10.9545 -4.34783 27.8808
447 1 -1.1104 4.02153 8.31491 20.6117
10004 2 2.2208 -0.244116 9.61459 24.9777
436 1 -1.1104 1.1658 5.41779 20.5966
452 1 -1.1104 3.95075 5.4611 20.7269
10106 2 2.2208 -0.183049 6.93434 22.1468
10003 2 2.2208 -0.149623 12.5748 22.2018
614 2 2.2208 5.30402 6.83909 22.0508
615 2 2.2208 5.45474 12.2041 22.1542
616 1 -1.1104 1.07803 8.25376 23.5632
618 1 -1.1104 1.17243 8.20886 26.2883
620 1 -1.1104 1.14096 5.47968 23.4953
621 1 -1.1104 1.20541 11.1242 23.5345
624 2 2.2208 5.39902 9.56727 25.0216
625 1 -1.1104 1.3362 5.33658 26.3531
626 1 -1.1104 1.16719 11.0133 26.4094
629 1 -1.1104 3.87787 8.16944 23.5178
630 2 2.2208 2.59255 6.81511 24.9116
631 2 2.2208 2.66985 12.3105 24.8714
632 1 -1.1104 4.00645 8.2193 26.5731
633 2 2.2208 2.56272 9.6543 22.1399
634 1 -1.1104 3.93898 5.5865 23.5098
635 1 -1.1104 3.99704 10.9463 23.724
636 1 -1.1104 4.16036 5.48557 26.3993
637 1 -1.1104 3.97623 11.1141 26.5261
345 2 2.2208 5.47544 12.4967 27.9147
469 1 -1.1104 12.4216 10.9609 20.7865
479 1 -1.1104 9.6639 5.42901 20.7621
462 1 -1.1104 12.4663 8.22661 20.8532
481 1 -1.1104 9.64636 11.0478 20.6763
627 1 -1.1104 7.00538 5.27633 26.2496
440 1 -1.1104 6.80126 5.44832 20.6113
619 1 -1.1104 6.7653 8.23625 26.403
622 1 -1.1104 6.69264 5.47423 23.5101
617 1 -1.1104 6.73908 8.23964 23.6899
628 1 -1.1104 6.75099 11.0201 26.3686
623 1 -1.1104 6.7744 10.8171 23.4846
575 1 -1.1104 9.68266 8.29639 23.7045
576 1 -1.1104 12.581 11.115 26.239
603 1 -1.1104 12.404 5.47107 26.4863
604 2 2.2208 10.9928 9.66329 25.0167
605 1 -1.1104 12.5034 11.1948 23.452
607 1 -1.1104 12.3851 5.57964 23.5294
608 1 -1.1104 12.2398 8.36153 26.4611
609 1 -1.1104 12.583 8.40614 23.7145
638 2 2.2208 11.0967 12.5257 22.2492
639 2 2.2208 11.0944 6.88658 22.1793
640 2 2.2208 8.2204 6.87175 25.1098
645 1 -1.1104 9.62285 10.9262 26.4773
646 1 -1.1104 9.79628 5.38776 26.3273
647 1 -1.1104 9.53678 11.0615 23.6234
648 1 -1.1104 9.59813 5.62393 23.5293
649 2 2.2208 8.21993 9.41678 22.219
650 1 -1.1104 9.53491 8.27125 26.4863
651 2 2.2208 8.19562 12.3419 25.1394
580 1 -1.1104 9.69245 16.6268 23.5849
503 1 -1.1104 1.28851 16.6228 20.7606
512 1 -1.1104 3.95976 19.568 20.6291
9810 2 2.2208 -0.178506 18.1295 22.106
578 2 2.2208 -0.115146 20.7745 24.9683
510 1 -1.1104 4.02326 13.8409 20.7343
380 2 2.2208 2.73413 15.1879 22.1619
383 2 2.2208 2.70259 20.7339 22.1963
384 1 -1.1104 4.08833 16.6076 23.4419
386 1 -1.1104 1.1993 16.683 23.5251
388 1 -1.1104 4.21253 13.8826 26.3919
417 1 -1.1104 4.19201 16.6042 26.2556
418 2 2.2208 2.63352 17.9562 24.9266
419 1 -1.1104 3.96904 19.4911 26.1964
420 2 2.2208 5.55537 17.9081 22.2087
421 1 -1.1104 1.30687 13.8309 23.7696
455 1 -1.1104 1.355 19.5895 23.5288
457 2 2.2208 5.5864 15.2038 25.0641
482 2 2.2208 5.486 20.8941 24.8996
484 1 -1.1104 1.15462 13.9843 26.466
518 1 -1.1104 1.23828 16.6399 26.3282
519 1 -1.1104 1.12894 19.3989 26.2748
545 1 -1.1104 4.08862 13.662 23.6482
547 1 -1.1104 4.09401 19.4134 23.4475
9817 2 2.2208 -0.17315 15.2799 24.9714
505 1 -1.1104 6.99383 16.5457 20.7808
497 1 -1.1104 6.6663 19.4403 20.7422
544 1 -1.1104 9.71598 16.7369 20.7479
525 1 -1.1104 12.6006 13.8095 20.9032
583 1 -1.1104 12.4221 13.8908 26.186
641 1 -1.1104 9.72453 19.4634 23.4193
584 1 -1.1104 12.4847 19.3988 26.3749
387 1 -1.1104 6.94102 16.512 23.65
456 1 -1.1104 6.81572 13.6821 23.657
574 1 -1.1104 9.60692 19.421 26.5305
520 1 -1.1104 6.99224 16.6758 26.4013
612 1 -1.1104 12.4638 16.6287 26.5636
579 1 -1.1104 9.90761 16.5923 26.3286
610 2 2.2208 11.074 15.3477 24.8972
642 2 2.2208 8.28896 18.0549 24.8973
9774 2 2.2208 -0.173023 12.3802 27.812
9026 2 2.2208 8.18142 -4.38554 13.6861
344 2 2.2208 2.73891 9.70375 27.8176
333 2 2.2208 11.1757 12.5066 27.7182
9736 2 2.2208 -0.081243 18.045 27.7533
341 2 2.2208 5.54648 18.0942 27.754
342 2 2.2208 2.65859 20.9122 27.675
313 2 2.2208 11.0399 17.9903 27.8801
9743 2 2.2208 -0.15334 -1.55487 13.7202
320 2 2.2208 8.25038 6.8418 13.753
324 2 2.2208 5.41751 20.905 13.6677
306 2 2.2208 -0.308345 20.7857 13.6394
652 2 2.2208 5.46096 23.6779 5.45743
653 2 2.2208 5.32935 29.2632 5.35941
654 1 -1.1104 1.16776 25.2037 1.01478
655 1 -1.1104 1.36855 25.3169 3.72131
656 1 -1.1104 1.32668 22.344 0.976519
657 1 -1.1104 1.36438 27.8577 1.13506
658 2 2.2208 5.46379 26.4504 2.54967
659 1 -1.1104 1.27756 22.4106 3.77208
660 1 -1.1104 1.27951 28.086 3.85358
661 1 -1.1104 4.12138 25.1685 0.950667
662 2 2.2208 2.74943 23.793 2.34031
663 2 2.2208 2.70652 29.3522 2.49373
664 1 -1.1104 4.06365 25.0367 3.89158
665 2 2.2208 2.67022 26.5541 5.2755
666 1 -1.1104 3.87732 22.3512 1.01813
667 1 -1.1104 4.14791 27.8811 1.11356
668 1 -1.1104 4.1554 22.3762 3.93113
669 1 -1.1104 4.10797 27.869 3.93004
672 2 2.2208 -0.0714577 26.5824 2.47736
670 2 2.2208 -0.195928 29.2136 5.25558
883 2 2.2208 -0.330966 37.6931 8.09777
1020 2 2.2208 -0.200345 23.5882 -0.340115
671 2 2.2208 -0.160028 23.8041 5.32212
796 1 -1.1104 1.17636 27.9648 6.52715
801 1 -1.1104 3.96834 27.8238 6.74186
771 2 2.2208 -0.307918 46.1781 5.19572
678 1 -1.1104 6.81487 27.8342 3.99252
677 1 -1.1104 6.87208 22.3539 4.0097
675 1 -1.1104 6.92975 22.3567 0.993206
673 1 -1.1104 7.03824 25.0529 1.19647
674 1 -1.1104 6.91701 25.0824 3.88327
676 1 -1.1104 6.9206 27.829 1.15134
679 2 2.2208 11.1579 23.6891 5.47709
680 2 2.2208 11.0373 29.3428 5.42628
681 1 -1.1104 12.5382 25.0655 1.20081
682 1 -1.1104 12.5982 25.2254 4.02893
683 1 -1.1104 12.346 22.3297 1.07496
684 1 -1.1104 12.4112 27.9242 1.20209
685 2 2.2208 11.0171 26.5604 2.72631
686 1 -1.1104 12.5949 22.3555 4.12798
687 1 -1.1104 12.3999 27.9593 3.91628
688 1 -1.1104 9.89677 25.0751 1.25839
689 2 2.2208 8.4287 23.7739 2.55165
690 2 2.2208 8.25009 29.2017 2.51242
691 1 -1.1104 9.71936 25.1036 4.17017
692 2 2.2208 8.17412 26.5605 5.38106
693 1 -1.1104 9.5666 22.2315 1.31469
694 1 -1.1104 9.54949 27.8373 1.05033
695 1 -1.1104 9.82161 22.2592 4.0852
696 1 -1.1104 9.52753 27.946 3.98921
798 1 -1.1104 6.74989 27.9669 6.75932
831 1 -1.1104 9.60868 28.0361 6.75073
794 1 -1.1104 6.74042 25.1129 6.67003
830 1 -1.1104 9.52901 22.4192 6.8549
829 1 -1.1104 9.64594 25.3561 6.91163
827 1 -1.1104 12.377 22.3267 6.91922
1022 2 2.2208 8.23909 26.4814 -0.306005
700 2 2.2208 5.36479 34.9701 5.20612
701 1 -1.1104 1.08694 30.6904 1.02946
702 1 -1.1104 1.2081 36.4106 1.00249
704 1 -1.1104 1.22814 30.8016 3.83679
705 1 -1.1104 1.24231 36.2867 3.88083
707 1 -1.1104 1.3208 33.5555 1.02932
708 2 2.2208 5.43523 32.2037 2.47152
709 2 2.2208 5.3119 37.7286 2.50413
710 1 -1.1104 1.12283 33.5404 3.93599
712 1 -1.1104 3.91242 30.7998 1.06966
713 1 -1.1104 3.99662 36.1919 1.09782
714 2 2.2208 2.66807 34.9651 2.39835
715 1 -1.1104 4.05147 30.7998 3.83092
716 1 -1.1104 3.94984 36.5403 3.90342
717 2 2.2208 2.56236 32.1361 5.29149
718 2 2.2208 2.42321 37.7602 5.35444
719 1 -1.1104 3.97866 33.4163 1.04951
720 1 -1.1104 3.87978 33.581 3.80512
1028 2 2.2208 -0.16964 35.0259 -0.333748
722 2 2.2208 -0.211538 32.0296 2.58931
723 2 2.2208 -0.293562 34.8889 5.27391
912 1 -1.1104 6.77246 44.7018 9.27271
945 1 -1.1104 9.31486 39.1384 9.4609
706 1 -1.1104 6.62966 36.3452 3.79849
857 1 -1.1104 4.00716 36.304 6.63848
854 1 -1.1104 1.00993 33.6219 6.76765
725 1 -1.1104 6.92948 30.6305 3.93091
711 1 -1.1104 6.75834 33.7135 3.86191
724 1 -1.1104 6.80093 30.686 1.09882
726 1 -1.1104 6.82174 33.4712 1.17235
703 1 -1.1104 6.68005 36.2797 1.14055
727 2 2.2208 10.9581 34.9125 5.27547
728 1 -1.1104 12.479 30.6998 0.967728
729 1 -1.1104 12.4959 36.3158 1.08001
730 1 -1.1104 12.4171 30.8031 3.89934
731 1 -1.1104 12.3114 36.2629 3.87728