ITEM: TIMESTEP
20000
ITEM: NUMBER OF ATOMS
17820
ITEM: BOX BOUNDS pp pp pp
-3.5581903466732917e-01 2.7695819034667341e+01
-4.3347515793685520e+00 3.3241475157937265e+02
-3.5407903342663816e-01 2.7694079033426746e+01
ITEM: ATOMS id type q x y z
1 2 2.2208 5.22276 1.12379 5.08639
2 1 -1.1104 1.15443 -2.99507 0.982973
3 1 -1.1104 1.07636 2.7956 0.939372
6 1 -1.1104 1.22735 -3.15271 3.68979
7 1 -1.1104 1.04564 2.67849 3.66999
10 1 -1.1104 1.11868 -0.167938 0.933957
12 2 2.2208 5.26322 -1.6485 2.37946
14 1 -1.1104 1.04505 -0.275516 3.70432
16 1 -1.1104 3.95144 -2.98399 0.968501
17 1 -1.1104 3.92296 2.60806 0.976626
18 2 2.2208 2.64255 1.17281 2.26852
19 1 -1.1104 3.89473 -3.0602 3.97914
20 1 -1.1104 3.90864 2.48736 3.59817
21 2 2.2208 2.42267 -1.59567 5.25381
23 1 -1.1104 3.91235 -0.310538 0.922061
24 1 -1.1104 3.83044 -0.271633 3.87991
22 2 2.2208 2.48957 4.02198 5.20847
5 1 -1.1104 6.78151 2.61681 1.0312
13 2 2.2208 5.34598 3.89812 2.39048
170 1 -1.1104 1.06115 -0.205261 6.42364
167 1 -1.1104 1.06952 2.71601 6.51075
171 1 -1.1104 6.64617 -0.144659 6.61777
9 1 -1.1104 6.69858 2.60808 3.77006
15 1 -1.1104 6.56288 -0.306535 3.84035
173 1 -1.1104 3.77583 2.63545 6.39617
174 1 -1.1104 3.80101 -0.137355 6.68886
9728 2 2.2208 -0.379479 1.1995 5.0681
9729 2 2.2208 -0.248708 4.00993 2.40036
9726 2 2.2208 -0.289156 -1.5715 2.30272
332 2 2.2208 2.52551 4.048 -0.277892
331 2 2.2208 2.47781 -1.66553 -0.326826
8 1 -1.1104 6.6913 -3.04046 3.87583
169 1 -1.1104 6.56856 2.58751 6.63536
11 1 -1.1104 6.6792 -0.27381 1.02905
4 1 -1.1104 6.81431 -3.08134 1.15315
31 2 2.2208 10.8513 1.25978 5.16624
32 1 -1.1104 12.3038 -2.93867 1.0382
33 1 -1.1104 12.2332 2.692 0.979127
34 1 -1.1104 12.2521 -3.07795 3.87778
35 1 -1.1104 12.1876 2.69446 3.73061
36 1 -1.1104 12.2564 -0.0223024 1.17402
37 2 2.2208 10.8608 -1.63355 2.40491
39 1 -1.1104 12.2466 -0.231552 3.82582
40 1 -1.1104 9.59325 -3.00042 1.02741
41 1 -1.1104 9.41178 2.62811 0.959558
42 2 2.2208 8.04999 1.2711 2.30882
43 1 -1.1104 9.43361 -3.12938 3.78501
44 1 -1.1104 9.42002 2.76191 3.82767
45 2 2.2208 7.9916 -1.58303 5.21052
47 1 -1.1104 9.42161 -0.0510264 0.969203
48 1 -1.1104 9.38101 -0.178769 3.79164
38 2 2.2208 10.9377 4.08716 2.37826
46 2 2.2208 8.06075 4.04732 5.18324
9429 2 2.2208 13.6049 4.189 5.28562
210 1 -1.1104 9.3597 -0.198464 6.59096
9731 2 2.2208 13.6384 -1.53017 5.24458
208 1 -1.1104 9.35154 -2.9926 6.69481
206 1 -1.1104 12.1462 2.72879 6.53586
207 1 -1.1104 12.3161 -0.164091 6.67174
209 1 -1.1104 9.39878 2.69622 6.67593
338 2 2.2208 8.07875 -1.63173 -0.285121
54 2 2.2208 5.28396 6.76059 5.07031
55 2 2.2208 5.30234 12.3757 5.23274
56 1 -1.1104 1.2335 8.36855 1.10356
58 1 -1.1104 1.18139 8.24387 3.97263
60 1 -1.1104 1.13791 5.59404 1.21611
61 1 -1.1104 0.935978 11.0775 0.983223
66 2 2.2208 5.27671 9.61814 2.37252
67 1 -1.1104 1.15212 5.39116 4.00216
68 1 -1.1104 1.0654 11.0786 3.85027
71 1 -1.1104 4.00735 8.26018 0.960295
72 2 2.2208 2.54836 6.73711 2.56638
73 2 2.2208 2.51301 12.3547 2.41817
74 1 -1.1104 3.83879 8.17253 3.69815
75 2 2.2208 2.50823 9.67025 5.24748
76 1 -1.1104 4.02687 5.37439 0.892684
77 1 -1.1104 3.76287 11.0931 1.02762
79 1 -1.1104 3.89231 5.17893 3.83071
80 1 -1.1104 3.84827 10.8644 3.85607
64 1 -1.1104 6.74626 11.135 1.02696
69 1 -1.1104 6.7286 5.50227 3.7354
62 1 -1.1104 1.14606 11.1348 6.65384
235 1 -1.1104 6.71388 8.08637 6.60763
344 2 2.2208 2.55183 9.68459 -0.337903
239 1 -1.1104 3.85253 5.31319 6.67507
234 1 -1.1104 1.13871 8.4571 6.81588
9733 2 2.2208 -0.218416 6.91668 5.21401
9735 2 2.2208 -0.201376 12.4705 5.38434
9768 2 2.2208 -0.321533 6.8852 -0.305825
345 2 2.2208 5.37257 12.3914 -0.34723
57 1 -1.1104 6.701 8.30535 1.04572
70 1 -1.1104 6.62694 11.041 3.80537
63 1 -1.1104 6.68631 5.40293 1.00762
59 1 -1.1104 6.68612 8.35879 3.80624
333 2 2.2208 10.9039 12.4777 -0.314744
9625 2 2.2208 13.6228 6.90294 2.62502
84 2 2.2208 10.9513 6.85783 5.34231
85 2 2.2208 11.0358 12.4374 5.36925
86 1 -1.1104 12.2288 8.29865 1.19631
87 1 -1.1104 12.2061 8.28392 4.04614
88 1 -1.1104 12.2851 5.42252 1.16958
89 1 -1.1104 12.3478 11.0304 1.20996
91 2 2.2208 10.877 9.65278 2.55544
92 1 -1.1104 12.2246 5.45206 4.02194
93 1 -1.1104 12.2186 10.9392 3.93592
94 1 -1.1104 9.44964 8.19016 1.22332
95 2 2.2208 8.17596 6.70927 2.40643
96 2 2.2208 8.06228 12.4234 2.47396
97 1 -1.1104 9.41454 8.15242 4.03596
98 2 2.2208 8.07188 9.54949 5.3466
99 1 -1.1104 9.63207 5.46539 1.0097
100 1 -1.1104 9.33904 10.9598 1.19684
102 1 -1.1104 9.45231 5.42218 3.73214
103 1 -1.1104 9.49716 10.971 3.91044
9458 2 2.2208 13.6066 9.68703 5.44335
269 1 -1.1104 9.39738 5.57413 6.58796
334 2 2.2208 8.10013 9.66216 -0.249954
335 2 2.2208 10.9514 6.92238 -0.287233
106 2 2.2208 5.362 18.0193 5.3488
107 1 -1.1104 1.09002 13.9206 0.979206
109 1 -1.1104 1.03202 19.4849 0.847097
113 1 -1.1104 1.11813 13.851 3.8399
114 1 -1.1104 1.06695 19.5401 3.70556
116 1 -1.1104 1.18528 16.7851 1.08754
119 2 2.2208 5.29927 15.3419 2.52016
120 2 2.2208 5.23467 20.9726 2.48903
121 1 -1.1104 1.13122 16.6323 4.05598
123 1 -1.1104 3.94543 13.7577 1.03197
125 1 -1.1104 3.99229 19.5334 1.09666
127 2 2.2208 2.51082 18.1316 2.4025
128 1 -1.1104 3.84208 13.7756 3.89996
129 1 -1.1104 3.9695 19.4194 3.82499
130 2 2.2208 2.48827 15.1831 5.3333
131 2 2.2208 2.45092 20.8313 5.31126
132 1 -1.1104 3.89868 16.5592 1.04921
134 1 -1.1104 3.94626 16.6036 3.87952
110 1 -1.1104 6.7735 13.8295 0.988986
302 1 -1.1104 1.035 19.457 6.5869
139 1 -1.1104 6.68221 19.5095 3.80281
136 2 2.2208 -0.218741 20.8621 2.30086
135 2 2.2208 -0.162811 15.31 2.50087
341 2 2.2208 5.28958 18.1715 -0.325695
122 1 -1.1104 6.66441 16.721 3.84671
115 1 -1.1104 6.62583 13.9013 3.8661
140 1 -1.1104 6.71019 16.6585 1.05349
138 1 -1.1104 6.73172 19.4013 0.887221
118 1 -1.1104 6.76256 16.6508 6.65192
112 1 -1.1104 6.68791 19.5404 6.64359
312 2 2.2208 8.07939 15.1763 -0.293649
141 2 2.2208 10.9224 18.0633 5.29039
142 1 -1.1104 12.3561 13.9365 1.14829
144 1 -1.1104 12.3345 19.5013 0.92017
146 1 -1.1104 12.3596 13.8438 3.94324
147 1 -1.1104 12.5064 19.4311 3.85384
148 1 -1.1104 12.3687 16.6278 1.33968
150 2 2.2208 11.0043 15.1804 2.65201
151 2 2.2208 10.9566 20.7736 2.29569
152 1 -1.1104 12.3001 16.729 3.89221
153 1 -1.1104 9.5844 13.8081 1.12188
155 1 -1.1104 9.39718 19.415 1.00547
157 2 2.2208 7.96306 17.9795 2.41837
158 1 -1.1104 9.54813 13.799 3.93638
159 1 -1.1104 9.47889 19.356 3.85774
160 2 2.2208 8.14021 15.2392 5.31403
161 2 2.2208 8.05526 20.8028 5.12741
162 1 -1.1104 9.6275 16.6366 1.17173
164 1 -1.1104 9.50615 16.5948 3.96113
156 1 -1.1104 9.52623 19.3943 6.60687
154 1 -1.1104 9.59855 13.7117 6.64827
149 1 -1.1104 12.366 16.5846 6.52617
163 1 -1.1104 9.60598 16.4667 6.74679
336 2 2.2208 8.17413 20.9758 -0.363454
111 1 -1.1104 6.72456 13.8422 6.63553
143 1 -1.1104 12.4646 13.9341 6.7296
313 2 2.2208 10.8234 18.101 -0.342561
172 1 -1.1104 3.81944 -2.91283 6.73171
166 1 -1.1104 1.08385 -2.94013 6.60719
168 1 -1.1104 6.54679 -2.88967 6.72424
9748 2 2.2208 -0.26597 4.17528 13.6789
9457 2 2.2208 -0.370422 1.30186 10.8567
175 2 2.2208 5.20888 1.24103 10.7761
176 1 -1.1104 1.13654 -3.18841 12.4157
177 1 -1.1104 1.00747 2.7507 12.1093
180 1 -1.1104 0.971588 -2.96988 9.54248
181 1 -1.1104 1.14188 2.66539 9.24014
184 1 -1.1104 0.950205 -0.229418 12.1679
186 2 2.2208 5.16317 -1.51429 8.08107
187 2 2.2208 5.22972 3.98719 7.93832
188 1 -1.1104 1.11595 -0.104251 9.31616
190 1 -1.1104 3.89394 -2.99468 12.445
191 1 -1.1104 3.70033 2.71485 12.1718
192 2 2.2208 2.44765 1.24222 7.86777
193 1 -1.1104 3.75238 -2.92319 9.57341
194 1 -1.1104 3.87058 2.65734 9.29468
195 2 2.2208 2.46663 -1.48192 10.8849
197 1 -1.1104 3.86105 -0.257241 12.426
198 1 -1.1104 3.82769 -0.102733 9.39977
196 2 2.2208 2.56342 4.12439 10.7895
183 1 -1.1104 6.69734 2.6408 9.45972
189 1 -1.1104 6.63275 -0.209572 9.64799
179 1 -1.1104 6.52162 2.55167 12.2375
182 1 -1.1104 6.67187 -2.91004 9.60583
311 2 2.2208 5.31061 3.98937 13.6225
310 2 2.2208 2.47162 1.14659 13.5871
205 1 -1.1104 12.2128 -2.92779 6.57655
178 1 -1.1104 6.82243 -3.00824 12.3511
185 1 -1.1104 6.70177 -0.205999 12.285
316 2 2.2208 10.9973 4.18209 13.6414
9018 2 2.2208 13.6426 -4.23495 7.93514
314 2 2.2208 8.16755 1.28723 13.6236
211 2 2.2208 10.9549 1.28841 10.7249
212 1 -1.1104 12.3655 -2.92456 12.3847
213 1 -1.1104 12.1665 2.7841 12.0676
214 1 -1.1104 12.3883 -2.86829 9.57794
215 1 -1.1104 12.3352 2.59013 9.36951
216 1 -1.1104 12.2564 -0.0239538 12.1797
217 2 2.2208 10.7995 -1.50616 7.93875
218 2 2.2208 10.8433 3.99501 8.04865
219 1 -1.1104 12.4469 -0.130898 9.394
220 1 -1.1104 9.57452 -2.90014 12.1525
221 1 -1.1104 9.31134 2.84861 12.1862
222 2 2.2208 8.00185 1.22095 8.00913
223 1 -1.1104 9.38739 -2.9207 9.40066
224 1 -1.1104 9.45891 2.69795 9.49305
225 2 2.2208 8.03048 -1.50753 10.9849
227 1 -1.1104 9.59682 -0.0599757 12.2236
228 1 -1.1104 9.45101 -0.136662 9.48991
226 2 2.2208 8.08239 4.02614 10.8586
315 2 2.2208 10.9808 -1.53079 13.5936
9564 2 2.2208 13.6177 4.22114 10.8964
9651 2 2.2208 -0.261185 12.4829 10.8693
9658 2 2.2208 -0.291086 9.74916 8.05742
78 1 -1.1104 3.86701 11.033 6.61102
9659 2 2.2208 -0.358445 6.91812 10.9034
238 1 -1.1104 3.9236 8.26195 6.65955
236 1 -1.1104 1.11872 5.55845 6.55553
240 2 2.2208 5.33819 6.86711 10.7618
241 2 2.2208 5.39408 12.5589 10.8623
242 1 -1.1104 1.06753 8.31338 12.3523
244 1 -1.1104 1.23032 8.36502 9.52182
246 1 -1.1104 1.13466 5.53109 12.298
247 1 -1.1104 1.1909 11.1276 12.1181
250 2 2.2208 5.28025 9.72981 8.09174
251 1 -1.1104 1.00291 5.44633 9.50712
252 1 -1.1104 1.08587 11.1755 9.35042
255 1 -1.1104 3.86631 8.29707 12.322
256 2 2.2208 2.5068 6.91323 8.07303
257 2 2.2208 2.57125 12.5145 8.10452
258 1 -1.1104 4.00124 8.39626 9.42764
259 2 2.2208 2.51401 9.81514 10.8843
260 1 -1.1104 3.97664 5.48648 12.1761
261 1 -1.1104 3.94032 11.1366 12.266
262 1 -1.1104 3.85779 5.53002 9.27473
263 1 -1.1104 3.89186 11.1656 9.56459
253 1 -1.1104 6.58504 5.4608 9.43757
237 1 -1.1104 6.61992 5.35293 6.58034
267 1 -1.1104 9.49447 8.30106 6.75151
65 1 -1.1104 6.61139 11.0742 6.7337
254 1 -1.1104 6.73704 11.1584 9.48471
249 1 -1.1104 6.78507 10.996 12.2696
248 1 -1.1104 6.61282 5.36603 12.2099
243 1 -1.1104 6.59478 8.28527 12.2021
245 1 -1.1104 6.73174 8.39074 9.39751
90 1 -1.1104 12.3857 11.1533 6.77802
266 1 -1.1104 12.2342 5.52224 6.83681
101 1 -1.1104 9.44606 10.988 6.59883
265 1 -1.1104 12.375 8.37289 6.93992
264 1 -1.1104 9.49319 11.0178 9.5252
268 1 -1.1104 9.32817 5.51374 9.50319
270 1 -1.1104 9.49703 11.2516 12.3238
271 1 -1.1104 9.58988 5.75067 12.2803
272 2 2.2208 8.06654 9.70463 10.8461
273 1 -1.1104 9.54651 8.17335 9.46712
274 2 2.2208 8.10533 12.457 8.0465
275 2 2.2208 8.10867 6.82375 8.15804
276 2 2.2208 10.9382 7.01059 10.9382
277 2 2.2208 10.8988 12.525 10.8949
278 1 -1.1104 12.4276 8.42321 12.4829
279 1 -1.1104 12.228 8.2716 9.63263
280 1 -1.1104 12.3969 5.47762 12.3224
281 1 -1.1104 12.3044 11.0854 12.0825
282 2 2.2208 10.8457 9.75301 8.14123
283 1 -1.1104 12.1766 5.52097 9.47184
284 1 -1.1104 12.305 11.1894 9.42388
285 1 -1.1104 9.55548 8.538 12.2133
320 2 2.2208 8.09505 6.85058 13.672
322 2 2.2208 8.12342 12.5273 13.5713
51 2 2.2208 -0.255376 17.9992 10.9831
306 2 2.2208 -0.372764 20.9095 13.6507
133 1 -1.1104 3.95778 16.6876 6.64295
108 1 -1.1104 1.21747 13.8925 6.77834
126 1 -1.1104 3.87785 19.4817 6.72182
117 1 -1.1104 1.10466 16.7847 6.79866
9430 2 2.2208 -0.221636 15.3358 8.12812
124 1 -1.1104 4.00157 13.7948 6.62317
202 2 2.2208 2.55519 15.2665 10.8961
203 2 2.2208 2.404 20.9263 10.8753
231 1 -1.1104 3.84113 16.6441 12.1839
232 1 -1.1104 1.20823 16.6883 12.3788
286 1 -1.1104 3.88664 19.4398 12.2948
287 1 -1.1104 3.81676 13.8655 12.3753
291 1 -1.1104 1.18277 19.4248 9.38803
292 1 -1.1104 1.17056 16.6906 9.61227
293 2 2.2208 5.23694 20.8655 8.22085
294 1 -1.1104 1.15466 13.8221 9.58419
295 2 2.2208 5.36917 15.2899 8.04059
298 1 -1.1104 1.13701 19.4365 12.2834
299 1 -1.1104 1.07104 13.9191 12.4376
300 2 2.2208 5.17484 18.0163 10.9687
301 1 -1.1104 3.96513 19.5889 9.56427
303 2 2.2208 2.53238 18.1363 8.05041
304 1 -1.1104 4.00196 16.7789 9.27472
305 1 -1.1104 4.00866 13.9915 9.46113
288 1 -1.1104 6.80767 19.3599 9.37206
52 2 2.2208 -0.247327 20.893 8.11908
326 2 2.2208 10.9385 20.7444 13.6204
83 2 2.2208 10.9248 20.8303 7.9972
145 1 -1.1104 12.2943 19.4122 6.72813
28 2 2.2208 13.6348 20.9431 10.9221
200 1 -1.1104 9.51517 13.7947 9.34407
49 1 -1.1104 12.2904 19.411 12.2748
53 1 -1.1104 12.2317 19.5856 9.53054
204 2 2.2208 8.19188 15.3094 10.8283
50 1 -1.1104 12.2597 13.959 9.5081
296 1 -1.1104 6.77346 19.4341 12.3512
289 1 -1.1104 6.80309 16.7369 9.42037
290 1 -1.1104 6.7331 13.8719 9.47687
297 1 -1.1104 6.60123 13.8589 12.1759
233 1 -1.1104 6.72795 16.6697 12.2663
27 1 -1.1104 12.258 13.844 12.2633
26 2 2.2208 10.9068 18.0384 10.8443
30 1 -1.1104 9.70469 16.6938 9.47373
229 2 2.2208 8.16509 20.9212 10.8843
81 1 -1.1104 12.4261 16.6577 12.2943
201 1 -1.1104 9.47879 19.4534 9.38419
105 1 -1.1104 9.47036 13.993 12.219
82 2 2.2208 11.018 15.2037 7.94813
199 2 2.2208 8.20556 18.0074 8.02826
104 1 -1.1104 12.3599 16.6911 9.29406
230 1 -1.1104 9.58204 16.7204 12.2338
137 1 -1.1104 9.54865 19.4642 12.4004
346 2 2.2208 5.29838 1.1978 16.5412
347 1 -1.1104 1.10278 -3.03559 17.9406
348 1 -1.1104 1.22544 2.65481 17.8937
351 1 -1.1104 1.07922 -2.77789 15.2964
353 1 -1.1104 1.28458 2.72735 15.0986
359 1 -1.1104 1.20403 -0.259489 17.8265
361 2 2.2208 5.29578 -1.60702 19.3397
362 2 2.2208 5.40887 3.9427 19.3218
363 1 -1.1104 1.05224 -0.0920667 14.8918
367 1 -1.1104 3.90503 -2.92331 17.8957
368 1 -1.1104 4.01907 2.73266 17.9406
369 2 2.2208 2.50593 1.27226 19.3489
370 1 -1.1104 3.92065 -2.96138 15.1102
372 1 -1.1104 3.92914 2.56319 15.109
374 2 2.2208 2.54674 -1.5447 16.5349
375 2 2.2208 2.62235 3.98568 16.5546
376 1 -1.1104 3.89672 -0.0522755 17.9423
377 1 -1.1104 3.9406 -0.236128 15.2734
378 1 -1.1104 3.97133 -0.191363 20.7607
364 1 -1.1104 1.15704 -0.163431 20.7581
309 2 2.2208 5.45041 -1.57915 13.7261
358 1 -1.1104 6.87193 2.57537 20.6945
9138 2 2.2208 5.29268 -4.17504 16.5997
9855 2 2.2208 -0.262329 4.18378 19.2931
9816 2 2.2208 -0.142123 -1.6147 19.2173
9853 2 2.2208 -0.25369 1.41515 16.4283
9743 2 2.2208 -0.269992 -1.60605 13.666
350 1 -1.1104 6.83075 2.70091 17.8554
365 1 -1.1104 6.86832 -0.0817034 15.044
360 1 -1.1104 6.76836 -0.227564 17.8147
355 1 -1.1104 6.75206 -2.85916 15.147
349 1 -1.1104 6.63838 -2.86906 17.9252
357 1 -1.1104 6.65633 2.70273 15.0739
389 2 2.2208 10.9438 1.29428 16.4376
390 1 -1.1104 12.4035 -2.97155 17.9113
391 1 -1.1104 12.3056 2.73335 17.8324
392 1 -1.1104 12.1927 -2.84953 15.1764
394 1 -1.1104 12.4169 2.80999 15.0123
396 1 -1.1104 12.4369 -0.153825 17.9048
397 2 2.2208 10.8938 -1.59026 19.2507
398 2 2.2208 10.8566 4.15854 19.3252
399 1 -1.1104 12.3691 -0.0156933 15.0729
401 1 -1.1104 9.42455 -3.06214 17.8817
402 1 -1.1104 9.52391 2.68331 17.7881
403 2 2.2208 8.17698 1.25111 19.2271
404 1 -1.1104 9.64856 -2.82862 15.0852
406 1 -1.1104 9.59869 2.62107 15.0334
408 2 2.2208 8.26943 -1.48965 16.3767
409 2 2.2208 8.13403 4.19249 16.4836
410 1 -1.1104 9.60619 -0.302357 17.6905
411 1 -1.1104 9.53025 -0.128882 14.9079
412 1 -1.1104 9.58704 -0.0267252 20.5859
9136 2 2.2208 10.9524 -4.29974 16.6166
9102 2 2.2208 8.00811 -4.33432 19.4592
407 1 -1.1104 9.41506 2.80471 20.6615
395 1 -1.1104 12.4006 2.64417 20.6429
422 2 2.2208 5.25456 6.90138 16.4431
423 2 2.2208 5.32707 12.4709 16.4583
424 1 -1.1104 1.11129 8.30532 17.9965
426 1 -1.1104 1.20477 8.18537 15.2414
430 1 -1.1104 1.11493 5.50543 17.9159
431 1 -1.1104 1.1139 11.1309 17.9217
434 2 2.2208 5.32144 9.62979 19.3753
435 1 -1.1104 1.05727 5.46807 15.1782
437 1 -1.1104 1.19903 10.9538 14.9503
443 1 -1.1104 3.99121 8.30768 17.9149
444 2 2.2208 2.61757 6.94338 19.3274
445 2 2.2208 2.53092 12.4976 19.2728
446 1 -1.1104 3.96733 8.18761 15.0361
448 2 2.2208 2.58516 9.64061 16.4829
449 1 -1.1104 3.9064 5.49513 17.9573
450 1 -1.1104 3.91092 11.1571 18.0381
451 1 -1.1104 3.90595 5.30932 15.158
453 1 -1.1104 3.91468 10.9277 15.1622
432 1 -1.1104 6.62568 5.47165 17.8774
441 1 -1.1104 6.81829 11.0383 14.9885
439 1 -1.1104 6.63274 5.45841 15.0635
317 2 2.2208 2.46815 6.84939 13.715
318 2 2.2208 5.31014 9.71985 13.697
319 2 2.2208 2.44868 12.3851 13.7488
436 1 -1.1104 1.14845 5.55337 20.6956
454 1 -1.1104 4.05203 11.0568 20.8563
415 2 2.2208 -0.191242 9.61056 19.3869
9928 2 2.2208 -0.20281 6.84745 16.5596
9758 2 2.2208 -0.23616 9.68109 13.6815
428 1 -1.1104 6.68523 8.18872 15.0549
433 1 -1.1104 6.61141 11.2223 17.6943
425 1 -1.1104 6.78462 8.31059 17.9045
458 2 2.2208 10.8584 6.90852 16.4566
459 2 2.2208 10.8706 12.5197 16.4028
460 1 -1.1104 12.5178 8.35799 17.9872
461 1 -1.1104 12.1239 8.34835 15.1753
463 1 -1.1104 12.32 5.56005 17.8729
464 1 -1.1104 12.2527 11.1338 17.8535
465 2 2.2208 11.0375 9.7301 19.3792
466 1 -1.1104 12.4035 5.53559 15.1766
468 1 -1.1104 12.4856 11.0603 14.9358
470 1 -1.1104 9.59839 8.18359 18.0448
471 2 2.2208 8.07484 6.86424 19.3367
472 2 2.2208 8.08171 12.4075 19.3233
473 1 -1.1104 9.41714 8.21558 15.0662
475 2 2.2208 8.07694 9.71234 16.4734
476 1 -1.1104 9.56226 5.44587 17.9404
477 1 -1.1104 9.59004 11.0444 17.8718
478 1 -1.1104 9.5672 5.44918 15.1411
480 1 -1.1104 9.54533 11.0483 15.0537
467 1 -1.1104 12.3171 5.48376 20.6678
321 2 2.2208 10.8723 9.72193 13.7181
429 1 -1.1104 6.82809 8.28076 20.6624
442 1 -1.1104 6.78734 11.0246 20.6315
485 2 2.2208 5.3685 18.1959 16.5594
486 1 -1.1104 1.01474 13.9977 17.9494
487 1 -1.1104 0.993461 19.5266 17.9228
490 1 -1.1104 1.14001 13.7057 15.1982
492 1 -1.1104 1.00005 19.4899 15.0924
498 1 -1.1104 1.13601 16.5778 17.9905
500 2 2.2208 5.48965 15.2769 19.3067
501 2 2.2208 5.4005 21.0105 19.4478
502 1 -1.1104 1.00155 16.7309 15.1728
506 1 -1.1104 3.88806 13.9561 18.0126
507 1 -1.1104 3.94631 19.4643 18.0136
508 2 2.2208 2.46423 18.0204 19.3932
509 1 -1.1104 3.86257 13.7988 15.161
511 1 -1.1104 3.86488 19.5039 15.1769
513 2 2.2208 2.45581 15.2762 16.5437
514 2 2.2208 2.44921 20.9519 16.6238
515 1 -1.1104 3.85469 16.694 18.0238
516 1 -1.1104 3.91188 16.5423 15.075
323 2 2.2208 2.54638 18.1282 13.7721
504 1 -1.1104 6.79042 16.5633 15.0679
325 2 2.2208 5.24283 15.2227 13.7153
9997 2 2.2208 -0.264165 20.8476 19.4076
324 2 2.2208 5.31844 20.9287 13.7718
9767 2 2.2208 -0.21834 15.2723 13.7972
496 1 -1.1104 6.75655 19.4195 15.0341
488 1 -1.1104 6.68919 13.9217 17.925
499 1 -1.1104 6.71015 16.6825 17.9574
489 1 -1.1104 6.5725 19.5505 17.9645
494 1 -1.1104 6.64934 13.781 15.0855
521 2 2.2208 11.0433 17.9748 16.6257
522 1 -1.1104 12.1163 13.8592 17.8046
523 1 -1.1104 12.3185 19.331 17.9209
524 1 -1.1104 12.3525 13.8596 15.0191
526 1 -1.1104 12.2915 19.4158 15.1402
528 1 -1.1104 12.3931 16.5547 17.9562
529 2 2.2208 10.9235 15.1879 19.3234
530 2 2.2208 10.8122 20.8865 19.334
531 1 -1.1104 12.3422 16.6313 15.0964
533 1 -1.1104 9.50532 13.7878 17.7884
534 1 -1.1104 9.36393 19.4758 17.8947
535 2 2.2208 8.15651 18.1393 19.3904
536 1 -1.1104 9.52902 13.8135 14.9182
538 1 -1.1104 9.55232 19.463 15.1629
540 2 2.2208 8.17729 15.2629 16.4
541 2 2.2208 8.19536 20.8775 16.3473
542 1 -1.1104 9.4698 16.6535 17.9035
543 1 -1.1104 9.46655 16.6764 15.0156
537 1 -1.1104 9.45211 13.9471 20.7696
328 2 2.2208 8.1558 17.991 13.6473
327 2 2.2208 10.9765 15.2348 13.7436
329 2 2.2208 13.6981 18.1172 13.6863
354 1 -1.1104 1.10928 2.65079 20.6291
371 1 -1.1104 3.90592 -3.09437 20.7182
352 1 -1.1104 1.21881 -2.99345 20.7439
9101 2 2.2208 5.29081 -4.30003 22.2164
9100 2 2.2208 2.55192 -4.18334 24.8228
373 1 -1.1104 3.88834 2.60232 20.6702
330 2 2.2208 5.41032 1.27621 27.6009
549 2 2.2208 5.39823 1.32088 22.0827
550 1 -1.1104 1.08797 -2.79478 23.5714
551 1 -1.1104 1.0315 2.64375 23.5034
554 1 -1.1104 0.94587 -2.93775 26.286
555 1 -1.1104 1.22698 2.6616 26.2497
558 1 -1.1104 1.15359 -0.00814999 23.6449
560 2 2.2208 5.27471 -1.52007 25.0021
561 2 2.2208 5.36016 4.1583 24.9348
562 1 -1.1104 1.00717 -0.184398 26.2423
564 1 -1.1104 3.83711 -2.75415 23.4065
565 1 -1.1104 3.99925 2.82342 23.4764
566 2 2.2208 2.55953 1.26922 24.9257
567 1 -1.1104 3.86008 -2.92214 26.2264
568 1 -1.1104 4.01553 2.6577 26.2254
569 2 2.2208 2.60146 -1.45444 22.1334
570 2 2.2208 2.56406 4.04056 22.025
571 1 -1.1104 4.03881 -0.165754 23.4384
572 1 -1.1104 3.95106 -0.230996 26.355
552 1 -1.1104 6.73788 -2.94807 23.736
9737 2 2.2208 -0.278226 1.1908 27.6386
9814 2 2.2208 -0.279584 4.05777 24.9971
9813 2 2.2208 -0.36578 1.29825 22.0716
9098 2 2.2208 8.19618 -4.25617 24.9614
366 1 -1.1104 6.80746 -0.220747 20.7586
356 1 -1.1104 6.64832 -2.96026 20.8628
393 1 -1.1104 12.5139 -2.9852 20.7944
400 1 -1.1104 12.384 -0.194672 20.5722
553 1 -1.1104 6.91327 2.56979 23.5472
559 1 -1.1104 6.74299 -0.196296 23.5363
556 1 -1.1104 6.69007 -2.91858 26.5335
9099 2 2.2208 10.8903 -4.30834 22.1337
557 1 -1.1104 6.73872 2.68586 26.2438
405 1 -1.1104 9.49175 -2.76999 20.7421
563 1 -1.1104 6.98196 -0.169976 26.4165
585 2 2.2208 10.9366 1.2458 22.0004
586 1 -1.1104 12.4835 -3.00408 23.58
587 1 -1.1104 12.4434 2.63982 23.4701
588 1 -1.1104 12.2986 -2.94973 26.2795
589 1 -1.1104 12.3733 2.65266 26.2891
590 1 -1.1104 12.3102 -0.210521 23.4641
591 2 2.2208 10.9938 -1.47143 24.9862
592 2 2.2208 11.0255 4.05915 24.8542
593 1 -1.1104 12.486 -0.159028 26.2598
594 1 -1.1104 9.6605 -2.83212 23.5863
595 1 -1.1104 9.69025 2.65101 23.5889
596 2 2.2208 8.07537 1.31725 24.9523
597 1 -1.1104 9.41733 -3.05667 26.349
598 1 -1.1104 9.4712 2.61214 26.2962
599 2 2.2208 8.16602 -1.51645 22.1411
600 2 2.2208 8.27683 4.12088 22.1795
601 1 -1.1104 9.47745 -0.15876 23.4591
602 1 -1.1104 9.6292 -0.282606 26.3616
339 2 2.2208 8.25172 4.04964 27.6451
337 2 2.2208 10.8956 1.14744 27.6172
452 1 -1.1104 4.0714 5.35939 20.7704
9774 2 2.2208 -0.266112 12.5209 27.6295
427 1 -1.1104 1.33518 8.15869 20.7065
438 1 -1.1104 1.03792 10.9483 20.6648
447 1 -1.1104 4.15563 8.19116 20.7273
614 2 2.2208 5.44978 6.81216 22.1414
615 2 2.2208 5.35758 12.3788 22.1259
616 1 -1.1104 1.13891 8.02841 23.4111
618 1 -1.1104 1.12946 8.23874 26.3532
620 1 -1.1104 1.05639 5.33208 23.5159
621 1 -1.1104 1.06877 10.9405 23.4991
624 2 2.2208 5.38512 9.6843 24.8588
625 1 -1.1104 0.987833 5.47918 26.4412
626 1 -1.1104 1.23646 10.9538 26.209
629 1 -1.1104 4.06996 8.30776 23.5082
630 2 2.2208 2.43272 6.81527 24.9696
631 2 2.2208 2.53743 12.4245 24.9235
632 1 -1.1104 3.96144 8.24816 26.214
633 2 2.2208 2.49655 9.59557 22.2685
634 1 -1.1104 3.82967 5.62828 23.5612
635 1 -1.1104 3.91843 10.9052 23.5426
636 1 -1.1104 4.00242 5.4572 26.303
637 1 -1.1104 4.0608 11.0924 26.3088
10106 2 2.2208 -0.223323 6.74262 21.9615
343 2 2.2208 5.37935 6.868 27.6502
479 1 -1.1104 9.624 5.52787 20.675
440 1 -1.1104 6.83938 5.48167 20.8425
622 1 -1.1104 6.73639 5.33388 23.6713
619 1 -1.1104 6.7311 8.41942 26.3259
623 1 -1.1104 6.70126 10.9572 23.5352
627 1 -1.1104 6.87785 5.62217 26.3437
628 1 -1.1104 6.85798 11.2237 26.3514
474 1 -1.1104 9.62017 8.35934 20.7318
469 1 -1.1104 12.4236 11.1611 20.7383
462 1 -1.1104 12.4226 8.26297 20.7572
617 1 -1.1104 6.8987 8.17087 23.4721
9854 2 2.2208 13.6612 12.5513 24.971
481 1 -1.1104 9.59028 11.1797 20.6976
575 1 -1.1104 9.65435 8.37879 23.5138
576 1 -1.1104 12.4166 11.005 26.4865
603 1 -1.1104 12.4519 5.53135 26.3571
604 2 2.2208 11.0563 9.77306 24.9072
605 1 -1.1104 12.3911 11.2116 23.6201
607 1 -1.1104 12.3616 5.45268 23.4655
608 1 -1.1104 12.3491 8.24578 26.4062
609 1 -1.1104 12.492 8.34691 23.5966
638 2 2.2208 11.0188 12.4289 22.0851
639 2 2.2208 10.9549 6.88575 22.1104
640 2 2.2208 8.23168 6.94502 25.0457
645 1 -1.1104 9.74198 11.045 26.2742
646 1 -1.1104 9.70086 5.66654 26.1832
647 1 -1.1104 9.63779 11.0413 23.5099
648 1 -1.1104 9.42434 5.54498 23.4472
649 2 2.2208 8.21924 9.66595 22.0876
650 1 -1.1104 9.47236 8.349 26.451
651 2 2.2208 8.1763 12.3645 24.8906
387 1 -1.1104 6.79225 16.6864 23.5726
493 1 -1.1104 1.13978 19.4821 20.7088
503 1 -1.1104 1.18264 16.6035 20.7444
9817 2 2.2208 -0.263787 15.1911 24.9061
512 1 -1.1104 3.85327 19.6266 20.7917
510 1 -1.1104 3.89344 13.9123 20.8309
643 1 -1.1104 6.66888 19.5794 26.3075
491 1 -1.1104 1.12789 13.7912 20.8504
517 1 -1.1104 3.94957 16.8085 20.6282
380 2 2.2208 2.56521 15.2244 22.0574
383 2 2.2208 2.49671 21.0343 22.2799
384 1 -1.1104 3.93079 16.7762 23.454
386 1 -1.1104 1.02823 16.5117 23.553
388 1 -1.1104 3.96546 13.9022 26.2801
417 1 -1.1104 3.79102 16.6847 26.2841
418 2 2.2208 2.50969 18.1333 24.9402
419 1 -1.1104 3.98159 19.5105 26.2904
420 2 2.2208 5.31302 18.1217 22.1189
421 1 -1.1104 1.09006 13.806 23.5771
455 1 -1.1104 0.893649 19.5475 23.4945
457 2 2.2208 5.36529 15.2603 24.877
482 2 2.2208 5.36033 20.9265 24.9846
484 1 -1.1104 1.18415 13.9896 26.2934
518 1 -1.1104 0.986334 16.689 26.2593
519 1 -1.1104 1.12774 19.6101 26.1559
545 1 -1.1104 3.9303 13.7982 23.5722
547 1 -1.1104 3.90208 19.5009 23.537
340 2 2.2208 2.55843 15.2619 27.65
342 2 2.2208 2.53063 20.8893 27.639
9810 2 2.2208 -0.247744 17.9408 22.1706
9736 2 2.2208 -0.286027 18.0772 27.659
573 2 2.2208 8.09787 15.3515 22.2673
584 1 -1.1104 12.2119 19.6043 26.3318
583 1 -1.1104 12.3637 13.8802 26.373
606 1 -1.1104 12.3172 16.7131 23.5279
610 2 2.2208 10.9523 15.3747 25.0744
641 1 -1.1104 9.54078 19.634 23.5513
577 2 2.2208 10.8884 18.2702 22.2377
505 1 -1.1104 6.83691 16.7019 20.7058
495 1 -1.1104 6.70104 13.7962 20.6589
539 1 -1.1104 9.5922 19.5312 20.7439
574 1 -1.1104 9.54713 19.4972 26.3652
642 2 2.2208 8.08924 18.1446 25.0058
527 1 -1.1104 12.4237 19.423 20.7514
532 1 -1.1104 12.3452 16.5976 20.7954
544 1 -1.1104 9.59003 16.8093 20.7781
582 1 -1.1104 12.2246 19.6209 23.5486
581 1 -1.1104 12.4007 13.9035 23.6053
525 1 -1.1104 12.4254 13.8192 20.7725
548 2 2.2208 8.15929 20.8931 22.1678
580 1 -1.1104 9.54242 16.7601 23.7849
483 1 -1.1104 6.78548 19.5318 23.5417
546 1 -1.1104 6.85728 13.9491 26.1639
456 1 -1.1104 6.66516 13.7791 23.4451
520 1 -1.1104 6.61636 16.6998 26.3556
497 1 -1.1104 6.74092 19.5429 20.8113
613 1 -1.1104 9.59541 13.9443 23.4699
644 1 -1.1104 9.52928 13.9555 26.3707
579 1 -1.1104 9.40449 16.6167 26.4141
612 1 -1.1104 12.3756 16.601 26.4415
611 2 2.2208 11.0366 21.0196 24.9582
652 2 2.2208 5.39738 23.58 5.31761
653 2 2.2208 5.24352 29.2594 5.24056
654 1 -1.1104 1.2756 25.0085 1.003
655 1 -1.1104 1.13765 25.1415 3.86321
656 1 -1.1104 1.24182 22.2955 1.00037
657 1 -1.1104 1.09847 27.8657 0.932257
658 2 2.2208 5.29242 26.5605 2.49232
659 1 -1.1104 1.1951 22.2489 3.78013
660 1 -1.1104 1.08866 28.0316 3.86125
661 1 -1.1104 3.98104 25.1584 1.0632
662 2 2.2208 2.53438 23.6871 2.42556
663 2 2.2208 2.53649 29.4108 2.3476
664 1 -1.1104 3.86778 25.1547 3.86159
665 2 2.2208 2.43164 26.5727 5.22584
666 1 -1.1104 3.99366 22.2244 1.12076
667 1 -1.1104 3.96013 27.8862 0.965358
668 1 -1.1104 3.85142 22.3677 3.85938
669 1 -1.1104 3.84553 27.8978 3.80078
799 1 -1.1104 3.86146 24.9615 6.5991
678 1 -1.1104 6.79194 27.89 3.95954
675 1 -1.1104 6.79394 22.2254 1.03128
793 1 -1.1104 0.990621 25.1074 6.65838
801 1 -1.1104 3.92928 27.7611 6.67958
794 1 -1.1104 6.72653 25.1436 6.66723
670 2 2.2208 -0.323874 29.2409 5.34539
672 2 2.2208 -0.193349 26.5205 2.48746
671 2 2.2208 -0.334129 23.7008 5.26577
1020 2 2.2208 -0.179131 23.6315 -0.319401
1017 2 2.2208 2.51901 26.5369 -0.294383
1014 2 2.2208 5.3014 23.7118 -0.273833
1019 2 2.2208 -0.258768 29.2753 -0.279955
677 1 -1.1104 6.60404 22.221 3.9441
673 1 -1.1104 6.83563 25.066 1.13287
674 1 -1.1104 6.87343 25.0868 3.86346
676 1 -1.1104 6.4412 27.9155 1.18319
1024 2 2.2208 11.0074 29.2406 -0.181218
679 2 2.2208 10.9959 23.5665 5.30786
680 2 2.2208 10.8889 29.2968 5.28987
681 1 -1.1104 12.4332 25.2065 1.09341
682 1 -1.1104 12.4027 25.12 3.91166
683 1 -1.1104 12.5073 22.3145 0.891009
684 1 -1.1104 12.2427 27.8542 1.18788
685 2 2.2208 10.9472 26.5618 2.50764
686 1 -1.1104 12.316 22.2269 3.75456
687 1 -1.1104 12.2945 28.0091 3.92575
688 1 -1.1104 9.63098 25.0944 1.18918
689 2 2.2208 8.21473 23.6644 2.48803
690 2 2.2208 8.16287 29.2767 2.44642
691 1 -1.1104 9.69679 25.1694 4.03529
692 2 2.2208 8.16828 26.4737 5.27613
693 1 -1.1104 9.62456 22.2058 1.15134
694 1 -1.1104 9.40486 27.8517 1.0076
695 1 -1.1104 9.49138 22.1416 3.72008
696 1 -1.1104 9.55308 28.0315 3.749
1022 2 2.2208 8.12126 26.4696 -0.316897
1021 2 2.2208 10.9603 23.8614 -0.176414
826 1 -1.1104 12.2486 24.9859 6.62645
831 1 -1.1104 9.43305 27.9348 6.59592
1023 2 2.2208 13.7118 26.5982 -0.278106
700 2 2.2208 5.21791 34.8581 5.15751
701 1 -1.1104 1.23677 30.7162 1.02449
702 1 -1.1104 0.956022 36.4118 1.09769
704 1 -1.1104 1.09349 30.8339 3.76987
705 1 -1.1104 0.948439 36.5642 3.91527
707 1 -1.1104 1.07318 33.6437 1.26622
708 2 2.2208 5.35418 32.1149 2.52032
709 2 2.2208 5.278 37.7886 2.45027
710 1 -1.1104 1.07374 33.7171 3.96692
712 1 -1.1104 4.09168 30.7933 1.15531
713 1 -1.1104 3.96579 36.2606 1.09678
714 2 2.2208 2.4095 35.1322 2.46092
715 1 -1.1104 3.88455 30.7078 4.06992
716 1 -1.1104 3.70001 36.5252 3.92947
717 2 2.2208 2.39345 32.0437 5.26798
718 2 2.2208 2.38536 37.8349 5.28223
719 1 -1.1104 3.77005 33.5222 1.03568
720 1 -1.1104 3.8311 33.5313 3.83561
1027 2 2.2208 5.37261 34.9461 -0.331786
711 1 -1.1104 6.63887 33.5148 3.88168
722 2 2.2208 -0.293181 32.1989 2.51763
858 1 -1.1104 3.9015 33.413 6.70856
853 1 -1.1104 6.76835 36.3727 6.57992
850 1 -1.1104 1.14019 30.7736 6.69933
726 1 -1.1104 6.55536 33.5245 1.10193
706 1 -1.1104 6.56501 36.2817 3.99106
724 1 -1.1104 6.81509 30.7034 1.06977
703 1 -1.1104 6.74282 36.2732 1.046
725 1 -1.1104 6.76246 30.6881 3.81392
727 2 2.2208 10.8474 34.8398 5.20629
728 1 -1.1104 12.5425 30.6925 1.07277
729 1 -1.1104 12.3076 36.2322 1.1128
730 1 -1.1104 12.3196 30.6539 3.79506
731 1 -1.1104 12.2772 36.3168 3.86959
732 1 -1.1104 12.4632 33.3873 0.827318
733 2 2.2208 10.9538 32.1121 2.36189
734 2 2.2208 10.7806 37.5068 2.36097
735 1 -1.1104 12.2688 33.5019 3.8151
736 1 -1.1104 9.6653 30.7398 1.13648
737 1 -1.1104 9.51362 36.1619 0.986479
738 2 2.2208 7.96506 34.9088 2.59253
739 1 -1.1104 9.48485 30.7211 3.90131
740 1 -1.1104 9.4446 36.3872 3.77685
741 2 2.2208 8.15136 32.0805 5.30159
742 2 2.2208 8.13612 37.7788 5.14295
743 1 -1.1104 9.48863 33.5369 1.03624
744 1 -1.1104 9.41139 33.6127 3.88122
889 1 -1.1104 9.46461 33.4886 6.76669
855 1 -1.1104 6.65639 33.3854 6.61386