ITEM: TIMESTEP
10000
ITEM: NUMBER OF ATOMS
17820
ITEM: BOX BOUNDS pp pp pp
-3.5826986417940715e-01 2.7698269864179558e+01
-4.3078974835986124e+00 3.3238789748359636e+02
-3.5663660257562213e-01 2.7696636602575573e+01
ITEM: ATOMS id type q x y z
1 2 2.2208 5.21245 1.46115 5.17244
2 1 -1.1104 1.05907 -2.7483 0.920962
3 1 -1.1104 0.883468 2.67903 1.041
6 1 -1.1104 1.04928 -2.85679 3.7708
7 1 -1.1104 0.913602 2.75459 3.80382
10 1 -1.1104 1.03127 -0.106492 0.887005
12 2 2.2208 5.18267 -1.52876 2.18486
14 1 -1.1104 1.18024 -0.113825 3.71065
16 1 -1.1104 3.83104 -2.96324 0.842547
17 1 -1.1104 3.78106 2.69024 1.00035
18 2 2.2208 2.43441 1.3231 2.46768
19 1 -1.1104 3.83145 -2.87254 3.62694
20 1 -1.1104 3.77043 2.77147 3.70654
21 2 2.2208 2.59896 -1.40043 5.1507
23 1 -1.1104 3.80345 -0.115158 0.926492
24 1 -1.1104 3.83593 -0.14061 3.75791
13 2 2.2208 5.15174 4.24967 2.19376
201 1 -1.1104 9.40902 19.5223 9.45155
11 1 -1.1104 6.57429 -0.0536744 0.836485
8 1 -1.1104 6.48849 -3.01851 3.77498
230 1 -1.1104 9.41055 16.711 12.1876
170 1 -1.1104 1.2458 0.113357 6.5174
9014 2 2.2208 2.4635 -4.17482 7.9208
5 1 -1.1104 6.60183 2.80096 0.898984
9429 2 2.2208 13.5642 4.18129 5.03888
173 1 -1.1104 3.89356 2.77674 6.65533
172 1 -1.1104 3.86207 -2.99349 6.41578
171 1 -1.1104 6.51282 -0.0857102 6.41088
9728 2 2.2208 -0.395185 1.43971 5.21399
9 1 -1.1104 6.56729 2.91067 3.67645
15 1 -1.1104 6.58147 -0.0243429 3.55585
4 1 -1.1104 6.58684 -3.07036 1.05362
31 2 2.2208 10.7121 1.39837 5.1701
32 1 -1.1104 12.1662 -2.85815 1.07224
33 1 -1.1104 12.3361 2.77822 0.850824
34 1 -1.1104 12.3001 -2.87408 3.87787
35 1 -1.1104 12.0547 2.68076 3.70638
36 1 -1.1104 12.186 -0.0648859 1.02434
37 2 2.2208 10.786 -1.41455 2.44962
38 2 2.2208 10.8819 4.16467 2.33638
39 1 -1.1104 12.2249 -0.0722596 3.74221
40 1 -1.1104 9.32296 -2.92834 0.844201
41 1 -1.1104 9.42081 2.70468 1.01386
42 2 2.2208 7.99807 1.41421 2.30998
43 1 -1.1104 9.42885 -2.84025 3.74978
44 1 -1.1104 9.25771 2.66934 3.7848
45 2 2.2208 7.95274 -1.50797 5.13536
46 2 2.2208 7.97574 4.20077 5.00666
47 1 -1.1104 9.42903 0.0177814 1.02679
48 1 -1.1104 9.3273 0.0582054 3.93364
9641 2 2.2208 13.7058 12.5884 8.02989
9012 2 2.2208 7.87206 -4.35986 2.36455
168 1 -1.1104 6.57418 -2.94194 6.67759
208 1 -1.1104 9.34852 -2.99849 6.58239
207 1 -1.1104 12.2394 -0.013542 6.56097
206 1 -1.1104 12.2157 2.76761 6.35256
209 1 -1.1104 9.40728 2.78401 6.47785
83 2 2.2208 10.8403 20.9547 8.05041
199 2 2.2208 7.85068 18.1633 7.96322
27 1 -1.1104 12.1634 13.9909 12.0916
52 2 2.2208 -0.469922 21.0295 8.00309
22 2 2.2208 2.42098 4.12422 5.15278
9729 2 2.2208 -0.361478 4.12688 2.42224
54 2 2.2208 5.25814 6.99277 5.10474
55 2 2.2208 5.25127 12.7085 5.23107
56 1 -1.1104 1.12536 8.44819 1.18672
58 1 -1.1104 0.98062 8.32818 3.94024
60 1 -1.1104 1.00012 5.55135 0.971204
61 1 -1.1104 1.00292 11.3216 1.09799
66 2 2.2208 5.32548 9.85842 2.31687
67 1 -1.1104 1.11406 5.49155 3.831
68 1 -1.1104 1.09575 11.1365 3.88057
71 1 -1.1104 4.01851 8.29563 0.912372
72 2 2.2208 2.42162 6.97959 2.42157
73 2 2.2208 2.3769 12.6444 2.45266
74 1 -1.1104 3.79156 8.40403 3.89974
75 2 2.2208 2.45458 9.90271 5.2156
76 1 -1.1104 3.6599 5.56416 0.993614
77 1 -1.1104 3.81732 11.27 1.11904
79 1 -1.1104 3.87765 5.60449 3.77298
80 1 -1.1104 3.84007 11.3565 3.89142
204 2 2.2208 8.01813 15.2997 10.7464
343 2 2.2208 5.1607 6.91771 -0.49365
59 1 -1.1104 6.59907 8.40498 3.65912
50 1 -1.1104 12.2962 14.0137 9.35825
64 1 -1.1104 6.7771 11.2298 0.99704
63 1 -1.1104 6.56461 5.5953 0.895322
57 1 -1.1104 6.77312 8.26686 1.02128
105 1 -1.1104 9.4404 13.9367 12.2953
62 1 -1.1104 0.903319 11.2734 6.8338
137 1 -1.1104 9.42544 19.643 12.0592
28 2 2.2208 13.6457 20.9402 10.8379
344 2 2.2208 2.5057 9.93494 -0.322708
339 2 2.2208 8.06445 4.19605 -0.423416
70 1 -1.1104 6.66801 11.2373 3.79248
69 1 -1.1104 6.70563 5.65304 3.68328
84 2 2.2208 10.7966 6.92249 5.08277
85 2 2.2208 11.0169 12.5906 5.11655
86 1 -1.1104 12.2811 8.50211 1.10707
87 1 -1.1104 12.2182 8.33859 3.90201
88 1 -1.1104 12.0932 5.74449 1.07848
89 1 -1.1104 12.3134 11.1759 0.911437
91 2 2.2208 10.8212 9.7676 2.3067
92 1 -1.1104 12.3134 5.53545 3.65433
93 1 -1.1104 12.3419 11.137 3.65897
94 1 -1.1104 9.44204 8.32279 0.924933
95 2 2.2208 8.04806 6.93681 2.33228
96 2 2.2208 8.11191 12.6025 2.40153
97 1 -1.1104 9.37381 8.3496 3.82173
98 2 2.2208 8.08925 9.74375 5.0688
99 1 -1.1104 9.45241 5.50567 0.912534
100 1 -1.1104 9.45326 11.168 0.872734
102 1 -1.1104 9.47456 5.56659 3.75893
103 1 -1.1104 9.44132 11.1833 3.61897
235 1 -1.1104 6.65183 8.29193 6.60323
25 2 2.2208 13.6659 18.1863 8.00012
101 1 -1.1104 9.48333 11.3014 6.46344
9733 2 2.2208 -0.385665 7.056 5.25461
9727 2 2.2208 13.6701 15.2438 10.7766
106 2 2.2208 5.14229 18.2201 4.93495
107 1 -1.1104 0.989342 14.0232 1.09054
109 1 -1.1104 1.00645 19.4648 0.953625
113 1 -1.1104 1.07119 13.8985 3.88701
114 1 -1.1104 1.03018 19.4584 3.78085
116 1 -1.1104 0.802564 16.6848 1.02305
119 2 2.2208 5.23841 15.5295 2.37188
120 2 2.2208 5.27844 21.0079 2.40137
121 1 -1.1104 1.16265 16.7525 3.83529
123 1 -1.1104 3.80681 14.07 0.995878
125 1 -1.1104 3.8245 19.582 1.08447
127 2 2.2208 2.46169 18.0846 2.36138
128 1 -1.1104 4.01523 14.157 3.82896
129 1 -1.1104 3.68885 19.5322 3.73499
130 2 2.2208 2.43373 15.426 5.31706
131 2 2.2208 2.39567 21.0545 5.34926
132 1 -1.1104 3.81705 16.7637 1.04015
134 1 -1.1104 3.94331 16.7169 3.76241
117 1 -1.1104 0.942156 16.7725 6.59201
133 1 -1.1104 3.84273 16.7875 6.72113
110 1 -1.1104 6.55946 14.1769 0.883998
124 1 -1.1104 3.80888 14.0008 6.63509
302 1 -1.1104 0.885095 19.541 6.64169
30 1 -1.1104 9.52963 16.8064 9.42631
342 2 2.2208 2.46543 20.9984 -0.269815
229 2 2.2208 8.00596 20.9425 10.712
138 1 -1.1104 6.67478 19.714 1.08451
140 1 -1.1104 6.66674 16.9349 0.925543
122 1 -1.1104 6.75528 16.8533 3.62872
115 1 -1.1104 6.77767 13.9997 3.79076
139 1 -1.1104 6.71903 19.6331 3.71179
141 2 2.2208 10.8057 18.1263 5.19868
142 1 -1.1104 12.2951 13.8067 0.998783
144 1 -1.1104 12.2982 19.6262 1.03128
146 1 -1.1104 12.4427 14.0578 3.73278
147 1 -1.1104 12.2834 19.7385 3.9335
148 1 -1.1104 12.4479 16.8982 1.02739
150 2 2.2208 10.865 15.3817 2.28925
151 2 2.2208 10.9032 21.0586 2.40703
152 1 -1.1104 12.3709 16.8615 3.84833
153 1 -1.1104 9.31081 14.1112 1.04861
155 1 -1.1104 9.47435 19.5897 1.01314
157 2 2.2208 8.11702 18.2234 2.42638
158 1 -1.1104 9.5581 14.0154 3.73259
159 1 -1.1104 9.45328 19.47 3.88811
160 2 2.2208 8.17183 15.382 5.14909
161 2 2.2208 7.96125 21 5.16291
162 1 -1.1104 9.46748 16.7549 0.907636
164 1 -1.1104 9.48464 16.6448 3.75023
118 1 -1.1104 6.61704 16.9019 6.44648
111 1 -1.1104 6.5966 14.0703 6.7037
154 1 -1.1104 9.4069 14.0775 6.64509
143 1 -1.1104 12.2168 13.9438 6.61319
149 1 -1.1104 12.3343 16.7434 6.41259
104 1 -1.1104 12.2327 16.8727 9.36569
9590 2 2.2208 -0.474238 4.21732 7.9317
337 2 2.2208 10.9227 1.4711 -0.349265
167 1 -1.1104 1.01686 2.73849 6.54641
166 1 -1.1104 1.1487 -2.79912 6.51327
174 1 -1.1104 3.92972 -0.0684822 6.47885
9015 2 2.2208 5.22562 -4.31715 10.7718
9624 2 2.2208 -0.480824 18.2124 5.16644
175 2 2.2208 5.20546 1.49291 10.5962
176 1 -1.1104 1.05155 -2.80673 12.0894
177 1 -1.1104 0.944957 2.72051 12.0916
180 1 -1.1104 0.952662 -2.93838 9.44275
181 1 -1.1104 1.09023 2.79465 9.3483
184 1 -1.1104 1.06428 -0.0594896 12.0652
186 2 2.2208 5.16385 -1.54489 7.8734
187 2 2.2208 5.22535 4.2995 7.92977
188 1 -1.1104 1.13346 0.0306244 9.34724
190 1 -1.1104 3.91686 -2.80102 12.0598
191 1 -1.1104 3.73811 2.76942 12.1043
192 2 2.2208 2.53299 1.48474 7.92394
193 1 -1.1104 3.74537 -2.74655 9.25752
194 1 -1.1104 3.81495 2.90749 9.2898
195 2 2.2208 2.45378 -1.42886 10.6791
196 2 2.2208 2.51756 4.18214 10.6768
197 1 -1.1104 3.75339 -0.0227687 11.9938
198 1 -1.1104 3.94137 -0.0604448 9.25555
185 1 -1.1104 6.63257 -0.0294516 12.0084
178 1 -1.1104 6.73656 -2.93877 12.1205
9457 2 2.2208 -0.440443 1.24956 10.6581
330 2 2.2208 5.21508 1.45986 -0.394159
9029 2 2.2208 2.44346 -4.22475 13.4519
135 2 2.2208 -0.486836 15.4872 2.40941
53 1 -1.1104 12.2724 19.6259 9.44164
9025 2 2.2208 5.18122 -4.33564 -0.456616
183 1 -1.1104 6.68234 2.91104 9.24089
189 1 -1.1104 6.69828 -0.0626249 9.22027
205 1 -1.1104 12.2818 -2.85271 6.63196
169 1 -1.1104 6.65377 2.75207 6.51402
179 1 -1.1104 6.57112 2.80431 12.0786
210 1 -1.1104 9.36049 -0.178582 6.55119
182 1 -1.1104 6.47209 -2.77167 9.30076
211 2 2.2208 10.8909 1.19918 10.6777
212 1 -1.1104 12.3333 -2.77932 12.1063
213 1 -1.1104 12.2783 2.63706 12.1248
214 1 -1.1104 12.1643 -3.00496 9.4344
215 1 -1.1104 12.0921 2.83518 9.29319
216 1 -1.1104 12.3827 -0.0693307 12.1738
217 2 2.2208 10.7695 -1.57479 7.88528
218 2 2.2208 10.7222 4.14331 7.88131
219 1 -1.1104 12.2499 -0.153487 9.29562
220 1 -1.1104 9.46573 -2.77562 12.1543
221 1 -1.1104 9.52588 2.87113 12.1032
222 2 2.2208 8.00713 1.25643 7.82081
223 1 -1.1104 9.23499 -2.90948 9.33521
224 1 -1.1104 9.43733 2.67862 9.245
225 2 2.2208 8.07045 -1.47486 10.787
226 2 2.2208 8.09209 4.1655 10.6929
227 1 -1.1104 9.5537 0.0437802 12.1247
228 1 -1.1104 9.47895 -0.063222 9.41153
9016 2 2.2208 8.06642 -4.3975 7.99382
9017 2 2.2208 10.762 -4.24552 10.7238
49 1 -1.1104 12.2619 19.6451 12.2561
9732 2 2.2208 13.8086 12.4693 2.29837
82 2 2.2208 10.8607 15.4545 8.02473
236 1 -1.1104 0.805209 5.75707 6.66902
234 1 -1.1104 0.967767 8.51076 6.69727
78 1 -1.1104 3.78853 11.279 6.74334
237 1 -1.1104 6.53845 5.58117 6.52197
156 1 -1.1104 9.30925 19.5498 6.66527
238 1 -1.1104 3.75532 8.51435 6.52492
239 1 -1.1104 3.69209 5.60363 6.54297
240 2 2.2208 5.38516 7.07233 10.8186
241 2 2.2208 5.11698 12.5386 10.8725
242 1 -1.1104 1.15572 8.32547 12.3086
244 1 -1.1104 1.08164 8.37254 9.38587
246 1 -1.1104 1.05853 5.49053 12.1044
247 1 -1.1104 0.913323 11.1757 12.2423
250 2 2.2208 5.30127 9.80674 7.91667
251 1 -1.1104 1.01183 5.64122 9.38519
252 1 -1.1104 0.958298 11.2254 9.54538
255 1 -1.1104 3.94003 8.47152 12.288
256 2 2.2208 2.43177 7.09642 7.91169
257 2 2.2208 2.23208 12.5907 8.09447
258 1 -1.1104 3.91254 8.45488 9.29201
259 2 2.2208 2.41881 9.82292 10.7429
260 1 -1.1104 3.90426 5.59957 12.1262
261 1 -1.1104 3.81665 11.1285 12.2419
262 1 -1.1104 3.934 5.64821 9.36103
263 1 -1.1104 3.74683 11.2242 9.54114
9651 2 2.2208 -0.433023 12.625 10.8424
249 1 -1.1104 6.58636 11.1201 12.2699
254 1 -1.1104 6.64558 11.288 9.25704
245 1 -1.1104 6.86008 8.54707 9.28154
297 1 -1.1104 6.60651 13.8947 12.2472
9758 2 2.2208 -0.243213 9.77232 13.7525
65 1 -1.1104 6.62443 11.1562 6.44396
265 1 -1.1104 12.0728 8.41975 6.53889
267 1 -1.1104 9.28292 8.44645 6.66103
269 1 -1.1104 9.41767 5.60711 6.57156
248 1 -1.1104 6.65346 5.66687 12.2358
243 1 -1.1104 6.76824 8.35387 12.1278
90 1 -1.1104 12.4457 11.1452 6.55285
253 1 -1.1104 6.73025 5.62936 9.46859
266 1 -1.1104 12.1792 5.51873 6.47714
264 1 -1.1104 9.38706 11.2586 9.45761
268 1 -1.1104 9.53082 5.60613 9.36934
270 1 -1.1104 9.4367 11.152 12.1942
271 1 -1.1104 9.56984 5.64338 12.1705
272 2 2.2208 8.05095 9.82815 10.7871
273 1 -1.1104 9.53842 8.38599 9.33054
274 2 2.2208 7.97589 12.5755 7.97611
275 2 2.2208 8.02218 6.93129 7.97445
276 2 2.2208 10.9261 7.06602 10.7896
277 2 2.2208 10.7412 12.5911 10.8218
278 1 -1.1104 12.3979 8.35781 12.284
279 1 -1.1104 12.2328 8.41787 9.40509
280 1 -1.1104 12.3183 5.35624 12.2196
281 1 -1.1104 12.2952 11.113 12.264
282 2 2.2208 10.7946 9.8126 7.9348
283 1 -1.1104 12.28 5.56991 9.26829
284 1 -1.1104 12.1451 11.2134 9.43208
285 1 -1.1104 9.40016 8.28929 12.1673
163 1 -1.1104 9.38225 16.8748 6.64419
145 1 -1.1104 12.2602 19.525 6.73064
200 1 -1.1104 9.41882 14.0474 9.3495
81 1 -1.1104 12.1519 16.8256 12.2113
233 1 -1.1104 6.53638 16.7947 12.2682
289 1 -1.1104 6.62154 16.8211 9.38573
9527 2 2.2208 13.7474 15.45 5.09985
126 1 -1.1104 3.64337 19.6964 6.60371
108 1 -1.1104 1.02088 13.9379 6.54284
112 1 -1.1104 6.46373 19.6761 6.43389
288 1 -1.1104 6.57465 19.6336 9.17979
296 1 -1.1104 6.6381 19.502 12.2008
51 2 2.2208 -0.354993 18.2674 10.7402
202 2 2.2208 2.45635 15.3854 10.6711
203 2 2.2208 2.3706 21.1232 10.7219
231 1 -1.1104 3.62129 16.9878 12.2105
232 1 -1.1104 0.949222 16.7412 12.1011
286 1 -1.1104 3.84096 19.7274 12.0344
287 1 -1.1104 3.8099 14.0205 12.2132
291 1 -1.1104 0.924206 19.6221 9.38669
292 1 -1.1104 0.908897 16.8024 9.38982
293 2 2.2208 5.20168 21.0635 7.98962
294 1 -1.1104 1.10142 14.101 9.31589
295 2 2.2208 5.14912 15.3341 7.98872
298 1 -1.1104 0.952631 19.6826 12.1817
299 1 -1.1104 1.26375 13.9281 12.092
300 2 2.2208 5.29432 18.2714 10.7762
301 1 -1.1104 3.744 19.6518 9.37458
303 2 2.2208 2.38069 18.141 8.05103
304 1 -1.1104 3.9197 16.8134 9.41251
305 1 -1.1104 3.73861 14.0404 9.37249
290 1 -1.1104 6.56044 14.042 9.46464
26 2 2.2208 10.7726 18.2203 10.8212
325 2 2.2208 5.25313 15.3977 13.6611
9748 2 2.2208 -0.420166 4.11285 13.6704
311 2 2.2208 5.24686 4.17256 13.459
315 2 2.2208 10.8463 -1.45428 13.5609
9767 2 2.2208 -0.401737 15.3865 13.5061
318 2 2.2208 5.26 9.67756 13.7524
9458 2 2.2208 13.7137 9.72536 5.17978
9777 2 2.2208 13.7374 4.2779 -0.449718
328 2 2.2208 7.9179 18.2572 13.657
331 2 2.2208 2.46446 -1.54273 -0.610303
29 2 2.2208 13.6194 20.9855 5.38423
9726 2 2.2208 -0.276707 -1.41475 2.41815
306 2 2.2208 -0.36027 20.9972 13.6501
317 2 2.2208 2.56048 6.92914 13.742
17465 2 2.2208 -0.271464 -4.33201 -0.463274
319 2 2.2208 2.51355 12.5732 13.5613
345 2 2.2208 5.13935 12.687 -0.373078
329 2 2.2208 13.7357 18.0447 13.7472
335 2 2.2208 10.725 6.98795 -0.422043
333 2 2.2208 10.8609 12.5663 -0.450631
9737 2 2.2208 -0.419819 1.2989 -0.374834
326 2 2.2208 10.8478 20.997 13.5088
346 2 2.2208 5.34046 1.34041 16.2712
347 1 -1.1104 0.910734 -2.70755 17.6392
348 1 -1.1104 0.969971 2.71102 17.6971
351 1 -1.1104 0.910738 -2.8157 14.747
353 1 -1.1104 1.09924 2.68228 14.9313
359 1 -1.1104 0.96026 -0.024858 17.6944
361 2 2.2208 5.07797 -1.42941 19.2619
362 2 2.2208 5.14903 4.10891 19.2158
363 1 -1.1104 1.19758 -0.0767265 14.8538
367 1 -1.1104 3.82638 -2.88589 17.8075
368 1 -1.1104 3.85622 2.78157 17.7544
369 2 2.2208 2.38159 1.3009 19.104
370 1 -1.1104 3.75388 -2.90606 14.868
372 1 -1.1104 3.94021 2.65545 14.8874
374 2 2.2208 2.50738 -1.43492 16.2672
375 2 2.2208 2.44646 4.10691 16.4011
376 1 -1.1104 3.76682 -0.105966 17.7319
377 1 -1.1104 4.08353 -0.0467244 15.0406
355 1 -1.1104 6.58421 -2.88099 14.9728
360 1 -1.1104 6.72037 0.107724 17.7822
9100 2 2.2208 2.49425 -4.37319 24.7933
9138 2 2.2208 5.28418 -4.19628 16.3115
9137 2 2.2208 2.29256 -4.23847 19.0223
582 1 -1.1104 12.1228 19.6829 23.4878
378 1 -1.1104 3.88768 -0.0628627 20.5476
354 1 -1.1104 0.786768 2.67632 20.5842
356 1 -1.1104 6.64845 -2.71247 20.6122
366 1 -1.1104 6.653 0.0289717 20.65
9855 2 2.2208 -0.456923 4.18311 19.1745
381 2 2.2208 -0.299254 18.2098 16.3092
581 1 -1.1104 12.305 14.1221 23.5109
9022 2 2.2208 10.7269 -4.33898 27.7323
9102 2 2.2208 8.00377 -4.18468 19.2263
357 1 -1.1104 6.72648 2.73152 14.9524
349 1 -1.1104 6.53435 -2.7099 17.827
365 1 -1.1104 6.82281 -0.174827 14.8449
350 1 -1.1104 6.7351 2.74127 17.9119
389 2 2.2208 10.9471 1.27282 16.2987
390 1 -1.1104 12.2993 -2.9413 17.6851
391 1 -1.1104 12.2171 2.71091 17.8072
392 1 -1.1104 12.243 -2.86132 14.9861
394 1 -1.1104 12.2983 2.72919 14.8965
396 1 -1.1104 12.1418 -0.217451 17.6782
397 2 2.2208 10.812 -1.59178 19.1783
398 2 2.2208 10.8152 4.1517 19.211
399 1 -1.1104 12.3355 -0.139943 14.986
401 1 -1.1104 9.40607 -2.97148 17.8455
402 1 -1.1104 9.51682 2.67552 17.6489
403 2 2.2208 8.11828 1.34805 19.2285
404 1 -1.1104 9.38286 -2.80277 14.9878
406 1 -1.1104 9.55974 2.75541 14.8481
408 2 2.2208 8.03291 -1.46313 16.4412
409 2 2.2208 8.00081 4.11051 16.4336
410 1 -1.1104 9.51333 -0.183389 17.7529
411 1 -1.1104 9.60891 0.00109997 14.8919
9136 2 2.2208 10.8679 -4.20047 16.3383
548 2 2.2208 7.88007 20.9443 22.1748
358 1 -1.1104 6.47507 2.71695 20.772
412 1 -1.1104 9.49642 -0.0631352 20.4593
400 1 -1.1104 12.2177 -0.038755 20.4877
407 1 -1.1104 9.43327 2.72209 20.6042
405 1 -1.1104 9.52825 -2.93955 20.6385
393 1 -1.1104 12.2889 -2.89015 20.6197
416 2 2.2208 13.6903 9.75773 16.3867
9893 2 2.2208 -0.248928 12.4413 16.3568
422 2 2.2208 5.32496 6.91415 16.5179
423 2 2.2208 5.10975 12.5434 16.3852
424 1 -1.1104 1.01049 8.34173 17.822
426 1 -1.1104 1.03515 8.29739 15.1288
430 1 -1.1104 0.898296 5.53918 17.7971
431 1 -1.1104 1.04576 11.137 17.8187
434 2 2.2208 5.24823 9.7247 19.1428
435 1 -1.1104 1.00549 5.47231 14.9929
437 1 -1.1104 1.11077 11.1368 15.0386
443 1 -1.1104 3.87376 8.32015 17.772
444 2 2.2208 2.35669 6.9735 19.3805
445 2 2.2208 2.44514 12.507 19.1471
446 1 -1.1104 3.92463 8.2836 15.1418
448 2 2.2208 2.4973 9.66885 16.5035
449 1 -1.1104 3.82619 5.60368 17.891
450 1 -1.1104 3.84322 10.9869 17.9261
451 1 -1.1104 3.79466 5.53838 15.0727
453 1 -1.1104 3.83815 11.196 15.0619
415 2 2.2208 -0.363531 9.68828 19.1897
436 1 -1.1104 1.06041 5.47528 20.7114
447 1 -1.1104 3.86353 8.44481 20.6499
452 1 -1.1104 3.74514 5.63732 20.8722
9928 2 2.2208 -0.325252 6.92771 16.453
428 1 -1.1104 6.68532 8.2353 15.0072
454 1 -1.1104 3.76951 11.3275 20.6229
438 1 -1.1104 0.98671 11.1225 20.5667
9813 2 2.2208 -0.406936 1.3291 22.0014
322 2 2.2208 8.03288 12.5289 13.7012
432 1 -1.1104 6.63639 5.52914 17.8292
433 1 -1.1104 6.53457 11.1777 17.8372
425 1 -1.1104 6.72188 8.31577 17.7482
441 1 -1.1104 6.65204 11.1502 15.05
439 1 -1.1104 6.56632 5.44391 15.0007
458 2 2.2208 10.8327 6.93322 16.4439
459 2 2.2208 10.7672 12.5785 16.4225
460 1 -1.1104 12.2812 8.22332 17.6171
461 1 -1.1104 12.4491 8.41916 15.0252
463 1 -1.1104 12.3333 5.40484 17.7758
464 1 -1.1104 12.217 11.042 17.7822
465 2 2.2208 10.8577 9.7632 19.2141
466 1 -1.1104 12.2208 5.58241 15.0571
468 1 -1.1104 12.0695 11.1357 15.068
470 1 -1.1104 9.35339 8.23567 17.9145
471 2 2.2208 7.97077 6.84392 19.2162
472 2 2.2208 7.99473 12.5115 19.1089
473 1 -1.1104 9.49407 8.37653 15.038
475 2 2.2208 8.03247 9.79887 16.4476
476 1 -1.1104 9.40529 5.46365 17.8831
477 1 -1.1104 9.45449 11.1656 17.8221
478 1 -1.1104 9.32051 5.56777 15.1512
480 1 -1.1104 9.33043 11.2112 15.0787
429 1 -1.1104 6.5471 8.26553 20.5095
440 1 -1.1104 6.41167 5.50353 20.6477
467 1 -1.1104 12.0955 5.52083 20.6509
320 2 2.2208 8.03972 7.00518 13.6456
462 1 -1.1104 12.261 8.36553 20.4513
474 1 -1.1104 9.51686 8.48686 20.5911
479 1 -1.1104 9.23003 5.69888 20.7223
469 1 -1.1104 12.1049 11.2133 20.6861
583 1 -1.1104 12.215 13.981 26.2488
612 1 -1.1104 12.1099 16.8269 26.3668
584 1 -1.1104 12.1213 19.6757 26.2966
485 2 2.2208 5.16761 18.3285 16.427
486 1 -1.1104 1.10396 13.8797 17.7943
487 1 -1.1104 0.961148 19.6462 17.8143
490 1 -1.1104 1.01213 14.0041 14.9863
492 1 -1.1104 0.967252 19.736 15.1415
498 1 -1.1104 0.927001 16.7524 17.8384
500 2 2.2208 5.0828 15.3796 19.1334
501 2 2.2208 5.01103 20.9882 19.3291
502 1 -1.1104 1.10367 16.9044 14.956
506 1 -1.1104 3.81028 13.9295 17.8109
507 1 -1.1104 3.75657 19.587 17.8977
508 2 2.2208 2.25475 18.2553 19.2928
509 1 -1.1104 3.83363 14.121 15.0408
511 1 -1.1104 3.72919 19.8464 15.1464
513 2 2.2208 2.36073 15.4978 16.3762
514 2 2.2208 2.33189 21.1339 16.472
515 1 -1.1104 3.82218 16.7662 17.7414
516 1 -1.1104 3.97363 16.9541 14.9751
606 1 -1.1104 12.1365 16.9577 23.4149
517 1 -1.1104 3.55668 16.7641 20.6375
494 1 -1.1104 6.49487 13.9279 14.9993
496 1 -1.1104 6.4266 19.6081 15.1015
493 1 -1.1104 0.960329 19.5899 20.7021
512 1 -1.1104 3.67864 19.6618 20.6787
503 1 -1.1104 0.906601 16.8016 20.6218
321 2 2.2208 10.8827 9.68042 13.5766
642 2 2.2208 7.90087 18.2748 24.7476
577 2 2.2208 10.7509 18.1791 22.1138
504 1 -1.1104 6.70781 16.84 15.03
573 2 2.2208 7.92977 15.3381 22.0095
489 1 -1.1104 6.53269 19.6339 17.9834
488 1 -1.1104 6.54209 14.0782 17.833
499 1 -1.1104 6.47854 16.851 17.7859
521 2 2.2208 10.9145 18.2863 16.5439
522 1 -1.1104 12.2243 13.8019 17.7921
523 1 -1.1104 12.3549 19.6168 17.9657
524 1 -1.1104 12.2212 14.0017 14.864
526 1 -1.1104 12.3478 19.6397 15.0171
528 1 -1.1104 12.2917 16.7984 17.9274
529 2 2.2208 10.8916 15.336 19.1727
530 2 2.2208 10.9361 20.8144 19.3617
531 1 -1.1104 12.3138 16.7761 15.0172
533 1 -1.1104 9.51 13.8954 17.7918
534 1 -1.1104 9.53613 19.6456 17.7482
535 2 2.2208 8.0364 18.1691 19.2228
536 1 -1.1104 9.40781 14.0898 15.0583
538 1 -1.1104 9.41904 19.6183 14.9655
540 2 2.2208 7.91407 15.4366 16.4601
541 2 2.2208 7.96538 21.0148 16.6651
542 1 -1.1104 9.39961 16.8518 17.8289
543 1 -1.1104 9.51131 16.9546 15.0732
527 1 -1.1104 12.2193 19.5537 20.7717
525 1 -1.1104 12.1945 14.0482 20.6355
539 1 -1.1104 9.32761 19.5633 20.6589
580 1 -1.1104 9.31422 16.7622 23.3319
327 2 2.2208 10.7793 15.4376 13.6403
9101 2 2.2208 5.18264 -4.1743 21.934
641 1 -1.1104 9.33076 19.5438 23.4575
364 1 -1.1104 1.06623 -0.109883 20.529
352 1 -1.1104 0.950262 -2.93296 20.4809
373 1 -1.1104 3.60538 2.65339 20.5864
371 1 -1.1104 3.77023 -2.85536 20.6678
549 2 2.2208 5.19015 1.36409 22.0337
550 1 -1.1104 1.14508 -3.04525 23.427
551 1 -1.1104 0.993596 2.60562 23.5584
554 1 -1.1104 1.07154 -2.99576 26.1818
555 1 -1.1104 1.02579 2.76084 26.2146
558 1 -1.1104 1.10732 -0.222897 23.457
560 2 2.2208 5.26286 -1.44068 24.7967
561 2 2.2208 5.21882 4.18337 24.8349
562 1 -1.1104 1.02579 -0.18268 26.2264
564 1 -1.1104 3.83766 -2.89351 23.3551
565 1 -1.1104 3.68442 2.72437 23.4504
566 2 2.2208 2.41236 1.37909 24.7575
567 1 -1.1104 3.87707 -2.91587 26.1685
568 1 -1.1104 3.88014 2.75022 26.292
569 2 2.2208 2.41061 -1.50538 21.9284
570 2 2.2208 2.33376 4.17345 22.135
571 1 -1.1104 3.91836 -0.0860474 23.3158
572 1 -1.1104 3.80271 -0.0355021 26.1758
9814 2 2.2208 -0.467314 4.15423 24.87
579 1 -1.1104 9.44627 16.9663 26.0076
520 1 -1.1104 6.69457 16.8531 26.2302
456 1 -1.1104 6.6666 13.9355 23.5714
644 1 -1.1104 9.48823 14.0565 26.222
9811 2 2.2208 -0.359835 -1.5229 24.9689
10019 2 2.2208 13.5838 4.31988 21.9928
9098 2 2.2208 7.97442 -4.37143 24.7678
556 1 -1.1104 6.69841 -2.82159 26.2602
553 1 -1.1104 6.58424 2.83695 23.4228
395 1 -1.1104 12.3199 2.85243 20.4813
557 1 -1.1104 6.63556 2.89999 26.1782
559 1 -1.1104 6.72922 0.0185406 23.4428
563 1 -1.1104 6.65543 0.067262 26.1898
552 1 -1.1104 6.67874 -2.97042 23.3749
585 2 2.2208 10.9831 1.37232 21.8866
586 1 -1.1104 12.1535 -2.74359 23.3216
587 1 -1.1104 12.2247 2.95502 23.258
588 1 -1.1104 12.2406 -2.85244 26.2201
589 1 -1.1104 12.3506 2.86553 26.1009
590 1 -1.1104 12.3573 0.095186 23.3959
591 2 2.2208 10.8992 -1.42568 24.8839
592 2 2.2208 10.7716 4.24336 24.6819
593 1 -1.1104 12.3529 0.113766 26.226
594 1 -1.1104 9.49874 -2.85951 23.5426
595 1 -1.1104 9.41398 2.84035 23.2895
596 2 2.2208 7.96077 1.49512 24.8664
597 1 -1.1104 9.50415 -2.9918 26.2215
598 1 -1.1104 9.44206 2.81048 26.3652
599 2 2.2208 8.08966 -1.33068 21.9328
600 2 2.2208 7.9193 4.1132 21.9797
601 1 -1.1104 9.58413 -0.0303129 23.287
602 1 -1.1104 9.52581 -0.0926553 26.1686
17544 2 2.2208 -0.393735 -4.30681 22.1343
532 1 -1.1104 12.293 16.8194 20.6662
611 2 2.2208 10.7103 20.9763 24.9606
613 1 -1.1104 9.31218 14.0392 23.3981
427 1 -1.1104 1.11996 8.28235 20.7066
643 1 -1.1104 6.62766 19.6033 26.3248
614 2 2.2208 5.13155 6.94866 22.069
615 2 2.2208 5.30309 12.5223 22.1253
616 1 -1.1104 0.955812 8.27983 23.4148
618 1 -1.1104 1.15313 8.41377 26.3202
620 1 -1.1104 0.967977 5.51627 23.6347
621 1 -1.1104 1.06559 11.1133 23.4513
624 2 2.2208 5.11791 9.90961 24.8088
625 1 -1.1104 0.964974 5.48571 26.3417
626 1 -1.1104 0.990476 11.2372 26.2579
629 1 -1.1104 3.80163 8.38951 23.4872
630 2 2.2208 2.40917 7.04255 24.8983
631 2 2.2208 2.36756 12.6193 24.8378
632 1 -1.1104 3.85439 8.24172 26.2833
633 2 2.2208 2.50526 9.8162 22.0362
634 1 -1.1104 3.81741 5.45728 23.5634
635 1 -1.1104 3.86713 11.3239 23.5897
636 1 -1.1104 3.76884 5.52427 26.2929
637 1 -1.1104 3.69531 11.3342 26.3408
628 1 -1.1104 6.46818 11.1335 26.1868
627 1 -1.1104 6.62933 5.65001 26.1863
9774 2 2.2208 -0.484333 12.6762 27.7715
497 1 -1.1104 6.38759 19.5228 20.8351
481 1 -1.1104 9.20919 11.3227 20.7286
617 1 -1.1104 6.62711 8.19394 23.3729
442 1 -1.1104 6.57037 11.0959 20.6827
623 1 -1.1104 6.71759 11.1284 23.4829
622 1 -1.1104 6.63743 5.36291 23.3769
619 1 -1.1104 6.54286 8.45656 26.2169
575 1 -1.1104 9.3621 8.32671 23.5488
576 1 -1.1104 12.1528 11.3307 26.169
603 1 -1.1104 12.1415 5.70242 26.3574
604 2 2.2208 10.8069 9.81192 24.8291
605 1 -1.1104 12.1148 11.2581 23.468
607 1 -1.1104 12.1614 5.65851 23.512
608 1 -1.1104 12.2741 8.38189 26.2474
609 1 -1.1104 12.1874 8.46988 23.3676
638 2 2.2208 10.7635 12.5962 22.0639
639 2 2.2208 10.7027 7.03953 22.0821
640 2 2.2208 8.01046 6.87117 24.8468
645 1 -1.1104 9.34106 11.1162 26.1351
646 1 -1.1104 9.41627 5.61167 26.0956
647 1 -1.1104 9.48954 11.0826 23.4615
648 1 -1.1104 9.47413 5.69699 23.4466
649 2 2.2208 8.03212 9.70123 22.0128
650 1 -1.1104 9.46265 8.34456 26.2754
651 2 2.2208 8.14495 12.5988 24.826
578 2 2.2208 -0.593255 20.9762 24.8657
10106 2 2.2208 -0.399271 6.90795 22.0671
491 1 -1.1104 1.01035 13.8389 20.5121
9817 2 2.2208 -0.36823 15.3431 24.8088
510 1 -1.1104 3.76075 14.0294 20.6635
380 2 2.2208 2.40628 15.1739 22.0927
383 2 2.2208 2.33034 20.9128 22.1608
384 1 -1.1104 3.67956 16.7212 23.3986
386 1 -1.1104 0.950981 16.6361 23.4486
388 1 -1.1104 3.88359 14.0066 26.3147
417 1 -1.1104 3.92825 16.7546 26.232
418 2 2.2208 2.44596 18.1018 24.8954
419 1 -1.1104 3.80862 19.7223 26.371
420 2 2.2208 5.11504 18.0204 21.8895
421 1 -1.1104 1.11059 13.9068 23.3873
455 1 -1.1104 1.01221 19.4707 23.37
457 2 2.2208 5.32466 15.5223 24.84
482 2 2.2208 5.10859 21.0923 24.8048
484 1 -1.1104 1.05687 13.9883 26.2669
518 1 -1.1104 1.18876 16.8227 26.2805
519 1 -1.1104 1.0634 19.5853 26.2624
545 1 -1.1104 3.85384 14.0613 23.5394
547 1 -1.1104 3.8433 19.5534 23.4629
483 1 -1.1104 6.44531 19.6096 23.4664
341 2 2.2208 5.18562 18.271 27.6975
340 2 2.2208 2.37154 15.3441 27.6424
574 1 -1.1104 9.40656 19.772 26.2255
413 2 2.2208 13.6985 20.9348 22.2459
505 1 -1.1104 6.546 16.7431 20.4547
544 1 -1.1104 9.43567 16.8693 20.5589
537 1 -1.1104 9.46818 14.1072 20.5284
495 1 -1.1104 6.65814 13.8834 20.6926
387 1 -1.1104 6.62828 16.7163 23.3953
546 1 -1.1104 6.62888 13.953 26.2579
610 2 2.2208 10.7031 15.5792 24.8342
332 2 2.2208 2.35198 4.12583 27.6498
338 2 2.2208 8.1081 -1.53048 27.5379
10004 2 2.2208 -0.402514 9.82499 24.8467
10003 2 2.2208 -0.477652 12.5256 21.9233
17546 2 2.2208 13.7801 -4.31823 19.171
314 2 2.2208 8.15327 1.40798 13.4728
336 2 2.2208 7.96905 21.0288 27.7227
312 2 2.2208 8.01486 15.4289 27.6146
313 2 2.2208 10.8074 18.31 27.6784
308 2 2.2208 13.6754 21.0626 27.7529
310 2 2.2208 2.44305 1.29335 13.4417
9026 2 2.2208 7.987 -4.2445 13.6022
316 2 2.2208 10.8929 4.10059 13.519
334 2 2.2208 7.99855 9.72236 27.5814
309 2 2.2208 5.30674 -1.39258 13.3865
323 2 2.2208 2.31199 18.2601 13.4742
324 2 2.2208 5.18222 21.0263 13.6627
652 2 2.2208 5.30972 23.7523 5.20234
653 2 2.2208 5.19169 29.5286 5.34059
654 1 -1.1104 1.03469 25.1981 1.08717
655 1 -1.1104 0.927788 25.0586 3.81965
656 1 -1.1104 1.17897 22.3934 1.16941
657 1 -1.1104 0.912811 27.9749 1.01574
658 2 2.2208 5.34074 26.5567 2.48745
659 1 -1.1104 1.12445 22.4217 3.97203
660 1 -1.1104 1.07985 27.8232 3.73067
661 1 -1.1104 3.88313 25.2438 1.01703
662 2 2.2208 2.46615 23.7765 2.53791
663 2 2.2208 2.497 29.3701 2.40031
664 1 -1.1104 3.85047 25.1708 3.89869
665 2 2.2208 2.38845 26.5878 5.11383
666 1 -1.1104 3.87579 22.3986 1.01441
667 1 -1.1104 3.87395 27.965 1.07236
668 1 -1.1104 3.9884 22.4155 3.694
669 1 -1.1104 3.88079 28.0537 3.88083
795 1 -1.1104 0.96558 22.2377 6.81533
801 1 -1.1104 3.82389 28.0314 6.71809
796 1 -1.1104 0.895097 27.932 6.58291
799 1 -1.1104 3.90774 25.1263 6.7517
973 2 2.2208 13.4366 29.293 8.12193
956 1 -1.1104 12.2247 44.779 12.2924
677 1 -1.1104 6.66782 22.4557 3.75413
800 1 -1.1104 3.75718 22.4386 6.5695
674 1 -1.1104 6.63651 25.222 3.89954
676 1 -1.1104 6.6028 27.9759 0.908702
675 1 -1.1104 6.51462 22.4523 1.02158
678 1 -1.1104 6.67716 28.0614 3.89276
794 1 -1.1104 6.73176 25.2262 6.73939
1037 2 2.2208 5.08567 40.4589 -0.36684
673 1 -1.1104 6.66592 25.1178 1.07504
798 1 -1.1104 6.64365 28.0966 6.59345
679 2 2.2208 10.872 23.644 5.29104
680 2 2.2208 10.8617 29.4991 5.25459
681 1 -1.1104 12.431 25.2387 0.967352
682 1 -1.1104 12.2161 25.2088 3.86209
683 1 -1.1104 12.2555 22.457 0.996972
684 1 -1.1104 12.2492 28.1151 1.14207
685 2 2.2208 10.934 26.599 2.46771
686 1 -1.1104 12.2294 22.5267 3.85805
687 1 -1.1104 12.2786 27.9597 3.76628
688 1 -1.1104 9.41383 25.2536 1.03686
689 2 2.2208 7.98146 23.8924 2.38156
690 2 2.2208 8.1169 29.422 2.4663
691 1 -1.1104 9.3477 25.0389 3.82202
692 2 2.2208 8.15579 26.5007 5.28984
693 1 -1.1104 9.52975 22.4765 1.15178
694 1 -1.1104 9.53776 27.9741 1.10254
695 1 -1.1104 9.46879 22.2331 3.89834
696 1 -1.1104 9.47367 27.8799 3.85806
829 1 -1.1104 9.49957 25.0704 6.62253
831 1 -1.1104 9.48236 27.939 6.54515
699 2 2.2208 13.6296 26.6767 5.29663
698 2 2.2208 13.6398 29.4763 2.54492
954 1 -1.1104 12.2357 39.3465 9.53918
828 1 -1.1104 12.1221 27.9656 6.77039
1572 1 -1.1104 0.903237 47.6403 12.2375
791 2 2.2208 13.5054 46.2917 2.42587
952 1 -1.1104 9.57366 41.9274 12.3141
700 2 2.2208 5.25062 34.9815 5.26769
701 1 -1.1104 0.986921 30.8721 1.05501
702 1 -1.1104 1.03585 36.4107 1.10233
704 1 -1.1104 1.07111 30.7457 3.83665
705 1 -1.1104 0.994401 36.3198 3.80957
707 1 -1.1104 1.01887 33.5744 0.983533
708 2 2.2208 5.25145 32.1407 2.35522
709 2 2.2208 5.17399 37.7776 2.41915
710 1 -1.1104 0.917044 33.5146 3.81676
712 1 -1.1104 3.83883 30.7423 1.0708
713 1 -1.1104 3.91809 36.3819 1.04704
714 2 2.2208 2.37567 35.0446 2.48183
715 1 -1.1104 3.85175 30.7661 3.97004
716 1 -1.1104 3.74885 36.4336 3.97413
717 2 2.2208 2.45542 32.1771 5.23392
718 2 2.2208 2.35521 37.8238 5.25895
719 1 -1.1104 3.80031 33.6895 0.814857
720 1 -1.1104 3.83914 33.5991 3.74015
854 1 -1.1104 1.13109 33.7312 6.60371
850 1 -1.1104 1.03902 30.7831 6.69998
857 1 -1.1104 3.79595 36.4905 6.74076
851 1 -1.1104 0.969036 36.5033 6.58172
962 1 -1.1104 9.39246 39.1838 6.75006
724 1 -1.1104 6.68353 30.8176 0.974333
726 1 -1.1104 6.74712 33.6348 1.02294
725 1 -1.1104 6.62594 30.6783 3.75731
706 1 -1.1104 6.4858 36.364 3.84536
703 1 -1.1104 6.53988 36.4382 0.949557
711 1 -1.1104 6.59786 33.4472 3.68035
727 2 2.2208 10.9032 35.0907 5.17769
728 1 -1.1104 12.1982 30.9564 0.93332
729 1 -1.1104 12.1717 36.5554 0.926723
730 1 -1.1104 12.3396 30.7181 3.95477