ITEM: TIMESTEP
40000
ITEM: NUMBER OF ATOMS
17820
ITEM: BOX BOUNDS pp pp pp
-3.5851494322674810e-01 2.7698514943226535e+01
-4.2101879654049918e+00 3.3229018796541328e+02
-3.5255931089551579e-01 2.7692559310895508e+01
ITEM: ATOMS id type q x y z
1 2 2.2208 5.34258 1.45213 5.43383
2 1 -1.1104 1.069 -2.75496 1.23726
3 1 -1.1104 1.04067 2.9652 1.16444
6 1 -1.1104 1.01497 -2.67211 4.05038
7 1 -1.1104 1.14093 2.92633 3.93477
10 1 -1.1104 1.20015 0.017043 1.11459
12 2 2.2208 5.26031 -1.33642 2.32214
14 1 -1.1104 1.11304 -0.0508912 3.96839
16 1 -1.1104 3.82603 -2.76507 0.889803
17 1 -1.1104 3.95286 2.88712 1.05689
18 2 2.2208 2.53852 1.42302 2.47546
19 1 -1.1104 3.89127 -2.78259 3.72163
20 1 -1.1104 3.89473 2.88827 3.91632
21 2 2.2208 2.58734 -1.31036 5.20391
23 1 -1.1104 3.97047 0.0933104 0.951243
24 1 -1.1104 3.98023 0.0638082 3.81101
13 2 2.2208 5.41418 4.25137 2.62173
166 1 -1.1104 1.20785 -2.78805 6.65283
11 1 -1.1104 6.68707 -0.127156 1.07709
8 1 -1.1104 6.60908 -2.69713 3.78923
167 1 -1.1104 1.05476 2.92267 6.61503
173 1 -1.1104 4.03075 2.90312 6.64259
15 1 -1.1104 6.75301 0.0499478 3.82066
5 1 -1.1104 6.69147 2.74689 1.15391
9 1 -1.1104 6.58327 2.79989 3.89231
9009 2 2.2208 2.44688 -4.05978 2.56126
332 2 2.2208 2.56012 4.33276 -0.207267
330 2 2.2208 5.34775 1.52392 -0.266159
331 2 2.2208 2.54048 -1.31805 -0.45625
4 1 -1.1104 6.63048 -2.82263 1.08868
31 2 2.2208 10.9582 1.49494 5.18695
32 1 -1.1104 12.311 -2.65778 1.05063
33 1 -1.1104 12.3753 2.83277 1.10357
34 1 -1.1104 12.23 -2.82964 3.84738
35 1 -1.1104 12.288 2.80829 3.80468
36 1 -1.1104 12.52 0.0187582 1.26693
37 2 2.2208 10.8275 -1.30176 2.49983
39 1 -1.1104 12.443 0.179059 4.00252
40 1 -1.1104 9.57125 -2.76538 0.996284
41 1 -1.1104 9.45777 2.7329 1.08673
42 2 2.2208 8.04439 1.38618 2.49801
43 1 -1.1104 9.43309 -2.7309 3.84121
44 1 -1.1104 9.43179 2.73305 3.95791
45 2 2.2208 8.05743 -1.42172 5.18042
47 1 -1.1104 9.60632 -0.00375825 1.13357
48 1 -1.1104 9.61971 0.030302 3.79353
38 2 2.2208 10.8963 4.27398 2.40149
46 2 2.2208 8.1321 4.1726 5.26236
9731 2 2.2208 13.6423 -1.28742 5.27321
9429 2 2.2208 13.6939 4.32154 5.32104
9730 2 2.2208 13.8162 1.51475 2.456
9012 2 2.2208 8.17631 -4.16421 2.43874
17462 2 2.2208 13.7124 -4.07339 2.55519
9013 2 2.2208 10.9999 -4.11529 5.39592
337 2 2.2208 10.9617 1.3382 -0.227509
339 2 2.2208 8.0824 4.15912 -0.222558
338 2 2.2208 8.07227 -1.51527 -0.324689
22 2 2.2208 2.43472 4.29788 5.2735
54 2 2.2208 5.20122 7.00471 5.31303
55 2 2.2208 5.20627 12.6126 5.32493
56 1 -1.1104 1.00466 8.50861 0.996052
58 1 -1.1104 1.11464 8.50572 3.90913
60 1 -1.1104 1.1758 5.79331 1.11056
61 1 -1.1104 1.0215 11.2303 1.21049
66 2 2.2208 5.34588 9.88762 2.5191
67 1 -1.1104 0.976063 5.64681 3.86061
68 1 -1.1104 1.10448 11.2682 3.96749
71 1 -1.1104 3.80077 8.50411 1.08963
72 2 2.2208 2.4837 7.09308 2.39244
73 2 2.2208 2.59721 12.6722 2.52704
74 1 -1.1104 3.91616 8.49935 3.86193
75 2 2.2208 2.54539 9.92126 5.32055
76 1 -1.1104 3.91511 5.62597 1.17383
77 1 -1.1104 3.76119 11.3633 1.11209
79 1 -1.1104 3.87146 5.63799 3.73624
80 1 -1.1104 3.78282 11.2213 3.90488
64 1 -1.1104 6.7535 11.1267 1.06453
236 1 -1.1104 0.928612 5.76449 6.49393
69 1 -1.1104 6.75133 5.66996 4.00308
59 1 -1.1104 6.69194 8.53245 3.92807
63 1 -1.1104 6.76878 5.69227 1.17029
234 1 -1.1104 1.07911 8.50606 6.54051
238 1 -1.1104 3.75603 8.4878 6.66575
62 1 -1.1104 0.994646 11.239 6.73446
235 1 -1.1104 6.59896 8.51628 6.82247
345 2 2.2208 5.18297 12.6112 -0.437281
343 2 2.2208 5.24492 7.07698 -0.23271
344 2 2.2208 2.373 9.78045 -0.181698
70 1 -1.1104 6.63601 11.2407 3.85956
57 1 -1.1104 6.62566 8.60113 1.1067
9625 2 2.2208 13.6295 6.93336 2.48874
84 2 2.2208 10.8437 6.99784 5.2825
85 2 2.2208 10.9305 12.6148 5.40058
86 1 -1.1104 12.2745 8.38171 1.18502
87 1 -1.1104 12.3285 8.48046 3.96307
88 1 -1.1104 12.2417 5.62546 1.11837
89 1 -1.1104 12.3471 11.1952 1.06174
91 2 2.2208 10.9043 9.90796 2.5656
92 1 -1.1104 12.3501 5.63483 3.80737
93 1 -1.1104 12.2575 11.2746 3.89023
94 1 -1.1104 9.54506 8.51041 1.11322
95 2 2.2208 8.04025 7.20913 2.45939
96 2 2.2208 8.03674 12.6391 2.48094
97 1 -1.1104 9.54159 8.44905 3.92156
98 2 2.2208 8.10953 9.89726 5.26885
99 1 -1.1104 9.47298 5.62929 1.14435
100 1 -1.1104 9.56064 11.2975 1.19046
102 1 -1.1104 9.64785 5.5815 3.87487
103 1 -1.1104 9.29169 11.1364 3.85814
101 1 -1.1104 9.49358 11.2505 6.7946
9458 2 2.2208 13.779 9.92325 5.21586
265 1 -1.1104 12.214 8.46184 6.74314
9732 2 2.2208 13.6008 12.6613 2.32541
237 1 -1.1104 6.56128 5.66415 6.68483
333 2 2.2208 10.891 12.513 -0.368058
335 2 2.2208 10.8717 7.02837 -0.311473
9744 2 2.2208 13.7223 9.84465 -0.337647
334 2 2.2208 8.11643 9.87819 -0.335965
106 2 2.2208 5.33553 18.4203 5.3068
107 1 -1.1104 1.23857 14.0373 1.20293
109 1 -1.1104 1.03486 19.6221 1.06638
113 1 -1.1104 1.06562 14.1665 3.96459
114 1 -1.1104 1.04327 19.735 3.96182
116 1 -1.1104 1.07196 16.8308 1.00251
119 2 2.2208 5.24208 15.5101 2.63899
120 2 2.2208 5.3448 21.1884 2.48312
121 1 -1.1104 0.953181 16.9095 3.71979
123 1 -1.1104 4.05309 14.1465 1.1797
125 1 -1.1104 3.89746 19.7015 1.13927
127 2 2.2208 2.47614 18.2418 2.4053
128 1 -1.1104 3.98589 14.0717 3.8751
129 1 -1.1104 3.89774 19.7552 3.80002
130 2 2.2208 2.47568 15.5394 5.3383
131 2 2.2208 2.55937 21.1312 5.26488
132 1 -1.1104 3.9164 16.8947 1.15928
134 1 -1.1104 3.80741 16.9145 3.87589
122 1 -1.1104 6.59023 17.0531 3.76278
139 1 -1.1104 6.76796 19.9314 4.02831
138 1 -1.1104 6.81909 19.7097 1.14659
110 1 -1.1104 6.66036 13.881 1.07917
115 1 -1.1104 6.69935 14.1208 4.07079
302 1 -1.1104 1.15664 19.7477 6.58183
108 1 -1.1104 1.12014 13.9669 6.67306
140 1 -1.1104 6.80933 16.8128 1.11718
29 2 2.2208 13.6736 21.1295 5.33346
141 2 2.2208 11.0124 18.1226 5.39694
142 1 -1.1104 12.097 13.9805 1.08191
144 1 -1.1104 12.2932 19.5796 1.02687
146 1 -1.1104 12.3402 14.049 3.878
147 1 -1.1104 12.3828 19.5784 3.85034
148 1 -1.1104 12.2981 16.8689 1.27351
150 2 2.2208 10.7317 15.4244 2.37905
151 2 2.2208 10.996 21.0414 2.40989
152 1 -1.1104 12.4491 16.7121 3.94404
153 1 -1.1104 9.31836 13.9598 1.09468
155 1 -1.1104 9.54098 19.5117 1.12631
157 2 2.2208 8.18793 18.234 2.52284
158 1 -1.1104 9.55014 13.9785 3.89412
159 1 -1.1104 9.71794 19.6821 3.88332
160 2 2.2208 8.20086 15.3062 5.37438
161 2 2.2208 8.28502 21.1083 5.2665
162 1 -1.1104 9.45771 16.8562 1.02286
164 1 -1.1104 9.49821 16.9118 3.88329
9527 2 2.2208 13.8291 15.5558 5.25909
143 1 -1.1104 12.2968 14.0544 6.66869
307 2 2.2208 13.7659 15.4877 -0.237872
313 2 2.2208 10.9144 18.2195 -0.34707
312 2 2.2208 7.9993 15.3514 -0.283269
308 2 2.2208 13.6965 21.0739 -0.289902
171 1 -1.1104 6.6523 -0.0373202 6.70204
174 1 -1.1104 3.76241 0.0878663 6.62001
170 1 -1.1104 1.03257 -0.0630957 6.71674
172 1 -1.1104 3.98786 -2.77382 6.63921
168 1 -1.1104 6.89871 -2.80312 6.62222
9457 2 2.2208 -0.252667 1.51983 10.8424
169 1 -1.1104 6.82733 2.93796 6.7718
9015 2 2.2208 5.35742 -4.05985 10.8239
175 2 2.2208 5.27182 1.54884 10.867
176 1 -1.1104 1.38595 -2.73885 12.1358
177 1 -1.1104 1.1134 2.83876 12.2936
180 1 -1.1104 1.06995 -2.63582 9.36993
181 1 -1.1104 1.20074 3.04655 9.51151
184 1 -1.1104 1.10326 0.0264551 12.16
186 2 2.2208 5.36428 -1.3091 8.03394
187 2 2.2208 5.20092 4.37465 8.06267
188 1 -1.1104 1.18095 0.0798121 9.43576
190 1 -1.1104 3.95824 -2.70366 12.251
191 1 -1.1104 3.82065 2.82379 12.2737
192 2 2.2208 2.42668 1.38144 8.03162
193 1 -1.1104 3.7986 -2.79925 9.50587
194 1 -1.1104 3.80344 2.92283 9.36443
195 2 2.2208 2.43258 -1.32967 10.7308
197 1 -1.1104 3.89454 0.0802645 12.2593
198 1 -1.1104 4.01673 0.0478221 9.31428
196 2 2.2208 2.40357 4.36709 10.857
185 1 -1.1104 6.65922 0.0190353 12.357
189 1 -1.1104 6.63381 0.129233 9.48783
182 1 -1.1104 6.69469 -2.68132 9.45179
311 2 2.2208 5.2438 4.3743 13.7003
9014 2 2.2208 2.51777 -4.17044 8.05668
183 1 -1.1104 6.63673 2.76639 9.39604
209 1 -1.1104 9.59245 2.7809 6.67819
208 1 -1.1104 9.57624 -2.80183 6.69098
205 1 -1.1104 12.4006 -2.6938 6.78036
207 1 -1.1104 12.3513 0.114202 6.59812
210 1 -1.1104 9.43897 -0.0726598 6.70512
178 1 -1.1104 6.61495 -2.65299 12.1849
179 1 -1.1104 6.70948 2.90797 12.2531
206 1 -1.1104 12.1427 2.94868 6.65934
9456 2 2.2208 13.6731 1.50679 8.07838
9431 2 2.2208 13.7541 -1.23679 10.8553
211 2 2.2208 10.8323 1.51892 10.9148
212 1 -1.1104 12.3088 -2.65138 12.2524
213 1 -1.1104 12.1389 2.84806 12.3509
214 1 -1.1104 12.3065 -2.91276 9.3653
215 1 -1.1104 12.3493 2.80999 9.59879
216 1 -1.1104 12.3282 0.0691818 12.2884
217 2 2.2208 10.8782 -1.28958 8.04553
218 2 2.2208 10.9718 4.30046 8.20068
219 1 -1.1104 12.3769 -0.020317 9.42075
220 1 -1.1104 9.47036 -2.65198 12.3617
221 1 -1.1104 9.47506 2.82353 12.4461
222 2 2.2208 8.15677 1.46401 8.03051
223 1 -1.1104 9.54109 -2.74444 9.5358
224 1 -1.1104 9.44635 2.89618 9.58023
225 2 2.2208 8.06381 -1.26839 10.9421
227 1 -1.1104 9.45877 0.0366682 12.3224
228 1 -1.1104 9.49876 0.154045 9.49563
226 2 2.2208 8.0575 4.22246 10.8664
9016 2 2.2208 8.16471 -4.22372 8.00173
239 1 -1.1104 3.7495 5.79492 6.55716
78 1 -1.1104 3.8556 11.4117 6.69669
240 2 2.2208 5.28495 7.06522 10.8275
241 2 2.2208 5.29295 12.6941 10.9491
242 1 -1.1104 1.13047 8.48962 12.2695
244 1 -1.1104 1.05136 8.45181 9.30936
246 1 -1.1104 1.04958 5.68523 12.2572
247 1 -1.1104 1.07417 11.3136 12.4253
250 2 2.2208 5.204 9.91805 8.06867
251 1 -1.1104 0.907953 5.72436 9.45994
252 1 -1.1104 1.07942 11.2321 9.48492
255 1 -1.1104 3.85876 8.64553 12.2431
256 2 2.2208 2.36415 7.04122 7.99546
257 2 2.2208 2.43721 12.7117 8.10145
258 1 -1.1104 3.75853 8.39075 9.43144
259 2 2.2208 2.55718 9.89922 10.8714
260 1 -1.1104 3.91346 5.78378 12.2194
261 1 -1.1104 3.88152 11.3197 12.3496
262 1 -1.1104 3.826 5.7928 9.38702
263 1 -1.1104 3.90211 11.3761 9.46863
317 2 2.2208 2.58191 7.18314 13.805
248 1 -1.1104 6.55108 5.66714 12.379
253 1 -1.1104 6.55599 5.73331 9.45254
249 1 -1.1104 6.64139 11.3404 12.3507
254 1 -1.1104 6.60886 11.3475 9.54065
65 1 -1.1104 6.66783 11.224 6.64159
266 1 -1.1104 12.32 5.69614 6.78416
269 1 -1.1104 9.27948 5.72607 6.70514
267 1 -1.1104 9.4177 8.48555 6.80271
90 1 -1.1104 12.3159 11.4004 6.70939
9564 2 2.2208 13.6762 4.23812 10.8626
243 1 -1.1104 6.52054 8.39935 12.3151
245 1 -1.1104 6.54072 8.56791 9.57212
9640 2 2.2208 13.6965 7.1027 8.17738
9645 2 2.2208 13.6391 9.69668 11.0363
9641 2 2.2208 13.6725 12.6359 8.10479
264 1 -1.1104 9.59511 11.286 9.45032
268 1 -1.1104 9.50795 5.60201 9.53172
270 1 -1.1104 9.47293 11.133 12.2401
271 1 -1.1104 9.4505 5.47313 12.2771
272 2 2.2208 8.00763 9.85588 10.8875
273 1 -1.1104 9.36341 8.4945 9.68785
274 2 2.2208 8.16631 12.69 8.18484
275 2 2.2208 7.98095 7.16603 8.22792
276 2 2.2208 10.7534 7.07645 10.9635
277 2 2.2208 10.9594 12.4871 10.8809
278 1 -1.1104 12.2889 8.38715 12.3795
279 1 -1.1104 12.2061 8.58118 9.56033
280 1 -1.1104 12.241 5.76549 12.1907
281 1 -1.1104 12.2333 11.1563 12.5057
282 2 2.2208 10.973 9.92699 8.16222
283 1 -1.1104 12.261 5.68497 9.57306
284 1 -1.1104 12.375 11.2012 9.56451
285 1 -1.1104 9.28947 8.32104 12.4074
117 1 -1.1104 1.06256 16.8794 6.85392
124 1 -1.1104 3.99627 14.2531 6.8791
118 1 -1.1104 6.66011 16.9172 6.62794
111 1 -1.1104 6.65624 14.0251 6.71509
126 1 -1.1104 3.89151 19.7755 6.6105
133 1 -1.1104 3.86802 16.8842 6.69462
112 1 -1.1104 6.74914 19.6887 6.67156
323 2 2.2208 2.59226 18.2528 13.762
289 1 -1.1104 6.7066 16.8999 9.50584
288 1 -1.1104 6.55342 19.6551 9.49585
290 1 -1.1104 6.81637 14.1486 9.61578
202 2 2.2208 2.3805 15.5281 10.9024
203 2 2.2208 2.41589 21.1928 10.8847
231 1 -1.1104 3.92296 16.7313 12.341
232 1 -1.1104 1.04813 16.979 12.3171
286 1 -1.1104 3.98134 19.7656 12.3462
287 1 -1.1104 3.88784 14.047 12.4411
291 1 -1.1104 1.11491 19.6712 9.47681
292 1 -1.1104 0.932237 16.9118 9.66775
293 2 2.2208 5.37565 21.0768 7.98471
294 1 -1.1104 1.14114 13.9911 9.4983
295 2 2.2208 5.42374 15.4739 8.17434
298 1 -1.1104 1.11086 19.7697 12.3252
299 1 -1.1104 1.04832 14.1516 12.3804
300 2 2.2208 5.34233 18.3634 10.834
301 1 -1.1104 3.8997 19.6131 9.50155
303 2 2.2208 2.60243 18.2419 8.15981
304 1 -1.1104 3.90001 16.8251 9.60008
305 1 -1.1104 3.83501 14.0913 9.5624
233 1 -1.1104 6.72763 16.952 12.4776
297 1 -1.1104 6.63972 14.0578 12.2411
296 1 -1.1104 6.64213 19.6782 12.4975
25 2 2.2208 13.7578 18.2771 8.25458
30 1 -1.1104 9.54568 16.8932 9.65308
149 1 -1.1104 12.4054 16.7031 6.73979
163 1 -1.1104 9.5456 16.6243 6.8213
145 1 -1.1104 12.3914 19.5753 6.78255
154 1 -1.1104 9.5941 14.0298 6.71285
156 1 -1.1104 9.55945 19.4986 6.7163
9727 2 2.2208 13.771 15.5101 10.9571
28 2 2.2208 13.6999 21.2098 10.9801
137 1 -1.1104 9.47041 19.5988 12.2675
49 1 -1.1104 12.266 19.7934 12.3546
105 1 -1.1104 9.63208 13.907 12.3205
201 1 -1.1104 9.31255 19.7709 9.56301
200 1 -1.1104 9.41431 14.0595 9.46527
229 2 2.2208 8.04238 21.0434 11.0225
82 2 2.2208 10.851 15.369 8.1936
27 1 -1.1104 12.261 14.1113 12.4018
104 1 -1.1104 12.3787 16.7794 9.59666
199 2 2.2208 8.00122 18.3004 8.11242
81 1 -1.1104 12.1932 16.9746 12.3778
53 1 -1.1104 12.2405 19.7375 9.6522
50 1 -1.1104 12.1821 14.0413 9.58332
230 1 -1.1104 9.57254 16.8198 12.3969
26 2 2.2208 10.892 18.2889 10.902
204 2 2.2208 8.12169 15.412 10.9784
83 2 2.2208 11.0242 21.0289 8.08233
326 2 2.2208 10.924 21.1114 13.6596
346 2 2.2208 5.1665 1.49759 16.4652
347 1 -1.1104 1.17229 -2.61016 17.986
348 1 -1.1104 1.06881 2.92489 17.9364
351 1 -1.1104 0.965593 -2.64953 15.0604
353 1 -1.1104 1.09169 2.95977 15.0201
359 1 -1.1104 1.01417 0.175947 18.0017
361 2 2.2208 5.34936 -1.27677 19.1206
362 2 2.2208 5.25726 4.23437 19.4367
363 1 -1.1104 1.0931 0.273902 14.9571
367 1 -1.1104 3.9607 -2.77283 17.9672
368 1 -1.1104 3.87907 2.7975 17.9543
369 2 2.2208 2.53182 1.39852 19.4128
370 1 -1.1104 3.77611 -2.61675 15.2461
372 1 -1.1104 3.93485 3.04079 15.0671
374 2 2.2208 2.28226 -1.29991 16.4894
375 2 2.2208 2.40294 4.17379 16.493
376 1 -1.1104 3.78478 0.0480705 17.8699
377 1 -1.1104 3.78004 0.27297 15.249
350 1 -1.1104 6.62664 2.9361 17.9143
360 1 -1.1104 6.66053 0.154696 17.9347
357 1 -1.1104 6.50836 2.91595 15.1544
371 1 -1.1104 3.87989 -2.72603 20.7299
349 1 -1.1104 6.76483 -2.72348 17.8334
366 1 -1.1104 6.62465 -0.00280723 20.8145
356 1 -1.1104 6.60095 -2.69539 20.5144
9138 2 2.2208 5.28863 -3.99387 16.4405
352 1 -1.1104 1.03205 -2.672 20.7627
9853 2 2.2208 -0.357731 1.54145 16.4036
310 2 2.2208 2.4689 1.5728 13.6388
9029 2 2.2208 2.53034 -4.05676 13.6859
309 2 2.2208 5.19315 -1.32372 13.6959
355 1 -1.1104 6.64446 -2.68301 15.0345
365 1 -1.1104 6.61597 0.102284 15.2189
389 2 2.2208 10.8319 1.57713 16.5295
390 1 -1.1104 12.2418 -2.75762 17.905
391 1 -1.1104 12.3524 2.90404 17.9353
392 1 -1.1104 12.2807 -2.69253 15.0871
394 1 -1.1104 12.2094 3.01279 15.0792
396 1 -1.1104 12.2647 0.106324 17.8794
397 2 2.2208 10.8968 -1.45271 19.3144
398 2 2.2208 10.9657 4.33864 19.382
399 1 -1.1104 12.2052 0.211857 15.0815
401 1 -1.1104 9.37323 -2.73353 17.9658
402 1 -1.1104 9.51678 2.85944 17.992
403 2 2.2208 8.1287 1.54816 19.1855
404 1 -1.1104 9.40749 -2.73771 15.1317
406 1 -1.1104 9.30476 2.90429 15.2411
408 2 2.2208 8.05453 -1.23967 16.5007
409 2 2.2208 7.99149 4.23935 16.5428
410 1 -1.1104 9.47073 0.00832971 17.859
411 1 -1.1104 9.53105 -0.129644 15.1442
412 1 -1.1104 9.45763 0.187895 20.6101
9815 2 2.2208 13.7107 -1.20062 16.4192
9102 2 2.2208 8.0759 -4.13025 19.2656
9818 2 2.2208 13.7656 1.38465 19.1885
9136 2 2.2208 10.9099 -4.02474 16.5105
9026 2 2.2208 8.18457 -4.12706 13.7452
316 2 2.2208 10.9267 4.24124 13.6877
315 2 2.2208 10.8582 -1.34515 13.7323
314 2 2.2208 8.02526 1.51257 13.7861
9741 2 2.2208 13.6242 1.40191 13.7285
422 2 2.2208 5.18831 7.03295 16.5068
423 2 2.2208 5.37287 12.678 16.5726
424 1 -1.1104 1.0373 8.69547 17.8645
426 1 -1.1104 1.14379 8.57307 15.1076
430 1 -1.1104 1.1372 5.7334 17.8916
431 1 -1.1104 1.13522 11.3266 17.9703
434 2 2.2208 5.27995 9.97558 19.5141
435 1 -1.1104 0.952423 5.71863 15.0385
437 1 -1.1104 1.06186 11.4195 15.2078
443 1 -1.1104 3.71152 8.5641 18.0961
444 2 2.2208 2.5111 6.99664 19.3584
445 2 2.2208 2.44465 12.7053 19.397
446 1 -1.1104 3.88677 8.66573 15.1027
448 2 2.2208 2.54018 10.0002 16.6624
449 1 -1.1104 3.95266 5.57575 17.9219
450 1 -1.1104 3.98763 11.4367 18.0657
451 1 -1.1104 3.79412 5.85287 15.1846
453 1 -1.1104 4.01077 11.2535 15.1792
439 1 -1.1104 6.65352 5.72496 15.096
447 1 -1.1104 3.84481 8.31823 20.8029
432 1 -1.1104 6.72557 5.53311 17.9764
442 1 -1.1104 6.56095 11.4292 20.9069
433 1 -1.1104 6.68086 11.1598 18.0329
454 1 -1.1104 3.84491 11.2358 20.7625
438 1 -1.1104 0.983236 11.2168 20.7478
425 1 -1.1104 6.60999 8.20431 17.7955
428 1 -1.1104 6.71271 8.48232 15.1185
441 1 -1.1104 6.73734 11.305 15.1696
415 2 2.2208 -0.354182 9.97264 19.4147
318 2 2.2208 5.364 9.95609 13.7923
319 2 2.2208 2.36157 12.7481 13.7404
429 1 -1.1104 6.75148 8.5848 20.7078
9887 2 2.2208 13.6689 7.04082 19.4835
458 2 2.2208 10.8407 7.045 16.4651
459 2 2.2208 10.8777 12.5642 16.5446
460 1 -1.1104 12.4553 8.45086 18.1124
461 1 -1.1104 12.2569 8.38853 15.2599
463 1 -1.1104 12.3454 5.83485 17.9107
464 1 -1.1104 12.1258 11.171 17.9938
465 2 2.2208 10.8117 9.80773 19.3711
466 1 -1.1104 12.2607 5.64068 15.1842
468 1 -1.1104 12.1168 11.2093 15.1723
470 1 -1.1104 9.40967 8.36416 17.8454
471 2 2.2208 8.04669 7.04674 19.2886
472 2 2.2208 7.99988 12.5773 19.4569
473 1 -1.1104 9.54156 8.4282 15.059
475 2 2.2208 8.02968 9.74534 16.5552
476 1 -1.1104 9.3988 5.6479 17.9587
477 1 -1.1104 9.35902 11.1484 17.9732
478 1 -1.1104 9.37331 5.54873 15.1332
480 1 -1.1104 9.31259 11.1608 15.0771
416 2 2.2208 13.5271 9.8069 16.6392
321 2 2.2208 10.8814 9.73549 13.7635
322 2 2.2208 8.13667 12.6552 13.7399
9753 2 2.2208 13.7153 12.6922 13.6696
320 2 2.2208 7.9771 7.12247 13.6763
485 2 2.2208 5.26686 18.2663 16.5616
486 1 -1.1104 0.996865 14.0819 17.8778
487 1 -1.1104 1.05409 19.8282 17.9854
490 1 -1.1104 1.05069 14.0886 15.1491
492 1 -1.1104 1.14953 19.6235 15.1189
498 1 -1.1104 1.14929 16.9905 18.0144
500 2 2.2208 5.33134 15.5404 19.3869
501 2 2.2208 5.2743 21.0835 19.3413
502 1 -1.1104 1.20456 16.9947 15.0755
506 1 -1.1104 3.87828 14.1763 18.0635
507 1 -1.1104 3.91593 19.7218 17.9968
508 2 2.2208 2.5199 18.4016 19.4195
509 1 -1.1104 3.92165 14.0859 15.246
511 1 -1.1104 3.78913 19.7525 15.0861
513 2 2.2208 2.53562 15.5548 16.6648
514 2 2.2208 2.56809 21.105 16.5268
515 1 -1.1104 3.89534 16.9338 18.1041
516 1 -1.1104 3.92951 17.0036 15.1523
496 1 -1.1104 6.70043 19.687 15.2181
504 1 -1.1104 6.73526 16.8729 15.2344
494 1 -1.1104 6.80011 14.0422 15.0887
489 1 -1.1104 6.61284 19.6165 18.0097
499 1 -1.1104 6.69693 16.7363 18.058
488 1 -1.1104 6.8058 14.0743 17.8683
491 1 -1.1104 1.08975 14.0466 20.838
510 1 -1.1104 3.8413 14.1437 20.8864
505 1 -1.1104 6.70662 17.0658 20.7696
512 1 -1.1104 3.85169 19.7746 20.8142
503 1 -1.1104 0.996478 16.8852 20.7487
9998 2 2.2208 -0.252994 15.4983 19.3919
325 2 2.2208 5.35344 15.433 13.7033
324 2 2.2208 5.25554 21.0527 13.7821
385 2 2.2208 13.7097 21.088 16.5453
329 2 2.2208 13.7775 18.3231 13.7433
544 1 -1.1104 9.42076 16.8362 20.7809
521 2 2.2208 10.9706 18.3598 16.5278
522 1 -1.1104 12.4428 14.0582 17.9177
523 1 -1.1104 12.1759 19.7811 18.0555
524 1 -1.1104 12.5025 14.0329 15.1626
526 1 -1.1104 12.4208 19.7425 15.0808
528 1 -1.1104 12.2775 16.9383 17.9032
529 2 2.2208 11.0049 15.4425 19.3218
530 2 2.2208 10.8252 21.088 19.4549
531 1 -1.1104 12.344 16.8913 15.1781
533 1 -1.1104 9.54545 13.989 18.0895
534 1 -1.1104 9.51736 19.6958 18.0054
535 2 2.2208 8.18445 18.2653 19.3696
536 1 -1.1104 9.48773 14.1098 15.1971
538 1 -1.1104 9.48832 19.6056 15.0674
540 2 2.2208 8.237 15.5188 16.617
541 2 2.2208 8.0527 21.0313 16.5686
542 1 -1.1104 9.57497 16.6834 18.0217
543 1 -1.1104 9.56792 16.9338 15.2788
9958 2 2.2208 13.7412 18.2658 19.3169
539 1 -1.1104 9.44167 19.8097 20.6762
527 1 -1.1104 12.2915 19.418 20.736
327 2 2.2208 10.9067 15.4638 13.6892
328 2 2.2208 8.05926 18.2575 13.8417
378 1 -1.1104 3.81878 -0.0654669 20.688
373 1 -1.1104 3.86819 2.97612 20.7421
364 1 -1.1104 0.87087 -0.0303538 20.7545
354 1 -1.1104 1.09798 2.74195 20.7975
358 1 -1.1104 6.65924 2.83926 20.698
549 2 2.2208 5.3407 1.5062 22.1339
550 1 -1.1104 1.23376 -2.68252 23.6617
551 1 -1.1104 1.0535 2.91547 23.6936
554 1 -1.1104 0.946254 -2.73272 26.5637
555 1 -1.1104 1.30402 2.82306 26.2605
558 1 -1.1104 1.06137 -0.0894827 23.539
560 2 2.2208 5.29755 -1.29189 24.7887
561 2 2.2208 5.33486 4.20751 24.9206
562 1 -1.1104 1.22096 0.0492439 26.3533
564 1 -1.1104 3.91108 -2.56887 23.5382
565 1 -1.1104 3.71273 2.83765 23.3976
566 2 2.2208 2.50415 1.52243 24.813
567 1 -1.1104 4.00005 -2.92106 26.3054
568 1 -1.1104 4.08859 2.86447 26.3257
569 2 2.2208 2.47242 -1.35392 22.1775
570 2 2.2208 2.46962 4.27018 22.2493
571 1 -1.1104 3.91119 0.120811 23.4542
572 1 -1.1104 4.06562 0.0608016 26.2132
556 1 -1.1104 6.72899 -2.67698 26.1937
563 1 -1.1104 6.9896 -0.0398297 26.4554
553 1 -1.1104 6.61577 2.83029 23.5531
552 1 -1.1104 6.63747 -2.75799 23.4582
559 1 -1.1104 6.78292 0.155932 23.4958
9098 2 2.2208 8.14764 -4.16029 24.8823
405 1 -1.1104 9.3418 -2.59832 20.7688
395 1 -1.1104 12.3682 2.99216 20.6021
407 1 -1.1104 9.54355 2.9777 20.8466
393 1 -1.1104 12.4222 -2.81437 20.5881
400 1 -1.1104 12.2934 0.0726975 20.6683
557 1 -1.1104 6.78339 2.86614 26.3324
585 2 2.2208 10.8177 1.51075 22.1066
586 1 -1.1104 12.3873 -2.6871 23.3854
587 1 -1.1104 12.2122 2.64623 23.4596
588 1 -1.1104 12.5628 -2.69971 26.3207
589 1 -1.1104 12.2456 2.84972 26.3727
590 1 -1.1104 12.385 0.0889386 23.4679
591 2 2.2208 10.9758 -1.37908 24.9327
592 2 2.2208 10.8041 4.23901 25.0141
593 1 -1.1104 12.235 -0.0159993 26.2942
594 1 -1.1104 9.43693 -2.76422 23.6138
595 1 -1.1104 9.33589 2.77122 23.4963
596 2 2.2208 8.17991 1.42323 24.9016
597 1 -1.1104 9.49948 -2.6108 26.3014
598 1 -1.1104 9.43955 2.82934 26.2952
599 2 2.2208 8.0587 -1.3082 22.1154
600 2 2.2208 8.0551 4.24377 22.1544
601 1 -1.1104 9.5675 0.0392429 23.501
602 1 -1.1104 9.65297 0.184237 26.2635
9777 2 2.2208 13.7177 4.14674 27.6469
9099 2 2.2208 10.9336 -4.00758 21.99
440 1 -1.1104 6.61804 5.72471 20.7148
427 1 -1.1104 1.07669 8.40799 20.7926
452 1 -1.1104 3.86818 5.61596 20.7987
436 1 -1.1104 1.06581 5.57491 20.7764
614 2 2.2208 5.24244 6.99823 22.1382
615 2 2.2208 5.16703 12.6655 22.1003
616 1 -1.1104 1.04237 8.62373 23.4616
618 1 -1.1104 1.1171 8.46153 26.1916
620 1 -1.1104 1.11798 5.69941 23.546
621 1 -1.1104 1.11723 11.4662 23.6244
624 2 2.2208 5.24559 9.79911 25.0147
625 1 -1.1104 1.10239 5.58462 26.4405
626 1 -1.1104 1.02202 11.275 26.4708
629 1 -1.1104 3.95702 8.41923 23.5694
630 2 2.2208 2.56049 7.1666 24.9831
631 2 2.2208 2.49012 12.7392 24.9425
632 1 -1.1104 3.84219 8.59739 26.4375
633 2 2.2208 2.47968 9.99027 22.1899
634 1 -1.1104 3.88495 5.73467 23.5889
635 1 -1.1104 3.86385 11.2833 23.5176
636 1 -1.1104 3.92344 5.70906 26.3818
637 1 -1.1104 3.71421 11.3705 26.3285
623 1 -1.1104 6.59656 11.2139 23.6668
617 1 -1.1104 6.64364 8.52041 23.7145
619 1 -1.1104 6.73472 8.4741 26.3672
628 1 -1.1104 6.63827 11.3421 26.4178
479 1 -1.1104 9.51291 5.77958 20.6753
467 1 -1.1104 12.2517 5.69051 20.8456
462 1 -1.1104 12.33 8.55314 20.817
481 1 -1.1104 9.44853 11.1294 20.7806
469 1 -1.1104 12.2781 11.229 20.6789
10078 2 2.2208 13.6757 9.8572 22.1533
627 1 -1.1104 6.80161 5.68617 26.4043
622 1 -1.1104 6.73056 5.57427 23.6204
474 1 -1.1104 9.64557 8.37077 20.8503
9854 2 2.2208 13.8148 12.6697 24.8266
9852 2 2.2208 13.5957 6.88432 24.9076
575 1 -1.1104 9.55613 8.56498 23.5679
576 1 -1.1104 12.3652 11.1645 26.2186
603 1 -1.1104 12.3059 5.57905 26.2664
604 2 2.2208 10.9621 9.80112 24.802
605 1 -1.1104 12.4048 11.1543 23.5462
607 1 -1.1104 12.1479 5.58002 23.6021
608 1 -1.1104 12.328 8.33409 26.346
609 1 -1.1104 12.3081 8.33538 23.5658
638 2 2.2208 10.9818 12.7302 22.115
639 2 2.2208 10.8895 6.93598 22.1445
640 2 2.2208 8.14457 7.06607 24.987
645 1 -1.1104 9.58201 11.0465 26.2587
646 1 -1.1104 9.46589 5.61852 26.3925
647 1 -1.1104 9.35757 11.2054 23.5807
648 1 -1.1104 9.43843 5.55472 23.5889
649 2 2.2208 8.13147 9.82808 22.2574
650 1 -1.1104 9.52794 8.26785 26.302
651 2 2.2208 7.95855 12.6725 24.8736
517 1 -1.1104 3.82387 16.8591 20.8509
497 1 -1.1104 6.59274 19.6972 20.8476
493 1 -1.1104 1.05744 19.8686 20.7183
340 2 2.2208 2.55245 15.4833 27.8573
387 1 -1.1104 6.74769 16.8347 23.5513
380 2 2.2208 2.50755 15.5285 22.1197
383 2 2.2208 2.42441 21.2224 22.241
384 1 -1.1104 4.01302 16.8393 23.6077
386 1 -1.1104 0.987709 16.84 23.5249
388 1 -1.1104 3.8279 14.1214 26.4344
417 1 -1.1104 3.90997 16.7971 26.319
418 2 2.2208 2.54126 18.2172 24.896
419 1 -1.1104 3.92141 19.6796 26.4468
420 2 2.2208 5.27624 18.2477 22.2302
421 1 -1.1104 1.03385 14.16 23.6323
455 1 -1.1104 1.15829 19.8005 23.4928
457 2 2.2208 5.3229 15.473 24.9201
482 2 2.2208 5.33559 20.9937 24.9134
484 1 -1.1104 1.00087 13.96 26.4048
518 1 -1.1104 0.96562 16.7125 26.4173
519 1 -1.1104 1.24255 19.6768 26.2949
545 1 -1.1104 3.84116 14.2124 23.634
547 1 -1.1104 3.80302 19.6094 23.6107
546 1 -1.1104 6.57444 14.0166 26.4102
520 1 -1.1104 6.57968 16.852 26.4026
483 1 -1.1104 6.55692 19.6319 23.5677
341 2 2.2208 5.2677 18.2413 27.7586
342 2 2.2208 2.54993 21.1209 27.9238
413 2 2.2208 13.747 21.0388 22.2228
611 2 2.2208 10.8097 21.0617 24.9231
495 1 -1.1104 6.59935 14.0834 20.6925
612 1 -1.1104 12.1847 16.8838 26.3536
574 1 -1.1104 9.48377 19.6755 26.3397
537 1 -1.1104 9.52291 13.9436 20.8357
532 1 -1.1104 12.3235 16.715 20.725
525 1 -1.1104 12.3878 14.102 20.6707
610 2 2.2208 10.9649 15.3515 24.9249
644 1 -1.1104 9.31903 13.781 26.336
577 2 2.2208 10.8565 18.2163 22.163
606 1 -1.1104 12.4409 16.6439 23.4694
613 1 -1.1104 9.46273 13.9405 23.5747
583 1 -1.1104 12.2941 14.1331 26.5074
584 1 -1.1104 12.3261 19.7834 26.2719
548 2 2.2208 7.99044 21.1091 21.9727
382 2 2.2208 13.6779 18.1484 24.8567
579 1 -1.1104 9.29907 16.7411 26.2254
582 1 -1.1104 12.1956 19.5144 23.4545
641 1 -1.1104 9.43037 19.6527 23.6357
643 1 -1.1104 6.68798 19.637 26.228
642 2 2.2208 8.05864 18.2196 24.9882
581 1 -1.1104 12.4035 14.031 23.5012
580 1 -1.1104 9.65882 16.7779 23.5659
573 2 2.2208 8.08473 15.4978 22.1325
379 2 2.2208 13.8231 15.4149 22.0367
456 1 -1.1104 6.63579 14.1023 23.3699
336 2 2.2208 8.03728 21.0512 27.7947
652 2 2.2208 5.422 23.9861 5.25259
653 2 2.2208 5.23065 29.5376 5.34395
654 1 -1.1104 1.13875 25.2346 1.27952
655 1 -1.1104 1.01785 25.3835 4.02233
656 1 -1.1104 1.27768 22.4609 1.26347
657 1 -1.1104 1.11986 28.0662 1.21486
658 2 2.2208 5.16676 26.7405 2.60838
659 1 -1.1104 1.08157 22.5334 3.96021
660 1 -1.1104 1.12596 28.1976 3.94542
661 1 -1.1104 3.89796 25.3946 1.04401
662 2 2.2208 2.6397 23.9334 2.55324
663 2 2.2208 2.42045 29.5328 2.41778
664 1 -1.1104 3.86957 25.4534 4.03322
665 2 2.2208 2.49931 26.7569 5.25249
666 1 -1.1104 3.87378 22.591 1.18642
667 1 -1.1104 3.8084 28.091 1.12824
668 1 -1.1104 3.93395 22.6197 3.92945
669 1 -1.1104 3.74543 28.1786 3.99181
675 1 -1.1104 6.6313 22.4933 1.17478
678 1 -1.1104 6.60808 28.2008 4.01397
676 1 -1.1104 6.46159 28.0595 1.22357
801 1 -1.1104 3.92456 28.0103 6.66969
673 1 -1.1104 6.66053 25.1616 1.12997
795 1 -1.1104 1.2638 22.4472 6.74994
674 1 -1.1104 6.72413 25.4942 3.91013
799 1 -1.1104 3.80228 25.2938 6.73516
793 1 -1.1104 0.948121 25.2059 6.71776
1019 2 2.2208 -0.272788 29.4956 -0.0277531
677 1 -1.1104 6.74789 22.5872 3.82465
794 1 -1.1104 6.63158 25.2136 6.75939
679 2 2.2208 10.8834 23.9387 5.2812
680 2 2.2208 10.7627 29.4442 5.35259
681 1 -1.1104 12.1237 25.3752 1.1804
682 1 -1.1104 12.4043 25.2213 3.92077
683 1 -1.1104 12.4165 22.5553 1.01737
684 1 -1.1104 12.3192 28.2572 1.03732
685 2 2.2208 10.8019 26.7028 2.53233
686 1 -1.1104 12.3441 22.5305 3.97857
687 1 -1.1104 12.1142 28.1817 3.94978
688 1 -1.1104 9.42715 25.3126 1.11176
689 2 2.2208 8.24613 23.8813 2.53156
690 2 2.2208 7.87621 29.5027 2.61803
691 1 -1.1104 9.48129 25.2055 3.99479
692 2 2.2208 8.15034 26.6619 5.34995
693 1 -1.1104 9.59346 22.4755 1.18695
694 1 -1.1104 9.36871 28.0479 1.17799
695 1 -1.1104 9.52424 22.4887 3.90636
696 1 -1.1104 9.48617 28.0305 3.97713
827 1 -1.1104 12.3642 22.4492 6.77713
826 1 -1.1104 12.2256 25.3849 6.73505
697 2 2.2208 13.6541 23.9246 2.36788
830 1 -1.1104 9.71144 22.4191 6.7434
831 1 -1.1104 9.50956 28.1068 6.84512
698 2 2.2208 13.5356 29.5073 2.51262
699 2 2.2208 13.6645 26.7238 5.31947
1022 2 2.2208 8.11182 26.6614 -0.273881
1021 2 2.2208 10.8564 23.9839 -0.337355
700 2 2.2208 5.22988 35.1142 5.28817
701 1 -1.1104 1.12302 30.9012 1.18375
702 1 -1.1104 1.08726 36.5164 1.05335
704 1 -1.1104 1.03606 30.9874 3.89089
705 1 -1.1104 0.96603 36.7151 3.95289
707 1 -1.1104 1.02277 33.7406 1.05039
708 2 2.2208 5.18692 32.3836 2.557
709 2 2.2208 5.22297 38.0194 2.45301
710 1 -1.1104 1.09551 33.9037 3.85017
712 1 -1.1104 3.86838 30.8773 0.95769
713 1 -1.1104 3.8976 36.741 1.07431
714 2 2.2208 2.3924 35.2639 2.52285
715 1 -1.1104 3.80337 30.9432 3.80297
716 1 -1.1104 3.72684 36.6695 3.95221
717 2 2.2208 2.50255 32.3031 5.3665
718 2 2.2208 2.43131 38.0628 5.24576
719 1 -1.1104 3.87467 33.7894 1.14889
720 1 -1.1104 3.81516 33.7808 3.96324
711 1 -1.1104 6.76036 33.8306 3.94474
858 1 -1.1104 3.82422 33.7743 6.68637
851 1 -1.1104 1.0686 36.6271 6.6285
852 1 -1.1104 6.71094 30.9111 6.80196
724 1 -1.1104 6.4837 30.8722 1.15366
857 1 -1.1104 3.87614 36.5159 6.6922
723 2 2.2208 -0.443057 35.1614 5.28004
726 1 -1.1104 6.60498 33.6626 1.14463
706 1 -1.1104 6.53515 36.4938 3.96058
722 2 2.2208 -0.320781 32.3368 2.46922
970 2 2.2208 13.6808 32.2385 5.26279
703 1 -1.1104 6.75163 36.5338 1.05364
725 1 -1.1104 6.62447 30.9909 3.93756
855 1 -1.1104 6.59525 33.8485 6.71034
727 2 2.2208 10.8389 35.0523 5.28151
728 1 -1.1104 12.2017 30.9804 1.21458
729 1 -1.1104 12.1836 36.4903 0.971268
730 1 -1.1104 12.2238 30.9745 3.95023
731 1 -1.1104 12.238 36.4474 3.87402
732 1 -1.1104 12.1891 33.6107 1.05969
733 2 2.2208 10.801 32.3523 2.48381
734 2 2.2208 10.9083 38.0174 2.38562
735 1 -1.1104 12.2624 33.7316 3.92131
736 1 -1.1104 9.43501 30.9765 0.944027
737 1 -1.1104 9.51599 36.6233 1.16018
738 2 2.2208 7.98732 35.2068 2.47748
739 1 -1.1104 9.43462 30.8448 3.76727
740 1 -1.1104 9.42527 36.444 3.93158
741 2 2.2208 8.07232 32.3796 5.38704
742 2 2.2208 8.10995 37.8824 5.30019
743 1 -1.1104 9.40016 33.8898 1.07394
744 1 -1.1104 9.49064 33.7131 3.81563
887 1 -1.1104 9.45393 30.9029 6.76551