ITEM: TIMESTEP
90000
ITEM: NUMBER OF ATOMS
17820
ITEM: BOX BOUNDS pp pp pp
-3.5212671911232768e-01 2.7692126719113077e+01
-4.3275884198360162e+00 3.3240758841985178e+02
-3.5099314215727362e-01 2.7690993142156849e+01
ITEM: ATOMS id type q x y z
1 2 2.2208 5.10685 1.28688 5.22753
2 1 -1.1104 0.973325 -2.96667 0.909346
3 1 -1.1104 0.884773 2.68721 0.857811
6 1 -1.1104 1.00124 -3.02133 3.76459
7 1 -1.1104 0.976125 2.50489 3.67216
10 1 -1.1104 0.958716 -0.101386 1.04907
12 2 2.2208 5.11266 -1.73689 2.43066
14 1 -1.1104 1.08625 -0.214733 3.80907
16 1 -1.1104 3.66923 -2.96879 1.04411
17 1 -1.1104 3.68428 2.62281 0.767659
18 2 2.2208 2.34675 1.15445 2.32806
19 1 -1.1104 3.67951 -2.93817 3.74983
20 1 -1.1104 3.83682 2.62132 3.77378
21 2 2.2208 2.35023 -1.45219 5.13055
23 1 -1.1104 3.78757 -0.223145 0.976677
24 1 -1.1104 3.8368 -0.118513 3.75121
13 2 2.2208 5.06087 3.99546 2.28205
22 2 2.2208 2.40214 3.93672 5.18119
174 1 -1.1104 3.68654 -0.165195 6.54998
11 1 -1.1104 6.54006 -0.270538 1.03809
169 1 -1.1104 6.56598 2.67458 6.4242
4 1 -1.1104 6.47845 -2.91535 0.834372
172 1 -1.1104 3.57038 -2.99501 6.49535
173 1 -1.1104 3.75646 2.61192 6.67844
15 1 -1.1104 6.56495 -0.223168 3.90663
8 1 -1.1104 6.58239 -3.03581 3.68205
5 1 -1.1104 6.45707 2.7069 0.916706
9 1 -1.1104 6.58574 2.54883 3.78535
171 1 -1.1104 6.50565 -0.187983 6.67194
166 1 -1.1104 0.952391 -2.79839 6.52024
170 1 -1.1104 0.91939 -0.133455 6.4653
168 1 -1.1104 6.48092 -3.04595 6.56893
9727 2 2.2208 13.5289 15.2244 10.7698
9029 2 2.2208 2.28686 -4.33808 13.677
17462 2 2.2208 13.5629 -4.49512 2.38629
9429 2 2.2208 13.3887 4.03994 5.16595
31 2 2.2208 10.6688 1.302 5.23516
32 1 -1.1104 12.1635 -3.1402 1.04866
33 1 -1.1104 12.0974 2.50791 0.936986
34 1 -1.1104 12.1641 -3.00103 3.79804
35 1 -1.1104 12.1535 2.52611 3.60151
36 1 -1.1104 12.1789 -0.377211 1.08516
37 2 2.2208 10.8914 -1.58945 2.5445
39 1 -1.1104 12.3589 -0.159273 3.87822
40 1 -1.1104 9.2465 -2.99954 0.994325
41 1 -1.1104 9.0977 2.61304 1.02332
42 2 2.2208 7.88925 1.16455 2.40288
43 1 -1.1104 9.34409 -2.90309 3.8437
44 1 -1.1104 9.31465 2.78432 3.92143
45 2 2.2208 7.99766 -1.53027 5.32889
47 1 -1.1104 9.37274 -0.14487 1.20944
48 1 -1.1104 9.46609 -0.119735 3.97769
38 2 2.2208 10.7205 3.96266 2.43793
46 2 2.2208 7.96776 4.0907 5.2643
209 1 -1.1104 9.09439 2.62898 6.69148
210 1 -1.1104 9.16175 -0.104313 6.65059
205 1 -1.1104 12.2556 -3.085 6.4669
9730 2 2.2208 13.705 1.25573 2.33721
9731 2 2.2208 13.6283 -1.55205 5.20067
9645 2 2.2208 13.5205 9.71901 10.8188
28 2 2.2208 13.5874 20.8664 10.7598
54 2 2.2208 5.17554 6.90803 5.15216
55 2 2.2208 5.07359 12.5253 5.13165
56 1 -1.1104 0.869824 8.12091 0.877779
58 1 -1.1104 0.853849 8.18256 3.76665
60 1 -1.1104 0.951244 5.44669 1.09317
61 1 -1.1104 0.922006 11.0557 0.882004
66 2 2.2208 5.16008 9.69653 2.38278
67 1 -1.1104 0.787727 5.16047 3.89649
68 1 -1.1104 0.88428 10.8584 3.58487
71 1 -1.1104 3.58536 8.28156 1.0623
72 2 2.2208 2.22727 6.85838 2.36312
73 2 2.2208 2.27891 12.4382 2.20002
74 1 -1.1104 3.61579 8.31467 3.8682
75 2 2.2208 2.37082 9.5812 5.12664
76 1 -1.1104 3.67533 5.37455 0.922644
77 1 -1.1104 3.6432 10.8898 1.0064
79 1 -1.1104 3.58442 5.50586 3.63072
80 1 -1.1104 3.60992 11.1137 3.77723
70 1 -1.1104 6.52906 11.1693 3.75826
69 1 -1.1104 6.49318 5.52651 3.74911
63 1 -1.1104 6.21132 5.39177 0.839779
59 1 -1.1104 6.56482 8.31305 3.78434
64 1 -1.1104 6.32189 11.2572 1.01183
57 1 -1.1104 6.47191 8.33886 0.954927
239 1 -1.1104 3.92176 5.53751 6.70385
237 1 -1.1104 6.69882 5.64263 6.58589
238 1 -1.1104 3.73149 8.17017 6.5603
234 1 -1.1104 0.856374 8.39929 6.76225
78 1 -1.1104 3.70283 10.9896 6.63961
65 1 -1.1104 6.62552 11.2178 6.55711
329 2 2.2208 13.6051 18.224 13.6093
235 1 -1.1104 6.53536 8.36074 6.62271
84 2 2.2208 10.6353 6.73104 5.31299
85 2 2.2208 10.7169 12.5604 5.02051
86 1 -1.1104 12.0176 8.14351 1.05096
87 1 -1.1104 11.9859 8.30661 3.71347
88 1 -1.1104 12.1076 5.25704 1.13112
89 1 -1.1104 11.9215 10.9654 0.908323
91 2 2.2208 10.7237 9.67657 2.33664
92 1 -1.1104 12.1338 5.50529 3.87817
93 1 -1.1104 12.048 11.1446 3.74886
94 1 -1.1104 9.31071 8.21574 0.78845
95 2 2.2208 7.97094 6.93869 2.30496
96 2 2.2208 7.90388 12.4972 2.31993
97 1 -1.1104 9.25664 8.2692 3.64007
98 2 2.2208 7.96161 9.72333 5.19649
99 1 -1.1104 9.13695 5.53194 0.999891
100 1 -1.1104 9.31003 11.0511 1.00232
102 1 -1.1104 9.3807 5.49674 3.89789
103 1 -1.1104 9.36756 11.1003 3.78121
265 1 -1.1104 12.001 8.17752 6.49745
267 1 -1.1104 9.31847 8.29103 6.53841
266 1 -1.1104 12.0474 5.40626 6.56432
9458 2 2.2208 13.357 9.70326 5.01705
90 1 -1.1104 12.2429 11.1449 6.43024
9732 2 2.2208 13.5547 12.5435 2.32991
106 2 2.2208 5.08357 18.0145 5.30982
107 1 -1.1104 1.00837 13.937 0.838965
109 1 -1.1104 0.846751 19.4178 0.886345
113 1 -1.1104 0.845668 13.677 3.50379
114 1 -1.1104 0.919951 19.4508 3.76953
116 1 -1.1104 1.02168 16.7481 0.79458
119 2 2.2208 5.16965 15.2179 2.40412
120 2 2.2208 5.13266 20.8388 2.33006
121 1 -1.1104 1.01655 16.6221 3.75281
123 1 -1.1104 3.78465 13.7753 1.03428
125 1 -1.1104 3.66871 19.4849 0.982228
127 2 2.2208 2.28355 17.9984 2.34623
128 1 -1.1104 3.70522 13.9019 3.71342
129 1 -1.1104 3.56179 19.396 3.81889
130 2 2.2208 2.3302 15.1685 5.16183
131 2 2.2208 2.35434 20.7369 5.18083
132 1 -1.1104 3.79739 16.5181 0.892683
134 1 -1.1104 3.75793 16.5034 3.80011
138 1 -1.1104 6.49067 19.5672 1.00977
122 1 -1.1104 6.57579 16.6106 3.84166
115 1 -1.1104 6.58172 13.8706 3.79438
139 1 -1.1104 6.5285 19.304 3.6513
110 1 -1.1104 6.71282 13.9284 0.871947
140 1 -1.1104 6.55802 16.6716 1.08538
302 1 -1.1104 1.02166 19.345 6.47466
133 1 -1.1104 3.69198 16.6046 6.5851
118 1 -1.1104 6.44984 16.5407 6.66597
82 2 2.2208 10.8014 15.1247 8.05876
112 1 -1.1104 6.61999 19.3604 6.61802
117 1 -1.1104 0.875425 16.5759 6.50269
124 1 -1.1104 3.80073 13.8852 6.46272
108 1 -1.1104 0.883213 13.6972 6.58658
126 1 -1.1104 3.74545 19.3659 6.59508
9026 2 2.2208 7.91695 -4.45052 13.5576
165 2 2.2208 13.4843 18.3003 2.39612
9527 2 2.2208 13.509 15.4346 5.16161
163 1 -1.1104 9.35729 16.6905 6.54956
141 2 2.2208 10.648 18.1194 5.29577
142 1 -1.1104 12.2265 13.9421 1.00979
144 1 -1.1104 12.0295 19.538 0.976765
146 1 -1.1104 12.0151 13.9571 3.7121
147 1 -1.1104 12.2303 19.5659 3.753
148 1 -1.1104 12.1726 16.6249 0.915989
150 2 2.2208 10.7942 15.3089 2.37358
151 2 2.2208 10.8283 20.9838 2.37215
152 1 -1.1104 12.1437 16.788 3.76681
153 1 -1.1104 9.5442 14.038 0.93924
155 1 -1.1104 9.3207 19.7191 1.06634
157 2 2.2208 7.8935 18.0609 2.40152
158 1 -1.1104 9.2525 14.0041 3.74481
159 1 -1.1104 9.3728 19.5448 4.04934
160 2 2.2208 7.85681 15.2388 5.20388
161 2 2.2208 7.97613 20.6895 5.26313
162 1 -1.1104 9.26134 16.9515 0.881855
164 1 -1.1104 9.30272 16.735 3.60665
154 1 -1.1104 9.42933 13.919 6.56921
145 1 -1.1104 12.1757 19.3315 6.62068
149 1 -1.1104 12.103 16.6844 6.58704
156 1 -1.1104 9.32968 19.5919 6.708
9456 2 2.2208 13.5034 1.35903 7.91033
233 1 -1.1104 6.48647 16.7017 12.0675
9017 2 2.2208 10.7185 -4.37895 10.6677
9016 2 2.2208 7.85247 -4.46827 8.00335
167 1 -1.1104 0.880744 2.59307 6.5696
175 2 2.2208 5.14379 1.28271 10.7234
176 1 -1.1104 0.89989 -2.87795 12.2802
177 1 -1.1104 0.816712 2.64427 12.2728
180 1 -1.1104 0.839694 -3.03406 9.51115
181 1 -1.1104 0.984235 2.67075 9.49843
184 1 -1.1104 0.922382 -0.192423 12.2811
186 2 2.2208 5.2147 -1.67153 8.03001
187 2 2.2208 5.18606 4.08523 8.04239
188 1 -1.1104 0.843863 -0.131551 9.44534
190 1 -1.1104 3.76781 -2.75671 12.2359
191 1 -1.1104 3.67378 2.71039 12.2137
192 2 2.2208 2.4228 1.2071 7.99969
193 1 -1.1104 3.6607 -2.85134 9.32922
194 1 -1.1104 3.71774 2.63413 9.46862
195 2 2.2208 2.21041 -1.52611 10.8332
197 1 -1.1104 3.62926 -0.0951678 12.3007
198 1 -1.1104 3.75347 -0.0154585 9.44608
196 2 2.2208 2.37427 4.05805 10.8958
182 1 -1.1104 6.60033 -2.98456 9.44824
178 1 -1.1104 6.49177 -3.18458 12.1455
179 1 -1.1104 6.54228 2.6066 12.2813
189 1 -1.1104 6.39066 -0.18638 9.36347
9625 2 2.2208 13.5888 6.89694 2.36693
53 1 -1.1104 12.234 19.3679 9.36008
25 2 2.2208 13.6133 17.9492 8.00359
208 1 -1.1104 9.30504 -2.98231 6.72343
207 1 -1.1104 11.8463 -0.238196 6.54512
29 2 2.2208 13.595 20.9214 5.11072
185 1 -1.1104 6.36167 -0.42544 12.1383
183 1 -1.1104 6.53897 2.61465 9.47676
9431 2 2.2208 13.4928 -1.40093 10.6855
206 1 -1.1104 12.0653 2.64378 6.52557
9564 2 2.2208 13.5725 4.00656 10.8659
211 2 2.2208 10.7632 1.26314 10.7256
212 1 -1.1104 12.0512 -2.92448 12.0027
213 1 -1.1104 12.0908 2.85041 12.278
214 1 -1.1104 12.1123 -2.83042 9.25386
215 1 -1.1104 12.1027 2.64081 9.43301
216 1 -1.1104 11.9905 -0.029397 12.222
217 2 2.2208 10.5071 -1.41729 8.00935
218 2 2.2208 10.7636 4.072 8.03147
219 1 -1.1104 12.0802 -0.114569 9.40413
220 1 -1.1104 9.21861 -2.93439 12.1508
221 1 -1.1104 9.23034 2.74815 12.2178
222 2 2.2208 7.80706 1.26443 7.97436
223 1 -1.1104 9.15492 -2.83618 9.38198
224 1 -1.1104 9.31169 2.77381 9.47129
225 2 2.2208 7.81478 -1.58358 10.9342
227 1 -1.1104 9.15267 -0.0892519 12.152
228 1 -1.1104 9.13435 -0.0234066 9.41122
226 2 2.2208 7.93489 4.11966 10.8109
83 2 2.2208 10.9221 20.8902 8.08231
312 2 2.2208 7.97646 15.4279 -0.492197
290 1 -1.1104 6.50126 13.9281 9.51771
236 1 -1.1104 0.985958 5.44949 6.52267
62 1 -1.1104 0.850544 10.9593 6.47264
240 2 2.2208 5.06068 6.75467 10.769
241 2 2.2208 5.06735 12.4828 10.8065
242 1 -1.1104 0.89035 8.16862 12.077
244 1 -1.1104 0.769814 8.29241 9.42398
246 1 -1.1104 0.886945 5.43245 12.028
247 1 -1.1104 0.860159 11.0734 12.116
250 2 2.2208 5.19289 9.53507 8.02774
251 1 -1.1104 0.781025 5.39461 9.32245
252 1 -1.1104 0.874527 11.018 9.37077
255 1 -1.1104 3.71055 8.22378 12.1807
256 2 2.2208 2.19746 6.83732 8.07301
257 2 2.2208 2.2923 12.246 7.97739
258 1 -1.1104 3.58572 8.24385 9.44453
259 2 2.2208 2.29695 9.66826 10.8399
260 1 -1.1104 3.70799 5.42238 12.2908
261 1 -1.1104 3.75947 11.1282 12.297
262 1 -1.1104 3.59726 5.41167 9.50548
263 1 -1.1104 3.75187 11.1187 9.4607
243 1 -1.1104 6.50285 8.26162 12.175
254 1 -1.1104 6.51115 11.1602 9.42868
253 1 -1.1104 6.42437 5.48089 9.39683
248 1 -1.1104 6.41081 5.37842 12.1422
249 1 -1.1104 6.65718 11.2418 12.2672
245 1 -1.1104 6.68909 8.26833 9.49222
26 2 2.2208 10.8667 18.0939 10.7462
199 2 2.2208 8.01431 18.0646 8.04487
322 2 2.2208 7.90115 12.619 13.4877
143 1 -1.1104 12.2543 13.9081 6.63133
296 1 -1.1104 6.38408 19.5035 12.2338
9641 2 2.2208 13.6101 12.5357 7.97748
101 1 -1.1104 9.3756 11.0558 6.65788
269 1 -1.1104 9.42832 5.46538 6.6918
264 1 -1.1104 9.23194 11.2935 9.30909
268 1 -1.1104 9.19802 5.54394 9.38146
270 1 -1.1104 9.41155 10.9401 12.1121
271 1 -1.1104 9.25632 5.58492 12.1761
272 2 2.2208 7.80707 9.7937 10.8049
273 1 -1.1104 9.55198 8.44901 9.40495
274 2 2.2208 7.86255 12.5597 7.951
275 2 2.2208 8.03472 6.90062 8.01404
276 2 2.2208 10.6102 6.93942 10.6937
277 2 2.2208 10.694 12.3829 10.8547
278 1 -1.1104 12.1283 8.32978 12.033
279 1 -1.1104 12.1585 8.35656 9.27838
280 1 -1.1104 12.0756 5.54762 12.1759
281 1 -1.1104 12.1075 11.1795 12.2637
282 2 2.2208 10.796 9.67429 7.90321
283 1 -1.1104 12.0216 5.40557 9.37453
284 1 -1.1104 11.953 11.1885 9.31703
285 1 -1.1104 9.24575 8.33294 12.2832
9640 2 2.2208 13.4507 6.96676 8.06137
49 1 -1.1104 12.2644 19.5507 12.1372
30 1 -1.1104 9.32765 16.6448 9.38418
111 1 -1.1104 6.64256 13.8954 6.66489
324 2 2.2208 5.12083 20.9684 13.6044
137 1 -1.1104 9.39054 19.5495 12.1587
289 1 -1.1104 6.59438 16.7845 9.38589
297 1 -1.1104 6.36554 13.9659 12.3332
201 1 -1.1104 9.53005 19.4467 9.38431
288 1 -1.1104 6.68462 19.5784 9.57639
202 2 2.2208 2.39454 15.3381 10.8237
203 2 2.2208 2.45513 20.7419 10.7197
231 1 -1.1104 3.78133 16.6508 12.2148
232 1 -1.1104 1.0199 16.7622 12.1533
286 1 -1.1104 3.57177 19.3761 12.1121
287 1 -1.1104 3.66961 13.9831 12.2601
291 1 -1.1104 0.999753 19.5911 9.35826
292 1 -1.1104 0.819488 16.717 9.1775
293 2 2.2208 5.19876 20.8346 7.94543
294 1 -1.1104 0.860235 13.915 9.37585
295 2 2.2208 5.13253 15.2977 8.00797
298 1 -1.1104 0.950277 19.4259 12.1101
299 1 -1.1104 0.915802 13.9944 12.1118
300 2 2.2208 5.24138 18.1687 10.846
301 1 -1.1104 3.84347 19.3661 9.42964
303 2 2.2208 2.29324 17.945 7.86034
304 1 -1.1104 3.82964 16.5577 9.37549
305 1 -1.1104 3.61262 13.8151 9.45711
204 2 2.2208 7.90527 15.3594 10.8417
229 2 2.2208 8.0244 20.9135 10.7581
230 1 -1.1104 9.36195 16.7458 12.1376
105 1 -1.1104 9.24036 13.9928 12.1664
81 1 -1.1104 12.1838 16.7669 12.1271
104 1 -1.1104 12.1977 16.5833 9.32906
27 1 -1.1104 12.0468 13.8872 12.2102
50 1 -1.1104 12.149 13.8519 9.47935
200 1 -1.1104 9.32487 14.0035 9.39297
328 2 2.2208 8.00648 18.1855 13.5649
310 2 2.2208 2.19155 1.36739 13.5659
321 2 2.2208 10.8073 9.65935 13.4966
320 2 2.2208 7.97322 6.9254 13.558
318 2 2.2208 5.30987 9.55701 13.6495
9777 2 2.2208 13.5348 4.08032 -0.413738
9022 2 2.2208 10.748 -4.29654 -0.537008
325 2 2.2208 5.04009 15.3952 13.6515
317 2 2.2208 2.20594 6.82611 13.6277
338 2 2.2208 7.80147 -1.64907 -0.417899
323 2 2.2208 2.24458 18.106 13.5085
311 2 2.2208 5.14513 4.092 13.7087
9025 2 2.2208 5.08853 -4.51016 -0.472341
316 2 2.2208 10.7421 4.12005 13.6419
9753 2 2.2208 13.508 12.5475 13.5632
314 2 2.2208 7.98112 1.25668 13.5408
327 2 2.2208 10.6878 15.3729 13.5473
346 2 2.2208 5.00864 1.19819 16.4357
347 1 -1.1104 0.898817 -2.82686 17.7163
348 1 -1.1104 0.853539 2.73397 17.6967
351 1 -1.1104 0.782856 -2.86693 15.05
353 1 -1.1104 0.860201 2.72476 14.9394
359 1 -1.1104 0.854818 0.0238336 17.9449
361 2 2.2208 5.05743 -1.57222 19.2128
362 2 2.2208 5.12582 4.12323 19.2217
363 1 -1.1104 0.887702 -0.0441111 15.2492
367 1 -1.1104 3.54856 -3.14923 17.873
368 1 -1.1104 3.68691 2.64922 17.9255
369 2 2.2208 2.24694 1.39586 19.274
370 1 -1.1104 3.57993 -2.86013 15.1583
372 1 -1.1104 3.64299 2.64293 15.1
374 2 2.2208 2.23775 -1.53553 16.4739
375 2 2.2208 2.33287 3.95852 16.4289
376 1 -1.1104 3.59524 -0.243529 17.8597
377 1 -1.1104 3.5505 -0.148703 14.994
378 1 -1.1104 3.80203 -0.149507 20.5897
350 1 -1.1104 6.46047 2.82002 17.8633
360 1 -1.1104 6.37783 -0.243072 17.9688
357 1 -1.1104 6.42125 2.58022 15.1097
365 1 -1.1104 6.43338 -0.209964 15.0176
355 1 -1.1104 6.56103 -2.96418 14.88
358 1 -1.1104 6.56346 2.63981 20.659
349 1 -1.1104 6.34698 -2.90485 17.7479
352 1 -1.1104 0.797179 -3.09735 20.5677
373 1 -1.1104 3.65434 2.72305 20.5521
354 1 -1.1104 0.872398 2.73154 20.6508
371 1 -1.1104 3.7221 -3.02579 20.6486
364 1 -1.1104 1.02895 -0.212587 20.7203
413 2 2.2208 13.6907 20.9185 21.9369
9137 2 2.2208 2.2114 -4.3384 19.1335
389 2 2.2208 10.6829 1.29433 16.4033
390 1 -1.1104 11.9987 -2.84995 17.8361
391 1 -1.1104 11.9902 2.54805 17.8613
392 1 -1.1104 12.0185 -2.93375 14.959
394 1 -1.1104 12.1777 2.71933 15.0761
396 1 -1.1104 12.0824 -0.209081 17.7802
397 2 2.2208 10.5911 -1.51251 19.1687
398 2 2.2208 10.6662 4.04274 19.1981
399 1 -1.1104 12.0709 -0.129623 14.8849
401 1 -1.1104 9.23231 -2.93131 17.6824
402 1 -1.1104 9.39169 2.83904 17.7867
403 2 2.2208 7.86652 1.39357 19.2628
404 1 -1.1104 9.25803 -2.88505 14.9416
406 1 -1.1104 9.24692 2.52762 15.1169
408 2 2.2208 7.87426 -1.48559 16.5024
409 2 2.2208 7.89522 4.15428 16.389
410 1 -1.1104 9.2116 -0.0362989 17.7283
411 1 -1.1104 9.39097 -0.218738 14.8935
407 1 -1.1104 9.25749 2.72362 20.5603
393 1 -1.1104 11.9922 -2.95357 20.5856
9818 2 2.2208 13.4997 1.29924 19.1482
405 1 -1.1104 9.24179 -2.81055 20.5946
9856 2 2.2208 13.6139 -1.44141 22.0506
395 1 -1.1104 12.0911 2.79393 20.7254
9815 2 2.2208 13.5276 -1.51146 16.3711
9099 2 2.2208 10.7814 -4.35182 21.9146
422 2 2.2208 5.02635 6.92221 16.4323
423 2 2.2208 5.0237 12.5521 16.3005
424 1 -1.1104 1.00485 8.07761 17.6929
426 1 -1.1104 0.902058 8.25612 14.9383
430 1 -1.1104 0.921711 5.41318 17.7952
431 1 -1.1104 0.935488 11.0512 17.779
434 2 2.2208 5.02594 9.65932 19.0927
435 1 -1.1104 0.781885 5.46779 15.0228
437 1 -1.1104 0.934744 10.9969 14.9874
443 1 -1.1104 3.73694 8.42285 17.7139
444 2 2.2208 2.32291 6.63356 19.2338
445 2 2.2208 2.31365 12.4333 19.0976
446 1 -1.1104 3.68201 8.36289 14.9529
448 2 2.2208 2.25064 9.68675 16.4115
449 1 -1.1104 3.82478 5.46321 17.8848
450 1 -1.1104 3.75474 11.2774 17.7514
451 1 -1.1104 3.62914 5.4449 15.0765
453 1 -1.1104 3.83465 11.1126 14.8977
441 1 -1.1104 6.71047 11.1171 14.9001
433 1 -1.1104 6.44602 11.2026 17.7635
425 1 -1.1104 6.64654 8.38869 17.7425
428 1 -1.1104 6.55879 8.2298 15.0203
432 1 -1.1104 6.62195 5.54456 17.7974
452 1 -1.1104 3.68463 5.52636 20.7298
438 1 -1.1104 1.06358 10.9868 20.5941
427 1 -1.1104 0.904964 8.15488 20.5075
447 1 -1.1104 3.80643 8.18272 20.4567
9887 2 2.2208 13.6636 6.8337 19.2921
9888 2 2.2208 13.6231 12.489 19.1865
9812 2 2.2208 13.581 3.97535 16.4891
439 1 -1.1104 6.33614 5.53729 15.023
458 2 2.2208 10.6192 6.84316 16.4343
459 2 2.2208 10.7064 12.4365 16.4461
460 1 -1.1104 12.1828 8.11207 17.7572
461 1 -1.1104 12.036 8.13748 14.8423
463 1 -1.1104 12.241 5.28426 17.9032
464 1 -1.1104 12.229 11.0378 17.943
465 2 2.2208 10.7424 9.67285 19.351
466 1 -1.1104 12.0732 5.44064 15.0598
468 1 -1.1104 12.1278 10.9683 15.0687
470 1 -1.1104 9.35415 8.49074 17.9379
471 2 2.2208 7.9238 6.92862 19.1913
472 2 2.2208 7.90499 12.487 19.2374
473 1 -1.1104 9.21925 8.26694 14.9923
475 2 2.2208 8.06575 9.78982 16.4336
476 1 -1.1104 9.34105 5.58446 17.8326
477 1 -1.1104 9.42635 11.1053 18.0258
478 1 -1.1104 9.28003 5.42533 15.0294
480 1 -1.1104 9.3693 11.1327 14.9678
474 1 -1.1104 9.31031 8.06004 20.6881
469 1 -1.1104 12.0749 11.1414 20.657
479 1 -1.1104 9.43024 5.396 20.8
467 1 -1.1104 12.1467 5.5992 20.6208
611 2 2.2208 10.7931 20.9511 24.7357
612 1 -1.1104 11.8697 16.8474 26.2282
485 2 2.2208 5.03937 18.1492 16.3047
486 1 -1.1104 0.849376 13.84 17.6851
487 1 -1.1104 0.952969 19.5083 17.7844
490 1 -1.1104 0.921879 13.7468 14.945
492 1 -1.1104 1.02591 19.5844 15.0207
498 1 -1.1104 0.77108 16.6798 17.6751
500 2 2.2208 5.1392 15.3154 19.2599
501 2 2.2208 5.23916 20.8107 19.113
502 1 -1.1104 0.887364 16.7012 14.9661
506 1 -1.1104 3.57959 13.9885 17.8781
507 1 -1.1104 3.70522 19.4452 17.7322
508 2 2.2208 2.29389 18 19.1046
509 1 -1.1104 3.61502 13.9169 15.1509
511 1 -1.1104 3.75872 19.5748 14.744
513 2 2.2208 2.18467 15.2612 16.4397
514 2 2.2208 2.24687 20.9426 16.393
515 1 -1.1104 3.67831 16.8677 17.6664
516 1 -1.1104 3.68308 16.7308 15.0276
496 1 -1.1104 6.60786 19.4888 14.9151
574 1 -1.1104 9.26956 19.5037 26.2166
499 1 -1.1104 6.3882 16.8465 17.5492
494 1 -1.1104 6.53674 13.9123 15.1102
517 1 -1.1104 3.71752 16.7507 20.5484
491 1 -1.1104 0.922749 13.6735 20.4982
503 1 -1.1104 0.897412 16.5689 20.4657
493 1 -1.1104 1.07497 19.3274 20.6042
510 1 -1.1104 3.73717 13.8027 20.4749
512 1 -1.1104 3.84206 19.5332 20.6075
504 1 -1.1104 6.52518 16.6943 14.8228
489 1 -1.1104 6.48779 19.5558 17.7207
525 1 -1.1104 12.2093 13.9401 20.5521
544 1 -1.1104 9.31988 16.7246 20.5687
488 1 -1.1104 6.61189 14.2012 18.0157
521 2 2.2208 10.8224 18.1367 16.3395
522 1 -1.1104 12.1816 13.6836 17.658
523 1 -1.1104 12.2242 19.5745 17.7492
524 1 -1.1104 12.1567 13.926 14.9895
526 1 -1.1104 12.1614 19.6797 15.0238
528 1 -1.1104 12.0923 16.7067 17.8076
529 2 2.2208 10.7262 15.2677 19.2713
530 2 2.2208 10.7825 20.949 19.1739
531 1 -1.1104 12.1557 16.6628 15.0007
533 1 -1.1104 9.43357 13.9131 17.6769
534 1 -1.1104 9.42561 19.4606 17.733
535 2 2.2208 8.03648 18.1179 19.0693
536 1 -1.1104 9.29857 14.0065 14.9357
538 1 -1.1104 9.40609 19.4209 15.0065
540 2 2.2208 7.87701 15.2931 16.323
541 2 2.2208 7.93716 20.9409 16.3928
542 1 -1.1104 9.29019 16.7438 17.6978
543 1 -1.1104 9.35027 16.739 14.9553
527 1 -1.1104 12.1802 19.5306 20.5482
537 1 -1.1104 9.35826 13.8558 20.6298
9958 2 2.2208 13.5076 18.0857 19.3674
414 2 2.2208 13.4459 15.2569 16.37
385 2 2.2208 13.5721 20.9565 16.4824
505 1 -1.1104 6.61109 16.8148 20.5312
532 1 -1.1104 12.0895 16.7784 20.6049
584 1 -1.1104 12.2012 19.6623 26.1099
356 1 -1.1104 6.4633 -2.79426 20.5171
549 2 2.2208 5.20046 1.18931 22.0064
550 1 -1.1104 0.925224 -2.83891 23.3514
551 1 -1.1104 0.993496 2.68757 23.4295
554 1 -1.1104 0.969225 -3.00624 26.2454
555 1 -1.1104 1.04161 2.41208 26.1679
558 1 -1.1104 1.06034 -0.175622 23.3903
560 2 2.2208 5.14524 -1.64791 24.8012
561 2 2.2208 5.12489 3.85986 24.7079
562 1 -1.1104 0.835521 -0.286295 26.2004
564 1 -1.1104 3.81313 -3.10574 23.584
565 1 -1.1104 3.75151 2.47887 23.2902
566 2 2.2208 2.40527 1.2058 24.7931
567 1 -1.1104 3.68789 -3.11964 26.3025
568 1 -1.1104 3.80808 2.62754 26.1021
569 2 2.2208 2.39446 -1.62359 21.9798
571 1 -1.1104 3.75006 -0.318923 23.3283
572 1 -1.1104 3.71846 -0.397339 26.1305
570 2 2.2208 2.25512 4.00433 22.1006
366 1 -1.1104 6.67677 -0.0731243 20.792
559 1 -1.1104 6.46793 -0.209209 23.5007
553 1 -1.1104 6.56094 2.50225 23.397
563 1 -1.1104 6.46005 -0.250349 26.3363
557 1 -1.1104 6.49731 2.57672 26.1833
552 1 -1.1104 6.65236 -2.93162 23.378
556 1 -1.1104 6.51278 -2.95728 26.1626
582 1 -1.1104 12.22 19.5393 23.2871
330 2 2.2208 5.21853 1.26642 27.615
9138 2 2.2208 5.00844 -4.3516 16.4957
577 2 2.2208 10.6667 18.1707 22.0355
412 1 -1.1104 9.39197 -0.00640905 20.5782
10019 2 2.2208 13.5548 4.08191 22.081
400 1 -1.1104 12.2096 -0.148101 20.5714
483 1 -1.1104 6.61412 19.5011 23.291
416 2 2.2208 13.5134 9.74045 16.4286
606 1 -1.1104 12.0484 16.7964 23.3397
585 2 2.2208 10.8058 1.27272 21.8979
586 1 -1.1104 12.2773 -2.87711 23.2536
587 1 -1.1104 12.2408 2.70832 23.3958
588 1 -1.1104 12.2155 -3.07339 26.1451
589 1 -1.1104 12.2558 2.66162 26.2949
590 1 -1.1104 12.2604 -0.0414613 23.3335
591 2 2.2208 10.7502 -1.53197 24.7322
592 2 2.2208 10.7373 3.95279 24.7561
593 1 -1.1104 12.1574 -0.220403 26.2167
594 1 -1.1104 9.36424 -2.83978 23.3491
595 1 -1.1104 9.2744 2.58794 23.3543
596 2 2.2208 7.94863 1.22526 24.8147
597 1 -1.1104 9.35671 -3.00456 26.0401
598 1 -1.1104 9.28752 2.5923 26.1036
599 2 2.2208 7.94093 -1.46813 22.0797
600 2 2.2208 7.8831 4.04316 21.9616
601 1 -1.1104 9.42567 -0.107125 23.4733
602 1 -1.1104 9.35975 -0.359488 26.3201
9750 2 2.2208 13.4961 6.89908 13.5203
429 1 -1.1104 6.41839 8.35973 20.6719
440 1 -1.1104 6.56251 5.49358 20.6228
454 1 -1.1104 3.67549 11.0792 20.5901
436 1 -1.1104 1.02146 5.5039 20.7904
614 2 2.2208 5.10361 6.73097 22.0814
615 2 2.2208 5.13298 12.3966 21.9999
616 1 -1.1104 0.885685 8.13274 23.2733
618 1 -1.1104 0.803428 8.23506 26.2364
620 1 -1.1104 0.853577 5.34234 23.4789
621 1 -1.1104 0.880274 10.8858 23.3427
624 2 2.2208 5.07794 9.56206 24.8207
625 1 -1.1104 0.912579 5.33225 26.2073
626 1 -1.1104 0.782303 11.0408 26.1795
629 1 -1.1104 3.64114 8.22809 23.4487
630 2 2.2208 2.30369 6.85694 24.8471
631 2 2.2208 2.24314 12.4003 24.7905
632 1 -1.1104 3.62832 8.32041 26.292
633 2 2.2208 2.4298 9.60116 21.9494
634 1 -1.1104 3.61649 5.37136 23.542
635 1 -1.1104 3.68147 11.0356 23.4481
636 1 -1.1104 3.65098 5.45688 26.2029
637 1 -1.1104 3.66109 11.0765 26.1036
619 1 -1.1104 6.51451 8.30746 26.312
622 1 -1.1104 6.48233 5.30182 23.3656
442 1 -1.1104 6.43243 11.0786 20.4504
623 1 -1.1104 6.33574 10.9437 23.4136
617 1 -1.1104 6.40996 8.09281 23.461
628 1 -1.1104 6.44223 11.0157 26.2843
319 2 2.2208 2.3014 12.5201 13.4211
573 2 2.2208 7.94071 15.3224 21.9719
462 1 -1.1104 12.2029 8.32681 20.6167
9852 2 2.2208 13.4509 6.93501 24.9027
627 1 -1.1104 6.45709 5.35746 26.1288
10078 2 2.2208 13.4343 9.73648 22.1124
481 1 -1.1104 9.37003 10.8475 20.7301
575 1 -1.1104 9.34719 8.41568 23.5126
576 1 -1.1104 12.1569 11.2103 26.2019
603 1 -1.1104 11.9661 5.34489 26.3026
604 2 2.2208 10.6479 9.77157 24.7906
605 1 -1.1104 11.9081 11.173 23.4461
607 1 -1.1104 12.3258 5.49308 23.4024
608 1 -1.1104 12.1992 8.28637 26.3136
609 1 -1.1104 12.1806 8.41056 23.4592
638 2 2.2208 10.6954 12.478 22.0019
639 2 2.2208 10.7651 6.91559 22.0886
640 2 2.2208 7.92399 6.90532 24.8103
645 1 -1.1104 9.27261 11.1175 26.1063
646 1 -1.1104 9.24582 5.40991 26.1262
647 1 -1.1104 9.08393 11.1881 23.2965
648 1 -1.1104 9.41565 5.4553 23.4373
649 2 2.2208 7.86502 9.66677 22.0185
650 1 -1.1104 9.26456 8.24606 26.1948
651 2 2.2208 7.82981 12.5906 24.7573
10034 2 2.2208 13.6591 1.11568 24.9199
315 2 2.2208 10.6208 -1.59563 13.502
309 2 2.2208 5.00275 -1.57606 13.6526
9854 2 2.2208 13.3113 12.6175 24.7101
313 2 2.2208 10.718 18.2278 27.6273
580 1 -1.1104 9.21422 16.7869 23.3426
520 1 -1.1104 6.42279 16.7631 26.2007
548 2 2.2208 7.99398 20.9256 22.0278
495 1 -1.1104 6.47387 13.8781 20.6971
380 2 2.2208 2.30318 15.2271 22.0254
383 2 2.2208 2.45125 20.8676 22.0105
384 1 -1.1104 3.79251 16.6156 23.2638
386 1 -1.1104 1.00624 16.5506 23.4664
388 1 -1.1104 3.63845 13.8719 26.2863
417 1 -1.1104 3.56687 16.5418 26.02
418 2 2.2208 2.31158 17.9692 24.8106
419 1 -1.1104 3.64392 19.4668 26.1913
420 2 2.2208 5.21949 18.0844 21.8692
421 1 -1.1104 0.825669 13.7597 23.408
455 1 -1.1104 1.08037 19.4012 23.4116
457 2 2.2208 5.02284 15.2407 24.7831
482 2 2.2208 5.12442 20.895 24.8196
484 1 -1.1104 0.915017 13.8498 26.2529
518 1 -1.1104 0.907721 16.5972 26.2287
519 1 -1.1104 0.877177 19.3349 26.1394
545 1 -1.1104 3.60585 13.7485 23.4034
547 1 -1.1104 3.64826 19.4345 23.4025
546 1 -1.1104 6.4306 13.9894 26.1349
497 1 -1.1104 6.72889 19.4815 20.5735
456 1 -1.1104 6.41556 13.8217 23.3783
643 1 -1.1104 6.39044 19.4545 26.1272
387 1 -1.1104 6.50574 16.7068 23.3533
341 2 2.2208 5.20128 18.0769 27.7132
613 1 -1.1104 9.16521 13.9825 23.3415
641 1 -1.1104 9.38279 19.6116 23.444
336 2 2.2208 7.89389 20.8849 27.5925
579 1 -1.1104 9.23484 16.7282 26.1012
581 1 -1.1104 11.9117 13.9605 23.4044
644 1 -1.1104 9.22354 13.8681 26.3181
382 2 2.2208 13.5079 18.0446 24.6701
583 1 -1.1104 11.9539 14.0621 26.1722
539 1 -1.1104 9.45476 19.436 20.529
379 2 2.2208 13.4441 15.3892 21.8668
642 2 2.2208 7.88419 18.1255 24.7369
610 2 2.2208 10.6354 15.3936 24.8922
307 2 2.2208 13.4635 15.2458 27.6485
344 2 2.2208 2.30395 9.58272 27.5925
339 2 2.2208 7.86002 4.01914 27.6136
308 2 2.2208 13.5346 20.9304 27.5574
326 2 2.2208 10.7526 20.9419 13.5739
331 2 2.2208 2.36074 -1.56646 27.6183
9737 2 2.2208 -0.53449 1.25843 27.6795
332 2 2.2208 2.32158 4.03638 27.6245
9742 2 2.2208 13.6662 -1.73172 27.6735
9741 2 2.2208 13.4402 1.29875 13.5828
345 2 2.2208 5.05492 12.5845 27.4997
342 2 2.2208 2.16908 20.8567 27.6231
337 2 2.2208 10.7063 1.13457 27.7291
340 2 2.2208 2.35388 15.3012 27.5914
334 2 2.2208 7.84419 9.65863 27.6058
335 2 2.2208 10.7186 6.70845 27.6774
343 2 2.2208 4.97197 6.76618 27.5458
9744 2 2.2208 13.5278 9.6125 27.8351
333 2 2.2208 10.7229 12.4604 27.533
652 2 2.2208 5.19067 23.5869 5.13144
653 2 2.2208 5.06255 29.3188 5.17575
654 1 -1.1104 0.91493 25.0737 1.01204
655 1 -1.1104 0.922676 24.9031 3.78713
656 1 -1.1104 1.0642 22.232 0.965344
657 1 -1.1104 1.01018 27.8277 1.05016
658 2 2.2208 5.14236 26.5359 2.20805
659 1 -1.1104 0.9236 22.122 3.78244
660 1 -1.1104 0.747323 27.7372 3.94987
661 1 -1.1104 3.76486 25.1426 0.967121
662 2 2.2208 2.43722 23.6768 2.4194
663 2 2.2208 2.38837 29.345 2.32763
664 1 -1.1104 3.78621 25.2372 3.79684
665 2 2.2208 2.38768 26.4239 5.32596
666 1 -1.1104 3.62696 22.308 0.866039
667 1 -1.1104 3.82738 28.065 0.834274
668 1 -1.1104 3.71355 22.3113 3.76656
669 1 -1.1104 3.63459 28.0129 3.74311
675 1 -1.1104 6.49303 22.3443 0.972354
677 1 -1.1104 6.56696 22.0117 3.83562
673 1 -1.1104 6.45161 25.1441 0.807606
676 1 -1.1104 6.65871 28.0099 0.992613
678 1 -1.1104 6.49183 27.8479 3.68422
796 1 -1.1104 1.04725 27.8336 6.70673
797 1 -1.1104 6.65772 22.2922 6.51496
794 1 -1.1104 6.4408 25.173 6.5681
793 1 -1.1104 0.94191 25.034 6.58767
801 1 -1.1104 3.71662 27.881 6.70844
800 1 -1.1104 3.77316 22.1994 6.54976
799 1 -1.1104 3.92101 24.9607 6.48387
674 1 -1.1104 6.51335 25.0103 3.50919
679 2 2.2208 10.7497 23.6378 5.11292
680 2 2.2208 10.657 29.0997 5.19288
681 1 -1.1104 12.2376 24.9304 1.03147
682 1 -1.1104 12.0996 24.9391 3.80933
683 1 -1.1104 12.1374 22.2454 0.871587
684 1 -1.1104 12.2274 27.6992 1.0571
685 2 2.2208 10.7517 26.4522 2.36877
686 1 -1.1104 12.1969 22.2404 3.65548
687 1 -1.1104 12.1613 27.768 3.87869
688 1 -1.1104 9.30469 25.1821 0.943244
689 2 2.2208 7.85655 23.6702 2.23033
690 2 2.2208 7.95066 29.3819 2.43375
691 1 -1.1104 9.31662 25.0298 3.69178
692 2 2.2208 7.83149 26.3246 5.08101
693 1 -1.1104 9.27007 22.3193 0.884576
694 1 -1.1104 9.50341 28.0356 0.921999
695 1 -1.1104 9.28686 22.2021 3.64516
696 1 -1.1104 9.23653 27.6697 3.83162
830 1 -1.1104 9.50403 22.3328 6.64358
827 1 -1.1104 12.2491 22.3216 6.6143
697 2 2.2208 13.628 23.5694 2.33598
831 1 -1.1104 9.14663 27.9 6.6051
1586 1 -1.1104 3.80397 47.5436 12.2281
1607 1 -1.1104 12.0245 47.5516 12.2604
700 2 2.2208 5.31196 35.0175 5.22452
701 1 -1.1104 1.00566 30.6714 0.785807
702 1 -1.1104 1.14789 36.2104 1.14463
704 1 -1.1104 0.910698 30.5349 3.81168
705 1 -1.1104 1.07031 36.2845 3.87213
707 1 -1.1104 0.892316 33.3793 0.976333
708 2 2.2208 5.06079 32.2266 2.41243
709 2 2.2208 5.2701 37.8205 2.35886
710 1 -1.1104 0.908166 33.4547 3.89331
712 1 -1.1104 3.8137 30.8425 0.920038
713 1 -1.1104 3.80806 36.4941 1.02585
714 2 2.2208 2.31135 34.9396 2.50814
715 1 -1.1104 3.56392 30.8258 3.65867
716 1 -1.1104 3.78746 36.3496 3.87669
717 2 2.2208 2.4345 32.1216 5.26921
718 2 2.2208 2.39466 37.7409 5.26803
719 1 -1.1104 3.75609 33.6297 1.2191
720 1 -1.1104 3.93263 33.6029 3.89005
857 1 -1.1104 3.91319 36.2865 6.56684
850 1 -1.1104 0.951484 30.681 6.78538
711 1 -1.1104 6.69397 33.5402 3.83449
726 1 -1.1104 6.50188 33.5566 0.896849
858 1 -1.1104 3.6998 33.5083 6.64517
856 1 -1.1104 3.52585 30.7225 6.59856
706 1 -1.1104 6.72356 36.2193 3.82988
725 1 -1.1104 6.42261 30.6551 3.77048
853 1 -1.1104 6.68637 36.2926 6.65793
724 1 -1.1104 6.50652 30.9 1.0747
854 1 -1.1104 0.913122 33.7239 6.55265
852 1 -1.1104 6.58239 30.6859 6.38641
851 1 -1.1104 1.06009 36.3994 6.73967
698 2 2.2208 13.6011 29.2882 2.53735
1009 2 2.2208 8.01835 40.4914 13.7543
703 1 -1.1104 6.59954 36.2788 1.01787
727 2 2.2208 10.9238 35.0062 5.31244
728 1 -1.1104 12.2994 30.5988 1.06057
729 1 -1.1104 12.2351 36.3193 1.0722
730 1 -1.1104 12.0802 30.6957 3.89845
731 1 -1.1104 12.3446 36.3723 3.90613
732 1 -1.1104 12.1866 33.5889 0.987957
733 2 2.2208 10.7609 32.1877 2.53456
734 2 2.2208 10.8782 37.5778 2.49867
735 1 -1.1104 12.1837 33.5419 3.86359
736 1 -1.1104 9.41532 30.8307 1.0327
737 1 -1.1104 9.54018 36.301 1.05063
738 2 2.2208 7.96712 34.8704 2.40763
739 1 -1.1104 9.29161 30.5967 3.72781
740 1 -1.1104 9.44331 36.3081 3.84493