LAMMPS (29 Oct 2020)
OMP_NUM_THREADS environment is not set. Defaulting to 1 thread. (../comm.cpp:94)
  using 1 OpenMP thread(s) per MPI task
#---------------------------------------
#
# This script is used to calculate the thermal conuctivity of UO2 using Muller-Plathe method
# By Ziqiang Wang on 03/18/2022 on Jilin university
#
#---------------------------------------

variable     Nevery    equal   50
variable     T         equal   600

clear
OMP_NUM_THREADS environment is not set. Defaulting to 1 thread. (../comm.cpp:94)
  using 1 OpenMP thread(s) per MPI task
units          metal
boundary       p p p
atom_style     full

read_data vac_0.01_relaxed.dat
Reading data file ...
  orthogonal box = (-0.35666406 -4.1974898 -0.37922138) to (27.696664 332.27749 27.719221)
  2 by 13 by 2 MPI processor grid
  reading atoms ...
  17820 atoms
  reading velocities ...
  17820 velocities
Finding 1-2 1-3 1-4 neighbors ...
  special bond factors lj:    0.0      0.0      0.0     
  special bond factors coul:  0.0      0.0      0.0     
     0 = max # of 1-2 neighbors
     0 = max # of 1-3 neighbors
     0 = max # of 1-4 neighbors
     1 = max # of special neighbors
  special bonds CPU = 0.003 seconds
  read_data CPU = 0.061 seconds

set           type     1    charge     -1.1104
Setting atom values ...
  11880 settings made for charge
set           type     2    charge      2.2208
Setting atom values ...
  5940 settings made for charge

kspace_style    pppm   1.0e-05
pair_style      hybrid/overlay  coul/long  11.0  eam/alloy
pair_coeff      * * coul/long
pair_coeff      * * eam/alloy CeThUNpPuAmCmO.eam.alloy O Th
newton          on
neighbor        0.3 bin
neigh_modify    delay 0 check yes every 1

#The first equilation
velocity        all create $T 10001 mom yes rot yes dist gaussian
velocity        all create 600 10001 mom yes rot yes dist gaussian
fix             nvt  all  nvt  temp  $T $T  0.1
fix             nvt  all  nvt  temp  600 $T  0.1
fix             nvt  all  nvt  temp  600 600  0.1

run             100000
PPPM initialization ...
  using 12-bit tables for long-range coulomb (../kspace.cpp:328)
  G vector (1/distance) = 0.29883086
  grid = 40 240 40
  stencil order = 5
  estimated absolute RMS force accuracy = 0.00015686165
  estimated relative force accuracy = 1.0893439e-05
  using single precision MKL FFT
  3d grid and FFT values/proc = 15000 7600
Neighbor list info ...
  update every 1 steps, delay 0 steps, check yes
  max neighbors/atom: 2000, page size: 100000
  master list distance cutoff = 11.3
  ghost atom cutoff = 11.3
  binsize = 5.65, bins = 5 60 5
  2 neighbor lists, perpetual/occasional/extra = 2 0 0
  (1) pair coul/long, perpetual
      attributes: half, newton on
      pair build: half/bin/newton
      stencil: half/bin/3d/newton
      bin: standard
  (2) pair eam/alloy, perpetual, copy from (1)
      attributes: half, newton on
      pair build: copy
      stencil: none
      bin: none
Per MPI rank memory allocation (min/avg/max) = 8.158 | 8.181 | 8.193 Mbytes
Step Temp E_pair E_mol TotEng Press 
       0          600   -232723.02            0   -231341.05    1412.6553 
  100000    595.16963   -232719.72            0   -231348.87    859.60341 
Loop time of 653.701 on 52 procs for 100000 steps with 17820 atoms

Performance: 13.217 ns/day, 1.816 hours/ns, 152.975 timesteps/s
99.8% CPU use with 52 MPI tasks x 1 OpenMP threads

MPI task timing breakdown:
Section |  min time  |  avg time  |  max time  |%varavg| %total
---------------------------------------------------------------
Pair    | 435.85     | 446.42     | 460.36     |  27.1 | 68.29
Bond    | 0.0060726  | 0.010409   | 0.016971   |   2.3 |  0.00
Kspace  | 134.62     | 150.34     | 163.66     |  52.0 | 23.00
Neigh   | 32.193     | 34.179     | 36.483     |  18.8 |  5.23
Comm    | 16.847     | 18.205     | 19.601     |  16.5 |  2.78
Output  | 6.1646e-05 | 6.6591e-05 | 0.00027527 |   0.0 |  0.00
Modify  | 1.8979     | 3.1072     | 5.1676     |  54.5 |  0.48
Other   |            | 1.431      |            |       |  0.22

Nlocal:        342.692 ave         366 max         325 min
Histogram: 7 5 6 9 6 5 2 5 4 3
Nghost:        4121.08 ave        4241 max        4033 min
Histogram: 4 6 13 9 4 4 0 1 5 6
Neighs:        68611.8 ave       73347 max       64240 min
Histogram: 2 4 4 13 11 1 6 4 4 3

Total # of neighbors = 3567813
Ave neighs/atom = 200.21397
Ave special neighs/atom = 0.0000000
Neighbor list builds = 16209
Dangerous builds = 0
unfix           nvt
reset_timestep  0

# the second run
fix             1 all nve

group           oxygen type 1
11880 atoms in group oxygen
fix             2 oxygen thermal/conductivity ${Nevery} y 20
fix             2 oxygen thermal/conductivity 50 y 20

compute         ke all ke/atom
variable        temp atom c_ke/1.5
compute         layers all chunk/atom bin/1d y lower 0.05 units reduced
fix             3      all ave/chunk  2000 50 100000 layers v_temp file profile_${T}K.mp
fix             3      all ave/chunk  2000 50 100000 layers v_temp file profile_600K.mp

variable        Tdiff    equal     f_3[11][3]-f_3[1][3]
variable        deltaT   equal     v_Tdiff*1.5/0.0001292

timestep        0.001
thermo_style    custom step f_2 temp v_Tdiff v_deltaT
thermo          100000

run             1000000
PPPM initialization ...
  using 12-bit tables for long-range coulomb (../kspace.cpp:328)
  G vector (1/distance) = 0.29883086
  grid = 40 240 40
  stencil order = 5
  estimated absolute RMS force accuracy = 0.00015686165
  estimated relative force accuracy = 1.0893439e-05
  using single precision MKL FFT
  3d grid and FFT values/proc = 15000 7600
Per MPI rank memory allocation (min/avg/max) = 8.409 | 8.431 | 8.444 Mbytes
Step f_2 Temp v_Tdiff v_deltaT 
       0            0    595.16963            0            0 
  100000      675.446    598.92041  0.019682487    228.51185 
  200000    1334.4428    600.54721  0.022928451    266.19718 
  300000    1994.6953    601.44561  0.021970497    255.07543 
  400000    2655.4748    601.42522  0.022254228    258.36952 
  500000    3311.6844    598.17676  0.021919078    254.47846 
  600000     3976.033    598.26101  0.021539809    250.07518 
  700000    4642.7059    600.76199  0.022352766    259.51354 
  800000    5299.5306    603.30107   0.02251264    261.36966 
  900000    5957.6197    596.95554  0.022458305    260.73884 
 1000000    6622.5731    599.71341  0.022160283    257.27883 
Loop time of 6517.68 on 52 procs for 1000000 steps with 17820 atoms

Performance: 13.256 ns/day, 1.810 hours/ns, 153.429 timesteps/s
99.8% CPU use with 52 MPI tasks x 1 OpenMP threads

MPI task timing breakdown:
Section |  min time  |  avg time  |  max time  |%varavg| %total
---------------------------------------------------------------
Pair    | 4370.1     | 4457       | 4567.3     |  77.9 | 68.38
Bond    | 0.06283    | 0.10111    | 0.15582    |   6.6 |  0.00
Kspace  | 1371       | 1487.6     | 1586.1     | 145.7 | 22.82
Neigh   | 332.83     | 351.78     | 376.35     |  52.8 |  5.40
Comm    | 169.9      | 185.74     | 202.23     |  58.5 |  2.85
Output  | 0.0011736  | 0.0012413  | 0.0024356  |   0.5 |  0.00
Modify  | 5.7036     | 6.237      | 7.0659     |  11.0 |  0.10
Other   |            | 29.18      |            |       |  0.45

Nlocal:        342.692 ave         363 max         329 min
Histogram: 3 9 10 6 7 6 5 3 0 3
Nghost:        4140.65 ave        4247 max        4032 min
Histogram: 7 1 2 7 6 6 8 12 2 1
Neighs:        68618.3 ave       72245 max       64340 min
Histogram: 1 1 7 8 5 10 7 5 4 4

Total # of neighbors = 3568152
Ave neighs/atom = 200.23300
Ave special neighs/atom = 0.0000000
Neighbor list builds = 166524
Dangerous builds = 0

Total wall time: 1:59:31
