ITEM: TIMESTEP
500000
ITEM: NUMBER OF ATOMS
18000
ITEM: BOX BOUNDS xy xz yz pp pp pp
-1.8515323375729792e-01 2.8079153233756216e+01 0.0000000000000000e+00
-2.1566721443059804e+00 3.3688467214432688e+02 0.0000000000000000e+00
-1.7008195640446316e-01 2.8064081956405573e+01 0.0000000000000000e+00
ITEM: ATOMS id type x y z
1 1 1.44295 -0.725808 1.07239
2 1 4.37616 -0.791158 1.2865
3 1 4.24329 -0.914268 3.94554
4 1 1.42294 -0.835121 3.84448
5 1 1.4331 1.98776 1.3125
6 1 4.36343 2.29908 1.21877
7 1 3.93509 1.87317 3.8949
8 1 1.03895 2.09191 6.80938
9 1 7.12525 1.98197 1.43745
10 1 9.77251 -0.950674 1.27799
11 1 7.08246 -0.906797 3.99162
12 1 7.01357 2.07507 4.22989
13 1 7.07869 4.86562 0.974133
14 1 10.1846 2.07485 1.344
15 1 9.95265 1.98927 4.11972
16 1 7.03522 4.81069 3.71877
17 1 12.6513 -0.807436 1.141
18 1 10.0106 2.22313 7.2096
19 1 12.8808 2.00497 1.3275
20 1 12.7286 1.90363 3.89934
21 1 1.35506 4.79832 1.12088
22 1 4.03313 5.02858 1.33205
23 1 4.39084 4.71088 4.05435
24 1 1.5616 4.81433 3.91125
25 1 1.55752 7.70792 1.43162
26 1 4.41869 7.58688 1.12079
27 1 4.09495 7.40803 4.09876
28 1 1.24921 7.51913 4.09899
29 1 7.08535 7.67871 1.21964
30 1 9.829 4.63349 1.15715
31 1 9.87058 4.62737 3.86575
32 1 6.94146 7.777 3.95496
33 1 7.28528 10.5245 1.36288
34 1 9.82434 7.42516 1.26506
35 1 9.86607 7.626 4.10654
36 1 6.80178 13.2217 6.69481
37 1 12.8568 4.62127 1.27551
38 1 12.935 4.74359 4.07036
39 1 12.5233 7.38821 1.39147
40 1 12.9332 7.5751 4.04352
41 1 1.4013 10.2853 1.12684
42 1 4.12876 10.3867 1.19041
43 1 6.93073 10.5265 4.05905
44 1 4.19366 10.4226 3.98795
45 1 1.29221 13.3128 1.30853
46 1 4.0871 13.2963 1.26748
47 1 4.2166 13.2545 4.11054
48 1 1.39881 13.4049 4.46662
49 1 6.99163 13.3415 1.07116
50 1 10.1429 10.4819 1.21053
51 1 9.67636 10.4734 4.12229
52 1 6.72163 13.4757 3.82602
53 1 6.82676 16.1843 1.08521
54 1 10.0374 13.2873 1.07812
12141 2 2.60275 14.6031 13.7676
56 1 6.60494 16.1409 4.03056
57 1 12.7498 10.5821 1.17266
58 1 12.547 10.0864 3.88127
59 1 12.6717 13.4411 1.02744
12091 2 -0.168137 20.2752 5.37637
61 1 1.22982 16.0503 1.24593
62 1 4.26971 16.1315 1.63618
63 1 3.84553 16.1958 4.2104
64 1 1.25883 16.0229 4.17785
65 1 1.18162 19.0768 1.43912
66 1 3.9878 18.9159 1.1579
67 1 4.24625 19.1105 4.08138
68 1 1.22986 18.9175 4.04739
69 1 9.53063 18.9545 3.93908
70 1 9.71397 16.0863 1.03305
71 1 9.74538 16.277 3.90094
72 1 6.9476 18.8725 3.96553
73 1 6.88726 18.9807 1.23163
74 1 9.6551 18.8308 1.2612
75 1 12.66 21.5315 3.98058
76 1 6.86313 21.8175 4.27891
77 1 12.4171 16.1789 1.25569
12021 2 -0.0774883 9.05374 -0.0950778
79 1 12.5364 18.8957 1.11397
131 1 1.42435 10.6087 4.12088
81 1 1.34595 21.824 1.41787
82 1 4.21627 21.9198 1.28124
83 1 1.23274 21.7438 4.09126
12084 2 -0.185344 17.3975 8.21211
85 1 7.03999 21.7871 1.16897
86 1 9.84322 21.8223 1.25601
87 1 9.69943 21.6779 4.13111
88 1 4.02651 21.6758 4.14842
89 1 12.6372 21.3898 0.893648
12148 2 8.50396 20.3214 13.9198
91 1 1.29847 -0.798758 6.71198
92 1 4.11224 -0.988326 6.69804
93 1 4.18908 -0.919779 9.54205
94 1 1.22973 1.88266 9.70682
95 1 1.45415 4.71235 6.86296
96 1 4.03206 1.91328 6.83953
97 1 3.90214 1.78528 9.64232
98 1 1.25304 4.75443 9.79824
99 1 7.12797 1.65638 6.82126
100 1 9.95518 -0.584352 6.52625
101 1 9.82679 -1.25936 9.37292
102 1 6.98769 1.70733 9.79967
103 1 10.0549 5.1843 6.66068
104 1 10.3355 6.87271 9.92358
105 1 9.88126 1.51386 10.2121
106 1 7.37549 4.6455 6.799
107 1 12.5964 -0.787143 6.78699
108 1 12.7261 -0.685153 9.72465
109 1 12.5695 2.06653 6.73814
110 1 12.6641 2.21313 9.39218
111 1 1.38924 7.87216 6.82342
112 1 4.07978 4.7092 6.75122
113 1 4.04099 4.91123 9.86851
114 1 1.12816 7.62783 9.67914
115 1 1.22963 10.5982 6.90264
116 1 4.16931 7.52124 6.8891
117 1 4.37556 7.71135 9.69579
118 1 1.54795 10.5257 9.78604
119 1 9.68704 7.72503 7.11242
120 1 7.08079 5.45055 9.77537
121 1 7.04352 7.36108 6.92012
122 1 9.68664 4.39235 9.315
123 1 6.81623 10.4814 6.82211
124 1 9.71715 10.5132 6.89246
125 1 7.77126 7.7382 9.62695
126 2 8.48749 6.068 8.17965
127 1 6.06153 3.60802 8.50923
128 1 12.9183 4.80505 9.62519
129 1 12.8226 7.38699 6.63363
130 1 13.0542 7.79203 9.724
12061 2 0.0756486 3.57026 5.46934
132 1 4.09083 10.4015 6.73909
133 1 4.37001 10.4483 9.51552
134 1 1.34314 13.3027 7.03379
12081 2 -0.0538376 14.5358 5.67552
136 1 4.03 13.3778 6.93299
137 1 4.24395 13.3292 9.734
138 1 1.29402 13.1729 9.69392
139 1 9.69649 13.3328 3.82995
15131 2 13.8297 3.41525 13.9194
141 1 9.50277 13.2837 6.84436
142 1 7.10939 10.7348 9.6391
143 1 6.96145 15.9974 6.74412
12071 2 -0.125033 9.17767 5.49816
145 1 9.87095 13.2141 9.55049
146 1 7.24724 13.3898 9.51871
147 1 12.6301 10.0052 6.62201
148 1 12.7912 10.5089 9.50718
12129 2 5.3587 0.505508 13.8443
150 1 12.5314 13.115 9.97366
151 1 1.24902 16.1738 6.97763
152 1 4.10806 16.3781 7.06148
153 1 4.32002 16.15 9.65686
154 1 1.53233 15.8871 9.83407
155 1 1.19961 19.0115 6.78158
156 1 4.04941 19.0244 6.97988
157 1 3.99734 18.9794 9.68333
158 1 1.42401 18.6218 9.46121
159 1 9.85108 16.257 6.97476
160 1 12.4816 18.947 6.95724
161 1 10.0267 16.1308 9.7679
162 1 6.91793 16.0348 9.55222
163 1 6.90209 18.9994 6.9871
164 1 9.72856 18.8404 6.7495
165 1 9.89986 18.8369 9.73663
166 1 7.00922 18.6003 9.64932
12054 2 -0.0676212 0.718269 8.11359
168 1 12.6627 16.0954 9.86505
169 1 12.6391 21.6806 6.9317
170 1 12.5469 18.9953 9.80982
171 1 1.30025 21.7858 6.83804
172 1 4.2957 21.6022 7.05648
173 1 3.93592 21.8074 9.56803
174 1 1.10845 21.5605 9.93746
175 1 7.25132 21.6183 6.86543
176 1 9.91089 21.6999 6.8479
177 1 9.6964 21.8625 9.69063
178 1 6.78113 21.4534 9.46077
5639 1 9.96673 -0.922097 3.88046
180 1 12.5997 22.0071 9.51338
181 1 1.22384 -0.920895 12.5095
182 1 4.00351 -1.0526 12.4141
183 1 1.35862 1.93856 12.3813
184 1 4.26602 1.99251 12.6378
185 1 6.8556 -1.05943 12.4911
186 1 9.81253 -0.764129 12.4869
187 1 7.17218 1.65484 12.6217
188 1 10.0536 2.17472 12.9473
189 1 12.7433 -0.83463 12.3764
190 1 12.6691 1.88317 12.2228
191 1 1.16641 4.95561 12.844
192 1 3.96758 4.51392 12.5237
193 1 1.34425 7.72597 12.6563
194 1 4.27814 7.79032 12.4653
195 1 7.09675 7.67695 12.2648
196 1 9.82749 4.74669 12.2928
197 1 10.0015 10.195 9.53901
198 1 10.0749 7.73443 12.7944
199 1 12.6068 4.78511 12.3372
200 1 12.7722 7.59534 12.3737
201 1 1.33939 10.2805 12.5736
202 1 4.29302 10.6006 12.4184
203 1 1.32202 13.2226 12.5266
204 1 4.06863 13.2755 12.5198
205 1 7.05575 10.1475 12.4377
206 1 9.83265 10.6423 12.4301
207 1 7.16329 13.3125 12.5044
208 1 9.88341 13.3115 12.6269
209 1 12.7125 10.48 12.5811
210 1 12.5559 13.4293 12.5925
211 1 1.26872 16.1437 12.6373
212 1 4.31165 16.0887 12.5203
213 1 1.38843 19.0674 12.3246
214 1 4.3378 18.7532 12.518
215 1 7.18649 15.9661 12.5441
216 1 10.0662 15.9243 12.5569
217 1 7.01712 18.7312 12.3645
218 1 9.73948 18.8949 12.4139
219 1 12.7708 16.2369 12.6547
220 1 12.7566 19.1448 12.4592
221 1 1.21999 21.6175 12.756
222 1 3.91667 21.5236 12.2785
223 1 6.93147 21.5477 12.6778
224 1 9.76278 21.78 12.4323
225 1 12.6655 21.7409 12.4489
12125 2 11.0363 20.4936 11.04
12110 2 11.221 3.17568 10.877
12014 2 -0.113406 6.12029 2.59112
12124 2 8.33085 23.2219 11.0257
15082 2 13.92 14.581 8.87256
12109 2 8.61787 6.36679 11.2397
5718 1 1.19403 -0.810608 9.45996
12008 2 5.68812 0.474546 2.64607
12004 2 0.075761 0.349776 2.56166
12010 2 11.3676 0.539443 2.737
12123 2 5.55621 20.1503 11.0614
12108 2 5.42873 3.24648 11.0837
12013 2 2.7489 3.4862 2.61001
12122 2 2.67002 23.0862 11.1691
12107 2 2.68495 6.2809 11.2321
12112 2 2.64871 11.9172 11.0607
12017 2 8.5147 3.36825 2.3933
12018 2 5.45997 6.12585 2.55886
12104 2 8.19952 0.308814 11.2598
12020 2 11.1923 5.94462 2.56912
6093 1 12.799 4.72987 6.70323
12094 2 -0.0838602 23.1495 8.11455
12023 2 2.832 8.96969 3.04909
12120 2 11.427 14.6743 11.2334
12102 2 2.63439 0.574768 11.0032
12113 2 5.58576 9.27167 11.0626
12027 2 8.59029 9.13863 2.49397
12028 2 5.36789 11.8959 2.69837
12100 2 11.1415 23.1569 8.20178
12030 2 11.4182 11.8638 2.75492
12099 2 11.1907 20.2112 5.57562
12098 2 5.45689 23.1462 8.35613
12033 2 2.53082 14.6527 2.75815
12036 2 8.25197 17.5915 -0.123347
12097 2 8.40152 20.1599 8.44378
12096 2 8.46694 23.2718 5.61804
12037 2 8.31678 14.6676 2.38842
12038 2 5.34478 17.7205 2.85323
12095 2 5.63478 20.3861 5.47563
12040 2 10.8992 17.5875 2.46925
5633 1 7.08069 -0.837606 1.22255
12093 2 2.61342 20.3015 8.2722
12043 2 2.59134 20.469 2.64546
12134 2 5.74702 6.41142 13.7164
12092 2 2.71767 23.1028 5.61708
12044 2 -0.0370823 23.4084 2.68598
12047 2 8.24796 20.3867 2.68797
12048 2 5.51828 23.1797 2.77636
12090 2 11.2466 17.4136 8.35216
12050 2 11.1767 23.0505 2.83429
12119 2 8.54933 17.3963 11.0973
12052 2 2.84129 0.460761 5.35623
6019 1 1.19965 2.08065 4.12964
12118 2 5.61905 14.7424 11.1749
5726 1 6.91415 -1.03216 9.6414
12056 2 8.53638 0.468457 5.2603
12006 2 8.38371 0.517973 -0.120515
12058 2 5.56772 0.495289 8.18303
15116 2 13.932 17.6704 11.2495
12060 2 11.2885 0.54006 8.26461
12117 2 2.85103 17.4034 10.9864
12062 2 2.74213 6.20152 5.49047
12063 2 2.67345 3.28805 8.23613
12089 2 10.6312 14.7101 5.53894
12065 2 5.61068 3.45631 5.3548
12066 2 8.40874 6.02732 4.95708
12067 2 8.17281 2.77595 8.33935
12068 2 5.30024 5.9629 8.32902
12069 2 11.4315 3.43715 5.37219
12070 2 11.6318 6.09992 8.1145
12115 2 11.3863 8.82324 11.005
12072 2 2.76499 11.8836 5.47988
12073 2 2.85063 9.08654 8.25997
12114 2 8.62647 11.9042 11.0352
12075 2 5.47102 8.8682 5.44926
12076 2 8.29016 11.9031 5.30204
12077 2 8.31699 9.40733 8.30297
12078 2 5.72589 12.1662 8.26065
12079 2 11.0771 8.74114 5.5349
12080 2 11.4783 11.9582 7.96527
6133 1 12.5051 18.5846 3.9527
12082 2 2.5271 17.5827 5.55781
12083 2 2.7926 14.856 8.2017
6062 1 13.5837 16.2369 7.08858
12085 2 5.44338 14.7253 5.41454
12086 2 8.34964 17.4746 5.44899
12087 2 8.63964 14.739 8.41123
12088 2 5.69832 17.3804 8.15739
12146 2 2.70611 20.1312 13.8975
241 1 6.94068 4.40819 12.3571
5723 1 7.19521 -0.998652 6.88985
5640 1 12.9238 -0.900303 4.01573
12002 2 2.9512 0.625224 -0.0954654
55 1 11.855 14.3057 7.54176
12116 2 -0.0705645 14.7038 11.0824
149 1 11.9655 12.6736 5.67491
78 1 12.3699 15.4891 4.49829
12041 2 0.0644523 20.4483 0.0553322
15041 2 13.866 23.0744 -0.128467
12064 2 0.00435609 6.18226 8.3569
6139 1 13.4377 13.1147 3.83127
12024 2 -0.0223078 11.7122 2.65115
12042 2 2.83486 23.321 0.0332139
12139 2 5.66148 11.804 13.8735
15032 2 13.8718 14.9475 2.32686
12121 2 -0.00338549 20.1102 11.1258
12022 2 2.78172 11.8547 -0.141025
12149 2 5.62274 23.0878 13.7762
12012 2 2.76605 6.3862 -0.158179
12137 2 -0.0732406 11.8311 13.8196
15083 2 13.8875 14.2613 5.80684
12130 2 11.2729 0.577638 13.8761
12144 2 5.57608 17.4981 13.8614
12135 2 11.2289 6.11699 13.8503
12016 2 8.54235 6.3501 -0.121929
12032 2 2.84664 17.3804 -0.112404
12011 2 -0.187782 3.48319 -0.10263
12046 2 8.49615 23.2891 -0.139748
226 1 4.00662 -0.936844 15.2173
227 1 1.2249 -1.08492 15.3276
228 1 3.95314 1.92413 15.24
229 1 1.12129 1.88658 15.4018
230 1 9.86508 -0.798802 15.2203
231 1 6.69472 1.69834 15.4043
232 1 9.66582 2.02473 15.5255
233 1 6.8863 4.81139 15.0998
15162 2 13.9369 3.5229 19.7171
235 1 12.4531 2.08406 15.3093
236 1 4.14483 4.6288 15.3801
237 1 1.26436 4.59131 15.4859
238 1 4.0443 7.64894 15.1594
239 1 1.4556 7.56263 15.3569
240 1 9.51189 5.03911 15.2838
12211 2 -0.0839861 3.26696 22.2858
242 1 9.71642 7.83331 15.555
12231 2 0.0466287 14.6313 22.3567
244 1 12.298 4.78504 15.4502
245 1 12.5325 7.51266 15.4679
246 1 4.11103 10.517 15.3399
247 1 1.20959 10.3549 15.4353
248 1 4.17566 13.2537 15.3337
249 1 1.40059 13.2338 15.3563
250 1 9.70346 10.3881 15.276
251 1 6.90355 10.2381 15.3839
252 1 9.62977 13.3831 15.4698
253 1 6.85934 13.0736 15.3605
254 1 12.5806 10.193 15.3813
255 1 12.6603 13.2039 15.3646
256 1 4.2503 15.9617 15.3499
257 1 1.17887 15.871 15.3671
258 1 4.06089 18.6709 15.2643
259 1 1.44066 18.7577 15.3134
260 1 9.94235 16.1243 15.2868
261 1 6.92399 15.8462 15.2458
262 1 9.70644 19.0632 15.4365
263 1 6.86687 18.9989 15.0489
264 1 12.6366 16.0828 15.3626
265 1 12.5992 18.7755 15.3581
266 1 4.18852 21.5651 15.0803
267 1 1.358 21.6337 15.4046
268 1 9.94202 21.6187 15.2902
269 1 7.04391 21.683 15.1312
270 1 12.5438 21.7526 15.3733
271 1 1.02751 -0.884756 18.3229
272 1 4.23471 -0.912066 17.9509
273 1 3.95659 -0.941555 20.6975
274 1 1.17672 -0.879628 21.0596
275 1 1.40892 1.98527 18.0267
276 1 4.14633 1.90018 18.2172
277 1 3.85809 1.88683 21.1172
278 1 1.01627 1.85496 20.867
279 1 7.01796 -1.03901 18.2477
280 1 9.81821 -1.05786 18.082
281 1 9.89771 -0.713654 20.7762
282 1 6.85629 -0.922528 21.1883
283 1 6.92897 1.75702 18.2294
284 1 10.0561 1.90382 18.1881
285 1 9.51752 2.14751 21.0862
286 1 6.81871 1.88993 21.0923
287 1 12.7326 -0.659245 18.0528
288 1 12.7543 -0.644749 20.8623
289 1 12.8814 2.17931 18.0003
290 1 12.5972 2.03184 20.8709
291 1 1.14333 4.69339 18.4276
292 1 3.97684 4.90939 18.0748
293 1 4.14729 4.68281 20.9074
294 1 1.41901 4.81655 21.1768
295 1 1.00629 7.62274 18.0078
296 1 4.06802 7.61291 18.0703
297 1 4.07237 7.52734 21.0128
298 1 1.4051 7.66922 20.8476
299 1 6.9258 4.75007 17.9804
300 1 9.84256 4.82196 18.3224
301 1 9.96258 4.83744 21.024
302 1 7.07853 4.63519 21.0052
303 1 6.92748 7.66647 18.1169
304 1 9.61624 7.77224 18.2182
305 1 9.62804 7.85007 21.0902
306 1 6.79168 7.66081 20.8556
307 1 12.3641 4.72084 18.5757
308 1 12.8247 4.90724 21.1724
309 1 12.6167 7.63764 18.2739
310 1 12.5923 7.7313 21.0517
311 1 1.14966 10.3851 18.3254
312 1 3.95346 10.3601 17.8436
313 1 4.26194 10.2482 20.7259
314 1 1.33064 10.3641 20.9603
315 1 1.16821 13.0456 18.1474
316 1 3.98483 13.134 18.024
317 1 3.75128 13.0747 20.9662
318 1 0.961249 13.1989 20.9698
319 1 6.94747 10.7251 18.0423
320 1 9.74272 10.5314 18.099
321 1 9.74739 10.4554 21.1116
322 1 6.8741 10.4132 20.9472
323 1 6.84361 13.4841 18.1484
324 1 9.85197 13.2595 18.2445
325 1 9.80469 13.4253 20.8843
326 1 6.74681 13.1477 20.9634
327 1 12.6784 10.3262 18.0469
328 1 12.71 10.6102 20.9578
329 1 12.5739 13.1459 17.9802
330 1 12.5055 13.3751 20.7752
331 1 1.16414 16.03 18.4244
332 1 4.06988 16.065 18.4157
333 1 4.07478 16.0074 21.2213
334 1 1.28093 16.0271 20.9791
335 1 1.2623 18.7751 18.3639
336 1 4.13176 18.7715 17.9047
337 1 4.14087 18.7842 20.865
338 1 1.35535 19.044 20.9438
339 1 6.86885 16.0223 18.1517
340 1 9.70741 15.9787 18.2164
341 1 9.91773 16.038 20.6766
342 1 7.08995 16.1172 20.8014
343 1 6.9841 18.7267 18.0011
344 1 9.81266 18.9294 18.2615
345 1 10.0485 18.9084 20.7645
346 1 7.1154 19.1988 20.875
347 1 12.742 16.1106 18.3321
348 1 12.6045 16.2044 21.1938
349 1 12.7965 18.9893 18.082
350 1 12.985 19.1998 21.0056
351 1 1.51878 21.4537 18.0913
352 1 4.21237 21.7399 17.8257
353 1 4.24948 21.5822 20.8147
354 1 1.35236 21.9425 21.1608
355 1 6.96957 21.5973 18.0154
356 1 9.70748 21.7378 18.0583
357 1 9.69837 21.527 20.9889
358 1 6.95629 21.7992 20.7801
359 1 12.6242 21.8345 18.1673
360 1 12.6133 21.8483 21.0521
361 1 1.44804 -0.979521 23.8061
362 1 4.0856 -0.850502 23.7209
363 1 4.31694 -0.777328 26.9167
364 1 1.4021 -0.935049 26.3634
365 1 1.0421 2.1509 23.9732
366 1 3.84159 1.75578 23.756
367 1 4.26397 1.91724 26.4929
368 1 1.22938 1.92799 26.6732
369 1 6.63752 1.8422 23.7091
370 1 9.78433 -0.884651 23.734
371 1 9.81847 -0.709965 26.7397
372 1 6.98151 -0.865925 26.5664
373 1 7.07561 2.00065 26.796
374 1 9.36645 1.92445 24.0871
375 1 9.79931 2.0522 26.7977
376 1 7.11802 4.93472 26.5868
377 1 12.592 -0.73623 23.9878
378 1 12.8064 -0.585868 26.5554
379 1 12.4568 2.07859 23.8462
380 1 12.6663 2.32167 26.5153
381 1 1.41667 4.84873 23.7617
382 1 4.0645 4.63969 23.8238
383 1 4.32682 4.989 26.7429
384 1 1.43097 4.75473 26.7003
385 1 1.38238 7.66939 23.8294
386 1 4.15011 7.49517 23.8564
387 1 4.03669 7.76199 26.3751
388 1 1.07303 7.54939 26.9095
389 1 7.05824 4.8621 23.8392
390 1 9.89259 4.69157 23.754
391 1 9.78413 4.79699 26.4798
392 1 7.17318 7.6762 26.7047
393 1 6.96432 7.63872 23.8922
394 1 9.81432 7.58736 23.527
395 1 10.1122 7.70028 26.4487
396 1 7.03941 10.472 26.3605
397 1 12.8356 4.81128 23.8911
398 1 12.7466 5.22853 26.6642
399 1 13.0003 7.79808 23.884
400 1 12.7813 7.92797 26.7611
401 1 1.13124 10.4517 23.626
402 1 4.15918 10.3822 23.6437
403 1 4.18928 10.4876 26.427
404 1 1.41217 10.4025 26.6015
405 1 1.17841 13.3162 23.8639
406 1 3.87565 13.0283 23.6253
407 1 4.02145 13.1721 26.8148
408 1 1.24486 13.2978 26.5702
409 1 7.26458 10.3051 23.6916
410 1 10.0899 10.3312 23.8641
411 1 9.99978 10.5873 26.6708
412 1 7.27413 13.1123 26.6712
413 1 7.10078 13.2409 23.7926
414 1 9.88415 13.1642 23.805
415 1 9.85454 13.3653 26.7254
416 1 5.49216 14.6164 25.194
417 1 13.0247 10.4182 23.8524
418 1 12.6371 10.7927 26.6728
419 1 12.7321 13.4218 23.463
420 1 12.6995 13.5593 26.5177
421 1 1.09144 16.0034 24.0402
422 1 3.82388 16.1119 23.7057
423 1 4.41119 16.2358 26.8639
424 1 1.41432 15.96 26.8568
425 1 1.38952 18.9386 24.0413
426 1 4.32482 18.7869 23.6343
427 1 4.29587 19.1536 26.5208
428 1 1.51313 18.9581 26.7846
429 1 6.9714 16.0815 23.4824
430 1 9.85013 16.0194 23.5837
431 1 9.63167 16.0782 26.4834
432 1 7.13366 16.2361 26.5207
433 1 7.06242 18.8003 23.5388
434 1 9.93807 18.6945 23.6766
435 1 9.74161 18.9681 26.6144
436 1 6.97907 18.9904 26.6002
437 1 12.6785 16.321 24.0106
438 1 12.4461 16.2127 26.6019
439 1 12.6687 18.9435 23.8517
440 1 12.4821 19.0801 26.6594
441 1 1.16765 21.9185 23.9114
442 1 3.91345 21.7103 23.7603
443 1 4.13608 21.9695 26.4488
444 1 1.30544 21.8631 26.8463
445 1 7.20049 21.8722 23.6781
446 1 9.90195 21.5628 23.6353
447 1 9.71935 21.808 26.7399
448 1 6.99736 21.8814 26.7015
449 1 12.8501 21.7342 23.9188
450 1 12.6244 21.9777 26.4145
12005 2 5.65906 -2.1329 28.0555
12250 2 11.1243 23.0486 25.2441
12235 2 5.33177 14.6949 22.6318
15202 2 13.9092 -2.09461 25.2691
5818 1 7.01322 -0.839432 15.4041
5993 1 6.90993 -0.880365 23.777
12249 2 11.3812 20.1891 22.4633
12147 2 -0.0117427 23.0701 13.9336
12209 2 11.1855 -2.08555 22.14
12204 2 -0.0387889 0.631438 25.2141
15141 2 13.9337 14.7026 14.0699
12248 2 5.55124 23.2142 25.0225
12145 2 11.2911 17.4887 14.1256
12164 2 -0.138068 6.22674 19.5778
15031 2 13.9132 17.5046 27.9529
15182 2 13.8387 14.5848 19.4869
12241 2 0.0156434 20.3195 22.4767
12136 2 2.66521 9.02725 14.0133
12171 2 -0.100758 9.07136 16.9709
12184 2 -0.154701 17.5634 19.7466
12138 2 8.41186 8.94953 13.956
12019 2 11.3855 3.38088 27.9187
12234 2 -0.116053 17.4148 25.3312
12233 2 2.80486 14.6447 25.4808
12161 2 -0.0572016 3.30611 16.7354
12247 2 8.34854 20.4365 25.2488
12152 2 2.58295 0.400232 16.7838
12227 2 8.54327 9.19792 25.1906
12246 2 8.41983 23.1425 22.3055
12232 2 2.47581 17.3697 22.4699
12156 2 8.45196 0.297841 16.8819
12229 2 11.2539 9.05404 22.4123
12158 2 5.42877 0.613155 19.6503
12191 2 -0.0421319 20.104 16.7714
12160 2 11.3613 0.533967 19.4857
12245 2 5.52975 20.0958 22.2819
12162 2 2.84236 6.08996 16.6077
12163 2 2.53784 3.42286 19.5736
12228 2 5.51498 12.0833 25.1787
12165 2 5.47411 3.14805 16.6092
12166 2 8.39271 6.41249 16.8371
12167 2 8.28351 3.51679 19.5024
12168 2 5.49244 6.28863 19.6568
12169 2 11.2424 3.53575 16.9842
12170 2 10.9526 6.39453 19.726
12243 2 2.66045 20.5012 25.3249
12172 2 2.67027 11.9049 16.6739
12173 2 2.83272 9.06212 19.3835
12242 2 2.81321 23.4132 22.4659
12175 2 5.41211 9.03792 16.7783
12176 2 8.36609 11.9023 16.7763
12177 2 8.18099 9.16059 19.6166
12178 2 5.39206 11.9496 19.4907
12179 2 11.1799 9.12116 16.8292
12180 2 11.1871 11.7209 19.5689
12214 2 -0.0225827 6.38188 25.2572
12182 2 2.78471 17.2066 16.738
12183 2 2.72754 14.5654 19.6503
12035 2 5.84868 14.7734 27.9867
12185 2 5.57204 14.8289 16.8291
12186 2 8.49432 17.1865 16.7854
12187 2 8.24166 14.576 19.6514
12188 2 5.572 17.3375 19.7069
12189 2 10.9614 14.6882 16.7825
12190 2 11.3939 17.6003 19.5136
243 1 7.09276 7.50868 15.2922
12192 2 2.67509 22.7683 16.5812
12193 2 2.88036 20.0931 19.4474
12226 2 8.34656 11.8099 22.3823
12195 2 5.63995 20.2393 16.6105
12196 2 8.235 23.0471 16.7965
12197 2 8.43967 20.4406 19.4727
12198 2 5.49656 23.0865 19.4674
12199 2 11.1789 20.3477 16.7996
12200 2 11.2539 23.0014 19.6241
12240 2 11.123 17.4009 25.1245
12202 2 2.55805 0.453078 22.4902
12225 2 5.47234 8.93506 22.4747
12239 2 11.2687 14.7144 22.3027
5820 1 12.8534 -0.95865 15.0417
12206 2 8.29408 0.425473 22.2387
12230 2 11.2244 12.0186 25.4322
12208 2 5.56783 0.401561 25.0221
12244 2 -0.0234426 23.3241 25.291
12210 2 11.1072 0.645093 25.3153
12238 2 5.60451 17.454 25.1708
12212 2 2.74927 6.09146 22.4432
12213 2 2.68741 3.37862 25.267
12237 2 8.36118 14.6878 25.0103
12215 2 5.32775 3.31774 22.4642
12216 2 8.3862 5.86371 22.4588
12217 2 8.21177 3.41741 25.2341
12218 2 5.62594 6.20488 25.317
12219 2 11.3468 3.3292 22.4022
12220 2 11.4109 6.38382 25.2075
12236 2 8.52476 17.4732 22.2331
12222 2 2.57942 11.8221 22.2547
12223 2 2.7673 9.20769 25.0432
12025 2 5.51033 9.01964 27.9239
12194 2 0.0568846 22.9898 19.5895
12221 2 -0.114985 9.08187 22.3196
12224 2 -0.0418786 11.8901 25.1517
15161 2 13.8193 6.07345 16.8061
12039 2 11.217 14.7837 27.8816
12049 2 11.1697 20.2531 28.0171
12133 2 8.23486 3.23574 13.9693
12143 2 8.42389 14.4937 14.0651
12015 2 5.65909 3.55558 27.8681
12140 2 11.3061 11.7715 14.0081
12031 2 -0.163097 14.4883 28.0215
12026 2 8.50757 11.8155 28.0068
12029 2 11.3651 9.04764 27.9993
12150 2 11.1494 23.1635 13.9799
12131 2 2.67498 3.46283 13.9772
12045 2 5.57335 20.5201 28.0565
451 1 1.52434 24.7269 1.20663
452 1 4.32493 24.6833 1.51346
453 1 4.03533 24.6079 4.23669
454 1 1.19256 27.4284 4.07691
455 1 6.99565 24.7148 1.50541
456 1 9.8534 24.5482 1.43263
457 1 9.63169 24.5396 4.09391
458 1 6.90803 24.5673 4.33977
15307 2 13.7271 31.7894 8.462
12266 2 8.28135 34.6357 -0.0642851
461 1 1.31131 30.3666 1.04187
462 1 3.92888 27.5561 1.41899
463 1 4.0295 27.4601 4.25815
464 1 1.32009 27.4745 1.29845
465 1 1.1238 33.2415 1.38098
466 1 3.99857 30.303 1.52731
467 1 3.96627 30.2313 4.17831
468 1 1.31153 30.1564 4.09127
469 1 6.70999 27.4068 1.33639
470 1 9.32989 27.418 1.31977
471 1 9.60446 27.2445 4.41191
472 1 6.8125 27.4843 4.35588
473 1 6.81867 30.2765 1.51275
474 1 9.48336 30.6124 1.08058
475 1 9.15841 30.1192 3.83543
476 1 6.72715 30.306 4.24778
6461 1 11.985 28.501 0.87975
80 1 12.6909 24.5256 4.38335
90 1 11.9724 26.9819 2.818
6456 1 11.9616 29.121 4.47555
481 1 1.31238 36.2662 1.32479
482 1 4.07755 33.0178 1.17237
483 1 3.77872 32.9415 4.25747
484 1 1.01846 32.9687 4.09554
12255 2 5.53396 26.0553 -0.0447722
486 1 3.97977 35.9603 1.2519
487 1 4.14059 35.7925 4.02595
488 1 1.29511 35.6968 3.92212
489 1 6.68404 33.2325 1.06883
490 1 9.4313 33.3194 1.46366
491 1 9.74317 33.056 4.27639
492 1 6.60106 33.1209 4.11706
493 1 7.04615 36.1454 1.47996
494 1 9.6911 36.1452 1.1052
495 1 9.72766 36.074 4.06485
496 1 6.92835 35.7674 4.13828
497 1 12.4755 33.2584 1.20947
498 1 12.4512 33.1689 4.13268
499 1 12.5978 35.9443 1.38206
500 1 12.5712 35.9589 4.1693
501 1 1.46753 38.8368 1.20709
502 1 4.36155 38.5365 1.26919
503 1 4.16375 38.6376 4.05821
504 1 1.13588 38.4984 4.29835
505 1 1.19798 41.8967 1.35075
506 1 3.95151 41.628 1.19938
507 1 4.22608 41.4302 4.04826
508 1 1.40352 41.5822 4.09953
509 1 7.16123 38.7807 1.10341
510 1 10.0531 39.0267 1.42866
511 1 9.88156 38.989 4.26626
512 1 6.92817 38.7826 3.8437
513 1 7.00237 41.5964 1.3452
514 1 9.50841 42.004 1.52077
515 1 9.57531 41.8355 4.49175
516 1 7.00407 41.6777 4.08123
517 1 12.7955 38.8622 0.952695
518 1 12.7571 38.796 4.08583
519 1 12.6427 41.8544 1.19981
520 1 12.5962 41.7916 4.11366
521 1 1.41717 44.4689 1.50495
522 1 4.09221 44.3042 1.10784
523 1 4.24789 44.3218 4.23575
524 1 1.42268 44.5278 4.11964
525 1 1.26604 47.304 1.2652
526 1 3.9325 47.1894 1.42365
527 1 4.24102 47.049 4.22182
528 1 1.30183 47.1957 3.95672
529 1 6.75644 44.2607 1.20867
530 1 9.71096 44.7233 1.40047
531 1 9.93861 44.5095 4.30823
532 1 6.8254 44.4458 4.14421
533 1 6.7126 47.1697 1.22716
534 1 9.58161 47.306 1.34622
535 1 9.78768 47.2813 4.15197
536 1 7.00278 47.2653 4.14579
537 1 12.5775 44.5249 1.40521
538 1 12.8703 44.4469 4.21208
539 1 12.4596 47.5113 1.31838
540 1 12.5563 47.2673 3.99084
541 1 1.34399 24.6268 7.06687
542 1 4.17745 24.4743 7.02737
543 1 4.00252 24.7394 9.93967
544 1 1.14791 24.4026 9.8121
545 1 7.08154 24.4775 7.14619
546 1 9.73769 24.7529 6.93484
547 1 9.7653 24.4106 9.69873
548 1 6.91659 24.5436 9.68407
549 1 12.4967 24.4219 6.94626
550 1 12.6361 24.7162 9.74009
551 1 1.3677 27.4092 6.97087
552 1 4.20978 27.3936 7.02043
553 1 4.33819 27.4084 9.78374
554 1 1.25674 27.101 9.87651
555 1 0.914082 29.9998 6.99946
556 1 4.07186 30.2092 7.10194
557 1 4.28811 30.1494 9.94358
558 1 1.24249 29.9501 9.98998
559 1 6.99603 27.433 7.08922
560 1 9.63158 27.5922 6.95537
561 1 9.72935 27.3831 9.94707
562 1 6.93099 27.4586 9.84109
563 1 6.72832 30.3593 7.06256
564 1 9.64041 30.2328 6.75337
565 1 10.0215 30.1944 10.045
566 1 7.07504 30.4006 9.73023
567 1 12.4518 27.3763 7.07166
568 1 12.5433 27.3225 9.77394
569 1 12.4118 30.0799 7.26165
570 1 12.6436 30.3333 10.056
571 1 0.983075 32.8297 6.87823
572 1 4.06101 32.9514 6.88492
573 1 3.86566 33.0354 9.91965
574 1 1.19538 32.8025 9.49974
575 1 1.05949 35.8233 6.93559
576 1 3.7975 35.8734 7.03206
577 1 4.00254 35.8618 10.0383
578 1 1.10965 35.7965 9.86043
579 1 6.99367 33.1809 6.88441
580 1 9.61883 33.0324 7.05394
581 1 9.58196 33.1157 9.91528
582 1 6.60988 33.3296 9.82044
583 1 6.57347 35.8734 7.07105
584 1 9.56847 35.8889 6.82478
585 1 9.73554 35.7722 9.83693
586 1 6.90515 36.0236 9.94504
587 1 12.3865 32.9102 7.08356
588 1 12.3816 33.0223 9.96039
589 1 12.5173 35.8064 6.95394
590 1 12.4139 35.9704 9.86291
591 1 1.47945 38.7544 7.40066
592 1 4.10084 38.751 6.71345
593 1 3.877 38.6197 9.70406
594 1 1.08089 38.7246 10.1158
595 1 1.07169 41.4748 6.71053
596 1 4.07264 41.4924 6.98396
597 1 3.94154 41.5417 9.77735
598 1 1.20768 41.3868 9.65385
599 1 6.84548 38.5711 6.72392
600 1 9.54342 38.5179 6.96321
601 1 9.489 38.6481 9.97227
602 1 6.68108 38.7751 9.7421
603 1 6.79036 41.5339 6.95725
604 1 9.61173 41.4119 7.03674
605 1 9.55067 41.4644 9.93991
606 1 6.79171 41.5777 9.83133
607 1 12.4018 38.9828 6.86435
608 1 12.584 38.5713 9.76527
609 1 12.4654 41.5715 7.06531
610 1 12.4678 41.305 9.67496
611 1 1.14135 44.245 7.24808
612 1 3.84408 44.1279 6.8344
613 1 3.91025 44.4072 9.70346
614 1 1.08349 44.0733 9.97819
615 1 1.27389 46.9082 6.82974
616 1 4.03418 47.0873 6.9251
617 1 4.06788 47.146 9.87512
618 1 1.1042 47.0545 9.74498
619 1 6.80446 44.5138 6.92943
620 1 9.72444 44.3371 7.05156
621 1 9.31478 44.2808 9.72157
622 1 6.47317 44.2741 9.66464
623 1 6.897 47.4507 6.88856
624 1 9.58526 47.3131 7.07029
625 1 9.62738 47.0492 9.87084
626 1 6.75432 47.2954 9.91267
627 1 12.5642 44.6282 7.18067
628 1 12.437 44.2775 9.77121
629 1 12.342 47.0928 6.97373
630 1 12.4185 47.2984 9.95901
631 1 1.34085 24.398 12.5543
632 1 4.31047 24.6736 12.7361
12382 2 5.52586 45.8255 13.8779
634 1 9.73502 24.6788 12.7865
635 1 12.6972 24.3673 12.4603
636 1 1.43638 27.4182 12.5396
637 1 4.06241 27.5056 12.5004
638 1 1.32053 30.1278 12.6238
639 1 4.27091 30.2973 12.7148
640 1 6.86989 27.2361 12.7039
641 1 9.59821 27.4818 12.6043
642 1 6.88188 30.2282 12.7597
643 1 9.77893 30.0735 12.9403
644 1 12.6209 27.3976 12.7849
645 1 12.7612 30.2289 12.7223
646 1 0.979128 33.1368 12.3531
647 1 3.97377 33.0944 12.7409
648 1 1.3025 35.9067 12.7638
649 1 4.04807 35.9873 12.7023
650 1 6.83956 33.0216 12.5792
651 1 9.58028 32.7532 12.6779
652 1 6.73181 35.8937 12.8029
653 1 9.62049 35.8016 12.5587
654 1 12.3831 32.9725 12.7439
655 1 12.1648 35.6995 12.5065
656 1 1.12559 38.8268 12.8182
657 1 3.96877 38.9389 12.4044
658 1 1.25607 41.5803 12.5601
659 1 3.92854 41.6641 12.3175
660 1 6.86582 38.9024 12.7349
661 1 9.71964 38.6687 12.5978
662 1 6.87276 41.6936 12.5754
663 1 9.84456 41.6847 12.7338
664 1 12.5211 38.8079 12.4666
665 1 12.5424 41.6816 12.4954
666 1 1.35303 44.3188 12.6082
667 1 3.99997 44.53 12.5818
668 1 1.0763 47.2385 12.6444
669 1 3.91064 47.1976 12.5526
670 1 6.97152 44.6547 12.7428
671 1 9.67302 44.2989 12.4842
672 1 6.70317 47.2785 12.6282
673 1 9.61469 47.043 12.6547
674 1 12.6215 44.3409 12.3891
675 1 12.505 47.2766 12.781
12363 2 11.0247 48.8001 11.2711
12282 2 2.6609 45.8199 -0.0640466
12253 2 2.75794 26.1279 2.86062
12362 2 5.28054 48.5733 11.0793
12269 2 11.4056 31.648 -0.0641314
633 1 7.08102 24.572 12.3061
12257 2 8.26657 25.9795 2.89116
12258 2 5.40485 28.8237 2.88152
909 1 6.78229 50.0057 1.43447
12260 2 10.6194 28.8993 2.66028
12360 2 11.1555 42.9556 11.288
15316 2 13.7876 40.2349 5.60395
12263 2 2.56948 31.5368 2.83983
12359 2 8.22566 45.7459 11.2226
1102 1 3.88307 50.0293 12.4457
459 1 12.5014 24.3544 1.65797
12267 2 8.19234 31.7054 2.77281
12268 2 5.4664 34.5884 2.69459
12345 2 11.0708 25.9366 11.1169
12270 2 11.1137 34.5689 2.74204
12358 2 5.36626 43.1345 11.3873
12344 2 8.32225 28.7395 11.1392
12273 2 2.74001 37.2953 3.12109
12357 2 2.54717 45.7702 11.2231
12343 2 5.53345 26.048 11.2815
1105 1 6.82491 49.7998 12.4752
12277 2 8.48959 37.4479 2.72177
12278 2 5.77134 40.3087 2.64302
15262 2 13.895 32.0682 2.67229
12280 2 11.079 40.4418 2.8363
12355 2 10.9365 37.1477 11.1316
12254 2 -0.146924 28.829 2.63387
12283 2 2.69991 43.0379 2.7114
12354 2 8.10802 40.1761 11.301
12351 2 -0.190422 37.3289 11.2429
485 2 2.87656 37.3291 -0.0509949
12287 2 8.29517 43.2737 2.8539
12288 2 5.39265 45.7819 2.65792
12289 2 11.297 43.2488 -0.062588
12290 2 11.2541 46.0278 2.76165
12353 2 5.32172 37.4453 11.3356
12292 2 2.55643 48.6998 2.6754
840 1 13.5829 26.9282 4.50545
12294 2 8.43132 48.6438 2.70572
12265 2 5.51585 31.591 -0.107868
15291 2 13.9522 48.7584 2.64679
12297 2 2.56526 28.7448 5.51677
12298 2 2.70949 26.0052 8.61062
12356 2 -0.150766 42.7679 11.3658
12300 2 5.49383 25.9284 5.65598
12301 2 8.20445 28.9011 5.46703
12302 2 8.35991 26.0231 8.34688
12303 2 5.48447 28.8736 8.34643
12304 2 11.2155 26.0927 5.35897
12305 2 11.1194 28.7654 8.61068
12352 2 2.69255 40.2639 11.0835
12307 2 2.37658 34.2464 5.56291
12308 2 2.61113 31.491 8.4081
12326 2 0.00292198 43.0465 5.41742
12310 2 5.40124 31.7024 5.58736
12311 2 8.32102 34.4608 5.46598
12312 2 8.2977 31.6711 8.37807
12313 2 5.3437 34.515 8.59349
12314 2 11.2004 31.5115 5.43764
12315 2 11.1363 34.3073 8.31279
12262 2 2.5774 34.192 0.0421343