ITEM: TIMESTEP
50000
ITEM: NUMBER OF ATOMS
18000
ITEM: BOX BOUNDS xy xz yz pp pp pp
-1.7307142253965022e-01 2.8067071422539112e+01 0.0000000000000000e+00
-2.2116980077331974e+00 3.3693969800773993e+02 0.0000000000000000e+00
-1.8108011337889618e-01 2.8075080113378810e+01 0.0000000000000000e+00
ITEM: ATOMS id type x y z
1 1 1.20538 -0.965619 1.13067
2 1 3.87841 -0.874786 1.32876
3 1 3.83683 -0.854186 3.98741
4 1 1.27957 -0.888312 4.16478
5 1 1.31283 1.96403 1.28553
6 1 4.09958 1.981 1.28632
7 1 3.92524 2.0434 4.15042
8 1 1.38318 1.95813 6.58649
9 1 6.94528 1.90376 1.07711
10 1 9.36799 -1.01287 0.973124
11 1 6.60136 -0.538467 4.35369
12 1 6.86526 2.01231 3.90821
13 1 7.05024 4.62207 1.11749
14 1 9.75702 1.60332 1.19409
15 1 9.65226 1.68101 3.93736
16 1 6.7736 4.73786 3.96756
17 1 12.2616 -1.02877 1.16387
18 1 9.4208 2.11554 6.61211
19 1 12.6807 1.72807 1.23316
20 1 12.3702 1.72443 3.96557
21 1 1.38432 4.78408 1.12175
22 1 4.16548 4.83805 1.31155
23 1 4.05184 4.94708 4.24765
24 1 1.06374 4.83874 3.88025
25 1 1.08882 7.50344 1.22468
26 1 4.00475 7.43632 1.26728
27 1 4.07507 7.74154 3.98108
28 1 1.25862 7.568 4.24498
29 1 6.84221 7.5911 1.36837
30 1 9.87328 4.71619 1.26159
31 1 9.54297 4.66067 3.93909
32 1 6.73558 7.62119 4.01363
33 1 6.82075 10.2226 1.24719
34 1 9.57995 7.68908 1.08018
35 1 9.99788 7.39968 3.88845
36 1 6.70712 13.6131 7.05498
37 1 12.4252 4.41834 1.20958
38 1 12.5306 4.57566 4.1031
39 1 12.4803 7.33955 1.04338
40 1 12.5522 7.3009 3.93873
41 1 1.29975 10.3596 1.53696
42 1 3.95734 10.4539 1.28997
43 1 6.97746 10.2311 4.1092
44 1 4.14225 10.4287 4.13729
45 1 1.16146 13.2086 1.41603
46 1 4.02616 13.4236 1.30227
47 1 3.9912 13.3064 4.05443
48 1 1.22874 13.3772 4.16865
49 1 6.90236 13.1951 1.08526
50 1 9.78373 10.374 1.11084
51 1 9.76796 10.4293 3.89426
52 1 6.85877 13.1472 4.27036
53 1 7.05421 16.0723 1.25755
54 1 9.88085 13.1803 1.15488
55 1 11.8666 15.2672 3.65305
56 1 6.81935 16.182 3.97368
57 1 12.4974 10.1394 1.36914
58 1 12.5935 10.2022 4.47174
59 1 12.6791 13.1895 0.907033
12035 2 5.46709 14.4639 -0.190083
61 1 1.21023 16.1097 1.22366
62 1 4.0486 16.2678 1.39667
63 1 3.93149 16.1693 4.26699
64 1 1.17382 16.216 4.07948
65 1 1.03901 19.0608 1.26011
66 1 3.98565 18.9553 1.24575
67 1 4.055 18.9579 4.16996
68 1 1.20103 19.0161 4.07007
69 1 9.87624 19.05 4.3198
70 1 9.62853 15.7776 1.1457
71 1 9.36858 16.197 4.09423
72 1 6.73346 18.9743 4.22717
73 1 6.78945 18.9276 1.3823
74 1 9.70826 18.7849 1.30307
75 1 12.6395 19.2617 4.10473
76 1 6.72414 21.7613 4.13826
77 1 12.5637 16.0237 1.12156
78 1 12.1159 16.888 5.61475
79 1 12.5269 18.7895 1.29962
131 1 1.22852 10.4416 4.22495
81 1 1.33508 21.8258 1.23727
82 1 4.01665 21.9334 1.33032
83 1 1.37681 21.8396 4.17333
12071 2 -0.139833 9.11719 5.46315
85 1 6.74768 21.8482 1.23215
86 1 9.57517 21.5588 1.37163
87 1 9.418 21.6298 4.15644
88 1 3.96794 21.4379 4.21811
89 1 12.4553 21.6981 1.40215
15002 2 13.7729 -2.15272 2.69081
91 1 1.1552 -0.984482 6.83743
92 1 4.01898 -1.10567 6.78845
93 1 3.59117 -0.678675 9.48686
94 1 1.16863 1.8704 9.58837
95 1 1.28065 4.91671 6.86556
96 1 4.13776 1.61921 7.12184
97 1 4.01384 2.05296 10.1215
98 1 1.24045 4.86273 9.6052
99 1 6.83401 2.04411 7.05494
100 1 9.64053 -0.795163 6.68118
101 1 9.50926 -1.04118 9.54567
102 1 6.64331 1.68855 9.60463
103 1 7.08292 4.9347 6.62054
104 1 8.12265 3.48144 10.911
105 1 9.72976 1.64019 9.38154
106 1 6.79975 4.93243 9.41429
107 1 12.4427 -1.17244 6.79856
108 1 12.551 -0.928268 9.70651
109 1 12.4721 1.70303 6.99726
110 1 12.533 1.79783 9.71913
111 1 1.125 7.61401 6.97118
112 1 4.41639 4.40399 7.04485
113 1 3.83717 4.87407 9.69183
114 1 1.44972 7.59523 9.85694
115 1 1.08188 10.4371 7.07766
116 1 3.89377 7.4683 6.81797
117 1 4.34866 7.59985 9.81783
118 1 1.19993 10.4799 9.78675
119 1 6.65864 7.67812 7.3354
120 1 10.0415 4.88203 6.77826
121 1 9.71733 4.84465 9.42903
122 1 7.45913 7.3392 9.70901
123 1 6.83296 10.5773 6.80641
124 1 9.70482 10.4495 6.93153
125 1 10.2157 7.64227 9.16229
126 2 8.57974 6.21896 7.83896
127 1 9.27031 7.85321 6.61482
128 1 12.5894 4.63445 9.84203
129 1 12.2773 7.32556 6.77983
130 1 12.4755 7.59087 9.89714
12105 2 11.1177 -2.18914 11.1498
132 1 4.04575 10.5544 6.91165
133 1 4.18778 10.3067 9.68795
134 1 1.34688 13.2356 6.87801
12136 2 2.56756 9.11799 13.9406
136 1 4.04319 13.412 6.97262
137 1 4.22224 13.3201 9.85193
138 1 1.28422 13.1345 9.81602
139 1 9.53842 13.3302 4.15595
140 1 12.05 12.895 5.87503
141 1 9.37786 13.2184 6.94546
142 1 6.80831 10.5635 9.722
143 1 6.66167 16.2878 6.74901
144 1 12.0602 14.9408 7.40209
145 1 9.63679 13.361 9.80537
146 1 6.87349 13.2488 9.85907
147 1 12.477 10.332 6.96273
148 1 12.3076 10.388 9.53909
12139 2 5.54732 11.8178 13.8891
150 1 12.4052 13.1124 9.73086
151 1 1.10652 16.0562 6.7845
152 1 3.69153 16.2436 6.86955
153 1 4.06933 15.9537 9.67379
154 1 1.16066 16.2115 9.67305
155 1 1.26939 18.8917 7.07231
156 1 4.09934 19.0846 7.00541
157 1 3.93893 18.9292 9.80283
158 1 1.19344 19.0801 9.72037
159 1 9.60332 16.3032 6.9064
160 1 12.5561 19.1359 7.08902
161 1 9.80472 16.266 9.54819
162 1 6.86779 16.0265 9.77581
163 1 6.86852 18.8905 7.05803
164 1 9.65739 19.0648 7.05767
165 1 9.82715 18.8811 9.93865
166 1 6.55839 18.852 9.82997
15022 2 13.8125 9.0221 2.82876
168 1 12.6265 15.9072 10.2042
169 1 12.5896 21.9639 7.02519
170 1 12.4757 18.9793 9.99136
171 1 1.37408 21.7418 6.91701
172 1 4.00134 22.0003 7.16098
173 1 4.13027 21.7165 10.0279
174 1 1.09054 21.7296 9.80168
175 1 6.9359 21.6756 6.97307
176 1 9.63978 21.9015 6.88866
177 1 9.48399 21.6493 9.77566
178 1 6.94634 21.6953 9.75252
5639 1 9.41082 -1.107 3.98369
180 1 12.4956 21.7495 9.89694
181 1 0.95735 -1.07826 12.7721
182 1 3.94502 -0.929207 12.3249
183 1 1.04168 1.93434 12.3213
184 1 3.98708 1.98572 12.6938
185 1 6.76193 -0.952096 12.6351
186 1 9.5663 -0.932997 12.4764
187 1 6.93798 1.78224 12.4891
188 1 9.75028 1.58722 12.2603
189 1 12.503 -0.956069 12.4121
190 1 12.3981 1.75802 12.6019
191 1 1.2467 4.86289 12.4981
192 1 4.11831 4.58046 12.5467
193 1 1.40193 7.67239 12.6702
194 1 4.169 7.40282 12.5004
195 1 6.93896 7.45517 12.3951
196 1 9.88108 4.54946 12.6703
197 1 9.52891 10.5612 9.88878
198 1 9.65045 7.42013 12.2474
199 1 12.6672 4.59278 12.3732
200 1 12.4097 7.4691 12.5484
201 1 1.3577 10.4528 12.532
202 1 4.20293 10.3083 12.4018
203 1 1.10221 13.1273 12.3528
204 1 4.13016 13.1183 12.5427
205 1 6.86551 10.4055 12.5452
206 1 9.80506 10.3265 12.7072
207 1 7.0462 13.3398 12.559
208 1 9.89032 13.4628 12.4988
209 1 12.7755 10.0935 12.337
210 1 12.458 13.0435 12.8126
211 1 1.21624 16.2427 12.4286
212 1 3.97439 15.9617 12.5471
213 1 1.33452 18.9965 12.6151
214 1 4.16784 18.8399 12.6736
215 1 6.74659 16.2506 12.4421
216 1 9.62365 16.2095 12.5005
217 1 6.86951 18.9643 12.5476
218 1 9.66719 18.9208 12.734
219 1 12.4361 15.8036 13.0516
220 1 12.4881 18.9266 12.6838
221 1 1.03715 21.8035 12.6856
222 1 3.82648 21.6882 12.6415
223 1 6.90784 21.7707 12.6275
224 1 9.56988 21.7577 12.4601
225 1 12.5505 21.8046 12.9651
12125 2 10.9752 20.2874 11.3258
12110 2 10.9281 3.0474 11.031
12024 2 -0.119463 11.7507 2.63936
12124 2 8.23367 23.1605 11.173
15083 2 13.6011 14.9886 5.77374
12109 2 8.08729 5.74522 11.3426
5718 1 1.05295 -0.977073 9.55556
12008 2 5.44602 0.625733 2.59394
12133 2 8.1787 3.32214 13.8645
12010 2 11.1763 0.374476 2.54585
12123 2 5.34426 20.2842 11.1431
12108 2 5.52425 3.22799 11.0911
12013 2 2.68365 3.3782 2.6878
12122 2 2.66267 23.1524 11.2671
12107 2 2.6725 6.27077 11.1579
12112 2 2.74936 11.7355 11.1795
12017 2 8.41233 3.21183 2.49965
12018 2 5.40994 6.22156 2.63219
12104 2 8.21247 0.26357 11.0975
12020 2 11.3237 6.04379 2.49919
6093 1 12.8013 4.25466 6.82412
12022 2 2.6419 11.8803 -0.0339634
12023 2 2.64013 9.09186 2.61822
12120 2 10.9933 14.7013 11.1416
12102 2 2.52398 0.393835 11.0939
12113 2 5.76661 9.18024 11.0834
12027 2 8.32903 8.93914 2.65849
12028 2 5.5839 11.6987 2.72073
12100 2 11.126 23.2203 8.22133
12030 2 11.2959 11.8136 2.53823
12099 2 11.2128 20.4164 5.70096
12098 2 5.47719 23.271 8.4656
12033 2 2.55432 14.8742 2.7059
12130 2 11.0356 0.524182 13.9462
12097 2 8.20884 20.2653 8.39183
12096 2 8.35002 23.1746 5.5172
12037 2 8.26866 14.558 2.4136
12038 2 5.42231 17.5374 2.68379
12095 2 5.48542 20.3606 5.50585
12040 2 11.3557 17.3732 3.08885
5633 1 6.66137 -0.757417 1.30164
12093 2 2.61042 20.4575 8.3836
12043 2 2.63687 20.1941 2.59847
15111 2 13.8381 11.7552 11.2368
12092 2 2.79534 23.0287 5.58512
12111 2 -0.116719 8.98445 11.2501
12047 2 8.26717 20.2638 2.62736
12048 2 5.44042 23.283 2.67143
12090 2 11.23 17.547 8.11023
12050 2 11.0234 23.1384 2.62155
12119 2 8.40103 17.656 11.1903
12052 2 2.5867 0.536213 5.43169
6019 1 1.32627 1.95998 3.88291
12118 2 5.59646 14.8263 11.1595
5726 1 6.67359 -1.30545 9.76085
12056 2 8.24397 0.510987 5.38487
12036 2 8.32283 17.44 -0.0125894
12058 2 5.43492 0.23706 8.33773
80 1 12.4683 21.8841 4.06964
12060 2 11.2178 0.197231 8.1316
12117 2 2.70195 17.5272 11.1555
12062 2 2.51968 6.08103 5.42201
12063 2 2.83328 3.30867 8.4088
12089 2 10.5432 14.6466 5.50951
12065 2 5.40823 3.29602 5.60635
12066 2 8.21972 5.98136 4.88149
12067 2 8.13542 2.96274 8.60853
12068 2 5.18738 6.19916 8.37094
12069 2 11.0635 3.0371 5.30032
12070 2 11.7844 5.76268 8.2864
12115 2 10.9324 8.93688 10.994
12072 2 2.65107 11.8819 5.42017
12073 2 2.80523 8.96675 8.43199
12114 2 8.36043 12.0977 11.2597
12075 2 5.43326 8.99075 5.50543
12076 2 8.31922 11.5584 5.37108
12077 2 8.34894 9.38766 8.31967
12078 2 5.41497 12.0349 8.29859
12079 2 11.1484 8.85075 5.41941
12080 2 10.8396 12.0739 8.26208
12045 2 5.49877 20.3257 -0.0316007
12082 2 2.66405 17.6235 5.48326
12083 2 2.53352 14.5891 8.41668
12091 2 -0.123249 20.2582 5.57313
12085 2 5.48736 14.7417 5.43696
12086 2 8.17984 17.6008 5.40944
12087 2 8.17727 14.679 8.35098
12088 2 5.29583 17.4555 8.27885
15072 2 13.7194 9.06119 8.45481
241 1 6.68084 4.78912 12.6803
5723 1 6.71536 -1.10882 6.97338
5640 1 12.5079 -0.94829 4.16469
12011 2 -0.00726888 3.23066 -0.192055
12138 2 8.27274 8.75137 13.7604
12046 2 8.33391 23.3338 -0.0855284
12140 2 11.2308 11.587 13.8829
12044 2 0.040411 23.3314 2.83248
12064 2 -0.097846 6.13522 8.26306
12141 2 2.7114 14.5399 13.9701
15092 2 13.9337 20.3986 8.77384
60 1 13.2844 12.4136 3.4402
12081 2 -0.0594322 14.611 5.44705
15116 2 13.8264 17.5115 11.1779
12004 2 -0.103262 0.540149 2.66733
15032 2 13.8416 14.4062 2.45431
12049 2 11.1481 20.294 -0.170526
12002 2 2.7871 0.557068 -0.119349
12025 2 5.49681 8.91372 -0.18225
12135 2 11.1887 6.038 13.9421
12131 2 2.62309 3.39586 13.8447
12039 2 11.1449 14.5633 -0.148537
12042 2 2.67799 23.2922 -0.0937187
226 1 3.84735 -0.768421 15.2818
227 1 1.06264 -0.696408 15.4013
228 1 4.35221 1.85609 15.5262
229 1 1.28816 2.29188 15.3946
230 1 9.65343 -0.88658 15.3716
231 1 7.00157 1.9439 15.2726
232 1 9.52885 1.9229 15.361
233 1 6.7011 4.78384 15.3008
12203 2 2.52342 -2.2243 25.1079
235 1 12.3963 1.92928 15.5579
236 1 3.7116 4.92841 15.359
237 1 1.12547 5.11284 15.206
238 1 4.04345 7.70813 15.2892
239 1 1.19449 7.78173 15.6063
240 1 9.59067 4.95588 15.4318
12181 2 -0.0215903 14.655 16.7633
242 1 9.7616 7.44541 15.3073
12154 2 -0.133562 0.5498 19.6543
244 1 12.5774 4.51356 15.224
245 1 12.4249 7.37355 15.2296
246 1 4.05151 10.7434 15.1202
247 1 1.29376 10.4564 15.5552
248 1 4.31885 13.325 15.7037
249 1 1.10184 13.2828 15.252
250 1 9.49888 10.3293 15.1871
251 1 6.67202 10.1403 15.2958
252 1 9.79125 13.1028 15.2565
253 1 6.98419 13.2891 15.3213
254 1 12.6712 10.3713 15.4451
255 1 12.4158 13.1101 15.574
256 1 4.08453 15.9453 15.2225
257 1 1.1666 16.0743 15.4453
258 1 4.08498 18.8721 15.4245
259 1 1.33352 19.1075 15.3334
260 1 9.60999 16.0399 15.4274
261 1 6.86914 16.2514 15.3917
262 1 9.66252 18.9822 15.4166
263 1 6.84852 19.0481 15.4028
264 1 12.4415 15.9894 15.6621
265 1 12.68 18.7444 15.5637
266 1 4.25505 21.5088 15.3846
267 1 1.62365 21.8012 15.4495
268 1 9.55704 21.752 15.2855
269 1 6.73956 21.645 15.4979
270 1 12.5286 21.7167 15.6323
271 1 1.21592 -0.819032 18.2448
272 1 3.66721 -0.881861 17.9707
273 1 4.31983 -1.06965 20.8269
274 1 1.12695 -0.958635 20.9897
275 1 1.32971 2.0809 18.33
276 1 4.1992 1.88498 18.075
277 1 3.925 1.9017 21.1216
278 1 1.19648 1.92891 21.158
279 1 6.58528 -0.737421 18.2673
280 1 9.71452 -0.588992 18.0901
281 1 9.68714 -1.03858 20.759
282 1 7.02851 -1.1012 21.0174
283 1 7.05254 2.04971 18.1557
284 1 9.7594 2.19036 18.4895
285 1 9.46939 1.8816 21.1532
286 1 6.59673 1.72236 20.9313
287 1 12.6946 -0.956835 18.081
288 1 12.2197 -0.882982 20.8477
289 1 12.3737 1.80102 18.2438
290 1 12.4369 2.12397 21.0343
291 1 1.09212 4.77083 18.3575
292 1 4.05613 4.97284 18.1105
293 1 3.8778 4.94367 20.9501
294 1 1.23344 5.09921 21.1739
295 1 1.02763 7.64948 18.2605
296 1 3.94076 7.61648 18.075
297 1 3.76832 7.79416 21.1702
298 1 0.914083 7.75555 21.0409
299 1 6.64169 4.90547 18.2515
300 1 9.41852 5.0027 18.3747
301 1 9.59406 4.67769 21.0594
302 1 6.78126 4.57191 21.0703
303 1 6.7124 7.54467 18.1623
304 1 9.64132 7.60054 18.1854
305 1 9.58165 7.49767 20.9372
306 1 6.3616 7.33904 21.089
307 1 12.2774 4.78107 18.0584
308 1 12.4227 4.86194 20.9071
309 1 12.5418 7.56749 17.9347
310 1 12.4043 7.60714 20.7624
311 1 1.22449 10.4313 18.2898
312 1 4.09076 10.6175 18.1171
313 1 3.97188 10.4359 20.8813
314 1 1.09632 10.6192 21.2435
315 1 1.31814 13.2334 18.1953
316 1 3.89741 13.3061 18.2962
317 1 4.0592 13.1003 21.0285
318 1 1.19741 13.493 21.0169
319 1 6.77869 10.5031 17.9884
320 1 9.44715 10.3742 18.2462
321 1 9.65135 10.2597 20.961
322 1 6.8409 10.2792 20.6968
323 1 6.84125 13.4557 17.9944
324 1 9.5107 13.2199 18.239
325 1 9.88207 13.2204 20.9458
326 1 7.07884 13.1279 20.8518
327 1 12.3477 10.3958 18.1051
328 1 12.5358 10.1356 20.9673
329 1 12.4808 13.3348 18.4068
330 1 12.7299 13.0674 20.8573
331 1 1.44872 16.33 18.2641
332 1 4.22126 16.2881 18.2864
333 1 3.97851 16.06 21.002
334 1 1.07046 15.9636 20.9441
335 1 1.33363 19.1519 18.2901
336 1 4.08855 18.9111 18.162
337 1 4.29946 18.8144 20.9894
338 1 1.40019 18.8697 21.1127
339 1 7.00902 16.145 18.1856
340 1 9.89864 16.1223 18.089
341 1 9.66015 16.0756 21.0222
342 1 6.77056 15.8519 21.0887
343 1 6.94642 18.9391 18.3421
344 1 9.72196 19.1773 18.1598
345 1 9.88569 18.8122 20.9123
346 1 7.02101 19.0328 21.2728
347 1 12.8381 16.201 18.3936
348 1 12.5921 16.0166 21.0579
349 1 12.6599 18.9638 18.228
350 1 12.7699 18.8616 20.9069
351 1 1.23332 21.902 18.1184
352 1 4.14287 21.883 18.475
353 1 3.92855 21.617 21.2601
354 1 1.2447 21.8746 21.033
355 1 6.78633 21.7444 18.2584
356 1 9.75053 21.7054 18.3026
357 1 9.74621 21.7763 21.0663
358 1 7.10608 21.8098 21.1065
359 1 12.6212 21.8238 18.2754
360 1 12.3986 21.5091 21.1314
361 1 1.23731 -0.940148 23.5465
362 1 4.14238 -0.900213 23.5874
363 1 3.85507 -0.75436 26.5515
364 1 1.14528 -0.905889 26.4589
365 1 1.20367 2.14376 23.8416
366 1 3.80583 1.75569 23.8283
367 1 4.23355 2.01047 26.7214
368 1 1.37109 2.04779 26.5037
369 1 6.75574 1.80414 23.6712
370 1 9.50102 -1.03569 23.4883
371 1 9.59742 -1.05161 26.5824
372 1 6.88099 -1.02028 26.7583
373 1 6.99934 1.66143 26.4649
374 1 9.63365 1.74258 23.7333
375 1 9.76962 1.74009 26.4882
376 1 6.84168 4.32418 26.5864
377 1 12.4622 -1.07142 23.7552
378 1 12.377 -1.10692 26.7164
379 1 12.4705 1.97171 23.7453
380 1 12.7017 1.74888 26.6647
381 1 1.41403 4.71045 23.7493
382 1 4.35839 4.4989 23.9939
383 1 4.01983 4.69563 26.7278
384 1 1.24661 4.91494 26.5478
385 1 1.33311 7.54708 23.903
386 1 4.15347 7.60397 23.9722
387 1 4.08734 7.47145 26.5904
388 1 1.23425 7.60107 26.7125
389 1 7.05721 4.56106 23.9223
390 1 9.58137 4.35396 23.9276
391 1 9.5744 4.69441 26.8641
392 1 6.84236 7.29289 26.7305
393 1 6.8806 7.41121 23.8642
394 1 9.53993 7.41822 23.6557
395 1 9.61476 7.53434 26.7178
396 1 7.02284 10.3815 26.5464
397 1 12.4418 4.70938 23.8967
398 1 12.2301 4.58895 26.4284
399 1 12.3237 7.51375 23.8844
400 1 12.3635 7.29007 26.5141
401 1 1.28516 10.3416 24.0549
402 1 3.98117 10.3889 23.782
403 1 4.08513 10.2979 26.6074
404 1 1.22295 10.369 27.0668
405 1 1.02003 13.1366 23.8412
406 1 3.91171 13.0891 23.9715
407 1 3.97594 13.0394 26.8649
408 1 1.12345 13.2206 26.7536
409 1 6.751 10.2762 23.5924
410 1 9.75611 10.221 23.7931
411 1 9.85617 10.4106 26.4143
412 1 7.02757 13.1195 26.6204
413 1 6.88089 13.0241 23.4273
414 1 9.82325 13.0392 23.6857
415 1 9.70048 13.3593 26.3652
416 1 5.59904 14.644 25.1448
417 1 12.4781 10.4051 23.9163
418 1 12.5163 10.134 26.6544
419 1 12.7161 13.2402 23.6532
420 1 12.4168 12.8381 26.7289
421 1 1.21078 16.0848 23.5746
422 1 3.93602 16.4638 23.9455
423 1 4.07671 15.9037 26.9501
424 1 1.38024 16.0412 26.5363
425 1 1.48651 18.8904 23.8551
426 1 4.33857 19.1639 23.9205
427 1 4.23718 18.7313 26.6748
428 1 1.33264 18.7261 26.8055
429 1 6.84473 16.2908 23.5874
430 1 9.48798 15.8866 23.941
431 1 9.71701 16.1861 26.7697
432 1 7.12336 16.4112 26.6971
433 1 7.22015 19.0084 23.9615
434 1 10.0265 18.648 23.761
435 1 9.65334 18.9692 26.7805
436 1 6.81135 19.1985 26.7992
437 1 12.4245 15.9516 23.8628
438 1 12.6423 15.7976 26.5747
439 1 12.7776 18.7404 24.0208
440 1 12.6376 18.7804 26.7681
441 1 1.42545 21.6209 23.8947
442 1 4.36405 21.9326 23.9308
443 1 4.41615 21.8115 26.7226
444 1 1.64418 21.7727 26.4481
445 1 7.24128 21.7175 23.7611
446 1 10.008 21.4646 24.0562
447 1 9.77938 21.8651 26.8368
448 1 6.99242 21.8438 26.6267
449 1 12.6845 21.6345 23.8432
450 1 12.8586 21.7225 26.6371
12148 2 8.21619 20.2537 14.0042
12250 2 11.182 23.0435 25.331
12235 2 5.43606 14.5982 22.5676
15212 2 13.8418 3.2725 24.9535
5818 1 6.61136 -0.945906 15.4336
5993 1 6.64618 -1.13575 23.862
12249 2 11.1208 20.1667 22.4533
12241 2 -0.0880315 20.3054 22.4765
15011 2 13.7933 6.06147 27.9605
12231 2 -0.122726 14.6532 22.593
15221 2 13.8639 11.658 22.3445
12248 2 5.69801 23.2449 25.2157
12144 2 5.64333 17.5931 14.0024
15211 2 13.7901 6.06865 22.2587
15161 2 13.8439 6.03775 16.7277
12129 2 5.5964 0.588345 14.1151
15172 2 13.9479 8.96941 19.4636
15201 2 13.7616 0.394687 22.5002
12016 2 8.32086 6.04732 27.9735
12149 2 5.486 23.0769 14.0147
15162 2 13.6929 3.33491 19.4669
15141 2 13.853 14.5056 14.2746
12161 2 -0.128282 3.55728 16.8886
12233 2 2.99138 14.7039 25.4286
12145 2 11.2654 17.4794 14.1373
12247 2 8.47797 20.3655 25.4301
12152 2 2.46446 0.632196 16.6769
12029 2 10.9961 8.81344 27.9042
12246 2 8.62681 23.101 22.5405
12232 2 2.70308 17.4344 22.3082
12156 2 8.18581 0.573097 16.9056
12229 2 11.0131 8.89971 22.3851
12158 2 5.23548 0.465138 19.3963
15021 2 13.8701 11.6496 27.7919
12160 2 11.0403 0.628515 19.7032
12245 2 5.66339 20.2022 22.5744
12162 2 2.5623 6.38769 16.587
12163 2 2.53984 3.50981 19.7974
12228 2 5.45255 11.9907 25.2271
12165 2 5.33192 3.53254 16.9622
12166 2 8.22301 6.07248 16.8413
12167 2 8.21531 3.34448 19.737
12168 2 5.34021 6.11497 19.586
12169 2 10.9969 3.37337 16.8422
12170 2 10.9574 6.21042 19.5382
12243 2 2.96548 20.3858 25.2297
12172 2 2.70466 11.8832 16.7239
12173 2 2.52011 8.89207 19.5481
12242 2 2.64863 23.132 22.351
12175 2 5.39758 9.08776 16.8991
12176 2 8.26112 11.6794 16.6586
12177 2 8.37081 8.93745 19.4781
12178 2 5.50805 11.9391 19.5636
12179 2 11.0405 8.90206 16.7007
12180 2 11.07 11.6711 19.6181
12234 2 -0.145067 17.3427 25.3839
12182 2 2.65879 17.5928 16.6615
12183 2 2.46169 14.6274 19.573
12244 2 -0.050522 23.0264 25.2396
12185 2 5.57006 14.8433 16.881
12186 2 8.48721 17.5269 17.0212
12187 2 8.35753 14.5665 19.6533
12188 2 5.49106 17.5966 19.7639
12189 2 10.9949 14.555 16.8196
12190 2 11.2928 17.6097 19.667
243 1 6.93911 7.52556 15.3289
12192 2 2.82769 23.3618 16.8987
12193 2 2.66242 20.4982 19.6721
12226 2 8.33561 11.5818 22.25
12195 2 5.4959 20.2673 16.9209
12196 2 8.30425 23.1423 16.9135
12197 2 8.41582 20.2949 19.751
12198 2 5.62666 23.11 19.6855
12199 2 11.1121 20.4304 16.899
12200 2 11.3577 23.291 19.7118
12240 2 11.3115 17.422 25.3398
12202 2 2.66557 0.318724 22.243
12225 2 5.21526 8.98773 22.3302
12239 2 10.9771 14.6016 22.6277
5820 1 12.5801 -0.89122 15.1117
12206 2 8.25077 0.354241 22.3058
12230 2 11.1607 11.8062 25.044
12208 2 5.42123 0.461445 25.1195
12006 2 8.17802 0.362489 28.0415
12210 2 11.0605 0.302944 25.379
12238 2 5.54244 17.5401 25.1988
12212 2 2.6676 6.22752 22.7217
12213 2 2.75286 3.27118 25.3264
12237 2 8.0906 14.6752 25.3345
12215 2 5.41665 3.19017 22.4349
12216 2 8.05091 6.17837 22.4165
12217 2 8.17857 3.11819 25.1149
12218 2 5.50743 6.11715 25.281
12219 2 11.0544 3.24055 22.5395
12220 2 10.8723 6.05323 25.1602
12236 2 8.41097 17.4159 22.5022
12222 2 2.71503 11.8334 22.4193
12223 2 2.6136 8.91677 25.3109
12227 2 8.16313 9.08465 24.9807
15222 2 13.8948 8.92077 25.212
12019 2 10.97 3.17027 27.8499
15232 2 13.979 14.7107 25.2276
12191 2 0.108825 20.4181 16.8632
12147 2 -0.0355039 23.1604 14.1756
12134 2 5.40958 6.1626 13.9452
12150 2 11.1754 23.029 14.0975
12032 2 2.83536 17.3927 27.9706
12012 2 2.59133 6.09199 28.0263
15182 2 13.8932 14.5296 19.6837
12143 2 8.31799 14.7466 13.9603
15001 2 13.9823 0.498278 27.9748
12015 2 5.58375 3.29969 27.9705
12026 2 8.50291 11.7176 27.941
12146 2 2.75797 20.2028 14.0681
12041 2 -0.0110775 20.2944 28.0049
451 1 1.11683 24.3352 1.32617
452 1 4.16589 24.7523 1.27505
453 1 4.07357 24.5057 4.27093
454 1 1.3894 27.4576 4.33488
455 1 6.81233 24.4969 1.40133
456 1 9.58219 24.4224 1.31138
457 1 9.78787 24.5931 4.24725
458 1 6.97965 24.4692 4.11469
911 1 9.89325 49.9381 4.20022
480 1 13.6265 30.8206 0.974449
461 1 1.26758 30.2393 1.4607
462 1 4.08973 27.5907 1.52885
463 1 4.36555 27.4457 4.10457
464 1 0.973771 27.1978 1.78193
465 1 1.48101 33.048 1.45817
466 1 3.99967 30.3424 1.46096
467 1 4.06344 30.1421 4.29583
468 1 1.21885 30.2048 4.3544
469 1 6.90663 27.2755 1.38389
470 1 9.70214 27.1101 1.40308
471 1 9.6213 27.2463 4.04268
472 1 7.09208 27.3195 4.07144
473 1 6.97863 30.2785 1.41692
474 1 9.4402 30.3281 1.33949
475 1 9.70997 30.1088 4.30742
476 1 6.87782 30.1676 4.25037
12264 2 -0.0645809 34.5337 2.77086
12286 2 8.48209 45.8622 -0.0525376
12361 2 0.0598764 48.7722 11.1532
90 1 12.5147 24.7127 4.20774
481 1 1.7764 36.1004 1.44919
482 1 4.22904 33.2844 1.30791
483 1 3.94747 33.091 4.34233
484 1 1.29652 33.0377 4.46103
12316 2 0.0326059 37.6306 5.81854
486 1 4.19864 36.2167 1.22738
487 1 4.15229 36.0193 4.2888
488 1 1.26402 35.981 4.21774
489 1 7.02601 33.1524 1.49272
490 1 9.75054 33.0412 1.46548
491 1 9.62169 32.8789 4.33723
492 1 6.78112 32.9741 4.31525
493 1 6.9598 36.0555 1.44176
494 1 9.64075 36.0695 1.27642
495 1 9.84029 35.9323 4.1653
496 1 7.13806 35.8622 4.17739
497 1 12.5455 33.3123 1.21355
498 1 12.3364 33.17 4.0398
499 1 12.4319 36.0865 1.31397
500 1 12.5853 36.0039 4.22302
501 1 1.32452 38.6367 0.907145
502 1 3.97308 38.8933 1.28897
503 1 4.62145 38.9636 4.21895
504 1 1.65794 39.0291 4.16852
505 1 1.59173 41.6981 1.23242
506 1 4.35864 41.9251 1.4112
507 1 4.25974 41.8194 4.2492
508 1 1.53278 41.4869 4.23534
509 1 6.79663 39.1134 1.27993
510 1 9.83448 38.8009 1.15707
511 1 9.83029 38.6406 3.87229
512 1 7.06063 38.806 3.94076
513 1 7.41557 41.765 1.28298
514 1 9.90879 41.8092 1.2178
515 1 9.86726 41.4762 3.94453
516 1 7.05219 41.7111 4.16382
517 1 12.7892 38.8235 1.30893
518 1 12.8338 38.861 3.87759
519 1 12.5126 41.6175 1.11442
520 1 12.6564 41.4925 4.2475
521 1 1.5627 44.4189 1.04626
522 1 4.31546 44.625 1.23584
523 1 4.12026 44.8734 3.89384
524 1 1.38576 44.4039 4.07003
525 1 1.58896 47.1696 1.42292
526 1 4.33748 47.3496 1.20982
527 1 4.24696 47.467 4.09257
528 1 1.33714 47.2993 4.03041
529 1 7.26532 44.4559 1.48941
530 1 10.0272 44.5389 1.19396
531 1 9.83791 44.4877 4.17973
532 1 6.96123 44.3685 3.9266
533 1 7.14779 47.4066 1.20706
534 1 9.97628 47.148 1.03996
535 1 9.75781 47.2202 4.08667
536 1 7.04408 47.0081 4.05751
537 1 12.8099 44.4181 1.2215
538 1 12.7024 44.3239 4.07912
539 1 12.5155 47.3321 1.3014
540 1 12.7559 47.2957 4.01408
541 1 1.68477 24.6949 6.84016
542 1 4.33077 24.8017 6.98297
543 1 3.98484 24.6482 9.66621
544 1 1.00217 24.487 9.79917
545 1 7.13322 24.5503 7.01287
546 1 9.87765 24.7551 6.94439
547 1 9.97536 24.5382 9.95064
548 1 6.72376 24.5151 9.92081
549 1 12.5218 24.5924 6.89018
550 1 12.5985 24.5564 9.64914
551 1 1.12718 27.4953 7.02837
552 1 4.06097 27.4999 6.97157
553 1 3.69308 27.3427 9.80286
554 1 1.08606 27.3128 9.99021
555 1 1.44219 30.2537 7.17635
556 1 4.2381 30.2733 6.95929
557 1 4.21819 30.1875 9.78158
558 1 1.58965 30.5581 10.0076
559 1 6.97079 27.3627 6.99342
560 1 9.66131 27.5448 6.88528
561 1 9.58905 27.5958 9.7416
562 1 6.66963 27.4333 9.80615
563 1 7.27024 30.2981 6.9527
564 1 9.84914 30.541 7.08571
565 1 9.67616 30.3503 9.84589
566 1 6.81096 30.2501 9.85772
567 1 12.3624 27.413 6.82585
568 1 12.3919 27.4944 9.82382
569 1 12.6139 30.2261 6.78418
570 1 12.5998 30.2631 9.81659
571 1 1.14906 33.1237 7.26881
572 1 3.91274 33.1435 7.19211
573 1 4.044 33.1043 9.88324
574 1 1.36644 33.4184 10.0816
575 1 1.38959 36.0848 7.18256
576 1 4.38116 35.8448 7.01983
577 1 3.97248 36.0695 9.82975
578 1 1.43265 36.1774 9.86763
579 1 6.97846 32.9338 7.30307
580 1 9.81672 33.3364 7.12316
581 1 9.94254 32.9239 9.90559
582 1 7.1065 33.2395 9.96041
583 1 7.12128 35.7864 6.9839
584 1 9.94512 36.2047 7.07447
585 1 9.877 35.7733 9.72713
586 1 6.94537 35.9688 9.59574
587 1 12.7393 33.2851 6.88716
588 1 12.7159 32.968 9.73041
589 1 12.5109 35.9482 6.82774
590 1 12.6555 36.0061 9.97692
591 1 1.48446 38.7222 7.06833
592 1 4.15774 38.8342 6.76867
593 1 4.23813 38.865 9.70636
594 1 1.22069 38.8395 9.93053
595 1 1.37319 41.7773 6.96724
596 1 4.05388 41.6447 6.89467
597 1 4.45982 41.7762 9.82168
598 1 1.3981 41.52 9.68195
599 1 6.97935 38.9251 6.82602
600 1 9.89226 39.011 6.67477
601 1 9.77898 38.6437 9.65039
602 1 6.99765 38.6853 9.76304
603 1 6.94577 41.7066 6.85148
604 1 9.78983 41.7414 6.60819
605 1 10.1089 41.6355 9.66672
606 1 7.09241 41.4557 9.80244
607 1 12.6143 38.759 6.83991
608 1 12.6143 38.8466 9.58039
609 1 12.6884 41.6183 7.08243
610 1 12.8944 41.7563 9.85132
611 1 1.48138 44.5635 6.95826
612 1 4.3504 44.4625 7.10251
613 1 4.34559 44.5013 9.7468
614 1 1.54183 44.3289 9.86869
615 1 1.15086 47.4574 7.11384
616 1 4.04329 47.4419 6.86056
617 1 4.35478 47.372 9.56716
618 1 1.42866 47.354 9.90628
619 1 7.07923 44.4933 6.86622
620 1 9.74523 44.4575 6.79748
621 1 9.74177 44.3995 9.8218
622 1 7.08605 44.3507 9.79262
623 1 7.06407 47.3311 6.98085
624 1 9.95346 47.4651 6.99894
625 1 10.0357 47.3523 9.84191
626 1 7.3041 47.2341 9.54402
627 1 12.4532 44.4987 6.87231
628 1 12.7622 44.7721 9.66907
629 1 12.9642 47.3096 6.76794
630 1 12.811 47.4435 9.71137
631 1 1.32662 24.6654 12.5685
632 1 4.29022 24.5436 12.542
633 1 7.13493 24.7904 12.5425
634 1 9.80312 24.6494 12.9581
635 1 12.4955 24.5545 12.6959
636 1 1.30215 27.4995 13.0536
637 1 4.21859 27.4475 12.4313
638 1 1.19227 30.3977 12.7441
639 1 4.18407 30.105 12.6619
640 1 6.94464 27.4381 12.6041
641 1 9.7458 27.6616 12.7336
642 1 6.93554 30.2061 12.7345
643 1 9.81743 30.4289 12.7437
644 1 12.7161 27.2241 12.592
645 1 12.4934 30.2908 12.6981
646 1 1.49827 33.2903 12.7014
647 1 4.33611 32.9584 12.562
648 1 1.29013 36.0094 12.6218
649 1 3.99485 35.8554 12.5923
650 1 7.18613 33.038 12.5637
651 1 9.92181 33.4675 12.372
652 1 7.00894 36.1968 12.4728
653 1 9.97496 36.2239 12.8265
654 1 12.7795 33.1334 12.5349
655 1 12.8711 36.0593 12.6183
656 1 1.50881 38.87 12.7848
657 1 4.25585 38.7375 12.6387
658 1 1.44252 41.742 12.658
659 1 4.36902 41.4997 12.6583
660 1 6.8701 39.0802 12.5981
661 1 9.66624 38.7978 12.4986
662 1 7.06034 41.9207 12.528
663 1 9.88861 42.0919 12.6635
664 1 12.4548 38.7966 12.5195
665 1 12.7126 41.4992 12.687
666 1 1.35421 44.5159 12.508
667 1 4.19433 44.2193 12.4666
668 1 1.37372 47.1568 12.7399
669 1 4.3771 46.9953 12.5632
670 1 7.05949 44.7755 12.4902
671 1 9.75406 44.8331 12.4794
672 1 7.03186 47.496 12.4053
673 1 9.80742 47.4537 12.751
674 1 12.6005 44.3461 12.5477
675 1 12.7412 47.3121 12.6875
12363 2 11.3357 48.6782 11.1996
12309 2 -0.082865 34.8109 8.64316
12253 2 2.85433 26.1086 2.93544
12362 2 5.72582 48.6711 11.0475
12329 2 0.143199 45.7115 8.4916
12274 2 -0.0304822 40.3604 2.97434
12257 2 8.3024 25.8006 2.72082
12258 2 5.6428 28.7248 2.89672
12254 2 -0.143748 28.8643 2.8319
12260 2 10.8206 28.8164 2.64673
12360 2 11.2675 43.1584 11.1194
910 1 9.82521 49.7975 1.2041
12263 2 2.65429 31.6269 2.94684
12359 2 8.45552 46.1197 11.2309
1106 1 9.91995 50.0496 12.5452
1003 1 4.17563 50.1466 9.82754
12267 2 8.29547 31.5217 3.04409
12268 2 5.43085 34.5179 2.88881
12345 2 11.2745 25.8492 11.2959
12270 2 10.9476 34.5875 2.55434
12358 2 5.69238 43.0215 11.2389
12344 2 8.18823 28.8387 11.1392
12273 2 2.94067 37.5171 3.0648
12357 2 3.01694 45.7805 11.2099
12343 2 5.42521 26.0425 11.1001
12265 2 5.76076 31.7982 0.197348
12277 2 8.43505 37.3961 2.72731
12278 2 5.62815 40.3533 2.93938
15341 2 13.8391 28.7555 11.0806
12280 2 11.2259 40.2502 2.68429
12355 2 11.2523 37.4769 10.9309
12261 2 0.0116399 31.5464 -0.0462361
12283 2 2.7958 43.2022 2.67034
12354 2 8.47141 40.1455 11.1336
460 1 11.4039 28.8042 0.292907
12256 2 8.44322 28.7187 -0.151477
12287 2 8.57447 43.1213 2.69068
12288 2 5.57684 45.8874 2.60126
12319 2 -0.0845037 40.38 8.41891
12290 2 11.2402 45.8414 2.75794
12353 2 5.60471 37.4397 11.0878
12292 2 2.80456 48.6731 2.7462
15378 2 13.9131 42.9885 13.8687
12294 2 8.45978 48.6651 2.69111
12276 2 8.53341 40.3661 -0.156364
459 1 12.4594 24.5163 1.49798
12297 2 2.74164 28.9129 5.69577
12298 2 2.50658 25.9214 8.26589
12255 2 5.6214 25.9018 -0.127686
12300 2 5.63248 25.9941 5.51406
12301 2 8.45061 28.9691 5.77849
12302 2 8.35465 25.7776 8.41445
12303 2 5.58995 28.7294 8.27325
12304 2 11.2041 26.043 5.53283
12305 2 11.0631 28.9624 8.30577
12352 2 3.05957 40.2719 11.0789
12307 2 2.60126 34.6163 5.70437
12308 2 2.86077 31.6684 8.4019
6464 1 13.7334 30.4892 4.6242
12310 2 5.50449 31.6207 5.66344
12311 2 8.57168 34.4586 5.72319
12312 2 8.28499 31.6918 8.65041
12313 2 5.43305 34.4763 8.45162
12314 2 11.2698 31.5657 5.32801
12315 2 11.2751 34.4422 8.51422
12356 2 0.0117393 43.2071 11.2386
12317 2 2.8353 40.4073 5.64721
12318 2 2.79815 37.461 8.46352
12350 2 11.303 31.6346 11.2436
12320 2 5.76295 37.1934 5.55458
12321 2 8.51383 40.24 5.35872
12322 2 8.39875 37.2805 8.30811
12323 2 5.56065 40.2714 8.27177
12324 2 11.4152 37.4267 5.5251