ITEM: TIMESTEP
50000
ITEM: NUMBER OF ATOMS
18000
ITEM: BOX BOUNDS xy xz yz pp pp pp
-1.0814396058881814e-01 2.8002143960588555e+01 0.0000000000000000e+00
-1.3834645737590325e+00 3.3611146457375185e+02 0.0000000000000000e+00
-1.1407779210354721e-01 2.8008077792103489e+01 0.0000000000000000e+00
ITEM: ATOMS id type x y z
1 1 1.16167 -0.127427 1.57132
2 1 3.94388 -0.0122828 1.43683
3 1 4.15952 0.121439 4.16846
4 1 1.22493 -0.0406181 4.10737
5 1 1.26853 2.73428 1.41916
6 1 3.92331 2.73943 1.53341
7 1 3.99944 2.86812 4.40102
8 1 1.26036 2.99515 4.36244
9 1 7.0057 -0.0769627 1.27249
10 1 9.63348 0.0567296 1.52934
11 1 9.74049 0.183296 4.41283
12 1 6.93332 0.123763 4.14267
13 1 6.87479 2.68797 1.52449
14 1 9.7254 2.97067 1.34954
15 1 9.51485 2.80561 4.33232
16 1 6.63224 2.89934 4.26731
17 1 12.5721 -0.16633 1.25189
18 1 12.4071 0.17815 3.98841
19 1 12.4441 2.84626 1.44699
20 1 12.3292 2.91896 4.17049
21 1 1.20147 5.48667 1.41932
22 1 4.14591 5.68489 1.5397
23 1 4.01294 5.69625 4.39208
24 1 1.21944 5.75374 4.35959
25 1 1.2208 8.31825 1.28516
26 1 3.98548 8.46776 1.24724
27 1 4.10913 8.47397 4.28471
28 1 1.30434 8.4803 4.06916
29 1 6.96662 5.77816 1.69648
30 1 9.80892 5.63429 1.20934
31 1 9.53 5.64839 4.01341
32 1 6.79568 5.57667 4.41718
33 1 6.77439 8.58506 1.5161
34 1 9.61669 8.40252 1.53474
35 1 9.65969 8.58675 4.29066
36 1 6.84453 8.43173 4.37091
37 1 12.492 5.60704 1.56979
38 1 12.1684 5.91186 4.41709
39 1 12.3894 8.34111 1.52383
40 1 12.3796 8.63346 4.26743
41 1 1.43859 11.1707 1.36356
42 1 4.21399 11.3009 1.16924
43 1 4.03023 11.2024 3.99393
44 1 1.34222 11.2433 4.40384
45 1 1.05044 13.9329 1.3145
46 1 3.90485 13.8916 1.56713
47 1 3.87625 13.9494 4.25556
48 1 1.03035 14.0596 4.26897
49 1 6.93976 11.4333 1.47069
50 1 9.67803 11.2961 1.41084
51 1 9.74874 11.341 4.34948
52 1 6.78869 11.2615 4.17107
53 1 6.75413 14.2387 1.38987
54 1 9.64799 14.2302 1.5648
55 1 9.66741 14.087 4.20283
56 1 6.77296 14.0718 4.17107
57 1 12.3362 11.1422 1.60268
58 1 12.4173 11.4692 4.40604
59 1 12.5492 14.0129 1.57702
60 1 12.5122 14.2258 4.23259
61 1 1.41375 16.971 1.42933
62 1 4.00594 16.6755 1.28602
63 1 4.14014 16.9967 4.01199
64 1 1.28743 16.9709 4.22124
65 1 1.31003 19.7107 1.24467
66 1 4.10319 19.6209 1.25036
67 1 4.10725 19.8183 4.02258
68 1 1.40253 19.8015 4.17716
69 1 6.95291 17.2244 1.31141
70 1 9.60633 16.9302 1.45657
71 1 9.5351 16.8862 4.18001
72 1 6.72895 16.8749 4.13744
73 1 7.01255 19.9217 1.32544
74 1 9.87068 19.7673 1.30907
75 1 9.55527 19.7573 4.25139
76 1 6.74238 19.7742 4.26944
77 1 12.4264 16.7994 1.53987
78 1 12.2701 17.1122 4.34978
79 1 12.6447 22.6876 1.4302
80 1 12.401 19.7953 4.07706
81 1 1.30214 22.6448 1.34703
82 1 4.05643 22.4967 1.39959
83 1 3.86557 22.8228 4.13674
84 1 1.15675 22.638 3.99749
85 1 6.86294 22.5739 1.44211
86 1 9.61466 22.6055 1.45701
87 1 9.62453 22.6087 4.18038
88 1 6.742 22.5943 4.27056
12019 2 11.0773 4.23856 0.0931067
90 1 12.3482 22.669 4.33845
91 1 1.12256 0.123903 6.88616
92 1 3.83866 -0.0543594 7.12468
93 1 4.07872 -0.109536 9.88821
94 1 1.13521 -0.0751948 9.81015
95 1 1.20471 2.87378 7.24444
96 1 3.97347 2.83672 7.20704
97 1 3.98695 2.53944 9.87687
98 1 1.13768 2.68077 9.96329
99 1 6.68738 0.139536 6.97528
100 1 9.66754 0.0349499 7.04694
101 1 9.65894 -0.0899008 9.83736
102 1 6.75701 -0.149829 9.88216
103 1 6.6707 2.89386 7.12379
104 1 9.57321 2.80466 6.95845
105 1 9.6102 2.77702 9.88041
106 1 6.92145 2.78055 9.97075
107 1 12.5384 -0.0136742 6.92463
108 1 12.3934 -0.00443732 9.77379
109 1 12.4854 2.80899 6.99333
110 1 12.3281 2.89671 9.6674
111 1 1.21671 5.65053 7.02869
112 1 3.95136 5.7628 7.2162
113 1 3.92199 5.41299 10.0543
114 1 1.2155 5.5455 9.96933
115 1 1.2676 8.44179 7.00465
116 1 4.05801 8.33065 7.19887
117 1 4.04837 8.37399 10.0533
118 1 1.31953 8.36712 9.866
119 1 6.86068 5.78652 7.20511
120 1 9.61599 5.58585 6.93772
121 1 9.68856 5.6164 9.95923
122 1 6.75634 5.66546 9.90009
123 1 6.85057 8.49246 7.04353
124 1 9.63131 8.466 7.08936
125 1 9.80113 8.48502 9.95165
126 1 7.01508 8.4427 9.88515
127 1 12.3061 5.54995 7.16332
128 1 12.5669 5.63894 9.88476
129 1 12.3794 8.39194 7.12563
130 1 12.3621 8.42785 9.86926
131 1 1.25018 11.2856 7.09671
132 1 4.03174 11.2857 6.95671
133 1 4.00678 11.1735 9.92704
134 1 1.25682 11.2272 9.83515
135 1 1.27922 14.1447 7.14462
136 1 3.92345 13.9951 6.95061
137 1 4.05964 13.9909 9.84281
138 1 1.22313 14.1152 9.78819
139 1 6.75326 11.2177 7.02773
140 1 9.62759 11.3306 7.13046
141 1 9.58434 11.3377 9.89143
142 1 6.69821 11.3473 9.85486
143 1 6.86715 14.0582 7.04558
144 1 9.61303 14.2231 6.98269
145 1 9.54273 14.2045 10.0368
146 1 6.75496 14.108 9.72434
147 1 12.662 11.1036 7.16718
148 1 12.4516 11.2897 9.98909
149 1 12.4159 14.0966 7.07989
150 1 12.3875 14.0695 9.82282
151 1 1.46961 16.8827 6.91519
152 1 4.12948 16.8485 6.78165
153 1 4.05809 16.8074 9.77164
154 1 1.3378 17.0456 9.51478
155 1 1.26234 19.5847 6.81523
156 1 4.12444 19.7385 6.95466
157 1 4.03229 19.6745 9.80036
158 1 1.24625 19.6658 9.74118
159 1 6.85345 16.9403 6.86771
160 1 9.77499 16.9469 7.0986
161 1 9.701 16.9065 9.86289
162 1 6.80295 17.0402 9.73024
163 1 6.90342 19.7514 7.06713
164 1 9.72293 19.7395 6.9925
165 1 9.67677 19.6485 9.86298
166 1 6.82048 19.8895 9.70432
167 1 12.564 16.7574 7.0147
168 1 12.6754 16.9354 9.8467
169 1 12.5873 19.639 7.06697
170 1 12.5047 19.6184 9.96021
171 1 1.2611 22.3378 7.02454
172 1 3.99979 22.5323 6.92227
173 1 4.19948 22.6063 9.82119
174 1 1.36356 22.4774 9.76618
175 1 6.80434 22.4648 7.13903
176 1 9.62902 22.5634 6.94967
177 1 9.73899 22.4883 9.90505
178 1 7.00842 22.5751 10.0327
179 1 12.2762 22.6527 6.88444
180 1 12.4448 22.4151 9.83277
181 1 1.20008 -0.180266 12.5576
182 1 4.00781 -0.185826 12.5982
183 1 1.29587 2.56544 12.7415
184 1 3.98199 2.77869 12.7943
185 1 6.77309 -0.219924 12.6664
186 1 9.60184 -0.191324 12.5312
187 1 6.76339 2.72115 12.9274
188 1 9.6034 2.67278 12.579
189 1 12.2918 -0.0246021 12.5875
190 1 12.3757 2.83096 12.6442
191 1 0.990876 5.48878 12.7339
192 1 3.95079 5.65404 12.859
193 1 1.16836 8.25918 12.7997
194 1 3.95482 8.44234 12.772
195 1 6.78508 5.61951 12.7255
196 1 9.66493 5.68393 12.642
197 1 6.94896 8.38137 12.5654
198 1 9.73225 8.41202 12.7519
199 1 12.4109 5.65243 12.6685
200 1 12.4789 8.41398 12.6792
201 1 1.23817 11.1194 12.6301
202 1 4.10066 11.178 12.6243
203 1 1.27945 13.9563 12.6457
204 1 4.14574 14.0702 12.4324
205 1 6.71792 11.2049 12.6338
206 1 9.61927 11.2538 12.5547
207 1 6.83829 14.1005 12.7443
208 1 9.57495 14.0175 12.7139
209 1 12.5579 11.2937 12.6906
210 1 12.4747 14.0924 12.7002
211 1 1.37333 16.7892 12.5019
212 1 4.05783 16.8819 12.5543
213 1 1.37352 19.5501 12.7286
214 1 4.17644 19.6832 12.4736
215 1 6.99525 16.9435 12.6426
216 1 9.81638 16.9046 12.7192
217 1 6.85161 19.7496 12.533
218 1 9.68665 19.6298 12.6609
219 1 12.4678 16.8867 12.7536
220 1 12.6052 19.7101 12.6883
221 1 1.18383 22.4124 12.6468
222 1 3.93958 22.4672 12.5523
223 1 7.00055 22.4889 12.8129
224 1 9.79103 22.4734 12.7534
225 1 12.545 22.5949 12.7785
12025 2 5.57387 9.83305 0.0307346
15091 2 13.7847 24.0582 5.6589
15042 2 13.8175 21.2201 2.90481
15111 2 13.8412 12.6386 11.2339
15011 2 13.8253 7.00355 0.22948
12046 2 8.24182 23.9809 0.113338
15106 2 13.8985 7.10781 11.2633
12008 2 5.41011 1.37898 2.79433
15081 2 13.9082 18.2728 5.55134
12010 2 10.9664 1.43368 2.87031
12125 2 11.183 21.1138 11.3793
12035 2 5.6279 15.5215 -0.0304879
12013 2 2.60486 4.23378 3.02695
12124 2 8.27696 23.8828 11.2412
12031 2 0.00688037 15.6401 -0.0758745
15051 2 13.7933 1.48463 5.58029
12017 2 8.28425 4.14013 2.78798
12018 2 5.42832 6.9638 3.01921
12094 2 -0.00934302 23.8333 8.3821
12020 2 11.0199 7.07621 2.82088
12113 2 5.50577 9.74851 11.3429
12104 2 8.26752 1.32287 11.2624
12023 2 2.70327 9.72953 2.85621
15001 2 13.945 1.34934 0.0852113
15116 2 13.9034 18.1822 11.2878
12107 2 2.62304 6.92091 11.3082
12027 2 8.27508 9.96018 2.98383
12028 2 5.53291 12.6308 2.72083
15121 2 13.876 23.8889 11.3204
12030 2 11.0826 12.6893 2.88393
12102 2 2.58413 1.0783 11.3174
12114 2 8.05724 12.694 11.2386
12033 2 2.57618 15.4673 2.71062
12016 2 8.41101 7.08968 0.0466065
12100 2 10.9067 23.8314 8.50879
12099 2 11.1204 21.1554 5.59644
12037 2 8.16212 15.4922 2.85099
12038 2 5.46068 18.373 2.81476
12098 2 5.43112 23.9795 8.37186
12040 2 11.0951 18.4122 2.77997
12097 2 8.36962 20.9883 8.46164
12029 2 11.0953 9.73637 0.182034
12043 2 2.67865 21.0527 2.64767
12123 2 5.47896 21.1396 11.2347
12096 2 8.19265 23.8583 5.60837
12095 2 5.51302 21.1744 5.6206
12047 2 8.25228 21.1417 2.82377
12048 2 5.37366 23.9909 2.69006
12115 2 11.0984 9.82968 11.2592
12050 2 10.9814 23.9145 2.85315
12026 2 8.40773 12.6949 0.159832
12052 2 2.68255 1.46834 5.68779
12112 2 2.62386 12.6834 11.171
12122 2 2.61142 23.85 11.2422
12110 2 11.1127 4.12063 11.2089
12056 2 8.18282 1.32448 5.57662
12109 2 8.30625 7.02016 11.2633
12058 2 5.42457 1.32055 8.39218
12108 2 5.40721 4.03247 11.3417
12060 2 11.1187 1.44384 8.32452
12120 2 10.995 15.4587 11.3831
12062 2 2.57046 7.05685 5.75791
12063 2 2.65246 4.06419 8.55699
12119 2 8.21645 18.4494 11.159
12065 2 5.43248 4.21044 5.77165
12066 2 8.32062 7.01232 5.61228
12067 2 8.25974 4.15464 8.44683
12068 2 5.353 6.9493 8.63947
12069 2 10.9852 4.18002 5.54885
12070 2 10.9881 6.98975 8.45109
15062 2 13.7699 4.16044 8.48295
12072 2 2.70233 12.5788 5.61263
12073 2 2.66819 9.84988 8.5262
12118 2 5.49716 15.6051 11.219
12075 2 5.47332 9.74275 5.7073
12076 2 8.21171 12.6076 5.66556
12077 2 8.28196 9.86799 8.40166
12078 2 5.33017 12.7195 8.30765
12079 2 11.1507 9.9013 5.74721
12080 2 11.0498 12.6496 8.56147
12015 2 5.52281 4.10636 0.0527595
12082 2 2.76368 18.3067 5.42526
12083 2 2.65704 15.4005 8.47045
12117 2 2.6382 18.2479 11.2373
12085 2 5.39459 15.4428 5.57755
12086 2 8.25496 18.2662 5.48421
12087 2 8.23873 15.5418 8.52545
12088 2 5.373 18.3094 8.35635
12089 2 11.0973 15.5457 5.60111
12090 2 11.299 18.179 8.41637
12049 2 11.2635 21.2366 0.0235761
12092 2 2.64251 23.9628 5.49461
12093 2 2.71604 21.0419 8.32925
12039 2 11.1028 15.4739 0.116275
12036 2 8.34309 18.4532 -0.0336577
15022 2 13.9144 9.82132 2.89595
6063 1 12.5433 19.658 1.36669
15101 2 13.7116 1.33986 11.225
12032 2 2.72855 18.3207 -0.0680555
12012 2 2.76481 6.9795 0.0644719
12002 2 2.61096 1.22521 0.0982316
12006 2 8.28775 1.33176 -0.00363292
15072 2 13.8896 9.75149 8.52842
12121 2 -0.10944 20.9944 11.2746
15071 2 13.8537 12.7393 5.6612
15012 2 13.9713 4.25178 2.7959
12034 2 -0.167775 18.3368 2.67814
15082 2 13.8734 15.3855 8.41471
12081 2 0.00572885 15.5751 5.62549
12091 2 -0.186365 21.0512 5.61332
12041 2 -0.117803 21.1523 -0.0709466
12024 2 0.0238674 12.4889 2.85471
15021 2 13.8591 12.6364 0.158982
15041 2 13.9605 24.0476 -0.0470713
12021 2 -0.0532341 9.73171 -0.0871911
15061 2 13.8346 7.07325 5.62848
12074 2 -0.0235268 12.5148 8.42694
12014 2 -0.0352374 6.949 2.82934
12071 2 -0.0239202 9.85618 5.71669
12146 2 2.62378 20.9531 13.9737
15031 2 13.699 18.1384 0.0987635
12022 2 2.77748 12.6553 0.00514603
12138 2 8.19301 9.83606 13.945
12141 2 2.7256 15.4082 13.8159
12139 2 5.39378 12.6103 13.9928
226 1 3.77519 -0.171739 15.4569
227 1 1.03902 -0.100771 15.4034
228 1 3.96483 2.57565 15.6028
229 1 1.13634 2.80271 15.5552
230 1 9.56576 0.0232305 15.3325
231 1 6.58275 -0.0915651 15.5475
232 1 9.54432 2.92388 15.5461
233 1 6.8291 2.74458 15.5108
234 1 12.2957 0.0138539 15.5233
235 1 12.4361 2.89819 15.5679
236 1 4.06311 5.54303 15.5964
237 1 1.42347 5.55143 15.3258
238 1 4.04284 8.40941 15.8869
239 1 1.26961 8.32443 15.4489
240 1 9.56472 5.74602 15.3422
241 1 6.88888 5.66342 15.4068
242 1 9.57355 8.42509 15.4844
243 1 6.8688 8.37401 15.39
244 1 12.4807 5.57883 15.5193
245 1 12.3801 8.33666 15.5355
246 1 4.19794 11.2336 15.4751
247 1 1.40883 11.1492 15.3837
248 1 4.11541 14.1694 15.3957
249 1 1.32606 13.941 15.4291
250 1 9.53809 11.2473 15.4871
251 1 6.83809 11.2934 15.5877
252 1 9.66572 14.27 15.4259
253 1 6.85007 14.1679 15.3693
254 1 12.4841 11.3588 15.4719
255 1 12.3486 14.1416 15.3423
256 1 3.97931 16.7781 15.3545
257 1 1.22092 16.7842 15.3124
258 1 4.08759 19.6709 15.3555
259 1 1.23101 19.5971 15.4059
260 1 9.74963 17.0393 15.6403
261 1 6.98272 17.0088 15.4185
262 1 9.72998 19.6306 15.481
263 1 6.85953 19.7981 15.3791
264 1 12.6577 16.8173 15.5566
265 1 12.5601 19.6565 15.643
266 1 4.07137 22.5564 15.4151
267 1 1.33135 22.5389 15.2926
268 1 9.67352 22.4409 15.5688
269 1 6.83732 22.5305 15.5346
270 1 12.5668 22.4237 15.5248
271 1 1.19047 -0.0378922 18.3861
272 1 4.01055 -0.0152611 18.2396
273 1 4.02555 0.0657487 21.1274
274 1 1.20723 0.0665452 21.1623
275 1 1.03787 2.78661 18.3244
276 1 3.79467 2.76447 18.3162
277 1 3.95397 3.12655 21.1942
278 1 1.17118 2.85153 21.1175
279 1 6.87501 -0.221408 18.3617
280 1 9.58301 -0.0954889 18.1484
281 1 9.85389 -0.0956494 21.0156
282 1 6.98253 -0.0513297 21.056
283 1 6.65444 2.7217 18.3489
284 1 9.62117 2.66575 18.4281
285 1 9.64836 2.97873 21.3755
286 1 6.82343 2.78406 21.0998
287 1 12.5223 -0.0440209 18.2824
288 1 12.4687 0.00181667 21.2543
289 1 12.3894 2.84337 18.4896
290 1 12.4492 2.64931 21.3756
291 1 1.13224 5.66052 18.2316
292 1 3.90908 5.57808 18.5031
293 1 4.21895 6.48846 21.2808
294 1 1.48955 5.70101 21.1066
295 1 1.16739 8.37246 18.2472
296 1 3.97538 8.60054 19.0809
297 2 4.14357 8.77288 21.3091
298 1 1.95726 8.59996 21.2202
299 1 6.87008 5.4148 18.1573
300 1 9.62472 5.53326 18.1759
301 1 9.47467 5.97122 20.9922
302 1 6.70356 5.58336 21.1559
303 1 6.65083 8.34159 18.2495
304 1 9.59895 8.44398 18.3895
305 1 9.41423 8.6586 21.3635
306 1 6.44222 8.52304 21.1791
307 1 12.3215 5.72342 18.3996
308 1 12.3779 5.59455 21.2522
309 1 12.2737 8.53825 18.2758
310 1 12.3382 8.38093 21.2526
311 1 1.07064 11.3236 18.0644
312 1 3.95343 11.2223 18.2815
313 1 4.05934 11.0889 21.0592
314 1 1.28977 11.2513 20.8757
315 1 1.37248 14.226 18.0918
316 1 4.11325 13.9774 18.1909
317 1 4.16665 14.0694 21.1209
318 1 1.33794 14.0651 20.9798
319 1 6.79661 11.2722 18.3555
320 1 9.66921 11.2743 18.244
321 1 9.85159 11.2895 20.9813
322 1 7.02715 11.4596 21.176
323 1 7.04556 14.117 18.0855
324 1 9.65385 14.0403 17.9834
325 1 9.66481 14.1186 20.7746
326 1 7.01214 14.1316 20.9372
327 1 12.4217 11.3384 18.3456
328 1 12.631 11.0282 21.2462
329 1 12.5168 14.2096 18.0634
330 1 12.591 13.8685 21.023
331 1 1.09809 16.9464 18.1831
332 1 4.10395 16.6955 18.1918
333 1 4.26272 16.733 20.9519
334 1 1.27533 16.8645 21.0802
335 1 1.10231 19.771 18.2442
336 1 3.99782 19.3852 18.3307
337 1 4.20975 19.643 21.0396
338 1 1.39786 19.6338 21.0098
339 1 6.87413 16.827 18.0412
340 1 9.63158 16.9462 18.7021
341 1 9.70211 19.3689 21.1403
342 1 7.30319 16.8803 21.0731
343 1 6.80991 19.664 18.2945
344 1 9.66824 19.6342 18.3067
345 1 9.55984 19.7454 23.8203
346 1 6.87798 19.7282 20.9537
347 1 12.5326 17.0027 18.2579
348 1 12.4971 17.1046 20.9951
349 1 12.4628 19.8429 18.4407
350 1 12.524 19.8747 21.1708
351 1 1.30068 22.6131 18.1776
352 1 4.07291 22.3902 18.258
353 1 4.16658 22.7187 20.8088
354 1 1.37982 22.3836 20.871
355 1 7.03606 22.5715 18.2439
356 1 9.76962 22.6212 18.3056
357 1 9.75678 22.2096 21.0784
358 1 6.81768 22.5221 20.8919
359 1 12.5217 22.6188 18.2483
360 1 12.5467 22.6012 20.9785
361 1 1.17031 -0.00609719 23.8594
362 1 4.08432 -0.130113 23.8779
363 1 3.97679 -0.0583101 26.6162
364 1 1.27362 0.00763289 26.7586
365 1 1.36457 2.7881 23.9484
366 1 3.96204 2.79079 23.9936
367 1 4.13971 2.90161 26.7391
368 1 1.25489 2.74109 26.785
369 1 6.88625 0.0152 23.774
370 1 9.64591 -0.0569574 23.9541
371 1 9.52998 -0.0133186 26.6382
372 1 6.85854 0.0167909 26.5907
373 1 6.71149 2.77998 23.9966
374 1 9.61412 2.78585 24.099
375 1 9.70597 2.89089 26.8153
376 1 6.95281 2.83944 26.7763
377 1 12.3193 0.132257 24.0342
378 1 12.2542 -0.087061 26.6937
379 1 12.4987 2.7978 24.0582
380 1 12.4187 2.64654 26.9404
381 1 1.2986 5.50564 24.1639
382 1 4.08602 5.59914 23.9143
383 1 4.08402 5.64909 26.8494
384 1 1.20652 5.57804 26.8303
385 1 1.39127 8.36011 23.9649
386 1 4.27753 8.58495 23.4472
387 1 4.11247 8.43714 26.5478
388 1 1.28449 8.52261 26.5655
389 1 6.87033 5.77903 23.9748
390 1 9.58441 5.47571 23.8344
391 1 9.6743 5.67687 26.5634
392 1 6.84091 5.58194 26.9042
393 1 7.03347 8.5915 24.1818
394 1 9.59163 8.45462 24.1267
395 1 9.85871 8.4378 26.8476
396 1 6.99803 8.38587 26.8463
397 1 12.5579 5.57878 23.9776
398 1 12.4508 5.47797 26.7877
399 1 12.3337 8.34936 23.9821
400 1 12.5363 8.3396 26.7485
401 1 1.71234 11.1935 23.889
402 1 4.46772 11.3796 23.7752
403 1 4.34634 11.2716 26.4632
404 1 1.44052 11.186 26.7231
405 1 1.40431 14.2138 23.9541
406 1 4.18769 14.1237 23.9005
407 1 4.17361 14.1253 26.7837
408 1 1.3728 14.067 26.6808
409 1 7.24373 11.4883 24.2862
410 1 9.77566 11.1922 23.9006
411 1 9.72105 11.4402 26.7933
412 1 7.02839 11.2707 26.8825
413 1 7.04376 14.1018 23.8003
414 1 9.74372 14.1111 24.1213
415 1 9.74039 14.1668 26.9966
416 1 6.97377 14.1523 26.7449
417 1 12.3642 11.0781 24.0964
418 1 12.3663 11.1353 26.8196
419 1 12.7612 13.9072 24.1167
420 1 12.4232 14.0785 26.7915
421 1 1.15007 17.1063 23.8789
422 1 4.01249 17.1078 23.6651
423 1 4.07586 16.9323 26.5801
424 1 1.17542 16.9751 26.7705
425 1 1.20746 19.8051 23.8074
426 1 3.95659 19.8005 23.8138
427 1 3.89047 19.8443 26.6736
428 1 1.20891 19.9224 26.5476
429 1 6.7972 17.0563 23.8083
430 1 9.52006 17.1319 24.1186
431 1 9.82882 17.091 26.9026
432 1 6.87268 16.9549 26.6562
433 1 6.85517 19.6383 23.9169
434 1 9.47952 22.5293 24.0163
435 1 9.75321 19.7512 26.653
436 1 6.81446 19.7882 26.7465
437 1 12.7819 17.1811 24.1081
438 1 12.5003 16.7823 26.7635
439 1 12.3619 22.5962 23.8338
440 1 12.6406 19.6385 26.7607
441 1 1.31218 22.5318 23.6937
442 1 4.1324 22.4461 23.6278
443 1 4.17509 22.7001 26.51
444 1 1.43209 22.7387 26.4371
445 1 6.87457 22.4615 23.8301
12134 2 5.43424 6.95274 14.0568
447 1 9.88433 22.738 26.862
448 1 6.93631 22.6719 26.7777
15151 2 13.9203 1.51771 16.8871
450 1 12.6052 22.571 26.8035
12149 2 5.48551 23.8433 14.0124
12250 2 11.1343 23.9212 25.2807
12140 2 11.0884 12.6525 13.9774
12144 2 5.62639 18.4176 13.9693
15126 2 13.7564 -1.26313 14.0775
12227 2 8.4479 9.91848 25.6645
12249 2 11.1111 21.1194 22.5636
12226 2 8.71437 12.8668 22.5691
12225 2 6.2071 10.2516 22.8453
12145 2 11.1019 18.1771 14.0482
12223 2 2.88174 9.93592 25.4102
12248 2 5.51 23.9797 25.2053
12222 2 2.73426 12.7751 22.3874
12228 2 5.73164 12.8425 25.3782
15172 2 13.83 9.64789 19.7423
12220 2 11.1761 6.99996 25.4026
12247 2 8.20824 21.052 25.4239
15222 2 13.8752 9.71774 25.4664
15136 2 13.7834 9.86401 14.0308
15242 2 13.8864 21.1339 25.3575
12219 2 11.16 4.13326 22.6686
12246 2 8.31114 23.8286 22.4617
15212 2 13.8452 4.00468 25.5865
12218 2 5.66243 6.9662 25.4687
12136 2 2.58697 9.76954 13.9697
12245 2 5.48023 21.0366 22.378
12152 2 2.44887 1.24167 16.9161
15201 2 13.8643 1.36864 22.5888
12243 2 2.68818 21.2073 25.1285
15171 2 13.8324 12.7462 16.7947
12156 2 8.18437 1.30394 16.836
12216 2 8.37918 6.97638 22.6918
12158 2 5.42749 1.22712 19.6092
15182 2 13.7345 15.4585 19.7711
12160 2 11.0803 1.27506 19.7284
12242 2 2.75216 23.827 22.288
12162 2 2.56703 6.92067 16.8085
12163 2 2.49848 4.11121 19.6011
12240 2 11.2609 18.3375 25.389
12165 2 5.33735 4.05169 16.887
12166 2 8.24521 6.99814 16.7029
12167 2 8.35946 4.24241 19.7796
12168 2 5.61069 6.74221 19.527
12169 2 10.9464 4.3072 16.8819
12170 2 10.9202 7.19046 19.7428
12239 1 12.5405 19.8623 24.0049
12172 2 2.72951 12.7485 16.7841
12173 2 2.23402 10.0183 19.3489
12238 2 5.42949 18.3775 25.2769
12175 2 5.50076 9.9642 16.9404
12176 2 8.24354 12.7044 16.8277
12177 2 8.38656 9.98654 19.7251
12178 2 5.50907 12.6848 19.6691
12179 2 10.9948 9.90551 16.8033
12180 2 11.0752 12.7904 19.5693
12237 2 8.517 15.5779 25.3102
12182 2 2.62481 18.0806 16.8376
12183 2 2.66118 15.4913 19.5857
12236 2 8.28833 18.394 22.6537
12185 2 5.4626 15.4485 16.7315
12186 2 8.24247 18.2945 16.9434
12187 2 8.21099 15.403 19.5078
12188 2 5.67444 18.1625 19.6612
12189 2 11.1194 15.4924 16.8072
12190 2 11.3019 18.4051 19.7221
12235 2 5.67886 15.4828 22.5141
12192 2 2.65335 23.8809 16.7455
12193 2 2.65754 21.0045 19.584
12213 2 2.56779 4.02338 25.5348
12195 2 5.33517 20.9795 16.8548
12196 2 8.25357 23.905 16.9149
12197 2 8.39328 21.0218 19.5845
12198 2 5.52591 23.9813 19.4666
12199 2 11.2072 20.986 16.8714
12200 2 11.2118 24.0229 19.5012
12233 2 2.69382 15.5087 25.2672
12202 2 2.60525 1.43217 22.4707
12215 2 5.55385 4.1085 22.5307
12232 2 2.78571 18.3433 22.2386
12229 2 11.1364 9.90869 22.6808
12206 2 8.34845 1.39615 22.5085
15211 2 13.8309 7.00509 22.6854
12208 2 5.4139 1.27792 25.2449
12217 2 8.14005 4.18546 25.4365
12210 2 10.9145 1.37207 25.453
12230 2 11.1605 12.6451 25.3766
12212 2 2.52503 6.67912 22.8157
15241 2 13.8791 23.9523 22.4109
12133 2 8.10984 4.18984 14.0755
12231 2 -0.0518939 15.5122 22.563
12244 2 0.0689601 24.0009 25.1253
15162 2 13.7844 4.15445 19.7657
12129 2 5.40783 1.1171 14.0927
12224 2 0.148908 12.5667 25.2393
12131 2 2.57345 4.07314 14.0287
12148 2 8.32786 21.1073 14.0584
12135 2 11.1027 6.96764 14.0761
15131 2 13.854 4.24947 14.1218
12221 2 1.94151e-05 9.92334 22.5333
12143 2 8.2654 15.5034 14.1035
12241 2 -0.0670677 21.0867 22.4021
12234 2 -0.129607 18.4607 25.2252
15141 2 13.8736 15.4519 14.0251
15161 2 13.7669 7.07588 16.9467
12045 2 5.44812 21.2178 27.9788
12042 2 2.62054 24.0295 27.9693
12130 2 11.042 1.39541 14.0633
12150 2 11.1802 23.841 14.2171
451 1 1.32032 25.42 1.27288
452 1 4.01055 25.2798 1.25173
453 1 4.07316 25.4917 4.15469
454 1 1.2514 25.3834 4.15909
455 1 6.84708 25.4567 1.44437
456 1 9.85954 28.1666 1.38768
457 1 9.74275 25.4294 4.28362
458 1 7.05152 25.4298 4.26519
459 1 12.5032 28.2365 1.29449
460 1 12.3743 25.4469 4.20729
461 1 1.2822 28.3118 1.53167
462 1 4.1267 28.0359 1.37428
463 1 4.00869 28.3045 4.17148
464 1 1.27824 28.112 4.20649
465 1 1.22941 31.1754 1.56936
466 1 3.95857 31.0628 1.28493
467 1 4.24658 30.9365 4.15268
468 1 1.14528 33.8516 3.96111
469 1 7.11411 28.3353 1.46973
470 1 9.66897 30.827 1.27675
471 1 9.66326 28.2705 4.23241
472 1 6.98157 28.1072 4.23564
473 1 6.91141 31.0069 1.49921
474 1 10.1219 33.6949 1.09883
475 1 9.75996 30.9921 4.26344
476 1 6.87949 30.9684 4.21219
15272 2 13.8538 38.0334 2.86529
478 1 12.5629 28.1459 3.93429
12255 2 5.51535 26.7133 -0.0757524
480 1 12.5883 31.2837 1.3808
481 1 1.20998 34.0183 1.10687
12282 2 2.72204 46.391 -0.0802546
483 1 4.09582 33.8081 4.18757
484 1 3.93317 33.599 1.55595
12256 2 8.2868 29.6131 -0.0159346
486 1 4.06942 36.7677 1.43724
487 1 4.08415 36.4904 3.89784
488 1 1.3941 36.8172 1.30698
489 1 7.18812 33.7099 1.44628
490 1 9.76857 36.5124 1.25061
491 1 9.67989 33.6176 3.98071
492 1 6.76669 33.7988 4.15355
493 1 6.92536 36.7054 1.393
485 2 2.77976 35.5962 -0.0224902
495 1 9.63998 36.4984 4.03932
496 1 6.96354 36.6618 4.1438
497 1 12.7573 34.174 1.45592
498 1 12.6095 33.6796 4.32249
499 1 12.5305 36.8409 0.933215
500 1 12.4381 36.5377 4.08787
501 1 1.28488 39.6206 1.33509
502 1 4.13296 39.6461 1.3108
503 1 4.10817 39.4151 4.19881
504 1 1.25052 39.5113 4.21514
505 1 1.23498 42.2876 1.29596
506 1 4.14062 42.401 1.43397
507 1 3.96533 42.156 4.13636
508 1 1.24992 42.3574 4.1376
509 1 6.80619 39.43 1.34
15317 2 13.8546 37.9039 8.46339
511 1 9.74064 39.6092 1.45626
512 1 6.92852 39.5571 4.01127
513 1 6.91432 42.2028 1.31582
514 1 9.81356 42.2607 1.13637
515 1 9.79455 42.1417 4.15177
516 1 6.86972 42.3566 4.05006
517 1 12.5686 39.4602 1.32343
518 1 12.4381 39.4278 4.1717
519 1 12.6166 42.2538 1.1655
520 1 12.5966 42.295 4.36206
521 1 1.37384 45.0198 1.38469
522 1 4.13234 45.1279 1.44123
523 1 4.06508 45.2218 4.14009
524 1 1.27218 45.0466 4.17133
525 1 1.4102 47.8862 1.35847
526 1 4.17318 47.8687 1.34363
527 1 4.0515 47.8501 4.27688
528 1 1.19299 47.7359 4.22434
529 1 6.83053 45.0183 1.27339
530 1 9.80275 44.9054 1.31311
531 1 9.72666 45.1531 3.98291
532 1 6.77822 44.9976 4.06617
533 1 6.93339 47.8304 1.24761
534 1 9.73293 47.9286 1.37354
535 1 9.78088 48.0093 4.14727
536 1 7.06162 47.709 3.96577
537 1 12.614 45.0924 1.22391
538 1 12.3713 45.1278 4.11238
539 1 12.6572 47.797 1.24031
540 1 12.5835 47.858 3.98338
541 1 1.19454 25.2965 6.94967
542 1 3.85199 25.3128 7.09715
543 1 3.98931 25.3562 9.89889
544 1 1.19499 25.3293 9.81857
545 1 6.74464 25.3052 6.99253
546 1 9.65418 25.4264 7.15666
547 1 9.65538 25.2853 9.93817
548 1 6.79515 25.2381 9.93652
549 1 12.4569 25.5023 6.99219
550 1 12.4036 25.2921 9.88867
551 1 1.34037 28.0472 6.94264
552 1 4.21796 28.0644 7.05774
553 1 4.15907 28.1001 9.92428
554 1 1.44942 28.1476 10.0692
555 1 1.29757 31.03 4.58087
556 1 3.65231 31.1867 6.81442
557 1 4.32753 31.0935 9.65582
558 1 1.63486 31.2675 9.95012
559 1 6.85868 28.1629 7.15883
560 1 9.74182 28.1651 6.97508
561 1 9.62828 28.11 9.91876
562 1 6.96477 28.0581 9.87604
563 1 6.70006 30.9694 7.02995
564 1 9.58749 30.8649 7.10892
565 1 9.69883 31.0237 9.83801
566 1 6.95016 30.9356 9.90955
567 1 12.3864 28.1881 6.90286
568 1 12.3335 28.0806 9.66349
569 1 12.3724 31.0356 6.82493
570 1 12.3951 30.8605 9.8416
571 1 1.34529 36.6437 4.08658
572 1 4.29592 33.8758 6.9998
573 1 4.06842 34.004 9.8395
574 1 1.21121 34.029 9.76003
575 1 1.09895 36.7278 7.09823
576 1 4.04757 36.7728 6.98921
577 1 3.97627 36.7051 9.7347
578 1 1.08297 36.7513 9.85714
579 1 6.99236 33.6858 7.06081
580 1 9.69612 33.7846 6.88405
581 1 9.63507 33.6868 9.7634
582 1 6.83395 33.7211 9.78875
583 1 6.78255 36.5584 6.81813
584 1 9.89348 36.4718 6.88066
585 1 9.90476 36.5523 10.0823
586 1 6.65075 36.4907 10.1366
587 1 12.5618 33.7951 7.00377
588 1 12.4047 33.7344 9.7584
589 1 12.5875 36.4954 7.00215
590 1 12.6697 36.4804 9.73553
591 1 1.23168 39.3975 6.92996
592 1 3.83168 39.5203 7.08119
593 1 3.97593 39.6131 9.84502
594 1 1.14627 39.5669 9.71802
595 1 1.11554 42.215 6.95806
596 1 3.7684 42.5913 6.86665
597 1 3.9036 42.332 9.74614
598 1 1.06713 42.2455 9.78831
599 1 6.56825 39.7081 6.72385
600 1 9.70446 39.3799 4.22328
601 1 9.97489 39.6544 10.0446
602 1 6.6664 39.619 9.71417
603 1 6.58305 42.3688 6.87186
604 1 9.47148 42.5398 6.68744
605 1 9.66074 42.5184 9.72814
606 1 6.81465 42.474 9.77793
607 1 12.681 39.28 6.99712
608 1 12.6663 39.2019 9.90922
609 1 12.2838 42.2586 7.14652
610 1 12.6489 42.2451 9.84911
611 1 1.20833 45.0135 6.92873
612 1 4.12485 45.2244 6.9217
613 1 4.20751 45.1663 9.71109
614 1 1.20675 45.0323 9.79624
615 1 1.39545 47.8488 7.01712
616 1 4.24747 48.0928 7.0693
617 1 3.93924 47.9556 9.62935
618 1 1.20981 47.9476 9.73361
619 1 7.01249 45.1965 6.94014
620 1 9.82578 45.2651 6.98876
621 1 9.8656 45.2468 9.72773
622 1 6.87703 45.3194 9.61147
623 1 7.07226 48.0657 6.66917
624 1 9.88644 47.8893 7.07369
625 1 9.54066 48.0925 9.91106
626 1 6.81949 47.8937 9.6832
627 1 12.7519 45.0837 6.92242
628 1 12.5154 44.9289 9.78422
629 1 12.5373 48.0409 6.91428
630 1 12.5267 47.9247 9.72201
631 1 1.30434 25.3891 12.5091
632 1 4.0301 25.2344 12.6472
633 1 6.81756 25.2285 12.746
634 1 9.68085 25.2102 12.7517
635 1 12.4517 25.5007 12.7417
636 1 1.29064 28.1771 12.828
637 1 4.09461 28.1052 12.6972
638 1 1.32929 31.073 12.7191
639 1 4.08608 31.1863 12.4667
640 1 6.80119 28.0571 12.6837
641 1 9.50758 28.1014 12.8235
642 1 6.9425 31.0468 12.7294
643 1 9.70048 31.0283 12.4686
644 1 12.2565 28.2955 12.416
645 1 12.4516 31.1621 12.5467
646 1 1.25182 33.8151 12.4614
647 1 3.93079 33.9167 12.5991
648 1 1.08375 36.8068 12.6102
649 1 3.90197 36.8138 12.6813
650 1 6.87688 33.7838 12.6925
651 1 9.67645 33.9508 12.6988
652 1 6.89494 36.5233 12.7697
653 1 9.76033 36.6471 12.7215
654 1 12.3781 34.0582 12.5425
655 1 12.575 36.6797 12.4814
656 1 1.11506 39.5555 12.5458
657 1 3.89565 39.6684 12.6623
658 1 1.02487 42.272 12.5762
659 1 3.96189 42.4324 12.4574
660 1 6.70988 39.4676 12.6092
661 1 9.69881 39.4419 12.6624
662 1 6.73061 42.326 12.6235
663 1 9.64722 42.2618 12.6374
664 1 12.6191 39.4853 12.5041
665 1 12.7056 42.293 12.4339
666 1 1.35705 45.0851 12.5226
667 1 4.05784 45.2081 12.5937
668 1 1.24761 47.9126 12.5722
669 1 4.04118 48.0243 12.427
670 1 6.90226 45.0716 12.5226
671 1 9.70323 45.1146 12.5944
672 1 6.93377 48.0463 12.4152
673 1 9.83304 48.0533 12.7915
674 1 12.4806 45.1449 12.6252
675 1 12.6632 47.7695 12.559
12363 2 11.1756 49.2564 11.2022
479 2 11.2014 31.9881 -0.0373247
12253 2 2.71392 26.7205 2.9044
12362 2 5.52025 49.2545 11.0494
15297 2 13.792 26.7838 8.32101
12275 2 5.35906 38.0652 -0.0689098
12257 2 8.38405 26.8332 2.93341
12258 2 5.63103 29.4738 2.90052
15326 2 13.87 46.5259 5.46908
12260 2 11.1295 29.5173 2.8208
12264 2 -0.0877513 35.3681 2.62556
12259 2 11.2362 26.7111 -0.0244531
12263 2 2.71252 32.2693 3.2217
12360 2 11.131 43.7762 11.1311
15296 2 13.9152 29.5084 5.50467
15316 2 13.9356 40.7843 5.64557
12267 2 8.34018 32.1838 2.84936
12268 2 5.53971 35.1159 2.62975
15281 2 13.8956 46.435 -0.198459
12270 2 11.197 35.0086 3.03546
12359 2 8.31147 46.5228 11.0745
12341 2 -0.0979096 26.8085 11.1539
12273 2 2.65494 38.0804 2.90688
12358 2 5.50143 43.637 11.1406
12293 2 5.56058 49.2479 0.00212757
12291 2 -0.183037 49.2538 -0.0422285
12277 2 8.24375 38.0334 2.92932
12278 2 5.47332 40.7986 2.8024
482 1 5.45133 34.9944 -0.108878
12280 2 11.1977 40.8332 2.93763
12262 2 2.6223 32.4208 0.129736
12343 2 5.45676 26.5991 11.3465
12283 2 2.59297 43.6232 2.70677
12350 2 11.0003 32.5711 11.2294
12349 2 8.23089 35.2541 11.2935
12344 2 8.17647 29.4774 11.3154
12287 2 8.33949 43.5245 2.65393
12288 2 5.43546 46.3527 2.79684
12348 2 5.55759 32.4518 11.2102
12290 2 11.172 46.427 2.53347
12384 2 2.69257 49.2531 13.8415
12292 2 2.79305 49.3198 2.69568
12352 2 2.48639 40.905 11.215
12294 2 8.30913 49.2422 2.7482
89 1 12.5646 25.4044 1.45741
12357 2 2.69443 46.5125 10.9578
12297 2 2.72366 29.3203 5.68797
12298 2 2.56437 26.7297 8.47985
12299 1 1.28213 33.6713 6.81566
12300 2 5.5568 26.732 5.7281
12301 2 8.28019 29.612 5.67714
12302 2 8.28221 26.7192 8.54165
12303 2 5.53459 29.4393 8.57873
12304 2 11.1014 26.7136 5.65613
12305 2 10.9948 29.532 8.51106
12347 2 2.61795 35.3988 11.2766
12307 2 2.72564 35.1778 5.50772
12308 2 2.81856 32.6504 8.53643
12355 2 11.1284 38.0333 11.1634
12310 2 5.52076 32.3642 5.67009
12311 2 8.26257 35.16 5.61129
12312 2 8.21003 32.3682 8.4326
12313 2 5.52189 35.2636 8.44452
12314 2 11.1132 32.4147 5.6055
12315 2 11.0857 35.2184 8.45619