ITEM: TIMESTEP
10000
ITEM: NUMBER OF ATOMS
27000
ITEM: BOX BOUNDS pp pp pp
-3.9490442426473726e-01 2.7734904424264954e+01
-7.0590918916999881e+00 4.9917909189169609e+02
-3.9267563052890764e-01 2.7732675630528778e+01
ITEM: ATOMS id type q x y z
1 2 2.2208 5.30037 -1.55502 5.29053
2 1 -1.1104 1.09376 -5.78295 0.970885
3 1 -1.1104 1.1213 -0.00181015 0.966293
6 1 -1.1104 0.961592 -5.93265 3.86593
7 1 -1.1104 1.00998 -0.144099 3.75333
10 1 -1.1104 0.949159 -2.94702 1.03756
12 2 2.2208 5.15091 -4.23192 2.50642
13 2 2.2208 5.17539 1.17985 2.48562
14 1 -1.1104 1.11466 -2.94861 3.93722
16 1 -1.1104 3.79764 -5.62761 1.29356
17 1 -1.1104 3.80862 -0.0950004 1.11176
18 2 2.2208 2.36718 -1.60534 2.47518
19 1 -1.1104 3.75466 -5.71414 3.88514
20 1 -1.1104 3.81498 -0.166049 3.89146
21 2 2.2208 2.35157 -4.24497 5.31397
22 2 2.2208 2.55727 1.39401 5.22926
23 1 -1.1104 3.73923 -2.78648 1.11352
24 1 -1.1104 3.85841 -2.93051 3.8116
12759 2 2.2208 -0.428933 9.74066 5.26681
45 2 2.2208 13.7226 1.39518 5.21776
104 1 -1.1104 6.49157 -5.8207 6.53956
102 1 -1.1104 0.925843 -5.60658 6.61693
391 2 2.2208 5.25071 -1.40702 27.7728
392 2 2.2208 2.46252 -4.37144 -0.26436
393 2 2.2208 2.49881 1.48644 -0.383754
4 1 -1.1104 6.58124 -5.69784 1.0896
11 1 -1.1104 6.63775 -2.9039 1.22503
15 1 -1.1104 6.44778 -2.98162 3.94605
5 1 -1.1104 6.6998 -0.207219 1.00416
8 1 -1.1104 6.49774 -5.82524 3.77705
9 1 -1.1104 6.65759 -0.157728 3.95946
27 2 2.2208 10.8857 -1.51666 5.12324
28 1 -1.1104 12.2573 -5.65211 1.01395
29 1 -1.1104 12.1658 -0.152069 1.00314
30 1 -1.1104 12.2055 -5.79432 3.95072
31 1 -1.1104 12.3246 0.0347863 3.84864
32 1 -1.1104 12.3189 -2.9731 1.03597
33 2 2.2208 10.8062 -4.33542 2.53591
34 2 2.2208 10.8911 1.32621 2.44723
35 1 -1.1104 12.3861 -2.91857 3.91855
36 1 -1.1104 9.37931 -5.79442 0.817503
37 1 -1.1104 9.48957 -0.310761 1.10765
38 2 2.2208 8.09223 -1.4743 2.51554
39 1 -1.1104 9.31728 -5.56656 3.81829
40 1 -1.1104 9.59443 -0.154338 3.72624
41 2 2.2208 7.9544 -4.24388 5.20872
42 2 2.2208 8.1416 1.29971 5.25776
43 1 -1.1104 9.55712 -2.96143 1.09208
44 1 -1.1104 9.44013 -2.91354 3.80015
140 1 -1.1104 12.4061 -0.0977253 6.49168
142 1 -1.1104 9.48054 -5.87483 6.6658
144 1 -1.1104 9.47161 -2.95182 6.66416
143 1 -1.1104 9.63435 -0.189517 6.45116
66 1 -1.1104 6.68899 2.5773 3.92891
99 1 -1.1104 9.4182 2.85667 3.85155
219 1 -1.1104 9.41325 2.86333 6.54967
105 1 -1.1104 6.74005 0.113703 6.79652
419 2 2.2208 2.43654 -6.95814 25.0214
421 2 2.2208 10.9733 -1.62601 27.7111
422 2 2.2208 8.05296 -4.26541 -0.264313
13092 2 2.2208 13.6692 -1.50042 24.9141
59 1 -1.1104 1.22998 2.7935 1.03295
75 1 -1.1104 3.95321 2.78407 1.03749
64 1 -1.1104 1.05123 2.61673 3.87613
77 1 -1.1104 3.84803 2.75845 3.93636
49 2 2.2208 5.22534 4.16777 5.15755
50 2 2.2208 5.27622 9.7176 5.25553
51 1 -1.1104 1.08346 5.45885 1.00249
52 1 -1.1104 1.05088 10.8836 0.868199
55 1 -1.1104 1.17521 5.35049 3.78705
56 1 -1.1104 0.992798 11.1702 3.62557
60 1 -1.1104 0.778573 8.2193 0.914402
63 2 2.2208 5.12555 6.87232 2.29059
65 1 -1.1104 0.898425 8.33046 3.7121
68 1 -1.1104 3.97536 5.50523 1.07963
69 1 -1.1104 3.78934 11.0039 0.994794
70 2 2.2208 2.57602 4.12717 2.42689
71 2 2.2208 2.33601 9.74493 2.38795
72 1 -1.1104 3.99644 5.62785 3.81395
73 1 -1.1104 3.93573 10.9549 3.77623
74 2 2.2208 2.38651 6.93274 5.1715
76 1 -1.1104 3.67453 8.34604 1.17519
78 1 -1.1104 3.68219 8.2942 3.99661
179 1 -1.1104 3.85877 5.69199 6.5859
182 1 -1.1104 3.81117 8.39444 6.75689
172 1 -1.1104 0.968539 11.3504 6.34179
12879 2 2.2208 -0.340536 6.93535 8.00636
54 1 -1.1104 6.60897 11.0305 1.05635
12831 2 2.2208 -0.430075 1.51032 7.88605
13017 2 2.2208 -0.319445 4.22436 16.4049
12947 2 2.2208 -0.333048 -1.50006 16.3666
453 2 2.2208 5.34173 4.18603 -0.363192
177 1 -1.1104 6.63858 2.88312 6.74142
58 1 -1.1104 6.64536 11.2388 3.95971
174 1 -1.1104 6.66527 10.9241 6.82066
53 1 -1.1104 6.7621 5.53829 0.892368
62 1 -1.1104 6.49027 8.17756 0.981501
61 1 -1.1104 6.61659 2.76945 1.15194
57 1 -1.1104 6.66062 5.70435 3.77202
67 1 -1.1104 6.59258 8.41458 3.89809
88 1 -1.1104 12.2461 2.70373 3.78747
97 1 -1.1104 9.52967 2.456 1.09508
79 2 2.2208 10.9596 4.30292 5.1473
80 2 2.2208 10.8619 9.71839 5.26219
81 1 -1.1104 12.2563 5.58229 0.996395
82 1 -1.1104 12.1622 11.0731 1.03059
83 1 -1.1104 12.3675 5.52599 3.73458
84 1 -1.1104 12.4516 11.1305 3.8415
85 1 -1.1104 12.5045 2.84229 0.988005
86 1 -1.1104 12.077 8.28924 0.768982
87 2 2.2208 10.8441 7.00449 2.35641
89 1 -1.1104 12.3438 8.29742 3.77464
90 1 -1.1104 9.36787 5.48018 1.03171
91 1 -1.1104 9.40156 11.1774 0.857936
92 2 2.2208 8.06167 4.12696 2.44381
93 2 2.2208 7.98099 9.75866 2.35703
94 1 -1.1104 9.53053 5.55618 3.89806
95 1 -1.1104 9.49224 11.1413 3.78142
96 2 2.2208 8.09528 6.88997 5.08339
98 1 -1.1104 9.40016 8.47903 1.15905
100 1 -1.1104 9.37375 8.46842 3.83594
178 1 -1.1104 6.59506 8.35205 6.68028
214 1 -1.1104 12.123 11.3448 6.71871
216 1 -1.1104 12.3189 8.53989 6.51899
218 1 -1.1104 9.27086 11.1936 6.66727
215 1 -1.1104 12.2416 2.72984 6.57407
493 2 2.2208 8.22256 7.02773 -0.342461
109 1 -1.1104 4.10759 0.195182 6.65628
108 1 -1.1104 3.84293 -5.48933 6.59989
446 2 2.2208 10.8708 -7.06971 22.192
110 1 -1.1104 3.97194 -2.7043 6.63674
107 1 -1.1104 6.75717 -2.91439 6.74651
458 1 -1.1104 6.37667 11.163 26.3031
103 1 -1.1104 1.02271 -0.0118972 6.66031
106 1 -1.1104 1.14507 -2.87724 6.83595
111 2 2.2208 5.30516 -1.35162 10.7769
112 1 -1.1104 1.04698 -5.66864 12.0551
113 1 -1.1104 0.898761 -0.143476 12.3463
116 1 -1.1104 1.0073 -5.87195 9.23864
117 1 -1.1104 1.01141 -0.0696574 9.4258
120 1 -1.1104 1.05538 -2.86202 12.3688
122 2 2.2208 5.21227 -4.34471 7.96419
124 2 2.2208 5.31325 1.44387 8.00084
125 1 -1.1104 1.19478 -2.81755 9.53236
127 1 -1.1104 3.78779 -5.74424 12.0481
128 1 -1.1104 3.76186 0.0450693 12.0632
129 2 2.2208 2.49014 -1.29589 8.08999
131 1 -1.1104 3.69215 -5.71268 9.21266
132 1 -1.1104 3.79948 -0.0282583 9.28248
133 2 2.2208 2.53232 -4.26061 10.8092
134 2 2.2208 2.30222 1.34735 10.9952
135 1 -1.1104 3.824 -2.80375 12.1115
136 1 -1.1104 3.92113 -3.0167 9.27842
245 2 2.2208 5.12386 1.40669 13.7316
121 1 -1.1104 6.7006 -2.9258 12.3061
118 1 -1.1104 6.56837 -5.66676 9.38354
198 1 -1.1104 1.1009 2.75906 9.41955
311 2 2.2208 10.9978 -7.06352 16.512
459 1 -1.1104 6.65208 5.71299 26.3104
491 2 2.2208 10.777 4.08805 27.723
141 1 -1.1104 12.2769 -3.01708 6.63542
139 1 -1.1104 12.2935 -5.80506 6.76239
119 1 -1.1104 6.66454 0.159582 9.54368
115 1 -1.1104 6.73143 0.070474 12.3564
126 1 -1.1104 6.79633 -2.73714 9.52254
114 1 -1.1104 6.37248 -5.64222 12.1618
145 2 2.2208 10.9481 -1.37178 10.8313
146 1 -1.1104 12.372 -5.60569 12.3861
147 1 -1.1104 12.2306 -0.0293429 12.0913
148 1 -1.1104 12.2413 -5.61496 9.64486
149 1 -1.1104 12.3011 0.0132686 9.53386
150 1 -1.1104 12.3465 -2.81527 12.4585
151 2 2.2208 10.8903 -4.21779 8.13573
153 2 2.2208 11.0083 1.42095 8.15938
154 1 -1.1104 12.3896 -2.72134 9.41602
155 1 -1.1104 9.17811 -5.55977 12.5267
156 1 -1.1104 9.42916 -0.0919424 12.2325
157 2 2.2208 8.14967 -1.35679 8.10726
159 1 -1.1104 9.50148 -5.78062 9.53255
160 1 -1.1104 9.46687 -0.0914098 9.47286
161 2 2.2208 8.07512 -4.37693 10.7523
162 2 2.2208 8.19705 1.3608 10.8964
163 1 -1.1104 9.63835 -2.79923 12.2368
164 1 -1.1104 9.57838 -2.96279 9.46438
279 2 2.2208 10.7119 1.34821 13.7214
158 2 2.2208 8.09044 -1.53324 13.6504
239 1 -1.1104 9.59853 2.59027 12.1908
227 1 -1.1104 12.1808 2.7051 12.4614
241 1 -1.1104 9.71915 2.76605 9.42297
490 1 -1.1104 9.19701 5.49059 23.5352
499 1 -1.1104 12.2136 11.2855 26.2401
466 1 -1.1104 6.60005 5.54623 23.5582
181 1 -1.1104 3.88696 2.89072 6.57022
176 1 -1.1104 0.92127 8.44282 6.66166
175 1 -1.1104 1.05909 2.87933 6.56067
171 1 -1.1104 1.04328 5.6388 6.46571
12793 2 2.2208 13.5716 -6.98859 8.13604
211 1 -1.1104 3.7963 2.73298 9.40333
180 1 -1.1104 3.78078 10.9662 6.64678
193 1 -1.1104 0.974169 2.79549 12.4793
183 2 2.2208 5.45412 4.06791 10.7716
184 2 2.2208 5.21755 9.84398 10.968
185 1 -1.1104 1.03048 5.57239 12.2244
186 1 -1.1104 1.07167 11.2799 12.2982
189 1 -1.1104 0.926165 5.72844 9.41884
190 1 -1.1104 0.989851 11.2365 9.41562
194 1 -1.1104 1.02946 8.34097 12.2912
197 2 2.2208 5.25873 6.96756 7.97432
199 1 -1.1104 1.02674 8.48181 9.45553
202 1 -1.1104 3.86042 5.50848 12.3849
203 1 -1.1104 3.93878 11.155 12.3359
204 2 2.2208 2.38993 4.05575 8.04432
205 2 2.2208 2.5015 9.73931 8.06316
206 1 -1.1104 3.67508 5.44552 9.61904
207 1 -1.1104 3.91431 11.1826 9.64758
208 2 2.2208 2.38264 6.90624 10.8607
209 1 -1.1104 3.86583 2.63915 12.3537
210 1 -1.1104 3.71563 8.43851 12.1725
212 1 -1.1104 3.91747 8.36539 9.31582
314 2 2.2208 2.3529 9.79318 13.7656
137 2 2.2208 5.10024 -7.05587 10.7296
312 2 2.2208 5.19768 6.82052 13.5503
12911 2 2.2208 -0.355412 4.08824 11.1262
187 1 -1.1104 6.66 5.63053 12.1912
760 2 2.2208 5.10282 12.4462 19.2136
213 1 -1.1104 12.2483 5.51623 6.54854
217 1 -1.1104 9.49735 5.61972 6.75182
220 1 -1.1104 9.44491 8.49694 6.63107
173 1 -1.1104 6.70827 5.52376 6.52946
191 1 -1.1104 6.66958 5.59214 9.29001
196 1 -1.1104 6.60604 8.58006 12.383
201 1 -1.1104 6.77646 8.2646 9.39001
200 1 -1.1104 6.92972 2.83537 9.40458
188 1 -1.1104 6.56216 11.4571 12.3149
192 1 -1.1104 6.80487 11.0477 9.7107
195 1 -1.1104 6.61657 2.66097 12.2243
230 1 -1.1104 12.4429 2.62515 9.64438
221 2 2.2208 11.0068 4.08907 10.8244
222 2 2.2208 10.8907 9.78406 10.902
223 1 -1.1104 12.3437 5.3756 12.1158
224 1 -1.1104 12.2687 11.3291 12.2094
225 1 -1.1104 12.2251 5.62371 9.20193
226 1 -1.1104 12.4781 11.1449 9.31657
228 1 -1.1104 12.1826 8.41347 12.1839
229 2 2.2208 10.8302 7.0411 8.09296
231 1 -1.1104 12.3789 8.41248 9.36475
232 1 -1.1104 9.34401 5.38763 12.1401
233 1 -1.1104 9.49862 11.0723 12.1738
234 2 2.2208 8.16018 4.13044 7.97921
235 2 2.2208 8.05343 9.71666 8.10807
236 1 -1.1104 9.58936 5.62727 9.51522
237 1 -1.1104 9.44448 11.0804 9.44849
238 2 2.2208 8.01763 7.03818 10.8967
240 1 -1.1104 9.37791 8.19249 12.2608
242 1 -1.1104 9.59455 8.52636 9.41949
357 2 2.2208 10.9186 6.94726 13.6641
359 2 2.2208 8.01762 9.79547 13.7647
486 1 -1.1104 9.38566 5.51026 26.3637
46 2 2.2208 13.7048 -1.56623 2.32481
481 1 -1.1104 9.61483 2.74528 26.5022
123 2 2.2208 5.18249 -4.27337 13.6088
130 2 2.2208 2.30116 -1.47805 13.755
246 2 2.2208 5.23278 -1.57654 16.5695
247 1 -1.1104 0.977335 -5.71192 17.8168
248 1 -1.1104 1.11141 0.176738 18.1232
250 1 -1.1104 0.901819 -5.71121 14.8468
252 1 -1.1104 0.991823 -0.134575 15.108
257 1 -1.1104 0.903697 -2.75777 17.9559
259 2 2.2208 5.22614 -4.2764 19.3091
260 2 2.2208 5.20111 1.27451 19.3566
261 1 -1.1104 0.926979 -3.06808 15.2974
264 1 -1.1104 3.64636 -5.81348 17.9258
265 1 -1.1104 3.74666 -0.225062 17.9131
266 2 2.2208 2.33031 -1.53889 19.456
267 1 -1.1104 3.70524 -5.65967 14.9976
269 1 -1.1104 3.66431 -0.0299293 15.0069
271 2 2.2208 2.38963 -4.35808 16.4908
272 2 2.2208 2.50319 1.42466 16.6753
273 1 -1.1104 3.80062 -2.95325 17.9041
274 1 -1.1104 3.8499 -2.8281 15.1409
253 1 -1.1104 0.956156 -0.100588 20.8867
258 1 -1.1104 6.52475 -2.92562 18.1267
263 1 -1.1104 6.60784 -3.13774 14.9379
280 1 -1.1104 6.57847 -5.59669 17.9285
249 1 -1.1104 6.5464 -0.051016 17.8306
281 1 -1.1104 6.6867 -5.71629 20.7663
251 1 -1.1104 0.934286 -5.72649 20.5277
500 1 -1.1104 12.2416 5.5367 26.1292
152 2 2.2208 10.8128 -4.29755 13.7336
255 1 -1.1104 6.37203 -0.11659 14.9762
256 1 -1.1104 6.59841 -0.168262 20.5729
254 1 -1.1104 6.5824 -5.64541 15.0772
283 2 2.2208 10.7695 -1.5231 16.369
284 1 -1.1104 12.2278 -5.7661 18.061
285 1 -1.1104 12.4675 -0.0150136 17.9519
286 1 -1.1104 12.3641 -5.76113 14.9953
288 1 -1.1104 12.1145 -0.185992 15.1215
290 1 -1.1104 12.2319 -2.97229 17.7669
291 2 2.2208 10.7609 -4.36563 19.2757
292 2 2.2208 11.0175 1.31464 19.3447
293 1 -1.1104 12.2154 -2.95727 15.08
295 1 -1.1104 9.4372 -5.88143 17.8726
296 1 -1.1104 9.48093 -0.317293 17.7506
297 2 2.2208 7.94663 -1.55259 19.2364
298 1 -1.1104 9.41917 -5.58585 15.1103
300 1 -1.1104 9.32469 -0.13569 15.1269
302 2 2.2208 8.05033 -4.41721 16.4967
303 2 2.2208 7.92393 1.22381 16.4801
304 1 -1.1104 9.35564 -2.99022 17.8357
305 1 -1.1104 9.40182 -2.76919 15.1732
306 1 -1.1104 9.35847 -2.99624 20.6329
299 1 -1.1104 9.57057 -5.6581 20.7704
294 1 -1.1104 12.312 -2.75885 20.6037
289 1 -1.1104 12.1789 -0.0331537 20.9729
495 1 -1.1104 12.24 2.65351 26.3492
372 1 -1.1104 12.2802 2.60581 20.7922
301 1 -1.1104 9.49024 -0.0341481 20.5482
12678 2 2.2208 -0.249933 1.27064 2.53156
334 1 -1.1104 0.766543 2.63391 15.1252
313 2 2.2208 2.43453 3.99416 13.7364
353 1 -1.1104 3.71708 2.77685 15.0966
329 1 -1.1104 0.976164 2.88132 17.7256
351 1 -1.1104 3.84426 2.71775 17.9595
315 2 2.2208 5.27067 4.15543 16.384
316 2 2.2208 5.21815 9.58281 16.437
317 1 -1.1104 1.02652 5.50585 17.8979
318 1 -1.1104 1.2719 11.4233 18.0242
321 1 -1.1104 1.10805 5.52427 14.9805
323 1 -1.1104 0.899528 11.2835 14.974
330 1 -1.1104 0.885203 8.46842 17.847
333 2 2.2208 5.1662 6.78809 19.3519
336 1 -1.1104 0.892641 8.2644 15.1429
342 1 -1.1104 3.72487 5.50896 17.9236
343 1 -1.1104 3.89542 11.3572 17.8666
344 2 2.2208 2.38626 4.11031 19.2288
345 2 2.2208 2.14978 9.71918 19.3906
346 1 -1.1104 3.8434 5.65596 15.2242
348 1 -1.1104 3.87365 11.1538 15.0333
350 2 2.2208 2.42126 7.00162 16.5649
352 1 -1.1104 3.55868 8.62534 17.8543
355 1 -1.1104 3.89044 8.41308 14.8816
335 1 -1.1104 0.94491 2.74064 20.4543
347 1 -1.1104 3.6419 5.49339 20.7716
340 1 -1.1104 6.65625 8.26257 15.07
501 1 -1.1104 12.1899 11.1642 23.366
324 1 -1.1104 0.943462 11.2141 20.7742
337 1 -1.1104 0.890248 8.50491 20.6657
349 1 -1.1104 3.87316 11.0681 20.6258
480 1 -1.1104 9.67982 8.32376 26.5681
358 2 2.2208 8.04525 3.98416 13.5084
320 1 -1.1104 6.71158 10.9609 17.8565
331 1 -1.1104 6.6887 2.61566 17.985
341 1 -1.1104 6.51369 8.16065 20.7634
389 1 -1.1104 9.3563 8.219 20.7665
338 1 -1.1104 6.53352 2.64415 15.005
332 1 -1.1104 6.5112 8.24422 17.7548
319 1 -1.1104 6.68027 5.58582 17.8414
325 1 -1.1104 6.56476 5.41688 14.9283
327 1 -1.1104 6.63245 11.0592 15.1677
368 1 -1.1104 12.4686 2.97598 17.8898
384 1 -1.1104 9.68246 2.42819 17.688
386 1 -1.1104 9.28744 2.69054 15.0769
371 1 -1.1104 12.3287 2.65911 15.2003
360 2 2.2208 10.807 4.03971 16.3998
361 2 2.2208 10.8694 9.74936 16.461
362 1 -1.1104 12.0348 5.49463 17.6631
363 1 -1.1104 12.3866 11.0688 17.8383
364 1 -1.1104 12.1891 5.43956 14.9474
366 1 -1.1104 12.338 11.2715 15.0405
369 1 -1.1104 12.2988 8.27438 17.8336
370 2 2.2208 10.8777 6.92475 19.0245
373 1 -1.1104 12.1195 8.45781 14.8565
375 1 -1.1104 9.40949 5.44191 17.8231
376 1 -1.1104 9.35321 10.8896 17.7281
377 2 2.2208 8.00122 4.27164 19.2953
378 2 2.2208 8.10767 9.61229 19.202
379 1 -1.1104 9.46406 5.36316 15.0142
381 1 -1.1104 9.58678 11.0066 14.929
383 2 2.2208 8.05753 6.82846 16.3939
385 1 -1.1104 9.431 8.28192 17.8446
388 1 -1.1104 9.58829 8.33713 15.1441
365 1 -1.1104 12.2039 5.45938 20.5195
374 1 -1.1104 12.3015 8.31792 20.6856
382 1 -1.1104 9.40327 10.9224 20.4018
326 1 -1.1104 6.35142 5.48652 20.671
367 1 -1.1104 12.2522 11.1558 20.5821
487 2 2.2208 8.02187 9.75454 24.9677
502 1 -1.1104 12.1449 5.69389 23.2768
275 1 -1.1104 3.88817 -2.84297 20.7605
268 1 -1.1104 3.76162 -5.67012 20.7245
262 1 -1.1104 1.002 -2.9608 20.7189
270 1 -1.1104 3.80566 -0.0527016 20.6527
394 2 2.2208 5.25364 -1.4868 22.0924
395 1 -1.1104 1.2003 -5.64359 23.5192
396 1 -1.1104 1.01889 0.0166675 23.6136
399 1 -1.1104 1.15212 -5.64138 26.2815
400 1 -1.1104 0.974048 0.0552617 26.3892
403 1 -1.1104 1.06158 -2.75047 23.5924
404 2 2.2208 5.13482 -4.21882 25.029
405 2 2.2208 5.22649 1.23886 25.0052
406 1 -1.1104 1.19107 -2.76076 26.3411
408 1 -1.1104 3.75289 -5.55197 23.4024
409 1 -1.1104 3.71711 -0.147808 23.6269
410 2 2.2208 2.30177 -1.40995 25.0344
411 1 -1.1104 3.91643 -5.66793 26.5597
412 1 -1.1104 3.97568 -0.0725683 26.4203
413 2 2.2208 2.37689 -4.10159 22.1786
414 2 2.2208 2.34863 1.42977 22.0997
415 1 -1.1104 3.86235 -2.72265 23.6001
416 1 -1.1104 3.92767 -2.85055 26.443
485 1 -1.1104 9.46952 11.099 26.3627
451 1 -1.1104 6.33692 8.39289 23.5709
492 2 2.2208 10.7991 9.79179 27.6647
407 1 -1.1104 6.66475 -2.78759 26.5233
401 1 -1.1104 6.66176 -5.53961 26.4047
424 1 -1.1104 6.76311 -2.84412 23.56
282 1 -1.1104 6.73064 -2.92799 20.9102
287 1 -1.1104 12.1788 -5.60037 20.7773
402 1 -1.1104 6.74963 -0.0570674 26.4991
423 2 2.2208 8.15392 1.23895 -0.329689
398 1 -1.1104 6.58044 -0.0264591 23.5164
397 1 -1.1104 6.66875 -5.68667 23.473
425 2 2.2208 10.831 -1.44516 22.1803
426 1 -1.1104 12.434 -5.80275 23.5365
427 1 -1.1104 12.4194 0.089894 23.6725
428 1 -1.1104 12.562 -5.71471 26.3246
429 1 -1.1104 12.3758 -0.260925 26.3246
430 1 -1.1104 12.3682 -2.91895 23.543
431 2 2.2208 11.0343 -4.3305 24.8173
432 2 2.2208 10.7843 1.26653 24.8286
433 1 -1.1104 12.3048 -2.91372 26.2583
434 1 -1.1104 9.56655 -5.66974 23.5634
435 1 -1.1104 9.54433 0.0387161 23.3535
436 2 2.2208 8.1457 -1.57595 24.9676
437 1 -1.1104 9.5439 -5.6866 26.1678
438 1 -1.1104 9.44484 -0.182217 26.1859
439 2 2.2208 8.06466 -4.3243 22.128
440 2 2.2208 7.99417 1.49067 22.0362
441 1 -1.1104 9.44268 -2.85498 23.423
442 1 -1.1104 9.56312 -3.02642 26.4233
498 1 -1.1104 12.1639 2.83356 23.482
517 2 2.2208 5.2484 12.3685 2.47625
488 2 2.2208 7.95462 4.21787 24.9782
13192 2 2.2208 -0.424055 4.0967 21.9351
356 1 -1.1104 3.85833 8.29107 20.848
354 1 -1.1104 3.85711 2.79068 20.7406
322 1 -1.1104 0.886852 5.7709 20.5995
455 2 2.2208 2.26144 7.03666 -0.406012
454 2 2.2208 5.0932 9.67192 27.7674
464 1 -1.1104 3.87236 2.76943 26.2877
448 1 -1.1104 0.892505 2.7864 26.2571
469 1 -1.1104 3.83527 2.68111 23.6611
457 1 -1.1104 0.934693 2.64698 23.3893
447 1 -1.1104 0.993121 8.43771 26.2851
449 2 2.2208 5.25627 6.95349 24.911
456 1 -1.1104 0.817455 8.25246 23.3669
460 1 -1.1104 0.968041 11.2141 26.3205
461 1 -1.1104 0.916657 5.63479 26.3221
462 1 -1.1104 3.86882 8.15891 26.4185
465 1 -1.1104 3.6763 8.42997 23.704
467 1 -1.1104 0.952004 11.214 23.6062
468 1 -1.1104 1.06741 5.39858 23.6658
470 2 2.2208 2.23541 7.0139 22.1653
471 1 -1.1104 3.71082 11.0221 26.3525
472 1 -1.1104 3.8605 5.52429 26.2641
473 2 2.2208 2.32314 9.77797 24.8438
474 2 2.2208 5.20935 9.66767 22.0761
475 2 2.2208 2.38657 4.15153 25.0574
476 1 -1.1104 3.90031 11.2969 23.6218
477 2 2.2208 5.11004 4.16309 22.2121
479 1 -1.1104 3.82369 5.50084 23.6942
328 1 -1.1104 6.7672 10.9779 20.7691
489 1 -1.1104 9.41899 10.8891 23.4556
504 2 2.2208 10.797 4.1751 22.1183
497 1 -1.1104 12.0213 8.39912 23.5871
503 2 2.2208 10.829 9.61804 22.0443
494 1 -1.1104 12.3083 8.29416 26.165
482 1 -1.1104 9.18386 8.2998 23.7187
452 1 -1.1104 6.62184 2.84122 23.4864
496 2 2.2208 10.7249 6.89439 24.9548
450 1 -1.1104 6.75771 3.02052 26.2366
463 1 -1.1104 6.63278 11.1311 23.4883
380 1 -1.1104 9.23678 5.57757 20.5654
387 1 -1.1104 9.4113 2.92261 20.6113
339 1 -1.1104 6.68639 2.68782 20.688
478 1 -1.1104 6.76732 8.3738 26.4035
484 2 2.2208 7.95561 6.92275 22.1988
483 1 -1.1104 9.30597 2.80944 23.5769
12733 2 2.2208 -0.42823 4.05372 5.21861
12829 2 2.2208 -0.350994 -4.37835 13.596
444 2 2.2208 10.8767 -6.99043 27.6724
13154 2 2.2208 13.6368 6.9597 21.9934
13104 2 2.2208 -0.461703 -1.36257 22.0234
506 2 2.2208 13.6456 6.92685 -0.335856
12691 2 2.2208 -0.42993 -1.60862 5.29225
390 2 2.2208 13.6421 4.03394 13.6779
417 2 2.2208 -0.191481 -7.11023 22.0238
309 2 2.2208 13.753 1.33019 16.4755
13016 2 2.2208 13.5393 6.85494 16.3979
443 2 2.2208 13.737 1.4105 27.6882
13155 2 2.2208 13.5189 9.77217 24.9887
13125 2 2.2208 -0.201223 -4.09764 24.9197
13015 2 2.2208 13.6288 9.74648 13.6394
626 2 2.2208 5.36255 12.2976 8.16844
805 2 2.2208 8.05117 12.3716 16.4038
170 2 2.2208 10.84 -7.00907 10.9836
445 2 2.2208 8.10555 -7.01417 24.9364
169 2 2.2208 7.92829 -6.96548 13.731
507 2 2.2208 5.15227 15.2841 5.34508
508 2 2.2208 5.28854 20.9991 5.34831
509 1 -1.1104 0.862041 16.5873 1.01643
511 1 -1.1104 1.22039 16.7417 3.91582
513 1 -1.1104 1.06483 13.8242 1.10272
514 1 -1.1104 0.974609 19.4129 1.0707
518 2 2.2208 5.23001 18.1389 2.43585
519 1 -1.1104 1.05157 14.024 3.96541
520 1 -1.1104 1.13076 19.5259 3.7592
523 1 -1.1104 3.83825 16.8879 1.01355
524 2 2.2208 2.39916 15.3256 2.23621
525 2 2.2208 2.48265 20.961 2.43579
526 1 -1.1104 3.86018 16.4959 3.78192
528 2 2.2208 2.38972 18.1318 5.2304
529 1 -1.1104 3.79645 13.9145 1.00425
530 1 -1.1104 3.74402 19.6707 0.717751
531 1 -1.1104 3.73134 13.6456 3.70616
532 1 -1.1104 3.77601 19.4914 3.74874
13650 2 2.2208 13.5076 18.096 -0.495828
527 2 2.2208 2.50987 12.4584 5.07275
610 1 -1.1104 1.10991 19.5463 6.51208
609 1 -1.1104 0.967616 14.015 6.73835
613 1 -1.1104 3.62391 16.7849 6.72792
615 1 -1.1104 3.90859 19.7512 6.73338
890 2 2.2208 2.43113 12.3923 27.65
13272 2 2.2208 13.7128 29.363 27.73
13496 2 2.2208 13.6659 21.0247 19.4547
13715 2 2.2208 13.7497 29.3704 22.0414
607 1 -1.1104 0.870837 16.8986 6.74853
889 2 2.2208 5.28551 20.9014 27.6657
539 2 2.2208 10.8238 12.4468 2.42839
614 1 -1.1104 3.85936 13.8253 6.58457
13751 2 2.2208 -0.237553 26.4888 22.2561
891 2 2.2208 2.30637 18.0949 -0.280785
516 1 -1.1104 6.58168 19.3854 1.03912
515 1 -1.1104 6.61302 13.7877 1.34225
512 1 -1.1104 6.48884 16.881 4.01759
522 1 -1.1104 6.71715 19.7269 3.83265
510 1 -1.1104 6.53472 16.6283 1.18079
521 1 -1.1104 6.67141 14.1046 4.04621
533 2 2.2208 10.9267 15.3713 5.15831
534 2 2.2208 10.7694 20.8397 5.38571
535 1 -1.1104 12.2958 16.6155 0.916623
536 1 -1.1104 12.3287 17.0162 3.84011
537 1 -1.1104 12.0013 13.9795 0.986737
538 1 -1.1104 12.1737 19.4798 0.97296
540 2 2.2208 10.7357 18.3434 2.397
541 1 -1.1104 12.1726 13.9642 3.93233
542 1 -1.1104 12.1664 19.6225 3.74
543 1 -1.1104 9.37934 16.7809 0.859873
544 2 2.2208 7.98955 15.2679 2.43829
545 2 2.2208 8.15276 21.1555 2.44979
546 1 -1.1104 9.39346 16.8146 3.66914
548 2 2.2208 7.8523 18.144 5.2086
549 1 -1.1104 9.40464 14.0592 0.725475
550 1 -1.1104 9.4261 19.6943 1.14235
551 1 -1.1104 9.5213 14.1266 3.76035
552 1 -1.1104 9.37907 19.8144 3.95235
13618 2 2.2208 -0.37666 29.395 19.2523
547 2 2.2208 7.93299 12.6618 5.18793
611 1 -1.1104 6.53623 13.7526 6.67162
608 1 -1.1104 6.50297 16.6615 6.74534
647 1 -1.1104 9.2357 19.3591 6.71952
612 1 -1.1104 6.60267 19.5603 6.70051
643 1 -1.1104 12.319 14.0613 6.68635
919 2 2.2208 10.9619 21.0392 27.66
553 2 2.2208 5.21992 26.6143 5.2907
554 1 -1.1104 1.18818 22.2832 1.07207
555 1 -1.1104 1.03463 27.9742 0.865223
558 1 -1.1104 1.02273 22.3739 4.00023
559 1 -1.1104 0.955654 28.0855 3.65093
562 1 -1.1104 0.930475 24.9496 1.05191
563 1 -1.1104 1.11754 30.7636 1.01601
566 2 2.2208 5.2965 23.7613 2.41395
567 2 2.2208 5.2557 29.3344 2.39497
568 1 -1.1104 0.947755 25.2999 3.81123
569 1 -1.1104 0.938015 30.9016 3.92012
572 1 -1.1104 3.98983 22.496 0.842828
573 1 -1.1104 3.88689 27.9372 0.785433
574 2 2.2208 2.37838 26.5297 2.32509
575 1 -1.1104 3.89285 22.3513 3.87911
576 1 -1.1104 3.64345 28.0996 3.84864
577 2 2.2208 2.39244 23.8355 5.18339
579 2 2.2208 2.50306 29.5587 5.25434
580 1 -1.1104 3.69409 25.1002 0.963762
581 1 -1.1104 3.84829 30.8972 0.906155
582 1 -1.1104 3.86568 25.2486 3.58912
583 1 -1.1104 3.96508 30.8737 3.7607
669 1 -1.1104 1.05646 28.1212 6.47415
679 1 -1.1104 3.9815 30.9813 6.50061
942 2 2.2208 5.18062 26.5101 27.6123
13307 2 2.2208 -0.342846 29.5839 2.43117
557 1 -1.1104 6.77115 27.8827 1.03066
668 1 -1.1104 1.06564 22.3555 6.74769
978 2 2.2208 8.12983 29.3428 22.1066
578 2 2.2208 2.44103 29.274 -0.395248
943 2 2.2208 2.43019 23.5624 -0.392401
13246 2 2.2208 -0.273311 18.1329 2.4003
570 1 -1.1104 6.81506 25.1797 4.07082
560 1 -1.1104 6.64732 22.3973 3.96049
556 1 -1.1104 6.57656 22.3623 1.10639
571 1 -1.1104 6.77948 30.7475 3.87577
561 1 -1.1104 6.58166 27.8714 3.80796
564 1 -1.1104 6.5856 25.0245 1.05957
565 1 -1.1104 6.56962 30.697 1.08176
587 1 -1.1104 12.2057 22.2372 3.65922
584 2 2.2208 10.8294 26.4959 5.15676
585 1 -1.1104 12.358 22.2211 0.909505
586 1 -1.1104 12.2861 27.961 0.981527
588 1 -1.1104 12.248 27.9708 3.77411
589 1 -1.1104 12.5218 25.1131 0.975196
590 1 -1.1104 12.2172 30.7042 0.9423
591 2 2.2208 10.8621 23.7616 2.31942
592 2 2.2208 10.9298 29.5231 2.36762
593 1 -1.1104 12.1916 25.1012 3.82268
594 1 -1.1104 12.4844 30.7321 3.94306
595 1 -1.1104 9.3868 22.5515 1.0424
596 1 -1.1104 9.34944 27.9652 0.768551
597 2 2.2208 8.05977 26.4899 2.40561
598 1 -1.1104 9.40422 22.5345 3.87685
599 1 -1.1104 9.40682 28.2243 3.60563
600 2 2.2208 8.03392 23.8235 5.2734
602 2 2.2208 8.20704 29.4473 5.11803
603 1 -1.1104 9.54866 25.3315 0.911208
604 1 -1.1104 9.31536 30.7236 0.79072
605 1 -1.1104 9.60518 25.3389 3.59534
606 1 -1.1104 9.61618 30.9256 3.79024
713 1 -1.1104 12.3903 28.01 6.89505
715 1 -1.1104 12.1776 30.8282 6.6155
717 1 -1.1104 9.61735 28.0994 6.443
671 1 -1.1104 6.81462 27.9737 6.56319
716 1 -1.1104 9.38103 22.3535 6.75535
674 1 -1.1104 6.58091 25.0874 6.85088
719 1 -1.1104 9.40157 30.7514 6.56525
714 1 -1.1104 12.1758 25.0783 6.56714
718 1 -1.1104 9.43739 25.1728 6.53988
601 2 2.2208 8.01719 29.4158 27.6308
616 2 2.2208 5.44273 15.3205 10.8626
617 2 2.2208 5.29627 20.9348 11.0414
618 1 -1.1104 0.99915 16.9571 12.171
620 1 -1.1104 0.986916 16.7362 9.52128
622 1 -1.1104 0.859328 13.9014 12.2611
623 1 -1.1104 0.889431 19.5249 12.1523
627 2 2.2208 5.25115 18.1279 8.24334
628 1 -1.1104 0.911792 14.0842 9.48678
629 1 -1.1104 1.26893 19.446 9.3076
632 1 -1.1104 3.87165 16.7981 12.2535
633 2 2.2208 2.34708 15.2733 8.09734
634 2 2.2208 2.47307 20.9713 7.91728
635 1 -1.1104 4.05337 16.5057 9.43534
637 2 2.2208 2.48483 18.1026 10.7304
638 1 -1.1104 3.85222 14.0264 12.2349
639 1 -1.1104 3.85754 19.4063 12.1778
640 1 -1.1104 3.68209 13.8455 9.40139
641 1 -1.1104 3.98306 19.6144 9.52255
13539 2 2.2208 -0.40925 12.6518 13.564
636 2 2.2208 2.57457 12.5238 11.0331
745 2 2.2208 5.25917 18.24 13.8203
13459 2 2.2208 -0.266426 26.3633 10.994
13682 2 2.2208 -0.282765 20.9159 27.644
13275 2 2.2208 13.6648 23.6511 5.20799
13458 2 2.2208 -0.249008 23.8414 7.88665
631 1 -1.1104 6.63719 19.6252 9.62771
13417 2 2.2208 13.5176 29.409 10.9436
744 2 2.2208 5.22168 12.6639 13.6865
747 2 2.2208 2.53209 20.8807 13.6516
13273 2 2.2208 13.5424 26.6431 2.31054
644 1 -1.1104 12.2374 19.6468 6.66136
645 1 -1.1104 9.41261 16.5822 6.48862
642 1 -1.1104 12.1797 16.957 6.49352
646 1 -1.1104 9.5148 13.8347 6.51511
619 1 -1.1104 6.77054 16.8459 12.3
621 1 -1.1104 6.75612 16.7679 9.57367
625 1 -1.1104 6.81258 19.6298 12.4566
624 1 -1.1104 6.57593 14.2064 12.3853
630 1 -1.1104 6.75817 13.8218 9.42053
648 2 2.2208 10.9766 15.3422 10.9781
649 2 2.2208 10.975 21.0966 10.7098
650 1 -1.1104 12.3491 16.8437 12.3085
651 1 -1.1104 12.2534 16.5029 9.59124
652 1 -1.1104 12.406 13.9711 12.2777
653 1 -1.1104 12.351 19.5536 12.2886
655 2 2.2208 10.8202 18.1737 7.88598
656 1 -1.1104 12.1964 13.9037 9.5587
657 1 -1.1104 12.3028 19.6307 9.34597
658 1 -1.1104 9.53258 16.7558 12.2062
659 2 2.2208 8.00188 15.3005 7.89545
660 2 2.2208 8.03431 20.9908 8.13331
661 1 -1.1104 9.30687 16.9281 9.33514
663 2 2.2208 8.16684 18.2632 10.881
664 1 -1.1104 9.59525 13.8343 12.3315
665 1 -1.1104 9.53266 19.7041 12.2483
666 1 -1.1104 9.44464 13.9777 9.50047
667 1 -1.1104 9.60363 19.7829 9.39713
654 2 2.2208 10.7959 12.4952 8.01711
662 2 2.2208 8.14559 12.4896 10.9678
783 2 2.2208 11.0227 12.6839 13.6887
786 2 2.2208 8.16727 20.913 13.7825
784 2 2.2208 11.0533 18.2366 13.7152
678 1 -1.1104 3.91434 25.2468 6.55585
676 1 -1.1104 3.82642 22.5199 6.5872
672 1 -1.1104 1.02811 25.2104 6.56847
673 1 -1.1104 0.931638 30.9067 6.73974
677 1 -1.1104 3.85279 27.9849 6.53142
685 1 -1.1104 1.17183 22.5083 9.47677
704 1 -1.1104 3.97905 22.2969 9.57945
680 2 2.2208 5.19716 26.6894 10.8044
681 1 -1.1104 1.1099 22.3283 12.4416
682 1 -1.1104 0.883685 27.8484 12.5296
686 1 -1.1104 0.957 27.9458 9.4416
689 1 -1.1104 1.21576 25.1531 12.4116
690 1 -1.1104 0.880954 30.7245 12.261
693 2 2.2208 5.12096 23.6857 8.02513
694 2 2.2208 5.24529 29.4318 7.97608
696 1 -1.1104 1.07647 25.1685 9.4615
697 1 -1.1104 0.960312 30.6041 9.52406
700 1 -1.1104 3.93225 22.2204 12.3926
701 1 -1.1104 3.57687 27.8341 12.2334
702 2 2.2208 2.38228 26.5003 7.95364
705 1 -1.1104 3.68484 28.191 9.47466
706 2 2.2208 2.57589 23.5948 10.9029
707 2 2.2208 2.18743 29.1403 10.8903
708 1 -1.1104 3.98549 25.0343 12.1023
709 1 -1.1104 3.63642 30.7158 12.1253
710 1 -1.1104 3.77378 25.2895 9.47549
711 1 -1.1104 3.98945 30.7231 9.32293
691 1 -1.1104 6.67865 25.2572 12.2928
13415 2 2.2208 13.6203 26.4854 8.03949
993 1 -1.1104 12.1127 27.8034 26.3273
814 2 2.2208 5.41436 23.7941 13.6556
695 2 2.2208 4.98475 29.4432 13.487
13573 2 2.2208 13.6384 26.4274 19.2715
670 1 -1.1104 6.65863 22.3044 6.7699
712 1 -1.1104 12.2605 22.1874 6.60137
688 1 -1.1104 6.47552 27.9692 9.24627
699 1 -1.1104 6.74131 30.8073 9.51485
675 1 -1.1104 6.64555 30.7699 6.52884
683 1 -1.1104 6.85874 22.4841 12.5347
692 1 -1.1104 6.39163 30.7152 12.1782
684 1 -1.1104 6.72212 27.9929 12.0458
687 1 -1.1104 6.72225 22.4013 9.54854
698 1 -1.1104 6.59768 25.3178 9.50968
721 1 -1.1104 12.4547 22.3677 12.3409
723 1 -1.1104 12.3864 22.3896 9.39612
720 2 2.2208 10.9007 26.4733 10.7925
722 1 -1.1104 12.4269 28.0148 12.5813
724 1 -1.1104 12.3251 27.9075 9.52239
725 1 -1.1104 12.2745 25.1616 12.0835
726 1 -1.1104 12.0335 30.8732 12.6276
727 2 2.2208 10.7613 23.8074 8.05535
728 2 2.2208 11.0147 29.5711 8.10343
729 2 2.2208 10.9285 29.3909 13.7934
730 1 -1.1104 12.3055 25.1143 9.51475
731 1 -1.1104 12.2079 31.0213 9.58514
732 1 -1.1104 9.60746 22.3243 12.3143
733 1 -1.1104 9.64926 28.1263 12.1183
734 2 2.2208 7.94423 26.6313 8.05332
736 1 -1.1104 9.40413 22.5526 9.43502
737 1 -1.1104 9.43292 28.2105 9.29372
738 2 2.2208 8.01289 23.8893 10.926
739 2 2.2208 8.07861 29.4122 10.7691
740 1 -1.1104 9.47567 25.2588 12.3557
741 1 -1.1104 9.35714 30.834 12.3261
742 1 -1.1104 9.45597 25.3967 9.43709
743 1 -1.1104 9.56305 30.9116 9.41975
857 2 2.2208 11.1688 23.7698 13.6907
735 2 2.2208 8.12317 26.6014 13.6127
746 2 2.2208 2.35514 15.5387 13.5091
748 2 2.2208 5.18691 15.3135 16.5058
749 2 2.2208 5.25578 20.8901 16.417
750 1 -1.1104 0.937432 16.9079 17.8743
752 1 -1.1104 0.982643 16.9188 15.0498
756 1 -1.1104 0.870671 14.1291 17.8516
757 1 -1.1104 0.986451 19.6697 17.9713
761 2 2.2208 5.21064 18.1923 19.3497
762 1 -1.1104 1.14789 14.0236 14.9178
764 1 -1.1104 1.07823 19.5753 15.1562
770 1 -1.1104 3.76503 16.8082 17.8263