ITEM: TIMESTEP
100000
ITEM: NUMBER OF ATOMS
27000
ITEM: BOX BOUNDS pp pp pp
-4.0119083903975777e-01 2.7741190839039749e+01
-7.2216982099978795e+00 4.9934169821000586e+02
-3.9246830364979973e-01 2.7732468303650279e+01
ITEM: ATOMS id type q x y z
1 2 2.2208 5.24363 -1.83086 5.24304
2 1 -1.1104 1.03191 -6.19066 1.32501
3 1 -1.1104 1.059 -0.657892 1.09077
6 1 -1.1104 1.0939 -6.2446 3.99255
7 1 -1.1104 0.939358 -0.405482 3.7378
10 1 -1.1104 1.02612 -3.39677 1.13609
12 2 2.2208 5.31349 -4.63 2.43219
13 2 2.2208 5.23778 1.12549 2.44795
14 1 -1.1104 1.04088 -3.4203 3.96825
16 1 -1.1104 4.00873 -6.04228 1.01363
17 1 -1.1104 3.89704 -0.27738 1.00791
18 2 2.2208 2.40851 -1.93181 2.60168
19 1 -1.1104 3.91502 -6.03225 3.95309
20 1 -1.1104 3.73004 -0.268431 3.85303
21 2 2.2208 2.55543 -4.73372 5.27046
22 2 2.2208 2.47155 1.05589 5.17093
23 1 -1.1104 3.68832 -3.0277 1.08751
24 1 -1.1104 3.80332 -3.17579 4.04794
393 2 2.2208 2.33736 0.954594 -0.371496
506 2 2.2208 13.6158 6.79148 27.5551
5 1 -1.1104 6.7389 -0.221767 0.99715
501 1 -1.1104 12.2656 10.9173 23.5383
64 1 -1.1104 0.932808 2.38852 3.88646
77 1 -1.1104 3.88714 2.59549 3.67176
110 1 -1.1104 3.86555 -3.14537 6.66975
389 1 -1.1104 9.49514 8.2944 20.6641
392 2 2.2208 2.36419 -4.70094 -0.218468
107 1 -1.1104 6.5748 -3.31938 6.66233
8 1 -1.1104 6.54367 -5.9016 3.77304
9 1 -1.1104 6.47548 -0.198854 3.92339
4 1 -1.1104 6.724 -5.98908 1.04975
11 1 -1.1104 6.55698 -3.18567 1.12697
15 1 -1.1104 6.68389 -3.04659 3.78255
27 2 2.2208 11.0422 -1.61396 5.23971
28 1 -1.1104 12.0806 -6.01561 1.13102
29 1 -1.1104 12.3881 -0.327913 0.895822
30 1 -1.1104 12.2289 -5.98072 3.97352
31 1 -1.1104 12.5101 -0.100305 3.6925
32 1 -1.1104 12.2053 -3.14388 0.92183
33 2 2.2208 10.678 -4.57152 2.5919
34 2 2.2208 10.9857 0.973442 2.52071
35 1 -1.1104 12.3103 -3.15436 3.73857
36 1 -1.1104 9.50108 -6.11398 0.977313
37 1 -1.1104 9.50781 -0.476904 1.06833
38 2 2.2208 8.02272 -1.57034 2.43045
39 1 -1.1104 9.45804 -6.01014 3.78806
40 1 -1.1104 9.58159 -0.456912 3.74569
41 2 2.2208 8.06752 -4.45844 5.31061
42 2 2.2208 8.04101 1.07986 5.34495
43 1 -1.1104 9.43896 -3.26538 0.970839
44 1 -1.1104 9.54414 -3.05652 3.96542
422 2 2.2208 8.11344 -4.70397 -0.506622
99 1 -1.1104 9.37535 2.4079 3.62002
97 1 -1.1104 9.72809 2.19084 0.943823
139 1 -1.1104 12.2653 -5.83964 6.87915
421 2 2.2208 10.8494 -1.74603 -0.348352
423 2 2.2208 7.97063 0.947673 27.6945
13017 2 2.2208 -0.360824 3.77534 16.6588
61 1 -1.1104 6.94399 2.40699 0.986948
88 1 -1.1104 12.1094 2.68807 3.85521
382 1 -1.1104 9.41335 10.9204 20.7692
374 1 -1.1104 12.3491 8.00716 20.8891
59 1 -1.1104 1.00502 2.35913 1.17978
75 1 -1.1104 3.92564 2.59005 1.01067
49 2 2.2208 5.33438 3.90876 5.3228
50 2 2.2208 5.21029 9.59551 5.27965
51 1 -1.1104 1.17359 5.07238 0.814675
52 1 -1.1104 1.00334 10.6325 1.09681
55 1 -1.1104 0.941562 5.16875 3.61951
56 1 -1.1104 1.10288 10.706 3.78436
60 1 -1.1104 1.0607 8.06283 1.11624
63 2 2.2208 5.29066 6.72287 2.58068
65 1 -1.1104 0.869315 7.97935 3.88479
68 1 -1.1104 3.90088 5.42468 1.02219
69 1 -1.1104 3.83505 10.7449 1.21183
70 2 2.2208 2.41723 3.8992 2.38873
71 2 2.2208 2.43491 9.40848 2.55884
72 1 -1.1104 3.82456 5.34968 3.72216
73 1 -1.1104 3.94454 10.9182 3.91359
74 2 2.2208 2.44771 6.54002 5.2561
76 1 -1.1104 3.89035 8.06559 1.05635
78 1 -1.1104 3.76832 8.01757 3.91699
498 1 -1.1104 12.3917 2.43168 23.5089
455 2 2.2208 2.49532 6.6286 -0.436436
57 1 -1.1104 6.59426 5.4119 3.95254
62 1 -1.1104 6.80509 8.11099 1.00809
54 1 -1.1104 6.66907 11.0001 1.16333
58 1 -1.1104 6.6557 11.0693 3.75619
53 1 -1.1104 6.69647 5.32659 1.10788
174 1 -1.1104 6.65576 10.8897 6.70238
178 1 -1.1104 6.68367 8.09012 6.6344
453 2 2.2208 5.33013 3.85024 -0.175903
66 1 -1.1104 6.69825 2.71313 4.0857
67 1 -1.1104 6.99961 8.28385 3.89744
85 1 -1.1104 12.4688 2.58875 0.986829
79 2 2.2208 10.8062 3.88502 5.0223
80 2 2.2208 11.0031 9.44999 5.24792
81 1 -1.1104 12.3515 5.35983 1.04237
82 1 -1.1104 12.3041 11.0558 0.934304
83 1 -1.1104 12.3947 5.31546 3.84396
84 1 -1.1104 12.5644 10.9519 3.92366
86 1 -1.1104 12.4436 8.28234 1.069
87 2 2.2208 10.9278 6.578 2.37872
89 1 -1.1104 12.4607 8.15995 3.77741
90 1 -1.1104 9.44802 5.33122 1.0099
91 1 -1.1104 9.50585 10.8501 1.07247
92 2 2.2208 8.1136 3.78099 2.43367
93 2 2.2208 8.18716 9.50813 2.44153
94 1 -1.1104 9.48613 5.2191 3.87504
95 1 -1.1104 9.36168 10.7225 3.95022
96 2 2.2208 8.18337 6.71674 5.30348
98 1 -1.1104 9.53121 8.09613 0.941907
100 1 -1.1104 9.64171 8.00597 3.83226
492 2 2.2208 10.8532 9.53781 -0.363776
491 2 2.2208 10.8483 3.74119 -0.312261
214 1 -1.1104 12.4565 10.9607 6.73615
173 1 -1.1104 6.66051 5.31945 6.80968
218 1 -1.1104 9.43227 10.9455 6.60794
490 1 -1.1104 9.39327 5.21048 23.4075
794 2 2.2208 10.8057 12.3182 19.2761
13015 2 2.2208 13.7233 9.4536 13.7629
108 1 -1.1104 3.84847 -5.9536 6.74026
102 1 -1.1104 1.01774 -6.08649 6.56814
109 1 -1.1104 3.82285 -0.327969 6.5598
106 1 -1.1104 0.943944 -3.2559 6.68338
103 1 -1.1104 0.806906 -0.251563 6.54057
496 2 2.2208 10.7447 6.67947 24.9622
111 2 2.2208 5.12453 -1.82555 11.0492
112 1 -1.1104 1.06671 -6.01757 12.2672
113 1 -1.1104 1.14723 -0.296901 12.462
116 1 -1.1104 1.00484 -6.05019 9.32032
117 1 -1.1104 1.16912 -0.337081 9.42542
120 1 -1.1104 0.997236 -3.14186 12.2533
122 2 2.2208 5.25383 -4.35837 8.12873
124 2 2.2208 5.24527 1.15081 8.13497
125 1 -1.1104 0.874048 -3.09065 9.25713
127 1 -1.1104 3.75869 -6.13865 12.2816
128 1 -1.1104 3.78522 -0.443969 12.2601
129 2 2.2208 2.35678 -1.71713 7.94638
131 1 -1.1104 3.89253 -5.99577 9.36385
132 1 -1.1104 3.93112 -0.33032 9.43353
133 2 2.2208 2.52452 -4.83421 10.876
134 2 2.2208 2.33704 1.11229 11.0569
135 1 -1.1104 3.96324 -3.33713 12.4132
136 1 -1.1104 3.80189 -3.10634 9.66168
126 1 -1.1104 6.53858 -2.9099 9.26126
209 1 -1.1104 3.72939 2.52109 12.5011
115 1 -1.1104 6.67552 -0.405747 12.3363
121 1 -1.1104 6.80169 -3.3684 12.3274
211 1 -1.1104 3.81905 2.32021 9.56307
193 1 -1.1104 0.963029 2.5899 12.3878
175 1 -1.1104 1.08255 2.43521 6.74187
198 1 -1.1104 0.959774 2.45174 9.4835
177 1 -1.1104 6.6122 2.32097 6.79611
200 1 -1.1104 6.83232 2.4906 9.4675
104 1 -1.1104 6.60667 -5.9524 6.74803
118 1 -1.1104 6.57921 -5.78731 9.54078
143 1 -1.1104 9.47814 -0.280379 6.65528
142 1 -1.1104 9.25852 -5.8261 6.58541
140 1 -1.1104 12.0914 -0.154737 6.53434
105 1 -1.1104 6.66806 -0.469869 6.59955
141 1 -1.1104 12.2867 -3.09255 6.64035
114 1 -1.1104 6.61065 -6.14913 12.3865
119 1 -1.1104 6.69872 -0.273126 9.58343
144 1 -1.1104 9.53697 -3.14558 6.74827
145 2 2.2208 10.9217 -1.66145 11.0417
146 1 -1.1104 12.1752 -6.113 12.1749
147 1 -1.1104 12.2334 -0.540864 12.4223
148 1 -1.1104 12.2329 -6.0069 9.49274
149 1 -1.1104 12.2664 -0.320726 9.32268
150 1 -1.1104 12.4146 -3.34685 12.4738
151 2 2.2208 10.9371 -4.3861 8.20233
153 2 2.2208 10.9412 1.28498 7.91867
154 1 -1.1104 12.0397 -3.20103 9.78261
155 1 -1.1104 9.56596 -6.05609 12.4259
156 1 -1.1104 9.39794 -0.350462 12.3366
157 2 2.2208 8.1171 -1.75973 7.95091
159 1 -1.1104 9.39453 -6.10028 9.39299
160 1 -1.1104 9.54393 -0.582967 9.49406
161 2 2.2208 8.17169 -4.7042 10.8782
162 2 2.2208 8.15831 1.02065 10.876
163 1 -1.1104 9.57358 -3.22036 12.6465
164 1 -1.1104 9.37123 -3.24963 9.73473
158 2 2.2208 8.00401 -1.81014 13.7255
227 1 -1.1104 12.3212 2.4129 12.3431
195 1 -1.1104 6.63657 2.52823 12.5375
499 1 -1.1104 12.3118 10.7543 26.3121
902 2 2.2208 5.09513 12.2224 24.8972
13124 2 2.2208 -0.436467 0.894393 25.0301
172 1 -1.1104 1.05057 10.8898 6.66015
179 1 -1.1104 3.86538 5.192 6.59277
182 1 -1.1104 4.00447 8.00833 6.71305
176 1 -1.1104 1.14111 8.238 6.68509
181 1 -1.1104 3.97337 2.459 6.86433
171 1 -1.1104 0.980902 5.23542 6.48509
180 1 -1.1104 3.788 11.0675 6.75399
183 2 2.2208 5.25199 3.6927 10.8341
184 2 2.2208 5.36239 9.61433 10.821
185 1 -1.1104 1.07594 5.418 12.2636
186 1 -1.1104 1.20981 11.0127 12.3559
189 1 -1.1104 1.201 5.15615 9.4195
190 1 -1.1104 1.21275 10.9719 9.44049
194 1 -1.1104 1.10615 8.25911 12.2399
197 2 2.2208 5.35512 6.62503 8.11358
199 1 -1.1104 1.17909 8.07242 9.31435
202 1 -1.1104 3.88938 5.2973 12.3766
203 1 -1.1104 3.83243 10.8992 12.2228
204 2 2.2208 2.42226 3.76291 7.95201
205 2 2.2208 2.63623 9.49953 7.97586
206 1 -1.1104 3.98087 5.27638 9.46958
207 1 -1.1104 3.82007 11.0357 9.5239
208 2 2.2208 2.6178 6.62238 10.7507
210 1 -1.1104 3.9745 8.22296 12.102
212 1 -1.1104 3.96618 8.13625 9.27032
196 1 -1.1104 6.83206 7.97456 12.2918
12678 2 2.2208 -0.378918 0.927299 2.51893
312 2 2.2208 5.27084 6.7154 13.6634
12731 2 2.2208 -0.337653 6.74095 2.31663
12946 2 2.2208 -0.240554 0.869271 19.5351
13192 2 2.2208 -0.274594 3.94413 22.2492
215 1 -1.1104 12.2178 2.53579 6.62181
219 1 -1.1104 9.44992 2.52697 6.56388
489 1 -1.1104 9.24478 10.8643 23.6551
217 1 -1.1104 9.49593 5.35104 6.76887
220 1 -1.1104 9.50549 8.14796 6.68326
213 1 -1.1104 12.2245 5.51379 6.60383
216 1 -1.1104 12.2856 8.12119 6.64321
191 1 -1.1104 6.6854 5.17092 9.536
187 1 -1.1104 6.70314 5.24385 12.2787
188 1 -1.1104 6.70289 10.8116 12.3722
201 1 -1.1104 6.86941 8.06467 9.46327
192 1 -1.1104 6.8511 10.9006 9.50348
239 1 -1.1104 9.53992 2.3351 12.3194
241 1 -1.1104 9.75952 2.43052 9.52224
230 1 -1.1104 12.3493 2.56729 9.4903
221 2 2.2208 10.9526 3.81392 10.9576
222 2 2.2208 10.929 9.55928 10.9099
223 1 -1.1104 12.4635 5.27101 12.2795
224 1 -1.1104 12.365 10.7429 12.2377
225 1 -1.1104 12.434 5.41583 9.44251
226 1 -1.1104 12.4653 11.1028 9.40293
228 1 -1.1104 12.2629 7.93753 12.2119
229 2 2.2208 11.0473 6.76873 8.15563
231 1 -1.1104 12.5493 8.30219 9.562
232 1 -1.1104 9.55755 5.25456 12.2934
233 1 -1.1104 9.56682 11.0276 12.0992
234 2 2.2208 8.17466 3.93368 8.07362
235 2 2.2208 8.2474 9.5681 7.97668
236 1 -1.1104 9.56893 5.21152 9.60079
237 1 -1.1104 9.72673 10.6676 9.22916
238 2 2.2208 8.26096 6.57444 10.9074
240 1 -1.1104 9.62015 8.27653 12.5307
242 1 -1.1104 9.69491 7.99014 9.56463
359 2 2.2208 7.96251 9.42187 13.8375
494 1 -1.1104 12.1366 8.00479 26.3234
486 1 -1.1104 9.4159 5.08768 26.4744
12880 2 2.2208 -0.123982 9.65588 10.6956
123 2 2.2208 5.28427 -4.7117 13.8005
245 2 2.2208 5.21294 1.06539 13.6682
12831 2 2.2208 -0.446768 1.07664 8.04285
130 2 2.2208 2.46527 -1.84685 13.6762
246 2 2.2208 5.35015 -1.67671 16.3633
247 1 -1.1104 0.934265 -6.14716 17.8888
248 1 -1.1104 0.960638 -0.330851 17.7931
250 1 -1.1104 0.953237 -6.05081 15.0163
252 1 -1.1104 1.12904 -0.485799 15.0622
257 1 -1.1104 1.12627 -3.33286 18.0856
259 2 2.2208 5.28835 -4.75968 19.3417
260 2 2.2208 5.34253 0.907445 19.3278
261 1 -1.1104 0.869429 -3.17559 15.1498
264 1 -1.1104 3.75743 -5.98781 18.0802
265 1 -1.1104 3.75763 -0.568572 17.8004
266 2 2.2208 2.44801 -1.95352 19.3486
267 1 -1.1104 3.73355 -6.03012 15.1418
269 1 -1.1104 3.86663 -0.519738 15.0067
271 2 2.2208 2.45322 -4.66365 16.5226
272 2 2.2208 2.44545 0.99702 16.4919
273 1 -1.1104 3.89066 -3.19193 17.8444
274 1 -1.1104 3.74895 -3.21492 14.997
478 1 -1.1104 6.5284 8.15681 26.3971
353 1 -1.1104 3.81187 2.45095 15.1515
263 1 -1.1104 6.62067 -3.06634 15.281
280 1 -1.1104 6.71868 -6.21096 17.981
254 1 -1.1104 6.60441 -5.94315 15.1386
334 1 -1.1104 1.03336 2.40259 15.0814
329 1 -1.1104 1.20505 2.49398 17.8433
354 1 -1.1104 3.96986 2.42516 20.8234
268 1 -1.1104 3.72329 -6.1286 20.9279
152 2 2.2208 10.93 -4.54339 13.843
279 2 2.2208 10.8515 1.09767 13.7145
255 1 -1.1104 6.73989 -0.188717 15.1981
249 1 -1.1104 6.59612 -0.459477 17.9638
258 1 -1.1104 6.54829 -3.25678 17.9244
283 2 2.2208 10.8534 -1.85794 16.5957
284 1 -1.1104 12.3377 -6.0669 17.9762
285 1 -1.1104 12.2237 -0.547474 17.8829
286 1 -1.1104 12.3635 -6.01528 15.1117
288 1 -1.1104 12.3168 -0.316886 15.0993
290 1 -1.1104 12.3131 -3.21196 18.0306
291 2 2.2208 10.9682 -4.5573 19.2691
292 2 2.2208 10.9322 0.997386 19.3069
293 1 -1.1104 12.2079 -3.25055 15.2879
295 1 -1.1104 9.40358 -5.97381 17.9873
296 1 -1.1104 9.40907 -0.577819 18.0479
297 2 2.2208 7.89742 -1.91517 19.3343
298 1 -1.1104 9.72927 -5.90737 15.2536
300 1 -1.1104 9.514 -0.380494 15.0407
302 2 2.2208 8.01203 -4.72111 16.7606
303 2 2.2208 8.14054 1.10009 16.5815
304 1 -1.1104 9.61999 -3.30088 18.1121
305 1 -1.1104 9.42417 -3.16533 15.4861
256 1 -1.1104 6.48129 -0.234507 20.8972
299 1 -1.1104 9.35978 -6.0577 20.7989
282 1 -1.1104 6.72462 -3.15253 20.7104
326 1 -1.1104 6.69913 5.30397 20.7873
365 1 -1.1104 12.3069 5.35652 20.5776
502 1 -1.1104 12.2641 5.14311 23.4286
328 1 -1.1104 6.52149 10.9145 20.7833
313 2 2.2208 2.35353 3.98038 13.7345
314 2 2.2208 2.49205 9.58115 13.5961
487 2 2.2208 7.94821 9.35475 24.9769
351 1 -1.1104 3.91635 2.33528 18.0126
315 2 2.2208 5.25277 3.89188 16.6471
316 2 2.2208 5.18214 9.47959 16.309
317 1 -1.1104 0.886288 5.13209 18.0145
318 1 -1.1104 0.83694 10.9295 17.8403
321 1 -1.1104 0.972933 5.29966 15.1594
323 1 -1.1104 1.03022 10.8471 14.9083
330 1 -1.1104 0.917322 8.10573 18.0177
333 2 2.2208 5.23682 6.69567 19.473
336 1 -1.1104 1.03623 8.18839 15.1391
342 1 -1.1104 3.64424 5.20726 17.9306
343 1 -1.1104 3.91602 10.6875 17.9281
344 2 2.2208 2.41068 3.79913 19.4001
345 2 2.2208 2.52011 9.27209 19.2204
346 1 -1.1104 3.89659 5.31742 15.129
348 1 -1.1104 3.888 10.8318 15.0933
350 2 2.2208 2.39636 6.61195 16.4358
352 1 -1.1104 3.82634 7.88883 17.9798
355 1 -1.1104 3.96245 8.14816 15.0076
320 1 -1.1104 6.71338 10.89 17.778
325 1 -1.1104 6.70439 5.4413 15.288
332 1 -1.1104 6.6306 7.886 18.1299
356 1 -1.1104 3.87569 7.9996 20.7105
324 1 -1.1104 1.06734 10.9153 20.6312
483 1 -1.1104 9.44122 2.5327 23.4452
13020 2 2.2208 -0.368896 6.64334 13.6471
341 1 -1.1104 6.68465 8.17046 20.8858
463 1 -1.1104 6.31455 10.8017 23.6374
386 1 -1.1104 9.61179 2.52815 15.1004
358 2 2.2208 8.16708 3.81609 13.6665
357 2 2.2208 11.0264 6.74241 13.7278
371 1 -1.1104 12.3691 2.58662 15.123
368 1 -1.1104 12.1559 2.48429 17.9813
331 1 -1.1104 6.846 2.24354 17.9497
340 1 -1.1104 6.7574 8.04383 15.3717
338 1 -1.1104 6.65857 2.57823 15.1048
319 1 -1.1104 6.69321 5.05051 18.1181
327 1 -1.1104 6.50398 11.2897 15.0066
384 1 -1.1104 9.50276 2.35414 17.9189
360 2 2.2208 10.8413 3.92231 16.5293
361 2 2.2208 10.7192 9.47226 16.547
362 1 -1.1104 12.2826 5.21313 17.7225
363 1 -1.1104 12.2733 11.0716 17.9876
364 1 -1.1104 12.3512 5.33613 14.9909
366 1 -1.1104 12.3176 10.9008 15.0458
369 1 -1.1104 12.269 8.17918 18.0381
370 2 2.2208 10.8766 6.70757 19.2064
373 1 -1.1104 12.1295 8.14203 15.2237
375 1 -1.1104 9.56495 5.18714 17.8512
376 1 -1.1104 9.50869 10.8851 17.8486
377 2 2.2208 8.20815 3.75655 19.3697
378 2 2.2208 8.01529 9.56055 19.3767
379 1 -1.1104 9.4123 5.33193 15.0701
381 1 -1.1104 9.41896 10.981 15.1233
383 2 2.2208 8.09691 6.6856 16.6525
385 1 -1.1104 9.43577 8.11428 17.9045
388 1 -1.1104 9.44796 7.94912 15.2323
482 1 -1.1104 9.42641 7.98454 23.3934
12830 2 2.2208 -0.416882 -4.53628 8.03354
391 2 2.2208 5.24868 -1.76578 -0.224085
275 1 -1.1104 4.02171 -3.40946 20.8255
253 1 -1.1104 1.01061 -0.558614 20.6845
262 1 -1.1104 1.06786 -3.34838 20.8179
270 1 -1.1104 3.81372 -0.455084 20.5911
251 1 -1.1104 0.895848 -6.12884 20.7322
394 2 2.2208 5.29769 -1.83232 22.1932
395 1 -1.1104 0.926512 -5.90249 23.6164
396 1 -1.1104 0.984545 -0.400688 23.5353
399 1 -1.1104 0.826902 -6.01454 26.4425
400 1 -1.1104 1.09747 -0.427068 26.2552
403 1 -1.1104 0.744586 -3.24161 23.4844
404 2 2.2208 5.18753 -4.54194 24.8819
405 2 2.2208 5.23591 1.03633 25.0085
406 1 -1.1104 1.04175 -3.30961 26.3958
408 1 -1.1104 3.84726 -5.87419 23.7811
409 1 -1.1104 3.91321 -0.502487 23.5859
410 2 2.2208 2.47274 -1.88031 24.9491
411 1 -1.1104 3.62347 -6.08411 26.5885
412 1 -1.1104 4.01644 -0.458669 26.5031
413 2 2.2208 2.36315 -4.7029 22.1416
414 2 2.2208 2.41643 0.912969 21.9593
415 1 -1.1104 3.7659 -3.113 23.5719
416 1 -1.1104 3.89965 -3.23592 26.4076
13157 2 2.2208 -0.298101 6.66379 25.0394
13190 2 2.2208 -0.47405 9.56471 22.1571
401 1 -1.1104 6.60136 -6.12904 26.3306
500 1 -1.1104 12.1952 5.30458 26.3013
398 1 -1.1104 6.74217 -0.437816 23.7819
407 1 -1.1104 6.58778 -3.18932 26.3913
335 1 -1.1104 1.09074 2.39684 20.7746
457 1 -1.1104 1.08085 2.65235 23.6357
503 2 2.2208 10.875 9.60156 22.0889
452 1 -1.1104 6.64855 2.24429 23.7571
289 1 -1.1104 12.3785 -0.377576 20.6917
495 1 -1.1104 12.1919 2.59034 26.2748
281 1 -1.1104 6.62113 -5.94697 20.8162
306 1 -1.1104 9.53979 -3.23516 20.7312
287 1 -1.1104 12.4389 -6.12169 20.7103
397 1 -1.1104 6.49877 -5.9831 23.5696
294 1 -1.1104 12.3003 -3.36468 20.8727
301 1 -1.1104 9.35115 -0.442741 20.8696
402 1 -1.1104 6.68553 -0.497151 26.3754
424 1 -1.1104 6.57972 -3.22986 23.5727
425 2 2.2208 11.032 -1.78174 22.0988
426 1 -1.1104 12.1571 -5.84598 23.4815
427 1 -1.1104 12.2938 -0.37839 23.6351
428 1 -1.1104 12.2366 -5.82942 26.3672
429 1 -1.1104 12.5014 -0.282589 26.1987
430 1 -1.1104 12.278 -3.20344 23.4972
431 2 2.2208 10.8589 -4.5285 24.9572
432 2 2.2208 10.869 1.01661 24.8886
433 1 -1.1104 12.3801 -3.11227 26.4252
434 1 -1.1104 9.21271 -6.0946 23.5956
435 1 -1.1104 9.43023 -0.372126 23.4354
436 2 2.2208 8.02558 -1.83778 24.9768
437 1 -1.1104 9.48362 -6.03494 26.3235
438 1 -1.1104 9.57756 -0.591035 26.3823
439 2 2.2208 8.07645 -4.51046 22.128
440 2 2.2208 7.98719 1.03359 22.1858
441 1 -1.1104 9.42817 -3.15817 23.5847
442 1 -1.1104 9.4697 -3.31349 26.3433
372 1 -1.1104 12.2969 2.51986 20.7871
387 1 -1.1104 9.52742 2.38958 20.7145
481 1 -1.1104 9.56779 2.20764 26.3248
480 1 -1.1104 9.36271 7.99746 26.3108
454 2 2.2208 5.18203 9.44837 -0.243285
451 1 -1.1104 6.61485 7.90648 23.5028
337 1 -1.1104 0.950527 7.9896 20.7958
450 1 -1.1104 6.44093 2.35085 26.3577
322 1 -1.1104 0.955413 5.22681 20.6601
347 1 -1.1104 3.8602 5.25478 20.8442
349 1 -1.1104 3.77002 10.751 20.6606
458 1 -1.1104 6.44495 10.9361 26.7138
464 1 -1.1104 3.65218 2.35167 26.3608
448 1 -1.1104 0.992544 2.37625 26.5512
469 1 -1.1104 3.8137 2.2873 23.5798
447 1 -1.1104 1.05764 8.1306 26.5515
449 2 2.2208 5.21224 6.60783 25.0939
456 1 -1.1104 0.912931 8.12069 23.7244
460 1 -1.1104 1.03807 10.8779 26.3959
461 1 -1.1104 0.974432 5.11244 26.3
462 1 -1.1104 3.73802 7.95301 26.4284
465 1 -1.1104 3.87365 8.07627 23.6679
467 1 -1.1104 0.94987 10.7944 23.4427
468 1 -1.1104 1.10501 5.52408 23.5259
470 2 2.2208 2.38955 6.66244 22.2088
471 1 -1.1104 3.79986 10.8373 26.3056
472 1 -1.1104 3.82932 5.0452 26.6275
473 2 2.2208 2.48065 9.48155 25.0485
474 2 2.2208 5.1842 9.33291 22.1304
475 2 2.2208 2.35197 3.79346 25.1186
476 1 -1.1104 3.64862 10.8641 23.6111
477 2 2.2208 5.30165 3.82226 22.2797
479 1 -1.1104 3.72059 5.21728 23.6539
339 1 -1.1104 6.70313 2.48031 20.8055
459 1 -1.1104 6.51115 5.23292 26.4442
493 2 2.2208 8.02731 6.80054 -0.287132
488 2 2.2208 8.11856 3.70945 25.018
497 1 -1.1104 12.4127 7.9665 23.6794
466 1 -1.1104 6.61344 5.16996 23.701
504 2 2.2208 10.9715 3.85045 22.0184
380 1 -1.1104 9.3672 5.2772 20.5451
367 1 -1.1104 12.2406 10.9361 20.7617
485 1 -1.1104 9.32532 10.7878 26.4001
484 2 2.2208 8.02457 6.52181 22.2202
13093 2 2.2208 13.577 -4.62436 -0.19838
12759 2 2.2208 -0.32913 9.38635 5.18341
12911 2 2.2208 -0.312291 3.87532 10.951
12791 2 2.2208 13.5373 -4.74572 11.027
12691 2 2.2208 -0.292465 -1.77577 5.10048
13016 2 2.2208 13.6671 6.66748 16.4235
13191 2 2.2208 -0.282494 9.41933 27.8037
13155 2 2.2208 13.7017 9.50378 24.7962
308 2 2.2208 13.6007 -4.6022 16.5161
13125 2 2.2208 -0.400251 -4.54815 25.0906
13014 2 2.2208 13.6437 3.81891 19.2385
165 2 2.2208 13.6877 -1.82909 8.06492
13652 2 2.2208 13.7266 12.1481 22.1354
527 2 2.2208 2.33571 12.1939 5.27098
775 2 2.2208 2.50938 12.273 16.593
912 2 2.2208 2.51786 12.2078 22.0899
13685 2 2.2208 -0.340504 12.1945 24.95
760 2 2.2208 5.23916 12.2452 19.3676
890 2 2.2208 2.37533 12.1614 -0.230691
446 2 2.2208 10.7559 -7.21047 22.152
507 2 2.2208 5.28688 15.218 5.36381
508 2 2.2208 5.25299 20.8507 5.33803
509 1 -1.1104 1.17876 16.4872 1.11381
511 1 -1.1104 1.11334 16.4702 4.01231
513 1 -1.1104 1.06413 13.7209 1.12172
514 1 -1.1104 0.925714 19.3421 1.081
518 2 2.2208 5.21903 18.0107 2.50783
519 1 -1.1104 0.986746 13.7793 3.67202
520 1 -1.1104 1.08173 19.2864 3.88931
523 1 -1.1104 3.86226 16.6333 1.07059
524 2 2.2208 2.3995 15.0299 2.5038
525 2 2.2208 2.36869 20.6016 2.49224
526 1 -1.1104 3.96631 16.688 3.86096
528 2 2.2208 2.46107 17.8907 5.28986
529 1 -1.1104 3.76506 13.7239 0.92308
530 1 -1.1104 3.88001 19.2296 1.10119
531 1 -1.1104 3.67818 13.757 3.94748
532 1 -1.1104 3.78585 19.4867 3.95955
13494 2 2.2208 13.6658 15.1668 13.8357
936 2 2.2208 7.98565 12.2884 22.1551
891 2 2.2208 2.37732 17.7802 -0.438188
889 2 2.2208 5.3169 20.6381 -0.235751
13275 2 2.2208 13.7492 23.5863 5.38116
510 1 -1.1104 6.58263 16.5764 1.07894
521 1 -1.1104 6.41544 13.9462 3.60054
515 1 -1.1104 6.52544 13.6626 0.904775
615 1 -1.1104 3.8697 19.3782 6.59841
614 1 -1.1104 3.80647 13.6955 6.5933
613 1 -1.1104 3.99004 16.6033 6.81602
996 1 -1.1104 12.333 22.2706 23.5416
13750 2 2.2208 -0.420436 29.2777 24.9253
877 1 -1.1104 9.19883 22.2529 20.8111
516 1 -1.1104 6.68988 19.2817 1.17492
522 1 -1.1104 6.61481 19.3476 3.98952
512 1 -1.1104 6.68425 16.6254 4.1157
533 2 2.2208 10.9094 15.0461 5.27085
534 2 2.2208 10.8028 20.7807 5.48919
535 1 -1.1104 12.257 16.5541 0.952821
536 1 -1.1104 12.0973 16.3222 3.87276
537 1 -1.1104 12.2544 13.7641 0.926901
538 1 -1.1104 12.1244 19.4292 1.35615
540 2 2.2208 10.7459 18.0136 2.62622
541 1 -1.1104 12.0733 13.6157 3.67087
542 1 -1.1104 12.2082 19.2819 4.09037
543 1 -1.1104 9.54761 16.5669 1.05479
544 2 2.2208 7.97909 15.1304 2.44621
545 2 2.2208 7.95174 20.6395 2.52081
546 1 -1.1104 9.35099 16.3323 4.12382
548 2 2.2208 8.10973 17.9434 5.42384
549 1 -1.1104 9.57915 13.7869 0.960482
550 1 -1.1104 9.32813 19.2317 1.18702
551 1 -1.1104 9.21355 13.6461 3.84517
552 1 -1.1104 9.34064 19.3553 4.00318
919 2 2.2208 10.6853 20.6809 -0.205259
13574 2 2.2208 13.6549 26.2887 13.6681
918 2 2.2208 10.8816 15.1874 -0.404136
921 2 2.2208 7.96179 17.9171 27.7309
977 1 -1.1104 9.48165 24.9428 23.9035
991 1 -1.1104 12.3608 30.5695 23.6355
981 1 -1.1104 9.4788 22.0459 26.3071
558 1 -1.1104 0.976037 22.0914 3.95533
572 1 -1.1104 3.94825 21.9517 1.05773
554 1 -1.1104 0.967815 22.0525 1.27884
553 2 2.2208 5.28984 26.5209 5.23994
555 1 -1.1104 1.10827 27.7237 1.27154
559 1 -1.1104 1.08626 27.7368 4.00292
562 1 -1.1104 1.15002 25.0285 1.11837
563 1 -1.1104 1.08875 30.6628 1.18791
566 2 2.2208 5.31312 23.4945 2.55923
567 2 2.2208 5.17586 29.1588 2.32118
568 1 -1.1104 1.38417 24.922 3.89672
569 1 -1.1104 1.16932 30.615 3.83454
573 1 -1.1104 3.87126 27.5157 1.16888
574 2 2.2208 2.54277 26.2613 2.58812
575 1 -1.1104 3.87752 22.1813 3.89157
576 1 -1.1104 3.85997 27.8372 4.05044
577 2 2.2208 2.58943 23.5405 5.38278
579 2 2.2208 2.496 29.2874 5.40605
580 1 -1.1104 4.08032 24.8714 0.9261
581 1 -1.1104 3.83675 30.5626 0.957067
582 1 -1.1104 4.09761 24.9001 3.95548
583 1 -1.1104 3.88485 30.5833 3.88224
578 2 2.2208 2.31377 29.067 -0.229092
564 1 -1.1104 6.84535 24.8046 1.11283
943 2 2.2208 2.45923 23.4617 -0.470243
942 2 2.2208 5.28108 26.2498 27.7365
570 1 -1.1104 6.66601 25.109 3.77196
994 1 -1.1104 12.5048 22.0829 26.4094
668 1 -1.1104 1.10889 22.1349 6.82455
672 1 -1.1104 1.21137 25.0624 6.73275
669 1 -1.1104 1.01315 27.8197 6.66891
673 1 -1.1104 1.15956 30.6909 6.80274
13686 2 2.2208 -0.357118 15.1238 22.1557
825 1 -1.1104 6.47129 22.1764 20.6627
571 1 -1.1104 6.62408 30.507 3.96084
565 1 -1.1104 6.62814 30.6924 0.98002
561 1 -1.1104 6.62764 27.8555 3.86117
560 1 -1.1104 6.7696 22.0834 4.04683
557 1 -1.1104 6.63822 27.7784 1.10314
556 1 -1.1104 6.73282 22.1865 1.06956
587 1 -1.1104 12.2817 22.0487 4.03234
585 1 -1.1104 12.3774 22.0946 1.07876
595 1 -1.1104 9.43508 22.0015 1.1102
598 1 -1.1104 9.54647 22.1153 3.9434
584 2 2.2208 10.7993 26.4154 5.28086
586 1 -1.1104 12.096 27.6283 1.23755
588 1 -1.1104 12.1749 27.7166 4.02545
589 1 -1.1104 12.4818 25.0592 1.05003
590 1 -1.1104 12.3203 30.2991 0.935356
591 2 2.2208 10.8545 23.6149 2.60355
592 2 2.2208 10.9047 29.1798 2.4405
593 1 -1.1104 12.1723 24.9615 3.99536
594 1 -1.1104 12.2928 30.6911 3.65732
596 1 -1.1104 9.3317 27.8529 1.10789
597 2 2.2208 8.02421 26.5645 2.49256
599 1 -1.1104 9.49975 27.8931 3.76431
600 2 2.2208 8.00179 23.7327 5.33514
602 2 2.2208 8.03372 29.2603 5.22035
603 1 -1.1104 9.57841 25.01 1.19774
604 1 -1.1104 9.42518 30.8951 1.07662
605 1 -1.1104 9.29628 25.0546 4.12018
606 1 -1.1104 9.57039 30.6618 3.83128
985 2 2.2208 8.08667 23.5717 -0.248419
984 2 2.2208 10.8443 26.3221 27.8307
715 1 -1.1104 12.2624 30.5882 6.54785
716 1 -1.1104 9.31601 22.2336 6.80645
601 2 2.2208 8.07757 29.1915 -0.273057
959 1 -1.1104 6.63894 27.6314 23.4111
607 1 -1.1104 1.31419 16.5883 6.80708
609 1 -1.1104 0.984221 13.669 6.65554
610 1 -1.1104 1.01286 19.477 6.76248
616 2 2.2208 5.17103 15.0018 10.8105
617 2 2.2208 5.33133 20.9183 10.9116
618 1 -1.1104 1.04515 16.6309 12.4159
620 1 -1.1104 1.0877 16.6132 9.49314
622 1 -1.1104 1.09516 13.8285 12.2243
623 1 -1.1104 1.07941 19.253 12.3271
627 2 2.2208 5.36 18.0666 8.17028
628 1 -1.1104 0.986409 13.8555 9.48371
629 1 -1.1104 1.08572 19.3721 9.51498
632 1 -1.1104 3.82977 16.4273 12.3228
633 2 2.2208 2.59143 15.2608 8.11114
634 2 2.2208 2.43215 20.7232 8.11667
635 1 -1.1104 3.80482 16.4716 9.6569
637 2 2.2208 2.43996 17.8331 10.9563
638 1 -1.1104 3.87863 13.6376 12.1609
639 1 -1.1104 3.88517 19.1452 12.2293
640 1 -1.1104 3.74457 13.7999 9.35218
641 1 -1.1104 3.91792 19.3802 9.55165
547 2 2.2208 7.91239 12.252 5.10311
625 1 -1.1104 6.51532 19.5036 12.4218
608 1 -1.1104 6.8223 16.4342 6.81596
631 1 -1.1104 6.65731 19.3952 9.5503
630 1 -1.1104 6.58662 13.6323 9.34398
619 1 -1.1104 6.72111 16.4598 12.3403
621 1 -1.1104 6.53335 16.4941 9.55339
683 1 -1.1104 6.65432 22.4108 12.4795
745 2 2.2208 5.20462 17.9852 13.7641
13305 2 2.2208 -0.313517 26.4664 5.3741
646 1 -1.1104 9.51492 13.869 6.70839
611 1 -1.1104 6.7662 13.6353 6.35857
13243 2 2.2208 -0.175042 15.0969 5.37599
642 1 -1.1104 12.4117 16.2892 6.70389
647 1 -1.1104 9.49511 19.4365 6.75642
612 1 -1.1104 6.7207 19.2747 6.69924
644 1 -1.1104 12.2187 19.1253 6.73988
645 1 -1.1104 9.60201 16.5866 6.86632
643 1 -1.1104 12.3231 13.6745 6.55783
624 1 -1.1104 6.79436 13.7025 12.1584
648 2 2.2208 10.7217 15.1386 10.8515
649 2 2.2208 10.7837 20.6907 11.0553
650 1 -1.1104 12.1286 16.5137 12.2299
651 1 -1.1104 12.1793 16.4418 9.53299
652 1 -1.1104 12.1955 13.6503 12.251
653 1 -1.1104 12.2987 19.4328 12.2764
655 2 2.2208 10.8355 18.0358 8.26304
656 1 -1.1104 12.1955 13.8039 9.47285
657 1 -1.1104 12.2265 19.3658 9.44606
658 1 -1.1104 9.44088 16.6974 12.4095
659 2 2.2208 8.15832 15.2018 8.08478
660 2 2.2208 7.99233 20.8392 8.11013
661 1 -1.1104 9.35545 16.5717 9.62797
663 2 2.2208 8.08857 18.0137 11.0191
664 1 -1.1104 9.50719 13.6937 12.3005
665 1 -1.1104 9.53871 19.2767 12.4747
666 1 -1.1104 9.51353 13.6561 9.46366
667 1 -1.1104 9.30299 19.5209 9.53997
13306 2 2.2208 -0.336249 23.4568 2.40214
997 2 2.2208 10.8848 26.2694 22.2246
969 1 -1.1104 6.87467 24.8943 26.4467
968 1 -1.1104 6.6174 30.7819 26.4433
678 1 -1.1104 3.98728 25.1345 6.74963
676 1 -1.1104 3.791 22.1916 6.62514
677 1 -1.1104 3.78446 27.8664 6.74792
679 1 -1.1104 3.97376 30.7163 6.72256
681 1 -1.1104 1.0823 22.0768 12.6532
700 1 -1.1104 3.83878 22.2984 12.3878
685 1 -1.1104 1.02713 22.2841 9.68919
704 1 -1.1104 3.94113 21.9979 9.36872
680 2 2.2208 5.2242 26.5675 10.7817
682 1 -1.1104 0.97991 27.8933 12.3191
686 1 -1.1104 1.21017 27.8045 9.60588
689 1 -1.1104 1.0521 24.8304 12.3873
690 1 -1.1104 0.926261 30.8043 12.5154
693 2 2.2208 5.12791 23.5586 8.2866
694 2 2.2208 5.34721 29.3845 8.11256
696 1 -1.1104 0.898336 25.0058 9.43721
697 1 -1.1104 0.986131 30.6576 9.58841
701 1 -1.1104 3.86146 27.7378 12.1708
702 2 2.2208 2.51584 26.4885 8.01272
705 1 -1.1104 3.88124 28.0199 9.35152
706 2 2.2208 2.3392 23.6341 10.9875
707 2 2.2208 2.35126 29.1966 10.9521
708 1 -1.1104 3.78363 24.858 12.533
709 1 -1.1104 3.72143 30.599 12.1739
710 1 -1.1104 3.65338 24.8389 9.56691
711 1 -1.1104 3.81719 30.8278 9.4391
674 1 -1.1104 6.51177 25.0471 6.60675
691 1 -1.1104 6.4935 25.1689 12.28
698 1 -1.1104 6.5566 25.013 9.57034
684 1 -1.1104 6.59712 27.9273 12.19
976 1 -1.1104 9.40663 30.6753 23.5856
814 2 2.2208 5.15589 23.5114 13.7966
703 2 2.2208 2.47437 26.4201 13.6556
979 2 2.2208 8.00533 23.7044 22.1705
13572 2 2.2208 13.7134 28.9663 16.4607
714 1 -1.1104 12.2033 24.8735 6.67746
699 1 -1.1104 6.67213 30.5463 9.68176
671 1 -1.1104 6.71663 27.9695 6.66239
712 1 -1.1104 12.2585 22.1121 6.83832
675 1 -1.1104 6.68853 30.6602 6.69491
713 1 -1.1104 12.2808 27.7518 6.74811
717 1 -1.1104 9.46224 27.8734 6.65024
719 1 -1.1104 9.43749 30.6361 6.62075
718 1 -1.1104 9.39046 24.9844 6.59146
670 1 -1.1104 6.61769 22.1828 6.75177
688 1 -1.1104 6.56267 27.7959 9.32272
692 1 -1.1104 6.58668 30.7058 12.345
687 1 -1.1104 6.75277 22.3257 9.6781
736 1 -1.1104 9.69321 22.4114 9.61058
721 1 -1.1104 12.1515 22.1891 12.5809
732 1 -1.1104 9.419 22.0397 12.3076
723 1 -1.1104 12.2707 22.1747 9.58774
720 2 2.2208 10.7807 26.3417 10.9087
722 1 -1.1104 12.2877 27.8368 12.4034
724 1 -1.1104 12.2968 27.9859 9.58144
725 1 -1.1104 12.2586 24.9045 12.3065
726 1 -1.1104 12.2544 30.613 12.2991
727 2 2.2208 10.7844 23.4825 8.11004
728 2 2.2208 10.8693 29.2696 8.03894
730 1 -1.1104 12.1714 25.0461 9.61964
731 1 -1.1104 12.3692 30.7535 9.44103
733 1 -1.1104 9.43179 27.8514 12.426
734 2 2.2208 7.9606 26.3768 8.06667
737 1 -1.1104 9.47943 27.7841 9.47241
738 2 2.2208 8.02075 23.6169 11.0752
739 2 2.2208 8.0838 29.2932 10.9794
740 1 -1.1104 9.35008 25.0568 12.1543
741 1 -1.1104 9.49775 30.5977 12.3118
742 1 -1.1104 9.31291 25.0328 9.58241
743 1 -1.1104 9.47217 30.6968 9.6041
978 2 2.2208 8.02057 29.2564 22.0328
995 1 -1.1104 12.2748 27.6952 23.5524
746 2 2.2208 2.41345 15.2696 13.7598
747 2 2.2208 2.46541 20.687 13.7423
748 2 2.2208 5.10278 15.1183 16.6944
749 2 2.2208 5.33465 20.8614 16.5889
750 1 -1.1104 1.05689 16.6035 18.0205
752 1 -1.1104 0.973558 16.5952 15.2133
756 1 -1.1104 1.07803 13.6648 18.0299
757 1 -1.1104 1.02648 19.3957 18.0311
761 2 2.2208 5.34934 17.9608 19.2884
762 1 -1.1104 1.04493 13.6636 15.1726
764 1 -1.1104 0.973173 19.4647 15.2554
770 1 -1.1104 3.73014 16.4732 17.8241
771 2 2.2208 2.44458 15.1477 19.2857
772 2 2.2208 2.46295 20.8155 19.3686
773 1 -1.1104 3.70039 16.7383 15.1777
776 2 2.2208 2.32211 18.0518 16.5664
777 1 -1.1104 3.91952 13.6433 17.989