ITEM: TIMESTEP
20000
ITEM: NUMBER OF ATOMS
27000
ITEM: BOX BOUNDS pp pp pp
-3.8577752299760432e-01 2.7725777522997735e+01
-7.0228827179423163e+00 4.9914288271794032e+02
-4.0145345054175924e-01 2.7741453450541613e+01
ITEM: ATOMS id type q x y z
1 2 2.2208 5.21276 -1.5347 5.32614
2 1 -1.1104 1.13891 -5.85366 0.938348
3 1 -1.1104 0.837522 -0.245959 1.07777
6 1 -1.1104 1.00955 -5.75536 3.83937
7 1 -1.1104 0.920275 -0.180057 3.77992
10 1 -1.1104 0.875845 -3.00299 1.033
12 2 2.2208 5.28337 -4.29393 2.47519
13 2 2.2208 5.15332 1.10129 2.46848
14 1 -1.1104 1.00237 -3.00549 3.70684
16 1 -1.1104 3.80876 -5.58474 1.07754
17 1 -1.1104 3.75268 -0.147058 1.04921
18 2 2.2208 2.32534 -1.5785 2.47247
19 1 -1.1104 3.76256 -5.80819 3.9358
20 1 -1.1104 3.78867 -0.335109 3.90858
21 2 2.2208 2.43435 -4.40532 5.24947
22 2 2.2208 2.38262 1.19704 5.11694
23 1 -1.1104 3.8149 -2.84148 1.07614
24 1 -1.1104 3.92933 -2.96493 4.02558
392 2 2.2208 2.33484 -4.25976 -0.416162
391 2 2.2208 5.13536 -1.66387 -0.283768
243 2 2.2208 13.5217 6.95328 11.0072
12975 2 2.2208 -0.292034 1.26814 13.6562
9 1 -1.1104 6.63746 -0.121398 3.75499
4 1 -1.1104 6.61767 -5.66932 1.19528
15 1 -1.1104 6.63115 -2.8835 3.92935
77 1 -1.1104 3.62176 2.51258 3.97164
75 1 -1.1104 3.63225 2.52937 1.1415
102 1 -1.1104 0.970787 -5.7217 6.74313
101 2 2.2208 13.6956 4.25006 2.60449
5 1 -1.1104 6.6827 -0.329865 1.08845
11 1 -1.1104 6.6459 -3.05255 1.1879
8 1 -1.1104 6.38311 -5.78045 4.04577
27 2 2.2208 10.871 -1.56508 5.17925
28 1 -1.1104 12.2451 -5.84152 0.92947
29 1 -1.1104 12.234 -0.0358485 1.04453
30 1 -1.1104 12.3492 -5.72968 3.65633
31 1 -1.1104 12.3152 0.0337215 3.81177
32 1 -1.1104 12.3016 -3.0099 1.15554
33 2 2.2208 10.7764 -4.4706 2.28907
34 2 2.2208 10.8436 1.2923 2.4255
35 1 -1.1104 12.2549 -2.89842 3.80685
36 1 -1.1104 9.38523 -5.81943 0.917103
37 1 -1.1104 9.50979 -0.0492616 1.01413
38 2 2.2208 7.93131 -1.60051 2.56705
39 1 -1.1104 9.29151 -5.83997 4.0466
40 1 -1.1104 9.57612 -0.0503418 3.83456
41 2 2.2208 7.95721 -4.36785 5.31069
42 2 2.2208 8.08692 1.29701 5.18403
43 1 -1.1104 9.48002 -2.81287 1.11714
44 1 -1.1104 9.40151 -2.86336 4.01343
422 2 2.2208 8.1225 -4.28371 -0.21128
141 1 -1.1104 12.2566 -3.00625 6.55984
421 2 2.2208 10.7807 -1.45617 -0.293238
423 2 2.2208 7.95704 1.23397 27.8596
480 1 -1.1104 9.51204 8.39974 26.3678
61 1 -1.1104 6.54421 2.59982 0.975242
104 1 -1.1104 6.53953 -6.03753 7.08067
64 1 -1.1104 0.916706 2.78437 3.82935
59 1 -1.1104 0.958337 2.75859 0.963295
49 2 2.2208 5.21353 3.90043 5.33363
50 2 2.2208 5.25484 9.72888 5.34577
51 1 -1.1104 1.24061 5.65201 1.12006
52 1 -1.1104 1.20647 11.2161 1.04181
55 1 -1.1104 1.02353 5.54845 3.85211
56 1 -1.1104 0.963293 11.0075 3.74228
60 1 -1.1104 1.07852 8.34861 1.25333
63 2 2.2208 5.38092 6.88411 2.42232
65 1 -1.1104 1.16343 8.30292 3.72855
68 1 -1.1104 4.00143 5.51045 1.05298
69 1 -1.1104 3.99799 11.2234 0.910402
70 2 2.2208 2.40663 4.02502 2.52939
71 2 2.2208 2.45176 9.81489 2.36855
72 1 -1.1104 3.75175 5.42782 3.82156
73 1 -1.1104 3.66387 11.2603 3.78482
74 2 2.2208 2.42715 6.92649 5.17382
76 1 -1.1104 3.7914 8.38715 1.18893
78 1 -1.1104 4.03675 8.28834 3.99433
454 2 2.2208 5.36647 9.64664 -0.450183
453 2 2.2208 5.16898 3.96961 -0.240135
53 1 -1.1104 6.86284 5.55254 1.04249
62 1 -1.1104 6.71818 8.28481 1.021
67 1 -1.1104 6.77619 8.20809 3.84804
57 1 -1.1104 6.60943 5.37717 3.89058
177 1 -1.1104 6.80053 2.79756 6.76684
505 2 2.2208 13.4988 4.22842 25.0851
99 1 -1.1104 9.29705 2.61324 3.69313
85 1 -1.1104 12.2942 2.76304 1.2538
54 1 -1.1104 6.5976 11.0871 0.842322
66 1 -1.1104 6.5347 2.69939 3.84965
58 1 -1.1104 6.55348 11.0869 3.68864
97 1 -1.1104 9.37685 2.81803 1.02752
88 1 -1.1104 12.0596 2.74727 3.86548
79 2 2.2208 10.9006 4.11262 5.30083
80 2 2.2208 10.9476 9.71355 5.11505
81 1 -1.1104 12.5015 5.54854 1.00812
82 1 -1.1104 12.2989 11.1389 1.12325
83 1 -1.1104 12.2949 5.52142 3.96589
84 1 -1.1104 12.25 11.1676 4.03751
86 1 -1.1104 12.394 8.51063 1.18795
87 2 2.2208 10.9691 6.8833 2.45831
89 1 -1.1104 12.4582 8.39582 3.89202
90 1 -1.1104 9.68112 5.54327 1.00047
91 1 -1.1104 9.58843 10.957 1.00599
92 2 2.2208 8.04133 4.04939 2.49101
93 2 2.2208 8.11687 9.66984 2.44506
94 1 -1.1104 9.49655 5.4954 3.94574
95 1 -1.1104 9.54226 11.1957 3.75569
96 2 2.2208 8.08823 6.89178 5.31971
98 1 -1.1104 9.49006 8.1174 0.969469
100 1 -1.1104 9.63261 8.29505 3.92295
492 2 2.2208 10.9993 9.65447 27.8007
218 1 -1.1104 9.44976 10.9329 6.50727
491 2 2.2208 10.9015 4.11611 -0.374362
12831 2 2.2208 -0.260816 1.14967 8.11693
501 1 -1.1104 12.2873 11.2319 23.3908
103 1 -1.1104 1.17769 -0.133686 6.62854
106 1 -1.1104 1.09437 -2.77721 6.46762
108 1 -1.1104 3.84127 -5.82271 6.6758
374 1 -1.1104 12.3845 8.41329 20.8097
380 1 -1.1104 9.57059 5.58161 20.8098
175 1 -1.1104 1.13278 2.64626 6.7843
12830 2 2.2208 -0.510811 -4.34371 7.98445
110 1 -1.1104 3.7269 -2.93516 6.92886
109 1 -1.1104 3.87893 0.148356 6.51494
111 2 2.2208 5.12718 -1.56311 10.8275
112 1 -1.1104 1.21329 -5.70314 12.4389
113 1 -1.1104 1.2579 -0.17366 12.3208
116 1 -1.1104 1.27407 -5.80557 9.68366
117 1 -1.1104 1.05306 -0.367227 9.53456
120 1 -1.1104 0.993863 -2.98006 12.0716
122 2 2.2208 5.15541 -4.37664 8.18464
124 2 2.2208 5.30612 1.34234 8.1079
125 1 -1.1104 1.11044 -3.19173 9.13799
127 1 -1.1104 4.07117 -5.64665 12.3954
128 1 -1.1104 3.92071 -0.183377 12.2757
129 2 2.2208 2.44601 -1.5495 8.12013
131 1 -1.1104 3.83301 -5.5644 9.58288
132 1 -1.1104 3.91861 -0.174367 9.18553
133 2 2.2208 2.48416 -4.36621 11.0001
134 2 2.2208 2.60717 1.30602 10.8217
135 1 -1.1104 3.77701 -2.92852 12.5039
136 1 -1.1104 3.86895 -3.02163 9.70839
118 1 -1.1104 6.56338 -5.86429 9.62857
193 1 -1.1104 1.05104 2.76743 12.3138
105 1 -1.1104 6.6555 -0.173221 6.4391
121 1 -1.1104 6.60797 -2.9068 12.3265
181 1 -1.1104 3.88217 2.76009 6.72983
245 2 2.2208 5.21941 1.36637 13.9066
390 2 2.2208 13.6592 3.94784 13.7558
140 1 -1.1104 12.2342 -0.187715 6.59405
219 1 -1.1104 9.55103 2.41294 6.55168
142 1 -1.1104 9.27186 -5.83993 6.64852
139 1 -1.1104 12.1707 -5.79715 6.64584
115 1 -1.1104 6.56058 -0.238978 12.1026
144 1 -1.1104 9.4622 -3.06179 6.7527
143 1 -1.1104 9.3083 -0.255984 6.46942
13016 2 2.2208 13.7241 6.63652 16.4242
107 1 -1.1104 6.6219 -3.05872 6.55481
119 1 -1.1104 6.78205 -0.27177 9.21149
114 1 -1.1104 6.93485 -5.76352 12.4974
126 1 -1.1104 6.64719 -3.02119 9.60535
145 2 2.2208 11.0091 -1.60133 10.9356
146 1 -1.1104 12.3178 -5.5852 12.4093
147 1 -1.1104 12.3251 -0.17039 12.3294
148 1 -1.1104 12.3456 -5.75894 9.64211
149 1 -1.1104 12.2787 -0.106555 9.44002
150 1 -1.1104 12.1722 -3.01489 12.3902
151 2 2.2208 10.9962 -4.37754 7.9986
153 2 2.2208 10.9096 1.3123 8.01655
154 1 -1.1104 12.3461 -3.08289 9.34287
155 1 -1.1104 9.67449 -5.89475 12.319
156 1 -1.1104 9.604 -0.164964 12.3094
157 2 2.2208 8.14883 -1.6525 7.97177
159 1 -1.1104 9.4638 -5.89673 9.56234
160 1 -1.1104 9.55455 -0.445261 9.4981
161 2 2.2208 8.15723 -4.32372 11.0242
162 2 2.2208 8.01047 1.21931 10.8777
163 1 -1.1104 9.41843 -3.02265 12.3561
164 1 -1.1104 9.78218 -3.32289 9.67837
195 1 -1.1104 6.52858 2.69235 12.3661
215 1 -1.1104 12.4301 2.75749 6.6877
241 1 -1.1104 9.56985 2.73397 9.48628
200 1 -1.1104 6.57963 2.68306 9.57346
239 1 -1.1104 9.27331 2.50068 12.3188
12980 2 2.2208 13.6959 9.57494 19.3618
198 1 -1.1104 1.16513 2.62773 9.58614
179 1 -1.1104 3.80578 5.42522 6.57872
172 1 -1.1104 0.827395 11.161 6.51869
171 1 -1.1104 0.969907 5.38982 6.75141
180 1 -1.1104 3.73643 11.1666 6.69197
176 1 -1.1104 0.93106 8.31632 6.63583
182 1 -1.1104 3.74092 8.08843 6.52828
211 1 -1.1104 3.88185 2.62834 9.48775
209 1 -1.1104 3.8592 2.55451 12.3748
183 2 2.2208 5.33061 4.02743 10.9653
184 2 2.2208 5.26495 9.76286 10.8393
185 1 -1.1104 0.881728 5.47669 12.2637
186 1 -1.1104 0.882561 11.1156 12.0731
189 1 -1.1104 1.15159 5.57276 9.36829
190 1 -1.1104 1.18776 10.9871 9.49148
194 1 -1.1104 1.16136 8.27247 12.4472
197 2 2.2208 5.19801 6.8827 7.98736
199 1 -1.1104 0.883853 8.17487 9.43638
202 1 -1.1104 3.90818 5.41423 12.449
203 1 -1.1104 3.92087 11.037 12.3513
204 2 2.2208 2.48949 4.00545 8.08811
205 2 2.2208 2.44147 9.67846 7.95641
206 1 -1.1104 3.97294 5.56819 9.41566
207 1 -1.1104 3.99425 11.2602 9.55498
208 2 2.2208 2.3773 6.97979 10.7877
210 1 -1.1104 3.79083 8.50786 12.3393
212 1 -1.1104 3.75982 8.53367 9.39066
389 1 -1.1104 9.48763 8.2747 20.7709
178 1 -1.1104 6.66449 8.24826 6.66577
188 1 -1.1104 6.62346 11.2356 12.3254
201 1 -1.1104 6.58073 8.06152 9.45162
191 1 -1.1104 6.65442 5.50623 9.51422
187 1 -1.1104 6.87527 5.63115 12.4623
192 1 -1.1104 6.74119 10.9903 9.50533
341 1 -1.1104 6.62055 7.94139 20.6448
230 1 -1.1104 12.3239 2.61664 9.55235
173 1 -1.1104 6.60867 5.41444 6.57918
174 1 -1.1104 6.48513 11.1273 6.51791
213 1 -1.1104 12.2695 5.55068 6.78405
216 1 -1.1104 12.3703 8.46739 6.63612
214 1 -1.1104 12.3898 11.1417 6.74881
220 1 -1.1104 9.32078 8.0777 6.83161
196 1 -1.1104 6.62011 8.4699 12.4379
227 1 -1.1104 12.2884 2.65778 12.2659
217 1 -1.1104 9.59945 5.53199 6.7934
221 2 2.2208 10.9382 4.01806 10.9927
222 2 2.2208 10.9982 9.88179 10.9505
223 1 -1.1104 12.2915 5.48909 12.2489
224 1 -1.1104 12.5033 11.1371 12.3548
225 1 -1.1104 12.2717 5.62146 9.60867
226 1 -1.1104 12.3804 11.0703 9.49712
228 1 -1.1104 12.3082 8.40425 12.3898
229 2 2.2208 10.8124 6.86613 8.1243
231 1 -1.1104 12.1553 8.37957 9.54058
232 1 -1.1104 9.51173 5.33773 12.2755
233 1 -1.1104 9.61489 11.0732 12.1886
234 2 2.2208 8.1161 4.22712 8.15397
235 2 2.2208 8.16648 9.59632 8.20495
236 1 -1.1104 9.55872 5.51981 9.53398
237 1 -1.1104 9.61943 11.217 9.44995
238 2 2.2208 8.00424 6.96677 10.942
240 1 -1.1104 9.27718 8.24456 12.3197
242 1 -1.1104 9.50696 8.26279 9.65618
365 1 -1.1104 12.2885 5.56639 20.7603
13017 2 2.2208 -0.325989 4.05816 16.4297
130 2 2.2208 2.51891 -1.50563 13.6907
13158 2 2.2208 -0.388311 4.15662 -0.384329
123 2 2.2208 5.37368 -4.30475 13.7748
246 2 2.2208 5.22412 -1.65365 16.5348
247 1 -1.1104 0.920209 -5.59573 17.9487
248 1 -1.1104 0.849177 -0.166844 17.8724
250 1 -1.1104 0.854235 -5.70103 15.2009
252 1 -1.1104 1.01834 -0.121233 15.0689
257 1 -1.1104 0.888695 -2.72635 18.1676
259 2 2.2208 5.27231 -4.30659 19.3421
260 2 2.2208 5.12968 1.16505 19.258
261 1 -1.1104 0.940404 -2.75818 15.0527
264 1 -1.1104 3.74823 -5.88801 17.9246
265 1 -1.1104 3.64962 -0.166058 17.9955
266 2 2.2208 2.22928 -1.31056 19.3121
267 1 -1.1104 3.65857 -5.70662 15.298
269 1 -1.1104 3.79948 -0.0332185 15.285
271 2 2.2208 2.37793 -4.24774 16.5846
272 2 2.2208 2.29661 1.20683 16.4659
273 1 -1.1104 3.83928 -2.93185 17.7625
274 1 -1.1104 3.80259 -2.86734 15.1214
13091 2 2.2208 13.606 -4.5022 22.1055
466 1 -1.1104 6.65007 5.5591 23.5373
263 1 -1.1104 6.78683 -3.0878 15.2129
280 1 -1.1104 6.54789 -5.76745 18.1638
255 1 -1.1104 6.68183 -0.0603817 14.9263
258 1 -1.1104 6.72942 -2.93711 17.9883
275 1 -1.1104 3.72803 -2.93104 20.6363
309 2 2.2208 13.5995 1.21241 16.696
486 1 -1.1104 9.44343 5.65721 26.1722
152 2 2.2208 10.7338 -4.35513 13.7995
279 2 2.2208 10.9732 1.22015 13.5995
158 2 2.2208 8.03781 -1.57302 13.659
254 1 -1.1104 6.56546 -5.62134 15.1703
249 1 -1.1104 6.35427 -0.132341 17.8437
283 2 2.2208 10.7894 -1.64654 16.6866
284 1 -1.1104 12.3196 -5.69619 17.8943
285 1 -1.1104 12.3088 -0.175319 18.0744
286 1 -1.1104 12.1266 -5.97377 15.0648
288 1 -1.1104 11.9868 -0.281801 15.0545
290 1 -1.1104 12.3983 -2.90124 17.9969
291 2 2.2208 10.8173 -4.40741 19.4481
292 2 2.2208 10.7953 1.32295 19.4582
293 1 -1.1104 12.2724 -3.16481 15.1472
295 1 -1.1104 9.299 -5.74589 17.9979
296 1 -1.1104 9.33256 -0.0416962 17.8581
297 2 2.2208 7.98765 -1.49357 19.4233
298 1 -1.1104 9.3114 -6.13295 15.2647
300 1 -1.1104 9.26177 -0.531664 15.0324
302 2 2.2208 8.04813 -4.4914 16.5967
303 2 2.2208 8.03489 1.28623 16.4794
304 1 -1.1104 9.44486 -2.94041 17.9678
305 1 -1.1104 9.41303 -3.23514 15.2136
294 1 -1.1104 12.2018 -2.87049 20.7402
371 1 -1.1104 12.259 2.66888 15.1256
306 1 -1.1104 9.32814 -2.86766 20.8012
386 1 -1.1104 9.42261 2.59508 14.9047
387 1 -1.1104 9.4015 2.52808 20.8031
498 1 -1.1104 12.0887 2.92328 23.4673
351 1 -1.1104 3.81337 2.71956 17.9034
353 1 -1.1104 4.00202 2.77123 15.2534
487 2 2.2208 8.11158 9.77361 24.8943
13090 2 2.2208 13.5787 1.35947 22.1168
312 2 2.2208 5.26674 7.00486 13.6951
382 1 -1.1104 9.44459 11.3277 20.6724
313 2 2.2208 2.29951 4.26739 13.5477
334 1 -1.1104 1.2189 2.5282 15.0457
329 1 -1.1104 1.03953 2.82387 17.8412
314 2 2.2208 2.5515 9.71001 13.8275
315 2 2.2208 5.32802 4.21698 16.4529
316 2 2.2208 5.26387 9.65318 16.5425
317 1 -1.1104 1.17734 5.36296 17.725
318 1 -1.1104 1.04226 11.0738 17.7068
321 1 -1.1104 1.05254 5.56942 15.0057
323 1 -1.1104 0.995878 11.3992 14.9416
330 1 -1.1104 0.869548 8.23103 17.8452
333 2 2.2208 5.20082 6.74105 19.3355
336 1 -1.1104 0.997089 8.46467 15.1569
342 1 -1.1104 3.90973 5.43485 17.917
343 1 -1.1104 3.79648 10.9035 17.9016
344 2 2.2208 2.43373 4.00823 19.3162
345 2 2.2208 2.47973 9.75491 19.2931
346 1 -1.1104 3.74366 5.71188 15.22
348 1 -1.1104 3.87329 11.0642 15.0599
350 2 2.2208 2.32312 6.86128 16.5222
352 1 -1.1104 3.77932 8.27741 17.968
355 1 -1.1104 3.82979 8.27468 15.1892
340 1 -1.1104 6.88512 8.43782 15.2632
338 1 -1.1104 6.73012 2.92974 15.1661
331 1 -1.1104 6.74528 2.60751 17.9824
358 2 2.2208 8.11703 4.20717 13.847
359 2 2.2208 8.1488 9.77751 13.8165
384 1 -1.1104 9.44453 2.56969 17.8826
325 1 -1.1104 6.63139 5.65846 15.1422
368 1 -1.1104 12.1074 2.60569 17.8172
320 1 -1.1104 6.8018 11.1164 17.8235
332 1 -1.1104 6.57151 8.41913 17.9484
327 1 -1.1104 6.58835 11.1918 15.074
319 1 -1.1104 6.74997 5.50154 18.0635
357 2 2.2208 10.8458 7.01403 13.7372
360 2 2.2208 10.8071 3.98104 16.4021
361 2 2.2208 10.8668 9.82332 16.4734
362 1 -1.1104 12.3014 5.49767 17.9952
363 1 -1.1104 12.3647 11.2118 18.0063
364 1 -1.1104 12.2848 5.2299 15.0936
366 1 -1.1104 12.2277 11.1174 15.0901
369 1 -1.1104 12.235 8.37507 17.9652
370 2 2.2208 10.8999 6.92449 19.2829
373 1 -1.1104 12.369 8.14116 15.1406
375 1 -1.1104 9.4465 5.55052 17.881
376 1 -1.1104 9.59844 11.0473 17.8445
377 2 2.2208 7.96064 3.90613 19.3148
378 2 2.2208 8.02901 9.67931 19.2512
379 1 -1.1104 9.39069 5.59862 15.1877
381 1 -1.1104 9.41469 11.2526 15.1753
383 2 2.2208 8.1035 6.9447 16.579
385 1 -1.1104 9.35814 8.36261 17.97
388 1 -1.1104 9.69723 8.55311 15.0332
326 1 -1.1104 6.55503 5.35488 20.7253
490 1 -1.1104 9.27424 5.45969 23.5248
12679 2 2.2208 -0.437283 -4.52188 2.45371
393 2 2.2208 2.35621 1.30098 27.6437
281 1 -1.1104 6.59267 -5.74975 20.981
488 2 2.2208 8.15346 4.1601 24.9304
489 1 -1.1104 9.48229 11.177 23.5141
494 1 -1.1104 12.2707 8.58404 26.1863
253 1 -1.1104 0.645198 -0.215353 20.7178
251 1 -1.1104 1.04337 -5.73669 20.8065
270 1 -1.1104 3.80347 -0.341128 20.8562
268 1 -1.1104 3.74705 -5.75298 20.5301
262 1 -1.1104 0.845453 -2.8823 20.8687
394 2 2.2208 5.11537 -1.61645 22.2462
395 1 -1.1104 0.951945 -5.61695 23.5953
396 1 -1.1104 0.986197 0.00844002 23.5498
399 1 -1.1104 0.962197 -5.61898 26.3212
400 1 -1.1104 0.87305 -0.16102 26.487
403 1 -1.1104 1.07139 -2.80614 23.5458
404 2 2.2208 5.20356 -4.38954 24.9621
405 2 2.2208 5.32556 1.17864 25.0409
406 1 -1.1104 0.919523 -3.12908 26.3563
408 1 -1.1104 3.73687 -5.7276 23.4537
409 1 -1.1104 3.73219 -0.208204 23.7028
410 2 2.2208 2.33923 -1.63417 24.9891
411 1 -1.1104 3.73305 -5.73589 26.2339
412 1 -1.1104 3.84208 -0.22851 26.5028
413 2 2.2208 2.4034 -4.1772 22.0432
414 2 2.2208 2.35336 1.18119 22.1717
415 1 -1.1104 3.8743 -2.83033 23.6157
416 1 -1.1104 3.8548 -2.88194 26.3113
452 1 -1.1104 6.5007 2.65028 23.5164
450 1 -1.1104 6.60873 2.55653 26.3761
457 1 -1.1104 1.03377 2.6041 23.4139
451 1 -1.1104 6.74558 8.38142 23.3777
339 1 -1.1104 6.53989 2.51046 20.8452
328 1 -1.1104 6.67086 10.9894 20.5765
372 1 -1.1104 12.2291 2.7857 20.6589
299 1 -1.1104 9.37801 -5.82714 20.9351
401 1 -1.1104 6.43789 -5.74218 26.4435
289 1 -1.1104 12.1613 0.00533969 20.6856
282 1 -1.1104 6.64996 -2.94795 20.8374
256 1 -1.1104 6.53245 -0.154517 20.7092
402 1 -1.1104 6.65348 -0.365312 26.4381
287 1 -1.1104 12.0439 -5.92282 20.7562
301 1 -1.1104 9.3535 -0.139279 20.7774
407 1 -1.1104 6.63958 -3.04287 26.4238
424 1 -1.1104 6.66886 -3.05438 23.4868
398 1 -1.1104 6.67066 -0.139806 23.6858
397 1 -1.1104 6.40726 -5.84842 23.7749
425 2 2.2208 10.8521 -1.5757 22.1851
426 1 -1.1104 12.1462 -5.83953 23.6766
427 1 -1.1104 12.1736 -0.121636 23.4025
428 1 -1.1104 12.3158 -5.90015 26.5556
429 1 -1.1104 12.3084 -0.0556495 26.2568
430 1 -1.1104 12.213 -3.00935 23.5984
431 2 2.2208 10.9332 -4.36244 25.1048
432 2 2.2208 10.8311 1.33987 24.8352
433 1 -1.1104 12.2238 -2.94819 26.3737
434 1 -1.1104 9.44389 -5.74723 23.6343
435 1 -1.1104 9.38967 -0.169304 23.5771
436 2 2.2208 8.19854 -1.5085 25.0356
437 1 -1.1104 9.48996 -5.54493 26.4568
438 1 -1.1104 9.57715 -0.0983224 26.3061
439 2 2.2208 8.04023 -4.37439 22.2812
440 2 2.2208 7.94578 1.2031 22.2284
441 1 -1.1104 9.4478 -3.03376 23.6861
442 1 -1.1104 9.39428 -2.79253 26.5185
481 1 -1.1104 9.41286 2.77773 26.3143
483 1 -1.1104 9.39663 2.53078 23.5483
455 2 2.2208 2.4998 6.86755 -0.21815
354 1 -1.1104 3.75166 2.6364 20.7441
448 1 -1.1104 0.998403 2.65661 26.1894
356 1 -1.1104 3.89314 8.38211 20.7904
337 1 -1.1104 0.9173 8.33055 20.5432
349 1 -1.1104 4.00275 11.1975 20.7323
324 1 -1.1104 1.18388 11.1766 20.8212
464 1 -1.1104 3.92512 2.53724 26.2913
347 1 -1.1104 3.70401 5.39418 20.7242
322 1 -1.1104 1.1312 5.61205 20.74
484 2 2.2208 8.10843 6.90844 22.0662
335 1 -1.1104 1.02094 2.66834 20.7268
469 1 -1.1104 3.81196 2.62206 23.464
447 1 -1.1104 1.05022 8.23127 26.3289
449 2 2.2208 5.3241 6.78204 24.901
456 1 -1.1104 1.00922 8.2071 23.3137
460 1 -1.1104 1.12562 11.0834 26.3941
461 1 -1.1104 1.07179 5.50617 26.4749
462 1 -1.1104 3.75031 8.11333 26.5251
465 1 -1.1104 3.96685 8.20927 23.6434
467 1 -1.1104 0.820878 11.0021 23.592
468 1 -1.1104 1.06984 5.52454 23.5341
470 2 2.2208 2.469 6.77828 22.1409
471 1 -1.1104 3.92757 10.8143 26.2841
472 1 -1.1104 3.95803 5.28879 26.3745
473 2 2.2208 2.45804 9.5776 24.8695
474 2 2.2208 5.3036 9.58059 22.1588
475 2 2.2208 2.46114 3.91084 25.0157
476 1 -1.1104 3.73372 11.1859 23.4687
477 2 2.2208 5.2302 3.97938 22.1683
479 1 -1.1104 3.69839 5.32905 23.5249
478 1 -1.1104 6.77055 8.39345 26.371
463 1 -1.1104 6.73501 11.2041 23.5545
458 1 -1.1104 6.79472 11.2726 26.3241
485 1 -1.1104 9.62542 11.2038 26.2195
499 1 -1.1104 12.2988 11.3523 26.5345
493 2 2.2208 8.08491 6.84787 -0.386541
502 1 -1.1104 12.0644 5.69098 23.5107
459 1 -1.1104 6.6515 5.51495 26.4147
482 1 -1.1104 9.38043 8.31655 23.5677
367 1 -1.1104 12.1423 11.2677 20.6002
495 1 -1.1104 12.2056 2.73591 26.4126
496 2 2.2208 10.6871 7.09695 24.7401
497 1 -1.1104 12.1994 8.51933 23.4773
500 1 -1.1104 12.2045 5.61914 26.4287
503 2 2.2208 10.8526 9.9787 21.8857
504 2 2.2208 10.7923 4.08744 22.0372
13191 2 2.2208 -0.322859 9.69993 27.8673
12733 2 2.2208 -0.397528 3.95716 5.35984
166 2 2.2208 13.6568 -1.53904 13.7583
13014 2 2.2208 13.8278 4.19156 19.3196
244 2 2.2208 13.6404 4.22703 8.12349
443 2 2.2208 13.5468 1.34394 27.7492
12731 2 2.2208 -0.292787 6.94441 2.53096
13092 2 2.2208 13.6482 -1.56684 25.047
636 2 2.2208 2.51839 12.4347 11.0941
912 2 2.2208 2.44509 12.4858 22.1811
25 2 2.2208 2.45596 -7.00125 2.46132
507 2 2.2208 5.3162 15.3568 5.31239
508 2 2.2208 5.14445 20.99 5.22866
509 1 -1.1104 1.08071 17.0396 0.949637
511 1 -1.1104 1.06812 16.5965 3.77714
513 1 -1.1104 0.969342 14.1161 1.09614
514 1 -1.1104 1.06029 19.6356 1.22124
518 2 2.2208 5.29905 17.9675 2.44432
519 1 -1.1104 0.963311 13.7536 3.85928
520 1 -1.1104 0.953233 19.3195 3.89679
523 1 -1.1104 3.81115 16.5377 0.922644
524 2 2.2208 2.42181 15.3148 2.38525
525 2 2.2208 2.34281 20.8673 2.47481
526 1 -1.1104 3.9848 16.8685 3.8494
528 2 2.2208 2.44376 18.0975 5.28691
529 1 -1.1104 3.77855 13.8271 1.14855
530 1 -1.1104 3.82628 19.4103 0.922137
531 1 -1.1104 3.86985 14.0468 4.13459
532 1 -1.1104 3.77676 19.5426 3.91356
539 2 2.2208 10.8377 12.6719 2.33036
517 2 2.2208 5.23136 12.6606 2.49078
889 2 2.2208 5.39966 21.0141 -0.280602
920 2 2.2208 8.21229 12.3896 -0.329318
888 2 2.2208 5.21553 15.3499 27.712
891 2 2.2208 2.65239 18.0589 -0.355446
607 1 -1.1104 0.803874 17.1 6.60416
13458 2 2.2208 -0.354776 23.8536 8.01484
872 1 -1.1104 12.4418 30.7342 20.9243
516 1 -1.1104 6.53436 19.4077 1.14515
515 1 -1.1104 6.47634 13.8601 0.994738
512 1 -1.1104 6.57535 16.6773 3.91611
612 1 -1.1104 6.69205 19.6169 6.50924
521 1 -1.1104 6.88763 14.0792 3.89741
510 1 -1.1104 6.66289 16.7018 1.02419
522 1 -1.1104 6.48425 19.4726 3.79781
547 2 2.2208 8.04853 12.4913 5.17895
533 2 2.2208 10.8374 15.4135 5.41471
534 2 2.2208 10.9049 20.8129 5.34637
535 1 -1.1104 12.3692 16.8314 0.880446
536 1 -1.1104 12.0219 16.6318 3.9085
537 1 -1.1104 12.2793 14.0181 1.05715
538 1 -1.1104 12.22 19.5653 0.951446
540 2 2.2208 10.8241 18.2314 2.47756
541 1 -1.1104 12.2267 13.9509 3.87505
542 1 -1.1104 12.1498 19.3998 3.82339
543 1 -1.1104 9.52583 16.8174 1.03003
544 2 2.2208 8.11268 15.3005 2.24867
545 2 2.2208 7.97744 20.8733 2.57865
546 1 -1.1104 9.27683 16.8954 3.70955
548 2 2.2208 7.93255 18.1246 5.25025
549 1 -1.1104 9.56374 13.9886 0.942701
550 1 -1.1104 9.29143 19.5247 1.09919
551 1 -1.1104 9.47078 13.9942 3.78514
552 1 -1.1104 9.30596 19.6641 3.98353
805 2 2.2208 7.98721 12.5174 16.4054
902 2 2.2208 5.26373 12.4428 24.8196
645 1 -1.1104 9.39661 16.7153 6.80662
890 2 2.2208 2.50617 12.4126 -0.395938
13307 2 2.2208 -0.410927 29.3714 2.5042
13715 2 2.2208 13.7939 29.3508 22.1134
980 1 -1.1104 9.58798 27.9188 26.2737
553 2 2.2208 5.28891 26.6693 5.19524
554 1 -1.1104 1.06739 22.3473 1.08945
555 1 -1.1104 1.05462 28.232 1.1071
558 1 -1.1104 1.06097 22.3357 4.0316
559 1 -1.1104 0.988797 27.8325 3.9022
562 1 -1.1104 1.05866 25.3811 1.14547
563 1 -1.1104 0.936829 31.0156 0.90229
566 2 2.2208 5.30265 23.8273 2.56274
567 2 2.2208 5.28506 29.4684 2.25437
568 1 -1.1104 1.11886 25.1409 4.10238
569 1 -1.1104 0.929818 30.7782 3.97213
572 1 -1.1104 3.83393 22.24 1.14176
573 1 -1.1104 3.93127 27.8482 1.02253
574 2 2.2208 2.50225 26.6743 2.50606
575 1 -1.1104 3.99275 22.4774 3.97538
576 1 -1.1104 3.71644 28.1063 3.69403
577 2 2.2208 2.48833 23.7413 5.36574
579 2 2.2208 2.46412 29.3885 5.18721
580 1 -1.1104 3.84968 25.1988 0.977917
581 1 -1.1104 3.5044 30.5284 1.05453
582 1 -1.1104 3.73743 25.3347 3.76681
583 1 -1.1104 3.80963 30.8488 3.87742
673 1 -1.1104 1.02878 30.7144 6.62171
943 2 2.2208 2.46617 23.6942 -0.161731
571 1 -1.1104 6.57254 30.7428 3.90016
570 1 -1.1104 6.65221 25.2755 3.88186
560 1 -1.1104 6.6552 22.4609 3.77129
671 1 -1.1104 6.6307 27.9398 6.68658
672 1 -1.1104 1.06877 25.1527 6.75324
678 1 -1.1104 4.09755 25.3451 6.72385
565 1 -1.1104 6.55281 30.8473 0.98942
557 1 -1.1104 6.82753 27.976 1.0688
561 1 -1.1104 6.71553 28.059 3.8916
556 1 -1.1104 6.71592 22.1795 1.06699
564 1 -1.1104 6.70984 25.0774 0.97954
587 1 -1.1104 12.4177 22.1602 4.07082
584 2 2.2208 10.8734 26.4717 5.28306
585 1 -1.1104 12.379 22.308 1.16627
586 1 -1.1104 12.2981 27.9412 1.15976
588 1 -1.1104 12.3624 27.882 4.00176
589 1 -1.1104 12.4791 24.9335 1.09984
590 1 -1.1104 12.3286 30.6367 1.08268
591 2 2.2208 11.0418 23.6003 2.50104
592 2 2.2208 11.0043 29.3189 2.42937
593 1 -1.1104 12.2693 25.0895 3.83931
594 1 -1.1104 12.2195 30.8464 3.90155
595 1 -1.1104 9.67896 22.2182 0.988547
596 1 -1.1104 9.58102 28.0234 0.863545
597 2 2.2208 8.0605 26.6069 2.43052
598 1 -1.1104 9.35862 22.3295 3.82351
599 1 -1.1104 9.46874 27.8134 3.55075
600 2 2.2208 8.19866 23.5558 5.27239
602 2 2.2208 8.02613 29.3899 5.33657
603 1 -1.1104 9.61144 24.9509 1.19719
604 1 -1.1104 9.25066 30.6435 1.16524
605 1 -1.1104 9.61916 24.8694 4.01711
606 1 -1.1104 9.4952 30.7512 3.75759
985 2 2.2208 8.14285 23.6031 -0.168654
601 2 2.2208 7.96689 29.4041 -0.380962
714 1 -1.1104 12.5051 25.1995 6.61346
715 1 -1.1104 12.3746 30.9214 6.63429
13618 2 2.2208 -0.23085 29.341 19.4064
879 1 -1.1104 9.49786 28.0644 20.5978
615 1 -1.1104 3.98632 19.5729 6.57805
613 1 -1.1104 3.78385 16.7337 6.97251
609 1 -1.1104 1.06323 14.0763 6.6668
610 1 -1.1104 1.17152 19.6169 6.72141
614 1 -1.1104 3.84667 13.8934 6.75767
13495 2 2.2208 13.6129 15.3446 19.2825
616 2 2.2208 5.13141 15.2865 10.8281
617 2 2.2208 5.24617 20.9624 10.8047
618 1 -1.1104 1.04325 16.5873 12.3373
620 1 -1.1104 1.03156 16.6691 9.44441
622 1 -1.1104 1.28714 13.8216 12.4335
623 1 -1.1104 1.03889 19.4111 12.2209
627 2 2.2208 5.19902 18.3228 8.16606
628 1 -1.1104 1.13224 13.9925 9.5092
629 1 -1.1104 1.03582 19.4939 9.60035
632 1 -1.1104 3.71921 16.6722 12.1337
633 2 2.2208 2.49131 15.1157 8.11153
634 2 2.2208 2.43395 20.9463 7.97856
635 1 -1.1104 3.6698 16.6743 9.57573
637 2 2.2208 2.42585 18.0296 10.7735
638 1 -1.1104 3.94501 13.9203 12.3056
639 1 -1.1104 3.92324 19.521 12.1348
640 1 -1.1104 3.96129 13.8709 9.52658
641 1 -1.1104 3.86168 19.6242 9.39324
626 2 2.2208 5.1554 12.592 7.99445
625 1 -1.1104 6.63117 19.6816 12.1819
611 1 -1.1104 6.75536 13.919 6.6359
624 1 -1.1104 6.51381 13.9522 12.2624
630 1 -1.1104 6.67588 13.8656 9.33955
676 1 -1.1104 3.80283 22.454 6.66749
746 2 2.2208 2.41784 15.2573 13.8528
642 1 -1.1104 12.12 16.8073 6.7858
643 1 -1.1104 12.2076 14.0787 6.82086
646 1 -1.1104 9.61205 13.867 6.76572
608 1 -1.1104 6.58512 16.812 6.74787
647 1 -1.1104 9.50644 19.3999 6.6618
644 1 -1.1104 12.4354 19.5171 6.68582
631 1 -1.1104 6.66891 19.5782 9.38193
619 1 -1.1104 6.56123 16.7911 12.323
621 1 -1.1104 6.63473 16.7025 9.54207
662 2 2.2208 8.05547 12.4741 10.9153
648 2 2.2208 10.8583 15.2919 10.9758
649 2 2.2208 10.8334 20.965 10.8672
650 1 -1.1104 12.2608 16.6572 12.2657
651 1 -1.1104 12.3012 16.6733 9.44793
652 1 -1.1104 12.3028 13.8605 12.2959
653 1 -1.1104 12.3743 19.6057 12.3553
655 2 2.2208 10.7505 18.1938 8.08012
656 1 -1.1104 12.4498 13.8765 9.58827
657 1 -1.1104 12.4047 19.6725 9.55295
658 1 -1.1104 9.45127 16.7022 12.0945
659 2 2.2208 8.02088 15.185 8.25124
660 2 2.2208 8.00603 20.9452 8.04718
661 1 -1.1104 9.54499 16.6689 9.4446
663 2 2.2208 8.09521 18.1178 10.9286
664 1 -1.1104 9.36368 13.8417 12.3566
665 1 -1.1104 9.59049 19.6119 12.2953
666 1 -1.1104 9.50862 13.8577 9.66918
667 1 -1.1104 9.54693 19.6787 9.35691
654 2 2.2208 10.8929 12.4811 8.08775
13459 2 2.2208 -0.403484 26.464 10.9774
13456 2 2.2208 -0.252515 29.3576 13.6643
936 2 2.2208 8.20179 12.7955 22.2141
13537 2 2.2208 -0.428237 15.3956 16.4418
679 1 -1.1104 3.88571 30.6945 6.57026
677 1 -1.1104 3.93747 28.1656 6.63367
669 1 -1.1104 1.16607 27.9874 6.76554
668 1 -1.1104 0.951457 22.3179 6.77708
685 1 -1.1104 1.08075 22.2612 9.4063
704 1 -1.1104 3.75466 22.4006 9.10898
680 2 2.2208 5.30024 26.544 10.9631
681 1 -1.1104 1.08265 22.3207 12.3747
682 1 -1.1104 1.04988 27.9303 12.3921
686 1 -1.1104 1.02397 27.7834 9.52518
689 1 -1.1104 1.078 25.1288 12.2197
690 1 -1.1104 0.993829 30.6623 12.297
693 2 2.2208 5.28256 23.8554 8.03201
694 2 2.2208 5.21966 29.3099 8.12197
696 1 -1.1104 1.15481 25.0346 9.462
697 1 -1.1104 0.834556 30.7287 9.52915
700 1 -1.1104 3.90074 22.3557 12.174
701 1 -1.1104 3.70509 27.9281 12.3721
702 2 2.2208 2.48289 26.6365 8.00265
705 1 -1.1104 3.82814 28.0029 9.60448
706 2 2.2208 2.47597 23.7047 10.883
707 2 2.2208 2.39567 29.2772 10.9841
708 1 -1.1104 3.8722 25.2856 12.3136
709 1 -1.1104 4.00437 30.7909 12.302
710 1 -1.1104 3.8861 25.1238 9.43982
711 1 -1.1104 3.79645 30.8308 9.71189
699 1 -1.1104 6.73448 30.8021 9.66357
683 1 -1.1104 6.83052 22.5578 12.1752
698 1 -1.1104 6.75739 25.169 9.59859
684 1 -1.1104 6.65887 28.0541 12.279
675 1 -1.1104 6.58954 30.7463 6.59454
692 1 -1.1104 6.68211 30.7165 12.3556
670 1 -1.1104 6.55228 22.1421 6.60539
691 1 -1.1104 6.49366 25.4015 12.3881
687 1 -1.1104 6.61714 22.4679 9.37472
996 1 -1.1104 12.3455 22.3253 23.5394
983 1 -1.1104 9.36507 27.8575 23.4505
719 1 -1.1104 9.46775 30.8905 6.68414
989 2 2.2208 11.0552 29.5172 25.0829
13496 2 2.2208 13.7184 20.9352 19.4164
674 1 -1.1104 6.91203 25.0868 6.82259
718 1 -1.1104 9.74489 25.0659 6.59942
713 1 -1.1104 12.0441 28.0704 6.60252
716 1 -1.1104 9.47147 22.2644 6.60553
717 1 -1.1104 9.56217 28.0389 6.65194
688 1 -1.1104 6.75015 28.0225 9.33227
712 1 -1.1104 12.3854 22.4594 6.78111
723 1 -1.1104 12.2615 22.4659 9.51012
721 1 -1.1104 12.3796 22.4252 12.2456
720 2 2.2208 10.8622 26.6037 10.8293
722 1 -1.1104 12.1853 27.9095 12.4543
724 1 -1.1104 12.3826 28.0388 9.41889
725 1 -1.1104 12.1806 25.2017 12.2132
726 1 -1.1104 12.3043 30.6092 12.1892
727 2 2.2208 10.9374 23.6648 8.05904
728 2 2.2208 10.816 29.4139 7.94386
730 1 -1.1104 12.2897 25.4285 9.33909
731 1 -1.1104 12.426 30.7653 9.51181
732 1 -1.1104 9.58922 22.345 12.2834
733 1 -1.1104 9.30045 27.9615 12.2277
734 2 2.2208 8.10241 26.5279 8.03526
736 1 -1.1104 9.51255 22.3592 9.36327
737 1 -1.1104 9.57829 28.0127 9.41168
738 2 2.2208 8.26339 23.7007 10.789
739 2 2.2208 8.0094 29.362 10.9391
740 1 -1.1104 9.51335 25.1727 12.2839
741 1 -1.1104 9.6444 30.9299 12.1929
742 1 -1.1104 9.44713 25.1726 9.49012
743 1 -1.1104 9.45861 30.7193 9.40651
13306 2 2.2208 -0.307249 23.8095 2.43321
990 2 2.2208 10.8371 23.8362 24.9233
745 2 2.2208 5.09368 18.1247 13.7128
747 2 2.2208 2.46559 20.7983 13.6495
760 2 2.2208 5.27267 12.4592 19.3188
775 2 2.2208 2.39761 12.5267 16.3687
748 2 2.2208 5.18179 15.3409 16.5504
749 2 2.2208 5.16883 20.9105 16.5166
750 1 -1.1104 1.09645 16.6809 17.7883
752 1 -1.1104 0.877294 16.7278 15.0339
756 1 -1.1104 1.03468 13.8265 17.6571
757 1 -1.1104 1.08108 19.4223 18.0108
761 2 2.2208 5.21693 18.1576 19.3611
762 1 -1.1104 1.0031 14.0324 15.148
764 1 -1.1104 1.05328 19.5218 15.1497
770 1 -1.1104 3.89213 16.7298 17.7114
771 2 2.2208 2.35265 15.349 19.2724
772 2 2.2208 2.49335 21.0329 19.4775
773 1 -1.1104 3.66136 16.5667 15.049
776 2 2.2208 2.42087 18.1867 16.4946
777 1 -1.1104 3.6255 14.046 17.9288
778 1 -1.1104 3.96702 19.472 18.0209
779 1 -1.1104 3.8966 13.9016 15.1253
781 1 -1.1104 3.69983 19.4827 15.1649
766 1 -1.1104 6.62182 14.1231 15.1836
754 1 -1.1104 6.44224 16.6571 15.2014
768 1 -1.1104 6.43922 19.554 15.01
978 2 2.2208 8.20739 29.2406 22.127
751 1 -1.1104 6.56105 16.8133 18.0373
782 1 -1.1104 3.80547 19.5247 20.8843
744 2 2.2208 5.26111 12.6502 13.6607
786 2 2.2208 8.05024 21.1206 13.5785
785 2 2.2208 7.86899 15.3431 13.6963
784 2 2.2208 10.9082 18.1607 13.6128
758 1 -1.1104 6.41459 13.8081 17.7637