ITEM: TIMESTEP
0
ITEM: NUMBER OF ATOMS
27300
ITEM: BOX BOUNDS pp pp pp
0.0000000000000000e+00 4.8958410768334198e+02
0.0000000000000000e+00 2.6247140805037299e+02
0.0000000000000000e+00 2.4727731607429999e+00
ITEM: ATOMS id type x y z
3 1 0 0 0
4 1 1.16568 2.01901 1.64852
6 1 2.33135 0 0.824258
1 1 3.49703 2.01901 0
2 1 4.66271 0 1.64852
5 1 5.82838 2.01901 0.824258
9 1 6.99406 0 0
10 1 8.15974 2.01901 1.64852
7 1 10.4911 2.01901 0
12 1 9.32541 0 0.824258
8 1 11.6568 0 1.64852
11 1 12.8224 2.01901 0.824258
15 1 13.9881 0 0
16 1 15.1538 2.01901 1.64852
18 1 16.3195 0 0.824258
13 1 17.4851 2.01901 0
14 1 18.6508 0 1.64852
17 1 19.8165 2.01901 0.824258
21 1 20.9822 0 0
22 1 22.1479 2.01901 1.64852
19 1 24.4792 2.01901 0
20 1 25.6449 0 1.64852
24 1 23.3135 0 0.824258
23 1 26.8106 2.01901 0.824258
27 1 27.9762 0 0
25 1 31.4733 2.01901 0
28 1 29.1419 2.01901 1.64852
30 1 30.3076 0 0.824258
26 1 32.6389 0 1.64852
29 1 33.8046 2.01901 0.824258
33 1 34.9703 0 0
34 1 36.136 2.01901 1.64852
36 1 37.3016 0 0.824258
423 1 0 4.03802 0
426 1 2.33135 4.03802 0.824258
422 1 4.66271 4.03802 1.64852
429 1 6.99406 4.03802 0
432 1 9.32541 4.03802 0.824258
428 1 11.6568 4.03802 1.64852
435 1 13.9881 4.03802 0
438 1 16.3195 4.03802 0.824258
434 1 18.6508 4.03802 1.64852
441 1 20.9822 4.03802 0
440 1 25.6449 4.03802 1.64852
444 1 23.3135 4.03802 0.824258
447 1 27.9762 4.03802 0
450 1 30.3076 4.03802 0.824258
446 1 32.6389 4.03802 1.64852
453 1 34.9703 4.03802 0
456 1 37.3016 4.03802 0.824258
424 1 1.16568 6.05703 1.64852
843 1 0 8.07604 0
846 1 2.33135 8.07604 0.824258
421 1 3.49703 6.05703 0
842 1 4.66271 8.07604 1.64852
425 1 5.82838 6.05703 0.824258
430 1 8.15974 6.05703 1.64852
849 1 6.99406 8.07604 0
427 1 10.4911 6.05703 0
852 1 9.32541 8.07604 0.824258
431 1 12.8224 6.05703 0.824258
848 1 11.6568 8.07604 1.64852
855 1 13.9881 8.07604 0
436 1 15.1538 6.05703 1.64852
858 1 16.3195 8.07604 0.824258
433 1 17.4851 6.05703 0
437 1 19.8165 6.05703 0.824258
854 1 18.6508 8.07604 1.64852
442 1 22.1479 6.05703 1.64852
861 1 20.9822 8.07604 0
439 1 24.4792 6.05703 0
860 1 25.6449 8.07604 1.64852
864 1 23.3135 8.07604 0.824258
443 1 26.8106 6.05703 0.824258
867 1 27.9762 8.07604 0
445 1 31.4733 6.05703 0
448 1 29.1419 6.05703 1.64852
870 1 30.3076 8.07604 0.824258
449 1 33.8046 6.05703 0.824258
866 1 32.6389 8.07604 1.64852
454 1 36.136 6.05703 1.64852
873 1 34.9703 8.07604 0
876 1 37.3016 8.07604 0.824258
844 1 1.16568 10.0951 1.64852
841 1 3.49703 10.0951 0
845 1 5.82838 10.0951 0.824258
850 1 8.15974 10.0951 1.64852
847 1 10.4911 10.0951 0
851 1 12.8224 10.0951 0.824258
856 1 15.1538 10.0951 1.64852
853 1 17.4851 10.0951 0
857 1 19.8165 10.0951 0.824258
862 1 22.1479 10.0951 1.64852
859 1 24.4792 10.0951 0
863 1 26.8106 10.0951 0.824258
865 1 31.4733 10.0951 0
868 1 29.1419 10.0951 1.64852
869 1 33.8046 10.0951 0.824258
874 1 36.136 10.0951 1.64852
1263 1 0 12.1141 0
1264 1 1.16568 14.1331 1.64852
1266 1 2.33135 12.1141 0.824258
1261 1 3.49703 14.1331 0
1262 1 4.66271 12.1141 1.64852
1265 1 5.82838 14.1331 0.824258
1269 1 6.99406 12.1141 0
1270 1 8.15974 14.1331 1.64852
1267 1 10.4911 14.1331 0
1272 1 9.32541 12.1141 0.824258
1268 1 11.6568 12.1141 1.64852
1271 1 12.8224 14.1331 0.824258
1275 1 13.9881 12.1141 0
1276 1 15.1538 14.1331 1.64852
1278 1 16.3195 12.1141 0.824258
1273 1 17.4851 14.1331 0
1274 1 18.6508 12.1141 1.64852
1277 1 19.8165 14.1331 0.824258
1281 1 20.9822 12.1141 0
1282 1 22.1479 14.1331 1.64852
1279 1 24.4792 14.1331 0
1280 1 25.6449 12.1141 1.64852
1284 1 23.3135 12.1141 0.824258
1283 1 26.8106 14.1331 0.824258
1287 1 27.9762 12.1141 0
1285 1 31.4733 14.1331 0
1288 1 29.1419 14.1331 1.64852
1290 1 30.3076 12.1141 0.824258
1286 1 32.6389 12.1141 1.64852
1289 1 33.8046 14.1331 0.824258
1293 1 34.9703 12.1141 0
1294 1 36.136 14.1331 1.64852
1296 1 37.3016 12.1141 0.824258
1683 1 0 16.1521 0
1686 1 2.33135 16.1521 0.824258
1682 1 4.66271 16.1521 1.64852
1689 1 6.99406 16.1521 0
1692 1 9.32541 16.1521 0.824258
1688 1 11.6568 16.1521 1.64852
1695 1 13.9881 16.1521 0
1698 1 16.3195 16.1521 0.824258
1694 1 18.6508 16.1521 1.64852
1701 1 20.9822 16.1521 0
1700 1 25.6449 16.1521 1.64852
1704 1 23.3135 16.1521 0.824258
1707 1 27.9762 16.1521 0
1710 1 30.3076 16.1521 0.824258
1706 1 32.6389 16.1521 1.64852
1713 1 34.9703 16.1521 0
1716 1 37.3016 16.1521 0.824258
1684 1 1.16568 18.1711 1.64852
1681 1 3.49703 18.1711 0
1685 1 5.82838 18.1711 0.824258
1690 1 8.15974 18.1711 1.64852
1687 1 10.4911 18.1711 0
1691 1 12.8224 18.1711 0.824258
1696 1 15.1538 18.1711 1.64852
1693 1 17.4851 18.1711 0
1697 1 19.8165 18.1711 0.824258
1702 1 22.1479 18.1711 1.64852
1699 1 24.4792 18.1711 0
1703 1 26.8106 18.1711 0.824258
1705 1 31.4733 18.1711 0
1708 1 29.1419 18.1711 1.64852
1709 1 33.8046 18.1711 0.824258
1714 1 36.136 18.1711 1.64852
2103 1 0 20.1901 0
2104 1 1.16568 22.2091 1.64852
2106 1 2.33135 20.1901 0.824258
2101 1 3.49703 22.2091 0
2102 1 4.66271 20.1901 1.64852
2105 1 5.82838 22.2091 0.824258
2109 1 6.99406 20.1901 0
2110 1 8.15974 22.2091 1.64852
2107 1 10.4911 22.2091 0
2112 1 9.32541 20.1901 0.824258
2108 1 11.6568 20.1901 1.64852
2111 1 12.8224 22.2091 0.824258
2115 1 13.9881 20.1901 0
2116 1 15.1538 22.2091 1.64852
2118 1 16.3195 20.1901 0.824258
2113 1 17.4851 22.2091 0
2114 1 18.6508 20.1901 1.64852
2117 1 19.8165 22.2091 0.824258
2121 1 20.9822 20.1901 0
2122 1 22.1479 22.2091 1.64852
2119 1 24.4792 22.2091 0
2120 1 25.6449 20.1901 1.64852
2124 1 23.3135 20.1901 0.824258
2123 1 26.8106 22.2091 0.824258
2127 1 27.9762 20.1901 0
2125 1 31.4733 22.2091 0
2128 1 29.1419 22.2091 1.64852
2130 1 30.3076 20.1901 0.824258
2126 1 32.6389 20.1901 1.64852
2129 1 33.8046 22.2091 0.824258
2133 1 34.9703 20.1901 0
2134 1 36.136 22.2091 1.64852
2136 1 37.3016 20.1901 0.824258
2523 1 0 24.2281 0
2526 1 2.33135 24.2281 0.824258
2522 1 4.66271 24.2281 1.64852
2529 1 6.99406 24.2281 0
2532 1 9.32541 24.2281 0.824258
2528 1 11.6568 24.2281 1.64852
2535 1 13.9881 24.2281 0
2538 1 16.3195 24.2281 0.824258
2534 1 18.6508 24.2281 1.64852
2541 1 20.9822 24.2281 0
2540 1 25.6449 24.2281 1.64852
2544 1 23.3135 24.2281 0.824258
2547 1 27.9762 24.2281 0
2550 1 30.3076 24.2281 0.824258
2546 1 32.6389 24.2281 1.64852
2553 1 34.9703 24.2281 0
2556 1 37.3016 24.2281 0.824258
2524 1 1.16568 26.2471 1.64852
2943 1 0 28.2662 0
2946 1 2.33135 28.2662 0.824258
2521 1 3.49703 26.2471 0
2942 1 4.66271 28.2662 1.64852
2525 1 5.82838 26.2471 0.824258
2530 1 8.15974 26.2471 1.64852
2949 1 6.99406 28.2662 0
2527 1 10.4911 26.2471 0
2952 1 9.32541 28.2662 0.824258
2531 1 12.8224 26.2471 0.824258
2948 1 11.6568 28.2662 1.64852
2955 1 13.9881 28.2662 0
2536 1 15.1538 26.2471 1.64852
2958 1 16.3195 28.2662 0.824258
2533 1 17.4851 26.2471 0
2537 1 19.8165 26.2471 0.824258
2954 1 18.6508 28.2662 1.64852
2542 1 22.1479 26.2471 1.64852
2961 1 20.9822 28.2662 0
2539 1 24.4792 26.2471 0
2960 1 25.6449 28.2662 1.64852
2964 1 23.3135 28.2662 0.824258
2543 1 26.8106 26.2471 0.824258
2967 1 27.9762 28.2662 0
2545 1 31.4733 26.2471 0
2548 1 29.1419 26.2471 1.64852
2970 1 30.3076 28.2662 0.824258
2549 1 33.8046 26.2471 0.824258
2966 1 32.6389 28.2662 1.64852
2554 1 36.136 26.2471 1.64852
2973 1 34.9703 28.2662 0
2976 1 37.3016 28.2662 0.824258
2944 1 1.16568 30.2852 1.64852
2941 1 3.49703 30.2852 0
2945 1 5.82838 30.2852 0.824258
2950 1 8.15974 30.2852 1.64852
2947 1 10.4911 30.2852 0
2951 1 12.8224 30.2852 0.824258
2956 1 15.1538 30.2852 1.64852
2953 1 17.4851 30.2852 0
2957 1 19.8165 30.2852 0.824258
2962 1 22.1479 30.2852 1.64852
2959 1 24.4792 30.2852 0
2963 1 26.8106 30.2852 0.824258
2965 1 31.4733 30.2852 0
2968 1 29.1419 30.2852 1.64852
2969 1 33.8046 30.2852 0.824258
2974 1 36.136 30.2852 1.64852
3363 1 0 32.3042 0
3366 1 2.33135 32.3042 0.824258
3362 1 4.66271 32.3042 1.64852
3369 1 6.99406 32.3042 0
3372 1 9.32541 32.3042 0.824258
3368 1 11.6568 32.3042 1.64852
3375 1 13.9881 32.3042 0
3378 1 16.3195 32.3042 0.824258
3374 1 18.6508 32.3042 1.64852
3381 1 20.9822 32.3042 0
3380 1 25.6449 32.3042 1.64852
3384 1 23.3135 32.3042 0.824258
3387 1 27.9762 32.3042 0
3390 1 30.3076 32.3042 0.824258
3386 1 32.6389 32.3042 1.64852
3393 1 34.9703 32.3042 0
3396 1 37.3016 32.3042 0.824258
3364 1 1.16568 34.3232 1.64852
3783 1 0 36.3422 0
3786 1 2.33135 36.3422 0.824258
3361 1 3.49703 34.3232 0
3782 1 4.66271 36.3422 1.64852
3365 1 5.82838 34.3232 0.824258
3370 1 8.15974 34.3232 1.64852
3789 1 6.99406 36.3422 0
3367 1 10.4911 34.3232 0
3792 1 9.32541 36.3422 0.824258
3371 1 12.8224 34.3232 0.824258
3788 1 11.6568 36.3422 1.64852
3795 1 13.9881 36.3422 0
3376 1 15.1538 34.3232 1.64852
3798 1 16.3195 36.3422 0.824258
3373 1 17.4851 34.3232 0
3377 1 19.8165 34.3232 0.824258
3794 1 18.6508 36.3422 1.64852
3382 1 22.1479 34.3232 1.64852
3801 1 20.9822 36.3422 0
3379 1 24.4792 34.3232 0
3800 1 25.6449 36.3422 1.64852
3804 1 23.3135 36.3422 0.824258
3383 1 26.8106 34.3232 0.824258
3807 1 27.9762 36.3422 0
3385 1 31.4733 34.3232 0
3388 1 29.1419 34.3232 1.64852
3810 1 30.3076 36.3422 0.824258
3389 1 33.8046 34.3232 0.824258
3806 1 32.6389 36.3422 1.64852
3394 1 36.136 34.3232 1.64852
3813 1 34.9703 36.3422 0
3816 1 37.3016 36.3422 0.824258
3784 1 1.16568 38.3612 1.64852
3781 1 3.49703 38.3612 0
3785 1 5.82838 38.3612 0.824258
3790 1 8.15974 38.3612 1.64852
3787 1 10.4911 38.3612 0
3791 1 12.8224 38.3612 0.824258
3796 1 15.1538 38.3612 1.64852
3793 1 17.4851 38.3612 0
3797 1 19.8165 38.3612 0.824258
3802 1 22.1479 38.3612 1.64852
3799 1 24.4792 38.3612 0
3803 1 26.8106 38.3612 0.824258
3805 1 31.4733 38.3612 0
3808 1 29.1419 38.3612 1.64852
3809 1 33.8046 38.3612 0.824258
3814 1 36.136 38.3612 1.64852
4203 1 0 40.3802 0
4204 1 1.16568 42.3992 1.64852
4206 1 2.33135 40.3802 0.824258
4201 1 3.49703 42.3992 0
4202 1 4.66271 40.3802 1.64852
4205 1 5.82838 42.3992 0.824258
4209 1 6.99406 40.3802 0
4210 1 8.15974 42.3992 1.64852
4207 1 10.4911 42.3992 0
4212 1 9.32541 40.3802 0.824258
4208 1 11.6568 40.3802 1.64852
4211 1 12.8224 42.3992 0.824258
4215 1 13.9881 40.3802 0
4216 1 15.1538 42.3992 1.64852
4218 1 16.3195 40.3802 0.824258
4213 1 17.4851 42.3992 0
4214 1 18.6508 40.3802 1.64852
4217 1 19.8165 42.3992 0.824258
4221 1 20.9822 40.3802 0
4222 1 22.1479 42.3992 1.64852
4219 1 24.4792 42.3992 0
4220 1 25.6449 40.3802 1.64852
4224 1 23.3135 40.3802 0.824258
4223 1 26.8106 42.3992 0.824258
4227 1 27.9762 40.3802 0
4225 1 31.4733 42.3992 0
4228 1 29.1419 42.3992 1.64852
4230 1 30.3076 40.3802 0.824258
4226 1 32.6389 40.3802 1.64852
4229 1 33.8046 42.3992 0.824258
4233 1 34.9703 40.3802 0
4234 1 36.136 42.3992 1.64852
4236 1 37.3016 40.3802 0.824258
4623 1 0 44.4182 0
4626 1 2.33135 44.4182 0.824258
4622 1 4.66271 44.4182 1.64852
4629 1 6.99406 44.4182 0
4632 1 9.32541 44.4182 0.824258
4628 1 11.6568 44.4182 1.64852
4635 1 13.9881 44.4182 0
4638 1 16.3195 44.4182 0.824258
4634 1 18.6508 44.4182 1.64852
4641 1 20.9822 44.4182 0
4640 1 25.6449 44.4182 1.64852
4644 1 23.3135 44.4182 0.824258
4647 1 27.9762 44.4182 0
4650 1 30.3076 44.4182 0.824258
4646 1 32.6389 44.4182 1.64852
4653 1 34.9703 44.4182 0
4656 1 37.3016 44.4182 0.824258
4624 1 1.16568 46.4372 1.64852
5043 1 0 48.4563 0
5046 1 2.33135 48.4563 0.824258
4621 1 3.49703 46.4372 0
5042 1 4.66271 48.4563 1.64852
4625 1 5.82838 46.4372 0.824258
4630 1 8.15974 46.4372 1.64852
5049 1 6.99406 48.4563 0
4627 1 10.4911 46.4372 0
5052 1 9.32541 48.4563 0.824258
4631 1 12.8224 46.4372 0.824258
5048 1 11.6568 48.4563 1.64852
5055 1 13.9881 48.4563 0
4636 1 15.1538 46.4372 1.64852
5058 1 16.3195 48.4563 0.824258
4633 1 17.4851 46.4372 0
4637 1 19.8165 46.4372 0.824258
5054 1 18.6508 48.4563 1.64852
4642 1 22.1479 46.4372 1.64852
5061 1 20.9822 48.4563 0
4639 1 24.4792 46.4372 0
5060 1 25.6449 48.4563 1.64852
5064 1 23.3135 48.4563 0.824258
4643 1 26.8106 46.4372 0.824258
5067 1 27.9762 48.4563 0
4645 1 31.4733 46.4372 0
4648 1 29.1419 46.4372 1.64852
5070 1 30.3076 48.4563 0.824258
4649 1 33.8046 46.4372 0.824258
5066 1 32.6389 48.4563 1.64852
4654 1 36.136 46.4372 1.64852
5073 1 34.9703 48.4563 0
5076 1 37.3016 48.4563 0.824258
5044 1 1.16568 50.4753 1.64852
5041 1 3.49703 50.4753 0
5045 1 5.82838 50.4753 0.824258
5050 1 8.15974 50.4753 1.64852
5047 1 10.4911 50.4753 0
5051 1 12.8224 50.4753 0.824258
5056 1 15.1538 50.4753 1.64852
5053 1 17.4851 50.4753 0
5057 1 19.8165 50.4753 0.824258
5062 1 22.1479 50.4753 1.64852
5059 1 24.4792 50.4753 0
5063 1 26.8106 50.4753 0.824258
5065 1 31.4733 50.4753 0
5068 1 29.1419 50.4753 1.64852
5069 1 33.8046 50.4753 0.824258
5074 1 36.136 50.4753 1.64852
5463 1 0 52.4943 0
5466 1 2.33135 52.4943 0.824258
5462 1 4.66271 52.4943 1.64852
5469 1 6.99406 52.4943 0
5472 1 9.32541 52.4943 0.824258
5468 1 11.6568 52.4943 1.64852
5475 1 13.9881 52.4943 0
5478 1 16.3195 52.4943 0.824258
5474 1 18.6508 52.4943 1.64852
5481 1 20.9822 52.4943 0
5480 1 25.6449 52.4943 1.64852
5484 1 23.3135 52.4943 0.824258
5487 1 27.9762 52.4943 0
5490 1 30.3076 52.4943 0.824258
5486 1 32.6389 52.4943 1.64852
5493 1 34.9703 52.4943 0
5496 1 37.3016 52.4943 0.824258
5464 1 1.16568 54.5133 1.64852
5883 1 0 56.5323 0
5886 1 2.33135 56.5323 0.824258
5461 1 3.49703 54.5133 0
5882 1 4.66271 56.5323 1.64852
5465 1 5.82838 54.5133 0.824258
5470 1 8.15974 54.5133 1.64852
5889 1 6.99406 56.5323 0
5467 1 10.4911 54.5133 0
5892 1 9.32541 56.5323 0.824258
5471 1 12.8224 54.5133 0.824258
5888 1 11.6568 56.5323 1.64852
5895 1 13.9881 56.5323 0
5476 1 15.1538 54.5133 1.64852
5898 1 16.3195 56.5323 0.824258
5473 1 17.4851 54.5133 0
5477 1 19.8165 54.5133 0.824258
5894 1 18.6508 56.5323 1.64852
5482 1 22.1479 54.5133 1.64852
5901 1 20.9822 56.5323 0
5479 1 24.4792 54.5133 0
5900 1 25.6449 56.5323 1.64852
5904 1 23.3135 56.5323 0.824258
5483 1 26.8106 54.5133 0.824258
5907 1 27.9762 56.5323 0
5485 1 31.4733 54.5133 0
5488 1 29.1419 54.5133 1.64852
5910 1 30.3076 56.5323 0.824258
5489 1 33.8046 54.5133 0.824258
5906 1 32.6389 56.5323 1.64852
5494 1 36.136 54.5133 1.64852
5913 1 34.9703 56.5323 0
5916 1 37.3016 56.5323 0.824258
5884 1 1.16568 58.5513 1.64852
5881 1 3.49703 58.5513 0
5885 1 5.82838 58.5513 0.824258
5890 1 8.15974 58.5513 1.64852
5887 1 10.4911 58.5513 0
5891 1 12.8224 58.5513 0.824258
5896 1 15.1538 58.5513 1.64852
5893 1 17.4851 58.5513 0
5897 1 19.8165 58.5513 0.824258
5902 1 22.1479 58.5513 1.64852
5899 1 24.4792 58.5513 0
5903 1 26.8106 58.5513 0.824258
5905 1 31.4733 58.5513 0
5908 1 29.1419 58.5513 1.64852
5909 1 33.8046 58.5513 0.824258
5914 1 36.136 58.5513 1.64852
6303 1 0 60.5703 0
6304 1 1.16568 62.5893 1.64852
6306 1 2.33135 60.5703 0.824258
6301 1 3.49703 62.5893 0
6302 1 4.66271 60.5703 1.64852
6305 1 5.82838 62.5893 0.824258
6309 1 6.99406 60.5703 0
6310 1 8.15974 62.5893 1.64852
6307 1 10.4911 62.5893 0
6312 1 9.32541 60.5703 0.824258
6308 1 11.6568 60.5703 1.64852
6311 1 12.8224 62.5893 0.824258
6315 1 13.9881 60.5703 0
6316 1 15.1538 62.5893 1.64852
6318 1 16.3195 60.5703 0.824258
6313 1 17.4851 62.5893 0
6314 1 18.6508 60.5703 1.64852
6317 1 19.8165 62.5893 0.824258
6321 1 20.9822 60.5703 0
6322 1 22.1479 62.5893 1.64852
6319 1 24.4792 62.5893 0
6320 1 25.6449 60.5703 1.64852
6324 1 23.3135 60.5703 0.824258
6323 1 26.8106 62.5893 0.824258
6327 1 27.9762 60.5703 0
6325 1 31.4733 62.5893 0
6328 1 29.1419 62.5893 1.64852
6330 1 30.3076 60.5703 0.824258
6326 1 32.6389 60.5703 1.64852
6329 1 33.8046 62.5893 0.824258
6333 1 34.9703 60.5703 0
6334 1 36.136 62.5893 1.64852
6336 1 37.3016 60.5703 0.824258
6723 1 0 64.6083 0
6726 1 2.33135 64.6083 0.824258
6722 1 4.66271 64.6083 1.64852
6729 1 6.99406 64.6083 0
6732 1 9.32541 64.6083 0.824258
6728 1 11.6568 64.6083 1.64852
6735 1 13.9881 64.6083 0
6738 1 16.3195 64.6083 0.824258
6734 1 18.6508 64.6083 1.64852
6741 1 20.9822 64.6083 0
6740 1 25.6449 64.6083 1.64852
6744 1 23.3135 64.6083 0.824258
6747 1 27.9762 64.6083 0
6750 1 30.3076 64.6083 0.824258
6746 1 32.6389 64.6083 1.64852
6753 1 34.9703 64.6083 0
6756 1 37.3016 64.6083 0.824258
6724 1 1.16568 66.6274 1.64852
6721 1 3.49703 66.6274 0
6725 1 5.82838 66.6274 0.824258
6730 1 8.15974 66.6274 1.64852
6727 1 10.4911 66.6274 0
6731 1 12.8224 66.6274 0.824258
6736 1 15.1538 66.6274 1.64852
6733 1 17.4851 66.6274 0
6737 1 19.8165 66.6274 0.824258
6742 1 22.1479 66.6274 1.64852
6739 1 24.4792 66.6274 0
6743 1 26.8106 66.6274 0.824258
6745 1 31.4733 66.6274 0
6748 1 29.1419 66.6274 1.64852
6749 1 33.8046 66.6274 0.824258
6754 1 36.136 66.6274 1.64852
7143 1 0 68.6464 0
7144 1 1.16568 70.6654 1.64852
7146 1 2.33135 68.6464 0.824258
7141 1 3.49703 70.6654 0
7142 1 4.66271 68.6464 1.64852
7145 1 5.82838 70.6654 0.824258
7149 1 6.99406 68.6464 0
7150 1 8.15974 70.6654 1.64852
7147 1 10.4911 70.6654 0
7152 1 9.32541 68.6464 0.824258
7148 1 11.6568 68.6464 1.64852
7151 1 12.8224 70.6654 0.824258
7155 1 13.9881 68.6464 0
7156 1 15.1538 70.6654 1.64852
7158 1 16.3195 68.6464 0.824258
7153 1 17.4851 70.6654 0
7154 1 18.6508 68.6464 1.64852
7157 1 19.8165 70.6654 0.824258
7161 1 20.9822 68.6464 0
7162 1 22.1479 70.6654 1.64852
7159 1 24.4792 70.6654 0
7160 1 25.6449 68.6464 1.64852
7164 1 23.3135 68.6464 0.824258
7163 1 26.8106 70.6654 0.824258
7167 1 27.9762 68.6464 0
7165 1 31.4733 70.6654 0
7168 1 29.1419 70.6654 1.64852
7170 1 30.3076 68.6464 0.824258
7166 1 32.6389 68.6464 1.64852
7169 1 33.8046 70.6654 0.824258
7173 1 34.9703 68.6464 0
7174 1 36.136 70.6654 1.64852
7176 1 37.3016 68.6464 0.824258
7563 1 0 72.6844 0
7566 1 2.33135 72.6844 0.824258
7562 1 4.66271 72.6844 1.64852
7569 1 6.99406 72.6844 0
7572 1 9.32541 72.6844 0.824258
7568 1 11.6568 72.6844 1.64852
7575 1 13.9881 72.6844 0
7578 1 16.3195 72.6844 0.824258
7574 1 18.6508 72.6844 1.64852
7581 1 20.9822 72.6844 0
7580 1 25.6449 72.6844 1.64852
7584 1 23.3135 72.6844 0.824258
7587 1 27.9762 72.6844 0
7590 1 30.3076 72.6844 0.824258
7586 1 32.6389 72.6844 1.64852
7593 1 34.9703 72.6844 0
7596 1 37.3016 72.6844 0.824258
7564 1 1.16568 74.7034 1.64852
7983 1 0 76.7224 0
7986 1 2.33135 76.7224 0.824258
7561 1 3.49703 74.7034 0
7982 1 4.66271 76.7224 1.64852
7565 1 5.82838 74.7034 0.824258
7570 1 8.15974 74.7034 1.64852
7989 1 6.99406 76.7224 0
7567 1 10.4911 74.7034 0
7992 1 9.32541 76.7224 0.824258
7571 1 12.8224 74.7034 0.824258
7988 1 11.6568 76.7224 1.64852
7995 1 13.9881 76.7224 0
7576 1 15.1538 74.7034 1.64852
7998 1 16.3195 76.7224 0.824258
7573 1 17.4851 74.7034 0
7577 1 19.8165 74.7034 0.824258
7994 1 18.6508 76.7224 1.64852
7582 1 22.1479 74.7034 1.64852
8001 1 20.9822 76.7224 0
7579 1 24.4792 74.7034 0
8000 1 25.6449 76.7224 1.64852
8004 1 23.3135 76.7224 0.824258
7583 1 26.8106 74.7034 0.824258
8007 1 27.9762 76.7224 0
7585 1 31.4733 74.7034 0
7588 1 29.1419 74.7034 1.64852
8010 1 30.3076 76.7224 0.824258
7589 1 33.8046 74.7034 0.824258
8006 1 32.6389 76.7224 1.64852
7594 1 36.136 74.7034 1.64852
8013 1 34.9703 76.7224 0
8016 1 37.3016 76.7224 0.824258
7984 1 1.16568 78.7414 1.64852
7981 1 3.49703 78.7414 0
7985 1 5.82838 78.7414 0.824258
7990 1 8.15974 78.7414 1.64852
7987 1 10.4911 78.7414 0
7991 1 12.8224 78.7414 0.824258
7996 1 15.1538 78.7414 1.64852
7993 1 17.4851 78.7414 0
7997 1 19.8165 78.7414 0.824258
8002 1 22.1479 78.7414 1.64852
7999 1 24.4792 78.7414 0
8003 1 26.8106 78.7414 0.824258
8005 1 31.4733 78.7414 0
8008 1 29.1419 78.7414 1.64852
8009 1 33.8046 78.7414 0.824258
8014 1 36.136 78.7414 1.64852
8403 1 0 80.7604 0
8406 1 2.33135 80.7604 0.824258
8402 1 4.66271 80.7604 1.64852
8409 1 6.99406 80.7604 0
8412 1 9.32541 80.7604 0.824258
8408 1 11.6568 80.7604 1.64852
8415 1 13.9881 80.7604 0
8418 1 16.3195 80.7604 0.824258
8414 1 18.6508 80.7604 1.64852
8421 1 20.9822 80.7604 0
8420 1 25.6449 80.7604 1.64852
8424 1 23.3135 80.7604 0.824258
8427 1 27.9762 80.7604 0
8430 1 30.3076 80.7604 0.824258
8426 1 32.6389 80.7604 1.64852
8433 1 34.9703 80.7604 0
8436 1 37.3016 80.7604 0.824258
8404 1 1.16568 82.7794 1.64852
8823 1 0 84.7985 0
8826 1 2.33135 84.7985 0.824258
8401 1 3.49703 82.7794 0
8822 1 4.66271 84.7985 1.64852
8405 1 5.82838 82.7794 0.824258
8410 1 8.15974 82.7794 1.64852
8829 1 6.99406 84.7985 0
8407 1 10.4911 82.7794 0
8832 1 9.32541 84.7985 0.824258
8411 1 12.8224 82.7794 0.824258
8828 1 11.6568 84.7985 1.64852
8835 1 13.9881 84.7985 0
8416 1 15.1538 82.7794 1.64852
8838 1 16.3195 84.7985 0.824258
8413 1 17.4851 82.7794 0
8417 1 19.8165 82.7794 0.824258
8834 1 18.6508 84.7985 1.64852
8422 1 22.1479 82.7794 1.64852
8841 1 20.9822 84.7985 0
8419 1 24.4792 82.7794 0
8840 1 25.6449 84.7985 1.64852
8844 1 23.3135 84.7985 0.824258
8423 1 26.8106 82.7794 0.824258
8847 1 27.9762 84.7985 0
8425 1 31.4733 82.7794 0
8428 1 29.1419 82.7794 1.64852
8850 1 30.3076 84.7985 0.824258
8429 1 33.8046 82.7794 0.824258
8846 1 32.6389 84.7985 1.64852
8434 1 36.136 82.7794 1.64852
8853 1 34.9703 84.7985 0
8856 1 37.3016 84.7985 0.824258
8824 1 1.16568 86.8175 1.64852
8821 1 3.49703 86.8175 0
8825 1 5.82838 86.8175 0.824258
8830 1 8.15974 86.8175 1.64852
8827 1 10.4911 86.8175 0
8831 1 12.8224 86.8175 0.824258
8836 1 15.1538 86.8175 1.64852
8833 1 17.4851 86.8175 0
8837 1 19.8165 86.8175 0.824258
8842 1 22.1479 86.8175 1.64852
8839 1 24.4792 86.8175 0
8843 1 26.8106 86.8175 0.824258
8845 1 31.4733 86.8175 0
8848 1 29.1419 86.8175 1.64852
8849 1 33.8046 86.8175 0.824258
8854 1 36.136 86.8175 1.64852
9243 1 0 88.8365 0
9244 1 1.16568 90.8555 1.64852
9246 1 2.33135 88.8365 0.824258
9241 1 3.49703 90.8555 0
9242 1 4.66271 88.8365 1.64852
9245 1 5.82838 90.8555 0.824258
9249 1 6.99406 88.8365 0
9250 1 8.15974 90.8555 1.64852
9247 1 10.4911 90.8555 0
9252 1 9.32541 88.8365 0.824258
9248 1 11.6568 88.8365 1.64852
9251 1 12.8224 90.8555 0.824258
9255 1 13.9881 88.8365 0
9256 1 15.1538 90.8555 1.64852
9258 1 16.3195 88.8365 0.824258
9253 1 17.4851 90.8555 0
9254 1 18.6508 88.8365 1.64852
9257 1 19.8165 90.8555 0.824258
9261 1 20.9822 88.8365 0
9262 1 22.1479 90.8555 1.64852
9259 1 24.4792 90.8555 0
9260 1 25.6449 88.8365 1.64852
9264 1 23.3135 88.8365 0.824258
9263 1 26.8106 90.8555 0.824258
9267 1 27.9762 88.8365 0
9265 1 31.4733 90.8555 0
9268 1 29.1419 90.8555 1.64852
9270 1 30.3076 88.8365 0.824258
9266 1 32.6389 88.8365 1.64852
9269 1 33.8046 90.8555 0.824258
9273 1 34.9703 88.8365 0
9274 1 36.136 90.8555 1.64852
9276 1 37.3016 88.8365 0.824258
9663 1 0 92.8745 0
9666 1 2.33135 92.8745 0.824258
9662 1 4.66271 92.8745 1.64852
9669 1 6.99406 92.8745 0
9672 1 9.32541 92.8745 0.824258
9668 1 11.6568 92.8745 1.64852
9675 1 13.9881 92.8745 0
9678 1 16.3195 92.8745 0.824258
9674 1 18.6508 92.8745 1.64852
9681 1 20.9822 92.8745 0
9680 1 25.6449 92.8745 1.64852
9684 1 23.3135 92.8745 0.824258
9687 1 27.9762 92.8745 0
9690 1 30.3076 92.8745 0.824258
9686 1 32.6389 92.8745 1.64852
9693 1 34.9703 92.8745 0
9696 1 37.3016 92.8745 0.824258
9664 1 1.16568 94.8935 1.64852
10083 1 0 96.9125 0
10086 1 2.33135 96.9125 0.824258
9661 1 3.49703 94.8935 0
10082 1 4.66271 96.9125 1.64852
9665 1 5.82838 94.8935 0.824258
9670 1 8.15974 94.8935 1.64852
10089 1 6.99406 96.9125 0
9667 1 10.4911 94.8935 0
10092 1 9.32541 96.9125 0.824258
9671 1 12.8224 94.8935 0.824258
10088 1 11.6568 96.9125 1.64852
10095 1 13.9881 96.9125 0
9676 1 15.1538 94.8935 1.64852
10098 1 16.3195 96.9125 0.824258
9673 1 17.4851 94.8935 0
9677 1 19.8165 94.8935 0.824258
10094 1 18.6508 96.9125 1.64852
9682 1 22.1479 94.8935 1.64852
10101 1 20.9822 96.9125 0
9679 1 24.4792 94.8935 0
10100 1 25.6449 96.9125 1.64852
10104 1 23.3135 96.9125 0.824258
9683 1 26.8106 94.8935 0.824258
10107 1 27.9762 96.9125 0
9685 1 31.4733 94.8935 0
9688 1 29.1419 94.8935 1.64852
10110 1 30.3076 96.9125 0.824258
9689 1 33.8046 94.8935 0.824258
10106 1 32.6389 96.9125 1.64852
9694 1 36.136 94.8935 1.64852
10113 1 34.9703 96.9125 0
10116 1 37.3016 96.9125 0.824258
10084 1 1.16568 98.9315 1.64852
10081 1 3.49703 98.9315 0
10085 1 5.82838 98.9315 0.824258
10090 1 8.15974 98.9315 1.64852
10087 1 10.4911 98.9315 0
10091 1 12.8224 98.9315 0.824258
10096 1 15.1538 98.9315 1.64852
10093 1 17.4851 98.9315 0
10097 1 19.8165 98.9315 0.824258
10102 1 22.1479 98.9315 1.64852
10099 1 24.4792 98.9315 0
10103 1 26.8106 98.9315 0.824258
10105 1 31.4733 98.9315 0
10108 1 29.1419 98.9315 1.64852
10109 1 33.8046 98.9315 0.824258
10114 1 36.136 98.9315 1.64852
10503 1 0 100.951 0
10506 1 2.33135 100.951 0.824258
10502 1 4.66271 100.951 1.64852
10509 1 6.99406 100.951 0
10512 1 9.32541 100.951 0.824258
10508 1 11.6568 100.951 1.64852
10515 1 13.9881 100.951 0
10518 1 16.3195 100.951 0.824258
10514 1 18.6508 100.951 1.64852
10521 1 20.9822 100.951 0
10520 1 25.6449 100.951 1.64852
10524 1 23.3135 100.951 0.824258
10527 1 27.9762 100.951 0
10530 1 30.3076 100.951 0.824258
10526 1 32.6389 100.951 1.64852
10533 1 34.9703 100.951 0
10536 1 37.3016 100.951 0.824258
10504 1 1.16568 102.97 1.64852
10923 1 0 104.989 0
10926 1 2.33135 104.989 0.824258
10501 1 3.49703 102.97 0
10922 1 4.66271 104.989 1.64852
10505 1 5.82838 102.97 0.824258
10510 1 8.15974 102.97 1.64852
10929 1 6.99406 104.989 0
10507 1 10.4911 102.97 0
10932 1 9.32541 104.989 0.824258
10511 1 12.8224 102.97 0.824258
10928 1 11.6568 104.989 1.64852
10935 1 13.9881 104.989 0
10516 1 15.1538 102.97 1.64852
10938 1 16.3195 104.989 0.824258
10513 1 17.4851 102.97 0
10517 1 19.8165 102.97 0.824258
10934 1 18.6508 104.989 1.64852
10522 1 22.1479 102.97 1.64852
10941 1 20.9822 104.989 0
10519 1 24.4792 102.97 0
10940 1 25.6449 104.989 1.64852
10944 1 23.3135 104.989 0.824258
10523 1 26.8106 102.97 0.824258
10947 1 27.9762 104.989 0
10525 1 31.4733 102.97 0
10528 1 29.1419 102.97 1.64852
10950 1 30.3076 104.989 0.824258
10529 1 33.8046 102.97 0.824258
10946 1 32.6389 104.989 1.64852
10534 1 36.136 102.97 1.64852
10953 1 34.9703 104.989 0
10956 1 37.3016 104.989 0.824258
10924 1 1.16568 107.008 1.64852
10921 1 3.49703 107.008 0
10925 1 5.82838 107.008 0.824258
10930 1 8.15974 107.008 1.64852
10927 1 10.4911 107.008 0
10931 1 12.8224 107.008 0.824258
10936 1 15.1538 107.008 1.64852
10933 1 17.4851 107.008 0
10937 1 19.8165 107.008 0.824258
10942 1 22.1479 107.008 1.64852
10939 1 24.4792 107.008 0
10943 1 26.8106 107.008 0.824258
10945 1 31.4733 107.008 0
10948 1 29.1419 107.008 1.64852
10949 1 33.8046 107.008 0.824258
10954 1 36.136 107.008 1.64852
11343 1 0 109.027 0
11344 1 1.16568 111.046 1.64852
11346 1 2.33135 109.027 0.824258
11341 1 3.49703 111.046 0
11342 1 4.66271 109.027 1.64852
11345 1 5.82838 111.046 0.824258
11349 1 6.99406 109.027 0
11350 1 8.15974 111.046 1.64852
11347 1 10.4911 111.046 0
11352 1 9.32541 109.027 0.824258
11348 1 11.6568 109.027 1.64852
11351 1 12.8224 111.046 0.824258
11355 1 13.9881 109.027 0
11356 1 15.1538 111.046 1.64852
11358 1 16.3195 109.027 0.824258
11353 1 17.4851 111.046 0
11354 1 18.6508 109.027 1.64852
11357 1 19.8165 111.046 0.824258
11361 1 20.9822 109.027 0
11362 1 22.1479 111.046 1.64852
11359 1 24.4792 111.046 0
11360 1 25.6449 109.027 1.64852
11364 1 23.3135 109.027 0.824258
11363 1 26.8106 111.046 0.824258
11367 1 27.9762 109.027 0
11365 1 31.4733 111.046 0
11368 1 29.1419 111.046 1.64852
11370 1 30.3076 109.027 0.824258
11366 1 32.6389 109.027 1.64852
11369 1 33.8046 111.046 0.824258
11373 1 34.9703 109.027 0
11374 1 36.136 111.046 1.64852
11376 1 37.3016 109.027 0.824258
11763 1 0 113.065 0
11766 1 2.33135 113.065 0.824258
11762 1 4.66271 113.065 1.64852
11769 1 6.99406 113.065 0
11772 1 9.32541 113.065 0.824258
11768 1 11.6568 113.065 1.64852
11775 1 13.9881 113.065 0
11778 1 16.3195 113.065 0.824258
11774 1 18.6508 113.065 1.64852
11781 1 20.9822 113.065 0
11780 1 25.6449 113.065 1.64852
11784 1 23.3135 113.065 0.824258
11787 1 27.9762 113.065 0
11790 1 30.3076 113.065 0.824258
11786 1 32.6389 113.065 1.64852
11793 1 34.9703 113.065 0
11796 1 37.3016 113.065 0.824258
11764 1 1.16568 115.084 1.64852
11761 1 3.49703 115.084 0
11765 1 5.82838 115.084 0.824258
11770 1 8.15974 115.084 1.64852
11767 1 10.4911 115.084 0
11771 1 12.8224 115.084 0.824258
11776 1 15.1538 115.084 1.64852
11773 1 17.4851 115.084 0
11777 1 19.8165 115.084 0.824258
11782 1 22.1479 115.084 1.64852
11779 1 24.4792 115.084 0
11783 1 26.8106 115.084 0.824258
11785 1 31.4733 115.084 0
11788 1 29.1419 115.084 1.64852
11789 1 33.8046 115.084 0.824258
11794 1 36.136 115.084 1.64852
12183 1 0 117.103 0
12184 1 1.16568 119.122 1.64852
12186 1 2.33135 117.103 0.824258
12181 1 3.49703 119.122 0
12182 1 4.66271 117.103 1.64852
12185 1 5.82838 119.122 0.824258
12189 1 6.99406 117.103 0
12190 1 8.15974 119.122 1.64852
12187 1 10.4911 119.122 0
12192 1 9.32541 117.103 0.824258
12188 1 11.6568 117.103 1.64852
12191 1 12.8224 119.122 0.824258
12195 1 13.9881 117.103 0
12196 1 15.1538 119.122 1.64852
12198 1 16.3195 117.103 0.824258
12193 1 17.4851 119.122 0
12194 1 18.6508 117.103 1.64852
12197 1 19.8165 119.122 0.824258
12201 1 20.9822 117.103 0
12202 1 22.1479 119.122 1.64852
12199 1 24.4792 119.122 0
12200 1 25.6449 117.103 1.64852
12204 1 23.3135 117.103 0.824258
12203 1 26.8106 119.122 0.824258
12207 1 27.9762 117.103 0
12205 1 31.4733 119.122 0
12208 1 29.1419 119.122 1.64852
12210 1 30.3076 117.103 0.824258
12206 1 32.6389 117.103 1.64852
12209 1 33.8046 119.122 0.824258
12213 1 34.9703 117.103 0
12214 1 36.136 119.122 1.64852
12216 1 37.3016 117.103 0.824258
12603 1 0 121.141 0
12606 1 2.33135 121.141 0.824258
12602 1 4.66271 121.141 1.64852
12609 1 6.99406 121.141 0
12612 1 9.32541 121.141 0.824258
12608 1 11.6568 121.141 1.64852
12615 1 13.9881 121.141 0
12618 1 16.3195 121.141 0.824258
12614 1 18.6508 121.141 1.64852
12621 1 20.9822 121.141 0
12620 1 25.6449 121.141 1.64852
12624 1 23.3135 121.141 0.824258
12627 1 27.9762 121.141 0
12630 1 30.3076 121.141 0.824258
12626 1 32.6389 121.141 1.64852
12633 1 34.9703 121.141 0
12636 1 37.3016 121.141 0.824258
12604 1 1.16568 123.16 1.64852
13023 1 0 125.179 0
13026 1 2.33135 125.179 0.824258
12601 1 3.49703 123.16 0
13022 1 4.66271 125.179 1.64852
12605 1 5.82838 123.16 0.824258
12610 1 8.15974 123.16 1.64852
13029 1 6.99406 125.179 0
12607 1 10.4911 123.16 0
13032 1 9.32541 125.179 0.824258
12611 1 12.8224 123.16 0.824258
13028 1 11.6568 125.179 1.64852
13035 1 13.9881 125.179 0
12616 1 15.1538 123.16 1.64852
13038 1 16.3195 125.179 0.824258
12613 1 17.4851 123.16 0