LAMMPS (29 Oct 2020)
OMP_NUM_THREADS environment is not set. Defaulting to 1 thread. (../comm.cpp:94)
  using 1 OpenMP thread(s) per MPI task
#---------------------------------------
#
# This script is used to calculate the thermal conuctivity of UO2 using Muller-Plathe method
# By Ziqiang Wang on 03/18/2022 on Jilin university
#
#---------------------------------------

variable     Nevery    equal   50
variable     T         equal   600

clear
OMP_NUM_THREADS environment is not set. Defaulting to 1 thread. (../comm.cpp:94)
  using 1 OpenMP thread(s) per MPI task
units          metal
boundary       p p p
atom_style     full

read_data vac_0.005_relaxed.dat
Reading data file ...
  orthogonal box = (-0.36111329 -4.1846755 -0.35483882) to (27.701113 332.26468 27.694839)
  2 by 13 by 2 MPI processor grid
  reading atoms ...
  17910 atoms
  reading velocities ...
  17910 velocities
Finding 1-2 1-3 1-4 neighbors ...
  special bond factors lj:    0.0      0.0      0.0     
  special bond factors coul:  0.0      0.0      0.0     
     0 = max # of 1-2 neighbors
     0 = max # of 1-3 neighbors
     0 = max # of 1-4 neighbors
     1 = max # of special neighbors
  special bonds CPU = 0.003 seconds
  read_data CPU = 0.066 seconds

set           type     1    charge     -1.1104
Setting atom values ...
  11940 settings made for charge
set           type     2    charge      2.2208
Setting atom values ...
  5970 settings made for charge

kspace_style    pppm   1.0e-05
pair_style      hybrid/overlay  coul/long  11.0  eam/alloy
pair_coeff      * * coul/long
pair_coeff      * * eam/alloy CeThUNpPuAmCmO.eam.alloy O Th
newton          on
neighbor        0.3 bin
neigh_modify    delay 0 check yes every 1

#The first equilation
velocity        all create $T 10002 mom yes rot yes dist gaussian
velocity        all create 600 10002 mom yes rot yes dist gaussian
fix             nvt  all  nvt  temp  $T $T  0.1
fix             nvt  all  nvt  temp  600 $T  0.1
fix             nvt  all  nvt  temp  600 600  0.1

run             100000
PPPM initialization ...
  using 12-bit tables for long-range coulomb (../kspace.cpp:328)
  G vector (1/distance) = 0.29885966
  grid = 40 240 40
  stencil order = 5
  estimated absolute RMS force accuracy = 0.00015707368
  estimated relative force accuracy = 1.0908164e-05
  using single precision MKL FFT
  3d grid and FFT values/proc = 15000 7600
Neighbor list info ...
  update every 1 steps, delay 0 steps, check yes
  max neighbors/atom: 2000, page size: 100000
  master list distance cutoff = 11.3
  ghost atom cutoff = 11.3
  binsize = 5.65, bins = 5 60 5
  2 neighbor lists, perpetual/occasional/extra = 2 0 0
  (1) pair coul/long, perpetual
      attributes: half, newton on
      pair build: half/bin/newton
      stencil: half/bin/3d/newton
      bin: standard
  (2) pair eam/alloy, perpetual, copy from (1)
      attributes: half, newton on
      pair build: copy
      stencil: none
      bin: none
Per MPI rank memory allocation (min/avg/max) = 8.152 | 8.184 | 8.204 Mbytes
Step Temp E_pair E_mol TotEng Press 
       0          600   -234249.81            0   -232860.86    -46.16857 
  100000    595.18249   -234248.37            0   -232870.57   -203.43896 
Loop time of 645.083 on 52 procs for 100000 steps with 17910 atoms

Performance: 13.394 ns/day, 1.792 hours/ns, 155.019 timesteps/s
99.8% CPU use with 52 MPI tasks x 1 OpenMP threads

MPI task timing breakdown:
Section |  min time  |  avg time  |  max time  |%varavg| %total
---------------------------------------------------------------
Pair    | 427.03     | 450.26     | 461.24     |  35.5 | 69.80
Bond    | 0.0060501  | 0.010255   | 0.015556   |   2.0 |  0.00
Kspace  | 128.51     | 140.76     | 166.04     |  71.9 | 21.82
Neigh   | 30.517     | 34.859     | 37.402     |  23.6 |  5.40
Comm    | 13.945     | 14.868     | 16.993     |  19.1 |  2.30
Output  | 5.7251e-05 | 6.2526e-05 | 0.00026294 |   0.0 |  0.00
Modify  | 1.6845     | 3.0564     | 5.251      |  62.2 |  0.47
Other   |            | 1.271      |            |       |  0.20

Nlocal:        344.423 ave         366 max         310 min
Histogram: 1 3 0 2 5 13 10 7 7 4
Nghost:        4154.52 ave        4271 max        3952 min
Histogram: 3 1 0 4 8 4 4 13 11 4
Neighs:        69317.3 ave       73817 max       58616 min
Histogram: 2 0 0 2 0 7 13 9 13 6

Total # of neighbors = 3604501
Ave neighs/atom = 201.25634
Ave special neighs/atom = 0.0000000
Neighbor list builds = 16229
Dangerous builds = 0
unfix           nvt
reset_timestep  0

# the second run
fix             1 all nve

group           oxygen type 1
11940 atoms in group oxygen
fix             2 oxygen thermal/conductivity ${Nevery} y 20
fix             2 oxygen thermal/conductivity 50 y 20

compute         ke all ke/atom
variable        temp atom c_ke/1.5
compute         layers all chunk/atom bin/1d y lower 0.05 units reduced
fix             3      all ave/chunk  2000 50 100000 layers v_temp file profile_${T}K.mp
fix             3      all ave/chunk  2000 50 100000 layers v_temp file profile_600K.mp

variable        Tdiff    equal     f_3[11][3]-f_3[1][3]
variable        deltaT   equal     v_Tdiff*1.5/0.0001292

timestep        0.001
thermo_style    custom step f_2 temp v_Tdiff v_deltaT
thermo          100000

run             1500000
PPPM initialization ...
  using 12-bit tables for long-range coulomb (../kspace.cpp:328)
  G vector (1/distance) = 0.29885966
  grid = 40 240 40
  stencil order = 5
  estimated absolute RMS force accuracy = 0.00015707368
  estimated relative force accuracy = 1.0908164e-05
  using single precision MKL FFT
  3d grid and FFT values/proc = 15000 7600
Per MPI rank memory allocation (min/avg/max) = 8.403 | 8.435 | 8.455 Mbytes
Step f_2 Temp v_Tdiff v_deltaT 
       0            0    595.18249            0            0 
  100000    703.90206    602.01691  0.016112334     187.0627 
  200000    1392.3163    594.44065  0.017809666    206.76856 
  300000     2085.524    597.67602  0.017208133    199.78483 
  400000    2781.1866    594.01341  0.017323107    201.11967 
  500000    3475.1895    598.13887  0.017626998    204.64781 
  600000    4168.5399    601.32123  0.016735685    194.29975 
  700000    4854.7685    594.66497  0.017728423    205.82535 
  800000    5539.5103    594.01136   0.01807759    209.87914 
  900000    6230.2291    595.75053  0.017567501    203.95706 
 1000000      6922.11    596.07214  0.017196364    199.64819 
 1100000    7613.0336    596.36775  0.017217775    199.89677 
 1200000    8304.0423    594.23349  0.017493027    203.09242 
 1300000    8995.3688    598.81251  0.017077313    198.26602 
 1400000    9687.1597    595.25304  0.017648381    204.89607 
 1500000    10385.279    599.69747   0.01713181    198.89872 
Loop time of 9557.15 on 52 procs for 1500000 steps with 17910 atoms

Performance: 13.561 ns/day, 1.770 hours/ns, 156.951 timesteps/s
99.8% CPU use with 52 MPI tasks x 1 OpenMP threads

MPI task timing breakdown:
Section |  min time  |  avg time  |  max time  |%varavg| %total
---------------------------------------------------------------
Pair    | 6293.4     | 6638.6     | 6820.8     | 141.6 | 69.46
Bond    | 0.099391   | 0.15256    | 0.2119     |   6.6 |  0.00
Kspace  | 1910.3     | 2112.2     | 2494.8     | 282.2 | 22.10
Neigh   | 461.68     | 532.69     | 570.61     |  93.3 |  5.57
Comm    | 209.86     | 222.64     | 254.34     |  71.5 |  2.33
Output  | 0.001573   | 0.0016918  | 0.003376   |   0.6 |  0.00
Modify  | 8.0204     | 8.6682     | 9.3923     |  11.7 |  0.09
Other   |            | 42.12      |            |       |  0.44

Nlocal:        344.423 ave         366 max         306 min
Histogram: 1 1 2 0 4 12 11 8 8 5
Nghost:        4145.69 ave        4275 max        3931 min
Histogram: 4 0 0 0 5 14 14 2 7 6
Neighs:        69317.7 ave       74206 max       59919 min
Histogram: 2 1 0 1 3 10 14 10 5 6

Total # of neighbors = 3604519
Ave neighs/atom = 201.25734
Ave special neighs/atom = 0.0000000
Neighbor list builds = 247401
Dangerous builds = 0

Total wall time: 2:50:02
