ITEM: TIMESTEP
100000
ITEM: NUMBER OF ATOMS
17640
ITEM: BOX BOUNDS pp pp pp
-3.5745260845831484e-01 2.7697452608459237e+01
-4.2778293220437718e+00 3.3235782932204842e+02
-3.6250902786275946e-01 2.7702509027862650e+01
ITEM: ATOMS id type q x y z
1 2 2.2208 5.35936 1.39891 5.06794
2 1 -1.1104 1.08253 -2.93032 1.04916
3 1 -1.1104 1.07275 2.75013 1.1425
6 1 -1.1104 1.12384 -2.87455 4.07146
7 1 -1.1104 0.825277 2.70159 3.86999
10 1 -1.1104 1.01989 0.0642329 1.0991
12 2 2.2208 5.20503 -1.54713 2.42695
14 1 -1.1104 1.18371 -0.0608253 3.7483
16 1 -1.1104 3.87881 -2.90844 1.19023
17 1 -1.1104 3.82461 2.71813 0.93453
18 2 2.2208 2.43323 1.42523 2.48326
19 1 -1.1104 3.92523 -2.67005 4.01912
20 1 -1.1104 3.75559 2.87625 3.70551
21 2 2.2208 2.51435 -1.38563 5.36917
23 1 -1.1104 3.7738 -0.21183 1.24797
24 1 -1.1104 3.87494 0.179796 3.96199
13 2 2.2208 5.11651 4.16337 2.38268
22 2 2.2208 2.46475 4.11102 5.26582
83 2 2.2208 -0.234176 12.3805 5.19776
51 2 2.2208 8.0976 -4.21034 2.5371
30 2 2.2208 -0.32186 -4.19429 5.32723
29 2 2.2208 5.3002 -4.23249 5.43506
4 1 -1.1104 6.63147 -2.71858 1.01243
202 2 2.2208 2.50412 -4.1762 8.13741
367 2 2.2208 -0.281451 4.25997 13.6919
173 1 -1.1104 3.8992 2.78721 6.62276
8 1 -1.1104 6.64861 -2.81028 3.82406
11 1 -1.1104 6.67654 0.0190817 1.0331
9 1 -1.1104 6.65035 2.67173 3.62812
5 1 -1.1104 6.71218 2.86276 0.933293
15 1 -1.1104 6.66644 -0.0582332 3.78938
31 2 2.2208 10.9526 1.39013 5.07898
32 1 -1.1104 12.4228 -2.78628 1.18184
33 1 -1.1104 12.3089 2.67852 0.921934
34 1 -1.1104 12.2158 -2.82426 4.07772
35 1 -1.1104 12.3515 2.6725 3.72739
36 1 -1.1104 12.3959 0.00374949 1.08264
37 2 2.2208 10.9449 -1.4572 2.37804
38 2 2.2208 10.8432 4.15457 2.35251
39 1 -1.1104 12.389 -0.145877 3.8921
40 1 -1.1104 9.50609 -2.82717 1.01637
41 1 -1.1104 9.52817 2.90878 0.941212
42 2 2.2208 8.12785 1.40828 2.44613
43 1 -1.1104 9.49494 -2.71485 3.71113
44 1 -1.1104 9.43197 2.79923 3.76367
45 2 2.2208 8.16611 -1.3855 5.07063
47 1 -1.1104 9.46594 0.111794 1.0892
48 1 -1.1104 9.49679 0.0665193 3.85911
46 2 2.2208 8.09106 4.16439 5.08231
203 2 2.2208 5.31137 -4.15681 10.8199
343 2 2.2208 -0.261616 9.75101 8.04988
351 2 2.2208 -0.283281 15.3438 13.671
358 2 2.2208 -0.257961 9.72627 13.655
209 1 -1.1104 9.50028 2.71813 6.52443
232 2 2.2208 10.8462 -4.15726 10.822
54 2 2.2208 5.23003 6.88132 5.16827
55 2 2.2208 5.36629 12.5921 5.17161
56 1 -1.1104 0.846626 8.3891 0.863941
58 1 -1.1104 1.04191 8.30758 3.80032
60 1 -1.1104 0.896071 5.57387 1.01736
61 1 -1.1104 1.02186 11.0647 1.06547
66 2 2.2208 5.35326 9.8356 2.44448
67 1 -1.1104 0.995899 5.537 3.85162
68 1 -1.1104 0.985553 11.0842 3.70702
71 1 -1.1104 3.853 8.3291 0.819431
72 2 2.2208 2.28088 6.85664 2.35537
73 2 2.2208 2.50654 12.5281 2.42076
74 1 -1.1104 3.7275 8.2993 3.85431
75 2 2.2208 2.53653 9.7433 5.27368
76 1 -1.1104 3.7648 5.57533 1.05975
77 1 -1.1104 3.82758 11.0613 0.995195
79 1 -1.1104 3.74564 5.57877 3.87191
80 1 -1.1104 3.92596 11.1853 3.8883
332 2 2.2208 13.7273 18.2137 7.93382
59 1 -1.1104 6.54165 8.32385 3.79144
70 1 -1.1104 6.87097 11.0921 3.69016
81 2 2.2208 -0.378347 6.88644 5.20719
329 1 -1.1104 12.4177 19.7215 12.3144
234 1 -1.1104 1.09449 8.27511 6.58127
239 1 -1.1104 3.96064 5.47502 6.72765
78 1 -1.1104 3.92713 11.2371 6.72225
238 1 -1.1104 4.00122 8.4017 6.69768
312 2 2.2208 -0.358058 18.1352 10.9011
324 2 2.2208 10.8834 21.0715 7.97035
342 2 2.2208 -0.290911 12.4496 10.8334
69 1 -1.1104 6.64995 5.41318 3.81036
64 1 -1.1104 6.63333 11.0672 0.869168
63 1 -1.1104 6.56212 5.76649 0.790459
57 1 -1.1104 6.80121 8.39393 0.820226
84 2 2.2208 10.9568 6.90375 5.20502
85 2 2.2208 10.9893 12.4881 5.21553
86 1 -1.1104 12.3168 8.35502 1.11737
87 1 -1.1104 12.2992 8.23047 3.82832
88 1 -1.1104 12.1514 5.53515 0.962217
89 1 -1.1104 12.2106 11.1223 1.17514
91 2 2.2208 10.9286 9.72666 2.39556
92 1 -1.1104 12.2864 5.3927 3.85812
93 1 -1.1104 12.2935 10.9606 3.85576
94 1 -1.1104 9.45382 8.40751 1.04279
95 2 2.2208 7.99076 6.97562 2.36417
96 2 2.2208 8.18615 12.4749 2.33792
97 1 -1.1104 9.40063 8.3912 3.88769
98 2 2.2208 8.21662 9.69755 5.194
99 1 -1.1104 9.45535 5.57844 1.02631
100 1 -1.1104 9.48102 11.1252 0.87815
102 1 -1.1104 9.49767 5.59764 3.757
103 1 -1.1104 9.66808 11.1417 3.70269
101 1 -1.1104 9.52629 11.1558 6.63373
266 1 -1.1104 12.3792 5.39563 6.64513
269 1 -1.1104 9.53642 5.52466 6.57626
28 2 2.2208 2.46406 -4.22479 2.64719
199 2 2.2208 -0.344753 4.02739 8.17336
231 2 2.2208 8.05911 -4.29795 7.98909
204 2 2.2208 -0.264794 -4.19144 11.044
137 2 2.2208 -0.257001 18.0988 5.14598
106 2 2.2208 5.28629 18.0289 5.32779
107 1 -1.1104 0.958045 13.8812 1.12648
109 1 -1.1104 1.23418 19.5026 1.03387
113 1 -1.1104 1.0788 13.9578 3.85281
114 1 -1.1104 1.06444 19.5286 3.85934
116 1 -1.1104 1.16836 16.7941 1.12999
119 2 2.2208 5.21559 15.3047 2.50031
120 2 2.2208 5.4241 20.9719 2.48464
121 1 -1.1104 1.24888 16.7788 3.85383
123 1 -1.1104 3.74334 13.9992 1.00821
125 1 -1.1104 4.0241 19.6503 1.00578
127 2 2.2208 2.58253 18.1591 2.39368
128 1 -1.1104 3.82602 13.7476 3.92806
129 1 -1.1104 3.98275 19.427 3.69112
130 2 2.2208 2.32804 15.3202 5.21704
131 2 2.2208 2.57498 20.9777 5.16951
132 1 -1.1104 3.83844 16.8614 1.10284
134 1 -1.1104 3.79443 16.6343 4.00415
404 2 2.2208 5.30763 18.1449 -0.365893
110 1 -1.1104 6.5364 13.7991 1.20334
140 1 -1.1104 6.58297 16.6432 1.03565
115 1 -1.1104 6.83271 13.8516 3.82959
136 2 2.2208 -0.272289 20.936 2.42234
133 1 -1.1104 3.86425 16.6924 6.84119
126 1 -1.1104 3.89027 19.4654 6.48745
289 1 -1.1104 6.73651 16.6717 9.3558
145 1 -1.1104 12.3883 19.5658 6.53153
122 1 -1.1104 6.54684 16.607 3.93039
139 1 -1.1104 6.62042 19.5074 3.89285
138 1 -1.1104 6.793 19.4392 1.07642
141 2 2.2208 10.8801 18.1924 5.10277
142 1 -1.1104 12.3701 13.8915 1.05501
144 1 -1.1104 12.1941 19.4615 1.02895
146 1 -1.1104 12.2577 13.9755 3.68189
147 1 -1.1104 12.2158 19.5092 3.80354
148 1 -1.1104 12.2697 16.7212 0.924934
150 2 2.2208 10.8288 15.2111 2.30967
151 2 2.2208 10.8224 20.9287 2.50721
152 1 -1.1104 12.3223 16.8176 3.68784
153 1 -1.1104 9.39707 13.8892 0.953563
155 1 -1.1104 9.41123 19.4915 1.18802
157 2 2.2208 7.96762 17.9912 2.45339
158 1 -1.1104 9.63095 13.9582 3.72159
159 1 -1.1104 9.47862 19.4748 3.89816
160 2 2.2208 8.16797 15.2536 5.24396
161 2 2.2208 7.94095 20.872 5.12368
162 1 -1.1104 9.44244 16.6044 1.07338
164 1 -1.1104 9.39425 16.657 3.78951
163 1 -1.1104 9.6275 16.7574 6.58365
154 1 -1.1104 9.38462 13.9414 6.67758
143 1 -1.1104 12.3202 13.8789 6.56949
112 1 -1.1104 6.70325 19.4005 6.42387
111 1 -1.1104 6.71503 13.8893 6.6467
135 2 2.2208 -0.238306 15.2604 2.38251
311 2 2.2208 -0.290807 20.8411 8.0101
325 2 2.2208 10.8719 15.3316 7.95127
314 1 -1.1104 9.58123 16.7644 9.38699
167 1 -1.1104 1.0993 2.68423 6.83655
170 1 -1.1104 0.978241 -0.127219 6.70674
172 1 -1.1104 3.96962 -2.78061 6.7887
166 1 -1.1104 1.09099 -2.88072 6.78652
174 1 -1.1104 3.91629 -0.00479228 6.62447
175 2 2.2208 5.23187 1.26872 10.8745
176 1 -1.1104 0.917009 -2.60107 12.2183
177 1 -1.1104 0.922452 2.84643 12.4643
180 1 -1.1104 1.02634 -2.89702 9.47897
181 1 -1.1104 1.03437 2.62592 9.54451
184 1 -1.1104 1.14717 0.134688 12.2805
186 2 2.2208 5.33089 -1.34358 8.00268
187 2 2.2208 5.28286 4.1835 7.99892
188 1 -1.1104 1.06746 -0.0616957 9.55241
190 1 -1.1104 3.77543 -2.83672 12.2043
191 1 -1.1104 3.74939 2.55087 12.358
192 2 2.2208 2.3758 1.27301 8.10672
193 1 -1.1104 3.89366 -2.75076 9.49004
194 1 -1.1104 3.79485 2.71286 9.52779
195 2 2.2208 2.43335 -1.36061 10.7885
196 2 2.2208 2.42693 4.09875 10.897
197 1 -1.1104 3.93956 -0.0665015 12.1699
198 1 -1.1104 3.81433 -0.0110786 9.36234
200 2 2.2208 -0.355097 -1.42434 8.20412
182 1 -1.1104 6.62325 -2.95818 9.31015
326 1 -1.1104 12.5078 16.7951 12.1797
317 2 2.2208 8.12289 15.2438 10.746
339 2 2.2208 13.6172 6.87267 8.13369
168 1 -1.1104 6.79086 -2.86004 6.58132
169 1 -1.1104 6.77568 2.69773 6.43144
178 1 -1.1104 6.82396 -2.83806 12.0366
171 1 -1.1104 6.79482 -0.0585129 6.58268
207 1 -1.1104 12.3025 0.0217923 6.66228
210 1 -1.1104 9.48625 -0.134042 6.64449
185 1 -1.1104 6.77449 0.0323973 12.3302
206 1 -1.1104 12.2355 2.66285 6.65561
205 1 -1.1104 12.476 -3.00019 6.77972
208 1 -1.1104 9.52196 -2.95626 6.5865
189 1 -1.1104 6.66035 -0.0347586 9.54212
179 1 -1.1104 6.69969 2.84105 12.2696
183 1 -1.1104 6.62274 2.67899 9.48176
211 2 2.2208 10.9192 1.38169 10.8611
212 1 -1.1104 12.4321 -2.84315 12.2581
213 1 -1.1104 12.3382 2.69046 12.3776
214 1 -1.1104 12.2011 -2.89155 9.51429
215 1 -1.1104 12.3055 2.85949 9.44256
216 1 -1.1104 12.391 0.0142736 12.157
217 2 2.2208 10.7335 -1.44077 7.96407
219 1 -1.1104 12.3449 -0.0762897 9.45098
220 1 -1.1104 9.59598 -2.7269 12.3258
221 1 -1.1104 9.45319 2.71073 12.3704
222 2 2.2208 7.95732 1.42095 8.06291
223 1 -1.1104 9.45652 -2.7608 9.3947
224 1 -1.1104 9.50997 2.61035 9.45713
225 2 2.2208 8.2478 -1.39899 10.9232
226 2 2.2208 8.0282 4.01445 10.8966
227 1 -1.1104 9.47658 -0.00662867 12.3739
228 1 -1.1104 9.49514 -0.029358 9.52126
218 2 2.2208 10.847 4.04118 7.96781
334 2 2.2208 13.7413 4.10944 5.2703
327 1 -1.1104 12.2887 19.4096 9.40819
316 2 2.2208 8.02822 20.8686 10.7843
62 1 -1.1104 1.2214 11.0432 6.60828
236 1 -1.1104 1.17444 5.50277 6.6327
240 2 2.2208 5.33569 6.81173 10.7831
241 2 2.2208 5.31049 12.4883 10.813
242 1 -1.1104 1.10981 8.37709 12.0485
244 1 -1.1104 1.24064 8.25697 9.29539
246 1 -1.1104 0.997475 5.5879 12.2911
247 1 -1.1104 1.253 11.0881 12.2058
250 2 2.2208 5.34818 9.7057 7.98165
251 1 -1.1104 1.05908 5.50649 9.5081
252 1 -1.1104 1.30414 11.2091 9.41716
255 1 -1.1104 3.78042 8.17505 12.1649
256 2 2.2208 2.55805 6.90661 7.95828
257 2 2.2208 2.45733 12.591 7.94839
258 1 -1.1104 4.17176 8.26505 9.35519
259 2 2.2208 2.56838 9.65814 10.7354
260 1 -1.1104 3.86213 5.38062 12.2734
261 1 -1.1104 4.01413 10.986 12.3683
262 1 -1.1104 3.84827 5.40918 9.51535
263 1 -1.1104 3.92793 11.1255 9.50314
344 2 2.2208 -0.123831 6.94107 10.8467
265 1 -1.1104 12.3041 8.2706 6.62562
65 1 -1.1104 6.80455 11.0132 6.44682
237 1 -1.1104 6.67363 5.47008 6.5249
245 1 -1.1104 6.72271 8.27945 9.40965
235 1 -1.1104 6.71661 8.24669 6.59227
254 1 -1.1104 6.75475 11.0854 9.36951
90 1 -1.1104 12.3781 11.0392 6.58513
248 1 -1.1104 6.65025 5.46042 12.1253
253 1 -1.1104 6.73309 5.40344 9.302
249 1 -1.1104 6.79649 11.1699 12.2305
243 1 -1.1104 6.78569 8.22493 12.2017
267 1 -1.1104 9.49964 8.35368 6.735
264 1 -1.1104 9.45443 11.1424 9.50435
268 1 -1.1104 9.36278 5.46335 9.36233
270 1 -1.1104 9.45286 11.2013 12.3404
271 1 -1.1104 9.49903 5.42592 12.1745
272 2 2.2208 8.04971 9.65546 10.7728
273 1 -1.1104 9.4965 8.32386 9.55002
274 2 2.2208 8.13657 12.5794 8.09537
275 2 2.2208 8.11265 6.998 8.0463
276 2 2.2208 10.935 6.83542 10.8539
277 2 2.2208 10.9156 12.5718 10.8198
278 1 -1.1104 12.3768 8.42929 12.3622
279 1 -1.1104 12.3057 8.32548 9.46953
280 1 -1.1104 12.2685 5.54489 12.2199
281 1 -1.1104 12.2539 11.1283 12.2611
282 2 2.2208 10.8738 9.72986 8.05035
283 1 -1.1104 12.2357 5.58954 9.46834
284 1 -1.1104 12.3666 11.165 9.38791
285 1 -1.1104 9.45982 8.32113 12.2327
352 2 2.2208 5.31838 4.10329 13.6682
117 1 -1.1104 1.0363 16.7277 6.636
302 1 -1.1104 1.10622 19.5376 6.62679
330 1 -1.1104 12.283 14.0431 12.1779
108 1 -1.1104 1.15894 13.8991 6.55509
124 1 -1.1104 3.8462 13.932 6.55251
288 1 -1.1104 6.71067 19.5861 9.35227
294 1 -1.1104 0.949991 13.8967 9.44905
292 1 -1.1104 1.09382 16.714 9.41867
293 2 2.2208 5.24686 20.9295 7.94716
310 2 2.2208 2.51896 15.3623 10.9259
309 2 2.2208 2.48256 20.817 10.8502
308 1 -1.1104 3.91855 16.6217 12.2997
307 1 -1.1104 1.10157 16.5875 12.2585
287 1 -1.1104 3.93884 13.7439 12.1747
305 1 -1.1104 3.81448 13.8123 9.37921
304 1 -1.1104 3.91933 16.5827 9.6123
303 2 2.2208 2.41474 18.0908 8.04653
301 1 -1.1104 4.04937 19.2955 9.29258
286 1 -1.1104 3.82126 19.5263 12.1945
300 2 2.2208 5.37823 18.0116 10.8528
299 1 -1.1104 0.974593 13.7476 12.2631
298 1 -1.1104 1.13392 19.2319 12.367
291 1 -1.1104 1.04859 19.4286 9.44278
295 2 2.2208 5.2779 15.3313 7.95396
297 1 -1.1104 6.73876 13.9672 12.2162
118 1 -1.1104 6.7749 16.5983 6.60431
25 2 2.2208 -0.371607 -1.48722 2.53683
230 2 2.2208 13.74 -1.42091 10.8019
296 1 -1.1104 6.58579 19.4936 12.3209
306 1 -1.1104 6.83157 16.6741 12.0355
149 1 -1.1104 12.3862 16.7535 6.40365
315 1 -1.1104 9.61351 16.8786 12.1367
156 1 -1.1104 9.58578 19.5724 6.40379
321 1 -1.1104 9.39552 19.6191 12.2156
319 1 -1.1104 9.52946 13.9784 9.40242
318 1 -1.1104 9.41628 19.5951 9.33666
322 1 -1.1104 9.50813 14.053 12.1659
331 2 2.2208 10.9939 18.186 10.811
290 1 -1.1104 6.75843 13.8967 9.36384
323 1 -1.1104 12.3952 16.6666 9.26802
328 1 -1.1104 12.368 13.894 9.21696
320 2 2.2208 8.27103 18.065 8.01874
365 2 2.2208 8.0828 12.5369 13.6086
361 2 2.2208 2.49359 12.4403 13.5841
371 2 2.2208 5.34966 15.3743 13.5514
360 2 2.2208 5.45462 9.6789 13.5557
379 2 2.2208 8.14058 20.8929 -0.401423
388 2 2.2208 8.13374 -1.36759 -0.35174
394 2 2.2208 2.45069 9.75606 -0.417021
348 2 2.2208 5.24416 -1.36264 13.659
356 2 2.2208 10.9193 -1.44425 13.6425
372 2 2.2208 10.8351 21.0339 13.421
364 2 2.2208 10.8495 9.76714 13.5628
383 2 2.2208 2.41281 4.22025 -0.321684
376 2 2.2208 7.96996 18.1986 13.5539
396 2 2.2208 -0.453579 12.5557 -0.287778
373 2 2.2208 10.8376 15.3885 13.5337
401 2 2.2208 -0.325105 18.2894 -0.3833
378 2 2.2208 10.8975 18.0309 -0.302785
405 2 2.2208 2.50994 21.1004 -0.358002
350 2 2.2208 -0.420526 20.9952 13.6482
374 2 2.2208 13.6742 15.2255 -0.413065
406 2 2.2208 5.37106 1.31068 16.4942
407 1 -1.1104 1.22243 -2.83368 18.0825
408 1 -1.1104 1.0189 2.7416 18.0153
411 1 -1.1104 1.11412 -2.77952 15.1776
413 1 -1.1104 1.2173 2.72033 15.3263
419 1 -1.1104 1.23567 -0.0346183 17.8864
421 2 2.2208 5.23176 -1.42654 19.3147
423 1 -1.1104 1.22456 -0.0693818 15.1234
427 1 -1.1104 4.04492 -2.76377 17.9406
428 1 -1.1104 3.81001 2.72592 17.8919
429 2 2.2208 2.5211 1.43009 19.4213
430 1 -1.1104 3.95153 -2.87363 15.0483
432 1 -1.1104 3.80584 2.73442 15.1343
434 2 2.2208 2.60287 -1.38827 16.4186
436 1 -1.1104 4.00918 -0.033831 17.8139
437 1 -1.1104 4.08459 0.135 14.9745
435 2 2.2208 2.53224 4.19094 16.5607
422 2 2.2208 5.34664 4.18675 19.2611
669 2 2.2208 8.01707 -4.16912 24.9934
477 2 2.2208 13.7138 -1.24578 16.51
395 2 2.2208 5.24573 12.6016 27.6789
473 2 2.2208 13.7452 -4.2417 19.3054
415 1 -1.1104 6.65733 -2.70662 14.9074
637 2 2.2208 -0.366288 -4.2239 22.1782
433 1 -1.1104 3.98511 2.79141 20.6525
424 1 -1.1104 1.31403 0.0424523 20.7621
438 1 -1.1104 3.96127 -0.201107 20.8078
443 2 2.2208 -0.364574 -1.45849 19.4187
447 2 2.2208 -0.375122 18.2026 16.4727
410 1 -1.1104 6.8366 2.93828 17.9611
417 1 -1.1104 6.7332 2.64053 15.1367
420 1 -1.1104 6.70842 0.0673521 18.0298
425 1 -1.1104 6.74057 -0.0597988 15.099
409 1 -1.1104 6.64476 -2.76178 17.8415
449 2 2.2208 10.9177 1.39382 16.4967
450 1 -1.1104 12.3246 -2.73448 18.0033
451 1 -1.1104 12.3443 2.82752 17.9044
452 1 -1.1104 12.3367 -2.74643 15.1007
454 1 -1.1104 12.2782 2.83229 15.181
456 1 -1.1104 12.3554 0.126034 18.0431
457 2 2.2208 10.926 -1.42506 19.4791
458 2 2.2208 11.0201 4.18927 19.2209
459 1 -1.1104 12.3845 0.0903448 15.2102
461 1 -1.1104 9.48736 -2.71141 17.8377
462 1 -1.1104 9.55665 2.86594 18.0892
463 2 2.2208 8.14998 1.49462 19.3682
464 1 -1.1104 9.46542 -2.88541 15.1059
466 1 -1.1104 9.56469 2.57238 15.0949
468 2 2.2208 8.04622 -1.33323 16.6028
469 2 2.2208 8.20222 4.0273 16.4512
470 1 -1.1104 9.62286 0.087129 18.1284
471 1 -1.1104 9.55123 -0.15775 15.2195
605 2 2.2208 13.6739 18.0888 24.928
453 1 -1.1104 12.2824 -2.79144 20.7828
472 1 -1.1104 9.62299 -0.0429454 20.9148
353 2 2.2208 7.9911 -4.21 13.7617
702 2 2.2208 -0.3648 9.81861 24.9064
347 2 2.2208 2.54955 -4.17913 13.7107
644 2 2.2208 -0.280995 4.21478 24.9745
482 2 2.2208 5.3563 6.871 16.4518
483 2 2.2208 5.25256 12.5355 16.4903
484 1 -1.1104 1.15004 8.26031 17.8716
486 1 -1.1104 1.06803 8.29515 14.8324
490 1 -1.1104 1.02287 5.41386 18.0428
491 1 -1.1104 1.0962 11.0329 17.951
494 2 2.2208 5.32376 9.77018 19.2294
495 1 -1.1104 1.0411 5.54578 15.0736
497 1 -1.1104 1.16399 11.0659 15.1128
503 1 -1.1104 3.87922 8.4067 17.876
504 2 2.2208 2.53501 6.97752 19.3123
505 2 2.2208 2.48474 12.5342 19.37
506 1 -1.1104 4.01193 8.39502 15.1617
508 2 2.2208 2.50528 9.75773 16.4419
509 1 -1.1104 3.90992 5.64383 17.8321
510 1 -1.1104 3.92321 11.2383 17.9805
511 1 -1.1104 3.78745 5.60465 15.0094
513 1 -1.1104 3.96272 11.1438 15.114
544 2 2.2208 -0.241383 4.20832 19.5184
501 1 -1.1104 6.64423 11.1496 14.9686
496 1 -1.1104 1.17385 5.5919 20.8059
385 2 2.2208 5.10814 -4.23192 27.7458
703 2 2.2208 -0.31174 12.5825 22.1566
515 2 2.2208 -0.358564 9.85814 19.3344
475 2 2.2208 8.09937 -4.18669 19.3812
488 1 -1.1104 6.86898 8.32773 15.1426
485 1 -1.1104 6.64867 8.41283 17.9128
493 1 -1.1104 6.69258 11.2338 17.783
499 1 -1.1104 6.78292 5.44999 14.9914
492 1 -1.1104 6.73066 5.65977 17.7793
518 2 2.2208 10.9059 7.02589 16.5156
519 2 2.2208 10.767 12.6634 16.404
520 1 -1.1104 12.3334 8.44103 17.9642
521 1 -1.1104 12.2801 8.48432 15.2095
523 1 -1.1104 12.3355 5.59665 17.8485
524 1 -1.1104 12.2295 11.3055 17.655
525 2 2.2208 10.9034 9.95075 19.2108
526 1 -1.1104 12.2594 5.60139 14.9334
528 1 -1.1104 12.2699 11.261 15.0077
530 1 -1.1104 9.44539 8.43393 17.7445
531 2 2.2208 8.09674 7.02884 19.2608
532 2 2.2208 8.06169 12.6885 19.2376
533 1 -1.1104 9.60728 8.18526 14.9541
535 2 2.2208 8.03334 9.78081 16.5362
536 1 -1.1104 9.55662 5.65958 17.794
537 1 -1.1104 9.44566 11.2893 17.8744
538 1 -1.1104 9.48797 5.45372 15.0473
540 1 -1.1104 9.3589 11.0371 15.1208
500 1 -1.1104 6.76893 5.58601 20.7204
539 1 -1.1104 9.53569 5.63054 20.8711
534 1 -1.1104 9.57373 8.47112 20.6235
541 1 -1.1104 9.56542 11.2908 20.4815
668 2 2.2208 10.9447 -4.24469 22.2816
698 1 -1.1104 9.58677 19.4497 26.395
399 2 2.2208 8.11413 9.69376 27.5985
545 2 2.2208 5.34117 18.2427 16.4216
546 1 -1.1104 1.07551 13.9038 18.0026
547 1 -1.1104 0.989706 19.5526 17.8167
550 1 -1.1104 1.05657 13.9661 15.1882
552 1 -1.1104 0.936689 19.4854 15.1906
558 1 -1.1104 0.924716 16.7698 17.9391
560 2 2.2208 5.26732 15.4555 19.238
561 2 2.2208 5.24704 21.0554 19.2372
562 1 -1.1104 0.982767 16.7053 14.985
566 1 -1.1104 3.84573 14.0401 17.9799
567 1 -1.1104 3.79467 19.5839 17.7531
568 2 2.2208 2.35791 18.1663 19.3181
569 1 -1.1104 3.93631 14.1656 14.997
571 1 -1.1104 3.88969 19.6027 14.9498
573 2 2.2208 2.5205 15.3624 16.502
574 2 2.2208 2.33376 20.8387 16.3436
575 1 -1.1104 3.78222 16.7306 17.8069
576 1 -1.1104 3.87071 16.8324 15.0208
638 2 2.2208 10.8823 15.4118 24.8689
548 1 -1.1104 6.71588 14.0718 17.992
563 1 -1.1104 0.960176 16.6607 20.8725
392 2 2.2208 13.6043 4.16185 27.6793
355 2 2.2208 8.1579 1.2747 13.7455
564 1 -1.1104 6.53647 16.7846 14.8696
556 1 -1.1104 6.61792 19.4801 15.0602
554 1 -1.1104 6.49063 13.8912 14.9923
549 1 -1.1104 6.78583 19.5596 17.7969
559 1 -1.1104 6.69122 16.8014 17.7534
581 2 2.2208 10.822 18.1273 16.2412
582 1 -1.1104 12.3136 13.9092 17.5857
583 1 -1.1104 12.357 19.5234 17.7512
584 1 -1.1104 12.2017 14.0218 14.8266
586 1 -1.1104 12.2367 19.6855 14.9172
588 1 -1.1104 12.249 16.7834 17.7986
589 2 2.2208 10.7702 15.4246 19.1641
590 2 2.2208 10.9414 20.8592 19.1678
591 1 -1.1104 12.1292 16.7926 14.9585
593 1 -1.1104 9.45526 14.0279 17.7998
594 1 -1.1104 9.46938 19.614 17.8305
595 2 2.2208 8.06446 18.1406 19.2624
596 1 -1.1104 9.21607 14.0237 15.0941
598 1 -1.1104 9.40306 19.5189 14.9403
600 2 2.2208 7.97766 15.4486 16.465
601 2 2.2208 8.12158 21.0303 16.3987
602 1 -1.1104 9.46361 16.82 17.7637
603 1 -1.1104 9.31598 16.8019 14.9578
585 1 -1.1104 12.5759 14.053 20.4575
555 1 -1.1104 6.7489 14.0541 20.5602
592 1 -1.1104 12.3074 16.646 20.759
587 1 -1.1104 12.2967 19.6009 20.4384
474 2 2.2208 10.8838 -4.13285 16.4972
665 1 -1.1104 9.49601 19.4632 23.532
639 2 2.2208 5.32496 -4.25708 22.1467
672 2 2.2208 13.6409 1.40771 24.9078
412 1 -1.1104 1.09228 -2.7919 20.7803
414 1 -1.1104 1.18431 2.80088 20.8368
431 1 -1.1104 3.89165 -2.9367 20.6943
609 2 2.2208 5.33578 1.31613 22.1825
610 1 -1.1104 1.03061 -2.818 23.5724
611 1 -1.1104 1.10096 2.80378 23.5603
614 1 -1.1104 1.01226 -2.857 26.3928
615 1 -1.1104 0.955533 2.835 26.5312
618 1 -1.1104 1.03725 0.069722 23.5862
620 2 2.2208 5.34125 -1.38666 25.0273
622 1 -1.1104 1.08186 -0.0221216 26.4154
624 1 -1.1104 3.97975 -2.56011 23.6665
625 1 -1.1104 3.84007 2.78503 23.3966
626 2 2.2208 2.42852 1.42047 25.0128
627 1 -1.1104 3.73607 -3.01998 26.3026
628 1 -1.1104 3.85692 2.72122 26.2423
629 2 2.2208 2.47797 -1.34563 22.146
630 2 2.2208 2.52257 4.24727 22.198
631 1 -1.1104 3.91944 0.0514486 23.6014
632 1 -1.1104 3.82044 -0.0804232 26.467
621 2 2.2208 5.28443 4.08767 24.8132
617 1 -1.1104 6.69899 2.82082 26.2583
700 2 2.2208 8.18506 20.9029 22.0445
608 1 -1.1104 12.3024 13.9086 23.2979
481 2 2.2208 -0.227264 6.9921 16.6002
416 1 -1.1104 6.67496 -2.68265 20.8538
619 1 -1.1104 6.71836 0.0192147 23.5963
426 1 -1.1104 6.82648 0.093084 20.8336
467 1 -1.1104 9.47858 2.8284 20.882
465 1 -1.1104 9.4369 -2.77089 20.7319
623 1 -1.1104 6.70485 -0.00424845 26.4359
612 1 -1.1104 6.79805 -2.7685 23.6849
455 1 -1.1104 12.4161 2.79081 20.6585
460 1 -1.1104 12.3353 0.0405211 20.822
613 1 -1.1104 6.67424 2.84662 23.5392
418 1 -1.1104 6.71687 2.84304 20.7662
616 1 -1.1104 6.52383 -2.85318 26.3965
645 2 2.2208 10.8804 1.49763 22.2366
646 1 -1.1104 12.2212 -2.81631 23.6509
647 1 -1.1104 12.3712 2.83504 23.4766
648 1 -1.1104 12.4801 -2.74346 26.2445
649 1 -1.1104 12.191 2.739 26.1976
650 1 -1.1104 12.4026 0.00408793 23.521
651 2 2.2208 10.9779 -1.38699 24.8811
652 2 2.2208 10.8706 4.23021 24.8567
653 1 -1.1104 12.1648 -0.0331158 26.3905
654 1 -1.1104 9.5112 -2.86358 23.6886
655 1 -1.1104 9.34077 2.87372 23.5404
656 2 2.2208 8.05749 1.40643 24.9318
657 1 -1.1104 9.50287 -2.78879 26.3188
658 1 -1.1104 9.50352 2.81089 26.1733
659 2 2.2208 8.1134 -1.41322 22.2499
660 2 2.2208 8.10447 4.24801 22.2125
661 1 -1.1104 9.49317 -0.0632196 23.6677
662 1 -1.1104 9.45364 0.0214472 26.4213
636 1 -1.1104 12.3997 16.7418 23.4814
346 2 2.2208 -0.271616 -1.41428 13.8356
724 2 2.2208 -0.221098 21.0517 25.0427
498 1 -1.1104 1.072 11.1587 20.6532
507 1 -1.1104 3.92926 8.3543 20.6513
512 1 -1.1104 3.94497 5.63157 20.5741
514 1 -1.1104 3.9341 11.1541 20.8604
664 1 -1.1104 9.58896 14.0917 23.4825
487 1 -1.1104 0.96147 8.38684 20.655
674 2 2.2208 5.42451 7.0203 22.1277
675 2 2.2208 5.40489 12.5111 21.9733
676 1 -1.1104 1.01629 8.3543 23.4207
678 1 -1.1104 1.07025 8.40995 26.1934
680 1 -1.1104 1.09581 5.60434 23.4286
681 1 -1.1104 1.03663 11.0635 23.3936
684 2 2.2208 5.35959 9.79037 24.7993
685 1 -1.1104 1.10999 5.557 26.262
686 1 -1.1104 1.03287 11.1332 26.3367
689 1 -1.1104 3.9133 8.35963 23.3656
690 2 2.2208 2.45981 7.05435 24.8682
691 2 2.2208 2.46347 12.4873 24.8962
692 1 -1.1104 3.99246 8.36433 26.1209
693 2 2.2208 2.41174 9.78803 22.1266
694 1 -1.1104 4.01934 5.57755 23.4687
695 1 -1.1104 3.95934 11.1161 23.445
696 1 -1.1104 3.97322 5.56268 26.2166
697 1 -1.1104 3.97126 10.9616 26.1557
699 2 2.2208 8.10793 15.3018 22.0952
522 1 -1.1104 12.3211 8.47418 20.6598
489 1 -1.1104 6.77676 8.30226 20.7207
527 1 -1.1104 12.2936 5.55568 20.6042
502 1 -1.1104 6.84612 11.2094 20.5894
682 1 -1.1104 6.73423 5.6369 23.4408
529 1 -1.1104 12.2805 11.3099 20.5678
679 1 -1.1104 6.71976 8.43456 26.2207
687 1 -1.1104 6.62586 5.62707 26.1341
683 1 -1.1104 6.75516 11.1714 23.3988
688 1 -1.1104 6.80318 11.1701 26.201
677 1 -1.1104 6.71072 8.51743 23.4969
705 1 -1.1104 9.54628 11.2316 26.0123
706 1 -1.1104 9.57713 5.58004 26.336
707 1 -1.1104 9.53926 11.2602 23.2845
708 1 -1.1104 9.54921 5.62079 23.5176
709 2 2.2208 8.09201 9.8798 21.9642
710 1 -1.1104 9.60282 8.4211 26.1984
711 2 2.2208 8.17116 12.6725 24.8164
712 2 2.2208 8.17279 7.04343 24.8378
713 2 2.2208 10.9144 7.03024 21.9772
714 2 2.2208 10.8636 12.6809 21.9854
715 1 -1.1104 12.4432 8.29366 23.5068
716 1 -1.1104 12.3219 8.41154 26.3122
717 1 -1.1104 12.412 5.5642 23.4627
718 1 -1.1104 12.36 11.1183 23.5475
719 2 2.2208 10.9542 9.83639 24.7994
720 1 -1.1104 12.2413 5.58431 26.1652
721 1 -1.1104 12.3047 11.1082 26.3614
722 1 -1.1104 9.46155 8.44197 23.367
633 1 -1.1104 12.3351 19.561 23.4022
732 1 -1.1104 6.66952 16.8444 26.1867
570 1 -1.1104 3.78262 13.9533 20.6869
349 2 2.2208 2.4698 1.37236 13.7233
480 2 2.2208 13.546 15.3079 16.3063
572 1 -1.1104 3.85948 19.4807 20.6288
553 1 -1.1104 1.08807 19.4899 20.6104
551 1 -1.1104 0.879697 13.8477 20.6304
577 1 -1.1104 4.01434 16.7105 20.6023
748 1 -1.1104 1.11536 16.6365 23.664
746 1 -1.1104 3.7901 13.8497 26.2572
745 1 -1.1104 3.84462 16.7883 26.3551
744 2 2.2208 2.49999 18.2219 24.8507
750 2 2.2208 2.43577 21.0415 22.0946
749 1 -1.1104 3.7494 16.7761 23.4308
727 2 2.2208 2.38526 15.3499 22.1658
729 1 -1.1104 3.86752 19.4932 23.3715
731 1 -1.1104 3.95887 13.9127 23.4453
733 1 -1.1104 1.03149 19.7913 26.4283
734 1 -1.1104 1.06841 16.8852 26.3226
735 1 -1.1104 0.981473 13.8977 26.357
737 2 2.2208 5.3413 20.9816 24.9394
738 2 2.2208 5.15787 15.3824 24.8698
740 1 -1.1104 1.12687 19.5826 23.5456
741 1 -1.1104 1.03112 13.8283 23.5147
742 2 2.2208 5.29713 18.1904 22.0885
743 1 -1.1104 3.94349 19.4134 26.2055
641 2 2.2208 11.0064 20.944 25.0433
607 2 2.2208 10.8829 18.1473 22.0736
635 1 -1.1104 12.3789 19.6026 26.2215
704 1 -1.1104 9.3024 16.6457 26.3169
673 1 -1.1104 9.45832 13.9502 26.2108
604 1 -1.1104 9.43413 16.7799 20.6791
670 1 -1.1104 6.67716 19.5068 26.2748
565 1 -1.1104 6.80233 16.5894 20.603
747 1 -1.1104 6.70212 16.6525 23.3641
557 1 -1.1104 6.67794 19.4857 20.6654
597 1 -1.1104 9.64178 14.066 20.6121
667 2 2.2208 8.06056 18.0149 24.8662
599 1 -1.1104 9.48142 19.458 20.6706
634 1 -1.1104 12.1853 13.863 26.1065
663 1 -1.1104 12.3337 16.7684 26.3094
730 1 -1.1104 6.49278 14.0457 26.4642
736 1 -1.1104 6.75676 19.6102 23.5611
701 1 -1.1104 9.51795 16.804 23.6255
739 1 -1.1104 6.80477 14.0767 23.4645
381 2 2.2208 5.33232 1.45076 27.8029
580 2 2.2208 13.7519 15.3267 22.0049
516 2 2.2208 -0.306992 12.4243 16.6118
398 2 2.2208 10.9185 6.97596 27.6624
723 2 2.2208 -0.367124 18.2692 22.1798
439 2 2.2208 -0.284074 -4.11375 16.4868
543 2 2.2208 13.705 9.87742 16.5221
479 2 2.2208 13.6432 18.1513 19.2467
442 2 2.2208 -0.282349 1.35828 16.5818
403 2 2.2208 2.51548 15.3929 27.748
393 2 2.2208 5.26609 7.00571 27.4727
359 2 2.2208 2.54977 6.89669 13.702
357 2 2.2208 10.8559 4.11748 13.7443
390 2 2.2208 10.8794 -4.26503 27.6218
389 2 2.2208 8.07563 4.33153 27.629
377 2 2.2208 8.02428 15.2946 27.7527
400 2 2.2208 10.9173 12.4127 27.6738
382 2 2.2208 2.39667 -1.50821 27.7894
397 2 2.2208 -0.415315 7.08684 27.6689
369 2 2.2208 5.26213 20.9143 13.6033
363 2 2.2208 8.15949 6.8218 13.6299
387 2 2.2208 10.9008 1.42936 27.6303
368 2 2.2208 2.50946 18.0139 13.7448
751 2 2.2208 5.26175 23.7936 5.16499
752 2 2.2208 5.25637 29.3472 5.19299
753 1 -1.1104 1.09164 25.1987 0.937418
754 1 -1.1104 1.09628 25.1457 3.64743
755 1 -1.1104 1.21805 22.3324 1.20776
756 1 -1.1104 1.07986 27.9302 0.981752
757 2 2.2208 5.47816 26.4549 2.48176
758 1 -1.1104 1.15905 22.4258 3.88216
759 1 -1.1104 1.15211 27.8579 3.66748
760 1 -1.1104 3.95053 25.2109 0.959708
761 2 2.2208 2.58012 23.7849 2.44361
762 2 2.2208 2.42801 29.3726 2.25307
763 1 -1.1104 4.02378 25.2811 3.79042
764 2 2.2208 2.54874 26.6289 5.10647
765 1 -1.1104 3.96899 22.5222 1.03045
766 1 -1.1104 3.98098 27.8387 0.919537
767 1 -1.1104 3.95977 22.418 3.78494
768 1 -1.1104 3.97794 28.0327 3.79091
1701 1 -1.1104 9.47923 47.5319 6.70161
1086 2 2.2208 10.8368 26.5321 13.5148
1085 2 2.2208 5.29361 26.5716 13.7555
1677 1 -1.1104 6.85305 47.6044 9.31172
900 1 -1.1104 3.75084 28.0249 6.47478
894 1 -1.1104 1.22365 22.2067 6.53838
769 2 2.2208 -0.185577 29.5215 5.22005
775 1 -1.1104 6.70037 27.8565 0.891783
773 1 -1.1104 6.84022 25.0708 3.65981
896 1 -1.1104 6.57506 22.299 6.47384
777 1 -1.1104 6.68665 27.9022 3.75919
772 1 -1.1104 6.76239 25.0598 1.02275
776 1 -1.1104 6.7804 22.3685 3.7843
774 1 -1.1104 6.68771 22.1529 0.964801
778 2 2.2208 10.8732 23.7105 5.09456
779 2 2.2208 10.9056 29.2661 5.22143
780 1 -1.1104 12.3958 25.0702 0.964272
781 1 -1.1104 12.3535 25.173 3.9043
782 1 -1.1104 12.3081 22.3033 1.04343
783 1 -1.1104 12.3626 27.8517 0.924864
784 2 2.2208 10.9645 26.4672 2.33314
785 1 -1.1104 12.296 22.318 3.86781
786 1 -1.1104 12.3436 27.8931 3.71437
787 1 -1.1104 9.48313 25.1151 0.945763
788 2 2.2208 8.13565 23.6735 2.3216
789 2 2.2208 8.23117 29.2746 2.3978
790 1 -1.1104 9.54866 25.0523 3.75625
791 2 2.2208 8.06888 26.4606 5.16295
792 1 -1.1104 9.44167 22.2366 0.94467
793 1 -1.1104 9.53352 27.8114 0.941416
794 1 -1.1104 9.49133 22.3884 3.7593
795 1 -1.1104 9.55757 27.9063 3.80972
897 1 -1.1104 6.62375 27.9189 6.5281
928 1 -1.1104 9.47921 25.102 6.48849
1514 1 -1.1104 12.3954 47.6371 1.11529
799 2 2.2208 5.39527 35.087 5.28091
800 1 -1.1104 1.03306 30.8463 0.962336
801 1 -1.1104 1.07358 36.5739 1.06161
803 1 -1.1104 1.03408 30.6294 3.79614
804 1 -1.1104 1.25868 36.3145 3.85761
806 1 -1.1104 1.09964 33.6015 1.01845
807 2 2.2208 5.34451 32.2001 2.39919
808 2 2.2208 5.27744 37.708 2.47088
809 1 -1.1104 0.960701 33.3551 3.72914
811 1 -1.1104 3.77234 30.8019 0.974122
812 1 -1.1104 3.83987 36.3707 1.09814
813 2 2.2208 2.50076 34.8921 2.49833
814 1 -1.1104 3.88331 30.8932 3.72218
815 1 -1.1104 3.83203 36.4347 3.8844
816 2 2.2208 2.57782 32.1649 5.08344
817 2 2.2208 2.49192 37.8463 5.26517
818 1 -1.1104 4.05492 33.5846 1.25724
819 1 -1.1104 3.93268 33.5907 3.88133
953 1 -1.1104 1.18972 33.5141 6.60593
1079 2 2.2208 -0.0835652 32.1472 8.01296
821 2 2.2208 -0.201616 37.8965 2.38702
1076 2 2.2208 13.637 34.9991 8.05596
1095 2 2.2208 10.8916 32.1194 13.5528
955 1 -1.1104 3.89996 30.8196 6.58611
956 1 -1.1104 3.91397 36.4999 6.5616
957 1 -1.1104 3.95913 33.6405 6.64499
1046 1 -1.1104 9.58125 39.2156 12.2755
954 1 -1.1104 6.63948 33.6348 6.71196
824 1 -1.1104 6.68378 30.8165 3.80918
823 1 -1.1104 6.78295 30.5931 0.996914
810 1 -1.1104 6.77324 33.564 3.92658
825 1 -1.1104 6.77 33.5461 1.03564
802 1 -1.1104 6.60867 36.4014 1.05315
805 1 -1.1104 6.79354 36.3411 3.8619
826 2 2.2208 10.9968 34.8439 5.31036
827 1 -1.1104 12.3894 30.647 1.02184
828 1 -1.1104 12.3034 36.3474 1.16872
829 1 -1.1104 12.2433 30.7395 3.71952
830 1 -1.1104 12.4194 36.2468 3.93746
831 1 -1.1104 12.3739 33.5012 0.90856