ITEM: TIMESTEP
70000
ITEM: NUMBER OF ATOMS
17640
ITEM: BOX BOUNDS pp pp pp
-3.4893647572331177e-01 2.7688936475723800e+01
-4.2715620796748093e+00 3.3235156207967174e+02
-3.6253052514941930e-01 2.7702530525150046e+01
ITEM: ATOMS id type q x y z
1 2 2.2208 5.31003 1.45612 5.43702
2 1 -1.1104 1.18476 -2.8157 1.17736
3 1 -1.1104 1.30454 2.81863 1.24776
6 1 -1.1104 1.2853 -3.00736 4.08234
7 1 -1.1104 1.33978 2.62122 4.08919
10 1 -1.1104 1.14475 -0.00608254 1.27282
12 2 2.2208 5.49963 -1.46366 2.58145
13 2 2.2208 5.41565 4.36847 2.64664
14 1 -1.1104 1.20414 -0.284427 3.97977
16 1 -1.1104 4.06594 -2.68843 1.15941
17 1 -1.1104 4.10091 2.69846 1.33329
18 2 2.2208 2.56485 1.38405 2.53969
19 1 -1.1104 4.16655 -2.98027 3.94214
20 1 -1.1104 4.05039 2.89971 4.09022
21 2 2.2208 2.56474 -1.47395 5.35822
22 2 2.2208 2.60925 4.19503 5.30082
23 1 -1.1104 4.03739 -0.0106969 1.32354
24 1 -1.1104 4.0687 0.0404121 3.94619
170 1 -1.1104 1.3065 0.00331206 6.86053
344 2 2.2208 -0.0957712 7.04973 11.0456
8 1 -1.1104 6.9018 -2.77184 3.89738
26 2 2.2208 -0.0666331 1.27755 5.35779
386 2 2.2208 -0.118118 1.41307 -0.303556
331 2 2.2208 11.108 18.1073 11.002
289 1 -1.1104 6.82574 16.9672 9.53295
27 2 2.2208 -0.088604 4.07886 2.7075
25 2 2.2208 -0.163186 -1.53373 2.62648
381 2 2.2208 5.60772 1.4731 -0.0439302
382 2 2.2208 2.70697 -1.25051 -0.205296
383 2 2.2208 2.65372 4.24076 -0.173588
15 1 -1.1104 6.87201 0.0660762 4.09315
9 1 -1.1104 6.89386 2.79196 4.09832
5 1 -1.1104 6.87836 3.02058 1.27504
11 1 -1.1104 6.766 -0.0480469 1.23146
4 1 -1.1104 6.85972 -2.87247 1.21707
31 2 2.2208 11.0516 1.38945 5.43664
32 1 -1.1104 12.5999 -2.72621 1.07668
33 1 -1.1104 12.4721 2.7554 1.12511
34 1 -1.1104 12.5404 -2.95532 3.87912
35 1 -1.1104 12.5108 2.46231 3.99219
36 1 -1.1104 12.3284 0.00468299 1.1623
37 2 2.2208 11.0805 -1.46955 2.515
38 2 2.2208 11.0193 4.1322 2.54073
39 1 -1.1104 12.5461 -0.311978 4.00498
40 1 -1.1104 9.72445 -2.83882 1.06012
41 1 -1.1104 9.56634 2.66331 1.35554
42 2 2.2208 8.2224 1.31484 2.62462
43 1 -1.1104 9.61822 -2.87913 3.81536
44 1 -1.1104 9.77753 2.7495 4.01963
45 2 2.2208 8.23814 -1.4896 5.44931
47 1 -1.1104 9.74138 -0.0816121 1.03077
48 1 -1.1104 9.49914 -0.029429 3.94649
46 2 2.2208 8.38178 4.13069 5.37006
232 2 2.2208 11.0543 -4.2155 10.8098
389 2 2.2208 8.26984 4.21534 -0.148052
387 2 2.2208 11.0574 1.43247 -0.210538
388 2 2.2208 8.24834 -1.37954 -0.171026
81 2 2.2208 -0.196606 6.9839 5.31627
54 2 2.2208 5.46338 7.07836 5.57155
55 2 2.2208 5.45656 12.7809 5.43828
56 1 -1.1104 1.25282 8.60672 1.25676
58 1 -1.1104 1.19632 8.36483 3.96486
60 1 -1.1104 1.30935 5.57247 1.47513
61 1 -1.1104 1.08202 11.379 1.32781
66 2 2.2208 5.3794 9.88512 2.63321
67 1 -1.1104 1.29073 5.63478 4.19028
68 1 -1.1104 1.08808 11.212 3.99113
71 1 -1.1104 3.92787 8.51669 1.22897
72 2 2.2208 2.52587 7.11325 2.60882
73 2 2.2208 2.60214 12.6367 2.59347
74 1 -1.1104 3.99966 8.53374 4.0343
75 2 2.2208 2.5804 9.78001 5.3934
76 1 -1.1104 4.11981 5.68209 1.43362
77 1 -1.1104 4.03792 11.2439 0.997397
79 1 -1.1104 4.01645 5.70374 4.21054
80 1 -1.1104 3.9155 11.2085 3.98271
83 2 2.2208 -0.246787 12.6367 5.38952
404 2 2.2208 5.37424 18.1267 -0.138525
82 2 2.2208 -0.249456 9.91196 2.5693
394 2 2.2208 2.61253 9.87979 -0.286336
395 2 2.2208 5.45632 12.7295 -0.235954
28 2 2.2208 2.69325 -4.30155 2.62691
378 2 2.2208 11.1026 18.3228 -0.338124
70 1 -1.1104 6.96104 11.2004 3.97018
69 1 -1.1104 6.93161 5.78219 3.9717
63 1 -1.1104 6.88887 5.76751 1.12113
59 1 -1.1104 6.92601 8.40172 4.16611
57 1 -1.1104 6.92226 8.66537 1.28415
64 1 -1.1104 6.84467 11.3962 1.10706
84 2 2.2208 10.9683 6.91765 5.41597
85 2 2.2208 11.0625 12.6538 5.35847
86 1 -1.1104 12.5679 8.40758 1.19645
87 1 -1.1104 12.4005 8.29052 3.95709
88 1 -1.1104 12.4541 5.51274 1.14471
89 1 -1.1104 12.56 11.2486 1.1468
91 2 2.2208 11.146 9.78634 2.51669
92 1 -1.1104 12.4322 5.33812 3.89436
93 1 -1.1104 12.409 11.2682 3.91879
94 1 -1.1104 9.62579 8.40609 1.1475
95 2 2.2208 8.23918 7.06513 2.68769
96 2 2.2208 8.268 12.6573 2.4527
97 1 -1.1104 9.73396 8.36715 3.93915
98 2 2.2208 8.32159 9.84852 5.34809
99 1 -1.1104 9.79389 5.52159 1.2034
100 1 -1.1104 9.52883 11.2673 1.17102
102 1 -1.1104 9.60682 5.50986 4.04163
103 1 -1.1104 9.74748 11.1234 3.99036
403 2 2.2208 2.5571 15.3898 -0.18124
398 2 2.2208 11.0882 7.08704 -0.335233
401 2 2.2208 -0.331421 18.2566 -0.19261
326 1 -1.1104 12.4423 16.6779 12.3378
106 2 2.2208 5.44476 18.3115 5.32121
107 1 -1.1104 1.06345 14.0485 1.12077
109 1 -1.1104 1.17216 19.5667 1.17251
113 1 -1.1104 1.11897 14.0864 3.99383
114 1 -1.1104 1.13486 19.8892 4.00687
116 1 -1.1104 0.979658 16.8146 1.33097
119 2 2.2208 5.37408 15.559 2.5097
120 2 2.2208 5.40885 21.0815 2.5377
121 1 -1.1104 1.29801 16.9124 3.96516
123 1 -1.1104 3.9225 14.1198 1.23292
125 1 -1.1104 4.00203 19.6102 1.16078
127 2 2.2208 2.51836 18.2751 2.61267
128 1 -1.1104 3.92884 13.9452 4.13085
129 1 -1.1104 3.94676 19.7215 4.09416
130 2 2.2208 2.52697 15.4032 5.29091
131 2 2.2208 2.56051 21.0548 5.44102
132 1 -1.1104 3.90583 16.807 1.18351
134 1 -1.1104 3.96776 16.8345 3.95763
133 1 -1.1104 4.09105 16.9189 6.85431
136 2 2.2208 -0.254961 21.1162 2.53187
138 1 -1.1104 6.87619 19.7904 1.09428
137 2 2.2208 -0.264349 18.2793 5.33153
135 2 2.2208 -0.2423 15.4042 2.53639
124 1 -1.1104 3.943 14.2154 6.75342
405 2 2.2208 2.65998 21.0643 -0.217955
323 1 -1.1104 12.4253 16.7545 9.53939
115 1 -1.1104 6.76339 14.0622 3.90073
140 1 -1.1104 6.80267 16.9125 1.15012
110 1 -1.1104 6.79607 14.1415 1.16946
139 1 -1.1104 6.8726 19.6814 3.80132
122 1 -1.1104 6.75566 16.8786 4.0074
141 2 2.2208 11.0631 18.1622 5.27667
142 1 -1.1104 12.4071 13.9429 1.17959
144 1 -1.1104 12.3657 19.6761 1.05446
146 1 -1.1104 12.2977 14.0297 3.89015
147 1 -1.1104 12.3341 19.6891 3.75344
148 1 -1.1104 12.4741 16.7098 1.20395
150 2 2.2208 10.9917 15.3556 2.63846
151 2 2.2208 10.9067 21.0179 2.46298
152 1 -1.1104 12.339 16.859 3.93471
153 1 -1.1104 9.63265 14.0098 1.15343
155 1 -1.1104 9.69568 19.4608 1.04292
157 2 2.2208 8.25011 18.2264 2.50698
158 1 -1.1104 9.51248 14.0338 3.96456
159 1 -1.1104 9.64949 19.4331 3.91172
160 2 2.2208 8.17725 15.4205 5.3852
161 2 2.2208 8.23676 21.1118 5.31516
162 1 -1.1104 9.67281 16.7633 1.17545
164 1 -1.1104 9.56724 16.6566 3.98188
145 1 -1.1104 12.4705 19.7538 6.73486
143 1 -1.1104 12.5408 14.0654 6.69347
377 2 2.2208 8.37866 15.3495 -0.292677
315 1 -1.1104 9.72063 16.7963 12.5829
316 2 2.2208 8.20788 21.0658 10.8504
199 2 2.2208 -0.0415202 4.11464 8.25323
201 2 2.2208 -0.0881824 1.39857 11.0617
174 1 -1.1104 4.12581 -0.0390931 6.68972
166 1 -1.1104 1.25223 -2.74112 6.8171
172 1 -1.1104 4.00461 -2.85554 6.64771
167 1 -1.1104 1.30341 2.77238 6.78024
173 1 -1.1104 4.14503 2.83124 6.86047
175 2 2.2208 5.46779 1.47475 10.993
176 1 -1.1104 1.04122 -2.63901 12.2846
177 1 -1.1104 1.33704 2.89737 12.4439
180 1 -1.1104 1.38834 -2.83365 9.6513
181 1 -1.1104 1.34377 2.87668 9.61698
184 1 -1.1104 1.37121 0.123131 12.3782
186 2 2.2208 5.61189 -1.54712 8.26897
187 2 2.2208 5.45064 4.20215 8.16556
188 1 -1.1104 1.22548 0.041384 9.67828
190 1 -1.1104 4.22825 -2.82226 12.3132
191 1 -1.1104 4.14158 2.94723 12.4208
192 2 2.2208 2.64742 1.46604 8.20994
193 1 -1.1104 4.09957 -2.83481 9.36799
194 1 -1.1104 4.18452 2.78424 9.49778
195 2 2.2208 2.66868 -1.38363 11.0462
196 2 2.2208 2.66677 4.25951 11.0669
197 1 -1.1104 4.20001 -0.119297 12.3858
198 1 -1.1104 3.98255 -0.0672191 9.55532
200 2 2.2208 -0.0696507 -1.38904 8.15645
154 1 -1.1104 9.70698 13.9514 6.76323
319 1 -1.1104 9.54895 14.0128 9.63552
203 2 2.2208 5.54308 -4.4695 11.0863
205 1 -1.1104 12.5842 -2.88294 6.84086
207 1 -1.1104 12.5059 -0.0464606 6.86999
329 1 -1.1104 12.335 19.5093 12.4789
169 1 -1.1104 6.89677 2.91423 6.84555
171 1 -1.1104 6.77771 -0.0034809 6.89835
182 1 -1.1104 6.92868 -3.01164 9.64295
189 1 -1.1104 6.91796 -0.0164272 9.72002
178 1 -1.1104 6.92086 -2.91265 12.539
179 1 -1.1104 6.93735 2.80218 12.4497
168 1 -1.1104 6.89852 -2.83809 6.83993
210 1 -1.1104 9.46658 0.0157257 6.73915
206 1 -1.1104 12.5664 2.7031 6.96005
208 1 -1.1104 9.84335 -2.94143 6.79538
185 1 -1.1104 6.9316 -0.169508 12.4584
183 1 -1.1104 6.96597 2.7513 9.69065
209 1 -1.1104 9.72116 2.78603 6.84415
211 2 2.2208 11.0893 1.49786 11.0177
212 1 -1.1104 12.4528 -2.96959 12.4031
213 1 -1.1104 12.496 2.81145 12.4868
214 1 -1.1104 12.5212 -2.86927 9.44957
215 1 -1.1104 12.5544 2.78698 9.67195
216 1 -1.1104 12.5588 -0.136794 12.3085
217 2 2.2208 11.1169 -1.4941 8.06188
218 2 2.2208 11.0367 4.16907 8.21765
219 1 -1.1104 12.5416 -0.0729954 9.68593
220 1 -1.1104 9.82464 -2.76042 12.4052
221 1 -1.1104 9.71236 2.59998 12.583
222 2 2.2208 8.21261 1.35874 8.19206
223 1 -1.1104 9.62989 -2.81318 9.54079
224 1 -1.1104 9.72606 2.75368 9.57525
225 2 2.2208 8.32562 -1.46376 11.1248
226 2 2.2208 8.2946 4.1877 10.948
227 1 -1.1104 9.75058 0.00617296 12.4571
228 1 -1.1104 9.69155 -0.109709 9.53433
236 1 -1.1104 1.32243 5.61668 6.95391
62 1 -1.1104 1.24328 11.1754 6.86908
234 1 -1.1104 1.12693 8.29663 6.87248
314 1 -1.1104 9.67332 16.8146 9.51126
343 2 2.2208 -0.207527 9.9166 8.22471
342 2 2.2208 -0.18875 12.6433 11.0677
78 1 -1.1104 4.07421 11.4578 6.9697
239 1 -1.1104 4.05074 5.73397 7.03362
238 1 -1.1104 3.95682 8.53527 6.7604
240 2 2.2208 5.48492 7.12517 11.0232
241 2 2.2208 5.54541 12.6117 11.0595
242 1 -1.1104 1.23467 8.43153 12.4139
244 1 -1.1104 1.32622 8.52778 9.60582
246 1 -1.1104 1.29593 5.78893 12.4253
247 1 -1.1104 1.37131 11.2903 12.3852
250 2 2.2208 5.40094 9.79266 8.23917
251 1 -1.1104 1.16186 5.60008 9.76085
252 1 -1.1104 1.16474 11.1914 9.6204
255 1 -1.1104 4.08431 8.45901 12.4971
256 2 2.2208 2.61959 7.13066 8.33331
257 2 2.2208 2.67226 12.7496 8.18918
258 1 -1.1104 4.09573 8.36913 9.73563
259 2 2.2208 2.71631 9.87324 11.0192
260 1 -1.1104 4.05939 5.73064 12.4641
261 1 -1.1104 4.08567 11.1164 12.438
262 1 -1.1104 4.0807 5.67499 9.70143
263 1 -1.1104 4.03026 11.1177 9.59082
90 1 -1.1104 12.4039 11.2228 6.67954
65 1 -1.1104 6.7685 11.1297 6.76983
237 1 -1.1104 6.85495 5.59625 6.73375
243 1 -1.1104 6.92795 8.45157 12.4537
253 1 -1.1104 6.90998 5.71192 9.6324
254 1 -1.1104 6.88931 11.3258 9.59167
269 1 -1.1104 9.63909 5.5379 6.79603
265 1 -1.1104 12.3955 8.28735 6.78418
235 1 -1.1104 6.7906 8.34578 6.93652
101 1 -1.1104 9.53349 11.0986 6.80343
267 1 -1.1104 9.75385 8.28997 6.82634
248 1 -1.1104 6.81515 5.78671 12.4812
245 1 -1.1104 7.07591 8.54343 9.601
249 1 -1.1104 6.91607 11.1384 12.4588
266 1 -1.1104 12.4645 5.57314 6.67853
264 1 -1.1104 9.76055 11.2262 9.61339
268 1 -1.1104 9.71598 5.44618 9.56727
270 1 -1.1104 9.75338 11.2936 12.3988
271 1 -1.1104 9.66154 5.4255 12.2695
272 2 2.2208 8.35302 9.85752 10.9078
273 1 -1.1104 9.75077 8.40072 9.67065
274 2 2.2208 8.31445 12.5043 8.05566
275 2 2.2208 8.24612 6.91923 8.21729
276 2 2.2208 11.0377 7.07427 10.9492
277 2 2.2208 11.1187 12.6354 11.0446
278 1 -1.1104 12.6828 8.39186 12.3942
279 1 -1.1104 12.5281 8.39585 9.50224
280 1 -1.1104 12.4144 5.70514 12.2206
281 1 -1.1104 12.5593 11.1652 12.3313
282 2 2.2208 11.2216 9.75593 8.1394
283 1 -1.1104 12.4946 5.57108 9.42082
284 1 -1.1104 12.5779 11.2106 9.55927
285 1 -1.1104 9.75113 8.30725 12.3969
313 2 2.2208 -0.208801 15.4016 8.12873
126 1 -1.1104 4.08976 19.864 6.81168
51 2 2.2208 8.29396 -4.33396 2.66438
117 1 -1.1104 1.28083 16.8982 6.58381
302 1 -1.1104 1.20163 19.683 6.80752
108 1 -1.1104 1.07826 14.0438 6.71409
294 1 -1.1104 1.10606 14.0063 9.62863
292 1 -1.1104 1.28338 16.7271 9.41948
293 2 2.2208 5.31236 21.0396 8.14628
310 2 2.2208 2.55531 15.5316 11.0938
309 2 2.2208 2.57074 21.0437 11.0983
308 1 -1.1104 4.07285 17.0116 12.4761
307 1 -1.1104 1.18822 16.8813 12.3609
287 1 -1.1104 3.93515 14.1909 12.4679
305 1 -1.1104 3.89503 14.0863 9.63104
304 1 -1.1104 3.95365 16.89 9.74618
303 2 2.2208 2.73332 18.3404 8.13113
301 1 -1.1104 4.15958 19.5602 9.41401
286 1 -1.1104 3.99447 19.8072 12.3873
300 2 2.2208 5.47842 18.3448 10.9879
299 1 -1.1104 1.15373 14.1209 12.4666
298 1 -1.1104 1.1592 19.6441 12.4785
291 1 -1.1104 1.25068 19.7091 9.58929
295 2 2.2208 5.27293 15.6334 8.30991
312 2 2.2208 -0.17103 18.2357 11.1234
399 2 2.2208 8.39329 9.84861 -0.443314
321 1 -1.1104 9.49782 19.6463 12.3664
330 1 -1.1104 12.5311 13.9221 12.3351
318 1 -1.1104 9.70567 19.5875 9.59346
327 1 -1.1104 12.4238 19.5402 9.65457
328 1 -1.1104 12.3552 14.0904 9.57933
317 2 2.2208 8.20321 15.4392 11.0519
112 1 -1.1104 6.83711 19.6077 6.65094
118 1 -1.1104 6.81426 16.7519 6.87877
163 1 -1.1104 9.70227 16.7001 6.65652
149 1 -1.1104 12.4585 16.9162 6.77759
156 1 -1.1104 9.5576 19.6247 6.74932
297 1 -1.1104 6.79376 13.9855 12.4438
296 1 -1.1104 6.82238 19.6066 12.4007
288 1 -1.1104 6.90882 19.5998 9.42496
111 1 -1.1104 6.99326 13.9005 6.75195
320 2 2.2208 8.28566 18.2085 8.18787
325 2 2.2208 10.919 15.3651 8.13399
324 2 2.2208 11.1088 20.9816 8.28952
322 1 -1.1104 9.64708 14.0965 12.4424
306 1 -1.1104 6.83512 16.8536 12.4329
290 1 -1.1104 6.61215 14.2076 9.56935
397 2 2.2208 -0.117599 7.14272 -0.205809
311 2 2.2208 -0.137126 20.9831 8.20527
379 2 2.2208 8.22633 21.043 -0.356971
396 2 2.2208 -0.2338 12.7437 -0.304592
204 2 2.2208 -0.107567 -4.26039 10.9792
393 2 2.2208 5.65397 7.30768 -0.188578
29 2 2.2208 5.5105 -4.31623 5.48099
385 2 2.2208 5.54331 -4.10292 -0.265757
231 2 2.2208 8.21811 -4.29054 8.17095
390 2 2.2208 11.1033 -4.18327 -0.27048
406 2 2.2208 5.50126 1.38428 16.5353
407 1 -1.1104 1.29286 -2.88337 17.9015
408 1 -1.1104 1.50015 2.73425 17.9831
411 1 -1.1104 1.25933 -2.94542 15.0087
413 1 -1.1104 1.41665 2.7908 15.1963
419 1 -1.1104 1.25522 -0.0974656 17.9052
421 2 2.2208 5.46255 -1.37672 19.5832
423 1 -1.1104 1.28759 0.0273468 15.0146
427 1 -1.1104 4.02941 -2.70101 18.0294
428 1 -1.1104 4.21843 2.81792 17.9327
429 2 2.2208 2.68571 1.3862 19.3899
430 1 -1.1104 4.05464 -3.00187 15.1086
432 1 -1.1104 4.10678 2.74303 15.1379
434 2 2.2208 2.72912 -1.37977 16.4298
436 1 -1.1104 3.97792 -0.00643402 17.8838
437 1 -1.1104 4.08436 -0.081284 15.1959
435 2 2.2208 2.80987 4.17416 16.6828
422 2 2.2208 5.53579 4.1289 19.3986
544 2 2.2208 -0.042082 4.15081 19.4493
442 2 2.2208 -0.00805155 1.33731 16.47
350 2 2.2208 -0.200149 20.9329 13.7678
433 1 -1.1104 4.02131 2.95821 20.702
443 2 2.2208 -0.124059 -1.39279 19.3686
736 1 -1.1104 6.86706 19.7197 23.5514
359 2 2.2208 2.59494 6.91837 13.7725
346 2 2.2208 -0.0957195 -1.43125 13.7747
348 2 2.2208 5.63254 -1.43245 13.8468
739 1 -1.1104 6.8499 14.0405 23.5627
367 2 2.2208 -0.085995 4.21755 13.9415
415 1 -1.1104 6.85924 -2.78387 15.3128
425 1 -1.1104 6.93453 -0.0575277 15.1107
409 1 -1.1104 6.90257 -2.76737 18.1104
410 1 -1.1104 6.87898 2.80015 18.0809
420 1 -1.1104 6.75738 -0.0493593 17.9825
371 2 2.2208 5.38882 15.5297 13.7875
417 1 -1.1104 7.03487 2.81506 15.2805
449 2 2.2208 11.1402 1.14246 16.6714
450 1 -1.1104 12.5719 -2.87937 17.9727
451 1 -1.1104 12.5851 2.64274 17.9688
452 1 -1.1104 12.4708 -2.9691 15.2609
454 1 -1.1104 12.5978 2.87667 15.3096
456 1 -1.1104 12.3831 -0.125419 18.1178
457 2 2.2208 11.1585 -1.49959 19.4588
458 2 2.2208 11.1373 4.01916 19.4971
459 1 -1.1104 12.4969 -0.045647 15.192
461 1 -1.1104 9.62644 -2.97056 18.1519
462 1 -1.1104 9.80058 2.73449 18.1387
463 2 2.2208 8.30161 1.33687 19.4012
464 1 -1.1104 9.69277 -2.99126 15.27
466 1 -1.1104 9.7777 2.56856 15.38
468 2 2.2208 8.27796 -1.36747 16.6023
469 2 2.2208 8.30794 4.22189 16.692
470 1 -1.1104 9.67397 -0.113039 18.0308
471 1 -1.1104 9.72081 -0.0312049 15.2059
673 1 -1.1104 9.71 13.9762 26.3935
356 2 2.2208 11.0832 -1.40164 13.8443
747 1 -1.1104 6.86243 16.8204 23.6319
357 2 2.2208 11.1118 4.20287 13.883
355 2 2.2208 8.2881 1.47582 13.8511
482 2 2.2208 5.51881 6.88033 16.5397
483 2 2.2208 5.49802 12.6882 16.6355
484 1 -1.1104 1.29771 8.58963 17.961
486 1 -1.1104 1.38763 8.29595 15.3323
490 1 -1.1104 1.49337 5.56266 18.086
491 1 -1.1104 1.37588 11.2432 18.0403
494 2 2.2208 5.59887 9.659 19.3674
495 1 -1.1104 1.20587 5.65166 15.2247
497 1 -1.1104 1.26728 11.2534 15.2192
503 1 -1.1104 4.15452 8.2854 17.9532
504 2 2.2208 2.75527 6.92992 19.4366
505 2 2.2208 2.73776 12.5376 19.4717
506 1 -1.1104 4.14414 8.23276 15.2032
508 2 2.2208 2.80083 9.56153 16.5939
509 1 -1.1104 4.17329 5.50225 17.9462
510 1 -1.1104 4.18563 11.2281 18.143
511 1 -1.1104 3.99514 5.5423 15.1047
513 1 -1.1104 3.94394 11.1045 15.2084
349 2 2.2208 2.65309 1.48756 13.7634
516 2 2.2208 -0.0789098 12.6135 16.602
515 2 2.2208 -0.150366 9.87993 19.3393
496 1 -1.1104 1.19726 5.63466 20.7841
514 1 -1.1104 4.00971 11.2441 21.0704
361 2 2.2208 2.58308 12.6214 13.8394
481 2 2.2208 -0.0599298 6.97541 16.6591
376 2 2.2208 8.28832 18.2636 13.8663
360 2 2.2208 5.3758 9.78748 13.9009
485 1 -1.1104 6.9527 8.3898 17.9778
492 1 -1.1104 7.01565 5.56336 17.9708
493 1 -1.1104 6.95197 11.2666 18.0446
488 1 -1.1104 6.97543 8.26235 15.2183
501 1 -1.1104 6.93081 11.1688 15.2741
499 1 -1.1104 6.81438 5.50792 15.2883
518 2 2.2208 11.1355 6.92255 16.7246
519 2 2.2208 11.0962 12.5683 16.6578
520 1 -1.1104 12.6812 8.34828 18.0828
521 1 -1.1104 12.3661 8.40739 15.254
523 1 -1.1104 12.5731 5.48439 18.0565
524 1 -1.1104 12.4197 11.1546 18.013
525 2 2.2208 11.1816 9.86187 19.4507
526 1 -1.1104 12.4825 5.60589 15.1815
528 1 -1.1104 12.4886 11.3577 15.2126
530 1 -1.1104 9.84379 8.22115 18.1085
531 2 2.2208 8.40251 6.95751 19.3787
532 2 2.2208 8.24658 12.7178 19.5848
533 1 -1.1104 9.57702 8.44642 15.2593
535 2 2.2208 8.35656 9.88799 16.6184
536 1 -1.1104 9.83109 5.44387 17.8991
537 1 -1.1104 9.66244 11.0816 18.1302
538 1 -1.1104 9.54667 5.60256 15.0278
540 1 -1.1104 9.65416 11.2793 15.2026
522 1 -1.1104 12.5757 8.41337 20.8606
529 1 -1.1104 12.4332 11.2951 20.9141
669 2 2.2208 8.18077 -4.13155 25.0952
364 2 2.2208 11.0691 9.87965 13.7868
363 2 2.2208 8.25692 7.01206 13.7631
447 2 2.2208 -0.199091 18.224 16.6737
368 2 2.2208 2.51511 18.2987 13.8405
476 2 2.2208 -0.245736 21.0662 19.3885
545 2 2.2208 5.35012 18.2411 16.5779
546 1 -1.1104 1.17793 14.0315 18.0307
547 1 -1.1104 1.24276 19.7217 17.9802
550 1 -1.1104 1.33211 14.0792 15.0668
552 1 -1.1104 1.16031 19.5237 15.2699
558 1 -1.1104 1.28943 16.9021 17.9568
560 2 2.2208 5.34769 15.436 19.4907
561 2 2.2208 5.38568 20.9682 19.3666
562 1 -1.1104 1.16105 16.8097 15.1513
566 1 -1.1104 3.99048 14.0688 17.9547
567 1 -1.1104 3.91126 19.6498 18.0971
568 2 2.2208 2.6224 18.2685 19.4703
569 1 -1.1104 4.11003 14.0406 15.2403
571 1 -1.1104 3.79461 19.7187 15.1107
573 2 2.2208 2.55656 15.5176 16.5598
574 2 2.2208 2.57693 21.0444 16.6133
575 1 -1.1104 4.02568 16.9391 18.03
576 1 -1.1104 3.86201 16.944 15.342
570 1 -1.1104 4.02437 13.9441 20.7718
352 2 2.2208 5.58612 4.28167 13.8087
372 2 2.2208 11.1078 21.067 13.9047
448 2 2.2208 -0.132323 15.3886 19.5198
592 1 -1.1104 12.4901 16.9428 20.646
556 1 -1.1104 6.85 19.591 15.231
565 1 -1.1104 6.81755 16.9314 20.7893
554 1 -1.1104 6.9016 14.0018 15.1107
559 1 -1.1104 6.93771 16.9432 17.9174
564 1 -1.1104 6.77363 16.7829 15.1133
548 1 -1.1104 6.75004 14.1427 18.1863
549 1 -1.1104 6.83056 19.6856 17.9902
581 2 2.2208 11.1409 18.3092 16.7132
582 1 -1.1104 12.5033 14.0716 18.091
583 1 -1.1104 12.4711 19.6255 18.0822
584 1 -1.1104 12.5689 13.8845 15.2329
586 1 -1.1104 12.5808 19.6293 15.2918
588 1 -1.1104 12.4106 16.729 17.8655
589 2 2.2208 11.1369 15.511 19.4103
590 2 2.2208 11.0615 21.0958 19.3678
591 1 -1.1104 12.3794 16.8194 15.0429
593 1 -1.1104 9.60258 13.9755 18.0407
594 1 -1.1104 9.69224 19.752 18.019
595 2 2.2208 8.22216 18.3417 19.3743
596 1 -1.1104 9.79863 14.053 15.4022
598 1 -1.1104 9.82309 19.6174 15.2019
600 2 2.2208 8.30938 15.4203 16.6401
601 2 2.2208 8.24584 21.0428 16.5084
602 1 -1.1104 9.71627 16.9306 18.0508
603 1 -1.1104 9.57661 16.8322 15.2482
604 1 -1.1104 9.66253 17.0739 20.7378
557 1 -1.1104 6.88699 19.7366 20.7349
587 1 -1.1104 12.6022 19.6633 20.7835
373 2 2.2208 11.0843 15.4293 13.8822
667 2 2.2208 8.43062 18.2576 24.9616
351 2 2.2208 -0.167623 15.5095 13.855
412 1 -1.1104 1.31958 -2.64275 20.7806
644 2 2.2208 -0.21809 4.25665 25.0189
642 2 2.2208 -0.0878904 -1.43643 25.0304
643 2 2.2208 -0.106539 1.28261 22.088
424 1 -1.1104 1.18223 0.0247711 20.7768
431 1 -1.1104 4.14973 -2.67994 20.9136
414 1 -1.1104 1.21916 2.80084 20.9002
438 1 -1.1104 4.02078 0.0105684 20.8982
609 2 2.2208 5.65346 1.42427 22.3109
610 1 -1.1104 1.27326 -2.82531 23.8217
611 1 -1.1104 1.15925 2.94646 23.626
614 1 -1.1104 1.38937 -2.62517 26.4457
615 1 -1.1104 1.27814 2.96418 26.5049
618 1 -1.1104 1.17556 -0.0338461 23.6315
620 2 2.2208 5.40776 -1.32058 25.1183
621 2 2.2208 5.5205 4.35826 25.0744
622 1 -1.1104 1.35026 0.0911963 26.3479
624 1 -1.1104 4.00012 -2.68673 23.7576
625 1 -1.1104 3.9984 2.90119 23.5482
626 2 2.2208 2.65133 1.57084 25.0535
627 1 -1.1104 4.02711 -2.65106 26.4344
628 1 -1.1104 4.06537 2.93999 26.4508
629 2 2.2208 2.64605 -1.32271 22.2605
630 2 2.2208 2.70795 4.27 22.1043
631 1 -1.1104 3.95663 0.054495 23.6639
632 1 -1.1104 4.04017 0.180641 26.49
608 1 -1.1104 12.6487 14.1512 23.591
663 1 -1.1104 12.4241 16.9334 26.3507
416 1 -1.1104 6.86665 -2.77583 20.9662
426 1 -1.1104 6.83382 -0.0435014 20.903
455 1 -1.1104 12.6302 2.70654 20.83
465 1 -1.1104 9.75036 -2.88976 20.8989
460 1 -1.1104 12.2732 -0.0238031 20.8159
555 1 -1.1104 6.78313 14.1952 20.9505
623 1 -1.1104 6.82721 0.0545014 26.5433
617 1 -1.1104 6.81031 2.91384 26.4836
616 1 -1.1104 6.91576 -2.67783 26.3756
613 1 -1.1104 6.83843 2.87673 23.6974
612 1 -1.1104 6.86559 -2.80288 23.6709
418 1 -1.1104 6.93076 2.66631 20.8843
453 1 -1.1104 12.5188 -2.9179 20.7582
619 1 -1.1104 6.78697 0.102496 23.7199
472 1 -1.1104 9.6302 -0.121144 20.9198
467 1 -1.1104 9.65807 2.80874 20.9391
645 2 2.2208 10.9244 1.37352 22.2107
646 1 -1.1104 12.478 -2.86539 23.5456
647 1 -1.1104 12.2911 2.8475 23.5264
648 1 -1.1104 12.6536 -2.66118 26.3874
649 1 -1.1104 12.4344 2.96456 26.3492
650 1 -1.1104 12.4078 0.147145 23.6878
651 2 2.2208 11.0655 -1.4976 24.9328
652 2 2.2208 11.0752 4.24578 24.8752
653 1 -1.1104 12.4734 0.18375 26.282
654 1 -1.1104 9.65101 -2.94237 23.6056
655 1 -1.1104 9.47126 2.92453 23.6709
656 2 2.2208 8.22755 1.39689 25.1093
657 1 -1.1104 9.70128 -2.78463 26.4632
658 1 -1.1104 9.59233 2.953 26.4878
659 2 2.2208 8.18007 -1.45317 22.1718
660 2 2.2208 8.23764 4.27311 22.2467
661 1 -1.1104 9.60167 -0.103825 23.5302
662 1 -1.1104 9.58852 0.0856531 26.3793
444 2 2.2208 -0.179363 7.05226 22.1001
703 2 2.2208 -0.272961 12.6237 22.2525
487 1 -1.1104 1.19578 8.4267 20.6287
498 1 -1.1104 1.12713 11.2343 20.8452
512 1 -1.1104 4.21781 5.75157 20.8405
507 1 -1.1104 4.13256 8.41419 20.836
674 2 2.2208 5.55453 7.08246 22.2823
675 2 2.2208 5.44031 12.6767 22.2537
676 1 -1.1104 1.34032 8.54001 23.7047
678 1 -1.1104 1.30764 8.41693 26.5423
680 1 -1.1104 1.39695 5.76056 23.6289
681 1 -1.1104 1.40129 11.2552 23.5815
684 2 2.2208 5.53525 9.84622 24.9094
685 1 -1.1104 1.37865 5.66402 26.4113
686 1 -1.1104 1.17134 11.2773 26.4334
689 1 -1.1104 4.124 8.63946 23.6369
690 2 2.2208 2.71849 7.14728 25.0824
691 2 2.2208 2.70509 12.7445 25.0717
692 1 -1.1104 4.23798 8.52584 26.5422
693 2 2.2208 2.59073 9.8471 22.1813
694 1 -1.1104 4.03241 5.75274 23.686
695 1 -1.1104 4.10016 11.3161 23.6941
696 1 -1.1104 4.02275 5.92487 26.6369
697 1 -1.1104 4.15232 11.245 26.2991
702 2 2.2208 -0.122862 9.88284 24.9931
489 1 -1.1104 6.86227 8.33166 20.6685
500 1 -1.1104 6.73404 5.52605 20.8008
502 1 -1.1104 6.85251 11.1811 20.8017
541 1 -1.1104 9.7494 11.3359 20.8853
539 1 -1.1104 9.72646 5.57099 20.8961
688 1 -1.1104 7.03853 11.2197 26.3054
682 1 -1.1104 6.97333 5.6115 23.6412
677 1 -1.1104 7.04727 8.37713 23.5129
683 1 -1.1104 6.92525 11.2132 23.476
679 1 -1.1104 6.96143 8.45132 26.3662
687 1 -1.1104 6.8721 5.74328 26.359
527 1 -1.1104 12.5722 5.6682 20.8354
534 1 -1.1104 9.73281 8.41245 20.7983
705 1 -1.1104 9.74364 11.3004 26.3903
706 1 -1.1104 9.60993 5.67129 26.4931
707 1 -1.1104 9.74842 11.3559 23.624
708 1 -1.1104 9.59754 5.76003 23.6194
709 2 2.2208 8.3733 9.92446 22.1399
710 1 -1.1104 9.74199 8.45957 26.3837
711 2 2.2208 8.24591 12.6518 24.8933
712 2 2.2208 8.31228 7.09573 24.9609
713 2 2.2208 11.1909 7.16577 22.2266
714 2 2.2208 11.19 12.6773 22.3251
715 1 -1.1104 12.6444 8.35483 23.7066
716 1 -1.1104 12.5059 8.51783 26.5073
717 1 -1.1104 12.4064 5.57893 23.528
718 1 -1.1104 12.5043 11.2543 23.7557
719 2 2.2208 11.1125 9.88605 24.996
720 1 -1.1104 12.3609 5.63908 26.4534
721 1 -1.1104 12.5099 11.3028 26.3402
722 1 -1.1104 9.78952 8.54264 23.5329
636 1 -1.1104 12.349 16.8533 23.555
723 2 2.2208 -0.308483 18.1337 22.2844
725 2 2.2208 -0.193891 15.4593 25.0493
577 1 -1.1104 4.12188 16.8628 20.7872
572 1 -1.1104 3.88369 19.6537 20.8617
551 1 -1.1104 1.2064 14.0073 20.8709
563 1 -1.1104 1.26744 16.8349 20.8112
553 1 -1.1104 1.08141 19.628 20.8264
748 1 -1.1104 1.28423 16.898 23.7036
746 1 -1.1104 4.00073 13.917 26.4182
745 1 -1.1104 3.96586 16.7234 26.4992
744 2 2.2208 2.58975 18.2137 25.1146
750 2 2.2208 2.53789 20.9286 22.3788
749 1 -1.1104 4.06767 16.8219 23.5715
727 2 2.2208 2.53447 15.4125 22.2807
729 1 -1.1104 4.07678 19.7106 23.6494
731 1 -1.1104 3.95253 14.1484 23.6036
733 1 -1.1104 1.13324 19.6321 26.4719
734 1 -1.1104 1.12998 16.8395 26.5026
735 1 -1.1104 1.2208 14.092 26.4743
737 2 2.2208 5.41197 21.0094 25.0376
738 2 2.2208 5.53019 15.5589 25.0642
740 1 -1.1104 1.18853 19.5117 23.5884
741 1 -1.1104 1.10539 14.046 23.6769
742 2 2.2208 5.39458 18.2065 22.2186
743 1 -1.1104 3.95715 19.6195 26.4562
724 2 2.2208 -0.136665 21.091 24.8946
585 1 -1.1104 12.5342 14.2585 20.8471
665 1 -1.1104 9.63465 19.6579 23.5783
599 1 -1.1104 9.68039 19.6383 20.776
597 1 -1.1104 9.77875 14.0917 20.8416
698 1 -1.1104 9.62004 19.6486 26.3351
607 2 2.2208 11.0496 18.3169 22.1371
700 2 2.2208 8.20642 21.0896 22.106
670 1 -1.1104 6.71012 19.4864 26.3542
638 2 2.2208 11.1072 15.4308 25.0042
634 1 -1.1104 12.4867 14.1244 26.3617
730 1 -1.1104 6.72764 14.0629 26.3777
635 1 -1.1104 12.4053 19.7177 26.1545
704 1 -1.1104 9.76163 16.8048 26.4764
699 2 2.2208 8.3089 15.5639 22.1993
732 1 -1.1104 7.09351 16.759 26.3392
701 1 -1.1104 9.58434 16.9079 23.6428
641 2 2.2208 10.9587 21.1057 24.9552
633 1 -1.1104 12.3939 19.6934 23.4771
664 1 -1.1104 9.73861 14.14 23.5003
369 2 2.2208 5.52149 21 13.8133
347 2 2.2208 2.73501 -4.35437 13.8243
640 2 2.2208 2.66532 -4.10769 25.1285
440 2 2.2208 5.51638 -4.24305 16.6509
639 2 2.2208 5.41667 -4.21071 22.3667
365 2 2.2208 8.269 12.6916 13.8185
358 2 2.2208 -0.0549262 9.83395 13.8381
441 2 2.2208 2.73337 -4.10099 19.2895
475 2 2.2208 8.16698 -4.2557 19.5362
439 2 2.2208 -0.0858148 -4.18621 16.5251
400 2 2.2208 11.1093 12.6486 27.8427
751 2 2.2208 5.3356 23.8199 5.43127
752 2 2.2208 5.37297 29.4004 5.29078
753 1 -1.1104 1.01458 25.29 1.04598
754 1 -1.1104 1.11858 25.4089 3.89108
755 1 -1.1104 1.2605 22.4 1.31884
756 1 -1.1104 1.17886 28.1531 1.0174
757 2 2.2208 5.25334 26.5639 2.5939
758 1 -1.1104 1.04511 22.5686 3.99346
759 1 -1.1104 1.17745 28.1222 3.79105
760 1 -1.1104 4.05837 25.2302 1.04921
761 2 2.2208 2.72248 23.7638 2.53311
762 2 2.2208 2.59576 29.5302 2.49382
763 1 -1.1104 4.08047 25.1993 3.88911
764 2 2.2208 2.55055 26.7291 5.35475
765 1 -1.1104 4.00696 22.4326 1.12989
766 1 -1.1104 3.99305 28.0138 1.20728
767 1 -1.1104 3.84671 22.5615 4.14402
768 1 -1.1104 3.80164 27.9421 3.84287
1677 1 -1.1104 6.71752 47.6822 9.42243
771 2 2.2208 -0.230586 26.7925 2.51125
892 1 -1.1104 1.14845 25.3573 6.87863
769 2 2.2208 -0.247747 29.5935 5.40032
1135 2 2.2208 -0.336815 46.3122 -0.42258
775 1 -1.1104 6.86504 28.198 1.13296
1042 2 2.2208 -0.175191 40.5816 10.9408
871 2 2.2208 -0.310602 40.7709 5.25088
1115 2 2.2208 8.11887 43.4939 -0.201029
1080 2 2.2208 -0.193967 35.1147 10.8102
777 1 -1.1104 6.63145 27.9792 3.87779
774 1 -1.1104 6.73832 22.4805 1.11422
772 1 -1.1104 6.76438 25.2341 1.1673
773 1 -1.1104 6.75839 25.1478 3.89206
776 1 -1.1104 6.64621 22.3408 4.0594
778 2 2.2208 10.9942 23.9473 5.3731
779 2 2.2208 10.981 29.4982 5.28495
780 1 -1.1104 12.3215 25.3021 0.966568
781 1 -1.1104 12.2879 25.3928 3.83907
782 1 -1.1104 12.4344 22.4899 1.19666
783 1 -1.1104 12.1389 28.0956 1.15865
784 2 2.2208 10.9954 26.6592 2.51515
785 1 -1.1104 12.3438 22.459 4.01882
786 1 -1.1104 12.4382 28.2007 4.04376
787 1 -1.1104 9.5023 25.2013 1.18008
788 2 2.2208 8.15913 23.896 2.59726
789 2 2.2208 8.18058 29.4917 2.45614
790 1 -1.1104 9.48058 25.2722 3.9865
791 2 2.2208 8.12026 26.7264 5.3256
792 1 -1.1104 9.59232 22.4138 0.948856
793 1 -1.1104 9.60758 27.993 1.03626
794 1 -1.1104 9.56631 22.4476 3.83056
795 1 -1.1104 9.53687 28.1064 3.88214
926 1 -1.1104 12.4265 22.5179 6.83321
1117 2 2.2208 -0.202557 29.4576 -0.210166
927 1 -1.1104 12.3757 27.9818 6.80135
930 1 -1.1104 9.657 28.1705 6.75662
821 2 2.2208 -0.289062 37.9532 2.50714
1123 2 2.2208 2.54871 38.0159 -0.363912
799 2 2.2208 5.30989 34.9918 5.39545
800 1 -1.1104 1.13873 30.9457 1.01787
801 1 -1.1104 1.12487 36.649 1.05747
803 1 -1.1104 1.12521 30.872 3.83751
804 1 -1.1104 1.026 36.456 3.84919
806 1 -1.1104 0.963404 33.7192 1.05937
807 2 2.2208 5.43133 32.2417 2.5282
808 2 2.2208 5.49093 37.8527 2.66346
809 1 -1.1104 1.03289 33.6722 3.81537
811 1 -1.1104 4.04576 30.7059 1.26066
812 1 -1.1104 3.79796 36.6372 1.23411
813 2 2.2208 2.34216 35.1241 2.40463
814 1 -1.1104 3.98883 30.7477 4.0396
815 1 -1.1104 4.12419 36.41 3.98832
816 2 2.2208 2.57001 32.3346 5.2882
817 2 2.2208 2.6425 37.896 5.16809
818 1 -1.1104 3.79061 33.581 1.01167
819 1 -1.1104 3.90668 33.7067 3.91538
810 1 -1.1104 6.7525 33.6522 3.8347
953 1 -1.1104 1.08038 33.8043 6.77588
982 2 2.2208 -0.167275 38.0135 7.90098
1109 2 2.2208 10.9443 46.2699 -0.37934
1125 2 2.2208 5.23082 35.0836 -0.321379
805 1 -1.1104 6.87505 36.5508 3.93804
952 1 -1.1104 6.79875 36.4359 6.74623
1122 2 2.2208 10.9921 29.4334 -0.254853
949 1 -1.1104 1.15118 30.8427 6.64495
955 1 -1.1104 3.98644 30.8261 6.68788
957 1 -1.1104 3.82631 33.5927 6.63509
1121 2 2.2208 13.7461 26.612 -0.356018
1074 2 2.2208 -0.171455 29.4917 11.026
825 1 -1.1104 6.69994 33.6667 1.01448
802 1 -1.1104 6.65598 36.3887 1.14223
824 1 -1.1104 6.73058 30.8122 3.92907
823 1 -1.1104 6.69656 30.8443 1.0226
826 2 2.2208 11.0131 35.0626 5.25966
827 1 -1.1104 12.2594 31.0441 1.17552
828 1 -1.1104 12.3297 36.5489 1.20694
829 1 -1.1104 12.4241 30.8667 3.85802
830 1 -1.1104 12.3519 36.4484 3.97515