ITEM: TIMESTEP
30000
ITEM: NUMBER OF ATOMS
17640
ITEM: BOX BOUNDS pp pp pp
-3.5818654958308721e-01 2.7698186549583742e+01
-4.2728910068210908e+00 3.3235289100681547e+02
-3.5712518833338680e-01 2.7697125188333651e+01
ITEM: ATOMS id type q x y z
1 2 2.2208 5.36966 1.35644 5.48686
2 1 -1.1104 1.19335 -2.85924 1.16196
3 1 -1.1104 1.2345 2.72912 1.35698
6 1 -1.1104 1.05391 -2.97236 3.92351
7 1 -1.1104 1.23227 2.68326 4.01693
10 1 -1.1104 1.08287 0.105782 1.19155
12 2 2.2208 5.33555 -1.53621 2.81525
13 2 2.2208 5.26083 4.0114 2.62219
14 1 -1.1104 1.21333 -0.0989083 3.97869
16 1 -1.1104 3.96193 -3.10701 1.37582
17 1 -1.1104 3.99731 2.61297 1.21674
18 2 2.2208 2.46411 1.29359 2.61054
19 1 -1.1104 3.84638 -3.02428 4.17133
20 1 -1.1104 4.01484 2.72611 4.15219
21 2 2.2208 2.46711 -1.69651 5.41904
22 2 2.2208 2.51963 4.14708 5.43387
23 1 -1.1104 3.89521 -0.205181 1.27475
24 1 -1.1104 3.98131 -0.113578 4.16942
26 2 2.2208 -0.204126 1.30935 5.39566
27 2 2.2208 -0.267708 4.10216 2.54027
203 2 2.2208 5.51109 -4.38865 11.1114
381 2 2.2208 5.32385 1.32248 -0.361596
383 2 2.2208 2.58977 4.14416 -0.17014
30 2 2.2208 -0.244155 -4.41188 5.34633
382 2 2.2208 2.6078 -1.48634 -0.237119
403 2 2.2208 2.47758 15.3139 -0.184491
395 2 2.2208 5.3389 12.4262 -0.296688
202 2 2.2208 2.52921 -4.22984 8.26966
11 1 -1.1104 6.60488 -0.0587327 1.25717
9 1 -1.1104 6.70097 2.79274 4.04053
388 2 2.2208 8.21352 -1.44807 -0.130786
15 1 -1.1104 6.82601 -0.0272696 4.00669
5 1 -1.1104 6.73017 2.67735 1.24485
8 1 -1.1104 6.64517 -2.89583 4.15833
4 1 -1.1104 6.89155 -2.81136 1.25133
31 2 2.2208 11.01 1.35466 5.32594
32 1 -1.1104 12.4855 -2.74977 1.1069
33 1 -1.1104 12.471 2.72853 0.989053
34 1 -1.1104 12.3803 -2.75684 4.16603
35 1 -1.1104 12.4614 2.83106 3.79503
36 1 -1.1104 12.2733 -0.0338071 1.23936
37 2 2.2208 11.01 -1.43105 2.68769
38 2 2.2208 10.9375 4.22618 2.61507
39 1 -1.1104 12.6243 6.90884e-05 4.02852
40 1 -1.1104 9.60926 -2.90034 1.18029
41 1 -1.1104 9.52435 2.77395 1.19426
42 2 2.2208 8.15613 1.33759 2.61102
43 1 -1.1104 9.58805 -2.7912 3.84558
44 1 -1.1104 9.63505 2.96793 4.10561
45 2 2.2208 8.22085 -1.37572 5.31422
47 1 -1.1104 9.51049 -0.00168446 1.12714
48 1 -1.1104 9.63934 0.0293386 3.95996
387 2 2.2208 10.9634 1.44274 -0.140062
46 2 2.2208 8.05468 4.13786 5.46503
83 2 2.2208 -0.230951 12.637 5.43036
54 2 2.2208 5.35285 6.93802 5.38595
55 2 2.2208 5.236 12.5333 5.2697
56 1 -1.1104 1.34152 8.38297 1.2186
58 1 -1.1104 0.983269 8.41026 3.93545
60 1 -1.1104 1.26654 5.61041 1.05687
61 1 -1.1104 1.12526 11.0029 1.1543
66 2 2.2208 5.43789 9.7271 2.53505
67 1 -1.1104 1.11412 5.62436 3.95365
68 1 -1.1104 1.03233 11.2926 3.90527
71 1 -1.1104 4.07695 8.34128 1.10103
72 2 2.2208 2.56931 6.85141 2.52987
73 2 2.2208 2.44238 12.6262 2.57415
74 1 -1.1104 3.81238 8.20146 3.91463
75 2 2.2208 2.5722 9.72064 5.15027
76 1 -1.1104 3.98085 5.51499 1.14509
77 1 -1.1104 3.97307 11.0869 1.13549
79 1 -1.1104 3.99119 5.48963 4.17457
80 1 -1.1104 4.07421 10.9853 3.97625
82 2 2.2208 -0.20122 9.81072 2.54584
29 2 2.2208 5.4769 -4.31442 5.54295
394 2 2.2208 2.60802 9.7986 -0.238848
404 2 2.2208 5.28235 17.9849 -0.152925
232 2 2.2208 11.1142 -4.21479 11.0762
69 1 -1.1104 6.83577 5.63179 4.17474
81 2 2.2208 -0.327446 7.0326 5.39175
397 2 2.2208 -0.225886 7.06965 -0.199802
63 1 -1.1104 6.81714 5.47632 1.41307
57 1 -1.1104 6.90857 8.39467 1.30045
70 1 -1.1104 6.67671 11.1851 3.94459
59 1 -1.1104 6.69934 8.39924 4.04104
64 1 -1.1104 6.82684 11.2863 1.1945
84 2 2.2208 10.8653 7.00189 5.46819
85 2 2.2208 10.9401 12.5278 5.49961
86 1 -1.1104 12.4568 8.47833 1.17701
87 1 -1.1104 12.2857 8.3778 4.02682
88 1 -1.1104 12.1809 5.4534 1.18863
89 1 -1.1104 12.3402 11.1434 1.22878
91 2 2.2208 10.9739 9.80098 2.52273
92 1 -1.1104 12.3913 5.72295 4.07804
93 1 -1.1104 12.267 11.1479 4.03101
94 1 -1.1104 9.66467 8.2697 1.29361
95 2 2.2208 8.16169 7.03311 2.67496
96 2 2.2208 8.19303 12.507 2.54185
97 1 -1.1104 9.41865 8.47562 3.97223
98 2 2.2208 8.06477 9.85961 5.46801
99 1 -1.1104 9.49099 5.54572 1.01507
100 1 -1.1104 9.58087 11.0382 1.09998
102 1 -1.1104 9.52095 5.62489 3.9008
103 1 -1.1104 9.51597 11.0914 3.94617
400 2 2.2208 10.9738 12.4716 -0.262166
399 2 2.2208 8.14174 9.61157 -0.179123
330 1 -1.1104 12.4723 13.7776 12.4137
398 2 2.2208 11.0735 7.05228 -0.247769
136 2 2.2208 -0.386825 20.8235 2.52145
312 2 2.2208 -0.26547 18.1643 11.012
137 2 2.2208 -0.373843 18.16 5.43951
106 2 2.2208 5.34889 18.1184 5.49211
107 1 -1.1104 0.928889 13.7431 1.25211
109 1 -1.1104 1.1015 19.4114 1.11941
113 1 -1.1104 1.14769 14.0013 3.9777
114 1 -1.1104 1.136 19.5012 3.97223
116 1 -1.1104 1.03255 16.5745 1.17063
119 2 2.2208 5.35913 15.3658 2.5269
120 2 2.2208 5.36719 20.8116 2.6107
121 1 -1.1104 1.18949 16.8572 4.01269
123 1 -1.1104 3.81971 13.8784 1.107
125 1 -1.1104 3.94471 19.5523 1.18157
127 2 2.2208 2.42371 18.1059 2.62154
128 1 -1.1104 3.88107 13.8033 3.8977
129 1 -1.1104 4.08979 19.4183 3.95505
130 2 2.2208 2.50228 15.4449 5.42781
131 2 2.2208 2.4727 20.8697 5.32697
132 1 -1.1104 3.89946 16.5665 1.17863
134 1 -1.1104 4.00102 16.6957 4.07906
311 2 2.2208 -0.229805 20.9174 8.22318
405 2 2.2208 2.58748 20.9749 -0.230822
135 2 2.2208 -0.335174 15.3437 2.58529
204 2 2.2208 -0.195845 -4.30315 11.0446
377 2 2.2208 8.18217 15.4219 -0.212976
379 2 2.2208 8.137 20.7965 -0.23901
122 1 -1.1104 6.72465 16.7847 4.18794
138 1 -1.1104 6.70246 19.3913 1.25089
110 1 -1.1104 6.77199 13.9807 1.20227
140 1 -1.1104 6.66103 16.6095 1.22722
139 1 -1.1104 6.7888 19.4903 3.97597
115 1 -1.1104 6.82069 13.962 3.90928
141 2 2.2208 10.8944 18.2035 5.34058
142 1 -1.1104 12.3353 13.8818 1.13283
144 1 -1.1104 12.2448 19.382 1.23322
146 1 -1.1104 12.3431 14.1384 3.92154
147 1 -1.1104 12.5123 19.5392 4.01623
148 1 -1.1104 12.2692 16.8147 1.07095
150 2 2.2208 10.9204 15.4024 2.4751
151 2 2.2208 10.9213 20.9246 2.54892
152 1 -1.1104 12.3304 16.8685 3.9266
153 1 -1.1104 9.63254 13.9254 1.07886
155 1 -1.1104 9.45003 19.5366 1.23496
157 2 2.2208 8.13446 18.0919 2.57114
158 1 -1.1104 9.51951 13.8376 3.90527
159 1 -1.1104 9.64546 19.525 3.97643
160 2 2.2208 8.15157 15.2643 5.46525
161 2 2.2208 8.13953 21.0092 5.30377
162 1 -1.1104 9.51549 16.7519 1.24292
164 1 -1.1104 9.47099 16.7274 4.00214
378 2 2.2208 10.9656 18.1185 -0.22096
317 2 2.2208 8.21345 15.3089 11.0383
316 2 2.2208 8.21469 20.8135 10.8452
200 2 2.2208 -0.217042 -1.49027 8.11267
172 1 -1.1104 3.88696 -2.81679 6.89877
201 2 2.2208 -0.133447 1.23523 11.036
173 1 -1.1104 3.8317 2.85528 6.82815
174 1 -1.1104 4.12186 0.125074 7.10653
167 1 -1.1104 1.1786 2.88547 6.80912
170 1 -1.1104 1.23968 -0.089742 6.92445
166 1 -1.1104 1.13685 -2.92145 6.87426
175 2 2.2208 5.3497 1.31514 11.0052
176 1 -1.1104 1.16988 -2.92805 12.5035
177 1 -1.1104 1.14015 2.64721 12.5081
180 1 -1.1104 1.14254 -2.85343 9.61071
181 1 -1.1104 1.32546 2.7374 9.63117
184 1 -1.1104 1.20627 -0.189605 12.422
186 2 2.2208 5.44242 -1.55254 8.3953
187 2 2.2208 5.36166 4.12882 8.10099
188 1 -1.1104 1.26997 -0.0261299 9.54232
190 1 -1.1104 4.14356 -2.86758 12.3159
191 1 -1.1104 3.991 2.68938 12.4572
192 2 2.2208 2.55207 1.37821 8.21419
193 1 -1.1104 3.98513 -3.01835 9.65394
194 1 -1.1104 3.99721 2.60097 9.63232
195 2 2.2208 2.59894 -1.65357 11.0332
196 2 2.2208 2.63061 4.10341 11.0094
197 1 -1.1104 4.03197 -0.213122 12.5443
198 1 -1.1104 4.09969 -0.274746 9.87667
199 2 2.2208 -0.270249 4.28054 8.29285
185 1 -1.1104 6.98198 -0.0876723 12.3984
182 1 -1.1104 6.95763 -2.97268 9.79732
171 1 -1.1104 6.79742 -0.15095 6.78729
289 1 -1.1104 6.87399 16.7845 9.62946
189 1 -1.1104 6.80994 -0.225399 9.59223
207 1 -1.1104 12.5641 -0.0626609 6.77589
208 1 -1.1104 9.72883 -2.65446 6.74407
168 1 -1.1104 6.7536 -2.80168 6.80758
179 1 -1.1104 6.60825 2.94241 12.3181
178 1 -1.1104 6.89242 -3.00803 12.4628
183 1 -1.1104 6.92052 2.63315 9.54969
169 1 -1.1104 6.67363 2.61919 6.83726
210 1 -1.1104 9.75801 0.0717042 6.7759
206 1 -1.1104 12.2713 2.70143 6.71979
209 1 -1.1104 9.57451 2.74886 6.6467
205 1 -1.1104 12.5368 -2.96965 6.96044
211 2 2.2208 11.0975 1.41338 10.8803
212 1 -1.1104 12.5775 -2.73596 12.1935
213 1 -1.1104 12.3219 2.7958 12.2933
214 1 -1.1104 12.5397 -2.86576 9.50394
215 1 -1.1104 12.4283 2.85089 9.53255
216 1 -1.1104 12.4923 0.0252572 12.4237
217 2 2.2208 11.1541 -1.49129 8.19962
218 2 2.2208 10.9586 4.07993 8.13682
219 1 -1.1104 12.559 0.0448664 9.51848
220 1 -1.1104 9.70782 -2.80459 12.4821
221 1 -1.1104 9.3426 2.6229 12.2641
222 2 2.2208 8.215 1.20332 8.11925
223 1 -1.1104 9.70009 -2.80174 9.50027
224 1 -1.1104 9.61557 2.75078 9.55221
225 2 2.2208 8.31483 -1.48913 10.9876
226 2 2.2208 8.12491 4.13351 10.8861
227 1 -1.1104 9.69926 0.0143636 12.379
228 1 -1.1104 9.81421 -0.145229 9.55357
234 1 -1.1104 1.17903 8.49623 6.61267
62 1 -1.1104 1.17847 11.1521 6.7765
238 1 -1.1104 3.95289 8.37267 6.69507
239 1 -1.1104 3.81119 5.59907 6.84747
236 1 -1.1104 1.10529 5.54249 6.87927
78 1 -1.1104 3.92015 11.0933 6.6012
240 2 2.2208 5.23978 6.85255 10.952
241 2 2.2208 5.3643 12.5189 10.9621
242 1 -1.1104 1.18934 8.25067 12.5265
244 1 -1.1104 1.05323 8.32216 9.527
246 1 -1.1104 1.09621 5.53944 12.5963
247 1 -1.1104 1.17055 11.1007 12.4661
250 2 2.2208 5.33428 9.71246 8.0911
251 1 -1.1104 1.15961 5.58826 9.84469
252 1 -1.1104 1.25679 11.2055 9.63396
255 1 -1.1104 3.92555 8.33515 12.4946
256 2 2.2208 2.5013 6.9137 8.21535
257 2 2.2208 2.65739 12.5005 8.14916
258 1 -1.1104 3.9238 8.21447 9.67721
259 2 2.2208 2.56514 9.74026 11.0141
260 1 -1.1104 3.89244 5.59711 12.3172
261 1 -1.1104 3.99315 11.1651 12.1995
262 1 -1.1104 3.92087 5.40958 9.54644
263 1 -1.1104 4.04624 11.0175 9.57132
389 2 2.2208 8.12496 4.22728 -0.118837
343 2 2.2208 -0.160919 9.81441 8.21729
344 2 2.2208 -0.309892 6.9037 11.1651
90 1 -1.1104 12.3165 11.2684 6.80452
235 1 -1.1104 6.84912 8.28006 6.79856
253 1 -1.1104 6.60082 5.44527 9.57946
237 1 -1.1104 6.63128 5.52516 6.90436
266 1 -1.1104 12.2802 5.43917 6.83223
65 1 -1.1104 6.72973 11.1787 6.87783
265 1 -1.1104 12.4089 8.40566 6.84321
267 1 -1.1104 9.60669 8.32824 6.82519
101 1 -1.1104 9.60393 11.2115 6.91159
249 1 -1.1104 6.81223 11.1761 12.5431
248 1 -1.1104 6.7555 5.59146 12.2505
243 1 -1.1104 6.6796 8.40192 12.3221
269 1 -1.1104 9.39859 5.51139 6.80549
245 1 -1.1104 6.76575 8.22762 9.41117
254 1 -1.1104 6.87156 11.0952 9.66822
264 1 -1.1104 9.51887 11.1117 9.746
268 1 -1.1104 9.62942 5.4844 9.4398
270 1 -1.1104 9.4773 11.0364 12.5045
271 1 -1.1104 9.60167 5.40253 12.2686
272 2 2.2208 8.10407 9.63063 10.9254
273 1 -1.1104 9.46988 8.27533 9.52624
274 2 2.2208 8.15719 12.5357 8.28543
275 2 2.2208 8.16922 6.92075 8.17446
276 2 2.2208 10.8433 6.8705 10.9851
277 2 2.2208 10.9834 12.6135 10.9537
278 1 -1.1104 12.286 8.25947 12.312
279 1 -1.1104 12.2483 8.37568 9.53562
280 1 -1.1104 12.4503 5.52911 12.4909
281 1 -1.1104 12.3737 11.0056 12.44
282 2 2.2208 10.93 9.81171 8.25784
283 1 -1.1104 12.499 5.61073 9.64672
284 1 -1.1104 12.2661 11.2326 9.56367
285 1 -1.1104 9.47381 8.17376 12.3893
126 1 -1.1104 3.94899 19.5164 6.71756
393 2 2.2208 5.31829 6.95219 -0.231202
313 2 2.2208 -0.192121 15.414 8.25302
302 1 -1.1104 1.21319 19.5354 6.66727
320 2 2.2208 8.21958 18.1214 8.12586
124 1 -1.1104 3.92537 13.9171 6.72398
117 1 -1.1104 1.10147 16.7281 6.80108
133 1 -1.1104 3.91912 16.6858 6.82621
108 1 -1.1104 1.09918 14.0181 6.86158
294 1 -1.1104 1.27672 13.8343 9.56933
292 1 -1.1104 1.17617 16.7204 9.60311
293 2 2.2208 5.4423 20.8479 8.07053
310 2 2.2208 2.60021 15.223 11.0838
309 2 2.2208 2.59407 20.7897 10.9797
308 1 -1.1104 3.97165 16.7851 12.3643
307 1 -1.1104 1.03978 16.6718 12.3343
287 1 -1.1104 4.0638 14.0293 12.4043
305 1 -1.1104 3.97369 13.7767 9.60751
304 1 -1.1104 3.99538 16.5997 9.59171
303 2 2.2208 2.62961 18.0933 8.18491
301 1 -1.1104 4.02639 19.4194 9.40318
286 1 -1.1104 4.03972 19.5599 12.2866
300 2 2.2208 5.49369 18.2294 10.9618
299 1 -1.1104 1.19048 13.8549 12.4656
298 1 -1.1104 1.14353 19.5565 12.2785
291 1 -1.1104 1.25523 19.5056 9.42697
295 2 2.2208 5.32097 15.2742 8.17728
342 2 2.2208 -0.275012 12.5945 11.018
288 1 -1.1104 6.71573 19.5863 9.50424
290 1 -1.1104 6.82989 13.8933 9.58287
315 1 -1.1104 9.56433 16.7504 12.4899
306 1 -1.1104 6.76457 16.8057 12.3994
156 1 -1.1104 9.59222 19.6221 6.72215
111 1 -1.1104 6.65178 13.892 6.71927
331 2 2.2208 10.999 18.2005 10.8991
163 1 -1.1104 9.51925 16.8309 6.77597
318 1 -1.1104 9.53124 19.5191 9.50469
328 1 -1.1104 12.3262 13.9529 9.49734
149 1 -1.1104 12.2845 16.8017 6.71428
296 1 -1.1104 6.85965 19.412 12.2968
323 1 -1.1104 12.4152 16.5613 9.47789
297 1 -1.1104 6.78269 13.9924 12.2246
319 1 -1.1104 9.58761 13.989 9.61029
324 2 2.2208 10.8614 20.9865 8.12934
322 1 -1.1104 9.59546 13.9586 12.4295
325 2 2.2208 11.0368 15.4121 8.08666
327 1 -1.1104 12.3817 19.4719 9.62055
118 1 -1.1104 6.73783 16.655 6.87627
112 1 -1.1104 6.85868 19.6017 6.74344
145 1 -1.1104 12.2244 19.4582 6.80029
326 1 -1.1104 12.4206 16.8935 12.3124
154 1 -1.1104 9.53817 13.9589 6.81091
329 1 -1.1104 12.3583 19.578 12.458
314 1 -1.1104 9.67951 16.8343 9.64338
321 1 -1.1104 9.56009 19.5548 12.5589
143 1 -1.1104 12.5 14.0096 6.74677
371 2 2.2208 5.41308 15.362 13.8732
406 2 2.2208 5.50028 1.29543 16.5633
407 1 -1.1104 1.33665 -2.95541 18.0238
408 1 -1.1104 1.2048 2.73666 17.9923
411 1 -1.1104 1.28513 -2.89363 15.2313
413 1 -1.1104 1.30963 2.65454 15.1782
419 1 -1.1104 1.20918 0.00394859 17.985
421 2 2.2208 5.43977 -1.35728 19.4193
422 2 2.2208 5.38731 4.08062 19.4609
423 1 -1.1104 1.03863 -0.0918021 15.2302
427 1 -1.1104 4.14561 -2.99887 17.9669
428 1 -1.1104 3.97366 2.62872 18.0086
429 2 2.2208 2.53867 1.31399 19.4154
430 1 -1.1104 4.10052 -3.10094 15.2612
432 1 -1.1104 4.09749 2.59551 15.0935
434 2 2.2208 2.53977 -1.6045 16.6154
435 2 2.2208 2.64287 4.17333 16.6415
436 1 -1.1104 3.99319 -0.219302 17.9969
437 1 -1.1104 4.0261 -0.409865 15.234
352 2 2.2208 5.37076 4.30127 13.7572
442 2 2.2208 -0.290904 1.33799 16.6626
701 1 -1.1104 9.49457 16.6162 23.6639
346 2 2.2208 -0.174259 -1.35884 13.8364
348 2 2.2208 5.6453 -1.57533 13.8218
443 2 2.2208 -0.067921 -1.53474 19.3189
349 2 2.2208 2.77109 1.18141 13.8453
580 2 2.2208 13.713 15.2798 22.1384
544 2 2.2208 -0.123671 4.18352 19.412
356 2 2.2208 11.1676 -1.23851 13.8129
417 1 -1.1104 6.85968 2.73552 15.3299
425 1 -1.1104 6.84204 -0.00819304 15.0708
409 1 -1.1104 7.0005 -2.71938 17.9998
420 1 -1.1104 6.7887 -0.0336132 17.9324
410 1 -1.1104 6.82265 2.76694 18.1159
415 1 -1.1104 7.08732 -2.94614 15.3347
449 2 2.2208 10.9854 1.29379 16.6092
450 1 -1.1104 12.3917 -2.87599 17.9035
451 1 -1.1104 12.4342 2.74677 17.9536
452 1 -1.1104 12.4844 -2.76366 15.0453
454 1 -1.1104 12.4555 2.9002 15.1359
456 1 -1.1104 12.4719 -0.0439028 18.0604
457 2 2.2208 11.0439 -1.45737 19.4552
458 2 2.2208 11.0677 4.09178 19.4313
459 1 -1.1104 12.4247 0.117538 15.0589
461 1 -1.1104 9.66654 -2.80214 18.0704
462 1 -1.1104 9.6864 2.75482 17.9545
463 2 2.2208 8.23283 1.34946 19.4198
464 1 -1.1104 9.76282 -2.81006 15.1715
466 1 -1.1104 9.5291 2.81337 15.1604
468 2 2.2208 8.25289 -1.53873 16.6263
469 2 2.2208 8.1398 4.19016 16.6516
470 1 -1.1104 9.65744 -0.104096 17.9866
471 1 -1.1104 9.58397 -0.0790839 15.2371
355 2 2.2208 8.25542 1.36129 13.8507
448 2 2.2208 -0.19094 15.3634 19.3742
351 2 2.2208 -0.257378 15.3162 13.791
357 2 2.2208 10.9279 4.14713 13.7765
481 2 2.2208 -0.236666 6.96691 16.6204
482 2 2.2208 5.31977 6.96441 16.6008
483 2 2.2208 5.39447 12.3965 16.6258
484 1 -1.1104 1.14316 8.35061 18.0393
486 1 -1.1104 1.06651 8.43314 15.3543
490 1 -1.1104 1.20476 5.61334 18.0629
491 1 -1.1104 1.09939 11.1851 18.1496
494 2 2.2208 5.3387 9.77316 19.5432
495 1 -1.1104 1.14968 5.64497 15.2509
497 1 -1.1104 0.919305 11.0626 15.2911
503 1 -1.1104 3.91801 8.25263 18.0988
504 2 2.2208 2.53056 7.01941 19.3754
505 2 2.2208 2.44564 12.5263 19.5582
506 1 -1.1104 3.97368 8.37388 15.3422
508 2 2.2208 2.53166 9.78795 16.5782
509 1 -1.1104 3.98444 5.52663 18.042
510 1 -1.1104 3.98738 10.9772 17.9024
511 1 -1.1104 3.88982 5.58424 15.0617
513 1 -1.1104 3.85788 11.1439 15.0765
361 2 2.2208 2.65598 12.582 13.7557
359 2 2.2208 2.49898 6.97072 13.811
358 2 2.2208 -0.294426 9.79211 13.8317
516 2 2.2208 -0.384169 12.5718 16.618
367 2 2.2208 -0.182865 3.99273 13.8765
364 2 2.2208 10.9026 9.72479 13.7936
485 1 -1.1104 6.8583 8.4881 18.1148
363 2 2.2208 8.06915 6.93888 13.6643
492 1 -1.1104 6.85771 5.55114 18.0011
488 1 -1.1104 6.77317 8.23664 15.2935
501 1 -1.1104 6.74 11.0353 15.3175
493 1 -1.1104 6.83894 11.1813 18.0851
499 1 -1.1104 6.67368 5.48567 15.1884
518 2 2.2208 10.9761 6.88249 16.5957
519 2 2.2208 11.0547 12.5687 16.5383
520 1 -1.1104 12.4273 8.33732 17.8955
521 1 -1.1104 12.4046 8.29717 15.1564
523 1 -1.1104 12.4273 5.57469 18.2095
524 1 -1.1104 12.4573 11.1422 17.9884
525 2 2.2208 11.1131 9.75483 19.285
526 1 -1.1104 12.1995 5.5941 15.2221
528 1 -1.1104 12.3066 11.108 15.1477
530 1 -1.1104 9.61911 8.28164 17.9941
531 2 2.2208 8.16955 6.94333 19.4688
532 2 2.2208 8.11279 12.4804 19.416
533 1 -1.1104 9.50997 8.24306 15.1386
535 2 2.2208 8.26386 9.59014 16.6615
536 1 -1.1104 9.54854 5.58449 17.9548
537 1 -1.1104 9.67345 11.1264 17.8154
538 1 -1.1104 9.33088 5.52477 15.1827
540 1 -1.1104 9.63502 11.0429 15.1423
527 1 -1.1104 12.4512 5.38024 20.8373
365 2 2.2208 8.15638 12.5407 13.7181
534 1 -1.1104 9.62509 8.27168 20.8835
515 2 2.2208 -0.276654 9.76323 19.3211
476 2 2.2208 -0.160728 20.9569 19.4708
545 2 2.2208 5.31953 18.1917 16.6054
546 1 -1.1104 1.13964 14.0233 17.9319
547 1 -1.1104 1.13344 19.4913 17.9938
550 1 -1.1104 1.14349 13.8637 15.1735
552 1 -1.1104 1.13404 19.5224 15.1409
558 1 -1.1104 1.26823 16.8456 18.0224
560 2 2.2208 5.19298 15.3326 19.3773
561 2 2.2208 5.17887 20.9981 19.39
562 1 -1.1104 1.14076 16.7393 15.1742
566 1 -1.1104 3.89264 13.8368 18.0601
567 1 -1.1104 3.93575 19.5555 17.8402
568 2 2.2208 2.53766 18.079 19.4933
569 1 -1.1104 4.03368 13.9024 15.3001
571 1 -1.1104 3.95963 19.4795 15.0589
573 2 2.2208 2.64053 15.3584 16.5709
574 2 2.2208 2.54439 20.8097 16.5861
575 1 -1.1104 3.91214 16.7003 18.0471
576 1 -1.1104 3.95765 16.81 15.225
447 2 2.2208 -0.326694 18.2158 16.5596
369 2 2.2208 5.45248 20.8783 13.7283
350 2 2.2208 -0.248759 20.9394 13.8415
475 2 2.2208 8.29465 -4.28095 19.487
637 2 2.2208 -0.0836622 -4.30339 22.2012
372 2 2.2208 11.0481 20.8192 13.8594
564 1 -1.1104 6.6157 16.5375 15.3412
548 1 -1.1104 6.84242 13.9651 18.0341
556 1 -1.1104 6.75943 19.4548 15.1752
554 1 -1.1104 6.78362 13.8046 15.0554
559 1 -1.1104 6.7395 16.6568 18.0258
549 1 -1.1104 6.62568 19.6116 18.0583
581 2 2.2208 10.8842 18.1896 16.6589
582 1 -1.1104 12.1978 14.0237 17.9656
583 1 -1.1104 12.4365 19.556 18.009
584 1 -1.1104 12.3919 13.9604 15.2528
586 1 -1.1104 12.3078 19.5354 15.2894
588 1 -1.1104 12.3154 16.7632 17.9484
589 2 2.2208 10.9602 15.3104 19.4506
590 2 2.2208 11.0295 21.0329 19.5042
591 1 -1.1104 12.1887 16.8644 15.1658
593 1 -1.1104 9.49727 13.9554 18.0201
594 1 -1.1104 9.56463 19.6279 18.0964
595 2 2.2208 8.12503 18.0586 19.5106
596 1 -1.1104 9.54825 13.8743 15.2082
598 1 -1.1104 9.42089 19.404 15.2492
600 2 2.2208 8.21316 15.1966 16.7027
601 2 2.2208 8.1793 20.9604 16.6486
602 1 -1.1104 9.53189 16.7135 18.1129
603 1 -1.1104 9.45588 16.6634 15.2757
669 2 2.2208 8.23591 -4.20637 24.9857
555 1 -1.1104 6.64765 13.888 21.0214
414 1 -1.1104 1.02679 2.79222 20.7396
642 2 2.2208 -0.174705 -1.55207 25.062
633 1 -1.1104 12.1869 19.6121 23.6044
643 2 2.2208 -0.165268 1.19148 22.2119
424 1 -1.1104 1.13525 -0.145162 20.7855
412 1 -1.1104 1.28062 -2.80851 20.7465
438 1 -1.1104 3.95694 0.0628474 20.8428
431 1 -1.1104 4.04802 -2.86534 20.9083
433 1 -1.1104 3.88525 2.81308 20.8096
609 2 2.2208 5.38211 1.29491 22.2378
610 1 -1.1104 1.32905 -2.92374 23.6045
611 1 -1.1104 1.21864 2.61963 23.6959
614 1 -1.1104 1.27598 -2.90642 26.3104
615 1 -1.1104 1.25527 2.6529 26.5251
618 1 -1.1104 1.19746 -0.225127 23.6223
620 2 2.2208 5.36729 -1.55028 25.0677
621 2 2.2208 5.36652 4.07961 25.0536
622 1 -1.1104 1.10547 -0.0590906 26.4975
624 1 -1.1104 4.00739 -2.95235 23.6662
625 1 -1.1104 3.88475 2.69295 23.7012
626 2 2.2208 2.51114 1.32159 25.0675
627 1 -1.1104 4.08246 -2.9773 26.5304
628 1 -1.1104 3.92429 2.66683 26.3951
629 2 2.2208 2.66712 -1.43061 22.2824
630 2 2.2208 2.42264 4.24234 22.2663
631 1 -1.1104 4.06516 -0.162471 23.5573
632 1 -1.1104 4.01237 -0.159086 26.4364
644 2 2.2208 -0.147648 4.12538 25.1419
597 1 -1.1104 9.44669 13.944 20.7426
623 1 -1.1104 6.78373 -0.143953 26.5543
617 1 -1.1104 6.70508 2.7593 26.4077
426 1 -1.1104 6.79538 -0.0221734 20.7883
455 1 -1.1104 12.2158 2.69327 20.7502
465 1 -1.1104 9.70204 -2.9281 20.834
453 1 -1.1104 12.5017 -2.85376 20.6298
472 1 -1.1104 9.58383 -0.0920447 20.8967
416 1 -1.1104 6.84715 -2.81769 20.8101
418 1 -1.1104 6.67288 2.63534 20.9046
460 1 -1.1104 12.3422 -0.00860015 20.799
467 1 -1.1104 9.45425 2.77268 20.8674
619 1 -1.1104 6.84387 -0.0858092 23.6208
613 1 -1.1104 6.64086 2.77875 23.6679
616 1 -1.1104 6.91108 -2.83783 26.4724
612 1 -1.1104 6.90405 -2.89698 23.5333
645 2 2.2208 10.999 1.37084 22.2783
646 1 -1.1104 12.4753 -2.79676 23.515
647 1 -1.1104 12.3719 2.88281 23.5656
648 1 -1.1104 12.4881 -2.87137 26.3124
649 1 -1.1104 12.2575 2.82199 26.3433
650 1 -1.1104 12.4254 -0.00531673 23.5258
651 2 2.2208 11.0514 -1.41745 25.0393
652 2 2.2208 10.8929 4.22658 25.0684
653 1 -1.1104 12.3761 -0.070538 26.467
654 1 -1.1104 9.65177 -2.70382 23.6404
655 1 -1.1104 9.56899 2.85211 23.6954
656 2 2.2208 8.27038 1.36459 25.1187
657 1 -1.1104 9.63357 -2.93485 26.4653
658 1 -1.1104 9.54279 2.84864 26.5208
659 2 2.2208 8.22916 -1.45043 22.2608
660 2 2.2208 8.15393 4.15565 22.2508
661 1 -1.1104 9.62132 0.115301 23.6279
662 1 -1.1104 9.76187 -0.0409834 26.4061
360 2 2.2208 5.3055 9.7322 13.7288
702 2 2.2208 -0.196325 9.59239 25.0123
507 1 -1.1104 4.28037 8.38159 20.8594
496 1 -1.1104 1.11981 5.73581 20.9184
512 1 -1.1104 3.86935 5.52371 20.9627
444 2 2.2208 -0.322922 6.93096 22.2788
498 1 -1.1104 0.97457 11.1422 20.8309
514 1 -1.1104 3.93083 11.1495 20.7635
487 1 -1.1104 1.27187 8.41139 20.7413
674 2 2.2208 5.41389 6.82437 22.2835
675 2 2.2208 5.28623 12.4968 22.2115
676 1 -1.1104 1.18901 8.24773 23.5031
678 1 -1.1104 1.19379 8.2184 26.2322
680 1 -1.1104 1.07691 5.37101 23.651
681 1 -1.1104 1.22584 11.055 23.6796
684 2 2.2208 5.38089 9.73203 25.0632
685 1 -1.1104 1.2688 5.39572 26.3697
686 1 -1.1104 1.12872 11.0796 26.3577
689 1 -1.1104 3.84657 8.39311 23.6368
690 2 2.2208 2.62846 6.76696 24.971
691 2 2.2208 2.47709 12.4497 25.052
692 1 -1.1104 4.04021 8.36855 26.4233
693 2 2.2208 2.74678 9.67423 22.2238
694 1 -1.1104 3.92711 5.46543 23.5982
695 1 -1.1104 4.03609 11.1342 23.6439
696 1 -1.1104 3.97154 5.57404 26.503
697 1 -1.1104 3.96035 11.022 26.4316
703 2 2.2208 -0.377233 12.4848 22.2816
539 1 -1.1104 9.6244 5.4855 20.8786
489 1 -1.1104 6.93067 8.24178 21.0378
500 1 -1.1104 6.79544 5.3707 21.0509
522 1 -1.1104 12.3708 8.28687 20.841
502 1 -1.1104 6.79245 11.1342 20.781
677 1 -1.1104 6.7005 8.27631 23.8018
679 1 -1.1104 6.79314 8.39123 26.481
683 1 -1.1104 6.81202 11.2593 23.681
688 1 -1.1104 6.9686 11.1678 26.4888
541 1 -1.1104 9.5831 10.9713 20.5967
529 1 -1.1104 12.2499 11.1868 20.8859
687 1 -1.1104 6.80495 5.51256 26.5788
682 1 -1.1104 6.6374 5.63842 23.7717
705 1 -1.1104 9.63652 11.1551 26.2249
706 1 -1.1104 9.55803 5.69026 26.4706
707 1 -1.1104 9.58997 11.1804 23.5896
708 1 -1.1104 9.40402 5.63668 23.619
709 2 2.2208 8.19369 9.54695 22.2739
710 1 -1.1104 9.61954 8.44364 26.6144
711 2 2.2208 8.10126 12.5021 25.0061
712 2 2.2208 8.24792 6.99706 25.1639
713 2 2.2208 10.9729 6.86601 22.1737
714 2 2.2208 10.959 12.4493 22.1231
715 1 -1.1104 12.3341 8.23479 23.7189
716 1 -1.1104 12.3952 8.3933 26.5103
717 1 -1.1104 12.1019 5.50262 23.7274
718 1 -1.1104 12.4421 10.8114 23.4628
719 2 2.2208 11.0687 9.82036 25.0464
720 1 -1.1104 12.3076 5.55111 26.4461
721 1 -1.1104 12.4624 11.1826 26.3971
722 1 -1.1104 9.58505 8.47559 23.6663
563 1 -1.1104 1.13474 16.7139 20.7229
553 1 -1.1104 1.18366 19.5075 20.8655
572 1 -1.1104 3.93415 19.6279 20.8107
723 2 2.2208 -0.2897 18.0915 22.152
577 1 -1.1104 3.92522 16.7191 20.8072
551 1 -1.1104 1.04838 13.8256 20.7597
570 1 -1.1104 3.83049 13.9113 20.7708
748 1 -1.1104 1.00994 16.7049 23.6073
746 1 -1.1104 3.9995 13.9722 26.5699
745 1 -1.1104 3.82675 16.7416 26.4039
744 2 2.2208 2.55731 18.116 25.0273
750 2 2.2208 2.5728 20.9928 22.1377
749 1 -1.1104 3.9019 16.6277 23.5785
727 2 2.2208 2.53351 15.1872 22.2493
729 1 -1.1104 4.03734 19.4427 23.5105
731 1 -1.1104 3.87654 13.8354 23.6038
733 1 -1.1104 1.11245 19.6194 26.4547
734 1 -1.1104 1.1085 16.7563 26.4466
735 1 -1.1104 1.17741 13.9016 26.4479
737 2 2.2208 5.37741 20.9492 24.9509
738 2 2.2208 5.23391 15.3626 25.0927
740 1 -1.1104 1.05177 19.6591 23.5962
741 1 -1.1104 1.08123 13.8084 23.7208
742 2 2.2208 5.3489 18.1945 22.126
743 1 -1.1104 3.81843 19.4206 26.3915
725 2 2.2208 -0.344182 15.3705 25.0522
724 2 2.2208 -0.326538 20.898 25.0658
557 1 -1.1104 6.59918 19.6898 20.7908
730 1 -1.1104 6.82358 13.9279 26.4494
665 1 -1.1104 9.3823 19.3906 23.6996
636 1 -1.1104 12.2868 16.8231 23.6713
585 1 -1.1104 12.249 14.0058 20.8498
638 2 2.2208 10.9283 15.204 24.8948
634 1 -1.1104 12.2901 13.9173 26.4114
641 2 2.2208 10.7918 20.8624 24.9485
673 1 -1.1104 9.57228 14.0462 26.4044
699 2 2.2208 8.05913 15.289 22.2292
664 1 -1.1104 9.48207 13.8766 23.5307
607 2 2.2208 10.8278 18.0718 22.2634
587 1 -1.1104 12.3564 19.5703 20.7845
599 1 -1.1104 9.35081 19.5356 20.9841
592 1 -1.1104 12.21 16.7071 20.7147
604 1 -1.1104 9.43039 16.7707 20.8692
565 1 -1.1104 6.66275 16.697 20.8113
747 1 -1.1104 6.63745 16.852 23.6313
698 1 -1.1104 9.47703 19.5073 26.3903
700 2 2.2208 8.08066 21.0019 22.2243
663 1 -1.1104 12.3092 16.6848 26.5263
667 2 2.2208 8.15411 18.1247 25.014
635 1 -1.1104 12.2658 19.6663 26.4315
704 1 -1.1104 9.56631 16.8448 26.419
670 1 -1.1104 6.73679 19.5876 26.3898
732 1 -1.1104 6.61607 16.6008 26.4643
736 1 -1.1104 6.78457 19.6541 23.7645
739 1 -1.1104 6.69488 14.0635 23.6979
608 1 -1.1104 12.233 13.8168 23.5835
474 2 2.2208 11.0352 -4.33913 16.4697
640 2 2.2208 2.68892 -4.42524 25.0656
373 2 2.2208 10.9133 15.3323 13.8477
386 2 2.2208 -0.256459 1.44102 27.8599
376 2 2.2208 8.14556 18.0648 13.8453
368 2 2.2208 2.56508 18.0385 13.7581
401 2 2.2208 -0.274616 18.24 27.8291
751 2 2.2208 5.28946 23.7712 5.25888
752 2 2.2208 5.44847 29.321 5.34394
753 1 -1.1104 1.33856 25.138 0.935241
754 1 -1.1104 1.1566 25.1598 3.8989
755 1 -1.1104 1.15963 22.2573 1.09355
756 1 -1.1104 1.22025 27.8737 1.24182
757 2 2.2208 5.36065 26.5078 2.46178
758 1 -1.1104 0.965906 22.4086 3.98822
759 1 -1.1104 1.28434 27.9847 4.0333
760 1 -1.1104 4.02645 25.2129 1.124
761 2 2.2208 2.6049 23.7086 2.4854
762 2 2.2208 2.65608 29.3278 2.56016
763 1 -1.1104 4.00633 25.0544 3.76522
764 2 2.2208 2.65288 26.445 5.41804
765 1 -1.1104 3.95022 22.3794 1.10745
766 1 -1.1104 3.95579 27.9153 1.023
767 1 -1.1104 3.87393 22.2368 3.98603
768 1 -1.1104 4.12815 27.9788 3.94379
770 2 2.2208 -0.265159 23.7248 5.42923
869 2 2.2208 -0.118377 43.2629 2.47962
769 2 2.2208 -0.23031 29.2886 5.33436
1073 2 2.2208 -0.129533 23.725 10.9366
1117 2 2.2208 -0.11121 29.3516 -0.26131
1120 2 2.2208 8.24634 26.4342 -0.378332
898 1 -1.1104 4.02429 25.0992 6.73834
771 2 2.2208 -0.08607 26.4972 2.57975
1701 1 -1.1104 9.35674 47.367 6.90762
1689 1 -1.1104 4.06531 47.3913 9.4874
777 1 -1.1104 6.75318 27.9211 3.93368
774 1 -1.1104 6.70898 22.1446 1.15425
772 1 -1.1104 6.70451 24.9877 1.14821
776 1 -1.1104 6.68471 22.3986 4.00876
775 1 -1.1104 6.65865 27.9249 1.19783
773 1 -1.1104 6.83171 25.1916 3.79882
778 2 2.2208 10.9702 23.8077 5.26295
779 2 2.2208 10.9316 29.2535 5.33479
780 1 -1.1104 12.4384 25.0648 1.11299
781 1 -1.1104 12.2892 25.1859 3.98356
782 1 -1.1104 12.3682 22.2121 1.2083
783 1 -1.1104 12.4825 27.9492 1.0497
784 2 2.2208 10.9581 26.5096 2.47241
785 1 -1.1104 12.2779 22.3666 3.95763
786 1 -1.1104 12.3259 27.8258 3.82107
787 1 -1.1104 9.65893 25.1337 1.17053
788 2 2.2208 8.25129 23.7458 2.5039
789 2 2.2208 8.14297 29.2406 2.52565
790 1 -1.1104 9.53423 25.0827 3.88169
791 2 2.2208 8.27063 26.4826 5.38048
792 1 -1.1104 9.54808 22.3239 1.13185
793 1 -1.1104 9.4855 27.8588 1.03891
794 1 -1.1104 9.4733 22.2705 3.8327
795 1 -1.1104 9.67848 27.896 4.00349
1119 2 2.2208 10.9673 23.6725 -0.281497
925 1 -1.1104 12.542 25.0913 6.72459
897 1 -1.1104 6.75871 28.0017 6.69115
821 2 2.2208 -0.308415 37.7801 2.52785
799 2 2.2208 5.43318 34.9002 5.30397
800 1 -1.1104 1.06002 30.6798 1.25801
801 1 -1.1104 1.18171 36.2972 1.09834
803 1 -1.1104 1.10815 30.7885 3.99708
804 1 -1.1104 1.10983 36.3801 3.82814
806 1 -1.1104 1.26052 33.4673 1.1492
807 2 2.2208 5.37151 32.0423 2.56994
808 2 2.2208 5.36227 37.7236 2.53706
809 1 -1.1104 1.11753 33.4661 3.91517
811 1 -1.1104 3.99348 30.7343 1.18181
812 1 -1.1104 3.96014 36.4692 1.0165
813 2 2.2208 2.60833 35.0162 2.48051
814 1 -1.1104 4.11708 30.7198 3.91733
815 1 -1.1104 3.86501 36.2057 4.02937
816 2 2.2208 2.5626 32.0885 5.30745
817 2 2.2208 2.54117 37.6817 5.36312
818 1 -1.1104 4.0224 33.5544 1.09207
819 1 -1.1104 4.01307 33.5101 3.97337
810 1 -1.1104 6.73279 33.4609 3.99552
820 2 2.2208 -0.350711 34.9506 5.30961
1124 2 2.2208 2.3894 32.082 -0.25974
1125 2 2.2208 5.39218 35.023 -0.340562
1668 1 -1.1104 1.22941 47.5265 6.6887
956 1 -1.1104 4.00689 36.4172 6.68891
955 1 -1.1104 3.97806 30.6938 6.64817
822 2 2.2208 -0.349882 32.1336 2.56344
1130 2 2.2208 11.0534 34.9306 -0.316802
823 1 -1.1104 6.74877 30.6683 1.15385
802 1 -1.1104 6.75624 36.3856 1.08389
805 1 -1.1104 6.60369 36.1923 3.79385
824 1 -1.1104 6.97908 30.685 3.94105
825 1 -1.1104 6.86775 33.4697 1.10714
826 2 2.2208 11.037 34.8898 5.31884
827 1 -1.1104 12.4645 30.7218 0.938009
828 1 -1.1104 12.3133 36.2712 1.13931
829 1 -1.1104 12.5232 30.6704 3.70437
830 1 -1.1104 12.3479 36.3568 3.95334
831 1 -1.1104 12.3847 33.4748 1.14251
832 2 2.2208 11.0455 32.0204 2.44182
833 2 2.2208 10.8934 37.6859 2.40078
834 1 -1.1104 12.2998 33.4685 3.83128
835 1 -1.1104 9.49843 30.5827 1.20265
836 1 -1.1104 9.51249 36.3042 1.08535
837 2 2.2208 8.19009 34.994 2.45864
838 1 -1.1104 9.7731 30.5925 3.94499
839 1 -1.1104 9.4795 36.3576 3.83087
840 2 2.2208 8.19878 32.1811 5.26321
841 2 2.2208 8.10314 37.6546 5.36817