LAMMPS (29 Oct 2020)
OMP_NUM_THREADS environment is not set. Defaulting to 1 thread. (../comm.cpp:94)
  using 1 OpenMP thread(s) per MPI task
OMP_NUM_THREADS environment is not set. Defaulting to 1 thread. (../comm.cpp:94)
  using 1 OpenMP thread(s) per MPI task
Reading data file ...
  orthogonal box = (-0.27717828 -3.4472206 -0.27717828) to (27.617178 331.52722 27.617178)
  2 by 13 by 2 MPI processor grid
  reading atoms ...
  18000 atoms
  reading velocities ...
  18000 velocities
Finding 1-2 1-3 1-4 neighbors ...
  special bond factors lj:    0.0      0.0      0.0     
  special bond factors coul:  0.0      0.0      0.0     
     0 = max # of 1-2 neighbors
     0 = max # of 1-3 neighbors
     0 = max # of 1-4 neighbors
     1 = max # of special neighbors
  special bonds CPU = 0.004 seconds
  read_data CPU = 0.072 seconds
60 atoms in group Th_delete
120 atoms in group O_delete
180 atoms in group delete
WARNING: Ignoring 'compress yes' for molecular system (../delete_atoms.cpp:125)
Deleted 180 atoms, new total = 17820
Setting atom values ...
  11880 settings made for charge
Setting atom values ...
  5940 settings made for charge
PPPM initialization ...
  using 12-bit tables for long-range coulomb (../kspace.cpp:328)
  G vector (1/distance) = 0.29913531
  grid = 40 240 40
  stencil order = 5
  estimated absolute RMS force accuracy = 0.00015449248
  estimated relative force accuracy = 1.0728909e-05
  using single precision MKL FFT
  3d grid and FFT values/proc = 18225 7600
Neighbor list info ...
  update every 1 steps, delay 0 steps, check yes
  max neighbors/atom: 2000, page size: 100000
  master list distance cutoff = 13
  ghost atom cutoff = 13
  binsize = 6.5, bins = 5 52 5
  2 neighbor lists, perpetual/occasional/extra = 2 0 0
  (1) pair coul/long, perpetual
      attributes: half, newton on
      pair build: half/bin/newton
      stencil: half/bin/3d/newton
      bin: standard
  (2) pair eam/alloy, perpetual, copy from (1)
      attributes: half, newton on
      pair build: copy
      stencil: none
      bin: none
Setting up cg style minimization ...
  Unit style    : metal
  Current step  : 0
WARNING: Energy due to 3 extra global DOFs will be included in minimizer energies
Per MPI rank memory allocation (min/avg/max) = 9.477 | 10.13 | 10.28 Mbytes
Step Temp E_pair E_mol TotEng Press Volume 
       0            0   -233728.92            0   -233728.92   -2655.5677    260641.98 
     179            0   -234125.38            0   -234125.38    39.786348    261120.13 
Loop time of 3.24768 on 52 procs for 179 steps with 17820 atoms

99.4% CPU use with 52 MPI tasks x 1 OpenMP threads

Minimization stats:
  Stopping criterion = linesearch alpha is zero
  Energy initial, next-to-last, final = 
     -233728.920643392  -234125.377774827  -234125.377774827
  Force two-norm initial, final = 811.96740 14.904826
  Force max component initial, final = 635.89181 13.228187
  Final line search alpha, max atom move = 3.2169711e-11 4.2554697e-10
  Iterations, force evaluations = 179 296

MPI task timing breakdown:
Section |  min time  |  avg time  |  max time  |%varavg| %total
---------------------------------------------------------------
Pair    | 1.8638     | 1.979      | 2.1238     |   4.0 | 60.94
Bond    | 2.3303e-05 | 3.7158e-05 | 6.2072e-05 |   0.0 |  0.00
Kspace  | 0.46294    | 0.60787    | 0.72308    |   7.3 | 18.72
Neigh   | 0          | 0          | 0          |   0.0 |  0.00
Comm    | 0.047371   | 0.049804   | 0.051967   |   0.5 |  1.53
Output  | 0          | 0          | 0          |   0.0 |  0.00
Modify  | 0          | 0          | 0          |   0.0 |  0.00
Other   |            | 0.611      |            |       | 18.81

Nlocal:        342.692 ave         402 max         297 min
Histogram: 7 5 6 7 6 6 5 6 1 3
Nghost:        5603.00 ave        5769 max        5456 min
Histogram: 4 10 4 2 5 7 8 5 3 4
Neighs:       109469.0 ave      127871 max       95656 min
Histogram: 9 3 7 5 6 9 3 5 2 3

Total # of neighbors = 5692412
Ave neighs/atom = 319.43951
Ave special neighs/atom = 0.0000000
Neighbor list builds = 0
Dangerous builds = 0
Resetting atom IDs ...
PPPM initialization ...
  using 12-bit tables for long-range coulomb (../kspace.cpp:328)
  G vector (1/distance) = 0.29910833
  grid = 40 240 40
  stencil order = 5
  estimated absolute RMS force accuracy = 0.00015467635
  estimated relative force accuracy = 1.0741678e-05
  using single precision MKL FFT
  3d grid and FFT values/proc = 18225 7600
Finding 1-2 1-3 1-4 neighbors ...
  special bond factors lj:    0.0      0.0      0.0     
  special bond factors coul:  0.0      0.0      0.0     
     0 = max # of 1-2 neighbors
     0 = max # of 1-3 neighbors
     0 = max # of 1-4 neighbors
     1 = max # of special neighbors
  special bonds CPU = 0.001 seconds
PPPM initialization ...
  using 12-bit tables for long-range coulomb (../kspace.cpp:328)
  G vector (1/distance) = 0.29910833
  grid = 40 240 40
  stencil order = 5
  estimated absolute RMS force accuracy = 0.00015467635
  estimated relative force accuracy = 1.0741678e-05
  using single precision MKL FFT
  3d grid and FFT values/proc = 18225 7600
Setting up Verlet run ...
  Unit style    : metal
  Current step  : 179
  Time step     : 0.001
Per MPI rank memory allocation (min/avg/max) = 9.114 | 9.139 | 9.154 Mbytes
Step Dt Time Atoms Temp PotEng KinEng Press Volume 
     179        0.001            0    17820          600   -234125.38    1381.9719    5692.7108    261120.13 
   10000        0.001        9.821    17820    595.27563   -232696.86    1371.0903   -915.71461    265589.08 
   20000        0.001       19.821    17820    604.13765   -232714.14    1391.5021    351.50892    265398.82 
   30000        0.001       29.821    17820    598.46966   -232705.88    1378.4471   -966.64694    265600.75 
   40000        0.001       39.821    17820    596.96269   -232706.02    1374.9761   -494.91361    265498.93 
   50000        0.001       49.821    17820    599.67076   -232708.99    1381.2136   -1140.9984    265554.58 
   60000        0.001       59.821    17820      597.398    -232704.9    1375.9788   -306.79319    265477.81 
   70000        0.001       69.821    17820    598.12507   -232703.37    1377.6534    359.38587     265454.7 
   80000        0.001       79.821    17820    600.71302   -232706.13    1383.6142   -807.22421    265515.74 
   90000        0.001       89.821    17820    596.74985   -232704.28    1374.4859    1690.1354    265236.94 
  100000        0.001       99.821    17820    599.79868   -232705.98    1381.5082     1840.673    265168.67 
  100179        0.001          100    17820    600.49019   -232723.01     1383.101    1417.6212    265228.03 
Loop time of 819.411 on 52 procs for 100000 steps with 17820 atoms

Performance: 10.544 ns/day, 2.276 hours/ns, 122.039 timesteps/s
99.8% CPU use with 52 MPI tasks x 1 OpenMP threads

MPI task timing breakdown:
Section |  min time  |  avg time  |  max time  |%varavg| %total
---------------------------------------------------------------
Pair    | 526.9      | 537.13     | 549.99     |  26.7 | 65.55
Bond    | 0.0093185  | 0.014143   | 0.018728   |   2.0 |  0.00
Kspace  | 148.52     | 161.35     | 171.77     |  48.8 | 19.69
Neigh   | 0.96043    | 1.0101     | 1.0685     |   2.6 |  0.12
Comm    | 16.003     | 16.496     | 16.956     |   5.7 |  2.01
Output  | 0.051555   | 0.051597   | 0.053416   |   0.1 |  0.01
Modify  | 91.918     | 95.925     | 99.279     |  19.7 | 11.71
Other   |            | 7.433      |            |       |  0.91

Nlocal:        342.692 ave         369 max         323 min
Histogram: 2 8 9 7 6 7 2 6 4 1
Nghost:        5577.65 ave        5670 max        5456 min
Histogram: 3 7 9 1 1 5 1 5 16 4
Neighs:       108589.0 ave      116090 max      101041 min
Histogram: 1 2 13 4 9 6 4 4 6 3

Total # of neighbors = 5646646
Ave neighs/atom = 316.87127
Ave special neighs/atom = 0.0000000
Neighbor list builds = 346
Dangerous builds = 0
System init for write_data ...
PPPM initialization ...
  using 12-bit tables for long-range coulomb (../kspace.cpp:328)
  G vector (1/distance) = 0.29883086
  grid = 40 240 40
  stencil order = 5
  estimated absolute RMS force accuracy = 0.00015686165
  estimated relative force accuracy = 1.0893439e-05
  using single precision MKL FFT
  3d grid and FFT values/proc = 18225 7600
Total wall time: 0:13:43
