LAMMPS (29 Oct 2020)
OMP_NUM_THREADS environment is not set. Defaulting to 1 thread. (../comm.cpp:94)
  using 1 OpenMP thread(s) per MPI task
OMP_NUM_THREADS environment is not set. Defaulting to 1 thread. (../comm.cpp:94)
  using 1 OpenMP thread(s) per MPI task
Reading data file ...
  orthogonal box = (-0.35844402 -4.3709917 -0.36074079) to (27.698444 332.45099 27.700741)
  2 by 13 by 2 MPI processor grid
  reading atoms ...
  17910 atoms
  reading velocities ...
  17910 velocities
Finding 1-2 1-3 1-4 neighbors ...
  special bond factors lj:    0.0      0.0      0.0     
  special bond factors coul:  0.0      0.0      0.0     
     0 = max # of 1-2 neighbors
     0 = max # of 1-3 neighbors
     0 = max # of 1-4 neighbors
     1 = max # of special neighbors
  special bonds CPU = 0.004 seconds
  read_data CPU = 0.061 seconds
Setting atom values ...
  11940 settings made for charge
Setting atom values ...
  5970 settings made for charge
PPPM initialization ...
  using 12-bit tables for long-range coulomb (../kspace.cpp:328)
  G vector (1/distance) = 0.29882661
  grid = 40 240 40
  stencil order = 5
  estimated absolute RMS force accuracy = 0.00015738188
  estimated relative force accuracy = 1.0929566e-05
  using single precision MKL FFT
  3d grid and FFT values/proc = 15000 7600
Neighbor list info ...
  update every 1 steps, delay 0 steps, check yes
  max neighbors/atom: 2000, page size: 100000
  master list distance cutoff = 11.3
  ghost atom cutoff = 11.3
  binsize = 5.65, bins = 5 60 5
  2 neighbor lists, perpetual/occasional/extra = 2 0 0
  (1) pair coul/long, perpetual
      attributes: half, newton on
      pair build: half/bin/newton
      stencil: half/bin/3d/newton
      bin: standard
  (2) pair eam/alloy, perpetual, copy from (1)
      attributes: half, newton on
      pair build: copy
      stencil: none
      bin: none
Setting up Verlet run ...
  Unit style    : metal
  Current step  : 0
  Time step     : 0.001
Per MPI rank memory allocation (min/avg/max) = 8.160 | 8.183 | 8.196 Mbytes
Step Temp E_pair E_mol TotEng Press 
       0          600   -234117.85            0    -232728.9   -339.59992 
  100000    600.02459    -234110.1            0   -232721.09   -229.81512 
Loop time of 643.966 on 52 procs for 100000 steps with 17910 atoms

Performance: 13.417 ns/day, 1.789 hours/ns, 155.288 timesteps/s
99.8% CPU use with 52 MPI tasks x 1 OpenMP threads

MPI task timing breakdown:
Section |  min time  |  avg time  |  max time  |%varavg| %total
---------------------------------------------------------------
Pair    | 443.21     | 450.83     | 460.43     |  21.8 | 70.01
Bond    | 0.0071442  | 0.010086   | 0.013196   |   1.6 |  0.00
Kspace  | 126.68     | 138.8      | 147.45     |  49.8 | 21.55
Neigh   | 33.009     | 35.173     | 37.394     |  18.5 |  5.46
Comm    | 13.868     | 14.86      | 17.055     |  19.0 |  2.31
Output  | 5.8406e-05 | 6.407e-05  | 0.00027156 |   0.0 |  0.00
Modify  | 1.6513     | 3.0098     | 4.9851     |  59.3 |  0.47
Other   |            | 1.286      |            |       |  0.20

Nlocal:        344.423 ave         370 max         326 min
Histogram: 4 6 10 8 5 4 5 7 2 1
Nghost:        4153.42 ave        4253 max        4072 min
Histogram: 9 7 8 1 5 2 6 3 5 6
Neighs:        69265.6 ave       74395 max       64325 min
Histogram: 1 4 8 8 9 6 5 5 4 2

Total # of neighbors = 3601813
Ave neighs/atom = 201.10625
Ave special neighs/atom = 0.0000000
Neighbor list builds = 16243
Dangerous builds = 0
11940 atoms in group oxygen
PPPM initialization ...
  using 12-bit tables for long-range coulomb (../kspace.cpp:328)
  G vector (1/distance) = 0.29882661
  grid = 40 240 40
  stencil order = 5
  estimated absolute RMS force accuracy = 0.00015738188
  estimated relative force accuracy = 1.0929566e-05
  using single precision MKL FFT
  3d grid and FFT values/proc = 15000 7600
Setting up Verlet run ...
  Unit style    : metal
  Current step  : 0
  Time step     : 0.001
Per MPI rank memory allocation (min/avg/max) = 8.411 | 8.434 | 8.447 Mbytes
Step f_2 Temp v_Tdiff v_deltaT 
       0            0    600.02459            0            0 
  100000    691.70136    600.92008  0.018194327    211.23445 
  200000    1374.1155    599.96844  0.019985172    232.02599 
  300000    2053.2813    601.97487  0.020185282    234.34925 
  400000    2734.4174    608.82487  0.019565155    227.14964 
  500000    3418.0574    598.02049  0.019151611    222.34843 
  600000     4099.603    602.31837  0.019363063    224.80337 
  700000     4778.254    599.06587  0.020260138    235.21832 
  800000    5461.6402    604.05947  0.019995734    232.14862 
  900000    6141.2461    604.70648  0.020630025    239.51267 
 1000000    6823.5386    603.05124  0.019694859    228.65549 
 1100000     7507.893    601.83703  0.020242782    235.01682 
 1200000    8188.7804    604.49953  0.019756615    229.37247 
 1300000    8871.0325    600.66504  0.019911381    231.16929 
 1400000    9550.8156    605.32569  0.020514756    238.17441 
 1500000     10231.72    599.62442   0.02012174    233.61153 
Loop time of 9518.68 on 52 procs for 1500000 steps with 17910 atoms

Performance: 13.615 ns/day, 1.763 hours/ns, 157.585 timesteps/s
99.9% CPU use with 52 MPI tasks x 1 OpenMP threads

MPI task timing breakdown:
Section |  min time  |  avg time  |  max time  |%varavg| %total
---------------------------------------------------------------
Pair    | 6499.9     | 6629.4     | 6788.5     |  86.7 | 69.65
Bond    | 0.1212     | 0.15489    | 0.20932    |   4.9 |  0.00
Kspace  | 1903.8     | 2079.1     | 2222.8     | 186.0 | 21.84
Neigh   | 506.07     | 536.41     | 570.36     |  68.0 |  5.64
Comm    | 206.9      | 222.54     | 258.78     |  77.3 |  2.34
Output  | 0.0015902  | 0.0016863  | 0.0033733  |   0.6 |  0.00
Modify  | 8.0296     | 8.6088     | 9.3177     |  12.0 |  0.09
Other   |            | 42.45      |            |       |  0.45

Nlocal:        344.423 ave         371 max         329 min
Histogram: 5 8 4 15 6 6 6 1 0 1
Nghost:        4160.65 ave        4264 max        4066 min
Histogram: 7 4 3 9 7 5 3 4 4 6
Neighs:        69272.3 ave       74463 max       65092 min
Histogram: 2 4 5 13 9 6 8 2 2 1

Total # of neighbors = 3602159
Ave neighs/atom = 201.12557
Ave special neighs/atom = 0.0000000
Neighbor list builds = 248871
Dangerous builds = 0
Total wall time: 2:49:23
