ITEM: TIMESTEP
100000
ITEM: NUMBER OF ATOMS
18000
ITEM: BOX BOUNDS xy xz yz pp pp pp
-2.2816532356213814e-01 2.8122165323561987e+01 0.0000000000000000e+00
-2.7351681713115519e+00 3.3746316817130139e+02 0.0000000000000000e+00
-2.4187318188265308e-01 2.8135873181882104e+01 0.0000000000000000e+00
ITEM: ATOMS id type x y z
1 1 0.998703 -1.46588 0.881821
2 1 3.68234 -1.44873 1.12087
3 1 3.93069 -1.31699 3.9675
4 1 1.14133 -1.57662 3.71846
5 1 1.07266 1.48422 1.26456
6 1 4.22559 1.50987 0.934005
7 1 4.03266 1.33042 3.70726
8 1 1.10886 1.48367 3.92121
9 1 6.58914 -1.63842 0.973855
10 1 9.42245 -1.32991 1.21353
11 1 9.53006 -1.49219 3.86504
12 1 7.06821 1.17237 6.79547
13 1 6.80354 1.28461 1.08232
14 1 9.61039 1.58234 1.05326
15 1 9.72701 1.14929 3.83514
16 1 6.93189 1.48408 4.08996
17 1 12.2894 -1.50784 0.818631
18 1 12.3353 -1.48744 3.75855
19 1 12.3586 1.08116 0.880427
20 1 12.456 1.4543 3.78764
21 1 0.853312 4.30122 1.31922
22 1 3.78125 4.06155 1.08423
23 1 6.928 4.02333 1.15656
24 1 1.22011 4.39978 3.92277
25 1 1.07719 7.18187 1.25804
26 1 3.75799 7.20555 1.16095
27 1 7.168 5.15187 3.86706
28 1 0.475332 7.06082 4.3279
29 1 6.66052 6.83015 0.977707
30 1 9.66982 4.12928 1.1148
31 1 9.79079 4.15985 4.09985
32 1 6.93438 9.93306 3.81957
33 1 6.96889 9.6487 1.28063
34 1 9.54674 6.91428 1.20547
35 1 6.59565 3.96991 6.34592
36 1 6.69965 10.2047 6.81195
37 1 12.4042 4.08075 1.22917
38 1 12.6821 4.14367 4.07496
39 1 12.4559 7.00411 1.42973
40 1 12.2607 6.62924 4.24374
41 1 0.810116 10.0825 0.944285
42 1 3.803 9.8479 1.15454
43 1 3.73177 9.98174 4.06567
44 1 1.05828 9.98784 3.7144
45 1 1.00128 12.8366 1.23602
46 1 3.77988 12.8958 1.21341
47 1 3.77066 12.5674 4.33186
48 1 0.843132 12.471 4.15001
49 1 6.76656 12.8701 1.38762
50 1 10.1124 10.0452 0.756518
51 1 9.73766 9.80864 3.8761
52 1 9.7823 12.6836 4.1117
53 1 6.7949 15.7439 1.24122
54 1 9.63448 15.6511 1.16151
55 1 9.56283 12.6827 1.32935
56 1 6.70141 12.7364 4.01388
57 1 12.6049 9.7957 0.969873
58 1 12.5195 9.90983 3.64788
59 1 12.399 12.6632 1.00641
60 1 12.4933 12.5123 3.89778
61 1 1.1804 15.6485 1.20919
62 1 3.79121 15.5318 1.16449
63 1 4.09528 15.4839 4.07171
64 1 1.29531 15.5826 4.03595
65 1 1.01209 18.4585 1.19849
66 1 3.96036 18.6403 1.46769
67 1 3.96764 18.0579 3.99378
68 1 1.11496 18.1523 4.17141
69 1 7.00692 18.4512 1.02752
70 1 12.5767 15.5581 1.28699
71 1 9.72227 15.6087 4.20719
72 1 6.93867 15.3086 4.11805
15101 2 13.7513 -0.12645 10.9793
74 1 9.81851 18.3252 1.24678
75 1 9.44558 18.3648 4.06164
76 1 6.61089 18.3173 3.86419
77 1 12.605 18.5312 1.29662
78 1 12.4834 15.5498 4.04202
79 1 12.2763 21.3893 1.22842
80 1 12.5963 18.3866 3.92728
81 1 1.25612 21.1599 1.19882
82 1 4.0404 21.2998 1.00869
83 1 3.90409 21.1379 4.09915
84 1 1.0584 21.0064 4.00473
85 1 6.63263 21.2471 1.4013
12132 2 -0.350152 5.56154 13.9176
87 1 9.57566 21.3009 4.18651
88 1 6.75889 21.1783 4.13758
12096 2 8.2859 22.7757 5.58686
90 1 12.5591 21.2715 4.07522
91 1 1.1437 1.71389 6.73459
92 1 3.98487 -1.48671 6.57977
93 1 4.05381 1.14786 9.45542
94 1 1.24143 -1.87677 9.69484
12130 2 10.9872 -0.0250576 13.7853
96 1 3.91988 1.3111 6.65747
97 1 3.84934 4.02977 10.0239
98 1 1.17589 1.25762 9.47399
99 1 6.59171 1.49927 9.37104
100 1 9.60171 -1.57555 6.7464
101 1 9.61763 1.61567 9.56515
102 1 5.89538 7.22377 3.41391
103 1 4.1101 4.12247 6.74066
104 1 9.74558 1.21758 6.89064
105 1 12.3429 4.25614 9.84937
106 1 9.33168 4.33029 9.58932
107 1 12.3678 -1.56899 6.67455
108 1 12.6382 -1.43848 9.48788
109 1 12.5482 1.47548 6.57172
110 1 12.4097 1.3926 9.573
111 1 1.00324 4.34198 6.69147
112 1 7.11519 7.42265 5.3582
113 1 2.93746 5.85013 7.99361
114 1 1.03065 4.17043 9.50925
115 1 0.708835 7.33794 7.03973
116 1 4.41131 3.95944 3.92991
117 1 4.15356 6.85341 10.0963
118 1 0.97037 7.15882 9.63045
119 1 9.75537 6.97372 3.69128
120 1 9.55158 4.01608 6.71368
121 1 6.959 6.14795 7.44657
122 1 6.73279 4.08735 9.61122
123 1 3.5614 7.19256 4.55506
124 1 4.49476 7.40675 6.78424
125 1 6.93908 7.2086 9.78481
126 2 5.50604 5.79059 5.52843
127 1 12.4015 4.2684 7.0636
128 1 12.5888 7.13112 9.66847
73 1 9.68898 21.1802 1.61163
130 1 12.3588 6.99214 6.98647
12121 2 -0.239167 19.804 10.9458
132 1 3.82695 9.99077 6.78676
133 1 4.20761 9.57796 9.57319
134 1 1.47137 10.0141 9.43425
135 1 1.19541 12.8296 6.92357
136 1 3.84547 12.9766 6.99549
137 1 3.92558 12.4471 9.68764
138 1 0.998586 12.7999 9.72525
139 1 9.59865 9.7365 6.80061
140 1 9.67912 7.00502 6.6456
141 1 9.56244 9.90295 9.60549
142 1 6.93364 10.0353 9.65557
143 1 6.95882 12.7835 7.03017
144 1 9.73507 12.7502 6.74936
145 1 9.85939 12.8488 9.33744
146 1 6.84414 12.8643 9.69003
147 1 12.3635 9.63822 6.31235
148 1 12.7203 9.85778 9.48227
149 1 12.7939 12.4298 6.62074
150 1 12.3532 12.6509 9.39324
151 1 1.10189 15.5281 6.77076
152 1 3.99398 15.621 6.99328
153 1 3.82422 15.6592 9.79576
154 1 0.85584 15.6003 9.74747
155 1 1.2054 18.1468 6.85519
156 1 4.18812 18.379 6.59427
157 1 4.00315 18.4309 9.66465
158 1 1.29999 18.5567 9.80193
159 1 6.62535 15.6106 6.95661
160 1 9.40378 15.5092 6.948
161 1 9.47024 15.5836 9.81809
162 1 6.6736 15.8874 9.91163
163 1 6.90718 18.2227 6.82621
164 1 9.75262 18.3581 6.99528
165 1 9.77566 18.3257 9.49758
166 1 6.86684 18.5091 9.80916
167 1 12.4474 15.5217 6.80192
168 1 12.5291 15.5931 9.59014
169 1 12.3395 18.3583 6.85571
170 1 12.4707 18.5218 9.75093
171 1 1.25576 20.8339 6.83464
172 1 3.84574 20.9112 7.00696
173 1 4.02806 21.2178 9.85869
174 1 1.11683 21.238 9.72306
175 1 6.87493 21.175 6.97192
176 1 9.92901 21.1903 7.05508
177 1 9.93863 21.2655 9.71707
178 1 7.17701 21.4101 9.52216
179 1 12.7939 21.2053 6.73388
180 1 12.6987 21.0703 9.70186
181 1 1.23294 -1.10646 12.3505
182 1 4.17172 -1.25931 12.3774
183 1 1.12265 1.45802 12.2964
184 1 4.04613 1.56591 12.542
185 1 7.03437 -1.51046 12.3657
186 1 9.58504 -1.38517 12.5857
187 1 6.86376 1.47704 12.3838
188 1 9.70034 1.33322 12.3194
189 1 12.4201 1.4666 12.3862
190 1 12.7717 4.24299 12.6939
191 1 0.776418 4.26984 12.3982
192 1 3.71771 4.31916 12.8152
193 1 1.20232 7.04037 12.4569
194 1 4.07669 7.05555 12.5773
195 1 6.64513 4.47628 12.3625
196 1 9.67909 6.94551 9.80304
197 1 6.99793 7.1854 12.5151
198 1 9.60099 7.1556 12.4745
199 1 12.3759 6.99983 12.7993
200 1 12.4757 9.87759 12.1608
201 1 0.90284 9.80651 12.2641
202 1 4.24069 10.0661 12.6232
203 1 0.858051 12.6741 12.784
204 1 3.61746 12.7891 12.5472
205 1 7.0449 10.0659 12.5531
206 1 9.86608 9.93124 12.4587
207 1 6.44392 12.7734 12.5027
208 1 9.41226 12.7285 12.466
12105 2 11.033 -2.6874 11.1384
210 1 12.3439 12.3221 12.3702
211 1 0.914537 15.4842 12.6377
212 1 3.86395 15.6135 12.6098
213 1 0.940192 18.222 12.4948
214 1 3.88829 18.2398 12.7643
215 1 6.75984 15.5949 12.8394
216 1 9.68477 15.4924 12.6725
217 1 6.74635 18.359 12.7363
218 1 9.6547 18.3561 12.4361
219 1 12.42 15.5302 12.3189
220 1 12.3068 18.3348 12.701
221 1 1.20788 20.8195 12.3883
222 1 4.17401 21.0992 12.6382
223 1 7.01958 21.086 12.5314
224 1 9.48821 21.3304 12.7843
225 1 12.4573 21.2825 12.5815
12125 2 11.1087 19.7366 11.3149
12110 2 10.9971 2.68764 11.105
12100 2 11.1835 22.4598 8.47236
12124 2 8.17903 22.5765 11.2928
5775 1 12.2826 -1.20805 12.3673
12109 2 8.19789 5.70379 10.976
15061 2 13.7034 5.67458 5.52214
12008 2 5.49426 -0.0343458 2.44944
12046 2 8.22815 22.6145 -0.141919
12010 2 10.8904 -0.101519 2.34729
12123 2 5.48086 19.7615 11.1631
12108 2 5.35932 2.84496 11.1339
12013 2 2.57814 2.65078 2.61805
12122 2 2.69575 22.486 11.0896
12107 2 2.62537 5.7766 11.0129
12112 2 2.42841 11.2232 11.1963
12017 2 8.46293 2.80158 2.52687
12018 2 5.18656 5.38365 2.35557
12104 2 8.09282 -0.0773978 11.0372
12020 2 11.1305 5.47291 2.50527
15051 2 13.8487 0.213797 5.1552
12029 2 11.1149 8.25412 -0.0850485
12023 2 2.58728 8.57838 2.61999
12120 2 11.0796 14.1117 11.1473
12102 2 2.50902 0.193581 10.9674
12113 2 5.58462 8.52363 11.2077
12027 2 8.0632 8.15434 2.85227
12028 2 5.42069 11.4283 2.45607
15071 2 13.8601 11.2188 5.17368
12030 2 11.1373 11.3087 2.46702
12099 2 10.8218 19.8239 5.41599
15082 2 13.699 14.0074 7.99877
12033 2 2.46232 14.073 2.63327
5717 1 4.10703 -1.2489 9.59938
12097 2 8.38613 19.7912 8.35523
131 1 0.774754 9.8705 6.5389
12037 2 8.37367 14.1232 2.81122
12038 2 5.37967 16.8092 2.66167
12095 2 5.3672 19.8192 5.43788
12040 2 10.9865 16.9388 2.55703
12098 2 5.52998 22.7108 8.39193
12093 2 2.49744 19.5952 8.04084
12043 2 2.61826 19.9164 2.51678
12088 2 5.37724 17.2205 8.41049
12092 2 2.58842 22.444 5.58503
12087 2 8.17832 14.2206 8.4002
12047 2 8.17831 19.6786 2.6909
11729 1 1.20978 -1.35335 6.62132
12090 2 11.0302 16.9507 8.28104
15106 2 13.8838 5.77217 11.1319
12119 2 8.09447 16.7376 11.3747
12052 2 2.57275 -0.045946 5.22947
12086 2 8.09025 16.7021 5.38098
12118 2 5.32354 14.225 11.4335
12048 2 5.56368 22.6332 2.69184
12056 2 8.31961 -0.0968407 5.25972
15081 2 13.5212 17.0093 5.3137
12058 2 5.55591 -0.265625 8.16963
12085 2 5.16942 14.2415 5.78956
12060 2 10.9689 -0.226642 8.21092
12117 2 2.49721 17.0144 11.2387
12062 2 2.18208 5.91359 5.74065
12063 2 2.7553 2.76573 8.20617
12089 2 11.0396 14.0724 5.46455
12065 2 5.39597 2.30862 5.44495
12066 2 8.49141 5.4552 5.39366
12067 2 8.18387 2.93425 8.30862
12068 2 5.14411 5.67371 8.75485
12069 2 11.1637 2.65509 5.38217
12070 2 10.9727 5.6876 8.21237
12115 2 10.9851 8.30118 10.987
12072 2 2.3978 11.1986 5.44108
12073 2 2.67123 8.37577 8.28444
12114 2 8.29603 11.3 10.9238
12075 2 5.36373 9.09079 5.29762
12076 2 8.3879 11.2107 5.2684
12077 2 7.99946 8.59714 8.26199
12078 2 5.44658 11.1649 8.39348
12079 2 11.0677 8.32375 5.28121
12080 2 11.3124 11.0047 8.14947
15116 2 13.8179 16.9699 11.2376
12082 2 2.55939 16.9106 5.42015
12083 2 2.44049 14.0357 8.44116
12025 2 5.28228 8.4268 -0.105329
240 1 9.74487 4.25556 12.5002
5726 1 6.73876 -1.4721 9.54969
15092 2 13.8617 19.7099 8.45496
5636 1 6.89461 -1.43237 3.96991
12032 2 2.47467 17.0699 -0.143468
12050 2 10.9135 22.8597 2.7098
5723 1 6.8856 -1.63943 6.65051
15042 2 13.7158 20.0856 2.6293
15111 2 13.8774 11.225 11.174
5725 1 9.74432 -1.16925 9.79789
12012 2 2.42752 5.76096 -0.169303
15091 2 13.8737 22.4745 5.44988
15022 2 13.8415 8.29599 2.49139
12002 2 2.59369 -0.0688241 -0.329715
12145 2 10.9058 16.9965 13.9154
12140 2 10.8913 11.2864 13.6732
12045 2 5.40048 19.8236 -0.182383
12139 2 5.32647 11.2366 14.1259
12054 2 -0.260045 -0.171167 8.15951
15032 2 13.8169 14.0623 2.62159
12138 2 8.3511 8.55872 13.9737
12131 2 2.38545 2.66466 13.7442
15041 2 13.8829 22.6114 -0.0594981
12044 2 -0.146942 22.5654 2.51438
12136 2 2.75621 8.64409 13.8887
12061 2 -0.340245 2.80654 5.29311
12035 2 5.35975 14.1936 -0.148423
12064 2 -0.233921 5.69728 8.09463
15062 2 13.7879 2.83586 8.29501
12039 2 10.8854 14.0528 -0.0791374
12026 2 8.26504 11.3277 -0.130217
12129 2 5.37947 0.141668 13.8276
12133 2 8.17184 2.99779 13.719
12049 2 11.1578 19.8002 -0.0988978
226 1 3.77322 -1.59242 15.066
227 1 1.02781 -1.32344 15.1582
228 1 3.57329 1.19684 14.9901
229 1 0.987284 1.48212 15.3413
230 1 9.31999 -1.37331 15.241
231 1 6.32798 -1.50217 15.1702
232 1 9.55594 4.32348 15.1596
233 1 6.66691 1.41307 15.5986
234 1 12.4406 -1.38501 15.1939
235 1 12.8335 1.36862 15.1532
236 1 3.98918 4.60345 15.6325
237 1 1.26777 4.31011 15.1676
238 1 3.91154 7.33328 15.3551
239 1 0.872352 7.05322 15.3871
12141 2 2.3433 14.0289 14.0488
241 1 6.63798 4.22929 15.1953
242 1 9.62152 6.99174 15.4352
243 1 6.7353 7.11251 15.3427
244 1 12.434 4.32128 15.6355
245 1 12.2455 7.11122 15.4694
246 1 4.12754 9.97865 15.5598
247 1 1.28366 9.8961 15.3236
248 1 3.84347 12.4833 15.2709
249 1 0.974717 12.6034 15.3527
250 1 9.55108 9.82893 15.3182
251 1 6.72329 9.92342 15.0916
252 1 9.5747 12.5698 15.2018
253 1 6.9833 12.6941 15.287
254 1 12.5132 9.89544 15.017
12203 2 2.73664 -2.70696 25.2887
256 1 4.10144 15.554 15.4526
257 1 1.25326 15.3099 15.6024
258 1 3.87829 18.4599 15.4127
259 1 0.977406 18.2861 15.2526
260 1 9.78074 15.6359 15.5789
261 1 6.96272 15.5704 15.2466
262 1 9.68598 18.552 15.4089
263 1 7.04915 18.3686 15.4919
264 1 12.6269 15.7643 15.0786
265 1 12.7387 18.4163 15.787
266 1 4.02184 21.2108 15.529
267 1 1.22561 21.3129 15.162
268 1 9.48927 21.3132 15.5077
269 1 6.81574 21.064 15.4666
270 1 12.1968 21.1789 15.4287
271 1 0.972125 -1.59713 18.158
272 1 3.88182 -1.41766 18.2844
273 1 4.04429 -1.30512 21.1335
274 1 1.23809 -1.60382 20.8777
275 1 1.21873 1.20831 18.2908
276 1 3.87053 1.54785 17.8956
277 1 3.96818 1.30895 20.89
278 1 1.12525 1.13122 21.0474
279 1 6.66868 -1.42324 18.2449
280 1 9.45581 1.37612 17.9017
281 1 9.5069 -1.39862 18.0475
282 1 6.92922 -1.53 20.9901
283 1 6.50644 1.64154 18.527
284 1 9.70184 1.5661 15.1576
285 1 9.68031 1.14862 20.8911
286 1 7.01507 1.34992 21.2515
287 1 12.6416 -1.28479 17.9562
288 1 12.6074 -1.38236 20.8371
289 1 12.374 1.38551 17.8423
290 1 12.5045 1.35708 20.9826
291 1 1.0639 4.07615 18.1841
292 1 3.87593 4.38877 18.3624
293 1 3.93827 4.20586 21.0403
294 1 0.889101 3.99336 20.8449
295 1 1.14293 7.16854 18.2726
296 1 4.03578 7.30637 18.3914
297 1 3.94334 7.27372 21.0225
298 1 1.26732 7.16501 21.3053
299 1 6.90949 4.34726 18.1543
300 1 9.47795 4.1377 18.042
301 1 9.57213 3.99755 20.7307
302 1 6.88287 4.30974 21.018
303 1 6.58641 6.81871 18.1354
304 1 9.45121 7.08304 18.1557
305 1 9.50507 6.83402 20.8647
306 1 6.8623 7.37923 21.0857
307 1 12.3709 4.32089 18.2624
308 1 12.3202 3.94872 20.9048
309 1 12.398 7.22794 18.1772
310 1 12.2655 6.78173 21.0689
311 1 0.981234 10.0712 18.267
312 1 3.7868 9.99546 18.1719
313 1 3.9403 10.0641 21.0663
314 1 1.16031 10.0405 21.152
315 1 1.25033 12.7693 18.0757
316 1 4.27444 12.7442 18.2478
317 1 3.46324 12.8814 21.2973
318 1 0.861242 12.7615 21.2695
319 1 6.59253 9.76068 18.3891
320 1 9.36955 9.79885 18.1638
321 1 9.72152 9.99557 21.0993
322 1 6.78707 10.0276 21.1788
323 1 6.87921 12.851 17.9231
324 1 9.72784 12.622 17.9845
325 1 9.18807 12.8299 20.8682
326 1 6.44205 13.0682 20.6295
327 1 12.2386 9.95557 17.9994
328 1 12.5653 9.90747 20.8947
329 1 12.4087 12.9499 18.3142
330 1 12.4871 12.7672 21.1184
331 1 1.22772 15.4769 18.4913
332 1 4.10633 15.5761 18.3474
333 1 4.18066 15.6064 21.0552
334 1 1.25601 15.4938 21.2736
335 1 0.976655 18.1811 17.9509
336 1 3.73605 18.2921 18.0615
337 1 4.07308 18.331 21.0099
338 1 1.17579 18.4823 20.8629
339 1 6.76179 15.6565 18.0722
340 1 9.53267 15.6037 18.2032
341 1 9.72594 15.6754 21.4367
342 1 6.94642 15.7524 21.0715
343 1 6.62578 18.2525 18.1393
344 1 9.40783 18.5418 18.0144
345 1 9.51496 18.2711 21.1296
346 1 6.78552 18.3909 20.9814
347 1 12.4321 15.7959 17.9839
348 1 12.6395 15.6695 20.975
349 1 12.0086 18.552 18.4851
350 1 12.3088 18.3146 21.0208
351 1 0.931479 21.1065 18.1952
352 1 3.81227 20.8703 18.1451
353 1 4.10354 20.9131 20.9222
354 1 1.00313 21.4219 21.2008
355 1 6.58034 21.3003 18.2398
356 1 9.60806 21.1305 18.3
357 1 9.6467 21.1782 21.016
358 1 6.74268 21.3597 21.1805
359 1 12.3366 21.3212 18.2341
360 1 12.5697 21.0044 20.9498
361 1 1.10154 -1.53626 23.6382
362 1 4.03281 -1.32989 23.9002
363 1 4.03241 -1.37211 26.6616
364 1 1.27892 -1.40409 26.5097
365 1 1.22027 1.48681 23.8635
366 1 3.7887 1.76608 23.6847
367 1 3.8535 1.47688 26.6569
368 1 1.1104 1.38699 26.8016
369 1 6.96986 -1.45587 23.9251
370 1 9.90414 -1.48668 23.8396
371 1 9.59805 -1.55784 26.5917
372 1 6.72469 -1.41946 26.5456
373 1 6.74958 1.34305 23.7517
374 1 9.53691 1.28869 23.7644
375 1 9.46234 1.1993 26.4314
376 1 6.76845 1.35134 26.5939
377 1 12.5429 -1.53495 23.4725
378 1 12.4586 -1.13597 26.2216
379 1 12.5763 1.18401 23.6445
380 1 12.2111 1.73346 26.3812
381 1 0.874958 4.20894 23.7278
382 1 3.83951 4.4523 23.6578
383 1 3.85906 4.32198 26.6288
384 1 1.11521 4.31667 26.8329
385 1 1.08366 7.1141 24.2241
386 1 3.96098 7.04673 23.9185
387 1 3.80839 7.23145 26.7945
388 1 1.01414 6.93164 26.9082
389 1 6.71792 3.96898 24.0424
390 1 9.45768 4.27241 23.6139
391 1 9.64803 4.33998 26.634
392 1 6.92516 4.17374 26.7375
393 1 6.92727 7.09128 23.8419
394 1 9.60083 7.1506 23.9752
395 1 9.49585 7.35589 26.7676
396 1 6.56654 6.78791 26.5861
397 1 12.3409 4.26379 23.6334
398 1 12.4739 4.43158 26.5567
399 1 12.3749 7.09029 23.9121
400 1 12.3729 7.05963 26.8879
401 1 1.28421 9.88975 23.9635
402 1 3.99825 9.9239 24.0462
403 1 4.01679 9.98984 26.7892
404 1 1.08718 9.84841 26.7083
405 1 1.37961 12.7392 23.9394
406 1 4.19919 12.7582 24.1765
407 1 4.11264 12.6079 27.0087
408 1 1.10433 12.7272 26.8706
409 1 6.74952 10.0135 23.8939
410 1 9.50782 9.79232 23.7541
411 1 9.34328 10.1396 26.4798
412 1 6.7132 9.7829 26.9175
413 1 6.91844 12.9454 23.8833
414 1 9.34232 12.7712 23.8702
415 1 9.4026 12.8959 26.9328
416 1 6.80379 12.7236 26.9054
417 1 12.4214 9.97637 23.6456
418 1 12.2958 9.93646 26.4766
419 1 12.0801 12.6874 23.9083
420 1 12.4988 12.9646 26.7341
421 1 1.30773 15.5274 23.9919
422 1 4.33478 15.7094 23.9223
423 1 3.9425 15.4546 26.7794
424 1 1.21958 15.5727 26.9022
425 1 1.23055 18.2882 23.5494
426 1 4.06594 18.3638 23.9315
427 1 4.19743 18.4196 26.9312
428 1 1.56738 18.4469 26.5217
429 1 6.80524 15.6413 23.7931
430 1 9.50883 15.2786 24.04
431 1 9.51661 15.7389 26.7327
432 1 6.78514 15.5591 26.7681
433 1 6.71381 18.4881 23.8735
434 1 9.5418 18.5023 23.6677
435 1 9.60189 18.5703 26.7326
436 1 6.99019 18.5499 26.6385
437 1 12.2701 15.5217 24.0741
438 1 12.5406 15.535 26.8968
439 1 12.4413 18.3899 23.814
440 1 12.5836 18.4583 26.6524
441 1 1.12973 21.0183 23.9164
442 1 4.0629 21.5276 23.5197
443 1 3.86813 21.0861 26.468
444 1 0.910409 21.1573 26.604
445 1 6.80905 21.2713 23.9686
446 1 9.37124 21.2355 23.8537
447 1 9.61998 21.1262 26.9815
448 1 6.68832 21.236 26.8745
449 1 12.4328 21.292 24.0097
450 1 12.4368 21.3228 26.7855
12144 2 5.39355 17.0703 14.0554
12250 2 11.0729 22.801 25.3254
15242 2 13.785 20.0321 25.1405
12143 2 8.36757 14.0913 14.0994
15212 2 13.783 2.86669 24.9122
12016 2 8.20684 5.51042 28.1039
12249 2 11.1033 19.7795 22.4575
12235 2 5.46353 14.3373 22.543
5993 1 9.51208 -1.72234 20.7176
15222 2 13.8524 8.59016 25.3255
15211 2 13.6393 5.67568 22.3779
12248 2 5.46376 22.5309 25.1539
12022 2 2.46527 11.1908 28.0471
15161 2 13.6632 5.70912 16.8331
15162 2 13.872 2.81425 19.6352
15191 2 13.8409 22.7395 16.7941
12148 2 8.19007 19.6939 14.1121
12191 2 -0.193996 19.6111 16.7902
15192 2 13.8733 19.6529 19.6111
15171 2 13.7558 11.3717 16.5874
15146 2 13.734 19.8827 14.212
12234 2 -0.0752143 17.0467 25.2895
15221 2 13.8782 11.306 22.2852
15136 2 13.8649 8.31231 13.9523
12031 2 -0.302414 14.3138 28.2399
12247 2 8.33893 19.9265 25.3148
12152 2 2.39852 -0.0187358 16.658
12042 2 2.59112 22.6439 28.1091
12246 2 8.2159 22.7565 22.6287
12229 2 11.1339 8.42725 22.4564
12156 2 8.01742 0.0116533 16.8091
12233 2 2.60378 14.2034 25.5599
12158 2 5.316 -0.0147796 19.6079
12036 2 8.0086 17.0764 28.2095
12160 2 11.1847 -0.0819664 19.3221
12245 2 5.59985 19.7974 22.3397
12162 2 2.51545 5.78183 16.782
12163 2 2.65751 2.6343 19.637
12232 2 2.75289 16.8578 22.4087
12165 2 5.33824 3.00256 16.7749
12166 2 8.06244 5.62473 16.6629
12167 2 8.13963 2.7133 19.4896
12168 2 5.42133 5.72314 19.7472
12169 2 11.0857 2.91793 16.7367
12170 2 10.7549 5.48605 19.5525
12243 2 2.69419 19.9151 25.1563
12172 2 2.64182 11.279 16.728
12173 2 2.4951 8.6613 19.4904
12242 2 2.43638 22.5844 22.64
12175 2 5.34622 8.56006 16.8821
12176 2 8.25592 11.3376 16.7785
12177 2 8.16309 8.65583 19.5696
12178 2 5.34941 11.3713 19.7514
12179 2 11.1255 8.584 16.9332
12180 2 11.0747 11.3306 19.7002
15172 2 14.0745 8.27635 19.6285
12182 2 2.54119 16.9696 16.8986
12183 2 2.60404 14.1945 19.6307
15231 2 13.8683 17.0454 22.2902
12185 2 5.61259 14.1793 16.5723
12186 2 8.27033 16.7783 16.7187
12187 2 8.07664 14.2039 19.4395
12188 2 5.58595 16.8984 19.6502
12189 2 11.2828 14.2309 16.8249
12190 2 10.9915 16.905 19.689
209 1 12.3761 12.6595 15.1601
12192 2 2.5971 22.5513 17.0985
12193 2 2.57355 19.6006 19.5796
12019 2 11.1232 2.68311 28.177
12195 2 5.44769 19.665 16.7369
12196 2 8.12122 22.5843 16.97
12197 2 8.07838 19.7686 19.7903
12198 2 5.5053 22.5801 19.717
12199 2 10.9315 19.6894 16.9522
12200 2 11.0096 22.4614 19.6179
12240 2 11.0214 16.896 25.4182
12202 2 2.53732 -0.0447858 22.5757
12015 2 5.42057 2.72581 27.9922
12239 2 10.7567 14.0757 22.5076
12230 2 10.8009 11.3376 25.1764
12206 2 8.23833 -0.177911 22.2579
12150 2 10.8834 22.5807 14.2165
12208 2 5.43016 -0.0149227 25.2203
12006 2 8.10512 -0.0787151 27.9271
12210 2 10.9808 0.00896214 25.0861
12238 2 5.40569 17.1149 25.3371
12212 2 2.52584 5.5548 22.4088
12213 2 2.44301 2.93493 25.3782
12237 2 8.07368 14.2564 25.4239
12215 2 5.40676 2.71412 22.4363
12216 2 8.14891 5.66558 22.3437
12217 2 8.31762 2.78539 25.0807
12218 2 5.34712 5.48215 25.1136
12219 2 11.166 2.47822 22.3602
12220 2 10.9454 5.71814 25.2214
12236 2 8.12247 16.7821 22.547
12222 2 2.42584 11.2724 22.6095
12223 2 2.55592 8.38912 25.2338
12228 2 5.4591 11.3069 25.3563
12225 2 5.35285 8.47505 22.4932
12226 2 8.21854 11.4482 22.6625
12227 2 7.9849 8.46069 25.426
12221 2 -0.134287 8.33151 22.6286
15182 2 13.9625 13.9802 19.6961
15031 2 13.8921 17.0188 27.9492
15001 2 13.9414 -0.203027 27.8835
15011 2 14.0192 5.54292 28.0924
15151 2 13.7619 0.0411878 16.5663
12134 2 5.35052 5.80264 13.9963
12231 2 -0.232963 14.222 22.6846
12149 2 5.40577 22.5814 14.1284
15241 2 13.8086 22.5546 22.4644
12154 2 -0.215521 -0.208844 19.6542
12204 2 -0.197514 -0.0143266 25.2115
15232 2 13.8726 14.2184 25.4349
15021 2 13.8128 11.2261 27.9524
12146 2 2.47024 19.776 14.1147
12135 2 10.951 5.6514 14.0436
451 1 1.26806 23.6597 1.21746
452 1 4.09257 24.1897 1.14928
12276 2 8.33611 39.6509 -0.0579021
454 1 1.09919 24.0048 4.01662
634 1 9.44815 24.043 12.5838
12367 2 5.44583 28.2623 13.9763
457 1 9.45352 26.6315 4.21254
458 1 6.82033 23.9137 4.13908
459 1 12.5883 26.6412 1.26729
12385 2 8.31623 48.3149 13.943
461 1 1.31706 26.9497 1.28147
462 1 3.80149 26.809 1.19866
463 1 3.7823 26.827 4.12967
464 1 1.01868 26.9261 4.06321
465 1 0.913938 30.1425 1.65088
466 1 3.70941 29.7755 0.991737
467 1 3.73655 29.7296 4.3083
468 1 1.21636 29.4926 4.35561
469 1 6.54743 27.1519 1.0198
470 1 9.50267 26.736 1.08922
471 1 6.56508 29.9383 1.15438
472 1 6.63374 27.203 4.06737
473 1 6.19995 32.9256 1.18154
12266 2 8.3192 34.1717 -0.133457
475 1 10.8256 33.371 0.516704
476 1 6.23691 30.2852 3.6512
477 1 9.2089 31.2679 0.8436
478 1 12.2324 26.7457 3.96183
479 2 11.1769 31.1829 2.33744
480 1 11.2081 29.1285 4.69278
481 1 0.9382 33.1851 1.24003
546 1 9.60622 24.0501 7.02352
483 1 4.08042 32.7643 3.61357
15296 2 13.4432 28.4152 5.13039
485 2 2.60667 34.0617 2.57431
486 1 4.12445 35.26 1.26564
487 1 3.87063 35.3821 4.14427
488 1 1.3332 35.4682 4.07382
489 1 8.38195 33.7543 2.42749
15327 2 13.8765 42.7274 8.36949
491 1 8.71355 28.8082 2.72803
492 1 7.05872 32.4372 4.33359
493 1 7.0626 35.9949 1.09531
494 1 10.0817 35.9431 1.18874
495 1 9.70598 35.7581 4.0331
496 1 6.80694 35.4902 4.48042
15326 2 13.9369 45.5052 5.2546
498 1 9.52351 31.1937 3.89377
499 1 12.8634 35.8179 1.00817
500 1 12.5848 35.7672 3.98763
501 1 1.23026 38.7296 1.49431
502 1 3.83391 38.3683 1.28991
503 1 4.0244 38.3951 4.3962
504 1 1.27363 38.2473 4.47228
505 1 1.09235 41.4035 1.25768
506 1 3.89163 41.3102 1.25212
507 1 4.10483 41.267 4.3565
508 1 1.3233 41.203 3.99512
509 1 6.69817 38.6224 1.29244
510 1 9.75745 38.5868 1.32666
511 1 9.78039 38.4712 4.11316
512 1 6.51218 38.2729 4.01467
513 1 6.77038 41.4245 1.17635
514 1 9.71217 41.5111 1.13692
515 1 9.39373 41.2622 4.1214
516 1 6.80684 41.0715 4.29355
517 1 12.583 38.459 1.15456
518 1 12.5079 38.4006 4.2053
519 1 12.5888 41.4822 1.20776
520 1 12.2547 41.3093 4.05428
521 1 1.32086 43.9834 1.34808
522 1 4.09863 44.2364 1.40964
523 1 3.99047 44.0294 4.32873
524 1 1.13145 44.1043 4.36746
525 1 1.39326 46.9266 1.47223
526 1 4.11422 46.9955 1.47221
527 1 3.91883 47.0455 4.42083
528 1 1.23042 46.8754 4.18892
529 1 6.75474 44.2881 1.44726
530 1 9.62784 44.2697 1.56525
531 1 9.87356 43.9849 4.17813
532 1 6.8426 44.0078 4.11248
533 1 6.71893 46.978 1.52
534 1 9.83153 47.0246 1.39368
535 1 9.42794 46.9919 4.09188
536 1 6.69977 46.8331 4.41828
537 1 12.5543 44.1887 1.28909
538 1 12.5415 43.9472 4.08427
539 1 12.7896 46.8822 1.17827
540 1 12.3782 46.9094 4.07556
541 1 0.980867 23.7124 7.04557
542 1 3.92168 23.7398 6.98465
543 1 3.88559 24.049 9.82286
544 1 0.951704 23.9705 9.9025
545 1 6.83155 23.9088 7.02753
490 1 13.0244 33.1026 2.51838
12361 2 -0.140596 48.2582 11.2769
548 1 6.46145 24.0327 9.86484
550 1 12.6818 23.8489 9.96441
6464 1 12.9656 29.2196 2.70061
551 1 1.1213 26.5904 7.01288
552 1 3.91937 26.691 7.14154
553 1 4.32312 26.8643 9.8125
554 1 1.14194 26.874 9.90809
555 1 1.26571 29.6537 7.06289
556 1 4.19844 29.5256 7.00986
557 1 3.92864 29.7704 9.92894
558 1 1.19363 29.3214 9.64508
559 1 6.584 26.545 6.80114
560 1 9.60719 26.7843 7.06983
561 1 9.41055 26.9609 9.66397
562 1 6.76 26.8229 9.80766
563 1 6.78434 29.7315 7.02476
564 1 9.58675 29.9046 6.65237
565 1 9.70152 29.6876 9.71691
566 1 6.83882 29.6122 9.88413
567 1 12.6133 27.0699 6.79664
568 1 12.5657 26.782 9.44547
569 1 12.7374 30.1342 6.92279
570 1 12.5765 29.6696 9.75106
571 1 1.12377 32.5587 6.75271
572 1 3.75151 32.6673 6.38452
573 1 3.85636 32.6038 9.53006
574 1 1.10602 32.4673 9.5212
575 1 1.1275 35.2847 6.95376
576 1 3.82814 35.3543 7.04433
577 1 4.31057 35.3619 10.0032
578 1 1.21711 35.2593 9.92589
579 1 6.76627 32.5697 6.92642
580 1 9.58126 32.8264 6.99352
581 1 9.83957 32.5969 9.70542
582 1 7.0257 32.5336 9.67492
583 1 6.83686 35.1839 7.14387
584 1 9.83429 35.6713 6.61084
585 1 9.85593 35.4469 9.51566
586 1 6.9153 35.3314 9.81438
587 1 12.4073 32.7286 7.04575
588 1 12.5678 32.6201 9.7452
589 1 12.5068 35.4425 6.9785
590 1 12.5994 35.482 9.68476
591 1 1.52837 38.329 7.41351
592 1 4.32318 38.5354 7.16319
593 1 3.91091 38.0766 9.77181
594 1 0.805185 37.9534 9.92538
595 1 1.26637 41.253 7.09003
596 1 3.95551 41.3171 7.16891
597 1 4.38031 41.1833 9.79173
598 1 1.32559 41.2137 9.89782
599 1 7.00333 38.0828 6.96953
600 1 9.73474 38.3069 6.98153
601 1 9.53839 38.1946 9.70696
602 1 6.83563 37.9258 9.7338
603 1 6.80431 41.0927 6.90313
604 1 9.53749 41.2615 7.06225
605 1 9.74715 40.9393 9.66338
606 1 6.89664 40.9761 9.78871
607 1 12.8787 38.4488 6.97448
608 1 12.3198 38.4431 9.72679
609 1 12.522 41.0742 6.8089
610 1 12.7039 41.3784 9.66834
611 1 1.21344 43.9393 6.92566
612 1 3.85213 44.2296 6.97653
613 1 4.22626 44.3485 9.97738
614 1 1.27105 43.9135 9.91287
615 1 1.3193 46.6826 6.9439
616 1 4.19451 46.8467 7.12163
617 1 4.21408 46.9549 9.86824
618 1 1.12792 46.6643 9.87088
619 1 6.92954 43.8248 6.92945
620 1 9.65062 44.0933 7.43355
621 1 9.61471 43.811 10.048
622 1 6.71256 43.8602 9.77994
623 1 6.9022 46.8514 7.27159
624 1 9.85904 46.7982 6.93196
625 1 9.50791 46.9662 10.0951
626 1 6.93465 46.4726 10.019
627 1 12.3356 43.7504 7.00951
628 1 12.4248 44.1808 9.90247
629 1 12.7392 46.6241 6.89364
630 1 12.4762 46.6676 9.79925
631 1 1.14488 23.966 12.7323
632 1 3.81591 23.9307 12.6799
633 1 6.9417 24.0331 12.8483
460 1 12.7399 23.9831 4.03169
635 1 11.9413 24.198 13.1695
636 1 1.0725 26.6279 12.7161
637 1 3.88758 26.6007 12.5961
638 1 1.18811 29.7731 12.8918
639 1 3.72932 29.5579 12.6728
640 1 6.58365 26.8769 12.5341
641 1 9.48095 26.9322 12.6547
642 1 6.73357 29.7292 12.5388
643 1 9.72904 29.7904 12.648
644 1 12.0826 27.1251 12.604
645 1 12.6594 29.8865 12.6702
646 1 1.25241 32.3624 12.6871
647 1 4.2473 32.3872 12.4497
648 1 1.13461 35.3032 12.7609
649 1 3.77169 35.4601 12.6602
650 1 6.96625 32.6125 12.5902
651 1 9.7994 32.8714 12.4893
652 1 6.58295 35.2439 12.4998
653 1 9.64361 35.4859 12.4389
654 1 12.7959 32.4391 12.3829
655 1 12.5604 35.2806 12.5177
656 1 1.12005 38.0737 12.756
657 1 4.25334 38.3013 12.5995
658 1 1.14043 41.068 12.4893
659 1 4.10073 41.0634 12.6505
660 1 7.21668 38.2449 12.7235
661 1 10.0879 38.0107 12.521
662 1 6.99345 41.2867 12.6157
663 1 9.71696 40.8387 12.4354
664 1 12.6256 38.2435 12.644
665 1 12.6975 41.1032 12.6509
666 1 1.32901 44.0009 12.6632
667 1 4.16359 44.1021 12.8002
668 1 1.20398 46.7726 12.6623
669 1 4.01017 47.0199 12.5775
670 1 7.06108 44.0886 12.7138
671 1 9.85022 43.7683 12.7082
672 1 6.89179 46.9535 12.9857
673 1 9.8774 47.0326 12.7303
674 1 12.622 44.0592 12.7873
675 1 12.7488 46.6613 12.4816
12363 2 11.031 48.2694 11.1393
901 1 0.987071 49.781 1.15246
12253 2 2.49671 25.4171 2.62235
12362 2 5.35068 48.2774 11.2835
15261 2 13.7181 33.7872 0.0606392
484 1 1.32958 32.624 4.1155
12257 2 8.03678 25.5164 2.63761
12258 2 5.36751 28.4389 2.56516
1105 1 6.93234 49.6907 12.3891
12260 2 11.0161 27.939 2.748
12360 2 11.1287 42.4478 11.0092
455 1 6.71522 24.0528 1.25275
12263 2 2.59183 30.7383 2.80237
12359 2 8.41836 45.4517 11.3425
1018 1 12.2664 49.4214 9.45771
86 1 9.59297 23.8243 1.16232
12267 2 7.75842 31.2452 2.5061
12268 2 5.95552 34.1131 2.97232
12345 2 10.8697 25.6527 11.3483
12270 2 11.2009 34.624 2.56076
12358 2 5.3757 42.921 11.2841
12344 2 8.11934 28.2627 11.0536
12273 2 2.6411 37.3402 2.88791
12357 2 2.78487 45.6091 11.2892
12343 2 5.20583 25.3751 11.2432
15306 2 13.6182 34.1785 5.25826
12277 2 8.45215 37.2079 2.72977
12278 2 5.31427 39.9331 2.78334
453 1 3.94669 23.8313 4.14554
12280 2 11.0944 39.9635 2.80325
12355 2 11.2196 36.7922 10.8677
12271 2 -0.204458 36.8761 -0.251144
12283 2 2.63378 42.7729 2.77222
12354 2 8.31875 39.6779 11.2064
12295 2 11.0277 48.2857 -0.0110718
6462 1 13.098 31.2085 0.692675
12287 2 8.26967 42.7984 2.65131
12288 2 5.38242 45.7314 3.07768
549 1 12.5721 23.9716 7.02266
12290 2 11.1416 45.5966 2.73958
12353 2 5.56533 36.7695 11.2306
12292 2 2.61958 48.3493 2.85586
6551 1 12.7781 31.2757 4.43416
12294 2 8.32746 48.3275 2.72894
474 1 10.8716 33.3751 4.59037
12342 2 2.73964 28.1145 11.1141
12297 2 2.44406 28.1556 5.60585
12298 2 2.40974 25.4017 8.65859
12286 2 8.20661 45.5729 0.11535
12300 2 5.26043 25.3511 5.46477
12301 2 8.2659 28.5781 5.19076
12302 2 8.29616 25.3073 8.44007
12303 2 5.45252 28.1374 8.34907
12304 2 11.1174 25.3948 5.72146
12305 2 11.1323 28.4774 8.52359
12352 2 2.71383 39.9454 11.1409
12307 2 2.49472 34.1867 5.57041
12308 2 2.70983 30.9167 8.43722
12326 2 -0.149984 42.6237 5.54276
12310 2 5.39676 31.2388 5.76836
12311 2 8.6683 34.0335 5.24468
12312 2 8.34643 31.1908 8.28668
12313 2 5.51567 33.9187 8.53906
12314 2 11.1761 31.3001 5.81196