ITEM: TIMESTEP
100000
ITEM: NUMBER OF ATOMS
17820
ITEM: BOX BOUNDS pp pp pp
-3.5998361237591953e-01 2.7699983612375615e+01
-4.3317783901506353e+00 3.3241177839015000e+02
-3.6516181534860009e-01 2.7705161815348404e+01
ITEM: ATOMS id type q x y z
1 2 2.2208 5.16317 1.21992 5.23065
2 1 -1.1104 1.00417 -2.8753 0.972677
3 1 -1.1104 1.08833 2.6902 1.03578
6 1 -1.1104 0.86901 -2.69211 3.66493
7 1 -1.1104 0.930735 2.814 3.82126
10 1 -1.1104 1.03422 -0.0579139 0.910641
12 2 2.2208 5.15857 -1.57373 2.44635
13 2 2.2208 5.20281 4.15804 2.38773
14 1 -1.1104 1.16792 0.0141047 3.74955
16 1 -1.1104 3.72878 -2.91172 1.0869
17 1 -1.1104 3.79473 2.69129 0.986107
18 2 2.2208 2.53979 1.20427 2.39219
19 1 -1.1104 3.81682 -3.0069 3.73049
20 1 -1.1104 3.79404 2.62746 3.72512
21 2 2.2208 2.33119 -1.5566 5.19547
22 2 2.2208 2.34823 3.99192 5.13531
23 1 -1.1104 3.91827 -0.196945 1.04284
24 1 -1.1104 3.7255 -0.233979 3.92981
9134 2 2.2208 -0.490493 -4.45686 10.8395
9233 2 2.2208 -0.378773 4.04992 2.51663
82 1 -1.1104 12.2001 19.5588 12.2254
4 1 -1.1104 6.66084 -2.92525 0.950582
15 1 -1.1104 6.53779 -0.095003 3.70285
8 1 -1.1104 6.58448 -2.94623 3.81138
29 2 2.2208 5.14415 -4.25037 5.18332
167 1 -1.1104 0.87731 2.66887 6.61646
25 2 2.2208 -0.426317 -1.40649 2.24228
330 2 2.2208 5.27419 1.17039 -0.380205
566 2 2.2208 2.5145 -1.38241 -0.442324
9367 2 2.2208 -0.485868 -4.28141 -0.396204
5 1 -1.1104 6.49992 2.60182 1.05963
334 2 2.2208 8.08057 -1.41902 -0.356388
11 1 -1.1104 6.6219 -0.146761 1.06995
9 1 -1.1104 6.637 2.58041 3.86495
602 2 2.2208 13.791 -1.45221 -0.378395
31 2 2.2208 10.7799 1.24058 5.22039
32 1 -1.1104 12.2273 -2.91578 1.1582
33 1 -1.1104 12.3651 2.76065 1.10443
34 1 -1.1104 12.2416 -2.86476 3.97932
35 1 -1.1104 12.1952 2.77721 3.84198
36 1 -1.1104 12.404 -0.0339169 0.92234
37 2 2.2208 10.8837 -1.44964 2.43745
39 1 -1.1104 12.1888 0.0406067 3.80237
40 1 -1.1104 9.50072 -2.87887 1.14484
41 1 -1.1104 9.45482 2.72619 1.08876
42 2 2.2208 7.99574 1.30288 2.48668
43 1 -1.1104 9.38942 -2.88032 3.96873
44 1 -1.1104 9.36065 2.67279 3.76026
45 2 2.2208 8.03247 -1.44366 5.25436
46 2 2.2208 7.97232 4.04533 5.30152
47 1 -1.1104 9.52985 -0.0800114 0.954858
48 1 -1.1104 9.47412 -0.183469 3.90084
38 2 2.2208 10.8426 4.12915 2.57851
137 1 -1.1104 12.2016 16.9155 12.0959
53 2 2.2208 10.7948 -4.30325 5.3017
338 2 2.2208 8.1137 4.10154 -0.329739
8557 2 2.2208 7.96547 -4.28918 2.40853
205 1 -1.1104 12.1248 -3.02127 6.75403
145 1 -1.1104 12.2937 19.5019 6.7041
595 2 2.2208 10.9608 1.29999 -0.237882
154 1 -1.1104 9.35874 14.0304 6.80952
54 2 2.2208 5.2074 6.96413 5.21074
55 2 2.2208 5.23661 12.635 5.22928
56 1 -1.1104 0.903906 8.19697 1.10582
58 1 -1.1104 1.04889 8.29969 3.90254
60 1 -1.1104 1.00282 5.42021 1.05663
61 1 -1.1104 1.13139 11.0116 1.12989
66 2 2.2208 5.2372 9.67805 2.33018
67 1 -1.1104 0.926386 5.5436 3.90699
68 1 -1.1104 0.939561 11.2295 3.80279
71 1 -1.1104 3.71082 8.36908 1.13396
72 2 2.2208 2.33356 6.98636 2.49355
73 2 2.2208 2.49957 12.3937 2.25918
74 1 -1.1104 3.79606 8.36286 3.85838
75 2 2.2208 2.45802 9.60693 5.36548
76 1 -1.1104 3.96976 5.56322 0.994175
77 1 -1.1104 3.89471 11.0636 0.805134
79 1 -1.1104 3.67529 5.56102 3.7595
80 1 -1.1104 3.85599 11.0364 3.77916
234 1 -1.1104 1.09456 8.20343 6.66883
62 1 -1.1104 1.04395 11.038 6.58434
238 1 -1.1104 3.84648 8.27443 6.75754
8558 2 2.2208 5.18224 -4.45372 10.8407
59 1 -1.1104 6.68977 8.33666 3.89047
70 1 -1.1104 6.6502 11.1028 3.7181
236 1 -1.1104 1.16589 5.38311 6.67648
311 2 2.2208 8.01107 18.2163 8.02786
156 1 -1.1104 9.55552 19.5171 6.63431
81 2 2.2208 -0.467213 6.81918 5.2029
632 2 2.2208 5.44048 12.585 -0.459261
231 2 2.2208 7.94295 -4.30286 8.14282
78 1 -1.1104 3.8948 11.18 6.66285
104 1 -1.1104 12.1459 13.8656 9.47871
63 1 -1.1104 6.67047 5.50503 1.05434
57 1 -1.1104 6.54542 8.35661 0.954748
64 1 -1.1104 6.75161 11.0956 0.922937
69 1 -1.1104 6.56584 5.45674 3.86832
84 2 2.2208 10.8407 6.85461 5.21777
85 2 2.2208 10.8389 12.5797 5.25316
86 1 -1.1104 12.2737 8.31607 1.07391
87 1 -1.1104 12.2601 8.32623 3.96254
88 1 -1.1104 12.3011 5.58547 1.07399
89 1 -1.1104 12.3599 11.1202 1.05987
91 2 2.2208 10.8426 9.76504 2.50839
92 1 -1.1104 12.1878 5.53244 3.81283
93 1 -1.1104 12.3264 11.2408 3.75407
94 1 -1.1104 9.43535 8.4239 1.0324
95 2 2.2208 8.09361 6.97349 2.48776
96 2 2.2208 8.04674 12.5134 2.33938
97 1 -1.1104 9.47195 8.34546 3.82531
98 2 2.2208 8.01074 9.83875 5.22905
99 1 -1.1104 9.47683 5.60515 1.14196
100 1 -1.1104 9.37635 11.0926 1.17707
102 1 -1.1104 9.36953 5.52978 3.90698
103 1 -1.1104 9.53574 11.1442 3.80019
657 2 2.2208 10.8675 12.5545 -0.355319
339 2 2.2208 10.7279 6.97548 -0.36408
340 2 2.2208 8.04348 9.60568 -0.409515
101 1 -1.1104 9.39487 11.3307 6.54529
136 1 -1.1104 12.2909 19.5149 9.43013
106 2 2.2208 5.26192 18.189 5.2839
107 1 -1.1104 1.10968 13.8188 0.946989
109 1 -1.1104 0.947117 19.5377 1.15034
113 1 -1.1104 1.07588 13.9893 3.75037
114 1 -1.1104 1.01164 19.6148 3.76366
116 1 -1.1104 1.11065 16.5699 1.05363
119 2 2.2208 5.18127 15.3143 2.39417
120 2 2.2208 5.1761 20.9034 2.48056
121 1 -1.1104 1.1314 16.7738 3.73941
123 1 -1.1104 3.7498 13.8018 0.950084
125 1 -1.1104 3.87122 19.5943 1.03797
127 2 2.2208 2.41106 18.1094 2.37081
128 1 -1.1104 3.86439 13.96 3.73036
129 1 -1.1104 3.91094 19.5208 3.8652
130 2 2.2208 2.44009 15.2259 5.25326
131 2 2.2208 2.42438 20.9253 5.30456
132 1 -1.1104 3.87241 16.6477 1.15343
134 1 -1.1104 3.91332 16.6319 3.82969
9238 2 2.2208 -0.490329 20.8395 2.39763
9239 2 2.2208 -0.327675 18.1324 5.16647
335 2 2.2208 2.36644 15.258 -0.339153
9150 2 2.2208 13.694 6.82968 8.05718
605 2 2.2208 13.6347 4.18283 -0.37179
288 1 -1.1104 6.64376 16.7852 9.3962
143 1 -1.1104 12.1349 13.9956 6.80117
122 1 -1.1104 6.59874 16.6986 3.78428
140 1 -1.1104 6.43468 16.7447 1.02162
115 1 -1.1104 6.56614 13.7859 3.71358
139 1 -1.1104 6.49953 19.5668 3.82991
110 1 -1.1104 6.72212 13.9897 0.948537
138 1 -1.1104 6.57233 19.5889 1.03109
141 2 2.2208 10.7977 18.1701 5.16449
142 1 -1.1104 12.1717 13.9857 1.09679
144 1 -1.1104 12.2424 19.4631 1.09081
146 1 -1.1104 12.3442 13.9539 3.84655
147 1 -1.1104 12.3173 19.6146 3.99566
148 1 -1.1104 12.3436 16.6607 1.15674
150 2 2.2208 10.8062 15.3092 2.40798
151 2 2.2208 10.9355 20.8628 2.40359
152 1 -1.1104 12.104 16.6756 3.84358
153 1 -1.1104 9.51147 13.9915 1.01473
155 1 -1.1104 9.39894 19.4708 1.00724
157 2 2.2208 7.9155 18.1188 2.43767
158 1 -1.1104 9.51705 13.9143 3.88981
159 1 -1.1104 9.49617 19.5161 3.76997
160 2 2.2208 7.98446 15.4154 5.15782
161 2 2.2208 8.13213 21.0173 5.23124
162 1 -1.1104 9.51682 16.6314 0.883334
164 1 -1.1104 9.39362 16.7255 3.78468
9236 2 2.2208 -0.222431 9.64188 2.47227
8970 2 2.2208 13.6005 9.72547 5.2025
575 2 2.2208 10.8866 18.0354 -0.327606
149 1 -1.1104 12.1121 16.6158 6.49291
163 1 -1.1104 9.35766 16.9065 6.62159
166 1 -1.1104 0.776101 -2.99084 6.51955
173 1 -1.1104 3.82056 2.57816 6.46526
171 1 -1.1104 6.5789 -0.204265 6.52952
333 2 2.2208 -0.464924 18.084 -0.34263
168 1 -1.1104 6.48558 -2.9261 6.65962
9076 2 2.2208 13.5292 4.25811 10.9074
174 1 -1.1104 3.62213 -0.23441 6.77083
172 1 -1.1104 3.52987 -2.99494 6.67558
170 1 -1.1104 0.883322 -0.188662 6.65913
175 2 2.2208 5.30644 1.25646 10.8948
176 1 -1.1104 0.962859 -2.90632 12.0754
177 1 -1.1104 1.0771 2.69598 12.1603
180 1 -1.1104 0.988191 -2.90282 9.46417
181 1 -1.1104 1.08253 2.65442 9.41917
184 1 -1.1104 0.944553 -0.114348 12.1571
186 2 2.2208 5.26436 -1.56292 8.06072
188 1 -1.1104 1.08277 -0.0581297 9.45665
190 1 -1.1104 3.84382 -2.95469 12.2099
191 1 -1.1104 3.88314 2.64237 12.3236
192 2 2.2208 2.38252 1.27796 8.01056
193 1 -1.1104 3.98427 -3.0509 9.40147
194 1 -1.1104 3.84336 2.50256 9.50426
195 2 2.2208 2.36472 -1.59027 10.7386
196 2 2.2208 2.41826 4.03251 10.917
197 1 -1.1104 3.77252 -0.197503 12.3255
198 1 -1.1104 3.79848 -0.300709 9.50969
187 2 2.2208 5.13677 4.04562 7.99719
183 1 -1.1104 6.65835 2.76073 9.46153
305 1 -1.1104 6.54926 16.8242 12.4096
199 2 2.2208 10.8833 15.4105 8.14036
189 1 -1.1104 6.73143 -0.247775 9.54315
185 1 -1.1104 6.55471 -0.277363 12.1534
178 1 -1.1104 6.55884 -2.91993 12.2241
289 1 -1.1104 6.51359 13.9196 9.38016
169 1 -1.1104 6.57995 2.62319 6.58788
209 1 -1.1104 9.42626 2.72023 6.4829
182 1 -1.1104 6.66447 -2.88728 9.36701
207 1 -1.1104 12.3337 -0.213485 6.80404
210 1 -1.1104 9.41076 -0.0499291 6.60989
179 1 -1.1104 6.68639 2.59313 12.2289
310 1 -1.1104 9.44004 19.5071 12.3068
206 1 -1.1104 12.2217 2.55201 6.77364
208 1 -1.1104 9.34303 -2.77555 6.75511
211 2 2.2208 10.7505 1.38989 10.8924
212 1 -1.1104 12.0539 -2.97454 12.2468
213 1 -1.1104 12.1609 2.84033 12.2905
214 1 -1.1104 12.3392 -2.94366 9.50659
215 1 -1.1104 12.0523 2.96459 9.53876
216 1 -1.1104 12.1851 -0.0646864 12.3605
217 2 2.2208 10.9082 -1.53949 8.09294
219 1 -1.1104 12.2597 0.122515 9.57968
220 1 -1.1104 9.33153 -2.81934 12.4385
221 1 -1.1104 9.31923 2.86004 12.1375
222 2 2.2208 7.85782 1.1931 8.06229
223 1 -1.1104 9.59099 -3.04048 9.51151
224 1 -1.1104 9.27596 2.62033 9.26906
225 2 2.2208 8.0618 -1.51618 10.8488
226 2 2.2208 8.02758 4.19059 10.8781
227 1 -1.1104 9.3593 -0.0188577 12.2658
228 1 -1.1104 9.56212 -0.089182 9.37406
218 2 2.2208 10.6418 4.12125 8.05717
295 1 -1.1104 6.47544 19.6695 12.302
112 1 -1.1104 6.80308 19.6846 6.64344
235 1 -1.1104 6.43846 8.51975 6.6038
239 1 -1.1104 3.86964 5.4326 6.59246
240 2 2.2208 5.25065 6.87708 11.0081
241 2 2.2208 5.26325 12.5633 10.8129
242 1 -1.1104 0.93602 8.2421 12.3342
244 1 -1.1104 1.02598 8.16521 9.5399
246 1 -1.1104 1.15041 5.45018 12.5235
247 1 -1.1104 1.09602 11.0605 12.1578
250 2 2.2208 5.1749 9.78763 8.14877
251 1 -1.1104 0.870289 5.45246 9.54571
252 1 -1.1104 1.01971 11.1555 9.41667
255 1 -1.1104 3.73786 8.14821 12.3254
256 2 2.2208 2.41913 6.78943 8.14975
257 2 2.2208 2.32949 12.4649 8.04594
258 1 -1.1104 4.03371 8.34036 9.59259
259 2 2.2208 2.4347 9.61288 10.9719
260 1 -1.1104 3.76549 5.38777 12.3556
261 1 -1.1104 3.83667 11.113 12.2391
262 1 -1.1104 3.79674 5.43264 9.56995
263 1 -1.1104 3.73729 11.104 9.35523
243 1 -1.1104 6.59016 8.24984 12.3334
118 1 -1.1104 6.66085 16.7208 6.69903
30 2 2.2208 -0.319143 9.60284 7.98671
65 1 -1.1104 6.67179 11.3592 6.62767
237 1 -1.1104 6.60754 5.48946 6.64209
249 1 -1.1104 6.63693 11.0982 12.2539
254 1 -1.1104 6.54761 11.1049 9.44842
9232 2 2.2208 -0.406799 1.14991 5.19785
90 1 -1.1104 12.0901 10.8934 6.51895
248 1 -1.1104 6.7215 5.45193 12.3385
253 1 -1.1104 6.59145 5.49775 9.52899
267 1 -1.1104 9.25195 8.31787 6.65456
266 1 -1.1104 12.2684 5.47938 6.63298
269 1 -1.1104 9.44808 5.57587 6.67597
245 1 -1.1104 6.84662 8.20542 9.32603
265 1 -1.1104 11.8802 7.98379 7.03741
264 1 -1.1104 9.28838 11.2609 9.27575
268 1 -1.1104 9.26176 5.51303 9.50532
270 1 -1.1104 9.35699 11.1987 12.1173
271 1 -1.1104 9.41788 5.66002 12.3246
272 2 2.2208 8.11861 9.74095 10.8509
273 1 -1.1104 9.90819 8.40045 9.4462
274 2 2.2208 7.96913 12.6948 8.00961
275 2 2.2208 8.0865 6.93536 7.97576
276 2 2.2208 10.6691 6.9462 11.0213
277 2 2.2208 10.841 12.5609 10.8097
278 1 -1.1104 11.9537 8.293 12.5034
279 1 -1.1104 12.213 5.57594 12.4927
280 1 -1.1104 12.128 11.3446 12.4351
281 2 2.2208 10.5822 9.85262 7.95785
282 1 -1.1104 12.2686 5.76837 9.64059
283 1 -1.1104 12.1016 11.013 9.30391
284 1 -1.1104 9.22459 8.50939 12.326
126 1 -1.1104 3.76983 19.647 6.73066
108 1 -1.1104 0.89755 14.0352 6.63346
301 1 -1.1104 1.05286 19.5145 6.69568
133 1 -1.1104 3.88252 16.8214 6.7088
117 1 -1.1104 1.05277 16.7913 6.60489
124 1 -1.1104 3.73339 13.8937 6.71921
285 1 -1.1104 3.70495 19.5987 12.2653
286 1 -1.1104 3.65016 13.8936 12.3712
290 1 -1.1104 0.989666 19.4677 9.35955
291 1 -1.1104 0.843823 16.8288 9.42248
292 2 2.2208 5.2523 21.0476 8.0862
293 1 -1.1104 0.847994 13.9388 9.44109
294 2 2.2208 5.19075 15.3281 8.05954
297 1 -1.1104 0.949323 19.39 12.2295
298 1 -1.1104 1.03714 13.9393 12.3203
299 2 2.2208 5.18536 18.1373 10.9344
300 1 -1.1104 3.91806 19.4733 9.47046
302 2 2.2208 2.51725 18.1815 8.03584
303 1 -1.1104 3.68041 16.5746 9.3962
304 1 -1.1104 3.73347 13.7743 9.46728
306 1 -1.1104 1.01182 16.6978 12.2051
307 1 -1.1104 3.8412 16.7176 12.2065
308 2 2.2208 2.37403 20.8939 10.7962
309 2 2.2208 2.25496 15.3248 10.8764
111 1 -1.1104 6.68729 14.0219 6.54382
8969 2 2.2208 -0.304765 20.9113 7.94238
200 2 2.2208 10.8455 20.9005 8.03426
314 1 -1.1104 9.38768 16.809 12.2237
233 2 2.2208 8.12228 15.404 10.8904
229 1 -1.1104 9.67066 13.9237 12.2543
315 2 2.2208 7.99376 20.9591 10.84
51 1 -1.1104 12.3427 14.1008 12.3071
50 2 2.2208 10.81 18.2575 10.7664
313 1 -1.1104 9.3717 16.8888 9.50258
296 1 -1.1104 6.57604 14.1141 12.1191
287 1 -1.1104 6.77383 19.4223 9.39896
312 1 -1.1104 9.42116 14.007 9.47965
204 1 -1.1104 12.2398 16.8563 9.39114
203 1 -1.1104 9.5917 19.606 9.56531
8942 2 2.2208 13.6469 3.98113 5.3392
9256 2 2.2208 -0.413414 6.80612 -0.222458
9234 2 2.2208 13.7243 1.24094 2.47359
316 2 2.2208 -0.410763 15.3148 13.4876
9039 2 2.2208 13.5702 15.1708 5.34841
230 2 2.2208 13.6122 -1.43165 10.7562
9167 2 2.2208 -0.413485 6.8406 10.941
8934 2 2.2208 -0.321511 15.318 8.07564
9290 2 2.2208 -0.227706 12.4221 -0.406708
320 2 2.2208 5.22596 9.80557 13.5906
321 2 2.2208 2.35372 12.5749 13.7007
512 2 2.2208 5.0942 20.9892 13.6971
327 2 2.2208 10.8447 15.3728 13.662
328 2 2.2208 8.08076 18.1656 13.6529
336 2 2.2208 5.16519 18.2323 -0.365339
331 2 2.2208 2.57078 4.02148 -0.446026
329 2 2.2208 13.5769 18.2676 13.5556
341 2 2.2208 5.09373 1.31022 16.472
342 1 -1.1104 1.04206 -3.11106 17.7463
343 1 -1.1104 0.88108 2.59457 17.8568
346 1 -1.1104 1.0094 -2.93218 14.8873
348 1 -1.1104 0.861342 2.75187 15.0231
354 1 -1.1104 1.06649 -0.136059 17.9005
356 2 2.2208 5.20277 -1.44706 19.2956
357 2 2.2208 5.25247 4.12167 19.238
358 1 -1.1104 0.943355 -0.234953 15.2516
362 1 -1.1104 3.80353 -2.90631 17.8098
363 1 -1.1104 3.71138 2.70601 18.0288
364 2 2.2208 2.40174 1.28003 19.3907
365 1 -1.1104 3.90005 -3.04021 14.9959
367 1 -1.1104 3.67774 2.63079 15.0183
369 2 2.2208 2.34251 -1.60736 16.4529
370 2 2.2208 2.40547 4.10911 16.5804
371 1 -1.1104 3.78615 -0.0891345 17.8787
372 1 -1.1104 3.84493 -0.074904 15.1102
668 1 -1.1104 6.58945 19.6041 23.377
671 1 -1.1104 6.47143 13.8957 23.6432
324 2 2.2208 5.18238 15.3098 13.6265
660 2 2.2208 10.8218 15.4013 24.9061
383 2 2.2208 5.25023 4.08774 13.6604
355 1 -1.1104 6.56302 0.0568239 17.7018
345 1 -1.1104 6.5556 2.77948 17.7497
9368 2 2.2208 13.509 15.5331 22.1255
319 2 2.2208 2.33412 6.78449 13.7082
9475 2 2.2208 13.6544 12.6466 24.9447
382 2 2.2208 2.42482 1.2532 13.5487
317 2 2.2208 5.26712 -1.49145 13.6165
360 1 -1.1104 6.58017 0.141787 14.9936
350 1 -1.1104 6.60675 -2.73967 15.012
352 1 -1.1104 6.69313 2.72647 15.0384
344 1 -1.1104 6.74814 -2.73763 17.8218
384 2 2.2208 10.8352 1.3924 16.458
385 1 -1.1104 12.5005 -3.11319 17.6115
386 1 -1.1104 12.3164 2.83949 17.8779
387 1 -1.1104 12.33 -2.79092 14.9181
389 1 -1.1104 12.3723 2.83818 15.1242
391 1 -1.1104 12.5085 0.182506 17.7035
393 1 -1.1104 12.1959 -0.0348279 15.0677
394 1 -1.1104 9.32545 2.88368 17.904
395 2 2.2208 8.15036 1.40326 19.2696
396 1 -1.1104 9.4383 -2.78276 15.64
398 1 -1.1104 9.51177 2.7538 15.0375
400 2 2.2208 7.8709 -1.31635 16.3024
401 2 2.2208 7.95996 4.168 16.4677
402 1 -1.1104 9.3844 0.0634487 17.6535
403 1 -1.1104 9.47035 -0.045364 14.9234
392 2 2.2208 10.8921 4.18124 19.3104
413 2 2.2208 10.8059 4.16593 13.7979
408 2 2.2208 8.06333 -4.22981 13.6371
409 2 2.2208 13.62 -1.40908 16.5352
412 2 2.2208 10.96 -1.52849 13.7026
318 2 2.2208 8.02077 1.39299 13.6556
536 1 -1.1104 9.53071 16.8747 20.7892
414 2 2.2208 5.19172 7.03976 16.4572
415 2 2.2208 5.21668 12.6384 16.469
416 1 -1.1104 0.858342 8.27629 17.9295
418 1 -1.1104 0.849895 8.37491 15.1687
422 1 -1.1104 1.11371 5.44596 18.0414
423 1 -1.1104 1.03429 11.1086 17.9636
426 2 2.2208 5.16195 9.81319 19.1692
427 1 -1.1104 0.821862 5.51463 15.2197
429 1 -1.1104 0.972823 11.1717 15.0833
435 1 -1.1104 3.69554 8.33428 17.8146
436 2 2.2208 2.39154 6.92666 19.3203
437 2 2.2208 2.44593 12.5732 19.2897
438 1 -1.1104 3.69783 8.33928 14.9417
440 2 2.2208 2.22035 9.73671 16.4892
441 1 -1.1104 3.82245 5.62287 17.8724
442 1 -1.1104 3.81827 11.4023 17.8405
443 1 -1.1104 3.69137 5.29865 15.1298
445 1 -1.1104 3.73712 11.1584 15.0849
598 2 2.2208 -0.390558 12.5157 16.6863
431 1 -1.1104 6.48902 5.5688 15.0325
407 2 2.2208 -0.451996 9.73587 19.3746
449 1 -1.1104 9.40835 19.5798 23.7188
8645 2 2.2208 2.33325 -4.29341 13.5568
420 1 -1.1104 6.50116 8.40902 15.0837
417 1 -1.1104 6.63232 8.35331 17.9049
9431 2 2.2208 13.7485 20.9275 16.6065
430 1 -1.1104 0.892682 11.1339 20.786
434 1 -1.1104 6.57582 11.1754 20.6605
433 1 -1.1104 6.53984 11.3078 14.9586
425 1 -1.1104 6.67868 11.3006 17.8413
424 1 -1.1104 6.59589 5.59902 17.7632
452 2 2.2208 10.8979 7.05927 16.5984
453 2 2.2208 10.7913 12.6621 16.6879
454 1 -1.1104 12.2623 8.39465 17.9782
455 1 -1.1104 12.1903 8.36076 15.1769
457 1 -1.1104 12.3736 5.63834 17.9496
458 1 -1.1104 12.2824 11.2716 17.9974
459 2 2.2208 10.8186 9.77608 19.4044
460 1 -1.1104 12.0071 5.55394 15.2386
462 1 -1.1104 12.2121 11.1582 15.2206
464 1 -1.1104 9.53475 8.4121 17.9758
465 2 2.2208 8.08668 6.97997 19.2352
466 2 2.2208 7.98335 12.7246 19.2768
467 1 -1.1104 9.28023 8.51033 15.2495
469 2 2.2208 7.92807 9.94786 16.5369
470 1 -1.1104 9.48288 5.64571 17.9771
471 1 -1.1104 9.35119 11.2168 18.0522
472 1 -1.1104 9.27766 5.62296 15.0417
474 1 -1.1104 9.35116 11.2693 15.1791
323 2 2.2208 10.8175 9.84826 13.7592
322 2 2.2208 8.05147 12.7094 13.5675
476 2 2.2208 7.96502 7.0667 13.8334
475 1 -1.1104 9.51425 11.2518 20.7262
337 2 2.2208 2.33361 20.92 27.7762
478 2 2.2208 5.26667 18.1341 16.3987
479 1 -1.1104 0.996944 13.9505 17.8765
480 1 -1.1104 1.1243 19.6409 17.8944
483 1 -1.1104 0.546484 13.9604 15.1585
485 1 -1.1104 0.975132 19.466 15.1158
491 1 -1.1104 0.965785 16.8478 17.9828
493 2 2.2208 5.2212 15.4392 19.296
494 2 2.2208 5.21002 21.0722 19.1867
495 1 -1.1104 1.04087 16.8213 15.0327
499 1 -1.1104 3.83444 14.1881 17.8374
500 1 -1.1104 3.88697 19.8312 17.9042
501 2 2.2208 2.42904 18.2449 19.3061
502 1 -1.1104 3.61247 14.0095 15.0155
504 1 -1.1104 3.80387 19.585 15.2002
506 2 2.2208 2.32054 15.4607 16.5116
507 2 2.2208 2.40787 20.9284 16.4409
508 1 -1.1104 3.73109 16.8804 17.8582
509 1 -1.1104 3.8557 16.8089 15.0317
497 1 -1.1104 6.71656 16.7882 15.1059
9469 2 2.2208 -0.42115 15.4252 19.2055
517 1 -1.1104 12.2228 14.0456 20.8363
325 2 2.2208 2.46475 18.1545 13.637
9430 2 2.2208 13.8097 18.0716 19.1471
492 1 -1.1104 6.47604 16.7539 17.9497
481 1 -1.1104 6.57452 14.0543 17.7884
484 1 -1.1104 0.93061 13.8475 20.5223
510 1 -1.1104 3.79121 16.8276 20.6316
538 2 2.2208 8.10029 21.0609 22.0587
482 1 -1.1104 6.56123 19.5605 17.949
487 1 -1.1104 6.57378 13.8979 15.0624
489 1 -1.1104 6.53401 19.5652 14.9795
513 2 2.2208 10.8335 18.2509 16.4635
514 1 -1.1104 12.0611 14.0614 17.9959
515 1 -1.1104 12.2746 19.6551 17.8213
516 1 -1.1104 12.0774 13.9955 15.1509
518 1 -1.1104 12.0648 19.4951 14.8735
520 1 -1.1104 12.1023 16.8167 17.7872
521 2 2.2208 10.8081 15.3804 19.4561
522 2 2.2208 10.9513 20.9565 19.275
523 1 -1.1104 12.6242 16.7482 15.0392
525 1 -1.1104 9.40927 14.0303 17.8531
526 1 -1.1104 9.46839 19.634 18.0649
527 2 2.2208 8.00492 18.3175 19.3489
528 1 -1.1104 9.4349 13.9588 15.1449
530 1 -1.1104 9.33168 19.5265 15.2029
532 2 2.2208 8.05616 15.356 16.5661
533 2 2.2208 7.93129 20.9429 16.4228
534 1 -1.1104 9.32806 16.8445 17.8348
535 1 -1.1104 9.49684 16.8446 15.0658
411 2 2.2208 13.5404 12.7599 13.8159
326 2 2.2208 10.8519 20.9152 13.6251
599 2 2.2208 13.6775 12.571 19.3757
406 2 2.2208 13.3977 15.3483 16.5945
490 1 -1.1104 6.49066 19.7108 20.6973
498 1 -1.1104 6.71659 16.78 20.7544
347 1 -1.1104 0.931729 -2.89195 20.4953
359 1 -1.1104 1.00166 -0.0260646 20.7554
366 1 -1.1104 3.6946 -2.86487 20.6413
368 1 -1.1104 3.88743 2.69991 20.7787
361 1 -1.1104 6.62747 -0.0963727 20.4856
351 1 -1.1104 6.49591 -2.80299 20.6463
373 1 -1.1104 3.81466 -0.041613 20.7188
9406 2 2.2208 -0.452924 6.92789 16.5142
349 1 -1.1104 1.0288 2.7323 20.6873
541 2 2.2208 5.32995 1.27356 22.0502
542 1 -1.1104 1.03072 -2.83742 23.5214
543 1 -1.1104 0.967122 2.77053 23.654
546 1 -1.1104 1.07091 -2.90074 26.2489
547 1 -1.1104 1.07258 2.59352 26.3347
550 1 -1.1104 1.13069 -0.0361109 23.4457
552 2 2.2208 5.3352 -1.44627 24.8486
554 1 -1.1104 0.81661 -0.0605215 26.1925
556 1 -1.1104 3.69137 -2.86196 23.4347
557 1 -1.1104 3.81815 2.6367 23.3464
558 2 2.2208 2.39088 1.24291 24.7975
559 1 -1.1104 3.80832 -2.91403 26.2573
560 1 -1.1104 3.84301 2.56888 26.2787
561 2 2.2208 2.39695 -1.49418 22.0004
562 2 2.2208 2.45517 4.0202 22.1448
563 1 -1.1104 4.00378 -0.151743 23.3782
564 1 -1.1104 3.79894 -0.083264 26.1448
553 2 2.2208 5.1674 4.01244 24.9277
545 1 -1.1104 6.7878 2.60835 23.5535
555 1 -1.1104 6.5478 -0.0664027 26.2852
9577 2 2.2208 -0.44093 6.8194 22.0771
548 1 -1.1104 6.57766 -2.90696 26.2015
544 1 -1.1104 6.62406 -2.83954 23.3592
529 1 -1.1104 9.32857 13.9921 20.543
374 2 2.2208 13.6324 4.21884 22.2498
549 1 -1.1104 6.72248 2.693 26.3852
353 1 -1.1104 6.60122 2.78128 20.676
551 1 -1.1104 6.74019 -0.0747991 23.5397
9333 2 2.2208 -0.396087 -1.49108 24.7949
399 1 -1.1104 9.42634 2.77225 20.7427
397 1 -1.1104 9.12739 -3.0579 20.9203
390 1 -1.1104 12.1764 2.50087 20.8398
388 1 -1.1104 12.3515 -2.89085 20.7801
404 1 -1.1104 9.49331 0.169732 20.7635
577 2 2.2208 10.7877 1.40668 22.2442
578 1 -1.1104 12.1329 -2.88415 23.5248
579 1 -1.1104 12.2285 2.85425 23.6119
580 1 -1.1104 12.3966 -2.90686 26.3403
581 1 -1.1104 12.1722 2.58384 26.2772
582 1 -1.1104 12.2999 0.0670947 23.2392
583 2 2.2208 10.7716 -1.52033 25.0327
584 2 2.2208 10.916 4.17665 24.9238
585 1 -1.1104 12.1084 -0.228617 26.3371
586 1 -1.1104 9.28685 -2.81407 23.6321
587 1 -1.1104 9.45811 2.76595 23.6316
588 2 2.2208 8.05292 1.32929 24.9421
589 1 -1.1104 9.44342 -2.85118 26.4487
590 1 -1.1104 9.50385 2.57648 26.4363
591 2 2.2208 8.13301 -1.36771 22.0097
593 1 -1.1104 9.58803 -0.09149 23.5241
594 1 -1.1104 9.23849 -0.0756603 26.322
592 2 2.2208 8.20992 4.1661 22.1792
9292 2 2.2208 -0.368197 1.29885 22.0367
432 1 -1.1104 6.81388 5.63139 20.6387
446 1 -1.1104 3.79644 11.0458 20.6156
428 1 -1.1104 1.21378 5.45421 20.9227
9363 2 2.2208 -0.400751 9.63145 24.7859
519 1 -1.1104 12.2955 19.61 20.6039
439 1 -1.1104 3.84619 8.27933 20.6032
419 1 -1.1104 0.92963 8.14077 20.7574
444 1 -1.1104 4.00942 5.47161 20.6408
606 2 2.2208 5.20138 6.84929 21.8977
607 2 2.2208 5.21347 12.5565 22.16
608 1 -1.1104 0.95259 8.25765 23.531
610 1 -1.1104 0.936415 8.3104 26.437
612 1 -1.1104 0.944864 5.46549 23.6263
613 1 -1.1104 1.10949 11.1266 23.5119
616 2 2.2208 5.30228 9.54114 24.8485
617 1 -1.1104 0.93178 5.46665 26.4377
618 1 -1.1104 1.04684 11.1234 26.3068
621 1 -1.1104 3.81999 8.26286 23.4197
622 2 2.2208 2.38625 6.91717 24.8693
623 2 2.2208 2.34732 12.5826 24.9654
624 1 -1.1104 3.78104 8.15245 26.144
625 2 2.2208 2.40182 9.60288 22.0796
626 1 -1.1104 3.75196 5.53872 23.3637
627 1 -1.1104 3.74673 11.167 23.4581
628 1 -1.1104 3.80596 5.39617 26.1983
629 1 -1.1104 3.89502 10.7555 26.2097
614 1 -1.1104 6.57645 5.35181 23.5899
421 1 -1.1104 6.64469 8.28432 20.6512
609 1 -1.1104 6.5815 8.17574 23.4699
463 1 -1.1104 12.2629 11.133 20.6398
456 1 -1.1104 12.153 8.23749 20.7574
468 1 -1.1104 9.41653 8.36563 20.7162
619 1 -1.1104 6.72794 5.57541 26.3808
620 1 -1.1104 6.71056 11.1967 26.1935
611 1 -1.1104 6.67369 8.26574 26.2506
615 1 -1.1104 6.77876 11.1097 23.5781
461 1 -1.1104 12.2858 5.57676 20.7604
473 1 -1.1104 9.45834 5.52932 20.7558
637 1 -1.1104 9.39114 11.2024 26.4086
638 1 -1.1104 9.56287 5.43865 26.4298
639 1 -1.1104 9.47887 11.2812 23.6585
640 1 -1.1104 9.44651 5.65032 23.506
641 2 2.2208 8.02088 9.83922 22.0964
642 1 -1.1104 9.43857 8.2586 26.1973
643 2 2.2208 7.95836 12.6782 25.0275
644 2 2.2208 8.04202 6.84956 24.8054
645 2 2.2208 10.7911 7.0715 22.1809
646 2 2.2208 10.7491 12.6889 22.1216
647 1 -1.1104 12.1994 8.37085 23.5081
648 1 -1.1104 12.1271 8.43339 26.4004
649 1 -1.1104 12.3601 5.6743 23.5013
650 1 -1.1104 12.3052 11.1485 23.4856
651 2 2.2208 10.7768 9.75654 24.9861
652 1 -1.1104 12.355 5.46293 26.1804
653 1 -1.1104 12.2132 11.1637 26.3252
654 1 -1.1104 9.41908 8.43943 23.4267
567 1 -1.1104 12.1159 16.6444 26.3107
486 1 -1.1104 1.04349 19.5876 20.7479
503 1 -1.1104 3.95607 13.7991 20.7595
505 1 -1.1104 3.76736 19.6751 20.6242
496 1 -1.1104 1.01908 16.6471 20.7445
9287 2 2.2208 -0.413119 18.1626 22.0596
376 2 2.2208 2.31696 -4.38392 19.2161
596 2 2.2208 2.347 15.3817 21.9649
597 2 2.2208 2.31069 20.9835 22.0938
655 1 -1.1104 3.76205 16.7935 23.4552
656 1 -1.1104 1.05714 16.6423 23.6438
661 1 -1.1104 3.66171 19.6401 23.5168
663 1 -1.1104 3.7045 13.9833 23.479
665 1 -1.1104 1.04336 19.6364 26.447
666 1 -1.1104 1.01365 16.7793 26.5756
667 1 -1.1104 0.99935 14.0541 26.218
669 2 2.2208 5.21057 20.9848 24.8577
670 2 2.2208 5.0021 15.4064 24.8386
672 1 -1.1104 0.952726 19.3967 23.5267
673 1 -1.1104 0.950848 13.8863 23.3933
674 2 2.2208 5.05919 18.2576 22.0947
675 1 -1.1104 3.70621 19.6675 26.3554
676 2 2.2208 2.37233 18.1643 24.8897
677 1 -1.1104 3.71004 16.7718 26.3773
678 1 -1.1104 3.72093 13.8543 26.2203
451 1 -1.1104 6.51642 19.6126 26.2183
664 1 -1.1104 6.48155 16.8779 26.2905
679 1 -1.1104 6.50811 16.7821 23.4909
662 1 -1.1104 6.46706 14.139 26.377
658 1 -1.1104 12.1567 19.48 26.3069
537 2 2.2208 7.94939 15.39 22.0829
565 1 -1.1104 9.19751 14.0686 23.3932
634 1 -1.1104 12.2345 14.0402 23.5559
450 2 2.2208 7.86687 18.2115 24.9441
568 2 2.2208 10.8042 20.9601 24.9406
633 2 2.2208 10.8791 18.2136 22.072
488 1 -1.1104 6.65884 13.9593 20.6728
540 1 -1.1104 9.34158 16.8734 26.1331
511 1 -1.1104 9.54763 19.643 26.3944
635 1 -1.1104 12.2773 19.6739 23.5053
659 1 -1.1104 12.1709 16.8727 23.3969
477 1 -1.1104 9.44273 14.0957 26.1808
539 1 -1.1104 9.32626 16.8621 23.4402
531 1 -1.1104 9.33882 19.6512 20.9444
636 1 -1.1104 12.1853 13.8658 26.3382
524 1 -1.1104 12.1167 16.8741 20.6533
405 2 2.2208 13.6456 -4.19002 19.2828
9288 2 2.2208 13.6181 4.34465 16.4809
381 2 2.2208 13.681 9.87495 16.6374
630 2 2.2208 5.18626 6.93785 27.7295
631 2 2.2208 2.37235 9.61195 27.7013
603 2 2.2208 7.98794 20.9326 27.7395
574 2 2.2208 7.9694 15.3744 27.542
9246 2 2.2208 13.6192 7.20819 13.5899
680 2 2.2208 5.16004 23.7401 5.31455
681 2 2.2208 5.38298 29.4065 5.25844
682 1 -1.1104 0.874968 25.1198 1.33724
683 1 -1.1104 0.791431 25.183 4.0166
684 1 -1.1104 0.978101 22.3122 1.08854
685 1 -1.1104 0.898618 27.9419 0.978542
686 2 2.2208 5.08274 26.4943 2.46183
687 1 -1.1104 1.01334 22.3953 3.9285
688 1 -1.1104 0.882442 27.9258 3.83661
689 1 -1.1104 3.62891 25.1493 1.10663
690 2 2.2208 2.38324 23.7262 2.49685
691 2 2.2208 2.30855 29.2945 2.51107
692 1 -1.1104 3.66174 25.1714 3.75982
693 2 2.2208 2.37703 26.584 5.17959
694 1 -1.1104 3.93365 22.3455 1.10011
695 1 -1.1104 3.66237 27.9404 1.1106
696 1 -1.1104 3.85405 22.376 3.89469
697 1 -1.1104 3.73025 27.9495 3.88851
702 1 -1.1104 6.64354 25.1785 3.90489
1224 2 2.2208 2.30721 26.6709 -0.236612
799 2 2.2208 -0.301857 46.3031 5.18307
1223 2 2.2208 5.1457 23.6801 -0.358429
1552 1 -1.1104 6.72378 47.5411 12.2839
706 1 -1.1104 6.53505 27.893 3.91774
700 2 2.2208 -0.506809 26.5254 2.55813
699 2 2.2208 -0.560024 23.6596 5.23475
701 1 -1.1104 6.55222 25.1189 1.06344
704 1 -1.1104 6.70804 28.0941 1.14576
703 1 -1.1104 6.61814 22.3334 1.20458
705 1 -1.1104 6.6018 22.2843 3.9366
707 2 2.2208 11.0471 23.7355 5.18717
708 2 2.2208 10.8092 29.2928 5.21058
709 1 -1.1104 12.2549 25.1975 1.05202
710 1 -1.1104 12.2546 25.2501 3.71668
711 1 -1.1104 12.2217 22.2533 0.980799
712 1 -1.1104 12.2382 28.0348 0.856903
713 2 2.2208 10.7751 26.5061 2.44172
714 1 -1.1104 12.4747 22.4903 3.75847
715 1 -1.1104 12.2759 27.7925 3.80883
716 1 -1.1104 9.4463 25.0283 1.22451
717 2 2.2208 7.94853 23.6791 2.45082
718 2 2.2208 8.06395 29.4015 2.49264
719 1 -1.1104 9.35205 25.1411 3.95209
720 2 2.2208 8.07341 26.6265 5.25378
721 1 -1.1104 9.42145 22.3704 1.04303
722 1 -1.1104 9.48725 27.9776 1.02606
723 1 -1.1104 9.56653 22.4869 3.88977
724 1 -1.1104 9.37001 27.9673 3.84755
9915 2 2.2208 13.671 34.9946 2.38949
1251 2 2.2208 7.98697 26.5718 -0.265819
1007 2 2.2208 10.7908 23.7993 -0.36012
859 1 -1.1104 9.56497 27.9506 6.71988
728 2 2.2208 5.23651 34.9669 5.2392
729 1 -1.1104 0.965539 30.748 1.04268
730 1 -1.1104 0.903842 36.434 1.12054
732 1 -1.1104 0.866166 30.7098 3.81887
733 1 -1.1104 0.986542 36.4502 3.82471
735 1 -1.1104 0.849923 33.5631 1.03202
736 2 2.2208 5.03461 32.1886 2.41982
737 2 2.2208 5.08203 37.7505 2.45535
738 1 -1.1104 1.02604 33.4361 3.86693
740 1 -1.1104 3.74958 30.8605 1.09391
741 1 -1.1104 3.65826 36.471 1.00015
742 2 2.2208 2.2837 35.0994 2.56348
743 1 -1.1104 3.66244 30.6174 3.9428
744 1 -1.1104 3.75689 36.3773 3.92841
745 2 2.2208 2.32386 32.0897 5.25073
746 2 2.2208 2.45844 37.728 5.31855
747 1 -1.1104 3.66621 33.8175 0.997994
748 1 -1.1104 3.76276 33.52 3.89198
1282 2 2.2208 5.1171 34.9975 -0.349767
1546 1 -1.1104 1.05295 47.6488 6.65266
750 2 2.2208 -0.374552 32.1369 2.40589
884 1 -1.1104 3.72676 30.8844 6.61348
882 1 -1.1104 0.889471 33.5323 6.73509
9969 2 2.2208 13.653 23.784 13.7675
978 2 2.2208 7.98881 46.223 8.18228
1555 1 -1.1104 6.56432 47.6977 9.48675
753 1 -1.1104 6.60458 30.7583 3.82136
734 1 -1.1104 6.66553 36.3221 3.97892
752 1 -1.1104 6.62162 30.806 0.960394
754 1 -1.1104 6.55344 33.5486 0.955841
739 1 -1.1104 6.47971 33.698 3.82926
731 1 -1.1104 6.55733 36.5125 1.13531
755 2 2.2208 10.6748 35.0297 5.16338
756 1 -1.1104 12.3406 30.8373 1.11139
757 1 -1.1104 12.2697 36.3165 1.11059
758 1 -1.1104 12.3189 30.6654 3.93307
759 1 -1.1104 12.2477 36.3326 3.86559
760 1 -1.1104 12.2257 33.6829 1.07128
761 2 2.2208 10.7825 32.2057 2.37967
762 2 2.2208 10.7682 37.9139 2.4868
763 1 -1.1104 12.198 33.391 3.86583
764 1 -1.1104 9.40014 30.7359 1.2107
765 1 -1.1104 9.41007 36.2927 0.994506
766 2 2.2208 7.93571 35.0474 2.41809
767 1 -1.1104 9.27163 30.7775 3.88713
768 1 -1.1104 9.39864 36.4867 3.76168
769 2 2.2208 8.00526 32.1755 5.20482
770 2 2.2208 7.93979 37.802 5.29332
771 1 -1.1104 9.43197 33.5421 1.00682
772 1 -1.1104 9.34552 33.6381 3.74902
993 1 -1.1104 12.4342 47.3641 6.34451
1398 1 -1.1104 12.1948 47.4384 3.76398
1311 2 2.2208 10.7829 34.9911 -0.235963