ITEM: TIMESTEP
70000
ITEM: NUMBER OF ATOMS
17820
ITEM: BOX BOUNDS pp pp pp
-3.6274432636516857e-01 2.7702744326364456e+01
-4.3250218815928676e+00 3.3240502188159280e+02
-3.6701008571537469e-01 2.7707010085715332e+01
ITEM: ATOMS id type q x y z
1 2 2.2208 5.31095 1.32077 5.23297
2 1 -1.1104 1.14903 -2.93955 1.10715
3 1 -1.1104 1.05516 2.75931 1.1401
6 1 -1.1104 1.00279 -2.79074 3.85789
7 1 -1.1104 1.037 2.79344 3.87555
10 1 -1.1104 0.899309 -0.00277543 1.06663
12 2 2.2208 5.32728 -1.38452 2.52093
13 2 2.2208 5.31119 4.19046 2.52861
14 1 -1.1104 1.08308 -0.00151892 3.81464
16 1 -1.1104 3.82739 -2.94379 1.06767
17 1 -1.1104 3.87268 2.65229 1.0493
18 2 2.2208 2.42999 1.36035 2.50239
19 1 -1.1104 3.89569 -2.91905 3.81456
20 1 -1.1104 3.85911 2.80534 3.93488
21 2 2.2208 2.51639 -1.51899 5.18403
22 2 2.2208 2.45667 4.11801 5.30243
23 1 -1.1104 3.83824 -0.236883 0.969047
24 1 -1.1104 3.88424 0.00557558 3.82257
330 2 2.2208 5.26297 1.37779 -0.329007
9232 2 2.2208 -0.388875 1.26771 5.2553
9233 2 2.2208 -0.485785 4.14465 2.61572
8 1 -1.1104 6.61033 -2.85816 3.69409
566 2 2.2208 2.40135 -1.37087 -0.370489
5 1 -1.1104 6.81919 2.69564 1.14459
15 1 -1.1104 6.78928 -0.0335732 3.87822
9 1 -1.1104 6.61483 2.79286 3.84195
4 1 -1.1104 6.54462 -2.87724 1.07109
172 1 -1.1104 3.99829 -2.78989 6.59129
166 1 -1.1104 1.07035 -3.00181 6.63156
174 1 -1.1104 3.80528 -0.0652018 6.63006
169 1 -1.1104 6.69403 2.73847 6.70428
11 1 -1.1104 6.69017 -0.0146759 0.96655
31 2 2.2208 10.8926 1.42822 5.24539
32 1 -1.1104 12.2291 -2.88513 1.15938
33 1 -1.1104 12.1541 2.90656 1.12198
34 1 -1.1104 12.0885 -2.73907 3.9104
35 1 -1.1104 12.1922 2.89603 3.87702
36 1 -1.1104 12.2551 -0.00252202 1.18159
37 2 2.2208 10.7678 -1.4987 2.57997
39 1 -1.1104 12.2061 -0.0130739 3.9723
40 1 -1.1104 9.48227 -2.86336 1.06361
41 1 -1.1104 9.5431 2.8273 1.05255
42 2 2.2208 8.04585 1.23658 2.42807
43 1 -1.1104 9.30897 -2.97941 3.85683
44 1 -1.1104 9.35184 2.63044 3.88825
45 2 2.2208 8.00537 -1.36854 5.25702
46 2 2.2208 8.0965 4.10816 5.29287
47 1 -1.1104 9.63551 -0.0518627 1.19535
48 1 -1.1104 9.55046 -0.125724 3.92859
38 2 2.2208 10.7844 4.33557 2.59543
595 2 2.2208 10.9778 1.41548 -0.227795
334 2 2.2208 8.16779 -1.45117 -0.417738
338 2 2.2208 8.17252 4.18287 -0.345952
171 1 -1.1104 6.594 -0.0490156 6.65859
9235 2 2.2208 13.5936 -1.44144 5.36093
8942 2 2.2208 13.6236 4.30341 5.30174
53 2 2.2208 10.7586 -4.32883 5.34094
8557 2 2.2208 8.09278 -4.30198 2.37212
54 2 2.2208 5.18183 7.03299 5.29095
55 2 2.2208 5.14489 12.5875 5.21681
56 1 -1.1104 1.19957 8.61069 1.06996
58 1 -1.1104 1.10557 8.31961 3.85217
60 1 -1.1104 1.16599 5.68196 1.007
61 1 -1.1104 0.958468 11.3856 1.07473
66 2 2.2208 5.29308 9.84861 2.36058
67 1 -1.1104 0.884711 5.55826 3.79964
68 1 -1.1104 0.995362 11.2365 3.83404
71 1 -1.1104 3.88858 8.2819 1.0412
72 2 2.2208 2.56942 7.03867 2.44744
73 2 2.2208 2.33397 12.5348 2.49921
74 1 -1.1104 3.98968 8.55426 3.76765
75 2 2.2208 2.41284 9.97302 5.20658
76 1 -1.1104 3.89329 5.43125 1.09753
77 1 -1.1104 3.67167 11.0256 1.04623
79 1 -1.1104 3.73014 5.69807 4.02284
80 1 -1.1104 3.86852 11.3103 3.80196
632 2 2.2208 5.06928 12.5208 -0.44459
83 2 2.2208 -0.484089 12.5492 5.21769
631 2 2.2208 2.43655 9.7176 -0.426726
630 2 2.2208 5.29742 6.79922 -0.457069
59 1 -1.1104 6.60134 8.37555 3.81638
64 1 -1.1104 6.64814 11.2107 1.08072
63 1 -1.1104 6.67482 5.59501 1.00421
70 1 -1.1104 6.65237 11.3393 3.87957
9256 2 2.2208 -0.27969 6.96636 -0.324786
69 1 -1.1104 6.5739 5.66319 3.7079
57 1 -1.1104 6.81151 8.29605 0.875408
84 2 2.2208 10.8741 7.04624 5.3213
85 2 2.2208 10.8283 12.6002 5.30906
86 1 -1.1104 12.3306 8.48569 1.26958
87 1 -1.1104 12.1692 8.23136 3.85704
88 1 -1.1104 12.1867 5.65081 1.11266
89 1 -1.1104 12.1781 11.3142 1.08457
91 2 2.2208 10.7526 9.84918 2.45206
92 1 -1.1104 12.3583 5.60383 3.84388
93 1 -1.1104 12.188 11.0824 3.75312
94 1 -1.1104 9.50691 8.50573 0.859821
95 2 2.2208 8.04081 7.03331 2.4549
96 2 2.2208 7.98377 12.626 2.45445
97 1 -1.1104 9.46175 8.42548 3.80627
98 2 2.2208 7.97551 9.67846 5.2158
99 1 -1.1104 9.45088 5.55912 1.09197
100 1 -1.1104 9.35885 11.2394 1.06795
102 1 -1.1104 9.39903 5.66216 3.90674
103 1 -1.1104 9.41662 11.1687 3.96895
339 2 2.2208 10.8146 7.02546 -0.392226
657 2 2.2208 10.8743 12.6513 -0.343564
101 1 -1.1104 9.32355 11.1944 6.71218
9237 2 2.2208 13.6208 12.7485 2.43222
105 2 2.2208 13.6968 7.00868 2.39873
340 2 2.2208 7.95335 9.7727 -0.4149
333 2 2.2208 -0.356037 18.2183 -0.512839
337 2 2.2208 2.52599 20.9322 -0.359532
106 2 2.2208 5.08766 18.1763 5.23027
107 1 -1.1104 0.938284 14.0292 1.00331
109 1 -1.1104 1.02006 19.5436 1.11516
113 1 -1.1104 0.903704 13.9547 4.00197
114 1 -1.1104 0.907456 19.5021 3.836
116 1 -1.1104 1.21011 16.7452 0.822606
119 2 2.2208 5.08353 15.3686 2.4503
120 2 2.2208 5.37633 20.8999 2.53387
121 1 -1.1104 1.02397 16.7318 3.69361
123 1 -1.1104 3.79686 13.8959 1.02634
125 1 -1.1104 3.79696 19.5039 0.950646
127 2 2.2208 2.51916 18.1048 2.31501
128 1 -1.1104 3.65342 14.0446 3.84658
129 1 -1.1104 3.82246 19.5223 3.81477
130 2 2.2208 2.33186 15.2988 5.27089
131 2 2.2208 2.42227 21.0205 5.22147
132 1 -1.1104 3.83832 16.7165 1.02767
134 1 -1.1104 3.76756 16.7519 3.84701
135 2 2.2208 -0.40536 15.3249 2.39445
115 1 -1.1104 6.50865 14.0394 3.83414
138 1 -1.1104 6.69036 19.7366 1.18735
139 1 -1.1104 6.74022 19.5155 3.99529
118 1 -1.1104 6.53763 16.7977 6.50006
126 1 -1.1104 3.72423 19.6045 6.5677
112 1 -1.1104 6.53701 19.6197 6.79364
9238 2 2.2208 -0.397579 20.9877 2.33396
336 2 2.2208 5.28095 18.1432 -0.355131
122 1 -1.1104 6.55477 16.7678 3.67615
140 1 -1.1104 6.58327 16.8765 1.01847
110 1 -1.1104 6.40006 13.9381 1.0792
141 2 2.2208 10.7919 18.1993 5.37217
142 1 -1.1104 12.0551 14.0024 1.03107
144 1 -1.1104 12.2251 19.6752 0.977665
146 1 -1.1104 12.2951 13.9845 3.817
147 1 -1.1104 12.4116 19.6601 3.79981
148 1 -1.1104 12.1577 16.7925 1.17118
150 2 2.2208 10.7672 15.3484 2.51325
151 2 2.2208 10.8515 20.9864 2.44609
152 1 -1.1104 12.1076 16.74 3.94753
153 1 -1.1104 9.34021 13.8854 1.00982
155 1 -1.1104 9.38503 19.5176 1.20212
157 2 2.2208 8.05623 18.2094 2.54842
158 1 -1.1104 9.36363 14.0379 3.85027
159 1 -1.1104 9.60272 19.5625 4.02073
160 2 2.2208 7.94754 15.3797 5.21836
161 2 2.2208 8.15621 20.9693 5.32756
162 1 -1.1104 9.35787 16.737 1.12971
164 1 -1.1104 9.35549 16.8607 3.96154
165 2 2.2208 13.6483 18.1334 2.43356
149 1 -1.1104 12.1913 16.763 6.59622
575 2 2.2208 10.8056 18.1196 -0.270601
574 2 2.2208 8.04079 15.4334 -0.339112
156 1 -1.1104 9.35457 19.5907 6.7348
163 1 -1.1104 9.21342 16.7577 6.73366
145 1 -1.1104 12.157 19.6122 6.63783
52 2 2.2208 13.6427 21.0025 5.3381
9247 2 2.2208 13.6829 21.0915 -0.45371
173 1 -1.1104 3.89129 2.6594 6.69931
202 2 2.2208 2.38336 -4.33321 8.23614
170 1 -1.1104 0.986748 -0.0471727 6.72945
167 1 -1.1104 1.00556 2.77634 6.54157
175 2 2.2208 5.30623 1.25019 10.8514
176 1 -1.1104 0.895781 -2.90767 12.4091
177 1 -1.1104 1.15605 2.58499 12.3315
180 1 -1.1104 1.02066 -2.90968 9.59597
181 1 -1.1104 1.07048 2.61708 9.44438
184 1 -1.1104 0.970445 -0.177545 12.4131
186 2 2.2208 5.25173 -1.55708 8.14141
188 1 -1.1104 1.01864 -0.155061 9.42063
190 1 -1.1104 3.94022 -2.95878 12.2294
191 1 -1.1104 3.85785 2.79741 12.2867
192 2 2.2208 2.51479 1.32534 7.96048
193 1 -1.1104 3.79837 -2.94904 9.43361
194 1 -1.1104 3.87799 2.46047 9.46516
195 2 2.2208 2.40248 -1.61792 10.9966
196 2 2.2208 2.48377 4.04561 10.9278
197 1 -1.1104 3.94677 -0.0750294 12.3274
198 1 -1.1104 3.70982 -0.249499 9.50754
187 2 2.2208 5.27852 4.12141 8.08216
183 1 -1.1104 6.59694 2.81818 9.46386
185 1 -1.1104 6.8919 -0.064065 12.1181
189 1 -1.1104 6.5597 -0.198563 9.42127
178 1 -1.1104 6.7302 -2.85011 12.3268
8558 2 2.2208 5.25097 -4.38103 10.9317
9241 2 2.2208 -0.375726 -1.48332 7.93801
8645 2 2.2208 2.38299 -4.38574 13.9621
231 2 2.2208 7.95202 -4.39346 8.12636
8559 2 2.2208 13.6657 -4.24612 8.14042
232 2 2.2208 10.8766 -4.33489 10.9958
182 1 -1.1104 6.52186 -3.07213 9.54293
179 1 -1.1104 6.55403 2.81722 12.2668
208 1 -1.1104 9.25055 -3.02522 6.75397
205 1 -1.1104 12.1295 -2.87516 6.66372
210 1 -1.1104 9.51436 -0.175104 6.75995
168 1 -1.1104 6.61751 -2.80776 6.7311
209 1 -1.1104 9.58877 2.78636 6.67031
206 1 -1.1104 12.4926 2.75148 6.70564
207 1 -1.1104 12.2189 0.0376794 6.80071
211 2 2.2208 10.8242 1.23839 11.0436
212 1 -1.1104 12.1355 -2.77499 12.2176
213 1 -1.1104 12.225 2.65659 12.3331
214 1 -1.1104 12.4377 -2.83496 9.34753
215 1 -1.1104 12.2644 2.77127 9.51933
216 1 -1.1104 12.2884 -0.00203439 12.1371
217 2 2.2208 10.9278 -1.54852 8.07582
219 1 -1.1104 12.3249 -0.240046 9.48518
220 1 -1.1104 9.52385 -2.997 12.3714
221 1 -1.1104 9.23149 2.72389 12.3529
222 2 2.2208 8.0574 1.32245 8.15182
223 1 -1.1104 9.47585 -3.12532 9.65229
224 1 -1.1104 9.35072 2.81779 9.40849
225 2 2.2208 8.14651 -1.61669 10.9521
226 2 2.2208 7.90944 4.18229 11.0531
227 1 -1.1104 9.53875 -0.202753 12.2531
228 1 -1.1104 9.2607 -0.0289435 9.65038
218 2 2.2208 10.9571 4.16264 8.09788
9101 2 2.2208 13.7302 1.33639 8.2159
412 2 2.2208 10.9113 -1.55795 13.7445
238 1 -1.1104 3.75494 8.48009 6.68416
236 1 -1.1104 1.1339 5.57264 6.523
235 1 -1.1104 6.58983 8.39225 6.69179
62 1 -1.1104 1.00859 11.0908 6.59863
78 1 -1.1104 3.89973 11.2113 6.68181
239 1 -1.1104 3.87177 5.462 6.78728
234 1 -1.1104 0.975734 8.31625 6.68029
240 2 2.2208 5.173 6.99875 10.794
241 2 2.2208 5.30327 12.5555 10.948
242 1 -1.1104 0.961037 8.17084 12.2615
244 1 -1.1104 1.11184 8.26387 9.55149
246 1 -1.1104 0.970028 5.3758 12.2735
247 1 -1.1104 1.07486 11.1647 12.2637
250 2 2.2208 5.18232 9.86181 8.1352
251 1 -1.1104 0.893149 5.50292 9.42455
252 1 -1.1104 1.08528 11.0161 9.36798
255 1 -1.1104 3.84406 8.38641 12.3527
256 2 2.2208 2.4396 6.89074 7.943
257 2 2.2208 2.36014 12.5073 8.06764
258 1 -1.1104 3.83705 8.39232 9.6236
259 2 2.2208 2.51038 9.72099 10.8605
260 1 -1.1104 3.68459 5.60389 12.2369
261 1 -1.1104 3.86243 11.2442 12.3683
262 1 -1.1104 3.88079 5.42226 9.48604
263 1 -1.1104 3.83333 11.1989 9.62865
254 1 -1.1104 6.68179 11.1633 9.61716
30 2 2.2208 -0.469653 9.69881 8.15747
65 1 -1.1104 6.67055 11.1263 6.68145
237 1 -1.1104 6.7723 5.53499 6.58599
248 1 -1.1104 6.45877 5.61457 12.1039
249 1 -1.1104 6.6931 11.128 12.3364
253 1 -1.1104 6.54729 5.53712 9.48435
243 1 -1.1104 6.59337 8.43502 12.2117
9151 2 2.2208 13.6801 12.3845 8.08432
90 1 -1.1104 12.2945 11.2451 6.41643
267 1 -1.1104 9.48286 8.41535 6.73645
269 1 -1.1104 9.54226 5.83602 6.64768
266 1 -1.1104 12.1664 5.59956 6.61337
245 1 -1.1104 6.80271 8.24221 9.4105
265 1 -1.1104 12.3286 8.33515 6.84185
264 1 -1.1104 9.34274 11.1804 9.36533
268 1 -1.1104 9.36026 5.63337 9.56331
270 1 -1.1104 9.50697 11.1661 12.0729
271 1 -1.1104 9.36914 5.4494 12.3
272 2 2.2208 8.0877 9.74665 10.8517
273 1 -1.1104 9.74839 8.4268 9.48047
274 2 2.2208 7.92328 12.5833 8.06926
275 2 2.2208 8.01228 6.91298 8.09839
276 2 2.2208 10.7161 6.92118 10.9274
277 2 2.2208 10.9758 12.5898 10.8314
278 1 -1.1104 12.0512 8.22008 12.3053
279 1 -1.1104 12.2457 5.43438 12.0255
280 1 -1.1104 12.2087 11.4108 12.3815
281 2 2.2208 10.8267 9.89872 7.9716
282 1 -1.1104 12.2145 5.68186 9.3602
283 1 -1.1104 12.1811 11.2818 9.33292
284 1 -1.1104 9.25817 8.35223 12.2772
323 2 2.2208 10.9658 9.79843 13.5869
288 1 -1.1104 6.461 16.8057 9.42268
124 1 -1.1104 3.78939 13.9333 6.72335
133 1 -1.1104 3.76801 16.7722 6.55688
108 1 -1.1104 1.05985 13.8474 6.75639
301 1 -1.1104 1.02882 19.3696 6.62587
316 2 2.2208 -0.374419 15.4247 13.5855
117 1 -1.1104 0.959657 16.6553 6.64902
8943 2 2.2208 -0.434388 18.2491 10.7246
285 1 -1.1104 3.9126 19.5403 12.0811
286 1 -1.1104 3.90393 14.0036 12.3922
290 1 -1.1104 1.10214 19.5719 9.45446
291 1 -1.1104 0.980429 16.723 9.31524
292 2 2.2208 5.22753 21.0513 8.10925
293 1 -1.1104 1.00851 13.9143 9.46829
294 2 2.2208 5.15494 15.2744 7.97856
297 1 -1.1104 1.06078 19.5895 12.2473
298 1 -1.1104 1.17457 14.0104 12.4446
299 2 2.2208 5.19265 18.0766 10.8976
300 1 -1.1104 3.88571 19.4396 9.34141
302 2 2.2208 2.34159 17.9811 7.92889
303 1 -1.1104 3.66063 16.6214 9.4186
304 1 -1.1104 3.82965 13.8534 9.38841
306 1 -1.1104 1.09109 16.8248 12.0773
307 1 -1.1104 3.79404 16.7651 12.3237
308 2 2.2208 2.49317 20.9319 10.9228
309 2 2.2208 2.43052 15.3707 10.8815
305 1 -1.1104 6.55475 16.9521 12.4578
8934 2 2.2208 -0.528333 15.2908 8.00844
512 2 2.2208 5.28349 20.8834 13.6793
27 2 2.2208 13.5417 18.1886 7.98905
310 1 -1.1104 9.39963 19.5183 12.2073
313 1 -1.1104 9.21069 16.826 9.3235
233 2 2.2208 7.97959 15.4714 10.7701
311 2 2.2208 7.83023 18.1513 7.96256
50 2 2.2208 10.8171 18.1762 10.6403
104 1 -1.1104 12.1547 14.094 9.33864
111 1 -1.1104 6.6629 14.1121 6.66925
82 1 -1.1104 12.189 19.6072 12.1576
143 1 -1.1104 12.1896 13.962 6.62959
137 1 -1.1104 12.1915 16.8519 12.0923
287 1 -1.1104 6.55079 19.616 9.58664
203 1 -1.1104 9.55705 19.5609 9.45261
154 1 -1.1104 9.50103 13.8997 6.69014
136 1 -1.1104 12.3226 19.5351 9.42336
296 1 -1.1104 6.68576 14.0736 12.2102
199 2 2.2208 10.728 15.3656 8.04718
229 1 -1.1104 9.36833 14.1072 12.4247
315 2 2.2208 8.02043 20.8925 10.8551
204 1 -1.1104 12.1496 16.6758 9.33786
314 1 -1.1104 9.39684 16.8185 12.1206
312 1 -1.1104 9.36753 14.0181 9.61298
51 1 -1.1104 12.1211 14.0737 12.306
200 2 2.2208 10.8812 20.9786 8.10368
295 1 -1.1104 6.71335 19.586 12.3453
289 1 -1.1104 6.53154 13.9159 9.44503
341 2 2.2208 5.23905 1.22666 16.3729
342 1 -1.1104 0.969126 -2.99318 17.8975
343 1 -1.1104 1.04235 2.72878 17.9091
346 1 -1.1104 0.977954 -2.92993 15.2358
348 1 -1.1104 0.92559 2.79473 15.2441
354 1 -1.1104 1.05732 -0.0850564 17.9643
356 2 2.2208 5.25157 -1.49697 19.3137
357 2 2.2208 5.35355 3.93236 19.2828
358 1 -1.1104 1.10819 -0.111366 15.2088
362 1 -1.1104 3.90962 -2.81927 18.0048
363 1 -1.1104 3.91555 2.72386 17.9181
364 2 2.2208 2.47008 1.238 19.3308
365 1 -1.1104 3.81749 -2.89056 15.1365
367 1 -1.1104 3.91004 2.67348 15.0751
369 2 2.2208 2.44789 -1.50842 16.5095
370 2 2.2208 2.42716 4.04722 16.6679
371 1 -1.1104 3.72129 0.0442024 17.8622
372 1 -1.1104 3.7081 -0.116029 15.0664
447 2 2.2208 -0.298836 4.12384 13.768
376 2 2.2208 2.43229 -4.16971 19.3051
9331 2 2.2208 -0.320432 4.08393 19.3886
383 2 2.2208 5.13419 4.09354 13.8027
317 2 2.2208 5.17659 -1.56208 13.6966
382 2 2.2208 2.3896 1.36234 13.8264
350 1 -1.1104 6.61666 -2.88278 15.1659
355 1 -1.1104 6.56588 -0.108441 17.9411
345 1 -1.1104 6.68504 2.64933 17.8146
8647 2 2.2208 -0.470399 -4.51003 16.5761
347 1 -1.1104 1.13749 -2.91035 20.7804
349 1 -1.1104 1.05067 2.68522 20.7535
360 1 -1.1104 6.52962 -0.162022 15.0853
413 2 2.2208 10.766 4.06345 13.6994
352 1 -1.1104 6.62187 2.71152 14.9633
344 1 -1.1104 6.76374 -2.93416 17.8838
384 2 2.2208 10.8173 1.26684 16.4925
385 1 -1.1104 12.2472 -3.23222 17.7984
386 1 -1.1104 12.2402 2.79359 17.9199
387 1 -1.1104 12.2709 -2.93001 15.0226
389 1 -1.1104 12.0556 2.82411 15.1136
391 1 -1.1104 12.4685 0.0633018 17.6227
393 1 -1.1104 12.2419 -0.180903 14.9744
394 1 -1.1104 9.52249 2.72005 17.9665
395 2 2.2208 8.2709 1.30034 19.5147
396 1 -1.1104 9.35378 -2.89469 15.44
398 1 -1.1104 9.36185 2.67564 15.1689
400 2 2.2208 7.97708 -1.37591 16.4208
401 2 2.2208 8.00963 4.1678 16.4367
402 1 -1.1104 9.29201 -0.067073 17.7656
403 1 -1.1104 9.36934 -0.268609 14.8852
392 2 2.2208 10.9227 4.10534 19.1766
361 1 -1.1104 6.7254 -0.177936 20.7761
8611 2 2.2208 7.96618 -4.43417 19.3738
409 2 2.2208 13.5953 -1.56422 16.5497
448 2 2.2208 13.5949 1.26523 13.6474
318 2 2.2208 7.96194 1.25324 13.5998
408 2 2.2208 8.01776 -4.23047 13.7435
598 2 2.2208 -0.269166 12.4259 16.5337
414 2 2.2208 5.20165 7.02534 16.3551
415 2 2.2208 5.26583 12.6268 16.586
416 1 -1.1104 1.13839 8.33484 17.8816
418 1 -1.1104 0.974064 8.31336 15.0977
422 1 -1.1104 0.967379 5.48381 18.0742
423 1 -1.1104 1.02953 11.1843 17.8096
426 2 2.2208 5.32431 9.76671 19.3278
427 1 -1.1104 1.07219 5.5105 15.1618
429 1 -1.1104 1.2284 11.1823 15.0128
435 1 -1.1104 3.91586 8.22422 17.8537
436 2 2.2208 2.43995 6.84294 19.3511
437 2 2.2208 2.41118 12.4039 19.206
438 1 -1.1104 3.71304 8.26296 15.0116
440 2 2.2208 2.52099 9.73993 16.3749
441 1 -1.1104 3.86105 5.60083 17.8882
442 1 -1.1104 3.87132 10.9952 17.9037
443 1 -1.1104 3.95276 5.41888 15.047
445 1 -1.1104 3.97747 11.1619 15.1994
320 2 2.2208 5.24263 9.85948 13.7294
417 1 -1.1104 6.70261 8.54775 17.81
407 2 2.2208 -0.365605 9.70699 19.239
321 2 2.2208 2.45397 12.6094 13.6918
319 2 2.2208 2.40943 6.95845 13.5869
433 1 -1.1104 6.75841 11.2458 15.0545
420 1 -1.1104 6.41594 8.4023 15.1167
425 1 -1.1104 6.58673 11.2121 17.7731
439 1 -1.1104 3.81096 8.28552 20.7787
9406 2 2.2208 -0.32835 6.98547 16.4755
431 1 -1.1104 6.61261 5.6003 15.0873
424 1 -1.1104 6.71787 5.42472 17.8285
452 2 2.2208 10.8249 6.83107 16.4327
453 2 2.2208 10.7366 12.464 16.4678
454 1 -1.1104 12.186 8.2855 17.8718
455 1 -1.1104 12.1087 8.35022 15.0243
457 1 -1.1104 12.1807 5.42244 17.7473
458 1 -1.1104 12.1556 11.1332 17.8069
459 2 2.2208 10.7569 9.68957 19.2471
460 1 -1.1104 12.2068 5.54275 14.9811
462 1 -1.1104 12.1861 11.1629 15.1933
464 1 -1.1104 9.43381 8.39561 17.7752
465 2 2.2208 8.03464 6.92363 19.2988
466 2 2.2208 7.99932 12.6297 19.2704
467 1 -1.1104 9.32406 8.30471 15.0541
469 2 2.2208 8.05168 9.81407 16.4107
470 1 -1.1104 9.44886 5.53332 17.8248
471 1 -1.1104 9.23427 11.2241 17.9771
472 1 -1.1104 9.37675 5.53937 14.9635
474 1 -1.1104 9.42538 11.1974 14.9765
411 2 2.2208 13.4648 12.7071 13.6975
476 2 2.2208 7.93133 6.87462 13.6935
322 2 2.2208 8.05305 12.5633 13.512
599 2 2.2208 13.6536 12.4701 19.1269
324 2 2.2208 5.25997 15.5811 13.8115
478 2 2.2208 5.26307 18.1959 16.485
479 1 -1.1104 1.0722 13.9701 17.9898
480 1 -1.1104 0.970411 19.61 17.7388
483 1 -1.1104 0.674025 14.1553 15.286
485 1 -1.1104 1.00377 19.6049 15.0293
491 1 -1.1104 0.945276 16.7189 17.7538
493 2 2.2208 5.2159 15.2849 19.3171
494 2 2.2208 5.08315 21.0083 19.1818
495 1 -1.1104 0.994619 16.9177 14.9182
499 1 -1.1104 3.87291 13.8982 17.9152
500 1 -1.1104 3.92516 19.5976 17.794
501 2 2.2208 2.38242 18.2003 19.1708
502 1 -1.1104 3.65685 13.9347 15.1669
504 1 -1.1104 3.82526 19.4473 15.0252
506 2 2.2208 2.40806 15.4249 16.4688
507 2 2.2208 2.49118 21.0154 16.4675
508 1 -1.1104 3.87921 16.7626 17.6596
509 1 -1.1104 3.84618 16.704 14.9865
489 1 -1.1104 6.68748 19.5986 15.2476
325 2 2.2208 2.35768 18.1532 13.5709
487 1 -1.1104 6.44733 14.009 15.2143
498 1 -1.1104 6.78253 16.9175 20.749
510 1 -1.1104 3.81522 16.8415 20.6718
492 1 -1.1104 6.5389 16.6449 17.8981
482 1 -1.1104 6.47936 19.5155 17.9644
481 1 -1.1104 6.75738 13.9985 17.9219
328 2 2.2208 8.01641 18.2359 13.6456
497 1 -1.1104 6.79622 16.8445 15.249
406 2 2.2208 13.5549 15.3183 16.6008
513 2 2.2208 10.806 18.2627 16.4102
514 1 -1.1104 12.1237 14.0291 17.7923
515 1 -1.1104 12.134 19.4888 17.837
516 1 -1.1104 12.1944 14.0401 15.0775
518 1 -1.1104 12.2833 19.7416 15.0325
520 1 -1.1104 12.209 16.8281 17.8661
521 2 2.2208 10.8204 15.4101 19.1997
522 2 2.2208 10.8163 20.8968 19.2632
523 1 -1.1104 12.615 16.9206 15.13
525 1 -1.1104 9.32417 14.0468 17.8503
526 1 -1.1104 9.43285 19.6862 17.7614
527 2 2.2208 8.09848 18.2838 19.2756
528 1 -1.1104 9.39385 14.0284 15.0752
530 1 -1.1104 9.47868 19.5579 15.0938
532 2 2.2208 8.01465 15.2927 16.4501
533 2 2.2208 7.93095 21.007 16.4149
534 1 -1.1104 9.37536 16.7984 17.8499
535 1 -1.1104 9.53815 16.837 15.0148
327 2 2.2208 10.8163 15.4864 13.5036
326 2 2.2208 10.8614 21.0141 13.6575
368 1 -1.1104 4.00218 2.50992 20.8243
366 1 -1.1104 3.64283 -2.88596 20.8642
373 1 -1.1104 3.79588 -0.12264 20.6339
359 1 -1.1104 1.02907 -0.0931181 20.6905
541 2 2.2208 5.28405 1.26985 22.2612
542 1 -1.1104 1.06457 -2.86912 23.5054
543 1 -1.1104 1.09852 2.54657 23.4437
546 1 -1.1104 1.02792 -2.98862 26.274
547 1 -1.1104 1.0842 2.6467 26.299
550 1 -1.1104 1.02986 -0.175885 23.5603
552 2 2.2208 5.29872 -1.49449 24.9643
554 1 -1.1104 1.06138 -0.141942 26.4187
556 1 -1.1104 3.83937 -2.93993 23.5649
557 1 -1.1104 3.86959 2.63748 23.6345
558 2 2.2208 2.50951 1.30784 24.8982
559 1 -1.1104 3.67699 -2.83651 26.4249
560 1 -1.1104 4.02934 2.72565 26.3945
561 2 2.2208 2.44676 -1.51534 22.2544
562 2 2.2208 2.39035 4.10329 22.0458
563 1 -1.1104 3.82711 -0.131125 23.523
564 1 -1.1104 3.997 -0.0326638 26.2783
553 2 2.2208 5.28101 4.09228 24.9304
545 1 -1.1104 6.72588 2.59575 23.4359
555 1 -1.1104 6.74862 -0.0660532 26.3109
551 1 -1.1104 6.61514 -0.089175 23.6362
572 2 2.2208 2.53046 -4.45576 24.9836
576 2 2.2208 -0.37105 4.14811 24.9424
571 2 2.2208 5.10563 -4.25099 22.1755
331 2 2.2208 2.48162 3.99155 27.7569
351 1 -1.1104 6.45061 -3.0113 20.7325
601 2 2.2208 8.0311 -4.23978 24.88
397 1 -1.1104 9.24963 -2.99176 20.6721
353 1 -1.1104 6.82858 2.5871 20.7079
549 1 -1.1104 6.78269 2.69129 26.3576
399 1 -1.1104 9.6481 2.83252 20.685
404 1 -1.1104 9.44281 0.102916 20.9105
544 1 -1.1104 6.55178 -2.92619 23.505
548 1 -1.1104 6.63772 -2.91784 26.43
390 1 -1.1104 12.3497 2.37019 20.6681
388 1 -1.1104 12.4313 -2.98216 20.9645
577 2 2.2208 10.87 1.40663 22.246
578 1 -1.1104 12.2179 -2.83475 23.7165
579 1 -1.1104 12.2979 2.68024 23.5426
580 1 -1.1104 12.1575 -2.77091 26.5413
581 1 -1.1104 12.2803 2.91808 26.4964
582 1 -1.1104 12.3017 -0.0597513 23.2489
583 2 2.2208 10.8155 -1.58198 24.8923
584 2 2.2208 10.9582 4.14199 24.9405
585 1 -1.1104 12.1853 0.0318029 26.2261
586 1 -1.1104 9.51183 -2.79206 23.4061
587 1 -1.1104 9.56934 2.70495 23.5262
588 2 2.2208 8.0304 1.36628 25.0237
589 1 -1.1104 9.40079 -2.86046 26.2606
590 1 -1.1104 9.52496 2.8742 26.3594
591 2 2.2208 8.06061 -1.50272 22.0597
593 1 -1.1104 9.45553 -0.0660583 23.679
594 1 -1.1104 9.63267 0.00850191 26.3854
592 2 2.2208 8.10754 4.11237 22.0741
9291 2 2.2208 13.6563 -1.53308 22.179
600 2 2.2208 10.7801 -4.10271 22.0258
604 2 2.2208 13.6715 1.27951 24.9271
428 1 -1.1104 0.992638 5.54197 20.7517
444 1 -1.1104 3.78471 5.35819 20.6126
430 1 -1.1104 0.965019 11.0374 20.7236
446 1 -1.1104 3.6506 11.0075 20.7176
419 1 -1.1104 1.10407 8.2389 20.8403
606 2 2.2208 5.28185 6.91483 22.127
607 2 2.2208 5.18471 12.5603 22.2153
608 1 -1.1104 1.2208 8.24196 23.5844
610 1 -1.1104 1.06208 8.26779 26.4518
612 1 -1.1104 0.894189 5.30506 23.4941
613 1 -1.1104 1.11992 11.0792 23.5765
616 2 2.2208 5.2944 9.67285 24.854
617 1 -1.1104 1.12838 5.40359 26.2405
618 1 -1.1104 1.09442 11.1459 26.2686
621 1 -1.1104 3.9035 8.33379 23.5964
622 2 2.2208 2.45697 6.83012 24.9112
623 2 2.2208 2.52031 12.5015 24.8879
624 1 -1.1104 3.97885 8.1814 26.2883
625 2 2.2208 2.40602 9.69133 22.1582
626 1 -1.1104 3.94823 5.58837 23.6185
627 1 -1.1104 3.90174 11.2657 23.4461
628 1 -1.1104 3.84469 5.38353 26.3521
629 1 -1.1104 3.89593 11.0109 26.1865
611 1 -1.1104 6.74755 8.25182 26.1958
614 1 -1.1104 6.88736 5.42013 23.5127
434 1 -1.1104 6.6102 11.2823 20.7645
432 1 -1.1104 6.46642 5.32732 20.7445
615 1 -1.1104 6.41491 11.1475 23.5091
620 1 -1.1104 6.53743 10.9959 26.2282
421 1 -1.1104 6.81278 8.31659 20.7577
609 1 -1.1104 6.77855 8.23102 23.4552
475 1 -1.1104 9.50802 11.2375 20.7439
461 1 -1.1104 12.3126 5.27646 20.5541
463 1 -1.1104 12.3594 10.9774 20.3466
473 1 -1.1104 9.42638 5.66331 20.7281
468 1 -1.1104 9.6056 8.43213 20.5274
456 1 -1.1104 12.3719 8.15593 20.7259
619 1 -1.1104 6.70938 5.59237 26.1761
637 1 -1.1104 9.4682 11.2074 26.2899
638 1 -1.1104 9.4994 5.55817 26.2306
639 1 -1.1104 9.49298 11.2162 23.4721
640 1 -1.1104 9.68312 5.58633 23.5552
641 2 2.2208 8.26653 9.82639 22.0935
642 1 -1.1104 9.5225 8.52111 26.1202
643 2 2.2208 8.10175 12.5213 24.8116
644 2 2.2208 8.11289 7.03531 24.9063
645 2 2.2208 10.9398 6.92733 21.9951
646 2 2.2208 10.9744 12.6368 21.9768
647 1 -1.1104 12.4291 8.47895 23.5865
648 1 -1.1104 12.1607 8.50841 26.5756
649 1 -1.1104 12.4163 5.73076 23.2996
650 1 -1.1104 12.1475 11.1887 23.1887
651 2 2.2208 10.8754 9.83955 24.8003
652 1 -1.1104 12.2255 5.80569 26.3743
653 1 -1.1104 12.3662 11.1877 26.1517
654 1 -1.1104 9.5834 8.35093 23.2558
9475 2 2.2208 13.7114 12.5569 24.7335
668 1 -1.1104 6.56902 19.5265 23.5732
488 1 -1.1104 6.52118 14.0879 20.8538
662 1 -1.1104 6.6551 13.9492 26.473
505 1 -1.1104 3.78276 19.6879 20.6922
484 1 -1.1104 1.00628 14.0468 20.6307
496 1 -1.1104 1.06476 16.8833 20.4614
486 1 -1.1104 1.07199 19.5845 20.6056
503 1 -1.1104 3.73847 13.8695 20.7789
596 2 2.2208 2.48058 15.4303 22.1012
597 2 2.2208 2.33022 21.0471 22.0226
655 1 -1.1104 3.87368 16.6087 23.4328
656 1 -1.1104 1.02378 16.8894 23.4188
661 1 -1.1104 3.73281 19.4285 23.4339
663 1 -1.1104 3.7969 13.9616 23.4687
665 1 -1.1104 1.07985 19.493 26.4634
666 1 -1.1104 1.0672 16.8771 26.0979
667 1 -1.1104 1.09806 13.8458 26.2087
669 2 2.2208 5.24952 21.0208 25.0074
670 2 2.2208 5.22288 15.3918 24.9161
672 1 -1.1104 0.956484 19.7802 23.5725
673 1 -1.1104 1.02499 13.9356 23.355
674 2 2.2208 5.27862 18.2483 22.137
675 1 -1.1104 3.80281 19.4571 26.0643
676 2 2.2208 2.3878 18.2539 24.8936
677 1 -1.1104 3.87078 16.7441 26.2663
678 1 -1.1104 3.81672 13.7575 26.3184
679 1 -1.1104 6.61011 16.6604 23.547
671 1 -1.1104 6.70112 14.0179 23.6129
9287 2 2.2208 -0.452272 18.1885 22.0632
9329 2 2.2208 -0.259491 15.2694 24.8075
335 2 2.2208 2.38878 15.282 27.6987
537 2 2.2208 8.09281 15.3023 22.1237
451 1 -1.1104 6.57681 19.6896 26.41
664 1 -1.1104 6.67737 16.8176 26.226
567 1 -1.1104 12.303 16.8531 26.4236
477 1 -1.1104 9.52671 14.021 26.1599
538 2 2.2208 8.00307 21.0481 22.1976
450 2 2.2208 8.11295 18.136 24.8262
565 1 -1.1104 9.51069 13.9654 23.4281
449 1 -1.1104 9.46601 19.7072 23.4405
529 1 -1.1104 9.35958 13.9323 20.6492
536 1 -1.1104 9.45201 16.784 20.7227
517 1 -1.1104 12.3018 13.9173 20.5341
660 2 2.2208 10.8735 15.4168 24.7975
658 1 -1.1104 12.3604 19.4075 26.155
636 1 -1.1104 12.3508 13.925 26.1837
490 1 -1.1104 6.58998 19.855 20.6698
635 1 -1.1104 12.2379 19.5371 23.3727
568 2 2.2208 10.8239 20.9762 25.0002
633 2 2.2208 10.7336 18.1514 21.9916
519 1 -1.1104 12.2203 19.6784 20.7856
524 1 -1.1104 12.2555 16.8903 20.5728
531 1 -1.1104 9.3512 19.528 20.6173
511 1 -1.1104 9.45161 19.4477 26.3803
634 1 -1.1104 12.2207 13.9566 23.3325
659 1 -1.1104 12.4251 16.6357 23.3537
539 1 -1.1104 9.47861 16.7736 23.4354
540 1 -1.1104 9.58218 16.6824 26.3052
9368 2 2.2208 13.6678 15.343 21.9138
603 2 2.2208 8.05345 20.9926 27.6451
680 2 2.2208 5.29769 23.794 5.34821
681 2 2.2208 5.24593 29.3383 5.16688
682 1 -1.1104 1.22489 25.2308 0.95137
683 1 -1.1104 1.08105 25.0343 3.85353
684 1 -1.1104 1.06148 22.3998 0.973745
685 1 -1.1104 1.12127 27.9935 0.758083
686 2 2.2208 5.21179 26.6557 2.27237
687 1 -1.1104 1.10736 22.2985 3.86055
688 1 -1.1104 1.1458 27.9335 3.72232
689 1 -1.1104 3.9877 25.2102 1.00521
690 2 2.2208 2.49257 23.7899 2.39667
691 2 2.2208 2.5484 29.4375 2.31044
692 1 -1.1104 3.80904 25.2807 3.79533
693 2 2.2208 2.50793 26.5748 5.21433
694 1 -1.1104 3.91826 22.4198 1.20097
695 1 -1.1104 3.90644 28.0716 0.820875
696 1 -1.1104 3.9654 22.2632 4.02477
697 1 -1.1104 3.94459 28.0439 3.6525
701 1 -1.1104 6.76028 25.2608 0.931002
703 1 -1.1104 6.76676 22.4555 0.973573
698 2 2.2208 -0.356396 29.4591 5.14427
821 1 -1.1104 0.978448 25.2031 6.68391
705 1 -1.1104 6.68778 22.2063 4.09274
706 1 -1.1104 6.62725 27.8927 3.7285
823 1 -1.1104 1.09144 22.2485 6.61525
824 1 -1.1104 1.1444 28.0172 6.6514
825 1 -1.1104 6.74193 22.3696 6.83677
702 1 -1.1104 6.66444 25.1397 3.91946
704 1 -1.1104 6.66867 28.0301 0.990569
707 2 2.2208 11.0069 23.6646 5.27078
708 2 2.2208 10.9889 29.4065 5.32586
709 1 -1.1104 12.2913 25.0279 1.09966
710 1 -1.1104 12.4951 25.2359 3.85873
711 1 -1.1104 12.2971 22.345 1.03321
712 1 -1.1104 12.2729 27.8889 1.02008
713 2 2.2208 10.9108 26.6233 2.43386
714 1 -1.1104 12.3606 22.3426 3.83439
715 1 -1.1104 12.4307 28.0395 3.93162
716 1 -1.1104 9.45002 25.1438 1.1175
717 2 2.2208 8.0861 23.8718 2.49965
718 2 2.2208 8.04955 29.2958 2.42437
719 1 -1.1104 9.3954 25.1387 3.81972
720 2 2.2208 8.13955 26.4467 5.31851
721 1 -1.1104 9.59091 22.3116 1.04854
722 1 -1.1104 9.44867 27.9047 0.979573
723 1 -1.1104 9.54504 22.3427 3.83964
724 1 -1.1104 9.61069 27.906 3.82031
1256 2 2.2208 10.9847 29.3993 -0.310151
1251 2 2.2208 8.22978 26.567 -0.514808
855 1 -1.1104 12.4092 22.3025 6.55777
9929 2 2.2208 13.7591 26.5258 -0.290012
9913 2 2.2208 13.739 23.7621 2.34851
856 1 -1.1104 12.3601 27.9329 6.64494
9914 2 2.2208 -0.328917 35.0239 5.15722
728 2 2.2208 5.43689 35.0035 5.20224
729 1 -1.1104 1.16913 30.9069 0.841104
730 1 -1.1104 1.20045 36.4234 0.907748
732 1 -1.1104 1.06991 30.7149 3.65346
733 1 -1.1104 1.04059 36.5316 3.76986
735 1 -1.1104 1.17478 33.7152 1.03538
736 2 2.2208 5.29838 32.1625 2.40483
737 2 2.2208 5.37396 37.7713 2.36307
738 1 -1.1104 1.04393 33.6358 3.92732
740 1 -1.1104 3.91007 30.8512 1.15564
741 1 -1.1104 3.88075 36.4687 1.2016
742 2 2.2208 2.52576 35.1484 2.4299
743 1 -1.1104 3.87335 30.7439 3.9295
744 1 -1.1104 3.97123 36.5045 3.95086
745 2 2.2208 2.51624 32.2086 5.16197
746 2 2.2208 2.45476 37.9346 5.18858
747 1 -1.1104 3.94803 33.7839 0.971768
748 1 -1.1104 3.88898 33.4654 3.73978
750 2 2.2208 -0.130843 32.2041 2.40193
1281 2 2.2208 2.62144 32.2114 -0.446134
749 2 2.2208 -0.345239 37.837 2.42862
753 1 -1.1104 6.67804 30.5798 3.64063
884 1 -1.1104 3.84179 30.6853 6.75885
878 1 -1.1104 0.958973 30.8795 6.41921
882 1 -1.1104 1.12636 33.6292 6.62647
1282 2 2.2208 5.44167 35.1083 -0.285136
754 1 -1.1104 6.84777 33.7636 0.972388
734 1 -1.1104 6.7427 36.2119 3.84557
752 1 -1.1104 6.78732 30.9604 0.93636
731 1 -1.1104 6.73333 36.4796 1.0053
739 1 -1.1104 6.75654 33.3341 3.88022
1010 2 2.2208 13.7433 32.2747 -0.331603
755 2 2.2208 10.9145 35.1315 5.12738
756 1 -1.1104 12.3039 30.808 0.993401
757 1 -1.1104 12.2787 36.4615 1.04981
758 1 -1.1104 12.4238 30.8067 3.93397
759 1 -1.1104 12.4026 36.4115 3.84473
760 1 -1.1104 12.4378 33.5371 0.976741
761 2 2.2208 10.9785 32.1708 2.42835
762 2 2.2208 11.0083 37.9827 2.39724
763 1 -1.1104 12.3759 33.565 3.91964
764 1 -1.1104 9.59032 30.6737 1.1332
765 1 -1.1104 9.56477 36.386 0.943395
766 2 2.2208 8.26292 35.0365 2.50493
767 1 -1.1104 9.47291 30.7325 3.80932
768 1 -1.1104 9.40286 36.6064 3.74792
769 2 2.2208 8.20853 32.193 5.26438
770 2 2.2208 8.11997 37.8445 5.11533
771 1 -1.1104 9.74957 33.6193 0.999564
772 1 -1.1104 9.54489 33.7612 3.83169
912 1 -1.1104 12.2685 30.8042 6.68428
917 1 -1.1104 9.64327 33.4471 6.47632
880 1 -1.1104 6.78369 30.9373 6.54682