ITEM: TIMESTEP
10000
ITEM: NUMBER OF ATOMS
17820
ITEM: BOX BOUNDS pp pp pp
-3.5169810018966391e-01 2.7691698100189548e+01
-4.3633927846343381e+00 3.3244339278463622e+02
-3.6180238538176612e-01 2.7701802385381658e+01
ITEM: ATOMS id type q x y z
1 2 2.2208 5.18638 1.22522 5.37191
2 1 -1.1104 1.16683 -2.83004 0.961703
3 1 -1.1104 1.01519 2.84499 1.00651
5 1 -1.1104 6.95733 2.61215 1.08744
6 1 -1.1104 1.12768 -2.7532 3.68176
7 1 -1.1104 1.20784 2.72272 3.81832
10 1 -1.1104 0.969981 0.0748177 1.0946
12 2 2.2208 5.21076 -1.5966 2.5633
13 2 2.2208 5.38588 4.1556 2.46103
14 1 -1.1104 1.02297 -0.0154612 3.94097
16 1 -1.1104 3.98316 -2.96876 1.10602
17 1 -1.1104 3.94582 2.81689 0.984895
18 2 2.2208 2.43594 1.36015 2.53268
19 1 -1.1104 3.87009 -2.92381 4.00151
20 1 -1.1104 4.04699 2.71179 3.75967
21 2 2.2208 2.41841 -1.47418 5.20075
22 2 2.2208 2.43457 4.17694 5.19544
23 1 -1.1104 3.73904 -0.0845416 1.22292
24 1 -1.1104 3.84152 -0.098657 4.02752
28 2 2.2208 2.55794 -4.34132 2.50143
570 2 2.2208 5.34973 -4.26827 -0.273571
174 1 -1.1104 3.91492 -0.174781 6.76161
331 2 2.2208 2.41974 4.2874 -0.425993
9232 2 2.2208 -0.309641 1.37885 5.21831
25 2 2.2208 -0.406417 -1.52067 2.3281
9233 2 2.2208 -0.391267 4.12943 2.42245
29 2 2.2208 5.16434 -4.34221 5.38649
566 2 2.2208 2.3368 -1.40821 -0.26028
573 2 2.2208 -0.276645 1.30223 -0.490579
330 2 2.2208 5.31081 1.30582 -0.244804
4 1 -1.1104 6.69008 -2.78855 1.0905
8 1 -1.1104 6.52682 -3.04195 3.92567
9 1 -1.1104 6.82519 2.79179 3.8305
11 1 -1.1104 6.62864 -0.0224121 1.17176
15 1 -1.1104 6.57087 -0.263252 3.92908
31 2 2.2208 10.9003 1.34266 5.18174
32 1 -1.1104 12.4201 -3.06453 0.929681
33 1 -1.1104 12.426 2.56832 1.06667
34 1 -1.1104 12.3745 -2.73954 3.63972
35 1 -1.1104 12.4443 2.78466 3.71302
36 1 -1.1104 12.2756 -0.278725 1.04006
37 2 2.2208 10.8953 -1.44581 2.31099
38 2 2.2208 11.0659 4.21296 2.41121
39 1 -1.1104 12.3436 -0.0182466 3.77948
40 1 -1.1104 9.54126 -2.83166 1.02362
41 1 -1.1104 9.60872 2.80718 0.980353
42 2 2.2208 8.11108 1.2968 2.49315
43 1 -1.1104 9.48598 -2.86485 3.87673
44 1 -1.1104 9.69249 2.66037 3.696
45 2 2.2208 7.97644 -1.51203 5.24233
46 2 2.2208 8.07212 4.08243 5.27737
47 1 -1.1104 9.37262 0.0518579 0.957673
48 1 -1.1104 9.36723 -0.1357 3.8201
8561 2 2.2208 10.7895 -4.35888 -0.478321
334 2 2.2208 8.02521 -1.4828 -0.365573
8557 2 2.2208 8.01071 -4.34949 2.46184
9235 2 2.2208 13.6871 -1.4373 5.08601
54 2 2.2208 5.43049 6.89175 5.18484
55 2 2.2208 5.34642 12.5884 5.21089
56 1 -1.1104 1.17429 8.35781 0.959073
58 1 -1.1104 1.08835 8.28485 3.88069
60 1 -1.1104 0.983841 5.58307 0.993232
61 1 -1.1104 1.18196 11.165 1.11187
64 1 -1.1104 6.83374 11.1303 1.0093
65 1 -1.1104 6.85378 11.2262 6.53545
66 2 2.2208 5.36625 9.71573 2.36971
67 1 -1.1104 0.955435 5.55798 3.68163
68 1 -1.1104 1.20085 11.0034 3.82929
70 1 -1.1104 6.78816 11.2566 3.77892
71 1 -1.1104 3.87772 8.44236 0.919263
72 2 2.2208 2.46783 6.97945 2.38743
73 2 2.2208 2.53221 12.5818 2.52678
74 1 -1.1104 3.92281 8.22001 3.78191
75 2 2.2208 2.44961 9.62041 5.19867
76 1 -1.1104 3.90527 5.57739 0.957894
77 1 -1.1104 4.04055 11.2763 0.932288
79 1 -1.1104 3.93594 5.57466 3.94075
80 1 -1.1104 3.98712 11.0343 3.75246
630 2 2.2208 5.24621 6.92586 -0.505227
81 2 2.2208 -0.366872 6.76867 5.18474
631 2 2.2208 2.57568 9.94966 -0.4372
9236 2 2.2208 -0.325712 9.70531 2.37186
59 1 -1.1104 6.79392 8.40079 3.85777
57 1 -1.1104 6.74026 8.18685 0.910179
63 1 -1.1104 6.6262 5.46481 0.965876
69 1 -1.1104 6.7916 5.5537 3.92066
84 2 2.2208 10.894 7.02271 5.27455
85 2 2.2208 10.9121 12.5784 5.24681
86 1 -1.1104 12.1926 8.26712 1.0624
87 1 -1.1104 12.3473 8.25849 3.99735
88 1 -1.1104 12.3354 5.44232 0.958633
89 1 -1.1104 12.41 11.0243 1.05327
90 1 -1.1104 12.2791 10.961 6.58167
91 2 2.2208 10.8764 9.72108 2.46905
92 1 -1.1104 12.2516 5.61884 3.77065
93 1 -1.1104 12.3147 11.086 3.82691
94 1 -1.1104 9.56455 8.3776 0.854596
95 2 2.2208 8.16758 6.82711 2.35843
96 2 2.2208 8.04543 12.6359 2.44596
97 1 -1.1104 9.51171 8.29776 3.6589
98 2 2.2208 8.14019 9.815 5.18161
99 1 -1.1104 9.51217 5.55553 0.925694
100 1 -1.1104 9.56218 11.2908 0.961176
101 1 -1.1104 9.65989 11.1576 6.51775
102 1 -1.1104 9.59489 5.57288 3.78425
103 1 -1.1104 9.43916 11.2097 3.76628
267 1 -1.1104 9.41675 8.36357 6.44439
340 2 2.2208 8.16826 9.72399 -0.343496
339 2 2.2208 10.9835 6.93757 -0.427179
657 2 2.2208 10.9305 12.5663 -0.307339
106 2 2.2208 5.25158 18.1974 5.24649
107 1 -1.1104 0.992551 13.8836 1.10612
109 1 -1.1104 0.989481 19.5375 1.11284
110 1 -1.1104 6.63568 14.0297 0.975164
113 1 -1.1104 1.13744 13.8659 3.89207
114 1 -1.1104 0.967458 19.6388 3.89333
115 1 -1.1104 6.71005 14.1826 3.75128
116 1 -1.1104 1.04543 16.7074 0.985943
117 1 -1.1104 1.00841 16.8982 6.66262
119 2 2.2208 5.27753 15.4014 2.32245
120 2 2.2208 5.20913 20.883 2.49085
121 1 -1.1104 0.954127 16.7488 3.86973
123 1 -1.1104 3.85038 14.0227 0.984595
125 1 -1.1104 3.89331 19.5589 1.07074
127 2 2.2208 2.38339 18.1957 2.50201
128 1 -1.1104 3.90988 13.8828 3.76273
129 1 -1.1104 3.82373 19.3517 3.8123
130 2 2.2208 2.43069 15.4695 5.22377
131 2 2.2208 2.40469 20.775 5.29434
132 1 -1.1104 3.90544 16.8743 1.12681
134 1 -1.1104 3.82294 16.6833 3.8466
139 1 -1.1104 6.64578 19.6612 3.89018
301 1 -1.1104 0.970426 19.5383 6.6804
337 2 2.2208 2.40627 21.0387 -0.383167
140 1 -1.1104 6.75445 16.7201 1.07812
124 1 -1.1104 4.07004 13.93 6.55594
135 2 2.2208 -0.370147 15.2325 2.46429
9238 2 2.2208 -0.385552 20.9542 2.52844
333 2 2.2208 -0.395335 18.0933 -0.366725
165 2 2.2208 13.5994 18.1189 2.45745
122 1 -1.1104 6.49023 16.8654 3.71188
138 1 -1.1104 6.64906 19.5677 1.28837
141 2 2.2208 10.7713 18.157 5.38501
142 1 -1.1104 12.3394 13.8529 1.1208
144 1 -1.1104 12.1032 19.6787 1.05459
146 1 -1.1104 12.3768 13.9066 3.8353
147 1 -1.1104 12.2318 19.4203 3.93358
148 1 -1.1104 12.3107 16.6939 1.08597
150 2 2.2208 10.7888 15.403 2.44619
151 2 2.2208 10.8217 20.915 2.48848
152 1 -1.1104 12.2201 16.8058 3.99428
153 1 -1.1104 9.48366 13.9637 1.01965
154 1 -1.1104 9.4273 13.939 6.5849
155 1 -1.1104 9.3491 19.5883 0.9607
157 2 2.2208 7.98085 18.258 2.52888
158 1 -1.1104 9.57827 14.0303 3.89095
159 1 -1.1104 9.29758 19.6169 3.89997
160 2 2.2208 8.0232 15.3512 5.23463
161 2 2.2208 8.00481 21.0283 5.25805
162 1 -1.1104 9.52537 16.8156 0.973462
164 1 -1.1104 9.33539 16.7758 3.67396
143 1 -1.1104 12.2027 13.9052 6.64819
9247 2 2.2208 13.7233 20.9316 -0.197421
52 2 2.2208 13.6773 20.8904 5.33595
603 2 2.2208 7.90117 20.9424 -0.211172
575 2 2.2208 10.6975 18.2048 -0.407287
332 2 2.2208 13.6589 15.2635 -0.364186
167 1 -1.1104 1.05334 2.77452 6.61625
173 1 -1.1104 3.72435 2.59336 6.50195
8558 2 2.2208 5.44491 -4.42307 10.9408
169 1 -1.1104 6.71484 2.67114 6.55158
202 2 2.2208 2.39176 -4.31623 8.05998
9240 2 2.2208 -0.36869 4.20178 8.07537
166 1 -1.1104 1.09849 -2.94771 6.50576
170 1 -1.1104 0.978157 -0.160788 6.56137
172 1 -1.1104 3.70853 -2.95574 6.70692
175 2 2.2208 5.22839 1.31308 10.8432
176 1 -1.1104 1.1525 -2.82323 12.2309
177 1 -1.1104 0.950315 2.79377 12.1153
180 1 -1.1104 1.22257 -2.79466 9.29073
181 1 -1.1104 1.00314 2.70912 9.38333
184 1 -1.1104 1.21202 -0.0460013 12.1552
186 2 2.2208 5.18227 -1.58308 8.16196
187 2 2.2208 5.1654 4.1359 7.94942
188 1 -1.1104 1.01954 -0.116855 9.33633
190 1 -1.1104 3.74134 -2.90002 12.2643
191 1 -1.1104 3.80907 2.79476 12.2932
192 2 2.2208 2.40299 1.29465 8.02493
193 1 -1.1104 4.04218 -2.90188 9.62736
194 1 -1.1104 3.78981 2.83387 9.37156
195 2 2.2208 2.48911 -1.50572 10.8789
196 2 2.2208 2.46127 4.21062 10.7894
197 1 -1.1104 3.91743 -0.0571872 12.3853
198 1 -1.1104 3.758 -0.035233 9.46695
182 1 -1.1104 6.76567 -2.95581 9.64445
183 1 -1.1104 6.51552 2.86359 9.41288
189 1 -1.1104 6.61464 -0.0866065 9.55726
317 2 2.2208 5.26206 -1.37247 13.6951
230 2 2.2208 13.6765 -1.42317 10.885
171 1 -1.1104 6.55851 -0.140254 6.81325
205 1 -1.1104 12.2016 -2.87237 6.52722
207 1 -1.1104 12.2189 -0.0447737 6.49414
210 1 -1.1104 9.31361 -0.100091 6.5691
231 2 2.2208 8.00507 -4.27333 8.10873
179 1 -1.1104 6.57669 2.73131 12.0531
185 1 -1.1104 6.68282 -0.0737784 12.2413
168 1 -1.1104 6.38731 -2.93606 6.79316
178 1 -1.1104 6.73635 -2.77023 12.5009
206 1 -1.1104 12.2984 2.76982 6.3775
208 1 -1.1104 9.39982 -2.94402 6.65157
209 1 -1.1104 9.52809 2.8337 6.49181
211 2 2.2208 10.9407 1.31652 10.742
212 1 -1.1104 12.3257 -2.87605 12.1925
213 1 -1.1104 12.3302 2.70613 12.1118
214 1 -1.1104 12.3472 -2.71065 9.45292
215 1 -1.1104 12.2121 2.82719 9.383
216 1 -1.1104 12.3636 -0.106216 12.376
217 2 2.2208 10.8737 -1.47931 8.07435
218 2 2.2208 10.9583 4.14579 7.96695
219 1 -1.1104 12.3282 0.114688 9.40058
220 1 -1.1104 9.49879 -2.76878 12.3854
221 1 -1.1104 9.65447 2.78902 12.1971
222 2 2.2208 8.02611 1.3136 7.9891
223 1 -1.1104 9.5344 -2.74227 9.5372
224 1 -1.1104 9.47777 2.76559 9.32121
225 2 2.2208 8.14409 -1.36378 10.8221
226 2 2.2208 8.07093 4.26336 10.7794
227 1 -1.1104 9.51592 -0.0637751 12.0282
228 1 -1.1104 9.49014 -0.0840495 9.2886
318 2 2.2208 8.04593 1.30947 13.4479
9076 2 2.2208 13.6418 4.27126 10.9222
412 2 2.2208 10.8705 -1.50909 13.6645
62 1 -1.1104 1.14379 11.0291 6.50463
234 1 -1.1104 1.173 8.27576 6.6887
30 2 2.2208 -0.152228 9.72435 8.12344
78 1 -1.1104 3.98231 11.1111 6.49432
236 1 -1.1104 1.05821 5.42014 6.63737
238 1 -1.1104 3.88681 8.24927 6.75227
239 1 -1.1104 3.81792 5.59731 6.55289
240 2 2.2208 5.32066 7.03612 10.8066
241 2 2.2208 5.33317 12.5435 10.7985
242 1 -1.1104 0.917789 8.32878 12.1734
243 1 -1.1104 6.61172 8.39676 12.2135
244 1 -1.1104 1.10291 8.35135 9.52438
246 1 -1.1104 1.20598 5.54964 12.2486
247 1 -1.1104 1.08927 11.0851 12.2878
250 2 2.2208 5.34285 9.71855 7.89876
251 1 -1.1104 1.02571 5.6184 9.38086
252 1 -1.1104 1.12211 11.1578 9.34492
253 1 -1.1104 6.68043 5.5827 9.45501
254 1 -1.1104 6.67971 11.1165 9.34918
255 1 -1.1104 3.82956 8.37277 12.1559
256 2 2.2208 2.50883 6.9686 8.00225
257 2 2.2208 2.43236 12.5732 7.98542
258 1 -1.1104 3.97127 8.49668 9.4575
259 2 2.2208 2.40744 9.68609 10.8005
260 1 -1.1104 3.92254 5.4508 12.102
261 1 -1.1104 3.97545 11.1131 12.1662
262 1 -1.1104 3.87807 5.77921 9.34937
263 1 -1.1104 3.92108 11.2027 9.40612
321 2 2.2208 2.6521 12.58 13.6763
320 2 2.2208 5.21882 9.74397 13.4728
266 1 -1.1104 12.5755 5.50613 6.52839
248 1 -1.1104 6.68788 5.53634 12.2776
235 1 -1.1104 6.65026 8.18572 6.57151
237 1 -1.1104 6.71474 5.38197 6.62534
245 1 -1.1104 6.89149 8.34921 9.42628
249 1 -1.1104 6.77966 11.1008 12.0674
264 1 -1.1104 9.45994 11.1124 9.18735
265 1 -1.1104 12.3365 8.37228 6.8309
268 1 -1.1104 9.52399 5.63949 9.3358
269 1 -1.1104 9.68209 5.60278 6.64114
270 1 -1.1104 9.44655 11.2666 12.0286
271 1 -1.1104 9.44613 5.52819 12.0977
272 2 2.2208 8.17771 9.72011 10.6917
273 1 -1.1104 9.84794 8.42693 9.42091
274 2 2.2208 8.16669 12.512 7.99551
275 2 2.2208 8.10813 6.82693 8.05928
276 2 2.2208 10.8963 6.97579 10.8766
277 2 2.2208 10.9721 12.4403 10.8553
278 1 -1.1104 12.092 8.34274 12.239
279 1 -1.1104 12.2432 5.64329 12.2832
280 1 -1.1104 12.265 11.2685 12.4218
281 2 2.2208 10.8007 9.8158 7.87335
282 1 -1.1104 12.3713 5.69862 9.40881
283 1 -1.1104 12.1952 11.0905 9.46202
284 1 -1.1104 9.35897 8.32607 12.1941
323 2 2.2208 10.9584 9.80972 13.6004
322 2 2.2208 8.04829 12.4679 13.4545
411 2 2.2208 13.6065 12.6203 13.6747
111 1 -1.1104 6.79338 13.9766 6.70852
126 1 -1.1104 3.85473 19.4239 6.51927
133 1 -1.1104 3.77401 16.6618 6.6422
288 1 -1.1104 6.65839 16.8966 9.39764
8969 2 2.2208 -0.383002 21.0828 8.05593
108 1 -1.1104 1.08222 14.0625 6.6826
285 1 -1.1104 3.88927 19.652 12.2592
286 1 -1.1104 3.96183 13.9116 12.2038
287 1 -1.1104 6.58635 19.662 9.45589
290 1 -1.1104 0.982397 19.5026 9.44892
291 1 -1.1104 0.997219 16.7317 9.51499
292 2 2.2208 5.33549 21.0675 8.01674
293 1 -1.1104 1.21679 13.8885 9.56151
294 2 2.2208 5.31373 15.2466 8.05082
295 1 -1.1104 6.71136 19.5139 12.345
297 1 -1.1104 1.08258 19.6037 12.2196
298 1 -1.1104 1.25945 13.9256 12.4058
299 2 2.2208 5.3654 18.3124 10.8493
300 1 -1.1104 3.91821 19.7645 9.51537
302 2 2.2208 2.47804 18.135 8.06016
303 1 -1.1104 3.92901 16.9829 9.54169
304 1 -1.1104 3.96986 14.1063 9.29612
306 1 -1.1104 1.20621 16.8599 12.1745
307 1 -1.1104 3.94041 16.6658 12.2309
308 2 2.2208 2.44094 21.0806 10.8716
309 2 2.2208 2.53718 15.3559 10.9722
316 2 2.2208 -0.224273 15.4822 13.6674
324 2 2.2208 5.38329 15.242 13.5442
325 2 2.2208 2.64189 18.1768 13.6432
305 1 -1.1104 6.75813 16.8449 12.2022
328 2 2.2208 8.20683 18.1133 13.6982
315 2 2.2208 8.08947 21.0764 10.8947
112 1 -1.1104 6.53553 19.6631 6.60236
118 1 -1.1104 6.59242 16.708 6.68244
233 2 2.2208 8.14168 15.4118 10.7778
314 1 -1.1104 9.53583 16.8375 12.2283
229 1 -1.1104 9.46367 14.2576 12.2146
313 1 -1.1104 9.56201 16.8586 9.32284
145 1 -1.1104 12.3057 19.4018 6.54715
156 1 -1.1104 9.44089 19.6501 6.78437
312 1 -1.1104 9.48048 13.8965 9.43788
311 2 2.2208 7.93109 18.2008 8.06225
296 1 -1.1104 6.71241 13.9131 12.1372
204 1 -1.1104 12.3163 16.7946 9.47855
203 1 -1.1104 9.44367 19.7012 9.42307
289 1 -1.1104 6.7792 13.9507 9.45135
310 1 -1.1104 9.48943 19.6706 12.1688
50 2 2.2208 10.9081 18.3684 10.8892
51 1 -1.1104 12.1755 14.0248 12.1695
82 1 -1.1104 12.3933 19.5666 12.2183
104 1 -1.1104 12.3978 13.9517 9.35591
136 1 -1.1104 12.3412 19.6111 9.41762
137 1 -1.1104 12.5019 16.7984 12.2836
149 1 -1.1104 12.2591 16.6855 6.74778
163 1 -1.1104 9.33253 16.6349 6.56652
199 2 2.2208 10.8228 15.2658 8.12529
200 2 2.2208 10.8842 21.1152 8.11294
329 2 2.2208 13.7119 18.2671 13.6204
26 2 2.2208 13.6238 15.4505 10.7563
341 2 2.2208 5.22918 1.31767 16.5512
342 1 -1.1104 1.19299 -2.97483 17.7464
343 1 -1.1104 1.12813 2.59786 17.7371
346 1 -1.1104 1.07734 -2.86366 15.0118
347 1 -1.1104 1.27173 -2.91934 20.5787
348 1 -1.1104 1.15319 2.67792 14.9634
349 1 -1.1104 0.998375 2.7844 20.6672
351 1 -1.1104 6.54906 -3.02596 20.6074
354 1 -1.1104 1.07674 -0.24183 17.767
356 2 2.2208 5.33313 -1.56286 19.1709
357 2 2.2208 5.35422 4.03142 19.2591
358 1 -1.1104 1.06521 -0.171101 14.9353
362 1 -1.1104 4.07326 -3.08654 17.9503
363 1 -1.1104 3.82216 2.58802 17.9247
364 2 2.2208 2.44781 1.27158 19.3483
365 1 -1.1104 4.02758 -2.74423 15.1209
367 1 -1.1104 3.86126 2.68721 15.1047
369 2 2.2208 2.54436 -1.50179 16.4762
370 2 2.2208 2.52867 3.99491 16.4991
371 1 -1.1104 3.91289 -0.180973 17.7572
372 1 -1.1104 3.79796 -0.0791482 15.0999
378 2 2.2208 -0.196283 -1.56061 19.2157
379 2 2.2208 -0.174971 -1.39509 13.5769
375 2 2.2208 5.44523 -4.37843 16.3762
376 2 2.2208 2.51476 -4.48455 19.2214
8647 2 2.2208 -0.287234 -4.21916 16.427
8645 2 2.2208 2.47446 -4.31357 13.6068
447 2 2.2208 -0.278079 4.09023 13.6762
383 2 2.2208 5.31893 4.11059 13.511
382 2 2.2208 2.47974 1.3576 13.6827
350 1 -1.1104 6.72244 -2.90941 15.1616
352 1 -1.1104 6.67168 2.77495 14.9361
355 1 -1.1104 6.56279 -0.0429802 17.9163
360 1 -1.1104 6.6198 0.0586284 15.0005
344 1 -1.1104 7.09278 -2.93226 17.8975
345 1 -1.1104 6.7373 2.64861 17.8228
384 2 2.2208 10.9052 1.36077 16.4206
385 1 -1.1104 12.3467 -3.18466 17.8057
386 1 -1.1104 12.2906 2.8264 17.8175
387 1 -1.1104 12.3434 -2.8803 14.8657
389 1 -1.1104 12.2839 2.7692 14.9983
391 1 -1.1104 12.3164 0.0112407 17.7244
392 2 2.2208 11.0504 4.1603 19.2545
393 1 -1.1104 12.1808 0.036852 15.003
394 1 -1.1104 9.5924 2.92271 17.7673
395 2 2.2208 8.16351 1.34278 19.2259
396 1 -1.1104 9.4548 -2.95861 15.5153
398 1 -1.1104 9.46601 2.73624 14.9095
400 2 2.2208 8.05855 -1.29706 16.3544
401 2 2.2208 8.13862 4.07261 16.3673
402 1 -1.1104 9.30552 0.0747069 17.6396
403 1 -1.1104 9.30536 -0.149353 14.7423
413 2 2.2208 10.9081 4.10783 13.5869
390 1 -1.1104 12.2316 2.46991 20.5263
448 2 2.2208 13.8057 1.35946 13.7197
414 2 2.2208 5.24396 6.79729 16.5054
415 2 2.2208 5.25171 12.5074 16.3858
416 1 -1.1104 0.964705 8.28943 17.9369
418 1 -1.1104 0.986121 8.25189 14.9234
422 1 -1.1104 1.1297 5.47689 17.9047
423 1 -1.1104 1.14751 11.0417 17.8254
426 2 2.2208 5.39104 9.59968 19.227
427 1 -1.1104 0.921249 5.50937 15.0066
429 1 -1.1104 1.19776 11.0892 14.9942
435 1 -1.1104 3.89064 8.1958 17.9265
436 2 2.2208 2.61632 6.91063 19.2262
437 2 2.2208 2.42244 12.6316 19.2915
438 1 -1.1104 3.73215 8.34695 14.9308
440 2 2.2208 2.49933 9.63518 16.3697
441 1 -1.1104 3.97804 5.4168 17.9023
442 1 -1.1104 3.90876 11.0805 17.803
443 1 -1.1104 3.7428 5.51917 15.0254
445 1 -1.1104 3.95451 11.2709 15.0456
598 2 2.2208 -0.285149 12.3865 16.5353
425 1 -1.1104 6.70886 11.2423 17.8619
407 2 2.2208 -0.264841 9.75715 19.315
446 1 -1.1104 3.82241 11.1182 20.6796
9406 2 2.2208 -0.433017 6.90754 16.4545
9403 2 2.2208 -0.441858 9.69034 13.6224
319 2 2.2208 2.42977 6.94619 13.5902
420 1 -1.1104 6.5543 8.27435 14.9621
431 1 -1.1104 6.44018 5.51266 15.0621
417 1 -1.1104 6.76512 8.36389 17.7351
424 1 -1.1104 6.64821 5.5609 17.7922
433 1 -1.1104 6.66053 11.0744 14.9799
452 2 2.2208 10.9017 6.99368 16.4462
453 2 2.2208 10.8103 12.4748 16.4228
454 1 -1.1104 12.3659 8.31084 17.8603
455 1 -1.1104 12.1733 8.31132 15.0714
457 1 -1.1104 12.3535 5.61985 17.898
458 1 -1.1104 12.4689 11.1958 17.9256
459 2 2.2208 10.9653 9.82104 19.1385
460 1 -1.1104 12.1841 5.53884 15.0472
462 1 -1.1104 12.352 10.9289 15.1912
464 1 -1.1104 9.53613 8.41113 17.6875
465 2 2.2208 8.09036 7.04831 19.1362
466 2 2.2208 8.08741 12.5383 19.3014
467 1 -1.1104 9.39666 8.3915 14.9948
469 2 2.2208 7.98983 9.72775 16.3478
470 1 -1.1104 9.53049 5.61934 17.8026
471 1 -1.1104 9.59116 11.2206 17.8858
472 1 -1.1104 9.44661 5.67309 14.9515
474 1 -1.1104 9.4472 11.1738 14.8821
434 1 -1.1104 6.73924 11.2252 20.6714
463 1 -1.1104 12.3179 11.3427 20.6675
475 1 -1.1104 9.60871 11.1436 20.7059
476 2 2.2208 7.98437 7.00892 13.6649
478 2 2.2208 5.22605 18.1674 16.4405
479 1 -1.1104 1.07435 13.9075 17.9447
480 1 -1.1104 1.0181 19.4889 17.9267
483 1 -1.1104 0.765401 14.069 15.1144
485 1 -1.1104 1.20055 19.5671 15.0453
487 1 -1.1104 6.66465 13.8001 15.006
491 1 -1.1104 1.01848 16.8593 17.8835
492 1 -1.1104 6.59966 16.7404 17.8276
493 2 2.2208 5.18569 15.3442 19.3266
494 2 2.2208 5.22883 20.9376 19.3659
495 1 -1.1104 1.13327 16.7923 15.0434
498 1 -1.1104 6.73187 16.6727 20.5859
499 1 -1.1104 3.89601 13.9485 17.8968
500 1 -1.1104 3.68359 19.678 17.9672
501 2 2.2208 2.44939 18.1882 19.2939
502 1 -1.1104 3.84421 14.11 15.1121
504 1 -1.1104 3.88477 19.6477 15.1331
506 2 2.2208 2.5298 15.5304 16.5715
507 2 2.2208 2.33789 20.972 16.5037
508 1 -1.1104 3.74446 16.9212 17.9182
509 1 -1.1104 3.84805 16.9109 15.1321
512 2 2.2208 5.36493 20.8838 13.7221
9472 2 2.2208 -0.33644 20.964 13.6943
9470 2 2.2208 -0.237991 18.1948 16.4424
9468 2 2.2208 -0.333735 20.879 19.4255
9469 2 2.2208 -0.366398 15.4662 19.2931
481 1 -1.1104 6.5754 13.9952 17.9953
482 1 -1.1104 6.48724 19.4638 17.9543
489 1 -1.1104 6.79203 19.4946 15.1781
497 1 -1.1104 6.65355 16.7222 15.0292
513 2 2.2208 10.9131 18.0515 16.5196
514 1 -1.1104 12.0757 13.7843 17.8218
515 1 -1.1104 12.1662 19.4763 17.85
516 1 -1.1104 12.1772 13.8304 15.1309
518 1 -1.1104 12.2589 19.3744 15.091
520 1 -1.1104 12.1595 16.6028 17.8967
521 2 2.2208 10.8219 15.2965 19.2538
522 2 2.2208 10.8912 20.8681 19.3547
523 1 -1.1104 12.7568 16.7594 15.1353
524 1 -1.1104 12.4824 16.7883 20.5762
525 1 -1.1104 9.42994 13.8747 17.8055
526 1 -1.1104 9.38198 19.4923 17.8857
527 2 2.2208 8.00529 18.0713 19.2175
528 1 -1.1104 9.37466 14.0018 14.9369
530 1 -1.1104 9.51569 19.6779 15.0551
532 2 2.2208 7.93223 15.1991 16.542
533 2 2.2208 8.14745 20.9167 16.5463
534 1 -1.1104 9.37046 16.738 17.7527
535 1 -1.1104 9.65615 16.7765 15.022
327 2 2.2208 10.9826 15.4271 13.6326
536 1 -1.1104 9.52985 16.6761 20.6041
406 2 2.2208 13.5135 15.2583 16.7796
9431 2 2.2208 13.6408 20.8009 16.4089
326 2 2.2208 10.993 20.943 13.675
361 1 -1.1104 6.76837 -0.0367618 20.7691
366 1 -1.1104 3.92396 -3.2287 20.7966
368 1 -1.1104 3.80991 2.56207 20.7827
17572 2 2.2208 -0.218288 -4.30769 22.1475
571 2 2.2208 5.3495 -4.31279 22.1546
359 1 -1.1104 1.13034 -0.167726 20.6257
373 1 -1.1104 3.78958 -0.1933 20.6447
541 2 2.2208 5.32251 1.22527 22.0637
542 1 -1.1104 1.03404 -2.87585 23.3644
543 1 -1.1104 1.13441 2.66465 23.5223
546 1 -1.1104 0.943935 -2.91871 26.4066
547 1 -1.1104 1.13962 2.7212 26.2575
550 1 -1.1104 1.08045 -0.0766408 23.5142
552 2 2.2208 5.23316 -1.52214 24.9152
553 2 2.2208 5.21973 4.20655 24.9114
554 1 -1.1104 1.04274 -0.240759 26.2457
556 1 -1.1104 3.81041 -2.83001 23.7705
557 1 -1.1104 3.83281 2.65344 23.4269
558 2 2.2208 2.54121 1.29533 24.9286
559 1 -1.1104 3.80235 -2.89375 26.559
560 1 -1.1104 3.99461 2.83997 26.3184
561 2 2.2208 2.44173 -1.59786 22.0308
562 2 2.2208 2.47192 4.05854 22.1229
563 1 -1.1104 3.87318 -0.226399 23.4078
564 1 -1.1104 3.82611 -0.000272706 26.36
9333 2 2.2208 -0.320524 -1.53875 24.8796
9292 2 2.2208 -0.22157 1.30041 22.0442
576 2 2.2208 -0.406546 4.14398 24.7824
353 1 -1.1104 6.83183 2.70117 20.6935
601 2 2.2208 8.03962 -4.27971 24.872
545 1 -1.1104 6.60434 2.70229 23.5484
549 1 -1.1104 6.74778 2.6215 26.4026
555 1 -1.1104 6.60519 -0.0304214 26.3074
338 2 2.2208 8.14549 4.24245 27.5796
374 2 2.2208 13.8044 4.06429 22.0418
388 1 -1.1104 12.4333 -2.96007 20.9329
397 1 -1.1104 9.21843 -2.99131 20.8022
399 1 -1.1104 9.5537 2.88943 20.6419
404 1 -1.1104 9.56565 0.0952302 20.7903
544 1 -1.1104 6.65701 -3.06186 23.407
548 1 -1.1104 6.74532 -2.80471 26.333
551 1 -1.1104 6.67269 -0.175615 23.5635
577 2 2.2208 10.9079 1.45181 22.0433
578 1 -1.1104 12.2215 -3.01328 23.643
579 1 -1.1104 12.3492 2.6824 23.3985
580 1 -1.1104 12.1057 -2.73941 26.3372
581 1 -1.1104 12.2604 2.75474 26.3325
582 1 -1.1104 12.3454 -0.183662 23.1179
583 2 2.2208 10.826 -1.48711 24.881
584 2 2.2208 10.9196 4.23105 24.9065
585 1 -1.1104 12.3052 0.0641249 26.074
586 1 -1.1104 9.32301 -2.88048 23.5454
587 1 -1.1104 9.50001 2.9113 23.3532
588 2 2.2208 8.09402 1.28773 24.8706
589 1 -1.1104 9.48671 -2.87076 26.2845
590 1 -1.1104 9.57001 2.80618 26.1704
591 2 2.2208 8.08309 -1.53986 22.0365
592 2 2.2208 8.15843 4.17538 22.0022
593 1 -1.1104 9.5776 -0.00554382 23.5418
594 1 -1.1104 9.48667 0.0118758 26.2723
600 2 2.2208 10.789 -4.25223 22.0748
595 2 2.2208 10.7911 1.48916 27.6578
432 1 -1.1104 6.76606 5.40852 20.5121
439 1 -1.1104 3.94572 8.22126 20.6401
444 1 -1.1104 3.89994 5.38892 20.5908
9363 2 2.2208 -0.209461 9.78667 24.7968
9505 2 2.2208 -0.321525 12.6 22.1025
419 1 -1.1104 1.21365 8.5213 20.72
428 1 -1.1104 1.24706 5.67647 20.6359
430 1 -1.1104 1.04841 11.2715 20.613
606 2 2.2208 5.36829 6.8973 22.0125
607 2 2.2208 5.29784 12.5167 22.0509
608 1 -1.1104 1.09502 8.29413 23.4708
610 1 -1.1104 1.20972 8.53837 26.2483
612 1 -1.1104 0.961747 5.31641 23.424
613 1 -1.1104 1.19024 11.1025 23.3552
616 2 2.2208 5.42794 9.62706 24.8747
617 1 -1.1104 1.09199 5.73307 26.184
618 1 -1.1104 1.05843 11.2287 26.2479
620 1 -1.1104 6.80635 11.0964 26.3244
621 1 -1.1104 3.98894 8.29065 23.3546
622 2 2.2208 2.49762 7.01582 24.847
623 2 2.2208 2.65198 12.4918 24.8964
624 1 -1.1104 3.97145 8.27584 26.2296
625 2 2.2208 2.53197 9.74652 22.0782
626 1 -1.1104 3.87848 5.48613 23.4247
627 1 -1.1104 3.94902 11.135 23.4773
628 1 -1.1104 3.84475 5.49485 26.2111
629 1 -1.1104 4.03183 11.0948 26.2313
619 1 -1.1104 6.72426 5.60174 26.2397
9577 2 2.2208 -0.24738 6.98809 21.9812
632 2 2.2208 5.44241 12.5903 27.7216
421 1 -1.1104 6.73905 8.30096 20.5506
473 1 -1.1104 9.65675 5.64351 20.6262
9549 2 2.2208 13.7977 9.70456 22.0595
609 1 -1.1104 6.88435 8.31938 23.345
614 1 -1.1104 6.66964 5.54246 23.3386
456 1 -1.1104 12.3561 8.37901 20.5916
461 1 -1.1104 12.4514 5.4509 20.8119
468 1 -1.1104 9.60696 8.40735 20.5856
611 1 -1.1104 6.75411 8.22652 26.1591
615 1 -1.1104 6.71567 11.1414 23.489
637 1 -1.1104 9.64288 11.2248 26.2448
638 1 -1.1104 9.5311 5.61393 26.1321
639 1 -1.1104 9.48329 11.1112 23.3799
640 1 -1.1104 9.5159 5.69499 23.3769
641 2 2.2208 8.07952 9.80842 22.0079
642 1 -1.1104 9.52445 8.38233 26.2728
643 2 2.2208 8.23687 12.5875 24.9333
644 2 2.2208 8.17564 6.97631 24.822
645 2 2.2208 10.9634 7.03269 22.0158
646 2 2.2208 10.8848 12.4572 22.1371
647 1 -1.1104 12.4219 8.277 23.4294
648 1 -1.1104 12.3975 8.24032 26.2637
649 1 -1.1104 12.3183 5.42813 23.5932
650 1 -1.1104 12.3868 11.0476 23.5278
651 2 2.2208 11.0452 9.70071 24.8523
652 1 -1.1104 12.3578 5.54565 26.1697
653 1 -1.1104 12.4387 11.1073 26.3322
654 1 -1.1104 9.57916 8.35522 23.4772
668 1 -1.1104 6.54252 19.3668 23.6455
484 1 -1.1104 1.04417 14.0687 20.6684
486 1 -1.1104 0.997812 19.5398 20.8893
488 1 -1.1104 6.65918 13.8984 20.8114
496 1 -1.1104 0.956724 16.8773 20.6353
505 1 -1.1104 3.85255 19.6662 20.7068
510 1 -1.1104 3.75772 16.756 20.6255
9329 2 2.2208 -0.365364 15.2657 24.8584
335 2 2.2208 2.44421 15.4315 27.731
503 1 -1.1104 3.80346 14.0609 20.7947
596 2 2.2208 2.51917 15.3383 22.0649
597 2 2.2208 2.41616 20.9206 22.1616
655 1 -1.1104 3.84824 16.7364 23.5319
656 1 -1.1104 0.905619 16.5968 23.5976
661 1 -1.1104 3.80983 19.2997 23.3333
663 1 -1.1104 3.85798 13.8844 23.4215
665 1 -1.1104 1.05777 19.5991 26.3344
666 1 -1.1104 1.06794 16.7898 26.2885
667 1 -1.1104 1.28328 14.0052 26.3522
669 2 2.2208 5.20336 20.875 24.9181
670 2 2.2208 5.29762 15.3733 24.9797
671 1 -1.1104 6.60862 14.037 23.5008
672 1 -1.1104 0.90276 19.4527 23.6025
673 1 -1.1104 1.03615 13.8513 23.5899
674 2 2.2208 5.32155 18.1096 22.0752
675 1 -1.1104 3.6921 19.5639 26.2439
676 2 2.2208 2.36825 18.0331 24.8841
677 1 -1.1104 3.81552 16.7607 26.3294
678 1 -1.1104 3.96402 13.9511 26.4902
679 1 -1.1104 6.7052 16.6825 23.5138
336 2 2.2208 5.12366 18.2646 27.757
664 1 -1.1104 6.58979 16.7484 26.3411
660 2 2.2208 10.9124 15.3444 24.8599
659 1 -1.1104 12.2982 16.8262 23.3682
658 1 -1.1104 12.2352 19.5078 26.2147
636 1 -1.1104 12.2518 14.0842 26.3003
635 1 -1.1104 12.1156 19.5353 23.4195
634 1 -1.1104 12.4776 13.8341 23.5179
633 2 2.2208 10.9565 18.0444 22.043
490 1 -1.1104 6.58848 19.4366 20.8152
568 2 2.2208 10.918 20.8215 24.9373
519 1 -1.1104 12.4224 19.5917 20.5427
531 1 -1.1104 9.50639 19.4593 20.7247
567 1 -1.1104 12.2836 16.856 26.3055
565 1 -1.1104 9.5675 13.882 23.4101
540 1 -1.1104 9.43037 16.7677 26.2034
539 1 -1.1104 9.49107 16.5958 23.5494
410 2 2.2208 13.6382 18.0921 24.9093
538 2 2.2208 8.04001 20.9031 22.2619
662 1 -1.1104 6.80195 14.0095 26.2152
449 1 -1.1104 9.47958 19.3 23.3954
450 2 2.2208 8.09129 18.0263 24.7889
451 1 -1.1104 6.534 19.45 26.4038
477 1 -1.1104 9.66158 14.0066 26.2627
511 1 -1.1104 9.39227 19.5682 26.3116
517 1 -1.1104 12.2733 14.0808 20.7532
529 1 -1.1104 9.47636 13.8117 20.607
537 2 2.2208 8.04025 15.3054 22.0861
569 2 2.2208 13.6136 20.8738 22.2053
574 2 2.2208 8.15271 15.4581 27.668
680 2 2.2208 5.20043 23.6727 5.38804
681 2 2.2208 5.20954 29.3222 5.4213
682 1 -1.1104 1.04049 25.3138 1.17418
683 1 -1.1104 0.973267 25.2735 3.89191
684 1 -1.1104 1.06352 22.4654 1.08647
685 1 -1.1104 0.898098 27.9957 1.08271
686 2 2.2208 5.14401 26.5017 2.65467
687 1 -1.1104 1.01658 22.4058 3.84854
688 1 -1.1104 1.11484 27.9705 3.81603
689 1 -1.1104 3.74438 25.1634 1.09875
690 2 2.2208 2.48561 23.778 2.60995
691 2 2.2208 2.39575 29.3529 2.48953
692 1 -1.1104 3.7106 25.2306 3.91676
693 2 2.2208 2.41089 26.5236 5.3005
694 1 -1.1104 3.78131 22.3454 1.10045
695 1 -1.1104 3.74106 27.9075 1.27546
696 1 -1.1104 3.73816 22.3238 3.91723
697 1 -1.1104 3.96089 28.0386 3.92048
702 1 -1.1104 6.51752 25.1107 4.18262
705 1 -1.1104 6.54279 22.3779 3.83491
1006 2 2.2208 5.1634 29.434 -0.170558
703 1 -1.1104 6.45594 22.3712 1.10457
704 1 -1.1104 6.54966 27.916 1.20001
706 1 -1.1104 6.74507 27.9858 4.05295
698 2 2.2208 -0.273222 29.3793 5.3507
700 2 2.2208 -0.440278 26.6723 2.48368
821 1 -1.1104 0.971869 25.2057 6.65314
1223 2 2.2208 5.21367 23.8326 -0.281355
9930 2 2.2208 -0.368388 23.8452 -0.250402
699 2 2.2208 -0.358359 23.9194 5.19649
1224 2 2.2208 2.58671 26.6158 -0.291806
1226 2 2.2208 -0.350388 29.3097 -0.289353
726 2 2.2208 13.6819 29.3288 2.58569
701 1 -1.1104 6.65782 25.1358 1.26074
707 2 2.2208 10.8785 23.7278 5.27319
708 2 2.2208 10.8025 29.3302 5.47858
709 1 -1.1104 12.2382 25.2647 1.15131
710 1 -1.1104 12.2591 25.075 3.96079
711 1 -1.1104 12.2685 22.4708 1.0952
712 1 -1.1104 12.1351 28.0578 1.16326
713 2 2.2208 10.8437 26.5818 2.61209
714 1 -1.1104 12.1836 22.3189 3.98099
715 1 -1.1104 12.2833 27.9245 3.85686
716 1 -1.1104 9.39162 25.2362 1.21209
717 2 2.2208 8.08314 23.7912 2.52652
718 2 2.2208 8.0124 29.3818 2.56007
719 1 -1.1104 9.40049 25.0372 4.02531
720 2 2.2208 8.05299 26.5289 5.34437
721 1 -1.1104 9.47728 22.3247 1.07471
722 1 -1.1104 9.34847 27.979 1.05783
723 1 -1.1104 9.46385 22.3565 3.85604
724 1 -1.1104 9.46337 27.9113 4.03365
854 1 -1.1104 12.2674 25.2515 6.63802
1251 2 2.2208 7.96405 26.6328 -0.0834748
1256 2 2.2208 10.8741 29.3744 -0.32787
1007 2 2.2208 10.8918 23.7008 -0.278649
1280 2 2.2208 2.36142 37.7022 -0.182647
9914 2 2.2208 -0.430989 35.0024 5.36932
728 2 2.2208 5.1364 34.8935 5.52974
729 1 -1.1104 1.00029 30.8231 1.23502
730 1 -1.1104 0.835705 36.3858 1.2299
732 1 -1.1104 0.884128 30.8118 3.84682
733 1 -1.1104 0.889995 36.2155 3.87535
735 1 -1.1104 0.954896 33.6269 1.17007
736 2 2.2208 5.1405 32.1739 2.73056
737 2 2.2208 5.12286 37.8643 2.57268
738 1 -1.1104 0.834161 33.5932 3.86171
739 1 -1.1104 6.50203 33.5652 4.04707
740 1 -1.1104 3.85139 30.7902 1.28313
741 1 -1.1104 3.66108 36.3725 1.05784
742 2 2.2208 2.44171 34.8616 2.57318
743 1 -1.1104 3.70637 30.8365 3.97317
744 1 -1.1104 3.75045 36.4412 3.78551
745 2 2.2208 2.22715 32.2254 5.26234
746 2 2.2208 2.36046 37.7057 5.28337
747 1 -1.1104 3.73583 33.4663 1.16537
748 1 -1.1104 3.76205 33.6171 4.02022
750 2 2.2208 -0.446041 32.2083 2.54046
752 1 -1.1104 6.61513 30.7688 1.21277
753 1 -1.1104 6.62207 30.8397 4.04543
885 1 -1.1104 3.86541 36.3648 6.65286
1282 2 2.2208 5.14647 34.9476 -0.218737
731 1 -1.1104 6.55583 36.3951 1.35692
734 1 -1.1104 6.59412 36.3718 4.03801
754 1 -1.1104 6.42131 33.5849 1.24583
755 2 2.2208 10.7521 34.9097 5.26897
756 1 -1.1104 12.1997 30.7845 1.0482
757 1 -1.1104 12.0866 36.2978 1.08761
758 1 -1.1104 12.2551 30.5548 3.97504
759 1 -1.1104 12.2627 36.2871 4.02774
760 1 -1.1104 11.9735 33.5605 1.18877
761 2 2.2208 10.6529 32.081 2.61758
762 2 2.2208 10.8129 37.7173 2.53783
763 1 -1.1104 12.0672 33.4941 4.1299
764 1 -1.1104 9.32693 30.7643 1.17658
765 1 -1.1104 9.30302 36.4048 1.10869
766 2 2.2208 7.77292 34.9371 2.68153
767 1 -1.1104 9.3887 30.66 4.09104