ITEM: TIMESTEP
50000
ITEM: NUMBER OF ATOMS
17820
ITEM: BOX BOUNDS pp pp pp
-3.5895253897004803e-01 2.7698952538969863e+01
-4.3738944637450690e+00 3.3245389446374531e+02
-3.6712792883136403e-01 2.7707127928831255e+01
ITEM: ATOMS id type q x y z
1 2 2.2208 5.35927 1.31872 5.273
2 1 -1.1104 0.797534 -2.96649 0.968885
3 1 -1.1104 1.01352 2.5809 0.978338
6 1 -1.1104 1.1242 -2.93056 3.70309
7 1 -1.1104 1.10036 2.58439 3.89799
10 1 -1.1104 1.04433 -0.159811 0.860977
12 2 2.2208 5.25612 -1.53398 2.30621
13 2 2.2208 5.24962 4.01243 2.40777
14 1 -1.1104 0.814686 -0.155683 3.86704
16 1 -1.1104 3.87465 -3.01003 0.731465
17 1 -1.1104 3.76319 2.61898 1.07796
18 2 2.2208 2.39086 1.10022 2.37748
19 1 -1.1104 3.83158 -2.99667 3.73471
20 1 -1.1104 3.98891 2.67609 3.7555
21 2 2.2208 2.47319 -1.53863 5.26057
22 2 2.2208 2.37608 4.01791 5.2096
23 1 -1.1104 3.71222 -0.31117 1.06795
24 1 -1.1104 3.63176 -0.220991 3.80331
8 1 -1.1104 6.59023 -2.8569 3.72167
11 1 -1.1104 6.69861 -0.163369 1.02082
566 2 2.2208 2.42211 -1.61327 -0.459191
331 2 2.2208 2.3108 4.00569 -0.290109
9197 2 2.2208 13.7535 20.8953 10.9008
26 2 2.2208 13.5895 15.1285 10.9451
8561 2 2.2208 10.8416 -4.3872 -0.326012
170 1 -1.1104 1.0145 -0.0678874 6.51094
25 2 2.2208 -0.388026 -1.50921 2.3328
9 1 -1.1104 6.80233 2.62036 3.80367
5 1 -1.1104 6.60477 2.7629 0.913406
4 1 -1.1104 6.62438 -3.04376 0.893353
15 1 -1.1104 6.63085 -0.161235 3.81232
31 2 2.2208 10.9415 1.14298 5.02456
32 1 -1.1104 12.164 -3.03078 0.848128
33 1 -1.1104 12.2219 2.50798 1.10428
34 1 -1.1104 12.2323 -2.85233 3.75378
35 1 -1.1104 12.2962 2.62018 3.71676
36 1 -1.1104 12.3101 -0.190698 0.861203
37 2 2.2208 10.7471 -1.57715 2.37756
39 1 -1.1104 12.2996 -0.208765 3.6466
40 1 -1.1104 9.40888 -3.07346 0.993344
41 1 -1.1104 9.50239 2.67973 1.0874
42 2 2.2208 8.0772 1.24894 2.25785
43 1 -1.1104 9.46764 -2.98701 3.83005
44 1 -1.1104 9.46357 2.64311 3.81327
45 2 2.2208 8.04112 -1.49331 5.11863
46 2 2.2208 8.17567 4.02909 5.24197
47 1 -1.1104 9.35856 -0.0930327 0.813342
48 1 -1.1104 9.40924 -0.148246 3.7219
338 2 2.2208 8.04719 4.08178 -0.422014
38 2 2.2208 10.8724 4.0514 2.28141
210 1 -1.1104 9.41997 -0.125872 6.48349
233 2 2.2208 8.12984 15.1671 10.8954
657 2 2.2208 10.8522 12.3743 -0.389988
9167 2 2.2208 -0.265835 6.68444 10.829
334 2 2.2208 8.01037 -1.55353 -0.509728
205 1 -1.1104 12.332 -2.98773 6.41631
206 1 -1.1104 12.4134 2.51521 6.57425
54 2 2.2208 5.2805 6.79702 5.12477
55 2 2.2208 5.29098 12.3565 5.27296
56 1 -1.1104 1.03999 8.1845 0.902099
58 1 -1.1104 0.949615 8.39813 3.90747
60 1 -1.1104 1.0773 5.4296 1.21365
61 1 -1.1104 0.986006 11.0454 1.0425
66 2 2.2208 5.32967 9.61436 2.30662
67 1 -1.1104 1.0536 5.47432 3.91362
68 1 -1.1104 0.953444 10.9805 3.80176
71 1 -1.1104 3.86816 8.27132 0.899133
72 2 2.2208 2.51539 6.90438 2.36785
73 2 2.2208 2.39986 12.3293 2.46241
74 1 -1.1104 3.79736 8.34112 3.5192
75 2 2.2208 2.38404 9.59373 5.21621
76 1 -1.1104 3.87348 5.51652 1.09344
77 1 -1.1104 3.90448 10.9701 1.02658
79 1 -1.1104 3.67523 5.50226 3.87378
80 1 -1.1104 3.99314 11.0193 3.78632
64 1 -1.1104 6.56347 11.0108 1.09335
57 1 -1.1104 6.70274 8.18576 1.10136
70 1 -1.1104 6.65274 11.0008 3.84973
59 1 -1.1104 6.69531 8.25111 3.78901
78 1 -1.1104 3.81472 10.9087 6.6564
65 1 -1.1104 6.72044 11.009 6.78923
632 2 2.2208 5.3581 12.3969 -0.338224
311 2 2.2208 8.05042 18.1416 8.15691
631 2 2.2208 2.35355 9.64983 -0.513718
630 2 2.2208 5.38837 6.6961 -0.433984
63 1 -1.1104 6.63173 5.40067 0.929346
69 1 -1.1104 6.66999 5.4087 3.88368
84 2 2.2208 10.9332 6.77968 5.27799
85 2 2.2208 10.7336 12.4575 5.28255
86 1 -1.1104 12.3726 8.30817 0.953345
87 1 -1.1104 12.2405 8.26925 3.9252
88 1 -1.1104 12.322 5.25013 0.973965
89 1 -1.1104 12.379 10.9281 1.2464
91 2 2.2208 10.8323 9.56163 2.50639
92 1 -1.1104 12.3012 5.36521 3.68314
93 1 -1.1104 12.1326 11.0656 3.84677
94 1 -1.1104 9.40858 8.28415 1.12533
95 2 2.2208 8.09142 6.91494 2.52272
96 2 2.2208 8.07698 12.3193 2.36616
97 1 -1.1104 9.41572 8.12037 3.9111
98 2 2.2208 8.0477 9.61413 5.2716
99 1 -1.1104 9.39194 5.53029 1.01997
100 1 -1.1104 9.35535 11.0192 1.00583
102 1 -1.1104 9.59135 5.4268 3.93499
103 1 -1.1104 9.38852 11.0451 3.72859
104 1 -1.1104 12.4099 13.7502 9.46832
267 1 -1.1104 9.54505 8.12804 6.48739
90 1 -1.1104 12.2523 11.0035 6.47986
269 1 -1.1104 9.4673 5.40014 6.72618
340 2 2.2208 8.02964 9.56354 -0.40064
9241 2 2.2208 -0.541738 -1.57184 7.93618
28 2 2.2208 2.37143 -4.3621 2.19932
106 2 2.2208 5.29311 18.0536 5.27859
107 1 -1.1104 1.00945 13.8797 1.09292
109 1 -1.1104 0.93959 19.3455 0.87704
113 1 -1.1104 1.0432 13.8133 3.75164
114 1 -1.1104 0.911811 19.3843 3.70691
116 1 -1.1104 1.01497 16.6002 0.976587
119 2 2.2208 5.29872 15.1639 2.43717
120 2 2.2208 5.35074 20.7658 2.42829
121 1 -1.1104 1.03117 16.6808 3.8785
123 1 -1.1104 3.90499 13.6284 1.08671
125 1 -1.1104 3.93628 19.3581 0.88478
127 2 2.2208 2.41281 17.9319 2.31625
128 1 -1.1104 3.70834 13.78 3.87646
129 1 -1.1104 3.71434 19.5292 3.75092
130 2 2.2208 2.34898 15.218 5.16288
131 2 2.2208 2.42399 20.7454 5.18572
132 1 -1.1104 3.71005 16.5577 0.933456
134 1 -1.1104 3.84417 16.3797 3.89308
126 1 -1.1104 3.95377 19.3511 6.62894
139 1 -1.1104 6.54671 19.4612 3.97831
122 1 -1.1104 6.59482 16.68 3.89385
110 1 -1.1104 6.81565 13.8308 0.923085
138 1 -1.1104 6.66503 19.3369 0.953386
124 1 -1.1104 3.90143 13.7794 6.63986
301 1 -1.1104 1.15491 19.3601 6.53366
112 1 -1.1104 6.82612 19.4172 6.61526
336 2 2.2208 5.16746 18.0024 -0.474659
115 1 -1.1104 6.52585 13.733 3.78443
9039 2 2.2208 13.6716 15.1617 5.38942
140 1 -1.1104 6.65416 16.6656 1.04481
141 2 2.2208 10.9226 18.002 5.26906
142 1 -1.1104 12.2347 13.94 0.797476
144 1 -1.1104 12.2143 19.6105 1.03044
146 1 -1.1104 12.1699 13.7606 3.78715
147 1 -1.1104 12.3832 19.3766 3.79938
148 1 -1.1104 12.2608 16.6554 1.05547
150 2 2.2208 10.8648 15.1506 2.38902
151 2 2.2208 10.9291 20.8814 2.48094
152 1 -1.1104 12.2759 16.4267 3.8733
153 1 -1.1104 9.53252 13.7057 1.04161
155 1 -1.1104 9.44159 19.3514 0.866728
157 2 2.2208 8.05449 18.0968 2.42687
158 1 -1.1104 9.3661 13.9283 3.81251
159 1 -1.1104 9.34184 19.5288 3.77962
160 2 2.2208 8.08278 15.1966 5.31331
161 2 2.2208 8.08498 20.7918 5.19137
162 1 -1.1104 9.44788 16.5539 1.05904
164 1 -1.1104 9.48613 16.6912 3.92453
574 2 2.2208 8.03966 15.302 -0.389395
156 1 -1.1104 9.51958 19.3647 6.65664
595 2 2.2208 10.8415 1.25883 -0.531293
163 1 -1.1104 9.37273 16.6216 6.75419
145 1 -1.1104 12.3064 19.3505 6.61655
137 1 -1.1104 12.3719 16.6752 12.2432
174 1 -1.1104 3.87058 -0.111983 6.53075
167 1 -1.1104 1.05725 2.6627 6.52393
173 1 -1.1104 3.78542 2.73797 6.63582
168 1 -1.1104 6.51191 -2.90978 6.52511
315 2 2.2208 8.00397 20.798 10.8842
29 2 2.2208 5.14683 -4.31056 5.1069
230 2 2.2208 13.6614 -1.5221 10.8188
172 1 -1.1104 3.80526 -2.9373 6.78168
166 1 -1.1104 0.819154 -2.85532 6.54018
175 2 2.2208 5.29974 1.1795 10.8072
176 1 -1.1104 0.961486 -3.02123 12.2913
177 1 -1.1104 1.11825 2.6556 12.1699
180 1 -1.1104 0.878934 -2.92497 9.36592
181 1 -1.1104 1.10212 2.61253 9.3492
184 1 -1.1104 1.00187 -0.318946 12.1583
186 2 2.2208 5.23034 -1.65077 7.93924
187 2 2.2208 5.1536 3.95317 8.02663
188 1 -1.1104 0.866988 -0.0927736 9.19928
190 1 -1.1104 3.97347 -3.19205 12.2113
191 1 -1.1104 3.91936 2.63784 12.1633
192 2 2.2208 2.47898 1.23109 7.96306
193 1 -1.1104 3.67447 -2.98923 9.38841
194 1 -1.1104 3.84684 2.61359 9.41493
195 2 2.2208 2.32256 -1.72981 10.655
196 2 2.2208 2.351 3.94301 10.7805
197 1 -1.1104 3.76956 -0.252983 12.2419
198 1 -1.1104 3.93503 -0.149011 9.46768
178 1 -1.1104 6.72362 -3.10915 11.9662
179 1 -1.1104 6.63195 2.55912 12.1412
189 1 -1.1104 6.75455 -0.24299 9.40146
185 1 -1.1104 6.65265 -0.31704 12.2616
169 1 -1.1104 6.60892 2.7524 6.62041
603 2 2.2208 7.94015 20.7909 -0.411236
9232 2 2.2208 -0.391237 1.25864 5.23039
154 1 -1.1104 9.35387 13.8382 6.63262
171 1 -1.1104 6.65123 -0.0813932 6.65757
183 1 -1.1104 6.63216 2.65884 9.37475
209 1 -1.1104 9.60823 2.4165 6.60623
208 1 -1.1104 9.4261 -2.95245 6.62357
332 2 2.2208 13.6609 15.2567 -0.382278
337 2 2.2208 2.52523 20.8626 -0.376002
182 1 -1.1104 6.55279 -2.94685 9.2777
207 1 -1.1104 12.2116 -0.194756 6.55828
211 2 2.2208 10.8584 1.30821 10.8497
212 1 -1.1104 12.1983 -2.84068 12.1385
213 1 -1.1104 12.2454 2.64858 12.245
214 1 -1.1104 12.1 -2.86766 9.29483
215 1 -1.1104 12.1818 2.80135 9.45556
216 1 -1.1104 12.1752 -0.115138 12.1784
217 2 2.2208 10.8658 -1.38066 8.05012
219 1 -1.1104 12.3005 -0.0884969 9.32313
220 1 -1.1104 9.50431 -2.81686 12.2733
221 1 -1.1104 9.42535 2.68894 12.1802
222 2 2.2208 8.09746 1.31113 8.04388
223 1 -1.1104 9.38107 -3.05794 9.37153
224 1 -1.1104 9.38452 2.68581 9.45608
225 2 2.2208 8.07503 -1.57709 10.7549
226 2 2.2208 8.05293 3.92404 10.8916
227 1 -1.1104 9.36524 -0.177292 12.0662
228 1 -1.1104 9.54087 -0.0453668 9.36623
218 2 2.2208 10.7933 4.08912 8.08959
236 1 -1.1104 1.07232 5.41577 6.59697
234 1 -1.1104 1.17343 8.21097 6.70776
238 1 -1.1104 3.88284 8.29529 6.51115
62 1 -1.1104 1.19756 10.9488 6.54752
239 1 -1.1104 3.8923 5.51593 6.559
310 1 -1.1104 9.47009 19.3809 12.2268
240 2 2.2208 5.29176 6.79474 10.7929
241 2 2.2208 5.22027 12.3006 10.8723
242 1 -1.1104 0.942164 8.09844 12.3969
244 1 -1.1104 1.13053 7.96575 9.5824
246 1 -1.1104 1.08158 5.40385 12.2663
247 1 -1.1104 1.07515 11.0032 12.1789
250 2 2.2208 5.24102 9.53193 7.99204
251 1 -1.1104 0.991277 5.34006 9.3085
252 1 -1.1104 1.00162 11.1112 9.32454
255 1 -1.1104 3.94566 8.15955 12.2446
256 2 2.2208 2.49078 6.70582 8.02172
257 2 2.2208 2.48566 12.4446 7.9998
258 1 -1.1104 3.82015 8.13403 9.37353
259 2 2.2208 2.46613 9.53791 10.7894
260 1 -1.1104 3.91763 5.36197 12.1689
261 1 -1.1104 3.88955 10.8802 12.3431
262 1 -1.1104 3.7309 5.29175 9.35002
263 1 -1.1104 3.84811 10.8719 9.38218
254 1 -1.1104 6.69809 10.9862 9.55699
243 1 -1.1104 6.73573 8.12129 12.286
249 1 -1.1104 6.72995 10.948 12.177
245 1 -1.1104 6.72543 8.17935 9.45923
101 1 -1.1104 9.33346 10.9596 6.63354
266 1 -1.1104 12.1775 5.33167 6.50377
237 1 -1.1104 6.84072 5.48757 6.47646
235 1 -1.1104 6.65328 8.27246 6.52878
253 1 -1.1104 6.66602 5.48615 9.41719
248 1 -1.1104 6.70537 5.32215 12.2711
265 1 -1.1104 12.2312 8.2047 6.94411
264 1 -1.1104 9.4357 11.0169 9.42536
268 1 -1.1104 9.37792 5.2991 9.4668
270 1 -1.1104 9.31149 11.0949 12.2638
271 1 -1.1104 9.48179 5.51031 12.4195
272 2 2.2208 8.091 9.59955 10.8237
273 1 -1.1104 9.65769 8.15035 9.24105
274 2 2.2208 8.10887 12.4689 8.23165
275 2 2.2208 8.10389 6.8247 8.02936
276 2 2.2208 10.6999 6.69253 10.9357
277 2 2.2208 10.96 12.3531 10.9182
278 1 -1.1104 12.1448 8.1692 12.2412
279 1 -1.1104 12.4104 5.4439 12.2774
280 1 -1.1104 12.1027 11.238 12.4847
281 2 2.2208 10.7784 9.70768 7.91984
282 1 -1.1104 12.1726 5.7179 9.33934
283 1 -1.1104 11.9811 11.1619 9.16008
284 1 -1.1104 9.46533 8.26635 12.0763
605 2 2.2208 13.6835 3.78898 -0.508571
573 2 2.2208 -0.501273 1.17889 -0.614495
133 1 -1.1104 3.78453 16.6609 6.7404
117 1 -1.1104 1.06436 16.6516 6.57937
136 1 -1.1104 12.4025 19.4824 9.5275
9239 2 2.2208 -0.274924 18.0706 5.24055
295 1 -1.1104 6.81988 19.4722 12.3013
108 1 -1.1104 1.06288 13.8339 6.64646
111 1 -1.1104 6.6829 13.758 6.63804
285 1 -1.1104 3.93082 19.4786 12.4017
286 1 -1.1104 3.86222 13.8452 12.3507
290 1 -1.1104 1.29134 19.3406 9.30309
291 1 -1.1104 1.17702 16.7663 9.50592
292 2 2.2208 5.18466 20.8377 7.98143
293 1 -1.1104 1.23133 14.0341 9.32012
294 2 2.2208 5.33275 15.2398 8.03031
297 1 -1.1104 1.09835 19.3756 12.1705
298 1 -1.1104 1.17325 13.755 12.2406
299 2 2.2208 5.28373 18.0493 11.0085
300 1 -1.1104 4.00213 19.4501 9.51228
302 2 2.2208 2.57538 18.0374 8.0233
303 1 -1.1104 4.02504 16.6068 9.42428
304 1 -1.1104 3.93732 13.6561 9.59007
306 1 -1.1104 1.21091 16.4725 12.2066
307 1 -1.1104 3.92839 16.7299 12.4386
308 2 2.2208 2.57021 20.7323 10.8311
309 2 2.2208 2.56141 15.1495 10.8913
296 1 -1.1104 6.68378 13.6639 12.2931
118 1 -1.1104 6.67305 16.8417 6.67528
316 2 2.2208 -0.249629 15.2841 13.4536
203 1 -1.1104 9.37861 19.5011 9.46934
313 1 -1.1104 9.63881 16.7101 9.39076
50 2 2.2208 10.8853 18.0211 10.8187
143 1 -1.1104 12.1556 13.7191 6.66754
149 1 -1.1104 12.1416 16.4866 6.61718
82 1 -1.1104 12.1324 19.5974 12.0485
201 2 2.2208 -0.38218 1.24063 10.8494
199 2 2.2208 10.8544 15.1897 8.07582
51 1 -1.1104 12.1863 13.9418 12.2758
289 1 -1.1104 6.63097 13.8566 9.45167
287 1 -1.1104 6.56227 19.3049 9.52892
305 1 -1.1104 6.60554 16.5997 12.3076
204 1 -1.1104 12.352 16.5868 9.40271
288 1 -1.1104 6.74862 16.6282 9.57342
229 1 -1.1104 9.36777 13.9456 12.5081
312 1 -1.1104 9.43018 13.8705 9.51606
27 2 2.2208 13.7199 18.0532 8.10369
200 2 2.2208 10.9646 20.8747 8.12923
314 1 -1.1104 9.45438 16.6245 12.2893
329 2 2.2208 13.5965 18.2155 13.5844
9234 2 2.2208 13.7552 1.19952 2.3854
8558 2 2.2208 5.26703 -4.48036 10.6733
30 2 2.2208 -0.193883 9.67988 7.95708
382 2 2.2208 2.46475 1.12922 13.6275
317 2 2.2208 5.25697 -1.59065 13.6756
412 2 2.2208 10.8769 -1.51109 13.6315
408 2 2.2208 8.03807 -4.47554 13.582
9247 2 2.2208 13.75 20.8819 -0.27477
335 2 2.2208 2.38394 15.2575 -0.458886
476 2 2.2208 8.05251 6.9311 13.7097
9474 2 2.2208 13.822 9.6599 -0.295278
341 2 2.2208 5.4086 1.35228 16.2878
342 1 -1.1104 1.16189 -3.07336 17.8377
343 1 -1.1104 1.25486 2.46241 17.7417
346 1 -1.1104 1.1158 -3.12547 15.1435
348 1 -1.1104 1.24898 2.62636 14.9233
354 1 -1.1104 1.10662 -0.295713 17.6289
356 2 2.2208 5.33399 -1.51893 19.233
357 2 2.2208 5.24475 3.9079 19.2161
358 1 -1.1104 1.08307 -0.21767 14.9073
362 1 -1.1104 4.07022 -3.02418 17.8413
363 1 -1.1104 3.92298 2.47308 17.6766
364 2 2.2208 2.50296 1.1849 19.1986
365 1 -1.1104 3.9839 -3.0126 14.9727
367 1 -1.1104 4.09983 2.73079 14.9345
369 2 2.2208 2.52024 -1.66496 16.4437
370 2 2.2208 2.5101 3.92827 16.4407
371 1 -1.1104 3.80248 -0.326264 17.7942
372 1 -1.1104 3.84314 -0.143125 15.0088
360 1 -1.1104 6.69822 -0.0454393 15.0085
345 1 -1.1104 6.6689 2.63762 17.6735
383 2 2.2208 5.31992 4.0765 13.6063
601 2 2.2208 8.11254 -4.53569 24.8349
355 1 -1.1104 6.57842 -0.291888 17.6668
347 1 -1.1104 1.16189 -3.08395 20.6384
600 2 2.2208 10.8373 -4.4055 21.9439
328 2 2.2208 8.09994 18.0514 13.7186
375 2 2.2208 5.31338 -4.41736 16.4072
326 2 2.2208 10.8203 20.9075 13.5779
569 2 2.2208 13.5319 20.9346 22.2132
352 1 -1.1104 6.9031 2.77958 14.9698
350 1 -1.1104 6.72056 -2.95482 14.8304
353 1 -1.1104 6.64453 2.71968 20.5971
344 1 -1.1104 6.9067 -3.02025 17.8308
384 2 2.2208 10.8183 1.10426 16.4456
385 1 -1.1104 12.3875 -3.23693 17.7018
386 1 -1.1104 12.3059 2.80441 17.8563
387 1 -1.1104 12.0758 -3.05678 14.9635
389 1 -1.1104 12.2543 2.57235 15.0452
391 1 -1.1104 12.4819 0.0253213 17.7588
393 1 -1.1104 12.1816 -0.337065 14.9818
394 1 -1.1104 9.45498 2.69763 17.6551
395 2 2.2208 7.9537 1.18849 19.1179
396 1 -1.1104 9.43257 -3.03125 15.3221
398 1 -1.1104 9.57076 2.72184 14.8673
400 2 2.2208 8.01222 -1.45498 16.3043
401 2 2.2208 8.14363 4.20665 16.4289
402 1 -1.1104 9.19868 -0.0522179 17.6271
403 1 -1.1104 9.50543 -0.159927 14.9503
392 2 2.2208 10.834 4.16143 19.1576
571 2 2.2208 5.25783 -4.45717 22.0763
318 2 2.2208 8.11894 1.24593 13.6245
413 2 2.2208 11.0096 4.12856 13.7667
9292 2 2.2208 -0.409592 1.24187 21.9174
477 1 -1.1104 9.46745 13.7968 26.2788
409 2 2.2208 13.5901 -1.68875 16.3168
9577 2 2.2208 -0.461326 6.75564 22.0785
598 2 2.2208 -0.41244 12.1938 16.473
319 2 2.2208 2.4171 6.79319 13.6911
414 2 2.2208 5.16002 6.93262 16.4147
415 2 2.2208 5.32964 12.3988 16.5142
416 1 -1.1104 0.921804 8.09105 17.813
418 1 -1.1104 0.974219 8.22703 15.0371
422 1 -1.1104 1.09034 5.32279 17.9044
423 1 -1.1104 1.01448 10.8852 18.1063
426 2 2.2208 5.20546 9.60303 19.3584
427 1 -1.1104 1.10099 5.3136 15.0119
429 1 -1.1104 1.02127 10.9769 15.1136
435 1 -1.1104 3.89326 8.30605 17.8644
436 2 2.2208 2.49485 6.76372 19.2017
437 2 2.2208 2.28365 12.3968 19.2365
438 1 -1.1104 3.82109 8.22421 15.1064
440 2 2.2208 2.33267 9.52959 16.5041
441 1 -1.1104 3.85736 5.31385 17.8452
442 1 -1.1104 3.85452 11.0254 17.8064
443 1 -1.1104 3.82841 5.56996 15.1204
445 1 -1.1104 3.9697 11.123 15.1067
446 1 -1.1104 3.73546 10.872 20.722
420 1 -1.1104 6.61441 8.32541 15.0282
428 1 -1.1104 0.762212 5.46103 20.7137
417 1 -1.1104 6.69057 8.25664 17.8336
433 1 -1.1104 6.70938 10.997 15.1194
540 1 -1.1104 9.50204 16.7456 26.221
430 1 -1.1104 0.881442 11.1776 20.8095
9468 2 2.2208 -0.478284 20.8436 19.2598
425 1 -1.1104 6.65205 11.0351 18.0049
431 1 -1.1104 6.57207 5.62207 14.9551
424 1 -1.1104 6.50639 5.48957 17.867
447 2 2.2208 -0.235642 3.96873 13.6469
452 2 2.2208 10.8724 7.01499 16.3926
453 2 2.2208 10.7067 12.45 16.5234
454 1 -1.1104 12.4453 8.3077 17.8767
455 1 -1.1104 12.3257 8.21526 14.9851
457 1 -1.1104 12.2605 5.6078 17.8614
458 1 -1.1104 12.1984 11.097 17.921
459 2 2.2208 10.8299 9.64356 19.2931
460 1 -1.1104 12.3392 5.47929 15.0991
462 1 -1.1104 12.1733 11.0049 15.3077
464 1 -1.1104 9.54474 8.2557 17.94
465 2 2.2208 8.01827 6.82521 19.2286
466 2 2.2208 8.108 12.3904 19.3538
467 1 -1.1104 9.4266 8.34846 15.0212
469 2 2.2208 8.10771 9.66252 16.5391
470 1 -1.1104 9.35991 5.45009 17.9807
471 1 -1.1104 9.35056 11.0902 17.84
472 1 -1.1104 9.47262 5.59972 15.1343
474 1 -1.1104 9.46624 10.9491 15.0407
9470 2 2.2208 -0.427034 17.9916 16.4052
381 2 2.2208 13.591 9.66822 16.4405
411 2 2.2208 13.4522 12.5914 13.9492
456 1 -1.1104 12.3166 8.2768 20.7568
519 1 -1.1104 12.0296 19.4283 20.7703
322 2 2.2208 8.06454 12.3056 13.6298
9475 2 2.2208 13.6268 12.5125 24.9889
478 2 2.2208 5.2462 18.0424 16.4487
479 1 -1.1104 1.05002 13.6018 17.6946
480 1 -1.1104 0.976599 19.3539 17.772
483 1 -1.1104 0.581579 13.7201 14.9427
485 1 -1.1104 0.962957 19.5461 14.9639
491 1 -1.1104 0.936717 16.4928 17.8462
493 2 2.2208 5.1803 15.1586 19.3435
494 2 2.2208 5.19756 20.8655 19.2814
495 1 -1.1104 1.02821 16.6989 15.0869
499 1 -1.1104 3.7993 13.8056 17.8765
500 1 -1.1104 3.7767 19.4627 18.0041
501 2 2.2208 2.33531 17.9728 19.1514
502 1 -1.1104 3.69479 14.0675 14.958
504 1 -1.1104 3.76083 19.4246 15.1993
506 2 2.2208 2.37055 15.3411 16.4174
507 2 2.2208 2.3861 20.8212 16.5556
508 1 -1.1104 3.92623 16.6024 17.7817
509 1 -1.1104 3.75843 16.8185 15.0606
484 1 -1.1104 0.877701 13.8661 20.6307
503 1 -1.1104 3.58219 13.9132 20.5164
487 1 -1.1104 6.64522 13.8391 15.1393
486 1 -1.1104 0.942203 19.5085 20.5417
481 1 -1.1104 6.69816 13.7684 17.9554
497 1 -1.1104 6.7508 16.6586 15.099
489 1 -1.1104 6.63864 19.4265 15.0945
492 1 -1.1104 6.65703 16.5234 17.9357
488 1 -1.1104 6.5272 13.8664 20.8382
524 1 -1.1104 12.3341 16.6363 20.7491
324 2 2.2208 5.25437 15.2431 13.6812
505 1 -1.1104 3.71573 19.4813 20.7578
498 1 -1.1104 6.48479 16.6536 20.8038
567 1 -1.1104 12.3785 16.6995 26.3066
482 1 -1.1104 6.52669 19.3602 17.8185
406 2 2.2208 13.4617 15.2568 16.6834
513 2 2.2208 10.8636 18.0551 16.4873
514 1 -1.1104 11.9653 13.9389 17.8306
515 1 -1.1104 12.0873 19.4904 17.7466
516 1 -1.1104 12.0942 13.9924 15.2405
518 1 -1.1104 12.0925 19.4311 14.9274
520 1 -1.1104 12.1187 16.6821 17.9534
521 2 2.2208 10.6872 15.2678 19.3621
522 2 2.2208 10.8964 20.7096 19.2256
523 1 -1.1104 12.5069 16.6035 15.0421
525 1 -1.1104 9.37506 14.032 17.8976
526 1 -1.1104 9.26306 19.3829 17.7824
527 2 2.2208 7.93161 18.0486 19.1497
528 1 -1.1104 9.31754 13.7229 15.1755
530 1 -1.1104 9.37678 19.4625 15.0451
532 2 2.2208 7.98111 15.1977 16.4303
533 2 2.2208 8.04135 20.818 16.3249
534 1 -1.1104 9.38558 16.7267 17.8522
535 1 -1.1104 9.61693 16.6769 15.0888
536 1 -1.1104 9.43935 16.5059 20.6609
327 2 2.2208 10.9699 15.3445 13.7228
361 1 -1.1104 6.55689 -0.14898 20.5654
568 2 2.2208 10.9348 20.8349 24.9768
9368 2 2.2208 13.6471 15.2663 22.1176
349 1 -1.1104 1.14058 2.54641 20.6608
368 1 -1.1104 3.92664 2.48924 20.5761
373 1 -1.1104 3.81843 -0.130836 20.5935
359 1 -1.1104 0.975378 -0.264515 20.5257
366 1 -1.1104 3.89958 -2.95361 20.6094
541 2 2.2208 5.29297 1.1843 22.0177
542 1 -1.1104 1.0323 -3.05748 23.3819
543 1 -1.1104 0.914328 2.49743 23.5061
546 1 -1.1104 0.975585 -3.02199 26.1292
547 1 -1.1104 1.10546 2.55922 26.2645
550 1 -1.1104 0.838148 -0.159759 23.252
552 2 2.2208 5.28905 -1.56458 24.6799
554 1 -1.1104 1.0878 -0.260254 26.1368
556 1 -1.1104 3.82322 -3.03445 23.3761
557 1 -1.1104 3.78505 2.57097 23.3146
558 2 2.2208 2.4222 1.20392 24.7869
559 1 -1.1104 3.78747 -3.02494 26.1466
560 1 -1.1104 3.84564 2.63291 26.3486
561 2 2.2208 2.43974 -1.60898 21.8841
562 2 2.2208 2.33435 4.07539 22.1576
563 1 -1.1104 3.93332 -0.292403 23.388
564 1 -1.1104 3.84625 -0.118451 26.167
553 2 2.2208 5.10354 3.99061 24.8614
548 1 -1.1104 6.78263 -3.03909 26.2496
545 1 -1.1104 6.56454 2.64898 23.4301
551 1 -1.1104 6.63618 -0.306685 23.4507
351 1 -1.1104 6.54444 -3.05842 20.68
397 1 -1.1104 9.31104 -3.10664 20.7096
390 1 -1.1104 12.1843 2.55878 20.6132
339 2 2.2208 10.9207 6.85686 27.7068
555 1 -1.1104 6.6082 -0.12484 26.368
549 1 -1.1104 6.67626 2.53835 26.3022
449 1 -1.1104 9.46371 19.5211 23.3153
404 1 -1.1104 9.34045 0.000142893 20.8159
544 1 -1.1104 6.81385 -2.98132 23.4893
399 1 -1.1104 9.28589 2.69346 20.6532
388 1 -1.1104 12.336 -3.09279 20.8537
577 2 2.2208 10.6512 1.39137 22.0086
578 1 -1.1104 12.2416 -2.91491 23.5923
579 1 -1.1104 12.1657 2.56449 23.4413
580 1 -1.1104 12.3742 -2.88062 26.2134
581 1 -1.1104 12.172 2.6018 26.1437
582 1 -1.1104 12.1881 -0.145805 22.9531
583 2 2.2208 10.8544 -1.66375 24.8794
584 2 2.2208 10.7472 4.06633 24.8911
585 1 -1.1104 12.156 -0.141165 26.1756
586 1 -1.1104 9.52957 -2.97531 23.3144
587 1 -1.1104 9.267 2.61016 23.4675
588 2 2.2208 7.95765 1.09568 24.8442
589 1 -1.1104 9.53013 -3.04414 26.178
590 1 -1.1104 9.40596 2.70878 26.2974
591 2 2.2208 8.14085 -1.67021 21.9214
592 2 2.2208 8.00362 4.14232 22.1894
593 1 -1.1104 9.42671 -0.172086 23.3382
594 1 -1.1104 9.29824 -0.15017 26.3305
658 1 -1.1104 12.3364 19.4759 26.3477
517 1 -1.1104 12.2601 13.8018 20.6165
9331 2 2.2208 -0.432879 4.0159 19.2508
444 1 -1.1104 3.70698 5.21563 20.6306
419 1 -1.1104 0.964682 8.37716 20.7792
439 1 -1.1104 3.71236 8.11357 20.7057
606 2 2.2208 5.15556 6.79319 22.0324
607 2 2.2208 5.16515 12.4199 22.17
608 1 -1.1104 0.944692 7.99234 23.4559
610 1 -1.1104 1.13471 8.15433 26.2115
612 1 -1.1104 1.02204 5.34073 23.5106
613 1 -1.1104 1.07976 10.9093 23.5327
616 2 2.2208 5.36291 9.7665 24.7934
617 1 -1.1104 1.01881 5.43427 26.3902
618 1 -1.1104 0.882051 10.9219 26.2886
621 1 -1.1104 3.72611 8.15668 23.446
622 2 2.2208 2.37485 6.7368 24.9769
623 2 2.2208 2.38741 12.3718 24.8438
624 1 -1.1104 3.82501 8.15834 26.2895
625 2 2.2208 2.36979 9.57056 22.1504
626 1 -1.1104 3.81678 5.30909 23.3742
627 1 -1.1104 3.90441 10.9922 23.5297
628 1 -1.1104 3.83554 5.4594 26.3218
629 1 -1.1104 3.74898 11.0986 26.2911
611 1 -1.1104 6.82868 8.24014 26.2394
434 1 -1.1104 6.71643 11.0987 20.7399
432 1 -1.1104 6.59084 5.53502 20.6909
609 1 -1.1104 6.66692 8.20268 23.5046
615 1 -1.1104 6.79631 11.0262 23.5577
619 1 -1.1104 6.60246 5.384 26.1783
635 1 -1.1104 12.1859 19.4717 23.6034
461 1 -1.1104 12.2557 5.33354 20.589
463 1 -1.1104 12.3304 10.9042 20.5825
538 2 2.2208 7.87868 20.8376 22.0383
421 1 -1.1104 6.63589 8.32163 20.7089
620 1 -1.1104 6.57571 10.9996 26.2788
614 1 -1.1104 6.68317 5.48637 23.6228
450 2 2.2208 8.03655 18.1295 24.7718
468 1 -1.1104 9.46595 8.20455 20.647
475 1 -1.1104 9.58612 11.0119 20.6267
473 1 -1.1104 9.44082 5.46501 20.8642
637 1 -1.1104 9.59361 11.017 26.2961
638 1 -1.1104 9.47068 5.44221 26.3407
639 1 -1.1104 9.6021 10.978 23.4235
640 1 -1.1104 9.50805 5.54411 23.5423
641 2 2.2208 8.12004 9.6231 22.066
642 1 -1.1104 9.56264 8.32099 26.3861
643 2 2.2208 8.1482 12.4484 24.8933
644 2 2.2208 8.07958 6.83746 24.8567
645 2 2.2208 10.8784 6.90545 22.1364
646 2 2.2208 10.9119 12.4029 22.1063
647 1 -1.1104 12.2766 8.26578 23.4967
648 1 -1.1104 12.3989 8.23148 26.2946
649 1 -1.1104 12.2406 5.46152 23.4562
650 1 -1.1104 12.3029 11.065 23.5278
651 2 2.2208 10.952 9.62469 24.9631
652 1 -1.1104 12.2565 5.34268 26.2677
653 1 -1.1104 12.3544 11.0275 26.3811
654 1 -1.1104 9.57128 8.26921 23.5565
9406 2 2.2208 -0.328352 6.80769 16.3592
496 1 -1.1104 0.972866 16.7078 20.7263
510 1 -1.1104 3.71175 16.6723 20.6114
490 1 -1.1104 6.52552 19.7166 20.614
662 1 -1.1104 6.81868 13.9292 26.2263
671 1 -1.1104 6.77218 13.8068 23.563
668 1 -1.1104 6.69914 19.2917 23.3122
596 2 2.2208 2.37057 15.2519 22.0496
597 2 2.2208 2.3194 20.8654 21.973
655 1 -1.1104 3.77577 16.6007 23.3903
656 1 -1.1104 1.12822 16.6372 23.4094
661 1 -1.1104 3.97574 19.411 23.5282
663 1 -1.1104 3.82485 13.7869 23.4776
665 1 -1.1104 1.03732 19.3934 26.1738
666 1 -1.1104 1.0424 16.5575 26.1515
667 1 -1.1104 1.01947 13.748 26.2876
669 2 2.2208 5.24383 20.7805 24.7721
670 2 2.2208 5.25522 15.2551 24.9126
672 1 -1.1104 1.15734 19.4095 23.4112
673 1 -1.1104 1.06053 13.7546 23.5226
674 2 2.2208 5.12475 18.0483 21.987
675 1 -1.1104 3.90692 19.443 26.2298
676 2 2.2208 2.40235 18.0861 24.7828
677 1 -1.1104 3.91986 16.6139 26.2947
678 1 -1.1104 3.8959 13.9587 26.266
664 1 -1.1104 6.6976 16.8365 26.3495
451 1 -1.1104 6.78239 19.4668 26.2782
679 1 -1.1104 6.55684 16.6017 23.5529
659 1 -1.1104 12.2563 16.533 23.4822
529 1 -1.1104 9.40184 13.7068 20.9127
511 1 -1.1104 9.56098 19.3427 26.1651
660 2 2.2208 10.9172 15.1902 24.7904
537 2 2.2208 7.97447 15.244 22.1458
634 1 -1.1104 12.2522 13.7539 23.4148
531 1 -1.1104 9.16146 19.2156 20.5167
636 1 -1.1104 12.1665 13.7803 26.2409
539 1 -1.1104 9.50261 16.5589 23.4045
565 1 -1.1104 9.47414 13.7995 23.4849
633 2 2.2208 10.8397 17.9999 22.1464
9287 2 2.2208 -0.341019 18.1433 22.0585
17572 2 2.2208 -0.451698 -4.24302 21.9388
407 2 2.2208 -0.575529 9.65753 19.3845
378 2 2.2208 -0.255978 -1.70399 19.1831
576 2 2.2208 -0.418106 3.98991 24.9073
330 2 2.2208 5.19987 1.23116 27.6536
9403 2 2.2208 -0.394347 9.65547 13.6336
321 2 2.2208 2.34888 12.4088 13.694
320 2 2.2208 5.27856 9.62007 13.6675
379 2 2.2208 -0.377744 -1.58145 13.7238
325 2 2.2208 2.41915 18.0016 13.7098
512 2 2.2208 5.26481 20.8899 13.7302
323 2 2.2208 10.935 9.61137 13.6967
575 2 2.2208 10.8887 17.9324 27.7778
680 2 2.2208 5.18893 23.6217 5.29911
681 2 2.2208 5.25423 29.2375 5.36193
682 1 -1.1104 1.10197 25.0662 0.887143
683 1 -1.1104 0.859678 24.9897 3.70139
684 1 -1.1104 1.01998 22.0915 0.7985
685 1 -1.1104 0.955074 27.8226 1.1285
686 2 2.2208 5.19792 26.4121 2.47151
687 1 -1.1104 0.931008 22.2776 3.69658
688 1 -1.1104 1.18761 27.9086 3.87402
689 1 -1.1104 3.85267 25.0223 1.181
690 2 2.2208 2.36165 23.4982 2.37897
691 2 2.2208 2.3863 29.197 2.50533
692 1 -1.1104 3.77741 24.9989 4.0231
693 2 2.2208 2.43784 26.291 5.21749
694 1 -1.1104 3.85913 22.1929 0.986844
695 1 -1.1104 3.89817 27.8652 1.15216
696 1 -1.1104 3.69864 22.3385 3.81355
697 1 -1.1104 3.96718 27.7584 3.93101
821 1 -1.1104 1.03398 25.0227 6.51105
703 1 -1.1104 6.5315 22.2119 1.02767
705 1 -1.1104 6.7428 22.2218 3.83528
826 1 -1.1104 6.73093 27.8587 6.67201
702 1 -1.1104 6.44721 25.0022 3.84119
824 1 -1.1104 1.17798 27.8995 6.65865
822 1 -1.1104 6.76688 25.0236 6.6036
1594 1 -1.1104 9.35936 47.427 12.2811
704 1 -1.1104 6.6551 27.7957 1.2085
706 1 -1.1104 6.6955 27.8271 3.93461
701 1 -1.1104 6.76601 24.9975 1.01326
707 2 2.2208 10.8824 23.6867 5.2562
708 2 2.2208 10.8034 29.3544 5.33997
709 1 -1.1104 12.3553 25.2042 1.05812
710 1 -1.1104 12.2055 25.0117 3.82639
711 1 -1.1104 12.3146 22.3318 1.17162
712 1 -1.1104 12.0619 27.9836 1.1209
713 2 2.2208 10.9112 26.5509 2.53501
714 1 -1.1104 12.3937 22.205 3.95942
715 1 -1.1104 12.2576 27.9496 3.9743
716 1 -1.1104 9.4576 25.0407 1.17281
717 2 2.2208 7.97527 23.6378 2.44005
718 2 2.2208 7.97621 29.1894 2.60027
719 1 -1.1104 9.3128 25.0335 3.94454
720 2 2.2208 8.09039 26.4606 5.33867
721 1 -1.1104 9.39856 22.1191 1.03508
722 1 -1.1104 9.39628 27.9329 0.942098
723 1 -1.1104 9.66622 22.265 3.76855
724 1 -1.1104 9.48509 27.7791 3.86992
859 1 -1.1104 9.50062 27.9154 6.74888
857 1 -1.1104 9.60676 25.1181 6.75958
854 1 -1.1104 12.2853 25.0451 6.56755
858 1 -1.1104 9.48555 22.2608 6.71425
856 1 -1.1104 12.2729 27.9434 6.64156
9913 2 2.2208 13.6806 23.6814 2.54454
9929 2 2.2208 13.7205 26.3854 -0.336996
997 2 2.2208 8.13646 29.1701 13.6798
1008 2 2.2208 8.14973 37.7196 -0.20271
728 2 2.2208 5.19228 35.0034 5.30972
729 1 -1.1104 0.940074 30.6037 1.11897
730 1 -1.1104 0.995581 36.4022 1.2407
732 1 -1.1104 0.923617 30.6526 3.84114
733 1 -1.1104 1.00146 36.344 3.97709
735 1 -1.1104 1.13725 33.3865 1.06345
736 2 2.2208 5.20288 31.9678 2.49921
737 2 2.2208 5.29727 37.7315 2.69434
738 1 -1.1104 0.989453 33.6247 3.7488
740 1 -1.1104 3.77322 30.6775 1.18006
741 1 -1.1104 3.93901 36.4261 1.1887
742 2 2.2208 2.41865 35.0123 2.45651
743 1 -1.1104 3.73007 30.6658 3.99351
744 1 -1.1104 3.80714 36.445 3.88165
745 2 2.2208 2.43009 32.1229 5.19522
746 2 2.2208 2.24671 37.7332 5.31367
747 1 -1.1104 3.9373 33.5699 1.18246
748 1 -1.1104 3.78482 33.5263 3.94737
879 1 -1.1104 1.01976 36.286 6.78736
734 1 -1.1104 6.60696 36.3552 3.9606
883 1 -1.1104 6.67354 33.5638 6.88214
731 1 -1.1104 6.8346 36.4717 1.29402
754 1 -1.1104 6.71055 33.5565 1.13878
739 1 -1.1104 6.57019 33.4665 3.98476
1356 1 -1.1104 6.51096 47.3652 1.1473
878 1 -1.1104 0.97589 30.7791 6.5589
884 1 -1.1104 3.72976 30.5838 6.61231
880 1 -1.1104 6.61906 30.7444 6.77219
1553 1 -1.1104 0.959438 47.368 9.41662
947 1 -1.1104 6.60878 38.9556 12.2499
1327 2 2.2208 5.13068 46.0496 -0.173489
752 1 -1.1104 6.60637 30.6186 1.06041
753 1 -1.1104 6.49799 30.6372 3.84785
755 2 2.2208 10.9292 34.9607 5.27867
756 1 -1.1104 12.1802 30.7442 1.08729
757 1 -1.1104 12.4083 36.3898 1.23754
758 1 -1.1104 12.1542 30.566 3.8448
759 1 -1.1104 12.3066 36.3342 4.02395
760 1 -1.1104 12.3736 33.6385 1.00299
761 2 2.2208 10.7746 32.0629 2.48417
762 2 2.2208 10.8438 37.8519 2.61539
763 1 -1.1104 12.1576 33.4667 3.97195
764 1 -1.1104 9.40048 30.7075 1.12422
765 1 -1.1104 9.63281 36.2716 1.24852
766 2 2.2208 8.05403 34.87 2.4882
767 1 -1.1104 9.26127 30.69 3.93892
768 1 -1.1104 9.56676 36.3027 4.03911
769 2 2.2208 7.99917 32.1472 5.29123
770 2 2.2208 8.15823 37.7089 5.32
771 1 -1.1104 9.38802 33.4591 0.971773
772 1 -1.1104 9.38482 33.5635 3.96792
915 1 -1.1104 9.42352 30.6384 6.58865
912 1 -1.1104 12.1323 30.8855 6.70203
993 1 -1.1104 12.3509 47.4154 6.6002
983 2 2.2208 10.7112 43.2665 8.20408
773 2 2.2208 10.7153 46.2513 10.7913