ITEM: TIMESTEP
30000
ITEM: NUMBER OF ATOMS
17820
ITEM: BOX BOUNDS pp pp pp
-3.6416723794667599e-01 2.7704167237946358e+01
-4.2884367799695768e+00 3.3236843677997484e+02
-3.6624567451584494e-01 2.7706245674515813e+01
ITEM: ATOMS id type q x y z
1 2 2.2208 5.33881 1.29288 5.31959
2 1 -1.1104 1.1796 -3.11713 1.11761
3 1 -1.1104 1.12925 2.47831 1.14858
6 1 -1.1104 0.945151 -2.94258 4.02096
7 1 -1.1104 1.05422 2.63978 3.93875
10 1 -1.1104 1.0466 -0.234837 0.995259
12 2 2.2208 5.24866 -1.49813 2.49521
13 2 2.2208 5.13459 4.19594 2.57407
14 1 -1.1104 1.09366 -0.192501 3.91455
16 1 -1.1104 3.90531 -2.91698 1.08529
17 1 -1.1104 3.85223 2.7569 1.10147
18 2 2.2208 2.54631 1.08624 2.47195
19 1 -1.1104 3.75769 -2.94797 3.91258
20 1 -1.1104 3.87059 2.62005 4.00616
21 2 2.2208 2.54843 -1.50936 5.33027
22 2 2.2208 2.43612 4.12879 5.33834
23 1 -1.1104 3.7081 -0.167569 1.01985
24 1 -1.1104 3.81513 -0.186475 3.8947
27 2 2.2208 13.6091 18.2314 8.06356
9246 2 2.2208 13.6671 7.07062 13.6958
5 1 -1.1104 6.666 2.74638 1.20706
25 2 2.2208 -0.271595 -1.62654 2.507
9151 2 2.2208 13.4922 12.3854 8.27226
15 1 -1.1104 6.54341 -0.28611 3.81504
330 2 2.2208 5.17823 1.30218 -0.272926
566 2 2.2208 2.51395 -1.60916 -0.387443
8559 2 2.2208 13.78 -4.30851 8.13231
9134 2 2.2208 -0.295893 -4.39034 10.9411
4 1 -1.1104 6.67021 -2.92818 1.09849
11 1 -1.1104 6.64978 -0.131026 1.13327
201 2 2.2208 -0.411607 1.26514 10.8631
9 1 -1.1104 6.67049 2.79611 4.02699
8 1 -1.1104 6.76792 -2.92359 3.95868
31 2 2.2208 10.8703 1.42883 5.31412
32 1 -1.1104 12.4995 -2.87425 1.15504
33 1 -1.1104 12.4568 2.74755 1.08954
34 1 -1.1104 12.2092 -2.72605 3.89921
35 1 -1.1104 12.3823 2.83379 3.94896
36 1 -1.1104 12.1915 -0.240805 0.941767
37 2 2.2208 10.9834 -1.50492 2.58115
38 2 2.2208 10.9159 4.21617 2.45898
39 1 -1.1104 12.2687 0.102693 4.02232
40 1 -1.1104 9.60215 -2.93196 1.14517
41 1 -1.1104 9.4968 2.77841 1.21531
42 2 2.2208 8.14693 1.44904 2.51685
43 1 -1.1104 9.53116 -2.78571 3.99862
44 1 -1.1104 9.56047 2.83501 3.99923
45 2 2.2208 8.13749 -1.48056 5.3391
46 2 2.2208 8.0737 4.16814 5.32512
47 1 -1.1104 9.2751 -0.0743433 1.12369
48 1 -1.1104 9.525 -0.0181184 3.78449
53 2 2.2208 10.8885 -4.29735 5.27064
595 2 2.2208 11.0308 1.24657 -0.338675
171 1 -1.1104 6.72321 -0.0336465 6.7765
338 2 2.2208 7.97887 4.19582 -0.254509
8942 2 2.2208 13.6783 4.1978 5.45488
9256 2 2.2208 -0.352025 6.87031 -0.301603
630 2 2.2208 5.23393 6.98521 -0.430524
54 2 2.2208 5.25245 6.95542 5.30098
55 2 2.2208 5.16628 12.6658 5.27751
56 1 -1.1104 1.01988 8.27926 1.08446
58 1 -1.1104 1.03421 8.37983 3.81529
60 1 -1.1104 1.07651 5.48852 1.00929
61 1 -1.1104 0.879037 11.0274 0.784204
66 2 2.2208 5.20942 9.73745 2.45403
67 1 -1.1104 1.14534 5.48651 3.72687
68 1 -1.1104 1.0289 11.0757 3.79739
71 1 -1.1104 3.78328 8.242 1.08158
72 2 2.2208 2.43248 6.95144 2.4868
73 2 2.2208 2.34739 12.4982 2.37419
74 1 -1.1104 3.82677 8.38484 3.81458
75 2 2.2208 2.46604 9.76769 5.34355
76 1 -1.1104 3.78872 5.49218 1.22238
77 1 -1.1104 3.81548 11.1187 0.893153
79 1 -1.1104 3.83591 5.68289 4.05529
80 1 -1.1104 3.85517 11.1461 3.88669
236 1 -1.1104 1.15206 5.67344 6.62306
81 2 2.2208 -0.248714 6.87729 5.14772
9236 2 2.2208 -0.318988 9.72441 2.36704
632 2 2.2208 5.27048 12.6286 -0.335025
57 1 -1.1104 6.66124 8.4459 1.05062
64 1 -1.1104 6.82647 11.3752 0.873651
69 1 -1.1104 6.47182 5.53299 4.07176
314 1 -1.1104 9.31281 16.7377 12.4393
145 1 -1.1104 12.1234 19.5189 6.71798
631 2 2.2208 2.37712 9.69668 -0.411654
70 1 -1.1104 6.62656 11.1696 3.67758
63 1 -1.1104 6.66393 5.68265 1.00698
59 1 -1.1104 6.7269 8.32864 3.91024
84 2 2.2208 10.7989 7.0157 5.24761
85 2 2.2208 10.6302 12.5881 5.30431
86 1 -1.1104 12.1772 8.33798 1.35242
87 1 -1.1104 12.1177 8.61357 4.05559
88 1 -1.1104 12.2192 5.6127 1.1351
89 1 -1.1104 12.3517 11.191 1.19986
91 2 2.2208 10.7888 9.87072 2.50035
92 1 -1.1104 12.1914 5.53411 3.99097
93 1 -1.1104 12.1237 11.3521 3.9297
94 1 -1.1104 9.47757 8.46326 1.06008
95 2 2.2208 8.00902 6.94738 2.41327
96 2 2.2208 8.12601 12.683 2.48162
97 1 -1.1104 9.49413 8.28282 3.87656
98 2 2.2208 8.05503 9.62414 5.22927
99 1 -1.1104 9.53847 5.59999 0.970305
100 1 -1.1104 9.52921 11.2554 1.17237
102 1 -1.1104 9.309 5.45258 3.72298
103 1 -1.1104 9.39153 11.1802 3.9536
267 1 -1.1104 9.35199 8.30688 6.67746
657 2 2.2208 10.8765 12.4968 -0.267417
340 2 2.2208 8.1161 9.82296 -0.320242
106 2 2.2208 5.08529 18.1652 5.14124
107 1 -1.1104 1.00993 13.7275 1.07073
109 1 -1.1104 1.02137 19.4018 1.0494
113 1 -1.1104 1.12398 13.898 3.77173
114 1 -1.1104 1.00713 19.6545 3.88668
116 1 -1.1104 0.978864 16.5908 0.99832
119 2 2.2208 5.1877 15.4063 2.35557
120 2 2.2208 5.29464 21.0225 2.39055
121 1 -1.1104 0.996264 16.7441 3.63396
123 1 -1.1104 3.79943 13.9941 1.05257
125 1 -1.1104 3.77218 19.6259 0.904245
127 2 2.2208 2.46938 18.1214 2.43728
128 1 -1.1104 3.83074 13.9148 3.96958
129 1 -1.1104 3.84358 19.5873 3.79226
130 2 2.2208 2.40764 15.3662 5.23473
131 2 2.2208 2.364 21.109 5.38346
132 1 -1.1104 3.87275 16.859 1.00157
134 1 -1.1104 3.75393 16.7297 3.83169
138 1 -1.1104 6.7054 19.6718 1.06212
117 1 -1.1104 0.859526 16.8248 6.64796
135 2 2.2208 -0.405922 15.3537 2.36955
9238 2 2.2208 -0.452107 20.9956 2.38803
122 1 -1.1104 6.56915 16.9255 3.78072
154 1 -1.1104 9.27984 14.0323 6.64623
336 2 2.2208 5.1475 18.205 -0.441278
126 1 -1.1104 3.73658 19.5523 6.74433
124 1 -1.1104 3.7371 14.0314 6.70005
335 2 2.2208 2.40479 15.2563 -0.360852
149 1 -1.1104 12.173 16.7484 6.60647
115 1 -1.1104 6.54023 14.0674 3.91644
112 1 -1.1104 6.48881 19.5114 6.87749
140 1 -1.1104 6.64783 16.8986 1.00881
110 1 -1.1104 6.60481 14.0911 1.01337
139 1 -1.1104 6.62822 19.5469 4.08107
141 2 2.2208 10.8016 18.2104 5.32364
142 1 -1.1104 12.3575 13.8687 1.11552
144 1 -1.1104 12.2263 19.5966 1.06935
146 1 -1.1104 12.2686 13.9526 3.98017
147 1 -1.1104 12.2659 19.6489 3.77567
148 1 -1.1104 12.2422 16.7773 1.14173
150 2 2.2208 10.942 15.495 2.54503
151 2 2.2208 10.9278 20.9001 2.41243
152 1 -1.1104 12.2864 16.7646 3.89088
153 1 -1.1104 9.5873 13.9875 1.14342
155 1 -1.1104 9.53186 19.5489 1.0258
157 2 2.2208 8.07716 18.219 2.53385
158 1 -1.1104 9.46103 14.1226 3.95503
159 1 -1.1104 9.50656 19.605 3.85725
160 2 2.2208 7.94846 15.4265 5.11263
161 2 2.2208 7.93227 20.9092 5.39498
162 1 -1.1104 9.47271 16.7962 1.10102
164 1 -1.1104 9.45017 16.9201 3.82339
9039 2 2.2208 13.6945 15.3534 5.39766
165 2 2.2208 13.6834 18.1802 2.39303
575 2 2.2208 10.9017 18.2097 -0.400584
574 2 2.2208 8.09816 15.4541 -0.314163
156 1 -1.1104 9.29568 19.5972 6.73429
173 1 -1.1104 3.99051 2.59736 6.66882
170 1 -1.1104 1.09913 -0.0824335 6.62324
172 1 -1.1104 3.84731 -2.90172 6.61986
174 1 -1.1104 3.8676 -0.194029 6.61494
167 1 -1.1104 1.17726 2.7475 6.74616
166 1 -1.1104 1.01362 -3.08795 6.77197
175 2 2.2208 5.36563 1.32408 11.0534
176 1 -1.1104 1.18751 -2.76341 12.4879
177 1 -1.1104 0.901214 2.65351 12.2354
180 1 -1.1104 1.01194 -2.85599 9.55464
181 1 -1.1104 1.11016 2.78306 9.36836
184 1 -1.1104 1.04722 0.0672823 12.2656
186 2 2.2208 5.16565 -1.52409 8.08403
187 2 2.2208 5.26009 4.19123 8.21194
188 1 -1.1104 1.04909 0.0709705 9.37503
190 1 -1.1104 3.82892 -2.89467 12.3607
191 1 -1.1104 3.97623 2.75971 12.3059
192 2 2.2208 2.47558 1.31814 8.09053
193 1 -1.1104 3.80955 -2.92478 9.57509
194 1 -1.1104 3.90973 2.66991 9.55468
195 2 2.2208 2.38917 -1.51162 10.8853
196 2 2.2208 2.3631 4.00117 10.9067
197 1 -1.1104 3.85572 -0.113267 12.2549
198 1 -1.1104 3.85896 -0.166444 9.45361
169 1 -1.1104 6.80004 2.73395 6.86457
202 2 2.2208 2.47029 -4.3975 8.15744
315 2 2.2208 7.94075 20.9554 10.9349
9076 2 2.2208 13.7511 4.23424 10.9801
168 1 -1.1104 6.67243 -2.83287 6.78854
206 1 -1.1104 12.3228 2.70194 6.80229
209 1 -1.1104 9.62432 2.86794 6.76526
210 1 -1.1104 9.52587 -0.0839851 6.54154
205 1 -1.1104 12.4343 -2.89466 6.67996
207 1 -1.1104 12.3241 -0.0144685 6.65036
182 1 -1.1104 6.61408 -3.11993 9.44902
179 1 -1.1104 6.72344 2.70639 12.5302
185 1 -1.1104 6.80679 0.00354581 12.4675
178 1 -1.1104 6.57119 -2.93496 12.3617
183 1 -1.1104 6.59605 2.72837 9.76676
208 1 -1.1104 9.60147 -2.94282 6.71102
189 1 -1.1104 6.79131 -0.0815145 9.60486
211 2 2.2208 10.884 1.39535 10.9896
212 1 -1.1104 12.2906 -2.71789 12.2888
213 1 -1.1104 12.3326 2.76025 12.2073
214 1 -1.1104 12.4544 -2.61513 9.41895
215 1 -1.1104 12.2137 2.92846 9.45522
216 1 -1.1104 12.4113 -0.126941 12.4125
217 2 2.2208 11.0594 -1.50953 8.01887
219 1 -1.1104 12.3106 0.0107463 9.60117
220 1 -1.1104 9.43188 -2.78234 12.4801
221 1 -1.1104 9.50277 2.60473 12.5225
222 2 2.2208 8.18124 1.39403 8.19714
223 1 -1.1104 9.52651 -2.87721 9.57933
224 1 -1.1104 9.35979 2.91986 9.64783
225 2 2.2208 8.09176 -1.52812 10.9457
226 2 2.2208 7.99525 4.09629 11.0497
227 1 -1.1104 9.65614 -0.158689 12.2828
228 1 -1.1104 9.54193 0.0754331 9.39021
218 2 2.2208 10.7546 4.24648 8.20639
30 2 2.2208 -0.308962 9.72421 8.0393
78 1 -1.1104 3.91349 11.1495 6.70294
239 1 -1.1104 3.82416 5.37193 6.88051
234 1 -1.1104 1.07901 8.44169 6.61189
238 1 -1.1104 3.82522 8.30843 6.69061
65 1 -1.1104 6.63301 11.1472 6.45145
62 1 -1.1104 1.05985 11.0142 6.69849
240 2 2.2208 5.29247 7.01003 10.9455
241 2 2.2208 5.1353 12.4677 10.7677
242 1 -1.1104 1.12149 8.20145 12.1829
244 1 -1.1104 1.17718 8.35262 9.53884
246 1 -1.1104 1.04328 5.50737 12.266
247 1 -1.1104 0.88762 11.1286 12.321
250 2 2.2208 5.16688 9.77473 8.01723
251 1 -1.1104 1.00736 5.5524 9.39388
252 1 -1.1104 1.16192 11.1188 9.57411
255 1 -1.1104 3.90045 8.44888 12.4533
256 2 2.2208 2.47027 6.94942 8.14636
257 2 2.2208 2.39285 12.5719 8.19473
258 1 -1.1104 3.76869 8.41972 9.62383
259 2 2.2208 2.41942 9.6244 10.9903
260 1 -1.1104 3.87633 5.58039 12.3667
261 1 -1.1104 3.77587 11.2188 12.1284
262 1 -1.1104 3.85481 5.64961 9.57684
263 1 -1.1104 3.78851 11.1996 9.49671
254 1 -1.1104 6.50053 11.1209 9.34052
235 1 -1.1104 6.53764 8.46468 6.7607
90 1 -1.1104 12.0887 11.0891 6.66132
101 1 -1.1104 9.29946 11.2622 6.7627
269 1 -1.1104 9.22693 5.53763 6.76138
266 1 -1.1104 12.0982 5.5223 6.85681
237 1 -1.1104 6.55227 5.68998 6.85916
243 1 -1.1104 6.57227 8.29781 12.5356
265 1 -1.1104 12.0193 8.31905 7.017
253 1 -1.1104 6.70596 5.58251 9.65306
249 1 -1.1104 6.32824 11.1005 12.4497
248 1 -1.1104 6.63929 5.50699 12.6713
245 1 -1.1104 6.63771 8.33598 9.54037
264 1 -1.1104 9.219 11.1293 9.51212
268 1 -1.1104 9.38723 5.87024 9.71589
270 1 -1.1104 9.30257 11.2012 12.221
271 1 -1.1104 9.32577 5.51867 12.4249
272 2 2.2208 7.83415 9.86573 11.0116
273 1 -1.1104 9.56129 8.43093 9.68682
274 2 2.2208 7.85987 12.6276 8.10454
275 2 2.2208 8.0062 7.07913 8.13371
276 2 2.2208 10.7342 7.03385 11.161
277 2 2.2208 10.7003 12.5059 10.9067
278 1 -1.1104 12.0497 8.2891 12.4238
279 1 -1.1104 12.2181 5.58323 12.4081
280 1 -1.1104 12.1451 11.3861 12.4443
281 2 2.2208 10.6375 9.95689 8.09345
282 1 -1.1104 12.2795 5.96554 9.64489
283 1 -1.1104 11.9918 11.2349 9.52056
284 1 -1.1104 9.26296 8.50714 12.511
52 2 2.2208 13.6133 20.9931 5.2394
133 1 -1.1104 3.65231 16.8314 6.59556
108 1 -1.1104 1.03425 13.8381 6.68913
301 1 -1.1104 0.93559 19.6348 6.54157
199 2 2.2208 10.7726 15.3218 8.05367
287 1 -1.1104 6.56052 19.4807 9.60648
305 1 -1.1104 6.667 16.7216 12.2228
285 1 -1.1104 3.76906 19.5363 12.428
286 1 -1.1104 3.85745 13.9888 12.218
290 1 -1.1104 0.898683 19.5849 9.33458
291 1 -1.1104 0.982757 16.7365 9.43715
292 2 2.2208 5.06646 20.9102 8.18553
293 1 -1.1104 0.977041 14 9.4611
294 2 2.2208 5.16892 15.3716 8.06857
297 1 -1.1104 1.05451 19.5953 12.2364
298 1 -1.1104 1.07513 13.9054 12.324
299 2 2.2208 5.19684 18.125 10.8865
300 1 -1.1104 3.65172 19.5589 9.58922
302 2 2.2208 2.34052 18.0743 8.04753
303 1 -1.1104 3.68416 16.8363 9.38748
304 1 -1.1104 3.74221 13.9737 9.52502
306 1 -1.1104 1.10476 16.77 12.1839
307 1 -1.1104 3.91028 16.8528 12.2927
308 2 2.2208 2.3795 20.9014 10.8382
309 2 2.2208 2.37778 15.3844 10.8272
203 1 -1.1104 9.4887 19.5168 9.56491
325 2 2.2208 2.38746 18.1765 13.6448
136 1 -1.1104 12.1218 19.4277 9.50972
82 1 -1.1104 12.2952 19.4687 12.2743
9197 2 2.2208 13.6255 20.961 10.8811
143 1 -1.1104 12.2965 13.8482 6.85825
233 2 2.2208 8.00383 15.4247 10.8274
163 1 -1.1104 9.24394 16.8547 6.67274
288 1 -1.1104 6.5232 16.7375 9.43225
26 2 2.2208 13.4764 15.3583 10.7599
104 1 -1.1104 12.1625 13.931 9.57231
204 1 -1.1104 12.1104 16.7702 9.4621
289 1 -1.1104 6.52406 13.9871 9.32889
310 1 -1.1104 9.41601 19.6334 12.2284
312 1 -1.1104 9.36071 13.9538 9.50136
118 1 -1.1104 6.492 16.8481 6.62442
111 1 -1.1104 6.56405 14.1045 6.58704
311 2 2.2208 7.96159 18.1695 8.19355
51 1 -1.1104 12.1991 14.0663 12.2487
295 1 -1.1104 6.54512 19.5849 12.3691
50 2 2.2208 10.7931 18.1654 10.9243
296 1 -1.1104 6.70793 13.8036 12.1789
137 1 -1.1104 12.207 16.7137 12.3511
200 2 2.2208 10.862 20.8709 8.10173
313 1 -1.1104 9.43188 16.6961 9.47624
229 1 -1.1104 9.42444 14.0649 12.2982
49 2 2.2208 13.8029 -4.25665 2.54618
8934 2 2.2208 -0.471892 15.4309 8.12325
605 2 2.2208 13.7699 4.11436 -0.217201
9232 2 2.2208 -0.340337 1.19497 5.40817
230 2 2.2208 13.7841 -1.37349 10.9176
9233 2 2.2208 -0.264999 4.00495 2.41086
9247 2 2.2208 13.7007 20.9257 -0.281374
318 2 2.2208 8.05779 1.30218 14.0247
329 2 2.2208 13.6307 18.2617 13.5854
326 2 2.2208 10.8075 20.943 13.7078
327 2 2.2208 10.922 15.3098 13.6094
334 2 2.2208 8.07356 -1.50677 -0.262361
339 2 2.2208 10.7696 7.00744 -0.379555
341 2 2.2208 5.1357 1.32291 16.6408
342 1 -1.1104 1.06464 -2.8193 18.0273
343 1 -1.1104 0.938535 2.72406 17.9486
346 1 -1.1104 1.2205 -2.88026 15.1153
348 1 -1.1104 1.18815 2.63307 15.0502
354 1 -1.1104 1.02237 -0.0705911 17.9787
356 2 2.2208 5.29768 -1.56303 19.498
357 2 2.2208 5.23958 4.06864 19.314
358 1 -1.1104 1.10241 -0.170837 15.1664
362 1 -1.1104 3.8687 -2.92387 18.0745
363 1 -1.1104 3.69466 2.70343 17.9408
364 2 2.2208 2.43922 1.34141 19.291
365 1 -1.1104 3.87694 -2.81248 15.4019
367 1 -1.1104 3.89538 2.75199 15.1565
369 2 2.2208 2.45535 -1.44538 16.6494
370 2 2.2208 2.40139 4.27188 16.5123
371 1 -1.1104 3.76129 -0.0837063 18.1955
372 1 -1.1104 3.85935 0.0193107 15.0759
350 1 -1.1104 6.62285 -2.9656 15.1511
378 2 2.2208 -0.325373 -1.47006 19.3327
352 1 -1.1104 6.67647 2.71677 15.3034
355 1 -1.1104 6.54291 -0.168168 17.9729
360 1 -1.1104 6.54999 -0.076909 15.247
9331 2 2.2208 -0.556735 4.28359 19.3589
351 1 -1.1104 6.66248 -2.84875 20.9768
382 2 2.2208 2.42551 1.24908 13.6613
540 1 -1.1104 9.46002 16.9135 26.2957
317 2 2.2208 5.13562 -1.47935 13.8087
17572 2 2.2208 -0.255789 -4.20007 22.0266
383 2 2.2208 5.26387 4.15168 13.8126
662 1 -1.1104 6.6452 14.0811 26.0812
345 1 -1.1104 6.5956 2.65452 18.0732
344 1 -1.1104 6.68382 -2.95182 18.1213
384 2 2.2208 10.8254 1.27936 16.7261
385 1 -1.1104 12.4139 -3.19964 17.8048
386 1 -1.1104 12.265 2.65985 18.0475
387 1 -1.1104 12.2951 -2.90149 15.018
389 1 -1.1104 12.2511 2.81633 15.1261
391 1 -1.1104 12.5081 -0.216594 17.9547
393 1 -1.1104 12.441 0.0247057 15.134
394 1 -1.1104 9.45631 2.80246 18.0232
395 2 2.2208 8.12248 1.23048 19.4267
396 1 -1.1104 9.36969 -3.08069 15.8687
398 1 -1.1104 9.4953 2.66069 15.3569
400 2 2.2208 7.9505 -1.44772 16.5961
401 2 2.2208 8.11969 4.21249 16.6014
402 1 -1.1104 9.2881 0.0591772 17.8957
403 1 -1.1104 9.38312 -0.227782 15.27
392 2 2.2208 10.9384 4.02894 19.4151
412 2 2.2208 10.9821 -1.32593 13.7556
413 2 2.2208 10.7041 4.1397 13.7089
409 2 2.2208 13.6744 -1.61683 16.452
569 2 2.2208 13.6047 20.8633 22.2281
8612 2 2.2208 11.0295 -4.45552 16.5785
9406 2 2.2208 -0.438655 7.01406 16.481
414 2 2.2208 5.21931 6.92259 16.6182
415 2 2.2208 5.26119 12.6389 16.4779
416 1 -1.1104 1.03352 8.15858 17.8025
418 1 -1.1104 1.0233 8.47669 15.0579
422 1 -1.1104 1.02896 5.63507 18.0462
423 1 -1.1104 1.16957 11.1409 18.0902
426 2 2.2208 5.25842 9.73063 19.3472
427 1 -1.1104 1.07957 5.48158 15.1382
429 1 -1.1104 1.03419 11.0342 15.1979
435 1 -1.1104 3.87524 8.24905 17.8925
436 2 2.2208 2.48501 6.79656 19.2933
437 2 2.2208 2.53627 12.5914 19.2259
438 1 -1.1104 3.79525 8.21247 15.2144
440 2 2.2208 2.49118 9.66534 16.5394
441 1 -1.1104 3.6746 5.56334 17.9197
442 1 -1.1104 3.90095 11.1074 17.9072
443 1 -1.1104 3.84145 5.54803 15.1357
445 1 -1.1104 3.85508 11.2117 14.9334
598 2 2.2208 -0.260982 12.3602 16.5618
671 1 -1.1104 6.65613 13.8416 23.3739
444 1 -1.1104 3.80516 5.4651 20.6871
320 2 2.2208 5.19043 9.7445 13.7951
321 2 2.2208 2.45794 12.5713 13.6009
319 2 2.2208 2.40264 6.96685 13.7021
417 1 -1.1104 6.71027 8.179 18.0727
424 1 -1.1104 6.621 5.56169 18.0118
433 1 -1.1104 6.62029 11.2857 15.1756
431 1 -1.1104 6.73013 5.5782 15.2288
425 1 -1.1104 6.55686 11.1369 18.0435
420 1 -1.1104 6.59109 8.47847 15.2204
452 2 2.2208 10.8846 6.97767 16.6529
453 2 2.2208 10.763 12.6254 16.5348
454 1 -1.1104 12.266 8.29677 18.0627
455 1 -1.1104 12.2652 8.41739 15.2636
457 1 -1.1104 12.2766 5.52032 17.907
458 1 -1.1104 12.2744 11.1325 18.0902
459 2 2.2208 10.8302 9.78464 19.3921
460 1 -1.1104 12.3232 5.72574 15.2135
462 1 -1.1104 12.176 11.1151 15.2464
464 1 -1.1104 9.46174 8.35874 18.1472
465 2 2.2208 8.07196 6.90315 19.4845
466 2 2.2208 8.04384 12.5768 19.3176
467 1 -1.1104 9.45706 8.38325 15.4172
469 2 2.2208 8.00025 9.81277 16.6529
470 1 -1.1104 9.4246 5.40781 18.074
471 1 -1.1104 9.44995 11.1823 17.9906
472 1 -1.1104 9.45973 5.53155 15.0645
474 1 -1.1104 9.45339 11.1954 15.1285
476 2 2.2208 7.98068 6.99385 13.845
323 2 2.2208 10.9819 9.79315 13.6619
537 2 2.2208 8.04519 15.3956 22.0891
478 2 2.2208 5.16988 18.0672 16.3422
479 1 -1.1104 1.10561 13.9609 17.9104
480 1 -1.1104 1.02858 19.5415 17.7286
483 1 -1.1104 0.785307 13.9833 15.228
485 1 -1.1104 0.951235 19.6616 15.1068
491 1 -1.1104 0.967024 16.767 17.9919
493 2 2.2208 5.33142 15.5113 19.2529
494 2 2.2208 5.27734 21.0859 19.3691
495 1 -1.1104 1.0078 16.7405 14.961
499 1 -1.1104 3.9737 14.1724 17.779
500 1 -1.1104 3.89735 19.5317 17.9878
501 2 2.2208 2.39227 18.1855 19.2338
502 1 -1.1104 3.73447 13.8199 15.045
504 1 -1.1104 3.67626 19.5207 15.2307
506 2 2.2208 2.3541 15.4441 16.489
507 2 2.2208 2.41663 20.9794 16.552
508 1 -1.1104 3.82078 16.7431 17.7895
509 1 -1.1104 3.8069 16.6827 15.0872
496 1 -1.1104 0.951591 16.6574 20.6385
492 1 -1.1104 6.74079 16.9004 17.7967
482 1 -1.1104 6.74293 19.5236 17.7963
486 1 -1.1104 1.04676 19.5517 20.5833
512 2 2.2208 5.11499 21.0261 13.6712
487 1 -1.1104 6.55955 14.1263 15.0902
481 1 -1.1104 6.65754 14.0686 17.88
324 2 2.2208 5.14069 15.2347 13.6198
510 1 -1.1104 3.90057 16.8859 20.5788
484 1 -1.1104 1.07269 13.8566 20.7813
538 2 2.2208 8.10056 20.9596 22.0596
635 1 -1.1104 12.1234 19.5031 23.5249
8647 2 2.2208 -0.225735 -4.22695 16.6141
489 1 -1.1104 6.55453 19.6999 15.028
658 1 -1.1104 12.213 19.5321 26.2339
490 1 -1.1104 6.64159 19.5637 20.6108
497 1 -1.1104 6.65206 16.8781 14.9709
531 1 -1.1104 9.49046 19.4659 20.6791
519 1 -1.1104 12.2915 19.5337 20.722
513 2 2.2208 10.9392 18.0956 16.4328
514 1 -1.1104 12.1376 13.8761 17.966
515 1 -1.1104 12.2144 19.3774 17.9208
516 1 -1.1104 12.2343 14.0032 15.2427
518 1 -1.1104 12.1675 19.6182 15.0055
520 1 -1.1104 12.2259 16.5855 17.9981
521 2 2.2208 10.7395 15.3251 19.3237
522 2 2.2208 10.9103 20.911 19.2198
523 1 -1.1104 12.6821 16.7183 15.2114
525 1 -1.1104 9.46035 13.9546 17.9137
526 1 -1.1104 9.45727 19.6189 17.8586
527 2 2.2208 8.13385 18.1984 19.2766
528 1 -1.1104 9.32939 13.8618 15.0727
530 1 -1.1104 9.41019 19.4816 15.1314
532 2 2.2208 8.07803 15.3746 16.5577
533 2 2.2208 7.95263 20.996 16.3999
534 1 -1.1104 9.44766 16.8207 17.8357
535 1 -1.1104 9.68381 16.5551 15.191
659 1 -1.1104 12.2277 16.8191 23.708
411 2 2.2208 13.4342 12.6382 13.7435
328 2 2.2208 7.99469 18.2282 13.6524
406 2 2.2208 13.5412 15.2665 16.7582
380 2 2.2208 13.6339 6.83568 19.3874
347 1 -1.1104 1.06998 -2.77888 20.6488
366 1 -1.1104 3.92359 -2.89139 20.9296
349 1 -1.1104 1.17755 2.84295 20.7298
373 1 -1.1104 3.83988 -0.0923874 20.9086
604 2 2.2208 13.69 1.3415 25.068
374 2 2.2208 13.6301 3.96734 22.2266
359 1 -1.1104 1.06725 0.0106969 20.7812
368 1 -1.1104 4.08736 2.57328 20.674
541 2 2.2208 5.26831 1.30291 22.1993
542 1 -1.1104 1.02013 -2.85378 23.469
543 1 -1.1104 1.02901 2.65908 23.5465
546 1 -1.1104 0.985628 -2.86999 26.2689
547 1 -1.1104 0.96759 2.82083 26.5127
550 1 -1.1104 1.12958 0.101856 23.4577
552 2 2.2208 5.29351 -1.49614 24.9767
554 1 -1.1104 1.19267 -0.0664422 26.3513
556 1 -1.1104 3.73049 -2.90279 23.6026
557 1 -1.1104 3.90249 2.74115 23.4897
558 2 2.2208 2.56964 1.25035 24.8425
559 1 -1.1104 3.94991 -2.99301 26.3026
560 1 -1.1104 3.88131 2.69482 26.4482
561 2 2.2208 2.51344 -1.48043 22.156
562 2 2.2208 2.41642 4.1611 22.2271
563 1 -1.1104 3.99089 -0.100745 23.5758
564 1 -1.1104 3.91948 -0.234377 26.1829
553 2 2.2208 5.29452 4.04497 25.1109
9292 2 2.2208 -0.390476 1.51996 22.056
576 2 2.2208 -0.293219 4.07729 24.9111
9333 2 2.2208 -0.351265 -1.42665 24.7128
548 1 -1.1104 6.64314 -2.9061 26.5202
9470 2 2.2208 -0.475957 18.1658 16.4575
9469 2 2.2208 -0.504139 15.3115 19.2522
601 2 2.2208 7.9571 -4.34236 25.0986
361 1 -1.1104 6.56179 -0.0870198 20.8792
353 1 -1.1104 6.7458 2.7997 20.7613
545 1 -1.1104 6.63146 2.6304 23.6047
555 1 -1.1104 6.5955 0.0178093 26.5055
549 1 -1.1104 6.54015 2.79053 26.4644
544 1 -1.1104 6.66026 -2.86136 23.669
551 1 -1.1104 6.689 -0.196902 23.6862
399 1 -1.1104 9.46736 2.76042 20.9111
390 1 -1.1104 12.3303 2.40006 20.928
397 1 -1.1104 9.43033 -2.95587 20.7726
388 1 -1.1104 12.4216 -2.8225 21.1928
404 1 -1.1104 9.44248 0.176482 21.1654
577 2 2.2208 10.7234 1.4438 22.4607
578 1 -1.1104 12.5047 -2.92454 23.7549
579 1 -1.1104 12.149 2.84976 23.7651
580 1 -1.1104 12.2579 -2.83855 26.4481
581 1 -1.1104 12.2837 2.78371 26.4065
582 1 -1.1104 12.2757 0.0218129 23.519
583 2 2.2208 10.7164 -1.48822 25.1241
584 2 2.2208 10.7579 4.19168 25.1002
585 1 -1.1104 12.4546 -0.0209221 26.245
586 1 -1.1104 9.60093 -2.88446 23.649
587 1 -1.1104 9.34723 2.84545 23.6466
588 2 2.2208 8.00605 1.33712 25.159
589 1 -1.1104 9.29299 -3.05548 26.4278
590 1 -1.1104 9.58115 2.70432 26.4671
591 2 2.2208 8.20866 -1.48607 22.1886
592 2 2.2208 7.98677 4.13077 22.1622
593 1 -1.1104 9.42464 -0.102721 23.8493
594 1 -1.1104 9.61846 -0.18209 26.5537
381 2 2.2208 13.5779 9.78815 16.7073
419 1 -1.1104 0.875186 8.2778 20.687
439 1 -1.1104 3.80727 8.27318 20.6427
446 1 -1.1104 3.76369 11.1746 20.6649
421 1 -1.1104 6.63354 8.4762 20.7831
434 1 -1.1104 6.57996 11.3148 20.6731
428 1 -1.1104 0.918211 5.50782 20.9254
430 1 -1.1104 0.942695 11.0585 20.6639
606 2 2.2208 5.16218 6.91451 22.1364
607 2 2.2208 5.22436 12.6399 22.0561
608 1 -1.1104 1.08472 8.46137 23.5414
610 1 -1.1104 1.14234 8.14809 26.4673
612 1 -1.1104 1.03104 5.52625 23.5494
613 1 -1.1104 1.07484 11.2801 23.5165
616 2 2.2208 5.16835 9.83789 24.7922
617 1 -1.1104 1.09166 5.4124 26.168
618 1 -1.1104 0.983708 11.0488 26.1554
621 1 -1.1104 3.77383 8.44503 23.2963
622 2 2.2208 2.51954 6.94813 24.9412
623 2 2.2208 2.54217 12.5131 24.8359
624 1 -1.1104 3.88326 8.34397 26.2032
625 2 2.2208 2.45359 9.71389 22.1586
626 1 -1.1104 3.8606 5.55039 23.5919
627 1 -1.1104 3.88507 11.3092 23.3553
628 1 -1.1104 3.8857 5.5306 26.4956
629 1 -1.1104 3.83544 11.1436 26.2292
517 1 -1.1104 12.268 13.8911 20.6997
449 1 -1.1104 9.34766 19.4946 23.5098
568 2 2.2208 10.8616 20.9785 24.908
473 1 -1.1104 9.57368 5.55181 20.8445
456 1 -1.1104 12.3885 8.11423 20.9354
614 1 -1.1104 6.62106 5.64107 23.5796
611 1 -1.1104 6.58759 8.52903 26.2269
615 1 -1.1104 6.60008 11.216 23.511
468 1 -1.1104 9.60178 8.12949 21.0514
463 1 -1.1104 12.2917 11.1423 20.8015
461 1 -1.1104 12.3919 5.34428 20.7324
432 1 -1.1104 6.60322 5.62198 20.7021
609 1 -1.1104 6.53462 8.38461 23.5585
620 1 -1.1104 6.7315 11.2157 26.2137
619 1 -1.1104 6.61239 5.58237 26.3949
475 1 -1.1104 9.40894 11.0046 20.8329
637 1 -1.1104 9.5508 11.2287 26.4212
638 1 -1.1104 9.19775 5.46563 26.3203
639 1 -1.1104 9.50042 11.1905 23.7409
640 1 -1.1104 9.37405 5.59056 23.6619
641 2 2.2208 8.05376 9.75759 22.3221
642 1 -1.1104 9.33814 8.4668 26.3781
643 2 2.2208 8.10749 12.5224 24.9198
644 2 2.2208 7.91333 6.89195 24.9045
645 2 2.2208 10.8425 6.83794 22.2958
646 2 2.2208 10.8331 12.6124 22.1789
647 1 -1.1104 12.278 8.31814 23.5929
648 1 -1.1104 12.2742 8.35791 26.4918
649 1 -1.1104 12.2573 5.5024 23.6196
650 1 -1.1104 12.1524 11.2089 23.6478
651 2 2.2208 10.8586 9.74973 24.9689
652 1 -1.1104 12.0328 5.69038 26.3381
653 1 -1.1104 12.3307 11.1047 26.5402
654 1 -1.1104 9.43352 8.38441 23.6545
539 1 -1.1104 9.49561 16.7724 23.5395
565 1 -1.1104 9.43661 13.8751 23.5131
447 2 2.2208 -0.344659 4.0934 13.6233
9293 2 2.2208 -0.422013 20.9356 24.9238
503 1 -1.1104 3.84999 14.0511 20.7099
498 1 -1.1104 6.67018 16.8953 20.6931
505 1 -1.1104 3.80785 19.7094 20.7729
596 2 2.2208 2.51186 15.3755 22.0844
597 2 2.2208 2.48188 20.8845 22.1508
655 1 -1.1104 3.90134 16.6388 23.4325
656 1 -1.1104 1.15633 16.7611 23.4637
661 1 -1.1104 3.85733 19.4311 23.4482
663 1 -1.1104 3.95162 13.904 23.4957
665 1 -1.1104 1.07717 19.6672 26.3503
666 1 -1.1104 1.00327 16.8174 26.2761
667 1 -1.1104 1.18471 14.0022 26.3251
669 2 2.2208 5.16356 20.9565 25.0197
670 2 2.2208 5.24933 15.3723 24.7239
672 1 -1.1104 0.937978 19.4162 23.5249
673 1 -1.1104 1.25958 13.8397 23.5021
674 2 2.2208 5.34932 18.2299 22.1088
675 1 -1.1104 3.82396 19.5997 26.247
676 2 2.2208 2.63704 18.0758 24.9224
677 1 -1.1104 3.79716 16.6524 26.4113
678 1 -1.1104 3.89495 13.9424 26.4196
679 1 -1.1104 6.59316 16.8157 23.4825
567 1 -1.1104 12.2683 16.7889 26.3736
636 1 -1.1104 12.2384 13.9191 26.3164
633 2 2.2208 10.8384 18.1753 22.1353
450 2 2.2208 8.09981 18.2454 24.9618
488 1 -1.1104 6.62691 14.1226 20.535
524 1 -1.1104 12.0615 16.5637 20.8843
529 1 -1.1104 9.39081 13.9761 20.7425
660 2 2.2208 10.7663 15.3496 24.9728
634 1 -1.1104 12.2104 13.995 23.6162
477 1 -1.1104 9.39213 13.9963 26.404
511 1 -1.1104 9.48538 19.6922 26.2496
536 1 -1.1104 9.40894 16.7607 20.7812
664 1 -1.1104 6.70503 16.8084 26.2368
451 1 -1.1104 6.5556 19.4919 26.3488
668 1 -1.1104 6.61165 19.6346 23.5868
405 2 2.2208 13.6682 -4.31734 19.3238
9288 2 2.2208 13.688 4.11366 16.58
573 2 2.2208 -0.194629 1.20289 27.7149
331 2 2.2208 2.41777 4.14561 27.8182
337 2 2.2208 2.37756 21.0656 27.6576
603 2 2.2208 8.03646 20.9412 27.77
322 2 2.2208 7.93239 12.5796 13.7191
680 2 2.2208 5.15663 23.7251 5.27178
681 2 2.2208 5.2524 29.3437 5.20721
682 1 -1.1104 1.19473 25.1682 0.942968
683 1 -1.1104 0.898012 25.1206 3.82828
684 1 -1.1104 1.05323 22.3536 1.0969
685 1 -1.1104 0.936638 28.0136 1.11482
686 2 2.2208 5.35868 26.5329 2.42645
687 1 -1.1104 0.902053 22.3026 3.80471
688 1 -1.1104 0.996831 27.9456 3.78404
689 1 -1.1104 3.83853 25.3033 0.970009
690 2 2.2208 2.45275 23.8145 2.41063
691 2 2.2208 2.40984 29.2963 2.42612
692 1 -1.1104 3.78344 25.2394 3.65902
693 2 2.2208 2.47617 26.534 5.202
694 1 -1.1104 3.80211 22.5126 0.873126
695 1 -1.1104 3.76828 28.0821 1.04776
696 1 -1.1104 3.70348 22.4715 3.91702
697 1 -1.1104 3.884 27.9317 3.76312
824 1 -1.1104 1.03657 27.9793 6.57046
821 1 -1.1104 0.984444 25.1857 6.64239
828 1 -1.1104 3.79014 22.3255 6.63802
827 1 -1.1104 3.82009 25.201 6.65423
704 1 -1.1104 6.58611 28.0471 1.02756
702 1 -1.1104 6.6437 25.0493 3.93238
1226 2 2.2208 -0.393336 29.4117 -0.465182
829 1 -1.1104 3.71983 27.9639 6.60846
823 1 -1.1104 0.937217 22.4251 6.74338
698 2 2.2208 -0.334712 29.365 5.24804
705 1 -1.1104 6.54084 22.3759 3.82741
703 1 -1.1104 6.59632 22.2992 1.0272
706 1 -1.1104 6.58025 27.9314 3.84839
701 1 -1.1104 6.67689 25.2529 1.00964
707 2 2.2208 10.8865 23.7452 5.3911
708 2 2.2208 10.8037 29.3362 5.21804
709 1 -1.1104 12.1037 25.1888 1.10229
710 1 -1.1104 12.296 25.1465 3.86881
711 1 -1.1104 12.2106 22.3728 1.03752
712 1 -1.1104 12.3455 27.9833 0.98721
713 2 2.2208 10.7437 26.6266 2.41309
714 1 -1.1104 12.2573 22.4713 3.8408
715 1 -1.1104 12.2287 27.9669 3.80885
716 1 -1.1104 9.29237 25.3283 1.28587
717 2 2.2208 8.04302 23.7018 2.62886
718 2 2.2208 7.94736 29.4485 2.37751
719 1 -1.1104 9.48381 25.2237 4.05743
720 2 2.2208 8.01936 26.4804 5.27978
721 1 -1.1104 9.37262 22.4068 1.2133
722 1 -1.1104 9.44243 27.9418 0.818197
723 1 -1.1104 9.43361 22.3647 3.8522
724 1 -1.1104 9.42989 28.0156 3.88311
855 1 -1.1104 12.3652 22.3491 6.63273
825 1 -1.1104 6.63374 22.2701 6.71545
826 1 -1.1104 6.73974 27.8384 6.6629
859 1 -1.1104 9.45956 27.9925 6.66057
857 1 -1.1104 9.49793 24.9799 6.74415
854 1 -1.1104 12.3231 25.1684 6.72049
822 1 -1.1104 6.71955 25.0057 6.74731
856 1 -1.1104 12.0976 27.9011 6.53464
994 1 -1.1104 9.40953 47.4827 9.4932
728 2 2.2208 5.328 34.9065 5.24963
729 1 -1.1104 1.15229 30.8428 1.08258
730 1 -1.1104 1.0955 36.562 0.877956
732 1 -1.1104 0.904399 30.7529 3.85948
733 1 -1.1104 1.10343 36.5089 3.76429
735 1 -1.1104 1.09459 33.6827 0.913164
736 2 2.2208 5.17919 32.2687 2.26764
737 2 2.2208 5.17026 37.7275 2.47858
738 1 -1.1104 1.1282 33.6105 3.80408
740 1 -1.1104 3.96565 30.7609 0.987089
741 1 -1.1104 3.95548 36.4148 0.971525
742 2 2.2208 2.4962 35.0467 2.34818
743 1 -1.1104 3.80599 30.682 3.7866
744 1 -1.1104 3.76173 36.2142 3.91168
745 2 2.2208 2.55228 32.199 5.2016
746 2 2.2208 2.49012 37.6977 5.3409
747 1 -1.1104 4.01998 33.5463 0.913968
748 1 -1.1104 3.89781 33.4529 3.7882
879 1 -1.1104 1.08343 36.3689 6.57464
882 1 -1.1104 0.996065 33.5569 6.6303
731 1 -1.1104 6.68571 36.3679 1.04381
754 1 -1.1104 6.69025 33.6894 1.13615
1281 2 2.2208 2.46499 32.1979 -0.375916
753 1 -1.1104 6.53807 30.903 3.80044
9914 2 2.2208 -0.301094 34.9679 5.25374
880 1 -1.1104 6.43688 30.6201 6.63017
884 1 -1.1104 3.83259 30.7703 6.68843
1004 2 2.2208 8.17397 40.7066 13.6019
1594 1 -1.1104 9.5828 47.6056 12.1923
1009 2 2.2208 8.14734 32.3474 -0.496615
734 1 -1.1104 6.57703 36.484 3.82048
739 1 -1.1104 6.80164 33.6698 3.94983
752 1 -1.1104 6.70896 30.973 0.975843
755 2 2.2208 10.9675 35.0018 5.1872
756 1 -1.1104 12.3934 30.7693 0.894635
757 1 -1.1104 12.3209 36.3446 0.902468
758 1 -1.1104 12.2741 30.7991 3.6095
759 1 -1.1104 12.1473 36.3642 3.74448
760 1 -1.1104 12.1907 33.5649 1.03209
761 2 2.2208 10.89 32.1317 2.34678
762 2 2.2208 10.9732 37.8907 2.28706
763 1 -1.1104 12.4081 33.6895 3.87399
764 1 -1.1104 9.4694 30.8325 0.968964
765 1 -1.1104 9.41722 36.5232 0.934372
766 2 2.2208 8.19066 34.9816 2.42482
767 1 -1.1104 9.5081 30.8076 3.83581
768 1 -1.1104 9.37546 36.4518 3.68248
769 2 2.2208 8.08145 32.244 5.208