ITEM: TIMESTEP
90000
ITEM: NUMBER OF ATOMS
17820
ITEM: BOX BOUNDS pp pp pp
-3.6738720964666166e-01 2.7707387209646161e+01
-4.3750868365241828e+00 3.3245508683652571e+02
-3.6268735632324250e-01 2.7702687356323043e+01
ITEM: ATOMS id type q x y z
1 2 2.2208 5.1409 1.16519 5.32111
2 1 -1.1104 0.928465 -2.97088 0.749382
3 1 -1.1104 0.770689 2.64108 0.944987
6 1 -1.1104 1.02548 -3.12874 3.58641
7 1 -1.1104 0.83131 2.74753 3.80063
10 1 -1.1104 1.02482 -0.158186 1.02057
12 2 2.2208 5.18465 -1.50989 2.38235
13 2 2.2208 5.14964 4.06888 2.49813
14 1 -1.1104 0.916276 -0.203052 3.69032
16 1 -1.1104 3.79207 -2.93313 0.997364
17 1 -1.1104 3.78566 2.62059 1.12018
18 2 2.2208 2.37062 1.26041 2.45431
19 1 -1.1104 3.9185 -2.93044 3.77137
20 1 -1.1104 3.70162 2.70832 3.69276
21 2 2.2208 2.41625 -1.64996 5.0681
22 2 2.2208 2.27215 3.97741 5.20511
23 1 -1.1104 3.76538 -0.107974 1.05749
24 1 -1.1104 3.71599 -0.231911 3.7203
166 1 -1.1104 1.11259 -3.11464 6.622
566 2 2.2208 2.26161 -1.51806 -0.457288
4 1 -1.1104 6.58707 -3.08519 0.937802
5 1 -1.1104 6.67663 2.7661 1.08379
202 2 2.2208 2.35965 -4.47437 8.02561
11 1 -1.1104 6.67427 -0.150728 0.984262
8 1 -1.1104 6.76895 -2.93236 3.75931
28 2 2.2208 2.45492 -4.51127 2.35521
330 2 2.2208 5.12263 1.21218 -0.216943
15 1 -1.1104 6.48885 -0.231852 3.77515
595 2 2.2208 10.7576 1.23017 -0.337176
8558 2 2.2208 5.07766 -4.3805 10.787
9 1 -1.1104 6.4021 2.49704 3.75686
31 2 2.2208 10.6612 1.1151 5.18
32 1 -1.1104 12.1355 -3.01658 1.10047
33 1 -1.1104 12.182 2.41297 1.12482
34 1 -1.1104 12.1873 -2.91682 3.86563
35 1 -1.1104 12.0548 2.52454 3.87073
36 1 -1.1104 12.2557 -0.359864 1.06646
37 2 2.2208 10.7741 -1.57981 2.48613
39 1 -1.1104 12.1865 -0.202032 3.97211
40 1 -1.1104 9.3546 -3.07747 0.982855
41 1 -1.1104 9.33528 2.58318 0.949854
42 2 2.2208 7.89638 1.26337 2.30058
43 1 -1.1104 9.45974 -2.96571 3.71919
44 1 -1.1104 9.24176 2.52629 3.79812
45 2 2.2208 7.98734 -1.58037 5.21073
46 2 2.2208 7.98443 3.92245 5.18147
47 1 -1.1104 9.40249 -0.262533 1.12847
48 1 -1.1104 9.47754 -0.114507 3.75697
38 2 2.2208 10.7217 3.95246 2.41016
206 1 -1.1104 12.2288 2.82163 6.70453
9235 2 2.2208 13.5188 -1.64565 5.1786
9234 2 2.2208 13.5889 1.17988 2.51141
326 2 2.2208 10.7769 20.7242 13.4472
316 2 2.2208 -0.37911 15.3268 13.4541
50 2 2.2208 10.8251 18.1744 10.646
334 2 2.2208 8.04655 -1.71123 -0.363693
602 2 2.2208 13.52 -1.67827 -0.425336
54 2 2.2208 5.06873 6.85444 5.1375
55 2 2.2208 5.34811 12.417 5.19594
56 1 -1.1104 1.03361 8.27841 0.990053
58 1 -1.1104 0.820667 8.36162 3.81414
60 1 -1.1104 0.854971 5.32319 0.974493
61 1 -1.1104 0.91402 11.039 0.941794
66 2 2.2208 5.10307 9.66393 2.37476
67 1 -1.1104 0.950801 5.55987 3.80423
68 1 -1.1104 0.922123 11.1309 3.83279
71 1 -1.1104 3.74272 8.33849 0.859059
72 2 2.2208 2.28519 6.9292 2.36322
73 2 2.2208 2.31553 12.5476 2.21498
74 1 -1.1104 3.60965 8.25143 3.80476
75 2 2.2208 2.32775 9.76644 5.21388
76 1 -1.1104 3.64918 5.47578 1.15208
77 1 -1.1104 3.76128 11.097 0.818338
79 1 -1.1104 3.73867 5.36267 3.77502
80 1 -1.1104 3.65172 11.0273 3.73336
234 1 -1.1104 0.946462 8.35839 6.77049
57 1 -1.1104 6.5451 8.3185 1.0916
64 1 -1.1104 6.53264 11.1372 1.02263
63 1 -1.1104 6.58195 5.46261 1.05087
69 1 -1.1104 6.45217 5.49527 3.81315
78 1 -1.1104 3.79126 11.1497 6.55597
62 1 -1.1104 1.02711 11.1298 6.74307
238 1 -1.1104 3.56311 8.26627 6.61655
51 1 -1.1104 12.2478 13.9204 12.1176
8557 2 2.2208 7.95829 -4.37755 2.53052
630 2 2.2208 5.08185 6.7801 -0.271171
59 1 -1.1104 6.56223 8.37269 3.8326
70 1 -1.1104 6.57211 11.1334 3.7615
84 2 2.2208 10.7264 6.84197 5.29731
85 2 2.2208 10.7854 12.4869 5.25506
86 1 -1.1104 12.1762 8.20446 0.952485
87 1 -1.1104 12.2435 8.21324 4.01445
88 1 -1.1104 12.1107 5.35345 1.07678
89 1 -1.1104 12.1457 11.0469 1.12391
91 2 2.2208 10.7706 9.61413 2.44188
92 1 -1.1104 12.1418 5.36856 3.8137
93 1 -1.1104 12.193 11.111 3.74837
94 1 -1.1104 9.37115 8.35264 1.05018
95 2 2.2208 8.02595 6.89902 2.45068
96 2 2.2208 7.98578 12.4281 2.43159
97 1 -1.1104 9.46225 8.06273 3.85488
98 2 2.2208 7.96343 9.61664 5.09199
99 1 -1.1104 9.27771 5.50549 1.21577
100 1 -1.1104 9.30088 11.0929 0.969075
102 1 -1.1104 9.28672 5.27948 3.8699
103 1 -1.1104 9.34813 10.9112 3.74545
90 1 -1.1104 12.1534 11.0638 6.48295
105 2 2.2208 13.526 6.94169 2.3494
340 2 2.2208 8.03742 9.6506 -0.329257
53 2 2.2208 10.8554 -4.37082 5.24597
106 2 2.2208 5.33916 17.9561 5.15406
107 1 -1.1104 1.05763 13.8963 0.86683
109 1 -1.1104 1.03348 19.5052 1.0146
113 1 -1.1104 1.24521 13.9343 3.65239
114 1 -1.1104 0.962724 19.5133 3.71788
116 1 -1.1104 1.0054 16.6871 0.823102
119 2 2.2208 5.24984 15.2623 2.44991
120 2 2.2208 5.22349 20.8004 2.38937
121 1 -1.1104 1.17827 16.7375 3.63792
123 1 -1.1104 3.79989 13.7392 0.942709
125 1 -1.1104 3.77574 19.4304 0.890754
127 2 2.2208 2.41652 18.0506 2.31946
128 1 -1.1104 3.86244 13.7797 3.97462
129 1 -1.1104 3.67923 19.4473 3.60147
130 2 2.2208 2.54368 15.3483 5.20441
131 2 2.2208 2.40849 20.8369 5.14156
132 1 -1.1104 3.81738 16.5952 0.977455
134 1 -1.1104 3.86581 16.5653 3.76942
108 1 -1.1104 0.96221 13.9199 6.51781
117 1 -1.1104 1.06632 16.6464 6.51376
570 2 2.2208 5.26112 -4.2645 -0.357526
122 1 -1.1104 6.67207 16.6459 3.9273
140 1 -1.1104 6.52861 16.8795 1.04938
301 1 -1.1104 0.948131 19.3501 6.39222
133 1 -1.1104 3.87382 16.6998 6.57088
315 2 2.2208 7.9207 20.8797 10.7337
337 2 2.2208 2.45936 20.9294 -0.411106
115 1 -1.1104 6.59307 13.9713 3.78866
139 1 -1.1104 6.4015 19.3962 3.91333
149 1 -1.1104 12.2344 16.8125 6.58037
110 1 -1.1104 6.73687 13.9226 1.05397
138 1 -1.1104 6.70252 19.5693 1.02244
141 2 2.2208 10.8085 17.9799 5.1249
142 1 -1.1104 12.2418 13.8724 1.04854
144 1 -1.1104 12.3787 19.4911 0.915707
146 1 -1.1104 12.2625 13.9773 3.81394
147 1 -1.1104 12.2366 19.3284 3.67694
148 1 -1.1104 12.1568 16.7133 1.04979
150 2 2.2208 10.8464 15.3572 2.52469
151 2 2.2208 10.8739 21.0315 2.41992
152 1 -1.1104 12.3744 16.662 3.81093
153 1 -1.1104 9.53908 13.9618 1.03382
155 1 -1.1104 9.5341 19.3975 1.05057
157 2 2.2208 7.9373 18.1106 2.52108
158 1 -1.1104 9.4822 13.9117 3.82003
159 1 -1.1104 9.41116 19.5133 3.86852
160 2 2.2208 8.03991 15.3045 5.32617
161 2 2.2208 8.04918 20.8445 5.21453
162 1 -1.1104 9.38675 16.6054 1.16499
164 1 -1.1104 9.39771 16.6587 3.74907
163 1 -1.1104 9.43902 16.6427 6.76245
29 2 2.2208 5.22438 -4.34444 5.06559
52 2 2.2208 13.7413 20.9843 5.20291
9039 2 2.2208 13.8112 15.3156 5.18071
9256 2 2.2208 -0.583293 6.86617 -0.30863
174 1 -1.1104 3.79037 -0.309593 6.55937
172 1 -1.1104 3.74701 -3.01007 6.66564
171 1 -1.1104 6.63132 -0.0741465 6.68629
170 1 -1.1104 0.938762 -0.207325 6.58234
173 1 -1.1104 3.65234 2.47687 6.58336
167 1 -1.1104 0.987829 2.69627 6.59602
9236 2 2.2208 -0.469426 9.72081 2.40713
175 2 2.2208 5.15304 1.32268 10.7883
176 1 -1.1104 0.942936 -2.90932 12.2255
177 1 -1.1104 0.9685 2.6807 12.3205
180 1 -1.1104 0.98298 -3.01051 9.48525
181 1 -1.1104 0.816323 2.45884 9.56604
184 1 -1.1104 1.01898 -0.189241 12.2595
186 2 2.2208 5.213 -1.54086 7.88748
188 1 -1.1104 0.904449 -0.235649 9.44028
190 1 -1.1104 3.65006 -3.08274 12.1691
191 1 -1.1104 3.75866 2.67191 12.1415
192 2 2.2208 2.38042 1.10787 8.11282
193 1 -1.1104 3.81875 -3.01797 9.45189
194 1 -1.1104 3.64704 2.67667 9.40349
195 2 2.2208 2.3301 -1.57733 10.8337
196 2 2.2208 2.18057 4.18332 10.8315
197 1 -1.1104 3.63804 -0.0672687 12.1114
198 1 -1.1104 3.81777 -0.183041 9.38268
187 2 2.2208 5.02622 4.04525 8.00316
189 1 -1.1104 6.51936 -0.217615 9.39818
178 1 -1.1104 6.60869 -2.81711 12.1257
182 1 -1.1104 6.62983 -2.86125 9.38965
168 1 -1.1104 6.60985 -2.88999 6.5489
179 1 -1.1104 6.60142 2.69405 12.303
185 1 -1.1104 6.56931 -0.15946 12.2405
183 1 -1.1104 6.57832 2.68915 9.35214
313 1 -1.1104 9.5229 16.6982 9.44823
312 1 -1.1104 9.42737 13.9356 9.30197
205 1 -1.1104 12.2829 -3.25611 6.72133
310 1 -1.1104 9.39715 19.5463 12.0919
169 1 -1.1104 6.4931 2.61213 6.60701
165 2 2.2208 13.6701 18.0414 2.34719
209 1 -1.1104 9.32746 2.69559 6.71783
231 2 2.2208 7.90545 -4.34918 7.94509
210 1 -1.1104 9.35947 -0.14759 6.68231
207 1 -1.1104 12.1079 -0.200811 6.70253
208 1 -1.1104 9.50571 -2.87638 6.52733
211 2 2.2208 10.7204 1.20812 10.9379
212 1 -1.1104 12.2779 -2.90201 12.0975
213 1 -1.1104 12.209 2.53831 12.2618
214 1 -1.1104 12.2176 -2.81422 9.49697
215 1 -1.1104 12.013 2.6942 9.52763
216 1 -1.1104 12.2454 -0.274076 12.3619
217 2 2.2208 10.8435 -1.63152 8.10472
219 1 -1.1104 12.2467 -0.095876 9.48653
220 1 -1.1104 9.5653 -3.18187 12.4638
221 1 -1.1104 9.41453 2.61054 12.3356
222 2 2.2208 8.03743 1.27066 8.07189
223 1 -1.1104 9.40077 -2.9902 9.52312
224 1 -1.1104 9.42331 2.67204 9.60441
225 2 2.2208 8.03151 -1.56087 10.7737
226 2 2.2208 8.08136 4.09536 10.8499
227 1 -1.1104 9.34157 -0.377475 12.2264
228 1 -1.1104 9.32425 -0.146697 9.41101
218 2 2.2208 10.7787 4.21223 8.05442
82 1 -1.1104 12.1747 19.4552 12.054
137 1 -1.1104 12.0196 16.936 12.2121
230 2 2.2208 13.5805 -1.52101 10.8022
104 1 -1.1104 12.4108 13.8856 9.37731
236 1 -1.1104 1.03891 5.50536 6.70474
239 1 -1.1104 3.77429 5.42797 6.57418
237 1 -1.1104 6.49278 5.42566 6.61181
83 2 2.2208 -0.313429 12.5565 5.21559
240 2 2.2208 5.17676 6.80241 10.7813
241 2 2.2208 5.28804 12.4137 10.8484
242 1 -1.1104 1.08706 8.42596 12.2322
244 1 -1.1104 0.972059 8.25474 9.49076
246 1 -1.1104 0.923559 5.44703 12.2975
247 1 -1.1104 0.946099 11.2242 12.2347
250 2 2.2208 5.18266 9.7074 8.0106
251 1 -1.1104 0.648936 5.4563 9.47406
252 1 -1.1104 0.972907 11.165 9.42452
255 1 -1.1104 3.81376 8.19099 12.1758
256 2 2.2208 2.3808 6.88499 7.94321
257 2 2.2208 2.49551 12.5116 8.02877
258 1 -1.1104 3.82315 8.29587 9.32356
259 2 2.2208 2.4524 9.76327 10.7934
260 1 -1.1104 3.5756 5.352 12.3059
261 1 -1.1104 3.7487 11.1828 12.1593
262 1 -1.1104 3.55838 5.4214 9.30698
263 1 -1.1104 3.86542 11.1201 9.46047
8970 2 2.2208 13.5176 9.69921 5.21434
243 1 -1.1104 6.59782 8.12117 12.2327
249 1 -1.1104 6.52211 10.977 12.2202
605 2 2.2208 13.5611 4.08985 -0.252222
248 1 -1.1104 6.53608 5.47843 12.0922
254 1 -1.1104 6.52499 11.0842 9.51147
235 1 -1.1104 6.39813 8.19283 6.65203
267 1 -1.1104 9.23445 8.26542 6.64979
101 1 -1.1104 9.35028 11.0821 6.52508
266 1 -1.1104 12.1336 5.48234 6.59346
65 1 -1.1104 6.70115 10.9834 6.67085
253 1 -1.1104 6.41317 5.4127 9.3759
269 1 -1.1104 9.2507 5.44756 6.63003
245 1 -1.1104 6.68775 8.21387 9.56435
265 1 -1.1104 12.0185 8.19444 6.94183
264 1 -1.1104 9.40441 11.0371 9.25465
268 1 -1.1104 9.42012 5.55323 9.48366
270 1 -1.1104 9.36998 10.9832 12.1151
271 1 -1.1104 9.36683 5.33888 12.3307
272 2 2.2208 8.00184 9.66977 10.7845
273 1 -1.1104 9.5512 8.29176 9.46758
274 2 2.2208 7.99034 12.4496 8.06986
275 2 2.2208 7.90158 6.87429 8.06792
276 2 2.2208 10.7705 6.79811 11.1424
277 2 2.2208 10.9826 12.3562 10.772
278 1 -1.1104 12.1779 8.05222 12.4399
279 1 -1.1104 12.2164 5.31978 12.3063
280 1 -1.1104 12.205 11.2884 12.3584
281 2 2.2208 10.6668 9.68438 7.99958
282 1 -1.1104 12.115 5.79233 9.39223
283 1 -1.1104 12.0754 10.8657 9.38927
284 1 -1.1104 9.37792 8.32651 12.1444
9151 2 2.2208 13.6885 12.2843 8.16469
200 2 2.2208 10.8875 20.7609 7.90312
156 1 -1.1104 9.48269 19.4997 6.62071
126 1 -1.1104 3.81737 19.407 6.57813
289 1 -1.1104 6.62921 13.7548 9.46649
124 1 -1.1104 3.86156 13.9175 6.73117
285 1 -1.1104 3.74776 19.4208 12.2705
286 1 -1.1104 3.97629 13.8668 12.2182
290 1 -1.1104 1.05033 19.3935 9.50696
291 1 -1.1104 1.09689 16.54 9.27092
292 2 2.2208 5.0667 20.92 8.00262
293 1 -1.1104 1.06729 13.7791 9.42471
294 2 2.2208 5.25828 15.3362 7.98344
297 1 -1.1104 1.03212 19.4256 12.2266
298 1 -1.1104 1.20283 14.0085 12.2621
299 2 2.2208 5.18977 18.0301 10.7308
300 1 -1.1104 3.70026 19.5194 9.32606
302 2 2.2208 2.3812 18.1212 8.08996
303 1 -1.1104 3.87248 16.7474 9.36955
304 1 -1.1104 3.9423 13.9022 9.40539
306 1 -1.1104 0.975979 16.6544 12.122
307 1 -1.1104 3.79568 16.5374 12.1776
308 2 2.2208 2.4869 20.9041 10.8987
309 2 2.2208 2.41126 15.2247 10.7373
295 1 -1.1104 6.64173 19.4906 12.1897
288 1 -1.1104 6.651 16.6008 9.50228
296 1 -1.1104 6.64525 13.8939 12.0451
329 2 2.2208 13.5476 18.1783 13.457
325 2 2.2208 2.38252 17.8369 13.5481
27 2 2.2208 13.6902 18.1632 7.88275
233 2 2.2208 8.05183 15.0734 10.7854
314 1 -1.1104 9.27598 16.5596 12.1894
311 2 2.2208 8.02281 18.0681 8.01799
111 1 -1.1104 6.73801 13.8439 6.72679
118 1 -1.1104 6.64843 16.688 6.63994
154 1 -1.1104 9.37785 13.9747 6.55918
145 1 -1.1104 12.3651 19.5654 6.42447
136 1 -1.1104 12.3026 19.4495 9.21053
9197 2 2.2208 13.6716 20.9545 10.6435
204 1 -1.1104 12.3378 16.7374 9.35611
203 1 -1.1104 9.3875 19.5273 9.31406
199 2 2.2208 10.9244 15.2636 8.0155
112 1 -1.1104 6.62668 19.3241 6.58654
287 1 -1.1104 6.43346 19.4746 9.37267
229 1 -1.1104 9.52866 13.722 12.1511
305 1 -1.1104 6.58617 16.6533 12.2404
143 1 -1.1104 12.2043 13.7951 6.69822
382 2 2.2208 2.31975 1.336 13.5635
408 2 2.2208 8.08969 -4.33158 13.6629
323 2 2.2208 10.9293 9.5979 13.6163
324 2 2.2208 5.21404 15.1579 13.4704
328 2 2.2208 7.94371 18.0935 13.4973
327 2 2.2208 10.6951 15.2555 13.6222
9474 2 2.2208 13.6425 9.6624 -0.400555
632 2 2.2208 5.1677 12.4045 -0.346655
339 2 2.2208 10.7534 6.87813 -0.397294
341 2 2.2208 5.07562 1.19882 16.3551
342 1 -1.1104 1.08987 -3.01936 17.8855
343 1 -1.1104 1.05045 2.57499 17.8682
346 1 -1.1104 1.03424 -2.91015 15.1795
348 1 -1.1104 1.03463 2.5764 15.1104
354 1 -1.1104 0.94323 -0.114755 17.769
356 2 2.2208 5.26228 -1.50591 19.3606
357 2 2.2208 5.30141 3.88606 19.3092
358 1 -1.1104 1.02765 0.0341794 14.966
362 1 -1.1104 4.08559 -2.95353 17.7395
363 1 -1.1104 3.77413 2.67205 17.8472
364 2 2.2208 2.51358 1.29934 19.1922
365 1 -1.1104 3.71882 -2.87405 15.0315
367 1 -1.1104 3.83157 2.66995 14.9273
369 2 2.2208 2.42273 -1.46912 16.3246
370 2 2.2208 2.38748 4.07002 16.5763
371 1 -1.1104 3.82535 -0.219364 17.73
372 1 -1.1104 3.84364 -0.154704 14.9205
355 1 -1.1104 6.45897 -0.219121 17.8505
332 2 2.2208 13.5824 15.3461 27.5765
360 1 -1.1104 6.56384 -0.158608 14.9966
347 1 -1.1104 1.06425 -2.95987 20.6502
361 1 -1.1104 6.84273 -0.0909773 20.8506
9468 2 2.2208 -0.378445 20.806 19.2904
353 1 -1.1104 6.69727 2.52889 20.7576
537 2 2.2208 7.96279 15.3272 21.9993
383 2 2.2208 5.19432 3.98513 13.6886
352 1 -1.1104 6.53669 2.60445 15.1462
350 1 -1.1104 6.52553 -2.93838 14.7774
345 1 -1.1104 6.71551 2.53316 18.0752
405 2 2.2208 13.6518 -4.42504 19.217
9288 2 2.2208 13.5084 4.16385 16.4702
344 1 -1.1104 6.94074 -2.88422 17.9943
384 2 2.2208 10.6847 1.1172 16.5552
385 1 -1.1104 12.4326 -3.29622 17.7615
386 1 -1.1104 12.211 2.69743 17.913
387 1 -1.1104 12.2563 -3.0188 14.832
389 1 -1.1104 12.0157 2.55961 15.1123
391 1 -1.1104 12.3468 -0.242256 17.7334
393 1 -1.1104 12.2243 -0.213509 15.1316
394 1 -1.1104 9.36212 2.51457 18.0579
395 2 2.2208 8.10746 1.16453 19.4615
396 1 -1.1104 9.36052 -3.02564 15.4007
398 1 -1.1104 9.31514 2.62879 15.2911
400 2 2.2208 7.97992 -1.51434 16.4231
401 2 2.2208 8.02451 3.92833 16.5804
402 1 -1.1104 9.22615 -0.264503 17.8442
403 1 -1.1104 9.44872 -0.246348 14.997
392 2 2.2208 10.8474 3.8912 19.2991
413 2 2.2208 10.6847 3.96886 13.8013
318 2 2.2208 7.85216 1.1516 13.5883
409 2 2.2208 13.586 -1.57099 16.3721
9293 2 2.2208 -0.365413 20.8498 24.6936
448 2 2.2208 13.5721 1.27582 13.7217
412 2 2.2208 10.7839 -1.67948 13.6024
414 2 2.2208 5.13259 6.79802 16.4605
415 2 2.2208 5.23012 12.3496 16.3279
416 1 -1.1104 0.867889 8.27274 17.88
418 1 -1.1104 1.04129 8.20624 15.0529
422 1 -1.1104 0.973397 5.52284 17.8328
423 1 -1.1104 1.10428 11.0841 17.866
426 2 2.2208 5.26955 9.67338 19.1398
427 1 -1.1104 1.06773 5.39381 15.0914
429 1 -1.1104 1.03943 11.1003 15.0669
435 1 -1.1104 3.78754 8.20913 17.7396
436 2 2.2208 2.40865 6.82643 19.2903
437 2 2.2208 2.35391 12.4939 19.3687
438 1 -1.1104 3.97081 8.14411 15.017
440 2 2.2208 2.43819 9.62497 16.3897
441 1 -1.1104 3.73536 5.37784 17.9103
442 1 -1.1104 3.84806 11.0315 17.74
443 1 -1.1104 3.70982 5.41876 15.1338
445 1 -1.1104 3.91495 10.9512 14.8427
658 1 -1.1104 12.3397 19.3138 26.2913
425 1 -1.1104 6.69018 10.8882 17.9267
420 1 -1.1104 6.51492 8.14862 14.9951
433 1 -1.1104 6.84127 10.9756 15.1164
434 1 -1.1104 6.599 11.0866 20.6314
439 1 -1.1104 3.77629 8.19599 20.5414
424 1 -1.1104 6.52486 5.42303 17.9681
430 1 -1.1104 1.02216 11.057 20.6734
419 1 -1.1104 0.968914 8.23319 20.6377
431 1 -1.1104 6.50624 5.34621 14.9548
417 1 -1.1104 6.49856 8.25807 17.7812
452 2 2.2208 10.8618 6.76139 16.4725
453 2 2.2208 10.8834 12.5011 16.4965
454 1 -1.1104 12.2015 8.20229 17.8553
455 1 -1.1104 12.2691 8.20439 15.1162
457 1 -1.1104 12.217 5.42813 17.8072
458 1 -1.1104 12.222 11.0152 17.8637
459 2 2.2208 10.8752 9.56024 19.2016
460 1 -1.1104 12.1629 5.38599 15.0143
462 1 -1.1104 12.39 11.0896 15.1499
464 1 -1.1104 9.40497 8.25974 17.7684
465 2 2.2208 8.05005 6.84522 19.2635
466 2 2.2208 8.09662 12.4139 19.211
467 1 -1.1104 9.38887 8.22769 14.9776
469 2 2.2208 8.07708 9.54063 16.2927
470 1 -1.1104 9.46737 5.51202 18.0608
471 1 -1.1104 9.43963 11.2197 17.9113
472 1 -1.1104 9.37446 5.35195 15.266
474 1 -1.1104 9.60638 10.9895 15.0207
411 2 2.2208 13.3642 12.7259 13.7662
381 2 2.2208 13.6152 9.6756 16.4449
599 2 2.2208 13.5834 12.4958 19.3448
476 2 2.2208 8.00628 6.7277 13.663
660 2 2.2208 10.6127 15.3543 24.8705
475 1 -1.1104 9.45248 10.9441 20.6234
461 1 -1.1104 12.3805 5.42818 20.575
379 2 2.2208 -0.409337 -1.47678 13.6505
478 2 2.2208 5.15717 18.0347 16.3555
479 1 -1.1104 1.13786 13.7898 17.8557
480 1 -1.1104 1.03161 19.6043 17.7421
483 1 -1.1104 0.744188 13.9119 14.9567
485 1 -1.1104 0.984639 19.5125 14.9778
491 1 -1.1104 1.01696 16.7254 17.8172
493 2 2.2208 5.15661 15.2167 19.095
494 2 2.2208 5.31931 20.993 19.2928
495 1 -1.1104 0.913072 16.643 14.8551
499 1 -1.1104 3.74559 13.9676 17.7739
500 1 -1.1104 3.91021 19.5188 17.7483
501 2 2.2208 2.49523 18.064 19.1708
502 1 -1.1104 3.68142 13.7526 15.0121
504 1 -1.1104 3.75325 19.3026 15.0224
506 2 2.2208 2.35324 15.2649 16.3741
507 2 2.2208 2.42148 20.8797 16.3442
508 1 -1.1104 3.76975 16.656 17.6582
509 1 -1.1104 3.71679 16.4885 14.9511
492 1 -1.1104 6.47635 16.6429 17.8582
486 1 -1.1104 1.09219 19.4465 20.7158
484 1 -1.1104 0.869037 13.9486 20.637
487 1 -1.1104 6.55287 13.7582 14.8571
510 1 -1.1104 3.73403 16.525 20.5365
490 1 -1.1104 6.57021 19.6053 20.7699
482 1 -1.1104 6.68384 19.4898 17.7527
489 1 -1.1104 6.64564 19.4297 15.0002
503 1 -1.1104 3.69734 13.812 20.5533
505 1 -1.1104 3.77632 19.2334 20.6728
481 1 -1.1104 6.58229 13.7442 17.6321
497 1 -1.1104 6.46586 16.5459 15.0971
9331 2 2.2208 -0.43852 3.9136 19.1517
531 1 -1.1104 9.42831 19.464 20.5245
513 2 2.2208 10.8409 17.9843 16.5207
514 1 -1.1104 12.2615 13.891 17.968
515 1 -1.1104 12.3103 19.5304 17.9038
516 1 -1.1104 11.9927 13.9514 15.0439
518 1 -1.1104 12.1932 19.3915 14.9078
520 1 -1.1104 12.1275 16.696 17.9475
521 2 2.2208 10.7756 15.369 19.184
522 2 2.2208 10.9187 20.9116 19.159
523 1 -1.1104 12.5825 16.7024 15.111
525 1 -1.1104 9.53366 13.9415 17.7722
526 1 -1.1104 9.515 19.4805 17.753
527 2 2.2208 7.97409 18.1297 19.2012
528 1 -1.1104 9.41053 13.7762 14.8099
530 1 -1.1104 9.44035 19.3317 14.8718
532 2 2.2208 7.85203 15.1772 16.3524
533 2 2.2208 8.02328 20.8453 16.3634
534 1 -1.1104 9.19636 16.6764 17.8955
535 1 -1.1104 9.46711 16.519 15.1329
406 2 2.2208 13.5062 15.1755 16.7128
524 1 -1.1104 12.3226 16.6967 20.616
378 2 2.2208 -0.329803 -1.60685 19.1686
9294 2 2.2208 13.6447 1.13593 19.1633
519 1 -1.1104 12.3752 19.5452 20.7145
517 1 -1.1104 12.1806 13.9695 20.5122
529 1 -1.1104 9.30537 13.8042 20.6225
368 1 -1.1104 3.9772 2.59338 20.6858
359 1 -1.1104 1.05081 -0.0983146 20.487
366 1 -1.1104 3.92662 -3.03374 20.5405
410 2 2.2208 13.5297 17.909 24.8516
9368 2 2.2208 13.6146 15.2668 22.0718
349 1 -1.1104 0.98014 2.50819 20.6647
373 1 -1.1104 3.93613 -0.0212557 20.7299
541 2 2.2208 5.26703 1.26551 22.2184
542 1 -1.1104 1.11909 -3.0068 23.5228
543 1 -1.1104 1.02173 2.51755 23.3764
546 1 -1.1104 1.00977 -2.81808 26.1182
547 1 -1.1104 0.977801 2.62207 26.0671
550 1 -1.1104 1.09097 -0.17475 23.441
552 2 2.2208 5.15053 -1.43052 25.0451
554 1 -1.1104 0.876857 -0.138342 26.3137
556 1 -1.1104 3.94052 -2.89996 23.5937
557 1 -1.1104 3.90787 2.67066 23.5067
558 2 2.2208 2.37829 1.28682 24.8697
559 1 -1.1104 3.75457 -2.91211 26.3314
560 1 -1.1104 3.80945 2.65517 26.3142
561 2 2.2208 2.52401 -1.51975 21.9936
562 2 2.2208 2.43831 3.93466 22.0902
563 1 -1.1104 3.75441 -0.0765747 23.5695
564 1 -1.1104 3.70867 -0.113332 26.3301
553 2 2.2208 5.31382 4.04252 24.9078
545 1 -1.1104 6.66334 2.64466 23.451
551 1 -1.1104 6.5903 -0.219368 23.6082
555 1 -1.1104 6.55742 -0.0353723 26.3849
548 1 -1.1104 6.51789 -2.97862 26.3653
351 1 -1.1104 6.4809 -2.99438 20.8776
399 1 -1.1104 9.48365 2.76868 20.8308
449 1 -1.1104 9.21541 19.6061 23.6164
9333 2 2.2208 -0.335854 -1.54849 24.8868
549 1 -1.1104 6.61091 2.72513 26.4041
604 2 2.2208 13.53 1.11901 24.8879
397 1 -1.1104 9.17089 -3.0119 20.653
374 2 2.2208 13.5666 3.98935 21.9927
390 1 -1.1104 12.2576 2.33837 20.68
544 1 -1.1104 6.73298 -3.04299 23.6053
388 1 -1.1104 12.6649 -3.2043 20.9352
404 1 -1.1104 9.5552 -0.132333 20.9431
577 2 2.2208 10.683 1.35058 22.3385
578 1 -1.1104 12.2453 -2.85735 23.8005
579 1 -1.1104 12.0669 2.67419 23.5305
580 1 -1.1104 12.1657 -3.06569 26.3558
581 1 -1.1104 12.191 2.60755 26.4195
582 1 -1.1104 12.3156 -0.156605 23.0451
583 2 2.2208 10.7688 -1.73329 24.936
584 2 2.2208 10.7905 4.13789 25.0112
585 1 -1.1104 12.0901 -0.284984 26.1858
586 1 -1.1104 9.43891 -2.99257 23.5325
587 1 -1.1104 9.36065 2.77419 23.7157
588 2 2.2208 8.01679 1.20971 25.1127
589 1 -1.1104 9.30963 -2.99885 26.267
590 1 -1.1104 9.44929 2.66999 26.3233
591 2 2.2208 8.0378 -1.61955 22.296
593 1 -1.1104 9.35748 -0.168358 23.8152
594 1 -1.1104 9.38586 -0.281714 26.4347
592 2 2.2208 8.03262 4.12755 22.1726
9291 2 2.2208 13.8134 -1.63997 22.0831
536 1 -1.1104 9.40498 16.5994 20.5426
444 1 -1.1104 3.88159 5.34598 20.6386
446 1 -1.1104 3.92334 11.0467 20.3847
428 1 -1.1104 0.985156 5.37537 20.7149
432 1 -1.1104 6.60544 5.3651 20.8122
606 2 2.2208 5.16783 6.78737 22.0126
607 2 2.2208 5.24268 12.481 21.9769
608 1 -1.1104 0.817425 8.2087 23.3178
610 1 -1.1104 1.04886 8.24509 26.1683
612 1 -1.1104 0.962011 5.38004 23.4895
613 1 -1.1104 0.937767 11.024 23.3958
616 2 2.2208 5.2837 9.56953 24.8014
617 1 -1.1104 1.03419 5.2511 26.1691
618 1 -1.1104 1.09326 11.1801 26.1585
621 1 -1.1104 3.77426 8.1915 23.3484
622 2 2.2208 2.31071 6.80222 24.8249
623 2 2.2208 2.54437 12.5028 24.7471
624 1 -1.1104 3.82468 8.20207 26.1318
625 2 2.2208 2.38986 9.57588 22.0256
626 1 -1.1104 3.83156 5.46801 23.5038
627 1 -1.1104 3.77032 10.9819 23.2199
628 1 -1.1104 3.71386 5.34832 26.2843
629 1 -1.1104 3.84399 11.0075 25.9933
614 1 -1.1104 6.70004 5.31766 23.7227
538 2 2.2208 8.0756 21.0154 22.0102
615 1 -1.1104 6.71083 11.0371 23.4618
619 1 -1.1104 6.59361 5.53796 26.4095
421 1 -1.1104 6.59883 8.22204 20.5102
620 1 -1.1104 6.56006 11.0551 26.3169
609 1 -1.1104 6.44539 8.23179 23.3623
468 1 -1.1104 9.4006 8.28166 20.5976
567 1 -1.1104 12.1662 16.5732 26.1638
636 1 -1.1104 12.2675 13.918 26.3931
9473 2 2.2208 13.631 6.87486 24.9899
473 1 -1.1104 9.43312 5.55913 20.83
463 1 -1.1104 12.19 11.0282 20.7767
456 1 -1.1104 12.1777 8.13771 20.6177
611 1 -1.1104 6.67488 8.34711 26.3571
637 1 -1.1104 9.34158 11.0063 26.3038
638 1 -1.1104 9.34713 5.59253 26.2682
639 1 -1.1104 9.38966 11.2003 23.4561
640 1 -1.1104 9.23237 5.63862 23.6078
641 2 2.2208 7.99892 9.6401 21.9192
642 1 -1.1104 9.46279 8.34298 26.216
643 2 2.2208 7.97768 12.456 24.8804
644 2 2.2208 7.92343 7.02976 24.9242
645 2 2.2208 10.8178 6.80569 22.1437
646 2 2.2208 10.7479 12.4302 21.9832
647 1 -1.1104 12.3259 8.17687 23.3757
648 1 -1.1104 12.2866 8.32147 26.1616
649 1 -1.1104 12.075 5.36778 23.5159
650 1 -1.1104 12.1913 10.8883 23.552
651 2 2.2208 10.7293 9.74441 24.89
652 1 -1.1104 12.1659 5.45317 26.3867
653 1 -1.1104 12.3441 11.0786 26.3874
654 1 -1.1104 9.37035 8.34609 23.4465
539 1 -1.1104 9.33319 16.7373 23.4759
498 1 -1.1104 6.6946 16.7202 20.4342
496 1 -1.1104 1.01742 16.6166 20.556
488 1 -1.1104 6.49384 13.9355 20.6322
451 1 -1.1104 6.53434 19.4459 26.3631
664 1 -1.1104 6.59981 16.5987 26.2603
679 1 -1.1104 6.5883 16.6937 23.4065
662 1 -1.1104 6.55094 13.8394 26.4624
596 2 2.2208 2.39617 15.331 22.0651
597 2 2.2208 2.41535 20.7153 22.0935
655 1 -1.1104 3.80098 16.6874 23.2973
656 1 -1.1104 0.889736 16.595 23.461
661 1 -1.1104 3.93849 19.3112 23.5314
663 1 -1.1104 3.94983 13.7882 23.4226
665 1 -1.1104 1.01346 19.5163 26.1984
666 1 -1.1104 0.88861 16.5652 26.2682
667 1 -1.1104 0.937862 13.8379 26.2459
669 2 2.2208 5.25067 20.6561 24.851
670 2 2.2208 5.21998 15.2812 24.8502
672 1 -1.1104 0.862079 19.2933 23.5325
673 1 -1.1104 0.883821 13.8553 23.3738
674 2 2.2208 5.31815 18.038 22.0241
675 1 -1.1104 3.8711 19.4655 26.1053
676 2 2.2208 2.36304 18.0268 24.8943
677 1 -1.1104 3.71709 16.6134 26.2266
678 1 -1.1104 3.74637 13.8753 26.1879
668 1 -1.1104 6.61542 19.3318 23.4354
335 2 2.2208 2.43854 15.2901 27.5473
9247 2 2.2208 13.8515 20.799 27.7533
659 1 -1.1104 12.0187 16.6741 23.3892
635 1 -1.1104 12.0567 19.5312 23.4827
511 1 -1.1104 9.39377 19.5035 26.2879
565 1 -1.1104 9.40212 13.9427 23.4119
634 1 -1.1104 12.1332 13.729 23.3057
671 1 -1.1104 6.616 13.838 23.4655
450 2 2.2208 7.97985 18.1359 24.9352
633 2 2.2208 10.7952 18.1497 22.097
477 1 -1.1104 9.60135 13.754 26.4032
540 1 -1.1104 9.27574 16.7292 26.3348
568 2 2.2208 10.7706 20.8413 24.9344
331 2 2.2208 2.40374 4.06896 27.7227
338 2 2.2208 7.98813 4.24917 27.6999
631 2 2.2208 2.42012 9.62821 27.4423
657 2 2.2208 11.0106 12.4038 27.7375
336 2 2.2208 5.11145 17.9697 27.6316
603 2 2.2208 7.99581 21.005 27.6741
574 2 2.2208 7.99072 15.3331 27.8192
575 2 2.2208 10.8069 18.0506 27.7463
317 2 2.2208 5.10288 -1.55325 13.5685
319 2 2.2208 2.43604 6.80886 13.6329
321 2 2.2208 2.3842 12.542 13.5913
320 2 2.2208 5.31615 9.49411 13.5732
322 2 2.2208 8.03639 12.3796 13.6222
512 2 2.2208 5.31799 20.9331 13.6312
680 2 2.2208 5.26491 23.6589 5.19302
681 2 2.2208 5.33923 29.1847 5.32976
682 1 -1.1104 1.00743 25.2148 0.974472
683 1 -1.1104 1.07398 25.0657 3.68882
684 1 -1.1104 0.992845 22.3204 1.01089
685 1 -1.1104 1.05096 27.9297 1.08333
686 2 2.2208 5.2162 26.5655 2.43558
687 1 -1.1104 0.998551 22.2892 3.84484
688 1 -1.1104 1.00459 27.7876 3.71234
689 1 -1.1104 3.87122 25.0731 1.0227
690 2 2.2208 2.43735 23.641 2.41108
691 2 2.2208 2.50237 29.3225 2.44857
692 1 -1.1104 3.9334 25.0769 3.8084
693 2 2.2208 2.53544 26.4708 5.15626
694 1 -1.1104 3.94719 22.1733 1.02301
695 1 -1.1104 3.83254 27.8185 0.930921
696 1 -1.1104 3.82882 22.241 3.81021
697 1 -1.1104 3.93504 27.8109 3.86645
823 1 -1.1104 1.00386 22.0882 6.64126
702 1 -1.1104 6.6341 24.986 3.94409
701 1 -1.1104 6.59883 25.1829 0.966454
706 1 -1.1104 6.80149 27.827 3.98446
704 1 -1.1104 6.44328 27.9297 1.0967
822 1 -1.1104 6.64233 25.0209 6.76571
821 1 -1.1104 0.99899 25.0141 6.47861
1550 1 -1.1104 1.05434 47.5411 12.3072
826 1 -1.1104 6.71511 27.9046 6.80792
798 1 -1.1104 12.2699 42.0228 12.4749
824 1 -1.1104 1.17928 27.6771 6.58188
705 1 -1.1104 6.81189 22.2722 3.79955
703 1 -1.1104 6.53044 22.4365 1.02587
707 2 2.2208 10.9161 23.6782 5.2248
708 2 2.2208 10.9592 29.3928 5.24336
709 1 -1.1104 12.1257 24.9634 0.988572
710 1 -1.1104 12.2696 25.1507 3.66941
711 1 -1.1104 12.2661 22.2126 1.03161
712 1 -1.1104 12.226 27.897 1.09329
713 2 2.2208 10.7451 26.4675 2.45631
714 1 -1.1104 12.2209 22.2711 3.94338
715 1 -1.1104 12.3493 27.8685 3.93432
716 1 -1.1104 9.36623 25.119 1.23935
717 2 2.2208 7.94204 23.837 2.44097
718 2 2.2208 7.96697 29.2307 2.40032
719 1 -1.1104 9.33122 25.0982 3.91244
720 2 2.2208 8.05333 26.6056 5.31415
721 1 -1.1104 9.32761 22.298 1.06725
722 1 -1.1104 9.37744 27.9421 0.860527
723 1 -1.1104 9.49531 22.2787 3.80589
724 1 -1.1104 9.464 27.9517 3.75913
975 1 -1.1104 9.46526 39.006 12.2534
726 2 2.2208 13.7896 29.2951 2.50477
9913 2 2.2208 13.7587 23.5948 2.33066
855 1 -1.1104 12.3208 22.3975 6.65134
854 1 -1.1104 12.2247 25.2323 6.45813
977 1 -1.1104 9.48319 41.7861 9.43576
973 1 -1.1104 9.47806 38.9486 9.34859
728 2 2.2208 5.3074 34.921 5.23496
729 1 -1.1104 1.11924 30.6907 1.25923
730 1 -1.1104 1.03603 36.224 0.881624
732 1 -1.1104 0.9078 30.6678 3.90404
733 1 -1.1104 1.01859 36.2908 3.60256
735 1 -1.1104 1.21502 33.4942 1.14585
736 2 2.2208 5.27877 32.0689 2.48261
737 2 2.2208 5.15977 37.714 2.54814
738 1 -1.1104 1.06426 33.4529 3.94393
740 1 -1.1104 3.85214 30.7621 1.08139
741 1 -1.1104 3.94538 36.3759 0.970755
742 2 2.2208 2.65264 34.8584 2.4333
743 1 -1.1104 3.90813 30.6957 3.789
744 1 -1.1104 3.8599 36.3915 3.8308
745 2 2.2208 2.57504 32.0326 5.30777
746 2 2.2208 2.56282 37.78 5.38283
747 1 -1.1104 4.04684 33.4794 1.07126
748 1 -1.1104 3.89432 33.3868 3.98781
884 1 -1.1104 3.90153 30.7757 6.66391
1280 2 2.2208 2.51271 37.7666 -0.207806
731 1 -1.1104 6.59754 36.1068 1.08798
753 1 -1.1104 6.80565 30.7025 3.7198
754 1 -1.1104 6.67772 33.2528 1.11182
880 1 -1.1104 6.81916 30.698 6.50943
882 1 -1.1104 1.29744 33.4179 6.65725
971 2 2.2208 -0.441267 40.5953 10.8114
739 1 -1.1104 6.79274 33.6164 3.69576
886 1 -1.1104 4.06461 33.6288 6.72877
881 1 -1.1104 6.65112 36.363 6.50327
974 1 -1.1104 9.57904 44.8403 12.4247
985 1 -1.1104 12.2859 39.0853 12.2404
734 1 -1.1104 6.84174 36.3698 3.70818
752 1 -1.1104 6.57413 30.609 1.07811
755 2 2.2208 10.9525 34.8806 5.36653
756 1 -1.1104 12.413 30.5972 1.04993
757 1 -1.1104 12.1976 36.3226 1.02422
758 1 -1.1104 12.4375 30.6505 3.90813
759 1 -1.1104 12.2453 36.2455 3.75137
760 1 -1.1104 12.407 33.4195 1.15141
761 2 2.2208 10.8645 32.0989 2.46321
762 2 2.2208 10.7462 37.6847 2.43619
763 1 -1.1104 12.3006 33.5062 3.94703
764 1 -1.1104 9.55127 30.7811 1.11746
765 1 -1.1104 9.36985 36.2435 0.989778
766 2 2.2208 8.14568 34.8285 2.40183
767 1 -1.1104 9.60449 30.681 3.86786
768 1 -1.1104 9.54916 36.3306 3.88117
769 2 2.2208 8.21273 32.0721 5.11082
770 2 2.2208 8.11982 37.7762 5.18494
771 1 -1.1104 9.47776 33.569 1.04757
772 1 -1.1104 9.5955 33.3605 3.85321
9666 2 2.2208 13.8445 32.0224 5.17089
915 1 -1.1104 9.43304 30.6656 6.70389
917 1 -1.1104 9.50111 33.5163 6.67109
912 1 -1.1104 12.4175 30.7481 6.55092
9857 2 2.2208 -0.307313 32.0611 7.97717
794 1 -1.1104 3.77033 39.1137 1.28781