ITEM: TIMESTEP
20000
ITEM: NUMBER OF ATOMS
17820
ITEM: BOX BOUNDS pp pp pp
-3.6649915108990799e-01 2.7706499151089666e+01
-4.2868515219756471e+00 3.3236685152198055e+02
-3.6845993286129780e-01 2.7708459932861157e+01
ITEM: ATOMS id type q x y z
1 2 2.2208 5.19967 1.35995 5.14231
2 1 -1.1104 1.11857 -2.97558 0.852446
3 1 -1.1104 1.1977 2.49063 0.847482
6 1 -1.1104 0.939122 -3.01742 3.83821
7 1 -1.1104 1.02022 2.66707 3.76092
10 1 -1.1104 1.11194 -0.160683 0.927132
12 2 2.2208 5.31342 -1.4848 2.33593
13 2 2.2208 5.36695 4.10208 2.42681
14 1 -1.1104 0.962274 -0.152007 3.81683
16 1 -1.1104 3.95703 -2.9382 0.991852
17 1 -1.1104 4.08328 2.72738 1.07755
18 2 2.2208 2.37294 1.23888 2.34823
19 1 -1.1104 3.77346 -2.95022 3.93992
20 1 -1.1104 3.89259 2.69803 3.87477
21 2 2.2208 2.3426 -1.58968 5.23026
22 2 2.2208 2.46991 4.02521 5.33357
23 1 -1.1104 3.78254 -0.223518 0.94463
24 1 -1.1104 3.75029 -0.0790623 3.82731
25 2 2.2208 -0.349669 -1.51632 2.34318
28 2 2.2208 2.41654 -4.34945 2.34518
167 1 -1.1104 0.927266 2.53706 6.49851
29 2 2.2208 5.22557 -4.24768 5.22643
9 1 -1.1104 6.59852 2.66344 3.74216
11 1 -1.1104 6.6751 0.0188324 0.876984
9232 2 2.2208 -0.409207 1.20945 5.17408
170 1 -1.1104 1.05429 -0.277017 6.49274
174 1 -1.1104 3.84931 -0.215498 6.67046
173 1 -1.1104 3.81764 2.58834 6.54354
172 1 -1.1104 3.70926 -3.09242 6.56048
166 1 -1.1104 1.02725 -2.93554 6.69265
9233 2 2.2208 -0.419641 4.10027 2.30687
4 1 -1.1104 6.63418 -2.99771 0.989988
5 1 -1.1104 6.80827 2.78904 1.01049
15 1 -1.1104 6.73717 -0.156202 3.63641
8 1 -1.1104 6.58628 -2.75307 3.89825
31 2 2.2208 10.8671 1.31589 5.03446
32 1 -1.1104 12.236 -2.86992 1.17968
33 1 -1.1104 12.2109 2.77797 1.14752
34 1 -1.1104 12.1785 -3.01355 3.80152
35 1 -1.1104 12.3435 2.93389 3.9019
36 1 -1.1104 12.0637 -0.0354821 1.11851
37 2 2.2208 10.7761 -1.51335 2.49907
38 2 2.2208 10.8805 4.13768 2.41893
39 1 -1.1104 12.2475 0.14485 3.78399
40 1 -1.1104 9.35694 -2.91574 0.966909
41 1 -1.1104 9.41409 2.7102 1.20728
42 2 2.2208 7.98326 1.19528 2.3805
43 1 -1.1104 9.28383 -2.85365 3.72633
44 1 -1.1104 9.48166 2.75908 3.82506
45 2 2.2208 8.13502 -1.44857 5.24944
46 2 2.2208 8.06495 4.16698 5.16105
47 1 -1.1104 9.27936 -0.0943517 0.926676
48 1 -1.1104 9.42837 -0.051396 3.74365
231 2 2.2208 8.03979 -4.33701 7.99662
208 1 -1.1104 9.47151 -2.96418 6.44114
9234 2 2.2208 13.7259 1.40948 2.38599
207 1 -1.1104 12.2313 0.0140834 6.61186
209 1 -1.1104 9.36988 2.83856 6.7331
169 1 -1.1104 6.72103 2.68229 6.5209
205 1 -1.1104 12.2126 -2.82252 6.56897
210 1 -1.1104 9.40941 -0.0524699 6.45409
168 1 -1.1104 6.75606 -2.92981 6.64179
206 1 -1.1104 12.2346 2.68556 6.60869
54 2 2.2208 5.24044 6.81332 5.2242
55 2 2.2208 5.3574 12.4409 5.31574
56 1 -1.1104 1.1086 8.21258 1.07062
58 1 -1.1104 1.08997 8.23472 3.8915
60 1 -1.1104 0.978242 5.47393 1.15338
61 1 -1.1104 1.18833 10.9992 1.06129
66 2 2.2208 5.23238 9.64468 2.51813
67 1 -1.1104 1.14791 5.46862 3.74818
68 1 -1.1104 1.03983 11.1282 3.73164
71 1 -1.1104 3.90501 8.1834 1.22081
72 2 2.2208 2.45808 6.81861 2.42868
73 2 2.2208 2.46886 12.4598 2.53582
74 1 -1.1104 3.92067 8.22325 3.93899
75 2 2.2208 2.44364 9.61604 5.26736
76 1 -1.1104 3.84417 5.5476 1.09247
77 1 -1.1104 3.87854 11.0965 1.24383
79 1 -1.1104 4.00993 5.43394 3.74465
80 1 -1.1104 3.80931 11.0429 3.89748
57 1 -1.1104 6.67083 8.33088 1.13337
64 1 -1.1104 6.65598 11.0855 0.957347
78 1 -1.1104 3.92269 11.1071 6.66863
83 2 2.2208 -0.344865 12.5142 5.24792
9236 2 2.2208 -0.286172 9.7363 2.47902
62 1 -1.1104 1.10282 11.1251 6.62151
234 1 -1.1104 1.20208 8.11213 6.60403
236 1 -1.1104 0.938137 5.38888 6.56003
238 1 -1.1104 3.85155 8.32008 6.65509
328 2 2.2208 7.99409 17.9667 13.6154
315 2 2.2208 8.08685 20.8317 10.7764
63 1 -1.1104 6.83987 5.59372 0.965868
59 1 -1.1104 6.70086 8.22158 3.89884
70 1 -1.1104 6.71793 11.1381 3.84518
237 1 -1.1104 6.54819 5.47849 6.78636
65 1 -1.1104 6.66101 11.0303 6.75747
69 1 -1.1104 6.79954 5.40182 3.81342
84 2 2.2208 10.9448 7.00613 5.17936
85 2 2.2208 10.9321 12.5642 5.23251
86 1 -1.1104 12.2679 8.39116 1.1292
87 1 -1.1104 12.3375 8.39224 4.03339
88 1 -1.1104 12.4098 5.55031 0.96849
89 1 -1.1104 12.2911 11.256 1.18608
90 1 -1.1104 12.3751 11.0688 6.57322
91 2 2.2208 10.8745 9.81971 2.56394
92 1 -1.1104 12.3766 5.59109 3.82052
93 1 -1.1104 12.4388 11.0618 3.7884
94 1 -1.1104 9.46501 8.27094 1.09171
95 2 2.2208 8.05841 6.97696 2.47338
96 2 2.2208 8.10548 12.5054 2.42945
97 1 -1.1104 9.67315 8.40454 3.97153
98 2 2.2208 8.1022 9.80769 5.31275
99 1 -1.1104 9.60868 5.41306 0.882513
100 1 -1.1104 9.41634 11.0647 1.10542
102 1 -1.1104 9.5306 5.59873 3.78018
103 1 -1.1104 9.50042 11.2268 3.96272
266 1 -1.1104 12.2666 5.39141 6.64063
101 1 -1.1104 9.51511 11.0054 6.63791
267 1 -1.1104 9.37156 8.23051 6.69075
235 1 -1.1104 6.54222 8.18468 6.6737
269 1 -1.1104 9.45068 5.50446 6.51735
314 1 -1.1104 9.39964 16.5766 12.3623
135 2 2.2208 -0.259498 15.2228 2.44778
9238 2 2.2208 -0.422971 20.8826 2.4542
106 2 2.2208 5.08354 18.0329 5.25128
107 1 -1.1104 1.02423 13.7774 0.968221
109 1 -1.1104 0.970019 19.5135 1.195
113 1 -1.1104 1.11981 13.9319 3.82615
114 1 -1.1104 0.990661 19.4631 3.82227
116 1 -1.1104 1.02276 16.7391 1.11478
119 2 2.2208 5.33392 15.1636 2.44901
120 2 2.2208 5.25661 20.8484 2.44124
121 1 -1.1104 1.12416 16.683 3.85719
123 1 -1.1104 3.82391 13.8531 1.04989
125 1 -1.1104 3.82893 19.5172 1.04402
127 2 2.2208 2.46547 18.0701 2.34138
128 1 -1.1104 3.80444 13.8325 4.00373
129 1 -1.1104 3.77498 19.5135 3.82609
130 2 2.2208 2.5095 15.2193 5.26393
131 2 2.2208 2.39068 21.0119 5.20147
132 1 -1.1104 3.82646 16.6076 1.15983
134 1 -1.1104 3.83728 16.668 3.9117
140 1 -1.1104 6.66297 16.6025 1.08134
111 1 -1.1104 6.74195 13.789 6.64505
117 1 -1.1104 1.1444 16.6698 6.67313
301 1 -1.1104 0.99222 19.5667 6.67191
124 1 -1.1104 3.88792 13.933 6.64931
133 1 -1.1104 3.92944 16.7988 6.77943
139 1 -1.1104 6.72975 19.3767 4.00801
126 1 -1.1104 3.81127 19.5782 6.76381
9039 2 2.2208 13.6356 15.204 5.24475
138 1 -1.1104 6.55153 19.4267 0.908174
115 1 -1.1104 6.77923 13.868 3.8012
122 1 -1.1104 6.65569 16.6654 3.80519
110 1 -1.1104 6.62632 13.8788 1.16293
141 2 2.2208 10.7836 18.0373 5.27926
142 1 -1.1104 12.3624 14.0031 0.934146
144 1 -1.1104 12.1804 19.5359 1.0689
146 1 -1.1104 12.2816 13.8517 3.7498
147 1 -1.1104 12.08 19.4309 3.84126
148 1 -1.1104 12.1635 16.8229 0.929389
150 2 2.2208 10.8978 15.3717 2.41087
151 2 2.2208 10.8069 20.9417 2.49937
152 1 -1.1104 12.2765 16.5792 3.96652
153 1 -1.1104 9.51377 13.856 1.1138
155 1 -1.1104 9.33713 19.4494 1.02042
157 2 2.2208 8.05902 18.1073 2.43486
158 1 -1.1104 9.38753 13.9124 3.88033
159 1 -1.1104 9.35306 19.427 3.8347
160 2 2.2208 8.20108 15.3603 5.28445
161 2 2.2208 7.91648 20.9076 5.21299
162 1 -1.1104 9.54168 16.674 1.16882
164 1 -1.1104 9.54625 16.5688 3.90225
154 1 -1.1104 9.4698 13.868 6.61077
145 1 -1.1104 12.3513 19.4746 6.57386
118 1 -1.1104 6.68834 16.6018 6.58928
112 1 -1.1104 6.56752 19.576 6.67991
149 1 -1.1104 12.1366 16.6261 6.57946
9241 2 2.2208 -0.417432 -1.53104 8.03306
317 2 2.2208 5.27542 -1.51459 13.5737
202 2 2.2208 2.32185 -4.37579 8.11011
201 2 2.2208 -0.271508 1.16027 10.8334
175 2 2.2208 5.23181 1.32686 10.8253
176 1 -1.1104 0.89896 -2.97543 12.1178
177 1 -1.1104 1.16528 2.61991 12.3302
180 1 -1.1104 1.09215 -2.8719 9.48597
181 1 -1.1104 1.14831 2.53775 9.31591
184 1 -1.1104 1.22649 -0.127306 12.2635
186 2 2.2208 5.18363 -1.64765 7.93142
187 2 2.2208 5.11984 4.10687 8.02495
188 1 -1.1104 1.03059 -0.218004 9.41983
190 1 -1.1104 3.86048 -3.01588 12.1952
191 1 -1.1104 3.87317 2.67941 12.1
192 2 2.2208 2.43819 1.11693 7.86745
193 1 -1.1104 3.78629 -2.93788 9.5127
194 1 -1.1104 3.83492 2.52383 9.32399
195 2 2.2208 2.47842 -1.52087 10.8661
196 2 2.2208 2.42322 3.90155 10.8138
197 1 -1.1104 3.91695 -0.101809 12.3221
198 1 -1.1104 3.86338 -0.337691 9.50292
9240 2 2.2208 -0.404934 3.99461 7.89611
383 2 2.2208 5.31677 4.12158 13.7434
382 2 2.2208 2.55817 1.28769 13.64
379 2 2.2208 -0.343365 -1.61428 13.6543
287 1 -1.1104 6.58385 19.4694 9.45311
189 1 -1.1104 6.5745 -0.2784 9.07095
178 1 -1.1104 6.65966 -2.88579 12.3034
179 1 -1.1104 6.53373 2.63908 12.2564
182 1 -1.1104 6.56574 -3.11175 9.44194
183 1 -1.1104 6.53105 2.57481 9.36502
171 1 -1.1104 6.73956 -0.0941958 6.36721
185 1 -1.1104 6.59387 -0.0966524 12.0599
211 2 2.2208 10.949 1.35903 10.8179
212 1 -1.1104 12.275 -2.81374 12.249
213 1 -1.1104 12.1265 2.76001 12.301
214 1 -1.1104 12.1656 -3.03068 9.44455
215 1 -1.1104 12.2704 2.88267 9.43805
216 1 -1.1104 12.1701 0.0255753 12.2272
217 2 2.2208 10.8596 -1.43831 7.95376
219 1 -1.1104 12.3351 -0.0407202 9.59066
220 1 -1.1104 9.4537 -2.85944 12.2851
221 1 -1.1104 9.27435 2.78489 12.339
222 2 2.2208 7.96044 1.27469 7.92472
223 1 -1.1104 9.32128 -2.91559 9.53272
224 1 -1.1104 9.44334 2.73762 9.44649
225 2 2.2208 8.03776 -1.55288 10.7414
226 2 2.2208 7.99503 4.01449 10.8688
227 1 -1.1104 9.47115 -0.00120945 12.153
228 1 -1.1104 9.44208 -0.0601578 9.31224
318 2 2.2208 8.07586 1.29257 13.6166
218 2 2.2208 10.8346 4.14303 7.92859
412 2 2.2208 10.7904 -1.49048 13.6597
296 1 -1.1104 6.66442 13.8305 12.2559
30 2 2.2208 -0.234481 9.66979 7.94144
9159 2 2.2208 -0.416471 12.4723 10.8165
9167 2 2.2208 -0.362796 6.87164 10.707
239 1 -1.1104 3.81378 5.52617 6.57435
240 2 2.2208 5.15998 6.76675 10.8891
241 2 2.2208 5.27822 12.3866 10.7295
242 1 -1.1104 1.00999 8.43047 12.0964
244 1 -1.1104 1.08584 8.20925 9.3568
246 1 -1.1104 1.10223 5.41656 12.1999
247 1 -1.1104 0.989504 11.0951 12.1699
250 2 2.2208 5.1993 9.64826 8.08871
251 1 -1.1104 0.953923 5.3515 9.42552
252 1 -1.1104 1.05126 11.1726 9.32345
255 1 -1.1104 3.67163 8.232 12.2424
256 2 2.2208 2.50403 6.88313 8.14467
257 2 2.2208 2.47533 12.4222 7.99375
258 1 -1.1104 3.92905 8.35936 9.60118
259 2 2.2208 2.41749 9.7914 10.8234
260 1 -1.1104 3.87759 5.42522 12.3279
261 1 -1.1104 3.86008 11.1528 12.1957
262 1 -1.1104 3.73941 5.48867 9.55208
263 1 -1.1104 3.82375 11.1114 9.55328
248 1 -1.1104 6.60746 5.44141 12.4268
243 1 -1.1104 6.5454 8.12577 12.3842
319 2 2.2208 2.37816 6.79402 13.6208
320 2 2.2208 5.36153 9.71463 13.6741
321 2 2.2208 2.37049 12.4789 13.4943
9246 2 2.2208 13.7821 6.98274 13.6382
322 2 2.2208 8.01621 12.4503 13.6304
323 2 2.2208 10.97 9.75204 13.6029
253 1 -1.1104 6.49869 5.39427 9.55576
254 1 -1.1104 6.65198 10.9961 9.35927
249 1 -1.1104 6.65026 11.0202 12.305
245 1 -1.1104 6.70435 8.09756 9.37598
264 1 -1.1104 9.38184 11.1843 9.4627
265 1 -1.1104 12.2998 8.29402 7.0208
268 1 -1.1104 9.26961 5.5731 9.4954
270 1 -1.1104 9.30162 10.8248 12.3673
271 1 -1.1104 9.50733 5.43135 12.3111
272 2 2.2208 8.07347 9.5746 10.8263
273 1 -1.1104 9.75777 8.46619 9.54547
274 2 2.2208 8.04421 12.4983 8.05793
275 2 2.2208 7.98154 6.82002 8.0665
276 2 2.2208 10.8105 6.84605 10.9593
277 2 2.2208 10.7789 12.3142 10.8419
278 1 -1.1104 12.2163 8.35574 12.2094
279 1 -1.1104 12.3186 5.40614 12.2785
280 1 -1.1104 12.158 11.416 12.5699
281 2 2.2208 10.9827 9.82165 7.96315
282 1 -1.1104 12.3118 5.86712 9.42932
283 1 -1.1104 12.1374 11.176 9.3264
284 1 -1.1104 9.37064 8.17123 12.3071
476 2 2.2208 8.01476 6.93543 13.7383
8934 2 2.2208 -0.301489 15.2019 7.94876
8969 2 2.2208 -0.38798 20.9582 8.05599
324 2 2.2208 5.22237 15.1676 13.5865
108 1 -1.1104 1.02322 13.7861 6.57238
285 1 -1.1104 3.83918 19.4404 12.2314
286 1 -1.1104 3.84945 13.7726 12.0457
290 1 -1.1104 1.1218 19.4405 9.47507
291 1 -1.1104 0.954659 16.6583 9.4249
292 2 2.2208 5.25341 20.9177 8.05493
293 1 -1.1104 1.18285 13.8536 9.33778
294 2 2.2208 5.29316 15.2506 7.9968
297 1 -1.1104 1.08252 19.2724 12.3116
298 1 -1.1104 1.17012 13.7984 12.0559
299 2 2.2208 5.03118 17.9958 10.8729
300 1 -1.1104 3.77015 19.4179 9.48451
302 2 2.2208 2.43146 18.0929 8.04841
303 1 -1.1104 3.86943 16.6416 9.54867
304 1 -1.1104 3.99086 13.9253 9.23872
306 1 -1.1104 1.18309 16.6033 12.2333
307 1 -1.1104 3.82058 16.502 12.3472
308 2 2.2208 2.45048 21.009 10.8023
309 2 2.2208 2.59019 15.24 10.7237
325 2 2.2208 2.56836 18.0897 13.665
512 2 2.2208 5.30326 20.7868 13.5372
8943 2 2.2208 -0.319533 18.1178 10.7824
316 2 2.2208 -0.214508 15.2838 13.6029
53 2 2.2208 10.7949 -4.38162 5.04399
327 2 2.2208 10.8655 15.2809 13.5858
233 2 2.2208 8.08099 15.2976 10.8959
9197 2 2.2208 13.6813 20.8995 10.7983
136 1 -1.1104 12.2948 19.5334 9.4391
82 1 -1.1104 12.1743 19.6103 12.2161
199 2 2.2208 10.869 15.2767 8.13745
104 1 -1.1104 12.1657 14.032 9.56522
163 1 -1.1104 9.45581 16.7636 6.66794
156 1 -1.1104 9.38902 19.545 6.56329
200 2 2.2208 10.7943 20.8781 7.8957
137 1 -1.1104 12.1063 16.7983 12.2598
229 1 -1.1104 9.57757 13.7847 12.3763
288 1 -1.1104 6.67417 16.554 9.46213
289 1 -1.1104 6.6329 13.8022 9.49861
305 1 -1.1104 6.62147 16.692 12.1551
295 1 -1.1104 6.5317 19.4231 11.9912
204 1 -1.1104 12.2221 16.8279 9.35683
313 1 -1.1104 9.38526 16.7103 9.59442
312 1 -1.1104 9.545 13.9661 9.5768
311 2 2.2208 7.91975 17.9801 8.13935
51 1 -1.1104 12.5061 14.1392 12.2933
50 2 2.2208 10.7924 18.1933 10.6859
143 1 -1.1104 12.22 13.7427 6.62875
310 1 -1.1104 9.30722 19.4499 12.2948
203 1 -1.1104 9.27221 19.6097 9.21996
447 2 2.2208 -0.329823 4.00131 13.6323
566 2 2.2208 2.31541 -1.62643 -0.388117
573 2 2.2208 -0.262643 1.26573 -0.409209
341 2 2.2208 5.30877 1.41346 16.4626
342 1 -1.1104 1.18225 -2.89822 17.9335
343 1 -1.1104 1.12951 2.73102 17.9482
346 1 -1.1104 1.1587 -2.84459 15.1147
348 1 -1.1104 1.1183 2.58097 15.1701
354 1 -1.1104 1.00794 -0.142159 17.8664
356 2 2.2208 5.33886 -1.56859 19.3831
357 2 2.2208 5.33908 4.07794 19.2946
358 1 -1.1104 1.24342 -0.117382 15.1534
362 1 -1.1104 4.00458 -2.89575 17.8918
363 1 -1.1104 3.8582 2.67436 17.8323
364 2 2.2208 2.52033 1.31467 19.3505
365 1 -1.1104 4.02501 -2.89175 15.0409
367 1 -1.1104 3.83927 2.70462 15.0768
369 2 2.2208 2.54582 -1.44373 16.5022
370 2 2.2208 2.59374 4.10364 16.4843
371 1 -1.1104 3.79656 -0.0875345 17.8212
372 1 -1.1104 4.01073 -0.0123717 15.0596
355 1 -1.1104 6.49194 -0.290579 17.9249
351 1 -1.1104 6.79062 -3.03335 20.5687
9247 2 2.2208 13.5302 20.7549 27.6254
353 1 -1.1104 6.74498 2.64001 20.5785
368 1 -1.1104 3.9436 2.65743 20.6517
347 1 -1.1104 1.24837 -2.9242 20.62
349 1 -1.1104 1.12452 2.59547 20.7684
373 1 -1.1104 3.77783 -0.0202882 20.711
359 1 -1.1104 1.14508 -0.109097 20.7307
377 2 2.2208 -0.309445 1.25963 16.5933
570 2 2.2208 5.18384 -4.31199 27.7293
360 1 -1.1104 6.64451 0.0445611 15.008
575 2 2.2208 10.8206 18.1346 27.6618
350 1 -1.1104 6.74388 -2.66566 15.0918
345 1 -1.1104 6.73643 2.62006 17.9267
352 1 -1.1104 6.80476 2.72978 15.0711
344 1 -1.1104 7.14256 -2.94356 17.825
384 2 2.2208 10.8776 1.14798 16.4181
385 1 -1.1104 12.2629 -3.03405 17.5884
386 1 -1.1104 12.3765 2.8589 18.007
387 1 -1.1104 12.2837 -2.89947 15.0438
389 1 -1.1104 12.3289 2.66974 15.1175
391 1 -1.1104 12.6617 0.285061 17.6436
392 2 2.2208 10.9044 3.96182 19.4538
393 1 -1.1104 12.2049 -0.156284 14.9813
394 1 -1.1104 9.52128 2.56313 18.0472
395 2 2.2208 8.17188 1.1874 19.299
396 1 -1.1104 9.45693 -2.88831 15.3686
398 1 -1.1104 9.47475 2.64534 15.134
400 2 2.2208 7.96284 -1.27646 16.4586
401 2 2.2208 8.10588 4.04586 16.4676
402 1 -1.1104 9.3201 -0.124385 17.7523
403 1 -1.1104 9.41604 -0.0550491 14.9993
413 2 2.2208 10.7656 4.14938 13.8112
361 1 -1.1104 6.69016 -0.152331 20.6847
397 1 -1.1104 9.40876 -3.21608 20.7441
390 1 -1.1104 12.2484 2.31181 20.8036
399 1 -1.1104 9.45456 2.65238 20.9136
414 2 2.2208 5.35243 6.96358 16.4013
415 2 2.2208 5.21143 12.4448 16.38
416 1 -1.1104 1.01242 8.24199 17.8366
418 1 -1.1104 1.12573 8.34068 14.9375
422 1 -1.1104 1.14854 5.50967 17.9326
423 1 -1.1104 1.15333 10.9237 17.8441
426 2 2.2208 5.30503 9.59189 19.1496
427 1 -1.1104 0.91922 5.36355 15.1593
429 1 -1.1104 1.2109 11.1661 15.0411
435 1 -1.1104 3.81577 8.3135 17.8232
436 2 2.2208 2.39137 6.82236 19.3241
437 2 2.2208 2.4935 12.3462 19.2631
438 1 -1.1104 4.00704 8.3608 15.011
440 2 2.2208 2.57085 9.74055 16.3415
441 1 -1.1104 4.10654 5.52072 17.9176
442 1 -1.1104 4.00486 11.0103 17.7771
443 1 -1.1104 3.91741 5.58557 15.0196
445 1 -1.1104 3.98645 11.1364 15.0655
431 1 -1.1104 6.64317 5.57441 15.1272
417 1 -1.1104 6.73723 8.2179 17.9142
430 1 -1.1104 1.21825 11.0748 20.7022
439 1 -1.1104 3.82777 8.15189 20.6425
428 1 -1.1104 1.00017 5.37175 20.6192
446 1 -1.1104 3.93444 10.9626 20.7368
598 2 2.2208 -0.295169 12.2367 16.5943
444 1 -1.1104 3.79188 5.43058 20.6829
529 1 -1.1104 9.34827 13.8481 20.7167
434 1 -1.1104 6.66424 10.9784 20.5591
9403 2 2.2208 -0.354991 9.82933 13.6853
424 1 -1.1104 6.78538 5.32585 17.8846
433 1 -1.1104 6.70618 11.0978 15.0185
425 1 -1.1104 6.67728 11.1159 17.6947
420 1 -1.1104 6.8183 8.39448 15.1139
452 2 2.2208 10.9374 6.91356 16.4971
453 2 2.2208 10.8412 12.6184 16.4906
454 1 -1.1104 12.2393 8.42858 17.8851
455 1 -1.1104 12.3951 8.2419 15.1199
457 1 -1.1104 12.3604 5.57882 17.8452
458 1 -1.1104 12.4153 11.1494 18.0828
459 2 2.2208 10.8579 9.77015 19.3437
460 1 -1.1104 12.3198 5.32654 15.036
462 1 -1.1104 12.2482 10.9963 15.2989
464 1 -1.1104 9.47065 8.16371 17.7789
465 2 2.2208 8.10781 6.87109 19.2483
466 2 2.2208 8.05455 12.4919 19.306
467 1 -1.1104 9.61307 8.38573 15.1251
469 2 2.2208 8.163 9.74688 16.4674
470 1 -1.1104 9.61898 5.46133 18.0112
471 1 -1.1104 9.55249 11.1285 17.9024
472 1 -1.1104 9.48638 5.65063 15.0766
474 1 -1.1104 9.45057 11.1777 15.0799
599 2 2.2208 13.7551 12.4176 19.3364
381 2 2.2208 13.6877 9.69147 16.6026
411 2 2.2208 13.6187 12.6956 13.7675
421 1 -1.1104 6.67988 8.26851 20.6722
461 1 -1.1104 12.4744 5.35671 20.6506
468 1 -1.1104 9.51553 8.35051 20.4836
478 2 2.2208 5.3176 18.0457 16.4719
479 1 -1.1104 1.02757 13.7974 17.949
480 1 -1.1104 1.08482 19.514 17.8477
483 1 -1.1104 0.818652 13.7863 14.941
485 1 -1.1104 1.1614 19.4768 15.1063
491 1 -1.1104 1.12224 16.5826 17.9514
493 2 2.2208 5.29612 15.1608 19.332
494 2 2.2208 5.32497 20.9173 19.1962
495 1 -1.1104 1.07116 16.6775 15.0845
499 1 -1.1104 3.79929 13.7981 17.837
500 1 -1.1104 3.90149 19.4183 17.962
501 2 2.2208 2.5345 18.0543 19.3627
502 1 -1.1104 3.68422 13.8792 14.9182
504 1 -1.1104 4.08466 19.3441 15.0093
506 2 2.2208 2.49425 15.1308 16.5052
507 2 2.2208 2.43943 20.8907 16.3259
508 1 -1.1104 3.94216 16.6234 17.8795
509 1 -1.1104 3.78399 16.5468 15.0486
9470 2 2.2208 -0.286044 17.9735 16.4842
496 1 -1.1104 1.02989 16.6066 20.7516
482 1 -1.1104 6.83198 19.4157 17.7507
489 1 -1.1104 6.77895 19.5198 14.8726
9468 2 2.2208 -0.29978 20.9498 19.1125
9469 2 2.2208 -0.279069 15.1775 19.2695
503 1 -1.1104 3.85627 13.797 20.7221
484 1 -1.1104 1.1384 13.8145 20.706
486 1 -1.1104 0.933206 19.5558 20.6009
510 1 -1.1104 3.90799 16.5391 20.7806
481 1 -1.1104 6.66967 13.9126 17.9258
497 1 -1.1104 6.65758 16.7622 14.9785
498 1 -1.1104 6.59063 16.7245 20.7738
487 1 -1.1104 6.58896 13.9566 15.0773
492 1 -1.1104 6.69809 16.6467 17.8322
513 2 2.2208 10.8867 17.9814 16.5208
514 1 -1.1104 12.2262 13.6807 17.8963
515 1 -1.1104 12.2803 19.3428 17.9313
516 1 -1.1104 12.3584 13.8827 15.0891
518 1 -1.1104 12.1914 19.4968 15.2067
520 1 -1.1104 12.0272 16.5497 17.9396
521 2 2.2208 10.8712 15.2116 19.3018
522 2 2.2208 10.9021 20.9318 19.2595
523 1 -1.1104 12.6308 16.6114 15.1557
525 1 -1.1104 9.47299 13.933 17.9416
526 1 -1.1104 9.56588 19.4722 17.9398
527 2 2.2208 8.01132 18.0743 19.1179
528 1 -1.1104 9.45166 13.9848 15.0879
530 1 -1.1104 9.6202 19.3837 15.2114
532 2 2.2208 8.00028 15.3117 16.3892
533 2 2.2208 8.09973 20.8463 16.4228
534 1 -1.1104 9.40317 16.6647 17.8169
535 1 -1.1104 9.68705 16.7384 15.0469
531 1 -1.1104 9.35173 19.2577 20.6085
490 1 -1.1104 6.55234 19.6183 20.5681
9333 2 2.2208 -0.312093 -1.58844 24.8443
406 2 2.2208 13.6211 15.1785 16.7255
576 2 2.2208 -0.272296 3.99311 24.9141
333 2 2.2208 -0.357868 18.1042 27.7472
366 1 -1.1104 4.17899 -2.73156 20.7715
541 2 2.2208 5.2402 1.24571 22.04
542 1 -1.1104 1.20184 -2.98859 23.4418
543 1 -1.1104 1.03067 2.71516 23.5475
546 1 -1.1104 0.811538 -2.97516 26.1801
547 1 -1.1104 1.11826 2.62652 26.3019
550 1 -1.1104 0.988348 -0.263655 23.4568
552 2 2.2208 5.23202 -1.60024 24.7611
553 2 2.2208 5.19629 3.98184 24.9231
554 1 -1.1104 1.12249 -0.237003 26.2101
556 1 -1.1104 3.87142 -2.97729 23.3637
557 1 -1.1104 3.75737 2.56397 23.4373
558 2 2.2208 2.38268 1.10195 24.8005
559 1 -1.1104 3.83896 -3.06421 26.3073
560 1 -1.1104 3.80218 2.5785 26.3268
561 2 2.2208 2.5489 -1.57908 22.1629
562 2 2.2208 2.42578 4.04096 22.1022
563 1 -1.1104 3.85735 -0.143016 23.4812
564 1 -1.1104 3.6565 -0.30712 26.2683
549 1 -1.1104 6.6642 2.71783 26.3062
555 1 -1.1104 6.43146 -0.180048 26.2228
9292 2 2.2208 -0.397612 1.27092 22.0502
8612 2 2.2208 10.981 -4.26948 16.3252
330 2 2.2208 5.24 1.26616 27.6631
8647 2 2.2208 -0.323163 -4.37165 16.49
331 2 2.2208 2.53921 4.10525 27.8441
9331 2 2.2208 -0.390015 4.13716 19.1911
600 2 2.2208 10.8351 -4.19162 22.0127
544 1 -1.1104 6.73579 -2.96758 23.3727
334 2 2.2208 7.97713 -1.51557 27.7179
548 1 -1.1104 6.48586 -3.09423 26.1774
545 1 -1.1104 6.58045 2.60503 23.3573
551 1 -1.1104 6.61535 -0.241519 23.4932
388 1 -1.1104 12.4016 -2.84856 20.8463
404 1 -1.1104 9.78096 -0.0338445 20.9119
577 2 2.2208 10.7827 1.31369 22.3431
578 1 -1.1104 12.2892 -2.7523 23.6682
579 1 -1.1104 12.3292 2.78012 23.6634
580 1 -1.1104 12.1694 -2.78259 26.3135
581 1 -1.1104 12.0402 2.70654 26.383
582 1 -1.1104 12.2732 -0.116468 23.3117
583 2 2.2208 10.7152 -1.56704 24.9728
584 2 2.2208 10.8941 4.09374 24.9392
585 1 -1.1104 12.2431 -0.173826 26.2195
586 1 -1.1104 9.34895 -2.86075 23.5503
587 1 -1.1104 9.53551 2.72907 23.7263
588 2 2.2208 7.92322 1.29889 24.938
589 1 -1.1104 9.36535 -2.89701 26.3485
590 1 -1.1104 9.39375 2.80196 26.3479
591 2 2.2208 8.18312 -1.59002 22.0671
592 2 2.2208 8.10468 4.02877 22.2106
593 1 -1.1104 9.45357 0.00290412 23.5703
594 1 -1.1104 9.4004 -0.0949441 26.3388
338 2 2.2208 8.06262 4.14863 27.7858
511 1 -1.1104 9.3781 19.5968 26.4212
419 1 -1.1104 0.983663 8.2982 20.6908
9290 2 2.2208 -0.225361 12.389 27.6481
630 2 2.2208 5.34706 6.82587 27.7724
606 2 2.2208 5.172 6.86867 22.0948
607 2 2.2208 5.27207 12.3844 22.1278
608 1 -1.1104 0.961743 8.25985 23.3903
610 1 -1.1104 1.03404 8.20895 26.2294
612 1 -1.1104 1.13274 5.50227 23.5096
613 1 -1.1104 1.07579 11.0691 23.5191
616 2 2.2208 5.19419 9.73696 25.1096
617 1 -1.1104 1.03971 5.39933 26.3995
618 1 -1.1104 1.09658 11.1098 26.2833
621 1 -1.1104 3.77487 8.34103 23.5606
622 2 2.2208 2.40908 6.83951 24.9465
623 2 2.2208 2.50624 12.4633 24.8632
624 1 -1.1104 3.86174 8.26396 26.399
625 2 2.2208 2.43223 9.6557 22.1104
626 1 -1.1104 3.77457 5.5409 23.5355
627 1 -1.1104 3.84985 11.0724 23.5289
628 1 -1.1104 3.97578 5.32209 26.4342
629 1 -1.1104 3.95858 11.0681 26.5601
614 1 -1.1104 6.41716 5.44422 23.6381
611 1 -1.1104 6.64695 8.21258 26.422
9577 2 2.2208 -0.412662 6.83637 22.0627
620 1 -1.1104 6.61889 11.1093 26.2508
619 1 -1.1104 6.80544 5.46799 26.3034
615 1 -1.1104 6.65807 11.1567 23.4896
9363 2 2.2208 -0.366366 9.49897 24.8096
632 2 2.2208 5.21531 12.4689 27.9444
631 2 2.2208 2.41942 9.63798 27.6284
9256 2 2.2208 -0.497621 6.93319 27.7567
9474 2 2.2208 13.6488 9.69365 27.8253
475 1 -1.1104 9.45052 11.0076 20.7269
473 1 -1.1104 9.57611 5.30254 20.831
432 1 -1.1104 6.75138 5.42418 20.7272
609 1 -1.1104 6.54174 8.26811 23.4797
456 1 -1.1104 12.1831 8.35348 20.7104
463 1 -1.1104 12.2077 11.1543 20.808
637 1 -1.1104 9.50996 11.1267 26.3632
638 1 -1.1104 9.56215 5.61094 26.1885
639 1 -1.1104 9.40788 11.1943 23.5535
640 1 -1.1104 9.33062 5.4878 23.5113
641 2 2.2208 8.0164 9.72581 21.964
642 1 -1.1104 9.39764 8.45571 26.1817
643 2 2.2208 8.07343 12.4801 24.9664
644 2 2.2208 8.03974 6.93383 24.817
645 2 2.2208 10.7625 6.94075 22.0355
646 2 2.2208 10.8396 12.5879 22.0416
647 1 -1.1104 12.1111 8.25529 23.6154
648 1 -1.1104 12.2062 8.39298 26.3614
649 1 -1.1104 12.2344 5.61376 23.466
650 1 -1.1104 12.3777 10.9943 23.7606
651 2 2.2208 10.7878 9.775 24.8939
652 1 -1.1104 12.3301 5.55862 26.3735
653 1 -1.1104 12.2848 11.1918 26.5055
654 1 -1.1104 9.31666 8.17472 23.1989
565 1 -1.1104 9.52196 13.8388 23.5032
657 2 2.2208 10.9131 12.4196 27.8236
340 2 2.2208 8.08975 9.7692 27.6672
339 2 2.2208 10.8508 6.90574 27.7543
679 1 -1.1104 6.62359 16.6176 23.5272
505 1 -1.1104 3.86248 19.3563 20.8107
337 2 2.2208 2.48328 20.8656 27.7025
596 2 2.2208 2.52692 15.2478 22.0764
597 2 2.2208 2.55297 20.8673 22.0919
655 1 -1.1104 3.82655 16.6371 23.5432
656 1 -1.1104 1.04744 16.7154 23.5793
661 1 -1.1104 3.87977 19.4806 23.4935
663 1 -1.1104 3.79613 13.9308 23.6062
665 1 -1.1104 1.11157 19.4788 26.2705
666 1 -1.1104 1.06036 16.7268 26.4169
667 1 -1.1104 1.20785 13.8785 26.4127
669 2 2.2208 5.31148 20.783 24.9228
670 2 2.2208 5.30049 15.2997 24.8586
672 1 -1.1104 1.07081 19.5148 23.4431
673 1 -1.1104 1.0458 13.8112 23.4882
674 2 2.2208 5.21234 18.1146 22.1647
675 1 -1.1104 3.96187 19.3784 26.3818
676 2 2.2208 2.4701 17.9769 24.8916
677 1 -1.1104 3.82974 16.5113 26.1888
678 1 -1.1104 3.93224 13.7077 26.2841
335 2 2.2208 2.49742 15.2422 27.761
9329 2 2.2208 -0.210787 15.2851 24.8843
451 1 -1.1104 6.75689 19.4896 26.1892
664 1 -1.1104 6.49526 16.6458 26.3736
668 1 -1.1104 6.63591 19.3841 23.5122
660 2 2.2208 10.8612 15.2778 24.8957
336 2 2.2208 5.30166 18.0515 27.6656
450 2 2.2208 8.03711 18.1056 24.954
603 2 2.2208 8.04338 20.9127 27.7445
574 2 2.2208 8.07239 15.2252 27.716
538 2 2.2208 8.05931 20.7443 22.0942
488 1 -1.1104 6.72043 13.7596 20.7543
536 1 -1.1104 9.43035 16.606 20.6589
519 1 -1.1104 12.324 19.7019 20.6458
524 1 -1.1104 12.158 16.8841 20.7516
635 1 -1.1104 12.4389 19.4165 23.5987
659 1 -1.1104 12.3063 16.5989 23.6108
449 1 -1.1104 9.63094 19.4006 23.4991
568 2 2.2208 10.7571 20.9412 24.8238
671 1 -1.1104 6.63538 13.7656 23.5397
662 1 -1.1104 6.70115 13.9655 26.45
634 1 -1.1104 12.3644 13.9156 23.5362
539 1 -1.1104 9.32053 16.7446 23.6087
658 1 -1.1104 12.1906 19.4518 26.3123
633 2 2.2208 10.9439 18.1346 22.1053
477 1 -1.1104 9.368 13.8754 26.2412
636 1 -1.1104 12.2894 13.9978 26.3726
567 1 -1.1104 12.3769 16.7203 26.2478
540 1 -1.1104 9.43899 16.6174 26.5101
517 1 -1.1104 12.2915 13.8875 20.6885
537 2 2.2208 8.03813 15.1687 22.0673
378 2 2.2208 -0.294373 -1.55323 19.1824
376 2 2.2208 2.7265 -4.24078 19.2626
595 2 2.2208 10.5748 1.32985 27.6848
9472 2 2.2208 -0.247959 20.8146 13.6794
326 2 2.2208 10.8685 20.8737 13.695
680 2 2.2208 5.26384 23.7548 5.32431
681 2 2.2208 5.28288 29.3352 5.19238
682 1 -1.1104 0.986805 24.9592 0.869682
683 1 -1.1104 0.952077 25.0835 3.83213
684 1 -1.1104 0.930469 22.2255 1.01031
685 1 -1.1104 1.15291 27.8695 1.01704
686 2 2.2208 5.2192 26.5155 2.43103
687 1 -1.1104 1.09701 22.1304 3.83198
688 1 -1.1104 1.23029 27.8182 3.79456
689 1 -1.1104 3.78937 24.9761 1.08549
690 2 2.2208 2.48298 23.6318 2.425
691 2 2.2208 2.53014 29.3344 2.33444
692 1 -1.1104 3.78193 25.1692 3.92761
693 2 2.2208 2.51322 26.4666 5.28769
694 1 -1.1104 3.75214 22.171 1.11778
695 1 -1.1104 4.09845 27.9284 0.673473
696 1 -1.1104 3.99289 22.2782 3.88856
697 1 -1.1104 3.81262 28.018 3.75322
698 2 2.2208 -0.301931 29.4541 5.26506
829 1 -1.1104 4.04721 27.9602 6.59087
828 1 -1.1104 3.82533 22.3252 6.68985
704 1 -1.1104 6.69958 27.8384 1.12096
827 1 -1.1104 3.78077 25.036 6.65701
821 1 -1.1104 0.925414 25.1541 6.75798
699 2 2.2208 -0.423037 23.8016 5.25708
702 1 -1.1104 6.46468 25.2532 3.86863
703 1 -1.1104 6.59154 22.2155 1.03214
700 2 2.2208 -0.293415 26.5168 2.62785
1594 1 -1.1104 9.39846 47.4062 12.4167
1552 1 -1.1104 6.66156 47.3467 12.3367
705 1 -1.1104 6.56636 22.2646 3.91514
706 1 -1.1104 6.7977 27.9337 3.91031
701 1 -1.1104 6.58716 24.9835 1.05677
1564 1 -1.1104 3.88496 47.4555 12.2196
707 2 2.2208 10.7565 23.8014 5.1734
708 2 2.2208 10.9406 29.2992 5.20244
709 1 -1.1104 12.211 25.0463 0.959264
710 1 -1.1104 12.2516 25.2209 3.7941
711 1 -1.1104 12.3161 22.2156 0.858882
712 1 -1.1104 12.3142 27.9783 0.96829
713 2 2.2208 10.8679 26.5842 2.42659
714 1 -1.1104 12.38 22.294 3.84348
715 1 -1.1104 12.4694 27.9971 3.9909
716 1 -1.1104 9.31369 25.1101 1.0422
717 2 2.2208 7.93758 23.7266 2.42407
718 2 2.2208 8.14366 29.3746 2.46732
719 1 -1.1104 9.42429 25.1732 3.78188
720 2 2.2208 8.17769 26.6549 5.24681
721 1 -1.1104 9.39169 22.3016 0.846095
722 1 -1.1104 9.70866 27.8318 0.957041
723 1 -1.1104 9.43508 22.3238 3.62183
724 1 -1.1104 9.57865 28.01 3.80304
727 2 2.2208 13.7378 26.3453 5.27429
855 1 -1.1104 12.2219 22.2563 6.61006
857 1 -1.1104 9.44843 25.2589 6.50362
825 1 -1.1104 6.66062 22.3187 6.55208
856 1 -1.1104 12.2964 27.716 6.70596
977 1 -1.1104 9.45053 41.8331 9.5622
728 2 2.2208 5.22438 34.963 5.14695
729 1 -1.1104 1.03865 30.8429 0.742354
730 1 -1.1104 0.861059 36.3367 0.936319
732 1 -1.1104 1.003 30.6054 3.68859
733 1 -1.1104 1.19885 36.3776 3.8036
735 1 -1.1104 1.09656 33.4503 0.810606
736 2 2.2208 5.24968 32.1431 2.34126
737 2 2.2208 5.1916 37.7832 2.40845
738 1 -1.1104 0.910059 33.5652 3.75361
740 1 -1.1104 3.80782 30.7424 0.969157
741 1 -1.1104 3.77616 36.3499 0.863681
742 2 2.2208 2.32826 34.9935 2.41426
743 1 -1.1104 3.78227 30.7148 3.92724
744 1 -1.1104 3.81625 36.4153 3.85996
745 2 2.2208 2.56019 32.0927 5.12809
746 2 2.2208 2.45642 37.772 5.28048
747 1 -1.1104 3.80709 33.6523 1.0119
748 1 -1.1104 3.91704 33.5057 3.77191
753 1 -1.1104 6.71983 30.6442 3.78495
885 1 -1.1104 3.80564 36.2792 6.71935
884 1 -1.1104 3.81507 30.8093 6.78245
879 1 -1.1104 0.982353 36.3008 6.60939
882 1 -1.1104 1.08256 33.5207 6.60646
731 1 -1.1104 6.62166 36.2791 1.04281
749 2 2.2208 -0.431956 37.7767 2.41497
878 1 -1.1104 1.12799 30.7577 6.5973
9914 2 2.2208 -0.32048 34.8499 5.21261
1281 2 2.2208 2.46186 32.0524 -0.549544
1546 1 -1.1104 0.914634 47.556 6.64846
752 1 -1.1104 6.73823 30.5638 0.883586
734 1 -1.1104 6.59699 36.3446 3.75941
754 1 -1.1104 6.51438 33.5068 0.945341
739 1 -1.1104 6.62264 33.409 3.72887
755 2 2.2208 10.9823 34.8243 5.15987
756 1 -1.1104 12.3157 30.7655 0.928057
757 1 -1.1104 12.2431 36.2973 0.978811
758 1 -1.1104 12.2157 30.6777 3.80367
759 1 -1.1104 12.3656 36.3089 3.81876
760 1 -1.1104 12.5038 33.5907 0.895526
761 2 2.2208 10.8752 32.0621 2.41297
762 2 2.2208 10.8113 37.705 2.40041
763 1 -1.1104 12.3499 33.4817 3.72473
764 1 -1.1104 9.42824 30.6706 1.10621
765 1 -1.1104 9.51409 36.3064 0.77396
766 2 2.2208 7.88143 34.9264 2.38102
767 1 -1.1104 9.51131 30.7839 3.89241