ITEM: TIMESTEP
60000
ITEM: NUMBER OF ATOMS
17820
ITEM: BOX BOUNDS pp pp pp
-3.5974032734149486e-01 2.7699740327341278e+01
-4.3459354575963394e+00 3.3242593545759553e+02
-3.6228760827597956e-01 2.7702287608276045e+01
ITEM: ATOMS id type q x y z
1 2 2.2208 5.26872 1.15162 5.33622
2 1 -1.1104 1.01877 -2.84169 0.872969
3 1 -1.1104 1.06054 2.75416 1.06663
6 1 -1.1104 0.991084 -2.86177 3.7366
7 1 -1.1104 0.994695 2.61889 4.05438
10 1 -1.1104 1.0204 -0.0705202 1.00491
12 2 2.2208 5.22092 -1.55173 2.44727
13 2 2.2208 5.21134 3.9868 2.51668
14 1 -1.1104 1.11008 -0.111505 3.79425
16 1 -1.1104 3.85242 -3.01553 0.916468
17 1 -1.1104 3.98924 2.67073 0.989198
18 2 2.2208 2.36185 1.24936 2.4615
19 1 -1.1104 3.69281 -3.03429 3.74299
20 1 -1.1104 3.76668 2.61257 3.84841
21 2 2.2208 2.30487 -1.50672 5.30117
22 2 2.2208 2.49861 3.95465 5.30344
23 1 -1.1104 3.84737 -0.188542 1.10256
24 1 -1.1104 3.93643 -0.0698094 3.93331
25 2 2.2208 -0.423607 -1.55165 2.47862
28 2 2.2208 2.46152 -4.3792 2.36257
11 1 -1.1104 6.6921 -0.346037 0.973061
9232 2 2.2208 -0.531388 1.3599 5.32484
8 1 -1.1104 6.5646 -2.96376 3.78861
9233 2 2.2208 -0.466213 4.18683 2.53552
167 1 -1.1104 0.888486 2.73388 6.6524
170 1 -1.1104 0.831443 -0.201957 6.58414
166 1 -1.1104 0.893185 -2.94549 6.5326
174 1 -1.1104 3.77198 -0.233318 6.65073
172 1 -1.1104 3.76591 -2.95089 6.63671
9 1 -1.1104 6.73085 2.50958 3.844
15 1 -1.1104 6.65806 -0.241589 3.89839
8561 2 2.2208 10.7907 -4.24988 -0.433071
5 1 -1.1104 6.75806 2.76678 1.07954
4 1 -1.1104 6.66912 -3.00553 1.01212
31 2 2.2208 10.8123 1.07253 5.29142
32 1 -1.1104 12.1995 -2.82044 0.913739
33 1 -1.1104 12.3651 2.5293 0.984917
34 1 -1.1104 12.1373 -3.01009 3.68347
35 1 -1.1104 12.2283 2.53546 3.77505
36 1 -1.1104 12.3025 -0.142416 0.849199
37 2 2.2208 10.9084 -1.58231 2.47041
39 1 -1.1104 12.3451 -0.19193 3.82016
40 1 -1.1104 9.43165 -2.82987 1.18031
41 1 -1.1104 9.53561 2.69019 1.06637
42 2 2.2208 8.11736 1.22058 2.45844
43 1 -1.1104 9.45217 -3.06022 3.94927
44 1 -1.1104 9.54614 2.59956 3.88425
45 2 2.2208 7.94882 -1.67354 5.2672
46 2 2.2208 8.17047 3.9854 5.27913
47 1 -1.1104 9.47263 -0.163748 1.12872
48 1 -1.1104 9.3235 -0.0961742 3.90766
38 2 2.2208 11.0122 3.89732 2.44024
338 2 2.2208 8.00866 4.05419 -0.324675
168 1 -1.1104 6.70991 -3.12974 6.76671
209 1 -1.1104 9.53739 2.43742 6.56961
205 1 -1.1104 12.4785 -3.09584 6.55646
208 1 -1.1104 9.60514 -3.0922 6.63505
210 1 -1.1104 9.45606 -0.314024 6.61472
171 1 -1.1104 6.51703 -0.269492 6.8421
206 1 -1.1104 12.2281 2.58154 6.67062
9235 2 2.2208 13.6452 -1.52743 5.14517
83 2 2.2208 -0.348517 12.5149 5.22193
54 2 2.2208 5.27649 6.79098 5.24159
55 2 2.2208 5.09941 12.5445 5.378
56 1 -1.1104 1.17552 8.21196 0.961407
58 1 -1.1104 1.04108 8.24699 3.80473
60 1 -1.1104 1.00855 5.32665 1.01904
61 1 -1.1104 1.00242 11.0467 1.19607
66 2 2.2208 5.24635 9.68274 2.57807
67 1 -1.1104 1.07142 5.48645 3.9773
68 1 -1.1104 1.01622 11.1293 3.87477
71 1 -1.1104 4.06497 8.27936 1.06574
72 2 2.2208 2.47802 6.82975 2.48735
73 2 2.2208 2.43116 12.4048 2.48748
74 1 -1.1104 3.86622 8.27349 3.92334
75 2 2.2208 2.28089 9.64344 5.34448
76 1 -1.1104 3.78443 5.57923 1.01948
77 1 -1.1104 3.81472 11.0444 1.21142
79 1 -1.1104 4.01419 5.47062 3.83445
80 1 -1.1104 3.84564 11.1096 4.04104
630 2 2.2208 5.28855 6.89454 -0.195156
81 2 2.2208 -0.436903 6.91304 5.24951
78 1 -1.1104 3.65828 11.0726 6.67139
239 1 -1.1104 3.9059 5.31394 6.73686
9236 2 2.2208 -0.391356 9.66676 2.37771
62 1 -1.1104 1.01226 11.1276 6.68735
236 1 -1.1104 1.104 5.53057 6.82741
57 1 -1.1104 6.7154 8.40391 1.00139
63 1 -1.1104 6.50241 5.52398 1.17014
64 1 -1.1104 6.71446 11.1515 1.29123
70 1 -1.1104 6.54351 11.0024 3.97418
235 1 -1.1104 6.73159 8.31009 6.48694
339 2 2.2208 10.8516 6.94306 -0.198499
69 1 -1.1104 6.84801 5.29297 3.86913
59 1 -1.1104 6.76743 8.14045 3.67015
84 2 2.2208 10.9272 6.88439 5.22904
85 2 2.2208 10.8413 12.3523 5.32994
86 1 -1.1104 12.3567 8.18768 1.09989
87 1 -1.1104 12.3483 8.36534 3.88679
88 1 -1.1104 12.3568 5.38447 1.34208
89 1 -1.1104 12.347 10.8726 0.977387
91 2 2.2208 10.8968 9.70298 2.54856
92 1 -1.1104 12.4245 5.57352 3.82689
93 1 -1.1104 12.2258 11.1422 3.93912
94 1 -1.1104 9.5393 8.22391 1.20818
95 2 2.2208 8.1751 6.78677 2.54051
96 2 2.2208 8.06369 12.5324 2.58338
97 1 -1.1104 9.47385 8.24602 4.10938
98 2 2.2208 7.95436 9.64953 5.258
99 1 -1.1104 9.37566 5.3745 1.13553
100 1 -1.1104 9.50648 10.9926 1.06616
102 1 -1.1104 9.67123 5.26035 3.90098
103 1 -1.1104 9.44862 11.0441 3.89865
267 1 -1.1104 9.49934 8.04733 6.78282
90 1 -1.1104 12.2702 10.9079 6.62907
237 1 -1.1104 6.67231 5.33755 6.68935
266 1 -1.1104 12.353 5.50251 6.68689
269 1 -1.1104 9.54147 5.34358 6.67594
135 2 2.2208 -0.283155 15.3816 2.44232
9238 2 2.2208 -0.374404 20.8477 2.56577
106 2 2.2208 5.23285 18.1075 5.38468
107 1 -1.1104 1.04125 14.1009 1.05193
109 1 -1.1104 1.12754 19.5521 0.98877
113 1 -1.1104 0.968604 13.9156 3.85972
114 1 -1.1104 1.01557 19.5067 3.90311
116 1 -1.1104 1.11599 16.8501 1.05606
119 2 2.2208 5.14708 15.2336 2.48615
120 2 2.2208 5.32919 20.8323 2.46633
121 1 -1.1104 1.16444 16.6896 3.90452
123 1 -1.1104 3.88274 13.8599 1.23962
125 1 -1.1104 4.01473 19.4166 1.17454
127 2 2.2208 2.44266 18.0929 2.5396
128 1 -1.1104 3.79739 13.9097 3.95294
129 1 -1.1104 3.89272 19.6079 4.02516
130 2 2.2208 2.45216 15.3889 5.42367
131 2 2.2208 2.43687 20.8992 5.17467
132 1 -1.1104 3.79299 16.6657 1.08936
134 1 -1.1104 3.92298 16.7205 3.97965
301 1 -1.1104 1.00588 19.5221 6.62997
108 1 -1.1104 0.937395 13.9827 6.69701
111 1 -1.1104 6.68565 13.6897 6.72161
9239 2 2.2208 -0.319554 18.075 5.34985
122 1 -1.1104 6.57989 16.7127 3.85051
140 1 -1.1104 6.63544 16.7414 1.188
126 1 -1.1104 3.90762 19.4638 6.82558
163 1 -1.1104 9.39809 16.589 6.87729
110 1 -1.1104 6.64364 13.849 1.05753
138 1 -1.1104 6.57881 19.5417 1.14863
118 1 -1.1104 6.59614 16.7513 6.64546
139 1 -1.1104 6.67122 19.4271 4.00708
115 1 -1.1104 6.5517 13.8539 3.90547
141 2 2.2208 10.8168 18.0373 5.42926
142 1 -1.1104 12.3478 13.9322 1.06168
144 1 -1.1104 12.3348 19.3375 1.25379
146 1 -1.1104 12.2294 13.7183 3.85719
147 1 -1.1104 12.367 19.2958 3.88713
148 1 -1.1104 12.3374 16.7008 1.23515
150 2 2.2208 10.9568 15.1699 2.62333
151 2 2.2208 10.8954 20.7154 2.628
152 1 -1.1104 12.2857 16.58 4.1035
153 1 -1.1104 9.51678 13.7268 1.22345
155 1 -1.1104 9.42845 19.4365 1.05219
157 2 2.2208 7.95979 18.0405 2.58735
158 1 -1.1104 9.40351 13.8574 3.98312
159 1 -1.1104 9.40831 19.4265 3.91486
160 2 2.2208 8.05851 15.1979 5.4034
161 2 2.2208 7.93066 20.8868 5.31559
162 1 -1.1104 9.45919 16.5277 1.16249
164 1 -1.1104 9.46462 16.4734 4.15735
154 1 -1.1104 9.46913 13.7578 6.75385
145 1 -1.1104 12.2186 19.4352 6.65632
149 1 -1.1104 12.2644 16.6162 6.73331
112 1 -1.1104 6.70558 19.6928 6.78208
143 1 -1.1104 12.2704 13.7975 6.75685
575 2 2.2208 10.8416 18.0625 -0.287841
202 2 2.2208 2.35961 -4.21256 7.90901
9134 2 2.2208 -0.340303 -4.35063 10.7871
9240 2 2.2208 -0.401974 4.07528 8.11041
173 1 -1.1104 3.90742 2.51755 6.56029
201 2 2.2208 -0.39815 1.202 10.8366
175 2 2.2208 5.21756 1.17319 10.8982
176 1 -1.1104 0.842219 -2.86522 12.1013
177 1 -1.1104 1.17631 2.76665 12.3725
180 1 -1.1104 0.81663 -2.94701 9.28082
181 1 -1.1104 0.974294 2.62933 9.48658
184 1 -1.1104 1.0012 0.0469608 12.3125
186 2 2.2208 5.09843 -1.61991 8.08982
187 2 2.2208 5.3724 4.03247 8.19545
188 1 -1.1104 0.994472 -0.203591 9.37684
190 1 -1.1104 3.68358 -2.94337 12.2004
191 1 -1.1104 3.91424 2.63825 12.2827
192 2 2.2208 2.2581 1.23827 7.99501
193 1 -1.1104 3.60257 -2.97987 9.48242
194 1 -1.1104 3.78595 2.52215 9.46619
195 2 2.2208 2.36528 -1.56001 10.7339
196 2 2.2208 2.48051 4.06499 10.8554
197 1 -1.1104 3.73625 -0.204969 12.1474
198 1 -1.1104 3.81724 -0.153921 9.40613
9241 2 2.2208 -0.657018 -1.56472 8.00433
178 1 -1.1104 6.73941 -2.88486 12.3385
185 1 -1.1104 6.56523 -0.10736 12.2755
447 2 2.2208 -0.357457 4.06944 13.7716
383 2 2.2208 5.25494 4.1513 13.8402
317 2 2.2208 5.22892 -1.61177 13.539
231 2 2.2208 8.13221 -4.30135 7.95405
232 2 2.2208 10.9162 -4.47192 10.6794
179 1 -1.1104 6.52069 2.86144 12.2828
207 1 -1.1104 12.2843 -0.32795 6.62982
169 1 -1.1104 6.80841 2.68237 6.71884
183 1 -1.1104 6.7587 2.62444 9.65958
182 1 -1.1104 6.59996 -3.06581 9.39595
189 1 -1.1104 6.5789 -0.273565 9.37305
211 2 2.2208 10.7315 1.28948 10.971
212 1 -1.1104 12.3333 -3.1729 11.953
213 1 -1.1104 12.195 2.54549 12.3168
214 1 -1.1104 12.3194 -3.03217 9.31959
215 1 -1.1104 12.2293 2.74875 9.4771
216 1 -1.1104 12.2493 -0.241614 12.0055
217 2 2.2208 10.9481 -1.63568 8.09231
219 1 -1.1104 12.1162 -0.117763 9.29314
220 1 -1.1104 9.50689 -2.90222 12.1934
221 1 -1.1104 9.34045 2.59734 12.3633
222 2 2.2208 7.97541 1.24704 8.05482
223 1 -1.1104 9.46756 -3.0286 9.47771
224 1 -1.1104 9.48404 2.64545 9.44986
225 2 2.2208 8.09093 -1.5464 10.8649
226 2 2.2208 8.1135 4.08365 10.9704
227 1 -1.1104 9.32619 -0.120359 12.1873
228 1 -1.1104 9.35195 -0.159684 9.43918
408 2 2.2208 8.14199 -4.33732 13.7341
318 2 2.2208 7.88566 1.38503 13.7534
413 2 2.2208 10.7965 3.94766 13.6178
412 2 2.2208 10.8288 -1.63135 13.6627
9159 2 2.2208 -0.421351 12.4844 10.8736
238 1 -1.1104 3.87149 8.16986 6.67877
9167 2 2.2208 -0.457555 6.95946 10.7631
30 2 2.2208 -0.346412 9.79986 8.02236
234 1 -1.1104 1.04134 8.32342 6.76424
240 2 2.2208 5.34217 6.84777 10.8739
241 2 2.2208 5.23331 12.5088 10.8573
242 1 -1.1104 0.917965 8.44266 12.2246
244 1 -1.1104 1.10187 8.27465 9.47886
246 1 -1.1104 0.994567 5.66717 12.1365
247 1 -1.1104 1.0157 11.2316 11.9967
250 2 2.2208 5.21363 9.60147 8.12101
251 1 -1.1104 1.05418 5.42528 9.5933
252 1 -1.1104 1.04002 11.1197 9.24188
255 1 -1.1104 3.79924 8.14531 12.2264
256 2 2.2208 2.46796 6.78829 8.02505
257 2 2.2208 2.42527 12.6131 8.13427
258 1 -1.1104 3.98391 8.14348 9.45819
259 2 2.2208 2.38533 9.66513 10.8654
260 1 -1.1104 3.83639 5.3598 12.2964
261 1 -1.1104 3.89253 10.9908 12.2041
262 1 -1.1104 3.86127 5.35817 9.55698
263 1 -1.1104 3.87289 10.9394 9.48461
253 1 -1.1104 6.73524 5.37768 9.4978
249 1 -1.1104 6.59144 11.1687 12.3069
321 2 2.2208 2.48314 12.4812 13.6957
319 2 2.2208 2.44543 6.82558 13.5985
320 2 2.2208 5.21629 9.73417 13.5867
101 1 -1.1104 9.38438 10.8325 6.50184
65 1 -1.1104 6.50057 11.0414 6.69224
243 1 -1.1104 6.52406 8.25839 12.1227
248 1 -1.1104 6.75111 5.54762 12.5171
218 2 2.2208 10.8742 4.06365 8.05737
254 1 -1.1104 6.7159 10.9923 9.49923
245 1 -1.1104 6.87675 8.22388 9.39414
265 1 -1.1104 12.2757 8.29777 7.03661
264 1 -1.1104 9.33081 11.2533 9.50543
268 1 -1.1104 9.29151 5.40048 9.4615
270 1 -1.1104 9.42461 11.0962 12.2616
271 1 -1.1104 9.42612 5.37394 12.2706
272 2 2.2208 8.00365 9.72938 10.8484
273 1 -1.1104 9.87947 8.33598 9.49354
274 2 2.2208 8.03289 12.566 8.2428
275 2 2.2208 8.00983 6.82086 8.02926
276 2 2.2208 10.7136 6.83957 10.9818
277 2 2.2208 10.8641 12.5789 10.8354
278 1 -1.1104 11.9082 8.08762 12.2779
279 1 -1.1104 12.2146 5.43924 12.0438
280 1 -1.1104 12.3484 11.1752 12.3085
281 2 2.2208 10.7595 9.7219 8.01468
282 1 -1.1104 12.2244 5.7931 9.46965
283 1 -1.1104 11.9939 11.2334 9.34358
284 1 -1.1104 9.30785 8.2875 12.29
323 2 2.2208 10.8829 9.6611 13.5818
117 1 -1.1104 1.09602 16.7749 6.6929
133 1 -1.1104 3.77269 16.6998 6.81599
512 2 2.2208 5.18186 20.9075 13.8355
305 1 -1.1104 6.6171 16.7734 12.4574
124 1 -1.1104 3.82563 13.9565 6.77288
285 1 -1.1104 3.78909 19.5184 12.2792
286 1 -1.1104 3.81889 13.6874 12.4389
290 1 -1.1104 1.01365 19.5682 9.45641
291 1 -1.1104 1.03438 16.6819 9.50555
292 2 2.2208 5.21522 20.9091 8.22758
293 1 -1.1104 1.0155 13.9419 9.40689
294 2 2.2208 5.21241 15.3825 8.18293
297 1 -1.1104 0.877798 19.6014 12.3025
298 1 -1.1104 1.03114 13.9532 12.3792
299 2 2.2208 5.21155 18.0177 11.0242
300 1 -1.1104 3.77042 19.5322 9.48229
302 2 2.2208 2.44583 18.2042 8.16207
303 1 -1.1104 3.90199 16.6165 9.65859
304 1 -1.1104 3.78124 13.8697 9.52294
306 1 -1.1104 1.00309 16.6569 12.3189
307 1 -1.1104 3.92476 16.5761 12.3414
308 2 2.2208 2.38541 20.8968 10.9764
309 2 2.2208 2.41313 15.2932 11.0278
325 2 2.2208 2.34386 18.1658 13.6118
8969 2 2.2208 -0.307417 20.923 8.06794
316 2 2.2208 -0.433661 15.4114 13.6484
9472 2 2.2208 -0.388493 20.9165 13.613
324 2 2.2208 5.23207 15.2637 13.8433
326 2 2.2208 10.6833 20.8763 13.6643
82 1 -1.1104 12.1987 19.5212 12.3986
137 1 -1.1104 12.2695 16.7471 12.3611
50 2 2.2208 10.8385 18.1742 10.9737
156 1 -1.1104 9.36143 19.4511 6.65394
314 1 -1.1104 9.50009 16.5728 12.38
200 2 2.2208 10.7806 20.885 8.02482
296 1 -1.1104 6.5451 13.9338 12.466
327 2 2.2208 10.8447 15.4045 13.7465
287 1 -1.1104 6.52892 19.377 9.57601
312 1 -1.1104 9.42344 14.0198 9.6508
295 1 -1.1104 6.61712 19.553 12.3784
288 1 -1.1104 6.58421 16.6726 9.53267
136 1 -1.1104 12.2911 19.5865 9.54021
233 2 2.2208 8.02088 15.29 10.9749
313 1 -1.1104 9.49664 16.692 9.61741
204 1 -1.1104 12.1594 16.6998 9.46805
51 1 -1.1104 12.0979 14.1179 12.2442
229 1 -1.1104 9.4948 13.8792 12.3421
199 2 2.2208 10.9418 15.2756 8.25223
315 2 2.2208 7.79055 20.8551 10.9951
289 1 -1.1104 6.65209 13.9029 9.61149
203 1 -1.1104 9.46929 19.4759 9.39646
311 2 2.2208 7.94303 18.075 8.19314
104 1 -1.1104 12.3102 13.9815 9.5077
310 1 -1.1104 9.34083 19.3402 12.1833
328 2 2.2208 8.02239 18.0545 13.8438
341 2 2.2208 5.0497 1.33985 16.4402
342 1 -1.1104 1.05617 -2.97172 17.7955
343 1 -1.1104 1.00977 2.80255 17.8532
346 1 -1.1104 1.01733 -2.92382 14.9772
348 1 -1.1104 0.967402 2.80603 15.1633
354 1 -1.1104 0.89152 -0.148529 17.9983
356 2 2.2208 5.12675 -1.55717 19.2684
357 2 2.2208 5.2994 4.25602 19.3389
358 1 -1.1104 0.993007 -0.0666134 15.0233
362 1 -1.1104 3.77732 -2.92001 17.8961
363 1 -1.1104 3.72996 2.69939 17.8815
364 2 2.2208 2.39051 1.40987 19.1698
365 1 -1.1104 3.78544 -3.0043 14.9269
367 1 -1.1104 3.73381 2.70437 15.1184
369 2 2.2208 2.36559 -1.48169 16.2944
370 2 2.2208 2.43235 4.11721 16.4357
371 1 -1.1104 3.67362 0.00343179 17.6461
372 1 -1.1104 3.76444 -0.134976 14.9006
382 2 2.2208 2.36613 1.28423 13.5197
375 2 2.2208 5.28138 -4.3787 16.4596
349 1 -1.1104 1.02294 2.67757 20.6176
355 1 -1.1104 6.3813 -0.168583 17.903
350 1 -1.1104 6.68035 -2.93572 15.0873
376 2 2.2208 2.38223 -4.35457 19.2846
351 1 -1.1104 6.64633 -2.96784 20.6942
368 1 -1.1104 3.86417 2.687 20.7041
359 1 -1.1104 0.962438 0.0112734 20.6223
366 1 -1.1104 3.88349 -2.90189 20.6411
379 2 2.2208 -0.472599 -1.56365 13.6367
377 2 2.2208 -0.401694 1.26157 16.4237
378 2 2.2208 -0.31195 -1.46138 19.2976
9331 2 2.2208 -0.353258 4.11089 19.2794
405 2 2.2208 13.7496 -4.26115 19.3604
8611 2 2.2208 7.99071 -4.37084 19.3106
345 1 -1.1104 6.42666 2.61013 17.9415
360 1 -1.1104 6.57754 -0.0212178 15.1715
352 1 -1.1104 6.55492 2.79466 15.1448
344 1 -1.1104 6.91795 -3.00441 17.8106
384 2 2.2208 10.8591 1.25904 16.516
385 1 -1.1104 12.6231 -3.16336 17.6267
386 1 -1.1104 12.1141 2.84711 17.8569
387 1 -1.1104 12.2658 -3.08768 14.7261
389 1 -1.1104 12.0516 2.55273 14.9957
391 1 -1.1104 12.4298 0.037633 17.5387
393 1 -1.1104 12.1577 -0.204845 14.7997
394 1 -1.1104 9.22716 2.77292 17.8142
395 2 2.2208 8.0117 1.08921 19.2092
396 1 -1.1104 9.41068 -3.02002 15.5146
398 1 -1.1104 9.3958 2.69695 15.1176
400 2 2.2208 7.9693 -1.45314 16.4232
401 2 2.2208 7.93633 4.1248 16.58
402 1 -1.1104 9.22146 -0.293153 17.8627
403 1 -1.1104 9.37974 -0.226144 14.8064
392 2 2.2208 10.7456 4.09981 19.2077
361 1 -1.1104 6.52349 -0.249227 20.6709
390 1 -1.1104 12.1927 2.28564 20.5037
353 1 -1.1104 6.6789 2.74266 20.7691
399 1 -1.1104 9.36926 2.77452 20.4373
388 1 -1.1104 12.5347 -2.87734 20.7345
414 2 2.2208 5.23497 7.03641 16.4737
415 2 2.2208 5.23546 12.5141 16.6327
416 1 -1.1104 1.08453 8.36766 17.7108
418 1 -1.1104 0.831741 8.26405 15.0715
422 1 -1.1104 1.00218 5.67346 17.838
423 1 -1.1104 1.06045 11.1 17.7959
426 2 2.2208 5.19099 9.72933 19.2356
427 1 -1.1104 1.1511 5.43172 15.0426
429 1 -1.1104 1.25877 11.0571 15.005
435 1 -1.1104 3.89678 8.278 17.9887
436 2 2.2208 2.36923 6.91715 19.2023
437 2 2.2208 2.56679 12.6408 19.3763
438 1 -1.1104 3.79555 8.23555 15.0563
440 2 2.2208 2.44474 9.61801 16.4363
441 1 -1.1104 3.85393 5.57978 17.7847
442 1 -1.1104 3.85003 11.1257 17.8417
443 1 -1.1104 3.83983 5.38774 15.0563
445 1 -1.1104 3.88816 11.1555 15.007
9406 2 2.2208 -0.456971 6.9458 16.3573
444 1 -1.1104 3.78368 5.57386 20.5443
419 1 -1.1104 1.09876 8.3598 20.7237
407 2 2.2208 -0.269717 9.81369 19.3621
598 2 2.2208 -0.297193 12.372 16.6288
9403 2 2.2208 -0.453512 9.67717 13.688
476 2 2.2208 7.99421 6.89645 13.7626
417 1 -1.1104 6.62411 8.27382 17.9141
433 1 -1.1104 6.62787 11.1521 15.0623
420 1 -1.1104 6.6938 8.44487 15.0438
425 1 -1.1104 6.55403 11.0532 17.8717
431 1 -1.1104 6.51281 5.61845 15.3209
424 1 -1.1104 6.74597 5.53403 18.0093
452 2 2.2208 10.8688 6.85467 16.4171
453 2 2.2208 10.8428 12.3172 16.5132
454 1 -1.1104 12.2995 8.3361 17.7526
455 1 -1.1104 12.3201 8.22097 15.1156
457 1 -1.1104 12.2104 5.61016 17.954
458 1 -1.1104 12.205 10.9818 17.8209
459 2 2.2208 10.8562 9.65797 19.3704
460 1 -1.1104 12.1931 5.39008 14.9919
462 1 -1.1104 12.2564 11.0947 15.0697
464 1 -1.1104 9.52212 8.30817 17.8947
465 2 2.2208 8.10411 6.92081 19.2726
466 2 2.2208 8.00464 12.3638 19.2803
467 1 -1.1104 9.492 8.29194 15.1078
469 2 2.2208 8.11464 9.67379 16.4166
470 1 -1.1104 9.53911 5.47314 17.7705
471 1 -1.1104 9.3968 11.0631 17.9754
472 1 -1.1104 9.39742 5.4395 15.0653
474 1 -1.1104 9.42085 11.0219 15.026
475 1 -1.1104 9.52943 11.1102 20.8256
432 1 -1.1104 6.593 5.61116 20.864
434 1 -1.1104 6.61982 10.9021 20.7399
461 1 -1.1104 12.2675 5.28017 20.7259
468 1 -1.1104 9.5703 8.2065 20.7208
473 1 -1.1104 9.33152 5.47986 20.7273
463 1 -1.1104 12.334 10.9736 20.8008
322 2 2.2208 8.03383 12.4935 13.7591
9469 2 2.2208 -0.387695 15.3043 19.3405
478 2 2.2208 5.10516 18.0375 16.4003
479 1 -1.1104 1.0071 13.7983 18.1601
480 1 -1.1104 0.961981 19.4224 17.9804
483 1 -1.1104 0.601221 13.9716 15.2151
485 1 -1.1104 1.00055 19.5484 15.0964
491 1 -1.1104 0.870237 16.6272 17.8205
493 2 2.2208 5.17157 15.3353 19.2351
494 2 2.2208 5.28988 20.865 19.3752
495 1 -1.1104 0.951034 16.5378 14.9951
499 1 -1.1104 3.80692 13.892 17.9043
500 1 -1.1104 3.77107 19.4992 17.9735
501 2 2.2208 2.33945 18.0402 19.3972
502 1 -1.1104 3.77349 13.9462 15.0856
504 1 -1.1104 3.72103 19.4645 15.078
506 2 2.2208 2.28722 15.2572 16.4229
507 2 2.2208 2.28017 20.8066 16.6285
508 1 -1.1104 3.75441 16.5734 17.9138
509 1 -1.1104 3.69495 16.6176 15.003
484 1 -1.1104 1.10678 14.0021 20.8516
510 1 -1.1104 3.79352 16.709 20.6374
503 1 -1.1104 3.91814 13.8825 20.8857
505 1 -1.1104 3.81938 19.5125 20.6781
486 1 -1.1104 1.04171 19.5479 20.6654
492 1 -1.1104 6.52722 16.739 17.746
489 1 -1.1104 6.53514 19.5189 15.1568
488 1 -1.1104 6.5762 13.8825 20.8055
406 2 2.2208 13.5283 15.1519 16.7074
536 1 -1.1104 9.36872 16.765 20.7498
524 1 -1.1104 12.0905 16.5411 20.8454
487 1 -1.1104 6.67781 13.8501 15.1883
481 1 -1.1104 6.50677 13.842 18.0038
497 1 -1.1104 6.60965 16.6029 15.1924
482 1 -1.1104 6.58671 19.6224 17.9223
513 2 2.2208 11.0411 18.1272 16.638
514 1 -1.1104 12.1739 13.6954 17.9088
515 1 -1.1104 12.1225 19.6218 18.0395
516 1 -1.1104 12.1984 13.9242 15.0963
518 1 -1.1104 12.0562 19.5936 15.2144
520 1 -1.1104 12.1512 16.7743 18.0461
521 2 2.2208 10.681 15.2805 19.4278
522 2 2.2208 10.7271 20.8519 19.4106
523 1 -1.1104 12.5457 16.9098 15.1653
525 1 -1.1104 9.34084 13.8434 17.9264
526 1 -1.1104 9.38186 19.493 18.0565
527 2 2.2208 7.91114 18.1091 19.3669
528 1 -1.1104 9.58583 14.0422 15.1519
530 1 -1.1104 9.31834 19.5928 15.0301
532 2 2.2208 8.08834 15.2458 16.5244
533 2 2.2208 7.98885 20.9219 16.5525
534 1 -1.1104 9.34019 16.6375 17.8922
535 1 -1.1104 9.47582 16.7784 15.1328
531 1 -1.1104 9.39704 19.5782 20.8256
517 1 -1.1104 11.9604 13.7801 20.6609
529 1 -1.1104 9.32231 13.938 20.8216
576 2 2.2208 -0.396313 4.16069 24.8614
9333 2 2.2208 -0.345523 -1.6197 24.8399
571 2 2.2208 5.08744 -4.22591 22.0768
347 1 -1.1104 1.19184 -2.92593 20.8223
373 1 -1.1104 3.65345 -0.00703514 20.752
541 2 2.2208 5.18713 1.32612 21.998
542 1 -1.1104 1.07897 -3.16444 23.5533
543 1 -1.1104 0.884319 2.63663 23.4373
546 1 -1.1104 1.04667 -2.96664 26.2263
547 1 -1.1104 0.915258 2.73183 26.3655
550 1 -1.1104 0.888467 -0.233196 23.4201
552 2 2.2208 5.2776 -1.56976 24.8646
554 1 -1.1104 1.17396 -0.23238 26.1666
556 1 -1.1104 3.7228 -2.80064 23.4418
557 1 -1.1104 3.69326 2.52583 23.4929
558 2 2.2208 2.46593 1.34853 24.99
559 1 -1.1104 3.84676 -2.9379 26.2641
560 1 -1.1104 3.86602 2.60872 26.4119
561 2 2.2208 2.34087 -1.401 22.048
562 2 2.2208 2.2861 4.06216 22.0477
563 1 -1.1104 3.90134 -0.238908 23.4286
564 1 -1.1104 4.05292 -0.147961 26.3075
553 2 2.2208 5.2425 4.04664 24.9328
9292 2 2.2208 -0.358152 1.31086 21.9717
331 2 2.2208 2.45209 4.10473 27.73
566 2 2.2208 2.48213 -1.59242 27.6726
330 2 2.2208 5.30327 1.24624 27.7833
573 2 2.2208 -0.318398 1.28334 27.7478
600 2 2.2208 10.8872 -4.31103 22.1031
545 1 -1.1104 6.5152 2.72139 23.3601
555 1 -1.1104 6.75602 -0.0818528 26.2297
551 1 -1.1104 6.71336 -0.0477486 23.447
549 1 -1.1104 6.67774 2.643 26.3657
397 1 -1.1104 9.32714 -3.16846 20.7479
548 1 -1.1104 6.57999 -2.78856 26.2604
544 1 -1.1104 6.67329 -2.92933 23.418
404 1 -1.1104 9.38019 0.0595839 20.9041
577 2 2.2208 10.6828 1.4413 22.0829
578 1 -1.1104 12.229 -3.02202 23.4413
579 1 -1.1104 12.1962 2.81886 23.5988
580 1 -1.1104 12.2335 -2.89896 26.2477
581 1 -1.1104 12.0552 2.71831 26.2969
582 1 -1.1104 12.2369 -0.0549179 23.2504
583 2 2.2208 10.8246 -1.47892 24.8445
584 2 2.2208 10.8183 4.21243 24.9084
585 1 -1.1104 12.2691 -0.176026 26.115
586 1 -1.1104 9.45344 -2.74483 23.4413
587 1 -1.1104 9.34806 2.80792 23.3259
588 2 2.2208 8.09239 1.38531 24.8352
589 1 -1.1104 9.47961 -2.87291 26.2853
590 1 -1.1104 9.37314 2.76011 26.1515
591 2 2.2208 8.02101 -1.51225 21.9962
593 1 -1.1104 9.44932 0.102153 23.6003
594 1 -1.1104 9.53621 -0.0190707 26.3568
592 2 2.2208 7.96651 4.12098 22.1488
595 2 2.2208 10.7475 1.38222 27.6796
334 2 2.2208 8.08901 -1.48767 27.6966
9290 2 2.2208 -0.459836 12.4665 27.6926
9577 2 2.2208 -0.478294 7.03845 22.1695
439 1 -1.1104 3.74727 8.26137 20.6479
430 1 -1.1104 1.08794 11.3505 20.5901
421 1 -1.1104 6.55526 8.17843 20.637
9363 2 2.2208 -0.369384 9.64736 24.9987
9505 2 2.2208 -0.393894 12.4265 22.141
446 1 -1.1104 3.83282 11.1682 20.7163
428 1 -1.1104 0.98819 5.66285 20.7048
606 2 2.2208 5.12925 6.88925 22.0347
607 2 2.2208 5.24348 12.5148 22.2704
608 1 -1.1104 1.11974 8.27367 23.5694
610 1 -1.1104 1.14603 8.17306 26.3428
612 1 -1.1104 0.934006 5.60506 23.3825
613 1 -1.1104 0.967608 11.177 23.3882
616 2 2.2208 5.31026 9.75435 24.9108
617 1 -1.1104 1.09077 5.44066 26.3023
618 1 -1.1104 1.06952 11.1066 26.2866
621 1 -1.1104 3.98349 8.38027 23.5506
622 2 2.2208 2.6002 6.92788 24.9006
623 2 2.2208 2.41444 12.4834 25.0129
624 1 -1.1104 3.84636 8.32883 26.2792
625 2 2.2208 2.61244 9.69391 22.1466
626 1 -1.1104 3.753 5.45104 23.3458
627 1 -1.1104 3.84876 11.1223 23.5548
628 1 -1.1104 3.91333 5.50302 26.2848
629 1 -1.1104 3.90348 10.9973 26.4822
609 1 -1.1104 6.63954 8.23018 23.4104
632 2 2.2208 5.2329 12.4813 27.8065
631 2 2.2208 2.39808 9.66822 27.8023
9256 2 2.2208 -0.34145 6.87131 27.7364
657 2 2.2208 10.8174 12.4834 27.7894
340 2 2.2208 7.94251 9.70183 27.803
611 1 -1.1104 6.64075 8.36865 26.1357
615 1 -1.1104 6.78953 11.1285 23.5779
619 1 -1.1104 6.67356 5.65654 26.3873
614 1 -1.1104 6.5731 5.5059 23.6817
620 1 -1.1104 6.67935 11.2418 26.4172
456 1 -1.1104 12.2783 8.10427 20.6903
637 1 -1.1104 9.55837 11.1478 26.272
638 1 -1.1104 9.51136 5.51873 26.3991
639 1 -1.1104 9.54866 10.928 23.3979
640 1 -1.1104 9.42628 5.59584 23.5435
641 2 2.2208 8.01254 9.56763 21.9814
642 1 -1.1104 9.50092 8.4883 26.5304
643 2 2.2208 8.02384 12.5269 25.0203
644 2 2.2208 8.03895 7.0039 24.8835
645 2 2.2208 10.8692 6.8589 22.118
646 2 2.2208 10.7513 12.5224 22.1594
647 1 -1.1104 12.2033 8.25257 23.7752
648 1 -1.1104 12.309 8.21813 26.4042
649 1 -1.1104 12.3548 5.58689 23.5538
650 1 -1.1104 12.4073 11.0198 23.6596
651 2 2.2208 10.8597 9.69122 25.0272
652 1 -1.1104 12.1509 5.52042 26.4175
653 1 -1.1104 12.3803 11.1305 26.3432
654 1 -1.1104 9.45431 8.21775 23.3735
9293 2 2.2208 -0.307636 20.8822 24.912
9287 2 2.2208 -0.363717 18.038 22.2044
333 2 2.2208 -0.199141 18.0897 27.7686
496 1 -1.1104 1.05484 16.8731 20.6613
596 2 2.2208 2.33609 15.2979 22.2837
597 2 2.2208 2.48718 20.9924 22.0882
655 1 -1.1104 3.85675 16.6896 23.4276
656 1 -1.1104 0.945088 16.628 23.555
661 1 -1.1104 3.79947 19.6283 23.4489
663 1 -1.1104 3.86582 13.8486 23.8571
665 1 -1.1104 1.07235 19.428 26.3568
666 1 -1.1104 1.00303 16.6102 26.2854
667 1 -1.1104 0.983167 13.6493 26.4269
669 2 2.2208 5.22485 20.8804 24.9987
670 2 2.2208 5.26735 15.3151 24.9215
672 1 -1.1104 0.993874 19.4732 23.5746
673 1 -1.1104 1.12454 13.8787 23.5654
674 2 2.2208 5.18127 18.0903 22.2012
675 1 -1.1104 3.77682 19.4133 26.3843
676 2 2.2208 2.45082 18.0198 25.0681
677 1 -1.1104 3.84713 16.7146 26.3733
678 1 -1.1104 3.89993 13.8272 26.4287
668 1 -1.1104 6.45353 19.6824 23.5503
337 2 2.2208 2.4409 20.9033 27.7477
335 2 2.2208 2.52894 15.2344 27.8117
336 2 2.2208 5.31644 18.0664 27.8604
410 2 2.2208 13.6532 18.1067 25.0164
574 2 2.2208 8.10659 15.2125 27.8175
660 2 2.2208 10.8354 15.3438 25.0161
537 2 2.2208 7.90593 15.3729 22.1484
664 1 -1.1104 6.62634 16.7385 26.4765
490 1 -1.1104 6.5748 19.559 20.857
498 1 -1.1104 6.58065 16.7295 20.6528
519 1 -1.1104 12.2196 19.3968 20.9039
679 1 -1.1104 6.66786 16.7265 23.4909
569 2 2.2208 13.6324 20.9475 22.1956
634 1 -1.1104 12.1895 13.9275 23.5596
477 1 -1.1104 9.43845 13.9162 26.3747
659 1 -1.1104 12.1978 16.8115 23.6669
633 2 2.2208 10.8304 18.0844 22.1686
449 1 -1.1104 9.23102 19.6343 23.6335
451 1 -1.1104 6.56471 19.5729 26.3427
662 1 -1.1104 6.6678 14.0017 26.2682
565 1 -1.1104 9.40658 13.8637 23.6417
568 2 2.2208 10.8589 20.9505 24.7831
511 1 -1.1104 9.43709 19.561 26.3788
540 1 -1.1104 9.3835 16.8248 26.5335
658 1 -1.1104 12.1925 19.4654 26.2806
636 1 -1.1104 12.1321 13.8042 26.2665
635 1 -1.1104 12.1593 19.5958 23.4794
539 1 -1.1104 9.37029 16.6904 23.6608
567 1 -1.1104 12.213 16.8096 26.4568
671 1 -1.1104 6.61546 13.9291 23.5953
538 2 2.2208 7.96436 20.9651 22.2264
450 2 2.2208 7.97771 18.1593 25.0536
603 2 2.2208 8.00092 20.8538 27.6766
680 2 2.2208 5.2121 23.7166 5.15695
681 2 2.2208 5.24817 29.271 5.27132
682 1 -1.1104 1.09118 25.1131 1.21681
683 1 -1.1104 0.974005 24.9415 3.91799
684 1 -1.1104 1.07283 22.2279 1.08329
685 1 -1.1104 0.973167 28.0051 1.10913
686 2 2.2208 5.20558 26.4803 2.47918
687 1 -1.1104 0.971342 22.2122 3.97298
688 1 -1.1104 0.911586 27.7552 3.96472
689 1 -1.1104 3.87169 25.0939 1.0968
690 2 2.2208 2.4745 23.6979 2.51452
691 2 2.2208 2.33004 29.2101 2.45582
692 1 -1.1104 3.78729 25.0754 3.8452
693 2 2.2208 2.49186 26.5098 5.27248
694 1 -1.1104 3.83622 22.4612 1.19014
695 1 -1.1104 3.75932 27.951 1.12301
696 1 -1.1104 3.76565 22.2769 3.80735
697 1 -1.1104 3.61285 27.872 3.85349
704 1 -1.1104 6.5241 27.6517 1.1135
829 1 -1.1104 3.99736 27.871 6.64804
698 2 2.2208 -0.475435 29.3087 5.23387
824 1 -1.1104 1.06073 27.7702 6.75585
823 1 -1.1104 1.09215 22.2508 6.54699
828 1 -1.1104 3.83747 22.1273 6.80112
700 2 2.2208 -0.36593 26.4792 2.45645
699 2 2.2208 -0.294297 23.7033 5.32891
703 1 -1.1104 6.54871 22.2462 1.09518
705 1 -1.1104 6.68594 22.2198 3.83531
821 1 -1.1104 1.15915 24.9081 6.6987
9930 2 2.2208 -0.389431 23.6922 -0.281252
1226 2 2.2208 -0.312362 29.3476 -0.294567
706 1 -1.1104 6.56672 27.9738 3.87902
701 1 -1.1104 6.70238 24.9676 1.00656
702 1 -1.1104 6.62956 25.1618 3.92037
707 2 2.2208 10.8992 23.6936 5.22078
708 2 2.2208 10.9085 29.3259 5.25983
709 1 -1.1104 12.337 25.157 1.00874
710 1 -1.1104 12.2482 25.09 3.71351
711 1 -1.1104 12.2828 22.2855 1.10348
712 1 -1.1104 12.2969 27.9732 1.05963
713 2 2.2208 10.8228 26.6127 2.39967
714 1 -1.1104 12.2769 22.0914 3.93217
715 1 -1.1104 12.1829 27.7838 3.85568
716 1 -1.1104 9.58476 25.0694 1.17335
717 2 2.2208 8.16902 23.6128 2.45278
718 2 2.2208 7.93166 29.3817 2.5128
719 1 -1.1104 9.50803 25.1199 3.8254
720 2 2.2208 8.07932 26.4913 5.19277
721 1 -1.1104 9.50639 22.1801 0.962022
722 1 -1.1104 9.52263 28.0954 1.02932
723 1 -1.1104 9.493 22.1762 3.78001
724 1 -1.1104 9.42525 28.0725 3.8848
825 1 -1.1104 6.69628 22.3563 6.57786
826 1 -1.1104 6.61082 27.785 6.66434
859 1 -1.1104 9.35961 27.9176 6.58828
856 1 -1.1104 12.2306 28.0022 6.59323
854 1 -1.1104 12.1033 25.2185 6.5966
1007 2 2.2208 10.9326 23.6249 -0.368487
1251 2 2.2208 8.08319 26.5207 -0.349211
855 1 -1.1104 12.2418 22.21 6.63892
857 1 -1.1104 9.4439 25.072 6.60513
728 2 2.2208 5.18477 34.913 5.29989
729 1 -1.1104 1.02935 30.7568 1.13099
730 1 -1.1104 0.942702 36.4426 1.12435
732 1 -1.1104 1.06977 30.5159 3.89168
733 1 -1.1104 1.12009 36.2872 3.92232
735 1 -1.1104 0.930966 33.5952 1.11127
736 2 2.2208 5.13689 32.1272 2.38732
737 2 2.2208 5.26355 37.79 2.51322
738 1 -1.1104 1.02469 33.4537 3.81683
740 1 -1.1104 3.80656 30.616 0.962469
741 1 -1.1104 3.65295 36.2905 1.03277
742 2 2.2208 2.28066 34.9083 2.41758
743 1 -1.1104 3.88791 30.5849 3.98752
744 1 -1.1104 3.9221 36.3271 3.77522
745 2 2.2208 2.47871 32.17 5.18231
746 2 2.2208 2.48777 37.6619 5.3442
747 1 -1.1104 3.79739 33.454 1.03343
748 1 -1.1104 3.78692 33.4188 3.77416
9914 2 2.2208 -0.383125 34.9952 5.25874
879 1 -1.1104 1.19487 36.2512 6.71598
885 1 -1.1104 3.87868 36.3385 6.59534
884 1 -1.1104 3.84882 30.6625 6.68343
750 2 2.2208 -0.425486 32.0847 2.5517
10013 2 2.2208 -0.406731 35.152 -0.325883
1280 2 2.2208 2.331 37.783 -0.344712
1282 2 2.2208 5.12016 35.0536 -0.412871
753 1 -1.1104 6.58671 30.7754 3.85776
734 1 -1.1104 6.48165 36.4429 3.94871
752 1 -1.1104 6.71487 30.6547 1.01303
731 1 -1.1104 6.44426 36.3094 1.15898
739 1 -1.1104 6.35197 33.5189 3.96003
754 1 -1.1104 6.51518 33.4445 1.06937
755 2 2.2208 10.7273 34.9952 5.23417
756 1 -1.1104 12.3025 30.73 0.991236
757 1 -1.1104 12.2398 36.1882 1.00759
758 1 -1.1104 12.2019 30.7498 3.75724
759 1 -1.1104 12.3458 36.3525 3.83637
760 1 -1.1104 12.1834 33.5278 0.966565
761 2 2.2208 10.7538 32.1593 2.46534
762 2 2.2208 10.9248 37.6549 2.43088
763 1 -1.1104 12.0902 33.5708 3.78947
764 1 -1.1104 9.3995 30.8983 1.11311
765 1 -1.1104 9.29048 36.3495 1.12518
766 2 2.2208 7.77701 34.8835 2.42695
767 1 -1.1104 9.34969 30.7998 3.95975