ITEM: TIMESTEP
80000
ITEM: NUMBER OF ATOMS
17820
ITEM: BOX BOUNDS pp pp pp
-3.6436682446187812e-01 2.7704366824460962e+01
-4.3610119507773968e+00 3.3244101195077212e+02
-3.6389118440205248e-01 2.7703891184401925e+01
ITEM: ATOMS id type q x y z
1 2 2.2208 5.4293 1.16833 5.25355
2 1 -1.1104 1.11999 -2.91982 1.05814
3 1 -1.1104 1.10288 2.618 0.917208
6 1 -1.1104 1.32943 -2.99767 3.91122
7 1 -1.1104 1.19151 2.63729 3.84374
10 1 -1.1104 1.251 -0.116163 1.01466
12 2 2.2208 5.37088 -1.61454 2.40279
13 2 2.2208 5.25985 3.94398 2.33024
14 1 -1.1104 1.08499 -0.132747 3.94324
16 1 -1.1104 3.84873 -2.88829 1.06353
17 1 -1.1104 3.89659 2.61519 0.839409
18 2 2.2208 2.54059 1.29606 2.51208
19 1 -1.1104 4.00753 -2.91377 3.85812
20 1 -1.1104 4.05667 2.64241 3.72337
21 2 2.2208 2.58947 -1.49941 5.38814
22 2 2.2208 2.56584 4.05377 4.998
23 1 -1.1104 3.99676 -0.141234 1.18086
24 1 -1.1104 3.89251 -0.0327153 3.91397
9 1 -1.1104 6.78234 2.54755 3.89291
5 1 -1.1104 6.65875 2.61717 0.893778
166 1 -1.1104 1.03553 -2.83348 6.60454
4 1 -1.1104 6.69666 -3.1033 0.916524
11 1 -1.1104 6.68294 -0.164543 1.13955
15 1 -1.1104 6.71287 -0.123226 4.02079
169 1 -1.1104 6.95251 2.6941 6.72633
172 1 -1.1104 3.92739 -2.96846 6.72966
8 1 -1.1104 6.92219 -2.99614 3.7727
9472 2 2.2208 -0.38598 20.8099 13.5158
8970 2 2.2208 13.761 9.68246 5.26452
168 1 -1.1104 6.76452 -2.94416 6.52802
230 2 2.2208 13.6591 -1.65227 10.848
49 2 2.2208 13.8826 -4.51419 2.48191
31 2 2.2208 10.9187 1.26842 5.41143
32 1 -1.1104 12.4004 -2.88794 1.24072
33 1 -1.1104 12.4128 2.57368 1.03456
34 1 -1.1104 12.3884 -3.11777 3.94223
35 1 -1.1104 12.3641 2.56681 3.76749
36 1 -1.1104 12.3159 -0.191395 1.07334
37 2 2.2208 11.0322 -1.57345 2.61817
39 1 -1.1104 12.4365 -0.169326 3.99719
40 1 -1.1104 9.40425 -2.90865 1.04311
41 1 -1.1104 9.59634 2.78311 1.06262
42 2 2.2208 8.13662 1.33074 2.41767
43 1 -1.1104 9.68651 -2.99729 3.9772
44 1 -1.1104 9.61798 2.57843 3.90983
45 2 2.2208 8.14626 -1.57101 5.19975
46 2 2.2208 8.16191 3.99935 5.31038
47 1 -1.1104 9.39203 -0.136225 1.07639
48 1 -1.1104 9.42899 -0.0841435 3.86329
38 2 2.2208 10.9678 3.98228 2.5432
205 1 -1.1104 12.3193 -2.92737 6.66094
207 1 -1.1104 12.5028 -0.0106146 6.78735
9235 2 2.2208 13.7995 -1.50188 5.37724
29 2 2.2208 5.32593 -4.35018 5.26181
171 1 -1.1104 6.79927 -0.254093 6.5846
206 1 -1.1104 12.5707 2.76725 6.67689
54 2 2.2208 5.32424 6.86059 5.24102
55 2 2.2208 5.3612 12.5029 5.23255
56 1 -1.1104 0.950763 8.33763 0.898607
58 1 -1.1104 1.08707 8.14314 3.74543
60 1 -1.1104 1.19686 5.4626 0.848556
61 1 -1.1104 1.13126 11.0613 1.14643
66 2 2.2208 5.31914 9.73417 2.52998
67 1 -1.1104 1.05242 5.51507 3.69009
68 1 -1.1104 1.14686 10.9255 3.82422
71 1 -1.1104 3.92797 8.1499 1.014
72 2 2.2208 2.57109 6.79117 2.35209
73 2 2.2208 2.46261 12.4638 2.55479
74 1 -1.1104 3.75857 8.30162 3.87943
75 2 2.2208 2.3826 9.60793 5.22295
76 1 -1.1104 3.99543 5.4122 0.90635
77 1 -1.1104 3.8739 11.0101 1.02945
79 1 -1.1104 4.07763 5.39324 3.68613
80 1 -1.1104 3.9668 11.1247 3.70706
239 1 -1.1104 3.90102 5.51468 6.48083
59 1 -1.1104 6.56269 8.2098 3.82316
70 1 -1.1104 6.72415 10.9917 3.85889
57 1 -1.1104 6.62993 8.26575 0.933223
238 1 -1.1104 3.96125 8.38121 6.52723
64 1 -1.1104 6.71192 11.006 1.04949
78 1 -1.1104 3.96651 11.129 6.87321
328 2 2.2208 8.00001 18.0213 13.5906
8969 2 2.2208 -0.38813 20.8623 8.10696
326 2 2.2208 10.9984 20.7224 13.6823
63 1 -1.1104 6.82391 5.42806 1.02092
237 1 -1.1104 6.67201 5.36885 6.64747
69 1 -1.1104 6.7867 5.34103 3.9168
84 2 2.2208 10.8416 6.82052 5.20707
85 2 2.2208 10.9206 12.4563 5.23511
86 1 -1.1104 12.1275 8.32101 1.01646
87 1 -1.1104 12.2407 8.20128 3.93952
88 1 -1.1104 12.3604 5.48403 1.1597
89 1 -1.1104 12.3371 11.0092 0.990676
91 2 2.2208 10.9567 9.63448 2.44553
92 1 -1.1104 12.252 5.23875 4.01843
93 1 -1.1104 12.3247 11.1998 3.8189
94 1 -1.1104 9.45618 8.36848 1.09544
95 2 2.2208 8.00042 6.82462 2.40808
96 2 2.2208 7.98391 12.5233 2.45353
97 1 -1.1104 9.40758 8.14629 4.0148
98 2 2.2208 8.20976 9.57686 5.31826
99 1 -1.1104 9.54807 5.53426 1.09389
100 1 -1.1104 9.48175 11.0995 0.952528
102 1 -1.1104 9.39344 5.38167 3.88021
103 1 -1.1104 9.56575 11.0599 3.82942
9039 2 2.2208 13.7119 15.3199 5.17137
50 2 2.2208 10.8663 18.0094 10.6636
235 1 -1.1104 6.68698 8.2139 6.54304
266 1 -1.1104 12.2452 5.59959 6.68409
90 1 -1.1104 12.3207 10.9237 6.69436
65 1 -1.1104 6.78499 11.0314 6.58198
136 1 -1.1104 12.3139 19.4684 9.41315
82 1 -1.1104 12.2233 19.3549 12.1385
106 2 2.2208 5.2535 18.0165 5.23178
107 1 -1.1104 1.05958 13.8299 0.979834
109 1 -1.1104 0.957698 19.384 1.02075
113 1 -1.1104 0.968066 13.9369 3.86026
114 1 -1.1104 1.18322 19.5705 3.89526
116 1 -1.1104 1.13835 16.682 1.06517
119 2 2.2208 5.29689 15.3709 2.46408
120 2 2.2208 5.23284 20.885 2.43438
121 1 -1.1104 1.18047 16.7432 3.81635
123 1 -1.1104 3.88178 13.8593 1.03053
125 1 -1.1104 3.65585 19.4314 1.14996
127 2 2.2208 2.51309 18.0074 2.49928
128 1 -1.1104 3.86574 13.9965 3.83287
129 1 -1.1104 3.97968 19.5172 3.98845
130 2 2.2208 2.57866 15.3551 5.26181
131 2 2.2208 2.45517 20.8903 5.29859
132 1 -1.1104 3.89988 16.7088 1.00875
134 1 -1.1104 3.93595 16.7983 3.87677
115 1 -1.1104 6.5677 14.0889 3.91958
110 1 -1.1104 6.57968 13.7629 1.11477
108 1 -1.1104 0.996409 13.7851 6.68036
126 1 -1.1104 3.7207 19.2447 6.59598
301 1 -1.1104 1.02134 19.3191 6.74552
112 1 -1.1104 6.69484 19.5228 6.66867
124 1 -1.1104 3.79361 13.7712 6.53195
117 1 -1.1104 1.12991 16.481 6.72181
8557 2 2.2208 8.13604 -4.45671 2.55476
140 1 -1.1104 6.64099 16.6416 1.00668
139 1 -1.1104 6.72025 19.4081 3.81258
111 1 -1.1104 6.81387 13.8111 6.74779
154 1 -1.1104 9.50139 13.8762 6.65369
118 1 -1.1104 6.66756 16.5665 6.6854
122 1 -1.1104 6.72865 16.6314 3.7937
138 1 -1.1104 6.4939 19.3551 1.07409
141 2 2.2208 10.8569 17.913 5.17161
142 1 -1.1104 12.2359 13.7417 0.96916
144 1 -1.1104 12.1503 19.4641 0.987547
146 1 -1.1104 12.3297 13.9969 3.84634
147 1 -1.1104 12.1477 19.3777 3.76402
148 1 -1.1104 12.2999 16.6127 1.11698
150 2 2.2208 10.9307 15.2348 2.46493
151 2 2.2208 10.7426 20.8013 2.48373
152 1 -1.1104 12.3649 16.7293 3.85787
153 1 -1.1104 9.52158 13.8253 1.06218
155 1 -1.1104 9.40316 19.6362 0.941932
157 2 2.2208 7.96234 18.0047 2.36881
158 1 -1.1104 9.50863 13.8642 3.86175
159 1 -1.1104 9.37925 19.4182 3.65976
160 2 2.2208 8.03453 15.2274 5.26089
161 2 2.2208 8.0614 20.8666 5.19855
162 1 -1.1104 9.44852 16.7607 0.960465
164 1 -1.1104 9.59456 16.6061 3.74634
163 1 -1.1104 9.67441 16.5643 6.67439
145 1 -1.1104 12.1806 19.3544 6.60176
149 1 -1.1104 12.4357 16.5998 6.74048
156 1 -1.1104 9.4262 19.4401 6.51228
312 1 -1.1104 9.61954 13.8019 9.48336
167 1 -1.1104 1.2529 2.63847 6.61064
174 1 -1.1104 3.99791 -0.0596264 6.68136
173 1 -1.1104 4.0928 2.63823 6.66627
9234 2 2.2208 13.858 1.25526 2.57481
327 2 2.2208 10.7065 15.2308 13.6587
170 1 -1.1104 1.29307 -0.019443 6.78408
175 2 2.2208 5.29291 1.32945 10.8268
176 1 -1.1104 0.974164 -2.86259 12.1926
177 1 -1.1104 1.11173 2.6751 12.2315
180 1 -1.1104 1.15848 -2.9121 9.361
181 1 -1.1104 1.13361 2.56066 9.34014
184 1 -1.1104 1.12042 -0.142698 12.2144
186 2 2.2208 5.48473 -1.57367 8.16386
188 1 -1.1104 1.11111 -0.141911 9.45258
190 1 -1.1104 3.85479 -2.91961 12.2607
191 1 -1.1104 3.88963 2.62449 12.2604
192 2 2.2208 2.64057 1.43262 8.0166
193 1 -1.1104 3.95108 -2.97481 9.47946
194 1 -1.1104 3.9874 2.82456 9.48558
195 2 2.2208 2.49361 -1.53137 10.649
196 2 2.2208 2.61162 4.11028 10.9197
197 1 -1.1104 3.82922 -0.0643517 12.3292
198 1 -1.1104 3.96818 -0.027994 9.45556
187 2 2.2208 5.3703 4.05607 8.08142
183 1 -1.1104 6.60986 2.66595 9.55268
178 1 -1.1104 6.61008 -3.18606 12.3188
189 1 -1.1104 6.84947 -0.105703 9.43404
185 1 -1.1104 6.67026 -0.212873 12.1392
202 2 2.2208 2.43787 -4.37149 7.94463
329 2 2.2208 13.5171 18.0516 13.4939
317 2 2.2208 5.22408 -1.55921 13.5988
209 1 -1.1104 9.64968 2.6665 6.74386
208 1 -1.1104 9.52647 -3.07553 6.72518
8942 2 2.2208 13.8263 4.12567 5.31542
315 2 2.2208 8.0667 20.7213 10.8223
179 1 -1.1104 6.70401 2.65973 12.3326
51 1 -1.1104 12.4293 13.913 12.334
9101 2 2.2208 13.9421 1.34986 8.06992
210 1 -1.1104 9.5843 -0.205192 6.67283
143 1 -1.1104 12.3019 13.7039 6.74051
182 1 -1.1104 6.74098 -3.03334 9.48321
211 2 2.2208 10.9148 1.12915 11.0336
212 1 -1.1104 12.0567 -3.12062 12.2955
213 1 -1.1104 12.2761 2.59192 12.1609
214 1 -1.1104 12.2537 -3.04251 9.29842
215 1 -1.1104 12.5009 2.66274 9.37018
216 1 -1.1104 12.2699 -0.519079 12.3522
217 2 2.2208 11.0096 -1.47025 8.02103
219 1 -1.1104 12.3235 -0.0927079 9.43395
220 1 -1.1104 9.39222 -3.04132 12.3259
221 1 -1.1104 9.38057 2.53157 12.2702
222 2 2.2208 8.23693 1.25715 8.23347
223 1 -1.1104 9.40051 -3.09499 9.5526
224 1 -1.1104 9.77212 2.60638 9.65804
225 2 2.2208 8.12622 -1.68114 10.9051
226 2 2.2208 8.18586 3.99789 10.8842
227 1 -1.1104 9.49557 -0.207511 12.2229
228 1 -1.1104 9.67796 -0.319153 9.45395
218 2 2.2208 11.052 4.11608 8.0969
9076 2 2.2208 13.7877 4.00571 10.8864
232 2 2.2208 10.8852 -4.52981 10.8443
8558 2 2.2208 5.26718 -4.46253 10.8981
137 1 -1.1104 11.9894 16.6886 12.1606
104 1 -1.1104 12.2921 13.8352 9.51487
199 2 2.2208 11.1675 15.2369 8.07203
62 1 -1.1104 1.05466 10.9467 6.60089
234 1 -1.1104 1.10371 8.14988 6.53705
236 1 -1.1104 1.29956 5.28627 6.43585
240 2 2.2208 5.35177 6.86384 10.8966
241 2 2.2208 5.29847 12.332 10.8793
242 1 -1.1104 1.04759 8.2741 12.1499
244 1 -1.1104 1.04478 8.33302 9.31024
246 1 -1.1104 1.25323 5.51551 12.184
247 1 -1.1104 0.909934 11.1064 12.1999
250 2 2.2208 5.32462 9.663 7.97482
251 1 -1.1104 1.03807 5.42581 9.38358
252 1 -1.1104 1.0484 11.0405 9.46192
255 1 -1.1104 3.80268 8.25324 12.2698
256 2 2.2208 2.57869 6.8525 7.90601
257 2 2.2208 2.38264 12.5064 8.08044
258 1 -1.1104 3.93349 8.24346 9.44368
259 2 2.2208 2.53689 9.68477 10.8278
260 1 -1.1104 3.93188 5.39008 12.1917
261 1 -1.1104 3.83024 11.0192 12.3595
262 1 -1.1104 3.88561 5.38965 9.35224
263 1 -1.1104 3.87787 11.1198 9.54937
253 1 -1.1104 6.74553 5.41276 9.42908
243 1 -1.1104 6.66005 8.23276 12.3075
248 1 -1.1104 6.62109 5.28687 12.1579
249 1 -1.1104 6.61122 11.0097 12.2487
254 1 -1.1104 6.75544 11.0485 9.37397
313 1 -1.1104 9.49278 16.5002 9.35042
200 2 2.2208 10.837 20.8756 8.20228
233 2 2.2208 8.13209 15.1204 10.8666
311 2 2.2208 8.09545 18.0038 7.90471
101 1 -1.1104 9.67232 10.8812 6.60817
267 1 -1.1104 9.38181 8.17105 6.79744
269 1 -1.1104 9.56958 5.37309 6.8217
165 2 2.2208 13.6343 18.1087 2.34515
53 2 2.2208 10.9797 -4.33228 5.34819
245 1 -1.1104 6.53154 8.2326 9.34041
265 1 -1.1104 12.4722 8.2252 7.14702
264 1 -1.1104 9.42143 10.9617 9.41592
268 1 -1.1104 9.37783 5.32731 9.45666
270 1 -1.1104 9.39632 10.9016 12.2497
271 1 -1.1104 9.54038 5.31499 12.3498
272 2 2.2208 8.03841 9.66745 10.8514
273 1 -1.1104 9.58976 8.1738 9.59308
274 2 2.2208 8.09231 12.473 8.09175
275 2 2.2208 8.04192 6.89172 8.16611
276 2 2.2208 10.8907 6.68953 10.9563
277 2 2.2208 11.0639 12.3972 10.8228
278 1 -1.1104 12.2605 8.05269 12.1802
279 1 -1.1104 12.2751 5.28837 12.1575
280 1 -1.1104 12.1871 11.1513 12.4302
281 2 2.2208 10.8892 9.66385 8.06317
282 1 -1.1104 12.2929 5.69677 9.48328
283 1 -1.1104 12.3163 10.9608 9.38444
284 1 -1.1104 9.51475 8.17202 12.4029
287 1 -1.1104 6.77685 19.3278 9.42301
133 1 -1.1104 4.00014 16.6848 6.72401
314 1 -1.1104 9.25694 16.4375 12.3514
305 1 -1.1104 6.45734 16.6541 12.3526
285 1 -1.1104 3.77769 19.3707 12.3467
286 1 -1.1104 3.82563 13.8394 12.1398
290 1 -1.1104 0.929927 19.5031 9.39942
291 1 -1.1104 1.00756 16.6014 9.49627
292 2 2.2208 5.2022 20.756 8.0262
293 1 -1.1104 1.21711 13.9081 9.58037
294 2 2.2208 5.33186 15.2139 8.21693
297 1 -1.1104 1.02301 19.3698 12.1358
298 1 -1.1104 1.06097 13.8957 12.283
299 2 2.2208 5.2762 18.0979 10.8411
300 1 -1.1104 3.93169 19.2906 9.39287
302 2 2.2208 2.36013 17.9272 8.15276
303 1 -1.1104 3.72906 16.5357 9.49774
304 1 -1.1104 3.9241 13.8666 9.40032
306 1 -1.1104 0.913298 16.6618 12.2023
307 1 -1.1104 3.68145 16.7103 12.3278
308 2 2.2208 2.35789 20.8282 10.7874
309 2 2.2208 2.44853 15.3261 10.903
325 2 2.2208 2.41506 17.949 13.552
289 1 -1.1104 6.67813 13.7331 9.52388
295 1 -1.1104 6.77963 19.5851 12.3408
288 1 -1.1104 6.598 16.4868 9.57671
296 1 -1.1104 6.68881 13.7895 12.3081
316 2 2.2208 -0.404003 15.3572 13.4103
204 1 -1.1104 12.2703 16.725 9.49123
9151 2 2.2208 13.7789 12.4409 8.18728
203 1 -1.1104 9.42908 19.4564 9.46011
229 1 -1.1104 9.58246 13.5219 12.2272
310 1 -1.1104 9.27594 19.216 12.1127
231 2 2.2208 8.08253 -4.49703 8.02939
9237 2 2.2208 13.6706 12.5373 2.48846
8943 2 2.2208 -0.363364 18.0403 10.7428
9150 2 2.2208 13.9211 6.79005 8.12363
9246 2 2.2208 13.7116 6.79776 13.4864
105 2 2.2208 13.6645 6.86312 2.4911
9239 2 2.2208 -0.244344 18.063 5.26612
324 2 2.2208 5.07108 15.3359 13.6837
9197 2 2.2208 13.7657 20.8997 10.828
319 2 2.2208 2.47744 6.7908 13.7017
26 2 2.2208 13.6579 15.2868 10.9773
27 2 2.2208 13.6818 18.1057 8.03493
8561 2 2.2208 10.942 -4.34627 -0.213771
8645 2 2.2208 2.45262 -4.336 13.6727
334 2 2.2208 8.10945 -1.52368 -0.191102
605 2 2.2208 13.7404 3.91864 -0.336782
321 2 2.2208 2.36309 12.4326 13.6057
411 2 2.2208 13.618 12.4913 13.8825
448 2 2.2208 13.8097 1.15322 13.7348
383 2 2.2208 5.19193 3.97322 13.6249
602 2 2.2208 13.5728 -1.54176 -0.298798
335 2 2.2208 2.48273 15.2532 -0.408983
339 2 2.2208 10.8522 6.84317 -0.375719
341 2 2.2208 5.16803 1.11238 16.4189
342 1 -1.1104 1.12218 -3.13609 17.6873
343 1 -1.1104 1.24666 2.48696 17.8839
346 1 -1.1104 1.08875 -3.03914 15.0297
348 1 -1.1104 1.1175 2.75332 14.9672
354 1 -1.1104 1.03582 -0.267544 17.8876
356 2 2.2208 5.37103 -1.578 19.3415
357 2 2.2208 5.30681 3.859 19.2913
358 1 -1.1104 1.00534 -0.337687 15.0073
362 1 -1.1104 3.78548 -3.01622 17.7535
363 1 -1.1104 3.82956 2.61615 17.932
364 2 2.2208 2.44633 1.06812 19.305
365 1 -1.1104 3.98623 -2.92165 14.9192
367 1 -1.1104 3.772 2.5227 15.1345
369 2 2.2208 2.42322 -1.73394 16.4142
370 2 2.2208 2.55444 4.09778 16.5134
371 1 -1.1104 3.75829 -0.356194 17.7774
372 1 -1.1104 3.7923 -0.257444 15.0665
355 1 -1.1104 6.44471 -0.273207 17.9644
352 1 -1.1104 6.65127 2.47157 15.1309
360 1 -1.1104 6.63795 -0.171901 15.0793
350 1 -1.1104 6.70473 -2.93275 14.9521
351 1 -1.1104 6.70386 -3.01428 20.6524
345 1 -1.1104 6.68029 2.49237 17.8635
368 1 -1.1104 3.92073 2.5359 20.6608
573 2 2.2208 -0.218499 1.27996 27.5768
631 2 2.2208 2.51396 9.68039 27.6699
8610 2 2.2208 13.5739 -4.23669 24.8537
344 1 -1.1104 6.86683 -3.15777 17.7276
384 2 2.2208 10.8961 1.05431 16.4507
385 1 -1.1104 12.5466 -3.27692 17.6304
386 1 -1.1104 12.4161 2.61336 17.7702
387 1 -1.1104 12.3673 -3.0231 15.0327
389 1 -1.1104 12.3347 2.50045 14.9929
391 1 -1.1104 12.4624 -0.0994622 17.8761
393 1 -1.1104 12.1928 -0.0968515 14.9564
394 1 -1.1104 9.50366 2.56812 17.9565
395 2 2.2208 8.07094 1.04996 19.2152
396 1 -1.1104 9.60513 -3.06756 15.3855
398 1 -1.1104 9.63105 2.47069 14.9882
400 2 2.2208 7.87965 -1.50682 16.3489
401 2 2.2208 8.14824 3.97131 16.5529
402 1 -1.1104 9.22442 -0.321146 17.5979
403 1 -1.1104 9.32877 -0.301826 14.9467
392 2 2.2208 10.973 3.91218 19.3683
399 1 -1.1104 9.40632 2.71978 20.7671
9288 2 2.2208 13.6846 3.96201 16.3357
571 2 2.2208 5.30238 -4.37828 22.1664
397 1 -1.1104 9.50963 -3.31429 20.7446
390 1 -1.1104 12.3552 2.2341 20.6024
388 1 -1.1104 12.6326 -2.97261 20.89
409 2 2.2208 13.8115 -1.68248 16.538
410 2 2.2208 13.7145 18.0596 24.842
414 2 2.2208 5.46662 6.834 16.4897
415 2 2.2208 5.0882 12.3222 16.4208
416 1 -1.1104 1.02847 8.17785 17.9134
418 1 -1.1104 1.05687 8.21013 14.905
422 1 -1.1104 1.09106 5.41497 17.8513
423 1 -1.1104 1.08482 10.9285 17.8211
426 2 2.2208 5.19611 9.43599 19.2665
427 1 -1.1104 1.09178 5.45085 15.0153
429 1 -1.1104 1.16119 10.9819 14.983
435 1 -1.1104 3.79807 8.19125 17.8217
436 2 2.2208 2.54572 6.83605 19.3045
437 2 2.2208 2.40156 12.3183 19.3255
438 1 -1.1104 3.9238 8.1904 15.133
440 2 2.2208 2.32632 9.61248 16.4415
441 1 -1.1104 3.98005 5.37482 17.8349
442 1 -1.1104 3.95021 11.0024 17.8591
443 1 -1.1104 3.88203 5.35919 15.027
445 1 -1.1104 3.73629 11.0822 15.1046
420 1 -1.1104 6.72493 8.29461 15.0336
428 1 -1.1104 1.10206 5.34194 20.5836
433 1 -1.1104 6.65138 11.0663 15.0334
439 1 -1.1104 3.91448 8.14485 20.668
421 1 -1.1104 6.64056 8.0697 20.5963
424 1 -1.1104 6.82647 5.38401 17.9579
425 1 -1.1104 6.73152 10.9554 17.7319
417 1 -1.1104 6.60531 8.11058 17.8581
430 1 -1.1104 0.959584 10.8916 20.7775
434 1 -1.1104 6.5278 11.0242 20.4973
432 1 -1.1104 6.57146 5.21089 20.6207
8612 2 2.2208 11.0811 -4.55646 16.3868
450 2 2.2208 8.08449 18.0792 24.8631
431 1 -1.1104 6.76143 5.29897 15.138
452 2 2.2208 10.9881 6.64017 16.5998
453 2 2.2208 10.7541 12.2734 16.4804
454 1 -1.1104 12.3415 8.08944 17.8527
455 1 -1.1104 12.5045 8.18252 14.8579
457 1 -1.1104 12.3693 5.41923 17.9193
458 1 -1.1104 12.2079 10.8306 17.9509
459 2 2.2208 10.8364 9.57128 19.3865
460 1 -1.1104 12.2474 5.39188 15.0041
462 1 -1.1104 12.3371 11.0281 15.2751
464 1 -1.1104 9.41214 8.04934 17.8374
465 2 2.2208 8.18005 6.7174 19.3022
466 2 2.2208 7.85303 12.3106 19.2553
467 1 -1.1104 9.53298 8.12139 15.2031
469 2 2.2208 8.18449 9.59751 16.5287
470 1 -1.1104 9.6552 5.22097 18.0738
471 1 -1.1104 9.50424 10.9032 17.7417
472 1 -1.1104 9.46096 5.19959 15.1914
474 1 -1.1104 9.56754 11.0107 15.0144
566 2 2.2208 2.4894 -1.50444 27.8099
9549 2 2.2208 13.6971 9.58187 22.1034
380 2 2.2208 13.7745 6.81668 19.2121
475 1 -1.1104 9.40791 10.9971 20.6217
572 2 2.2208 2.44762 -4.33165 24.9865
463 1 -1.1104 12.3265 11.0194 20.8754
473 1 -1.1104 9.5434 5.44605 20.8361
9293 2 2.2208 -0.43327 20.9019 24.8139
478 2 2.2208 5.06314 17.9856 16.6233
479 1 -1.1104 0.81546 13.7976 17.8022
480 1 -1.1104 0.89276 19.4348 17.9948
483 1 -1.1104 0.530814 13.8616 14.9698
485 1 -1.1104 0.823422 19.4386 15.0801
491 1 -1.1104 0.847379 16.6678 17.973
493 2 2.2208 5.18989 15.1512 19.2682
494 2 2.2208 5.13485 20.8621 19.3737
495 1 -1.1104 1.10468 16.6708 15.1423
499 1 -1.1104 3.6837 13.6861 17.8899
500 1 -1.1104 3.9489 19.4694 17.833
501 2 2.2208 2.34387 17.9756 19.3553
502 1 -1.1104 3.54807 13.8585 14.9823
504 1 -1.1104 3.73232 19.371 15.1058
506 2 2.2208 2.20506 15.1482 16.5611
507 2 2.2208 2.33947 20.7385 16.4517
508 1 -1.1104 3.62839 16.5562 17.9348
509 1 -1.1104 3.6567 16.6187 15.2498
482 1 -1.1104 6.69237 19.4569 18.0013
481 1 -1.1104 6.55373 13.6522 17.8997
484 1 -1.1104 0.945174 13.7807 20.5554
510 1 -1.1104 3.68864 16.5766 20.7134
505 1 -1.1104 3.68794 19.3944 20.6752
503 1 -1.1104 3.8194 13.7931 20.6792
487 1 -1.1104 6.39968 13.7467 15.0761
490 1 -1.1104 6.52374 19.539 20.6968
496 1 -1.1104 0.955307 16.5244 20.8338
486 1 -1.1104 0.909167 19.3288 20.6359
488 1 -1.1104 6.65156 13.9383 20.6429
601 2 2.2208 8.15422 -4.50209 24.9369
375 2 2.2208 5.35608 -4.34264 16.3799
492 1 -1.1104 6.37412 16.4804 17.9307
489 1 -1.1104 6.63131 19.2863 15.1463
497 1 -1.1104 6.60337 16.5752 15.2009
513 2 2.2208 10.7161 17.9145 16.4985
514 1 -1.1104 12.1117 13.7469 17.7678
515 1 -1.1104 12.2439 19.3722 17.827
516 1 -1.1104 12.0807 13.8939 15.0074
518 1 -1.1104 12.2036 19.3664 15.0421
520 1 -1.1104 12.0266 16.4933 17.8628
521 2 2.2208 10.7728 15.2171 19.344
522 2 2.2208 10.912 20.9808 19.1189
523 1 -1.1104 12.4879 16.6036 15.1011
525 1 -1.1104 9.31117 13.7407 17.9313
526 1 -1.1104 9.38146 19.3977 17.8414
527 2 2.2208 8.01844 18.0794 19.2238
528 1 -1.1104 9.366 13.7948 15.0735
530 1 -1.1104 9.27211 19.2375 15.0582
532 2 2.2208 7.92768 15.1873 16.4883
533 2 2.2208 7.98925 20.701 16.459
534 1 -1.1104 9.13648 16.5551 17.8102
535 1 -1.1104 9.59425 16.4925 15.1158
406 2 2.2208 13.4862 15.1797 16.5807
531 1 -1.1104 9.51347 19.4927 20.5656
529 1 -1.1104 9.4398 13.8353 20.737
524 1 -1.1104 12.1569 16.6399 20.6235
519 1 -1.1104 12.2075 19.5532 20.3542
536 1 -1.1104 9.52102 16.6555 20.5276
538 2 2.2208 8.18199 20.8009 21.9982
347 1 -1.1104 1.05837 -2.95853 20.6661
366 1 -1.1104 3.94671 -2.98077 20.5814
373 1 -1.1104 3.79426 -0.281211 20.5379
359 1 -1.1104 1.03465 -0.26051 20.6789
349 1 -1.1104 1.01438 2.48765 20.807
353 1 -1.1104 6.73668 2.33022 20.5859
361 1 -1.1104 6.6649 -0.32464 20.7428
541 2 2.2208 5.34703 1.17047 22.0373
542 1 -1.1104 1.08311 -3.12969 23.5531
543 1 -1.1104 1.03744 2.52702 23.5169
546 1 -1.1104 1.16307 -2.93108 26.2097
547 1 -1.1104 1.23255 2.71366 26.2449
550 1 -1.1104 1.19487 -0.313954 23.4173
552 2 2.2208 5.22609 -1.75148 24.8418
554 1 -1.1104 1.18234 -0.169233 26.1947
556 1 -1.1104 3.78416 -2.99037 23.4895
557 1 -1.1104 3.92272 2.53965 23.4099
558 2 2.2208 2.52296 1.24012 24.7639
559 1 -1.1104 4.00912 -3.04365 26.3373
560 1 -1.1104 3.86564 2.72563 26.1333
561 2 2.2208 2.55215 -1.67061 22.0336
562 2 2.2208 2.56518 3.97453 22.119
563 1 -1.1104 3.97862 -0.391489 23.3316
564 1 -1.1104 3.79322 -0.204358 26.4301
553 2 2.2208 5.22636 3.98819 24.8119
548 1 -1.1104 6.76412 -2.72809 26.3026
545 1 -1.1104 6.60447 2.6141 23.3588
555 1 -1.1104 6.72051 0.0162947 26.3709
549 1 -1.1104 6.74265 2.72874 26.2235
544 1 -1.1104 6.61998 -2.99089 23.4667
551 1 -1.1104 6.83813 -0.190542 23.5712
598 2 2.2208 -0.429253 12.1648 16.4396
660 2 2.2208 10.8637 15.2992 24.7688
576 2 2.2208 -0.288089 4.02939 24.7769
630 2 2.2208 5.32776 6.95362 27.6127
9368 2 2.2208 13.7875 15.2564 21.9716
570 2 2.2208 5.41767 -4.2725 27.6769
9475 2 2.2208 13.6153 12.5129 24.8636
374 2 2.2208 13.7713 4.03538 22.2005
330 2 2.2208 5.20954 1.18908 27.7044
404 1 -1.1104 9.48235 -0.149422 20.7616
577 2 2.2208 10.7127 1.25155 22.0706
578 1 -1.1104 12.2169 -2.96987 23.6242
579 1 -1.1104 12.1112 2.68889 23.4191
580 1 -1.1104 12.1807 -2.93573 26.4096
581 1 -1.1104 12.3824 2.53143 26.2904
582 1 -1.1104 12.4356 -0.0152933 23.2638
583 2 2.2208 10.7298 -1.69178 25.0234
584 2 2.2208 10.9221 3.99614 25.0235
585 1 -1.1104 12.1922 -0.357046 26.1886
586 1 -1.1104 9.52418 -3.08648 23.4227
587 1 -1.1104 9.32859 2.61479 23.6225
588 2 2.2208 8.09815 1.24041 24.8932
589 1 -1.1104 9.48158 -3.10242 26.3637
590 1 -1.1104 9.50049 2.55992 26.3828
591 2 2.2208 8.29195 -1.63784 21.951
593 1 -1.1104 9.59725 -0.242598 23.4673
594 1 -1.1104 9.50521 -0.141185 26.1946
592 2 2.2208 8.02028 4.02405 22.1437
332 2 2.2208 13.7528 15.2001 27.6922
9430 2 2.2208 13.5982 17.9584 19.1952
340 2 2.2208 8.07355 9.64062 27.7343
575 2 2.2208 10.8217 18.1505 27.7003
444 1 -1.1104 3.99942 5.41683 20.6809
419 1 -1.1104 1.10656 8.11699 20.6741
633 2 2.2208 10.8328 18.0971 21.9148
446 1 -1.1104 3.60156 10.9762 20.6394
606 2 2.2208 5.27852 6.7203 22.0064
607 2 2.2208 5.3037 12.4774 22.1025
608 1 -1.1104 1.11007 8.38981 23.4188
610 1 -1.1104 1.07124 8.36752 26.2381
612 1 -1.1104 1.21207 5.59678 23.3295
613 1 -1.1104 1.12709 11.0833 23.5361
616 2 2.2208 5.32833 9.72805 24.8011
617 1 -1.1104 1.13005 5.63107 26.2023
618 1 -1.1104 0.895064 11.1023 26.3277
621 1 -1.1104 3.96273 8.34499 23.3497
622 2 2.2208 2.55509 7.07887 24.8052
623 2 2.2208 2.53093 12.4798 24.8441
624 1 -1.1104 3.91287 8.27616 26.3562
625 2 2.2208 2.4994 9.68366 22.0434
626 1 -1.1104 3.93522 5.48749 23.4627
627 1 -1.1104 3.98933 11.077 23.479
628 1 -1.1104 3.85647 5.56638 26.2137
629 1 -1.1104 3.79215 11.1316 26.2053
611 1 -1.1104 6.67087 8.25588 26.3013
615 1 -1.1104 6.71072 10.9664 23.4713
614 1 -1.1104 6.81761 5.57676 23.3638
609 1 -1.1104 6.76806 8.30804 23.5173
619 1 -1.1104 6.62572 5.51495 26.3321
599 2 2.2208 13.5285 12.4732 19.1561
378 2 2.2208 -0.304038 -1.67532 19.2507
331 2 2.2208 2.59363 3.97734 27.5952
468 1 -1.1104 9.4337 8.1757 20.6215
461 1 -1.1104 12.2624 5.11196 20.8498
456 1 -1.1104 12.2964 7.99654 20.7109
620 1 -1.1104 6.58831 11.1008 26.3179
637 1 -1.1104 9.51422 11.0668 26.2895
638 1 -1.1104 9.53884 5.40961 26.3936
639 1 -1.1104 9.55491 11.0896 23.3841
640 1 -1.1104 9.50631 5.43631 23.735
641 2 2.2208 8.15001 9.66723 22.0489
642 1 -1.1104 9.44183 8.18523 26.2487
643 2 2.2208 8.02058 12.4917 25.0505
644 2 2.2208 8.1007 6.85708 24.8695
645 2 2.2208 10.796 6.69721 22.2389
646 2 2.2208 10.8773 12.5029 22.0901
647 1 -1.1104 12.3317 8.15621 23.4974
648 1 -1.1104 12.2246 8.1086 26.163
649 1 -1.1104 12.3895 5.38896 23.6414
650 1 -1.1104 12.1226 10.9757 23.5795
651 2 2.2208 10.7832 9.58647 24.8773
652 1 -1.1104 12.3536 5.23249 26.4323
653 1 -1.1104 12.4 10.9268 26.3032
654 1 -1.1104 9.48789 8.32651 23.398
337 2 2.2208 2.40251 20.8632 27.7856
657 2 2.2208 10.8674 12.4155 27.6826
540 1 -1.1104 9.62565 16.5907 26.2615
679 1 -1.1104 6.8684 16.576 23.4287
568 2 2.2208 10.8511 20.7587 24.827
671 1 -1.1104 6.58328 13.7755 23.4928
451 1 -1.1104 6.7307 19.4957 26.2814
596 2 2.2208 2.39823 15.1874 22.1018
597 2 2.2208 2.4319 20.9212 22.0558
655 1 -1.1104 3.98059 16.5444 23.4162
656 1 -1.1104 1.06734 16.6142 23.5599
661 1 -1.1104 3.96251 19.4525 23.4733
663 1 -1.1104 4.02745 13.8317 23.5043
665 1 -1.1104 1.01921 19.4817 26.1413
666 1 -1.1104 1.17129 16.7647 26.3335
667 1 -1.1104 1.00678 13.9798 26.2334
669 2 2.2208 5.23336 20.908 24.8531
670 2 2.2208 5.23768 15.3127 24.8348
672 1 -1.1104 1.0678 19.4469 23.3094
673 1 -1.1104 1.01432 13.7784 23.3821
674 2 2.2208 5.27098 18.0689 22.0051
675 1 -1.1104 3.75689 19.5813 26.3252
676 2 2.2208 2.43813 18.0864 24.7707
677 1 -1.1104 4.00585 16.7594 26.1058
678 1 -1.1104 3.8492 13.9382 26.2135
498 1 -1.1104 6.65881 16.698 20.6215
662 1 -1.1104 6.53971 13.8115 26.4381
664 1 -1.1104 6.74297 16.6557 26.1413
603 2 2.2208 7.9737 20.8394 27.7264
668 1 -1.1104 6.66601 19.4042 23.4833
636 1 -1.1104 12.2518 13.901 26.2096
658 1 -1.1104 12.1579 19.4765 26.0825
659 1 -1.1104 12.2829 16.6402 23.4191
477 1 -1.1104 9.40946 13.8485 26.2782
517 1 -1.1104 12.2135 13.8241 20.7047
569 2 2.2208 13.5812 20.8899 21.9205
539 1 -1.1104 9.60419 16.7753 23.4587
537 2 2.2208 8.11649 15.2677 22.0374
511 1 -1.1104 9.52712 19.3388 26.173
449 1 -1.1104 9.49306 19.5005 23.2507
635 1 -1.1104 12.1591 19.4956 23.1754
567 1 -1.1104 12.4287 16.8508 26.4175
565 1 -1.1104 9.56517 13.831 23.5325
634 1 -1.1104 12.5179 13.7672 23.3795
632 2 2.2208 5.25697 12.4223 27.7382
9251 2 2.2208 13.7897 -4.44476 13.6772
574 2 2.2208 8.15829 15.2098 27.6639
412 2 2.2208 10.8551 -1.58454 13.7903
408 2 2.2208 8.14275 -4.47713 13.655
318 2 2.2208 8.09065 1.21591 13.6478
323 2 2.2208 10.9637 9.52545 13.5018
595 2 2.2208 10.9337 1.29408 27.6981
447 2 2.2208 -0.207916 4.01521 13.5776
476 2 2.2208 8.11667 6.83189 13.6838
512 2 2.2208 5.21733 20.8249 13.7101
338 2 2.2208 8.05109 4.0181 27.6051
336 2 2.2208 5.09615 18.1228 27.6428
320 2 2.2208 5.22388 9.66035 13.7149
322 2 2.2208 8.00062 12.3435 13.7171
382 2 2.2208 2.47756 1.2221 13.6552
9474 2 2.2208 13.6639 9.65407 27.6256
413 2 2.2208 10.9279 3.9302 13.6829
680 2 2.2208 5.29687 23.6354 5.27938
681 2 2.2208 5.25104 29.2213 5.13676
682 1 -1.1104 0.943296 25.029 1.03517
683 1 -1.1104 1.11596 24.9613 3.91337
684 1 -1.1104 0.998646 22.2282 0.992657
685 1 -1.1104 1.08758 27.9049 1.1226
686 2 2.2208 5.32551 26.4108 2.48178
687 1 -1.1104 1.15533 22.2584 3.91919
688 1 -1.1104 1.01204 27.8839 3.91819
689 1 -1.1104 3.88592 25.0322 1.0111
690 2 2.2208 2.47746 23.8135 2.35227
691 2 2.2208 2.38387 29.3139 2.52307
692 1 -1.1104 3.91188 25.1661 3.96022
693 2 2.2208 2.56491 26.398 5.35765
694 1 -1.1104 3.84511 22.1041 0.903429
695 1 -1.1104 3.79992 27.7666 1.02101
696 1 -1.1104 3.99287 22.5902 3.74933
697 1 -1.1104 3.80735 27.9028 3.8464
702 1 -1.1104 6.69011 24.8302 3.91415
703 1 -1.1104 6.71043 22.2243 1.00076
823 1 -1.1104 1.0512 22.2208 6.79651
827 1 -1.1104 3.8133 25.05 6.82829
825 1 -1.1104 6.50228 22.2702 6.68177
701 1 -1.1104 6.53302 25.0715 0.967891
826 1 -1.1104 6.68926 27.8689 6.568
750 2 2.2208 -0.42789 32.04 2.4225
821 1 -1.1104 1.05221 25.16 6.60113
829 1 -1.1104 3.90729 27.9043 6.7594
1201 2 2.2208 7.97517 46.0871 13.8383
706 1 -1.1104 6.55134 27.7518 3.81999
705 1 -1.1104 6.75759 22.2412 3.88253
704 1 -1.1104 6.53431 27.8523 1.19837
707 2 2.2208 10.8277 23.6101 5.302
708 2 2.2208 10.8385 29.2178 5.22058
709 1 -1.1104 12.2317 25.0886 1.00696
710 1 -1.1104 12.4123 24.9767 3.85512
711 1 -1.1104 12.3245 22.2384 1.07236
712 1 -1.1104 12.2434 27.8346 1.13605
713 2 2.2208 11.0265 26.3957 2.51177
714 1 -1.1104 12.2003 22.2452 3.86041
715 1 -1.1104 12.1972 27.8156 3.94233
716 1 -1.1104 9.29712 25.0573 1.06281
717 2 2.2208 8.03823 23.662 2.36339
718 2 2.2208 8.0207 29.2543 2.4055
719 1 -1.1104 9.59316 25.0687 3.74542
720 2 2.2208 8.00424 26.337 5.21994
721 1 -1.1104 9.51316 22.3897 1.01342
722 1 -1.1104 9.27086 27.8755 0.958889
723 1 -1.1104 9.40031 22.1985 3.71541
724 1 -1.1104 9.41286 27.8902 3.80466
1358 1 -1.1104 0.912992 47.6306 3.89152
855 1 -1.1104 12.1973 22.1722 6.72382
856 1 -1.1104 12.1197 27.8502 6.62146
859 1 -1.1104 9.46559 27.8484 6.63889
1009 2 2.2208 8.00982 31.9606 -0.241627
728 2 2.2208 5.24887 34.8462 5.22804
729 1 -1.1104 0.916279 30.5577 1.07315
730 1 -1.1104 0.995759 36.2769 0.953138
732 1 -1.1104 1.04393 30.7934 3.97772
733 1 -1.1104 1.02575 36.2197 3.80516
735 1 -1.1104 1.07413 33.4206 0.98997
736 2 2.2208 5.17158 32.0889 2.43904
737 2 2.2208 5.23303 37.6293 2.60985
738 1 -1.1104 0.995577 33.4207 3.81671
740 1 -1.1104 3.76341 30.5993 1.07211
741 1 -1.1104 3.85409 36.2703 1.02337
742 2 2.2208 2.34348 34.8516 2.40102
743 1 -1.1104 3.8353 30.7193 3.73344
744 1 -1.1104 3.83516 36.1999 4.01956
745 2 2.2208 2.44121 32.0143 5.27503
746 2 2.2208 2.35791 37.6237 5.48562
747 1 -1.1104 3.81542 33.4662 1.03324
748 1 -1.1104 3.8925 33.54 3.8709
9921 2 2.2208 -0.397711 46.1763 10.8314
885 1 -1.1104 3.85027 36.2898 6.99648
754 1 -1.1104 6.62044 33.4923 1.04652
752 1 -1.1104 6.58801 30.7358 1.13553
731 1 -1.1104 6.5732 36.2516 1.11927
734 1 -1.1104 6.55507 36.4581 4.0528
881 1 -1.1104 6.50383 36.321 6.64965
882 1 -1.1104 0.906741 33.4166 6.63863
886 1 -1.1104 3.76298 33.6354 6.56284
878 1 -1.1104 1.04867 30.7657 6.69445
879 1 -1.1104 0.976433 36.2193 6.82497
739 1 -1.1104 6.7237 33.3718 3.78979
753 1 -1.1104 6.52628 30.5901 3.78098
755 2 2.2208 10.7732 34.8258 5.217
756 1 -1.1104 12.2664 30.5683 1.18214
757 1 -1.1104 12.3016 36.0664 0.975101
758 1 -1.1104 12.1879 30.6153 3.92505
759 1 -1.1104 12.1607 36.118 3.78167
760 1 -1.1104 12.2498 33.3113 0.978012
761 2 2.2208 10.7677 32.0502 2.47356
762 2 2.2208 10.8475 37.5501 2.5154
763 1 -1.1104 12.0843 33.389 3.85755
764 1 -1.1104 9.44551 30.7513 1.09508
765 1 -1.1104 9.54611 36.2423 0.930642
766 2 2.2208 8.09158 34.8567 2.50845