ITEM: TIMESTEP
40000
ITEM: NUMBER OF ATOMS
17820
ITEM: BOX BOUNDS pp pp pp
-3.6083009462339011e-01 2.7700830094623267e+01
-4.3090859043056460e+00 3.3238908590430719e+02
-3.6539930208316573e-01 2.7705399302083084e+01
ITEM: ATOMS id type q x y z
1 2 2.2208 5.26775 1.36863 5.09963
2 1 -1.1104 1.13517 -2.87604 1.1769
3 1 -1.1104 1.06907 2.85702 0.97385
6 1 -1.1104 1.09388 -2.8207 3.83437
7 1 -1.1104 1.11388 2.83815 3.84568
10 1 -1.1104 1.07052 0.0594927 1.04437
12 2 2.2208 5.35012 -1.43243 2.43136
13 2 2.2208 5.2423 4.23723 2.35778
14 1 -1.1104 1.03037 0.025843 3.96407
16 1 -1.1104 4.01181 -2.87617 1.02633
17 1 -1.1104 3.81096 2.80637 1.18331
18 2 2.2208 2.44827 1.40564 2.48023
19 1 -1.1104 3.93078 -2.81281 3.86493
20 1 -1.1104 3.9514 2.83206 3.80282
21 2 2.2208 2.52481 -1.46927 5.20908
22 2 2.2208 2.45154 4.10739 5.37067
23 1 -1.1104 3.83272 0.0256713 1.11777
24 1 -1.1104 4.00767 0.0219495 3.89885
11 1 -1.1104 6.70502 -0.128028 1.18824
167 1 -1.1104 1.07539 2.81539 6.78242
28 2 2.2208 2.48875 -4.27133 2.5125
5 1 -1.1104 6.79067 2.79421 0.988137
8 1 -1.1104 6.66954 -2.88292 3.72394
168 1 -1.1104 6.58994 -2.85064 6.4867
173 1 -1.1104 3.75391 2.64507 6.59051
170 1 -1.1104 0.956013 -0.190427 6.67518
169 1 -1.1104 6.52406 2.79651 6.49824
15 1 -1.1104 6.86299 -0.0268081 3.91082
171 1 -1.1104 6.58941 -0.12027 6.66135
29 2 2.2208 5.3642 -4.30491 5.12164
4 1 -1.1104 6.71292 -2.84777 0.830022
9 1 -1.1104 6.77766 2.72677 3.74353
31 2 2.2208 10.8485 1.40492 5.22716
32 1 -1.1104 12.2491 -2.81498 0.920638
33 1 -1.1104 12.3469 2.81471 1.199
34 1 -1.1104 12.3097 -2.72466 3.83107
35 1 -1.1104 12.1873 2.76005 3.92362
36 1 -1.1104 12.3645 0.0642051 0.962098
37 2 2.2208 10.9381 -1.36444 2.38305
38 2 2.2208 10.8996 4.13842 2.51623
39 1 -1.1104 12.3735 -0.00581542 3.97695
40 1 -1.1104 9.60092 -2.76256 1.08751
41 1 -1.1104 9.47818 2.74194 0.926846
42 2 2.2208 8.12421 1.38545 2.40419
43 1 -1.1104 9.33502 -2.8258 3.90756
44 1 -1.1104 9.58326 2.66932 3.71794
45 2 2.2208 8.00136 -1.37054 5.18781
46 2 2.2208 8.1302 4.15548 5.20358
47 1 -1.1104 9.5718 -0.09039 0.949772
48 1 -1.1104 9.5744 -0.061315 3.83377
9235 2 2.2208 13.8202 -1.46717 5.32727
229 1 -1.1104 9.45369 14.0979 12.1417
53 2 2.2208 10.7837 -4.26995 5.0683
231 2 2.2208 8.06196 -4.22812 8.02202
209 1 -1.1104 9.30271 2.73565 6.5097
232 2 2.2208 10.8702 -4.2252 10.8888
200 2 2.2208 10.8679 21.0233 7.90626
9167 2 2.2208 -0.252849 6.97784 10.7933
54 2 2.2208 5.30135 7.07091 5.31786
55 2 2.2208 5.32984 12.6659 5.20089
56 1 -1.1104 1.22429 8.22537 1.10122
58 1 -1.1104 0.932471 8.46531 3.86579
60 1 -1.1104 1.00828 5.50521 1.07949
61 1 -1.1104 1.00239 11.0037 0.888091
66 2 2.2208 5.24719 9.84599 2.44068
67 1 -1.1104 1.11913 5.58552 3.8588
68 1 -1.1104 1.08342 11.1132 3.68478
71 1 -1.1104 4.04783 8.41396 1.15036
72 2 2.2208 2.58157 6.91431 2.6048
73 2 2.2208 2.52274 12.5319 2.40154
74 1 -1.1104 3.8595 8.46851 4.01527
75 2 2.2208 2.4382 9.93704 5.08083
76 1 -1.1104 4.05115 5.7252 1.03914
77 1 -1.1104 3.91262 11.184 0.998118
79 1 -1.1104 3.7746 5.72982 3.98063
80 1 -1.1104 3.93704 11.3116 3.92081
70 1 -1.1104 6.75302 11.087 3.77927
78 1 -1.1104 3.77924 11.1794 6.58003
234 1 -1.1104 1.11579 8.39763 6.58079
65 1 -1.1104 6.5476 11.2191 6.56425
69 1 -1.1104 6.74359 5.60453 3.78351
59 1 -1.1104 6.68997 8.36 3.70674
57 1 -1.1104 6.67722 8.52722 0.895483
236 1 -1.1104 1.00543 5.77985 6.7066
238 1 -1.1104 3.97375 8.53959 6.68963
62 1 -1.1104 0.952263 11.2136 6.6252
63 1 -1.1104 6.77194 5.57758 1.06844
237 1 -1.1104 6.6968 5.56969 6.53286
202 2 2.2208 2.54449 -4.36147 8.04393
64 1 -1.1104 6.65822 11.1441 0.939588
105 2 2.2208 13.713 6.93371 2.45497
84 2 2.2208 10.9821 6.95299 5.21983
85 2 2.2208 10.9591 12.5941 4.97993
86 1 -1.1104 12.2741 8.40751 1.03741
87 1 -1.1104 12.4215 8.43421 3.851
88 1 -1.1104 12.2394 5.58526 1.03387
89 1 -1.1104 12.356 11.1572 0.768358
91 2 2.2208 10.8177 9.73536 2.39445
92 1 -1.1104 12.2637 5.5736 3.82485
93 1 -1.1104 12.1944 11.1983 3.61547
94 1 -1.1104 9.53069 8.35045 1.00365
95 2 2.2208 8.07482 6.96692 2.33159
96 2 2.2208 8.04953 12.523 2.43409
97 1 -1.1104 9.59613 8.34397 3.9163
98 2 2.2208 8.13958 9.74009 5.15958
99 1 -1.1104 9.63132 5.46732 1.17688
100 1 -1.1104 9.45441 11.3275 0.820414
102 1 -1.1104 9.52818 5.48254 3.84635
103 1 -1.1104 9.48609 11.162 3.85283
101 1 -1.1104 9.43551 11.0533 6.64619
90 1 -1.1104 12.4277 11.0669 6.55828
314 1 -1.1104 9.40908 16.7448 12.1389
136 1 -1.1104 12.1653 19.4643 9.38562
106 2 2.2208 5.205 18.2019 5.1869
107 1 -1.1104 1.16489 14.0645 1.17064
109 1 -1.1104 0.923009 19.6762 1.03549
113 1 -1.1104 1.07315 13.8786 3.72044
114 1 -1.1104 1.15088 19.34 3.98245
116 1 -1.1104 1.02722 16.7178 1.0383
119 2 2.2208 5.25001 15.3284 2.41517
120 2 2.2208 5.2207 20.9693 2.18781
121 1 -1.1104 1.01064 16.7336 3.87689
123 1 -1.1104 3.94591 13.9011 1.01811
125 1 -1.1104 3.74809 19.5322 0.910771
127 2 2.2208 2.43785 18.1097 2.40742
128 1 -1.1104 3.89812 14.0096 3.72161
129 1 -1.1104 3.95149 19.6084 3.70311
130 2 2.2208 2.42939 15.41 5.16186
131 2 2.2208 2.48407 21.0189 5.27704
132 1 -1.1104 3.9653 16.8069 0.922501
134 1 -1.1104 3.83086 16.7584 3.68165
139 1 -1.1104 6.67701 19.5664 3.80751
110 1 -1.1104 6.63206 13.9431 0.892923
118 1 -1.1104 6.67779 16.6968 6.49653
122 1 -1.1104 6.64817 16.8763 3.788
112 1 -1.1104 6.64895 19.5715 6.57228
124 1 -1.1104 3.86746 14.0235 6.62312
111 1 -1.1104 6.72055 14.0441 6.50533
133 1 -1.1104 3.79815 16.7803 6.50047
126 1 -1.1104 3.94439 19.563 6.54685
108 1 -1.1104 1.06404 13.8983 6.51199
117 1 -1.1104 1.03349 16.7981 6.60462
138 1 -1.1104 6.68681 19.6983 0.862027
140 1 -1.1104 6.74281 16.8354 1.00235
115 1 -1.1104 6.65781 14.0177 3.72128
165 2 2.2208 13.5897 18.3511 2.49065
52 2 2.2208 13.6632 21.1265 5.246
154 1 -1.1104 9.42267 14.0647 6.69091
141 2 2.2208 10.7656 18.2016 5.13116
142 1 -1.1104 12.3106 14.0871 1.04162
144 1 -1.1104 12.3285 19.7797 0.840268
146 1 -1.1104 12.3839 14.1341 3.78708
147 1 -1.1104 12.1876 19.7025 3.83114
148 1 -1.1104 12.3345 16.8105 1.10619
150 2 2.2208 10.9272 15.5133 2.42792
151 2 2.2208 10.8573 20.9322 2.39666
152 1 -1.1104 12.3542 16.7639 3.89219
153 1 -1.1104 9.49896 14.0933 1.05338
155 1 -1.1104 9.43706 19.6322 0.9069
157 2 2.2208 8.1682 18.3294 2.31093
158 1 -1.1104 9.48069 13.8627 3.84664
159 1 -1.1104 9.43442 19.6854 3.64756
160 2 2.2208 8.15939 15.4406 5.16641
161 2 2.2208 7.95153 21.0641 5.12481
162 1 -1.1104 9.69621 16.8687 0.940395
164 1 -1.1104 9.42119 16.7442 3.67341
145 1 -1.1104 12.3126 19.5583 6.46491
156 1 -1.1104 9.3505 19.481 6.41084
163 1 -1.1104 9.65827 16.69 6.53526
172 1 -1.1104 3.78334 -2.85193 6.58606
174 1 -1.1104 3.82736 -0.0552863 6.64579
8942 2 2.2208 13.6843 4.01939 5.32861
166 1 -1.1104 1.06816 -3.0246 6.48815
175 2 2.2208 5.43628 1.5037 10.8303
176 1 -1.1104 1.05442 -2.94397 12.2452
177 1 -1.1104 1.14298 2.77339 12.156
180 1 -1.1104 1.07401 -2.84997 9.12546
181 1 -1.1104 0.990714 2.81139 9.45097
184 1 -1.1104 1.24093 -0.0347253 12.2823
186 2 2.2208 5.23199 -1.46016 7.98956
187 2 2.2208 5.28032 4.18158 8.00493
188 1 -1.1104 0.955725 -0.0637435 9.25107
190 1 -1.1104 3.62774 -2.96449 12.1937
191 1 -1.1104 3.94245 2.87456 12.1646
192 2 2.2208 2.38933 1.46293 8.1671
193 1 -1.1104 3.85573 -2.94558 9.49762
194 1 -1.1104 3.977 2.76215 9.42313
195 2 2.2208 2.51435 -1.42128 10.7583
196 2 2.2208 2.60629 4.24551 10.7168
197 1 -1.1104 3.92024 -0.129583 12.2444
198 1 -1.1104 3.90766 0.153919 9.43459
185 1 -1.1104 6.70049 -0.177791 12.2361
179 1 -1.1104 6.67053 2.76659 12.3384
182 1 -1.1104 6.57074 -2.84704 9.39014
178 1 -1.1104 6.53833 -2.93431 12.2749
189 1 -1.1104 6.71996 -0.0343296 9.47313
8558 2 2.2208 5.22537 -4.28914 10.8421
104 1 -1.1104 12.2511 14.0651 9.36705
9237 2 2.2208 13.5992 12.5896 2.29413
210 1 -1.1104 9.52004 -0.0534683 6.7138
205 1 -1.1104 12.3131 -2.89124 6.63629
207 1 -1.1104 12.4378 -0.105395 6.81912
206 1 -1.1104 12.2412 2.69959 6.61658
208 1 -1.1104 9.38896 -2.91192 6.65201
183 1 -1.1104 6.85751 2.87445 9.30141
230 2 2.2208 13.6153 -1.45112 10.9526
331 2 2.2208 2.43289 4.18271 -0.338099
211 2 2.2208 10.8447 1.31111 10.8874
212 1 -1.1104 12.1373 -2.79197 12.107
213 1 -1.1104 12.4506 2.71323 12.2445
214 1 -1.1104 12.1568 -2.79614 9.43358
215 1 -1.1104 12.2584 2.82781 9.39947
216 1 -1.1104 12.2482 0.0858936 12.1787
217 2 2.2208 10.9014 -1.5084 8.10168
219 1 -1.1104 12.3124 0.04506 9.58589
220 1 -1.1104 9.35998 -2.87171 12.4655
221 1 -1.1104 9.55895 2.77376 12.3315
222 2 2.2208 7.98968 1.27203 7.95769
223 1 -1.1104 9.29584 -2.82465 9.41306
224 1 -1.1104 9.39309 2.75069 9.5586
225 2 2.2208 8.07301 -1.45802 10.9541
226 2 2.2208 8.23499 4.14385 11.0107
227 1 -1.1104 9.50748 -0.0657249 12.3053
228 1 -1.1104 9.49202 -0.00971657 9.5174
218 2 2.2208 10.8677 4.05446 8.08521
239 1 -1.1104 3.8945 5.60435 6.64826
235 1 -1.1104 6.80186 8.29374 6.61944
296 1 -1.1104 6.76824 13.9947 12.3606
240 2 2.2208 5.36242 6.97696 10.7926
241 2 2.2208 5.4 12.5868 10.839
242 1 -1.1104 0.911477 8.45383 12.2583
244 1 -1.1104 1.21218 8.33378 9.44065
246 1 -1.1104 1.11754 5.55175 12.1131
247 1 -1.1104 1.26073 11.3788 12.1001
250 2 2.2208 5.36175 9.83908 8.04468
251 1 -1.1104 1.03476 5.59902 9.43147
252 1 -1.1104 0.910234 11.1526 9.32519
255 1 -1.1104 3.93136 8.39507 12.1582
256 2 2.2208 2.49171 7.03644 7.95366
257 2 2.2208 2.48287 12.5231 7.89733
258 1 -1.1104 4.01165 8.42525 9.48673
259 2 2.2208 2.50926 9.85031 10.7622
260 1 -1.1104 4.00247 5.7067 12.2913
261 1 -1.1104 3.93674 11.3247 12.2505
262 1 -1.1104 3.94749 5.56762 9.32126
263 1 -1.1104 3.80592 11.3364 9.48662
254 1 -1.1104 6.69923 11.2021 9.38126
243 1 -1.1104 6.52227 8.4984 12.146
248 1 -1.1104 6.83953 5.59316 12.2021
253 1 -1.1104 6.77562 5.67914 9.5233
245 1 -1.1104 6.9946 8.5139 9.46284
321 2 2.2208 2.49675 12.6875 13.5286
266 1 -1.1104 12.2046 5.34555 6.64579
269 1 -1.1104 9.55147 5.48927 6.50888
267 1 -1.1104 9.68779 8.3195 6.69424
249 1 -1.1104 6.77003 11.2617 12.2627
9239 2 2.2208 -0.336172 18.1526 5.25862
233 2 2.2208 8.0824 15.3338 10.7644
265 1 -1.1104 12.4659 8.28436 6.75845
264 1 -1.1104 9.44651 11.2446 9.49018
268 1 -1.1104 9.65025 5.51859 9.41786
270 1 -1.1104 9.63236 11.1004 12.3101
271 1 -1.1104 9.48696 5.46844 12.314
272 2 2.2208 8.28832 9.8485 10.8865
273 1 -1.1104 9.95596 8.16706 9.31319
274 2 2.2208 8.09909 12.5901 8.00929
275 2 2.2208 8.23922 6.97819 7.99231
276 2 2.2208 10.908 6.74219 10.9348
277 2 2.2208 11.0223 12.5402 10.8712
278 1 -1.1104 12.1583 8.16725 12.2951
279 1 -1.1104 12.1955 5.4354 12.1194
280 1 -1.1104 12.3691 11.2576 12.4735
281 2 2.2208 10.9135 9.80334 7.97876
282 1 -1.1104 12.3865 5.76159 9.27392
283 1 -1.1104 12.113 11.2323 9.35166
284 1 -1.1104 9.42522 8.26486 12.2723
9234 2 2.2208 13.7606 1.33145 2.5224
30 2 2.2208 -0.341845 9.83131 7.89215
9472 2 2.2208 -0.329057 20.925 13.634
312 1 -1.1104 9.51435 13.9477 9.46388
311 2 2.2208 7.99941 18.138 7.96327
325 2 2.2208 2.55833 18.1144 13.6235
295 1 -1.1104 6.78232 19.6055 12.3981
301 1 -1.1104 1.09434 19.5518 6.60893
287 1 -1.1104 6.61462 19.4966 9.31427
305 1 -1.1104 6.62258 16.6911 12.0784
285 1 -1.1104 3.952 19.5361 12.0589
286 1 -1.1104 4.0208 14.049 12.3221
290 1 -1.1104 1.10244 19.5277 9.36797
291 1 -1.1104 1.16847 16.8092 9.47352
292 2 2.2208 5.22915 21.0366 7.88526
293 1 -1.1104 0.939426 14.0085 9.3143
294 2 2.2208 5.24921 15.4082 7.96234
297 1 -1.1104 1.1061 19.7602 12.1518
298 1 -1.1104 1.16837 14.078 12.275
299 2 2.2208 5.26137 18.1432 10.6478
300 1 -1.1104 3.79219 19.6631 9.21445
302 2 2.2208 2.40842 18.1568 7.98119
303 1 -1.1104 3.91491 16.7399 9.33556
304 1 -1.1104 3.8045 13.9353 9.39625
306 1 -1.1104 1.01704 16.8427 12.3114
307 1 -1.1104 3.86298 16.7145 12.1311
308 2 2.2208 2.5427 20.9757 10.7625
309 2 2.2208 2.45993 15.226 10.7212
289 1 -1.1104 6.69649 13.9518 9.36091
288 1 -1.1104 6.76206 16.7565 9.38918
324 2 2.2208 5.26936 15.3664 13.5691
512 2 2.2208 5.34958 20.9679 13.6386
329 2 2.2208 13.582 18.3793 13.5417
326 2 2.2208 10.7782 21.007 13.5237
9232 2 2.2208 -0.337875 1.29638 5.30354
149 1 -1.1104 12.2152 16.8852 6.54366
143 1 -1.1104 12.2814 13.9711 6.52987
199 2 2.2208 10.9542 15.3512 7.9075
27 2 2.2208 13.6045 18.1963 8.0099
26 2 2.2208 13.7194 15.4059 10.7834
315 2 2.2208 8.02178 21.0655 10.7346
137 1 -1.1104 12.1591 16.86 12.2251
8559 2 2.2208 13.6621 -4.33981 7.9518
8969 2 2.2208 -0.411426 20.8779 8.10221
310 1 -1.1104 9.54427 19.6008 12.0621
204 1 -1.1104 12.3112 16.776 9.43709
51 1 -1.1104 12.4083 14.1161 12.3531
82 1 -1.1104 12.143 19.7112 12.2364
50 2 2.2208 10.7818 18.1563 10.6701
313 1 -1.1104 9.41623 16.8523 9.24726
203 1 -1.1104 9.22277 19.7612 9.26235
317 2 2.2208 5.2224 -1.53142 13.5726
9101 2 2.2208 13.648 1.36613 8.16584
476 2 2.2208 8.10692 6.98294 13.7312
408 2 2.2208 8.0351 -4.39733 13.6551
318 2 2.2208 8.10715 1.33549 13.6016
323 2 2.2208 10.9974 9.81812 13.6926
383 2 2.2208 5.2971 4.23567 13.7955
602 2 2.2208 13.655 -1.35106 -0.318982
632 2 2.2208 5.32696 12.6772 -0.424708
631 2 2.2208 2.51704 9.79814 -0.364194
340 2 2.2208 8.05728 9.89651 -0.462447
657 2 2.2208 10.8708 12.6508 -0.45993
335 2 2.2208 2.45655 15.3799 -0.337716
341 2 2.2208 5.19887 1.41675 16.5181
342 1 -1.1104 1.08054 -2.76228 17.7894
343 1 -1.1104 1.12053 2.83275 17.8525
346 1 -1.1104 0.995657 -2.74933 15.1318
348 1 -1.1104 1.0866 2.72608 14.9051
354 1 -1.1104 0.980443 0.0823354 17.8815
356 2 2.2208 5.31134 -1.35952 19.3132
357 2 2.2208 5.33196 4.15983 19.2247
358 1 -1.1104 1.22803 -0.0573333 14.9742
362 1 -1.1104 3.93888 -2.88869 17.8888
363 1 -1.1104 3.71505 2.64161 17.6679
364 2 2.2208 2.33371 1.47025 19.2472
365 1 -1.1104 3.67894 -2.97918 15.0658
367 1 -1.1104 3.92471 2.77455 14.9279
369 2 2.2208 2.54802 -1.37512 16.5135
370 2 2.2208 2.48537 4.18618 16.4126
371 1 -1.1104 3.86608 -0.0217461 17.7392
372 1 -1.1104 3.95338 -0.125552 15.0467
360 1 -1.1104 6.68373 -0.168696 14.8807
376 2 2.2208 2.53153 -4.36776 19.3603
355 1 -1.1104 6.62442 -0.0608711 17.9624
350 1 -1.1104 6.5548 -2.80777 15.1754
352 1 -1.1104 6.74664 2.8268 15.0129
368 1 -1.1104 3.81831 2.96795 20.4596
345 1 -1.1104 6.59664 2.78339 17.8617
9293 2 2.2208 -0.374628 21.06 24.822
570 2 2.2208 5.32542 -4.26335 27.609
344 1 -1.1104 6.8037 -2.81662 17.9298
384 2 2.2208 10.9122 1.34239 16.5649
385 1 -1.1104 12.3117 -3.02617 17.6932
386 1 -1.1104 12.2994 2.77596 17.9401
387 1 -1.1104 12.0957 -2.88928 14.8058
389 1 -1.1104 12.1683 2.63923 15.073
391 1 -1.1104 12.3783 0.0431196 17.8294
393 1 -1.1104 12.3248 -0.123326 14.89
394 1 -1.1104 9.39389 2.71454 17.9006
395 2 2.2208 8.21974 1.26605 19.2398
396 1 -1.1104 9.32233 -2.84363 15.3564
398 1 -1.1104 9.46925 2.72523 15.1357
400 2 2.2208 7.95949 -1.36071 16.4456
401 2 2.2208 8.05 4.13371 16.4071
402 1 -1.1104 9.33829 -0.105702 17.8061
403 1 -1.1104 9.42163 -0.0937532 15.0666
392 2 2.2208 10.7796 4.03566 19.2567
409 2 2.2208 13.565 -1.49942 16.4633
397 1 -1.1104 9.22798 -3.15391 20.9197
601 2 2.2208 8.08453 -4.23949 24.9108
571 2 2.2208 5.23038 -4.17285 22.1064
405 2 2.2208 13.5025 -4.17894 19.2495
9288 2 2.2208 13.7158 4.20622 16.368
375 2 2.2208 5.1895 -4.24834 16.6019
413 2 2.2208 10.912 4.05187 13.5872
572 2 2.2208 2.41707 -4.18602 24.9492
448 2 2.2208 13.7879 1.30014 13.626
414 2 2.2208 5.18111 7.03155 16.4327
415 2 2.2208 5.28014 12.6725 16.3679
416 1 -1.1104 0.904473 8.42245 17.7752
418 1 -1.1104 1.18452 8.38328 14.9254
422 1 -1.1104 1.26403 5.59139 17.9497
423 1 -1.1104 1.3012 11.2084 17.8608
426 2 2.2208 5.35601 9.79854 19.3092
427 1 -1.1104 1.12327 5.52395 14.996
429 1 -1.1104 1.18932 11.3424 14.9513
435 1 -1.1104 3.83265 8.50542 17.8294
436 2 2.2208 2.51321 7.07027 19.2692
437 2 2.2208 2.52009 12.6375 19.2343
438 1 -1.1104 3.85488 8.50451 14.9315
440 2 2.2208 2.53927 9.83701 16.2494
441 1 -1.1104 4.03618 5.4781 17.845
442 1 -1.1104 4.02446 11.3398 17.7208
443 1 -1.1104 3.95017 5.5686 15.177
445 1 -1.1104 3.95044 11.2573 14.947
428 1 -1.1104 1.01181 5.67279 20.6629
431 1 -1.1104 6.65155 5.52722 15.0201
430 1 -1.1104 1.09088 11.1815 20.7205
439 1 -1.1104 4.01315 8.42129 20.6928
444 1 -1.1104 3.70859 5.71417 20.627
432 1 -1.1104 6.54164 5.51514 20.6808
425 1 -1.1104 6.66273 11.2833 17.8831
420 1 -1.1104 6.70868 8.33367 14.9255
434 1 -1.1104 6.73036 11.2131 20.6501
417 1 -1.1104 6.67311 8.35579 17.6956
421 1 -1.1104 6.7277 8.35233 20.6201
9287 2 2.2208 -0.45292 18.1645 22.0815
9290 2 2.2208 -0.285768 12.5785 27.7447
424 1 -1.1104 6.69186 5.49787 17.9003
433 1 -1.1104 6.65959 11.0919 15.2621
452 2 2.2208 10.8361 6.91908 16.5004
453 2 2.2208 11.0142 12.5337 16.4331
454 1 -1.1104 12.3352 8.27387 17.7996
455 1 -1.1104 12.2394 8.12907 14.9443
457 1 -1.1104 12.2076 5.43222 17.8446
458 1 -1.1104 12.3229 11.0479 17.9489
459 2 2.2208 10.9521 9.66816 19.2471
460 1 -1.1104 12.2442 5.45674 14.956
462 1 -1.1104 12.1969 11.1898 15.1296
464 1 -1.1104 9.55583 8.2996 17.8765
465 2 2.2208 7.99787 6.97353 19.269
466 2 2.2208 8.002 12.5372 19.194
467 1 -1.1104 9.43939 8.42009 15.153
469 2 2.2208 8.09711 9.75884 16.5177
470 1 -1.1104 9.45415 5.35372 17.9302
471 1 -1.1104 9.51718 11.1441 17.8068
472 1 -1.1104 9.3585 5.53438 15.1829
474 1 -1.1104 9.47767 11.2414 15.0567
9475 2 2.2208 13.6843 12.5084 24.8077
468 1 -1.1104 9.44986 8.19013 20.6799
456 1 -1.1104 12.2461 8.1752 20.6306
381 2 2.2208 13.6389 9.62799 16.4514
380 2 2.2208 13.6475 6.83535 19.1982
463 1 -1.1104 12.3946 11.0369 20.7048
478 2 2.2208 5.27416 18.2193 16.4594
479 1 -1.1104 0.9878 13.889 17.9589
480 1 -1.1104 0.951822 19.5317 17.7649
483 1 -1.1104 0.777849 14.0195 15.0901
485 1 -1.1104 1.09124 19.5096 14.9721
491 1 -1.1104 1.19297 16.7838 17.8855
493 2 2.2208 5.25924 15.3911 19.1732
494 2 2.2208 5.21829 20.9564 19.3606
495 1 -1.1104 1.04561 16.8515 15.017
499 1 -1.1104 3.73201 13.9337 17.7633
500 1 -1.1104 3.75217 19.6628 17.8232
501 2 2.2208 2.50681 18.2276 19.181
502 1 -1.1104 3.75586 14.0216 15.024
504 1 -1.1104 4.01454 19.7022 15.1236
506 2 2.2208 2.49 15.3808 16.43
507 2 2.2208 2.4392 21.0376 16.4248
508 1 -1.1104 3.95079 16.838 17.845
509 1 -1.1104 3.85487 16.7904 15.106
481 1 -1.1104 6.49246 14.0705 17.8652
489 1 -1.1104 6.61898 19.524 15.0568
487 1 -1.1104 6.78092 13.8353 15.0231
497 1 -1.1104 6.6132 16.7842 15.1143
492 1 -1.1104 6.66801 16.846 17.7824
503 1 -1.1104 3.82164 14.0769 20.5052
482 1 -1.1104 6.59342 19.6455 17.7514
505 1 -1.1104 3.86356 19.6073 20.5657
484 1 -1.1104 1.05956 13.9692 20.645
486 1 -1.1104 1.03823 19.6321 20.3783
496 1 -1.1104 1.15162 16.8529 20.7539
498 1 -1.1104 6.64837 16.7753 20.4898
449 1 -1.1104 9.54313 19.5732 23.5857
510 1 -1.1104 3.9295 16.8293 20.5674
568 2 2.2208 10.8475 21.083 24.8852
490 1 -1.1104 6.58807 19.4812 20.5341
536 1 -1.1104 9.50993 16.6329 20.628
513 2 2.2208 10.8086 18.1988 16.3464
514 1 -1.1104 12.226 13.9138 17.9366
515 1 -1.1104 12.1104 19.461 18.0665
516 1 -1.1104 12.3694 13.9874 15.1248
518 1 -1.1104 12.1019 19.5488 15.0135
520 1 -1.1104 12.2441 16.7669 17.8238
521 2 2.2208 10.8295 15.3233 19.3433
522 2 2.2208 10.7935 20.8175 19.2378
523 1 -1.1104 12.768 16.6017 14.9473
525 1 -1.1104 9.44758 13.9077 17.8621
526 1 -1.1104 9.34451 19.4856 17.8943
527 2 2.2208 7.97441 18.1947 19.2172
528 1 -1.1104 9.53425 14.086 15.0296
530 1 -1.1104 9.46947 19.6603 14.9191
532 2 2.2208 8.0511 15.3541 16.4122
533 2 2.2208 7.9049 20.9419 16.3872
534 1 -1.1104 9.41708 16.6816 17.802
535 1 -1.1104 9.67602 16.8108 14.9687
406 2 2.2208 13.6378 15.2621 16.574
517 1 -1.1104 12.1754 13.8703 20.812
529 1 -1.1104 9.3018 13.7529 20.5439
519 1 -1.1104 12.0841 19.5045 20.6119
524 1 -1.1104 12.2032 16.8158 20.6528
531 1 -1.1104 9.18565 19.4845 20.8451
9294 2 2.2208 13.7795 1.3704 19.2027
488 1 -1.1104 6.6848 13.9433 20.6173
359 1 -1.1104 0.960415 -0.121731 20.6703
361 1 -1.1104 6.66777 0.0371483 20.6507
353 1 -1.1104 6.74818 2.58436 20.5473
347 1 -1.1104 1.18787 -2.85865 20.581
366 1 -1.1104 3.87175 -2.76961 20.6791
351 1 -1.1104 6.5426 -2.63198 20.7936
373 1 -1.1104 3.70166 0.0886019 20.7753
349 1 -1.1104 0.872557 2.65795 20.5822
541 2 2.2208 5.3245 1.41964 21.923
542 1 -1.1104 1.0802 -2.85197 23.5229
543 1 -1.1104 1.08337 2.80191 23.3583
546 1 -1.1104 1.00622 -2.68789 26.4837
547 1 -1.1104 1.0514 2.76114 26.1772
550 1 -1.1104 0.966609 -0.145553 23.3546
552 2 2.2208 5.18052 -1.33693 24.9425
554 1 -1.1104 0.922348 0.0397389 26.4626
556 1 -1.1104 3.82678 -2.6681 23.4789
557 1 -1.1104 3.85393 3.05101 23.4666
558 2 2.2208 2.47887 1.34118 24.839
559 1 -1.1104 3.73392 -2.75776 26.3786
560 1 -1.1104 3.93369 2.91209 26.3847
561 2 2.2208 2.45638 -1.49768 22.0056
562 2 2.2208 2.44433 4.19142 22.0468
563 1 -1.1104 3.92932 0.14308 23.55
564 1 -1.1104 3.86433 0.0429318 26.2536
553 2 2.2208 5.22508 4.09784 24.951
549 1 -1.1104 6.68162 2.84942 26.3461
9292 2 2.2208 -0.40022 1.29269 21.9757
545 1 -1.1104 6.69408 2.6643 23.4149
544 1 -1.1104 6.63365 -2.97621 23.5046
551 1 -1.1104 6.51324 -0.105032 23.2805
555 1 -1.1104 6.6854 -0.0723569 26.247
548 1 -1.1104 6.66832 -2.83906 26.1976
334 2 2.2208 8.102 -1.50978 27.6896
595 2 2.2208 10.9786 1.34746 27.7468
330 2 2.2208 5.26049 1.37556 27.7798
390 1 -1.1104 12.3411 2.48841 20.7819
634 1 -1.1104 12.2948 13.9048 23.451
374 2 2.2208 13.6078 4.09396 21.955
399 1 -1.1104 9.61689 2.68116 20.7213
388 1 -1.1104 12.3818 -2.72438 20.8805
404 1 -1.1104 9.42523 -0.128611 20.7813
577 2 2.2208 10.7299 1.30179 22.0313
578 1 -1.1104 12.2739 -2.8691 23.5882
579 1 -1.1104 12.2473 2.57514 23.6087
580 1 -1.1104 12.4146 -2.82551 26.3852
581 1 -1.1104 12.1645 2.79012 26.4031
582 1 -1.1104 12.2076 -0.147255 23.2636
583 2 2.2208 10.8426 -1.53971 24.9973
584 2 2.2208 10.992 4.0854 24.8505
585 1 -1.1104 12.3068 -0.0298897 26.1981
586 1 -1.1104 9.56422 -2.77276 23.5723
587 1 -1.1104 9.46181 2.77273 23.4975
588 2 2.2208 8.06978 1.41316 24.942
589 1 -1.1104 9.59647 -2.76019 26.358
590 1 -1.1104 9.44444 2.77485 26.3159
591 2 2.2208 8.16735 -1.40075 22.1213
592 2 2.2208 8.08348 4.14536 22.0868
593 1 -1.1104 9.42011 -0.0521392 23.6345
594 1 -1.1104 9.42221 -0.066412 26.3804
600 2 2.2208 10.7819 -4.24424 22.1166
410 2 2.2208 13.7771 18.2227 24.8542
9431 2 2.2208 13.6723 20.9233 16.4677
599 2 2.2208 13.6227 12.6093 19.4151
419 1 -1.1104 1.20818 8.39918 20.7516
446 1 -1.1104 3.78605 11.1578 20.7134
378 2 2.2208 -0.237339 -1.36338 19.0973
606 2 2.2208 5.19406 6.94082 22.0986
607 2 2.2208 5.29168 12.5567 21.958
608 1 -1.1104 1.02886 8.26811 23.4239
610 1 -1.1104 1.04357 8.33956 26.3532
612 1 -1.1104 1.05521 5.53415 23.4524
613 1 -1.1104 1.10153 11.1241 23.6062
616 2 2.2208 5.36274 9.80552 24.9157
617 1 -1.1104 1.00562 5.54678 26.3843
618 1 -1.1104 1.01014 11.1975 26.2596
621 1 -1.1104 3.88807 8.16957 23.6762
622 2 2.2208 2.35733 6.84624 24.8774
623 2 2.2208 2.45172 12.5325 24.7712
624 1 -1.1104 3.89136 8.55874 26.3862
625 2 2.2208 2.45553 9.711 22.1454
626 1 -1.1104 3.78483 5.55809 23.5074
627 1 -1.1104 3.8613 11.0514 23.4841
628 1 -1.1104 3.91375 5.72847 26.3706
629 1 -1.1104 3.93033 11.2602 26.349
619 1 -1.1104 6.80625 5.71082 26.3177
611 1 -1.1104 6.7524 8.51357 26.2447
609 1 -1.1104 6.61951 8.38504 23.3133
620 1 -1.1104 6.75458 11.3347 26.2835
614 1 -1.1104 6.6751 5.60872 23.6546
9549 2 2.2208 13.6709 9.60355 22.0165
660 2 2.2208 10.9023 15.3821 24.9784
9473 2 2.2208 13.5345 6.92241 24.7945
475 1 -1.1104 9.60071 11.0203 20.6531
473 1 -1.1104 9.52086 5.43962 20.7476
461 1 -1.1104 12.2255 5.47057 20.5483
615 1 -1.1104 6.67909 11.1618 23.5025
635 1 -1.1104 12.4253 19.538 23.4554
658 1 -1.1104 12.2567 19.5335 26.1909
538 2 2.2208 7.98363 21.0204 22.1255
539 1 -1.1104 9.43533 16.7903 23.3788
637 1 -1.1104 9.50179 11.3195 26.1617
638 1 -1.1104 9.61675 5.55574 26.1321
639 1 -1.1104 9.42206 11.1216 23.3863
640 1 -1.1104 9.63609 5.52224 23.4308
641 2 2.2208 8.11958 9.68035 22.1152
642 1 -1.1104 9.37314 8.4558 26.2935
643 2 2.2208 8.09158 12.6835 24.8056
644 2 2.2208 8.25814 6.87646 24.8202
645 2 2.2208 10.8788 6.77079 22.023
646 2 2.2208 10.8332 12.4599 22.1074
647 1 -1.1104 12.1947 8.16551 23.4041
648 1 -1.1104 12.2748 8.40853 26.2964
649 1 -1.1104 12.2947 5.38898 23.3391
650 1 -1.1104 12.2548 11.0872 23.5179
651 2 2.2208 10.8506 9.81067 24.9419
652 1 -1.1104 12.2049 5.54786 26.412
653 1 -1.1104 12.2848 11.1035 26.2139
654 1 -1.1104 9.38467 8.24847 23.4154
659 1 -1.1104 12.2465 16.556 23.5003
336 2 2.2208 5.25807 18.2329 27.5636
477 1 -1.1104 9.4158 14.0784 26.3564
596 2 2.2208 2.44017 15.2694 21.9473
597 2 2.2208 2.35127 20.8594 21.9526
655 1 -1.1104 3.8887 16.7094 23.364
656 1 -1.1104 1.07277 16.6505 23.3869
661 1 -1.1104 3.86712 19.5893 23.3619
663 1 -1.1104 3.90606 13.8829 23.3632
665 1 -1.1104 1.09343 19.6834 26.1718
666 1 -1.1104 0.987011 16.9812 26.2226
667 1 -1.1104 1.04948 14.1376 26.3773
669 2 2.2208 5.14626 20.9742 24.8031
670 2 2.2208 5.28422 15.441 24.8079
672 1 -1.1104 0.988498 19.5125 23.4245
673 1 -1.1104 1.04346 13.8842 23.4205
674 2 2.2208 5.2613 18.0446 21.9856
675 1 -1.1104 3.80372 19.626 26.3345
676 2 2.2208 2.4396 18.281 24.73
677 1 -1.1104 3.81108 16.926 26.2622
678 1 -1.1104 3.8374 14.0719 26.0999
679 1 -1.1104 6.67048 16.6782 23.4655
668 1 -1.1104 6.53996 19.6358 23.3997
671 1 -1.1104 6.58383 14.0086 23.5006
337 2 2.2208 2.40837 21.0259 27.6973
575 2 2.2208 10.9549 18.3094 27.6216
332 2 2.2208 13.6591 15.514 27.6694
574 2 2.2208 8.07676 15.4757 27.6379
540 1 -1.1104 9.51683 16.8931 26.236
567 1 -1.1104 12.3229 16.8134 26.2574
633 2 2.2208 10.866 18.1189 22.0218
662 1 -1.1104 6.73362 14.0842 26.224
450 2 2.2208 8.1451 18.1895 24.8508
451 1 -1.1104 6.63214 19.5529 26.1345
664 1 -1.1104 6.70737 16.8478 26.2751
565 1 -1.1104 9.35109 14.0602 23.3187
636 1 -1.1104 12.2999 13.9694 26.2425
537 2 2.2208 7.95958 15.3934 21.9403
511 1 -1.1104 9.4948 19.6587 26.2356
603 2 2.2208 7.98802 21.0318 27.6261
339 2 2.2208 10.9087 7.00691 27.7674
630 2 2.2208 5.23088 7.14454 27.5382
338 2 2.2208 8.19399 4.19047 27.7269
382 2 2.2208 2.54006 1.33146 13.6869
566 2 2.2208 2.47169 -1.49558 27.8567
411 2 2.2208 13.6767 12.6687 13.7113
322 2 2.2208 8.18742 12.5771 13.6632
327 2 2.2208 10.9838 15.4283 13.6865
320 2 2.2208 5.20379 9.84008 13.6205
328 2 2.2208 8.09279 18.1392 13.5745
319 2 2.2208 2.60985 7.00349 13.5548
412 2 2.2208 10.7919 -1.42416 13.6614
680 2 2.2208 5.15439 23.8456 5.14032
681 2 2.2208 5.11369 29.4034 5.24363
682 1 -1.1104 1.14227 25.2818 1.04781
683 1 -1.1104 0.853947 25.0994 3.82197
684 1 -1.1104 0.907796 22.5448 1.19121
685 1 -1.1104 1.12434 27.977 0.841686
686 2 2.2208 5.28466 26.5857 2.3071
687 1 -1.1104 1.03047 22.3219 3.87626
688 1 -1.1104 1.04188 28.0648 3.71405
689 1 -1.1104 3.88436 25.2285 0.928491
690 2 2.2208 2.33502 23.9193 2.4677
691 2 2.2208 2.39275 29.3578 2.25511
692 1 -1.1104 3.63546 25.2694 3.92849
693 2 2.2208 2.38943 26.5533 5.27925
694 1 -1.1104 3.78858 22.3959 0.899924
695 1 -1.1104 4.02837 27.9173 0.862151
696 1 -1.1104 3.88961 22.3787 3.80594
697 1 -1.1104 3.82911 28.0063 3.71456
704 1 -1.1104 6.76754 28.1212 1.03806
821 1 -1.1104 0.90779 25.207 6.53587
823 1 -1.1104 1.10223 22.3519 6.7292
702 1 -1.1104 6.54476 25.097 3.79673
827 1 -1.1104 3.73469 25.2301 6.65361
828 1 -1.1104 3.85215 22.5402 6.69115
829 1 -1.1104 3.81008 28.1102 6.52838
824 1 -1.1104 0.965075 27.9637 6.51184
822 1 -1.1104 6.50648 25.2886 6.58086
706 1 -1.1104 6.5854 28.066 3.8879
826 1 -1.1104 6.61779 27.9893 6.6726
1174 2 2.2208 13.7645 40.6337 13.5752
703 1 -1.1104 6.66365 22.5174 0.796851
705 1 -1.1104 6.62863 22.4224 3.60081
701 1 -1.1104 6.65332 25.2477 0.857006
707 2 2.2208 10.7466 23.8198 5.18093
708 2 2.2208 10.7992 29.4979 5.25294
709 1 -1.1104 12.222 25.2378 1.05763
710 1 -1.1104 12.2981 25.1743 3.71741
711 1 -1.1104 12.2083 22.3949 0.894811
712 1 -1.1104 12.2497 28.1428 1.12312
713 2 2.2208 10.9703 26.7036 2.58293
714 1 -1.1104 11.9741 22.4004 3.75976
715 1 -1.1104 12.2687 28.0178 3.89685
716 1 -1.1104 9.42097 25.1393 0.971978
717 2 2.2208 7.9785 23.7579 2.25378
718 2 2.2208 7.97934 29.495 2.46165
719 1 -1.1104 9.47342 25.389 3.87796
720 2 2.2208 8.0091 26.6929 5.32344
721 1 -1.1104 9.37185 22.3156 0.958554
722 1 -1.1104 9.52474 27.9936 1.04079
723 1 -1.1104 9.38279 22.5389 3.63058
724 1 -1.1104 9.3921 28.109 4.07435
825 1 -1.1104 6.59692 22.4122 6.48551
858 1 -1.1104 9.45087 22.1936 6.45828
957 1 -1.1104 6.62962 42.0188 9.52782
947 1 -1.1104 6.73498 39.12 12.3077
859 1 -1.1104 9.4427 28.0281 6.74147
854 1 -1.1104 12.1969 25.2371 6.58418
856 1 -1.1104 12.3395 28.1262 6.63892
728 2 2.2208 5.08457 35.2047 5.15472
729 1 -1.1104 0.981152 30.8514 1.0391
730 1 -1.1104 0.86586 36.581 1.0536
732 1 -1.1104 0.700021 30.8804 3.90667
733 1 -1.1104 0.895437 36.5622 3.88371
735 1 -1.1104 1.03867 33.7408 0.936882
736 2 2.2208 5.25973 32.3275 2.46819
737 2 2.2208 5.09053 37.7444 2.38271
738 1 -1.1104 0.828013 33.7657 3.67648
740 1 -1.1104 3.82596 30.7488 0.856093
741 1 -1.1104 3.58607 36.3864 1.01471
742 2 2.2208 2.32411 35.19 2.47236
743 1 -1.1104 3.66547 30.7989 3.84294
744 1 -1.1104 3.58016 36.6052 3.93737
745 2 2.2208 2.34573 32.115 5.15149
746 2 2.2208 2.34169 37.9037 5.23629
747 1 -1.1104 3.78321 33.6104 1.03337
748 1 -1.1104 3.8346 33.6648 3.88038
731 1 -1.1104 6.61865 36.4152 1.0108
752 1 -1.1104 6.57314 30.8518 1.12784
884 1 -1.1104 3.72315 30.828 6.58881
879 1 -1.1104 1.05859 36.657 6.64571
886 1 -1.1104 3.74878 33.6514 6.56289
885 1 -1.1104 3.83683 36.3924 6.66428
881 1 -1.1104 6.66022 36.5493 6.38881
882 1 -1.1104 0.931937 33.6395 6.53426
878 1 -1.1104 0.965615 30.7184 6.60425
880 1 -1.1104 6.47559 30.8007 6.76431
754 1 -1.1104 6.50003 33.5036 1.00779
753 1 -1.1104 6.504 30.8074 3.84868
961 1 -1.1104 6.52152 42.1434 12.0825
941 1 -1.1104 6.75181 39.2079 9.60321
727 2 2.2208 13.6933 26.5763 5.30495
739 1 -1.1104 6.48188 33.6541 3.88088
734 1 -1.1104 6.41957 36.3664 3.56786
755 2 2.2208 10.8004 35.1182 5.13754
756 1 -1.1104 12.2976 30.8304 0.967722
757 1 -1.1104 12.2171 36.3534 0.906822
758 1 -1.1104 12.2837 30.8133 3.91203
759 1 -1.1104 12.2233 36.496 3.72755
760 1 -1.1104 12.1189 33.5923 0.940392
761 2 2.2208 10.7891 32.2047 2.3573
762 2 2.2208 10.7984 37.8105 2.32181
763 1 -1.1104 12.2011 33.5955 3.72273
764 1 -1.1104 9.43048 30.8844 1.0309
765 1 -1.1104 9.47008 36.3551 0.974255
766 2 2.2208 8.01135 35.0061 2.40786
767 1 -1.1104 9.38001 30.9859 3.76493
768 1 -1.1104 9.4347 36.4523 3.74979
769 2 2.2208 7.93461 32.2927 5.27731