LAMMPS (29 Oct 2020)
OMP_NUM_THREADS environment is not set. Defaulting to 1 thread. (../comm.cpp:94)
  using 1 OpenMP thread(s) per MPI task
OMP_NUM_THREADS environment is not set. Defaulting to 1 thread. (../comm.cpp:94)
  using 1 OpenMP thread(s) per MPI task
Reading data file ...
  triclinic box = (-0.23474402 -3.0311552 -0.24117397) to (28.128744 337.75916 28.135174) with tilt (0.0000000 0.0000000 0.0000000)
  2 by 13 by 2 MPI processor grid
  reading atoms ...
  18000 atoms
  reading velocities ...
  18000 velocities
Finding 1-2 1-3 1-4 neighbors ...
  special bond factors lj:    0.0      0.0      0.0     
  special bond factors coul:  0.0      0.0      0.0     
     0 = max # of 1-2 neighbors
     0 = max # of 1-3 neighbors
     0 = max # of 1-4 neighbors
     1 = max # of special neighbors
  special bonds CPU = 0.003 seconds
  read_data CPU = 0.078 seconds
Setting atom values ...
  12000 settings made for charge
Setting atom values ...
  6000 settings made for charge
PPPM initialization ...
  using 12-bit tables for long-range coulomb (../kspace.cpp:328)
  G vector (1/distance) = 0.29819369
  grid = 40 240 40
  stencil order = 5
  estimated absolute RMS force accuracy = 0.00016303783
  estimated relative force accuracy = 1.1322351e-05
  using single precision MKL FFT
  3d grid and FFT values/proc = 15000 7600
Neighbor list info ...
  update every 1 steps, delay 0 steps, check yes
  max neighbors/atom: 2000, page size: 100000
  master list distance cutoff = 11.3
  ghost atom cutoff = 11.3
  binsize = 5.65, bins = 6 61 6
  2 neighbor lists, perpetual/occasional/extra = 2 0 0
  (1) pair coul/long, perpetual
      attributes: half, newton on
      pair build: half/bin/newton/tri
      stencil: half/bin/3d/newton/tri
      bin: standard
  (2) pair eam/alloy, perpetual, copy from (1)
      attributes: half, newton on
      pair build: copy
      stencil: none
      bin: none
Setting up Verlet run ...
  Unit style    : metal
  Current step  : 0
  Time step     : 0.001
Per MPI rank memory allocation (min/avg/max) = 8.312 | 8.340 | 8.357 Mbytes
Step Temp E_pair E_mol TotEng Press 
       0         1500   -232640.41            0   -229150.58   -1266.0978 
  100000     1513.674   -232677.15            0   -229155.51   -2003.6006 
Loop time of 705.551 on 52 procs for 100000 steps with 18000 atoms

Performance: 12.246 ns/day, 1.960 hours/ns, 141.733 timesteps/s
99.8% CPU use with 52 MPI tasks x 1 OpenMP threads

MPI task timing breakdown:
Section |  min time  |  avg time  |  max time  |%varavg| %total
---------------------------------------------------------------
Pair    | 455.51     | 461.51     | 467.48     |  16.5 | 65.41
Bond    | 0.007423   | 0.010772   | 0.018828   |   2.0 |  0.00
Kspace  | 147.58     | 156.78     | 165.23     |  41.5 | 22.22
Neigh   | 58.245     | 60.94      | 65.203     |  25.6 |  8.64
Comm    | 19.8       | 21.635     | 24.376     |  25.1 |  3.07
Output  | 5.7969e-05 | 6.3069e-05 | 0.0002791  |   0.0 |  0.00
Modify  | 2.1859     | 3.1378     | 5.2356     |  63.1 |  0.44
Other   |            | 1.535      |            |       |  0.22

Nlocal:        346.154 ave         364 max         328 min
Histogram: 1 4 8 8 4 8 8 4 3 4
Nghost:        3962.33 ave        4077 max        3903 min
Histogram: 12 10 7 5 7 1 2 1 5 2
Neighs:        69430.0 ave       72808 max       65613 min
Histogram: 2 3 6 6 8 7 7 2 4 7

Total # of neighbors = 3610362
Ave neighs/atom = 200.57567
Ave special neighs/atom = 0.0000000
Neighbor list builds = 24999
Dangerous builds = 0
12000 atoms in group oxygen
PPPM initialization ...
  using 12-bit tables for long-range coulomb (../kspace.cpp:328)
  G vector (1/distance) = 0.29819369
  grid = 40 240 40
  stencil order = 5
  estimated absolute RMS force accuracy = 0.00016303783
  estimated relative force accuracy = 1.1322351e-05
  using single precision MKL FFT
  3d grid and FFT values/proc = 15000 7600
Setting up Verlet run ...
  Unit style    : metal
  Current step  : 0
  Time step     : 0.001
Per MPI rank memory allocation (min/avg/max) = 8.563 | 8.591 | 8.608 Mbytes
Step f_2 Temp v_Tdiff v_deltaT 
       0            0     1513.674            0            0 
  100000    1576.9563    1500.4815  0.068059136    790.16025 
  200000    3035.6169    1505.8245  0.083440814     968.7401 
  300000    4505.3034    1496.3953  0.083447446    968.81709 
  400000    5969.6337    1503.7701  0.086365888    1002.6999 
  500000    7410.0538    1499.2631  0.085757565    995.63737 
  600000    8870.6503     1505.132  0.084695563    983.30762 
  700000    10329.163    1509.6388  0.085906607    997.36773 
  800000     11785.94    1511.2866  0.087455838    1015.3542 
  900000    13253.272    1512.1429  0.084790146    984.40572 
 1000000    14722.948    1507.9273   0.08767756    1017.9283 
 1100000     16177.11    1515.4772  0.083592236     970.4981 
 1200000    17660.248    1524.9056  0.083297281     967.0737 
 1300000    19136.328    1516.3555  0.087109917     1011.338 
 1400000    20601.241    1521.9363  0.085528271    992.97528 
 1500000    22067.019    1522.2007  0.086626035    1005.7202 
Loop time of 10496 on 52 procs for 1500000 steps with 18000 atoms

Performance: 12.348 ns/day, 1.944 hours/ns, 142.912 timesteps/s
99.8% CPU use with 52 MPI tasks x 1 OpenMP threads

MPI task timing breakdown:
Section |  min time  |  avg time  |  max time  |%varavg| %total
---------------------------------------------------------------
Pair    | 6699.6     | 6828.5     | 6963.9     |  70.9 | 65.06
Bond    | 0.11445    | 0.16327    | 0.23755    |   6.6 |  0.00
Kspace  | 2224.9     | 2354.8     | 2470.2     | 138.4 | 22.44
Neigh   | 885.22     | 931.22     | 987.02     |  73.9 |  8.87
Comm    | 293.97     | 323.75     | 363.87     |  97.8 |  3.08
Output  | 0.0017971  | 0.0019058  | 0.0036514  |   0.6 |  0.00
Modify  | 8.5172     | 9.4435     | 10.87      |  17.3 |  0.09
Other   |            | 48.11      |            |       |  0.46

Nlocal:        346.154 ave         361 max         335 min
Histogram: 7 6 2 10 6 8 3 4 4 2
Nghost:        3966.10 ave        4024 max        3921 min
Histogram: 4 7 11 9 3 2 3 3 4 6
Neighs:        69408.5 ave       73174 max       66933 min
Histogram: 6 6 8 8 7 7 5 1 3 1

Total # of neighbors = 3609240
Ave neighs/atom = 200.51333
Ave special neighs/atom = 0.0000000
Neighbor list builds = 380759
Dangerous builds = 0
Total wall time: 3:06:42
