ITEM: TIMESTEP
90000
ITEM: NUMBER OF ATOMS
17730
ITEM: BOX BOUNDS pp pp pp
-3.5420451186870411e-01 2.7694204511868744e+01
-4.2299506385021211e+00 3.3230995063849366e+02
-3.5808289173605440e-01 2.7698082891736618e+01
ITEM: ATOMS id type q x y z
1 2 2.2208 5.1591 1.4538 5.29994
2 1 -1.1104 0.96955 -2.70978 0.986616
3 1 -1.1104 0.847058 2.83502 1.06485
6 1 -1.1104 0.787488 -2.79525 3.80268
7 1 -1.1104 0.909584 2.62607 3.90648
10 1 -1.1104 0.833289 0.107498 1.07691
12 2 2.2208 5.17948 -1.26584 2.45536
13 2 2.2208 5.24285 4.20698 2.5508
14 1 -1.1104 0.9661 0.0198289 3.72952
16 1 -1.1104 3.82059 -2.92767 1.17052
17 1 -1.1104 3.77696 2.85867 1.05733
18 2 2.2208 2.53093 1.36194 2.55362
19 1 -1.1104 3.61078 -2.64042 3.79213
20 1 -1.1104 3.88704 2.7831 3.88875
21 2 2.2208 2.21192 -1.36771 5.31109
22 2 2.2208 2.36692 4.27455 5.26202
23 1 -1.1104 3.80249 0.101796 0.998868
24 1 -1.1104 3.69182 0.0427787 4.02438
4 1 -1.1104 6.56918 -2.83505 1.08053
168 1 -1.1104 6.39429 -2.7674 6.72617
8 1 -1.1104 6.4972 -2.66436 4.02065
9022 2 2.2208 5.12694 -4.27183 10.9055
11 1 -1.1104 6.53763 -0.0402815 1.03618
5 1 -1.1104 6.4916 2.80518 1.01268
15 1 -1.1104 6.55656 0.165235 3.81594
9021 2 2.2208 2.33126 -4.18939 8.02962
340 2 2.2208 10.6729 15.457 13.6167
170 1 -1.1104 0.965936 -0.0714812 6.79337
166 1 -1.1104 0.825239 -2.88316 6.64514
202 2 2.2208 13.5664 12.5759 8.00157
232 2 2.2208 13.5252 20.9654 5.27889
165 2 2.2208 13.5498 18.1086 2.38623
9 1 -1.1104 6.58873 2.77471 3.9434
31 2 2.2208 10.7527 1.37624 5.18152
32 1 -1.1104 12.1641 -2.76341 1.02739
33 1 -1.1104 12.1531 2.70454 0.940424
34 1 -1.1104 12.1605 -2.65755 3.8372
35 1 -1.1104 12.0419 2.7567 3.78907
36 1 -1.1104 12.0968 0.0735812 1.26318
37 2 2.2208 10.7738 -1.36707 2.63454
38 2 2.2208 10.8432 4.18171 2.30442
39 1 -1.1104 12.1029 0.0356834 3.85569
40 1 -1.1104 9.34319 -2.60488 1.21438
41 1 -1.1104 9.34485 2.791 1.25773
42 2 2.2208 8.00442 1.40326 2.51856
43 1 -1.1104 9.39778 -2.75684 3.98037
44 1 -1.1104 9.39646 2.936 3.87942
45 2 2.2208 7.97002 -1.41725 5.38085
46 2 2.2208 7.98712 4.14424 5.30792
47 1 -1.1104 9.29524 0.00542547 1.10205
48 1 -1.1104 9.35772 0.0436134 3.87542
9643 2 2.2208 13.5605 1.44241 2.52076
209 1 -1.1104 9.33149 2.62306 6.64319
206 1 -1.1104 12.1241 2.75285 6.62591
205 1 -1.1104 12.2747 -2.7898 6.63209
9609 2 2.2208 13.5984 -1.40359 5.22992
9016 2 2.2208 2.2616 -4.19206 2.34865
9608 2 2.2208 13.4771 7.05943 2.42499
323 2 2.2208 13.5064 4.1121 5.23411
54 2 2.2208 5.16583 7.13634 5.26288
55 2 2.2208 5.1053 12.6479 5.19316
56 1 -1.1104 0.804739 8.48528 0.938123
58 1 -1.1104 0.931446 8.4762 3.7273
60 1 -1.1104 0.936318 5.66512 0.902433
61 1 -1.1104 0.960384 11.0894 1.16925
66 2 2.2208 5.29168 9.7947 2.34057
67 1 -1.1104 1.02088 5.6838 3.95509
68 1 -1.1104 0.826878 11.1909 3.94403
71 1 -1.1104 3.7292 8.23122 0.917922
72 2 2.2208 2.31858 7.09239 2.4672
73 2 2.2208 2.27441 12.6728 2.42984
74 1 -1.1104 3.87257 8.57841 3.81047
75 2 2.2208 2.36762 9.88577 5.16845
76 1 -1.1104 3.89162 5.58662 0.987008
77 1 -1.1104 3.7146 11.1291 1.09339
79 1 -1.1104 3.78222 5.62798 3.77124
80 1 -1.1104 3.77789 11.4268 3.86011
63 1 -1.1104 6.69405 5.58624 1.01545
59 1 -1.1104 6.67344 8.48411 3.70537
236 1 -1.1104 0.864571 5.56074 6.52384
57 1 -1.1104 6.45599 8.38768 0.950748
69 1 -1.1104 6.59866 5.59399 3.75591
70 1 -1.1104 6.55695 11.1758 3.86225
50 1 -1.1104 11.983 19.5997 12.1423
53 1 -1.1104 12.1404 13.939 9.25584
49 1 -1.1104 12.1849 13.8929 12.1931
112 1 -1.1104 6.681 19.598 6.73169
104 2 2.2208 13.6228 12.5805 2.40946
233 2 2.2208 13.4674 9.83447 5.17522
315 1 -1.1104 9.31084 16.9504 12.1764
64 1 -1.1104 6.51966 11.2012 0.975281
84 2 2.2208 10.7037 6.96713 5.2506
85 2 2.2208 10.7163 12.6612 5.19431
86 1 -1.1104 12.1656 8.47702 1.08023
87 1 -1.1104 12.0994 8.50318 3.81253
88 1 -1.1104 12.1643 5.67199 0.984359
89 1 -1.1104 12.1561 11.2334 0.963252
91 2 2.2208 10.7136 9.89194 2.33507
92 1 -1.1104 12.0896 5.47919 3.86159
93 1 -1.1104 12.099 11.2045 3.71925
94 1 -1.1104 9.20103 8.3897 0.973352
95 2 2.2208 7.90519 6.97399 2.31123
96 2 2.2208 7.83922 12.5706 2.36225
97 1 -1.1104 9.3817 8.37181 3.73134
98 2 2.2208 8.01673 9.8031 5.1933
99 1 -1.1104 9.53682 5.60792 0.898786
100 1 -1.1104 9.39442 11.1195 1.03181
102 1 -1.1104 9.23498 5.55327 3.84666
103 1 -1.1104 9.36572 11.2899 3.74612
90 1 -1.1104 12.0196 11.2552 6.62485
266 1 -1.1104 12.1334 5.41967 6.57257
269 1 -1.1104 9.35436 5.47479 6.76077
230 1 -1.1104 12.2386 16.9519 9.45987
296 1 -1.1104 6.41426 19.4679 12.3707
106 2 2.2208 5.12781 18.2635 5.16643
107 1 -1.1104 0.887537 14.1245 1.13407
109 1 -1.1104 0.746316 19.652 1.13557
113 1 -1.1104 0.959173 14.0557 3.86917
114 1 -1.1104 0.695897 19.5838 3.83628
116 1 -1.1104 0.834979 16.8188 0.993392
119 2 2.2208 5.0497 15.4962 2.39805
120 2 2.2208 5.11116 21.0596 2.42572
121 1 -1.1104 0.787503 16.8077 3.79812
123 1 -1.1104 3.62518 14.0391 1.02021
125 1 -1.1104 3.60262 19.6777 1.09386
127 2 2.2208 2.10759 18.2744 2.32547
128 1 -1.1104 3.60751 14.2102 3.68264
129 1 -1.1104 3.6923 19.7215 3.80588
130 2 2.2208 2.34073 15.4133 5.26512
131 2 2.2208 2.26018 21.0034 5.19801
132 1 -1.1104 3.73869 16.8061 1.05755
134 1 -1.1104 3.5955 17.0675 3.79543
115 1 -1.1104 6.48583 13.9373 3.65304
139 1 -1.1104 6.60989 19.4654 3.78633
110 1 -1.1104 6.54431 14.0949 1.05534
140 1 -1.1104 6.4609 16.8663 1.01787
319 1 -1.1104 9.39825 13.8339 9.36699
108 1 -1.1104 0.934196 13.9431 6.77053
133 1 -1.1104 3.7175 16.7624 6.63487
117 1 -1.1104 0.852246 16.777 6.62868
126 1 -1.1104 3.6961 19.5659 6.71126
352 2 2.2208 7.9286 -1.38046 -0.347557
9017 2 2.2208 5.05477 -4.11067 5.29472
145 1 -1.1104 12.2522 19.5584 6.57007
320 2 2.2208 7.87179 18.1566 8.0093
143 1 -1.1104 12.2614 14.0429 6.57203
138 1 -1.1104 6.35547 19.6388 0.917667
122 1 -1.1104 6.32743 16.7701 3.89363
141 2 2.2208 10.8253 18.2609 5.23234
142 1 -1.1104 12.0713 14.0225 1.06037
144 1 -1.1104 12.1055 19.6504 1.12838
146 1 -1.1104 12.1633 13.8572 3.75845
147 1 -1.1104 12.1985 19.4744 3.81546
148 1 -1.1104 12.0169 16.783 1.21931
150 2 2.2208 10.7234 15.4922 2.52133
151 2 2.2208 10.6316 21.0294 2.45958
152 1 -1.1104 12.109 16.7774 3.97515
153 1 -1.1104 9.38848 13.9556 0.921681
155 1 -1.1104 9.38201 19.5919 0.989698
157 2 2.2208 7.82861 18.1165 2.45298
158 1 -1.1104 9.37399 13.9847 3.86348
159 1 -1.1104 9.44358 19.616 3.91936
160 2 2.2208 7.91486 15.4295 5.19998
161 2 2.2208 7.96734 20.9508 5.22304
162 1 -1.1104 9.09903 16.7903 1.03028
164 1 -1.1104 9.26763 16.8415 3.86243
149 1 -1.1104 12.1631 16.7895 6.65244
318 1 -1.1104 9.18933 19.6139 9.52669
154 1 -1.1104 9.38779 14.0964 6.57692
231 2 2.2208 13.5013 15.3479 5.1944
321 1 -1.1104 9.22769 19.6572 12.3855
322 1 -1.1104 9.35415 14.1345 12.0167
172 1 -1.1104 3.58405 -2.68508 6.66293
167 1 -1.1104 0.938888 2.75895 6.7531
174 1 -1.1104 3.79534 0.0827124 6.86805
173 1 -1.1104 3.72014 2.94394 6.62143
175 2 2.2208 5.11468 1.38511 10.9354
176 1 -1.1104 0.967759 -2.89682 12.2237
177 1 -1.1104 0.827289 2.82847 12.3376
180 1 -1.1104 1.01795 -2.63233 9.44772
181 1 -1.1104 0.969665 2.7918 9.44586
184 1 -1.1104 0.765437 0.0155817 12.2609
186 2 2.2208 5.13895 -1.34294 8.11019
187 2 2.2208 5.29005 4.1989 7.96642
188 1 -1.1104 0.958553 0.0513611 9.61982
190 1 -1.1104 3.91142 -2.75761 12.2759
191 1 -1.1104 3.69215 2.81787 12.3549
192 2 2.2208 2.27622 1.40994 8.15765
193 1 -1.1104 3.76292 -2.86314 9.31278
194 1 -1.1104 3.72182 2.92308 9.45131
195 2 2.2208 2.39445 -1.50151 10.8833
196 2 2.2208 2.31028 4.29317 10.8533
197 1 -1.1104 3.73317 -0.165545 12.3262
198 1 -1.1104 3.80308 -0.0588259 9.68018
179 1 -1.1104 6.50365 2.7079 12.3414
171 1 -1.1104 6.53609 0.0723105 6.70364
178 1 -1.1104 6.5205 -2.77816 12.4136
185 1 -1.1104 6.46017 -0.00040647 12.3013
183 1 -1.1104 6.43367 2.69588 9.44539
182 1 -1.1104 6.62732 -2.5766 9.51442
189 1 -1.1104 6.58216 0.0266981 9.61293
26 2 2.2208 13.7062 18.2016 7.86545
9450 2 2.2208 13.4943 1.43024 8.00684
204 2 2.2208 13.4726 4.28327 10.841
208 1 -1.1104 9.45149 -2.74427 6.7242
207 1 -1.1104 12.1891 -0.0231397 6.82917
339 2 2.2208 5.13956 15.413 13.6046
201 2 2.2208 10.8226 15.4808 7.95483
169 1 -1.1104 6.69997 2.81595 6.70716
210 1 -1.1104 9.30284 -0.0267162 6.60818
211 2 2.2208 10.6144 1.29756 10.8888
212 1 -1.1104 12.0862 -2.89498 12.3041
213 1 -1.1104 12.0318 2.64869 12.2476
214 1 -1.1104 12.2472 -2.83169 9.43489
215 1 -1.1104 12.1595 2.80569 9.41763
216 1 -1.1104 12.1148 -0.271554 12.4639
217 2 2.2208 10.7554 -1.41922 7.95057
218 2 2.2208 10.5884 4.16686 8.07329
219 1 -1.1104 12.1534 0.02667 9.64322
220 1 -1.1104 9.18237 -2.8895 12.412
221 1 -1.1104 9.24403 2.73108 12.2991
222 2 2.2208 8.01015 1.40061 8.10833
223 1 -1.1104 9.38521 -2.86687 9.59988
224 1 -1.1104 9.19275 2.84486 9.47143
225 2 2.2208 7.97626 -1.48692 10.9897
226 2 2.2208 7.88751 4.10845 10.8772
227 1 -1.1104 9.34515 -0.0796197 12.1851
228 1 -1.1104 9.47324 -0.107023 9.49318
9449 2 2.2208 13.4754 -1.34663 10.9922
27 2 2.2208 10.7815 18.256 10.6866
52 2 2.2208 13.4815 9.68614 10.8158
314 1 -1.1104 9.49837 16.6889 9.32199
62 1 -1.1104 0.885635 11.2526 6.57414
239 1 -1.1104 3.64861 5.71645 6.51275
78 1 -1.1104 3.6744 11.1967 6.68726
234 1 -1.1104 0.837191 8.41061 6.63605
65 1 -1.1104 6.39144 11.2124 6.69629
238 1 -1.1104 3.65931 8.41611 6.52822
240 2 2.2208 5.00034 7.0787 10.8264
241 2 2.2208 5.17163 12.6916 10.8541
242 1 -1.1104 0.874338 8.55556 12.1526
244 1 -1.1104 0.932748 8.52244 9.3649
246 1 -1.1104 0.85872 5.81214 12.2219
247 1 -1.1104 0.729953 11.3702 12.3782
250 2 2.2208 5.07321 9.86412 8.01845
251 1 -1.1104 0.803842 5.69253 9.32762
252 1 -1.1104 0.852591 11.2715 9.44157
255 1 -1.1104 3.64505 8.63548 12.1496
256 2 2.2208 2.21058 6.96859 7.85415
257 2 2.2208 2.3052 12.6119 8.0925
258 1 -1.1104 3.67535 8.46181 9.36597
259 2 2.2208 2.27694 9.96127 10.7617
260 1 -1.1104 3.71563 5.60137 12.3054
261 1 -1.1104 3.68257 11.4665 12.2059
262 1 -1.1104 3.5592 5.65179 9.36395
263 1 -1.1104 3.81285 11.3391 9.36112
245 1 -1.1104 6.45153 8.50524 9.39618
248 1 -1.1104 6.33933 5.58591 12.2408
253 1 -1.1104 6.4494 5.68388 9.43508
235 1 -1.1104 6.44665 8.45337 6.63971
249 1 -1.1104 6.44616 11.1963 12.3356
254 1 -1.1104 6.48655 11.2441 9.47893
237 1 -1.1104 6.62438 5.59292 6.6425
163 1 -1.1104 9.26403 16.8984 6.6161
267 1 -1.1104 9.345 8.28851 6.63517
265 1 -1.1104 12.2017 8.44625 6.63112
101 1 -1.1104 9.24209 11.0562 6.72451
229 2 2.2208 10.6556 21.0609 8.04842
243 1 -1.1104 6.53994 8.46436 12.1691
264 1 -1.1104 9.3072 11.1618 9.41606
268 1 -1.1104 9.40357 5.46999 9.56313
270 1 -1.1104 9.10332 11.3522 12.3439
271 1 -1.1104 9.10018 5.55568 12.3502
272 2 2.2208 7.90566 9.88886 10.814
273 1 -1.1104 9.29637 8.52411 9.47238
274 2 2.2208 7.82682 12.5027 8.02352
275 2 2.2208 7.85867 7.12434 8.08317
276 2 2.2208 10.5593 6.97701 10.8585
277 2 2.2208 10.6588 12.6807 10.7088
278 1 -1.1104 11.9853 8.28712 12.2702
279 1 -1.1104 12.1134 8.29183 9.50394
280 1 -1.1104 11.8621 5.49142 12.1891
281 1 -1.1104 12.1621 11.1486 12.1721
282 2 2.2208 10.719 9.75418 8.01422
283 1 -1.1104 12.0845 5.50508 9.45522
284 1 -1.1104 12.1223 11.2611 9.45414
285 1 -1.1104 9.21733 8.56445 12.1867
105 1 -1.1104 12.1456 19.6479 9.31067
317 2 2.2208 7.88014 15.3452 10.9102
203 2 2.2208 13.5118 6.94871 7.94642
199 1 -1.1104 11.9838 16.7877 12.1776
28 2 2.2208 13.6359 21.0724 10.8533
156 1 -1.1104 9.41375 19.622 6.61404
302 1 -1.1104 0.769829 19.761 6.58953
111 1 -1.1104 6.45212 14.0154 6.45312
289 1 -1.1104 6.45648 16.8094 9.58387
124 1 -1.1104 3.65966 13.9623 6.56813
118 1 -1.1104 6.51687 16.7988 6.62416
290 1 -1.1104 6.4929 14.083 9.36399
297 1 -1.1104 6.5186 14.0684 12.3311
286 1 -1.1104 3.6137 19.6817 12.2359
287 1 -1.1104 3.68188 14.1811 12.1485
291 1 -1.1104 0.793337 19.5754 9.33307
292 1 -1.1104 0.838395 16.9833 9.32921
293 2 2.2208 5.02044 21.1549 8.04483
294 1 -1.1104 0.825849 14.2059 9.55626
295 2 2.2208 5.07693 15.4001 8.00111
298 1 -1.1104 0.826529 19.6384 12.3221
299 1 -1.1104 0.862291 13.9985 12.1603
300 2 2.2208 4.98491 18.2168 10.8872
301 1 -1.1104 3.59819 19.7743 9.43804
303 2 2.2208 2.26415 18.362 7.96541
304 1 -1.1104 3.68372 16.8347 9.3155
305 1 -1.1104 3.80353 14.1135 9.48331
307 1 -1.1104 0.909143 16.7358 12.2982
308 1 -1.1104 3.59856 16.8292 12.2911
309 2 2.2208 2.1739 20.9927 10.7174
310 2 2.2208 2.26052 15.4489 10.8428
288 1 -1.1104 6.33224 19.7557 9.67998
306 1 -1.1104 6.47216 16.8728 12.4595
25 2 2.2208 13.4164 15.4615 10.7714
316 2 2.2208 7.73742 20.9451 10.9316
9019 2 2.2208 7.75625 -4.03802 2.51448
344 2 2.2208 2.31851 4.36067 -0.335469
338 2 2.2208 4.97629 21.0777 13.7356
565 2 2.2208 13.4252 18.1062 13.5827
9024 2 2.2208 7.86976 -4.23781 8.11838
331 2 2.2208 2.29087 7.08928 13.647
343 2 2.2208 2.2061 -1.49972 -0.45216
404 2 2.2208 2.36119 1.35767 13.6296
17381 2 2.2208 13.6344 -4.15512 2.36954
357 2 2.2208 5.10348 6.89072 -0.483793
342 2 2.2208 5.12813 1.48924 -0.380065
334 2 2.2208 7.73997 6.98023 13.6409
337 2 2.2208 2.25188 18.286 13.6734
341 2 2.2208 7.78927 18.2868 13.6214
599 2 2.2208 13.3972 21.0134 -0.349312
9742 2 2.2208 13.5256 -1.37974 -0.266402
350 2 2.2208 4.97018 18.1716 -0.311364
362 2 2.2208 10.7174 12.6423 -0.380663
9030 2 2.2208 10.7133 -4.15495 -0.176143
354 2 2.2208 13.4817 12.551 13.5769
657 2 2.2208 5.07211 12.5918 -0.364278
330 2 2.2208 10.6372 3.97983 13.6259
335 2 2.2208 10.6238 9.8313 13.6012
363 2 2.2208 5.1207 1.49304 16.5272
364 1 -1.1104 0.74592 -2.63421 17.9641
365 1 -1.1104 0.88771 2.79879 17.9603
368 1 -1.1104 0.76704 -2.73696 15.0214
370 1 -1.1104 0.880637 2.62901 15.0875
376 1 -1.1104 0.781177 0.0200135 17.7063
378 2 2.2208 4.93508 -1.34339 19.2167
379 2 2.2208 5.03846 4.18656 19.1941
380 1 -1.1104 0.759475 0.103672 14.9158
384 1 -1.1104 3.57341 -2.86327 17.7023
385 1 -1.1104 3.52245 2.86122 17.7555
386 2 2.2208 2.22305 1.45136 19.1937
387 1 -1.1104 3.48674 -2.64804 15.1446
389 1 -1.1104 3.79321 2.84968 15.0446
391 2 2.2208 2.1578 -1.30567 16.4814
392 2 2.2208 2.22518 4.27955 16.3807
393 1 -1.1104 3.59448 0.020137 17.895
394 1 -1.1104 3.53751 0.182212 15.1297
372 1 -1.1104 6.45594 -3.05445 15.1389
382 1 -1.1104 6.4715 -0.0867327 15.0092
367 1 -1.1104 6.41663 2.77232 17.8571
377 1 -1.1104 6.35754 -0.0923378 17.8055
366 1 -1.1104 6.45609 -2.81421 17.9836
373 1 -1.1104 6.45885 -2.6508 20.7091
403 2 2.2208 5.07702 -1.42922 13.7094
369 1 -1.1104 0.784125 -2.68541 20.736
375 1 -1.1104 6.56192 2.86642 20.6365
9290 2 2.2208 7.94809 -4.27516 13.7751
374 1 -1.1104 6.52399 2.6985 15.06
9428 2 2.2208 2.36603 -4.20827 13.6965
625 2 2.2208 13.5086 12.5765 19.1204
600 2 2.2208 13.478 20.9384 22.0187
406 2 2.2208 10.8043 1.31713 16.6042
407 1 -1.1104 12.0589 -2.74863 17.9807
408 1 -1.1104 12.0044 2.67727 18.0063
409 1 -1.1104 12.1114 -3.03777 15.1828
411 1 -1.1104 12.1101 2.65233 15.1956
413 1 -1.1104 12.2573 -0.121903 17.9859
414 2 2.2208 10.7001 -1.45758 19.3992
415 2 2.2208 10.6856 4.05703 19.3905
416 1 -1.1104 12.064 -0.0915183 15.113
418 1 -1.1104 9.2332 -2.89591 17.9796
419 1 -1.1104 9.32792 2.74459 17.9759
420 2 2.2208 7.89903 1.3834 19.4128
421 1 -1.1104 9.24752 -3.04892 15.2284
423 1 -1.1104 9.28346 2.78329 15.1811
425 2 2.2208 7.89 -1.50378 16.5551
426 2 2.2208 7.92078 4.11895 16.543
427 1 -1.1104 9.27095 -0.0713658 17.8891
428 1 -1.1104 9.30479 -0.113588 15.2162
434 2 2.2208 13.4968 -1.4803 16.4427
9169 2 2.2208 2.30139 -4.31044 24.8433
9793 2 2.2208 13.444 4.05162 16.4432
410 1 -1.1104 12.1366 -2.754 20.7787
412 1 -1.1104 12.0505 2.68779 20.7091
9799 2 2.2208 13.5883 1.33346 19.3529
9062 2 2.2208 8.0139 -4.14463 25.0128
9102 2 2.2208 10.7173 -4.26311 22.1617
405 1 -1.1104 11.9989 19.6236 26.2836
432 2 2.2208 13.4029 20.9574 16.4245
439 2 2.2208 5.10865 7.06593 16.4581
440 2 2.2208 4.96289 12.7288 16.5014
441 1 -1.1104 0.767635 8.3593 18.0648
443 1 -1.1104 0.819088 8.49547 15.1482
447 1 -1.1104 0.793927 5.62927 17.7505
448 1 -1.1104 0.732945 11.1849 17.9336
451 2 2.2208 5.01038 9.80351 19.1857
452 1 -1.1104 0.754432 5.57656 14.9982
454 1 -1.1104 0.937032 11.3551 15.1263
460 1 -1.1104 3.64955 8.39159 17.8794
461 2 2.2208 2.25238 6.9724 19.3684
462 2 2.2208 2.17121 12.5518 19.3859
463 1 -1.1104 3.5461 8.57101 15.0327
465 2 2.2208 2.16395 9.92018 16.6083
466 1 -1.1104 3.68078 5.68781 17.8841
467 1 -1.1104 3.55715 11.1667 17.9525
468 1 -1.1104 3.78212 5.74715 15.1037
470 1 -1.1104 3.61087 11.2868 15.2023
442 1 -1.1104 6.4292 8.38072 17.8439
450 1 -1.1104 6.37179 11.3038 17.8545
469 1 -1.1104 3.61961 5.54002 20.6963
445 1 -1.1104 6.41733 8.37648 14.9617
449 1 -1.1104 6.3949 5.80231 17.9266
456 1 -1.1104 6.50986 5.52717 15.1458
457 1 -1.1104 6.50328 5.59981 20.7395
446 1 -1.1104 6.49708 8.34922 20.531
9134 2 2.2208 13.4557 -4.2447 24.9506
458 1 -1.1104 6.36386 11.2571 15.2006
475 2 2.2208 10.6044 7.02602 16.5858
476 2 2.2208 10.6619 12.5922 16.3329
477 1 -1.1104 12.1514 8.33985 17.9559
478 1 -1.1104 11.9319 8.23234 15.1628
480 1 -1.1104 12.084 5.50408 17.7924
481 1 -1.1104 11.9133 11.1025 17.6234
482 2 2.2208 10.6098 9.8684 19.2949
483 1 -1.1104 12.1856 5.37514 14.9218
485 1 -1.1104 12.0777 11.0968 14.917
487 1 -1.1104 9.22637 8.43146 17.8164
488 2 2.2208 7.88181 6.89917 19.2368
489 2 2.2208 7.85047 12.5975 19.1266
490 1 -1.1104 9.18647 8.41128 14.9714
492 2 2.2208 7.9127 9.68875 16.3662
493 1 -1.1104 9.33179 5.65916 17.9389
494 1 -1.1104 9.17307 11.1478 17.7341
495 1 -1.1104 9.38413 5.53861 15.2849
497 1 -1.1104 9.22637 11.1979 15.0721
499 1 -1.1104 9.14017 13.9909 23.4384
484 1 -1.1104 12.141 5.61927 20.6117
479 1 -1.1104 12.0493 8.37259 20.756
498 1 -1.1104 9.1339 11.1981 20.5245
500 1 -1.1104 9.12827 19.6698 23.5047
9429 2 2.2208 13.5142 -4.2419 19.3265
351 2 2.2208 2.2703 20.9949 27.637
502 2 2.2208 5.00706 18.2924 16.4772
503 1 -1.1104 0.877633 14.0182 17.9764
504 1 -1.1104 0.829787 19.7094 17.8617
507 1 -1.1104 0.947932 14.0925 15.137
509 1 -1.1104 0.711509 19.5782 15.0379
515 1 -1.1104 0.831926 16.9033 17.8131
517 2 2.2208 5.03914 15.5732 19.2659
518 2 2.2208 5.17297 21.0659 19.357
519 1 -1.1104 0.749265 16.8547 15.0835
523 1 -1.1104 3.54114 14.087 17.8414
524 1 -1.1104 3.66298 19.6949 17.7475
525 2 2.2208 2.26035 18.3142 19.1355
526 1 -1.1104 3.75565 14.1453 14.9282
528 1 -1.1104 3.63762 19.7144 15.0283
530 2 2.2208 2.25976 15.5551 16.4193
531 2 2.2208 2.19124 21.1935 16.4429
532 1 -1.1104 3.64523 16.8446 17.8094
533 1 -1.1104 3.57577 16.9072 14.9994
506 1 -1.1104 6.5116 19.7495 17.9201
516 1 -1.1104 6.39471 17.0282 17.912
522 1 -1.1104 6.54146 16.9183 20.6191
520 1 -1.1104 0.957606 16.8482 20.5956
512 1 -1.1104 6.44795 14.158 20.6755
435 2 2.2208 13.3872 15.2673 16.4096
511 1 -1.1104 6.24744 14.0054 15.0549
513 1 -1.1104 6.45836 19.7519 15.1451
529 1 -1.1104 3.67206 19.6533 20.4969
9241 2 2.2208 4.96357 -3.99151 21.9553
593 2 2.2208 13.3348 15.3662 22.1264
564 2 2.2208 7.87462 21.0571 22.0705
521 1 -1.1104 6.33852 16.8943 15.0403
505 1 -1.1104 6.41324 14.2116 17.8712
538 2 2.2208 10.5087 18.1999 16.4296
539 1 -1.1104 12.0688 13.8765 17.7974
540 1 -1.1104 12.0174 19.549 18.0424
541 1 -1.1104 12.0256 13.9826 14.9893
543 1 -1.1104 11.941 19.7261 15.1088
545 1 -1.1104 11.8964 16.8119 17.7151
546 2 2.2208 10.5131 15.3337 19.2232
547 2 2.2208 10.7033 21.0541 19.2189
548 1 -1.1104 12.1459 16.8154 14.9407
550 1 -1.1104 9.21692 13.914 17.6478
551 1 -1.1104 9.3054 19.6598 17.9335
552 2 2.2208 7.89134 18.2762 19.2839
553 1 -1.1104 9.10849 14.0289 14.8984
555 1 -1.1104 9.2635 19.5854 15.1455
557 2 2.2208 7.78212 15.4741 16.3534
558 2 2.2208 7.81241 21.1462 16.3983
559 1 -1.1104 9.22 16.7534 17.9028
560 1 -1.1104 9.19002 16.743 15.0126
549 1 -1.1104 11.7849 16.8167 20.5542
561 1 -1.1104 9.18866 16.7554 20.6409
556 1 -1.1104 9.35336 19.5961 20.7689
544 1 -1.1104 12.1456 19.7717 20.6314
542 1 -1.1104 11.9933 13.9417 20.586
661 1 -1.1104 12.0496 19.5879 23.4428
349 2 2.2208 2.17134 15.4368 27.7998
388 1 -1.1104 3.57722 -2.70144 20.5913
383 1 -1.1104 6.36713 0.152391 20.6892
381 1 -1.1104 0.77886 -0.0188543 20.7586
371 1 -1.1104 0.879106 2.76029 20.8147
395 1 -1.1104 3.68253 0.0877558 20.6789
390 1 -1.1104 3.62317 2.81374 20.7589
566 2 2.2208 5.09862 1.44653 22.1425
567 1 -1.1104 0.922966 -2.89174 23.5901
568 1 -1.1104 0.970547 2.79199 23.5647
571 1 -1.1104 0.799743 -2.81665 26.3547
572 1 -1.1104 0.776241 2.845 26.4028
575 1 -1.1104 0.866592 -0.013198 23.5605
577 2 2.2208 4.99473 -1.40243 24.9526
578 2 2.2208 5.05402 4.13567 24.9481
579 1 -1.1104 0.837563 -0.00507354 26.3081
581 1 -1.1104 3.66763 -2.68009 23.4272
582 1 -1.1104 3.68261 2.72188 23.4814
583 2 2.2208 2.20236 1.42429 25.0252
584 1 -1.1104 3.59949 -2.89388 26.3398
585 1 -1.1104 3.75771 2.86347 26.2712
586 2 2.2208 2.25779 -1.27665 22.1938
587 2 2.2208 2.23624 4.08758 22.0885
588 1 -1.1104 3.61819 0.0732309 23.6462
589 1 -1.1104 3.48972 -0.0874037 26.425
574 1 -1.1104 6.44202 2.83047 26.1426
573 1 -1.1104 6.54754 -2.69748 26.4056
569 1 -1.1104 6.37097 -2.64946 23.5102
433 2 2.2208 13.3058 18.104 19.3037
570 1 -1.1104 6.52081 2.78904 23.3162
580 1 -1.1104 6.48877 0.0411605 26.4412
576 1 -1.1104 6.42756 0.0380207 23.4248
9741 2 2.2208 13.5341 1.21692 13.7599
424 1 -1.1104 9.40445 2.72255 20.8417
429 1 -1.1104 9.30699 -0.0405776 20.6528
626 2 2.2208 13.4822 6.98139 19.2773
10000 2 2.2208 13.4825 4.14351 22.0879
9833 2 2.2208 13.4552 -1.4376 22.151
396 2 2.2208 13.4693 9.87471 22.0742
417 1 -1.1104 12.2193 0.0726971 20.7569
422 1 -1.1104 9.3736 -2.87773 20.697
602 2 2.2208 10.7632 1.42604 22.2384
603 1 -1.1104 12.0936 -2.92068 23.5296
604 1 -1.1104 12.0827 2.78907 23.4641
605 1 -1.1104 12.1195 -2.76827 26.2698
606 1 -1.1104 12.0999 2.88517 26.2087
607 1 -1.1104 12.0352 -0.087435 23.5792
608 2 2.2208 10.6545 -1.45758 24.8997
609 2 2.2208 10.6824 4.17795 24.9448
610 1 -1.1104 12.0527 -0.00252816 26.4619
611 1 -1.1104 9.24624 -2.65883 23.4397
612 1 -1.1104 9.25291 2.80576 23.4696
613 2 2.2208 7.91901 1.34968 24.8811
614 1 -1.1104 9.23713 -2.75798 26.398
615 1 -1.1104 9.21386 2.70506 26.4665
616 2 2.2208 7.87771 -1.31857 22.105
618 1 -1.1104 9.25342 0.0580724 23.4191
619 1 -1.1104 9.31328 -0.0507193 26.1609
9798 2 2.2208 13.5632 1.41851 24.9028
397 2 2.2208 13.3062 9.77641 16.4138
464 1 -1.1104 3.66201 8.33486 20.6195
455 1 -1.1104 0.670735 11.1893 20.7566
563 2 2.2208 7.7015 15.4459 22.093
444 1 -1.1104 0.839929 8.30598 20.7018
471 1 -1.1104 3.55642 11.0889 20.6453
453 1 -1.1104 0.818947 5.56027 20.6252
631 2 2.2208 5.10117 6.96238 22.0809
632 2 2.2208 4.99449 12.6274 22.0229
633 1 -1.1104 0.911248 8.45565 23.5145
635 1 -1.1104 0.903812 8.49489 26.2372
637 1 -1.1104 0.95594 5.52998 23.5547
638 1 -1.1104 0.91818 11.1931 23.5372
641 2 2.2208 5.07075 9.82419 24.796
642 1 -1.1104 0.799163 5.72972 26.3212
643 1 -1.1104 0.900367 11.2645 26.4471
646 1 -1.1104 3.68743 8.33109 23.4556
647 2 2.2208 2.28779 7.01103 24.9496
648 2 2.2208 2.32542 12.588 24.7717
649 1 -1.1104 3.83855 8.37596 26.2046
650 2 2.2208 2.28863 9.74934 22.0432
651 1 -1.1104 3.87907 5.52402 23.4341
652 1 -1.1104 3.62343 11.0845 23.337
653 1 -1.1104 3.58537 5.60206 26.0849
654 1 -1.1104 3.72151 11.2628 26.2459
640 1 -1.1104 6.41368 11.1871 23.5053
639 1 -1.1104 6.49881 5.6773 23.5277
590 1 -1.1104 9.29948 16.8969 23.401
496 1 -1.1104 9.23299 5.55472 20.7212
501 2 2.2208 7.70424 18.2395 24.8189
685 2 2.2208 13.4851 7.00882 24.8583
617 2 2.2208 7.93487 4.18086 22.1913
683 2 2.2208 13.5118 12.6562 24.8463
459 1 -1.1104 6.38158 11.1775 20.794
491 1 -1.1104 9.30853 8.28828 20.6602
645 1 -1.1104 6.34955 11.3685 26.3142
486 1 -1.1104 12.1052 11.1726 20.4833
636 1 -1.1104 6.62721 8.66477 26.272
634 1 -1.1104 6.25448 8.39299 23.4068
644 1 -1.1104 6.5065 5.59798 26.2086
662 1 -1.1104 9.29965 11.2196 26.2597
663 1 -1.1104 9.3442 5.58567 26.3254
664 1 -1.1104 9.39385 11.2423 23.5169
665 1 -1.1104 9.25987 5.61807 23.4256
666 2 2.2208 7.74869 9.74918 22.0146
667 1 -1.1104 9.38784 8.46392 26.0765
668 2 2.2208 7.91166 12.6029 24.7695
669 2 2.2208 7.88714 7.1155 24.8255
670 2 2.2208 10.6823 6.9679 22.037
671 2 2.2208 10.6897 12.5518 21.9596
672 1 -1.1104 12.1686 8.49701 23.4414
673 1 -1.1104 12.2446 8.33513 26.2148
674 1 -1.1104 12.2369 5.54931 23.6034
675 1 -1.1104 12.0642 11.1523 23.4518
676 2 2.2208 10.6824 9.8974 24.7958
677 1 -1.1104 12.1438 5.67505 26.2235
678 1 -1.1104 12.1079 11.3003 26.2969
679 1 -1.1104 9.10542 8.3622 23.4525
630 1 -1.1104 12.002 13.9337 23.4004
510 1 -1.1104 0.91893 19.6343 20.6224
508 1 -1.1104 0.947153 14.0931 20.7896
527 1 -1.1104 3.61858 14.0863 20.5333
534 1 -1.1104 3.65507 16.9757 20.5202
695 2 2.2208 5.07227 15.4092 24.9465
620 2 2.2208 2.19591 15.5048 22.0216
621 2 2.2208 2.29291 21.0302 22.0284
622 1 -1.1104 3.57132 16.8138 23.3316
624 1 -1.1104 0.899395 16.7944 23.5474
628 1 -1.1104 3.69671 14.0658 26.3059
655 1 -1.1104 3.68673 16.917 26.1415
656 2 2.2208 2.23248 18.2241 24.921
658 1 -1.1104 3.54619 19.6978 26.2033
680 2 2.2208 5.00373 18.291 21.9111
681 1 -1.1104 0.990119 14.0166 23.4999
682 1 -1.1104 0.92478 19.6835 23.3566
686 1 -1.1104 3.68769 19.5818 23.3941
688 1 -1.1104 3.7079 14.0295 23.6188
690 1 -1.1104 0.879052 19.6285 26.36
691 1 -1.1104 0.770318 16.8431 26.3157
692 1 -1.1104 0.846963 13.9582 26.3359
694 2 2.2208 5.02487 20.9755 24.7896
693 1 -1.1104 6.40047 19.7788 23.4396
535 1 -1.1104 6.21783 19.5505 26.1992
687 1 -1.1104 6.56528 14.0139 26.2581
689 1 -1.1104 6.56732 16.7115 26.3667
438 1 -1.1104 12.0916 16.8954 23.4369
554 1 -1.1104 9.12638 13.9777 20.4501
472 2 2.2208 10.5961 15.3986 24.8489
536 1 -1.1104 9.35663 14.1002 26.2076
537 1 -1.1104 9.04925 19.5295 26.2742
591 1 -1.1104 9.25009 16.7615 26.2008
401 1 -1.1104 12.0664 14.1583 26.2073
474 1 -1.1104 11.9742 16.8138 26.3886
594 2 2.2208 13.3821 18.2639 24.9408
473 2 2.2208 10.677 21.0396 24.8274
629 2 2.2208 10.6449 18.2442 22.0248
627 1 -1.1104 6.29891 17.0675 23.5484
514 1 -1.1104 6.52334 19.6618 20.5768
696 1 -1.1104 6.4854 14.0631 23.4462
358 2 2.2208 2.33979 9.83667 27.7309
346 2 2.2208 13.4805 15.365 27.719
9427 2 2.2208 2.19136 -4.09325 19.276
348 2 2.2208 10.681 1.32774 27.9234
562 2 2.2208 10.7034 20.9991 13.5678
353 2 2.2208 8.05865 4.23248 27.67
333 2 2.2208 2.18146 12.8286 13.6924
437 2 2.2208 10.6904 -1.62071 13.8109
436 2 2.2208 7.81992 1.20675 13.6941
360 2 2.2208 10.8442 7.0506 27.679
332 2 2.2208 4.96736 10.0099 13.6465
684 2 2.2208 13.4085 9.76948 27.5932
355 2 2.2208 10.4886 18.1127 27.6889
601 2 2.2208 7.90158 15.4235 27.6561
329 2 2.2208 5.20337 4.14245 13.6704
9738 2 2.2208 13.6088 4.19242 27.4194
326 2 2.2208 13.3858 6.90735 13.6319
356 2 2.2208 7.90823 20.9893 27.6456
336 2 2.2208 7.64805 12.5966 13.7301
361 2 2.2208 7.94131 9.88009 27.6627
697 2 2.2208 5.14732 23.7461 5.23528
698 2 2.2208 5.17603 29.4412 5.0544
699 1 -1.1104 0.817053 25.1602 1.06655
700 1 -1.1104 0.777442 25.2635 3.87752
701 1 -1.1104 1.02205 22.251 1.10081
702 1 -1.1104 0.877354 27.922 0.948023
703 2 2.2208 4.89004 26.6141 2.30604
704 1 -1.1104 0.693912 22.4602 3.88394
705 1 -1.1104 0.986568 28.1627 3.80795
706 1 -1.1104 3.83906 25.1411 0.833821
707 2 2.2208 2.26437 23.7822 2.46002
708 2 2.2208 2.43025 29.3635 2.36388
709 1 -1.1104 3.57853 25.2215 3.77258
710 2 2.2208 2.27438 26.6736 5.20006
711 1 -1.1104 3.80684 22.3635 0.936324
712 1 -1.1104 3.71654 27.9414 0.988801
713 1 -1.1104 3.47577 22.4355 3.85602
714 1 -1.1104 3.85295 27.9983 3.73648
845 1 -1.1104 3.68454 22.4039 6.73324
719 1 -1.1104 6.33402 25.2143 3.75859
1181 2 2.2208 7.95898 34.8317 13.6725
838 1 -1.1104 0.777831 25.2889 6.47158
842 1 -1.1104 6.55147 22.4518 6.66688
718 1 -1.1104 6.50409 25.2604 0.954363
723 1 -1.1104 6.49956 28.0419 3.57507
1025 2 2.2208 13.4926 32.2131 10.759
1017 2 2.2208 13.561 26.6191 10.7926
844 1 -1.1104 3.62698 25.1152 6.62727
843 1 -1.1104 6.47328 28.0963 6.48068
720 1 -1.1104 6.53337 22.4804 1.04549
721 1 -1.1104 6.53249 28.1001 0.836789
722 1 -1.1104 6.33788 22.4116 3.79202
724 2 2.2208 10.6616 23.8512 5.24749
725 2 2.2208 10.7934 29.3831 5.21841
726 1 -1.1104 12.1528 25.1673 0.915479
727 1 -1.1104 11.9808 25.0722 3.83482
728 1 -1.1104 12.0981 22.332 1.14916
729 1 -1.1104 11.8667 27.9636 1.08967
730 2 2.2208 10.5802 26.6351 2.37789
731 1 -1.1104 12.0121 22.3451 3.834
732 1 -1.1104 12.0341 27.8036 3.8504
733 1 -1.1104 9.21377 25.2016 1.01267
734 2 2.2208 7.90387 23.9077 2.42682
735 2 2.2208 7.90702 29.4696 2.48006
736 1 -1.1104 9.15484 25.2304 3.82632
737 2 2.2208 7.83542 26.8064 5.14465
738 1 -1.1104 9.38546 22.3777 0.990638
739 1 -1.1104 9.28506 27.9429 0.929728
740 1 -1.1104 9.21965 22.5289 3.83901
741 1 -1.1104 9.23033 28.061 3.8499
873 1 -1.1104 12.0445 28.0112 6.57609
836 2 2.2208 13.6722 46.1961 2.47479
875 1 -1.1104 9.33458 22.4964 6.68716
1031 2 2.2208 -0.336338 43.2859 13.6517
1623 1 -1.1104 6.59898 47.6601 9.48566
745 2 2.2208 5.15648 35.0856 5.30159
746 1 -1.1104 0.965705 30.7561 1.03199
747 1 -1.1104 1.16699 36.3925 1.00015
749 1 -1.1104 0.861713 30.8593 3.97587
750 1 -1.1104 0.94184 36.4395 3.76196
752 1 -1.1104 1.15455 33.5549 0.893624
753 2 2.2208 5.22144 32.2063 2.34281
754 2 2.2208 5.26094 37.734 2.39805
755 1 -1.1104 0.95002 33.5873 3.69209
757 1 -1.1104 3.8843 30.6863 1.05244
758 1 -1.1104 3.83878 36.3591 1.18003
759 2 2.2208 2.4056 35.0206 2.41252
760 1 -1.1104 3.66492 30.8798 3.7579
761 1 -1.1104 3.82613 36.3918 3.95275
762 2 2.2208 2.50227 32.1707 5.23142
763 2 2.2208 2.31031 37.7664 5.22239
764 1 -1.1104 3.89409 33.6064 0.944192
765 1 -1.1104 3.78269 33.606 3.91597
770 1 -1.1104 6.58334 30.7866 3.83683
771 1 -1.1104 6.59611 33.3875 1.10193
769 1 -1.1104 6.51157 30.7051 1.00051
756 1 -1.1104 6.65447 33.5979 3.80686
900 1 -1.1104 6.52806 33.6872 6.70113
751 1 -1.1104 6.72434 36.3768 3.95132
897 1 -1.1104 6.4858 30.8184 6.50967
903 1 -1.1104 3.71148 33.6172 6.837
896 1 -1.1104 0.900466 36.4664 6.683
899 1 -1.1104 0.945858 33.575 6.56729
898 1 -1.1104 6.65612 36.3086 6.72306
1023 2 2.2208 13.6153 34.8688 7.87089
1620 1 -1.1104 6.64579 47.8135 12.2908
1015 2 2.2208 13.7264 32.1849 5.17829
748 1 -1.1104 6.64497 36.2627 0.890833
772 2 2.2208 10.8393 34.849 5.19791
773 1 -1.1104 12.2245 30.7061 0.969618
774 1 -1.1104 12.0908 36.299 0.846872
775 1 -1.1104 12.2651 30.6605 3.85647
776 1 -1.1104 12.2302 36.3784 3.76213
777 1 -1.1104 12.4124 33.5753 0.894975
778 2 2.2208 10.8722 32.2907 2.3817
779 2 2.2208 10.8425 37.7389 2.42541