ITEM: TIMESTEP
50000
ITEM: NUMBER OF ATOMS
17730
ITEM: BOX BOUNDS pp pp pp
-3.5662159828565837e-01 2.7696621598285610e+01
-4.2319915367015772e+00 3.3231199153669752e+02
-3.5123333564184062e-01 2.7691233335642085e+01
ITEM: ATOMS id type q x y z
1 2 2.2208 5.05897 1.2836 5.13255
2 1 -1.1104 0.820728 -2.8451 1.2518
3 1 -1.1104 1.0082 2.8114 0.961499
6 1 -1.1104 0.84874 -2.87598 3.88744
7 1 -1.1104 0.824427 2.70104 3.84837
10 1 -1.1104 0.988832 -0.0150139 1.02807
12 2 2.2208 5.08321 -1.48456 2.28308
13 2 2.2208 5.04888 4.19699 2.47497
14 1 -1.1104 0.797417 -0.0597894 3.71075
16 1 -1.1104 3.75859 -2.81278 0.839601
17 1 -1.1104 3.76536 2.79912 1.07431
18 2 2.2208 2.33302 1.3207 2.42203
19 1 -1.1104 3.65878 -2.90988 3.6855
20 1 -1.1104 3.67291 2.75961 3.80831
21 2 2.2208 2.32475 -1.405 5.14525
22 2 2.2208 2.27044 4.08621 5.20931
23 1 -1.1104 3.75335 0.0047172 0.968612
24 1 -1.1104 3.63094 -0.0890485 3.74857
170 1 -1.1104 0.850563 0.0935871 6.59926
9 1 -1.1104 6.45762 2.58045 3.81886
8 1 -1.1104 6.61071 -2.89256 3.86733
167 1 -1.1104 0.821612 2.81675 6.56966
11 1 -1.1104 6.48014 0.159783 1.13149
15 1 -1.1104 6.41787 -0.1934 3.87707
9022 2 2.2208 4.99628 -4.26915 10.8101
9643 2 2.2208 13.6122 1.36717 2.38102
9020 2 2.2208 10.8066 -4.2193 5.18776
174 1 -1.1104 3.69172 -0.063208 6.64389
169 1 -1.1104 6.51964 2.84845 6.54622
5 1 -1.1104 6.52948 2.8634 1.0874
9024 2 2.2208 7.82108 -4.27215 8.04923
165 2 2.2208 13.4826 18.1744 2.37635
4 1 -1.1104 6.52775 -2.8369 1.1388
31 2 2.2208 10.7852 1.48471 5.21176
32 1 -1.1104 12.2055 -2.74719 1.16588
33 1 -1.1104 12.3619 2.82315 0.951149
34 1 -1.1104 12.1385 -2.73063 4.02306
35 1 -1.1104 12.2099 2.86299 3.86011
36 1 -1.1104 11.9646 0.0583763 1.00041
37 2 2.2208 10.7011 -1.42364 2.44685
38 2 2.2208 10.7854 4.17706 2.46002
39 1 -1.1104 12.3321 0.100789 3.79034
40 1 -1.1104 9.43783 -2.84161 0.952612
41 1 -1.1104 9.40203 2.7709 1.03945
42 2 2.2208 7.97004 1.43313 2.45842
43 1 -1.1104 9.25116 -2.87716 3.89413
44 1 -1.1104 9.35818 2.93506 3.79808
45 2 2.2208 7.91427 -1.53051 5.26034
46 2 2.2208 7.94723 4.17297 5.14268
47 1 -1.1104 9.33426 -0.0947691 1.10357
48 1 -1.1104 9.39642 0.0391143 3.78276
9609 2 2.2208 13.4981 -1.46319 5.31037
323 2 2.2208 13.6268 4.15921 5.24859
316 2 2.2208 7.95998 21.0105 10.8377
345 2 2.2208 -0.462833 9.66611 13.6321
27 2 2.2208 10.7217 18.0685 10.9009
314 1 -1.1104 9.45612 16.6131 9.40033
209 1 -1.1104 9.37523 2.75579 6.56543
208 1 -1.1104 9.32492 -2.92182 6.78744
206 1 -1.1104 12.2029 2.86985 6.67233
210 1 -1.1104 9.39965 -0.152136 6.57897
351 2 2.2208 2.3084 20.9454 -0.257565
54 2 2.2208 5.12691 6.95419 5.29521
55 2 2.2208 5.24983 12.5997 5.33357
56 1 -1.1104 0.874765 8.28898 1.14567
58 1 -1.1104 0.764459 8.29322 3.74582
60 1 -1.1104 0.831708 5.53628 0.953701
61 1 -1.1104 0.940851 11.1112 1.0619
66 2 2.2208 5.19729 9.78198 2.4111
67 1 -1.1104 0.900758 5.45959 3.83072
68 1 -1.1104 0.909812 11.1266 3.78349
71 1 -1.1104 3.80684 8.45507 1.09569
72 2 2.2208 2.22577 7.00452 2.42201
73 2 2.2208 2.33167 12.4982 2.31467
74 1 -1.1104 3.64075 8.41206 3.93041
75 2 2.2208 2.38702 9.9118 5.1376
76 1 -1.1104 3.7344 5.75932 0.893831
77 1 -1.1104 3.83081 11.1167 0.983285
79 1 -1.1104 3.7578 5.65435 3.80816
80 1 -1.1104 3.78657 11.153 3.70432
57 1 -1.1104 6.64784 8.38001 0.981273
59 1 -1.1104 6.52431 8.43488 3.71916
69 1 -1.1104 6.54766 5.51447 3.92871
63 1 -1.1104 6.48434 5.59343 1.0736
30 2 2.2208 -0.519156 9.84389 8.19073
49 1 -1.1104 12.1561 13.8268 12.1254
239 1 -1.1104 3.78569 5.6625 6.69588
237 1 -1.1104 6.52517 5.53007 6.72659
9450 2 2.2208 13.4829 1.29933 8.15636
64 1 -1.1104 6.65288 11.2586 0.972149
70 1 -1.1104 6.68311 11.3213 4.02972
84 2 2.2208 10.63 6.875 5.23476
85 2 2.2208 10.7317 12.4486 5.17179
86 1 -1.1104 12.2209 8.33301 1.04555
87 1 -1.1104 12.15 8.17067 3.75752
88 1 -1.1104 12.0438 5.4757 0.987213
89 1 -1.1104 12.3132 11.2806 1.01384
91 2 2.2208 10.8428 9.77417 2.40683
92 1 -1.1104 12.1157 5.40996 3.86174
93 1 -1.1104 12.2633 11.0071 3.81324
94 1 -1.1104 9.5289 8.3231 1.00081
95 2 2.2208 7.91851 6.94276 2.43256
96 2 2.2208 8.01033 12.663 2.46635
97 1 -1.1104 9.18987 8.56719 3.73491
98 2 2.2208 7.9793 9.81607 5.27877
99 1 -1.1104 9.27369 5.455 1.20401
100 1 -1.1104 9.39647 11.1378 0.994767
102 1 -1.1104 9.20159 5.81307 3.92105
103 1 -1.1104 9.33232 11.2567 3.7249
319 1 -1.1104 9.38353 13.8419 9.49241
232 2 2.2208 13.6659 20.9182 5.32126
265 1 -1.1104 12.2332 8.26848 6.63946
266 1 -1.1104 12.1496 5.6239 6.56518
267 1 -1.1104 9.37944 8.27914 6.60529
90 1 -1.1104 12.1613 11.043 6.76859
231 2 2.2208 13.5107 15.3241 5.16762
149 1 -1.1104 12.1437 16.6469 6.73822
106 2 2.2208 5.13553 18.176 5.11744
107 1 -1.1104 0.920346 14.0732 1.013
109 1 -1.1104 0.971332 19.5843 1.19459
113 1 -1.1104 1.06273 13.923 3.76156
114 1 -1.1104 1.03344 19.5159 3.81458
116 1 -1.1104 1.01666 16.7544 1.00218
119 2 2.2208 5.1745 15.3001 2.37405
120 2 2.2208 5.32732 20.8493 2.31711
121 1 -1.1104 0.936001 16.7211 3.80644
123 1 -1.1104 3.76785 13.9254 0.856082
125 1 -1.1104 3.7624 19.4982 1.04928
127 2 2.2208 2.40011 18.2181 2.38106
128 1 -1.1104 3.71572 13.8406 3.71133
129 1 -1.1104 3.86297 19.5688 3.72415
130 2 2.2208 2.40251 15.3031 5.14003
131 2 2.2208 2.29373 21.0041 5.18438
132 1 -1.1104 3.83066 16.6502 1.07517
134 1 -1.1104 3.85018 16.7806 3.88339
138 1 -1.1104 6.7672 19.6093 0.961715
115 1 -1.1104 6.55066 13.9935 3.92027
139 1 -1.1104 6.64685 19.5374 3.76936
229 2 2.2208 10.6857 20.949 7.97575
118 1 -1.1104 6.54456 16.708 6.52341
124 1 -1.1104 3.75945 13.9102 6.75626
302 1 -1.1104 1.03521 19.6175 6.68563
133 1 -1.1104 3.69643 16.6444 6.54363
599 2 2.2208 13.7086 20.9106 -0.320099
29 2 2.2208 -0.425874 6.91598 10.9458
110 1 -1.1104 6.56021 14.0064 1.01138
122 1 -1.1104 6.58105 16.6452 3.73522
322 1 -1.1104 9.39464 13.8976 12.2182
356 2 2.2208 8.02391 20.9215 -0.383032
140 1 -1.1104 6.70119 16.7119 0.995207
141 2 2.2208 10.832 18.2061 5.23412
142 1 -1.1104 12.1441 13.9397 0.990638
144 1 -1.1104 12.2271 19.5288 0.949172
146 1 -1.1104 12.0907 13.9133 3.71448
147 1 -1.1104 12.1171 19.7171 3.65256
148 1 -1.1104 12.2426 16.632 0.926828
150 2 2.2208 10.6944 15.2925 2.44619
151 2 2.2208 10.8244 20.9884 2.36954
152 1 -1.1104 12.1359 16.7289 3.84256
153 1 -1.1104 9.45012 13.9465 0.894054
155 1 -1.1104 9.53708 19.4914 0.980289
157 2 2.2208 8.07584 18.034 2.30769
158 1 -1.1104 9.38096 13.932 3.70274
159 1 -1.1104 9.52928 19.5375 3.76708
160 2 2.2208 7.9837 15.299 5.38516
161 2 2.2208 8.06751 21.0066 5.09403
162 1 -1.1104 9.51881 16.6965 1.06143
164 1 -1.1104 9.32462 16.6508 3.87014
9608 2 2.2208 13.6687 6.91702 2.40452
53 1 -1.1104 12.1314 13.629 9.29154
154 1 -1.1104 9.34943 13.894 6.65558
163 1 -1.1104 9.31558 16.7121 6.65517
306 1 -1.1104 6.46492 16.8686 12.1735
321 1 -1.1104 9.36125 19.6821 12.2325
166 1 -1.1104 1.01481 -2.7912 6.59511
172 1 -1.1104 3.833 -2.89448 6.50306
171 1 -1.1104 6.48943 0.0855465 6.63962
335 2 2.2208 10.823 9.74884 13.7237
173 1 -1.1104 3.75834 2.82505 6.49791
175 2 2.2208 5.03814 1.37436 10.8138
176 1 -1.1104 0.810571 -2.66051 12.2474
177 1 -1.1104 0.805673 2.90983 12.1793
180 1 -1.1104 0.819882 -2.86378 9.44279
181 1 -1.1104 0.803774 2.7698 9.39234
184 1 -1.1104 0.878998 0.0916265 12.2878
186 2 2.2208 5.0958 -1.43116 8.13862
187 2 2.2208 5.1064 4.10342 8.0728
188 1 -1.1104 0.863025 -0.0615651 9.60458
190 1 -1.1104 3.65846 -2.73269 12.2327
191 1 -1.1104 3.70992 2.69786 12.2312
192 2 2.2208 2.14555 1.38876 8.11826
193 1 -1.1104 3.60264 -2.75493 9.38172
194 1 -1.1104 3.72436 2.84494 9.4795
195 2 2.2208 2.21021 -1.43376 10.873
196 2 2.2208 2.37324 4.25516 10.8573
197 1 -1.1104 3.63664 -0.0570689 12.152
198 1 -1.1104 3.61191 0.0239024 9.49569
182 1 -1.1104 6.39047 -2.97401 9.49106
168 1 -1.1104 6.44473 -2.67562 6.70813
183 1 -1.1104 6.47682 2.53964 9.37453
135 2 2.2208 -0.466344 15.4381 2.36291
329 2 2.2208 5.10306 4.21239 13.7364
9736 2 2.2208 -0.555048 1.37015 5.18405
185 1 -1.1104 6.36655 -0.0848313 12.3893
179 1 -1.1104 6.44896 2.69205 12.2004
178 1 -1.1104 6.59579 -2.82686 12.3323
207 1 -1.1104 12.1377 0.0466794 6.51613
233 2 2.2208 13.6039 9.5634 5.16774
9449 2 2.2208 13.5706 -1.36199 10.9492
334 2 2.2208 8.03192 6.96945 13.6952
189 1 -1.1104 6.52257 -0.166885 9.57565
205 1 -1.1104 12.1058 -2.83022 6.71541
211 2 2.2208 10.6065 1.34845 10.8681
212 1 -1.1104 12.1242 -2.76551 12.3289
213 1 -1.1104 12.09 2.83234 12.2555
214 1 -1.1104 12.111 -2.828 9.45532
215 1 -1.1104 11.9617 2.82562 9.47333
216 1 -1.1104 12.1354 0.131878 12.2296
217 2 2.2208 10.6903 -1.36626 7.96216
218 2 2.2208 10.672 4.18841 7.98583
219 1 -1.1104 12.0417 -0.0217623 9.32362
220 1 -1.1104 9.3452 -2.77957 12.1524
221 1 -1.1104 9.27988 2.91138 12.1702
222 2 2.2208 7.98784 1.31836 7.86509
223 1 -1.1104 9.35043 -2.83349 9.34257
224 1 -1.1104 9.19277 2.59669 9.43035
225 2 2.2208 7.86581 -1.4137 10.798
226 2 2.2208 7.85766 4.08461 10.7227
227 1 -1.1104 9.23437 -0.0429797 12.1834
228 1 -1.1104 9.37299 -0.179218 9.46573
9475 2 2.2208 -0.514993 1.4432 10.9346
339 2 2.2208 5.10309 15.3813 13.6113
320 2 2.2208 8.01672 18.0806 7.98768
111 1 -1.1104 6.63872 13.8864 6.82311
331 2 2.2208 2.34449 7.07046 13.6716
234 1 -1.1104 1.05061 8.40664 6.54755
156 1 -1.1104 9.24585 19.5787 6.48333
236 1 -1.1104 0.846191 5.58651 6.65772
62 1 -1.1104 0.951256 11.1123 6.65219
235 1 -1.1104 6.71005 8.4561 6.63614
78 1 -1.1104 3.79114 11.2154 6.59774
238 1 -1.1104 3.92332 8.44272 6.61443
240 2 2.2208 5.11948 6.93926 10.8302
241 2 2.2208 5.15208 12.518 10.8384
242 1 -1.1104 0.950476 8.33298 12.1982
244 1 -1.1104 0.958046 8.30153 9.3446
246 1 -1.1104 1.10464 5.77967 12.3144
247 1 -1.1104 0.891126 11.2024 12.2178
250 2 2.2208 5.06963 9.85414 8.00569
251 1 -1.1104 0.96903 5.48373 9.53323
252 1 -1.1104 0.75999 11.3027 9.49274
255 1 -1.1104 3.817 8.35962 12.34
256 2 2.2208 2.27264 7.03357 7.93788
257 2 2.2208 2.32547 12.5522 7.97724
258 1 -1.1104 3.71212 8.42953 9.55169
259 2 2.2208 2.24413 9.77644 10.7294
260 1 -1.1104 3.75398 5.59461 12.2313
261 1 -1.1104 3.79122 11.1863 12.1828
262 1 -1.1104 3.85047 5.63666 9.40632
263 1 -1.1104 3.56213 11.204 9.44651
249 1 -1.1104 6.54825 11.2112 12.2808
245 1 -1.1104 6.59341 8.3025 9.49449
253 1 -1.1104 6.5795 5.48484 9.55265
254 1 -1.1104 6.50091 11.1694 9.54813
243 1 -1.1104 6.59978 8.42239 12.2703
101 1 -1.1104 9.34014 11.1019 6.6854
65 1 -1.1104 6.56126 11.1898 6.80307
248 1 -1.1104 6.51921 5.59854 12.31
269 1 -1.1104 9.29043 5.42324 6.73619
264 1 -1.1104 9.22767 10.942 9.38223
268 1 -1.1104 9.45768 5.47758 9.43555
270 1 -1.1104 9.46816 11.1791 12.3443
271 1 -1.1104 9.36975 5.67898 12.3264
272 2 2.2208 7.9382 9.68521 10.9171
273 1 -1.1104 9.36546 8.22889 9.52269
274 2 2.2208 8.10566 12.5667 8.17197
275 2 2.2208 7.86941 6.93758 7.99829
276 2 2.2208 10.7484 6.93902 10.8589
277 2 2.2208 10.8757 12.3608 10.8378
278 1 -1.1104 12.2092 8.31502 12.3702
279 1 -1.1104 12.2306 8.28209 9.55665
280 1 -1.1104 12.0838 5.52075 12.1076
281 1 -1.1104 12.2228 11.037 12.2155
282 2 2.2208 10.7363 9.70038 8.0641
283 1 -1.1104 12.2508 5.61205 9.42912
284 1 -1.1104 12.2963 11.0864 9.50251
285 1 -1.1104 9.35194 8.53138 12.2592
330 2 2.2208 10.7038 4.17622 13.5539
404 2 2.2208 2.31695 1.33287 13.6992
112 1 -1.1104 6.45624 19.5504 6.54074
290 1 -1.1104 6.56527 13.8798 9.49296
108 1 -1.1104 0.971585 13.9591 6.5956
126 1 -1.1104 3.72862 19.4946 6.60506
105 1 -1.1104 12.125 19.5642 9.49724
117 1 -1.1104 0.967386 16.6977 6.53126
286 1 -1.1104 3.70842 19.6019 12.2335
287 1 -1.1104 3.72067 14.1144 12.2925
291 1 -1.1104 0.871984 19.5581 9.35005
292 1 -1.1104 0.964822 16.9613 9.49031
293 2 2.2208 5.18353 20.9805 8.02641
294 1 -1.1104 0.903764 14.1356 9.43647
295 2 2.2208 5.04726 15.3734 8.00262
298 1 -1.1104 0.826481 19.5971 12.2189
299 1 -1.1104 0.887553 13.9909 12.2054
300 2 2.2208 5.19292 18.23 10.8574
301 1 -1.1104 3.91488 19.691 9.40601
303 2 2.2208 2.37623 18.2686 8.04035
304 1 -1.1104 3.6215 16.8537 9.45058
305 1 -1.1104 3.71055 13.9795 9.58723
307 1 -1.1104 0.791022 16.7688 12.2579
308 1 -1.1104 3.62016 16.8223 12.2221
309 2 2.2208 2.44564 20.9989 10.8472
310 2 2.2208 2.25714 15.3672 10.8789
230 1 -1.1104 12.2485 16.5028 9.61818
296 1 -1.1104 6.62075 19.7598 12.296
288 1 -1.1104 6.64095 19.4638 9.42064
289 1 -1.1104 6.67433 16.7372 9.46672
318 1 -1.1104 9.35765 19.5229 9.37166
201 2 2.2208 10.8673 15.2208 8.02634
297 1 -1.1104 6.46666 14.0252 12.2804
143 1 -1.1104 12.0112 13.9708 6.4628
317 2 2.2208 7.88769 15.3607 10.7573
50 1 -1.1104 12.0503 19.6824 12.2976
315 1 -1.1104 9.31657 16.7628 12.2337
199 1 -1.1104 12.2354 16.7699 12.4037
145 1 -1.1104 12.1429 19.5419 6.54876
354 2 2.2208 13.6612 12.4352 13.606
312 2 2.2208 -0.512079 18.2826 10.9216
684 2 2.2208 13.6202 9.77087 -0.401325
333 2 2.2208 2.3613 12.5936 13.6637
9741 2 2.2208 13.5497 1.47398 13.5911
9030 2 2.2208 10.697 -4.27042 -0.434796
9738 2 2.2208 13.5391 4.19425 -0.401987
436 2 2.2208 7.83162 1.39957 13.6043
437 2 2.2208 10.643 -1.41972 13.7447
332 2 2.2208 5.16257 9.76005 13.6672
562 2 2.2208 10.701 21.0835 13.6622
341 2 2.2208 7.89392 18.1722 13.7314
360 2 2.2208 10.7997 7.05375 -0.33675
357 2 2.2208 5.29857 7.00344 -0.395277
348 2 2.2208 10.7812 1.28864 -0.32266
352 2 2.2208 7.90246 -1.44962 -0.37112
350 2 2.2208 5.28691 18.1599 -0.322552
363 2 2.2208 5.17501 1.32171 16.5469
364 1 -1.1104 0.830452 -2.87834 17.9327
365 1 -1.1104 1.00252 2.6528 17.6744
368 1 -1.1104 0.960165 -2.8424 14.9543
370 1 -1.1104 0.895072 2.67858 14.8466
376 1 -1.1104 0.886202 -0.059589 17.8864
378 2 2.2208 5.09179 -1.49579 19.3447
379 2 2.2208 5.04403 4.16295 19.3589
380 1 -1.1104 0.827636 -0.120647 15.1147
384 1 -1.1104 3.78279 -2.88607 17.7422
385 1 -1.1104 3.6445 2.84997 17.9289
386 2 2.2208 2.27419 1.40009 19.2521
387 1 -1.1104 3.67799 -2.84577 15.0251
389 1 -1.1104 3.71988 2.78007 15.1509
391 2 2.2208 2.35378 -1.4719 16.4632
392 2 2.2208 2.34297 4.1312 16.4591
393 1 -1.1104 3.68013 0.0186311 17.8319
394 1 -1.1104 3.68521 0.0571659 15.156
625 2 2.2208 13.5654 12.4865 19.1775
626 2 2.2208 13.51 6.92054 19.2351
397 2 2.2208 13.5153 9.72034 16.3364
377 1 -1.1104 6.37803 -0.19526 17.9194
369 1 -1.1104 0.865133 -2.9649 20.6937
381 1 -1.1104 0.842576 -0.132721 20.696
371 1 -1.1104 0.902068 2.77342 20.6083
390 1 -1.1104 3.71723 2.74524 20.6996
373 1 -1.1104 6.38541 -2.92172 20.6705
374 1 -1.1104 6.46666 2.82556 15.166
382 1 -1.1104 6.35028 -0.21474 15.1861
367 1 -1.1104 6.37928 2.60979 18.0326
372 1 -1.1104 6.5465 -2.94512 15.1303
366 1 -1.1104 6.53699 -3.01019 17.906
406 2 2.2208 10.5815 1.27564 16.384
407 1 -1.1104 12.0556 -2.95194 17.8368
408 1 -1.1104 12.0623 2.62485 17.7824
409 1 -1.1104 12.1552 -2.89442 14.9753
411 1 -1.1104 12.0848 2.71072 14.8926
413 1 -1.1104 12.0825 -0.203018 17.8931
414 2 2.2208 10.667 -1.5605 19.1986
415 2 2.2208 10.7857 3.91688 19.2234
416 1 -1.1104 11.9862 0.0627763 15.1217
418 1 -1.1104 9.33237 -2.82667 17.7296
419 1 -1.1104 9.21509 2.57105 17.8601
420 2 2.2208 7.94364 1.29689 19.235
421 1 -1.1104 9.21032 -2.92227 15.0134
423 1 -1.1104 9.35363 2.86886 15.0923
425 2 2.2208 7.84258 -1.53562 16.4826
426 2 2.2208 7.84672 4.12229 16.4703
427 1 -1.1104 9.30879 -0.182104 17.719
428 1 -1.1104 9.10902 0.00370982 14.9702
424 1 -1.1104 9.37572 2.66324 20.5918
434 2 2.2208 13.4466 -1.47516 16.4503
9420 2 2.2208 10.7329 -4.31235 16.5165
383 1 -1.1104 6.51519 -0.244056 20.6524
429 1 -1.1104 9.15908 -0.244799 20.5336
410 1 -1.1104 12.1522 -2.95394 20.6597
417 1 -1.1104 11.9355 -0.312051 20.6431
422 1 -1.1104 9.15625 -3.00848 20.7483
412 1 -1.1104 12.1427 2.46565 20.5208
375 1 -1.1104 6.49798 2.58312 20.5612
439 2 2.2208 5.08949 6.97598 16.5167
440 2 2.2208 5.01988 12.6281 16.5318
441 1 -1.1104 0.927127 8.35179 17.9516
443 1 -1.1104 0.965702 8.32326 15.1772
447 1 -1.1104 0.943307 5.54414 17.898
448 1 -1.1104 0.992869 11.0842 17.7878
451 2 2.2208 5.00797 9.72368 19.1902
452 1 -1.1104 0.755293 5.51465 15.2185
454 1 -1.1104 0.965024 11.2219 15.0167
460 1 -1.1104 3.76341 8.24638 17.9553
461 2 2.2208 2.24975 6.98649 19.3554
462 2 2.2208 2.30648 12.6678 19.294
463 1 -1.1104 3.69101 8.37317 15.2142
465 2 2.2208 2.25488 9.77658 16.4828
466 1 -1.1104 3.77021 5.65422 17.9313
467 1 -1.1104 3.63057 11.2582 17.8446
468 1 -1.1104 3.71725 5.61718 14.9956
470 1 -1.1104 3.59993 11.2152 15.1227
9062 2 2.2208 7.89443 -4.3736 24.8257
402 2 2.2208 -0.569867 18.245 16.5005
456 1 -1.1104 6.60279 5.68537 15.0924
445 1 -1.1104 6.57055 8.3354 15.0333
9742 2 2.2208 13.4485 -1.51826 27.6147
9102 2 2.2208 10.7543 -4.23078 22.02
442 1 -1.1104 6.31387 8.37383 17.9279
457 1 -1.1104 6.37799 5.55918 20.8178
455 1 -1.1104 0.88369 11.2542 20.57
469 1 -1.1104 3.57667 5.59367 20.8324
453 1 -1.1104 0.895882 5.62776 20.7036
446 1 -1.1104 6.51408 8.18582 20.5825
433 2 2.2208 13.5783 18.1627 19.209
9427 2 2.2208 2.31276 -4.31137 19.1962
405 1 -1.1104 12.3299 19.4949 26.1072
450 1 -1.1104 6.53045 11.1496 17.7827
458 1 -1.1104 6.3048 11.1555 15.0951
449 1 -1.1104 6.53335 5.35842 17.8603
475 2 2.2208 10.7971 6.87719 16.3707
476 2 2.2208 10.6448 12.5442 16.3322
477 1 -1.1104 12.2433 8.19456 17.7317
478 1 -1.1104 12.08 8.21868 15.088
480 1 -1.1104 12.3393 5.42331 17.9405
481 1 -1.1104 12.085 11.0891 17.7312
482 2 2.2208 10.7024 9.69762 19.2282
483 1 -1.1104 12.215 5.45633 14.9387
485 1 -1.1104 12.0925 11.1365 14.9413
487 1 -1.1104 9.20499 8.27231 17.7446
488 2 2.2208 7.97818 6.84522 19.2409
489 2 2.2208 7.91431 12.6603 19.2778
490 1 -1.1104 9.40276 8.37164 15.0417
492 2 2.2208 7.94401 9.71364 16.5284
493 1 -1.1104 9.33887 5.44043 17.8825
494 1 -1.1104 9.36641 11.1018 17.9101
495 1 -1.1104 9.38911 5.54823 15.1256
497 1 -1.1104 9.07583 11.3181 15.1215
629 2 2.2208 10.8354 18.1873 21.9958
660 2 2.2208 -0.489797 12.6987 22.0509
491 1 -1.1104 9.40492 8.24849 20.554
484 1 -1.1104 12.1524 5.39809 20.7171
486 1 -1.1104 12.198 10.9714 20.5173
10000 2 2.2208 13.4983 4.11365 21.969
502 2 2.2208 5.09442 18.1931 16.4126
503 1 -1.1104 0.754258 13.9831 18.0201
504 1 -1.1104 0.871702 19.5318 17.7322
507 1 -1.1104 0.902321 14.0236 15.1639
509 1 -1.1104 0.995686 19.5829 15.003
515 1 -1.1104 0.995445 16.7104 17.9517
517 2 2.2208 5.18523 15.4899 19.2418
518 2 2.2208 5.1801 20.9849 19.1833
519 1 -1.1104 0.840045 16.9244 15.2964
523 1 -1.1104 3.55158 14.061 17.9369
524 1 -1.1104 3.66537 19.579 17.8613
525 2 2.2208 2.33231 18.2094 19.1856
526 1 -1.1104 3.67304 14.0468 15.1315
528 1 -1.1104 3.82566 19.6796 15.0091
530 2 2.2208 2.23943 15.4413 16.4381
531 2 2.2208 2.3674 21.0012 16.3107
532 1 -1.1104 3.98553 16.7838 17.7188
533 1 -1.1104 3.65679 16.9041 14.9557
511 1 -1.1104 6.36732 14.0559 15.0325
513 1 -1.1104 6.51559 19.5095 14.9869
521 1 -1.1104 6.56653 16.6574 15.0083
506 1 -1.1104 6.43709 19.5291 17.8226
9798 2 2.2208 13.6742 1.37529 24.8784
529 1 -1.1104 3.84858 19.729 20.6412
527 1 -1.1104 3.66335 13.9701 20.5974
683 2 2.2208 13.5198 12.6602 24.8719
361 2 2.2208 8.06096 9.76801 27.6599
512 1 -1.1104 6.60699 14.038 20.7241
516 1 -1.1104 6.68527 16.7786 17.8231
505 1 -1.1104 6.46526 13.9144 17.901
538 2 2.2208 10.7312 18.1249 16.5619
539 1 -1.1104 12.0768 14.0442 17.8041
540 1 -1.1104 12.1701 19.5514 18.005
541 1 -1.1104 12.1056 13.8326 14.9838
543 1 -1.1104 12.2112 19.4606 15.2999
545 1 -1.1104 12.0685 16.7301 17.9029
546 2 2.2208 10.6496 15.344 19.2193
547 2 2.2208 10.6768 20.9118 19.2901
548 1 -1.1104 12.1538 16.5691 15.0705
550 1 -1.1104 9.28704 13.9654 17.7492
551 1 -1.1104 9.33187 19.5803 17.8509
552 2 2.2208 7.91166 18.2118 19.281
553 1 -1.1104 9.27492 13.9724 14.9639
555 1 -1.1104 9.3842 19.6306 15.0369
557 2 2.2208 7.84294 15.3619 16.4116
558 2 2.2208 8.00882 20.9547 16.3305
559 1 -1.1104 9.40376 16.731 17.7871
560 1 -1.1104 9.28271 16.8865 15.1072
396 2 2.2208 13.466 9.69238 22.0458
336 2 2.2208 7.83969 12.5628 13.5836
554 1 -1.1104 9.32091 13.9451 20.5617
9793 2 2.2208 13.5439 4.12343 16.3419
388 1 -1.1104 3.54809 -2.92133 20.765
399 2 2.2208 -0.509399 1.26736 16.4643
661 1 -1.1104 12.2122 19.5127 23.4347
395 1 -1.1104 3.5502 0.0730205 20.6701
566 2 2.2208 5.08549 1.36037 22.0245
567 1 -1.1104 0.840184 -3.03986 23.4993
568 1 -1.1104 0.711619 2.74886 23.5271
571 1 -1.1104 0.904823 -2.71026 26.3321
572 1 -1.1104 0.935132 2.83988 26.2968
575 1 -1.1104 1.00177 -0.135869 23.4805
577 2 2.2208 5.15523 -1.28268 24.9494
578 2 2.2208 5.09181 4.20761 24.7791
579 1 -1.1104 0.850815 -0.00488538 26.1255
581 1 -1.1104 3.47888 -2.77177 23.4772
582 1 -1.1104 3.6253 2.79685 23.5448
583 2 2.2208 2.43367 1.30541 24.7554
584 1 -1.1104 3.74765 -2.71287 26.1444
585 1 -1.1104 3.67941 2.9157 26.2513
586 2 2.2208 2.19057 -1.4998 22.0104
587 2 2.2208 2.23908 4.14577 22.0778
588 1 -1.1104 3.69061 -0.0244083 23.5307
589 1 -1.1104 3.7057 0.150379 26.3488
569 1 -1.1104 6.31877 -2.95362 23.4837
576 1 -1.1104 6.35118 -0.109836 23.456
573 1 -1.1104 6.5229 -2.82575 26.3565
580 1 -1.1104 6.53225 -0.0593102 26.4267
570 1 -1.1104 6.52878 2.73419 23.5068
340 2 2.2208 10.7461 15.1354 13.5805
342 2 2.2208 5.00544 1.48098 27.77
593 2 2.2208 13.4909 15.2623 22.0568
499 1 -1.1104 9.28214 14.0068 23.378
594 2 2.2208 13.6666 18.143 24.8271
358 2 2.2208 2.46264 9.72058 27.5591
574 1 -1.1104 6.44376 2.6852 26.2337
438 1 -1.1104 12.1614 16.7018 23.4118
602 2 2.2208 10.7633 1.26211 21.9475
603 1 -1.1104 11.9671 -3.03427 23.4611
604 1 -1.1104 12.1238 2.58915 23.4772
605 1 -1.1104 12.1267 -2.917 26.2188
606 1 -1.1104 12.1905 2.78093 26.2763
607 1 -1.1104 12.0503 -0.113011 23.4292
608 2 2.2208 10.7442 -1.41553 24.9452
609 2 2.2208 10.7783 4.08021 24.8591
610 1 -1.1104 12.1779 -0.0650048 26.1714
611 1 -1.1104 9.17656 -2.88796 23.5569
612 1 -1.1104 9.24805 2.74747 23.3457
613 2 2.2208 7.8318 1.18492 24.8605
614 1 -1.1104 9.29612 -2.80253 26.3271
615 1 -1.1104 9.16009 2.74662 26.1901
616 2 2.2208 7.7327 -1.50824 22.1491
617 2 2.2208 7.94787 4.1294 22.083
618 1 -1.1104 9.22535 -0.0675859 23.3871
619 1 -1.1104 9.28641 -0.0676994 26.4076
9833 2 2.2208 13.4243 -1.5357 22.0521
657 2 2.2208 5.18765 12.6885 27.6312
537 1 -1.1104 9.44126 19.5226 26.2829
556 1 -1.1104 9.39439 19.5371 20.7067
353 2 2.2208 8.06584 4.1901 27.6708
564 2 2.2208 7.95636 20.9629 21.9533
627 1 -1.1104 6.59549 16.7371 23.5467
471 1 -1.1104 3.71037 11.2188 20.5869
444 1 -1.1104 0.899556 8.56424 20.9251
464 1 -1.1104 3.73722 8.3695 20.6745
631 2 2.2208 5.09312 7.02456 22.0528
632 2 2.2208 5.15252 12.5449 21.9497
633 1 -1.1104 0.971732 8.41189 23.6856
635 1 -1.1104 0.808392 8.26813 26.3516
637 1 -1.1104 0.805467 5.59413 23.4395
638 1 -1.1104 0.931036 11.2551 23.3358
641 2 2.2208 5.26076 9.90503 24.8219
642 1 -1.1104 1.01879 5.58124 26.1323
643 1 -1.1104 1.01725 11.0713 26.3378
646 1 -1.1104 3.78886 8.61518 23.5673
647 2 2.2208 2.27016 7.08609 25.0098
648 2 2.2208 2.44629 12.5876 24.7982
649 1 -1.1104 3.83113 8.29482 26.3099
650 2 2.2208 2.38275 9.84271 22.0796
651 1 -1.1104 3.69794 5.59475 23.505
652 1 -1.1104 3.8356 11.334 23.4952
653 1 -1.1104 3.73472 5.56525 26.2225
654 1 -1.1104 3.79408 11.2709 26.2415
634 1 -1.1104 6.54788 8.32866 23.4245
639 1 -1.1104 6.4833 5.4314 23.6076
636 1 -1.1104 6.52516 8.40586 26.2719
362 2 2.2208 10.8165 12.589 27.6711
630 1 -1.1104 12.0397 13.9795 23.5096
401 1 -1.1104 12.2593 13.9831 26.2946
640 1 -1.1104 6.57259 11.123 23.3727
644 1 -1.1104 6.65217 5.61545 26.4049
479 1 -1.1104 12.185 8.25375 20.562
459 1 -1.1104 6.54962 11.1527 20.551
496 1 -1.1104 9.24653 5.47684 20.6791
645 1 -1.1104 6.57198 11.2032 26.2295
498 1 -1.1104 9.25446 11.1233 20.688
662 1 -1.1104 9.37808 11.119 26.2661
663 1 -1.1104 9.55962 5.77075 26.324
664 1 -1.1104 9.40467 11.0447 23.4537
665 1 -1.1104 9.3484 5.58171 23.4358
666 2 2.2208 8.02635 9.72306 21.9959
667 1 -1.1104 9.28276 8.32777 26.1397
668 2 2.2208 8.00884 12.3759 24.8551
669 2 2.2208 7.9115 6.91842 24.895
670 2 2.2208 10.6475 6.882 21.9466
671 2 2.2208 10.6629 12.5632 22.0071
672 1 -1.1104 12.1885 8.29441 23.3682
673 1 -1.1104 12.225 8.36233 26.1889
674 1 -1.1104 12.0247 5.50748 23.3406
675 1 -1.1104 12.1852 11.1534 23.3448
676 2 2.2208 10.9007 9.65834 24.7342
677 1 -1.1104 12.2255 5.57538 26.2631
678 1 -1.1104 12.1833 11.2782 26.1305
679 1 -1.1104 9.34089 8.4842 23.4023
472 2 2.2208 10.6987 15.3669 24.8197
501 2 2.2208 7.92876 18.0789 24.7841
344 2 2.2208 2.31988 4.32369 27.5827
696 1 -1.1104 6.50621 13.8663 23.45
693 1 -1.1104 6.52811 19.4787 23.4199
508 1 -1.1104 0.934032 14.1242 20.6805
534 1 -1.1104 3.71942 16.8782 20.6099
520 1 -1.1104 0.903391 16.9212 20.6534
535 1 -1.1104 6.69138 19.5304 26.2028
510 1 -1.1104 0.999113 19.6195 20.6564
695 2 2.2208 5.19572 15.3308 24.8563
620 2 2.2208 2.3582 15.4246 21.9712
621 2 2.2208 2.44841 21.0241 22.097
622 1 -1.1104 3.79321 16.8848 23.2517
624 1 -1.1104 0.925548 16.8355 23.4034
628 1 -1.1104 3.77113 13.982 26.2198
655 1 -1.1104 3.79646 16.8045 26.1683
656 2 2.2208 2.3833 18.1318 24.833
658 1 -1.1104 3.88208 19.5674 26.1646
680 2 2.2208 5.16481 18.2147 22.1004
681 1 -1.1104 0.955705 14.0702 23.4215
682 1 -1.1104 0.854932 19.5523 23.5302
686 1 -1.1104 3.78701 19.644 23.2657
688 1 -1.1104 3.6723 13.9668 23.3844
690 1 -1.1104 1.07282 19.4944 26.3749
691 1 -1.1104 0.936136 16.7936 26.272
692 1 -1.1104 0.949371 13.9899 26.1542
694 2 2.2208 5.31761 20.8853 24.8024
522 1 -1.1104 6.60392 16.8475 20.671
514 1 -1.1104 6.54026 19.7277 20.6314
687 1 -1.1104 6.53788 14.0722 26.1404
549 1 -1.1104 12.037 16.4633 20.6824
544 1 -1.1104 12.2333 19.4961 20.7471
590 1 -1.1104 9.40172 16.8431 23.2944
563 2 2.2208 7.98403 15.3557 22.0866
473 2 2.2208 10.8089 20.8801 24.9513
542 1 -1.1104 12.1619 13.8563 20.6437
561 1 -1.1104 9.33603 16.7651 20.6168
591 1 -1.1104 9.26757 16.7335 26.1701
500 1 -1.1104 9.24036 19.6734 23.6045
536 1 -1.1104 9.40758 13.9291 26.1988
474 1 -1.1104 12.1195 16.6439 26.2393
689 1 -1.1104 6.5701 16.7912 26.3943
343 2 2.2208 2.2765 -1.50771 27.668
9034 2 2.2208 5.20033 -4.19825 27.6321
9428 2 2.2208 2.33631 -4.21941 13.6601
337 2 2.2208 2.19197 18.1642 13.6092
338 2 2.2208 5.1359 21.0444 13.5424
324 2 2.2208 -0.630171 21.0973 13.6392
349 2 2.2208 2.30991 15.3806 27.7305
355 2 2.2208 10.7512 18.0759 27.6725
403 2 2.2208 5.04976 -1.44136 13.6622
601 2 2.2208 7.93542 15.3569 27.6186
346 2 2.2208 13.4934 15.3071 27.6115
697 2 2.2208 5.1553 23.7505 5.21163
698 2 2.2208 5.2622 29.4336 5.10644
699 1 -1.1104 1.03116 25.1951 0.983045
700 1 -1.1104 1.02258 25.2267 3.79809
701 1 -1.1104 1.03002 22.3979 0.960958
702 1 -1.1104 0.945954 28.0422 0.751539
703 2 2.2208 5.24317 26.6741 2.42939
704 1 -1.1104 0.923769 22.4087 3.70211
705 1 -1.1104 0.996799 27.9673 3.65514
706 1 -1.1104 3.85407 25.2631 0.891988
707 2 2.2208 2.33729 23.8265 2.34025
708 2 2.2208 2.39768 29.414 2.3182
709 1 -1.1104 3.88818 25.1955 3.80713
710 2 2.2208 2.3809 26.5669 5.12007
711 1 -1.1104 3.92485 22.3191 1.07899
712 1 -1.1104 3.83197 28.0222 0.993307
713 1 -1.1104 3.60894 22.3101 3.72614
714 1 -1.1104 3.79696 28.026 3.67175
723 1 -1.1104 6.6437 27.8952 3.73447
722 1 -1.1104 6.53305 22.1801 3.76984
844 1 -1.1104 3.72737 25.3068 6.60435
840 1 -1.1104 0.953286 22.3731 6.64159
1268 2 2.2208 13.6809 46.305 13.7409
1665 1 -1.1104 9.48992 47.7634 12.2681
721 1 -1.1104 6.74993 27.9629 0.967274
838 1 -1.1104 0.923244 25.2142 6.33002
1269 2 2.2208 5.12972 29.2781 -0.409614
718 1 -1.1104 6.502 25.1663 1.11266
720 1 -1.1104 6.72735 22.3321 1.15584
744 2 2.2208 13.7275 26.5982 5.2217
719 1 -1.1104 6.74839 25.0726 3.80374
724 2 2.2208 10.9211 23.885 5.03336
725 2 2.2208 10.7622 29.3975 5.26731
726 1 -1.1104 12.4096 25.1851 0.966894
727 1 -1.1104 12.1387 25.3762 3.8645
728 1 -1.1104 12.3258 22.3257 0.957832
729 1 -1.1104 12.3163 28.0278 1.05885
730 2 2.2208 10.8286 26.7374 2.35526
731 1 -1.1104 12.2129 22.4467 3.72598
732 1 -1.1104 12.2865 28.0981 3.83376
733 1 -1.1104 9.51046 25.2583 1.11627
734 2 2.2208 8.03635 23.7271 2.47256
735 2 2.2208 7.97681 29.3986 2.37179
736 1 -1.1104 9.4486 25.25 3.81721
737 2 2.2208 7.96386 26.5269 5.23736
738 1 -1.1104 9.71497 22.3974 1.05896
739 1 -1.1104 9.36202 28.0699 0.969615
740 1 -1.1104 9.35703 22.3385 3.79852
741 1 -1.1104 9.37964 28.1492 3.93095
1038 2 2.2208 8.05103 26.509 -0.353273
988 2 2.2208 -0.338959 40.6442 10.7815
743 2 2.2208 13.707 29.409 2.40824
874 1 -1.1104 9.42957 25.2495 6.5634
742 2 2.2208 13.7261 23.6311 2.29164
1050 2 2.2208 5.14407 46.2626 -0.428075
745 2 2.2208 5.24879 35.0115 5.19708
746 1 -1.1104 0.973713 30.8912 1.03067
747 1 -1.1104 1.01544 36.6249 1.22913
749 1 -1.1104 1.03437 30.8561 3.79575
750 1 -1.1104 1.01285 36.5049 3.96091
752 1 -1.1104 1.03824 33.7749 0.961397
753 2 2.2208 5.21076 32.2173 2.37036
754 2 2.2208 5.24932 37.8122 2.42557
755 1 -1.1104 1.01267 33.7591 3.84616
757 1 -1.1104 3.79836 30.8907 1.00001
758 1 -1.1104 3.90699 36.4469 0.982135
759 2 2.2208 2.44083 35.0759 2.4362
760 1 -1.1104 3.75283 30.6636 3.79068
761 1 -1.1104 3.75172 36.3093 3.80798
762 2 2.2208 2.49353 32.1843 5.19697
763 2 2.2208 2.51769 37.8205 5.22048
764 1 -1.1104 3.79928 33.6285 0.972032
765 1 -1.1104 3.81156 33.4996 3.73059
751 1 -1.1104 6.66301 36.4821 3.84516
895 1 -1.1104 0.992452 30.8575 6.63148
901 1 -1.1104 3.91969 30.675 6.55195
770 1 -1.1104 6.63864 30.625 3.85321
756 1 -1.1104 6.66994 33.6647 3.87758
771 1 -1.1104 6.49921 33.614 1.08261
748 1 -1.1104 6.75314 36.5373 1.12823
769 1 -1.1104 6.55435 30.8179 1.05413
1635 1 -1.1104 3.81647 47.7705 9.3106
772 2 2.2208 10.9291 34.9903 5.31962
773 1 -1.1104 12.2717 30.8712 0.935719
774 1 -1.1104 12.2199 36.4118 0.954574
775 1 -1.1104 12.2364 30.8502 3.65072
776 1 -1.1104 12.2348 36.4224 3.86693
777 1 -1.1104 12.2621 33.6493 0.958736
778 2 2.2208 10.8165 32.2835 2.39624
779 2 2.2208 10.8405 37.7509 2.52206
780 1 -1.1104 12.222 33.6717 3.81576
781 1 -1.1104 9.35216 30.8105 0.967917
782 1 -1.1104 9.48522 36.3256 1.03797
783 2 2.2208 8.19245 35.0457 2.55357
784 1 -1.1104 9.40026 30.8496 3.87373
785 1 -1.1104 9.58896 36.4052 3.94457
786 2 2.2208 8.0299 32.1472 5.24568
787 2 2.2208 7.97772 37.8591 5.28515
788 1 -1.1104 9.31609 33.638 1.08378
789 1 -1.1104 9.45711 33.5662 3.85801
898 1 -1.1104 6.59255 36.5892 6.59546
931 1 -1.1104 12.0407 33.6315 6.74629
929 1 -1.1104 12.1942 30.7952 6.69234
1022 2 2.2208 -0.499678 23.7652 10.7095
1026 2 2.2208 -0.518395 32.3283 7.93006
1015 2 2.2208 13.5474 32.1077 5.19978
836 2 2.2208 13.5343 46.3129 2.57929