ITEM: TIMESTEP
20000
ITEM: NUMBER OF ATOMS
17730
ITEM: BOX BOUNDS pp pp pp
-3.6542521316619253e-01 2.7705425213166375e+01
-4.2175905515154639e+00 3.3229759055151135e+02
-3.5720357366809896e-01 2.7697203573667711e+01
ITEM: ATOMS id type q x y z
1 2 2.2208 5.30768 1.33289 5.15488
2 1 -1.1104 1.18181 -2.76021 1.05896
3 1 -1.1104 0.955617 2.67097 1.02157
6 1 -1.1104 1.02367 -2.76207 3.78239
7 1 -1.1104 1.22005 2.75023 3.79783
10 1 -1.1104 1.07754 -0.118387 1.11808
12 2 2.2208 5.26671 -1.41448 2.41176
13 2 2.2208 5.30331 4.11131 2.41665
14 1 -1.1104 1.02591 0.00175233 3.84591
16 1 -1.1104 3.89709 -2.87033 0.914962
17 1 -1.1104 3.93604 2.74393 1.03054
18 2 2.2208 2.56024 1.38101 2.36621
19 1 -1.1104 3.85088 -2.89589 3.7795
20 1 -1.1104 3.93287 2.83274 3.81868
21 2 2.2208 2.6281 -1.47924 5.12861
22 2 2.2208 2.47623 4.11511 5.15287
23 1 -1.1104 3.93317 0.0819571 0.860393
24 1 -1.1104 3.94675 0.198152 3.65244
9023 2 2.2208 -0.378845 -4.2882 10.7936
356 2 2.2208 8.179 21.129 -0.426724
200 2 2.2208 -0.45349 -1.38564 8.00698
313 2 2.2208 -0.311456 15.378 8.1276
4 1 -1.1104 6.54198 -2.87408 0.916867
15 1 -1.1104 6.74356 -0.126835 3.73226
9 1 -1.1104 6.72311 2.67045 3.8072
353 2 2.2208 8.07935 4.22655 -0.514657
9025 2 2.2208 10.7847 -4.21963 10.8348
17381 2 2.2208 13.5106 -4.34409 2.41664
11 1 -1.1104 6.59398 -0.0715592 1.04247
135 2 2.2208 -0.281414 15.3208 2.38492
5 1 -1.1104 6.68847 2.82086 0.908421
8 1 -1.1104 6.50466 -2.88399 3.8059
31 2 2.2208 10.7901 1.45592 5.28763
32 1 -1.1104 12.2007 -2.81419 1.13894
33 1 -1.1104 12.25 2.8035 1.01045
34 1 -1.1104 12.2438 -2.94374 3.85184
35 1 -1.1104 12.2599 2.78666 3.86838
36 1 -1.1104 12.2225 -0.06022 0.962063
37 2 2.2208 10.8211 -1.40265 2.51393
38 2 2.2208 10.9394 4.17902 2.32418
39 1 -1.1104 12.194 -0.0392426 3.77055
40 1 -1.1104 9.31692 -2.92159 1.04565
41 1 -1.1104 9.49315 2.77197 0.96928
42 2 2.2208 8.07607 1.27371 2.39649
43 1 -1.1104 9.39733 -2.76471 3.88218
44 1 -1.1104 9.30294 2.7017 3.77306
45 2 2.2208 8.04784 -1.32795 5.29955
46 2 2.2208 8.11528 4.15279 5.16706
47 1 -1.1104 9.37346 -0.0589339 1.09295
48 1 -1.1104 9.48327 -0.0402543 3.90876
205 1 -1.1104 12.2413 -2.84017 6.62011
169 1 -1.1104 6.59777 2.6719 6.75452
9018 2 2.2208 -0.374361 -4.25599 5.24442
352 2 2.2208 8.03377 -1.47978 -0.488989
136 2 2.2208 -0.358155 21.0497 2.54214
208 1 -1.1104 9.49366 -2.73629 6.67846
201 2 2.2208 10.7652 15.5583 8.15292
54 2 2.2208 5.29288 6.96709 5.16267
55 2 2.2208 5.40732 12.5454 5.27636
56 1 -1.1104 0.988569 8.26854 0.941317
58 1 -1.1104 1.04372 8.35517 3.70494
60 1 -1.1104 1.21309 5.39111 0.891281
61 1 -1.1104 1.16278 11.0642 0.970411
66 2 2.2208 5.18332 9.83956 2.30594
67 1 -1.1104 1.01914 5.64241 3.6614
68 1 -1.1104 1.11192 11.0726 3.76589
71 1 -1.1104 3.80799 8.3063 1.00545
72 2 2.2208 2.33127 6.91932 2.32042
73 2 2.2208 2.38619 12.4999 2.43516
74 1 -1.1104 3.79641 8.43032 3.74819
75 2 2.2208 2.51829 9.82483 5.07982
76 1 -1.1104 3.86176 5.44201 0.947555
77 1 -1.1104 3.7927 11.1287 0.981388
79 1 -1.1104 3.94872 5.57559 3.69888
80 1 -1.1104 3.9658 11.2795 3.78847
63 1 -1.1104 6.76455 5.65592 0.979867
57 1 -1.1104 6.69513 8.36136 0.929943
64 1 -1.1104 6.61157 11.179 0.932986
78 1 -1.1104 3.97894 11.2521 6.49208
234 1 -1.1104 1.17692 8.35737 6.5529
59 1 -1.1104 6.56359 8.37927 3.83632
65 1 -1.1104 6.68011 11.1764 6.57778
336 2 2.2208 8.10014 12.6686 13.6861
9021 2 2.2208 2.50115 -4.20873 8.03683
27 2 2.2208 10.8722 18.3181 10.873
360 2 2.2208 10.9884 6.80509 -0.421527
70 1 -1.1104 6.76809 11.1182 3.73561
69 1 -1.1104 6.66354 5.50173 3.80309
84 2 2.2208 10.82 7.02704 5.22469
85 2 2.2208 10.8001 12.5946 5.20447
86 1 -1.1104 12.2556 8.38361 1.01741
87 1 -1.1104 12.1853 8.5171 3.79977
88 1 -1.1104 12.2088 5.52045 0.89316
89 1 -1.1104 12.3807 11.2113 1.09437
91 2 2.2208 10.7684 9.72219 2.33388
92 1 -1.1104 12.3198 5.57312 3.84618
93 1 -1.1104 12.211 11.2585 3.79498
94 1 -1.1104 9.54777 8.22048 0.990464
95 2 2.2208 8.03542 6.95747 2.42603
96 2 2.2208 8.00302 12.5548 2.36093
97 1 -1.1104 9.44035 8.29696 3.83007
98 2 2.2208 8.042 9.74161 5.14379
99 1 -1.1104 9.57228 5.53281 0.938183
100 1 -1.1104 9.33866 11.051 1.12357
102 1 -1.1104 9.55232 5.60986 3.70721
103 1 -1.1104 9.49841 11.1753 3.8961
269 1 -1.1104 9.35878 5.47407 6.46727
265 1 -1.1104 12.3024 8.39891 6.50245
9024 2 2.2208 8.12751 -4.10548 8.00821
90 1 -1.1104 12.3007 11.3842 6.69759
237 1 -1.1104 6.58979 5.54593 6.62599
106 2 2.2208 5.23851 18.1124 5.19756
107 1 -1.1104 1.01546 13.8626 0.999803
109 1 -1.1104 1.02185 19.4915 1.25613
113 1 -1.1104 1.07491 14.0338 3.68714
114 1 -1.1104 1.03611 19.7178 4.04308
116 1 -1.1104 1.14781 16.6248 1.07562
119 2 2.2208 5.31973 15.351 2.51094
120 2 2.2208 5.27643 20.881 2.52703
121 1 -1.1104 1.08911 16.7709 3.96449
123 1 -1.1104 3.69321 13.9678 1.07764
125 1 -1.1104 3.7625 19.4697 0.880015
127 2 2.2208 2.4755 18.0606 2.41819
128 1 -1.1104 3.70747 14.0448 3.92929
129 1 -1.1104 3.85015 19.4687 3.74222
130 2 2.2208 2.45792 15.3826 5.19886
131 2 2.2208 2.45872 21.0427 5.28464
132 1 -1.1104 3.93198 16.7993 1.13078
134 1 -1.1104 3.74471 16.807 3.88362
302 1 -1.1104 0.99713 19.6411 6.76407
110 1 -1.1104 6.59789 14.1467 1.04432
115 1 -1.1104 6.83835 13.93 3.75417
122 1 -1.1104 6.55332 16.7395 3.89968
139 1 -1.1104 6.69325 19.586 3.9964
138 1 -1.1104 6.69623 19.4634 1.10167
140 1 -1.1104 6.77806 16.7755 1.03181
118 1 -1.1104 6.66703 16.8688 6.72816
317 2 2.2208 8.02909 15.4243 10.9289
124 1 -1.1104 4.02294 13.9617 6.67416
117 1 -1.1104 1.1771 16.8306 6.6589
133 1 -1.1104 3.88684 16.976 6.69825
320 2 2.2208 7.93556 18.2245 8.20161
49 1 -1.1104 12.2183 14.1344 12.3122
141 2 2.2208 10.8038 18.2314 5.31995
142 1 -1.1104 12.254 14.1083 1.1066
144 1 -1.1104 12.3471 19.6689 1.08345
146 1 -1.1104 12.3902 14.1165 3.79026
147 1 -1.1104 12.2246 19.5586 3.80208
148 1 -1.1104 12.3431 16.8242 0.940239
150 2 2.2208 10.9496 15.4606 2.40526
151 2 2.2208 10.9049 21.0311 2.53349
152 1 -1.1104 12.3075 16.9371 3.92191
153 1 -1.1104 9.4502 13.9445 1.05833
155 1 -1.1104 9.52559 19.685 1.03225
157 2 2.2208 8.10983 18.1765 2.45064
158 1 -1.1104 9.50885 13.9237 3.83463
159 1 -1.1104 9.45276 19.6661 3.88659
160 2 2.2208 8.14034 15.3839 5.15623
161 2 2.2208 8.08118 20.9861 5.42961
162 1 -1.1104 9.56627 16.7732 1.07339
164 1 -1.1104 9.40645 16.7526 3.80602
149 1 -1.1104 12.2884 16.9282 6.67396
143 1 -1.1104 12.1959 14.1716 6.67088
154 1 -1.1104 9.41669 13.8849 6.61277
81 2 2.2208 -0.347132 7.01759 5.32101
163 1 -1.1104 9.38532 16.7863 6.61907
156 1 -1.1104 9.44638 19.4099 6.85255
104 2 2.2208 13.7673 12.6259 2.4939
166 1 -1.1104 1.16484 -2.77081 6.67116
167 1 -1.1104 0.915752 2.75943 6.65388
174 1 -1.1104 3.8156 -0.0404117 6.60828
172 1 -1.1104 3.94937 -2.77887 6.70481
171 1 -1.1104 6.66579 0.0337219 6.57385
145 1 -1.1104 12.2511 19.7574 6.72329
316 2 2.2208 8.04327 20.9015 11.0297
9450 2 2.2208 13.7685 1.41205 8.15098
30 2 2.2208 -0.382296 9.83062 8.05707
170 1 -1.1104 1.11688 -0.0704721 6.72102
173 1 -1.1104 3.82472 2.78504 6.57526
175 2 2.2208 5.14446 1.37711 10.8804
176 1 -1.1104 1.18708 -2.86476 12.2188
177 1 -1.1104 1.00956 2.83351 12.2437
180 1 -1.1104 1.02989 -2.85059 9.48565
181 1 -1.1104 1.09646 2.75941 9.48568
184 1 -1.1104 0.937495 -0.0762943 12.1463
186 2 2.2208 5.30042 -1.2972 8.01808
187 2 2.2208 5.1208 4.13896 7.98444
188 1 -1.1104 0.929007 -0.114003 9.5088
190 1 -1.1104 3.91492 -2.83366 12.212
191 1 -1.1104 3.80569 2.8286 12.0775
192 2 2.2208 2.34492 1.30668 7.99492
193 1 -1.1104 3.96479 -2.66546 9.50242
194 1 -1.1104 3.83905 2.83727 9.35043
195 2 2.2208 2.4102 -1.40451 10.753
196 2 2.2208 2.41079 4.16184 10.749
197 1 -1.1104 3.88706 -0.0547097 12.183
198 1 -1.1104 3.72458 0.16716 9.48224
322 1 -1.1104 9.51806 13.9851 12.3764
168 1 -1.1104 6.65146 -2.77635 6.55413
185 1 -1.1104 6.78828 -0.0153796 12.355
182 1 -1.1104 6.70013 -2.7557 9.30294
315 1 -1.1104 9.60791 16.8293 12.2488
206 1 -1.1104 12.3303 2.90624 6.60724
209 1 -1.1104 9.43048 2.7543 6.86074
26 2 2.2208 13.7521 18.2299 8.14292
210 1 -1.1104 9.42357 0.0480653 6.66198
178 1 -1.1104 6.72846 -2.83279 12.1346
207 1 -1.1104 12.2184 0.0926879 6.6832
189 1 -1.1104 6.6925 -0.0612796 9.52902
183 1 -1.1104 6.64076 2.6698 9.43691
179 1 -1.1104 6.63542 2.71257 12.3183
211 2 2.2208 10.9906 1.46516 10.9057
212 1 -1.1104 12.1047 -2.8557 12.1338
213 1 -1.1104 12.4924 2.71926 12.2412
214 1 -1.1104 12.2572 -3.02822 9.40252
215 1 -1.1104 12.2847 2.8484 9.47075
216 1 -1.1104 12.3267 0.0353697 12.3225
217 2 2.2208 10.8893 -1.34559 8.05259
218 2 2.2208 10.9247 4.22835 8.19505
219 1 -1.1104 12.3642 -0.0789538 9.49541
220 1 -1.1104 9.43105 -2.68097 12.3164
221 1 -1.1104 9.63329 2.92251 12.2759
222 2 2.2208 7.98813 1.35074 8.06028
223 1 -1.1104 9.43585 -2.86729 9.44579
224 1 -1.1104 9.37714 2.71675 9.53163
225 2 2.2208 8.17079 -1.35943 10.9501
226 2 2.2208 8.0494 4.08877 10.9419
227 1 -1.1104 9.59552 0.049822 12.2745
228 1 -1.1104 9.48565 -0.0640102 9.47481
239 1 -1.1104 3.82886 5.62386 6.51767
238 1 -1.1104 3.97846 8.36092 6.68682
62 1 -1.1104 1.19894 11.1656 6.64047
9735 2 2.2208 -0.39953 -1.56998 2.33713
236 1 -1.1104 0.942426 5.61235 6.43912
240 2 2.2208 5.22738 6.90458 10.7994
241 2 2.2208 5.36446 12.6007 10.8082
242 1 -1.1104 1.29924 8.31961 12.3102
244 1 -1.1104 1.03036 8.30479 9.3709
246 1 -1.1104 0.89545 5.54373 12.0562
247 1 -1.1104 1.14942 11.0397 12.0781
250 2 2.2208 5.3501 9.75238 7.89972
251 1 -1.1104 1.0454 5.54503 9.35615
252 1 -1.1104 1.16189 11.0843 9.29853
255 1 -1.1104 3.95769 8.2153 12.3317
256 2 2.2208 2.55269 7.04172 7.94948
257 2 2.2208 2.51007 12.6428 7.97262
258 1 -1.1104 3.94447 8.48956 9.36708
259 2 2.2208 2.62407 9.77044 10.8257
260 1 -1.1104 3.80464 5.49256 12.1812
261 1 -1.1104 3.81619 10.986 12.4102
262 1 -1.1104 3.82576 5.67225 9.36616
263 1 -1.1104 3.9889 11.2003 9.51912
245 1 -1.1104 6.72939 8.35808 9.35599
235 1 -1.1104 6.66469 8.46925 6.58343
249 1 -1.1104 6.69605 11.1201 12.223
254 1 -1.1104 6.67672 11.3036 9.33478
290 1 -1.1104 6.8138 14.134 9.43146
321 1 -1.1104 9.52733 19.6479 12.3018
105 1 -1.1104 12.3871 19.7715 9.59083
267 1 -1.1104 9.50793 8.35137 6.69423
101 1 -1.1104 9.34146 11.2164 6.58859
230 1 -1.1104 12.2447 16.8823 9.53188
229 2 2.2208 10.8327 21.0435 8.24181
266 1 -1.1104 12.1593 5.6875 6.7084
243 1 -1.1104 6.65533 8.28211 12.1592
253 1 -1.1104 6.66746 5.56955 9.55611
248 1 -1.1104 6.57658 5.58548 12.1845
264 1 -1.1104 9.5228 11.2867 9.47137
268 1 -1.1104 9.5206 5.60888 9.51089
270 1 -1.1104 9.40604 11.0169 12.2059
271 1 -1.1104 9.49153 5.61731 12.1972
272 2 2.2208 8.14157 9.76043 10.7975
273 1 -1.1104 9.55411 8.36905 9.45674
274 2 2.2208 8.07053 12.6437 7.92246
275 2 2.2208 8.18151 6.78454 7.93936
276 2 2.2208 10.9486 7.03943 10.9117
277 2 2.2208 10.9484 12.6108 10.9231
278 1 -1.1104 12.3397 8.4502 12.2132
279 1 -1.1104 12.3489 8.32363 9.34923
280 1 -1.1104 12.3416 5.68385 12.3623
281 1 -1.1104 12.3369 11.2145 12.2716
282 2 2.2208 10.8087 9.93242 8.01959
283 1 -1.1104 12.2613 5.61353 9.63644
284 1 -1.1104 12.3947 11.267 9.4771
285 1 -1.1104 9.49596 8.4929 12.3017
312 2 2.2208 -0.297742 18.3488 10.8256
53 1 -1.1104 12.2867 14.0525 9.46231
289 1 -1.1104 6.68572 16.8089 9.61597
108 1 -1.1104 1.16725 14.0668 6.6148
126 1 -1.1104 3.80489 19.5764 6.61462
314 1 -1.1104 9.49776 16.8376 9.50688
306 1 -1.1104 6.76655 16.7538 12.4191
286 1 -1.1104 3.87081 19.639 12.4115
287 1 -1.1104 3.93573 13.7942 12.3225
291 1 -1.1104 1.19683 19.6289 9.49073
292 1 -1.1104 1.06846 16.8813 9.43581
293 2 2.2208 5.04818 20.9156 8.06955
294 1 -1.1104 1.04429 13.9181 9.40709
295 2 2.2208 5.29165 15.4574 8.0902
298 1 -1.1104 1.19807 19.6066 12.3552
299 1 -1.1104 1.06288 13.8964 12.3362
300 2 2.2208 5.18167 18.3124 10.9595
301 1 -1.1104 3.8775 19.7277 9.65528
303 2 2.2208 2.43374 18.2562 8.11059
304 1 -1.1104 3.85994 16.7993 9.70223
305 1 -1.1104 3.82079 14.1717 9.37453
307 1 -1.1104 0.984973 16.9362 12.2019
308 1 -1.1104 3.81578 16.7902 12.3672
309 2 2.2208 2.29408 21.0615 11.0298
310 2 2.2208 2.42317 15.4384 10.9393
111 1 -1.1104 6.66297 14.1419 6.6108
112 1 -1.1104 6.62331 19.6808 6.66043
296 1 -1.1104 6.71574 19.5741 12.484
288 1 -1.1104 6.65365 19.5344 9.66993
297 1 -1.1104 6.65678 14.0669 12.1828
319 1 -1.1104 9.5652 14.0211 9.38171
199 1 -1.1104 12.4292 16.9314 12.2542
50 1 -1.1104 12.2898 19.7087 12.3763
318 1 -1.1104 9.40745 19.5494 9.52246
340 2 2.2208 10.9286 15.5285 13.7062
204 2 2.2208 13.8519 4.20296 10.9564
52 2 2.2208 13.6527 9.75851 10.7353
51 2 2.2208 -0.280938 12.4542 10.9058
9609 2 2.2208 13.6682 -1.46384 5.20144
436 2 2.2208 8.03117 1.39322 13.6772
358 2 2.2208 2.42504 9.64611 -0.482606
330 2 2.2208 10.945 4.22503 13.6729
335 2 2.2208 10.9675 9.66207 13.6463
9741 2 2.2208 13.705 1.4181 13.7939
355 2 2.2208 10.9895 18.3785 -0.326369
332 2 2.2208 5.34303 9.75226 13.7123
333 2 2.2208 2.42622 12.5172 13.7214
337 2 2.2208 2.47427 18.2352 13.8546
329 2 2.2208 5.17578 4.11188 13.5723
404 2 2.2208 2.50066 1.33733 13.5286
362 2 2.2208 10.8863 12.6082 -0.380756
351 2 2.2208 2.45472 20.9428 -0.375483
344 2 2.2208 2.4403 4.05574 -0.471453
9428 2 2.2208 2.50874 -4.24365 13.6085
334 2 2.2208 8.09243 6.98227 13.5872
363 2 2.2208 5.09924 1.33964 16.4389
364 1 -1.1104 1.02493 -2.81975 18.0236
365 1 -1.1104 1.03087 2.69201 17.8465
368 1 -1.1104 0.998642 -2.93586 14.9525
370 1 -1.1104 1.05377 2.65152 15.1034
376 1 -1.1104 0.903644 -0.0476916 17.8191
378 2 2.2208 5.27142 -1.50013 19.3373
379 2 2.2208 5.29664 4.10655 19.2599
380 1 -1.1104 1.15635 -0.125163 15.0006
384 1 -1.1104 3.80327 -2.76563 17.8154
385 1 -1.1104 3.78959 2.76366 17.789
386 2 2.2208 2.42606 1.28873 19.2672
387 1 -1.1104 3.76448 -2.7875 14.9828
389 1 -1.1104 3.68478 2.75629 14.9168
391 2 2.2208 2.25252 -1.51377 16.4189
392 2 2.2208 2.44316 4.15181 16.3759
393 1 -1.1104 3.70541 -0.18198 17.8677
394 1 -1.1104 3.8437 -0.146822 15.0265
9034 2 2.2208 5.30851 -4.33068 27.5983
388 1 -1.1104 3.98252 -2.74417 20.7684
9062 2 2.2208 8.01886 -4.35685 24.7852
367 1 -1.1104 6.53659 2.65281 17.8982
592 2 2.2208 -0.251839 18.2222 22.1486
396 2 2.2208 13.8077 9.83426 22.1767
10011 2 2.2208 -0.277257 6.9632 21.962
398 2 2.2208 -0.280303 4.11789 19.2842
685 2 2.2208 13.6646 7.06666 24.8409
9983 2 2.2208 -0.353997 1.36554 22.0066
9344 2 2.2208 8.07869 -4.31376 19.235
9102 2 2.2208 10.9046 -4.27175 21.9741
684 2 2.2208 13.6924 9.80727 27.8139
431 2 2.2208 -0.222326 21.0809 19.3905
372 1 -1.1104 6.70696 -2.79604 14.9876
374 1 -1.1104 6.46963 2.76276 15.0526
377 1 -1.1104 6.68621 -0.189559 17.9827
366 1 -1.1104 6.63828 -2.85808 17.894
382 1 -1.1104 6.64614 -0.00857467 15.2323
406 2 2.2208 10.8875 1.34466 16.4008
407 1 -1.1104 12.265 -2.74321 17.6274
408 1 -1.1104 12.3135 2.67425 17.8759
409 1 -1.1104 12.3593 -2.72444 14.8836
411 1 -1.1104 12.2291 2.74128 15.074
413 1 -1.1104 12.333 -0.0982682 17.8324
414 2 2.2208 10.9227 -1.45153 19.1569
415 2 2.2208 10.8315 4.14019 19.2731
416 1 -1.1104 12.3145 0.122879 15.0132
418 1 -1.1104 9.33793 -2.89059 17.9033
419 1 -1.1104 9.46647 2.88488 17.6788
420 2 2.2208 8.05791 1.39457 19.1651
421 1 -1.1104 9.39015 -2.68725 15.1342
423 1 -1.1104 9.27883 2.8074 15.0085
425 2 2.2208 8.08269 -1.34535 16.5479
426 2 2.2208 7.93353 4.23226 16.3194
427 1 -1.1104 9.55752 0.153715 17.8059
428 1 -1.1104 9.52735 -0.00212597 14.9968
595 2 2.2208 -0.23838 21.0343 24.8808
625 2 2.2208 13.8206 12.4878 19.1914
439 2 2.2208 5.26571 6.90949 16.5286
440 2 2.2208 5.35946 12.5177 16.4833
441 1 -1.1104 1.13905 8.25793 17.7485
443 1 -1.1104 1.0035 8.26276 14.9522
447 1 -1.1104 1.20487 5.47584 17.8278
448 1 -1.1104 1.09969 11.0584 17.8253
451 2 2.2208 5.39589 9.62745 19.2647
452 1 -1.1104 1.26928 5.64131 14.9776
454 1 -1.1104 1.18376 11.2016 15.0245
460 1 -1.1104 4.06415 8.33119 17.8499
461 2 2.2208 2.47381 6.83901 19.2055
462 2 2.2208 2.467 12.5924 19.2768
463 1 -1.1104 3.96307 8.25196 15.1667
465 2 2.2208 2.51534 9.67526 16.4739
466 1 -1.1104 3.91575 5.52774 17.7513
467 1 -1.1104 3.98762 11.1781 17.9368
468 1 -1.1104 3.91011 5.47202 15.0679
470 1 -1.1104 3.97465 11.2251 15.2578
430 2 2.2208 -0.392928 15.5162 19.2565
442 1 -1.1104 6.81344 8.39175 17.9764
450 1 -1.1104 6.76543 11.1856 17.8724
445 1 -1.1104 6.79332 8.41413 15.1473
458 1 -1.1104 6.79262 11.2137 15.0075
469 1 -1.1104 3.91482 5.59661 20.5473
464 1 -1.1104 4.01153 8.30416 20.7582
471 1 -1.1104 3.74452 11.1105 20.7603
444 1 -1.1104 1.29126 8.39746 20.6083
459 1 -1.1104 6.62864 11.2903 20.6119
474 1 -1.1104 12.4422 16.7155 26.2476
435 2 2.2208 13.8428 15.4418 16.4485
456 1 -1.1104 6.59178 5.49284 14.9897
449 1 -1.1104 6.60159 5.63047 17.9593
475 2 2.2208 10.8394 7.00041 16.5007
476 2 2.2208 10.834 12.5234 16.5277
477 1 -1.1104 12.2446 8.37077 17.7924
478 1 -1.1104 12.2739 8.25124 15.0299
480 1 -1.1104 12.3415 5.4579 18.0219
481 1 -1.1104 12.2547 11.144 17.9399
482 2 2.2208 10.8876 9.73058 19.2899
483 1 -1.1104 12.2599 5.5601 15.1609
485 1 -1.1104 12.3168 10.9365 15.0887
487 1 -1.1104 9.60038 8.38459 17.8991
488 2 2.2208 8.10697 6.83125 19.3352
489 2 2.2208 8.11145 12.6483 19.2285
490 1 -1.1104 9.56359 8.37705 15.1759
492 2 2.2208 8.15256 9.82928 16.5787
493 1 -1.1104 9.46091 5.59458 17.851
494 1 -1.1104 9.50206 11.2676 17.9437
495 1 -1.1104 9.48963 5.61498 15.0252
497 1 -1.1104 9.63011 11.2027 14.9861
564 2 2.2208 8.12336 21.1352 22.1097
9835 2 2.2208 -0.296499 4.0795 24.8494
446 1 -1.1104 6.82038 8.39077 20.7413
479 1 -1.1104 12.2995 8.42742 20.6555
457 1 -1.1104 6.7906 5.56778 20.7244
401 1 -1.1104 12.2811 13.9866 26.3472
502 2 2.2208 5.39877 18.1716 16.5037
503 1 -1.1104 1.10944 14.0156 17.8903
504 1 -1.1104 1.28445 19.6667 18.1047
507 1 -1.1104 1.15236 14.1241 14.9961
509 1 -1.1104 1.14449 19.6775 15.1461
515 1 -1.1104 0.97736 16.9513 17.8006
517 2 2.2208 5.19218 15.3589 19.4166
518 2 2.2208 5.32756 21.2341 19.3772
519 1 -1.1104 1.1639 16.9376 15.0918
523 1 -1.1104 3.89852 14.0046 17.9213
524 1 -1.1104 4.06986 19.4944 18.0293
525 2 2.2208 2.51245 18.1589 19.3507
526 1 -1.1104 3.87554 14.0666 15.0774
528 1 -1.1104 3.94479 19.7863 15.2711
530 2 2.2208 2.45777 15.3716 16.5251
531 2 2.2208 2.44693 21.0738 16.582
532 1 -1.1104 3.92099 16.8647 17.8719
533 1 -1.1104 3.87658 16.7517 15.0514
505 1 -1.1104 6.72474 14.0498 18.0232
506 1 -1.1104 6.70317 19.8037 18.0207
527 1 -1.1104 3.94969 13.9649 20.709
512 1 -1.1104 6.64964 14.0386 20.7636
521 1 -1.1104 6.74537 16.7554 15.1185
516 1 -1.1104 6.7272 16.8655 17.9849
513 1 -1.1104 6.68125 19.6097 15.3269
511 1 -1.1104 6.58856 13.9416 15.1053
522 1 -1.1104 6.73674 16.9388 20.7817
520 1 -1.1104 1.14189 16.9005 20.7575
508 1 -1.1104 1.09663 14.0097 20.7295
529 1 -1.1104 3.94074 19.6116 20.7322
510 1 -1.1104 1.03696 19.6031 20.8503
591 1 -1.1104 9.50415 16.8345 26.3534
542 1 -1.1104 12.3781 13.9123 20.7183
544 1 -1.1104 12.265 19.5063 20.8354
538 2 2.2208 10.9428 18.1775 16.4355
539 1 -1.1104 12.2626 13.8009 17.9335
540 1 -1.1104 12.3283 19.4916 18.0013
541 1 -1.1104 12.2335 13.8657 15.1367
543 1 -1.1104 12.4514 19.6177 15.0417
545 1 -1.1104 12.4982 16.519 17.8331
546 2 2.2208 10.928 15.3203 19.268
547 2 2.2208 10.8319 21.0247 19.3838
548 1 -1.1104 12.2975 16.7998 14.9989
550 1 -1.1104 9.45209 13.9505 17.8676
551 1 -1.1104 9.58168 19.607 17.8961
552 2 2.2208 8.05024 18.2771 19.3275
553 1 -1.1104 9.32603 13.9107 15.1726
555 1 -1.1104 9.49131 19.5786 15.0476
557 2 2.2208 8.15502 15.5156 16.5605
558 2 2.2208 8.08247 21.0507 16.5848
559 1 -1.1104 9.55289 16.8322 18.0155
560 1 -1.1104 9.65601 16.8255 15.0817
556 1 -1.1104 9.48292 19.7353 20.7397
342 2 2.2208 5.40939 1.37837 27.6578
660 2 2.2208 -0.340036 12.5347 21.9969
438 1 -1.1104 12.3095 16.6797 23.4771
9984 2 2.2208 -0.460259 -1.52971 24.7596
395 1 -1.1104 3.83467 -0.117704 20.7006
375 1 -1.1104 6.71497 2.7324 20.5893
381 1 -1.1104 1.03068 -0.0651065 20.6905
371 1 -1.1104 1.1566 2.68816 20.7249
383 1 -1.1104 6.7938 -0.0317822 20.5571
659 2 2.2208 -0.390496 9.60935 24.808
499 1 -1.1104 9.71114 14.0104 23.4467
390 1 -1.1104 3.87828 2.68787 20.7695
369 1 -1.1104 1.13385 -2.95685 20.7824
566 2 2.2208 5.33211 1.27059 22.0017
567 1 -1.1104 1.04882 -2.73591 23.4143
568 1 -1.1104 1.08205 2.81638 23.383
571 1 -1.1104 0.946068 -2.88583 26.2656
572 1 -1.1104 1.07539 2.70204 26.1283
575 1 -1.1104 1.01432 0.0423962 23.5901
577 2 2.2208 5.23026 -1.43512 24.86
578 2 2.2208 5.28015 4.07552 24.8587
579 1 -1.1104 1.04813 -0.137973 26.4259
581 1 -1.1104 3.71915 -2.88929 23.4044
582 1 -1.1104 3.91088 2.75301 23.4879
583 2 2.2208 2.50441 1.44 24.9427
584 1 -1.1104 3.69577 -2.91291 26.2159
585 1 -1.1104 3.89885 2.67734 26.3299
586 2 2.2208 2.29982 -1.37014 22.064
587 2 2.2208 2.49912 4.14521 22.0853
588 1 -1.1104 3.68738 0.00695718 23.4381
589 1 -1.1104 4.02445 0.0542107 26.1752
573 1 -1.1104 6.55253 -2.80908 26.1549
580 1 -1.1104 6.75415 -0.0897307 26.1305
574 1 -1.1104 6.76474 2.66493 26.1119
570 1 -1.1104 6.76046 2.66212 23.4601
373 1 -1.1104 6.82175 -2.87201 20.641
410 1 -1.1104 12.2287 -2.83301 20.6563
429 1 -1.1104 9.69229 0.0576681 20.6041
422 1 -1.1104 9.601 -2.78809 20.68
412 1 -1.1104 12.2906 2.7203 20.6777
630 1 -1.1104 12.3907 13.9757 23.613
576 1 -1.1104 6.6108 -0.0965916 23.2793
417 1 -1.1104 12.3813 0.0416835 20.5738
569 1 -1.1104 6.70315 -2.95888 23.3512
424 1 -1.1104 9.53951 2.75822 20.4634
602 2 2.2208 10.9251 1.31996 22.0391
603 1 -1.1104 12.2191 -2.87528 23.3811
604 1 -1.1104 12.1796 2.74699 23.4585
605 1 -1.1104 12.0928 -2.8077 26.2521
606 1 -1.1104 12.3038 2.92309 26.3227
607 1 -1.1104 12.3817 -0.170339 23.3832
608 2 2.2208 10.7735 -1.40138 24.6853
609 2 2.2208 11.0632 4.23607 24.7525
610 1 -1.1104 12.2025 0.0550054 26.2685
611 1 -1.1104 9.35882 -2.85223 23.438
612 1 -1.1104 9.44978 2.70901 23.3016
613 2 2.2208 8.16762 1.347 24.7569
614 1 -1.1104 9.34964 -2.82404 26.2438
615 1 -1.1104 9.60416 2.88325 26.2384
616 2 2.2208 8.14821 -1.48721 21.9617
617 2 2.2208 8.08291 4.03821 22.002
618 1 -1.1104 9.45726 -0.0294679 23.3484
619 1 -1.1104 9.41758 -0.0514874 26.1639
536 1 -1.1104 9.39228 14.0649 26.4269
400 2 2.2208 -0.436943 -1.46083 19.2228
455 1 -1.1104 0.957782 11.1746 20.5158
453 1 -1.1104 1.08035 5.51679 20.6664
631 2 2.2208 5.30798 6.91349 22.0636
632 2 2.2208 5.33226 12.5074 21.9341
633 1 -1.1104 1.06063 8.37235 23.4402
635 1 -1.1104 1.10015 8.2463 26.1689
637 1 -1.1104 1.12393 5.63357 23.3748
638 1 -1.1104 1.32438 11.2076 23.1838
641 2 2.2208 5.36487 9.72844 24.8217
642 1 -1.1104 0.991307 5.56021 26.2836
643 1 -1.1104 1.07021 11.1268 26.1224
646 1 -1.1104 3.99996 8.19073 23.6655
647 2 2.2208 2.50432 6.86599 24.824
648 2 2.2208 2.56264 12.5106 24.7499
649 1 -1.1104 3.85401 8.20613 26.2204
650 2 2.2208 2.50909 9.71287 22.1289
651 1 -1.1104 3.87917 5.52208 23.2473
652 1 -1.1104 4.03148 11.1879 23.4523
653 1 -1.1104 3.87375 5.37399 26.0891
654 1 -1.1104 3.7617 11.0432 26.1681
645 1 -1.1104 6.49491 11.0528 26.2403
639 1 -1.1104 6.61189 5.57234 23.4101
634 1 -1.1104 6.73706 8.43722 23.4103
640 1 -1.1104 6.62385 11.2344 23.4822
636 1 -1.1104 6.70395 8.25669 26.1992
626 2 2.2208 13.763 6.96935 19.3735
501 2 2.2208 8.13015 18.3668 24.9202
472 2 2.2208 10.9867 15.4099 24.9688
496 1 -1.1104 9.65884 5.62022 20.5687
484 1 -1.1104 12.2705 5.60416 20.6643
491 1 -1.1104 9.37006 8.54409 20.5925
473 2 2.2208 10.9744 21.0665 25.0447
535 1 -1.1104 6.65072 19.8311 26.3993
324 2 2.2208 -0.389112 20.9368 13.6162
498 1 -1.1104 9.50678 11.2805 20.7897
486 1 -1.1104 12.4253 11.1786 20.5469
644 1 -1.1104 6.65749 5.46463 26.1765
662 1 -1.1104 9.3263 11.2606 26.4125
663 1 -1.1104 9.54491 5.54333 26.0615
664 1 -1.1104 9.39009 11.143 23.5403
665 1 -1.1104 9.49795 5.63155 23.3308
666 2 2.2208 7.94487 9.81034 22.0261
667 1 -1.1104 9.46536 8.43216 26.2239
668 2 2.2208 8.07409 12.6043 24.9051
669 2 2.2208 8.07458 6.97428 24.7036
670 2 2.2208 10.693 6.99402 21.996
671 2 2.2208 10.9482 12.5774 22.0195
672 1 -1.1104 12.2899 8.49835 23.496
673 1 -1.1104 12.3033 8.32911 26.2884
674 1 -1.1104 12.4444 5.64437 23.3349
675 1 -1.1104 12.1602 11.2551 23.4862
676 2 2.2208 10.8314 9.81037 24.8211
677 1 -1.1104 12.295 5.59381 26.1359
678 1 -1.1104 12.3359 11.1183 26.444
679 1 -1.1104 9.42681 8.41862 23.5028
661 1 -1.1104 12.3404 19.5331 23.6039
598 2 2.2208 -0.334034 15.2532 24.9327
537 1 -1.1104 9.64736 19.6617 26.3884
405 1 -1.1104 12.3946 19.6099 26.2571
629 2 2.2208 11.0561 18.1837 22.1764
534 1 -1.1104 3.84168 16.7646 20.8003
693 1 -1.1104 6.6566 19.706 23.5616
514 1 -1.1104 6.848 19.8558 20.7249
627 1 -1.1104 6.77324 16.7911 23.5022
500 1 -1.1104 9.5396 19.7664 23.5047
554 1 -1.1104 9.44161 14.1363 20.5945
620 2 2.2208 2.51485 15.3263 22.1198
621 2 2.2208 2.63935 21.0601 22.1812
622 1 -1.1104 3.85828 16.7579 23.4225
624 1 -1.1104 1.02978 16.6988 23.5285
628 1 -1.1104 3.87758 14.1348 26.3797
655 1 -1.1104 3.9617 16.9751 26.2867
656 2 2.2208 2.47769 18.1917 24.9377
658 1 -1.1104 3.912 19.7834 26.2505
680 2 2.2208 5.42159 18.2655 22.0954
681 1 -1.1104 1.06624 13.9596 23.5602
682 1 -1.1104 1.10127 19.7451 23.6584
686 1 -1.1104 3.94417 19.7095 23.471
688 1 -1.1104 3.89339 13.8794 23.5533
690 1 -1.1104 1.00508 19.5005 26.4048
691 1 -1.1104 1.01101 16.8365 26.372
692 1 -1.1104 1.08894 13.9993 26.3826
694 2 2.2208 5.20917 21.0496 24.9058
695 2 2.2208 5.41684 15.4079 24.8374
687 1 -1.1104 6.63419 13.9969 26.3195
696 1 -1.1104 6.7948 13.9691 23.5118
689 1 -1.1104 6.77616 16.9728 26.3467
432 2 2.2208 13.7126 20.9449 16.7769
399 2 2.2208 -0.333885 1.31138 16.4156
563 2 2.2208 8.16297 15.542 22.0924
549 1 -1.1104 12.178 16.5931 20.6822
590 1 -1.1104 9.55034 16.811 23.5944
561 1 -1.1104 9.43647 17.0144 20.672
565 2 2.2208 13.8186 18.3308 13.6647
341 2 2.2208 8.13511 18.1942 13.7649
361 2 2.2208 8.05503 9.71864 27.7228
347 2 2.2208 -0.442856 18.1594 27.7126
9290 2 2.2208 8.02214 -4.22608 13.6882
349 2 2.2208 2.5664 15.4536 27.61
657 2 2.2208 5.13848 12.579 27.6144
437 2 2.2208 10.9065 -1.33887 13.603
9737 2 2.2208 -0.352616 6.85815 27.6423
350 2 2.2208 5.28702 18.2546 27.7125
348 2 2.2208 10.9086 1.47108 27.6214
601 2 2.2208 8.08316 15.409 27.7713
357 2 2.2208 5.23922 6.90758 27.6651
562 2 2.2208 10.9209 20.9438 13.7517
338 2 2.2208 5.17948 21.0281 13.7745
403 2 2.2208 5.19123 -1.56804 13.6125
345 2 2.2208 -0.242432 9.68843 13.5152
343 2 2.2208 2.53681 -1.45574 27.6549
331 2 2.2208 2.67873 6.95125 13.6266
339 2 2.2208 5.20232 15.389 13.6985
697 2 2.2208 5.35264 23.7754 5.31512
698 2 2.2208 5.26365 29.4081 5.39103
699 1 -1.1104 1.09088 25.1607 1.10288
700 1 -1.1104 1.07296 25.1571 3.98362
701 1 -1.1104 1.07494 22.302 0.91871
702 1 -1.1104 1.05546 27.9785 1.13238
703 2 2.2208 5.32101 26.6719 2.45877
704 1 -1.1104 1.02109 22.4349 3.84705
705 1 -1.1104 1.07842 27.9984 3.9755
706 1 -1.1104 3.91584 25.259 0.998474
707 2 2.2208 2.54458 23.7015 2.52253
708 2 2.2208 2.55108 29.4393 2.47344
709 1 -1.1104 3.99431 25.0438 3.79025
710 2 2.2208 2.52366 26.4867 5.31934
711 1 -1.1104 3.84627 22.3126 1.09305
712 1 -1.1104 4.01201 28.1518 0.986126
713 1 -1.1104 3.90457 22.3034 3.85828
714 1 -1.1104 4.00219 28.076 3.97431
845 1 -1.1104 3.912 22.4143 6.68276
721 1 -1.1104 6.93716 28.0149 1.10468
722 1 -1.1104 6.63337 22.2967 4.1206
719 1 -1.1104 6.69672 25.2223 4.00965
838 1 -1.1104 1.19372 25.1778 6.78848
844 1 -1.1104 3.81315 25.1439 6.62304
846 1 -1.1104 3.85542 27.8345 6.68033
840 1 -1.1104 1.14037 22.3689 6.70693
841 1 -1.1104 0.978459 27.945 6.66856
842 1 -1.1104 6.54508 22.4575 6.8105
1353 2 2.2208 13.7361 37.8165 -0.17799
718 1 -1.1104 6.69356 25.1276 1.08506
723 1 -1.1104 6.72956 27.8731 3.91624
720 1 -1.1104 6.64547 22.2661 1.07168
724 2 2.2208 10.9066 23.8234 5.30599
725 2 2.2208 10.9024 29.4235 5.28077
726 1 -1.1104 12.183 25.3457 1.29875
727 1 -1.1104 12.3643 25.2108 3.96994
728 1 -1.1104 12.3541 22.4321 1.2233
729 1 -1.1104 12.2403 27.9907 1.26237
730 2 2.2208 10.8194 26.5867 2.54554
731 1 -1.1104 12.4914 22.53 4.04218
732 1 -1.1104 12.2545 28.0707 4.02929
733 1 -1.1104 9.39238 25.1664 1.1858
734 2 2.2208 8.0269 23.7889 2.51535
735 2 2.2208 8.10322 29.4723 2.57385
736 1 -1.1104 9.47173 25.205 3.98468
737 2 2.2208 8.08223 26.6207 5.3401
738 1 -1.1104 9.48967 22.4924 1.20606
739 1 -1.1104 9.5094 27.9208 1.13416
740 1 -1.1104 9.50345 22.4273 3.94908
741 1 -1.1104 9.35982 28.1277 3.95839
872 1 -1.1104 12.2103 22.5089 6.77442
1615 1 -1.1104 6.56502 47.6823 6.70089
1648 1 -1.1104 9.53973 47.4874 6.71967
815 2 2.2208 -0.447515 43.512 2.42955
875 1 -1.1104 9.3822 22.3701 6.84586
836 2 2.2208 13.717 46.0954 2.3411
1016 2 2.2208 13.7032 43.411 5.21728
745 2 2.2208 5.17646 34.9774 5.24375
746 1 -1.1104 1.10794 30.7757 0.894134
747 1 -1.1104 1.0222 36.4439 1.01068
749 1 -1.1104 1.06052 30.8917 3.87814
750 1 -1.1104 1.02363 36.3655 3.83518
752 1 -1.1104 0.919034 33.7312 1.19605
753 2 2.2208 5.25624 32.3085 2.48324
754 2 2.2208 5.15046 37.8734 2.53417
755 1 -1.1104 1.03363 33.7042 3.92163
757 1 -1.1104 3.98048 30.858 1.15388
758 1 -1.1104 3.94562 36.3236 1.0388
759 2 2.2208 2.50753 35.0368 2.48435
760 1 -1.1104 4.05132 31.0466 4.0121
761 1 -1.1104 3.79029 36.5412 3.92847
762 2 2.2208 2.42449 32.1964 5.36926
763 2 2.2208 2.33288 37.8047 5.23268
764 1 -1.1104 3.81148 33.6503 1.01517
765 1 -1.1104 3.88946 33.7509 3.87453
903 1 -1.1104 3.6691 33.6453 6.85103
895 1 -1.1104 1.12376 30.6622 6.83394
896 1 -1.1104 0.988569 36.4344 6.71782
751 1 -1.1104 6.60545 36.3151 3.74953
756 1 -1.1104 6.65833 33.4684 3.78205
899 1 -1.1104 0.933717 33.3942 6.82308
771 1 -1.1104 6.5241 33.6281 1.09503
748 1 -1.1104 6.69844 36.3292 0.944015
769 1 -1.1104 6.78766 30.8507 1.04786
901 1 -1.1104 3.71908 30.6922 6.65913
902 1 -1.1104 3.92126 36.3585 6.76288
1048 2 2.2208 5.36463 40.6456 -0.430964
1043 2 2.2208 5.22401 35.0562 -0.425006
1033 2 2.2208 2.39826 40.6364 13.7881
770 1 -1.1104 6.77328 30.674 3.89323
1007 1 -1.1104 9.37957 39.1635 6.63101
900 1 -1.1104 6.55205 33.6439 6.59735
772 2 2.2208 10.8222 34.9445 5.25418
773 1 -1.1104 12.2999 30.8781 0.959926
774 1 -1.1104 12.2981 36.3358 1.24733
775 1 -1.1104 12.3179 30.8112 3.90032
776 1 -1.1104 12.283 36.3729 4.02323
777 1 -1.1104 12.3719 33.509 1.07491
778 2 2.2208 10.923 32.2056 2.48376
779 2 2.2208 10.8111 37.7674 2.58293
780 1 -1.1104 12.2888 33.5653 3.89238
781 1 -1.1104 9.50864 30.8578 1.06682
782 1 -1.1104 9.40009 36.4932 0.987734
783 2 2.2208 7.89028 35.0302 2.42742