ITEM: TIMESTEP
80000
ITEM: NUMBER OF ATOMS
17730
ITEM: BOX BOUNDS pp pp pp
-3.5892016126404713e-01 2.7698920161264052e+01
-4.3212168307280523e+00 3.3240121683072221e+02
-3.6196706731951550e-01 2.7701967067319863e+01
ITEM: ATOMS id type q x y z
1 2 2.2208 5.33022 1.18229 5.12629
2 1 -1.1104 1.2871 -2.78486 1.12313
3 1 -1.1104 1.23247 2.53531 0.96222
6 1 -1.1104 1.1499 -3.07141 3.83861
7 1 -1.1104 1.14381 2.77265 3.88645
10 1 -1.1104 1.05023 -0.134595 1.08851
12 2 2.2208 5.37557 -1.63861 2.40742
13 2 2.2208 5.4178 4.07276 2.50315
14 1 -1.1104 1.09834 -0.237558 4.00833
16 1 -1.1104 4.00583 -2.8417 0.957984
17 1 -1.1104 3.96158 2.69413 1.09952
18 2 2.2208 2.55372 1.23773 2.55559
19 1 -1.1104 4.03097 -3.00127 3.84293
20 1 -1.1104 4.05501 2.67037 3.99647
21 2 2.2208 2.56353 -1.71334 5.17219
22 2 2.2208 2.57121 3.99726 5.28659
23 1 -1.1104 3.89631 -0.182086 1.11278
24 1 -1.1104 3.88093 -0.20226 3.86045
173 1 -1.1104 3.87236 2.72664 6.64907
26 2 2.2208 13.8387 18.1003 8.02724
9644 2 2.2208 -0.298482 3.95157 2.45675
4 1 -1.1104 6.7941 -2.89344 0.92271
15 1 -1.1104 6.76553 -0.329172 3.89974
9 1 -1.1104 6.68349 2.47417 3.73981
11 1 -1.1104 6.91489 -0.13953 1.08947
5 1 -1.1104 6.80704 2.68791 1.03207
8 1 -1.1104 6.80372 -2.95595 3.59724
31 2 2.2208 10.8991 1.25071 5.24073
32 1 -1.1104 12.3852 -2.95218 1.13169
33 1 -1.1104 12.2866 2.59521 0.907167
34 1 -1.1104 12.4957 -2.96819 3.80107
35 1 -1.1104 12.2763 2.73946 3.88998
36 1 -1.1104 12.3529 -0.221387 0.850534
37 2 2.2208 10.9864 -1.43858 2.38749
38 2 2.2208 10.9295 4.18678 2.32669
39 1 -1.1104 12.3613 -0.0445732 3.81371
40 1 -1.1104 9.6374 -2.98735 1.12884
41 1 -1.1104 9.65554 2.86258 1.04981
42 2 2.2208 8.19872 1.29125 2.53734
43 1 -1.1104 9.57061 -2.89563 3.98221
44 1 -1.1104 9.50169 2.59994 3.81871
45 2 2.2208 8.05752 -1.70937 5.14445
46 2 2.2208 8.18811 4.08298 5.21112
47 1 -1.1104 9.47106 -0.0125968 0.923471
48 1 -1.1104 9.5886 -0.125891 3.83769
206 1 -1.1104 12.2438 2.64415 6.64972
28 2 2.2208 13.6892 21.0309 10.8262
203 2 2.2208 13.8537 6.96103 7.99981
83 2 2.2208 -0.24093 12.6086 5.27113
54 2 2.2208 5.31236 7.00208 5.31365
55 2 2.2208 5.26265 12.5756 5.22759
56 1 -1.1104 1.07151 8.26293 1.13603
58 1 -1.1104 1.07737 8.6388 3.81886
60 1 -1.1104 1.14907 5.55786 1.11339
61 1 -1.1104 1.14849 11.1961 0.910824
66 2 2.2208 5.24477 9.67663 2.43161
67 1 -1.1104 1.15836 5.50235 4.02978
68 1 -1.1104 0.975554 11.3783 3.82835
71 1 -1.1104 3.89553 8.23712 0.825192
72 2 2.2208 2.50429 6.93275 2.49882
73 2 2.2208 2.47447 12.521 2.48263
74 1 -1.1104 3.79697 8.35102 3.75722
75 2 2.2208 2.66172 9.66601 5.21788
76 1 -1.1104 3.9951 5.353 1.11121
77 1 -1.1104 3.83771 11.0131 1.37733
79 1 -1.1104 3.89145 5.57292 3.8596
80 1 -1.1104 3.91468 11.1916 3.95047
64 1 -1.1104 6.55076 11.17 1.08515
238 1 -1.1104 3.85875 8.24603 6.74843
236 1 -1.1104 1.39419 5.38566 6.78159
234 1 -1.1104 1.11432 8.34109 6.52322
232 2 2.2208 13.5451 20.8761 5.2692
62 1 -1.1104 1.24451 11.1815 6.58806
78 1 -1.1104 3.87829 11.2033 6.73436
82 2 2.2208 -0.326124 9.83295 2.5066
200 2 2.2208 -0.294928 -1.46845 8.14344
104 2 2.2208 13.6536 12.3832 2.44782
63 1 -1.1104 6.78848 5.51276 1.18362
57 1 -1.1104 6.77011 8.37416 1.06894
59 1 -1.1104 6.66818 8.34833 3.79406
70 1 -1.1104 6.76813 11.0903 3.84567
69 1 -1.1104 6.7735 5.47134 3.94803
84 2 2.2208 10.9198 6.90836 5.24574
85 2 2.2208 10.8471 12.6349 5.28885
86 1 -1.1104 12.3284 8.25054 1.05665
87 1 -1.1104 12.2275 8.20109 3.90933
88 1 -1.1104 12.2948 5.64442 0.986489
89 1 -1.1104 12.2936 11.0015 0.934577
91 2 2.2208 10.8789 9.62088 2.4848
92 1 -1.1104 12.4488 5.45451 3.77394
93 1 -1.1104 12.2017 10.9944 4.00559
94 1 -1.1104 9.50381 8.22253 1.20688
95 2 2.2208 8.07822 6.87421 2.46216
96 2 2.2208 8.16155 12.6223 2.48333
97 1 -1.1104 9.46203 8.3276 3.99566
98 2 2.2208 8.13123 9.76937 5.28197
99 1 -1.1104 9.4347 5.49944 0.993118
100 1 -1.1104 9.50042 11.1198 1.11193
102 1 -1.1104 9.601 5.5082 3.74517
103 1 -1.1104 9.50375 11.0767 3.90804
90 1 -1.1104 12.2423 11.2274 6.69713
101 1 -1.1104 9.40002 11.1649 6.61318
235 1 -1.1104 6.80701 8.33044 6.60973
106 2 2.2208 5.25353 18.1312 5.09072
107 1 -1.1104 1.08411 14.1275 0.991488
109 1 -1.1104 0.940181 19.6976 0.853198
113 1 -1.1104 1.052 14.1721 3.86463
114 1 -1.1104 0.987559 19.5594 3.67868
116 1 -1.1104 1.10906 16.9635 1.05925
119 2 2.2208 5.23369 15.375 2.23008
120 2 2.2208 5.35981 20.9818 2.36845
121 1 -1.1104 1.03058 16.9559 3.82532
123 1 -1.1104 3.82173 13.902 1.06985
125 1 -1.1104 3.84367 19.5598 0.951117
127 2 2.2208 2.4634 18.2799 2.35245
128 1 -1.1104 3.86331 14.0166 3.86607
129 1 -1.1104 3.87238 19.5093 3.70406
130 2 2.2208 2.4238 15.4321 5.15868
131 2 2.2208 2.53516 20.9313 5.1954
132 1 -1.1104 3.98196 16.833 0.965241
134 1 -1.1104 3.88518 16.7885 3.6725
115 1 -1.1104 6.82641 13.8749 4.01293
108 1 -1.1104 1.04155 13.905 6.67373
124 1 -1.1104 3.93068 13.9406 6.62068
136 2 2.2208 -0.348394 21.0949 2.21845
135 2 2.2208 -0.448992 15.4355 2.31666
126 1 -1.1104 3.8546 19.7029 6.47047
133 1 -1.1104 3.74815 16.7396 6.49011
302 1 -1.1104 1.04251 19.5595 6.60074
315 1 -1.1104 9.56778 16.5991 12.1652
110 1 -1.1104 6.72716 14.0112 1.11809
138 1 -1.1104 6.73625 19.5932 1.03924
139 1 -1.1104 6.55006 19.6215 3.82518
140 1 -1.1104 6.77901 16.7375 0.959463
122 1 -1.1104 6.67184 16.7628 3.71328
111 1 -1.1104 6.81507 13.8929 6.62788
118 1 -1.1104 6.64124 16.8011 6.43284
145 1 -1.1104 12.246 19.5687 6.6663
141 2 2.2208 11.006 18.0121 5.19939
142 1 -1.1104 12.3109 13.9436 1.19983
144 1 -1.1104 12.2953 19.5612 1.08664
146 1 -1.1104 12.3172 13.8476 3.90155
147 1 -1.1104 12.1707 19.6176 3.85981
148 1 -1.1104 12.2931 16.6103 0.992816
150 2 2.2208 10.85 15.4036 2.35184
151 2 2.2208 10.9084 20.9029 2.41683
152 1 -1.1104 12.2316 16.6632 3.7182
153 1 -1.1104 9.46852 13.9668 0.969697
155 1 -1.1104 9.41904 19.5626 0.95868
157 2 2.2208 8.0312 18.232 2.32422
158 1 -1.1104 9.51747 13.9561 3.68014
159 1 -1.1104 9.36199 19.5179 3.78828
160 2 2.2208 8.08148 15.3145 5.07427
161 2 2.2208 7.99397 21.0065 5.28395
162 1 -1.1104 9.5139 16.8667 1.11268
164 1 -1.1104 9.53207 16.8669 3.71387
163 1 -1.1104 9.42127 16.8663 6.57168
143 1 -1.1104 12.298 13.823 6.76758
112 1 -1.1104 6.55989 19.4621 6.57097
156 1 -1.1104 9.5251 19.597 6.50042
154 1 -1.1104 9.52639 14.0432 6.61817
168 1 -1.1104 6.6295 -2.96775 6.49611
171 1 -1.1104 6.64826 -0.142221 6.63392
174 1 -1.1104 3.80196 -0.119097 6.58091
170 1 -1.1104 0.985433 -0.00969834 6.82028
172 1 -1.1104 3.96935 -3.03663 6.74964
167 1 -1.1104 1.12041 2.64345 6.69852
165 2 2.2208 13.7082 18.1427 2.34605
51 2 2.2208 -0.224878 12.4726 10.8887
9476 2 2.2208 -0.258469 4.09157 8.08096
166 1 -1.1104 1.16745 -2.90744 6.81197
175 2 2.2208 5.4276 1.27719 10.7956
176 1 -1.1104 1.02888 -2.86116 12.3083
177 1 -1.1104 0.964893 2.73163 12.0523
180 1 -1.1104 1.01422 -2.88579 9.56204
181 1 -1.1104 1.14289 2.61249 9.53475
184 1 -1.1104 1.04637 -0.0846474 12.2375
186 2 2.2208 5.30849 -1.58873 7.99998
187 2 2.2208 5.40967 4.1911 8.0107
188 1 -1.1104 1.30778 0.0439159 9.56915
190 1 -1.1104 3.87468 -2.94177 12.3215
191 1 -1.1104 3.86314 2.60505 12.1471
192 2 2.2208 2.614 1.21084 8.03657
193 1 -1.1104 3.69388 -2.8194 9.65839
194 1 -1.1104 4.06787 2.59352 9.39533
195 2 2.2208 2.44015 -1.51204 10.9617
196 2 2.2208 2.5925 3.96417 10.8317
197 1 -1.1104 3.923 -0.318265 12.3389
198 1 -1.1104 4.18371 -0.208235 9.4264
178 1 -1.1104 6.78983 -2.84956 12.2967
137 2 2.2208 -0.375382 18.2429 5.19647
9475 2 2.2208 -0.267332 1.33249 10.9086
325 2 2.2208 -0.205073 15.1852 13.5839
208 1 -1.1104 9.44239 -2.88987 6.74033
207 1 -1.1104 12.192 -0.25675 6.61876
209 1 -1.1104 9.41961 2.67251 6.52318
205 1 -1.1104 12.1822 -2.99945 6.67549
312 2 2.2208 -0.201906 17.9406 10.7817
318 1 -1.1104 9.49225 19.5699 9.36533
169 1 -1.1104 6.65872 2.59653 6.56056
179 1 -1.1104 6.69952 2.60747 12.1559
182 1 -1.1104 6.54859 -2.86831 9.28926
185 1 -1.1104 6.6531 -0.0291027 12.1447
189 1 -1.1104 6.77357 -0.177774 9.28803
183 1 -1.1104 6.80368 2.73408 9.30191
210 1 -1.1104 9.34251 -0.109307 6.5681
211 2 2.2208 10.9226 1.14922 10.8364
212 1 -1.1104 12.4072 -3.09221 12.2535
213 1 -1.1104 12.2615 2.48814 12.0614
214 1 -1.1104 12.2416 -2.78266 9.53371
215 1 -1.1104 12.497 2.50847 9.3836
216 1 -1.1104 12.3407 -0.271398 12.2824
217 2 2.2208 10.838 -1.56424 8.03577
218 2 2.2208 10.925 4.10909 8.04538
219 1 -1.1104 12.3404 -0.166282 9.44628
220 1 -1.1104 9.6143 -2.98032 12.1217
221 1 -1.1104 9.42583 2.62691 12.2918
222 2 2.2208 8.15779 1.27088 7.96347
223 1 -1.1104 9.41896 -3.02973 9.38641
224 1 -1.1104 9.58035 2.69782 9.41957
225 2 2.2208 8.05991 -1.56377 10.738
226 2 2.2208 8.10837 4.02923 10.8216
227 1 -1.1104 9.55742 -0.0886439 12.2177
228 1 -1.1104 9.52093 -0.183272 9.4231
313 2 2.2208 -0.341332 15.3399 8.05012
562 2 2.2208 10.8195 20.9077 13.676
9735 2 2.2208 -0.313906 -1.58291 2.41892
239 1 -1.1104 3.98167 5.69202 6.54525
81 2 2.2208 -0.267002 6.93092 5.17494
29 2 2.2208 -0.254351 6.82531 10.8682
240 2 2.2208 5.36628 6.95351 10.8765
241 2 2.2208 5.27194 12.5119 10.8073
242 1 -1.1104 1.14233 8.21074 12.1994
244 1 -1.1104 1.12154 8.27668 9.38791
246 1 -1.1104 1.22476 5.44681 12.1866
247 1 -1.1104 1.11915 11.1156 12.3196
250 2 2.2208 5.33881 9.6934 8.12288
251 1 -1.1104 1.23607 5.48948 9.45092
252 1 -1.1104 1.16865 11.1208 9.3757
255 1 -1.1104 4.02408 8.29295 12.2255
256 2 2.2208 2.52215 6.90583 8.10558
257 2 2.2208 2.59652 12.6025 8.05149
258 1 -1.1104 4.06754 8.27986 9.47987
259 2 2.2208 2.44171 9.78897 10.8349
260 1 -1.1104 3.95982 5.36068 12.4174
261 1 -1.1104 3.89635 10.9465 12.2709
262 1 -1.1104 4.14244 5.46773 9.40481
263 1 -1.1104 4.07988 11.1497 9.47561
243 1 -1.1104 6.82629 8.25141 12.3532
254 1 -1.1104 6.76478 11.1889 9.40386
288 1 -1.1104 6.74553 19.5159 9.41302
30 2 2.2208 -0.149218 9.79404 7.94077
345 2 2.2208 -0.238986 9.50757 13.7418
237 1 -1.1104 6.87108 5.54487 6.75485
65 1 -1.1104 6.65513 11.0455 6.66591
323 2 2.2208 13.7415 4.12266 5.16957
267 1 -1.1104 9.63855 8.21246 6.69448
265 1 -1.1104 12.4212 8.53203 6.69193
266 1 -1.1104 12.3881 5.49907 6.65954
245 1 -1.1104 6.83166 8.31985 9.49452
249 1 -1.1104 6.68476 11.1078 12.1982
248 1 -1.1104 6.73424 5.47012 12.2659
253 1 -1.1104 6.74215 5.50615 9.40248
269 1 -1.1104 9.61122 5.50218 6.52118
264 1 -1.1104 9.49001 11.0345 9.39856
268 1 -1.1104 9.47079 5.37626 9.43378
270 1 -1.1104 9.62215 11.0507 12.307
271 1 -1.1104 9.55762 5.55265 12.4071
272 2 2.2208 8.1137 9.6129 10.8646
273 1 -1.1104 9.6031 8.23887 9.53077
274 2 2.2208 8.11001 12.4158 7.95512
275 2 2.2208 8.17361 6.89498 8.08164
276 2 2.2208 10.9799 6.80638 10.9226
277 2 2.2208 10.9782 12.5051 10.9674
278 1 -1.1104 12.4062 8.24565 12.2984
279 1 -1.1104 12.3418 8.30917 9.56765
280 1 -1.1104 12.4584 5.40936 12.0659
281 1 -1.1104 12.3723 11.0839 12.2445
282 2 2.2208 10.9396 9.67506 7.97551
283 1 -1.1104 12.2547 5.40609 9.36441
284 1 -1.1104 12.3084 10.9061 9.52494
285 1 -1.1104 9.54775 8.28252 12.3291
317 2 2.2208 8.17022 15.3889 10.8414
230 1 -1.1104 12.1712 16.6591 9.40233
117 1 -1.1104 0.960793 16.6939 6.49093
320 2 2.2208 8.04362 18.275 7.9168
50 1 -1.1104 12.3399 19.5748 12.3349
330 2 2.2208 10.9387 3.98859 13.6707
306 1 -1.1104 6.84413 16.8251 11.9602
296 1 -1.1104 6.76704 19.5261 12.3124
297 1 -1.1104 6.61272 13.8838 12.3196
290 1 -1.1104 6.77511 13.8783 9.56702
286 1 -1.1104 4.04619 19.508 12.0175
287 1 -1.1104 3.88228 13.8503 12.2192
291 1 -1.1104 1.118 19.4883 9.46352
292 1 -1.1104 1.12543 16.652 9.3657
293 2 2.2208 5.24871 20.9165 8.03595
294 1 -1.1104 1.2883 13.9097 9.42305
295 2 2.2208 5.36384 15.29 7.96815
298 1 -1.1104 1.1285 19.4113 12.2544
299 1 -1.1104 1.19087 13.8289 12.1999
300 2 2.2208 5.31609 18.0562 10.7189
301 1 -1.1104 4.06312 19.3472 9.22249
303 2 2.2208 2.5906 18.1185 7.98511
304 1 -1.1104 3.8206 16.6068 9.37546
305 1 -1.1104 4.03566 13.8635 9.33697
307 1 -1.1104 1.22239 16.5848 12.1002
308 1 -1.1104 4.00388 16.6621 12.2379
309 2 2.2208 2.47458 20.9092 10.8016
310 2 2.2208 2.61416 15.2319 10.7632
289 1 -1.1104 6.61569 16.8313 9.22925
436 2 2.2208 8.21524 1.17708 13.6775
352 2 2.2208 8.22694 -1.50753 -0.417519
338 2 2.2208 5.25128 20.9332 13.6545
49 1 -1.1104 12.4099 13.7266 12.197
229 2 2.2208 10.8542 20.9777 8.04268
201 2 2.2208 10.7383 15.2998 8.0694
316 2 2.2208 8.0038 20.9171 10.8788
53 1 -1.1104 12.2836 13.8486 9.40704
27 2 2.2208 11.0292 18.1107 10.9168
105 1 -1.1104 12.3179 19.524 9.53701
199 1 -1.1104 12.388 16.7011 12.1058
319 1 -1.1104 9.5499 13.7837 9.55696
149 1 -1.1104 12.164 16.6548 6.61891
321 1 -1.1104 9.56195 19.4721 12.1991
322 1 -1.1104 9.64265 13.9124 12.3536
314 1 -1.1104 9.48083 16.7788 9.39722
334 2 2.2208 8.14486 6.88662 13.642
403 2 2.2208 5.32902 -1.58918 13.6451
337 2 2.2208 2.57591 18.0669 13.5959
329 2 2.2208 5.33634 3.91278 13.6362
657 2 2.2208 5.15996 12.4037 -0.296616
340 2 2.2208 11.1294 15.2909 13.5471
327 2 2.2208 -0.220967 3.99323 13.655
342 2 2.2208 5.30895 1.23727 -0.35522
357 2 2.2208 5.30189 6.76746 -0.406898
361 2 2.2208 8.06652 9.78197 -0.357702
350 2 2.2208 5.3036 18.1353 -0.483773
343 2 2.2208 2.61503 -1.58327 -0.291722
363 2 2.2208 5.35551 1.24897 16.3542
364 1 -1.1104 1.26247 -2.99782 17.9026
365 1 -1.1104 1.20588 2.71231 17.8492
368 1 -1.1104 1.1035 -2.92717 15.1142
370 1 -1.1104 1.23079 2.53934 14.9479
376 1 -1.1104 1.18669 -0.035266 17.8246
378 2 2.2208 5.4444 -1.47054 19.2397
379 2 2.2208 5.28767 4.12075 19.2298
380 1 -1.1104 1.17555 -0.179618 14.9559
384 1 -1.1104 4.04839 -2.84291 17.8462
385 1 -1.1104 3.94453 2.59141 17.8384
386 2 2.2208 2.57704 1.18984 19.3465
387 1 -1.1104 3.89091 -3.06312 15.1709
389 1 -1.1104 3.85884 2.41292 14.8664
391 2 2.2208 2.61478 -1.59347 16.3752
392 2 2.2208 2.51215 3.96152 16.4206
393 1 -1.1104 4.11475 -0.218609 17.7442
394 1 -1.1104 3.96186 -0.420911 14.9362
390 1 -1.1104 3.97845 2.8066 20.6625
381 1 -1.1104 1.03931 -0.36616 20.7834
369 1 -1.1104 1.18899 -3.00954 20.5484
371 1 -1.1104 1.15667 2.47331 20.8048
432 2 2.2208 13.7281 20.9691 16.415
400 2 2.2208 -0.184853 -1.57435 19.2088
399 2 2.2208 -0.28116 1.17509 16.3532
398 2 2.2208 -0.252175 4.05436 19.2487
9241 2 2.2208 5.38115 -4.42348 22.0317
9062 2 2.2208 8.30222 -4.39265 24.9478
9102 2 2.2208 10.9532 -4.3129 22.1443
598 2 2.2208 -0.336255 15.5037 24.7506
382 1 -1.1104 7.00471 -0.245365 14.8749
377 1 -1.1104 6.86938 -0.127991 17.7451
367 1 -1.1104 6.69903 2.58733 17.8674
372 1 -1.1104 6.7054 -2.87741 15.0215
374 1 -1.1104 6.76172 2.58051 14.991
366 1 -1.1104 7.0011 -2.96229 17.8349
406 2 2.2208 10.9697 1.20284 16.4493
407 1 -1.1104 12.6687 -3.00907 17.8295
408 1 -1.1104 12.3266 2.63141 17.6842
409 1 -1.1104 12.3336 -2.96702 14.9495
411 1 -1.1104 12.3319 2.51294 14.9525
413 1 -1.1104 12.4518 -0.317147 17.844
414 2 2.2208 11.0432 -1.43864 19.2444
415 2 2.2208 10.8664 4.02697 19.4018
416 1 -1.1104 12.3503 -0.263068 14.9606
418 1 -1.1104 9.80566 -2.80851 17.9151
419 1 -1.1104 9.52657 2.69782 17.9108
420 2 2.2208 8.28065 1.2047 19.2345
421 1 -1.1104 9.51999 -3.00598 14.9216
423 1 -1.1104 9.5527 2.63537 15.0715
425 2 2.2208 8.23075 -1.56591 16.452
426 2 2.2208 8.10503 4.01672 16.4449
427 1 -1.1104 9.63827 0.0140386 17.8135
428 1 -1.1104 9.78477 -0.211196 15.0159
417 1 -1.1104 12.4207 -0.104029 20.7112
592 2 2.2208 -0.317216 18.2654 22.0455
429 1 -1.1104 9.53378 -0.186177 20.5947
536 1 -1.1104 9.53119 13.9499 26.3325
412 1 -1.1104 12.4413 2.54985 20.645
439 2 2.2208 5.3737 6.90214 16.4589
440 2 2.2208 5.39427 12.4418 16.4975
441 1 -1.1104 1.22946 8.16279 17.8168
443 1 -1.1104 1.15288 8.14327 14.9903
447 1 -1.1104 1.0002 5.40864 17.7707
448 1 -1.1104 1.07193 11.1097 17.8397
451 2 2.2208 5.22322 9.6914 19.2244
452 1 -1.1104 1.24801 5.29623 15.0422
454 1 -1.1104 1.21846 10.8728 15.0573
460 1 -1.1104 4.03146 8.30521 17.869
461 2 2.2208 2.63057 6.83363 19.3117
462 2 2.2208 2.51736 12.4161 19.2826
463 1 -1.1104 3.7927 8.27868 15.0793
465 2 2.2208 2.58762 9.693 16.4927
466 1 -1.1104 3.86681 5.40255 17.9522
467 1 -1.1104 4.09876 11.0817 17.9283
468 1 -1.1104 4.08305 5.32429 15.253
470 1 -1.1104 4.1057 11.1293 15.2069
442 1 -1.1104 6.88697 8.26911 17.9133
450 1 -1.1104 6.88367 11.0231 17.9519
464 1 -1.1104 4.04404 8.3323 20.6162
471 1 -1.1104 3.82642 11.2057 20.7311
469 1 -1.1104 3.97644 5.53285 20.8249
455 1 -1.1104 1.18826 11.0354 20.6202
453 1 -1.1104 1.19153 5.48945 20.6803
596 2 2.2208 -0.298956 6.77103 16.4821
597 2 2.2208 -0.190146 9.83664 19.1979
458 1 -1.1104 6.76422 11.0689 14.9338
445 1 -1.1104 6.73483 8.35447 14.9905
449 1 -1.1104 6.76705 5.56893 17.7383
456 1 -1.1104 6.7213 5.44953 15.1278
457 1 -1.1104 6.65561 5.53642 20.6783
446 1 -1.1104 6.80836 8.31215 20.7614
459 1 -1.1104 6.59711 11.1565 20.6659
474 1 -1.1104 12.2385 16.7028 26.2894
475 2 2.2208 10.9467 6.85405 16.4903
476 2 2.2208 11.0702 12.6009 16.4465
477 1 -1.1104 12.5299 8.34462 17.9041
478 1 -1.1104 12.4136 8.3652 15.0439
480 1 -1.1104 12.5383 5.55954 17.7865
481 1 -1.1104 12.3373 11.2587 17.7673
482 2 2.2208 11.0787 9.706 19.2599
483 1 -1.1104 12.2222 5.44392 14.8889
485 1 -1.1104 12.5904 11.0209 14.9938
487 1 -1.1104 9.67355 8.3015 17.9312
488 2 2.2208 8.2231 6.81254 19.3276
489 2 2.2208 8.34898 12.5456 19.2317
490 1 -1.1104 9.65025 8.30849 15.1034
492 2 2.2208 8.1896 9.56474 16.3529
493 1 -1.1104 9.52246 5.41946 18.034
494 1 -1.1104 9.75102 11.1703 17.8658
495 1 -1.1104 9.42237 5.50314 15.1749
497 1 -1.1104 9.68513 11.0889 15.0521
496 1 -1.1104 9.55058 5.51102 20.849
630 1 -1.1104 12.4125 13.9477 23.4304
405 1 -1.1104 12.4251 19.6323 26.2464
563 2 2.2208 8.14778 15.4388 22.0982
486 1 -1.1104 12.4439 10.9197 20.591
484 1 -1.1104 12.3282 5.33493 20.5632
502 2 2.2208 5.34117 18.1233 16.4633
503 1 -1.1104 1.22033 13.9042 17.8098
504 1 -1.1104 1.12039 19.394 17.7539
507 1 -1.1104 1.23894 13.8378 15.1267
509 1 -1.1104 1.13277 19.3206 14.964
515 1 -1.1104 1.0437 16.6126 17.8358
517 2 2.2208 5.35439 15.2632 19.2187
518 2 2.2208 5.2597 21.0132 19.1653
519 1 -1.1104 1.13288 16.6492 14.8664
523 1 -1.1104 3.96911 13.7768 17.7989
524 1 -1.1104 4.01778 19.6273 17.765
525 2 2.2208 2.46837 18.1346 19.2151
526 1 -1.1104 3.98053 13.9463 14.8303
528 1 -1.1104 3.88179 19.4461 14.9683
530 2 2.2208 2.61739 15.3763 16.4763
531 2 2.2208 2.41991 20.8068 16.3112
532 1 -1.1104 3.9234 16.7169 17.9816
533 1 -1.1104 3.94201 16.7108 15.0942
511 1 -1.1104 6.82042 13.887 15.0087
510 1 -1.1104 1.08402 19.5673 20.5078
516 1 -1.1104 6.89295 16.6942 17.7502
537 1 -1.1104 9.52465 19.559 26.295
520 1 -1.1104 1.13575 16.8809 20.59
534 1 -1.1104 3.92491 16.7235 20.7343
336 2 2.2208 8.242 12.5217 13.6766
591 1 -1.1104 9.42684 16.7493 26.4316
521 1 -1.1104 6.79971 16.7679 14.8707
506 1 -1.1104 6.64177 19.5325 17.9749
505 1 -1.1104 6.84202 13.9699 17.8838
513 1 -1.1104 6.7965 19.4874 15.0976
401 1 -1.1104 12.243 13.8903 26.3704
538 2 2.2208 10.9949 18.0698 16.4476
539 1 -1.1104 12.4082 13.8454 17.8441
540 1 -1.1104 12.228 19.5714 17.8297
541 1 -1.1104 12.4769 13.892 15.0397
543 1 -1.1104 12.3992 19.5774 15.082
545 1 -1.1104 12.327 16.6771 17.9827
546 2 2.2208 10.9667 15.3562 19.3154
547 2 2.2208 10.8853 20.9511 19.307
548 1 -1.1104 12.3954 16.7933 15.0017
550 1 -1.1104 9.74428 14.0598 17.8317
551 1 -1.1104 9.41829 19.4801 17.824
552 2 2.2208 8.14452 18.173 19.1886
553 1 -1.1104 9.62663 13.8868 15.1511
555 1 -1.1104 9.553 19.5386 14.9781
557 2 2.2208 8.2349 15.3938 16.349
558 2 2.2208 8.12651 20.9262 16.4224
559 1 -1.1104 9.63179 16.8026 17.9074
560 1 -1.1104 9.55564 16.7844 14.9472
554 1 -1.1104 9.48025 14.0215 20.7303
556 1 -1.1104 9.59609 19.4524 20.5989
623 2 2.2208 -0.328408 12.4789 16.352
549 1 -1.1104 12.3041 16.7405 20.8534
512 1 -1.1104 6.75597 14.0254 20.7605
542 1 -1.1104 12.4234 13.855 20.7319
522 1 -1.1104 6.82036 16.7252 20.6266
561 1 -1.1104 9.48229 16.8166 20.7587
544 1 -1.1104 12.3783 19.4571 20.5732
331 2 2.2208 2.58942 6.70255 13.7199
388 1 -1.1104 4.01853 -3.0983 20.6168
395 1 -1.1104 3.83599 -0.168196 20.6366
566 2 2.2208 5.33662 1.23461 22.0574
567 1 -1.1104 1.16063 -2.92036 23.4155
568 1 -1.1104 1.18224 2.75504 23.4764
571 1 -1.1104 1.1478 -2.95064 26.2837
572 1 -1.1104 1.12333 2.69848 26.3051
575 1 -1.1104 1.2778 -0.194057 23.5492
577 2 2.2208 5.43957 -1.50921 24.8829
578 2 2.2208 5.46222 4.12431 24.8731
579 1 -1.1104 1.16921 -0.232919 26.3896
581 1 -1.1104 4.00222 -3.03451 23.4647
582 1 -1.1104 4.09674 2.68535 23.3765
583 2 2.2208 2.5877 1.29294 24.901
584 1 -1.1104 3.95166 -2.72292 26.2623
585 1 -1.1104 3.87532 2.65121 26.186
586 2 2.2208 2.51826 -1.66869 22.0693
587 2 2.2208 2.59914 3.95723 22.0903
588 1 -1.1104 4.09175 -0.253511 23.4893
589 1 -1.1104 3.97673 -0.132274 26.4711
576 1 -1.1104 6.89411 -0.200091 23.4422
580 1 -1.1104 6.83274 0.0656524 26.2967
9984 2 2.2208 -0.149466 -1.6299 24.8526
573 1 -1.1104 6.78226 -2.78448 26.269
500 1 -1.1104 9.5565 19.6846 23.5326
9835 2 2.2208 -0.285152 4.05038 24.8725
499 1 -1.1104 9.6221 14.0083 23.4715
344 2 2.2208 2.5368 4.0659 27.8185
375 1 -1.1104 6.80262 2.76983 20.6649
373 1 -1.1104 6.67199 -2.93685 20.7111
383 1 -1.1104 6.5969 -0.0726729 20.5978
410 1 -1.1104 12.3626 -2.81618 20.6973
424 1 -1.1104 9.55398 2.6312 20.7937
422 1 -1.1104 9.47632 -3.07511 20.7538
659 2 2.2208 -0.224037 9.72557 24.7808
332 2 2.2208 5.40151 9.75397 13.7148
574 1 -1.1104 6.66268 2.76898 26.3205
569 1 -1.1104 6.89443 -2.9199 23.5011
570 1 -1.1104 6.91737 2.66376 23.5612
602 2 2.2208 10.8603 1.34795 22.1055
603 1 -1.1104 12.4473 -2.82363 23.589
604 1 -1.1104 12.3978 2.72225 23.4666
605 1 -1.1104 12.2939 -2.81332 26.3215
606 1 -1.1104 12.3191 2.69012 26.1243
607 1 -1.1104 12.2718 0.00967153 23.3526
608 2 2.2208 11.065 -1.3918 24.8739
609 2 2.2208 10.893 4.20592 25.0261
610 1 -1.1104 12.5307 -0.055687 26.1315
611 1 -1.1104 9.82558 -2.95813 23.577
612 1 -1.1104 9.54166 2.70459 23.6021
613 2 2.2208 8.18747 1.30556 24.8338
614 1 -1.1104 9.58397 -2.98946 26.3616
615 1 -1.1104 9.48185 2.54587 26.3243
616 2 2.2208 8.26223 -1.46602 22.191
617 2 2.2208 8.18683 4.14784 22.1544
618 1 -1.1104 9.55623 -0.168075 23.382
619 1 -1.1104 9.65495 -0.225799 26.1778
10011 2 2.2208 -0.245664 6.85119 21.954
444 1 -1.1104 1.24584 8.30727 20.5473
362 2 2.2208 10.9131 12.4764 27.7861
631 2 2.2208 5.42451 6.80691 22.1256
632 2 2.2208 5.31158 12.5153 22.0657
633 1 -1.1104 1.18151 8.23771 23.388
635 1 -1.1104 1.06995 8.37929 26.2605
637 1 -1.1104 1.15985 5.39537 23.3989
638 1 -1.1104 1.15058 11.1334 23.4774
641 2 2.2208 5.28375 9.5993 24.9458
642 1 -1.1104 1.12035 5.5672 26.2907
643 1 -1.1104 1.221 11.097 26.1681
646 1 -1.1104 3.97088 8.24379 23.3915
647 2 2.2208 2.43347 6.84082 24.8776
648 2 2.2208 2.61505 12.5071 24.88
649 1 -1.1104 3.753 8.28065 26.2538
650 2 2.2208 2.52352 9.66101 22.2296
651 1 -1.1104 3.98308 5.51603 23.66
652 1 -1.1104 4.02736 10.9975 23.5359
653 1 -1.1104 3.96923 5.35116 26.3999
654 1 -1.1104 4.0071 11.0232 26.3219
639 1 -1.1104 6.91433 5.49103 23.6551
349 2 2.2208 2.46543 15.451 27.7014
501 2 2.2208 8.08896 18.1663 24.969
9737 2 2.2208 -0.330946 7.03893 27.6946
661 1 -1.1104 12.4771 19.4935 23.4774
491 1 -1.1104 9.63141 8.37616 20.7883
498 1 -1.1104 9.64258 11.2093 20.6839
696 1 -1.1104 6.72734 14.0168 23.619
360 2 2.2208 10.7863 7.01 27.7819
634 1 -1.1104 6.81243 8.31447 23.6253
640 1 -1.1104 6.73955 11.1774 23.4347
645 1 -1.1104 6.76275 11.0654 26.3575
636 1 -1.1104 6.64597 8.33108 26.4219
644 1 -1.1104 6.83861 5.51159 26.3916
479 1 -1.1104 12.4414 8.19681 20.7258
662 1 -1.1104 9.46972 11.0744 26.3187
663 1 -1.1104 9.55668 5.58966 26.3579
664 1 -1.1104 9.4464 11.3151 23.4997
665 1 -1.1104 9.59514 5.54642 23.4499
666 2 2.2208 8.16682 9.86867 22.0997
667 1 -1.1104 9.51226 8.46398 26.3917
668 2 2.2208 8.00027 12.5519 24.9525
669 2 2.2208 8.26468 6.94119 24.9727
670 2 2.2208 11.0417 6.86494 22.1274
671 2 2.2208 10.9482 12.5332 22.1472
672 1 -1.1104 12.4086 8.19857 23.5583
673 1 -1.1104 12.2872 8.40483 26.285
674 1 -1.1104 12.3325 5.44734 23.4247
675 1 -1.1104 12.3198 11.1717 23.3579
676 2 2.2208 10.9137 9.8413 24.8719
677 1 -1.1104 12.2576 5.7255 26.3396
678 1 -1.1104 12.4498 11.2131 26.0353
679 1 -1.1104 9.61584 8.24047 23.633
689 1 -1.1104 6.54802 16.7677 26.1865
601 2 2.2208 8.12372 15.3785 27.6445
527 1 -1.1104 3.96765 13.915 20.5794
514 1 -1.1104 6.51275 19.5497 20.7847
629 2 2.2208 10.9235 18.1956 22.1248
431 2 2.2208 -0.340599 20.9055 19.2528
438 1 -1.1104 12.3359 16.7736 23.6916
529 1 -1.1104 3.79986 19.4985 20.5561
508 1 -1.1104 1.09514 14.0428 20.5543
627 1 -1.1104 6.82872 16.7735 23.3677
695 2 2.2208 5.22515 15.3604 24.9073
620 2 2.2208 2.4165 15.3864 21.9896
621 2 2.2208 2.57203 20.944 22.0509
622 1 -1.1104 3.94436 16.7796 23.4022
624 1 -1.1104 1.18544 16.914 23.5024
628 1 -1.1104 3.93347 13.9661 26.3728
655 1 -1.1104 3.85201 16.67 26.2035
656 2 2.2208 2.62384 18.2021 24.8
658 1 -1.1104 3.89447 19.5598 26.2241
680 2 2.2208 5.29714 18.076 21.9196
681 1 -1.1104 1.10643 13.7342 23.2553
682 1 -1.1104 1.04335 19.5831 23.3864
686 1 -1.1104 4.00634 19.6983 23.3833
688 1 -1.1104 3.89749 14.0321 23.5539
690 1 -1.1104 1.18325 19.6073 26.0941
691 1 -1.1104 1.09404 16.6057 26.3345
692 1 -1.1104 1.13341 13.9241 26.3435
694 2 2.2208 5.27471 21.0069 24.879
687 1 -1.1104 6.63173 13.8385 26.4197
693 1 -1.1104 6.76486 19.6028 23.5246
564 2 2.2208 7.99321 20.8385 22.056
356 2 2.2208 8.18467 20.9794 27.6955
535 1 -1.1104 6.74774 19.5884 26.3205
590 1 -1.1104 9.56708 16.8601 23.5939
472 2 2.2208 10.9014 15.2699 24.842
473 2 2.2208 11.012 20.9156 24.788
351 2 2.2208 2.65596 21.0265 27.609
430 2 2.2208 -0.31296 15.2677 19.1503
9983 2 2.2208 -0.3758 1.14369 22.0058
660 2 2.2208 -0.270248 12.4829 21.8237
600 2 2.2208 13.8386 20.9594 22.0875
353 2 2.2208 8.20848 4.06295 27.7122
355 2 2.2208 10.946 18.1694 27.6906
358 2 2.2208 2.49008 9.59132 27.8046
9428 2 2.2208 2.51117 -4.40512 13.6832
437 2 2.2208 11.0252 -1.60382 13.507
347 2 2.2208 -0.420024 18.1523 27.6502
328 2 2.2208 -0.439864 -1.44939 13.7148
335 2 2.2208 11.0138 9.59126 13.7624
339 2 2.2208 5.28438 15.2503 13.5769
348 2 2.2208 10.9519 1.34064 27.6248
333 2 2.2208 2.48809 12.5005 13.6898
9756 2 2.2208 -0.26168 1.18844 27.7262
404 2 2.2208 2.44077 1.16266 13.4801
341 2 2.2208 8.15876 18.1114 13.5862
697 2 2.2208 5.26746 23.7507 5.27692
698 2 2.2208 5.22863 29.3986 5.35414
699 1 -1.1104 1.10442 25.2048 1.07727
700 1 -1.1104 1.17014 25.3363 3.87976
701 1 -1.1104 1.14122 22.4502 0.966823
702 1 -1.1104 0.989568 27.9879 0.842725
703 2 2.2208 5.20742 26.6021 2.43169
704 1 -1.1104 0.973704 22.5775 3.5835
705 1 -1.1104 1.09477 28.0568 3.64547
706 1 -1.1104 3.90021 25.1234 1.08664
707 2 2.2208 2.54825 23.8606 2.4123
708 2 2.2208 2.47631 29.3616 2.38595
709 1 -1.1104 3.95962 25.2461 3.90863
710 2 2.2208 2.3948 26.596 5.25692
711 1 -1.1104 3.9674 22.4183 1.08558
712 1 -1.1104 3.88729 27.9163 0.906374
713 1 -1.1104 3.76405 22.3707 3.83051
714 1 -1.1104 3.77723 28.0299 3.97466
722 1 -1.1104 6.57222 22.3776 3.91778
721 1 -1.1104 6.73089 28.0108 1.0631
723 1 -1.1104 6.58271 27.9619 3.86375
718 1 -1.1104 6.74864 25.2266 1.01782
840 1 -1.1104 1.07745 22.3372 6.42609
845 1 -1.1104 3.86507 22.4151 6.58298
1039 2 2.2208 -0.337966 37.6381 13.5398
720 1 -1.1104 6.58012 22.3425 1.02834
842 1 -1.1104 6.59556 22.3595 6.62251
719 1 -1.1104 6.72927 25.1013 3.7292
724 2 2.2208 10.8493 23.7974 5.16439
725 2 2.2208 10.8283 29.3545 5.09167
726 1 -1.1104 12.442 25.1655 0.97966
727 1 -1.1104 12.1853 25.0748 3.72552
728 1 -1.1104 12.3593 22.314 0.980869
729 1 -1.1104 12.1836 27.922 1.01492
730 2 2.2208 10.7743 26.4079 2.27293
731 1 -1.1104 12.3076 22.273 3.85096
732 1 -1.1104 12.2433 28.1274 3.76889
733 1 -1.1104 9.5207 25.1517 0.971562
734 2 2.2208 8.03181 23.748 2.54716
735 2 2.2208 8.06949 29.4457 2.54832
736 1 -1.1104 9.5276 25.1514 3.85814
737 2 2.2208 8.04656 26.5595 5.32767
738 1 -1.1104 9.52782 22.3611 1.1331
739 1 -1.1104 9.22754 28.1442 1.04222
740 1 -1.1104 9.28546 22.4457 3.69549
741 1 -1.1104 9.49955 27.8635 3.74061
876 1 -1.1104 9.23183 27.9117 6.73142
875 1 -1.1104 9.47009 22.4195 6.62917
872 1 -1.1104 12.2455 22.3737 6.61761
871 1 -1.1104 12.3881 25.2497 6.52925
873 1 -1.1104 12.153 27.9995 6.54771
1011 2 2.2208 10.8604 46.273 10.9793
1635 1 -1.1104 3.9174 47.5574 9.58719
745 2 2.2208 5.29885 35.0891 5.12099
746 1 -1.1104 1.02185 30.9176 0.938946
747 1 -1.1104 0.887999 36.4959 0.929092
749 1 -1.1104 1.04884 30.759 3.72402
750 1 -1.1104 0.907714 36.2798 3.92787
752 1 -1.1104 1.07012 33.7693 1.0998
753 2 2.2208 5.09377 32.2467 2.46216
754 2 2.2208 5.13192 37.8384 2.37284
755 1 -1.1104 0.85797 33.5856 3.78909
757 1 -1.1104 3.83162 30.8217 0.95586
758 1 -1.1104 3.65336 36.5232 0.892181
759 2 2.2208 2.37572 35.0916 2.40742
760 1 -1.1104 3.7564 30.7411 3.8135
761 1 -1.1104 3.86188 36.3659 3.61697
762 2 2.2208 2.38213 32.1485 5.13159
763 2 2.2208 2.36975 37.881 5.18038
764 1 -1.1104 3.78552 33.6769 1.02255
765 1 -1.1104 3.78369 33.6194 3.71907
770 1 -1.1104 6.60097 30.8279 3.69583
748 1 -1.1104 6.67941 36.4709 0.985009
902 1 -1.1104 3.92606 36.467 6.40907
895 1 -1.1104 0.958114 30.6853 6.70133
756 1 -1.1104 6.558 33.481 3.84449
751 1 -1.1104 6.5644 36.5673 3.81463
898 1 -1.1104 6.5512 36.4884 6.57548
897 1 -1.1104 6.52317 30.8129 6.68521
901 1 -1.1104 3.76575 30.7327 6.65069
899 1 -1.1104 0.881813 33.4644 6.6388
903 1 -1.1104 3.81634 33.5852 6.39212
1000 2 2.2208 10.8276 43.3457 8.01719
900 1 -1.1104 6.78959 33.6026 6.53931
769 1 -1.1104 6.61656 30.7439 1.05162
771 1 -1.1104 6.60119 33.541 0.972934
772 2 2.2208 10.8603 35.1308 5.17358
773 1 -1.1104 12.3171 30.8311 0.993049
774 1 -1.1104 12.1504 36.5791 0.851213
775 1 -1.1104 12.0771 31.0683 3.78565
776 1 -1.1104 12.232 36.5526 3.71894
777 1 -1.1104 12.1355 33.6958 1.09948
778 2 2.2208 10.9386 32.367 2.38803
779 2 2.2208 10.825 37.8801 2.3246
780 1 -1.1104 12.3737 33.8331 3.92765
781 1 -1.1104 9.55153 30.9506 1.10138
782 1 -1.1104 9.39433 36.5553 1.02628
783 2 2.2208 7.9339 35.1087 2.51648
784 1 -1.1104 9.28849 30.7532 4.04447
785 1 -1.1104 9.34295 36.4599 3.72422
786 2 2.2208 8.06164 32.1595 5.23173
787 2 2.2208 8.04942 38.0219 5.21066
788 1 -1.1104 9.34443 33.6939 0.950467
789 1 -1.1104 9.54453 33.7909 3.84581
932 1 -1.1104 9.34134 30.7514 6.61908
933 1 -1.1104 9.43108 36.5584 6.5611
929 1 -1.1104 12.0963 30.7874 6.50225
931 1 -1.1104 12.3021 33.56 6.75548