LAMMPS (29 Oct 2020)
OMP_NUM_THREADS environment is not set. Defaulting to 1 thread. (../comm.cpp:94)
  using 1 OpenMP thread(s) per MPI task
OMP_NUM_THREADS environment is not set. Defaulting to 1 thread. (../comm.cpp:94)
  using 1 OpenMP thread(s) per MPI task
Reading data file ...
  orthogonal box = (-0.36286005 -4.3125820 -0.3500659) to (27.702860 332.39258 27.690066)
  2 by 13 by 2 MPI processor grid
  reading atoms ...
  17730 atoms
  reading velocities ...
  17730 velocities
Finding 1-2 1-3 1-4 neighbors ...
  special bond factors lj:    0.0      0.0      0.0     
  special bond factors coul:  0.0      0.0      0.0     
     0 = max # of 1-2 neighbors
     0 = max # of 1-3 neighbors
     0 = max # of 1-4 neighbors
     1 = max # of special neighbors
  special bonds CPU = 0.003 seconds
  read_data CPU = 0.062 seconds
Setting atom values ...
  11820 settings made for charge
Setting atom values ...
  5910 settings made for charge
PPPM initialization ...
  using 12-bit tables for long-range coulomb (../kspace.cpp:328)
  G vector (1/distance) = 0.29882961
  grid = 40 240 40
  stencil order = 5
  estimated absolute RMS force accuracy = 0.00015651063
  estimated relative force accuracy = 1.0869062e-05
  using single precision MKL FFT
  3d grid and FFT values/proc = 15000 7600
Neighbor list info ...
  update every 1 steps, delay 0 steps, check yes
  max neighbors/atom: 2000, page size: 100000
  master list distance cutoff = 11.3
  ghost atom cutoff = 11.3
  binsize = 5.65, bins = 5 60 5
  2 neighbor lists, perpetual/occasional/extra = 2 0 0
  (1) pair coul/long, perpetual
      attributes: half, newton on
      pair build: half/bin/newton
      stencil: half/bin/3d/newton
      bin: standard
  (2) pair eam/alloy, perpetual, copy from (1)
      attributes: half, newton on
      pair build: copy
      stencil: none
      bin: none
Setting up Verlet run ...
  Unit style    : metal
  Current step  : 0
  Time step     : 0.001
Per MPI rank memory allocation (min/avg/max) = 8.153 | 8.181 | 8.202 Mbytes
Step Temp E_pair E_mol TotEng Press 
       0          600   -231787.46            0   -230412.46   -190.73637 
  100000    594.84187   -231768.44            0   -230405.27   -193.20658 
Loop time of 630.73 on 52 procs for 100000 steps with 17730 atoms

Performance: 13.698 ns/day, 1.752 hours/ns, 158.546 timesteps/s
99.8% CPU use with 52 MPI tasks x 1 OpenMP threads

MPI task timing breakdown:
Section |  min time  |  avg time  |  max time  |%varavg| %total
---------------------------------------------------------------
Pair    | 391.77     | 410.54     | 428.8      |  49.6 | 65.09
Bond    | 0.0063251  | 0.010448   | 0.016402   |   2.6 |  0.00
Kspace  | 145.77     | 165.37     | 185.36     |  83.5 | 26.22
Neigh   | 29.921     | 33.392     | 37.333     |  25.9 |  5.29
Comm    | 14.595     | 15.491     | 18.184     |  23.7 |  2.46
Output  | 6.0294e-05 | 6.5591e-05 | 0.00028138 |   0.0 |  0.00
Modify  | 3.0509     | 4.4375     | 6.4356     |  56.2 |  0.70
Other   |            | 1.485      |            |       |  0.24

Nlocal:        340.962 ave         367 max         316 min
Histogram: 3 1 6 7 9 12 6 5 0 3
Nghost:        4113.15 ave        4275 max        3942 min
Histogram: 3 4 4 5 7 9 9 5 2 4
Neighs:        68137.5 ave       74841 max       57784 min
Histogram: 3 0 2 0 5 12 14 8 6 2

Total # of neighbors = 3543148
Ave neighs/atom = 199.83914
Ave special neighs/atom = 0.0000000
Neighbor list builds = 16232
Dangerous builds = 0
11820 atoms in group oxygen
PPPM initialization ...
  using 12-bit tables for long-range coulomb (../kspace.cpp:328)
  G vector (1/distance) = 0.29882961
  grid = 40 240 40
  stencil order = 5
  estimated absolute RMS force accuracy = 0.00015651063
  estimated relative force accuracy = 1.0869062e-05
  using single precision MKL FFT
  3d grid and FFT values/proc = 15000 7600
Setting up Verlet run ...
  Unit style    : metal
  Current step  : 0
  Time step     : 0.001
Per MPI rank memory allocation (min/avg/max) = 8.404 | 8.432 | 8.452 Mbytes
Step f_2 Temp v_Tdiff v_deltaT 
       0            0    594.84187            0            0 
  100000    693.92234    600.94119  0.016934136    196.60374 
  200000    1367.1606    600.29332  0.018901194     219.4411 
  300000    2043.1717    600.71563  0.019670773    228.37585 
  400000    2722.7523    602.38399   0.01883301    218.64949 
  500000    3404.8489     605.3101  0.018855808    218.91418 
  600000    4077.3105     602.0863  0.019637479    227.98931 
  700000    4757.8175    595.29766  0.018427712    213.94403 
  800000     5431.968    599.39816  0.018883067    219.23066 
  900000    6111.0261    600.95512  0.018503054    214.81874 
 1000000    6789.6205     596.0264  0.018327651    212.78233 
Loop time of 6281.73 on 52 procs for 1000000 steps with 17730 atoms

Performance: 13.754 ns/day, 1.745 hours/ns, 159.192 timesteps/s
99.8% CPU use with 52 MPI tasks x 1 OpenMP threads

MPI task timing breakdown:
Section |  min time  |  avg time  |  max time  |%varavg| %total
---------------------------------------------------------------
Pair    | 3897.7     | 4098.2     | 4273.8     | 150.1 | 65.24
Bond    | 0.064435   | 0.10297    | 0.16492    |   7.7 |  0.00
Kspace  | 1451.9     | 1643       | 1856.1     | 256.2 | 26.16
Neigh   | 301.27     | 339.25     | 382.22     |  84.4 |  5.40
Comm    | 144.8      | 154.74     | 183.91     |  81.5 |  2.46
Output  | 0.0011986  | 0.0012564  | 0.0023924  |   0.5 |  0.00
Modify  | 5.6188     | 6.1366     | 6.7089     |   9.9 |  0.10
Other   |            | 40.33      |            |       |  0.64

Nlocal:        340.962 ave         368 max         316 min
Histogram: 4 1 4 6 10 15 6 2 2 2
Nghost:        4119.69 ave        4254 max        3983 min
Histogram: 8 0 5 3 13 3 4 3 10 3
Neighs:        68137.2 ave       73930 max       57625 min
Histogram: 3 0 2 1 2 6 15 16 4 3

Total # of neighbors = 3543133
Ave neighs/atom = 199.83830
Ave special neighs/atom = 0.0000000
Neighbor list builds = 165583
Dangerous builds = 0
Total wall time: 1:55:12
