ITEM: TIMESTEP
400000
ITEM: NUMBER OF ATOMS
18000
ITEM: BOX BOUNDS xy xz yz pp pp pp
-2.4719837938583589e-01 2.8141198379386317e+01 0.0000000000000000e+00
-2.6744851868891453e+00 3.3740248518688247e+02 0.0000000000000000e+00
-2.0897682609472198e-01 2.8102976826094189e+01 0.0000000000000000e+00
ITEM: ATOMS id type x y z
1 1 1.08107 -1.17415 1.26356
2 1 3.9639 -1.2581 1.39892
3 1 4.07805 -1.22168 4.09993
4 1 1.05644 -0.978615 4.134
5 1 0.959433 1.60378 1.30771
6 1 3.87653 1.48311 1.13283
7 1 4.20528 1.71733 4.16875
8 1 1.30566 1.67599 3.93471
9 1 6.88461 1.51786 1.3332
10 1 9.5644 -0.887616 1.31619
11 1 10.099 -1.34844 4.03772
12 1 6.88434 1.71785 6.76024
13 1 6.98258 1.76112 3.88084
14 1 9.5424 1.7931 0.923265
15 1 9.55693 1.44773 4.1619
16 1 6.716 4.64079 3.91953
17 1 12.5581 -1.10421 1.31546
18 1 12.5969 -1.48351 4.22035
19 1 12.1875 1.69144 1.29968
20 1 12.4059 1.8293 4.05479
21 1 1.23452 4.36743 1.08701
22 1 4.11064 4.18061 1.18588
23 1 4.2798 4.28644 4.05615
24 1 1.20031 4.57123 4.16508
25 1 1.26242 7.37362 1.24581
26 1 3.96679 7.20868 1.05418
27 1 3.86134 7.08426 3.93966
28 1 0.980058 7.72053 3.98255
29 1 6.75857 7.29917 1.29572
30 1 9.73063 4.68472 1.16048
31 1 9.62852 4.26474 4.03189
32 1 9.6321 9.98659 6.80624
33 1 6.64211 9.93155 0.897034
34 1 9.313 9.93053 3.90494
35 1 6.8745 7.32401 4.21966
36 1 7.03284 10.1508 6.66178
37 1 12.4935 4.45116 1.12157
38 1 12.5749 4.81035 3.82211
39 1 12.5836 7.43033 1.09223
40 1 12.4648 7.47895 3.90663
41 1 1.49936 10.1926 1.25256
42 1 4.08253 10.0271 1.23639
43 1 4.05626 12.7614 4.0353
44 1 4.11963 10.0976 4.13024
45 1 1.25492 12.9538 1.31282
46 1 4.26298 12.6483 1.20386
47 1 4.0484 13.1959 6.89827
48 1 1.28883 13.1944 4.19549
49 1 6.91085 12.7323 0.924705
50 1 9.67295 9.94737 1.05033
51 1 9.48019 7.08716 6.41694
52 1 6.73481 12.8976 4.00703
53 1 6.86559 15.7879 1.28013
54 1 9.40646 12.6545 1.02781
55 1 9.72414 13.235 3.72576
56 1 9.77609 15.7627 6.79161
57 1 12.4305 10.3351 1.24867
58 1 12.7696 10.2483 3.82776
59 1 12.4014 13.1665 0.957681
60 1 12.621 13.0486 3.96195
61 1 0.930126 15.7713 1.38695
62 1 3.88903 15.5391 1.08396
63 1 4.00468 15.8054 4.16759
64 1 1.16846 16.1616 3.95042
65 1 1.11761 18.6074 1.00449
66 1 4.00716 18.4973 1.20779
67 1 4.11919 18.6145 3.96705
68 1 1.31876 18.6921 4.01577
69 1 6.6337 18.9319 1.3112
70 1 9.60602 15.5623 1.1896
71 1 9.50975 15.8536 4.10866
72 1 6.63479 15.6915 3.89382
73 1 6.69369 21.5103 1.16046
74 1 9.49437 18.4333 1.24384
75 1 12.6264 18.7261 4.35988
76 1 7.04242 18.5445 4.15041
77 1 12.4653 16.0184 1.43159
78 1 12.6904 15.8745 3.92134
79 1 12.5904 18.7892 1.39607
80 1 12.7914 21.4102 4.33622
81 1 1.14291 21.2857 1.29367
82 1 3.809 21.4066 1.26761
83 1 4.12876 21.5649 4.23787
84 1 1.19945 21.4741 4.06832
12057 2 8.21574 -2.65352 8.52136
86 1 9.92118 21.6487 1.34143
87 1 10.0183 21.5051 4.06129
88 1 6.96626 21.4322 4.04496
89 1 12.788 21.449 1.35288
12007 2 8.33505 -2.57141 2.82679
91 1 1.12143 -1.24885 7.0699
92 1 4.15527 -1.00569 6.94807
93 1 4.07979 -0.833848 9.74238
94 1 1.18567 1.70021 6.77001
95 1 1.14158 4.30876 6.88959
96 1 3.99827 1.88639 7.05506
97 1 4.29519 1.67132 9.88739
98 1 1.05443 1.59495 9.61479
99 1 7.06617 4.6906 7.36905
100 1 9.88246 -1.36272 6.9159
101 1 9.54107 -1.3537 9.93671
102 1 6.94918 1.8547 9.87624
12032 2 2.62767 17.1303 -0.0940064
104 1 9.70654 1.50741 7.01587
105 1 9.47355 1.74393 9.68376
106 1 6.9073 4.62465 9.92799
107 1 12.6192 -1.16419 6.88753
108 1 12.3726 -1.28969 9.85557
109 1 12.2033 1.68541 6.93362
110 1 12.367 1.90385 9.54064
111 1 1.35971 7.14877 6.81463
112 1 4.25768 4.45673 6.81302
113 1 3.83896 4.67709 9.8797
114 1 1.33067 4.66855 9.51881
115 1 1.30934 9.9465 6.92645
116 1 3.9909 7.44643 7.01562
117 1 4.27629 7.29714 9.88332
118 1 1.37319 7.26577 9.84152
119 1 6.77033 7.5703 6.71198
120 1 9.68435 4.47451 6.81159
121 1 9.64184 4.85554 9.73599
122 1 6.96945 7.35994 9.83089
123 1 4.07196 10.3489 6.78578
124 1 10.8524 11.7042 5.10164
125 1 9.93488 7.67416 9.15715
126 2 8.2128 8.90141 8.58857
127 1 12.329 4.55064 6.89337
128 1 12.4744 4.64069 9.83112
129 1 12.3163 7.47136 7.02963
130 1 12.4937 7.26751 9.79945
12046 2 8.37807 23.0232 0.0809073
132 1 1.25556 12.7471 6.97557
133 1 4.01066 9.95279 9.63709
134 1 1.3811 10.2138 9.80509
12049 2 11.1261 20.1446 -0.126109
136 1 4.01045 15.8589 6.80078
137 1 3.72179 12.6531 9.65897
138 1 0.981248 12.7218 10.0579
139 1 6.7446 9.95874 3.8217
140 1 9.74836 7.4082 4.05332
141 1 9.83167 10.2997 9.89167
142 1 6.58711 10.1874 9.61116
143 1 6.79323 12.9292 6.70702
144 1 9.66898 12.9468 7.08575
145 1 9.53061 12.964 9.81313
146 1 6.67746 13.0847 9.75916
12003 2 2.6456 -2.35691 2.86054
148 1 12.5978 10.1063 9.60607
15106 2 13.9324 5.97152 11.1055
150 1 12.5417 13.0492 9.3777
151 1 4.24035 18.6662 6.71145
152 1 6.9273 15.7659 7.02134
153 1 3.89859 15.5906 9.78485
154 1 1.08805 15.6167 9.78979
155 1 1.09014 18.4221 6.96995
156 1 6.85977 18.4474 7.08725
157 1 4.18485 18.7275 9.55422
158 1 1.38 18.5966 9.62244
159 1 12.7188 15.6083 6.59702
160 1 12.4582 18.3026 7.00986
161 1 9.52165 15.9495 9.49868
162 1 6.84868 15.9596 9.79778
163 1 9.8588 18.614 4.03592
164 1 9.5751 18.6881 6.942
165 1 9.69035 18.6222 9.59718
166 1 6.78499 18.7241 9.77352
12145 2 11.0937 17.1515 14.0084
168 1 12.4541 15.8424 9.60972
169 1 12.4293 21.4177 7.17136
170 1 12.4229 18.5554 9.83722
171 1 1.12739 21.3449 7.03223
172 1 3.99066 21.817 7.22535
173 1 4.03011 21.4687 10.0455
174 1 1.45573 21.4797 9.76076
175 1 6.78178 21.5187 6.63647
176 1 9.6183 21.3235 6.9044
177 1 9.74876 21.7553 9.7636
178 1 7.04681 21.4864 9.6844
12101 2 -0.0353665 -2.61543 11.0165
180 1 12.3728 21.375 10.0142
181 1 1.24537 -1.1601 9.87896
182 1 4.13563 -1.2128 12.8667
183 1 0.998578 1.94077 12.6239
184 1 3.96537 1.81738 12.5565
185 1 6.8417 -1.16344 12.4668
186 1 9.71977 -1.06088 12.5607
187 1 6.80088 1.72993 12.8514
188 1 9.72377 1.94853 12.7067
189 1 12.3567 -1.26038 12.6387
190 1 12.5273 1.71466 12.4174
191 1 1.24157 4.57123 12.5239
192 1 4.01552 4.64279 12.5758
193 1 1.22214 7.40107 12.6105
194 1 3.99095 7.27429 12.7755
195 1 6.85971 4.40999 12.6435
196 1 9.87606 4.55439 12.7218
197 1 6.75334 7.32571 12.4898
198 1 9.74933 7.44902 12.2778
199 1 12.6712 4.63081 12.5486
200 1 12.3595 7.53074 12.7253
201 1 1.06393 10.2234 12.4453
202 1 3.956 10.0985 12.347
203 1 1.46389 13.0719 12.609
204 1 4.22295 12.9654 12.5133
205 1 6.77704 10.1832 12.3456
206 1 9.77299 9.93177 13.0105
207 1 6.71812 13.1088 12.4872
208 1 9.46394 12.9372 12.5573
209 1 12.5888 10.3737 12.7294
210 1 12.2387 13.0578 12.7075
211 1 1.26403 15.891 12.4528
212 1 4.08528 15.9732 12.6305
213 1 1.15594 18.6952 12.6257
214 1 3.90034 18.8228 12.6044
215 1 6.6959 16.1297 12.5789
216 1 9.42161 15.8056 12.2204
217 1 7.09618 18.9164 12.6781
218 1 9.85613 18.5277 12.472
219 1 12.4741 15.864 12.4714
220 1 12.7485 18.6997 12.3739
221 1 1.05746 21.379 12.5728
222 1 4.01014 21.6196 12.8215
223 1 6.87351 21.5692 12.7242
224 1 9.71199 21.6601 12.5271
225 1 12.6626 21.6544 12.8474
12125 2 11.2591 20.1027 11.4967
12110 2 11.2505 3.24881 11.1858
12004 2 -0.15214 0.366873 2.71072
12124 2 8.35654 22.9673 11.1001
15012 2 13.72 3.10114 2.47831
12109 2 8.2689 5.92645 11.2665
12042 2 2.75263 22.6918 -0.190613
12008 2 5.41517 0.183486 2.52822
392 1 6.95977 4.40715 1.18262
12010 2 11.1862 0.234914 2.83307
12123 2 5.48258 20.1446 11.2332
12108 2 5.63743 3.2332 11.0457
12013 2 2.88481 2.94924 2.65152
12142 2 -0.216454 17.1972 13.9688
12107 2 2.70859 5.96284 11.3391
12112 2 2.65082 11.5713 11.2307
12017 2 8.43766 2.81636 2.50488
12018 2 5.47163 5.74237 2.50949
12104 2 8.42528 0.37246 11.3093
12020 2 11.0603 5.95324 2.41998
5633 1 6.81771 -1.03787 4.22322
395 1 9.57129 7.39776 1.072
12023 2 2.72323 8.77825 2.66096
12120 2 11.0824 14.4238 10.9652
12102 2 2.5549 0.371493 11.21
12113 2 5.38344 8.64046 11.0836
12027 2 8.17024 8.77637 2.25399
12028 2 5.43235 11.4315 2.59655
12100 2 11.1174 22.7594 8.41222
12030 2 11.0919 11.6163 2.77195
12099 2 11.1985 20.0861 5.56082
12098 2 5.38133 22.9388 8.25577
12033 2 2.52552 14.4017 2.76244
12036 2 8.19066 17.3255 -0.12631
12097 2 8.19294 20.1174 8.26935
12096 2 8.10235 22.941 5.53594
12037 2 8.13579 14.1592 2.41874
12038 2 5.50761 17.121 2.69152
12095 2 5.68168 19.8588 5.44373
12040 2 11.1204 17.2085 2.78952
12106 2 -0.153079 3.05409 11.0771
12093 2 2.75309 20.0713 8.30098
12043 2 2.59373 19.7239 2.38697
12055 2 5.53254 -2.68253 5.71572
12092 2 2.59689 22.9856 5.60047
149 1 12.4771 13.071 6.85134
12047 2 8.20986 19.9965 2.65327
12048 2 5.4218 22.7162 2.60124
12090 2 11.0196 17.1305 8.39267
12050 2 11.3563 22.8932 2.8327
12119 2 8.28266 17.432 11.0518
12052 2 2.40803 0.214535 5.63575
5723 1 7.0108 -1.33216 6.97578
12118 2 5.42227 14.4588 11.152
372 1 6.72783 -1.50226 1.40752
12056 2 8.31861 0.0443372 5.50479
12103 2 5.29751 -2.30622 11.0565
12058 2 5.40505 0.406908 8.29445
227 1 1.2296 -0.906685 12.4635
12060 2 11.0098 0.23023 8.31936
12117 2 2.74228 17.2783 11.1001
12062 2 2.54213 5.69269 5.53611
12063 2 2.50095 3.19101 8.28615
12089 2 11.2471 14.255 5.47333
12065 2 5.65049 2.94048 5.25367
12066 2 8.08847 5.39924 5.54883
12067 2 8.30488 3.06425 8.30472
12068 2 5.42218 5.78767 8.53109
12069 2 10.9984 2.99934 5.50701
12070 2 11.0949 5.9732 8.31297
12115 2 11.2291 8.97653 11.3032
12072 2 2.68824 11.6752 5.36671
12073 2 2.39635 8.69971 8.47053
12114 2 7.9231 11.4402 11.0311
12075 2 5.18134 8.6233 5.65943
12076 2 8.56517 11.7514 5.44928
12077 2 8.2471 8.52788 5.3899
12078 2 5.28293 11.5549 8.26487
12079 2 11.1799 8.82687 5.46015
12080 2 11.1439 11.4903 8.16448
12136 2 2.6397 8.68976 13.8928
12082 2 2.79971 17.3154 5.44504
12083 2 2.54445 14.0475 8.38786
376 1 12.6776 10.4721 6.70836
12085 2 5.47142 14.3169 5.67601
12086 2 8.43013 17.145 5.58908
12087 2 8.32285 14.5326 8.25184
12088 2 5.42372 17.0968 8.35216
5726 1 6.71721 -0.946682 9.63609
131 1 0.960718 10.3503 4.2353
135 1 1.33183 15.5712 7.08579
12122 2 2.50571 22.8719 11.4435
15041 2 13.9064 22.7596 -0.0279446
12044 2 -0.00137144 22.9025 2.79002
15116 2 13.9575 17.1814 11.0801
12053 2 2.60263 -2.5502 8.33952
15031 2 13.8513 17.4343 0.161152
12024 2 -0.136481 11.4999 2.49028
12111 2 0.0390962 8.7647 11.0959
15062 2 13.7734 3.1491 8.11779
12084 2 -0.00435409 16.9933 8.32355
15101 2 13.7837 0.258733 10.973
12132 2 -0.174746 5.92534 13.939
12021 2 -0.21355 8.74755 -0.205879
12121 2 -0.163131 19.9721 11.0297
12127 2 -0.130649 0.275024 13.8422
12006 2 8.23399 0.192507 -0.115669
12140 2 10.9929 11.6698 13.9607
12091 2 -0.0646803 19.9698 5.45659
12094 2 -0.033835 23.0675 8.45601
12002 2 2.41741 0.00560637 -0.0698584
12141 2 2.7187 14.506 13.8754
12045 2 5.41108 20.1072 -0.144871
12011 2 -0.248349 3.10261 -0.0345655
12135 2 11.1666 5.85734 13.9411
226 1 4.12773 -1.19261 15.5395
5906 1 6.87313 -1.35202 21.2216
228 1 4.01156 1.5907 15.2826
229 1 1.43594 1.65818 15.1995
230 1 9.67603 -1.40834 15.3178
231 1 6.94639 -1.35181 15.3658
232 1 10.0233 1.34195 15.6904
233 1 6.94503 1.33119 15.6383
5814 1 1.41832 -1.01601 15.3462
235 1 12.368 1.87249 15.0461
236 1 4.23854 4.49321 15.4259
237 1 1.34263 4.63291 15.1985
238 1 4.35358 7.22602 15.4435
239 1 1.47599 7.35394 15.326
240 1 9.78464 4.29571 15.4305
241 1 6.83165 4.36933 15.5031
242 1 9.74382 7.23814 15.193
243 1 6.91493 7.30857 15.2508
244 1 12.4706 4.51621 15.5682
245 1 12.6973 7.65119 15.6701
246 1 3.73586 9.98406 15.4257
247 1 1.1814 10.1718 15.1282
248 1 3.85654 12.8389 15.8442
249 1 1.25658 12.9759 15.3286
250 1 9.59957 9.87305 15.6614
251 1 6.92839 10.1227 15.1299
252 1 9.56819 12.9728 15.4008
253 1 6.81829 12.9083 15.355
254 1 12.5738 10.324 15.5642
255 1 12.5557 13.0439 15.3714
256 1 4.08643 15.6087 15.4945
257 1 1.53282 15.7967 15.2017
258 1 4.23972 18.5609 15.1315
259 1 0.993764 18.7686 15.4556
260 1 9.60453 15.9809 15.1437
261 1 6.78868 15.7318 15.6538
262 1 9.57986 18.5795 15.4137
263 1 6.96079 18.7239 15.695
264 1 12.5176 15.8809 15.3785
265 1 12.5478 18.8323 15.0943
266 1 4.08946 21.5242 15.6953
267 1 1.14813 21.4848 15.5018
268 1 9.46352 21.3788 15.6488
269 1 6.6333 21.4795 15.327
270 1 12.44 21.6041 15.5416
271 1 1.17818 -0.98518 18.2012
272 1 4.07536 -1.11675 18.3884
273 1 3.92547 -1.17603 21.2498
274 1 1.26389 -0.978161 20.9566
275 1 1.25611 1.91382 18.0621
276 1 3.80993 1.62661 18.2215
277 1 3.95462 1.62905 21.1187
278 1 1.12169 1.89595 20.9841
279 1 6.87766 -1.29467 18.1815
280 1 9.69578 -1.35223 18.2562
281 1 9.64818 -1.07219 21.2659
282 1 6.81164 1.53693 21.1045
283 1 6.95727 1.778 18.2191
284 1 9.44543 1.35775 18.4581
285 1 9.69679 1.62078 21.1816
286 1 6.70758 4.23074 26.6086
287 1 12.4583 -1.2679 18.0395
288 1 12.6671 -1.26028 21.1294
289 1 12.4443 1.562 17.998
290 1 12.6751 1.47272 20.8721
291 1 1.06368 4.50681 18.1846
292 1 4.02687 4.28083 18.099
293 1 4.09465 4.41754 21.0003
294 1 1.12697 4.63528 21.0888
295 1 0.940023 7.46781 18.1469
296 1 3.7827 7.27251 18.1067
297 1 4.42257 7.39387 20.7885
298 1 1.58678 7.47732 21.0731
299 1 7.03617 4.61808 18.1406
300 1 9.83591 4.36988 18.0957
301 1 9.76401 4.49803 20.9839
302 1 6.99618 4.37863 21.1945
303 1 7.20155 7.14423 18.1516
304 1 9.94693 7.48638 18.1466
305 1 9.67386 7.08411 20.9179
306 1 6.97852 7.2909 21.0644
307 1 12.5727 4.21472 18.2455
308 1 12.5394 4.19783 20.9913
309 1 12.568 7.34744 18.3961
310 1 12.5412 7.16556 21.1086
311 1 1.0338 10.1123 18.5051
312 1 3.85344 10.286 18.1855
313 1 4.01708 10.143 20.9063
314 1 1.28649 9.94653 21.0776
315 1 0.975255 12.8471 18.2081
316 1 4.17616 13.0889 18.5142
317 1 4.21626 12.9477 21.2221
318 1 1.10443 12.8149 20.9589
319 1 6.87033 10.2231 17.8785
320 1 9.63369 10.3554 18.1067
321 1 9.60038 9.98455 21.0249
322 1 6.69002 9.99121 20.9481
323 1 6.94819 12.8811 18.2025
324 1 9.66977 13.1881 18.0996
325 1 9.75203 13.173 21.0094
326 1 7.10945 13.0424 20.8883
327 1 12.6004 10.3892 18.3092
328 1 12.2732 10.4845 21.2225
329 1 12.3731 13.2805 18.1528
330 1 12.6828 13.2378 20.8048
331 1 1.27971 15.8895 18.2692
332 1 3.94508 15.9656 18.3165
333 1 4.19677 15.6498 20.8846
334 1 1.35601 15.7353 20.9648
335 1 1.05924 18.7367 18.3292
336 1 3.6757 18.9392 17.8573
337 1 4.21295 18.7045 20.6443
338 1 1.30202 18.6598 20.8943
339 1 7.02226 15.8264 18.2798
340 1 9.89556 15.9486 18.1943
341 1 9.72627 15.8209 20.7362
342 1 7.22008 15.6515 21.3204
343 1 6.83427 18.7118 18.3653
344 1 9.51209 18.6094 18.4122
345 1 9.71274 18.65 21.0908
346 1 6.9433 18.7427 21.0434
347 1 12.6916 16.1264 18.0196
348 1 12.4362 15.8988 20.9832
349 1 12.4214 18.8145 17.9147
350 1 12.5009 18.6404 20.81
351 1 1.35506 21.7779 18.2212
352 1 4.02456 21.4628 18.4784
353 1 4.00982 21.4121 21.1361
354 1 1.00628 21.6977 21.1286
355 1 6.79341 21.5364 18.1995
356 1 9.81022 21.3637 18.4165
357 1 9.82954 21.3666 21.121
358 1 6.75342 21.5311 20.8381
359 1 12.5342 21.5448 18.2282
360 1 12.6039 21.4329 21.1851
361 1 1.38794 -1.21896 23.9812
362 1 4.10233 -1.10327 23.9119
363 1 3.86076 -1.29105 26.72
364 1 1.24042 -1.443 26.822
365 1 1.01174 1.25041 23.7615
366 1 3.83772 1.8198 23.9417
367 1 3.98168 1.69725 26.6687
368 1 1.09353 1.69256 26.8716
369 1 6.74215 1.58651 24.0015
370 1 9.45975 -1.13041 24.1143
371 1 9.85385 -1.07794 26.8591
12019 2 11.2586 2.9401 28.0476
373 1 6.60121 1.6254 26.719
374 1 9.74941 1.8352 23.8349
375 1 9.60094 1.80439 26.5762
12131 2 2.66714 3.20477 13.9636
377 1 12.3114 -1.33434 23.9017
378 1 12.7678 -1.14161 26.7859
379 1 12.7359 1.73846 23.6991
380 1 12.647 1.61075 26.5619
381 1 1.47811 4.16101 23.6943
382 1 4.26509 4.43337 23.6271
383 1 3.95606 4.551 26.6398
384 1 0.806855 4.2257 26.3976
385 1 1.33731 7.09004 24.0607
386 1 4.10958 7.20652 23.8992
387 1 4.14662 7.08719 26.6664
388 1 1.13494 7.26699 26.7262
389 1 6.98992 4.59448 23.6915
390 1 9.77807 4.63359 23.6848
391 1 9.80492 4.4854 26.5215
12146 2 2.61299 20.1343 13.9714
393 1 6.99785 7.00657 24.0943
394 1 9.80571 7.37013 23.768
12157 2 8.29582 -2.43123 19.5825
396 1 6.7484 6.8169 26.7417
397 1 12.136 4.31746 23.8412
398 1 12.5396 4.61086 26.5378
399 1 9.7797 7.29765 26.5274
400 1 12.4914 7.34693 26.5655
401 1 1.36779 9.91859 23.9664
402 1 4.00465 10.1385 23.9332
403 1 4.13428 10.0036 26.7985
404 1 1.32279 10.1797 26.8533
405 1 1.58946 13.2206 23.6551
406 1 4.11015 13.0718 23.9402
407 1 4.20388 13.0707 26.7081
408 1 1.2038 12.881 26.5252
409 1 6.80846 9.89655 23.8164
410 1 9.76144 10.1587 23.722
411 1 9.83908 10.2067 26.7252
412 1 6.91318 10.0549 26.5301
413 1 6.86624 13.028 23.6013
414 1 9.64591 13.2127 23.9367
415 1 9.62629 13.2596 26.7215
416 1 7.08755 12.8615 26.4594
417 1 12.524 10.426 24.1127
418 1 12.5608 10.2413 26.7338
419 1 12.5931 13.1421 23.7338
420 1 12.6509 13.4427 26.8008
421 1 1.49207 16.1021 24.0336
422 1 4.24001 15.8241 23.8862
423 1 3.80595 15.905 26.6175
424 1 1.07471 15.6658 26.6457
425 1 1.25884 18.8454 23.6585
426 1 4.07625 18.7929 23.8132
427 1 4.06311 18.7653 26.848
428 1 1.15631 18.6781 26.6481
429 1 6.88578 15.9621 23.955
430 1 9.60162 16.0153 23.6819
431 1 9.62758 16.0421 26.8299
432 1 6.63469 15.8261 26.7908
433 1 6.91868 18.8713 24.0186
434 1 9.82622 18.7533 23.9844
435 1 9.94846 18.574 26.6992
436 1 7.03156 18.6609 26.7477
437 1 12.722 15.8805 23.907
438 1 12.6698 16.1406 26.8772
439 1 12.7144 18.5536 23.7517
440 1 12.5971 18.4954 26.6043
441 1 1.18497 21.3294 23.911
442 1 4.01122 21.6918 23.9268
443 1 4.10315 21.4321 26.816
444 1 1.40504 21.4099 26.8036
445 1 6.92048 21.5299 24.0199
446 1 9.84524 21.6251 24.0672
447 1 9.49767 21.4186 27.0907
448 1 6.98521 21.7785 26.8089
449 1 12.6526 21.4428 24.0913
450 1 12.4505 21.3187 26.6927
5993 1 7.18041 -0.95867 26.4939
12250 2 11.3277 23.0013 25.3561
12144 2 5.62718 17.2657 14.2158
12234 2 -0.257629 17.1908 25.2866
12207 2 8.21612 -2.58986 25.1197
12209 2 11.2499 -2.65708 22.3962
12249 2 11.274 20.1129 22.6039
12205 2 5.29517 -2.52544 22.4484
15202 2 13.801 -2.59165 25.0861
12015 2 5.33726 2.93641 27.9727
12224 2 -0.0843416 11.4878 25.4044
12248 2 5.39548 22.9451 25.3628
12184 2 -0.174118 17.2282 19.7056
15211 2 13.7494 5.74704 22.2585
12246 2 8.33078 22.9377 22.4563
12229 2 11.163 8.58494 22.5817
6381 1 12.6161 7.32521 23.9622
12228 2 5.45981 11.619 25.3365
12150 2 11.1328 22.9572 14.0976
5820 1 12.6049 -1.14359 15.293
15181 2 13.8626 17.2409 16.743
12227 2 8.41481 8.58324 25.2579
12232 2 2.88098 17.1383 22.3534
12194 2 -0.0751909 23.2193 19.7196
12154 2 -0.249569 0.471082 19.7439
12247 2 8.36559 20.2312 25.2998
12152 2 2.68849 0.223672 16.7071
15191 2 14.0032 22.8434 17.0312
12025 2 5.37216 8.3753 28.1044
12225 2 5.56191 8.57941 22.5513
12156 2 8.2599 0.0561092 16.9215
12226 2 8.47751 11.6156 22.272
12158 2 5.41401 0.141289 19.7435
12235 2 5.65655 14.4384 22.5244
12160 2 11.2432 0.0974688 19.7943
12245 2 5.35756 20.2958 22.5226
12162 2 2.63079 5.83084 16.7605
12163 2 2.70189 3.16319 19.6648
12233 2 2.49478 14.3679 25.2837
12165 2 5.28576 3.01522 16.7165
12166 2 8.52493 5.82177 16.8146
12167 2 8.36369 3.17526 19.5789
12168 2 5.66485 5.81499 19.6263
12169 2 11.2585 3.08564 16.7481
12170 2 11.3146 5.85896 19.5662
12243 2 2.71976 20.0013 25.3311
12172 2 2.48494 11.5742 16.8055
12173 2 2.7708 8.59703 19.6817
12242 2 2.70074 22.8299 22.2418
12175 2 5.47608 8.87317 16.7814
12176 2 8.24537 11.6387 16.8415
12177 2 8.42955 8.74753 19.5752
12178 2 5.4565 11.5369 19.6049
12179 2 11.2079 8.99538 16.6803
12180 2 11.0988 11.8828 19.4549
12223 2 2.73937 8.7525 25.308
12182 2 2.53832 17.1715 16.9281
12183 2 2.56353 14.4153 19.6416
12222 2 2.71973 11.6481 22.486
12185 2 5.24375 14.2471 16.9294
12186 2 8.35628 17.326 17.0875
12187 2 8.40217 14.4956 19.428
12188 2 5.56564 17.1659 19.6946
12189 2 11.1826 14.4273 16.6346
12190 2 11.1948 17.2791 19.4982
12204 2 -0.278316 0.197294 25.3264
12192 2 2.51123 23.0678 16.7954
12193 2 2.64246 20.1943 19.5852
12230 2 11.1597 11.9261 25.2221
12195 2 5.37951 20.2415 16.9179
12196 2 8.16746 22.9528 16.86
12197 2 8.37027 20.1319 19.557
12198 2 5.47935 22.8089 19.6896
12199 2 10.9805 20.0484 16.7854
12200 2 11.2364 22.7789 19.5431
12240 2 11.2547 17.2019 25.2865
12202 2 2.54658 0.405643 22.4402
5989 1 6.65865 -1.21371 23.8416
12239 2 11.2566 14.4506 22.3867
12148 2 8.32964 20.1971 14.062
12206 2 8.19419 0.269964 22.4816
12236 2 8.41275 17.4594 22.414
12208 2 5.34997 0.291601 25.5011
12164 2 -0.0905557 5.90567 19.6439
12210 2 10.9999 0.144492 25.14
12238 2 5.30439 17.3128 25.2873
12212 2 2.60337 5.78361 22.5647
12213 2 2.57055 3.04172 25.3422
12237 2 8.13334 14.5334 25.1446
12215 2 5.54392 2.81877 22.5698
12216 2 8.45067 5.90589 22.3568
12217 2 8.42655 3.14055 25.2351
12218 2 5.44656 5.74722 25.1989
12219 2 11.1729 2.91963 22.2708
12220 2 11.1644 5.8675 25.1589
15241 2 13.9712 22.8569 22.4996
12139 2 5.53429 11.4181 13.9714
12130 2 11.2301 0.291968 13.9975
12143 2 8.06661 14.396 14.1235
12191 2 -0.08902 20.3365 16.9203
12153 2 2.52134 -2.53549 19.6118
12022 2 2.92953 11.662 28.1271
12134 2 5.57122 5.92612 14.0216
12026 2 8.28187 11.4029 27.9389
15192 2 13.8763 20.0064 19.4521
12155 2 5.57396 -2.66511 16.9032
12149 2 5.46529 22.8781 14.1083
12129 2 5.48968 0.137757 14.1951
12161 2 -0.149463 3.08123 16.917
12151 2 -0.0846019 -2.56786 16.8849
12009 2 11.2584 -2.63106 28.0783
12029 2 11.2283 8.70675 28.0303
12201 2 -0.247972 -2.5875 22.5192
12016 2 8.44784 5.64044 27.9309
12211 2 -0.195803 3.09484 22.3527
12244 2 -0.180314 22.8415 25.3295
12126 2 2.56405 -2.61757 13.9246
12181 2 -0.208844 14.3146 16.8793
15162 2 13.9634 2.99306 19.6195
12221 2 0.0382418 8.63309 22.5406
12035 2 5.579 14.2694 28.142
12012 2 2.61985 5.91489 28.0339
15231 2 13.9118 17.3781 22.5508
12133 2 8.11438 2.93661 14.0734
12137 2 0.00979546 11.6499 14.0758
12174 2 -0.216849 11.4866 19.5462
15011 2 13.8721 5.93595 28.0208
12039 2 11.1593 14.4999 28.011
12138 2 8.19625 8.65345 13.9873
451 1 1.31681 24.1357 1.25504
452 1 4.04206 24.1161 1.11835
453 1 3.93359 24.4218 4.13855
454 1 1.37717 24.5227 4.09412
455 1 6.70998 27.1248 1.09266
12282 2 2.39224 45.7164 -0.0614094
501 1 1.40232 35.8231 4.4286
458 1 6.85931 24.298 3.84996
12291 2 -0.247536 48.5024 0.025638
457 1 9.79025 24.1259 4.35151
461 1 1.01759 27.2481 1.45057
462 1 4.11807 27.0632 1.32317
463 1 3.68259 26.9672 4.21184
464 1 0.90422 27.2471 4.37694
465 1 0.907035 30.0151 1.34037
466 1 4.09124 30.0933 1.05821
467 1 3.87722 29.6335 4.01419
468 1 1.13605 30.1857 4.23054
469 1 6.65368 30.274 1.37683
470 1 6.74549 30.0417 4.1021
471 1 9.66288 26.8144 4.01845
472 1 6.58545 27.1958 3.96132
473 1 9.41999 29.7397 1.29254
15346 2 13.7881 34.3207 11.3656
475 1 12.0268 28.8833 4.54967
12276 2 8.25342 40.1134 0.0280172
12259 2 11.3826 25.6679 -0.14692
6171 1 12.5098 24.2785 6.96904
15291 2 14.0034 48.7347 2.85101
179 1 12.6288 24.0966 4.26335
481 1 0.83074 35.538 1.5135
482 1 4.04481 35.354 4.24513
483 1 6.84954 32.9223 1.49249
484 1 3.40723 32.6609 4.03633
485 2 2.47705 34.4028 3.0113
15306 2 13.8513 34.5785 5.66206
487 1 0.923936 33.2093 4.2402
488 1 1.32212 32.8572 1.31872
489 1 9.38089 32.7158 4.33031
490 1 9.62386 32.9377 1.19273
491 1 9.36924 29.6179 4.10074
492 1 6.71092 33.3007 4.4405
493 1 6.70263 35.6625 1.29833
494 1 9.45628 35.7361 1.22871
495 1 9.63204 35.6185 4.16877
496 1 6.85208 36.0851 4.09361
497 1 12.4286 33.0823 1.29995
498 1 12.3689 33.0952 4.16552
499 1 12.4854 35.849 1.35479
500 1 12.4219 35.7648 4.21579
6463 1 11.951 28.6014 0.7126
502 1 4.07536 38.5254 1.59529
503 1 3.98906 38.3821 4.48809
504 1 1.2977 38.81 4.36212
505 1 1.22234 38.432 1.36918
506 1 3.72039 41.0268 1.3232
507 1 3.89678 41.1369 4.43116
508 1 1.10774 41.5959 4.07463
509 1 6.87692 38.7106 1.11308
510 1 9.75272 38.6296 1.61029
511 1 9.59275 38.5871 4.12056
512 1 6.93601 38.8056 4.19591
513 1 6.6006 41.3214 1.4279
514 1 9.65153 41.3452 1.22607
515 1 9.64361 41.5584 4.09637
516 1 6.82569 41.478 4.21295
517 1 12.623 38.515 1.36726
518 1 12.5089 38.6469 4.2205
519 1 12.5521 41.4894 1.39387
520 1 12.6822 41.2311 4.1561
521 1 0.994828 41.2606 1.34548
522 1 3.91847 44.1572 1.52691
523 1 3.81597 44.0991 4.32324
524 1 0.712665 44.3441 4.03411
525 1 1.1349 47.1572 1.30405
526 1 3.92672 46.9816 1.34621
527 1 3.85788 46.9291 3.94654
528 1 0.903302 47.065 4.19432
529 1 6.6115 44.1908 1.25366
530 1 9.35016 44.0446 1.21672
531 1 9.55693 44.4645 4.11765
532 1 6.79525 44.2837 4.03394
533 1 6.89697 47.0963 1.30481
534 1 9.85168 46.717 1.25192
535 1 9.66956 47.1852 3.85007
536 1 6.89478 46.9525 3.86911
537 1 12.372 44.1385 1.63503
538 1 12.4637 44.272 4.33815
539 1 12.4544 47.0784 1.13348
540 1 12.5927 47.1953 4.23755
541 1 1.52785 24.3992 6.94608
542 1 4.29396 24.4564 7.08036
543 1 4.1403 24.6088 9.69023
544 1 1.29029 24.5443 9.94358
474 1 12.351 26.8565 2.72332
546 1 9.3848 24.1273 7.23267
547 1 9.5581 24.6249 9.91572
548 1 6.88727 24.1735 9.75245
634 1 9.64192 24.3331 12.709
550 1 12.3417 24.3385 9.62026
551 1 0.880625 27.1264 7.28071
552 1 4.09084 27.2645 6.89521
553 1 4.09444 27.6633 9.9846
554 1 0.922578 27.1623 9.8906
555 1 1.09213 29.6891 7.05905
556 1 3.9746 29.8251 6.85617
557 1 4.03022 30.5393 9.83466
558 1 1.14867 29.9281 9.71767
559 1 6.90429 26.9836 6.89543
560 1 9.64314 26.9678 6.6794
561 1 9.5709 27.3149 9.6854
562 1 6.80456 27.241 9.74986
563 1 6.94275 29.9 7.06509
564 1 9.74347 29.9074 6.94016
565 1 9.46889 29.8815 9.84968
566 1 6.76427 29.9489 9.85047
567 1 12.4621 27.0075 7.0301
568 1 12.2928 27.2064 10.1694
569 1 12.5588 29.9054 7.19395
12285 2 5.41672 42.8551 -0.110434
571 1 1.33063 32.8605 6.99586
572 1 4.21501 32.793 6.66767
573 1 3.99915 33.2753 9.4537
574 1 1.10497 32.6904 9.8088
575 1 1.02638 35.5578 6.96166
576 1 4.05286 35.8184 7.10651
577 1 3.76848 35.9658 10.0228
578 1 1.06208 35.5579 9.76801
579 1 6.69024 32.5456 7.47552
580 1 9.45833 32.9844 7.41823
581 1 9.63938 32.6568 10.0462
582 1 6.87198 33.1973 10.0566
583 1 6.7942 35.6406 6.96916
584 1 9.53737 35.8097 7.03417
585 1 9.797 35.7388 9.71514
586 1 6.84471 35.9468 9.64018
587 1 12.2246 32.7466 7.07125
588 1 12.1339 33.0009 10.2509
589 1 12.3672 35.5968 7.08899
590 1 12.3284 35.8602 9.86387
591 1 1.01677 38.3737 7.1448
592 1 3.84901 38.7666 7.34534
593 1 4.00526 38.6119 10.1457
594 1 1.0805 38.4835 9.93756
595 1 1.11481 41.2234 6.90494
596 1 4.04376 41.4902 7.17853
597 1 3.91981 41.5597 9.99451
598 1 0.974486 41.2724 9.81256
599 1 6.89473 38.3987 7.20263
600 1 9.84115 38.6332 7.16852
601 1 9.57578 38.5198 10.0367
602 1 6.75646 38.5284 9.93672
603 1 6.74356 41.1125 6.99101
604 1 9.57005 41.4207 6.77273
605 1 9.37118 41.1099 9.43065
606 1 6.75048 41.3756 9.82298
607 1 12.7389 38.5355 6.89505
608 1 12.3659 38.4396 9.63921
609 1 12.433 41.1022 6.91714
610 1 12.3714 41.2385 9.93336
611 1 1.10239 44.2358 7.0286
612 1 3.90496 44.2622 7.08569
613 1 3.72552 44.3765 9.86064
614 1 1.06676 44.3081 9.94336
615 1 1.2273 46.9161 6.89064
616 1 4.03607 47.1731 7.06449
617 1 3.94695 47.191 9.92676
618 1 1.24065 47.2519 10.0918
619 1 6.59218 43.8741 7.00362
620 1 9.80272 44.2658 6.69712
621 1 9.65497 43.97 9.44869
622 1 6.80688 44.1695 9.62989
623 1 6.64385 46.8932 6.98016
624 1 9.55155 47.1767 6.92943
625 1 9.58488 46.8495 9.75371
626 1 6.61771 46.9335 9.7851
627 1 12.7589 44.2305 7.14794
628 1 12.3586 44.0722 10.0865
629 1 12.2747 47.1675 6.89295
630 1 12.403 46.8657 9.69433
631 1 1.05404 24.5522 12.6315
12279 2 11.0448 37.1581 0.138773
633 1 6.68559 24.374 12.6667
480 1 11.3845 30.9423 2.75483
635 1 12.4387 24.2493 12.5537
636 1 0.926969 27.2357 12.7153
637 1 3.81963 27.0971 12.6056
638 1 1.38896 30.0937 12.7214
639 1 4.09645 30.1137 12.6101
640 1 6.76849 27.1995 12.651
641 1 9.51694 27.2563 12.7049
642 1 6.89401 30.0008 12.7416
643 1 9.68407 29.9515 12.8726
644 1 12.5414 26.9948 12.7289
645 1 12.4971 29.6627 12.7926
646 1 1.08506 33.0124 12.7699
647 1 4.03166 32.8846 12.4462
648 1 1.04462 35.8804 12.5847
649 1 3.7575 35.8596 12.6171
650 1 6.91067 32.8448 12.8685
651 1 10.0215 32.7812 12.964
652 1 6.46078 35.4556 12.5964
653 1 9.48601 35.5816 12.8119
654 1 12.9036 32.6923 12.7182
655 1 12.5548 35.7327 12.7371
656 1 1.04897 38.7733 12.7732
657 1 3.96984 38.4522 13.1009
658 1 1.16155 41.6554 12.6447
659 1 4.11721 41.2518 12.6903
660 1 6.87172 38.4348 12.7555
661 1 9.64305 38.5011 12.7776
662 1 7.00425 41.1647 12.79
663 1 9.73301 41.2251 12.5711
664 1 12.4588 38.3169 12.5991
665 1 12.4661 41.4299 12.8606
666 1 1.26496 44.3067 12.7515
667 1 4.20269 44.0818 12.8178
668 1 1.22497 46.8845 13.1809
669 1 4.10235 46.9915 12.8032
670 1 6.97034 44.1161 12.5801
671 1 9.664 44.3355 12.3476
672 1 7.19988 46.8471 12.6639
673 1 9.84059 47.3015 12.909
674 1 12.6035 44.2141 12.7094
675 1 12.4449 46.9221 12.7168
12363 2 11.2802 48.5446 11.1991
459 1 12.5779 24.1679 1.41321
12253 2 2.72904 25.5453 2.7117
12362 2 5.68516 48.4262 11.3518
12381 2 8.2836 42.7451 13.8555
12266 2 8.23678 34.2921 -0.211049
12257 2 8.27545 25.4867 2.5937
12258 2 5.51098 28.6519 2.47039
15297 2 13.6906 25.7544 8.5556
12260 2 10.7101 28.4616 2.69289
12360 2 11.2285 42.6238 11.4106
12286 2 8.21896 45.788 0.0930236
12263 2 2.5778 30.9908 2.61044
12359 2 8.30044 45.4203 10.9354
545 1 6.75175 24.3284 6.80651
12269 2 11.409 31.0797 0.0616056
12267 2 8.42814 31.4854 2.71591
12268 2 5.67473 34.3571 2.78528
12345 2 10.9826 25.701 11.3994
12270 2 10.9016 34.3122 2.83128
12358 2 5.50447 42.6655 11.2843
12344 2 8.2034 28.6793 11.2071
12273 2 2.53874 37.4722 3.01209
12357 2 2.49648 45.7164 11.4581
12343 2 5.57825 25.7435 11.243
85 1 6.88073 24.2059 1.18119
12277 2 8.12187 37.1297 2.62677
12278 2 5.1808 40.0101 2.91477
476 1 3.95413 33.3887 1.62321
12280 2 11.0656 39.9779 3.00703
12355 2 11.1807 37.0182 11.2789
460 1 9.63536 26.9819 1.09393
12283 2 2.33167 42.7527 2.64977
12354 2 8.20761 39.9459 11.3741
456 1 9.85841 24.4578 1.4419
570 1 12.5282 30.1506 9.97714
12287 2 8.07682 42.799 2.71374
12288 2 5.3378 45.4197 2.57093
12356 2 -0.207332 42.8856 11.2991
12290 2 11.1968 45.6751 2.80137
12353 2 5.29273 37.1293 11.4944
12292 2 2.44945 48.4489 2.78165
15296 2 13.8606 28.4301 5.99646
12294 2 8.10646 48.4957 2.88098
15351 2 13.842 39.7559 11.2106
15336 2 13.8638 48.512 8.03353
12297 2 2.50304 28.413 5.56528
12298 2 2.64208 25.8815 8.46401
15341 2 13.7192 28.6404 11.2563
12300 2 5.37012 25.7718 5.32715
12301 2 8.09223 28.3996 5.58425
12302 2 8.24665 25.8004 8.42192
12303 2 5.35215 28.6235 8.47945
12304 2 11.1421 25.5886 5.4884
12305 2 11.0002 28.4067 8.44438