ITEM: TIMESTEP
450000
ITEM: NUMBER OF ATOMS
18000
ITEM: BOX BOUNDS xy xz yz pp pp pp
-2.2609390539449173e-01 2.8120093905394878e+01 0.0000000000000000e+00
-2.6149627798362616e+00 3.3734296277982804e+02 0.0000000000000000e+00
-2.2887182970636166e-01 2.8122871829706064e+01 0.0000000000000000e+00
ITEM: ATOMS id type x y z
1 1 0.904095 -1.31362 1.11164
2 1 3.89488 -1.16168 1.01873
3 1 3.83193 -1.19162 3.97705
4 1 1.00358 -1.11025 3.83303
5 1 0.987592 1.63628 1.66614
6 1 3.84715 1.63462 1.30211
7 1 3.82529 1.71275 3.84698
8 1 1.01581 1.72516 4.47067
9 1 6.62422 1.89155 1.37656
10 1 9.49285 -1.35741 1.2592
11 1 9.52149 -1.31511 3.9093
12 1 7.08025 1.65417 7.1857
13 1 6.79367 1.70003 4.24933
14 1 9.74462 1.59411 1.20653
15 1 9.55356 1.41477 3.84527
16 1 6.73156 4.33727 3.64886
17 1 12.275 -1.06226 1.16022
18 1 12.3637 -1.06762 3.95759
19 1 12.3508 1.6987 1.17022
20 1 12.5403 1.63905 4.09144
21 1 0.969323 4.59287 1.2973
22 1 3.84072 4.52783 1.46864
23 1 3.80906 4.37857 4.36017
24 1 1.00832 4.5215 4.18495
25 1 1.2104 7.49892 1.30877
26 1 3.97789 7.36493 1.35795
27 1 3.64114 7.22462 4.13056
28 1 1.11457 7.3397 4.56698
29 1 6.62752 7.59404 1.16934
30 1 9.91438 4.38109 1.13141
31 1 9.8708 4.37615 4.04679
32 1 6.68638 10.1379 6.61244
33 1 6.73045 10.2654 1.1873
34 1 6.81439 7.38242 4.43346
35 1 7.24651 10.1103 3.87129
36 1 9.73603 7.67232 7.16125
37 1 12.7785 4.52112 1.59818
38 1 12.5783 4.70311 4.26314
39 1 12.5169 7.5864 1.35561
40 1 12.3 7.31915 4.01677
41 1 1.385 10.2463 1.26332
42 1 3.98459 10.3038 1.2306
43 1 4.10405 12.993 4.12818
44 1 4.19053 9.73901 4.0649
45 1 0.970911 13.1868 1.43448
46 1 3.93755 13.0957 1.04336
47 1 4.07065 13.1101 6.90919
48 1 1.42452 12.9131 3.97871
49 1 6.57903 13.2673 1.20605
50 1 9.65711 10.1434 1.07764
51 1 8.99555 10.3644 7.35264
52 1 6.82143 13.2406 4.14816
53 1 6.7845 15.922 1.23767
54 1 9.51083 13.1337 1.34698
55 1 9.50865 13.2211 4.03193
56 1 9.96543 15.7885 7.04558
57 1 12.1778 10.2171 1.22632
58 1 12.6249 10.1436 4.05148
59 1 12.4802 12.7817 1.28511
60 1 12.2628 12.8527 4.23698
61 1 1.46426 16.0249 1.64791
62 1 4.05599 15.9442 1.27869
63 1 4.3718 15.9495 4.21144
64 1 1.49648 15.7608 4.45693
65 1 1.20953 18.6003 1.35485
66 1 4.20082 18.5566 1.27855
67 1 4.30539 18.9608 4.1783
68 1 1.50922 18.8238 4.09811
69 1 7.06872 18.6392 1.21428
70 1 9.86267 15.8983 1.3705
71 1 9.82468 15.9741 4.19547
72 1 6.79106 15.9163 3.97291
73 1 6.9463 21.2672 1.174
74 1 9.8783 18.4368 1.39598
75 1 12.8249 18.3849 4.01584
76 1 7.07858 18.724 4.11783
77 1 12.5242 15.6956 1.4144
78 1 12.6369 15.5688 3.85782
79 1 12.6865 18.7122 1.27754
80 1 12.8367 21.4738 4.23516
81 1 1.2908 21.5332 1.43591
82 1 3.98658 21.4613 1.33546
83 1 4.03078 21.7217 4.26368
84 1 1.32576 21.4784 4.11075
12094 2 -0.143743 22.9135 8.52884
86 1 9.74522 21.5914 1.26572
87 1 9.67119 21.1983 4.32357
88 1 7.13359 21.577 4.07049
89 1 12.4977 21.3443 1.36422
12022 2 2.61839 11.6991 -0.148719
91 1 1.16487 -1.1418 6.55004
92 1 3.99053 -1.17568 6.85604
93 1 3.90218 -1.12678 9.77605
94 1 1.41624 1.51706 7.2132
95 1 1.17514 4.51413 7.1779
96 1 4.35925 1.39724 6.64758
97 1 4.26072 1.64446 9.8073
98 1 1.39971 1.545 9.69457
99 1 6.99264 4.55366 6.97089
100 1 9.70612 -1.0773 6.73014
101 1 9.80987 -1.25093 9.61811
102 1 7.09164 1.70277 10.0941
12057 2 8.33263 -2.61732 8.15767
104 1 9.60862 1.84315 6.68894
105 1 9.78322 1.64853 9.74924
106 1 7.03902 4.51381 9.87892
107 1 12.6032 -1.13485 6.74055
108 1 12.4919 -1.02855 9.71053
109 1 12.475 1.86755 6.98067
110 1 12.6547 1.80148 9.7578
111 1 1.36011 7.30014 6.926
112 1 4.29453 4.57247 7.02243
113 1 3.79893 4.36989 9.66355
114 1 0.850169 4.7087 9.92152
115 1 1.11126 10.2429 6.88511
116 1 3.97688 7.17256 7.34562
117 1 4.10033 7.15913 10.058
118 1 1.1094 7.50796 9.88401
119 1 8.18929 5.93735 2.59561
120 1 9.72028 4.75984 7.11188
121 1 9.96736 4.38181 9.99187
122 1 6.90848 7.47915 10.1109
123 1 3.95032 10.0543 7.06807
124 1 9.5961 7.63962 4.362
125 1 9.70408 7.17172 9.75492
126 2 8.25665 8.72271 8.79787
127 1 12.4421 4.63513 7.12992
128 1 12.6472 4.60264 9.85458
129 1 12.9203 7.53306 7.02408
130 1 12.2377 7.56798 9.76083
12016 2 8.04548 6.24138 -0.195181
132 1 1.32758 12.9057 7.11144
133 1 3.85447 10.1569 9.95349
134 1 1.0389 10.2641 9.66734
12006 2 8.08427 0.315088 -0.055798
136 1 4.29911 15.9875 6.98563
137 1 3.94427 13.1995 9.75802
138 1 1.21721 13.0488 10.0982
139 1 7.01717 7.42034 7.25282
140 1 9.82932 10.3989 4.70577
141 1 9.63434 10.0164 10.1037
142 1 6.97723 10.5058 9.57029
143 1 6.88557 13.2268 7.03761
144 1 9.57642 13.0346 6.92035
145 1 9.65966 13.1473 10.1093
146 1 6.84245 13.2191 9.85609
15002 2 13.8427 -2.36677 2.6843
148 1 12.4299 10.11 10.0011
12011 2 -0.212455 3.11896 0.0387533
150 1 12.3269 13.1021 9.86176
151 1 3.91283 18.6729 6.814
152 1 7.07902 15.9527 7.04065
153 1 3.84598 15.9729 9.63236
154 1 1.02745 15.8238 10.143
155 1 1.30794 18.6821 7.29629
156 1 6.80879 18.5234 6.90397
157 1 3.92898 18.6967 10.1423
158 1 1.37834 18.6807 10.0808
159 1 12.9489 15.7088 6.65422
160 1 12.7142 18.5866 6.89352
161 1 9.6439 15.7261 10.0401
162 1 6.74406 15.9744 9.9966
163 1 10.1145 18.5145 4.20156
164 1 9.88672 18.5592 7.17189
165 1 9.89507 18.7104 10.0356
166 1 6.8742 18.8327 9.91609
12042 2 2.58349 23.016 0.0314107
168 1 12.5978 15.8665 9.7339
169 1 12.7559 21.3706 7.07097
170 1 12.7712 18.5211 9.93532
171 1 1.30192 21.4573 7.08361
172 1 4.42341 21.6893 6.92533
173 1 4.40442 21.5269 9.90244
174 1 1.42125 21.3778 10.1855
175 1 7.22339 21.3567 6.81372
176 1 9.94969 21.4359 7.01661
177 1 9.84123 21.4998 9.91602
178 1 7.10432 21.555 9.88229
12009 2 11.2136 -2.63685 -0.177407
180 1 12.5382 21.4081 9.93416
181 1 1.33267 -1.07931 9.70794
182 1 4.18867 -1.05503 12.6381
183 1 1.29586 1.55477 12.514
184 1 4.00173 1.78141 12.7002
185 1 6.95811 -1.3323 12.5057
186 1 9.67371 -1.13215 12.5254
187 1 6.83468 1.63184 12.8096
188 1 9.42134 1.72905 12.372
189 1 12.3461 -1.40638 12.467
190 1 12.2367 1.68444 12.6607
191 1 1.1461 4.45214 12.6978
192 1 3.79831 4.55609 12.5124
193 1 1.10852 7.50408 12.9091
194 1 3.98834 7.25932 12.732
195 1 6.53897 4.56947 12.6437
196 1 9.46528 4.61615 12.8491
197 1 6.73062 7.46375 12.7159
198 1 9.46618 7.32466 12.7793
199 1 12.448 4.38329 12.9758
200 1 12.4298 7.31082 12.6612
201 1 1.17415 10.0415 12.6113
202 1 3.89679 10.1878 13.0077
203 1 1.06456 13.0387 12.8091
204 1 4.00133 12.89 12.5657
205 1 6.86054 10.099 12.5525
206 1 9.59406 10.3455 12.6136
207 1 6.9613 12.736 12.6943
208 1 9.78616 13.3294 12.9772
209 1 12.7224 10.2805 12.7522
210 1 12.6157 12.869 12.6828
211 1 0.884547 15.9614 12.9608
212 1 3.77043 15.5851 12.5875
213 1 0.791596 18.5521 12.8381
214 1 3.80647 18.5778 12.7552
215 1 6.7112 15.7982 12.6572
216 1 9.463 15.8025 13.0471
217 1 7.00132 18.8214 12.4728
218 1 9.7312 18.5155 12.8331
219 1 12.5776 15.9573 12.6507
220 1 12.8027 18.8029 12.8761
221 1 1.3886 21.6304 13.0667
222 1 4.18549 21.1979 12.755
223 1 7.16331 21.4485 12.6123
224 1 9.87483 21.371 12.8981
225 1 12.4603 21.5867 12.5203
12125 2 11.1619 20.0274 11.1537
12110 2 11.1288 3.13114 11.3746
12103 2 5.48628 -2.57604 11.0005
12124 2 8.41538 22.8076 11.2834
12036 2 8.48419 17.2674 -0.0512407
12109 2 8.11547 5.9683 11.3672
12130 2 10.8124 0.232775 13.9206
12008 2 5.44193 0.247375 2.66657
392 1 6.68233 4.70721 0.87299
12010 2 11.0473 0.384348 2.63389
12123 2 5.64187 20.252 11.2211
12108 2 5.43232 3.04949 11.3756
12013 2 2.42021 3.19687 2.78963
12054 2 -0.142153 0.230745 8.57242
12107 2 2.30459 5.99675 11.4769
12112 2 2.43967 11.4931 11.2076
12017 2 8.44789 3.01765 2.50416
12018 2 5.42805 5.94031 2.53392
12104 2 8.39985 0.238762 11.2344
12020 2 10.9503 5.87463 2.44025
5633 1 6.76523 -0.92339 3.97625
395 1 9.77691 7.50858 1.15613
12023 2 2.5622 8.73459 2.61716
12120 2 11.1376 14.5904 11.5184
12102 2 2.64634 0.12649 11.14
12113 2 5.33369 8.75957 11.496
12027 2 8.34374 8.48389 2.51057
12028 2 5.39598 11.6895 2.52399
12100 2 11.2183 22.9025 8.3159
12030 2 11.1806 11.4584 2.76767
12099 2 11.4824 19.9477 5.62189
12098 2 5.7899 22.9956 8.39825
12033 2 2.95525 14.6094 2.80894
12032 2 2.73028 17.4011 -0.136995
12097 2 8.53794 20.0937 8.49479
12096 2 8.53201 22.6801 5.64969
12037 2 8.25114 14.559 2.69906
12038 2 5.54227 17.3691 2.79958
12095 2 5.63349 20.0168 5.57626
12040 2 11.0489 16.958 2.78532
15051 2 13.835 0.543359 5.79368
12093 2 2.62169 20.0925 8.48647
12043 2 2.86509 20.2444 2.75485
12039 2 11.0847 14.1613 0.0419649
12092 2 2.58991 22.9135 5.71788
149 1 12.3232 13.0391 7.15536
12047 2 8.41425 19.9896 2.71879
12048 2 5.52761 23.0859 2.87601
12090 2 11.3386 17.1987 8.41781
12050 2 11.0851 22.7617 2.82806
12119 2 8.24735 17.0667 11.3068
12052 2 2.58339 0.212174 5.35707
5723 1 6.88303 -1.31956 6.79572
12118 2 5.35089 14.4835 11.0583
372 1 6.81258 -1.11357 1.27633
12056 2 8.19323 0.218005 5.51982
12081 2 0.00745105 14.5002 5.7305
12058 2 5.4074 0.288604 8.28931
227 1 1.08432 -1.13121 12.5917
12060 2 10.9293 0.247763 8.26838
12117 2 2.46292 17.2615 11.4695
12062 2 2.4546 5.76005 5.52364
12063 2 2.7278 3.0434 8.27246
12089 2 11.2602 14.4461 5.48247
12065 2 5.28436 3.01445 5.36489
12066 2 8.24284 5.50529 5.20842
12067 2 8.34304 3.09436 8.42204
12068 2 5.38757 5.66834 8.7488
12069 2 11.1546 3.22504 5.64465
12070 2 11.097 5.82182 8.54271
12115 2 10.9288 8.77944 11.4391
12072 2 2.48618 11.4542 5.54415
12073 2 2.60911 8.78424 8.37477
12114 2 8.42676 11.7495 11.3455
12075 2 5.00909 8.48734 5.66381
12076 2 8.15963 11.9061 5.62224
12077 2 8.15735 8.87234 5.75305
12078 2 5.48027 11.7229 8.47031
12079 2 11.4379 8.53773 5.60604
12080 2 11.1051 11.5482 8.51955
12041 2 -0.0906816 20.116 -0.00707247
12082 2 2.80055 17.374 5.54095
12083 2 2.62132 14.3228 8.5214
376 1 12.0427 10.1695 7.14745
12085 2 5.56203 14.4865 5.42136
12086 2 8.3781 17.2057 5.50763
12087 2 8.40913 14.3531 8.49532
12088 2 5.47495 17.316 8.54615
5726 1 6.94466 -1.01487 9.60729
131 1 1.45661 10.2174 4.06148
135 1 1.05881 15.7482 7.44147
12122 2 2.59345 22.8424 11.4552
12003 2 2.39915 -2.43768 2.54272
12031 2 -0.0859927 14.5063 -0.167035
12053 2 2.5748 -2.54032 8.07151
15126 2 13.8191 -2.49329 13.8359
12025 2 5.36839 8.96975 -0.0580657
12046 2 8.404 23.0071 -0.198531
15121 2 13.9266 22.9012 11.1362
12026 2 8.37866 11.6897 -0.0645039
12084 2 -0.0828219 17.2355 8.73308
12024 2 -0.0516371 11.572 2.61643
12049 2 11.3059 20.1534 -0.122861
12015 2 5.38293 3.16313 -0.232589
15111 2 13.9567 11.5484 11.2052
15041 2 13.9391 22.9151 0.0251784
12012 2 2.47089 6.06367 0.082108
15101 2 13.9211 0.395691 11.3106
12034 2 0.0399448 17.2674 2.94203
12044 2 -0.218958 22.989 2.90065
12091 2 0.064971 20.1842 5.52396
15021 2 13.8626 11.5754 -0.143092
12055 2 5.33729 -2.34426 5.44503
12029 2 11.231 8.66449 -0.168805
15012 2 13.9099 3.16601 2.9545
15052 2 13.859 -2.52417 8.39498
12121 2 -0.133528 20.0169 11.3523
12051 2 -0.166851 -2.58242 5.41949
12126 2 2.62623 -2.43468 13.8299
12002 2 2.48276 0.162154 -0.078963
12045 2 5.43516 20.0519 -0.127992
15136 2 13.9143 8.58908 13.8701
226 1 3.95395 -1.34157 15.4991
5906 1 6.89062 -0.900658 20.7425
228 1 3.95351 1.41963 15.4324
229 1 1.25446 1.71481 15.4609
230 1 9.65296 -1.12932 15.5322
231 1 6.86902 -1.12719 15.3565
232 1 9.34107 1.75275 15.1105
233 1 6.81205 1.82953 15.6601
5814 1 1.10081 -0.944214 15.4071
235 1 12.4234 1.61458 15.4198
236 1 3.80138 4.19381 15.6131
237 1 0.880856 4.52401 15.6322
238 1 3.81333 7.07694 15.4868
239 1 0.859801 7.40972 15.2935
240 1 9.59795 4.59599 15.5971
241 1 6.61796 4.49117 15.4232
242 1 9.68773 7.36882 15.4682
243 1 6.78047 7.54842 15.3496
244 1 12.4986 4.32653 15.5076
245 1 12.4176 7.20405 15.5369
246 1 3.88386 10.1599 15.6102
247 1 1.14022 10.1711 15.3609
248 1 4.01207 13.0682 15.4481
249 1 1.00441 12.8195 15.6589
250 1 9.54462 10.404 15.2464
251 1 6.79137 10.1681 15.3938
252 1 9.83555 13.0653 15.6827
253 1 6.76839 12.7974 15.7587
254 1 12.4979 9.80967 15.6723
255 1 12.52 12.9675 15.4405
256 1 4.1152 15.7665 15.5264
257 1 1.34836 15.8979 15.7186
258 1 3.97593 18.7521 15.4557
259 1 1.01171 18.6651 15.6319
260 1 9.74179 15.6651 15.5577
261 1 6.90363 15.526 15.6639
262 1 9.57659 18.5921 15.6105
263 1 6.92084 18.6845 15.4569
264 1 12.7645 15.7801 15.3652
265 1 12.3757 18.5934 15.7057
266 1 3.9407 21.4513 15.3967
267 1 1.18401 21.6005 15.9029
268 1 9.9056 21.3861 15.5581
269 1 6.98488 21.4676 15.5539
270 1 12.6466 21.2139 15.6246
271 1 1.15941 -1.09677 18.4048
272 1 3.95622 -1.29143 17.9806
273 1 3.83025 -0.838012 20.7682
274 1 1.34045 -1.13257 21.4156
275 1 1.52525 1.86969 18.383
276 1 4.09316 1.9736 18.3251
277 1 3.68661 2.00501 21.4669
278 1 0.925933 1.63375 20.9701
279 1 6.74666 -0.90126 18.1731
280 1 9.61073 -1.06092 18.2751
281 1 9.76333 -1.0523 21.2345
282 1 6.43744 1.75066 21.4298
283 1 6.75039 1.85972 18.6303
284 1 9.59557 1.7711 18.0253
285 1 9.435 1.77036 21.0254
286 1 6.63802 4.42535 26.6391
287 1 12.3975 -1.13686 18.3138
288 1 12.4081 -0.984599 20.9717
289 1 12.4535 1.67824 18.2167
290 1 12.4723 1.73367 20.8718
291 1 1.05123 4.51594 18.4783
292 1 3.96077 4.97444 18.6125
293 1 3.80385 4.59112 21.5071
294 1 0.885213 4.4442 21.2754
295 1 1.14121 7.15499 18.3954
296 1 3.79133 7.59498 18.2097
297 1 3.932 7.36191 21.2681
298 1 1.02823 7.47397 21.3254
299 1 6.87573 4.7631 18.1826
300 1 9.62317 4.7177 18.1893
301 1 9.65274 4.53002 21.1292
302 1 6.71957 4.71132 21.1234
303 1 6.6184 7.38824 18.2352
304 1 9.49187 7.37337 18.395
305 1 9.62016 7.33735 21.1901
306 1 6.78218 7.55936 21.0643
307 1 12.5337 4.50328 18.4327
308 1 12.4204 4.45194 21.1965
309 1 12.4275 7.54123 18.5533
310 1 12.3987 7.48257 21.4566
311 1 1.27195 10.085 18.3016
312 1 4.20298 10.0036 18.2385
313 1 3.97602 10.0104 21.0896
314 1 1.44272 10.0366 21.0783
315 1 1.2093 12.8967 18.5215
316 1 3.9675 12.8969 18.3011
317 1 3.90618 13.121 21.0554
318 1 0.93871 13.2584 21.2162
319 1 6.8812 10.1215 18.113
320 1 9.70117 10.055 18.0398
321 1 9.63997 10.175 21.1549
322 1 6.55819 10.1263 21.0784
323 1 6.67942 13.259 18.5046
324 1 9.64373 13.0681 18.706
325 1 9.68616 13.0384 21.3013
326 1 6.6559 12.824 21.0285
327 1 12.4923 10.1865 18.3635
328 1 12.268 10.2298 21.2218
329 1 12.4019 13.0753 18.508
330 1 12.259 12.9129 21.2393
331 1 1.07285 15.8314 18.2869
332 1 3.86394 15.7243 18.2318
333 1 3.78803 15.889 21.1127
334 1 1.09367 15.6471 21.1867
335 1 1.22147 18.5533 18.3774
336 1 3.97215 18.6889 18.2134
337 1 4.16991 18.6142 20.9333
338 1 1.20005 18.769 21.1528
339 1 6.70696 16.0326 18.398
340 1 9.43029 15.699 18.1799
341 1 9.55309 16.0161 21.2063
342 1 6.6631 15.6966 21.1325
343 1 6.55124 18.8059 18.5021
344 1 9.55105 18.5393 18.3634
345 1 9.82306 18.8561 21.245
346 1 6.78542 18.3864 21.1674
347 1 12.3694 15.7506 18.3102
348 1 12.5026 15.7579 21.2181
349 1 12.6146 18.3615 18.4968
350 1 12.5362 18.7364 21.3095
351 1 1.34496 21.4171 18.455
352 1 4.13015 21.6092 18.1203
353 1 4.01504 21.385 21.2114
354 1 1.42215 21.8436 21.3717
355 1 7.01228 21.5057 18.2911
356 1 9.78532 21.2495 18.453
357 1 9.58151 21.517 21.2129
358 1 6.77183 21.5733 20.9325
359 1 12.3497 21.3218 18.3051
360 1 12.5822 21.4113 21.0977
361 1 1.13889 -1.16927 23.9264
362 1 4.0255 -1.23724 23.7145
363 1 4.03192 -1.26959 26.6681
364 1 0.893258 -1.3404 26.6817
365 1 0.955511 1.41995 24.1155
366 1 4.05643 1.71017 24.4307
367 1 3.85339 1.46148 27.0055
368 1 1.07106 1.53668 26.9864
369 1 6.66564 1.68059 24.2587
370 1 9.56317 -0.967345 23.8108
371 1 9.54321 -0.825797 26.9258
12207 2 8.43331 -2.27674 25.327
373 1 6.90801 1.55479 26.9425
374 1 9.58334 1.78838 23.8669
375 1 9.95516 1.65328 26.6437
12035 2 5.47088 14.7845 28.0607
377 1 12.3816 -1.1713 23.9286
378 1 12.4598 -1.26573 26.5635
379 1 12.5262 1.82581 23.7572
380 1 12.5608 1.46529 26.6882
381 1 1.1099 4.04814 23.9894
382 1 3.8407 4.40799 24.3196
383 1 3.67956 4.44693 27.0797
384 1 1.08066 4.38488 26.9345
385 1 1.02951 7.14627 24.0655
386 1 3.8381 7.235 23.9832
387 1 3.96713 7.23878 26.8448
388 1 1.01909 7.12265 26.942
389 1 6.68831 4.4604 24.0014
390 1 9.62054 4.3881 24.1542
391 1 9.33564 4.49458 26.9423
12201 2 -0.267876 -2.55318 22.6045
393 1 6.59012 7.3702 24.0962
394 1 9.60154 7.40263 23.9856
12184 2 -0.197888 17.2538 19.6709
396 1 6.80895 7.51753 26.7813
397 1 12.5573 4.52438 24.0056
398 1 12.4241 4.24627 26.8575
399 1 9.63457 7.2063 26.7864
400 1 12.4829 7.01984 27.0874
401 1 1.07205 10.0171 23.7358
402 1 4.08169 9.86858 24.0191
403 1 3.78013 10.1652 26.831
404 1 0.862591 10.0528 26.6863
405 1 0.960068 12.9292 24.1924
406 1 3.95477 12.7856 23.8307
407 1 4.11404 13.1485 26.594
408 1 1.26982 12.9734 26.8995
409 1 6.77001 10.0661 23.931
410 1 9.74087 10.2246 23.7487
411 1 9.60027 10.0864 26.5663
412 1 6.6859 10.2257 26.8414
413 1 6.92358 12.7679 24.0812
414 1 9.97439 13.2264 24.2012
415 1 9.6481 12.8481 26.9659
416 1 7.07967 13.1865 26.9956
417 1 12.5249 10.0313 23.8463
418 1 12.3934 10.0649 26.6758
419 1 12.6057 13.1128 24.0762
420 1 12.4241 12.8279 26.9583
421 1 1.34059 15.6979 24.0925
422 1 4.0697 15.898 23.8947
423 1 3.97989 16.0562 26.8839
424 1 1.29894 16.0784 26.9449
425 1 1.06022 18.5054 24.0323
426 1 3.8439 18.808 23.8189
427 1 4.15514 19.1594 26.6701
428 1 1.11256 19.0354 26.621
429 1 6.77589 15.873 23.9205
430 1 9.59447 15.7657 23.8061
431 1 9.64012 15.7517 26.7436
432 1 6.85851 16.2103 26.7566
433 1 6.88106 18.6887 23.9588
434 1 9.66892 18.6067 24.0965
435 1 9.68937 18.6727 26.8715
436 1 6.83971 18.592 26.6535
437 1 12.4583 15.8519 24.3307
438 1 12.4551 15.6245 27.1655
439 1 12.6359 18.4489 23.8675
440 1 12.7984 18.6611 26.6546
441 1 1.31587 21.7687 24.0534
442 1 4.07701 21.6782 23.888
443 1 4.05618 21.5699 26.8699
444 1 1.23601 21.6705 26.926
445 1 7.04711 21.4062 23.9451
446 1 9.81363 21.2209 24.0002
447 1 9.77956 21.4697 27.0773
448 1 7.08209 21.6591 26.5756
449 1 12.5731 21.3377 23.9274
450 1 12.5567 21.4402 26.7621
5993 1 6.70721 -1.28712 26.8719
12250 2 11.0504 22.9506 25.5531
12136 2 2.57602 8.77571 14.198
12131 2 2.53746 2.91229 14.0941
15162 2 13.9032 3.26768 19.8075
12203 2 2.45547 -2.64554 25.3243
12249 2 11.1908 19.9982 22.6188
15152 2 13.7782 -2.5038 19.6907
12135 2 11.2912 5.89384 14.0947
12144 2 5.25612 17.0371 14.0031
12161 2 -0.107679 2.96621 16.9352
12248 2 5.58649 22.8669 25.454
12231 2 -0.103549 14.5261 22.6617
15201 2 13.8769 0.14336 22.4654
12246 2 8.28162 22.7127 22.5555
12229 2 11.0962 8.85866 22.5705
6381 1 12.2466 7.05161 24.1707
12228 2 5.40924 11.4067 25.4275
12241 2 -0.145614 20.2038 22.7518
5820 1 12.4302 -1.23068 15.4991
15172 2 13.8965 8.65235 19.9086
12227 2 8.2634 8.87619 25.2717
12232 2 2.33119 17.2283 22.5496
12146 2 2.60064 19.859 14.1705
12140 2 11.156 11.6444 14.2803
12247 2 8.19058 20.0183 25.3714
12152 2 2.72112 0.186466 17.0038
12234 2 -0.218175 17.3012 25.5251
12133 2 8.01181 3.20512 14.0563
12225 2 5.27601 8.55111 22.5597
12156 2 8.12456 0.350292 16.848
12226 2 8.07466 11.3556 22.4953
12158 2 5.25353 0.608594 19.7276
12235 2 5.21946 14.5461 22.3251
12160 2 11.1401 0.525068 19.6875
12245 2 5.43326 20.0846 22.4356
12162 2 2.29478 5.81563 16.9579
12163 2 2.3998 3.40525 19.9716
12233 2 2.6369 14.5121 25.4618
12165 2 5.47733 3.19947 17.0266
12166 2 8.29143 6.10624 16.7714
12167 2 8.36919 3.19097 19.4903
12168 2 5.33455 6.2232 19.6435
12169 2 11.0758 2.89194 16.799
12170 2 11.0217 5.96887 19.8072
12243 2 2.45811 20.2122 25.0381
12172 2 2.67744 11.4368 17
12173 2 2.4897 8.6468 19.8036
12242 2 2.79523 22.9713 22.5562
12175 2 5.42506 8.86537 16.8749
12176 2 8.24091 11.498 16.8187
12177 2 8.00672 8.79321 19.7677
12178 2 5.26887 11.6585 19.7813
12179 2 11.107 8.71689 16.9062
12180 2 11.0258 11.5113 19.8325
12223 2 2.52366 8.6099 25.4499
12182 2 2.58515 17.3995 16.9364
12183 2 2.36982 14.4321 19.6233
12222 2 2.58983 11.513 22.6192
12185 2 5.35104 14.3692 17.0586
12186 2 8.1414 17.071 16.7575
12187 2 8.23207 14.3386 19.9465
12188 2 5.35462 17.2088 19.6674
12189 2 11.0361 14.2821 16.9341
12190 2 11.0554 17.1886 19.753
12134 2 5.2549 5.75965 14.059
12192 2 2.80679 22.9766 17.1528
12193 2 2.65304 19.9236 19.7988
12230 2 10.9481 11.5269 25.4286
12195 2 5.42969 20.0598 16.9491
12196 2 8.49482 22.6613 16.8027
12197 2 8.41424 19.9636 19.7436
12198 2 5.70021 22.9547 19.5752
12199 2 11.0481 19.8017 16.974
12200 2 11.1956 22.8324 20.0368
12240 2 11.2375 17.3797 25.5012
12202 2 2.53208 0.216001 22.6839
5989 1 6.74474 -0.934442 23.8867
12239 2 11.192 14.3158 22.689
12157 2 8.17316 -2.46048 19.4733
12206 2 8.10648 0.434577 22.4107
12236 2 8.32389 17.3221 22.5719
12208 2 5.41575 0.133394 25.4851
15141 2 13.876 14.4282 14.0037
12210 2 11.068 0.24752 25.2137
12238 2 5.46364 17.2903 25.2211
12212 2 2.35931 5.85414 22.6272
12213 2 2.45058 2.87753 25.6451
12237 2 8.50954 14.3832 25.3087
12215 2 5.18184 3.15926 22.7247
12216 2 8.10956 5.79799 22.5656
12217 2 7.96374 2.9763 25.5037
12218 2 5.33549 5.90101 25.4785
12219 2 11.0061 3.1325 22.5672
12220 2 10.919 5.72008 25.3597
12149 2 5.313 22.7418 14.1485
12141 2 2.3708 14.3935 14.0876
12148 2 8.29485 19.951 14.0461
12145 2 10.9514 17.087 14.1918
15161 2 13.7095 6.01715 17.0575
12138 2 8.2996 8.55071 14.2043
12194 2 -0.0320116 22.9851 19.8565
12139 2 5.44424 11.6424 14.1707
12129 2 5.42773 0.379356 14.0383
15221 2 13.859 11.5221 22.7041
15192 2 13.8958 20.0312 19.7432
12150 2 11.1338 22.6882 14.0472
15171 2 13.8495 11.5318 16.9871
12154 2 -0.15165 0.204318 19.6769
15151 2 13.8082 0.184476 16.6896
12019 2 11.0499 2.87288 28.0483
12143 2 8.19298 14.3345 14.4617
12209 2 11.0063 -2.48949 22.2333
12171 2 -0.00218923 8.74737 16.9511
15001 2 13.7442 0.121529 28.0389
12174 2 -0.0956442 11.4182 19.8649
15191 2 13.7539 22.8141 16.8636
12153 2 2.53173 -2.4689 19.6202
15222 2 13.7891 8.69172 25.4255
15211 2 13.8497 5.83026 22.562
15146 2 13.8732 20.0912 14.1069
451 1 1.02158 24.4814 1.38341
452 1 4.44412 24.4235 1.26684
453 1 3.92954 24.607 3.93302
454 1 1.15293 24.218 4.42073
455 1 6.99486 26.9869 1.61216
12326 2 -0.148712 42.5352 5.51256
501 1 1.26827 35.5023 3.96179
458 1 6.81346 24.2325 4.33846
12291 2 -0.095509 48.2 -0.23255
457 1 9.6478 24.114 4.1975
461 1 1.32685 27.1176 1.28115
462 1 4.09191 27.1866 1.4549
463 1 4.14474 27.2803 4.18382
464 1 1.48441 27.6448 4.13587
465 1 1.08467 29.9494 1.31034
466 1 4.09914 29.7933 1.13392
467 1 4.46876 30.0138 4.30344
468 1 1.65408 30.2251 4.14769
469 1 6.84075 30.2318 1.42962
470 1 6.8936 29.8504 4.26257
471 1 9.90015 26.8638 4.12345
472 1 7.19873 27.0351 4.2138
473 1 9.52497 30.1515 1.25361
917 1 12.5997 49.6878 1.15883
475 1 11.8566 28.6231 4.81067
179 1 12.2871 24.0268 4.38175
12381 2 8.3121 42.8202 13.8491
6171 1 12.6491 24.2369 6.803
12341 2 -0.196611 25.6904 11.3958
12293 2 5.46178 48.3837 -0.0737202
481 1 1.31915 35.5784 1.04768
482 1 4.12259 35.7731 3.85842
483 1 7.30926 33.0958 1.44608
484 1 3.94126 33.0862 4.16427
485 2 2.74986 34.2851 2.70348
1002 1 4.10087 49.5304 6.82036
487 1 1.16835 32.9105 3.68823
488 1 1.73727 33.0044 1.03998
489 1 9.64034 32.554 3.98918
490 1 9.96 32.8892 1.1509
491 1 9.53758 29.9946 4.33796
492 1 6.73692 32.9363 4.41936
493 1 6.83785 35.8117 1.11202
494 1 9.67252 35.7232 1.06343
495 1 9.52426 35.58 3.89792
496 1 6.80427 35.9986 3.95678
497 1 12.6222 33.1208 1.2113
498 1 12.3827 32.9547 3.99793
499 1 12.5802 36.0027 1.27042
500 1 12.3803 35.8312 4.06314
6463 1 12.1084 28.8153 0.594497
502 1 4.26254 38.3404 1.20784
503 1 4.23242 38.7664 4.20296
504 1 1.36731 38.2284 4.06043
505 1 1.45161 38.3843 1.26866
506 1 4.09251 41.324 1.16083
507 1 3.95754 41.4915 4.13187
508 1 1.28932 40.9458 4.20615
509 1 7.01618 38.6984 1.04313
510 1 9.72777 38.7081 1.40254
511 1 9.90347 38.5321 3.91927
512 1 7.05934 38.6851 4.00562
513 1 7.26086 41.5328 0.943148
514 1 10.2524 41.3915 1.05429
515 1 9.59955 41.1824 3.69876
516 1 6.83311 41.3404 3.81857
517 1 12.5657 38.6271 0.992838
518 1 12.4399 38.7854 4.21634
519 1 12.899 41.2965 1.01868
520 1 12.5566 41.1795 3.7887
521 1 1.31828 41.205 1.35166
522 1 4.09294 44.0603 0.769991
523 1 4.18848 43.9297 3.85246
524 1 1.39142 43.9869 4.34321
525 1 1.61508 46.9632 1.26204
526 1 4.01441 47.2397 1.45784
527 1 3.88075 46.7552 4.1678
528 1 1.30878 46.8257 4.26587
529 1 6.75305 44.4229 1.24032
530 1 9.62046 44.5107 0.90693
531 1 9.79948 44.135 3.81634
532 1 6.99719 44.0401 4.18051
533 1 6.85063 46.9262 1.13374
534 1 9.70758 47.3532 1.15114
535 1 9.8033 46.9243 3.8446
536 1 6.81902 47.0133 4.00346
537 1 12.4137 43.9877 1.07331
538 1 12.7367 43.9551 4.05732
539 1 12.646 46.9293 1.22041
540 1 12.7363 46.8867 4.01206
541 1 1.17252 24.4086 7.31592
542 1 4.16839 24.2759 6.7502
543 1 4.30644 24.2331 9.60371
544 1 1.49614 24.324 9.98212
474 1 12.2315 27.0105 2.37461
546 1 9.77691 24.2747 6.9045
547 1 9.84383 24.2788 9.75639
548 1 6.79969 24.1447 10.2485
634 1 9.60852 24.2202 12.6865
550 1 12.5828 24.2996 9.76854
551 1 1.04099 27.3492 7.12487
552 1 4.0029 27.0793 6.9631
553 1 3.87851 27.2917 9.66963
554 1 1.06391 27.2611 10.2322
555 1 1.39066 30.1647 7.11799
556 1 4.12797 30.0908 7.16304
557 1 4.21122 30.1806 10.0083
558 1 1.60829 29.9585 9.77085
559 1 6.86307 27.0859 7.00786
560 1 9.73596 27.0786 7.39836
561 1 9.47826 27.0429 10.0044
562 1 6.65664 27.0891 9.95067
563 1 6.87744 29.9418 7.09211
564 1 9.74624 30.0101 7.22937
565 1 9.74832 29.8407 10.201
566 1 7.18058 29.8939 9.91333
567 1 12.5354 27.028 7.21988
568 1 12.425 27.1786 9.81701
569 1 12.6514 29.8584 7.44421
12254 2 -0.208888 28.5588 2.92175
571 1 1.28403 33.0161 6.83606
572 1 4.35598 32.7196 6.89511
573 1 4.1827 32.8163 9.70091
574 1 1.35016 32.6603 9.66083
575 1 1.53613 35.7502 6.73692
576 1 4.31887 35.5862 6.77587
577 1 3.93338 35.9613 9.64068
578 1 0.952723 35.7832 9.52508
579 1 7.02018 32.795 6.93208
580 1 9.59966 32.5887 6.8848
581 1 9.69281 32.5303 9.69535
582 1 6.72765 32.6117 9.63333
583 1 7.05182 35.6519 7.11284
584 1 10.0846 35.3952 6.73157
585 1 9.62329 35.4686 9.73587
586 1 6.98619 35.3659 9.60295
587 1 12.4597 32.5999 6.90368
588 1 12.4541 32.7976 9.71186
589 1 12.7085 35.5732 6.70161
590 1 12.5645 35.8604 9.67345
591 1 1.11353 38.8103 6.90691
592 1 3.87987 38.3632 7.02165
593 1 4.01932 38.7859 9.86719
594 1 1.16422 38.3768 9.72495
595 1 1.25947 41.6328 7.03089
596 1 4.20956 41.18 7.09324
597 1 3.95562 41.5383 9.67567
598 1 1.16629 41.2925 9.8706
599 1 6.76921 38.716 7.0816
600 1 9.72041 38.4262 6.89851
601 1 9.81871 38.32 9.82315
602 1 6.71281 38.5348 10.076
603 1 7.05677 41.4958 6.70034
604 1 9.99671 41.1886 6.92403
605 1 9.83388 40.9524 10.0329
606 1 7.07509 41.4072 9.50515
607 1 12.5705 38.3395 7.04552
608 1 12.5757 38.3584 9.81375
609 1 12.6205 41.2148 6.95662
610 1 12.4725 41.2936 9.64361
611 1 1.46162 44.2364 7.00331
612 1 4.31666 44.1703 6.96834
613 1 4.47026 44.4564 9.89856
614 1 1.23189 44.1189 10.0263
615 1 1.11823 47.0602 6.97756
616 1 4.12865 46.938 6.86083
617 1 4.10926 46.9219 9.84666
618 1 1.04928 46.999 9.69551
619 1 7.1776 44.1853 6.92189
620 1 9.73122 44.3024 6.62437
621 1 9.7057 44.0132 9.59966
622 1 7.21906 44.3919 10.0539
623 1 6.91052 47.3438 7.06493
624 1 9.59866 47.0536 6.73352
625 1 9.4806 46.9172 9.66409
626 1 6.79617 47.1708 9.86225
627 1 12.496 43.8919 6.85133
628 1 12.396 44.2752 9.8174
629 1 12.4551 46.8888 6.88945
630 1 12.9081 47.1261 9.75429
631 1 1.13271 24.2746 12.943
12370 2 -0.176819 34.0921 13.9362
633 1 6.86721 24.0866 12.8971
480 1 12.1098 30.278 2.91157
635 1 12.4887 24.2596 12.541
636 1 1.4047 27.2406 13.0189
637 1 4.08339 26.6934 12.5472
638 1 1.19605 29.9024 12.5886
639 1 3.86127 29.5363 12.8828
640 1 6.90357 27.1546 12.774
641 1 9.74555 27.0365 12.8004
642 1 6.87029 30.1611 12.8219
643 1 9.64222 29.8687 12.9246
644 1 12.6457 27.1067 12.7635
645 1 12.5584 30.1758 12.6041
646 1 1.40571 32.7971 12.4729
647 1 4.20402 32.5563 12.5924
648 1 1.22733 35.3785 12.3059
649 1 3.82748 35.4358 12.4567
650 1 6.9422 32.8975 12.4381
651 1 9.63717 32.8005 12.5501
652 1 6.87026 35.7899 12.671
653 1 9.74037 35.5426 12.5606
654 1 12.6701 32.9034 12.8138
655 1 12.5183 35.8307 12.6894
656 1 0.857226 38.2785 12.6439
657 1 3.65161 38.3325 12.4431
658 1 1.28487 41.0562 12.6316
659 1 3.83227 41.0856 12.4675
660 1 6.67428 38.428 12.7279
661 1 9.58728 38.3353 12.4953
662 1 6.54713 41.253 12.2409
663 1 9.48528 41.0742 12.8189
664 1 12.3753 38.6012 12.7385
665 1 12.3007 41.3891 12.5663
666 1 1.1669 44.1118 12.7686
667 1 4.07861 44.0486 12.6189
668 1 1.19878 46.9589 12.6672
669 1 3.97936 47.2977 12.3656
670 1 6.70961 44.2544 12.7781
671 1 9.65659 44.0817 12.3763
672 1 6.89948 47.0015 12.6572
673 1 9.58807 47.1384 12.3783
674 1 12.4261 44.0768 12.4788
675 1 12.2886 47.0317 12.2804
12363 2 11.1545 48.5729 10.9979
918 1 12.822 49.4642 3.95456
12253 2 2.50585 25.7291 2.58686
12362 2 5.43368 48.6069 11.0529
12259 2 11.3653 25.79 0.269849
15341 2 13.8024 28.5747 11.2213
12257 2 8.41188 25.658 2.83963
12258 2 5.49404 28.3617 2.75352
15346 2 13.8181 34.4046 11.1397
12260 2 10.6154 28.735 2.84365
12360 2 10.8946 42.6142 11.0315
12383 2 11.0488 45.5765 13.9379
12263 2 2.92 31.0111 2.62386
12359 2 8.28961 45.673 11.388
545 1 7.06037 24.4043 7.13413
15378 2 13.7398 42.7689 13.8485
12267 2 8.16783 31.4862 2.83848
12268 2 5.96769 34.3208 2.65607
12345 2 11.0328 25.6738 11.2502
12270 2 11.0639 34.342 2.40282
12358 2 5.44396 42.7175 11.0074
12344 2 8.25664 28.513 11.5466
12273 2 2.83231 37.52 2.55385
12357 2 2.57028 45.8377 10.9972
12343 2 5.42833 25.3607 11.5701
85 1 7.09723 24.2285 1.47294
12277 2 8.28469 37.2448 2.5271
12278 2 5.57505 39.904 2.57271
476 1 4.37612 32.663 1.63083
12280 2 11.1992 39.8953 2.41729
12355 2 11.2527 37.0196 11.2806
460 1 9.67949 27.1304 1.37898
12283 2 2.67806 42.6825 2.54916
12354 2 8.35328 39.8333 11.1951
456 1 9.8598 24.4231 1.22988
570 1 12.3746 29.8397 9.91879
12287 2 8.21783 43.0462 2.35015
12288 2 5.36453 45.6414 2.6196
12309 2 -0.121843 34.2614 8.21838
12290 2 11.1339 45.6906 2.55761
12353 2 5.21258 37.0714 11.3187
12292 2 2.76963 48.3258 2.85895
12299 2 -0.106969 28.3435 8.72004
12294 2 8.34374 48.5389 2.53376
12346 2 -0.111899 31.0583 11.1511
459 1 12.6929 24.3606 1.56523
12297 2 2.83987 28.7279 5.77291
12298 2 2.91714 25.61 8.32745
12256 2 8.4411 28.6978 -0.164731
12300 2 5.47667 25.7309 5.46535
12301 2 8.39144 28.5815 5.74628
12302 2 8.32218 25.6882 8.43654
12303 2 5.56092 28.6167 8.56181
12304 2 11.2676 25.8081 5.59971
12305 2 10.9592 28.5304 8.51656
12352 2 2.43487 39.8266 11.1442
12307 2 2.91415 34.2538 5.93516