ITEM: TIMESTEP
350000
ITEM: NUMBER OF ATOMS
18000
ITEM: BOX BOUNDS xy xz yz pp pp pp
-2.3733732791907891e-01 2.8131337327920363e+01 0.0000000000000000e+00
-2.7445909489608571e+00 3.3747259094896566e+02 0.0000000000000000e+00
-2.1879087470226430e-01 2.8112790874701524e+01 0.0000000000000000e+00
ITEM: ATOMS id type x y z
1 1 1.55517 -1.42396 1.50293
2 1 4.37768 -1.27866 1.39951
3 1 4.08411 -1.33755 4.40898
4 1 1.43637 -1.15678 4.39646
5 1 1.32251 1.3714 0.864491
6 1 4.29471 1.67923 1.092
7 1 4.40841 1.71074 4.10341
8 1 1.65217 1.64103 3.73106
9 1 7.14781 1.29584 1.61748
10 1 10.2938 -1.18286 0.945431
11 1 9.78956 -1.24215 3.79035
12 1 7.0355 1.37368 6.91057
13 1 7.21992 1.53847 4.19676
14 1 9.90049 1.65527 1.63082
15 1 9.98431 1.4442 4.35598
16 1 6.96567 4.43764 4.01063
17 1 13.0685 -1.04988 1.22793
18 1 12.6036 -1.33963 3.87615
19 1 12.5504 1.39803 1.09004
20 1 12.9948 1.38135 4.09099
21 1 1.44291 4.51397 1.22886
22 1 4.272 4.55281 1.28443
23 1 4.33235 4.36182 4.0378
24 1 1.4623 4.40871 3.93756
25 1 1.31333 7.33012 1.3345
26 1 4.20835 7.26689 1.48526
27 1 4.22216 7.19346 4.17836
28 1 1.35598 7.21815 4.06527
29 1 7.03912 7.08679 0.995989
30 1 9.72982 4.3276 1.0992
31 1 9.8376 4.12719 4.02093
32 1 6.77112 9.70148 7.16968
33 1 7.09428 10.0496 1.48931
34 1 11.0622 11.018 5.70461
35 1 9.21054 10.5123 3.83862
36 1 9.27957 9.87769 6.98438
37 1 12.6538 4.35 1.15615
38 1 12.4752 4.31687 3.97373
39 1 12.5464 7.17304 1.44459
40 1 12.9958 7.30907 4.15332
41 1 1.11559 10.192 1.43897
42 1 4.46188 10.2117 1.35139
43 1 4.21252 13.294 4.03573
44 1 3.99218 10.3689 4.01214
45 1 1.54177 13.0614 1.40648
46 1 4.03408 13.053 1.36446
47 1 4.4895 13.0116 6.80411
48 1 1.15521 12.9255 4.38065
49 1 6.91907 13.0624 1.25018
50 1 9.69686 10.1813 1.06923
51 1 7.51579 6.90288 6.73738
52 1 6.99348 13.077 4.12019
53 1 6.81845 15.8515 1.18918
54 1 9.69603 12.9753 1.31919
55 1 9.73198 13.1878 3.82198
56 1 9.77377 15.9359 6.79602
57 1 12.4379 10.2407 1.14792
58 1 12.4525 10.0177 3.73829
59 1 12.7204 12.9595 1.09074
60 1 12.6811 13.0585 4.01645
61 1 1.30611 15.9093 1.16083
62 1 4.12277 15.891 1.29005
63 1 3.95988 16.0094 4.21715
64 1 0.891461 15.8087 4.3007
65 1 1.02104 18.8197 1.08719
66 1 4.12699 18.7157 1.16344
67 1 3.88765 18.8842 4.13138
68 1 1.15491 18.4931 3.70363
69 1 6.69868 18.656 1.02864
70 1 9.61781 15.8762 1.19508
71 1 9.46502 15.8335 4.27992
72 1 6.6627 16.2026 4.16905
73 1 7.10895 21.4294 1.11516
74 1 9.55166 18.614 1.11588
75 1 12.3517 18.8158 3.89141
76 1 6.70731 19.0337 3.83142
77 1 12.4614 15.6015 1.40296
78 1 12.6362 15.9778 4.19966
79 1 12.4156 18.4696 0.846311
80 1 12.4976 21.7874 3.9218
81 1 0.937702 21.7556 0.830884
82 1 3.78023 21.534 0.902724
83 1 3.96252 21.758 3.6807
84 1 1.28154 21.1545 4.14949
12053 2 2.51883 -2.62631 8.30132
86 1 9.80054 21.6046 1.23591
87 1 9.7018 21.4306 4.10473
88 1 6.76804 21.633 4.11345
89 1 12.6012 21.5137 1.16741
12138 2 8.1949 8.78086 13.953
91 1 1.24163 -1.07394 7.04605
92 1 4.12595 -1.24251 7.13355
93 1 3.76637 -1.21661 9.91277
94 1 1.20364 1.56886 6.73649
95 1 1.27148 4.36271 6.744
96 1 3.98199 1.73524 6.93447
97 1 4.17107 1.36695 9.88987
98 1 1.41202 1.61149 9.68189
99 1 7.00497 4.16635 6.81504
100 1 10.0029 -1.42908 6.97517
101 1 9.61738 -0.916674 9.69196
102 1 6.9609 1.64034 9.50458
12103 2 5.05294 -2.64089 11.0195
104 1 9.91097 1.3891 6.83516
105 1 9.66956 1.82132 9.80232
106 1 6.92756 4.53609 9.54648
107 1 12.6291 -1.13328 6.76657
108 1 12.3606 -1.16982 9.9125
109 1 12.4985 1.68654 6.95347
110 1 12.4356 1.59844 9.53649
111 1 1.34742 6.98392 6.86275
112 1 4.15907 4.36511 6.8493
113 1 4.07929 4.36438 9.59465
114 1 1.16912 4.39771 9.68652
115 1 1.38718 10.0418 7.14179
116 1 4.43477 7.44041 7.16015
117 1 3.879 7.15954 9.92985
118 1 1.29445 7.21187 9.67348
119 1 8.50684 6.18211 3.2281
120 1 9.9363 4.44926 6.69479
121 1 9.70143 4.55478 9.80567
122 1 6.7692 7.24617 9.65244
123 1 3.92912 10.4033 7.0229
124 1 10.1162 7.34118 6.54342
125 1 9.53877 7.33005 9.71657
126 2 8.24144 8.69767 8.63657
127 1 12.7693 4.43641 6.90293
128 1 12.826 4.43771 9.79317
129 1 12.8264 7.2652 7.06776
130 1 12.5356 7.19084 9.71364
12148 2 8.41353 19.887 13.8126
132 1 1.26359 13.0706 7.06009
133 1 4.05353 9.99058 9.90015
134 1 1.20797 10.0678 9.92498
12111 2 -0.0961302 8.58418 10.9722
136 1 4.1401 15.8029 7.11269
137 1 3.87359 12.9853 9.43533
138 1 1.2241 12.9852 9.82361
139 1 6.74829 7.84774 4.08889
140 1 6.74667 10.5156 4.76352
141 1 9.70715 10.3105 9.70962
142 1 6.81604 10.064 9.91487
143 1 7.05441 13.0308 6.81733
144 1 9.84153 13.2213 7.20016
145 1 9.21998 13.526 10.1987
146 1 6.53255 12.961 9.67903
12057 2 8.34385 -2.65161 8.48405
148 1 12.4138 9.96277 9.82305
12064 2 -0.0478152 5.53433 8.23108
150 1 12.5672 12.7089 9.54095
151 1 4.07371 18.6349 6.77828
152 1 6.99113 16.0463 7.07312
153 1 4.09855 15.6219 9.8368
154 1 1.14457 15.7721 10.0355
155 1 0.981025 18.7086 6.79557
156 1 6.81171 18.9163 6.77949
157 1 3.65228 18.4807 9.76482
158 1 1.11643 18.5604 9.8567
159 1 12.8367 15.5821 6.73556
160 1 12.8097 18.3375 7.0539
161 1 9.727 16.1859 9.73825
162 1 6.67523 16.1871 9.95421
163 1 9.80226 18.531 4.16154
164 1 9.80361 18.7897 7.19346
165 1 9.43306 18.8931 9.77585
166 1 6.61452 18.9357 9.47804
12004 2 -0.0615434 0.0284022 2.46755
168 1 12.3752 15.5333 9.5358
169 1 12.3557 21.2266 6.83657
170 1 12.7211 18.3701 9.68028
171 1 1.31955 21.7173 6.94426
172 1 3.97868 21.2737 6.82988
173 1 4.1157 21.3192 9.58101
174 1 1.12997 21.2144 9.79921
175 1 6.60179 21.5304 6.72679
176 1 9.56545 21.5971 6.94292
177 1 9.84082 21.7683 9.82434
178 1 6.97297 21.709 9.56718
12126 2 2.8072 -2.53024 13.977
180 1 12.7627 21.4341 9.63088
181 1 0.889925 -1.15131 9.80277
182 1 3.91188 -1.25576 12.4385
183 1 1.38973 1.67367 12.6334
184 1 3.98023 1.60135 12.8152
185 1 6.61657 -1.23852 12.6712
186 1 9.62794 -1.16324 12.4069
187 1 6.9411 1.61288 12.3192
188 1 9.84976 1.62534 12.5473
189 1 12.5784 -0.786238 12.5657
190 1 12.7747 1.80991 12.6237
191 1 1.23787 4.47512 12.605
192 1 3.97139 4.39209 12.4695
193 1 1.37915 7.22153 12.3968
194 1 4.16984 7.20048 12.4971
195 1 6.64908 4.3492 12.6448
196 1 9.60718 4.22398 12.4917
197 1 6.93693 7.17953 12.5827
198 1 9.75553 7.04674 12.4334
199 1 12.4833 4.56408 12.3843
200 1 12.4517 7.33831 12.6471
201 1 0.969091 10.0116 12.3924
202 1 3.69015 10.1187 12.4526
203 1 1.37551 12.9475 12.6996
204 1 4.15528 12.9902 12.5148
205 1 6.66953 10.1112 12.7095
206 1 9.46974 9.92127 12.1125
207 1 7.00829 13.0188 12.358
208 1 9.93406 13.0723 12.683
209 1 12.388 10.0475 12.5865
210 1 12.5405 13.0482 12.6369
211 1 1.25776 15.7723 12.8367
212 1 3.81007 15.6458 12.7099
213 1 1.10417 18.7976 12.6607
214 1 4.13603 18.6034 12.3684
215 1 6.78053 16.1488 12.7059
216 1 9.59577 15.9265 12.6717
217 1 6.7977 18.8617 12.4031
218 1 9.90624 18.7619 12.4339
219 1 12.432 15.7811 12.2807
220 1 12.8979 18.428 12.7783
221 1 1.21545 21.5462 12.5493
222 1 4.08151 21.4196 12.6643
223 1 6.76855 21.4599 12.3075
224 1 9.66292 21.703 12.6738
225 1 12.3515 21.0788 12.4685
12125 2 11.3206 20.0936 10.8634
12110 2 11.197 3.00301 11.1832
12051 2 -0.197197 -2.67837 5.31669
12124 2 8.17884 22.9912 11.0707
12007 2 8.57557 -2.62857 2.71702
12109 2 8.32209 5.66364 11.032
12014 2 -0.107545 5.76489 2.60017
12008 2 5.53029 0.0595251 2.7627
392 1 7.00961 4.45436 1.29586
12010 2 11.4443 0.239735 2.65762
12123 2 5.2746 20.0544 11.1862
12108 2 5.45421 2.88747 11.0286
12013 2 2.94552 3.16498 2.52278
12150 2 11.147 22.7503 13.8169
12107 2 2.62186 5.80909 11.1592
12112 2 2.68144 11.5725 11.004
12017 2 8.37376 3.04867 2.70999
12018 2 5.85903 6.05172 2.76148
12104 2 8.41719 0.23911 11.1524
12020 2 11.2259 5.73206 2.79044
5633 1 6.9131 -1.30041 4.00394
12071 2 -0.00511408 8.29898 5.40919
12023 2 2.75367 8.67902 2.83837
12120 2 11.0966 14.3061 11.0612
12102 2 2.48509 0.0903492 11.2423
12113 2 5.36514 8.4532 11.2032
12027 2 8.47365 8.33684 2.17575
12028 2 5.64625 11.6983 2.81494
12100 2 11.2607 22.9418 8.17628
12030 2 11.2015 11.7447 2.65783
12099 2 11.1928 19.9993 5.57484
12098 2 5.36904 22.8656 8.14341
12033 2 2.6807 14.5422 2.83952
103 1 12.5886 9.79568 7.1326
12097 2 8.16116 20.1346 8.35895
12096 2 8.36606 22.8533 5.61266
12037 2 8.19115 14.4718 2.56575
12038 2 5.42688 17.517 2.73064
12095 2 5.23127 20.3125 5.29852
12040 2 11.0163 17.2714 2.66906
12074 2 -0.196408 11.5026 8.42858
12093 2 2.46236 20.0319 8.32101
12043 2 2.75867 20.022 2.45367
12015 2 5.73603 3.18581 -0.158604
12092 2 2.74208 22.8033 5.48333
149 1 12.5623 12.7348 6.74452
12047 2 8.4176 20.1112 2.56006
12048 2 5.54941 22.8275 2.47202
12090 2 11.2605 16.9757 8.20588
12050 2 10.9863 22.8827 2.49533
12119 2 8.41417 17.3278 11.3013
12052 2 2.68027 0.221636 5.46221
5723 1 7.09926 -1.57752 6.76422
12118 2 5.3122 14.4186 10.987
372 1 7.12978 -1.60327 1.47791
12056 2 8.41557 0.0283369 5.48506
12036 2 8.24124 17.1563 -0.12707
12058 2 5.44871 0.0830469 8.34698
227 1 1.16 -1.14001 12.7197
12060 2 11.2602 0.0188419 8.2518
12117 2 2.63047 17.2026 11.3571
12062 2 2.94182 5.60216 5.35261
12063 2 2.62937 2.99779 8.30462
12089 2 11.2363 14.3739 5.41553
12065 2 5.64928 2.96795 5.49188
12066 2 8.35151 5.23457 5.41593
12067 2 8.47221 2.85172 8.15906
12068 2 5.49279 5.81555 8.22938
12069 2 11.4721 2.794 5.52009
12070 2 11.3131 5.7529 8.22754
12115 2 11.0364 8.51223 11.1265
12072 2 2.64731 11.7115 5.44633
12073 2 2.59746 8.65941 8.40088
12114 2 8.28071 11.6076 11.1525
12075 2 5.29808 8.86037 5.55054
12076 2 8.67016 11.9294 5.54585
12077 2 8.56172 8.74777 5.22393
12078 2 5.53618 11.4809 8.29362
12079 2 11.7262 8.61792 5.50543
12080 2 11.2735 11.3548 8.08337
15042 2 13.8312 19.8431 2.47531
12082 2 2.65493 17.3512 5.50197
12083 2 2.43371 14.5319 8.34497
376 1 10.2837 7.88561 3.74622
12085 2 5.60981 14.7525 5.52983
12086 2 8.34864 17.3179 5.63841
12087 2 8.0195 14.4883 8.42274
12088 2 5.44792 17.3301 8.27954
5726 1 6.60445 -1.39639 9.79827
131 1 1.18163 9.93767 4.16441
135 1 1.18238 16.0554 7.00742
12122 2 2.86967 22.8009 11.2206
15101 2 14.0528 0.188205 11.2378
12136 2 2.35012 8.62891 13.9939
395 1 9.97676 7.23972 0.793732
12105 2 11.1857 -2.59587 11.2293
12022 2 2.848 11.4241 0.14948
12044 2 -0.0899137 22.8241 2.56525
12106 2 -0.249958 3.03565 10.9992
12084 2 -0.249276 17.0062 8.30845
12121 2 -0.220058 20.1786 11.2428
12134 2 5.4424 5.94671 14.031
12145 2 11.2825 17.0454 13.9204
12132 2 -0.105638 5.9414 13.9142
12149 2 5.54419 22.7148 13.9587
12128 2 8.26509 -2.50462 13.818
12012 2 2.77067 6.01048 -0.0463148
15052 2 13.8571 -2.62633 8.29676
12026 2 8.35186 11.6162 -0.156788
12061 2 0.0958108 2.99807 5.24961
12021 2 -0.18998 8.48114 -0.0328333
15121 2 13.7402 22.7722 11.3688
12116 2 0.0395278 14.4092 11.571
12146 2 2.57131 19.9867 13.8998
15071 2 13.621 11.3869 5.26805
12135 2 10.9674 5.71254 13.7743
12094 2 -0.0915979 22.7821 8.38385
12031 2 0.079095 14.2059 0.0588569
12019 2 11.2084 2.82462 -0.0543491
12029 2 11.2621 8.72201 -0.188325
12144 2 5.3528 17.2791 13.8085
12143 2 8.14748 14.3714 13.8542
226 1 4.21541 -1.29025 15.3554
5906 1 6.81483 -0.697165 21.0572
228 1 3.97667 1.48908 15.232
229 1 1.20843 1.78577 15.4233
230 1 9.45103 -1.30518 15.3868
231 1 6.94007 -1.04697 15.8001
232 1 9.73964 1.83889 15.4805
233 1 6.84521 1.85281 15.3622
5814 1 1.33039 -1.25279 15.4134
235 1 12.3352 1.61618 15.537
236 1 3.98184 4.48475 15.5503
237 1 1.3527 4.63984 15.6215
238 1 4.0318 7.19356 15.3571
239 1 1.12754 7.387 15.4281
240 1 9.72621 4.62226 15.1928
241 1 6.79239 4.5835 15.6046
242 1 9.98258 7.29268 15.1378
243 1 6.78724 7.48311 15.368
244 1 12.6952 4.32926 15.5048
245 1 12.6179 7.06198 15.6723
246 1 4.00791 10.0469 15.4175
247 1 1.135 10.1346 15.3043
248 1 3.94614 12.9025 15.4655
249 1 1.01432 12.885 15.2679
250 1 9.65353 10.2278 15.3632
251 1 6.80776 10.1929 15.6298
252 1 9.62461 12.9997 15.2742
253 1 6.68668 13.2613 15.47
254 1 12.7504 10.2027 15.3864
255 1 12.8326 13.1115 15.3514
256 1 3.91317 16.1039 15.336
257 1 1.32643 15.6763 15.7687
258 1 4.19777 18.6572 15.2639
259 1 1.26233 18.554 15.1879
260 1 9.48789 15.9052 15.3298
261 1 6.46052 16.0773 15.5024
262 1 9.895 18.4613 15.4276
263 1 6.94273 18.6556 15.2704
264 1 12.4322 15.7003 15.2201
265 1 12.6736 18.6583 15.3927
266 1 4.0142 21.4829 15.1686
267 1 1.13579 21.4918 15.3108
268 1 9.92931 21.3282 15.3449
269 1 7.03145 21.4414 15.4276
270 1 12.7837 21.3411 15.1693
271 1 1.18635 -1.27865 18.1866
272 1 3.88067 -0.901171 18.1333
273 1 3.85242 -1.05239 21.0969
274 1 1.10159 -1.10395 21.3006
275 1 1.1272 1.43973 18.1611
276 1 3.96813 2.0037 18.3108
277 1 3.75056 1.93957 21.24
278 1 1.13359 1.96441 20.9091
279 1 6.54368 -1.30073 18.6217
280 1 9.59328 -0.949715 18.1784
281 1 9.76583 -1.17519 21.0636
282 1 6.43458 1.90118 20.6483
283 1 7.25473 1.79132 18.1661
284 1 9.82261 1.78588 18.3899
285 1 9.58953 1.5251 21.1464
286 1 6.99488 4.646 26.7464
287 1 12.4466 -1.11295 18.2648
288 1 12.6332 -1.25711 21.2467
289 1 12.3679 1.7987 18.543
290 1 12.5658 1.66345 21.2963
291 1 1.15312 4.31675 18.3591
292 1 4.14129 4.58239 18.2681
293 1 4.28727 4.90947 21.2861
294 1 1.69964 4.70004 21.3926
295 1 1.02023 7.28576 18.2403
296 1 4.04082 7.46409 18.3325
297 1 4.12501 7.58458 21.1726
298 1 1.00578 7.06473 21.326
299 1 7.11527 4.53485 18.1498
300 1 9.94354 4.66178 18.1292
301 1 9.66506 4.54245 20.98
302 1 6.93913 4.4674 20.9623
303 1 6.8523 7.38343 18.1695
304 1 9.65796 7.47088 18.1097
305 1 9.76614 7.40062 20.9781
306 1 6.79108 7.14076 20.8694
307 1 12.5944 4.62682 18.3948
308 1 12.4371 4.69046 21.0991
309 1 12.3357 7.54975 18.5405
310 1 12.5834 7.38297 21.2747
311 1 1.20112 9.88829 18.1479
312 1 3.96537 10.4346 18.3274
313 1 4.02738 10.4292 21.2474
314 1 1.04788 9.89356 21.0783
315 1 1.22029 12.6598 18.1873
316 1 4.44792 13.2911 18.2465
317 1 3.41319 12.7736 20.7797
318 1 0.990542 13.0335 21.2339
319 1 6.86562 10.254 18.4205
320 1 9.60911 10.1298 18.2493
321 1 9.68462 10.0744 21.0331
322 1 6.90857 10.1698 21.1553
323 1 7.37892 13.0561 18.1743
324 1 9.92537 12.8553 18.0832
325 1 9.69062 12.9098 21.0214
326 1 6.81643 12.9687 21.0424
327 1 12.726 10.1198 18.1342
328 1 12.5066 10.2168 20.7323
329 1 12.5966 13.2526 18.279
330 1 12.2947 12.9896 20.7301
331 1 1.15879 15.8259 18.5333
332 1 4.12855 15.9092 18.2269
333 1 4.0328 15.7022 20.9533
334 1 1.2135 16.2296 21.1271
335 1 1.17864 18.7265 17.9597
336 1 4.33925 18.6675 18.1051
337 1 4.18615 18.6721 20.9766
338 1 1.31801 18.6417 20.9995
339 1 7.22551 15.7668 18.4151
340 1 10.0199 15.9271 18.2023
341 1 9.4829 15.6541 21.2402
342 1 6.79934 15.983 21.3925
343 1 7.05678 18.6786 18.0932
344 1 9.63584 18.5304 18.2959
345 1 9.99455 18.3845 21.224
346 1 7.01687 18.7958 20.9529
347 1 12.9376 15.8074 18.3123
348 1 12.4636 15.8291 21.1479
349 1 12.3502 18.7431 18.2597
350 1 12.5856 18.7376 21.1458
351 1 1.21232 21.4209 18.3086
352 1 3.97178 21.7182 18.1182
353 1 3.94791 21.6756 20.9721
354 1 1.46081 21.6766 20.9078
355 1 7.00907 21.4747 18.295
356 1 9.8505 21.5446 18.15
357 1 9.397 21.4623 21.234
358 1 6.82885 21.4299 20.9721
359 1 12.5205 21.6516 18.2497
360 1 12.7657 21.5107 20.9892
361 1 1.26127 -1.41662 24.2712
362 1 4.3015 -1.18617 23.8856
363 1 4.30441 -1.32781 26.9029
364 1 1.57816 -1.3838 26.9311
365 1 1.08715 1.42519 23.6552
366 1 4.11858 1.73335 24.03
367 1 4.18137 1.62492 26.814
368 1 1.57534 1.34821 26.5294
369 1 6.94418 1.39945 23.6555
370 1 9.86206 -1.18945 24.0245
371 1 9.83052 -1.39283 26.7827
12140 2 11.2664 11.7438 13.9507
373 1 7.11437 1.66329 26.8256
374 1 9.81452 1.63233 23.9297
375 1 9.90563 1.48823 27.0062
15172 2 13.9274 8.7517 19.7542
377 1 12.973 -1.14371 23.8494
378 1 12.4816 -1.08847 26.7167
379 1 12.6263 1.57017 23.7298
380 1 12.6086 1.6166 26.5397
381 1 1.26312 4.03975 24.0766
382 1 4.26368 4.43416 24.1029
383 1 4.18124 4.38111 27.0401
384 1 1.27409 4.2842 26.7377
385 1 1.4779 7.43535 24.1396
386 1 4.27234 7.43554 24.1552
387 1 4.24038 7.19167 26.9996
388 1 1.08808 7.0522 26.9984
389 1 6.83259 4.35371 23.9128
390 1 9.65759 4.44141 24.0406
391 1 9.75136 4.63229 26.646
12049 2 11.0506 20.2237 28.1061
393 1 7.07458 7.32072 23.8143
394 1 9.9115 7.21159 23.6037
12174 2 -0.218469 11.5312 19.8195
396 1 6.91136 7.61392 26.6073
397 1 12.2813 4.34952 23.7299
398 1 12.3979 4.54146 26.6175
399 1 9.79652 7.3941 26.3347
400 1 12.7529 7.39787 26.8173
401 1 1.26923 10.1701 23.8844
402 1 4.18251 10.1734 24.4507
403 1 4.2972 10.0169 26.9962
404 1 1.5133 9.86147 26.878
405 1 1.16065 12.9597 24.0181
406 1 4.15613 12.9089 23.7212
407 1 4.24592 13.1074 26.5399
408 1 1.31471 12.7787 26.9158
409 1 6.8355 10.0296 23.8357
410 1 9.74679 10.0955 23.6896
411 1 9.712 10.2045 26.6015
412 1 6.87505 10.2745 26.8808
413 1 6.9365 13.1225 23.9482
414 1 9.70334 12.7299 23.972
415 1 9.70843 13.1027 26.904
416 1 6.85464 13.291 26.7275
417 1 12.6028 10.1086 23.834
418 1 12.5295 9.95688 26.8012
419 1 12.7364 13.0181 23.6095
420 1 12.7402 12.8608 26.4743
421 1 1.22832 15.8903 23.915
422 1 4.17544 15.9852 23.8195
423 1 4.09142 15.8621 26.6237
424 1 1.16936 15.6374 26.5897
425 1 1.16958 18.6493 24.0237
426 1 4.03081 18.6273 23.9752
427 1 3.78487 18.8202 26.9283
428 1 1.07371 18.78 26.5619
429 1 7.01883 15.7932 23.993
430 1 10.0178 15.7311 24.1116
431 1 9.78305 16.0121 26.7342
432 1 7.00234 15.7438 26.7603
433 1 7.15812 18.6281 23.7824
434 1 9.65299 18.5496 23.9626
435 1 9.67301 18.6837 26.8827
436 1 6.70419 18.555 26.6975
437 1 12.8978 15.825 24.0632
438 1 12.5129 15.6854 26.5545
439 1 12.3858 18.805 23.8715
440 1 12.5545 18.6454 26.6313
441 1 1.15273 21.5335 23.6059
442 1 4.05383 21.3953 23.7757
443 1 3.69251 21.5302 26.4246
444 1 1.14711 21.38 26.4719
445 1 6.85009 21.3649 23.7085
446 1 9.889 21.3199 23.8938
447 1 10.0084 21.5463 26.6535
448 1 6.76463 21.4354 26.5679
449 1 12.5636 21.4578 23.6915
450 1 12.5382 21.333 26.5689
5993 1 7.08444 -1.37454 26.8782
12250 2 11.3526 22.673 25.1069
12016 2 8.42246 5.77524 28.024
15191 2 13.8966 22.8831 16.8622
12153 2 2.62805 -2.54284 19.6962
12032 2 2.50219 17.3102 27.935
12249 2 11.0614 19.8946 22.3924
12133 2 8.18343 3.18663 14.0454
12231 2 -0.0724433 14.631 22.632
12046 2 8.52507 23.1096 27.9641
12009 2 11.5247 -2.64258 28.0482
12248 2 5.4114 22.7485 25.1917
12131 2 2.80453 3.00551 13.9895
12025 2 5.71686 8.69631 28.1115
12246 2 8.22233 22.9161 22.3458
12229 2 11.0203 8.73223 22.3553
6381 1 12.5513 7.26685 24.0246
12228 2 5.62986 11.707 25.3173
12155 2 5.49208 -2.70039 16.8175
5820 1 12.3354 -1.04774 15.5726
12159 2 11.0572 -2.64917 16.7291
12227 2 8.39326 8.82887 25.272
12232 2 2.7019 17.3152 22.5033
12161 2 -0.192168 3.14003 16.6618
12244 2 -0.106547 22.7106 25.1731
12247 2 8.50311 20.0305 25.4206
12152 2 2.4257 0.164398 16.8632
12141 2 2.49668 14.3953 14.3408
12214 2 -0.0591943 5.72702 25.437
12225 2 5.39132 8.6723 22.7374
12156 2 8.42746 0.274208 16.8514
12226 2 8.45935 11.3654 22.3364
12158 2 5.19506 0.281515 19.683
12235 2 5.5632 14.4962 22.5499
12160 2 11.0289 0.305784 19.8212
12245 2 5.42653 20.073 22.4408
12162 2 2.73206 5.95484 16.9893
12163 2 2.63552 3.32111 19.8189
12233 2 2.8359 14.4721 25.2363
12165 2 5.52431 3.14317 17.0205
12166 2 8.37504 5.94837 16.7291
12167 2 8.34883 3.11384 19.6657
12168 2 5.55932 5.80875 19.7314
12169 2 11.3391 3.13102 17.1569
12170 2 11.0112 6.06685 19.7077
12243 2 2.62432 19.9389 25.2878
12172 2 2.54175 11.2202 16.9518
12173 2 2.45897 8.70396 19.712
12242 2 2.5999 23.0107 22.3267
12175 2 5.37761 8.75435 16.8281
12176 2 8.32652 11.3992 16.8186
12177 2 8.22129 8.62474 19.6414
12178 2 5.44145 11.7654 19.7527
12179 2 11.1399 8.6057 16.7284
12180 2 11.1782 11.5017 19.3198
12223 2 2.74016 8.67857 25.6546
12182 2 2.6634 17.2955 16.8746
12183 2 2.60127 14.415 19.5744
12222 2 2.5587 11.5444 22.4378
12185 2 5.41103 14.5432 16.6968
12186 2 8.28534 17.3322 16.8217
12187 2 8.44986 14.4581 19.6948
12188 2 5.7144 17.2468 19.5541
12189 2 11.224 14.3326 16.692
12190 2 11.2433 17.1945 19.5951
12203 2 2.87541 -2.75749 25.4326
12192 2 2.45664 22.8336 16.6916
12193 2 2.72168 20.1111 19.4877
12230 2 11.2533 11.4463 25.3018
12195 2 5.61531 19.9728 16.6268
12196 2 8.57445 22.6423 16.9572
12197 2 8.35888 20.1735 19.7139
12198 2 5.57583 22.9666 19.7099
12199 2 11.1268 20.017 16.6724
12200 2 11.1977 22.987 19.7833
12240 2 11.3627 17.1884 25.2071
12202 2 2.59307 0.150145 22.6246
5989 1 7.02699 -1.43133 23.8852
12239 2 11.2331 14.2569 22.3839
12221 2 -0.055669 8.79523 22.6293
12206 2 8.30229 0.0378384 22.5264
12236 2 8.32167 17.13 22.7492
12208 2 5.45506 0.138753 25.6017
12194 2 -0.212268 22.9017 19.6979
12210 2 11.2747 0.159209 25.1112
12238 2 5.68693 17.3192 25.2009
12212 2 2.91253 6.1161 22.7578
12213 2 2.91628 3.02841 25.3755
12237 2 8.38412 14.4208 25.4032
12215 2 5.35605 2.93975 22.5057
12216 2 8.34386 6.03006 22.4707
12217 2 8.38826 2.9495 25.4762
12218 2 5.56178 5.95664 25.4149
12219 2 11.0712 3.07801 22.4083
12220 2 11.0951 5.83079 25.0871
15242 2 13.9465 19.9826 25.2865
15212 2 13.9932 3.24966 25.0569
12184 2 -0.241722 17.2317 19.6754
12129 2 5.38935 0.237506 14.0702
15221 2 13.9466 11.536 22.2937
15161 2 13.7979 5.87876 17.1053
12139 2 5.26887 11.5964 13.9507
12204 2 0.0452683 -0.0155779 25.3759
12205 2 5.66954 -2.55 22.45
12157 2 8.16915 -2.50443 19.6938
15192 2 13.735 20.0273 19.6323
12039 2 11.244 14.4072 28.1094
12127 2 -0.152721 0.369146 13.97
12042 2 2.3844 22.8949 27.9625
12211 2 -0.108345 3.05141 22.1857
12224 2 -0.0030722 11.6775 25.6416
15151 2 13.7768 0.0981733 16.8551
12130 2 10.9806 0.421514 14.1552
15031 2 13.9347 17.1089 28.0709
12045 2 5.44303 20.2245 28.0858
12035 2 5.24921 14.4856 28.0985
12002 2 3.04375 -0.061912 28.183
12006 2 8.51393 -0.0338835 28.0758
451 1 1.18295 24.3772 1.12535
452 1 3.93383 24.3295 1.07934
453 1 3.91251 24.5092 3.92868
454 1 1.38094 24.0297 4.0987
455 1 6.69177 27.0647 0.867606
459 1 12.2841 24.262 0.981038
501 1 0.86064 34.981 4.02535
458 1 6.72994 24.4107 3.60432
12375 2 -0.0822193 39.7517 13.8645
457 1 9.69469 24.1099 3.90647
461 1 0.982518 27.2669 1.3393
462 1 3.75057 27.1347 1.08889
463 1 4.19371 27.2025 3.93747
464 1 1.19015 27.0928 3.99451
465 1 1.11058 29.8691 1.14352
466 1 4.16427 30.0321 0.95163
467 1 4.25549 30.0471 3.92423
468 1 1.00244 29.715 3.94027
469 1 6.80042 29.7613 0.930878
470 1 6.95722 29.8701 3.85707
471 1 9.48891 27.0209 4.07139
472 1 6.85141 27.2781 4.18447
473 1 9.4757 29.7283 1.10231
456 1 9.63336 24.5197 0.882087
475 1 11.6884 29.0073 4.77627
12383 2 11.2488 45.4925 13.8238
15291 2 13.9646 48.4057 2.45424
6171 1 12.6536 24.1049 6.96
12384 2 2.60625 48.2569 13.829
15341 2 13.7668 28.3593 11.3434
481 1 1.46795 35.7157 1.58653
482 1 3.76936 35.4174 4.25177
483 1 6.61513 32.7586 1.22219
484 1 4.32772 32.6862 3.69945
485 2 2.67421 33.9549 2.89149
912 1 6.92623 49.8218 3.76032
487 1 1.66803 32.5113 4.19177
488 1 0.875565 32.8571 1.35802
489 1 9.87578 32.7468 4.1914
490 1 9.46741 32.6737 1.27248
491 1 9.33838 29.9889 3.93569
492 1 6.93131 32.6863 4.05186
493 1 6.68204 35.6613 1.27684
494 1 9.65751 35.6106 1.01974
495 1 9.36318 35.615 3.93738
496 1 6.84187 35.3851 4.35943
497 1 12.4734 32.9699 1.22832
498 1 12.5816 32.908 4.27622
499 1 12.701 35.7798 0.952822
500 1 12.2684 35.5692 3.57336
12326 2 -0.128031 42.7218 5.41038
502 1 4.0693 38.4742 1.32111
503 1 4.07638 38.2215 4.39949
504 1 1.26117 38.0365 4.09869
505 1 1.26997 38.3344 1.21352
506 1 4.19395 41.3177 1.26534
507 1 4.23325 41.2933 4.00469
508 1 1.58587 41.0472 4.0127
509 1 6.92957 38.5259 1.18394
510 1 9.7219 38.4515 1.11205
511 1 9.5716 38.4904 4.07396
512 1 6.59471 38.4316 3.94697
513 1 6.90202 41.3031 1.10441
514 1 9.49257 41.3271 1.05174
515 1 9.61875 41.3453 4.08531
516 1 6.96989 41.2753 4.10591
517 1 12.5216 38.402 1.25231
518 1 12.6185 38.2808 4.06232
519 1 12.5241 41.0284 1.37459
520 1 12.422 41.1201 4.01478
521 1 1.38996 41.4934 1.19384
522 1 4.18118 43.9467 1.12067
523 1 4.127 44.3947 3.89366
524 1 1.20236 44.2523 3.91654
525 1 1.11753 46.8957 1.23503
526 1 4.05447 46.9827 1.34851
527 1 3.8648 47.1031 4.24832
528 1 0.900145 46.8032 3.87269
529 1 7.06044 44.1902 1.32964
530 1 9.82474 43.8389 1.32318
531 1 9.69757 44.2649 4.00906
532 1 6.82233 44.095 4.01294
533 1 6.51589 46.9523 0.798579
534 1 9.58656 46.8337 1.2309
535 1 9.52148 47.1177 4.0758
536 1 6.80438 46.9057 3.85594
537 1 12.5754 43.7527 1.41142
538 1 12.3732 44.108 4.3161
539 1 12.3445 46.8707 0.879843
540 1 12.4222 46.8673 3.888
541 1 1.16651 24.3905 7.09262
542 1 4.10231 24.1489 6.84115
543 1 3.89613 24.2049 9.67038
544 1 0.984325 24.0428 10.0297
474 1 11.6322 26.4794 2.50817
546 1 9.8584 24.2736 6.78795
547 1 9.38334 24.5009 9.82401
548 1 6.70735 24.3005 9.47474
634 1 9.62545 24.3298 12.4405
550 1 12.4085 23.8999 10.0179
551 1 1.13902 27.1488 7.10618
552 1 3.97561 26.9122 6.87551
553 1 4.18983 27.0018 9.61938
554 1 1.21782 27.0443 9.94169
555 1 1.36966 29.8481 6.91024
556 1 3.95637 29.9288 6.80743
557 1 4.13581 29.836 9.78939
558 1 1.36415 29.9414 9.82606
559 1 6.71423 27.2476 6.90506
560 1 9.60584 26.9477 6.73684
561 1 9.88767 27.2033 9.60399
562 1 7.02719 26.8827 9.63008
563 1 6.69222 29.812 6.97811
564 1 9.71744 29.8816 6.89133
565 1 9.77953 30.1138 9.54425
566 1 6.83853 29.985 9.79033
567 1 12.5214 27.2496 7.13103
568 1 12.603 27.0454 9.86575
569 1 12.513 30.0205 7.05756
12296 2 -0.155721 25.63 5.46191
571 1 1.32245 32.6739 6.95336
572 1 4.35542 32.7366 6.85822
573 1 4.03296 32.8043 9.72725
574 1 1.41765 32.9045 9.89171
575 1 1.30885 35.5441 7.00853
576 1 4.04203 35.3968 7.32929
577 1 4.20101 35.8082 9.72321
578 1 1.18402 35.5843 9.69724
579 1 7.01733 32.6696 6.91298
580 1 9.66805 32.6374 7.08969
581 1 9.83627 32.8999 9.64069
582 1 6.93224 32.7322 9.52874
583 1 6.90925 35.3642 6.83595
584 1 9.88294 35.4684 6.79016
585 1 9.8776 35.6349 9.51131
586 1 6.99267 35.4354 9.49563
587 1 12.4419 32.6448 7.11945
588 1 12.5809 32.6754 9.87487
589 1 12.731 35.7318 6.61544
590 1 12.6446 35.3961 9.41684
591 1 1.21539 38.342 6.79005
592 1 4.09876 38.08 7.09149
593 1 4.24403 38.5317 9.83718
594 1 1.45444 38.4753 9.56669
595 1 1.20755 41.0943 6.94815
596 1 4.03693 41.0663 6.98805
597 1 4.22497 41.4856 9.73957
598 1 0.948091 41.367 9.84501
599 1 6.79578 38.1849 6.7001
600 1 9.82062 38.4129 6.66858
601 1 9.67706 38.2085 9.38743
602 1 6.92337 38.2182 9.5643
603 1 6.92712 41.1682 6.87172
604 1 9.61407 41.2887 7.00713
605 1 9.89449 41.3849 9.64623
606 1 6.88377 41.4213 9.68319
607 1 12.4961 38.4743 6.74588
608 1 12.6237 38.2836 9.69485
609 1 12.4921 41.2102 6.85898
610 1 12.4166 41.2246 9.69899
611 1 1.50244 44.0885 6.61802
612 1 4.128 43.9016 7.17281
613 1 3.69597 43.9692 9.86774
614 1 0.948403 44.0584 9.53977
615 1 0.988075 46.8434 6.90394
616 1 3.96307 46.7568 6.97143
617 1 3.67545 46.7357 9.71664
618 1 0.921696 46.8559 9.659
619 1 6.83061 44.2805 6.62671
620 1 9.56066 43.9856 7.02807
621 1 9.6358 44.1227 9.7508
622 1 6.68375 43.9912 9.35714
623 1 6.7454 46.9861 6.65356
624 1 9.6585 46.9462 6.86729
625 1 9.73064 47.0587 9.60346
626 1 6.8572 46.8282 9.57308
627 1 12.4713 44.0477 6.90034
628 1 12.3804 44.1393 9.58207
629 1 12.3937 46.9749 6.59644
630 1 12.6081 46.7769 9.73688
631 1 1.42131 24.4682 12.623
15378 2 13.9072 42.8573 13.8441
633 1 6.76908 24.2137 12.4947
480 1 11.9179 30.7843 2.65283
635 1 12.483 24.2265 12.7224
636 1 1.20884 27.1382 12.5999
637 1 3.95034 27.1865 12.4855
638 1 1.11449 29.7034 12.5065
639 1 3.97366 29.9925 12.7621
640 1 6.80171 27.1221 12.4987
641 1 9.92975 27.3187 12.4583
642 1 6.98031 30.1146 12.4552
643 1 9.68299 30.0659 12.5391
644 1 12.6894 27.0459 12.8842
645 1 12.6136 29.8813 12.7926
646 1 1.49782 32.8344 12.4499
647 1 4.22867 33.0444 12.4951
648 1 1.44801 35.6103 12.372
649 1 3.97621 35.6346 12.6131
650 1 6.96285 32.7964 12.2942
651 1 9.53027 33.0966 12.5449
652 1 6.88726 35.4469 12.4703
653 1 9.76667 35.8552 12.3671
654 1 12.5585 32.9674 12.5414
655 1 12.5537 35.6285 12.2946
656 1 1.658 38.4915 12.613
657 1 4.22202 38.7182 12.699
658 1 1.32743 41.3933 12.5473
659 1 4.16079 41.3089 12.8403
660 1 7.17377 38.3097 12.5687
661 1 9.8008 38.5148 12.2242
662 1 7.16047 41.494 12.3447
663 1 9.56804 41.3177 12.3436
664 1 12.6041 38.5795 12.5118
665 1 12.5871 41.4452 12.5545
666 1 1.05404 43.9792 12.5825
667 1 3.89847 44.1701 12.387
668 1 1.07223 46.8389 12.6237
669 1 3.76816 46.9513 12.4164
670 1 6.59123 44.4725 12.1088
671 1 9.56541 44.0707 12.3928
672 1 6.71761 46.9093 12.472
673 1 9.69446 47.0473 12.4785
674 1 12.485 44.1799 12.449
675 1 12.6333 46.8809 12.526
12363 2 11.0879 48.2828 11.0467
6463 1 12.0753 28.859 0.641197
12253 2 2.52233 25.7451 2.60181
12362 2 5.46806 48.1711 11.0408
15252 2 13.8565 25.5371 2.52871
12371 2 8.23109 31.6119 13.7747
12257 2 8.15062 25.6267 2.483
12258 2 5.63132 28.5383 2.46482
15306 2 13.8486 34.1796 5.59334
12260 2 10.6103 28.5097 2.48442
12360 2 11.1983 42.7347 10.9988
179 1 12.6311 24.3569 4.15929
12263 2 2.59879 30.5699 2.50284
12359 2 8.32948 45.602 10.9275
545 1 6.94834 24.3578 6.60963
1004 1 1.24648 49.762 9.65119
12267 2 8.19512 31.4237 2.33778
12268 2 5.88095 34.1366 2.71925
12345 2 11.2051 25.5033 11.1224
12270 2 11.0152 34.136 2.65367
12358 2 5.51493 42.709 11.0907
12344 2 8.32785 28.6086 11.1625
12273 2 2.73077 37.1523 2.72179
12357 2 2.31296 45.3767 11.1495
12343 2 5.55248 25.7788 11.1144
85 1 6.77781 24.2408 0.958293
12277 2 8.3196 37.0668 2.70341
12278 2 5.65924 40.045 2.70601
476 1 3.39459 32.5411 1.17692
12280 2 11.1065 39.572 2.75937
12355 2 11.1849 37.167 10.9575
460 1 9.3069 27.0838 1.03167
12283 2 2.70727 42.8327 2.59233
12354 2 8.3938 39.7604 10.9935
15326 2 13.7944 45.6812 5.40266
570 1 12.3444 30.0934 9.86315
12287 2 8.40775 42.6704 2.76453
12288 2 5.45108 45.6281 2.59868
12372 2 5.39557 34.2612 14.0104
12290 2 11.2098 45.4322 2.57842
12353 2 5.80168 36.7354 11.0251
12292 2 2.74036 48.4246 2.57262
12274 2 -0.0473707 39.9378 2.4712
12294 2 8.28721 48.3109 2.4739
12351 2 -0.299188 37.1477 11.1719
1003 1 4.12808 49.7549 9.7204
12297 2 2.72238 28.3301 5.53136
12298 2 2.54396 25.6727 8.44629
12275 2 5.32735 37.0017 -0.191154
12300 2 5.62215 25.7795 5.3916
12301 2 8.34896 28.3674 5.4072
12302 2 8.50826 25.7888 8.19735
12303 2 5.43208 28.5393 8.29057
12304 2 11.1799 25.7703 5.04981
12305 2 11.2369 28.7604 8.44592
12352 2 2.70783 39.8754 11.1887
12307 2 2.72504 34.1073 6.07601
12308 2 2.70027 31.1692 8.32809
12381 2 8.38873 42.6634 13.7812
12310 2 5.65158 31.3213 5.47418