ITEM: TIMESTEP
300000
ITEM: NUMBER OF ATOMS
18000
ITEM: BOX BOUNDS xy xz yz pp pp pp
-2.2718756416805475e-01 2.8121187564168977e+01 0.0000000000000000e+00
-2.7800050376999685e+00 3.3750800503770097e+02 0.0000000000000000e+00
-2.2380942782752949e-01 2.8117809427827520e+01 0.0000000000000000e+00
ITEM: ATOMS id type x y z
1 1 1.46461 -1.33297 1.1867
2 1 3.83983 -1.49072 1.18873
3 1 3.9418 -1.55038 4.12831
4 1 1.43683 -1.25593 4.09089
5 1 1.09536 1.58581 1.07891
6 1 4.0666 1.58866 1.20662
7 1 3.93631 1.40089 3.86118
8 1 1.41752 1.70346 3.99737
9 1 7.01167 1.7371 0.989328
10 1 9.50819 -1.19 1.16052
11 1 9.74474 -1.08707 3.862
12 1 6.87215 1.85851 6.55572
13 1 6.83032 1.59451 3.93528
14 1 9.95748 1.3729 1.1155
15 1 9.67548 1.79316 4.10642
16 1 6.81646 4.32186 4.03991
17 1 12.7479 -1.47063 1.06978
18 1 12.6145 -1.33117 3.91442
19 1 12.7437 1.33512 1.16259
20 1 12.4673 1.32269 4.03912
21 1 1.23602 4.26722 1.32652
22 1 4.09997 4.52178 1.28367
23 1 4.22685 4.17154 4.06866
24 1 1.17104 4.32639 4.03156
25 1 1.18182 7.06146 1.17944
26 1 4.10001 7.13791 1.14211
27 1 4.19711 7.07058 4.08622
28 1 1.36383 7.19355 3.9858
29 1 6.87028 7.31694 1.09574
30 1 9.74737 4.32891 1.08518
31 1 9.91211 4.62682 3.83295
32 1 10.0176 8.76065 7.1163
33 1 6.80028 10.0679 1.29177
34 1 10.8995 11.2594 5.43894
35 1 9.08521 10.1536 3.927
36 1 8.54568 6.59926 7.52807
37 1 12.6499 4.23388 0.917524
38 1 12.5408 4.28583 3.69502
39 1 12.7826 7.24067 0.981261
40 1 12.4641 7.17659 3.82647
41 1 1.06324 9.95733 1.0593
42 1 4.32977 10.1381 1.01985
43 1 4.15187 12.7945 3.90398
44 1 4.0656 9.975 3.93939
45 1 1.01491 12.6181 1.32304
46 1 3.84947 12.6914 1.19862
47 1 3.95238 13.0935 6.72099
48 1 1.14678 13.0249 4.14787
49 1 6.90937 13.0218 1.47879
50 1 9.94034 9.9929 1.23102
51 1 6.94255 7.92911 3.66543
52 1 6.99767 12.996 3.99294
53 1 6.92229 15.8455 0.924457
54 1 9.64773 12.7205 1.34611
55 1 9.65426 13.2138 3.91947
56 1 9.92078 15.8881 6.64592
57 1 12.801 9.94569 1.13393
58 1 12.8449 10.1424 3.79752
59 1 12.314 12.7799 0.772594
60 1 12.5799 12.9389 3.79343
61 1 1.44782 15.6656 1.26106
62 1 4.05179 15.5004 1.31238
63 1 4.16373 15.7742 4.02222
64 1 1.62881 15.7457 3.93307
65 1 1.31817 18.4634 1.44953
66 1 4.12182 18.6061 1.10002
67 1 3.79458 18.7048 4.41247
68 1 0.978987 18.4613 4.15868
69 1 6.88256 18.7055 1.62628
70 1 9.76474 15.418 1.17693
71 1 9.70755 15.9448 3.94385
72 1 6.82255 15.9498 4.00468
73 1 6.93538 21.5164 1.31168
74 1 9.54327 18.2629 1.37542
75 1 12.3239 18.6876 3.94539
76 1 6.54858 18.6264 4.11378
77 1 12.3776 15.6908 1.14998
78 1 12.5226 15.7088 3.94969
79 1 12.6328 18.4162 1.30932
80 1 12.389 21.6915 4.29215
81 1 1.28585 21.3314 1.37421
82 1 3.98517 21.3041 1.33339
83 1 3.80516 21.5573 4.10364
84 1 1.17784 21.0625 4.38868
15061 2 13.6354 5.69745 5.20655
86 1 9.56616 21.3388 1.5562
87 1 9.6674 21.358 4.22814
88 1 6.56345 21.2393 4.10859
89 1 12.1752 21.3302 1.37126
12091 2 -0.146396 19.9016 5.52531
91 1 1.35783 -1.33707 7.11532
92 1 4.11388 -1.49021 6.86255
93 1 3.84329 -1.27053 10.009
94 1 1.26537 1.66912 6.96693
95 1 1.22537 4.56998 6.70214
96 1 4.16835 1.34673 6.79206
97 1 3.84948 1.4531 9.71572
98 1 1.18041 1.69694 9.63706
99 1 7.16044 4.40442 7.12135
100 1 9.78836 -1.18966 6.71622
101 1 9.43314 -1.21961 9.70786
102 1 6.6872 1.63092 9.74772
103 1 13.493 9.5465 6.45769
104 1 9.57481 1.35372 7.14818
105 1 9.6056 1.65604 9.87717
106 1 7.1984 4.0645 9.85302
107 1 12.7706 -0.91032 6.90628
108 1 12.5579 -1.23949 9.7512
109 1 12.6475 1.80003 6.79677
110 1 12.8757 1.50545 9.83328
111 1 1.38242 7.59327 6.74682
112 1 4.23941 4.12397 7.04346
113 1 4.08413 4.35393 9.86172
114 1 1.0565 4.38779 9.73024
115 1 1.2694 10.2175 6.82173
116 1 3.90513 7.26099 6.69961
117 1 4.35862 7.24952 9.6337
118 1 1.25455 7.493 9.75738
119 1 6.60984 10.5023 5.05916
120 1 10.0276 4.08787 6.65018
121 1 9.6603 4.53694 9.86726
122 1 6.96522 7.0445 9.76232
123 1 3.89356 10.3918 6.86099
124 1 9.62023 7.43241 4.38434
125 1 9.7222 7.49688 10.2199
126 2 8.61761 8.68299 8.92199
127 1 12.4446 4.46732 6.65086
128 1 12.4939 4.12467 9.55225
129 1 12.3918 7.23127 6.8497
130 1 12.33 7.0077 9.58141
12111 2 -0.208125 8.46669 11.3157
132 1 1.2231 13.0408 6.86571
133 1 4.02062 10.0801 9.62348
134 1 1.12681 10.408 9.53935
12031 2 -0.137375 14.2728 -0.06003
136 1 3.87687 15.7156 6.73261
137 1 4.171 12.8972 9.47741
138 1 1.07596 13.0176 9.62106
139 1 6.68087 9.11439 7.31662
140 1 6.64349 6.75377 5.86515
141 1 9.88047 10.174 10.0528
142 1 6.95972 10.0818 10.1273
143 1 6.79986 13.2223 6.97028
144 1 9.82198 13.3063 7.21818
145 1 9.77257 12.9131 10.1095
146 1 6.91908 12.8428 9.88534
12141 2 2.45625 14.0349 13.7098
148 1 12.5869 10.0169 9.66211
12007 2 8.49553 -2.71766 2.75375
150 1 12.7158 12.8035 9.78334
151 1 4.16767 18.877 7.24531
152 1 6.95518 16.1277 7.0306
153 1 3.74854 15.985 9.33891
154 1 1.02173 15.7664 9.5733
155 1 1.46625 18.8093 6.95301
156 1 6.92784 18.7783 6.84753
157 1 3.88353 18.5509 9.7632
158 1 0.96188 18.7412 9.58281
159 1 12.7157 15.6603 6.93502
160 1 12.6463 18.5773 6.84763
161 1 9.63909 15.6951 9.82042
162 1 6.70141 15.9816 9.71295
163 1 9.66341 18.5782 4.12489
164 1 9.69184 18.6487 6.902
165 1 9.77499 18.6747 9.71443
166 1 6.91542 18.7431 9.81266
12042 2 2.63666 22.5794 0.0558023
168 1 12.5963 15.8247 9.69008
169 1 12.769 21.6265 7.16455
170 1 12.3874 18.6702 9.94617
171 1 1.32679 21.6188 7.24647
172 1 4.18716 21.5802 7.0407
173 1 3.82874 21.4755 9.83119
174 1 1.08417 21.4896 10.1438
175 1 7.10159 21.6937 6.8421
176 1 9.5498 21.2985 6.89926
177 1 9.49615 21.6071 9.72809
178 1 6.41574 21.3427 9.65304
12012 2 2.71518 5.83702 -0.105409
180 1 12.371 21.4466 10.0055
181 1 1.23529 -1.26109 9.6582
182 1 3.95881 -1.33409 12.6348
183 1 1.18394 1.30861 12.6492
184 1 3.75719 1.51983 12.6376
185 1 6.83744 -1.29552 12.3466
186 1 9.69398 -1.1446 12.508
187 1 6.79968 1.8599 12.418
188 1 9.68212 1.61404 12.5546
189 1 12.505 -1.47215 12.4988
190 1 12.528 1.55039 12.5135
191 1 1.0071 4.28309 12.4645
192 1 3.96688 4.1137 12.4868
193 1 1.12786 6.96031 12.4791
194 1 4.11739 7.34964 12.6126
195 1 7.05121 4.56498 12.3282
196 1 9.93268 4.31725 12.6346
197 1 7.0404 7.32068 12.4394
198 1 9.72102 7.29671 12.6199
199 1 12.6066 4.42504 12.5203
200 1 12.5333 7.42124 12.7496
201 1 1.09921 10.1239 12.6175
202 1 3.83628 9.86897 12.4728
203 1 1.1947 12.7471 12.1027
204 1 3.78887 12.7127 12.5225
205 1 6.97294 10.0764 12.6213
206 1 9.73328 10.0952 12.7738
207 1 7.0154 13.0119 12.5575
208 1 9.98742 13.1532 12.7436
209 1 12.6395 10.1706 12.5298
210 1 12.4596 12.9155 12.6806
211 1 1.16182 15.5777 12.4777
212 1 3.96164 15.678 12.2751
213 1 1.10103 18.8272 12.4571
214 1 3.86291 18.5898 12.7564
215 1 6.93764 16.0196 12.7469
216 1 9.52575 15.7556 12.4717
217 1 6.94514 18.774 12.5071
218 1 9.58192 18.7542 12.6297
219 1 12.3845 15.689 12.6337
220 1 12.3916 18.4356 12.6941
221 1 1.24492 21.506 12.7952
222 1 4.10573 21.1496 12.5375
223 1 7.05726 21.5486 12.4946
224 1 9.78847 21.6315 12.6872
225 1 12.4285 21.2621 12.9525
12125 2 11.0448 20.1301 11.2913
12110 2 11.1673 2.83986 11.0862
15071 2 13.9583 11.5778 5.28537
12124 2 8.32924 22.9452 11.2335
12145 2 11.0205 17.1694 13.9508
12109 2 8.30959 5.80795 11.1751
12046 2 8.55538 22.6695 -0.0872952
12008 2 5.25523 -0.117298 2.56414
392 1 6.90812 4.65252 1.25357
12010 2 11.2854 -0.00968658 2.38614
12123 2 5.31745 19.8348 11.0673
12108 2 5.54002 3.15401 11.0464
12013 2 2.86126 3.08055 2.77022
15041 2 13.6808 22.6001 0.0232405
12107 2 2.70329 5.85178 11.2982
12112 2 2.61116 11.3541 10.8058
12017 2 8.3526 2.93395 2.4891
12018 2 5.71684 5.94087 2.75769
12104 2 8.11032 0.208088 11.1572
12020 2 11.4735 5.72679 2.3084
5633 1 6.9039 -1.19789 4.01933
12064 2 -0.170166 5.65856 8.40444
12023 2 2.63404 8.66696 2.51723
12120 2 11.1565 14.3075 11.1313
12102 2 2.6333 0.114643 11.2618
12113 2 5.6563 8.40625 11.2432
12027 2 8.51112 8.77535 2.18485
12028 2 5.53424 11.4082 2.6941
12100 2 11.0274 22.9373 8.2918
12030 2 10.9117 11.5844 2.82138
12099 2 11.0117 20.0684 5.49356
12098 2 5.55625 23.0242 8.20016
12033 2 2.54442 14.0266 2.63076
15121 2 13.7626 22.8341 11.2211
12097 2 8.13193 20.1038 8.22403
12096 2 8.38834 22.6965 5.32996
12037 2 8.30483 14.4827 2.48
12038 2 5.402 17.1353 2.68682
12095 2 5.13677 20.1159 5.60397
12040 2 11.1356 16.9563 2.67942
12128 2 8.45358 -2.68461 13.7105
12093 2 2.49686 20.1435 8.32312
12043 2 2.72164 19.9175 2.80358
12036 2 8.29484 17.352 -0.0152068
12092 2 2.68973 22.8865 5.4356
149 1 12.6583 12.8898 6.93669
12047 2 8.13083 19.8484 3.03383
12048 2 5.40192 22.7901 2.585
12090 2 10.9824 17.2655 8.28503
12050 2 10.965 22.8465 2.78068
12119 2 8.35946 17.3781 11.2447
12052 2 2.68763 0.188244 5.40139
5723 1 6.78823 -1.23819 6.75515
12118 2 5.45335 14.34 11.1242
372 1 6.7835 -1.2647 1.32484
12056 2 8.07845 0.3267 5.45352
12015 2 5.53574 2.99118 -0.104103
12058 2 5.31786 -0.0381407 8.34977
227 1 1.238 -1.29549 12.4207
12060 2 11.0757 0.0325567 8.41211
12117 2 2.23323 17.0459 11.0484
12062 2 2.74364 5.6394 5.34036
12063 2 2.65364 2.89958 8.41767
12089 2 11.3823 14.3371 5.48959
12065 2 5.42326 3.00755 5.54789
12066 2 8.39114 5.27045 5.32834
12067 2 8.44823 2.87706 8.36773
12068 2 5.76514 5.71294 8.31276
12069 2 11.1414 2.65197 5.41845
12070 2 10.992 5.44803 8.14472
12115 2 11.3552 8.62988 11.2155
12072 2 2.62668 11.5663 5.43102
12073 2 2.48147 8.67538 8.31234
12114 2 8.48326 11.5654 11.2467
12075 2 4.99428 8.66038 5.53694
12076 2 8.40092 12.2039 5.52131
12077 2 7.9893 8.56403 5.61569
12078 2 5.6 11.4062 8.2308
12079 2 11.4293 8.72547 5.18351
12080 2 10.7861 11.521 8.36455
12071 2 -0.156171 8.62334 5.58998
12082 2 2.59055 17.0649 5.53542
12083 2 2.63845 14.3253 8.26831
376 1 8.64483 10.8518 7.32901
12085 2 5.48882 14.2789 5.23442
12086 2 8.25451 17.1835 5.3576
12087 2 8.17832 14.4441 8.48543
12088 2 5.5588 17.2882 8.27885
5726 1 6.69438 -1.26844 9.66719
131 1 1.41847 10.5071 3.73967
135 1 1.09809 15.9628 6.68703
12122 2 2.6815 22.5751 11.3196
15116 2 13.6974 17.409 11.2366
12144 2 5.47811 17.1984 13.8149
395 1 9.9213 7.12696 1.43328
12081 2 0.0492398 14.4857 5.55063
15091 2 13.741 22.9003 5.5983
12014 2 -0.181087 5.58527 2.57036
12059 2 11.2664 -2.70578 5.48255
15032 2 13.9154 14.1833 2.49959
12001 2 -0.16667 -2.57672 -0.110845
12004 2 0.0779174 0.0195836 2.86172
15106 2 13.8056 5.97151 10.9276
12032 2 2.54143 17.2364 -0.210301
12094 2 -0.0919409 22.8442 8.17869
12105 2 11.2108 -2.48541 11.1053
12041 2 -0.142451 20.0435 0.0599832
12035 2 5.45771 14.3394 -0.0976102
12051 2 -0.0376258 -2.48255 5.50366
12034 2 -0.13471 16.9892 3.02439
12106 2 -0.118273 2.96031 11.1377
12044 2 -0.220823 22.8337 2.61095
12057 2 8.14492 -2.59066 8.08626
12049 2 10.9885 19.8413 0.0754717
12022 2 2.52772 11.4706 -0.0739065
15042 2 13.8689 19.7329 2.70591
15072 2 13.9106 8.55625 8.28864
12138 2 8.39683 8.70061 13.8314
12143 2 8.35961 14.1911 13.8673
226 1 3.91711 -1.30832 15.5187
5906 1 6.98596 -1.40884 21.0209
228 1 3.84782 1.57001 15.5131
229 1 1.14977 1.56775 15.3338
230 1 9.65177 -1.32831 15.2717
231 1 6.54572 -1.02207 15.6463
232 1 9.32618 1.7356 15.6612
233 1 6.37368 1.84848 15.2232
5814 1 0.984631 -1.18861 15.5303
235 1 12.4468 1.60613 15.3157
236 1 3.95521 4.58107 15.2386
237 1 1.20128 4.52767 15.253
238 1 4.07631 7.22412 15.4192
239 1 1.19785 7.50409 15.3006
240 1 9.57955 4.37227 15.3186
241 1 6.85176 4.48011 15.2561
242 1 9.28373 7.40181 15.5246
243 1 6.8844 7.27164 15.2466
244 1 12.4961 4.31224 15.7498
245 1 12.1996 7.19643 15.5281
246 1 4.30727 9.80187 15.0478
247 1 1.04555 10.0477 15.5667
248 1 4.19087 12.5412 15.1487
249 1 1.20328 13.096 15.2673
250 1 9.68416 10.1678 15.3935
251 1 7.07518 9.9536 15.5974
252 1 9.67353 13.0657 15.5178
253 1 6.7978 12.746 15.531
254 1 12.611 10.1299 15.3794
255 1 12.5625 12.8372 15.43
256 1 3.93473 15.1565 15.2345
257 1 1.15287 15.742 15.2376
258 1 3.97442 18.3778 15.4113
259 1 1.22583 18.5089 15.1992
260 1 9.71889 15.8413 15.2636
261 1 6.80698 15.5533 15.3506
262 1 9.60953 18.4006 15.3978
263 1 7.02931 18.4573 15.1757
264 1 12.4504 15.5773 15.6196
265 1 12.2346 18.5639 15.3635
266 1 4.36887 21.3241 15.5745
267 1 1.29953 21.246 15.4074
268 1 9.65411 21.3758 15.5343
269 1 6.9545 21.2285 15.3557
270 1 12.557 21.5485 15.5141
271 1 1.21904 -1.25832 18.255
272 1 3.64778 -1.14229 18.3224
273 1 4.03739 -1.36305 20.9693
274 1 1.04641 -1.12614 20.8621
275 1 1.00606 1.41791 18.0308
276 1 3.86944 1.75307 18.1794
277 1 3.7841 1.52464 21.0076
278 1 1.20505 2.02643 21.2989
279 1 7.02683 -1.53208 18.2909
280 1 9.88288 -1.17842 18.0648
281 1 9.89945 -1.51975 20.7513
282 1 6.81559 1.804 21.0797
283 1 6.64977 1.41353 18.2331
284 1 9.61392 1.65223 18.184
285 1 9.49671 1.30466 20.8682
286 1 6.92244 4.46019 26.5118
287 1 12.8382 -1.36542 18.0177
288 1 12.5417 -1.20199 20.9843
289 1 12.5606 1.50849 18.0262
290 1 12.6996 1.50238 20.8211
291 1 1.53022 4.39402 18.1932
292 1 4.29513 4.53836 18.2392
293 1 3.94246 4.24791 21.1269
294 1 1.18713 4.5269 21.1146
295 1 1.31941 7.12594 18.0245
296 1 3.8259 7.33935 18.2901
297 1 3.69299 7.22384 21.2906
298 1 1.21495 7.37013 20.9577
299 1 6.84865 4.15072 17.8101
300 1 9.68394 4.40531 18.2466
301 1 9.50938 4.25213 21.1178
302 1 6.83142 4.72506 21.0122
303 1 6.75945 7.22487 18.0747
304 1 9.6458 7.53232 18.3308
305 1 9.60447 7.12898 21.2049
306 1 6.64736 7.49379 20.7868
307 1 12.4088 4.30198 18.3956
308 1 12.4669 4.43485 21.2339
309 1 12.4664 7.02682 18.3224
310 1 12.3474 7.21028 21.1741
311 1 1.35255 9.98916 18.2833
312 1 4.37459 10.0499 18.1532
313 1 4.15148 10.0495 21.0665
314 1 1.25158 10.0784 21.0675
315 1 1.03641 12.8556 17.851
316 1 3.93081 12.6973 18.3296
317 1 4.28461 12.9839 21.1725
318 1 1.53118 12.7798 20.9896
319 1 7.01163 9.99136 18.3621
320 1 9.60607 10.1913 18.0685
321 1 9.72744 10.0287 21.1713
322 1 7.06625 10.3166 21.1653
323 1 6.98195 12.8957 18.3641
324 1 9.71708 12.9932 18.2945
325 1 9.7811 12.7089 21.2862
326 1 6.7983 13.0828 21.2308
327 1 12.5841 10.1472 18.0167
328 1 12.2976 10.1282 21.0269
329 1 12.3228 13.1791 18.2608
330 1 12.5282 13.0041 21.0277
331 1 1.30112 15.5612 18.4481
332 1 4.05726 15.3319 18.3727
333 1 4.28708 15.6544 21.3274
334 1 1.45858 15.5965 21.1086
335 1 1.31299 18.5547 18.0606
336 1 4.30039 18.2316 18.1829
337 1 3.86275 18.3909 21.0693
338 1 1.16304 18.5605 20.9692
339 1 6.69436 15.6247 18.1769
340 1 9.52398 15.6628 18.0931
341 1 9.91266 15.5309 20.9715
342 1 6.98951 15.8384 21.0644
343 1 6.91705 18.3332 18.5591
344 1 9.90669 18.2943 18.3593
345 1 9.68672 18.3979 21.0668
346 1 6.5182 18.6888 21.1771
347 1 12.2616 15.8103 18.1963
348 1 12.6712 15.8186 20.9819
349 1 12.6521 18.8784 18.086
350 1 12.8028 18.6267 21.1022
351 1 1.22912 21.3425 18.0116
352 1 4.06772 21.2099 18.0724
353 1 4.1343 21.1393 20.733
354 1 1.26877 21.1918 21.242
355 1 6.92481 21.0572 18.2401
356 1 9.79955 21.3249 18.3738
357 1 9.67304 21.0201 21.2631
358 1 6.98794 21.4854 21.1764
359 1 12.6972 21.5778 18.3598
360 1 12.5196 21.5596 21.0332
361 1 1.1644 -1.18092 23.6102
362 1 4.1689 -1.2407 23.8733
363 1 4.06633 -1.19133 26.5225
364 1 1.33793 -1.2559 26.6239
365 1 1.22939 1.75656 23.8157
366 1 3.80872 1.54017 23.7817
367 1 4.02165 1.74002 26.641
368 1 1.04616 1.48228 26.6293
369 1 6.59446 1.46855 23.9334
370 1 9.768 -1.19369 23.4904
371 1 9.90953 -1.19909 26.8485
12159 2 11.3917 -2.58497 16.6755
373 1 6.77934 1.31577 26.9743
374 1 9.62014 1.54708 23.5424
375 1 9.60149 1.38358 26.3156
12224 2 -0.18953 11.3592 25.3574
377 1 12.5129 -1.16951 23.875
378 1 12.8469 -1.36031 26.8238
379 1 12.4295 1.67469 23.7755
380 1 12.566 1.42205 26.5506
381 1 1.03866 4.38999 23.9099
382 1 3.82376 4.32188 24.0068
383 1 3.9525 4.51209 26.5658
384 1 1.33741 4.72345 26.6391
385 1 1.38888 7.24715 23.7991
386 1 4.05508 7.06814 24.1518
387 1 4.10071 7.48244 26.8363
388 1 1.19803 7.24353 26.7617
389 1 6.86522 4.15963 23.7615
390 1 9.64142 4.3335 24.0476
391 1 9.82932 4.31264 27.0445
12221 2 -0.176343 8.55344 22.4646
393 1 6.84652 7.09492 23.6979
394 1 9.61447 7.12527 24.1357
12026 2 8.45903 11.3795 27.9422
396 1 6.97182 7.43969 26.6251
397 1 12.3794 4.44426 23.8961
398 1 12.7903 4.49803 26.6558
399 1 9.93252 7.03142 26.7806
400 1 12.463 7.17011 26.7459
401 1 1.20443 10.0241 23.8838
402 1 4.22355 9.98701 23.8487
403 1 4.24839 10.3524 26.6118
404 1 1.26298 10.3636 26.859
405 1 1.4426 12.838 23.9963
406 1 4.21412 13.0042 24.0798
407 1 3.94689 13.0728 26.9796
408 1 1.08496 12.9628 26.9465
409 1 6.77845 10.0609 23.8515
410 1 9.62667 9.91911 23.9238
411 1 9.85912 10.0779 26.8172
412 1 7.15392 10.034 26.6939
413 1 6.96494 12.8944 24.1325
414 1 9.90929 12.8742 24.0755
415 1 9.7403 12.9526 26.8106
416 1 6.94215 12.693 26.8976
417 1 12.6176 9.92041 23.7383
418 1 12.7575 9.92676 26.8559
419 1 12.6538 12.6776 23.9422
420 1 12.6562 13.0258 26.5122
421 1 1.29465 15.5051 24.1382
422 1 4.19594 15.7945 23.8856
423 1 4.18079 15.668 26.7555
424 1 1.32866 15.899 26.9622
425 1 1.37648 18.3946 23.9531
426 1 4.15292 18.339 23.9049
427 1 4.13583 18.6322 26.723
428 1 1.20489 18.3898 26.4541
429 1 6.87016 15.4247 24.0351
430 1 9.65382 15.6658 23.9519
431 1 9.88082 15.7218 26.5615
432 1 6.84827 15.7407 26.7959
433 1 7.01093 18.4835 23.654
434 1 9.84938 18.6954 23.8305
435 1 9.65684 18.4818 26.7676
436 1 6.84078 18.6763 26.7548
437 1 12.6122 15.5854 23.6969
438 1 12.6906 15.6286 26.6262
439 1 12.557 18.3513 23.8822
440 1 12.3265 18.5428 26.8239
441 1 1.21702 21.1615 24.073
442 1 3.91716 21.2167 23.6473
443 1 4.023 21.4489 26.7304
444 1 1.13087 21.2267 26.9178
445 1 6.7206 21.4021 23.7583
446 1 9.75308 21.6891 23.987
447 1 9.74458 21.2306 27.0514
448 1 6.97107 21.2478 26.7042
449 1 12.485 21.3832 23.9739
450 1 12.37 21.115 26.8243
5993 1 7.13808 -1.32062 26.7284
12250 2 11.0531 22.8842 25.314
12016 2 8.42078 5.59921 27.9941
15171 2 13.8553 11.4115 16.7315
12140 2 11.2016 11.6583 14.0422
15201 2 13.912 0.215497 22.4754
12249 2 11.201 19.9127 22.4219
12011 2 -0.141629 3.03698 28.0369
12039 2 10.9676 14.3678 28.0307
15136 2 13.8753 8.662 14.0091
12130 2 11.0636 0.255199 13.9271
12248 2 5.50408 22.6138 25.5449
12029 2 11.3536 8.77122 28.1214
12209 2 11.2232 -2.52628 22.3619
12246 2 8.21647 22.7995 22.5155
12229 2 11.0606 8.5093 22.5289
6381 1 12.4376 7.21446 24.0128
12228 2 5.52316 11.4637 25.3933
12146 2 2.5223 20.0079 14.0708
5820 1 12.5049 -1.05391 15.1983
12133 2 8.37416 3.11488 13.9893
12227 2 8.30191 8.54966 25.2594
12232 2 2.62803 17.1309 22.5777
12009 2 11.2151 -2.53059 28.0636
15181 2 13.796 17.1819 16.9047
12247 2 8.35039 20.0601 25.3253
12152 2 2.49244 0.0965509 16.7787
12150 2 11.3262 22.8829 14.0358
12181 2 -0.186211 14.3651 16.7644
12225 2 5.44401 8.56736 22.6425
12156 2 8.13182 0.073749 17.0436
12226 2 8.28676 11.5594 22.622
12158 2 5.2936 0.29691 19.6621
12235 2 5.48955 14.3782 22.5923
12160 2 11.089 0.283601 19.6293
12245 2 5.1595 19.8795 22.3215
12162 2 2.76482 5.85684 16.9066
12163 2 2.49243 3.00446 19.68
12233 2 2.56804 14.1905 25.4881
12165 2 5.30704 2.95011 16.6728
12166 2 8.16948 5.81733 17.0024
12167 2 8.17498 2.86613 19.4858
12168 2 5.18069 5.95142 19.8481
12169 2 10.9978 3.03944 16.7688
12170 2 11.0231 5.77539 19.5455
12243 2 2.55408 19.8505 25.3542
12172 2 2.71332 11.4439 16.7749
12173 2 2.76664 8.77153 19.5506
12242 2 2.7563 22.7769 22.4442
12175 2 5.40864 8.6575 16.7118
12176 2 8.29196 11.4746 16.8988
12177 2 8.2244 8.65462 19.6499
12178 2 5.52099 11.6628 19.9038
12179 2 10.9073 8.68064 16.8206
12180 2 10.9356 11.6392 19.5711
12153 2 2.55677 -2.62279 19.7121
12182 2 2.50017 16.9852 16.6126
12183 2 2.77649 14.3103 19.8797
12148 2 8.23741 19.9916 14.0266
12185 2 5.48425 14.0291 16.8118
12186 2 8.12272 17.0692 16.7981
12187 2 8.24445 14.3124 19.7606
12188 2 5.51653 16.7811 19.6478
12189 2 10.9351 14.5063 16.8072
12190 2 11.2868 17.1274 19.7908
12207 2 8.27671 -2.62715 25.2117
12192 2 2.86032 22.7112 16.8744
12193 2 2.79654 19.8906 19.6669
12230 2 11.223 11.5023 25.1976
12195 2 5.50372 19.7277 16.7949
12196 2 8.40158 22.7136 16.9373
12197 2 8.33665 19.8406 19.7171
12198 2 5.73849 22.7176 19.5717
12199 2 11.1043 19.9792 16.8155
12200 2 11.2521 22.7927 19.7253
12240 2 11.055 17.2291 25.3031
12202 2 2.55424 0.126479 22.5611
5989 1 6.95105 -1.45747 23.7836
12239 2 11.1931 14.2187 22.5394
12135 2 10.9824 5.88165 13.9455
12206 2 8.25993 -0.0267357 22.2613
12164 2 0.0587521 6.10325 19.5327
12208 2 5.28002 0.127499 25.1822
12129 2 5.24774 0.201934 14.0554
12210 2 11.2472 0.124531 25.2101
12238 2 5.37249 17.0451 25.3163
12212 2 2.48916 5.69469 22.6608
12213 2 2.45054 3.11741 25.4219
12237 2 8.19643 14.3598 25.6076
12215 2 5.19053 2.92889 22.5788
12216 2 8.21736 5.8059 22.3826
12217 2 8.12258 2.77985 25.1706
12218 2 5.4263 5.75864 25.2903
12219 2 11.0048 3.04523 22.4182
12220 2 11.3251 5.80746 25.2628
12236 2 8.18553 17.3019 22.4234
12222 2 2.7782 11.3221 22.7451
12223 2 2.7935 8.62853 25.4732
12231 2 -0.0821795 14.3817 22.5019
15211 2 13.8737 5.96173 22.5919
15161 2 13.7928 5.85647 16.7763
12126 2 2.50636 -2.79411 14.1591
15146 2 13.9772 19.8225 14.2315
12131 2 2.50821 3.02486 14.1469
12136 2 2.56318 8.64954 14.006
15141 2 13.9368 14.2971 14.049
12194 2 -0.0829289 22.5834 19.7316
15126 2 13.945 -2.72415 14.0378
12161 2 -0.248467 3.03372 16.6872
12006 2 8.37376 0.127654 28.0083
12019 2 11.1954 2.77989 28.1141
15241 2 13.9015 22.9208 22.5786
12244 2 -0.240245 22.6616 25.3773
15172 2 13.734 8.58904 19.6092
12241 2 -0.140721 19.908 22.5322
12204 2 -0.0964229 0.00217484 25.242
12214 2 -0.0873004 5.79907 25.1694
12203 2 2.6655 -2.67941 25.3521
12174 2 -0.0890295 11.4343 19.6429
15242 2 13.6756 19.9234 25.2258
12184 2 -0.0741049 17.2348 19.4536
15182 2 13.8525 14.2571 19.478
12191 2 -0.105584 20.0215 16.6235
12127 2 -0.139908 0.140439 13.9862
12149 2 5.59134 22.594 14.1425
12234 2 -0.180552 17.056 25.4905
12002 2 2.59264 0.0640719 28.0507
12045 2 5.4049 20.1234 28.1095
12025 2 5.62775 8.78787 28.0452
12134 2 5.61569 5.6747 13.9818
12147 2 -0.00313062 22.8147 13.9906
12139 2 5.59557 11.3577 14.0032
15131 2 13.8837 3.1323 14.0915
451 1 1.17189 24.4342 1.27344
452 1 4.25666 24.2408 1.37461
453 1 4.01844 24.297 3.92226
454 1 1.13497 24.1745 3.87892
455 1 6.59144 26.7269 1.55803
12346 2 -0.012929 31.2228 10.932
501 1 1.47793 35.5481 3.97554
458 1 6.68791 24.3052 3.75586
12341 2 -0.0758314 25.5846 11.1498
457 1 9.48857 24.2893 4.09837
461 1 0.832774 27.2284 0.959466
462 1 3.76701 27.002 1.09655
463 1 4.05776 27.2063 4.1296
464 1 1.32818 26.8184 3.93251
465 1 1.32616 29.7508 1.03302
466 1 4.26519 29.9001 1.32909
467 1 3.89356 30.0053 4.09138
468 1 0.989548 29.9699 3.71207
469 1 7.05744 29.5892 1.34909
470 1 6.55271 29.9657 4.0202
471 1 9.6316 27.0114 4.26853
472 1 6.86752 27.3331 4.07125
473 1 9.63907 30.1262 1.29295
549 1 11.7303 28.9577 4.77593
475 1 9.3297 30.1202 4.14049
12309 2 -0.1678 33.9466 8.42102
456 1 9.83192 24.1412 1.29405
15272 2 13.9438 37.0066 2.78425
6463 1 11.8498 28.2871 0.762346
15271 2 13.6772 39.7788 0.0389919
481 1 1.28807 35.59 1.40532
482 1 4.09149 35.6447 3.93297
483 1 6.90645 32.5095 1.12985
484 1 3.49941 32.6631 4.2571
485 2 2.69817 34.2035 2.61744
459 1 12.3617 24.3954 1.17774
487 1 1.03944 32.8646 4.08432
488 1 1.52397 32.615 1.40288
489 1 8.36667 34.1522 2.42383
490 1 10.0413 32.5786 1.16294
491 1 9.69997 32.6904 4.30734
492 1 6.30537 32.8708 4.36437
493 1 6.71596 35.7384 1.07207
494 1 9.80597 35.6394 1.18381
495 1 9.6856 35.8166 4.2583
496 1 6.65034 36.0668 4.01325
497 1 12.5897 33.1529 1.17585
498 1 12.2682 33.0183 4.10794
499 1 12.5837 35.9163 1.24274
500 1 12.4804 35.6958 4.09093
12326 2 -0.166107 42.7902 5.34204
502 1 4.16255 38.2043 1.1572
503 1 3.88016 38.7053 4.0664
504 1 1.15132 38.343 4.20825
505 1 1.24367 38.5706 1.17039
506 1 4.04975 41.3237 1.18106
507 1 3.98592 41.3801 4.10958
508 1 1.29629 41.2877 3.85815
509 1 6.83665 38.4049 1.34767
510 1 9.54753 38.5109 1.14896
511 1 9.43929 38.4526 4.0155
512 1 6.7125 38.76 4.27783
513 1 6.71594 41.2828 1.08079
514 1 9.6606 41.3207 1.33289
515 1 9.80261 41.3346 4.22405
516 1 6.76243 41.5594 4.3884
517 1 12.3901 38.5006 1.44073
518 1 12.4044 38.4221 4.12063
519 1 12.4148 41.3976 1.24406
520 1 12.5643 41.4892 4.06053
521 1 1.25416 41.3646 1.32809
522 1 3.96744 44.1235 0.771362
523 1 4.14243 44.097 3.96241
524 1 1.10596 44.2044 4.23341
525 1 1.30298 46.7271 1.3249
526 1 3.82403 46.9832 1.15899
527 1 3.76705 47.0905 3.91498
528 1 1.00962 47.0192 3.93809
529 1 6.7742 44.2902 1.29436
530 1 9.69497 44.1344 1.41257
531 1 9.88106 44.5087 4.24827
532 1 6.96664 44.4248 4.20398
533 1 6.97061 46.8388 1.07354
534 1 9.67779 47.0485 0.975384
535 1 9.74201 47.2091 3.558
536 1 6.73838 47.1902 3.9317
537 1 12.4027 44.3622 1.16541
538 1 12.7149 44.2324 4.0745
539 1 12.5743 47.1106 1.10659
540 1 12.5169 46.8755 3.83291
541 1 1.32969 24.3497 6.73553
542 1 3.94423 24.5209 6.8674
543 1 4.14527 24.1049 9.55659
544 1 1.25986 24.2769 9.74179
12279 2 11.1051 37.2127 -0.223776
546 1 9.5571 24.2188 7.06438
547 1 9.79621 24.3254 9.83185
548 1 6.97559 24.2841 9.81496
634 1 9.86277 24.4234 12.7379
550 1 12.5019 24.4836 9.53526
551 1 1.28046 27.0817 6.96549
552 1 4.09813 27.128 6.89276
553 1 4.05451 27.1361 9.90147
554 1 1.04428 27.1032 9.97234
555 1 1.48088 29.962 6.84417
556 1 4.32789 29.8305 7.07968
557 1 4.02782 29.8306 9.55869
558 1 1.27509 29.908 9.64638
559 1 6.92834 27.2275 7.06666
560 1 9.97449 27.1098 7.11361
561 1 9.7711 27.1517 9.92449
562 1 7.03861 27.0342 9.91477
563 1 6.96312 29.9415 6.97239
564 1 9.72466 30.0973 6.98171
565 1 9.71199 30.1274 9.92605
566 1 6.70357 30.0043 9.7643
567 1 12.7309 27.0826 6.76292
568 1 12.795 27.1396 9.86581
569 1 12.619 29.8718 7.02624
570 1 12.6992 30.0481 9.84784
571 1 1.35669 32.8489 7.0464
572 1 4.0965 32.8603 7.04882
573 1 4.20543 32.812 9.81983
574 1 1.19933 32.7337 9.8944
575 1 1.25256 35.6737 6.96575
576 1 4.23052 35.8343 6.96919
577 1 4.15617 35.8689 9.828
578 1 1.26205 35.8836 9.75058
579 1 6.72124 32.9055 6.87321
580 1 9.33851 32.9494 7.2256
581 1 9.76679 32.9604 9.94023
582 1 6.91548 32.7147 9.90732
583 1 7.06985 35.7591 6.83168
584 1 9.81365 35.6908 7.20027
585 1 9.52617 35.6214 9.90107
586 1 6.84353 35.4315 9.88656
587 1 12.5529 32.9089 6.94575
588 1 12.456 32.7064 9.9089
589 1 12.8849 35.6464 6.75572
590 1 12.5509 35.1665 9.6694
591 1 1.07828 38.3258 6.77938
592 1 3.98771 38.6078 6.7759
593 1 3.97804 38.6372 9.78237
594 1 1.05506 38.5182 9.80668
595 1 1.08445 41.183 6.69386
596 1 4.03485 41.3685 6.82104
597 1 3.92657 41.2866 9.71082
598 1 1.28362 41.3385 9.66681
599 1 6.8882 38.484 7.02565
600 1 9.63656 38.6515 6.96027
601 1 9.663 38.4659 9.70911
602 1 6.96744 38.161 10.0613
603 1 6.92271 41.4396 6.90549
604 1 9.58463 41.3492 7.06616
605 1 9.65129 41.3734 9.59489
606 1 6.74817 41.0978 9.58795
607 1 12.4504 38.832 6.78604
608 1 12.3592 38.2691 9.87607
609 1 12.5536 41.1902 6.83017
610 1 12.4699 41.0422 9.91014
611 1 1.07469 44.0571 7.12946
612 1 3.98844 43.9081 6.8254
613 1 4.23081 44.0973 9.77789
614 1 1.17728 44.1589 9.77796
615 1 1.25294 46.9301 6.71011
616 1 3.95222 46.6465 6.75683
617 1 3.821 47.1214 9.73713
618 1 1.16092 47.0645 9.522
619 1 6.80531 44.1334 7.04121
620 1 9.68173 44.1561 7.08647
621 1 9.78756 44.3211 9.69525
622 1 6.84374 43.995 9.65468
623 1 6.99494 46.73 6.89948
624 1 9.76292 46.9899 6.63443
625 1 9.55656 47.1914 9.78726
626 1 6.73997 47.0284 9.51613
627 1 12.331 44.305 6.77392
628 1 12.6068 43.8565 9.74501
629 1 12.3298 47.2696 6.90442
630 1 12.5641 46.7229 9.52071
631 1 1.42209 24.3028 12.663
12272 2 2.82715 39.9514 -0.0867134
633 1 7.29426 24.1893 12.6689
15306 2 13.9344 34.0916 5.57249
635 1 12.5184 24.3737 12.4965
636 1 1.39152 27.3072 12.7293
637 1 4.32903 26.7016 12.802
638 1 1.12889 30.0429 12.5336
639 1 4.01064 29.8251 12.7054
640 1 7.24881 26.8848 12.6653
641 1 10.0613 27.3602 12.861
642 1 6.69202 29.9044 12.7435
643 1 9.57982 29.9526 12.7093
644 1 12.5535 27.3336 12.7764
645 1 12.3356 30.1008 12.9428
646 1 1.41186 32.737 12.6619
647 1 3.94364 32.9029 12.5889
648 1 1.07988 35.5987 12.4741
649 1 4.05037 35.677 12.6458
650 1 6.79055 32.6716 12.6554
651 1 9.79552 32.9624 12.716
652 1 6.82904 35.7088 12.5146
653 1 9.61389 35.6288 12.501
654 1 12.9591 32.8938 12.8352
655 1 12.5517 35.5025 12.511
656 1 1.17182 38.4776 12.5433
657 1 4.01944 38.3179 12.7012
658 1 0.928626 41.1939 12.4246
659 1 3.60729 41.0736 12.6872
660 1 7.02635 38.3344 12.9201
661 1 9.44417 38.1299 12.3359
662 1 6.53439 41.1257 12.3984
663 1 9.62596 41.0886 12.5953
664 1 12.0982 38.1874 12.6899
665 1 12.4755 41.0442 12.8582
666 1 0.927434 44.2166 12.5135
667 1 3.97863 44.0393 12.6582
668 1 1.18512 46.8818 12.4298
669 1 3.91921 46.8856 12.4941
670 1 6.87878 43.8115 12.6888
671 1 9.68372 43.8837 12.7594
672 1 6.65483 46.8934 12.3358
673 1 9.46407 46.5187 12.6114
674 1 12.3951 43.9292 12.5688
675 1 12.2323 46.7673 12.4089
12363 2 11.1437 48.3697 11.0182
12296 2 -0.167922 25.5649 5.31887
12253 2 2.64629 25.4755 2.73066
12362 2 5.28769 48.3076 11.1164
12256 2 8.3672 28.4069 -0.123054
12361 2 -0.227884 48.4107 11.2292
12257 2 8.14519 25.6764 2.69598
12258 2 5.40073 28.4663 2.68684
12336 2 -0.139703 48.4664 5.40446
12260 2 10.6836 28.6391 2.86118
12360 2 10.9884 42.7783 11.1939
12274 2 -0.216449 39.7982 2.67192
12263 2 2.70904 30.8539 2.54148
12359 2 8.23175 45.4552 10.9926
545 1 6.94804 24.3542 6.79153
12374 2 2.4529 36.9781 13.7766
12267 2 8.41456 31.5334 2.63672
12268 2 5.83918 34.2142 2.72362
12345 2 11.2958 25.8358 11.1296
12270 2 10.9918 34.3888 2.6572
12358 2 5.25828 42.3912 10.935
12344 2 8.62929 28.4611 11.4442
12273 2 2.61365 37.3816 2.65068
12357 2 2.51082 45.7095 11.0687
12343 2 5.55772 25.6384 11.341
85 1 7.05345 24.0561 1.02714
12277 2 8.29791 36.8716 2.66438
12278 2 5.57704 40.074 2.76201
476 1 4.185 32.6565 1.56938
12280 2 11.1522 39.8476 2.7142
12355 2 11.0538 36.8092 11.2651
460 1 9.65068 26.9557 1.22409
12283 2 2.74174 42.8488 2.59958
12354 2 8.23246 39.5669 11.14
12316 2 -0.21125 36.8162 5.72471
6171 1 12.4253 24.4137 6.83048
12287 2 8.1459 42.691 2.79124
12288 2 5.42946 45.7712 2.8115
12276 2 8.1846 39.7725 -0.170508
12290 2 11.088 45.6517 2.46578
12353 2 5.55551 37.0211 11.3202
12292 2 2.59558 48.3961 2.56964
15291 2 13.8609 48.4735 2.50312
12294 2 8.34182 48.45 2.42723
474 1 12.4803 27.1413 3.06745
12259 2 11.1198 25.7087 0.0176094
12297 2 2.62078 28.2624 5.43864