ITEM: TIMESTEP
150000
ITEM: NUMBER OF ATOMS
18000
ITEM: BOX BOUNDS xy xz yz pp pp pp
-2.2078532584398158e-01 2.8114785325845119e+01 0.0000000000000000e+00
-2.7278595689650502e+00 3.3745585956897366e+02 0.0000000000000000e+00
-2.2469502169072600e-01 2.8118695021690815e+01 0.0000000000000000e+00
ITEM: ATOMS id type x y z
1 1 1.29705 -1.27702 1.35865
2 1 4.02273 -1.40075 1.11905
3 1 3.77794 -1.52295 4.25406
4 1 1.00958 -1.51217 4.24365
5 1 1.15095 1.55792 0.977567
6 1 3.84621 1.44569 1.38566
7 1 3.62902 1.55202 4.03327
8 1 1.08698 1.51335 3.91979
9 1 6.53959 1.48153 1.43433
10 1 9.62323 -1.60674 1.30264
11 1 9.7792 -1.36095 4.11341
12 1 6.69388 1.28535 7.13111
13 1 6.5783 1.08068 4.31436
14 1 9.45161 1.13893 1.57966
15 1 9.40465 1.3552 4.20818
16 1 6.69332 4.10548 3.93763
17 1 12.4606 -1.60987 0.960084
18 1 12.4209 -1.70973 3.8007
19 1 12.2159 1.15583 1.22516
20 1 12.3624 1.56298 4.18071
21 1 1.26371 4.37354 1.23287
22 1 3.85397 3.95629 1.07061
23 1 4.00469 4.27777 3.98666
24 1 1.16146 4.42767 3.99203
25 1 1.20406 7.26192 1.33106
26 1 3.81253 6.8228 1.1677
27 1 3.73639 7.09887 4.00328
28 1 1.15182 7.49961 3.87085
29 1 6.6071 7.02294 1.3263
30 1 9.68293 4.13676 1.03322
31 1 9.53029 3.9755 4.33275
32 1 6.53501 7.23371 7.13745
33 1 6.30041 9.71093 1.46083
34 1 9.40685 7.04497 1.31289
35 1 9.50395 7.18124 3.99378
36 1 8.00174 10.9987 2.76948
37 1 12.5107 4.28091 1.27655
38 1 12.4177 4.37427 4.02263
39 1 12.2325 6.79823 1.03778
40 1 12.2675 7.16824 3.97607
41 1 0.728811 10.0926 1.09105
42 1 3.8456 9.98738 1.31331
43 1 3.76809 12.8627 4.41776
44 1 3.81643 9.77283 4.19621
45 1 1.10298 12.6542 1.23381
46 1 3.61174 12.6841 1.4713
47 1 4.05481 12.6335 7.1715
48 1 1.17602 12.8429 4.14867
49 1 6.39006 12.8763 1.28791
50 1 9.50755 9.84093 1.17374
51 1 9.6362 9.42327 7.19928
52 1 6.50362 12.8405 4.05428
53 1 6.88811 15.5887 1.1261
54 1 9.45715 12.7734 1.16297
55 1 9.71298 12.55 4.09854
56 1 9.68478 15.243 6.97
57 1 12.2902 10.0276 1.3392
58 1 12.3565 9.76048 4.07677
59 1 12.293 12.824 1.3601
60 1 12.4292 12.5473 4.2096
61 1 0.808214 15.1989 1.8715
62 1 3.75955 15.4058 1.13081
63 1 4.20994 15.7367 3.86351
64 1 0.877745 15.7153 4.30076
65 1 1.01506 18.1464 1.36164
66 1 4.18713 18.2991 1.40185
67 1 3.76542 18.5258 4.18655
68 1 1.01656 18.4627 4.0047
69 1 6.90787 18.3428 1.56019
70 1 9.7212 15.4851 1.14885
71 1 9.64642 15.1759 3.71152
72 1 6.88299 15.2927 4.09905
73 1 7.03584 21.0231 1.35363
74 1 9.79608 18.1562 1.20011
75 1 12.448 18.1112 4.2957
76 1 7.01492 18.2263 4.31174
77 1 12.6044 15.4425 1.19682
78 1 12.5012 15.4515 4.3
79 1 12.3664 18.1919 1.46534
80 1 12.4596 20.9117 4.27202
81 1 1.05132 21.0718 1.48905
82 1 3.86413 21.0059 1.58596
83 1 4.12146 21.3042 4.34309
84 1 1.23679 21.4346 4.16397
15051 2 13.7899 0.0303011 5.3413
86 1 9.66893 20.837 1.46081
87 1 9.81736 20.8676 4.25287
88 1 6.9123 21.08 4.25349
89 1 12.4992 21.2015 1.47967
12049 2 11.1058 19.6098 0.256415
91 1 0.977421 -1.37763 6.90952
92 1 4.05784 -1.52219 6.96184
93 1 3.84554 -1.43837 9.72685
94 1 1.06144 1.55269 6.61297
95 1 0.87283 4.10988 7.06133
96 1 3.92524 1.25268 6.83038
97 1 4.02858 1.44676 9.56843
98 1 1.2058 1.58154 9.7553
99 1 6.58577 4.12134 7.0308
100 1 9.64776 -1.30121 6.86423
101 1 9.62301 -1.34333 9.77797
102 1 6.47622 1.24842 10.0332
103 1 12.3432 9.55 6.95358
104 1 9.61371 1.43908 6.98933
105 1 9.48412 1.44604 9.80287
106 1 6.79585 4.1229 9.63962
107 1 12.3223 -1.39778 6.81186
108 1 12.3683 -1.18283 9.63469
109 1 12.4041 1.2987 6.99576
110 1 12.3366 1.54781 9.67986
111 1 0.705415 7.06593 6.93343
112 1 3.83462 4.22051 6.68216
113 1 3.71292 4.34495 9.49039
114 1 0.861964 4.4915 9.86197
115 1 0.843721 9.78614 6.87199
116 1 3.44419 7.26834 6.75814
117 1 3.80804 7.10684 9.54862
118 1 1.00279 7.34577 9.74323
119 1 9.45574 9.70883 4.56984
120 1 9.40781 3.98645 7.11425
121 1 9.69677 4.23832 10.0005
122 1 6.63624 6.9313 9.80904
123 1 4.0969 9.80181 6.99468
124 1 9.2467 6.73744 6.75309
125 1 9.52027 7.07375 9.98977
126 2 8.18996 8.49991 8.87679
127 1 12.2232 3.95225 7.13801
128 1 12.3584 4.36882 9.98783
129 1 12.2454 6.75947 6.92751
130 1 12.1121 7.03341 9.66003
12046 2 8.16898 22.4975 -0.0357612
132 1 1.17175 12.5996 6.78494
133 1 3.9114 9.75898 9.84444
134 1 0.968423 9.96515 9.71375
15091 2 13.864 22.5292 5.49303
136 1 3.94615 15.7984 7.08484
137 1 3.75762 12.7712 9.75177
138 1 0.763832 12.871 9.65779
139 1 7.14505 9.8059 7.35658
140 1 6.68218 9.74137 4.57411
141 1 9.56919 9.83445 10.3118
142 1 6.43622 9.83082 10.0754
143 1 6.60202 12.5302 6.93276
144 1 9.38669 12.5707 6.76943
145 1 9.43512 12.6506 9.62607
146 1 6.60901 12.5482 10.0788
15121 2 13.7685 22.4403 11.0309
148 1 12.1479 9.73376 9.79217
12103 2 5.41321 -2.64733 11.2247
150 1 12.1754 12.5166 9.72341
151 1 4.03098 18.1739 6.94008
152 1 6.76542 15.4099 6.95912
153 1 4.14728 15.5312 9.88857
154 1 1.1074 15.604 9.80186
155 1 1.30428 18.2075 6.83822
156 1 6.58323 18.0969 6.96841
157 1 3.93005 18.4157 10.0984
158 1 1.35385 18.1669 9.88075
159 1 12.436 15.3263 7.0883
160 1 12.3771 18.1068 6.98287
161 1 9.34065 15.3186 9.765
162 1 6.68748 15.4141 9.65959
163 1 9.77595 17.9704 4.08306
164 1 9.56644 18.193 6.86517
165 1 9.66855 18.3098 9.94691
166 1 6.67221 18.4032 9.93212
15082 2 13.8012 14.0314 8.31388
168 1 12.3777 15.3644 9.77778
169 1 12.211 20.9063 6.95273
170 1 12.4001 18.3283 9.751
171 1 1.30847 20.8208 7.10299
172 1 3.84807 21.2928 7.27339
173 1 4.14751 20.9959 10.0245
174 1 1.37387 20.9574 9.84607
175 1 6.65361 21.0162 7.02273
176 1 9.37694 21.2888 7.18755
177 1 9.53509 21.0804 9.90948
178 1 6.84713 21.1927 9.93057
12131 2 2.50472 2.83299 13.978
180 1 12.3315 21.199 9.80498
181 1 1.15527 -1.56299 9.80338
182 1 4.17408 -1.21378 12.5363
183 1 0.968178 1.60828 12.5701
184 1 3.79754 1.5589 12.5454
185 1 6.83922 -1.55062 12.9255
186 1 9.52483 -1.51931 12.5704
187 1 6.64209 1.3373 12.5901
188 1 9.51307 1.50371 12.7345
189 1 12.2923 -1.57639 12.4905
190 1 12.2192 1.25699 12.4606
191 1 0.940935 4.27377 12.6078
192 1 3.93244 4.31795 12.4682
193 1 0.717226 6.94306 12.4725
194 1 3.70693 7.24047 12.5625
195 1 6.7054 4.15476 12.6124
196 1 9.21439 4.17363 12.4971
197 1 6.64222 7.00194 12.6405
198 1 9.29467 7.1334 12.7735
199 1 12.4624 4.31214 12.7629
200 1 12.4782 7.04502 12.578
201 1 0.960568 10.0501 12.5277
202 1 3.93417 10.1352 12.4943
203 1 1.38962 12.947 12.5451
204 1 4.00375 12.8247 12.6449
205 1 6.69413 10.012 12.8774
206 1 9.44782 9.93437 12.8928
207 1 6.61764 12.7636 12.9505
208 1 9.2629 12.9065 12.5731
209 1 12.3751 9.79571 12.9287
210 1 12.1576 12.7745 12.5149
211 1 1.05288 15.6564 12.7905
212 1 3.66975 15.6273 12.8479
213 1 1.04642 18.4968 12.7242
214 1 3.80094 18.1823 12.8987
215 1 6.67311 15.5367 12.5355
216 1 9.51182 15.5026 12.8348
217 1 6.86067 18.5204 12.8414
218 1 9.65732 18.1395 12.546
219 1 12.4382 15.5718 12.3104
220 1 12.4815 18.514 12.4757
221 1 1.37669 21.2489 12.8547
222 1 4.15109 21.1385 12.913
223 1 6.84844 21.1842 12.7982
224 1 9.66154 21.1621 12.8719
225 1 12.2184 21.2496 12.7231
12125 2 11.116 19.5556 11.1972
12110 2 10.9617 2.66412 11.3584
12035 2 5.31286 14.1836 -0.125244
12124 2 8.28467 22.417 11.39
15012 2 13.7679 2.86519 2.68947
12109 2 8.07328 5.63069 11.2506
15072 2 13.6296 8.3096 8.44646
12008 2 5.39202 -0.252833 2.4621
392 1 6.97904 4.04651 1.15075
12010 2 11.1193 -0.161761 2.55645
12123 2 5.50822 19.8618 11.4101
12108 2 5.31916 2.73923 11.0918
12013 2 2.48086 2.83174 2.6463
12042 2 2.49268 22.5887 0.127048
12107 2 2.42425 5.60363 11.1647
12112 2 2.34735 11.3953 11.24
12017 2 8.0537 2.63973 2.85036
12018 2 5.24775 5.34612 2.50115
12104 2 8.07182 -0.0357599 11.2523
12020 2 11.0159 5.69375 2.59434
5633 1 6.82809 -1.58815 4.27045
15021 2 13.6178 11.5 -0.0548172
12023 2 2.50637 8.57623 2.54985
12120 2 10.8688 13.9838 11.1513
12102 2 2.67025 0.0769203 11.0533
12113 2 5.18039 8.499 11.2434
12027 2 8.10474 8.58707 2.45152
12028 2 5.12269 11.3686 2.82339
12100 2 10.9111 22.5437 8.49303
12030 2 10.9036 11.3026 2.68444
12099 2 11.1279 19.4391 5.48133
12098 2 5.37567 22.5317 8.56609
12033 2 2.54921 14.0644 2.89322
12025 2 5.21451 8.45361 -0.0714315
12097 2 8.17912 19.6221 8.5607
12096 2 8.11599 22.4534 5.65815
12037 2 8.11774 13.8533 2.52619
12038 2 5.56994 16.9341 2.76443
12095 2 5.36582 19.5151 5.53369
12040 2 11.1019 16.5075 2.69426
15011 2 13.8464 5.60904 -0.19033
12093 2 2.72584 19.7471 8.39133
12043 2 2.4655 19.5426 2.74168
12026 2 7.85246 11.1501 0.13735
12092 2 2.7424 22.629 5.6747
149 1 12.0967 12.3556 6.77433
12047 2 8.27302 19.5612 2.94498
12048 2 5.4876 22.3612 2.91649
12090 2 10.9939 16.6905 8.37885
12050 2 10.9727 22.4032 2.90853
12119 2 8.01563 16.785 11.2017
12052 2 2.57313 0.153676 5.3803
5723 1 7.04543 -1.55659 7.0989
12118 2 5.19388 14.0761 11.1072
372 1 6.90728 -1.22266 1.35122
12056 2 8.19058 -0.102475 5.50965
15022 2 13.7139 8.67763 2.59929
12058 2 5.22006 -0.239032 8.29585
227 1 1.31123 -1.27532 12.2966
12060 2 11.0776 0.0679447 8.43158
12117 2 2.57805 17.0814 11.412
12062 2 2.29017 5.63261 5.45941
12063 2 2.37218 2.89128 8.26734
12089 2 10.9731 13.8994 5.38114
12065 2 5.25921 2.63387 5.46129
12066 2 8.12194 4.98272 5.64207
12067 2 8.03378 2.56697 8.57117
12068 2 5.29107 5.64089 8.32236
12069 2 10.9662 2.7332 5.74728
12070 2 10.8498 5.41084 8.49246
12115 2 10.987 8.50875 11.37
12072 2 2.3024 11.2861 5.51862
12073 2 2.30041 8.47159 8.33192
12114 2 7.76671 11.2803 11.526
12075 2 4.94058 8.22096 5.45542
12076 2 8.01045 11.4817 5.15163
12077 2 8.04165 8.26012 5.74044
12078 2 5.29776 11.2454 8.44489
12079 2 11.074 8.26574 5.56612
12080 2 10.7034 11.1803 8.204
15062 2 13.7709 2.77893 8.35814
12082 2 2.49665 16.837 5.63774
12083 2 2.42316 14.0473 8.3117
376 1 6.71532 6.66619 4.39109
12085 2 5.20134 14.2307 5.65278
12086 2 8.40114 16.5679 5.56761
12087 2 8.06908 13.8891 8.48132
12088 2 5.43629 16.9414 8.5266
5726 1 6.76974 -1.42771 9.83996
131 1 0.98417 10.0768 3.96019
135 1 1.39285 15.3597 6.88518
12122 2 2.6957 22.5075 11.2854
15081 2 13.9175 16.641 5.5587
12036 2 8.17775 17.0639 -0.216925
15031 2 13.9208 16.8242 -0.00611553
15071 2 13.8651 11.173 5.30514
12029 2 10.8535 8.43672 -0.11583
15061 2 13.8774 5.63692 5.44721
15092 2 13.692 19.6921 8.27635
15111 2 13.5951 11.3078 11.1199
12045 2 5.45208 19.7886 0.0318157
15101 2 13.7748 -0.137811 11.1194
12044 2 -0.217972 22.5701 2.69715
12094 2 -0.000832648 22.4752 8.30723
15041 2 13.8286 22.5803 -0.0801456
12032 2 2.45588 16.9945 0.0885647
12019 2 10.9799 2.73859 -0.033938
12127 2 -0.215865 0.0317264 13.7518
12041 2 -0.211339 19.7969 -0.13073
15141 2 13.8823 14.3302 13.6906
12145 2 11.1495 16.9911 13.8654
12091 2 -0.122212 19.905 5.2858
15042 2 13.7569 19.7109 2.77615
12015 2 5.26776 2.97153 -0.122608
12006 2 8.2871 -0.168496 -0.0729142
226 1 3.96531 -1.1795 15.5083
5906 1 6.63085 -1.28864 20.8926
228 1 3.95588 1.3899 15.3548
229 1 1.21972 1.41744 15.2822
230 1 9.53555 -1.6841 15.3946
231 1 6.74176 -1.43692 15.4084
232 1 9.61413 1.41686 15.5153
233 1 6.78779 1.31576 15.4105
5814 1 1.42478 -1.39872 15.3046
235 1 12.5036 1.32718 15.3278
236 1 3.80395 4.24983 15.316
237 1 0.884441 4.15415 15.228
238 1 3.99444 6.9928 15.2107
239 1 1.15812 6.96652 15.4664
240 1 9.56686 4.47751 15.2975
241 1 6.86863 4.0699 15.5206
242 1 9.55692 7.17776 15.5518
243 1 6.72806 7.04771 15.6069
244 1 12.2529 4.00054 15.5359
245 1 12.2171 6.87765 15.7798
246 1 3.70276 9.70228 15.2097
247 1 0.995087 9.5663 15.3996
248 1 3.83936 12.7589 15.4495
249 1 0.989136 12.5278 15.4317
250 1 9.6636 9.95516 15.6909
251 1 6.5888 9.80453 15.533
252 1 9.79054 12.5901 15.373
253 1 6.68723 12.7075 15.6508
254 1 12.4059 10.083 15.377
255 1 12.5144 12.8362 15.4316
256 1 3.88248 15.6064 15.5577
257 1 1.15155 15.4965 15.4494
258 1 3.84907 18.309 15.5859
259 1 0.966987 18.3623 15.5267
260 1 9.47428 15.5339 15.9152
261 1 6.71991 15.7971 15.7526
262 1 9.78673 18.1485 15.4182
263 1 6.66603 18.3681 15.5799
264 1 12.7236 15.5592 15.0644
265 1 12.5586 18.1111 15.1434
266 1 3.91201 21.2746 15.7326
267 1 0.906337 21.3629 15.6945
268 1 9.47236 21.0716 15.9833
269 1 6.90147 21.3486 15.445
270 1 12.5856 21.0889 15.574
271 1 0.973692 -1.3095 18.238
272 1 3.91009 -1.58973 18.3601
273 1 3.81371 -1.6039 21.2322
274 1 0.910095 -1.66902 21.008
275 1 1.1365 1.4578 18.2908
276 1 4.08584 1.66755 18.103
277 1 3.77587 1.44865 20.8163
278 1 0.964621 1.31459 20.9052
279 1 6.67666 -1.22126 18.2315
280 1 9.61792 -1.3412 18.0548
281 1 9.41987 -1.53501 20.905
282 1 6.64172 1.27469 21.1228
283 1 6.85465 1.72216 18.3152
284 1 9.68109 1.47567 18.4327
285 1 9.39256 1.23419 21.3401
286 1 6.57416 4.10174 26.6304
287 1 12.1832 -1.579 18.285
288 1 12.2651 -1.55374 21.241
289 1 12.4434 1.17531 18.42
290 1 12.4065 1.38026 21.1563
291 1 1.00198 4.19406 18.2517
292 1 3.92856 4.03114 18.3115
293 1 3.73446 4.03257 20.9998
294 1 1.01679 4.17766 21.1247
295 1 0.721296 7.06092 18.2243
296 1 3.74212 6.93119 18.0254
297 1 4.20521 7.22867 21.0889
298 1 1.34137 7.17693 21.0405
299 1 6.77749 4.32515 18.2217
300 1 9.73848 4.23813 18.0633
301 1 9.97299 4.30763 20.9991
302 1 6.88149 4.33899 20.824
303 1 6.63713 7.09797 18.2475
304 1 9.85859 7.26573 18.2367
305 1 9.88692 7.24963 20.887
306 1 7.07312 7.16759 21.2054
307 1 12.3502 3.99411 18.3112
308 1 12.6001 4.03757 21.08
309 1 12.5755 7.17137 18.2259
310 1 12.6145 6.97338 21.067
311 1 1.13498 10.0014 18.2783
312 1 3.92622 9.79309 18.0268
313 1 3.86845 9.82154 21.0111
314 1 1.00985 9.9642 21.1096
315 1 1.21253 12.8462 18.4386
316 1 3.91278 12.7973 18.2703
317 1 3.96747 12.7122 21.1184
318 1 1.3226 13.0319 21.2373
319 1 6.96951 10.0025 18.3788
320 1 9.70813 10.0027 18.3195
321 1 9.4714 9.78449 21.2174
322 1 6.71418 10.1063 21.1992
323 1 6.92301 12.5931 18.5962
324 1 9.63171 12.8221 18.0128
325 1 9.69201 12.7122 20.8707
326 1 6.77557 12.8921 21.2697
327 1 12.6718 9.92482 18.2193
328 1 12.2004 10.0019 21.194
329 1 12.6137 12.7497 18.1889
330 1 12.4911 12.7771 21.0897
331 1 1.07472 15.8069 18.181
332 1 3.92392 15.5629 18.5212
333 1 3.86434 15.3828 21.3522
334 1 1.0038 15.6837 21.2839
335 1 1.19977 18.6593 18.1992
336 1 3.90705 18.3819 18.365
337 1 4.02476 18.2467 21.2278
338 1 1.0996 18.5697 21.1972
339 1 6.89112 15.3725 18.4149
340 1 9.50909 15.5313 18.5903
341 1 9.75857 15.7757 21.301
342 1 6.78841 15.6951 20.9783
343 1 6.77092 18.2617 18.2553
344 1 9.67863 18.5793 18.2599
345 1 9.64223 18.5138 21.3205
346 1 6.78286 18.5459 21.1862
347 1 12.3423 15.4713 18.0926
348 1 12.4502 15.6698 20.9046
349 1 12.4192 18.4864 18.2474
350 1 12.6031 18.3119 21.0028
351 1 0.963904 21.3529 18.455
352 1 3.83097 21.0583 18.3337
353 1 4.07529 21.2755 21.3422
354 1 1.31183 21.4763 21.3282
355 1 6.72973 20.9724 18.2645
356 1 9.581 21.282 18.4393
357 1 9.7535 21.4079 21.3397
358 1 7.0406 21.2914 21.0966
359 1 12.579 21.2491 18.2633
360 1 12.4933 21.0545 21.001
361 1 0.892992 -1.29992 23.6754
362 1 3.76098 -1.34144 23.992
363 1 3.92213 -1.6496 26.5221
364 1 1.17478 -1.55821 26.5026
365 1 0.923677 1.24729 23.7073
366 1 3.63934 1.45452 23.8425
367 1 4.05801 1.18746 26.7936
368 1 1.07893 1.33816 26.5205
369 1 6.37559 1.36567 23.842
370 1 9.28913 -1.73936 23.9823
371 1 9.32063 -1.55881 26.7329
15232 2 13.8878 14.1376 25.3591
373 1 6.99148 1.28077 26.6673
374 1 9.56181 1.0659 24.0421
375 1 9.72946 1.26128 26.9797
15192 2 13.8269 19.9742 19.7433
377 1 12.2255 -1.61239 24.0676
378 1 12.3005 -1.54161 26.659
379 1 12.2202 1.35994 24.0705
380 1 12.4877 1.27465 26.8944
381 1 1.0251 4.10483 24.0217
382 1 4.07641 4.39076 23.5957
383 1 3.81968 3.97243 26.4694
384 1 1.12309 4.05523 26.7345
385 1 1.35156 6.80379 24.1817
386 1 4.21156 6.97416 24.2702
387 1 3.94931 6.6186 26.9467
388 1 0.829612 6.97303 27.0714
389 1 6.83329 4.25171 23.5858
390 1 9.61959 4.00761 23.7892
391 1 9.42163 4.08239 26.5845
12214 2 -0.196418 5.66266 25.4126
393 1 6.95315 7.23435 24.0925
394 1 9.57031 6.95396 23.8489
395 1 9.73326 6.88361 26.7693
396 1 6.88818 7.23833 26.9878
397 1 12.5031 4.10883 24.0193
398 1 12.2766 4.15902 26.81
399 1 12.3161 7.16289 23.921
400 1 12.4424 7.26063 26.6096
401 1 1.09582 9.88107 24.0792
402 1 3.93732 9.89963 23.8536
403 1 3.72174 9.7678 26.8564
404 1 0.983232 10.0322 26.8747
405 1 1.03449 12.4587 24.103
406 1 4.03274 12.8084 24.1095
407 1 3.92314 12.5098 27.043
408 1 0.896286 12.8501 26.527
409 1 6.70634 9.89301 23.8863
410 1 9.68577 9.52903 24.0826
411 1 9.25304 9.97296 26.7512
412 1 6.44692 10.0207 27.0436
413 1 6.79367 12.6977 23.8064
414 1 9.75251 12.4814 24.0197
415 1 9.60601 12.5917 26.5828
416 1 6.8296 12.8638 26.6529
417 1 12.6341 10.0928 23.9592
418 1 12.0866 9.93222 26.8549
419 1 12.4896 12.734 23.8287
420 1 12.3139 12.6075 26.8527
421 1 1.07928 15.4663 24.1981
422 1 3.82847 15.5593 24.2467
423 1 4.06298 15.7202 26.7711
424 1 1.25805 15.623 27.1175
425 1 1.11718 18.4498 23.9995
426 1 4.08161 18.4655 24.0368
427 1 4.10307 18.6033 26.9245
428 1 1.23596 18.4243 26.8666
429 1 6.59013 15.5658 23.7941
430 1 9.67237 15.3787 24.0705
431 1 9.52091 15.6561 26.7216
432 1 6.94536 15.8453 26.7288
433 1 6.79102 18.1817 24.0881
434 1 9.69774 18.6897 24.1753
435 1 9.63489 18.4175 26.885
436 1 6.86553 18.4604 26.89
437 1 12.5463 15.5194 23.9207
438 1 12.3461 15.6516 26.8814
439 1 12.7261 18.3959 23.9886
440 1 12.4246 18.369 26.9472
441 1 1.26351 21.208 24.2056
442 1 4.05198 21.2852 24.3324
443 1 3.8804 21.279 26.9906
444 1 0.96425 21.2683 27.0035
445 1 6.77781 21.2813 23.8729
446 1 9.44662 21.2846 24.1552
447 1 9.62094 21.2355 26.9254
448 1 6.76876 21.3275 26.7207
449 1 12.3581 21.3092 23.9618
450 1 12.5969 21.2964 26.6411
5993 1 6.61227 -1.38438 26.65
12250 2 10.992 22.5717 25.4086
12157 2 7.98892 -2.72988 19.6358
12140 2 11.0567 11.4227 14.0763
15191 2 13.7036 22.6974 16.7259
15241 2 13.6803 22.6265 22.4069
12249 2 11.0911 19.8701 22.4961
12150 2 11.0729 22.6502 14.068
12144 2 5.2265 16.9583 14.2603
12138 2 8.07226 8.53168 14.3259
15131 2 13.8207 2.59535 14.0392
12248 2 5.3676 22.6024 25.4726
12039 2 10.8024 14.127 28.1082
15151 2 13.6662 -0.211679 16.686
15181 2 13.8475 16.9259 16.6431
12229 2 11.1025 8.43545 22.4668
12022 2 2.36835 11.2661 27.9863
12228 2 5.38576 11.3752 25.3445
15136 2 13.8487 8.49225 14.2334
5820 1 12.1702 -1.64291 15.3326
12146 2 2.50738 19.643 14.1242
12227 2 8.35322 8.4701 25.4947
12232 2 2.40244 16.8471 22.7555
12194 2 -0.25098 22.8849 19.6988
15222 2 13.7654 8.56863 25.3795
12247 2 8.09466 19.782 25.4209
12152 2 2.43497 -0.0184559 16.719
12149 2 5.44223 22.5337 14.1624
12246 2 8.3158 22.5552 22.6847
12225 2 5.64972 8.54328 22.5388
12156 2 8.24577 -0.0711137 16.7454
12226 2 8.26857 11.1738 22.647
12158 2 5.19899 0.0616873 19.3942
12235 2 5.30608 14.07 22.6503
12160 2 11.0423 -0.191546 19.76
12245 2 5.36822 19.7764 22.6117
12162 2 2.38078 5.41182 16.7405
12163 2 2.38105 2.83348 19.7879
12233 2 2.53428 14.2449 25.504
12165 2 5.25182 2.819 16.8509
12166 2 8.3528 5.78278 16.9147
12167 2 8.30811 2.78777 19.8662
12168 2 5.11155 5.51235 19.5629
12169 2 10.8473 2.6547 17.0502
12170 2 11.3821 5.73952 19.6965
12243 2 2.69338 19.6915 25.499
12172 2 2.48991 11.2837 16.7111
12173 2 2.62811 8.39673 19.4906
12242 2 2.55089 22.7171 22.7675
12175 2 5.33818 8.30043 16.9116
12176 2 8.0067 11.2834 17.0304
12177 2 8.31368 8.33911 19.536
12178 2 5.33103 11.4171 19.8172
12179 2 11.1511 8.60451 16.6755
12180 2 11.032 11.3944 19.578
12012 2 2.36533 5.57364 28.1605
12182 2 2.47796 16.983 16.7205
12183 2 2.6285 14.1809 19.7796
15162 2 13.7047 2.66177 19.763
12185 2 5.43315 14.159 17.0567
12186 2 8.0946 17.0227 17.056
12187 2 8.17411 14.1417 19.7789
12188 2 5.30151 17.0427 19.796
12189 2 11.0797 13.9442 16.8188
12190 2 11.0753 17.0297 19.4004
12221 2 -0.183768 8.37612 22.6489
12192 2 2.43921 22.6649 17.0522
12193 2 2.50812 20.1115 19.7975
12230 2 11.013 11.3013 25.4556
12195 2 5.10656 19.825 16.8525
12196 2 8.02951 22.4915 17.071
12197 2 8.31745 19.707 19.7551
12198 2 5.41228 22.6498 19.8526
12199 2 11.0753 19.8665 16.9795
12200 2 11.0388 22.7939 19.7095
12240 2 11.0504 17.007 25.4537
12202 2 2.36 -0.0515784 22.4308
5989 1 6.55009 -1.44755 23.8041
12239 2 11.0296 14.1909 22.4845
15182 2 13.7622 14.087 19.7211
12206 2 7.86283 -0.0276228 22.4986
12130 2 10.9661 -0.227791 13.9925
12208 2 5.16267 0.0509836 25.33
12141 2 2.60279 14.1717 14.0402
12210 2 10.8033 -0.274222 25.2986
12238 2 5.29324 16.8938 25.4852
12212 2 2.62128 5.6605 22.6333
12213 2 2.40687 2.66525 25.3867
12237 2 8.23981 14.1028 25.3339
12215 2 5.23018 2.70296 22.45
12216 2 8.19244 5.6231 22.4074
12217 2 8.17955 2.68618 25.2774
12218 2 5.4768 5.51474 25.2509
12219 2 11.0298 2.80243 22.3434
12220 2 11.0273 5.47847 25.4578
12236 2 8.12319 17.0152 22.757
12222 2 2.49435 11.1551 22.4269
12223 2 2.56317 8.43139 25.37
12016 2 8.2637 5.37547 28.1181
15172 2 13.9311 8.31547 19.7349
12134 2 5.34704 5.69344 14.0172
12136 2 2.36913 8.35503 14.0431
12139 2 5.31604 11.2899 14.269
12135 2 11.086 5.44794 14.0177
15242 2 13.909 19.817 25.4923
15231 2 13.8814 17.0484 22.4733
15201 2 13.7648 -0.0867674 22.4567
12129 2 5.39266 0.0708279 13.9832
12133 2 8.0625 2.74057 14.0119
12148 2 8.19831 19.5379 14.2486
15212 2 13.7514 2.72041 25.4854
12143 2 8.08623 14.355 14.0828
15221 2 13.9239 11.2415 22.524
15161 2 13.7336 5.53979 16.8787
12002 2 2.66503 -0.0198065 28.0894
451 1 1.14835 23.8903 1.46354
452 1 3.6806 24.0653 1.55899
453 1 4.25776 24.0864 4.43504
454 1 1.52637 24.076 4.15619
455 1 7.14643 26.5995 1.28351
457 1 9.62356 23.7714 4.17934
15291 2 13.8914 48.2838 2.53567
458 1 6.9309 23.9857 4.16104
6462 1 13.734 26.3935 4.85099
478 1 13.7489 30.044 4.52153
461 1 1.69885 26.8436 1.44399
462 1 4.19318 27.0096 1.32532
463 1 3.79689 27.0512 4.24216
464 1 0.889689 26.8445 4.24533
465 1 1.22144 29.7162 1.4225
466 1 3.99717 29.66 1.29945
467 1 4.1385 29.6954 4.37584
468 1 1.01059 29.5672 4.17536
469 1 6.64569 29.3527 1.27981
470 1 9.65471 26.6674 1.20761
471 1 9.57849 26.5827 4.11562
472 1 6.93661 26.9335 4.3274
473 1 9.40763 29.7383 1.30592
460 1 12.5646 26.5433 1.93097
475 1 9.8905 29.8025 4.14895
476 1 7.12898 29.7124 4.25638
456 1 9.64209 23.7666 1.34482
15271 2 13.8281 39.6071 -0.219465
15316 2 13.8224 39.664 5.24111
480 1 11.9755 30.8673 2.63259
481 1 1.27858 32.6251 1.35518
482 1 3.98338 32.5605 1.38596
483 1 4.11666 32.9916 4.06931
484 1 1.55887 32.6837 3.8633
485 2 2.68287 34.0332 2.53428
486 1 4.16256 35.4724 1.202
487 1 3.61201 35.4455 4.03049
488 1 0.958503 35.6105 3.62035
489 1 6.8773 32.2535 1.36178
490 1 9.68454 32.5439 1.33348
491 1 9.83243 32.6303 4.28667
492 1 7.2777 32.7032 4.03273
493 1 6.93534 35.2933 1.05452
494 1 9.70949 35.5773 1.3687
495 1 9.30672 35.3992 4.226
496 1 6.43915 35.5533 3.79719
497 1 12.52 32.8161 0.996616
498 1 12.5777 32.9614 4.15147
499 1 12.5761 35.3209 1.24879
500 1 12.2701 35.6621 4.02945
501 1 1.51883 35.4268 1.11326
502 1 3.96108 38.43 1.23279
503 1 4.09177 38.2261 3.75033
504 1 1.36555 38.4525 3.86254
505 1 0.972321 38.6198 1.06392
506 1 4.05961 41.3465 1.14044
507 1 4.04909 41.0645 3.75223
508 1 1.11727 41.2344 3.996
509 1 6.62667 38.367 1.31716
510 1 9.71947 38.308 1.15537
511 1 9.84508 38.1481 4.13503
512 1 6.96486 38.3197 4.23193
513 1 6.92169 41.3571 0.76545
514 1 9.68154 41.1942 1.122
515 1 9.59596 41.1091 3.92403
516 1 6.82892 40.9797 3.63498
517 1 12.4557 38.2397 1.09737
518 1 12.5945 38.4611 3.89381
519 1 12.5448 41.165 1.12262
520 1 12.5452 41.0077 3.90571
521 1 1.52508 41.223 1.022
522 1 3.8386 43.9679 1.19216
523 1 4.04143 44.1266 4.12449
524 1 1.03262 44.1123 4.20091
525 1 1.19752 46.7159 1.07478
526 1 4.23773 46.7132 1.18256
527 1 4.0645 46.9349 3.89357
528 1 1.00436 46.9526 3.98637
529 1 6.64614 44.2844 0.811905
530 1 9.58248 44.2018 0.903681
531 1 9.69107 43.7607 3.67122
532 1 6.69841 43.7208 3.61362
533 1 6.92826 46.9624 0.900395
534 1 10.0395 46.8349 0.975886
535 1 9.46248 46.7044 3.90957
536 1 6.91932 46.6342 3.64715
537 1 12.395 44.0864 1.0253
538 1 12.5235 43.7911 4.16635
539 1 12.583 46.7056 1.36039
540 1 12.1698 46.632 3.94471
541 1 1.52231 23.757 7.08021
542 1 4.34689 24.0353 7.17261
543 1 3.97001 24.0864 9.98186
544 1 1.26451 23.781 10.1253
12369 2 2.617 31.0801 13.8975
546 1 9.74782 24.2315 7.11761
547 1 9.65624 23.9896 9.84056
548 1 6.71675 23.911 9.72412
179 1 12.4176 24.0129 4.21213
550 1 12.4817 23.9445 9.7993
551 1 1.42366 26.759 7.05168
552 1 4.15734 27.0037 6.8174
553 1 3.94547 26.8003 9.96146
554 1 1.10004 26.6818 9.49904
555 1 1.20377 29.6415 7.0651
556 1 4.03501 29.8854 7.10323
557 1 3.86619 29.6699 9.65778
558 1 1.13099 29.6071 10.0045
559 1 6.82295 26.8397 7.13361
560 1 9.75888 27.1645 7.17099
561 1 9.37466 26.4822 9.95716
562 1 6.68965 26.6936 9.72639
563 1 6.90368 29.7439 6.92752
564 1 9.63064 29.9013 6.85616
565 1 9.61499 29.4546 9.7417
566 1 7.01995 29.9204 9.67751
567 1 12.3925 26.8688 6.95544
568 1 12.3857 26.9149 9.79318
569 1 12.4016 29.8305 6.98437
570 1 12.3712 30.113 9.56929
571 1 0.990509 32.5745 6.84133
572 1 4.04637 32.5202 6.74169
573 1 4.0043 32.343 9.61461
574 1 1.08472 32.6999 9.70782
575 1 1.17626 35.477 6.67881
576 1 4.05771 35.1488 7.16235
577 1 3.914 35.4491 9.85205
578 1 1.1536 35.2948 9.6541
579 1 6.74053 32.6127 7.022
580 1 9.42811 32.7385 7.14881
581 1 9.35643 32.3824 10.0439
582 1 6.82552 32.7585 9.83258
583 1 6.66042 35.2924 6.42942
584 1 9.69045 35.5943 7.12227
585 1 9.6521 35.177 9.82746
586 1 6.5156 35.7935 9.43549
587 1 12.3931 32.8707 7.02615
588 1 12.4476 32.8073 10.2828
589 1 12.5657 35.774 6.77047
590 1 12.1751 35.5187 9.81294
591 1 0.922719 38.2609 6.62824
592 1 3.89233 38.1993 6.64145
593 1 4.16943 38.3429 9.6019
594 1 1.12028 38.1352 9.45822
595 1 1.06479 41.0224 6.8668
596 1 3.82231 40.9819 6.66799
597 1 4.03013 41.0192 9.69974
598 1 1.34866 41.1952 9.68606
599 1 6.77897 38.074 7.08718
600 1 9.74174 38.3042 6.89979
601 1 9.54466 38.5312 9.79474
602 1 6.72597 38.4632 9.8155
603 1 6.82504 40.5666 6.7371
604 1 9.5605 41.1438 6.9572
605 1 9.56476 41.3783 9.77151
606 1 6.94392 41.3133 9.60153
607 1 12.52 38.3728 6.84288
608 1 12.4261 38.2715 9.54797
609 1 12.1645 41.561 7.18125
610 1 12.3689 41.2192 9.78914
611 1 0.944545 43.8332 6.86228
612 1 3.72824 43.8922 6.66251
613 1 4.16425 43.7186 9.44508
614 1 1.05795 44.0188 9.42248
615 1 1.19837 46.7161 6.64357
616 1 3.85515 46.6038 6.95792
617 1 3.79245 46.6786 9.92008
618 1 1.082 46.8133 9.52216
619 1 6.70591 43.4677 6.8079
620 1 9.49326 44.0025 6.67805
621 1 9.43811 44.311 9.46874
622 1 6.74505 44.0907 9.48092
623 1 6.71264 46.3731 6.69009
624 1 9.4582 46.9928 6.40698
625 1 9.47479 46.9149 9.6018
626 1 6.50301 47.1676 9.53796
627 1 12.2161 44.4372 6.93043
628 1 12.4551 44.3027 9.60815
629 1 12.6808 46.9242 6.85418
630 1 12.2227 47.0424 9.45539
631 1 1.23687 24.2747 12.7336
12296 2 -0.104606 25.1124 5.65597
633 1 7.16551 23.9767 12.8227
634 1 9.719 23.9205 12.7245
635 1 12.2642 24.2186 12.5871
636 1 1.14385 26.9757 12.4689
637 1 4.02175 26.6905 12.5761
638 1 1.13363 29.8069 12.7641
639 1 3.81609 29.6636 12.5688
640 1 6.71643 26.938 12.4432
641 1 9.304 27.1788 12.9455
642 1 6.71392 29.699 12.8164
643 1 9.55196 29.8718 12.805
644 1 12.1553 26.8151 12.7447
645 1 12.238 29.8012 12.4344
646 1 1.03845 32.6877 12.617
647 1 3.90791 32.4491 12.3474
648 1 1.19737 35.5062 12.4024
649 1 3.79085 35.3661 12.6429
650 1 6.46056 32.6655 12.9019
651 1 9.30207 32.8407 12.7528
652 1 6.81496 35.5759 12.4602
653 1 9.67152 35.6696 12.7839
654 1 12.0901 32.6923 12.8593
655 1 12.5463 35.6345 12.6904
656 1 0.70856 38.3866 12.387
657 1 3.85021 38.1061 12.2442
658 1 1.27395 41.0205 12.5177
659 1 4.16424 40.9209 12.6615
660 1 6.52572 38.449 12.7401
661 1 9.48407 38.5354 12.6488
662 1 6.88343 41.3706 12.6638
663 1 9.71941 41.3519 12.667
664 1 12.3925 38.4548 12.508
665 1 12.2401 41.0825 12.6924
666 1 0.808893 44.0495 12.2388
667 1 3.85283 43.9082 12.3943
668 1 1.02204 46.7983 12.529
669 1 3.90149 46.7473 12.6842
670 1 6.85148 44.0568 12.4613
671 1 9.65752 44.0157 12.2701
672 1 6.88901 46.8521 12.3823
673 1 9.62179 46.7791 12.6868
674 1 12.2617 44.0523 12.3082
675 1 12.5135 46.882 12.2242
12363 2 10.9444 48.1079 11.1784
459 1 12.4998 23.7802 1.5233
12253 2 2.66618 25.3398 3.00001
12362 2 5.28228 48.3068 11.0251
1002 1 3.99378 49.5475 6.93724
15326 2 13.8701 45.397 5.29421
12257 2 8.23583 25.2556 2.69294
12258 2 5.66298 28.1204 2.94424
12252 2 2.67247 28.1825 -0.00465014
12260 2 10.5954 28.3009 2.69416
12360 2 11.0725 42.5723 11.2605
15327 2 13.7314 42.6178 8.1694
12263 2 2.66399 30.7031 2.94688
12359 2 8.22931 45.5671 11.0552
545 1 6.7447 24.0943 6.92077
15296 2 13.746 28.3864 5.89782
12267 2 8.4591 31.2677 2.85581
12268 2 5.827 33.792 2.62507
12345 2 10.9802 25.3558 11.0194
12270 2 11.2509 33.9055 2.56825
12358 2 5.53507 42.5164 10.9802
12344 2 8.27518 28.2792 11.3364
12273 2 2.66961 37.2819 2.3784
12357 2 2.4289 45.3097 10.9558
12343 2 5.43629 25.329 11.3332
85 1 6.85405 23.7539 1.20905
12277 2 8.38734 36.8986 2.55349
12278 2 5.37629 39.7956 2.46841
12251 2 -0.0814821 25.3371 0.0884209
12280 2 11.1155 39.8407 2.57089
12355 2 10.8931 36.8684 11.1878
15351 2 13.7583 39.8038 11.1079
12283 2 2.49738 42.6037 2.56371
12354 2 8.24496 40.0083 11.2156
549 1 12.1128 28.1578 4.13999
6171 1 12.4976 23.7974 7.08045
12287 2 8.26885 42.5044 2.37555
12288 2 5.27162 45.1936 2.57999
15346 2 13.7352 34.1683 11.3836
12290 2 10.9203 45.4269 2.5608
12353 2 5.27391 36.9586 10.9911
12292 2 2.39887 48.0704 2.55726
1101 1 0.888764 49.4835 12.735
12294 2 8.33497 48.2214 2.49369
15356 2 13.9485 45.4864 10.9856
12274 2 -0.202962 39.6146 2.64191
12297 2 2.28253 28.1201 5.55506
12298 2 2.95696 25.5146 8.2708
15341 2 13.5804 28.4631 11.1983
12300 2 5.6209 25.4677 5.62142
12301 2 8.39118 28.4158 5.54676
12302 2 8.18285 25.3202 8.45415
12303 2 5.43289 28.2509 8.34134
12304 2 11.0813 25.4464 5.66786
12305 2 11.0066 28.213 8.50848
12352 2 2.61155 39.8021 11.2241
12307 2 2.67795 34.1203 5.68088
12308 2 2.61008 31.2068 8.36844
12374 2 2.54932 37.0343 13.7995
12310 2 5.42649 31.1118 5.75339
12311 2 8.15933 34.0086 5.64439
12312 2 8.19316 31.1892 8.15643
12313 2 5.60299 33.8053 8.31694
12314 2 11.2695 31.093 5.36992
12315 2 11.0741 34.143 8.2872
15336 2 13.813 48.0629 8.2244
12317 2 2.40836 39.689 5.37864
12318 2 2.6366 36.8333 8.40883
12350 2 10.9607 31.3365 11.2506
12320 2 5.26619 36.9776 5.38362
12321 2 8.30057 39.5747 5.44652
12322 2 8.29907 36.9459 8.50337