LAMMPS (29 Oct 2020)
OMP_NUM_THREADS environment is not set. Defaulting to 1 thread. (../comm.cpp:94)
  using 1 OpenMP thread(s) per MPI task
OMP_NUM_THREADS environment is not set. Defaulting to 1 thread. (../comm.cpp:94)
  using 1 OpenMP thread(s) per MPI task
Reading data file ...
  orthogonal box = (-0.49611388 -5.9586112 -0.49865827) to (27.836114 334.03861 27.838658)
  2 by 13 by 2 MPI processor grid
  reading atoms ...
  18000 atoms
  reading velocities ...
  18000 velocities
Finding 1-2 1-3 1-4 neighbors ...
  special bond factors lj:    0.0      0.0      0.0     
  special bond factors coul:  0.0      0.0      0.0     
     0 = max # of 1-2 neighbors
     0 = max # of 1-3 neighbors
     0 = max # of 1-4 neighbors
     1 = max # of special neighbors
  special bonds CPU = 0.004 seconds
  read_data CPU = 0.046 seconds
Setting atom values ...
  12000 settings made for charge
Setting atom values ...
  6000 settings made for charge
PPPM initialization ...
  using 12-bit tables for long-range coulomb (../kspace.cpp:328)
  G vector (1/distance) = 0.29829443
  grid = 40 240 40
  stencil order = 5
  estimated absolute RMS force accuracy = 0.00016215408
  estimated relative force accuracy = 1.1260978e-05
  using single precision MKL FFT
  3d grid and FFT values/proc = 15000 7600
Neighbor list info ...
  update every 1 steps, delay 0 steps, check yes
  max neighbors/atom: 2000, page size: 100000
  master list distance cutoff = 11.3
  ghost atom cutoff = 11.3
  binsize = 5.65, bins = 6 61 6
  2 neighbor lists, perpetual/occasional/extra = 2 0 0
  (1) pair coul/long, perpetual
      attributes: half, newton on
      pair build: half/bin/newton
      stencil: half/bin/3d/newton
      bin: standard
  (2) pair eam/alloy, perpetual, copy from (1)
      attributes: half, newton on
      pair build: copy
      stencil: none
      bin: none
Setting up Verlet run ...
  Unit style    : metal
  Current step  : 0
  Time step     : 0.001
Per MPI rank memory allocation (min/avg/max) = 8.150 | 8.171 | 8.186 Mbytes
Step Temp E_pair E_mol TotEng Press 
       0         1200   -233012.09            0   -230220.23   -648.18267 
  100000     1193.098    -232999.8            0   -230223.99   -890.12984 
Loop time of 631.947 on 52 procs for 100000 steps with 18000 atoms

Performance: 13.672 ns/day, 1.755 hours/ns, 158.241 timesteps/s
99.9% CPU use with 52 MPI tasks x 1 OpenMP threads

MPI task timing breakdown:
Section |  min time  |  avg time  |  max time  |%varavg| %total
---------------------------------------------------------------
Pair    | 407.07     | 420.63     | 436        |  35.4 | 66.56
Bond    | 0.0063382  | 0.010195   | 0.015777   |   2.3 |  0.00
Kspace  | 135.05     | 151.54     | 166.04     |  66.3 | 23.98
Neigh   | 36.462     | 38.837     | 42.434     |  20.5 |  6.15
Comm    | 14.795     | 15.874     | 18.314     |  24.9 |  2.51
Output  | 6.0981e-05 | 6.7722e-05 | 0.00032226 |   0.0 |  0.00
Modify  | 2.1786     | 3.6091     | 5.7919     |  62.4 |  0.57
Other   |            | 1.446      |            |       |  0.23

Nlocal:        346.154 ave         364 max         332 min
Histogram: 6 3 3 9 6 16 4 1 1 3
Nghost:        3982.54 ave        4080 max        3916 min
Histogram: 3 10 4 10 11 3 3 3 4 1
Neighs:        69519.8 ave       74844 max       63549 min
Histogram: 3 3 8 9 3 5 3 3 9 6

Total # of neighbors = 3615027
Ave neighs/atom = 200.83483
Ave special neighs/atom = 0.0000000
Neighbor list builds = 22004
Dangerous builds = 0
12000 atoms in group oxygen
PPPM initialization ...
  using 12-bit tables for long-range coulomb (../kspace.cpp:328)
  G vector (1/distance) = 0.29829443
  grid = 40 240 40
  stencil order = 5
  estimated absolute RMS force accuracy = 0.00016215408
  estimated relative force accuracy = 1.1260978e-05
  using single precision MKL FFT
  3d grid and FFT values/proc = 15000 7600
Setting up Verlet run ...
  Unit style    : metal
  Current step  : 0
  Time step     : 0.001
Per MPI rank memory allocation (min/avg/max) = 8.401 | 8.421 | 8.437 Mbytes
Step f_2 Temp v_Tdiff v_deltaT 
       0            0     1193.098            0            0 
  100000     1268.758    1195.0897  0.056434013    655.19364 
  200000    2427.9603    1202.6117  0.068718736    797.81814 
  300000      3582.12    1206.0018  0.070479755    818.26341 
  400000    4746.9481    1200.4747  0.069259484    804.09617 
  500000    5910.6688    1206.6646  0.069370479    805.38482 
  600000    7091.4748    1218.3632  0.068115256    790.81179 
  700000    8247.5195    1202.1098  0.069944099    812.04449 
  800000    9408.3357    1212.9315  0.069139373     802.7017 
  900000    10577.803     1204.587  0.070676533    820.54799 
 1000000    11749.166    1208.4301  0.069739548    809.66968 
Loop time of 6318.04 on 52 procs for 1000000 steps with 18000 atoms

Performance: 13.675 ns/day, 1.755 hours/ns, 158.277 timesteps/s
99.9% CPU use with 52 MPI tasks x 1 OpenMP threads

MPI task timing breakdown:
Section |  min time  |  avg time  |  max time  |%varavg| %total
---------------------------------------------------------------
Pair    | 3988.2     | 4129.6     | 4289.6     | 114.5 | 65.36
Bond    | 0.061642   | 0.10045    | 0.15881    |   6.4 |  0.00
Kspace  | 1398.9     | 1557.7     | 1719.6     | 201.9 | 24.66
Neigh   | 401.44     | 422.92     | 447.04     |  57.1 |  6.69
Comm    | 151.5      | 163.16     | 194.68     |  89.4 |  2.58
Output  | 0.0010482  | 0.0011068  | 0.0024018  |   0.5 |  0.00
Modify  | 5.5095     | 6.0046     | 6.8024     |  11.4 |  0.10
Other   |            | 38.49      |            |       |  0.61

Nlocal:        346.154 ave         363 max         328 min
Histogram: 3 1 6 6 12 7 5 1 6 5
Nghost:        3979.44 ave        4072 max        3920 min
Histogram: 5 12 9 7 3 3 3 3 5 2
Neighs:        69515.4 ave       75767 max       62762 min
Histogram: 3 3 8 8 3 3 7 9 3 5

Total # of neighbors = 3614801
Ave neighs/atom = 200.82228
Ave special neighs/atom = 0.0000000
Neighbor list builds = 241468
Dangerous builds = 0
Total wall time: 1:55:50
