LAMMPS data file via write_data, version 29 Oct 2020, timestep = 100000

18000 atoms
4 atom types

-0.2547177574697736 28.148717757470006 xlo xhi
-3.0647306662187592 337.7927306662098 ylo yhi
-0.24900982393499804 28.143009823935152 zlo zhi
0.0 0.0 0.0 xy xz yz

Masses

1 15.9994
2 232.0381
3 15.9994
4 232.0381

Atoms # full

136 0 1 -1.1104 7.0282418352019445 -2.27668289806933 4.003996848695822 0 0 0
492 0 1 -1.1104 1.2800293369301827 15.181046901062997 12.680996643840704 0 0 0
315 0 1 -1.1104 12.899654067488546 0.9433451278603352 12.970471179060517 0 0 0
4 0 1 -1.1104 7.146447920527614 21.120868219262913 12.457890059011408 0 0 0
5 0 1 -1.1104 3.905259169731626 20.96286891103348 12.890857404447292 0 0 0
6 0 1 -1.1104 1.0505088900770057 20.853015683992655 12.357800083940573 0 0 0
311 0 1 -1.1104 9.933638501926394 -1.787429622607829 12.631382136582394 0 0 0
8 0 2 2.2208 5.686195910763683 -0.8146838602583639 2.795710890324965 0 0 0
9 0 1 -1.1104 12.738071326508077 18.212874270348944 12.57507487024578 0 0 0
10 0 2 2.2208 11.500899686532051 -0.5928289639821555 2.634162550262863 0 0 0
8536 0 1 -1.1104 4.71415641168452 -2.511207069758209 8.776406994970227 0 1 0
659 0 1 -1.1104 4.715362526445332 14.859123635169452 2.812197901371668 0 0 1
13 0 2 2.2208 2.6180973560126675 2.5377789681176153 2.7989500333670647 0 0 0
9613 0 2 2.2208 0.06837467603449364 5.221319625323147 13.852967958140233 0 0 0
222 0 1 -1.1104 0.9441384762530324 -1.9446385223817315 12.538218773822445 0 0 0
16 0 1 -1.1104 12.446030752791042 15.530665257936231 12.563958852293483 0 0 0
17 0 2 2.2208 8.489375205938536 2.141585247993005 2.847424603555954 0 0 0
18 0 2 2.2208 5.492616496969545 5.162869817937087 2.8379299098644983 0 0 0
19 0 1 -1.1104 7.1884069618897035 18.30315254064599 12.831607640548947 0 0 0
20 0 2 2.2208 11.279204950274126 5.061328592152813 2.7185817852544014 0 0 0
21 0 4 2.2208 3.0734373511509525 16.724129417459732 2.685357418755676 0 0 0
217 0 1 -1.1104 4.70252643722801 -0.8664308485486077 6.486615338088896 0 0 0
23 0 2 2.2208 2.815550533712588 8.16450251761463 3.023741081621086 0 0 0
24 0 4 2.2208 8.386941959028368 7.419567543323155 2.635205250152791 0 0 0
26 0 1 -1.1104 10.09136806474177 12.464892401956781 12.634101701925065 0 0 0
9642 0 2 2.2208 -0.0748903902664718 13.988619845864863 0.054477976134645986 0 0 0
27 0 2 2.2208 8.503336796349345 10.807355683175885 2.4774077895813456 0 0 0
28 0 2 2.2208 5.423874848101601 10.750611435464064 2.661891436308207 0 0 0
29 0 1 -1.1104 6.839933751558935 15.408936945244085 12.735212231192849 0 0 0
30 0 2 2.2208 11.68594722671825 10.786116993531694 2.356445616406891 0 0 0
31 0 3 -1.1104 7.294549762279413 15.19715517899324 10.080358470051783 0 0 0
32 0 1 -1.1104 4.60327277639728 18.22064642377362 12.341180930002082 0 0 0
33 0 2 2.2208 2.6885570750659813 13.325474334541187 2.6271245529226586 0 0 0
8938 0 2 2.2208 0.04372090707500077 8.167806457310128 11.26175701037701 0 0 0
8273 0 3 -1.1104 9.988594923972862 -2.311996881388217 9.8631738914699 0 0 0
375 0 2 2.2208 8.44857064352154 -0.7930331848301814 0.08781604649845837 0 0 0
37 0 2 2.2208 8.632544194559312 14.388895884611918 2.405570871663406 0 0 0
38 0 2 2.2208 6.3236959092822085 17.22714482982511 2.695009401924533 0 0 0
255 0 1 -1.1104 13.197809793410892 9.918843015686486 8.694868779728399 0 0 0
40 0 2 2.2208 11.432974306663713 16.84858538889848 2.864504749804391 0 0 0
41 0 1 -1.1104 1.8684403672986312 17.939482809999564 12.705249873271814 0 0 0
499 0 1 -1.1104 9.522152025259441 15.263137750463136 13.094025867404866 0 0 0
43 0 2 2.2208 2.784124846427757 20.13889037903188 2.4368377339240492 0 0 0
44 0 1 -1.1104 4.1615757153691115 15.064777078046871 12.855252385011148 0 0 0
134 0 1 -1.1104 4.166852685069511 -1.9328048700421483 1.2063684454649384 0 0 0
46 0 1 -1.1104 1.676406431059845 15.606694471511016 9.783045990819309 0 0 0
47 0 2 2.2208 8.690567414797647 19.704438734025484 2.5751061902152244 0 0 0
48 0 2 2.2208 5.6843427916409475 22.412457351356753 2.625657108084671 0 0 0
49 0 1 -1.1104 12.63080953827157 12.752521381821259 12.596450178515099 0 0 0
50 0 2 2.2208 11.569653306185442 22.206814597497168 2.549913794469925 0 0 0
278 0 1 -1.1104 1.3111837421159767 12.443702124592908 9.584798918280704 0 0 0
52 0 2 2.2208 2.93629248903041 -0.550106121496798 4.993137497334347 0 0 0
235 0 1 -1.1104 12.62493059394037 0.7504415220269921 9.891389690661716 0 0 0
54 0 4 2.2208 3.1644896599239933 -0.12930681144497952 8.219506054435511 0 0 0
8951 0 4 2.2208 -0.22550026502173315 19.649621829791148 8.114494589928873 0 0 0
56 0 2 2.2208 8.351187697592083 -0.894271786429755 5.441962822780278 0 0 0
8952 0 2 2.2208 -0.15369861237710264 14.06707554573426 5.57275455393972 0 0 0
58 0 2 2.2208 6.260782517636417 -0.5370384793781462 8.497427302556183 0 0 0
9251 0 1 -1.1104 13.718581343796679 6.345932353153444 13.412776973082677 0 0 0
60 0 2 2.2208 11.200448196323075 -0.9245843595571556 8.399321998213933 0 0 0
61 0 1 -1.1104 13.449442630120839 10.228707659060351 13.389248185457577 0 0 0
62 0 2 2.2208 2.6846098194625077 5.236926031981288 5.534308320880921 0 0 0
63 0 2 2.2208 2.5672669704381508 2.9664341189580363 8.39784319848935 0 0 0
64 0 3 -1.1104 10.086960232595771 0.33725874561463304 6.78264766905252 0 0 0
65 0 2 2.2208 5.449219650712958 2.3761912064708057 5.797148951351263 0 0 0
66 0 2 2.2208 8.491829517055361 5.0117444901446015 5.859420348944944 0 0 0
67 0 2 2.2208 8.433941564005561 2.1741133798678787 8.292137716634125 0 0 0
68 0 2 2.2208 5.804197559564775 5.005864536460754 8.34760573090284 0 0 0
69 0 2 2.2208 11.349748570492972 1.9720874031974471 5.350704661009619 0 0 0
70 0 2 2.2208 11.433413380650155 4.905203570044198 8.644965456018372 0 0 0
185 0 1 -1.1104 12.766095533641286 12.140944924211588 4.205769627670833 0 0 0
72 0 2 2.2208 2.607131590167135 11.00045841132117 5.639954079202399 0 0 0
73 0 2 2.2208 2.7551471300756476 8.185505867555905 8.126415513862495 0 0 0
74 0 3 -1.1104 4.335405472911637 21.247655661234308 3.9370107760914386 0 0 0
75 0 2 2.2208 5.735425751408577 8.213764789406694 5.630709833213259 0 0 0
76 0 2 2.2208 8.027316105153327 13.310823987797013 5.393974463121414 0 0 0
77 0 2 2.2208 8.008728419118592 7.775686250041013 8.522685155212496 0 0 0
78 0 2 2.2208 8.737319261334328 10.021868461748252 5.968075305812054 0 0 0
79 0 2 2.2208 11.424455826168728 8.038941692182103 5.064125074964921 0 0 0
80 0 2 2.2208 11.321879537811256 11.543661442045437 8.266055959476722 0 0 0
81 0 4 2.2208 5.731126205899826 11.301782910540593 7.968243367136063 0 0 0
82 0 2 2.2208 2.808298836481489 17.05923968174309 5.874259486190578 0 0 0
83 0 2 2.2208 2.740555033340116 13.890479546959979 8.382914151768626 0 0 0
469 0 1 -1.1104 9.996648281915544 3.6555858879425975 12.86926396025495 0 0 0
85 0 2 2.2208 4.9497561578797 14.309722942457404 5.237102960797304 0 0 0
86 0 2 2.2208 8.659855626037517 17.093324116865293 5.42977835478293 0 0 0
87 0 2 2.2208 8.434819786629035 13.731708296254338 8.59230172291385 0 0 0
88 0 2 2.2208 5.683509924678523 16.81031080763181 8.485536514959621 0 0 0
89 0 2 2.2208 11.560259220574233 13.999427707530325 5.733746701557013 0 0 0
90 0 2 2.2208 11.434176081795561 16.73833306569708 8.177954462554453 0 0 0
91 0 3 -1.1104 9.732990052674296 21.062957443251133 9.72655043816295 0 0 0
310 0 1 -1.1104 6.934645967503545 -1.772721665009108 12.85172722994772 0 0 0
93 0 2 2.2208 2.9263894485754878 19.61331661003079 8.401673212595467 0 0 0
92 0 2 2.2208 2.6515336690126143 22.53102846871288 5.434171766939256 0 0 0
95 0 2 2.2208 5.361157441618897 19.76375323348139 5.197961621003174 0 0 0
96 0 2 2.2208 8.121696378579127 22.332146425726318 5.573680594229957 0 0 0
97 0 2 2.2208 8.351149797887269 19.518366149639785 8.331588511087814 0 0 0
98 0 2 2.2208 5.540808758932671 22.301511877479808 8.376472100331622 0 0 0
99 0 2 2.2208 11.280672072471729 19.81141333934669 5.730121222374465 0 0 0
100 0 2 2.2208 11.233966985315021 22.439163786240318 8.36979891202807 0 0 0
101 0 3 -1.1104 9.418734896785878 11.30116770478467 4.261243851137946 0 0 0
102 0 2 2.2208 2.681520906003865 -0.4347831338487775 11.64658148665747 0 0 0
9274 0 3 -1.1104 0.6549361934583906 1.622485643807611 7.976513268996982 0 0 0
104 0 2 2.2208 8.699987764467283 -0.6103516677052356 11.12944877207308 0 0 0
894 0 1 -1.1104 4.220096519283244 20.79552678829919 9.668125783614995 0 0 0
106 0 4 2.2208 11.67433176219593 8.50466804399947 8.220703375412784 0 0 0
107 0 2 2.2208 2.8985397054093127 5.327146392128643 11.252405968551242 0 0 0
108 0 2 2.2208 5.867986301634838 2.525739272488443 11.246390624046056 0 0 0
109 0 2 2.2208 8.457225051618302 4.96144739493703 11.005078868069818 0 0 0
110 0 2 2.2208 11.403012264181092 2.2559825956823523 11.15329286844937 0 0 0
111 0 1 -1.1104 12.79513102220351 21.140940270843327 12.807551801239551 0 0 0
112 0 2 2.2208 2.885298941280376 10.713649585864436 11.086372916505 0 0 0
113 0 2 2.2208 5.703869660425175 8.203376942970541 11.307938083922158 0 0 0
114 0 2 2.2208 8.755552163670199 10.84490521098875 11.144381757956701 0 0 0
115 0 2 2.2208 11.13035066157727 7.694423411971403 11.611592355222653 0 0 0
116 0 1 -1.1104 9.962693016833537 18.203314296793838 12.728788506291455 0 0 0
117 0 2 2.2208 2.796414410915769 16.500083413796684 11.34686320141381 0 0 0
118 0 2 2.2208 5.683888369901539 13.739179259166105 11.042372420601673 0 0 0
119 0 2 2.2208 8.55802451430032 16.725860634923794 11.4408732011639 0 0 0
120 0 2 2.2208 11.619452549821226 14.073689886350488 10.571289121570429 0 0 0
272 0 1 -1.1104 9.803993259915112 9.532420849698957 12.772005898412676 0 0 0
122 0 2 2.2208 2.713448131563565 22.286476147918723 11.10088214001542 0 0 0
123 0 2 2.2208 5.720777097527162 19.682144350297573 11.185505746022965 0 0 0
124 0 2 2.2208 8.394144667839068 22.43504181866768 11.202000263760501 0 0 0
125 0 2 2.2208 11.356531796199251 19.49178584225758 11.127286971474689 0 0 0
171 0 1 -1.1104 3.2286465755164038 14.56442226793467 0.7204698516332925 0 0 0
127 0 1 -1.1104 1.5086265725973276 -1.6818394390612819 3.419681954825102 0 0 0
477 0 1 -1.1104 12.687746314281599 3.5682175246093117 12.934772802974699 0 0 0
191 0 1 -1.1104 4.362912350702754 21.243917269571522 1.0440310944359272 0 0 0
130 0 1 -1.1104 1.244375956745783 1.052310776489122 1.3395445335493865 0 0 0
131 0 1 -1.1104 4.202318639189323 0.6586443674094887 1.1342980007385595 0 0 0
132 0 1 -1.1104 1.554240103571305 0.9045409457364272 4.066897073870548 0 0 0
133 0 1 -1.1104 4.454710069631039 1.0525408295883247 4.102479460320069 0 0 0
225 0 1 -1.1104 9.995554894010327 -2.2675240574172597 7.14375731801566 0 0 0
135 0 1 -1.1104 10.005733471992759 0.6955093442300745 1.3359526737140717 0 0 0
9227 0 1 -1.1104 1.0402119463467734 16.73443257709241 4.211507340832797 1 0 0
36 0 2 2.2208 8.838135874650881 17.18046910741491 -0.04305755463189644 0 0 0
138 0 1 -1.1104 7.220526369754066 0.4216845706607978 1.760241740693664 0 0 0
139 0 1 -1.1104 9.871241041519307 3.7324488055225205 1.304488331958043 0 0 0
140 0 1 -1.1104 7.251756422895255 0.9740034123878073 4.303241229897331 0 0 0
141 0 1 -1.1104 10.00850072685191 0.7422412736992487 3.930996920138782 0 0 0
142 0 1 -1.1104 12.902316372867524 -2.1831587345736274 1.4770023992775292 0 0 0
143 0 1 -1.1104 12.870212888232897 -2.10377835435556 4.214372775097491 0 0 0
144 0 1 -1.1104 12.853748546740954 0.6815222912933913 1.1432118673260478 0 0 0
145 0 1 -1.1104 12.801314425724588 0.5977276534310523 3.9506863005558728 0 0 0
146 0 1 -1.1104 1.4280327717326629 3.7813042305970472 1.0776290221152527 0 0 0
147 0 1 -1.1104 4.240745671704631 3.547212745848599 1.543166802724662 0 0 0
148 0 1 -1.1104 1.514497102751045 3.6203825398920246 4.325580048639147 0 0 0
149 0 1 -1.1104 4.016823630787923 3.6352707051679647 4.162559220614644 0 0 0
150 0 1 -1.1104 1.2935000030560693 6.338921507952603 1.0177842996932427 0 0 0
151 0 1 -1.1104 4.272384125561351 6.446290940118296 1.4133363698055095 0 0 0
152 0 1 -1.1104 1.2662692733250074 6.448765363407756 4.0368554547565285 0 0 0
153 0 1 -1.1104 3.993529233082855 6.589817040894815 4.2200174713535885 0 0 0
154 0 1 -1.1104 7.133905940659429 9.132012780899084 1.0633774840940375 0 0 0
155 0 1 -1.1104 9.307517982041626 7.725643692962173 6.009771954261382 0 0 0
156 0 1 -1.1104 6.929467065840613 5.9782653541156066 1.1379223734692325 0 0 0
157 0 1 -1.1104 9.966560161632339 3.434571323663862 4.4260265838511135 0 0 0
158 0 1 -1.1104 11.61866424392984 6.677929392976944 7.00829661740309 0 0 0
159 0 1 -1.1104 9.904866118303602 7.032657372184671 1.3877798088558089 0 0 0
160 0 1 -1.1104 7.100291708899094 3.979145799083342 4.082839433497197 0 0 0
161 0 1 -1.1104 9.869497904983728 9.8600296519698 0.900366947487947 0 0 0
162 0 1 -1.1104 12.566602087151264 3.4356848908225253 1.5482001910004537 0 0 0
163 0 1 -1.1104 12.792647611393685 3.5264323367510744 4.2924658135177705 0 0 0
164 0 1 -1.1104 7.156003009372242 3.1025748568183644 1.3296504576124564 0 0 0
165 0 1 -1.1104 12.706661630561907 6.6210752864036175 3.956455092954708 0 0 0
166 0 1 -1.1104 1.67922710385157 9.004605729848763 1.0091606959710595 0 0 0
167 0 1 -1.1104 4.375947686194752 9.015597418195595 1.3465937239685208 0 0 0
168 0 1 -1.1104 1.235541667006222 9.441758950603683 4.223775338212118 0 0 0
169 0 1 -1.1104 4.21443428168709 9.47540388077921 4.244565643194171 0 0 0
170 0 1 -1.1104 0.9717964921344009 12.033937820975883 0.4865864964812293 0 0 0
14 0 3 -1.1104 7.288570333720162 9.462821405680303 3.8537148461382404 0 0 0
172 0 1 -1.1104 2.76291486189419 11.078917601075203 2.4463202355277645 0 0 0
173 0 1 -1.1104 4.240191309489317 12.24055711257851 4.280656270011734 0 0 0
174 0 1 -1.1104 9.865027058090147 12.460626829767293 1.5570658356011213 0 0 0
175 0 1 -1.1104 12.81257997244721 6.621957695197752 1.187924126549507 0 0 0
176 0 1 -1.1104 6.665012023110962 11.550383393814949 5.929646783744617 0 0 0
177 0 1 -1.1104 9.834589166061198 6.01587078065104 4.096440556574821 0 0 0
178 0 1 -1.1104 4.573674045447863 12.186716802809652 1.0691977473987313 0 0 0
179 0 1 -1.1104 7.366556641571632 11.793770506858573 0.8876363312605189 0 0 0
180 0 1 -1.1104 7.126897222051076 12.742955620735408 3.3180681921145982 0 0 0
181 0 1 -1.1104 9.97535384836202 8.931265379613883 3.3991227610623413 0 0 0
182 0 1 -1.1104 12.92798557368582 9.531349589392327 0.9274896844257726 0 0 0
183 0 1 -1.1104 12.695956275095334 9.328864618229225 3.7604007700201296 0 0 0
184 0 1 -1.1104 12.694081942485372 12.710107356312953 1.276983799741568 0 0 0
187 0 1 -1.1104 4.459907217307696 17.20610753062491 0.9176509988694469 0 0 0
45 0 2 2.2208 8.744198671575964 22.47142178084962 -0.16833833761656838 0 0 0
9866 0 1 -1.1104 1.1681111800291257 20.948880188390195 6.370481227700026 1 0 0
188 0 1 -1.1104 1.0946969309125543 12.455189749332327 4.118455407268388 0 0 0
189 0 1 -1.1104 2.854743737137732 14.868219160870327 4.421257058225276 0 0 0
190 0 1 -1.1104 4.5447084962310145 17.015905498657855 4.332179281086285 0 0 0
8948 0 2 2.2208 0.10406586127611371 16.376536921854807 8.53234103686941 0 0 0
137 0 1 -1.1104 9.802801207385167 -2.2619686256908365 4.043234210282148 0 0 0
193 0 1 -1.1104 4.772812172266691 19.04426489496835 2.7397810369779845 0 0 0
126 0 1 -1.1104 1.0635487416233573 -2.107390128451253 1.136491745391706 0 0 0
195 0 1 -1.1104 10.263840334858585 15.733786908827465 0.8504573758257159 0 0 0
196 0 1 -1.1104 6.937410722328892 15.183033628060757 4.708938391454571 0 0 0
197 0 1 -1.1104 9.796731028982876 14.05683171847099 4.142341584835897 0 0 0
198 0 1 -1.1104 7.440542108148896 18.41276960135897 1.3159331176906877 0 0 0
199 0 1 -1.1104 10.301947063128617 18.409301557540527 1.3873196643485912 0 0 0
200 0 1 -1.1104 8.663234480520115 16.624549962198667 3.251142609299129 0 0 0
201 0 1 -1.1104 10.19945298949373 18.648157102941656 4.1503611549877055 0 0 0
202 0 1 -1.1104 12.885065453171547 15.468497211222331 1.1052333219676356 0 0 0
203 0 1 -1.1104 13.02909995786992 15.238088997293096 3.849558010788994 0 0 0
204 0 1 -1.1104 13.204560045034166 18.468442733092296 0.9157367191634387 0 0 0
205 0 1 -1.1104 12.91984825942275 18.13868316819666 3.961210911235154 0 0 0
362 0 2 2.2208 2.5926373166863645 -0.5303934127489108 0.06236877441764234 0 0 0
207 0 1 -1.1104 0.993181033760363 21.329910962809368 1.0792930286577314 0 0 0
208 0 1 -1.1104 1.380798281619629 21.280886107308486 3.840909665576406 0 0 0
209 0 1 -1.1104 7.184920470271178 18.555936775363495 4.268934470411249 0 0 0
210 0 1 -1.1104 7.017125966337037 21.054449625758945 0.8023001656754106 0 0 0
211 0 1 -1.1104 9.887309517973197 20.958712527184506 1.1665249388819372 0 0 0
212 0 1 -1.1104 7.340402472744501 21.078070293210523 3.761925015645192 0 0 0
213 0 1 -1.1104 10.102872214898353 21.40659560013881 4.070740864428564 0 0 0
214 0 1 -1.1104 12.648960447109664 21.51037777569096 0.6271878173495197 0 0 0
215 0 1 -1.1104 12.924179372572427 21.044064231533806 4.061522472606822 0 0 0
22 0 2 2.2208 2.9880085869190767 10.884332070077274 0.08384299232213938 0 0 0
9135 0 1 -1.1104 1.431933973840567 16.78316201097823 1.331632633224527 1 0 0
8962 0 2 2.2208 0.20247402679084214 2.1119554254734147 5.918143871833811 0 0 0
307 0 1 -1.1104 4.341920056038505 -1.9933295222221319 12.566724937767667 0 0 0
194 0 1 -1.1104 7.092072158798461 15.623410752890953 0.9267184858496998 0 0 0
221 0 1 -1.1104 2.8254814422954975 1.4729010022779638 6.589721209506771 0 0 0
8972 0 2 2.2208 0.0784399604840161 11.01543072627814 2.606420252056848 0 0 0
223 0 1 -1.1104 2.297846060941559 1.4143035573163063 10.09827271850756 0 0 0
224 0 1 -1.1104 7.16185092265603 -2.1831264608085093 6.954577303306008 0 0 0
8981 0 2 2.2208 -0.1324235775696333 -0.06663168806560921 2.779571241487404 0 0 0
192 0 1 -1.1104 0.49249634754655086 14.388980895687604 2.3395213970667674 0 0 0
227 0 1 -1.1104 12.827333993364263 -2.1729664608743966 9.655093544228015 0 0 0
228 0 1 -1.1104 4.780599769046084 1.6096247769842478 8.125547637039277 0 0 0
229 0 1 -1.1104 7.279166687399928 0.7598855345132893 7.088141875558257 0 0 0
230 0 1 -1.1104 4.67723140060858 -0.2778534963391238 10.312387245727532 0 0 0
231 0 1 -1.1104 7.227969366238447 1.0053163110450996 9.865389445113898 0 0 0
8947 0 2 2.2208 0.13092868691617712 19.497608242285448 4.8239636240720145 0 0 0
232 0 1 -1.1104 12.758731901000491 -2.082221983944374 7.07533634121156 0 0 0
234 0 1 -1.1104 12.651151384937284 0.8479556319009782 7.023166211508513 0 0 0
129 0 1 -1.1104 4.316474005928388 -2.0906154736283624 4.055748479283902 0 0 0
490 0 1 -1.1104 11.704483618496932 7.926354827316125 13.873701684711572 0 0 0
237 0 1 -1.1104 4.17045883496572 3.965910468814839 7.078114599030825 0 0 0
238 0 1 -1.1104 1.4445054923001233 4.2203014365704234 9.878012965451665 0 0 0
239 0 1 -1.1104 4.403209887073198 4.17013913536648 9.876667380413759 0 0 0
240 0 1 -1.1104 1.2685704811497123 4.168532314394466 6.997117909762748 0 0 0
241 0 1 -1.1104 4.385723520383324 6.923451063472052 7.181126043222973 0 0 0
242 0 1 -1.1104 0.7883656959311618 7.076325070300758 9.4089681693393 0 0 0
243 0 1 -1.1104 3.659853186208672 7.011768587580255 9.782560610619015 0 0 0
244 0 1 -1.1104 7.030262954600896 3.491718096139914 6.904075448439556 0 0 0
245 0 1 -1.1104 9.941404317893852 3.479786715384834 7.146713288546947 0 0 0
246 0 1 -1.1104 7.01459005410846 3.6543257393944364 9.634788439915603 0 0 0
247 0 1 -1.1104 9.836945197527143 0.7367648478173549 9.717790133948023 0 0 0
248 0 1 -1.1104 6.6983773707053675 6.8803751272958715 3.9114926540568598 0 0 0
249 0 1 -1.1104 7.058603920159548 6.4861616935707085 6.934259277900545 0 0 0
250 0 1 -1.1104 6.769413217337405 6.320710533183567 10.22796755271895 0 0 0
251 0 1 -1.1104 9.887203777970507 3.5214377765087788 10.149924633275726 0 0 0
252 0 1 -1.1104 12.8631328843973 4.041998402098409 7.057264589038877 0 0 0
253 0 1 -1.1104 12.79008125257403 3.4312223155722914 9.920078387965424 0 0 0
25 0 2 2.2208 5.715953742671697 7.774299144449413 -0.14484709430968873 0 0 0
220 0 1 -1.1104 0.5863276245032769 -0.4670998383117775 6.006202651970143 0 0 0
256 0 1 -1.1104 1.3490020858879916 7.012860282729493 6.7237150663699765 0 0 0
257 0 1 -1.1104 1.3270263112247214 9.768283705993415 6.993919215696719 0 0 0
258 0 1 -1.1104 1.3087850338000262 12.55733164820734 6.861154038480938 0 0 0
259 0 1 -1.1104 4.559759645723703 9.595973667459242 9.788495088623465 0 0 0
260 0 1 -1.1104 4.189002806369149 12.713566754162475 6.743726228318559 0 0 0
261 0 1 -1.1104 6.538563836672676 13.90843611918326 7.2159191126041 0 0 0
262 0 1 -1.1104 1.2569962345334307 9.660363223640584 9.694605227563818 0 0 0
263 0 1 -1.1104 4.118047206435496 12.335292118725803 9.63395848073158 0 0 0
264 0 1 -1.1104 6.912686612899623 9.319592734910135 7.342859589640774 0 0 0
265 0 1 -1.1104 13.345813362421598 8.371013201309472 6.434876261701131 0 0 0
266 0 1 -1.1104 4.030113139052738 9.738921091263485 6.933171606844871 0 0 0
267 0 1 -1.1104 8.865724951583433 5.520992346364655 8.30284854043202 0 0 0
268 0 1 -1.1104 9.272437322748578 12.181700618433686 7.0039405635825265 0 0 0
269 0 1 -1.1104 11.097294821368907 9.798472444234381 10.280491835578935 0 0 0
270 0 1 -1.1104 7.292346487595673 9.228191907182557 10.253382739597752 0 0 0
271 0 1 -1.1104 10.098748336163375 7.319815341213749 9.714205844374977 0 0 0
355 0 2 2.2208 5.600042900158807 2.2237157106978147 0.06599047488030992 0 0 0
273 0 1 -1.1104 9.48063252063097 9.50455713335678 8.067548426326516 0 0 0
274 0 1 -1.1104 12.861208109097406 12.267251865044896 6.938264193905691 0 0 0
275 0 1 -1.1104 12.75715210362319 12.414491587349417 9.7875461135042 0 0 0
276 0 1 -1.1104 1.5341215321969623 15.277198554309512 7.071848025002728 0 0 0
277 0 1 -1.1104 4.254234468054424 15.565027591932841 7.126964479707652 0 0 0
39 0 3 -1.1104 7.013859599785637 -2.230706544279597 1.4426812688404682 0 0 0
279 0 1 -1.1104 7.144812378621178 12.088402839336869 9.348956703052336 0 0 0
280 0 1 -1.1104 1.3360792535419543 18.24039574734265 7.408472514604769 0 0 0
281 0 1 -1.1104 4.388273960084619 18.351069093923297 7.192690821136829 0 0 0
282 0 1 -1.1104 1.4090126431955332 18.386791373518232 10.02360711795594 0 0 0
283 0 1 -1.1104 4.540524268151677 15.303837382277916 10.1218453974551 0 0 0
284 0 1 -1.1104 9.031548124232316 14.94699303217232 6.725210967505465 0 0 0
285 0 1 -1.1104 10.881860801423496 16.217117672327635 5.275639098055564 0 0 0
286 0 1 -1.1104 9.878280999968924 12.55126362896162 10.037210016769894 0 0 0
287 0 1 -1.1104 10.92481655714905 14.190358503115695 8.138416770049753 0 0 0
288 0 1 -1.1104 7.284730679151341 17.823955200957087 6.980375078932735 0 0 0
289 0 1 -1.1104 10.022245695159286 18.341024550898563 7.239622262946694 0 0 0
290 0 1 -1.1104 7.1893217065064 18.13961860766749 9.945737617001303 0 0 0
291 0 1 -1.1104 10.09899840680399 15.532808282564998 10.015652928694085 0 0 0
292 0 1 -1.1104 13.010679333275968 15.34859079351053 6.783643804966674 0 0 0
293 0 1 -1.1104 13.08632987381221 15.302142984071208 9.619373052352996 0 0 0
294 0 1 -1.1104 12.852795513512937 18.132111386900096 6.935059676113042 0 0 0
295 0 1 -1.1104 12.984591060495879 18.064931576736985 9.601018416585452 0 0 0
296 0 1 -1.1104 2.860698842312396 18.87931779244452 4.579794319889047 0 0 0
297 0 1 -1.1104 3.8528282492755106 21.349627771309546 7.02559476029118 0 0 0
298 0 1 -1.1104 1.346804576908793 21.099275809077643 9.11072559132523 0 0 0
299 0 1 -1.1104 4.331827882153115 18.127987956829042 9.745976686533249 0 0 0
300 0 1 -1.1104 6.843961575297672 20.859049266866943 6.70618228279656 0 0 0
301 0 1 -1.1104 9.321107107146402 20.791494006004147 6.787501251417387 0 0 0
302 0 1 -1.1104 7.064482867068868 20.892889162481932 9.75376941140928 0 0 0
303 0 1 -1.1104 9.869929259007506 18.098448743261418 9.946591518654971 0 0 0
304 0 1 -1.1104 12.771859038013236 21.084080379908773 6.929986006507821 0 0 0
305 0 1 -1.1104 12.661784262387474 20.804299521863843 9.73789783250559 0 0 0
505 0 1 -1.1104 10.049200482989978 21.03520983234206 12.48331884079411 0 0 0
8975 0 2 2.2208 -0.06629415868370493 8.131470264556992 -0.10795613833556594 0 0 0
308 0 1 -1.1104 1.0676494837759638 1.2621060984174886 12.79654952323835 0 0 0
309 0 1 -1.1104 4.563762168850028 1.0535174410654118 12.627943493737625 0 0 0
8957 0 2 2.2208 -0.20352830075701162 11.072940109035828 8.20214987836631 0 0 0
8937 0 2 2.2208 -0.12423881494692113 13.620815620462126 11.189529238316203 0 0 0
312 0 1 -1.1104 7.4276236313749155 0.7800855677565403 12.605606650039446 0 0 0
313 0 1 -1.1104 10.221665383427338 0.9568871056808097 12.950242200786006 0 0 0
314 0 1 -1.1104 12.846305138405942 -1.943984855025753 12.365385570687794 0 0 0
8977 0 2 2.2208 -0.10728637763675519 5.193395773894197 2.570901813762977 0 0 0
316 0 1 -1.1104 1.7491721388742683 3.924701164344808 12.562601263228409 0 0 0
317 0 1 -1.1104 4.341685253650318 3.81770897400146 12.703522501173834 0 0 0
318 0 1 -1.1104 1.3300939502882723 6.597466133139343 12.481418966874664 0 0 0
319 0 1 -1.1104 4.082357698117668 6.647013914859816 12.678490633536281 0 0 0
320 0 1 -1.1104 7.325392587337673 3.710923082213746 12.661109931802722 0 0 0
226 0 1 -1.1104 7.508816066680497 -1.984709969359186 10.054985852969766 0 0 0
322 0 1 -1.1104 9.386666762197347 6.556425400660146 12.440378148783326 0 0 0
323 0 1 -1.1104 13.060109746201025 6.57744032984228 9.252424667370292 0 0 0
356 0 2 2.2208 11.106366783188324 2.133947222787254 0.027626071513415527 0 0 0
325 0 1 -1.1104 11.876484092356579 5.601685024077202 11.475534539722881 0 0 0
326 0 1 -1.1104 1.6139384742977636 9.32196029356084 12.398297383843405 0 0 0
327 0 1 -1.1104 4.277770956339935 9.514282405331901 12.675689008222815 0 0 0
328 0 1 -1.1104 1.38935417543759 12.38236472763414 12.805084434839983 0 0 0
329 0 1 -1.1104 4.552521692372906 12.347129883777864 12.753908252607541 0 0 0
330 0 1 -1.1104 6.75221464396537 6.933446198485698 12.82183482780071 0 0 0
331 0 1 -1.1104 7.286830472167802 9.7982583866357 12.876620310940362 0 0 0
332 0 1 -1.1104 7.203129892705436 12.420919643520905 12.350348608643996 0 0 0
333 0 1 -1.1104 11.263253379826823 10.18659149297858 6.2831351672567095 0 0 0
8452 0 1 -1.1104 10.035431597110161 -1.9948184182717676 1.1913987770264955 0 1 0
186 0 1 -1.1104 0.8897893754895344 18.929551315615736 2.7825157809039025 0 0 0
236 0 1 -1.1104 1.368640198234455 -0.8822062623563411 9.580084019856221 0 0 0
683 0 2 2.2208 8.422796071219588 4.8069420387403445 -0.044162329199734 0 0 0
206 0 1 -1.1104 2.650416548401586 19.144726604647847 0.16159073941887742 0 0 0
42 0 2 2.2208 2.6435699056286444 22.698297743515884 -0.010228526336932602 0 0 0
35 0 2 2.2208 5.223136539001247 14.284947849032765 0.01198155777379858 0 0 0
9173 0 1 -1.1104 13.64380208050825 8.347387713787857 11.066213594859468 0 0 0
8941 0 2 2.2208 0.12183627459162814 2.318366045537135 11.116861834588658 0 0 0
216 0 1 -1.1104 2.4241872942288785 -2.125532741197538 6.76470922414469 0 0 0
9646 0 2 2.2208 -0.09594532624600394 19.51306755162759 -0.07673153517942766 0 0 0
687 0 2 2.2208 -0.09154411876171065 2.474155255225737 -0.20758757666110947 0 0 0
12 0 2 2.2208 2.9745417666283203 5.2521570187499 -0.07567415114380553 0 0 0
682 0 2 2.2208 11.355451945725308 7.956732839374623 -0.07642996197643148 0 0 0
8958 0 2 2.2208 -0.13872737096366275 8.257801443087882 5.4424209793640514 0 0 0
8945 0 2 2.2208 -0.0657284817508932 22.632407801724653 8.005052800885064 0 0 0
218 0 1 -1.1104 0.25422035311843444 -2.770790400344497 8.266913800538639 0 0 0
354 0 2 2.2208 8.021647386076646 13.678423445280073 13.906506121584922 0 0 0
347 0 2 2.2208 2.9214796565546255 8.015524086107117 13.922562414272498 0 0 0
345 0 2 2.2208 5.698949143951987 19.646610553995604 -0.22692761164538852 0 0 0
663 0 1 -1.1104 1.0746447048325927 18.50105498184508 26.719866980334626 0 0 0
338 0 4 2.2208 2.518278399453474 10.709784476240676 25.06637989826466 0 0 0
339 0 3 -1.1104 1.2234610305239588 3.921410626401692 26.511881644834734 0 0 -1
614 0 1 -1.1104 12.582149624081083 -2.2924145656438726 26.899119479532345 0 0 0
632 0 1 -1.1104 9.850127710362004 6.2209861187098365 26.790092723188845 0 0 0
674 0 1 -1.1104 13.009732238009839 15.256125613405818 26.760063455983214 0 0 0
523 0 1 -1.1104 12.997407148261026 -1.9654476968002836 18.891307200034294 0 0 0
9617 0 2 2.2208 -0.22207180527760348 5.088253060904945 19.752670291256845 0 0 0
342 0 2 2.2208 2.841371324756048 2.3027867461789553 14.104864434105862 0 0 0
669 0 1 -1.1104 7.174298143760336 18.1568895755364 24.052589674565105 0 0 0
508 0 1 -1.1104 4.056293065020628 -1.9453005065619007 18.405883202913778 0 0 0
348 0 3 -1.1104 9.942291617350365 9.40198357836509 20.938306038802413 0 0 0
336 0 2 2.2208 5.666765361268512 5.128134423403372 14.039300138694303 0 0 0
679 0 1 -1.1104 4.362514679230146 21.068133426248384 26.796487686535 0 0 0
615 0 1 -1.1104 12.599263748706827 -1.8292268634783995 21.3806351960098 0 0 0
606 0 1 -1.1104 9.864460864747288 -1.7205848797595031 23.91552150105491 0 0 0
353 0 3 -1.1104 7.430464809235117 18.05888310314155 26.84910395844336 0 0 -1
600 0 1 -1.1104 4.020874827957317 -2.224618666414586 27.076065414636226 0 0 0
1290 0 1 -1.1104 3.891223073994491 20.6905537431799 23.989271450310515 0 0 0
516 0 1 -1.1104 9.767685076528391 -2.7806586616515734 18.35199355544088 0 0 0
668 0 1 -1.1104 9.939420452584663 15.174143281274583 26.473970625757865 0 0 0
358 0 3 -1.1104 9.848967735091675 3.584116208857128 18.259206683172152 0 0 0
9279 0 2 2.2208 -0.13123157734180058 -0.5027913699324567 19.720198089775934 0 0 0
676 0 1 -1.1104 12.906699850824582 18.142548928379842 26.742619897982387 0 0 0
34 0 3 -1.1104 4.10702986219094 3.7991902604121925 15.5327397611149 0 0 0
500 0 1 -1.1104 12.762967518783586 12.427757324027354 15.546443879426091 0 0 0
363 0 2 2.2208 2.9403203737989054 -0.5453819185413042 16.892826648472813 0 0 0
673 0 1 -1.1104 12.455132971248313 15.159249482752406 23.878159962053736 0 0 0
672 0 1 -1.1104 10.017272317258266 17.904239971880592 26.656988331323113 0 0 0
415 0 3 -1.1104 1.3998569194527075 21.27051613791954 26.25348337526324 0 0 -1
367 0 2 2.2208 8.595877926606123 -0.7489002519601782 17.236562804976256 0 0 0
666 0 1 -1.1104 9.681604923993095 15.285112480005498 23.85922365493641 0 0 0