ITEM: TIMESTEP
30000
ITEM: NUMBER OF ATOMS
18000
ITEM: BOX BOUNDS pp pp pp
-3.5555997093132174e-01 2.7695559970930972e+01
-4.2024154385719106e+00 3.3228241543857104e+02
-3.5453547530086449e-01 2.7694535475300718e+01
ITEM: ATOMS id type q x y z
1 2 2.2208 5.32738 1.24627 5.27558
2 1 -1.1104 1.00825 -2.9677 0.850871
3 1 -1.1104 1.17695 2.77949 1.02899
6 1 -1.1104 0.77374 -2.85836 3.64812
7 1 -1.1104 1.0538 2.84281 3.8291
10 1 -1.1104 0.98981 0.0125758 0.897818
12 2 2.2208 5.28616 -1.39282 2.43155
13 2 2.2208 5.16552 3.99982 2.40766
14 1 -1.1104 1.00804 -0.0721131 3.62553
16 1 -1.1104 3.7682 -2.89668 1.07168
17 1 -1.1104 3.8387 2.61444 0.959145
18 2 2.2208 2.46202 1.2723 2.2992
19 1 -1.1104 3.74147 -2.77787 3.90303
20 1 -1.1104 3.75913 2.82724 3.73175
21 2 2.2208 2.3063 -1.40754 5.13163
22 2 2.2208 2.50531 4.14352 5.1931
23 1 -1.1104 3.8323 -0.0959954 0.86752
24 1 -1.1104 3.78206 0.0416381 3.70556
4 1 -1.1104 6.50352 -2.84703 0.985438
173 1 -1.1104 3.97666 2.77135 6.64652
174 1 -1.1104 3.78841 0.040259 6.47206
15 1 -1.1104 6.62234 -0.00356076 3.74491
5 1 -1.1104 6.47982 2.89075 0.790834
9 1 -1.1104 6.72833 2.87113 3.74781
171 1 -1.1104 6.64984 -0.271115 6.52858
563 2 2.2208 2.33184 4.10656 -0.375666
8 1 -1.1104 6.52963 -2.99378 3.89923
28 2 2.2208 2.22807 -4.24935 2.41408
170 1 -1.1104 1.01426 -0.0375915 6.61087
172 1 -1.1104 3.65102 -2.69491 6.57857
167 1 -1.1104 1.08951 2.67259 6.48365
166 1 -1.1104 0.822166 -2.88336 6.40765
169 1 -1.1104 6.66259 2.57198 6.68739
168 1 -1.1104 6.50469 -2.90941 6.52814
11 1 -1.1104 6.62953 0.0604415 0.933483
31 2 2.2208 10.7123 1.19066 5.23693
32 1 -1.1104 12.1531 -2.82481 1.05027
33 1 -1.1104 12.21 2.74986 1.06967
34 1 -1.1104 12.1687 -2.96446 3.77016
35 1 -1.1104 12.2331 2.69583 3.76565
36 1 -1.1104 12.0608 -0.0892988 1.08292
37 2 2.2208 10.7118 -1.61653 2.3003
39 1 -1.1104 12.0799 -0.258629 3.70846
40 1 -1.1104 9.26741 -2.89622 0.843311
41 1 -1.1104 9.44711 2.70235 1.02009
42 2 2.2208 8.11635 1.4069 2.46976
43 1 -1.1104 9.3226 -2.9652 3.66785
44 1 -1.1104 9.61885 2.75978 3.84549
45 2 2.2208 8.14498 -1.53758 5.14838
46 2 2.2208 8.04174 4.01467 5.29195
47 1 -1.1104 9.32408 -0.173229 1.08645
48 1 -1.1104 9.33486 -0.0677143 3.94748
208 1 -1.1104 9.48497 -2.89452 6.39947
38 2 2.2208 10.7423 4.26514 2.39746
53 2 2.2208 13.5925 -4.30873 2.28004
49 2 2.2208 13.579 1.32079 2.30118
9323 2 2.2208 13.6547 4.06516 5.16027
50 2 2.2208 13.6254 -1.49512 5.12657
207 1 -1.1104 12.1254 -0.233482 6.53331
209 1 -1.1104 9.41276 2.76706 6.90167
206 1 -1.1104 12.212 2.52968 6.64115
205 1 -1.1104 12.2602 -2.91062 6.48806
210 1 -1.1104 9.34378 -0.218912 6.72581
54 2 2.2208 5.2485 6.92829 5.2992
55 2 2.2208 5.11567 12.5323 5.1867
56 1 -1.1104 0.835278 8.2872 0.781073
58 1 -1.1104 1.06569 8.38475 3.70397
60 1 -1.1104 0.963965 5.5215 0.970335
61 1 -1.1104 0.948066 11.1744 0.946118
66 2 2.2208 5.10276 9.84915 2.30039
67 1 -1.1104 1.13479 5.58132 3.67172
68 1 -1.1104 0.963068 11.0838 3.78206
71 1 -1.1104 3.62968 8.40991 0.902745
72 2 2.2208 2.4946 6.9667 2.33199
73 2 2.2208 2.33227 12.4831 2.43498
74 1 -1.1104 3.82106 8.28892 3.74853
75 2 2.2208 2.35279 9.80125 5.18187
76 1 -1.1104 3.81012 5.52549 1.02013
77 1 -1.1104 3.69799 11.0271 0.981397
79 1 -1.1104 3.99167 5.56429 3.90937
80 1 -1.1104 3.77642 11.0639 3.82987
59 1 -1.1104 6.65119 8.45541 3.84732
57 1 -1.1104 6.45312 8.31201 0.947318
63 1 -1.1104 6.50548 5.6872 0.911818
236 1 -1.1104 1.02589 5.50557 6.55896
64 1 -1.1104 6.54693 11.1731 0.822133
69 1 -1.1104 6.61174 5.66166 3.96939
70 1 -1.1104 6.70193 11.234 3.70155
627 2 2.2208 2.20119 9.74916 -0.609156
628 2 2.2208 5.14272 12.5428 -0.378493
238 1 -1.1104 3.86337 8.41506 6.68969
239 1 -1.1104 3.81475 5.63024 6.6198
237 1 -1.1104 6.63484 5.4168 6.61564
626 2 2.2208 5.03569 6.98503 -0.425975
84 2 2.2208 10.7098 7.03727 5.29157
85 2 2.2208 10.7599 12.5363 5.15349
86 1 -1.1104 12.1677 8.38094 0.937785
87 1 -1.1104 12.1652 8.35721 3.80166
88 1 -1.1104 12.0522 5.55254 1.02537
89 1 -1.1104 12.2002 11.2313 0.856296
91 2 2.2208 10.7596 9.74854 2.33039
92 1 -1.1104 12.1936 5.60562 3.93717
93 1 -1.1104 12.0779 11.0728 3.9539
94 1 -1.1104 9.45641 8.3149 1.12326
95 2 2.2208 7.9108 6.97527 2.43725
96 2 2.2208 8.00626 12.5476 2.3603
97 1 -1.1104 9.55359 8.35121 3.868
98 2 2.2208 7.94772 9.73724 5.081
99 1 -1.1104 9.24872 5.53302 0.991618
100 1 -1.1104 9.51218 11.097 0.9866
102 1 -1.1104 9.42323 5.54359 3.73556
103 1 -1.1104 9.43173 11.2338 3.84087
267 1 -1.1104 9.41114 8.31721 6.65693
269 1 -1.1104 9.26737 5.50904 6.60799
9352 2 2.2208 13.58 9.74847 5.12436
104 2 2.2208 13.5154 12.6049 2.40756
105 2 2.2208 13.5865 7.00065 2.55354
652 2 2.2208 7.98492 9.7317 -0.321531
653 2 2.2208 10.8118 12.65 -0.483341
90 1 -1.1104 12.1703 11.1781 6.62027
265 1 -1.1104 12.1856 8.29644 6.48301
106 2 2.2208 5.1932 18.248 5.24686
107 1 -1.1104 0.900353 13.9292 1.02427
109 1 -1.1104 0.788035 19.5473 1.01278
113 1 -1.1104 1.07467 13.9944 3.7847
114 1 -1.1104 1.0418 19.5654 3.86921
116 1 -1.1104 1.07594 16.7255 0.951131
119 2 2.2208 5.09245 15.2675 2.45583
120 2 2.2208 5.24516 21.1003 2.32489
121 1 -1.1104 1.0096 16.7784 3.52101
123 1 -1.1104 3.73569 13.9244 1.07386
125 1 -1.1104 3.57752 19.6003 1.08802
127 2 2.2208 2.31587 18.2303 2.39323
128 1 -1.1104 3.70292 13.9252 3.80153
129 1 -1.1104 3.74171 19.7369 3.81957
130 2 2.2208 2.48995 15.4691 5.12382
131 2 2.2208 2.38545 21.0217 5.33197
132 1 -1.1104 3.94717 16.6697 0.899786
134 1 -1.1104 3.73706 16.9001 3.70655
108 1 -1.1104 1.05436 14.0474 6.57649
139 1 -1.1104 6.67449 19.6378 3.87721
115 1 -1.1104 6.53542 13.9945 3.68777
138 1 -1.1104 6.50628 19.5059 1.18058
110 1 -1.1104 6.41243 14.0403 1.1452
140 1 -1.1104 6.67774 16.8105 0.978105
133 1 -1.1104 3.87456 16.832 6.58996
124 1 -1.1104 3.70367 14.0245 6.59732
126 1 -1.1104 3.74989 19.5674 6.68176
122 1 -1.1104 6.47375 16.8055 3.90902
681 2 2.2208 5.04833 18.1934 -0.304938
682 2 2.2208 2.46198 15.3662 -0.322849
680 2 2.2208 2.25812 20.937 -0.391949
165 2 2.2208 13.6184 18.1257 2.35274
9421 2 2.2208 13.4959 15.2904 5.2369
141 2 2.2208 10.7925 18.3071 5.21997
142 1 -1.1104 12.1034 14.0736 0.968826
144 1 -1.1104 12.1849 19.5879 1.00998
146 1 -1.1104 12.2297 13.8637 3.79969
147 1 -1.1104 12.2656 19.7438 4.01364
148 1 -1.1104 12.1866 16.8026 0.996415
150 2 2.2208 10.7841 15.4502 2.44169
151 2 2.2208 10.7566 20.8483 2.44197
152 1 -1.1104 12.052 16.936 3.82834
153 1 -1.1104 9.25759 13.8709 1.12787
155 1 -1.1104 9.35086 19.673 0.925902
157 2 2.2208 7.8912 18.0881 2.34511
158 1 -1.1104 9.5334 13.9752 3.87515
159 1 -1.1104 9.38251 19.4249 3.76406
160 2 2.2208 7.99073 15.261 5.15394
161 2 2.2208 7.95913 21.0059 5.23957
162 1 -1.1104 9.36459 16.7041 1.03707
164 1 -1.1104 9.25181 16.6742 3.85634
154 1 -1.1104 9.22002 13.9743 6.67502
707 2 2.2208 10.7102 18.198 -0.479081
149 1 -1.1104 12.2017 16.7053 6.58867
708 2 2.2208 7.93347 15.3698 -0.362351
710 2 2.2208 13.5748 21.0408 -0.318501
706 2 2.2208 7.95217 20.9673 -0.36376
202 2 2.2208 2.37215 -4.21496 7.91102
203 2 2.2208 5.16732 -4.23852 10.6999
175 2 2.2208 5.03799 1.34877 10.6851
176 1 -1.1104 0.962452 -2.78369 12.1273
177 1 -1.1104 1.00175 2.89472 12.165
180 1 -1.1104 0.969868 -2.92947 9.3451
181 1 -1.1104 0.980417 2.70404 9.45739
184 1 -1.1104 0.761383 -0.0326452 12.1791
186 2 2.2208 5.11804 -1.32191 7.92372
187 2 2.2208 5.242 4.12768 8.10419
188 1 -1.1104 0.988248 -0.13772 9.30563
190 1 -1.1104 3.82088 -2.77818 12.0867
191 1 -1.1104 3.76214 2.75852 12.2436
192 2 2.2208 2.35917 1.43095 7.96337
193 1 -1.1104 3.75715 -2.8596 9.33278
194 1 -1.1104 3.82808 2.70178 9.31852
195 2 2.2208 2.38127 -1.46162 10.7032
196 2 2.2208 2.28774 4.06012 10.7216
197 1 -1.1104 3.54557 0.0571803 12.1207
198 1 -1.1104 3.70702 -0.0638803 9.30298
376 2 2.2208 5.05135 4.08872 13.5883
189 1 -1.1104 6.49753 0.0358911 9.32729
179 1 -1.1104 6.48222 2.70411 12.2796
178 1 -1.1104 6.45383 -2.94339 12.1117
182 1 -1.1104 6.65221 -2.66753 9.27787
185 1 -1.1104 6.4435 -0.0818997 12.0769
183 1 -1.1104 6.63807 2.73042 9.45161
375 2 2.2208 2.33035 1.3761 13.6124
374 2 2.2208 5.18807 -1.54114 13.5087
231 2 2.2208 7.94261 -4.18543 7.84702
211 2 2.2208 10.7439 1.31343 10.8132
212 1 -1.1104 12.1874 -2.64666 12.1372
213 1 -1.1104 12.2009 2.92224 12.2699
214 1 -1.1104 12.2178 -3.01813 9.24831
215 1 -1.1104 12.1741 2.64699 9.47387
216 1 -1.1104 12.1656 0.08905 12.2137
217 2 2.2208 10.7289 -1.53829 8.01161
218 2 2.2208 10.8277 4.09988 8.11328
219 1 -1.1104 12.2011 -0.237785 9.48386
220 1 -1.1104 9.21803 -2.70326 12.1123
221 1 -1.1104 9.26721 2.73854 12.3405
222 2 2.2208 8.06479 1.26412 8.0559
223 1 -1.1104 9.3586 -2.87328 9.21872
224 1 -1.1104 9.4294 2.67527 9.58224
225 2 2.2208 7.85 -1.35689 10.6864
226 2 2.2208 7.89013 4.10374 10.7928
227 1 -1.1104 9.24372 0.0667877 12.1581
228 1 -1.1104 9.38941 -0.123168 9.32384
230 2 2.2208 13.6204 -1.46171 10.8213
229 2 2.2208 13.612 1.35447 8.01515
9458 2 2.2208 13.5265 4.19057 10.7446
233 2 2.2208 13.548 -4.34952 7.82123
406 2 2.2208 13.5229 -4.16297 13.4842
404 2 2.2208 7.95737 -4.30341 13.516
408 2 2.2208 10.7192 -1.34651 13.5807
409 2 2.2208 10.8173 4.12252 13.5916
407 2 2.2208 7.88611 1.35672 13.6942
9652 2 2.2208 13.6734 1.36799 13.5317
62 1 -1.1104 0.901339 11.2988 6.70008
78 1 -1.1104 3.68061 11.2521 6.60355
235 1 -1.1104 6.55188 8.38527 6.61629
234 1 -1.1104 1.18277 8.31382 6.47008
240 2 2.2208 5.11755 6.94677 10.8105
241 2 2.2208 5.26895 12.415 10.6373
242 1 -1.1104 0.831136 8.38185 12.0637
244 1 -1.1104 0.895944 8.4247 9.30975
246 1 -1.1104 0.755992 5.57239 12.0859
247 1 -1.1104 1.03421 11.2636 12.1068
250 2 2.2208 5.28881 9.77415 8.08502
251 1 -1.1104 1.04922 5.52915 9.20054
252 1 -1.1104 0.93459 11.3331 9.42376
255 1 -1.1104 3.70558 8.27809 12.1215
256 2 2.2208 2.36376 7.02473 7.87454
257 2 2.2208 2.28651 12.5864 8.01952
258 1 -1.1104 3.73285 8.35478 9.17465
259 2 2.2208 2.28897 9.83957 10.7182
260 1 -1.1104 3.61047 5.36891 12.1012
261 1 -1.1104 3.78032 11.1582 11.9985
262 1 -1.1104 3.67624 5.55213 9.37444
263 1 -1.1104 3.8987 11.1366 9.38212
254 1 -1.1104 6.75088 11.2079 9.27687
248 1 -1.1104 6.40889 5.46143 12.2178
243 1 -1.1104 6.46178 8.33386 12.2814
253 1 -1.1104 6.53231 5.6813 9.40066
245 1 -1.1104 6.43839 8.30644 9.5465
249 1 -1.1104 6.67651 11.124 12.1261
444 2 2.2208 5.24352 9.76953 13.5328
65 1 -1.1104 6.46375 11.2757 6.51163
443 2 2.2208 2.33137 6.93794 13.4502
101 1 -1.1104 9.27648 11.2574 6.60202
266 1 -1.1104 12.3113 5.47593 6.6852
9539 2 2.2208 13.5916 9.85271 10.8369
9535 2 2.2208 13.5003 12.4871 8.07106
9534 2 2.2208 13.5509 7.05206 7.93033
264 1 -1.1104 9.51568 10.9907 9.51317
268 1 -1.1104 9.39476 5.55044 9.42467
270 1 -1.1104 9.54392 11.2923 12.3174
271 1 -1.1104 9.34604 5.6995 12.1403
272 2 2.2208 8.05764 9.82677 10.9072
273 1 -1.1104 9.316 8.32777 9.44469
274 2 2.2208 7.99085 12.6232 7.88075
275 2 2.2208 7.97779 6.95074 7.99656
276 2 2.2208 10.734 7.01381 10.8283
277 2 2.2208 10.7956 12.6383 10.8755
278 1 -1.1104 12.2834 8.33336 12.2022
279 1 -1.1104 12.2535 8.27557 9.3304
280 1 -1.1104 12.1231 5.65892 12.1776
281 1 -1.1104 12.3092 11.1206 12.1887
282 2 2.2208 10.7618 9.69844 7.98594
283 1 -1.1104 12.1979 5.46463 9.41165
284 1 -1.1104 12.0928 11.0926 9.45136
285 1 -1.1104 9.33374 8.44805 12.1627
472 2 2.2208 8.11492 12.6392 13.5684
471 2 2.2208 10.7525 9.77192 13.5954
9721 2 2.2208 13.5458 7.00127 13.5313
470 2 2.2208 8.07814 6.94415 13.6449
288 1 -1.1104 6.62613 19.5761 9.52966
112 1 -1.1104 6.50389 19.4453 6.83306
111 1 -1.1104 6.51674 13.9799 6.4847
302 1 -1.1104 1.01026 19.6228 6.43018
117 1 -1.1104 0.983209 16.8301 6.49621
290 1 -1.1104 6.57127 13.9027 9.22339
289 1 -1.1104 6.65291 16.6659 9.37107
286 1 -1.1104 3.81577 19.7074 12.1651
287 1 -1.1104 3.84401 13.9573 12.1917
291 1 -1.1104 1.04356 19.6644 9.23246
292 1 -1.1104 1.09246 16.7745 9.35298
293 2 2.2208 5.17141 21.1902 8.094
294 1 -1.1104 0.995584 14.1699 9.36144
295 2 2.2208 5.13446 15.3503 7.90623
298 1 -1.1104 1.02806 19.4671 12.0511
299 1 -1.1104 1.04058 13.9506 12.3021
300 2 2.2208 5.09059 18.1931 10.792
301 1 -1.1104 3.76139 19.7027 9.36554
303 2 2.2208 2.51822 18.2171 7.96612
304 1 -1.1104 3.87241 16.8211 9.40055
305 1 -1.1104 3.75379 13.9155 9.46592
307 1 -1.1104 0.90885 16.6779 12.1603
308 1 -1.1104 3.78194 16.7735 12.1406
309 2 2.2208 2.43034 20.949 10.878
310 2 2.2208 2.47995 15.3643 10.7917
297 1 -1.1104 6.58758 13.9395 12.1714
296 1 -1.1104 6.5752 19.4442 12.1407
306 1 -1.1104 6.69641 16.7376 12.2138
332 2 2.2208 13.5051 18.112 8.19765
319 1 -1.1104 9.33394 13.8787 9.43935
328 1 -1.1104 12.1648 13.9368 9.50656
9585 2 2.2208 13.6237 21.0109 10.8673
320 2 2.2208 8.12574 18.1013 8.11203
318 1 -1.1104 9.44154 19.5561 9.4063
118 1 -1.1104 6.59528 16.7229 6.50946
145 1 -1.1104 12.2552 19.6517 6.79811
317 2 2.2208 7.9431 15.2336 10.741
163 1 -1.1104 9.33473 16.9295 6.64437
143 1 -1.1104 12.028 14.0805 6.60605
156 1 -1.1104 9.43264 19.7752 6.52836
323 1 -1.1104 12.181 16.7976 9.52323
329 1 -1.1104 12.2061 19.5519 12.2091
321 1 -1.1104 9.36476 19.526 12.3526
315 1 -1.1104 9.25263 16.829 12.2718
325 2 2.2208 10.8407 15.4337 8.04976
326 1 -1.1104 12.2306 16.7249 12.3344
331 2 2.2208 10.7342 18.1858 10.9446
316 2 2.2208 7.94901 20.9994 10.8398
324 2 2.2208 10.8274 20.9672 8.0608
330 1 -1.1104 12.2591 13.9013 12.2943
314 1 -1.1104 9.4875 16.6728 9.46916
322 1 -1.1104 9.46627 14.0283 12.1751
333 2 2.2208 13.6645 15.3153 10.922
327 1 -1.1104 12.113 19.4846 9.53196
534 2 2.2208 10.712 15.4634 13.6972
334 2 2.2208 5.13692 1.37245 16.3221
335 1 -1.1104 0.948928 -2.73465 17.8778
336 1 -1.1104 0.876645 2.99284 17.5668
339 1 -1.1104 0.89029 -2.83527 14.969
341 1 -1.1104 0.739837 2.79149 14.8652
347 1 -1.1104 0.88967 0.0259654 17.593
349 2 2.2208 5.13716 -1.49878 19.1958
350 2 2.2208 5.25905 4.11713 19.1937
351 1 -1.1104 1.10482 0.0415949 14.8803
355 1 -1.1104 3.76567 -2.81606 17.7884
356 1 -1.1104 3.80063 3.0729 17.7323
357 2 2.2208 2.36729 1.50567 19.0235
358 1 -1.1104 3.84169 -2.81139 14.8827
360 1 -1.1104 3.54695 2.65345 15.0011
362 2 2.2208 2.24187 -1.40112 16.3947
363 2 2.2208 2.16195 4.45363 16.3642
364 1 -1.1104 3.62929 0.0579243 17.8057
365 1 -1.1104 3.83255 -0.16248 14.8566
9691 2 2.2208 -0.452722 4.2761 19.13
352 1 -1.1104 1.04846 0.0414479 20.3869
338 1 -1.1104 6.65642 2.69021 17.6526
353 1 -1.1104 6.61008 -0.118992 14.9491
345 1 -1.1104 6.41642 2.81092 15.0311
337 1 -1.1104 6.72277 -2.85342 17.779
369 2 2.2208 2.27943 -4.18877 19.1088
368 2 2.2208 5.17747 -4.29705 16.3993
366 1 -1.1104 3.8566 -0.10994 20.5702
342 1 -1.1104 0.952685 2.97749 20.3874
359 1 -1.1104 3.85428 -2.81327 20.5396
361 1 -1.1104 3.64032 2.81822 20.5713
340 1 -1.1104 0.856935 -2.74302 20.7677
344 1 -1.1104 6.59621 -2.8452 20.5656
346 1 -1.1104 6.48215 2.76488 20.5525
354 1 -1.1104 6.52594 0.0407923 20.5399
343 1 -1.1104 6.65285 -2.78526 15.0112
348 1 -1.1104 6.54819 0.0186562 17.7605
401 2 2.2208 13.5452 -4.15649 19.0336
9648 2 2.2208 13.5683 4.26603 16.4505
377 2 2.2208 10.9014 1.41618 16.4169
378 1 -1.1104 12.1443 -2.75726 17.7896
379 1 -1.1104 12.1876 3.0071 17.9414
380 1 -1.1104 11.9885 -2.79294 15.1225
382 1 -1.1104 12.1645 2.82492 15.0573
384 1 -1.1104 12.25 -0.0316537 17.8204
385 2 2.2208 10.8202 -1.36243 19.3174
386 2 2.2208 10.6531 4.26249 19.1717
387 1 -1.1104 12.111 -0.0275835 15.0077
389 1 -1.1104 9.27699 -2.69319 17.9452
390 1 -1.1104 9.39018 2.78518 17.9198
391 2 2.2208 8.01568 1.36381 19.2315
392 1 -1.1104 9.30365 -2.81801 14.7753
394 1 -1.1104 9.36772 2.78262 15.0136
396 2 2.2208 8.01248 -1.32254 16.4183
397 2 2.2208 7.85199 4.23588 16.3446
398 1 -1.1104 9.63624 0.0498107 17.8073
399 1 -1.1104 9.28809 0.0899967 14.9826
9654 2 2.2208 13.5409 1.52006 19.2644
405 2 2.2208 13.54 -1.28394 16.3309
381 1 -1.1104 12.1374 -2.80008 20.5471
395 1 -1.1104 9.17974 2.94955 20.6753
393 1 -1.1104 9.225 -2.70083 20.7205
400 1 -1.1104 9.44503 0.0125191 20.6214
410 2 2.2208 5.10002 6.93328 16.3692
411 2 2.2208 5.17353 12.7425 16.3818
412 1 -1.1104 1.07539 8.42596 17.7133
414 1 -1.1104 1.00004 8.64944 14.9456
418 1 -1.1104 0.97517 5.72524 17.7209
419 1 -1.1104 1.1108 11.2172 17.7586
422 2 2.2208 5.26086 9.83947 19.0997
423 1 -1.1104 0.956062 5.79597 14.8818
425 1 -1.1104 1.0334 11.2541 14.8494
431 1 -1.1104 3.79974 8.37911 17.7442
432 2 2.2208 2.33214 7.03366 19.2889
433 2 2.2208 2.44526 12.5237 19.1728
434 1 -1.1104 3.78413 8.18328 14.9744
436 2 2.2208 2.42595 9.83624 16.3342
437 1 -1.1104 3.7578 5.73151 17.8049
438 1 -1.1104 3.82252 11.1278 17.7246
439 1 -1.1104 3.62359 5.50367 14.9072
441 1 -1.1104 3.94419 11.2038 14.953
416 1 -1.1104 6.51472 8.45135 14.9582
429 1 -1.1104 6.54827 11.2447 14.8782
427 1 -1.1104 6.62677 5.65869 14.893
421 1 -1.1104 6.7292 11.2264 17.8021
420 1 -1.1104 6.47894 5.58054 17.7695
426 1 -1.1104 0.975196 11.2536 20.487
417 1 -1.1104 6.56166 8.3218 20.4576
440 1 -1.1104 3.71091 5.55335 20.7841
415 1 -1.1104 0.91799 8.55367 20.6394
424 1 -1.1104 0.886433 5.64465 20.6135
428 1 -1.1104 6.65671 5.57514 20.57
445 2 2.2208 2.50799 12.6076 13.6214
9723 2 2.2208 13.5973 7.08598 19.2174
413 1 -1.1104 6.74469 8.42306 17.5793
446 2 2.2208 10.8729 7.06398 16.4864
447 2 2.2208 10.8438 12.6491 16.2805
448 1 -1.1104 12.3195 8.63915 17.7705
449 1 -1.1104 12.2621 8.43358 14.9183
451 1 -1.1104 12.2452 5.80349 17.7782
452 1 -1.1104 12.2261 11.3464 17.8445
453 2 2.2208 10.8075 9.96761 19.32
454 1 -1.1104 12.1827 5.50545 15.0481
456 1 -1.1104 12.265 11.2135 15.0738
458 1 -1.1104 9.51707 8.50101 17.8325
459 2 2.2208 7.90158 7.01687 19.1653
460 2 2.2208 8.04441 12.7658 19.3119
461 1 -1.1104 9.3755 8.39244 15.0645
463 2 2.2208 8.0894 9.86175 16.3793
464 1 -1.1104 9.52876 5.61163 17.7152
465 1 -1.1104 9.53799 11.3464 17.6803
466 1 -1.1104 9.44273 5.5831 14.9849
468 1 -1.1104 9.53198 11.1629 14.9194
455 1 -1.1104 12.1338 5.45687 20.6071
9726 2 2.2208 13.6411 12.5707 13.7015
457 1 -1.1104 12.1877 11.2128 20.7312
9722 2 2.2208 13.7845 9.80648 16.3231
9724 2 2.2208 13.6462 12.6004 19.1307
450 1 -1.1104 12.0891 8.44444 20.6189
473 2 2.2208 5.14818 18.2684 16.5196
474 1 -1.1104 1.05297 13.8964 17.8435
475 1 -1.1104 0.916033 19.4739 17.788
478 1 -1.1104 0.984497 14.0616 15.073
480 1 -1.1104 0.946306 19.575 15.0139
486 1 -1.1104 0.843267 16.5622 17.8704
488 2 2.2208 5.25511 15.4547 19.287
489 2 2.2208 5.18521 21.0367 19.2608
490 1 -1.1104 1.08491 16.7539 15.1922
494 1 -1.1104 3.80817 13.8725 17.8212
495 1 -1.1104 3.78201 19.6416 17.8772
496 2 2.2208 2.39103 18.1513 19.1899
497 1 -1.1104 3.82322 14.0089 14.9815
499 1 -1.1104 3.72701 19.5969 15.0325
501 2 2.2208 2.41554 15.2859 16.4679
502 2 2.2208 2.19994 20.9826 16.4649
503 1 -1.1104 3.69243 16.784 17.8147
504 1 -1.1104 3.8978 16.8883 14.899
500 1 -1.1104 3.80324 19.6493 20.8085
487 1 -1.1104 6.54341 16.8206 17.9018
482 1 -1.1104 6.56631 14.1959 15.0532
492 1 -1.1104 6.56362 16.9934 15.2491
484 1 -1.1104 6.52578 19.6756 15.0369
506 2 2.2208 2.34269 18.1353 13.6404
479 1 -1.1104 0.878827 13.9895 20.7353
507 2 2.2208 5.17112 21.0561 13.6594
508 2 2.2208 5.19204 15.4411 13.4978
476 1 -1.1104 6.49309 13.9531 17.9325
477 1 -1.1104 6.70478 19.4781 17.9363
509 2 2.2208 10.7702 18.1107 16.5488
510 1 -1.1104 12.3149 14.133 17.8888
511 1 -1.1104 11.9424 19.6282 17.945
512 1 -1.1104 12.1856 13.9058 14.9778
514 1 -1.1104 12.2193 19.3892 15.0332
516 1 -1.1104 12.2618 16.8237 18.0558
517 2 2.2208 10.7718 15.3292 19.1885
518 2 2.2208 10.6996 21.0574 19.2963
519 1 -1.1104 12.0591 16.7223 15.1705
521 1 -1.1104 9.49891 13.9844 17.7858
522 1 -1.1104 9.36089 19.466 17.9788
523 2 2.2208 7.97225 18.1261 19.3562
524 1 -1.1104 9.34502 13.9752 15.0288
526 1 -1.1104 9.22465 19.495 15.2214
528 2 2.2208 7.88796 15.5156 16.4705
529 2 2.2208 8.05029 20.9379 16.4999
530 1 -1.1104 9.32731 16.8497 18.0067
531 1 -1.1104 9.40186 16.8172 15.0991
9795 2 2.2208 13.5394 20.8357 16.5693
535 2 2.2208 7.89371 18.2346 13.6921
9792 2 2.2208 13.5828 15.4348 16.4206
9794 2 2.2208 13.6627 18.211 19.4179
533 2 2.2208 10.6778 20.9606 13.7361
567 2 2.2208 5.24611 -4.24013 22.0399
537 2 2.2208 5.07194 1.48622 21.9572
538 1 -1.1104 0.815493 -2.83176 23.4722
539 1 -1.1104 0.972577 2.66855 23.2338
542 1 -1.1104 1.0772 -2.825 26.2328
543 1 -1.1104 0.923974 2.71663 26.1293
546 1 -1.1104 1.04148 -0.122638 23.4072
548 2 2.2208 5.26351 -1.43885 24.7427
549 2 2.2208 5.11521 4.26029 24.8571
550 1 -1.1104 1.00787 -0.0206507 26.2103
552 1 -1.1104 3.76836 -2.76331 23.3333
553 1 -1.1104 3.69761 2.8887 23.537
554 2 2.2208 2.4459 1.36133 24.789
555 1 -1.1104 3.84639 -2.76625 26.2213
556 1 -1.1104 3.76787 2.79523 26.2313
557 2 2.2208 2.39265 -1.38165 22.0384
558 2 2.2208 2.30546 4.1157 22.0263
559 1 -1.1104 3.87552 -0.00619535 23.3827
560 1 -1.1104 3.78628 -0.0561877 26.0916
561 2 2.2208 5.20289 1.37166 27.556
551 1 -1.1104 6.61373 -0.19578 26.2018
568 2 2.2208 2.31669 -4.23322 24.7971
545 1 -1.1104 6.56221 2.74495 26.1162
544 1 -1.1104 6.56349 -2.974 26.2229
540 1 -1.1104 6.53732 -2.97688 23.4589
541 1 -1.1104 6.42716 2.88839 23.3645
562 2 2.2208 2.40527 -1.48509 27.6504
547 1 -1.1104 6.5806 0.0460282 23.3077
388 1 -1.1104 12.2335 0.0062124 20.568
599 2 2.2208 13.6335 -1.3435 21.9601
383 1 -1.1104 12.0994 2.75015 20.6175
573 2 2.2208 10.8746 1.45454 22.0931
574 1 -1.1104 12.2702 -2.74045 23.3993
575 1 -1.1104 12.1784 2.86546 23.4429
576 1 -1.1104 12.1171 -2.8936 26.178
577 1 -1.1104 12.0767 2.78933 26.1925
578 1 -1.1104 12.0639 0.0748335 23.5224
579 2 2.2208 10.7449 -1.40164 24.8452
580 2 2.2208 10.7547 4.19716 24.8611
581 1 -1.1104 12.2392 -0.0166053 26.3354
582 1 -1.1104 9.3828 -2.93354 23.4883
583 1 -1.1104 9.30505 2.77797 23.4846
584 2 2.2208 8.03912 1.33409 24.7835
585 1 -1.1104 9.25902 -2.75714 26.1737
586 1 -1.1104 9.33851 2.71896 26.3034
587 2 2.2208 7.95143 -1.322 21.8327
588 2 2.2208 7.92925 4.2667 22.1365
589 1 -1.1104 9.30004 -0.173082 23.3959
590 1 -1.1104 9.4929 -0.117794 26.2737
597 2 2.2208 8.04722 -4.14654 24.8388
601 2 2.2208 13.5185 4.28541 27.7613
9855 2 2.2208 13.5108 4.23988 21.9672
600 2 2.2208 13.616 1.39769 24.7806
591 2 2.2208 10.7348 1.30611 27.7474
593 2 2.2208 7.86574 4.16976 27.5732
592 2 2.2208 7.95796 -1.429 27.6253
595 2 2.2208 10.794 -4.21997 27.6099
598 2 2.2208 13.6304 -1.38729 27.5231
435 1 -1.1104 3.79509 8.50913 20.5379
442 1 -1.1104 3.83011 11.3175 20.5463
430 1 -1.1104 6.59445 11.1826 20.6111
602 2 2.2208 4.9376 7.07434 21.9804
603 2 2.2208 5.13303 12.6496 22.0323
604 1 -1.1104 0.857479 8.58696 23.3791
606 1 -1.1104 0.89538 8.37484 26.1112
608 1 -1.1104 1.09881 5.50073 23.4313
609 1 -1.1104 0.927423 11.3335 23.3294
612 2 2.2208 5.09067 9.80328 24.75
613 1 -1.1104 0.874446 5.68231 26.2003
614 1 -1.1104 0.967897 11.1293 26.0692
617 1 -1.1104 3.61534 8.53725 23.4349
618 2 2.2208 2.30939 6.99656 24.8265
619 2 2.2208 2.41906 12.661 24.7879
620 1 -1.1104 3.71836 8.33306 26.1607
621 2 2.2208 2.36531 9.93844 21.9786
622 1 -1.1104 3.75024 5.70905 23.4353
623 1 -1.1104 3.78116 11.2151 23.2122
624 1 -1.1104 3.75938 5.53977 26.2969
625 1 -1.1104 3.68964 11.1887 26.2941
607 1 -1.1104 6.48153 8.49375 26.0846
616 1 -1.1104 6.3242 11.2609 26.1713
611 1 -1.1104 6.62752 11.3133 23.395
615 1 -1.1104 6.50361 5.61906 26.0726
656 2 2.2208 13.5009 7.00537 24.7454
462 1 -1.1104 9.36645 8.60705 20.5651
605 1 -1.1104 6.4081 8.64718 23.4093
610 1 -1.1104 6.43063 5.75941 23.3293
467 1 -1.1104 9.16975 5.82339 20.6345
469 1 -1.1104 9.31108 11.4567 20.6592
633 1 -1.1104 9.29723 11.2013 26.266
634 1 -1.1104 9.45816 5.67671 26.3128
635 1 -1.1104 9.34319 11.0491 23.4425
636 1 -1.1104 9.38449 5.54308 23.6362
637 2 2.2208 7.79768 9.77437 21.9937
638 1 -1.1104 9.35643 8.35016 26.246
639 2 2.2208 7.93357 12.6501 24.9098
640 2 2.2208 7.94784 6.99714 24.8797
641 2 2.2208 10.661 7.03658 22.0887
642 2 2.2208 10.7311 12.5162 22.0944
643 1 -1.1104 12.3078 8.46437 23.3684
644 1 -1.1104 12.0711 8.46801 26.2733
645 1 -1.1104 12.1534 5.64236 23.4606
646 1 -1.1104 12.2623 11.1328 23.5253
647 2 2.2208 10.7942 9.69705 24.726
648 1 -1.1104 12.1579 5.63971 26.2863
649 1 -1.1104 12.2687 11.4046 26.2649
650 1 -1.1104 9.43363 8.30754 23.3067
651 2 2.2208 10.7454 7.05325 27.6564
654 2 2.2208 13.5873 12.5932 24.8696
9914 2 2.2208 13.6429 9.90827 21.9372
655 2 2.2208 13.5098 9.82731 27.6197
683 2 2.2208 -0.336337 15.3481 24.9511
498 1 -1.1104 3.74044 14.1314 20.5938
491 1 -1.1104 1.00609 16.8115 20.6066
493 1 -1.1104 6.61153 16.8615 20.7791
693 1 -1.1104 6.48534 19.5813 26.2463
658 1 -1.1104 6.54078 14.0022 26.2612
675 1 -1.1104 6.49429 16.8327 23.4738
667 1 -1.1104 6.55582 14.0265 23.429
505 1 -1.1104 3.81157 16.9337 20.6989
483 1 -1.1104 6.61449 14.2077 20.7611
485 1 -1.1104 6.65256 19.6424 20.7941
664 1 -1.1104 6.5711 19.6573 23.4715
481 1 -1.1104 0.855316 19.5173 20.7288
660 1 -1.1104 6.55399 16.7493 26.0855
672 2 2.2208 2.45042 18.2452 24.9227
671 1 -1.1104 3.67594 19.4726 26.4598
670 2 2.2208 5.1937 18.2675 22.0859
669 1 -1.1104 1.07199 14.1172 23.5028
668 1 -1.1104 0.877 19.6515 23.435
666 2 2.2208 5.11462 15.4076 24.8669
665 2 2.2208 5.17048 21.0893 24.9238
663 1 -1.1104 1.1299 13.9145 26.3234
679 2 2.2208 2.40561 15.3573 21.995
678 2 2.2208 2.35886 20.9931 22.1981
677 1 -1.1104 3.72706 16.9232 23.5011
676 1 -1.1104 1.04633 16.7204 23.4488
662 1 -1.1104 0.938831 16.6976 26.2462
674 1 -1.1104 3.85651 13.9468 26.3498
661 1 -1.1104 1.00232 19.5589 26.2366
659 1 -1.1104 3.82016 14.065 23.4245
673 1 -1.1104 3.82566 16.7245 26.3122
657 1 -1.1104 3.69041 19.7396 23.6636
694 2 2.2208 7.78836 18.2898 24.878
689 2 2.2208 8.09646 20.9927 22.1564
702 1 -1.1104 12.1919 13.9531 26.1693
705 2 2.2208 10.8946 18.264 22.126
691 1 -1.1104 9.26395 19.5159 26.2961
697 1 -1.1104 12.1724 16.7056 26.2615
687 1 -1.1104 9.32609 16.7686 26.2145
696 1 -1.1104 9.35141 13.8257 23.5638
703 1 -1.1104 12.2294 19.6851 23.5325
513 1 -1.1104 12.3965 13.7859 20.7939
527 1 -1.1104 9.50838 19.7354 20.8492
520 1 -1.1104 12.0517 16.7828 20.6806
698 2 2.2208 10.8474 20.9154 24.9208
515 1 -1.1104 12.3096 19.5427 20.7252
704 1 -1.1104 12.0937 14.0737 23.4387
695 1 -1.1104 9.4121 19.521 23.5408
713 2 2.2208 13.5281 15.3439 22.1073
709 2 2.2208 13.6103 21.163 22.1517
712 2 2.2208 13.5241 18.2348 24.9596
700 1 -1.1104 12.2597 16.8838 23.3762
525 1 -1.1104 9.45589 14.1368 20.6699
692 1 -1.1104 9.31254 14.0513 26.4065
688 1 -1.1104 9.40311 16.6777 23.6059
532 1 -1.1104 9.28373 16.899 20.7133
699 2 2.2208 10.765 15.3908 24.8791
701 1 -1.1104 12.0847 19.5289 26.2849
690 2 2.2208 7.99783 15.4357 22.1799
714 2 2.2208 5.17605 23.9262 5.2726
715 2 2.2208 5.1805 29.4059 5.38907
716 1 -1.1104 0.943371 25.1529 1.22156
717 1 -1.1104 1.00382 25.1981 3.93596
718 1 -1.1104 0.936508 22.2177 1.14415
719 1 -1.1104 1.03712 27.9105 1.16162
720 2 2.2208 5.24708 26.6244 2.60869
721 1 -1.1104 1.1596 22.4642 3.92691
722 1 -1.1104 0.99702 28.0562 3.96064
723 1 -1.1104 3.84163 25.2162 1.20988
724 2 2.2208 2.40409 23.71 2.50644
725 2 2.2208 2.38187 29.538 2.50591
726 1 -1.1104 3.71816 25.4617 3.84904
727 2 2.2208 2.33053 26.6974 5.21703
728 1 -1.1104 3.66173 22.4167 0.996505
729 1 -1.1104 3.82901 28.0734 1.11689
730 1 -1.1104 4.01705 22.4407 3.7418
731 1 -1.1104 3.81778 28.3206 3.93506
739 1 -1.1104 6.59271 22.3919 3.89731
732 2 2.2208 -0.417037 29.4261 5.4326
1245 2 2.2208 5.17915 29.4358 -0.264156
863 1 -1.1104 3.6922 27.8775 6.79741
856 1 -1.1104 6.62551 25.3974 6.6262
738 1 -1.1104 6.5797 28.0929 1.10173
735 1 -1.1104 6.52837 25.1776 1.12805
736 1 -1.1104 6.63405 25.1378 3.91005
861 1 -1.1104 3.76767 25.1345 6.67845
1243 2 2.2208 5.15665 23.7517 -0.292897
1244 2 2.2208 2.34036 26.597 -0.231156
1247 2 2.2208 -0.425451 23.6689 -0.323283
740 1 -1.1104 6.49081 27.9271 3.98579
737 1 -1.1104 6.55385 22.3573 0.906486
859 1 -1.1104 6.46883 22.5126 6.65392
741 2 2.2208 10.856 23.7416 5.28658
742 2 2.2208 10.8864 29.3491 5.19772
743 1 -1.1104 12.2507 25.2431 1.11047
744 1 -1.1104 12.2541 25.2851 3.92797
745 1 -1.1104 12.1284 22.4504 1.08355
746 1 -1.1104 12.1436 27.9579 1.09558
747 2 2.2208 10.7103 26.561 2.51385
748 1 -1.1104 12.2526 22.4356 3.84554
749 1 -1.1104 12.108 27.9752 3.91364
750 1 -1.1104 9.39788 25.1928 1.10747
751 2 2.2208 7.94516 23.7273 2.49322
752 2 2.2208 8.09296 29.3832 2.56698
753 1 -1.1104 9.48769 25.0381 3.87015
754 2 2.2208 7.97306 26.6756 5.34735
755 1 -1.1104 9.24053 22.5278 0.962559
756 1 -1.1104 9.44042 27.9964 1.14281
757 1 -1.1104 9.33684 22.3569 3.6704
758 1 -1.1104 9.43872 27.9921 3.90517
892 1 -1.1104 9.15184 22.4642 6.75153
761 2 2.2208 13.6827 26.5543 5.33535
891 1 -1.1104 9.45733 25.4131 6.72215
893 1 -1.1104 9.34984 28.3502 6.62164
760 2 2.2208 13.5922 29.3701 2.45348
1273 2 2.2208 10.8064 23.7655 -0.259054
1274 2 2.2208 7.91373 26.5799 -0.188565
1279 2 2.2208 10.8297 29.4101 -0.282566
1275 2 2.2208 13.5815 26.4984 -0.338812
762 2 2.2208 5.18197 35.054 5.34485
763 1 -1.1104 0.93192 30.759 1.02492
764 1 -1.1104 1.04726 36.32 1.23872
766 1 -1.1104 1.01185 30.9754 4.02408
767 1 -1.1104 0.899561 36.3903 4.02304
769 1 -1.1104 1.08023 33.5155 0.97008
770 2 2.2208 5.34508 32.1954 2.64419
771 2 2.2208 5.14409 37.9022 2.46269
772 1 -1.1104 0.912295 33.6948 3.87451
774 1 -1.1104 3.89923 31.0345 1.15172
775 1 -1.1104 3.88747 36.5162 1.2481
776 2 2.2208 2.3518 35.0021 2.55013
777 1 -1.1104 3.82884 31.0478 4.03074
778 1 -1.1104 3.72212 36.3783 4.03884
779 2 2.2208 2.47768 32.3268 5.37977
780 2 2.2208 2.3824 37.8096 5.27307
781 1 -1.1104 3.84139 33.6747 1.12385
782 1 -1.1104 3.75928 33.7077 3.98227
787 1 -1.1104 6.62967 30.7865 4.01333
918 1 -1.1104 3.76457 30.8006 6.80804
788 1 -1.1104 6.6782 33.6686 1.299
765 1 -1.1104 6.54135 36.4713 1.06891
786 1 -1.1104 6.53966 30.8728 1.28916
917 1 -1.1104 6.52161 33.5623 6.73487
914 1 -1.1104 6.44832 30.7668 6.75952
1303 2 2.2208 2.40157 32.1836 -0.306365
1302 2 2.2208 2.43734 37.709 -0.228114
1304 2 2.2208 5.1448 34.9087 -0.427735
773 1 -1.1104 6.66217 33.6245 4.02689
768 1 -1.1104 6.58922 36.523 4.07584
789 2 2.2208 10.7422 35.0423 5.2892
790 1 -1.1104 12.0728 30.6605 1.13037
791 1 -1.1104 12.1699 36.311 1.1311
792 1 -1.1104 12.2169 30.8293 3.92653
793 1 -1.1104 12.3224 36.4399 3.97592
794 1 -1.1104 12.313 33.4794 1.05997
795 2 2.2208 10.9098 32.1572 2.54942
796 2 2.2208 10.7754 37.8433 2.6239
797 1 -1.1104 12.2808 33.6407 3.97447
798 1 -1.1104 9.35612 30.8934 1.17666