LAMMPS data file via write_data, version 29 Oct 2020, timestep = 100000

18000 atoms
4 atom types

-0.1173030301969393 28.011303030196764 xlo xhi
-1.3120925718786705 336.04009257187056 ylo yhi
-0.11858240667982756 28.012582406679645 zlo zhi
0.0 0.0 0.0 xy xz yz

Masses

1 15.9994
2 232.0381
3 15.9994
4 232.0381

Atoms # full

9075 0 2 2.2208 13.710880825262453 18.42378551151919 11.194594573508391 0 0 0
2 0 1 -1.1104 6.677573126602584 16.8834063711188 12.713309145688019 0 0 0
8981 0 2 2.2208 13.80872472180787 9.840772516992308 2.6178055730015966 0 0 0
1 0 2 2.2208 13.84281055232154 1.2611268995986826 11.138893759018433 0 0 0
8991 0 2 2.2208 13.875844379818204 15.572393025066932 2.7368363100581004 0 0 0
6 0 1 -1.1104 3.9933091094306805 19.7545792369459 12.614073989302824 0 0 0
7 0 1 -1.1104 1.2600977700172264 19.728049453532012 12.735966835518553 0 0 0
8 0 2 2.2208 5.302498048794266 1.4700159956913585 2.551534889384685 0 0 0
9 0 1 -1.1104 3.846197021795875 16.931264114996292 12.456346286247038 0 0 0
10 0 2 2.2208 10.995176867213734 1.5350456243733603 2.4537760011309757 0 0 0
11 0 1 -1.1104 1.1115946687461087 16.7889132505594 12.598255953217 0 0 0
12 0 1 -1.1104 12.237999377144149 14.117974646754236 12.58173631675985 0 0 0
13 0 2 2.2208 2.646424524379009 4.239653886440335 2.772327977141643 0 0 0
9021 0 2 2.2208 13.889011928431673 4.240543333156045 8.418082286591753 0 0 0
15 0 1 -1.1104 12.291009268068278 11.271769886732201 12.519424140110022 0 0 0
16 0 1 -1.1104 9.481108020545994 14.141858937401691 12.673743221600047 0 0 0
17 0 2 2.2208 8.134691706465723 4.2500965456792725 2.6316696973623523 0 0 0
18 0 2 2.2208 5.407078199146972 6.944546065038217 2.65328760517492 0 0 0
19 0 1 -1.1104 6.810709915016278 14.095125916603747 12.644458603347775 0 0 0
20 0 2 2.2208 11.093436422266146 6.950379365258896 2.6233154210631247 0 0 0
317 0 1 -1.1104 3.9694582934663294 5.642686881832514 12.574610169003272 0 0 0
9065 0 2 2.2208 13.769813141942203 7.01255300938095 11.16630723106588 0 0 0
23 0 2 2.2208 2.489869306590899 9.881515429769529 2.5474052481697673 0 0 0
324 0 2 2.2208 5.216498463918856 1.3572144222674494 13.910301211361233 0 0 0
25 0 1 -1.1104 9.506749095250981 11.17568284945007 12.469384765173531 0 0 0
26 0 1 -1.1104 6.664212982775481 11.261059193710869 12.369415503570957 0 0 0
27 0 2 2.2208 8.04265011342689 9.724835097724874 2.774928079925597 0 0 0
28 0 2 2.2208 5.307510314473499 12.650136319667817 2.699376797173003 0 0 0
29 0 1 -1.1104 3.9588181103120106 14.158861738730113 12.652068315697427 0 0 0
30 0 2 2.2208 11.070156198756726 12.575039027039015 2.6638441433515245 0 0 0
318 0 1 -1.1104 1.2392247633150866 8.418536919241056 12.513322800809014 0 0 0
32 0 1 -1.1104 1.1181353070396844 14.03983742157732 12.502845367321873 0 0 0
33 0 2 2.2208 2.4121596967900434 15.45380416302133 2.6957168993744047 0 0 0
316 0 1 -1.1104 1.0906170255875987 5.551661268511971 12.450600045402586 0 0 0
35 0 1 -1.1104 3.847953050713857 11.301641935261255 12.725017472831913 0 0 0
36 0 1 -1.1104 1.0963787877736313 11.277375739584274 12.48005095174983 0 0 0
37 0 2 2.2208 8.089317719707319 15.108405539701717 2.8261989901740265 0 0 0
38 0 2 2.2208 4.998519425984316 18.351483879517648 2.733337817830871 0 0 0
39 0 1 -1.1104 12.490993443933718 8.463793062080429 12.558206479229773 0 0 0
40 0 2 2.2208 11.427249454819043 18.50148621653963 2.566245913178337 0 0 0
315 0 1 -1.1104 12.453489728939909 2.923500790760781 12.502414618833155 0 0 0
42 0 1 -1.1104 12.460484905573317 5.809800818204511 12.621876733725788 0 0 0
43 0 2 2.2208 2.409970306278291 21.16399964400415 2.6866400753262294 0 0 0
312 0 1 -1.1104 6.745581204464714 2.785145125043421 12.359341277963109 0 0 0
45 0 1 -1.1104 9.666524546933681 8.319269401996845 12.59199810755532 0 0 0
46 0 1 -1.1104 6.853636527438224 8.446570274619962 12.607183606549235 0 0 0
47 0 2 2.2208 8.269760321785055 21.45595701359132 2.765951545487685 0 0 0
48 0 2 2.2208 5.395060817854028 23.938195332167787 2.7430161602781737 0 0 0
49 0 1 -1.1104 9.58365209216109 5.702169833547201 12.569825091963908 0 0 0
50 0 2 2.2208 11.044428292509386 23.990535562502547 2.649430569069265 0 0 0
51 0 1 -1.1104 6.760250720805445 5.71614167800911 12.537746401380147 0 0 0
52 0 2 2.2208 2.5206981775856456 1.3171035040270143 5.446983413857924 0 0 0
53 0 1 -1.1104 7.078267122772367 22.556184878747516 12.63330098294179 0 0 0
9001 0 2 2.2208 13.855311062348763 21.279390295491723 2.648413306409257 0 0 0
55 0 1 -1.1104 3.985556178175631 22.47751632224333 12.653696878648429 0 0 0
56 0 2 2.2208 8.11747482950547 1.4805513909890948 5.279144143863812 0 0 0
57 0 1 -1.1104 1.189243090347655 22.44144586199884 12.606606627335625 0 0 0
58 0 2 2.2208 5.307395521115036 1.4036064740591423 8.355671154456845 0 0 0
59 0 1 -1.1104 12.322681717596067 19.836525207136166 12.669268387132837 0 0 0
60 0 2 2.2208 11.071180515946608 1.4791522296585313 8.219901826618056 0 0 0
308 0 1 -1.1104 1.1636900814696551 2.8064177612186727 12.369445221801712 0 0 0
62 0 2 2.2208 2.514416992716297 7.065871805374048 5.516780580943116 0 0 0
63 0 2 2.2208 2.4186845760737206 4.270475813558876 8.275008545317904 0 0 0
311 0 1 -1.1104 9.697178705037647 0.11218237077999103 12.660143479400194 0 0 0
65 0 2 2.2208 5.263856683135763 4.122697615601005 5.51393810461527 0 0 0
66 0 2 2.2208 8.063043163619701 6.954718537533298 5.517158295780192 0 0 0
67 0 2 2.2208 8.155707259191775 4.173048929036428 8.232663856051234 0 0 0
68 0 2 2.2208 5.295441461615838 7.034812235719308 8.388925900279947 0 0 0
69 0 2 2.2208 11.035057384133635 4.156950082995531 5.433972798197297 0 0 0
70 0 2 2.2208 11.172870814926826 6.599125558166396 8.33079920634431 0 0 0
310 0 1 -1.1104 6.593282344283698 0.16238328931430132 12.574737828187097 0 0 0
72 0 2 2.2208 2.412507774382587 12.583735887213352 5.510461520476852 0 0 0
73 0 2 2.2208 2.416465153843233 9.81716322567202 8.414807696936295 0 0 0
74 0 1 -1.1104 4.054111502984437 8.366416678425988 12.586783405235455 0 0 0
75 0 2 2.2208 5.155780073694994 9.837003091805478 5.3959255212215425 0 0 0
76 0 2 2.2208 8.166142362214789 12.659279583814333 5.676694161920282 0 0 0
77 0 2 2.2208 7.8245071363205465 9.732341373702926 8.342312027350275 0 0 0
78 0 2 2.2208 5.20127352314766 12.626400640320913 8.45842583539049 0 0 0
79 0 2 2.2208 10.878590961458759 9.816757165023464 5.243524769481507 0 0 0
80 0 2 2.2208 10.939079165908655 12.872275125242059 8.22063238766385 0 0 0
81 0 4 2.2208 8.269193614152588 18.337969133831095 2.7664271069340876 0 0 0
82 0 2 2.2208 2.3305301467879973 18.240786121222513 5.523355850774692 0 0 0
83 0 2 2.2208 2.4366117248928516 15.521811108531749 8.258441069334884 0 0 0
309 0 1 -1.1104 3.984670435586421 2.8070344537717613 12.507929279044282 0 0 0
85 0 2 2.2208 5.258339343185849 15.141923601068997 5.705969040075144 0 0 0
86 0 2 2.2208 8.021829571316752 18.216720977076005 5.936063522719021 0 0 0
87 0 2 2.2208 8.02852094523423 15.447593960264841 8.498254835939502 0 0 0
88 0 2 2.2208 5.230515156951569 18.226857390379358 8.458162104630508 0 0 0
89 0 2 2.2208 11.039522334349618 15.542463305575698 5.3891515798424905 0 0 0
90 0 2 2.2208 10.984156517401086 18.221220276017615 8.407841366831258 0 0 0
91 0 1 -1.1104 12.381078866019347 16.93659367967065 12.440706998132795 0 0 0
92 0 2 2.2208 2.444389314356905 23.892529255328032 5.489831836035426 0 0 0
93 0 2 2.2208 2.5286360222186577 21.073643687956032 8.279526145249394 0 0 0
313 0 1 -1.1104 9.49689898441511 2.878300323750512 12.422469443025985 0 0 0
95 0 2 2.2208 5.340795809809725 21.050932859957772 5.538916799248005 0 0 0
96 0 2 2.2208 8.316284013871888 23.782918748795527 5.601431721816752 0 0 0
97 0 2 2.2208 8.235786894526278 20.973431557796825 8.523893282696003 0 0 0
98 0 2 2.2208 5.299488194525618 23.81075063903352 8.274053547199538 0 0 0
99 0 2 2.2208 11.066992274964846 21.104442158269386 5.542935995032861 0 0 0
100 0 2 2.2208 11.159413273878238 24.014257355524006 8.378293898162847 0 0 0
101 0 1 -1.1104 9.479053600336748 19.87714598505852 12.692940968293199 0 0 0
102 0 2 2.2208 2.4547485837067424 1.3036765262981937 11.188447126079376 0 0 0
103 0 1 -1.1104 6.770103658363355 19.69547196538748 12.587864699425385 0 0 0
104 0 2 2.2208 8.059223429413372 1.1843533805979352 11.103123082780623 0 0 0
105 0 1 -1.1104 9.539745403745272 16.9464163526337 12.73574856440341 0 0 0
314 0 1 -1.1104 12.355197749541565 -0.10950562708331212 12.453142284565317 0 0 0
107 0 2 2.2208 2.49331649218343 7.007234601849007 11.231438667327296 0 0 0
108 0 2 2.2208 5.2918284793417 4.140196425527776 10.96029575697472 0 0 0
109 0 2 2.2208 8.198698556317645 6.908303076331324 11.164881111033996 0 0 0
110 0 2 2.2208 10.964399186036653 4.147959498603832 11.242966141944354 0 0 0
111 0 4 2.2208 10.972010935291502 9.728749933426819 8.389803557098785 0 0 0
112 0 2 2.2208 2.4939110186049667 12.705146091448219 11.197324211426663 0 0 0
113 0 2 2.2208 5.3807652762250235 9.822653182201774 11.065940159881515 0 0 0
114 0 2 2.2208 8.128578767855403 12.635596815658193 11.167740867176837 0 0 0
115 0 2 2.2208 10.96758326345908 9.741637418621737 11.471299976789519 0 0 0
116 0 1 -1.1104 12.482302800527611 22.54349908876611 12.514403445222868 0 0 0
117 0 2 2.2208 2.237727004421005 18.344933531199 11.19750125467734 0 0 0
118 0 2 2.2208 5.281914848646887 15.47502025160948 11.053665523662849 0 0 0
119 0 2 2.2208 8.261688253134604 18.322588136725702 11.340405091457585 0 0 0
120 0 2 2.2208 10.88007040468637 15.451174743202303 11.281933018766944 0 0 0
121 0 1 -1.1104 9.765966412216661 22.804876158748097 12.787191599484954 0 0 0
122 0 2 2.2208 2.39419560380849 23.911427953302873 11.113461216356995 0 0 0
123 0 2 2.2208 5.393521303376787 21.119780858306147 11.210339088249146 0 0 0
124 0 2 2.2208 8.10364845068143 24.046670744998476 11.01737651276375 0 0 0
125 0 2 2.2208 10.888627610798153 21.171674804338277 11.158421573561313 0 0 0
126 0 1 -1.1104 0.8576091284842374 -0.019684577743845515 1.1793662736135826 0 0 0
127 0 1 -1.1104 3.768829554102308 -0.04293789369383157 1.2747200298586343 0 0 0
128 0 1 -1.1104 1.1612915720086303 0.04171047065657097 3.7503626646782204 0 0 0
129 0 1 -1.1104 4.06817933611234 -0.18385948623914597 4.099411375287784 0 0 0
130 0 1 -1.1104 1.142036086173895 2.6478466520643353 1.2703056878316037 0 0 0
131 0 1 -1.1104 3.9843141556676587 2.8263377104249123 1.297462170066003 0 0 0
132 0 1 -1.1104 0.9157623972333317 2.7686253413169384 4.141473110708082 0 0 0
133 0 1 -1.1104 3.946822140881833 2.8604509365330806 4.051647435304735 0 0 0
134 0 1 -1.1104 6.625918548583256 0.11519949807332731 1.2401822986543865 0 0 0
135 0 1 -1.1104 9.381686165589905 0.056786649736635476 1.1722080604415233 0 0 0
136 0 1 -1.1104 6.83661251392732 0.04240622160413928 4.0422072633548165 0 0 0
137 0 1 -1.1104 9.575221610414486 0.22205844298743277 3.9701698461515265 0 0 0
138 0 1 -1.1104 6.719618409364817 2.7568431279643253 1.120547053032281 0 0 0
139 0 1 -1.1104 9.407526749597409 3.0165147192875486 1.2363630495991331 0 0 0
140 0 1 -1.1104 6.703204737412278 2.8477702780636456 4.132076432387476 0 0 0
141 0 1 -1.1104 9.67250444480942 3.012863253362622 3.8436446615736 0 0 0
142 0 1 -1.1104 12.529387883706963 -0.030167740457802492 1.3352815743072375 0 0 0
143 0 1 -1.1104 12.333288115632326 0.15554810095639246 4.013743328084486 0 0 0
144 0 1 -1.1104 12.40113244075921 3.014917838713016 1.4303930699232117 0 0 0
145 0 1 -1.1104 12.545402559545392 2.9063210805739566 4.082048746652447 0 0 0
146 0 1 -1.1104 1.1809389735951636 5.543420611594298 1.4189470040057017 0 0 0
147 0 1 -1.1104 3.992299554372608 5.4791264014494825 1.2847216835701396 0 0 0
148 0 1 -1.1104 1.035933730545611 5.555073319852845 4.07652353410878 0 0 0
149 0 1 -1.1104 3.8491095833995748 5.662025988071181 4.140181108363174 0 0 0
150 0 1 -1.1104 1.0880311098318645 8.329068795576099 1.3907193854201259 0 0 0
151 0 1 -1.1104 4.088309205293086 8.181152954556978 1.3484466535763155 0 0 0
152 0 1 -1.1104 1.0912210651043583 8.405517659015201 4.225524431876561 0 0 0
153 0 1 -1.1104 3.9011375013939618 8.405527833232444 4.009957462944313 0 0 0
154 0 1 -1.1104 6.827446326568567 5.680687942277724 1.1672088475765325 0 0 0
155 0 1 -1.1104 9.568376023592537 5.7807661413626805 1.3257215702046312 0 0 0
156 0 1 -1.1104 6.568490796752937 5.566315847587679 4.05836524924468 0 0 0
157 0 1 -1.1104 9.465242337392583 5.614740004002656 4.256846982825295 0 0 0
158 0 1 -1.1104 6.795891439878006 8.592600084043953 1.2388557249498007 0 0 0
159 0 1 -1.1104 9.511022569225576 8.553095925044651 1.4614587678344961 0 0 0
160 0 1 -1.1104 6.641858704811366 8.472339492584327 4.112801334725711 0 0 0
161 0 1 -1.1104 9.517492977030546 8.344339437779118 4.177140576242648 0 0 0
162 0 1 -1.1104 12.452663653992623 5.640442231490472 1.2755311400673217 0 0 0
163 0 1 -1.1104 12.312800010478597 5.716477931892836 4.158932671166869 0 0 0
164 0 1 -1.1104 12.411386040292154 8.411000546499583 1.1926939257374753 0 0 0
165 0 1 -1.1104 12.551848208533976 8.41664967317924 3.99115776718484 0 0 0
166 0 1 -1.1104 1.0119146665938261 11.414159274690833 1.4236854414804727 0 0 0
167 0 1 -1.1104 4.118588888865204 11.372326142921443 1.3883332234994321 0 0 0
168 0 1 -1.1104 1.0199190171704837 11.062847337205437 4.1202768956469225 0 0 0
169 0 1 -1.1104 3.7654871703378676 11.249434536043829 4.229284893460376 0 0 0
170 0 1 -1.1104 1.1924045882722247 14.09925257399062 1.2336079668414852 0 0 0
171 0 1 -1.1104 3.880598815030214 14.180267103152747 1.322565614901211 0 0 0
172 0 1 -1.1104 1.0275664157365731 14.098866523042373 4.166941795656804 0 0 0
173 0 1 -1.1104 3.956952506294009 13.886016163455755 4.222161720951696 0 0 0
174 0 1 -1.1104 6.800992847604536 11.30753262703878 1.4152558601306209 0 0 0
175 0 1 -1.1104 9.613681341667151 11.240396911029833 1.4180347835275084 0 0 0
176 0 1 -1.1104 6.7071390796080435 11.209492506189784 4.2371745703988 0 0 0
177 0 1 -1.1104 9.582913321070416 11.238262556737341 4.202014724029587 0 0 0
178 0 1 -1.1104 6.746977113454604 14.100380925409235 1.2841005899695255 0 0 0
179 0 1 -1.1104 9.433183918497592 14.013116511418533 1.355706728041486 0 0 0
180 0 1 -1.1104 6.700018414117157 14.155336012483657 4.288867431565927 0 0 0
181 0 1 -1.1104 9.688553893920357 14.024061187627874 4.147636127912225 0 0 0
182 0 1 -1.1104 12.333809434233068 11.20602679212823 1.274208492256518 0 0 0
183 0 1 -1.1104 12.352789804281727 11.238169618693266 4.236757829654154 0 0 0
184 0 1 -1.1104 12.313401033348585 14.17430950059574 1.359299671445448 0 0 0
185 0 1 -1.1104 12.26669291985953 14.195579310722664 4.0771650700081485 0 0 0
186 0 1 -1.1104 1.0444045407255687 16.825686235387465 1.1319342123413838 0 0 0
187 0 1 -1.1104 3.789100952936753 16.96046567667805 1.3404584204098038 0 0 0
188 0 1 -1.1104 0.8975989583750832 16.865649338447465 4.0651981675549616 0 0 0
189 0 1 -1.1104 3.8710788799097764 16.66750097417674 4.136545423619272 0 0 0
190 0 1 -1.1104 0.9872810063831956 19.591974313271212 1.3402715674881684 0 0 0
191 0 1 -1.1104 3.8297632055594453 19.726293695627273 1.313536371124726 0 0 0
192 0 1 -1.1104 1.0380896556323678 19.539771169329075 4.02072082166118 0 0 0
193 0 1 -1.1104 3.8220093243143856 19.66096585626189 4.146024172410416 0 0 0
194 0 1 -1.1104 6.802111624057943 17.169839584899982 1.5077419437654844 0 0 0
195 0 1 -1.1104 9.500302727433324 17.09067451402379 1.3488785309559936 0 0 0
196 0 1 -1.1104 7.05359793090926 16.820699645951695 4.214525546407179 0 0 0
197 0 1 -1.1104 9.859293193435672 17.087360604653284 4.106201277221722 0 0 0
198 0 1 -1.1104 6.8970932703892895 19.73827815594971 1.510498403908184 0 0 0
199 0 1 -1.1104 9.672220783589415 19.798228101516468 1.6275636874047286 0 0 0
200 0 1 -1.1104 6.771793874773347 19.40156711701025 4.25382488347012 0 0 0
201 0 1 -1.1104 9.470885811998933 19.900695173550424 4.239380249103448 0 0 0
202 0 1 -1.1104 12.358249942223635 16.848935373199385 1.15743581086944 0 0 0
203 0 1 -1.1104 12.537051443214867 17.033420351108017 4.04645328681822 0 0 0
204 0 1 -1.1104 12.501318973026665 19.805899232174 1.0526070228233269 0 0 0
205 0 1 -1.1104 12.342300134614462 19.856487974373298 4.031386188320312 0 0 0
206 0 1 -1.1104 1.1850001057684767 22.411290734552914 1.4342288449634712 0 0 0
207 0 1 -1.1104 4.035897909321267 22.481384078772265 1.3268870730754734 0 0 0
208 0 1 -1.1104 1.1050987772429794 22.563309041160757 4.192974326635256 0 0 0
209 0 1 -1.1104 3.9225481294036046 22.529476585687064 4.0971609454396125 0 0 0
210 0 1 -1.1104 6.814317293270304 22.54745458870316 1.3446736923237599 0 0 0
211 0 1 -1.1104 9.765114202760088 22.63304490591821 1.3025507402931646 0 0 0
212 0 1 -1.1104 6.873327762576839 22.44200018377345 4.1066586093975 0 0 0
213 0 1 -1.1104 9.689127539647544 22.581851085570477 4.263650645467439 0 0 0
214 0 1 -1.1104 12.352001018487291 22.69819343028642 1.2416533169338613 0 0 0
215 0 1 -1.1104 12.505835617945046 22.601297867605577 4.13749034520537 0 0 0
216 0 1 -1.1104 1.092576359313855 0.13175875181607707 6.889882598056288 0 0 0
217 0 1 -1.1104 3.881265367269108 -0.0431625393827825 6.877266235143976 0 0 0
218 0 1 -1.1104 0.9098479911631401 0.02643700059866484 9.772579002880248 0 0 0
219 0 1 -1.1104 3.834475342811061 0.053125721323898124 9.68595525566585 0 0 0
220 0 1 -1.1104 1.002883682027234 3.0231427882993582 6.996418781439426 0 0 0
221 0 1 -1.1104 3.6718924371546233 2.77140285203674 6.765807191669584 0 0 0
222 0 1 -1.1104 1.1704827232101178 2.8680538608318717 9.621209719972786 0 0 0
223 0 1 -1.1104 3.8778088033533473 2.9865609534176683 9.543219190366466 0 0 0
224 0 1 -1.1104 6.610200539498308 0.04655945171178122 6.7788604122574085 0 0 0
225 0 1 -1.1104 9.58802211379251 0.11353894588368546 6.680708201478948 0 0 0
226 0 1 -1.1104 6.47796949903977 -0.03343798787763914 9.59473927245294 0 0 0
227 0 1 -1.1104 9.574860989775654 0.1023661253008229 9.362498988983432 0 0 0
228 0 1 -1.1104 6.613240082864088 2.8438275495268694 6.893725640430332 0 0 0
229 0 1 -1.1104 9.609063917373671 2.8766158616266857 6.71004027448813 0 0 0
230 0 1 -1.1104 6.758521142967154 2.8371444320410006 9.627826674282085 0 0 0
231 0 1 -1.1104 9.754074573419246 2.940933038188776 9.575999520758286 0 0 0
232 0 1 -1.1104 12.489776488980352 0.02509929947630509 6.732611607096065 0 0 0
233 0 1 -1.1104 12.487129193410617 0.11660404568034202 9.555269931818552 0 0 0
234 0 1 -1.1104 12.3885100460168 2.9877259889553596 6.858958343610202 0 0 0
235 0 1 -1.1104 12.458170812988971 2.8998748379872907 9.784976967532044 0 0 0
236 0 1 -1.1104 1.1687373158971752 5.872681759279219 6.87017072658452 0 0 0
237 0 1 -1.1104 3.9508973082439423 5.585727881432328 6.87698346526009 0 0 0
238 0 1 -1.1104 1.0834346347496104 5.611994044899303 9.798537810758017 0 0 0
239 0 1 -1.1104 3.7978236478520575 5.787728453093212 9.773463957107785 0 0 0
240 0 1 -1.1104 0.8535035414298869 8.567293456207407 6.839279933793766 0 0 0
241 0 1 -1.1104 3.8410927741455976 8.39642587183726 6.852577824039046 0 0 0
242 0 1 -1.1104 1.0982578157970886 8.22455739766522 9.64347689699149 0 0 0
243 0 1 -1.1104 4.006732227091489 8.584360962991848 9.7602254294681 0 0 0
244 0 1 -1.1104 6.794271656676673 5.6575032741610976 6.872759069451602 0 0 0
245 0 1 -1.1104 9.812650813632484 5.67287401793572 6.9615760517691 0 0 0
246 0 1 -1.1104 6.685487731274134 5.588775381114936 9.616833376762134 0 0 0
247 0 1 -1.1104 9.573037359577377 5.663969046245812 9.664797056258216 0 0 0
248 0 1 -1.1104 6.594364783229084 8.351657136789791 7.0442097885884865 0 0 0
249 0 1 -1.1104 9.459422575133647 8.65025328000984 6.98036879852854 0 0 0
250 0 1 -1.1104 6.793319564069199 8.337217793047882 9.778405603722335 0 0 0
251 0 1 -1.1104 9.672086833050237 8.382528538187453 9.69307601513038 0 0 0
252 0 1 -1.1104 12.634226355301283 5.620699863021841 6.954267912863826 0 0 0
253 0 1 -1.1104 12.516395746161717 5.664598866062983 9.831615496755596 0 0 0
254 0 1 -1.1104 12.02763779289243 8.424523646087941 6.834193835807062 0 0 0
255 0 1 -1.1104 12.38866735960288 8.42461440718841 9.615150247262576 0 0 0
256 0 1 -1.1104 1.075996026104011 11.35274383461161 7.011392340024242 0 0 0
257 0 1 -1.1104 3.9027011500261994 11.217192242411153 6.936433884260402 0 0 0
258 0 1 -1.1104 1.067118838977087 11.093865036493021 9.73806198510657 0 0 0
259 0 1 -1.1104 3.833284962259089 11.291742646571324 9.846666391135631 0 0 0
260 0 1 -1.1104 1.0127897640012398 14.167317588301005 6.831455453194624 0 0 0
261 0 1 -1.1104 3.917243492695335 13.897225630873244 7.009991807315962 0 0 0
262 0 1 -1.1104 1.0779436308247634 14.063356964004324 9.648383729351378 0 0 0
263 0 1 -1.1104 4.031194766617945 13.958853362660088 9.77447818164095 0 0 0
264 0 1 -1.1104 6.661164562266498 11.156643007367965 7.063776742223132 0 0 0
265 0 1 -1.1104 9.73134937051813 11.296411665212064 6.906064909586991 0 0 0
266 0 1 -1.1104 6.796432232706384 11.324268418063195 9.643677424512067 0 0 0
267 0 1 -1.1104 9.554918822341548 11.013108510881553 9.569453418341185 0 0 0
268 0 1 -1.1104 6.688252775925389 13.982499920344779 7.005266466803455 0 0 0
269 0 1 -1.1104 9.56142762433096 14.155072873636573 6.801478374661368 0 0 0
270 0 1 -1.1104 6.86189254601819 14.22085472252131 9.88933421294918 0 0 0
271 0 1 -1.1104 9.620339528671941 13.894886434823269 9.764006850716395 0 0 0
272 0 1 -1.1104 12.38190047598791 10.981677337334366 7.15323596654268 0 0 0
273 0 1 -1.1104 12.228182569925092 11.151537215498944 9.661782161497044 0 0 0
274 0 1 -1.1104 12.407569472665838 14.08653526180628 6.894450716115093 0 0 0
275 0 1 -1.1104 12.348651545712162 14.10912696019291 9.844126972998966 0 0 0
276 0 1 -1.1104 0.9839677365986892 16.94928942827997 6.784983531867217 0 0 0
277 0 1 -1.1104 3.8798912933151906 16.802512095092617 6.811112767487597 0 0 0
278 0 1 -1.1104 1.3268082498009668 17.108791627769843 9.56073939116545 0 0 0
279 0 1 -1.1104 3.8481991879967485 16.830124124219893 9.630656003840834 0 0 0
280 0 1 -1.1104 1.03800854758142 19.69912476475476 6.82575507355298 0 0 0
281 0 1 -1.1104 3.841628405588169 19.664759377295038 6.934258335015551 0 0 0
282 0 1 -1.1104 1.1865071386726311 19.817975053209636 9.638586533717646 0 0 0
283 0 1 -1.1104 4.007012620611724 19.74526482388736 9.686177830327775 0 0 0
284 0 1 -1.1104 6.583463385331635 16.768714967341182 7.069281292482488 0 0 0
285 0 1 -1.1104 9.514684071054969 16.78498787034881 7.140624116391778 0 0 0
286 0 1 -1.1104 6.69387235099303 17.038268751534602 9.830448973267247 0 0 0
287 0 1 -1.1104 9.316252583055656 16.79629892634909 9.835364851959438 0 0 0
288 0 1 -1.1104 6.617381381230445 19.580234470816674 7.1704104827550195 0 0 0
289 0 1 -1.1104 9.508123088725979 19.6561045454221 7.102377580226858 0 0 0
290 0 1 -1.1104 6.881887895126185 19.82305045983234 9.896584922893998 0 0 0
291 0 1 -1.1104 9.580039567057437 19.539067615733575 9.775430570842593 0 0 0
292 0 1 -1.1104 12.16369041910628 16.889850051258662 6.9535301381554895 0 0 0
293 0 1 -1.1104 12.321563146133112 16.837239250556816 9.681970369442327 0 0 0
294 0 1 -1.1104 12.440990791910606 19.721229307584778 6.905172434256631 0 0 0
295 0 1 -1.1104 12.417817403865573 19.805999341345892 9.764731907502032 0 0 0
296 0 1 -1.1104 1.1533287411107271 22.58143335881295 6.985338914569904 0 0 0
297 0 1 -1.1104 3.8853509932434096 22.622953949563417 6.901260126580458 0 0 0
298 0 1 -1.1104 1.046805772484104 22.465299320281776 9.794322979901564 0 0 0
299 0 1 -1.1104 3.8978920659627816 22.61193517189209 9.731170914847866 0 0 0
300 0 1 -1.1104 6.664829120110047 22.42153140452 6.8684425493229755 0 0 0
301 0 1 -1.1104 9.39259696211824 22.381485996630918 7.070550024638324 0 0 0
302 0 1 -1.1104 6.705623887206793 22.621553070811807 9.813469063703172 0 0 0
303 0 1 -1.1104 9.53860859964103 22.515455206147504 9.885983439425631 0 0 0
304 0 1 -1.1104 12.236563601495838 22.522723991106258 6.974401266958078 0 0 0
305 0 1 -1.1104 12.39200304883911 22.551332985046482 9.80412975492646 0 0 0
306 0 1 -1.1104 0.843552957819201 -0.12950088945482707 12.495825413816148 0 0 0
307 0 1 -1.1104 3.7508916546903723 -0.06997599278822855 12.48418049406725 0 0 0
9020 0 2 2.2208 13.798198923229615 7.017611530875416 5.439855657533853 0 0 0
9070 0 2 2.2208 13.719423123872751 12.691891899255394 11.252730829606334 0 0 0
8240 0 2 2.2208 10.97028013478632 -1.1306090062830727 5.45796430538042 0 0 0
9051 0 2 2.2208 13.733975325417388 21.14982246580774 8.403876348977217 0 0 0
9041 0 2 2.2208 13.802627215217129 15.501988548355751 8.378638906076516 0 0 0
9040 0 2 2.2208 13.81738912711289 18.33819609269354 5.538231130207597 0 0 0
3 0 2 2.2208 13.772255708290908 1.4791123973564768 5.4408070541918185 0 0 0
9297 0 2 2.2208 13.856206906739498 4.150763722170716 2.6449653078361512 0 0 0
8254 0 2 2.2208 8.149018860960549 -1.2566367007540387 2.5493845996454287 0 0 0
9050 0 2 2.2208 13.807193018233166 23.932538117740055 5.570774212237369 0 0 0
9030 0 2 2.2208 13.87282788563567 12.652405921018177 5.45732374859791 0 0 0
670 0 2 2.2208 10.753153146402246 9.85680520588493 -0.06100052003221338 0 0 0
94 0 3 -1.1104 8.21460205642462 -1.3064333484301007 11.131408851573823 0 0 0
359 0 3 -1.1104 2.472686119290311 9.805759628088852 -0.04786272152455828 0 0 0
9080 0 2 2.2208 13.846655192456913 24.033413027833753 11.144671443845342 0 0 0
346 0 2 2.2208 2.517854005550542 4.173045859653167 13.914889779368831 0 0 0
398 0 2 2.2208 2.4167253768981567 23.935209414933492 -0.0005614427456019934 0 0 0
349 0 2 2.2208 8.23245142863185 23.86958182853802 -0.06455885452100973 0 0 0
9636 0 2 2.2208 13.73031123359613 24.09291499388521 -0.10344318970137056 0 0 0
5 0 2 2.2208 2.4754669842925443 15.55481578105782 13.918777185549652 0 0 0
409 0 2 2.2208 5.178562748065827 15.44553500398741 -0.046186269930462 0 0 0
319 0 2 2.2208 5.245044576724202 18.287747635459883 13.914486658452613 0 0 0
22 0 2 2.2208 2.6233075816235885 12.535661303608782 -0.06726692722225969 0 0 0
328 0 2 2.2208 8.11115895682372 4.109300494251185 13.771152134128242 0 0 0
9313 0 2 2.2208 13.672747468537432 15.602536030592342 13.868031932650734 0 0 0
671 0 2 2.2208 2.4155444587969486 18.43126564397333 -0.0569236820138031 0 0 0
335 0 2 2.2208 10.914478781215568 12.799897398991698 13.910642968623621 0 0 0
399 0 2 2.2208 10.981171747545998 15.446497611921687 27.989900090784307 0 0 -1
9633 0 2 2.2208 13.830617731864098 18.239912582481075 27.972265328108723 0 0 -1
9343 0 2 2.2208 13.73414045623694 12.641502297380237 16.74341296421284 0 0 0
354 0 2 2.2208 13.606905913528202 1.2153545726949981 22.331610898634334 0 0 0
8927 0 2 2.2208 2.6328915480432453 -1.2617611802563078 19.52552062283741 0 0 0
404 0 2 2.2208 13.74219226803724 1.39523067281098 16.72973873856334 0 0 0
327 0 1 -1.1104 6.701425391990162 22.587870783303135 23.758929398800728 0 0 0
9364 0 2 2.2208 13.927792905153735 21.187844733121324 19.5547770238679 0 0 0
329 0 1 -1.1104 3.923228529518405 22.581199718139967 26.665072806858667 0 0 0
9644 0 2 2.2208 13.838078612906225 4.167036399864789 25.01252327918651 0 0 0
331 0 1 -1.1104 0.9408487031267345 22.69847898591641 26.779698622918325 0 0 0
332 0 3 -1.1104 10.864375071926384 18.2458216150289 22.39791800519452 0 0 0
348 0 2 2.2208 13.72983349930685 12.745653692922271 22.50726268424433 0 0 0
334 0 1 -1.1104 3.8447995055023845 22.51649845261295 23.948827593112732 0 0 0
8933 0 2 2.2208 2.681809643125423 -1.2575720233162797 24.96312987980974 0 0 0
336 0 1 -1.1104 1.0999670458150568 22.42076929195199 23.92705892119964 0 0 0
337 0 3 -1.1104 10.900487268370872 7.153142017048987 22.424322514174296 0 0 0
345 0 2 2.2208 11.374990416207247 23.956945577536516 13.99480951051648 0 0 0
339 0 1 -1.1104 12.236791561789294 19.816267441882207 26.5236871017095 0 0 0
9645 0 2 2.2208 13.85879689500941 9.792979949093152 19.513563462883614 0 0 0
341 0 1 -1.1104 12.414595424319652 19.80782208902854 23.895866542199535 0 0 0
9375 0 2 2.2208 13.72444712220911 4.159869208048281 19.533388823974047 0 0 0
9299 0 2 2.2208 13.721539303841189 15.42958854174171 19.5392849547484 0 0 0
656 0 1 -1.1104 9.530463108970196 19.774599420306036 26.711692779248462 0 0 0
659 0 2 2.2208 2.541087450862213 1.2995957930234383 27.92418540609023 0 0 -1
402 0 2 2.2208 13.696008283192638 6.964510225068052 16.832183093242435 0 0 0
347 0 2 2.2208 2.445570633153703 1.35930614456838 16.671842907744754 0 0 0
655 0 1 -1.1104 6.708776685018066 19.723326683535326 26.814139583728558 0 0 0
643 0 1 -1.1104 1.1281914798957113 16.945245805631195 26.570249289626226 0 0 0
321 0 2 2.2208 13.829530546938901 24.003942623562356 22.315389043644124 0 0 0
351 0 2 2.2208 8.134617400524553 1.4640248369185607 16.69265361846609 0 0 0
419 0 2 2.2208 13.60915305228577 1.5012587920325708 27.991451259912022 0 0 -1
353 0 2 2.2208 5.2996558697359735 1.4238207746275475 19.362560470253968 0 0 0
654 0 1 -1.1104 9.417375089598425 19.826778330126782 24.015478582810125 0 0 0
355 0 2 2.2208 10.882816263002532 1.3252430052541044 19.44552258516944 0 0 0
653 0 1 -1.1104 6.75234862008885 19.615292053175693 24.07734859745076 0 0 0
357 0 2 2.2208 2.508842027498478 7.044826810302338 16.58174728417143 0 0 0
358 0 2 2.2208 2.470716032159811 4.274575871545128 19.480783623525433 0 0 0
323 0 2 2.2208 13.734956494695275 18.419643431045746 22.349082011811337 0 0 0
360 0 2 2.2208 5.277735453232797 4.221949695030454 16.753615549994674 0 0 0
361 0 2 2.2208 8.216312715926382 6.946643062438812 16.693508723362555 0 0 0
362 0 2 2.2208 8.225462423546723 4.204266289789244 19.502845259004026 0 0 0
363 0 2 2.2208 5.421377400950277 7.078519991015181 19.440613238129558 0 0 0
364 0 2 2.2208 10.967065027495652 4.214281745715404 16.69214930655488 0 0 0
365 0 2 2.2208 11.007238228158057 6.871192577337119 19.711394335678552 0 0 0
352 0 2 2.2208 13.595837322365254 6.995344581557259 22.408154836046588 0 0 0
367 0 2 2.2208 2.2309874966560512 12.55824546086924 16.318586582386164 0 0 0
368 0 2 2.2208 2.468289498404394 9.506400202285414 19.57109979231425 0 0 0
652 0 1 -1.1104 9.499227244150314 16.898661666950563 26.771835794736244 0 0 0
370 0 2 2.2208 5.33950881812994 9.85604941115846 16.666424361062955 0 0 0
371 0 2 2.2208 8.223744288802388 12.7090911344704 16.771281340107592 0 0 0
372 0 2 2.2208 8.092385780104395 9.7939016125357 19.31132205201589 0 0 0