LAMMPS (29 Oct 2020)
OMP_NUM_THREADS environment is not set. Defaulting to 1 thread. (../comm.cpp:94)
  using 1 OpenMP thread(s) per MPI task
OMP_NUM_THREADS environment is not set. Defaulting to 1 thread. (../comm.cpp:94)
  using 1 OpenMP thread(s) per MPI task
Reading data file ...
  triclinic box = (-0.23813825 -2.6429791 -0.22658236) to (28.132138 337.37098 28.120582) with tilt (0.0000000 0.0000000 0.0000000)
  2 by 13 by 2 MPI processor grid
  reading atoms ...
  18000 atoms
  reading velocities ...
  18000 velocities
Finding 1-2 1-3 1-4 neighbors ...
  special bond factors lj:    0.0      0.0      0.0     
  special bond factors coul:  0.0      0.0      0.0     
     0 = max # of 1-2 neighbors
     0 = max # of 1-3 neighbors
     0 = max # of 1-4 neighbors
     1 = max # of special neighbors
  special bonds CPU = 0.004 seconds
  read_data CPU = 0.094 seconds
Setting atom values ...
  11940 settings made for charge
Setting atom values ...
  5970 settings made for charge
PPPM initialization ...
  using 12-bit tables for long-range coulomb (../kspace.cpp:328)
  G vector (1/distance) = 0.29826854
  grid = 40 240 40
  stencil order = 5
  estimated absolute RMS force accuracy = 0.00016233523
  estimated relative force accuracy = 1.1273557e-05
  using single precision MKL FFT
  3d grid and FFT values/proc = 15000 7600
Neighbor list info ...
  update every 1 steps, delay 0 steps, check yes
  max neighbors/atom: 2000, page size: 100000
  master list distance cutoff = 11.3
  ghost atom cutoff = 11.3
  binsize = 5.65, bins = 6 61 6
  2 neighbor lists, perpetual/occasional/extra = 2 0 0
  (1) pair coul/long, perpetual
      attributes: half, newton on
      pair build: half/bin/newton/tri
      stencil: half/bin/3d/newton/tri
      bin: standard
  (2) pair eam/alloy, perpetual, copy from (1)
      attributes: half, newton on
      pair build: copy
      stencil: none
      bin: none
Setting up Verlet run ...
  Unit style    : metal
  Current step  : 0
  Time step     : 0.001
Per MPI rank memory allocation (min/avg/max) = 8.313 | 8.341 | 8.357 Mbytes
Step Temp E_pair E_mol TotEng Press 
       0         1500    -232741.8            0   -229251.97    1051.2809 
  100000    1481.7906   -232679.87            0    -229232.4     2841.107 
Loop time of 685.967 on 52 procs for 100000 steps with 18000 atoms

Performance: 12.595 ns/day, 1.905 hours/ns, 145.780 timesteps/s
99.8% CPU use with 52 MPI tasks x 1 OpenMP threads

MPI task timing breakdown:
Section |  min time  |  avg time  |  max time  |%varavg| %total
---------------------------------------------------------------
Pair    | 449.56     | 458.01     | 473.22     |  25.9 | 66.77
Bond    | 0.006419   | 0.010617   | 0.019218   |   2.1 |  0.00
Kspace  | 126.37     | 143.81     | 153.36     |  54.6 | 20.96
Neigh   | 60.511     | 62.892     | 66.996     |  20.9 |  9.17
Comm    | 15.668     | 16.767     | 18.943     |  20.1 |  2.44
Output  | 5.7688e-05 | 6.2996e-05 | 0.0002657  |   0.0 |  0.00
Modify  | 1.8874     | 3.1853     | 4.9475     |  59.3 |  0.46
Other   |            | 1.29       |            |       |  0.19

Nlocal:        346.154 ave         372 max         330 min
Histogram: 4 9 9 7 8 5 5 3 1 1
Nghost:        3968.88 ave        4111 max        3893 min
Histogram: 8 7 6 13 8 3 2 2 2 1
Neighs:        69520.5 ave       74793 max       66279 min
Histogram: 5 9 8 9 8 4 3 2 3 1

Total # of neighbors = 3615066
Ave neighs/atom = 200.83700
Ave special neighs/atom = 0.0000000
Neighbor list builds = 24987
Dangerous builds = 0
11940 atoms in group oxygen
PPPM initialization ...
  using 12-bit tables for long-range coulomb (../kspace.cpp:328)
  G vector (1/distance) = 0.29826854
  grid = 40 240 40
  stencil order = 5
  estimated absolute RMS force accuracy = 0.00016233523
  estimated relative force accuracy = 1.1273557e-05
  using single precision MKL FFT
  3d grid and FFT values/proc = 15000 7600
Setting up Verlet run ...
  Unit style    : metal
  Current step  : 0
  Time step     : 0.001
Per MPI rank memory allocation (min/avg/max) = 8.564 | 8.592 | 8.608 Mbytes
Step f_2 Temp v_Tdiff v_deltaT 
       0            0    1481.7906            0            0 
  100000    1579.2102    1496.2096  0.069494817    806.82837 
  200000    3058.8185     1492.966  0.082931935    962.83207 
  300000    4524.4472    1494.9786  0.081109818    941.67745 
  400000    5994.6937     1509.541  0.084550967    981.62888 
  500000    7456.1541    1493.4706  0.085455417    992.12945 
  600000     8911.071    1492.8203  0.085041836    987.32782 
  700000    10379.892    1501.9203   0.08295289    963.07534 
  800000    11845.008    1489.7749  0.084912097    985.82156 
  900000    13322.935    1509.1688  0.082666279    959.74782 
 1000000     14800.09     1503.802  0.085211848    989.30164 
Loop time of 6827.28 on 52 procs for 1000000 steps with 18000 atoms

Performance: 12.655 ns/day, 1.896 hours/ns, 146.471 timesteps/s
99.8% CPU use with 52 MPI tasks x 1 OpenMP threads

MPI task timing breakdown:
Section |  min time  |  avg time  |  max time  |%varavg| %total
---------------------------------------------------------------
Pair    | 4424.6     | 4533.3     | 4643.5     |  69.9 | 66.40
Bond    | 0.059122   | 0.10464    | 0.17592    |   6.5 |  0.00
Kspace  | 1327.1     | 1445.7     | 1558.8     | 132.2 | 21.18
Neigh   | 619.62     | 638.73     | 677.63     |  56.5 |  9.36
Comm    | 157.92     | 169.47     | 201.81     |  88.2 |  2.48
Output  | 0.0010224  | 0.0011035  | 0.0023235  |   0.5 |  0.00
Modify  | 5.3665     | 5.9952     | 6.5284     |  11.8 |  0.09
Other   |            | 33.92      |            |       |  0.50

Nlocal:        346.154 ave         365 max         331 min
Histogram: 3 3 9 13 4 8 3 3 2 4
Nghost:        3960.42 ave        4094 max        3883 min
Histogram: 2 8 10 19 5 1 2 1 1 3
Neighs:        69485.2 ave       73420 max       66105 min
Histogram: 3 3 9 11 5 7 3 4 4 3

Total # of neighbors = 3613231
Ave neighs/atom = 200.73506
Ave special neighs/atom = 0.0000000
Neighbor list builds = 253443
Dangerous builds = 0
Total wall time: 2:05:13
