ITEM: TIMESTEP
30000
ITEM: NUMBER OF ATOMS
17910
ITEM: BOX BOUNDS pp pp pp
-3.5984133164632426e-01 2.7699841331646528e+01
-4.3027384616104705e+00 3.3238273846161292e+02
-3.5988948501558521e-01 2.7699889485015785e+01
ITEM: ATOMS id type q x y z
1 2 2.2208 5.38988 1.30238 5.42912
2 1 -1.1104 1.05541 -2.87813 1.03032
3 1 -1.1104 1.21174 2.85986 1.11794
6 1 -1.1104 1.14927 -2.80292 3.71543
7 1 -1.1104 1.04712 2.61173 3.89728
10 1 -1.1104 1.02327 -0.0393426 1.16007
12 2 2.2208 5.34741 -1.52626 2.63411
13 2 2.2208 5.33535 4.10286 2.56286
14 1 -1.1104 1.12872 -0.115644 4.01001
16 1 -1.1104 3.98102 -2.76955 1.12577
17 1 -1.1104 4.15357 2.84938 1.13644
18 2 2.2208 2.45357 1.29022 2.6446
19 1 -1.1104 3.93338 -2.93366 3.93314
20 1 -1.1104 3.91434 2.71788 3.97448
21 2 2.2208 2.61279 -1.57618 5.3309
22 2 2.2208 2.601 4.04362 5.37496
23 1 -1.1104 3.91838 0.0764268 0.978104
24 1 -1.1104 4.05211 -0.207327 3.74618
8966 2 2.2208 -0.280107 3.97559 2.47104
317 2 2.2208 2.40559 -1.56146 -0.280048
316 2 2.2208 5.43619 1.44475 -0.24509
8962 2 2.2208 -0.395655 -1.49698 2.37703
8965 2 2.2208 -0.16705 1.30178 5.36885
318 2 2.2208 2.6164 4.1129 -0.322156
8996 2 2.2208 -0.233799 -4.39728 -0.313009
172 1 -1.1104 3.96579 -2.92735 6.59883
28 2 2.2208 2.50787 -4.33335 2.45229
8985 2 2.2208 -0.175562 -4.36437 10.8173
15 1 -1.1104 6.74704 -0.0899849 4.18215
11 1 -1.1104 6.81676 -0.135028 1.20256
5 1 -1.1104 6.80112 2.65576 1.16307
4 1 -1.1104 6.67472 -2.84671 1.28762
323 2 2.2208 8.0747 4.13331 -0.222355
8 1 -1.1104 6.80835 -2.80005 4.01012
9 1 -1.1104 6.70601 2.74452 4.04123
32 2 2.2208 10.88 1.25742 5.24779
33 1 -1.1104 12.2408 -2.79376 1.0694
34 1 -1.1104 12.2667 2.63289 1.18736
35 1 -1.1104 12.2936 -2.98023 4.01783
36 1 -1.1104 12.2057 2.73928 3.91508
38 2 2.2208 10.8862 -1.56155 2.54998
39 2 2.2208 10.8397 4.01082 2.47098
40 1 -1.1104 12.2898 -0.0978706 3.91538
41 1 -1.1104 9.5151 -2.91991 1.04148
42 1 -1.1104 9.4682 2.67052 1.01255
43 2 2.2208 8.08755 1.22488 2.58191
44 1 -1.1104 9.54049 -2.80215 4.09463
45 1 -1.1104 9.44844 2.60173 3.81635
46 2 2.2208 8.1678 -1.47336 5.40355
48 1 -1.1104 9.76969 -0.215219 0.986388
49 1 -1.1104 9.46027 -0.0444496 3.88133
8662 1 -1.1104 12.7519 -0.136335 1.1825
47 2 2.2208 8.22168 4.20171 5.44547
203 2 2.2208 5.28734 -4.30103 11.0114
322 2 2.2208 8.12802 -1.51132 -0.371668
8299 2 2.2208 8.18439 -4.20578 2.57481
205 1 -1.1104 12.32 -2.88134 6.74172
207 1 -1.1104 12.3147 -0.128339 6.66032
8971 2 2.2208 -0.100022 6.89648 5.22195
8972 2 2.2208 -0.154581 9.6489 2.56579
54 2 2.2208 5.41289 6.98509 5.27156
55 2 2.2208 5.46914 12.5998 5.29709
56 1 -1.1104 1.23175 8.30763 1.19188
58 1 -1.1104 1.23371 8.19382 3.86041
60 1 -1.1104 1.09724 5.51151 1.10841
61 1 -1.1104 1.07997 11.2409 1.05965
66 2 2.2208 5.39258 9.81391 2.46838
67 1 -1.1104 1.1222 5.42936 3.92394
68 1 -1.1104 1.30974 11.0753 3.90865
71 1 -1.1104 3.97558 8.31996 1.12756
72 2 2.2208 2.63965 6.92401 2.60594
73 2 2.2208 2.70767 12.5942 2.55813
74 1 -1.1104 4.00755 8.34158 3.87087
75 2 2.2208 2.57403 9.69423 5.3624
76 1 -1.1104 4.01313 5.6405 1.01217
77 1 -1.1104 3.90707 11.1978 1.02113
79 1 -1.1104 3.96552 5.40171 4.00673
80 1 -1.1104 3.98812 11.0322 3.9508
30 1 -1.1104 12.3196 14.0192 9.44829
324 2 2.2208 5.22222 7.03257 -0.249698
325 2 2.2208 2.5414 9.71975 -0.245166
603 2 2.2208 5.34888 12.6447 -0.251877
9012 2 2.2208 -0.311723 12.558 -0.273339
8991 2 2.2208 -0.37848 6.89564 -0.243494
234 1 -1.1104 1.17729 8.27966 6.65343
238 1 -1.1104 3.87752 8.27971 6.79869
62 1 -1.1104 1.19218 11.0541 6.62383
57 1 -1.1104 6.58849 8.37735 1.18117
63 1 -1.1104 6.70842 5.47007 1.19492
70 1 -1.1104 6.68499 11.204 3.8958
69 1 -1.1104 6.7663 5.49281 3.93711
64 1 -1.1104 6.63434 11.1973 1.03389
59 1 -1.1104 6.8148 8.3577 3.89489
622 2 2.2208 8.1173 9.71402 -0.368459
84 2 2.2208 11.0251 6.81005 5.35802
85 2 2.2208 10.9129 12.4909 5.3642
86 1 -1.1104 12.3557 8.30013 1.2595
87 1 -1.1104 12.3565 8.24835 3.96383
88 1 -1.1104 12.4121 5.3805 0.905468
89 1 -1.1104 12.2206 11.0218 1.02558
91 2 2.2208 10.9827 9.6885 2.60575
92 1 -1.1104 12.1836 5.40181 3.81874
93 1 -1.1104 12.2206 11.2741 3.91329
94 1 -1.1104 9.59087 8.28465 1.14712
95 2 2.2208 8.09201 6.89566 2.57183
96 2 2.2208 8.23858 12.5084 2.60737
97 1 -1.1104 9.66945 8.16672 3.92456
98 2 2.2208 8.17047 9.66647 5.43798
99 1 -1.1104 9.51069 5.62185 1.05473
100 1 -1.1104 9.55242 11.2237 1.16903
102 1 -1.1104 9.40318 5.35928 3.89891
103 1 -1.1104 9.42516 11.0702 4.08649
326 2 2.2208 10.9556 7.01215 -0.165792
235 1 -1.1104 6.55323 8.40655 6.6911
8304 2 2.2208 10.989 -4.23653 -0.312132
106 2 2.2208 5.28197 18.1102 5.38988
107 1 -1.1104 1.32702 14.0819 1.11587
109 1 -1.1104 1.08886 19.492 1.28568
113 1 -1.1104 1.22906 13.9984 3.89449
114 1 -1.1104 1.0848 19.5014 4.02624
116 1 -1.1104 1.01901 16.7274 1.01319
119 2 2.2208 5.40474 15.3106 2.35851
120 2 2.2208 5.168 20.8575 2.53137
121 1 -1.1104 0.983499 16.7988 4.00065
123 1 -1.1104 4.05737 13.9684 1.02146
125 1 -1.1104 3.88353 19.4283 1.08838
127 2 2.2208 2.47255 18.058 2.57074
128 1 -1.1104 4.04444 13.9401 3.83584
129 1 -1.1104 3.87642 19.544 3.85087
130 2 2.2208 2.44427 15.4784 5.32782
131 2 2.2208 2.47861 20.9461 5.30466
132 1 -1.1104 3.942 16.5957 1.05015
134 1 -1.1104 4.01313 16.7091 3.81326
8976 2 2.2208 -0.298138 15.3894 2.52978
136 2 2.2208 -0.362164 20.8607 2.59506
8977 2 2.2208 -0.398504 18.2213 5.22544
53 2 2.2208 11.0315 -4.34004 5.33005
124 1 -1.1104 3.90495 13.8315 6.7685
163 1 -1.1104 9.36466 16.757 6.60606
400 2 2.2208 7.97254 20.8518 -0.231679
115 1 -1.1104 6.69963 14.0544 3.88731
110 1 -1.1104 6.93576 13.9424 1.01737
122 1 -1.1104 6.6938 16.6743 3.99062
139 1 -1.1104 6.56736 19.5495 3.99609
138 1 -1.1104 6.60849 19.4889 1.19409
140 1 -1.1104 6.74076 16.7924 1.08644
141 2 2.2208 10.9282 18.2461 5.32904
142 1 -1.1104 12.3502 13.9067 0.903122
144 1 -1.1104 12.1917 19.6648 1.16492
146 1 -1.1104 12.2967 13.8188 3.83979
147 1 -1.1104 12.2576 19.5374 3.95218
148 1 -1.1104 12.3373 16.8167 1.09669
150 2 2.2208 11.0766 15.3857 2.57067
151 2 2.2208 10.8381 21.0897 2.46701
152 1 -1.1104 12.3706 16.6729 3.97233
153 1 -1.1104 9.55905 13.8334 1.229
155 1 -1.1104 9.50304 19.6522 1.02351
157 2 2.2208 8.02105 18.157 2.51696
158 1 -1.1104 9.67679 13.8196 4.05653
159 1 -1.1104 9.5807 19.4859 3.87673
160 2 2.2208 8.09353 15.3462 5.25502
161 2 2.2208 8.05417 20.8988 5.29447
162 1 -1.1104 9.57851 16.8193 1.18917
164 1 -1.1104 9.51041 16.6238 4.04085
8967 2 2.2208 -0.227135 -4.12499 5.23499
394 2 2.2208 8.23678 15.3371 -0.229005
8981 2 2.2208 -0.257084 1.37599 10.9492
202 2 2.2208 2.48909 -4.31122 8.13265
170 1 -1.1104 0.939423 -0.122802 6.81022
174 1 -1.1104 3.80218 -0.00737497 6.74433
173 1 -1.1104 3.98717 2.61575 6.72833
166 1 -1.1104 1.1006 -2.87999 6.74689
167 1 -1.1104 1.26093 2.74653 6.73807
8979 2 2.2208 -0.270923 4.17766 8.14716
175 2 2.2208 5.40115 1.26299 11.0371
176 1 -1.1104 1.10009 -3.0481 12.4142
177 1 -1.1104 1.24858 2.57027 12.2202
180 1 -1.1104 1.16251 -2.94351 9.61795
181 1 -1.1104 1.08548 2.90992 9.47639
184 1 -1.1104 1.12477 -0.128384 12.4061
186 2 2.2208 5.29764 -1.49399 8.16976
187 2 2.2208 5.42129 4.0508 8.18526
188 1 -1.1104 1.11123 0.0741953 9.57453
190 1 -1.1104 3.8756 -2.92213 12.2545
191 1 -1.1104 4.10733 2.75493 12.454
192 2 2.2208 2.47297 1.30853 8.14607
193 1 -1.1104 3.93401 -2.91298 9.39221
194 1 -1.1104 3.9588 2.73838 9.76672
195 2 2.2208 2.54512 -1.4927 11.0466
196 2 2.2208 2.5774 4.06363 10.9991
197 1 -1.1104 3.98306 -0.0772509 12.2095
198 1 -1.1104 3.86492 0.0138482 9.48061
8980 2 2.2208 -0.289186 -1.46802 8.21544
232 2 2.2208 8.11 -4.3397 8.10736
168 1 -1.1104 6.71743 -2.98888 6.79678
189 1 -1.1104 6.71248 -0.0497067 9.70829
171 1 -1.1104 6.67529 -0.189959 6.94111
208 1 -1.1104 9.58577 -2.87295 6.85111
178 1 -1.1104 6.89946 -2.92641 12.2804
185 1 -1.1104 6.67923 -0.0591886 12.3821
179 1 -1.1104 6.75549 2.72653 12.4354
169 1 -1.1104 6.97423 2.78694 6.83143
210 1 -1.1104 9.45965 -0.10805 6.75811
183 1 -1.1104 6.87106 2.69022 9.57963
206 1 -1.1104 12.2304 2.71282 6.6111
209 1 -1.1104 9.70188 2.77766 6.5739
182 1 -1.1104 6.6321 -2.81846 9.6178
212 2 2.2208 10.9924 1.40169 10.8963
213 1 -1.1104 12.5362 -2.90868 12.3409
214 1 -1.1104 12.5414 2.76895 12.1084
215 1 -1.1104 12.272 -2.92335 9.58458
216 1 -1.1104 12.359 2.67456 9.3267
217 1 -1.1104 12.3655 0.0688943 12.4268
218 2 2.2208 11.0864 -1.40418 8.18064
219 2 2.2208 10.9366 4.17812 8.10474
220 1 -1.1104 12.337 -0.0642121 9.54618
221 1 -1.1104 9.72949 -2.9037 12.3117
222 1 -1.1104 9.57149 2.75113 12.283
223 2 2.2208 8.16823 1.20361 8.22534
224 1 -1.1104 9.51248 -2.93597 9.5662
225 1 -1.1104 9.53627 2.59624 9.45379
226 2 2.2208 8.32961 -1.52064 10.9645
227 2 2.2208 8.13894 4.07566 10.9574
228 1 -1.1104 9.55319 -0.05146 12.2668
229 1 -1.1104 9.74147 -0.121188 9.56726
8300 2 2.2208 10.9859 -4.2546 10.8144
29 2 2.2208 5.29279 -4.34953 5.33003
236 1 -1.1104 1.09431 5.63356 6.81566
239 1 -1.1104 3.99723 5.53382 6.74837
8893 2 2.2208 -0.212473 9.56947 8.05059
78 1 -1.1104 3.99549 11.1679 6.656
240 2 2.2208 5.44483 6.91975 11.1185
241 2 2.2208 5.17073 12.7329 11.051
242 1 -1.1104 1.17652 8.22609 12.2722
244 1 -1.1104 1.03299 8.3584 9.40624
246 1 -1.1104 1.16935 5.4329 12.4976
247 1 -1.1104 0.960798 11.0926 12.2759
250 2 2.2208 5.30433 9.69373 8.11617
251 1 -1.1104 1.1027 5.61777 9.71649
252 1 -1.1104 1.00738 11.1907 9.41897
255 1 -1.1104 3.91782 8.24947 12.2883
256 2 2.2208 2.50058 6.84824 8.24323
257 2 2.2208 2.46105 12.4938 8.04206
258 1 -1.1104 3.95362 8.44841 9.53066
259 2 2.2208 2.39272 9.71069 10.8681
260 1 -1.1104 4.12359 5.51727 12.3202
261 1 -1.1104 3.69213 11.0149 12.3136
262 1 -1.1104 3.74924 5.4193 9.54466
263 1 -1.1104 3.76519 11.2081 9.46074
52 2 2.2208 13.8143 20.9647 11.0055
8894 2 2.2208 -0.343109 6.84564 10.933
8886 2 2.2208 -0.393201 12.4591 10.8398
249 1 -1.1104 6.52903 11.0807 12.2981
8964 2 2.2208 13.705 18.0828 8.15693
312 2 2.2208 2.50567 6.93945 13.7364
237 1 -1.1104 6.82557 5.55366 6.77689
269 1 -1.1104 9.62605 5.5505 6.71656
90 1 -1.1104 12.2892 11.1118 6.6485
265 1 -1.1104 12.3489 8.33878 6.78281
248 1 -1.1104 6.79598 5.50398 12.4036
245 1 -1.1104 6.81199 8.19654 9.71715
243 1 -1.1104 6.73016 8.39175 12.4826
253 1 -1.1104 6.90759 5.35001 9.66461
267 1 -1.1104 9.4251 8.25921 6.80884
101 1 -1.1104 9.46978 11.028 6.73652
65 1 -1.1104 6.76118 11.0974 6.72863
254 1 -1.1104 6.49066 11.1946 9.56223
266 1 -1.1104 12.3829 5.48985 6.56291
264 1 -1.1104 9.51116 11.0262 9.58647
268 1 -1.1104 9.73012 5.52085 9.50675
270 1 -1.1104 9.48476 11.0283 12.4774
271 1 -1.1104 9.63903 5.53732 12.2938
272 2 2.2208 8.01008 9.63711 11.0198
273 1 -1.1104 9.54808 8.25164 9.45746
274 2 2.2208 7.97977 12.4104 8.13878
275 2 2.2208 8.08212 6.92324 8.1735
276 2 2.2208 10.9877 6.96422 10.9214
277 2 2.2208 10.8633 12.4555 10.9825
278 1 -1.1104 12.3956 8.2577 12.5286
279 1 -1.1104 12.3497 8.39358 9.62718
280 1 -1.1104 12.4187 5.50991 12.3955
281 1 -1.1104 12.2447 11.0908 12.4031
282 2 2.2208 10.9361 9.70913 8.1352
283 1 -1.1104 12.3445 5.60951 9.47795
284 1 -1.1104 12.1681 11.2103 9.5951
285 1 -1.1104 9.58674 8.2173 12.3752
8987 2 2.2208 13.7029 1.33714 7.99759
8741 2 2.2208 13.6658 21.0404 5.36178
108 1 -1.1104 1.11902 13.9594 6.56605
302 1 -1.1104 1.11035 19.7047 6.78192
133 1 -1.1104 3.74972 16.7282 6.67436
8983 2 2.2208 -0.365386 18.1517 10.9115
126 1 -1.1104 3.96267 19.5521 6.59864
117 1 -1.1104 0.929342 16.8022 6.72387
201 2 2.2208 2.58371 15.4514 10.9869
204 2 2.2208 2.31333 21.0116 10.9243
211 1 -1.1104 3.81297 16.942 12.209
230 1 -1.1104 1.13 16.7539 12.3417
231 1 -1.1104 3.80511 14.0347 9.61482
233 1 -1.1104 3.90632 16.8135 9.47776
286 1 -1.1104 3.69483 19.7223 12.4039
287 1 -1.1104 3.78326 13.9219 12.5282
291 1 -1.1104 0.992949 19.5774 9.5006
292 1 -1.1104 0.997942 16.7323 9.48465
293 2 2.2208 5.27797 20.9783 8.14335
294 1 -1.1104 1.02497 13.9215 9.52361
295 2 2.2208 5.22977 15.337 8.12107
298 1 -1.1104 0.968454 19.5783 12.2013
299 1 -1.1104 1.01153 13.9771 12.2954
300 2 2.2208 5.18792 18.1647 10.7606
301 1 -1.1104 3.70157 19.5656 9.61548
303 2 2.2208 2.35474 18.3242 8.07631
8984 2 2.2208 -0.348992 21.1036 8.08282
8982 2 2.2208 -0.459549 15.2678 8.16398
296 1 -1.1104 6.48964 19.2766 12.3208
27 1 -1.1104 12.3467 19.4453 12.3532
104 1 -1.1104 9.63925 19.776 12.2517
25 2 2.2208 10.796 18.118 10.9053
509 1 -1.1104 9.60125 16.5613 12.2724
83 1 -1.1104 9.64519 13.8396 12.8056
31 1 -1.1104 12.3249 19.6219 9.54099
137 1 -1.1104 9.32783 19.4336 9.53944
135 1 -1.1104 9.54075 13.8353 9.62197
200 1 -1.1104 9.53984 16.7459 9.35953
112 1 -1.1104 6.69177 19.5805 6.80041
154 1 -1.1104 9.19639 13.9408 6.7736
156 1 -1.1104 9.47592 19.3895 6.64709
26 1 -1.1104 12.2917 13.7802 12.1867
145 1 -1.1104 12.2423 19.5097 6.85703
118 1 -1.1104 6.5735 16.7417 6.86886
165 2 2.2208 8.23047 15.3164 10.8983
143 1 -1.1104 12.0964 13.978 6.75018
51 2 2.2208 10.6826 15.2858 8.14076
105 2 2.2208 8.0256 18.1613 8.11609
297 1 -1.1104 7.05762 13.7923 12.1129
290 1 -1.1104 6.59911 13.9263 9.44354
288 1 -1.1104 6.59313 19.564 9.59938
289 1 -1.1104 6.73609 16.7634 9.76181
82 1 -1.1104 12.1879 16.7279 9.61136
199 2 2.2208 8.12201 20.8462 10.8968
81 2 2.2208 10.885 20.8546 8.01276
50 1 -1.1104 12.3915 16.7968 12.3009
111 1 -1.1104 6.5367 13.8707 6.79441
149 1 -1.1104 12.3509 16.718 6.7492
368 2 2.2208 13.5735 20.8833 -0.249036
305 2 2.2208 2.65148 1.33564 13.6986
306 2 2.2208 5.35669 -1.40364 13.7302
9002 2 2.2208 -0.33697 -1.51813 13.7677
8990 2 2.2208 13.7659 -1.4395 -0.374764
313 2 2.2208 7.85132 12.3992 13.7295
485 2 2.2208 2.38134 18.1292 13.7475
486 2 2.2208 5.31929 20.9473 13.515
488 2 2.2208 11.0888 15.3878 13.5293
623 2 2.2208 10.9969 12.457 -0.27629
327 2 2.2208 5.41001 1.2488 16.5734
328 1 -1.1104 1.1366 -2.97915 17.9777
329 1 -1.1104 1.31026 2.7107 17.9656
332 1 -1.1104 1.10407 -2.86376 15.235
334 1 -1.1104 1.33134 2.79713 15.1403
340 1 -1.1104 1.13783 -0.206638 18.0592
342 2 2.2208 5.32767 -1.53827 19.3346
343 2 2.2208 5.46871 4.12708 19.4229
344 1 -1.1104 1.09392 -0.109897 15.2472
348 1 -1.1104 3.96942 -2.93606 17.9419
349 1 -1.1104 4.03161 2.87018 18.0363
350 2 2.2208 2.72061 1.26434 19.4898
351 1 -1.1104 3.96876 -2.91229 15.0602
353 1 -1.1104 4.08649 2.72934 15.1963
355 2 2.2208 2.47478 -1.43497 16.5619
356 2 2.2208 2.70929 4.16027 16.5494
357 1 -1.1104 3.93413 -0.0448191 18.0078
358 1 -1.1104 3.88941 -0.229692 15.0839
9088 2 2.2208 -0.114013 3.99462 19.365
8368 2 2.2208 11.0952 -4.32464 22.1786
8406 2 2.2208 11.1433 -4.23511 16.4837
304 2 2.2208 5.46377 4.12434 13.8009
9118 2 2.2208 -0.121382 1.36486 16.6504
9117 2 2.2208 -0.304742 -1.59596 19.2897
8997 2 2.2208 -0.217299 4.0796 13.7949
546 1 -1.1104 12.2125 19.4227 26.3175
575 2 2.2208 7.97278 17.9839 24.8771
8423 2 2.2208 5.45052 -4.12717 16.4971
8313 2 2.2208 2.49153 -4.30011 13.7767
354 1 -1.1104 4.15662 2.65936 20.7637
8408 2 2.2208 2.62394 -4.23714 19.2659
330 1 -1.1104 6.78754 -2.83971 17.9541
336 1 -1.1104 6.85781 -2.83947 15.1174
346 1 -1.1104 6.75806 -0.154988 15.2269
331 1 -1.1104 6.81989 2.6517 18.0024
338 1 -1.1104 6.8533 2.57071 15.2541
341 1 -1.1104 6.71136 -0.209828 17.9543
370 2 2.2208 10.8794 1.23936 16.5682
371 1 -1.1104 12.5148 -2.9725 17.7796
372 1 -1.1104 12.4051 2.65096 18.052
373 1 -1.1104 12.3955 -2.64226 15.0164
375 1 -1.1104 12.5129 2.69164 15.1421
376 1 -1.1104 12.4276 -0.0686038 17.8582
377 2 2.2208 11.0583 -1.44766 19.3053
378 2 2.2208 11.0978 4.04849 19.5104
379 1 -1.1104 12.3361 0.0551767 15.2507
381 1 -1.1104 9.60812 -2.89293 17.9554
382 1 -1.1104 9.56261 2.66076 17.9507
383 2 2.2208 8.17725 1.32424 19.3655
384 1 -1.1104 9.59089 -2.79195 15.1219
386 1 -1.1104 9.53142 2.78998 15.0204
388 2 2.2208 8.12544 -1.49146 16.5153
389 2 2.2208 8.21092 4.01983 16.4908
390 1 -1.1104 9.50435 -0.185037 17.9536
391 1 -1.1104 9.58429 0.00119448 15.075
307 2 2.2208 11.0315 4.03643 13.7265
9229 2 2.2208 -0.400187 15.1974 19.3168
337 1 -1.1104 6.76899 -2.86073 20.8089
380 1 -1.1104 12.4888 -0.0999279 20.4961
392 1 -1.1104 9.63714 -0.12175 20.725
387 1 -1.1104 9.69209 2.64664 20.7451
308 2 2.2208 10.9853 -1.40393 13.6983
9123 2 2.2208 -0.324267 12.5612 16.4732
402 2 2.2208 5.39118 6.93126 16.577
403 2 2.2208 5.31739 12.5782 16.516
404 1 -1.1104 1.0645 8.32644 18.0181
406 1 -1.1104 1.24772 8.15672 15.1763
410 1 -1.1104 1.23298 5.45957 17.8631
411 1 -1.1104 1.08411 11.0867 17.8937
414 2 2.2208 5.3209 9.75436 19.3958
415 1 -1.1104 1.25398 5.52133 15.1128
417 1 -1.1104 1.07199 11.153 15.1676
423 1 -1.1104 3.87306 8.4268 18.0911
424 2 2.2208 2.61862 6.89956 19.2987
425 2 2.2208 2.47524 12.4236 19.1335
426 1 -1.1104 3.99935 8.46429 15.2096
428 2 2.2208 2.42009 9.68709 16.6228
429 1 -1.1104 4.0268 5.52516 17.8637
430 1 -1.1104 4.04657 11.1344 17.7354
431 1 -1.1104 4.0028 5.59065 15.2299
433 1 -1.1104 3.80149 11.5114 14.9853
9006 2 2.2208 -0.327677 9.68732 13.6399
9161 2 2.2208 -0.306884 6.9954 16.6206
9160 2 2.2208 -0.37721 9.80414 19.3465
421 1 -1.1104 6.5544 10.8693 15.2532
427 1 -1.1104 3.87715 8.40341 20.7256
434 1 -1.1104 3.96183 11.4304 20.7482
416 1 -1.1104 1.2088 5.59084 20.5765
405 1 -1.1104 6.71795 8.46494 17.962
412 1 -1.1104 6.78291 5.53619 17.8755
408 1 -1.1104 6.77457 8.21813 15.1293
413 1 -1.1104 6.72997 11.4261 17.9565
419 1 -1.1104 6.83832 5.41039 15.1369
439 2 2.2208 11.0235 6.89123 16.4965
440 2 2.2208 11.0093 12.4631 16.7046
441 1 -1.1104 12.379 8.30729 17.976
442 1 -1.1104 12.301 8.36466 15.2636
444 1 -1.1104 12.3047 5.45918 17.9234
445 1 -1.1104 12.4702 11.0405 17.9934
446 2 2.2208 11.0075 9.82305 19.3644
447 1 -1.1104 12.4551 5.40224 15.1623
449 1 -1.1104 12.3067 11.1924 15.1402
451 1 -1.1104 9.58412 8.37941 17.911
452 2 2.2208 8.23408 6.88989 19.2003
453 2 2.2208 8.20286 12.5182 19.4405
454 1 -1.1104 9.41228 8.54639 15.1513
456 2 2.2208 8.12475 9.74819 16.5488
457 1 -1.1104 9.6611 5.49744 17.9162
458 1 -1.1104 9.57113 10.9975 18.0456
459 1 -1.1104 9.64433 5.58944 15.1578
461 1 -1.1104 9.49209 11.5865 15.2564
455 1 -1.1104 9.48647 8.03688 20.6834
450 1 -1.1104 12.2461 11.257 20.8236
443 1 -1.1104 12.4398 5.6527 20.8015
504 1 -1.1104 9.48533 13.7994 20.8687
465 1 -1.1104 0.947802 13.8173 18.0571
466 1 -1.1104 0.949337 19.6901 17.732
467 1 -1.1104 3.75994 13.8167 17.3405
469 1 -1.1104 1.02904 13.993 15.219
471 1 -1.1104 1.15144 19.5744 15.0792
477 1 -1.1104 0.961205 16.7865 15.0693
479 1 -1.1104 3.67689 16.6706 15.732
480 1 -1.1104 3.76999 19.3929 15.4443
481 2 2.2208 2.1639 15.3692 16.6556
482 2 2.2208 2.4268 21.0214 16.4626
483 1 -1.1104 0.877933 16.6272 18.0265
464 2 2.2208 5.34552 17.8735 16.1073
365 2 2.2208 -0.258777 20.9415 19.2393
604 1 -1.1104 9.64223 13.915 26.5143
363 2 2.2208 -0.362043 20.9108 13.663
574 1 -1.1104 9.32104 19.4283 23.5
468 1 -1.1104 6.49342 17.2032 17.7344
511 2 2.2208 10.9259 20.8346 13.7083
474 1 -1.1104 6.3995 19.6891 15.4514
476 1 -1.1104 6.76368 13.6853 15.3889
489 2 2.2208 10.7579 18.2879 16.7254
490 1 -1.1104 12.3085 14.0159 17.8204
491 1 -1.1104 12.0732 19.7142 18.0632
492 1 -1.1104 12.3657 13.9696 15.0386
494 1 -1.1104 12.3355 19.441 15.2741
496 1 -1.1104 12.3985 16.836 18.029
497 2 2.2208 10.7416 15.39 19.2858
498 2 2.2208 10.8382 21.0959 19.3376
499 1 -1.1104 11.8349 16.6627 15.1845
501 1 -1.1104 9.5587 13.7969 17.9914
502 1 -1.1104 9.10535 19.7688 17.9757
503 2 2.2208 8.01729 18.0819 19.3096
505 1 -1.1104 9.68905 19.6241 15.2596
507 2 2.2208 8.13275 21.0944 16.2816
508 1 -1.1104 9.59415 16.7924 17.9772
510 1 -1.1104 9.42861 16.6456 20.839
572 1 -1.1104 12.4175 16.7084 26.4427
9230 2 2.2208 -0.328928 18.096 16.5392
8369 2 2.2208 2.5341 -4.29786 24.9835
359 1 -1.1104 3.891 -0.106886 20.9317
333 1 -1.1104 1.14053 -2.9107 20.7906
335 1 -1.1104 1.34521 2.72528 20.8101
352 1 -1.1104 3.91901 -2.86519 20.6371
9086 2 2.2208 -0.140778 3.99071 24.975
9049 2 2.2208 -0.183615 1.27443 22.2081
9047 2 2.2208 -0.295839 -1.58185 25.0829
345 1 -1.1104 1.2094 -0.0351918 20.7973
514 2 2.2208 5.44651 1.3795 22.1637
515 1 -1.1104 1.11157 -2.92863 23.5647
516 1 -1.1104 1.15467 2.68322 23.5101
519 1 -1.1104 1.05633 -2.94003 26.3733
520 1 -1.1104 1.19948 2.58751 26.412
523 1 -1.1104 1.15374 -0.141611 23.7992
525 2 2.2208 5.29891 -1.56526 25.0621
526 2 2.2208 5.45987 4.20374 24.9161
527 1 -1.1104 1.17211 -0.0193842 26.4979
529 1 -1.1104 3.9093 -2.97367 23.574
530 1 -1.1104 4.25324 2.80174 23.4448
531 2 2.2208 2.60044 1.18257 24.9757
532 1 -1.1104 3.92893 -3.07292 26.3012
533 1 -1.1104 3.90866 2.77279 26.2335
534 2 2.2208 2.49867 -1.55312 22.1869
535 2 2.2208 2.62183 4.08883 22.1151
536 1 -1.1104 3.97555 -0.258966 23.6429
537 1 -1.1104 3.888 -0.323854 26.3508
339 1 -1.1104 6.91363 2.64603 20.8613
347 1 -1.1104 6.73191 -0.124538 20.703
9295 1 -1.1104 12.445 2.7013 20.8532
385 1 -1.1104 9.68964 -2.84874 20.7425
521 1 -1.1104 6.81779 -2.91691 26.3297
524 1 -1.1104 6.79522 -0.208913 23.6478
522 1 -1.1104 6.68538 2.82337 26.3854
528 1 -1.1104 6.82688 0.0649528 26.5446
517 1 -1.1104 6.75535 -2.85578 23.5093
518 1 -1.1104 7.1055 2.78282 23.7551
374 1 -1.1104 12.3928 -2.82507 20.6781
549 2 2.2208 11.1646 1.17106 22.0218
550 1 -1.1104 12.5064 -2.78926 23.5786
551 1 -1.1104 12.3122 -0.16615 23.3417
552 1 -1.1104 12.4449 -2.98452 26.4232
553 1 -1.1104 12.4946 3.02015 26.3792
554 2 2.2208 10.9558 -1.41245 24.9139
556 1 -1.1104 9.65941 -2.82995 23.5419
557 1 -1.1104 9.98351 2.77099 23.4924
558 2 2.2208 8.24718 1.28514 25.0206
559 1 -1.1104 9.50695 -2.92236 26.3395
560 1 -1.1104 9.46447 2.60255 26.4546
561 2 2.2208 8.24576 -1.50413 22.1534
562 2 2.2208 8.34807 4.11754 22.1732
563 1 -1.1104 9.45915 0.147533 23.4597
564 1 -1.1104 9.68956 -0.168506 26.2151
37 1 -1.1104 12.4884 -0.0643223 26.4962
555 2 2.2208 10.868 3.94439 25.1753
396 2 2.2208 13.7256 15.4123 16.5394
418 1 -1.1104 1.11562 11.1736 20.6003
407 1 -1.1104 1.1327 8.39789 20.6457
432 1 -1.1104 3.9502 5.39406 20.6286
9328 2 2.2208 -0.244815 6.91033 21.9807
9087 2 2.2208 -0.345321 12.4697 22.1444
9090 2 2.2208 -0.297113 9.79668 24.9348
577 2 2.2208 5.33864 6.84475 22.1591
578 2 2.2208 5.47853 12.3635 22.1166
579 1 -1.1104 1.20536 8.38828 23.6478
581 1 -1.1104 0.930103 8.25469 26.3376
583 1 -1.1104 1.29227 5.3417 23.523
584 1 -1.1104 1.02928 11.1423 23.4356
587 2 2.2208 5.26793 9.6741 24.9802
588 1 -1.1104 1.27596 5.47053 26.2143
589 1 -1.1104 1.14152 11.0119 26.2362
592 1 -1.1104 3.98792 8.16651 23.473
593 2 2.2208 2.5147 6.88455 24.9932
594 2 2.2208 2.46701 12.4708 24.876
595 1 -1.1104 3.87685 8.30046 26.3568
596 2 2.2208 2.48262 9.66092 22.1283
597 1 -1.1104 3.97893 5.53633 23.6001
598 1 -1.1104 3.78604 11.1623 23.5713
599 1 -1.1104 4.14773 5.58234 26.3526
600 1 -1.1104 3.90045 11.0166 26.2891
580 1 -1.1104 6.73468 8.39245 23.5465
409 1 -1.1104 6.69001 8.34987 20.6778
462 1 -1.1104 9.52731 10.8953 20.736
460 1 -1.1104 9.61197 5.42451 20.8208
420 1 -1.1104 6.7235 5.45221 20.8554
582 1 -1.1104 6.68653 8.33768 26.3085
586 1 -1.1104 6.68754 11.0281 23.5303
9108 1 -1.1104 12.1627 8.49415 20.7646
422 1 -1.1104 6.72369 10.955 20.8131
591 1 -1.1104 6.71148 11.0639 26.4309
585 1 -1.1104 7.04552 5.50951 23.663
590 1 -1.1104 7.03646 5.52412 26.3627
605 1 -1.1104 9.61037 10.9618 26.4048
606 1 -1.1104 10.0796 5.35199 26.4666
607 1 -1.1104 9.44529 11.1383 23.5368
608 1 -1.1104 9.94643 5.4936 23.7097
609 2 2.2208 8.19998 9.59271 22.1321
610 1 -1.1104 9.47415 8.16637 26.5179
611 2 2.2208 8.15889 12.5028 24.9884
612 2 2.2208 8.27905 6.80356 24.9993
613 2 2.2208 11.0343 6.91904 22.1783
614 2 2.2208 10.9662 12.6893 22.2758
615 1 -1.1104 12.328 8.21801 23.4779
616 1 -1.1104 12.2475 8.3459 26.5462
617 1 -1.1104 12.3657 11.114 23.5935
618 2 2.2208 11.0314 9.66076 24.8721
619 1 -1.1104 12.5334 11.0934 26.3529
620 1 -1.1104 9.4851 8.29118 23.6361
621 1 -1.1104 6.72632 13.8522 26.4241
470 1 -1.1104 1.29019 14.1138 20.6955
9042 2 2.2208 -0.318104 15.4112 24.9246
436 2 2.2208 -0.364894 20.9546 24.9199
472 1 -1.1104 0.949553 19.6552 21.0188
360 2 2.2208 2.39421 21.0323 22.0819
361 1 -1.1104 3.72998 16.4632 23.645
362 1 -1.1104 0.927704 16.7848 23.2842
397 1 -1.1104 3.92719 13.9696 26.2711
401 1 -1.1104 3.79895 16.5888 26.3746
435 2 2.2208 2.38459 18.0829 24.9427
438 1 -1.1104 3.80117 19.4255 26.1166
448 2 2.2208 5.26736 17.9453 22.0767
463 1 -1.1104 1.18266 14.0024 23.5917
484 1 -1.1104 3.34334 16.9763 20.9838
538 1 -1.1104 1.0056 19.5583 23.8023
540 2 2.2208 5.22719 15.373 24.9522
543 2 2.2208 5.2083 20.6901 24.8353
565 1 -1.1104 1.05916 13.7849 26.3352
566 1 -1.1104 1.1681 16.6318 26.2984
567 1 -1.1104 1.0483 19.3013 26.6076
571 2 2.2208 2.49356 15.3397 22.1668
602 1 -1.1104 3.87629 13.9023 23.16
626 1 -1.1104 3.7757 19.4497 23.1221
545 1 -1.1104 6.48069 19.1039 23.68
393 1 -1.1104 6.60354 16.5541 23.567
319 2 2.2208 -0.244399 18.0752 27.8413
320 2 2.2208 2.58756 15.3269 27.6359
541 1 -1.1104 12.1599 19.5371 23.5875
542 1 -1.1104 12.3736 13.9496 26.3739
478 1 -1.1104 6.8276 16.6051 20.9344
576 1 -1.1104 6.55182 19.3952 26.4165
539 1 -1.1104 6.64328 13.8605 23.7247
473 1 -1.1104 6.59744 13.674 20.6529
437 2 2.2208 7.89268 20.7508 22.1126
601 1 -1.1104 6.70984 16.7554 26.3049
624 1 -1.1104 9.4211 19.5228 26.3251
544 1 -1.1104 9.36102 16.6474 23.7219
573 1 -1.1104 9.57331 13.9224 23.6917
398 1 -1.1104 9.48024 16.6867 26.3794
475 1 -1.1104 6.631 19.3566 20.7958
506 1 -1.1104 9.45765 19.3843 20.6611
548 2 2.2208 10.9887 15.2916 25.0046
493 1 -1.1104 12.1729 13.9807 20.7669
495 1 -1.1104 12.3232 19.4329 20.9178
512 2 2.2208 10.7458 18.0513 22.0925
500 1 -1.1104 12.29 16.6628 20.8072
625 2 2.2208 8.05927 15.3107 22.19
513 1 -1.1104 12.3053 13.9706 23.4903
547 1 -1.1104 12.3357 16.715 23.6125
568 2 2.2208 10.8457 20.8862 24.9335
8994 2 2.2208 -0.163121 1.386 27.827
321 2 2.2208 11.028 1.28544 27.8293
569 2 2.2208 5.15467 18.0571 27.779
570 2 2.2208 2.53228 20.8621 27.7988
399 2 2.2208 10.8063 18.1391 27.6986
309 2 2.2208 8.16388 1.1687 13.6803
310 2 2.2208 2.27951 12.404 13.5347
311 2 2.2208 5.1385 9.72555 13.7229
314 2 2.2208 10.9831 9.79192 13.8024
315 2 2.2208 8.16717 7.01902 13.817
9011 2 2.2208 -0.340037 15.3492 13.7687
627 2 2.2208 5.28059 23.7358 5.15765
628 2 2.2208 5.35613 29.4612 5.20155
629 1 -1.1104 1.05973 24.909 1.11571
630 1 -1.1104 1.07135 25.2229 4.00046
631 1 -1.1104 0.954786 22.2393 1.19879
632 1 -1.1104 1.18173 27.9317 1.09804
633 2 2.2208 5.38812 26.6719 2.41396
634 1 -1.1104 1.03328 22.3822 3.95986
635 1 -1.1104 1.10189 27.9519 3.79811
636 1 -1.1104 3.75661 25.0534 0.978758
637 2 2.2208 2.46679 23.6156 2.50428
638 2 2.2208 2.573 29.3359 2.50657
639 1 -1.1104 3.86063 25.2248 3.72032
640 2 2.2208 2.5971 26.6303 5.27639
641 1 -1.1104 3.85858 22.1625 1.01924
642 1 -1.1104 3.93281 28.0069 0.920347
643 1 -1.1104 3.77835 22.325 3.79603
644 1 -1.1104 3.91396 28.0645 3.78539
774 1 -1.1104 3.90772 25.1768 6.57233
1549 1 -1.1104 1.22793 47.5287 9.48682
646 2 2.2208 -0.272307 23.8234 5.30214
1161 2 2.2208 8.14425 40.4438 13.677
775 1 -1.1104 4.04328 22.3581 6.61424
1184 2 2.2208 5.37927 29.3376 -0.419669
1182 2 2.2208 5.22192 23.6642 -0.281309
1183 2 2.2208 2.48299 26.3816 -0.257904
927 1 -1.1104 9.56873 41.9249 12.3506
651 1 -1.1104 6.75218 28.0505 0.981666
650 1 -1.1104 6.54674 22.364 1.20542
653 1 -1.1104 6.78558 27.9366 3.90704
649 1 -1.1104 6.561 25.0934 3.6887
652 1 -1.1104 6.67313 22.2631 3.9538
648 1 -1.1104 6.64672 25.2593 1.11913
654 2 2.2208 10.9265 23.7683 5.29951
655 2 2.2208 10.8757 29.4195 5.16108
656 1 -1.1104 12.3483 25.1186 1.09202
657 1 -1.1104 12.2199 25.328 3.88873
658 1 -1.1104 12.3698 22.3912 1.01937
659 1 -1.1104 12.2569 27.9005 1.05645
660 2 2.2208 10.757 26.5552 2.51592
661 1 -1.1104 12.2892 22.5327 3.87536
662 1 -1.1104 12.4801 28.0461 3.83171
663 1 -1.1104 9.44588 25.2224 1.06105
664 2 2.2208 8.00982 23.8078 2.38883
665 2 2.2208 8.19573 29.3809 2.41465
666 1 -1.1104 9.4335 25.1434 3.68136
667 2 2.2208 8.15249 26.48 5.25433
668 1 -1.1104 9.46153 22.4184 1.12263
669 1 -1.1104 9.51528 28.0442 1.06337
670 1 -1.1104 9.319 22.3323 3.97987
671 1 -1.1104 9.49855 27.9911 3.79734
1212 2 2.2208 10.8871 23.7546 -0.333893
1218 2 2.2208 10.9819 29.2729 -0.249292
1213 2 2.2208 8.05382 26.5897 -0.398997
675 2 2.2208 5.38671 34.9308 5.19822
676 1 -1.1104 1.16752 30.5611 1.10364
677 1 -1.1104 1.08601 36.3278 0.996725
679 1 -1.1104 1.23313 30.7215 3.90409
680 1 -1.1104 1.1139 36.4226 3.98343
682 1 -1.1104 1.17716 33.4992 0.98476
683 2 2.2208 5.41204 32.2101 2.45949
684 2 2.2208 5.42376 37.7479 2.45252
685 1 -1.1104 1.10188 33.5982 3.78088
687 1 -1.1104 3.93326 30.8518 1.05048
688 1 -1.1104 3.9216 36.395 1.15227
689 2 2.2208 2.46095 34.81 2.42995
690 1 -1.1104 4.0736 30.8128 3.88521
691 1 -1.1104 3.98077 36.3598 3.93409
692 2 2.2208 2.54727 32.1564 5.30573
693 2 2.2208 2.62311 37.863 5.22785
694 1 -1.1104 4.009 33.6488 1.14904
695 1 -1.1104 3.97198 33.5604 3.72843
696 2 2.2208 -0.266572 37.8265 2.4834
1243 2 2.2208 5.40465 35.0145 -0.336747
826 1 -1.1104 1.18932 36.3685 6.86958
1244 2 2.2208 -0.205448 34.9078 -0.238905
681 1 -1.1104 6.81051 36.2092 3.81618
699 1 -1.1104 6.82845 30.6721 0.95074
701 1 -1.1104 6.73159 33.6375 1.08605
919 1 -1.1104 9.49605 44.6175 9.48662
1241 2 2.2208 2.55469 37.6775 -0.327971
1272 2 2.2208 8.23118 32.2401 -0.137735
678 1 -1.1104 6.99901 36.3304 1.11916
686 1 -1.1104 6.77485 33.4973 3.84153
700 1 -1.1104 6.87968 30.7092 3.77063
702 2 2.2208 10.9493 34.8931 5.26558
703 1 -1.1104 12.4468 30.7134 1.13464
704 1 -1.1104 12.4142 36.4193 1.00718
705 1 -1.1104 12.3018 30.8668 3.86172
706 1 -1.1104 12.3529 36.2612 3.85775
707 1 -1.1104 12.4692 33.448 1.05764
708 2 2.2208 11.0018 32.1458 2.46373
709 2 2.2208 10.9783 37.7471 2.55977
710 1 -1.1104 12.2994 33.6563 3.79124
711 1 -1.1104 9.63832 30.748 1.12176
712 1 -1.1104 9.69008 36.2905 1.05249
713 2 2.2208 8.32712 34.9003 2.59079
714 1 -1.1104 9.682 30.7909 3.79925
715 1 -1.1104 9.5375 36.3244 3.82031
716 2 2.2208 8.17029 32.1691 5.29081
717 2 2.2208 8.157 37.8702 5.31372
718 1 -1.1104 9.62269 33.6821 1.18029
719 1 -1.1104 9.60924 33.5446 3.95672
861 1 -1.1104 12.4447 33.6354 6.52924
860 1 -1.1104 12.4877 36.2071 6.60397
935 1 -1.1104 12.3365 44.7144 6.61467
1271 2 2.2208 8.25435 37.7837 -0.36884
942 2 2.2208 11.0564 40.536 10.8991
745 2 2.2208 -0.284407 43.2499 2.51715
963 2 2.2208 2.49314 43.3842 -0.350574
721 2 2.2208 5.37508 40.4338 5.31433