ITEM: TIMESTEP
80000
ITEM: NUMBER OF ATOMS
17910
ITEM: BOX BOUNDS pp pp pp
-3.5661506943431615e-01 2.7696615069434916e+01
-4.1852678095436868e+00 3.3226526780954350e+02
-3.5666866171631717e-01 2.7696668661716632e+01
ITEM: ATOMS id type q x y z
1 2 2.2208 5.40893 1.49558 5.36335
2 1 -1.1104 1.0405 -2.76769 1.02794
3 1 -1.1104 1.19932 2.82166 1.2113
6 1 -1.1104 1.13783 -2.83407 4.01074
7 1 -1.1104 1.16056 2.79807 4.06034
10 1 -1.1104 1.22026 0.0569313 1.18922
12 2 2.2208 5.42886 -1.20282 2.52306
13 2 2.2208 5.40063 4.21595 2.63763
14 1 -1.1104 1.02225 -0.0512638 4.02508
16 1 -1.1104 3.83385 -2.5511 1.2643
17 1 -1.1104 4.01987 2.96376 1.10485
18 2 2.2208 2.58531 1.48227 2.48503
19 1 -1.1104 3.82016 -2.6984 3.93936
20 1 -1.1104 3.99457 3.00234 3.88548
21 2 2.2208 2.52768 -1.23802 5.34146
22 2 2.2208 2.67018 4.24609 5.35285
23 1 -1.1104 3.99429 0.23975 1.07077
24 1 -1.1104 4.01729 0.224703 4.00565
9 1 -1.1104 6.85913 2.82977 4.02114
167 1 -1.1104 1.22027 2.94291 6.80373
11 1 -1.1104 6.75754 0.0334273 1.04395
172 1 -1.1104 3.8861 -2.65781 6.68527
170 1 -1.1104 1.17597 0.0733887 6.69491
318 2 2.2208 2.54364 4.3301 -0.219444
173 1 -1.1104 4.01334 2.96897 6.84772
8962 2 2.2208 -0.290893 -1.38198 2.46009
8966 2 2.2208 -0.0572603 4.21845 2.65928
317 2 2.2208 2.49032 -1.32266 -0.189956
169 1 -1.1104 6.78432 3.03645 6.83524
5 1 -1.1104 6.7846 2.86808 1.2164
15 1 -1.1104 6.88527 0.102349 3.83982
168 1 -1.1104 6.78494 -2.80933 6.80878
4 1 -1.1104 6.71966 -2.78223 1.02333
8 1 -1.1104 6.68439 -2.51034 3.80273
171 1 -1.1104 6.67937 0.0757138 6.73482
32 2 2.2208 11.0249 1.47483 5.32182
33 1 -1.1104 12.3304 -2.684 1.13594
34 1 -1.1104 12.2814 2.70902 1.03456
35 1 -1.1104 12.382 -2.94509 4.06537
36 1 -1.1104 12.3756 2.72712 3.85298
38 2 2.2208 10.8691 -1.33261 2.53775
39 2 2.2208 10.909 4.26614 2.50434
40 1 -1.1104 12.4252 -0.0964367 3.84149
41 1 -1.1104 9.58312 -2.72981 1.08915
42 1 -1.1104 9.61553 2.91729 1.17814
43 2 2.2208 8.2879 1.47874 2.63022
44 1 -1.1104 9.57459 -2.73158 3.86718
45 1 -1.1104 9.64845 2.77449 3.96679
46 2 2.2208 8.2787 -1.35221 5.3625
48 1 -1.1104 9.55076 0.184433 1.01125
49 1 -1.1104 9.67643 0.0324664 3.9884
8662 1 -1.1104 12.4981 0.0197133 1.23967
47 2 2.2208 8.23347 4.25456 5.34559
210 1 -1.1104 9.36234 0.0947124 6.71112
207 1 -1.1104 12.4 -0.0893508 6.7015
8299 2 2.2208 8.13981 -4.08116 2.35485
209 1 -1.1104 9.70599 2.84672 6.81253
205 1 -1.1104 12.3572 -2.80543 6.78207
206 1 -1.1104 12.4579 2.8201 6.72317
8304 2 2.2208 11.0933 -4.06013 -0.293666
322 2 2.2208 8.10099 -1.29571 -0.403373
324 2 2.2208 5.33553 7.01471 -0.220091
54 2 2.2208 5.34841 7.19696 5.26895
55 2 2.2208 5.38696 12.6708 5.37747
56 1 -1.1104 1.05429 8.45487 1.20617
58 1 -1.1104 1.19118 8.35562 4.09474
60 1 -1.1104 1.08469 5.60742 1.26347
61 1 -1.1104 1.09037 11.378 1.2012
66 2 2.2208 5.49537 9.86472 2.51128
67 1 -1.1104 1.38458 5.57566 3.8922
68 1 -1.1104 1.14022 11.1405 3.99911
71 1 -1.1104 3.87994 8.50808 1.13042
72 2 2.2208 2.58917 7.06616 2.57028
73 2 2.2208 2.54875 12.5828 2.57269
74 1 -1.1104 3.91946 8.63355 3.87921
75 2 2.2208 2.51341 9.87774 5.34395
76 1 -1.1104 4.04035 5.71871 1.26906
77 1 -1.1104 4.04217 11.2711 1.0939
79 1 -1.1104 4.14938 5.83013 3.99632
80 1 -1.1104 3.96957 11.1933 3.97911
57 1 -1.1104 6.87338 8.33573 1.17634
63 1 -1.1104 7.00788 5.54371 0.997022
64 1 -1.1104 6.9194 11.1553 1.17139
70 1 -1.1104 6.8965 11.3022 3.88657
59 1 -1.1104 6.83762 8.51445 3.95031
236 1 -1.1104 1.31452 5.7773 6.77485
235 1 -1.1104 6.90344 8.59789 6.74611
78 1 -1.1104 4.00615 11.3454 6.71627
8971 2 2.2208 -0.204642 7.03271 5.64252
325 2 2.2208 2.55793 9.88046 -0.27904
603 2 2.2208 5.49112 12.7537 -0.29763
69 1 -1.1104 6.92129 5.56467 3.87309
84 2 2.2208 11.0191 7.05135 5.41238
85 2 2.2208 10.8628 12.8392 5.44088
86 1 -1.1104 12.4547 8.3862 1.21413
87 1 -1.1104 12.3852 8.48712 4.02365
88 1 -1.1104 12.2244 5.43454 0.88688
89 1 -1.1104 12.4878 11.1346 1.16234
91 2 2.2208 11.0632 9.96171 2.60729
92 1 -1.1104 12.4603 5.64863 3.86179
93 1 -1.1104 12.5154 11.2538 4.01234
94 1 -1.1104 9.75664 8.6315 1.10989
95 2 2.2208 8.19405 7.10829 2.56437
96 2 2.2208 8.22941 12.6967 2.59456
97 1 -1.1104 9.52316 8.47777 3.96378
98 2 2.2208 8.18012 9.8533 5.33609
99 1 -1.1104 9.53488 5.70485 1.05598
100 1 -1.1104 9.66069 11.2532 1.16296
102 1 -1.1104 9.63135 5.61449 4.00313
103 1 -1.1104 9.52253 11.2826 3.85626
326 2 2.2208 10.9464 7.07984 -0.0944236
269 1 -1.1104 9.72544 5.5408 6.58679
266 1 -1.1104 12.4457 5.61662 6.82672
622 2 2.2208 8.16119 9.96951 -0.181934
623 2 2.2208 11.1502 12.6898 -0.366904
106 2 2.2208 5.36517 18.3289 5.28431
107 1 -1.1104 1.24579 13.995 1.15638
109 1 -1.1104 1.17267 19.7419 1.25031
113 1 -1.1104 1.16473 13.9668 3.91811
114 1 -1.1104 1.15789 19.6178 3.92445
116 1 -1.1104 1.34666 16.8311 1.12179
119 2 2.2208 5.32547 15.4262 2.52906
120 2 2.2208 5.47219 21.1709 2.53381
121 1 -1.1104 1.21011 16.8361 3.86198
123 1 -1.1104 4.00114 14.147 1.33472
125 1 -1.1104 4.01763 19.7206 0.971622
127 2 2.2208 2.74514 18.3147 2.56061
128 1 -1.1104 3.95691 13.9191 3.94875
129 1 -1.1104 4.01204 19.6178 3.85891
130 2 2.2208 2.4803 15.5076 5.4303
131 2 2.2208 2.61706 21.1515 5.28415
132 1 -1.1104 4.003 16.922 1.09886
134 1 -1.1104 4.10957 16.8744 3.98272
139 1 -1.1104 6.73474 19.6089 3.94407
124 1 -1.1104 3.94326 14.2492 6.60093
122 1 -1.1104 6.80698 16.8033 3.91354
108 1 -1.1104 1.24067 14.1488 6.72499
138 1 -1.1104 6.84977 19.7289 1.22067
111 1 -1.1104 6.69693 14.0694 6.7561
319 2 2.2208 -0.213581 18.2392 -0.176446
320 2 2.2208 2.58071 15.4337 -0.130071
569 2 2.2208 5.48266 18.3094 -0.32199
570 2 2.2208 2.58691 21.0631 -0.35941
400 2 2.2208 8.25459 21.1974 -0.25783
115 1 -1.1104 6.79001 13.9886 3.96808
140 1 -1.1104 6.78756 16.9087 1.31544
110 1 -1.1104 6.77707 13.9737 1.05884
141 2 2.2208 10.9563 18.2397 5.3514
142 1 -1.1104 12.5128 13.9738 1.1897
144 1 -1.1104 12.475 19.5957 1.13922
146 1 -1.1104 12.372 14.034 4.17765
147 1 -1.1104 12.399 19.6384 3.99878
148 1 -1.1104 12.2552 16.8835 1.20473
150 2 2.2208 11.0135 15.5014 2.58662
151 2 2.2208 11.0421 21.0529 2.57262
152 1 -1.1104 12.6078 16.8676 4.0703
153 1 -1.1104 9.66962 14.0391 1.17537
155 1 -1.1104 9.59682 19.7121 1.18077
157 2 2.2208 8.1147 18.2567 2.58698
158 1 -1.1104 9.57526 14.0924 3.91838
159 1 -1.1104 9.63576 19.6114 3.82234
160 2 2.2208 8.17532 15.5961 5.4167
161 2 2.2208 8.23614 20.9769 5.37555
162 1 -1.1104 9.58375 16.8275 1.1792
164 1 -1.1104 9.7179 16.7645 4.13047
8762 2 2.2208 13.8297 15.4561 5.41021
156 1 -1.1104 9.54788 19.6221 6.68774
399 2 2.2208 10.9316 18.1868 -0.302335
394 2 2.2208 8.28589 15.2744 -0.228163
166 1 -1.1104 1.12442 -2.67273 6.73868
174 1 -1.1104 4.06584 0.193857 6.70812
8997 2 2.2208 -0.316655 4.16662 13.7738
8979 2 2.2208 -0.160758 4.26191 8.14007
9002 2 2.2208 -0.314929 -1.45504 13.8319
203 2 2.2208 5.35143 -4.23107 10.9696
8981 2 2.2208 -0.322653 1.46234 11.0492
175 2 2.2208 5.29802 1.40691 10.8421
176 1 -1.1104 1.03025 -2.83667 12.3979
177 1 -1.1104 1.08771 2.9761 12.345
180 1 -1.1104 1.12082 -2.68214 9.75151
181 1 -1.1104 1.17391 2.90461 9.55271
184 1 -1.1104 1.04736 0.180488 12.4946
186 2 2.2208 5.48967 -1.4282 8.16113
187 2 2.2208 5.38852 4.38138 8.13657
188 1 -1.1104 1.21862 0.118931 9.68977
190 1 -1.1104 3.93843 -2.61703 12.165
191 1 -1.1104 3.86142 2.80285 12.3476
192 2 2.2208 2.59246 1.42221 7.99115
193 1 -1.1104 4.04278 -2.60533 9.48619
194 1 -1.1104 3.89014 2.88399 9.66893
195 2 2.2208 2.44581 -1.31454 11.0031
196 2 2.2208 2.49774 4.28929 11.0216
197 1 -1.1104 3.85228 0.0605208 12.4164
198 1 -1.1104 4.01396 0.0566051 9.41981
304 2 2.2208 5.24473 4.1742 13.739
8980 2 2.2208 -0.25373 -1.33825 8.19698
305 2 2.2208 2.63508 1.43258 13.8454
8300 2 2.2208 10.8794 -4.11617 10.9502
208 1 -1.1104 9.5857 -2.809 6.62533
183 1 -1.1104 6.70703 2.99567 9.46708
178 1 -1.1104 6.7796 -2.71019 12.4471
179 1 -1.1104 6.62668 2.78966 12.2706
182 1 -1.1104 6.90183 -2.68891 9.58788
185 1 -1.1104 6.74974 0.0119932 12.3838
189 1 -1.1104 6.87964 0.105215 9.48724
308 2 2.2208 10.9063 -1.37505 13.7272
212 2 2.2208 11.0115 1.28024 10.9742
213 1 -1.1104 12.2022 -2.75038 12.3698
214 1 -1.1104 12.3369 2.84194 12.5243
215 1 -1.1104 12.3275 -2.67591 9.62272
216 1 -1.1104 12.3997 2.74837 9.55777
217 1 -1.1104 12.4221 0.0876031 12.4325
218 2 2.2208 10.9067 -1.38747 8.14949
219 2 2.2208 11.0672 4.30702 8.18593
220 1 -1.1104 12.4455 0.0455011 9.61857
221 1 -1.1104 9.44337 -2.82247 12.4908
222 1 -1.1104 9.37681 2.79293 12.1568
223 2 2.2208 8.22987 1.57151 8.17022
224 1 -1.1104 9.55887 -2.77665 9.69111
225 1 -1.1104 9.61799 2.61429 9.55073
226 2 2.2208 8.16491 -1.26392 10.9911
227 2 2.2208 8.01818 4.26524 10.9832
228 1 -1.1104 9.56336 0.0129863 12.3894
229 1 -1.1104 9.56993 -0.0954619 9.45737
307 2 2.2208 10.8463 4.20484 13.6905
309 2 2.2208 8.12489 1.46368 13.7233
62 1 -1.1104 1.24215 11.3706 6.63373
239 1 -1.1104 4.05839 5.72174 6.67682
234 1 -1.1104 1.30124 8.48448 6.87309
65 1 -1.1104 6.72153 11.3213 6.63741
238 1 -1.1104 4.06311 8.462 6.66395
310 2 2.2208 2.43986 12.3393 13.5966
240 2 2.2208 5.33052 7.06381 10.8322
241 2 2.2208 5.30202 12.8054 10.9769
242 1 -1.1104 1.23207 8.45665 12.439
244 1 -1.1104 1.22366 8.43056 9.58647
246 1 -1.1104 1.0519 5.78455 12.4043
247 1 -1.1104 0.9892 11.0991 12.2999
250 2 2.2208 5.34146 9.96679 8.11964
251 1 -1.1104 1.13426 5.63522 9.55727
252 1 -1.1104 1.22791 11.2926 9.42125
255 1 -1.1104 4.04002 8.34705 12.3133
256 2 2.2208 2.60651 7.03401 8.09437
257 2 2.2208 2.65775 12.7942 8.10145
258 1 -1.1104 4.04584 8.43395 9.46556
259 2 2.2208 2.55245 9.81388 10.8586
260 1 -1.1104 3.96133 5.58823 12.4692
261 1 -1.1104 3.89581 11.1307 12.28
262 1 -1.1104 3.92868 5.66648 9.50991
263 1 -1.1104 3.93017 11.2757 9.556
249 1 -1.1104 6.7684 11.2665 12.4833
237 1 -1.1104 6.936 5.83045 6.697
265 1 -1.1104 12.3832 8.57506 6.88059
101 1 -1.1104 9.55567 11.2978 6.80927
90 1 -1.1104 12.2781 11.2366 6.76291
245 1 -1.1104 6.80669 8.54396 9.56735
248 1 -1.1104 6.74018 5.74609 12.2461
243 1 -1.1104 6.75734 8.55611 12.3039
253 1 -1.1104 6.7912 5.761 9.46887
254 1 -1.1104 6.80112 11.3448 9.54608
267 1 -1.1104 9.48484 8.39854 6.69124
264 1 -1.1104 9.43951 11.2979 9.65819
268 1 -1.1104 9.53139 5.53843 9.46203
270 1 -1.1104 9.53881 11.3313 12.4015
271 1 -1.1104 9.45087 5.54211 12.3264
272 2 2.2208 8.14674 9.92898 10.9875
273 1 -1.1104 9.52326 8.40396 9.69596
274 2 2.2208 8.0581 12.695 8.26729
275 2 2.2208 8.19529 7.23995 8.2324
276 2 2.2208 10.8542 6.98493 10.8826
277 2 2.2208 10.9877 12.7243 11.0962
278 1 -1.1104 12.2396 8.30732 12.5013
279 1 -1.1104 12.2725 8.41158 9.69667
280 1 -1.1104 12.3595 5.68618 12.291
281 1 -1.1104 12.2785 11.1971 12.3675
282 2 2.2208 10.9857 10.0092 8.21744
283 1 -1.1104 12.3692 5.57175 9.65478
284 1 -1.1104 12.3157 11.2418 9.5882
285 1 -1.1104 9.43342 8.55664 12.4604
8983 2 2.2208 -0.159841 18.3243 10.9678
302 1 -1.1104 1.21894 19.7953 6.75281
117 1 -1.1104 1.07155 17.0418 6.75839
126 1 -1.1104 4.02959 19.6558 6.50378
133 1 -1.1104 3.92587 16.9385 6.80443
112 1 -1.1104 6.82087 19.7296 6.75188
9011 2 2.2208 -0.323202 15.5363 13.7323
290 1 -1.1104 6.85946 14.085 9.5913
201 2 2.2208 2.55446 15.407 11.1004
204 2 2.2208 2.52914 21.1979 10.8784
211 1 -1.1104 4.14367 17.0597 12.4114
230 1 -1.1104 1.18838 16.8017 12.3897
231 1 -1.1104 4.0311 14.1079 9.55354
233 1 -1.1104 3.94632 16.9348 9.64454
286 1 -1.1104 3.81702 19.7137 12.4449
287 1 -1.1104 3.8346 13.8707 12.3965
291 1 -1.1104 1.18486 19.6381 9.56562
292 1 -1.1104 1.31738 16.6735 9.48119
293 2 2.2208 5.3113 21.0961 8.04966
294 1 -1.1104 1.28661 13.9999 9.56934
295 2 2.2208 5.40894 15.6985 8.20309
298 1 -1.1104 1.0861 19.7488 12.3786
299 1 -1.1104 0.950427 14.0188 12.4169
300 2 2.2208 5.34923 18.3745 10.9063
301 1 -1.1104 3.86308 19.6604 9.4221
303 2 2.2208 2.54651 18.3402 8.08654
296 1 -1.1104 6.72217 19.4998 12.273
288 1 -1.1104 6.75297 19.6114 9.36955
289 1 -1.1104 6.76701 16.9067 9.98225
297 1 -1.1104 6.85136 14.1209 12.3399
137 1 -1.1104 9.62086 19.7549 9.51634
26 1 -1.1104 12.3777 13.9509 12.5855
145 1 -1.1104 12.2573 19.7496 6.76231
200 1 -1.1104 9.54283 17.0231 9.65929
143 1 -1.1104 12.3948 14.1226 6.94684
149 1 -1.1104 12.305 16.8749 6.85806
163 1 -1.1104 9.68993 16.997 6.81332
25 2 2.2208 11.0442 18.3375 10.9921
81 2 2.2208 11.0123 21.1365 8.22268
30 1 -1.1104 12.4752 14.1311 9.63117
31 1 -1.1104 12.4348 19.8979 9.55511
83 1 -1.1104 9.54009 14.1168 13.0241
509 1 -1.1104 9.71652 16.7694 12.2165
511 2 2.2208 10.9088 21.08 13.767
51 2 2.2208 11.0199 15.4404 8.26192
104 1 -1.1104 9.91877 19.9325 12.2683
199 2 2.2208 8.27529 20.9767 10.9237
488 2 2.2208 11.0717 15.572 13.6344
105 2 2.2208 8.21348 18.3921 8.25696
135 1 -1.1104 9.65868 14.0807 9.75728
8964 2 2.2208 13.839 18.4136 8.12404
165 2 2.2208 8.17876 15.5228 11.071
27 1 -1.1104 12.4537 19.6813 12.5613
50 1 -1.1104 12.4127 16.7952 12.2818
118 1 -1.1104 6.88966 16.9444 6.79915
154 1 -1.1104 9.58142 14.0807 6.95783
82 1 -1.1104 12.4526 17.0233 9.68501
327 2 2.2208 5.36852 1.58664 16.71
328 1 -1.1104 1.15322 -2.64293 17.935
329 1 -1.1104 1.1361 2.95195 17.9282
332 1 -1.1104 1.07057 -2.74621 15.2659
334 1 -1.1104 1.20464 2.8328 15.1019
340 1 -1.1104 1.27546 0.0904991 17.9774
342 2 2.2208 5.51902 -1.35803 19.3721
343 2 2.2208 5.38325 4.34551 19.3189
344 1 -1.1104 1.12258 0.0228692 15.0992
348 1 -1.1104 4.02237 -2.72614 17.9151
349 1 -1.1104 3.92449 3.01294 17.9693
350 2 2.2208 2.6367 1.53612 19.3987
351 1 -1.1104 3.85369 -2.58829 15.1121
353 1 -1.1104 3.98246 2.83389 15.2435
355 2 2.2208 2.62038 -1.28507 16.6335
357 1 -1.1104 3.9829 0.0297588 18.0276
358 1 -1.1104 3.91895 0.0719813 15.271
356 2 2.2208 2.51292 4.26737 16.5692
337 1 -1.1104 6.81881 -2.68328 20.8485
345 1 -1.1104 1.06701 0.19681 20.8678
354 1 -1.1104 3.95695 2.8154 20.8531
9122 2 2.2208 -0.279258 -4.07669 16.6956
8313 2 2.2208 2.5391 -4.12453 13.7316
347 1 -1.1104 6.65732 0.0829997 20.8347
352 1 -1.1104 4.16008 -2.66986 20.7095
8423 2 2.2208 5.50421 -4.06541 16.6442
306 2 2.2208 5.39038 -1.31964 13.7274
336 1 -1.1104 6.80186 -2.82006 15.1785
330 1 -1.1104 6.90515 -2.70078 17.9706
338 1 -1.1104 6.52624 2.90181 15.1538
346 1 -1.1104 6.64507 0.0486956 15.1899
331 1 -1.1104 6.72851 2.8739 18.0601
341 1 -1.1104 6.77092 0.165596 18.085
370 2 2.2208 10.8849 1.42665 16.639
371 1 -1.1104 12.2595 -2.95022 18.0659
372 1 -1.1104 12.3237 2.78161 18.1558
373 1 -1.1104 12.3692 -2.84496 15.1248
375 1 -1.1104 12.2863 2.87535 15.236
376 1 -1.1104 12.3259 0.0141242 17.9565
377 2 2.2208 10.9971 -1.38378 19.422
378 2 2.2208 10.9064 4.20494 19.4187
379 1 -1.1104 12.1337 0.0367505 15.225
381 1 -1.1104 9.60926 -2.76165 17.9409
382 1 -1.1104 9.55859 2.78718 18.0138
383 2 2.2208 8.17562 1.39444 19.4107
384 1 -1.1104 9.52527 -2.77947 15.1861
386 1 -1.1104 9.35405 2.99011 15.1797
388 2 2.2208 8.143 -1.27738 16.4928
389 2 2.2208 8.24978 4.3198 16.6275
390 1 -1.1104 9.62932 0.0324502 18.0214
391 1 -1.1104 9.46248 0.169335 15.0305
374 1 -1.1104 12.2763 -2.75204 20.916
385 1 -1.1104 9.65082 -2.73285 20.7645
9089 2 2.2208 13.6518 -1.51414 16.6036
402 2 2.2208 5.3912 7.10092 16.6747
403 2 2.2208 5.29342 12.5294 16.6077
404 1 -1.1104 1.12017 8.55062 17.8978
406 1 -1.1104 1.18621 8.369 15.2424
410 1 -1.1104 1.30574 5.79641 17.901
411 1 -1.1104 1.23104 11.3135 17.9471
414 2 2.2208 5.3809 9.92209 19.3742
415 1 -1.1104 1.12916 5.60828 15.129
417 1 -1.1104 1.15529 11.1344 15.1123
423 1 -1.1104 3.9688 8.4948 18.0118
424 2 2.2208 2.51783 7.14156 19.4435
425 2 2.2208 2.59176 12.5974 19.2666
426 1 -1.1104 3.8716 8.49965 15.2099
428 2 2.2208 2.54118 9.80785 16.5287
429 1 -1.1104 4.10567 5.74514 18.0963
430 1 -1.1104 3.90861 11.1127 18.0334
431 1 -1.1104 3.90844 5.78049 15.222
433 1 -1.1104 3.74304 11.4715 15.2588
421 1 -1.1104 6.42732 11.1031 15.2122
416 1 -1.1104 1.16714 5.72343 20.7509
408 1 -1.1104 6.66425 8.39648 15.1434
312 2 2.2208 2.56398 7.08582 13.8142
311 2 2.2208 5.26506 9.73403 13.6559
419 1 -1.1104 6.83806 5.57246 15.0903
405 1 -1.1104 6.80389 8.59295 18.0685
413 1 -1.1104 6.7878 11.4825 18.1293
412 1 -1.1104 6.81836 5.59719 17.9024
439 2 2.2208 11.0271 7.07787 16.6243
440 2 2.2208 10.9378 12.5838 16.7946
441 1 -1.1104 12.4842 8.43781 18.0636
442 1 -1.1104 12.4259 8.4595 15.2876
444 1 -1.1104 12.2493 5.44611 17.996
445 1 -1.1104 12.4401 11.3971 18.169
446 2 2.2208 11.0693 9.83568 19.4607
447 1 -1.1104 12.3028 5.68111 15.1532
449 1 -1.1104 12.232 11.2775 15.278
451 1 -1.1104 9.71667 8.42522 17.9506
452 2 2.2208 8.10156 7.16005 19.4388
453 2 2.2208 8.32565 12.6072 19.5855
454 1 -1.1104 9.57733 8.72658 15.2612
456 2 2.2208 8.23497 9.89852 16.6808
457 1 -1.1104 9.49057 5.74121 17.9828
458 1 -1.1104 9.60496 11.0676 18.2408
459 1 -1.1104 9.63329 5.78534 15.0067
461 1 -1.1104 9.40694 11.621 15.2289
9108 1 -1.1104 12.3548 8.50146 20.8483
9120 2 2.2208 13.7399 6.96739 19.4614
9119 2 2.2208 13.6711 9.85435 16.6835
314 2 2.2208 10.9137 9.96722 13.741
9113 2 2.2208 13.7493 12.7062 13.8963
315 2 2.2208 8.05429 7.08457 13.6525
313 2 2.2208 7.94615 12.736 13.8665
465 1 -1.1104 1.07425 13.9167 17.9556
466 1 -1.1104 1.36713 19.8667 17.7703
467 1 -1.1104 3.92469 13.8782 17.7268
469 1 -1.1104 1.43726 13.9165 15.1357
471 1 -1.1104 1.26306 19.6487 15.0607
477 1 -1.1104 1.1231 16.882 15.16
479 1 -1.1104 3.85542 16.5374 15.6437
480 1 -1.1104 4.01188 19.4701 15.452
481 2 2.2208 2.34247 15.3505 16.6331
482 2 2.2208 2.62836 21.1017 16.5148
483 1 -1.1104 0.985686 16.7218 17.9656
464 2 2.2208 5.57658 17.8716 15.7096
474 1 -1.1104 6.82944 19.6036 15.1279
468 1 -1.1104 6.61732 17.984 17.5819
365 2 2.2208 -0.0892991 20.9533 19.3993
9230 2 2.2208 -0.120283 18.1963 16.6973
486 2 2.2208 5.6646 21.0222 13.6771
485 2 2.2208 2.51651 18.2254 13.7053
396 2 2.2208 13.5141 15.6269 16.5512
476 1 -1.1104 6.93398 13.7267 15.5658
489 2 2.2208 10.9733 18.263 16.7193
490 1 -1.1104 12.5049 14.1397 18.1414
491 1 -1.1104 12.3371 19.8413 17.9612
492 1 -1.1104 11.9538 14.1079 15.4151
494 1 -1.1104 12.4026 19.6286 15.2775
496 1 -1.1104 12.2835 16.9281 17.9823
497 2 2.2208 10.8742 15.4269 19.3437
498 2 2.2208 10.9866 21.1134 19.3348
499 1 -1.1104 12.0494 16.9895 15.1392
501 1 -1.1104 9.63405 13.7433 18.0851
502 1 -1.1104 9.53926 19.6648 18.1206
503 2 2.2208 7.9941 18.1845 19.3865
505 1 -1.1104 9.64703 19.5935 15.2914
507 2 2.2208 8.30841 20.9615 16.586
508 1 -1.1104 9.55285 16.8237 17.8108
359 1 -1.1104 3.88347 0.108418 20.766
333 1 -1.1104 1.43825 -2.59657 20.7984
335 1 -1.1104 1.16985 2.8705 20.8051
339 1 -1.1104 6.77707 2.88663 20.8406
8369 2 2.2208 2.48237 -4.20519 24.8968
9047 2 2.2208 -0.147907 -1.31961 24.938
9086 2 2.2208 -0.243001 4.33284 24.9545
9049 2 2.2208 -0.201094 1.51231 22.1162
9048 2 2.2208 -0.218323 -4.04104 22.0917
514 2 2.2208 5.34616 1.49038 22.2224
515 1 -1.1104 1.21411 -2.71939 23.5764
516 1 -1.1104 1.20397 3.0198 23.547
519 1 -1.1104 1.11167 -2.81025 26.3048
520 1 -1.1104 1.12947 2.9404 26.3676
523 1 -1.1104 1.35856 0.0932055 23.6911
525 2 2.2208 5.31234 -1.36329 24.9466
526 2 2.2208 5.41132 4.28308 25.0042
527 1 -1.1104 0.990653 -0.0800521 26.4146
529 1 -1.1104 3.98598 -2.72885 23.7234
530 1 -1.1104 4.11645 2.80419 23.6674
531 2 2.2208 2.64258 1.48859 24.9342
532 1 -1.1104 3.92044 -2.79469 26.3671
533 1 -1.1104 3.84772 2.8191 26.5119
534 2 2.2208 2.65263 -1.30938 22.272
535 2 2.2208 2.60537 4.24897 22.1964
536 1 -1.1104 4.03711 0.111942 23.5862
537 1 -1.1104 3.81713 0.0202743 26.2916
524 1 -1.1104 6.71522 0.04691 23.5742
521 1 -1.1104 6.83041 -2.81082 26.3849
528 1 -1.1104 6.62107 0.0377726 26.2406
522 1 -1.1104 6.746 2.9197 26.3718
316 2 2.2208 5.34892 1.54143 27.7851
392 1 -1.1104 9.61597 0.0429085 20.7155
387 1 -1.1104 9.4976 2.83186 20.7259
380 1 -1.1104 12.4782 0.00657264 20.7651
518 1 -1.1104 6.97672 2.99305 23.6176
517 1 -1.1104 6.87128 -2.66139 23.4881
9295 1 -1.1104 12.2976 2.60855 20.807
9045 2 2.2208 13.8037 -1.35139 22.2057
549 2 2.2208 10.9619 1.2851 21.9507
550 1 -1.1104 12.4572 -2.74476 23.5688
551 1 -1.1104 12.1641 0.0255824 23.5814
552 1 -1.1104 12.4061 -2.80099 26.3676
553 1 -1.1104 12.2955 3.2439 26.4658
554 2 2.2208 11.0945 -1.35755 24.8865
556 1 -1.1104 9.74443 -2.67959 23.5749
557 1 -1.1104 9.90277 2.73401 23.4952
558 2 2.2208 8.23731 1.48357 24.8815
559 1 -1.1104 9.63009 -2.6639 26.434
560 1 -1.1104 9.48999 2.80995 26.3546
561 2 2.2208 8.28214 -1.41268 22.2109
563 1 -1.1104 9.49804 0.0435265 23.4797
564 1 -1.1104 9.58606 -0.10752 26.2193
37 1 -1.1104 12.3739 -0.0164394 26.4688
555 2 2.2208 10.8812 4.14852 24.9819
562 2 2.2208 8.16776 4.38894 22.1776
321 2 2.2208 10.9415 1.36202 27.6696
8990 2 2.2208 13.5198 -1.37599 27.7171
8367 2 2.2208 8.25809 -4.05817 24.9675
323 2 2.2208 8.26107 4.31857 27.6541
9090 2 2.2208 -0.232807 9.78595 25.0406
418 1 -1.1104 1.10639 11.2526 20.6433
407 1 -1.1104 1.19089 8.53626 20.8012
434 1 -1.1104 3.87646 11.4469 20.8271
427 1 -1.1104 3.98933 8.5504 20.7987
8991 2 2.2208 -0.163156 6.92342 27.8524
432 1 -1.1104 3.80077 5.69866 20.7889
577 2 2.2208 5.3205 7.19853 22.1016
578 2 2.2208 5.48004 12.6114 22.263
579 1 -1.1104 1.19267 8.4235 23.5742
581 1 -1.1104 1.27479 8.46826 26.4006
583 1 -1.1104 1.27396 5.81757 23.6071
584 1 -1.1104 1.39588 11.3676 23.4826
587 2 2.2208 5.35874 9.86832 25.0056
588 1 -1.1104 1.27356 5.63349 26.3494
589 1 -1.1104 1.10712 11.425 26.3719
592 1 -1.1104 3.98263 8.49927 23.6818
593 2 2.2208 2.65568 7.08001 25.0343
594 2 2.2208 2.60573 12.7818 24.9639
595 1 -1.1104 4.02679 8.48343 26.4759
596 2 2.2208 2.59832 9.90935 22.1849
597 1 -1.1104 3.99753 5.53791 23.6147
598 1 -1.1104 4.03692 11.3962 23.656
599 1 -1.1104 3.94899 5.66392 26.3651
600 1 -1.1104 3.86447 11.4851 26.4783
580 1 -1.1104 6.75357 8.46011 23.5182
591 1 -1.1104 6.74432 11.3099 26.4853
422 1 -1.1104 6.84389 11.1013 20.8804
409 1 -1.1104 6.67272 8.54216 20.8002
460 1 -1.1104 9.52925 5.74518 20.7849
443 1 -1.1104 12.3288 5.67025 20.8334
450 1 -1.1104 12.5393 11.2606 20.8833
455 1 -1.1104 9.53548 8.51367 20.731
420 1 -1.1104 6.65749 5.73234 20.7494
582 1 -1.1104 6.7001 8.51267 26.3394
586 1 -1.1104 6.76962 11.1999 23.6158
590 1 -1.1104 6.78291 5.75685 26.2625
462 1 -1.1104 9.66258 11.2896 20.8601
9232 2 2.2208 13.7866 9.66232 27.6859
9300 2 2.2208 13.7104 9.87105 22.2552
585 1 -1.1104 6.66055 5.8051 23.5306
605 1 -1.1104 9.54885 11.2277 26.3641
606 1 -1.1104 9.84859 5.59996 26.3615
607 1 -1.1104 9.5118 11.2128 23.7184
608 1 -1.1104 9.70986 5.48868 23.5812
609 2 2.2208 8.26729 9.84371 22.1942
610 1 -1.1104 9.37627 8.4453 26.4924
611 2 2.2208 8.18129 12.6207 24.9665
612 2 2.2208 8.14832 7.22629 24.9487
613 2 2.2208 10.9264 7.14214 22.0919
614 2 2.2208 10.9609 12.6499 22.3884
615 1 -1.1104 12.3186 8.2822 23.615
616 1 -1.1104 12.1294 8.22711 26.5639
617 1 -1.1104 12.2788 11.1464 23.6568
618 2 2.2208 11.0381 9.59668 25.1496
619 1 -1.1104 12.283 11.2377 26.3483
620 1 -1.1104 9.54509 8.36142 23.4968
470 1 -1.1104 1.39893 14.3301 20.6547
539 1 -1.1104 6.68645 14.0691 23.6637
472 1 -1.1104 1.03796 19.5797 20.9999
393 1 -1.1104 6.70053 16.8143 23.6552
484 1 -1.1104 3.59073 17.0658 20.9854
360 2 2.2208 2.45975 21.1493 22.2098
361 1 -1.1104 3.81486 16.704 23.7289
362 1 -1.1104 1.1036 16.9108 23.5199
397 1 -1.1104 4.09559 14.2309 26.3951
401 1 -1.1104 4.07278 17.0036 26.337
435 2 2.2208 2.48878 18.2198 25.0813
438 1 -1.1104 3.86959 19.7404 26.343
448 2 2.2208 5.24537 18.1815 22.0443
463 1 -1.1104 1.10819 14.1312 23.558
538 1 -1.1104 1.13056 19.7667 23.7257
540 2 2.2208 5.43318 15.6271 25.088
543 2 2.2208 5.38491 21.1682 24.9264
565 1 -1.1104 1.25978 14.1595 26.2852
566 1 -1.1104 1.20858 16.8304 26.3275
567 1 -1.1104 1.01377 19.6397 26.5491
571 2 2.2208 2.43166 15.6869 22.239
602 1 -1.1104 3.83745 13.9743 23.2056
626 1 -1.1104 3.91269 19.662 23.2159
545 1 -1.1104 6.7684 19.6713 23.5438
601 1 -1.1104 6.79071 16.8962 26.4869
473 1 -1.1104 6.67663 13.8198 20.8476
547 1 -1.1104 12.2577 16.7768 23.4216
572 1 -1.1104 12.1896 16.9328 26.4244
475 1 -1.1104 6.72546 19.5746 20.7996
568 2 2.2208 10.8231 21.0523 24.889
504 1 -1.1104 9.54522 14.1019 20.9311
493 1 -1.1104 12.3151 13.9861 20.8336
500 1 -1.1104 12.2925 16.8461 20.717
604 1 -1.1104 9.59378 13.8908 26.5254
575 2 2.2208 8.12845 18.2496 25.04
398 1 -1.1104 9.38947 16.7055 26.3412
573 1 -1.1104 9.39987 14.088 23.7118
437 2 2.2208 8.03517 21.128 22.0915
478 1 -1.1104 6.73151 16.8782 20.9336
576 1 -1.1104 6.69882 19.6777 26.3942
621 1 -1.1104 6.85373 14.0419 26.4022
512 2 2.2208 10.8826 18.3771 22.1446
574 1 -1.1104 9.51126 19.5262 23.5804
625 2 2.2208 8.13374 15.4476 22.2108
548 2 2.2208 10.864 15.4963 25.0162
546 1 -1.1104 12.2575 19.5842 26.4344
510 1 -1.1104 9.47285 16.8529 20.5825
506 1 -1.1104 9.45545 19.6414 20.7625
513 1 -1.1104 12.3934 13.9009 23.758
495 1 -1.1104 12.5598 19.8078 20.7673
364 2 2.2208 13.6883 15.3768 22.1839
367 2 2.2208 13.7082 18.3733 24.8563
544 1 -1.1104 9.66354 16.8277 23.5093
541 1 -1.1104 12.3772 19.685 23.5022
624 1 -1.1104 9.40423 19.5756 26.4891
542 1 -1.1104 12.4057 14.1146 26.2984
627 2 2.2208 5.26764 23.9358 5.29022
628 2 2.2208 5.48879 29.5599 5.34683
629 1 -1.1104 1.1527 25.1834 1.04749
630 1 -1.1104 1.17768 25.4042 3.94506
631 1 -1.1104 1.05192 22.4483 1.22987
632 1 -1.1104 1.16355 28.0482 1.1163
633 2 2.2208 5.40447 26.7374 2.56488
634 1 -1.1104 1.13406 22.4776 3.96448
635 1 -1.1104 1.13543 28.0919 3.92172
636 1 -1.1104 3.92278 25.3912 1.27157
637 2 2.2208 2.5777 23.897 2.52071
638 2 2.2208 2.61394 29.653 2.58633
639 1 -1.1104 3.93115 25.2438 4.00635
640 2 2.2208 2.56403 26.7885 5.33942
641 1 -1.1104 3.99149 22.4401 1.17479
642 1 -1.1104 3.98037 28.0724 1.14095
643 1 -1.1104 3.87427 22.4246 3.91495
644 1 -1.1104 4.02181 28.1414 3.97428
652 1 -1.1104 6.79811 22.3878 4.00455
647 2 2.2208 -0.203324 26.6223 2.54851
645 2 2.2208 -0.184448 29.4891 5.33159
1182 2 2.2208 5.48948 24.0229 -0.193205
1184 2 2.2208 5.48564 29.583 -0.198834
1183 2 2.2208 2.64333 26.8548 -0.261405
651 1 -1.1104 6.74301 28.1493 1.26875
653 1 -1.1104 6.74883 28.0949 3.96462
649 1 -1.1104 6.84174 25.3421 3.83026
650 1 -1.1104 6.82107 22.5702 1.24019
648 1 -1.1104 6.83853 25.3676 1.03991
654 2 2.2208 10.971 23.9894 5.30377
655 2 2.2208 10.9883 29.5346 5.30574
656 1 -1.1104 12.419 25.2622 1.14321
657 1 -1.1104 12.5305 25.2942 3.90222
658 1 -1.1104 12.3538 22.4444 1.15
659 1 -1.1104 12.3835 28.2327 1.08866
660 2 2.2208 11.0272 26.765 2.53293
661 1 -1.1104 12.382 22.477 3.90283
662 1 -1.1104 12.4578 28.1713 3.97685
663 1 -1.1104 9.71903 25.4969 1.1378
664 2 2.2208 8.32471 24.0278 2.39423
665 2 2.2208 8.21443 29.5537 2.52607
666 1 -1.1104 9.64013 25.2954 3.98042
667 2 2.2208 8.20424 26.6873 5.28345
668 1 -1.1104 9.60938 22.6576 1.12943
669 1 -1.1104 9.72962 28.2675 1.14804
670 1 -1.1104 9.61602 22.4177 3.88584
671 1 -1.1104 9.63678 28.0119 3.89947
672 2 2.2208 13.8052 23.8488 2.53938
1213 2 2.2208 8.15897 26.8232 -0.196841
1218 2 2.2208 11.0335 29.5339 -0.167066
1212 2 2.2208 11.1182 23.8365 -0.231499
696 2 2.2208 -0.260266 37.9483 2.63633
675 2 2.2208 5.31232 35.1748 5.26701
676 1 -1.1104 1.08207 30.8439 1.18292
677 1 -1.1104 1.21219 36.4208 1.13165
679 1 -1.1104 1.18429 31.0974 3.97792
680 1 -1.1104 1.2052 36.6197 3.90093
682 1 -1.1104 1.16484 33.7252 1.20419
683 2 2.2208 5.46287 32.3191 2.50415
684 2 2.2208 5.41323 37.9987 2.61537
685 1 -1.1104 1.14394 33.7619 4.05323
687 1 -1.1104 3.85247 31.0447 1.16351
688 1 -1.1104 3.97064 36.541 1.22916
689 2 2.2208 2.58871 35.0745 2.54959
690 1 -1.1104 4.13118 30.9322 3.95646
691 1 -1.1104 4.08414 36.5258 3.93126
692 2 2.2208 2.51202 32.3833 5.23271
693 2 2.2208 2.42954 37.9268 5.30886
694 1 -1.1104 3.92129 33.6541 1.31389
695 1 -1.1104 3.95526 33.6944 3.95624
831 1 -1.1104 4.01754 30.8588 6.69368
699 1 -1.1104 6.753 30.8955 1.24043
828 1 -1.1104 6.56853 36.5628 6.81073
826 1 -1.1104 1.09665 36.673 6.85811
829 1 -1.1104 1.1747 33.6806 6.80215
701 1 -1.1104 6.72018 33.7525 1.13825
1243 2 2.2208 5.36874 35.0795 -0.226956
698 2 2.2208 -0.226617 35.1631 5.33678
697 2 2.2208 -0.345502 32.3112 2.53515
1242 2 2.2208 2.6323 32.2241 -0.282948
678 1 -1.1104 6.81283 36.5551 1.24942
700 1 -1.1104 6.86307 30.7186 3.97432
686 1 -1.1104 6.87796 33.6709 3.91535
681 1 -1.1104 6.81049 36.5133 3.9715
830 1 -1.1104 6.7931 33.8073 6.69038
702 2 2.2208 11.0694 35.14 5.42594
703 1 -1.1104 12.526 30.9717 1.17359
704 1 -1.1104 12.3495 36.545 1.07982
705 1 -1.1104 12.4352 30.9961 3.93849
706 1 -1.1104 12.3842 36.5709 3.87497
707 1 -1.1104 12.4522 33.7767 1.24606
708 2 2.2208 11.1095 32.3273 2.54447
709 2 2.2208 11.0553 37.9461 2.49437
710 1 -1.1104 12.3652 33.7109 3.96521
711 1 -1.1104 9.63294 30.8192 1.14739
712 1 -1.1104 9.56961 36.5059 1.14559
713 2 2.2208 8.15575 35.1652 2.52523
714 1 -1.1104 9.66704 30.8641 4.03913
715 1 -1.1104 9.62268 36.6759 3.93507
716 2 2.2208 8.15777 32.2651 5.33379
717 2 2.2208 8.16194 37.9542 5.36367
718 1 -1.1104 9.46463 33.6134 1.20868
719 1 -1.1104 9.59091 33.5943 3.91627
944 2 2.2208 13.8209 32.4317 5.40192
863 1 -1.1104 9.41582 36.6932 6.76468
1272 2 2.2208 8.25579 32.3347 -0.259702
1274 2 2.2208 13.9031 32.2542 -0.270774
963 2 2.2208 2.58186 43.5864 -0.229965
747 2 2.2208 -0.242006 40.6676 5.38916
721 2 2.2208 5.38957 40.7312 5.34993
722 2 2.2208 5.37968 46.3984 5.25018
723 1 -1.1104 1.23575 42.1486 1.13559
725 1 -1.1104 1.17662 42.0368 3.94401
727 1 -1.1104 1.21402 39.3889 1.21201
728 1 -1.1104 1.007 44.9047 1.14387
731 2 2.2208 5.30729 43.6233 2.42635
732 1 -1.1104 1.06427 39.3051 4.05523
733 1 -1.1104 1.02994 44.7145 4.12309
736 1 -1.1104 3.86213 42.2578 1.25052
737 2 2.2208 2.54859 40.8077 2.5979
738 2 2.2208 2.35364 46.351 2.50094
739 1 -1.1104 4.0454 42.2351 4.05055
740 2 2.2208 2.60712 43.475 5.43066
741 1 -1.1104 4.01392 39.3765 1.22262
742 1 -1.1104 3.7551 45.2828 1.05891
743 1 -1.1104 3.9278 39.3154 3.97541
744 1 -1.1104 3.92508 45.0591 3.93894
730 1 -1.1104 6.75297 45.0616 1.02088
735 1 -1.1104 6.61244 44.9951 3.78367
899 1 -1.1104 1.1328 39.4213 6.8779
9659 2 2.2208 -0.285395 46.2529 5.31074
964 2 2.2208 -0.352897 46.2743 -0.392612
966 2 2.2208 5.39059 46.3171 -0.323763
726 1 -1.1104 7.02418 42.1899 3.88066
724 1 -1.1104 6.59262 42.2355 1.10598
734 1 -1.1104 6.79036 39.3658 3.94984
729 1 -1.1104 6.88625 39.3387 1.12754
764 1 -1.1104 9.38518 39.3944 3.85879
748 2 2.2208 10.9041 40.8427 5.36871
749 2 2.2208 11.0686 46.5173 5.18899