ITEM: TIMESTEP
70000
ITEM: NUMBER OF ATOMS
17910
ITEM: BOX BOUNDS pp pp pp
-3.5409962051523491e-01 2.7694099620515907e+01
-4.3220225422736993e+00 3.3240202254227268e+02
-3.5758336252402906e-01 2.7697583362524377e+01
ITEM: ATOMS id type q x y z
1 2 2.2208 5.46323 1.29329 5.29372
2 1 -1.1104 1.13847 -3.09561 1.04887
3 1 -1.1104 1.17396 2.66918 0.920619
6 1 -1.1104 1.20166 -3.02311 3.91109
7 1 -1.1104 1.20937 2.59489 3.84553
10 1 -1.1104 1.22752 -0.117373 0.930089
12 2 2.2208 5.39599 -1.54426 2.54471
13 2 2.2208 5.42674 4.16569 2.41008
14 1 -1.1104 1.22187 -0.273763 3.79793
16 1 -1.1104 3.97741 -2.89255 0.983714
17 1 -1.1104 3.87968 2.63408 1.26633
18 2 2.2208 2.61466 1.35219 2.57585
19 1 -1.1104 4.00945 -2.92034 3.84873
20 1 -1.1104 4.08742 2.73779 3.83044
21 2 2.2208 2.61177 -1.55807 5.2446
22 2 2.2208 2.64329 4.07741 5.02215
23 1 -1.1104 4.06002 -0.179293 1.28361
24 1 -1.1104 3.86419 -0.0894931 3.96182
8966 2 2.2208 -0.254204 4.05525 2.55138
8965 2 2.2208 -0.222126 1.20284 5.25345
8962 2 2.2208 -0.160152 -1.56703 2.37642
28 2 2.2208 2.69428 -4.33438 2.44363
8313 2 2.2208 2.56314 -4.28528 13.639
174 1 -1.1104 3.98824 -0.148928 6.54001
173 1 -1.1104 4.05616 2.77565 6.66625
167 1 -1.1104 1.23789 2.68376 6.60035
172 1 -1.1104 3.88122 -3.03499 6.68116
171 1 -1.1104 6.92704 -0.277112 6.69503
317 2 2.2208 2.62178 -1.42207 -0.441166
8984 2 2.2208 -0.148554 21.0978 8.06946
5 1 -1.1104 6.68181 2.73329 1.00401
8 1 -1.1104 6.84874 -2.90925 3.89086
15 1 -1.1104 6.71936 -0.185323 3.78793
4 1 -1.1104 6.78524 -2.97727 1.16061
9 1 -1.1104 6.77086 2.7839 3.76457
11 1 -1.1104 6.95297 -0.132379 1.05137
32 2 2.2208 10.8358 1.32457 5.23654
33 1 -1.1104 12.3186 -2.93924 0.951234
34 1 -1.1104 12.3687 2.72901 1.17601
35 1 -1.1104 12.485 -2.81444 3.84092
36 1 -1.1104 12.3054 2.68697 3.93377
38 2 2.2208 11.071 -1.47392 2.36229
39 2 2.2208 10.9478 4.10624 2.34588
40 1 -1.1104 12.3693 -0.126079 3.84987
41 1 -1.1104 9.6119 -2.98899 1.10641
42 1 -1.1104 9.572 2.86273 0.998311
43 2 2.2208 8.15901 1.34602 2.39702
44 1 -1.1104 9.64783 -2.86006 3.82167
45 1 -1.1104 9.59696 2.72964 3.85325
46 2 2.2208 8.16811 -1.63106 5.1833
48 1 -1.1104 9.75221 -0.00875537 0.895841
49 1 -1.1104 9.65808 -0.0548431 3.79392
8662 1 -1.1104 12.7342 -0.191299 1.0648
47 2 2.2208 8.17264 4.05359 5.33281
8299 2 2.2208 8.2792 -4.40726 2.42916
8967 2 2.2208 -0.21942 -4.37685 5.15388
209 1 -1.1104 9.59161 2.64569 6.68319
169 1 -1.1104 6.80815 2.60482 6.6299
205 1 -1.1104 12.2646 -2.78881 6.64437
206 1 -1.1104 12.3677 2.91771 6.69495
207 1 -1.1104 12.4061 0.0219415 6.57347
8982 2 2.2208 -0.310686 15.3673 8.10416
363 2 2.2208 -0.282565 21.0314 13.6152
54 2 2.2208 5.39295 6.95303 5.29072
55 2 2.2208 5.41744 12.442 5.29114
56 1 -1.1104 1.15805 8.2235 1.02782
58 1 -1.1104 1.22469 8.3184 3.76528
60 1 -1.1104 1.35054 5.52103 0.926351
61 1 -1.1104 1.12181 11.2114 0.905438
66 2 2.2208 5.37905 9.63818 2.45076
67 1 -1.1104 1.12019 5.49084 3.73334
68 1 -1.1104 1.00363 11.1901 3.67848
71 1 -1.1104 3.85367 8.26262 0.884123
72 2 2.2208 2.69883 6.92223 2.44338
73 2 2.2208 2.39463 12.6402 2.4608
74 1 -1.1104 4.00029 8.20603 3.9037
75 2 2.2208 2.53073 9.72802 5.11337
76 1 -1.1104 4.1767 5.30836 0.872218
77 1 -1.1104 3.84119 11.0271 1.16802
79 1 -1.1104 3.96539 5.32977 3.67795
80 1 -1.1104 4.04919 10.9626 3.83948
8973 2 2.2208 -0.374262 12.5456 5.20323
8971 2 2.2208 -0.191635 6.93966 5.17766
8972 2 2.2208 -0.220966 9.66894 2.33475
238 1 -1.1104 3.86204 8.12515 6.59022
57 1 -1.1104 6.6246 8.34834 0.94857
325 2 2.2208 2.52322 9.73852 -0.450788
78 1 -1.1104 3.98313 11.0236 6.59867
234 1 -1.1104 1.14274 8.47014 6.54307
8977 2 2.2208 -0.198526 18.1554 5.29883
603 2 2.2208 5.34896 12.59 -0.396968
82 1 -1.1104 12.3382 16.6305 9.43035
63 1 -1.1104 6.80848 5.59514 0.885994
64 1 -1.1104 6.7562 11.2318 1.06026
69 1 -1.1104 6.73244 5.62244 3.78426
59 1 -1.1104 6.73295 8.35372 3.72128
70 1 -1.1104 6.76655 11.0278 3.80476
84 2 2.2208 11.0094 6.83917 5.08166
85 2 2.2208 11.0585 12.6102 5.30504
86 1 -1.1104 12.3666 8.36573 1.16968
87 1 -1.1104 12.2569 8.49452 3.87467
88 1 -1.1104 12.3107 5.46962 0.753465
89 1 -1.1104 12.4198 11.0428 1.08678
91 2 2.2208 10.97 9.7696 2.51596
92 1 -1.1104 12.2719 5.58194 3.66772
93 1 -1.1104 12.5027 11.2481 3.95642
94 1 -1.1104 9.41896 8.41381 1.03701
95 2 2.2208 8.12863 7.02275 2.45794
96 2 2.2208 8.11468 12.6217 2.43884
97 1 -1.1104 9.41773 8.49273 3.72889
98 2 2.2208 8.17066 9.79045 5.16766
99 1 -1.1104 9.4952 5.67271 1.01254
100 1 -1.1104 9.56084 11.2697 0.955039
102 1 -1.1104 9.56934 5.58715 3.74178
103 1 -1.1104 9.5744 11.2507 3.75871
290 1 -1.1104 6.80235 14.0855 9.47042
235 1 -1.1104 6.70809 8.369 6.62882
266 1 -1.1104 12.3727 5.52549 6.54572
65 1 -1.1104 6.78343 11.1676 6.66012
265 1 -1.1104 12.3303 8.39985 6.60844
101 1 -1.1104 9.58369 11.2894 6.56476
165 2 2.2208 8.24158 15.3182 10.8243
199 2 2.2208 8.1442 20.8982 11.077
51 2 2.2208 11.0016 15.3438 8.08317
149 1 -1.1104 12.3001 16.7321 6.77263
106 2 2.2208 5.19752 18.1163 5.24537
107 1 -1.1104 1.08206 13.9951 0.965575
109 1 -1.1104 1.20445 19.6908 1.09053
113 1 -1.1104 0.96988 13.914 3.79204
114 1 -1.1104 1.21275 19.4628 3.93143
116 1 -1.1104 0.953873 16.8461 1.07978
119 2 2.2208 5.12636 15.2772 2.52931
120 2 2.2208 5.34381 20.8862 2.42997
121 1 -1.1104 1.12292 16.6104 3.85762
123 1 -1.1104 3.89372 13.9294 1.07145
125 1 -1.1104 4.03491 19.4969 1.00082
127 2 2.2208 2.54177 18.2223 2.46577
128 1 -1.1104 3.90414 13.876 3.97291
129 1 -1.1104 3.90255 19.5934 3.83811
130 2 2.2208 2.43775 15.2523 5.30288
131 2 2.2208 2.45133 20.9906 5.28245
132 1 -1.1104 3.7871 16.6321 1.19551
134 1 -1.1104 3.93438 16.6221 3.87776
8976 2 2.2208 -0.457211 15.3953 2.40715
570 2 2.2208 2.52738 21.0534 -0.325098
136 2 2.2208 -0.290799 20.8647 2.63269
133 1 -1.1104 3.91263 16.8088 6.65622
110 1 -1.1104 6.79072 13.9511 0.919547
122 1 -1.1104 6.69914 16.7906 3.94088
302 1 -1.1104 1.20677 19.5404 6.65303
117 1 -1.1104 1.09087 16.7616 6.66772
124 1 -1.1104 3.9783 13.9071 6.61876
31 1 -1.1104 12.2888 19.5832 9.603
400 2 2.2208 8.03495 21.1242 -0.182171
112 1 -1.1104 6.73526 19.5007 6.5757
138 1 -1.1104 6.81995 19.5017 1.10324
399 2 2.2208 10.9417 18.1884 -0.254387
139 1 -1.1104 6.76398 19.7168 3.79168
115 1 -1.1104 6.6285 13.8262 3.80101
140 1 -1.1104 6.69663 16.687 1.09699
141 2 2.2208 10.9407 18.146 5.32649
142 1 -1.1104 12.3927 13.9265 0.937997
144 1 -1.1104 12.3202 19.7093 1.13359
146 1 -1.1104 12.3137 13.9303 3.7779
147 1 -1.1104 12.2317 19.5763 3.94724
148 1 -1.1104 12.39 16.8274 1.13801
150 2 2.2208 10.9281 15.3011 2.39241
151 2 2.2208 10.9026 21.0346 2.45304
152 1 -1.1104 12.3796 16.8861 3.99619
153 1 -1.1104 9.62626 13.9933 0.963181
155 1 -1.1104 9.43845 19.5621 1.10565
157 2 2.2208 7.99562 18.2116 2.51939
158 1 -1.1104 9.42592 14.0507 3.82432
159 1 -1.1104 9.5166 19.6448 3.96741
160 2 2.2208 8.05855 15.4377 5.35118
161 2 2.2208 7.96061 21.0431 5.24074
162 1 -1.1104 9.59472 16.8266 1.0699
164 1 -1.1104 9.5667 16.7348 4.05658
394 2 2.2208 8.12648 15.3871 -0.393806
154 1 -1.1104 9.60055 14.0117 6.71197
8983 2 2.2208 -0.238273 18.2907 10.748
8886 2 2.2208 -0.243139 12.4586 10.7597
8979 2 2.2208 -0.0942504 4.11595 7.93928
8981 2 2.2208 -0.175459 1.32296 10.7992
170 1 -1.1104 1.09403 -0.0174954 6.71916
166 1 -1.1104 1.09486 -2.80513 6.63343
175 2 2.2208 5.52684 1.35011 10.7797
176 1 -1.1104 1.18468 -2.77553 12.3469
177 1 -1.1104 1.14955 2.73772 12.1609
180 1 -1.1104 1.24679 -2.85776 9.48234
181 1 -1.1104 1.29491 2.72825 9.26194
184 1 -1.1104 1.24739 0.0273072 12.2997
186 2 2.2208 5.48291 -1.53412 8.05918
187 2 2.2208 5.38934 4.05929 8.07716
188 1 -1.1104 1.27404 0.030096 9.46629
190 1 -1.1104 4.03638 -2.82269 12.193
191 1 -1.1104 3.97532 2.61465 12.2067
192 2 2.2208 2.65475 1.35398 7.96472
193 1 -1.1104 3.97848 -2.91588 9.34269
194 1 -1.1104 4.01981 2.81422 9.42212
195 2 2.2208 2.65826 -1.47541 10.8149
196 2 2.2208 2.59187 4.12239 10.7566
197 1 -1.1104 4.07952 -0.133983 12.334
198 1 -1.1104 4.15779 -0.139524 9.51206
8980 2 2.2208 -0.123257 -1.45256 8.10716
26 1 -1.1104 12.3961 14.0137 12.1749
8300 2 2.2208 11.1457 -4.36927 10.8665
183 1 -1.1104 6.85466 2.73608 9.37027
179 1 -1.1104 6.69479 2.77725 12.0541
210 1 -1.1104 9.60071 -0.0957298 6.64614
168 1 -1.1104 6.64145 -3.06893 6.54102
189 1 -1.1104 6.7927 -0.136813 9.52345
185 1 -1.1104 6.8418 -0.00282622 12.2759
178 1 -1.1104 6.76332 -2.83475 12.1867
182 1 -1.1104 6.81679 -2.90426 9.44913
208 1 -1.1104 9.52342 -2.87007 6.55625
212 2 2.2208 10.9037 1.36246 10.888
213 1 -1.1104 12.1808 -2.72658 12.1435
214 1 -1.1104 12.3604 2.9099 12.4092
215 1 -1.1104 12.3976 -2.94476 9.57391
216 1 -1.1104 12.4551 2.69272 9.44748
217 1 -1.1104 12.3156 -0.0251793 12.1754
218 2 2.2208 10.9632 -1.4315 8.00081
219 2 2.2208 10.9964 4.19107 7.91152
220 1 -1.1104 12.4867 -0.0978821 9.3722
221 1 -1.1104 9.4579 -2.87619 12.4034
222 1 -1.1104 9.51143 2.77675 12.1646
223 2 2.2208 8.23884 1.28081 8.13802
224 1 -1.1104 9.64503 -2.96644 9.50096
225 1 -1.1104 9.63777 2.73751 9.41877
226 2 2.2208 8.21474 -1.56245 10.9789
227 2 2.2208 8.19738 4.27761 10.8832
228 1 -1.1104 9.53112 -0.0177262 12.3341
229 1 -1.1104 9.67382 -0.052113 9.47281
310 2 2.2208 2.46114 12.3881 13.4573
236 1 -1.1104 1.28858 5.5379 6.64179
8893 2 2.2208 -0.346529 9.74275 7.89896
239 1 -1.1104 4.05637 5.41362 6.55411
62 1 -1.1104 1.16494 11.2009 6.57748
240 2 2.2208 5.42198 6.96173 10.7627
241 2 2.2208 5.35845 12.6625 10.7279
242 1 -1.1104 1.20434 8.2978 12.1661
244 1 -1.1104 0.94853 8.3417 9.30136
246 1 -1.1104 1.30997 5.43822 12.1097
247 1 -1.1104 1.00452 11.2215 12.0254
250 2 2.2208 5.38105 9.76143 7.97372
251 1 -1.1104 1.21844 5.49036 9.46895
252 1 -1.1104 1.04173 11.1102 9.32885
255 1 -1.1104 3.94595 8.27059 12.2084
256 2 2.2208 2.5689 6.8801 8.00527
257 2 2.2208 2.55887 12.5351 7.96508
258 1 -1.1104 3.9111 8.37279 9.37189
259 2 2.2208 2.4737 9.7026 10.8031
260 1 -1.1104 4.0864 5.54905 12.0774
261 1 -1.1104 3.89539 11.0619 12.0377
262 1 -1.1104 3.98389 5.51741 9.24125
263 1 -1.1104 4.02001 11.1317 9.33306
8894 2 2.2208 -0.291 7.00808 10.8013
248 1 -1.1104 6.80146 5.59426 12.0791
245 1 -1.1104 6.70921 8.40453 9.55613
312 2 2.2208 2.55694 6.88622 13.5718
104 1 -1.1104 9.68632 19.6813 12.1685
311 2 2.2208 5.31798 9.78035 13.6222
163 1 -1.1104 9.54424 16.8609 6.71326
237 1 -1.1104 6.93202 5.39024 6.66867
267 1 -1.1104 9.60593 8.40263 6.35246
297 1 -1.1104 6.84364 13.8992 12.0657
249 1 -1.1104 6.72496 11.231 12.2494
243 1 -1.1104 6.87738 8.30782 12.3396
254 1 -1.1104 6.95735 11.1442 9.42356
253 1 -1.1104 6.84105 5.59337 9.38928
269 1 -1.1104 9.54218 5.67125 6.52602
90 1 -1.1104 12.4265 11.1458 6.65772
264 1 -1.1104 9.77148 11.1854 9.51264
268 1 -1.1104 9.75708 5.59548 9.42135
270 1 -1.1104 9.72646 11.1265 12.2306
271 1 -1.1104 9.5656 5.58934 12.2463
272 2 2.2208 8.24215 9.61973 10.8822
273 1 -1.1104 9.47824 8.35358 9.19505
274 2 2.2208 8.27508 12.613 8.13328
275 2 2.2208 8.22332 6.94817 7.97352
276 2 2.2208 11.009 7.04129 10.9084
277 2 2.2208 11.0721 12.5474 11
278 1 -1.1104 12.5516 8.34039 12.2327
279 1 -1.1104 12.32 8.43058 9.40997
280 1 -1.1104 12.3595 5.55516 12.2282
281 1 -1.1104 12.3969 11.1867 12.2337
282 2 2.2208 10.8655 9.73138 7.93048
283 1 -1.1104 12.2782 5.59728 9.45319
284 1 -1.1104 12.4367 11.1836 9.4925
285 1 -1.1104 9.69413 8.32836 12.0934
313 2 2.2208 8.05204 12.5403 13.629
486 2 2.2208 5.40208 21.025 13.6584
126 1 -1.1104 3.92785 19.6226 6.66006
108 1 -1.1104 0.938094 13.9124 6.70631
201 2 2.2208 2.60091 15.3952 10.9153
204 2 2.2208 2.58377 21.0833 11.0172
211 1 -1.1104 3.91761 16.8584 12.263
230 1 -1.1104 1.08047 16.9169 12.1718
231 1 -1.1104 4.05942 14.0425 9.33516
233 1 -1.1104 3.95485 16.879 9.52023
286 1 -1.1104 3.89285 19.804 12.4017
287 1 -1.1104 3.76227 13.7938 12.206
291 1 -1.1104 1.22127 19.6468 9.55372
292 1 -1.1104 1.13328 16.6416 9.48731
293 2 2.2208 5.27509 20.9617 8.04995
294 1 -1.1104 1.21917 13.8441 9.54912
295 2 2.2208 5.37393 15.4099 8.04206
298 1 -1.1104 1.14207 19.6257 12.2313
299 1 -1.1104 1.12829 13.9323 12.2231
300 2 2.2208 5.25847 18.2601 11.0302
301 1 -1.1104 3.88275 19.5787 9.46427
303 2 2.2208 2.58497 18.0774 8.0727
296 1 -1.1104 6.56679 19.6455 12.2214
288 1 -1.1104 6.72723 19.5804 9.38905
289 1 -1.1104 6.73249 16.76 9.72928
485 2 2.2208 2.43088 18.1898 13.564
488 2 2.2208 11.0428 15.4993 13.588
50 1 -1.1104 12.2227 16.9833 12.2049
105 2 2.2208 8.15818 18.1352 8.18087
143 1 -1.1104 12.4885 13.939 6.54424
25 2 2.2208 10.861 18.2671 11.0114
30 1 -1.1104 12.438 13.878 9.53823
135 1 -1.1104 9.70177 13.952 9.73375
27 1 -1.1104 12.3998 19.6355 12.2646
83 1 -1.1104 9.78013 13.8442 12.6347
137 1 -1.1104 9.4657 19.5179 9.48296
145 1 -1.1104 12.1569 19.5668 6.74336
200 1 -1.1104 9.48484 16.7153 9.53385
81 2 2.2208 10.8438 20.8083 8.07451
156 1 -1.1104 9.49366 19.4971 6.68243
509 1 -1.1104 9.22531 16.5747 12.5145
111 1 -1.1104 6.87643 14.0406 6.70162
118 1 -1.1104 6.68931 16.7728 6.69395
306 2 2.2208 5.33096 -1.48323 13.7641
8307 2 2.2208 5.38669 -4.24754 -0.381415
8997 2 2.2208 -0.180827 4.09132 13.5411
305 2 2.2208 2.62893 1.28576 13.5713
304 2 2.2208 5.41691 4.11992 13.5676
9002 2 2.2208 -0.246655 -1.52974 13.6176
307 2 2.2208 11.0241 4.26729 13.6202
623 2 2.2208 10.9609 12.3979 -0.367082
569 2 2.2208 5.3087 18.0787 -0.394883
327 2 2.2208 5.33612 1.26118 16.452
328 1 -1.1104 1.29214 -2.96439 17.9492
329 1 -1.1104 1.32055 2.84002 17.7055
332 1 -1.1104 1.15216 -3.0762 15.079
334 1 -1.1104 1.1381 2.66435 14.9294
340 1 -1.1104 1.10771 -0.0995927 17.8133
342 2 2.2208 5.40112 -1.57357 19.2511
343 2 2.2208 5.3892 4.15065 19.0927
344 1 -1.1104 1.06134 -0.263965 15.0681
348 1 -1.1104 3.9889 -3.00379 17.9404
349 1 -1.1104 3.86582 2.66382 17.6992
350 2 2.2208 2.52828 1.23403 19.2089
351 1 -1.1104 4.06667 -2.92891 15.0374
353 1 -1.1104 3.99468 2.55767 14.906
355 2 2.2208 2.53908 -1.58367 16.403
357 1 -1.1104 4.00654 -0.0527058 17.9273
358 1 -1.1104 3.89833 -0.156107 15.2083
356 2 2.2208 2.59968 4.07572 16.2665
9117 2 2.2208 -0.185732 -1.64418 19.2428
9088 2 2.2208 -0.203536 4.10624 19.1999
9118 2 2.2208 -0.317432 1.3822 16.3425
9048 2 2.2208 -0.133054 -4.34737 22.132
8404 2 2.2208 8.15762 -4.35903 19.4104
9122 2 2.2208 -0.121261 -4.37853 16.4541
8423 2 2.2208 5.36619 -4.37985 16.5834
9011 2 2.2208 -0.233815 15.3641 13.5437
8406 2 2.2208 10.8732 -4.26155 16.4591
8308 2 2.2208 8.15034 -4.4005 13.6889
330 1 -1.1104 6.84388 -3.00083 17.9061
331 1 -1.1104 6.82264 2.64733 17.7983
336 1 -1.1104 6.71892 -2.85662 15.1387
341 1 -1.1104 6.73292 -0.44741 17.9182
338 1 -1.1104 6.86345 2.61393 15.0024
346 1 -1.1104 6.6948 -0.128765 15.0062
370 2 2.2208 11.0237 1.28262 16.5518
371 1 -1.1104 12.3475 -2.93932 17.8567
372 1 -1.1104 12.6061 2.73136 18.0463
373 1 -1.1104 12.2616 -2.81368 15.0335
375 1 -1.1104 12.4595 2.83173 15.2235
376 1 -1.1104 12.3863 -0.179447 17.841
377 2 2.2208 10.9842 -1.57214 19.2941
378 2 2.2208 11.0203 4.0214 19.2608
379 1 -1.1104 12.4698 -0.00632611 15.1029
381 1 -1.1104 9.54607 -2.90694 17.8675
382 1 -1.1104 9.59639 2.59529 17.7154
383 2 2.2208 8.14602 1.22917 19.1992
384 1 -1.1104 9.55556 -2.9936 15.0842
386 1 -1.1104 9.57268 2.7643 15.0841
388 2 2.2208 8.11789 -1.59615 16.4561
389 2 2.2208 8.18754 4.18673 16.5
390 1 -1.1104 9.44034 -0.13333 17.8335
391 1 -1.1104 9.49313 -0.138711 15.1095
308 2 2.2208 10.8979 -1.45324 13.6391
546 1 -1.1104 12.2987 19.5568 26.3978
380 1 -1.1104 12.3801 -0.186551 20.6566
309 2 2.2208 8.24176 1.44539 13.6163
402 2 2.2208 5.33807 6.83262 16.439
403 2 2.2208 5.50131 12.4982 16.4171
404 1 -1.1104 1.1297 8.31715 17.9103
406 1 -1.1104 1.05746 8.39181 15.0749
410 1 -1.1104 1.13721 5.58024 17.7263
411 1 -1.1104 1.17024 11.1026 17.7939
414 2 2.2208 5.42941 9.79162 19.2771
415 1 -1.1104 1.25525 5.54655 14.9216
417 1 -1.1104 1.09566 11.021 14.886
423 1 -1.1104 3.98278 8.17505 17.9337
424 2 2.2208 2.4772 6.93553 19.2297
425 2 2.2208 2.42043 12.4628 19.1896
426 1 -1.1104 3.91852 8.44289 14.9465
428 2 2.2208 2.59361 9.61316 16.4705
429 1 -1.1104 3.94014 5.42533 17.7027
430 1 -1.1104 4.03082 10.8284 17.7292
431 1 -1.1104 4.02419 5.49178 14.9475
433 1 -1.1104 3.9144 11.3525 15.003
9161 2 2.2208 -0.320184 6.94932 16.3793
421 1 -1.1104 6.87345 11.1289 15.0553
419 1 -1.1104 6.75672 5.44526 15.008
408 1 -1.1104 6.71289 8.35068 15.1753
9160 2 2.2208 -0.324807 9.68031 19.2718
434 1 -1.1104 3.96848 11.642 20.6587
418 1 -1.1104 1.13776 11.131 20.7173
9123 2 2.2208 -0.267925 12.3976 16.3409
545 1 -1.1104 6.81777 19.543 23.6139
601 1 -1.1104 6.74165 16.8587 26.2397
412 1 -1.1104 6.69036 5.56236 17.8832
405 1 -1.1104 6.86516 8.45635 17.7128
413 1 -1.1104 6.69961 11.3169 18.0411
439 2 2.2208 11.0423 6.96165 16.3358
440 2 2.2208 10.9769 12.5368 16.5931
441 1 -1.1104 12.3967 8.29973 17.7771
442 1 -1.1104 12.3658 8.29347 15.0115
444 1 -1.1104 12.2612 5.46646 17.7645
445 1 -1.1104 12.4057 11.18 17.8947
446 2 2.2208 10.9417 9.80426 19.2411
447 1 -1.1104 12.3846 5.57363 14.9758
449 1 -1.1104 12.4162 11.0877 15.1406
451 1 -1.1104 9.68726 8.30479 17.7234
452 2 2.2208 8.20471 6.93777 19.0874
453 2 2.2208 8.26292 12.5764 19.4869
454 1 -1.1104 9.56004 8.62415 14.9685
456 2 2.2208 8.1616 9.86033 16.4684
457 1 -1.1104 9.56628 5.39584 17.8464
458 1 -1.1104 9.59351 11.1075 17.8655
459 1 -1.1104 9.49576 5.72557 14.9059
461 1 -1.1104 9.53021 11.6228 15.0011
9108 1 -1.1104 12.2861 8.54256 20.5755
422 1 -1.1104 6.93979 10.9431 20.5684
455 1 -1.1104 9.58621 8.29201 20.6973
314 2 2.2208 11.1 9.74667 13.6045
475 1 -1.1104 6.85441 19.2628 20.9561
9230 2 2.2208 -0.120913 18.2734 16.6319
365 2 2.2208 -0.142736 20.9087 19.2803
465 1 -1.1104 0.944283 13.7576 17.8985
466 1 -1.1104 1.22423 19.5641 17.8178
467 1 -1.1104 3.84407 13.6212 17.6779
469 1 -1.1104 1.44418 13.8611 15.0514
471 1 -1.1104 1.14482 19.4926 15.1291
477 1 -1.1104 1.35449 16.5182 14.8659
479 1 -1.1104 4.39165 16.0203 15.7729
480 1 -1.1104 3.91923 19.0331 15.3706
481 2 2.2208 2.44419 15.2569 16.582
482 2 2.2208 2.58867 20.9049 16.4694
483 1 -1.1104 1.03895 16.537 17.8392
464 2 2.2208 5.70765 17.7952 16.0321
470 1 -1.1104 1.43915 14.2349 20.5358
468 1 -1.1104 6.61999 18.0421 17.9428
495 1 -1.1104 12.4247 19.6044 20.8134
493 1 -1.1104 12.5305 14.0193 20.7252
474 1 -1.1104 6.67895 19.4577 15.1118
476 1 -1.1104 7.13012 13.9289 15.4552
489 2 2.2208 10.8235 18.2024 16.6595
490 1 -1.1104 12.3962 13.9332 17.8755
491 1 -1.1104 12.2676 19.5719 17.7693
492 1 -1.1104 12.1127 13.9565 15.0996
494 1 -1.1104 12.4833 19.6027 14.8795
496 1 -1.1104 12.1755 16.7519 18.011
497 2 2.2208 10.9613 15.3033 19.2442
498 2 2.2208 10.8454 20.853 19.3175
499 1 -1.1104 12.0455 16.9188 15.1831
501 1 -1.1104 9.72977 13.7544 17.9935
502 1 -1.1104 9.22937 19.4879 18.1283
503 2 2.2208 8.17162 18.0056 19.4601
505 1 -1.1104 9.76462 19.5628 15.2884
507 2 2.2208 7.9879 20.8902 16.3454
508 1 -1.1104 9.46619 16.7477 17.9638
511 2 2.2208 10.8642 20.885 13.6505
542 1 -1.1104 12.4199 13.8743 26.4081
8994 2 2.2208 -0.179555 1.27034 27.6198
354 1 -1.1104 4.01054 2.86027 20.6041
345 1 -1.1104 1.29674 -0.227304 20.5674
352 1 -1.1104 3.87572 -2.83418 20.7601
359 1 -1.1104 4.11166 -0.017775 20.6988
333 1 -1.1104 1.02658 -3.00203 20.5991
9049 2 2.2208 -0.240826 1.20423 21.9725
335 1 -1.1104 1.08809 2.72147 20.5793
514 2 2.2208 5.41246 1.47292 21.9696
515 1 -1.1104 1.3005 -2.86632 23.4441
516 1 -1.1104 1.10291 2.65872 23.4555
519 1 -1.1104 1.40717 -2.92344 26.3656
520 1 -1.1104 1.2503 2.71687 26.3008
523 1 -1.1104 1.20904 0.0581217 23.2729
525 2 2.2208 5.45703 -1.41561 24.9455
526 2 2.2208 5.55101 4.20338 24.7464
527 1 -1.1104 1.23503 -0.180846 26.1966
529 1 -1.1104 3.99317 -2.85488 23.4898
530 1 -1.1104 4.22988 2.8414 23.2958
531 2 2.2208 2.72807 1.39042 24.7291
532 1 -1.1104 4.09204 -2.76635 26.3499
533 1 -1.1104 4.07682 2.70319 26.3241
534 2 2.2208 2.61924 -1.44778 22.201
535 2 2.2208 2.64227 4.16263 22.1063
536 1 -1.1104 4.11352 -0.0034298 23.53
537 1 -1.1104 4.04039 0.0742469 26.279
9086 2 2.2208 -0.30634 3.98476 24.8346
9047 2 2.2208 -0.161539 -1.38951 24.8437
316 2 2.2208 5.35089 1.3642 27.7527
9045 2 2.2208 13.7566 -1.53249 22.0683
385 1 -1.1104 9.63431 -2.85879 20.6136
337 1 -1.1104 6.73416 -2.93158 20.787
392 1 -1.1104 9.68969 -0.11918 20.583
528 1 -1.1104 6.87644 -0.130786 26.3769
339 1 -1.1104 6.8482 2.78251 20.6196
347 1 -1.1104 6.80479 -0.0584819 20.6481
374 1 -1.1104 12.4365 -2.96823 20.7525
9295 1 -1.1104 12.2587 2.52888 20.5937
517 1 -1.1104 6.77745 -2.80206 23.4235
524 1 -1.1104 6.86046 0.0197579 23.4148
522 1 -1.1104 6.78159 2.6869 26.2603
521 1 -1.1104 6.80042 -2.89679 26.3417
387 1 -1.1104 9.53921 2.68101 20.6735
518 1 -1.1104 7.03 2.755 23.4729
549 2 2.2208 10.9703 1.22486 21.951
550 1 -1.1104 12.4706 -2.95501 23.4317
551 1 -1.1104 12.111 -0.246356 23.2622
552 1 -1.1104 12.2554 -3.0542 26.1907
553 1 -1.1104 12.2719 3.24891 26.3405
554 2 2.2208 10.9913 -1.53641 24.7643
556 1 -1.1104 9.50719 -2.78808 23.5255
557 1 -1.1104 9.94503 2.69317 23.4041
558 2 2.2208 8.20362 1.25577 24.89
559 1 -1.1104 9.61573 -2.83957 26.3025
560 1 -1.1104 9.45609 2.7964 26.3135
561 2 2.2208 8.23019 -1.48985 22.0289
563 1 -1.1104 9.49675 -0.070255 23.4168
564 1 -1.1104 9.69917 -0.230598 26.2181
37 1 -1.1104 12.3922 -0.233133 26.3152
555 2 2.2208 10.8277 4.05129 24.8453
562 2 2.2208 8.18874 4.19642 22.0099
427 1 -1.1104 3.94723 8.48518 20.7753
407 1 -1.1104 1.14095 8.2957 20.7601
416 1 -1.1104 1.12952 5.6317 20.5654
9090 2 2.2208 -0.276153 9.65183 24.9282
9328 2 2.2208 -0.228883 6.90468 21.9352
432 1 -1.1104 3.98003 5.68981 20.4438
577 2 2.2208 5.40291 6.93565 22.0063
578 2 2.2208 5.55567 12.4131 22.0673
579 1 -1.1104 1.2076 8.38972 23.4969
581 1 -1.1104 1.10289 8.38379 26.2452
583 1 -1.1104 1.24962 5.47944 23.4237
584 1 -1.1104 1.17789 11.1533 23.6251
587 2 2.2208 5.46901 9.76128 24.76
588 1 -1.1104 1.20125 5.59536 26.0052
589 1 -1.1104 1.23094 11.2675 26.2557
592 1 -1.1104 3.99645 8.35986 23.4224
593 2 2.2208 2.67618 6.97141 24.6908
594 2 2.2208 2.64558 12.4543 24.8041
595 1 -1.1104 4.03425 8.45265 26.1406
596 2 2.2208 2.46204 9.72658 22.195
597 1 -1.1104 4.06881 5.64516 23.3089
598 1 -1.1104 4.04357 11.0499 23.3492
599 1 -1.1104 4.16902 5.46556 26.072
600 1 -1.1104 3.9716 11.2842 26.2479
409 1 -1.1104 6.94148 8.31037 20.6552
9087 2 2.2208 -0.221453 12.4992 22.0495
8991 2 2.2208 -0.170945 6.8999 27.6195
513 1 -1.1104 12.5439 13.9517 23.6172
460 1 -1.1104 9.50871 5.55629 20.6136
450 1 -1.1104 12.3801 11.1543 20.6364
580 1 -1.1104 6.75378 8.26588 23.393
582 1 -1.1104 6.89756 8.45375 26.1525
591 1 -1.1104 6.63014 11.2504 26.2615
586 1 -1.1104 6.81882 11.0033 23.3824
420 1 -1.1104 6.68715 5.45845 20.6075
443 1 -1.1104 12.1606 5.72783 20.6921
462 1 -1.1104 9.6453 11.0391 20.718
585 1 -1.1104 6.79554 5.56764 23.4311
590 1 -1.1104 6.97017 5.56712 26.1579
605 1 -1.1104 9.70598 11.0967 26.2471
606 1 -1.1104 9.95661 5.61802 26.2798
607 1 -1.1104 9.50217 11.1301 23.4709
608 1 -1.1104 9.96011 5.43679 23.2973
609 2 2.2208 8.21903 9.78947 22.1197
610 1 -1.1104 9.58463 8.37316 26.18
611 2 2.2208 8.31535 12.6706 24.889
612 2 2.2208 8.29675 7.09028 24.7589
613 2 2.2208 10.9984 7.11255 21.9368
614 2 2.2208 11.1904 12.5746 22.0734
615 1 -1.1104 12.3285 8.25676 23.3517
616 1 -1.1104 12.2768 8.36971 26.4797
617 1 -1.1104 12.4368 11.1239 23.515
618 2 2.2208 11.0461 9.6911 24.7575
619 1 -1.1104 12.4151 11.017 26.3555
620 1 -1.1104 9.55465 8.40662 23.3337
575 2 2.2208 8.17753 18.1718 24.9463
604 1 -1.1104 9.71612 13.7985 26.0375
621 1 -1.1104 6.83249 13.9621 26.3793
9042 2 2.2208 -0.311404 15.444 24.9059
9043 2 2.2208 -0.315247 18.3146 22.2855
472 1 -1.1104 1.04547 19.5468 20.9385
484 1 -1.1104 3.6865 16.836 20.8432
360 2 2.2208 2.42644 20.9878 22.1259
361 1 -1.1104 3.98104 16.7189 23.6362
362 1 -1.1104 1.13473 16.8546 23.3936
397 1 -1.1104 3.97907 13.9808 26.1165
401 1 -1.1104 4.01406 16.6042 26.3981
435 2 2.2208 2.59328 18.1503 24.8651
438 1 -1.1104 3.9976 19.5249 26.2
448 2 2.2208 5.39556 17.8852 21.9872
463 1 -1.1104 1.23523 13.8971 23.3302
538 1 -1.1104 1.21507 19.5128 23.6697
540 2 2.2208 5.45116 15.3774 24.8821
543 2 2.2208 5.3112 21.1396 25.0037
565 1 -1.1104 1.21879 14.0624 26.0668
566 1 -1.1104 1.19018 16.7361 26.2849
567 1 -1.1104 1.13134 19.5544 26.4345
571 2 2.2208 2.53963 15.4625 22.216
602 1 -1.1104 4.12976 14.0558 23.1932
626 1 -1.1104 3.90435 19.3591 23.0793
539 1 -1.1104 6.92527 13.7605 23.6064
576 1 -1.1104 6.84225 19.5297 26.514
544 1 -1.1104 9.56227 16.7931 23.7034
500 1 -1.1104 12.5669 16.7691 20.7632
504 1 -1.1104 9.68719 13.9088 20.7196
541 1 -1.1104 12.2861 19.3685 23.5905
510 1 -1.1104 9.67862 16.6637 20.7526
624 1 -1.1104 9.61883 19.4464 26.2676
437 2 2.2208 8.14345 20.8285 22.0962
512 2 2.2208 10.9612 17.9776 22.1445
548 2 2.2208 11.1355 15.3779 25.0759
625 2 2.2208 8.21161 15.2336 22.0147
568 2 2.2208 10.9753 21.0289 24.9124
478 1 -1.1104 6.81707 16.5133 20.6695
572 1 -1.1104 12.4755 16.8028 26.4114
398 1 -1.1104 9.54611 16.6932 26.3823
574 1 -1.1104 9.6013 19.489 23.5088
547 1 -1.1104 12.5171 16.5553 23.6262
393 1 -1.1104 6.8659 16.6482 23.4133
506 1 -1.1104 9.54029 19.3273 20.8037
473 1 -1.1104 7.0062 13.6996 20.8247
573 1 -1.1104 9.64863 13.9775 23.2855
318 2 2.2208 2.6426 4.03001 27.6273
322 2 2.2208 8.25393 -1.58506 27.7767
323 2 2.2208 8.16941 4.0748 27.6923
321 2 2.2208 11.0816 1.3977 27.5271
324 2 2.2208 5.45079 6.88953 27.5276
9012 2 2.2208 -0.339375 12.6097 27.6388
326 2 2.2208 10.8353 7.07363 27.7688
622 2 2.2208 8.1516 9.96868 27.5997
319 2 2.2208 -0.264821 18.1821 27.6643
320 2 2.2208 2.53214 15.1809 27.635
9006 2 2.2208 -0.30116 9.6942 13.5476
315 2 2.2208 8.07483 7.01065 13.5851
627 2 2.2208 5.32041 23.9291 5.40172
628 2 2.2208 5.2968 29.4303 5.37201
629 1 -1.1104 1.05211 25.2266 1.14325
630 1 -1.1104 1.19216 25.1866 3.94108
631 1 -1.1104 0.883767 22.5202 1.24464
632 1 -1.1104 1.05868 28.1099 1.01273
633 2 2.2208 5.38211 26.6365 2.51679
634 1 -1.1104 1.05842 22.2961 3.933
635 1 -1.1104 1.17208 27.954 4.02424
636 1 -1.1104 3.88007 25.125 1.1461
637 2 2.2208 2.45008 23.8636 2.5732
638 2 2.2208 2.4258 29.4168 2.59747
639 1 -1.1104 4.01065 25.4345 4.02843
640 2 2.2208 2.5487 26.6246 5.42294
641 1 -1.1104 3.85827 22.3099 1.20257
642 1 -1.1104 3.96589 27.8427 1.11032
643 1 -1.1104 3.82958 22.5656 4.00382
644 1 -1.1104 3.94448 28.1759 3.88999
645 2 2.2208 -0.288352 29.5106 5.3224
646 2 2.2208 -0.309309 23.8557 5.30986
1186 2 2.2208 -0.442621 23.8584 -0.189314
650 1 -1.1104 6.566 22.3021 1.03888
647 2 2.2208 -0.329941 26.6471 2.59937
775 1 -1.1104 3.8339 22.4633 6.84374
770 1 -1.1104 1.19915 22.4027 6.70305
1182 2 2.2208 5.1704 23.8113 -0.196673
908 1 -1.1104 6.89243 42.0666 12.3086
653 1 -1.1104 6.81137 28.1091 3.89662
652 1 -1.1104 6.65917 22.3725 3.81006
651 1 -1.1104 6.79235 27.9851 1.02855
649 1 -1.1104 6.77609 25.24 3.8852
648 1 -1.1104 6.66888 25.196 1.17468
654 2 2.2208 10.9781 23.6937 5.24596
655 2 2.2208 10.858 29.4376 5.24102
656 1 -1.1104 12.3402 25.2549 1.09873
657 1 -1.1104 12.4313 25.1683 3.91638
658 1 -1.1104 12.2632 22.3687 0.964485
659 1 -1.1104 12.3886 27.9586 1.12662
660 2 2.2208 11.0061 26.5996 2.51107
661 1 -1.1104 12.2132 22.4989 3.74959
662 1 -1.1104 12.2895 27.9966 3.80077
663 1 -1.1104 9.60287 25.1098 1.03986
664 2 2.2208 8.11612 23.8643 2.51728
665 2 2.2208 8.11443 29.4447 2.4817
666 1 -1.1104 9.63685 25.2677 4.00282
667 2 2.2208 8.22334 26.5743 5.35968
668 1 -1.1104 9.41792 22.3814 1.23787
669 1 -1.1104 9.56072 27.9163 1.01294
670 1 -1.1104 9.34192 22.5632 3.85446
671 1 -1.1104 9.49275 28.0632 3.94933
1212 2 2.2208 10.9159 23.6647 -0.335269
804 1 -1.1104 9.4287 25.1395 6.84363
894 1 -1.1104 6.67569 39.3194 12.12
773 1 -1.1104 6.70376 28.119 6.69977
803 1 -1.1104 12.2625 27.9193 6.51238
802 1 -1.1104 12.2791 22.2806 6.62224
801 1 -1.1104 12.3609 25.1538 6.59482
1244 2 2.2208 -0.374693 35.009 -0.352835
675 2 2.2208 5.28917 35.024 5.31925
676 1 -1.1104 1.20896 30.6876 1.11175
677 1 -1.1104 0.985239 36.456 0.90764
679 1 -1.1104 1.04199 30.8891 3.85229
680 1 -1.1104 1.11648 36.4786 3.80091
682 1 -1.1104 0.988773 33.5596 0.910404
683 2 2.2208 5.31323 32.1166 2.46393
684 2 2.2208 5.39266 37.7356 2.33363
685 1 -1.1104 1.12166 33.6174 3.73712
687 1 -1.1104 3.88575 30.8042 1.08087
688 1 -1.1104 3.88487 36.4964 1.01472
689 2 2.2208 2.48798 35.1077 2.3869
690 1 -1.1104 3.7713 30.7927 4.01415
691 1 -1.1104 3.87851 36.5078 3.78576
692 2 2.2208 2.43916 32.1861 5.29473
693 2 2.2208 2.50365 37.7455 5.25945
694 1 -1.1104 3.74718 33.6703 1.01938
695 1 -1.1104 3.74448 33.7944 3.91813
696 2 2.2208 -0.367723 37.8639 2.44813
697 2 2.2208 -0.302083 32.1439 2.36998
833 1 -1.1104 4.01869 33.4655 6.6684
698 2 2.2208 -0.273781 34.9926 5.18494
826 1 -1.1104 1.00801 36.4277 6.68348
831 1 -1.1104 3.95451 30.7276 6.72569
829 1 -1.1104 1.02543 33.5709 6.59765
1549 1 -1.1104 0.97749 47.629 9.51288
681 1 -1.1104 6.61174 36.3739 3.817
678 1 -1.1104 6.78985 36.3556 0.964151
700 1 -1.1104 6.72492 30.8265 3.97086
686 1 -1.1104 6.70194 33.5897 3.83634
699 1 -1.1104 6.56288 30.661 1.14585
701 1 -1.1104 6.58982 33.5653 1.04913
702 2 2.2208 10.8626 35.1096 5.24451
703 1 -1.1104 12.2982 30.8196 1.03099
704 1 -1.1104 12.2369 36.5087 1.17689
705 1 -1.1104 12.2461 30.824 3.77088
706 1 -1.1104 12.3982 36.5344 3.86215
707 1 -1.1104 12.2671 33.7435 0.961833
708 2 2.2208 10.8571 32.2813 2.5189
709 2 2.2208 10.8885 37.7708 2.47145
710 1 -1.1104 12.1502 33.7092 3.93548
711 1 -1.1104 9.53165 30.836 0.978735
712 1 -1.1104 9.5306 36.3527 1.06305
713 2 2.2208 8.08192 34.9411 2.43536
714 1 -1.1104 9.34876 30.8908 3.84971
715 1 -1.1104 9.50463 36.5432 3.75166
716 2 2.2208 8.17048 32.1857 5.33268
717 2 2.2208 8.13603 37.8281 5.25336
718 1 -1.1104 9.40145 33.5186 1.05768
719 1 -1.1104 9.39851 33.7298 3.88258
860 1 -1.1104 12.3745 36.3998 6.56484
827 1 -1.1104 6.68765 30.7895 6.70509
828 1 -1.1104 6.6973 36.3446 6.47814
830 1 -1.1104 6.85659 33.5798 6.79191
861 1 -1.1104 12.2475 33.5877 6.7614
863 1 -1.1104 9.54725 36.5465 6.58903
862 1 -1.1104 9.47833 30.7316 6.65074
963 2 2.2208 2.3767 43.3802 -0.36091
721 2 2.2208 5.32316 40.6613 5.13261
722 2 2.2208 5.15009 46.1484 5.11467
723 1 -1.1104 0.82361 41.8491 0.944894
725 1 -1.1104 1.08807 42.0634 3.98412
727 1 -1.1104 1.0843 39.1658 0.957843
728 1 -1.1104 1.07449 44.7408 1.10016
731 2 2.2208 5.08859 43.4373 2.37803