ITEM: TIMESTEP
50000
ITEM: NUMBER OF ATOMS
17910
ITEM: BOX BOUNDS pp pp pp
-3.5455744621432378e-01 2.7694557446214475e+01
-4.2753636541001718e+00 3.3235536365410286e+02
-3.5969143125621944e-01 2.7699691431256401e+01
ITEM: ATOMS id type q x y z
1 2 2.2208 5.09734 1.27369 5.20514
2 1 -1.1104 1.0342 -2.98817 1.02516
3 1 -1.1104 0.80256 2.8874 0.961813
6 1 -1.1104 0.930079 -2.97726 3.9043
7 1 -1.1104 0.807703 2.64378 3.77709
10 1 -1.1104 0.819315 0.0367134 0.902687
12 2 2.2208 5.00673 -1.36214 2.33742
13 2 2.2208 5.05158 4.12479 2.41824
14 1 -1.1104 0.704011 -0.250122 3.66606
16 1 -1.1104 3.68694 -2.88495 1.11462
17 1 -1.1104 3.61231 2.73922 1.03541
18 2 2.2208 2.19084 1.36076 2.42119
19 1 -1.1104 3.67844 -2.91364 3.95953
20 1 -1.1104 3.63945 2.74689 3.8362
21 2 2.2208 2.25725 -1.47673 5.23874
22 2 2.2208 2.2663 4.06468 5.13325
23 1 -1.1104 3.45838 0.00264363 1.02199
24 1 -1.1104 3.64531 -0.000238732 3.71473
167 1 -1.1104 0.948351 2.90259 6.69004
5 1 -1.1104 6.46166 2.85188 0.971841
8 1 -1.1104 6.41507 -2.83783 3.57267
174 1 -1.1104 3.69639 -0.0589189 6.45522
9 1 -1.1104 6.43786 2.74103 3.72353
4 1 -1.1104 6.39192 -2.98846 0.990952
15 1 -1.1104 6.46824 0.00324485 3.76191
168 1 -1.1104 6.3953 -2.78733 6.4696
173 1 -1.1104 3.73869 2.76994 6.61703
171 1 -1.1104 6.50856 0.0897287 6.46759
52 2 2.2208 13.5055 20.9339 10.7221
172 1 -1.1104 3.5853 -2.83294 6.79106
170 1 -1.1104 0.933757 0.105027 6.39795
166 1 -1.1104 0.829517 -2.78638 6.67925
8875 2 2.2208 13.4297 7.04893 8.07681
8664 2 2.2208 13.5376 4.14791 5.2319
11 1 -1.1104 6.63379 -0.192169 0.933478
32 2 2.2208 10.7048 1.29359 5.24174
33 1 -1.1104 12.0814 -2.89244 0.893646
34 1 -1.1104 11.9887 2.75408 0.990728
35 1 -1.1104 12.0142 -2.77216 3.73665
36 1 -1.1104 12.0668 2.79849 3.88627
38 2 2.2208 10.6514 -1.49895 2.34622
39 2 2.2208 10.6932 4.16348 2.3775
40 1 -1.1104 12.0174 0.0366602 3.75633
41 1 -1.1104 9.34971 -2.95358 1.0441
42 1 -1.1104 9.40384 2.78492 1.05132
43 2 2.2208 8.02015 1.39005 2.26964
44 1 -1.1104 9.30353 -2.73653 3.82032
45 1 -1.1104 9.44022 2.72512 3.74158
46 2 2.2208 7.80203 -1.48246 5.16766
48 1 -1.1104 9.53056 -0.191224 0.835694
49 1 -1.1104 9.24255 -0.0336492 3.64459
8662 1 -1.1104 12.4213 -0.142433 0.972651
47 2 2.2208 7.85606 4.03728 5.05101
210 1 -1.1104 9.17955 -0.116767 6.53875
8969 2 2.2208 13.4499 1.42127 2.4531
205 1 -1.1104 11.9901 -2.8208 6.62138
208 1 -1.1104 9.08574 -2.8966 6.68335
206 1 -1.1104 12.0121 2.83863 6.47926
8970 2 2.2208 13.4899 -1.40382 5.08327
209 1 -1.1104 9.3274 2.57729 6.56687
207 1 -1.1104 12.0962 0.0106482 6.5084
8978 2 2.2208 13.5198 18.3532 2.44973
54 2 2.2208 5.11899 6.96018 5.15272
55 2 2.2208 5.18119 12.6742 5.21503
56 1 -1.1104 0.861713 8.31714 0.984617
58 1 -1.1104 0.887942 8.48308 3.81243
60 1 -1.1104 0.769171 5.58223 0.96332
61 1 -1.1104 0.966828 11.2089 1.07868
66 2 2.2208 5.14901 9.87236 2.46158
67 1 -1.1104 0.988565 5.59442 3.69612
68 1 -1.1104 0.774457 11.2117 3.78841
71 1 -1.1104 3.73777 8.32351 1.20444
72 2 2.2208 2.14782 7.17578 2.44131
73 2 2.2208 2.4746 12.627 2.34134
74 1 -1.1104 3.68659 8.5207 3.93017
75 2 2.2208 2.31274 9.77969 5.25055
76 1 -1.1104 3.54015 5.49245 0.880125
77 1 -1.1104 3.73822 11.0417 0.950793
79 1 -1.1104 3.77066 5.57113 3.84973
80 1 -1.1104 3.73852 11.3077 3.7369
63 1 -1.1104 6.32581 5.52577 0.900472
59 1 -1.1104 6.5243 8.38476 3.85243
70 1 -1.1104 6.60873 11.2078 3.82507
69 1 -1.1104 6.46592 5.56554 3.613
57 1 -1.1104 6.60447 8.39014 1.11646
238 1 -1.1104 3.66095 8.25466 6.67505
239 1 -1.1104 3.58763 5.57273 6.63526
234 1 -1.1104 0.754572 8.48737 6.56898
78 1 -1.1104 3.66511 11.1388 6.53366
64 1 -1.1104 6.61263 11.4291 1.02804
65 1 -1.1104 6.39906 11.1283 6.56651
236 1 -1.1104 0.822816 5.57047 6.65953
237 1 -1.1104 6.34329 5.53655 6.48402
232 2 2.2208 7.80486 -4.14919 8.02122
8974 2 2.2208 13.5354 12.6427 2.29435
326 2 2.2208 10.5721 7.16337 -0.369191
84 2 2.2208 10.6808 6.97902 5.19255
85 2 2.2208 10.8282 12.5242 5.16984
86 1 -1.1104 12.0107 8.34082 0.987553
87 1 -1.1104 12.0108 8.30027 3.84161
88 1 -1.1104 12.0162 5.60067 0.809535
89 1 -1.1104 12.0322 11.1534 1.02476
91 2 2.2208 10.6676 9.86819 2.46418
92 1 -1.1104 12.1181 5.58774 3.69408
93 1 -1.1104 12.2367 11.1072 3.82459
94 1 -1.1104 9.1827 8.4869 1.07509
95 2 2.2208 7.92444 7.01404 2.35954
96 2 2.2208 8.07316 12.6989 2.40343
97 1 -1.1104 9.15525 8.43799 3.76612
98 2 2.2208 7.91459 9.82263 5.22551
99 1 -1.1104 9.42908 5.60636 0.927014
100 1 -1.1104 9.35638 11.14 1.1077
102 1 -1.1104 9.12079 5.48268 3.62527
103 1 -1.1104 9.51211 11.1782 3.88318
269 1 -1.1104 9.31804 5.54749 6.47338
266 1 -1.1104 12.1578 5.57178 6.50896
101 1 -1.1104 9.34175 11.1988 6.71691
235 1 -1.1104 6.4922 8.41348 6.70167
8693 2 2.2208 13.4374 9.74578 5.22076
8975 2 2.2208 13.4904 6.95758 2.28385
106 2 2.2208 5.01302 18.3809 5.25843
107 1 -1.1104 0.728618 14.1659 0.787087
109 1 -1.1104 0.851518 19.5649 1.14673
113 1 -1.1104 0.943539 14.0072 3.6978
114 1 -1.1104 0.792155 19.495 3.81589
116 1 -1.1104 0.942638 16.7514 0.939238
119 2 2.2208 5.06713 15.4651 2.40003
120 2 2.2208 5.09069 21.0458 2.36374
121 1 -1.1104 0.789217 16.8118 3.84476
123 1 -1.1104 3.65062 14.0278 0.911866
125 1 -1.1104 3.82961 19.5529 1.0031
127 2 2.2208 2.29832 18.2375 2.43284
128 1 -1.1104 3.7896 13.994 3.70277
129 1 -1.1104 3.58571 19.6806 3.90473
130 2 2.2208 2.2672 15.4423 5.17537
131 2 2.2208 2.2792 21.0783 5.17578
132 1 -1.1104 3.70678 16.7843 1.20955
134 1 -1.1104 3.53631 16.8968 3.92441
139 1 -1.1104 6.41845 19.6287 3.84183
138 1 -1.1104 6.56648 19.7985 1.22179
110 1 -1.1104 6.52679 14.1648 1.00267
115 1 -1.1104 6.58244 14.0847 3.74445
133 1 -1.1104 3.73938 16.9126 6.73161
302 1 -1.1104 0.84453 19.6013 6.54138
122 1 -1.1104 6.42831 16.7868 3.71134
126 1 -1.1104 3.68303 19.7626 6.64394
111 1 -1.1104 6.57077 13.9541 6.6365
117 1 -1.1104 0.827154 16.8481 6.72015
511 2 2.2208 10.5844 20.8449 13.6364
135 1 -1.1104 9.33032 13.9942 9.46028
8963 2 2.2208 13.6083 15.4501 10.8518
140 1 -1.1104 6.53818 16.9684 0.91199
145 1 -1.1104 12.2024 19.4713 6.47904
141 2 2.2208 10.6739 18.2645 5.13766
142 1 -1.1104 12.0888 14.1241 1.01702
144 1 -1.1104 12.1037 19.8101 0.926882
146 1 -1.1104 12.1344 13.9445 3.8048
147 1 -1.1104 12.1241 19.6534 3.64487
148 1 -1.1104 12.1737 17.0033 1.08236
150 2 2.2208 10.7917 15.5634 2.54262
151 2 2.2208 10.6498 20.9753 2.38364
152 1 -1.1104 11.9826 16.8804 3.83903
153 1 -1.1104 9.34423 14.0264 0.9428
155 1 -1.1104 9.30549 19.5683 0.953566
157 2 2.2208 7.79725 18.1907 2.44124
158 1 -1.1104 9.29642 14.0722 3.91141
159 1 -1.1104 9.25815 19.6531 3.69158
160 2 2.2208 7.86611 15.3915 5.21418
161 2 2.2208 7.89556 21.0634 5.17728
162 1 -1.1104 9.41036 16.9275 1.00851
164 1 -1.1104 9.18711 16.8215 3.85231
156 1 -1.1104 9.34882 19.4858 6.56724
163 1 -1.1104 9.25704 16.869 6.5752
8741 2 2.2208 13.4937 21.0745 5.19094
143 1 -1.1104 12.0655 13.9579 6.55617
149 1 -1.1104 12.1 16.7548 6.68956
306 2 2.2208 4.8932 -1.46201 13.5914
169 1 -1.1104 6.50234 2.80837 6.57915
175 2 2.2208 5.06339 1.35759 10.7847
176 1 -1.1104 0.890966 -2.93721 12.2826
177 1 -1.1104 0.943056 2.79636 12.3762
180 1 -1.1104 0.950958 -2.67205 9.3442
181 1 -1.1104 0.878002 2.82284 9.56314
184 1 -1.1104 0.94316 -0.128481 12.1816
186 2 2.2208 5.00051 -1.33633 7.95856
187 2 2.2208 5.21984 4.2862 8.01622
188 1 -1.1104 0.857199 0.0105801 9.1404
190 1 -1.1104 3.71107 -2.85073 12.104
191 1 -1.1104 3.56828 2.71298 12.1036
192 2 2.2208 2.22282 1.46488 8.00124
193 1 -1.1104 3.86604 -2.7969 9.43017
194 1 -1.1104 3.68667 2.88948 9.3993
195 2 2.2208 2.31961 -1.50921 10.7881
196 2 2.2208 2.17097 4.16734 10.7886
197 1 -1.1104 3.51441 -0.13174 12.2301
198 1 -1.1104 3.71662 0.05458 9.35385
185 1 -1.1104 6.50697 0.106728 12.2425
183 1 -1.1104 6.52491 2.86464 9.36656
182 1 -1.1104 6.60318 -2.78939 9.33885
179 1 -1.1104 6.43034 2.89597 12.1952
304 2 2.2208 5.02712 4.18427 13.7723
178 1 -1.1104 6.56199 -2.78208 12.2058
189 1 -1.1104 6.40208 -0.000161309 9.2795
305 2 2.2208 2.19175 1.46287 13.6401
203 2 2.2208 5.24637 -4.22316 10.7292
8762 2 2.2208 13.4575 15.422 5.25575
8799 2 2.2208 13.4322 4.18073 10.8455
202 2 2.2208 2.23736 -4.26029 8.06931
8987 2 2.2208 13.4548 1.43515 7.99719
8299 2 2.2208 7.90209 -4.31214 2.41233
308 2 2.2208 10.6466 -1.36695 13.5138
8968 2 2.2208 13.498 -1.44735 10.7163
212 2 2.2208 10.6683 1.30743 10.7981
213 1 -1.1104 12.112 -2.84657 12.1516
214 1 -1.1104 11.9975 2.64383 12.147
215 1 -1.1104 12.0894 -2.78171 9.40574
216 1 -1.1104 12.047 2.69094 9.38257
217 1 -1.1104 12.2216 -0.0896964 12.1197
218 2 2.2208 10.7033 -1.3907 7.91329
219 2 2.2208 10.607 4.21545 7.99073
220 1 -1.1104 12.0892 -0.00988247 9.28907
221 1 -1.1104 9.35386 -2.92169 12.1347
222 1 -1.1104 9.08664 2.7955 12.2317
223 2 2.2208 7.90288 1.53645 8.06321
224 1 -1.1104 9.34909 -2.69415 9.27591
225 1 -1.1104 9.35894 2.78646 9.44781
226 2 2.2208 7.93768 -1.37413 10.8798
227 2 2.2208 7.8186 4.16443 10.8057
228 1 -1.1104 9.30395 -0.000733936 12.1533
229 1 -1.1104 9.25627 0.0487459 9.42772
309 2 2.2208 7.81256 1.32048 13.5982
28 2 2.2208 2.29037 -4.20102 2.50047
8300 2 2.2208 10.7347 -4.23697 10.7692
62 1 -1.1104 0.73167 11.1923 6.56081
312 2 2.2208 2.19922 7.05658 13.613
311 2 2.2208 5.14701 9.78794 13.5554
240 2 2.2208 4.99517 7.08509 10.8405
241 2 2.2208 5.02542 12.7539 10.8193
242 1 -1.1104 0.737921 8.43295 12.1984
244 1 -1.1104 0.787729 8.4334 9.52718
246 1 -1.1104 0.843458 5.66234 12.3167
247 1 -1.1104 0.730634 11.1587 12.0974
250 2 2.2208 5.09185 9.82999 8.11331
251 1 -1.1104 0.721387 5.49275 9.53719
252 1 -1.1104 0.746349 11.2333 9.35448
255 1 -1.1104 3.62007 8.52337 12.3263
256 2 2.2208 2.28643 7.00753 8.01097
257 2 2.2208 2.30168 12.7344 7.92846
258 1 -1.1104 3.59202 8.37833 9.36986
259 2 2.2208 2.12998 9.82157 10.768
260 1 -1.1104 3.60608 5.64171 12.3641
261 1 -1.1104 3.74933 11.2365 12.2026
262 1 -1.1104 3.72098 5.63203 9.49585
263 1 -1.1104 3.52118 11.2377 9.4299
310 2 2.2208 2.1038 12.4677 13.4699
249 1 -1.1104 6.59216 11.2609 12.142
245 1 -1.1104 6.37783 8.61077 9.53855
243 1 -1.1104 6.41723 8.43638 12.1918
254 1 -1.1104 6.32165 11.322 9.40153
253 1 -1.1104 6.5316 5.72211 9.41771
315 2 2.2208 7.89011 6.88702 13.619
265 1 -1.1104 12.0484 8.38983 6.77319
8876 2 2.2208 13.5445 12.5565 7.99427
8880 2 2.2208 13.6048 9.78404 10.9146
248 1 -1.1104 6.35247 5.72112 12.2298
90 1 -1.1104 12.2457 11.0923 6.61765
267 1 -1.1104 9.1642 8.37461 6.81522
264 1 -1.1104 9.19943 11.2464 9.48637
268 1 -1.1104 9.12155 5.67019 9.15813
270 1 -1.1104 9.36084 11.1909 12.3171
271 1 -1.1104 9.08744 5.5774 12.1739
272 2 2.2208 7.88837 9.92211 10.7917
273 1 -1.1104 9.28308 8.42979 9.3925
274 2 2.2208 7.82285 12.5866 7.96891
275 2 2.2208 7.68098 7.01117 7.97436
276 2 2.2208 10.5985 6.97243 10.6956
277 2 2.2208 10.8546 12.5886 10.904
278 1 -1.1104 11.9606 8.4442 12.2672
279 1 -1.1104 12.1524 8.27769 9.49068
280 1 -1.1104 11.964 5.5469 12.0451
281 1 -1.1104 12.1856 11.3144 12.2289
282 2 2.2208 10.6251 9.7386 7.98936
283 1 -1.1104 11.87 5.53417 9.3475
284 1 -1.1104 11.9884 11.1444 9.35825
285 1 -1.1104 9.25679 8.26036 12.182
313 2 2.2208 7.90357 12.6064 13.6052
53 2 2.2208 10.5706 -4.26603 5.27293
314 2 2.2208 10.6697 9.70707 13.5291
124 1 -1.1104 3.72497 13.844 6.56015
118 1 -1.1104 6.44138 16.8474 6.64748
9046 2 2.2208 13.5036 4.08575 -0.302738
108 1 -1.1104 0.743394 14.0521 6.453
288 1 -1.1104 6.57337 19.5436 9.34352
201 2 2.2208 2.32106 15.3799 10.8114
204 2 2.2208 2.28477 21.1811 10.9227
211 1 -1.1104 3.72723 16.9444 12.4197
230 1 -1.1104 0.776369 16.6575 12.2666
231 1 -1.1104 3.68897 14.1274 9.4041
233 1 -1.1104 3.59228 16.9285 9.58721
286 1 -1.1104 3.60836 19.8307 12.3048
287 1 -1.1104 3.49498 13.8437 12.1874
291 1 -1.1104 0.892994 19.5237 9.52285
292 1 -1.1104 0.972166 16.7531 9.47724
293 2 2.2208 5.05744 21.0793 8.10177
294 1 -1.1104 0.824055 14.0727 9.40751
295 2 2.2208 5.18616 15.5765 8.0783
298 1 -1.1104 0.711816 19.4748 12.2246
299 1 -1.1104 0.76913 13.9281 12.1085
300 2 2.2208 4.94456 18.2969 10.9257
301 1 -1.1104 3.80657 19.7499 9.42862
303 2 2.2208 2.17259 18.254 8.04968
296 1 -1.1104 6.24609 19.67 12.0712
290 1 -1.1104 6.49393 14.0399 9.43362
486 2 2.2208 5.12187 21.145 13.5796
165 2 2.2208 7.9812 15.333 10.7101
509 1 -1.1104 9.33583 16.7042 12.1827
112 1 -1.1104 6.64647 19.6056 6.58385
104 1 -1.1104 9.39049 19.6263 12.0634
8964 2 2.2208 13.4679 18.198 7.99458
154 1 -1.1104 9.2619 13.9604 6.67009
488 2 2.2208 10.8221 15.4481 13.4386
199 2 2.2208 7.86585 21.0712 10.7305
200 1 -1.1104 9.15681 16.8392 9.36065
30 1 -1.1104 12.2088 14.1343 9.36609
27 1 -1.1104 12.1177 19.7498 12.2391
82 1 -1.1104 12.062 16.8877 9.47829
25 2 2.2208 10.5945 18.1854 10.8568
297 1 -1.1104 6.7098 14.0515 12.1845
289 1 -1.1104 6.36076 16.8462 9.78499
105 2 2.2208 7.90424 18.3117 8.03817
137 1 -1.1104 9.3736 19.6023 9.34558
26 1 -1.1104 12.1447 14.1746 12.1737
50 1 -1.1104 12.2513 16.8823 12.2166
51 2 2.2208 10.6813 15.3659 7.99622
31 1 -1.1104 12.0325 19.62 9.30404
81 2 2.2208 10.6856 20.9818 8.01481
83 1 -1.1104 9.56137 13.8277 12.6433
487 2 2.2208 13.5976 18.3067 13.6507
8308 2 2.2208 7.91269 -4.25057 13.4655
485 2 2.2208 2.09119 18.1433 13.6797
307 2 2.2208 10.6078 4.12608 13.5972
400 2 2.2208 7.93813 21.0193 -0.360453
9004 2 2.2208 13.48 6.89872 13.6565
316 2 2.2208 4.7689 1.46189 -0.413132
323 2 2.2208 8.05327 4.09307 -0.390614
8993 2 2.2208 13.4984 1.40175 13.5832
324 2 2.2208 5.09629 7.01777 -0.357036
327 2 2.2208 5.05698 1.44808 16.3875
328 1 -1.1104 0.890032 -2.947 17.9148
329 1 -1.1104 0.74045 3.04402 17.7751
332 1 -1.1104 0.933993 -2.79175 15.1176
334 1 -1.1104 0.883959 2.81609 15.0821
340 1 -1.1104 0.720404 0.146343 17.8049
342 2 2.2208 5.04633 -1.47445 19.1761
343 2 2.2208 5.05723 4.14998 19.1766
344 1 -1.1104 0.839288 0.0560819 15.0838
348 1 -1.1104 3.63373 -2.8444 17.6262
349 1 -1.1104 3.59302 2.71678 17.911
350 2 2.2208 2.20862 1.44383 19.1358
351 1 -1.1104 3.54246 -2.97193 14.9938
353 1 -1.1104 3.7536 2.86379 15.0535
355 2 2.2208 2.17837 -1.51188 16.4575
356 2 2.2208 2.3027 4.36332 16.5196
357 1 -1.1104 3.51627 -0.108933 17.7217
358 1 -1.1104 3.63525 -0.00971888 15.0243
336 1 -1.1104 6.30659 -2.80447 14.9387
330 1 -1.1104 6.37561 -2.81782 17.6951
331 1 -1.1104 6.41495 2.74852 17.6997
337 1 -1.1104 6.55777 -2.90151 20.5869
339 1 -1.1104 6.38922 2.60873 20.4815
333 1 -1.1104 0.913522 -2.83152 20.4735
354 1 -1.1104 3.73353 2.81602 20.5471
338 1 -1.1104 6.41279 2.7291 14.9567
341 1 -1.1104 6.29603 -0.0880179 17.8403
347 1 -1.1104 6.3995 -0.045192 20.7316
8423 2 2.2208 4.97001 -4.20824 16.3958
335 1 -1.1104 0.920303 2.79617 20.6658
345 1 -1.1104 0.852411 -0.0325716 20.6086
352 1 -1.1104 3.75419 -2.76455 20.745
346 1 -1.1104 6.36889 -0.00618719 14.9299
370 2 2.2208 10.6614 1.36607 16.3473
371 1 -1.1104 11.9831 -2.56837 17.6951
372 1 -1.1104 12.1435 2.98895 17.8692
373 1 -1.1104 12.0039 -2.9882 15.0235
375 1 -1.1104 11.9354 2.77837 15.0385
376 1 -1.1104 12.1399 0.133247 17.7371
377 2 2.2208 10.6574 -1.32674 19.0542
378 2 2.2208 10.7931 4.13005 19.33
379 1 -1.1104 12.1107 -0.0903607 14.9054
381 1 -1.1104 9.09606 -2.79126 17.6642
382 1 -1.1104 9.26621 2.72314 17.8885
383 2 2.2208 7.86735 1.27168 19.1927
384 1 -1.1104 9.24017 -2.70071 14.842
386 1 -1.1104 9.19018 2.77168 15.1124
388 2 2.2208 7.76606 -1.32772 16.2948
389 2 2.2208 7.85394 4.16964 16.3798
390 1 -1.1104 9.21581 -0.0108712 17.7774
391 1 -1.1104 9.21241 0.0534918 14.9759
380 1 -1.1104 12.0214 -0.193459 20.5193
9050 2 2.2208 13.5393 1.4855 19.3011
392 1 -1.1104 9.17625 -0.19687 20.5504
387 1 -1.1104 9.23919 2.70067 20.62
9089 2 2.2208 13.5544 -1.3841 16.3132
385 1 -1.1104 9.42584 -2.89136 20.5486
8307 2 2.2208 4.99311 -4.27109 27.7244
9044 2 2.2208 13.5177 4.10349 16.4392
8369 2 2.2208 2.3345 -4.2686 24.765
402 2 2.2208 4.97457 7.11982 16.3718
403 2 2.2208 5.25021 12.4831 16.3644
404 1 -1.1104 0.829913 8.4697 17.8069
406 1 -1.1104 0.976753 8.28865 15.0265
410 1 -1.1104 0.929349 5.66525 17.8613
411 1 -1.1104 0.821135 11.2006 17.8063
414 2 2.2208 5.18187 9.84687 19.2524
415 1 -1.1104 0.772363 5.56489 15.0573
417 1 -1.1104 0.644641 11.1471 14.8523
423 1 -1.1104 3.5883 8.5214 17.9042
424 2 2.2208 2.27307 7.13993 19.2639
425 2 2.2208 2.28228 12.6216 19.015
426 1 -1.1104 3.68731 8.58623 15.0105
428 2 2.2208 2.22704 9.87655 16.4174
429 1 -1.1104 3.70538 5.70767 17.7844
430 1 -1.1104 3.62088 11.1999 17.7073
431 1 -1.1104 3.55252 5.8139 15.1108
433 1 -1.1104 3.52786 11.604 14.9933
434 1 -1.1104 3.74112 11.5297 20.5517
421 1 -1.1104 6.349 10.9358 15.0038
412 1 -1.1104 6.28632 5.69956 17.9032
413 1 -1.1104 6.62757 11.531 17.9174
405 1 -1.1104 6.39073 8.58841 17.7266
408 1 -1.1104 6.43451 8.22272 14.9985
407 1 -1.1104 0.96134 8.448 20.6109
416 1 -1.1104 0.805701 5.58511 20.6136
419 1 -1.1104 6.39248 5.46544 15.2001
418 1 -1.1104 0.980719 11.3417 20.5844
427 1 -1.1104 3.79481 8.59423 20.6878
409 1 -1.1104 6.48348 8.28992 20.6605
422 1 -1.1104 6.50533 11.0399 20.7123
9120 2 2.2208 13.4337 7.01433 19.216
9119 2 2.2208 13.5156 9.87568 16.2617
439 2 2.2208 10.8279 7.09126 16.3456
440 2 2.2208 10.7445 12.5497 16.5827
441 1 -1.1104 12.1047 8.4021 17.8267
442 1 -1.1104 12.1491 8.36392 14.9119
444 1 -1.1104 12.1018 5.66947 17.8111
445 1 -1.1104 12.0205 11.1984 17.8715
446 2 2.2208 10.7116 9.89982 19.304
447 1 -1.1104 12.1471 5.54915 14.8421
449 1 -1.1104 12.0352 11.23 14.996
451 1 -1.1104 9.36905 8.5155 17.79
452 2 2.2208 7.89434 6.88827 19.2119
453 2 2.2208 7.97847 12.6266 19.2839
454 1 -1.1104 9.26938 8.41942 15.0235
456 2 2.2208 7.87133 9.68784 16.4172
457 1 -1.1104 9.23624 5.71008 17.7249
458 1 -1.1104 9.24527 11.1908 17.8209
459 1 -1.1104 9.39635 5.52222 14.9051
461 1 -1.1104 9.22049 11.3597 15.0217
9108 1 -1.1104 11.9509 8.42193 20.6179
455 1 -1.1104 9.18926 8.36163 20.5057
462 1 -1.1104 9.35616 11.0704 20.6276
460 1 -1.1104 9.30379 5.43455 20.5291
450 1 -1.1104 12.1683 11.1154 20.7883
17609 2 2.2208 13.4482 -4.15869 19.2493
8406 2 2.2208 10.5475 -4.13339 16.2725
465 1 -1.1104 0.852822 13.9165 17.8145
466 1 -1.1104 0.957297 19.8884 17.8025
467 1 -1.1104 3.62008 13.8366 17.2533
469 1 -1.1104 1.15528 13.9489 14.8807
471 1 -1.1104 0.756931 19.778 14.9786
477 1 -1.1104 0.839773 16.8699 15.197
479 1 -1.1104 3.79279 16.6776 15.5959
480 1 -1.1104 3.73624 19.4891 14.9843
481 2 2.2208 2.17448 15.4866 16.5409
482 2 2.2208 2.18838 21.1132 16.268
483 1 -1.1104 0.846572 16.8158 17.937
464 2 2.2208 5.39769 18.1404 15.7455
474 1 -1.1104 6.49628 19.8828 15.0534
470 1 -1.1104 1.15393 14.416 20.4998
473 1 -1.1104 6.58582 13.898 20.7631
478 1 -1.1104 6.67545 16.8492 20.6065
468 1 -1.1104 6.61195 18.8147 17.4843
476 1 -1.1104 7.02941 13.642 15.4525
364 2 2.2208 13.5156 15.3352 22.0415
395 2 2.2208 13.5473 18.2739 19.3941
500 1 -1.1104 12.1528 16.8582 20.7119
396 2 2.2208 13.5145 15.5853 16.5677
489 2 2.2208 10.762 18.2473 16.6297
490 1 -1.1104 12.1152 14.1007 17.9416
491 1 -1.1104 12.164 19.6701 17.9542
492 1 -1.1104 11.882 13.9514 15.1369
494 1 -1.1104 12.2297 19.5017 15.0832
496 1 -1.1104 12.1883 16.812 17.9318
497 2 2.2208 10.609 15.3592 19.2651
498 2 2.2208 10.8024 21.0562 19.2277
499 1 -1.1104 11.9801 16.6865 15.1066
501 1 -1.1104 9.43996 13.8101 17.8503
502 1 -1.1104 9.4727 19.608 17.8954
503 2 2.2208 8.03911 18.3613 19.3539
505 1 -1.1104 9.57112 19.4388 15.1462
507 2 2.2208 7.96481 20.9133 16.4072
508 1 -1.1104 9.33764 16.8641 17.7721
495 1 -1.1104 12.176 19.5845 20.768
504 1 -1.1104 9.34425 13.8425 20.8329
493 1 -1.1104 12.1184 13.9062 20.6846
366 2 2.2208 13.624 21.0302 16.5258
359 1 -1.1104 3.58982 -0.0881084 20.4369
514 2 2.2208 5.12596 1.34668 22.0119
515 1 -1.1104 0.926022 -2.87425 23.3253
516 1 -1.1104 1.03196 2.85658 23.6826
519 1 -1.1104 0.928003 -2.87041 26.3279
520 1 -1.1104 0.791038 2.7523 26.2507
523 1 -1.1104 0.887555 0.0837206 23.4252
525 2 2.2208 5.06963 -1.40512 24.7555
526 2 2.2208 5.21498 4.22931 24.8252
527 1 -1.1104 0.855742 -0.102179 26.1185
529 1 -1.1104 3.70211 -2.84987 23.5319
530 1 -1.1104 3.80402 2.87392 23.277
531 2 2.2208 2.32108 1.41327 24.8406
532 1 -1.1104 3.78533 -2.83919 26.3544
533 1 -1.1104 3.51549 2.80514 26.2002
534 2 2.2208 2.32586 -1.43018 21.993
535 2 2.2208 2.33575 4.26493 21.9805
536 1 -1.1104 3.72614 0.196823 23.3567
537 1 -1.1104 3.71627 -0.0585499 26.2018
521 1 -1.1104 6.61051 -2.91702 26.292
524 1 -1.1104 6.49055 -0.0370768 23.4181
517 1 -1.1104 6.53852 -2.80512 23.3424
522 1 -1.1104 6.53359 2.64893 26.2336
528 1 -1.1104 6.55599 -0.142496 26.3214
518 1 -1.1104 6.68158 2.79058 23.3759
318 2 2.2208 2.25004 4.23083 27.5918
8404 2 2.2208 7.87838 -4.17798 19.146
9121 2 2.2208 13.4742 12.5694 19.299
317 2 2.2208 2.31194 -1.523 27.6457
9091 2 2.2208 13.4738 15.4318 27.6787
374 1 -1.1104 12.012 -2.93949 20.6457
9045 2 2.2208 13.5456 -1.46885 22.0486
321 2 2.2208 10.8867 1.3027 27.6737
322 2 2.2208 7.95526 -1.5666 27.528
9295 1 -1.1104 12.1092 2.58827 20.5235
549 2 2.2208 10.621 1.1687 21.8692
550 1 -1.1104 12.0552 -2.8815 23.3969
551 1 -1.1104 11.7609 -0.194393 23.2003
552 1 -1.1104 12.0302 -2.92999 26.169
553 1 -1.1104 12.135 3.24504 26.1666
554 2 2.2208 10.7439 -1.46373 24.7366
556 1 -1.1104 9.20924 -2.87791 23.5155
557 1 -1.1104 9.64699 2.57186 23.4103
558 2 2.2208 7.90112 1.19305 24.8189
559 1 -1.1104 9.37787 -3.07094 26.2928
560 1 -1.1104 9.20204 2.80424 26.2186
561 2 2.2208 7.87931 -1.48613 22.002
562 2 2.2208 7.84194 4.13505 21.9058
563 1 -1.1104 9.17139 -0.0977042 23.3414
564 1 -1.1104 9.3303 -0.1073 26.2046
37 1 -1.1104 12.0699 -0.150593 26.2563
555 2 2.2208 10.4694 4.09814 24.8335
570 2 2.2208 2.2347 21.0763 27.7159
8990 2 2.2208 13.3881 -1.53471 27.3943
513 1 -1.1104 12.1519 13.908 23.5496
544 1 -1.1104 9.55253 16.9491 23.4878
603 2 2.2208 5.16224 12.5548 27.6006
325 2 2.2208 2.25502 9.74799 27.5722
432 1 -1.1104 3.69607 5.64961 20.7079
577 2 2.2208 5.05861 6.93512 22.0198
578 2 2.2208 5.25602 12.5527 22.1475
579 1 -1.1104 0.949039 8.56052 23.4265
581 1 -1.1104 1.04958 8.41788 26.2275
583 1 -1.1104 0.975079 5.59504 23.2987
584 1 -1.1104 0.776693 11.3539 23.358
587 2 2.2208 5.096 9.71968 24.8317
588 1 -1.1104 1.00561 5.71751 26.2007
589 1 -1.1104 0.869051 11.1911 26.2606
592 1 -1.1104 3.68509 8.28215 23.4669
593 2 2.2208 2.34944 6.88613 24.7601
594 2 2.2208 2.3553 12.5799 24.7638
595 1 -1.1104 3.73805 8.30193 26.419
596 2 2.2208 2.36158 9.92864 21.9501
597 1 -1.1104 3.7075 5.61165 23.355
598 1 -1.1104 3.80339 11.1156 23.4052
599 1 -1.1104 3.76896 5.47329 26.1571
600 1 -1.1104 3.74971 11.0995 26.2161
586 1 -1.1104 6.70475 11.2002 23.4777
420 1 -1.1104 6.37739 5.3539 20.6868
582 1 -1.1104 6.51233 8.39496 26.384
591 1 -1.1104 6.60474 11.2438 26.189
443 1 -1.1104 12.0328 5.72169 20.6968
622 2 2.2208 7.92404 9.84769 27.6437
580 1 -1.1104 6.46723 8.4089 23.5123
585 1 -1.1104 6.67044 5.62916 23.3588
590 1 -1.1104 6.81524 5.46019 26.1467
605 1 -1.1104 9.27882 11.1034 26.3189
606 1 -1.1104 9.6849 5.70533 26.0419
607 1 -1.1104 9.27454 11.194 23.2994
608 1 -1.1104 9.54811 5.41085 23.2216
609 2 2.2208 7.84475 9.75091 22.0078
610 1 -1.1104 9.17606 8.48613 26.3406
611 2 2.2208 7.97148 12.7078 24.8558
612 2 2.2208 7.86185 7.06249 24.824
613 2 2.2208 10.5657 7.04517 21.8967
614 2 2.2208 10.726 12.5984 22.1118
615 1 -1.1104 11.949 8.34774 23.4073
616 1 -1.1104 11.8502 8.27164 26.2938
617 1 -1.1104 11.967 11.2697 23.5476
618 2 2.2208 10.6357 9.78926 24.9563
619 1 -1.1104 12.1081 11.1486 26.3555
620 1 -1.1104 9.28017 8.44379 23.3476
623 2 2.2208 10.766 12.6447 27.5629
9232 2 2.2208 13.5667 9.74476 27.5459
9233 2 2.2208 13.6469 12.4244 24.8048
9300 2 2.2208 13.3497 9.638 22.0817
576 1 -1.1104 6.54207 19.669 26.4875
320 2 2.2208 2.41866 15.4155 27.7464
601 1 -1.1104 6.68576 16.8301 26.2504
472 1 -1.1104 0.861068 19.5798 20.7333
360 2 2.2208 2.22702 21.0862 21.8888
361 1 -1.1104 3.56559 16.7157 23.6653
362 1 -1.1104 0.821585 16.924 23.4273
397 1 -1.1104 3.8326 13.9859 26.0998
401 1 -1.1104 3.84201 16.8144 26.4591
435 2 2.2208 2.24064 18.4207 24.8151
438 1 -1.1104 3.75326 19.6529 26.195
448 2 2.2208 5.2273 18.0852 22.1269
463 1 -1.1104 0.967353 14.0309 23.3376
484 1 -1.1104 3.72588 16.6586 20.9292
538 1 -1.1104 0.740968 19.7451 23.5616
540 2 2.2208 5.21952 15.4115 24.9773
543 2 2.2208 5.1476 21.0904 24.9015
565 1 -1.1104 0.934557 13.9983 26.1725
566 1 -1.1104 1.02919 16.708 26.0892
567 1 -1.1104 0.994278 19.547 26.3412
571 2 2.2208 2.27064 15.4662 22.1828
602 1 -1.1104 3.71615 13.7591 23.1636
626 1 -1.1104 3.56639 19.4253 23.131
545 1 -1.1104 6.35866 19.3576 23.6926
539 1 -1.1104 6.46317 13.9999 23.5822
621 1 -1.1104 6.69518 13.8997 26.3546
569 2 2.2208 5.12973 18.2851 27.5618
399 2 2.2208 10.7546 18.2322 27.6954
369 2 2.2208 13.4732 21.0298 22.1022
367 2 2.2208 13.611 18.244 24.7917
541 1 -1.1104 12.2032 19.5905 23.5033
475 1 -1.1104 6.61734 19.5276 20.9694
506 1 -1.1104 9.47115 19.601 20.7472
624 1 -1.1104 9.35692 19.5087 26.3358
568 2 2.2208 10.6791 20.9333 24.919
625 2 2.2208 7.83246 15.4232 22.0325
510 1 -1.1104 9.4962 16.8206 20.6756
512 2 2.2208 10.7417 18.1368 22.0337
398 1 -1.1104 9.44406 16.7397 26.3577
394 2 2.2208 8.04659 15.4838 27.7341
575 2 2.2208 8.11679 18.1132 24.8551
393 1 -1.1104 6.51301 16.7459 23.5116
548 2 2.2208 10.8551 15.4635 24.7696
604 1 -1.1104 9.58127 13.9899 26.0683
437 2 2.2208 7.92839 21.0212 22.0227
574 1 -1.1104 9.24987 19.8675 23.5476
542 1 -1.1104 12.4324 13.9402 26.2874
573 1 -1.1104 9.39531 14.1044 23.4413
572 1 -1.1104 12.2858 16.7482 26.2887
547 1 -1.1104 12.2422 16.778 23.4202
546 1 -1.1104 12.1645 19.6353 26.1994
368 2 2.2208 13.437 21.0526 27.6292
9113 2 2.2208 13.4583 12.5169 13.7282
627 2 2.2208 5.03219 23.8844 5.12385
628 2 2.2208 5.11406 29.4742 5.22055
629 1 -1.1104 0.897604 25.3549 1.12261
630 1 -1.1104 0.788025 24.9936 3.767
631 1 -1.1104 0.984843 22.4543 0.976804
632 1 -1.1104 0.711908 28.0522 0.869697
633 2 2.2208 4.98784 26.8593 2.33029
634 1 -1.1104 0.968798 22.3134 3.75319
635 1 -1.1104 0.882312 27.9191 3.78916
636 1 -1.1104 3.67265 25.3033 1.06462
637 2 2.2208 2.25785 23.8548 2.27028
638 2 2.2208 2.16624 29.3852 2.42681
639 1 -1.1104 3.69094 25.3763 3.8849
640 2 2.2208 2.22239 26.5138 5.12645
641 1 -1.1104 3.65851 22.4108 1.05557
642 1 -1.1104 3.63528 28.1166 0.980507
643 1 -1.1104 3.77199 22.4974 3.78094
644 1 -1.1104 3.62995 28.1952 3.78402
649 1 -1.1104 6.45078 25.2072 3.71466
770 1 -1.1104 0.836177 22.295 6.44611
775 1 -1.1104 3.67377 22.5172 6.69378
648 1 -1.1104 6.48783 25.3685 0.890832
650 1 -1.1104 6.45825 22.4808 1.04604
773 1 -1.1104 6.41461 27.9918 6.54012
774 1 -1.1104 3.66069 25.1826 6.42193
652 1 -1.1104 6.50477 22.463 3.86964
651 1 -1.1104 6.36198 28.0484 0.970215
772 1 -1.1104 6.33617 22.4613 6.61098
653 1 -1.1104 6.38765 28.0571 3.85098
769 1 -1.1104 6.4348 25.2651 6.58336
776 1 -1.1104 3.6385 27.984 6.60434
771 1 -1.1104 0.807614 28.1045 6.65064
654 2 2.2208 10.6669 23.7648 5.2086
655 2 2.2208 10.5794 29.3099 5.33834
656 1 -1.1104 11.9919 25.2165 1.02967
657 1 -1.1104 12.0086 25.2239 3.73368
658 1 -1.1104 11.8361 22.4973 1.00064
659 1 -1.1104 11.982 27.9138 0.891146
660 2 2.2208 10.5232 26.7209 2.40416
661 1 -1.1104 12.0915 22.4642 3.87669
662 1 -1.1104 11.9386 27.9654 3.73151
663 1 -1.1104 9.11137 25.3644 1.00886
664 2 2.2208 7.81853 23.9376 2.49077
665 2 2.2208 7.75763 29.5315 2.39134
666 1 -1.1104 9.28841 25.255 3.6987
667 2 2.2208 7.79123 26.614 5.14428
668 1 -1.1104 9.25914 22.4365 1.1933
669 1 -1.1104 9.12178 28.036 0.934029
670 1 -1.1104 9.29548 22.5811 3.90077
671 1 -1.1104 9.21511 27.9922 3.83992
673 2 2.2208 13.366 29.2061 2.313
917 2 2.2208 -0.405139 46.1602 10.7043
943 2 2.2208 13.5508 37.8342 5.24847
672 2 2.2208 13.4706 23.8807 2.42623
803 1 -1.1104 11.9999 27.7821 6.49317
804 1 -1.1104 9.22348 25.2456 6.61323
802 1 -1.1104 11.9825 22.2531 6.5503
675 2 2.2208 5.09237 35.1363 5.23075
676 1 -1.1104 0.899646 30.9142 0.873312
677 1 -1.1104 0.859808 36.422 1.06077
679 1 -1.1104 0.99844 30.7481 3.92624
680 1 -1.1104 0.844408 36.4241 3.80616
682 1 -1.1104 0.888974 33.7316 0.959488
683 2 2.2208 5.0175 32.3366 2.45155
684 2 2.2208 5.16075 37.7999 2.39655
685 1 -1.1104 0.793508 33.6294 3.78755
687 1 -1.1104 3.71548 30.8837 1.0561
688 1 -1.1104 3.74368 36.3964 1.15883
689 2 2.2208 2.27313 35.1515 2.32253
690 1 -1.1104 3.82611 30.9761 4.01336
691 1 -1.1104 3.69508 36.4753 3.9566
692 2 2.2208 2.29611 32.246 5.28639
693 2 2.2208 2.33807 37.7539 5.26562
694 1 -1.1104 3.68635 33.6055 0.997855
695 1 -1.1104 3.59112 33.7188 3.83158
826 1 -1.1104 0.953744 36.4334 6.55643
699 1 -1.1104 6.48156 30.8615 0.85782
830 1 -1.1104 6.47181 33.6055 6.56058
701 1 -1.1104 6.53159 33.5008 1.07409
700 1 -1.1104 6.4187 30.8537 3.80114
832 1 -1.1104 3.76868 36.584 6.56906
827 1 -1.1104 6.4296 30.8552 6.70661
681 1 -1.1104 6.40239 36.5394 3.82444
686 1 -1.1104 6.38014 33.7063 3.7898
828 1 -1.1104 6.41865 36.4581 6.6188
965 2 2.2208 13.5607 46.2322 13.6659
746 2 2.2208 13.649 43.3289 10.7942
919 1 -1.1104 9.30207 44.8303 9.23023
825 1 -1.1104 0.83607 30.9726 6.68342
831 1 -1.1104 3.63429 30.8083 6.67775
678 1 -1.1104 6.60199 36.3487 1.01041
702 2 2.2208 10.7529 35.0157 5.28227
703 1 -1.1104 12.0997 30.6309 0.918809
704 1 -1.1104 12.1908 36.4028 1.12925
705 1 -1.1104 11.9404 30.6138 3.83019
706 1 -1.1104 12.1009 36.3301 3.98725
707 1 -1.1104 11.9558 33.4166 0.834848
708 2 2.2208 10.6901 32.2114 2.39582
709 2 2.2208 10.7786 37.8705 2.51152
710 1 -1.1104 11.9894 33.6393 3.59754
711 1 -1.1104 9.34681 30.6823 0.777825
712 1 -1.1104 9.45598 36.4431 0.949159
713 2 2.2208 8.03611 34.9261 2.32627
714 1 -1.1104 9.12353 30.8326 3.67548
715 1 -1.1104 9.29202 36.4716 3.7449
716 2 2.2208 7.7716 32.1888 5.22487
717 2 2.2208 7.95267 37.8213 5.13578
718 1 -1.1104 9.25795 33.5199 0.960847
719 1 -1.1104 9.24432 33.6331 3.91116
863 1 -1.1104 9.31434 36.5355 6.52418
720 2 2.2208 13.5682 34.9341 2.35044
944 2 2.2208 13.4457 32.1251 5.19706
861 1 -1.1104 12.1663 33.4534 6.62871
923 2 2.2208 8.04194 43.5354 10.8694
674 2 2.2208 13.353 26.646 5.16676
957 2 2.2208 13.5219 40.5915 8.18759
927 1 -1.1104 9.34209 42.0793 12.2128
721 2 2.2208 5.13529 40.5952 5.10325
722 2 2.2208 5.06021 46.1846 5.22986
723 1 -1.1104 0.852041 42.2552 0.929844
725 1 -1.1104 0.978263 42.0763 3.81453
727 1 -1.1104 0.908119 39.4468 0.990196
728 1 -1.1104 0.898147 44.8757 0.982092
731 2 2.2208 5.25306 43.5252 2.32052