ITEM: TIMESTEP
100000
ITEM: NUMBER OF ATOMS
17910
ITEM: BOX BOUNDS pp pp pp
-3.6499672886512019e-01 2.7704996728865641e+01
-4.3246038893021206e+00 3.3240460388930501e+02
-3.5290667883998994e-01 2.7692906678840114e+01
ITEM: ATOMS id type q x y z
1 2 2.2208 5.09777 1.25085 5.21737
2 1 -1.1104 0.897824 -2.86783 1.01783
3 1 -1.1104 0.97679 2.78778 0.939063
6 1 -1.1104 1.05124 -2.8692 3.79747
7 1 -1.1104 0.936416 2.59134 3.75226
10 1 -1.1104 0.845316 -0.114213 1.09056
12 2 2.2208 5.12902 -1.59529 2.43925
13 2 2.2208 5.17813 4.11831 2.53252
14 1 -1.1104 0.954593 -0.118011 3.79904
16 1 -1.1104 3.77051 -2.95522 1.04825
17 1 -1.1104 3.82319 2.74313 1.09403
18 2 2.2208 2.31617 1.3343 2.43117
19 1 -1.1104 3.75439 -2.90678 3.77684
20 1 -1.1104 3.63816 2.6692 3.91379
21 2 2.2208 2.3427 -1.44278 5.19765
22 2 2.2208 2.41095 4.04558 5.30003
23 1 -1.1104 3.59522 -0.137093 1.09781
24 1 -1.1104 3.77629 -0.204263 3.87603
4 1 -1.1104 6.60264 -2.79285 1.06316
15 1 -1.1104 6.56843 -0.34155 3.80568
173 1 -1.1104 3.83596 2.50587 6.60626
9 1 -1.1104 6.34058 2.55403 3.73973
8 1 -1.1104 6.52531 -3.14741 3.75954
11 1 -1.1104 6.52831 -0.0116344 1.14584
169 1 -1.1104 6.66834 2.6265 6.5777
8300 2 2.2208 10.7069 -4.41258 10.8798
5 1 -1.1104 6.60899 2.79404 1.10515
166 1 -1.1104 0.991735 -2.7898 6.48764
170 1 -1.1104 0.950138 -0.0714728 6.69202
167 1 -1.1104 0.974557 2.70361 6.49966
171 1 -1.1104 6.67222 0.0145922 6.6697
168 1 -1.1104 6.82457 -2.79555 6.81368
203 2 2.2208 5.16821 -4.41139 10.7954
32 2 2.2208 10.7915 1.25441 5.25948
33 1 -1.1104 12.0308 -3.07227 1.05811
34 1 -1.1104 12.1161 2.53473 1.14794
35 1 -1.1104 12.1536 -2.91349 3.82378
36 1 -1.1104 12.1486 2.71748 3.85436
38 2 2.2208 10.7943 -1.6136 2.46441
39 2 2.2208 10.6177 4.08811 2.62309
40 1 -1.1104 12.2175 -0.117995 3.78631
41 1 -1.1104 9.36652 -2.91314 1.03248
42 1 -1.1104 9.50831 2.70088 0.974981
43 2 2.2208 7.91859 1.17657 2.46656
44 1 -1.1104 9.33529 -3.05011 3.97515
45 1 -1.1104 9.37274 2.54929 3.85479
46 2 2.2208 7.92044 -1.519 5.33495
48 1 -1.1104 9.5024 0.0260318 1.01659
49 1 -1.1104 9.37287 -0.254742 3.76001
8662 1 -1.1104 12.8327 -0.20686 1.17334
47 2 2.2208 7.99558 4.1607 5.29599
205 1 -1.1104 12.2753 -3.00348 6.60423
9046 2 2.2208 13.6314 3.86626 -0.202855
8970 2 2.2208 13.614 -1.57542 5.16054
8664 2 2.2208 13.6639 4.03383 5.34777
8969 2 2.2208 13.6233 1.44195 2.5404
17518 2 2.2208 13.631 -4.50844 13.7682
208 1 -1.1104 9.5313 -3.01519 6.69439
209 1 -1.1104 9.42653 2.58964 6.68774
210 1 -1.1104 9.49434 -0.253979 6.60763
17515 2 2.2208 13.6419 -4.26765 2.51712
54 2 2.2208 5.29932 6.8881 5.29829
55 2 2.2208 5.40768 12.5562 5.17413
56 1 -1.1104 0.847246 8.38492 0.972164
58 1 -1.1104 1.0619 8.33444 3.68337
60 1 -1.1104 0.866309 5.53799 1.07259
61 1 -1.1104 1.15437 11.2531 0.949832
66 2 2.2208 5.1012 9.69173 2.47533
67 1 -1.1104 0.916466 5.40261 3.82043
68 1 -1.1104 1.007 10.9728 3.65215
71 1 -1.1104 3.60543 8.23791 1.09818
72 2 2.2208 2.34838 6.89977 2.53968
73 2 2.2208 2.36879 12.4102 2.4873
74 1 -1.1104 3.86721 8.27131 3.77363
75 2 2.2208 2.33051 9.75827 5.11337
76 1 -1.1104 3.69828 5.5249 1.28577
77 1 -1.1104 3.9134 11.0353 0.977337
79 1 -1.1104 3.97797 5.51942 4.10429
80 1 -1.1104 3.87949 11.1301 3.83714
239 1 -1.1104 3.83566 5.51497 6.67403
63 1 -1.1104 6.50346 5.60316 1.14781
57 1 -1.1104 6.53643 8.31435 0.942471
59 1 -1.1104 6.66376 8.28812 3.90739
64 1 -1.1104 6.60339 11.0987 1.04734
237 1 -1.1104 6.56249 5.37076 6.87026
78 1 -1.1104 3.60154 11.1163 6.63986
234 1 -1.1104 1.0227 8.29979 6.58908
65 1 -1.1104 6.62052 10.9951 6.54715
69 1 -1.1104 6.58761 5.39895 3.9841
70 1 -1.1104 6.67793 11.1427 3.78668
235 1 -1.1104 6.53971 8.27121 6.69061
236 1 -1.1104 0.9792 5.50663 6.67711
238 1 -1.1104 3.88097 8.40373 6.58013
326 2 2.2208 10.7841 7.07458 -0.120676
84 2 2.2208 10.9443 6.99507 5.35248
85 2 2.2208 10.8403 12.5104 5.20488
86 1 -1.1104 12.203 8.33265 1.1758
87 1 -1.1104 12.3293 8.31857 3.82045
88 1 -1.1104 12.1367 5.3784 0.857685
89 1 -1.1104 12.3135 11.0092 1.16727
91 2 2.2208 10.783 9.70462 2.45283
92 1 -1.1104 12.0949 5.44571 3.78604
93 1 -1.1104 12.3354 11.1143 3.92486
94 1 -1.1104 9.34459 8.36542 1.12898
95 2 2.2208 7.90932 6.94704 2.58353
96 2 2.2208 8.07361 12.4194 2.40998
97 1 -1.1104 9.40063 8.28357 3.88322
98 2 2.2208 8.03817 9.68188 5.28636
99 1 -1.1104 9.28697 5.47442 1.15226
100 1 -1.1104 9.42962 11.0895 1.05864
102 1 -1.1104 9.35415 5.53858 4.04881
103 1 -1.1104 9.47914 11.1461 4.07784
269 1 -1.1104 9.45496 5.44384 6.65463
8975 2 2.2208 13.7396 6.90758 2.53348
8693 2 2.2208 13.6385 9.76854 5.30527
267 1 -1.1104 9.41353 8.22614 6.73016
90 1 -1.1104 11.9677 11.2567 6.79665
101 1 -1.1104 9.2658 11.0298 6.81814
8974 2 2.2208 13.6801 12.5406 2.5056
29 2 2.2208 5.15886 -4.4127 5.218
106 2 2.2208 5.21613 18.0305 5.38074
107 1 -1.1104 1.00859 13.8622 1.24701
109 1 -1.1104 0.892387 19.6229 0.998136
113 1 -1.1104 1.02194 13.7913 4.06307
114 1 -1.1104 1.08405 19.3359 4.00727
116 1 -1.1104 0.723754 16.7016 1.03035
119 2 2.2208 5.01886 15.3382 2.45584
120 2 2.2208 5.21322 20.8265 2.45178
121 1 -1.1104 0.793245 16.8053 3.69953
123 1 -1.1104 3.7837 13.9681 0.949493
125 1 -1.1104 3.76776 19.4133 1.13199
127 2 2.2208 2.31838 18.0689 2.47382
128 1 -1.1104 3.74581 13.7656 3.80984
129 1 -1.1104 3.77277 19.4414 3.94197
130 2 2.2208 2.33083 15.2046 5.23659
131 2 2.2208 2.45074 20.7853 5.23387
132 1 -1.1104 3.60303 16.7163 1.02227
134 1 -1.1104 3.59177 16.6455 3.86611
302 1 -1.1104 0.994283 19.4846 6.74066
133 1 -1.1104 3.72053 16.6051 6.65517
112 1 -1.1104 6.75089 19.5246 6.67958
139 1 -1.1104 6.51344 19.486 4.01188
111 1 -1.1104 6.69903 13.8992 6.60936
115 1 -1.1104 6.55872 13.9854 3.82095
138 1 -1.1104 6.57421 19.3649 0.997411
140 1 -1.1104 6.58102 16.6547 1.08291
110 1 -1.1104 6.46837 13.9088 1.01345
122 1 -1.1104 6.41278 16.7059 3.80915
117 1 -1.1104 0.863555 16.684 6.50369
8741 2 2.2208 13.5287 20.8646 5.22244
141 2 2.2208 10.7517 18.1806 5.17349
142 1 -1.1104 12.262 13.8326 1.07207
144 1 -1.1104 12.1821 19.3899 1.01421
146 1 -1.1104 12.2776 14.086 3.90503
147 1 -1.1104 12.0717 19.5072 3.86332
148 1 -1.1104 12.3003 16.6654 1.08318
150 2 2.2208 10.8894 15.422 2.42113
151 2 2.2208 10.7429 20.9237 2.44035
152 1 -1.1104 12.2282 16.8773 3.86973
153 1 -1.1104 9.47567 13.9358 0.948707
155 1 -1.1104 9.4234 19.4799 1.10314
157 2 2.2208 7.99826 18.111 2.48635
158 1 -1.1104 9.37902 13.837 3.84172
159 1 -1.1104 9.20843 19.563 3.88215
160 2 2.2208 7.95347 15.2817 5.05202
161 2 2.2208 7.86768 20.9928 5.17678
162 1 -1.1104 9.45994 16.6416 1.07024
164 1 -1.1104 9.50904 16.6191 3.80268
163 1 -1.1104 9.25346 16.657 6.52212
8308 2 2.2208 7.90909 -4.39424 13.5374
8968 2 2.2208 13.5646 -1.51696 10.8672
8978 2 2.2208 13.6914 18.2196 2.54789
8762 2 2.2208 13.6128 15.3675 5.24389
154 1 -1.1104 9.30744 13.8736 6.63707
82 1 -1.1104 11.9795 16.4853 9.56209
8880 2 2.2208 13.7173 9.6031 10.9653
172 1 -1.1104 3.82002 -2.95286 6.73718
174 1 -1.1104 3.73186 -0.125136 6.77152
200 1 -1.1104 9.35981 16.6796 9.46233
175 2 2.2208 5.22689 1.1962 10.9886
176 1 -1.1104 0.905254 -2.9891 12.1701
177 1 -1.1104 0.914556 2.54528 12.1876
180 1 -1.1104 0.990501 -2.87489 9.27498
181 1 -1.1104 1.01766 2.64158 9.37652
184 1 -1.1104 0.962131 -0.216568 12.3074
186 2 2.2208 5.16332 -1.401 8.01703
187 2 2.2208 5.24079 3.94846 8.07271
188 1 -1.1104 0.882642 -0.0705043 9.46677
190 1 -1.1104 3.72624 -3.08718 12.1493
191 1 -1.1104 3.6883 2.68611 12.2982
192 2 2.2208 2.33961 1.26245 8.12567
193 1 -1.1104 3.70435 -2.99028 9.55135
194 1 -1.1104 3.75336 2.71875 9.40779
195 2 2.2208 2.36283 -1.57517 10.8676
197 1 -1.1104 3.68726 -0.336745 12.3014
198 1 -1.1104 3.73534 -0.0610845 9.50867
196 2 2.2208 2.3605 3.98361 10.8209
305 2 2.2208 2.40409 1.24034 13.5465
183 1 -1.1104 6.71264 2.66368 9.51042
182 1 -1.1104 6.59012 -2.94018 9.58723
179 1 -1.1104 6.66813 2.63075 12.1932
185 1 -1.1104 6.51223 -0.184484 12.3166
304 2 2.2208 5.10959 4.10984 13.6313
30 1 -1.1104 12.0491 13.6747 9.47554
206 1 -1.1104 12.1852 2.62949 6.70847
8799 2 2.2208 13.5877 3.9794 10.8906
178 1 -1.1104 6.51472 -2.94198 12.2849
189 1 -1.1104 6.61389 -0.0978934 9.46326
207 1 -1.1104 12.3527 -0.243426 6.5997
212 2 2.2208 10.8625 1.25737 10.9507
213 1 -1.1104 12.1234 -3.11558 12.3088
214 1 -1.1104 12.2616 2.61461 12.3091
215 1 -1.1104 12.2806 -3.09643 9.50621
216 1 -1.1104 12.1509 2.55945 9.47668
217 1 -1.1104 12.1968 -0.198127 12.3565
218 2 2.2208 10.8289 -1.60852 8.10913
219 2 2.2208 10.7917 4.106 8.01874
220 1 -1.1104 12.2005 -0.354549 9.47906
221 1 -1.1104 9.36958 -2.82913 12.1225
222 1 -1.1104 9.45406 2.67894 12.3585
223 2 2.2208 8.04466 1.31371 8.21753
224 1 -1.1104 9.42779 -3.01153 9.48272
225 1 -1.1104 9.42021 2.69705 9.55378
226 2 2.2208 7.98869 -1.48626 10.8861
227 2 2.2208 8.02455 4.12385 10.861
228 1 -1.1104 9.43073 -0.114784 12.1952
229 1 -1.1104 9.30026 -0.146536 9.39125
8987 2 2.2208 13.5972 1.13639 8.00462
26 1 -1.1104 12.03 13.6854 12.2693
8964 2 2.2208 13.4749 18.1605 8.06744
308 2 2.2208 10.7279 -1.54778 13.6848
62 1 -1.1104 0.994127 10.9483 6.57414
240 2 2.2208 5.06276 6.72853 10.8886
241 2 2.2208 5.21268 12.4493 10.821
242 1 -1.1104 0.969276 8.14805 12.2908
244 1 -1.1104 0.912258 8.15291 9.49418
246 1 -1.1104 0.989347 5.39129 12.2994
247 1 -1.1104 0.768772 10.8727 12.3055
250 2 2.2208 5.18224 9.66613 8.04873
251 1 -1.1104 1.01659 5.42815 9.40736
252 1 -1.1104 0.947632 10.864 9.50477
255 1 -1.1104 3.79918 8.25525 12.3547
256 2 2.2208 2.31613 6.86962 8.12091
257 2 2.2208 2.33425 12.4737 7.98029
258 1 -1.1104 3.66504 8.26192 9.3934
259 2 2.2208 2.25328 9.58919 10.7712
260 1 -1.1104 3.75101 5.36427 12.1642
261 1 -1.1104 3.80353 10.8737 12.1511
262 1 -1.1104 3.82152 5.38686 9.42057
263 1 -1.1104 3.75245 11.093 9.50727
310 2 2.2208 2.20653 12.1552 13.3516
243 1 -1.1104 6.56575 8.19949 12.4367
249 1 -1.1104 6.5788 11.0709 12.3525
253 1 -1.1104 6.74285 5.33458 9.53724
245 1 -1.1104 6.67395 8.19252 9.63142
254 1 -1.1104 6.61 10.9746 9.36595
248 1 -1.1104 6.5079 5.48914 12.2494
165 2 2.2208 8.02032 15.3158 10.7591
312 2 2.2208 2.34877 6.88763 13.6325
8876 2 2.2208 13.408 12.4233 8.11887
265 1 -1.1104 12.1598 8.46084 6.70084
8875 2 2.2208 13.6881 6.82956 8.12917
266 1 -1.1104 12.3135 5.39271 6.62228
264 1 -1.1104 9.48212 10.8968 9.70475
268 1 -1.1104 9.55784 5.44763 9.54048
270 1 -1.1104 9.48263 11.4077 12.4055
271 1 -1.1104 9.39214 5.49305 12.3633
272 2 2.2208 7.88997 9.74532 11.004
273 1 -1.1104 9.47804 8.26101 9.62057
274 2 2.2208 7.94925 12.4236 8.0628
275 2 2.2208 8.03278 6.83543 8.25003
276 2 2.2208 10.7691 6.84109 10.9872
277 2 2.2208 10.8585 12.2843 10.8617
278 1 -1.1104 12.2274 8.27012 12.2704
279 1 -1.1104 12.2993 8.08903 9.48872
280 1 -1.1104 12.2109 5.43178 12.1935
281 1 -1.1104 12.3515 10.9019 12.3325
282 2 2.2208 10.7929 9.65957 8.16246
283 1 -1.1104 12.358 5.30102 9.35651
284 1 -1.1104 12.219 10.9265 9.64382
285 1 -1.1104 9.40041 8.35834 12.3591
50 1 -1.1104 12.2312 16.6314 12.206
126 1 -1.1104 3.82326 19.2545 6.78349
290 1 -1.1104 6.60896 13.8989 9.47373
199 2 2.2208 7.84261 20.7454 10.8711
124 1 -1.1104 3.88719 13.9573 6.61663
108 1 -1.1104 0.945995 13.8932 6.89478
201 2 2.2208 2.46492 15.2561 11.0091
204 2 2.2208 2.21256 20.8324 10.7839
211 1 -1.1104 3.87806 16.9083 12.369
230 1 -1.1104 0.989115 16.6495 12.3536
231 1 -1.1104 3.86712 13.8961 9.31241
233 1 -1.1104 3.73583 16.7739 9.45522
286 1 -1.1104 3.46429 19.6016 12.2539
287 1 -1.1104 3.68026 13.5873 12.2186
291 1 -1.1104 0.824654 19.4131 9.48533
292 1 -1.1104 0.863625 16.5169 9.47376
293 2 2.2208 5.18238 20.8082 8.00808
294 1 -1.1104 0.930543 13.689 9.57394
295 2 2.2208 5.22091 15.2148 7.97307
298 1 -1.1104 0.772196 19.3492 12.2458
299 1 -1.1104 0.836432 13.7234 12.2894
300 2 2.2208 5.1382 18.0833 10.7779
301 1 -1.1104 3.56294 19.4632 9.47907
303 2 2.2208 2.27309 17.9132 8.09193
296 1 -1.1104 6.16521 19.215 12.3369
289 1 -1.1104 6.49623 16.6341 9.59067
486 2 2.2208 5.0742 20.9102 13.6242
118 1 -1.1104 6.55491 16.6911 6.74445
288 1 -1.1104 6.41263 19.5166 9.52074
137 1 -1.1104 9.36115 19.4398 9.54303
509 1 -1.1104 9.52728 15.9369 12.1406
31 1 -1.1104 12.1517 19.3815 9.5646
52 2 2.2208 13.5158 20.9512 10.8577
156 1 -1.1104 9.4709 19.6264 6.6377
145 1 -1.1104 12.1891 19.4942 6.70876
149 1 -1.1104 12.0869 16.8464 6.76337
143 1 -1.1104 12.1546 13.9866 6.69652
51 2 2.2208 10.6743 15.261 8.02909
135 1 -1.1104 9.31175 13.7691 9.51658
27 1 -1.1104 12.2448 19.4797 12.3119
8963 2 2.2208 13.5467 15.1559 10.8982
25 2 2.2208 10.773 17.9998 10.9855
81 2 2.2208 10.8359 20.7852 8.06607
297 1 -1.1104 7.12745 13.8083 12.1851
104 1 -1.1104 9.29176 19.1961 12.1685
105 2 2.2208 8.06019 18.1316 8.0233
309 2 2.2208 8.04849 1.29223 13.6604
9004 2 2.2208 13.5859 6.78194 13.7115
315 2 2.2208 7.98872 6.79958 13.7222
9113 2 2.2208 13.6173 12.3077 13.6894
603 2 2.2208 5.15872 12.566 -0.397309
324 2 2.2208 5.22979 6.79533 -0.290263
570 2 2.2208 2.38976 20.8004 -0.34187
394 2 2.2208 7.93868 15.2753 -0.253609
327 2 2.2208 5.23995 1.27664 16.435
328 1 -1.1104 0.955847 -3.03724 17.6089
329 1 -1.1104 0.946609 2.57555 17.7314
332 1 -1.1104 1.03658 -2.95033 14.8994
334 1 -1.1104 1.09604 2.61064 14.8921
340 1 -1.1104 0.990709 -0.195404 17.9033
342 2 2.2208 5.12948 -1.45874 19.2482
343 2 2.2208 5.17564 4.044 19.2736
344 1 -1.1104 1.10901 -0.1472 15.0941
348 1 -1.1104 3.78991 -2.96786 17.8782
349 1 -1.1104 3.81531 2.64659 17.8277
350 2 2.2208 2.37153 1.24825 19.2065
351 1 -1.1104 3.7152 -2.79278 15.0849
353 1 -1.1104 3.88109 2.73598 15.0692
355 2 2.2208 2.47287 -1.46428 16.3475
357 1 -1.1104 3.85888 -0.199806 17.6864
358 1 -1.1104 3.85793 -0.118846 14.9688
356 2 2.2208 2.35547 4.03175 16.3816
330 1 -1.1104 6.61082 -2.82946 17.9112
331 1 -1.1104 6.59212 2.80447 17.7249
346 1 -1.1104 6.68024 -0.162666 15.1882
336 1 -1.1104 6.54666 -2.95069 15.0878
341 1 -1.1104 6.52508 -0.0354709 17.8759
8408 2 2.2208 2.3989 -4.28617 19.2948
338 1 -1.1104 6.6594 2.68785 14.8826
8423 2 2.2208 5.17554 -4.28137 16.5948
352 1 -1.1104 3.71787 -2.90979 20.7001
335 1 -1.1104 0.979451 2.70081 20.6087
370 2 2.2208 10.9217 1.1765 16.4895
371 1 -1.1104 12.2219 -3.05021 17.8665
372 1 -1.1104 11.9977 2.67797 17.9164
373 1 -1.1104 12.203 -3.03771 15.1349
375 1 -1.1104 12.1477 2.69832 15.061
376 1 -1.1104 12.1817 -0.281536 17.8037
377 2 2.2208 10.716 -1.4973 19.1924
378 2 2.2208 10.9084 3.97105 19.4155
379 1 -1.1104 12.1598 -0.182217 15.0973
381 1 -1.1104 9.49721 -3.03701 17.8651
382 1 -1.1104 9.36429 2.59819 18.0195
383 2 2.2208 8.08375 1.27417 19.3213
384 1 -1.1104 9.3055 -3.03379 14.9935
386 1 -1.1104 9.46064 2.61114 15.2407
388 2 2.2208 8.04045 -1.55956 16.4777
390 1 -1.1104 9.3586 -0.184372 17.8991
391 1 -1.1104 9.34361 -0.168448 14.9368
389 2 2.2208 8.09502 3.97556 16.5527
392 1 -1.1104 9.42895 -0.159363 20.6645
374 1 -1.1104 12.0781 -2.95419 20.6565
385 1 -1.1104 9.35504 -2.79328 20.6112
9050 2 2.2208 13.6353 1.25752 19.5322
9089 2 2.2208 13.5602 -1.67689 16.3727
369 2 2.2208 13.6206 20.8689 22.0654
8403 2 2.2208 5.10689 -4.35006 22.076
380 1 -1.1104 12.0053 -0.103941 20.5788
387 1 -1.1104 9.41909 2.7356 20.7538
9295 1 -1.1104 12.0607 2.48922 20.6502
9044 2 2.2208 13.5329 4.11476 16.5349
402 2 2.2208 5.05089 6.7827 16.4904
403 2 2.2208 5.04542 12.3721 16.4354
404 1 -1.1104 0.875174 8.29012 17.9589
406 1 -1.1104 0.841894 8.28007 15.0635
410 1 -1.1104 1.09667 5.4882 17.8551
411 1 -1.1104 0.82588 11.009 17.7965
414 2 2.2208 5.12374 9.76747 19.2906
415 1 -1.1104 0.946112 5.30538 15.0294
417 1 -1.1104 0.743579 11.0345 15.0791
423 1 -1.1104 3.68567 8.15996 17.9109
424 2 2.2208 2.30521 7.00877 19.3487
425 2 2.2208 2.29393 12.5147 19.1155
426 1 -1.1104 3.62153 8.19384 15.2056
428 2 2.2208 2.24453 9.68421 16.363
429 1 -1.1104 3.81728 5.49054 17.8653
430 1 -1.1104 3.65347 10.8971 17.6691
431 1 -1.1104 3.78459 5.48448 14.9614
433 1 -1.1104 3.54636 11.1316 14.9218
421 1 -1.1104 6.42365 10.9581 15.2902
418 1 -1.1104 1.10353 11.1449 20.5758
432 1 -1.1104 3.71333 5.4689 20.8781
427 1 -1.1104 3.8379 8.34297 20.6785
416 1 -1.1104 0.66067 5.52808 20.6021
412 1 -1.1104 6.60518 5.55916 17.8714
419 1 -1.1104 6.61969 5.35247 15.199
408 1 -1.1104 6.51044 8.10583 15.0822
413 1 -1.1104 6.43771 11.4756 17.9912
409 1 -1.1104 6.58117 8.19302 20.6797
405 1 -1.1104 6.43746 8.44169 17.9362
407 1 -1.1104 0.938708 8.41566 20.7753
420 1 -1.1104 6.59256 5.46276 20.6042
439 2 2.2208 10.7928 6.71987 16.6219
440 2 2.2208 10.6023 12.5184 16.4529
441 1 -1.1104 12.1838 8.15988 17.9729
442 1 -1.1104 12.2192 8.2377 15.1319
444 1 -1.1104 12.2591 5.54777 17.9729
445 1 -1.1104 12.0499 11.019 17.9288
446 2 2.2208 10.7353 9.70922 19.2613
447 1 -1.1104 12.2546 5.40828 15.0995
449 1 -1.1104 12.0805 10.9636 15.0202
451 1 -1.1104 9.35368 8.25639 17.7829
452 2 2.2208 7.8921 6.98731 19.2412
453 2 2.2208 7.86717 12.525 19.3627
454 1 -1.1104 9.44828 8.15999 15.1823
456 2 2.2208 8.03363 9.55086 16.5261
457 1 -1.1104 9.45225 5.43112 18.0703
458 1 -1.1104 9.25988 11.064 18.0324
459 1 -1.1104 9.388 5.55879 15.1384
461 1 -1.1104 9.19804 11.0334 15.0796
9108 1 -1.1104 12.1029 8.26886 20.7665
455 1 -1.1104 9.35757 8.43474 20.6414
17609 2 2.2208 13.5359 -4.29469 19.2891
9120 2 2.2208 13.5219 6.96426 19.3952
9121 2 2.2208 13.46 12.5439 19.3574
9119 2 2.2208 13.5579 9.61994 16.6515
460 1 -1.1104 9.39202 5.54212 20.8202
462 1 -1.1104 9.32986 11.2197 20.8037
313 2 2.2208 7.76466 12.4573 13.8515
544 1 -1.1104 9.2661 16.6081 23.5523
541 1 -1.1104 12.0718 19.4962 23.5455
465 1 -1.1104 0.919223 13.7573 17.7891
466 1 -1.1104 0.893029 19.5985 17.5937
467 1 -1.1104 3.63046 13.661 17.5223
469 1 -1.1104 1.31192 13.7793 14.8742
471 1 -1.1104 0.894416 19.5803 14.8768
477 1 -1.1104 0.980018 16.619 14.9761
479 1 -1.1104 3.83616 16.3416 15.5805
480 1 -1.1104 3.59045 19.227 15.2495
481 2 2.2208 2.16921 15.234 16.4264
482 2 2.2208 2.29804 20.9697 16.4206
483 1 -1.1104 0.763851 16.5254 17.6893
464 2 2.2208 5.34807 17.9549 15.8471
470 1 -1.1104 1.21368 13.9336 20.6132
474 1 -1.1104 6.3201 19.7642 15.2938
476 1 -1.1104 6.29211 13.6073 15.1163
473 1 -1.1104 6.51782 13.6234 20.8972
478 1 -1.1104 6.67685 16.6966 20.9231
604 1 -1.1104 9.43305 13.7538 26.1913
547 1 -1.1104 12.0546 16.7016 23.5231
468 1 -1.1104 6.67474 17.9934 17.6266
493 1 -1.1104 12.112 13.9743 20.7078
83 1 -1.1104 9.57043 13.8518 14.7694
489 2 2.2208 10.8435 18.1967 16.6507
490 1 -1.1104 12.1486 13.8882 17.9288
491 1 -1.1104 12.2295 19.5878 17.9899
492 1 -1.1104 12.29 13.7678 14.9398
494 1 -1.1104 12.2786 19.4848 15.1913
496 1 -1.1104 12.3404 16.7588 17.938
497 2 2.2208 10.7996 15.2665 19.227
498 2 2.2208 10.842 20.8797 19.3219
499 1 -1.1104 11.9661 16.6484 15.021
501 1 -1.1104 9.35017 13.7567 18.0594
502 1 -1.1104 9.32108 19.7177 17.9178
503 2 2.2208 8.03068 17.9237 19.4189
505 1 -1.1104 9.50669 19.4819 15.2179
507 2 2.2208 7.98934 20.9669 16.3145
508 1 -1.1104 9.4446 16.6459 17.9368
511 2 2.2208 10.7221 20.7939 13.5875
396 2 2.2208 13.5591 15.3401 16.4909
495 1 -1.1104 12.1177 19.6086 20.8332
366 2 2.2208 13.5673 20.9221 16.4638
513 1 -1.1104 12.2599 13.8271 23.3592
488 2 2.2208 10.962 15.1778 13.6529
345 1 -1.1104 0.930242 -0.125347 20.6698
333 1 -1.1104 0.91147 -2.87501 20.5762
359 1 -1.1104 3.68518 -0.180775 20.6097
354 1 -1.1104 3.61966 2.72449 20.5878
337 1 -1.1104 6.46362 -2.97402 20.7314
364 2 2.2208 13.5888 15.2259 22.0533
347 1 -1.1104 6.61236 -0.161859 20.6741
339 1 -1.1104 6.55647 2.61008 20.7385
514 2 2.2208 5.20323 1.26659 22.036
515 1 -1.1104 0.871771 -2.76851 23.395
516 1 -1.1104 0.995381 2.68756 23.4206
519 1 -1.1104 0.759538 -2.7322 26.2404
520 1 -1.1104 0.901616 2.6284 26.1735
523 1 -1.1104 0.86418 -0.00680274 23.4899
525 2 2.2208 5.00327 -1.60674 24.9927
526 2 2.2208 5.25537 4.0474 24.9377
527 1 -1.1104 0.921512 -0.140828 26.37
529 1 -1.1104 3.74054 -2.77947 23.5162
530 1 -1.1104 3.88519 2.70178 23.3769
531 2 2.2208 2.50377 1.24539 24.854
532 1 -1.1104 3.71299 -2.89847 26.3778
533 1 -1.1104 3.81251 2.54964 26.1886
534 2 2.2208 2.38367 -1.46712 21.9799
535 2 2.2208 2.38387 4.04114 22.1521
536 1 -1.1104 3.59414 -0.0258862 23.4439
537 1 -1.1104 3.60819 -0.0476356 26.4126
521 1 -1.1104 6.6536 -2.92401 26.2786
524 1 -1.1104 6.36166 -0.273225 23.501
522 1 -1.1104 6.57413 2.76731 26.373
528 1 -1.1104 6.4506 -0.0739962 26.4755
318 2 2.2208 2.37231 4.03767 27.7084
316 2 2.2208 5.14546 1.31995 27.8529
8368 2 2.2208 10.8026 -4.41536 21.9991
518 1 -1.1104 6.59949 2.65451 23.4586
517 1 -1.1104 6.43079 -3.01084 23.4949
9045 2 2.2208 13.4408 -1.57256 22.1359
549 2 2.2208 10.7721 1.20287 22.0011
550 1 -1.1104 12.1357 -3.0306 23.4117
551 1 -1.1104 11.9971 -0.18027 23.3246
552 1 -1.1104 12.2055 -3.01514 26.2251
553 1 -1.1104 12.1996 2.91096 26.2691
554 2 2.2208 10.7806 -1.4917 24.9796
556 1 -1.1104 9.2823 -3.03183 23.3877
557 1 -1.1104 9.69064 2.71942 23.4844
558 2 2.2208 7.87691 1.21426 24.8919
559 1 -1.1104 9.43166 -3.02958 26.0778
560 1 -1.1104 9.33142 2.53171 26.2765
561 2 2.2208 7.85802 -1.53754 22.1193
563 1 -1.1104 9.12495 0.00617598 23.3376
564 1 -1.1104 9.23835 -0.159519 26.2347
37 1 -1.1104 11.9103 -0.276157 26.6269
555 2 2.2208 10.7364 4.05845 24.9704
562 2 2.2208 8.06213 4.09241 22.1412
322 2 2.2208 7.94005 -1.44935 27.6591
9087 2 2.2208 -0.445188 12.5933 21.9689
323 2 2.2208 8.13979 4.06183 27.7446
8990 2 2.2208 13.4179 -1.70722 27.6938
422 1 -1.1104 6.55237 10.8763 20.8056
434 1 -1.1104 3.84348 11.532 20.5588
577 2 2.2208 5.23266 6.71925 22.0994
578 2 2.2208 5.34288 12.3224 22.2319
579 1 -1.1104 1.10697 8.31215 23.5068
581 1 -1.1104 1.05112 8.48898 26.19
583 1 -1.1104 0.993907 5.35552 23.4405
584 1 -1.1104 1.16174 11.0674 23.433
587 2 2.2208 5.15624 9.57241 24.9322
588 1 -1.1104 0.961712 5.50395 26.2101
589 1 -1.1104 0.98488 11.0517 26.2445
592 1 -1.1104 3.86111 8.24782 23.3978
593 2 2.2208 2.43512 6.78069 24.7393
594 2 2.2208 2.41475 12.4449 24.8599
595 1 -1.1104 3.82862 8.01794 26.2921
596 2 2.2208 2.45046 9.7195 21.9766
597 1 -1.1104 3.91478 5.43051 23.6582
598 1 -1.1104 3.7736 11.0348 23.5789
599 1 -1.1104 3.79943 5.45351 26.4247
600 1 -1.1104 3.76586 10.9624 26.2938
398 1 -1.1104 9.38009 16.5643 26.2919
582 1 -1.1104 6.49466 8.23089 26.266
590 1 -1.1104 6.8851 5.39957 26.281
580 1 -1.1104 6.62503 8.14448 23.4595
591 1 -1.1104 6.57163 10.9614 26.3089
586 1 -1.1104 6.58595 10.8542 23.6023
573 1 -1.1104 9.33677 13.7492 23.4545
450 1 -1.1104 12.1094 11.0524 20.6978
585 1 -1.1104 6.70575 5.38381 23.4376
9232 2 2.2208 13.5491 9.7087 27.6667
9233 2 2.2208 13.5764 12.476 24.9384
443 1 -1.1104 12.2603 5.53743 20.7847
605 1 -1.1104 9.35403 11.045 26.2917
606 1 -1.1104 9.76181 5.47275 26.4222
607 1 -1.1104 9.43795 10.8181 23.4884
608 1 -1.1104 9.74049 5.53108 23.5653
609 2 2.2208 7.92197 9.52614 22.1183
610 1 -1.1104 9.31801 8.14785 26.2876
611 2 2.2208 8.0917 12.3821 24.8254
612 2 2.2208 8.08017 6.88551 24.8745
613 2 2.2208 10.7944 6.94839 22.0478
614 2 2.2208 10.8554 12.4459 22.0971
615 1 -1.1104 12.0701 8.05409 23.5282
616 1 -1.1104 11.9259 8.37168 26.4125
617 1 -1.1104 12.3182 10.9824 23.5186
618 2 2.2208 10.8056 9.54777 24.8701
619 1 -1.1104 12.147 11.1877 26.3043
620 1 -1.1104 9.30834 8.22544 23.466
9300 2 2.2208 13.5023 9.70238 22.1135
623 2 2.2208 10.8691 12.4886 27.726
622 2 2.2208 7.96278 9.69876 27.6615
624 1 -1.1104 9.33419 19.5007 26.3375
576 1 -1.1104 6.62965 19.5393 26.3683
475 1 -1.1104 6.45215 19.3675 20.6036
539 1 -1.1104 6.55752 13.7789 23.6626
621 1 -1.1104 6.60766 13.9498 26.435
601 1 -1.1104 6.50587 16.6708 26.3506
545 1 -1.1104 6.59725 19.3658 23.5029
484 1 -1.1104 3.41397 16.9813 21.0099
472 1 -1.1104 0.886897 19.6276 20.8515
360 2 2.2208 2.26342 21.106 22.2096
361 1 -1.1104 3.65941 16.5106 23.6549
362 1 -1.1104 0.965678 16.6986 23.3836
397 1 -1.1104 3.61969 13.9062 26.1914
401 1 -1.1104 3.63786 16.683 26.4575
435 2 2.2208 2.33973 18.0694 24.8816
438 1 -1.1104 3.71919 19.5967 26.1671
448 2 2.2208 5.20107 18.0351 21.9859
463 1 -1.1104 1.06007 13.8361 23.4204
538 1 -1.1104 0.937439 19.4862 23.6753
540 2 2.2208 5.13601 15.1839 24.9379
543 2 2.2208 5.22729 20.8527 24.8304
565 1 -1.1104 0.941044 13.7676 26.2526
566 1 -1.1104 0.868716 16.5373 26.2939
567 1 -1.1104 0.959394 19.3988 26.3466
571 2 2.2208 2.3546 15.3992 22.1609
602 1 -1.1104 3.73502 13.7289 23.1693
626 1 -1.1104 3.64261 19.4667 23.3772
320 2 2.2208 2.26943 15.3137 27.779
575 2 2.2208 7.88672 18.0676 24.9403
506 1 -1.1104 9.36465 19.3908 20.7311
367 2 2.2208 13.5605 18.1308 24.8808
512 2 2.2208 10.6827 18.0788 22.1925
437 2 2.2208 7.8681 20.8536 21.9827
500 1 -1.1104 12.1419 16.6669 20.7753
504 1 -1.1104 9.42491 13.9145 20.7981
574 1 -1.1104 9.41137 19.3141 23.7156
625 2 2.2208 8.01846 15.2355 22.1007
548 2 2.2208 10.6126 15.2165 24.7579
546 1 -1.1104 12.2448 19.3018 26.25
393 1 -1.1104 6.38902 16.586 23.5729
568 2 2.2208 10.7225 20.8665 24.8136
572 1 -1.1104 12.182 16.6869 26.174
510 1 -1.1104 9.47416 16.6538 20.6914
542 1 -1.1104 12.0822 13.9646 26.2093
317 2 2.2208 2.23585 -1.45278 27.8057
363 2 2.2208 -0.523996 20.9338 13.5932
321 2 2.2208 10.8486 1.25387 27.8228
325 2 2.2208 2.42368 9.6716 27.6555
569 2 2.2208 5.22652 18.0809 27.6964
399 2 2.2208 10.7668 18.0454 27.6458
400 2 2.2208 7.9754 20.9596 27.6501
9091 2 2.2208 13.563 15.3537 27.6219
368 2 2.2208 13.5036 20.8794 27.7228
9002 2 2.2208 -0.285911 -1.60576 13.6471
306 2 2.2208 5.07317 -1.52478 13.6709
307 2 2.2208 10.9023 4.06279 13.7381
487 2 2.2208 13.5178 17.9916 13.672
311 2 2.2208 5.12137 9.50739 13.7409
314 2 2.2208 10.8674 9.56978 13.8048
485 2 2.2208 2.36983 18.1122 13.5785
627 2 2.2208 5.05146 23.6539 5.15462
628 2 2.2208 5.01595 29.2098 5.20015
629 1 -1.1104 0.860349 25.0573 1.06697
630 1 -1.1104 0.85609 25.042 3.78515
631 1 -1.1104 0.95431 22.3948 1.1253
632 1 -1.1104 0.943947 27.9226 1.12341
633 2 2.2208 5.13339 26.5535 2.2849
634 1 -1.1104 1.06724 22.017 3.87905
635 1 -1.1104 0.809696 27.8856 3.75425
636 1 -1.1104 3.75035 25.1108 1.05859
637 2 2.2208 2.40544 23.6426 2.29415
638 2 2.2208 2.35072 29.3756 2.38869
639 1 -1.1104 3.58758 24.947 3.76719
640 2 2.2208 2.34851 26.428 5.08642
641 1 -1.1104 3.82788 22.2657 1.02565
642 1 -1.1104 3.75322 27.8713 1.0254
643 1 -1.1104 3.81868 22.2213 3.69299
644 1 -1.1104 3.58461 27.8029 3.79946
651 1 -1.1104 6.62558 27.8915 0.874199
776 1 -1.1104 3.73108 27.749 6.47458
649 1 -1.1104 6.42573 25.0687 3.69821
771 1 -1.1104 0.980165 27.954 6.53294
770 1 -1.1104 1.25688 22.3566 6.46237
650 1 -1.1104 6.51423 22.1982 0.956579
652 1 -1.1104 6.49951 22.2111 3.74164
653 1 -1.1104 6.34858 27.9764 3.79408
648 1 -1.1104 6.61382 24.9963 0.992934
772 1 -1.1104 6.62153 22.2835 6.58115
768 1 -1.1104 0.934925 25.1605 6.71734
961 2 2.2208 7.99259 46.021 13.5613
1182 2 2.2208 5.20089 23.6601 -0.423514
1183 2 2.2208 2.25522 26.3919 -0.360114
918 2 2.2208 -0.433339 40.6793 10.8569
654 2 2.2208 10.7579 23.6987 5.21194
655 2 2.2208 10.7069 29.3449 5.18597
656 1 -1.1104 12.0416 25.1492 0.830249
657 1 -1.1104 12.0207 25.0242 3.70355
658 1 -1.1104 11.9122 22.5088 1.15714
659 1 -1.1104 12.1286 27.8874 0.867994
660 2 2.2208 10.665 26.4946 2.3323
661 1 -1.1104 12.0837 22.3297 3.93843
662 1 -1.1104 12.1786 27.852 3.74609
663 1 -1.1104 9.371 25.0093 1.15862
664 2 2.2208 7.9302 23.6821 2.35993
665 2 2.2208 7.85958 29.3804 2.31166
666 1 -1.1104 9.32434 25.026 3.83029
667 2 2.2208 7.92362 26.4178 5.12623
668 1 -1.1104 9.33053 22.2417 1.06319
669 1 -1.1104 9.38382 27.8425 0.993476
670 1 -1.1104 9.32852 22.2401 3.83139
671 1 -1.1104 9.26683 27.8595 3.73298
674 2 2.2208 13.4854 26.4946 5.22371
672 2 2.2208 13.4745 23.7074 2.47517
673 2 2.2208 13.4621 29.3143 2.38318
1213 2 2.2208 8.07954 26.5292 -0.560834
806 1 -1.1104 9.34104 27.8545 6.58278
1214 2 2.2208 13.5017 26.4707 -0.44653
1218 2 2.2208 10.5874 29.2924 -0.475941
1212 2 2.2208 10.6414 23.7456 -0.353526
941 2 2.2208 10.5946 46.1867 10.8247
675 2 2.2208 5.15132 35.0327 5.22653
676 1 -1.1104 0.933674 30.6655 0.96087
677 1 -1.1104 0.849686 36.3292 1.1562
679 1 -1.1104 0.879058 30.6976 3.66818
680 1 -1.1104 1.00033 36.2926 4.03557
682 1 -1.1104 0.910382 33.4711 0.978263
683 2 2.2208 5.05132 32.1191 2.30074
684 2 2.2208 5.13647 37.806 2.3805
685 1 -1.1104 0.966959 33.5 3.72132
687 1 -1.1104 3.71263 30.7817 0.865252
688 1 -1.1104 3.67389 36.4079 1.06262
689 2 2.2208 2.37389 35.0081 2.3055
690 1 -1.1104 3.70592 30.5801 3.69401
691 1 -1.1104 3.73349 36.4315 3.79936
692 2 2.2208 2.28946 32.0909 5.15079
693 2 2.2208 2.33057 37.7854 5.21646
694 1 -1.1104 3.72756 33.4938 0.942176
695 1 -1.1104 3.70846 33.6523 3.75403
678 1 -1.1104 6.46429 36.4575 0.934765
686 1 -1.1104 6.55742 33.4953 3.7924
952 2 2.2208 13.6389 35.0101 7.95073
766 2 2.2208 13.7144 46.1699 2.45599
825 1 -1.1104 0.923644 30.5816 6.47511
828 1 -1.1104 6.53126 36.4711 6.61219
925 2 2.2208 7.86552 46.0917 8.06365
681 1 -1.1104 6.6127 36.3499 3.73057
700 1 -1.1104 6.5512 30.6209 3.79757
701 1 -1.1104 6.49406 33.5394 1.024
699 1 -1.1104 6.44342 30.7035 0.945849
702 2 2.2208 10.6254 34.9591 5.16561
703 1 -1.1104 11.9859 30.7061 1.09295
704 1 -1.1104 12.0645 36.406 0.954384
705 1 -1.1104 11.9955 30.6547 3.8269
706 1 -1.1104 12.0931 36.4552 3.81944
707 1 -1.1104 12.1393 33.5475 0.919871
708 2 2.2208 10.7123 32.1508 2.28831
709 2 2.2208 10.7394 37.8301 2.28835
710 1 -1.1104 12.1133 33.6079 3.70416
711 1 -1.1104 9.20703 30.7288 0.785791
712 1 -1.1104 9.20036 36.1484 1.02502
713 2 2.2208 7.82784 34.8778 2.36519
714 1 -1.1104 9.2736 30.7843 3.7749
715 1 -1.1104 9.37978 36.2672 3.77105
716 2 2.2208 7.90891 32.0575 5.05501
717 2 2.2208 7.81665 37.7795 5.169
718 1 -1.1104 9.291 33.4376 0.89147
719 1 -1.1104 9.35405 33.5253 3.69407
940 1 -1.1104 12.1427 41.8418 12.1172
944 2 2.2208 13.5368 32.1907 5.1393
860 1 -1.1104 12.2609 36.4337 6.70646
859 1 -1.1104 12.1442 30.7796 6.5731
943 2 2.2208 13.5262 37.7517 5.10056
721 2 2.2208 5.18011 40.5998 5.11536
722 2 2.2208 5.08282 46.2359 5.36571
723 1 -1.1104 1.00283 42.0748 1.1442
725 1 -1.1104 1.10669 41.8997 3.96484
727 1 -1.1104 0.919942 39.1759 0.86812
728 1 -1.1104 1.05222 44.8448 1.00516
731 2 2.2208 5.25443 43.3765 2.4164
732 1 -1.1104 0.837707 39.1999 3.78851
733 1 -1.1104 1.03236 44.6972 3.81577
736 1 -1.1104 3.87959 41.9841 0.942196
737 2 2.2208 2.41633 40.6541 2.40239
738 2 2.2208 2.41969 46.1995 2.38449
739 1 -1.1104 3.89145 41.9762 3.67967