ITEM: TIMESTEP
60000
ITEM: NUMBER OF ATOMS
17910
ITEM: BOX BOUNDS pp pp pp
-3.4976478242035830e-01 2.7689764782420855e+01
-4.2996476575375890e+00 3.3237964765753816e+02
-3.5616279412746232e-01 2.7696162794127478e+01
ITEM: ATOMS id type q x y z
1 2 2.2208 5.09138 1.44078 5.17229
2 1 -1.1104 0.946041 -2.94623 0.965879
3 1 -1.1104 0.905018 2.77054 0.840874
6 1 -1.1104 0.891313 -2.89482 3.75558
7 1 -1.1104 0.929273 2.61017 3.89147
10 1 -1.1104 0.986387 0.00829179 0.910778
12 2 2.2208 5.03824 -1.42028 2.287
13 2 2.2208 5.13815 4.1469 2.33103
14 1 -1.1104 0.999716 -0.0386656 3.63683
16 1 -1.1104 3.70213 -2.79614 0.848339
17 1 -1.1104 3.79558 2.74147 0.921806
18 2 2.2208 2.39002 1.35806 2.3541
19 1 -1.1104 3.7197 -2.78466 3.67268
20 1 -1.1104 3.71443 2.87616 3.70433
21 2 2.2208 2.49655 -1.41762 5.11684
22 2 2.2208 2.24852 4.10875 5.16355
23 1 -1.1104 3.71539 -0.0659562 0.786375
24 1 -1.1104 3.84011 0.0180192 3.68778
304 2 2.2208 5.07806 4.00111 13.648
170 1 -1.1104 1.10403 -0.184063 6.56709
174 1 -1.1104 3.69774 -0.0484718 6.57854
4 1 -1.1104 6.47568 -2.8571 0.909457
5 1 -1.1104 6.47048 2.64253 1.12416
8 1 -1.1104 6.3511 -2.9633 3.8324
11 1 -1.1104 6.42939 -0.0299297 0.99259
8984 2 2.2208 -0.388851 20.9553 8.01813
8762 2 2.2208 13.5456 15.2588 5.15923
15 1 -1.1104 6.52983 -0.149855 3.65776
9 1 -1.1104 6.53765 2.63285 3.84568
32 2 2.2208 10.6641 1.42031 5.41897
33 1 -1.1104 11.7762 -3.09691 1.11481
34 1 -1.1104 11.9326 2.5964 1.12282
35 1 -1.1104 12.1995 -2.97013 3.94993
36 1 -1.1104 11.9665 2.61561 3.88315
38 2 2.2208 10.6058 -1.59349 2.3952
39 2 2.2208 10.7099 4.02033 2.4012
40 1 -1.1104 12.0793 -0.0476252 3.92151
41 1 -1.1104 9.07931 -2.90055 1.13594
42 1 -1.1104 9.33476 2.55647 1.09378
43 2 2.2208 7.89602 1.31886 2.42147
44 1 -1.1104 9.38855 -2.97525 3.89257
45 1 -1.1104 9.30567 2.70759 3.9622
46 2 2.2208 7.75241 -1.49428 5.21479
48 1 -1.1104 9.24782 -0.119397 0.974873
49 1 -1.1104 9.35612 -0.112174 3.88371
8662 1 -1.1104 12.3385 -0.173983 1.10796
47 2 2.2208 7.98562 4.07644 5.19974
169 1 -1.1104 6.44489 2.71996 6.69535
168 1 -1.1104 6.56054 -2.92682 6.70551
8875 2 2.2208 13.4531 6.8643 8.06263
205 1 -1.1104 12.145 -2.98281 6.77861
8299 2 2.2208 7.81034 -4.18517 2.43481
8969 2 2.2208 13.3447 1.27609 2.69615
8978 2 2.2208 13.4472 18.0888 2.32818
8741 2 2.2208 13.6182 20.929 5.30772
8964 2 2.2208 13.4862 18.1307 8.02606
54 2 2.2208 5.14571 6.93292 5.1712
55 2 2.2208 5.08633 12.5201 5.17424
56 1 -1.1104 0.938228 8.23079 0.900877
58 1 -1.1104 0.953563 8.44165 3.7182
60 1 -1.1104 0.873402 5.48744 1.06021
61 1 -1.1104 0.908167 10.9962 0.854958
66 2 2.2208 5.15624 9.69979 2.27793
67 1 -1.1104 0.871325 5.41439 3.71838
68 1 -1.1104 0.755863 11.0384 3.70326
71 1 -1.1104 3.78962 8.30913 0.954414
72 2 2.2208 2.41762 6.94209 2.48611
73 2 2.2208 2.35444 12.5616 2.40521
74 1 -1.1104 3.75123 8.49756 3.62996
75 2 2.2208 2.24947 9.73921 5.23769
76 1 -1.1104 3.78247 5.49097 1.02529
77 1 -1.1104 3.83803 11.2621 1.03308
79 1 -1.1104 3.67696 5.53726 3.92133
80 1 -1.1104 3.525 11.2661 3.89105
78 1 -1.1104 3.68039 11.191 6.6848
236 1 -1.1104 0.732766 5.56038 6.45398
31 1 -1.1104 12.186 19.4 9.60826
234 1 -1.1104 0.915692 8.34516 6.52037
239 1 -1.1104 3.67053 5.52771 6.58702
64 1 -1.1104 6.62872 11.0271 0.911596
69 1 -1.1104 6.46004 5.49847 3.65829
63 1 -1.1104 6.50421 5.49613 0.971052
235 1 -1.1104 6.59411 8.30724 6.67015
59 1 -1.1104 6.48982 8.35594 3.90967
70 1 -1.1104 6.4289 11.3385 3.65474
57 1 -1.1104 6.49199 8.34715 0.943784
84 2 2.2208 10.6279 6.85884 5.20439
85 2 2.2208 10.7214 12.4414 5.27496
86 1 -1.1104 12.0209 8.15261 1.17701
87 1 -1.1104 12.056 8.18027 3.87582
88 1 -1.1104 12.1969 5.35969 0.763308
89 1 -1.1104 12.0117 11.0685 0.952608
91 2 2.2208 10.8276 9.67471 2.38938
92 1 -1.1104 12.0564 5.42459 3.57671
93 1 -1.1104 12.0567 10.9645 3.69586
94 1 -1.1104 9.25656 8.20822 0.965192
95 2 2.2208 7.88306 7.01902 2.41368
96 2 2.2208 7.88779 12.5553 2.34724
97 1 -1.1104 9.26374 8.27872 3.70934
98 2 2.2208 7.84336 9.73262 5.03795
99 1 -1.1104 9.22829 5.36382 0.974168
100 1 -1.1104 9.39353 11.1125 0.894235
102 1 -1.1104 9.28375 5.49249 3.93716
103 1 -1.1104 9.35706 11.0071 3.73442
101 1 -1.1104 9.16016 11.0407 6.64948
315 2 2.2208 8.0374 6.88637 13.6418
237 1 -1.1104 6.64575 5.61508 6.38759
8693 2 2.2208 13.5123 9.66775 5.17894
8974 2 2.2208 13.4048 12.4539 2.34528
106 2 2.2208 5.16094 17.9848 5.33783
107 1 -1.1104 0.908473 13.8525 1.05269
109 1 -1.1104 1.08003 19.3768 1.04706
113 1 -1.1104 0.975547 13.7381 3.99843
114 1 -1.1104 1.09553 19.4083 3.75765
116 1 -1.1104 1.00974 16.6059 1.02961
119 2 2.2208 5.16297 15.3627 2.42775
120 2 2.2208 5.24121 20.7432 2.36238
121 1 -1.1104 0.927013 16.5421 3.88557
123 1 -1.1104 3.7897 13.7394 1.00218
125 1 -1.1104 3.85884 19.5048 0.952518
127 2 2.2208 2.47486 17.996 2.57297
128 1 -1.1104 3.77763 13.9877 3.67522
129 1 -1.1104 3.86409 19.4974 3.76504
130 2 2.2208 2.31457 15.2923 5.23214
131 2 2.2208 2.44336 20.8526 5.20474
132 1 -1.1104 3.68323 16.7444 1.18281
134 1 -1.1104 3.77691 16.7445 3.964
108 1 -1.1104 0.782773 13.789 6.67482
140 1 -1.1104 6.40779 16.6583 0.959268
124 1 -1.1104 3.66248 14.0793 6.50279
126 1 -1.1104 3.85204 19.4765 6.63162
302 1 -1.1104 1.01824 19.4476 6.46899
133 1 -1.1104 3.71438 16.7335 6.77477
111 1 -1.1104 6.51824 13.8832 6.60823
25 2 2.2208 10.6338 18.2364 10.9397
311 2 2.2208 5.16499 9.63559 13.5114
488 2 2.2208 10.7999 15.3521 13.4058
139 1 -1.1104 6.60499 19.4583 3.88988
115 1 -1.1104 6.4828 14.0306 3.72938
110 1 -1.1104 6.53601 13.7651 0.912821
122 1 -1.1104 6.50863 16.7907 3.78644
138 1 -1.1104 6.68355 19.4707 1.03273
141 2 2.2208 10.7178 18.0859 5.09262
142 1 -1.1104 12.0078 13.8115 0.959843
144 1 -1.1104 12.0299 19.4152 1.16977
146 1 -1.1104 12.1001 13.9491 3.73377
147 1 -1.1104 12.1564 19.5049 3.81087
148 1 -1.1104 12.1981 16.6066 0.988862
150 2 2.2208 10.7101 15.3092 2.44098
151 2 2.2208 10.7 20.9872 2.50272
152 1 -1.1104 11.9412 16.7465 3.74678
153 1 -1.1104 9.31201 13.8881 1.16446
155 1 -1.1104 9.33604 19.6197 1.02781
157 2 2.2208 7.96903 18.0707 2.35393
158 1 -1.1104 9.24158 13.7574 3.8977
159 1 -1.1104 9.32186 19.5345 3.81278
160 2 2.2208 7.91395 15.2886 5.22418
161 2 2.2208 7.94949 20.9437 5.23619
162 1 -1.1104 9.27544 16.7446 1.05159
164 1 -1.1104 9.23958 16.6281 3.67362
8963 2 2.2208 13.4518 15.3092 10.7421
156 1 -1.1104 9.54178 19.4314 6.72032
50 1 -1.1104 12.2083 16.7093 12.2038
104 1 -1.1104 9.46021 19.6756 12.1882
143 1 -1.1104 12.2047 13.637 6.54874
173 1 -1.1104 3.59017 2.75855 6.45968
167 1 -1.1104 0.735447 2.65973 6.65418
8977 2 2.2208 -0.330698 18.05 5.13631
172 1 -1.1104 3.75206 -2.85175 6.64777
163 1 -1.1104 9.34554 16.7561 6.66024
136 2 2.2208 -0.362798 20.729 2.47969
511 2 2.2208 10.6816 20.9973 13.7005
8968 2 2.2208 13.399 -1.57315 10.8885
154 1 -1.1104 9.28047 13.891 6.68021
166 1 -1.1104 0.978264 -2.76749 6.45807
175 2 2.2208 4.9666 1.23881 10.7502
176 1 -1.1104 0.998657 -3.10398 12.1633
177 1 -1.1104 0.837132 2.50346 12.1422
180 1 -1.1104 0.648144 -2.95616 9.30355
181 1 -1.1104 1.00275 2.63156 9.50221
184 1 -1.1104 1.01597 -0.303306 12.2193
186 2 2.2208 5.02051 -1.58248 7.96477
187 2 2.2208 5.24411 4.07354 8.00011
188 1 -1.1104 0.849111 -0.219886 9.46887
190 1 -1.1104 3.6869 -3.09103 12.1691
191 1 -1.1104 3.52233 2.7007 12.2508
192 2 2.2208 2.35511 1.33212 7.94726
193 1 -1.1104 3.59782 -3.00552 9.39728
194 1 -1.1104 3.74895 2.67759 9.38427
195 2 2.2208 2.31154 -1.66022 10.8455
196 2 2.2208 2.40988 4.1383 10.7448
197 1 -1.1104 3.77279 -0.147737 12.3236
198 1 -1.1104 3.64755 -0.0918857 9.39087
9046 2 2.2208 13.6217 3.94531 -0.305109
30 1 -1.1104 12.0145 13.8292 9.4451
182 1 -1.1104 6.42181 -2.95936 9.36132
185 1 -1.1104 6.50046 -0.310368 12.1981
8799 2 2.2208 13.5165 4.03607 10.9386
27 1 -1.1104 12.2329 19.4312 12.2404
313 2 2.2208 7.77266 12.3827 13.3879
208 1 -1.1104 9.26991 -2.85181 6.50425
207 1 -1.1104 12.0935 -0.179028 6.7294
171 1 -1.1104 6.46658 -0.0243577 6.43275
206 1 -1.1104 12.0981 2.77544 6.59041
209 1 -1.1104 9.23363 2.76138 6.75436
210 1 -1.1104 9.2578 -0.0305069 6.73499
183 1 -1.1104 6.49837 2.68293 9.52048
178 1 -1.1104 6.53762 -3.06074 12.1619
189 1 -1.1104 6.32713 -0.164634 9.17775
179 1 -1.1104 6.51094 2.54691 12.2013
212 2 2.2208 10.7134 1.07393 10.8954
213 1 -1.1104 12.0345 -3.06494 12.1785
214 1 -1.1104 12.1783 2.54384 12.1607
215 1 -1.1104 12.0683 -2.99809 9.34357
216 1 -1.1104 12.1552 2.5233 9.45575
217 1 -1.1104 11.9377 -0.303213 12.291
218 2 2.2208 10.6864 -1.66662 8.09116
219 2 2.2208 10.7519 4.04479 8.12647
220 1 -1.1104 12.0774 -0.284318 9.44395
221 1 -1.1104 9.26237 -2.88153 12.1616
222 1 -1.1104 9.33628 2.51499 12.3586
223 2 2.2208 7.87356 1.30809 8.13879
224 1 -1.1104 9.21679 -3.12219 9.46747
225 1 -1.1104 9.26904 2.67699 9.49714
226 2 2.2208 7.83775 -1.60505 10.8133
227 2 2.2208 7.90539 4.06326 10.9152
228 1 -1.1104 9.23479 -0.216002 12.2788
229 1 -1.1104 9.29411 -0.151753 9.45068
8975 2 2.2208 13.6146 6.81678 2.43814
105 2 2.2208 7.94802 18.0999 8.00648
82 1 -1.1104 12.2113 16.5937 9.42344
8876 2 2.2208 13.495 12.4165 8.09423
62 1 -1.1104 0.746539 10.9511 6.6266
65 1 -1.1104 6.30457 11.0456 6.45848
238 1 -1.1104 3.82549 8.12356 6.45104
240 2 2.2208 5.11566 6.87476 10.8442
241 2 2.2208 5.01264 12.5889 10.7881
242 1 -1.1104 0.89805 8.1508 12.2529
244 1 -1.1104 0.977251 8.12489 9.41853
246 1 -1.1104 0.915625 5.36347 12.2275
247 1 -1.1104 1.08125 11.0316 12.1993
250 2 2.2208 5.10138 9.69738 7.97368
251 1 -1.1104 1.03141 5.35726 9.28877
252 1 -1.1104 0.690732 11.01 9.56932
255 1 -1.1104 3.69826 8.20261 12.2185
256 2 2.2208 2.43747 6.8708 7.95637
257 2 2.2208 2.31285 12.6607 8.0196
258 1 -1.1104 3.81807 8.29918 9.33161
259 2 2.2208 2.334 9.62018 10.7122
260 1 -1.1104 3.70661 5.37834 12.2286
261 1 -1.1104 3.80112 11.003 12.1682
262 1 -1.1104 3.78795 5.53696 9.40243
263 1 -1.1104 3.56362 11.2772 9.40524
310 2 2.2208 2.30377 12.6688 13.5345
253 1 -1.1104 6.46625 5.48204 9.40443
249 1 -1.1104 6.45959 10.9649 12.1525
243 1 -1.1104 6.62215 8.27486 12.0873
245 1 -1.1104 6.57075 8.34129 9.25961
254 1 -1.1104 6.41891 11.1416 9.45519
248 1 -1.1104 6.58 5.48138 12.241
269 1 -1.1104 9.4004 5.58286 6.68485
90 1 -1.1104 12.1206 11.0615 6.59579
8664 2 2.2208 13.5244 4.08762 5.24334
267 1 -1.1104 9.26191 8.31254 6.50751
266 1 -1.1104 12.111 5.59975 6.68073
265 1 -1.1104 12.2459 8.34475 6.47518
264 1 -1.1104 9.2749 11.139 9.3475
268 1 -1.1104 9.27761 5.45121 9.54739
270 1 -1.1104 9.29591 11.0701 12.0867
271 1 -1.1104 9.37047 5.46475 12.4524
272 2 2.2208 7.97395 9.6364 10.7324
273 1 -1.1104 9.27202 8.25479 9.33751
274 2 2.2208 7.85378 12.4647 8.01438
275 2 2.2208 7.93337 6.99778 7.8416
276 2 2.2208 10.6445 6.82141 10.8884
277 2 2.2208 10.7231 12.4349 10.8013
278 1 -1.1104 12.1178 8.22894 12.2784
279 1 -1.1104 11.9482 8.43571 9.4389
280 1 -1.1104 12.1006 5.46073 12.226
281 1 -1.1104 12.1289 11.1844 12.1716
282 2 2.2208 10.6614 9.67151 8.01317
283 1 -1.1104 12.0964 5.44737 9.4259
284 1 -1.1104 12.1655 11.0445 9.37159
285 1 -1.1104 9.34772 8.26267 12.1025
165 2 2.2208 7.97661 15.3011 10.8963
9113 2 2.2208 13.393 12.5783 13.6121
135 1 -1.1104 9.33356 14.0194 9.61323
117 1 -1.1104 1.01252 16.5559 6.59583
112 1 -1.1104 6.5802 19.4344 6.77731
290 1 -1.1104 6.45809 13.9164 9.35041
118 1 -1.1104 6.49681 16.6848 6.59611
289 1 -1.1104 6.51035 16.7641 9.52095
288 1 -1.1104 6.61073 19.5626 9.60398
201 2 2.2208 2.3566 15.3822 10.8822
204 2 2.2208 2.48351 20.867 10.9886
211 1 -1.1104 3.81243 16.9536 12.2837
230 1 -1.1104 0.97906 16.6172 12.3232
231 1 -1.1104 3.67168 14.1223 9.41826
233 1 -1.1104 3.80272 16.8734 9.42093
286 1 -1.1104 3.69523 19.6618 12.4431
287 1 -1.1104 3.62047 13.828 12.2342
291 1 -1.1104 1.04075 19.4647 9.28959
292 1 -1.1104 0.862826 16.533 9.39741
293 2 2.2208 5.09631 20.9727 8.04869
294 1 -1.1104 0.793185 13.812 9.42888
295 2 2.2208 5.16047 15.4852 8.07804
298 1 -1.1104 0.96583 19.399 12.3073
299 1 -1.1104 0.824255 13.9487 12.3049
300 2 2.2208 5.02622 18.2158 10.9617
301 1 -1.1104 3.77247 19.5694 9.50862
303 2 2.2208 2.41009 18.2066 7.95342
296 1 -1.1104 6.32269 19.4667 12.4105
8990 2 2.2208 13.2294 -1.84503 -0.364448
51 2 2.2208 10.7428 15.3381 8.0797
8970 2 2.2208 13.4893 -1.56134 5.32137
297 1 -1.1104 6.67777 13.8963 11.9284
314 2 2.2208 10.7004 9.61731 13.5492
26 1 -1.1104 12.0608 13.9242 12.2174
83 1 -1.1104 9.29532 13.9311 12.4806
145 1 -1.1104 12.2049 19.4911 6.5749
149 1 -1.1104 12.2317 16.5947 6.62099
137 1 -1.1104 9.3263 19.6674 9.5762
200 1 -1.1104 9.30782 16.7203 9.32953
509 1 -1.1104 9.46044 16.6472 12.2168
199 2 2.2208 7.91838 20.9133 11.0226
81 2 2.2208 10.7376 20.8513 8.1388
305 2 2.2208 2.25673 1.24656 13.546
52 2 2.2208 13.5943 20.8509 10.7744
8880 2 2.2208 13.5702 9.70561 10.8344
312 2 2.2208 2.32201 6.80053 13.5387
306 2 2.2208 5.1065 -1.69319 13.5988
318 2 2.2208 2.37864 4.13073 -0.406338
309 2 2.2208 7.81587 1.21872 13.5386
326 2 2.2208 10.7325 6.889 -0.311932
570 2 2.2208 2.49419 20.978 -0.236151
320 2 2.2208 2.33602 15.2521 -0.383978
368 2 2.2208 13.6437 21.106 -0.181886
327 2 2.2208 5.12486 1.27861 16.388
328 1 -1.1104 0.998577 -2.96146 17.7861
329 1 -1.1104 1.00416 2.61168 17.9943
332 1 -1.1104 0.947937 -3.10329 15.0878
334 1 -1.1104 0.88783 2.58025 14.9983
340 1 -1.1104 0.837422 -0.218179 17.8114
342 2 2.2208 5.03726 -1.59021 19.2401
343 2 2.2208 5.17206 4.03757 19.2175
344 1 -1.1104 0.712258 -0.279245 15.0252
348 1 -1.1104 3.69427 -3.12579 17.9519
349 1 -1.1104 3.73203 2.6394 17.8149
350 2 2.2208 2.44764 1.11945 19.3102
351 1 -1.1104 3.81881 -3.19096 14.9177
353 1 -1.1104 3.59095 2.66985 14.9988
355 2 2.2208 2.30737 -1.72787 16.3724
357 1 -1.1104 3.70565 -0.234926 17.657
358 1 -1.1104 3.54817 -0.219843 14.9648
356 2 2.2208 2.1919 4.05489 16.6045
359 1 -1.1104 3.77933 -0.140196 20.6274
17609 2 2.2208 13.6123 -4.33987 19.3272
331 1 -1.1104 6.53249 2.71981 17.7879
336 1 -1.1104 6.52014 -3.10444 15.0804
330 1 -1.1104 6.49826 -3.13774 17.8076
341 1 -1.1104 6.50966 -0.237794 17.9186
335 1 -1.1104 0.966902 2.70605 20.7462
333 1 -1.1104 0.866517 -2.8811 20.6776
337 1 -1.1104 6.44375 -3.03796 20.7517
339 1 -1.1104 6.36586 2.64674 20.7707
347 1 -1.1104 6.5187 -0.237094 20.5725
569 2 2.2208 5.17492 17.9911 27.6612
436 2 2.2208 -0.332828 20.8633 24.9475
346 1 -1.1104 6.4284 -0.219378 15.0281
338 1 -1.1104 6.47017 2.48373 15.0547
370 2 2.2208 10.6127 1.12248 16.4616
371 1 -1.1104 12.1938 -3.00203 17.9289
372 1 -1.1104 12.1074 2.58152 18.13
373 1 -1.1104 12.2728 -2.8941 15.1449
375 1 -1.1104 11.9773 2.61611 15.1784
376 1 -1.1104 12.1325 -0.127981 17.7951
377 2 2.2208 10.7788 -1.62721 19.251
378 2 2.2208 10.7698 3.93856 19.4756
379 1 -1.1104 12.2507 -0.127792 15.0856
381 1 -1.1104 9.38774 -2.94347 17.7244
382 1 -1.1104 9.32735 2.64183 17.8301
383 2 2.2208 7.87685 1.24003 19.3447
384 1 -1.1104 9.49541 -2.94919 15.0163
386 1 -1.1104 9.23066 2.57965 14.9882
388 2 2.2208 7.82491 -1.58703 16.4586
389 2 2.2208 7.85297 4.14922 16.4895
390 1 -1.1104 9.24777 -0.191098 17.8853
391 1 -1.1104 9.12285 -0.0736917 14.9895
392 1 -1.1104 9.3404 -0.318093 20.7267
387 1 -1.1104 9.26889 2.52494 20.7176
385 1 -1.1104 9.24945 -3.19132 20.5046
364 2 2.2208 13.6483 15.2608 22.0522
317 2 2.2208 2.2333 -1.50849 27.5874
8368 2 2.2208 10.647 -4.30828 22.0616
324 2 2.2208 5.10277 6.91127 27.5186
9044 2 2.2208 13.5356 4.08504 16.5718
325 2 2.2208 2.34302 9.6403 27.6092
9089 2 2.2208 13.5228 -1.57809 16.3699
544 1 -1.1104 9.5602 16.6121 23.5109
9050 2 2.2208 13.555 1.38716 19.3417
402 2 2.2208 5.17488 6.92653 16.2793
403 2 2.2208 5.29611 12.6235 16.4204
404 1 -1.1104 0.982539 8.30768 17.7126
406 1 -1.1104 0.909725 8.30317 14.9062
410 1 -1.1104 0.909863 5.52497 17.8007
411 1 -1.1104 1.02695 11.1089 17.7895
414 2 2.2208 5.23689 9.86473 19.0619
415 1 -1.1104 0.728078 5.45871 14.9389
417 1 -1.1104 0.868466 11.1755 14.8588
423 1 -1.1104 3.98059 8.25086 17.7242
424 2 2.2208 2.44226 6.93757 19.0724
425 2 2.2208 2.31986 12.5749 18.9634
426 1 -1.1104 3.80478 8.33089 15.0367
428 2 2.2208 2.35222 9.77753 16.1701
429 1 -1.1104 3.84149 5.50292 17.784
430 1 -1.1104 3.76749 11.0762 17.9396
431 1 -1.1104 3.56019 5.49222 15.1399
433 1 -1.1104 3.68091 11.6895 14.9728
407 1 -1.1104 1.13058 8.46201 20.667
418 1 -1.1104 0.98873 11.2018 20.5616
427 1 -1.1104 3.63889 8.50514 20.5803
434 1 -1.1104 3.8077 11.6873 20.4817
416 1 -1.1104 0.931606 5.58052 20.5257
421 1 -1.1104 6.32729 10.9674 15.0291
419 1 -1.1104 6.53838 5.42682 14.9429
413 1 -1.1104 6.66929 11.5758 17.9321
405 1 -1.1104 6.74067 8.54485 17.7023
408 1 -1.1104 6.52451 8.30447 14.8694
412 1 -1.1104 6.55128 5.61739 17.8245
420 1 -1.1104 6.69951 5.4563 20.518
504 1 -1.1104 9.3152 13.9405 20.7853
548 2 2.2208 10.8346 15.1676 24.8213
439 2 2.2208 10.8352 6.93895 16.4439
440 2 2.2208 10.6948 12.4485 16.5019
441 1 -1.1104 12.1965 8.29692 17.763
442 1 -1.1104 12.1956 8.28168 15.1042
444 1 -1.1104 12.1387 5.44976 17.91
445 1 -1.1104 12.1537 11.2448 17.652
446 2 2.2208 10.8141 9.75388 19.0043
447 1 -1.1104 12.2719 5.38471 14.9569
449 1 -1.1104 12.018 11.0614 14.8752
451 1 -1.1104 9.38489 8.32903 17.7182
452 2 2.2208 8.04703 6.92127 19.1863
453 2 2.2208 8.1493 12.5213 19.4911
454 1 -1.1104 9.38385 8.35991 15.0105
456 2 2.2208 8.02121 9.83356 16.3771
457 1 -1.1104 9.41441 5.62403 17.8622
458 1 -1.1104 9.33058 11.1279 17.8507
459 1 -1.1104 9.38484 5.4876 15.0218
461 1 -1.1104 9.18273 11.2424 14.8509
9108 1 -1.1104 11.9363 8.27764 20.3774
450 1 -1.1104 12.1569 11.0161 20.5842
9120 2 2.2208 13.4138 6.98041 19.1255
443 1 -1.1104 12.1987 5.59892 20.7956
9119 2 2.2208 13.6263 9.74118 16.4291
9121 2 2.2208 13.5458 12.5324 19.2871
9232 2 2.2208 13.5216 9.62704 27.527
624 1 -1.1104 9.40692 19.3957 26.3421
465 1 -1.1104 0.75758 13.9037 17.698
466 1 -1.1104 0.937903 19.6298 17.7485
467 1 -1.1104 3.6752 13.6993 17.3936
469 1 -1.1104 1.1102 13.9521 15.0086
471 1 -1.1104 0.944118 19.4287 15.0282
477 1 -1.1104 1.00539 16.7772 14.992
479 1 -1.1104 3.91672 16.0784 15.4767
480 1 -1.1104 3.67824 19.0341 15.5665
481 2 2.2208 2.08075 15.3359 16.4864
482 2 2.2208 2.37573 20.9598 16.429
483 1 -1.1104 0.857932 16.5199 17.9236
464 2 2.2208 5.46366 17.6813 15.8644
470 1 -1.1104 1.33297 14.1011 20.4686
474 1 -1.1104 6.32042 19.6869 15.5415
472 1 -1.1104 0.949706 19.6129 20.8276
541 1 -1.1104 12.2157 19.5108 23.3524
468 1 -1.1104 6.43304 17.5357 17.7207
476 1 -1.1104 6.84696 13.5292 15.1167
489 2 2.2208 10.9918 18.2004 16.5724
490 1 -1.1104 12.1601 14.0511 17.7431
491 1 -1.1104 12.1277 19.6624 17.871
492 1 -1.1104 11.6819 13.7811 14.9074
494 1 -1.1104 12.1764 19.3609 15.0389
496 1 -1.1104 12.3124 16.8676 17.9176
497 2 2.2208 10.7952 15.4427 19.137
498 2 2.2208 10.8276 20.934 19.2372
499 1 -1.1104 11.8526 16.5325 15.0699
501 1 -1.1104 9.54829 13.746 18.017
502 1 -1.1104 9.06971 19.631 18.21
503 2 2.2208 7.93959 18.1579 19.4129
505 1 -1.1104 9.51582 19.4795 15.4171
507 2 2.2208 8.12104 20.8909 16.4278
508 1 -1.1104 9.5798 16.6829 17.5127
500 1 -1.1104 12.2721 16.6234 20.6774
493 1 -1.1104 12.0113 13.9886 20.4884
321 2 2.2208 10.7565 1.32584 27.6669
365 2 2.2208 -0.36098 20.877 19.2722
369 2 2.2208 13.617 20.9652 22.041
575 2 2.2208 8.08585 18.0465 24.7969
352 1 -1.1104 3.52814 -2.93737 20.6607
354 1 -1.1104 3.70023 2.62891 20.5979
345 1 -1.1104 0.91085 -0.0376741 20.6277
396 2 2.2208 13.3956 15.4334 16.4245
514 2 2.2208 5.02328 1.16707 22.2065
515 1 -1.1104 0.759571 -3.02256 23.5313
516 1 -1.1104 1.08571 2.6239 23.3756
519 1 -1.1104 0.943564 -2.97127 26.1833
520 1 -1.1104 0.928104 2.74611 26.0877
523 1 -1.1104 0.826496 -0.178075 23.5941
525 2 2.2208 5.11322 -1.66471 24.9122
526 2 2.2208 5.17197 4.10763 24.8772
527 1 -1.1104 0.877519 -0.0220281 26.3095
529 1 -1.1104 3.68544 -2.85296 23.3815
530 1 -1.1104 3.90543 2.73143 23.4418
531 2 2.2208 2.31306 1.25317 24.8264
532 1 -1.1104 3.71778 -2.88937 26.1428
533 1 -1.1104 3.85258 2.6223 26.2502
534 2 2.2208 2.24062 -1.55564 22.1632
535 2 2.2208 2.36459 3.99468 21.8786
536 1 -1.1104 3.55906 -0.0994552 23.4335
537 1 -1.1104 3.64392 -0.177403 26.1539
512 2 2.2208 10.8268 18.1227 22.0967
622 2 2.2208 7.95517 9.58339 27.5628
522 1 -1.1104 6.52674 2.53864 26.3017
528 1 -1.1104 6.42975 -0.226892 26.1942
524 1 -1.1104 6.41629 -0.139076 23.5294
539 1 -1.1104 6.57245 13.7819 23.5763
9233 2 2.2208 13.5241 12.3983 24.7972
367 2 2.2208 13.5559 18.2508 24.9627
374 1 -1.1104 12.1079 -2.74542 20.788
380 1 -1.1104 12.0787 -0.102791 20.6395
399 2 2.2208 10.811 18.1879 27.7394
9045 2 2.2208 13.4949 -1.4692 22.2125
546 1 -1.1104 12.2338 19.5943 26.3
517 1 -1.1104 6.46231 -3.0362 23.3422
9295 1 -1.1104 12.022 2.61344 21.0192
521 1 -1.1104 6.46664 -3.16003 26.3142
518 1 -1.1104 6.67243 2.69477 23.5086
549 2 2.2208 10.6281 1.0335 21.96
550 1 -1.1104 12.1513 -2.84119 23.5827
551 1 -1.1104 11.7815 -0.192482 23.3715
552 1 -1.1104 11.9708 -3.03642 26.3175
553 1 -1.1104 12.0266 2.96794 26.324
554 2 2.2208 10.7218 -1.47876 24.8962
556 1 -1.1104 9.30414 -3.0852 23.511
557 1 -1.1104 9.48668 2.46559 23.549
558 2 2.2208 7.84645 1.28987 24.9286
559 1 -1.1104 9.26832 -2.97276 26.3003
560 1 -1.1104 9.12564 2.69156 26.2014
561 2 2.2208 7.94839 -1.65298 22.0835
563 1 -1.1104 9.11072 -0.167025 23.3256
564 1 -1.1104 9.30554 -0.144571 26.2972
37 1 -1.1104 12.059 -0.223545 26.4491
555 2 2.2208 10.6612 3.81102 24.8083
547 1 -1.1104 12.2179 16.614 23.6648
562 2 2.2208 7.89936 4.02588 22.0262
573 1 -1.1104 9.4502 13.8361 23.5657
432 1 -1.1104 3.74062 5.42706 20.5353
323 2 2.2208 7.94098 3.9898 27.6884
625 2 2.2208 7.8998 15.2892 22.0735
577 2 2.2208 5.17689 6.93769 21.9437
578 2 2.2208 5.33937 12.4024 22.1498
579 1 -1.1104 0.986013 8.16726 23.5177
581 1 -1.1104 0.87827 8.29184 26.1748
583 1 -1.1104 1.0995 5.47272 23.3524
584 1 -1.1104 0.922861 11.1272 23.4018
587 2 2.2208 5.06336 9.66507 24.8343
588 1 -1.1104 1.1222 5.5054 26.215
589 1 -1.1104 1.00562 11.0563 26.1688
592 1 -1.1104 3.71434 8.40279 23.3097
593 2 2.2208 2.40849 6.79096 24.7655
594 2 2.2208 2.15636 12.4987 24.8076
595 1 -1.1104 3.64959 8.29637 26.1589
596 2 2.2208 2.39013 9.83947 21.9906
597 1 -1.1104 3.89312 5.42505 23.3904
598 1 -1.1104 3.79337 11.1885 23.4607
599 1 -1.1104 3.81904 5.5249 26.2173
600 1 -1.1104 3.66992 11.0342 26.1586
580 1 -1.1104 6.45491 8.31479 23.2984
582 1 -1.1104 6.48402 8.16884 26.0531
590 1 -1.1104 6.70362 5.28617 26.1311
510 1 -1.1104 9.41253 16.6472 20.5388
506 1 -1.1104 9.51576 19.574 20.8236
513 1 -1.1104 12.3124 13.6881 23.3344
455 1 -1.1104 9.27555 8.20825 20.5632
422 1 -1.1104 6.58165 11.0137 20.5735
462 1 -1.1104 9.39876 10.9636 20.6185
409 1 -1.1104 6.46367 8.22616 20.4841
460 1 -1.1104 9.3397 5.34297 20.6513
591 1 -1.1104 6.49249 10.9462 26.2104
586 1 -1.1104 6.66571 11.1009 23.4853
585 1 -1.1104 6.59564 5.49005 23.2955
605 1 -1.1104 9.3335 10.8896 26.159
606 1 -1.1104 9.83124 5.42001 26.2248
607 1 -1.1104 9.40508 10.9031 23.4059
608 1 -1.1104 9.59169 5.28404 23.3846
609 2 2.2208 7.91568 9.5905 21.9182
610 1 -1.1104 9.22745 8.06262 26.2969
611 2 2.2208 7.99721 12.4163 24.9034
612 2 2.2208 8.02224 6.84352 24.7731
613 2 2.2208 10.6609 6.87993 21.8823
614 2 2.2208 10.7486 12.4371 22.005
615 1 -1.1104 11.9859 8.19483 23.1188
616 1 -1.1104 11.8284 8.17706 26.2615
617 1 -1.1104 12.2458 10.868 23.4052
618 2 2.2208 10.6824 9.52808 24.7827
619 1 -1.1104 12.0805 11.0197 26.1417
620 1 -1.1104 9.34372 8.07796 23.4161
9300 2 2.2208 13.416 9.59527 21.8877
475 1 -1.1104 6.64546 19.4205 20.849
542 1 -1.1104 12.1298 13.8741 26.3051
603 2 2.2208 5.08411 12.4953 27.6057
623 2 2.2208 10.6359 12.35 27.6045
572 1 -1.1104 12.1018 16.695 26.2371
601 1 -1.1104 6.51471 16.7862 26.2702
545 1 -1.1104 6.6008 19.3094 23.5495
484 1 -1.1104 3.2258 17.0093 20.9051
360 2 2.2208 2.46428 20.983 22.1273
361 1 -1.1104 3.89538 16.5667 23.6284
362 1 -1.1104 1.04687 16.7677 23.3424
397 1 -1.1104 3.69105 13.8797 26.0921
401 1 -1.1104 3.78725 16.7045 26.4297
435 2 2.2208 2.45937 18.1339 24.8173
438 1 -1.1104 3.78713 19.5481 26.198
448 2 2.2208 5.21526 17.9502 22.0948
463 1 -1.1104 0.944271 14.0016 23.21
538 1 -1.1104 0.937813 19.5998 23.544
540 2 2.2208 5.27201 15.3021 24.8353
543 2 2.2208 5.21661 20.9076 24.9422
565 1 -1.1104 0.8335 13.8948 26.0948
566 1 -1.1104 0.924743 16.6081 26.2489
567 1 -1.1104 1.05615 19.4329 26.419
571 2 2.2208 2.42905 15.381 22.0715
602 1 -1.1104 3.78266 13.9232 23.2368
626 1 -1.1104 3.81753 19.4585 23.0702
621 1 -1.1104 6.3313 13.7358 26.175
393 1 -1.1104 6.57787 16.5371 23.5083
576 1 -1.1104 6.50025 19.5329 26.4433
604 1 -1.1104 9.23503 13.7191 26.3987
437 2 2.2208 7.9977 20.9591 22.0475
495 1 -1.1104 12.2004 19.6456 20.6978
574 1 -1.1104 9.43945 19.3741 23.5152
473 1 -1.1104 6.61874 13.7108 20.8183
478 1 -1.1104 6.60439 16.5736 20.7859
568 2 2.2208 10.7648 20.9834 24.8215
398 1 -1.1104 9.38339 16.499 26.2712
9091 2 2.2208 13.5769 15.2005 27.7044
485 2 2.2208 2.29809 18.0603 13.8253
8993 2 2.2208 13.5852 1.25467 13.6641
400 2 2.2208 8.11726 20.8851 27.6189
487 2 2.2208 13.6384 18.1685 13.6728
486 2 2.2208 5.2166 20.9666 13.7816
322 2 2.2208 7.87436 -1.55196 27.6547
307 2 2.2208 10.7999 3.93291 13.6517
394 2 2.2208 8.02509 15.2353 27.5186
316 2 2.2208 5.11935 1.27003 27.5598
308 2 2.2208 10.6827 -1.49622 13.6996
627 2 2.2208 5.26387 23.5734 5.19043
628 2 2.2208 5.34457 29.343 5.31045
629 1 -1.1104 0.963705 25.0053 1.19907
630 1 -1.1104 1.14375 24.9583 3.98253
631 1 -1.1104 0.939636 22.0864 1.00416
632 1 -1.1104 1.00349 27.8594 1.03717
633 2 2.2208 5.21363 26.4207 2.42955
634 1 -1.1104 1.05874 22.2447 3.90183
635 1 -1.1104 1.04327 27.9406 3.83617
636 1 -1.1104 3.82164 24.9455 1.0482
637 2 2.2208 2.51787 23.4928 2.52276
638 2 2.2208 2.42296 29.3213 2.52716
639 1 -1.1104 3.90936 24.9749 3.79926
640 2 2.2208 2.47676 26.4975 5.28119
641 1 -1.1104 3.77593 22.2644 1.19659
642 1 -1.1104 3.96591 27.7439 1.17203
643 1 -1.1104 3.96318 22.1348 3.88486
644 1 -1.1104 3.893 27.9279 3.96181
771 1 -1.1104 1.06872 27.8817 6.66726
649 1 -1.1104 6.69683 25.1566 3.82438
653 1 -1.1104 6.67597 27.9227 3.78432
650 1 -1.1104 6.66925 22.1824 1.06169
770 1 -1.1104 0.96503 22.3106 6.71116
775 1 -1.1104 3.71764 22.3122 6.63987
774 1 -1.1104 3.85661 25.1801 6.58156
651 1 -1.1104 6.66011 27.8975 1.03987
1095 2 2.2208 10.8408 37.7395 13.6501
772 1 -1.1104 6.53994 22.1272 6.53639
948 2 2.2208 13.5809 23.8432 7.99387
918 2 2.2208 -0.409647 40.608 10.753
648 1 -1.1104 6.66362 25.1625 1.06972
652 1 -1.1104 6.61302 22.4537 3.72948
654 2 2.2208 10.6849 23.6175 5.2676
655 2 2.2208 10.6699 29.3132 5.11468
656 1 -1.1104 12.2126 25.0366 1.05927
657 1 -1.1104 12.2447 25.0734 3.90363
658 1 -1.1104 12.2951 22.2502 1.2341
659 1 -1.1104 12.303 28.0357 1.0405
660 2 2.2208 10.929 26.5636 2.41431
661 1 -1.1104 12.2017 22.315 4.00064
662 1 -1.1104 12.2292 27.9453 3.82594
663 1 -1.1104 9.42746 25.2718 0.952884
664 2 2.2208 8.11634 23.8142 2.45673
665 2 2.2208 7.99831 29.2976 2.35878
666 1 -1.1104 9.51903 25.0088 3.85063
667 2 2.2208 7.96195 26.4801 5.21866
668 1 -1.1104 9.4609 22.4755 1.04348
669 1 -1.1104 9.41896 27.9637 1.09814
670 1 -1.1104 9.41533 22.2601 3.8876
671 1 -1.1104 9.50434 27.8477 3.84635
801 1 -1.1104 12.1511 25.0138 6.65138
674 2 2.2208 13.5685 26.5642 5.1315
806 1 -1.1104 9.38898 27.8108 6.72628
805 1 -1.1104 9.33369 22.3454 6.55178
804 1 -1.1104 9.33271 25.0884 6.59211
922 1 -1.1104 9.41013 39.1742 12.15
1341 2 2.2208 13.6232 34.9785 13.6048
1301 2 2.2208 5.24435 40.5098 -0.415411
675 2 2.2208 5.24724 34.9226 5.26721
676 1 -1.1104 1.09046 30.6943 1.16995
677 1 -1.1104 1.01251 36.3346 1.08739
679 1 -1.1104 1.07784 30.8591 3.86814
680 1 -1.1104 1.03162 36.449 3.90501
682 1 -1.1104 1.06122 33.4088 1.13492
683 2 2.2208 5.36152 32.1591 2.46738
684 2 2.2208 5.33504 37.7698 2.45176
685 1 -1.1104 1.18957 33.524 3.87389
687 1 -1.1104 3.84781 30.6969 1.08619
688 1 -1.1104 3.76288 36.268 1.09874
689 2 2.2208 2.50882 34.9287 2.48475
690 1 -1.1104 3.98759 30.7737 3.87897
691 1 -1.1104 3.89914 36.2375 3.87985
692 2 2.2208 2.54532 32.0562 5.32676
693 2 2.2208 2.51869 37.7448 5.19932
694 1 -1.1104 3.91351 33.551 1.07696
695 1 -1.1104 3.93463 33.5182 3.88776
681 1 -1.1104 6.67367 36.4676 3.88192
678 1 -1.1104 6.62175 36.3632 1.00454
686 1 -1.1104 6.63711 33.5539 3.81688
826 1 -1.1104 1.09716 36.1634 6.70901
825 1 -1.1104 1.10082 30.5964 6.64421
700 1 -1.1104 6.7083 30.6861 3.91755
699 1 -1.1104 6.57253 30.8034 1.04677
828 1 -1.1104 6.59806 36.5232 6.64597
830 1 -1.1104 6.59245 33.7418 6.77528
833 1 -1.1104 3.71826 33.5337 6.72086
832 1 -1.1104 3.83523 36.4777 6.68554
701 1 -1.1104 6.79423 33.5235 1.05408
829 1 -1.1104 0.877172 33.3789 6.47866
831 1 -1.1104 3.92224 30.9112 6.7374
827 1 -1.1104 6.61434 30.6774 6.66253
1583 1 -1.1104 12.3284 47.7107 9.43326
939 1 -1.1104 12.2897 41.9274 9.4684
702 2 2.2208 10.9423 34.7694 5.27039
703 1 -1.1104 12.2111 30.771 1.08759
704 1 -1.1104 12.1688 36.4973 1.13673
705 1 -1.1104 12.2583 30.7145 3.8239
706 1 -1.1104 12.252 36.182 3.98664
707 1 -1.1104 12.3611 33.6113 0.954811
708 2 2.2208 10.8145 32.074 2.34993
709 2 2.2208 10.9088 37.6899 2.44366
710 1 -1.1104 12.2906 33.4144 3.65458
711 1 -1.1104 9.31424 30.6643 1.00377
712 1 -1.1104 9.39586 36.2453 1.00361
713 2 2.2208 8.08419 34.9733 2.48329
714 1 -1.1104 9.35813 30.7353 3.68996
715 1 -1.1104 9.55265 36.4621 3.82795
716 2 2.2208 8.05352 32.2205 5.21125
717 2 2.2208 8.02902 37.8178 5.28139
718 1 -1.1104 9.41994 33.5484 1.01887
719 1 -1.1104 9.40671 33.4851 3.84898
859 1 -1.1104 12.2151 30.9112 6.70621
863 1 -1.1104 9.41295 36.0851 6.57308
746 2 2.2208 13.594 43.3119 10.8631
946 2 2.2208 13.6489 26.603 10.8838
941 2 2.2208 10.8041 46.1849 10.7825
938 1 -1.1104 9.51718 44.7812 6.59108
893 1 -1.1104 6.54562 44.7659 12.2725
721 2 2.2208 5.2844 40.5832 5.28399
722 2 2.2208 5.20356 46.1351 5.20753
723 1 -1.1104 0.973 41.9642 1.09373
725 1 -1.1104 0.909321 41.9859 3.92662
727 1 -1.1104 1.04024 39.199 1.05196
728 1 -1.1104 1.02623 44.7829 1.16971
731 2 2.2208 5.15071 43.264 2.29913
732 1 -1.1104 1.1379 39.1878 3.78746
733 1 -1.1104 1.05143 44.7327 3.77951
736 1 -1.1104 3.8813 41.8794 0.998441
737 2 2.2208 2.38413 40.4908 2.44159
738 2 2.2208 2.47804 46.1424 2.40059
739 1 -1.1104 3.73659 41.865 3.95925
740 2 2.2208 2.36406 43.2721 5.25268
741 1 -1.1104 3.88597 39.0257 0.986026
742 1 -1.1104 3.90458 44.7373 0.992401