ITEM: TIMESTEP
10000
ITEM: NUMBER OF ATOMS
17910
ITEM: BOX BOUNDS pp pp pp
-3.5680079950664129e-01 2.7696800799506732e+01
-4.2758633907696257e+00 3.3235586339077145e+02
-3.6475442096703697e-01 2.7704754420967198e+01
ITEM: ATOMS id type q x y z
1 2 2.2208 5.19553 1.34237 5.11306
2 1 -1.1104 0.843908 -2.84512 0.961555
3 1 -1.1104 0.850854 2.79046 0.823531
6 1 -1.1104 0.886772 -2.83109 3.69541
7 1 -1.1104 0.952085 2.79356 3.7139
10 1 -1.1104 1.05322 0.0180278 0.743266
12 2 2.2208 5.22732 -1.58458 2.29858
13 2 2.2208 5.09074 4.10023 2.39255
14 1 -1.1104 0.858944 0.0301665 3.53976
16 1 -1.1104 3.71038 -2.88022 0.75893
17 1 -1.1104 3.70383 2.61253 0.824488
18 2 2.2208 2.29544 1.32724 2.1618
19 1 -1.1104 3.71651 -2.84026 3.72286
20 1 -1.1104 3.73662 2.72829 3.68878
21 2 2.2208 2.39464 -1.36464 5.02861
22 2 2.2208 2.25975 4.18105 5.35909
23 1 -1.1104 3.79913 -0.166523 0.875185
24 1 -1.1104 3.67794 -0.0647602 3.64476
9 1 -1.1104 6.63319 2.77192 3.76751
15 1 -1.1104 6.49523 -0.0371748 3.65914
5 1 -1.1104 6.5047 2.50672 0.978083
8 1 -1.1104 6.64117 -2.80262 3.78416
166 1 -1.1104 0.978177 -2.79316 6.42839
11 1 -1.1104 6.72002 -0.268487 0.919552
4 1 -1.1104 6.3952 -2.94239 0.794432
305 2 2.2208 2.32933 1.37556 13.566
167 1 -1.1104 0.971262 2.76631 6.64638
174 1 -1.1104 3.77594 -0.0983834 6.48813
170 1 -1.1104 0.861518 -0.0441478 6.34768
171 1 -1.1104 6.45835 -0.0195211 6.65085
173 1 -1.1104 3.76972 2.77898 6.40265
168 1 -1.1104 6.62041 -2.88494 6.54292
32 2 2.2208 10.7896 1.40782 5.229
33 1 -1.1104 12.0788 -2.9192 0.804809
34 1 -1.1104 12.155 2.71614 1.10584
35 1 -1.1104 12.1479 -2.83577 3.61907
36 1 -1.1104 12.2771 2.75125 3.84116
38 2 2.2208 10.7523 -1.4672 2.34366
39 2 2.2208 10.7972 4.22235 2.37121
40 1 -1.1104 12.0223 -0.0513476 3.67489
41 1 -1.1104 9.41656 -2.79124 0.903194
42 1 -1.1104 9.40342 2.85734 0.863609
43 2 2.2208 8.09672 1.36045 2.3932
44 1 -1.1104 9.43341 -2.94974 3.75927
45 1 -1.1104 9.47115 2.76918 3.8131
46 2 2.2208 8.05131 -1.40576 5.14261
47 2 2.2208 7.9628 4.22365 5.16784
48 1 -1.1104 9.7267 -0.00981053 0.969885
49 1 -1.1104 9.33471 -0.0377782 3.82425
207 1 -1.1104 12.0723 -0.0861474 6.6531
206 1 -1.1104 12.1505 2.63395 6.60802
210 1 -1.1104 9.37901 0.0748034 6.62794
8664 2 2.2208 13.5537 4.23545 5.15688
31 1 -1.1104 12.2713 19.6662 9.43462
169 1 -1.1104 6.61956 2.79303 6.55663
209 1 -1.1104 9.3553 2.83391 6.58483
208 1 -1.1104 9.43596 -2.90605 6.56714
205 1 -1.1104 12.1153 -2.91012 6.55434
8308 2 2.2208 7.89499 -4.24506 13.4442
54 2 2.2208 5.06381 7.01329 5.14357
55 2 2.2208 5.14633 12.7447 5.12379
56 1 -1.1104 0.962675 8.20242 0.964253
58 1 -1.1104 0.961544 8.30166 3.83457
60 1 -1.1104 0.954462 5.47746 0.969177
61 1 -1.1104 0.930412 11.1303 0.840187
66 2 2.2208 5.16588 9.74203 2.4546
67 1 -1.1104 0.877964 5.49257 3.97802
68 1 -1.1104 0.930968 11.087 3.68035
71 1 -1.1104 3.76864 8.51053 0.856905
72 2 2.2208 2.42188 6.84221 2.28938
73 2 2.2208 2.22882 12.6613 2.35827
74 1 -1.1104 3.86183 8.26286 3.67094
75 2 2.2208 2.2288 9.82351 5.18577
76 1 -1.1104 3.87683 5.58909 0.909539
77 1 -1.1104 3.73448 11.3357 0.783285
79 1 -1.1104 3.62174 5.30654 3.74674
80 1 -1.1104 3.78105 11.2857 3.68815
65 1 -1.1104 6.63478 11.2146 6.64678
59 1 -1.1104 6.50628 8.42438 3.88141
57 1 -1.1104 6.47339 8.23357 0.970518
70 1 -1.1104 6.522 11.2645 3.906
69 1 -1.1104 6.40442 5.6461 3.74316
239 1 -1.1104 3.77137 5.46001 6.58107
64 1 -1.1104 6.64682 11.1327 1.05342
238 1 -1.1104 3.62016 8.2927 6.42779
62 1 -1.1104 0.910961 11.3941 6.48697
236 1 -1.1104 0.878693 5.60216 6.66208
237 1 -1.1104 6.57545 5.58227 6.61162
234 1 -1.1104 0.873291 8.36167 6.5676
78 1 -1.1104 3.70692 11.0703 6.62062
235 1 -1.1104 6.38815 8.40552 6.74002
63 1 -1.1104 6.69421 5.37481 1.00565
297 1 -1.1104 6.85154 13.8842 12.1417
84 2 2.2208 10.695 7.03176 5.14412
85 2 2.2208 10.6142 12.6666 5.16267
86 1 -1.1104 12.218 8.33567 1.08689
87 1 -1.1104 12.1436 8.49099 3.82184
88 1 -1.1104 12.2725 5.52449 0.93952
89 1 -1.1104 12.1803 11.1107 0.902988
91 2 2.2208 10.8114 9.85834 2.33793
92 1 -1.1104 12.1538 5.70952 3.69614
93 1 -1.1104 12.0638 11.1468 3.73832
94 1 -1.1104 9.27846 8.31339 0.92452
95 2 2.2208 7.92986 6.76864 2.43609
96 2 2.2208 7.86074 12.6444 2.42319
97 1 -1.1104 9.3282 8.17506 3.70164
98 2 2.2208 7.88019 9.82371 5.29769
99 1 -1.1104 9.3417 5.57797 1.10579
100 1 -1.1104 9.35474 11.2109 1.11372
102 1 -1.1104 9.26962 5.57648 3.8759
103 1 -1.1104 9.48393 11.0797 3.90304
25 2 2.2208 10.7671 18.3107 10.8772
8762 2 2.2208 13.4603 15.3502 5.20871
266 1 -1.1104 12.1194 5.48876 6.57475
90 1 -1.1104 12.03 11.1651 6.53604
106 2 2.2208 5.09573 18.1476 5.19109
107 1 -1.1104 0.997381 13.8732 1.02728
109 1 -1.1104 1.00835 19.6316 0.820137
113 1 -1.1104 0.937114 13.8894 3.7267
114 1 -1.1104 0.9289 19.5569 3.6308
116 1 -1.1104 0.93625 16.8891 0.874063
119 2 2.2208 5.11776 15.4197 2.3747
120 2 2.2208 5.10941 21.0823 2.34044
121 1 -1.1104 0.974649 16.7665 3.72503
123 1 -1.1104 3.79581 14.0204 0.889489
125 1 -1.1104 3.71813 19.6561 0.810485
127 2 2.2208 2.17816 18.2734 2.31531
128 1 -1.1104 3.60328 14.1357 3.82419
129 1 -1.1104 3.66094 19.6292 3.66508
130 2 2.2208 2.30427 15.4549 5.09043
131 2 2.2208 2.30839 21.046 5.01973
132 1 -1.1104 3.73669 16.8884 1.0801
134 1 -1.1104 3.80654 16.7923 3.76835
140 1 -1.1104 6.49791 16.8651 1.08082
138 1 -1.1104 6.5101 19.7104 0.839451
133 1 -1.1104 3.69283 16.9191 6.69745
112 1 -1.1104 6.48716 19.5809 6.4291
122 1 -1.1104 6.56005 16.8237 3.8976
110 1 -1.1104 6.47325 14.0502 0.986353
302 1 -1.1104 0.784922 19.6466 6.62398
115 1 -1.1104 6.50077 13.9988 3.76148
111 1 -1.1104 6.42082 13.9895 6.52197
117 1 -1.1104 0.809271 16.6881 6.56734
118 1 -1.1104 6.49335 16.7125 6.66647
8975 2 2.2208 13.7062 7.02954 2.49729
139 1 -1.1104 6.55138 19.651 3.69019
8978 2 2.2208 13.4893 18.4199 2.41754
8741 2 2.2208 13.5345 21.1389 5.36355
141 2 2.2208 10.7155 18.1432 5.26225
142 1 -1.1104 12.0955 14.0845 0.941202
144 1 -1.1104 11.9694 19.6813 1.02506
146 1 -1.1104 11.8386 13.9096 3.76994
147 1 -1.1104 12.1303 19.7172 3.73736
148 1 -1.1104 12.2339 16.9385 1.01148
150 2 2.2208 10.7219 15.4011 2.37747
151 2 2.2208 10.7221 21.0473 2.41856
152 1 -1.1104 12.1525 16.8123 3.70899
153 1 -1.1104 9.38284 13.9051 0.952918
155 1 -1.1104 9.29136 19.5546 0.981427
157 2 2.2208 8.01988 18.2166 2.33298
158 1 -1.1104 9.11577 14.0897 3.81115
159 1 -1.1104 9.52565 19.5213 3.74953
160 2 2.2208 7.89807 15.3796 5.17763
161 2 2.2208 7.93725 20.9296 5.10397
162 1 -1.1104 9.33757 16.7968 0.921687
164 1 -1.1104 9.33598 16.77 3.82087
8876 2 2.2208 13.5698 12.6981 7.98676
8693 2 2.2208 13.468 9.83077 5.15439
143 1 -1.1104 12.0659 13.9788 6.56976
163 1 -1.1104 9.25407 16.7809 6.53617
8880 2 2.2208 13.5369 9.70162 10.7786
8993 2 2.2208 13.6291 1.26567 13.659
30 1 -1.1104 12.1041 13.7242 9.59477
172 1 -1.1104 3.79382 -2.87616 6.52727
175 2 2.2208 5.06088 1.37223 10.7257
176 1 -1.1104 0.941677 -3.00159 12.1021
177 1 -1.1104 0.908212 2.70724 12.2662
180 1 -1.1104 0.957752 -2.74269 9.31038
181 1 -1.1104 0.88691 2.81855 9.43127
184 1 -1.1104 0.936505 -0.262675 12.1862
186 2 2.2208 5.05654 -1.46094 7.90956
187 2 2.2208 5.13753 4.11119 7.91298
188 1 -1.1104 0.919698 -0.0476887 9.33774
190 1 -1.1104 3.85153 -2.86925 12.0192
191 1 -1.1104 3.64438 2.66445 12.1237
192 2 2.2208 2.33859 1.34795 7.83391
193 1 -1.1104 3.74881 -2.74723 9.31481
194 1 -1.1104 3.63465 2.69749 9.13402
195 2 2.2208 2.3278 -1.41144 10.737
196 2 2.2208 2.30965 4.14774 10.7321
197 1 -1.1104 3.7767 -0.0809014 12.1044
198 1 -1.1104 3.79936 -0.0604191 9.2738
185 1 -1.1104 6.47426 -0.0414224 12.1008
203 2 2.2208 5.05224 -4.25122 10.6923
488 2 2.2208 10.8836 15.491 13.541
17518 2 2.2208 13.5546 -4.24256 13.5114
306 2 2.2208 5.21296 -1.51168 13.4894
8662 1 -1.1104 12.5864 -0.169759 0.855039
8986 2 2.2208 13.4313 -4.40153 8.02453
199 2 2.2208 8.02997 21.0509 10.8246
179 1 -1.1104 6.51027 2.72573 12.2265
189 1 -1.1104 6.5839 -0.0467392 9.27985
182 1 -1.1104 6.56818 -2.76655 9.41319
183 1 -1.1104 6.51912 2.80089 9.45038
178 1 -1.1104 6.59681 -2.93294 12.0831
8987 2 2.2208 13.4928 1.40153 8.02745
212 2 2.2208 10.7391 1.31757 10.77
213 1 -1.1104 12.2944 -2.95844 12.0994
214 1 -1.1104 12.0072 2.67069 12.144
215 1 -1.1104 12.2101 -3.0054 9.40418
216 1 -1.1104 12.1314 2.87037 9.25832
217 1 -1.1104 12.1894 -0.142071 12.1861
218 2 2.2208 10.8068 -1.46355 7.90545
219 2 2.2208 10.6009 4.19811 8.07883
220 1 -1.1104 12.1632 -0.019694 9.48639
221 1 -1.1104 9.28573 -2.83219 12.0233
222 1 -1.1104 9.31162 2.88294 12.3074
223 2 2.2208 7.9295 1.38659 8.03378
224 1 -1.1104 9.33396 -3.00075 9.3543
225 1 -1.1104 9.32053 2.68206 9.3691
226 2 2.2208 7.83979 -1.48444 10.7925
227 2 2.2208 7.89243 4.18168 10.8784
228 1 -1.1104 9.32608 -0.0840252 12.198
229 1 -1.1104 9.29999 -0.110887 9.50712
8799 2 2.2208 13.4091 4.23536 10.845
82 1 -1.1104 12.1013 16.8363 9.265
8300 2 2.2208 10.6862 -4.33147 10.763
309 2 2.2208 8.02684 1.41572 13.5567
511 2 2.2208 10.6555 21.05 13.6113
8974 2 2.2208 13.3785 12.6696 2.36134
310 2 2.2208 2.19751 12.5363 13.4172
240 2 2.2208 5.03455 6.9122 10.805
241 2 2.2208 5.13207 12.6043 10.8741
242 1 -1.1104 0.690667 8.49088 11.9628
244 1 -1.1104 0.837811 8.31961 9.3578
246 1 -1.1104 0.931739 5.63505 12.108
247 1 -1.1104 0.808928 11.2219 12.1492
250 2 2.2208 5.04477 9.86094 8.01159
251 1 -1.1104 0.8401 5.57783 9.26926
252 1 -1.1104 0.87691 11.2817 9.44821
255 1 -1.1104 3.6742 8.35634 12.1868
256 2 2.2208 2.3381 6.96836 7.89099
257 2 2.2208 2.37062 12.8454 7.96592
258 1 -1.1104 3.70991 8.3795 9.31271
259 2 2.2208 2.25326 9.75651 10.734
260 1 -1.1104 3.60366 5.44349 12.1068
261 1 -1.1104 3.77687 11.0476 12.192
262 1 -1.1104 3.62109 5.56967 9.15988
263 1 -1.1104 3.65027 11.2096 9.51069
249 1 -1.1104 6.46205 11.2341 12.218
243 1 -1.1104 6.44346 8.24379 12.2733
253 1 -1.1104 6.47779 5.55106 9.39701
245 1 -1.1104 6.40779 8.51106 9.51337
311 2 2.2208 5.10434 9.65543 13.5017
8963 2 2.2208 13.5614 15.322 10.8593
202 2 2.2208 2.26966 -4.122 7.87886
101 1 -1.1104 9.28075 11.3253 6.70436
267 1 -1.1104 9.304 8.41234 6.55009
254 1 -1.1104 6.41319 11.3389 9.3667
248 1 -1.1104 6.49837 5.51064 12.1357
265 1 -1.1104 12.1182 8.33234 6.58426
269 1 -1.1104 9.39362 5.58132 6.64739
8969 2 2.2208 13.626 1.4575 2.50747
137 1 -1.1104 9.39608 19.6208 9.1331
264 1 -1.1104 9.33086 11.2574 9.361
268 1 -1.1104 9.29548 5.40045 9.47436
270 1 -1.1104 9.31181 11.261 12.3308
271 1 -1.1104 9.23587 5.62336 12.328
272 2 2.2208 7.8573 9.84553 10.7926
273 1 -1.1104 9.23269 8.46247 9.34684
274 2 2.2208 7.80558 12.7194 8.0795
275 2 2.2208 7.84733 6.96487 7.9803
276 2 2.2208 10.6767 7.12216 10.8618
277 2 2.2208 10.7154 12.4957 10.8277
278 1 -1.1104 12.1948 8.2857 12.2434
279 1 -1.1104 12.0029 8.27891 9.43882
280 1 -1.1104 12.184 5.57375 12.2938
281 1 -1.1104 12.1328 11.2306 12.2046
282 2 2.2208 10.7494 9.88109 7.84233
283 1 -1.1104 12.0019 5.69637 9.52682
284 1 -1.1104 12.2311 11.1592 9.44845
285 1 -1.1104 9.28398 8.39625 12.1747
165 2 2.2208 8.05106 15.3834 10.852
8968 2 2.2208 13.6149 -1.4781 10.7073
486 2 2.2208 5.31571 21.0545 13.621
124 1 -1.1104 3.68852 14.1391 6.56366
108 1 -1.1104 0.957166 13.8773 6.57484
290 1 -1.1104 6.42326 14.0908 9.31223
296 1 -1.1104 6.30484 19.7565 12.1678
288 1 -1.1104 6.60747 19.5545 9.31064
126 1 -1.1104 3.59413 19.6792 6.58305
201 2 2.2208 2.462 15.4507 10.8629
204 2 2.2208 2.35002 21.2153 10.9173
211 1 -1.1104 3.97962 17.1122 12.2502
230 1 -1.1104 0.993107 16.5731 12.0905
231 1 -1.1104 3.77204 14.1146 9.43737
233 1 -1.1104 3.76656 16.9354 9.49768
286 1 -1.1104 3.68784 19.7124 12.3106
287 1 -1.1104 3.66534 14.0177 12.2618
291 1 -1.1104 0.825506 19.7544 9.31594
292 1 -1.1104 0.99472 16.863 9.3063
293 2 2.2208 5.13064 21.1024 8.02741
294 1 -1.1104 0.977331 14.1265 9.26059
295 2 2.2208 5.10779 15.5006 8.07035
298 1 -1.1104 0.960721 19.4693 12.231
299 1 -1.1104 0.8803 13.9199 11.9573
300 2 2.2208 5.18989 18.3956 10.723
301 1 -1.1104 3.69406 19.7369 9.57745
303 2 2.2208 2.30914 18.3738 8.0041
289 1 -1.1104 6.48472 16.7034 9.61019
9113 2 2.2208 13.4644 12.3648 13.6982
27 1 -1.1104 12.0938 19.6435 12.1102
104 1 -1.1104 9.34169 19.757 11.9629
145 1 -1.1104 12.0598 19.6218 6.53718
156 1 -1.1104 9.19143 19.5513 6.50641
81 2 2.2208 10.727 21.0535 7.90408
154 1 -1.1104 9.37204 14.192 6.75124
26 1 -1.1104 12.2308 14.0615 12.2554
200 1 -1.1104 9.23016 16.8483 9.51092
51 2 2.2208 10.7375 15.4067 7.98783
83 1 -1.1104 9.60078 13.8269 12.6999
509 1 -1.1104 9.4594 16.7413 12.3243
149 1 -1.1104 12.1908 16.7448 6.54159
8970 2 2.2208 13.4935 -1.52348 5.04994
50 1 -1.1104 12.1972 16.9201 12.3229
105 2 2.2208 7.83878 18.1979 7.89783
135 1 -1.1104 9.2716 13.9251 9.60399
52 2 2.2208 13.563 21.212 10.833
8299 2 2.2208 7.95207 -4.11905 2.33265
8964 2 2.2208 13.5132 18.1965 8.12824
304 2 2.2208 5.08604 4.02763 13.5857
8875 2 2.2208 13.5177 6.8646 8.03852
323 2 2.2208 8.02605 4.14376 -0.521065
326 2 2.2208 10.8861 7.02886 -0.253418
487 2 2.2208 13.5634 18.1653 13.6699
312 2 2.2208 2.2632 6.8919 13.5572
232 2 2.2208 7.86682 -4.27414 7.88297
17515 2 2.2208 13.5061 -4.17397 2.29106
9011 2 2.2208 -0.407679 15.3753 13.509
8981 2 2.2208 -0.550638 1.22712 10.7014
28 2 2.2208 2.33099 -4.35138 2.20677
485 2 2.2208 2.35906 18.2878 13.4767
9091 2 2.2208 13.4857 15.4819 -0.347338
325 2 2.2208 2.38305 9.80094 -0.42907
622 2 2.2208 8.11158 9.83672 -0.306995
570 2 2.2208 2.33585 21.0251 -0.485338
308 2 2.2208 10.7264 -1.55351 13.4784
9004 2 2.2208 13.6031 6.94939 13.6656
315 2 2.2208 7.90125 6.98535 13.6205
327 2 2.2208 5.27223 1.30137 16.407
328 1 -1.1104 0.965659 -2.74488 17.6329
329 1 -1.1104 0.967308 2.73926 17.7975
332 1 -1.1104 1.00626 -2.96828 14.9627
334 1 -1.1104 0.921355 2.77824 14.9189
340 1 -1.1104 0.907671 0.119015 17.855
342 2 2.2208 5.19136 -1.44327 19.1808
343 2 2.2208 5.02672 4.1142 19.2788
344 1 -1.1104 0.973218 -0.191689 14.9695
348 1 -1.1104 3.81137 -2.73572 17.7958
349 1 -1.1104 3.83949 2.67342 17.7243
350 2 2.2208 2.40159 1.47439 19.1505
351 1 -1.1104 3.82112 -2.92608 14.8722
353 1 -1.1104 3.73047 2.74103 15.0007
355 2 2.2208 2.38959 -1.43531 16.4266
356 2 2.2208 2.1869 4.12973 16.3927
357 1 -1.1104 3.85825 -0.0883243 17.7381
358 1 -1.1104 3.73698 -0.189037 14.9351
330 1 -1.1104 6.53379 -2.83281 17.8809
347 1 -1.1104 6.52141 -0.144399 20.7527
336 1 -1.1104 6.57669 -3.01315 14.9418
341 1 -1.1104 6.66861 -0.0715356 17.947
346 1 -1.1104 6.66964 -0.226358 15.1603
338 1 -1.1104 6.5587 2.8494 14.9718
359 1 -1.1104 3.71272 -0.0822455 20.5773
345 1 -1.1104 0.813127 -0.112587 20.3939
352 1 -1.1104 3.74781 -2.9123 20.4547
339 1 -1.1104 6.52068 2.58521 20.7123
335 1 -1.1104 1.05264 2.69605 20.4301
354 1 -1.1104 3.76076 2.74937 20.6137
9300 2 2.2208 13.5323 9.67875 21.9904
331 1 -1.1104 6.54442 2.74877 17.7647
370 2 2.2208 10.812 1.28487 16.4016
371 1 -1.1104 12.1473 -2.89016 17.9216
372 1 -1.1104 12.3033 2.76567 17.9894
373 1 -1.1104 12.0648 -2.81244 15.0807
375 1 -1.1104 12.3055 2.60158 15.0435
376 1 -1.1104 12.2842 0.0451304 17.6174
377 2 2.2208 10.8202 -1.53542 19.1969
378 2 2.2208 10.7962 4.20634 19.4278
379 1 -1.1104 12.1614 -0.26522 14.8607
381 1 -1.1104 9.41313 -2.78412 17.7373
382 1 -1.1104 9.43062 2.75741 17.8014
383 2 2.2208 7.99209 1.24899 19.159
384 1 -1.1104 9.34506 -2.98515 14.948
386 1 -1.1104 9.47462 2.6199 14.977
388 2 2.2208 8.00478 -1.54417 16.4393
389 2 2.2208 7.95133 4.20409 16.4352
390 1 -1.1104 9.55363 -0.0727535 17.8608
391 1 -1.1104 9.3692 -0.173753 15.0054
9044 2 2.2208 13.616 4.11169 16.5031
9049 2 2.2208 -0.365137 1.29415 21.8601
385 1 -1.1104 9.29378 -3.01131 20.6228
380 1 -1.1104 12.3258 -0.133834 20.3537
374 1 -1.1104 12.1221 -2.96711 20.5443
9089 2 2.2208 13.5853 -1.49408 16.4112
9050 2 2.2208 13.6309 1.37855 19.2211
402 2 2.2208 5.17576 6.8777 16.2961
403 2 2.2208 5.18351 12.3939 16.276
404 1 -1.1104 0.906304 8.52312 17.5069
406 1 -1.1104 0.832918 8.39731 14.6432
410 1 -1.1104 1.01167 5.69527 17.8217
411 1 -1.1104 1.00547 11.3205 17.6511
414 2 2.2208 5.16865 9.74391 19.0815
415 1 -1.1104 0.953714 5.65961 14.9677
417 1 -1.1104 0.754399 11.081 14.8044
423 1 -1.1104 3.69432 8.24993 17.702
424 2 2.2208 2.32985 6.98275 19.125
425 2 2.2208 2.29784 12.539 18.9312
426 1 -1.1104 3.62497 8.3026 14.8347
428 2 2.2208 2.23599 9.79737 16.2466
429 1 -1.1104 3.69738 5.34276 17.7306
430 1 -1.1104 3.81837 11.049 17.7163
431 1 -1.1104 3.68568 5.51557 14.8633
433 1 -1.1104 3.41643 11.3263 14.9622
421 1 -1.1104 6.35054 10.8776 15.0576
434 1 -1.1104 3.79334 11.507 20.361
413 1 -1.1104 6.58288 11.3376 17.7611
416 1 -1.1104 1.115 5.54811 20.558
412 1 -1.1104 6.45819 5.60335 17.7026
419 1 -1.1104 6.49354 5.6155 14.8397
408 1 -1.1104 6.53367 8.35338 14.9092
432 1 -1.1104 3.81582 5.62441 20.6332
418 1 -1.1104 0.947567 11.2589 20.5955
420 1 -1.1104 6.43487 5.51035 20.5501
407 1 -1.1104 0.955869 8.40916 20.4656
427 1 -1.1104 3.61473 8.57625 20.5553
405 1 -1.1104 6.51168 8.32057 17.7915
439 2 2.2208 10.7287 6.90344 16.3996
440 2 2.2208 10.9005 12.3859 16.6694
441 1 -1.1104 12.257 8.20228 17.8214
442 1 -1.1104 12.2172 8.32032 15.0247
444 1 -1.1104 12.2033 5.50329 17.8777
445 1 -1.1104 12.1771 10.972 18.0137
446 2 2.2208 10.8009 9.74291 19.271
447 1 -1.1104 12.1754 5.36533 15.0329
449 1 -1.1104 12.065 11.081 15.1216
451 1 -1.1104 9.49742 8.28417 17.8321
452 2 2.2208 7.9087 6.97177 19.2019
453 2 2.2208 8.01752 12.4759 19.3263
454 1 -1.1104 9.35319 8.34008 14.9462
456 2 2.2208 8.00093 9.71055 16.427
457 1 -1.1104 9.23492 5.48713 17.9241
458 1 -1.1104 9.49894 11.0085 17.7956
459 1 -1.1104 9.45365 5.4932 15.1073
461 1 -1.1104 9.30953 11.0821 14.9258
9108 1 -1.1104 11.9589 8.49033 20.7206
9120 2 2.2208 13.5367 6.98538 19.1426
450 1 -1.1104 12.1659 11.1629 20.6587
9119 2 2.2208 13.5608 9.69597 16.4163
422 1 -1.1104 6.51652 10.9507 20.5578
455 1 -1.1104 9.20394 8.3697 20.5153
462 1 -1.1104 9.32456 11.0365 20.7075
443 1 -1.1104 12.0531 5.77201 20.6371
17609 2 2.2208 13.5697 -4.33279 19.1298
8403 2 2.2208 5.17753 -4.31392 21.9505
604 1 -1.1104 9.2942 13.8737 26.312
465 1 -1.1104 0.702089 13.9013 17.706
466 1 -1.1104 0.976886 19.7646 17.4958
467 1 -1.1104 3.63712 13.9708 17.439
469 1 -1.1104 1.06805 13.9107 15.0317
471 1 -1.1104 1.03831 19.7467 14.7837
477 1 -1.1104 1.20307 16.8472 14.9445
479 1 -1.1104 3.97979 16.5278 15.5871
480 1 -1.1104 3.80937 19.4627 15.2326
481 2 2.2208 2.27432 15.5256 16.459
482 2 2.2208 2.35018 21.1393 16.2202
483 1 -1.1104 0.866113 16.7757 17.727
464 2 2.2208 5.34565 18.1946 16.0858
470 1 -1.1104 1.36383 14.1519 20.4599
475 1 -1.1104 6.33594 19.3549 20.4921
474 1 -1.1104 6.56373 19.8182 15.2094
624 1 -1.1104 9.18178 19.5889 26.2247
542 1 -1.1104 12.1721 14.0244 26.1752
493 1 -1.1104 12.1068 13.9817 20.6933
468 1 -1.1104 6.7599 17.8476 17.5324
395 2 2.2208 13.5338 18.1697 19.2708
396 2 2.2208 13.6463 15.3851 16.4116
476 1 -1.1104 7.17954 13.3731 15.5679
489 2 2.2208 10.7367 18.2855 16.6437
490 1 -1.1104 12.3152 13.8318 17.9023
491 1 -1.1104 12.0181 19.5649 17.8708
492 1 -1.1104 11.8005 13.9242 15.0868
494 1 -1.1104 12.3039 19.5251 15.0954
496 1 -1.1104 12.2847 16.7768 17.8725
497 2 2.2208 10.7817 15.4221 19.1241
498 2 2.2208 10.7295 20.9757 19.3332
499 1 -1.1104 12.1163 16.7754 15.1034
501 1 -1.1104 9.54909 13.6831 17.9843
502 1 -1.1104 9.29067 19.585 18.0218
503 2 2.2208 7.99486 18.0298 19.349
505 1 -1.1104 9.47747 19.5729 15.0972
507 2 2.2208 8.03004 21.0305 16.3728
508 1 -1.1104 9.55005 16.6569 17.8658
500 1 -1.1104 12.1929 16.6921 20.5471
366 2 2.2208 13.5039 21.0701 16.36
478 1 -1.1104 6.73698 16.6363 20.6979
333 1 -1.1104 0.987383 -2.85203 20.528
324 2 2.2208 5.26895 6.97685 27.6178
512 2 2.2208 10.7485 18.1387 22.0337
8991 2 2.2208 -0.348453 6.97499 27.5572
337 1 -1.1104 6.56064 -2.86625 20.5893
514 2 2.2208 5.10236 1.19868 22.0256
515 1 -1.1104 0.863092 -3.01008 23.3566
516 1 -1.1104 1.04443 2.76717 23.4073
519 1 -1.1104 1.05581 -2.83061 26.2139
520 1 -1.1104 1.026 2.6982 26.0549
523 1 -1.1104 0.923244 -0.0826538 23.259
525 2 2.2208 5.2481 -1.47779 24.7274
526 2 2.2208 5.31143 4.18098 24.8068
527 1 -1.1104 0.938401 -0.0401206 25.9368
529 1 -1.1104 3.75132 -3.03585 23.3549
530 1 -1.1104 4.02566 2.931 23.2759
531 2 2.2208 2.44649 1.34838 24.8067
532 1 -1.1104 3.68133 -2.96681 26.1014
533 1 -1.1104 3.87484 2.76939 26.0901
534 2 2.2208 2.43759 -1.54887 21.8925
535 2 2.2208 2.38105 4.22265 21.9522
536 1 -1.1104 3.73775 -0.115031 23.3857
537 1 -1.1104 3.87644 -0.164752 26.1257
521 1 -1.1104 6.45777 -2.76816 26.234
522 1 -1.1104 6.55448 2.67646 26.2985
517 1 -1.1104 6.55972 -2.94597 23.4461
317 2 2.2208 2.35815 -1.44855 27.5607
364 2 2.2208 13.5436 15.4419 22.1699
318 2 2.2208 2.4799 4.07072 27.5988
394 2 2.2208 7.95885 15.4158 27.701
8404 2 2.2208 7.98596 -4.21636 19.1639
392 1 -1.1104 9.34764 -0.218822 20.6369
524 1 -1.1104 6.48375 -0.121368 23.3915
528 1 -1.1104 6.64199 0.0126223 26.1386
518 1 -1.1104 6.95747 2.80918 23.5731
9295 1 -1.1104 12.0344 2.65175 20.705
387 1 -1.1104 9.17282 2.66602 20.4799
549 2 2.2208 10.6452 1.16378 21.8109
550 1 -1.1104 12.1408 -2.76905 23.2307
551 1 -1.1104 11.9854 -0.09039 23.1803
552 1 -1.1104 12.0978 -2.89465 25.9555
553 1 -1.1104 12.125 3.29789 26.3958
554 2 2.2208 10.707 -1.27452 24.7445
556 1 -1.1104 9.26272 -2.76342 23.5448
557 1 -1.1104 9.68659 2.74197 23.1248
558 2 2.2208 7.97046 1.24244 24.836
559 1 -1.1104 9.24748 -2.84401 26.2899
560 1 -1.1104 9.424 2.69268 26.0951
561 2 2.2208 7.88549 -1.52364 22.0313
562 2 2.2208 8.01598 4.11254 21.8692
563 1 -1.1104 9.2191 -0.167247 23.347
564 1 -1.1104 9.25122 0.0387779 26.3268
37 1 -1.1104 12.0432 -0.123863 26.3081
555 2 2.2208 10.7487 4.07814 24.8902
321 2 2.2208 11.0021 1.50459 27.5954
322 2 2.2208 7.99175 -1.49144 27.5433
603 2 2.2208 5.2234 12.6067 27.5766
316 2 2.2208 5.18527 1.18799 27.6273
400 2 2.2208 7.90939 21.0374 27.669
577 2 2.2208 5.21118 6.98049 21.9151
578 2 2.2208 5.19873 12.4621 21.939
579 1 -1.1104 1.06163 8.43983 23.2799
581 1 -1.1104 1.0385 8.48332 26.264
583 1 -1.1104 0.999456 5.47951 23.4806
584 1 -1.1104 1.04597 11.2958 23.3617
587 2 2.2208 5.07331 9.80582 24.8242
588 1 -1.1104 1.12767 5.49535 26.2217
589 1 -1.1104 0.89197 11.3827 26.1697
592 1 -1.1104 3.86365 8.39583 23.3021
593 2 2.2208 2.43535 7.10275 24.7037
594 2 2.2208 2.29299 12.6955 24.7687
595 1 -1.1104 3.76479 8.44921 26.2457
596 2 2.2208 2.32959 9.87067 21.9586
597 1 -1.1104 3.81942 5.7073 23.4223
598 1 -1.1104 3.79578 11.2124 23.3361
599 1 -1.1104 4.08061 5.50726 26.2377
600 1 -1.1104 3.68199 11.1247 26.0311
541 1 -1.1104 12.0585 19.4699 23.5569
575 2 2.2208 8.01083 17.9892 24.9232
9047 2 2.2208 -0.349316 -1.4965 24.7764
8406 2 2.2208 10.6658 -4.14272 16.3049
544 1 -1.1104 9.30981 16.6971 23.5534
367 2 2.2208 13.5637 18.2181 24.8281
548 2 2.2208 10.8179 15.3764 24.7842
409 1 -1.1104 6.49127 8.29405 20.4907
582 1 -1.1104 6.5555 8.45261 26.254
591 1 -1.1104 6.46281 11.216 26.1474
586 1 -1.1104 6.42885 11.0684 23.2325
580 1 -1.1104 6.71067 8.28006 23.3609
585 1 -1.1104 6.7638 5.5601 23.2614
590 1 -1.1104 6.89041 5.58433 26.2712
9233 2 2.2208 13.6905 12.4922 24.9402
460 1 -1.1104 9.26024 5.49403 20.771
605 1 -1.1104 9.41095 11.1544 26.3907
606 1 -1.1104 9.90487 5.53745 26.4531
607 1 -1.1104 9.17194 11.2399 23.5242
608 1 -1.1104 9.61032 5.64294 23.5826
609 2 2.2208 8.06728 9.76127 22.0464
610 1 -1.1104 9.40462 8.36927 26.2551
611 2 2.2208 7.93579 12.6018 24.8726
612 2 2.2208 8.12071 7.00191 24.812
613 2 2.2208 10.6017 7.06096 21.8778
614 2 2.2208 10.7419 12.5963 22.2006
615 1 -1.1104 12.3886 8.19333 23.3652
616 1 -1.1104 12.2784 8.2489 26.3959
617 1 -1.1104 12.0854 11.1923 23.4245
618 2 2.2208 10.9162 9.66189 25.0386
619 1 -1.1104 12.3444 11.1115 26.2926
620 1 -1.1104 9.52673 8.38713 23.3658
547 1 -1.1104 12.2676 16.8401 23.518
510 1 -1.1104 9.42655 16.7691 20.6774
576 1 -1.1104 6.37877 19.6192 26.1345
473 1 -1.1104 6.64112 13.8866 20.7204
472 1 -1.1104 0.995578 19.6676 20.833
360 2 2.2208 2.15593 21.0969 22.1466
361 1 -1.1104 3.74764 16.6685 23.7342
362 1 -1.1104 1.00639 17.0161 23.1671
397 1 -1.1104 3.68764 14.0032 26.1601
401 1 -1.1104 3.76115 16.7088 26.4716
435 2 2.2208 2.29397 18.1888 24.82
438 1 -1.1104 3.63901 19.4858 26.0749
448 2 2.2208 5.12787 18.1129 21.9324
463 1 -1.1104 0.826815 14.2335 23.2823
484 1 -1.1104 3.43258 16.8762 20.9366
538 1 -1.1104 0.943277 19.5643 23.6026
540 2 2.2208 5.15187 15.3598 24.9443
543 2 2.2208 5.11113 20.9521 24.7693
565 1 -1.1104 0.75804 13.9997 26.0946
566 1 -1.1104 0.921607 16.8154 26.1352
567 1 -1.1104 0.888875 19.7215 26.3631
571 2 2.2208 2.43886 15.4631 22.1895
602 1 -1.1104 3.80023 13.8364 23.124
626 1 -1.1104 3.6149 19.4498 23.3645
393 1 -1.1104 6.46365 16.616 23.5625
601 1 -1.1104 6.72013 16.7683 26.3336
545 1 -1.1104 6.49311 19.4792 23.2841
621 1 -1.1104 6.53208 14.0757 26.3063
539 1 -1.1104 6.5868 13.8986 23.4704
546 1 -1.1104 12.0725 19.6416 26.2572
9045 2 2.2208 13.5389 -1.4085 21.8921
320 2 2.2208 2.35473 15.4161 27.6625
437 2 2.2208 7.8652 20.8799 21.957
574 1 -1.1104 9.28696 19.4581 23.4978
513 1 -1.1104 12.1662 14.041 23.4053
572 1 -1.1104 12.1484 16.7536 26.4683
573 1 -1.1104 9.51326 13.9514 23.5402
399 2 2.2208 10.7618 18.2243 27.7053
398 1 -1.1104 9.46828 16.7166 26.3971
495 1 -1.1104 12.1295 19.5001 20.5965
504 1 -1.1104 9.44748 13.9087 20.7945
506 1 -1.1104 9.23883 19.6031 20.6476
314 2 2.2208 10.6652 9.70785 13.4841
625 2 2.2208 7.80678 15.3165 22.0643
568 2 2.2208 10.7023 21.0187 24.8836
569 2 2.2208 5.12169 18.346 27.5876
8990 2 2.2208 13.247 -1.58504 27.3806
623 2 2.2208 10.818 12.5461 27.6189
313 2 2.2208 7.8846 12.5475 13.6424
307 2 2.2208 10.7386 4.09466 13.7007
368 2 2.2208 13.5718 21.022 27.6736
627 2 2.2208 5.0483 23.8238 5.23618
628 2 2.2208 5.23895 29.57 5.20237
629 1 -1.1104 0.909011 25.2485 1.05362
630 1 -1.1104 0.929464 25.2367 3.75089
631 1 -1.1104 0.898193 22.3827 1.04324
632 1 -1.1104 1.04345 28.056 0.846996
633 2 2.2208 5.18445 26.794 2.30422
634 1 -1.1104 0.785655 22.3799 3.82863
635 1 -1.1104 0.91247 28.0674 3.6243
636 1 -1.1104 3.77295 25.2832 0.882872
637 2 2.2208 2.35474 23.9146 2.37246
638 2 2.2208 2.40388 29.4322 2.24948
639 1 -1.1104 3.84596 25.3067 3.77749
640 2 2.2208 2.56406 26.8106 5.17613
641 1 -1.1104 3.89442 22.5201 0.958716
642 1 -1.1104 3.79881 28.0787 0.877929
643 1 -1.1104 3.50311 22.6228 3.76445
644 1 -1.1104 3.70168 28.0419 3.50713
770 1 -1.1104 0.909496 22.4575 6.59923
651 1 -1.1104 6.68392 28.087 0.881249
648 1 -1.1104 6.63764 25.1218 0.803466
776 1 -1.1104 3.951 28.3147 6.53992
771 1 -1.1104 1.17149 28.1685 6.35027
773 1 -1.1104 6.70145 28.1585 6.52055
653 1 -1.1104 6.50681 28.1501 3.73814
649 1 -1.1104 6.72579 25.2324 3.778
775 1 -1.1104 3.70784 22.48 6.65247
769 1 -1.1104 6.50017 25.2777 6.49568
650 1 -1.1104 6.6069 22.4696 1.02123
652 1 -1.1104 6.43788 22.451 3.87966
772 1 -1.1104 6.65429 22.2787 6.58012
774 1 -1.1104 3.83566 25.3892 6.55443
768 1 -1.1104 1.04404 25.2816 6.5763
962 2 2.2208 10.6807 43.5925 13.6863
955 2 2.2208 -0.381915 32.1709 8.05439
966 2 2.2208 4.93929 46.3945 -0.431869
654 2 2.2208 10.7908 23.8543 5.19218
655 2 2.2208 10.7557 29.5339 5.09208
656 1 -1.1104 12.1235 25.2982 1.03993
657 1 -1.1104 12.233 25.3797 3.8148
658 1 -1.1104 12.2358 22.4091 1.04487
659 1 -1.1104 12.243 28.0388 1.00124
660 2 2.2208 10.7978 26.6907 2.45606
661 1 -1.1104 12.1795 22.571 3.93167
662 1 -1.1104 12.1212 28.1683 3.73612
663 1 -1.1104 9.46295 25.3638 0.841306
664 2 2.2208 7.93532 23.9295 2.47145
665 2 2.2208 7.87942 29.5961 2.39807
666 1 -1.1104 9.42733 25.3168 3.69035
667 2 2.2208 7.98405 26.6722 5.1665
668 1 -1.1104 9.31499 22.5512 1.17389
669 1 -1.1104 9.30563 28.0835 1.17189
670 1 -1.1104 9.35645 22.3852 3.84564
671 1 -1.1104 9.19006 28.1166 3.95348
803 1 -1.1104 12.2287 28.1116 6.56196
804 1 -1.1104 9.36503 25.2659 6.48558
806 1 -1.1104 9.44768 28.084 6.61205
697 2 2.2208 -0.38069 32.3847 2.1802
672 2 2.2208 13.5655 23.7788 2.49431
673 2 2.2208 13.6558 29.5569 2.30433
1030 2 2.2208 10.8295 26.6606 13.7291
957 2 2.2208 13.3908 40.726 7.95419
928 1 -1.1104 12.1573 44.985 9.56528
675 2 2.2208 5.06787 35.0419 5.27666
676 1 -1.1104 1.01881 30.9416 0.828308
677 1 -1.1104 1.0784 36.5303 0.923078
679 1 -1.1104 1.01565 30.8561 3.63478
680 1 -1.1104 0.785103 36.4077 3.79401
682 1 -1.1104 1.03829 33.7798 0.767702
683 2 2.2208 5.18653 32.3667 2.43774
684 2 2.2208 5.19594 37.8487 2.39847
685 1 -1.1104 0.962517 33.615 3.88346
687 1 -1.1104 3.80379 30.9234 1.09746
688 1 -1.1104 3.75049 36.6373 1.06464
689 2 2.2208 2.38682 35.2036 2.38965
690 1 -1.1104 3.983 30.8358 3.92866
691 1 -1.1104 3.77281 36.4491 3.7892
692 2 2.2208 2.32348 32.2797 5.23836
693 2 2.2208 2.28528 37.8206 5.21548
694 1 -1.1104 3.88995 33.7998 0.993437
695 1 -1.1104 3.76739 33.5962 3.77379
686 1 -1.1104 6.59804 33.515 3.92191
833 1 -1.1104 3.56258 33.7321 6.51957
826 1 -1.1104 1.00367 36.4869 6.54159
829 1 -1.1104 0.846918 33.7585 6.68368
678 1 -1.1104 6.67139 36.5028 1.01355
700 1 -1.1104 6.58551 31.024 3.77899
832 1 -1.1104 3.70077 36.5941 6.65694
699 1 -1.1104 6.56717 30.9962 0.95931
701 1 -1.1104 6.69124 33.8384 0.929507
681 1 -1.1104 6.69264 36.4105 3.81824
827 1 -1.1104 6.49058 30.8762 6.60292
931 1 -1.1104 12.0635 44.8784 12.3342
828 1 -1.1104 6.3461 36.711 6.51428
702 2 2.2208 10.7215 35.1582 5.15295
703 1 -1.1104 12.0745 30.9688 0.939953
704 1 -1.1104 12.1892 36.5163 0.904603
705 1 -1.1104 12.2572 30.8288 3.67099
706 1 -1.1104 12.0874 36.5124 3.68819
707 1 -1.1104 12.2657 33.7906 0.919077
708 2 2.2208 10.688 32.3353 2.25509
709 2 2.2208 10.7517 37.9542 2.33533
710 1 -1.1104 12.0949 33.8635 3.75135
711 1 -1.1104 9.32258 30.8548 0.964679
712 1 -1.1104 9.37179 36.6026 1.00975
713 2 2.2208 8.15308 35.1262 2.39306
714 1 -1.1104 9.37002 30.9112 3.65337
715 1 -1.1104 9.34694 36.5846 3.7792
716 2 2.2208 8.03583 32.2734 5.09215
717 2 2.2208 7.93613 37.9222 5.26755
718 1 -1.1104 9.39679 33.7858 0.900173
719 1 -1.1104 9.37298 33.6012 3.72501
864 1 -1.1104 9.45689 33.6084 6.52306
859 1 -1.1104 12.0099 30.8626 6.51029
861 1 -1.1104 12.1515 33.7504 6.5874
927 1 -1.1104 9.1882 42.0677 12.1619
944 2 2.2208 13.5261 32.2586 5.19056
943 2 2.2208 13.4074 37.9436 5.20142
720 2 2.2208 13.5805 35.1991 2.35969
1067 2 2.2208 5.13838 32.2383 13.5706
721 2 2.2208 5.14719 40.7899 5.30609
722 2 2.2208 5.11398 46.4247 5.39139
723 1 -1.1104 0.833066 42.1553 1.01708