ITEM: TIMESTEP
40000
ITEM: NUMBER OF ATOMS
17910
ITEM: BOX BOUNDS pp pp pp
-3.5652252258695022e-01 2.7696522522586989e+01
-4.1819035510522058e+00 3.3226190355105206e+02
-3.6318328646578096e-01 2.7703183286465933e+01
ITEM: ATOMS id type q x y z
1 2 2.2208 5.2739 1.59319 5.28709
2 1 -1.1104 0.899937 -3.02578 1.23319
3 1 -1.1104 1.0963 2.92122 1.10279
6 1 -1.1104 1.1648 -2.88448 4.03859
7 1 -1.1104 1.17975 2.64575 3.93336
10 1 -1.1104 1.08974 0.0343666 1.14182
12 2 2.2208 5.38554 -1.43373 2.54218
13 2 2.2208 5.29479 4.35358 2.54417
14 1 -1.1104 1.07463 -0.134087 3.86195
16 1 -1.1104 3.80155 -2.96476 1.04713
17 1 -1.1104 3.947 2.64381 1.1288
18 2 2.2208 2.54803 1.40643 2.47403
19 1 -1.1104 4.1014 -2.79379 3.97968
20 1 -1.1104 3.96833 2.99676 3.9436
21 2 2.2208 2.53925 -1.28675 5.29851
22 2 2.2208 2.40749 4.2293 5.19691
23 1 -1.1104 3.97101 -0.0606911 1.16752
24 1 -1.1104 3.92631 0.217055 3.88897
15 1 -1.1104 6.63735 -0.0147679 3.8615
5 1 -1.1104 6.78275 2.94324 1.12071
4 1 -1.1104 6.80187 -2.80748 1.04206
9 1 -1.1104 6.76124 2.86169 3.83392
173 1 -1.1104 4.00415 2.81053 6.62617
569 2 2.2208 5.15537 18.2173 -0.273459
8997 2 2.2208 -0.287364 4.25404 13.685
11 1 -1.1104 6.76652 0.161083 0.93664
168 1 -1.1104 6.86018 -2.83645 6.67328
169 1 -1.1104 6.77952 2.86473 6.66773
167 1 -1.1104 1.04181 2.85684 6.6925
318 2 2.2208 2.53025 4.18101 -0.364755
232 2 2.2208 8.14748 -4.14272 8.11982
8 1 -1.1104 6.83925 -2.82554 3.83285
32 2 2.2208 10.84 1.54909 5.26633
33 1 -1.1104 12.3898 -2.81751 1.0589
34 1 -1.1104 12.1217 2.84487 1.11408
35 1 -1.1104 12.3234 -2.7206 3.78931
36 1 -1.1104 12.1283 2.91221 3.86577
38 2 2.2208 10.8839 -1.42165 2.46897
39 2 2.2208 10.7492 4.41478 2.42202
40 1 -1.1104 12.2215 -0.0271632 3.8833
41 1 -1.1104 9.72692 -2.88654 1.22133
42 1 -1.1104 9.48543 2.86855 1.11775
43 2 2.2208 8.19926 1.53833 2.5539
44 1 -1.1104 9.59175 -2.82897 3.85616
45 1 -1.1104 9.53532 2.91588 4.02167
46 2 2.2208 8.20733 -1.46894 5.3414
48 1 -1.1104 9.55685 -0.0453931 1.03995
49 1 -1.1104 9.46549 0.0334631 3.78852
8662 1 -1.1104 12.5664 -0.117375 1.09956
47 2 2.2208 8.08646 4.36624 5.45721
8969 2 2.2208 13.4027 1.52607 2.62804
81 2 2.2208 10.8349 21.1082 8.10261
8967 2 2.2208 -0.226135 -4.16813 5.28187
8985 2 2.2208 -0.21353 -4.21927 10.825
323 2 2.2208 8.05026 4.13926 -0.261716
51 2 2.2208 10.9578 15.5932 8.04024
54 2 2.2208 5.21949 7.13598 5.34399
55 2 2.2208 5.46428 12.7637 5.36957
56 1 -1.1104 1.06735 8.37349 1.09254
58 1 -1.1104 1.03634 8.33944 3.899
60 1 -1.1104 1.18264 5.60287 1.05731
61 1 -1.1104 0.988985 11.193 0.99467
66 2 2.2208 5.19002 9.893 2.52176
67 1 -1.1104 0.945245 5.6406 3.82593
68 1 -1.1104 0.974202 11.2737 4.01365
71 1 -1.1104 3.68215 8.43057 1.19532
72 2 2.2208 2.48736 6.98643 2.47712
73 2 2.2208 2.56236 12.6276 2.51917
74 1 -1.1104 3.81357 8.5073 3.78029
75 2 2.2208 2.42981 9.86959 5.319
76 1 -1.1104 3.95578 5.45207 1.01365
77 1 -1.1104 3.74103 11.156 1.15821
79 1 -1.1104 3.81398 5.73546 3.90035
80 1 -1.1104 3.83003 11.3102 4.04653
62 1 -1.1104 1.00394 11.2586 6.68199
57 1 -1.1104 6.51297 8.56728 1.14111
69 1 -1.1104 6.71334 5.59634 3.88052
59 1 -1.1104 6.49817 8.40471 4.00653
236 1 -1.1104 1.13734 5.60298 6.55961
239 1 -1.1104 3.79984 5.64162 6.60727
8894 2 2.2208 -0.437622 6.94186 10.8509
63 1 -1.1104 6.67782 5.78169 1.06452
70 1 -1.1104 6.85285 11.1955 3.96954
64 1 -1.1104 6.6154 11.3867 1.12727
84 2 2.2208 10.8917 7.0764 5.41779
85 2 2.2208 11.0286 12.7077 5.21928
86 1 -1.1104 12.153 8.46738 1.1324
87 1 -1.1104 12.3521 8.61001 3.98657
88 1 -1.1104 12.0871 5.60067 0.99533
89 1 -1.1104 12.3134 11.2142 1.04653
91 2 2.2208 10.8812 9.96365 2.52366
92 1 -1.1104 12.3156 5.74319 3.90241
93 1 -1.1104 12.281 11.3526 3.85585
94 1 -1.1104 9.35201 8.45755 1.06775
95 2 2.2208 7.93645 7.10481 2.6198
96 2 2.2208 8.1842 12.7087 2.45015
97 1 -1.1104 9.40719 8.46474 3.95381
98 2 2.2208 8.07512 9.90006 5.40226
99 1 -1.1104 9.26468 5.6715 1.10897
100 1 -1.1104 9.48308 11.2516 1.13281
102 1 -1.1104 9.67963 5.71241 3.96979
103 1 -1.1104 9.4815 11.2434 3.85161
266 1 -1.1104 12.1076 5.72568 6.71918
8977 2 2.2208 -0.314803 18.3586 5.20882
90 1 -1.1104 12.3498 11.3548 6.67652
326 2 2.2208 10.6429 7.191 -0.152463
267 1 -1.1104 9.51949 8.60154 6.64021
8799 2 2.2208 13.6728 4.254 10.9179
265 1 -1.1104 12.2492 8.48579 6.75179
623 2 2.2208 10.8151 12.5235 -0.314516
8973 2 2.2208 -0.372967 12.6941 5.39443
106 2 2.2208 5.31071 18.3456 5.31464
107 1 -1.1104 1.22072 14.1451 1.03414
109 1 -1.1104 1.02055 19.7202 1.10713
113 1 -1.1104 1.06144 14.0475 4.03765
114 1 -1.1104 1.06794 19.7783 3.92371
116 1 -1.1104 1.00944 16.9483 1.17956
119 2 2.2208 5.29906 15.4355 2.59283
120 2 2.2208 5.14874 21.1426 2.58916
121 1 -1.1104 1.09975 16.9241 3.75951
123 1 -1.1104 3.97001 14.096 1.03192
125 1 -1.1104 3.98235 19.6989 1.05571
127 2 2.2208 2.56261 18.2953 2.3984
128 1 -1.1104 4.04349 14.0003 3.83841
129 1 -1.1104 3.81725 19.7652 3.86543
130 2 2.2208 2.49394 15.3827 5.36476
131 2 2.2208 2.39086 21.1468 5.37316
132 1 -1.1104 3.78608 16.8241 1.13522
134 1 -1.1104 3.94651 16.7766 3.97815
138 1 -1.1104 6.70739 19.6125 1.12587
115 1 -1.1104 6.77368 14.0938 3.94894
110 1 -1.1104 6.7545 14.0205 1.1142
122 1 -1.1104 6.73896 16.9351 3.95765
139 1 -1.1104 6.6079 19.6544 3.94836
126 1 -1.1104 4.02554 19.7377 6.73386
117 1 -1.1104 1.05451 16.7789 6.51787
124 1 -1.1104 3.99909 14.0147 6.68479
302 1 -1.1104 1.12449 19.6694 6.63109
140 1 -1.1104 6.71921 16.6822 1.25148
8983 2 2.2208 -0.404448 18.249 10.886
141 2 2.2208 10.8565 18.3903 5.39
142 1 -1.1104 12.276 14.0272 1.30137
144 1 -1.1104 12.2251 19.6519 1.05364
146 1 -1.1104 12.4187 14.2132 3.98616
147 1 -1.1104 12.2838 19.6376 3.89962
148 1 -1.1104 12.2071 16.8459 1.15168
150 2 2.2208 10.9301 15.5465 2.62929
151 2 2.2208 10.8691 21.0295 2.4037
152 1 -1.1104 12.2541 17.0563 3.96039
153 1 -1.1104 9.70729 14.0567 1.1575
155 1 -1.1104 9.48112 19.7207 1.15752
157 2 2.2208 8.18089 18.261 2.45159
158 1 -1.1104 9.56675 14.1406 3.99202
159 1 -1.1104 9.55766 19.8067 3.85767
160 2 2.2208 8.05264 15.6259 5.43537
161 2 2.2208 8.03582 21.1379 5.24109
162 1 -1.1104 9.51504 16.8165 1.2358
164 1 -1.1104 9.37189 16.8953 4.00798
156 1 -1.1104 9.42331 19.7372 6.66667
622 2 2.2208 7.99803 9.91778 -0.217345
8693 2 2.2208 13.7494 9.99323 5.31118
143 1 -1.1104 12.3365 14.2026 6.67796
170 1 -1.1104 1.16776 0.0138693 6.7162
166 1 -1.1104 1.21566 -2.78573 6.56709
171 1 -1.1104 6.66703 -0.0702845 6.6407
174 1 -1.1104 3.9953 0.135959 6.74365
135 1 -1.1104 9.48994 13.9934 9.59463
8664 2 2.2208 13.6258 4.38842 5.29567
172 1 -1.1104 4.04282 -2.75322 6.6996
175 2 2.2208 5.28537 1.42364 10.9469
176 1 -1.1104 1.20799 -2.88907 12.1903
177 1 -1.1104 1.02882 2.66006 12.2906
180 1 -1.1104 1.26399 -2.77317 9.32745
181 1 -1.1104 1.00635 3.02159 9.53935
184 1 -1.1104 0.989526 -0.0419858 12.2246
186 2 2.2208 5.35172 -1.37135 8.10925
187 2 2.2208 5.16879 4.29798 8.10495
188 1 -1.1104 1.16904 0.0387012 9.42938
190 1 -1.1104 3.99878 -2.83895 12.2815
191 1 -1.1104 3.81499 2.83196 12.4238
192 2 2.2208 2.52058 1.44056 8.15454
193 1 -1.1104 4.12285 -2.74649 9.55536
194 1 -1.1104 3.90319 2.90916 9.38845
195 2 2.2208 2.47194 -1.44432 10.8774
196 2 2.2208 2.46003 4.2772 10.8823
197 1 -1.1104 3.73541 -0.0418368 12.2815
198 1 -1.1104 3.97875 0.0542077 9.49986
189 1 -1.1104 6.70165 0.112068 9.47736
185 1 -1.1104 6.69225 0.00697544 12.1621
179 1 -1.1104 6.57606 2.78305 12.3454
183 1 -1.1104 6.57229 2.78664 9.49781
178 1 -1.1104 6.77925 -2.62499 12.2369
105 2 2.2208 8.13534 18.3272 8.16199
8299 2 2.2208 8.18467 -4.1847 2.42278
316 2 2.2208 5.24433 1.36069 -0.259725
207 1 -1.1104 12.2359 0.0644882 6.67981
208 1 -1.1104 9.74793 -2.71828 6.67767
205 1 -1.1104 12.5013 -2.76513 6.69612
206 1 -1.1104 12.2089 2.93746 6.63647
209 1 -1.1104 9.53949 3.02068 6.87098
182 1 -1.1104 6.76763 -2.8124 9.43974
199 2 2.2208 8.0504 20.9902 10.8707
297 1 -1.1104 6.84913 14.0563 12.2232
210 1 -1.1104 9.46056 0.26751 6.72453
27 1 -1.1104 12.2985 19.7101 12.4743
212 2 2.2208 10.8202 1.45358 10.9782
213 1 -1.1104 12.4994 -2.75154 12.1288
214 1 -1.1104 12.3528 2.81867 12.2773
215 1 -1.1104 12.3881 -2.90277 9.29394
216 1 -1.1104 12.1763 2.855 9.58603
217 1 -1.1104 12.3123 0.0770658 12.304
218 2 2.2208 11 -1.48372 8.19075
219 2 2.2208 10.8125 4.25046 8.23619
220 1 -1.1104 12.3504 -0.0606234 9.48007
221 1 -1.1104 9.65698 -2.79577 12.2997
222 1 -1.1104 9.39589 2.89612 12.3118
223 2 2.2208 8.02214 1.48379 8.07411
224 1 -1.1104 9.56764 -2.85891 9.55325
225 1 -1.1104 9.42901 2.91188 9.61306
226 2 2.2208 8.15879 -1.39979 10.8314
227 2 2.2208 7.96548 4.30941 10.8811
228 1 -1.1104 9.50404 0.0559711 12.201
229 1 -1.1104 9.49995 -0.179509 9.50301
509 1 -1.1104 9.57272 16.5348 12.2717
25 2 2.2208 10.7869 18.4074 11.0235
8971 2 2.2208 -0.256257 7.01823 5.32272
137 1 -1.1104 9.41003 19.7342 9.41894
234 1 -1.1104 1.16474 8.43804 6.78005
238 1 -1.1104 3.90541 8.44091 6.56896
65 1 -1.1104 6.78564 11.1973 6.8237
26 1 -1.1104 12.4615 14.0818 12.2223
237 1 -1.1104 6.58185 5.57767 6.74016
78 1 -1.1104 3.9487 11.1973 6.75763
235 1 -1.1104 6.68917 8.51571 6.76784
240 2 2.2208 5.20136 7.12068 10.9121
241 2 2.2208 5.18443 12.5915 11.0452
242 1 -1.1104 1.01461 8.45891 12.2969
244 1 -1.1104 0.943898 8.20884 9.49373
246 1 -1.1104 0.927374 5.67929 12.1871
247 1 -1.1104 1.03091 11.2125 12.2405
250 2 2.2208 5.26577 9.9915 8.17537
251 1 -1.1104 0.993288 5.58804 9.3336
252 1 -1.1104 1.01937 11.1375 9.50048
255 1 -1.1104 3.84585 8.31141 12.2247
256 2 2.2208 2.40976 6.96108 8.09073
257 2 2.2208 2.54988 12.6849 8.24349
258 1 -1.1104 3.84652 8.45247 9.39317
259 2 2.2208 2.35211 9.77445 10.9096
260 1 -1.1104 3.72876 5.67372 12.3402
261 1 -1.1104 3.78711 11.1132 12.3518
262 1 -1.1104 3.80684 5.60417 9.54044
263 1 -1.1104 3.8044 11.1804 9.58338
254 1 -1.1104 6.59793 11.3808 9.47433
310 2 2.2208 2.30443 12.5235 13.4577
248 1 -1.1104 6.27538 5.54649 12.1619
245 1 -1.1104 6.54582 8.57689 9.4521
243 1 -1.1104 6.62984 8.53758 12.3969
253 1 -1.1104 6.56378 5.76451 9.39616
8982 2 2.2208 -0.298633 15.4689 8.13728
488 2 2.2208 11.1244 15.5449 13.5256
269 1 -1.1104 9.41061 5.67591 6.77528
101 1 -1.1104 9.57379 11.3586 6.54892
8980 2 2.2208 -0.157872 -1.40374 8.00361
249 1 -1.1104 6.53604 11.3682 12.4329
8970 2 2.2208 13.5479 -1.47172 5.19431
31 1 -1.1104 12.3094 19.7743 9.50934
264 1 -1.1104 9.47714 11.1895 9.46133
268 1 -1.1104 9.32164 5.70399 9.55181
270 1 -1.1104 9.45217 11.1899 12.1681
271 1 -1.1104 9.26105 5.69387 12.4193
272 2 2.2208 8.02787 9.87766 10.7799
273 1 -1.1104 9.39131 8.4359 9.40672
274 2 2.2208 8.13847 12.7303 8.08934
275 2 2.2208 8.00129 7.14162 8.15447
276 2 2.2208 10.7857 7.09816 10.9313
277 2 2.2208 11.0113 12.4848 10.972
278 1 -1.1104 12.2549 8.40221 12.2723
279 1 -1.1104 12.3324 8.49923 9.48341
280 1 -1.1104 12.0883 5.73893 12.2867
281 1 -1.1104 12.2789 11.0627 12.3424
282 2 2.2208 10.8977 9.93631 8.08586
283 1 -1.1104 12.2604 5.61965 9.5656
284 1 -1.1104 12.3338 11.2548 9.49949
285 1 -1.1104 9.45391 8.49178 12.1361
136 2 2.2208 -0.283535 21.0315 2.46191
133 1 -1.1104 3.82777 16.832 6.94543
108 1 -1.1104 1.07954 14.1144 6.87775
111 1 -1.1104 6.68776 14.1505 6.77808
112 1 -1.1104 6.71514 19.8006 6.65367
400 2 2.2208 7.9935 21.2652 -0.251859
201 2 2.2208 2.50031 15.5511 11.0388
204 2 2.2208 2.37089 21.1789 11.06
211 1 -1.1104 3.92337 17.0569 12.3995
230 1 -1.1104 1.10403 16.9755 12.2228
231 1 -1.1104 3.77046 14.0811 9.55258
233 1 -1.1104 3.84809 16.7486 9.65316
286 1 -1.1104 3.84459 19.7922 12.3858
287 1 -1.1104 3.73147 13.89 12.3542
291 1 -1.1104 0.890141 19.6932 9.63769
292 1 -1.1104 1.03723 16.968 9.48205
293 2 2.2208 5.33404 21.2224 8.03166
294 1 -1.1104 1.08724 13.9711 9.56558
295 2 2.2208 5.15813 15.4476 8.24825
298 1 -1.1104 1.04203 19.8022 12.239
299 1 -1.1104 0.921065 14.1231 12.2668
300 2 2.2208 5.13757 18.4749 10.7563
301 1 -1.1104 3.71672 19.8253 9.50246
303 2 2.2208 2.4203 18.3572 8.07428
296 1 -1.1104 6.55304 19.4184 12.1667
118 1 -1.1104 6.58586 16.9765 6.90745
289 1 -1.1104 6.65284 16.892 9.80741
288 1 -1.1104 6.54619 19.6319 9.34488
290 1 -1.1104 6.65835 14.0617 9.49696
104 1 -1.1104 9.62499 19.9325 12.293
83 1 -1.1104 9.78416 13.837 12.8288
200 1 -1.1104 9.52751 17.0038 9.53511
50 1 -1.1104 12.3326 16.9182 12.2825
163 1 -1.1104 9.37616 16.9985 6.75123
149 1 -1.1104 12.2158 17.0414 6.7108
154 1 -1.1104 9.55111 14.1779 6.85559
145 1 -1.1104 12.211 19.7929 6.7555
8981 2 2.2208 -0.329786 1.4468 10.7706
82 1 -1.1104 12.3028 16.8455 9.43021
30 1 -1.1104 12.3993 14.1319 9.58003
165 2 2.2208 8.17766 15.4382 10.9186
9046 2 2.2208 13.75 4.25956 -0.0570855
8964 2 2.2208 13.6351 18.4225 8.06126
8962 2 2.2208 -0.238142 -1.5094 2.56582
8965 2 2.2208 -0.411099 1.27984 5.26503
8875 2 2.2208 13.6163 7.16796 8.05529
52 2 2.2208 13.5566 21.1731 11.0165
8976 2 2.2208 -0.362774 15.4502 2.5038
486 2 2.2208 5.36155 21.2459 13.6262
322 2 2.2208 8.05626 -1.30155 -0.311194
306 2 2.2208 5.3073 -1.44509 13.657
8994 2 2.2208 -0.298468 1.5072 -0.404724
8307 2 2.2208 5.27696 -4.43807 -0.412741
321 2 2.2208 10.9201 1.33276 -0.37217
9012 2 2.2208 -0.272931 12.734 -0.418163
314 2 2.2208 10.8754 9.93992 13.7138
603 2 2.2208 5.22963 12.8126 -0.31946
394 2 2.2208 8.27539 15.469 -0.219489
327 2 2.2208 5.18756 1.3673 16.4515
328 1 -1.1104 1.08886 -2.77864 17.8458
329 1 -1.1104 1.21815 2.87235 18.1184
332 1 -1.1104 1.17964 -2.80546 14.9944
334 1 -1.1104 1.00514 2.83084 15.3335
340 1 -1.1104 1.303 -0.0318715 17.9277
342 2 2.2208 5.35222 -1.45036 19.2782
343 2 2.2208 5.33525 4.30382 19.1624
344 1 -1.1104 1.04302 0.0179261 15.0189
348 1 -1.1104 3.94094 -2.75976 17.8666
349 1 -1.1104 3.92341 2.88919 17.8805
350 2 2.2208 2.59895 1.35536 19.3801
351 1 -1.1104 4.0418 -2.84676 15.0081
353 1 -1.1104 3.67099 2.60539 15.2319
355 2 2.2208 2.56792 -1.54299 16.3731
356 2 2.2208 2.51228 4.20154 16.5025
357 1 -1.1104 4.08201 0.0143653 17.9153
358 1 -1.1104 3.86667 -0.105164 15.1183
336 1 -1.1104 6.76531 -2.80012 14.9604
346 1 -1.1104 6.65098 -0.0521691 15.0582
331 1 -1.1104 6.63991 2.83411 17.9919
338 1 -1.1104 6.57617 2.95159 15.0435
341 1 -1.1104 6.76534 -0.0589694 17.9115
359 1 -1.1104 3.96772 -0.16913 20.7751
335 1 -1.1104 1.21323 2.81069 20.8304
309 2 2.2208 8.00604 1.4159 13.7783
307 2 2.2208 10.7519 4.26206 13.707
345 1 -1.1104 1.22716 0.0477694 20.8369
8403 2 2.2208 5.33128 -4.18844 22.2003
9042 2 2.2208 -0.353513 15.4589 24.8019
485 2 2.2208 2.46422 18.3617 13.7696
337 1 -1.1104 6.79577 -2.7692 20.8632
339 1 -1.1104 6.7565 3.0498 20.7646
330 1 -1.1104 6.77696 -2.81746 17.9693
370 2 2.2208 11.0019 1.42297 16.6224
371 1 -1.1104 12.152 -2.70035 17.7227
372 1 -1.1104 12.3823 2.90338 17.8441
373 1 -1.1104 12.5115 -2.57298 14.8436
375 1 -1.1104 12.2725 2.85012 15.058
376 1 -1.1104 12.3734 0.0522449 17.9416
377 2 2.2208 10.9862 -1.33285 19.3228
378 2 2.2208 10.9993 4.28086 19.3746
379 1 -1.1104 12.3689 0.0318011 15.1573
381 1 -1.1104 9.42569 -2.91766 17.6924
382 1 -1.1104 9.42658 2.88061 18.018
383 2 2.2208 8.11839 1.52282 19.3341
384 1 -1.1104 9.63831 -2.73546 14.9434
386 1 -1.1104 9.43576 2.8804 15.1068
388 2 2.2208 8.19759 -1.43993 16.3905
389 2 2.2208 8.16821 4.21548 16.4289
390 1 -1.1104 9.54158 0.0967678 17.9761
391 1 -1.1104 9.51273 0.234326 14.9861
380 1 -1.1104 12.4771 -0.0338858 20.7702
392 1 -1.1104 9.56438 -0.0536951 20.6878
9118 2 2.2208 -0.334039 1.39341 16.5069
387 1 -1.1104 9.43096 2.78397 20.7016
315 2 2.2208 8.0767 7.19626 13.8524
511 2 2.2208 10.9085 21.0477 13.9137
539 1 -1.1104 6.91002 14.0224 23.5328
374 1 -1.1104 12.2388 -2.85876 20.6224
513 1 -1.1104 12.3109 14.1029 23.6294
621 1 -1.1104 6.54334 13.9618 26.336
475 1 -1.1104 6.88235 19.5379 20.956
9048 2 2.2208 -0.168114 -4.19732 22.0445
9004 2 2.2208 13.6266 7.14078 13.8112
402 2 2.2208 5.2969 7.18314 16.3416
403 2 2.2208 5.18253 12.7761 16.5687
404 1 -1.1104 1.04323 8.4477 17.9374
406 1 -1.1104 1.0074 8.52063 15.2927
410 1 -1.1104 0.954082 5.63044 17.8932
411 1 -1.1104 1.01502 11.1902 17.9466
414 2 2.2208 5.35064 10.0553 19.2103
415 1 -1.1104 1.08521 5.6655 15.1285
417 1 -1.1104 0.932501 11.1198 14.9492
423 1 -1.1104 3.89344 8.44728 17.82
424 2 2.2208 2.41636 7.1233 19.2524
425 2 2.2208 2.53887 12.6387 19.2345
426 1 -1.1104 3.85516 8.59986 14.9719
428 2 2.2208 2.38716 9.84122 16.6044
429 1 -1.1104 3.77955 5.73704 17.8719
430 1 -1.1104 3.85206 11.1433 17.9091
431 1 -1.1104 3.87091 5.65925 15.0152
433 1 -1.1104 3.755 11.6842 15.1619
421 1 -1.1104 6.5728 11.2609 15.2123
412 1 -1.1104 6.6733 5.75686 17.8058
408 1 -1.1104 6.53589 8.53382 15.076
419 1 -1.1104 6.63283 5.82648 15.1534
427 1 -1.1104 3.82015 8.73516 20.5403
434 1 -1.1104 4.08068 11.7822 20.6437
416 1 -1.1104 1.10363 5.74601 20.7583
407 1 -1.1104 1.05908 8.68525 20.7199
418 1 -1.1104 1.22438 11.4247 20.6576
405 1 -1.1104 6.66889 8.60896 17.819
409 1 -1.1104 6.64487 8.4603 20.6822
544 1 -1.1104 9.49214 16.9907 23.5673
413 1 -1.1104 6.71836 11.5921 18.0432
439 2 2.2208 10.9063 7.05391 16.5701
440 2 2.2208 10.9218 12.6775 16.6522
441 1 -1.1104 12.1581 8.46564 18.0042
442 1 -1.1104 12.1012 8.44556 15.09
444 1 -1.1104 12.2979 5.71318 18.0847
445 1 -1.1104 12.2211 11.2841 18.0006
446 2 2.2208 10.8017 9.87056 19.3419
447 1 -1.1104 12.1387 5.64699 15.1913
449 1 -1.1104 12.2653 11.3225 15.146
451 1 -1.1104 9.48757 8.40488 17.805
452 2 2.2208 8.0779 6.98957 19.1336
453 2 2.2208 8.17436 12.765 19.5028
454 1 -1.1104 9.29117 8.90291 15.0654
456 2 2.2208 8.14741 10.071 16.4982
457 1 -1.1104 9.46257 5.55869 17.8123
458 1 -1.1104 9.45978 11.2442 18.0428
459 1 -1.1104 9.45716 5.88059 15.1907
461 1 -1.1104 9.44638 11.6345 15.1531
455 1 -1.1104 9.37484 8.40443 20.6646
9108 1 -1.1104 12.3382 8.598 20.5703
624 1 -1.1104 9.48801 19.7645 26.363
450 1 -1.1104 12.3962 11.2942 20.7326
601 1 -1.1104 6.69709 16.8572 26.5397
541 1 -1.1104 12.4327 19.7329 23.6169
9122 2 2.2208 -0.219253 -4.17893 16.3935
9086 2 2.2208 -0.363261 4.40111 24.9162
465 1 -1.1104 0.85878 13.9383 17.8207
466 1 -1.1104 0.932986 19.9578 17.7173
467 1 -1.1104 3.92828 14.1243 17.9671
469 1 -1.1104 1.4632 13.911 15.0114
471 1 -1.1104 1.03983 19.6561 15.0915
477 1 -1.1104 1.43331 16.8208 15.0976
479 1 -1.1104 4.16776 16.4061 16.2353
480 1 -1.1104 3.66007 19.4859 15.5518
481 2 2.2208 2.40036 15.2996 16.7755
482 2 2.2208 2.42581 21.2931 16.4888
483 1 -1.1104 0.952731 16.7616 17.9238
464 2 2.2208 5.38491 18.1708 16.2416
474 1 -1.1104 6.48082 19.8723 15.0608
470 1 -1.1104 1.57104 14.4646 20.5209
468 1 -1.1104 6.97464 18.8521 17.5106
604 1 -1.1104 9.41467 14.0498 26.4185
365 2 2.2208 -0.248085 21.1535 19.2139
478 1 -1.1104 7.03257 16.8875 20.7965
437 2 2.2208 8.14438 21.1318 22.1095
476 1 -1.1104 6.93397 13.9593 15.5015
489 2 2.2208 10.9575 18.3363 16.7761
490 1 -1.1104 12.3382 14.0403 17.9337
491 1 -1.1104 12.3958 19.7244 18.0639
492 1 -1.1104 12.0953 14.0888 15.116
494 1 -1.1104 12.6191 19.7003 15.3819
496 1 -1.1104 12.4538 16.8784 18.1638
497 2 2.2208 10.8569 15.4513 19.3898
498 2 2.2208 10.981 21.1867 19.3978
499 1 -1.1104 12.1522 16.8573 15.1303
501 1 -1.1104 9.51033 13.9699 17.9543
502 1 -1.1104 9.68406 19.668 18.1526
503 2 2.2208 8.26446 18.2781 19.5267
505 1 -1.1104 9.71335 19.4791 15.3566
507 2 2.2208 8.17575 21.0265 16.5883
508 1 -1.1104 9.72626 16.8905 18.1797
500 1 -1.1104 12.4429 17.0311 20.8943
8404 2 2.2208 8.12633 -4.14739 19.3475
504 1 -1.1104 9.47655 13.9789 20.8814
8367 2 2.2208 8.12655 -4.343 24.8926
354 1 -1.1104 4.01504 2.82139 20.7735
333 1 -1.1104 1.1506 -2.68295 20.6289
352 1 -1.1104 4.02526 -2.87415 20.5896
575 2 2.2208 8.20212 18.3995 25.0292
574 1 -1.1104 9.51209 19.6701 23.4527
347 1 -1.1104 6.90632 0.0897586 20.6371
548 2 2.2208 10.895 15.4762 25.021
514 2 2.2208 5.34856 1.34875 22.0198
515 1 -1.1104 1.08055 -2.78711 23.5743
516 1 -1.1104 1.2793 2.87589 23.5753
519 1 -1.1104 1.01942 -2.89801 26.5528
520 1 -1.1104 1.18953 2.95364 26.4063
523 1 -1.1104 1.22717 0.0845742 23.6094
525 2 2.2208 5.41706 -1.41356 24.9548
526 2 2.2208 5.37543 4.24086 24.9594
527 1 -1.1104 1.05714 -0.015299 26.5283
529 1 -1.1104 3.92529 -2.70088 23.4802
530 1 -1.1104 4.08636 2.99174 23.5585
531 2 2.2208 2.62884 1.54026 24.9553
532 1 -1.1104 3.89893 -2.92985 26.3893
533 1 -1.1104 3.95989 2.90695 26.4662
534 2 2.2208 2.57241 -1.38867 22.1675
535 2 2.2208 2.59239 4.32327 22.1102
536 1 -1.1104 3.98859 0.204599 23.6512
537 1 -1.1104 3.82986 0.0501057 26.3565
524 1 -1.1104 6.81538 0.0105636 23.5111
522 1 -1.1104 6.60176 2.80599 26.4619
528 1 -1.1104 6.76946 0.0139602 26.1554
517 1 -1.1104 6.7209 -2.87766 23.535
8368 2 2.2208 10.9507 -4.22346 22.145
305 2 2.2208 2.37624 1.43554 13.7034
398 1 -1.1104 9.4454 16.92 26.4233
521 1 -1.1104 6.59841 -2.72621 26.3469
518 1 -1.1104 7.05244 3.0041 23.6085
385 1 -1.1104 9.61342 -2.80023 20.7209
9295 1 -1.1104 12.2447 2.61645 20.719
549 2 2.2208 10.8916 1.35994 22.0532
550 1 -1.1104 12.2277 -2.82567 23.5162
551 1 -1.1104 12.4396 0.144735 23.4478
552 1 -1.1104 12.3128 -2.86759 26.1863
553 1 -1.1104 12.3326 3.31124 26.4151
554 2 2.2208 10.8975 -1.38699 25.0061
556 1 -1.1104 9.46704 -2.88909 23.5315
557 1 -1.1104 9.99252 2.62828 23.5386
558 2 2.2208 8.1198 1.40704 24.871
559 1 -1.1104 9.35847 -2.83947 26.4501
560 1 -1.1104 9.39348 2.89424 26.2626
561 2 2.2208 8.12164 -1.33824 22.1802
562 2 2.2208 8.20202 4.28279 22.0932
563 1 -1.1104 9.5028 -0.00320217 23.5814
564 1 -1.1104 9.47511 0.0577504 26.4352
37 1 -1.1104 12.2316 -0.091468 26.4731
555 2 2.2208 10.8562 4.23728 25.0507
9088 2 2.2208 -0.330177 4.21583 19.4203
9119 2 2.2208 13.6451 9.79362 16.6018
568 2 2.2208 10.8649 21.224 24.9127
8990 2 2.2208 13.6001 -1.5371 27.5613
420 1 -1.1104 6.82877 5.71445 20.5785
432 1 -1.1104 4.06115 5.71374 20.6414
577 2 2.2208 5.4088 7.12226 22.0297
578 2 2.2208 5.53104 12.5702 22.2289
579 1 -1.1104 1.16547 8.42179 23.4257
581 1 -1.1104 0.999856 8.38891 26.2752
583 1 -1.1104 0.957627 5.69143 23.3986
584 1 -1.1104 1.13339 11.2621 23.5961
587 2 2.2208 5.33149 9.82275 25.036
588 1 -1.1104 1.137 5.67245 26.2896
589 1 -1.1104 1.07597 11.2599 26.3425
592 1 -1.1104 3.98052 8.62767 23.5692
593 2 2.2208 2.46754 7.04401 24.9024
594 2 2.2208 2.64348 12.7572 24.7089
595 1 -1.1104 3.75744 8.56366 26.3613
596 2 2.2208 2.48251 9.88918 22.1839
597 1 -1.1104 3.63181 5.78369 23.4729
598 1 -1.1104 3.95139 11.4856 23.3664
599 1 -1.1104 3.88765 5.59657 26.3374
600 1 -1.1104 3.83285 11.4184 26.2588
580 1 -1.1104 6.74549 8.35843 23.4643
591 1 -1.1104 6.47386 11.224 26.4071
512 2 2.2208 10.9518 18.3459 22.1559
572 1 -1.1104 12.3215 16.9079 26.4759
625 2 2.2208 8.16707 15.5128 22.206
422 1 -1.1104 6.83423 11.1646 20.6115
443 1 -1.1104 12.3946 5.77394 20.897
582 1 -1.1104 6.66886 8.52996 26.4004
585 1 -1.1104 6.74807 5.62953 23.6268
590 1 -1.1104 6.85243 5.60696 26.4008
460 1 -1.1104 9.5253 5.68472 20.6483
586 1 -1.1104 6.6964 11.1452 23.6399
462 1 -1.1104 9.5567 11.2121 20.8772
605 1 -1.1104 9.35309 11.2047 26.4473
606 1 -1.1104 9.53712 5.60119 26.3272
607 1 -1.1104 9.47197 11.1383 23.6113
608 1 -1.1104 9.8562 5.49897 23.4759
609 2 2.2208 8.01492 9.81292 22.0967
610 1 -1.1104 9.41368 8.44103 26.3523
611 2 2.2208 8.02945 12.6358 25.0557
612 2 2.2208 8.11897 7.16212 24.9421
613 2 2.2208 10.9375 7.08665 22.0388
614 2 2.2208 10.9412 12.7111 22.216
615 1 -1.1104 12.4543 8.49494 23.2591
616 1 -1.1104 12.2413 8.29171 26.4308
617 1 -1.1104 12.2728 11.3898 23.4722
618 2 2.2208 11.0565 9.74778 24.9126
619 1 -1.1104 12.2367 11.1265 26.3427
620 1 -1.1104 9.57214 8.22752 23.5709
495 1 -1.1104 12.2673 19.7065 20.8342
547 1 -1.1104 12.2536 16.9498 23.6086
542 1 -1.1104 12.2182 14.0768 26.455
573 1 -1.1104 9.47023 13.8734 23.7755
473 1 -1.1104 6.72298 13.9579 20.7415
506 1 -1.1104 9.5899 19.7851 20.9042
576 1 -1.1104 6.68576 19.7492 26.4232
472 1 -1.1104 1.03947 19.6373 20.9844
360 2 2.2208 2.45974 21.3117 22.2659
361 1 -1.1104 3.91623 16.9122 23.7557
362 1 -1.1104 1.00892 16.933 23.2963
397 1 -1.1104 3.85278 14.1862 26.2037
401 1 -1.1104 3.95044 16.9024 26.4421
435 2 2.2208 2.48111 18.4205 24.869
438 1 -1.1104 3.69655 19.7546 26.3017
448 2 2.2208 5.36303 18.0843 22.0805
463 1 -1.1104 1.25409 14.0967 23.356
484 1 -1.1104 3.58413 17.301 20.9536
538 1 -1.1104 1.04196 19.7378 23.5052
540 2 2.2208 5.35183 15.6376 25.1269
543 2 2.2208 5.29689 21.117 24.9065
565 1 -1.1104 0.992957 13.9341 26.2243
566 1 -1.1104 1.23363 16.8925 26.1974
567 1 -1.1104 0.857745 19.7741 26.4157
571 2 2.2208 2.63006 15.7463 22.1335
602 1 -1.1104 4.0437 14.2401 23.0587
626 1 -1.1104 3.93545 19.5115 23.4794
545 1 -1.1104 6.59322 19.5988 23.6409
546 1 -1.1104 12.1397 19.7788 26.3074
393 1 -1.1104 6.73493 16.7936 23.6902
9120 2 2.2208 13.7371 7.02056 19.4173
493 1 -1.1104 12.2498 14.059 20.8555
510 1 -1.1104 9.68635 16.7021 20.9288
9233 2 2.2208 13.6051 12.6322 25.0608
9230 2 2.2208 -0.29367 18.3387 16.4926
304 2 2.2208 5.09938 4.19974 13.6514
9300 2 2.2208 13.6711 9.80263 21.9078
366 2 2.2208 13.7698 21.1208 16.6122
9044 2 2.2208 13.6755 4.20314 16.4334
308 2 2.2208 10.9715 -1.26039 13.6816
570 2 2.2208 2.35524 21.1377 27.7291
9011 2 2.2208 -0.143538 15.4457 13.727
9049 2 2.2208 -0.166215 1.52644 22.1941
320 2 2.2208 2.60436 15.4344 27.7097
9087 2 2.2208 -0.349777 12.5132 22.1437
9117 2 2.2208 -0.292327 -1.4042 19.2557
399 2 2.2208 10.8778 18.3597 27.8244
325 2 2.2208 2.4621 9.93251 27.7603
313 2 2.2208 7.91388 12.8048 13.8173
324 2 2.2208 5.28483 7.03655 27.7777
317 2 2.2208 2.45769 -1.35657 27.824
312 2 2.2208 2.49793 7.16985 13.6814
311 2 2.2208 5.21208 9.92245 13.7437
9232 2 2.2208 13.7572 9.5525 27.5113
627 2 2.2208 5.24232 24.0161 5.24544
628 2 2.2208 5.29844 29.6429 5.34135
629 1 -1.1104 0.990132 25.2455 1.1731
630 1 -1.1104 1.1284 25.413 4.09784
631 1 -1.1104 1.02038 22.427 1.13642
632 1 -1.1104 0.999497 28.049 1.16471
633 2 2.2208 5.28452 26.7599 2.57955
634 1 -1.1104 0.84398 22.6524 3.92728
635 1 -1.1104 1.19909 28.1601 3.94812
636 1 -1.1104 3.74482 25.5708 1.20788
637 2 2.2208 2.26186 24.0116 2.60877
638 2 2.2208 2.4879 29.7067 2.47263
639 1 -1.1104 3.87109 25.3691 3.75495
640 2 2.2208 2.51654 26.8173 5.20025
641 1 -1.1104 3.69619 22.5109 1.19898
642 1 -1.1104 3.81705 28.2596 1.11686
643 1 -1.1104 3.71238 22.7694 4.08474
644 1 -1.1104 3.84561 28.2477 4.01316
649 1 -1.1104 6.71741 25.3136 4.03227
774 1 -1.1104 3.84339 25.2807 6.60773
771 1 -1.1104 1.09733 28.1834 6.55698
650 1 -1.1104 6.5897 22.6278 1.06492
648 1 -1.1104 6.57751 25.3476 1.23391
776 1 -1.1104 4.00582 28.1897 6.74788
770 1 -1.1104 0.940136 22.4655 6.90445
769 1 -1.1104 6.64373 25.5039 6.62312
773 1 -1.1104 6.75542 28.2427 6.63508
772 1 -1.1104 6.5044 22.6588 6.6264
652 1 -1.1104 6.63121 22.369 3.83664
768 1 -1.1104 1.12885 25.3773 6.84627
1184 2 2.2208 5.37867 29.5248 -0.42695
651 1 -1.1104 6.67149 28.1133 1.03725
653 1 -1.1104 6.72063 28.1382 3.80713
654 2 2.2208 10.9237 23.9538 5.31025
655 2 2.2208 10.8623 29.5194 5.43982
656 1 -1.1104 12.3217 25.137 1.22615
657 1 -1.1104 12.3346 25.4077 3.9369
658 1 -1.1104 12.261 22.5152 1.15198
659 1 -1.1104 12.2259 28.0806 1.03663
660 2 2.2208 10.9411 26.7789 2.63096
661 1 -1.1104 12.2135 22.4817 3.99869
662 1 -1.1104 12.4459 28.2859 3.94697
663 1 -1.1104 9.50353 25.4206 1.10802
664 2 2.2208 8.11918 23.9766 2.55024
665 2 2.2208 8.16646 29.5457 2.65837
666 1 -1.1104 9.47289 25.4087 3.98213
667 2 2.2208 8.11511 26.83 5.24835
668 1 -1.1104 9.54497 22.5521 1.084
669 1 -1.1104 9.40632 28.0443 1.32947
670 1 -1.1104 9.53791 22.6065 3.95387
671 1 -1.1104 9.60521 28.2781 4.05436
806 1 -1.1104 9.50262 28.0749 6.88385
918 2 2.2208 -0.233891 40.9145 10.8734
967 2 2.2208 8.24375 43.5278 -0.375785
801 1 -1.1104 12.2863 25.3173 6.61558
802 1 -1.1104 12.1284 22.4782 6.71978
932 1 -1.1104 12.4798 39.5012 12.2977
917 2 2.2208 -0.299833 46.5134 10.9461
675 2 2.2208 5.25395 35.1332 5.3893
676 1 -1.1104 0.986723 31.0545 1.10012
677 1 -1.1104 1.07929 36.5671 1.06736
679 1 -1.1104 1.11001 30.9678 3.78461
680 1 -1.1104 1.02839 36.6685 3.83046
682 1 -1.1104 1.16984 33.8193 1.05769
683 2 2.2208 5.35623 32.386 2.42557
684 2 2.2208 5.22867 37.9181 2.61814
685 1 -1.1104 1.02469 33.841 3.9921
687 1 -1.1104 3.85705 31.0509 1.09667
688 1 -1.1104 3.93344 36.5033 1.14582
689 2 2.2208 2.35054 35.1873 2.55799
690 1 -1.1104 3.88522 31.134 3.83969
691 1 -1.1104 3.72369 36.7067 3.77717
692 2 2.2208 2.56675 32.436 5.31902
693 2 2.2208 2.51076 38.0551 5.23543
694 1 -1.1104 3.90321 33.7511 1.06702
695 1 -1.1104 3.82495 33.8117 3.92155
700 1 -1.1104 6.60476 30.9924 3.89655
681 1 -1.1104 6.58261 36.6438 4.05625
699 1 -1.1104 6.78678 30.9108 1.0837
701 1 -1.1104 6.93178 33.7648 0.993133
686 1 -1.1104 6.61161 33.7955 3.92855
827 1 -1.1104 6.62441 31.0047 6.70613
678 1 -1.1104 6.70227 36.6607 0.920235
831 1 -1.1104 3.841 30.9717 6.69117
830 1 -1.1104 6.61785 33.746 6.63159
828 1 -1.1104 6.89903 36.4374 6.66234
833 1 -1.1104 3.86615 33.8291 6.69671
829 1 -1.1104 1.14577 33.685 6.70882
1273 2 2.2208 10.9001 35.3185 -0.281374
966 2 2.2208 5.32155 46.5151 -0.429422
943 2 2.2208 13.7031 37.9419 5.1964
702 2 2.2208 10.8654 35.1134 5.35222
703 1 -1.1104 12.3023 30.8833 0.886677
704 1 -1.1104 12.3597 36.4894 1.13939
705 1 -1.1104 12.298 31.055 3.92206
706 1 -1.1104 12.1919 36.5748 4.03955
707 1 -1.1104 12.4091 33.7745 0.981278
708 2 2.2208 10.9841 32.2554 2.4018
709 2 2.2208 10.9552 37.8854 2.46952
710 1 -1.1104 12.2448 33.8613 3.94814
711 1 -1.1104 9.5916 30.7865 1.2203
712 1 -1.1104 9.59298 36.5172 1.18545
713 2 2.2208 8.08115 35.0466 2.47986
714 1 -1.1104 9.43435 31.0333 4.00684
715 1 -1.1104 9.45348 36.3817 3.8065
716 2 2.2208 8.07547 32.3744 5.36554
717 2 2.2208 8.03718 37.9924 5.35444
718 1 -1.1104 9.68262 33.6075 1.08398
719 1 -1.1104 9.48821 33.7137 3.86439
861 1 -1.1104 12.3433 33.6555 6.79329
862 1 -1.1104 9.41665 30.809 6.81608
745 2 2.2208 -0.319546 43.5827 2.5575
1213 2 2.2208 7.98179 26.7027 -0.269106
721 2 2.2208 5.283 40.922 5.27274
722 2 2.2208 5.37597 46.3041 5.21626
723 1 -1.1104 0.979303 42.1196 1.10465
725 1 -1.1104 1.24799 42.0263 3.95923
727 1 -1.1104 1.24311 39.254 1.09088
728 1 -1.1104 1.22601 44.9259 1.137
731 2 2.2208 5.4524 43.537 2.33153
732 1 -1.1104 1.0827 39.5307 3.98834
733 1 -1.1104 1.18429 45.0281 4.07483
736 1 -1.1104 3.99863 42.3961 1.03763
737 2 2.2208 2.53898 40.7438 2.47509
738 2 2.2208 2.78619 46.2937 2.49091
739 1 -1.1104 3.99401 42.1834 3.77486