ITEM: TIMESTEP
90000
ITEM: NUMBER OF ATOMS
17910
ITEM: BOX BOUNDS pp pp pp
-3.5968521061115222e-01 2.7699685210611669e+01
-4.2457681557104516e+00 3.3232576815571252e+02
-3.5236131098352091e-01 2.7692361310983785e+01
ITEM: ATOMS id type q x y z
1 2 2.2208 5.0381 1.39807 5.36946
2 1 -1.1104 1.06582 -2.81888 1.04989
3 1 -1.1104 1.04411 2.74021 0.917645
6 1 -1.1104 0.8506 -3.04162 3.73107
7 1 -1.1104 0.938598 2.71306 3.80246
10 1 -1.1104 0.709365 -0.142581 0.900975
12 2 2.2208 5.06107 -1.44015 2.37125
13 2 2.2208 5.03605 4.17782 2.39723
14 1 -1.1104 0.921706 -0.102813 3.74194
16 1 -1.1104 3.76504 -2.89343 0.990049
17 1 -1.1104 3.63442 2.66449 1.04613
18 2 2.2208 2.25508 1.30399 2.34707
19 1 -1.1104 3.70158 -2.90468 3.91172
20 1 -1.1104 3.57487 2.60683 3.99124
21 2 2.2208 2.38486 -1.41993 5.25564
22 2 2.2208 2.24564 4.01775 5.30691
23 1 -1.1104 3.5575 -0.117856 0.940392
24 1 -1.1104 3.7053 -0.0901582 3.83185
4 1 -1.1104 6.53215 -2.78299 0.916221
170 1 -1.1104 0.811613 0.00220804 6.68864
166 1 -1.1104 1.00606 -2.77416 6.51423
174 1 -1.1104 3.65759 -0.0329429 6.68295
8 1 -1.1104 6.44524 -2.71191 3.74704
9 1 -1.1104 6.38685 2.86039 3.86359
5 1 -1.1104 6.457 2.70479 1.02695
15 1 -1.1104 6.55954 -0.0758358 3.8048
168 1 -1.1104 6.60497 -2.86573 6.46373
167 1 -1.1104 0.747271 2.63953 6.70948
172 1 -1.1104 3.81573 -2.7589 6.77806
171 1 -1.1104 6.40466 -0.0534485 6.62535
173 1 -1.1104 3.64745 2.73812 6.76062
169 1 -1.1104 6.47125 2.76463 6.6571
11 1 -1.1104 6.5667 -0.0338324 1.01906
316 2 2.2208 5.16607 1.31262 -0.31567
32 2 2.2208 10.7039 1.39168 5.29886
33 1 -1.1104 11.9792 -2.96448 0.909726
34 1 -1.1104 12.1506 2.77184 1.27921
35 1 -1.1104 12.2858 -2.80171 3.7616
36 1 -1.1104 12.1201 2.69439 4.03587
38 2 2.2208 10.7685 -1.4413 2.47366
39 2 2.2208 10.6126 4.11678 2.48606
40 1 -1.1104 12.118 -0.0717762 3.99324
41 1 -1.1104 9.3271 -2.97158 1.18396
42 1 -1.1104 9.37704 2.7044 0.986635
43 2 2.2208 7.83519 1.50456 2.53473
44 1 -1.1104 9.33873 -2.84687 3.96127
45 1 -1.1104 9.11773 2.77626 3.88729
46 2 2.2208 7.96406 -1.54228 5.26487
48 1 -1.1104 9.64047 -0.147355 0.95068
49 1 -1.1104 9.29471 0.0103972 3.79666
8662 1 -1.1104 12.6394 -0.177762 1.28755
47 2 2.2208 7.85582 4.25829 5.26925
8969 2 2.2208 13.5032 1.51646 2.73997
207 1 -1.1104 12.2694 -0.070463 6.64399
205 1 -1.1104 12.2626 -2.93499 6.56489
206 1 -1.1104 12.0862 2.70558 6.55473
8664 2 2.2208 13.6135 4.21452 5.20066
210 1 -1.1104 9.49701 -0.145847 6.67423
208 1 -1.1104 9.42216 -2.89187 6.76883
209 1 -1.1104 9.22643 2.8107 6.58865
8970 2 2.2208 13.6323 -1.3648 5.22797
17515 2 2.2208 13.5117 -4.22937 2.33727
9046 2 2.2208 13.6473 4.02715 -0.154196
322 2 2.2208 8.03346 -1.31182 -0.445869
54 2 2.2208 5.06068 6.92293 5.15109
55 2 2.2208 5.12662 12.463 5.33529
56 1 -1.1104 0.821092 8.31953 0.897903
58 1 -1.1104 1.05016 8.32295 3.75888
60 1 -1.1104 1.06026 5.57726 0.925821
61 1 -1.1104 0.898011 11.136 0.835373
66 2 2.2208 5.03249 9.88697 2.37797
67 1 -1.1104 1.00143 5.5835 3.69168
68 1 -1.1104 0.842351 11.2751 3.73721
71 1 -1.1104 3.71191 8.29777 0.798606
72 2 2.2208 2.2774 6.93444 2.3705
73 2 2.2208 2.27901 12.5491 2.22093
74 1 -1.1104 3.6793 8.38902 3.58619
75 2 2.2208 2.27215 9.81756 5.24556
76 1 -1.1104 3.76248 5.46534 1.01942
77 1 -1.1104 3.57989 11.1632 0.974342
79 1 -1.1104 3.66803 5.54806 3.76247
80 1 -1.1104 3.58342 11.2166 3.83698
69 1 -1.1104 6.54105 5.57391 3.78859
239 1 -1.1104 3.53677 5.61277 6.59565
63 1 -1.1104 6.54035 5.37714 1.02057
57 1 -1.1104 6.53059 8.29538 1.04489
70 1 -1.1104 6.23313 11.2494 3.77907
59 1 -1.1104 6.49316 8.43111 3.80231
236 1 -1.1104 0.759754 5.34758 6.55001
62 1 -1.1104 0.939491 11.2425 6.57503
65 1 -1.1104 6.58671 11.185 6.66982
64 1 -1.1104 6.36647 11.166 0.882009
78 1 -1.1104 3.68244 11.0752 6.89046
324 2 2.2208 4.99534 6.88083 -0.412307
326 2 2.2208 10.6745 7.07889 -0.252277
84 2 2.2208 10.7203 7.09232 5.20799
85 2 2.2208 10.7977 12.5315 5.17062
86 1 -1.1104 12.1034 8.25695 1.12508
87 1 -1.1104 12.1273 8.27703 3.9262
88 1 -1.1104 12.1148 5.44969 0.690678
89 1 -1.1104 12.1368 11.1111 1.09857
91 2 2.2208 10.7273 9.78685 2.47263
92 1 -1.1104 12.234 5.29982 3.60089
93 1 -1.1104 12.0707 11.1459 3.7662
94 1 -1.1104 9.34286 8.46185 1.18313
95 2 2.2208 7.95585 6.93669 2.43485
96 2 2.2208 7.87689 12.5958 2.40133
97 1 -1.1104 9.26915 8.32979 3.99603
98 2 2.2208 7.76788 9.7532 5.1394
99 1 -1.1104 9.40369 5.61408 1.13073
100 1 -1.1104 9.22113 11.174 0.979624
102 1 -1.1104 9.26504 5.67834 3.93221
103 1 -1.1104 9.28262 11.1893 3.814
269 1 -1.1104 9.42115 5.61976 6.64729
265 1 -1.1104 12.1525 8.48211 6.69516
8975 2 2.2208 13.6874 6.97348 2.29384
266 1 -1.1104 12.2396 5.7176 6.5155
101 1 -1.1104 9.47209 11.2297 6.67657
267 1 -1.1104 9.29168 8.5041 6.69649
8693 2 2.2208 13.6703 9.76994 5.22145
90 1 -1.1104 12.2616 11.1841 6.64128
8974 2 2.2208 13.6107 12.6474 2.40272
106 2 2.2208 5.06435 18.2527 5.33113
107 1 -1.1104 0.829819 13.9861 0.868208
109 1 -1.1104 1.00282 19.6184 1.18901
113 1 -1.1104 0.838614 14.0246 3.71847
114 1 -1.1104 0.784873 19.5724 3.86561
116 1 -1.1104 0.922382 16.7989 0.99673
119 2 2.2208 5.09592 15.3337 2.61078
120 2 2.2208 5.04309 21.0177 2.5446
121 1 -1.1104 0.939159 16.7845 3.96971
123 1 -1.1104 3.67962 13.9511 1.00113
125 1 -1.1104 3.62161 19.5893 1.05156
127 2 2.2208 2.39205 18.17 2.44646
128 1 -1.1104 3.83254 13.9633 3.96238
129 1 -1.1104 3.6014 19.6318 4.03129
130 2 2.2208 2.26241 15.3183 5.18362
131 2 2.2208 2.13203 20.9841 5.19891
132 1 -1.1104 3.70052 16.7522 1.16345
134 1 -1.1104 3.85728 16.8174 3.92474
115 1 -1.1104 6.73006 13.8634 3.95921
302 1 -1.1104 0.722746 19.4716 6.80348
140 1 -1.1104 6.53107 16.8301 1.19429
111 1 -1.1104 6.63805 14.0189 6.707
138 1 -1.1104 6.37382 19.701 0.977574
122 1 -1.1104 6.54053 16.6492 4.02517
110 1 -1.1104 6.55419 14.0681 1.21796
124 1 -1.1104 3.54891 13.7576 6.7027
139 1 -1.1104 6.46144 19.487 3.7724
126 1 -1.1104 3.6768 19.5222 6.81108
400 2 2.2208 7.90717 20.8689 -0.438865
8741 2 2.2208 13.3874 21.0956 5.19917
8978 2 2.2208 13.503 18.2954 2.55863
141 2 2.2208 10.6365 18.2858 5.23043
142 1 -1.1104 12.1414 13.9668 1.13504
144 1 -1.1104 11.9005 19.4544 1.00161
146 1 -1.1104 12.348 14.011 3.77612
147 1 -1.1104 11.9591 19.4764 3.81612
148 1 -1.1104 12.3265 16.7927 1.25187
150 2 2.2208 10.8023 15.4048 2.48416
151 2 2.2208 10.6933 21.0589 2.35403
152 1 -1.1104 12.2184 16.765 4.00926
153 1 -1.1104 9.38769 13.979 1.03831
155 1 -1.1104 9.12474 19.4741 0.794136
157 2 2.2208 7.96373 18.2124 2.33315
158 1 -1.1104 9.42909 13.9524 3.73941
159 1 -1.1104 9.24777 19.6678 3.83504
160 2 2.2208 7.92556 15.379 5.28727
161 2 2.2208 8.00639 20.9773 5.32449
162 1 -1.1104 9.41872 16.7454 0.996544
164 1 -1.1104 9.48097 16.8649 3.92905
156 1 -1.1104 9.34028 19.584 6.6907
145 1 -1.1104 12.0854 19.4525 6.65372
143 1 -1.1104 12.344 14.0478 6.6166
118 1 -1.1104 6.46605 16.8642 6.8778
175 2 2.2208 5.13256 1.32059 10.9575
176 1 -1.1104 0.874814 -2.73099 12.2534
177 1 -1.1104 0.868301 2.69905 12.2513
180 1 -1.1104 0.958246 -2.90677 9.25381
181 1 -1.1104 0.814746 2.85046 9.53175
184 1 -1.1104 0.987815 -0.0227978 12.3231
186 2 2.2208 5.26813 -1.48674 8.11865
187 2 2.2208 5.06279 4.02302 8.12095
188 1 -1.1104 1.04995 -0.0830427 9.43307
190 1 -1.1104 3.80751 -2.77918 12.3191
191 1 -1.1104 3.72709 2.73956 12.2064
192 2 2.2208 2.35634 1.34148 8.13318
193 1 -1.1104 3.73834 -2.91665 9.49141
194 1 -1.1104 3.68435 2.6882 9.56958
195 2 2.2208 2.43832 -1.42015 10.7648
196 2 2.2208 2.2755 4.11026 10.8084
197 1 -1.1104 3.75869 0.063464 12.3739
198 1 -1.1104 3.90209 0.00463235 9.46293
183 1 -1.1104 6.52703 2.65085 9.36059
182 1 -1.1104 6.60371 -2.83027 9.36879
305 2 2.2208 2.29038 1.28515 13.6843
185 1 -1.1104 6.41162 -0.00180758 12.279
306 2 2.2208 5.23053 -1.43241 13.6591
189 1 -1.1104 6.55547 -0.0516141 9.48956
178 1 -1.1104 6.58303 -2.8614 12.0827
179 1 -1.1104 6.56005 2.7845 12.1988
8799 2 2.2208 13.3879 4.09239 10.783
308 2 2.2208 10.8408 -1.45874 13.5937
212 2 2.2208 10.7111 1.28734 10.7959
213 1 -1.1104 12.1993 -2.66876 12.2449
214 1 -1.1104 12.0493 2.66398 12.1224
215 1 -1.1104 12.1862 -2.88109 9.36714
216 1 -1.1104 12.0429 2.67005 9.411
217 1 -1.1104 12.0068 -0.00227809 12.3034
218 2 2.2208 10.7768 -1.43023 7.96843
219 2 2.2208 10.6849 4.19229 7.94168
220 1 -1.1104 12.2321 -0.0294471 9.44697
221 1 -1.1104 9.3969 -2.99104 12.2833
222 1 -1.1104 9.24424 2.74728 12.2862
223 2 2.2208 8.00451 1.21894 8.06313
224 1 -1.1104 9.48593 -2.99928 9.42627
225 1 -1.1104 9.34741 2.7451 9.46418
226 2 2.2208 8.13998 -1.54356 10.8304
227 2 2.2208 7.93506 4.13091 10.8023
228 1 -1.1104 9.22692 -0.049217 12.2303
229 1 -1.1104 9.33057 -0.1563 9.42123
8968 2 2.2208 13.7227 -1.46911 10.6953
8987 2 2.2208 13.5114 1.40811 7.98715
309 2 2.2208 7.85166 1.35926 13.563
235 1 -1.1104 6.495 8.41228 6.77578
238 1 -1.1104 3.78971 8.50545 6.53591
234 1 -1.1104 0.916668 8.34279 6.6536
237 1 -1.1104 6.56747 5.78308 6.54239
310 2 2.2208 2.14326 12.4533 13.4644
240 2 2.2208 5.22556 6.96544 10.8466
241 2 2.2208 5.16937 12.573 10.9702
242 1 -1.1104 0.897183 8.44846 12.1911
244 1 -1.1104 0.87256 8.43844 9.39693
246 1 -1.1104 1.03487 5.60763 12.0418
247 1 -1.1104 0.96917 11.031 12.13
250 2 2.2208 5.08492 9.85477 8.12133
251 1 -1.1104 0.878876 5.56784 9.30821
252 1 -1.1104 0.912751 11.2123 9.38339
255 1 -1.1104 3.70545 8.19151 12.1756
256 2 2.2208 2.32819 6.97229 8.0531
257 2 2.2208 2.27411 12.5149 8.10994
258 1 -1.1104 3.72841 8.41233 9.4329
259 2 2.2208 2.33822 9.80603 10.8971
260 1 -1.1104 3.75965 5.63707 12.2222
261 1 -1.1104 3.62701 11.1055 12.3102
262 1 -1.1104 3.65612 5.63258 9.44791
263 1 -1.1104 3.75482 11.2083 9.69064
243 1 -1.1104 6.41572 8.23101 12.3278
253 1 -1.1104 6.64173 5.52521 9.45971
245 1 -1.1104 6.61483 8.48967 9.57606
311 2 2.2208 5.13978 9.66863 13.6488
249 1 -1.1104 6.54012 11.0965 12.2703
312 2 2.2208 2.23744 6.97366 13.5539
248 1 -1.1104 6.65224 5.48559 12.3093
254 1 -1.1104 6.51012 11.197 9.45691
315 2 2.2208 7.81643 6.94539 13.7389
8875 2 2.2208 13.5692 6.97225 7.9428
313 2 2.2208 7.69243 12.6634 13.7496
8880 2 2.2208 13.5676 9.77847 10.8311
8876 2 2.2208 13.6156 12.5238 8.07087
264 1 -1.1104 9.30851 11.1022 9.53358
268 1 -1.1104 9.21411 5.51876 9.44858
270 1 -1.1104 9.36115 11.1171 12.4121
271 1 -1.1104 9.37364 5.61078 12.3828
272 2 2.2208 7.84952 9.798 10.9214
273 1 -1.1104 9.25946 8.32728 9.49239
274 2 2.2208 7.94314 12.5653 8.04672
275 2 2.2208 7.8782 7.03421 8.10073
276 2 2.2208 10.5884 7.0693 10.8617
277 2 2.2208 10.7416 12.5476 10.822
278 1 -1.1104 12.0939 8.32489 12.2315
279 1 -1.1104 12.2077 8.39472 9.47915
280 1 -1.1104 12.1712 5.53728 12.1094
281 1 -1.1104 12.1528 11.1715 12.284
282 2 2.2208 10.6531 9.7301 8.11919
283 1 -1.1104 11.9727 5.4888 9.37925
284 1 -1.1104 12.1409 10.9975 9.45125
285 1 -1.1104 9.1481 8.42927 12.2555
314 2 2.2208 10.7997 9.76248 13.6529
9113 2 2.2208 13.5761 12.5119 13.6428
108 1 -1.1104 0.761445 14.0115 6.57746
133 1 -1.1104 3.52556 16.6661 6.69181
117 1 -1.1104 0.815828 16.7702 6.68364
112 1 -1.1104 6.5262 19.5853 6.59159
201 2 2.2208 2.34917 15.291 10.8806
204 2 2.2208 2.1413 21.0921 10.8079
211 1 -1.1104 3.68164 16.9786 12.1247
230 1 -1.1104 0.90894 16.7124 12.2663
231 1 -1.1104 3.68883 13.7925 9.46787
233 1 -1.1104 3.62964 16.6445 9.43455
286 1 -1.1104 3.60671 19.6809 12.2851
287 1 -1.1104 3.46488 13.8304 12.3224
291 1 -1.1104 0.814989 19.6396 9.51449
292 1 -1.1104 0.727397 16.7597 9.56967
293 2 2.2208 5.04823 20.8245 8.11848
294 1 -1.1104 0.854774 13.9064 9.44621
295 2 2.2208 5.12953 15.2857 8.13265
298 1 -1.1104 0.82202 19.5576 12.3086
299 1 -1.1104 0.721399 13.9297 12.4367
300 2 2.2208 4.97876 18.1053 10.795
301 1 -1.1104 3.47983 19.4994 9.44374
303 2 2.2208 2.24363 18.158 8.06493
296 1 -1.1104 6.3081 19.2102 12.3065
289 1 -1.1104 6.50974 16.7605 9.79634
290 1 -1.1104 6.67349 13.9132 9.51827
288 1 -1.1104 6.41761 19.4117 9.48428
486 2 2.2208 5.11207 20.9788 13.5077
105 2 2.2208 7.96286 18.2345 8.04415
488 2 2.2208 10.7759 15.304 13.5309
199 2 2.2208 7.81379 20.8386 11.0609
52 2 2.2208 13.6095 20.9005 10.8076
82 1 -1.1104 12.1847 16.6494 9.41016
149 1 -1.1104 11.9882 16.7929 6.67939
163 1 -1.1104 9.3055 16.7643 6.6619
154 1 -1.1104 9.32676 14.0789 6.6297
8964 2 2.2208 13.504 18.2319 7.89756
200 1 -1.1104 9.17536 16.6645 9.33683
487 2 2.2208 13.4692 18.2094 13.5983
509 1 -1.1104 9.3297 16.4848 12.2891
297 1 -1.1104 6.57721 13.954 12.3586
137 1 -1.1104 9.35252 19.5073 9.48702
26 1 -1.1104 12.1456 13.973 12.1847
51 2 2.2208 10.7703 15.3804 8.01124
50 1 -1.1104 12.0489 16.6956 12.2573
27 1 -1.1104 12.1911 19.5287 12.0851
104 1 -1.1104 9.42812 19.6321 12.2162
81 2 2.2208 10.7973 20.8919 8.11902
83 1 -1.1104 9.33683 13.818 12.6138
25 2 2.2208 10.6618 18.1302 10.9429
31 1 -1.1104 12.243 19.4371 9.48223
135 1 -1.1104 9.44988 13.9942 9.46225
30 1 -1.1104 12.1453 13.7086 9.44235
165 2 2.2208 8.10531 15.2535 10.8342
8963 2 2.2208 13.4751 15.425 10.8678
511 2 2.2208 10.7931 20.8214 13.6993
327 2 2.2208 5.19832 1.5043 16.5231
328 1 -1.1104 0.944667 -2.75977 17.7376
329 1 -1.1104 0.920373 2.9331 17.873
332 1 -1.1104 1.08626 -2.78194 14.9431
334 1 -1.1104 0.898465 2.85172 15.0661
340 1 -1.1104 0.955028 0.201779 17.7959
342 2 2.2208 5.18034 -1.39191 19.2337
343 2 2.2208 5.09476 4.23313 19.2601
344 1 -1.1104 0.890826 0.0369284 15.1282
348 1 -1.1104 3.75894 -2.90517 17.947
349 1 -1.1104 3.76641 2.80236 17.8191
350 2 2.2208 2.3135 1.37019 19.2739
351 1 -1.1104 3.72535 -2.86683 15.0179
353 1 -1.1104 3.77776 2.74441 14.9915
355 2 2.2208 2.43916 -1.40076 16.3774
357 1 -1.1104 3.82497 0.0582005 17.8552
358 1 -1.1104 3.9515 -0.0613639 15.1906
356 2 2.2208 2.23679 4.26198 16.3171
331 1 -1.1104 6.55211 2.81079 17.979
341 1 -1.1104 6.66162 0.161809 17.8668
337 1 -1.1104 6.54346 -2.75492 20.525
347 1 -1.1104 6.66614 -0.072506 20.6362
354 1 -1.1104 3.7972 2.71235 20.5503
359 1 -1.1104 3.55796 -0.0484539 20.7365
333 1 -1.1104 0.963757 -3.02019 20.7337
338 1 -1.1104 6.56936 2.72146 15.021
346 1 -1.1104 6.58035 -0.0907446 14.9543
345 1 -1.1104 0.870116 -0.156158 20.629
336 1 -1.1104 6.47448 -2.82832 14.9778
330 1 -1.1104 6.51125 -2.80409 17.8305
335 1 -1.1104 0.999438 2.81367 20.6431
304 2 2.2208 5.13262 4.17863 13.5744
9050 2 2.2208 13.546 1.43916 19.3133
9089 2 2.2208 13.5499 -1.39814 16.4585
370 2 2.2208 10.8021 1.35527 16.3302
371 1 -1.1104 12.335 -2.81256 17.8078
372 1 -1.1104 12.0972 2.82879 17.7564
373 1 -1.1104 12.1929 -2.86063 14.9756
375 1 -1.1104 12.1188 2.78377 14.8155
376 1 -1.1104 12.2086 -0.0370711 17.8836
377 2 2.2208 10.7859 -1.38075 19.1122
378 2 2.2208 10.7437 4.10578 19.1196
379 1 -1.1104 12.1118 -0.125148 15.0061
381 1 -1.1104 9.33356 -2.76621 17.7055
382 1 -1.1104 9.34071 2.71106 17.7871
383 2 2.2208 8.001 1.26825 19.3234
384 1 -1.1104 9.36648 -2.80531 15.0135
386 1 -1.1104 9.49893 2.91135 14.9931
388 2 2.2208 7.88956 -1.37844 16.4643
389 2 2.2208 7.97723 4.27289 16.431
390 1 -1.1104 9.4892 -0.0529954 17.8317
391 1 -1.1104 9.37698 -0.0503405 14.9931
385 1 -1.1104 9.40817 -2.8892 20.5712
374 1 -1.1104 12.1444 -2.97462 20.6925
387 1 -1.1104 9.45835 2.74429 20.6659
380 1 -1.1104 12.3528 -0.0791757 20.5605
9044 2 2.2208 13.4839 4.16047 16.4064
8993 2 2.2208 13.5165 1.31352 13.6037
307 2 2.2208 10.791 4.13275 13.5871
402 2 2.2208 5.06803 6.95267 16.4187
403 2 2.2208 5.00403 12.5 16.4527
404 1 -1.1104 1.00895 8.3268 17.8074
406 1 -1.1104 0.780349 8.43935 14.8669
410 1 -1.1104 1.11136 5.72505 17.7293
411 1 -1.1104 0.784446 10.9819 17.744
414 2 2.2208 5.18894 9.89168 19.2564
415 1 -1.1104 0.718984 5.50264 14.9444
417 1 -1.1104 0.71465 11.2458 14.8891
423 1 -1.1104 3.74807 8.5248 17.7718
424 2 2.2208 2.30385 7.01546 19.1993
425 2 2.2208 2.18325 12.5039 19.1174
426 1 -1.1104 3.65322 8.46975 14.8793
428 2 2.2208 2.15506 9.79104 16.3333
429 1 -1.1104 3.80147 5.67794 17.7807
430 1 -1.1104 3.49056 11.2725 17.841
431 1 -1.1104 3.63074 5.44993 15.078
433 1 -1.1104 3.63407 11.297 15.0393
421 1 -1.1104 6.30855 11.1243 15.1225
418 1 -1.1104 0.926284 11.2521 20.7014
427 1 -1.1104 3.75497 8.47909 20.802
432 1 -1.1104 3.70047 5.74396 20.6258
405 1 -1.1104 6.52195 8.55663 17.8582
420 1 -1.1104 6.48796 5.53364 20.7092
408 1 -1.1104 6.4518 8.45435 15.1273
413 1 -1.1104 6.43016 11.4136 17.868
407 1 -1.1104 0.861343 8.49421 20.7289
419 1 -1.1104 6.47509 5.53231 15.1026
416 1 -1.1104 0.95268 5.56816 20.6025
412 1 -1.1104 6.48276 5.73134 17.8467
434 1 -1.1104 3.78258 11.6778 20.4434
9121 2 2.2208 13.6526 12.6026 19.3082
439 2 2.2208 10.7758 7.10128 16.4185
440 2 2.2208 10.8867 12.484 16.4983
441 1 -1.1104 12.0842 8.29519 17.6712
442 1 -1.1104 12.0678 8.36512 14.9983
444 1 -1.1104 12.1549 5.60064 17.7892
445 1 -1.1104 12.2005 11.0132 17.781
446 2 2.2208 10.6242 9.7182 19.3107
447 1 -1.1104 12.0902 5.55489 14.9931
449 1 -1.1104 12.229 11.0741 15.1207
451 1 -1.1104 9.35062 8.49387 17.8581
452 2 2.2208 7.91575 7.08256 19.2078
453 2 2.2208 8.00744 12.5674 19.3304
454 1 -1.1104 9.21886 8.55673 15.069
456 2 2.2208 7.84841 10.034 16.4987
457 1 -1.1104 9.30107 5.5758 17.9885
458 1 -1.1104 9.23593 11.145 18.0532
459 1 -1.1104 9.34022 5.70385 15.2091
461 1 -1.1104 9.24798 11.5563 15.1696
9108 1 -1.1104 11.8945 8.42388 20.5622
455 1 -1.1104 9.22333 8.44492 20.6954
9120 2 2.2208 13.3288 7.10521 19.2138
450 1 -1.1104 12.2032 11.106 20.6804
443 1 -1.1104 12.108 5.54933 20.6596
9119 2 2.2208 13.7145 9.79514 16.4354
9004 2 2.2208 13.5945 6.86145 13.6291
465 1 -1.1104 0.835079 13.8325 17.8069
466 1 -1.1104 0.761557 19.6421 17.7145
467 1 -1.1104 3.6032 13.9594 17.5989
469 1 -1.1104 1.14444 13.8792 15.0952
471 1 -1.1104 0.729425 19.5318 14.9403
477 1 -1.1104 0.8659 16.767 14.9545
479 1 -1.1104 3.78973 16.3748 15.2818
480 1 -1.1104 3.51304 19.2266 15.6324
481 2 2.2208 2.11694 15.354 16.5081
482 2 2.2208 2.0932 20.8956 16.4519
483 1 -1.1104 0.75326 16.5804 17.8039
464 2 2.2208 5.26215 17.8896 15.8479
468 1 -1.1104 6.19257 17.8471 17.8824
470 1 -1.1104 1.20726 14.3919 20.5526
474 1 -1.1104 6.21038 19.8349 15.2837
485 2 2.2208 2.28627 18.1671 13.6549
475 1 -1.1104 6.70517 19.3099 20.7528
476 1 -1.1104 6.69943 13.6427 15.5181
395 2 2.2208 13.4794 18.1835 19.206
489 2 2.2208 10.5624 18.3114 16.5915
490 1 -1.1104 12.1743 13.9166 17.7052
491 1 -1.1104 12.0274 19.5592 17.9105
492 1 -1.1104 11.8328 13.859 14.867
494 1 -1.1104 12.1488 19.3934 15.052
496 1 -1.1104 12.2105 16.6999 17.7714
497 2 2.2208 10.597 15.4267 19.0215
498 2 2.2208 10.6953 21.0522 19.2252
499 1 -1.1104 11.7895 16.6974 15.126
501 1 -1.1104 9.41769 13.8167 17.8982
502 1 -1.1104 9.01366 19.5919 17.9029
503 2 2.2208 7.8036 17.9767 19.238
505 1 -1.1104 9.44382 19.6067 15.2541
507 2 2.2208 7.88633 21.0162 16.3481
508 1 -1.1104 9.38313 16.8443 17.6706
366 2 2.2208 13.5386 20.9372 16.3835
396 2 2.2208 13.4651 15.3958 16.4812
506 1 -1.1104 9.51849 19.6803 20.7
352 1 -1.1104 3.96057 -2.76195 20.6549
339 1 -1.1104 6.56138 2.81369 20.7008
514 2 2.2208 5.09846 1.26763 21.9733
515 1 -1.1104 0.942681 -2.69025 23.6237
516 1 -1.1104 1.08574 2.85346 23.4469
519 1 -1.1104 0.95109 -2.89456 26.3147
520 1 -1.1104 0.976876 2.78531 26.1892
523 1 -1.1104 0.829684 0.0203208 23.4181
525 2 2.2208 5.22461 -1.54024 24.8186
526 2 2.2208 5.25211 4.03118 24.7398
527 1 -1.1104 0.942215 -0.0880609 26.1548
529 1 -1.1104 3.69454 -2.74846 23.543
530 1 -1.1104 3.79022 2.81181 23.2576
531 2 2.2208 2.37992 1.30593 24.843
532 1 -1.1104 3.85905 -2.95739 26.2931
533 1 -1.1104 3.69196 2.59146 26.2018
534 2 2.2208 2.25381 -1.38455 22.0791
535 2 2.2208 2.46776 4.08364 22.064
536 1 -1.1104 3.73796 -0.0113283 23.4386
537 1 -1.1104 3.636 -0.0876426 26.3363
524 1 -1.1104 6.46197 -0.129895 23.424
528 1 -1.1104 6.52279 -0.0777698 26.2095
522 1 -1.1104 6.58433 2.68847 26.208
517 1 -1.1104 6.56938 -2.84988 23.3958
317 2 2.2208 2.24894 -1.49977 27.6747
318 2 2.2208 2.37816 3.98776 27.6024
518 1 -1.1104 6.58602 2.64121 23.3612
392 1 -1.1104 9.4279 0.0627278 20.6444
9295 1 -1.1104 12.122 2.64427 20.441
8368 2 2.2208 10.8829 -4.22693 22.0072
521 1 -1.1104 6.72572 -2.79376 26.213
549 2 2.2208 10.8341 1.36667 21.9301
550 1 -1.1104 12.2494 -2.6556 23.4992
551 1 -1.1104 12.052 0.10076 23.3681
552 1 -1.1104 12.3595 -2.99899 26.222
553 1 -1.1104 11.9993 3.15272 26.4769
554 2 2.2208 10.7707 -1.24203 24.8213
556 1 -1.1104 9.38739 -2.8374 23.3299
557 1 -1.1104 9.53217 2.58258 23.4129
558 2 2.2208 7.95692 1.17249 24.7498
559 1 -1.1104 9.43358 -2.75762 26.2291
560 1 -1.1104 9.14661 2.7618 26.1903
561 2 2.2208 8.04339 -1.45013 21.8956
563 1 -1.1104 9.22252 -0.14038 23.3462
564 1 -1.1104 9.42798 0.0629315 26.3207
37 1 -1.1104 12.2975 -0.129199 26.4529
555 2 2.2208 10.482 4.08165 25.0829
562 2 2.2208 8.0103 4.0352 22.0518
8990 2 2.2208 13.4488 -1.67241 27.6363
9045 2 2.2208 13.6336 -1.33299 22.1857
321 2 2.2208 10.9995 1.28556 27.7495
323 2 2.2208 8.00363 4.06064 27.6987
409 1 -1.1104 6.61605 8.25848 20.5599
422 1 -1.1104 6.53368 10.9517 20.7694
325 2 2.2208 2.21663 9.73368 27.5627
577 2 2.2208 5.11184 6.97514 22.0141
578 2 2.2208 5.24611 12.3828 22.1373
579 1 -1.1104 0.759675 8.13064 23.5901
581 1 -1.1104 0.815099 8.28334 26.2202
583 1 -1.1104 0.892658 5.51214 23.4949
584 1 -1.1104 0.861686 11.0803 23.4196
587 2 2.2208 5.18157 9.60906 24.9379
588 1 -1.1104 0.931917 5.5199 26.1686
589 1 -1.1104 0.849387 11.0736 26.1025
592 1 -1.1104 3.67289 8.39899 23.6144
593 2 2.2208 2.28589 6.88117 25.0181
594 2 2.2208 2.33269 12.4142 24.7381
595 1 -1.1104 3.62501 8.20943 26.2874
596 2 2.2208 2.23066 9.64608 22.1526
597 1 -1.1104 3.75305 5.72081 23.5055
598 1 -1.1104 3.78384 11.0838 23.3604
599 1 -1.1104 3.68602 5.45673 26.144
600 1 -1.1104 3.71884 11.095 26.1998
582 1 -1.1104 6.4697 8.25292 26.2816
591 1 -1.1104 6.48498 11.0539 26.2049
580 1 -1.1104 6.42068 8.25615 23.4527
586 1 -1.1104 6.58208 10.9371 23.463
585 1 -1.1104 6.70355 5.42485 23.4389
603 2 2.2208 5.05258 12.6284 27.6729
590 1 -1.1104 6.61289 5.54384 26.1895
460 1 -1.1104 9.19038 5.53694 20.7131
9233 2 2.2208 13.5661 12.607 24.9575
9232 2 2.2208 13.3908 9.69956 27.7044
623 2 2.2208 10.7398 12.6388 27.7948
462 1 -1.1104 9.3501 11.1874 20.7488
622 2 2.2208 7.88012 9.8008 27.7347
9300 2 2.2208 13.3564 9.65156 21.9772
605 1 -1.1104 9.27332 11.0007 26.3485
606 1 -1.1104 9.39498 5.45802 26.4468
607 1 -1.1104 9.38467 10.8736 23.4442
608 1 -1.1104 9.72573 5.32619 23.3992
609 2 2.2208 7.95873 9.72027 22.0301
610 1 -1.1104 9.13152 8.21197 26.3982
611 2 2.2208 8.01221 12.3733 24.9123
612 2 2.2208 7.88524 6.85753 24.9014
613 2 2.2208 10.7646 6.89159 22.0138
614 2 2.2208 10.7692 12.4657 22.0791
615 1 -1.1104 12.1305 8.14514 23.3669
616 1 -1.1104 11.8616 8.35504 26.4378
617 1 -1.1104 12.2314 11.0715 23.5305
618 2 2.2208 10.7489 9.49324 24.9064
619 1 -1.1104 12.0885 11.2567 26.2717
620 1 -1.1104 9.19201 8.16066 23.5642
473 1 -1.1104 6.53379 13.7123 20.7054
484 1 -1.1104 3.28825 16.9514 20.9474
576 1 -1.1104 6.6954 19.4507 26.1526
539 1 -1.1104 6.70548 13.6466 23.5178
320 2 2.2208 2.27501 15.4185 27.7418
601 1 -1.1104 6.55974 16.7112 26.4895
472 1 -1.1104 0.780209 19.4852 20.6992
360 2 2.2208 2.23843 20.9754 21.904
361 1 -1.1104 3.77928 16.7841 23.6199
362 1 -1.1104 0.825693 16.696 23.192
397 1 -1.1104 3.60396 13.8545 26.1461
401 1 -1.1104 3.5949 16.7229 26.2234
435 2 2.2208 2.23279 18.1753 24.8384
438 1 -1.1104 3.82851 19.4752 26.2626
448 2 2.2208 5.09849 17.9796 22.0563
463 1 -1.1104 1.02983 13.8228 23.35
538 1 -1.1104 0.834192 19.5494 23.6086
540 2 2.2208 5.21141 15.2893 24.9809
543 2 2.2208 5.09875 20.9947 24.8315
565 1 -1.1104 0.680711 13.7532 26.1144
566 1 -1.1104 0.75016 16.6423 26.1069
567 1 -1.1104 0.981808 19.255 26.4684
571 2 2.2208 2.31794 15.4433 22.1274
602 1 -1.1104 3.82676 14.0234 23.1059
626 1 -1.1104 3.62326 19.5897 23.179
545 1 -1.1104 6.36291 19.486 23.5836
621 1 -1.1104 6.35596 13.9651 26.3352
393 1 -1.1104 6.60555 16.4638 23.5902
570 2 2.2208 2.29319 20.9851 27.6283
569 2 2.2208 5.07379 18.0994 27.595
367 2 2.2208 13.5548 18.0399 24.807
368 2 2.2208 13.5304 20.9067 27.5317
510 1 -1.1104 9.26013 16.7629 20.6007
541 1 -1.1104 12.0168 19.5265 23.4623
495 1 -1.1104 12.2827 19.4303 20.7095
493 1 -1.1104 12.1663 13.764 20.6121
513 1 -1.1104 12.1801 13.8459 23.4511
624 1 -1.1104 9.50387 19.2888 26.1789
546 1 -1.1104 12.247 19.4768 26.1644
500 1 -1.1104 12.0699 16.4984 20.4802
369 2 2.2208 13.436 20.9482 22.0224
478 1 -1.1104 6.58178 16.6717 20.8398
548 2 2.2208 10.8111 15.2234 24.8084
625 2 2.2208 7.96086 15.187 22.0118
364 2 2.2208 13.4137 15.3111 21.8735
568 2 2.2208 10.6569 20.8631 24.8225
398 1 -1.1104 9.31644 16.4738 26.0916
504 1 -1.1104 9.43987 14.0069 20.5542
575 2 2.2208 7.89841 17.9959 24.7477
574 1 -1.1104 9.21505 19.4914 23.5079
512 2 2.2208 10.7009 17.9954 21.9813
544 1 -1.1104 9.38678 16.6106 23.2832
437 2 2.2208 7.88949 20.8896 22.0296
542 1 -1.1104 12.1269 14.0968 26.4449
572 1 -1.1104 12.0839 16.7065 26.2585
604 1 -1.1104 9.35191 13.7376 26.3093
547 1 -1.1104 12.1923 16.7027 23.2304
573 1 -1.1104 9.30963 13.7213 23.4138
399 2 2.2208 10.679 18.0873 27.721
394 2 2.2208 7.90751 15.3267 27.7021
9091 2 2.2208 13.5727 15.303 27.8302
627 2 2.2208 5.09628 23.6728 5.2145
628 2 2.2208 5.09229 29.3782 5.13501
629 1 -1.1104 0.908856 25.1971 0.886682
630 1 -1.1104 0.92831 25.1559 3.55814
631 1 -1.1104 0.97174 22.2627 0.92233
632 1 -1.1104 0.875221 27.976 1.01971
633 2 2.2208 5.21023 26.5872 2.38262
634 1 -1.1104 0.843877 22.4311 3.79344
635 1 -1.1104 0.801596 27.9419 3.86581
636 1 -1.1104 3.77933 25.1543 0.992178
637 2 2.2208 2.31004 23.7467 2.29248
638 2 2.2208 2.14882 29.3973 2.29783
639 1 -1.1104 3.78626 25.2733 3.67454
640 2 2.2208 2.36764 26.5563 5.13929
641 1 -1.1104 3.76195 22.3782 1.05519
642 1 -1.1104 3.61039 28.0318 0.977145
643 1 -1.1104 3.67673 22.3623 3.83706
644 1 -1.1104 3.6635 28.0412 3.90056
651 1 -1.1104 6.53728 28.0129 0.906614
770 1 -1.1104 0.894763 22.3083 6.53988
648 1 -1.1104 6.64095 25.1546 1.04455
652 1 -1.1104 6.47674 22.4142 4.01774
649 1 -1.1104 6.47531 25.0784 3.80348
650 1 -1.1104 6.36365 22.5385 1.11466
772 1 -1.1104 6.54533 22.194 6.77246
773 1 -1.1104 6.55081 27.9115 6.82367
768 1 -1.1104 0.885006 25.2162 6.55217
769 1 -1.1104 6.38139 25.1391 6.79158
653 1 -1.1104 6.39425 28.0251 3.89918
775 1 -1.1104 3.72975 22.1802 6.51409
771 1 -1.1104 1.00148 27.9073 6.67756
674 2 2.2208 13.5419 26.5674 5.27129
654 2 2.2208 10.6691 23.7486 5.24553
655 2 2.2208 10.6978 29.3755 5.2605
656 1 -1.1104 12.0844 25.2219 0.860327
657 1 -1.1104 12.0558 25.1028 3.82855
658 1 -1.1104 12.1553 22.3214 0.874445
659 1 -1.1104 12.1648 28.0712 0.902875
660 2 2.2208 10.7425 26.5767 2.44385
661 1 -1.1104 11.9712 22.4622 3.78017
662 1 -1.1104 12.1629 28.1044 3.70149
663 1 -1.1104 9.37287 25.1058 1.19936
664 2 2.2208 7.81176 23.7491 2.50828
665 2 2.2208 7.92517 29.4477 2.34213
666 1 -1.1104 9.30959 25.1348 3.96412
667 2 2.2208 7.85159 26.5774 5.35404
668 1 -1.1104 9.15649 22.1576 1.00982
669 1 -1.1104 9.3176 28.0687 1.04574
670 1 -1.1104 9.18395 22.3111 3.82043
671 1 -1.1104 9.16282 27.8581 3.78921
803 1 -1.1104 12.0299 28.0021 6.57446
673 2 2.2208 13.6663 29.3824 2.48461
672 2 2.2208 13.5506 23.8641 2.31919
804 1 -1.1104 9.27881 25.1517 6.65588
805 1 -1.1104 9.37328 22.3622 6.54704
802 1 -1.1104 12.1189 22.3002 6.74113
806 1 -1.1104 9.41558 27.9408 6.60908
1218 2 2.2208 10.7398 29.462 -0.304755
1212 2 2.2208 10.7282 23.8047 -0.431689
675 2 2.2208 5.16911 34.9581 5.17982
676 1 -1.1104 0.873198 30.7774 0.871999
677 1 -1.1104 0.953906 36.3379 1.08036
679 1 -1.1104 0.790165 30.7359 3.81612
680 1 -1.1104 1.04149 36.28 3.81735
682 1 -1.1104 0.826781 33.4726 1.07625
683 2 2.2208 5.18832 32.1257 2.445
684 2 2.2208 5.20971 37.7991 2.39567
685 1 -1.1104 1.02616 33.6416 3.73839
687 1 -1.1104 3.59109 30.8926 1.06538
688 1 -1.1104 3.8195 36.4505 1.14711
689 2 2.2208 2.46031 34.8572 2.35523
690 1 -1.1104 3.58113 30.8042 3.858
691 1 -1.1104 3.78829 36.4079 3.86357
692 2 2.2208 2.33402 32.2083 5.21606
693 2 2.2208 2.36897 37.8027 5.23657
694 1 -1.1104 3.77339 33.6605 0.920584
695 1 -1.1104 3.77649 33.5178 3.80071
699 1 -1.1104 6.45216 30.8424 1.0706
700 1 -1.1104 6.44426 30.7578 3.79966
686 1 -1.1104 6.51918 33.6107 3.74412
681 1 -1.1104 6.41635 36.4374 3.85262
828 1 -1.1104 6.48572 36.3935 6.53852
678 1 -1.1104 6.56705 36.3471 0.975005
701 1 -1.1104 6.63485 33.6887 0.990706
825 1 -1.1104 0.928207 30.7458 6.50208
832 1 -1.1104 3.70566 36.3298 6.6487
833 1 -1.1104 3.74803 33.6533 6.62432
827 1 -1.1104 6.31812 30.8197 6.68419
943 2 2.2208 13.5679 37.7701 5.16308
702 2 2.2208 10.7405 34.9848 5.26176
703 1 -1.1104 12.2011 30.9135 1.06697
704 1 -1.1104 12.1795 36.4757 1.16057
705 1 -1.1104 12.1475 30.7591 3.90657
706 1 -1.1104 12.1818 36.316 3.83514
707 1 -1.1104 12.3187 33.6749 1.07631
708 2 2.2208 10.831 32.1952 2.38249
709 2 2.2208 10.7425 37.7624 2.42584
710 1 -1.1104 12.1175 33.508 3.79524
711 1 -1.1104 9.20782 30.7929 1.01562
712 1 -1.1104 9.35069 36.3903 1.04514
713 2 2.2208 7.94307 35.0265 2.40384
714 1 -1.1104 9.23461 30.7879 3.87892
715 1 -1.1104 9.32436 36.2055 3.91488
716 2 2.2208 7.95443 32.1192 5.21759
717 2 2.2208 8.00822 37.7449 5.13929
718 1 -1.1104 9.46923 33.609 1.13012
719 1 -1.1104 9.24721 33.4636 3.74722
944 2 2.2208 13.5273 32.0861 5.26714
1271 2 2.2208 8.01296 37.707 -0.39626
1273 2 2.2208 10.7471 34.9917 -0.295959
830 1 -1.1104 6.52515 33.4742 6.57853
859 1 -1.1104 12.0709 30.735 6.70419
864 1 -1.1104 9.33212 33.5321 6.56413
860 1 -1.1104 12.0876 36.2681 6.75197
1274 2 2.2208 13.6392 32.1953 -0.465569
1268 2 2.2208 13.5971 37.7261 -0.314273
1353 1 -1.1104 6.6782 47.5213 3.65989
1351 1 -1.1104 0.886083 47.628 3.69295
721 2 2.2208 5.22294 40.577 5.22694
722 2 2.2208 5.22034 46.1951 5.1474
723 1 -1.1104 0.955661 42.0405 0.922705
725 1 -1.1104 1.00008 42.1066 3.73459
727 1 -1.1104 0.780331 39.1994 1.03673
728 1 -1.1104 0.873539 44.6909 1.03883
731 2 2.2208 5.26051 43.3343 2.41809
732 1 -1.1104 0.967682 39.1405 3.85609
733 1 -1.1104 0.911029 44.7786 3.74563
736 1 -1.1104 3.81818 41.8194 1.12152
737 2 2.2208 2.3109 40.5968 2.4011
738 2 2.2208 2.28384 46.0084 2.32458
739 1 -1.1104 3.90727 41.9248 3.89217
740 2 2.2208 2.44551 43.474 5.14941
741 1 -1.1104 3.79983 39.2009 1.07146
742 1 -1.1104 3.78502 44.6789 1.00404
743 1 -1.1104 3.80925 39.0363 3.92519
744 1 -1.1104 3.7964 44.8269 3.79912
900 1 -1.1104 1.03604 44.7922 6.65587