ITEM: TIMESTEP
20000
ITEM: NUMBER OF ATOMS
17910
ITEM: BOX BOUNDS pp pp pp
-3.5794359140664367e-01 2.7697943591406776e+01
-4.2071806394348839e+00 3.3228718063943688e+02
-3.6089708451331853e-01 2.7700897084513798e+01
ITEM: ATOMS id type q x y z
1 2 2.2208 5.31391 1.36064 5.43092
2 1 -1.1104 0.898777 -2.83694 0.988626
3 1 -1.1104 1.14168 2.74487 0.950207
6 1 -1.1104 0.969143 -2.79142 3.88458
7 1 -1.1104 1.10569 2.77504 3.72953
10 1 -1.1104 1.13978 -0.0591496 1.1027
12 2 2.2208 5.35014 -1.33743 2.41554
13 2 2.2208 5.21017 4.06598 2.37804
14 1 -1.1104 1.07957 -0.156868 3.8577
16 1 -1.1104 3.863 -2.79509 1.0683
17 1 -1.1104 3.90196 2.76833 1.093
18 2 2.2208 2.54489 1.39322 2.34047
19 1 -1.1104 3.82252 -2.87146 3.75061
20 1 -1.1104 3.93668 2.61913 3.88936
21 2 2.2208 2.50685 -1.42178 5.22614
22 2 2.2208 2.41266 4.10669 5.27581
23 1 -1.1104 4.00586 -0.0926737 0.947652
24 1 -1.1104 3.92627 -0.0387608 3.75455
399 2 2.2208 10.8259 18.2333 -0.300287
173 1 -1.1104 3.72079 2.74002 6.81526
8300 2 2.2208 10.9092 -4.31239 10.7704
8980 2 2.2208 -0.480008 -1.30494 8.02639
174 1 -1.1104 3.94862 -0.120462 6.7951
8971 2 2.2208 -0.309911 7.09798 5.19424
8963 2 2.2208 13.6598 15.347 10.9369
8976 2 2.2208 -0.277677 15.4905 2.55351
52 2 2.2208 13.6853 20.9427 10.9746
569 2 2.2208 5.25426 18.2751 -0.278297
169 1 -1.1104 6.50618 2.80318 6.64899
5 1 -1.1104 6.6493 2.67878 1.08884
9 1 -1.1104 6.66718 2.88033 3.79954
4 1 -1.1104 6.82136 -2.86455 0.946718
8 1 -1.1104 6.7103 -2.6984 3.76549
15 1 -1.1104 6.68345 0.0294716 3.91034
11 1 -1.1104 6.74793 0.0439785 1.11771
32 2 2.2208 10.8798 1.49154 5.20093
33 1 -1.1104 12.1469 -2.84153 1.09096
34 1 -1.1104 12.0074 2.67368 1.13442
35 1 -1.1104 12.1905 -2.86833 3.77554
36 1 -1.1104 12.3044 2.85788 3.87739
38 2 2.2208 10.757 -1.48116 2.52872
39 2 2.2208 10.7473 4.06088 2.44909
40 1 -1.1104 12.1986 -0.0658152 3.73885
41 1 -1.1104 9.51678 -2.91614 1.07066
42 1 -1.1104 9.3761 2.88574 0.983816
43 2 2.2208 8.08413 1.39649 2.48181
44 1 -1.1104 9.31811 -2.88109 3.94667
45 1 -1.1104 9.42788 2.89152 3.79541
46 2 2.2208 8.04992 -1.36036 5.43923
47 2 2.2208 8.08438 4.17197 5.21953
48 1 -1.1104 9.56331 -0.0402183 0.920668
49 1 -1.1104 9.52775 0.00522652 3.83782
8662 1 -1.1104 12.3774 -0.0225426 0.908666
168 1 -1.1104 6.56984 -2.98429 6.51016
209 1 -1.1104 9.39519 2.73053 6.59983
8741 2 2.2208 13.7429 20.9946 5.23268
205 1 -1.1104 12.2551 -2.74127 6.60762
171 1 -1.1104 6.65862 -0.069157 6.66416
8983 2 2.2208 -0.402995 18.1278 10.9101
8962 2 2.2208 -0.386499 -1.45775 2.40609
8876 2 2.2208 13.5314 12.545 8.12664
311 2 2.2208 5.18463 9.77935 13.6402
54 2 2.2208 5.10188 7.00222 5.20942
55 2 2.2208 5.22381 12.6373 5.14105
56 1 -1.1104 1.13274 8.37981 1.00499
58 1 -1.1104 1.02059 8.45754 3.90715
60 1 -1.1104 1.0586 5.49109 0.903828
61 1 -1.1104 1.0488 11.0973 1.05052
66 2 2.2208 5.28146 9.78237 2.3262
67 1 -1.1104 1.00657 5.53342 3.86193
68 1 -1.1104 0.996661 11.3307 3.97089
71 1 -1.1104 3.89408 8.17967 1.04555
72 2 2.2208 2.56807 6.8133 2.43988
73 2 2.2208 2.39013 12.5563 2.35655
74 1 -1.1104 3.76776 8.25673 3.80825
75 2 2.2208 2.36349 9.76574 5.23824
76 1 -1.1104 3.84525 5.3679 0.785473
77 1 -1.1104 3.85097 11.0123 0.901005
79 1 -1.1104 3.87567 5.47969 3.68831
80 1 -1.1104 3.86365 11.1434 3.89878
8987 2 2.2208 13.6876 1.36377 7.92242
8762 2 2.2208 13.7454 15.4436 5.29673
64 1 -1.1104 6.63879 11.1013 1.11319
236 1 -1.1104 1.07889 5.58817 6.596
234 1 -1.1104 1.04093 8.3389 6.68678
313 2 2.2208 7.75793 12.5544 13.7052
104 1 -1.1104 9.63115 19.7731 12.0917
199 2 2.2208 8.20935 21.0659 10.8108
59 1 -1.1104 6.47229 8.31462 3.82218
57 1 -1.1104 6.65379 8.31918 0.845122
70 1 -1.1104 6.66073 11.1656 3.89605
69 1 -1.1104 6.66789 5.63818 3.83717
63 1 -1.1104 6.68928 5.501 0.764752
84 2 2.2208 10.7799 6.93544 5.18702
85 2 2.2208 10.9008 12.5956 5.19837
86 1 -1.1104 12.3098 8.22049 1.21403
87 1 -1.1104 12.1559 8.41634 3.79034
88 1 -1.1104 12.145 5.42393 0.594207
89 1 -1.1104 12.3061 11.0596 0.938839
91 2 2.2208 10.8487 9.84766 2.31686
92 1 -1.1104 12.3433 5.57656 3.71536
93 1 -1.1104 12.2121 11.263 3.84932
94 1 -1.1104 9.40003 8.45821 1.03985
95 2 2.2208 7.88068 6.93121 2.29728
96 2 2.2208 8.01186 12.6215 2.44803
97 1 -1.1104 9.37982 8.39054 3.75716
98 2 2.2208 8.17112 9.7321 5.14737
99 1 -1.1104 9.45674 5.69548 1.12899
100 1 -1.1104 9.41271 11.3008 0.96111
102 1 -1.1104 9.39863 5.60264 3.82301
103 1 -1.1104 9.41225 11.1503 3.73897
326 2 2.2208 10.8248 7.1424 -0.251827
65 1 -1.1104 6.63091 11.2257 6.57753
267 1 -1.1104 9.61115 8.32485 6.59368
25 2 2.2208 10.8374 18.1629 10.8568
266 1 -1.1104 12.1061 5.55372 6.56451
269 1 -1.1104 9.33688 5.49761 6.69693
265 1 -1.1104 12.2913 8.25381 6.54503
30 1 -1.1104 12.3364 14.0876 9.50472
511 2 2.2208 10.7619 21.0261 13.7159
106 2 2.2208 5.34629 18.118 5.43864
107 1 -1.1104 0.908773 14.0976 1.08015
109 1 -1.1104 1.04697 19.5696 1.09155
113 1 -1.1104 1.0709 14.0449 4.02521
114 1 -1.1104 0.948273 19.7365 3.89246
116 1 -1.1104 1.00116 16.8939 1.07931
119 2 2.2208 5.30851 15.3507 2.50428
120 2 2.2208 5.19958 20.8741 2.4157
121 1 -1.1104 1.1421 16.883 3.9941
123 1 -1.1104 3.68714 13.9488 0.792515
125 1 -1.1104 3.94444 19.5439 1.06843
127 2 2.2208 2.30549 18.2579 2.48282
128 1 -1.1104 3.92192 13.9981 3.53634
129 1 -1.1104 3.7827 19.4998 3.96716
130 2 2.2208 2.488 15.3653 5.43892
131 2 2.2208 2.51412 20.8769 5.19297
132 1 -1.1104 3.78281 16.8032 1.1937
134 1 -1.1104 4.02937 16.6122 4.05401
126 1 -1.1104 3.91248 19.5596 6.61091
115 1 -1.1104 6.61765 13.9329 3.7409
124 1 -1.1104 3.83167 13.9701 6.66479
122 1 -1.1104 6.60089 16.6993 3.93659
290 1 -1.1104 6.53439 14.0597 9.32849
139 1 -1.1104 6.74425 19.573 3.93761
163 1 -1.1104 9.48094 16.6918 6.7066
140 1 -1.1104 6.70097 16.8375 1.21503
138 1 -1.1104 6.62178 19.5961 1.33211
110 1 -1.1104 6.67141 13.8688 1.06479
141 2 2.2208 10.9358 18.1338 5.29597
142 1 -1.1104 12.3666 13.9769 0.929196
144 1 -1.1104 12.1469 19.5861 1.06196
146 1 -1.1104 12.2114 13.9795 3.80134
147 1 -1.1104 12.3735 19.5741 3.8021
148 1 -1.1104 12.2201 16.8982 1.00305
150 2 2.2208 10.9232 15.4114 2.43908
151 2 2.2208 10.8602 20.9948 2.34945
152 1 -1.1104 12.2958 16.7556 3.91572
153 1 -1.1104 9.53137 14.0298 1.02277
155 1 -1.1104 9.4959 19.5532 1.1219
157 2 2.2208 8.07546 18.2578 2.53174
158 1 -1.1104 9.50857 13.9511 3.74682
159 1 -1.1104 9.5641 19.6039 4.03684
160 2 2.2208 8.0903 15.2183 5.27582
161 2 2.2208 8.08754 21.0769 5.29555
162 1 -1.1104 9.39984 16.8116 1.06908
164 1 -1.1104 9.55928 16.8123 3.89075
145 1 -1.1104 12.4474 19.4593 6.48272
112 1 -1.1104 6.68065 19.5674 6.71307
156 1 -1.1104 9.44447 19.5608 6.80406
143 1 -1.1104 12.131 13.862 6.699
111 1 -1.1104 6.6137 13.9054 6.60394
149 1 -1.1104 12.2837 16.6907 6.83774
172 1 -1.1104 3.73676 -2.94972 6.73981
170 1 -1.1104 1.0079 -0.0885321 6.53885
167 1 -1.1104 1.05079 2.85738 6.59641
166 1 -1.1104 0.9807 -2.88249 6.77837
175 2 2.2208 5.23763 1.43854 10.8496
176 1 -1.1104 0.969615 -2.8056 12.2434
177 1 -1.1104 1.16116 2.73017 12.1433
180 1 -1.1104 1.02974 -2.70956 9.442
181 1 -1.1104 1.08679 2.74309 9.42797
184 1 -1.1104 1.13096 0.0180957 12.1888
186 2 2.2208 5.27203 -1.47293 8.05605
187 2 2.2208 5.19474 4.30557 8.0489
188 1 -1.1104 1.0299 0.091563 9.42663
190 1 -1.1104 3.78965 -2.85697 12.1233
191 1 -1.1104 3.84657 2.89709 12.2016
192 2 2.2208 2.43344 1.3699 7.98251
193 1 -1.1104 3.78654 -2.82139 9.54727
194 1 -1.1104 3.84879 2.66522 9.4302
195 2 2.2208 2.39706 -1.37719 10.7845
196 2 2.2208 2.39846 4.13979 10.8362
197 1 -1.1104 3.99568 0.0713171 12.251
198 1 -1.1104 3.76645 -0.154864 9.48037
8893 2 2.2208 -0.422592 9.80037 8.0773
82 1 -1.1104 12.188 16.7597 9.69964
165 2 2.2208 8.01157 15.2346 10.9131
105 2 2.2208 8.16709 18.2334 8.12472
288 1 -1.1104 6.79155 19.5677 9.42643
304 2 2.2208 5.22498 4.1704 13.7102
208 1 -1.1104 9.40989 -2.8144 6.79031
210 1 -1.1104 9.45964 -0.0347617 6.71266
81 2 2.2208 10.9199 21.0094 7.94005
183 1 -1.1104 6.67569 2.89823 9.48222
185 1 -1.1104 6.69523 -0.0380988 12.2995
179 1 -1.1104 6.66402 2.89 12.3093
189 1 -1.1104 6.65144 0.0382422 9.5189
178 1 -1.1104 6.60396 -2.87526 12.2567
207 1 -1.1104 12.3345 0.247648 6.54553
182 1 -1.1104 6.64175 -2.84142 9.45019
206 1 -1.1104 12.2525 2.91826 6.56525
212 2 2.2208 10.9603 1.45793 10.7918
213 1 -1.1104 12.2876 -2.99578 12.2631
214 1 -1.1104 12.2944 2.74965 12.2866
215 1 -1.1104 12.2123 -2.81907 9.55604
216 1 -1.1104 12.3157 2.78638 9.44631
217 1 -1.1104 12.5005 -0.0233725 12.1026
218 2 2.2208 10.9167 -1.40215 8.05413
219 2 2.2208 10.7952 4.1629 8.02234
220 1 -1.1104 12.2656 0.0660592 9.34639
221 1 -1.1104 9.43865 -2.71503 12.3076
222 1 -1.1104 9.44143 2.79642 12.2005
223 2 2.2208 7.97864 1.41835 8.19272
224 1 -1.1104 9.38354 -2.7949 9.58968
225 1 -1.1104 9.50924 2.79008 9.55479
226 2 2.2208 8.02227 -1.36452 10.7695
227 2 2.2208 8.11526 4.29489 10.9723
228 1 -1.1104 9.61493 0.0329742 12.2477
229 1 -1.1104 9.43907 -0.0357713 9.40742
8979 2 2.2208 -0.310838 4.24591 8.11668
239 1 -1.1104 3.69449 5.5581 6.72103
237 1 -1.1104 6.7448 5.53945 6.71199
27 1 -1.1104 12.3118 19.511 12.1799
238 1 -1.1104 3.91451 8.42157 6.67779
62 1 -1.1104 0.920113 11.0841 6.71592
78 1 -1.1104 3.76822 11.1818 6.68796
240 2 2.2208 5.27156 7.03692 10.9362
241 2 2.2208 5.18284 12.5028 10.9196
242 1 -1.1104 0.934709 8.23253 12.37
244 1 -1.1104 0.843348 8.43048 9.46083
246 1 -1.1104 0.905509 5.46547 12.1352
247 1 -1.1104 0.907367 11.084 12.2299
250 2 2.2208 5.29116 9.77152 7.98965
251 1 -1.1104 1.14578 5.65893 9.33447
252 1 -1.1104 1.17914 11.0115 9.44915
255 1 -1.1104 3.76497 8.2182 12.2147
256 2 2.2208 2.53811 7.0692 8.00149
257 2 2.2208 2.51337 12.5939 8.18389
258 1 -1.1104 3.91605 8.47614 9.57234
259 2 2.2208 2.49873 9.69948 10.89
260 1 -1.1104 3.63946 5.57911 12.2013
261 1 -1.1104 3.7502 11.0178 12.3048
262 1 -1.1104 3.99137 5.55498 9.47633
263 1 -1.1104 4.03763 11.3087 9.35396
310 2 2.2208 2.22927 12.516 13.5637
8997 2 2.2208 -0.336614 4.13543 13.627
249 1 -1.1104 6.5722 11.0738 12.2129
315 2 2.2208 8.07459 7.0913 13.7372
235 1 -1.1104 6.6695 8.3103 6.67759
101 1 -1.1104 9.51976 11.067 6.56882
26 1 -1.1104 12.252 13.9749 12.1751
243 1 -1.1104 6.58956 8.46749 12.3334
253 1 -1.1104 6.70502 5.59326 9.54676
90 1 -1.1104 12.3748 11.1402 6.72018
245 1 -1.1104 6.70148 8.23038 9.38337
254 1 -1.1104 6.68363 11.042 9.46236
248 1 -1.1104 6.74857 5.7367 12.3133
264 1 -1.1104 9.37925 11.1769 9.45011
268 1 -1.1104 9.45821 5.56747 9.43859
270 1 -1.1104 9.43251 11.14 12.1897
271 1 -1.1104 9.61019 5.51215 12.405
272 2 2.2208 8.03248 9.68726 10.8382
273 1 -1.1104 9.48864 8.25312 9.35966
274 2 2.2208 8.00334 12.4992 7.99815
275 2 2.2208 8.06604 7.00319 8.0143
276 2 2.2208 10.9931 7.0701 10.6961
277 2 2.2208 10.7164 12.4839 10.9035
278 1 -1.1104 12.2252 8.48879 12.3529
279 1 -1.1104 12.3544 8.50715 9.36799
280 1 -1.1104 12.4303 5.68133 12.0632
281 1 -1.1104 12.2126 11.1673 12.271
282 2 2.2208 10.9026 9.76655 7.97256
283 1 -1.1104 12.2678 5.60687 9.38563
284 1 -1.1104 12.0389 11.2098 9.62838
285 1 -1.1104 9.29665 8.24002 12.075
200 1 -1.1104 9.35878 16.6935 9.50633
8981 2 2.2208 -0.309157 1.36959 10.8912
302 1 -1.1104 0.952999 19.4472 6.70472
133 1 -1.1104 3.95749 16.7564 6.77623
8975 2 2.2208 13.7161 6.98237 2.50069
135 1 -1.1104 9.28727 13.7835 9.56987
296 1 -1.1104 6.66004 19.7445 12.2015
289 1 -1.1104 6.45477 16.678 9.90893
117 1 -1.1104 1.04011 16.7421 6.68789
108 1 -1.1104 0.817529 13.8284 6.77945
201 2 2.2208 2.60308 15.381 11.0845
204 2 2.2208 2.43514 21.1927 10.9053
211 1 -1.1104 3.83952 16.9952 12.3264
230 1 -1.1104 1.10405 16.6063 12.3241
231 1 -1.1104 3.74912 13.9864 9.64984
233 1 -1.1104 3.80538 16.9493 9.4778
286 1 -1.1104 3.76305 19.717 12.3183
287 1 -1.1104 3.6549 13.8513 12.5838
291 1 -1.1104 0.98257 19.69 9.51315
292 1 -1.1104 1.11684 16.8868 9.44999
293 2 2.2208 5.29717 21.0554 8.04793
294 1 -1.1104 1.00671 13.9479 9.57325
295 2 2.2208 5.20782 15.3691 8.24814
298 1 -1.1104 0.946757 19.518 12.267
299 1 -1.1104 0.893778 13.941 12.2355
300 2 2.2208 5.2347 18.3126 10.9594
301 1 -1.1104 3.76584 19.781 9.45222
303 2 2.2208 2.49502 18.3063 8.1033
51 2 2.2208 10.8548 15.2252 8.05661
297 1 -1.1104 6.68532 14.0386 12.263
154 1 -1.1104 9.43949 13.8244 6.69679
488 2 2.2208 10.9408 15.4294 13.5822
509 1 -1.1104 9.34943 16.5318 12.2357
83 1 -1.1104 9.51159 13.8692 12.7136
118 1 -1.1104 6.71004 16.7224 6.93231
50 1 -1.1104 12.2099 16.7427 12.5349
137 1 -1.1104 9.69963 19.6166 9.43939
31 1 -1.1104 12.2385 19.6386 9.37458
8693 2 2.2208 13.6289 9.6959 5.16583
306 2 2.2208 5.32777 -1.50915 13.6234
305 2 2.2208 2.53693 1.20747 13.6823
8977 2 2.2208 -0.460361 18.1902 5.39098
8969 2 2.2208 13.4639 1.39406 2.42398
8970 2 2.2208 13.6086 -1.29305 5.10744
8894 2 2.2208 -0.349923 6.99221 10.8188
9002 2 2.2208 -0.44555 -1.43965 13.7013
400 2 2.2208 7.98368 21.1111 -0.331849
307 2 2.2208 10.9104 4.1575 13.6168
314 2 2.2208 10.7479 9.87321 13.6542
308 2 2.2208 10.9309 -1.48177 13.5861
485 2 2.2208 2.3704 18.1723 13.5821
322 2 2.2208 8.07807 -1.34872 -0.330971
570 2 2.2208 2.53195 20.967 -0.380178
320 2 2.2208 2.4308 15.3647 -0.337242
394 2 2.2208 8.14977 15.3609 -0.310538
317 2 2.2208 2.4997 -1.50512 -0.247451
8994 2 2.2208 -0.339209 1.39674 -0.403952
9012 2 2.2208 -0.299237 12.4946 -0.379451
327 2 2.2208 5.15007 1.31979 16.4712
328 1 -1.1104 1.09738 -2.81991 17.9017
329 1 -1.1104 1.06047 2.84268 17.8207
332 1 -1.1104 1.06102 -2.9505 15.1551
334 1 -1.1104 1.10998 2.69322 14.9294
340 1 -1.1104 0.959767 0.0131986 17.7072
342 2 2.2208 5.31755 -1.34937 19.2318
343 2 2.2208 5.27602 4.17687 19.2866
344 1 -1.1104 1.07758 -0.14543 15.0621
348 1 -1.1104 3.74434 -2.92034 17.8034
349 1 -1.1104 3.89969 2.92288 17.7708
350 2 2.2208 2.4423 1.39686 19.2676
351 1 -1.1104 3.8846 -2.84297 14.8065
353 1 -1.1104 3.79285 2.71725 15.0705
355 2 2.2208 2.44141 -1.48248 16.5612
356 2 2.2208 2.43703 4.25558 16.3654
357 1 -1.1104 3.70434 -0.00830296 17.9224
358 1 -1.1104 3.89776 -0.192935 15.1414
359 1 -1.1104 3.87575 -0.00380549 20.6277
9118 2 2.2208 -0.387864 1.38101 16.3795
8403 2 2.2208 5.20441 -4.23662 22.131
8368 2 2.2208 10.8312 -4.23293 22.0107
354 1 -1.1104 3.81104 2.68803 20.8534
352 1 -1.1104 3.86393 -2.78628 20.6993
9088 2 2.2208 -0.320436 4.20839 19.1762
8990 2 2.2208 13.4311 -1.46425 27.5778
331 1 -1.1104 6.62035 2.76525 17.926
337 1 -1.1104 6.71262 -2.88911 20.692
9087 2 2.2208 -0.479632 12.5062 22.0161
9113 2 2.2208 13.6082 12.4881 13.6579
346 1 -1.1104 6.77071 -0.0279951 15.2059
330 1 -1.1104 6.54916 -2.88174 17.9157
341 1 -1.1104 6.62429 -0.0521324 17.8482
336 1 -1.1104 6.78251 -2.85609 15.1416
338 1 -1.1104 6.65531 2.80834 15.0588
370 2 2.2208 10.9025 1.24499 16.3569
371 1 -1.1104 12.2647 -2.96422 17.8635
372 1 -1.1104 12.3 2.657 17.8857
373 1 -1.1104 12.2102 -2.85017 15.0791
375 1 -1.1104 12.285 2.84843 15.0535
376 1 -1.1104 12.2281 -0.0726118 17.7055
377 2 2.2208 10.8525 -1.61536 19.1176
378 2 2.2208 10.915 4.13594 19.2856
379 1 -1.1104 12.2014 -0.0641948 14.8466
381 1 -1.1104 9.51372 -2.98168 17.8239
382 1 -1.1104 9.36168 2.74386 17.8068
383 2 2.2208 8.05307 1.21976 19.2001
384 1 -1.1104 9.4475 -2.93134 15.0921
386 1 -1.1104 9.42889 2.73442 14.988
388 2 2.2208 8.05644 -1.43826 16.4236
389 2 2.2208 8.12212 4.15778 16.3029
390 1 -1.1104 9.55553 -0.108394 17.668
391 1 -1.1104 9.47236 -0.107726 15.0678
385 1 -1.1104 9.60423 -2.87109 20.513
392 1 -1.1104 9.31537 -0.223386 20.5253
374 1 -1.1104 12.1019 -2.98219 20.5706
339 1 -1.1104 6.59979 2.71062 20.6181
9295 1 -1.1104 12.296 2.59179 20.6864
8408 2 2.2208 2.3992 -4.30673 19.1459
325 2 2.2208 2.47335 9.71653 27.5765
8367 2 2.2208 7.98651 -4.30633 24.8973
547 1 -1.1104 12.2153 16.8435 23.4453
402 2 2.2208 5.16136 7.09958 16.5234
403 2 2.2208 5.25454 12.6405 16.5145
404 1 -1.1104 0.971062 8.38621 17.8336
406 1 -1.1104 0.887148 8.31053 15.1635
410 1 -1.1104 0.98778 5.64137 17.8181
411 1 -1.1104 1.06272 11.1938 17.6643
414 2 2.2208 5.39072 9.866 19.2068
415 1 -1.1104 0.943378 5.55917 14.9545
417 1 -1.1104 0.98661 11.0818 15.0282
423 1 -1.1104 3.9249 8.43442 17.874
424 2 2.2208 2.41856 7.07302 19.259
425 2 2.2208 2.36671 12.5865 19.0623
426 1 -1.1104 3.80533 8.43349 15.0232
428 2 2.2208 2.41555 9.85242 16.4492
429 1 -1.1104 3.83594 5.67144 17.9185
430 1 -1.1104 3.92238 11.0942 17.829
431 1 -1.1104 3.83201 5.66632 15.0445
433 1 -1.1104 3.68721 11.4745 15.0015
418 1 -1.1104 1.26127 11.4499 20.7487
407 1 -1.1104 1.20466 8.53836 20.5573
409 1 -1.1104 6.80079 8.30901 20.6299
9160 2 2.2208 -0.471201 9.82414 19.2204
432 1 -1.1104 3.77166 5.72031 20.6985
427 1 -1.1104 3.93421 8.61901 20.7149
9004 2 2.2208 13.6705 6.8937 13.624
9300 2 2.2208 13.767 9.7076 22.1337
421 1 -1.1104 6.38463 11.0287 15.1154
419 1 -1.1104 6.65072 5.62598 15.1062
405 1 -1.1104 6.66966 8.60315 17.8678
413 1 -1.1104 6.73987 11.5505 17.8864
412 1 -1.1104 6.67756 5.73356 17.8654
408 1 -1.1104 6.62961 8.32304 15.1094
439 2 2.2208 10.9603 6.85016 16.3644
440 2 2.2208 10.7874 12.5894 16.5854
441 1 -1.1104 12.3414 8.38997 17.8614
442 1 -1.1104 12.3706 8.36055 15.0082
444 1 -1.1104 12.2959 5.60923 17.9051
445 1 -1.1104 12.1672 11.189 17.9666
446 2 2.2208 10.8052 9.83025 19.2395
447 1 -1.1104 12.2328 5.49778 14.9188
449 1 -1.1104 12.0639 11.1926 15.112
451 1 -1.1104 9.58046 8.33644 17.7567
452 2 2.2208 8.13889 6.95927 19.2714
453 2 2.2208 8.15865 12.6864 19.313
454 1 -1.1104 9.58292 8.51989 15.0116
456 2 2.2208 7.99939 9.8165 16.4278
457 1 -1.1104 9.55345 5.5903 17.9147
458 1 -1.1104 9.4687 11.0506 17.8484
459 1 -1.1104 9.46968 5.56816 15.0602
461 1 -1.1104 9.29395 11.3772 15.1103
460 1 -1.1104 9.53394 5.53433 20.6991
568 2 2.2208 10.6921 20.8877 24.8997
420 1 -1.1104 6.74001 5.54511 20.8826
455 1 -1.1104 9.43769 8.30967 20.5634
465 1 -1.1104 0.862556 13.8912 17.8338
466 1 -1.1104 0.977382 19.7196 17.5577
467 1 -1.1104 3.62514 13.8872 17.5087
469 1 -1.1104 0.973997 13.9376 15.0126
471 1 -1.1104 1.04196 19.5943 14.9574
477 1 -1.1104 1.1126 16.7753 14.9224
479 1 -1.1104 4.01958 16.5777 15.9867
480 1 -1.1104 3.67227 19.3368 15.161
481 2 2.2208 2.20186 15.3496 16.4133
482 2 2.2208 2.41188 21.028 16.3676
483 1 -1.1104 0.893335 16.6777 17.749
464 2 2.2208 5.12404 18.2625 16.5114
470 1 -1.1104 1.42271 14.289 20.6581
474 1 -1.1104 6.32296 19.7843 15.604
9230 2 2.2208 -0.372023 18.2921 16.4343
321 2 2.2208 10.7865 1.45272 27.6735
318 2 2.2208 2.40914 4.07831 27.5771
395 2 2.2208 13.6847 18.1079 19.2687
468 1 -1.1104 6.14857 18.4768 18.3097
476 1 -1.1104 6.76794 13.8348 15.3567
489 2 2.2208 10.8581 18.3587 16.7782
490 1 -1.1104 12.1828 13.8915 17.8729
491 1 -1.1104 12.1601 19.5753 17.9793
492 1 -1.1104 11.7516 13.9805 15.0249
494 1 -1.1104 12.4826 19.4742 15.1172
496 1 -1.1104 12.1677 16.8541 18.1141
497 2 2.2208 10.6733 15.5092 19.2312
498 2 2.2208 10.7344 20.9983 19.3145
499 1 -1.1104 11.7925 16.7347 15.3976
501 1 -1.1104 9.35641 13.9588 17.8344
502 1 -1.1104 9.13219 19.7851 18.0311
503 2 2.2208 7.88548 18.2011 19.5831
505 1 -1.1104 9.73935 19.7578 15.3739
507 2 2.2208 8.02822 21.1755 16.565
508 1 -1.1104 9.46884 16.9975 17.9795
495 1 -1.1104 12.18 19.5307 20.6906
500 1 -1.1104 12.2818 16.614 20.7769
493 1 -1.1104 12.3177 13.9119 20.5837
510 1 -1.1104 9.36905 16.7217 20.7968
506 1 -1.1104 9.36727 19.5075 20.8472
333 1 -1.1104 1.14082 -2.94036 20.7082
335 1 -1.1104 1.06299 2.94923 20.5882
345 1 -1.1104 0.999437 -0.0578991 20.5383
514 2 2.2208 5.26298 1.36573 22.0884
515 1 -1.1104 1.01598 -2.87067 23.4598
516 1 -1.1104 0.997588 2.73697 23.403
519 1 -1.1104 0.818927 -2.82183 26.2245
520 1 -1.1104 1.07937 2.61033 26.238
523 1 -1.1104 1.03318 -0.0219502 23.5104
525 2 2.2208 5.23542 -1.37421 24.8955
526 2 2.2208 5.28404 4.15558 24.783
527 1 -1.1104 1.03841 -0.154631 26.3853
529 1 -1.1104 3.80625 -2.88791 23.5103
530 1 -1.1104 3.88422 2.88195 23.6013
531 2 2.2208 2.51846 1.3305 24.9143
532 1 -1.1104 3.70727 -2.83084 26.2877
533 1 -1.1104 3.93054 2.71757 26.3117
534 2 2.2208 2.41495 -1.51807 22.1657
535 2 2.2208 2.48994 4.20361 22.0564
536 1 -1.1104 3.8851 -0.0207638 23.5294
537 1 -1.1104 3.77023 -0.0297354 26.1897
9049 2 2.2208 -0.398641 1.45822 22.0378
9086 2 2.2208 -0.348666 4.19519 24.8628
521 1 -1.1104 6.59806 -2.6535 26.4463
524 1 -1.1104 6.55483 -0.0674476 23.4699
436 2 2.2208 -0.369516 21.0665 24.9627
9089 2 2.2208 13.7309 -1.43666 16.4317
387 1 -1.1104 9.49759 2.78607 20.6416
380 1 -1.1104 12.2887 -0.272767 20.6354
347 1 -1.1104 6.61526 -0.0609778 20.6738
396 2 2.2208 13.5168 15.3162 16.6185
522 1 -1.1104 6.65563 2.77248 26.2499
528 1 -1.1104 6.63217 0.074377 26.288
517 1 -1.1104 6.77304 -2.8569 23.4524
518 1 -1.1104 6.72958 2.69005 23.3742
549 2 2.2208 10.8606 1.22207 21.7975
550 1 -1.1104 12.3636 -2.93649 23.6801
551 1 -1.1104 12.0452 -0.0793692 23.3105
552 1 -1.1104 12.2221 -2.84513 26.3571
553 1 -1.1104 12.3021 3.1411 26.2169
554 2 2.2208 10.829 -1.3469 24.954
556 1 -1.1104 9.60177 -2.75625 23.3625
557 1 -1.1104 9.70683 2.75505 23.3975
558 2 2.2208 8.03203 1.38555 24.805
559 1 -1.1104 9.55754 -2.89352 26.3032
560 1 -1.1104 9.50251 2.81637 26.2013
561 2 2.2208 8.06066 -1.41285 22.0463
562 2 2.2208 8.23128 4.11816 22.1079
563 1 -1.1104 9.40331 0.0953257 23.423
564 1 -1.1104 9.40359 0.0211996 26.2324
37 1 -1.1104 12.1829 -0.0555725 26.3688
555 2 2.2208 10.8807 3.98848 24.8379
574 1 -1.1104 9.41328 19.4435 23.4891
625 2 2.2208 7.99914 15.4296 22.141
422 1 -1.1104 6.78242 11.0364 20.6024
416 1 -1.1104 1.04563 5.58579 20.6258
434 1 -1.1104 4.09633 11.6201 20.5394
577 2 2.2208 5.37195 7.03214 22.1138
578 2 2.2208 5.42342 12.4617 22.0815
579 1 -1.1104 0.99609 8.51303 23.5242
581 1 -1.1104 0.975978 8.43233 26.2553
583 1 -1.1104 1.02075 5.58405 23.4797
584 1 -1.1104 1.13009 11.2635 23.4767
587 2 2.2208 5.28559 9.83993 24.7995
588 1 -1.1104 0.990788 5.508 26.2409
589 1 -1.1104 0.900746 11.0557 26.3007
592 1 -1.1104 3.95357 8.49602 23.4494
593 2 2.2208 2.48685 7.01498 24.7544
594 2 2.2208 2.42744 12.6272 24.8321
595 1 -1.1104 3.87041 8.52548 26.2116
596 2 2.2208 2.61974 9.93481 22.0863
597 1 -1.1104 3.84767 5.59734 23.4617
598 1 -1.1104 3.90306 11.196 23.5535
599 1 -1.1104 3.97412 5.63517 26.1017
600 1 -1.1104 3.75092 11.3151 26.2757
9328 2 2.2208 -0.335284 7.07027 22.0749
572 1 -1.1104 12.2365 16.7634 26.3003
512 2 2.2208 10.7862 18.1432 22.0843
9108 1 -1.1104 12.1634 8.63826 20.6715
450 1 -1.1104 12.1245 11.3486 20.7338
443 1 -1.1104 12.4281 5.62645 20.6933
580 1 -1.1104 6.71907 8.37146 23.3822
582 1 -1.1104 6.67359 8.44641 26.2861
591 1 -1.1104 6.72698 11.1296 26.3872
586 1 -1.1104 6.79379 11.1698 23.5165
585 1 -1.1104 6.99839 5.56922 23.4978
590 1 -1.1104 6.73211 5.60084 26.0571
462 1 -1.1104 9.44022 11.1531 20.535
605 1 -1.1104 9.60471 11.169 26.2527
606 1 -1.1104 9.80497 5.45024 26.3756
607 1 -1.1104 9.52945 11.0628 23.4815
608 1 -1.1104 10.0756 5.53069 23.4212
609 2 2.2208 8.20098 9.65742 22.1458
610 1 -1.1104 9.42 8.36256 26.2774
611 2 2.2208 8.1286 12.7416 24.9178
612 2 2.2208 8.14221 6.98766 24.9489
613 2 2.2208 10.9486 7.08345 21.9619
614 2 2.2208 10.8579 12.6764 22.133
615 1 -1.1104 12.2631 8.31628 23.4653
616 1 -1.1104 11.9488 8.55006 26.6022
617 1 -1.1104 12.4326 11.2271 23.3915
618 2 2.2208 10.9931 9.79484 24.8834
619 1 -1.1104 12.3867 11.3223 26.2348
620 1 -1.1104 9.48215 8.18559 23.4028
393 1 -1.1104 6.68061 16.7432 23.6086
548 2 2.2208 10.8343 15.4745 24.8357
437 2 2.2208 7.97587 20.9154 22.1985
546 1 -1.1104 12.1276 19.6623 26.383
473 1 -1.1104 6.81715 13.8152 20.8708
539 1 -1.1104 6.6562 14.0312 23.5318
621 1 -1.1104 6.68813 13.9333 26.2897
604 1 -1.1104 9.5105 13.9442 26.4185
472 1 -1.1104 1.02242 19.6938 20.7767
360 2 2.2208 2.40797 21.008 22.2041
361 1 -1.1104 3.89194 16.662 23.7634
362 1 -1.1104 1.00113 16.9152 23.4796
397 1 -1.1104 3.81234 14.0381 26.0372
401 1 -1.1104 3.86162 16.8279 26.4084
435 2 2.2208 2.45194 18.1492 24.9798
438 1 -1.1104 3.75553 19.652 26.1876
448 2 2.2208 5.19311 17.987 22.1516
463 1 -1.1104 0.923706 14.0433 23.4027
484 1 -1.1104 3.2357 17.1636 21.1923
538 1 -1.1104 0.911448 19.7888 23.6242
540 2 2.2208 5.41648 15.4149 24.9687
543 2 2.2208 5.33629 20.9412 24.9347
565 1 -1.1104 1.1534 13.8527 26.2716
566 1 -1.1104 1.04299 16.7166 26.3029
567 1 -1.1104 1.06948 19.4482 26.4417
571 2 2.2208 2.38202 15.455 22.3377
602 1 -1.1104 3.92013 13.9867 22.939
626 1 -1.1104 3.84838 19.3126 23.291
545 1 -1.1104 6.61961 19.4355 23.6459
573 1 -1.1104 9.5531 13.9436 23.6917
576 1 -1.1104 6.6316 19.7558 26.5649
544 1 -1.1104 9.45814 16.753 23.5758
624 1 -1.1104 9.27108 19.6558 26.3139
475 1 -1.1104 6.58599 19.3821 21.0757
601 1 -1.1104 6.65999 16.8862 26.4227
504 1 -1.1104 9.65359 13.9771 20.6525
542 1 -1.1104 12.1072 13.9915 26.0482
575 2 2.2208 8.02253 18.1882 24.9233
513 1 -1.1104 12.4201 14.1484 23.3972
541 1 -1.1104 12.1389 19.6005 23.532
398 1 -1.1104 9.30842 16.7993 26.2257
478 1 -1.1104 6.50841 16.6499 20.7674
9119 2 2.2208 13.6635 9.78864 16.4825
9229 2 2.2208 -0.28417 15.4215 19.1636
369 2 2.2208 13.5791 20.8503 22.0885
323 2 2.2208 8.0818 4.09276 27.5655
487 2 2.2208 13.6153 18.1494 13.6373
316 2 2.2208 5.2568 1.42725 27.6873
312 2 2.2208 2.31203 6.99464 13.5972
324 2 2.2208 5.25137 6.95855 27.5754
623 2 2.2208 10.9513 12.6122 27.6708
603 2 2.2208 5.3313 12.5609 27.6713
622 2 2.2208 8.19056 9.83795 27.6789
486 2 2.2208 5.44206 20.947 13.5656
368 2 2.2208 13.6056 20.962 27.7491
309 2 2.2208 8.07405 1.30055 13.6283
627 2 2.2208 5.25458 23.8859 5.31479
628 2 2.2208 5.2824 29.4545 5.31628
629 1 -1.1104 0.992103 25.4091 1.12686
630 1 -1.1104 1.02183 25.3111 3.947
631 1 -1.1104 1.0605 22.4596 0.938721
632 1 -1.1104 1.17498 28.1403 1.08736
633 2 2.2208 5.24088 26.8279 2.43567
634 1 -1.1104 1.00606 22.3932 3.75568
635 1 -1.1104 1.06982 28.1391 3.82666
636 1 -1.1104 3.82391 25.255 0.98964
637 2 2.2208 2.46473 23.8533 2.39152
638 2 2.2208 2.54709 29.5406 2.45401
639 1 -1.1104 3.92423 25.346 3.83815
640 2 2.2208 2.53238 26.7636 5.26392
641 1 -1.1104 3.75774 22.4259 0.998418
642 1 -1.1104 3.88498 28.202 1.07079
643 1 -1.1104 3.83755 22.3838 3.6735
644 1 -1.1104 3.83262 28.1818 4.01216
774 1 -1.1104 3.70974 25.2037 6.58116
651 1 -1.1104 6.72564 27.9057 0.830902
648 1 -1.1104 6.61172 25.2207 1.20788
771 1 -1.1104 1.0659 28.1213 6.53794
649 1 -1.1104 6.65461 25.231 4.07002
652 1 -1.1104 6.73301 22.3339 3.91108
772 1 -1.1104 6.56299 22.5194 6.55468
775 1 -1.1104 3.84402 22.4495 6.42354
1574 1 -1.1104 12.2815 47.5205 6.71628
1546 1 -1.1104 1.07613 47.7113 12.1048
653 1 -1.1104 6.67802 28.1328 3.81012
650 1 -1.1104 6.47357 22.2972 1.12493
654 2 2.2208 10.9815 23.7668 5.17225
655 2 2.2208 10.7784 29.3177 5.32309
656 1 -1.1104 12.4044 25.2414 0.903607
657 1 -1.1104 12.2656 25.1011 3.7822
658 1 -1.1104 12.252 22.4932 0.931741
659 1 -1.1104 12.2493 28.0191 1.05576
660 2 2.2208 11.0388 26.534 2.39501
661 1 -1.1104 12.4222 22.3174 3.78876
662 1 -1.1104 12.2393 27.9675 3.86225
663 1 -1.1104 9.51119 25.1402 0.911573
664 2 2.2208 7.97188 23.8167 2.483
665 2 2.2208 8.11716 29.3658 2.37496
666 1 -1.1104 9.43759 25.1114 3.67662
667 2 2.2208 8.12255 26.5164 5.27654
668 1 -1.1104 9.24102 22.5142 0.882796
669 1 -1.1104 9.53455 27.8639 1.11364
670 1 -1.1104 9.62825 22.4417 3.76387
671 1 -1.1104 9.49714 27.8504 3.77104
769 1 -1.1104 6.67217 25.2446 6.7165
805 1 -1.1104 9.48346 22.3115 6.61026
806 1 -1.1104 9.43851 28.037 6.66853
1560 1 -1.1104 4.05052 47.7619 12.1603
804 1 -1.1104 9.57096 25.3026 6.55781
801 1 -1.1104 12.3026 25.2483 6.62538
1563 1 -1.1104 3.76227 47.8745 9.316
944 2 2.2208 13.655 32.2602 5.2326
675 2 2.2208 5.24686 35.1414 5.08098
676 1 -1.1104 1.03269 30.9678 1.02179
677 1 -1.1104 1.15164 36.5173 1.03506
679 1 -1.1104 1.09787 30.8903 3.75909
680 1 -1.1104 1.18264 36.5601 3.80403
682 1 -1.1104 1.19359 33.7506 0.914912
683 2 2.2208 5.22536 32.3207 2.35858
684 2 2.2208 5.33275 37.8873 2.33461
685 1 -1.1104 1.07421 33.762 3.69287
687 1 -1.1104 3.83679 30.9521 1.03552
688 1 -1.1104 4.0261 36.4534 0.909651
689 2 2.2208 2.55226 35.0686 2.35962
690 1 -1.1104 3.91345 31.0263 3.84117
691 1 -1.1104 3.89226 36.4869 3.65037
692 2 2.2208 2.47158 32.3648 5.1467
693 2 2.2208 2.51324 37.7882 5.28855
694 1 -1.1104 3.93792 33.6638 0.793416
695 1 -1.1104 3.72261 33.7742 3.76154
831 1 -1.1104 3.9263 30.846 6.68862
832 1 -1.1104 3.82881 36.5174 6.69166
826 1 -1.1104 1.05158 36.3808 6.5849
686 1 -1.1104 6.40419 33.6896 3.77401
699 1 -1.1104 6.72011 30.5966 1.0039
700 1 -1.1104 6.58388 30.8393 3.68718
681 1 -1.1104 6.656 36.5213 3.87413
678 1 -1.1104 6.71017 36.3642 0.98926
701 1 -1.1104 6.66171 33.62 1.07929
829 1 -1.1104 0.961605 33.7443 6.74656
828 1 -1.1104 6.6384 36.5995 6.71329
825 1 -1.1104 1.03177 30.9361 6.60876
833 1 -1.1104 3.80278 33.6309 6.44602
830 1 -1.1104 6.70242 33.641 6.73611
674 2 2.2208 13.6696 26.6829 5.32586
1594 1 -1.1104 9.54069 47.4966 9.46402
961 2 2.2208 8.15601 46.2414 13.6561
702 2 2.2208 10.8933 35.0607 5.32291
703 1 -1.1104 12.259 30.7222 1.15364
704 1 -1.1104 12.2874 36.2723 0.978905
705 1 -1.1104 12.2693 30.8027 3.93715
706 1 -1.1104 12.2619 36.4192 3.84205
707 1 -1.1104 12.1838 33.5623 1.09978
708 2 2.2208 10.7599 32.2069 2.57102
709 2 2.2208 10.8533 37.8432 2.38326
710 1 -1.1104 12.2198 33.588 3.95104
711 1 -1.1104 9.49409 30.6933 1.11861
712 1 -1.1104 9.65727 36.6537 0.933974
713 2 2.2208 8.07408 35.0076 2.52446
714 1 -1.1104 9.43823 30.6892 4.02379
715 1 -1.1104 9.37187 36.48 3.73928
716 2 2.2208 7.93454 32.2799 5.26848
717 2 2.2208 7.98153 37.8622 5.25347
718 1 -1.1104 9.3714 33.6524 1.01604
719 1 -1.1104 9.40817 33.4475 3.83641
864 1 -1.1104 9.49128 33.8352 6.65535
861 1 -1.1104 12.2196 33.5086 6.86023
1542 1 -1.1104 1.09536 47.6608 6.58635
862 1 -1.1104 9.45042 30.9917 6.68994
860 1 -1.1104 12.252 36.3563 6.72651
863 1 -1.1104 9.44729 36.5412 6.67149
859 1 -1.1104 12.0887 30.8541 6.69087
917 2 2.2208 -0.265913 46.1751 10.7538
1306 2 2.2208 -0.370433 37.9734 13.665
766 2 2.2208 13.5816 46.2625 2.51305
930 2 2.2208 10.8023 43.4722 7.90281
941 2 2.2208 10.9603 46.1468 10.8257
893 1 -1.1104 6.69589 44.7025 12.2431
721 2 2.2208 5.19069 40.6524 5.08401
722 2 2.2208 5.23099 46.3567 5.19941
723 1 -1.1104 1.09859 42.0757 1.02967
725 1 -1.1104 1.14982 42.2842 3.69933
727 1 -1.1104 0.968634 39.182 1.01137
728 1 -1.1104 1.08146 44.8578 0.933074
731 2 2.2208 5.24453 43.5626 2.29019