ITEM: TIMESTEP
0
ITEM: NUMBER OF ATOMS
18000
ITEM: BOX BOUNDS xy xz yz pp pp pp
-5.7215330795510937e-02 2.7951215330795534e+01 0.0000000000000000e+00
-3.5105869508639370e-01 3.3507905869508619e+02 0.0000000000000000e+00
-5.6668725505756329e-02 2.7950668725505764e+01 0.0000000000000000e+00
ITEM: ATOMS id type q mass x y z
1 2 2.2208 232.038 13.9262 2.40249 11.1534
2 1 -1.1104 15.9994 6.96048 17.8255 12.5439
3 2 2.2208 232.038 13.9286 2.41322 5.52054
4 2 2.2208 232.038 -0.0451634 2.72803 2.73304
5 2 2.2208 232.038 2.75166 16.4278 13.9338
6 1 -1.1104 15.9994 4.17909 20.6114 12.5521
7 1 -1.1104 15.9994 1.44836 20.6988 12.6408
8 2 2.2208 232.038 5.59752 2.45756 2.71784
9 1 -1.1104 15.9994 4.17238 17.8165 12.5483
10 2 2.2208 232.038 11.1438 2.41757 2.5869
11 1 -1.1104 15.9994 1.43983 17.7266 12.6464
12 1 -1.1104 15.9994 12.5387 15.0215 12.5349
13 2 2.2208 232.038 2.78603 5.26557 2.72064
14 2 2.2208 232.038 5.56787 13.6183 13.9193
15 1 -1.1104 15.9994 12.5554 12.2487 12.531
16 1 -1.1104 15.9994 9.74817 15.0249 12.5345
17 2 2.2208 232.038 8.32728 5.23322 2.74241
18 2 2.2208 232.038 5.55823 7.99634 2.74031
19 1 -1.1104 15.9994 6.95075 15.0352 12.5453
20 2 2.2208 232.038 11.1439 7.96584 2.68244
21 2 2.2208 232.038 0.0793209 10.8109 -0.0443537
22 2 2.2208 232.038 2.73873 13.4634 -0.0499384
23 2 2.2208 232.038 2.73226 10.8084 2.60808
24 2 2.2208 232.038 5.53439 7.99489 13.9399
25 1 -1.1104 15.9994 9.73579 12.2514 12.534
26 1 -1.1104 15.9994 6.95556 12.2315 12.5419
27 2 2.2208 232.038 8.3029 10.7969 2.68705
28 2 2.2208 232.038 5.524 13.6076 2.75665
29 1 -1.1104 15.9994 4.15717 15.0148 12.5663
30 2 2.2208 232.038 11.1796 13.6105 2.69555
31 2 2.2208 232.038 -0.0465117 16.4127 -0.0403655
32 1 -1.1104 15.9994 1.35726 15.0067 12.5707
33 2 2.2208 232.038 2.70276 16.3769 2.73447
34 3 -1.1104 15.9994 11.1475 2.4542 -0.0442893
35 1 -1.1104 15.9994 4.15427 12.245 12.5657
36 1 -1.1104 15.9994 1.35622 12.2459 12.5738
37 2 2.2208 232.038 8.34316 16.1273 2.72593
38 2 2.2208 232.038 5.242 19.2162 2.73581
39 1 -1.1104 15.9994 12.5668 9.42902 12.5372
40 2 2.2208 232.038 11.4438 19.2239 2.72398
41 2 2.2208 232.038 0.0191981 22.2933 0.022931
42 1 -1.1104 15.9994 12.5442 6.65628 12.5353
43 2 2.2208 232.038 2.73143 22.03 2.78234
44 3 -1.1104 15.9994 -0.0479998 19.2088 11.1481
45 1 -1.1104 15.9994 9.72957 9.43129 12.5378
46 1 -1.1104 15.9994 6.95827 9.45599 12.5408
47 2 2.2208 232.038 8.34267 22.3107 2.73074
48 2 2.2208 232.038 5.45583 24.8284 2.71962
49 1 -1.1104 15.9994 9.75765 6.66627 12.5371
50 2 2.2208 232.038 11.2137 24.8274 2.72489
51 1 -1.1104 15.9994 6.94845 6.65414 12.5505
52 2 2.2208 232.038 2.78073 2.45551 5.56081
53 1 -1.1104 15.9994 7.02649 23.4647 12.6092
54 2 2.2208 232.038 -0.045153 2.46906 8.38745
55 1 -1.1104 15.9994 4.16843 23.3943 12.536
56 2 2.2208 232.038 8.36457 2.4089 5.53751
57 1 -1.1104 15.9994 1.36663 23.416 12.5494
58 2 2.2208 232.038 5.53745 2.44624 8.33534
59 1 -1.1104 15.9994 12.536 20.6118 12.5404
60 2 2.2208 232.038 11.1638 2.43043 8.32102
61 2 2.2208 232.038 -0.0292917 5.27352 5.56745
62 2 2.2208 232.038 2.73156 8.03559 5.54058
63 2 2.2208 232.038 2.76877 5.21446 8.33859
64 2 2.2208 232.038 -0.0377781 8.04812 8.48171
65 2 2.2208 232.038 5.54859 5.22055 5.53858
66 2 2.2208 232.038 8.31452 7.98243 5.51155
67 2 2.2208 232.038 8.31311 5.17061 8.3577
68 2 2.2208 232.038 5.49939 7.98173 8.35693
69 2 2.2208 232.038 11.1413 5.17182 5.49012
70 2 2.2208 232.038 11.1432 7.70804 8.34372
71 2 2.2208 232.038 -0.0472273 10.8132 5.54649
72 2 2.2208 232.038 2.71712 13.6001 5.53398
73 2 2.2208 232.038 2.7474 10.8376 8.32266
74 1 -1.1104 15.9994 4.16852 9.44006 12.5558
75 2 2.2208 232.038 5.49387 10.8042 5.49837
76 2 2.2208 232.038 8.31787 13.6037 5.54735
77 2 2.2208 232.038 8.04404 10.8054 8.34765
78 2 2.2208 232.038 5.49764 13.6365 8.35341
79 2 2.2208 232.038 11.1449 10.8062 5.24087
80 2 2.2208 232.038 11.1516 13.9022 8.35087
81 4 2.2208 232.038 8.34289 19.2178 2.73345
82 2 2.2208 232.038 2.68265 19.2193 5.58794
83 2 2.2208 232.038 2.73273 16.3954 8.33063
84 2 2.2208 232.038 2.76107 10.8039 13.9361
85 2 2.2208 232.038 5.49746 16.398 5.56427
86 2 2.2208 232.038 8.33771 19.2178 5.82633
87 2 2.2208 232.038 8.30592 16.4129 8.37367
88 2 2.2208 232.038 5.47586 19.2191 8.38184
89 2 2.2208 232.038 11.1731 16.4237 5.52974
90 2 2.2208 232.038 11.1856 19.2219 8.3716
91 1 -1.1104 15.9994 12.5446 17.8189 12.5371
92 2 2.2208 232.038 2.69109 24.8281 5.5334
93 2 2.2208 232.038 2.72506 22.0467 8.32873
94 3 -1.1104 15.9994 8.34175 -0.333703 11.1393
95 2 2.2208 232.038 5.50067 22.0451 5.56902
96 2 2.2208 232.038 8.33792 24.8269 5.59027
97 2 2.2208 232.038 8.33628 22.019 8.35304
98 2 2.2208 232.038 5.48701 24.8258 8.33259
99 2 2.2208 232.038 11.1819 22.0441 5.56177
100 2 2.2208 232.038 11.1902 24.8269 8.32895
101 1 -1.1104 15.9994 9.75666 20.6142 12.5237
102 2 2.2208 232.038 2.76135 2.42808 11.163
103 1 -1.1104 15.9994 6.94764 20.6157 12.5255
104 2 2.2208 232.038 8.34347 2.27162 11.1582
105 1 -1.1104 15.9994 9.7442 17.8312 12.5376
106 2 2.2208 232.038 -0.0371098 5.37186 11.1681
107 2 2.2208 232.038 2.61237 8.0102 11.147
108 2 2.2208 232.038 5.54175 5.20762 11.1579
109 2 2.2208 232.038 8.31048 7.97585 11.1806
110 2 2.2208 232.038 11.1295 5.16811 11.1841
111 4 2.2208 232.038 11.1453 10.8166 8.3448
112 2 2.2208 232.038 2.70306 13.619 11.1387
113 2 2.2208 232.038 5.49598 10.7974 11.174
114 2 2.2208 232.038 8.31722 13.6347 11.1755
115 2 2.2208 232.038 11.1468 10.8115 11.4452
116 1 -1.1104 15.9994 12.5347 23.392 12.5316
117 2 2.2208 232.038 2.5728 19.2221 11.1417
118 2 2.2208 232.038 5.50832 16.431 11.1511
119 2 2.2208 232.038 8.33462 19.1959 11.1316
120 2 2.2208 232.038 11.1548 16.4429 11.1873
121 1 -1.1104 15.9994 9.67556 23.4657 12.6058
122 2 2.2208 232.038 2.67019 24.8252 11.1194
123 2 2.2208 232.038 5.48655 21.9892 11.1298
124 2 2.2208 232.038 8.33733 24.8233 10.871
125 2 2.2208 232.038 11.176 22.0009 11.1366
126 1 -1.1104 15.9994 1.26398 0.993486 1.43026
127 1 -1.1104 15.9994 4.12411 1.07191 1.34613
128 1 -1.1104 15.9994 1.26051 0.986918 4.08546
129 1 -1.1104 15.9994 4.12509 1.06244 4.1608
130 1 -1.1104 15.9994 1.35008 3.84037 1.33459
131 1 -1.1104 15.9994 4.12477 3.83863 1.35817
132 1 -1.1104 15.9994 1.3483 3.84012 4.16162
133 1 -1.1104 15.9994 4.13013 3.84322 4.14327
134 1 -1.1104 15.9994 6.90283 1.04736 1.35242
135 1 -1.1104 15.9994 9.63909 0.95825 1.44082
136 1 -1.1104 15.9994 6.91433 1.05025 4.1441
137 1 -1.1104 15.9994 9.74282 1.05961 4.15873
138 1 -1.1104 15.9994 6.91591 3.85672 1.35095
139 1 -1.1104 15.9994 9.65129 3.9452 1.44426
140 1 -1.1104 15.9994 6.93207 3.85687 4.15741
141 1 -1.1104 15.9994 9.73404 3.8561 4.1677
142 1 -1.1104 15.9994 12.6499 0.955565 1.44401
143 1 -1.1104 15.9994 12.5448 1.05909 4.16612
144 1 -1.1104 15.9994 12.6407 3.94664 1.44425
145 1 -1.1104 15.9994 12.5586 3.85821 4.17024
146 1 -1.1104 15.9994 1.33252 6.60926 1.34967
147 1 -1.1104 15.9994 4.13891 6.62663 1.34296
148 1 -1.1104 15.9994 1.33718 6.61866 4.13869
149 1 -1.1104 15.9994 4.14539 6.63853 4.15651
150 1 -1.1104 15.9994 1.24828 9.33453 1.43238
151 1 -1.1104 15.9994 4.23678 9.34832 1.44412
152 1 -1.1104 15.9994 1.34594 9.4354 4.1566
153 1 -1.1104 15.9994 4.14297 9.43695 4.16085
154 1 -1.1104 15.9994 6.94106 6.65104 1.35887
155 1 -1.1104 15.9994 9.7351 6.66917 1.36132
156 1 -1.1104 15.9994 6.93745 6.6452 4.152
157 1 -1.1104 15.9994 9.75084 6.66468 4.1647
158 1 -1.1104 15.9994 6.95827 9.44687 1.34607
159 1 -1.1104 15.9994 9.75883 9.4641 1.37789
160 1 -1.1104 15.9994 6.95785 9.45261 4.16196
161 1 -1.1104 15.9994 9.72554 9.43445 4.15554
162 1 -1.1104 15.9994 12.5612 6.66897 1.36272
163 1 -1.1104 15.9994 12.5442 6.66321 4.16557
164 1 -1.1104 15.9994 12.5458 9.45988 1.37795
165 1 -1.1104 15.9994 12.5695 9.43235 4.15611
166 1 -1.1104 15.9994 1.2431 12.3308 1.43675
167 1 -1.1104 15.9994 4.23834 12.3207 1.43087
168 1 -1.1104 15.9994 1.34834 12.2289 4.16006
169 1 -1.1104 15.9994 4.15139 12.2419 4.16788
170 1 -1.1104 15.9994 1.34706 15.0411 1.32987
171 1 -1.1104 15.9994 4.15246 15.0533 1.34792
172 1 -1.1104 15.9994 1.34574 15.0309 4.14846
173 1 -1.1104 15.9994 4.16071 15.0365 4.14656
174 1 -1.1104 15.9994 6.97116 12.2608 1.35828
175 1 -1.1104 15.9994 9.75109 12.2529 1.37445
176 1 -1.1104 15.9994 6.96427 12.249 4.15711
177 1 -1.1104 15.9994 9.73943 12.267 4.1596
178 1 -1.1104 15.9994 6.93571 15.0352 1.33431
179 1 -1.1104 15.9994 9.76427 15.034 1.34021
180 1 -1.1104 15.9994 6.94186 15.0405 4.16676
181 1 -1.1104 15.9994 9.75844 15.032 4.16739
182 1 -1.1104 15.9994 12.5502 12.2364 1.36696
183 1 -1.1104 15.9994 12.5561 12.2529 4.1627
184 1 -1.1104 15.9994 12.5415 15.0354 1.3607
185 1 -1.1104 15.9994 12.5339 15.0266 4.15156
186 1 -1.1104 15.9994 1.35767 17.8229 1.3387
187 1 -1.1104 15.9994 4.15027 17.8093 1.3279
188 1 -1.1104 15.9994 1.36566 17.818 4.12702
189 1 -1.1104 15.9994 4.15871 17.8062 4.15674
190 1 -1.1104 15.9994 1.35768 20.596 1.34393
191 1 -1.1104 15.9994 4.15423 20.6192 1.33008
192 1 -1.1104 15.9994 1.36805 20.597 4.13374
193 1 -1.1104 15.9994 4.16315 20.619 4.16386
194 1 -1.1104 15.9994 7.01251 17.8821 1.42109
195 1 -1.1104 15.9994 9.67836 17.8811 1.43286
196 1 -1.1104 15.9994 7.02341 17.8851 4.08357
197 1 -1.1104 15.9994 9.67813 17.8838 4.08857
198 1 -1.1104 15.9994 7.01302 20.5467 1.42197
199 1 -1.1104 15.9994 9.67876 20.5476 1.43113
200 1 -1.1104 15.9994 7.02163 20.5433 4.0852
201 1 -1.1104 15.9994 9.67628 20.5402 4.08897
202 1 -1.1104 15.9994 12.5408 17.7975 1.34647
203 1 -1.1104 15.9994 12.5355 17.8078 4.16166
204 1 -1.1104 15.9994 12.5432 20.6307 1.34321
205 1 -1.1104 15.9994 12.5334 20.6188 4.16648
206 1 -1.1104 15.9994 1.47456 23.3371 1.46747
207 1 -1.1104 15.9994 4.1808 23.383 1.35867
208 1 -1.1104 15.9994 1.35436 23.3927 4.17107
209 1 -1.1104 15.9994 4.16831 23.3953 4.15332
210 1 -1.1104 15.9994 6.94294 23.4103 1.33942
211 1 -1.1104 15.9994 9.76066 23.4086 1.34341
212 1 -1.1104 15.9994 6.94423 23.4045 4.16595
213 1 -1.1104 15.9994 9.7532 23.4049 4.16542
214 1 -1.1104 15.9994 12.538 23.3938 1.35801
215 1 -1.1104 15.9994 12.5361 23.3962 4.14762
216 1 -1.1104 15.9994 1.3453 1.06498 6.93948
217 1 -1.1104 15.9994 4.12215 1.04283 6.93182
218 1 -1.1104 15.9994 1.31762 1.04177 9.7239
219 1 -1.1104 15.9994 4.1126 1.05869 9.73669
220 1 -1.1104 15.9994 1.32825 3.83389 6.9354
221 1 -1.1104 15.9994 4.13794 3.85058 6.9408
222 1 -1.1104 15.9994 1.29284 3.83111 9.74551
223 1 -1.1104 15.9994 4.12967 3.85035 9.73357
224 1 -1.1104 15.9994 6.93521 1.06135 6.92547
225 1 -1.1104 15.9994 9.74207 1.06122 6.93331
226 1 -1.1104 15.9994 6.84335 1.14878 9.64616
227 1 -1.1104 15.9994 9.84262 1.16006 9.65411
228 1 -1.1104 15.9994 6.93421 3.85994 6.93587
229 1 -1.1104 15.9994 9.75186 3.88055 6.95198
230 1 -1.1104 15.9994 6.93676 3.8764 9.7451
231 1 -1.1104 15.9994 9.7548 3.89495 9.73801
232 1 -1.1104 15.9994 12.5602 1.06583 6.94786
233 1 -1.1104 15.9994 12.574 1.06675 9.74269
234 1 -1.1104 15.9994 12.5508 3.87726 6.95536
235 1 -1.1104 15.9994 12.5565 3.87999 9.74159
236 1 -1.1104 15.9994 1.34139 6.63926 6.93043
237 1 -1.1104 15.9994 4.14704 6.63889 6.93569
238 1 -1.1104 15.9994 1.4329 6.54024 9.64343
239 1 -1.1104 15.9994 4.16068 6.64525 9.75165
240 1 -1.1104 15.9994 1.34714 9.43211 6.93346
241 1 -1.1104 15.9994 4.16947 9.44513 6.95373
242 1 -1.1104 15.9994 1.4491 9.52772 9.65929
243 1 -1.1104 15.9994 4.18281 9.44633 9.74099
244 1 -1.1104 15.9994 6.94969 6.65602 6.95386
245 1 -1.1104 15.9994 9.72903 6.65923 6.93151
246 1 -1.1104 15.9994 6.95627 6.66246 9.73459
247 1 -1.1104 15.9994 9.73315 6.66665 9.76225
248 1 -1.1104 15.9994 6.95132 9.42952 6.928
249 1 -1.1104 15.9994 9.81278 9.51969 7.01251
250 1 -1.1104 15.9994 6.95834 9.43038 9.7668
251 1 -1.1104 15.9994 9.81466 9.51905 9.67978
252 1 -1.1104 15.9994 12.5685 6.65882 6.93459
253 1 -1.1104 15.9994 12.5678 6.65996 9.7596
254 1 -1.1104 15.9994 12.4833 9.51635 7.01379
255 1 -1.1104 15.9994 12.4838 9.51549 9.67906
256 1 -1.1104 15.9994 1.3528 12.2368 6.94976
257 1 -1.1104 15.9994 4.17242 12.236 6.95161
258 1 -1.1104 15.9994 1.35244 12.2409 9.75202
259 1 -1.1104 15.9994 4.17218 12.2361 9.7506
260 1 -1.1104 15.9994 1.35612 15.017 6.93698
261 1 -1.1104 15.9994 4.15635 15.0214 6.94544
262 1 -1.1104 15.9994 1.35178 15.011 9.75169
263 1 -1.1104 15.9994 4.16216 15.022 9.74822
264 1 -1.1104 15.9994 6.95794 12.2512 6.94232
265 1 -1.1104 15.9994 9.8163 12.1794 7.01698
266 1 -1.1104 15.9994 6.96154 12.2509 9.75566
267 1 -1.1104 15.9994 9.81784 12.1766 9.67184
268 1 -1.1104 15.9994 6.96252 15.0277 6.94528
269 1 -1.1104 15.9994 9.73443 15.0283 6.93176
270 1 -1.1104 15.9994 6.95637 15.021 9.74213
271 1 -1.1104 15.9994 9.73522 15.0249 9.75439
272 1 -1.1104 15.9994 12.4728 12.1744 7.01739
273 1 -1.1104 15.9994 12.474 12.1721 9.67226
274 1 -1.1104 15.9994 12.5553 15.0222 6.93454
275 1 -1.1104 15.9994 12.5555 15.0245 9.75462
276 1 -1.1104 15.9994 1.353 17.8117 6.92393
277 1 -1.1104 15.9994 4.16702 17.8186 6.93351
278 1 -1.1104 15.9994 1.4485 17.7248 9.64783
279 1 -1.1104 15.9994 4.17521 17.8121 9.74563
280 1 -1.1104 15.9994 1.35126 20.6117 6.92409
281 1 -1.1104 15.9994 4.16763 20.6078 6.93356
282 1 -1.1104 15.9994 1.44946 20.7007 9.64851
283 1 -1.1104 15.9994 4.17122 20.6103 9.74243
284 1 -1.1104 15.9994 6.94031 17.8029 6.94183
285 1 -1.1104 15.9994 9.7584 17.7954 6.94347
286 1 -1.1104 15.9994 6.9611 17.8214 9.7295
287 1 -1.1104 15.9994 9.74924 17.8084 9.7244
288 1 -1.1104 15.9994 6.93968 20.6239 6.94447
289 1 -1.1104 15.9994 9.75919 20.6181 6.9434
290 1 -1.1104 15.9994 6.96732 20.6101 9.73345
291 1 -1.1104 15.9994 9.74225 20.6072 9.73412
292 1 -1.1104 15.9994 12.5332 17.807 6.94454
293 1 -1.1104 15.9994 12.5387 17.8027 9.73896
294 1 -1.1104 15.9994 12.5346 20.6005 6.94303
295 1 -1.1104 15.9994 12.5443 20.6056 9.74183
296 1 -1.1104 15.9994 1.35884 23.4056 6.94509
297 1 -1.1104 15.9994 4.157 23.4065 6.94628
298 1 -1.1104 15.9994 1.35259 23.4125 9.7453
299 1 -1.1104 15.9994 4.16826 23.4093 9.74485
300 1 -1.1104 15.9994 6.95946 23.4 6.95526
301 1 -1.1104 15.9994 9.7397 23.3976 6.95597
302 1 -1.1104 15.9994 6.94335 23.3899 9.74761
303 1 -1.1104 15.9994 9.75515 23.3916 9.74825
304 1 -1.1104 15.9994 12.5423 23.4006 6.95051
305 1 -1.1104 15.9994 12.5347 23.4012 9.74704
306 1 -1.1104 15.9994 1.32715 1.04888 12.5325
307 1 -1.1104 15.9994 4.11484 1.05466 12.538
308 1 -1.1104 15.9994 1.32484 3.83026 12.5332
309 1 -1.1104 15.9994 4.13691 3.85304 12.5478
310 1 -1.1104 15.9994 6.84556 1.15361 12.64
311 1 -1.1104 15.9994 9.84475 1.15326 12.6387
312 1 -1.1104 15.9994 6.94396 3.8783 12.5417
313 1 -1.1104 15.9994 9.74511 3.87624 12.5477
314 1 -1.1104 15.9994 12.5725 1.0624 12.5482
315 1 -1.1104 15.9994 12.5625 3.86369 12.5475
316 1 -1.1104 15.9994 1.44408 6.54572 12.6498
317 1 -1.1104 15.9994 4.16143 6.65376 12.5396
318 1 -1.1104 15.9994 1.43239 9.52442 12.6404
319 2 2.2208 232.038 5.49585 19.2015 13.9368
320 2 2.2208 232.038 -0.0547944 8.01026 13.8055
321 2 2.2208 232.038 13.9338 24.8286 22.3538
322 2 2.2208 232.038 -0.0251902 2.43477 13.9638
323 2 2.2208 232.038 13.8281 19.2232 22.345
324 2 2.2208 232.038 5.53217 2.43574 13.9787
325 2 2.2208 232.038 11.1583 2.43318 13.9823
326 2 2.2208 232.038 13.9436 5.21032 13.9639
327 1 -1.1104 15.9994 6.94604 23.4066 23.753
328 2 2.2208 232.038 8.34022 5.19143 13.9515
329 1 -1.1104 15.9994 4.16934 23.3989 26.5555
330 2 2.2208 232.038 11.1443 7.97573 13.9899
331 1 -1.1104 15.9994 1.45663 23.289 26.4826
332 3 -1.1104 15.9994 11.1374 19.211 22.3586
333 2 2.2208 232.038 8.32083 10.8011 13.9785
334 1 -1.1104 15.9994 4.17426 23.3882 23.7445
335 2 2.2208 232.038 11.156 13.6443 13.9878
336 1 -1.1104 15.9994 1.44018 23.2976 23.8248
337 3 -1.1104 15.9994 11.1456 8.05528 22.3415
338 2 2.2208 232.038 8.34622 16.4244 13.957
339 1 -1.1104 15.9994 12.5384 20.6015 26.5818
340 2 2.2208 232.038 11.1835 19.1964 13.9681
341 1 -1.1104 15.9994 12.6461 20.7054 23.8515
342 3 -1.1104 15.9994 -0.0553981 24.7799 22.3197
343 2 2.2208 232.038 8.34209 21.7286 13.9579
344 2 2.2208 232.038 5.24041 24.8227 13.9536
345 2 2.2208 232.038 11.4413 24.8231 13.9624
346 2 2.2208 232.038 2.7669 5.19579 13.9636
347 2 2.2208 232.038 2.75582 2.40396 16.77
348 2 2.2208 232.038 13.9239 13.6136 22.3501
349 2 2.2208 232.038 8.34286 24.8278 27.8742
350 2 2.2208 232.038 5.49737 22.0643 27.9124
351 2 2.2208 232.038 8.34811 2.40278 16.7459
352 2 2.2208 232.038 13.802 8.01398 22.3527
353 2 2.2208 232.038 5.57679 2.43224 19.537
354 2 2.2208 232.038 13.9067 2.44219 22.366
355 2 2.2208 232.038 11.1345 2.4336 19.571
356 2 2.2208 232.038 -0.0456332 5.22175 16.7358
357 2 2.2208 232.038 2.74274 7.97345 16.7056
358 2 2.2208 232.038 2.75912 5.19094 19.5639
359 3 -1.1104 15.9994 2.73881 10.8469 27.9364
360 2 2.2208 232.038 5.55363 5.20984 16.7537
361 2 2.2208 232.038 8.36389 7.99515 16.7675
362 2 2.2208 232.038 8.34026 5.18677 19.5453
363 2 2.2208 232.038 5.59826 7.9724 19.5679
364 2 2.2208 232.038 11.1405 5.22058 16.7782
365 2 2.2208 232.038 11.1515 8.00236 19.7017
366 4 2.2208 232.038 8.34275 24.8168 13.9551
367 2 2.2208 232.038 2.74911 13.6211 16.4503
368 2 2.2208 232.038 2.76016 10.503 19.5418
369 3 -1.1104 15.9994 2.73084 -0.328471 22.3633
370 2 2.2208 232.038 5.57596 10.7753 16.7242
371 2 2.2208 232.038 8.38464 13.6147 16.7274
372 2 2.2208 232.038 8.36057 10.7991 19.5353
373 2 2.2208 232.038 5.85405 13.6173 19.555
374 2 2.2208 232.038 11.1545 10.7971 16.7803
375 2 2.2208 232.038 11.1613 13.6126 19.5849
376 4 2.2208 232.038 2.76502 13.614 19.5605
377 2 2.2208 232.038 2.71891 19.2545 16.7081
378 2 2.2208 232.038 2.75357 16.728 19.547
379 1 -1.1104 15.9994 12.5507 23.4111 26.5613
380 2 2.2208 232.038 5.57026 16.4512 16.7258
381 2 2.2208 232.038 8.36446 19.2005 16.7965
382 2 2.2208 232.038 8.36535 16.4239 19.5387
383 2 2.2208 232.038 5.58773 19.253 19.57
384 2 2.2208 232.038 11.1606 16.4308 16.7802
385 2 2.2208 232.038 11.1647 19.2202 19.7002
386 1 -1.1104 15.9994 12.5428 23.4096 23.7514
387 2 2.2208 232.038 2.68603 24.8263 16.7991
388 2 2.2208 232.038 2.75523 22.0141 19.5335
389 1 -1.1104 15.9994 9.73886 23.4023 26.5689
390 2 2.2208 232.038 5.5149 22.0014 16.7787
391 2 2.2208 232.038 8.34623 24.8235 17.0542
392 2 2.2208 232.038 8.33265 22.0234 19.5696
393 2 2.2208 232.038 5.4936 24.8282 19.604
394 2 2.2208 232.038 11.1797 21.9858 16.8031
395 2 2.2208 232.038 11.1826 24.8281 19.6136
396 2 2.2208 232.038 11.1839 22.0408 27.8897
397 2 2.2208 232.038 2.7643 2.27782 22.3473
398 2 2.2208 232.038 2.58566 24.8502 27.9211
399 2 2.2208 232.038 11.1799 16.3994 27.8903
400 2 2.2208 232.038 8.35391 19.2212 27.6304
401 2 2.2208 232.038 8.36141 2.42161 22.3619
402 2 2.2208 232.038 13.9336 8.01079 16.7784
403 2 2.2208 232.038 5.59389 2.44445 25.1634
404 2 2.2208 232.038 13.932 2.42171 16.7573
405 2 2.2208 232.038 11.1389 2.43626 25.2591
406 2 2.2208 232.038 -0.0329574 5.19827 22.3487
407 2 2.2208 232.038 2.77721 7.97101 22.3984
408 2 2.2208 232.038 2.76678 5.21581 25.1452
409 2 2.2208 232.038 5.50291 16.3819 27.9221
410 2 2.2208 232.038 5.55957 5.20235 22.3533
411 2 2.2208 232.038 8.49826 7.99951 22.3595
412 2 2.2208 232.038 8.31706 5.21645 25.1396
413 2 2.2208 232.038 5.58579 7.98643 25.1334
414 2 2.2208 232.038 11.1416 5.32459 22.3667
415 2 2.2208 232.038 11.1455 7.9944 25.0256
416 2 2.2208 232.038 0.0222109 10.6975 22.481
417 2 2.2208 232.038 2.76184 13.6172 22.6683
418 2 2.2208 232.038 2.7704 10.7742 25.3361
419 2 2.2208 232.038 13.7954 2.42458 27.9409
420 2 2.2208 232.038 5.59236 10.7621 22.3998
421 2 2.2208 232.038 8.41199 13.6035 22.3792
422 2 2.2208 232.038 8.33003 10.8139 25.1802
423 2 2.2208 232.038 5.60253 13.6222 25.1534
424 2 2.2208 232.038 11.155 10.6608 22.3587
425 2 2.2208 232.038 11.16 13.6015 25.1153
426 1 -1.1104 15.9994 6.95479 23.3947 26.563
427 2 2.2208 232.038 2.74553 19.2751 22.3628
428 2 2.2208 232.038 2.75638 16.4306 25.1891
429 2 2.2208 232.038 0.0224378 19.1726 25.065
430 2 2.2208 232.038 5.59117 16.4629 22.3772
431 2 2.2208 232.038 8.49794 19.2302 22.3521
432 2 2.2208 232.038 8.34178 16.3674 25.1389
433 2 2.2208 232.038 5.53278 19.2297 25.1111
434 2 2.2208 232.038 11.1618 16.5487 22.3495
435 2 2.2208 232.038 11.1846 19.2227 24.9705
436 2 2.2208 232.038 -0.0543413 22.2178 22.352
437 2 2.2208 232.038 2.58641 24.8351 22.3633
438 2 2.2208 232.038 2.7777 22.0135 25.136
439 1 -1.1104 15.9994 9.74713 23.4124 23.7491
440 2 2.2208 232.038 5.54673 22.0397 22.3494
441 2 2.2208 232.038 8.36789 24.8303 22.3495
442 2 2.2208 232.038 8.32943 22.0784 25.1225
443 2 2.2208 232.038 5.50449 24.8325 25.1248
444 2 2.2208 232.038 11.159 21.9008 22.3495
445 2 2.2208 232.038 11.1614 24.8302 25.1029
446 1 -1.1104 15.9994 1.33465 1.05751 15.3329
447 1 -1.1104 15.9994 4.13236 1.06437 15.3405
448 1 -1.1104 15.9994 1.34127 3.84972 15.3487
449 1 -1.1104 15.9994 4.13894 3.85776 15.3506
450 1 -1.1104 15.9994 6.94206 1.06073 15.3631
451 1 -1.1104 15.9994 9.74991 1.05987 15.3637
452 1 -1.1104 15.9994 6.94022 3.86276 15.35
453 1 -1.1104 15.9994 9.75293 3.86442 15.3486
454 1 -1.1104 15.9994 12.5616 1.05943 15.3516
455 1 -1.1104 15.9994 12.5532 3.85876 15.3448
456 1 -1.1104 15.9994 1.33134 6.65248 15.3633
457 1 -1.1104 15.9994 4.14978 6.64748 15.3493
458 1 -1.1104 15.9994 1.35442 9.44649 15.3777
459 1 -1.1104 15.9994 4.14495 9.45424 15.3561
460 1 -1.1104 15.9994 6.94466 6.65784 15.3421
461 1 -1.1104 15.9994 9.74174 6.64829 15.3324
462 1 -1.1104 15.9994 6.94502 9.44151 15.3384
463 1 -1.1104 15.9994 9.74839 9.4524 15.3198
464 1 -1.1104 15.9994 12.555 6.64695 15.333
465 1 -1.1104 15.9994 12.5422 9.44758 15.3154
466 1 -1.1104 15.9994 1.32743 12.2238 15.3716
467 1 -1.1104 15.9994 4.16636 12.2228 15.3557
468 1 -1.1104 15.9994 1.33258 15.0298 15.3717
469 1 -1.1104 15.9994 4.16535 15.0364 15.357
470 1 -1.1104 15.9994 6.93901 12.2441 15.3459
471 1 -1.1104 15.9994 9.74336 12.2333 15.321
472 1 -1.1104 15.9994 6.94083 15.0235 15.3469
473 1 -1.1104 15.9994 9.74031 15.0336 15.3358
474 1 -1.1104 15.9994 12.5412 12.2319 15.3235
475 1 -1.1104 15.9994 12.5426 15.0292 15.3362
476 1 -1.1104 15.9994 1.36101 17.8068 15.3765
477 1 -1.1104 15.9994 4.1499 17.8063 15.3601
478 1 -1.1104 15.9994 1.34647 20.6047 15.366
479 1 -1.1104 15.9994 4.16246 20.6139 15.3477
480 1 -1.1104 15.9994 6.95113 17.8324 15.3367
481 1 -1.1104 15.9994 9.73802 17.8272 15.3277
482 1 -1.1104 15.9994 6.93312 20.6073 15.3554
483 1 -1.1104 15.9994 9.75915 20.6122 15.3445
484 1 -1.1104 15.9994 12.5445 17.8148 15.3316
485 1 -1.1104 15.9994 12.5394 20.6161 15.3272
486 1 -1.1104 15.9994 1.36881 23.4079 15.3439
487 1 -1.1104 15.9994 4.16159 23.3861 15.3588
488 1 -1.1104 15.9994 7.01663 23.4608 15.2704
489 1 -1.1104 15.9994 9.67552 23.4626 15.2637
490 1 -1.1104 15.9994 12.5381 23.3848 15.3494
491 1 -1.1104 15.9994 1.33185 1.06681 18.1229
492 1 -1.1104 15.9994 4.14253 1.06359 18.1261
493 1 -1.1104 15.9994 1.24309 1.15703 20.8574
494 1 -1.1104 15.9994 4.23394 1.15269 20.8526
495 1 -1.1104 15.9994 1.3335 3.87097 18.1395
496 1 -1.1104 15.9994 4.14152 3.86874 18.1378
497 1 -1.1104 15.9994 1.33173 3.88547 20.9458
498 1 -1.1104 15.9994 4.13899 3.88181 20.9495
499 1 -1.1104 15.9994 6.95006 1.06337 18.1452
500 1 -1.1104 15.9994 9.75329 1.05844 18.1517
501 1 -1.1104 15.9994 6.9661 1.0602 20.9491
502 1 -1.1104 15.9994 9.7545 1.04678 20.9379
503 1 -1.1104 15.9994 6.94317 3.85854 18.1378
504 1 -1.1104 15.9994 9.74339 3.84674 18.1349
505 1 -1.1104 15.9994 6.94051 3.85612 20.9388
506 1 -1.1104 15.9994 9.74908 3.83393 20.94
507 1 -1.1104 15.9994 12.552 1.05575 18.1439
508 1 -1.1104 15.9994 12.5586 1.04532 20.9384
509 1 -1.1104 15.9994 12.5561 3.84453 18.1349
510 1 -1.1104 15.9994 12.5525 3.82974 20.9356
511 1 -1.1104 15.9994 1.34343 6.66874 18.1571
512 1 -1.1104 15.9994 4.13419 6.6717 18.1502
513 1 -1.1104 15.9994 1.3351 6.68638 20.9469
514 1 -1.1104 15.9994 4.12478 6.67478 20.9364
515 1 -1.1104 15.9994 1.31805 9.45988 18.1442
516 1 -1.1104 15.9994 4.15542 9.44878 18.1233
517 1 -1.1104 15.9994 1.31346 9.46242 20.9572
518 1 -1.1104 15.9994 4.14465 9.45143 20.9598
519 1 -1.1104 15.9994 6.9358 6.64939 18.1339
520 1 -1.1104 15.9994 9.74864 6.65284 18.1228
521 1 -1.1104 15.9994 6.92397 6.65214 20.9518
522 1 -1.1104 15.9994 9.64457 6.55053 20.8436
523 1 -1.1104 15.9994 6.92965 9.45431 18.1396
524 1 -1.1104 15.9994 9.73482 9.44631 18.1115
525 1 -1.1104 15.9994 6.90747 9.45601 20.9292
526 1 -1.1104 15.9994 9.64853 9.528 20.8544
527 1 -1.1104 15.9994 12.5454 6.64761 18.12
528 1 -1.1104 15.9994 12.6473 6.5476 20.849
529 1 -1.1104 15.9994 12.5503 9.44338 18.1149
530 1 -1.1104 15.9994 12.6443 9.53295 20.844
531 1 -1.1104 15.9994 1.40194 12.3145 18.228
532 1 -1.1104 15.9994 4.06922 12.3011 18.2115
533 1 -1.1104 15.9994 1.23705 12.3189 20.8601
534 1 -1.1104 15.9994 4.02576 12.2966 20.8792
535 1 -1.1104 15.9994 1.41578 14.9527 18.2235
536 1 -1.1104 15.9994 4.07304 14.9575 18.2153
537 1 -1.1104 15.9994 1.39796 14.9444 20.8681
538 1 -1.1104 15.9994 4.06491 14.9586 20.8803
539 1 -1.1104 15.9994 6.92972 12.2262 18.1193
540 1 -1.1104 15.9994 9.72338 12.2457 18.1326
541 1 -1.1104 15.9994 6.9212 12.2246 20.9608
542 1 -1.1104 15.9994 9.71995 12.2529 20.932
543 1 -1.1104 15.9994 6.9293 15.0364 18.1257
544 1 -1.1104 15.9994 9.72188 15.0184 18.1346
545 1 -1.1104 15.9994 6.92499 15.0372 20.9589
546 1 -1.1104 15.9994 9.72087 15.0114 20.9405
547 1 -1.1104 15.9994 12.5425 12.2413 18.1278
548 1 -1.1104 15.9994 12.5438 12.2459 20.9436
549 1 -1.1104 15.9994 12.5417 15.0192 18.1338
550 1 -1.1104 15.9994 12.5397 15.0161 20.9462
551 1 -1.1104 15.9994 1.32738 17.7969 18.1455
552 1 -1.1104 15.9994 4.16013 17.8106 18.1316
553 1 -1.1104 15.9994 1.32376 17.7878 20.9643
554 1 -1.1104 15.9994 4.15039 17.8067 20.9663
555 1 -1.1104 15.9994 1.35678 20.5812 18.1529
556 1 -1.1104 15.9994 4.14566 20.5826 18.1477
557 1 -1.1104 15.9994 1.34684 20.5593 20.9482
558 1 -1.1104 15.9994 4.14324 20.5835 20.9378
559 1 -1.1104 15.9994 6.93046 17.808 18.1436
560 1 -1.1104 15.9994 9.73941 17.8156 18.1214
561 1 -1.1104 15.9994 6.91476 17.8098 20.9407
562 1 -1.1104 15.9994 9.64593 17.7304 20.8571
563 1 -1.1104 15.9994 6.94284 20.6138 18.131
564 1 -1.1104 15.9994 9.73504 20.6139 18.1162
565 1 -1.1104 15.9994 6.92648 20.6055 20.9542
566 1 -1.1104 15.9994 9.65106 20.6978 20.8493
567 1 -1.1104 15.9994 12.5409 17.8194 18.1207
568 1 -1.1104 15.9994 12.6414 17.7246 20.85
569 1 -1.1104 15.9994 12.5456 20.6041 18.1238
570 1 -1.1104 15.9994 12.6406 20.7032 20.8488
571 1 -1.1104 15.9994 1.3511 23.3859 18.1238
572 1 -1.1104 15.9994 4.16035 23.3979 18.1318
573 1 -1.1104 15.9994 1.44527 23.2987 20.844
574 1 -1.1104 15.9994 4.16753 23.3855 20.9405
575 1 -1.1104 15.9994 6.93219 23.387 18.1306
576 1 -1.1104 15.9994 9.75349 23.391 18.1259
577 1 -1.1104 15.9994 6.94939 23.4054 20.9266
578 1 -1.1104 15.9994 9.741 23.4141 20.9318
579 1 -1.1104 15.9994 12.5431 23.4109 18.13
580 1 -1.1104 15.9994 12.546 23.4096 20.9456
581 1 -1.1104 15.9994 1.23854 1.14572 23.8656
582 1 -1.1104 15.9994 4.23923 1.15688 23.8549
583 1 -1.1104 15.9994 1.34335 1.08121 26.5892
584 1 -1.1104 15.9994 4.12588 1.04628 26.5797
585 1 -1.1104 15.9994 1.33362 3.87939 23.7586
586 1 -1.1104 15.9994 4.13256 3.87524 23.7506
587 1 -1.1104 15.9994 1.32459 3.84795 26.5662
588 1 -1.1104 15.9994 4.1357 3.85484 26.5583
589 1 -1.1104 15.9994 6.95649 1.05212 23.7462
590 1 -1.1104 15.9994 9.7579 1.05077 23.7345
591 1 -1.1104 15.9994 6.92973 1.0634 26.5647
592 1 -1.1104 15.9994 9.64686 0.95308 26.453
593 1 -1.1104 15.9994 6.93643 3.85565 23.7497
594 1 -1.1104 15.9994 9.74973 3.83253 23.7266
595 1 -1.1104 15.9994 6.91827 3.85114 26.5626
596 1 -1.1104 15.9994 9.64423 3.93724 26.4633
597 1 -1.1104 15.9994 12.5558 1.04304 23.7295
598 1 -1.1104 15.9994 12.6457 0.957992 26.4549
599 1 -1.1104 15.9994 12.549 3.83256 23.7278
600 1 -1.1104 15.9994 12.6515 3.93582 26.4631
601 1 -1.1104 15.9994 1.32421 6.65241 23.7427
602 1 -1.1104 15.9994 4.13894 6.64887 23.7509
603 1 -1.1104 15.9994 1.34124 6.62702 26.5504
604 1 -1.1104 15.9994 4.12921 6.62968 26.5569
605 1 -1.1104 15.9994 1.3735 9.42217 23.7507
606 1 -1.1104 15.9994 4.11773 9.45964 23.7236
607 1 -1.1104 15.9994 1.23471 9.34489 26.4506
608 1 -1.1104 15.9994 4.24564 9.3351 26.4495
609 1 -1.1104 15.9994 6.91963 6.65356 23.7359
610 1 -1.1104 15.9994 9.64506 6.55544 23.843
611 1 -1.1104 15.9994 6.93465 6.64615 26.5561
612 1 -1.1104 15.9994 9.7525 6.67092 26.5751
613 1 -1.1104 15.9994 6.92916 9.4372 23.7524
614 1 -1.1104 15.9994 9.64726 9.53633 23.8459
615 1 -1.1104 15.9994 6.95173 9.45677 26.5671
616 1 -1.1104 15.9994 9.74579 9.45358 26.5805
617 1 -1.1104 15.9994 12.6503 6.55617 23.8387
618 1 -1.1104 15.9994 12.5433 6.66776 26.5739
619 1 -1.1104 15.9994 12.6443 9.53102 23.8503
620 1 -1.1104 15.9994 12.5583 9.45431 26.5818
621 1 -1.1104 15.9994 1.30992 12.2237 23.7057
622 1 -1.1104 15.9994 4.1559 12.2163 23.7223
623 1 -1.1104 15.9994 1.25019 12.3268 26.4227
624 1 -1.1104 15.9994 4.23238 12.3382 26.4376
625 1 -1.1104 15.9994 1.31901 15.0367 23.7265
626 1 -1.1104 15.9994 4.15757 15.0507 23.7397
627 1 -1.1104 15.9994 1.34068 15.048 26.5278
628 1 -1.1104 15.9994 4.13784 15.0408 26.5318
629 1 -1.1104 15.9994 6.93524 12.2526 23.7396
630 1 -1.1104 15.9994 9.73875 12.2479 23.7587
631 1 -1.1104 15.9994 6.9567 12.2397 26.5552
632 1 -1.1104 15.9994 9.75221 12.2489 26.564
633 1 -1.1104 15.9994 6.92997 15.0202 23.7448
634 1 -1.1104 15.9994 9.74076 15.017 23.7551
635 1 -1.1104 15.9994 6.95016 15.0379 26.559
636 1 -1.1104 15.9994 9.734 15.0248 26.5709
637 1 -1.1104 15.9994 12.5493 12.2469 23.7522
638 1 -1.1104 15.9994 12.5491 12.2462 26.5712
639 1 -1.1104 15.9994 12.5417 15.0166 23.7544
640 1 -1.1104 15.9994 12.552 15.0182 26.5626
641 1 -1.1104 15.9994 1.3624 17.7824 23.7334
642 1 -1.1104 15.9994 4.12528 17.8085 23.7482
643 1 -1.1104 15.9994 1.33757 17.8133 26.5345
644 1 -1.1104 15.9994 4.14348 17.832 26.5535
645 1 -1.1104 15.9994 1.34553 20.5665 23.7485
646 1 -1.1104 15.9994 4.14262 20.5947 23.7563
647 1 -1.1104 15.9994 1.15952 20.5713 26.5643
648 1 -1.1104 15.9994 4.11989 20.5904 26.5556
649 1 -1.1104 15.9994 6.92421 17.8206 23.7713
650 1 -1.1104 15.9994 9.64007 17.7307 23.8658
651 1 -1.1104 15.9994 6.91935 17.8012 26.567
652 1 -1.1104 15.9994 9.75664 17.7982 26.5859
653 1 -1.1104 15.9994 6.92503 20.6022 23.7618
654 1 -1.1104 15.9994 9.64327 20.6971 23.8691
655 1 -1.1104 15.9994 6.91617 20.6264 26.569