ITEM: TIMESTEP
50000
ITEM: NUMBER OF ATOMS
18000
ITEM: BOX BOUNDS xy xz yz pp pp pp
-1.4047332653246694e-01 2.8034473326532101e+01 0.0000000000000000e+00
-1.5512791945964193e+00 3.3627927919459881e+02 0.0000000000000000e+00
-1.5322877461238585e-01 2.8047228774612012e+01 0.0000000000000000e+00
ITEM: ATOMS id type q mass x y z
3 2 2.2208 232.038 2.47689 -1.29493 2.75795
57 2 2.2208 232.038 8.16442 -1.33506 8.31898
8992 2 2.2208 232.038 13.794 4.17624 2.76843
4 1 -1.1104 15.9994 12.7243 22.5417 12.3933
343 2 2.2208 232.038 8.29219 15.3994 13.8598
349 2 2.2208 232.038 5.25609 23.8576 13.8008
9096 2 2.2208 232.038 13.8568 18.5727 11.0321
8 2 2.2208 232.038 5.39807 1.36343 2.5727
9 1 -1.1104 15.9994 12.5485 8.37963 12.5968
10 2 2.2208 232.038 10.984 1.4149 2.60975
11 1 -1.1104 15.9994 9.93919 22.5822 12.2318
8991 2 2.2208 232.038 13.7222 12.5367 5.53178
13 2 2.2208 232.038 2.57274 4.23049 2.64427
14 1 -1.1104 15.9994 7.16581 22.591 12.514
324 1 -1.1104 15.9994 12.6982 5.46462 12.6105
59 2 2.2208 232.038 10.9782 -1.37163 5.41013
17 2 2.2208 232.038 8.08432 3.9926 2.59927
18 2 2.2208 232.038 5.47892 6.89331 2.619
338 2 2.2208 232.038 8.3526 9.77241 13.8429
20 2 2.2208 232.038 10.9443 6.89935 2.60517
21 1 -1.1104 15.9994 4.26226 22.6457 11.9186
22 1 -1.1104 15.9994 1.39013 16.6357 12.1078
23 2 2.2208 232.038 2.61987 9.72311 2.59067
323 1 -1.1104 15.9994 9.55299 8.4139 12.4173
6 2 2.2208 232.038 13.8037 18.2891 5.37806
328 2 2.2208 232.038 8.15541 -1.44215 13.8097
27 2 2.2208 232.038 8.16615 9.68194 2.74096
28 2 2.2208 232.038 5.52719 12.6654 2.64077
9052 2 2.2208 232.038 13.7637 9.86577 8.35405
30 2 2.2208 232.038 11.101 12.5088 2.64681
31 1 -1.1104 15.9994 12.4905 14.0086 12.2926
32 1 -1.1104 15.9994 12.8305 11.2812 12.6447
33 2 2.2208 232.038 2.65114 15.3433 2.55146
350 2 2.2208 232.038 10.9885 23.8611 13.8082
35 1 -1.1104 15.9994 9.68737 14.0351 12.3716
36 1 -1.1104 15.9994 7.06454 13.9393 12.6109
37 2 2.2208 232.038 8.40854 15.4009 2.5601
38 2 2.2208 232.038 5.35514 18.2245 2.48673
39 1 -1.1104 15.9994 9.70921 11.3082 12.3967
40 2 2.2208 232.038 10.9995 18.2994 2.37082
41 1 -1.1104 15.9994 7.00617 11.1181 12.3473
42 1 -1.1104 15.9994 4.20422 13.9911 12.5277
43 2 2.2208 232.038 2.51567 21.1723 2.55757
9002 2 2.2208 232.038 13.8319 9.77995 2.78846
45 1 -1.1104 15.9994 1.29415 13.7077 12.466
46 1 -1.1104 15.9994 4.13065 11.0605 12.6363
47 2 2.2208 232.038 8.19027 21.1522 2.58334
48 2 2.2208 232.038 5.31101 23.8309 2.56857
49 1 -1.1104 15.9994 1.33775 11.1398 12.4148
50 2 2.2208 232.038 11.078 23.7429 2.49409
51 1 -1.1104 15.9994 1.30036 22.3016 12.0346
52 2 2.2208 232.038 2.53481 1.48154 5.45692
344 2 2.2208 232.038 5.50559 18.3379 13.7359
54 1 -1.1104 15.9994 12.4193 19.6415 12.4177
341 2 2.2208 232.038 2.86236 15.3904 13.8478
56 2 2.2208 232.038 8.21935 1.39587 5.54661
103 2 2.2208 232.038 5.3445 -1.46011 11.163
58 2 2.2208 232.038 5.2573 1.21737 8.3942
53 2 2.2208 232.038 2.6275 -1.38791 8.13489
60 2 2.2208 232.038 11.0698 1.38332 8.23046
61 1 -1.1104 15.9994 12.3182 16.564 12.3472
62 2 2.2208 232.038 2.56571 7.1257 5.39367
63 2 2.2208 232.038 2.54562 4.18058 8.26268
64 1 -1.1104 15.9994 9.52816 19.6908 12.2397
65 2 2.2208 232.038 5.47652 4.14365 5.52437
66 2 2.2208 232.038 8.11979 7.03751 5.56745
67 2 2.2208 232.038 8.24429 4.13094 8.15061
68 2 2.2208 232.038 5.34248 7.12819 8.24034
69 2 2.2208 232.038 11.0685 4.11337 5.42226
70 2 2.2208 232.038 11.0393 7.03224 8.43604
71 1 -1.1104 15.9994 6.85195 19.7921 12.3362
72 2 2.2208 232.038 2.54833 12.6239 5.28762
73 2 2.2208 232.038 2.6788 9.91174 8.21204
74 1 -1.1104 15.9994 9.61283 16.8857 12.504
75 2 2.2208 232.038 5.46646 9.91673 5.52649
76 2 2.2208 232.038 8.1502 12.7047 5.44562
77 2 2.2208 232.038 8.25964 9.9262 8.35079
78 2 2.2208 232.038 5.43799 12.5934 8.29631
79 2 2.2208 232.038 10.9641 9.72826 5.48907
80 2 2.2208 232.038 11.1518 12.5994 8.22445
322 1 -1.1104 15.9994 6.86226 8.17044 12.3114
82 2 2.2208 232.038 2.74285 18.114 5.51768
83 2 2.2208 232.038 2.66376 15.3395 8.17003
7 2 2.2208 232.038 8.16243 -1.34099 2.71075
85 2 2.2208 232.038 5.5106 15.2614 5.3689
86 2 2.2208 232.038 8.17747 18.2527 5.30497
87 2 2.2208 232.038 8.37431 15.4293 8.1002
88 2 2.2208 232.038 5.43514 18.1715 8.31054
89 2 2.2208 232.038 11.0532 15.4682 5.29818
90 2 2.2208 232.038 10.892 18.2222 8.17318
8981 2 2.2208 232.038 -0.121363 15.4078 10.9839
92 2 2.2208 232.038 2.44022 23.7866 5.38253
93 2 2.2208 232.038 2.48708 20.8793 8.10692
345 2 2.2208 232.038 11.0852 18.0718 13.7776
95 2 2.2208 232.038 5.45068 21.0295 5.32495
96 2 2.2208 232.038 8.25577 23.8206 5.47147
97 2 2.2208 232.038 8.15494 21.1326 8.27382
98 2 2.2208 232.038 5.2989 23.7307 8.19409
99 2 2.2208 232.038 11.0923 20.8775 5.4059
100 2 2.2208 232.038 11.1078 23.3662 8.27086
101 1 -1.1104 15.9994 7.09482 16.7588 12.3605
102 2 2.2208 232.038 2.54597 1.31611 11.2537
342 1 -1.1104 15.9994 3.97434 22.3709 1.07245
104 2 2.2208 232.038 8.20201 1.36767 11.0176
12 2 2.2208 232.038 13.8941 21.0889 2.52884
106 1 -1.1104 15.9994 4.10019 19.8419 12.408
107 2 2.2208 232.038 2.54447 7.16628 10.837
108 2 2.2208 232.038 5.30918 4.08666 11.013
109 2 2.2208 232.038 8.3025 6.98452 11.122
110 2 2.2208 232.038 11.0611 4.11178 11.142
111 1 -1.1104 15.9994 1.18879 19.2831 12.3891
112 2 2.2208 232.038 2.77584 12.5933 11.1199
113 2 2.2208 232.038 5.49796 9.74422 11.1589
114 2 2.2208 232.038 8.40442 12.7058 11.1241
115 2 2.2208 232.038 11.2708 9.84323 11.0853
116 1 -1.1104 15.9994 4.24919 16.8931 12.3569
117 2 2.2208 232.038 2.63789 18.2532 10.9899
118 2 2.2208 232.038 5.52703 15.2371 10.9832
119 2 2.2208 232.038 8.12556 18.2029 10.9542
120 2 2.2208 232.038 11.0403 15.4315 10.9447
321 1 -1.1104 15.9994 9.80327 5.48097 12.5594
122 2 2.2208 232.038 2.61109 23.6941 10.8667
123 2 2.2208 232.038 5.49468 21.1118 10.8679
124 2 2.2208 232.038 8.39888 23.9373 11.1138
125 2 2.2208 232.038 11.0359 21.0459 11.0464
126 1 -1.1104 15.9994 1.08346 0.0210581 1.14275
127 1 -1.1104 15.9994 3.82457 -0.0828352 1.12733
128 1 -1.1104 15.9994 1.17678 0.0536848 4.05702
129 1 -1.1104 15.9994 4.12035 -0.119857 3.92638
130 1 -1.1104 15.9994 0.948726 3.01751 1.20334
131 1 -1.1104 15.9994 4.05867 2.90032 1.21261
132 1 -1.1104 15.9994 1.29858 2.8198 4.07656
133 1 -1.1104 15.9994 4.01673 2.65841 3.95769
134 1 -1.1104 15.9994 6.69611 -0.0932324 1.07082
135 1 -1.1104 15.9994 9.38214 0.023636 1.21977
5 2 2.2208 232.038 13.8902 15.4968 8.18092
137 1 -1.1104 15.9994 9.5282 0.158229 4.02977
138 1 -1.1104 15.9994 6.78383 2.68802 1.24983
139 1 -1.1104 15.9994 9.56637 2.79015 1.27579
140 1 -1.1104 15.9994 6.81303 -0.0879263 4.07732
141 1 -1.1104 15.9994 9.48236 2.73898 4.06025
142 1 -1.1104 15.9994 12.2244 -0.0880899 1.30543
143 1 -1.1104 15.9994 12.7094 -0.0876835 4.13517
144 1 -1.1104 15.9994 12.4584 2.60881 1.36437
145 1 -1.1104 15.9994 12.4566 2.68115 4.14585
146 1 -1.1104 15.9994 0.995047 5.65677 1.03914
147 1 -1.1104 15.9994 3.94596 5.57984 1.10133
148 1 -1.1104 15.9994 1.09123 5.58586 3.89194
149 1 -1.1104 15.9994 4.00289 5.51008 4.07353
150 1 -1.1104 15.9994 1.183 8.27632 1.34849
151 1 -1.1104 15.9994 3.97304 8.37329 1.2698
152 1 -1.1104 15.9994 1.02283 8.49513 4.13591
153 1 -1.1104 15.9994 3.91381 8.24802 3.9573
154 1 -1.1104 15.9994 6.65563 5.57359 1.06644
155 1 -1.1104 15.9994 9.44454 5.49431 1.23217
156 1 -1.1104 15.9994 6.68761 2.72642 3.99975
157 1 -1.1104 15.9994 9.62127 5.30145 3.98251
158 1 -1.1104 15.9994 6.82473 8.2881 1.25711
159 1 -1.1104 15.9994 9.6504 8.3244 1.30296
160 1 -1.1104 15.9994 6.84875 5.46993 3.91381
161 1 -1.1104 15.9994 9.54541 8.17075 4.0178
162 1 -1.1104 15.9994 12.3934 5.62209 1.20923
163 1 -1.1104 15.9994 12.311 5.70351 3.89315
164 1 -1.1104 15.9994 12.3824 8.48391 1.31989
165 1 -1.1104 15.9994 12.2777 8.46631 4.19275
166 1 -1.1104 15.9994 1.30756 11.1465 1.21941
167 1 -1.1104 15.9994 4.21406 11.1855 1.23687
168 1 -1.1104 15.9994 1.25919 11.1378 4.07943
169 1 -1.1104 15.9994 4.32774 11.1567 3.93957
170 1 -1.1104 15.9994 1.18883 14.065 1.18496
171 1 -1.1104 15.9994 3.98786 13.9849 1.05257
172 1 -1.1104 15.9994 1.2028 13.8345 3.99365
173 1 -1.1104 15.9994 3.90012 13.8931 3.80435
174 1 -1.1104 15.9994 7.10152 11.0326 1.19093
175 1 -1.1104 15.9994 9.7548 11.2137 1.32372
176 1 -1.1104 15.9994 6.77508 8.48769 4.17147
177 1 -1.1104 15.9994 9.57867 10.9509 4.02204
178 1 -1.1104 15.9994 6.81392 13.8537 1.21888
179 1 -1.1104 15.9994 9.5871 14.0602 1.08798
180 1 -1.1104 15.9994 6.90412 11.253 4.07079
181 1 -1.1104 15.9994 9.81186 13.9046 3.9923
182 1 -1.1104 15.9994 12.4603 11.2228 1.22966
183 1 -1.1104 15.9994 12.3612 11.121 4.13349
184 1 -1.1104 15.9994 12.4285 13.9813 1.07372
185 1 -1.1104 15.9994 12.6841 13.8045 3.78739
186 1 -1.1104 15.9994 1.21645 16.8346 1.37739
187 1 -1.1104 15.9994 4.03631 16.8298 1.22441
188 1 -1.1104 15.9994 1.48624 16.7463 3.99869
189 1 -1.1104 15.9994 4.25748 16.7475 4.08662
190 1 -1.1104 15.9994 1.20419 19.5749 1.25791
191 1 -1.1104 15.9994 4.05078 19.5907 1.14973
192 1 -1.1104 15.9994 1.10942 19.4199 4.14498
193 1 -1.1104 15.9994 4.08159 19.6418 4.01404
194 1 -1.1104 15.9994 6.96419 16.6559 0.850767
195 1 -1.1104 15.9994 9.61849 16.7784 1.13413
196 1 -1.1104 15.9994 6.98594 14.1043 4.02296
197 1 -1.1104 15.9994 9.61159 16.5473 3.99768
198 1 -1.1104 15.9994 6.90171 19.6916 3.94584
199 1 -1.1104 15.9994 9.60111 19.5885 0.969883
200 1 -1.1104 15.9994 6.96608 16.8924 3.8933
201 1 -1.1104 15.9994 9.70309 19.5298 3.85326
202 1 -1.1104 15.9994 12.4499 16.9933 1.04021
203 1 -1.1104 15.9994 12.3792 17.0085 3.71624
204 1 -1.1104 15.9994 12.2551 19.7505 1.12703
205 1 -1.1104 15.9994 12.6063 19.7749 3.93174
206 1 -1.1104 15.9994 1.10787 22.3459 1.23989
207 1 -1.1104 15.9994 6.70942 22.2056 1.38294
208 1 -1.1104 15.9994 1.13252 22.357 3.9387
209 1 -1.1104 15.9994 3.99985 22.354 3.8263
210 1 -1.1104 15.9994 6.89066 19.5875 1.29757
211 1 -1.1104 15.9994 9.76013 22.328 1.2942
212 1 -1.1104 15.9994 6.93775 22.4545 4.08532
213 1 -1.1104 15.9994 9.73734 22.503 4.05074
214 1 -1.1104 15.9994 12.4966 22.4377 0.924373
215 1 -1.1104 15.9994 12.5714 22.452 3.85934
216 1 -1.1104 15.9994 1.29482 0.0467408 6.81282
217 1 -1.1104 15.9994 4.11992 0.0397869 6.87391
218 1 -1.1104 15.9994 1.26002 0.265217 9.69671
219 1 -1.1104 15.9994 3.92977 -0.0839698 9.7976
220 1 -1.1104 15.9994 1.1526 2.8428 6.91011
221 1 -1.1104 15.9994 4.08588 2.63859 6.84857
222 1 -1.1104 15.9994 1.09973 2.94272 9.60397
223 1 -1.1104 15.9994 3.85943 2.76131 9.74733
224 1 -1.1104 15.9994 6.8648 -0.299963 6.82458
225 1 -1.1104 15.9994 9.62053 -0.10073 6.84656
226 1 -1.1104 15.9994 6.71346 -0.095499 9.88227
227 1 -1.1104 15.9994 9.50922 -0.0166889 9.56349
228 1 -1.1104 15.9994 6.82032 2.63787 6.75002
229 1 -1.1104 15.9994 9.62893 2.73831 6.84197
230 1 -1.1104 15.9994 6.78065 2.65924 9.35619
231 1 -1.1104 15.9994 9.50826 2.63009 9.43813
232 1 -1.1104 15.9994 12.4372 -0.0514192 6.85387
233 1 -1.1104 15.9994 12.4837 -0.0135827 9.6443
234 1 -1.1104 15.9994 12.5275 2.70108 6.87501
235 1 -1.1104 15.9994 12.4216 2.79619 9.64246
236 1 -1.1104 15.9994 1.16405 5.54911 6.7277
237 1 -1.1104 15.9994 3.9614 5.63323 6.77253
238 1 -1.1104 15.9994 1.10719 5.64908 9.5544
239 1 -1.1104 15.9994 3.90511 5.68618 9.76992
240 1 -1.1104 15.9994 1.14334 8.34205 6.88292
241 1 -1.1104 15.9994 3.98707 8.51405 6.709
242 1 -1.1104 15.9994 1.19428 8.42225 9.53418
243 1 -1.1104 15.9994 4.06503 8.43885 9.41057
244 1 -1.1104 15.9994 6.74556 5.59643 6.93451
245 1 -1.1104 15.9994 9.43717 5.51115 6.70789
246 1 -1.1104 15.9994 6.609 5.68821 9.74235
247 1 -1.1104 15.9994 9.69389 5.32223 9.61552
248 1 -1.1104 15.9994 6.75532 8.45372 6.95796
249 1 -1.1104 15.9994 9.64765 8.40632 6.93769
250 1 -1.1104 15.9994 6.89317 8.51876 9.64709
251 1 -1.1104 15.9994 9.67473 8.27607 9.74707
252 1 -1.1104 15.9994 12.4002 5.40607 6.76502
253 1 -1.1104 15.9994 12.3845 5.70312 9.65493
254 1 -1.1104 15.9994 12.4892 8.22137 7.12742
255 1 -1.1104 15.9994 12.4632 8.44054 9.86085
256 1 -1.1104 15.9994 1.18898 11.2203 6.90095
257 1 -1.1104 15.9994 4.03943 11.3573 6.64864
258 1 -1.1104 15.9994 1.24725 11.2404 9.72446
259 1 -1.1104 15.9994 3.99247 11.1562 9.51506
260 1 -1.1104 15.9994 1.43958 13.9879 6.55714
261 1 -1.1104 15.9994 4.1355 14.0427 6.68897
262 1 -1.1104 15.9994 1.34865 13.9235 9.70036
263 1 -1.1104 15.9994 4.16834 13.8831 9.61758
264 1 -1.1104 15.9994 6.78676 11.1572 6.93253
265 1 -1.1104 15.9994 9.70804 11.2346 6.93269
266 1 -1.1104 15.9994 6.81181 11.3481 9.7108
267 1 -1.1104 15.9994 9.82851 11.2111 9.65912
268 1 -1.1104 15.9994 6.87228 13.8877 6.95487
269 1 -1.1104 15.9994 9.62676 13.9764 6.65988
270 1 -1.1104 15.9994 6.99982 14.0654 9.84477
271 1 -1.1104 15.9994 9.78224 13.937 9.55291
272 1 -1.1104 15.9994 12.3497 11.079 6.90966
273 1 -1.1104 15.9994 12.5175 11.2751 9.73173
274 1 -1.1104 15.9994 12.4798 13.9197 6.82876
275 1 -1.1104 15.9994 12.5898 13.9965 9.52725
276 1 -1.1104 15.9994 1.18788 16.5859 6.78207
277 1 -1.1104 15.9994 4.05301 16.8749 6.87621
278 1 -1.1104 15.9994 1.23803 16.7357 9.53134
279 1 -1.1104 15.9994 4.12559 16.5124 9.53234
280 1 -1.1104 15.9994 1.22514 19.3723 6.7368
281 1 -1.1104 15.9994 4.09556 19.766 6.77031
282 1 -1.1104 15.9994 1.2111 19.4471 9.44711
283 1 -1.1104 15.9994 4.05788 19.5328 9.62817
284 1 -1.1104 15.9994 6.94014 16.7536 6.69272
285 1 -1.1104 15.9994 9.80462 16.852 6.70835
286 1 -1.1104 15.9994 6.82759 16.9205 9.56814
287 1 -1.1104 15.9994 9.62249 16.744 9.41028
288 1 -1.1104 15.9994 6.75264 19.6678 6.82112
289 1 -1.1104 15.9994 9.3989 19.6866 6.70597
290 1 -1.1104 15.9994 6.77295 19.6509 9.61698
291 1 -1.1104 15.9994 9.64497 19.5028 9.56401
292 1 -1.1104 15.9994 12.6672 16.7367 6.55823
293 1 -1.1104 15.9994 12.4681 17.0003 9.58184
294 1 -1.1104 15.9994 12.4792 19.6586 6.91518
295 1 -1.1104 15.9994 12.255 19.6568 9.5013
296 1 -1.1104 15.9994 1.04928 22.3344 6.70954
297 1 -1.1104 15.9994 4.02044 22.6207 6.77097
298 1 -1.1104 15.9994 1.16175 22.2051 9.45955
299 1 -1.1104 15.9994 4.01732 22.3532 9.54039
300 1 -1.1104 15.9994 6.96651 22.4486 6.89804
301 1 -1.1104 15.9994 9.77749 22.1445 6.94988
302 1 -1.1104 15.9994 6.90884 22.5886 9.71609
303 1 -1.1104 15.9994 9.59025 22.4484 9.58561
304 1 -1.1104 15.9994 12.5515 22.547 6.70118
305 1 -1.1104 15.9994 12.6404 22.3055 9.59124
306 1 -1.1104 15.9994 1.09695 -0.184849 12.3968
307 1 -1.1104 15.9994 3.70745 -0.348282 12.5061
308 1 -1.1104 15.9994 1.0571 2.80456 12.4142
309 1 -1.1104 15.9994 4.04649 2.70159 12.5554
310 1 -1.1104 15.9994 6.67493 -0.204528 12.6274
311 1 -1.1104 15.9994 9.46116 -0.0258333 12.4165
312 1 -1.1104 15.9994 6.83622 2.60881 12.3761
313 1 -1.1104 15.9994 9.56462 2.66999 12.3429
314 1 -1.1104 15.9994 12.3328 -0.0234906 12.5799
315 1 -1.1104 15.9994 12.2569 2.66814 12.5289
316 1 -1.1104 15.9994 1.27636 5.64126 12.5365
317 1 -1.1104 15.9994 4.14674 5.59561 12.3993
318 1 -1.1104 15.9994 1.33334 8.45142 12.483
319 1 -1.1104 15.9994 3.94938 8.46831 12.299
320 1 -1.1104 15.9994 7.01465 5.26305 12.2009
8994 2 2.2208 232.038 -0.110324 6.90734 8.19551
336 2 2.2208 232.038 2.66578 9.71337 13.8691
339 2 2.2208 232.038 5.65356 12.5417 13.8734
334 2 2.2208 232.038 5.56436 7.01601 13.8893
335 2 2.2208 232.038 10.9528 6.92467 13.9294
15 2 2.2208 232.038 13.7444 15.5765 2.39588
348 2 2.2208 232.038 8.22804 21.0576 13.9005
659 2 2.2208 232.038 2.40639 1.45376 -0.132648
105 2 2.2208 232.038 11.0486 -1.33573 11.0448
9042 2 2.2208 232.038 13.8216 4.16902 8.25695
1 2 2.2208 232.038 13.7327 23.8616 5.23641
9041 2 2.2208 232.038 13.7964 7.15811 5.48556
9101 2 2.2208 232.038 13.9385 23.9455 10.9544
9081 2 2.2208 232.038 13.8267 1.23771 11.0806
330 2 2.2208 232.038 10.9865 1.21161 13.9309
9031 2 2.2208 232.038 13.8745 1.42299 5.42975
346 2 2.2208 232.038 2.5036 21.1322 13.759
340 2 2.2208 232.038 11.0772 12.789 13.7672
669 2 2.2208 232.038 2.48396 18.2717 -0.142446
9334 2 2.2208 232.038 13.8794 21.161 13.8757
666 2 2.2208 232.038 2.62916 12.6232 -0.145779
29 2 2.2208 232.038 10.9743 9.84828 -0.0658245
675 2 2.2208 232.038 5.4576 21.1871 27.954
327 1 -1.1104 15.9994 6.94046 22.4629 26.541
405 2 2.2208 232.038 5.21746 -1.44352 22.4924
667 2 2.2208 232.038 13.8865 18.4171 27.7772
668 2 2.2208 232.038 -0.120263 15.272 27.9837
16 2 2.2208 232.038 8.11235 6.95945 27.9807
332 1 -1.1104 15.9994 9.52479 22.4286 23.6667
676 2 2.2208 232.038 8.23077 23.8798 27.9493
660 2 2.2208 232.038 5.34446 -1.38554 27.9346
9369 2 2.2208 232.038 13.9326 18.269 16.7548
657 2 2.2208 232.038 13.9315 23.9495 22.0628
337 1 -1.1104 15.9994 6.65465 22.1493 23.807
9390 2 2.2208 232.038 13.8848 -1.45486 25.1813
357 2 2.2208 232.038 8.03909 -1.42952 19.5651
409 2 2.2208 232.038 11.0319 -1.4446 22.4689
407 2 2.2208 232.038 8.1243 -1.38996 25.1725
9319 2 2.2208 232.038 13.6548 4.0801 13.9568
403 2 2.2208 232.038 2.55913 -1.54062 25.1276
444 2 2.2208 232.038 0.00233736 23.8196 25.008
9701 2 2.2208 232.038 13.798 7.08913 28.0233
325 2 2.2208 232.038 5.29546 4.2028 28.0377
9379 2 2.2208 232.038 13.7264 23.9577 16.5267
9380 2 2.2208 232.038 13.7616 21.1714 19.4656
651 1 -1.1104 15.9994 4.0597 20.1528 23.9618
9420 2 2.2208 232.038 13.7615 15.5092 24.9124
351 1 -1.1104 15.9994 1.23838 22.468 26.6133
352 2 2.2208 232.038 2.60222 1.32386 16.5387
650 1 -1.1104 15.9994 1.3092 19.2121 24.0264
354 1 -1.1104 15.9994 3.92633 22.2222 26.3376
663 2 2.2208 232.038 2.51395 7.06597 27.9779
356 2 2.2208 232.038 8.18059 1.35063 16.6628
677 1 -1.1104 15.9994 9.58852 14.0177 26.5227
358 2 2.2208 232.038 5.29926 1.34368 19.5862
649 1 -1.1104 15.9994 4.0317 16.7267 26.5766
360 2 2.2208 232.038 11.0165 1.35492 19.4512
361 1 -1.1104 15.9994 0.867714 21.9802 24.0255
362 2 2.2208 232.038 2.66982 6.85452 16.6871
363 2 2.2208 232.038 2.53269 4.02902 19.5993
364 1 -1.1104 15.9994 12.6 19.8238 26.4973
365 2 2.2208 232.038 5.41607 4.20605 16.7287
366 2 2.2208 232.038 8.23902 7.0645 16.8139
367 2 2.2208 232.038 8.30672 4.19661 19.5588
368 2 2.2208 232.038 5.35489 6.87624 19.632
369 2 2.2208 232.038 10.9486 4.11683 16.7447
370 2 2.2208 232.038 10.964 7.00021 19.453
371 1 -1.1104 15.9994 12.6951 19.6197 23.7638
372 2 2.2208 232.038 2.65076 12.5287 16.7066
373 2 2.2208 232.038 2.57745 9.70223 19.5167
9359 2 2.2208 232.038 13.8526 12.5385 16.6671
375 2 2.2208 232.038 5.50216 9.54514 16.7335
376 2 2.2208 232.038 8.08161 12.5459 16.8268
377 2 2.2208 232.038 8.11138 9.78924 19.471
378 2 2.2208 232.038 5.50009 12.619 19.5167
379 2 2.2208 232.038 11.0488 9.95216 16.6422
380 2 2.2208 232.038 10.9431 12.5317 19.4039
381 1 -1.1104 15.9994 12.4664 16.9671 26.485
382 2 2.2208 232.038 2.47136 18.3708 16.6992
383 2 2.2208 232.038 2.43858 15.3326 19.5143
359 2 2.2208 232.038 10.9988 -1.32379 16.9237
385 2 2.2208 232.038 5.31722 15.4979 16.5603
386 2 2.2208 232.038 8.25026 18.2235 16.5874
387 2 2.2208 232.038 8.24416 15.4102 19.4715
388 2 2.2208 232.038 5.29918 18.1463 19.4846
389 2 2.2208 232.038 11.0136 15.4243 16.7051
390 2 2.2208 232.038 11.0246 18.2517 19.3481
391 1 -1.1104 15.9994 12.8309 22.563 26.3439
392 2 2.2208 232.038 2.54996 23.8407 16.5581
393 2 2.2208 232.038 2.40481 21.0749 19.3539
656 1 -1.1104 15.9994 6.71759 16.7876 26.3967
395 2 2.2208 232.038 5.49732 21.0178 16.7565
396 2 2.2208 232.038 8.01709 23.9674 16.4917
397 2 2.2208 232.038 8.34173 21.1849 19.5207
398 2 2.2208 232.038 5.28331 23.8137 19.3747
399 2 2.2208 232.038 11.0536 21.1389 16.5938
400 2 2.2208 232.038 10.9606 23.9572 19.331
401 1 -1.1104 15.9994 12.3367 16.7853 23.5758
402 2 2.2208 232.038 2.51545 1.33399 22.3882
655 1 -1.1104 15.9994 9.53653 16.6802 23.5802
404 1 -1.1104 15.9994 9.7825 19.5868 26.2946
648 1 -1.1104 15.9994 1.26586 16.8544 26.6999
406 2 2.2208 232.038 8.18 1.21843 22.3636
353 2 2.2208 232.038 2.57963 -1.47541 19.7021
408 2 2.2208 232.038 5.42249 1.37606 25.2076
654 1 -1.1104 15.9994 6.63598 16.7364 23.6735
410 2 2.2208 232.038 11.1546 1.38247 25.0102
411 1 -1.1104 15.9994 6.93003 19.8059 26.6597
412 2 2.2208 232.038 2.60693 6.94536 22.2682
413 2 2.2208 232.038 2.48364 4.07897 25.1946
414 1 -1.1104 15.9994 9.8219 19.641 23.5147
415 2 2.2208 232.038 5.47602 4.14771 22.3278
416 2 2.2208 232.038 8.11657 7.09776 22.4442
417 2 2.2208 232.038 8.18097 4.14868 25.1432
418 2 2.2208 232.038 5.43734 6.96891 25.0364
419 2 2.2208 232.038 10.9832 4.24505 22.3325
420 2 2.2208 232.038 11.1342 7.11389 25.2059
421 1 -1.1104 15.9994 6.79621 19.4782 23.6594
422 2 2.2208 232.038 2.52808 12.4708 22.1902
423 2 2.2208 232.038 2.59861 9.8287 25.0446
424 1 -1.1104 15.9994 9.57128 16.6302 26.5363
425 2 2.2208 232.038 5.31733 9.71755 22.3368
426 2 2.2208 232.038 8.20581 12.4985 22.2674
427 2 2.2208 232.038 8.20294 10.0044 25.2114
428 2 2.2208 232.038 5.26432 12.7845 25.0741
429 2 2.2208 232.038 11.0532 9.76776 22.2012
430 2 2.2208 232.038 11.0384 12.667 25.2393
652 1 -1.1104 15.9994 1.0928 19.6355 26.5985
432 2 2.2208 232.038 2.4209 17.9502 22.2637
433 2 2.2208 232.038 2.53604 15.4866 25.1042
25 2 2.2208 232.038 5.53099 9.81484 27.9467
435 2 2.2208 232.038 5.37412 15.4793 22.3181
436 2 2.2208 232.038 8.32221 18.1382 22.0592
437 2 2.2208 232.038 8.16645 15.427 25.1633
438 2 2.2208 232.038 5.38555 18.3525 25.191
439 2 2.2208 232.038 10.9852 15.3323 22.2708
440 2 2.2208 232.038 11.1924 18.3782 24.9774
653 1 -1.1104 15.9994 3.91047 19.4376 26.6094
442 1 -1.1104 15.9994 12.4314 22.447 23.6723
443 2 2.2208 232.038 2.49241 20.8119 25.1804
647 1 -1.1104 15.9994 3.89538 16.9797 23.7816
445 2 2.2208 232.038 5.50269 20.9248 22.215
446 2 2.2208 232.038 8.25659 23.9496 22.282
447 2 2.2208 232.038 8.26574 20.9085 24.8972
448 2 2.2208 232.038 5.5187 23.8253 25.1564
449 2 2.2208 232.038 11.0419 21.1533 22.234
450 2 2.2208 232.038 11.13 23.8068 25.0412
451 1 -1.1104 15.9994 1.1446 -0.185859 15.4512
452 1 -1.1104 15.9994 4.07636 -0.152618 15.0531
453 1 -1.1104 15.9994 1.16396 2.68981 15.2409
454 1 -1.1104 15.9994 4.01637 2.75158 15.1372
455 1 -1.1104 15.9994 6.90496 -0.0882945 15.4289
456 1 -1.1104 15.9994 9.57936 -0.150092 15.4481
457 1 -1.1104 15.9994 6.75147 2.84987 15.3797
458 1 -1.1104 15.9994 9.58487 2.66448 15.3515
459 1 -1.1104 15.9994 12.2693 -0.105627 15.3629
460 1 -1.1104 15.9994 12.3242 2.74659 15.1008
461 1 -1.1104 15.9994 1.187 5.47334 15.4037
462 1 -1.1104 15.9994 4.25089 5.42339 15.2323
463 1 -1.1104 15.9994 1.17436 8.31195 15.1115
464 1 -1.1104 15.9994 4.14354 8.33214 15.2377
465 1 -1.1104 15.9994 6.91691 5.63475 15.2351
466 1 -1.1104 15.9994 9.53671 5.66547 15.1402
467 1 -1.1104 15.9994 6.90726 8.28214 15.045
468 1 -1.1104 15.9994 9.65308 8.52992 15.0973
469 1 -1.1104 15.9994 12.2842 5.69324 15.3785
470 1 -1.1104 15.9994 12.4872 8.36642 15.2812
471 1 -1.1104 15.9994 1.13171 11.116 15.3848
472 1 -1.1104 15.9994 4.022 10.9257 15.2851
473 1 -1.1104 15.9994 1.01896 13.8169 15.3161
474 1 -1.1104 15.9994 4.00026 13.7247 15.1945
475 1 -1.1104 15.9994 6.75904 11.026 15.2965
476 1 -1.1104 15.9994 9.6432 11.2848 15.1115
477 1 -1.1104 15.9994 6.79562 14.2227 15.4236
478 1 -1.1104 15.9994 9.51704 14.0397 15.2739
479 1 -1.1104 15.9994 12.3379 11.1188 15.2733
480 1 -1.1104 15.9994 12.5221 14.0211 15.2482
481 1 -1.1104 15.9994 1.28369 16.8229 15.0852
482 1 -1.1104 15.9994 4.15093 16.6864 15.0394
483 1 -1.1104 15.9994 1.25212 19.5257 15.1019
484 1 -1.1104 15.9994 4.08119 19.6786 15.1354
485 1 -1.1104 15.9994 6.90471 16.967 15.1145
486 1 -1.1104 15.9994 9.54308 16.8164 15.2323
487 1 -1.1104 15.9994 6.77806 19.6512 15.1206
488 1 -1.1104 15.9994 9.64018 19.5844 14.9526
489 1 -1.1104 15.9994 12.4064 16.6918 15.2033
490 1 -1.1104 15.9994 12.4096 19.4727 15.2456
491 1 -1.1104 15.9994 1.39374 22.9612 14.7759
492 1 -1.1104 15.9994 4.14974 22.372 14.9896
493 1 -1.1104 15.9994 6.75604 22.5515 15.2916
494 1 -1.1104 15.9994 9.81625 22.4399 15.2336
495 1 -1.1104 15.9994 12.4556 22.4712 15.1182
496 1 -1.1104 15.9994 1.4128 -0.0954754 18.2807
497 1 -1.1104 15.9994 4.13328 -0.456357 18.2209
498 1 -1.1104 15.9994 1.13695 -0.112853 20.9798
499 1 -1.1104 15.9994 3.95802 -0.0678418 21.1896
500 1 -1.1104 15.9994 1.21416 2.65648 18.0748
501 1 -1.1104 15.9994 3.89091 2.40625 18.0613
502 1 -1.1104 15.9994 1.16456 2.45989 20.9276
503 1 -1.1104 15.9994 3.98896 2.58231 20.993
504 1 -1.1104 15.9994 6.83383 -0.107045 18.1066
505 1 -1.1104 15.9994 9.41806 0.0745113 18.1622
506 1 -1.1104 15.9994 6.59189 -0.151941 20.8664
507 1 -1.1104 15.9994 9.59124 -0.250528 20.9473
508 1 -1.1104 15.9994 6.80777 2.8083 18.0714
509 1 -1.1104 15.9994 9.65698 2.74267 18.1032
510 1 -1.1104 15.9994 6.82673 2.50087 21.0062
511 1 -1.1104 15.9994 9.60389 2.66081 21.0401
512 1 -1.1104 15.9994 12.4527 -0.0812245 18.2367
513 1 -1.1104 15.9994 12.302 0.0958847 20.9455
514 1 -1.1104 15.9994 12.3824 2.78124 18.0439
515 1 -1.1104 15.9994 12.5017 2.86504 21.1176
516 1 -1.1104 15.9994 1.12714 5.44966 18.1214
517 1 -1.1104 15.9994 3.8572 5.26853 17.8251
518 1 -1.1104 15.9994 1.1906 5.27473 20.9795
519 1 -1.1104 15.9994 4.04121 5.49973 20.974
520 1 -1.1104 15.9994 1.38691 8.26285 17.9604
521 1 -1.1104 15.9994 3.99123 8.04617 18.0945
522 1 -1.1104 15.9994 1.15174 8.16052 20.7532
523 1 -1.1104 15.9994 3.97846 8.2607 20.9497
524 1 -1.1104 15.9994 6.61656 5.48171 18.2776
525 1 -1.1104 15.9994 9.45805 5.53152 18.0526
526 1 -1.1104 15.9994 6.96123 5.50799 21.0479
527 1 -1.1104 15.9994 9.70865 5.57696 20.7164
528 1 -1.1104 15.9994 6.79227 8.18254 18.1131
529 1 -1.1104 15.9994 9.53653 8.35177 18.1353
530 1 -1.1104 15.9994 6.66843 8.19861 20.8982
531 1 -1.1104 15.9994 9.69413 8.29103 20.8789
532 1 -1.1104 15.9994 12.4133 5.52705 18.1832
533 1 -1.1104 15.9994 12.3156 5.70789 21.0455
534 1 -1.1104 15.9994 12.3691 8.38389 18.0791
535 1 -1.1104 15.9994 12.6765 8.46146 20.974
536 1 -1.1104 15.9994 1.13389 11.0641 18.1837
537 1 -1.1104 15.9994 3.90515 11.0777 17.9128
538 1 -1.1104 15.9994 1.20613 11.0828 20.9527
539 1 -1.1104 15.9994 3.92018 11.0787 21.0392
540 1 -1.1104 15.9994 1.15596 13.7361 18.1329
541 1 -1.1104 15.9994 4.00574 13.9388 17.9844
542 1 -1.1104 15.9994 0.990696 13.8864 20.8937
543 1 -1.1104 15.9994 4.04384 13.8558 20.7956
544 1 -1.1104 15.9994 6.83 11.1723 18.1419
545 1 -1.1104 15.9994 9.6179 11.2212 17.8964
546 1 -1.1104 15.9994 6.79183 11.1102 20.9555
547 1 -1.1104 15.9994 9.59932 11.1885 20.945
548 1 -1.1104 15.9994 6.83256 14.001 18.1612
549 1 -1.1104 15.9994 9.57993 14.0693 18.1713
550 1 -1.1104 15.9994 6.74623 13.8322 20.9432
551 1 -1.1104 15.9994 9.68491 13.8838 20.7563
552 1 -1.1104 15.9994 12.365 11.1568 18.1615
553 1 -1.1104 15.9994 12.4916 11.1946 20.834
554 1 -1.1104 15.9994 12.3369 13.8222 17.9311
555 1 -1.1104 15.9994 12.3591 13.8512 20.9444
556 1 -1.1104 15.9994 1.17995 16.5907 18.0726
557 1 -1.1104 15.9994 3.81757 16.7695 17.9595
558 1 -1.1104 15.9994 1.19508 16.6819 21.0426
559 1 -1.1104 15.9994 3.91784 16.4283 20.92
560 1 -1.1104 15.9994 1.42838 19.3476 18.4028
561 1 -1.1104 15.9994 4.00713 19.6834 18.015
562 1 -1.1104 15.9994 1.19227 19.5847 21.0933
563 1 -1.1104 15.9994 4.13617 19.2174 21.1452
564 1 -1.1104 15.9994 6.74197 16.7873 18.0573
565 1 -1.1104 15.9994 9.551 16.9039 18.0702
566 1 -1.1104 15.9994 6.92027 16.6349 20.8613
567 1 -1.1104 15.9994 9.66633 16.7236 20.7337
568 1 -1.1104 15.9994 6.87445 19.662 18.1721
569 1 -1.1104 15.9994 9.66778 19.7588 17.94
570 1 -1.1104 15.9994 6.92992 19.5465 20.8464
571 1 -1.1104 15.9994 9.67707 19.6241 20.6445
572 1 -1.1104 15.9994 12.3448 16.7973 18.0636
573 1 -1.1104 15.9994 12.5374 16.721 20.7619
574 1 -1.1104 15.9994 12.4072 19.74 18.0175
575 1 -1.1104 15.9994 12.5408 19.7882 20.9964
576 1 -1.1104 15.9994 1.38762 22.7624 18.1219
577 1 -1.1104 15.9994 4.14358 22.4741 17.8532
578 1 -1.1104 15.9994 0.840113 22.3139 20.7498
579 1 -1.1104 15.9994 4.21824 21.864 20.6494
580 1 -1.1104 15.9994 6.85336 22.4817 18.0901
581 1 -1.1104 15.9994 9.67764 22.5653 17.8766
582 1 -1.1104 15.9994 7.05865 22.3377 21.115
583 1 -1.1104 15.9994 9.73713 22.5052 20.7971
584 1 -1.1104 15.9994 12.4374 22.497 18.0238
585 1 -1.1104 15.9994 12.6345 22.4237 20.8484
586 1 -1.1104 15.9994 1.13561 -0.204805 23.7971
587 1 -1.1104 15.9994 3.95969 -0.130874 23.9158
588 1 -1.1104 15.9994 1.06481 -0.155473 26.4506
589 1 -1.1104 15.9994 3.94902 -0.0172478 26.5948
590 1 -1.1104 15.9994 0.85729 2.65167 23.7548
591 1 -1.1104 15.9994 3.88715 2.56413 23.8084
592 1 -1.1104 15.9994 1.01526 2.64834 26.6855
593 1 -1.1104 15.9994 3.92629 2.73074 26.5928
594 1 -1.1104 15.9994 6.78344 -0.158636 23.768
595 1 -1.1104 15.9994 9.73047 -0.0244459 23.6602
596 1 -1.1104 15.9994 6.98324 -0.0644305 26.6153
597 1 -1.1104 15.9994 9.73476 0.00932884 26.4261
598 1 -1.1104 15.9994 6.81402 2.6601 23.9812
599 1 -1.1104 15.9994 9.56385 2.80128 23.7775
600 1 -1.1104 15.9994 6.65811 2.66258 26.5992
601 1 -1.1104 15.9994 9.54749 2.85569 26.6449
602 1 -1.1104 15.9994 12.3812 -0.0619234 23.6864
603 1 -1.1104 15.9994 12.6244 0.277317 26.5383
604 1 -1.1104 15.9994 12.4513 2.71513 23.7691
605 1 -1.1104 15.9994 12.34 2.99023 26.4797
606 1 -1.1104 15.9994 1.25377 5.46397 23.7629
607 1 -1.1104 15.9994 3.9792 5.46282 23.781
608 1 -1.1104 15.9994 1.01644 5.46164 26.4847
609 1 -1.1104 15.9994 4.03926 5.60727 26.3934
610 1 -1.1104 15.9994 1.0336 8.51837 23.5633
611 1 -1.1104 15.9994 4.00821 8.26925 23.6462
612 1 -1.1104 15.9994 1.23216 8.37978 26.643
613 1 -1.1104 15.9994 4.10028 8.4197 26.5844
614 1 -1.1104 15.9994 6.87779 5.43042 23.7861
615 1 -1.1104 15.9994 9.58961 5.57801 23.5352
616 1 -1.1104 15.9994 6.77324 5.53414 26.4307
617 1 -1.1104 15.9994 9.80234 5.61443 26.4276
618 1 -1.1104 15.9994 6.67284 8.37096 23.8486
619 1 -1.1104 15.9994 9.54778 8.50435 23.6399
620 1 -1.1104 15.9994 6.93037 8.4166 26.4441
621 1 -1.1104 15.9994 9.68743 8.56189 26.6743
622 1 -1.1104 15.9994 12.3539 5.74417 23.7172
623 1 -1.1104 15.9994 12.4799 5.77416 26.5899
624 1 -1.1104 15.9994 12.2275 8.57725 23.7784
625 1 -1.1104 15.9994 12.5523 8.61837 26.6913
626 1 -1.1104 15.9994 1.0867 11.0612 23.7355
627 1 -1.1104 15.9994 3.93833 11.3272 23.7227
628 1 -1.1104 15.9994 1.06441 11.066 26.615
629 1 -1.1104 15.9994 3.93174 11.137 26.5805
630 1 -1.1104 15.9994 1.09555 13.7706 23.6748
631 1 -1.1104 15.9994 3.86411 14.1626 23.7349
632 1 -1.1104 15.9994 1.03511 13.8161 26.6896
633 1 -1.1104 15.9994 3.77964 14.0471 26.5526
634 1 -1.1104 15.9994 6.75609 11.1748 23.7488
635 1 -1.1104 15.9994 9.61035 11.2773 23.7671