LAMMPS data file via write_data, version 29 Oct 2020, timestep = 100000

18000 atoms
4 atom types

-0.14882082730377844 28.04282082730315 xlo xhi
-1.715039917261853 336.44303991727907 ylo yhi
-0.15107766940958545 28.04507766941016 zlo zhi
0.0 0.0 0.0 xy xz yz

Masses

1 15.9994
2 232.0381
3 15.9994
4 232.0381

Atoms # full

1 0 1 -1.1104 1.1526740432476354 -0.2558933234100047 1.138192638406724 0 0 0
2 0 1 -1.1104 4.002330173273494 -0.38693911252164365 1.1197508295512473 0 0 0
3 0 1 -1.1104 3.685122504064391 -0.32620935582612526 3.9645590067176677 0 0 0
4 0 1 -1.1104 1.0425794131120534 -0.28876863649867707 3.8128360319521146 0 0 0
5 0 1 -1.1104 1.1827473721281527 2.6199846251907246 1.2621014623868876 0 0 0
6 0 1 -1.1104 3.835429619790428 2.3479889503343423 1.1615660736622282 0 0 0
7 0 1 -1.1104 3.9876874849158526 2.4009837077790444 3.8032323260120013 0 0 0
8 0 1 -1.1104 1.0708208551245808 2.5100287431819948 3.8670342212754885 0 0 0
9 0 1 -1.1104 6.728356754743065 -0.4214101999713283 1.2732779984917655 0 0 0
10 0 1 -1.1104 9.750192450078842 -0.4274617442882097 1.1906006932749993 0 0 0
11 0 1 -1.1104 9.377960170041131 -0.2544528948571128 3.8568498209309867 0 0 0
12 0 1 -1.1104 6.543663801002656 -0.24451561600536958 4.101136389765926 0 0 0
13 0 1 -1.1104 6.6243440262082895 2.2915672950133277 1.07614990921102 0 0 0
14 0 1 -1.1104 9.50908791326525 2.500271961781369 1.2050451729651064 0 0 0
15 0 1 -1.1104 9.535759752673798 2.4426130493712566 3.8585264436658178 0 0 0
16 0 1 -1.1104 6.679700360361988 2.3377230430913123 3.923967045256192 0 0 0
17 0 1 -1.1104 12.463455493810411 -0.29939389317633003 1.1326909212113871 0 0 0
18 0 1 -1.1104 12.544468673135707 -0.2788858796871465 3.884760930754778 0 0 0
19 0 1 -1.1104 12.340195268772902 2.4928955183914545 0.9606734069174097 0 0 0
20 0 1 -1.1104 12.396283490201178 2.4400428136395593 3.7987324812848122 0 0 0
21 0 1 -1.1104 1.1303598511434716 5.431779169507538 1.053681028617929 0 0 0
22 0 1 -1.1104 3.8806180798107004 5.01316095635658 1.090903590130175 0 0 0
23 0 1 -1.1104 3.9081457102138875 5.350745305745016 3.8376534842149295 0 0 0
24 0 1 -1.1104 1.1665466082609917 5.225295498750535 3.8452240618419316 0 0 0
25 0 1 -1.1104 1.1113730001412216 8.194100000109142 1.0280182525061554 0 0 0
26 0 1 -1.1104 3.967323623397848 7.9073915736453895 0.7810942376637416 0 0 0
27 0 1 -1.1104 3.8938829523292275 8.167107085894191 3.7231416093590606 0 0 0
28 0 1 -1.1104 1.148039427216017 8.137830219109029 3.9769660639027284 0 0 0
29 0 1 -1.1104 6.633231227815164 5.153587858212226 1.094227029885272 0 0 0
30 0 1 -1.1104 9.569721774787219 5.240851852752348 0.9504207544553227 0 0 0
31 0 1 -1.1104 9.185174293665755 5.106581786717911 3.7150742627860702 0 0 0
32 0 1 -1.1104 6.594651573343505 5.176558852214177 3.9323174388196303 0 0 0
33 0 1 -1.1104 6.50880947323107 8.063529125502903 1.1190857616921914 0 0 0
34 0 1 -1.1104 9.219140000766842 8.059903509833177 1.2019861140161732 0 0 0
35 0 1 -1.1104 9.266748839491571 8.01369130239453 3.93762339302329 0 0 0
36 0 1 -1.1104 6.5444631359800844 7.977332781179301 4.021370342120583 0 0 0
37 0 1 -1.1104 12.156384916603376 5.220881135484256 1.0975627186110524 0 0 0
38 0 1 -1.1104 12.274236813580357 5.266559471435751 3.78817870005136 0 0 0
39 0 1 -1.1104 12.14913910762704 8.071575930111491 0.8752847631213476 0 0 0
40 0 1 -1.1104 12.10974657606665 8.152144063235607 3.613579119606074 0 0 0
41 0 1 -1.1104 1.284686381928747 10.857961187884431 0.9928944527598234 0 0 0
42 0 1 -1.1104 4.009761189594709 10.896854920985197 1.0367660039958924 0 0 0
43 0 1 -1.1104 3.7878157842416407 11.09106068213873 3.752361154178864 0 0 0
44 0 1 -1.1104 0.9503386000124241 10.947472534234851 3.7755672435830263 0 0 0
45 0 1 -1.1104 1.0013098256817603 13.729745169626192 0.9780449352951793 0 0 0
46 0 1 -1.1104 3.6839835728890886 13.861622586108425 1.2849193941867847 0 0 0
47 0 1 -1.1104 3.758993295855179 13.814654526237744 4.169926885176931 0 0 0
48 0 1 -1.1104 1.0919240875322584 13.798077124871662 3.8188271300778878 0 0 0
49 0 1 -1.1104 6.7236910101323035 10.985293287520154 0.9530305154615266 0 0 0
50 0 1 -1.1104 9.332404041965452 10.774408752456683 0.9481162872153573 0 0 0
51 0 1 -1.1104 9.360614280656101 10.708054595754511 3.7721645405580904 0 0 0
52 0 1 -1.1104 6.617623325287413 11.09761454934416 3.891157361942943 0 0 0
53 0 1 -1.1104 6.35535512516222 13.894273114317365 1.267359394517127 0 0 0
54 0 1 -1.1104 9.520987756984015 13.602135385948669 1.082508869197129 0 0 0
55 0 1 -1.1104 9.177785810542929 13.730534202058783 3.876486672659259 0 0 0
56 0 1 -1.1104 6.513957821716794 13.727008296154716 4.012961879429729 0 0 0
57 0 1 -1.1104 12.091694726017769 10.817422770186749 0.8151095459957035 0 0 0
58 0 1 -1.1104 12.073287857840254 10.999655341411854 3.8143302893153925 0 0 0
59 0 1 -1.1104 12.395733665455175 13.81735032519557 1.401052552043094 0 0 0
60 0 1 -1.1104 11.98200207605476 13.840900116791882 3.97279226816863 0 0 0
61 0 1 -1.1104 1.037827257023514 16.605295800385576 1.1850629699860677 0 0 0
62 0 1 -1.1104 3.8618644693011817 16.65786582014047 0.9772530911782267 0 0 0
63 0 1 -1.1104 3.7416283686344203 16.564272673337808 3.8230508098339815 0 0 0
64 0 1 -1.1104 0.9480991821933795 16.703762564815992 3.764141926031214 0 0 0
65 0 1 -1.1104 1.1258043006055072 19.503794586870914 0.853410792638195 0 0 0
66 0 1 -1.1104 3.833783333098082 19.311306053718894 0.9864670565503826 0 0 0
67 0 1 -1.1104 3.9409664831183155 19.44775105078414 3.917735752308527 0 0 0
68 0 1 -1.1104 1.0394570223507835 19.589980775135544 3.7102992098330914 0 0 0
69 0 1 -1.1104 6.681850329770336 16.585526152236465 1.0386454949918318 0 0 0
70 0 1 -1.1104 9.569048801332944 16.478641336217038 1.1397650846667255 0 0 0
71 0 1 -1.1104 9.508578193592799 16.57496946364652 4.12570875312251 0 0 0
72 0 1 -1.1104 6.5403548497631 16.629335689527323 3.770472059361563 0 0 0
73 0 1 -1.1104 6.85683646480043 19.379062641811366 1.141537550706441 0 0 0
74 0 1 -1.1104 9.83236388462373 19.448718738590753 1.2045625573760643 0 0 0
75 0 1 -1.1104 9.43904119491249 19.53312010057369 3.9555677504798354 0 0 0
76 0 1 -1.1104 6.758291507494967 19.57835141583287 3.9099685540490046 0 0 0
77 0 1 -1.1104 12.148175386234424 16.782885543297464 1.1180978357982323 0 0 0
78 0 1 -1.1104 12.180836890870193 16.613220315159065 3.909160396039523 0 0 0
79 0 1 -1.1104 12.364437090427074 22.531625781604507 1.0718596731411152 0 0 0
80 0 1 -1.1104 12.160103937130653 19.412861384428393 3.964403742937372 0 0 0
81 0 1 -1.1104 1.062995413152815 22.137454860453307 1.0269352314425102 0 0 0
82 0 1 -1.1104 3.884093210988724 22.170876081514994 1.0454138376032578 0 0 0
83 0 1 -1.1104 3.9606425738431508 22.382931262781913 3.9396833723326323 0 0 0
84 0 1 -1.1104 1.0894974943783056 22.275279188253545 3.7565567253421634 0 0 0
85 0 1 -1.1104 6.681239123933478 22.233499945606127 1.2926588917126498 0 0 0
86 0 1 -1.1104 9.66048504910754 22.29557299245963 1.0199715445945143 0 0 0
87 0 1 -1.1104 9.556659435411879 22.23733754674375 3.9839916866729395 0 0 0
88 0 1 -1.1104 6.796901477343422 22.3555561758963 3.7622457654842285 0 0 0
15062 0 2 2.2208 13.830014970819361 3.8942218838764675 8.197230227944495 0 0 0
90 0 1 -1.1104 12.382441334939097 22.279477792122815 4.06879227896445 0 0 0
91 0 1 -1.1104 1.046046929290684 -0.13852625543929392 6.665908277413543 0 0 0
92 0 1 -1.1104 3.8894622722631924 -0.3880467527168813 6.746751137361991 0 0 0
93 0 1 -1.1104 3.87563603935803 -0.2212521404563977 9.540966736111766 0 0 0
94 0 1 -1.1104 1.1125206925169295 -0.26034840744726345 9.482169907363284 0 0 0
95 0 1 -1.1104 0.9413978186805861 2.499185897231989 6.700779711810169 0 0 0
96 0 1 -1.1104 3.9040259665697996 2.425498769331827 6.630580081264946 0 0 0
97 0 1 -1.1104 3.9177981173636334 2.482827002921761 9.374192811172207 0 0 0
98 0 1 -1.1104 1.171076489869158 2.544719514257027 9.78095913754196 0 0 0
99 0 1 -1.1104 6.8615081727087714 -0.33626177875492047 6.712736731645696 0 0 0
100 0 1 -1.1104 9.591605485290694 -0.1504782749792532 6.827181655265965 0 0 0
101 0 1 -1.1104 9.323026194494467 -0.3884676720410864 9.586156480283817 0 0 0
102 0 1 -1.1104 6.587725523958358 -0.14351790272895218 9.577112577682751 0 0 0
103 0 1 -1.1104 6.83104521690847 2.483312736197419 6.76550990456082 0 0 0
104 0 1 -1.1104 9.665861402701712 2.7545413350517203 6.643916141689544 0 0 0
105 0 1 -1.1104 9.359460686826747 2.6443196505958912 9.464155727589675 0 0 0
106 0 1 -1.1104 6.613314113053471 2.609942140777238 9.650566242725525 0 0 0
107 0 1 -1.1104 12.420775285975957 -0.22027913677006644 6.454316992323476 0 0 0
108 0 1 -1.1104 12.168704826923824 -0.5419091660406334 9.250736369606802 0 0 0
109 0 1 -1.1104 12.521931983644645 2.668344862089598 6.533059604131673 0 0 0
110 0 1 -1.1104 12.3239098427126 2.3029457727784326 9.445400857706758 0 0 0
111 0 1 -1.1104 0.9365849825458947 5.380735004998387 6.623892249474238 0 0 0
112 0 1 -1.1104 3.846927242572211 5.301277886955084 6.716418246809912 0 0 0
113 0 1 -1.1104 3.7744303702124107 5.303352797199686 9.592836367290646 0 0 0
114 0 1 -1.1104 0.9289225617365036 5.438978814589705 9.343861558130456 0 0 0
115 0 1 -1.1104 0.9890045949848467 8.041537406146253 6.686237012180616 0 0 0
116 0 1 -1.1104 3.6553365343760613 8.056313367858992 6.491705552878804 0 0 0
117 0 1 -1.1104 3.6968996865407258 8.157246843854084 9.36819931089272 0 0 0
118 0 1 -1.1104 1.0315221729346633 8.228587991046098 9.497578537461905 0 0 0
119 0 1 -1.1104 6.7577896584396715 5.328329120892924 6.675196446812296 0 0 0
120 0 1 -1.1104 9.544735264655873 5.602604205738062 6.540971685584638 0 0 0
121 0 1 -1.1104 9.517419766134402 5.352366244483154 9.538766182227505 0 0 0
122 0 1 -1.1104 6.612741273121673 5.370762733338748 9.494278330430678 0 0 0
123 0 1 -1.1104 6.5382565675818105 8.039819139697348 6.70780065483196 0 0 0
124 0 1 -1.1104 9.386737907166935 8.288806264242137 6.6732448306333865 0 0 0
125 0 1 -1.1104 9.504110501610809 8.040026483760528 9.552371077280453 0 0 0
126 0 1 -1.1104 6.654327512446355 8.261814759745352 9.565967449995739 0 0 0
127 0 1 -1.1104 12.363894703693681 5.351842245984037 6.733508481210151 0 0 0
128 0 1 -1.1104 12.223010511636648 5.348573508223659 9.486191836754138 0 0 0
129 0 1 -1.1104 12.284035785483498 8.251113934657862 6.639191305783371 0 0 0
130 0 1 -1.1104 12.329994796572532 8.161713488098332 9.496617183554395 0 0 0
131 0 1 -1.1104 0.9357174748215011 11.00401489888332 6.647676356203874 0 0 0
132 0 1 -1.1104 3.9020017925538584 11.067248610958831 6.568366376471371 0 0 0
133 0 1 -1.1104 3.664750635308913 10.853230030109646 9.611406011917936 0 0 0
134 0 1 -1.1104 0.9324904199014199 11.077986549055412 9.60307731794076 0 0 0
135 0 1 -1.1104 1.0436425344187943 13.722026965557228 6.766028574838804 0 0 0
136 0 1 -1.1104 3.8575527053549705 13.871063030212483 6.881046193486605 0 0 0
137 0 1 -1.1104 3.679529399240273 13.652903002338252 9.454991708574052 0 0 0
138 0 1 -1.1104 0.8796493968214513 13.793752002164258 9.567103304786496 0 0 0
139 0 1 -1.1104 6.460740952461038 10.957786506373788 6.735598827791755 0 0 0
140 0 1 -1.1104 9.227232293456197 10.993844801221938 6.779668263468341 0 0 0
141 0 1 -1.1104 9.450854542772577 10.963637983431116 9.500853999372627 0 0 0
142 0 1 -1.1104 6.598329461727674 11.095673124125032 9.52448813569189 0 0 0
143 0 1 -1.1104 6.604758231047399 13.87684229500529 6.805423188826599 0 0 0
144 0 1 -1.1104 9.388975716001394 13.884230549699662 6.55085608183065 0 0 0
145 0 1 -1.1104 9.412829501483005 13.647367350160579 9.401365083613893 0 0 0
146 0 1 -1.1104 6.627490493605246 13.935235748219949 9.612479017913458 0 0 0
147 0 1 -1.1104 12.147904548876797 11.039489772917365 6.71049139955412 0 0 0
148 0 1 -1.1104 12.212784193613007 11.021573630987207 9.552479096708133 0 0 0
149 0 1 -1.1104 12.155031858838488 13.75603824167986 6.7132859507319695 0 0 0
150 0 1 -1.1104 12.07757282095797 13.871885210429978 9.371060520535792 0 0 0
151 0 1 -1.1104 1.0397213320656848 16.53704222824433 6.658805535857747 0 0 0
152 0 1 -1.1104 3.7686375605695974 16.76893706472601 6.749098262245623 0 0 0
153 0 1 -1.1104 3.82885035437989 16.520125111954734 9.577016664796068 0 0 0
154 0 1 -1.1104 0.8493677035916918 16.619131651113587 9.48880107330437 0 0 0
155 0 1 -1.1104 1.0888636882386047 21.99167362126516 6.464838873773418 0 0 0
156 0 1 -1.1104 3.967228905372209 19.622502274337474 6.784156365465357 0 0 0
157 0 1 -1.1104 3.7685456129811734 19.371055434711394 9.458205570253138 0 0 0
158 0 1 -1.1104 0.9646475353502271 19.321612114409994 9.574309110520149 0 0 0
159 0 1 -1.1104 6.668677292696969 16.803407816744457 6.805806566896523 0 0 0
160 0 1 -1.1104 9.466404177061422 16.726452933927792 6.87337300001308 0 0 0
161 0 1 -1.1104 9.366981881378909 16.42941190032542 9.648067090656916 0 0 0
162 0 1 -1.1104 6.533315615241585 16.782678592452868 9.78521809954836 0 0 0
163 0 1 -1.1104 6.718101686948374 19.454303376325317 6.727648986145125 0 0 0
164 0 1 -1.1104 9.55944753967741 19.724723371073964 6.8613341489967485 0 0 0
165 0 1 -1.1104 9.225551412075163 19.574882791219846 9.795324848312735 0 0 0
166 0 1 -1.1104 6.483112277687976 19.637246071110397 9.555961510477184 0 0 0
167 0 1 -1.1104 12.217494219296539 16.645142844952385 6.822557273802137 0 0 0
168 0 1 -1.1104 12.12701609661474 16.81988914586729 9.442113105318487 0 0 0
169 0 1 -1.1104 12.175172844899405 19.598869335151072 6.8632446501624935 0 0 0
170 0 1 -1.1104 12.304488748947554 19.444209994016493 9.635913949283692 0 0 0
15116 0 2 2.2208 13.723154154676108 17.967618348092397 10.968356807313146 0 0 0
172 0 1 -1.1104 3.9780789483252965 22.285437913054036 6.617932014550886 0 0 0
173 0 1 -1.1104 3.786707868420414 22.166203543818277 9.695760685296609 0 0 0
174 0 1 -1.1104 1.0692531859005991 22.097595526861223 9.391030202789256 0 0 0
175 0 1 -1.1104 6.578783645189563 22.52465031383356 6.574945732765062 0 0 0
176 0 1 -1.1104 9.478847867592322 22.29094740475037 6.5260455988587 0 0 0
177 0 1 -1.1104 9.460720972450247 22.306585578926363 9.476543837767766 0 0 0
178 0 1 -1.1104 6.594878934040802 22.348773031798466 9.712489120989517 0 0 0
179 0 1 -1.1104 12.465793962249894 22.34536169022272 7.041193496763466 0 0 0
180 0 1 -1.1104 12.241295884374816 22.528827522363148 9.867484785422217 0 0 0
181 0 1 -1.1104 1.1618790100497818 -0.27008629900638276 12.434887790750771 0 0 0
182 0 1 -1.1104 3.8489201496423036 -0.23711542900378665 12.412790188206131 0 0 0
183 0 1 -1.1104 0.8238281654321935 2.4546841336256846 12.391863990280974 0 0 0
184 0 1 -1.1104 3.9066653159834126 2.5421570206832342 12.092875780160677 0 0 0
185 0 1 -1.1104 6.679978044866868 -0.3465052891269073 12.346809585264063 0 0 0
186 0 1 -1.1104 9.35892457110498 -0.12605334563426357 12.455827750406037 0 0 0
187 0 1 -1.1104 6.7978796099168814 2.3467272407172803 12.443536688813849 0 0 0
188 0 1 -1.1104 9.618656328781546 2.6859099762921357 12.139826455399442 0 0 0
189 0 1 -1.1104 12.40601564532536 -0.254888970087211 12.110156384134697 0 0 0
190 0 1 -1.1104 12.413838084537783 2.3930975008769955 12.126352018402866 0 0 0
191 0 1 -1.1104 0.9807265408602608 5.385589602604586 12.305773272521122 0 0 0
192 0 1 -1.1104 3.8732571910762523 5.259373170298422 12.281388072167989 0 0 0
193 0 1 -1.1104 0.7982342069269937 8.374633510000475 12.141946658977346 0 0 0
194 0 1 -1.1104 3.6396636267342677 8.119714690803017 12.261901139445381 0 0 0
195 0 1 -1.1104 6.749373555492036 5.134137373485712 12.531998975156291 0 0 0
196 0 1 -1.1104 9.744787500454827 5.393824248106549 12.312845777459449 0 0 0
197 0 1 -1.1104 6.713797679295433 7.927695558804562 12.448502333602843 0 0 0
198 0 1 -1.1104 9.651261480166173 8.224650644833787 12.42853959629553 0 0 0
199 0 1 -1.1104 12.410525422417223 5.396990298014454 12.59289779187251 0 0 0
200 0 1 -1.1104 12.256470458963367 8.403444516866463 12.189349785417363 0 0 0
201 0 1 -1.1104 0.9132694281925442 11.129723866129048 12.304005723584636 0 0 0
202 0 1 -1.1104 3.807269789037183 11.09080080946146 12.304042540270562 0 0 0
203 0 1 -1.1104 0.6630109049730194 13.764021547537673 12.519613740148657 0 0 0
204 0 1 -1.1104 3.6045605063265116 13.952459368094543 12.394054789823324 0 0 0
205 0 1 -1.1104 6.507189129554201 10.853701572467266 12.47035775814236 0 0 0
206 0 1 -1.1104 9.342841233309436 11.138071349087758 12.325043537464834 0 0 0
207 0 1 -1.1104 6.545421003043914 13.78779842677694 12.478044481828166 0 0 0
208 0 1 -1.1104 9.462040973047518 13.940730506074043 12.276889351046325 0 0 0
209 0 1 -1.1104 12.382458376226372 11.0985193992164 12.328884592834825 0 0 0
210 0 1 -1.1104 12.36576753238903 13.834265336673553 12.191737931614458 0 0 0
211 0 1 -1.1104 0.9900127952793705 16.490628454929855 12.228460893843781 0 0 0
212 0 1 -1.1104 3.7573977675378876 16.651572498037098 12.497674340716092 0 0 0
213 0 1 -1.1104 0.9628984140074146 19.34148433983866 12.362745553347873 0 0 0
214 0 1 -1.1104 3.8303589557536686 19.448017864731426 12.35712100575034 0 0 0
215 0 1 -1.1104 6.669911581932114 16.575444017296 12.489352101051725 0 0 0
216 0 1 -1.1104 9.302285310894225 16.54023867844845 12.312778658994915 0 0 0
217 0 1 -1.1104 6.709623395272841 19.416221666626587 12.337761048882273 0 0 0
218 0 1 -1.1104 9.571055942256322 19.578190576876437 12.32415668482677 0 0 0
219 0 1 -1.1104 12.427240521289127 16.629580497455514 12.178916506388767 0 0 0
220 0 1 -1.1104 12.35699939809754 19.368600741603373 12.458884949944657 0 0 0
221 0 1 -1.1104 1.0441566731965621 22.501259405689662 12.041959837114629 0 0 0
222 0 1 -1.1104 3.7359753367821167 22.31000292651364 12.522198690520787 0 0 0
223 0 1 -1.1104 6.5447006791030224 22.28500369266225 12.287379577525346 0 0 0
224 0 1 -1.1104 9.424335668084083 22.362986472008302 12.295906860607513 0 0 0
225 0 1 -1.1104 12.249216927066222 22.123725570066046 12.462108857565479 0 0 0
12150 0 2 2.2208 11.114285335519275 23.592584603318812 13.845654325842315 0 0 0
15111 0 2 2.2208 13.646381991280037 12.45660511564723 10.816562864519089 0 0 0
15082 0 2 2.2208 13.63577659344741 15.100540812873293 8.104215921297165 0 0 0
12148 0 2 2.2208 8.15258498308439 20.894830549847605 13.601146286045667 0 0 0
15032 0 2 2.2208 13.612896086503882 15.142835086918927 2.547167017381704 0 0 0
6063 0 1 -1.1104 12.807898713120531 19.73380795214918 1.1051841175009558 0 0 0
12145 0 2 2.2208 10.731972840093283 17.863554812787616 13.726493472402908 0 0 0
12008 0 2 2.2208 5.2785282706563565 0.8683761405743089 2.49086344097039 0 0 0
15092 0 2 2.2208 13.766328648097593 20.866736798160073 8.238409412439086 0 0 0
12010 0 2 2.2208 10.928208022315983 0.877826275772326 2.617260573085843 0 0 0
12125 0 2 2.2208 10.823727559741588 20.86481147696271 10.990892773510069 0 0 0
6168 0 1 -1.1104 1.080285625904391 19.468855250634917 6.66291388078318 1 0 0
12013 0 2 2.2208 2.4796151355933658 3.9144673908398984 2.5763576685352048 0 0 0
12124 0 2 2.2208 8.210526238438533 23.705292375140413 10.977375152101441 0 0 0
15072 0 2 2.2208 13.653258444994638 9.594885528384632 8.192176811603023 0 0 0
12130 0 2 2.2208 11.07723183821628 1.180159925809142 13.698136550003358 0 0 0
12017 0 2 2.2208 7.990486109782441 3.70347091965352 2.53349428590183 0 0 0
12018 0 2 2.2208 5.3401760772565945 6.621909865392306 2.3544711919789467 0 0 0
15131 0 2 2.2208 13.8952225049424 3.737398662769895 13.565888053680126 0 0 0
12020 0 2 2.2208 10.741748658685166 6.678888809314017 2.4337543425192667 0 0 0
12113 0 2 2.2208 5.215492402221943 9.67831561063504 10.942742891267628 0 0 0
12104 0 2 2.2208 8.058004483591045 1.158847521269731 10.891458886368119 0 0 0
12023 0 2 2.2208 2.453204305238312 9.487788157911957 2.4472227980458072 0 0 0
15101 0 2 2.2208 13.804338570570392 0.9835244515179825 10.691858549385945 0 0 0
12149 0 2 2.2208 5.3496107037355785 23.631322912928905 13.823319537269587 0 0 0
12107 0 2 2.2208 2.2672662143147324 6.69697856099063 10.88908005482407 0 0 0
12027 0 2 2.2208 7.879562937013195 9.50093391793859 2.5256512481255613 0 0 0
12028 0 2 2.2208 5.3046367172639926 12.391319675615877 2.5459009060869002 0 0 0
15042 0 2 2.2208 13.722073817772918 20.94665093898349 2.6773631272334777 0 0 0
12030 0 2 2.2208 10.58213261270051 12.216284905396396 2.4758829883150946 0 0 0
12102 0 2 2.2208 2.4126730299409136 1.0355406567479877 10.969652634947272 0 0 0
12114 0 2 2.2208 8.181792076228808 12.372914381682303 10.83143693486645 0 0 0
12033 0 2 2.2208 2.3918190114700653 15.179466816745785 2.5827870943067994 0 0 0
12138 0 2 2.2208 8.184783356384903 9.55684156995553 13.709597897745123 0 0 0
12100 0 2 2.2208 11.01172952470649 23.6361317979573 8.16505122852178 0 0 0
12099 0 2 2.2208 10.941994121562898 20.877270609556334 5.476001704309046 0 0 0
12037 0 2 2.2208 8.085855280196025 15.096945254605119 2.3640899785194733 0 0 0
12038 0 2 2.2208 5.131850479644035 17.979472077508735 2.570390745196903 0 0 0
12098 0 2 2.2208 5.469289690013373 23.62774442412504 8.084989457866165 0 0 0
12040 0 2 2.2208 10.855479345197093 17.90213245421469 2.609899569817633 0 0 0
12097 0 2 2.2208 8.04496482041987 20.887943658283135 8.184292383522424 0 0 0
15091 0 2 2.2208 13.820705668299189 23.56647191954457 5.408364416763979 0 0 0
12043 0 2 2.2208 2.4738541302092716 20.779218022327974 2.3415913465517737 0 0 0
12123 0 2 2.2208 5.2384425906300445 20.82319046031215 11.072202216890759 0 0 0
12096 0 2 2.2208 8.15037011041828 23.665118669982945 5.364340177177246 0 0 0
12095 0 2 2.2208 5.3074103148934535 20.925556033470755 5.185730167980077 0 0 0
12047 0 2 2.2208 8.088543658152721 20.896229002099325 2.6010804594783714 0 0 0
12048 0 2 2.2208 5.320095500558595 23.69728483590927 2.419851110614078 0 0 0
12115 0 2 2.2208 10.934170280648766 9.642383187516316 10.961297275540499 0 0 0
12050 0 2 2.2208 10.849179548690058 23.579496293935765 2.592016005693862 0 0 0
12144 0 2 2.2208 5.236030821445096 18.020957165355316 13.785469474363373 0 0 0
12052 0 2 2.2208 2.397186768410952 1.1430732789285123 5.3530230190792825 0 0 0
12112 0 2 2.2208 2.4132358809254355 12.358591076401906 10.964864059906596 0 0 0
12122 0 2 2.2208 2.5191622628035333 23.769766292781444 10.91584985435679 0 0 0
12110 0 2 2.2208 11.020837718274377 3.9693211004335103 10.891240700131688 0 0 0
12056 0 2 2.2208 8.274592064511292 1.1642930427646434 5.331936719793823 0 0 0
12109 0 2 2.2208 8.118061212716428 6.681498351186457 11.008627615531266 0 0 0
12058 0 2 2.2208 5.3252436348673395 1.034183021045371 8.123857920063301 0 0 0
12108 0 2 2.2208 5.4091040019341685 3.970423408617767 10.918575234906834 0 0 0
12060 0 2 2.2208 11.047882929225944 1.1711508578441419 8.046900867812504 0 0 0
12120 0 2 2.2208 10.841046197429396 15.246706163223147 10.806274213718979 0 0 0
12062 0 2 2.2208 2.391959483017599 6.519043296432428 5.3568836059264235 0 0 0
12063 0 2 2.2208 2.4734862410500926 3.7872319667623593 8.109451894112356 0 0 0
12119 0 2 2.2208 8.012439133471345 18.06440469197706 11.008230013040151 0 0 0
12065 0 2 2.2208 5.317353235462747 3.7824789527678218 5.322918468270631 0 0 0
12066 0 2 2.2208 8.00409206200841 6.728143477652292 5.250683521175024 0 0 0
12067 0 2 2.2208 8.153837083279418 3.990166040176094 7.944786152569368 0 0 0
12068 0 2 2.2208 5.25674004490391 6.690428266469089 8.113581482808334 0 0 0
12069 0 2 2.2208 10.978029420157398 3.9423608164947557 5.1030143753881685 0 0 0
12070 0 2 2.2208 10.958633866610306 6.840730721063819 7.969484658789902 0 0 0
12129 0 2 2.2208 5.250419987637653 1.0858117577887914 13.675695277928167 0 0 0
12072 0 2 2.2208 2.392799894038637 12.201087691594019 5.158645517412798 0 0 0
12073 0 2 2.2208 2.3603593566947865 9.43461799999849 8.111686268538133 0 0 0
12118 0 2 2.2208 5.1703775428083745 15.060290930293709 10.934212701394822 0 0 0
12075 0 2 2.2208 5.1028657911194975 9.442861344009385 5.328692171043183 0 0 0
12076 0 2 2.2208 8.034530108585992 12.29486833936698 5.391234562591709 0 0 0
12077 0 2 2.2208 8.017514120775608 9.56319641979031 8.000287599433555 0 0 0
12078 0 2 2.2208 5.173624854248398 12.487740869640671 8.005016476416433 0 0 0
12079 0 2 2.2208 10.738524174420775 9.290644591004487 5.1850633258708365 0 0 0
12080 0 2 2.2208 10.864761710885938 12.225771002482398 8.008402782733022 0 0 0
15071 0 2 2.2208 13.536957284580174 12.330819200504328 5.157748495169877 0 0 0
12082 0 2 2.2208 2.4578552465353125 17.87093521288687 5.335448747128618 0 0 0
12083 0 2 2.2208 2.295054807683724 15.101179232372383 8.161332190442343 0 0 0
12117 0 2 2.2208 2.495587745783552 17.927166411680428 10.900306613829468 0 0 0
12085 0 2 2.2208 5.148932924361438 15.246424719595888 5.42226310780997 0 0 0
12086 0 2 2.2208 7.923213359280926 18.1466069163401 5.234895462456473 0 0 0
12087 0 2 2.2208 8.027935414534824 15.116114943132038 7.974829658879006 0 0 0
12088 0 2 2.2208 5.249211089857788 18.056400764064477 8.198539416033675 0 0 0
12089 0 2 2.2208 10.726239411069514 15.237043500988607 5.35494097406306 0 0 0
12090 0 2 2.2208 10.687496802876435 18.132088532032906 8.097521366777407 0 0 0
12143 0 2 2.2208 8.091853816576101 15.140050891812228 13.761734589016985 0 0 0
12092 0 2 2.2208 2.5196737696782687 23.702930769897822 5.1930008011848825 0 0 0
12093 0 2 2.2208 2.417562101125068 20.829930160626375 8.075336844088554 0 0 0
12139 0 2 2.2208 5.187259165730111 12.417429582010977 13.764092652749593 0 0 0
12135 0 2 2.2208 10.93706537874717 6.783136470085774 13.732155742943538 0 0 0
15022 0 2 2.2208 13.509630584532442 9.384297993314172 2.253807714807123 0 0 0
12131 0 2 2.2208 2.4340186431115107 3.827760445636095 13.725200360689733 0 0 0
12140 0 2 2.2208 10.823602948087055 12.502751896620028 13.691391824052708 0 0 0
12133 0 2 2.2208 8.1569104876216 3.8260127196478866 13.738023575622922 0 0 0
12136 0 2 2.2208 2.328362229011333 9.531502172450013 13.620563729266173 0 0 0
12141 0 2 2.2208 2.3975000384561747 15.219048585506046 13.799836943386495 0 0 0
12134 0 2 2.2208 5.159117791614679 6.5581421097424855 13.599583659313335 0 0 0
15061 0 2 2.2208 13.758731385214949 6.628200543436096 5.25208492609929 0 0 0
15121 0 2 2.2208 13.735611001180562 23.6561517110906 11.116821130841855 0 0 0
15051 0 2 2.2208 13.866810171182054 1.0744781654758135 5.200511293718981 0 0 0
15012 0 2 2.2208 13.930091166248706 3.8396006520224373 2.4827208427649334 0 0 0
12146 0 2 2.2208 2.6251248485248317 20.819391839900614 13.772781641735651 0 0 0
15136 0 2 2.2208 13.641819949431405 9.360990968364652 13.740448650424248 0 0 0
15106 0 2 2.2208 13.770352227241053 6.662087338176082 10.896083644687453 0 0 0
15081 0 2 2.2208 13.591754468274797 18.077987652645525 5.304505181581749 0 0 0
15141 0 2 2.2208 13.612431988043856 15.229744022174257 13.692484243812828 0 0 0
12128 0 2 2.2208 8.103715659947587 -1.6541308260612708 13.80887764999061 0 0 0
12053 0 2 2.2208 2.3698564555566217 -1.5892475317553443 8.253630459261043 0 0 0
15146 0 2 2.2208 13.639576516171998 20.70524253837392 13.72030832835429 0 0 0
12003 0 2 2.2208 2.5560735655818148 -1.6392374570718695 2.6220139529002218 0 0 0
226 0 1 -1.1104 3.889614207259663 -0.41487536070986575 15.159322014613744 0 0 0
227 0 1 -1.1104 0.9869292133039789 -0.40626718922409943 15.054397404413507 0 0 0
228 0 1 -1.1104 3.761823228984302 2.359308552657974 15.015582244805715 0 0 0
229 0 1 -1.1104 1.0662226943801563 2.4196515906306812 15.295518596617718 0 0 0
230 0 1 -1.1104 9.501560799072013 -0.36598136834762585 15.202518784586674 0 0 0
231 0 1 -1.1104 6.636210727813715 -0.4844972941789608 15.185565726874136 0 0 0
232 0 1 -1.1104 9.694087268531778 2.4955625295327692 15.176952219533565 0 0 0
233 0 1 -1.1104 6.712058928260917 2.414308467038354 15.083104710791801 0 0 0
234 0 1 -1.1104 12.076815241206111 -0.3086957216239425 15.09925325951518 0 0 0
235 0 1 -1.1104 12.513510374589822 2.618937602692153 15.132373808232533 0 0 0
236 0 1 -1.1104 3.911655379213615 5.189004637979109 15.236636864251473 0 0 0
237 0 1 -1.1104 1.1857018143374436 5.147738650124476 15.084303055321088 0 0 0
238 0 1 -1.1104 3.945095753174611 7.944062882003541 15.050684128976375 0 0 0
239 0 1 -1.1104 1.0611126298317255 7.9497812339883716 15.070931256198573 0 0 0
240 0 1 -1.1104 9.311282955387647 5.302800285146495 15.100959101042967 0 0 0
241 0 1 -1.1104 6.738840803756449 5.307773892889892 15.145745554260968 0 0 0
242 0 1 -1.1104 9.362207177806718 8.201849607541178 15.110406935415433 0 0 0
243 0 1 -1.1104 6.658654443418019 8.285413607364337 15.245044062568208 0 0 0
244 0 1 -1.1104 12.184377340610544 5.310989126757406 15.217804181843135 0 0 0
245 0 1 -1.1104 12.206764840569571 8.264679365472903 15.098533879371754 0 0 0
246 0 1 -1.1104 3.709830440514398 10.896061178070143 15.117004444225252 0 0 0
247 0 1 -1.1104 1.0763965971462497 10.813162385564462 15.045711507017927 0 0 0
248 0 1 -1.1104 3.8616511524812167 13.714184464227893 15.126971774615615 0 0 0
249 0 1 -1.1104 1.064588415935193 13.782840738242472 15.292051278502242 0 0 0
250 0 1 -1.1104 9.568006454562811 10.945507110054507 15.070977718911406 0 0 0
251 0 1 -1.1104 6.570337121018345 11.041912436345012 15.212163861920061 0 0 0
252 0 1 -1.1104 9.431650271604871 13.585188319063347 15.067587425620781 0 0 0
253 0 1 -1.1104 6.579366643127676 13.82318323238286 15.110510261794232 0 0 0
254 0 1 -1.1104 12.323434885183461 10.997019664288596 15.063213121320675 0 0 0
255 0 1 -1.1104 12.263049477951503 13.951075029547587 14.916548314675648 0 0 0
256 0 1 -1.1104 3.828761460689385 16.560105647333266 15.217082810024598 0 0 0
257 0 1 -1.1104 1.2087208294364769 16.744930662187134 15.008640260795508 0 0 0
258 0 1 -1.1104 3.9760301109163008 19.496777414115147 15.191838279453258 0 0 0
259 0 1 -1.1104 1.2377236405623293 19.46725995859657 15.09997807048242 0 0 0
260 0 1 -1.1104 9.560388462284479 16.495665609761378 15.334423996030363 0 0 0
261 0 1 -1.1104 6.889420342682115 16.62130109524614 15.236714207994705 0 0 0
262 0 1 -1.1104 9.32637373163357 19.38035767811812 15.088754079813986 0 0 0
263 0 1 -1.1104 6.556398122549156 19.607408922709492 15.128319178179929 0 0 0
264 0 1 -1.1104 12.25782198358994 16.619101328268133 14.941792086049102 0 0 0
265 0 1 -1.1104 12.17759335746381 19.411645576392818 15.305695073309657 0 0 0
266 0 1 -1.1104 4.145959049931444 22.346987608136992 15.256397933537002 0 0 0
267 0 1 -1.1104 1.4097186511649 22.353519398810644 15.010748203100515 0 0 0