LAMMPS data file via write_data, version 29 Oct 2020, timestep = 100000

18000 atoms
2 atom types

-0.5501589320200968 27.890158932020007 xlo xhi
-6.4572033299821525 334.53720332996096 ylo yhi
-0.5419282379096644 27.88192823791002 zlo zhi

Masses

1 15.9994
2 232.0381

Atoms # full

3673 0 2 2.2208 5.148979680949466 -0.6473061312635213 5.508279781462575 0 0 0
5 0 2 2.2208 2.2592212659291158 -3.547960589647701 2.4695812758224847 0 0 0
14 0 2 2.2208 5.571362767553835 -3.4595838206514 2.6485986634861263 0 0 0
63 0 2 2.2208 2.347704221152487 -0.4606515944416159 2.683073578239598 0 0 0
10 0 1 -1.1104 3.2912360451493776 -4.899124711883286 4.052019582881495 0 0 0
3604 0 2 2.2208 2.5074694395307637 -3.5729875222834377 5.948684164228839 0 0 0
17952 0 1 -1.1104 0.684538765088102 -4.338203242784262 0.6723575088667902 0 1 1
11 0 1 -1.1104 3.966237599241113 -2.277094120355368 1.733516014280976 0 0 0
17 0 1 -1.1104 3.7180799519388765 -2.2023764260372864 4.257618124803543 0 0 0
9 0 1 -1.1104 3.5032413177478943 -4.857862910755473 1.2170414502338318 0 0 0
58 0 1 -1.1104 1.204835231798392 -1.853598053080823 0.9701845535635915 1 0 0
3548 0 1 -1.1104 0.673678784222707 -4.972591551332648 3.463227096942401 0 1 0
12 0 1 -1.1104 0.8989405011749586 -2.1367468109178653 3.6989355963979524 0 0 0
20 0 1 -1.1104 6.641184972627147 -2.3190385368967052 1.003014177656696 0 0 0
3571 0 1 -1.1104 6.383426457521122 -2.2314274891101054 4.342222391359356 0 1 0
24 0 1 -1.1104 5.984083863021255 -0.08935681504224761 2.8086949933340764 0 0 0
17964 0 1 -1.1104 6.512909217162606 -5.136705745534561 1.0381361393673474 0 1 1
62 0 2 2.2208 -0.41997974324750925 2.1272839980172296 2.4076875078502464 0 0 0
28 0 2 2.2208 13.536914509599775 -3.7699715746449747 -0.3228362418881025 0 0 0
145 0 2 2.2208 10.437947715835124 4.6492935388104915 0.1368059816607587 0 0 0
3782 0 2 2.2208 -0.4861844587269992 13.354129988135151 8.091027086231836 0 0 0
3551 0 1 -1.1104 6.5138587083224175 -5.315083718369988 4.164438173576792 0 1 0
3687 0 2 2.2208 13.531134520269111 -0.7215352732615138 8.158248745814497 0 0 0
3685 0 2 2.2208 10.979133943664374 -0.682082920384712 5.534236072515202 0 0 0
29 0 2 2.2208 10.668623842948385 -3.813626355645767 2.839451756417739 0 0 0
30 0 1 -1.1104 8.072910503176166 -3.6612702093168776 2.90228641090941 0 0 0
31 0 1 -1.1104 12.185948561419806 -2.2324007492909237 1.219948802088513 0 0 0
26 0 2 2.2208 8.148808962818398 -1.3991603824184211 2.5903022399724422 0 0 0
21 0 1 -1.1104 9.509641835650807 -2.4234645627697957 1.0298099223164452 0 0 0
3616 0 2 2.2208 7.9536013573888695 -3.80331998990309 5.305191217329253 0 0 0
3564 0 1 -1.1104 9.421015533376387 -5.22548910070013 1.184160154371287 0 1 0
3569 0 1 -1.1104 12.139271802176648 -5.004788963010304 1.2200288185949937 0 1 0
3572 0 1 -1.1104 12.471862131750008 -5.195029318439851 3.9260002711920867 0 1 0
36 0 1 -1.1104 12.374298012211334 -2.188807569344376 3.937662430274673 0 0 0
18 0 1 -1.1104 9.68367493515765 -5.225212342765043 4.341992794533891 0 0 0
22 0 1 -1.1104 9.773935922706956 -2.2837940522288753 4.38113904577389 0 0 0
23 0 1 -1.1104 10.00701318040291 0.1733677913401467 2.025576799005646 0 0 0
78 0 1 -1.1104 7.932626460225347 0.432628495529592 0.9605377023826889 0 0 0
149 0 1 -1.1104 9.122619787997902 9.430297336035611 0.975474967714502 0 0 0
193 0 2 2.2208 8.06742256348207 10.772723493126207 -0.23490894970820847 0 0 0
85 0 2 2.2208 11.001333295198286 -0.6671307266938241 -0.23281026793198384 0 0 0
3806 0 2 2.2208 11.032920893823588 13.705096235300477 8.27854162240586 0 0 0
7411 0 1 -1.1104 12.062056544997342 15.170928620358584 12.577468487372725 0 0 0
3867 0 2 2.2208 13.455584873323163 16.55542320974069 8.080592750182728 0 0 0
244 0 2 2.2208 2.2203818446255013 19.308485159978463 -0.2641491062431934 0 0 0
70 0 1 -1.1104 3.7652058922506164 0.692921236805998 4.423665449733577 0 0 0
66 0 1 -1.1104 1.0708846625563893 0.8014788114604233 4.089732171466918 0 0 0
69 0 1 -1.1104 3.595790951171239 0.6635888946846928 1.099530064023645 0 0 0
6 0 1 -1.1104 0.8599215453140971 0.7143491232445313 1.0770838386749855 0 0 0
74 0 2 2.2208 4.906697052298964 2.0319989957552895 2.685336080123464 0 0 0
3664 0 2 2.2208 2.212586387463596 2.1968547442896966 5.558013329788124 0 0 0
3733 0 2 2.2208 5.288488634159276 4.59203755508577 5.526466290761975 0 0 0
123 0 2 2.2208 2.201243877682513 4.826463994338202 2.4968349515030765 0 0 0
71 0 1 -1.1104 3.734752155694117 3.6383722978442044 1.1410738798301727 0 0 0
72 0 1 -1.1104 3.6779896310320708 3.5686938436187 3.798767127605828 0 0 0
65 0 1 -1.1104 0.9556784811539347 3.5700270922027926 0.9242849498993423 0 0 0
68 0 1 -1.1104 1.0544724922183184 3.610614050624306 3.9384706414357393 0 0 0
129 0 1 -1.1104 1.0414397368398145 6.333912385117793 4.013213217540529 0 0 0
14520 0 1 -1.1104 1.3698617442094263 6.64539377912184 0.8762381235164065 1 0 1
80 0 1 -1.1104 6.060064984938261 2.112201393578382 4.658766261352741 0 0 0
7228 0 2 2.2208 13.593319369622687 -3.46476678130343 10.820146310058774 0 0 0
19 0 1 -1.1104 5.911379489223558 2.1253765692571345 0.26734772381499466 0 0 0
133 0 2 2.2208 5.481985714952227 4.53490059263033 -0.5091894349909982 0 0 0
141 0 1 -1.1104 6.73662278561955 6.657147965499159 1.4023425883747456 0 0 0
130 0 1 -1.1104 3.5902618225808998 6.851730143377627 2.9602610133362286 0 0 0
260 0 1 -1.1104 6.725249202121706 18.12355682072292 0.9749116576256134 0 0 0
7287 0 2 2.2208 13.630840494448103 -0.7931538692965152 13.65120112046912 0 0 0
82 0 1 -1.1104 8.22698730438904 0.17581256186045321 4.503967476860023 0 0 0
138 0 1 -1.1104 6.464992910288931 6.572749808088656 4.337733975856192 0 0 0
77 0 1 -1.1104 6.786874505164881 3.3773638849019956 2.4403124989134892 0 0 0
32 0 1 -1.1104 12.594591833258258 0.6575917479121137 3.8754110730596762 0 0 0
89 0 1 -1.1104 12.520798436304137 0.46443230326336193 1.0649676268791806 0 0 0
75 0 2 2.2208 8.21672476887919 1.8252021027012253 2.7492989704311275 0 0 0
90 0 1 -1.1104 10.03513498486912 4.042861379131683 2.6543296068537545 0 0 0
86 0 2 2.2208 11.331960586616136 2.1643581252507254 2.456705410335335 0 0 0
3676 0 2 2.2208 7.914578490785556 1.914288773429256 5.928850394276433 0 0 0
3745 0 2 2.2208 10.690919501416092 4.739980286871042 5.047405568924576 0 0 0
91 0 1 -1.1104 12.367302136879688 3.711033852261776 1.1499149456947282 0 0 0
135 0 2 2.2208 7.909500835485147 5.236642687178025 2.5349337077205405 0 0 0
84 0 1 -1.1104 10.02362857326864 2.0993751306213375 4.397062656626965 0 0 0
81 0 1 -1.1104 9.91029722271683 2.3771745423315793 0.6419274495794081 0 0 0
152 0 1 -1.1104 12.682385035923243 3.5050356021028746 3.7526752026388555 0 0 0
83 0 1 -1.1104 7.7677144547298695 4.048219252440528 4.862363610076798 0 0 0
14492 0 1 -1.1104 12.094165615469572 6.459366182497806 1.1260693853812207 0 0 1
147 0 2 2.2208 13.457547863929474 5.1917720419267726 2.3286504657739733 0 0 0
92 0 1 -1.1104 12.51151977940079 6.399409991567196 3.890884441054586 0 0 0
139 0 1 -1.1104 8.109874904451257 4.410736435468778 0.3864823548860375 0 0 0
16 0 2 2.2208 8.079198327463875 -3.7733162993767775 -0.5230726499268693 0 0 0
207 0 2 2.2208 13.396436671398778 10.770023273847862 2.797503568443565 0 0 0
7396 0 2 2.2208 8.042390478499525 13.256206555001325 11.439426760685254 0 0 0
3793 0 2 2.2208 5.071044145137385 10.648707393567921 5.633377816885337 0 0 0
127 0 1 -1.1104 3.926389546498487 9.441118568812827 1.3395406931395972 0 0 0
134 0 2 2.2208 5.354501132850793 8.294027156435899 2.6629051322188277 0 0 0
128 0 1 -1.1104 1.109615389758605 9.253252328204189 4.47987674592863 0 0 0
183 0 2 2.2208 2.2693667657111027 10.838109766156995 2.814446025563822 0 0 0
3724 0 2 2.2208 2.686943535673833 7.703680802455002 4.958669409343933 0 0 0
132 0 1 -1.1104 3.69061657090937 9.3576744743946 3.9495570463661154 0 0 0
3785 0 1 -1.1104 0.8889303463379328 12.200237940988814 4.0354487593556305 0 0 0
180 0 1 -1.1104 0.734854360401288 9.376480771858503 1.716426890780604 1 0 0
190 0 1 -1.1104 3.6666261922291867 11.929172803908413 4.10742541252168 0 0 0
186 0 1 -1.1104 3.638741995946847 12.352700497339331 1.3038844347794472 0 0 0
14586 0 1 -1.1104 0.8403586845139069 12.14139964928657 1.2319640348984933 0 0 1
144 0 1 -1.1104 6.776608944205153 9.387156258607055 3.978163698691946 0 0 0
137 0 1 -1.1104 6.6252634050075 12.202472573729594 0.37296598041417633 0 0 0
185 0 2 2.2208 4.758502904784334 10.868886051818368 -0.2297700351578206 0 0 0
259 0 2 2.2208 8.10115090086318 19.767853582734986 2.4045051419665957 0 0 0
3790 0 1 -1.1104 6.9124282417229015 14.771420239607265 9.074197697024916 0 0 0
7399 0 1 -1.1104 6.4068237650799995 14.905105788403638 12.190028255467462 0 0 0
3789 0 1 -1.1104 3.7640044406295976 11.908723021820391 7.035154494244344 0 0 0
142 0 1 -1.1104 9.32717827362562 6.5539487406919505 1.0373129746821563 0 0 0
3754 0 1 -1.1104 9.655707502688054 6.5407408671452 3.8105841616025087 0 0 0
140 0 1 -1.1104 6.523803465458995 12.507809418708701 4.308223361329304 0 0 0
14484 0 1 -1.1104 6.532179599342432 9.899519934786468 1.2504266340891463 0 0 1
198 0 1 -1.1104 10.022203690190473 11.12984498694577 2.4155872310574598 0 0 0
3805 0 2 2.2208 10.670329060239975 10.789328739941544 5.606462785145232 0 0 0
7225 0 2 2.2208 10.888178096049504 -6.417623933565108 10.921644278608593 0 0 0
151 0 1 -1.1104 12.373782090608527 12.072489127590268 0.9836749953396521 0 0 0
146 0 2 2.2208 10.744550089038977 8.012327932734452 2.589177071110425 0 0 0
195 0 2 2.2208 8.138423065223126 11.024000273866996 3.358666524113719 0 0 0
3736 0 2 2.2208 8.231129626976008 7.60341510952604 5.38312521273993 0 0 0
210 0 1 -1.1104 12.213857350000042 9.54972746007795 4.192844368004554 0 0 0
3743 0 1 -1.1104 9.212049725799346 12.357237804925115 4.852437832050471 0 0 0
14552 0 1 -1.1104 12.189203668058985 9.217511432754879 1.2123043907649054 0 0 1
212 0 1 -1.1104 12.20422666834891 12.367637970933785 3.850707903229619 0 0 0
3751 0 1 -1.1104 9.26621930589496 9.353153589998513 4.101789321744909 0 0 0
205 0 2 2.2208 11.149473836633788 10.695189388449696 -0.03422136000884025 0 0 0
3739 0 1 -1.1104 6.469426905718322 9.229853309584442 6.58155568067591 0 0 0
136 0 2 2.2208 7.8740653360705215 7.584476595273433 -0.3250466983575347 0 0 0
201 0 1 -1.1104 9.815057591745502 12.454834141447892 0.11042481148388461 0 0 0
3784 0 2 2.2208 2.2583651240368536 13.557543062622488 5.446463207779816 0 0 0
194 0 2 2.2208 5.167867255731057 13.500616609663902 2.4709228031596844 0 0 0
254 0 2 2.2208 4.919039438256 19.13800830025819 2.6765874747744856 0 0 0
3844 0 2 2.2208 2.3803049667593754 19.210582592175868 5.224944163860285 0 0 0
3853 0 2 2.2208 4.948621037361539 16.075285553176922 5.598903673595925 0 0 0
245 0 1 -1.1104 0.7089874575060587 17.695694093356263 1.096825511695359 0 0 0
246 0 1 -1.1104 1.32372556037927 18.029952243826198 3.5354690090057246 0 0 0
187 0 1 -1.1104 0.9553382525389841 14.796837255377493 1.3120207895103404 0 0 0
188 0 1 -1.1104 0.7038896342910832 15.041417802655669 4.142738678181455 0 0 0
243 0 2 2.2208 2.446196415340235 16.135835303104287 2.577424043724346 0 0 0
250 0 1 -1.1104 4.044971338836022 17.46135839396 3.7845041647773106 0 0 0
191 0 1 -1.1104 3.4266375224897136 15.063633916747484 0.993853446995965 0 0 0
192 0 1 -1.1104 3.7281761258972166 14.714662283662127 3.9845815231407276 0 0 0
249 0 1 -1.1104 3.67441621462383 17.666635324636147 1.1405573958648 0 0 0
257 0 1 -1.1104 6.464580771302598 15.333347128730743 3.8321292086202345 0 0 0
258 0 1 -1.1104 5.625912757412362 19.27078233400024 5.773232548141267 0 0 0
197 0 1 -1.1104 6.2735642469907775 15.149310696800265 1.046393116810141 0 0 0
3862 0 1 -1.1104 8.97142884571819 17.262643241809265 10.203221352306203 0 0 0
7457 0 1 -1.1104 6.340431891975664 17.712682229837682 12.800233584102196 0 0 0
7321 0 2 2.2208 -0.48713276442649833 4.7975192921405 10.876360276013937 0 0 0
253 0 2 2.2208 5.043387977843412 16.299591744773494 -0.2659790896235242 0 0 0
3922 0 1 -1.1104 7.951117501723456 19.244955202813948 7.844584414830296 0 0 0
3807 0 2 2.2208 13.532209028580436 10.76451289080335 8.263111759118951 0 0 0
199 0 1 -1.1104 6.79248633662375 18.128205043387343 3.5657952326467455 0 0 0
206 0 2 2.2208 10.743339635177364 13.435244004786137 2.2290169614099073 0 0 0
202 0 1 -1.1104 8.156754716834591 13.411228729730182 2.3331764713381458 0 0 0
266 0 2 2.2208 11.286854802841953 19.254088289974238 2.4311280577735497 0 0 0
3796 0 2 2.2208 8.03423438564075 14.30652808054362 4.947245079690811 0 0 0
3799 0 1 -1.1104 8.264935779786084 16.89429187841879 5.870673792029103 0 0 0
14662 0 1 -1.1104 12.35618919322734 17.89224404804686 0.8772104056535599 0 0 1
3865 0 2 2.2208 10.76769659890531 16.856881861925427 5.402397620084145 0 0 0
270 0 1 -1.1104 12.314723833229213 14.927586356770167 3.6195336025170755 0 0 0
211 0 1 -1.1104 12.324421295326816 15.012320527559103 0.7672365225705348 0 0 0
255 0 2 2.2208 7.861623209886931 16.243712623849976 2.1995764026439546 0 0 0
3856 0 2 2.2208 7.818122980882454 19.095412281659467 5.655233598611622 0 0 0
203 0 1 -1.1104 9.596453473482434 15.208131481085292 0.9733736784539654 0 0 0
204 0 1 -1.1104 9.433492209551881 15.827600876505056 3.812064499552121 0 0 0
14604 0 1 -1.1104 9.480069460143453 18.454816600603483 3.6831592161081153 0 0 1
261 0 1 -1.1104 12.256633418121142 17.751619961036322 3.7027684933844975 0 0 0
321 0 1 -1.1104 8.97319410775874 17.973296190992276 1.0263459874292251 0 0 0
196 0 2 2.2208 8.047612109207627 13.877971885373062 -0.3331058789428853 0 0 0
265 0 2 2.2208 11.15017785544756 16.6853448783431 -0.46565907000936746 0 0 0
3721 0 2 2.2208 -0.45577084532528833 5.118609590194042 5.4188486235428135 0 0 0
3605 0 1 -1.1104 0.8680212482681031 -4.9698336324967345 6.687616579895653 0 0 0
3611 0 1 -1.1104 3.9731229066043854 -2.312250508153919 7.18069537514807 0 0 0
8 0 1 -1.1104 0.9435667688131354 -2.0910172336550277 6.66650667466138 0 0 0
3609 0 1 -1.1104 3.9119351342474795 -5.078791065715053 6.984180519999533 0 0 0
7208 0 1 -1.1104 0.8698368787926647 -2.0567654232108095 12.3534584570139 0 0 0
3607 0 1 -1.1104 0.7620904374487995 -2.3957917932347117 9.487106948051338 0 0 0
7273 0 2 2.2208 5.1592114935009965 -0.6653313899743855 11.314590932224863 0 0 0
7205 0 1 -1.1104 3.886166566763832 -5.133611016264684 12.822083666399282 0 0 0
3606 0 1 -1.1104 0.7589364717461687 -5.101178170757419 9.808888476585013 0 0 0
7207 0 1 -1.1104 0.8910955310726995 -4.973436093867031 12.597817063515558 0 0 0
3614 0 2 2.2208 5.239703887125748 -3.692544261368128 8.402937957789232 0 0 0
7209 0 1 -1.1104 3.4460456074617953 -2.312337779014884 12.686544127936783 0 0 0
3663 0 2 2.2208 2.278632829016084 -0.7062987617425045 8.497508091048754 0 0 0
3610 0 1 -1.1104 3.4185576401757185 -4.864116520348541 9.482844588649797 0 0 0
7204 0 2 2.2208 2.2593518523149605 -3.6037373853597208 11.079202333481163 0 0 0
7211 0 1 -1.1104 3.8484181429864277 -2.2200736746978547 9.947778536980124 0 0 0
3618 0 1 -1.1104 6.567783185650697 -5.0640446819126685 9.654535366358798 0 0 0
3617 0 1 -1.1104 6.523494251158158 -5.259348256276879 7.06535232813562 0 0 0
7284 0 1 -1.1104 8.94073493969121 3.3435090516682755 12.782881506919065 0 0 0
7219 0 1 -1.1104 6.0481366250313275 -2.1167911053445128 12.684449578826374 0 0 0
3619 0 1 -1.1104 6.7325501441075355 -2.512729222757124 7.063137528512007 0 0 0
3612 0 1 -1.1104 6.67071222982918 -2.1336617172401673 9.98908245822756 0 0 0
7217 0 1 -1.1104 6.76779892642471 -5.203268366781961 12.496147791602064 0 0 0
3629 0 1 -1.1104 12.28222314019576 -5.151741344416679 6.7360500958642 0 0 0
3631 0 1 -1.1104 12.134123760086897 -2.2020571652423295 6.765086377850383 0 0 0
3621 0 1 -1.1104 9.293629313417417 -5.047899846407288 6.949962266219738 0 0 0
3623 0 1 -1.1104 9.322760397856058 -2.1062259320620798 7.20490754356359 0 0 0
7172 0 1 -1.1104 12.09483387937429 -4.953400971529305 9.460900833806999 0 1 0
7285 0 2 2.2208 10.709339938961266 -0.7280117231862616 10.942918852874751 0 0 0
7229 0 1 -1.1104 12.251191506614182 -4.926217657432045 12.259146894535888 0 0 0
7231 0 1 -1.1104 12.26426029032056 -2.2222768149156695 12.513610765285458 0 0 0
3626 0 2 2.2208 10.705092214253359 -3.5914387581340614 8.244116010441896 0 0 0
3632 0 1 -1.1104 12.298265232901436 -2.1576879366588577 9.632288780785576 0 0 0
7221 0 1 -1.1104 9.450888363561372 -5.109450974120013 12.483858382569881 0 0 0
3675 0 2 2.2208 7.857601364417911 -0.9058691267257352 8.305953994963202 0 0 0
3622 0 1 -1.1104 9.37797513886083 -4.961340364646822 9.56637123286653 0 0 0
7216 0 2 2.2208 8.168648101425251 -3.7106412252559147 11.167556672835998 0 0 0
7223 0 1 -1.1104 9.545296077084489 -2.3563808762214102 12.561373652774801 0 0 0
3624 0 1 -1.1104 9.261820043460698 -2.2363246328405397 9.856737711016827 0 0 0
3667 0 1 -1.1104 0.9088723526905694 3.6634701853518474 6.713341011450043 0 0 0
3669 0 1 -1.1104 3.5878355690630666 0.4861068237254004 7.108091098064211 0 0 0
126 0 1 -1.1104 1.1312408475769604 6.638207035384814 6.725608383671482 0 0 0
3679 0 1 -1.1104 6.487464868311135 3.3220329934160313 7.096779161071569 0 0 0
3665 0 1 -1.1104 0.7209339021892706 0.7195962526075218 6.844023860172238 0 0 0
3729 0 1 -1.1104 4.084038913962158 6.230138834782111 6.180321441767921 0 0 0
3671 0 1 -1.1104 3.6465937991266664 3.2572674299656947 6.811437908188608 0 0 0
3670 0 1 -1.1104 3.51720829248975 0.6430101466719718 9.803938905372943 0 0 0
7269 0 1 -1.1104 3.569529749332823 0.6318867146517798 12.696321231621932 0 0 0
7265 0 1 -1.1104 0.6418072125443529 0.7497035016570578 12.594087991571522 0 0 0
3666 0 1 -1.1104 0.8805990243554832 3.3929249202412617 9.686114425255308 0 0 0
3674 0 2 2.2208 4.9472320567402885 1.9973619309317991 8.30972151983281 0 0 0
3608 0 1 -1.1104 0.8036305041939124 0.4992547528864746 9.784435849145837 0 0 0
7264 0 2 2.2208 2.3176244140520157 1.849766438919953 11.302475881808114 0 0 0
7333 0 2 2.2208 4.960076482583205 5.044718913211803 10.904307459576009 0 0 0
7267 0 1 -1.1104 1.0007251064061775 3.586004451102059 12.343597538490474 0 0 0
3723 0 2 2.2208 2.3018781241956794 4.942024562146068 8.198353469299613 0 0 0
7271 0 1 -1.1104 3.636020284416871 3.3849750495483173 12.40177620447847 0 0 0
3672 0 1 -1.1104 3.6236440471302895 3.633549472299287 9.401395892866422 0 0 0
3668 0 1 -1.1104 0.7897119004456656 6.3438718630435575 9.556599696606266 0 0 0
7329 0 1 -1.1104 3.7365388128435146 6.506367362576107 12.367331311168938 0 0 0
3730 0 1 -1.1104 3.6308095338771555 6.45278439564764 9.159754053821398 0 0 0
7325 0 1 -1.1104 1.0442267972391954 6.37646113450781 12.53456238173222 0 0 0
3737 0 1 -1.1104 6.936243963752148 6.332572555954391 6.985654643546543 0 0 0
3680 0 1 -1.1104 6.4398777901123125 6.314251481871329 9.710401582624007 0 0 0
7277 0 1 -1.1104 6.615687254968541 0.5635970294732283 12.777916143098036 0 0 0
3620 0 1 -1.1104 6.2657187364011255 0.7511313977286879 9.663610549710128 0 0 0
3678 0 1 -1.1104 6.673410331798425 3.391758919446213 9.86038477006593 0 0 0
3861 0 1 -1.1104 10.144379504816003 17.20774412654175 7.616307896655193 0 0 0
162 0 1 -1.1104 12.266794257700452 6.439430662888211 6.73717200811435 0 0 0
3691 0 1 -1.1104 12.2731443187716 3.62885936513719 6.420261718391425 0 0 0
7337 0 1 -1.1104 6.5531690836827075 6.24786407657268 12.648969427854572 0 0 0
3689 0 1 -1.1104 12.44264891404761 0.723612126993505 6.728659155935839 0 0 0
3677 0 1 -1.1104 6.570088923589705 0.5536421625480883 7.070574125532685 0 0 0
7279 0 1 -1.1104 6.382880842064863 3.5007898718770316 12.493459892411103 0 0 0
3749 0 1 -1.1104 9.445667728719085 6.187278822787042 6.716145765652134 0 0 0
3681 0 1 -1.1104 9.7372591492402 0.4213472821260667 7.071388957105632 0 0 0
3683 0 1 -1.1104 9.6309801788209 3.2789252690241346 6.8023091696337765 0 0 0
7281 0 1 -1.1104 9.336701183521418 0.6765551519412154 12.362630161172428 0 0 0
7289 0 1 -1.1104 12.116560046814763 0.6470777261150631 12.441896983422746 0 0 0
3690 0 1 -1.1104 12.026860414186393 0.5367332121694007 9.589405298181408 0 0 0
3686 0 2 2.2208 11.012777725004625 2.1096263635245336 8.13857318719686 0 0 0
3682 0 1 -1.1104 8.986993804254773 0.7403798223198998 9.771434993438008 0 0 0
7276 0 2 2.2208 8.066359785063662 2.0449459331808395 11.23484001397763 0 0 0
3684 0 1 -1.1104 9.695970220127956 3.513262953401481 9.800473705478252 0 0 0
7283 0 1 -1.1104 11.909340799459043 3.444037391449293 12.490978601618906 0 0 0
3735 0 2 2.2208 8.126961207281168 4.837558925246927 8.132203237817466 0 0 0
7345 0 2 2.2208 10.984675079485996 5.072972286770637 10.995505770965579 0 0 0
7291 0 1 -1.1104 12.476806295941854 3.4517077691365667 9.535367516931796 0 0 0
3750 0 1 -1.1104 12.494924993601128 6.170889101010826 9.544398286801554 0 0 0
7341 0 1 -1.1104 9.342412145531124 6.153418132023796 12.542597561144312 0 0 0
3742 0 1 -1.1104 9.712787188976241 6.196982252236852 9.464435122814962 0 0 0
7349 0 1 -1.1104 12.198792747644028 6.640235992217704 12.188149578232498 0 0 0
3808 0 2 2.2208 13.33692730347165 13.70243650359026 5.287657423191049 0 0 0
3725 0 1 -1.1104 0.8141448002055152 9.440189519965255 6.974957200633134 0 0 0
3727 0 1 -1.1104 0.7938059774816522 12.189352836923575 6.739524948743684 0 0 0
3731 0 1 -1.1104 3.8025219840136026 9.037808967358266 6.716783555288058 0 0 0
7393 0 2 2.2208 4.899225810198759 10.486405715201128 11.072102742189767 0 0 0
3726 0 1 -1.1104 0.7706074441593701 9.375190780200986 9.689345230226918 0 0 0
7327 0 1 -1.1104 0.9154231469371573 9.15433922308153 12.403146071669076 0 0 0
3734 0 2 2.2208 5.359155105049107 7.738113874511165 8.168473284419363 0 0 0
3728 0 1 -1.1104 3.663535009502676 11.993590985831514 9.69415229196406 0 0 0
3783 0 2 2.2208 2.294131314255706 10.556881568849978 8.292558262356778 0 0 0
7324 0 2 2.2208 2.2595983875018195 7.849720086300494 11.09384207027041 0 0 0
7331 0 1 -1.1104 3.7080682011423995 9.122483719644489 12.522515413339175 0 0 0
3732 0 1 -1.1104 3.6046776294738856 9.137053430379721 9.631903477176913 0 0 0
7389 0 1 -1.1104 3.516881893945857 12.040180484165816 12.537581223415746 0 0 0
3786 0 1 -1.1104 0.7882099933695739 12.400347521113492 9.680006599872929 0 0 0
7385 0 1 -1.1104 0.6227437309728007 11.84951228234095 12.468858487015567 0 0 0
3740 0 1 -1.1104 6.319324922605496 12.156858231416242 9.764980842116874 0 0 0
184 0 2 2.2208 1.967090208007942 13.46036179912686 -0.34401526314951947 0 0 0
3803 0 1 -1.1104 9.259225058579732 14.228607738556757 6.78249305486147 0 0 0
124 0 2 2.2208 2.081448393537328 8.24352949375234 -0.3349594957309175 0 0 0
7339 0 1 -1.1104 6.59004532152241 8.922670259115714 12.572229685552117 0 0 0
3738 0 1 -1.1104 6.6588717456636894 8.967461438369245 9.49110649083542 0 0 0
3741 0 1 -1.1104 9.65031402362099 8.892067831817142 6.903668725718493 0 0 0
3809 0 1 -1.1104 12.07670807610713 12.109947617277301 6.67210371235847 0 0 0
7397 0 1 -1.1104 6.520671648469853 11.85250121408382 12.433113543631508 0 0 0
3797 0 1 -1.1104 6.450835701735363 11.606030441181046 7.234655510359379 0 0 0
154 0 1 -1.1104 12.152180668369581 9.389403012982 6.85290834834384 0 0 0
3801 0 1 -1.1104 9.38793656918588 11.40454645846008 7.582249465025738 0 0 0
7401 0 1 -1.1104 9.624534085498775 12.3034453100254 12.832389296104155 0 0 0
3744 0 1 -1.1104 9.767394038783468 8.869948797493063 9.747749979227109 0 0 0
7343 0 1 -1.1104 9.509151416558652 9.051960390675571 12.535811224990578 0 0 0
7336 0 2 2.2208 8.056478525472256 7.689197044253786 11.160048407208546 0 0 0
3795 0 2 2.2208 8.143409557761599 9.910306356306696 8.30445385252995 0 0 0
7405 0 2 2.2208 10.972478159491388 10.712666530081226 11.058402850547221 0 0 0
7351 0 1 -1.1104 12.388527384745425 9.245383272418259 12.455446430859208 0 0 0
3746 0 2 2.2208 11.151408367141123 7.550278071294487 8.329347793746335 0 0 0
3752 0 1 -1.1104 12.586517210969973 9.066978630029567 9.558589094267262 0 0 0
3802 0 1 -1.1104 8.964564527610174 11.74414047747615 10.291654182728053 0 0 0
7409 0 1 -1.1104 12.321800068219948 12.127779816775323 12.591169458263902 0 0 0
3810 0 1 -1.1104 12.210158660654944 12.243056796135523 9.651243250640679 0 0 0
3791 0 1 -1.1104 3.6868880144386966 14.660516803032825 6.954312912029845 0 0 0
3787 0 1 -1.1104 0.7597473211515368 14.928847512492734 6.895566658057359 0 0 0
3845 0 1 -1.1104 0.5814146018772772 17.682935590977227 6.698067662097122 0 0 0
3849 0 1 -1.1104 3.1486168330097946 17.495475681484344 6.377487051057902 0 0 0
7384 0 2 2.2208 2.181469811564042 13.568460090334838 11.259560156114766 0 0 0
3858 0 1 -1.1104 6.50304781882322 18.07470348285081 9.786458321155987 0 0 0
3857 0 1 -1.1104 5.591749969879654 17.01549118890089 7.564554923042888 0 0 0
3794 0 2 2.2208 4.819418393380405 13.259289673399032 8.387135311837355 0 0 0
3854 0 2 2.2208 5.14175441857735 19.102869274543586 8.09290979484151 0 0 0
7449 0 1 -1.1104 3.5050908477394365 17.74981526289321 12.269372980068724 0 0 0
3846 0 1 -1.1104 0.5274070373845425 17.67257140449343 9.682853618802488 0 0 0
3788 0 1 -1.1104 0.9228107187771428 14.959712617612187 10.00817618423327 0 0 0
7445 0 1 -1.1104 0.7679644904912367 17.711708981242165 12.101613990755842 0 0 0
7453 0 2 2.2208 5.088434637564445 16.257496981028023 10.987277797736239 0 0 0
3850 0 1 -1.1104 3.589961058797373 17.8732360058534 9.451462189076858 0 0 0
3843 0 2 2.2208 2.2503928263857635 16.365309854304247 8.168358351857131 0 0 0
3792 0 1 -1.1104 3.6200044425585767 14.772751407102731 9.709888982908424 0 0 0
7387 0 1 -1.1104 0.8967563719209269 14.91093575259649 12.589279901438315 0 0 0
7391 0 1 -1.1104 3.6057646209834564 15.068491329945433 12.528786401820096 0 0 0
7444 0 2 2.2208 2.324256589178699 19.323445536433013 10.945605959476298 0 0 0
7403 0 1 -1.1104 9.14934542243046 14.937958852939682 12.661059458058944 0 0 0
7469 0 1 -1.1104 9.603268497428468 17.580970809790013 12.882604955283135 0 0 0
200 0 1 -1.1104 6.35154332622893 14.43888669809104 6.723923065335671 0 0 0
3800 0 1 -1.1104 9.509312528427508 14.566519144027234 9.605437248048784 0 0 0
3855 0 2 2.2208 7.9318087731675435 16.64034812835621 8.39397765077957 0 0 0
3798 0 2 2.2208 7.959454871892879 13.088167933815878 8.287482144704569 0 0 0
3866 0 2 2.2208 11.031274612382258 19.390825866570577 8.387842409216756 0 0 0
7456 0 2 2.2208 7.974473980635243 19.377490557194697 11.174454958338345 0 0 0
7471 0 1 -1.1104 12.321363230323842 17.949578934964922 12.520017013920366 0 0 0
3661 0 2 2.2208 -0.41229864233476604 -0.6388441336211744 5.357834993542188 0 0 0
3811 0 1 -1.1104 12.088647062707194 14.96407313932976 6.689413285769865 0 0 0
3869 0 1 -1.1104 12.271520057281949 18.05980817811484 6.700914935250687 0 0 0
7465 0 2 2.2208 10.83007570532052 16.645630303324552 11.189462414358829 0 0 0
3870 0 1 -1.1104 12.120788190720946 17.91234751020062 10.002993934999132 0 0 0
3804 0 1 -1.1104 12.507137361274623 15.209278971530043 9.623313537389613 0 0 0
64 0 2 2.2208 2.4483936424154127 2.103036511122572 -0.4708073660561513 0 0 0
61 0 2 2.2208 -0.472685641813746 -0.8894149819311409 -0.41382932183605187 0 0 0
73 0 2 2.2208 5.4003833465230615 -0.570160640928747 0.1033927989902773 0 0 0
242 0 2 2.2208 -0.3467994527142231 19.18564113681874 2.6213530515045713 0 0 0
3748 0 2 2.2208 13.532015894037235 7.978492216498722 5.326477388020183 0 0 0
3722 0 2 2.2208 -0.5318221977399595 8.01758816129941 8.117253289654574 0 0 0
88 0 2 2.2208 13.651276620646794 2.1801137831063704 -0.3276803158847017 0 0 0
179 0 2 2.2208 -0.5210361510729768 10.646933385220931 0.23955372300716515 1 0 0
25 0 2 2.2208 10.924196914689443 -6.294397631527147 -0.12680779303903297 0 0 0
1 0 2 2.2208 -0.3904471049200605 -6.407176169551121 -0.47680353466016434 0 0 0
79 0 2 2.2208 7.961545931798917 2.0031221179229135 -0.5205223522795528 0 0 0
10873 0 2 2.2208 5.261676306565053 -0.6969725916274385 16.940281798852535 0 0 0
10805 0 1 -1.1104 0.8267492527923179 -4.8650502831297535 18.25250888159653 0 0 0
7206 0 1 -1.1104 0.9065095794521436 -2.165002065113749 15.440324258502288 0 0 0
10807 0 1 -1.1104 0.8091345491796018 -2.0945147784075404 18.388294649758716 0 0 0
10814 0 2 2.2208 5.684424635775897 -3.3894790836215107 19.583855324658618 0 0 0
10809 0 1 -1.1104 3.775777557217717 -5.388644415535856 18.335266345453803 0 0 0
10863 0 2 2.2208 2.5859761483363193 -0.7281983995632454 19.68501419221677 0 0 0
7210 0 1 -1.1104 3.6964860182398263 -4.9432067008846206 15.322746880892282 0 0 0
10804 0 2 2.2208 2.1846843397627196 -3.551259576638322 16.884281335739765 0 0 0
10811 0 1 -1.1104 3.6927587254209024 -2.1029890305193826 18.248773208204376 0 0 0
7212 0 1 -1.1104 3.5624578567832117 -2.203760964451722 15.373185444728499 0 0 0
7258 0 1 -1.1104 0.8858080412863398 -4.959793053062144 15.358056970328873 1 0 0
10819 0 1 -1.1104 6.584577775388619 -1.7705895739580373 18.36285118992818 0 0 0
7220 0 1 -1.1104 6.493915964046115 -2.3620479839709407 15.572880231967051 0 0 0
10817 0 1 -1.1104 6.484362399865308 -4.88583024219881 18.132900315394778 0 0 0
7218 0 1 -1.1104 6.4513006955082375 -5.31610475572965 15.512669798897376 0 0 0
14403 0 2 2.2208 2.2012808066455354 -6.370140072075796 25.172271526549444 0 0 0
14526 0 1 -1.1104 -0.3397905159316988 12.395018758472684 27.078513961042837 0 0 0
14667 0 2 2.2208 13.64837805636186 16.395506862416678 25.2619803791926 0 0 0
4 0 2 2.2208 2.3587851499483943 -3.4693070419611196 27.585689548464295 0 0 -1
10885 0 2 2.2208 10.9000937251037 -0.5947024231104917 16.749717713209836 0 0 0
10829 0 1 -1.1104 12.362641474501357 -4.985114313828999 17.967446799385073 0 0 0
7230 0 1 -1.1104 12.197759208130378 -5.018908650920537 15.118194365912988 0 0 0
10831 0 1 -1.1104 12.283491451634402 -2.318778266241302 18.22632939017841 0 0 0
10826 0 2 2.2208 10.886985597137553 -3.5865550916916673 19.51734622047389 0 0 0
7232 0 1 -1.1104 12.270618498370487 -1.8596354352520348 15.518683022889656 0 0 0
10821 0 1 -1.1104 9.46793778637922 -4.9329721038223235 18.258566406713122 0 0 0
10875 0 2 2.2208 8.335715020623303 -0.659525744896369 19.649532146080453 0 0 0
7222 0 1 -1.1104 9.637941012479152 -4.9131444721946185 15.239748874714056 0 0 0
10816 0 2 2.2208 8.033119698110324 -3.8019380436111723 16.471496417485227 0 0 0
10823 0 1 -1.1104 9.357256161471316 -2.1884496670730296 18.068274645370536 0 0 0