ITEM: TIMESTEP
80000
ITEM: NUMBER OF ATOMS
17820
ITEM: BOX BOUNDS pp pp pp
-3.6308154964137596e-01 2.7703081549640814e+01
-4.2193081594017965e+00 3.3229930815940565e+02
-3.6548673142547439e-01 2.7705486731425459e+01
ITEM: ATOMS id type q x y z
1 2 2.2208 5.43522 1.46905 5.39059
2 1 -1.1104 1.35018 -2.80235 1.28537
3 1 -1.1104 1.40316 2.67763 1.05445
6 1 -1.1104 1.13462 -2.71595 3.92334
7 1 -1.1104 1.18727 2.85344 3.86254
10 1 -1.1104 1.17595 0.0446972 0.9188
12 2 2.2208 5.43879 -1.31745 2.47062
13 2 2.2208 5.51328 4.2615 2.54281
14 1 -1.1104 1.1771 0.122385 3.92049
16 1 -1.1104 4.04818 -2.76688 1.13964
17 1 -1.1104 4.14937 2.76599 1.16656
18 2 2.2208 2.7681 1.41258 2.43363
19 1 -1.1104 4.02574 -2.82385 3.95851
20 1 -1.1104 4.08232 2.89434 3.91598
21 2 2.2208 2.52102 -1.23545 5.40869
23 1 -1.1104 3.98879 0.0876504 1.0506
24 1 -1.1104 3.84457 0.0626193 3.94818
22 2 2.2208 2.6484 4.2698 5.16704
9107 2 2.2208 5.23764 -4.30613 -0.398509
25 2 2.2208 -0.18255 -1.33969 2.46802
167 1 -1.1104 1.03251 2.79188 6.63687
170 1 -1.1104 1.07002 0.191002 6.79998
166 1 -1.1104 1.28259 -2.67426 6.79077
26 2 2.2208 -0.294426 1.52708 5.38242
27 2 2.2208 -0.13612 4.10248 2.43465
359 2 2.2208 -0.322024 1.4048 -0.303692
355 2 2.2208 5.60477 1.3657 -0.288568
9097 2 2.2208 8.15379 -4.07918 8.0535
5 1 -1.1104 6.94023 2.73649 1.02925
11 1 -1.1104 6.75697 0.00291218 1.06123
4 1 -1.1104 6.75847 -2.78727 0.978346
9 1 -1.1104 6.92634 2.82768 4.08475
15 1 -1.1104 6.71386 0.0674671 3.80736
8 1 -1.1104 6.75237 -2.80748 3.82605
31 2 2.2208 10.8668 1.49385 5.23745
32 1 -1.1104 12.4367 -2.81538 1.06171
33 1 -1.1104 12.4005 2.86279 0.999248
34 1 -1.1104 12.4228 -2.85748 3.88892
35 1 -1.1104 12.362 2.75169 3.91712
36 1 -1.1104 12.4193 0.0544357 1.05629
37 2 2.2208 11.0519 -1.44782 2.46961
38 2 2.2208 10.9731 4.21234 2.38106
39 1 -1.1104 12.3158 -0.044135 3.88805
40 1 -1.1104 9.70952 -2.92549 1.16273
41 1 -1.1104 9.64714 2.91673 1.03
42 2 2.2208 8.26635 1.34351 2.43917
43 1 -1.1104 9.62016 -2.79325 3.82549
44 1 -1.1104 9.60535 2.68578 3.82902
45 2 2.2208 8.21038 -1.48632 5.17876
46 2 2.2208 8.20604 4.37516 5.24471
47 1 -1.1104 9.59377 0.0137079 0.94649
48 1 -1.1104 9.54401 0.0244344 3.8135
207 1 -1.1104 12.3274 0.0746561 6.63769
209 1 -1.1104 9.41258 2.93039 6.67834
165 2 2.2208 13.7292 18.2266 2.55292
9096 2 2.2208 -0.275496 -4.14307 10.8768
9094 2 2.2208 2.66143 -4.21512 8.0114
168 1 -1.1104 6.7774 -2.80452 6.6288
54 2 2.2208 5.39392 7.139 5.29586
55 2 2.2208 5.36344 12.7002 5.13193
56 1 -1.1104 1.20389 8.42602 0.968917
58 1 -1.1104 1.20369 8.42171 3.75398
60 1 -1.1104 1.15027 5.61259 0.965886
61 1 -1.1104 1.08285 11.2979 0.860663
66 2 2.2208 5.42084 9.9517 2.49571
67 1 -1.1104 1.37975 5.74655 3.74909
68 1 -1.1104 1.22158 11.1732 3.85749
71 1 -1.1104 3.9912 8.39987 1.15183
72 2 2.2208 2.59662 7.05452 2.39546
73 2 2.2208 2.45421 12.7018 2.45077
74 1 -1.1104 3.96067 8.51887 3.93462
75 2 2.2208 2.5555 9.76374 5.15376
76 1 -1.1104 4.02912 5.60755 1.03939
77 1 -1.1104 3.97621 11.2646 1.0691
79 1 -1.1104 4.0232 5.68707 3.85618
80 1 -1.1104 3.8998 11.2626 3.70665
63 1 -1.1104 6.79045 5.63047 1.17614
9092 2 2.2208 11.0065 -4.09456 5.31291
62 1 -1.1104 1.22377 11.1726 6.61081
78 1 -1.1104 4.00326 11.331 6.49959
236 1 -1.1104 1.21994 5.5457 6.52122
81 2 2.2208 -0.316325 7.03024 5.21342
83 2 2.2208 -0.223968 12.5713 5.12788
9090 2 2.2208 -0.274105 -4.11376 5.26587
82 2 2.2208 -0.198212 9.84622 2.30643
9088 2 2.2208 2.67217 -4.07893 2.54115
59 1 -1.1104 6.77314 8.25637 3.86835
64 1 -1.1104 6.74049 11.436 1.13348
57 1 -1.1104 6.77934 8.68297 1.08617
69 1 -1.1104 6.91496 5.58396 3.84254
70 1 -1.1104 6.82279 11.2694 3.89414
84 2 2.2208 11.044 7.02034 5.21917
85 2 2.2208 11.0864 12.7984 5.17428
86 1 -1.1104 12.5322 8.45065 0.93674
87 1 -1.1104 12.4882 8.38295 3.87257
88 1 -1.1104 12.43 5.53303 1.00287
89 1 -1.1104 12.3794 11.1924 0.813278
91 2 2.2208 11.0974 9.87815 2.35976
92 1 -1.1104 12.5608 5.68367 3.85578
93 1 -1.1104 12.509 11.2211 3.80813
94 1 -1.1104 9.67875 8.49246 1.19331
95 2 2.2208 8.28572 7.07496 2.49078
96 2 2.2208 8.32763 12.6506 2.49653
97 1 -1.1104 9.77466 8.45125 3.78606
98 2 2.2208 8.22896 9.92717 5.32631
99 1 -1.1104 9.58726 5.74185 1.08798
100 1 -1.1104 9.62898 11.2682 0.969539
102 1 -1.1104 9.75812 5.51427 3.94338
103 1 -1.1104 9.61141 11.28 3.81027
290 1 -1.1104 6.78444 14.0201 9.37501
266 1 -1.1104 12.292 5.51073 6.63266
265 1 -1.1104 12.3783 8.36608 6.58938
269 1 -1.1104 9.50325 5.65091 6.68425
101 1 -1.1104 9.75773 11.2681 6.66845
575 2 2.2208 10.8201 15.5533 13.53
106 2 2.2208 5.2894 18.1712 5.27091
107 1 -1.1104 1.19083 14.0703 1.09256
109 1 -1.1104 1.13826 19.6982 1.01316
113 1 -1.1104 1.19101 14.0783 3.82124
114 1 -1.1104 1.03344 19.799 3.67042
116 1 -1.1104 1.22298 16.914 1.03127
119 2 2.2208 5.30097 15.45 2.36769
120 2 2.2208 5.16774 21.1169 2.39666
121 1 -1.1104 1.0968 16.9688 3.95098
123 1 -1.1104 3.83332 14.1945 1.0704
125 1 -1.1104 3.88779 19.7756 0.803241
127 2 2.2208 2.45801 18.3263 2.42553
128 1 -1.1104 3.99055 14.047 3.84623
129 1 -1.1104 3.8913 19.6562 3.79905
130 2 2.2208 2.51785 15.3688 5.24162
131 2 2.2208 2.37999 21.0391 5.04852
132 1 -1.1104 3.97214 16.9601 1.16549
134 1 -1.1104 3.98606 16.7907 3.93358
133 1 -1.1104 3.89092 16.7508 6.80622
302 1 -1.1104 1.09014 19.7074 6.55457
126 1 -1.1104 3.87589 19.6634 6.68559
108 1 -1.1104 1.27887 13.9123 6.49522
117 1 -1.1104 0.959847 16.8892 6.6907
137 2 2.2208 -0.344624 18.3018 5.21947
135 2 2.2208 -0.262382 15.56 2.42433
288 1 -1.1104 6.79005 19.9026 9.2919
139 1 -1.1104 6.77152 19.5792 3.63818
115 1 -1.1104 6.88638 14.0278 3.84123
140 1 -1.1104 6.80888 16.9388 0.923742
110 1 -1.1104 6.64766 14.1611 1.02429
122 1 -1.1104 6.68946 16.8497 3.67781
138 1 -1.1104 6.71684 19.6948 0.927786
141 2 2.2208 10.8841 18.3218 5.07531
142 1 -1.1104 12.3661 14.0368 1.0736
144 1 -1.1104 12.3802 19.4231 0.911734
146 1 -1.1104 12.4743 14.1703 3.99419
147 1 -1.1104 12.3802 19.8692 3.67081
148 1 -1.1104 12.4027 16.7756 1.02391
150 2 2.2208 10.8717 15.497 2.27563
151 2 2.2208 10.9595 21.1021 2.41824
152 1 -1.1104 12.2724 16.9882 3.83957
153 1 -1.1104 9.62223 14.0239 0.989194
155 1 -1.1104 9.46349 19.7023 1.1097
157 2 2.2208 8.05384 18.2593 2.39316
158 1 -1.1104 9.71641 14.0462 3.74615
159 1 -1.1104 9.55839 19.7985 3.89905
160 2 2.2208 8.20306 15.4814 5.14316
161 2 2.2208 8.19456 21.0954 5.19836
162 1 -1.1104 9.42494 16.8116 0.957972
164 1 -1.1104 9.51074 16.8267 3.77605
296 1 -1.1104 6.83603 19.4789 12.0396
143 1 -1.1104 12.3155 14.0552 6.64029
112 1 -1.1104 6.70853 19.5889 6.57807
154 1 -1.1104 9.59834 14.0439 6.46053
369 2 2.2208 -0.252956 6.99049 -0.35254
174 1 -1.1104 3.97665 0.0832631 6.61976
173 1 -1.1104 3.89378 2.78576 6.69923
172 1 -1.1104 4.0703 -2.73936 6.78828
175 2 2.2208 5.42196 1.49107 10.8266
176 1 -1.1104 1.15118 -2.78351 12.2927
177 1 -1.1104 1.08924 2.89133 12.1545
180 1 -1.1104 1.27979 -2.68086 9.48885
181 1 -1.1104 1.22532 2.97702 9.45841
184 1 -1.1104 1.11127 0.0399265 12.27
186 2 2.2208 5.35396 -1.41345 8.05813
187 2 2.2208 5.4079 4.22895 8.05911
188 1 -1.1104 1.10105 0.102771 9.51921
190 1 -1.1104 4.06044 -2.88215 12.4663
191 1 -1.1104 3.92715 2.64198 12.2552
192 2 2.2208 2.42114 1.53393 8.12074
193 1 -1.1104 4.13017 -2.67035 9.81547
194 1 -1.1104 4.00345 2.90888 9.46389
195 2 2.2208 2.63885 -1.45975 10.9921
196 2 2.2208 2.55855 4.22874 10.8077
197 1 -1.1104 4.02899 -0.11863 12.1607
198 1 -1.1104 3.79019 0.0753353 9.43723
199 2 2.2208 -0.217165 4.20308 7.9847
354 2 2.2208 11.0609 20.9816 13.6251
201 2 2.2208 -0.325518 1.38512 10.9965
306 1 -1.1104 6.64974 16.7787 12.4393
334 2 2.2208 -0.313091 -1.3623 13.6373
208 1 -1.1104 9.49091 -2.69382 6.69228
210 1 -1.1104 9.4706 0.050375 6.5995
289 1 -1.1104 6.78167 16.9897 9.51788
205 1 -1.1104 12.32 -2.81606 6.75567
169 1 -1.1104 6.605 2.81095 6.70014
171 1 -1.1104 6.66169 0.0292641 6.62822
179 1 -1.1104 6.8515 3.01012 12.3282
185 1 -1.1104 6.92827 0.102807 12.2283
206 1 -1.1104 12.3838 2.75424 6.65628
183 1 -1.1104 6.8956 2.70929 9.58449
189 1 -1.1104 6.81595 0.116813 9.38064
182 1 -1.1104 6.73766 -2.76025 9.44366
178 1 -1.1104 6.9187 -2.70172 12.1796
211 2 2.2208 11.1423 1.34376 10.9133
212 1 -1.1104 12.5066 -2.8653 12.376
213 1 -1.1104 12.4061 2.87019 12.2911
214 1 -1.1104 12.34 -2.83773 9.55312
215 1 -1.1104 12.3859 2.78609 9.51594
216 1 -1.1104 12.6487 0.167285 12.0947
217 2 2.2208 10.9032 -1.41535 8.06672
218 2 2.2208 11.0618 4.24883 8.11337
219 1 -1.1104 12.5262 -0.122746 9.32381
220 1 -1.1104 9.64232 -2.65974 12.3279
221 1 -1.1104 9.64504 2.73695 12.0995
222 2 2.2208 8.17186 1.41196 7.97043
223 1 -1.1104 9.42939 -2.64887 9.47105
224 1 -1.1104 9.76701 2.82417 9.34829
225 2 2.2208 8.11007 -1.34178 10.8356
226 2 2.2208 8.34801 4.31493 10.9252
227 1 -1.1104 9.63721 -0.0717041 12.2463
228 1 -1.1104 9.81806 -0.0284314 9.47457
30 2 2.2208 -0.258214 9.81759 7.98738
51 2 2.2208 -0.293401 12.6466 10.8835
331 2 2.2208 10.9597 18.2302 10.7498
234 1 -1.1104 1.16986 8.38425 6.65856
239 1 -1.1104 4.15811 5.74441 6.58559
238 1 -1.1104 3.97491 8.43794 6.59802
240 2 2.2208 5.45577 7.03989 10.7807
241 2 2.2208 5.37718 12.55 10.7443
242 1 -1.1104 1.18194 8.51955 12.2202
244 1 -1.1104 1.07903 8.55371 9.49124
246 1 -1.1104 1.13898 5.67002 12.0807
247 1 -1.1104 1.21474 11.2178 12.2688
250 2 2.2208 5.36015 9.86764 7.88185
251 1 -1.1104 1.09645 5.74475 9.20173
252 1 -1.1104 1.14618 11.2747 9.41666
255 1 -1.1104 3.9354 8.49641 12.147
256 2 2.2208 2.54426 7.08865 7.92075
257 2 2.2208 2.48925 12.5172 8.00386
258 1 -1.1104 3.92644 8.27625 9.39949
259 2 2.2208 2.6426 9.81317 10.74
260 1 -1.1104 3.91796 5.55724 12.1512
261 1 -1.1104 4.06046 11.1872 12.0758
262 1 -1.1104 3.80588 5.52715 9.17843
263 1 -1.1104 3.8505 11.1778 9.32457
29 2 2.2208 -0.153913 7.13515 10.8221
348 2 2.2208 5.40355 9.79605 13.6095
349 2 2.2208 2.60023 12.5177 13.6786
65 1 -1.1104 6.88695 11.359 6.4901
237 1 -1.1104 6.71444 5.67648 6.74753
235 1 -1.1104 6.87879 8.48217 6.6423
243 1 -1.1104 6.80614 8.40859 12.1246
254 1 -1.1104 6.70291 11.2729 9.34243
245 1 -1.1104 6.74121 8.50199 9.38255
253 1 -1.1104 6.83101 5.67983 9.47102
249 1 -1.1104 6.74671 11.0504 12.1981
90 1 -1.1104 12.5034 11.2537 6.56774
267 1 -1.1104 9.77661 8.58553 6.68245
248 1 -1.1104 6.7031 5.69698 12.2896
264 1 -1.1104 9.57509 11.1434 9.49184
268 1 -1.1104 9.71943 5.78527 9.39332
270 1 -1.1104 9.53292 11.2866 12.1315
271 1 -1.1104 9.62048 5.68799 12.2971
272 2 2.2208 8.12981 9.91629 10.859
273 1 -1.1104 9.65158 8.42037 9.2963
274 2 2.2208 8.23275 12.5711 7.96755
275 2 2.2208 8.19744 7.08876 8.14321
276 2 2.2208 11.0076 7.06094 10.8444
277 2 2.2208 11.0029 12.6656 10.7802
278 1 -1.1104 12.4781 8.36196 12.3269
279 1 -1.1104 12.4345 8.4327 9.58088
280 1 -1.1104 12.4765 5.63254 12.18
281 1 -1.1104 12.4349 11.2517 12.2176
282 2 2.2208 11.1434 9.88886 8.08475
283 1 -1.1104 12.6223 5.6432 9.39039
284 1 -1.1104 12.4573 11.3105 9.42394
285 1 -1.1104 9.51961 8.51319 12.1479
352 2 2.2208 8.08126 12.6489 13.4975
124 1 -1.1104 3.8974 13.9777 6.58864
118 1 -1.1104 6.66768 16.8866 6.56301
304 1 -1.1104 3.96225 16.7471 9.49363
310 2 2.2208 2.6531 15.3176 10.7904
305 1 -1.1104 4.04905 13.8002 9.37216
309 2 2.2208 2.55017 21.0457 10.797
308 1 -1.1104 3.96799 16.7074 12.2372
307 1 -1.1104 1.10032 16.7459 12.2543
286 1 -1.1104 3.95861 19.5965 12.1687
287 1 -1.1104 4.07906 13.9067 12.2316
291 1 -1.1104 1.06543 19.6548 9.35713
292 1 -1.1104 1.11033 16.7976 9.42123
293 2 2.2208 5.27358 21.0041 8.02109
294 1 -1.1104 1.14362 13.9854 9.44288
295 2 2.2208 5.32862 15.4379 8.08202
298 1 -1.1104 1.07403 19.5945 12.1792
299 1 -1.1104 1.11668 13.9705 12.2312
300 2 2.2208 5.38665 18.2093 10.9192
301 1 -1.1104 3.88694 19.4591 9.41096
303 2 2.2208 2.46795 18.2357 7.97325
297 1 -1.1104 6.71934 14.0026 12.0798
111 1 -1.1104 6.8408 14.1501 6.67735
328 1 -1.1104 12.3517 14.2054 9.39799
323 1 -1.1104 12.356 16.9913 9.4852
311 2 2.2208 -0.256544 21.0294 8.04944
353 2 2.2208 5.35761 21.0897 13.6362
547 2 2.2208 2.58814 18.1645 13.4347
576 2 2.2208 8.17959 18.2797 13.598
314 1 -1.1104 9.60034 16.7266 9.36176
317 2 2.2208 8.18763 15.4284 10.7749
321 1 -1.1104 9.64956 19.5118 12.2763
316 2 2.2208 8.25718 21.0237 10.7383
320 2 2.2208 8.14388 18.2645 8.00944
324 2 2.2208 10.9724 21.0456 7.90959
329 1 -1.1104 12.3171 19.6849 12.2613
325 2 2.2208 10.8204 15.4306 7.91849
327 1 -1.1104 12.3622 19.6505 9.19851
319 1 -1.1104 9.5141 14.0486 9.4289
330 1 -1.1104 12.258 14.1229 12.1981
326 1 -1.1104 12.3572 16.8096 12.1337
322 1 -1.1104 9.50207 14.0685 12.1583
315 1 -1.1104 9.46136 16.8643 12.0745
318 1 -1.1104 9.59861 19.6132 9.40083
149 1 -1.1104 12.3856 16.8409 6.66481
156 1 -1.1104 9.55584 19.7412 6.57868
163 1 -1.1104 9.48675 17.0624 6.47384
145 1 -1.1104 12.2333 19.6946 6.34997
337 2 2.2208 -0.235444 4.146 13.65
345 2 2.2208 11.1347 4.22824 13.6371
342 2 2.2208 8.24368 1.44727 13.6042
346 2 2.2208 2.44547 7.06583 13.5517
351 2 2.2208 10.9817 9.80101 13.6076
350 2 2.2208 8.14981 6.98008 13.6462
335 2 2.2208 -0.187851 21.0001 13.6278
549 2 2.2208 5.28513 15.273 13.6211
357 2 2.2208 2.64052 3.97599 -0.398413
362 2 2.2208 8.22239 4.34173 -0.360542
367 2 2.2208 5.34091 12.6691 -0.303911
371 2 2.2208 8.22401 9.97809 -0.2932
484 2 2.2208 10.9535 18.3009 -0.432936
375 2 2.2208 5.45435 1.43871 16.4788
376 1 -1.1104 1.2793 -2.64105 17.9849
377 1 -1.1104 1.17244 2.7981 17.7961
380 1 -1.1104 1.18198 -2.70978 15.0569
382 1 -1.1104 1.33521 2.80962 14.9227
388 1 -1.1104 1.16259 0.0870864 17.8896
390 2 2.2208 5.55445 -1.37959 19.3065
392 1 -1.1104 1.07657 0.00306126 15.117
396 1 -1.1104 4.04107 -2.65837 17.9923
397 1 -1.1104 3.96661 2.89904 17.9718
398 2 2.2208 2.71168 1.44488 19.2742
399 1 -1.1104 3.96811 -2.80509 15.2185
401 1 -1.1104 3.95714 2.94422 15.0672
403 2 2.2208 2.48096 -1.24547 16.5858
404 2 2.2208 2.46509 4.34336 16.4641
405 1 -1.1104 4.24086 0.0940707 17.8788
406 1 -1.1104 3.93648 0.143319 15.1598
391 2 2.2208 5.27307 4.31542 19.3123
450 2 2.2208 13.7356 20.883 22.0018
412 2 2.2208 -0.206611 -1.38428 19.3541
341 2 2.2208 5.38575 4.05708 13.6884
393 1 -1.1104 1.30324 -0.0161167 20.6445
395 1 -1.1104 6.94451 0.111155 20.7236
402 1 -1.1104 4.02517 2.96879 20.7547
338 2 2.2208 5.40435 -1.35676 13.6864
411 2 2.2208 -0.26979 1.28348 16.5815
414 2 2.2208 -0.280465 4.21635 19.3655
9205 2 2.2208 8.1781 -4.18809 19.3147
389 1 -1.1104 6.77389 0.0300281 17.974
378 1 -1.1104 6.82783 -2.68764 17.8915
379 1 -1.1104 6.72237 2.88796 17.8039
394 1 -1.1104 6.64471 -0.0159204 15.0213
384 1 -1.1104 6.66192 -2.68342 15.0715
386 1 -1.1104 6.82434 2.72993 15.0785
418 2 2.2208 11.084 1.48677 16.4455
419 1 -1.1104 12.5072 -2.81342 17.9998
420 1 -1.1104 12.2727 2.90516 17.7485
421 1 -1.1104 12.3253 -2.87455 15.1672
423 1 -1.1104 12.5545 2.77145 15.091
425 1 -1.1104 12.1814 0.0214061 17.8344
426 2 2.2208 11.0028 -1.36373 19.3421
427 2 2.2208 11.0128 4.2936 19.2256
428 1 -1.1104 12.4894 -0.0523517 14.954
430 1 -1.1104 9.54439 -2.8429 17.9167
431 1 -1.1104 9.5404 2.87994 17.7445
432 2 2.2208 8.14461 1.54419 19.3083
433 1 -1.1104 9.52951 -2.66336 15.1125
435 1 -1.1104 9.7514 2.80909 14.9857
437 2 2.2208 8.19785 -1.35503 16.4922
438 2 2.2208 8.26252 4.15747 16.4146
439 1 -1.1104 9.42865 0.140908 17.9315
440 1 -1.1104 9.52037 0.0451038 15.116
424 1 -1.1104 12.4327 2.86212 20.5562
343 2 2.2208 11.0291 -1.36706 13.7004
9236 2 2.2208 5.3313 -4.00848 16.5895
9235 2 2.2208 2.5772 -4.27262 19.3482
451 2 2.2208 5.33305 7.05723 16.41
452 2 2.2208 5.30182 12.5286 16.4515
453 1 -1.1104 1.1045 8.4066 17.9834
455 1 -1.1104 1.15982 8.44304 15.0727
459 1 -1.1104 1.22925 5.60009 18.0603
460 1 -1.1104 1.10358 11.2309 17.9062
463 2 2.2208 5.3096 9.76661 19.2306
464 1 -1.1104 1.12185 5.78288 15.1352
466 1 -1.1104 1.16737 11.2391 15.1275
472 1 -1.1104 4.01867 8.51007 17.8122
473 2 2.2208 2.56747 7.04584 19.2696
474 2 2.2208 2.50989 12.548 19.1616
475 1 -1.1104 3.79101 8.28212 14.9832
477 2 2.2208 2.57092 9.78694 16.4328
478 1 -1.1104 3.96986 5.75363 17.8698
479 1 -1.1104 3.92331 11.2476 17.8596
480 1 -1.1104 3.97919 5.63176 15.0444
482 1 -1.1104 4.00214 11.1738 14.9793
456 1 -1.1104 1.12352 8.29645 20.6855
476 1 -1.1104 3.81333 8.27142 20.6897
672 2 2.2208 -0.332275 12.7972 22.0541
608 2 2.2208 -0.162705 7.01662 16.5642
635 2 2.2208 -0.276782 12.5726 16.4919
467 1 -1.1104 1.12196 11.1586 20.6134
481 1 -1.1104 3.91339 5.66628 20.6764
609 2 2.2208 -0.279243 9.96188 19.321
457 1 -1.1104 6.66699 8.42428 15.0075
462 1 -1.1104 6.71128 11.2256 17.9588
454 1 -1.1104 6.82988 8.34411 17.6576
461 1 -1.1104 6.7167 5.62055 17.8685
468 1 -1.1104 6.87211 5.55167 14.9399
470 1 -1.1104 6.73792 11.2353 15.0265
487 2 2.2208 11.0136 7.01723 16.4496
488 2 2.2208 10.9497 12.5246 16.384
489 1 -1.1104 12.4275 8.44635 17.7574
490 1 -1.1104 12.3221 8.37366 14.985
492 1 -1.1104 12.3701 5.74467 17.8546
493 1 -1.1104 12.3552 11.0414 17.8528
494 2 2.2208 10.9703 9.8356 19.1833
495 1 -1.1104 12.5374 5.67848 15.0224
497 1 -1.1104 12.345 11.1961 15.0274
499 1 -1.1104 9.59699 8.33412 17.7159
500 2 2.2208 8.1259 6.91951 19.0818
501 2 2.2208 8.06562 12.5242 19.3056
502 1 -1.1104 9.51323 8.34448 14.821
504 2 2.2208 8.13076 9.78372 16.3868
505 1 -1.1104 9.61403 5.67583 17.8269
506 1 -1.1104 9.4925 11.2224 17.8234
507 1 -1.1104 9.64376 5.53599 15.063
509 1 -1.1104 9.45462 11.2291 14.8339
445 2 2.2208 -0.272459 21.0535 19.2915
548 1 -1.1104 12.3721 19.6678 26.3953
458 1 -1.1104 6.65646 8.3308 20.592
498 1 -1.1104 12.4094 11.2371 20.6216
510 1 -1.1104 9.55108 11.2191 20.8531
491 1 -1.1104 12.3065 8.50283 20.7185
514 2 2.2208 5.38271 18.1409 16.3254
515 1 -1.1104 1.1576 14.0065 17.9391
516 1 -1.1104 1.36779 19.6402 17.7077
519 1 -1.1104 1.2564 14.0411 15.0676
521 1 -1.1104 1.03822 19.5794 15.0075
527 1 -1.1104 1.18961 16.8017 17.9318
529 2 2.2208 5.29504 15.3014 19.304
530 2 2.2208 5.31142 21.015 19.2123
531 1 -1.1104 1.20584 16.6949 15.1408
535 1 -1.1104 3.89918 14.0623 17.7464
536 1 -1.1104 4.14752 19.7119 17.6281
537 2 2.2208 2.57017 18.158 19.3154
538 1 -1.1104 3.92478 13.9478 15.1141
540 1 -1.1104 3.95109 19.6313 14.8183
542 2 2.2208 2.56285 15.419 16.4658
543 2 2.2208 2.53581 21.0032 16.2936
544 1 -1.1104 4.14677 16.7881 17.8866
545 1 -1.1104 3.94951 16.8281 14.9371
541 1 -1.1104 3.96656 19.4923 20.4937
517 1 -1.1104 6.84542 13.9965 17.9184
539 1 -1.1104 3.89098 13.9136 20.6507
546 1 -1.1104 4.01791 16.7076 20.7865
610 1 -1.1104 9.5204 19.6251 23.4136
443 2 2.2208 -0.159764 18.1599 16.5533
444 2 2.2208 -0.24928 15.4902 19.3832
603 2 2.2208 10.9291 21.1078 24.7248
518 1 -1.1104 6.93279 19.6789 17.9849
533 1 -1.1104 6.84625 16.631 15.1489
528 1 -1.1104 6.8429 16.8413 17.803
523 1 -1.1104 6.65682 13.901 14.9462
525 1 -1.1104 6.69599 19.7014 15.0615
550 2 2.2208 10.999 18.2127 16.4821
551 1 -1.1104 12.5229 13.9215 17.6811
552 1 -1.1104 12.4399 19.6289 17.7686
553 1 -1.1104 12.1482 13.9342 14.9737
555 1 -1.1104 12.2715 19.4511 14.991
557 1 -1.1104 12.4777 16.628 17.8429
558 2 2.2208 10.9288 15.4093 19.2921
559 2 2.2208 10.949 21.0643 19.1118
560 1 -1.1104 12.3685 16.7698 15.0283
562 1 -1.1104 9.48459 13.9441 17.727
563 1 -1.1104 9.67349 19.5889 17.8408
564 2 2.2208 8.13392 18.1866 19.2095
565 1 -1.1104 9.47141 13.9524 14.9214
567 1 -1.1104 9.4685 19.5308 15.0821
569 2 2.2208 8.17173 15.3822 16.375
570 2 2.2208 8.12565 21.0078 16.5175
571 1 -1.1104 9.62966 16.8897 17.8762
572 1 -1.1104 9.59369 16.8556 14.9997
573 1 -1.1104 9.56795 16.7753 20.6749
524 1 -1.1104 6.65418 13.8988 20.71
554 1 -1.1104 12.3514 14.0542 20.6047
566 1 -1.1104 9.6288 13.9427 20.5438
407 1 -1.1104 4.09429 0.0293317 20.609
400 1 -1.1104 3.8466 -2.90954 20.9919
9204 2 2.2208 -0.2728 -4.19444 22.1461
9170 2 2.2208 5.37349 -4.16292 22.1531
612 2 2.2208 -0.181958 1.50992 22.0231
9169 2 2.2208 2.6262 -4.27687 25.0164
669 1 -1.1104 9.45953 16.8946 26.1778
383 1 -1.1104 1.12667 2.86236 20.6498
381 1 -1.1104 1.08035 -2.86258 20.6944
578 2 2.2208 5.49369 1.40901 22.0738
579 1 -1.1104 1.28436 -2.88746 23.5648
580 1 -1.1104 1.24732 2.80229 23.5033
583 1 -1.1104 1.15659 -2.88363 26.372
584 1 -1.1104 1.20751 2.72522 26.3294
587 1 -1.1104 1.21859 -0.0710771 23.4437
589 2 2.2208 5.34354 -1.40366 24.8997
591 1 -1.1104 0.986247 -0.0609403 26.302
593 1 -1.1104 3.9866 -2.87313 23.6715
594 1 -1.1104 4.00509 2.63561 23.5883
595 2 2.2208 2.52528 1.35867 24.8551
596 1 -1.1104 3.92589 -2.71617 26.3909
597 1 -1.1104 4.10793 2.74651 26.3543
598 2 2.2208 2.56845 -1.48123 22.11
599 2 2.2208 2.61037 4.2027 22.0908
600 1 -1.1104 4.00813 -0.0975775 23.4196
601 1 -1.1104 3.99894 0.016974 26.2465
590 2 2.2208 5.30804 4.18901 24.893
592 1 -1.1104 6.89035 0.116895 26.2444
613 2 2.2208 -0.284635 4.24587 24.881
611 2 2.2208 -0.20419 -1.51055 24.8719
429 1 -1.1104 12.6495 0.0096888 20.7133
441 1 -1.1104 9.68374 0.162564 20.5919
434 1 -1.1104 9.79118 -2.71865 20.8034
436 1 -1.1104 9.46181 2.84617 20.7524
422 1 -1.1104 12.4207 -2.89331 20.7389
9167 2 2.2208 11.0843 -4.21633 22.0488
9166 2 2.2208 8.24591 -4.21726 24.9422
387 1 -1.1104 6.73408 2.91201 20.677
385 1 -1.1104 6.84844 -2.83754 20.7247
582 1 -1.1104 6.77122 2.82098 23.4767
588 1 -1.1104 6.81063 0.014106 23.4663
581 1 -1.1104 6.75323 -2.78715 23.5515
586 1 -1.1104 6.98824 2.96257 26.4019
585 1 -1.1104 6.77447 -2.81938 26.2979
614 2 2.2208 11.0049 1.4721 22.1387
615 1 -1.1104 12.4998 -2.91774 23.398
616 1 -1.1104 12.3735 2.89851 23.4232
617 1 -1.1104 12.3479 -2.68135 26.309
618 1 -1.1104 12.5764 2.91303 26.2917
619 1 -1.1104 12.3254 0.0586237 23.4226
620 2 2.2208 11.0138 -1.35962 24.8576
621 2 2.2208 10.9635 4.35985 24.9052
622 1 -1.1104 12.5054 0.180392 26.388
623 1 -1.1104 9.61377 -2.70099 23.5635
624 1 -1.1104 9.71065 2.90616 23.5434
625 2 2.2208 8.20544 1.48958 24.789
626 1 -1.1104 9.61982 -2.96568 26.4432
627 1 -1.1104 9.71146 2.78543 26.2296
628 2 2.2208 8.23714 -1.29138 22.0607
629 2 2.2208 8.17679 4.16512 22.0613
630 1 -1.1104 9.54813 0.130495 23.3468
631 1 -1.1104 9.69614 0.0161053 26.1046
668 1 -1.1104 9.57441 16.822 23.3572
465 1 -1.1104 1.15419 5.62545 20.8064
671 2 2.2208 -0.168156 9.81215 24.8252
483 1 -1.1104 3.84008 11.1136 20.6744
643 2 2.2208 5.32361 6.98535 22.0219
644 2 2.2208 5.3259 12.6446 22.123
645 1 -1.1104 1.2855 8.42615 23.432
647 1 -1.1104 1.06333 8.38214 26.334
649 1 -1.1104 1.07649 5.70717 23.5114
650 1 -1.1104 0.955799 11.3944 23.4853
653 2 2.2208 5.30376 9.82485 24.9355
654 1 -1.1104 1.10336 5.51616 26.1897
655 1 -1.1104 1.09733 11.1735 26.2218
658 1 -1.1104 4.08375 8.30825 23.5814
659 2 2.2208 2.34578 6.9976 24.8756
660 2 2.2208 2.4868 12.6208 24.8521
661 1 -1.1104 3.83112 8.44258 26.2313
662 2 2.2208 2.64475 9.77145 22.0307
663 1 -1.1104 3.85395 5.38251 23.4389
664 1 -1.1104 3.83924 11.0735 23.5012
665 1 -1.1104 3.85045 5.69752 26.3003
666 1 -1.1104 3.8377 11.2657 26.2588
408 2 2.2208 -0.185296 7.00107 22.1196
365 2 2.2208 5.3599 7.19365 27.7092
486 2 2.2208 10.8431 18.2104 22.0419
469 1 -1.1104 6.92163 5.68043 20.6078
508 1 -1.1104 9.58686 5.85468 20.6745
496 1 -1.1104 12.1954 5.73399 20.6285
471 1 -1.1104 6.73426 11.1521 20.7082
657 1 -1.1104 6.65272 11.2405 26.4677
648 1 -1.1104 6.682 8.55641 26.1885
646 1 -1.1104 6.71468 8.52917 23.3261
656 1 -1.1104 6.82187 5.76635 26.4131
651 1 -1.1104 6.77936 5.61655 23.4597
652 1 -1.1104 6.56496 11.2506 23.4921
503 1 -1.1104 9.42967 8.40796 20.4692
674 1 -1.1104 9.5041 11.483 26.2946
675 1 -1.1104 9.58374 5.75123 26.3417
676 1 -1.1104 9.33121 11.2378 23.4378
677 1 -1.1104 9.52006 5.67509 23.4999
678 2 2.2208 8.14416 9.76051 21.9977
679 1 -1.1104 9.56565 8.39904 26.2785
680 2 2.2208 8.01344 12.6541 24.8483
681 2 2.2208 8.02101 7.15127 24.8048
682 2 2.2208 10.9084 7.09084 22.047
683 2 2.2208 10.9402 12.7009 22.1586
684 1 -1.1104 12.2135 8.50127 23.596
685 1 -1.1104 12.3852 8.37849 26.3894
686 1 -1.1104 12.4797 5.79415 23.3633
687 1 -1.1104 12.2874 11.319 23.4238
688 2 2.2208 10.8716 9.85397 24.9042
689 1 -1.1104 12.26 5.46172 26.285
690 1 -1.1104 12.4299 11.2257 26.1124
691 1 -1.1104 9.4585 8.45381 23.5291
568 1 -1.1104 9.52796 19.4231 20.6794
694 2 2.2208 5.26915 18.2143 27.541
693 2 2.2208 -0.281388 15.4 24.8604
670 2 2.2208 -0.320589 18.2023 22.1936
520 1 -1.1104 1.1419 13.9182 20.5933
532 1 -1.1104 1.25314 16.704 20.6632
696 2 2.2208 2.49139 21.0938 27.6001
673 2 2.2208 -0.193869 21.0169 24.8118
522 1 -1.1104 1.2185 19.6737 20.5916
720 2 2.2208 2.59527 15.3271 22.1658
719 2 2.2208 2.66315 21.0175 22.0571
698 1 -1.1104 3.92104 19.5814 23.4185
700 1 -1.1104 4.00038 13.9024 23.5629
702 1 -1.1104 1.11287 19.6776 26.3242
703 1 -1.1104 1.2163 16.7025 26.2328
704 1 -1.1104 1.12284 14.0119 26.3502
706 2 2.2208 5.28076 21.0313 24.8404
707 2 2.2208 5.34594 15.4443 24.8914
709 1 -1.1104 1.07894 19.479 23.4762
710 1 -1.1104 1.16773 14.0842 23.521
711 2 2.2208 5.33994 18.275 22.1689
712 1 -1.1104 4.01172 19.5898 26.0963
713 2 2.2208 2.47046 18.1407 24.8687
714 1 -1.1104 3.86062 16.8485 26.4228
715 1 -1.1104 3.87383 14.1373 26.3088
717 1 -1.1104 1.05843 16.6887 23.4473
718 1 -1.1104 3.97823 16.7213 23.6989
373 2 2.2208 2.48655 15.3834 27.6963
692 2 2.2208 -0.256254 18.3 27.6315
634 1 -1.1104 9.45059 14.1298 26.3523
607 1 -1.1104 9.34636 14.0358 23.4583
574 1 -1.1104 12.2918 16.7221 23.546
632 2 2.2208 8.07114 18.1661 24.7117
556 1 -1.1104 12.3682 19.5945 20.674
513 1 -1.1104 12.4335 13.9779 26.3614
511 1 -1.1104 12.1845 14.0458 23.5375
512 1 -1.1104 12.237 19.6387 23.5062
667 2 2.2208 8.13787 21.0216 21.9284
604 1 -1.1104 12.3025 16.7618 26.3321
534 1 -1.1104 6.90018 16.8103 20.6266
526 1 -1.1104 6.59943 19.6454 20.7051
561 1 -1.1104 12.4703 16.846 20.693
642 2 2.2208 8.13619 15.3518 21.9375
633 1 -1.1104 6.71956 19.7333 26.3076
716 1 -1.1104 6.68086 16.7606 23.4125
699 1 -1.1104 6.64469 14.135 26.2637
705 1 -1.1104 6.81513 19.5747 23.664
708 1 -1.1104 6.71237 14.0141 23.6183
701 1 -1.1104 6.77716 16.8649 26.1808
639 1 -1.1104 9.62496 19.8099 26.2837
602 2 2.2208 10.8876 15.42 24.8795
356 2 2.2208 2.58656 -1.23634 27.7389
361 2 2.2208 8.21723 -1.34901 27.639
9111 2 2.2208 8.1423 -4.06902 13.6788
360 2 2.2208 10.9505 1.53678 27.5962
366 2 2.2208 2.56069 9.83668 27.7009
368 2 2.2208 -0.370212 12.6406 27.5944
372 2 2.2208 11.0848 12.6872 27.6809
370 2 2.2208 10.9478 7.04867 27.6652
347 2 2.2208 8.00298 15.4614 27.6675
485 2 2.2208 8.1571 21.1133 27.6395
339 2 2.2208 2.56651 1.33492 13.771
358 2 2.2208 -0.130063 9.85882 13.6305
442 2 2.2208 -0.156389 15.4293 13.7079
721 2 2.2208 5.22146 23.855 5.1442
722 2 2.2208 5.33251 29.5457 5.28431
723 1 -1.1104 1.12097 25.2076 0.972904
724 1 -1.1104 1.11727 25.4502 3.80997
725 1 -1.1104 1.1136 22.4039 0.980945
726 1 -1.1104 1.14272 28.0348 1.11208
727 2 2.2208 5.37534 26.6913 2.48578
728 1 -1.1104 0.965099 22.6146 3.80871
729 1 -1.1104 1.06796 28.2319 3.90026
730 1 -1.1104 3.87422 25.2248 1.0713
731 2 2.2208 2.43482 23.99 2.3165
732 2 2.2208 2.48177 29.4778 2.57735
733 1 -1.1104 3.99687 25.2945 3.76619
734 2 2.2208 2.4224 26.704 5.15063
735 1 -1.1104 3.79618 22.5149 0.891722
736 1 -1.1104 4.00081 28.0171 1.11657
737 1 -1.1104 3.72543 22.5294 3.73015
738 1 -1.1104 3.9065 28.1119 3.90189
742 1 -1.1104 6.72734 25.2518 0.995796
870 1 -1.1104 3.9538 28.1572 6.4719
745 1 -1.1104 6.77961 28.1426 1.07519
865 1 -1.1104 1.1818 28.0448 6.79351
1021 1 -1.1104 9.36489 42.142 12.4216
739 2 2.2208 -0.274125 29.4703 5.36224
741 2 2.2208 -0.362831 26.6918 2.54244
839 2 2.2208 -0.408482 43.638 2.43782
747 1 -1.1104 6.68283 27.9577 3.77919
746 1 -1.1104 6.65743 22.3244 3.7655
743 1 -1.1104 6.79659 25.1759 3.85264
744 1 -1.1104 6.73395 22.6595 0.912376
748 2 2.2208 10.9165 23.9732 5.41128
749 2 2.2208 10.892 29.3967 5.24217
750 1 -1.1104 12.2836 25.3978 0.908501
751 1 -1.1104 12.3548 25.202 3.68262
752 1 -1.1104 12.3505 22.5621 1.15528
753 1 -1.1104 12.2333 28.012 1.11694
754 2 2.2208 10.835 26.6291 2.3557
755 1 -1.1104 12.3478 22.527 3.88178
756 1 -1.1104 12.2116 27.9603 3.91172
757 1 -1.1104 9.39482 25.3164 1.10077
758 2 2.2208 8.21984 23.8394 2.28375
759 2 2.2208 8.11949 29.4904 2.41781
760 1 -1.1104 9.52588 25.2215 3.95718
761 2 2.2208 8.10053 26.6846 5.17534
762 1 -1.1104 9.55284 22.4721 0.893152
763 1 -1.1104 9.54852 28.1256 1.03132
764 1 -1.1104 9.51846 22.4721 3.65409
765 1 -1.1104 9.49359 28.0762 3.6848
897 1 -1.1104 12.2853 27.8951 6.69335
896 1 -1.1104 12.3802 22.6007 6.7436
1053 2 2.2208 13.6568 46.4294 8.08497
867 1 -1.1104 6.69199 28.0613 6.56566
895 1 -1.1104 12.3211 25.28 6.81222
898 1 -1.1104 9.56474 25.3758 6.64253
1013 1 -1.1104 9.32484 44.9046 9.49163
1040 2 2.2208 13.5655 43.4591 5.31395
792 2 2.2208 -0.272338 35.0709 5.2781
791 2 2.2208 -0.336864 32.3877 2.52938
1084 2 2.2208 5.28558 35.1112 -0.269019
769 2 2.2208 5.33223 35.065 5.22161
770 1 -1.1104 1.11106 30.9434 1.10926
771 1 -1.1104 1.16478 36.537 1.16224
773 1 -1.1104 0.989691 30.9812 3.89797
774 1 -1.1104 1.08743 36.3183 3.84719
776 1 -1.1104 1.07714 33.8005 1.23481
777 2 2.2208 5.2662 32.1695 2.48109
778 2 2.2208 5.32227 37.8685 2.44062
779 1 -1.1104 1.27684 33.6544 4.00142
781 1 -1.1104 3.87657 30.7643 1.10285
782 1 -1.1104 3.95958 36.5878 1.1359
783 2 2.2208 2.53953 35.1264 2.54918
784 1 -1.1104 3.93492 30.8913 3.90702
785 1 -1.1104 3.90529 36.4888 3.90126
786 2 2.2208 2.43523 32.2867 5.37637
787 2 2.2208 2.48178 37.8702 5.40257
788 1 -1.1104 4.01745 33.6239 0.868452
789 1 -1.1104 3.98101 33.6588 3.68622
794 1 -1.1104 6.80432 30.8504 3.82882
923 1 -1.1104 0.971917 33.7771 6.74299
780 1 -1.1104 6.68483 33.6881 3.73895
795 1 -1.1104 6.81918 33.7657 0.957003
921 1 -1.1104 6.71202 30.8822 6.65953
925 1 -1.1104 3.83991 30.853 6.71779
927 1 -1.1104 3.89063 33.7179 6.75204
1083 2 2.2208 2.38756 37.981 -0.297833
793 1 -1.1104 6.62871 30.9831 1.01355
772 1 -1.1104 6.70302 36.5411 1.21877
775 1 -1.1104 6.79057 36.5273 3.87995
796 2 2.2208 10.8496 35.0993 5.35817
797 1 -1.1104 12.2632 30.8671 1.03169
798 1 -1.1104 12.3772 36.4208 1.08291
799 1 -1.1104 12.3597 30.7367 3.71543
800 1 -1.1104 12.2229 36.6288 3.84883
801 1 -1.1104 12.3739 33.6571 1.28831
802 2 2.2208 11.0013 32.1355 2.51658
803 2 2.2208 10.8533 37.9239 2.48499
804 1 -1.1104 12.3467 33.6593 4.07149
805 1 -1.1104 9.5046 30.8525 1.07514
806 1 -1.1104 9.49981 36.4777 1.00921
807 2 2.2208 8.08653 35.1248 2.44461
808 1 -1.1104 9.46786 30.7914 3.89838