ITEM: TIMESTEP
60000
ITEM: NUMBER OF ATOMS
17820
ITEM: BOX BOUNDS pp pp pp
-3.5923970952445022e-01 2.7699239709523997e+01
-4.2873941797818000e+00 3.3236739417977742e+02
-3.5590125064864592e-01 2.7695901250648983e+01
ITEM: ATOMS id type q x y z
1 2 2.2208 5.19672 1.2641 5.30533
2 1 -1.1104 1.1728 -2.9105 0.991395
3 1 -1.1104 0.88927 2.81393 0.902293
6 1 -1.1104 1.10911 -2.94258 3.74688
7 1 -1.1104 0.891666 2.66057 3.79101
10 1 -1.1104 0.990347 -0.10251 1.04119
12 2 2.2208 5.17374 -1.53084 2.51074
13 2 2.2208 5.32232 4.06099 2.56071
14 1 -1.1104 1.03297 -0.0148081 3.99161
16 1 -1.1104 3.91758 -2.96097 1.01025
17 1 -1.1104 3.80778 2.75082 1.11293
18 2 2.2208 2.49276 1.25601 2.46458
19 1 -1.1104 3.78581 -3.09343 3.73741
20 1 -1.1104 3.82755 2.56853 3.9217
21 2 2.2208 2.43131 -1.47873 5.23646
23 1 -1.1104 3.80853 -0.166052 1.0451
24 1 -1.1104 3.8717 -0.294162 3.86858
22 2 2.2208 2.42867 4.04321 5.23101
169 1 -1.1104 6.66143 2.65702 6.58231
312 2 2.2208 -0.39257 18.0258 10.9402
311 2 2.2208 -0.368685 20.9095 8.21239
174 1 -1.1104 3.87723 -0.0367861 6.61191
173 1 -1.1104 3.8336 2.79745 6.75369
9 1 -1.1104 6.78949 2.76743 3.81567
11 1 -1.1104 6.48782 -0.213196 1.14696
171 1 -1.1104 6.67912 -0.104539 6.668
168 1 -1.1104 6.54791 -2.80508 6.63887
25 2 2.2208 -0.338315 -1.55506 2.40757
26 2 2.2208 -0.267896 1.23124 5.31214
355 2 2.2208 5.22009 1.28238 -0.347721
485 2 2.2208 8.11145 20.8906 -0.332928
9094 2 2.2208 2.51262 -4.22858 7.99095
4 1 -1.1104 6.72306 -2.95537 1.20524
5 1 -1.1104 6.62882 2.68557 1.09079
15 1 -1.1104 6.56403 -0.0795922 3.95907
8 1 -1.1104 6.57918 -3.04291 3.87677
31 2 2.2208 10.93 1.2776 5.23494
32 1 -1.1104 12.168 -2.93517 1.2066
33 1 -1.1104 12.2419 2.463 1.21008
34 1 -1.1104 12.1241 -2.90998 3.98954
35 1 -1.1104 12.138 2.78419 3.99809
36 1 -1.1104 12.1202 -0.149465 1.0949
37 2 2.2208 10.8354 -1.58061 2.50326
38 2 2.2208 10.7467 3.95623 2.54336
39 1 -1.1104 12.3626 -0.263227 3.94824
40 1 -1.1104 9.5565 -2.88829 1.14036
41 1 -1.1104 9.33867 2.51382 1.1654
42 2 2.2208 7.95002 1.13778 2.4906
43 1 -1.1104 9.44336 -2.8161 4.00882
44 1 -1.1104 9.4005 2.66563 3.91611
45 2 2.2208 8.02459 -1.36561 5.21899
46 2 2.2208 8.06541 4.09045 5.17047
47 1 -1.1104 9.30245 -0.21515 1.09461
48 1 -1.1104 9.41444 -0.0207741 3.88163
208 1 -1.1104 9.45759 -3.00397 6.83788
210 1 -1.1104 9.39773 -0.174085 6.67502
206 1 -1.1104 12.3175 2.82213 6.73588
205 1 -1.1104 12.2437 -2.8603 6.81599
9091 2 2.2208 8.10353 -4.30093 2.52327
54 2 2.2208 5.23538 6.9186 5.24428
55 2 2.2208 5.26152 12.5096 5.29188
56 1 -1.1104 1.19084 8.25108 1.01447
58 1 -1.1104 0.849952 8.24821 3.88622
60 1 -1.1104 0.915855 5.3939 1.24416
61 1 -1.1104 0.979029 11.1518 1.18596
66 2 2.2208 5.21856 9.82004 2.46095
67 1 -1.1104 1.18402 5.49864 3.95612
68 1 -1.1104 0.958073 11.1819 4.00297
71 1 -1.1104 3.94227 8.46646 1.05895
72 2 2.2208 2.40976 6.99616 2.5366
73 2 2.2208 2.56227 12.5816 2.5439
74 1 -1.1104 3.71176 8.26387 3.82386
75 2 2.2208 2.3286 9.77159 5.3464
76 1 -1.1104 3.84139 5.55371 1.13752
77 1 -1.1104 3.8789 11.2764 1.09703
79 1 -1.1104 3.98799 5.34701 3.90901
80 1 -1.1104 3.88632 11.1146 3.91186
69 1 -1.1104 6.63394 5.52801 3.87451
63 1 -1.1104 6.66087 5.445 1.16932
70 1 -1.1104 6.66522 11.1114 3.87979
62 1 -1.1104 0.953135 11.1904 6.87129
239 1 -1.1104 3.85168 5.50454 6.77261
9088 2 2.2208 2.50596 -4.38521 2.34413
696 2 2.2208 2.47157 20.8237 -0.368255
9092 2 2.2208 10.8396 -4.28155 5.41203
57 1 -1.1104 6.74219 8.32954 1.04815
59 1 -1.1104 6.57563 8.29522 3.81244
64 1 -1.1104 6.79926 11.1063 0.962505
84 2 2.2208 10.805 6.83534 5.24743
85 2 2.2208 11.0119 12.5175 5.39305
86 1 -1.1104 12.3895 8.40299 1.23908
87 1 -1.1104 12.2277 8.19197 4.08783
88 1 -1.1104 12.4172 5.40343 1.112
89 1 -1.1104 12.233 11.1188 1.20337
91 2 2.2208 10.8701 9.68697 2.52728
92 1 -1.1104 12.3945 5.47076 3.79857
93 1 -1.1104 12.321 11.0674 3.97422
94 1 -1.1104 9.58143 8.35547 1.03008
95 2 2.2208 8.01345 6.92342 2.50222
96 2 2.2208 8.16908 12.5351 2.51749
97 1 -1.1104 9.37861 8.22051 3.83662
98 2 2.2208 8.03331 9.58115 5.2981
99 1 -1.1104 9.50496 5.5054 1.19266
100 1 -1.1104 9.54164 11.2699 1.21028
102 1 -1.1104 9.43582 5.43396 3.92647
103 1 -1.1104 9.49885 11.0788 3.97914
265 1 -1.1104 12.3691 8.37188 6.86987
266 1 -1.1104 12.0045 5.55252 6.65098
269 1 -1.1104 9.22473 5.61993 6.56045
237 1 -1.1104 6.47329 5.39365 6.60804
101 1 -1.1104 9.51191 11.0193 6.74352
235 1 -1.1104 6.63919 8.27881 6.67582
106 2 2.2208 5.321 18.2188 5.38945
107 1 -1.1104 1.02022 13.9192 1.05186
109 1 -1.1104 0.894533 19.4378 1.10597
113 1 -1.1104 1.04982 13.8752 3.90081
114 1 -1.1104 0.995755 19.6155 3.81398
116 1 -1.1104 0.950321 16.5877 1.0361
119 2 2.2208 5.26278 15.3232 2.48871
120 2 2.2208 5.17907 20.8411 2.54615
121 1 -1.1104 0.887641 16.6788 3.96613
123 1 -1.1104 3.79238 13.9648 1.04625
125 1 -1.1104 3.74535 19.4524 1.22399
127 2 2.2208 2.42369 17.9468 2.53027
128 1 -1.1104 3.8592 13.9199 3.76323
129 1 -1.1104 3.66023 19.4308 3.92316
130 2 2.2208 2.48962 15.3934 5.27122
131 2 2.2208 2.42525 20.8143 5.30383
132 1 -1.1104 3.96097 16.6917 1.01735
134 1 -1.1104 3.70197 16.6202 3.92183
115 1 -1.1104 6.63614 13.9812 3.84751
140 1 -1.1104 6.73634 16.8766 1.04526
302 1 -1.1104 1.10883 19.5722 6.6697
110 1 -1.1104 6.70361 13.9233 1.10976
111 1 -1.1104 6.57415 13.9352 6.65198
112 1 -1.1104 6.63812 19.4673 6.68636
117 1 -1.1104 1.02926 16.8194 6.77006
694 2 2.2208 5.23147 18.0545 -0.371242
373 2 2.2208 2.4066 15.3024 -0.189428
139 1 -1.1104 6.52194 19.5125 3.99853
314 1 -1.1104 9.55237 16.5438 9.77827
122 1 -1.1104 6.61903 16.6762 3.86755
138 1 -1.1104 6.67381 19.4731 1.19595
141 2 2.2208 10.9018 18.0002 5.31241
142 1 -1.1104 12.3598 13.8879 1.08618
144 1 -1.1104 12.258 19.385 1.27677
146 1 -1.1104 12.2053 13.8259 3.97796
147 1 -1.1104 12.3568 19.5646 3.97708
148 1 -1.1104 12.2464 16.5934 1.08976
150 2 2.2208 10.8677 15.2486 2.5358
151 2 2.2208 10.9268 20.8143 2.63025
152 1 -1.1104 12.3227 16.6667 4.07831
153 1 -1.1104 9.43841 14.1228 0.995026
155 1 -1.1104 9.4611 19.527 1.17684
157 2 2.2208 8.05597 18.0591 2.41632
158 1 -1.1104 9.48122 13.7987 4.02424
159 1 -1.1104 9.39604 19.3629 4.06083
160 2 2.2208 8.04353 15.3208 5.37499
161 2 2.2208 8.02805 20.8156 5.32029
162 1 -1.1104 9.46538 16.8009 1.06209
164 1 -1.1104 9.37063 16.5708 3.898
143 1 -1.1104 12.2015 13.8733 6.76979
328 1 -1.1104 12.2568 13.9954 9.62819
9089 2 2.2208 5.05304 -4.42704 5.21458
372 2 2.2208 10.8843 12.5635 -0.306372
9097 2 2.2208 7.99247 -4.34373 8.07746
145 1 -1.1104 12.3359 19.4625 6.64293
365 2 2.2208 5.31973 6.95425 -0.400543
166 1 -1.1104 1.03465 -2.99566 6.52389
167 1 -1.1104 1.01971 2.74029 6.49418
321 1 -1.1104 9.51159 19.5765 12.3204
172 1 -1.1104 3.84306 -2.86403 6.60808
170 1 -1.1104 1.11579 -0.163706 6.53579
175 2 2.2208 5.20432 1.2844 10.892
176 1 -1.1104 0.99869 -2.83425 12.1375
177 1 -1.1104 1.08858 2.84022 12.2945
180 1 -1.1104 0.947915 -2.86271 9.27119
181 1 -1.1104 0.979586 2.71019 9.40734
184 1 -1.1104 1.00641 0.00162569 12.2137
186 2 2.2208 5.23327 -1.48674 8.06567
187 2 2.2208 5.24237 4.12887 8.04776
188 1 -1.1104 0.978239 -0.0589628 9.4804
190 1 -1.1104 3.86702 -2.74441 12.0947
191 1 -1.1104 3.77134 2.8032 12.3464
192 2 2.2208 2.43219 1.39426 8.05085
193 1 -1.1104 3.65758 -2.89391 9.42959
194 1 -1.1104 3.88674 2.83161 9.48552
195 2 2.2208 2.40541 -1.53175 10.8083
196 2 2.2208 2.38162 4.20056 10.9267
197 1 -1.1104 3.87504 -0.106912 12.2446
198 1 -1.1104 3.77124 0.0118579 9.42342
317 2 2.2208 8.05622 15.139 10.9017
313 2 2.2208 -0.37856 15.4068 8.01491
231 2 2.2208 13.5933 20.9001 5.43951
320 2 2.2208 8.0074 18.0203 8.07169
183 1 -1.1104 6.55207 2.71443 9.42322
185 1 -1.1104 6.72172 -0.0293726 12.1411
189 1 -1.1104 6.74503 -0.0468483 9.37458
333 2 2.2208 13.6661 15.3018 11.0768
156 1 -1.1104 9.41201 19.4843 6.77089
209 1 -1.1104 9.51179 2.84102 6.68397
207 1 -1.1104 12.1169 -0.115265 6.6868
182 1 -1.1104 6.56684 -2.7916 9.60426
178 1 -1.1104 6.67411 -2.85827 12.5101
9107 2 2.2208 5.26748 -4.40407 -0.259579
179 1 -1.1104 6.60762 2.75371 12.3006
211 2 2.2208 10.8563 1.40481 10.8301
212 1 -1.1104 12.1506 -2.80117 12.3382
213 1 -1.1104 12.3169 2.8368 12.3244
214 1 -1.1104 12.2305 -2.77643 9.66658
215 1 -1.1104 12.1852 2.81974 9.4568
216 1 -1.1104 12.2969 0.0347668 12.1499
217 2 2.2208 10.7808 -1.50629 8.07582
218 2 2.2208 10.8043 4.13628 8.04866
219 1 -1.1104 12.2444 -0.105565 9.39122
220 1 -1.1104 9.47353 -3.11519 12.4181
221 1 -1.1104 9.35319 2.61978 12.2888
222 2 2.2208 8.11825 1.24786 7.98606
223 1 -1.1104 9.44103 -2.99985 9.53919
224 1 -1.1104 9.36465 2.55931 9.3947
225 2 2.2208 8.15532 -1.5513 10.8715
226 2 2.2208 8.03584 3.9784 10.8934
227 1 -1.1104 9.4623 -0.13361 12.4203
228 1 -1.1104 9.60082 -0.149403 9.58986
351 2 2.2208 10.7335 9.73412 13.7494
230 2 2.2208 13.6015 -1.46771 10.8322
449 2 2.2208 13.6845 20.8948 -0.111658
27 2 2.2208 -0.415446 4.03331 2.50579
236 1 -1.1104 0.942259 5.41219 6.67432
234 1 -1.1104 0.97918 8.24206 6.76664
30 2 2.2208 -0.398167 9.63761 8.13258
238 1 -1.1104 3.69293 8.22904 6.47859
78 1 -1.1104 3.7882 11.2181 6.77534
204 2 2.2208 13.6554 15.1497 5.4063
51 2 2.2208 -0.335521 12.5199 10.8484
240 2 2.2208 5.2804 6.93058 10.8807
241 2 2.2208 5.18322 12.5261 10.9715
242 1 -1.1104 1.04306 8.39114 12.2133
244 1 -1.1104 1.09749 8.25493 9.51257
246 1 -1.1104 0.988267 5.4908 12.2064
247 1 -1.1104 1.14282 11.2662 12.3133
250 2 2.2208 5.1926 9.75048 8.05912
251 1 -1.1104 1.03326 5.3618 9.44354
252 1 -1.1104 0.971849 11.0091 9.55169
255 1 -1.1104 3.92131 8.31588 12.2343
256 2 2.2208 2.425 6.76677 8.07226
257 2 2.2208 2.45074 12.6236 8.03863
258 1 -1.1104 4.00075 8.22377 9.37166
259 2 2.2208 2.46487 9.67583 10.8767
260 1 -1.1104 3.79465 5.67373 12.3722
261 1 -1.1104 3.83211 11.125 12.2633
262 1 -1.1104 3.7935 5.63564 9.7257
263 1 -1.1104 3.68388 11.1278 9.43882
358 2 2.2208 -0.311836 9.73582 13.634
254 1 -1.1104 6.58811 11.2051 9.37713
243 1 -1.1104 6.7178 8.44277 12.2134
136 2 2.2208 -0.44112 20.7836 2.56946
329 1 -1.1104 12.3194 19.5103 12.3429
267 1 -1.1104 9.45438 8.27966 6.67188
325 2 2.2208 10.8042 15.174 8.1442
248 1 -1.1104 6.7341 5.5064 12.339
245 1 -1.1104 6.68287 8.48892 9.40502
65 1 -1.1104 6.75372 11.1449 6.6043
90 1 -1.1104 12.2558 11.1239 6.73359
253 1 -1.1104 6.63353 5.64647 9.49463
249 1 -1.1104 6.57296 11.1589 12.3705
264 1 -1.1104 9.3473 11.1362 9.46571
268 1 -1.1104 9.44445 5.48065 9.3983
270 1 -1.1104 9.50304 11.0639 12.2335
271 1 -1.1104 9.53213 5.27358 12.2004
272 2 2.2208 8.03161 9.83627 10.7667
273 1 -1.1104 9.53066 8.38642 9.45852
274 2 2.2208 7.9992 12.3854 8.00216
275 2 2.2208 7.99227 6.90375 8.01127
276 2 2.2208 10.9096 6.83495 10.8298
277 2 2.2208 10.8752 12.3788 10.8251
278 1 -1.1104 12.2663 8.45201 12.3019
279 1 -1.1104 12.3035 8.32929 9.54015
280 1 -1.1104 12.355 5.73984 12.2295
281 1 -1.1104 12.2493 11.2514 12.3059
282 2 2.2208 10.9655 9.68137 8.05474
283 1 -1.1104 12.2392 5.47291 9.45968
284 1 -1.1104 12.1131 11.1797 9.44493
285 1 -1.1104 9.37499 8.34416 12.5248
315 1 -1.1104 9.43396 16.8605 12.4544
326 1 -1.1104 12.27 16.8254 12.389
108 1 -1.1104 1.04235 14.0755 6.67443
126 1 -1.1104 3.90066 19.525 6.69293
124 1 -1.1104 3.8936 14.0334 6.66663
118 1 -1.1104 6.62907 16.5746 6.67992
289 1 -1.1104 6.71114 16.7465 9.49432
290 1 -1.1104 6.54531 13.8043 9.45963
133 1 -1.1104 3.73434 16.7481 6.71494
304 1 -1.1104 3.94808 16.6527 9.42263
310 2 2.2208 2.39876 15.1811 10.9094
305 1 -1.1104 3.71105 13.9129 9.50448
309 2 2.2208 2.46105 20.8471 10.86
308 1 -1.1104 3.78357 16.7674 12.2823
307 1 -1.1104 0.942407 16.7824 12.3337
286 1 -1.1104 3.85852 19.5619 12.2492
287 1 -1.1104 3.78672 13.9843 12.3634
291 1 -1.1104 1.19472 19.3406 9.4478
292 1 -1.1104 1.00666 16.5977 9.57661
293 2 2.2208 5.27915 20.8776 8.116
294 1 -1.1104 0.989093 13.8832 9.39729
295 2 2.2208 5.20383 15.3177 8.07117
298 1 -1.1104 0.932224 19.5587 12.3242
299 1 -1.1104 1.00919 13.9425 12.2888
300 2 2.2208 5.22997 17.9764 11.0134
301 1 -1.1104 3.85389 19.4834 9.47175
303 2 2.2208 2.4249 18.1089 8.08508
297 1 -1.1104 6.55574 13.787 12.3751
323 1 -1.1104 12.3326 16.7043 9.49141
330 1 -1.1104 12.3519 13.9471 12.354
316 2 2.2208 7.77574 20.7843 10.8803
163 1 -1.1104 9.48023 16.6846 6.86109
149 1 -1.1104 12.3068 16.6793 6.77159
154 1 -1.1104 9.39597 13.8629 6.77249
327 1 -1.1104 12.1106 19.4974 9.43611
318 1 -1.1104 9.34409 19.4496 9.38798
331 2 2.2208 10.9458 18.1938 10.8661
324 2 2.2208 10.739 20.8712 8.13353
319 1 -1.1104 9.44235 13.8446 9.48769
296 1 -1.1104 6.58017 19.4132 12.3654
306 1 -1.1104 6.54276 16.6324 12.3642
322 1 -1.1104 9.40076 13.7518 12.4216
288 1 -1.1104 6.55521 19.5305 9.46796
344 2 2.2208 13.7553 15.3751 -0.261226
49 2 2.2208 13.6873 1.28476 2.47459
9090 2 2.2208 -0.278642 -4.29596 5.20033
50 2 2.2208 13.7399 -1.62578 5.2026
52 2 2.2208 13.8086 9.79396 11.0774
137 2 2.2208 -0.456534 18.1602 5.24916
232 2 2.2208 13.7977 9.70582 5.26925
374 2 2.2208 13.7227 9.77988 -0.369633
105 2 2.2208 13.7508 6.86658 2.48879
692 2 2.2208 -0.320996 18.0268 -0.41449
135 2 2.2208 -0.368885 15.2467 2.5201
82 2 2.2208 -0.394044 9.85361 2.5591
201 2 2.2208 -0.34488 1.31144 10.8671
200 2 2.2208 -0.411417 -1.57505 8.01257
199 2 2.2208 -0.482755 3.99749 7.93612
354 2 2.2208 10.8188 20.8579 13.7649
576 2 2.2208 7.93233 18.0801 13.6999
549 2 2.2208 5.11791 15.4141 13.7539
350 2 2.2208 8.10115 6.89445 13.6441
575 2 2.2208 10.7673 15.4172 13.7579
361 2 2.2208 7.99406 -1.56525 -0.18135
371 2 2.2208 8.18338 9.7689 -0.368644
370 2 2.2208 10.8719 6.84982 -0.304335
442 2 2.2208 -0.429472 15.1447 13.7962
343 2 2.2208 10.856 -1.39138 13.6866
339 2 2.2208 2.42418 1.25766 13.6477
347 2 2.2208 8.04747 15.4505 -0.276318
366 2 2.2208 2.45558 9.70876 -0.298818
9109 2 2.2208 -0.357612 -4.22464 -0.316045
357 2 2.2208 2.47102 4.12695 -0.239037
375 2 2.2208 5.2227 1.30747 16.5387
376 1 -1.1104 1.02282 -2.96648 17.8448
377 1 -1.1104 1.18578 2.64515 17.869
380 1 -1.1104 1.1285 -2.90369 15.0755
382 1 -1.1104 0.908147 2.74709 15.2483
388 1 -1.1104 1.04402 -0.243961 17.7441
390 2 2.2208 5.2735 -1.41143 19.2195
392 1 -1.1104 1.12594 0.00939865 15.0144
396 1 -1.1104 4.00341 -2.81744 17.8079
397 1 -1.1104 3.88018 2.68132 17.8435
398 2 2.2208 2.42036 1.23447 19.1829
399 1 -1.1104 3.91413 -2.79237 14.8981
401 1 -1.1104 3.86954 2.66251 15.0742
403 2 2.2208 2.36048 -1.47224 16.4122
404 2 2.2208 2.47172 4.17482 16.4821
405 1 -1.1104 3.88749 -0.0601346 17.9336
406 1 -1.1104 3.86148 0.0162081 14.9634
391 2 2.2208 5.27721 4.16491 19.2756
338 2 2.2208 5.28433 -1.47311 13.7202
386 1 -1.1104 6.49342 2.70763 15.1194
384 1 -1.1104 6.7535 -2.96229 15.2222
554 1 -1.1104 12.4008 14.008 20.9333
667 2 2.2208 8.17035 20.884 22.1262
9166 2 2.2208 8.14635 -4.24723 24.8968
9115 2 2.2208 2.41319 -4.20187 13.6408
448 2 2.2208 13.636 18.2251 25.0049
389 1 -1.1104 6.64605 -0.0156546 18.0823
379 1 -1.1104 6.71627 2.69105 17.8845
378 1 -1.1104 6.60391 -2.87735 17.9296
394 1 -1.1104 6.69103 -0.0593951 15.1055
418 2 2.2208 10.802 1.27692 16.5376
419 1 -1.1104 12.2992 -2.85455 17.869
420 1 -1.1104 12.1126 2.72128 18.0232
421 1 -1.1104 12.2758 -2.78642 15.1575
423 1 -1.1104 12.2747 2.66528 15.2496
425 1 -1.1104 12.2369 -0.12851 17.9498
426 2 2.2208 10.8235 -1.49472 19.3501
427 2 2.2208 10.88 4.12031 19.5039
428 1 -1.1104 12.3101 -0.225121 15.0732
430 1 -1.1104 9.43324 -2.85043 17.9184
431 1 -1.1104 9.33536 2.71562 17.8075
432 2 2.2208 7.92203 1.38813 19.3603
433 1 -1.1104 9.42227 -2.91228 15.2695
435 1 -1.1104 9.53913 2.49401 15.0715
437 2 2.2208 8.13646 -1.36286 16.6117
438 2 2.2208 8.10032 4.04588 16.572
439 1 -1.1104 9.34944 -0.087317 18.1625
440 1 -1.1104 9.45956 -0.25077 15.139
9205 2 2.2208 8.21666 -4.25867 19.4812
436 1 -1.1104 9.58703 2.56027 20.6534
434 1 -1.1104 9.61602 -2.85228 20.7747
512 1 -1.1104 12.1475 19.5863 23.5804
422 1 -1.1104 12.4265 -3.17893 20.6771
639 1 -1.1104 9.44951 19.4907 26.4662
697 2 2.2208 13.7008 6.99034 25.0487
603 2 2.2208 10.8559 21.0372 25.0547
486 2 2.2208 11.0164 18.1326 22.156
451 2 2.2208 5.28688 6.96309 16.5383
452 2 2.2208 5.25131 12.592 16.5191
453 1 -1.1104 1.11088 8.13631 17.9753
455 1 -1.1104 1.04212 8.40583 14.9928
459 1 -1.1104 1.08648 5.52576 17.8592
460 1 -1.1104 1.1235 10.9366 17.8992
463 2 2.2208 5.29367 9.65995 19.2837
464 1 -1.1104 1.14931 5.66848 14.951
466 1 -1.1104 1.01107 11.2045 15.1608
472 1 -1.1104 3.86703 8.39875 17.8609
473 2 2.2208 2.51203 6.89753 19.3594
474 2 2.2208 2.40115 12.5019 19.4013
475 1 -1.1104 3.99367 8.44037 15.1386
477 2 2.2208 2.49243 9.66758 16.6174
478 1 -1.1104 3.84988 5.58609 17.8941
479 1 -1.1104 3.74805 11.0924 18.0644
480 1 -1.1104 3.88711 5.59309 15.1053
482 1 -1.1104 3.717 11.2336 15.2712
468 1 -1.1104 6.70969 5.49075 15.0316
461 1 -1.1104 6.70889 5.44697 17.9529
454 1 -1.1104 6.58685 8.33114 17.9764
457 1 -1.1104 6.85204 8.40158 14.9814
462 1 -1.1104 6.68456 11.1027 17.9619
9169 2 2.2208 2.41967 -4.29505 24.7929
9170 2 2.2208 5.31762 -4.26673 22.0741
411 2 2.2208 -0.344415 1.26839 16.6006
669 1 -1.1104 9.37238 16.6809 26.3073
470 1 -1.1104 6.53213 11.1816 15.2713
487 2 2.2208 10.9117 6.92756 16.6245
488 2 2.2208 10.926 12.4184 16.6543
489 1 -1.1104 12.2423 8.30852 17.9463
490 1 -1.1104 12.3942 8.24737 15.316
492 1 -1.1104 12.3283 5.47333 17.9395
493 1 -1.1104 12.3143 11.103 18.0771
494 2 2.2208 10.908 9.77849 19.4159
495 1 -1.1104 12.2756 5.57204 15.0859
497 1 -1.1104 12.121 11.1709 15.228
499 1 -1.1104 9.45593 8.37285 17.9199
500 2 2.2208 8.01658 6.81428 19.412
501 2 2.2208 8.04074 12.5427 19.3704
502 1 -1.1104 9.61175 8.376 15.2309
504 2 2.2208 8.07821 9.80879 16.6055
505 1 -1.1104 9.47711 5.49474 18.0343
506 1 -1.1104 9.51513 11.0713 17.9785
507 1 -1.1104 9.5597 5.45481 15.1003
509 1 -1.1104 9.44501 11.2354 15.1908
496 1 -1.1104 12.3132 5.43656 20.8867
503 1 -1.1104 9.71931 8.28183 20.6642
9236 2 2.2208 5.20584 -4.34192 16.4574
510 1 -1.1104 9.57066 10.9976 20.7531
491 1 -1.1104 12.4932 8.24708 20.8046
508 1 -1.1104 9.46954 5.54257 20.8361
514 2 2.2208 5.18261 18.081 16.5752
515 1 -1.1104 1.096 13.7866 18.0262
516 1 -1.1104 1.06418 19.2437 17.9954
519 1 -1.1104 0.951774 13.879 15.1744
521 1 -1.1104 1.00709 19.3678 15.2234
527 1 -1.1104 0.980163 16.5262 17.8336
529 2 2.2208 5.2389 15.2331 19.4265
530 2 2.2208 5.28196 20.7025 19.3719
531 1 -1.1104 0.966356 16.5407 15.1681
535 1 -1.1104 3.80907 13.9087 17.9982
536 1 -1.1104 3.78768 19.5171 18.0598
537 2 2.2208 2.43402 17.9883 19.3175
538 1 -1.1104 3.85895 14.0093 15.2207
540 1 -1.1104 3.74826 19.5245 15.0981
542 2 2.2208 2.42677 15.3428 16.502
543 2 2.2208 2.35719 20.8156 16.5592
544 1 -1.1104 3.78699 16.6897 18.0099
545 1 -1.1104 3.60943 16.6948 15.0362
668 1 -1.1104 9.51983 16.7079 23.6181
518 1 -1.1104 6.53063 19.2811 18.0359
541 1 -1.1104 3.72164 19.204 20.79
523 1 -1.1104 6.51881 13.9045 15.1497
526 1 -1.1104 6.67213 19.2318 20.9396
522 1 -1.1104 0.900043 19.4813 20.7812
9235 2 2.2208 2.44326 -4.37803 19.3401
673 2 2.2208 -0.352334 20.879 25.0202
533 1 -1.1104 6.55225 16.7232 15.106
525 1 -1.1104 6.58382 19.6006 15.2703
528 1 -1.1104 6.57947 16.5773 17.9938
517 1 -1.1104 6.64392 13.7196 18.0477
550 2 2.2208 10.8502 18.1129 16.5182
551 1 -1.1104 12.395 13.9466 18.0229
552 1 -1.1104 12.3399 19.6143 17.8266
553 1 -1.1104 12.316 13.9811 15.2229
555 1 -1.1104 12.2053 19.5001 15.126
557 1 -1.1104 12.3562 16.7364 17.9976
558 2 2.2208 10.924 15.3233 19.2767
559 2 2.2208 10.9275 20.8702 19.2783
560 1 -1.1104 12.2587 16.6929 15.2366
562 1 -1.1104 9.56159 13.8474 18.0044
563 1 -1.1104 9.34719 19.5245 17.8692
564 2 2.2208 7.94391 18.0868 19.4132
565 1 -1.1104 9.47748 14.0415 15.2254
567 1 -1.1104 9.38641 19.4636 15.1375
569 2 2.2208 7.88303 15.2378 16.5671
570 2 2.2208 8.02909 20.8304 16.508
571 1 -1.1104 9.48992 16.8176 17.9293
572 1 -1.1104 9.34525 16.7651 15.3041
556 1 -1.1104 12.2545 19.5169 20.718
561 1 -1.1104 12.3449 16.8214 20.8336
671 2 2.2208 -0.390397 9.59383 25.0802
573 1 -1.1104 9.53118 16.6538 20.7298
346 2 2.2208 2.53748 6.97723 13.8017
607 1 -1.1104 9.58465 13.8333 23.4845
548 1 -1.1104 12.3017 19.6395 26.3494
383 1 -1.1104 1.02451 2.60737 20.5898
381 1 -1.1104 1.01403 -3.01265 20.5343
400 1 -1.1104 3.86459 -2.86019 20.57
393 1 -1.1104 1.11402 -0.176854 20.6994
407 1 -1.1104 3.7879 0.0265309 20.7277
445 2 2.2208 -0.271909 20.9421 19.4059
612 2 2.2208 -0.417502 1.34845 21.9687
611 2 2.2208 -0.275901 -1.43579 24.9388
695 2 2.2208 13.8741 12.5805 25.039
402 1 -1.1104 3.70235 2.69523 20.5809
578 2 2.2208 5.19012 1.24791 22.1541
579 1 -1.1104 0.993076 -2.80183 23.5183
580 1 -1.1104 0.939357 2.79784 23.3907
583 1 -1.1104 0.950829 -2.8852 26.3579
584 1 -1.1104 1.01733 2.65023 26.155
587 1 -1.1104 1.00844 0.0218921 23.3931
589 2 2.2208 5.33176 -1.52277 24.9418
591 1 -1.1104 1.11941 -0.0532675 26.289
593 1 -1.1104 3.91881 -2.85074 23.4255
594 1 -1.1104 3.86961 2.82562 23.4871
595 2 2.2208 2.42694 1.34637 24.8818
596 1 -1.1104 3.8742 -2.90365 26.2694
597 1 -1.1104 3.87749 2.73429 26.3075
598 2 2.2208 2.39095 -1.49014 22.124
599 2 2.2208 2.37448 4.06598 22.0204
600 1 -1.1104 3.80404 -0.0490439 23.6315
601 1 -1.1104 3.75215 -0.109619 26.2172
387 1 -1.1104 6.68528 2.75401 20.8977
590 2 2.2208 5.28756 4.13171 24.9285
395 1 -1.1104 6.68294 -0.0872418 20.7879
385 1 -1.1104 6.79693 -2.82168 20.7483
429 1 -1.1104 12.4086 -0.213086 20.8182
424 1 -1.1104 12.3424 2.62114 20.8344
441 1 -1.1104 9.59783 -0.168404 20.8553
410 2 2.2208 13.5664 4.03556 22.284
585 1 -1.1104 6.68359 -2.86808 26.3569
582 1 -1.1104 6.65758 2.64449 23.6256
581 1 -1.1104 6.61633 -2.82809 23.4993
588 1 -1.1104 6.6423 -0.0137891 23.5789
586 1 -1.1104 6.65451 2.65607 26.4528
592 1 -1.1104 6.57475 -0.0275799 26.3852
614 2 2.2208 10.8108 1.16121 22.151
615 1 -1.1104 12.1073 -2.93435 23.6882
616 1 -1.1104 12.2487 2.55327 23.5357
617 1 -1.1104 12.3323 -2.71547 26.4851
618 1 -1.1104 12.4388 2.71213 26.6007
619 1 -1.1104 12.2664 -0.0969859 23.5576
620 2 2.2208 10.8744 -1.47831 25.0347
621 2 2.2208 10.9399 3.98825 25.015
622 1 -1.1104 12.3742 -0.154176 26.2736
623 1 -1.1104 9.24014 -2.85469 23.4307
624 1 -1.1104 9.48445 2.56398 23.5205
625 2 2.2208 8.01203 1.27614 25.0266
626 1 -1.1104 9.52698 -2.88617 26.1957
627 1 -1.1104 9.53988 2.68772 26.2847
628 2 2.2208 8.01929 -1.49284 22.0866
629 2 2.2208 8.0211 4.08153 22.1422
630 1 -1.1104 9.47029 -0.102886 23.5871
631 1 -1.1104 9.42596 -0.0165161 26.3694
604 1 -1.1104 12.3278 16.7911 26.4018
362 2 2.2208 8.09715 4.06442 27.7654
412 2 2.2208 -0.448396 -1.57769 19.2166
476 1 -1.1104 3.84889 8.36097 20.7551
456 1 -1.1104 1.12406 8.353 20.7403
483 1 -1.1104 3.86389 11.0948 20.6661
467 1 -1.1104 1.14744 11.1461 20.8159
465 1 -1.1104 1.09268 5.37432 20.5787
469 1 -1.1104 6.61816 5.52192 20.8039
443 2 2.2208 -0.377589 18.0228 16.5386
481 1 -1.1104 3.88238 5.45679 20.6639
602 2 2.2208 10.7921 15.2878 25.0031
643 2 2.2208 5.28253 6.98705 22.2654
644 2 2.2208 5.29271 12.5011 22.0996
645 1 -1.1104 1.04009 8.39543 23.4851
647 1 -1.1104 1.14051 8.21952 26.323
649 1 -1.1104 1.08224 5.55727 23.5881
650 1 -1.1104 0.98419 11.0192 23.5455
653 2 2.2208 5.20217 9.7166 24.8948
654 1 -1.1104 1.04142 5.43185 26.2825
655 1 -1.1104 1.08977 10.9713 26.2851
658 1 -1.1104 3.85631 8.37562 23.5113
659 2 2.2208 2.54766 6.97133 24.903
660 2 2.2208 2.34788 12.5248 24.8785
661 1 -1.1104 3.9461 8.44507 26.3617
662 2 2.2208 2.47301 9.7519 22.0847
663 1 -1.1104 3.81498 5.47259 23.3725
664 1 -1.1104 3.89312 11.157 23.6936
665 1 -1.1104 3.94072 5.5627 26.2591
666 1 -1.1104 3.85851 11.1768 26.2746
648 1 -1.1104 6.68044 8.40891 26.2383
646 1 -1.1104 6.80102 8.25143 23.6025
652 1 -1.1104 6.88936 11.0097 23.4945
657 1 -1.1104 6.61954 11.2269 26.3262
574 1 -1.1104 12.2527 16.7583 23.7026
458 1 -1.1104 6.67372 8.40627 20.868
471 1 -1.1104 6.72654 11.0756 20.7252
693 2 2.2208 -0.356489 15.3414 24.839
656 1 -1.1104 6.72406 5.4265 26.3955
651 1 -1.1104 6.72243 5.60229 23.6682
640 2 2.2208 13.7248 -1.52172 22.2266
498 1 -1.1104 12.3372 11.1906 20.7888
674 1 -1.1104 9.43415 11.0162 26.3289
675 1 -1.1104 9.49164 5.39975 26.3986
676 1 -1.1104 9.62641 11.0713 23.4689
677 1 -1.1104 9.45537 5.37144 23.6565
678 2 2.2208 8.13335 9.76274 22.13
679 1 -1.1104 9.45294 8.20164 26.3884
680 2 2.2208 8.1113 12.3939 24.8036
681 2 2.2208 8.08147 6.88009 24.9716
682 2 2.2208 11.0022 7.00426 22.2066
683 2 2.2208 10.9923 12.5381 22.1957
684 1 -1.1104 12.2876 8.3096 23.6167
685 1 -1.1104 12.2297 8.31415 26.4863
686 1 -1.1104 12.2751 5.59964 23.542
687 1 -1.1104 12.4204 11.0843 23.6826
688 2 2.2208 10.9748 9.80621 24.9677
689 1 -1.1104 12.3076 5.49915 26.359
690 1 -1.1104 12.3423 11.2174 26.3772
691 1 -1.1104 9.42634 8.20161 23.5471
609 2 2.2208 -0.245924 9.70564 19.3502
539 1 -1.1104 3.77192 13.8522 20.8248
532 1 -1.1104 1.15545 16.7087 20.6701
534 1 -1.1104 6.70659 16.5769 20.8779
524 1 -1.1104 6.76244 13.8795 20.7371
716 1 -1.1104 6.81789 16.7043 23.5325
546 1 -1.1104 3.94085 16.5658 20.8011
520 1 -1.1104 0.982402 13.9752 20.7044
720 2 2.2208 2.43993 15.2745 22.1652
719 2 2.2208 2.51602 20.7348 22.1456
698 1 -1.1104 3.84094 19.3793 23.5677
700 1 -1.1104 3.83895 13.8428 23.6612
702 1 -1.1104 1.08169 19.5117 26.2828
703 1 -1.1104 1.13375 16.8038 26.3815
704 1 -1.1104 0.868956 13.8952 26.3664
706 2 2.2208 5.26886 20.885 24.9143
707 2 2.2208 5.27605 15.3172 24.8943
709 1 -1.1104 1.03528 19.4457 23.6109
710 1 -1.1104 1.02027 13.8527 23.4779
711 2 2.2208 5.29848 17.979 22.2531
712 1 -1.1104 3.93257 19.5734 26.3732
713 2 2.2208 2.5335 17.944 24.942
714 1 -1.1104 3.91867 16.5938 26.339
715 1 -1.1104 3.82331 13.9767 26.4042
717 1 -1.1104 1.09904 16.6458 23.6014
718 1 -1.1104 3.87553 16.6466 23.5773
708 1 -1.1104 6.60542 13.9016 23.4754
705 1 -1.1104 6.74071 19.4341 23.6293
699 1 -1.1104 6.58292 13.8475 26.3396
633 1 -1.1104 6.67535 19.4063 26.3993
349 2 2.2208 2.39431 12.4757 13.7195
701 1 -1.1104 6.75132 16.7556 26.2404
642 2 2.2208 8.16138 15.2572 22.2243
635 2 2.2208 -0.331696 12.5008 16.5472
450 2 2.2208 13.6469 20.992 22.1637
566 1 -1.1104 9.53879 13.8972 20.739
513 1 -1.1104 12.2715 13.7556 26.3157
634 1 -1.1104 9.42901 13.8209 26.2288
632 2 2.2208 8.15846 18.127 24.8924
610 1 -1.1104 9.55575 19.5417 23.6448
511 1 -1.1104 12.3554 13.9382 23.6082
568 1 -1.1104 9.41603 19.5129 20.5517
341 2 2.2208 5.25173 4.13348 13.6627
670 2 2.2208 -0.332576 18.1521 22.2217
414 2 2.2208 -0.369878 4.14997 19.221
444 2 2.2208 -0.429991 15.3103 19.3719
613 2 2.2208 -0.34892 4.2158 25.0094
360 2 2.2208 10.8763 1.20733 27.6417
417 2 2.2208 13.6504 15.4038 22.2764
409 2 2.2208 13.7961 9.69094 22.1758
367 2 2.2208 5.23191 12.5419 27.6207
9103 2 2.2208 10.8726 -4.20981 27.7688
368 2 2.2208 -0.35069 12.5458 27.7786
484 2 2.2208 10.7939 18.1344 27.8235
356 2 2.2208 2.50221 -1.49278 27.6303
547 2 2.2208 2.30905 18.1708 13.7292
353 2 2.2208 5.17698 20.9635 13.6242
342 2 2.2208 7.88834 1.24419 13.6567
345 2 2.2208 10.8739 4.07594 13.8092
352 2 2.2208 8.0043 12.5302 13.7732
348 2 2.2208 5.27074 9.72133 13.7547
369 2 2.2208 -0.352065 6.69731 27.6689
636 2 2.2208 13.547 12.5459 13.7466
721 2 2.2208 5.30612 23.6903 5.47015
722 2 2.2208 5.30487 29.3688 5.3294
723 1 -1.1104 1.03047 24.9729 1.06204
724 1 -1.1104 1.16058 25.1588 3.94415
725 1 -1.1104 1.06518 22.1157 1.13603
726 1 -1.1104 1.03506 27.9491 1.00095
727 2 2.2208 5.21927 26.4144 2.44913
728 1 -1.1104 0.879312 22.2858 3.88509
729 1 -1.1104 0.965257 27.9488 3.97854
730 1 -1.1104 3.7627 24.9916 1.05351
731 2 2.2208 2.49965 23.4968 2.50458
732 2 2.2208 2.36893 29.4049 2.51918
733 1 -1.1104 3.95202 25.0611 3.89473
734 2 2.2208 2.46432 26.5784 5.31336
735 1 -1.1104 3.82453 22.2212 1.23309
736 1 -1.1104 3.82134 27.7903 0.995343
737 1 -1.1104 3.89873 22.1961 3.92214
738 1 -1.1104 3.91229 27.9735 3.94526
747 1 -1.1104 6.62064 27.8548 3.93435
745 1 -1.1104 6.48296 27.8772 0.975435
865 1 -1.1104 1.061 27.9121 6.72382
864 1 -1.1104 0.976467 22.3339 6.74803
868 1 -1.1104 3.84949 25.1043 6.71819
742 1 -1.1104 6.57176 25.1115 1.20049
743 1 -1.1104 6.63469 25.0697 3.89731
1037 2 2.2208 13.6953 43.3705 10.8507
1036 2 2.2208 10.6551 40.5277 10.8225
1644 1 -1.1104 6.64378 47.3735 11.9515
1307 2 2.2208 5.14505 29.3133 -0.294591
744 1 -1.1104 6.7118 22.2267 1.1575
746 1 -1.1104 6.69286 22.275 3.8776
748 2 2.2208 10.776 23.7798 5.42444
749 2 2.2208 10.7604 29.2721 5.28823
750 1 -1.1104 12.3474 25.2355 1.07528
751 1 -1.1104 12.229 25.2032 3.85818
752 1 -1.1104 12.2276 22.3496 1.23639
753 1 -1.1104 12.4152 27.9584 1.0831
754 2 2.2208 10.8154 26.4596 2.468
755 1 -1.1104 12.3379 22.3798 4.13319
756 1 -1.1104 12.1637 27.8974 3.96019
757 1 -1.1104 9.49311 25.0753 1.09785
758 2 2.2208 8.01671 23.6384 2.5112
759 2 2.2208 7.94358 29.274 2.40487
760 1 -1.1104 9.38223 25.0471 3.87869
761 2 2.2208 7.94485 26.5796 5.31475
762 1 -1.1104 9.57154 22.1714 1.14157
763 1 -1.1104 9.57477 27.8569 1.18897
764 1 -1.1104 9.58243 22.1499 4.01463
765 1 -1.1104 9.2503 27.8699 3.9525
896 1 -1.1104 12.2296 22.2102 6.93014
898 1 -1.1104 9.44159 25.1758 6.67532
1033 1 -1.1104 12.0123 41.7823 9.36133
1018 1 -1.1104 9.41177 41.9831 9.50819
1647 1 -1.1104 6.56286 47.5015 9.20001
1309 2 2.2208 -0.293865 23.7082 -0.24778
769 2 2.2208 5.15764 34.8578 5.27721
770 1 -1.1104 1.12297 30.8271 1.16912
771 1 -1.1104 1.17934 36.4594 1.06982
773 1 -1.1104 1.03927 30.7474 3.98052
774 1 -1.1104 1.03746 36.3204 3.67007
776 1 -1.1104 1.09463 33.5464 0.963239
777 2 2.2208 5.1737 32.1215 2.45906
778 2 2.2208 5.29182 37.7721 2.4729
779 1 -1.1104 0.933926 33.6141 3.71883
781 1 -1.1104 3.78717 30.5954 1.14634
782 1 -1.1104 3.87129 36.4111 1.05481
783 2 2.2208 2.48264 35.0422 2.39663
784 1 -1.1104 3.85098 30.6812 3.94582
785 1 -1.1104 3.79619 36.2357 3.84699
786 2 2.2208 2.46376 32.1349 5.31846
787 2 2.2208 2.43966 37.783 5.21574
788 1 -1.1104 3.71103 33.4563 1.08213
789 1 -1.1104 3.6559 33.4899 3.93932
772 1 -1.1104 6.65045 36.4351 1.15065
775 1 -1.1104 6.50995 36.3501 3.97517
795 1 -1.1104 6.64547 33.6002 0.994534
780 1 -1.1104 6.53396 33.5728 3.79972
793 1 -1.1104 6.34018 30.7708 1.14832
927 1 -1.1104 3.7081 33.5428 6.83504
794 1 -1.1104 6.61046 30.7792 3.84358
924 1 -1.1104 6.64128 33.6566 6.71586
1084 2 2.2208 5.28957 34.9719 -0.316581
920 1 -1.1104 1.03069 36.349 6.50942
1052 2 2.2208 13.668 40.3076 7.97265
840 2 2.2208 -0.451821 46.2072 5.2113