ITEM: TIMESTEP
30000
ITEM: NUMBER OF ATOMS
17820
ITEM: BOX BOUNDS pp pp pp
-3.4730150011148692e-01 2.7687301500111364e+01
-4.3202592894081073e+00 3.3240025928940565e+02
-3.5698488739208289e-01 2.7696984887391821e+01
ITEM: ATOMS id type q x y z
1 2 2.2208 5.28788 1.39132 5.41184
2 1 -1.1104 1.23597 -3.15022 0.987486
3 1 -1.1104 1.30883 2.6891 0.989076
6 1 -1.1104 1.08127 -3.00951 3.86817
7 1 -1.1104 1.12698 2.62447 3.88992
10 1 -1.1104 1.23032 -0.13767 1.07723
12 2 2.2208 5.38917 -1.51176 2.55056
13 2 2.2208 5.41593 4.14475 2.48356
14 1 -1.1104 1.2736 -0.123756 3.88113
16 1 -1.1104 3.9729 -2.88139 1.07166
17 1 -1.1104 3.83377 2.7698 1.08824
18 2 2.2208 2.63458 1.29428 2.57963
19 1 -1.1104 3.96726 -2.84968 3.81059
20 1 -1.1104 3.95781 2.7149 3.86389
21 2 2.2208 2.48159 -1.56422 5.25711
22 2 2.2208 2.58571 4.10719 5.40101
23 1 -1.1104 3.90392 -0.181483 1.06261
24 1 -1.1104 4.04601 -0.165254 3.90424
356 2 2.2208 2.62803 -1.65195 -0.224681
26 2 2.2208 -0.236867 1.26371 5.25958
25 2 2.2208 -0.0965202 -1.60346 2.45316
27 2 2.2208 -0.0773994 3.98534 2.41966
9090 2 2.2208 -0.34006 -4.46771 5.31093
9093 2 2.2208 13.6869 -4.16815 2.52279
9107 2 2.2208 5.34527 -4.28469 -0.181261
9089 2 2.2208 5.45688 -4.25696 5.33512
9109 2 2.2208 -0.134563 -4.45166 -0.276957
359 2 2.2208 -0.145905 1.22419 -0.440457
357 2 2.2208 2.67589 4.16413 -0.265212
355 2 2.2208 5.30406 1.24784 -0.274072
9103 2 2.2208 11.0954 -4.22228 -0.25183
15 1 -1.1104 6.82824 -0.0295725 4.04066
8 1 -1.1104 6.73959 -2.82463 3.94955
9 1 -1.1104 6.78802 2.83941 3.99783
4 1 -1.1104 6.74564 -2.89788 1.20852
11 1 -1.1104 6.6666 -0.129427 1.21055
5 1 -1.1104 6.61873 2.61567 1.20295
31 2 2.2208 10.8689 1.37714 5.33822
32 1 -1.1104 12.3926 -2.88275 1.02299
33 1 -1.1104 12.2427 2.7683 1.1342
34 1 -1.1104 12.2705 -2.7121 3.94886
35 1 -1.1104 12.4593 2.87814 3.88026
36 1 -1.1104 12.4151 -0.0808666 1.03853
37 2 2.2208 10.9521 -1.43332 2.57925
38 2 2.2208 10.8723 4.17286 2.43565
39 1 -1.1104 12.2732 0.0235343 3.94597
40 1 -1.1104 9.7143 -2.94048 1.17129
41 1 -1.1104 9.43872 2.68643 1.1807
42 2 2.2208 8.08606 1.3457 2.57734
43 1 -1.1104 9.5279 -2.90344 3.94079
44 1 -1.1104 9.62748 2.85015 4.06196
45 2 2.2208 8.24507 -1.4959 5.42632
46 2 2.2208 8.15556 4.43576 5.41568
47 1 -1.1104 9.47431 -0.0996713 1.10029
48 1 -1.1104 9.55355 -0.271702 4.01242
361 2 2.2208 8.08926 -1.46576 -0.26364
168 1 -1.1104 6.7012 -2.85148 6.74056
9095 2 2.2208 5.36202 -4.29735 10.8607
171 1 -1.1104 6.75405 0.0830269 6.79309
209 1 -1.1104 9.65477 2.83463 6.73558
169 1 -1.1104 6.7256 2.97184 6.72076
137 2 2.2208 -0.260829 18.0883 5.32859
360 2 2.2208 10.93 1.27626 -0.288307
54 2 2.2208 5.39187 6.97314 5.50264
55 2 2.2208 5.36073 12.6505 5.22159
56 1 -1.1104 1.26096 8.32918 1.10798
58 1 -1.1104 1.11177 8.29924 3.96292
60 1 -1.1104 1.29912 5.58111 0.961351
61 1 -1.1104 1.12731 11.1987 1.20609
66 2 2.2208 5.35397 9.71674 2.56696
67 1 -1.1104 1.24415 5.50175 3.76168
68 1 -1.1104 1.20475 10.989 3.89384
71 1 -1.1104 4.08076 8.27845 1.00592
72 2 2.2208 2.64791 7.05272 2.50359
73 2 2.2208 2.49946 12.4762 2.61337
74 1 -1.1104 3.97598 8.52458 3.83844
75 2 2.2208 2.55909 9.6984 5.32277
76 1 -1.1104 4.09337 5.53705 1.26507
77 1 -1.1104 3.97924 11.1676 1.21382
79 1 -1.1104 3.99095 5.53826 3.98234
80 1 -1.1104 3.91501 11.1961 3.93412
82 2 2.2208 -0.247526 9.59369 2.52945
81 2 2.2208 -0.14241 6.7857 5.34413
83 2 2.2208 -0.2984 12.3888 5.24406
236 1 -1.1104 1.2205 5.34591 6.57973
369 2 2.2208 -0.248843 6.85557 -0.360725
365 2 2.2208 5.50275 6.88981 -0.225008
9098 2 2.2208 11.0468 -4.28881 10.9731
372 2 2.2208 10.9511 12.4679 -0.330041
371 2 2.2208 8.08328 9.82196 -0.373016
63 1 -1.1104 6.82273 5.54221 1.07409
69 1 -1.1104 6.88958 5.69362 3.96412
64 1 -1.1104 6.59335 11.1002 1.19426
70 1 -1.1104 6.72602 11.2709 3.98952
57 1 -1.1104 6.92459 8.39212 1.15822
59 1 -1.1104 6.6955 8.36477 4.05499
84 2 2.2208 10.9952 6.97735 5.34221
85 2 2.2208 10.9671 12.5773 5.25072
86 1 -1.1104 12.4399 8.34214 1.02443
87 1 -1.1104 12.3336 8.52508 3.91961
88 1 -1.1104 12.2378 5.63279 1.18918
89 1 -1.1104 12.2728 10.9809 1.11141
91 2 2.2208 10.9741 9.70775 2.41379
92 1 -1.1104 12.3985 5.57506 3.99798
93 1 -1.1104 12.4854 11.2659 3.80404
94 1 -1.1104 9.73858 8.31771 1.03808
95 2 2.2208 8.2072 6.95931 2.4349
96 2 2.2208 8.14035 12.5482 2.47082
97 1 -1.1104 9.60951 8.42029 3.79983
98 2 2.2208 8.16611 9.79962 5.38405
99 1 -1.1104 9.60327 5.43719 1.07258
100 1 -1.1104 9.50117 11.1548 1.1652
102 1 -1.1104 9.62914 5.6912 3.80333
103 1 -1.1104 9.57034 11.1254 4.04711
237 1 -1.1104 6.78164 5.6393 6.71241
370 2 2.2208 11.0319 7.0295 -0.297623
329 1 -1.1104 12.4217 19.471 12.3483
136 2 2.2208 -0.245737 20.8684 2.55312
106 2 2.2208 5.37482 18.1358 5.42962
107 1 -1.1104 1.08409 14.0368 1.27202
109 1 -1.1104 1.13941 19.5529 1.14781
113 1 -1.1104 1.00389 13.8319 4.00114
114 1 -1.1104 1.15171 19.4063 3.89412
116 1 -1.1104 1.08772 16.7168 1.26248
119 2 2.2208 5.41467 15.3943 2.60828
120 2 2.2208 5.43004 20.9122 2.48147
121 1 -1.1104 1.13781 16.7303 4.06967
123 1 -1.1104 3.92665 14.0429 1.0544
125 1 -1.1104 4.01062 19.5284 1.02002
127 2 2.2208 2.62021 18.0096 2.59339
128 1 -1.1104 3.83065 13.9206 3.96193
129 1 -1.1104 4.02477 19.436 3.81346
130 2 2.2208 2.49484 15.2181 5.39895
131 2 2.2208 2.53464 20.892 5.26948
132 1 -1.1104 4.08582 16.7822 1.08378
134 1 -1.1104 3.9379 16.6819 3.95187
124 1 -1.1104 3.77561 13.9306 6.85065
135 2 2.2208 -0.2737 15.3821 2.5611
126 1 -1.1104 3.85696 19.609 6.66284
327 1 -1.1104 12.5032 19.6083 9.72177
145 1 -1.1104 12.4091 19.5484 6.79477
139 1 -1.1104 6.85515 19.5325 4.04338
140 1 -1.1104 6.88338 16.7813 1.13642
122 1 -1.1104 6.84791 16.8127 3.98085
110 1 -1.1104 6.70497 13.9775 1.0491
118 1 -1.1104 6.82452 16.7612 6.69687
115 1 -1.1104 6.6203 13.9866 3.83082
138 1 -1.1104 6.855 19.6483 1.10608
141 2 2.2208 10.9455 18.0965 5.25914
142 1 -1.1104 12.3255 13.9113 1.13583
144 1 -1.1104 12.5089 19.5757 1.11661
146 1 -1.1104 12.4005 13.9579 4.00656
147 1 -1.1104 12.4154 19.4418 3.9574
148 1 -1.1104 12.3217 16.8704 1.10533
150 2 2.2208 11.0573 15.419 2.51612
151 2 2.2208 11.1201 20.9604 2.48571
152 1 -1.1104 12.4018 16.7852 3.88104
153 1 -1.1104 9.51289 13.8885 1.18701
155 1 -1.1104 9.57332 19.5115 1.13976
157 2 2.2208 8.21506 18.1792 2.57143
158 1 -1.1104 9.36477 13.8672 3.91188
159 1 -1.1104 9.54956 19.6215 3.9311
160 2 2.2208 8.15233 15.4439 5.32823
161 2 2.2208 8.24448 20.9343 5.41752
162 1 -1.1104 9.49085 16.7733 1.0772
164 1 -1.1104 9.82563 16.769 3.88275
347 2 2.2208 8.17958 15.3912 -0.257866
484 2 2.2208 10.9201 18.183 -0.398538
143 1 -1.1104 12.2995 14.0019 6.69714
112 1 -1.1104 6.67308 19.5366 6.68609
163 1 -1.1104 9.60616 16.7862 6.78147
322 1 -1.1104 9.7617 13.9017 12.346
170 1 -1.1104 1.13666 -0.0121467 6.76724
174 1 -1.1104 3.93864 -0.0594645 6.87499
173 1 -1.1104 4.05538 2.74729 6.64863
166 1 -1.1104 1.02871 -2.89996 6.62907
367 2 2.2208 5.33154 12.5929 -0.21204
9094 2 2.2208 2.53373 -4.25584 8.0794
172 1 -1.1104 4.03278 -2.80492 6.55576
200 2 2.2208 -0.379313 -1.57465 8.02738
167 1 -1.1104 1.20251 2.6397 6.55565
368 2 2.2208 -0.247665 12.539 -0.224898
199 2 2.2208 -0.222855 3.91882 8.03141
175 2 2.2208 5.35747 1.2923 10.9045
176 1 -1.1104 1.19262 -3.05316 12.3704
177 1 -1.1104 1.12715 2.59381 12.297
180 1 -1.1104 1.13321 -2.92058 9.51424
181 1 -1.1104 1.24711 2.38894 9.46549
184 1 -1.1104 1.05014 -0.158379 12.3454
186 2 2.2208 5.32455 -1.47413 8.04419
187 2 2.2208 5.35619 4.14478 8.24735
188 1 -1.1104 1.19081 -0.256117 9.4965
190 1 -1.1104 3.95367 -2.97942 12.2229
191 1 -1.1104 3.93755 2.76152 12.3241
192 2 2.2208 2.63157 1.23091 8.06925
193 1 -1.1104 3.92007 -2.89332 9.47211
194 1 -1.1104 4.03497 2.59024 9.57973
195 2 2.2208 2.42513 -1.6258 10.8967
196 2 2.2208 2.51489 3.90077 10.9495
197 1 -1.1104 3.94475 -0.202041 12.1707
198 1 -1.1104 3.88614 -0.147638 9.59956
207 1 -1.1104 12.2873 0.0308662 6.73942
206 1 -1.1104 12.4576 2.81207 6.86258
362 2 2.2208 8.14313 4.06743 -0.250437
205 1 -1.1104 12.4167 -2.82052 6.81719
210 1 -1.1104 9.62472 0.0892698 6.81574
208 1 -1.1104 9.69044 -2.87801 6.77424
189 1 -1.1104 6.75947 -0.00574338 9.52131
182 1 -1.1104 6.73844 -2.76329 9.5133
183 1 -1.1104 6.77265 2.76675 9.48533
178 1 -1.1104 6.70102 -2.90466 12.2577
185 1 -1.1104 6.77278 0.0570893 12.2829
179 1 -1.1104 6.74488 2.90674 12.3147
211 2 2.2208 11.0577 1.50648 10.9877
212 1 -1.1104 12.4178 -2.90788 12.3848
213 1 -1.1104 12.2375 2.70092 12.4921
214 1 -1.1104 12.4137 -2.90792 9.60516
215 1 -1.1104 12.4467 2.70113 9.59213
216 1 -1.1104 12.3481 -0.0317963 12.3159
217 2 2.2208 11.0361 -1.33218 8.17224
218 2 2.2208 10.9496 4.18019 8.17118
219 1 -1.1104 12.48 -0.141423 9.45577
220 1 -1.1104 9.48946 -2.79331 12.3777
221 1 -1.1104 9.61387 2.92419 12.4282
222 2 2.2208 8.18257 1.41253 8.0978
223 1 -1.1104 9.56279 -2.68661 9.48062
224 1 -1.1104 9.68812 2.89467 9.57964
225 2 2.2208 8.23485 -1.36384 10.8737
226 2 2.2208 8.22908 4.14266 10.9362
227 1 -1.1104 9.55542 -0.0431928 12.324
228 1 -1.1104 9.62801 0.0700158 9.51297
326 1 -1.1104 12.4117 16.6679 12.4314
239 1 -1.1104 3.92383 5.50022 6.76279
238 1 -1.1104 3.92539 8.34885 6.71797
62 1 -1.1104 1.01534 11.0048 6.82303
234 1 -1.1104 1.12557 8.13818 6.85482
78 1 -1.1104 3.76052 11.0601 6.74431
315 1 -1.1104 9.45033 16.6655 12.5631
51 2 2.2208 -0.293708 12.5779 10.9172
29 2 2.2208 -0.158488 6.88988 10.9927
240 2 2.2208 5.34288 6.93258 10.9967
241 2 2.2208 5.34325 12.651 10.8943
242 1 -1.1104 1.30614 8.30054 12.4318
244 1 -1.1104 1.04193 8.30006 9.50042
246 1 -1.1104 1.2505 5.49573 12.2791
247 1 -1.1104 1.05946 11.1632 12.4328
250 2 2.2208 5.24813 9.81993 8.1546
251 1 -1.1104 1.31003 5.31991 9.53645
252 1 -1.1104 1.10008 11.2015 9.64562
255 1 -1.1104 4.21563 8.22775 12.5112
256 2 2.2208 2.56858 6.98589 8.20961
257 2 2.2208 2.41365 12.4613 8.18495
258 1 -1.1104 3.76613 8.29727 9.57064
259 2 2.2208 2.30949 9.7718 11.0002
260 1 -1.1104 3.9989 5.52707 12.3834
261 1 -1.1104 3.88333 11.0299 12.4069
262 1 -1.1104 3.97047 5.47087 9.52847
263 1 -1.1104 3.81479 11.0747 9.4968
101 1 -1.1104 9.51162 11.1463 6.77688
267 1 -1.1104 9.5663 8.43912 6.79755
65 1 -1.1104 6.64963 11.0543 6.6324
269 1 -1.1104 9.67289 5.63204 6.67115
235 1 -1.1104 6.81168 8.36284 6.81225
266 1 -1.1104 12.3069 5.57387 6.73158
90 1 -1.1104 12.2562 11.1495 6.85795
265 1 -1.1104 12.383 8.33234 6.75787
248 1 -1.1104 6.75201 5.6494 12.4327
249 1 -1.1104 6.78011 11.2879 12.1942
245 1 -1.1104 6.71888 8.44275 9.44871
253 1 -1.1104 6.78417 5.56051 9.62273
254 1 -1.1104 6.80571 10.9596 9.39449
243 1 -1.1104 6.92164 8.40171 12.2566
264 1 -1.1104 9.61985 10.9334 9.6181
268 1 -1.1104 9.58827 5.48055 9.58985
270 1 -1.1104 9.52855 11.1932 12.4933
271 1 -1.1104 9.48938 5.7302 12.2938
272 2 2.2208 8.19379 9.68591 10.9284
273 1 -1.1104 9.6135 8.3387 9.46186
274 2 2.2208 7.97912 12.4539 8.04327
275 2 2.2208 8.22428 7.08688 8.19624
276 2 2.2208 10.8734 6.8898 10.8668
277 2 2.2208 11.0273 12.3657 10.9855
278 1 -1.1104 12.4276 8.15822 12.2539
279 1 -1.1104 12.358 8.16738 9.51295
280 1 -1.1104 12.4606 5.47352 12.3795
281 1 -1.1104 12.3834 10.9961 12.5134
282 2 2.2208 11.1111 9.64081 8.14331
283 1 -1.1104 12.4364 5.44114 9.63078
284 1 -1.1104 12.5194 11.1199 9.67955
285 1 -1.1104 9.64622 8.49717 12.3812
288 1 -1.1104 6.71461 19.4263 9.61913
108 1 -1.1104 1.14299 13.8058 6.74272
313 2 2.2208 -0.124818 15.1749 8.14434
117 1 -1.1104 1.23186 16.7485 6.84929
302 1 -1.1104 1.26784 19.5461 6.74152
133 1 -1.1104 3.99211 16.8439 6.75208
312 2 2.2208 -0.137807 18.1463 10.8478
310 2 2.2208 2.55425 15.3616 10.924
305 1 -1.1104 4.00565 13.8015 9.52006
309 2 2.2208 2.65668 20.9131 11.0316
308 1 -1.1104 3.96292 16.7858 12.374
307 1 -1.1104 1.09984 16.65 12.3683
286 1 -1.1104 4.16151 19.61 12.4154
287 1 -1.1104 3.92161 13.898 12.2779
291 1 -1.1104 1.16707 19.509 9.51168
292 1 -1.1104 1.20775 16.7557 9.56942
293 2 2.2208 5.36177 20.906 8.09851
294 1 -1.1104 1.1036 13.9137 9.73682
295 2 2.2208 5.33778 15.3257 8.19818
298 1 -1.1104 1.24806 19.3909 12.3667
299 1 -1.1104 1.15376 13.8929 12.4649
300 2 2.2208 5.38675 18.1188 10.9298
301 1 -1.1104 3.95303 19.6024 9.56758
303 2 2.2208 2.5301 18.0871 8.14579
304 1 -1.1104 3.93943 16.6242 9.59211
311 2 2.2208 -0.2131 20.9176 8.13769
325 2 2.2208 10.9557 15.3119 8.21262
296 1 -1.1104 6.87629 19.6227 12.4246
328 1 -1.1104 12.4669 13.8989 9.49063
289 1 -1.1104 6.80234 16.7647 9.46116
331 2 2.2208 10.9978 18.1713 10.9969
306 1 -1.1104 6.63321 16.8626 12.3872
317 2 2.2208 8.1779 15.4384 10.988
111 1 -1.1104 6.60046 14.022 6.67831
154 1 -1.1104 9.50358 13.9596 6.7721
149 1 -1.1104 12.4285 16.7685 6.71064
319 1 -1.1104 9.46279 13.9406 9.49857
330 1 -1.1104 12.3962 13.7044 12.296
316 2 2.2208 8.32645 20.9358 11.0316
324 2 2.2208 11.1478 21.1062 8.03182
156 1 -1.1104 9.60315 19.5576 6.7777
320 2 2.2208 8.37108 18.0664 8.24885
290 1 -1.1104 6.79977 13.9308 9.57496
323 1 -1.1104 12.5287 16.7879 9.54577
318 1 -1.1104 9.5295 19.5072 9.70219
297 1 -1.1104 6.7911 14.1213 12.363
321 1 -1.1104 9.63163 19.3676 12.4922
314 1 -1.1104 9.6074 16.6864 9.71316
337 2 2.2208 -0.270576 4.09469 13.5528
348 2 2.2208 5.42867 9.63982 13.7611
696 2 2.2208 2.65289 20.9765 -0.213149
692 2 2.2208 -0.113076 17.996 -0.159596
354 2 2.2208 11.0635 20.9697 13.7823
373 2 2.2208 2.57102 15.4017 -0.1581
375 2 2.2208 5.37481 1.31074 16.6284
376 1 -1.1104 1.14861 -2.81021 18.0064
377 1 -1.1104 1.1584 2.50604 17.8255
380 1 -1.1104 1.14365 -2.94308 15.0328
382 1 -1.1104 1.20228 2.62194 15.0011
388 1 -1.1104 1.18755 -0.167829 17.9065
390 2 2.2208 5.37791 -1.51215 19.2968
392 1 -1.1104 1.19546 -0.180275 15.119
396 1 -1.1104 4.03406 -3.03717 17.8125
397 1 -1.1104 3.8999 2.75563 17.9871
398 2 2.2208 2.60868 1.20714 19.2912
399 1 -1.1104 3.917 -3.00584 15.025
401 1 -1.1104 3.96257 2.69317 15.292
403 2 2.2208 2.69823 -1.43553 16.5119
404 2 2.2208 2.5495 4.01903 16.5695
405 1 -1.1104 4.03751 -0.106613 17.9169
406 1 -1.1104 3.89822 -0.0363366 15.0865
391 2 2.2208 5.38719 4.08527 19.4543
412 2 2.2208 -0.214212 -1.57803 19.3121
9111 2 2.2208 8.05972 -4.23275 13.6287
414 2 2.2208 -0.308824 4.05069 19.3197
411 2 2.2208 -0.202319 1.30372 16.3882
338 2 2.2208 5.23596 -1.50854 13.7426
341 2 2.2208 5.44454 4.1597 13.7701
334 2 2.2208 -0.248046 -1.53264 13.8114
339 2 2.2208 2.54521 1.31504 13.6406
389 1 -1.1104 6.82721 -0.00811558 17.9287
386 1 -1.1104 6.67179 2.68627 15.2458
379 1 -1.1104 6.70007 2.76031 17.9224
378 1 -1.1104 6.84803 -2.93712 17.9939
394 1 -1.1104 6.56968 -0.182084 14.9876
384 1 -1.1104 6.65493 -2.89021 15.124
418 2 2.2208 10.7865 1.43308 16.4989
419 1 -1.1104 12.2705 -2.90128 17.9393
420 1 -1.1104 12.3621 2.7473 17.9018
421 1 -1.1104 12.3613 -2.85402 15.0423
423 1 -1.1104 12.28 2.79973 15.2148
425 1 -1.1104 12.3866 0.0303764 17.9389
426 2 2.2208 10.9682 -1.33507 19.2907
427 2 2.2208 10.9791 4.11981 19.2782
428 1 -1.1104 12.3802 -0.0550939 15.1017
430 1 -1.1104 9.51331 -2.88432 17.8103
431 1 -1.1104 9.51276 2.60982 17.9706
432 2 2.2208 8.21321 1.24285 19.3046
433 1 -1.1104 9.41324 -2.87993 15.0761
435 1 -1.1104 9.41347 2.66276 15.1378
437 2 2.2208 8.13157 -1.47736 16.4713
438 2 2.2208 8.21338 4.23846 16.6066
439 1 -1.1104 9.44428 -0.169724 17.8679
440 1 -1.1104 9.53778 0.0648896 15.1618
547 2 2.2208 2.61386 18.0851 13.8428
342 2 2.2208 8.03455 1.3895 13.8331
343 2 2.2208 10.8266 -1.44284 13.7327
345 2 2.2208 10.9356 4.22024 13.9094
349 2 2.2208 2.52616 12.5716 13.7925
346 2 2.2208 2.57264 6.8983 13.7021
358 2 2.2208 -0.245678 9.93617 13.7805
451 2 2.2208 5.28168 6.91613 16.6273
452 2 2.2208 5.41177 12.6121 16.5326
453 1 -1.1104 1.26561 8.21724 18.0141
455 1 -1.1104 1.22232 8.39875 15.1248
459 1 -1.1104 1.12471 5.43892 17.9044
460 1 -1.1104 1.25151 10.9953 18.2427
463 2 2.2208 5.23967 9.72322 19.3671
464 1 -1.1104 1.14902 5.33503 15.1293
466 1 -1.1104 1.10108 11.1186 15.2465
472 1 -1.1104 4.05098 8.38797 18.0092
473 2 2.2208 2.546 6.85816 19.3321
474 2 2.2208 2.55512 12.4579 19.4463
475 1 -1.1104 4.02558 8.22266 15.127
477 2 2.2208 2.51222 9.80957 16.5212
478 1 -1.1104 4.07389 5.5326 18.0848
479 1 -1.1104 3.95262 11.3403 17.9088
480 1 -1.1104 4.00444 5.47523 15.1564
482 1 -1.1104 3.99362 11.2426 15.2899
609 2 2.2208 -0.307247 9.59445 19.3954
608 2 2.2208 -0.21243 6.77145 16.5234
635 2 2.2208 -0.27931 12.5301 16.5689
9115 2 2.2208 2.46057 -4.30175 13.6849
9166 2 2.2208 8.26505 -4.36825 24.9036
468 1 -1.1104 6.71103 5.4861 15.1158
454 1 -1.1104 6.73834 8.2597 17.9554
457 1 -1.1104 6.86547 8.22268 15.1769
461 1 -1.1104 6.82222 5.48711 18.2343
462 1 -1.1104 6.68075 11.1137 17.9377
470 1 -1.1104 6.90404 11.1289 15.0145
487 2 2.2208 10.9087 6.94989 16.5776
488 2 2.2208 10.8986 12.6017 16.6373
489 1 -1.1104 12.2205 8.31154 18.0742
490 1 -1.1104 12.3652 8.36175 15.2152
492 1 -1.1104 12.4231 5.53079 18.0612
493 1 -1.1104 12.4042 10.9815 18.1066
494 2 2.2208 10.947 9.77406 19.4088
495 1 -1.1104 12.3822 5.51198 15.2616
497 1 -1.1104 12.3444 11.1005 15.3066
499 1 -1.1104 9.50024 8.45511 18.0316
500 2 2.2208 8.12835 6.92123 19.3309
501 2 2.2208 8.14369 12.4802 19.4345
502 1 -1.1104 9.49957 8.35836 15.3248
504 2 2.2208 8.17106 9.77456 16.5793
505 1 -1.1104 9.5785 5.55656 17.7072
506 1 -1.1104 9.63465 11.2446 18.0229
507 1 -1.1104 9.50158 5.50923 15.0476
509 1 -1.1104 9.63532 11.2058 15.292
351 2 2.2208 10.9508 9.79416 13.8725
498 1 -1.1104 12.3403 11.188 20.753
458 1 -1.1104 6.64057 8.34219 20.8102
503 1 -1.1104 9.51759 8.37057 20.6865
350 2 2.2208 8.1106 6.92644 13.8188
9205 2 2.2208 8.11377 -4.32348 19.2621
9170 2 2.2208 5.34524 -4.33838 22.0227
514 2 2.2208 5.42064 18.2455 16.5412
515 1 -1.1104 1.17474 13.8447 18.1017
516 1 -1.1104 1.23315 19.5438 18.0109
519 1 -1.1104 1.1183 13.9384 15.2376
521 1 -1.1104 1.27864 19.4413 15.1859
527 1 -1.1104 1.09772 16.6074 18.0008
529 2 2.2208 5.30886 15.4001 19.338
530 2 2.2208 5.46623 20.8737 19.3795
531 1 -1.1104 1.09097 16.6333 15.1989
535 1 -1.1104 3.99933 14.0536 18.0056
536 1 -1.1104 4.11023 19.7048 17.8101
537 2 2.2208 2.57042 18.0795 19.2707
538 1 -1.1104 3.9144 13.9638 15.0621
540 1 -1.1104 3.93734 19.4291 15.13
542 2 2.2208 2.47661 15.2971 16.605
543 2 2.2208 2.54856 20.9073 16.5277
544 1 -1.1104 3.94658 16.7945 17.8572
545 1 -1.1104 4.03329 16.6573 15.1421
539 1 -1.1104 3.92797 13.9213 20.7913
445 2 2.2208 -0.165805 20.9963 19.4201
444 2 2.2208 -0.1601 15.3094 19.5019
575 2 2.2208 10.8507 15.331 13.7881
9206 2 2.2208 11.0207 -4.27235 16.5902
512 1 -1.1104 12.3214 19.4925 23.3815
541 1 -1.1104 4.04553 19.4639 20.7473
522 1 -1.1104 1.2304 19.5328 20.7505
520 1 -1.1104 1.18931 13.874 20.9493
517 1 -1.1104 6.75631 14.0713 17.9444
533 1 -1.1104 6.65301 16.8939 15.114
528 1 -1.1104 6.73289 16.8819 18.0292
525 1 -1.1104 6.69439 19.7175 15.2876
518 1 -1.1104 6.9041 19.6917 17.9855
523 1 -1.1104 6.69785 13.9768 15.1792
550 2 2.2208 11.083 18.2537 16.551
551 1 -1.1104 12.3147 13.9834 17.9624
552 1 -1.1104 12.5113 19.6713 17.9082
553 1 -1.1104 12.1147 13.8651 15.1331
555 1 -1.1104 12.4269 19.6586 15.1035
557 1 -1.1104 12.3036 16.7863 17.8767
558 2 2.2208 10.9367 15.493 19.3905
559 2 2.2208 11.0054 20.9505 19.2968
560 1 -1.1104 12.3374 16.7698 15.0748
562 1 -1.1104 9.37927 14.0869 17.9397
563 1 -1.1104 9.67276 19.6436 17.9812
564 2 2.2208 8.2032 18.2275 19.3397
565 1 -1.1104 9.40173 14.0873 15.2265
567 1 -1.1104 9.69069 19.5853 15.2113
569 2 2.2208 8.12223 15.395 16.6664
570 2 2.2208 8.20764 21.0503 16.5883
571 1 -1.1104 9.54816 16.8274 17.9547
572 1 -1.1104 9.5632 16.8447 15.246
534 1 -1.1104 6.78939 16.7711 20.7545
561 1 -1.1104 12.3484 16.9728 20.6902
566 1 -1.1104 9.62649 13.8835 20.61
556 1 -1.1104 12.4345 19.5859 20.6331
607 1 -1.1104 9.44325 13.9356 23.5519
576 2 2.2208 8.11401 18.172 13.8436
381 1 -1.1104 1.09024 -3.16682 20.7445
9204 2 2.2208 -0.265333 -4.51176 22.1248
9169 2 2.2208 2.52552 -4.31524 24.9617
393 1 -1.1104 1.19955 -0.162974 20.5926
383 1 -1.1104 1.15239 2.78239 20.8353
402 1 -1.1104 3.92276 2.71321 20.6733
400 1 -1.1104 3.96913 -2.82075 20.6363
407 1 -1.1104 3.97108 -0.0715885 20.7012
578 2 2.2208 5.37393 1.20459 22.0969
579 1 -1.1104 1.20137 -2.97229 23.4996
580 1 -1.1104 1.40972 2.46581 23.5243
583 1 -1.1104 1.08191 -3.04686 26.3241
584 1 -1.1104 1.34556 2.80186 26.2443
587 1 -1.1104 1.03837 -0.292017 23.2568
589 2 2.2208 5.39749 -1.6344 24.9234
590 2 2.2208 5.34927 3.93271 24.9719
591 1 -1.1104 1.07251 -0.12489 26.2335
593 1 -1.1104 3.94307 -2.87334 23.5509
594 1 -1.1104 4.01359 2.60109 23.5013
595 2 2.2208 2.61834 1.15243 24.9143
596 1 -1.1104 3.9252 -2.93907 26.3965
597 1 -1.1104 3.93199 2.4505 26.3798
598 2 2.2208 2.54479 -1.60608 22.0739
599 2 2.2208 2.55587 3.9359 22.1116
600 1 -1.1104 3.82116 -0.221173 23.4977
601 1 -1.1104 3.99257 -0.218364 26.3745
611 2 2.2208 -0.322707 -1.62393 24.8697
613 2 2.2208 -0.17584 3.99835 24.84
612 2 2.2208 -0.243795 1.22085 22.1342
429 1 -1.1104 12.2468 -0.0327152 20.7577
434 1 -1.1104 9.53702 -2.75368 20.5651
581 1 -1.1104 6.80525 -2.95476 23.4407
387 1 -1.1104 6.84898 2.69721 20.798
441 1 -1.1104 9.46243 -0.0745447 20.698
436 1 -1.1104 9.6092 2.81298 20.865
385 1 -1.1104 6.75247 -2.86975 20.8529
586 1 -1.1104 6.7557 2.72298 26.3097
588 1 -1.1104 6.74377 -0.285106 23.4817
582 1 -1.1104 6.75717 2.64566 23.5248
592 1 -1.1104 6.7201 -0.0292816 26.5258
422 1 -1.1104 12.3812 -3.00784 20.6238
424 1 -1.1104 12.3574 2.73763 20.8222
395 1 -1.1104 6.79867 -0.117374 20.685
585 1 -1.1104 6.78402 -2.91578 26.2922
614 2 2.2208 10.8485 1.42589 22.2656
615 1 -1.1104 12.2901 -2.77527 23.4027
616 1 -1.1104 12.407 2.68134 23.4207
617 1 -1.1104 12.3116 -3.05973 26.2585
618 1 -1.1104 12.3912 2.60688 26.3733
619 1 -1.1104 12.2178 -0.117321 23.5807
620 2 2.2208 10.9393 -1.57886 24.8658
621 2 2.2208 11.0379 4.15003 24.8641
622 1 -1.1104 12.5411 -0.157132 26.3546
623 1 -1.1104 9.5489 -3.02981 23.5539
624 1 -1.1104 9.59961 2.6257 23.77
625 2 2.2208 8.17404 1.27281 24.8435
626 1 -1.1104 9.61108 -2.85943 26.3906
627 1 -1.1104 9.59127 2.62057 26.4593
628 2 2.2208 8.22458 -1.56359 22.0948
629 2 2.2208 8.08415 4.16343 22.2298
630 1 -1.1104 9.46801 -0.224257 23.6038
631 1 -1.1104 9.73185 -0.19806 26.3574
9237 2 2.2208 -0.154258 -4.3496 16.5759
481 1 -1.1104 3.93877 5.45548 20.8425
476 1 -1.1104 3.78257 8.27706 20.7654
483 1 -1.1104 3.86834 11.1692 20.9778
671 2 2.2208 -0.221919 9.71071 24.9636
456 1 -1.1104 1.16949 8.29502 20.7675
672 2 2.2208 -0.240541 12.571 22.2828
467 1 -1.1104 1.10749 11.1151 20.8344
465 1 -1.1104 1.18075 5.55976 20.6822
643 2 2.2208 5.35004 6.7499 22.197
644 2 2.2208 5.32885 12.6552 22.1844
645 1 -1.1104 1.22057 8.18511 23.5754
647 1 -1.1104 1.21261 8.28445 26.3676
649 1 -1.1104 1.20869 5.32638 23.5009
650 1 -1.1104 1.02125 11.0803 23.5785
653 2 2.2208 5.34488 9.75641 24.9215
654 1 -1.1104 1.26369 5.6017 26.2482
655 1 -1.1104 1.1738 11.2984 26.4938
658 1 -1.1104 4.04634 8.12967 23.4824
659 2 2.2208 2.69864 6.75509 24.9374
660 2 2.2208 2.48364 12.4747 24.9652
661 1 -1.1104 3.9454 8.26269 26.4024
662 2 2.2208 2.53147 9.70679 22.211
663 1 -1.1104 3.91119 5.23175 23.7268
664 1 -1.1104 3.95523 11.0095 23.7644
665 1 -1.1104 4.11059 5.44123 26.5196
666 1 -1.1104 4.06998 11.162 26.5341
408 2 2.2208 -0.182016 6.8542 22.17
642 2 2.2208 8.13366 15.3461 22.1541
9235 2 2.2208 2.54194 -4.37174 19.2178
508 1 -1.1104 9.48292 5.55764 20.6685
469 1 -1.1104 6.77596 5.52144 20.8862
510 1 -1.1104 9.4358 11.0875 20.7723
496 1 -1.1104 12.3909 5.55666 20.7316
656 1 -1.1104 6.75682 5.40216 26.3543
652 1 -1.1104 6.70125 11.1375 23.4259
646 1 -1.1104 6.82037 8.31507 23.7276
651 1 -1.1104 6.71471 5.6397 23.6564
648 1 -1.1104 6.70905 8.3478 26.4217
657 1 -1.1104 6.77228 11.0863 26.2759
471 1 -1.1104 6.69994 11.0873 20.7481
491 1 -1.1104 12.3583 8.41955 20.7921
674 1 -1.1104 9.60993 11.0717 26.4355
675 1 -1.1104 9.7399 5.57806 26.3631
676 1 -1.1104 9.53442 11.1889 23.621
677 1 -1.1104 9.50913 5.46479 23.537
678 2 2.2208 8.08665 9.75894 22.1451
679 1 -1.1104 9.57304 8.36172 26.333
680 2 2.2208 8.06647 12.5282 25.0517
681 2 2.2208 8.22255 6.90618 25.0052
682 2 2.2208 11.0731 6.91027 22.0281
683 2 2.2208 10.9979 12.5286 22.1715
684 1 -1.1104 12.2861 8.28416 23.6
685 1 -1.1104 12.3304 8.28944 26.251
686 1 -1.1104 12.2152 5.54847 23.3907
687 1 -1.1104 12.28 11.0509 23.6498
688 2 2.2208 10.8732 9.68952 24.8839
689 1 -1.1104 12.4677 5.44803 26.3329
690 1 -1.1104 12.5115 11.0589 26.3922
691 1 -1.1104 9.4986 8.39798 23.5035
546 1 -1.1104 4.02628 16.7376 20.774
673 2 2.2208 -0.140372 20.9386 25.1185
670 2 2.2208 -0.292782 18.1653 22.2463
532 1 -1.1104 1.2277 16.596 20.7809
698 1 -1.1104 4.06766 19.5885 23.6018
700 1 -1.1104 3.9178 13.9317 23.6758
702 1 -1.1104 1.15908 19.5097 26.4516
703 1 -1.1104 1.38811 16.8629 26.5209
704 1 -1.1104 1.1903 13.9969 26.5413
706 2 2.2208 5.44764 20.9113 25.0094
707 2 2.2208 5.46957 15.4114 25.0787
709 1 -1.1104 1.28297 19.4344 23.5512
710 1 -1.1104 1.17621 13.9269 23.785
711 2 2.2208 5.35183 18.0937 22.1449
712 1 -1.1104 3.97001 19.5984 26.4275
713 2 2.2208 2.5797 18.1524 25.1099
714 1 -1.1104 4.19639 16.8337 26.4208
715 1 -1.1104 3.88246 13.8082 26.4285
717 1 -1.1104 1.18687 16.7217 23.7427
718 1 -1.1104 4.03614 16.8328 23.6365
719 2 2.2208 2.66062 20.9567 22.1436
720 2 2.2208 2.60275 15.3552 22.3399
693 2 2.2208 -0.212042 15.367 24.9955
701 1 -1.1104 6.93917 16.7651 26.3934
716 1 -1.1104 6.73991 16.7853 23.5036
667 2 2.2208 8.21677 20.8741 22.1407
632 2 2.2208 8.14052 18.2025 25.0442
548 1 -1.1104 12.3811 19.5334 26.2035
610 1 -1.1104 9.71112 19.6154 23.3177
574 1 -1.1104 12.4411 16.7011 23.4622
526 1 -1.1104 6.75872 19.454 20.6894
524 1 -1.1104 6.70201 13.9435 20.786
568 1 -1.1104 9.53328 19.6072 20.6052
554 1 -1.1104 12.3791 14.0289 20.7897
602 2 2.2208 10.8867 15.2955 24.9334
669 1 -1.1104 9.66466 16.8005 26.3194
668 1 -1.1104 9.54452 16.6425 23.6113
511 1 -1.1104 12.2833 13.9268 23.676
513 1 -1.1104 12.2306 13.9116 26.4715
699 1 -1.1104 6.77701 14.0159 26.3341
634 1 -1.1104 9.52229 13.8665 26.4234
639 1 -1.1104 9.60253 19.4985 26.2329
486 2 2.2208 11.0419 18.1803 22.1181
708 1 -1.1104 6.72103 14.0049 23.501
633 1 -1.1104 6.85582 19.492 26.307
705 1 -1.1104 6.95797 19.6787 23.5807
573 1 -1.1104 9.61649 16.7879 20.8158
604 1 -1.1104 12.2316 16.7117 26.3066
603 2 2.2208 10.9716 21.0098 24.8872
694 2 2.2208 5.42755 18.2211 27.7841
353 2 2.2208 5.44096 20.9812 13.8248
549 2 2.2208 5.29756 15.271 13.8303
366 2 2.2208 2.61169 9.65027 27.6953
352 2 2.2208 8.11599 12.6903 13.7986
485 2 2.2208 8.14929 20.9062 27.671
442 2 2.2208 -0.293054 15.2827 13.6962
721 2 2.2208 5.48134 23.5854 5.27246
722 2 2.2208 5.41773 29.22 5.2865
723 1 -1.1104 1.13955 25.0673 1.19301
724 1 -1.1104 1.31329 25.1429 3.97212
725 1 -1.1104 1.11011 22.3707 1.20333
726 1 -1.1104 1.20931 27.8484 1.04849
727 2 2.2208 5.39148 26.4867 2.53301
728 1 -1.1104 1.2563 22.2837 3.90993
729 1 -1.1104 1.21623 27.7419 3.88605
730 1 -1.1104 3.99432 25.1212 1.09607
731 2 2.2208 2.50788 23.7787 2.54397
732 2 2.2208 2.5957 29.2253 2.53619
733 1 -1.1104 4.04795 24.9952 3.94736
734 2 2.2208 2.63862 26.3182 5.48737
735 1 -1.1104 4.04948 22.2002 1.15694
736 1 -1.1104 4.02144 27.7718 1.11858
737 1 -1.1104 4.11392 22.2085 3.91605
738 1 -1.1104 4.08152 27.781 3.95289
741 2 2.2208 -0.212991 26.5313 2.58037
740 2 2.2208 -0.206288 23.7352 5.42194
739 2 2.2208 -0.251986 29.3776 5.41473
1484 1 -1.1104 12.3099 47.6307 0.912863
865 1 -1.1104 1.11998 27.8337 6.82568
864 1 -1.1104 1.26797 22.4913 6.707
814 2 2.2208 13.6162 34.9772 2.492
869 1 -1.1104 4.07581 22.2269 6.77063
870 1 -1.1104 3.98347 27.9179 6.70207
862 1 -1.1104 1.18524 25.0931 6.88404
1309 2 2.2208 -0.243452 23.6604 -0.275371
744 1 -1.1104 6.76613 22.4335 1.05058
742 1 -1.1104 6.91183 25.1388 0.989257
745 1 -1.1104 6.73165 28.0774 1.11165
746 1 -1.1104 6.92075 22.2376 3.80296
747 1 -1.1104 6.80939 27.8942 3.90843
743 1 -1.1104 6.96689 25.0301 3.86911
748 2 2.2208 10.9648 23.8047 5.34628
749 2 2.2208 10.922 29.5452 5.27338
750 1 -1.1104 12.6233 25.0225 0.977488
751 1 -1.1104 12.4799 25.0578 3.8007
752 1 -1.1104 12.5287 22.3598 1.25035
753 1 -1.1104 12.3438 27.86 1.25665
754 2 2.2208 11.049 26.4704 2.46297
755 1 -1.1104 12.3237 22.1985 3.96947
756 1 -1.1104 12.4536 27.8429 3.91366
757 1 -1.1104 9.80931 25.0436 1.07297
758 2 2.2208 8.30584 23.6214 2.40402
759 2 2.2208 8.17406 29.404 2.57783
760 1 -1.1104 9.67553 25.2351 3.9484
761 2 2.2208 8.16097 26.434 5.41185
762 1 -1.1104 9.62016 22.3396 1.02989
763 1 -1.1104 9.60541 27.9768 1.108
764 1 -1.1104 9.77854 22.4071 3.97295
765 1 -1.1104 9.50429 28.0325 4.05051
895 1 -1.1104 12.4899 25.0447 6.65304
900 1 -1.1104 9.45106 27.8241 6.77757
1011 2 2.2208 -0.294145 46.1056 10.8037
1640 1 -1.1104 3.90013 47.505 6.62524
769 2 2.2208 5.27588 34.9628 5.21042
770 1 -1.1104 1.27104 30.6105 0.985463
771 1 -1.1104 1.20804 36.2209 1.03261
773 1 -1.1104 1.17933 30.6204 3.92613
774 1 -1.1104 1.2214 36.3363 3.76747
776 1 -1.1104 1.1885 33.4698 0.930239
777 2 2.2208 5.33379 32.0545 2.58673
778 2 2.2208 5.45105 37.7389 2.34882
779 1 -1.1104 1.32144 33.392 3.82048
781 1 -1.1104 3.97448 30.6128 1.25147
782 1 -1.1104 3.92612 36.3775 1.00187
783 2 2.2208 2.64635 34.8766 2.46497
784 1 -1.1104 3.95436 30.5799 3.98477
785 1 -1.1104 4.04193 36.3474 3.81352
786 2 2.2208 2.53364 32.0416 5.33715
787 2 2.2208 2.59217 37.707 5.2164
788 1 -1.1104 4.03455 33.5435 1.06877
789 1 -1.1104 3.91209 33.5478 3.75547
792 2 2.2208 -0.0608892 34.9668 5.24355
791 2 2.2208 -0.121358 32.0156 2.45257
923 1 -1.1104 1.25064 33.3542 6.7874
925 1 -1.1104 3.79927 30.7856 6.84837
919 1 -1.1104 1.07219 30.5657 6.75557
988 1 -1.1104 6.67683 39.1845 12.2484
1365 2 2.2208 2.58379 32.0136 -0.268725
1035 2 2.2208 11.0949 46.1995 10.7907
775 1 -1.1104 6.86712 36.3686 3.79037
772 1 -1.1104 6.77269 36.3659 1.2239
794 1 -1.1104 6.78256 30.7423 4.01922
793 1 -1.1104 6.75102 30.7403 1.15576
780 1 -1.1104 6.78291 33.6461 3.83314
795 1 -1.1104 6.64693 33.4806 1.09433
796 2 2.2208 11.0136 34.7972 5.28416
797 1 -1.1104 12.4115 30.7045 1.12603
798 1 -1.1104 12.2494 36.4205 1.06618
799 1 -1.1104 12.4 30.7697 3.96943
800 1 -1.1104 12.3274 36.3798 3.93889
801 1 -1.1104 12.3102 33.5837 1.03217
802 2 2.2208 10.9547 32.108 2.38542
803 2 2.2208 10.8284 37.7201 2.39712
804 1 -1.1104 12.3463 33.4547 3.83615
805 1 -1.1104 9.42661 30.6694 1.10532