ITEM: TIMESTEP
90000
ITEM: NUMBER OF ATOMS
17820
ITEM: BOX BOUNDS pp pp pp
-3.6507105674967538e-01 2.7705071056749077e+01
-4.2499400221593415e+00 3.3232994002215725e+02
-3.5347251511239403e-01 2.7693472515112543e+01
ITEM: ATOMS id type q x y z
1 2 2.2208 5.06155 1.25584 5.09739
2 1 -1.1104 0.765069 -2.98952 0.997329
3 1 -1.1104 0.858944 2.7188 0.898639
6 1 -1.1104 0.789589 -2.68575 3.69478
7 1 -1.1104 0.70731 2.78625 3.79264
10 1 -1.1104 0.784401 -0.287828 1.03042
12 2 2.2208 5.05954 -1.44808 2.46457
13 2 2.2208 5.11443 4.04878 2.35424
14 1 -1.1104 0.805399 0.0620968 3.82604
16 1 -1.1104 3.60338 -3.02321 1.09153
17 1 -1.1104 3.70653 2.65424 1.07916
18 2 2.2208 2.18881 1.22264 2.41955
19 1 -1.1104 3.64801 -2.89478 3.78029
20 1 -1.1104 3.39066 2.71465 3.79047
21 2 2.2208 2.20059 -1.53212 5.18116
23 1 -1.1104 3.58057 -0.065372 1.07225
24 1 -1.1104 3.6914 -0.170988 3.84221
22 2 2.2208 2.27971 4.14554 5.21665
9 1 -1.1104 6.33216 2.7133 3.70709
4 1 -1.1104 6.39464 -2.96061 0.943789
170 1 -1.1104 0.8865 -0.0170003 6.52409
166 1 -1.1104 0.806055 -2.84598 6.54571
174 1 -1.1104 3.67611 -0.205391 6.54318
173 1 -1.1104 3.56696 2.59697 6.53321
172 1 -1.1104 3.63799 -2.99517 6.5137
5 1 -1.1104 6.33183 2.67089 1.03627
8 1 -1.1104 6.39951 -3.04595 3.66574
11 1 -1.1104 6.41233 -0.138619 1.12711
15 1 -1.1104 6.54222 -0.0570444 3.86868
169 1 -1.1104 6.43519 2.5622 6.58467
168 1 -1.1104 6.47091 -3.01067 6.52909
167 1 -1.1104 0.770985 2.77637 6.63945
9093 2 2.2208 13.4263 -4.28033 2.44158
31 2 2.2208 10.6668 1.23027 5.24046
32 1 -1.1104 11.9937 -2.82476 0.805447
33 1 -1.1104 12.2363 2.70433 0.967847
34 1 -1.1104 12.0115 -2.79821 3.65673
35 1 -1.1104 12.0603 2.77169 3.6923
36 1 -1.1104 12.1317 -0.0578228 1.02493
37 2 2.2208 10.6771 -1.48887 2.52475
38 2 2.2208 10.6099 4.13892 2.24242
39 1 -1.1104 12.1809 -0.0179661 3.89893
40 1 -1.1104 9.05802 -2.8641 1.03278
41 1 -1.1104 9.3304 2.64024 0.937003
42 2 2.2208 7.88272 1.25245 2.44793
43 1 -1.1104 9.16728 -3.08293 3.80054
44 1 -1.1104 9.29934 2.54328 3.81112
45 2 2.2208 7.86499 -1.73235 5.05932
46 2 2.2208 7.85177 4.09205 5.16336
47 1 -1.1104 9.3044 -0.0885385 0.950082
48 1 -1.1104 9.24133 -0.139612 3.77388
208 1 -1.1104 9.30693 -3.0849 6.47475
206 1 -1.1104 12.0541 2.72791 6.50901
205 1 -1.1104 12.2383 -2.84466 6.52452
209 1 -1.1104 9.26697 2.63099 6.56059
233 2 2.2208 13.3661 4.16119 5.06505
49 2 2.2208 13.5318 1.37875 2.3607
9091 2 2.2208 7.78621 -4.32132 2.32428
210 1 -1.1104 9.22148 -0.218341 6.54922
207 1 -1.1104 11.9424 -0.0904043 6.59031
50 2 2.2208 13.5325 -1.3028 5.2283
54 2 2.2208 5.01122 6.82715 5.0987
55 2 2.2208 5.05588 12.468 5.16153
56 1 -1.1104 0.833602 8.26134 0.855927
58 1 -1.1104 0.801962 8.39815 3.64908
60 1 -1.1104 0.715086 5.4015 0.886269
61 1 -1.1104 0.827767 11.1056 0.854485
66 2 2.2208 5.21497 9.58593 2.2904
67 1 -1.1104 0.852769 5.55944 3.6453
68 1 -1.1104 0.73145 11.1746 3.63012
71 1 -1.1104 3.81087 8.29458 0.979012
72 2 2.2208 2.32598 6.85889 2.33204
73 2 2.2208 2.24133 12.3588 2.4461
74 1 -1.1104 3.53798 8.32655 3.80895
75 2 2.2208 2.12323 9.67213 5.16092
76 1 -1.1104 3.59617 5.5053 0.909456
77 1 -1.1104 3.52934 11.0506 0.882846
79 1 -1.1104 3.60958 5.57525 3.78383
80 1 -1.1104 3.72988 10.9893 3.77286
69 1 -1.1104 6.2799 5.35491 3.91618
70 1 -1.1104 6.42048 10.9662 3.75037
234 1 -1.1104 0.746336 8.23282 6.47367
62 1 -1.1104 0.858612 11.1519 6.41016
64 1 -1.1104 6.48281 11.134 0.867444
63 1 -1.1104 6.57141 5.37765 0.995672
237 1 -1.1104 6.57929 5.39465 6.63196
235 1 -1.1104 6.56548 8.2274 6.44159
239 1 -1.1104 3.80495 5.46768 6.47359
236 1 -1.1104 0.906923 5.48064 6.61391
238 1 -1.1104 3.72362 8.19548 6.53251
367 2 2.2208 5.0862 12.5061 -0.456027
365 2 2.2208 5.1698 6.76407 -0.414632
57 1 -1.1104 6.45131 8.23424 1.03363
59 1 -1.1104 6.57555 8.15341 3.70921
84 2 2.2208 10.6545 6.85841 5.05099
85 2 2.2208 10.8 12.4927 5.10859
86 1 -1.1104 11.9483 8.34439 0.859962
87 1 -1.1104 12.0535 8.19934 3.69267
88 1 -1.1104 11.962 5.42792 0.862011
89 1 -1.1104 12.0179 11.1863 0.862961
91 2 2.2208 10.5788 9.63974 2.28664
92 1 -1.1104 12.0285 5.50354 3.51768
93 1 -1.1104 12.0031 11.1196 3.80433
94 1 -1.1104 9.31951 8.25706 0.894764
95 2 2.2208 7.84797 6.85332 2.27492
96 2 2.2208 7.96195 12.5558 2.25561
97 1 -1.1104 9.40302 8.34285 3.77884
98 2 2.2208 7.97549 9.61189 5.05478
99 1 -1.1104 9.18885 5.51521 0.948144
100 1 -1.1104 9.30244 11.0149 0.908467
102 1 -1.1104 9.24653 5.53999 3.68678
103 1 -1.1104 9.29515 11.18 3.62581
266 1 -1.1104 12.0557 5.48745 6.56391
265 1 -1.1104 12.1364 8.09651 6.43673
65 1 -1.1104 6.65259 11.1751 6.38787
269 1 -1.1104 9.39064 5.46322 6.52955
232 2 2.2208 13.511 9.71768 5.08977
104 2 2.2208 13.5465 12.591 2.27148
267 1 -1.1104 9.28727 8.18885 6.51911
105 2 2.2208 13.3628 7.00158 2.25674
694 2 2.2208 5.01464 17.9902 -0.510463
106 2 2.2208 5.11713 18.0725 5.03029
107 1 -1.1104 0.932419 13.894 0.989737
109 1 -1.1104 0.762375 19.4158 0.884103
113 1 -1.1104 0.82207 14.0482 3.78767
114 1 -1.1104 0.905488 19.4894 3.67399
116 1 -1.1104 0.805141 16.5932 0.87047
119 2 2.2208 5.1603 15.4017 2.38794
120 2 2.2208 5.12439 20.8352 2.235
121 1 -1.1104 1.00877 16.739 3.75764
123 1 -1.1104 3.80119 13.8014 0.923017
125 1 -1.1104 3.60312 19.397 0.85235
127 2 2.2208 2.17739 18.0751 2.27601
128 1 -1.1104 3.598 13.8412 3.76692
129 1 -1.1104 3.60632 19.4026 3.60582
130 2 2.2208 2.23951 15.2265 5.13119
131 2 2.2208 2.25526 20.877 5.00808
132 1 -1.1104 3.65443 16.591 0.980785
134 1 -1.1104 3.83958 16.5244 3.8822
139 1 -1.1104 6.60273 19.3722 3.71934
302 1 -1.1104 0.927439 19.5282 6.5627
108 1 -1.1104 0.997404 13.8369 6.53806
126 1 -1.1104 3.55636 19.5431 6.39492
117 1 -1.1104 0.975999 16.7172 6.49421
110 1 -1.1104 6.53015 13.9926 0.835771
115 1 -1.1104 6.60368 13.858 3.66786
140 1 -1.1104 6.49215 16.7587 0.962726
118 1 -1.1104 6.58209 16.6582 6.51053
696 2 2.2208 2.48035 20.9271 -0.481603
133 1 -1.1104 3.7065 16.7712 6.58208
373 2 2.2208 2.28073 15.1781 -0.464067
145 1 -1.1104 12.149 19.5555 6.44955
138 1 -1.1104 6.67728 19.4444 0.981626
163 1 -1.1104 9.37593 16.6997 6.51281
122 1 -1.1104 6.55011 16.7016 3.78126
141 2 2.2208 10.7952 18.0356 5.17752
142 1 -1.1104 12.0917 13.9332 0.860212
144 1 -1.1104 12.1919 19.5596 0.91662
146 1 -1.1104 12.2382 14.0699 3.67778
147 1 -1.1104 12.1334 19.4789 3.77832
148 1 -1.1104 12.111 16.7719 0.782519
150 2 2.2208 10.736 15.2841 2.22432
151 2 2.2208 10.7732 20.8812 2.28683
152 1 -1.1104 12.2328 16.7124 3.77091
153 1 -1.1104 9.32956 14.0831 0.887699
155 1 -1.1104 9.4465 19.5095 0.854965
157 2 2.2208 7.93007 17.9694 2.32785
158 1 -1.1104 9.44503 13.8029 3.66995
159 1 -1.1104 9.3362 19.3754 3.71343
160 2 2.2208 8.03569 15.219 5.06538
161 2 2.2208 7.90602 20.9137 5.09726
162 1 -1.1104 9.51419 16.7765 0.864723
164 1 -1.1104 9.28136 16.6015 3.66024
165 2 2.2208 13.5923 18.1211 2.36766
143 1 -1.1104 12.1251 13.9165 6.4559
231 2 2.2208 13.5091 20.927 5.07038
204 2 2.2208 13.5965 15.2878 5.10358
154 1 -1.1104 9.40664 13.9549 6.48684
347 2 2.2208 7.91698 15.3223 -0.447584
175 2 2.2208 5.04585 1.11649 10.7257
176 1 -1.1104 0.903754 -2.97625 12.1101
177 1 -1.1104 0.755291 2.56973 12.219
180 1 -1.1104 0.871574 -2.81604 9.3752
181 1 -1.1104 0.770166 2.70978 9.40079
184 1 -1.1104 0.813097 -0.249864 12.1076
186 2 2.2208 4.96274 -1.62336 7.88873
187 2 2.2208 5.12342 4.01724 8.03467
188 1 -1.1104 0.741445 -0.088229 9.28925
190 1 -1.1104 3.63112 -2.90522 12.304
191 1 -1.1104 3.57455 2.69135 12.1279
192 2 2.2208 2.23679 1.18445 7.93919
193 1 -1.1104 3.65944 -2.89882 9.51121
194 1 -1.1104 3.6199 2.61687 9.25528
195 2 2.2208 2.29828 -1.45241 10.826
196 2 2.2208 2.18841 4.03569 10.7615
197 1 -1.1104 3.55735 -0.0830172 12.2359
198 1 -1.1104 3.55724 -0.174124 9.39677
171 1 -1.1104 6.42488 -0.201054 6.51681
189 1 -1.1104 6.49116 -0.299506 9.38543
178 1 -1.1104 6.41661 -2.87674 12.1113
182 1 -1.1104 6.244 -2.98296 9.19273
341 2 2.2208 5.0132 4.0294 13.4411
339 2 2.2208 2.18718 1.22073 13.6969
183 1 -1.1104 6.48948 2.57223 9.38037
179 1 -1.1104 6.41799 2.57696 12.2807
185 1 -1.1104 6.3909 -0.100205 12.231
338 2 2.2208 5.06838 -1.36542 13.5782
9098 2 2.2208 10.6841 -4.35653 10.6583
230 2 2.2208 13.5157 -1.68882 10.7734
211 2 2.2208 10.7082 1.24403 10.7665
212 1 -1.1104 12.068 -3.03442 12.0307
213 1 -1.1104 11.9951 2.75594 12.1771
214 1 -1.1104 12.0559 -3.00539 9.42414
215 1 -1.1104 11.8886 2.57061 9.31052
216 1 -1.1104 11.987 -0.12508 12.1095
217 2 2.2208 10.739 -1.68348 7.94191
218 2 2.2208 10.6535 4.06101 7.93147
219 1 -1.1104 12.1936 -0.26641 9.41066
220 1 -1.1104 9.21215 -2.8605 12.2097
221 1 -1.1104 9.3236 2.58639 12.1832
222 2 2.2208 7.89791 1.19641 7.96409
223 1 -1.1104 9.24044 -3.00215 9.20024
224 1 -1.1104 9.1938 2.75923 9.36466
225 2 2.2208 7.97534 -1.54031 10.7632
227 1 -1.1104 9.1499 -0.133024 12.0981
228 1 -1.1104 9.35146 -0.176158 9.46884
226 2 2.2208 7.94322 4.13677 10.7891
229 2 2.2208 13.3589 1.24228 8.05453
203 2 2.2208 13.3462 4.00665 10.7681
342 2 2.2208 7.81828 1.22199 13.579
343 2 2.2208 10.6223 -1.40799 13.5557
345 2 2.2208 10.6633 4.08591 13.7848
340 2 2.2208 13.5258 1.40636 13.5099
78 1 -1.1104 3.82937 11.0943 6.47406
240 2 2.2208 5.0854 6.92469 10.6349
241 2 2.2208 5.14879 12.533 10.5466
242 1 -1.1104 0.904545 8.23765 11.9924
244 1 -1.1104 0.828 8.29836 9.13191
246 1 -1.1104 0.87406 5.42239 12.3175
247 1 -1.1104 0.882738 11.2596 11.9317
250 2 2.2208 5.14572 9.60346 7.79973
251 1 -1.1104 0.871357 5.39204 9.35757
252 1 -1.1104 1.01155 11.0961 9.23348
255 1 -1.1104 3.65654 8.39811 11.9785
256 2 2.2208 2.24862 6.85738 7.9487
257 2 2.2208 2.42649 12.5006 7.79193
258 1 -1.1104 3.67642 8.23958 9.27739
259 2 2.2208 2.23326 9.72659 10.6786
260 1 -1.1104 3.72827 5.61755 11.9766
261 1 -1.1104 3.74021 11.1307 11.966
262 1 -1.1104 3.77991 5.43821 9.24475
263 1 -1.1104 3.74716 11.1225 9.06757
248 1 -1.1104 6.45464 5.41218 12.1788
245 1 -1.1104 6.42751 8.17745 9.11099
249 1 -1.1104 6.62549 11.1623 11.9966
243 1 -1.1104 6.34645 8.23983 12.0783
254 1 -1.1104 6.50956 11.097 9.29063
253 1 -1.1104 6.53602 5.35322 9.40642
348 2 2.2208 5.04808 9.78867 13.521
346 2 2.2208 2.25638 6.90181 13.5716
52 2 2.2208 13.428 9.73676 10.7656
53 2 2.2208 13.4754 12.5252 7.89578
202 2 2.2208 13.5778 6.97391 7.90749
101 1 -1.1104 9.39039 11.0975 6.50269
90 1 -1.1104 12.1475 11.0045 6.56376
264 1 -1.1104 9.27969 11.1024 9.36996
268 1 -1.1104 9.30988 5.47394 9.29204
270 1 -1.1104 9.3427 11.0168 12.0181
271 1 -1.1104 9.36451 5.42246 12.1965
272 2 2.2208 7.79164 9.73525 10.6571
273 1 -1.1104 9.33859 8.36053 9.31098
274 2 2.2208 7.90622 12.502 7.92946
275 2 2.2208 7.99539 6.8393 7.9245
276 2 2.2208 10.796 6.89036 10.817
277 2 2.2208 10.6272 12.5016 10.6133
278 1 -1.1104 12.0702 8.42247 12.1914
279 1 -1.1104 12.1356 8.30329 9.11661
280 1 -1.1104 12.0923 5.52886 12.1596
281 1 -1.1104 12.1641 11.3039 12.0943
282 2 2.2208 10.7065 9.74396 7.92578
283 1 -1.1104 12.14 5.5117 9.32208
284 1 -1.1104 12.0701 11.1224 9.37194
285 1 -1.1104 9.04905 8.24522 12.1019
352 2 2.2208 7.80075 12.465 13.3834
350 2 2.2208 7.81918 6.82961 13.5741
636 2 2.2208 13.5115 12.6114 13.3375
336 2 2.2208 13.5614 6.83264 13.6612
351 2 2.2208 10.6098 9.68883 13.5464
124 1 -1.1104 3.89128 13.9141 6.54536
289 1 -1.1104 6.51448 16.6386 9.32907
112 1 -1.1104 6.51551 19.468 6.41427
111 1 -1.1104 6.59204 13.8044 6.53913
296 1 -1.1104 6.35096 19.492 12.149
304 1 -1.1104 3.70835 16.7867 9.27193
310 2 2.2208 2.36919 15.3529 10.6419
305 1 -1.1104 3.80247 14.0087 9.09961
309 2 2.2208 2.24125 20.8978 10.8263
308 1 -1.1104 3.69174 16.6425 12.0794
307 1 -1.1104 0.809495 16.7689 12.1183
286 1 -1.1104 3.6624 19.2939 12.0128
287 1 -1.1104 3.65664 13.8976 11.8727
291 1 -1.1104 0.912009 19.42 9.36783
292 1 -1.1104 0.884048 16.702 9.28508
293 2 2.2208 5.11704 20.9132 7.80276
294 1 -1.1104 0.850829 13.816 9.13789
295 2 2.2208 5.21615 15.3621 7.73798
298 1 -1.1104 0.81066 19.7131 12.1928
299 1 -1.1104 1.00469 14.033 12.0993
300 2 2.2208 5.20176 18.0704 10.7015
301 1 -1.1104 3.6744 19.6356 9.26441
303 2 2.2208 2.34748 18.0764 7.84464
290 1 -1.1104 6.61779 13.8277 9.44636
297 1 -1.1104 6.49084 13.9703 12.2043
306 1 -1.1104 6.70582 16.6324 12.3236
288 1 -1.1104 6.40501 19.4679 9.34956
549 2 2.2208 5.17252 15.351 13.6112
149 1 -1.1104 12.2562 16.7911 6.58981
329 1 -1.1104 12.1113 19.5128 12.0514
333 2 2.2208 13.4882 15.2884 10.7733
28 2 2.2208 13.466 20.8763 10.6861
316 2 2.2208 7.78636 20.8674 10.8912
317 2 2.2208 7.82511 15.1324 10.6698
156 1 -1.1104 9.28419 19.3694 6.34425
577 2 2.2208 13.6461 18.177 13.608
314 1 -1.1104 9.19348 16.597 9.38687
324 2 2.2208 10.7672 20.9313 7.89171
327 1 -1.1104 12.2165 19.5475 9.33175
326 1 -1.1104 12.1231 16.7508 12.2753
354 2 2.2208 10.6592 20.975 13.5622
320 2 2.2208 8.01182 18.0975 7.90994
328 1 -1.1104 12.1314 13.7173 9.24149
323 1 -1.1104 11.9367 16.742 9.41399
330 1 -1.1104 12.2056 13.9556 12.0457
325 2 2.2208 10.7706 15.343 7.89615
318 1 -1.1104 9.33999 19.4889 9.21577
321 1 -1.1104 9.30114 19.6719 12.1673
319 1 -1.1104 9.42917 13.7276 9.24146
315 1 -1.1104 9.37313 16.7383 12.1
322 1 -1.1104 9.27212 13.8175 12.151
331 2 2.2208 10.7481 18.1563 10.7695
576 2 2.2208 7.93106 18.0738 13.5409
375 2 2.2208 5.02057 1.35677 16.3959
376 1 -1.1104 0.750073 -2.94105 17.8721
377 1 -1.1104 0.967677 2.71724 17.561
380 1 -1.1104 0.843865 -2.877 14.8311
382 1 -1.1104 0.764079 2.65978 15.0325
388 1 -1.1104 0.775364 -0.0409325 17.7037
390 2 2.2208 4.99098 -1.55453 19.2332
392 1 -1.1104 0.856253 -0.200916 15.0424
396 1 -1.1104 3.61777 -2.86327 17.9075
397 1 -1.1104 3.59107 2.69804 17.7977
398 2 2.2208 2.31878 1.3536 19.1357
399 1 -1.1104 3.69314 -3.00653 14.9394
401 1 -1.1104 3.67819 2.78656 14.9708
403 2 2.2208 2.28386 -1.46744 16.5598
404 2 2.2208 2.27075 4.17401 16.1658
405 1 -1.1104 3.73177 -0.0788692 17.7427
406 1 -1.1104 3.70036 -0.0554534 15.0928
391 2 2.2208 5.00684 4.17002 19.2435
9236 2 2.2208 5.04979 -4.36818 16.3261
394 1 -1.1104 6.51595 -0.00584165 14.9133
378 1 -1.1104 6.36488 -2.76589 17.8426
385 1 -1.1104 6.38148 -3.07547 20.467
393 1 -1.1104 0.830447 -0.200119 20.597
381 1 -1.1104 0.816622 -2.80026 20.6148
407 1 -1.1104 3.56817 0.0131537 20.6033
383 1 -1.1104 0.861174 2.63528 20.4499
384 1 -1.1104 6.40447 -2.77413 15.0029
389 1 -1.1104 6.55912 0.0149772 17.846
386 1 -1.1104 6.51005 2.747 14.9559
379 1 -1.1104 6.36463 2.68036 17.8167
387 1 -1.1104 6.39054 2.63248 20.7089
402 1 -1.1104 3.70895 2.81597 20.6523
395 1 -1.1104 6.37644 -0.153803 20.5815
418 2 2.2208 10.646 1.32776 16.3991
419 1 -1.1104 12.2192 -2.94907 17.8105
420 1 -1.1104 12.0671 2.63928 17.8354
421 1 -1.1104 12.0138 -2.6503 14.9713
423 1 -1.1104 12.0947 2.86404 15.14
425 1 -1.1104 12.0195 -0.266098 17.6289
426 2 2.2208 10.6166 -1.47558 19.1043
427 2 2.2208 10.7474 4.1295 19.1514
428 1 -1.1104 12.1116 0.00175659 14.8487
430 1 -1.1104 9.29753 -2.86054 17.7378
431 1 -1.1104 9.13929 2.72038 17.7228
432 2 2.2208 7.88405 1.30339 19.1216
433 1 -1.1104 9.19066 -2.87179 15.018
435 1 -1.1104 9.2414 2.54592 14.9893
437 2 2.2208 7.82151 -1.38788 16.3051
438 2 2.2208 7.83274 4.02608 16.3949
439 1 -1.1104 9.29527 -0.0934265 17.7754
440 1 -1.1104 9.31047 -0.0853806 14.7982
446 2 2.2208 13.6292 -1.38597 16.3058
416 2 2.2208 13.5645 4.09862 16.4494
434 1 -1.1104 9.25604 -2.76913 20.587
429 1 -1.1104 12.0093 -0.187987 20.5028
436 1 -1.1104 9.24413 2.7099 20.5598
422 1 -1.1104 12.023 -2.96318 20.4302
9205 2 2.2208 7.81133 -4.42435 19.2199
424 1 -1.1104 12.0825 2.69277 20.5608
415 2 2.2208 13.4404 1.28673 19.2446
451 2 2.2208 5.03306 6.91386 16.3207
452 2 2.2208 5.0445 12.438 16.3242
453 1 -1.1104 0.841174 8.27115 17.6878
455 1 -1.1104 0.862387 8.25799 14.7554
459 1 -1.1104 0.720444 5.56334 17.7452
460 1 -1.1104 0.944929 11.1255 17.585
463 2 2.2208 5.08548 9.76623 19.2111
464 1 -1.1104 0.820361 5.42418 14.9644
466 1 -1.1104 0.902307 11.1692 14.7155
472 1 -1.1104 3.59588 8.24093 17.6349
473 2 2.2208 2.24537 6.89984 19.044
474 2 2.2208 2.19791 12.4931 19.1296
475 1 -1.1104 3.67935 8.43646 14.8248
477 2 2.2208 2.32975 9.72772 16.3285
478 1 -1.1104 3.6452 5.50324 17.5953
479 1 -1.1104 3.63869 10.9445 17.5628
480 1 -1.1104 3.64904 5.53629 14.8198
482 1 -1.1104 3.5365 11.2089 14.8195
462 1 -1.1104 6.47113 11.1336 17.711
454 1 -1.1104 6.43001 8.44069 17.8345
483 1 -1.1104 3.64488 11.0459 20.5211
465 1 -1.1104 0.855792 5.36588 20.4506
461 1 -1.1104 6.35526 5.59824 17.9338
468 1 -1.1104 6.41488 5.45205 15.0409
457 1 -1.1104 6.60887 8.25856 14.9998
470 1 -1.1104 6.46147 11.0338 14.9455
469 1 -1.1104 6.45684 5.4942 20.6962
458 1 -1.1104 6.46843 8.24843 20.5928
476 1 -1.1104 3.59027 8.24813 20.403
456 1 -1.1104 0.828592 8.27714 20.5774
481 1 -1.1104 3.64157 5.68494 20.6121
471 1 -1.1104 6.51565 11.1617 20.5212
349 2 2.2208 2.21731 12.6565 13.3913
638 2 2.2208 13.4546 6.84675 19.2518
487 2 2.2208 10.6157 6.91664 16.4026
488 2 2.2208 10.6738 12.4381 16.2636
489 1 -1.1104 12.0623 8.20462 17.7032
490 1 -1.1104 11.9704 8.33202 14.9976
492 1 -1.1104 12.1265 5.49358 17.8624
493 1 -1.1104 12.0882 10.9346 17.639
494 2 2.2208 10.7923 9.8316 19.038
495 1 -1.1104 12.0315 5.63036 14.9477
497 1 -1.1104 11.9632 11.0774 14.8457
499 1 -1.1104 9.30377 8.24369 17.8523
500 2 2.2208 7.79531 6.83714 19.2426
501 2 2.2208 7.93299 12.4639 18.9992
502 1 -1.1104 9.36821 8.23541 15.0116
504 2 2.2208 7.9005 9.56588 16.3786
505 1 -1.1104 9.38538 5.50534 17.8498
506 1 -1.1104 9.28524 11.0501 17.6868
507 1 -1.1104 9.22751 5.49909 15.0838
509 1 -1.1104 9.19586 10.9993 14.8039
503 1 -1.1104 9.39102 8.16985 20.633
510 1 -1.1104 9.39576 11.2144 20.4566
491 1 -1.1104 12.1126 8.37976 20.3657
508 1 -1.1104 9.2154 5.50188 20.6254
637 2 2.2208 13.5598 12.57 19.196
413 2 2.2208 13.5262 9.78982 16.2236
498 1 -1.1104 12.1712 11.1478 20.4603
496 1 -1.1104 12.0927 5.54544 20.5899
353 2 2.2208 4.996 20.9052 13.5269
547 2 2.2208 2.26997 18.0783 13.5159
514 2 2.2208 5.11212 18.066 16.337
515 1 -1.1104 0.83207 13.8694 17.6517
516 1 -1.1104 1.06064 19.3703 17.752
519 1 -1.1104 0.852265 13.9345 14.8143
521 1 -1.1104 0.946448 19.606 14.9615
527 1 -1.1104 0.795794 16.56 17.7506
529 2 2.2208 5.13157 15.3166 19.1773
530 2 2.2208 5.21686 20.9366 19.2063
531 1 -1.1104 0.893519 16.752 15.1378
535 1 -1.1104 3.62569 13.7842 17.6829
536 1 -1.1104 3.69438 19.5027 17.7903
537 2 2.2208 2.30383 18.0229 19.1448
538 1 -1.1104 3.74339 14.0228 14.793
540 1 -1.1104 3.55972 19.5731 14.9601
542 2 2.2208 2.38677 15.2726 16.3208
543 2 2.2208 2.33484 21.013 16.4279
544 1 -1.1104 3.65284 16.7304 17.9043
545 1 -1.1104 3.65565 16.7137 14.9945
528 1 -1.1104 6.57983 16.6019 17.8199
523 1 -1.1104 6.47301 13.8972 14.8724
518 1 -1.1104 6.53872 19.5189 17.7546
517 1 -1.1104 6.51147 13.9346 17.698
533 1 -1.1104 6.52765 16.6502 15.055
525 1 -1.1104 6.45026 19.4019 14.8747
541 1 -1.1104 3.70011 19.5558 20.6121
520 1 -1.1104 0.798951 13.8386 20.417
550 2 2.2208 10.6563 18.002 16.2654
551 1 -1.1104 12.0532 13.7451 17.536
552 1 -1.1104 12.1141 19.4346 17.6939
553 1 -1.1104 12.1614 13.8235 14.8086
555 1 -1.1104 12.0996 19.6257 14.863
557 1 -1.1104 12.0591 16.5643 17.9026
558 2 2.2208 10.669 15.2592 19.3034
559 2 2.2208 10.7998 20.8783 19.1596
560 1 -1.1104 12.0749 16.8345 14.8573
562 1 -1.1104 9.35246 13.9166 17.7376
563 1 -1.1104 9.39029 19.4464 17.818
564 2 2.2208 7.81638 18.1735 19.108
565 1 -1.1104 9.3412 13.8532 14.8846
567 1 -1.1104 9.19016 19.5241 14.8296
569 2 2.2208 7.90526 15.146 16.25
570 2 2.2208 7.891 20.9163 16.2082
571 1 -1.1104 9.28042 16.7106 17.6031
572 1 -1.1104 9.32411 16.5021 14.8283
566 1 -1.1104 9.24584 14.0633 20.47
561 1 -1.1104 12.244 16.7271 20.4494
568 1 -1.1104 9.35529 19.5617 20.4068
606 2 2.2208 13.4277 15.2921 16.27
447 2 2.2208 13.5509 20.9651 16.3578
573 1 -1.1104 9.32442 16.7572 20.5358
575 2 2.2208 10.7387 15.299 13.4054
400 1 -1.1104 3.56221 -2.74152 20.7534
9170 2 2.2208 4.88021 -4.29865 21.8869
578 2 2.2208 5.09946 1.20943 22.028
579 1 -1.1104 0.765068 -2.94666 23.485
580 1 -1.1104 0.908194 2.68881 23.3832
583 1 -1.1104 0.798847 -2.92102 26.253
584 1 -1.1104 0.742122 2.60982 26.2022
587 1 -1.1104 0.769275 0.000601462 23.3541
589 2 2.2208 5.00148 -1.52492 24.8115
591 1 -1.1104 0.845073 -0.195413 26.0734
593 1 -1.1104 3.69034 -2.86148 23.4521
594 1 -1.1104 3.69782 2.70118 23.4805
595 2 2.2208 2.26806 1.29475 24.7405
596 1 -1.1104 3.57747 -2.88825 26.2737
597 1 -1.1104 3.57774 2.60228 26.1967
598 2 2.2208 2.1817 -1.42199 21.9683
599 2 2.2208 2.27324 4.17422 21.9398
600 1 -1.1104 3.56761 -0.0578899 23.314
601 1 -1.1104 3.61679 -0.238425 26.2643
590 2 2.2208 4.9812 4.11858 24.8673
581 1 -1.1104 6.3139 -2.81085 23.3293
588 1 -1.1104 6.50332 -0.00741918 23.5109
357 2 2.2208 2.19206 4.04349 27.5773
592 1 -1.1104 6.551 0.185341 26.4203
582 1 -1.1104 6.52176 2.61227 23.4771
585 1 -1.1104 6.45399 -2.81894 26.1211
586 1 -1.1104 6.38621 2.9105 26.2806
356 2 2.2208 2.19899 -1.4575 27.6121
355 2 2.2208 5.0377 1.34156 27.7193
9103 2 2.2208 10.657 -4.21536 27.5681
441 1 -1.1104 9.21736 -0.0924292 20.5762
363 2 2.2208 13.3929 -1.32293 27.5283
641 2 2.2208 13.4349 1.28342 24.7507
410 2 2.2208 13.4517 4.13448 22.0137
614 2 2.2208 10.6678 1.15991 22.109
615 1 -1.1104 12.1874 -3.01498 23.2783
616 1 -1.1104 12.0553 2.6804 23.5373
617 1 -1.1104 12.0651 -2.77723 26.1457
618 1 -1.1104 11.9673 2.63889 26.1646
619 1 -1.1104 12.1198 -0.173004 23.3821
620 2 2.2208 10.6336 -1.50042 24.7983
621 2 2.2208 10.5672 3.9254 24.7221
622 1 -1.1104 12.0427 0.048533 26.2568
623 1 -1.1104 9.29107 -2.8718 23.3645
624 1 -1.1104 9.16596 2.67667 23.2826
625 2 2.2208 7.95777 1.35585 24.8223
626 1 -1.1104 9.21391 -2.74266 26.1409
627 1 -1.1104 9.22565 2.57993 26.2219
628 2 2.2208 7.77408 -1.45926 22.0364
629 2 2.2208 7.79885 3.98464 21.9507
630 1 -1.1104 9.19456 -0.110087 23.3304
631 1 -1.1104 9.36635 -0.198863 26.2091
640 2 2.2208 13.5682 -1.57875 21.7795
362 2 2.2208 7.85007 4.03791 27.516
364 2 2.2208 13.4725 4.27651 27.6052
361 2 2.2208 7.73239 -1.52728 27.5583
360 2 2.2208 10.6043 1.3172 27.5952
467 1 -1.1104 0.815231 11.0579 20.444
643 2 2.2208 4.97369 6.83753 21.9921
644 2 2.2208 5.17653 12.6528 21.9595
645 1 -1.1104 0.811029 8.34176 23.2659
647 1 -1.1104 0.886828 8.36053 26.0938
649 1 -1.1104 0.912574 5.44444 23.4052
650 1 -1.1104 0.930972 11.1534 23.2244
653 2 2.2208 5.05943 9.66006 24.8395
654 1 -1.1104 0.942144 5.43456 26.3011
655 1 -1.1104 1.01867 11.047 25.9232
658 1 -1.1104 3.61418 8.32612 23.3817
659 2 2.2208 2.449 6.87137 24.7151
660 2 2.2208 2.30254 12.4971 24.723
661 1 -1.1104 3.64889 8.2969 26.1163
662 2 2.2208 2.26814 9.7145 21.8555
663 1 -1.1104 3.58973 5.52944 23.283
664 1 -1.1104 3.58705 11.0839 23.2879
665 1 -1.1104 3.70577 5.48014 26.2458
666 1 -1.1104 3.80394 11.1802 26.1509
657 1 -1.1104 6.53483 11.1412 26.1919
672 2 2.2208 -0.576377 12.4676 21.951
651 1 -1.1104 6.36998 5.50109 23.5533
648 1 -1.1104 6.47001 8.22612 26.2548
652 1 -1.1104 6.35424 11.0468 23.2706
656 1 -1.1104 6.39872 5.56489 26.1286
366 2 2.2208 2.29452 9.61883 27.531
695 2 2.2208 13.4851 12.4127 24.7302
697 2 2.2208 13.4154 6.8436 24.7936
374 2 2.2208 13.3902 9.6488 27.5125
646 1 -1.1104 6.42097 8.25817 23.3859
674 1 -1.1104 9.43098 11.0142 26.2068
675 1 -1.1104 9.1439 5.49722 26.1427
676 1 -1.1104 9.30161 11.1482 23.3426
677 1 -1.1104 9.31606 5.43217 23.3717
678 2 2.2208 7.79232 9.72541 21.8972
679 1 -1.1104 9.34673 8.29085 26.1695
680 2 2.2208 7.95158 12.5153 24.7362
681 2 2.2208 7.90542 6.88451 24.7054
682 2 2.2208 10.7172 6.77741 21.9391
683 2 2.2208 10.7192 12.4697 21.9379
684 1 -1.1104 12.1362 8.12301 23.2832
685 1 -1.1104 12.1978 8.30587 26.1778
686 1 -1.1104 11.9952 5.40542 23.2671
687 1 -1.1104 12.2129 11.0392 23.3309
688 2 2.2208 10.6761 9.68268 24.6475
689 1 -1.1104 12.0606 5.58872 26.211
690 1 -1.1104 12.1139 11.0786 26.2138
691 1 -1.1104 9.22721 8.24502 23.3179
370 2 2.2208 10.6816 6.93902 27.4966
371 2 2.2208 7.98198 9.71207 27.4812
409 2 2.2208 13.5055 9.70944 21.9425
372 2 2.2208 10.7253 12.5882 27.5068
539 1 -1.1104 3.81613 13.9674 20.5496
522 1 -1.1104 0.863934 19.6314 20.5355
534 1 -1.1104 6.30453 16.8885 20.4919
524 1 -1.1104 6.56565 13.8904 20.4167
532 1 -1.1104 0.857783 16.7563 20.7169
708 1 -1.1104 6.43688 13.9507 23.3091
546 1 -1.1104 3.62452 16.6089 20.64
718 1 -1.1104 3.65681 16.7574 23.4201
720 2 2.2208 2.18609 15.2175 21.8901
719 2 2.2208 2.38795 20.8061 21.8759
698 1 -1.1104 3.7224 19.6259 23.4972
700 1 -1.1104 3.71269 13.974 23.295
702 1 -1.1104 1.0085 19.4092 26.191
703 1 -1.1104 0.822748 16.7423 26.1504
704 1 -1.1104 0.805884 13.7959 26.2657
706 2 2.2208 5.27969 21.0181 24.8277
707 2 2.2208 5.15668 15.3143 24.7925
709 1 -1.1104 0.820318 19.3238 23.4916
710 1 -1.1104 0.815247 13.8391 23.2896
711 2 2.2208 4.9701 18.1266 22.0773
712 1 -1.1104 3.97249 19.5117 26.2473
713 2 2.2208 2.25361 17.9574 24.764
714 1 -1.1104 3.69571 16.5771 26.0657
715 1 -1.1104 3.62912 13.8636 26.1377
717 1 -1.1104 0.817721 16.5289 23.4355
633 1 -1.1104 6.67828 19.3208 26.2991
526 1 -1.1104 6.53185 19.571 20.6629
699 1 -1.1104 6.60755 13.9782 26.0297
716 1 -1.1104 6.55654 16.7168 23.2899
705 1 -1.1104 6.48127 19.4191 23.473
448 2 2.2208 13.5071 18.0539 24.6202
669 1 -1.1104 9.35945 16.6274 26.1983
632 2 2.2208 7.89578 18.096 24.6446
417 2 2.2208 13.5999 15.2548 21.787
604 1 -1.1104 12.2631 16.7348 26.016
556 1 -1.1104 12.1188 19.4564 20.4378
449 2 2.2208 13.5493 20.739 27.5976
450 2 2.2208 13.6292 20.9666 21.9013
513 1 -1.1104 12.0667 13.9366 26.0984
574 1 -1.1104 12.1632 16.7509 23.0574
554 1 -1.1104 12.097 13.984 20.4053
667 2 2.2208 8.03707 20.9447 21.9276
486 2 2.2208 10.76 18.0907 21.8921
701 1 -1.1104 6.51537 16.6842 26.0912
548 1 -1.1104 12.2543 19.4313 26.2415
639 1 -1.1104 9.52318 19.4726 26.0047
607 1 -1.1104 9.28048 13.8671 23.3009
642 2 2.2208 7.93656 15.4248 21.872
668 1 -1.1104 9.33386 16.8025 23.3616
511 1 -1.1104 12.1975 13.7837 23.159
634 1 -1.1104 9.37274 13.8841 26.0809
610 1 -1.1104 9.26996 19.5769 23.3273
512 1 -1.1104 11.9631 19.4574 23.3662
603 2 2.2208 10.7924 20.8663 24.822
602 2 2.2208 10.762 15.3348 24.664
344 2 2.2208 13.5592 15.459 27.4758
485 2 2.2208 8.0483 20.8335 27.5238
484 2 2.2208 10.7626 18.1412 27.4908
721 2 2.2208 5.11034 23.6784 5.05599
722 2 2.2208 5.1903 29.2591 5.17451
723 1 -1.1104 1.02918 25.1224 1.01499
724 1 -1.1104 0.897751 25.1238 3.79541
725 1 -1.1104 1.04425 22.1812 0.876229
726 1 -1.1104 0.926741 28.0616 1.04337
727 2 2.2208 5.16813 26.4114 2.22314
728 1 -1.1104 0.939546 22.2496 3.70831
729 1 -1.1104 0.987382 27.8827 3.98405
730 1 -1.1104 3.80348 24.8866 0.992435
731 2 2.2208 2.36037 23.6309 2.41467
732 2 2.2208 2.26423 29.3819 2.62191
733 1 -1.1104 3.67308 24.8993 3.75312
734 2 2.2208 2.30425 26.4097 5.21981
735 1 -1.1104 3.72373 22.124 0.953456
736 1 -1.1104 3.60901 27.8721 1.0744
737 1 -1.1104 3.74385 22.2785 3.69617
738 1 -1.1104 3.78471 27.8107 3.80232
746 1 -1.1104 6.53171 22.1816 3.66292
870 1 -1.1104 3.70508 27.9301 6.5438
744 1 -1.1104 6.4955 22.0747 0.939235
862 1 -1.1104 0.93586 25.0649 6.64844
869 1 -1.1104 3.6192 22.2784 6.47681
1307 2 2.2208 5.16742 29.4066 -0.333314
742 1 -1.1104 6.43848 25.0445 1.06287
743 1 -1.1104 6.72024 24.9714 3.82431
867 1 -1.1104 6.64961 27.8827 6.39324
865 1 -1.1104 1.01572 27.8706 6.63518
868 1 -1.1104 3.80201 25.1949 6.46111
866 1 -1.1104 6.54675 22.2489 6.29521
747 1 -1.1104 6.56513 27.7549 3.54698
745 1 -1.1104 6.51414 27.8447 0.932154
748 2 2.2208 10.6458 23.6858 5.18746
749 2 2.2208 10.7567 29.2751 5.25019
750 1 -1.1104 12.0673 25.1483 0.973058
751 1 -1.1104 12.2102 25.1003 3.82018
752 1 -1.1104 12.1091 22.3163 1.03499
753 1 -1.1104 12.0908 27.957 1.11359
754 2 2.2208 10.7332 26.4148 2.37572
755 1 -1.1104 12.0749 22.288 3.7642
756 1 -1.1104 12.0608 27.8147 3.83083
757 1 -1.1104 9.1832 24.9317 1.05332
758 2 2.2208 7.92161 23.4681 2.30475
759 2 2.2208 8.04362 29.2969 2.44152
760 1 -1.1104 9.43166 25.1479 3.87864
761 2 2.2208 8.00402 26.5063 5.15605
762 1 -1.1104 9.29876 22.1718 0.943117
763 1 -1.1104 9.35594 27.7284 1.09459
764 1 -1.1104 9.40061 22.2334 3.73486
765 1 -1.1104 9.31837 27.8763 3.82199
897 1 -1.1104 12.1992 27.929 6.66293
898 1 -1.1104 9.36876 25.1276 6.75163
896 1 -1.1104 12.1463 22.4447 6.57894
1341 2 2.2208 10.7298 29.2628 -0.260773
766 2 2.2208 13.4839 23.683 2.42091
768 2 2.2208 13.5116 26.3787 5.22242
769 2 2.2208 5.23772 34.8764 5.28895
770 1 -1.1104 0.90609 30.693 1.09139
771 1 -1.1104 0.984287 36.4251 1.06218
773 1 -1.1104 0.871328 30.7173 3.90982
774 1 -1.1104 1.09918 36.3406 3.83268
776 1 -1.1104 0.832454 33.4595 1.05184
777 2 2.2208 5.16973 32.0797 2.44054
778 2 2.2208 5.32402 37.6662 2.52431
779 1 -1.1104 1.0225 33.4919 3.91698
781 1 -1.1104 3.86138 30.7294 1.22932
782 1 -1.1104 3.65784 36.2367 0.945726
783 2 2.2208 2.23737 34.9309 2.42118
784 1 -1.1104 3.84894 30.5314 3.87949
785 1 -1.1104 3.78337 36.2046 3.79788
786 2 2.2208 2.48136 32.0774 5.19628
787 2 2.2208 2.55691 37.7497 5.16389
788 1 -1.1104 3.75422 33.5473 1.00314
789 1 -1.1104 3.87505 33.3957 3.84283
919 1 -1.1104 1.00354 30.764 6.64344
795 1 -1.1104 6.57198 33.7376 1.02048
794 1 -1.1104 6.6651 30.6792 3.80378
927 1 -1.1104 3.76626 33.6635 6.74125
772 1 -1.1104 6.54162 36.4305 1.15029
925 1 -1.1104 3.91926 30.7449 6.59721
926 1 -1.1104 3.95493 36.4223 6.65031
775 1 -1.1104 6.49664 36.3584 4.02489
793 1 -1.1104 6.76238 30.8021 1.01883
924 1 -1.1104 6.43961 33.6566 6.63952
792 2 2.2208 -0.467807 34.8916 5.23789
1365 2 2.2208 2.3374 32.14 -0.288277
790 2 2.2208 -0.351094 37.7523 2.43019
1084 2 2.2208 5.25086 34.9554 -0.373225
780 1 -1.1104 6.55499 33.5765 3.8537
1089 2 2.2208 7.97734 32.1805 -0.32368
1039 2 2.2208 13.7028 32.1318 5.28505
796 2 2.2208 10.7976 34.9962 5.0799
797 1 -1.1104 12.112 30.6714 1.02227
798 1 -1.1104 12.2121 36.3187 1.10812
799 1 -1.1104 12.3302 30.6061 3.65436
800 1 -1.1104 12.2228 36.3683 3.87414
801 1 -1.1104 12.228 33.5422 1.04345
802 2 2.2208 10.8272 32.0914 2.4816
803 2 2.2208 10.8745 37.8425 2.45829
804 1 -1.1104 12.239 33.4593 3.77084
805 1 -1.1104 9.40735 30.6601 1.06638
806 1 -1.1104 9.39316 36.3861 1.09971
807 2 2.2208 8.03019 34.9754 2.43952
808 1 -1.1104 9.52951 30.7239 3.88594
809 1 -1.1104 9.34347 36.3917 3.92707
810 2 2.2208 7.9683 32.2023 5.21741
811 2 2.2208 8.06574 37.7031 5.26567
812 1 -1.1104 9.33781 33.5106 0.978711
813 1 -1.1104 9.37987 33.6173 3.84445