ITEM: TIMESTEP
10000
ITEM: NUMBER OF ATOMS
17820
ITEM: BOX BOUNDS pp pp pp
-3.5508926975867167e-01 2.7695089269758494e+01
-4.3042555284744113e+00 3.3238425552847076e+02
-3.5753446503597286e-01 2.7697534465036309e+01
ITEM: ATOMS id type q x y z
1 2 2.2208 5.20982 1.35249 5.14246
2 1 -1.1104 0.835676 -2.80244 0.861187
3 1 -1.1104 0.920249 2.82942 0.977206
6 1 -1.1104 0.907995 -2.94158 3.71027
7 1 -1.1104 0.822846 2.62661 3.72907
10 1 -1.1104 1.05804 -0.0220739 0.926703
12 2 2.2208 5.22618 -1.38721 2.21908
13 2 2.2208 5.07869 4.22854 2.42548
14 1 -1.1104 1.09066 -0.196006 3.82568
16 1 -1.1104 3.72173 -2.81394 0.883279
17 1 -1.1104 3.74414 2.75569 0.995767
18 2 2.2208 2.29354 1.27797 2.40525
19 1 -1.1104 3.85311 -2.9041 3.85826
20 1 -1.1104 3.77361 2.74725 3.77389
21 2 2.2208 2.48193 -1.48109 5.20556
22 2 2.2208 2.19761 4.07902 5.16974
23 1 -1.1104 3.71427 -0.0337007 0.910668
24 1 -1.1104 3.90681 -0.0846867 3.71555
4 1 -1.1104 6.4983 -2.87085 0.781613
9 1 -1.1104 6.48345 2.73947 3.83932
11 1 -1.1104 6.62671 -0.133468 0.896329
8 1 -1.1104 6.73619 -2.73362 3.67169
171 1 -1.1104 6.51386 -0.208501 6.55693
174 1 -1.1104 3.81565 -0.00640837 6.48558
167 1 -1.1104 0.868872 2.70076 6.51073
173 1 -1.1104 3.65173 2.7424 6.60799
170 1 -1.1104 1.01681 -0.215163 6.46126
172 1 -1.1104 3.90349 -2.82638 6.55615
168 1 -1.1104 6.55559 -3.06846 6.55973
52 2 2.2208 13.4749 9.76725 10.7522
5 1 -1.1104 6.57582 2.59229 1.06316
15 1 -1.1104 6.60263 -0.0226371 3.80466
31 2 2.2208 10.7038 1.32421 5.21537
32 1 -1.1104 12.1284 -2.82353 0.956237
33 1 -1.1104 12.117 2.75165 0.97548
34 1 -1.1104 12.0673 -2.8687 3.85711
35 1 -1.1104 12.03 2.73266 3.71645
36 1 -1.1104 12.1721 0.00336865 0.750184
37 2 2.2208 10.663 -1.40822 2.3892
38 2 2.2208 10.7355 4.1995 2.28959
39 1 -1.1104 12.2186 -0.0292409 3.747
40 1 -1.1104 9.34557 -2.90957 0.828347
41 1 -1.1104 9.31807 2.71127 0.952968
42 2 2.2208 7.96034 1.29197 2.43353
43 1 -1.1104 9.32475 -2.81853 3.72228
44 1 -1.1104 9.27647 2.74898 3.82935
45 2 2.2208 7.88337 -1.40481 5.17236
46 2 2.2208 7.9479 4.17159 5.19331
47 1 -1.1104 9.50727 -0.0100782 1.08974
48 1 -1.1104 9.37656 0.0198818 3.83026
233 2 2.2208 13.5509 4.19812 4.9589
205 1 -1.1104 12.1494 -2.79745 6.43401
210 1 -1.1104 9.51547 0.0597755 6.62118
209 1 -1.1104 9.47163 2.77014 6.65782
206 1 -1.1104 12.2138 2.73882 6.41258
207 1 -1.1104 12.1734 -0.0818147 6.49758
208 1 -1.1104 9.29606 -2.76677 6.54722
169 1 -1.1104 6.56295 2.66083 6.52922
49 2 2.2208 13.4283 1.42317 2.31899
50 2 2.2208 13.5153 -1.32794 5.01086
339 2 2.2208 2.30761 1.43634 13.3945
54 2 2.2208 5.20082 6.927 5.21078
55 2 2.2208 5.14883 12.5442 5.27358
56 1 -1.1104 0.798125 8.48371 0.894752
58 1 -1.1104 0.978204 8.39378 3.66928
60 1 -1.1104 0.890849 5.54917 1.03679
61 1 -1.1104 0.876973 11.1996 1.01121
66 2 2.2208 5.11262 9.76973 2.42731
67 1 -1.1104 0.89172 5.51433 3.83034
68 1 -1.1104 1.028 11.2433 3.87516
71 1 -1.1104 3.85973 8.31857 1.0114
72 2 2.2208 2.2899 6.83243 2.32836
73 2 2.2208 2.38102 12.5366 2.42429
74 1 -1.1104 3.73841 8.36521 3.75849
75 2 2.2208 2.3372 9.65342 5.31592
76 1 -1.1104 3.65953 5.55669 0.912145
77 1 -1.1104 3.76787 11.0849 0.859382
79 1 -1.1104 3.80394 5.57917 3.6495
80 1 -1.1104 3.78178 11.0745 3.82911
69 1 -1.1104 6.63457 5.54167 3.70695
70 1 -1.1104 6.43976 11.2197 3.92735
63 1 -1.1104 6.50626 5.36618 0.913643
64 1 -1.1104 6.41218 11.172 1.05717
78 1 -1.1104 3.65297 11.1335 6.68438
238 1 -1.1104 3.65216 8.28671 6.67064
236 1 -1.1104 0.889463 5.56752 6.57191
28 2 2.2208 13.6699 20.9358 10.8643
29 2 2.2208 -0.52074 6.78946 10.5836
57 1 -1.1104 6.48674 8.3748 1.11136
59 1 -1.1104 6.4464 8.39003 3.8701
84 2 2.2208 10.7583 6.98452 5.04474
85 2 2.2208 10.8377 12.6195 5.09137
86 1 -1.1104 12.1373 8.44177 0.92958
87 1 -1.1104 12.0256 8.38935 3.71941
88 1 -1.1104 12.2486 5.5439 0.876026
89 1 -1.1104 12.1452 11.2872 0.874462
91 2 2.2208 10.698 9.72637 2.32757
92 1 -1.1104 12.2697 5.64819 3.67522
93 1 -1.1104 12.0239 11.1641 3.69044
94 1 -1.1104 9.1135 8.34827 0.911568
95 2 2.2208 7.90303 6.93469 2.33826
96 2 2.2208 7.88389 12.4954 2.40601
97 1 -1.1104 9.27516 8.44448 3.65509
98 2 2.2208 7.80838 9.70245 5.14027
99 1 -1.1104 9.37649 5.58974 0.944633
100 1 -1.1104 9.30178 11.2642 1.03899
102 1 -1.1104 9.32532 5.51656 3.98355
103 1 -1.1104 9.28339 11.238 3.74193
237 1 -1.1104 6.54976 5.5712 6.63534
235 1 -1.1104 6.4114 8.21155 6.6805
101 1 -1.1104 9.32597 11.2181 6.55217
90 1 -1.1104 12.0972 11.1048 6.47334
266 1 -1.1104 12.2038 5.52362 6.45222
267 1 -1.1104 9.21752 8.35674 6.41011
265 1 -1.1104 12.0453 8.26111 6.5688
65 1 -1.1104 6.45206 10.9803 6.67265
269 1 -1.1104 9.38957 5.6328 6.63588
232 2 2.2208 13.4632 9.66565 5.1865
332 2 2.2208 13.5938 18.1331 7.91597
106 2 2.2208 5.17853 18.0711 5.19423
107 1 -1.1104 0.923877 13.9697 1.00022
109 1 -1.1104 0.896933 19.6475 0.916549
113 1 -1.1104 0.929285 13.9216 3.78705
114 1 -1.1104 1.09472 19.4747 3.78768
116 1 -1.1104 1.07081 16.8436 0.887773
119 2 2.2208 5.15964 15.437 2.30604
120 2 2.2208 5.27653 20.983 2.56481
121 1 -1.1104 0.973733 16.7642 3.69314
123 1 -1.1104 3.86943 13.8903 0.972702
125 1 -1.1104 3.68403 19.5011 0.943006
127 2 2.2208 2.29881 18.1508 2.42586
128 1 -1.1104 3.64327 13.9904 3.79363
129 1 -1.1104 3.87293 19.5049 3.79377
130 2 2.2208 2.31655 15.3803 5.18968
131 2 2.2208 2.31737 20.9536 5.1595
132 1 -1.1104 3.72285 16.7887 0.930339
134 1 -1.1104 3.74417 16.7874 3.74645
122 1 -1.1104 6.64976 16.733 3.8175
139 1 -1.1104 6.58626 19.4879 3.89873
140 1 -1.1104 6.49425 16.7214 0.982074
117 1 -1.1104 1.07265 16.958 6.58701
302 1 -1.1104 0.911099 19.5694 6.50034
108 1 -1.1104 0.959062 14.1255 6.68012
112 1 -1.1104 6.7766 19.7533 6.81936
118 1 -1.1104 6.67198 16.8348 6.6117
289 1 -1.1104 6.61724 16.839 9.4593
145 1 -1.1104 12.1831 19.6396 6.58931
163 1 -1.1104 9.39511 16.8879 6.60305
154 1 -1.1104 9.3237 13.9858 6.63645
115 1 -1.1104 6.55921 14.0318 3.68598
138 1 -1.1104 6.46296 19.5337 0.990259
111 1 -1.1104 6.5888 13.9709 6.4405
110 1 -1.1104 6.75784 13.9566 0.953185
141 2 2.2208 10.9034 18.1111 5.22718
142 1 -1.1104 12.0985 14.0621 1.11942
144 1 -1.1104 12.1986 19.5425 1.07111
146 1 -1.1104 12.4084 14.0306 3.82904
147 1 -1.1104 12.1602 19.4902 3.79665
148 1 -1.1104 12.1012 16.7802 0.982974
150 2 2.2208 10.7642 15.3901 2.35718
151 2 2.2208 10.7967 21.0761 2.4383
152 1 -1.1104 12.2178 16.8177 3.86808
153 1 -1.1104 9.4249 14.0849 0.927775
155 1 -1.1104 9.28797 19.7548 1.09281
157 2 2.2208 7.83831 18.1632 2.38753
158 1 -1.1104 9.44762 14.0907 3.87451
159 1 -1.1104 9.43539 19.8673 3.83189
160 2 2.2208 8.01103 15.3807 5.16512
161 2 2.2208 8.10004 21.0089 5.24067
162 1 -1.1104 9.31153 16.8693 1.12224
164 1 -1.1104 9.52491 16.8401 3.90036
149 1 -1.1104 12.1674 16.6996 6.78182
231 2 2.2208 13.6727 21.0854 5.09647
165 2 2.2208 13.5708 18.1737 2.37259
9095 2 2.2208 5.21252 -4.20782 10.8488
9094 2 2.2208 2.35061 -4.28484 8.08395
315 1 -1.1104 9.27528 16.7353 12.2745
166 1 -1.1104 0.945961 -3.0548 6.52534
175 2 2.2208 5.1938 1.48182 10.6868
176 1 -1.1104 0.916998 -2.84803 12.121
177 1 -1.1104 0.894014 2.73282 11.9847
180 1 -1.1104 1.00928 -2.77323 9.45182
181 1 -1.1104 0.907238 2.69485 9.23104
184 1 -1.1104 1.03149 -0.14527 12.0759
186 2 2.2208 5.16107 -1.5352 8.02452
187 2 2.2208 5.15633 4.14714 7.956
188 1 -1.1104 0.932835 -0.159122 9.18082
190 1 -1.1104 3.71696 -2.88212 12.0595
191 1 -1.1104 3.76855 2.82834 12.2145
192 2 2.2208 2.37592 1.30154 7.86419
193 1 -1.1104 3.89376 -2.8711 9.38628
194 1 -1.1104 3.81553 2.77635 9.2783
195 2 2.2208 2.41067 -1.37401 10.7543
196 2 2.2208 2.34303 4.15196 10.5855
197 1 -1.1104 3.82648 0.172306 12.0979
198 1 -1.1104 3.7685 -0.00168786 9.38586
183 1 -1.1104 6.55356 2.70686 9.23679
182 1 -1.1104 6.59733 -2.84827 9.42752
185 1 -1.1104 6.6584 -0.125206 12.1132
178 1 -1.1104 6.59441 -2.7908 12.2226
189 1 -1.1104 6.55647 -0.115329 9.38864
9092 2 2.2208 10.6332 -4.17942 5.14041
83 2 2.2208 -0.397663 12.4915 5.22791
338 2 2.2208 5.09455 -1.39962 13.5344
329 1 -1.1104 12.1329 19.6097 12.1957
316 2 2.2208 8.10591 21.0096 10.7849
319 1 -1.1104 9.18647 14.0517 9.43196
203 2 2.2208 13.5262 4.05 10.7555
314 1 -1.1104 9.3722 16.7614 9.31903
179 1 -1.1104 6.48116 2.82446 12.0974
211 2 2.2208 10.691 1.20706 10.8218
212 1 -1.1104 12.0421 -2.95727 12.0013
213 1 -1.1104 12.0527 2.60269 12.3222
214 1 -1.1104 12.1013 -2.91843 9.27535
215 1 -1.1104 12.1874 2.65192 9.34978
216 1 -1.1104 12.1236 -0.130472 12.1866
217 2 2.2208 10.8593 -1.56516 7.99851
218 2 2.2208 10.8364 4.07254 7.97705
219 1 -1.1104 12.1782 -0.193146 9.29604
220 1 -1.1104 9.39128 -2.86532 12.1391
221 1 -1.1104 9.2426 2.60936 12.0805
222 2 2.2208 8.03316 1.31052 7.93666
223 1 -1.1104 9.36325 -3.07882 9.31483
224 1 -1.1104 9.42364 2.61267 9.40362
225 2 2.2208 8.04196 -1.5896 10.7601
226 2 2.2208 7.82224 4.16246 10.8944
227 1 -1.1104 9.49543 -0.252711 12.1235
228 1 -1.1104 9.54827 -0.272101 9.33981
345 2 2.2208 10.8165 4.13709 13.6139
340 2 2.2208 13.526 1.25254 13.5751
229 2 2.2208 13.6122 1.2733 7.86215
9093 2 2.2208 13.5534 -4.19971 2.43493
342 2 2.2208 7.91334 1.28278 13.4758
343 2 2.2208 10.7651 -1.60794 13.5333
9111 2 2.2208 7.95647 -4.30176 13.5182
348 2 2.2208 5.13956 9.75355 13.4979
234 1 -1.1104 0.866385 8.29721 6.51038
239 1 -1.1104 3.72506 5.56054 6.50944
62 1 -1.1104 0.880437 11.0785 6.65615
240 2 2.2208 5.17713 6.96071 10.7673
241 2 2.2208 5.08734 12.5469 10.7856
242 1 -1.1104 0.974716 8.15856 12.2087
244 1 -1.1104 0.877924 8.29132 9.30819
246 1 -1.1104 0.890773 5.41616 12.0987
247 1 -1.1104 0.756879 10.8104 12.1287
250 2 2.2208 4.99243 9.77956 8.05542
251 1 -1.1104 0.866977 5.50009 9.18809
252 1 -1.1104 0.877404 11.1304 9.35863
255 1 -1.1104 3.929 8.5163 11.9881
256 2 2.2208 2.33051 6.9835 8.04174
257 2 2.2208 2.23636 12.5592 7.92474
258 1 -1.1104 3.64599 8.22087 9.35859
259 2 2.2208 2.29356 9.75124 10.7043
260 1 -1.1104 3.62607 5.61906 12.0325
261 1 -1.1104 3.73411 11.2563 12.1715
262 1 -1.1104 3.89466 5.52002 9.24806
263 1 -1.1104 3.67116 11.221 9.39683
254 1 -1.1104 6.45652 11.1186 9.50668
245 1 -1.1104 6.64983 8.20868 9.54246
243 1 -1.1104 6.62021 8.26082 12.2578
253 1 -1.1104 6.46014 5.41254 9.41964
248 1 -1.1104 6.38826 5.53969 12.3245
9089 2 2.2208 5.1881 -4.29068 5.19331
346 2 2.2208 2.34809 6.80559 13.5473
352 2 2.2208 7.94424 12.5026 13.4788
249 1 -1.1104 6.48186 11.1527 12.1191
264 1 -1.1104 9.26517 11.1543 9.31526
268 1 -1.1104 9.37754 5.38525 9.36167
270 1 -1.1104 9.333 11.1109 12.0431
271 1 -1.1104 9.38101 5.39619 12.3081
272 2 2.2208 7.94176 9.70166 10.6693
273 1 -1.1104 9.47369 8.33384 9.20893
274 2 2.2208 7.99128 12.5548 8.00005
275 2 2.2208 8.00283 6.94188 7.91399
276 2 2.2208 10.7765 6.9091 10.8006
277 2 2.2208 10.704 12.6935 10.7994
278 1 -1.1104 12.1004 8.30766 12.2932
279 1 -1.1104 12.3187 8.19969 9.47899
280 1 -1.1104 12.2509 5.50965 12.221
281 1 -1.1104 12.0451 11.282 12.1672
282 2 2.2208 10.7055 9.79156 7.96663
283 1 -1.1104 12.2056 5.45056 9.3991
284 1 -1.1104 12.0252 11.2395 9.12712
285 1 -1.1104 9.27755 8.1951 12.002
202 2 2.2208 13.528 6.83092 7.97744
351 2 2.2208 10.7448 9.80364 13.5489
53 2 2.2208 13.5373 12.5954 7.90272
9088 2 2.2208 2.40235 -4.25969 2.42772
331 2 2.2208 10.7484 18.2495 10.7985
330 1 -1.1104 12.1138 13.9123 12.1973
326 1 -1.1104 12.0971 16.7111 12.2672
297 1 -1.1104 6.47654 14.0254 12.1894
126 1 -1.1104 3.82812 19.5299 6.60553
124 1 -1.1104 3.66279 13.9575 6.54566
296 1 -1.1104 6.58464 19.5929 12.3486
133 1 -1.1104 3.82451 16.739 6.55085
310 2 2.2208 2.33128 15.2448 10.7147
305 1 -1.1104 3.70942 13.9699 9.3856
309 2 2.2208 2.35001 20.8853 10.9025
308 1 -1.1104 3.88714 16.6339 12.1012
307 1 -1.1104 1.09011 16.6541 12.2147
286 1 -1.1104 3.84035 19.506 12.1886
287 1 -1.1104 3.61353 13.9903 12.1754
291 1 -1.1104 0.836736 19.7024 9.32566
292 1 -1.1104 0.912492 16.7344 9.40048
293 2 2.2208 5.18962 20.9843 8.04076
294 1 -1.1104 0.826924 13.8586 9.42525
295 2 2.2208 5.15056 15.4075 7.94721
298 1 -1.1104 1.0205 19.572 12.2392
299 1 -1.1104 0.825014 13.7882 12.1672
300 2 2.2208 5.20069 18.1562 10.8628
301 1 -1.1104 3.68083 19.5543 9.42525
303 2 2.2208 2.37223 18.1645 7.97825
304 1 -1.1104 3.79084 16.7372 9.35003
290 1 -1.1104 6.53278 13.9132 9.44552
306 1 -1.1104 6.62814 16.7922 12.3002
576 2 2.2208 7.8858 18.2125 13.6488
333 2 2.2208 13.4849 15.4165 10.7411
323 1 -1.1104 12.0683 16.8353 9.49143
320 2 2.2208 8.05139 18.2239 8.05373
321 1 -1.1104 9.38409 19.5463 12.1405
288 1 -1.1104 6.48167 19.5443 9.60647
324 2 2.2208 10.8762 21.0216 7.93856
156 1 -1.1104 9.56906 19.6113 6.67282
325 2 2.2208 10.7444 15.4371 7.96425
322 1 -1.1104 9.19171 13.886 12.1613
327 1 -1.1104 12.2562 19.4647 9.32837
328 1 -1.1104 12.1142 14.0654 9.42603
317 2 2.2208 7.88135 15.3454 10.7769
143 1 -1.1104 12.1819 13.9231 6.62421
318 1 -1.1104 9.28807 19.5374 9.35749
549 2 2.2208 5.1598 15.3191 13.5742
353 2 2.2208 5.20392 20.9395 13.5526
575 2 2.2208 10.6924 15.4113 13.6319
354 2 2.2208 10.8916 20.9564 13.5884
547 2 2.2208 2.37667 18.0523 13.6652
350 2 2.2208 7.9915 7.00348 13.6543
366 2 2.2208 2.35188 9.7725 -0.411508
577 2 2.2208 13.4451 18.1052 13.6271
372 2 2.2208 10.6722 12.5029 -0.32908
373 2 2.2208 2.31905 15.5213 -0.422162
696 2 2.2208 2.52041 21.1009 -0.494542
375 2 2.2208 5.17704 1.31727 16.2977
376 1 -1.1104 0.906138 -2.88638 17.7511
377 1 -1.1104 0.978065 2.68662 17.6878
380 1 -1.1104 0.955679 -2.9306 15.0541
382 1 -1.1104 0.999601 2.72129 14.8846
388 1 -1.1104 0.908246 -0.0334145 17.6739
390 2 2.2208 5.17259 -1.49237 19.1483
392 1 -1.1104 1.03487 -0.076425 14.7869
396 1 -1.1104 3.70757 -2.83264 17.7949
397 1 -1.1104 3.7813 2.85702 17.8037
398 2 2.2208 2.2607 1.31602 19.1127
399 1 -1.1104 3.73155 -2.88349 14.8715
401 1 -1.1104 3.76583 2.66341 15.015
403 2 2.2208 2.3599 -1.53234 16.4314
404 2 2.2208 2.37169 3.90828 16.3077
405 1 -1.1104 3.56834 -0.114318 17.7645
406 1 -1.1104 3.75506 -0.018819 14.9048
386 1 -1.1104 6.59471 2.74889 14.8456
391 2 2.2208 5.18024 4.16132 19.3142
383 1 -1.1104 0.864642 2.78457 20.6232
379 1 -1.1104 6.62309 2.65205 17.8331
378 1 -1.1104 6.53434 -3.05461 17.7336
384 1 -1.1104 6.52397 -2.78496 14.8207
394 1 -1.1104 6.50724 -0.0103736 15.0149
9205 2 2.2208 7.97667 -4.30358 19.1153
389 1 -1.1104 6.43446 -0.275039 17.741
381 1 -1.1104 0.86303 -2.92602 20.4968
697 2 2.2208 13.4955 6.98816 24.6972
407 1 -1.1104 3.53555 -0.119548 20.664
393 1 -1.1104 0.761786 -0.0649343 20.4175
9207 2 2.2208 13.6373 -4.3416 19.0487
9206 2 2.2208 10.7389 -4.40742 16.3163
418 2 2.2208 10.7275 1.08331 16.2809
419 1 -1.1104 12.1828 -3.05328 17.7582
420 1 -1.1104 12.1362 2.61094 17.6033
421 1 -1.1104 12.1196 -2.94643 14.9807
423 1 -1.1104 12.2086 2.67534 14.9749
425 1 -1.1104 12.1963 -0.123624 17.9147
426 2 2.2208 10.7987 -1.63226 19.1852
427 2 2.2208 10.6797 4.12499 19.1497
428 1 -1.1104 12.307 -0.237928 14.8569
430 1 -1.1104 9.29669 -3.01904 17.5964
431 1 -1.1104 9.3169 2.51072 17.6187
432 2 2.2208 7.98523 1.20734 19.1635
433 1 -1.1104 9.20804 -2.876 14.84
435 1 -1.1104 9.29205 2.80775 14.9464
437 2 2.2208 7.8864 -1.51232 16.4246
438 2 2.2208 8.00939 4.07862 16.3474
439 1 -1.1104 9.36854 -0.254833 17.7313
440 1 -1.1104 9.3185 -0.137559 15.0101
434 1 -1.1104 9.29127 -2.9724 20.4297
424 1 -1.1104 12.246 2.81431 20.4765
416 2 2.2208 13.4912 4.09274 16.3498
385 1 -1.1104 6.60069 -2.86596 20.5262
429 1 -1.1104 12.1776 -0.149302 20.6538
387 1 -1.1104 6.38964 2.81611 20.7085
422 1 -1.1104 12.1451 -2.86055 20.4359
441 1 -1.1104 9.43449 -0.349684 20.5926
415 2 2.2208 13.578 1.29711 19.1043
446 2 2.2208 13.5454 -1.58734 16.3872
451 2 2.2208 5.17187 6.87973 16.4188
452 2 2.2208 5.19945 12.5386 16.4984
453 1 -1.1104 1.00402 8.32089 17.7404
455 1 -1.1104 0.908911 8.35507 15.0283
459 1 -1.1104 0.976526 5.42787 17.8454
460 1 -1.1104 0.850491 11.1067 17.8215
463 2 2.2208 5.15378 9.78182 19.1832
464 1 -1.1104 0.862012 5.65283 14.9881
466 1 -1.1104 0.826284 11.0634 15.0016
472 1 -1.1104 3.78676 8.30983 17.6585
473 2 2.2208 2.37483 6.86303 19.1698
474 2 2.2208 2.36266 12.556 19.1225
475 1 -1.1104 3.69161 8.31098 14.8441
477 2 2.2208 2.37295 9.6667 16.3259
478 1 -1.1104 3.76307 5.54182 17.8457
479 1 -1.1104 3.70842 11.1712 17.7909
480 1 -1.1104 3.58976 5.40483 14.9782
482 1 -1.1104 3.64741 11.0216 15.0506
483 1 -1.1104 3.78121 11.0662 20.6497
467 1 -1.1104 0.954351 11.0337 20.5872
454 1 -1.1104 6.47041 8.27421 17.9099
462 1 -1.1104 6.6128 11.0374 17.7829
461 1 -1.1104 6.56515 5.47504 17.9125
468 1 -1.1104 6.50706 5.42138 15.0952
457 1 -1.1104 6.54777 8.13392 15.0196
471 1 -1.1104 6.43682 11.219 20.6351
456 1 -1.1104 0.97047 8.32879 20.5821
481 1 -1.1104 3.75404 5.5971 20.5252
469 1 -1.1104 6.64865 5.679 20.5857
458 1 -1.1104 6.50309 8.23495 20.6605
485 2 2.2208 7.91412 20.918 27.7035
413 2 2.2208 13.5346 9.7123 16.2467
470 1 -1.1104 6.45249 10.9105 14.9556
487 2 2.2208 10.8306 6.93457 16.4248
488 2 2.2208 10.8352 12.4913 16.2794
489 1 -1.1104 12.0617 8.35188 17.8076
490 1 -1.1104 12.1747 8.35928 14.9856
492 1 -1.1104 12.0969 5.50018 17.9575
493 1 -1.1104 12.3262 11.051 17.7431
494 2 2.2208 10.7189 9.70791 19.0386
495 1 -1.1104 12.107 5.50993 15.0834
497 1 -1.1104 12.1426 11.1282 14.7871
499 1 -1.1104 9.24863 8.16778 17.7092
500 2 2.2208 7.90463 6.93942 19.1378
501 2 2.2208 7.92848 12.5322 19.192
502 1 -1.1104 9.53253 8.45613 14.924
504 2 2.2208 8.02201 9.77521 16.3305
505 1 -1.1104 9.34375 5.33395 17.72
506 1 -1.1104 9.46834 11.0497 17.5188
507 1 -1.1104 9.28782 5.58499 14.858
509 1 -1.1104 9.19187 11.2256 14.9353
491 1 -1.1104 11.9503 8.22398 20.7266
498 1 -1.1104 12.1657 10.9943 20.5652
503 1 -1.1104 9.24906 8.26135 20.5451
508 1 -1.1104 9.38289 5.34191 20.6574
496 1 -1.1104 12.1684 5.54781 20.5324
638 2 2.2208 13.5351 6.81233 19.2496
514 2 2.2208 5.0975 18.2276 16.3676
515 1 -1.1104 0.852419 13.8479 17.6866
516 1 -1.1104 0.959309 19.5339 17.9055
519 1 -1.1104 0.921465 13.8615 14.9089
521 1 -1.1104 0.851917 19.6201 15.0871
527 1 -1.1104 0.89766 16.8092 17.7821
529 2 2.2208 5.15669 15.2874 19.2743
530 2 2.2208 5.14724 20.9244 19.2132
531 1 -1.1104 0.938349 16.7196 15.1186
535 1 -1.1104 3.70085 14.0088 17.8664
536 1 -1.1104 3.77616 19.5104 17.7854
537 2 2.2208 2.41062 18.1833 19.2484
538 1 -1.1104 3.68377 13.9781 14.9898
540 1 -1.1104 3.4857 19.5109 14.9922
542 2 2.2208 2.18209 15.3188 16.4232
543 2 2.2208 2.30157 21.045 16.4494
544 1 -1.1104 3.7024 16.7657 17.9005
545 1 -1.1104 3.77681 16.6525 15.1186
525 1 -1.1104 6.36003 19.6512 15.1242
517 1 -1.1104 6.49662 13.8294 17.8711
9168 2 2.2208 13.5122 -4.14469 24.753
539 1 -1.1104 3.62671 13.7953 20.5426
523 1 -1.1104 6.66826 13.8397 14.8827
528 1 -1.1104 6.49878 16.7202 17.8106
534 1 -1.1104 6.61165 16.6801 20.6889
522 1 -1.1104 0.964994 19.7967 20.7315
546 1 -1.1104 3.86984 16.6596 20.8373
532 1 -1.1104 0.896605 16.8137 20.6702
520 1 -1.1104 0.881317 14.0405 20.5165
541 1 -1.1104 3.80885 19.4714 20.6741
526 1 -1.1104 6.56122 19.5954 20.5494
9107 2 2.2208 5.08519 -4.09831 27.5656
518 1 -1.1104 6.48532 19.4558 17.8173
533 1 -1.1104 6.49659 16.6397 15.0634
550 2 2.2208 10.6151 18.1671 16.4913
551 1 -1.1104 12.0296 13.9651 17.7405
552 1 -1.1104 12.1307 19.5385 17.8283
553 1 -1.1104 12.1875 13.9508 15.0091
555 1 -1.1104 12.2282 19.5113 15.0461
557 1 -1.1104 12.1356 16.7223 17.7343
558 2 2.2208 10.7748 15.3278 19.1765
559 2 2.2208 10.6395 21.0555 19.1945
560 1 -1.1104 11.9994 16.7186 14.942
562 1 -1.1104 9.24939 13.9105 17.8567
563 1 -1.1104 9.1987 19.7223 17.8775
564 2 2.2208 7.97155 18.1928 19.2787
565 1 -1.1104 9.41358 14.0605 15.0214
567 1 -1.1104 9.29873 19.6681 15.2557
569 2 2.2208 7.91573 15.4028 16.3704
570 2 2.2208 7.88932 21.0924 16.5086
571 1 -1.1104 9.34049 16.8348 17.9529
572 1 -1.1104 9.21232 16.856 15.1096
524 1 -1.1104 6.45945 13.8496 20.7041
568 1 -1.1104 9.47177 19.5426 20.6296
566 1 -1.1104 9.22222 13.9854 20.6326
449 2 2.2208 13.5904 20.9781 27.6539
605 2 2.2208 13.4795 18.225 19.2579
9167 2 2.2208 10.7916 -4.33225 21.8903
357 2 2.2208 2.30594 4.07112 27.4906
9169 2 2.2208 2.29985 -4.2636 24.6109
9170 2 2.2208 5.1302 -4.32004 21.9766
402 1 -1.1104 3.60357 2.7254 20.6138
400 1 -1.1104 3.83543 -3.02062 20.5315
578 2 2.2208 5.06491 1.28881 22.0002
579 1 -1.1104 0.945026 -2.84236 23.2707
580 1 -1.1104 0.968506 2.69381 23.5437
583 1 -1.1104 1.12903 -2.73877 26.0824
584 1 -1.1104 0.828928 2.79555 26.2981
587 1 -1.1104 1.00141 0.0359841 23.337
589 2 2.2208 5.1756 -1.39436 24.7993
590 2 2.2208 5.07306 4.13866 24.887
591 1 -1.1104 0.824722 0.0446762 26.1247
593 1 -1.1104 3.58465 -2.72658 23.4639
594 1 -1.1104 3.63244 2.87955 23.5722
595 2 2.2208 2.3046 1.38075 24.8925
596 1 -1.1104 3.80689 -2.65793 26.2699
597 1 -1.1104 3.93045 2.9696 26.3786
598 2 2.2208 2.26993 -1.46825 22.0773
599 2 2.2208 2.20172 4.07258 21.9452
600 1 -1.1104 3.69628 0.213024 23.4314
601 1 -1.1104 3.72367 0.0225373 26.3625
588 1 -1.1104 6.56888 -0.0968131 23.2872
395 1 -1.1104 6.44917 -0.0275704 20.4812
581 1 -1.1104 6.40121 -2.88594 23.4382
585 1 -1.1104 6.56351 -2.89714 26.1229
582 1 -1.1104 6.47091 2.62747 23.3971
355 2 2.2208 5.17093 1.40361 27.6642
356 2 2.2208 2.29118 -1.49489 27.6399
9235 2 2.2208 2.37461 -4.25867 19.181
695 2 2.2208 13.4894 12.4719 24.9008
409 2 2.2208 13.5992 9.653 21.9543
641 2 2.2208 13.5407 1.38391 24.8085
606 2 2.2208 13.5517 15.2192 16.344
637 2 2.2208 13.6357 12.4539 19.1835
436 1 -1.1104 9.36689 2.59639 20.5137
586 1 -1.1104 6.55238 2.7507 26.2145
592 1 -1.1104 6.42406 -0.0397181 26.1815
614 2 2.2208 10.7798 1.28484 21.8291
615 1 -1.1104 12.1443 -2.89234 23.2408
616 1 -1.1104 12.0447 2.59244 23.2975
617 1 -1.1104 12.0557 -2.72407 26.1237
618 1 -1.1104 12.033 2.78228 26.1155
619 1 -1.1104 12.0409 -0.0691686 23.4151
620 2 2.2208 10.6295 -1.42787 24.6643
621 2 2.2208 10.6073 4.12448 24.6721
622 1 -1.1104 12.0779 -0.0862764 26.0971
623 1 -1.1104 9.14105 -2.89798 23.3047
624 1 -1.1104 9.3104 2.64199 23.315
625 2 2.2208 7.8715 1.33729 24.768
626 1 -1.1104 9.27809 -2.86395 26.1343
627 1 -1.1104 9.30164 2.71239 26.1856
628 2 2.2208 7.81245 -1.55735 21.9043
629 2 2.2208 7.83062 4.05771 22.0676
630 1 -1.1104 9.21517 -0.209925 23.4099
631 1 -1.1104 9.25541 0.0552049 26.1744
363 2 2.2208 13.4772 -1.3999 27.6432
410 2 2.2208 13.527 4.11304 21.8921
360 2 2.2208 10.6573 1.28232 27.5241
361 2 2.2208 8.01644 -1.52585 27.4677
362 2 2.2208 7.95606 4.05239 27.5823
465 1 -1.1104 1.00808 5.46265 20.5327
476 1 -1.1104 3.77905 8.32016 20.476
643 2 2.2208 5.11127 6.91395 22.068
644 2 2.2208 5.02571 12.5744 22.0065
645 1 -1.1104 1.03314 8.38564 23.3604
647 1 -1.1104 0.936127 8.42494 26.1895
649 1 -1.1104 0.857805 5.57812 23.384
650 1 -1.1104 0.984729 11.1657 23.359
653 2 2.2208 5.01016 9.78299 24.8205
654 1 -1.1104 1.04371 5.60686 26.2747
655 1 -1.1104 0.9391 11.2368 26.217
658 1 -1.1104 3.72001 8.49025 23.3839
659 2 2.2208 2.35204 6.9263 24.7464
660 2 2.2208 2.29758 12.6501 24.896
661 1 -1.1104 3.75457 8.43853 26.2007
662 2 2.2208 2.38204 9.71916 21.9063
663 1 -1.1104 3.6279 5.54962 23.2648
664 1 -1.1104 3.84619 11.2465 23.4115
665 1 -1.1104 3.77319 5.63623 26.1344
666 1 -1.1104 3.65287 11.2305 26.1702
652 1 -1.1104 6.55699 11.1663 23.3721
648 1 -1.1104 6.47438 8.30211 26.3519
656 1 -1.1104 6.54306 5.50079 26.2294
651 1 -1.1104 6.49813 5.57307 23.485
365 2 2.2208 5.11755 6.96604 27.6351
367 2 2.2208 5.10998 12.5567 27.5901
447 2 2.2208 13.4469 20.8698 16.4992
364 2 2.2208 13.4884 4.16698 27.5505
417 2 2.2208 13.5494 15.2341 22.0127
510 1 -1.1104 9.28569 10.9727 20.4175
371 2 2.2208 7.75131 9.82586 27.6753
657 1 -1.1104 6.42492 11.201 26.1579
646 1 -1.1104 6.45734 8.40825 23.492
674 1 -1.1104 9.29961 11.0706 26.3281
675 1 -1.1104 9.38757 5.62305 26.1357
676 1 -1.1104 9.40577 10.9458 23.4205
677 1 -1.1104 9.30525 5.44683 23.4436
678 2 2.2208 7.82198 9.6469 21.985
679 1 -1.1104 9.41375 8.35346 26.1521
680 2 2.2208 7.90447 12.4728 24.8802
681 2 2.2208 7.88102 6.90282 24.9411
682 2 2.2208 10.6406 6.85979 21.9612
683 2 2.2208 10.7751 12.4756 22.029
684 1 -1.1104 12.0748 8.28203 23.4195
685 1 -1.1104 12.257 8.21486 26.2344
686 1 -1.1104 12.1483 5.52015 23.3454
687 1 -1.1104 12.1653 11.053 23.473
688 2 2.2208 10.733 9.70103 24.7278
689 1 -1.1104 12.1389 5.47509 25.995
690 1 -1.1104 12.1033 10.9829 26.2679
691 1 -1.1104 9.2912 8.27165 23.5354
370 2 2.2208 10.76 6.96388 27.4932
450 2 2.2208 13.4846 20.9685 22.09
716 1 -1.1104 6.45763 16.8368 23.4593
701 1 -1.1104 6.59475 16.7228 26.1235
708 1 -1.1104 6.67205 13.9096 23.494
573 1 -1.1104 9.33249 16.7523 20.8311
699 1 -1.1104 6.50621 13.9758 26.1635
633 1 -1.1104 6.61862 19.4576 26.2695
705 1 -1.1104 6.71738 19.6484 23.4821
698 1 -1.1104 3.95843 19.5882 23.5155
700 1 -1.1104 3.73572 13.9116 23.3459
702 1 -1.1104 0.859484 19.7094 26.224
703 1 -1.1104 0.996021 16.8831 26.1535
704 1 -1.1104 0.854243 14.156 26.4073
706 2 2.2208 5.22808 20.9676 24.8406
707 2 2.2208 5.18885 15.2937 24.7403
709 1 -1.1104 1.0008 19.5842 23.3531
710 1 -1.1104 0.882152 13.8766 23.4215
711 2 2.2208 5.21957 18.2525 22.0623
712 1 -1.1104 3.6194 19.6944 26.0768
713 2 2.2208 2.33164 18.2304 24.8024
714 1 -1.1104 3.83823 16.7377 26.2658
715 1 -1.1104 3.61492 13.9434 26.1858
717 1 -1.1104 0.950163 16.7464 23.3812
718 1 -1.1104 3.68377 16.7676 23.4423
719 2 2.2208 2.41158 20.9799 21.961
720 2 2.2208 2.3153 15.3449 22.0452
694 2 2.2208 5.12778 18.1953 27.6788
513 1 -1.1104 12.1374 14.0442 26.3671
347 2 2.2208 7.97084 15.3973 27.6147
634 1 -1.1104 9.35688 13.9383 26.1808
484 2 2.2208 10.7443 18.2194 27.7657
639 1 -1.1104 9.41828 19.7005 26.3498
548 1 -1.1104 12.1226 19.5067 26.2683
607 1 -1.1104 9.42956 13.8663 23.4803
602 2 2.2208 10.6433 15.3734 24.8248
556 1 -1.1104 12.2106 19.6181 20.4651
561 1 -1.1104 12.1093 16.7208 20.6768
554 1 -1.1104 12.1807 13.7595 20.5469
604 1 -1.1104 12.0515 16.7701 26.2568
603 2 2.2208 10.7687 20.9397 24.8156
448 2 2.2208 13.4392 18.0501 24.9712
642 2 2.2208 7.99702 15.2265 22.0942
512 1 -1.1104 12.1636 19.5228 23.3715
610 1 -1.1104 9.46132 19.4759 23.4253
486 2 2.2208 10.8459 18.2038 21.9905
667 2 2.2208 7.8481 21.0025 21.9295
632 2 2.2208 8.05218 18.1528 24.8383
669 1 -1.1104 9.36631 16.848 26.5285
668 1 -1.1104 9.21824 16.5672 23.5746
511 1 -1.1104 12.2853 13.8704 23.4522
574 1 -1.1104 12.0512 16.7348 23.442
341 2 2.2208 5.15476 4.14232 13.6634
349 2 2.2208 2.2536 12.5543 13.6349
721 2 2.2208 5.16609 23.7877 5.43388
722 2 2.2208 5.16068 29.3583 5.27229
723 1 -1.1104 1.0295 25.2011 1.13524
724 1 -1.1104 0.984813 25.1482 3.85933
725 1 -1.1104 0.991775 22.3691 0.985498
726 1 -1.1104 0.876599 27.9721 1.08256
727 2 2.2208 5.17613 26.6359 2.55561
728 1 -1.1104 1.0073 22.398 3.76601
729 1 -1.1104 0.828238 27.9223 3.96172
730 1 -1.1104 3.67139 25.2611 1.01664
731 2 2.2208 2.45319 23.861 2.37535
732 2 2.2208 2.26393 29.4988 2.59787
733 1 -1.1104 3.89152 25.3396 3.88418
734 2 2.2208 2.38001 26.5572 5.27374
735 1 -1.1104 3.83018 22.3798 1.11025
736 1 -1.1104 3.77787 28.0514 1.16163
737 1 -1.1104 3.83458 22.3057 3.79848
738 1 -1.1104 3.76849 28.1086 3.85002
745 1 -1.1104 6.5288 27.9019 1.17142
744 1 -1.1104 6.71378 22.3181 1.00449
742 1 -1.1104 6.49831 25.1787 1.13221
746 1 -1.1104 6.50313 22.2934 3.82222
868 1 -1.1104 3.68555 25.1037 6.77375
747 1 -1.1104 6.57123 27.9945 3.85448
863 1 -1.1104 6.38421 25.3237 6.60855
1053 2 2.2208 13.6353 46.2789 8.02982
862 1 -1.1104 0.823591 25.3005 6.67142
864 1 -1.1104 0.987533 22.5051 6.57356
869 1 -1.1104 3.63944 22.4381 6.50631
867 1 -1.1104 6.52107 28.1628 6.68512
841 2 2.2208 -0.407781 40.6199 5.20633
743 1 -1.1104 6.57052 25.2062 3.84763
748 2 2.2208 10.6957 23.8555 5.10272
749 2 2.2208 10.7751 29.3915 5.24354
750 1 -1.1104 12.3194 25.3918 1.07208
751 1 -1.1104 12.1733 25.0345 3.92024
752 1 -1.1104 12.1288 22.3638 0.905111
753 1 -1.1104 12.145 28.0417 1.13833
754 2 2.2208 10.7539 26.685 2.33586
755 1 -1.1104 12.2019 22.4642 3.62105
756 1 -1.1104 12.1676 27.9384 3.83567
757 1 -1.1104 9.26018 25.3149 1.01673
758 2 2.2208 7.83441 23.7285 2.41181
759 2 2.2208 7.94031 29.5611 2.45317
760 1 -1.1104 9.32599 25.1815 3.78789
761 2 2.2208 7.92535 26.5203 5.17897
762 1 -1.1104 9.37149 22.4761 1.052
763 1 -1.1104 9.42493 28.136 0.951166
764 1 -1.1104 9.48989 22.4379 3.86731
765 1 -1.1104 9.40443 28.1356 3.86677
895 1 -1.1104 12.1786 25.1831 6.57887
900 1 -1.1104 9.29588 27.9917 6.83321
767 2 2.2208 13.4637 29.4026 2.41388
1083 2 2.2208 2.47101 37.7967 -0.399235
766 2 2.2208 13.5991 23.8183 2.34099
899 1 -1.1104 9.38035 22.4261 6.67581
898 1 -1.1104 9.28781 25.1787 6.60025
1044 2 2.2208 -0.357108 29.4292 10.8854
1030 1 -1.1104 9.36104 41.962 6.51915
769 2 2.2208 5.17521 35.0271 5.26868
770 1 -1.1104 0.98688 30.8495 1.1587
771 1 -1.1104 0.830914 36.3763 1.19137
773 1 -1.1104 0.915325 30.7842 3.83359
774 1 -1.1104 1.06343 36.339 3.94829
776 1 -1.1104 0.966425 33.6663 1.04495
777 2 2.2208 5.20229 32.1997 2.5154
778 2 2.2208 5.1719 37.8466 2.53342
779 1 -1.1104 0.942222 33.559 3.84335
781 1 -1.1104 3.63866 30.8155 1.17357
782 1 -1.1104 3.6815 36.6281 1.24762
783 2 2.2208 2.33777 35.08 2.52514
784 1 -1.1104 3.75383 30.8411 3.82952
785 1 -1.1104 3.7939 36.4395 3.9465
786 2 2.2208 2.38698 32.2733 5.26901
787 2 2.2208 2.45494 37.697 5.29537
788 1 -1.1104 3.74293 33.5338 1.06742
789 1 -1.1104 3.8116 33.6095 3.87591
780 1 -1.1104 6.53245 33.5939 3.77525
775 1 -1.1104 6.59782 36.4708 3.9594
793 1 -1.1104 6.4725 30.8629 0.961552
919 1 -1.1104 0.942109 30.9338 6.64306
923 1 -1.1104 0.846255 33.7334 6.65287
772 1 -1.1104 6.50362 36.398 1.17178
795 1 -1.1104 6.6022 33.6424 0.808654
1014 1 -1.1104 9.47351 39.2818 9.54346
926 1 -1.1104 3.83142 36.4084 6.68078
1365 2 2.2208 2.26834 32.2979 -0.248124
794 1 -1.1104 6.66535 30.8128 3.80854
796 2 2.2208 10.8539 35.0847 5.35094
797 1 -1.1104 12.0986 30.8836 1.09301
798 1 -1.1104 12.3614 36.3709 0.982064
799 1 -1.1104 12.1164 30.6922 3.80451
800 1 -1.1104 12.2264 36.3084 3.69868
801 1 -1.1104 12.2197 33.6158 1.05222
802 2 2.2208 10.7891 32.351 2.41931
803 2 2.2208 10.7357 37.807 2.51979
804 1 -1.1104 12.1846 33.5405 3.92018
805 1 -1.1104 9.28773 30.9996 0.978951
806 1 -1.1104 9.31843 36.4736 1.08303
807 2 2.2208 8.02627 35.0119 2.48619
808 1 -1.1104 9.47208 31.0599 3.77496
809 1 -1.1104 9.37895 36.467 4.03324
810 2 2.2208 8.04702 32.2771 5.31227
811 2 2.2208 7.96761 37.7895 5.40341
812 1 -1.1104 9.44689 33.7008 0.904309