ITEM: TIMESTEP
20000
ITEM: NUMBER OF ATOMS
17820
ITEM: BOX BOUNDS pp pp pp
-3.5769856590003302e-01 2.7697698565899948e+01
-4.3800498149307083e+00 3.3246004981492791e+02
-3.6037897126867408e-01 2.7700378971269149e+01
ITEM: ATOMS id type q x y z
1 2 2.2208 5.28661 1.15173 5.17164
2 1 -1.1104 1.2007 -3.01405 0.957233
3 1 -1.1104 0.911225 2.43325 0.877264
6 1 -1.1104 1.16701 -3.16747 3.8116
7 1 -1.1104 1.02594 2.48786 3.81876
10 1 -1.1104 1.0446 -0.212484 0.970353
12 2 2.2208 5.31058 -1.71799 2.48786
13 2 2.2208 5.18751 3.9851 2.32319
14 1 -1.1104 1.03468 -0.232054 3.80215
16 1 -1.1104 3.97427 -3.07102 1.04263
17 1 -1.1104 3.8305 2.61003 1.18043
18 2 2.2208 2.37078 1.13308 2.40774
19 1 -1.1104 4.05224 -3.26202 4.02172
20 1 -1.1104 3.8455 2.64622 3.77956
21 2 2.2208 2.41104 -1.62964 5.28375
22 2 2.2208 2.50684 3.87512 5.2195
23 1 -1.1104 3.87489 -0.307335 1.07112
24 1 -1.1104 3.76454 -0.406249 3.81782
15 1 -1.1104 6.6262 -0.169221 3.93953
4 1 -1.1104 6.63143 -3.0755 1.07739
52 2 2.2208 13.5518 9.6165 10.9233
167 1 -1.1104 0.889332 2.68684 6.52126
173 1 -1.1104 3.70017 2.45832 6.66164
8 1 -1.1104 6.78769 -3.01595 3.95229
172 1 -1.1104 3.81376 -3.16405 6.76687
170 1 -1.1104 1.02446 -0.0363863 6.69795
174 1 -1.1104 3.83563 -0.407341 6.70854
166 1 -1.1104 0.890928 -2.90452 6.50552
169 1 -1.1104 6.56656 2.54777 6.67154
27 2 2.2208 -0.475521 3.97078 2.27768
5 1 -1.1104 6.54034 2.59168 0.916936
9 1 -1.1104 6.53901 2.6141 3.84127
11 1 -1.1104 6.59385 -0.148226 1.17934
168 1 -1.1104 6.79389 -3.10754 6.71475
9093 2 2.2208 13.7145 -4.32756 2.48844
31 2 2.2208 10.8432 1.16644 5.1841
32 1 -1.1104 12.115 -2.93865 1.08376
33 1 -1.1104 12.2146 2.68555 1.10037
34 1 -1.1104 12.368 -2.93916 3.94576
35 1 -1.1104 12.1431 2.56703 3.79421
36 1 -1.1104 12.238 -0.0821526 1.29428
37 2 2.2208 10.8445 -1.67493 2.63498
38 2 2.2208 10.8229 3.90335 2.38338
39 1 -1.1104 12.2875 -0.147951 3.98288
40 1 -1.1104 9.45865 -2.99473 1.20985
41 1 -1.1104 9.26127 2.69651 0.972222
42 2 2.2208 8.01904 1.22669 2.41378
43 1 -1.1104 9.50997 -3.06381 4.05218
44 1 -1.1104 9.49003 2.5724 3.82432
45 2 2.2208 8.04163 -1.66204 5.28978
46 2 2.2208 7.97142 3.99594 5.20995
47 1 -1.1104 9.27208 -0.146353 1.10496
48 1 -1.1104 9.32232 -0.426337 3.80093
210 1 -1.1104 9.42049 -0.0769518 6.60575
209 1 -1.1104 9.30489 2.71417 6.75313
207 1 -1.1104 12.3085 -0.125939 6.66695
360 2 2.2208 10.734 1.26414 -0.405378
54 2 2.2208 5.18451 6.76391 5.27612
55 2 2.2208 5.31586 12.4498 5.28058
56 1 -1.1104 0.87108 8.1671 1.05911
58 1 -1.1104 0.897392 8.37141 3.84898
60 1 -1.1104 0.996126 5.34013 1.02256
61 1 -1.1104 0.976491 10.9032 1.03886
66 2 2.2208 5.20362 9.58167 2.39702
67 1 -1.1104 0.970832 5.41021 3.84862
68 1 -1.1104 0.99797 11.1605 3.82184
71 1 -1.1104 3.66426 8.06391 1.01871
72 2 2.2208 2.23292 6.75651 2.44995
73 2 2.2208 2.47805 12.4037 2.52982
74 1 -1.1104 3.65781 8.242 3.72563
75 2 2.2208 2.44691 9.62636 5.17566
76 1 -1.1104 3.82658 5.28839 0.724427
77 1 -1.1104 3.82683 10.8938 0.90266
79 1 -1.1104 3.81468 5.31981 3.71483
80 1 -1.1104 3.75801 10.9336 3.81973
366 2 2.2208 2.36463 9.59851 -0.398595
234 1 -1.1104 1.0178 8.167 6.71301
236 1 -1.1104 1.06557 5.35093 6.57034
81 2 2.2208 -0.496453 6.77054 5.28327
239 1 -1.1104 3.92344 5.29469 6.4578
62 1 -1.1104 0.981392 11.0677 6.65936
78 1 -1.1104 3.70921 11.0349 6.72151
57 1 -1.1104 6.66133 8.20427 0.994489
69 1 -1.1104 6.69934 5.3752 3.84591
63 1 -1.1104 6.55848 5.3337 0.922102
64 1 -1.1104 6.59984 10.9654 0.913377
70 1 -1.1104 6.70548 11.0136 3.78726
59 1 -1.1104 6.54325 8.09577 3.86088
84 2 2.2208 10.8718 6.7158 5.17303
85 2 2.2208 10.7868 12.3168 5.17186
86 1 -1.1104 12.2623 8.14953 1.12163
87 1 -1.1104 12.2333 8.17305 3.80153
88 1 -1.1104 12.1739 5.505 1.12542
89 1 -1.1104 12.1197 10.9371 0.948915
91 2 2.2208 10.8019 9.53704 2.44276
92 1 -1.1104 12.3712 5.51501 3.90408
93 1 -1.1104 12.4172 10.9605 3.73565
94 1 -1.1104 9.42191 8.12938 0.986846
95 2 2.2208 8.00594 6.77227 2.31152
96 2 2.2208 8.01963 12.4562 2.4698
97 1 -1.1104 9.51121 8.10509 3.93705
98 2 2.2208 8.07893 9.61688 5.31863
99 1 -1.1104 9.38586 5.4069 0.944066
100 1 -1.1104 9.37836 11.092 0.899836
102 1 -1.1104 9.4063 5.24238 3.64258
103 1 -1.1104 9.40145 11.0452 3.77457
331 2 2.2208 10.789 17.916 10.9575
235 1 -1.1104 6.71543 8.20033 6.6535
237 1 -1.1104 6.65589 5.4443 6.70262
90 1 -1.1104 12.208 11.048 6.649
269 1 -1.1104 9.34857 5.44254 6.6122
65 1 -1.1104 6.33127 10.9871 6.73479
101 1 -1.1104 9.28675 11.0544 6.59291
267 1 -1.1104 9.45053 8.27997 6.75471
106 2 2.2208 5.28875 18.1976 5.41572
107 1 -1.1104 1.11875 13.7373 1.07328
109 1 -1.1104 1.00362 19.5315 1.11017
113 1 -1.1104 1.16301 13.9261 3.81223
114 1 -1.1104 1.12005 19.3714 3.87199
116 1 -1.1104 1.24023 16.5652 1.21112
119 2 2.2208 5.25188 15.2878 2.54597
120 2 2.2208 5.30466 20.9587 2.51717
121 1 -1.1104 1.08432 16.6066 3.85266
123 1 -1.1104 3.94333 13.8274 1.09399
125 1 -1.1104 3.88899 19.4512 1.0637
127 2 2.2208 2.5399 18.041 2.51615
128 1 -1.1104 3.8186 13.779 4.04193
129 1 -1.1104 3.86011 19.587 3.68091
130 2 2.2208 2.391 15.2287 5.29268
131 2 2.2208 2.49299 20.9239 5.20908
132 1 -1.1104 3.94175 16.6907 1.01442
134 1 -1.1104 3.90615 16.6407 3.89311
117 1 -1.1104 1.07895 16.5116 6.87154
108 1 -1.1104 1.06877 13.7937 6.64491
139 1 -1.1104 6.51011 19.4255 3.88915
110 1 -1.1104 6.81006 13.9611 1.10852
122 1 -1.1104 6.71379 16.757 4.0081
135 2 2.2208 -0.402084 15.2102 2.47733
133 1 -1.1104 3.99783 16.7773 6.53004
302 1 -1.1104 1.12637 19.4918 6.65909
126 1 -1.1104 3.92316 19.6039 6.72132
112 1 -1.1104 6.65131 19.494 6.67906
138 1 -1.1104 6.52681 19.4794 1.10271
115 1 -1.1104 6.68791 13.7534 3.84867
118 1 -1.1104 6.77062 16.5857 6.80904
111 1 -1.1104 6.8087 13.7597 6.65699
140 1 -1.1104 6.62074 16.5472 1.00956
231 2 2.2208 13.6947 20.7436 5.2558
141 2 2.2208 10.8957 18.0732 5.23456
142 1 -1.1104 12.2136 13.7564 0.819697
144 1 -1.1104 12.2043 19.2482 1.09287
146 1 -1.1104 12.2958 13.747 3.86557
147 1 -1.1104 12.3061 19.5598 3.8297
148 1 -1.1104 12.1289 16.3945 1.11273
150 2 2.2208 10.8455 15.1574 2.50257
151 2 2.2208 10.7526 20.7518 2.44053
152 1 -1.1104 12.2499 16.5484 3.92515
153 1 -1.1104 9.5169 13.7955 1.00758
155 1 -1.1104 9.45122 19.4834 1.02939
157 2 2.2208 7.89034 18.0482 2.46836
158 1 -1.1104 9.44165 13.8051 3.76311
159 1 -1.1104 9.42673 19.3559 3.93561
160 2 2.2208 8.10586 15.2051 5.28485
161 2 2.2208 8.01993 20.8536 5.34347
162 1 -1.1104 9.29183 16.6612 0.954796
164 1 -1.1104 9.55229 16.6359 3.72795
149 1 -1.1104 12.2396 16.7487 6.65339
156 1 -1.1104 9.5567 19.3221 6.68782
163 1 -1.1104 9.4224 16.5975 6.52983
154 1 -1.1104 9.48107 13.8339 6.5884
318 1 -1.1104 9.37155 19.3825 9.4984
165 2 2.2208 13.6151 18.0371 2.48608
143 1 -1.1104 12.1625 13.7664 6.54081
171 1 -1.1104 6.77754 -0.374281 6.77862
330 1 -1.1104 12.3213 13.5066 12.1792
175 2 2.2208 5.16176 1.2237 10.8638
176 1 -1.1104 0.994178 -3.00103 12.2351
177 1 -1.1104 0.86381 2.76653 12.2677
180 1 -1.1104 0.940106 -3.05012 9.39759
181 1 -1.1104 0.992567 2.63896 9.45964
184 1 -1.1104 1.07791 -0.0905468 12.214
186 2 2.2208 5.25885 -1.63123 8.05023
187 2 2.2208 5.18065 3.99017 8.05168
188 1 -1.1104 1.05889 -0.191647 9.51564
190 1 -1.1104 3.92607 -3.09072 12.2536
191 1 -1.1104 3.65329 2.83849 12.2869
192 2 2.2208 2.41792 1.20244 8.13502
193 1 -1.1104 3.79666 -3.09499 9.47904
194 1 -1.1104 3.80965 2.73534 9.47018
195 2 2.2208 2.4397 -1.61831 10.8576
196 2 2.2208 2.29336 4.13455 10.7841
197 1 -1.1104 3.82381 -0.232809 12.2228
198 1 -1.1104 3.76869 -0.130659 9.50039
178 1 -1.1104 6.67593 -2.99698 12.3245
182 1 -1.1104 6.52475 -3.19061 9.41551
185 1 -1.1104 6.47356 -0.230116 12.2466
341 2 2.2208 5.13953 4.02799 13.6357
338 2 2.2208 5.27203 -1.60971 13.6744
337 2 2.2208 -0.526556 4.05804 13.6885
9091 2 2.2208 8.15247 -4.4338 2.57545
183 1 -1.1104 6.58907 2.68475 9.46682
201 2 2.2208 -0.450195 1.41919 10.8698
206 1 -1.1104 12.1014 2.5393 6.49289
205 1 -1.1104 12.2892 -3.04247 6.61952
692 2 2.2208 -0.298343 18.0177 -0.161184
189 1 -1.1104 6.5301 -0.304714 9.5084
179 1 -1.1104 6.44029 2.54158 12.2192
208 1 -1.1104 9.52546 -2.99927 6.88686
211 2 2.2208 10.9297 1.15203 10.8331
212 1 -1.1104 12.287 -2.80915 12.3742
213 1 -1.1104 12.2052 2.55284 12.1618
214 1 -1.1104 12.1041 -2.8733 9.36552
215 1 -1.1104 12.1656 2.55971 9.32292
216 1 -1.1104 12.2138 -0.0589476 12.2505
217 2 2.2208 10.824 -1.47135 8.10788
218 2 2.2208 10.7765 4.07246 8.05841
219 1 -1.1104 12.281 -0.163243 9.47169
220 1 -1.1104 9.46764 -3.0734 12.2169
221 1 -1.1104 9.42503 2.64106 12.2187
222 2 2.2208 8.0041 1.23674 8.10883
223 1 -1.1104 9.30598 -3.07631 9.46974
224 1 -1.1104 9.44651 2.51947 9.48301
225 2 2.2208 7.95308 -1.70844 10.8455
226 2 2.2208 7.98577 3.93132 10.9032
227 1 -1.1104 9.42065 -0.270103 12.2536
228 1 -1.1104 9.4577 -0.178283 9.47637
137 2 2.2208 -0.329542 18.0782 5.25424
345 2 2.2208 10.7975 3.9741 13.6754
104 2 2.2208 13.6615 12.3671 2.4077
30 2 2.2208 -0.336683 9.60269 8.04114
51 2 2.2208 -0.343889 12.5208 11.0113
358 2 2.2208 -0.422402 9.62151 13.5606
238 1 -1.1104 3.7492 8.15786 6.5666
240 2 2.2208 5.18091 7.01648 10.7956
241 2 2.2208 5.25098 12.5933 10.8754
242 1 -1.1104 0.986959 8.44628 12.2341
244 1 -1.1104 0.910932 8.33368 9.55966
246 1 -1.1104 1.07867 5.76553 12.1364
247 1 -1.1104 1.09772 11.1811 12.2427
250 2 2.2208 5.06554 9.59885 8.04507
251 1 -1.1104 0.784201 5.55327 9.15095
252 1 -1.1104 0.924934 11.1721 9.32417
255 1 -1.1104 3.89241 8.4712 12.072
256 2 2.2208 2.32077 6.78632 7.89418
257 2 2.2208 2.53004 12.3961 8.03138
258 1 -1.1104 3.69039 8.12095 9.25954
259 2 2.2208 2.35477 9.69368 10.7682
260 1 -1.1104 3.83328 5.59286 12.1327
261 1 -1.1104 3.95833 11.244 12.2283
262 1 -1.1104 3.72678 5.35853 9.31241
263 1 -1.1104 3.76915 10.9106 9.45706
29 2 2.2208 -0.41964 6.95863 10.8667
348 2 2.2208 5.26815 9.76225 13.7031
346 2 2.2208 2.3626 6.8884 13.5065
349 2 2.2208 2.45425 12.3504 13.7916
253 1 -1.1104 6.56403 5.62579 9.46727
254 1 -1.1104 6.50576 11.1438 9.59295
243 1 -1.1104 6.54424 8.15226 12.2998
249 1 -1.1104 6.66473 11.1926 12.3454
245 1 -1.1104 6.64673 8.45567 9.41125
265 1 -1.1104 12.1363 8.1154 6.65286
248 1 -1.1104 6.5406 5.27688 12.2936
266 1 -1.1104 12.303 5.34446 6.62611
264 1 -1.1104 9.4226 10.8713 9.55593
268 1 -1.1104 9.27632 5.39311 9.472
270 1 -1.1104 9.37044 11.0208 12.3649
271 1 -1.1104 9.31348 5.51164 12.4194
272 2 2.2208 8.00483 9.57529 10.9141
273 1 -1.1104 9.64033 8.07275 9.54998
274 2 2.2208 8.03572 12.3741 8.13401
275 2 2.2208 8.01272 6.87266 8.03187
276 2 2.2208 10.7535 6.7067 10.9653
277 2 2.2208 10.8476 12.338 10.8857
278 1 -1.1104 12.1307 7.99998 12.303
279 1 -1.1104 12.184 8.174 9.39264
280 1 -1.1104 12.2067 5.3466 12.3019
281 1 -1.1104 12.1844 10.8961 12.3166
282 2 2.2208 10.7257 9.60672 8.09263
283 1 -1.1104 12.1247 5.28739 9.55568
284 1 -1.1104 12.2278 11.0353 9.39975
285 1 -1.1104 9.38883 8.33253 12.3426
350 2 2.2208 7.93713 6.80548 13.6856
351 2 2.2208 10.8379 9.56401 13.728
336 2 2.2208 13.5316 6.80028 13.6666
352 2 2.2208 8.03499 12.3871 13.6089
319 1 -1.1104 9.58482 13.7231 9.28497
288 1 -1.1104 6.65656 19.5412 9.50646
306 1 -1.1104 6.72991 16.5884 12.3355
124 1 -1.1104 4.002 13.8593 6.65874
353 2 2.2208 5.19917 20.896 13.6415
310 2 2.2208 2.4882 15.268 10.9006
305 1 -1.1104 3.77612 13.8539 9.42372
309 2 2.2208 2.52824 20.8609 10.8155
308 1 -1.1104 3.93266 16.7281 12.3179
307 1 -1.1104 1.07445 16.616 12.4463
286 1 -1.1104 3.9949 19.477 12.1587
287 1 -1.1104 4.07795 13.9746 12.2825
291 1 -1.1104 1.03699 19.4016 9.41483
292 1 -1.1104 1.01565 16.7111 9.70012
293 2 2.2208 5.24334 21.0149 8.10141
294 1 -1.1104 0.974912 13.7887 9.39652
295 2 2.2208 5.36391 15.2311 7.91104
298 1 -1.1104 1.10733 19.4778 12.3724
299 1 -1.1104 1.26374 13.859 12.249
300 2 2.2208 5.33704 18.118 10.904
301 1 -1.1104 3.95204 19.4786 9.53769
303 2 2.2208 2.41677 18.0821 8.09642
304 1 -1.1104 3.88713 16.5538 9.21695
297 1 -1.1104 6.76308 13.8976 12.3474
549 2 2.2208 5.3211 15.3089 13.7999
547 2 2.2208 2.50465 18.1878 13.7449
296 1 -1.1104 6.61348 19.3683 12.3662
354 2 2.2208 10.8725 20.7351 13.6402
577 2 2.2208 13.5634 18.0287 13.6615
323 1 -1.1104 12.2046 16.6512 9.53424
289 1 -1.1104 6.62912 16.8127 9.47889
325 2 2.2208 10.8173 15.1884 8.07776
324 2 2.2208 10.8164 20.6923 8.12637
332 2 2.2208 13.6402 17.88 7.99854
327 1 -1.1104 12.1705 19.4793 9.54515
320 2 2.2208 8.0478 18.1254 8.02637
314 1 -1.1104 9.40462 16.6533 9.5605
316 2 2.2208 7.92694 20.8763 10.935
317 2 2.2208 8.04141 15.3053 10.8825
321 1 -1.1104 9.48084 19.4766 12.1989
322 1 -1.1104 9.56361 13.7735 12.0885
328 1 -1.1104 12.2042 13.737 9.49649
315 1 -1.1104 9.52607 16.683 12.5212
145 1 -1.1104 12.2556 19.3256 6.69513
290 1 -1.1104 6.6784 14.0172 9.38054
326 1 -1.1104 12.1629 16.4182 12.2626
329 1 -1.1104 12.2088 19.3832 12.2493
347 2 2.2208 8.07036 15.2573 -0.397947
9107 2 2.2208 5.3882 -4.49347 -0.369822
359 2 2.2208 -0.484375 1.01984 -0.423436
485 2 2.2208 8.11789 20.9666 -0.234675
636 2 2.2208 13.6339 12.4633 13.728
375 2 2.2208 5.2587 1.24316 16.3077
376 1 -1.1104 1.20569 -2.96046 17.7102
377 1 -1.1104 1.13243 2.67676 17.8616
380 1 -1.1104 0.999771 -2.87047 14.9981
382 1 -1.1104 1.05605 2.61616 15.0324
388 1 -1.1104 1.12846 -0.0396664 17.7901
390 2 2.2208 5.28575 -1.74295 19.2468
392 1 -1.1104 0.920817 -0.0133894 14.946
396 1 -1.1104 3.89894 -2.90616 17.812
397 1 -1.1104 4.02684 2.61194 17.9125
398 2 2.2208 2.59444 1.23074 19.2621
399 1 -1.1104 3.83169 -3.04968 14.9835
401 1 -1.1104 3.81683 2.67231 15.1002
403 2 2.2208 2.58243 -1.60322 16.3607
404 2 2.2208 2.40827 4.0722 16.3381
405 1 -1.1104 4.04001 -0.164865 17.6188
406 1 -1.1104 3.79687 -0.122257 15.0069
391 2 2.2208 5.37214 4.02006 19.2814
9115 2 2.2208 2.32056 -4.36977 13.5951
383 1 -1.1104 0.959545 2.51314 20.5849
386 1 -1.1104 6.67589 2.56904 14.9459
389 1 -1.1104 6.66223 -0.325281 17.7341
379 1 -1.1104 6.80813 2.68629 17.8363
400 1 -1.1104 3.98108 -3.14521 20.6314
407 1 -1.1104 3.8926 -0.185713 20.5749
393 1 -1.1104 1.08077 -0.190311 20.5958
381 1 -1.1104 1.37716 -2.93378 20.5547
395 1 -1.1104 6.76708 -0.254546 20.6883
394 1 -1.1104 6.67599 -0.339605 15.0047
385 1 -1.1104 6.7686 -2.98209 20.4729
412 2 2.2208 -0.187842 -1.60054 19.188
449 2 2.2208 13.7018 20.7811 27.7793
378 1 -1.1104 6.5827 -3.14566 17.836
384 1 -1.1104 6.6268 -2.94806 15.1268
418 2 2.2208 10.8267 1.20449 16.5186
419 1 -1.1104 12.3696 -3.00554 17.8198
420 1 -1.1104 12.1736 2.53028 17.9113
421 1 -1.1104 12.3663 -2.90542 14.9367
423 1 -1.1104 12.1395 2.62877 14.9823
425 1 -1.1104 12.1629 -0.258547 17.824
426 2 2.2208 10.8931 -1.61507 19.2467
427 2 2.2208 10.7102 3.97552 19.3002
428 1 -1.1104 12.3957 -0.214429 15.0123
430 1 -1.1104 9.42753 -3.02932 17.8161
431 1 -1.1104 9.3632 2.60361 17.8782
432 2 2.2208 8.05153 1.06313 19.1976
433 1 -1.1104 9.57332 -2.98208 15.069
435 1 -1.1104 9.34564 2.61706 15.0224
437 2 2.2208 8.10629 -1.67156 16.4204
438 2 2.2208 8.00538 4.02389 16.4311
439 1 -1.1104 9.48024 -0.228671 17.732
440 1 -1.1104 9.39159 -0.106259 15.0655
441 1 -1.1104 9.46624 -0.229036 20.5425
429 1 -1.1104 12.2709 -0.16122 20.6419
416 2 2.2208 13.5306 4.05543 16.5212
369 2 2.2208 -0.607318 6.88651 27.6157
368 2 2.2208 -0.275571 12.5201 27.8044
340 2 2.2208 13.6528 1.13597 13.718
608 2 2.2208 -0.36337 6.79669 16.4465
609 2 2.2208 -0.385357 9.58967 19.3341
451 2 2.2208 5.27609 6.85376 16.4909
452 2 2.2208 5.1668 12.4205 16.5228
453 1 -1.1104 1.10893 8.17683 17.8871
455 1 -1.1104 1.06365 8.22416 15.0288
459 1 -1.1104 0.803084 5.45612 17.8364
460 1 -1.1104 1.04628 11.0084 17.8566
463 2 2.2208 5.15388 9.58155 19.2865
464 1 -1.1104 0.902595 5.4591 14.8862
466 1 -1.1104 0.99537 11.0914 15.2374
472 1 -1.1104 3.90716 8.3065 17.7589
473 2 2.2208 2.30634 6.81827 19.226
474 2 2.2208 2.42223 12.4036 19.2757
475 1 -1.1104 3.90942 8.2066 14.8561
477 2 2.2208 2.46418 9.6285 16.3747
478 1 -1.1104 3.82051 5.48502 17.8564
479 1 -1.1104 3.89057 11.1533 17.9189
480 1 -1.1104 3.77343 5.40209 14.8979
482 1 -1.1104 3.76585 10.9849 15.1492
467 1 -1.1104 0.910004 11.0908 20.5576
454 1 -1.1104 6.72975 8.19236 17.7924
470 1 -1.1104 6.61461 11.0994 15.1357
481 1 -1.1104 3.68756 5.45849 20.6381
456 1 -1.1104 0.9341 8.30002 20.6556
465 1 -1.1104 0.946833 5.35388 20.7734
468 1 -1.1104 6.54157 5.42578 15.116
483 1 -1.1104 3.76467 10.9945 20.6664
476 1 -1.1104 3.58194 8.23558 20.5417
458 1 -1.1104 6.60463 8.25145 20.6394
484 2 2.2208 10.8113 18.0252 27.7208
457 1 -1.1104 6.55091 8.22807 14.9527
462 1 -1.1104 6.59587 11.0603 17.8521
461 1 -1.1104 6.59366 5.53528 17.9509
469 1 -1.1104 6.47638 5.52639 20.6553
632 2 2.2208 8.07173 18.0912 24.8989
487 2 2.2208 10.7899 6.83115 16.4478
488 2 2.2208 10.7636 12.4838 16.6227
489 1 -1.1104 12.2184 8.19386 17.9883
490 1 -1.1104 12.2507 8.26968 15.0971
492 1 -1.1104 12.2458 5.32524 17.8652
493 1 -1.1104 12.1933 11.0524 17.8647
494 2 2.2208 10.7923 9.65122 19.3312
495 1 -1.1104 12.1935 5.43777 14.9514
497 1 -1.1104 12.2041 11.1566 15.0988
499 1 -1.1104 9.35195 8.18903 17.9132
500 2 2.2208 8.08485 6.79676 19.296
501 2 2.2208 8.00332 12.507 19.3561
502 1 -1.1104 9.43927 8.13122 15.2761
504 2 2.2208 7.98866 9.66169 16.6553
505 1 -1.1104 9.46521 5.37501 17.85
506 1 -1.1104 9.41905 11.0535 17.9238
507 1 -1.1104 9.31976 5.28753 15.0942
509 1 -1.1104 9.42448 10.9573 15.0424
496 1 -1.1104 12.2294 5.40549 20.6766
637 2 2.2208 13.6248 12.4508 19.414
510 1 -1.1104 9.38547 11.0384 20.6603
491 1 -1.1104 12.112 8.28439 20.8025
498 1 -1.1104 12.1529 10.9901 20.6234
514 2 2.2208 5.15958 18.0968 16.5018
515 1 -1.1104 0.982407 13.7261 17.9539
516 1 -1.1104 1.13532 19.3193 17.8411
519 1 -1.1104 1.00179 13.8484 15.0999
521 1 -1.1104 0.958674 19.3731 15.1347
527 1 -1.1104 1.02706 16.544 17.8414
529 2 2.2208 5.16326 15.1129 19.4697
530 2 2.2208 5.28717 20.9149 19.3771
531 1 -1.1104 1.01324 16.655 15.2029
535 1 -1.1104 3.72615 13.9567 18.046
536 1 -1.1104 3.76899 19.492 18.058
537 2 2.2208 2.54071 17.9926 19.4002
538 1 -1.1104 3.86347 14.0128 15.0679
540 1 -1.1104 3.87768 19.512 15.0173
542 2 2.2208 2.48608 15.2657 16.5395
543 2 2.2208 2.38807 20.7938 16.5734
544 1 -1.1104 3.7911 16.7026 17.9331
545 1 -1.1104 3.88887 16.7874 15.0357
541 1 -1.1104 4.03914 19.345 20.7146
534 1 -1.1104 6.749 16.791 20.7605
525 1 -1.1104 6.6031 19.5797 15.1136
517 1 -1.1104 6.37748 13.864 17.8808
523 1 -1.1104 6.64203 13.8293 15.0768
518 1 -1.1104 6.64245 19.4274 17.8695
539 1 -1.1104 3.72847 13.8306 20.7149
533 1 -1.1104 6.65758 16.7354 15.2387
524 1 -1.1104 6.55294 13.8742 20.7174
606 2 2.2208 13.5126 15.2637 16.5986
447 2 2.2208 13.5778 20.8274 16.3626
605 2 2.2208 13.6276 18.1196 19.3313
528 1 -1.1104 6.53421 16.6086 18.1237
550 2 2.2208 10.9546 18.0917 16.5828
551 1 -1.1104 12.1444 13.7412 17.9867
552 1 -1.1104 12.3474 19.5435 17.9078
553 1 -1.1104 12.2246 13.8783 15.0884
555 1 -1.1104 12.148 19.3934 15.0732
557 1 -1.1104 12.1604 16.7241 18.0802
558 2 2.2208 10.8439 15.2299 19.4337
559 2 2.2208 10.7941 20.9126 19.4488
560 1 -1.1104 12.2244 16.6765 15.2478
562 1 -1.1104 9.3142 13.9477 18.0214
563 1 -1.1104 9.50387 19.3844 18.0675
564 2 2.2208 8.03514 18.0587 19.3118
565 1 -1.1104 9.45861 13.7849 15.1949
567 1 -1.1104 9.22303 19.3255 15.1605
569 2 2.2208 8.00565 15.246 16.5385
570 2 2.2208 7.93322 20.8378 16.46
571 1 -1.1104 9.44563 16.6862 17.9438
572 1 -1.1104 9.58517 16.624 15.131
566 1 -1.1104 9.30179 13.9768 20.6432
554 1 -1.1104 12.239 13.7669 20.762
568 1 -1.1104 9.54742 19.3768 20.8544
561 1 -1.1104 12.2657 16.6461 20.8363
556 1 -1.1104 12.1995 19.5578 20.7533
402 1 -1.1104 3.90179 2.64339 20.6701
578 2 2.2208 5.34554 1.18957 22.0067
579 1 -1.1104 1.17788 -3.12821 23.3496
580 1 -1.1104 0.881503 2.65695 23.4584
583 1 -1.1104 1.12283 -3.19597 26.3286
584 1 -1.1104 0.908951 2.64405 26.2754
587 1 -1.1104 1.08448 -0.185583 23.6001
589 2 2.2208 5.36919 -1.57431 24.8507
590 2 2.2208 5.03311 3.9427 24.7554
591 1 -1.1104 1.08274 -0.21183 26.1986
593 1 -1.1104 3.9335 -3.06194 23.3632
594 1 -1.1104 3.68689 2.55491 23.3815
595 2 2.2208 2.36138 1.26709 24.9221
596 1 -1.1104 4.0831 -3.24861 26.1819
597 1 -1.1104 3.7491 2.61836 26.3667
598 2 2.2208 2.59375 -1.66638 22.079
599 2 2.2208 2.33306 4.0308 22.0975
600 1 -1.1104 3.90575 -0.302928 23.5409
601 1 -1.1104 3.85825 -0.364127 26.3598
356 2 2.2208 2.50757 -1.77828 27.6411
357 2 2.2208 2.20996 4.03614 27.5767
611 2 2.2208 -0.30509 -1.84056 24.9246
588 1 -1.1104 6.63986 -0.071381 23.417
355 2 2.2208 5.15172 1.175 27.7433
409 2 2.2208 13.5734 9.44021 22.1431
422 1 -1.1104 12.2611 -2.99496 20.6417
434 1 -1.1104 9.51064 -2.9331 20.6944
424 1 -1.1104 12.0999 2.74239 20.7137
436 1 -1.1104 9.37756 2.6496 20.8461
581 1 -1.1104 6.69896 -2.93514 23.2169
607 1 -1.1104 9.27827 13.7885 23.4819
582 1 -1.1104 6.52554 2.57496 23.4639
592 1 -1.1104 6.76817 -0.281815 26.3528
387 1 -1.1104 6.69405 2.53808 20.7036
586 1 -1.1104 6.51983 2.52143 26.0673
585 1 -1.1104 6.84371 -2.98923 26.2442
614 2 2.2208 10.8238 1.29663 21.9582
615 1 -1.1104 12.3681 -2.97154 23.4182
616 1 -1.1104 12.1339 2.60369 23.4321
617 1 -1.1104 12.3054 -2.93931 26.243
618 1 -1.1104 12.4014 2.63179 26.4151
619 1 -1.1104 12.3763 0.00151282 23.3261
620 2 2.2208 10.8616 -1.61231 24.8735
621 2 2.2208 10.8459 3.88169 24.8528
622 1 -1.1104 12.1944 -0.112239 26.3951
623 1 -1.1104 9.50122 -2.95821 23.6002
624 1 -1.1104 9.40937 2.4701 23.5329
625 2 2.2208 8.00098 1.25486 24.853
626 1 -1.1104 9.44985 -2.9244 26.5116
627 1 -1.1104 9.48708 2.64678 26.3299
628 2 2.2208 8.14964 -1.63739 22.0492
629 2 2.2208 7.98834 3.9435 22.1069
630 1 -1.1104 9.4533 -0.227299 23.4208
631 1 -1.1104 9.35398 -0.0688593 26.2703
361 2 2.2208 8.06174 -1.6194 27.8159
362 2 2.2208 7.97597 4.04633 27.5864
512 1 -1.1104 12.2305 19.3754 23.5543
471 1 -1.1104 6.63566 10.8905 20.7364
367 2 2.2208 5.27571 12.4179 27.5904
643 2 2.2208 5.24228 6.68287 21.9639
644 2 2.2208 5.12364 12.3631 22.1475
645 1 -1.1104 0.967567 8.27526 23.3121
647 1 -1.1104 0.945739 8.30794 26.2245
649 1 -1.1104 1.01005 5.46633 23.5593
650 1 -1.1104 1.01538 11.1072 23.3829
653 2 2.2208 5.17238 9.59518 24.9005
654 1 -1.1104 1.03761 5.5244 26.2566
655 1 -1.1104 1.05853 11.148 26.3029
658 1 -1.1104 3.68067 8.20485 23.328
659 2 2.2208 2.42365 6.88581 24.9839
660 2 2.2208 2.46302 12.394 25.0046
661 1 -1.1104 3.74912 8.24726 26.2859
662 2 2.2208 2.37303 9.64289 22.012
663 1 -1.1104 3.83716 5.33047 23.4068
664 1 -1.1104 3.73838 10.9717 23.5971
665 1 -1.1104 3.75366 5.36777 26.0496
666 1 -1.1104 3.79728 10.9888 26.2852
657 1 -1.1104 6.6034 10.9736 26.2318
651 1 -1.1104 6.63234 5.31419 23.4803
548 1 -1.1104 12.2602 19.5748 26.3738
365 2 2.2208 5.14196 6.78863 27.6664
652 1 -1.1104 6.5663 11.0479 23.623
374 2 2.2208 13.705 9.66376 27.6319
646 1 -1.1104 6.57583 8.19685 23.5553
656 1 -1.1104 6.71947 5.25348 26.1987
648 1 -1.1104 6.49311 8.28716 26.301
372 2 2.2208 10.8034 12.4052 27.6219
508 1 -1.1104 9.36728 5.59526 20.7428
695 2 2.2208 13.6959 12.329 24.9058
697 2 2.2208 13.5273 6.71115 25.0597
503 1 -1.1104 9.16909 8.30527 20.7128
674 1 -1.1104 9.57342 10.9764 26.2073
675 1 -1.1104 9.34409 5.35532 26.2737
676 1 -1.1104 9.48719 10.8771 23.4518
677 1 -1.1104 9.37969 5.26757 23.5475
678 2 2.2208 7.94303 9.6577 22.1619
679 1 -1.1104 9.41606 8.20279 26.352
680 2 2.2208 8.13965 12.4116 24.8629
681 2 2.2208 7.89947 6.67818 24.8301
682 2 2.2208 10.7348 6.90329 22.2064
683 2 2.2208 10.9399 12.3769 22.1752
684 1 -1.1104 12.174 8.19781 23.5938
685 1 -1.1104 12.2656 8.16894 26.4136
686 1 -1.1104 12.264 5.35306 23.3894
687 1 -1.1104 12.113 10.9526 23.6967
688 2 2.2208 10.752 9.49491 24.948
689 1 -1.1104 12.2098 5.3269 26.3391
690 1 -1.1104 12.2275 11.1459 26.2703
691 1 -1.1104 9.32229 8.02619 23.6009
370 2 2.2208 10.7981 6.75286 27.6379
371 2 2.2208 8.08021 9.5368 27.7084
532 1 -1.1104 1.18478 16.6382 20.7
546 1 -1.1104 3.91571 16.4988 20.6687
526 1 -1.1104 6.74576 19.5179 20.7563
699 1 -1.1104 6.6176 13.8071 26.2407
520 1 -1.1104 0.947783 13.8022 20.6723
701 1 -1.1104 6.51077 16.6181 26.2238
705 1 -1.1104 6.68085 19.537 23.5624
716 1 -1.1104 6.72323 16.6792 23.4818
522 1 -1.1104 1.00613 19.4597 20.7741
698 1 -1.1104 3.84619 19.3751 23.5003
700 1 -1.1104 3.75746 13.8468 23.5834
702 1 -1.1104 0.814413 19.4792 26.2374
703 1 -1.1104 1.23943 16.653 26.3037
704 1 -1.1104 1.08547 13.9058 26.2963
706 2 2.2208 5.23615 20.8415 24.9263
707 2 2.2208 5.20033 15.1996 24.7933
709 1 -1.1104 0.986531 19.6302 23.4284
710 1 -1.1104 1.11694 13.8984 23.4441
711 2 2.2208 5.30298 17.9454 22.0998
712 1 -1.1104 3.72122 19.4559 26.1931
713 2 2.2208 2.40541 18.1141 24.8952
714 1 -1.1104 3.87106 16.7545 26.3414
715 1 -1.1104 3.89196 13.7013 26.3034
717 1 -1.1104 1.05646 16.7707 23.4964
718 1 -1.1104 3.78348 16.5368 23.5496
719 2 2.2208 2.62412 20.8293 22.0972
720 2 2.2208 2.48735 15.2433 22.1458
633 1 -1.1104 6.73802 19.465 26.3829
708 1 -1.1104 6.62844 13.8229 23.4415
696 2 2.2208 2.55587 20.8274 27.7562
694 2 2.2208 5.33179 18.139 27.6429
373 2 2.2208 2.52368 15.2198 27.6986
668 1 -1.1104 9.50115 16.7241 23.4986
573 1 -1.1104 9.4923 16.725 20.7802
603 2 2.2208 10.8545 20.9102 24.8963
513 1 -1.1104 12.3515 13.8593 26.1772
642 2 2.2208 8.03158 15.3022 22.1285
574 1 -1.1104 12.1903 16.6162 23.5184
610 1 -1.1104 9.39059 19.5417 23.6328
450 2 2.2208 13.7823 20.7966 22.1552
669 1 -1.1104 9.44655 16.682 26.213
667 2 2.2208 8.16606 20.8681 22.1286
634 1 -1.1104 9.47301 13.7968 26.1928
639 1 -1.1104 9.53832 19.429 26.3118
448 2 2.2208 13.608 17.9807 24.8338
486 2 2.2208 10.9231 18.1186 22.1931
613 2 2.2208 -0.40549 4.01265 24.7882
417 2 2.2208 13.5896 15.2261 22.1711
602 2 2.2208 10.7901 15.219 24.9858
604 1 -1.1104 12.1462 16.6045 26.2899
511 1 -1.1104 12.3869 13.7059 23.467
411 2 2.2208 -0.256144 1.28813 16.5082
410 2 2.2208 13.6352 3.91713 22.149
635 2 2.2208 -0.354348 12.5049 16.574
641 2 2.2208 13.6493 1.15369 24.8181
575 2 2.2208 10.7392 15.0675 13.7821
339 2 2.2208 2.40824 1.21601 13.6444
343 2 2.2208 10.6564 -1.56969 13.7096
342 2 2.2208 8.03697 1.19219 13.5253
576 2 2.2208 8.00729 18.0925 13.7085
721 2 2.2208 5.30101 23.6471 5.33805
722 2 2.2208 5.19122 29.2858 5.28515
723 1 -1.1104 1.06147 24.9865 1.01672
724 1 -1.1104 0.904618 25.1017 3.84819
725 1 -1.1104 1.08435 22.3119 1.1073
726 1 -1.1104 1.08854 27.7733 0.973247
727 2 2.2208 5.24567 26.3407 2.37827
728 1 -1.1104 0.919875 22.2483 3.78104
729 1 -1.1104 1.17277 27.8472 3.82206
730 1 -1.1104 3.69968 25.0432 0.886914
731 2 2.2208 2.43861 23.7278 2.45502
732 2 2.2208 2.44941 29.2264 2.35508
733 1 -1.1104 3.81824 25.117 3.82004
734 2 2.2208 2.50747 26.5502 5.21585
735 1 -1.1104 3.87691 22.2939 1.1361
736 1 -1.1104 3.86134 27.9033 1.00808
737 1 -1.1104 3.76876 22.291 3.98486
738 1 -1.1104 3.95773 27.9113 3.80898
868 1 -1.1104 3.73671 25.0949 6.59574
870 1 -1.1104 3.85359 27.9796 6.60416
862 1 -1.1104 1.11242 25.1353 6.68515
1672 1 -1.1104 9.34336 47.697 6.60276
742 1 -1.1104 6.57276 25.0773 0.93181
745 1 -1.1104 6.73082 27.9591 0.981894
746 1 -1.1104 6.53584 22.2684 3.91396
747 1 -1.1104 6.7444 27.8633 3.92043
865 1 -1.1104 1.12299 27.8449 6.54865
863 1 -1.1104 6.70771 24.993 6.78967
739 2 2.2208 -0.307408 29.3254 5.16442
744 1 -1.1104 6.60605 22.2686 1.14161
743 1 -1.1104 6.62592 25.1296 3.89497
748 2 2.2208 10.6937 23.6121 5.32558
749 2 2.2208 10.8372 29.2281 5.35702
750 1 -1.1104 12.3348 25.1807 0.97687
751 1 -1.1104 12.0423 25.037 3.78366
752 1 -1.1104 12.1095 22.2134 1.12168
753 1 -1.1104 12.1244 27.9293 1.0561
754 2 2.2208 10.7073 26.4372 2.47065
755 1 -1.1104 12.1298 22.2044 3.93576
756 1 -1.1104 12.2405 27.8354 3.92347
757 1 -1.1104 9.41255 25.0812 1.14305
758 2 2.2208 7.91074 23.6304 2.37743
759 2 2.2208 8.00914 29.2426 2.41167
760 1 -1.1104 9.40599 25.0573 4.0281
761 2 2.2208 8.05061 26.4963 5.30944
762 1 -1.1104 9.47232 22.2894 1.07676
763 1 -1.1104 9.3585 27.8335 0.963408
764 1 -1.1104 9.25378 22.0875 3.85448
765 1 -1.1104 9.54093 27.8195 3.75962
766 2 2.2208 13.6616 23.5428 2.48659
899 1 -1.1104 9.4486 22.284 6.67013
896 1 -1.1104 12.1995 22.3273 6.6636
900 1 -1.1104 9.49324 27.831 6.69439
768 2 2.2208 13.5141 26.2449 5.26941
1082 2 2.2208 13.6625 40.4166 13.5701
769 2 2.2208 5.19436 34.9334 5.1903
770 1 -1.1104 0.943641 30.6304 1.068
771 1 -1.1104 1.01396 36.2562 1.15461
773 1 -1.1104 0.967789 30.6908 3.96373
774 1 -1.1104 0.863757 36.1042 3.90761
776 1 -1.1104 1.17892 33.544 0.884911
777 2 2.2208 5.26169 32.1149 2.46373
778 2 2.2208 5.09237 37.7639 2.43046
779 1 -1.1104 0.873411 33.3906 3.86648
781 1 -1.1104 3.76006 30.6433 0.82414
782 1 -1.1104 3.76201 36.3748 0.934707
783 2 2.2208 2.44033 34.749 2.42845
784 1 -1.1104 3.78976 30.467 3.80388
785 1 -1.1104 3.74544 36.2057 3.74658
786 2 2.2208 2.43151 32.1848 5.19195
787 2 2.2208 2.38989 37.6893 5.23715
788 1 -1.1104 3.91047 33.3311 1.02876
789 1 -1.1104 3.79256 33.5032 3.90243
1083 2 2.2208 2.42416 37.6547 -0.395472
775 1 -1.1104 6.493 36.3828 4.01339
791 2 2.2208 -0.312882 32.0389 2.29684
794 1 -1.1104 6.59618 30.685 3.81178
793 1 -1.1104 6.66169 30.5639 1.06444
772 1 -1.1104 6.6677 36.2764 1.14888
795 1 -1.1104 6.65391 33.4104 0.981628
923 1 -1.1104 1.11922 33.4726 6.57364
790 2 2.2208 -0.466868 37.6879 2.39385
921 1 -1.1104 6.74929 30.6933 6.70237
1088 2 2.2208 7.98811 37.6926 -0.286592
780 1 -1.1104 6.56829 33.496 3.80864
796 2 2.2208 10.8228 34.8488 5.31866
797 1 -1.1104 12.3203 30.6815 1.15426
798 1 -1.1104 12.1818 36.0969 1.00098
799 1 -1.1104 12.2514 30.5945 4.03832
800 1 -1.1104 12.361 36.1784 3.86054
801 1 -1.1104 12.1787 33.3503 0.954606
802 2 2.2208 10.9281 32.1281 2.4747
803 2 2.2208 10.7868 37.4117 2.31587
804 1 -1.1104 12.2916 33.5173 3.78434
805 1 -1.1104 9.49619 30.7432 0.933746
806 1 -1.1104 9.39315 36.0798 1.1583
807 2 2.2208 7.99348 34.7462 2.36341
808 1 -1.1104 9.53256 30.6834 3.72702
809 1 -1.1104 9.37826 36.1437 3.91202
810 2 2.2208 8.06394 32.0068 5.22058
811 2 2.2208 7.99696 37.7168 5.17688
812 1 -1.1104 9.39509 33.462 1.13462
813 1 -1.1104 9.48162 33.4235 3.97398
956 1 -1.1104 9.34982 30.762 6.7265
1026 1 -1.1104 12.129 38.921 12.2867
1038 2 2.2208 13.7057 37.5863 5.07225
1429 2 2.2208 5.27037 46.1132 -0.313776
815 2 2.2208 5.23402 40.3794 5.31087
816 2 2.2208 5.07022 46.1094 5.13568
817 1 -1.1104 0.890848 41.9266 1.04326
819 1 -1.1104 0.952935 41.8305 3.90499
821 1 -1.1104 0.981238 39.141 0.924794