ITEM: TIMESTEP
70000
ITEM: NUMBER OF ATOMS
17820
ITEM: BOX BOUNDS pp pp pp
-3.5603041510275846e-01 2.7696030415102143e+01
-4.2479134403015975e+00 3.3232791344030335e+02
-3.5893850616646816e-01 2.7698938506166741e+01
ITEM: ATOMS id type q x y z
1 2 2.2208 5.26111 1.4455 5.28258
2 1 -1.1104 1.21891 -2.93969 1.16033
3 1 -1.1104 1.12968 2.64052 1.0333
6 1 -1.1104 1.19734 -2.76144 3.73772
7 1 -1.1104 1.09745 2.87544 3.88066
10 1 -1.1104 1.16394 -0.0927096 0.989774
12 2 2.2208 5.40053 -1.37636 2.34697
13 2 2.2208 5.36031 4.08114 2.51426
14 1 -1.1104 1.07246 -0.0318556 3.73292
16 1 -1.1104 4.03421 -2.70632 0.938488
17 1 -1.1104 3.95759 2.67995 1.04857
18 2 2.2208 2.45164 1.40645 2.40821
19 1 -1.1104 3.82917 -2.87723 3.79695
20 1 -1.1104 4.00881 2.72691 3.89776
21 2 2.2208 2.48871 -1.40539 5.27339
23 1 -1.1104 3.92222 0.0260328 0.970432
24 1 -1.1104 3.97979 -0.0160513 3.89968
22 2 2.2208 2.54549 4.2415 5.21403
9090 2 2.2208 -0.249434 -4.11211 5.20094
347 2 2.2208 8.25602 15.4384 -0.262089
25 2 2.2208 -0.170652 -1.43027 2.40514
357 2 2.2208 2.59467 4.2207 -0.289796
369 2 2.2208 -0.352016 6.97484 -0.348044
9094 2 2.2208 2.59739 -4.26106 8.15105
105 2 2.2208 13.8569 7.03955 2.4884
199 2 2.2208 -0.265997 4.10945 8.0118
167 1 -1.1104 0.975901 2.70187 6.61933
321 1 -1.1104 9.59281 19.4904 12.4284
82 2 2.2208 -0.311691 9.69847 2.49619
15 1 -1.1104 6.90587 -0.00882329 3.80943
4 1 -1.1104 6.69531 -2.91232 0.96058
5 1 -1.1104 6.78381 2.72471 1.08702
8 1 -1.1104 6.61298 -2.7015 3.9049
9 1 -1.1104 6.76145 2.81162 3.93646
11 1 -1.1104 6.81829 -0.136198 1.08625
31 2 2.2208 10.9491 1.32201 5.23108
32 1 -1.1104 12.3021 -2.7507 1.0123
33 1 -1.1104 12.5005 2.76419 1.22638
34 1 -1.1104 12.3646 -2.86886 3.85106
35 1 -1.1104 12.3601 2.70198 4.04393
36 1 -1.1104 12.437 -0.026421 1.1951
37 2 2.2208 10.9664 -1.43926 2.39954
38 2 2.2208 11.0145 4.19852 2.49645
39 1 -1.1104 12.308 -0.0873734 3.86479
40 1 -1.1104 9.52112 -2.90159 0.943248
41 1 -1.1104 9.73521 2.75974 1.20095
42 2 2.2208 8.18006 1.29117 2.43728
43 1 -1.1104 9.61282 -2.85603 3.74149
44 1 -1.1104 9.41023 2.83135 3.9816
45 2 2.2208 8.11522 -1.42064 5.24183
46 2 2.2208 8.14731 4.17461 5.27099
47 1 -1.1104 9.60795 -0.037973 0.961829
48 1 -1.1104 9.59406 -0.0440634 3.77088
232 2 2.2208 13.7464 9.70217 5.22169
317 2 2.2208 8.06214 15.3696 10.9072
368 2 2.2208 -0.258417 12.6547 -0.347836
314 1 -1.1104 9.35116 16.7636 9.5381
83 2 2.2208 -0.328579 12.5283 5.27697
54 2 2.2208 5.41704 7.03512 5.28554
55 2 2.2208 5.23249 12.6278 5.34844
56 1 -1.1104 1.27667 8.41592 1.15879
58 1 -1.1104 1.13716 8.46695 4.10526
60 1 -1.1104 1.19483 5.47216 1.06286
61 1 -1.1104 1.18551 11.2587 1.05983
66 2 2.2208 5.37713 9.76799 2.55206
67 1 -1.1104 1.07428 5.77917 3.90515
68 1 -1.1104 1.08906 11.1648 3.73636
71 1 -1.1104 3.91295 8.4182 0.950518
72 2 2.2208 2.50853 7.01196 2.51719
73 2 2.2208 2.5625 12.6845 2.39332
74 1 -1.1104 3.86775 8.37352 3.86107
75 2 2.2208 2.47839 9.83341 5.29235
76 1 -1.1104 3.93693 5.64406 1.12288
77 1 -1.1104 3.92923 11.1054 1.117
79 1 -1.1104 3.95705 5.61495 3.8791
80 1 -1.1104 3.98486 11.2995 3.87135
9096 2 2.2208 -0.280107 -4.3017 10.9638
81 2 2.2208 -0.480462 7.03459 5.38044
325 2 2.2208 10.883 15.4648 8.11282
365 2 2.2208 5.25865 6.92046 -0.327329
9097 2 2.2208 8.20089 -4.27908 8.13093
366 2 2.2208 2.59438 9.82151 -0.337473
239 1 -1.1104 3.90434 5.76408 6.69314
57 1 -1.1104 6.77378 8.39184 1.00851
70 1 -1.1104 6.83597 11.1866 3.84182
69 1 -1.1104 6.7746 5.63668 3.68491
59 1 -1.1104 6.77371 8.40003 3.88727
64 1 -1.1104 6.66095 11.1876 1.17033
63 1 -1.1104 6.59861 5.33158 0.851998
84 2 2.2208 10.9437 6.9737 5.26569
85 2 2.2208 10.9096 12.5673 5.38202
86 1 -1.1104 12.3214 8.49637 1.11964
87 1 -1.1104 12.2834 8.33968 3.8382
88 1 -1.1104 12.3345 5.66199 1.07177
89 1 -1.1104 12.2442 11.3521 1.1154
91 2 2.2208 10.8644 9.92601 2.36367
92 1 -1.1104 12.4911 5.54412 3.96936
93 1 -1.1104 12.3249 11.2033 3.88177
94 1 -1.1104 9.52819 8.26574 0.996985
95 2 2.2208 8.10813 6.97443 2.47814
96 2 2.2208 8.18375 12.623 2.59297
97 1 -1.1104 9.52476 8.3258 3.82374
98 2 2.2208 8.09277 9.78134 5.313
99 1 -1.1104 9.37503 5.4992 1.02156
100 1 -1.1104 9.55517 11.1631 0.979397
102 1 -1.1104 9.64384 5.62036 3.72804
103 1 -1.1104 9.60755 11.1993 4.04549
315 1 -1.1104 9.42191 16.8535 12.3117
319 1 -1.1104 9.38705 13.9387 9.65785
90 1 -1.1104 12.2822 11.0621 6.643
339 2 2.2208 2.45198 1.32678 13.6911
373 2 2.2208 2.66664 15.474 -0.260535
136 2 2.2208 -0.205802 21.1404 2.51054
696 2 2.2208 2.50333 20.9744 -0.175893
106 2 2.2208 5.28533 18.2269 5.43708
107 1 -1.1104 1.2457 14.1752 1.11451
109 1 -1.1104 1.14187 19.8767 1.17873
113 1 -1.1104 1.14327 13.9803 3.93446
114 1 -1.1104 1.01954 19.5932 3.9895
116 1 -1.1104 1.31632 16.8674 1.08936
119 2 2.2208 5.39806 15.4918 2.66598
120 2 2.2208 5.37949 21.0053 2.54163
121 1 -1.1104 0.949704 16.7529 3.97673
123 1 -1.1104 4.03155 13.9593 1.09218
125 1 -1.1104 3.85884 19.5571 1.03243
127 2 2.2208 2.56482 18.3189 2.43491
128 1 -1.1104 3.88579 14.0728 3.88532
129 1 -1.1104 3.84299 19.5415 3.88058
130 2 2.2208 2.43605 15.3395 5.22379
131 2 2.2208 2.42325 20.9814 5.38123
132 1 -1.1104 4.08657 16.9003 1.16906
134 1 -1.1104 3.71882 16.8256 3.95776
137 2 2.2208 -0.39109 18.1718 5.46142
692 2 2.2208 -0.180462 18.2519 -0.190511
302 1 -1.1104 1.17217 19.5167 6.82865
124 1 -1.1104 3.92772 14.0146 6.84267
126 1 -1.1104 3.86941 19.566 6.79686
694 2 2.2208 5.27223 18.1723 -0.348336
143 1 -1.1104 12.2455 14.0856 6.69854
138 1 -1.1104 6.63496 19.6455 1.23927
140 1 -1.1104 6.77393 16.7218 1.14624
111 1 -1.1104 6.68611 13.9374 6.73413
122 1 -1.1104 6.6167 16.962 4.03139
110 1 -1.1104 6.78977 14.0177 1.16615
115 1 -1.1104 6.59573 14.0542 4.01064
139 1 -1.1104 6.7956 19.7259 3.95079
141 2 2.2208 10.8779 18.2401 5.29963
142 1 -1.1104 12.3029 13.9558 1.01502
144 1 -1.1104 12.2828 19.5589 1.22505
146 1 -1.1104 12.3007 13.8974 3.9126
147 1 -1.1104 12.4988 19.6623 3.86936
148 1 -1.1104 12.3415 16.7729 1.2331
150 2 2.2208 11.027 15.2605 2.52014
151 2 2.2208 10.8558 20.9566 2.59773
152 1 -1.1104 12.3658 16.835 3.98956
153 1 -1.1104 9.57476 13.9911 1.30235
155 1 -1.1104 9.46036 19.6349 1.16259
157 2 2.2208 8.06107 18.1511 2.5292
158 1 -1.1104 9.52237 13.9248 4.10833
159 1 -1.1104 9.58124 19.5309 3.89223
160 2 2.2208 8.17636 15.3636 5.39504
161 2 2.2208 8.1167 21.1622 5.38337
162 1 -1.1104 9.56172 16.8405 1.07876
164 1 -1.1104 9.51382 16.779 3.98061
9091 2 2.2208 8.28824 -4.27087 2.36076
9089 2 2.2208 5.36135 -4.23496 5.1933
316 2 2.2208 8.02478 20.9998 10.9804
173 1 -1.1104 3.89085 2.93124 6.58814
166 1 -1.1104 1.09666 -2.77619 6.69787
172 1 -1.1104 3.98205 -2.58262 6.63632
174 1 -1.1104 4.0296 0.236328 6.76918
170 1 -1.1104 1.08085 0.0485464 6.57739
200 2 2.2208 -0.260564 -1.53844 8.03373
175 2 2.2208 5.40314 1.31114 10.9163
176 1 -1.1104 1.28167 -2.79957 12.318
177 1 -1.1104 1.09275 2.67994 12.2114
180 1 -1.1104 1.17967 -2.92086 9.37901
181 1 -1.1104 1.16586 2.77778 9.35132
184 1 -1.1104 1.11187 -0.165182 12.1327
186 2 2.2208 5.40243 -1.44809 8.16265
187 2 2.2208 5.32616 4.17914 8.1328
188 1 -1.1104 1.33489 -0.0731157 9.2873
190 1 -1.1104 4.06422 -2.86253 12.1511
191 1 -1.1104 3.80448 2.76089 12.375
192 2 2.2208 2.58234 1.40885 8.07049
193 1 -1.1104 4.04912 -2.77335 9.48236
194 1 -1.1104 3.99906 2.75829 9.49448
195 2 2.2208 2.60626 -1.42239 10.7985
196 2 2.2208 2.46894 4.06521 10.8268
197 1 -1.1104 3.90002 0.0562513 12.3923
198 1 -1.1104 4.02841 0.012008 9.64433
201 2 2.2208 -0.251318 1.38178 10.8141
209 1 -1.1104 9.57938 2.65438 6.74534
183 1 -1.1104 6.67736 2.81379 9.70202
168 1 -1.1104 6.72475 -2.87414 6.54483
205 1 -1.1104 12.2157 -2.80755 6.6141
169 1 -1.1104 6.57724 2.8493 6.73222
182 1 -1.1104 6.92445 -2.90294 9.33133
171 1 -1.1104 6.72435 0.0549378 6.77763
210 1 -1.1104 9.42032 -0.0462091 6.59649
185 1 -1.1104 6.89806 -0.0627376 12.3442
178 1 -1.1104 6.83825 -2.82046 12.3233
206 1 -1.1104 12.3548 2.58803 6.74508
207 1 -1.1104 12.2113 0.0234357 6.71194
179 1 -1.1104 6.79986 2.69914 12.443
208 1 -1.1104 9.54715 -2.72778 6.62525
189 1 -1.1104 6.6034 -0.0221173 9.50413
211 2 2.2208 10.8148 1.29303 10.8431
212 1 -1.1104 12.3076 -2.73814 12.2304
213 1 -1.1104 12.241 2.81194 12.2972
214 1 -1.1104 12.4183 -2.76256 9.38183
215 1 -1.1104 12.248 2.82177 9.5473
216 1 -1.1104 12.3936 0.0767516 12.2937
217 2 2.2208 10.9264 -1.55839 8.01862
218 2 2.2208 10.969 4.11187 8.07767
219 1 -1.1104 12.2369 -0.12293 9.59074
220 1 -1.1104 9.51469 -2.93621 12.2053
221 1 -1.1104 9.42027 2.78896 12.3317
222 2 2.2208 8.06762 1.36995 8.10922
223 1 -1.1104 9.72566 -3.03607 9.51254
224 1 -1.1104 9.43247 2.74397 9.50798
225 2 2.2208 8.21637 -1.51461 10.8741
226 2 2.2208 8.19888 4.14243 10.9191
227 1 -1.1104 9.66365 0.0159167 12.2852
228 1 -1.1104 9.34233 -0.150011 9.41137
234 1 -1.1104 1.10135 8.45636 6.87155
238 1 -1.1104 3.95475 8.43642 6.90694
62 1 -1.1104 1.13251 11.1515 6.64758
236 1 -1.1104 1.06995 5.56018 6.83519
360 2 2.2208 10.9888 1.4018 -0.182383
78 1 -1.1104 3.84521 11.2569 6.56023
240 2 2.2208 5.30833 7.06972 10.9484
241 2 2.2208 5.28502 12.6287 10.8689
242 1 -1.1104 1.09807 8.41926 12.3293
244 1 -1.1104 0.932676 8.55724 9.55053
246 1 -1.1104 1.06912 5.51275 12.2864
247 1 -1.1104 1.11475 11.3954 12.5136
250 2 2.2208 5.27294 9.89967 8.10639
251 1 -1.1104 1.16896 5.57012 9.69022
252 1 -1.1104 1.09724 11.2741 9.44046
255 1 -1.1104 3.82695 8.37001 12.3651
256 2 2.2208 2.56801 7.00992 8.09701
257 2 2.2208 2.4784 12.5762 8.1457
258 1 -1.1104 3.97367 8.49242 9.75151
259 2 2.2208 2.41869 9.84483 11.0024
260 1 -1.1104 3.84841 5.49048 12.2056
261 1 -1.1104 3.93277 11.2296 12.3707
262 1 -1.1104 4.04912 5.63386 9.47891
263 1 -1.1104 3.89401 11.3452 9.33815
135 2 2.2208 -0.238708 15.5 2.51222
26 2 2.2208 -0.337711 1.38019 5.10695
253 1 -1.1104 6.79868 5.66802 9.51025
331 2 2.2208 10.8861 18.2702 10.9263
101 1 -1.1104 9.5835 11.1746 6.83633
330 1 -1.1104 12.2785 14.0749 12.3271
235 1 -1.1104 6.60611 8.47049 6.65258
237 1 -1.1104 6.82241 5.52034 6.6269
65 1 -1.1104 6.55563 11.1635 6.55497
265 1 -1.1104 12.2215 8.29777 6.6572
266 1 -1.1104 12.3667 5.3689 6.67645
248 1 -1.1104 6.60691 5.6256 12.3768
243 1 -1.1104 6.68947 8.51554 12.248
254 1 -1.1104 6.73703 11.1952 9.38754
245 1 -1.1104 6.71128 8.42314 9.54992
249 1 -1.1104 6.71153 11.3667 12.2825
267 1 -1.1104 9.53307 8.39152 6.57158
269 1 -1.1104 9.63534 5.49215 6.59954
264 1 -1.1104 9.44042 11.2832 9.58052
268 1 -1.1104 9.5974 5.60783 9.44144
270 1 -1.1104 9.46507 11.1756 12.4123
271 1 -1.1104 9.5306 5.48412 12.2915
272 2 2.2208 8.09247 9.8327 10.9989
273 1 -1.1104 9.60635 8.45785 9.4693
274 2 2.2208 8.10843 12.5243 8.14219
275 2 2.2208 8.16601 6.98213 8.08588
276 2 2.2208 10.859 6.94482 10.8851
277 2 2.2208 10.841 12.7093 10.9193
278 1 -1.1104 12.2366 8.46032 12.3758
279 1 -1.1104 12.5037 8.29582 9.5675
280 1 -1.1104 12.2508 5.62209 12.1754
281 1 -1.1104 12.2418 11.223 12.2903
282 2 2.2208 11.0274 9.83586 8.14057
283 1 -1.1104 12.3433 5.55015 9.47001
284 1 -1.1104 12.3209 11.1977 9.51313
285 1 -1.1104 9.4784 8.27481 12.4082
312 2 2.2208 -0.360903 18.1842 10.9131
133 1 -1.1104 3.93016 16.7497 6.62483
320 2 2.2208 8.13633 18.2425 8.08336
108 1 -1.1104 1.21182 13.8644 6.84654
117 1 -1.1104 1.00242 16.7323 6.79005
313 2 2.2208 -0.281261 15.3538 8.16487
372 2 2.2208 10.9466 12.5947 -0.353596
304 1 -1.1104 3.74372 16.7259 9.54474
310 2 2.2208 2.45895 15.3401 11.0102
305 1 -1.1104 3.68647 13.8963 9.63268
309 2 2.2208 2.49775 20.9664 10.9504
308 1 -1.1104 3.9477 16.7907 12.2571
307 1 -1.1104 1.03336 16.7464 12.3754
286 1 -1.1104 4.08006 19.616 12.5165
287 1 -1.1104 3.90147 14.0611 12.3359
291 1 -1.1104 1.12034 19.6278 9.5175
292 1 -1.1104 1.07699 16.883 9.74493
293 2 2.2208 5.2784 20.9824 8.18155
294 1 -1.1104 0.928186 14.0402 9.56895
295 2 2.2208 5.22674 15.4433 8.10862
298 1 -1.1104 1.06225 19.539 12.3736
299 1 -1.1104 1.14361 14.1524 12.4329
300 2 2.2208 5.31797 18.2079 11.1062
301 1 -1.1104 3.94672 19.4658 9.69873
303 2 2.2208 2.51786 18.1381 8.1626
306 1 -1.1104 6.83725 16.9404 12.38
288 1 -1.1104 6.75614 19.7595 9.46129
324 2 2.2208 10.8811 21.0685 8.17272
112 1 -1.1104 6.58229 19.6233 6.70232
118 1 -1.1104 6.71446 16.8265 6.91107
145 1 -1.1104 12.4044 19.6392 6.68654
322 1 -1.1104 9.40505 14.0332 12.2271
289 1 -1.1104 6.5156 16.7455 9.74712
163 1 -1.1104 9.53667 16.6796 6.68387
154 1 -1.1104 9.55075 13.9576 6.91053
156 1 -1.1104 9.45497 19.5925 6.65867
326 1 -1.1104 12.254 16.6928 12.146
323 1 -1.1104 12.1704 16.8301 9.384
327 1 -1.1104 12.2236 19.5699 9.42835
318 1 -1.1104 9.51009 19.7175 9.54867
290 1 -1.1104 6.58749 14.0901 9.45338
297 1 -1.1104 6.65891 14.0769 12.2895
149 1 -1.1104 12.3378 16.8714 6.75095
296 1 -1.1104 6.78838 19.6434 12.3296
329 1 -1.1104 12.3789 19.5409 12.3257
328 1 -1.1104 12.3385 14.0489 9.42763
371 2 2.2208 8.14793 9.83496 -0.327082
9098 2 2.2208 10.9788 -4.37115 10.943
364 2 2.2208 13.7771 4.18209 -0.292618
338 2 2.2208 5.29077 -1.44295 13.7062
484 2 2.2208 10.9822 18.4151 -0.146235
362 2 2.2208 8.23218 4.08288 -0.463513
361 2 2.2208 8.05935 -1.47651 -0.48677
367 2 2.2208 5.43397 12.6093 -0.319509
342 2 2.2208 8.1364 1.28687 13.7253
375 2 2.2208 5.32936 1.39258 16.3926
376 1 -1.1104 1.12302 -2.77597 17.884
377 1 -1.1104 1.3039 2.63831 17.9254
380 1 -1.1104 1.17233 -2.67771 15.0226
382 1 -1.1104 0.989056 2.66307 15.0122
388 1 -1.1104 1.15798 0.108937 17.9378
390 2 2.2208 5.34668 -1.47868 19.1183
392 1 -1.1104 1.144 0.0330359 15.0937
396 1 -1.1104 3.92991 -2.8172 17.7639
397 1 -1.1104 3.94173 2.71947 17.8514
398 2 2.2208 2.54166 1.29151 19.2254
399 1 -1.1104 3.91356 -2.90353 14.9843
401 1 -1.1104 3.90427 2.63599 14.9994
403 2 2.2208 2.50397 -1.43129 16.5443
404 2 2.2208 2.7125 4.16422 16.5917
405 1 -1.1104 3.92342 -0.127956 17.7661
406 1 -1.1104 3.82158 -0.092476 15.1438
391 2 2.2208 5.29384 4.16234 19.3422
9237 2 2.2208 -0.313424 -4.16536 16.4243
526 1 -1.1104 6.75934 19.4816 20.7505
411 2 2.2208 -0.253505 1.31132 16.4971
349 2 2.2208 2.55184 12.5981 13.7229
549 2 2.2208 5.36361 15.444 13.6442
445 2 2.2208 -0.243891 20.9517 19.3369
671 2 2.2208 -0.264694 9.91076 24.8952
513 1 -1.1104 12.4122 14.0932 26.3102
511 1 -1.1104 12.3769 13.8667 23.3729
384 1 -1.1104 6.59785 -2.7946 14.9176
379 1 -1.1104 6.71762 2.72772 17.9299
378 1 -1.1104 6.75563 -2.79562 17.8087
386 1 -1.1104 6.64935 2.83318 15.1868
389 1 -1.1104 6.77866 -0.0639607 17.8086
394 1 -1.1104 6.80671 -0.0279429 15.0259
418 2 2.2208 10.8971 1.35647 16.425
419 1 -1.1104 12.4878 -2.82987 17.8627
420 1 -1.1104 12.2997 2.75984 17.9303
421 1 -1.1104 12.4776 -2.81464 15.2772
423 1 -1.1104 12.3486 2.71888 15.195
425 1 -1.1104 12.4384 0.0610275 18.047
426 2 2.2208 10.9866 -1.46539 19.288
427 2 2.2208 10.9234 4.04362 19.205
428 1 -1.1104 12.2828 -0.0877907 15.1739
430 1 -1.1104 9.42612 -2.83578 18.0637
431 1 -1.1104 9.44929 2.58682 17.8153
432 2 2.2208 8.23633 1.29207 19.2353
433 1 -1.1104 9.53656 -2.83183 15.0834
435 1 -1.1104 9.50044 2.79518 15.0139
437 2 2.2208 8.15831 -1.42119 16.4403
438 2 2.2208 8.03656 4.13568 16.5632
439 1 -1.1104 9.66394 -0.111783 17.9652
440 1 -1.1104 9.47686 -0.00221451 15.0505
9167 2 2.2208 10.9585 -4.22263 22.2229
343 2 2.2208 11.0423 -1.37774 13.6957
9236 2 2.2208 5.44363 -4.27682 16.4685
9109 2 2.2208 -0.279014 -4.201 27.7605
9205 2 2.2208 8.14146 -4.19135 19.5101
635 2 2.2208 -0.418306 12.5762 16.5734
451 2 2.2208 5.2839 6.94199 16.447
452 2 2.2208 5.31137 12.5905 16.4913
453 1 -1.1104 1.03326 8.48093 18.0195
455 1 -1.1104 1.08268 8.44669 15.1393
459 1 -1.1104 1.08931 5.41253 17.9595
460 1 -1.1104 1.17921 11.4431 18.013
463 2 2.2208 5.19305 9.88776 19.3839
464 1 -1.1104 1.13871 5.70465 15.1304
466 1 -1.1104 1.06586 11.212 15.2522
472 1 -1.1104 3.85775 8.46088 17.9398
473 2 2.2208 2.49696 6.92383 19.3311
474 2 2.2208 2.58128 12.7312 19.3075
475 1 -1.1104 3.77399 8.30016 15.1045
477 2 2.2208 2.47792 9.83627 16.6326
478 1 -1.1104 3.99543 5.67048 17.8188
479 1 -1.1104 3.92313 11.3167 17.9681
480 1 -1.1104 3.96534 5.42678 15.0144
482 1 -1.1104 3.95627 11.0475 15.2017
456 1 -1.1104 1.2203 8.30509 20.6144
9204 2 2.2208 -0.438488 -4.14797 22.0492
348 2 2.2208 5.23528 9.72197 13.7604
410 2 2.2208 13.8525 4.14215 22.1821
346 2 2.2208 2.43928 6.98121 13.6057
350 2 2.2208 8.14881 6.97559 13.7466
454 1 -1.1104 6.63415 8.50294 17.8894
470 1 -1.1104 6.75693 11.0249 15.0303
461 1 -1.1104 6.75103 5.6028 17.8307
457 1 -1.1104 6.72655 8.26213 15.0226
468 1 -1.1104 6.72639 5.47802 15.1271
462 1 -1.1104 6.50614 11.2839 17.8953
487 2 2.2208 10.9361 6.83472 16.4671
488 2 2.2208 11.0344 12.5381 16.519
489 1 -1.1104 12.3082 8.41752 18.041
490 1 -1.1104 12.3834 8.35961 15.1756
492 1 -1.1104 12.3139 5.64244 17.8496
493 1 -1.1104 12.2663 11.1145 17.8689
494 2 2.2208 10.9114 9.75408 19.3252
495 1 -1.1104 12.2126 5.55925 15.0026
497 1 -1.1104 12.5306 11.0853 14.9651
499 1 -1.1104 9.51487 8.30579 17.9363
500 2 2.2208 8.23214 7.08221 19.2418
501 2 2.2208 8.13076 12.6096 19.2595
502 1 -1.1104 9.52362 8.31151 15.0691
504 2 2.2208 8.04279 9.7731 16.4709
505 1 -1.1104 9.55212 5.40723 18.0488
506 1 -1.1104 9.46834 11.1907 17.7562
507 1 -1.1104 9.5074 5.55172 15.1886
509 1 -1.1104 9.55755 11.2228 15.0232
351 2 2.2208 10.9288 9.85852 13.7072
352 2 2.2208 8.09977 12.6329 13.69
353 2 2.2208 5.36911 21.0428 13.6787
547 2 2.2208 2.50969 18.1655 13.6524
443 2 2.2208 -0.208413 18.3884 16.4212
444 2 2.2208 -0.2335 15.5639 19.2497
514 2 2.2208 5.33509 18.1954 16.461
515 1 -1.1104 1.1644 14.1582 18.0141
516 1 -1.1104 1.20241 19.8021 17.9354
519 1 -1.1104 1.14061 14.0368 15.2749
521 1 -1.1104 1.25927 19.8471 15.1849
527 1 -1.1104 1.12691 17.0518 17.7902
529 2 2.2208 5.42426 15.3991 19.4056
530 2 2.2208 5.41252 20.9632 19.4272
531 1 -1.1104 1.17235 16.9799 15.0818
535 1 -1.1104 4.11258 14.0752 17.9631
536 1 -1.1104 3.94866 19.3883 18.0082
537 2 2.2208 2.58949 18.2407 19.3456
538 1 -1.1104 3.98647 14.0528 15.1131
540 1 -1.1104 4.01969 19.5041 15.2037
542 2 2.2208 2.61424 15.4827 16.4999
543 2 2.2208 2.71415 20.9874 16.5598
544 1 -1.1104 4.01374 16.7508 17.7352
545 1 -1.1104 4.03711 16.7004 14.9081
532 1 -1.1104 1.27701 16.7941 20.6058
335 2 2.2208 -0.13603 21.0046 13.772
670 2 2.2208 -0.21602 18.2475 22.1946
561 1 -1.1104 12.4516 16.8543 20.7409
632 2 2.2208 8.17186 18.1636 24.9151
523 1 -1.1104 6.77472 13.9368 15.0683
575 2 2.2208 10.8779 15.4396 13.7312
528 1 -1.1104 6.80031 16.9333 17.9651
533 1 -1.1104 6.80898 16.6981 15.1668
518 1 -1.1104 6.79949 19.8097 17.9458
525 1 -1.1104 6.62158 19.5022 15.1896
517 1 -1.1104 6.77828 14.0999 17.9471
550 2 2.2208 10.9277 18.2941 16.5259
551 1 -1.1104 12.406 13.8977 17.899
552 1 -1.1104 12.4057 19.6479 18.0924
553 1 -1.1104 12.4771 13.9524 15.1587
555 1 -1.1104 12.3586 19.6749 15.2023
557 1 -1.1104 12.4904 16.7136 17.9533
558 2 2.2208 11.0387 15.4403 19.2306
559 2 2.2208 10.9372 21.0552 19.4334
560 1 -1.1104 12.2981 16.8023 14.9589
562 1 -1.1104 9.6182 14.0105 17.9773
563 1 -1.1104 9.49794 19.6164 17.8712
564 2 2.2208 8.25538 18.2119 19.2578
565 1 -1.1104 9.65468 14.0589 15.2414
567 1 -1.1104 9.59835 19.6825 15.1003
569 2 2.2208 8.17039 15.4033 16.4984
570 2 2.2208 8.18141 21.0672 16.6332
571 1 -1.1104 9.59025 16.8386 17.8387
572 1 -1.1104 9.50891 16.9233 15.1859
566 1 -1.1104 9.62593 14.1617 20.7884
573 1 -1.1104 9.72609 16.7891 20.6179
716 1 -1.1104 6.82071 16.7825 23.5056
354 2 2.2208 11.0048 20.9525 13.7823
393 1 -1.1104 1.08483 0.137415 20.5889
407 1 -1.1104 3.8777 -0.0959605 20.6756
345 2 2.2208 10.7994 4.2257 13.7271
381 1 -1.1104 1.16335 -2.74183 20.7384
611 2 2.2208 -0.375038 -1.31441 24.889
402 1 -1.1104 3.90179 2.84162 20.6823
383 1 -1.1104 1.03073 2.67806 20.5616
613 2 2.2208 -0.222035 4.17572 24.8481
400 1 -1.1104 3.80554 -2.8634 20.4942
578 2 2.2208 5.26759 1.33398 22.1919
579 1 -1.1104 1.0074 -2.76429 23.5791
580 1 -1.1104 1.02363 2.61377 23.5282
583 1 -1.1104 1.02381 -2.72565 26.2869
584 1 -1.1104 1.28494 2.82073 26.2755
587 1 -1.1104 1.00941 -0.0485462 23.5982
589 2 2.2208 5.40326 -1.5532 24.7982
591 1 -1.1104 1.0895 0.0469033 26.3274
593 1 -1.1104 3.85579 -2.77462 23.4678
594 1 -1.1104 3.87113 2.79335 23.4739
595 2 2.2208 2.49922 1.33581 24.8768
596 1 -1.1104 3.809 -2.82271 26.1857
597 1 -1.1104 4.09905 2.77387 26.2014
598 2 2.2208 2.49657 -1.44448 22.0884
599 2 2.2208 2.47902 4.14968 22.1607
600 1 -1.1104 3.95751 -0.10569 23.52
601 1 -1.1104 4.08297 -0.118861 26.1703
590 2 2.2208 5.36049 4.16816 24.866
448 2 2.2208 13.6191 18.2532 24.9554
387 1 -1.1104 6.79056 2.72972 20.8171
395 1 -1.1104 6.70862 -0.109553 20.793
9170 2 2.2208 5.22702 -4.17593 22.1347
424 1 -1.1104 12.4408 2.67612 20.7563
385 1 -1.1104 6.57305 -2.88282 20.648
436 1 -1.1104 9.5436 2.64384 20.5531
422 1 -1.1104 12.3356 -2.91232 20.6364
429 1 -1.1104 12.2687 -0.146077 20.7001
582 1 -1.1104 6.67424 2.86775 23.5015
588 1 -1.1104 6.70633 -0.0655186 23.5989
592 1 -1.1104 6.71767 -0.193876 26.2953
586 1 -1.1104 6.75483 2.61509 26.2472
434 1 -1.1104 9.52446 -2.89953 20.8887
585 1 -1.1104 6.71188 -3.0038 26.2352
441 1 -1.1104 9.49657 -0.0950478 20.6644
581 1 -1.1104 6.78168 -2.82047 23.3652
614 2 2.2208 10.905 1.4507 21.9998
615 1 -1.1104 12.3629 -2.89634 23.555
616 1 -1.1104 12.4772 2.79008 23.5
617 1 -1.1104 12.3928 -2.90013 26.2316
618 1 -1.1104 12.3124 2.74035 26.3822
619 1 -1.1104 12.4964 -0.052307 23.47
620 2 2.2208 10.8702 -1.19968 24.9983
621 2 2.2208 10.9619 4.15661 24.8887
622 1 -1.1104 12.3447 -0.0117152 26.2878
623 1 -1.1104 9.54092 -2.71139 23.4726
624 1 -1.1104 9.52916 2.80437 23.5602
625 2 2.2208 8.04641 1.28417 24.9735
626 1 -1.1104 9.56372 -2.68197 26.1829
627 1 -1.1104 9.58852 2.73268 26.2241
628 2 2.2208 8.1484 -1.42746 22.0816
629 2 2.2208 8.17033 4.15633 22.0569
630 1 -1.1104 9.45047 0.0939863 23.4682
631 1 -1.1104 9.53793 0.0441272 26.4304
667 2 2.2208 8.0721 20.9278 22.1204
483 1 -1.1104 3.92943 11.2397 20.7955
481 1 -1.1104 3.99371 5.52984 20.7383
467 1 -1.1104 1.25704 11.2735 20.6746
465 1 -1.1104 1.15275 5.4247 20.6842
476 1 -1.1104 3.90654 8.33969 20.5433
576 2 2.2208 8.01689 18.224 13.8481
672 2 2.2208 -0.212208 12.7744 22.0982
643 2 2.2208 5.35657 6.94235 22.0176
644 2 2.2208 5.29325 12.6308 22.0146
645 1 -1.1104 1.25804 8.39837 23.5691
647 1 -1.1104 1.03117 8.50073 26.3853
649 1 -1.1104 1.24385 5.59898 23.414
650 1 -1.1104 1.13367 11.2375 23.5217
653 2 2.2208 5.40336 9.73005 24.8652
654 1 -1.1104 0.991772 5.68928 26.3291
655 1 -1.1104 1.11321 11.2096 26.2688
658 1 -1.1104 3.93777 8.46932 23.4348
659 2 2.2208 2.57982 7.03119 24.807
660 2 2.2208 2.69505 12.6994 25.0123
661 1 -1.1104 3.99649 8.38478 26.2233
662 2 2.2208 2.44503 9.90919 22.0871
663 1 -1.1104 3.96633 5.64125 23.5438
664 1 -1.1104 3.8279 11.378 23.5282
665 1 -1.1104 3.84164 5.63038 26.2726
666 1 -1.1104 3.92725 11.1928 26.3617
414 2 2.2208 -0.302096 4.16372 19.32
646 1 -1.1104 6.70074 8.33899 23.4198
9235 2 2.2208 2.45208 -4.18475 19.271
458 1 -1.1104 6.74281 8.34354 20.7854
471 1 -1.1104 6.74394 11.2565 20.7548
510 1 -1.1104 9.44786 11.3609 20.5806
503 1 -1.1104 9.63284 8.41235 20.7394
498 1 -1.1104 12.1802 11.2547 20.6895
469 1 -1.1104 6.82272 5.61175 20.5543
496 1 -1.1104 12.4542 5.36531 20.6543
508 1 -1.1104 9.59938 5.51574 20.7617
656 1 -1.1104 6.77378 5.61259 26.1667
648 1 -1.1104 6.74745 8.35416 26.1672
657 1 -1.1104 6.84464 11.2485 26.253
651 1 -1.1104 6.74012 5.67028 23.3406
652 1 -1.1104 6.76117 11.1104 23.5244
491 1 -1.1104 12.5048 8.36886 20.7888
674 1 -1.1104 9.57904 11.1174 26.1984
675 1 -1.1104 9.66736 5.62893 26.1876
676 1 -1.1104 9.51969 11.1646 23.4332
677 1 -1.1104 9.56961 5.48805 23.5275
678 2 2.2208 8.09244 9.71857 22.1487
679 1 -1.1104 9.57462 8.36559 26.3103
680 2 2.2208 8.1926 12.5878 24.9103
681 2 2.2208 8.11094 6.98746 24.9024
682 2 2.2208 11.0464 6.90732 22.1846
683 2 2.2208 10.9155 12.6401 22.1172
684 1 -1.1104 12.265 8.34097 23.5888
685 1 -1.1104 12.4233 8.50612 26.3375
686 1 -1.1104 12.408 5.45025 23.6529
687 1 -1.1104 12.2274 11.2489 23.6233
688 2 2.2208 10.9207 9.77416 24.9151
689 1 -1.1104 12.4529 5.60589 26.359
690 1 -1.1104 12.3816 11.2608 26.5078
691 1 -1.1104 9.48236 8.27143 23.4774
522 1 -1.1104 1.17676 19.5856 20.7384
520 1 -1.1104 1.11655 13.938 20.6788
541 1 -1.1104 3.90252 19.6855 20.7254
673 2 2.2208 -0.277618 20.9942 25.0185
539 1 -1.1104 3.88457 14.0821 20.8131
356 2 2.2208 2.56885 -1.42195 27.6633
693 2 2.2208 -0.125025 15.5024 24.9347
546 1 -1.1104 4.13818 16.904 20.6055
720 2 2.2208 2.54688 15.4493 22.1558
719 2 2.2208 2.42781 21.1921 22.1231
698 1 -1.1104 3.99509 19.5675 23.477
700 1 -1.1104 4.03339 14.0425 23.5216
702 1 -1.1104 1.21802 19.629 26.3337
703 1 -1.1104 1.13726 16.8931 26.3506
704 1 -1.1104 1.17832 14.0675 26.3427
706 2 2.2208 5.14394 21.0293 25.064
707 2 2.2208 5.29413 15.5454 24.9881
709 1 -1.1104 1.04247 19.7014 23.5288
710 1 -1.1104 1.26856 14.0963 23.5065
711 2 2.2208 5.32852 18.1904 22.0609
712 1 -1.1104 3.95041 19.7109 26.3687
713 2 2.2208 2.53925 18.3512 24.9362
714 1 -1.1104 3.92949 16.9776 26.2771
715 1 -1.1104 3.96325 14.2314 26.4131
717 1 -1.1104 1.2464 16.9392 23.4476
718 1 -1.1104 3.9301 16.7208 23.5092
554 1 -1.1104 12.357 13.9935 20.6712
642 2 2.2208 8.21441 15.366 22.1265
708 1 -1.1104 6.77923 14.0089 23.4733
639 1 -1.1104 9.47716 19.6765 26.379
534 1 -1.1104 6.80678 16.7314 20.8136
524 1 -1.1104 6.77809 13.8721 20.6676
568 1 -1.1104 9.58431 19.6049 20.6026
556 1 -1.1104 12.2995 19.6468 20.8749
610 1 -1.1104 9.43644 19.5125 23.3947
604 1 -1.1104 12.4273 16.9904 26.5605
607 1 -1.1104 9.5096 13.9811 23.5809
602 2 2.2208 10.8947 15.3935 24.9138
701 1 -1.1104 6.71452 16.816 26.304
699 1 -1.1104 6.82522 14.1111 26.2773
512 1 -1.1104 12.1391 19.6532 23.6749
633 1 -1.1104 6.63883 19.6711 26.2637
705 1 -1.1104 6.67903 19.6954 23.5624
603 2 2.2208 10.8243 20.9574 25.0824
486 2 2.2208 10.8778 18.1327 22.002
669 1 -1.1104 9.61545 16.8341 26.2956
668 1 -1.1104 9.57455 16.6878 23.4883
574 1 -1.1104 12.2782 16.6985 23.6447
548 1 -1.1104 12.2994 19.6609 26.4292
634 1 -1.1104 9.57073 13.9811 26.5337
9166 2 2.2208 8.06257 -4.19799 24.9368
442 2 2.2208 -0.413017 15.4012 13.8046
355 2 2.2208 5.41786 1.33233 27.6723
485 2 2.2208 8.08167 21.0572 27.8532
337 2 2.2208 -0.328277 4.21364 13.6488
9107 2 2.2208 5.35311 -4.32266 27.745
341 2 2.2208 5.40774 4.14342 13.6077
370 2 2.2208 10.9471 6.98538 27.6729
721 2 2.2208 5.29133 23.8001 5.41884
722 2 2.2208 5.28005 29.3501 5.29297
723 1 -1.1104 1.24366 25.2929 1.14166
724 1 -1.1104 1.20097 25.2525 3.97166
725 1 -1.1104 1.20349 22.476 1.11752
726 1 -1.1104 1.09911 28.0945 1.0402
727 2 2.2208 5.20481 26.6472 2.58098
728 1 -1.1104 1.11276 22.3721 3.96477
729 1 -1.1104 1.07518 28.1387 3.93112
730 1 -1.1104 3.94884 25.1695 1.13072
731 2 2.2208 2.63565 23.6823 2.5585
732 2 2.2208 2.50957 29.4731 2.4315
733 1 -1.1104 4.03814 24.9355 3.91001
734 2 2.2208 2.51126 26.5858 5.40475
735 1 -1.1104 3.90173 22.3246 1.13194
736 1 -1.1104 3.85715 28.0415 1.22346
737 1 -1.1104 3.91799 22.1863 3.84788
738 1 -1.1104 3.80036 27.8308 4.03239
1501 1 -1.1104 9.55148 47.6877 3.72606
1089 2 2.2208 8.12866 32.2507 -0.320403
740 2 2.2208 -0.308145 23.8266 5.26737
1306 2 2.2208 2.43384 26.7231 -0.246636
1307 2 2.2208 5.34143 29.408 -0.286517
1309 2 2.2208 -0.362121 23.939 -0.283667
744 1 -1.1104 6.67012 22.533 1.17953
745 1 -1.1104 6.63681 27.8396 1.05529
742 1 -1.1104 6.73829 25.1277 0.991931
746 1 -1.1104 6.69731 22.5001 4.00283
747 1 -1.1104 6.77759 28.1565 4.02732
743 1 -1.1104 6.67425 25.3671 3.95097
748 2 2.2208 10.9185 23.7977 5.37689
749 2 2.2208 10.964 29.3792 5.23997
750 1 -1.1104 12.4182 25.291 1.23304
751 1 -1.1104 12.503 25.1849 3.84874
752 1 -1.1104 12.1602 22.4061 1.2037
753 1 -1.1104 12.3468 28.0905 1.14311
754 2 2.2208 11.0446 26.7029 2.4638
755 1 -1.1104 12.2784 22.3469 4.08716
756 1 -1.1104 12.4117 28.0718 3.90942
757 1 -1.1104 9.60758 25.2568 1.16877
758 2 2.2208 8.08913 23.9383 2.44336
759 2 2.2208 8.15751 29.4256 2.51206
760 1 -1.1104 9.40075 25.2542 3.8433
761 2 2.2208 8.16378 26.5908 5.27794
762 1 -1.1104 9.56699 22.5626 1.14241
763 1 -1.1104 9.5765 27.9772 0.98908
764 1 -1.1104 9.47207 22.3358 3.98832
765 1 -1.1104 9.52371 28.1116 3.81948
1336 2 2.2208 8.07046 26.5525 -0.322671
1341 2 2.2208 10.9535 29.4499 -0.310228
1092 2 2.2208 -0.32645 40.7588 -0.206755
769 2 2.2208 5.32551 35.0957 5.37209
770 1 -1.1104 0.957394 30.8079 1.22676
771 1 -1.1104 1.09013 36.6184 1.19456
773 1 -1.1104 1.24077 30.9709 3.88166
774 1 -1.1104 1.13981 36.6078 3.87558
776 1 -1.1104 1.05041 33.7107 1.10056
777 2 2.2208 5.36217 32.2993 2.42426
778 2 2.2208 5.31255 37.856 2.42997
779 1 -1.1104 0.903852 33.6651 3.84555
781 1 -1.1104 3.91505 30.89 1.05345
782 1 -1.1104 3.93379 36.4173 0.932938
783 2 2.2208 2.4794 35.0956 2.5426
784 1 -1.1104 3.97291 30.693 3.97875
785 1 -1.1104 3.81958 36.4901 3.73626
786 2 2.2208 2.4664 32.1608 5.31715
787 2 2.2208 2.6217 37.7993 5.3208
788 1 -1.1104 3.77151 33.5574 1.04068
789 1 -1.1104 3.76515 33.5911 4.06484
1365 2 2.2208 2.57422 32.2425 -0.225566
839 2 2.2208 -0.167377 43.6008 2.49991
840 2 2.2208 -0.308629 46.3425 5.29735
780 1 -1.1104 6.62184 33.6714 4.00184
795 1 -1.1104 6.73644 33.6066 1.15206
1083 2 2.2208 2.36824 37.9234 -0.246768
926 1 -1.1104 3.95671 36.3931 6.73075
1085 2 2.2208 10.9331 40.7325 -0.406886
1041 2 2.2208 13.7926 26.6237 10.9664
794 1 -1.1104 6.81634 30.992 3.88938
775 1 -1.1104 6.69967 36.6972 4.02212
772 1 -1.1104 6.78957 36.4147 1.19973
793 1 -1.1104 6.78118 30.7452 1.22671
796 2 2.2208 10.9959 35.0596 5.2868
797 1 -1.1104 12.3424 30.8262 1.04636
798 1 -1.1104 12.3915 36.544 1.3653
799 1 -1.1104 12.3748 30.8622 4.00004
800 1 -1.1104 12.3591 36.5648 3.94073
801 1 -1.1104 12.4037 33.7541 1.02252
802 2 2.2208 10.9612 32.2913 2.5698
803 2 2.2208 10.956 37.8184 2.55089
804 1 -1.1104 12.4001 33.8082 3.8802
805 1 -1.1104 9.49342 30.8657 1.10125
806 1 -1.1104 9.48284 36.489 1.13438
807 2 2.2208 8.12875 35.1923 2.55307
808 1 -1.1104 9.57192 30.8029 3.89222
809 1 -1.1104 9.50001 36.5835 3.78328
810 2 2.2208 8.12918 32.2609 5.37646
811 2 2.2208 8.14399 37.7507 5.47848
812 1 -1.1104 9.58712 33.6324 1.13928
813 1 -1.1104 9.56843 33.688 3.92089
958 1 -1.1104 9.62094 33.6645 6.71381
1046 2 2.2208 -0.297409 23.74 11.0135
1090 2 2.2208 10.9414 35.0518 -0.224329
1088 2 2.2208 8.12104 37.8924 -0.266936