ITEM: TIMESTEP
40000
ITEM: NUMBER OF ATOMS
17820
ITEM: BOX BOUNDS pp pp pp
-3.5587075633559306e-01 2.7695870756335449e+01
-4.3678540498935909e+00 3.3244785404989153e+02
-3.5080934560592991e-01 2.7690809345605775e+01
ITEM: ATOMS id type q x y z
1 2 2.2208 5.30673 1.22663 5.40382
2 1 -1.1104 1.16644 -2.9979 1.10722
3 1 -1.1104 1.09483 2.72278 1.26529
6 1 -1.1104 1.11006 -2.88876 3.97325
7 1 -1.1104 1.21402 2.69297 3.96092
10 1 -1.1104 1.20366 0.0626491 1.22115
12 2 2.2208 5.37622 -1.53109 2.62641
13 2 2.2208 5.46771 4.06053 2.69125
14 1 -1.1104 1.21869 -0.190046 3.96146
16 1 -1.1104 4.02212 -2.98264 1.03412
17 1 -1.1104 3.90943 2.73268 1.19043
18 2 2.2208 2.56264 1.25624 2.56705
19 1 -1.1104 3.82312 -2.94265 3.81295
20 1 -1.1104 4.08871 2.67009 3.99925
21 2 2.2208 2.50583 -1.58592 5.33484
22 2 2.2208 2.51518 4.0606 5.25904
23 1 -1.1104 4.0498 -0.259548 1.18318
24 1 -1.1104 3.93062 -0.116759 3.98017
8 1 -1.1104 6.73023 -2.97007 3.9262
173 1 -1.1104 3.98579 2.62523 6.75126
169 1 -1.1104 6.8662 2.72966 6.73994
4 1 -1.1104 6.79436 -2.8469 1.05986
5 1 -1.1104 6.79494 2.62019 1.23555
9 1 -1.1104 6.86952 2.54726 4.07059
172 1 -1.1104 4.00161 -3.10176 6.66991
11 1 -1.1104 6.77912 -0.255951 1.03029
15 1 -1.1104 6.70865 -0.206189 4.01031
168 1 -1.1104 6.85336 -3.07714 6.66176
170 1 -1.1104 1.19808 -0.216182 6.67759
166 1 -1.1104 1.22409 -3.00982 6.68451
9089 2 2.2208 5.26325 -4.46569 5.19565
577 2 2.2208 13.6729 18.2648 13.7309
50 2 2.2208 13.8583 -1.56994 5.30606
31 2 2.2208 10.9887 1.15645 5.30457
32 1 -1.1104 12.3212 -2.91907 1.10065
33 1 -1.1104 12.4165 2.64338 1.13852
34 1 -1.1104 12.4831 -3.03862 3.85585
35 1 -1.1104 12.2413 2.63472 3.84289
36 1 -1.1104 12.433 -0.165247 1.07591
37 2 2.2208 10.9604 -1.58283 2.58765
38 2 2.2208 10.9718 4.18538 2.42315
39 1 -1.1104 12.4154 -0.315151 3.97344
40 1 -1.1104 9.62197 -2.71802 1.17977
41 1 -1.1104 9.55453 2.71155 1.0538
42 2 2.2208 8.10332 1.13767 2.50186
43 1 -1.1104 9.57575 -3.04498 3.99832
44 1 -1.1104 9.52586 2.72218 3.8095
45 2 2.2208 8.21992 -1.66961 5.37577
46 2 2.2208 8.2706 3.97528 5.43267
47 1 -1.1104 9.50381 -0.0376135 1.02517
48 1 -1.1104 9.59081 -0.312864 3.87178
205 1 -1.1104 12.2829 -3.03264 6.69656
209 1 -1.1104 9.67525 2.52221 6.7859
233 2 2.2208 13.7564 4.0148 5.16383
206 1 -1.1104 12.4405 2.58101 6.60024
49 2 2.2208 13.8312 1.13219 2.4891
207 1 -1.1104 12.3507 -0.317301 6.75036
208 1 -1.1104 9.66997 -3.15967 6.77083
9099 2 2.2208 13.7651 -4.47412 8.01958
576 2 2.2208 8.07026 18.1658 13.6556
54 2 2.2208 5.3246 6.91343 5.26074
55 2 2.2208 5.41388 12.5568 5.22534
56 1 -1.1104 1.16646 8.25301 1.02724
58 1 -1.1104 1.12379 8.17333 3.83178
60 1 -1.1104 1.14674 5.59045 1.04515
61 1 -1.1104 1.08976 11.0606 1.01229
66 2 2.2208 5.23207 9.64276 2.39941
67 1 -1.1104 1.30068 5.50142 3.83241
68 1 -1.1104 1.20715 11.0851 3.9245
71 1 -1.1104 3.9214 8.21504 1.05679
72 2 2.2208 2.57256 6.95027 2.43222
73 2 2.2208 2.61665 12.3581 2.41423
74 1 -1.1104 3.794 8.37379 3.80534
75 2 2.2208 2.59272 9.73497 5.3144
76 1 -1.1104 3.80571 5.37274 1.14624
77 1 -1.1104 3.91594 10.9709 1.05125
79 1 -1.1104 3.96037 5.44144 3.89312
80 1 -1.1104 4.02177 11.0556 3.76332
57 1 -1.1104 6.84471 8.268 0.968951
64 1 -1.1104 6.8054 11.2427 0.942593
69 1 -1.1104 6.77275 5.41557 3.96956
236 1 -1.1104 0.959574 5.44378 6.71077
234 1 -1.1104 1.15923 8.19362 6.65347
59 1 -1.1104 6.6614 8.31387 3.90951
63 1 -1.1104 6.72586 5.39627 1.04298
62 1 -1.1104 1.05334 11.1447 6.60583
70 1 -1.1104 6.88298 11.215 3.80296
65 1 -1.1104 6.79892 11.1152 6.70633
239 1 -1.1104 3.76713 5.47358 6.60853
9093 2 2.2208 13.7248 -4.38466 2.30785
367 2 2.2208 5.31185 12.5692 -0.484508
104 2 2.2208 13.8563 12.6194 2.44654
84 2 2.2208 11.0519 6.85725 5.29973
85 2 2.2208 10.9296 12.4629 5.15638
86 1 -1.1104 12.4062 8.42165 0.990456
87 1 -1.1104 12.4838 8.32552 3.77905
88 1 -1.1104 12.3395 5.52136 1.0565
89 1 -1.1104 12.3615 11.2522 1.06768
91 2 2.2208 10.973 9.68285 2.35032
92 1 -1.1104 12.4124 5.66713 3.80605
93 1 -1.1104 12.4054 11.2611 3.84862
94 1 -1.1104 9.6492 8.36486 0.88682
95 2 2.2208 8.05063 6.87852 2.44144
96 2 2.2208 8.23013 12.4146 2.52858
97 1 -1.1104 9.52305 8.29212 3.96026
98 2 2.2208 8.18279 9.68012 5.24072
99 1 -1.1104 9.5264 5.60099 1.012
100 1 -1.1104 9.55775 11.0682 1.07627
102 1 -1.1104 9.52907 5.66873 3.88271
103 1 -1.1104 9.55241 11.0752 3.80413
267 1 -1.1104 9.66161 8.24236 6.71793
265 1 -1.1104 12.3823 8.29362 6.60637
269 1 -1.1104 9.59474 5.38002 6.69572
232 2 2.2208 13.7074 9.76979 5.19902
266 1 -1.1104 12.3405 5.34434 6.5448
105 2 2.2208 13.822 6.80977 2.47616
90 1 -1.1104 12.3337 11.0973 6.67598
106 2 2.2208 5.41811 18.0777 5.34497
107 1 -1.1104 1.16173 13.843 1.16085
109 1 -1.1104 1.04268 19.6231 1.19611
113 1 -1.1104 1.30143 13.8663 3.90887
114 1 -1.1104 1.12506 19.5311 4.03973
116 1 -1.1104 1.04398 16.8078 0.921551
119 2 2.2208 5.43322 15.368 2.4499
120 2 2.2208 5.28943 20.9939 2.53388
121 1 -1.1104 1.22721 16.7524 3.75005
123 1 -1.1104 3.82994 13.8178 0.955809
125 1 -1.1104 3.91019 19.6037 1.19318
127 2 2.2208 2.49973 18.24 2.56139
128 1 -1.1104 4.09412 13.8167 3.82531
129 1 -1.1104 4.00677 19.6397 3.99587
130 2 2.2208 2.48919 15.3649 5.18515
131 2 2.2208 2.60583 21.0212 5.38539
132 1 -1.1104 3.86995 16.6904 0.964966
134 1 -1.1104 4.06837 16.8332 3.85911
115 1 -1.1104 6.81141 14.0332 4.00775
140 1 -1.1104 6.6593 16.8803 1.02014
110 1 -1.1104 6.68355 13.9446 1.11466
138 1 -1.1104 6.72076 19.6728 1.17185
111 1 -1.1104 6.76309 13.7708 6.73361
139 1 -1.1104 6.75128 19.5343 3.75366
133 1 -1.1104 3.95736 16.6091 6.65637
126 1 -1.1104 3.96774 19.5423 6.71899
122 1 -1.1104 6.93 16.6745 3.91059
302 1 -1.1104 1.09592 19.464 6.81189
117 1 -1.1104 1.13684 16.6724 6.56571
108 1 -1.1104 1.27507 13.8651 6.60468
325 2 2.2208 10.8857 15.2118 8.13767
330 1 -1.1104 12.4467 13.903 12.4073
141 2 2.2208 10.9889 18.1964 5.3669
142 1 -1.1104 12.2665 13.9704 1.13735
144 1 -1.1104 12.3085 19.4903 0.924935
146 1 -1.1104 12.2736 13.9602 3.84359
147 1 -1.1104 12.4841 19.679 3.80637
148 1 -1.1104 12.2371 16.7332 1.05468
150 2 2.2208 10.8313 15.3188 2.53115
151 2 2.2208 10.9221 21.0615 2.51551
152 1 -1.1104 12.3233 16.836 3.80928
153 1 -1.1104 9.57372 13.8977 1.10216
155 1 -1.1104 9.58658 19.7836 1.2545
157 2 2.2208 8.08818 18.2299 2.42106
158 1 -1.1104 9.44734 13.8577 4.13963
159 1 -1.1104 9.47928 19.5173 4.00216
160 2 2.2208 8.11743 15.2414 5.3417
161 2 2.2208 8.16248 20.8717 5.24708
162 1 -1.1104 9.48575 16.904 0.943815
164 1 -1.1104 9.64329 16.7046 3.86795
143 1 -1.1104 12.3705 13.8521 6.64507
163 1 -1.1104 9.64718 16.6592 6.7685
165 2 2.2208 13.6558 18.1192 2.41881
204 2 2.2208 13.6833 15.3597 5.16102
145 1 -1.1104 12.3254 19.6365 6.69885
154 1 -1.1104 9.55614 13.8547 6.73729
156 1 -1.1104 9.6027 19.3863 6.77381
231 2 2.2208 13.8158 20.9234 5.46454
347 2 2.2208 8.12406 15.251 -0.305915
174 1 -1.1104 4.00032 -0.182618 6.7675
171 1 -1.1104 6.75315 -0.262447 6.6586
314 1 -1.1104 9.49648 16.5059 9.56955
167 1 -1.1104 1.05882 2.59599 6.65628
9094 2 2.2208 2.51892 -4.45961 8.03498
175 2 2.2208 5.29382 1.12849 10.9143
176 1 -1.1104 1.04214 -3.02714 12.2725
177 1 -1.1104 1.17242 2.66259 12.455
180 1 -1.1104 1.21973 -3.12963 9.48685
181 1 -1.1104 1.20138 2.61518 9.50643
184 1 -1.1104 1.03348 -0.156892 12.3071
186 2 2.2208 5.26949 -1.62896 8.09921
187 2 2.2208 5.30691 4.03579 8.06987
188 1 -1.1104 1.08376 -0.124984 9.64264
190 1 -1.1104 3.8169 -3.04761 12.2661
191 1 -1.1104 3.95524 2.51939 12.2551
192 2 2.2208 2.52231 1.24694 8.06971
193 1 -1.1104 3.88776 -3.09648 9.47448
194 1 -1.1104 3.80207 2.5278 9.53086
195 2 2.2208 2.48429 -1.52263 10.7879
196 2 2.2208 2.51474 3.96502 10.9795
197 1 -1.1104 3.84003 -0.273845 12.309
198 1 -1.1104 3.82375 -0.200893 9.5168
178 1 -1.1104 6.68177 -2.95091 12.4135
189 1 -1.1104 6.77634 -0.130085 9.59023
179 1 -1.1104 6.56849 2.50579 12.358
183 1 -1.1104 6.72652 2.65133 9.55281
182 1 -1.1104 6.66646 -2.92335 9.53116
185 1 -1.1104 6.58824 -0.145153 12.4545
338 2 2.2208 5.24218 -1.59084 13.8038
9115 2 2.2208 2.57299 -4.3643 13.6449
339 2 2.2208 2.65261 1.20956 13.611
9098 2 2.2208 11.0151 -4.50089 10.8599
210 1 -1.1104 9.58279 -0.218238 6.75179
229 2 2.2208 13.8303 1.22103 8.14649
211 2 2.2208 10.9239 1.14816 10.8125
212 1 -1.1104 12.3698 -3.02405 12.3225
213 1 -1.1104 12.1969 2.57243 12.2167
214 1 -1.1104 12.3095 -2.99467 9.56043
215 1 -1.1104 12.3546 2.57243 9.45855
216 1 -1.1104 12.2332 -0.137187 12.2888
217 2 2.2208 11.0378 -1.67269 8.12348
218 2 2.2208 11.038 4.04538 8.11043
219 1 -1.1104 12.3596 -0.256532 9.55933
220 1 -1.1104 9.54922 -3.06809 12.3105
221 1 -1.1104 9.59758 2.72274 12.2003
222 2 2.2208 8.13461 1.01603 8.25993
223 1 -1.1104 9.46522 -3.22511 9.53593
224 1 -1.1104 9.55178 2.51523 9.45283
225 2 2.2208 8.08995 -1.71588 10.9125
226 2 2.2208 8.25677 3.99046 10.8491
227 1 -1.1104 9.3289 -0.349611 12.3981
228 1 -1.1104 9.4709 -0.321845 9.48725
230 2 2.2208 13.7621 -1.55471 10.8859
203 2 2.2208 13.7541 3.91711 10.9044
329 1 -1.1104 12.2298 19.6335 12.3784
342 2 2.2208 8.08535 1.2277 13.6518
9111 2 2.2208 8.05571 -4.36987 13.6644
9110 2 2.2208 13.7134 -4.28747 13.69
343 2 2.2208 10.9058 -1.68668 13.7341
332 2 2.2208 13.8187 18.0891 8.06997
238 1 -1.1104 3.97916 8.29669 6.82872
237 1 -1.1104 6.78863 5.35028 6.78915
575 2 2.2208 10.8875 15.4029 13.8034
235 1 -1.1104 6.81774 8.27676 6.72028
78 1 -1.1104 3.9364 11.0735 6.50932
240 2 2.2208 5.432 6.88016 10.8571
241 2 2.2208 5.19486 12.4306 10.8908
242 1 -1.1104 1.17781 8.2784 12.2258
244 1 -1.1104 1.0863 8.29521 9.34647
246 1 -1.1104 1.13307 5.51589 12.4476
247 1 -1.1104 1.15499 11.0932 12.4028
250 2 2.2208 5.37124 9.6297 8.18988
251 1 -1.1104 1.17103 5.50063 9.62994
252 1 -1.1104 1.1368 11.0795 9.46821
255 1 -1.1104 4.05078 8.23688 12.4179
256 2 2.2208 2.56792 6.7916 8.01404
257 2 2.2208 2.5557 12.4934 7.89289
258 1 -1.1104 3.97682 8.35808 9.6429
259 2 2.2208 2.54376 9.68543 10.7052
260 1 -1.1104 4.03479 5.44267 12.3182
261 1 -1.1104 3.93614 10.9108 12.1229
262 1 -1.1104 3.89791 5.47337 9.53931
263 1 -1.1104 3.86311 11.1429 9.26123
245 1 -1.1104 6.73594 8.19841 9.43275
243 1 -1.1104 6.84137 8.32717 12.1647
253 1 -1.1104 6.84233 5.48396 9.53506
254 1 -1.1104 6.83528 11.074 9.63962
249 1 -1.1104 6.74341 11.1581 12.2169
248 1 -1.1104 6.85177 5.46356 12.2038
346 2 2.2208 2.51033 6.75103 13.7257
28 2 2.2208 13.7221 20.9657 10.9825
101 1 -1.1104 9.61455 11.0015 6.64987
351 2 2.2208 10.8499 9.64998 13.6289
202 2 2.2208 13.6556 6.82418 8.08394
264 1 -1.1104 9.68439 11.1147 9.40434
268 1 -1.1104 9.70498 5.44549 9.49548
270 1 -1.1104 9.41668 11.0743 12.0993
271 1 -1.1104 9.42041 5.42331 12.3134
272 2 2.2208 8.26321 9.60488 10.8615
273 1 -1.1104 9.5772 8.27953 9.49819
274 2 2.2208 8.18409 12.413 8.08259
275 2 2.2208 8.24725 6.75805 8.0971
276 2 2.2208 10.9114 6.84231 10.8555
277 2 2.2208 11.0572 12.484 10.8427
278 1 -1.1104 12.2273 8.25425 12.3016
279 1 -1.1104 12.3288 8.19089 9.48488
280 1 -1.1104 12.3144 5.38769 12.1959
281 1 -1.1104 12.3003 11.0271 12.3127
282 2 2.2208 10.9951 9.71478 8.05468
283 1 -1.1104 12.4305 5.313 9.45715
284 1 -1.1104 12.4412 11.1467 9.44749
285 1 -1.1104 9.39827 8.30017 12.3322
53 2 2.2208 13.7777 12.5067 8.03394
52 2 2.2208 13.6228 9.67331 10.9902
333 2 2.2208 13.7848 15.2173 10.8484
352 2 2.2208 8.08529 12.487 13.5531
336 2 2.2208 13.6623 6.79676 13.736
636 2 2.2208 13.7145 12.5842 13.7586
118 1 -1.1104 6.75348 16.7198 6.78944
112 1 -1.1104 6.83194 19.3488 6.69363
297 1 -1.1104 6.56474 14.0176 12.2954
124 1 -1.1104 3.90363 13.942 6.5416
296 1 -1.1104 6.73907 19.6266 12.3422
288 1 -1.1104 6.83692 19.5471 9.5438
289 1 -1.1104 6.72689 16.6772 9.69903
310 2 2.2208 2.59494 15.2862 10.9175
305 1 -1.1104 4.01931 13.8946 9.37527
309 2 2.2208 2.66915 20.7724 10.8794
308 1 -1.1104 3.94475 16.6611 12.3968
307 1 -1.1104 1.17679 16.6442 12.1373
286 1 -1.1104 3.97938 19.5019 12.2909
287 1 -1.1104 3.89223 13.7563 12.2197
291 1 -1.1104 1.11779 19.4517 9.52712
292 1 -1.1104 1.28889 16.705 9.33345
293 2 2.2208 5.32432 20.9466 8.13301
294 1 -1.1104 1.16324 13.9563 9.42823
295 2 2.2208 5.33877 15.3416 8.06342
298 1 -1.1104 1.25044 19.5409 12.43
299 1 -1.1104 1.13128 13.8652 12.2921
300 2 2.2208 5.30872 18.0085 11.0304
301 1 -1.1104 3.97643 19.4614 9.50154
303 2 2.2208 2.50929 18.1573 8.06518
304 1 -1.1104 3.95614 16.5989 9.50542
306 1 -1.1104 6.79152 16.7598 12.3584
290 1 -1.1104 6.81196 13.7435 9.51427
549 2 2.2208 5.25644 15.3094 13.7512
547 2 2.2208 2.63145 18.0602 13.6511
317 2 2.2208 8.13395 15.0585 10.8681
322 1 -1.1104 9.63072 13.8634 12.2754
149 1 -1.1104 12.4562 16.7686 6.70123
354 2 2.2208 10.9053 21.0291 13.7284
320 2 2.2208 8.11369 18.0539 8.2677
318 1 -1.1104 9.64833 19.4511 9.50213
331 2 2.2208 10.8627 17.982 10.9558
321 1 -1.1104 9.5718 19.5427 12.3677
324 2 2.2208 10.8909 20.8804 8.14781
323 1 -1.1104 12.3059 16.554 9.65674
315 1 -1.1104 9.55635 16.6271 12.2306
328 1 -1.1104 12.2406 13.7855 9.37501
327 1 -1.1104 12.5037 19.4691 9.63783
319 1 -1.1104 9.57171 13.8473 9.5147
326 1 -1.1104 12.1471 16.872 12.4603
316 2 2.2208 8.11463 20.8839 10.9593
340 2 2.2208 13.7469 1.22178 13.666
348 2 2.2208 5.39962 9.62472 13.6
356 2 2.2208 2.489 -1.44086 -0.243455
357 2 2.2208 2.61367 4.06598 -0.258483
363 2 2.2208 13.7944 -1.5761 -0.403182
361 2 2.2208 8.22946 -1.484 -0.354404
372 2 2.2208 10.8085 12.46 -0.294228
370 2 2.2208 10.9745 6.9471 -0.393806
449 2 2.2208 13.6936 21.0202 -0.280126
344 2 2.2208 13.6929 15.2148 -0.390769
375 2 2.2208 5.46279 1.21523 16.6095
376 1 -1.1104 1.17177 -2.92378 17.8625
377 1 -1.1104 1.06931 2.67481 17.878
380 1 -1.1104 1.03775 -2.9484 15.0718
382 1 -1.1104 1.27803 2.61289 15.0978
388 1 -1.1104 1.09119 0.0242853 18.009
390 2 2.2208 5.28397 -1.53563 19.3759
392 1 -1.1104 1.24884 -0.108043 14.9452
396 1 -1.1104 3.89697 -3.00486 17.9059
397 1 -1.1104 3.917 2.84442 17.8895
398 2 2.2208 2.65955 1.31656 19.3021
399 1 -1.1104 3.94144 -3.01686 15.0823
401 1 -1.1104 4.07592 2.59846 15.0746
403 2 2.2208 2.51994 -1.61896 16.4663
404 2 2.2208 2.55154 4.10503 16.5054
405 1 -1.1104 3.95618 -0.164114 17.8538
406 1 -1.1104 4.04246 -0.286945 15.1985
391 2 2.2208 5.3873 4.07265 19.3112
384 1 -1.1104 6.70288 -2.80786 15.0136
402 1 -1.1104 3.96274 2.59583 20.7469
381 1 -1.1104 1.0898 -2.92881 20.7398
385 1 -1.1104 6.63541 -3.039 20.6956
389 1 -1.1104 6.78231 -0.166761 17.9326
395 1 -1.1104 6.83897 -0.198161 20.8351
386 1 -1.1104 6.92906 2.76362 15.0865
393 1 -1.1104 1.16937 -0.37505 20.7299
383 1 -1.1104 1.13079 2.75811 20.7968
378 1 -1.1104 6.66274 -2.77019 17.8659
394 1 -1.1104 6.81792 0.00958067 15.0641
379 1 -1.1104 6.83737 2.60439 18.0034
407 1 -1.1104 3.98444 -0.158573 20.6856
9236 2 2.2208 5.26127 -4.30586 16.4734
341 2 2.2208 5.37565 3.87871 13.6492
415 2 2.2208 13.8514 1.26558 19.3929
418 2 2.2208 11.0276 1.24026 16.4107
419 1 -1.1104 12.2968 -3.08367 17.9125
420 1 -1.1104 12.4516 2.68286 17.8219
421 1 -1.1104 12.1022 -3.182 15.0223
423 1 -1.1104 12.4198 2.56772 15.0104
425 1 -1.1104 12.3363 -0.284919 17.9274
426 2 2.2208 10.9506 -1.62853 19.3548
427 2 2.2208 11.0344 4.04766 19.2072
428 1 -1.1104 12.3983 -0.267996 15.1575
430 1 -1.1104 9.39856 -3.00293 17.936
431 1 -1.1104 9.62842 2.7077 17.8492
432 2 2.2208 8.25559 1.16848 19.3079
433 1 -1.1104 9.43747 -3.03261 15.2094
435 1 -1.1104 9.64141 2.69511 14.9885
437 2 2.2208 8.05877 -1.47181 16.4373
438 2 2.2208 8.3104 3.99695 16.5039
439 1 -1.1104 9.51437 -0.0688216 17.7697
440 1 -1.1104 9.61273 -0.204762 15.045
446 2 2.2208 13.6411 -1.63445 16.5089
429 1 -1.1104 12.3565 -0.306623 20.759
422 1 -1.1104 12.2841 -3.00369 20.756
434 1 -1.1104 9.53871 -2.96017 20.7724
441 1 -1.1104 9.5754 -0.0104779 20.6942
9206 2 2.2208 10.7931 -4.41919 16.5988
610 1 -1.1104 9.40702 19.5618 23.5129
9170 2 2.2208 5.13482 -4.45268 22.0639
451 2 2.2208 5.41951 6.84031 16.456
452 2 2.2208 5.3031 12.4754 16.3841
453 1 -1.1104 1.26738 8.27577 18.0044
455 1 -1.1104 1.23025 8.22886 15.1534
459 1 -1.1104 1.13888 5.44474 17.8763
460 1 -1.1104 1.13426 11.136 17.8066
463 2 2.2208 5.32547 9.68302 19.1956
464 1 -1.1104 1.10984 5.30642 15.1988
466 1 -1.1104 1.04064 11.0422 15.0984
472 1 -1.1104 3.86404 8.47777 17.9272
473 2 2.2208 2.63393 6.87112 19.3805
474 2 2.2208 2.51637 12.5027 19.2646
475 1 -1.1104 4.16966 8.18788 15.1535
477 2 2.2208 2.48085 9.69221 16.4536
478 1 -1.1104 4.00629 5.69935 17.9711
479 1 -1.1104 3.8778 11.1346 17.752
480 1 -1.1104 3.79116 5.43324 15.0066
482 1 -1.1104 4.04509 11.1149 14.9272
454 1 -1.1104 6.74182 8.27345 17.8198
461 1 -1.1104 6.78594 5.41345 17.7786
470 1 -1.1104 6.74487 10.9872 15.043
457 1 -1.1104 6.81464 8.20818 15.0115
467 1 -1.1104 1.21502 11.2706 20.6659
462 1 -1.1104 6.75477 11.0322 17.8911
476 1 -1.1104 3.94533 8.13214 20.8441
471 1 -1.1104 6.77987 11.1889 20.5916
469 1 -1.1104 6.91875 5.36599 20.7422
468 1 -1.1104 6.75464 5.3886 15.0245
9107 2 2.2208 5.35857 -4.13654 27.5902
416 2 2.2208 13.8089 3.99103 16.4769
637 2 2.2208 13.7718 12.6428 19.2858
487 2 2.2208 11.0268 6.8813 16.4914
488 2 2.2208 10.9514 12.4927 16.4685
489 1 -1.1104 12.4888 8.30556 17.7926
490 1 -1.1104 12.4932 8.19332 15.1643
492 1 -1.1104 12.4074 5.47448 17.8531
493 1 -1.1104 12.3721 11.104 17.8455
494 2 2.2208 11.0213 9.71833 19.1759
495 1 -1.1104 12.365 5.23157 15.1593
497 1 -1.1104 12.3278 10.9564 14.9638
499 1 -1.1104 9.53071 8.30105 17.9621
500 2 2.2208 8.18602 6.84944 19.2569
501 2 2.2208 8.23817 12.5093 19.3071
502 1 -1.1104 9.6514 8.25922 15.2018
504 2 2.2208 8.09881 9.64458 16.5123
505 1 -1.1104 9.57379 5.384 17.677
506 1 -1.1104 9.51322 11.0791 17.727
507 1 -1.1104 9.66203 5.51978 15.0595
509 1 -1.1104 9.56198 11.0761 14.8674
503 1 -1.1104 9.46907 8.26522 20.759
496 1 -1.1104 12.6632 5.46624 20.7326
638 2 2.2208 13.8228 6.91179 19.2792
413 2 2.2208 13.8622 9.66293 16.4699
498 1 -1.1104 12.3039 11.2556 20.5962
514 2 2.2208 5.29558 18.1768 16.5208
515 1 -1.1104 1.07539 13.8812 17.8668
516 1 -1.1104 1.36858 19.4552 17.6825
519 1 -1.1104 1.09289 13.7589 15.1212
521 1 -1.1104 1.36859 19.4555 15.0659
527 1 -1.1104 0.984107 16.6607 17.9768
529 2 2.2208 5.20885 15.2378 19.3637
530 2 2.2208 5.38789 20.8411 19.365
531 1 -1.1104 1.05537 16.6156 14.9216
535 1 -1.1104 3.97881 13.7916 17.8523
536 1 -1.1104 4.17384 19.3823 18.0511
537 2 2.2208 2.55264 18.1205 19.3547
538 1 -1.1104 3.77901 13.8563 14.9905
540 1 -1.1104 3.92217 19.5241 15.2585
542 2 2.2208 2.46118 15.2842 16.4552
543 2 2.2208 2.62554 20.9059 16.4648
544 1 -1.1104 3.83096 16.5979 17.8634
545 1 -1.1104 3.83845 16.6076 15.113
523 1 -1.1104 6.72243 13.8831 15.1425
525 1 -1.1104 6.59308 19.5155 14.9967
528 1 -1.1104 6.67289 16.7495 17.8372
517 1 -1.1104 6.57865 13.8137 17.9235
518 1 -1.1104 6.74857 19.6078 17.8643
522 1 -1.1104 1.32333 19.7003 20.8724
534 1 -1.1104 6.74288 16.679 20.7018
539 1 -1.1104 3.95414 13.9136 20.7918
526 1 -1.1104 6.73597 19.5328 20.8558
533 1 -1.1104 6.60226 16.7489 15.1589
447 2 2.2208 13.6576 20.9992 16.484
606 2 2.2208 13.6915 15.2779 16.5364
550 2 2.2208 10.9126 18.0653 16.4301
551 1 -1.1104 12.4932 13.9288 17.9529
552 1 -1.1104 12.4845 19.672 17.9325
553 1 -1.1104 12.2645 13.7612 15.1199
555 1 -1.1104 12.2501 19.7689 15.1339
557 1 -1.1104 12.4399 16.7712 17.7913
558 2 2.2208 11.0127 15.3275 19.2192
559 2 2.2208 11.0454 20.9788 19.3356
560 1 -1.1104 12.3172 16.6735 15.1406
562 1 -1.1104 9.58732 13.85 18.0378
563 1 -1.1104 9.54467 19.4373 17.7352
564 2 2.2208 8.06511 18.1709 19.2189
565 1 -1.1104 9.52009 14.055 15.0778
567 1 -1.1104 9.52581 19.5074 15.0179
569 2 2.2208 7.96353 15.321 16.536
570 2 2.2208 8.15487 20.883 16.5031
571 1 -1.1104 9.62166 16.7764 17.738
572 1 -1.1104 9.48299 16.8553 14.9055
605 2 2.2208 13.6448 18.1829 19.3693
556 1 -1.1104 12.292 19.5564 20.8397
554 1 -1.1104 12.4996 13.9476 20.6981
561 1 -1.1104 12.2249 16.7045 20.7105
387 1 -1.1104 6.81675 2.48364 20.596
400 1 -1.1104 3.87717 -2.92291 20.7973
578 2 2.2208 5.34247 1.2054 22.0685
579 1 -1.1104 1.07999 -2.95796 23.5245
580 1 -1.1104 1.10456 2.72824 23.5491
583 1 -1.1104 1.03295 -2.79718 26.4315
584 1 -1.1104 1.30701 2.77074 26.2769
587 1 -1.1104 1.19133 -0.150884 23.5669
589 2 2.2208 5.32518 -1.4926 24.9411
590 2 2.2208 5.39942 4.03204 24.8447
591 1 -1.1104 1.13366 -0.0730826 26.3339
593 1 -1.1104 3.91998 -3.0449 23.5404
594 1 -1.1104 4.02926 2.58572 23.5586
595 2 2.2208 2.62769 1.19434 24.8285
596 1 -1.1104 3.85681 -2.73294 26.2751
597 1 -1.1104 4.07069 2.74334 26.4232
598 2 2.2208 2.47623 -1.72075 22.1322
599 2 2.2208 2.4707 4.12829 22.2095
600 1 -1.1104 3.94353 -0.260287 23.6407
601 1 -1.1104 3.84693 -0.0170681 26.4188
582 1 -1.1104 6.74697 2.53736 23.4524
586 1 -1.1104 6.94342 2.79271 26.3727
592 1 -1.1104 6.63659 -0.064336 26.3454
588 1 -1.1104 6.77464 -0.240526 23.5571
585 1 -1.1104 6.86739 -2.89065 26.3257
9207 2 2.2208 13.6616 -4.4264 19.2471
9235 2 2.2208 2.41052 -4.38686 19.227
355 2 2.2208 5.46576 1.23255 27.834
9167 2 2.2208 10.8504 -4.46404 22.0785
436 1 -1.1104 9.78775 2.82753 20.9355
424 1 -1.1104 12.5078 2.57082 20.6138
581 1 -1.1104 6.71799 -2.95716 23.541
639 1 -1.1104 9.4973 19.4997 26.2726
512 1 -1.1104 12.1643 19.7151 23.5306
410 2 2.2208 13.8134 4.1564 22.1351
640 2 2.2208 13.7509 -1.65891 22.0844
614 2 2.2208 11.0408 1.21681 22.1013
615 1 -1.1104 12.2813 -2.94905 23.5893
616 1 -1.1104 12.3345 2.73721 23.5043
617 1 -1.1104 12.2899 -2.95443 26.3159
618 1 -1.1104 12.5735 2.72062 26.2881
619 1 -1.1104 12.3576 -0.105723 23.6298
620 2 2.2208 10.9562 -1.56469 24.9744
621 2 2.2208 11.0492 4.07069 24.8564
622 1 -1.1104 12.3819 0.0281822 26.2318
623 1 -1.1104 9.4564 -3.02245 23.5933
624 1 -1.1104 9.53623 2.58967 23.6995
625 2 2.2208 8.09935 1.30229 24.9793
626 1 -1.1104 9.54838 -2.83151 26.3783
627 1 -1.1104 9.75067 2.74184 26.459
628 2 2.2208 8.13015 -1.61999 22.2044
629 2 2.2208 8.24312 4.01251 22.1379
630 1 -1.1104 9.5615 -0.307174 23.5218
631 1 -1.1104 9.46433 -0.0408096 26.3855
362 2 2.2208 8.27317 4.19164 27.6814
641 2 2.2208 13.8407 1.24332 24.9198
9166 2 2.2208 8.06221 -4.42269 24.9521
607 1 -1.1104 9.70474 14.0392 23.3853
364 2 2.2208 13.7673 4.21365 27.7418
458 1 -1.1104 6.76202 8.19377 20.5162
465 1 -1.1104 1.14096 5.58494 20.821
456 1 -1.1104 1.18468 8.40865 20.7303
481 1 -1.1104 4.03141 5.3194 20.7546
483 1 -1.1104 3.98754 11.0752 20.736
643 2 2.2208 5.3736 6.87813 22.1404
644 2 2.2208 5.39239 12.4687 22.1303
645 1 -1.1104 1.15426 8.47963 23.5633
647 1 -1.1104 1.20289 8.28681 26.2953
649 1 -1.1104 0.983052 5.62102 23.5219
650 1 -1.1104 1.32127 11.3319 23.3512
653 2 2.2208 5.36815 9.6867 24.8193
654 1 -1.1104 1.19076 5.61303 26.4464
655 1 -1.1104 1.27087 11.1687 26.147
658 1 -1.1104 3.99236 8.40522 23.4464
659 2 2.2208 2.57563 6.91499 24.9135
660 2 2.2208 2.6085 12.5805 24.9123
661 1 -1.1104 4.11583 8.22432 26.123
662 2 2.2208 2.51227 9.73327 22.1266
663 1 -1.1104 3.83941 5.48392 23.666
664 1 -1.1104 4.07585 11.2823 23.6287
665 1 -1.1104 3.94323 5.52556 26.3207
666 1 -1.1104 4.04456 11.0638 26.374
656 1 -1.1104 6.83897 5.53424 26.2559
651 1 -1.1104 6.85443 5.51353 23.3837
648 1 -1.1104 6.74091 8.22623 26.2798
646 1 -1.1104 6.6733 8.1548 23.5097
657 1 -1.1104 6.93111 11.0414 26.1442
652 1 -1.1104 6.8224 11.1001 23.4439
365 2 2.2208 5.27606 6.81702 27.7221
508 1 -1.1104 9.88375 5.51068 20.4651
510 1 -1.1104 9.60802 11.0378 20.5967
491 1 -1.1104 12.4227 8.25802 20.6587
371 2 2.2208 8.09534 9.72201 27.6219
697 2 2.2208 13.8433 7.05752 24.8207
695 2 2.2208 13.7048 12.4896 24.9262
674 1 -1.1104 9.57334 11.0741 26.3152
675 1 -1.1104 9.70564 5.55919 26.2244
676 1 -1.1104 9.60791 11.241 23.5615
677 1 -1.1104 9.55028 5.49628 23.5044
678 2 2.2208 8.19116 9.70604 21.9488
679 1 -1.1104 9.49924 8.33255 26.2768
680 2 2.2208 8.27678 12.4599 24.7607
681 2 2.2208 8.24386 6.96637 24.8493
682 2 2.2208 10.9588 6.99589 22.0218
683 2 2.2208 10.9161 12.5729 22.1146
684 1 -1.1104 12.1908 8.33434 23.4912
685 1 -1.1104 12.3365 8.35739 26.205
686 1 -1.1104 12.4353 5.48668 23.3984
687 1 -1.1104 12.423 11.3533 23.3747
688 2 2.2208 10.9163 9.71311 25.0137
689 1 -1.1104 12.5258 5.47935 26.1849
690 1 -1.1104 12.2813 11.1122 26.2358
691 1 -1.1104 9.39061 8.38463 23.3801
409 2 2.2208 13.6649 9.88658 21.9058
374 2 2.2208 13.7096 9.75628 27.6434
668 1 -1.1104 9.55224 16.679 23.4842
603 2 2.2208 10.9437 21.0496 24.9856
532 1 -1.1104 1.02724 16.7933 20.7145
520 1 -1.1104 1.20846 14.0588 20.6025
524 1 -1.1104 6.80387 13.944 20.7364
708 1 -1.1104 6.805 13.8103 23.5332
546 1 -1.1104 3.91059 16.6463 20.5584
633 1 -1.1104 6.59115 19.5519 26.5849
541 1 -1.1104 4.08071 19.3808 20.7678
701 1 -1.1104 6.7042 16.743 26.1451
705 1 -1.1104 6.69125 19.4744 23.7761
698 1 -1.1104 3.91435 19.3108 23.5076
700 1 -1.1104 3.9874 13.921 23.5562
702 1 -1.1104 1.14433 19.598 26.27
703 1 -1.1104 1.12612 16.7885 26.3059
704 1 -1.1104 1.27412 13.9982 26.4144
706 2 2.2208 5.38197 20.8724 25.0958
707 2 2.2208 5.41405 15.4351 24.8368
709 1 -1.1104 1.11527 19.4624 23.6086
710 1 -1.1104 1.16033 13.8663 23.5782
711 2 2.2208 5.33767 18.0833 22.0909
712 1 -1.1104 3.90948 19.5125 26.3622
713 2 2.2208 2.44034 17.9962 24.8885
714 1 -1.1104 3.88486 16.8038 26.3345
715 1 -1.1104 4.07319 13.972 26.2552
717 1 -1.1104 1.04468 16.8635 23.4294
718 1 -1.1104 3.92056 16.6163 23.4046
719 2 2.2208 2.68238 20.8278 22.1434
720 2 2.2208 2.54259 15.2309 22.1676
716 1 -1.1104 6.71452 16.7857 23.3885
699 1 -1.1104 6.68936 14.0012 26.2343
696 2 2.2208 2.60465 21.0272 27.7816
485 2 2.2208 8.24095 20.9624 27.8305
513 1 -1.1104 12.3982 13.7798 26.2856
566 1 -1.1104 9.5806 13.9932 20.6813
602 2 2.2208 10.8971 15.3767 24.8008
574 1 -1.1104 12.5502 16.8331 23.5672
511 1 -1.1104 12.4228 14.0865 23.5091
632 2 2.2208 8.03674 18.1823 24.9619
604 1 -1.1104 12.1734 16.8061 26.2216
667 2 2.2208 7.95172 20.9651 22.2247
634 1 -1.1104 9.49477 13.8438 26.2589
417 2 2.2208 13.7388 15.3036 22.1372
568 1 -1.1104 9.49029 19.5022 20.6127
573 1 -1.1104 9.58325 16.7194 20.5872
450 2 2.2208 13.8296 20.901 22.2093
642 2 2.2208 8.29785 15.3263 22.0002
669 1 -1.1104 9.48152 16.6612 26.3072
548 1 -1.1104 12.3213 19.6409 26.2635
484 2 2.2208 10.7682 18.1556 27.6743
486 2 2.2208 10.8578 18.1612 22.0761
360 2 2.2208 11.0314 1.34935 27.6643
366 2 2.2208 2.46223 9.67003 27.7486
373 2 2.2208 2.47667 15.39 27.7172
694 2 2.2208 5.24194 18.1441 27.7022
345 2 2.2208 10.9104 4.04351 13.7193
349 2 2.2208 2.59708 12.3303 13.6579
350 2 2.2208 8.00505 6.78142 13.6139
353 2 2.2208 5.24586 20.9462 13.725
721 2 2.2208 5.29388 23.7515 5.43257
722 2 2.2208 5.33833 29.4255 5.19471
723 1 -1.1104 1.05946 25.2192 1.22571
724 1 -1.1104 1.24819 25.2698 4.03699
725 1 -1.1104 1.17654 22.5696 1.09931
726 1 -1.1104 0.975535 28.0552 1.05489
727 2 2.2208 5.34772 26.5574 2.55806
728 1 -1.1104 1.05867 22.2854 3.88781
729 1 -1.1104 1.23191 28.0473 3.83458
730 1 -1.1104 3.83558 25.0664 1.30821
731 2 2.2208 2.50514 23.8371 2.6181
732 2 2.2208 2.42465 29.3551 2.50569
733 1 -1.1104 4.12134 25.2341 4.05486
734 2 2.2208 2.60029 26.6322 5.27902
735 1 -1.1104 4.10277 22.3502 1.06883
736 1 -1.1104 4.0055 27.9269 1.04751
737 1 -1.1104 3.84363 22.4564 4.01284
738 1 -1.1104 3.88014 28.0893 3.80085
747 1 -1.1104 6.74493 27.9003 3.93089
744 1 -1.1104 6.78593 22.5341 1.09947
866 1 -1.1104 6.62238 22.2621 6.68249
865 1 -1.1104 1.1881 28.0024 6.63045
746 1 -1.1104 6.75339 22.2783 3.91067
745 1 -1.1104 6.72655 28.0143 1.10786
862 1 -1.1104 1.16758 25.2871 6.85882
743 1 -1.1104 6.75742 24.9956 4.10218
742 1 -1.1104 6.70871 25.2332 1.2579
1639 1 -1.1104 6.57083 47.5924 6.6794
767 2 2.2208 13.6992 29.4732 2.42891
748 2 2.2208 10.9376 23.8037 5.28042
749 2 2.2208 10.8511 29.214 5.24143
750 1 -1.1104 12.236 25.0883 0.946351
751 1 -1.1104 12.2378 25.1935 3.83899
752 1 -1.1104 12.3644 22.2635 1.13343
753 1 -1.1104 12.3936 28.094 1.09307
754 2 2.2208 11.0103 26.5807 2.40992
755 1 -1.1104 12.3694 22.4085 3.97847
756 1 -1.1104 12.2839 28.0257 3.81752
757 1 -1.1104 9.49506 25.2551 1.24711
758 2 2.2208 8.08826 23.7549 2.53969
759 2 2.2208 8.1278 29.2899 2.41704
760 1 -1.1104 9.49346 25.2576 3.95295
761 2 2.2208 8.09665 26.5374 5.36015
762 1 -1.1104 9.51723 22.5244 1.08396
763 1 -1.1104 9.57384 27.8453 1.0769
764 1 -1.1104 9.60392 22.2822 3.87087
765 1 -1.1104 9.59476 28.025 3.76966
896 1 -1.1104 12.2012 22.4475 6.83723
898 1 -1.1104 9.48832 25.1693 6.6861
900 1 -1.1104 9.51059 27.9293 6.65581
768 2 2.2208 13.8596 26.4428 5.26818
897 1 -1.1104 12.2486 27.9026 6.69783
895 1 -1.1104 12.3382 25.1127 6.70618
766 2 2.2208 13.762 23.7449 2.51143
899 1 -1.1104 9.46334 22.2 6.70999
1037 2 2.2208 13.4994 43.3722 10.7261
1082 2 2.2208 13.5977 40.5821 13.7188
769 2 2.2208 5.32654 34.853 5.29546
770 1 -1.1104 1.05941 30.8038 1.09006
771 1 -1.1104 1.02474 36.5211 1.05389
773 1 -1.1104 1.0333 30.9499 4.04903
774 1 -1.1104 1.00503 36.4665 3.89227
776 1 -1.1104 1.06601 33.6002 1.07712
777 2 2.2208 5.22641 32.2309 2.42094
778 2 2.2208 5.06963 37.9168 2.47274
779 1 -1.1104 0.980358 33.7083 3.87863
781 1 -1.1104 3.76867 30.7498 1.22025
782 1 -1.1104 3.86101 36.4337 1.18197
783 2 2.2208 2.43908 34.9737 2.49383
784 1 -1.1104 3.8104 30.8723 3.99193
785 1 -1.1104 3.7617 36.4288 3.87732
786 2 2.2208 2.43547 32.3326 5.36968
787 2 2.2208 2.3729 37.7655 5.17935
788 1 -1.1104 3.76832 33.5901 1.03127
789 1 -1.1104 4.04815 33.5462 3.88252
794 1 -1.1104 6.67776 30.8346 3.76869
793 1 -1.1104 6.60843 30.8769 0.986793
795 1 -1.1104 6.60308 33.6822 1.03484
772 1 -1.1104 6.66687 36.2959 0.986093
920 1 -1.1104 1.01904 36.5124 6.79203
952 2 2.2208 -0.452229 37.8534 8.07435
1428 2 2.2208 -0.262877 46.2639 -0.421147
1084 2 2.2208 5.22487 34.9797 -0.330523
780 1 -1.1104 6.71835 33.5261 4.00748
775 1 -1.1104 6.64187 36.3094 3.87295
796 2 2.2208 10.7781 35.0441 5.27391
797 1 -1.1104 12.3727 31.0976 1.06579
798 1 -1.1104 12.12 36.4648 0.942425
799 1 -1.1104 12.2407 30.8629 3.87734
800 1 -1.1104 12.1066 36.532 3.96557
801 1 -1.1104 12.1675 33.6966 1.02238
802 2 2.2208 10.9127 32.2828 2.49546
803 2 2.2208 10.7705 37.8038 2.46466
804 1 -1.1104 12.1693 33.7939 3.74735
805 1 -1.1104 9.53187 30.6874 0.961054
806 1 -1.1104 9.48089 36.4227 1.04476
807 2 2.2208 7.9629 34.9864 2.4771
808 1 -1.1104 9.47444 30.8163 3.71688
809 1 -1.1104 9.34289 36.422 3.87533
810 2 2.2208 8.06037 32.1351 5.31423
811 2 2.2208 7.94715 37.8013 5.35307
812 1 -1.1104 9.55278 33.471 0.94964