LAMMPS (29 Oct 2020)
OMP_NUM_THREADS environment is not set. Defaulting to 1 thread. (../comm.cpp:94)
  using 1 OpenMP thread(s) per MPI task
OMP_NUM_THREADS environment is not set. Defaulting to 1 thread. (../comm.cpp:94)
  using 1 OpenMP thread(s) per MPI task
Reading data file ...
  orthogonal box = (-0.051815993 -0.5504122 -0.038053473) to (27.391816 328.63041 27.378053)
  2 by 13 by 2 MPI processor grid
  reading atoms ...
  17640 atoms
  reading velocities ...
  17640 velocities
Finding 1-2 1-3 1-4 neighbors ...
  special bond factors lj:    0.0      0.0      0.0     
  special bond factors coul:  0.0      0.0      0.0     
     0 = max # of 1-2 neighbors
     0 = max # of 1-3 neighbors
     0 = max # of 1-4 neighbors
     1 = max # of special neighbors
  special bonds CPU = 0.004 seconds
  read_data CPU = 0.077 seconds
Setting atom values ...
  11760 settings made for charge
Setting atom values ...
  5880 settings made for charge
PPPM initialization ...
  using 12-bit tables for long-range coulomb (../kspace.cpp:328)
  G vector (1/distance) = 0.3000438
  grid = 40 240 40
  stencil order = 5
  estimated absolute RMS force accuracy = 0.00014652068
  estimated relative force accuracy = 1.0175298e-05
  using single precision MKL FFT
  3d grid and FFT values/proc = 15000 7600
Neighbor list info ...
  update every 1 steps, delay 0 steps, check yes
  max neighbors/atom: 2000, page size: 100000
  master list distance cutoff = 11.3
  ghost atom cutoff = 11.3
  binsize = 5.65, bins = 5 59 5
  2 neighbor lists, perpetual/occasional/extra = 2 0 0
  (1) pair coul/long, perpetual
      attributes: half, newton on
      pair build: half/bin/newton
      stencil: half/bin/3d/newton
      bin: standard
  (2) pair eam/alloy, perpetual, copy from (1)
      attributes: half, newton on
      pair build: copy
      stencil: none
      bin: none
Setting up Verlet run ...
  Unit style    : metal
  Current step  : 0
  Time step     : 0.001
Per MPI rank memory allocation (min/avg/max) = 8.158 | 8.190 | 8.213 Mbytes
Step Temp E_pair E_mol TotEng Press 
       0          600   -237540.89            0   -236172.88   -455.69382 
  100000    598.27344   -237548.08            0      -236184    266.64961 
Loop time of 646.065 on 52 procs for 100000 steps with 17640 atoms

Performance: 13.373 ns/day, 1.795 hours/ns, 154.783 timesteps/s
99.8% CPU use with 52 MPI tasks x 1 OpenMP threads

MPI task timing breakdown:
Section |  min time  |  avg time  |  max time  |%varavg| %total
---------------------------------------------------------------
Pair    | 416.58     | 438.21     | 455.04     |  47.6 | 67.83
Bond    | 0.0057094  | 0.010504   | 0.017047   |   2.3 |  0.00
Kspace  | 133.9      | 152.28     | 175.93     |  87.9 | 23.57
Neigh   | 30.199     | 35.098     | 38.435     |  33.2 |  5.43
Comm    | 14.117     | 15.599     | 17.812     |  27.7 |  2.41
Output  | 5.9233e-05 | 6.5501e-05 | 0.00028403 |   0.0 |  0.00
Modify  | 2.0046     | 3.4979     | 5.7034     |  68.2 |  0.54
Other   |            | 1.377      |            |       |  0.21

Nlocal:        339.231 ave         365 max         311 min
Histogram: 2 3 5 2 12 12 6 2 3 5
Nghost:        4236.46 ave        4371 max        4108 min
Histogram: 14 3 7 0 0 0 7 7 3 11
Neighs:        71918.9 ave       78603 max       59392 min
Histogram: 2 3 0 2 4 1 16 12 4 8

Total # of neighbors = 3739785
Ave neighs/atom = 212.00595
Ave special neighs/atom = 0.0000000
Neighbor list builds = 16201
Dangerous builds = 0
11760 atoms in group oxygen
PPPM initialization ...
  using 12-bit tables for long-range coulomb (../kspace.cpp:328)
  G vector (1/distance) = 0.3000438
  grid = 40 240 40
  stencil order = 5
  estimated absolute RMS force accuracy = 0.00014652068
  estimated relative force accuracy = 1.0175298e-05
  using single precision MKL FFT
  3d grid and FFT values/proc = 15000 7600
Setting up Verlet run ...
  Unit style    : metal
  Current step  : 0
  Time step     : 0.001
Per MPI rank memory allocation (min/avg/max) = 8.409 | 8.441 | 8.466 Mbytes
Step f_2 Temp v_Tdiff v_deltaT 
       0            0    598.27344            0            0 
  100000    1397.0369    599.24659  0.035949049    417.36512 
  200000    2742.6193    598.54819  0.039145155    454.47161 
  300000    4072.6438    601.68476  0.039771374    461.74196 
  400000    5407.4878    599.66202  0.039529628    458.93531 
  500000    6739.8353    597.41347  0.038888714    451.49435 
  600000    8078.1757    599.27623  0.039415251     457.6074 
  700000    9415.1483    597.70419  0.039069685    453.59542 
  800000    10757.341    601.43373     0.039919    463.45588 
  900000    12096.869    597.53271  0.038448003    446.37775 
 1000000    13437.299    594.50749  0.039293398    456.19271 
Loop time of 6504.25 on 52 procs for 1000000 steps with 17640 atoms

Performance: 13.284 ns/day, 1.807 hours/ns, 153.746 timesteps/s
99.8% CPU use with 52 MPI tasks x 1 OpenMP threads

MPI task timing breakdown:
Section |  min time  |  avg time  |  max time  |%varavg| %total
---------------------------------------------------------------
Pair    | 4166.8     | 4407.9     | 4558.8     | 152.9 | 67.77
Bond    | 0.052919   | 0.10489    | 0.18923    |   7.3 |  0.00
Kspace  | 1348.8     | 1520       | 1788.7     | 288.3 | 23.37
Neigh   | 321.12     | 375.45     | 410.12     | 124.2 |  5.77
Comm    | 141.99     | 158.61     | 187.46     |  93.0 |  2.44
Output  | 0.001072   | 0.0011347  | 0.0023311  |   0.5 |  0.00
Modify  | 6.4042     | 7.465      | 8.887      |  24.9 |  0.11
Other   |            | 34.74      |            |       |  0.53

Nlocal:        339.231 ave         369 max         307 min
Histogram: 4 2 5 1 6 18 4 7 3 2
Nghost:        4236.52 ave        4372 max        4101 min
Histogram: 11 7 2 4 0 4 2 6 6 10
Neighs:        71934.7 ave       79720 max       57962 min
Histogram: 2 1 3 1 4 1 12 20 5 3

Total # of neighbors = 3740605
Ave neighs/atom = 212.05244
Ave special neighs/atom = 0.0000000
Neighbor list builds = 172781
Dangerous builds = 0
Total wall time: 1:59:10
