LAMMPS (29 Oct 2020)
OMP_NUM_THREADS environment is not set. Defaulting to 1 thread. (../comm.cpp:94)
  using 1 OpenMP thread(s) per MPI task
OMP_NUM_THREADS environment is not set. Defaulting to 1 thread. (../comm.cpp:94)
  using 1 OpenMP thread(s) per MPI task
Reading data file ...
  orthogonal box = (-0.40626433 -4.9971621 -0.41693556) to (27.746264 333.07716 27.756936)
  2 by 13 by 2 MPI processor grid
  reading atoms ...
  18000 atoms
  reading velocities ...
  18000 velocities
Finding 1-2 1-3 1-4 neighbors ...
  special bond factors lj:    0.0      0.0      0.0     
  special bond factors coul:  0.0      0.0      0.0     
     0 = max # of 1-2 neighbors
     0 = max # of 1-3 neighbors
     0 = max # of 1-4 neighbors
     1 = max # of special neighbors
  special bonds CPU = 0.003 seconds
  read_data CPU = 0.043 seconds
Setting atom values ...
  12000 settings made for charge
Setting atom values ...
  6000 settings made for charge
PPPM initialization ...
  using 12-bit tables for long-range coulomb (../kspace.cpp:328)
  G vector (1/distance) = 0.29862577
  grid = 40 240 40
  stencil order = 5
  estimated absolute RMS force accuracy = 0.00015944037
  estimated relative force accuracy = 1.1072521e-05
  using single precision MKL FFT
  3d grid and FFT values/proc = 15000 7600
Neighbor list info ...
  update every 1 steps, delay 0 steps, check yes
  max neighbors/atom: 2000, page size: 100000
  master list distance cutoff = 11.3
  ghost atom cutoff = 11.3
  binsize = 5.65, bins = 5 60 5
  2 neighbor lists, perpetual/occasional/extra = 2 0 0
  (1) pair coul/long, perpetual
      attributes: half, newton on
      pair build: half/bin/newton
      stencil: half/bin/3d/newton
      bin: standard
  (2) pair eam/alloy, perpetual, copy from (1)
      attributes: half, newton on
      pair build: copy
      stencil: none
      bin: none
Setting up Verlet run ...
  Unit style    : metal
  Current step  : 0
  Time step     : 0.001
Per MPI rank memory allocation (min/avg/max) = 8.155 | 8.178 | 8.190 Mbytes
Step Temp E_pair E_mol TotEng Press 
       0         1500   -234499.82            0   -231009.99    7643.7773 
  100000       1487.8   -232438.46            0   -228977.01    40530.415 
Loop time of 633.239 on 52 procs for 100000 steps with 18000 atoms

Performance: 13.644 ns/day, 1.759 hours/ns, 157.918 timesteps/s
99.9% CPU use with 52 MPI tasks x 1 OpenMP threads

MPI task timing breakdown:
Section |  min time  |  avg time  |  max time  |%varavg| %total
---------------------------------------------------------------
Pair    | 404.65     | 415.04     | 424.64     |  22.8 | 65.54
Bond    | 0.006146   | 0.010884   | 0.017681   |   2.4 |  0.00
Kspace  | 133.41     | 145.98     | 156.76     |  46.1 | 23.05
Neigh   | 47.536     | 50.28      | 54.937     |  24.4 |  7.94
Comm    | 15.686     | 16.831     | 19.293     |  24.7 |  2.66
Output  | 5.9694e-05 | 6.4541e-05 | 0.00026067 |   0.0 |  0.00
Modify  | 2.3232     | 3.6813     | 5.6568     |  60.9 |  0.58
Other   |            | 1.412      |            |       |  0.22

Nlocal:        346.154 ave         364 max         330 min
Histogram: 3 5 3 6 11 9 5 5 2 3
Nghost:        4072.35 ave        4167 max        3990 min
Histogram: 6 4 3 11 5 8 2 4 6 3
Neighs:        70205.3 ave       74302 max       65240 min
Histogram: 1 3 3 5 9 12 6 6 4 3

Total # of neighbors = 3650677
Ave neighs/atom = 202.81539
Ave special neighs/atom = 0.0000000
Neighbor list builds = 24979
Dangerous builds = 0
12000 atoms in group oxygen
PPPM initialization ...
  using 12-bit tables for long-range coulomb (../kspace.cpp:328)
  G vector (1/distance) = 0.29862577
  grid = 40 240 40
  stencil order = 5
  estimated absolute RMS force accuracy = 0.00015944037
  estimated relative force accuracy = 1.1072521e-05
  using single precision MKL FFT
  3d grid and FFT values/proc = 15000 7600
Setting up Verlet run ...
  Unit style    : metal
  Current step  : 0
  Time step     : 0.001
Per MPI rank memory allocation (min/avg/max) = 8.406 | 8.429 | 8.441 Mbytes
Step f_2 Temp v_Tdiff v_deltaT 
       0            0       1487.8            0            0 
  100000    1565.8574    1510.7659  0.071509833    830.22252 
  200000    3026.3766    1505.9705  0.086227804    1001.0968 
  300000     4482.062    1517.8432  0.089821351    1042.8175 
  400000    5941.1934    1523.0402   0.09122657     1059.132 
  500000    7412.2756    1512.6418  0.087707513    1018.2761 
  600000    8872.0407    1518.8519  0.087420492    1014.9438 
  700000    10341.155    1513.4998   0.08805287    1022.2856 
  800000    11802.257    1531.0213  0.088180078    1023.7625 
  900000    13259.192    1525.3847  0.089093125    1034.3629 
 1000000    14722.484    1536.3268  0.089864542     1043.319 
Loop time of 6294.71 on 52 procs for 1000000 steps with 18000 atoms

Performance: 13.726 ns/day, 1.749 hours/ns, 158.863 timesteps/s
99.9% CPU use with 52 MPI tasks x 1 OpenMP threads

MPI task timing breakdown:
Section |  min time  |  avg time  |  max time  |%varavg| %total
---------------------------------------------------------------
Pair    | 3981.2     | 4079       | 4165.8     |  61.8 | 64.80
Bond    | 0.058103   | 0.11152    | 0.17438    |   6.8 |  0.00
Kspace  | 1413.1     | 1490.2     | 1581.4     | 106.8 | 23.67
Neigh   | 485.57     | 510.5      | 538.15     |  56.7 |  8.11
Comm    | 158.19     | 169.75     | 202.71     |  92.0 |  2.70
Output  | 0.0010187  | 0.0011203  | 0.0023851  |   0.5 |  0.00
Modify  | 5.4067     | 6.0671     | 6.5795     |  11.4 |  0.10
Other   |            | 39.07      |            |       |  0.62

Nlocal:        346.154 ave         370 max         332 min
Histogram: 7 5 4 15 9 4 3 4 0 1
Nghost:        4072.06 ave        4183 max        3998 min
Histogram: 7 10 6 3 7 6 7 2 1 3
Neighs:        70196.7 ave       74520 max       65802 min
Histogram: 1 2 5 8 10 8 10 4 2 2

Total # of neighbors = 3650230
Ave neighs/atom = 202.79056
Ave special neighs/atom = 0.0000000
Neighbor list builds = 254387
Dangerous builds = 0
Total wall time: 1:55:28
