ITEM: TIMESTEP
20000
ITEM: NUMBER OF ATOMS
17820
ITEM: BOX BOUNDS pp pp pp
-3.6596787627605099e-01 2.7705967876276233e+01
-4.4519964027137187e+00 3.3253199640271214e+02
-3.6813817003010546e-01 2.7708138170030171e+01
ITEM: ATOMS id type q x y z
1 2 2.2208 5.1738 1.00976 5.10977
2 1 -1.1104 1.26828 -3.14184 0.883353
3 1 -1.1104 0.977432 2.427 1.0652
6 1 -1.1104 1.16113 -3.0692 3.62928
7 1 -1.1104 1.0675 2.55291 3.81822
10 1 -1.1104 1.05724 -0.303185 0.879948
12 2 2.2208 5.35033 -1.76649 2.38449
13 2 2.2208 5.29952 3.82393 2.43174
14 1 -1.1104 1.11874 -0.236181 3.89567
16 1 -1.1104 4.09803 -3.14697 0.955571
17 1 -1.1104 3.84321 2.36504 1.08331
18 2 2.2208 2.40901 1.11463 2.41089
19 1 -1.1104 4.11565 -3.2061 3.93352
20 1 -1.1104 3.87212 2.47133 3.80771
21 2 2.2208 2.47517 -1.83731 5.12433
22 2 2.2208 2.37941 3.86875 5.16958
23 1 -1.1104 3.68738 -0.352073 0.956823
24 1 -1.1104 3.8171 -0.315767 3.71802
25 2 2.2208 5.40376 6.68004 4.97029
26 1 -1.1104 1.11548 8.09248 1.09582
28 1 -1.1104 1.08715 8.11542 3.8296
30 1 -1.1104 1.03609 5.14516 1.05877
32 1 -1.1104 1.10746 5.38015 3.84968
34 1 -1.1104 3.88557 8.12303 1.07063
35 2 2.2208 2.49116 6.77828 2.46997
36 1 -1.1104 3.87476 8.07772 3.99224
37 1 -1.1104 3.91484 5.32808 1.03966
38 1 -1.1104 3.83015 5.21089 3.82227
8892 2 2.2208 -0.370013 1.13084 5.14819
8948 2 2.2208 -0.359265 -1.72412 2.29265
84 1 -1.1104 1.12959 -0.289303 6.67363
86 1 -1.1104 3.88638 -3.12526 6.55717
8886 2 2.2208 -0.329587 3.88054 2.41024
80 1 -1.1104 1.03339 -3.13585 6.49518
89 1 -1.1104 1.41506 8.04805 6.53289
88 1 -1.1104 4.03609 -0.314687 6.56027
87 1 -1.1104 4.00357 2.48118 6.47818
8947 2 2.2208 -0.27905 6.61192 5.24435
90 1 -1.1104 6.49334 7.92851 6.42097
27 1 -1.1104 6.65471 8.07983 0.932115
29 1 -1.1104 6.55948 8.18253 3.65016
4 1 -1.1104 6.75982 -3.14793 1.03383
85 1 -1.1104 6.70237 -0.424034 6.58377
67 1 -1.1104 12.1786 8.18 3.65833
31 1 -1.1104 6.65152 5.21255 0.976755
5 1 -1.1104 6.69937 2.41212 1.02226
11 1 -1.1104 6.64 -0.421189 0.941554
8 1 -1.1104 6.89129 -3.19871 3.78235
15 1 -1.1104 6.62032 -0.369577 3.84492
9 1 -1.1104 6.70541 2.39008 3.94037
33 1 -1.1104 6.72201 5.31255 3.56479
92 1 -1.1104 6.66038 5.16274 6.57676
46 2 2.2208 10.9119 1.09953 5.14763
47 1 -1.1104 12.2803 -3.17356 0.825652
48 1 -1.1104 12.3703 2.31836 0.922101
49 1 -1.1104 12.3308 -3.16929 3.67295
50 1 -1.1104 12.2952 2.50289 3.60946
51 1 -1.1104 12.3007 -0.485124 0.942304
52 2 2.2208 10.8879 -1.67854 2.39838
53 2 2.2208 10.7819 4.00766 2.36624
54 1 -1.1104 12.3927 -0.481174 3.66453
55 1 -1.1104 9.47398 -3.03959 1.16236
56 1 -1.1104 9.53947 2.50681 0.958073
57 2 2.2208 8.13051 1.12772 2.39668
58 1 -1.1104 9.63244 -3.10712 3.92509
59 1 -1.1104 9.52199 2.51469 3.64655
60 2 2.2208 8.02423 -1.76214 5.2236
61 2 2.2208 8.15801 3.83359 5.16934
62 1 -1.1104 9.44264 -0.185142 0.93957
63 1 -1.1104 9.4774 -0.362962 3.78261
65 2 2.2208 10.8584 6.79261 5.1883
66 1 -1.1104 12.3275 8.24937 0.81567
68 1 -1.1104 12.0629 5.42697 1.08175
69 1 -1.1104 12.3042 5.41246 3.72702
70 1 -1.1104 9.46842 8.0351 0.871408
71 2 2.2208 8.03233 6.71827 2.22605
72 1 -1.1104 9.35188 8.17833 3.80831
73 1 -1.1104 9.40614 5.29827 0.89427
74 1 -1.1104 9.40502 5.47376 3.70972
146 1 -1.1104 9.35853 5.17279 6.43034
140 1 -1.1104 9.5761 2.3718 6.48761
137 1 -1.1104 12.4144 2.47123 6.36961
141 1 -1.1104 9.58154 -0.347646 6.46767
143 1 -1.1104 12.2681 5.11378 6.50001
83 1 -1.1104 6.70805 2.4558 6.66321
138 1 -1.1104 12.2334 -0.367818 6.50697
144 1 -1.1104 9.35481 7.95221 6.64003
165 2 2.2208 10.856 1.05475 -0.485251
142 1 -1.1104 12.3011 7.92906 6.58426
136 1 -1.1104 12.366 -3.27753 6.59753
82 1 -1.1104 6.6221 -3.25156 6.71917
331 2 2.2208 10.755 6.73168 -0.476603
8850 2 2.2208 -0.400525 4.00128 8.09317
81 1 -1.1104 1.20436 2.46608 6.71408
91 1 -1.1104 1.02401 5.36063 6.59895
93 1 -1.1104 3.99895 5.43283 6.67865
233 2 2.2208 2.45795 1.19849 13.5663
163 2 2.2208 2.4168 6.82654 13.5436
8787 2 2.2208 -0.41033 1.04208 10.848
234 2 2.2208 5.34778 3.81857 13.7215
8913 2 2.2208 -0.441526 6.70941 10.8811
8798 2 2.2208 -0.252165 -1.6637 8.0364
94 2 2.2208 5.4323 1.06241 10.7534
95 1 -1.1104 1.14561 -3.29496 12.1149
96 1 -1.1104 1.02628 2.63285 12.1628
98 1 -1.1104 1.20795 -3.15691 9.22534
99 1 -1.1104 0.921444 2.63877 9.4519
102 1 -1.1104 1.15824 -0.358022 12.1786
104 2 2.2208 5.27577 -1.79679 7.99195
105 2 2.2208 5.32741 3.9451 7.88941
106 1 -1.1104 1.1585 -0.261378 9.42635
108 1 -1.1104 4.14557 -3.22398 12.2145
109 1 -1.1104 3.87704 2.58729 12.064
110 2 2.2208 2.5532 1.16118 8.01412
111 1 -1.1104 3.91677 -3.16209 9.31166
112 1 -1.1104 3.90175 2.61361 9.2552
113 2 2.2208 2.56849 -1.65158 10.7391
114 2 2.2208 2.53485 3.98229 10.7988
115 1 -1.1104 4.03134 -0.242243 12.1574
116 1 -1.1104 3.96603 -0.251153 9.42946
117 2 2.2208 5.38463 6.69713 11.0548
118 1 -1.1104 0.849442 8.37592 12.1237
120 1 -1.1104 1.27654 8.2011 9.33418
122 1 -1.1104 0.928994 5.58857 12.2878
124 1 -1.1104 1.09875 5.39213 9.38747
126 1 -1.1104 3.7768 8.16337 11.8528
127 2 2.2208 2.37837 6.52482 8.00996
129 1 -1.1104 3.74753 5.3527 12.2765
130 1 -1.1104 3.76036 5.75055 9.58276
169 2 2.2208 5.18929 -1.65253 13.7185
119 1 -1.1104 6.51503 8.10716 12.4336
8584 2 2.2208 2.4115 -4.57539 7.88043
8954 2 2.2208 -0.415579 3.94232 13.4699
100 1 -1.1104 6.69371 -3.07127 9.49652
123 1 -1.1104 6.56609 5.28806 12.4862
139 1 -1.1104 9.45888 -3.12612 6.63098
168 2 2.2208 10.7777 3.87906 13.5434
78 2 2.2208 8.38014 -1.83158 10.6247
103 1 -1.1104 6.80926 -0.745878 12.3225
278 2 2.2208 8.06496 6.67373 13.8135
342 2 2.2208 8.14463 0.958529 13.5922
64 2 2.2208 8.10482 3.78208 10.661
121 1 -1.1104 6.37604 7.9211 9.52923
125 1 -1.1104 6.74476 5.18259 9.49573
133 1 -1.1104 12.3959 8.14411 12.2145
135 2 2.2208 8.24093 1.03202 7.86231
132 1 -1.1104 12.1052 8.10441 9.47526
167 2 2.2208 10.9318 -1.72214 13.7378
131 1 -1.1104 12.1609 5.38312 12.2024
145 1 -1.1104 9.43136 5.225 9.40105
154 1 -1.1104 12.3205 -2.94565 9.40818
159 1 -1.1104 12.2346 -0.202272 9.30823
156 1 -1.1104 12.4463 -0.382872 12.1
148 1 -1.1104 9.31219 8.10328 9.54989
149 2 2.2208 7.81842 6.70697 8.02676
150 1 -1.1104 9.43284 2.52068 12.0634
158 2 2.2208 10.8337 4.01302 7.96802
128 1 -1.1104 12.2685 5.4206 9.26581
157 2 2.2208 10.9902 -1.74349 7.92333
147 1 -1.1104 9.23899 5.1897 12.206
79 1 -1.1104 9.50112 2.34291 9.29321
155 1 -1.1104 12.3531 2.45976 9.25104
153 1 -1.1104 12.1257 2.49841 12.0231
151 2 2.2208 10.9093 1.07848 10.6363
107 1 -1.1104 6.93891 -0.273758 9.5009
160 1 -1.1104 9.75628 -2.94937 12.0998
152 1 -1.1104 12.5873 -3.22796 12.1676
43 1 -1.1104 9.68111 -0.28783 9.24324
44 1 -1.1104 9.56142 -0.310086 12.2764
134 1 -1.1104 9.53978 -3.24513 9.30903
101 1 -1.1104 6.71162 2.40969 9.39063
45 1 -1.1104 9.44429 7.91891 12.2426
40 2 2.2208 10.6863 6.63317 10.8103
97 1 -1.1104 6.66225 2.2437 12.2509
39 2 2.2208 13.6888 6.66178 7.97154
42 2 2.2208 13.7283 1.27082 7.96105
8851 2 2.2208 13.7187 3.89015 10.8334
172 2 2.2208 5.25572 1.02818 16.4422
173 1 -1.1104 1.00749 -3.19335 17.7306
174 1 -1.1104 0.9646 2.44798 17.713
177 1 -1.1104 1.21882 -3.12964 14.8874
179 1 -1.1104 0.962443 2.51639 14.811
184 1 -1.1104 1.25576 -0.305792 17.6758
186 2 2.2208 5.32978 -1.87745 19.1066
187 2 2.2208 5.14849 3.93061 19.2603
188 1 -1.1104 1.05972 -0.227489 14.8648
192 1 -1.1104 3.67016 -3.18483 17.8256
193 1 -1.1104 3.70254 2.59295 17.8471
194 2 2.2208 2.39816 1.04605 19.2367
195 1 -1.1104 3.9853 -3.16082 15.0097
197 1 -1.1104 3.75791 2.50425 15.0241
199 2 2.2208 2.31295 -1.86985 16.4262
200 2 2.2208 2.31991 3.86288 16.3905
201 1 -1.1104 3.91289 -0.408193 17.7053
202 1 -1.1104 3.90728 -0.319664 15.0267
204 2 2.2208 5.24314 6.73067 16.6233
205 1 -1.1104 0.983181 7.89383 17.5746
207 1 -1.1104 0.971992 8.10015 14.7861
211 1 -1.1104 0.893825 5.13187 17.9077
213 1 -1.1104 1.04665 5.27632 14.9905
218 2 2.2208 2.33995 6.75879 19.1711
219 1 -1.1104 3.70066 8.16537 14.9393
221 1 -1.1104 3.87993 5.42387 17.897
222 1 -1.1104 3.9957 5.42798 15.0414
217 1 -1.1104 3.91339 8.1206 17.7756
230 2 2.2208 -0.331874 6.67922 16.2168
198 1 -1.1104 3.93553 2.63312 20.7625
220 1 -1.1104 3.82185 8.01317 20.6193
223 1 -1.1104 3.62428 5.32846 20.6073
189 1 -1.1104 1.03914 -0.415873 20.3746
9073 2 2.2208 -0.329055 -1.64459 19.1314
185 1 -1.1104 6.72446 -0.208675 17.9502
180 1 -1.1104 1.00741 2.29311 20.6093
203 1 -1.1104 3.89784 -0.243059 20.4948
214 1 -1.1104 0.884461 5.13778 20.6823
178 1 -1.1104 1.12298 -3.22188 20.5677
175 1 -1.1104 6.44428 -3.06774 17.232
182 1 -1.1104 6.56073 2.43836 15.0081
190 1 -1.1104 6.5643 -0.519912 15.0765
9108 2 2.2208 -0.368759 1.05274 16.3226
9128 2 2.2208 -0.342177 -4.51769 16.2791
344 2 2.2208 -0.315652 -1.74714 13.5761
210 1 -1.1104 6.69388 8.12237 20.5622
215 1 -1.1104 6.70772 5.25449 15.2065
176 1 -1.1104 6.60774 2.47206 17.7713
209 1 -1.1104 6.63448 8.05711 15.2386
212 1 -1.1104 6.73844 5.35875 17.9821
268 1 -1.1104 9.62282 8.03773 15.0338
191 1 -1.1104 6.7465 -0.44796 20.671
181 1 -1.1104 6.72944 -3.11984 20.4345
206 1 -1.1104 6.77943 8.20273 17.9193
235 2 2.2208 10.8815 1.05255 16.3655
236 1 -1.1104 12.3778 -3.17734 17.8188
237 1 -1.1104 12.2216 2.54095 17.751
238 1 -1.1104 12.4997 -3.10438 15.0135
240 1 -1.1104 12.2571 2.64143 14.9729
242 1 -1.1104 12.397 -0.243114 17.8726
243 2 2.2208 10.9688 -1.73205 19.3341
244 2 2.2208 10.8744 3.87564 19.2842
245 1 -1.1104 12.1906 -0.152863 14.9426
247 1 -1.1104 9.36211 -2.92108 18.0999
248 1 -1.1104 9.43615 2.45898 17.7961
249 2 2.2208 8.02022 1.05989 19.2886
250 1 -1.1104 9.37493 -3.0085 15.2582
252 1 -1.1104 9.3804 2.40667 14.9243
254 2 2.2208 8.17585 -1.64865 16.5387
255 2 2.2208 7.98725 3.82126 16.4269
256 1 -1.1104 9.60858 -0.275147 17.9011
257 1 -1.1104 9.54446 -0.307698 14.9855
259 2 2.2208 10.8616 6.73813 16.3947
260 1 -1.1104 12.2464 8.17314 17.8287
261 1 -1.1104 12.2827 8.24915 15.0256
263 1 -1.1104 12.3351 5.34307 17.7907
264 1 -1.1104 12.1703 5.36101 15.0496
266 1 -1.1104 9.56428 8.04804 17.915
267 2 2.2208 8.10927 6.63651 19.2593
270 1 -1.1104 9.50446 5.27003 17.7839
271 1 -1.1104 9.5348 5.14988 15.0328
216 1 -1.1104 6.59856 5.33636 20.6928
265 1 -1.1104 12.1469 5.19037 20.6539
262 1 -1.1104 12.3279 8.15973 20.5524
253 1 -1.1104 9.39293 2.42516 20.6628
269 1 -1.1104 9.58902 8.27645 20.8181
239 1 -1.1104 12.198 -3.11698 20.7118
183 1 -1.1104 6.56015 2.39593 20.7012
241 1 -1.1104 12.2797 2.48857 20.6705
246 1 -1.1104 12.2472 -0.260953 20.6413
272 1 -1.1104 9.50097 5.19295 20.6138
251 1 -1.1104 9.50691 -3.12033 20.6751
9001 2 2.2208 13.7208 1.1027 19.192
208 1 -1.1104 0.929858 8.10393 20.8886
196 1 -1.1104 3.83965 -3.19471 20.5733
17820 2 2.2208 -0.363754 -4.51455 21.9944
9002 2 2.2208 -0.298167 1.02912 21.9803
170 2 2.2208 2.56784 3.80789 27.7957
8780 2 2.2208 2.54565 -4.40389 24.8038
322 2 2.2208 2.44441 -1.5871 27.6325
231 2 2.2208 -0.229302 3.92722 24.8961
8994 2 2.2208 -0.354221 -1.717 24.644
283 2 2.2208 5.28631 0.971156 22.0887
284 1 -1.1104 1.1503 -3.0104 23.4793
285 1 -1.1104 1.0912 2.40139 23.3986
288 1 -1.1104 1.05784 -2.96868 26.2698
289 1 -1.1104 1.16221 2.49049 26.3691
292 1 -1.1104 1.04594 -0.221163 23.3322
294 2 2.2208 5.32325 -1.6317 24.8684
295 2 2.2208 5.20135 3.99424 24.8155
296 1 -1.1104 1.15814 -0.238418 26.1446
298 1 -1.1104 3.94029 -3.03862 23.4125
299 1 -1.1104 3.91537 2.56262 23.4989
300 2 2.2208 2.51617 1.12083 24.8839
301 1 -1.1104 3.82139 -2.98819 26.2742
302 1 -1.1104 3.82278 2.55446 26.23
303 2 2.2208 2.43556 -1.67503 22.0104
304 2 2.2208 2.49895 3.91364 22.1019
305 1 -1.1104 3.86002 -0.289408 23.3765
306 1 -1.1104 4.10478 -0.299587 26.3106
307 2 2.2208 5.25887 6.75793 21.9354
308 1 -1.1104 1.04366 8.00251 23.6178
312 1 -1.1104 1.23551 5.22527 23.4624
314 1 -1.1104 1.09799 5.32239 26.4948
316 1 -1.1104 3.93165 8.0347 23.3976
317 2 2.2208 2.47095 6.71397 24.9497
318 1 -1.1104 3.7818 8.2985 26.2781
319 1 -1.1104 3.90182 5.33993 23.5589
320 1 -1.1104 3.87885 5.4227 26.3353
310 1 -1.1104 1.00479 7.97334 26.3971
273 2 2.2208 -0.241718 6.64119 22.1303
321 2 2.2208 5.36091 1.03399 27.7392
17784 2 2.2208 -0.338371 -4.47261 27.6433
8985 2 2.2208 -0.296889 6.63729 27.7303
171 2 2.2208 5.27103 6.85589 27.5646
8955 2 2.2208 -0.384102 1.06721 27.6161
280 1 -1.1104 9.49364 -3.22715 23.4158
228 2 2.2208 13.8228 -1.64012 22.0658
341 1 -1.1104 12.3887 -3.17551 26.0966
225 2 2.2208 13.6413 3.98432 22.0521
258 1 -1.1104 9.46692 -0.335067 20.7034
313 1 -1.1104 6.59 5.17737 23.5875
8581 2 2.2208 10.822 -4.54627 27.7098
75 2 2.2208 8.21939 -1.8397 27.7945
279 1 -1.1104 9.58397 2.56351 23.4858
337 2 2.2208 8.08649 6.7498 24.784
340 1 -1.1104 12.5259 2.63432 23.6216
315 1 -1.1104 6.65392 5.43882 26.2417
293 1 -1.1104 6.7652 -0.2893 23.4373
325 1 -1.1104 12.2738 5.31932 23.4567
282 1 -1.1104 12.1305 5.28559 26.3138
336 1 -1.1104 9.43789 8.14269 26.2313
227 2 2.2208 13.4731 0.997667 24.9784
343 2 2.2208 7.92541 3.9069 27.6529
229 2 2.2208 7.99996 -1.75441 22.0553
329 1 -1.1104 9.50082 -0.517677 26.3146
328 2 2.2208 10.8994 6.66131 21.9445
324 1 -1.1104 12.4164 2.5144 26.3252
326 1 -1.1104 12.3227 8.01072 26.2175
277 1 -1.1104 9.39543 8.06314 23.4504
323 1 -1.1104 12.4315 -0.285269 23.388
327 1 -1.1104 12.1081 8.05413 23.4495
330 1 -1.1104 9.72234 -0.38027 23.4849
297 1 -1.1104 6.80577 -0.303138 26.2998
311 1 -1.1104 6.62257 8.17096 26.1164
334 1 -1.1104 9.46438 5.36467 26.0987
333 2 2.2208 10.8862 -1.85053 24.8279
232 1 -1.1104 9.50171 2.39602 26.3232
338 2 2.2208 10.9016 1.01291 22.1161
309 1 -1.1104 6.60724 8.15611 23.4066
286 1 -1.1104 6.80977 -3.06069 23.4634
291 1 -1.1104 6.63449 2.46022 26.2186
332 2 2.2208 10.7876 4.06851 24.8792
287 1 -1.1104 6.84988 2.43513 23.428
290 1 -1.1104 6.79472 -2.99145 26.1736
335 1 -1.1104 9.28203 5.39038 23.258
274 1 -1.1104 9.58459 -3.1783 26.2552
281 1 -1.1104 12.3677 -0.446417 26.2784
339 1 -1.1104 12.3504 -3.00512 23.4328
275 2 2.2208 8.22505 1.15304 24.9625
224 2 2.2208 8.02364 3.87011 21.9372
8781 2 2.2208 8.07577 -4.4866 24.8701
345 2 2.2208 5.2322 12.4162 5.22441
346 1 -1.1104 0.954678 10.8511 0.905908
350 2 2.2208 5.27 9.56344 2.35761
351 1 -1.1104 0.909529 11.0429 3.65521
353 2 2.2208 2.53472 12.4564 2.41356
354 2 2.2208 2.30514 9.73802 5.0263
355 1 -1.1104 3.92787 10.9422 0.849647
356 1 -1.1104 3.46329 11.1266 6.3903
357 1 -1.1104 3.8933 10.9542 3.59028
358 2 2.2208 5.17272 17.8764 5.32152
359 1 -1.1104 1.01224 13.7642 0.992272
361 1 -1.1104 1.10763 19.3305 0.827062
365 1 -1.1104 1.02384 13.7939 3.77792
366 1 -1.1104 0.979098 19.401 3.65306
369 1 -1.1104 0.985674 16.6031 0.792712
372 2 2.2208 5.2248 15.3072 2.39244
373 2 2.2208 5.17503 20.8921 2.32034
374 1 -1.1104 1.17373 16.6219 3.77353
376 1 -1.1104 3.73715 13.7807 0.977725
378 1 -1.1104 3.69465 19.512 1.08657
380 2 2.2208 2.32677 17.9868 2.2695
381 1 -1.1104 3.80692 13.9048 3.73823
382 1 -1.1104 4.12639 19.3985 3.77177
383 2 2.2208 2.28813 15.0522 5.27758
384 2 2.2208 2.32143 20.7388 5.26295
385 1 -1.1104 3.836 16.6079 0.986237
387 1 -1.1104 3.84058 16.7479 3.76552
391 2 2.2208 -0.365602 20.8198 2.25555
9273 2 2.2208 -0.392492 9.52704 2.40836
377 1 -1.1104 3.92135 13.7999 6.66232
402 1 -1.1104 6.60359 19.3786 1.36971
368 2 2.2208 -0.38894 18.0664 5.06908
445 1 -1.1104 0.806032 19.4248 6.43406
347 1 -1.1104 0.916567 10.8845 6.51563
370 1 -1.1104 0.78693 16.5023 6.54169
364 1 -1.1104 6.51357 19.2408 6.52006
386 1 -1.1104 3.66847 16.5087 6.59319
379 1 -1.1104 3.71652 19.4039 6.62336
348 1 -1.1104 6.68413 10.858 0.940141
367 1 -1.1104 6.64169 13.7856 3.85379
352 1 -1.1104 6.65697 10.9049 3.66164
371 1 -1.1104 6.53088 16.4622 6.5922
375 1 -1.1104 6.56008 16.6455 3.74543
403 1 -1.1104 6.62332 16.7454 1.06287
363 1 -1.1104 6.5525 13.6324 6.7313
362 1 -1.1104 6.59974 13.8136 1.06331
392 2 2.2208 10.7525 12.3209 5.24427
393 1 -1.1104 12.4365 11.0465 0.860298
395 2 2.2208 10.6969 9.46861 2.26274
396 1 -1.1104 12.1245 10.9759 3.78944
397 2 2.2208 8.05572 12.346 2.42733
398 2 2.2208 7.944 9.53156 5.22617
399 1 -1.1104 9.36036 10.7657 0.893007
401 1 -1.1104 9.45751 11.0176 3.83825
404 2 2.2208 10.6434 17.9212 5.35724
405 1 -1.1104 12.1883 13.706 0.968722
407 1 -1.1104 12.262 19.3132 1.15013
409 1 -1.1104 12.2945 13.811 3.84724
410 1 -1.1104 12.0931 19.3622 3.87754
411 1 -1.1104 12.1133 16.427 1.09745
413 2 2.2208 10.7602 15.1493 2.43517
414 2 2.2208 10.8409 20.7537 2.45794
415 1 -1.1104 12.1995 16.5637 3.91865
416 1 -1.1104 9.41479 13.5898 1.07316
418 1 -1.1104 9.422 19.2109 0.988233
420 2 2.2208 8.22644 17.8483 2.43732
421 1 -1.1104 9.34503 13.6935 3.75189
422 1 -1.1104 9.49128 19.2067 3.64785
423 2 2.2208 8.15257 15.1035 5.21032
424 1 -1.1104 9.38 16.4093 1.11964
426 1 -1.1104 9.37413 16.4033 3.79485
425 1 -1.1104 9.22144 16.4197 6.57965
491 2 2.2208 13.5336 9.54417 5.13984
349 1 -1.1104 6.78067 11.1703 6.28372
394 1 -1.1104 12.1797 10.7408 6.56297
417 1 -1.1104 9.42199 13.7263 6.70164
412 1 -1.1104 12.0701 16.4633 6.63567
406 1 -1.1104 12.0054 13.6559 6.67075
408 1 -1.1104 12.2988 19.1867 6.68296
419 1 -1.1104 9.59019 19.2871 6.71166
427 2 2.2208 13.5753 17.8724 2.48187
9276 2 2.2208 13.5942 15.053 -0.399014
9275 2 2.2208 -0.506205 20.8689 7.96284
360 1 -1.1104 0.970287 13.6541 6.49502
9247 2 2.2208 -0.348271 12.4651 10.6867
464 2 2.2208 -0.409083 17.9919 10.6394
496 2 2.2208 -0.21537 9.40301 8.0054
465 2 2.2208 -0.571222 15.2126 7.78075
429 1 -1.1104 3.88316 19.2487 12.3011
430 1 -1.1104 3.79222 13.7528 12.4292
434 1 -1.1104 0.929644 19.4737 9.17954
435 1 -1.1104 0.958771 16.6306 9.25183
436 2 2.2208 5.19398 20.8098 7.81692
437 1 -1.1104 1.04456 13.921 9.27144
438 2 2.2208 5.29806 15.1616 8.17727
441 1 -1.1104 1.04815 19.2904 12.1051
442 1 -1.1104 1.03367 13.8651 12.0802
443 2 2.2208 5.45825 18.0643 10.7646
444 1 -1.1104 3.80893 19.4728 9.30325
446 2 2.2208 2.29219 17.8918 8.03512
447 1 -1.1104 3.77922 16.5785 9.44854
448 1 -1.1104 3.96562 13.7861 9.55621
450 1 -1.1104 1.01868 16.6418 12.0121
451 1 -1.1104 3.83685 16.6555 12.2391
452 2 2.2208 2.42023 20.7548 10.7503
453 2 2.2208 5.28198 12.2318 10.8657
454 1 -1.1104 1.04502 11.274 12.2115
456 2 2.2208 2.50407 15.2457 10.9109
457 1 -1.1104 0.843055 11.0822 9.1558
459 2 2.2208 2.48978 12.441 7.99683
460 2 2.2208 2.37673 9.71941 10.9026
461 1 -1.1104 3.85894 10.9236 12.3292
462 1 -1.1104 3.61071 10.7588 9.57724
497 2 2.2208 2.52681 18.0382 13.5205
455 1 -1.1104 6.64833 10.9011 12.3408
557 2 2.2208 5.25653 9.53056 13.7284
559 2 2.2208 -0.252805 15.2089 13.5701
498 2 2.2208 5.45679 20.7071 13.6333
558 2 2.2208 2.43359 12.3398 13.6887
499 2 2.2208 5.19376 15.1032 13.6653
433 1 -1.1104 6.56135 13.8248 9.45538
9323 2 2.2208 -0.346017 9.70113 13.5442
556 2 2.2208 -0.35746 20.7825 13.5582
502 2 2.2208 8.16507 17.749 13.5581
506 2 2.2208 8.06841 12.234 13.6011
500 2 2.2208 10.8539 20.6528 13.6249
440 1 -1.1104 6.68218 13.6957 12.0945
504 2 2.2208 10.8727 9.43829 13.6405
473 1 -1.1104 9.3669 19.2982 12.2587
487 1 -1.1104 12.2613 13.6445 12.2697
431 1 -1.1104 6.71934 19.3633 9.3168
432 1 -1.1104 6.854 16.621 9.41195
486 1 -1.1104 12.1871 19.0607 12.2568
474 1 -1.1104 9.48515 13.5865 12.3062
472 2 2.2208 8.04803 17.9716 7.97144
475 1 -1.1104 12.2735 16.5348 9.41601
481 1 -1.1104 12.1532 19.3578 9.57095
389 2 2.2208 10.9037 9.48628 8.04226
400 1 -1.1104 9.43291 10.7731 6.69846
467 1 -1.1104 9.67638 16.4264 12.3101
482 1 -1.1104 12.3066 13.8586 9.42532
439 1 -1.1104 6.72146 19.2705 12.1644
388 1 -1.1104 12.1289 11.0291 9.4319
488 2 2.2208 10.8453 17.8589 10.8336
480 1 -1.1104 9.43179 10.845 12.2765
449 1 -1.1104 6.68737 16.4486 12.1363
466 1 -1.1104 9.49182 16.4098 9.55493
458 1 -1.1104 6.67892 11.0126 9.6121
484 2 2.2208 7.97207 12.1974 8.05787
463 2 2.2208 10.7239 12.2803 10.7669
470 1 -1.1104 9.51943 19.2454 9.39813
469 2 2.2208 8.06282 14.9982 10.8908
471 1 -1.1104 9.37364 13.669 9.45904
390 1 -1.1104 12.1837 10.8853 12.1318
476 2 2.2208 10.9076 20.7395 8.0868
483 2 2.2208 7.88176 9.4936 10.9035
477 1 -1.1104 9.36211 10.8098 9.52745
478 2 2.2208 10.8131 15.0426 8.13236
468 2 2.2208 8.07863 20.7353 10.7661
479 1 -1.1104 12.3914 16.3826 12.4065
509 2 2.2208 5.28012 12.3182 16.464
510 1 -1.1104 1.13177 10.9403 17.6134
512 2 2.2208 5.30715 9.55202 19.1769
513 1 -1.1104 0.879008 10.7812 14.8834
517 2 2.2208 2.32898 12.1695 19.1914
518 2 2.2208 2.25445 9.43339 16.3636
519 1 -1.1104 3.86826 10.7973 17.8653
520 1 -1.1104 3.69156 10.9928 15.0945
522 2 2.2208 5.30397 17.8848 16.5018
523 1 -1.1104 1.08709 13.8089 17.7591
524 1 -1.1104 1.06667 19.4538 17.7459
527 1 -1.1104 1.07972 13.7225 14.8933
529 1 -1.1104 1.19943 19.3248 14.9579
535 1 -1.1104 1.1946 16.5997 17.657
537 2 2.2208 5.27471 15.1647 19.296
538 2 2.2208 5.29941 20.8236 19.3454
539 1 -1.1104 1.16863 16.5543 14.8876
543 1 -1.1104 3.95215 13.7059 17.912
544 1 -1.1104 3.7973 19.5086 17.9032
545 2 2.2208 2.36863 18.0874 19.1864
546 1 -1.1104 3.91164 13.8577 15.1902
548 1 -1.1104 3.96722 19.5494 15.1687
550 2 2.2208 2.37271 15.1745 16.3972
551 2 2.2208 2.49315 20.8348 16.387
552 1 -1.1104 3.85928 16.6819 18.0031
553 1 -1.1104 3.95372 16.6483 14.964
9428 2 2.2208 -0.430954 12.3454 16.4424
594 2 2.2208 -0.275953 18.053 16.4049
536 1 -1.1104 6.71792 16.5503 17.793
554 1 -1.1104 3.72594 16.5876 20.7037
526 1 -1.1104 6.70655 19.3447 17.9831
521 1 -1.1104 4.11282 10.8982 20.549
547 1 -1.1104 3.88387 13.7966 20.6573
528 1 -1.1104 1.01828 13.8203 20.4022
530 1 -1.1104 1.01866 19.3526 20.5459
540 1 -1.1104 1.02458 16.6658 20.5289
534 1 -1.1104 6.72433 19.4393 20.713
595 2 2.2208 -0.355196 15.2385 19.2139
525 1 -1.1104 6.72337 13.8216 17.9398
531 1 -1.1104 6.6873 13.7308 15.1029
541 1 -1.1104 6.69524 16.5012 14.9884
641 2 2.2208 13.6173 17.9032 19.3678
599 2 2.2208 13.5885 20.7193 16.4693
533 1 -1.1104 6.6959 19.376 15.1034
515 1 -1.1104 6.75628 11.0034 15.1119
511 1 -1.1104 6.73956 10.9698 17.9527
560 2 2.2208 10.8653 12.4082 16.5442
561 1 -1.1104 12.3362 11.1107 17.7174
562 2 2.2208 10.9161 9.57507 19.3037
563 1 -1.1104 12.1183 10.9793 14.864
565 2 2.2208 7.97058 12.3424 19.295
566 2 2.2208 8.13569 9.56051 16.5552
567 1 -1.1104 9.68378 10.9387 17.8577
568 1 -1.1104 9.4752 10.9905 15.1865
570 2 2.2208 10.9414 17.9399 16.4373
571 1 -1.1104 12.2736 13.8581 17.8438
572 1 -1.1104 12.2515 19.3057 17.9174
573 1 -1.1104 12.2613 13.8277 15.2121
575 1 -1.1104 12.2729 19.3495 14.9225
577 1 -1.1104 12.2448 16.5894 17.9621
578 2 2.2208 10.7732 15.0726 19.3007
579 2 2.2208 11.0066 20.8285 19.237
580 1 -1.1104 12.4469 16.5125 15.2604
582 1 -1.1104 9.46866 13.7852 17.8197
583 1 -1.1104 9.56637 19.5352 17.8382
584 2 2.2208 8.15371 18.0734 19.2057
585 1 -1.1104 9.45921 13.8178 15.0108
587 1 -1.1104 9.36145 19.1907 15.069
589 2 2.2208 8.15332 15.1544 16.4955
590 2 2.2208 8.15207 20.6665 16.4917
591 1 -1.1104 9.5462 16.5006 17.8299
592 1 -1.1104 9.60133 16.5424 15.1732
593 1 -1.1104 9.42709 16.5314 20.7067
588 1 -1.1104 9.56865 19.369 20.6317
574 1 -1.1104 12.1687 13.7964 20.7406
581 1 -1.1104 12.2954 16.5038 20.735
569 1 -1.1104 9.54082 11.0449 20.7652
576 1 -1.1104 12.2545 19.3688 20.6973
516 1 -1.1104 6.752 10.7666 20.633
532 1 -1.1104 6.61588 13.7598 20.6964
597 2 2.2208 13.7435 15.1725 16.455
501 2 2.2208 10.9685 15.0462 13.7204
549 1 -1.1104 3.90994 19.4594 20.6992
514 1 -1.1104 1.22822 11.1339 20.8006
9393 2 2.2208 -0.364127 12.2971 22.0493
637 2 2.2208 5.33167 12.3589 27.6259
639 2 2.2208 -0.369784 15.1245 24.8711
9327 2 2.2208 -0.323389 20.7146 24.7396
643 2 2.2208 -0.253318 9.46339 24.9019
600 1 -1.1104 3.92651 19.3667 23.4734
602 1 -1.1104 3.86749 13.7205 23.5174
604 1 -1.1104 1.04286 19.4021 26.0844
605 1 -1.1104 1.1722 16.5604 26.2355
606 1 -1.1104 1.06444 13.7036 26.302
608 2 2.2208 5.29088 20.6991 24.8712
609 2 2.2208 5.22455 15.1817 24.7499
611 1 -1.1104 1.14665 19.198 23.4386
612 1 -1.1104 1.06555 13.6668 23.2462
613 2 2.2208 5.28492 17.9994 21.9876
614 1 -1.1104 3.85672 19.297 26.3183
615 2 2.2208 2.47799 17.9012 24.7008
616 1 -1.1104 3.89381 16.5462 26.1373
617 1 -1.1104 3.89146 13.6724 26.3056
619 1 -1.1104 1.1327 16.3175 23.4209
620 1 -1.1104 3.98538 16.6335 23.3189
621 2 2.2208 2.45234 20.783 21.8872
622 2 2.2208 5.1667 12.4088 21.9305
623 1 -1.1104 0.987888 10.9119 23.5401
625 2 2.2208 2.44557 15.1295 21.8958
626 2 2.2208 5.2515 9.47844 24.7444
627 1 -1.1104 1.0732 10.8777 26.2495
629 2 2.2208 2.41505 12.4099 24.7816
630 2 2.2208 2.42545 9.4712 22.0633
631 1 -1.1104 3.87126 10.8432 23.3148
632 1 -1.1104 3.98152 11.0011 26.1302
635 2 2.2208 2.47984 15.1766 27.595
638 2 2.2208 -0.382234 12.3334 27.7115
9332 2 2.2208 -0.32225 18.0175 27.4978
507 2 2.2208 5.14194 18.056 27.5728
508 2 2.2208 2.37446 9.58478 27.6451
624 1 -1.1104 6.6734 10.9913 23.5002
633 2 2.2208 2.43911 20.8303 27.6569
428 2 2.2208 8.05034 20.7155 27.6117
542 1 -1.1104 6.5909 16.6821 20.5721
564 1 -1.1104 12.1486 11.04 20.5134
667 2 2.2208 10.9129 17.8217 22.0796
603 1 -1.1104 6.56938 16.5271 26.432
9324 2 2.2208 13.688 17.8786 24.9151
656 1 -1.1104 9.36114 11.1807 26.2869
636 2 2.2208 10.8596 18.0434 27.8546
650 1 -1.1104 9.33499 13.7915 26.3205
555 2 2.2208 13.6052 20.6573 22.2311
596 2 2.2208 7.8737 15.1874 27.7567
652 2 2.2208 8.12165 17.8773 24.8705
651 1 -1.1104 6.62305 19.3064 26.3237
618 1 -1.1104 6.711 16.6705 23.3739
490 2 2.2208 10.8383 12.3141 27.6609
653 1 -1.1104 9.41306 19.1831 23.3903
644 2 2.2208 7.95711 9.6447 27.4833
664 2 2.2208 7.93937 12.4141 24.8769
670 2 2.2208 10.7918 9.49426 24.8661
601 1 -1.1104 6.72698 13.7255 26.268
607 1 -1.1104 6.68659 19.3373 23.4931
669 1 -1.1104 12.1859 10.9378 23.4037
610 1 -1.1104 6.66999 13.8419 23.348
662 1 -1.1104 9.32131 10.8625 23.4891
668 2 2.2208 10.7881 12.367 22.2403
661 1 -1.1104 12.2595 13.5667 26.2664
666 1 -1.1104 12.172 13.7755 23.6571
660 1 -1.1104 12.3779 19.3395 26.3738
657 2 2.2208 10.8951 20.683 24.9413
586 1 -1.1104 9.41111 13.7235 20.5896
628 1 -1.1104 6.58608 10.8388 26.1432
647 2 2.2208 8.08873 20.7308 22.0941
648 2 2.2208 7.95621 15.1702 22.063
649 1 -1.1104 9.36339 19.2679 26.2235
658 2 2.2208 10.7934 15.1772 25.0148
645 1 -1.1104 9.33774 16.5088 26.4962
646 1 -1.1104 9.5093 16.4625 23.6063
659 1 -1.1104 12.2108 16.6273 23.5572
671 1 -1.1104 12.2842 10.755 26.2425
654 1 -1.1104 9.4618 13.7194 23.5346
665 1 -1.1104 12.2621 19.2742 23.4466
663 2 2.2208 8.02135 9.54945 22.0703
655 1 -1.1104 12.1773 16.5204 26.3796
634 2 2.2208 13.644 12.2193 24.8409
673 2 2.2208 5.09303 23.6373 5.34283
674 2 2.2208 5.19261 29.0679 5.08417
675 1 -1.1104 1.03447 25.1075 0.924101
676 1 -1.1104 1.01254 25.0912 3.73465
677 1 -1.1104 0.860972 22.258 1.01309
678 1 -1.1104 0.975977 27.9443 0.763816
679 2 2.2208 5.28481 26.3134 2.21758
680 1 -1.1104 1.03979 22.3111 3.78002
681 1 -1.1104 1.12238 27.9111 3.71876
683 1 -1.1104 3.73293 25.1431 0.980886
684 2 2.2208 2.3962 23.6407 2.36488
685 2 2.2208 2.43463 29.1055 2.35829
686 1 -1.1104 3.79689 24.8585 3.68198
687 2 2.2208 2.38887 26.404 5.11568
688 1 -1.1104 3.79793 22.3281 0.951257
689 1 -1.1104 3.7544 27.8797 0.922327
690 1 -1.1104 4.05958 22.1143 3.80551
691 1 -1.1104 3.77121 27.7543 3.75088
692 1 -1.1104 0.993151 30.6135 0.975403
693 1 -1.1104 0.811131 30.5968 3.79798
694 1 -1.1104 1.11706 33.4385 0.988492
695 2 2.2208 5.31976 32.0959 2.36515
696 1 -1.1104 1.05644 33.3726 3.81483
698 1 -1.1104 3.78113 30.7176 0.934756
699 1 -1.1104 3.95214 30.4229 3.58181
700 2 2.2208 2.37254 32.0669 5.16408
701 1 -1.1104 3.89904 33.3505 0.894009
702 1 -1.1104 3.87633 33.4725 3.70258
9607 2 2.2208 -0.375572 32.0242 2.39442
752 1 -1.1104 3.70021 22.2872 6.50391
759 1 -1.1104 3.87524 33.353 6.51787
707 1 -1.1104 6.65259 24.4033 3.65101
697 1 -1.1104 6.76341 33.2855 3.82905
731 1 -1.1104 6.68671 33.3726 0.886562
710 1 -1.1104 6.61059 27.476 3.75457
758 1 -1.1104 3.91331 30.5204 6.45711
748 1 -1.1104 1.08168 27.7523 6.52013
754 1 -1.1104 1.18068 30.6927 6.52849
747 1 -1.1104 0.918444 22.1421 6.46255
753 1 -1.1104 3.88953 27.7054 6.57919
751 1 -1.1104 3.81063 25.0122 6.62229
706 1 -1.1104 6.8238 24.9287 0.922816
729 1 -1.1104 6.65944 30.4055 1.13807
709 1 -1.1104 6.75104 27.69 0.968878
756 1 -1.1104 1.01895 33.2825 6.56989
730 1 -1.1104 6.77805 30.4144 4.17315
708 1 -1.1104 6.59553 22.2698 1.26132
711 2 2.2208 10.9391 23.4582 5.18596
712 2 2.2208 10.9137 29.1229 5.10964
713 1 -1.1104 12.0825 24.8124 1.02289
714 1 -1.1104 12.2756 24.9766 3.74327
715 1 -1.1104 12.1341 22.0002 0.776318
716 1 -1.1104 12.1258 27.7729 0.929303
717 2 2.2208 10.8717 26.4392 2.44512
718 1 -1.1104 12.3153 22.0849 3.67473
719 1 -1.1104 12.2333 27.6298 3.72825
720 1 -1.1104 9.45992 25.0062 0.91405
721 2 2.2208 8.37543 23.5741 2.38088
722 2 2.2208 8.03987 29.125 2.43641
723 1 -1.1104 9.54754 24.9396 3.7524
724 2 2.2208 8.12954 26.3396 5.13103
725 1 -1.1104 9.46344 21.9879 0.848865
726 1 -1.1104 9.50728 27.7058 0.93873
727 1 -1.1104 9.58583 22.3142 3.81261
728 1 -1.1104 9.44092 27.7591 3.70962
732 1 -1.1104 12.2865 30.5296 0.859275
733 1 -1.1104 12.198 30.4684 3.69074
734 1 -1.1104 12.2237 33.2541 0.854657
735 2 2.2208 10.8375 31.9219 2.25131
736 1 -1.1104 12.3192 33.3747 3.62361
737 1 -1.1104 9.40812 30.4389 1.14424
738 1 -1.1104 9.50448 30.5478 3.72767
739 2 2.2208 8.27346 31.9453 5.11815
740 1 -1.1104 9.4008 33.3774 0.915937
741 1 -1.1104 9.4442 33.3734 3.68021
805 1 -1.1104 9.54213 33.5014 6.40274
799 1 -1.1104 9.4349 25.1425 6.41257
804 1 -1.1104 9.69871 30.6138 6.43514
750 1 -1.1104 6.7388 27.8589 6.42373
797 1 -1.1104 12.4618 22.0821 6.50977
798 1 -1.1104 12.2741 27.6997 6.5388
796 1 -1.1104 12.3203 24.8253 6.63714
801 1 -1.1104 9.49859 27.8423 6.55569
800 1 -1.1104 9.78253 22.3511 6.88548
828 2 2.2208 13.6758 31.8712 5.02503
9562 2 2.2208 -0.43199 23.5973 10.7873
745 1 -1.1104 1.13425 24.9397 6.5806
749 1 -1.1104 6.40287 22.3273 6.51024
9545 2 2.2208 -0.363584 26.2514 13.566
840 2 2.2208 -0.334097 32.0475 7.9594
760 2 2.2208 5.21621 23.5018 10.6847
761 2 2.2208 5.21401 29.0498 10.8475
762 1 -1.1104 1.15328 25.0022 12.1822
764 1 -1.1104 1.1172 24.8738 9.35315
766 1 -1.1104 1.03462 22.1005 12.1644
767 1 -1.1104 0.946125 27.7839 12.2384
770 2 2.2208 5.2618 26.2903 7.95745
771 1 -1.1104 0.975668 22.1143 9.41395
772 1 -1.1104 1.17952 27.7787 9.47849
775 1 -1.1104 4.04304 24.9766 12.0927
776 2 2.2208 2.33594 23.4271 7.94518
777 2 2.2208 2.39752 29.1472 8.05027
778 1 -1.1104 3.80841 24.7936 9.30048