ITEM: TIMESTEP
40000
ITEM: NUMBER OF ATOMS
17820
ITEM: BOX BOUNDS pp pp pp
-3.6230025124940479e-01 2.7702300251249913e+01
-4.3823399341715596e+00 3.3246233993416706e+02
-3.6982013251988310e-01 2.7709820132519837e+01
ITEM: ATOMS id type q x y z
1 2 2.2208 5.20055 1.38244 5.31928
2 1 -1.1104 0.905785 -2.95151 1.05069
3 1 -1.1104 1.05215 2.67817 1.22288
6 1 -1.1104 1.11309 -3.08755 3.76944
7 1 -1.1104 1.19954 2.60145 3.98928
10 1 -1.1104 0.916806 -0.290103 0.948837
12 2 2.2208 5.14006 -1.48184 2.54623
13 2 2.2208 5.31827 4.03255 2.45491
14 1 -1.1104 1.12056 -0.204416 3.85664
16 1 -1.1104 3.90392 -2.96282 1.16404
17 1 -1.1104 3.74542 2.45818 1.13733
18 2 2.2208 2.4228 1.21566 2.58796
19 1 -1.1104 3.90888 -3.00417 3.88559
20 1 -1.1104 3.85876 2.59585 3.85733
21 2 2.2208 2.27795 -1.61973 5.27262
22 2 2.2208 2.51062 3.992 5.36354
23 1 -1.1104 3.67416 -0.225625 1.18095
24 1 -1.1104 3.8042 -0.127009 4.03371
25 2 2.2208 5.32872 6.90797 5.27072
26 1 -1.1104 0.804683 8.26417 1.09454
28 1 -1.1104 0.959132 8.44834 3.69625
30 1 -1.1104 1.0799 5.53374 0.932096
32 1 -1.1104 1.067 5.5483 4.01872
34 1 -1.1104 3.8945 8.21117 1.27051
35 2 2.2208 2.49742 6.82032 2.4789
36 1 -1.1104 3.79503 8.34499 4.2031
37 1 -1.1104 3.8681 5.44981 1.08033
38 1 -1.1104 3.90226 5.3746 3.8049
81 1 -1.1104 1.06669 2.5259 6.69519
87 1 -1.1104 3.88727 2.86475 6.78799
84 1 -1.1104 1.14444 -0.247391 6.65846
11 1 -1.1104 6.61576 0.0425848 1.0827
29 1 -1.1104 6.71481 8.34855 3.68407
5 1 -1.1104 6.68619 2.75744 1.24494
15 1 -1.1104 6.66006 -0.081224 3.87799
4 1 -1.1104 6.61105 -2.765 1.24441
9 1 -1.1104 6.63835 2.86024 4.01626
90 1 -1.1104 6.80489 8.04265 6.4938
80 1 -1.1104 1.10479 -3.10136 6.62517
93 1 -1.1104 3.64864 5.88236 6.62923
83 1 -1.1104 6.58093 2.62915 6.82704
88 1 -1.1104 4.01317 -0.122124 6.75937
92 1 -1.1104 6.41266 5.32481 6.69769
27 1 -1.1104 6.5753 8.31002 1.02654
86 1 -1.1104 3.91359 -2.80418 6.74102
8 1 -1.1104 6.73788 -2.90905 3.87336
42 2 2.2208 13.7424 1.23975 8.01327
8579 2 2.2208 2.4186 -4.55549 2.41833
31 1 -1.1104 6.66459 5.34154 1.07226
33 1 -1.1104 6.7246 5.65281 3.95221
67 1 -1.1104 12.2467 8.38398 3.82267
46 2 2.2208 10.9608 1.28009 5.34326
47 1 -1.1104 12.304 -2.85009 1.12584
48 1 -1.1104 12.2751 2.67121 1.17091
49 1 -1.1104 12.1933 -2.91251 3.98839
50 1 -1.1104 12.3983 2.83063 3.84625
51 1 -1.1104 12.2091 -0.0599284 1.05591
52 2 2.2208 10.8595 -1.55406 2.52042
53 2 2.2208 10.8972 4.14619 2.56597
54 1 -1.1104 12.3801 -0.0733274 3.81675
55 1 -1.1104 9.43371 -3.04362 0.967586
56 1 -1.1104 9.4408 2.64391 1.17062
57 2 2.2208 8.14727 1.37829 2.67824
58 1 -1.1104 9.4627 -2.85132 3.75513
59 1 -1.1104 9.6214 2.80621 3.77297
60 2 2.2208 8.13364 -1.55794 5.19895
61 2 2.2208 8.08925 4.30824 5.3551
62 1 -1.1104 9.49124 -0.175345 1.31214
63 1 -1.1104 9.5952 -0.0315474 3.89346
65 2 2.2208 10.8216 7.03713 5.34121
66 1 -1.1104 12.234 8.17035 1.00002
68 1 -1.1104 12.1151 5.47185 1.16386
69 1 -1.1104 12.4144 5.55661 3.83268
70 1 -1.1104 9.37097 8.35757 0.894444
71 2 2.2208 8.10748 6.82263 2.44395
72 1 -1.1104 9.49944 8.44162 3.8097
73 1 -1.1104 9.48572 5.55128 1.14295
74 1 -1.1104 9.40601 5.62555 3.96737
137 1 -1.1104 12.3687 2.6794 6.66314
141 1 -1.1104 9.51543 -0.187976 6.5908
76 2 2.2208 13.6955 -1.57936 5.28647
162 2 2.2208 13.6767 -1.48699 -0.408869
139 1 -1.1104 9.24456 -2.92981 6.42545
143 1 -1.1104 12.2752 5.5585 6.74103
136 1 -1.1104 12.1397 -2.91946 6.60385
140 1 -1.1104 9.51606 2.74574 6.51722
144 1 -1.1104 9.57193 8.38497 6.76393
8810 2 2.2208 13.6948 4.0845 5.28836
166 2 2.2208 10.8776 -4.36687 11.0524
165 2 2.2208 10.9036 1.23063 -0.243102
8583 2 2.2208 10.7739 -4.45913 5.27104
331 2 2.2208 10.7881 7.00265 -0.399727
91 1 -1.1104 0.96096 5.47263 6.68434
89 1 -1.1104 1.35756 8.26914 6.63295
85 1 -1.1104 6.79438 -0.133576 6.65636
8584 2 2.2208 2.53165 -4.34468 8.09299
8586 2 2.2208 13.6759 -4.50372 8.16942
163 2 2.2208 2.34805 6.81133 13.6537
94 2 2.2208 5.33204 1.23265 10.9607
95 1 -1.1104 1.3074 -2.85836 12.4308
96 1 -1.1104 1.11777 2.73673 12.2896
98 1 -1.1104 1.07459 -2.79694 9.55826
99 1 -1.1104 1.06146 2.60924 9.51827
102 1 -1.1104 1.26192 -0.136451 12.3596
104 2 2.2208 5.24717 -1.5371 8.04173
105 2 2.2208 5.26006 4.08545 8.26328
106 1 -1.1104 0.963023 -0.212355 9.36602
108 1 -1.1104 4.18289 -2.8541 12.304
109 1 -1.1104 4.06493 2.52838 12.3045
110 2 2.2208 2.56041 1.19578 8.16237
111 1 -1.1104 3.98768 -2.95684 9.52238
112 1 -1.1104 3.82211 2.78206 9.45927
113 2 2.2208 2.55511 -1.59792 10.9782
114 2 2.2208 2.68124 4.07141 10.8553
115 1 -1.1104 4.07151 -0.119159 12.3942
116 1 -1.1104 3.66743 -0.0745843 9.62425
117 2 2.2208 5.4179 6.83211 11.0786
118 1 -1.1104 0.993037 8.30626 12.3411
120 1 -1.1104 1.22276 8.27718 9.58281
122 1 -1.1104 1.09495 5.42162 12.2633
124 1 -1.1104 1.23855 5.42048 9.42117
126 1 -1.1104 3.78377 8.28567 11.9913
127 2 2.2208 2.24697 6.8697 8.09979
129 1 -1.1104 3.97521 5.33355 12.2805
130 1 -1.1104 3.8549 5.90498 9.53689
119 1 -1.1104 6.66096 8.34628 12.2056
123 1 -1.1104 6.70111 5.40756 12.4256
107 1 -1.1104 6.56535 -0.100031 9.36685
97 1 -1.1104 6.84624 2.441 12.5315
125 1 -1.1104 6.7146 5.29193 9.60332
169 2 2.2208 5.29965 -1.45279 13.8001
8913 2 2.2208 -0.358558 6.93355 10.9462
82 1 -1.1104 6.47739 -2.98377 6.84664
138 1 -1.1104 12.3327 -0.234543 6.57101
146 1 -1.1104 9.36068 5.52396 6.60784
142 1 -1.1104 12.3177 8.33675 6.67178
41 2 2.2208 13.8614 -1.57301 10.832
101 1 -1.1104 6.66273 2.57042 9.55651
100 1 -1.1104 6.77883 -3.05236 9.76792
43 1 -1.1104 9.53723 -0.217851 9.3368
103 1 -1.1104 6.72141 -0.455318 12.353
121 1 -1.1104 6.67535 8.07431 9.61075
147 1 -1.1104 9.49683 5.48107 12.2759
157 2 2.2208 10.91 -1.66152 8.01686
79 1 -1.1104 9.38305 2.6537 9.34694
145 1 -1.1104 9.59295 5.52712 9.47072
156 1 -1.1104 12.3288 -0.0833175 12.3602
135 2 2.2208 8.0485 1.19808 8.05106
78 2 2.2208 8.32656 -1.63484 10.8217
164 2 2.2208 13.7734 1.13307 13.6837
44 1 -1.1104 9.41631 -0.143678 12.1935
159 1 -1.1104 12.3025 -0.0791078 9.46358
153 1 -1.1104 12.1973 2.67049 12.3136
133 1 -1.1104 12.2677 8.38383 12.2247
64 2 2.2208 8.13288 3.9662 10.8509
40 2 2.2208 10.9235 6.88856 10.8759
45 1 -1.1104 9.39179 8.23909 12.1809
128 1 -1.1104 12.3824 5.40679 9.57281
77 2 2.2208 13.6121 6.98735 2.45509
155 1 -1.1104 12.2589 2.61842 9.47638
134 1 -1.1104 9.5243 -2.95486 9.2414
154 1 -1.1104 12.4346 -2.9351 9.38835
39 2 2.2208 13.6606 6.98719 8.00677
132 1 -1.1104 12.1976 8.17889 9.43103
152 1 -1.1104 12.5628 -2.99777 12.2659
8851 2 2.2208 13.7003 3.92433 10.8575
148 1 -1.1104 9.48782 8.40315 9.45954
150 1 -1.1104 9.48266 2.67361 12.2833
160 1 -1.1104 9.7758 -2.75301 12.1537
158 2 2.2208 10.8602 4.10262 8.16207
151 2 2.2208 10.9569 1.24775 10.8705
149 2 2.2208 7.90938 6.96931 8.14163
131 1 -1.1104 12.3128 5.50983 12.4377
233 2 2.2208 2.38927 1.21401 13.7657
8951 2 2.2208 13.6433 6.88787 13.6813
8835 2 2.2208 13.6333 1.33515 2.48294
161 2 2.2208 13.5386 4.25446 -0.308904
343 2 2.2208 8.04519 4.10583 -0.364362
8581 2 2.2208 10.8972 -4.35692 -0.365829
170 2 2.2208 2.43041 4.02173 -0.335901
17784 2 2.2208 -0.439994 -4.46915 -0.368798
8985 2 2.2208 -0.487179 6.9244 -0.258314
172 2 2.2208 5.33542 1.13836 16.464
173 1 -1.1104 1.15791 -3.05116 18.0159
174 1 -1.1104 1.0549 2.72643 17.8403
177 1 -1.1104 1.17238 -2.88591 15.2667
179 1 -1.1104 1.10144 2.68371 14.9714
184 1 -1.1104 1.10357 -0.205584 18.0505
186 2 2.2208 5.27378 -1.67347 19.1818
187 2 2.2208 5.24215 4.05594 19.2443
188 1 -1.1104 1.04145 -0.103028 15.1815
192 1 -1.1104 3.81678 -3.03577 17.9477
193 1 -1.1104 3.9172 2.68655 17.9816
194 2 2.2208 2.43583 1.2882 19.2523
195 1 -1.1104 4.29247 -3.09529 15.1785
197 1 -1.1104 3.91592 2.60219 15.1221
199 2 2.2208 2.40247 -1.56332 16.625
200 2 2.2208 2.606 4.1042 16.3902
201 1 -1.1104 3.83368 -0.140054 17.8787
202 1 -1.1104 3.78109 -0.239563 15.2291
204 2 2.2208 5.3241 6.74478 16.5082
205 1 -1.1104 0.976413 8.08699 17.8191
207 1 -1.1104 1.15289 8.224 15.0078
211 1 -1.1104 1.12349 5.30855 17.7848
213 1 -1.1104 1.07994 5.3725 14.9695
218 2 2.2208 2.38978 6.90559 19.3011
219 1 -1.1104 3.90861 8.03931 14.9664
221 1 -1.1104 3.97747 5.41186 17.8953
222 1 -1.1104 3.95293 5.40829 15.0599
217 1 -1.1104 3.82733 8.22564 17.7733
176 1 -1.1104 6.65775 2.55928 17.9014
175 1 -1.1104 6.67235 -2.91694 17.5965
190 1 -1.1104 6.70659 -0.273925 15.0747
180 1 -1.1104 1.17333 2.50312 20.8239
185 1 -1.1104 6.72478 -0.228155 17.9705
220 1 -1.1104 3.79432 8.17842 20.6609
183 1 -1.1104 6.66616 2.62993 20.7725
212 1 -1.1104 6.74808 5.30214 17.9826
206 1 -1.1104 6.62563 8.11802 17.9917
209 1 -1.1104 6.6737 8.07183 15.0668
178 1 -1.1104 1.14125 -3.05553 20.7701
215 1 -1.1104 6.70424 5.45169 15.3048
210 1 -1.1104 6.73549 8.09614 20.6878
189 1 -1.1104 1.00588 -0.301386 20.8303
338 2 2.2208 10.8796 1.29963 22.0994
8775 2 2.2208 2.50727 -4.39752 19.4416
333 2 2.2208 10.7662 -1.51582 25.042
181 1 -1.1104 6.66528 -2.90615 20.5892
182 1 -1.1104 6.79245 2.63344 15.2638
334 1 -1.1104 9.3156 5.46591 26.4745
336 1 -1.1104 9.51918 8.24952 26.1801
261 1 -1.1104 12.3953 8.20264 15.1278
268 1 -1.1104 9.54886 8.30175 14.9789
235 2 2.2208 10.8684 1.34282 16.4513
236 1 -1.1104 12.2268 -2.94508 18.0703
237 1 -1.1104 12.3295 2.55706 17.9352
238 1 -1.1104 12.5188 -2.99518 15.0689
240 1 -1.1104 12.3308 2.49751 15.0944
242 1 -1.1104 12.386 -0.146432 17.9277
243 2 2.2208 10.8515 -1.56292 19.42
244 2 2.2208 10.8405 4.04637 19.2958
245 1 -1.1104 12.1948 -0.256256 15.2016
247 1 -1.1104 9.43509 -2.78396 18.0962
248 1 -1.1104 9.56555 2.71181 17.8466
249 2 2.2208 7.96286 1.32186 19.2908
250 1 -1.1104 9.49389 -2.76958 15.2785
252 1 -1.1104 9.50535 2.64173 15.1494
254 2 2.2208 8.19956 -1.39763 16.653
255 2 2.2208 8.16567 4.10281 16.4812
256 1 -1.1104 9.48444 -0.0476963 17.9838
257 1 -1.1104 9.54573 -0.0951067 15.1133
259 2 2.2208 10.8919 6.8595 16.5763
260 1 -1.1104 12.466 8.30216 17.91
263 1 -1.1104 12.2871 5.42859 17.8154
264 1 -1.1104 12.3472 5.41922 15.1117
266 1 -1.1104 9.54286 8.27684 17.8009
267 2 2.2208 8.08731 6.87732 19.3279
270 1 -1.1104 9.40348 5.41585 17.9674
271 1 -1.1104 9.5379 5.51802 15.0436
265 1 -1.1104 12.312 5.61731 20.7109
262 1 -1.1104 12.4684 8.44063 20.5304
9001 2 2.2208 13.75 1.14458 19.2286
323 1 -1.1104 12.2207 -0.103056 23.479
269 1 -1.1104 9.70595 8.31595 20.629
8781 2 2.2208 7.95688 -4.36585 25.0827
277 1 -1.1104 9.38505 8.33218 23.3379
326 1 -1.1104 12.2371 8.17885 26.335
239 1 -1.1104 12.2058 -2.95061 20.7773
231 2 2.2208 -0.405275 3.99148 25.111
330 1 -1.1104 9.36463 -0.247083 23.4729
8777 2 2.2208 13.5427 -4.40675 19.4445
278 2 2.2208 8.19114 6.94827 13.6694
214 1 -1.1104 1.11087 5.28122 20.7952
198 1 -1.1104 3.92049 2.69881 20.7929
216 1 -1.1104 6.65276 5.38419 20.5846
203 1 -1.1104 3.80176 -0.23401 20.6818
196 1 -1.1104 3.97111 -3.03847 20.6749
191 1 -1.1104 6.58848 -0.0356037 20.5302
223 1 -1.1104 3.90033 5.43951 20.7609
229 2 2.2208 7.94944 -1.56458 22.1624
208 1 -1.1104 1.08447 8.02578 20.9815
283 2 2.2208 5.36452 1.20124 21.9972
284 1 -1.1104 1.098 -2.87883 23.4452
285 1 -1.1104 1.05258 2.64796 23.5651
288 1 -1.1104 0.830258 -3.10119 26.1678
289 1 -1.1104 1.0238 2.47288 26.4023
292 1 -1.1104 0.960598 -0.0766296 23.6909
294 2 2.2208 5.1976 -1.56141 24.9414
295 2 2.2208 5.21115 4.00706 24.8634
296 1 -1.1104 1.2732 -0.34114 26.4778
298 1 -1.1104 3.8882 -2.92182 23.5802
299 1 -1.1104 3.92914 2.5289 23.5734
300 2 2.2208 2.57436 1.10726 24.981
301 1 -1.1104 3.8083 -3.02778 26.3231
302 1 -1.1104 3.96284 2.57318 26.3021
303 2 2.2208 2.39963 -1.38559 22.1565
304 2 2.2208 2.58134 4.03772 22.1605
305 1 -1.1104 3.75845 -0.0585837 23.5603
306 1 -1.1104 3.92661 -0.132593 26.3345
307 2 2.2208 5.21312 6.75781 22.0125
308 1 -1.1104 1.10234 8.30939 23.7657
312 1 -1.1104 1.21531 5.35384 23.5897
314 1 -1.1104 0.830961 5.51492 26.3553
316 1 -1.1104 3.72255 8.15591 23.4925
317 2 2.2208 2.44835 6.80757 24.9915
318 1 -1.1104 3.94354 8.2522 26.3373
319 1 -1.1104 3.99056 5.30187 23.5421
320 1 -1.1104 3.73669 5.38586 26.2358
310 1 -1.1104 1.09539 8.31464 26.4385
293 1 -1.1104 6.52261 -0.231893 23.3252
315 1 -1.1104 6.60834 5.39362 26.2979
311 1 -1.1104 6.63861 8.17361 26.3417
286 1 -1.1104 6.72551 -2.90577 23.5892
290 1 -1.1104 6.57123 -2.97455 26.5231
309 1 -1.1104 6.67664 8.24621 23.4443
273 2 2.2208 -0.205191 6.72364 22.3246
313 1 -1.1104 6.63224 5.3373 23.475
297 1 -1.1104 6.67317 -0.054371 26.4049
287 1 -1.1104 6.84699 2.66317 23.5624
291 1 -1.1104 6.69248 2.57399 26.4531
225 2 2.2208 13.6399 4.24295 21.9843
171 2 2.2208 5.27953 6.78343 27.7154
8773 2 2.2208 5.18458 -4.27517 22.1937
8606 2 2.2208 5.18163 -4.45239 27.7946
321 2 2.2208 5.24623 1.27796 27.709
322 2 2.2208 2.52705 -1.5923 27.7531
227 2 2.2208 13.5535 1.15925 24.9615
272 1 -1.1104 9.38556 5.51756 20.7446
241 1 -1.1104 12.1014 2.84838 20.8511
246 1 -1.1104 12.2887 -0.130447 20.725
258 1 -1.1104 9.33701 -0.124716 20.708
228 2 2.2208 13.6078 -1.51355 22.1706
335 1 -1.1104 9.44135 5.30375 23.5777
253 1 -1.1104 9.30346 2.74255 20.4953
251 1 -1.1104 9.3274 -2.94898 20.9029
327 1 -1.1104 12.3303 8.29943 23.4406
274 1 -1.1104 9.35403 -2.90093 26.4027
9106 2 2.2208 13.7756 6.71312 25.0098
339 1 -1.1104 12.318 -2.83551 23.639
332 2 2.2208 10.9153 4.01755 25.0827
337 2 2.2208 8.02437 6.82523 24.8359
9129 2 2.2208 13.7196 -4.30062 24.8479
340 1 -1.1104 12.6148 2.86705 23.6859
232 1 -1.1104 9.69251 2.66369 26.4377
341 1 -1.1104 12.0977 -2.88635 26.2909
279 1 -1.1104 9.70436 2.54962 23.6454
325 1 -1.1104 12.1391 5.55532 23.5346
281 1 -1.1104 12.1745 -0.0266175 26.3255
282 1 -1.1104 12.0942 5.53026 26.3433
324 1 -1.1104 12.5947 2.75632 26.3671
280 1 -1.1104 9.62826 -3.05261 23.7603
224 2 2.2208 8.02277 3.98972 21.9459
275 2 2.2208 8.19257 1.46254 24.9435
329 1 -1.1104 9.40681 -0.0821138 26.367
328 2 2.2208 10.8788 7.00354 22.0551
8780 2 2.2208 2.41417 -4.41477 24.935
9007 2 2.2208 13.8008 6.79496 19.1375
276 2 2.2208 13.7052 -1.66917 16.5985
75 2 2.2208 8.01032 -1.49831 27.8306
234 2 2.2208 5.37666 4.04145 13.9352
342 2 2.2208 8.18904 1.22861 13.6835
168 2 2.2208 10.8922 4.06771 13.6615
167 2 2.2208 10.9519 -1.59243 13.8084
345 2 2.2208 5.3078 12.4157 5.26044
346 1 -1.1104 1.05095 11.103 1.09407
350 2 2.2208 5.33216 9.68527 2.45847
351 1 -1.1104 0.88093 11.2142 3.84625
353 2 2.2208 2.3362 12.5182 2.42329
354 2 2.2208 2.34252 9.91141 5.0515
355 1 -1.1104 3.76845 11.0241 1.10951
357 1 -1.1104 3.81119 11.1427 3.78585
358 2 2.2208 5.14144 17.9076 5.54673
359 1 -1.1104 0.966374 13.9712 0.995887
361 1 -1.1104 1.09419 19.5181 0.985654
365 1 -1.1104 0.93168 13.9704 4.07318
366 1 -1.1104 1.34799 19.4212 3.99037
369 1 -1.1104 1.01413 16.8086 1.2044
372 2 2.2208 5.28142 15.3905 2.47754
373 2 2.2208 5.17105 21.0054 2.29953
374 1 -1.1104 1.09812 16.6654 4.01892
376 1 -1.1104 3.83348 13.8587 1.01159
378 1 -1.1104 3.95665 19.4887 1.21325
380 2 2.2208 2.43691 18.0607 2.52959
381 1 -1.1104 3.62074 14.0451 3.8689
382 1 -1.1104 4.47146 19.6216 4.06723
383 2 2.2208 2.42529 15.2575 5.34563
384 2 2.2208 2.57185 20.9977 5.35604
385 1 -1.1104 3.72676 16.6306 1.08368
387 1 -1.1104 3.83499 16.8843 3.95532
356 1 -1.1104 3.65783 11.1404 6.4167
348 1 -1.1104 6.55864 11.018 0.964789
375 1 -1.1104 6.62764 16.9765 4.10015
364 1 -1.1104 6.34433 19.4886 6.68631
352 1 -1.1104 6.6686 11.1073 3.69261
362 1 -1.1104 6.6179 13.8709 0.940426
360 1 -1.1104 0.933474 13.7825 6.71946
377 1 -1.1104 3.91662 14.0369 6.71733
402 1 -1.1104 6.6767 19.7414 1.13
379 1 -1.1104 3.70489 19.5159 6.7422
347 1 -1.1104 0.904086 11.0612 6.67907
445 1 -1.1104 1.01163 19.6376 6.52154
349 1 -1.1104 6.92602 11.2297 6.32059
503 2 2.2208 13.6381 18.1935 13.7329
507 2 2.2208 5.34292 18.1986 -0.261519
367 1 -1.1104 6.54392 14.0648 3.82313
403 1 -1.1104 6.69631 16.6981 1.26644
371 1 -1.1104 6.53016 16.7049 6.90427
497 2 2.2208 2.46615 18.1369 13.7679
392 2 2.2208 10.7142 12.3799 5.30431
393 1 -1.1104 12.2516 10.8318 1.01855
395 2 2.2208 10.7602 9.70245 2.39965
396 1 -1.1104 12.2411 11.0008 3.86524
397 2 2.2208 8.05459 12.523 2.52491
398 2 2.2208 8.13199 9.66318 5.25425
399 1 -1.1104 9.35768 11.0654 0.992184
401 1 -1.1104 9.42027 11.1261 3.87597
404 2 2.2208 10.7751 18.2127 5.2791
405 1 -1.1104 12.1627 13.7964 0.978979
407 1 -1.1104 12.3996 19.5922 0.914001
409 1 -1.1104 12.2344 13.967 3.75074
410 1 -1.1104 12.3133 19.592 3.86424
411 1 -1.1104 12.2431 16.7304 1.0896
413 2 2.2208 10.8873 15.2777 2.48481
414 2 2.2208 10.9345 20.9439 2.50739
415 1 -1.1104 12.3206 16.8352 3.85638
416 1 -1.1104 9.42502 13.9202 1.16004
418 1 -1.1104 9.65583 19.5911 1.06718
420 2 2.2208 8.207 18.018 2.42328
421 1 -1.1104 9.47134 13.8574 3.78083
422 1 -1.1104 9.56137 19.5808 3.75844
423 2 2.2208 7.9625 15.4612 5.42721
424 1 -1.1104 9.47853 16.8213 1.12233
426 1 -1.1104 9.45659 16.5939 3.98971
425 1 -1.1104 9.40861 16.7429 6.68707
412 1 -1.1104 12.1643 16.6297 6.67416
400 1 -1.1104 9.55017 11.1464 6.6958
491 2 2.2208 13.6498 9.80333 5.2606
9285 2 2.2208 13.6272 12.4841 2.49309
394 1 -1.1104 12.3935 11.0122 6.70705
427 2 2.2208 13.6424 18.1038 2.53444
406 1 -1.1104 12.2543 13.9371 6.74223
470 1 -1.1104 9.35069 19.4217 9.54764
408 1 -1.1104 12.3609 19.3997 6.62262
9276 2 2.2208 13.7547 15.4242 -0.346993
363 1 -1.1104 6.7482 13.8883 6.54978
370 1 -1.1104 0.925122 16.6938 6.8105
386 1 -1.1104 3.64159 16.735 6.76649
429 1 -1.1104 3.94983 19.563 12.4109
430 1 -1.1104 3.89928 13.9702 12.3335
434 1 -1.1104 1.0251 19.4882 9.4333
435 1 -1.1104 1.02582 16.5711 9.53734
436 2 2.2208 5.29753 20.9635 8.02699
437 1 -1.1104 0.995841 13.8826 9.49473
438 2 2.2208 5.29449 15.3136 8.32662
441 1 -1.1104 1.06497 19.5791 12.262
442 1 -1.1104 0.963883 14.0186 12.3065
443 2 2.2208 5.16143 18.0701 10.8332
444 1 -1.1104 3.85253 19.3443 9.50002
446 2 2.2208 2.27861 18.0426 8.14732
447 1 -1.1104 3.88613 16.6495 9.58938
448 1 -1.1104 3.60941 13.7775 9.49268
450 1 -1.1104 0.885582 16.8571 12.5182
451 1 -1.1104 3.84909 16.7846 12.4123
452 2 2.2208 2.50289 20.8798 10.8635
453 2 2.2208 5.25347 12.4361 10.7833
454 1 -1.1104 0.993407 11.2672 12.1976
456 2 2.2208 2.53556 15.274 11.0482
457 1 -1.1104 0.991262 11.0433 9.42934
459 2 2.2208 2.4212 12.439 7.97657
460 2 2.2208 2.38885 9.98943 10.9147
461 1 -1.1104 3.70273 11.2346 12.2624
462 1 -1.1104 3.61116 11.0834 9.35028
455 1 -1.1104 6.56558 11.0635 12.3244
433 1 -1.1104 6.51272 13.9255 9.6056
449 1 -1.1104 6.67614 16.699 12.205
432 1 -1.1104 6.80033 16.7323 9.53581
431 1 -1.1104 6.57864 19.4064 9.49227
440 1 -1.1104 6.66816 13.9154 12.3947
498 2 2.2208 5.30208 20.8751 13.7414
558 2 2.2208 2.32014 12.4246 13.6881
499 2 2.2208 5.28122 15.2385 13.7981
484 2 2.2208 8.00574 12.4721 7.9702
417 1 -1.1104 9.48036 13.8844 6.66511
506 2 2.2208 8.00079 12.5431 13.7524
439 1 -1.1104 6.67572 19.3238 12.2803
458 1 -1.1104 6.79868 11.2723 9.56192
493 2 2.2208 13.6955 20.8658 10.9906
502 2 2.2208 8.0484 18.0236 13.5765
482 1 -1.1104 12.208 13.9166 9.4829
389 2 2.2208 10.8997 9.83222 8.16719
469 2 2.2208 8.0055 15.2337 10.9333
486 1 -1.1104 12.2567 19.5599 12.4686
473 1 -1.1104 9.33787 19.4579 12.3681
500 2 2.2208 10.794 20.9025 13.6807
477 1 -1.1104 9.57392 11.2502 9.49854
463 2 2.2208 10.8212 12.6238 10.8792
388 1 -1.1104 12.3435 11.0951 9.48979
471 1 -1.1104 9.39237 14.052 9.4693
474 1 -1.1104 9.29685 13.9838 12.3088
485 2 2.2208 13.6137 15.2995 10.792
495 2 2.2208 13.7045 9.70835 10.8476
480 1 -1.1104 9.54891 11.1948 12.3624
489 2 2.2208 13.5607 18.1345 8.10739
488 2 2.2208 10.8354 18.1318 10.9676
419 1 -1.1104 9.51243 19.4967 6.83992
467 1 -1.1104 9.50294 16.7508 12.3851
478 2 2.2208 10.7902 15.3446 8.08458
487 1 -1.1104 12.2036 13.8877 12.3025
472 2 2.2208 7.99992 18.1941 8.09332
468 2 2.2208 7.96805 20.8406 10.8407
483 2 2.2208 8.04863 9.83126 10.8773
476 2 2.2208 10.8106 20.8124 8.17345
479 1 -1.1104 12.1522 16.71 12.3107
390 1 -1.1104 12.3477 11.1188 12.2729
494 2 2.2208 13.678 12.5214 8.06666
475 1 -1.1104 12.2108 16.78 9.46636
466 1 -1.1104 9.36993 16.742 9.57747
481 1 -1.1104 12.2345 19.4208 9.60871
9273 2 2.2208 -0.534892 9.67943 2.46012
391 2 2.2208 -0.388435 20.996 2.47339
9274 2 2.2208 -0.442555 12.5133 5.23823
556 2 2.2208 -0.366087 20.99 13.8131
509 2 2.2208 5.19138 12.4504 16.6285
510 1 -1.1104 1.44057 11.4614 17.6007
512 2 2.2208 5.2367 9.60635 19.3449
513 1 -1.1104 1.00519 11.0849 14.9501
517 2 2.2208 2.44259 12.7109 19.2787
518 2 2.2208 2.35778 9.732 16.5656
519 1 -1.1104 3.9016 10.8801 18.0365
520 1 -1.1104 3.79273 11.0053 15.111
522 2 2.2208 5.15627 18.113 16.5231
523 1 -1.1104 0.875679 13.982 17.8834
524 1 -1.1104 0.958321 19.631 17.7643
527 1 -1.1104 0.848748 13.8598 15.1196
529 1 -1.1104 1.15304 19.6233 15.0323
535 1 -1.1104 1.19737 16.7251 17.9552
537 2 2.2208 5.23164 15.3429 19.3183
538 2 2.2208 5.14916 20.8527 19.3814
539 1 -1.1104 1.08801 16.7579 15.1906
543 1 -1.1104 3.99971 13.7996 17.9856
544 1 -1.1104 3.76115 19.4389 18.0188
545 2 2.2208 2.46001 18.1427 19.3436
546 1 -1.1104 3.67954 13.8053 15.1986
548 1 -1.1104 3.75483 19.4542 15.2474
550 2 2.2208 2.33048 15.2455 16.5625
551 2 2.2208 2.36911 21.0425 16.5655
552 1 -1.1104 3.82827 16.5183 17.8892
553 1 -1.1104 3.95142 16.7573 15.109
521 1 -1.1104 3.99809 10.9765 20.7568
536 1 -1.1104 6.73212 16.7555 17.8124
531 1 -1.1104 6.65738 13.8107 15.1855
526 1 -1.1104 6.4358 19.4204 18.0304
525 1 -1.1104 6.55107 13.8635 17.9554
515 1 -1.1104 6.55216 11.1351 15.1841
533 1 -1.1104 6.71984 19.4477 15.1935
541 1 -1.1104 6.6936 16.5707 14.9631
516 1 -1.1104 6.63111 11.0212 20.6423
554 1 -1.1104 4.04999 16.7502 20.6192
530 1 -1.1104 1.09438 19.5875 20.667
532 1 -1.1104 6.55066 13.938 20.6382
528 1 -1.1104 1.11636 14.03 20.6904
644 2 2.2208 7.90239 9.73091 27.6135
672 2 2.2208 13.7648 21.0896 27.6957
511 1 -1.1104 6.72675 11.1052 18.0167
598 2 2.2208 13.7533 12.4525 19.1563
9325 2 2.2208 13.8299 9.82333 16.3789
599 2 2.2208 13.57 20.9538 16.5143
560 2 2.2208 10.8556 12.41 16.5484
561 1 -1.1104 12.236 11.1824 17.8155
562 2 2.2208 10.8968 9.7695 19.2678
563 1 -1.1104 12.2986 11.1326 15.0537
565 2 2.2208 8.01444 12.5008 19.3001
566 2 2.2208 8.00978 9.67547 16.6166
567 1 -1.1104 9.41744 11.1343 17.9228
568 1 -1.1104 9.38062 11.1152 15.2727
570 2 2.2208 10.8437 18.1063 16.6489
571 1 -1.1104 12.2169 13.8774 17.8882
572 1 -1.1104 12.3264 19.6146 17.9463
573 1 -1.1104 12.1993 13.9582 15.2325
575 1 -1.1104 12.3349 19.3472 15.2871
577 1 -1.1104 12.1626 16.638 18.0117
578 2 2.2208 10.7911 15.2426 19.3156
579 2 2.2208 10.8832 20.9748 19.2959
580 1 -1.1104 12.3279 16.8061 15.1625
582 1 -1.1104 9.42367 13.9373 17.9175
583 1 -1.1104 9.43772 19.5256 17.7811
584 2 2.2208 8.17341 18.1184 19.3433
585 1 -1.1104 9.4292 14.0116 15.0579
587 1 -1.1104 9.39402 19.4877 15.0672
589 2 2.2208 8.0497 15.3113 16.4624
590 2 2.2208 8.14037 20.8517 16.4547
591 1 -1.1104 9.46136 16.7928 18.0025
592 1 -1.1104 9.46017 16.6423 15.1539
569 1 -1.1104 9.50551 11.0335 20.8002
588 1 -1.1104 9.52019 19.6038 20.5368
593 1 -1.1104 9.39257 16.7001 20.8515
501 2 2.2208 10.7607 15.3013 13.793
586 1 -1.1104 9.49344 13.8554 20.7864
581 1 -1.1104 12.303 16.7673 20.7716
505 2 2.2208 13.5904 12.6835 13.6222
504 2 2.2208 10.9874 9.64053 13.7096
540 1 -1.1104 1.09512 16.8264 20.8038
542 1 -1.1104 6.70286 16.7744 20.6976
549 1 -1.1104 3.84982 19.6058 20.788
659 1 -1.1104 12.345 16.7435 23.5372
547 1 -1.1104 3.79585 14.0087 20.5466
514 1 -1.1104 1.26954 11.3635 20.9172
600 1 -1.1104 3.80032 19.5498 23.5891
602 1 -1.1104 3.87775 14.127 23.4613
604 1 -1.1104 1.04546 19.6869 26.3387
605 1 -1.1104 1.07504 16.9233 26.2497
606 1 -1.1104 1.02588 14.0446 26.4182
608 2 2.2208 5.23108 20.8604 24.9723
609 2 2.2208 5.22658 15.4658 24.9843
611 1 -1.1104 0.916826 19.6762 23.6281
612 1 -1.1104 1.27067 14.0301 23.5032
613 2 2.2208 5.23074 18.2304 22.1091
614 1 -1.1104 3.82471 19.6182 26.6306
615 2 2.2208 2.42287 18.3936 25.0636
616 1 -1.1104 3.80412 16.9129 26.3981
617 1 -1.1104 3.80933 14.1244 26.2104
619 1 -1.1104 1.04325 16.7437 23.5318
620 1 -1.1104 3.90527 16.9189 23.5665
621 2 2.2208 2.44848 20.8703 22.2173
622 2 2.2208 5.10404 12.6056 22.0609
623 1 -1.1104 0.89669 11.1381 23.5703
625 2 2.2208 2.51511 15.4031 22.0736
626 2 2.2208 5.23779 9.71342 24.8569
627 1 -1.1104 0.951679 11.1059 26.3115
629 2 2.2208 2.26206 12.5493 24.9454
630 2 2.2208 2.38249 9.6697 22.1442
631 1 -1.1104 3.69994 11.092 23.5669
632 1 -1.1104 3.69435 11.2008 26.3693
628 1 -1.1104 6.49948 11.2467 26.2393
607 1 -1.1104 6.72579 19.4658 23.6723
610 1 -1.1104 6.5682 13.8128 23.4579
624 1 -1.1104 6.62362 11.0407 23.4364
643 2 2.2208 -0.442522 9.66764 24.9721
601 1 -1.1104 6.49624 14.0797 26.2662
603 1 -1.1104 6.67972 16.8159 26.4415
633 2 2.2208 2.46164 21.0596 27.764
635 2 2.2208 2.3981 15.4669 27.6704
647 2 2.2208 8.12056 20.9893 22.0628
637 2 2.2208 5.16386 12.5305 27.8143
508 2 2.2208 2.37712 9.7258 27.7158
534 1 -1.1104 6.70588 19.5669 20.8137
574 1 -1.1104 12.2541 13.9418 20.7402
564 1 -1.1104 12.3866 11.1165 20.5543
596 2 2.2208 8.10295 15.1775 27.7481
618 1 -1.1104 6.77852 16.6228 23.5298
651 1 -1.1104 6.64839 19.5618 26.5399
670 2 2.2208 10.9161 9.67064 24.7574
597 2 2.2208 13.519 15.4065 16.493
576 1 -1.1104 12.1324 19.4941 20.7379
636 2 2.2208 10.9263 18.1144 27.7123
666 1 -1.1104 12.2617 13.9964 23.4419
652 2 2.2208 8.2244 18.0942 24.9442
664 2 2.2208 7.96596 12.5604 24.8405
9426 2 2.2208 13.7081 9.67765 22.0098
634 2 2.2208 13.6065 12.4246 24.6797
490 2 2.2208 10.8084 12.3908 27.763
667 2 2.2208 10.8373 18.103 22.3367
656 1 -1.1104 9.41219 11.0329 26.2316
653 1 -1.1104 9.36603 19.5034 23.4446
650 1 -1.1104 9.48291 13.8599 26.4153
658 2 2.2208 10.9835 15.2753 24.8796
649 1 -1.1104 9.55491 19.4172 26.4097
661 1 -1.1104 12.261 13.8984 26.3536
660 1 -1.1104 12.3757 19.6194 26.2491
648 2 2.2208 8.08559 15.3091 22.1391
662 1 -1.1104 9.52083 11.2247 23.5585
645 1 -1.1104 9.5853 16.7338 26.3367
557 2 2.2208 5.24567 9.79939 13.737
654 1 -1.1104 9.53611 14.0199 23.7205
555 2 2.2208 13.5051 20.9924 22.0669
428 2 2.2208 8.16199 20.8597 27.8745
663 2 2.2208 8.02783 9.76995 21.9767
671 1 -1.1104 12.2486 11.0499 26.1068
669 1 -1.1104 12.2443 11.1385 23.3334
657 2 2.2208 10.8795 20.9798 24.9489
646 1 -1.1104 9.55392 16.6891 23.628
655 1 -1.1104 12.4482 16.7677 26.3452
668 2 2.2208 10.894 12.5373 22.1086
665 1 -1.1104 12.1528 19.525 23.5044
638 2 2.2208 -0.353117 12.5358 27.7551
673 2 2.2208 5.19305 23.8987 5.51747
674 2 2.2208 5.15919 29.3313 5.27761
675 1 -1.1104 1.26694 25.2878 1.05733
676 1 -1.1104 1.09297 25.254 3.73837
677 1 -1.1104 1.21486 22.3847 1.09011
678 1 -1.1104 1.0261 28.1593 1.10421
679 2 2.2208 5.3879 26.5375 2.34678
680 1 -1.1104 1.30405 22.4016 3.99992
681 1 -1.1104 0.903137 28.1021 3.92583
683 1 -1.1104 3.90648 25.0839 1.03773
684 2 2.2208 2.51085 23.8437 2.47309
685 2 2.2208 2.48672 29.4467 2.52552
686 1 -1.1104 3.8338 25.3114 3.79763
687 2 2.2208 2.4242 26.657 5.34413
688 1 -1.1104 3.90805 22.3786 1.00615
689 1 -1.1104 3.83836 28.0578 1.11509
690 1 -1.1104 4.18535 22.4319 3.87346
691 1 -1.1104 3.91872 27.9889 3.8127
692 1 -1.1104 1.06426 30.9494 0.96814
693 1 -1.1104 0.997726 30.7868 3.84723
694 1 -1.1104 1.11922 33.6241 1.11709
695 2 2.2208 5.19888 32.3772 2.5536
696 1 -1.1104 1.07746 33.5782 3.88486
698 1 -1.1104 3.82891 31.0563 0.977741
699 1 -1.1104 3.75988 30.827 3.77384
700 2 2.2208 2.45538 32.169 5.16271
701 1 -1.1104 3.827 33.92 1.1493
702 1 -1.1104 3.80385 33.5069 3.82847
707 1 -1.1104 6.57263 24.7685 3.88464
753 1 -1.1104 3.99473 28.0954 6.74616
752 1 -1.1104 3.86323 22.4288 6.68764
747 1 -1.1104 1.08969 22.4709 6.74084
730 1 -1.1104 6.65462 30.9135 3.88339
754 1 -1.1104 1.22614 30.8594 6.62821
709 1 -1.1104 6.60426 28.0291 1.01292
745 1 -1.1104 1.31692 25.0626 6.5607
729 1 -1.1104 6.55286 30.9358 1.0862
758 1 -1.1104 3.96405 30.8827 6.5412
751 1 -1.1104 3.88484 25.3456 6.80228
746 1 -1.1104 6.76201 25.3222 6.75866
706 1 -1.1104 6.76974 25.3709 1.04203
750 1 -1.1104 6.7711 28.1018 6.6774
759 1 -1.1104 3.74713 33.5644 6.81388
748 1 -1.1104 1.00691 28.0446 6.76692
756 1 -1.1104 1.04034 33.5891 6.54585
830 2 2.2208 13.6781 29.263 8.17485
829 2 2.2208 13.6843 23.6338 8.11498
832 2 2.2208 13.7067 26.4459 10.9435
710 1 -1.1104 6.68136 28.0094 3.77138
697 1 -1.1104 6.47748 33.7676 3.9265
708 1 -1.1104 6.73547 22.4045 1.27656
731 1 -1.1104 6.70814 33.6827 1.21179
711 2 2.2208 10.7076 23.5545 5.31933
712 2 2.2208 10.9016 29.3447 5.15747
713 1 -1.1104 12.3604 25.2377 1.0131
714 1 -1.1104 12.2173 24.999 3.87021
715 1 -1.1104 12.1665 22.2499 1.14218
716 1 -1.1104 12.2753 28.1403 1.15642
717 2 2.2208 11.0026 26.5448 2.55362
718 1 -1.1104 12.3425 22.4368 3.95579
719 1 -1.1104 12.323 27.9049 3.96597
720 1 -1.1104 9.62355 25.3653 0.997087
721 2 2.2208 8.31164 23.9142 2.33911
722 2 2.2208 8.07434 29.4361 2.42097
723 1 -1.1104 9.37712 25.3701 3.8263
724 2 2.2208 8.08175 26.669 5.19354
725 1 -1.1104 9.48157 22.6035 0.905682
726 1 -1.1104 9.30662 28.1255 0.835566
727 1 -1.1104 9.41338 22.5485 3.78421
728 1 -1.1104 9.5751 28.0238 3.69965
732 1 -1.1104 12.1804 30.9134 1.10342
733 1 -1.1104 12.2718 30.857 3.94133
734 1 -1.1104 12.1131 33.5482 1.01474
735 2 2.2208 10.8669 32.2783 2.51148
736 1 -1.1104 12.2258 33.7039 3.79159
737 1 -1.1104 9.50436 30.7362 1.18816
738 1 -1.1104 9.42066 30.8131 3.92017
739 2 2.2208 8.03028 32.2548 5.30442
740 1 -1.1104 9.38424 33.6115 1.10036
741 1 -1.1104 9.38184 33.5626 3.77522
799 1 -1.1104 9.42328 25.2073 6.66378
805 1 -1.1104 9.51357 33.6099 6.54485
802 1 -1.1104 12.215 30.8147 6.80093
804 1 -1.1104 9.44927 30.7003 6.43067
798 1 -1.1104 12.2464 27.856 6.69661
801 1 -1.1104 9.49864 27.968 6.51978
797 1 -1.1104 12.2965 22.1014 6.7251
828 2 2.2208 13.5415 32.2877 5.34098
9609 2 2.2208 -0.354741 23.7545 5.27492
831 2 2.2208 13.7352 23.7 13.741
803 1 -1.1104 12.3038 33.6511 6.65785
796 1 -1.1104 12.127 25.0565 6.65462
749 1 -1.1104 6.41456 22.5684 6.83507
818 1 -1.1104 9.58373 25.0238 9.57344
760 2 2.2208 5.21259 23.6453 10.9225
761 2 2.2208 5.29002 29.2185 11.0577
762 1 -1.1104 1.03121 25.1714 12.394
764 1 -1.1104 1.08427 25.1118 9.57887
766 1 -1.1104 1.13403 22.3301 12.3396
767 1 -1.1104 1.08049 28.0991 12.2476
770 2 2.2208 5.35601 26.7608 8.18271
771 1 -1.1104 1.1349 22.4317 9.60468
772 1 -1.1104 1.19054 27.8787 9.47614
775 1 -1.1104 3.85181 25.2015 12.3527
776 2 2.2208 2.5113 23.7174 8.20209
777 2 2.2208 2.43376 29.3746 8.19191