ITEM: TIMESTEP
90000
ITEM: NUMBER OF ATOMS
17820
ITEM: BOX BOUNDS pp pp pp
-3.6509366455772341e-01 2.7705093664558209e+01
-4.2885321417610021e+00 3.3236853214176716e+02
-3.6682964652049871e-01 2.7706829646520649e+01
ITEM: ATOMS id type q x y z
1 2 2.2208 5.09274 1.22051 5.15166
2 1 -1.1104 0.960162 -2.88757 0.755023
3 1 -1.1104 0.93767 2.49848 0.895293
6 1 -1.1104 0.872614 -3.04413 3.50623
7 1 -1.1104 1.0751 2.57181 3.7691
10 1 -1.1104 1.02194 -0.158732 0.77807
12 2 2.2208 4.95866 -1.39823 2.30584
13 2 2.2208 5.20985 4.08942 2.28303
14 1 -1.1104 0.928534 -0.3908 3.56279
16 1 -1.1104 3.613 -2.89387 0.86369
17 1 -1.1104 3.76786 2.65362 0.940028
18 2 2.2208 2.28851 1.2664 2.2115
19 1 -1.1104 3.71596 -2.8946 3.66638
20 1 -1.1104 3.79029 2.59106 3.77693
21 2 2.2208 2.23839 -1.57376 5.02585
22 2 2.2208 2.1984 4.02621 5.01355
23 1 -1.1104 3.97116 -0.0530451 0.803457
24 1 -1.1104 3.52688 -0.0921703 3.86416
25 2 2.2208 5.28689 6.76894 5.05529
26 1 -1.1104 1.09523 8.23489 0.941198
28 1 -1.1104 0.920406 8.20071 3.74037
30 1 -1.1104 0.814611 5.51566 0.791645
32 1 -1.1104 1.03351 5.27711 3.50043
34 1 -1.1104 3.8851 8.31016 0.955149
35 2 2.2208 2.32727 6.89037 2.27977
36 1 -1.1104 3.6847 8.07611 4.14686
37 1 -1.1104 3.65777 5.42948 0.875343
38 1 -1.1104 3.84638 5.32465 3.69829
86 1 -1.1104 3.72916 -2.96618 6.53046
81 1 -1.1104 0.990535 2.59479 6.47296
31 1 -1.1104 6.61732 5.55926 0.927534
4 1 -1.1104 6.38289 -2.8975 0.851793
83 1 -1.1104 6.45512 2.65097 6.58941
89 1 -1.1104 1.13042 8.28809 6.42751
93 1 -1.1104 3.62987 5.60513 6.42635
84 1 -1.1104 0.70064 -0.258388 6.22566
88 1 -1.1104 3.6957 -0.1504 6.60939
90 1 -1.1104 6.33047 8.15433 6.39881
87 1 -1.1104 3.82795 2.78876 6.45656
5 1 -1.1104 6.73911 2.52616 0.933813
164 2 2.2208 13.5231 1.27741 13.4835
85 1 -1.1104 6.53623 -0.303763 6.44963
8951 2 2.2208 13.4817 6.80708 13.4436
132 1 -1.1104 12.0732 8.05786 9.34335
168 2 2.2208 10.718 4.00177 13.5569
167 2 2.2208 10.6568 -1.68222 13.4978
160 1 -1.1104 9.37391 -2.88443 11.7418
15 1 -1.1104 6.41529 -0.129433 3.67121
8 1 -1.1104 6.5632 -2.82235 3.65135
11 1 -1.1104 6.62885 -0.146102 1.00899
27 1 -1.1104 6.49744 8.29397 1.01217
156 1 -1.1104 11.9886 -0.150738 12.1206
29 1 -1.1104 6.44014 8.29644 3.62153
8810 2 2.2208 13.5626 4.08185 5.05546
92 1 -1.1104 6.50821 5.43154 6.47529
9 1 -1.1104 6.69881 2.69625 3.59231
33 1 -1.1104 6.73582 5.61494 3.83953
46 2 2.2208 10.7659 1.24327 5.09897
47 1 -1.1104 12.076 -2.93466 0.826368
48 1 -1.1104 12.149 2.65623 0.774713
49 1 -1.1104 12.1419 -2.82951 3.59239
50 1 -1.1104 12.2294 2.70316 3.50377
51 1 -1.1104 12.1482 -0.188542 0.847206
52 2 2.2208 10.7134 -1.4401 2.24747
53 2 2.2208 10.8178 4.05145 2.32661
54 1 -1.1104 12.0334 -0.084153 3.76046
55 1 -1.1104 9.2731 -2.92079 0.748786
56 1 -1.1104 9.49241 2.78307 0.829376
57 2 2.2208 8.00774 1.26192 2.33047
58 1 -1.1104 9.33025 -2.85137 3.74009
59 1 -1.1104 9.49753 2.54679 3.59444
60 2 2.2208 7.96243 -1.35607 4.98964
61 2 2.2208 7.94985 3.98975 5.08503
62 1 -1.1104 9.38444 -0.0959472 0.769355
63 1 -1.1104 9.41621 -0.0205697 3.68651
65 2 2.2208 10.7156 6.88289 5.13607
68 1 -1.1104 12.1975 5.42613 1.08572
69 1 -1.1104 12.4111 5.52601 3.78229
70 1 -1.1104 9.33019 8.3391 1.03269
71 2 2.2208 8.02633 7.01805 2.36915
72 1 -1.1104 9.23825 8.40675 3.71114
73 1 -1.1104 9.42585 5.65808 1.00093
74 1 -1.1104 9.44115 5.46056 3.63767
66 1 -1.1104 12.066 8.33104 0.956289
67 1 -1.1104 12.1715 8.3628 3.77998
138 1 -1.1104 12.2309 -0.123951 6.45194
143 1 -1.1104 12.129 5.41644 6.39859
140 1 -1.1104 9.37477 2.51931 6.2399
146 1 -1.1104 9.22778 5.36443 6.47027
137 1 -1.1104 12.0251 2.66251 6.46367
141 1 -1.1104 9.45303 -0.144868 6.51501
76 2 2.2208 13.5373 -1.51031 4.99764
8835 2 2.2208 13.5783 1.19817 2.18101
77 2 2.2208 13.5456 7.03657 2.57358
139 1 -1.1104 9.1971 -2.86311 6.39832
144 1 -1.1104 9.05777 8.07841 6.41579
79 1 -1.1104 9.32538 2.6005 9.21742
91 1 -1.1104 0.952639 5.41065 6.35681
80 1 -1.1104 0.952211 -3.00772 6.42673
101 1 -1.1104 6.53472 2.63193 9.39334
94 2 2.2208 5.02387 1.23729 10.5851
95 1 -1.1104 1.02037 -3.00221 11.8384
96 1 -1.1104 0.921734 2.72909 12.0248
98 1 -1.1104 0.841487 -2.87457 9.09626
99 1 -1.1104 0.899145 2.67293 9.31772
102 1 -1.1104 0.85604 -0.14364 11.9904
104 2 2.2208 5.14873 -1.63284 7.89383
105 2 2.2208 5.00371 4.08777 7.90525
106 1 -1.1104 0.753069 0.0504168 9.03601
108 1 -1.1104 3.79134 -2.83199 12.2264
109 1 -1.1104 3.72485 2.74745 12.1269
110 2 2.2208 2.39494 1.36955 7.86354
111 1 -1.1104 3.4841 -3.02529 9.40199
112 1 -1.1104 3.68642 2.78202 9.27634
113 2 2.2208 2.1941 -1.47589 10.6046
114 2 2.2208 2.28457 4.10005 10.678
115 1 -1.1104 3.49433 0.0330547 12.0531
116 1 -1.1104 3.62836 -0.216313 9.35071
117 2 2.2208 5.19496 6.68407 10.8191
118 1 -1.1104 0.88038 8.37618 12.1712
120 1 -1.1104 0.911467 8.19532 9.24303
122 1 -1.1104 0.774068 5.55327 11.863
124 1 -1.1104 0.984619 5.3665 9.08412
126 1 -1.1104 3.8002 8.14769 11.7947
127 2 2.2208 2.18409 6.70896 7.77406
129 1 -1.1104 3.6977 5.45581 12.0456
130 1 -1.1104 3.68008 5.70791 9.30848
163 2 2.2208 2.26666 6.79684 13.464
121 1 -1.1104 6.49841 8.17445 9.54849
97 1 -1.1104 6.50818 2.41968 12.2722
107 1 -1.1104 6.54273 0.0125318 9.21289
169 2 2.2208 4.94703 -1.37712 13.435
125 1 -1.1104 6.46533 5.44507 9.31125
103 1 -1.1104 6.43138 -0.315494 12.1268
8954 2 2.2208 -0.594948 4.05758 13.5366
233 2 2.2208 2.30446 1.27112 13.4047
64 2 2.2208 7.93359 3.97639 10.7479
158 2 2.2208 10.6524 4.08172 7.80508
147 1 -1.1104 9.18231 5.44905 12.1696
234 2 2.2208 5.00893 3.98258 13.5685
82 1 -1.1104 6.41065 -3.0637 6.55345
142 1 -1.1104 11.8643 8.1721 6.57846
136 1 -1.1104 12.0902 -2.87169 6.37201
152 1 -1.1104 12.1945 -2.94439 12.2121
8851 2 2.2208 13.5776 4.13131 10.706
128 1 -1.1104 12.061 5.32841 9.26229
119 1 -1.1104 6.31461 8.10683 12.3282
123 1 -1.1104 6.50696 5.23559 12.2177
40 2 2.2208 10.6581 6.7354 10.7573
100 1 -1.1104 6.41411 -2.7066 9.76272
150 1 -1.1104 9.37419 2.66599 12.1188
41 2 2.2208 13.483 -1.67267 10.6921
166 2 2.2208 10.6196 -4.3676 10.6957
42 2 2.2208 13.5622 1.21056 7.92161
145 1 -1.1104 9.23153 5.41839 9.34153
157 2 2.2208 10.7336 -1.58683 7.84371
149 2 2.2208 7.77541 6.83712 7.94601
148 1 -1.1104 9.24564 8.15035 9.25813
39 2 2.2208 13.4821 6.69912 7.96681
133 1 -1.1104 12.1854 8.15776 12.1379
154 1 -1.1104 12.0398 -3.18932 9.2923
155 1 -1.1104 12.2094 2.37078 9.37493
134 1 -1.1104 9.173 -2.82235 9.05286
44 1 -1.1104 9.20668 -0.172707 12.13
151 2 2.2208 10.7995 1.28709 10.7468
153 1 -1.1104 12.3133 2.67432 12.3139
135 2 2.2208 7.9285 1.18445 7.86323
159 1 -1.1104 12.1445 -0.448945 9.29461
45 1 -1.1104 9.27527 8.23636 12.0832
78 2 2.2208 7.99316 -1.41022 10.6342
131 1 -1.1104 11.9573 5.32997 12.1363
43 1 -1.1104 9.28351 -0.0380728 9.31924
278 2 2.2208 7.82638 6.88699 13.7403
342 2 2.2208 7.90035 1.13493 13.4135
172 2 2.2208 5.09727 1.27252 16.241
173 1 -1.1104 0.842091 -2.82511 17.6005
174 1 -1.1104 0.906734 2.72476 17.6586
177 1 -1.1104 0.861101 -2.7423 14.7446
179 1 -1.1104 0.832036 2.77035 14.8536
184 1 -1.1104 1.04775 -0.103974 17.5795
186 2 2.2208 5.0989 -1.62929 18.9882
187 2 2.2208 5.10302 4.01374 19.1236
188 1 -1.1104 1.00278 0.0867608 14.844
192 1 -1.1104 3.57816 -2.97567 17.5855
193 1 -1.1104 3.7535 2.63368 17.688
194 2 2.2208 2.36298 1.36956 18.949
195 1 -1.1104 3.93125 -2.89891 14.7865
197 1 -1.1104 3.58535 2.49084 14.9104
199 2 2.2208 2.31079 -1.51819 16.3106
200 2 2.2208 2.33866 4.12967 16.2889
201 1 -1.1104 3.76455 -0.145248 17.7774
202 1 -1.1104 3.6118 -0.122238 14.8393
204 2 2.2208 5.12456 6.78616 16.4008
205 1 -1.1104 0.756199 8.08623 17.482
207 1 -1.1104 0.782926 8.18015 14.8727
211 1 -1.1104 0.965238 5.51448 17.7048
213 1 -1.1104 0.948282 5.43243 14.8245
218 2 2.2208 2.28175 6.82364 19.048
221 1 -1.1104 3.65876 5.28945 17.9098
222 1 -1.1104 3.73823 5.46689 14.9626
217 1 -1.1104 3.70526 8.15155 17.5204
219 1 -1.1104 3.61029 8.34733 14.7598
214 1 -1.1104 0.992837 5.39948 20.4224
223 1 -1.1104 3.76277 5.45169 20.6928
182 1 -1.1104 6.50141 2.54314 14.976
212 1 -1.1104 6.51854 5.48966 17.7726
206 1 -1.1104 6.52128 8.19895 17.8366
190 1 -1.1104 6.36757 -0.308528 14.7513
203 1 -1.1104 3.78608 -0.237658 20.4951
196 1 -1.1104 3.75003 -3.01518 20.4273
198 1 -1.1104 3.81807 2.53979 20.4903
220 1 -1.1104 3.55985 8.23895 20.4955
180 1 -1.1104 0.947837 2.55296 20.4548
215 1 -1.1104 6.37825 5.32259 14.8961
175 1 -1.1104 6.23655 -2.79077 16.9859
209 1 -1.1104 6.47224 8.22473 15.1391
189 1 -1.1104 0.915297 -0.202228 20.3933
165 2 2.2208 10.7374 1.3413 27.5564
208 1 -1.1104 0.744544 8.09317 20.8278
9129 2 2.2208 13.4762 -4.36149 24.7098
176 1 -1.1104 6.46093 2.7633 17.6601
191 1 -1.1104 6.57094 -0.183994 20.4542
185 1 -1.1104 6.60942 0.00374633 17.541
261 1 -1.1104 11.9009 8.2215 14.898
268 1 -1.1104 9.24985 8.26979 15.0357
235 2 2.2208 10.8052 1.25877 16.292
236 1 -1.1104 12.0571 -3.11944 17.7746
237 1 -1.1104 12.1371 2.7031 17.6684
238 1 -1.1104 12.1928 -3.04847 15.0402
240 1 -1.1104 12.2097 2.74998 14.9792
242 1 -1.1104 12.146 -0.0843362 17.5336
243 2 2.2208 10.7087 -1.58511 19.1139
244 2 2.2208 10.7651 4.02466 19.0987
245 1 -1.1104 12.2273 -0.151807 14.7292
247 1 -1.1104 9.17414 -3.01286 17.8374
248 1 -1.1104 9.33679 2.68117 17.6369
249 2 2.2208 7.89128 1.27097 19.0405
250 1 -1.1104 9.32858 -2.86397 15.0331
252 1 -1.1104 9.3306 2.59639 14.7154
254 2 2.2208 8.04148 -1.52402 16.3373
255 2 2.2208 7.91308 4.10245 16.2432
256 1 -1.1104 9.53204 -0.229577 17.7156
257 1 -1.1104 9.3655 -0.119688 14.9582
259 2 2.2208 10.7739 6.86213 16.3527
260 1 -1.1104 12.0834 8.31608 17.7432
263 1 -1.1104 12.066 5.45176 17.7779
264 1 -1.1104 12.0149 5.4589 14.86
266 1 -1.1104 9.26251 8.27697 17.6966
267 2 2.2208 7.78616 6.89002 19.2269
270 1 -1.1104 9.22803 5.58634 17.8149
271 1 -1.1104 9.12331 5.575 15.0133
265 1 -1.1104 12.148 5.4081 20.5521
258 1 -1.1104 9.30893 0.0163117 20.5601
262 1 -1.1104 12.2296 8.18237 20.5568
272 1 -1.1104 9.28833 5.34625 20.5723
239 1 -1.1104 12.0868 -2.8581 20.6366
331 2 2.2208 10.7724 6.86104 27.6598
9001 2 2.2208 13.5005 1.23605 19.1216
269 1 -1.1104 9.3888 8.10311 20.565
253 1 -1.1104 9.44764 2.67546 20.4931
181 1 -1.1104 6.57594 -2.90892 20.094
216 1 -1.1104 6.52248 5.40501 20.6391
210 1 -1.1104 6.37721 8.30371 20.5459
246 1 -1.1104 12.2598 -0.0962732 20.4411
241 1 -1.1104 12.1955 2.66798 20.4752
8777 2 2.2208 13.5595 -4.37402 18.9846
338 2 2.2208 10.6837 1.28744 21.9322
178 1 -1.1104 0.938374 -2.92345 20.2675
224 2 2.2208 7.93903 4.16617 21.9364
228 2 2.2208 13.5468 -1.46454 21.8577
273 2 2.2208 -0.283578 6.65345 22.0677
171 2 2.2208 5.16437 6.75719 27.6116
183 1 -1.1104 6.66167 2.5353 20.5291
316 1 -1.1104 3.68163 8.1712 23.2141
283 2 2.2208 5.10751 1.24963 21.8008
284 1 -1.1104 0.973368 -3.0242 23.0806
285 1 -1.1104 1.15018 2.50854 23.2498
288 1 -1.1104 0.899719 -2.80684 25.9478
289 1 -1.1104 0.874618 2.69426 26.1549
292 1 -1.1104 0.937891 -0.168505 23.3906
294 2 2.2208 5.09419 -1.47398 24.7096
295 2 2.2208 4.97388 3.99261 24.7314
296 1 -1.1104 0.965047 -0.112046 26.084
298 1 -1.1104 3.75598 -2.92291 23.1914
299 1 -1.1104 3.85591 2.56342 23.3339
300 2 2.2208 2.27994 1.19146 24.7403
301 1 -1.1104 3.69232 -2.84926 26.085
302 1 -1.1104 3.76604 2.72028 26.2874
303 2 2.2208 2.2935 -1.49992 21.7622
304 2 2.2208 2.31587 4.01883 21.9105
305 1 -1.1104 3.67786 -0.285345 23.2599
306 1 -1.1104 3.73508 -0.00309774 26.1487
307 2 2.2208 5.07459 6.82082 21.9826
308 1 -1.1104 0.904723 8.28648 23.498
312 1 -1.1104 0.917428 5.39155 23.4569
314 1 -1.1104 0.883465 5.48476 26.2998
317 2 2.2208 2.28247 6.85577 24.8184
318 1 -1.1104 3.75822 8.18954 26.0338
319 1 -1.1104 3.61527 5.44913 23.5319
320 1 -1.1104 3.76761 5.43632 26.2457
310 1 -1.1104 0.983625 8.30498 26.3864
309 1 -1.1104 6.58586 8.17491 23.3272
286 1 -1.1104 6.57118 -2.86424 23.2438
293 1 -1.1104 6.47135 -0.204222 23.3663
170 2 2.2208 2.31162 4.08934 27.4939
311 1 -1.1104 6.52811 8.19799 26.2011
315 1 -1.1104 6.6236 5.50886 26.252
321 2 2.2208 5.24519 1.30784 27.5814
327 1 -1.1104 12.2495 8.27937 23.3882
343 2 2.2208 8.05868 4.11706 27.5935
9008 2 2.2208 13.4989 4.12174 16.3486
276 2 2.2208 13.5073 -1.57573 16.1926
75 2 2.2208 7.82601 -1.49987 27.6092
277 1 -1.1104 9.43567 8.21533 23.3641
336 1 -1.1104 9.37019 8.38294 26.3704
290 1 -1.1104 6.55152 -2.74965 26.0751
313 1 -1.1104 6.46516 5.44806 23.4757
287 1 -1.1104 6.72162 2.48592 23.2992
297 1 -1.1104 6.57597 -0.0770998 26.1905
275 2 2.2208 7.90325 1.24152 24.7798
251 1 -1.1104 9.2991 -2.90764 20.6064
161 2 2.2208 13.6101 4.20025 27.6158
9106 2 2.2208 13.7514 6.80856 24.802
341 1 -1.1104 12.1791 -2.89751 26.1745
229 2 2.2208 7.86152 -1.42685 21.8787
232 1 -1.1104 9.42317 2.7235 26.1055
323 1 -1.1104 12.1203 -0.109971 23.3219
274 1 -1.1104 9.29269 -2.98633 25.9948
334 1 -1.1104 9.29077 5.45049 26.1797
340 1 -1.1104 12.5066 2.59472 23.2055
279 1 -1.1104 9.50802 2.66813 23.2824
280 1 -1.1104 9.33886 -2.96391 23.2602
329 1 -1.1104 9.22096 -0.158072 26.1668
330 1 -1.1104 9.29439 -0.0938018 23.404
335 1 -1.1104 9.45068 5.41003 23.3093
332 2 2.2208 10.7629 3.98656 24.6738
225 2 2.2208 13.5623 4.1039 21.838
227 2 2.2208 13.492 1.11349 24.717
337 2 2.2208 7.98222 6.97891 24.9614
324 1 -1.1104 12.5551 2.73583 26.0621
333 2 2.2208 10.6802 -1.58417 24.6575
281 1 -1.1104 11.9811 -0.165806 25.984
291 1 -1.1104 6.55511 2.7932 26.1834
282 1 -1.1104 12.1919 5.44012 26.2583
326 1 -1.1104 12.278 8.27168 26.2332
339 1 -1.1104 12.1558 -3.00428 23.2989
325 1 -1.1104 12.1633 5.44887 23.2592
328 2 2.2208 10.8094 6.75822 21.9466
162 2 2.2208 13.5479 -1.53976 27.5714
322 2 2.2208 2.4138 -1.53737 27.4268
345 2 2.2208 5.03175 12.5032 5.13032
346 1 -1.1104 0.885698 10.9825 0.944773
350 2 2.2208 5.14088 9.65798 2.32922
351 1 -1.1104 1.01285 11.1047 3.76555
353 2 2.2208 2.27232 12.5141 2.25655
354 2 2.2208 2.28307 9.72959 5.11695
355 1 -1.1104 3.62973 11.0936 0.897053
357 1 -1.1104 3.68889 10.9242 3.67911
358 2 2.2208 4.96674 17.9543 5.36485
359 1 -1.1104 0.946995 13.8039 1.01882
361 1 -1.1104 0.921754 19.4551 1.00058
365 1 -1.1104 0.831172 13.8775 3.73962
366 1 -1.1104 1.02874 19.3891 4.003
369 1 -1.1104 0.975439 16.5747 1.0132
372 2 2.2208 5.16767 15.2388 2.38918
373 2 2.2208 4.82818 20.8427 2.2724
374 1 -1.1104 0.935633 16.5944 3.88214
376 1 -1.1104 3.70861 13.7831 0.834029
378 1 -1.1104 3.64643 19.4367 0.989448
380 2 2.2208 2.28986 17.9447 2.45072
381 1 -1.1104 3.65235 13.8322 3.65061
382 1 -1.1104 4.00793 19.4088 3.86785
383 2 2.2208 2.20748 15.1796 5.23194
384 2 2.2208 2.35048 20.9377 5.30349
385 1 -1.1104 3.77054 16.7518 1.01531
387 1 -1.1104 3.63028 16.516 3.80999
356 1 -1.1104 3.58104 11.1836 6.31775
367 1 -1.1104 6.55273 13.9731 3.71978
347 1 -1.1104 0.886915 10.997 6.62551
379 1 -1.1104 3.64898 19.4195 6.80068
360 1 -1.1104 0.912108 13.7842 6.51288
377 1 -1.1104 3.76592 13.9891 6.45513
352 1 -1.1104 6.37581 11.0865 3.60464
370 1 -1.1104 0.880847 16.6313 6.6825
402 1 -1.1104 6.41466 19.5424 1.21776
371 1 -1.1104 6.43553 16.7279 6.62357
445 1 -1.1104 0.938708 19.4516 6.64601
502 2 2.2208 7.96082 18.0032 13.6241
375 1 -1.1104 6.38361 17.0089 3.72583
364 1 -1.1104 6.19244 19.4324 6.53596
362 1 -1.1104 6.47947 13.8547 0.989507
403 1 -1.1104 6.50928 16.4943 1.02536
348 1 -1.1104 6.57145 11.1292 0.995083
363 1 -1.1104 6.51877 13.977 6.60966
9285 2 2.2208 13.5815 12.4547 2.36499
349 1 -1.1104 6.54803 11.3212 6.35996
392 2 2.2208 10.6527 12.4001 5.30147
393 1 -1.1104 12.228 11.0141 0.987848
395 2 2.2208 10.6817 9.79812 2.46588
396 1 -1.1104 12.0347 11.0769 3.90613
397 2 2.2208 7.92862 12.5154 2.4016
398 2 2.2208 7.77247 9.76315 5.22386
399 1 -1.1104 9.43657 10.9871 0.88063
401 1 -1.1104 9.30802 11.0481 3.81052
404 2 2.2208 10.7554 18.0118 5.33102
405 1 -1.1104 12.1128 13.8243 0.955219
407 1 -1.1104 12.0809 19.3466 1.03278
409 1 -1.1104 12.204 13.7562 3.85243
410 1 -1.1104 12.1158 19.3889 3.87201
411 1 -1.1104 12.1399 16.6449 1.02848
413 2 2.2208 10.6964 15.112 2.45519
414 2 2.2208 10.5375 20.8743 2.50887
415 1 -1.1104 12.0393 16.5435 3.79622
416 1 -1.1104 9.33886 13.7459 1.02719
418 1 -1.1104 9.23774 19.4779 0.978282
420 2 2.2208 7.96689 17.912 2.43027
421 1 -1.1104 9.38749 13.7307 3.74241
422 1 -1.1104 9.14125 19.3635 3.80521
423 2 2.2208 7.89363 15.1609 5.20282
424 1 -1.1104 9.32264 16.6225 1.08427
426 1 -1.1104 9.32182 16.4772 3.90272
394 1 -1.1104 12.0878 10.9763 6.79072
406 1 -1.1104 12.188 13.8141 6.79797
412 1 -1.1104 12.1844 16.6139 6.50569
400 1 -1.1104 9.24115 11.0118 6.59592
425 1 -1.1104 9.36789 16.534 6.56147
427 2 2.2208 13.4222 18.023 2.52195
408 1 -1.1104 12.1393 19.4581 6.62082
419 1 -1.1104 9.55609 19.2184 6.97587
498 2 2.2208 5.14655 20.7841 13.4998
386 1 -1.1104 3.59377 16.6202 6.71968
497 2 2.2208 2.26146 18.0497 13.5331
499 2 2.2208 5.01173 15.1593 13.6059
429 1 -1.1104 3.7015 19.4426 12.215
430 1 -1.1104 3.69703 13.7602 12.2942
434 1 -1.1104 0.823929 19.3173 9.42245
435 1 -1.1104 0.804713 16.678 9.57883
436 2 2.2208 5.02283 20.9046 7.89513
437 1 -1.1104 1.13156 13.864 9.39176
438 2 2.2208 5.09635 15.2946 8.03855
441 1 -1.1104 0.933375 19.5343 12.1597
442 1 -1.1104 0.844508 13.8059 12.3968
443 2 2.2208 5.11843 18.0397 10.9069
444 1 -1.1104 3.65998 19.4531 9.57979
446 2 2.2208 2.19204 18.0456 8.18832
447 1 -1.1104 3.55007 16.6825 9.40171
448 1 -1.1104 3.84414 13.8444 9.49298
450 1 -1.1104 0.848081 16.6323 12.2608
451 1 -1.1104 3.54849 16.718 12.2087
452 2 2.2208 2.30281 20.9137 10.7649
453 2 2.2208 5.21116 12.3603 10.8227
454 1 -1.1104 0.922551 11.0758 12.189
456 2 2.2208 2.2491 15.1896 10.9185
457 1 -1.1104 0.916383 11.0347 9.53288
459 2 2.2208 2.49572 12.3938 8.01105
460 2 2.2208 2.27493 9.77018 10.9439
461 1 -1.1104 3.7369 10.9736 12.3517
462 1 -1.1104 3.65653 10.9641 9.57708
432 1 -1.1104 6.39818 16.687 9.37543
439 1 -1.1104 6.56423 19.3571 12.2958
449 1 -1.1104 6.44372 16.4917 12.1946
455 1 -1.1104 6.47004 10.9322 12.2926
464 2 2.2208 -0.486625 17.9943 10.9006
556 2 2.2208 -0.366458 20.9305 13.7335
557 2 2.2208 5.10602 9.65573 13.7801
478 2 2.2208 10.6442 15.2737 7.98767
417 1 -1.1104 9.35445 13.7789 6.66625
504 2 2.2208 10.6463 9.61914 13.5427
500 2 2.2208 10.622 20.8157 13.6602
473 1 -1.1104 9.22585 19.4644 12.3913
467 1 -1.1104 9.08714 16.614 12.2822
494 2 2.2208 13.4104 12.3357 8.08491
431 1 -1.1104 6.3608 19.4683 9.49166
440 1 -1.1104 6.4177 13.7603 12.3
433 1 -1.1104 6.56482 13.9688 9.35621
458 1 -1.1104 6.77957 11.3833 9.4939
388 1 -1.1104 12.168 10.9686 9.56725
495 2 2.2208 13.5654 9.54042 10.8547
486 1 -1.1104 11.9773 19.4408 12.2978
506 2 2.2208 7.9002 12.3781 13.4911
463 2 2.2208 10.7424 12.3643 10.836
503 2 2.2208 13.3643 17.9482 13.6664
489 2 2.2208 13.3231 18.0465 8.12416
493 2 2.2208 13.5964 20.8824 10.8754
501 2 2.2208 10.5714 15.1987 13.7717
485 2 2.2208 13.4056 15.3012 10.7962
470 1 -1.1104 9.16832 19.347 9.57195
484 2 2.2208 7.8542 12.42 7.95141
474 1 -1.1104 9.27324 13.7251 12.2993
487 1 -1.1104 12.1161 13.8368 12.2484
481 1 -1.1104 12.1241 19.3729 9.53895
476 2 2.2208 10.6921 20.8283 8.06139
468 2 2.2208 7.78123 20.9301 10.7941
483 2 2.2208 7.77345 9.62788 10.7276
471 1 -1.1104 9.26885 13.775 9.369
469 2 2.2208 7.92899 15.1927 10.8139
389 2 2.2208 10.594 9.44622 7.98569
475 1 -1.1104 12.105 16.6054 9.47352
482 1 -1.1104 12.1259 13.7372 9.49946
472 2 2.2208 7.8478 18.2084 7.90768
488 2 2.2208 10.5328 17.9969 10.7789
479 1 -1.1104 11.8874 16.6753 12.2051
480 1 -1.1104 9.31399 10.9239 12.1117
477 1 -1.1104 9.33276 10.9664 9.2819
466 1 -1.1104 9.26124 16.5774 9.46336
390 1 -1.1104 12.1383 11.0149 12.2877
492 2 2.2208 13.5876 15.1966 5.18709
9278 2 2.2208 13.5904 20.747 5.28484
491 2 2.2208 13.5473 9.73453 5.31699
496 2 2.2208 -0.46181 9.61562 8.06178
9331 2 2.2208 13.4614 9.66181 -0.294205
509 2 2.2208 4.99983 12.4441 16.613
510 1 -1.1104 1.16699 11.2769 17.3763
512 2 2.2208 5.05743 9.52959 19.1955
513 1 -1.1104 0.850345 11.0148 14.7734
517 2 2.2208 2.21656 12.4349 19.1572
518 2 2.2208 2.09257 9.58602 16.307
519 1 -1.1104 3.70684 11.0462 18.0228
520 1 -1.1104 3.63413 11.0986 15.1165
522 2 2.2208 5.11114 18.0977 16.3872
523 1 -1.1104 0.746793 13.8061 17.8018
524 1 -1.1104 1.0506 19.5766 17.9432
527 1 -1.1104 0.79475 13.8052 15.0854
529 1 -1.1104 0.892482 19.5419 15.1207
535 1 -1.1104 0.960451 16.9352 17.8079
537 2 2.2208 5.09682 15.3363 19.1732
538 2 2.2208 5.18547 20.8524 19.2068
539 1 -1.1104 0.918248 16.7719 15.1623
543 1 -1.1104 3.4607 13.9937 17.8247
544 1 -1.1104 3.74792 19.4362 17.7418
545 2 2.2208 2.37773 18.146 19.1714
546 1 -1.1104 3.59562 13.9072 15.0335
548 1 -1.1104 3.79829 19.3743 14.9648
550 2 2.2208 2.30554 15.3701 16.3212
551 2 2.2208 2.34203 20.8675 16.4192
552 1 -1.1104 3.67668 16.664 17.8201
553 1 -1.1104 3.54934 16.7616 14.9301
526 1 -1.1104 6.43482 19.4757 17.8275
533 1 -1.1104 6.54517 19.438 15.0186
532 1 -1.1104 6.47993 13.9521 20.7537
531 1 -1.1104 6.3042 13.8546 15.0595
525 1 -1.1104 6.42793 13.9438 17.8806
549 1 -1.1104 3.58633 19.3825 20.8224
530 1 -1.1104 0.737234 19.5294 20.7753
540 1 -1.1104 0.905474 16.7072 20.5703
534 1 -1.1104 6.38201 19.4338 20.6834
536 1 -1.1104 6.51951 16.9059 17.6416
554 1 -1.1104 3.78531 16.7774 20.515
547 1 -1.1104 3.64151 13.8482 20.3692
521 1 -1.1104 3.83114 11.0386 20.6385
514 1 -1.1104 0.84148 11.2375 20.6415
528 1 -1.1104 0.787298 13.8993 20.5808
490 2 2.2208 10.7058 12.439 27.6306
515 1 -1.1104 6.52559 11.0921 15.0678
541 1 -1.1104 6.49644 16.7064 14.9237
511 1 -1.1104 6.63419 11.0511 17.8844
9325 2 2.2208 13.4623 9.56525 16.3179
641 2 2.2208 13.3044 18.1167 19.2046
560 2 2.2208 10.6542 12.3432 16.3408
561 1 -1.1104 12.1741 11.1282 17.7678
562 2 2.2208 10.6967 9.67077 19.2087
563 1 -1.1104 12.0715 11.0755 15.0298
565 2 2.2208 7.86067 12.5114 19.3324
566 2 2.2208 7.87149 9.64473 16.4596
567 1 -1.1104 9.43837 10.9999 17.8276
568 1 -1.1104 9.31936 11.1035 15.0785
570 2 2.2208 10.5904 18.0864 16.5718
571 1 -1.1104 11.9284 13.8341 17.7576
572 1 -1.1104 11.9821 19.4786 17.913
573 1 -1.1104 11.8866 13.798 15.0953
575 1 -1.1104 12.0244 19.5121 15.1597
577 1 -1.1104 12.153 16.6919 17.7552
578 2 2.2208 10.7207 15.2364 19.2872
579 2 2.2208 10.6307 20.8861 19.2458
580 1 -1.1104 11.8885 16.6064 15.0476
582 1 -1.1104 9.17341 13.8633 17.7762
583 1 -1.1104 9.20031 19.5479 17.9572
584 2 2.2208 7.9164 18.0362 19.1458
585 1 -1.1104 9.18717 13.7193 14.9567
587 1 -1.1104 9.33041 19.3898 15.1164
589 2 2.2208 7.91661 15.2233 16.357
590 2 2.2208 7.84098 20.6874 16.4008
591 1 -1.1104 9.34824 16.652 17.877
592 1 -1.1104 9.30212 16.6128 15.165
569 1 -1.1104 9.4287 11.0446 20.6764
597 2 2.2208 13.4034 15.2387 16.3845
576 1 -1.1104 12.083 19.3999 20.6753
581 1 -1.1104 12.1261 16.5751 20.5183
588 1 -1.1104 9.34871 19.4401 20.6064
599 2 2.2208 13.5075 20.8985 16.4513
598 2 2.2208 13.5055 12.5255 19.1327
564 1 -1.1104 12.2734 11.0595 20.5035
516 1 -1.1104 6.50767 11.1732 20.7049
574 1 -1.1104 11.9835 13.904 20.5369
586 1 -1.1104 9.2165 13.7461 20.7348
593 1 -1.1104 9.39203 16.7094 20.7033
428 2 2.2208 7.87362 20.8319 27.7342
542 1 -1.1104 6.63378 16.6871 20.6888
601 1 -1.1104 6.54425 13.9169 26.1653
633 2 2.2208 2.34733 20.8289 27.704
600 1 -1.1104 3.72789 19.3421 23.6759
602 1 -1.1104 3.65622 13.8358 23.3559
604 1 -1.1104 0.960832 19.4261 26.3537
605 1 -1.1104 0.869209 16.4949 26.2775
606 1 -1.1104 0.960149 13.7985 26.3248
608 2 2.2208 5.26979 20.8315 24.8572
609 2 2.2208 4.98392 15.1676 24.7237
611 1 -1.1104 0.833547 19.3511 23.5674
612 1 -1.1104 0.8383 13.7911 23.4176
613 2 2.2208 5.14284 18.023 22.0867
614 1 -1.1104 3.79854 19.2737 26.36
615 2 2.2208 2.32828 17.8868 24.8403
616 1 -1.1104 3.61753 16.6932 26.0542
617 1 -1.1104 3.64562 13.8802 26.1723
619 1 -1.1104 0.921858 16.607 23.5585
620 1 -1.1104 3.65092 16.6393 23.2555
621 2 2.2208 2.27382 20.8091 21.9217
622 2 2.2208 5.01268 12.5294 21.9675
623 1 -1.1104 0.881596 11.0871 23.3561
625 2 2.2208 2.23642 15.2876 21.9028
626 2 2.2208 4.99242 9.60133 24.7132
627 1 -1.1104 0.875455 10.948 26.1878
629 2 2.2208 2.20603 12.4281 24.8398
630 2 2.2208 2.21242 9.64872 21.8156
631 1 -1.1104 3.68836 10.9812 23.49
632 1 -1.1104 3.679 11.035 26.2181
618 1 -1.1104 6.51598 16.6463 23.4614
651 1 -1.1104 6.60647 19.5072 26.3402
603 1 -1.1104 6.68599 16.6584 26.432
610 1 -1.1104 6.44929 13.7957 23.511
644 2 2.2208 7.95735 9.65869 27.6116
637 2 2.2208 5.1612 12.5311 27.5802
636 2 2.2208 10.6491 18.0878 27.6476
507 2 2.2208 5.15673 18.0282 27.625
659 1 -1.1104 12.1889 16.5639 23.4798
508 2 2.2208 2.50214 9.65316 27.5896
635 2 2.2208 2.25146 15.1934 27.6258
662 1 -1.1104 9.34802 11.0767 23.4113
596 2 2.2208 7.97613 15.1952 27.6289
9332 2 2.2208 -0.476193 17.9647 27.6273
624 1 -1.1104 6.54763 11.0165 23.5275
628 1 -1.1104 6.31623 10.9977 26.2773
607 1 -1.1104 6.59408 19.3991 23.6065
665 1 -1.1104 12.0776 19.4295 23.3995
660 1 -1.1104 12.1926 19.4832 26.2848
650 1 -1.1104 9.38 13.9623 26.1757
634 2 2.2208 13.6307 12.4632 24.8106
672 2 2.2208 13.5427 20.8055 27.6209
655 1 -1.1104 12.15 16.7019 26.2732
647 2 2.2208 8.05983 20.9719 21.9356
9324 2 2.2208 13.5765 18.0423 24.896
671 1 -1.1104 12.2546 11.0185 26.2553
668 2 2.2208 10.6597 12.487 22.0741
669 1 -1.1104 12.0526 11.0587 23.1677
654 1 -1.1104 9.27592 13.9065 23.6462
661 1 -1.1104 11.9994 13.895 26.0928
664 2 2.2208 7.95041 12.3758 24.7663
648 2 2.2208 7.89216 15.2049 22.1052
649 1 -1.1104 9.25404 19.5278 26.3501
670 2 2.2208 10.7671 9.62674 24.8379
656 1 -1.1104 9.40231 10.9953 26.0959
645 1 -1.1104 9.60628 16.6743 26.2269
663 2 2.2208 8.00282 9.71653 22.0864
653 1 -1.1104 9.37268 19.5131 23.5758
646 1 -1.1104 9.24927 16.7202 23.4519
666 1 -1.1104 12.1601 13.8403 23.3589
657 2 2.2208 10.6211 20.8208 24.8845
555 2 2.2208 13.423 20.8651 22.1737
658 2 2.2208 10.8277 15.2559 24.8577
667 2 2.2208 10.792 18.045 22.1739
652 2 2.2208 7.97428 18.181 24.8888
594 2 2.2208 -0.541411 18.106 16.4615
9276 2 2.2208 13.4479 15.1776 27.5975
9327 2 2.2208 -0.338878 20.8982 24.8128
558 2 2.2208 2.28961 12.3886 13.6629
673 2 2.2208 5.1327 23.8523 5.33483
674 2 2.2208 5.05606 29.1963 5.14833
675 1 -1.1104 0.877264 25.1458 0.901006
676 1 -1.1104 0.745839 25.1113 3.70645
677 1 -1.1104 0.827482 22.2839 0.989672
678 1 -1.1104 0.821227 27.7437 0.847938
679 2 2.2208 5.06988 26.4357 2.41639
680 1 -1.1104 1.21599 22.1207 3.5657
681 1 -1.1104 0.804851 28.0729 3.72255
683 1 -1.1104 3.70384 25.0314 1.04037
684 2 2.2208 2.18527 23.7358 2.2933
685 2 2.2208 2.27912 29.3018 2.42442
686 1 -1.1104 3.66613 25.1972 3.88357
687 2 2.2208 2.18242 26.5478 5.19343
688 1 -1.1104 3.64169 22.2511 0.915002
689 1 -1.1104 3.61432 27.8092 1.03774
690 1 -1.1104 4.00831 22.3038 3.80728
691 1 -1.1104 3.72989 27.8917 3.78357
692 1 -1.1104 1.0117 30.63 1.01658
693 1 -1.1104 0.9541 30.8773 3.83312
694 1 -1.1104 0.900121 33.4893 1.08617
695 2 2.2208 5.13057 32.0462 2.37855
696 1 -1.1104 0.94669 33.4851 3.98857
698 1 -1.1104 3.79957 30.472 1.11249
699 1 -1.1104 3.76516 30.6613 3.83162
700 2 2.2208 2.30528 32.1482 5.2405
701 1 -1.1104 3.65751 33.4131 0.96077
702 1 -1.1104 3.78635 33.4333 3.8225
749 1 -1.1104 6.55406 22.5839 6.44187
752 1 -1.1104 3.60125 22.2228 6.61079
759 1 -1.1104 3.62505 33.6078 6.71472
707 1 -1.1104 6.43262 24.8795 3.81434
756 1 -1.1104 0.889617 33.5537 6.75244
708 1 -1.1104 6.47666 22.2573 1.4953
745 1 -1.1104 1.08921 25.1907 6.60601
731 1 -1.1104 6.49835 33.5425 1.21672
710 1 -1.1104 6.48263 27.7998 3.78566
747 1 -1.1104 0.807156 22.3994 6.54511
748 1 -1.1104 0.975258 28.0521 6.60559
730 1 -1.1104 6.52476 30.7006 3.86948
729 1 -1.1104 6.56783 30.5721 0.931173
706 1 -1.1104 6.64544 25.0358 1.00069
750 1 -1.1104 6.5448 27.8675 6.44185
697 1 -1.1104 6.55027 33.4758 4.04664
753 1 -1.1104 3.72143 27.8323 6.5313
754 1 -1.1104 1.0227 30.7128 6.66294
758 1 -1.1104 3.77676 30.6399 6.70133
709 1 -1.1104 6.46046 27.7185 1.14872
742 2 2.2208 13.5422 23.6435 2.33916
711 2 2.2208 10.7989 23.6114 5.26589
712 2 2.2208 10.7693 29.2658 5.15368
713 1 -1.1104 12.2187 25.0227 0.935921
714 1 -1.1104 12.2584 25.096 3.72872
715 1 -1.1104 11.9508 22.2304 1.0674
716 1 -1.1104 12.1555 27.7475 0.973101
717 2 2.2208 10.7981 26.399 2.41438
718 1 -1.1104 12.2117 22.2122 3.82167
719 1 -1.1104 12.1854 27.9608 3.64625
720 1 -1.1104 9.4448 24.9918 1.02307
721 2 2.2208 7.94653 23.7358 2.34881
722 2 2.2208 7.92849 29.1916 2.44259
723 1 -1.1104 9.27723 25.2869 3.73888
724 2 2.2208 7.90722 26.4158 5.19554
725 1 -1.1104 9.20488 22.3028 1.00018
726 1 -1.1104 9.24604 27.8543 1.09224
727 1 -1.1104 9.38404 22.582 3.72706
728 1 -1.1104 9.39855 28.0723 3.75561
732 1 -1.1104 12.0688 30.7098 1.14401
733 1 -1.1104 12.1948 30.8153 3.86001
734 1 -1.1104 12.142 33.6155 0.996876
735 2 2.2208 10.8028 32.2273 2.40428
736 1 -1.1104 12.1832 33.563 3.8308
737 1 -1.1104 9.22414 30.7663 1.07867
738 1 -1.1104 9.23609 30.7495 3.84634
739 2 2.2208 7.94307 32.1831 5.21139
740 1 -1.1104 9.33452 33.5446 1.12126
741 1 -1.1104 9.31562 33.4592 3.76269
804 1 -1.1104 9.26599 30.6175 6.58494
799 1 -1.1104 9.45404 25.0999 6.55829
805 1 -1.1104 9.20348 33.5284 6.50028
802 1 -1.1104 12.0987 30.5964 6.45415
798 1 -1.1104 12.1565 27.7616 6.3725
797 1 -1.1104 12.394 22.1197 6.71667
801 1 -1.1104 9.47928 27.9462 6.45902
796 1 -1.1104 12.261 25.0175 6.55927
828 2 2.2208 13.5705 32.0551 5.19478
9611 2 2.2208 13.6795 29.2717 2.34726
744 2 2.2208 13.5748 26.417 5.0698
746 1 -1.1104 6.61748 25.2847 6.74547
751 1 -1.1104 3.73471 25.2066 6.59196
833 2 2.2208 2.2829 23.7772 13.6435
760 2 2.2208 5.13754 23.6991 10.7356
761 2 2.2208 4.98876 29.2434 11.0665
762 1 -1.1104 0.937167 25.1951 12.2113
764 1 -1.1104 0.999255 25.0413 9.50964
766 1 -1.1104 0.745035 22.3613 12.2649
767 1 -1.1104 0.817855 28.0366 12.1846
770 2 2.2208 5.11152 26.5678 8.02864
771 1 -1.1104 0.920883 22.2018 9.34259
772 1 -1.1104 0.874196 27.8839 9.42077
775 1 -1.1104 3.88548 25.0767 12.1422
776 2 2.2208 2.2077 23.694 7.96451
777 2 2.2208 2.32233 29.3648 7.96797
778 1 -1.1104 3.7098 25.1784 9.4233
779 2 2.2208 2.24338 26.6401 10.8542
780 1 -1.1104 3.61488 22.2325 12.2666
781 1 -1.1104 3.74405 27.7464 12.3027
782 1 -1.1104 3.62352 22.264 9.36086
783 1 -1.1104 3.61396 27.986 9.35741
784 1 -1.1104 0.753091 30.7898 12.3096
786 1 -1.1104 0.991738 30.8054 9.43919
787 1 -1.1104 1.03123 33.5692 12.3068
789 2 2.2208 5.01326 32.0668 7.90301
790 1 -1.1104 1.1884 33.5902 9.47239