ITEM: TIMESTEP
50000
ITEM: NUMBER OF ATOMS
17820
ITEM: BOX BOUNDS pp pp pp
-3.6491950676115215e-01 2.7704919506761609e+01
-4.3786975991802555e+00 3.3245869759917565e+02
-3.6550581078038968e-01 2.7705505810780409e+01
ITEM: ATOMS id type q x y z
1 2 2.2208 5.14518 1.21836 5.14042
2 1 -1.1104 0.760052 -3.13833 1.00612
3 1 -1.1104 0.991984 2.632 1.00195
6 1 -1.1104 0.916033 -3.00988 3.71538
7 1 -1.1104 1.06707 2.67834 3.7497
10 1 -1.1104 0.941421 -0.170716 0.986134
12 2 2.2208 5.06197 -1.63842 2.21821
13 2 2.2208 5.18129 3.9506 2.30025
14 1 -1.1104 0.81265 -0.180575 3.78615
16 1 -1.1104 3.72308 -3.13891 1.01346
17 1 -1.1104 3.68473 2.48203 0.921103
18 2 2.2208 2.27792 1.20158 2.31361
19 1 -1.1104 3.76253 -2.9903 3.83767
20 1 -1.1104 3.7454 2.67815 3.65611
21 2 2.2208 2.2456 -1.67232 5.0739
22 2 2.2208 2.57862 4.11245 5.1227
23 1 -1.1104 3.79357 -0.290191 0.841562
24 1 -1.1104 3.65046 -0.161076 3.69703
25 2 2.2208 5.27276 6.82099 5.00309
26 1 -1.1104 1.11479 8.29341 0.996991
28 1 -1.1104 0.821147 8.19551 3.72593
30 1 -1.1104 1.05168 5.39121 0.810785
32 1 -1.1104 0.993642 5.37005 3.72491
34 1 -1.1104 3.92376 8.17716 1.11214
35 2 2.2208 2.42586 6.82345 2.33066
36 1 -1.1104 3.66538 8.0728 4.01886
37 1 -1.1104 3.72483 5.35331 0.812576
38 1 -1.1104 3.81648 5.30525 3.68386
81 1 -1.1104 1.06821 2.58023 6.54987
87 1 -1.1104 3.84534 2.74519 6.64266
93 1 -1.1104 3.75646 5.72284 6.49852
88 1 -1.1104 3.58555 -0.134135 6.44721
15 1 -1.1104 6.46311 -0.175341 3.64443
92 1 -1.1104 6.34824 5.12594 6.3144
84 1 -1.1104 0.856097 -0.192183 6.54437
27 1 -1.1104 6.63647 8.05168 0.823678
31 1 -1.1104 6.46771 5.18191 0.857158
5 1 -1.1104 6.51832 2.40287 0.846358
8 1 -1.1104 6.5022 -2.92586 3.57252
80 1 -1.1104 0.975268 -3.08388 6.46071
86 1 -1.1104 3.96921 -2.92753 6.44448
11 1 -1.1104 6.54722 -0.247811 0.752798
9 1 -1.1104 6.47114 2.58343 3.76744
8947 2 2.2208 -0.406518 6.80851 5.15466
89 1 -1.1104 1.20433 8.23142 6.37904
83 1 -1.1104 6.64119 2.51885 6.6002
85 1 -1.1104 6.54341 -0.16087 6.39846
8886 2 2.2208 -0.478848 4.05347 2.27741
29 1 -1.1104 6.48192 8.1348 3.6505
4 1 -1.1104 6.49305 -2.93509 0.664997
90 1 -1.1104 6.68086 7.87583 6.31504
33 1 -1.1104 6.58057 5.37293 3.6615
67 1 -1.1104 12.1339 8.17724 3.78652
46 2 2.2208 10.7637 1.252 5.01367
47 1 -1.1104 12.0919 -2.96444 0.853283
48 1 -1.1104 12.2461 2.52539 0.923275
49 1 -1.1104 12.0676 -3.10986 3.6947
50 1 -1.1104 12.1626 2.61781 3.60083
51 1 -1.1104 12.2081 -0.101326 0.883521
52 2 2.2208 10.7767 -1.66567 2.36515
53 2 2.2208 10.6235 3.93304 2.46259
54 1 -1.1104 12.1437 -0.27231 3.64637
55 1 -1.1104 9.29175 -3.14948 0.802653
56 1 -1.1104 9.27485 2.47487 0.880276
57 2 2.2208 7.89688 1.09129 2.23424
58 1 -1.1104 9.32398 -3.05157 3.68409
59 1 -1.1104 9.32507 2.50649 3.72268
60 2 2.2208 7.95673 -1.6043 5.0515
61 2 2.2208 7.84231 3.90761 5.16152
62 1 -1.1104 9.34776 -0.153975 0.827231
63 1 -1.1104 9.36394 -0.211338 3.59844
65 2 2.2208 10.6935 6.8544 5.05683
68 1 -1.1104 12.0599 5.32426 1.09374
69 1 -1.1104 12.2575 5.37484 3.7837
70 1 -1.1104 9.38925 8.17803 0.862063
71 2 2.2208 7.90435 6.64151 2.30019
72 1 -1.1104 9.36166 8.18887 3.56105
73 1 -1.1104 9.33198 5.29649 0.790134
74 1 -1.1104 9.42633 5.34723 3.67812
66 1 -1.1104 12.1522 8.19335 1.02353
139 1 -1.1104 9.37014 -2.94926 6.44727
141 1 -1.1104 9.40449 -0.225503 6.35275
137 1 -1.1104 11.9356 2.59254 6.37838
146 1 -1.1104 9.18404 5.46937 6.52751
77 2 2.2208 13.5776 6.98342 2.42657
162 2 2.2208 13.4439 -1.64359 -0.496146
136 1 -1.1104 12.2675 -3.18379 6.49352
140 1 -1.1104 9.3622 2.54066 6.53829
138 1 -1.1104 12.0879 -0.367158 6.41904
144 1 -1.1104 9.53112 8.26885 6.5188
142 1 -1.1104 12.2889 8.29282 6.67806
76 2 2.2208 13.5297 -1.61396 5.09304
8810 2 2.2208 13.4965 4.02519 5.18153
8835 2 2.2208 13.5124 1.0756 2.22888
161 2 2.2208 13.3281 4.19292 -0.470115
91 1 -1.1104 0.933807 5.40494 6.53538
8913 2 2.2208 -0.525975 6.83045 10.7333
163 2 2.2208 2.37899 6.89166 13.4361
234 2 2.2208 5.15806 3.9348 13.5763
82 1 -1.1104 6.65328 -2.89875 6.52984
94 2 2.2208 5.03024 1.25257 10.687
95 1 -1.1104 1.03364 -3.09743 12.3416
96 1 -1.1104 0.948533 2.52687 12.1412
98 1 -1.1104 0.837785 -3.0025 9.33564
99 1 -1.1104 1.00446 2.69229 9.27667
102 1 -1.1104 1.04655 -0.304508 12.2736
104 2 2.2208 5.10913 -1.65113 7.99836
105 2 2.2208 5.22173 3.90757 7.91174
106 1 -1.1104 1.0162 -0.125667 9.47254
108 1 -1.1104 3.86941 -3.02933 11.9992
109 1 -1.1104 3.63321 2.58784 12.1306
110 2 2.2208 2.31792 1.22166 7.93367
111 1 -1.1104 3.76013 -3.02443 9.15759
112 1 -1.1104 3.64458 2.74982 9.32911
113 2 2.2208 2.22139 -1.74934 10.7601
114 2 2.2208 2.16503 4.13512 10.7211
115 1 -1.1104 3.72547 -0.147737 12.0405
116 1 -1.1104 3.76367 -0.0868861 9.26187
117 2 2.2208 5.28435 6.64457 10.8578
118 1 -1.1104 0.820293 8.21121 11.9177
120 1 -1.1104 1.31041 8.2182 9.16581
122 1 -1.1104 0.895736 5.41187 12.1628
124 1 -1.1104 0.773827 5.35693 9.31764
126 1 -1.1104 3.72524 8.17373 11.7623
127 2 2.2208 2.30028 6.68808 7.82447
129 1 -1.1104 3.72635 5.32828 12.141
130 1 -1.1104 3.56993 5.75874 9.44404
121 1 -1.1104 6.65991 8.09507 9.66898
101 1 -1.1104 6.57647 2.61455 9.44894
97 1 -1.1104 6.4753 2.35496 12.182
119 1 -1.1104 6.4514 8.11042 12.2736
103 1 -1.1104 6.56601 -0.672847 12.24
107 1 -1.1104 6.59293 -0.146478 9.43588
100 1 -1.1104 6.53593 -2.88154 9.62405
125 1 -1.1104 6.49003 5.38021 9.15604
123 1 -1.1104 6.77502 5.29014 12.0196
8776 2 2.2208 2.34449 -4.55092 13.6412
169 2 2.2208 5.00626 -1.50051 13.5499
344 2 2.2208 -0.443931 -1.73572 13.6597
8954 2 2.2208 -0.433807 3.90968 13.5176
233 2 2.2208 2.30512 1.09114 13.5291
159 1 -1.1104 12.2427 -0.345106 9.13871
154 1 -1.1104 12.0077 -3.21998 9.17881
143 1 -1.1104 11.9808 5.48629 6.41313
78 2 2.2208 8.08844 -1.46886 10.6708
44 1 -1.1104 9.30426 -0.0964564 12.071
145 1 -1.1104 9.35328 5.46819 9.34787
41 2 2.2208 13.4926 -1.68881 10.8025
164 2 2.2208 13.567 1.07233 13.5812
342 2 2.2208 8.08786 1.20544 13.4987
150 1 -1.1104 9.35624 2.78593 12.0626
160 1 -1.1104 9.41001 -2.66085 12.0298
64 2 2.2208 7.98426 4.00946 10.6874
45 1 -1.1104 9.32128 8.4141 12.2291
8851 2 2.2208 13.5354 3.83633 10.757
158 2 2.2208 10.7508 3.93581 7.95266
134 1 -1.1104 9.2785 -3.04132 9.23132
153 1 -1.1104 12.1199 2.3878 12.0983
128 1 -1.1104 12.2015 5.30433 9.21163
40 2 2.2208 10.7812 6.91015 10.8075
133 1 -1.1104 12.2357 8.17007 12.2124
155 1 -1.1104 12.1051 2.41923 9.30866
156 1 -1.1104 11.9883 -0.39256 12.0014
135 2 2.2208 8.08367 1.0686 7.8467
151 2 2.2208 10.7183 1.10323 10.6925
131 1 -1.1104 12.2008 5.33225 12.0252
43 1 -1.1104 9.53168 -0.329733 9.21566
149 2 2.2208 7.94959 6.95309 8.02309
148 1 -1.1104 9.42533 8.17604 9.3567
152 1 -1.1104 12.291 -3.24927 12.1155
132 1 -1.1104 12.1991 8.29658 9.55821
42 2 2.2208 13.5459 1.22406 7.91491
157 2 2.2208 10.7196 -1.65827 7.80166
79 1 -1.1104 9.36632 2.5211 9.41597
147 1 -1.1104 9.40688 5.52287 12.2182
278 2 2.2208 8.01071 6.86269 13.6105
39 2 2.2208 13.5551 6.93702 8.069
8951 2 2.2208 13.6378 6.91758 13.5522
167 2 2.2208 10.682 -1.60541 13.5936
168 2 2.2208 10.8001 3.96353 13.4604
172 2 2.2208 5.25581 1.1203 16.3595
173 1 -1.1104 1.03198 -3.09333 17.8094
174 1 -1.1104 0.907728 2.50276 17.7024
177 1 -1.1104 1.06819 -3.14488 15.0524
179 1 -1.1104 1.01032 2.55349 14.9617
184 1 -1.1104 0.970948 -0.445391 17.8481
186 2 2.2208 5.04457 -1.7203 19.2014
187 2 2.2208 5.23077 3.94728 19.0659
188 1 -1.1104 1.03309 -0.389908 14.975
192 1 -1.1104 3.75574 -3.11837 17.8276
193 1 -1.1104 3.77759 2.66402 17.6379
194 2 2.2208 2.34276 1.09645 19.1798
195 1 -1.1104 4.0055 -3.04469 15.018
197 1 -1.1104 3.802 2.53424 14.8889
199 2 2.2208 2.37979 -1.72303 16.4998
200 2 2.2208 2.36921 3.96835 16.3671
201 1 -1.1104 3.59763 -0.233668 17.7607
202 1 -1.1104 3.81451 -0.277054 15.0663
204 2 2.2208 5.16389 6.84176 16.3647
205 1 -1.1104 1.02347 8.14804 17.5905
207 1 -1.1104 1.0152 8.21325 14.7869
211 1 -1.1104 0.873648 5.31219 17.7867
213 1 -1.1104 1.09199 5.47507 14.8577
218 2 2.2208 2.24249 6.75879 19.1474
219 1 -1.1104 3.75163 8.23793 14.7842
221 1 -1.1104 3.80151 5.5447 17.7888
222 1 -1.1104 3.90366 5.44056 14.9723
217 1 -1.1104 3.84396 8.36907 17.6466
196 1 -1.1104 3.56444 -3.14398 20.6195
180 1 -1.1104 0.996791 2.5117 20.4906
223 1 -1.1104 3.73957 5.29992 20.3696
220 1 -1.1104 3.72426 8.10068 20.5423
190 1 -1.1104 6.66036 -0.539296 14.9118
209 1 -1.1104 6.57237 8.10505 15.0216
175 1 -1.1104 6.71184 -3.0904 17.4333
212 1 -1.1104 6.58462 5.44425 17.6429
183 1 -1.1104 6.55237 2.58215 20.5345
198 1 -1.1104 3.73486 2.54071 20.3903
189 1 -1.1104 1.0087 -0.249963 20.6187
215 1 -1.1104 6.57583 5.35179 14.7877
182 1 -1.1104 6.52936 2.43666 14.9366
206 1 -1.1104 6.64885 8.26812 17.6877
203 1 -1.1104 3.70123 -0.227399 20.5338
191 1 -1.1104 6.45852 -0.169745 20.4291
226 2 2.2208 -0.395018 3.9971 19.1671
178 1 -1.1104 0.879855 -3.17257 20.6173
214 1 -1.1104 1.02155 5.27379 20.6244
216 1 -1.1104 6.72563 5.35533 20.4927
9108 2 2.2208 -0.415803 0.990616 16.4545
181 1 -1.1104 6.52216 -3.03193 20.3761
176 1 -1.1104 6.57143 2.69563 17.6722
185 1 -1.1104 6.53123 -0.143871 17.7724
210 1 -1.1104 6.40038 8.21547 20.4625
261 1 -1.1104 12.2283 8.08129 14.9991
268 1 -1.1104 9.23605 8.27765 14.9712
235 2 2.2208 10.7791 1.3165 16.3658
236 1 -1.1104 12.2547 -2.98733 17.808
237 1 -1.1104 12.1687 2.51139 17.7359
238 1 -1.1104 12.2496 -2.94237 15.0261
240 1 -1.1104 12.2158 2.66162 14.8352
242 1 -1.1104 12.0965 -0.0748315 17.795
243 2 2.2208 10.8413 -1.71818 19.0844
244 2 2.2208 10.8555 4.04389 19.131
245 1 -1.1104 12.1563 -0.145394 15.0634
247 1 -1.1104 9.48637 -3.06591 17.8592
248 1 -1.1104 9.38366 2.57992 17.7388
249 2 2.2208 7.98797 1.23708 19.175
250 1 -1.1104 9.51397 -2.79694 15.2374
252 1 -1.1104 9.33304 2.60578 14.8998
254 2 2.2208 8.10299 -1.58503 16.269
255 2 2.2208 7.90455 4.01088 16.1989
256 1 -1.1104 9.29728 -0.315555 17.7176
257 1 -1.1104 9.35943 -0.039502 14.8658
259 2 2.2208 10.7049 6.79731 16.3116
260 1 -1.1104 12.1492 8.15623 17.8678
263 1 -1.1104 12.2356 5.41664 17.7287
264 1 -1.1104 12.4125 5.33355 14.829
266 1 -1.1104 9.36917 8.09919 17.7419
267 2 2.2208 8.00997 6.83012 19.1033
270 1 -1.1104 9.33122 5.28929 17.6994
271 1 -1.1104 9.54868 5.43236 14.8074
265 1 -1.1104 12.3835 5.37925 20.5162
276 2 2.2208 13.6455 -1.65549 16.3988
9008 2 2.2208 13.5724 4.02547 16.3754
9007 2 2.2208 13.5985 6.83584 19.1544
251 1 -1.1104 9.28617 -3.02251 20.5868
246 1 -1.1104 12.2375 -0.400677 20.5199
258 1 -1.1104 9.44822 -0.127404 20.5048
239 1 -1.1104 12.2326 -3.04281 20.5412
272 1 -1.1104 9.45347 5.48981 20.4029
241 1 -1.1104 12.2672 2.66036 20.5632
269 1 -1.1104 9.35336 8.15719 20.6006
262 1 -1.1104 12.1593 8.17027 20.7412
253 1 -1.1104 9.3783 2.68446 20.4562
9001 2 2.2208 13.6022 1.19524 19.1875
208 1 -1.1104 1.03135 8.04478 20.822
273 2 2.2208 -0.287983 6.72222 22.1885
322 2 2.2208 2.33329 -1.65156 27.7494
283 2 2.2208 5.09543 1.1997 21.8889
284 1 -1.1104 1.07919 -2.96717 23.4776
285 1 -1.1104 0.852348 2.64057 23.2064
288 1 -1.1104 0.829896 -3.07502 26.2282
289 1 -1.1104 0.88919 2.66967 26.194
292 1 -1.1104 0.887506 -0.137605 23.4975
294 2 2.2208 5.16513 -1.69825 24.6287
295 2 2.2208 5.1937 3.94926 24.7969
296 1 -1.1104 1.04655 -0.207051 26.3229
298 1 -1.1104 3.84819 -2.98828 23.3388
299 1 -1.1104 3.72311 2.59751 23.4432
300 2 2.2208 2.29524 1.20795 24.8187
301 1 -1.1104 3.61713 -3.15201 26.2506
302 1 -1.1104 3.79012 2.48982 26.2057
303 2 2.2208 2.29247 -1.59687 21.9615
304 2 2.2208 2.4007 3.85323 21.8543
305 1 -1.1104 3.71401 -0.265304 23.3178
306 1 -1.1104 3.78583 -0.314685 26.1488
307 2 2.2208 5.17107 6.7338 21.8395
308 1 -1.1104 0.933754 8.23055 23.4417
312 1 -1.1104 1.0592 5.3634 23.271
314 1 -1.1104 1.04319 5.40367 26.1565
316 1 -1.1104 3.6959 8.21267 23.293
317 2 2.2208 2.35191 6.80093 24.7012
318 1 -1.1104 3.72273 8.13371 26.2322
319 1 -1.1104 3.83587 5.40685 23.2513
320 1 -1.1104 3.91491 5.29983 26.1329
310 1 -1.1104 0.977427 8.16347 26.321
313 1 -1.1104 6.47254 5.36603 23.2356
297 1 -1.1104 6.63461 -0.274947 25.9528
293 1 -1.1104 6.63211 -0.218065 23.1723
311 1 -1.1104 6.57441 8.23403 26.0656
315 1 -1.1104 6.64154 5.30945 26.2562
290 1 -1.1104 6.43153 -3.02319 25.9946
309 1 -1.1104 6.58579 8.05913 23.1976
286 1 -1.1104 6.49506 -3.00631 23.2509
321 2 2.2208 5.24211 1.01566 27.4223
171 2 2.2208 5.08394 6.69368 27.5895
170 2 2.2208 2.41419 3.8714 27.5072
331 2 2.2208 10.6939 6.87454 27.5937
343 2 2.2208 7.91097 3.90724 27.5341
227 2 2.2208 13.4377 0.974636 24.7986
332 2 2.2208 10.8984 3.85795 24.8045
337 2 2.2208 7.93538 6.80112 24.7858
282 1 -1.1104 12.1537 5.51139 26.2388
339 1 -1.1104 12.1757 -3.15426 23.3656
341 1 -1.1104 12.2542 -3.11595 26.2103
335 1 -1.1104 9.36532 5.06795 23.1476
291 1 -1.1104 6.56458 2.54349 26.1382
287 1 -1.1104 6.48687 2.66738 23.2818
9106 2 2.2208 13.5394 6.85499 24.8179
225 2 2.2208 13.6232 4.2221 21.9554
336 1 -1.1104 9.21467 8.16937 26.0748
232 1 -1.1104 9.38145 2.57681 26.1818
333 2 2.2208 10.7908 -1.65731 24.6984
338 2 2.2208 10.8908 1.06906 21.84
328 2 2.2208 10.8164 6.75202 22.157
281 1 -1.1104 12.0966 -0.225979 26.1301
326 1 -1.1104 12.023 8.13215 26.2751
277 1 -1.1104 9.36622 8.0718 23.428
280 1 -1.1104 9.48009 -2.92556 23.316
275 2 2.2208 8.0628 1.13843 24.74
323 1 -1.1104 12.3037 -0.282445 23.3087
340 1 -1.1104 12.5747 2.57371 23.3191
279 1 -1.1104 9.75584 2.42608 23.4056
329 1 -1.1104 9.40092 -0.305529 26.1427
224 2 2.2208 7.96354 3.96706 21.7801
229 2 2.2208 8.12043 -1.57701 21.9052
325 1 -1.1104 12.146 5.49133 23.4438
334 1 -1.1104 9.36075 5.34573 26.0145
324 1 -1.1104 12.3607 2.51684 26.1804
330 1 -1.1104 9.40343 -0.261034 23.3164
274 1 -1.1104 9.36798 -3.08239 26.0997
327 1 -1.1104 12.172 8.33497 23.5134
228 2 2.2208 13.6893 -1.6358 21.8413
75 2 2.2208 7.96926 -1.70731 27.5637
165 2 2.2208 10.7016 1.13393 27.6041
345 2 2.2208 5.16433 12.4013 5.16247
346 1 -1.1104 1.15426 11.0208 0.913153
350 2 2.2208 5.30775 9.58694 2.34926
351 1 -1.1104 0.963421 11.1547 3.65484
353 2 2.2208 2.47653 12.619 2.27745
354 2 2.2208 2.27614 9.79526 4.91583
355 1 -1.1104 3.84314 10.9369 0.831917
357 1 -1.1104 3.7784 10.9307 3.58413
358 2 2.2208 5.17211 17.7786 5.22595
359 1 -1.1104 0.996842 13.8967 0.85984
361 1 -1.1104 1.15671 19.4433 0.869561
365 1 -1.1104 1.08807 13.9493 3.7445
366 1 -1.1104 1.24233 19.4886 3.62211
369 1 -1.1104 0.980205 16.5892 0.770646
372 2 2.2208 5.22145 15.2674 2.27683
373 2 2.2208 5.05137 20.7843 2.13285
374 1 -1.1104 0.929112 16.6661 3.79555
376 1 -1.1104 3.72622 13.8236 1.00278
378 1 -1.1104 3.80419 19.3548 0.879571
380 2 2.2208 2.46369 18.0036 2.41698
381 1 -1.1104 3.71273 13.8088 3.75163
382 1 -1.1104 4.1714 19.1989 3.56945
383 2 2.2208 2.25886 15.1772 5.18385
384 2 2.2208 2.44804 20.842 5.26505
385 1 -1.1104 3.78968 16.657 1.03003
387 1 -1.1104 3.59194 16.5182 3.79244
356 1 -1.1104 3.75263 10.8079 6.18825
360 1 -1.1104 0.996267 13.7566 6.76228
352 1 -1.1104 6.65527 10.9444 3.58683
377 1 -1.1104 3.76945 13.6914 6.62003
347 1 -1.1104 1.0387 10.936 6.49779
371 1 -1.1104 6.64329 16.4659 6.39666
367 1 -1.1104 6.51919 13.9584 3.73147
363 1 -1.1104 6.45078 13.7478 6.41077
362 1 -1.1104 6.60939 13.8172 1.10919
391 2 2.2208 -0.247059 20.8394 2.33945
379 1 -1.1104 3.64566 19.4203 6.50151
445 1 -1.1104 0.892839 19.3399 6.63442
364 1 -1.1104 6.50156 19.2315 6.58321
368 2 2.2208 -0.352398 17.9739 5.09948
386 1 -1.1104 3.75798 16.6639 6.59943
9273 2 2.2208 -0.419838 9.57889 2.16714
9272 2 2.2208 -0.426148 15.134 2.19183
375 1 -1.1104 6.64228 16.709 3.60766
348 1 -1.1104 6.49089 10.9381 0.750887
403 1 -1.1104 6.65812 16.5697 0.935399
402 1 -1.1104 6.63278 19.3013 1.1984
349 1 -1.1104 6.62692 11.1698 6.4386
392 2 2.2208 10.6794 12.3376 5.15095
393 1 -1.1104 12.1037 10.9263 1.0032
395 2 2.2208 10.7354 9.68766 2.33689
396 1 -1.1104 12.2518 10.9276 3.6743
397 2 2.2208 7.94049 12.3526 2.39488
398 2 2.2208 7.95597 9.58827 5.17969
399 1 -1.1104 9.29003 11.1774 1.03488
401 1 -1.1104 9.40746 10.9318 3.91749
404 2 2.2208 10.9915 18.1434 5.12288
405 1 -1.1104 12.3043 13.644 0.864757
407 1 -1.1104 12.3847 19.3859 0.884787
409 1 -1.1104 12.1707 13.7191 3.65021
410 1 -1.1104 12.409 19.391 3.7413
411 1 -1.1104 12.2698 16.4986 1.01071
413 2 2.2208 10.8915 15.1498 2.36264
414 2 2.2208 10.8842 20.8109 2.35725
415 1 -1.1104 12.3398 16.5644 3.87035
416 1 -1.1104 9.47072 13.8309 0.962041
418 1 -1.1104 9.30631 19.3689 0.709262
420 2 2.2208 8.18441 17.8949 2.22392
421 1 -1.1104 9.32593 13.7188 3.74068
422 1 -1.1104 9.77291 19.0797 3.39212
423 2 2.2208 8.03945 15.1941 4.9189
424 1 -1.1104 9.42339 16.5714 0.778279
426 1 -1.1104 9.57917 16.5363 3.57946
417 1 -1.1104 9.24152 13.9455 6.53769
425 1 -1.1104 9.31454 16.6247 6.40125
408 1 -1.1104 12.2848 19.5684 6.45913
412 1 -1.1104 12.4582 16.7112 6.59013
394 1 -1.1104 12.1571 11.0939 6.47435
491 2 2.2208 13.5199 9.61698 5.30722
406 1 -1.1104 12.1678 13.9034 6.42072
427 2 2.2208 13.7262 17.9539 2.25595
9278 2 2.2208 13.7024 20.9236 5.10444
400 1 -1.1104 9.3884 10.9802 6.58641
428 2 2.2208 8.09562 20.8682 -0.59016
558 2 2.2208 2.374 12.4937 13.6424
498 2 2.2208 5.19762 20.9109 13.6653
370 1 -1.1104 0.840858 16.591 6.51341
429 1 -1.1104 3.79344 19.4442 12.2672
430 1 -1.1104 3.83547 13.9442 12.1399
434 1 -1.1104 0.973413 19.5567 9.48883
435 1 -1.1104 1.15343 16.6596 9.32355
436 2 2.2208 5.37068 20.9408 7.93025
437 1 -1.1104 0.977305 13.7992 9.46477
438 2 2.2208 5.25536 15.1987 7.99496
441 1 -1.1104 1.0042 19.4487 12.2935
442 1 -1.1104 0.977394 13.8969 12.3562
443 2 2.2208 5.25595 18.0536 10.8393
444 1 -1.1104 3.84541 19.508 9.28814
446 2 2.2208 2.442 18.1247 7.9373
447 1 -1.1104 3.91522 16.6045 9.53313
448 1 -1.1104 3.75045 13.8243 9.39233
450 1 -1.1104 1.01014 16.6382 12.2104
451 1 -1.1104 3.82924 16.8308 12.3325
452 2 2.2208 2.36764 20.9685 10.7848
453 2 2.2208 5.19239 12.4592 10.7946
454 1 -1.1104 0.948619 11.0595 12.145
456 2 2.2208 2.37189 15.3524 10.8557
457 1 -1.1104 0.952167 10.9401 9.30097
459 2 2.2208 2.54355 12.243 8.09817
460 2 2.2208 2.31044 9.57712 10.8326
461 1 -1.1104 3.67822 11.0378 12.0837
462 1 -1.1104 3.64442 10.7967 9.38803
449 1 -1.1104 6.72388 16.7071 12.0409
499 2 2.2208 5.16459 15.2198 13.6456
432 1 -1.1104 6.56197 16.6261 9.22318
455 1 -1.1104 6.46039 11.0383 12.2226
557 2 2.2208 5.07918 9.65111 13.5301
440 1 -1.1104 6.68095 13.9128 12.2632
465 2 2.2208 -0.317246 15.112 7.91282
9275 2 2.2208 -0.450402 20.82 8.03269
9323 2 2.2208 -0.506176 9.70716 13.5647
497 2 2.2208 2.36512 18.0521 13.7261
479 1 -1.1104 12.4505 16.6258 12.1518
480 1 -1.1104 9.25225 11.0904 12.0847
504 2 2.2208 10.7586 9.62183 13.5315
488 2 2.2208 10.9341 18.0633 10.83
473 1 -1.1104 9.43417 19.4193 12.2119
485 2 2.2208 13.6448 15.2206 10.6936
439 1 -1.1104 6.64861 19.4949 12.2505
431 1 -1.1104 6.5233 19.374 9.45937
433 1 -1.1104 6.63426 13.7931 9.38118
484 2 2.2208 7.89512 12.3846 7.90652
483 2 2.2208 7.9875 9.74751 10.6155
489 2 2.2208 13.7581 18.1457 7.94229
474 1 -1.1104 9.53182 13.9374 11.9895
390 1 -1.1104 12.0633 11.0701 12.1608
475 1 -1.1104 12.3068 16.7915 9.32326
501 2 2.2208 10.8191 15.247 13.4576
466 1 -1.1104 9.49374 16.6823 9.37478
481 1 -1.1104 12.1963 19.524 9.31852
472 2 2.2208 7.96569 18.0239 7.78269
487 1 -1.1104 12.2184 13.9276 12.1646
419 1 -1.1104 9.69093 19.2624 6.50996
478 2 2.2208 10.7977 15.3772 7.87251
486 1 -1.1104 12.1888 19.3183 12.3029
469 2 2.2208 8.14252 15.2621 10.7238
389 2 2.2208 10.8517 9.6562 7.99997
482 1 -1.1104 12.1983 14.0098 9.29756
468 2 2.2208 8.03042 20.9205 10.7549
470 1 -1.1104 9.31474 19.3348 9.31488
476 2 2.2208 10.8916 20.9449 7.82567
506 2 2.2208 7.87073 12.421 13.556
471 1 -1.1104 9.47162 13.7219 9.24369
388 1 -1.1104 12.2781 11.009 9.28066
458 1 -1.1104 6.74216 11.2338 9.50829
463 2 2.2208 10.7672 12.4993 10.6597
477 1 -1.1104 9.5425 10.995 9.36452
467 1 -1.1104 9.56537 16.5724 12.1416
493 2 2.2208 13.6342 20.8454 10.6189
494 2 2.2208 13.5293 12.5544 7.89999
495 2 2.2208 13.6185 9.70405 10.7226
509 2 2.2208 5.12968 12.3454 16.4851
510 1 -1.1104 1.04128 11.2221 17.5511
512 2 2.2208 5.09788 9.61961 19.1459
513 1 -1.1104 0.895237 10.8396 14.9054
517 2 2.2208 2.49671 12.3945 19.0837
518 2 2.2208 2.24517 9.6521 16.3968
519 1 -1.1104 3.82426 11.0332 17.8312
520 1 -1.1104 3.7788 11.0454 15.1094
522 2 2.2208 5.29824 18.045 16.4505
523 1 -1.1104 1.00023 13.9702 17.8177
524 1 -1.1104 1.23381 19.5006 17.8816
527 1 -1.1104 0.974232 13.6482 15.1244
529 1 -1.1104 1.06522 19.3322 15.0205
535 1 -1.1104 1.14694 16.7952 17.6985
537 2 2.2208 5.28773 15.1547 19.1072
538 2 2.2208 5.26544 20.7969 19.2742
539 1 -1.1104 1.03923 16.5267 14.9802
543 1 -1.1104 3.84973 13.7245 17.7459
544 1 -1.1104 3.92043 19.2868 17.9128
545 2 2.2208 2.49496 18.0256 19.2829
546 1 -1.1104 3.73243 13.821 15.043
548 1 -1.1104 3.89346 19.5239 15.1111
550 2 2.2208 2.39594 15.2359 16.458
551 2 2.2208 2.42326 20.694 16.4763
552 1 -1.1104 3.90825 16.4613 17.8187
553 1 -1.1104 3.79576 16.7275 15.0642
536 1 -1.1104 6.70468 16.7145 17.8405
515 1 -1.1104 6.49388 10.9598 14.9468
547 1 -1.1104 3.93285 13.7536 20.4952
521 1 -1.1104 3.94425 10.9203 20.5517
541 1 -1.1104 6.56613 16.636 14.9776
549 1 -1.1104 3.79053 19.5614 20.7108
526 1 -1.1104 6.78091 19.5485 17.879
540 1 -1.1104 1.14232 16.5154 20.5699
554 1 -1.1104 3.85191 16.712 20.5603
528 1 -1.1104 1.0927 13.7979 20.577
525 1 -1.1104 6.67095 13.9553 17.7876
531 1 -1.1104 6.57832 13.8633 15.0197
534 1 -1.1104 6.72305 19.4832 20.5572
532 1 -1.1104 6.59995 13.7844 20.6514
533 1 -1.1104 6.65406 19.3325 14.9769
511 1 -1.1104 6.65474 11.0985 17.9645
560 2 2.2208 10.8689 12.2537 16.2114
561 1 -1.1104 12.1421 10.9934 17.8335
562 2 2.2208 10.7068 9.49799 19.2067
563 1 -1.1104 12.3053 10.9013 15.1243
565 2 2.2208 8.08898 12.3811 19.0941
566 2 2.2208 7.90554 9.63201 16.3998
567 1 -1.1104 9.30235 10.8234 17.6642
568 1 -1.1104 9.41334 10.9086 14.8609
570 2 2.2208 10.857 18.0607 16.4179
571 1 -1.1104 12.2164 13.766 17.6778
572 1 -1.1104 12.2414 19.495 17.7644
573 1 -1.1104 12.1173 13.6739 14.8045
575 1 -1.1104 12.3236 19.4696 15.099
577 1 -1.1104 12.2308 16.6358 17.7794
578 2 2.2208 10.8235 15.1423 19.1123
579 2 2.2208 10.9199 20.9031 19.2571
580 1 -1.1104 12.2348 16.6728 14.9724
582 1 -1.1104 9.49041 13.5667 17.4653
583 1 -1.1104 9.52926 19.3754 17.8247
584 2 2.2208 8.05732 18.0066 19.1765
585 1 -1.1104 9.2321 13.8027 14.8448
587 1 -1.1104 9.44115 19.3602 14.9439
589 2 2.2208 8.11448 15.1074 16.3486
590 2 2.2208 8.04481 20.8165 16.492
591 1 -1.1104 9.43113 16.4647 17.7737
592 1 -1.1104 9.51688 16.6177 14.9513
586 1 -1.1104 9.46714 13.83 20.5353
576 1 -1.1104 12.3006 19.3478 20.6805
593 1 -1.1104 9.38307 16.7044 20.539
581 1 -1.1104 12.1658 16.5353 20.4742
9325 2 2.2208 13.6132 9.66244 16.4815
599 2 2.2208 13.6604 20.8743 16.3965
542 1 -1.1104 6.54277 16.5271 20.7486
564 1 -1.1104 12.3514 10.941 20.6497
574 1 -1.1104 12.2031 13.763 20.5052
569 1 -1.1104 9.53101 10.9824 20.5197
598 2 2.2208 13.636 12.3938 19.3329
500 2 2.2208 10.7969 20.8443 13.5951
502 2 2.2208 8.03698 17.9443 13.5697
530 1 -1.1104 1.02007 19.283 20.6376
514 1 -1.1104 1.33405 11.1547 20.7144
508 2 2.2208 2.46271 9.57831 27.5731
507 2 2.2208 5.25287 17.9349 27.5578
600 1 -1.1104 3.88294 19.4477 23.5754
602 1 -1.1104 3.71128 13.911 23.4745
604 1 -1.1104 1.06742 19.4359 26.1791
605 1 -1.1104 1.04283 16.6303 26.1842
606 1 -1.1104 1.02258 13.8485 26.155
608 2 2.2208 5.1351 20.8839 24.8148
609 2 2.2208 5.20722 15.0873 24.827
611 1 -1.1104 1.04827 19.512 23.3724
612 1 -1.1104 1.12414 13.8454 23.4796
613 2 2.2208 5.13159 18.0057 22.1663
614 1 -1.1104 3.82346 19.5195 26.2676
615 2 2.2208 2.45033 18.031 24.7512
616 1 -1.1104 3.85104 16.4452 26.1751
617 1 -1.1104 3.671 13.7169 26.2269
619 1 -1.1104 1.15157 16.6929 23.2885
620 1 -1.1104 3.84457 16.7519 23.4054
621 2 2.2208 2.41944 20.9548 22.0116
622 2 2.2208 5.22545 12.3715 21.9731
623 1 -1.1104 0.812549 11.0584 23.4957
625 2 2.2208 2.35044 15.2085 22.0601
626 2 2.2208 5.18219 9.48295 24.69
627 1 -1.1104 0.950782 10.9884 26.4103
629 2 2.2208 2.42478 12.3103 24.7706
630 2 2.2208 2.30652 9.56569 21.9644
631 1 -1.1104 3.68314 10.9948 23.3375
632 1 -1.1104 3.69552 10.9388 26.1669
633 2 2.2208 2.47783 20.8251 27.5501
624 1 -1.1104 6.58687 10.9622 23.4234
628 1 -1.1104 6.5474 11.0739 26.1035
603 1 -1.1104 6.72277 16.5472 26.1215
635 2 2.2208 2.39932 15.1418 27.4793
9332 2 2.2208 -0.452632 17.9598 27.5254
651 1 -1.1104 6.68733 19.3782 26.1833
642 2 2.2208 -0.384411 18.0829 21.9236
637 2 2.2208 5.11566 12.2893 27.6005
9331 2 2.2208 13.6457 9.53092 27.6949
490 2 2.2208 10.7405 12.4065 27.5864
662 1 -1.1104 9.4306 11.0078 23.3814
588 1 -1.1104 9.53334 19.4718 20.3774
601 1 -1.1104 6.56488 13.7751 26.2988
618 1 -1.1104 6.72225 16.5514 23.3761
610 1 -1.1104 6.54646 13.7071 23.4753
596 2 2.2208 8.00992 15.2209 27.5785
656 1 -1.1104 9.43053 10.9949 26.2014
650 1 -1.1104 9.32013 13.7897 26.0828
667 2 2.2208 10.8719 17.983 21.856
555 2 2.2208 13.5057 20.9188 22.2513
516 1 -1.1104 6.75044 10.8291 20.5978
648 2 2.2208 8.05924 15.3223 21.9857
661 1 -1.1104 12.1346 13.8362 26.1397
607 1 -1.1104 6.57889 19.5025 23.3951
636 2 2.2208 10.9728 17.9647 27.5741
644 2 2.2208 7.93853 9.56221 27.5651
654 1 -1.1104 9.56486 13.9205 23.2137
647 2 2.2208 8.00788 20.8148 21.9955
668 2 2.2208 10.8919 12.4436 21.945
659 1 -1.1104 12.246 16.6932 23.2604
665 1 -1.1104 12.1892 19.382 23.4847
663 2 2.2208 8.00259 9.48366 21.9685
9324 2 2.2208 13.6968 18.015 24.7542
652 2 2.2208 8.15136 18.0122 24.7639
660 1 -1.1104 12.3578 19.3819 26.2249
666 1 -1.1104 12.1691 13.6764 23.3486
646 1 -1.1104 9.5439 16.6203 23.4254
671 1 -1.1104 12.1873 10.9353 26.3038
669 1 -1.1104 12.3519 10.9728 23.5176
670 2 2.2208 10.7691 9.65203 24.8594
645 1 -1.1104 9.57139 16.546 26.208
655 1 -1.1104 12.3109 16.511 25.9106
657 2 2.2208 10.8514 20.7935 24.8296
649 1 -1.1104 9.54443 19.3998 26.0578
664 2 2.2208 7.97186 12.327 24.7711
658 2 2.2208 10.8111 15.1775 24.6341
653 1 -1.1104 9.47863 19.4735 23.2419
673 2 2.2208 5.25563 23.7623 5.34929
674 2 2.2208 5.11653 29.1453 5.11375
675 1 -1.1104 0.98403 25.0963 0.898343
676 1 -1.1104 1.05201 24.8806 3.82273
677 1 -1.1104 1.0852 22.3113 0.995525
678 1 -1.1104 1.08105 27.8631 1.13283
679 2 2.2208 5.27765 26.3216 2.28242
680 1 -1.1104 1.13735 22.0929 3.74297
681 1 -1.1104 0.883088 27.6803 3.89284
683 1 -1.1104 3.7924 24.8856 1.06585
684 2 2.2208 2.50523 23.5927 2.37641
685 2 2.2208 2.36559 29.1475 2.43288
686 1 -1.1104 3.83021 25.0038 3.83357
687 2 2.2208 2.33897 26.3286 5.30363
688 1 -1.1104 3.86395 22.1033 0.868042
689 1 -1.1104 3.89552 27.7761 0.904469
690 1 -1.1104 4.10683 22.1424 3.76251
691 1 -1.1104 3.64839 27.7921 4.04047
692 1 -1.1104 1.0748 30.5398 0.966705
693 1 -1.1104 1.02 30.6202 3.89355
694 1 -1.1104 0.911073 33.4817 0.97823
695 2 2.2208 5.12894 32.1136 2.38157
696 1 -1.1104 0.948477 33.4965 3.72347
698 1 -1.1104 3.80019 30.5431 1.16701
699 1 -1.1104 3.71121 30.6045 3.83592
700 2 2.2208 2.29206 32.0101 5.17639
701 1 -1.1104 3.69319 33.497 0.95027
702 1 -1.1104 3.8101 33.4228 3.8363
747 1 -1.1104 1.0344 22.2296 6.76697
748 1 -1.1104 1.03022 27.8218 6.61164
758 1 -1.1104 3.76312 30.6524 6.62575
697 1 -1.1104 6.60072 33.4942 3.85053
729 1 -1.1104 6.47369 30.6057 1.16684
752 1 -1.1104 3.7352 22.2246 6.53801
745 1 -1.1104 0.961686 24.9339 6.63537
756 1 -1.1104 0.990451 33.4154 6.48305
754 1 -1.1104 1.15461 30.7998 6.7607
731 1 -1.1104 6.49776 33.4691 1.08219
707 1 -1.1104 6.70382 24.6283 3.75705
750 1 -1.1104 6.67838 28.0846 6.48185
751 1 -1.1104 3.87304 25.2397 6.79282
9660 2 2.2208 -0.379279 23.6555 -0.503862
9608 2 2.2208 -0.337985 26.4142 2.47596
975 2 2.2208 2.42767 26.4505 -0.432507
709 1 -1.1104 6.51972 27.8007 0.91596
708 1 -1.1104 6.63346 22.1747 1.37911
744 2 2.2208 13.709 26.4297 5.07699
706 1 -1.1104 6.54943 24.7443 0.9377
710 1 -1.1104 6.73387 27.8114 3.71928
730 1 -1.1104 6.5843 30.6109 3.8881
711 2 2.2208 10.8979 23.7774 5.02178
712 2 2.2208 10.8713 29.3051 5.24051
713 1 -1.1104 12.1544 24.9757 0.967262
714 1 -1.1104 12.3476 25.1052 3.65615
715 1 -1.1104 12.3335 22.2596 0.893065
716 1 -1.1104 12.06 27.7596 0.966328
717 2 2.2208 10.7677 26.5562 2.29488
718 1 -1.1104 12.4114 22.2754 3.66967
719 1 -1.1104 12.3027 27.8393 3.62874
720 1 -1.1104 9.49082 24.9975 0.789145
721 2 2.2208 8.1837 23.6422 2.19249
722 2 2.2208 8.02723 29.2773 2.34631
723 1 -1.1104 9.3566 25.2166 3.63144
724 2 2.2208 8.20136 26.4352 5.17434
725 1 -1.1104 9.43184 22.1175 0.816566
726 1 -1.1104 9.26766 27.8379 0.964813
727 1 -1.1104 9.61741 22.5017 3.50634
728 1 -1.1104 9.51224 27.9146 3.79866
732 1 -1.1104 12.0692 30.6713 0.833547
733 1 -1.1104 12.3162 30.6738 3.71658
734 1 -1.1104 12.2058 33.3804 0.913848
735 2 2.2208 10.9295 31.9597 2.34435
736 1 -1.1104 12.2648 33.4366 3.74819
737 1 -1.1104 9.28446 30.6627 0.894563
738 1 -1.1104 9.54033 30.7604 3.69966
739 2 2.2208 7.86045 32.0751 5.19958
740 1 -1.1104 9.30548 33.4665 0.977074
741 1 -1.1104 9.33553 33.595 3.81037
804 1 -1.1104 9.31026 30.718 6.53454
797 1 -1.1104 12.4421 22.3567 6.54202
803 1 -1.1104 12.4121 33.5681 6.39706
798 1 -1.1104 12.2982 27.7544 6.40002
799 1 -1.1104 9.4936 25.1456 6.53219
801 1 -1.1104 9.61713 27.8331 6.52696
746 1 -1.1104 6.63636 25.2328 6.43778
796 1 -1.1104 12.3559 25.1222 6.65284
802 1 -1.1104 12.0869 30.7024 6.60154
742 2 2.2208 13.6604 23.7393 2.37363
843 2 2.2208 7.94286 32.0255 -0.357175
753 1 -1.1104 3.85357 27.9184 6.67966
759 1 -1.1104 3.83771 33.4539 6.40567
749 1 -1.1104 6.49223 22.4867 6.69811
897 2 2.2208 2.41445 29.2076 13.7457
760 2 2.2208 5.22568 23.6949 10.7726
761 2 2.2208 5.21031 29.0632 11.0282
762 1 -1.1104 1.07469 25.0767 12.1684
764 1 -1.1104 1.21581 25.1177 9.41949
766 1 -1.1104 1.00822 22.2712 12.304
767 1 -1.1104 1.12377 27.6705 12.2293
770 2 2.2208 5.37772 26.5616 8.00105
771 1 -1.1104 1.16162 22.4764 9.61771
772 1 -1.1104 0.887136 27.7874 9.35989
775 1 -1.1104 3.85779 25.1278 12.3575
776 2 2.2208 2.43874 23.6589 8.05347
777 2 2.2208 2.38509 29.1829 8.04622
778 1 -1.1104 4.00967 25.0918 9.38328
779 2 2.2208 2.42351 26.479 10.8096
780 1 -1.1104 3.83398 22.2174 12.1322
781 1 -1.1104 3.87798 27.6829 12.3516
782 1 -1.1104 4.00824 22.3637 9.35797
783 1 -1.1104 3.76472 27.8306 9.4779
784 1 -1.1104 0.793204 30.6371 12.2633
786 1 -1.1104 0.95183 30.6623 9.58566
787 1 -1.1104 0.877851 33.3903 12.3948