ITEM: TIMESTEP
10000
ITEM: NUMBER OF ATOMS
17820
ITEM: BOX BOUNDS pp pp pp
-3.6457663842291271e-01 2.7704576638423017e+01
-4.4044713004864375e+00 3.3248447130048623e+02
-3.6198454561147175e-01 2.7701984545611595e+01
ITEM: ATOMS id type q x y z
1 2 2.2208 5.22932 1.22916 5.10274
2 1 -1.1104 0.981136 -2.93686 0.788374
3 1 -1.1104 1.06386 2.71717 0.954793
6 1 -1.1104 0.840627 -2.9179 3.6435
7 1 -1.1104 0.909979 2.66491 3.73069
10 1 -1.1104 0.945493 -0.0879817 0.950313
12 2 2.2208 5.1954 -1.6165 2.35154
13 2 2.2208 5.21653 4.04972 2.31363
14 1 -1.1104 0.951665 -0.0944904 3.76915
16 1 -1.1104 3.7862 -2.96845 0.972347
17 1 -1.1104 3.88545 2.7594 1.00949
18 2 2.2208 2.28757 1.28583 2.36276
19 1 -1.1104 3.59439 -2.91018 3.85426
20 1 -1.1104 3.73016 2.71709 3.7433
21 2 2.2208 2.31908 -1.59493 5.20059
22 2 2.2208 2.35226 4.03168 5.14943
23 1 -1.1104 3.70411 -0.0380327 0.832309
24 1 -1.1104 3.87308 -0.12485 3.4524
25 2 2.2208 5.41857 6.69356 5.16599
26 1 -1.1104 1.003 8.09648 0.718313
28 1 -1.1104 0.944488 8.33256 3.52534
30 1 -1.1104 1.02118 5.44378 0.896417
32 1 -1.1104 1.27284 5.48644 3.79672
34 1 -1.1104 3.78579 8.39751 1.0744
35 2 2.2208 2.43265 6.86897 2.34018
36 1 -1.1104 3.65898 7.93815 4.39217
37 1 -1.1104 3.74167 5.49415 1.0316
38 1 -1.1104 4.09987 5.38763 3.72954
91 1 -1.1104 1.11985 5.49348 6.60698
80 1 -1.1104 0.877946 -2.88728 6.58392
89 1 -1.1104 1.0823 8.25221 6.38684
31 1 -1.1104 6.62364 5.51473 0.928784
86 1 -1.1104 3.75055 -3.04979 6.61643
81 1 -1.1104 0.864691 2.66245 6.52641
88 1 -1.1104 3.80929 -0.132181 6.50336
29 1 -1.1104 6.67327 8.22514 3.5614
27 1 -1.1104 6.55765 8.37038 0.780542
4 1 -1.1104 6.57609 -3.07514 0.826485
9 1 -1.1104 6.58162 2.79218 3.786
82 1 -1.1104 6.52269 -3.00485 6.60543
93 1 -1.1104 3.84824 5.46136 6.59947
87 1 -1.1104 3.75838 2.7138 6.50301
8578 2 2.2208 8.03641 -4.34031 7.96121
8851 2 2.2208 13.7069 4.13071 10.8807
5 1 -1.1104 6.65496 2.60914 0.925466
11 1 -1.1104 6.49363 -0.328819 1.02475
8 1 -1.1104 6.43889 -2.99115 3.81222
15 1 -1.1104 6.76979 -0.0635192 3.7418
8835 2 2.2208 13.6495 1.16707 2.40437
8954 2 2.2208 -0.511495 4.07847 13.4876
33 1 -1.1104 6.91106 5.50579 3.77235
46 2 2.2208 10.7906 1.16527 5.18005
47 1 -1.1104 12.2625 -2.88581 0.794009
48 1 -1.1104 12.2284 2.71699 0.85054
49 1 -1.1104 12.2027 -2.94292 3.56663
50 1 -1.1104 12.3615 2.56142 3.7638
51 1 -1.1104 12.2149 -0.077574 0.935166
52 2 2.2208 10.8737 -1.59326 2.34813
53 2 2.2208 10.8732 4.02468 2.40175
54 1 -1.1104 12.2469 -0.218106 3.75677
55 1 -1.1104 9.33969 -2.99965 1.06041
56 1 -1.1104 9.48332 2.65911 0.854908
57 2 2.2208 8.1119 1.24973 2.32237
58 1 -1.1104 9.33698 -3.00314 3.64515
59 1 -1.1104 9.40268 2.55332 3.6473
60 2 2.2208 8.00192 -1.53309 5.05977
61 2 2.2208 8.17715 3.99266 5.10887
62 1 -1.1104 9.36592 -0.0994103 0.900545
63 1 -1.1104 9.45179 -0.273836 3.65357
65 2 2.2208 10.9442 6.88408 5.16042
66 1 -1.1104 12.3628 8.26747 0.971171
67 1 -1.1104 12.2766 8.15942 3.78476
68 1 -1.1104 12.2072 5.41157 1.02984
69 1 -1.1104 12.4582 5.34761 3.7548
70 1 -1.1104 9.61805 8.15804 1.02479
71 2 2.2208 8.10974 6.82498 2.3001
72 1 -1.1104 9.48002 8.38488 3.79905
73 1 -1.1104 9.3806 5.51213 1.01853
74 1 -1.1104 9.61768 5.44189 3.76091
146 1 -1.1104 9.46029 5.47432 6.59654
139 1 -1.1104 9.38693 -2.79292 6.41389
140 1 -1.1104 9.49403 2.5438 6.46747
137 1 -1.1104 12.2491 2.54255 6.44366
136 1 -1.1104 12.1498 -3.03619 6.61989
90 1 -1.1104 6.94997 8.02136 6.31317
142 1 -1.1104 12.339 8.27895 6.56548
8948 2 2.2208 -0.466841 -1.55185 2.28855
144 1 -1.1104 9.57681 8.34293 6.46151
141 1 -1.1104 9.44221 -0.177589 6.3562
83 1 -1.1104 6.65692 2.53043 6.31383
162 2 2.2208 13.6059 -1.55903 -0.524884
84 1 -1.1104 1.03864 -0.163519 6.44959
92 1 -1.1104 6.64338 5.38903 6.68906
101 1 -1.1104 6.60441 2.54607 9.17927
163 2 2.2208 2.51088 6.78304 13.4368
94 2 2.2208 5.13821 1.35007 10.7196
95 1 -1.1104 1.1682 -2.84425 12.2447
96 1 -1.1104 1.04897 2.72874 12.1758
98 1 -1.1104 0.908024 -2.97584 9.45868
99 1 -1.1104 1.11795 2.58179 9.33984
102 1 -1.1104 1.04378 -0.118049 12.1961
104 2 2.2208 5.20562 -1.53028 7.88786
105 2 2.2208 5.22781 3.94504 7.78857
106 1 -1.1104 1.13087 -0.278429 9.18164
108 1 -1.1104 4.10554 -2.877 12.1641
109 1 -1.1104 3.85565 2.52202 12.2813
110 2 2.2208 2.34913 1.18084 7.8094
111 1 -1.1104 3.66527 -2.96692 9.31699
112 1 -1.1104 3.82556 2.92484 9.30803
113 2 2.2208 2.4966 -1.46972 10.7707
114 2 2.2208 2.44366 4.15677 10.6916
115 1 -1.1104 3.82958 -0.0616785 12.1656
116 1 -1.1104 3.92868 -0.164041 9.23468
117 2 2.2208 5.39031 6.71075 10.8076
118 1 -1.1104 0.906602 8.35784 11.9813
120 1 -1.1104 1.16939 8.37265 9.33247
122 1 -1.1104 1.09131 5.47705 12.0935
124 1 -1.1104 1.04966 5.42972 9.23662
126 1 -1.1104 3.68179 8.15217 11.7299
127 2 2.2208 2.30265 6.84301 7.85177
129 1 -1.1104 3.82943 5.31427 12.2308
130 1 -1.1104 3.74287 5.90579 9.52983
169 2 2.2208 5.12323 -1.27605 13.4836
100 1 -1.1104 6.47569 -3.00946 9.76798
119 1 -1.1104 6.43717 7.934 12.2673
97 1 -1.1104 6.60298 2.47451 12.0632
121 1 -1.1104 6.88597 8.02254 9.51894
125 1 -1.1104 6.58937 5.22237 9.43244
8951 2 2.2208 13.7049 6.87401 13.5517
233 2 2.2208 2.3286 1.33226 13.4759
145 1 -1.1104 9.3289 5.4389 9.49822
143 1 -1.1104 12.2463 5.26395 6.43727
85 1 -1.1104 6.51422 -0.274759 6.41995
147 1 -1.1104 9.61564 5.444 12.1178
39 2 2.2208 13.6274 6.82608 7.98434
150 1 -1.1104 9.41902 2.69807 12.0717
42 2 2.2208 13.6823 1.36709 7.98772
149 2 2.2208 8.27958 6.98308 7.89867
41 2 2.2208 13.5258 -1.50189 10.8314
103 1 -1.1104 6.63824 -0.491229 12.0864
278 2 2.2208 8.02554 6.7181 13.5006
156 1 -1.1104 12.2196 -0.247275 12.2125
138 1 -1.1104 12.2406 -0.147648 6.56661
157 2 2.2208 10.8838 -1.56221 7.96057
158 2 2.2208 10.7468 4.00013 7.8888
154 1 -1.1104 12.094 -2.92125 9.41664
160 1 -1.1104 9.50688 -2.82505 11.8828
153 1 -1.1104 12.1781 2.58151 12.0994
135 2 2.2208 7.99504 1.22903 7.72194
152 1 -1.1104 12.1748 -2.93405 12.0694
151 2 2.2208 10.7241 1.27 10.6976
155 1 -1.1104 12.2452 2.71824 9.33365
342 2 2.2208 8.01784 1.29544 13.5455
148 1 -1.1104 9.70018 8.3109 9.23609
107 1 -1.1104 6.62197 -0.203546 9.26815
40 2 2.2208 10.9337 6.86912 10.7394
159 1 -1.1104 12.1615 -0.163652 9.33793
133 1 -1.1104 12.4068 8.30057 12.2403
64 2 2.2208 8.02606 4.00986 10.6762
45 1 -1.1104 9.38382 8.22591 12.1259
44 1 -1.1104 9.4794 0.0359573 12.1903
123 1 -1.1104 6.79187 5.2214 12.2217
43 1 -1.1104 9.40542 -0.124607 9.19287
134 1 -1.1104 9.34803 -2.88908 9.09317
79 1 -1.1104 9.40064 2.66862 9.14309
78 2 2.2208 8.1123 -1.50672 10.5676
132 1 -1.1104 12.3458 8.28834 9.34923
131 1 -1.1104 12.3764 5.42103 12.0673
128 1 -1.1104 12.1815 5.52407 9.27362
8810 2 2.2208 13.6797 3.90689 5.18389
76 2 2.2208 13.6573 -1.55408 5.18687
77 2 2.2208 13.673 6.97607 2.38951
331 2 2.2208 10.8015 6.91856 -0.535551
8606 2 2.2208 5.10736 -4.2858 -0.38818
234 2 2.2208 5.22671 3.9201 13.6681
161 2 2.2208 13.3494 4.17167 -0.420486
167 2 2.2208 10.6619 -1.54931 13.5608
170 2 2.2208 2.43509 3.95764 -0.336204
343 2 2.2208 8.14097 4.12988 -0.519501
172 2 2.2208 5.16872 1.2932 16.5245
173 1 -1.1104 1.10484 -2.79029 17.6838
174 1 -1.1104 1.05954 2.79523 17.975
177 1 -1.1104 1.0782 -2.9096 14.8178
179 1 -1.1104 0.842635 2.67297 15.051
184 1 -1.1104 1.0195 -0.176716 17.769
186 2 2.2208 5.17579 -1.62513 19.0504
187 2 2.2208 5.22492 4.01746 19.1935
188 1 -1.1104 1.04987 -0.170166 14.9064
192 1 -1.1104 3.69742 -2.93256 17.7068
193 1 -1.1104 3.9185 2.65434 17.831
194 2 2.2208 2.38458 1.21077 19.2977
195 1 -1.1104 4.17094 -2.8629 14.9229
197 1 -1.1104 3.73297 2.61428 14.9025
199 2 2.2208 2.40251 -1.52855 16.2199
200 2 2.2208 2.39223 4.09444 16.4146
201 1 -1.1104 3.87714 -0.12618 17.9164
202 1 -1.1104 3.93932 -0.139829 15.0234
204 2 2.2208 5.06131 6.87472 16.2486
205 1 -1.1104 1.05086 8.2013 17.5248
207 1 -1.1104 1.04167 8.30302 14.773
211 1 -1.1104 0.932777 5.50873 17.7194
213 1 -1.1104 1.13932 5.55329 14.9877
217 1 -1.1104 3.79959 8.24087 17.6676
218 2 2.2208 2.37078 6.87957 19.0383
219 1 -1.1104 3.76152 8.20194 14.7496
221 1 -1.1104 3.72054 5.52299 17.6989
222 1 -1.1104 3.8511 5.38794 14.8164
215 1 -1.1104 6.5409 5.34645 15.115
176 1 -1.1104 6.62386 2.56299 17.7452
175 1 -1.1104 6.4985 -2.92171 17.4424
182 1 -1.1104 6.55774 2.43282 14.9494
209 1 -1.1104 6.59038 8.21967 14.9552
206 1 -1.1104 6.61934 8.08357 17.732
230 2 2.2208 -0.145165 6.76979 16.2362
203 1 -1.1104 3.605 -0.278575 20.6823
210 1 -1.1104 6.66587 8.28747 20.4582
185 1 -1.1104 6.6478 -0.296516 17.8042
191 1 -1.1104 6.45217 -0.120409 20.5413
181 1 -1.1104 6.68585 -2.83368 20.4039
198 1 -1.1104 3.69564 2.75784 20.4922
178 1 -1.1104 0.864937 -3.08352 20.6443
220 1 -1.1104 3.81961 8.24738 20.4459
223 1 -1.1104 3.84189 5.44585 20.6331
214 1 -1.1104 1.02702 5.4691 20.6209
189 1 -1.1104 0.922112 -0.235882 20.6319
226 2 2.2208 -0.44239 4.14508 19.4253
228 2 2.2208 13.3832 -1.63995 21.9637
212 1 -1.1104 6.61049 5.26678 18.0171
8994 2 2.2208 -0.458521 -1.66699 24.7382
190 1 -1.1104 6.66421 -0.402382 14.9799
235 2 2.2208 10.8779 1.25377 16.4147
236 1 -1.1104 12.3181 -2.89642 17.6949
237 1 -1.1104 12.3072 2.74434 17.72
238 1 -1.1104 12.3929 -2.86094 14.852
240 1 -1.1104 12.2802 2.61646 14.9815
242 1 -1.1104 12.2779 -0.0833899 17.8281
243 2 2.2208 10.8417 -1.58725 19.1665
244 2 2.2208 10.7752 4.07812 19.169
245 1 -1.1104 12.091 -0.11802 15.0531
247 1 -1.1104 9.28339 -2.84903 17.8339
248 1 -1.1104 9.44489 2.60189 17.7597
249 2 2.2208 7.92986 1.25738 19.2243
250 1 -1.1104 9.46524 -2.71473 15.1314
252 1 -1.1104 9.46759 2.64737 14.811
254 2 2.2208 8.16972 -1.44993 16.5223
255 2 2.2208 7.94566 4.02602 16.3302
256 1 -1.1104 9.38934 -0.013045 17.8986
257 1 -1.1104 9.39033 -0.00834688 15.0612
259 2 2.2208 10.7585 6.82795 16.3648
260 1 -1.1104 12.2735 8.25117 17.729
261 1 -1.1104 12.0537 8.20561 14.8778
263 1 -1.1104 12.2278 5.50771 17.9012
264 1 -1.1104 12.1609 5.48492 14.9577
266 1 -1.1104 9.45819 8.09571 17.8913
267 2 2.2208 7.97035 6.80233 19.2255
268 1 -1.1104 9.39434 8.19601 15.0061
270 1 -1.1104 9.37618 5.40607 17.7155
271 1 -1.1104 9.38571 5.30819 14.9183
246 1 -1.1104 12.1817 -0.0576302 20.6473
253 1 -1.1104 9.36143 2.76337 20.6273
265 1 -1.1104 12.2388 5.5377 20.569
9002 2 2.2208 -0.346009 1.30292 22.0301
9007 2 2.2208 13.6021 6.92575 19.1178
241 1 -1.1104 12.1914 2.70973 20.5088
276 2 2.2208 13.6582 -1.45839 16.399
323 1 -1.1104 12.1593 -0.0628602 23.3349
9001 2 2.2208 13.6661 1.31388 19.273
326 1 -1.1104 12.1237 8.10309 26.0332
180 1 -1.1104 0.897765 2.65078 20.7335
216 1 -1.1104 6.58295 5.35478 20.7296
196 1 -1.1104 3.72899 -3.06786 20.6403
324 1 -1.1104 12.3787 2.53526 26.2413
183 1 -1.1104 6.52463 2.61575 20.6158
208 1 -1.1104 1.0071 8.20141 20.6352
273 2 2.2208 -0.142834 6.79681 22.0066
283 2 2.2208 5.14613 1.32362 21.871
284 1 -1.1104 0.972694 -3.07608 23.4945
285 1 -1.1104 1.03528 2.5309 23.4572
288 1 -1.1104 1.01195 -3.00473 26.1992
289 1 -1.1104 1.082 2.5346 26.1761
292 1 -1.1104 1.06938 -0.253667 23.4172
294 2 2.2208 5.15398 -1.55168 24.7857
295 2 2.2208 5.18418 4.00753 24.8894
296 1 -1.1104 0.858283 -0.225366 26.2343
298 1 -1.1104 3.75628 -3.01605 23.4207
299 1 -1.1104 3.80394 2.68514 23.4005
300 2 2.2208 2.40541 1.09409 24.8362
301 1 -1.1104 3.64451 -2.94482 26.1815
302 1 -1.1104 3.86014 2.56666 26.1434
303 2 2.2208 2.39503 -1.6914 22.0846
304 2 2.2208 2.42806 4.05349 22.13
305 1 -1.1104 3.76809 -0.078812 23.5159
306 1 -1.1104 3.86711 -0.207387 26.2624
307 2 2.2208 5.17144 6.93436 21.9925
308 1 -1.1104 1.04879 8.21654 23.4615
312 1 -1.1104 1.13575 5.2941 23.4637
314 1 -1.1104 0.946511 5.398 26.1107
316 1 -1.1104 3.81038 8.28198 23.3869
317 2 2.2208 2.44483 6.8425 24.8658
318 1 -1.1104 3.87603 8.31321 26.1716
319 1 -1.1104 3.84102 5.43302 23.3908
320 1 -1.1104 3.69777 5.4364 26.3377
309 1 -1.1104 6.55315 8.36382 23.1981
310 1 -1.1104 1.0666 8.32323 26.1092
313 1 -1.1104 6.66155 5.53403 23.6096
322 2 2.2208 2.37318 -1.54763 27.5897
297 1 -1.1104 6.66324 -0.103899 26.1563
311 1 -1.1104 6.69457 8.27213 26.1996
293 1 -1.1104 6.66378 -0.140408 23.3362
286 1 -1.1104 6.63601 -2.89761 23.3251
287 1 -1.1104 6.57168 2.73587 23.367
291 1 -1.1104 6.63411 2.58396 26.2307
75 2 2.2208 8.03888 -1.53223 27.6373
171 2 2.2208 5.25284 6.97447 27.6787
321 2 2.2208 5.24103 1.30135 27.6228
329 1 -1.1104 9.36815 -0.152842 26.0419
269 1 -1.1104 9.51368 8.2453 20.6274
330 1 -1.1104 9.43609 -0.173761 23.2819
327 1 -1.1104 12.2229 8.37454 23.1903
272 1 -1.1104 9.31553 5.44761 20.4063
328 2 2.2208 10.8023 6.90795 21.7952
335 1 -1.1104 9.37561 5.32455 23.3698
315 1 -1.1104 6.41463 5.56349 26.2798
332 2 2.2208 10.9134 4.01953 24.6481
336 1 -1.1104 9.409 8.35249 26.1625
290 1 -1.1104 6.579 -2.8769 26.1047
337 2 2.2208 7.92434 6.86455 24.8438
341 1 -1.1104 12.196 -3.01911 26.2088
333 2 2.2208 10.7511 -1.65547 24.8417
334 1 -1.1104 9.34824 5.50827 26.1727
262 1 -1.1104 12.3629 8.39066 20.4637
258 1 -1.1104 9.28296 -0.0278874 20.5047
239 1 -1.1104 12.2073 -2.93856 20.5168
225 2 2.2208 13.604 4.18876 21.8358
229 2 2.2208 7.98564 -1.47218 21.9534
339 1 -1.1104 12.2483 -2.99898 23.3675
338 2 2.2208 10.6952 1.30422 21.9095
232 1 -1.1104 9.42199 2.68935 26.1533
224 2 2.2208 8.01134 4.08274 22.028
275 2 2.2208 8.03453 1.25833 24.7698
227 2 2.2208 13.4479 1.22057 24.8822
274 1 -1.1104 9.40353 -2.98417 26.4607
282 1 -1.1104 12.1181 5.43179 26.2031
281 1 -1.1104 12.0295 -0.0991304 26.0938
340 1 -1.1104 12.4128 2.86952 23.3217
280 1 -1.1104 9.45203 -3.06913 23.4624
251 1 -1.1104 9.50016 -2.83929 20.5865
279 1 -1.1104 9.52813 2.59556 23.4185
325 1 -1.1104 12.0316 5.53749 23.3496
277 1 -1.1104 9.44675 8.24932 23.3552
168 2 2.2208 10.9011 4.05075 13.4538
164 2 2.2208 13.5312 1.11738 13.543
165 2 2.2208 10.8803 1.30209 27.5927
345 2 2.2208 5.29803 12.4345 5.24239
346 1 -1.1104 0.945444 11.2485 0.862904
350 2 2.2208 5.41697 9.73823 2.15005
351 1 -1.1104 1.03223 11.0486 3.61813
353 2 2.2208 2.39955 12.5158 2.23328
354 2 2.2208 2.25505 9.76148 4.91002
355 1 -1.1104 3.95567 11.1483 0.740623
356 1 -1.1104 3.56643 11.0075 6.29926
357 1 -1.1104 3.67757 10.8663 3.51248
358 2 2.2208 5.04502 18.0233 5.33118
359 1 -1.1104 1.03383 14.0108 0.894616
361 1 -1.1104 1.12192 19.4189 0.849025
365 1 -1.1104 0.978587 13.9592 3.72201
366 1 -1.1104 1.22144 19.4449 3.67658
369 1 -1.1104 1.02548 16.7014 0.906381
372 2 2.2208 5.195 15.3198 2.50449
373 2 2.2208 5.01656 20.8554 2.22366
374 1 -1.1104 0.977487 16.8766 3.78317
376 1 -1.1104 3.80746 13.9532 0.936654
378 1 -1.1104 3.85857 19.5287 0.92702
380 2 2.2208 2.41764 17.9466 2.42606
381 1 -1.1104 3.76323 13.6807 3.89474
382 1 -1.1104 4.12439 19.2694 3.661
383 2 2.2208 2.31071 15.1864 5.22451
384 2 2.2208 2.40442 20.8828 5.30282
385 1 -1.1104 3.76425 16.6894 0.957079
387 1 -1.1104 3.73417 16.4382 3.7976
377 1 -1.1104 3.91065 13.9098 6.65307
375 1 -1.1104 6.45468 16.8717 3.74796
352 1 -1.1104 6.65237 10.9841 3.66434
371 1 -1.1104 6.44752 16.5218 6.46949
363 1 -1.1104 6.68193 14.0191 6.71759
379 1 -1.1104 3.60463 19.2901 6.49754
347 1 -1.1104 0.882999 10.8282 6.48851
370 1 -1.1104 0.905975 16.6673 6.4985
364 1 -1.1104 6.31566 19.1624 6.66916
386 1 -1.1104 3.66989 16.6292 6.72534
368 2 2.2208 -0.433839 18.1735 5.1136
391 2 2.2208 -0.267625 20.8484 2.21659
348 1 -1.1104 6.69418 11.281 0.870688
367 1 -1.1104 6.72912 13.8625 3.79912
491 2 2.2208 13.6923 9.64633 5.14912
427 2 2.2208 13.6015 18.2987 2.39216
362 1 -1.1104 6.63316 14.0205 1.00758
402 1 -1.1104 6.6963 19.6551 1.25258
392 2 2.2208 10.8806 12.5941 5.13621
393 1 -1.1104 12.3511 11.2558 0.945404
395 2 2.2208 10.9303 9.70957 2.35887
396 1 -1.1104 12.203 11.169 3.81094
397 2 2.2208 7.98286 12.5349 2.32047
398 2 2.2208 8.05087 9.68085 5.1322
399 1 -1.1104 9.36221 10.9745 0.936734
401 1 -1.1104 9.54189 11.1224 3.56455
403 1 -1.1104 6.49755 16.8449 0.890441
404 2 2.2208 10.7575 18.0744 5.22298
405 1 -1.1104 12.226 13.9326 0.95863
407 1 -1.1104 12.2205 19.7619 0.962508
409 1 -1.1104 12.3563 13.9719 3.74336
410 1 -1.1104 12.0411 19.5197 3.79177
411 1 -1.1104 12.4058 16.8724 0.982776
413 2 2.2208 10.7963 15.2356 2.38227
414 2 2.2208 10.7918 20.954 2.48957
415 1 -1.1104 12.273 16.7651 3.77581
416 1 -1.1104 9.4187 13.9921 0.868903
418 1 -1.1104 9.48914 19.3985 0.815354
420 2 2.2208 8.00451 18.1059 2.28169
421 1 -1.1104 9.53492 13.9048 3.71523
422 1 -1.1104 9.25691 19.4307 3.59436
423 2 2.2208 7.98609 15.2662 5.24463
424 1 -1.1104 9.47912 16.6934 0.989169
426 1 -1.1104 9.3145 16.7306 3.64151
408 1 -1.1104 12.3652 19.4473 6.55947
400 1 -1.1104 9.55432 11.0953 6.46612
417 1 -1.1104 9.39914 13.9133 6.46764
425 1 -1.1104 9.37052 16.5528 6.61272
394 1 -1.1104 12.3562 11.1651 6.64962
412 1 -1.1104 12.1345 16.74 6.60565
349 1 -1.1104 6.71555 11.0706 6.395
406 1 -1.1104 12.109 13.9464 6.51266
492 2 2.2208 13.6521 15.403 5.22955
9285 2 2.2208 13.7319 12.5111 2.30815
495 2 2.2208 13.6642 9.83674 10.6878
494 2 2.2208 13.6633 12.4623 7.99259
445 1 -1.1104 0.895055 19.5101 6.59473
360 1 -1.1104 1.09249 13.6849 6.44238
498 2 2.2208 5.14381 20.926 13.6501
449 1 -1.1104 6.56249 16.6886 12.3338
9274 2 2.2208 -0.380079 12.5345 5.17135
558 2 2.2208 2.41895 12.5286 13.6042
429 1 -1.1104 3.83745 19.4094 12.0743
430 1 -1.1104 3.84798 13.7858 11.9833
434 1 -1.1104 1.06509 19.4414 9.49722
435 1 -1.1104 1.15904 16.6685 9.37736
436 2 2.2208 5.29442 20.9976 8.14264
437 1 -1.1104 1.12166 13.8941 9.44507
438 2 2.2208 5.1445 15.2624 8.06041
441 1 -1.1104 1.06245 19.5428 12.1984
442 1 -1.1104 0.936104 13.9764 12.1868
443 2 2.2208 5.26353 18.0793 10.8308
444 1 -1.1104 3.80947 19.5375 9.33004
446 2 2.2208 2.4583 18.088 8.00469
447 1 -1.1104 3.90161 16.5484 9.56944
448 1 -1.1104 3.7747 13.6529 9.29786
450 1 -1.1104 1.09827 16.7145 12.278
451 1 -1.1104 3.93365 16.6068 12.3401
452 2 2.2208 2.3256 20.8882 10.8465
453 2 2.2208 5.20223 12.3489 10.7724
454 1 -1.1104 1.06851 11.1897 12.135
456 2 2.2208 2.53781 15.292 10.8739
457 1 -1.1104 1.00881 11.1007 9.44207
459 2 2.2208 2.44278 12.2611 7.86483
460 2 2.2208 2.37459 9.77868 10.7881
461 1 -1.1104 3.77732 10.9823 12.2982
462 1 -1.1104 3.77531 10.6782 9.33162
440 1 -1.1104 6.7164 13.8177 12.1417
9272 2 2.2208 -0.375515 15.2681 2.39929
432 1 -1.1104 6.56524 16.6859 9.25842
433 1 -1.1104 6.58851 14.0154 9.56523
557 2 2.2208 5.14085 9.62277 13.5409
499 2 2.2208 5.22814 15.1777 13.5814
472 2 2.2208 7.95016 18.1258 7.96588
502 2 2.2208 8.05617 18.2448 13.5483
473 1 -1.1104 9.5134 19.6083 12.1904
486 1 -1.1104 12.2907 19.5395 12.2487
487 1 -1.1104 12.3528 13.7815 12.1897
439 1 -1.1104 6.52357 19.4256 12.2744
431 1 -1.1104 6.62738 19.4651 9.68018
455 1 -1.1104 6.56262 10.8873 12.2358
474 1 -1.1104 9.43544 13.9281 12.1594
481 1 -1.1104 12.2859 19.4762 9.30916
475 1 -1.1104 12.3237 16.6429 9.36703
419 1 -1.1104 9.4571 19.3382 6.7054
482 1 -1.1104 12.2763 13.9349 9.30646
467 1 -1.1104 9.39507 16.8455 12.0898
489 2 2.2208 13.6297 18.0617 8.07268
483 2 2.2208 7.99731 9.66307 10.6086
484 2 2.2208 7.98793 12.3998 8.02881
480 1 -1.1104 9.24475 11.2167 11.9618
504 2 2.2208 10.8222 9.68672 13.5069
388 1 -1.1104 12.1705 11.1755 9.41849
488 2 2.2208 10.8809 18.1071 10.6196
390 1 -1.1104 12.0721 11.0389 12.0428
466 1 -1.1104 9.43122 16.696 9.36299
501 2 2.2208 10.8614 15.2443 13.5206
463 2 2.2208 10.7299 12.5707 10.687
458 1 -1.1104 6.63697 11.2336 9.57454
476 2 2.2208 10.6991 21.0648 7.98634
389 2 2.2208 10.9377 9.73576 7.9062
471 1 -1.1104 9.52862 13.9431 9.25192
469 2 2.2208 7.99921 15.4319 10.7606
470 1 -1.1104 9.29458 19.6366 9.45372
479 1 -1.1104 12.1895 16.7131 12.0282
468 2 2.2208 8.02172 20.8916 10.8548
478 2 2.2208 10.8359 15.3393 7.98734
477 1 -1.1104 9.43061 10.9794 9.28362
9278 2 2.2208 13.6758 20.7786 5.24092
500 2 2.2208 10.8759 20.9063 13.7021
9332 2 2.2208 -0.449589 17.9558 -0.403935
428 2 2.2208 8.10081 20.9426 -0.354665
509 2 2.2208 5.26174 12.435 16.3891
510 1 -1.1104 1.14617 11.2093 17.6467
512 2 2.2208 5.17995 9.59272 19.0988
513 1 -1.1104 0.914015 11.0725 14.9039
517 2 2.2208 2.39455 12.4248 19.1554
518 2 2.2208 2.30045 9.6085 16.287
519 1 -1.1104 3.94413 11.1521 17.7423
520 1 -1.1104 3.75568 10.9566 14.9918
522 2 2.2208 5.17105 18.0022 16.4157
523 1 -1.1104 1.00014 13.8753 17.7874
524 1 -1.1104 0.891109 19.4768 17.7164
527 1 -1.1104 1.05116 13.9286 14.9502
529 1 -1.1104 1.05439 19.5994 14.8945
535 1 -1.1104 0.967152 16.8532 17.885
537 2 2.2208 5.3184 15.2455 19.1083
538 2 2.2208 5.19827 20.9441 19.2772
539 1 -1.1104 1.02069 16.7122 14.9862
543 1 -1.1104 3.85962 13.8649 17.7033
544 1 -1.1104 3.89009 19.4934 17.8466
545 2 2.2208 2.41619 18.198 19.1535
546 1 -1.1104 3.84802 13.8921 14.8056
548 1 -1.1104 3.71131 19.461 14.9716
550 2 2.2208 2.47004 15.3032 16.3465
551 2 2.2208 2.47682 20.842 16.5098
552 1 -1.1104 3.88125 16.7715 17.7454
553 1 -1.1104 3.76959 16.7118 15.0429
540 1 -1.1104 1.05877 16.844 20.6688
526 1 -1.1104 6.64039 19.3836 17.7755
549 1 -1.1104 3.87865 19.4188 20.6285
531 1 -1.1104 6.6587 13.8441 14.9265
541 1 -1.1104 6.55821 16.6513 15.1852
521 1 -1.1104 3.85871 11.0439 20.4343
554 1 -1.1104 3.82197 16.7015 20.5158
516 1 -1.1104 6.63933 11.1061 20.5344
511 1 -1.1104 6.67766 11.1309 17.7432
534 1 -1.1104 6.61849 19.4664 20.6016
533 1 -1.1104 6.64759 19.5209 15.066
525 1 -1.1104 6.66926 13.9005 17.7592
536 1 -1.1104 6.5955 16.5627 17.886
528 1 -1.1104 1.01365 14.0849 20.6334
542 1 -1.1104 6.70357 16.6018 20.5543
530 1 -1.1104 1.136 19.5835 20.5481
490 2 2.2208 10.8672 12.5338 27.5925
515 1 -1.1104 6.60851 10.9442 14.886
654 1 -1.1104 9.49177 14.0006 23.2703
641 2 2.2208 13.6892 18.0513 19.2128
576 1 -1.1104 12.1992 19.4823 20.7118
560 2 2.2208 10.7514 12.4753 16.3939
561 1 -1.1104 12.2167 11.082 17.7736
562 2 2.2208 10.8369 9.71647 19.1607
563 1 -1.1104 12.1038 10.9972 14.8955
565 2 2.2208 8.03383 12.5077 19.0973
566 2 2.2208 7.98046 9.59645 16.3098
567 1 -1.1104 9.37883 11.0752 17.7921
568 1 -1.1104 9.35297 11.0747 14.955
570 2 2.2208 10.7906 18.1436 16.2637
571 1 -1.1104 12.2958 13.8809 17.8458
572 1 -1.1104 12.2641 19.6314 17.8038
573 1 -1.1104 12.0808 13.872 14.9751
575 1 -1.1104 12.2543 19.4638 14.9998
577 1 -1.1104 12.2421 16.6935 17.7305
578 2 2.2208 10.7134 15.3392 19.1926
579 2 2.2208 10.9325 20.8926 19.2434
580 1 -1.1104 12.2743 16.6612 14.9531
582 1 -1.1104 9.40335 13.9277 17.7145
583 1 -1.1104 9.45941 19.5617 17.7448
584 2 2.2208 8.05961 18.0844 19.2111
585 1 -1.1104 9.45422 13.873 14.9531
587 1 -1.1104 9.43908 19.5165 14.9374
589 2 2.2208 8.08578 15.2185 16.3686
590 2 2.2208 7.98535 20.9953 16.4075
591 1 -1.1104 9.42824 16.6029 17.8569
592 1 -1.1104 9.46453 16.6777 14.9896
574 1 -1.1104 12.2172 13.9039 20.6119
597 2 2.2208 13.5703 15.2808 16.3102
569 1 -1.1104 9.48937 11.0701 20.5903
598 2 2.2208 13.7047 12.5265 19.197
593 1 -1.1104 9.43811 16.8503 20.643
505 2 2.2208 13.5708 12.4827 13.5658
556 2 2.2208 -0.350107 20.9678 13.6393
547 1 -1.1104 3.91021 13.8262 20.5544
655 1 -1.1104 12.2971 16.7065 26.1493
637 2 2.2208 5.23123 12.6254 27.5534
532 1 -1.1104 6.68257 13.8219 20.5369
642 2 2.2208 -0.39905 18.1024 22.0102
514 1 -1.1104 1.19568 11.3269 20.7055
600 1 -1.1104 3.74911 19.3997 23.4093
602 1 -1.1104 3.92968 13.8981 23.3379
604 1 -1.1104 0.941129 19.3336 26.1429
605 1 -1.1104 0.865876 16.6275 26.1921
606 1 -1.1104 1.0127 13.9937 26.1458
608 2 2.2208 5.28298 20.9579 25.0038
609 2 2.2208 5.26826 15.3367 24.7785
611 1 -1.1104 0.932019 19.6057 23.381
612 1 -1.1104 0.933206 13.9601 23.3308
613 2 2.2208 5.24138 18.1058 21.9708
614 1 -1.1104 3.74756 19.4582 26.2239
615 2 2.2208 2.30884 18.0343 24.7639
616 1 -1.1104 3.74072 16.7143 26.2449
617 1 -1.1104 3.82043 13.9507 26.0413
619 1 -1.1104 0.99654 16.7939 23.3279
620 1 -1.1104 3.78096 16.5553 23.3961
621 2 2.2208 2.41022 20.8481 21.9836
622 2 2.2208 5.20692 12.4355 21.7886
623 1 -1.1104 1.09953 11.1342 23.3995
625 2 2.2208 2.4463 15.2853 21.9426
626 2 2.2208 5.08726 9.69098 24.6985
627 1 -1.1104 1.05377 11.1343 26.2599
629 2 2.2208 2.48424 12.4904 24.6884
630 2 2.2208 2.3161 9.6914 21.8342
631 1 -1.1104 3.88996 11.154 23.2754
632 1 -1.1104 3.84647 11.1374 26.0517
633 2 2.2208 2.2223 20.7429 27.5314
507 2 2.2208 5.16604 18.0052 27.466
601 1 -1.1104 6.56113 14.0383 26.2065
624 1 -1.1104 6.55218 11.1209 23.3754
651 1 -1.1104 6.52572 19.5619 26.3964
607 1 -1.1104 6.57522 19.4789 23.5743
9393 2 2.2208 -0.344092 12.5344 21.8803
643 2 2.2208 -0.240328 9.80861 24.8272
650 1 -1.1104 9.35669 14.0119 26.0357
508 2 2.2208 2.4198 9.58297 27.5301
635 2 2.2208 2.46592 15.2985 27.5806
656 1 -1.1104 9.51908 11.1802 26.1404
636 2 2.2208 10.8966 18.115 27.4765
667 2 2.2208 10.9167 18.155 22.063
652 2 2.2208 8.05593 18.244 24.9378
581 1 -1.1104 12.1833 16.7571 20.6673
588 1 -1.1104 9.4609 19.6327 20.689
564 1 -1.1104 12.3579 11.0581 20.4462
653 1 -1.1104 9.43964 19.4761 23.4371
9429 2 2.2208 -0.387116 21.0022 19.2623
628 1 -1.1104 6.66362 11.1257 26.2547
664 2 2.2208 7.91596 12.5627 24.8
555 2 2.2208 13.6298 20.8148 22.239
603 1 -1.1104 6.68458 16.7871 26.1758
610 1 -1.1104 6.65446 14.014 23.3889
618 1 -1.1104 6.60206 16.8488 23.5308
640 2 2.2208 13.6225 15.1929 22.0297
586 1 -1.1104 9.47439 13.9625 20.5823
663 2 2.2208 8.06315 9.74911 21.9
662 1 -1.1104 9.43397 11.1417 23.3264
657 2 2.2208 10.9773 20.8312 24.8505
660 1 -1.1104 12.3312 19.5451 26.2885
661 1 -1.1104 12.2136 13.919 26.3176
644 2 2.2208 8.03027 9.71041 27.4942
666 1 -1.1104 12.2923 13.886 23.5189
668 2 2.2208 10.8415 12.5042 21.8939
669 1 -1.1104 12.2068 11.162 23.4349
670 2 2.2208 10.827 9.61808 24.6902
671 1 -1.1104 12.1914 11.0753 26.1828
658 2 2.2208 10.8871 15.2663 24.8027
649 1 -1.1104 9.43004 19.6187 26.1084
648 2 2.2208 7.9969 15.334 22.096
647 2 2.2208 8.03491 20.8249 22.0106
646 1 -1.1104 9.33876 16.8338 23.4907
645 1 -1.1104 9.49783 16.7197 26.3023
665 1 -1.1104 12.2539 19.3777 23.5978
659 1 -1.1104 12.3188 16.6338 23.5208
596 2 2.2208 8.00766 15.3839 27.5747
9331 2 2.2208 13.5322 9.66512 27.5222
497 2 2.2208 2.34786 18.0474 13.5835
506 2 2.2208 7.95503 12.3744 13.5578
9276 2 2.2208 13.6101 15.2658 27.5774
673 2 2.2208 5.18618 23.7784 5.34855
674 2 2.2208 5.09362 29.3056 5.35479
675 1 -1.1104 0.982371 25.0213 0.80967
676 1 -1.1104 1.0102 25.0984 3.6505
677 1 -1.1104 0.875423 22.2476 0.95928
678 1 -1.1104 1.00149 27.9784 0.898883
679 2 2.2208 5.19791 26.389 2.43995
680 1 -1.1104 1.1668 22.2621 3.78701
681 1 -1.1104 0.94989 27.8724 3.88332
683 1 -1.1104 3.88077 25.0393 1.02307
684 2 2.2208 2.48818 23.6796 2.23085
685 2 2.2208 2.39167 29.3431 2.48305
686 1 -1.1104 3.81534 24.9964 3.75079
687 2 2.2208 2.28978 26.4435 5.24373
688 1 -1.1104 3.70685 22.2916 1.00318
689 1 -1.1104 3.69865 27.9102 1.05144
690 1 -1.1104 4.28421 22.3129 3.78804
691 1 -1.1104 3.79492 27.7856 3.90805
692 1 -1.1104 0.904891 30.7967 0.938485
693 1 -1.1104 0.986857 30.7667 3.7408
694 1 -1.1104 1.01415 33.5406 1.07978
695 2 2.2208 5.19215 32.1334 2.37673
696 1 -1.1104 0.972404 33.5846 3.91934
698 1 -1.1104 3.84572 30.7215 1.05717
699 1 -1.1104 3.71265 30.7036 3.93428
700 2 2.2208 2.30728 32.1567 5.2378
701 1 -1.1104 3.87845 33.5905 0.97637
702 1 -1.1104 3.82863 33.5284 3.71476
758 1 -1.1104 3.64677 30.7619 6.60431
752 1 -1.1104 3.87191 22.2735 6.67636
746 1 -1.1104 6.69376 25.1106 6.59245
748 1 -1.1104 0.79153 27.8672 6.53997
754 1 -1.1104 0.941882 30.7659 6.5735
708 1 -1.1104 6.52944 22.2774 1.33512
759 1 -1.1104 3.74212 33.5247 6.51289
842 2 2.2208 5.21032 29.2575 -0.389658
709 1 -1.1104 6.64154 27.9176 0.990954
697 1 -1.1104 6.57825 33.6221 3.86569
750 1 -1.1104 6.65971 28.0055 6.6388
745 1 -1.1104 1.06178 25.0863 6.73213
749 1 -1.1104 6.59311 22.3618 6.57551
756 1 -1.1104 0.998733 33.5367 6.66654
706 1 -1.1104 6.5343 25.0297 1.05323
707 1 -1.1104 6.60534 25.077 3.83562
730 1 -1.1104 6.47658 30.6721 4.02196
731 1 -1.1104 6.60312 33.5867 1.03403
710 1 -1.1104 6.66423 27.8414 3.72651
729 1 -1.1104 6.53034 30.921 0.942581
711 2 2.2208 10.6905 23.6255 5.17266
712 2 2.2208 10.9605 29.2117 5.12462
713 1 -1.1104 12.2345 25.1248 1.05833
714 1 -1.1104 12.2676 25.2311 3.74054
715 1 -1.1104 12.1309 22.4979 1.06997
716 1 -1.1104 12.3016 27.9184 1.03542
717 2 2.2208 10.7898 26.5847 2.39179
718 1 -1.1104 12.1717 22.259 3.89767
719 1 -1.1104 12.1997 27.9557 3.67572
720 1 -1.1104 9.41275 25.2262 1.01151
721 2 2.2208 8.05715 23.7148 2.35935
722 2 2.2208 8.01659 29.4202 2.42823
723 1 -1.1104 9.34232 25.2809 3.7041
724 2 2.2208 7.94114 26.5962 5.04399
725 1 -1.1104 9.2797 22.4381 0.801433
726 1 -1.1104 9.57567 28.0743 1.06273
727 1 -1.1104 9.45429 22.5051 3.58654
728 1 -1.1104 9.48436 28.0064 3.7665
732 1 -1.1104 12.2315 30.6792 1.13776
733 1 -1.1104 12.128 30.713 3.86216
734 1 -1.1104 12.2603 33.6131 1.00917
735 2 2.2208 10.7642 32.2805 2.33476
736 1 -1.1104 12.1287 33.5994 3.78123
737 1 -1.1104 9.3115 30.9047 0.968532
738 1 -1.1104 9.43258 30.8903 3.62687
739 2 2.2208 8.10963 32.1628 5.26976
740 1 -1.1104 9.43252 33.6804 1.05744
741 1 -1.1104 9.24737 33.5156 3.81988
804 1 -1.1104 9.33784 30.7782 6.37679
803 1 -1.1104 12.2808 33.5338 6.58549
805 1 -1.1104 9.48878 33.6325 6.64789
797 1 -1.1104 12.3203 22.3183 6.79889
801 1 -1.1104 9.51815 27.9664 6.36958
744 2 2.2208 13.7379 26.4541 5.19528
796 1 -1.1104 12.1845 25.0735 6.60289
802 1 -1.1104 12.1884 30.6999 6.48596
838 2 2.2208 8.03139 23.6475 13.5112
812 2 2.2208 10.8567 26.5347 7.88023
817 2 2.2208 8.28705 29.2017 7.86
843 2 2.2208 7.99873 32.2425 -0.440821
9544 2 2.2208 -0.326275 29.4116 10.7201
837 2 2.2208 13.5678 29.3437 13.6423
753 1 -1.1104 3.78558 27.8945 6.70826
840 2 2.2208 -0.444041 32.0802 8.05135
834 2 2.2208 5.22563 32.1585 13.5782
751 1 -1.1104 3.75857 25.1976 6.62227
747 1 -1.1104 1.14906 22.3476 6.68935
760 2 2.2208 5.20833 23.6631 10.7506
761 2 2.2208 5.14281 29.2926 11.0817
762 1 -1.1104 1.08274 25.0925 12.2777
764 1 -1.1104 1.14859 25.0937 9.45941
766 1 -1.1104 0.861542 22.2729 12.3707
767 1 -1.1104 1.01711 27.9817 12.2201
770 2 2.2208 5.23004 26.573 8.09793
771 1 -1.1104 0.889452 22.2925 9.42734
772 1 -1.1104 1.03237 27.7622 9.38219
775 1 -1.1104 3.68852 25.095 12.1612
776 2 2.2208 2.40329 23.7158 8.04976
777 2 2.2208 2.26769 29.2471 7.98593
778 1 -1.1104 3.99468 25.1109 9.35624
779 2 2.2208 2.40718 26.5434 10.889
780 1 -1.1104 3.8739 22.2848 12.0337
781 1 -1.1104 3.65248 27.9621 12.2505
782 1 -1.1104 3.76722 22.2891 9.45623
783 1 -1.1104 3.81208 28.0276 9.54283