ITEM: TIMESTEP
60000
ITEM: NUMBER OF ATOMS
17820
ITEM: BOX BOUNDS pp pp pp
-3.6551144540052632e-01 2.7705511445401036e+01
-4.2877626435660057e+00 3.3236776264356104e+02
-3.6796778102812833e-01 2.7707967781028220e+01
ITEM: ATOMS id type q x y z
1 2 2.2208 5.29258 1.36399 5.26857
2 1 -1.1104 1.02286 -2.95703 1.14209
3 1 -1.1104 1.03425 2.77764 0.970704
6 1 -1.1104 1.1709 -2.98241 3.80777
7 1 -1.1104 1.22732 2.66314 3.69868
10 1 -1.1104 0.984786 -0.114118 1.05462
12 2 2.2208 5.09374 -1.6241 2.37575
13 2 2.2208 5.29406 3.94249 2.33561
14 1 -1.1104 0.826612 -0.158795 3.8307
16 1 -1.1104 3.75406 -3.0564 0.852776
17 1 -1.1104 3.78998 2.56171 0.96346
18 2 2.2208 2.31207 1.30741 2.37443
19 1 -1.1104 3.78305 -3.05366 3.74567
20 1 -1.1104 3.93488 2.62222 3.86587
21 2 2.2208 2.42067 -1.5936 5.22537
22 2 2.2208 2.51931 3.9736 5.11897
23 1 -1.1104 3.7752 -0.282483 1.08057
24 1 -1.1104 3.71048 -0.199558 3.70241
25 2 2.2208 5.3043 6.82944 5.01284
26 1 -1.1104 0.892038 8.32353 0.966044
28 1 -1.1104 1.15289 8.26601 3.84484
30 1 -1.1104 1.034 5.52232 0.995902
32 1 -1.1104 1.11341 5.51719 3.75949
34 1 -1.1104 3.87514 8.1121 0.890175
35 2 2.2208 2.36007 6.78937 2.30657
36 1 -1.1104 3.83226 8.19738 3.81801
37 1 -1.1104 3.84805 5.29217 0.975041
38 1 -1.1104 3.83264 5.44573 3.72995
8798 2 2.2208 -0.358528 -1.44711 8.11867
103 1 -1.1104 6.69966 -0.58972 12.2067
39 2 2.2208 13.6088 6.85568 7.89154
93 1 -1.1104 3.92232 5.71223 6.53667
81 1 -1.1104 1.08969 2.7485 6.61161
91 1 -1.1104 1.10681 5.4023 6.41872
80 1 -1.1104 1.06269 -3.01785 6.63732
86 1 -1.1104 3.89392 -2.92739 6.3883
5 1 -1.1104 6.66592 2.55726 0.871508
84 1 -1.1104 1.13191 -0.0990783 6.63148
8958 2 2.2208 -0.297481 -4.37278 5.32756
8851 2 2.2208 13.7538 4.1783 10.8152
169 2 2.2208 5.12409 -1.45062 13.7851
8947 2 2.2208 -0.1898 6.99137 5.23256
11 1 -1.1104 6.64828 -0.305465 0.876824
29 1 -1.1104 6.69036 8.24001 3.62811
92 1 -1.1104 6.73963 5.47388 6.59211
27 1 -1.1104 6.6553 8.3005 1.0028
90 1 -1.1104 6.6223 8.07388 6.4051
15 1 -1.1104 6.56809 -0.14708 3.82616
31 1 -1.1104 6.58041 5.31104 0.981921
8 1 -1.1104 6.60294 -2.92395 4.02407
4 1 -1.1104 6.59495 -2.92805 1.0151
33 1 -1.1104 6.79407 5.4029 3.70247
9 1 -1.1104 6.62804 2.64227 3.7891
67 1 -1.1104 12.3707 8.19474 3.75053
46 2 2.2208 10.9441 1.27038 5.17554
47 1 -1.1104 12.3783 -2.86726 1.00946
48 1 -1.1104 12.4287 2.68019 0.928077
49 1 -1.1104 12.2394 -2.89183 3.8458
50 1 -1.1104 12.2924 2.62436 3.78822
51 1 -1.1104 12.3792 -0.0310233 1.03874
52 2 2.2208 10.9008 -1.64875 2.48612
53 2 2.2208 10.9307 4.15328 2.30493
54 1 -1.1104 12.2476 -0.210644 3.78815
55 1 -1.1104 9.48989 -2.87844 1.07815
56 1 -1.1104 9.42264 2.79832 0.978596
57 2 2.2208 7.97898 1.22884 2.46245
58 1 -1.1104 9.3975 -2.92242 3.82048
59 1 -1.1104 9.55079 2.76758 3.78611
60 2 2.2208 8.13828 -1.59131 5.19981
61 2 2.2208 8.14124 4.08702 5.02986
62 1 -1.1104 9.55716 -0.0227451 1.17112
63 1 -1.1104 9.43067 -0.0912026 3.91636
65 2 2.2208 10.8777 6.83512 5.24462
68 1 -1.1104 12.0963 5.43558 0.87147
69 1 -1.1104 12.6174 5.35973 3.6995
70 1 -1.1104 9.41549 8.33069 1.0504
71 2 2.2208 8.01863 6.89666 2.2736
72 1 -1.1104 9.46159 8.3441 3.72646
73 1 -1.1104 9.38301 5.49952 0.834984
74 1 -1.1104 9.65317 5.62111 3.5452
66 1 -1.1104 12.2277 8.31863 0.971266
140 1 -1.1104 9.44441 2.58964 6.44875
141 1 -1.1104 9.43915 -0.097856 6.6884
146 1 -1.1104 9.54528 5.3784 6.4497
138 1 -1.1104 12.3208 -0.0131531 6.49651
82 1 -1.1104 6.5534 -3.04756 6.68866
136 1 -1.1104 12.2403 -2.99519 6.68156
144 1 -1.1104 9.36702 8.27478 6.55656
139 1 -1.1104 9.40088 -2.93591 6.44672
85 1 -1.1104 6.61338 0.011728 6.73883
164 2 2.2208 13.6904 1.28047 13.6594
142 1 -1.1104 12.1669 8.23297 6.66264
101 1 -1.1104 6.64453 2.66401 9.38569
8948 2 2.2208 -0.349374 -1.5884 2.48547
128 1 -1.1104 12.2407 5.49869 9.31031
156 1 -1.1104 12.2569 -0.145816 12.1956
8810 2 2.2208 13.7309 4.03516 5.19348
165 2 2.2208 10.8199 1.26866 -0.320142
87 1 -1.1104 3.80432 2.76827 6.66449
89 1 -1.1104 1.46318 8.24119 6.60275
8951 2 2.2208 13.814 7.01483 13.5885
167 2 2.2208 10.9227 -1.47094 13.6343
121 1 -1.1104 6.48346 8.12606 9.67784
88 1 -1.1104 3.97511 -0.0438185 6.62307
94 2 2.2208 5.27272 1.16823 10.8425
95 1 -1.1104 1.12655 -3.09492 12.2522
96 1 -1.1104 0.968479 2.48493 12.2601
98 1 -1.1104 1.21544 -2.9646 9.39935
99 1 -1.1104 1.15953 2.49877 9.41223
102 1 -1.1104 1.0029 -0.26718 12.34
104 2 2.2208 5.30513 -1.54822 8.04278
105 2 2.2208 5.17842 4.20923 7.97022
106 1 -1.1104 1.14413 -0.1926 9.45539
108 1 -1.1104 4.05005 -2.97747 12.171
109 1 -1.1104 3.95981 2.56075 12.099
110 2 2.2208 2.47764 1.32236 7.99899
111 1 -1.1104 4.07518 -3.0285 9.3048
112 1 -1.1104 3.89075 2.6988 9.34796
113 2 2.2208 2.55966 -1.77175 10.7447
114 2 2.2208 2.54614 4.05296 10.7568
115 1 -1.1104 3.88126 -0.263296 12.2222
116 1 -1.1104 3.83954 -0.23591 9.46812
117 2 2.2208 5.3181 6.72764 10.9007
118 1 -1.1104 1.03975 8.19048 12.2331
120 1 -1.1104 1.55107 8.21183 9.44546
122 1 -1.1104 1.25291 5.30908 12.2128
124 1 -1.1104 1.07972 5.2088 9.49062
126 1 -1.1104 3.9665 8.39937 11.8166
127 2 2.2208 2.35538 6.71505 8.03399
129 1 -1.1104 3.92458 5.35923 12.1606
130 1 -1.1104 3.91856 5.65721 9.40662
119 1 -1.1104 6.61209 8.07945 12.4012
163 2 2.2208 2.55152 6.73218 13.6475
97 1 -1.1104 6.77114 2.42779 12.1626
135 2 2.2208 7.96761 1.37475 7.92419
233 2 2.2208 2.36527 1.2488 13.6648
157 2 2.2208 10.8183 -1.45638 7.90959
148 1 -1.1104 9.28984 8.21937 9.35013
134 1 -1.1104 9.4287 -2.79592 9.1795
344 2 2.2208 -0.37281 -1.66385 13.6547
152 1 -1.1104 12.3279 -2.94697 12.3068
137 1 -1.1104 12.3349 2.64678 6.62806
143 1 -1.1104 12.179 5.38867 6.55547
83 1 -1.1104 6.64117 2.82469 6.62828
123 1 -1.1104 6.72229 5.34444 12.1749
100 1 -1.1104 6.74112 -2.93449 9.54559
125 1 -1.1104 6.64291 5.35963 9.38728
147 1 -1.1104 9.54489 5.42724 12.408
107 1 -1.1104 6.70101 -0.0922727 9.49673
79 1 -1.1104 9.38766 2.63103 9.20896
153 1 -1.1104 12.4584 2.53452 12.2312
154 1 -1.1104 12.1372 -2.78301 9.44755
159 1 -1.1104 12.2592 -0.0978555 9.43109
132 1 -1.1104 12.1651 8.24024 9.52117
151 2 2.2208 10.9042 1.28251 10.7274
150 1 -1.1104 9.59668 2.62439 12.1964
149 2 2.2208 7.91417 6.89148 7.9449
133 1 -1.1104 12.332 8.20167 12.1648
64 2 2.2208 8.24696 3.94427 10.778
44 1 -1.1104 9.54392 0.0714533 12.205
160 1 -1.1104 9.48659 -2.61612 12.0784
155 1 -1.1104 12.202 2.76959 9.47802
145 1 -1.1104 9.31354 5.41211 9.3037
78 2 2.2208 8.12867 -1.4151 10.6781
158 2 2.2208 10.8613 4.0324 7.81117
40 2 2.2208 10.7561 6.68111 10.7549
45 1 -1.1104 9.44338 8.22042 12.1541
43 1 -1.1104 9.51345 -0.130076 9.44271
131 1 -1.1104 12.201 5.31124 12.1938
8913 2 2.2208 -0.228944 6.78806 10.8502
343 2 2.2208 8.0042 3.96251 -0.429115
342 2 2.2208 8.17785 1.19514 13.5479
331 2 2.2208 10.7659 6.84547 -0.612205
234 2 2.2208 5.3383 3.93314 13.5307
172 2 2.2208 5.31828 1.23817 16.5305
173 1 -1.1104 1.0132 -3.01551 17.7539
174 1 -1.1104 1.0898 2.77328 17.893
177 1 -1.1104 1.03564 -3.00141 15.0565
179 1 -1.1104 1.10955 2.6364 15.0387
184 1 -1.1104 1.18662 -0.0451536 17.7601
186 2 2.2208 5.22752 -1.73354 19.2294
187 2 2.2208 5.32754 4.08283 19.2259
188 1 -1.1104 1.10992 -0.139655 15.0814
192 1 -1.1104 3.72892 -2.96179 17.654
193 1 -1.1104 3.9498 2.61812 17.8557
194 2 2.2208 2.5615 1.27139 19.2758
195 1 -1.1104 4.07756 -2.9111 14.9145
197 1 -1.1104 3.86637 2.54472 15.1013
199 2 2.2208 2.39211 -1.49525 16.3918
200 2 2.2208 2.57253 3.95394 16.4844
201 1 -1.1104 4.02519 -0.188412 17.8825
202 1 -1.1104 3.82201 -0.110345 15.0669
204 2 2.2208 5.28485 6.74736 16.4696
205 1 -1.1104 1.31015 8.18421 17.6365
207 1 -1.1104 1.12326 8.2714 14.9454
211 1 -1.1104 1.03597 5.40837 17.9124
213 1 -1.1104 1.10746 5.44673 15.0663
218 2 2.2208 2.46365 6.89631 19.278
219 1 -1.1104 4.00917 8.09713 14.9031
221 1 -1.1104 3.84808 5.36364 17.8443
222 1 -1.1104 3.89105 5.32876 14.9981
217 1 -1.1104 3.95793 8.24253 17.7511
230 2 2.2208 -0.128464 6.79745 16.458
198 1 -1.1104 3.94461 2.59101 20.6157
210 1 -1.1104 6.71415 8.36803 20.6697
9008 2 2.2208 13.6798 4.04019 16.4817
189 1 -1.1104 1.12102 -0.00496561 20.6984
203 1 -1.1104 3.95421 -0.11195 20.6718
220 1 -1.1104 3.85105 8.31261 20.6277
180 1 -1.1104 1.02817 2.7307 20.6894
196 1 -1.1104 3.93161 -2.98196 20.5592
228 2 2.2208 13.7745 -1.51169 21.9446
176 1 -1.1104 6.67843 2.69643 17.9144
182 1 -1.1104 6.72218 2.49179 14.9026
178 1 -1.1104 1.05612 -2.92653 20.638
231 2 2.2208 -0.352531 4.08295 24.8897
168 2 2.2208 10.8344 4.02758 13.7567
183 1 -1.1104 6.69262 2.69382 20.6169
291 1 -1.1104 6.75095 2.66831 26.1789
274 1 -1.1104 9.47596 -2.96077 26.2682
190 1 -1.1104 6.56084 -0.448681 15.2115
215 1 -1.1104 6.71872 5.3571 15.0454
206 1 -1.1104 6.74446 8.29145 17.9746
209 1 -1.1104 6.87296 8.1231 15.1619
175 1 -1.1104 6.61475 -2.86374 17.4007
191 1 -1.1104 6.71655 -0.214878 20.6106
8775 2 2.2208 2.38528 -4.2981 19.1406
212 1 -1.1104 6.7339 5.44 17.8116
185 1 -1.1104 6.86191 -0.125482 17.9645
261 1 -1.1104 12.3546 8.41075 14.9255
268 1 -1.1104 9.62182 8.21767 15.1187
235 2 2.2208 10.8744 1.3594 16.441
236 1 -1.1104 12.2894 -2.95772 18.0012
237 1 -1.1104 12.1908 2.72327 17.8035
238 1 -1.1104 12.3578 -2.97283 15.1233
240 1 -1.1104 12.2875 2.76239 15.0615
242 1 -1.1104 12.4458 0.0230072 17.79
243 2 2.2208 10.8201 -1.59076 19.1705
244 2 2.2208 10.86 4.04481 19.24
245 1 -1.1104 12.2442 -0.0520446 14.952
247 1 -1.1104 9.37591 -2.79363 17.9372
248 1 -1.1104 9.3925 2.62022 17.7891
249 2 2.2208 8.13835 1.31272 19.2853
250 1 -1.1104 9.56702 -2.71755 15.2884
252 1 -1.1104 9.48311 2.67553 15.0966
254 2 2.2208 8.16145 -1.4121 16.6177
255 2 2.2208 8.05739 4.07854 16.5047
256 1 -1.1104 9.57281 -0.115736 17.8529
257 1 -1.1104 9.37956 0.0509425 15.0716
259 2 2.2208 10.9872 6.94071 16.4646
260 1 -1.1104 12.3095 8.35506 17.6823
263 1 -1.1104 12.2697 5.43605 17.787
264 1 -1.1104 12.4529 5.52727 15.0171
266 1 -1.1104 9.56594 8.27678 17.8905
267 2 2.2208 8.06148 6.95404 19.2493
270 1 -1.1104 9.48234 5.43225 17.9344
271 1 -1.1104 9.54224 5.41977 15.1396
265 1 -1.1104 12.191 5.53359 20.6198
253 1 -1.1104 9.55557 2.62432 20.5244
181 1 -1.1104 6.72683 -3.00401 20.4404
269 1 -1.1104 9.37423 8.26927 20.6329
258 1 -1.1104 9.65703 -0.240221 20.6216
227 2 2.2208 13.5085 1.0959 24.9702
334 1 -1.1104 9.37263 5.32561 26.1605
324 1 -1.1104 12.5538 2.56196 26.3094
272 1 -1.1104 9.4723 5.43924 20.6539
246 1 -1.1104 12.4667 -0.129863 20.5296
239 1 -1.1104 12.3617 -2.92397 20.7521
171 2 2.2208 5.26857 6.80134 27.7131
75 2 2.2208 8.07926 -1.58919 27.722
223 1 -1.1104 3.80713 5.53998 20.6009
216 1 -1.1104 6.55001 5.52515 20.621
9108 2 2.2208 -0.359147 1.28673 16.4116
280 1 -1.1104 9.53677 -3.01619 23.3209
214 1 -1.1104 0.942051 5.33401 20.7201
208 1 -1.1104 1.06242 8.12793 20.9139
283 2 2.2208 5.20132 1.24682 22.1091
284 1 -1.1104 1.1219 -2.93591 23.3708
285 1 -1.1104 0.996745 2.62436 23.6096
288 1 -1.1104 1.05459 -2.92125 26.2521
289 1 -1.1104 1.01773 2.63471 26.3549
292 1 -1.1104 1.12149 -0.0893088 23.4937
294 2 2.2208 5.29305 -1.68105 24.8334
295 2 2.2208 5.17001 4.06688 24.8836
296 1 -1.1104 1.0776 -0.139206 26.3531
298 1 -1.1104 3.86562 -3.00625 23.3613
299 1 -1.1104 3.84479 2.58871 23.4764
300 2 2.2208 2.36233 1.19302 24.8575
301 1 -1.1104 3.80548 -3.01801 26.2325
302 1 -1.1104 3.75749 2.60132 26.2797
303 2 2.2208 2.51614 -1.44499 22.1072
304 2 2.2208 2.41743 4.0012 22.045
305 1 -1.1104 3.93777 -0.141358 23.4853
306 1 -1.1104 4.10048 -0.182708 26.2148
307 2 2.2208 5.21314 6.95866 22.0559
308 1 -1.1104 0.841603 8.26268 23.6104
312 1 -1.1104 1.06598 5.41898 23.5714
314 1 -1.1104 0.850942 5.51662 26.3889
316 1 -1.1104 3.8009 8.20401 23.3526
317 2 2.2208 2.38099 6.96067 24.9262
318 1 -1.1104 3.63047 8.33611 26.3455
319 1 -1.1104 3.93191 5.30814 23.4448
320 1 -1.1104 3.7713 5.54589 26.299
310 1 -1.1104 0.930325 8.16591 26.3742
273 2 2.2208 -0.321853 6.72778 22.2314
8955 2 2.2208 -0.372127 1.28905 27.6995
311 1 -1.1104 6.51841 8.24065 26.2499
309 1 -1.1104 6.4879 8.40622 23.4664
321 2 2.2208 5.31431 1.2391 27.6446
293 1 -1.1104 6.92209 -0.2296 23.3147
287 1 -1.1104 6.65317 2.72538 23.4524
8985 2 2.2208 -0.548896 6.82584 27.7062
241 1 -1.1104 12.27 2.74387 20.5431
251 1 -1.1104 9.41287 -3.03564 20.5658
290 1 -1.1104 6.6932 -3.03175 26.1957
286 1 -1.1104 6.65771 -3.00438 23.4238
330 1 -1.1104 9.77661 -0.0480273 23.4516
277 1 -1.1104 9.43849 8.4003 23.3159
226 2 2.2208 -0.529794 4.11387 19.3763
332 2 2.2208 10.8981 3.99766 24.7157
279 1 -1.1104 9.55252 2.52871 23.3923
276 2 2.2208 13.649 -1.45671 16.374
282 1 -1.1104 12.1646 5.46878 26.1201
337 2 2.2208 7.98785 6.85432 24.8947
326 1 -1.1104 12.1603 8.48093 26.1718
339 1 -1.1104 12.2018 -2.7539 23.5041
323 1 -1.1104 12.3747 -0.0434408 23.509
340 1 -1.1104 12.5577 2.69658 23.4712
262 1 -1.1104 12.3278 8.32105 20.4993
335 1 -1.1104 9.40643 5.55189 23.4338
281 1 -1.1104 12.1352 -0.272746 26.3223
328 2 2.2208 10.8434 6.98567 21.9792
338 2 2.2208 11.0829 1.23582 21.9499
341 1 -1.1104 12.1779 -2.94879 26.3876
333 2 2.2208 10.9051 -1.51506 24.8562
232 1 -1.1104 9.61834 2.64782 26.3269
336 1 -1.1104 9.31432 8.28825 26.0978
325 1 -1.1104 12.1564 5.52062 23.2764
229 2 2.2208 8.23289 -1.59604 21.9247
224 2 2.2208 8.05922 4.15934 21.9851
275 2 2.2208 8.18028 1.33705 24.8341
313 1 -1.1104 6.59056 5.39201 23.3538
297 1 -1.1104 6.88349 -0.186643 26.2391
315 1 -1.1104 6.66356 5.40456 26.1605
329 1 -1.1104 9.47658 -0.201495 26.3074
327 1 -1.1104 12.2231 8.36274 23.3363
170 2 2.2208 2.33763 4.07179 27.7263
9073 2 2.2208 -0.302401 -1.60101 19.2633
225 2 2.2208 13.7128 4.29721 22.0796
161 2 2.2208 13.4672 4.17838 27.6572
322 2 2.2208 2.44071 -1.56078 27.7584
278 2 2.2208 8.22417 6.88544 13.6204
345 2 2.2208 5.31766 12.4998 5.21253
346 1 -1.1104 1.03943 11.126 0.951384
350 2 2.2208 5.22604 9.74645 2.24203
351 1 -1.1104 0.904287 11.1522 3.68281
353 2 2.2208 2.39708 12.5107 2.19752
354 2 2.2208 2.33164 9.84838 5.11764
355 1 -1.1104 3.75649 11.0269 0.913188
357 1 -1.1104 3.70717 11.1441 3.59734
358 2 2.2208 5.08372 18.0215 5.30438
359 1 -1.1104 0.824404 13.939 0.88264
361 1 -1.1104 1.09429 19.5276 0.978712
365 1 -1.1104 0.983313 13.9152 3.79842
366 1 -1.1104 1.08802 19.5562 3.8564
369 1 -1.1104 0.97126 16.6898 1.02953
372 2 2.2208 5.18004 15.3698 2.41158
373 2 2.2208 5.09579 20.8212 2.34425
374 1 -1.1104 0.93204 16.8272 3.7965
376 1 -1.1104 3.79353 14.0439 0.990311
378 1 -1.1104 3.79909 19.4729 0.905728
380 2 2.2208 2.34034 18.091 2.34192
381 1 -1.1104 3.88316 13.9516 3.82077
382 1 -1.1104 3.88094 19.554 3.78066
383 2 2.2208 2.52177 15.3211 5.35321
384 2 2.2208 2.42069 20.8639 5.21223
385 1 -1.1104 3.97669 16.7441 1.11543
387 1 -1.1104 3.69099 16.8144 3.84484
391 2 2.2208 -0.303026 20.9979 2.30306
356 1 -1.1104 3.6786 10.9332 6.48158
379 1 -1.1104 3.78333 19.6538 6.63714
360 1 -1.1104 1.05359 13.7948 6.56499
501 2 2.2208 10.7903 15.3227 13.3772
9274 2 2.2208 -0.343241 12.625 5.17443
367 1 -1.1104 6.63595 14.0861 3.88575
370 1 -1.1104 1.03552 16.6252 6.61394
386 1 -1.1104 3.74351 16.7111 6.62441
445 1 -1.1104 0.976677 19.5193 6.62872
481 1 -1.1104 12.2323 19.5679 9.34335
9285 2 2.2208 13.5554 12.3589 2.31255
489 2 2.2208 13.6846 18.124 8.0855
433 1 -1.1104 6.5264 14.0863 9.45247
402 1 -1.1104 6.68897 19.618 1.42007
375 1 -1.1104 6.42786 17.2079 3.62383
352 1 -1.1104 6.49041 11.1506 3.64779
348 1 -1.1104 6.55161 11.1239 0.765536
362 1 -1.1104 6.4584 13.8965 1.11629
403 1 -1.1104 6.76514 16.5786 0.893875
392 2 2.2208 10.8858 12.4279 5.23076
393 1 -1.1104 12.1815 11.0698 0.973581
395 2 2.2208 10.737 9.70273 2.33347
396 1 -1.1104 12.2718 10.8882 3.78312
397 2 2.2208 8.04583 12.5307 2.28739
398 2 2.2208 8.00139 9.6216 5.15042
399 1 -1.1104 9.33601 11.203 0.69298
401 1 -1.1104 9.37122 11.05 3.83846
404 2 2.2208 11.0265 18.0741 5.28491
405 1 -1.1104 12.2353 13.8462 0.900365
407 1 -1.1104 12.2706 19.4918 0.898587
409 1 -1.1104 12.246 13.723 3.76227
410 1 -1.1104 12.3094 19.5361 3.89921
411 1 -1.1104 12.2839 16.5612 1.04099
413 2 2.2208 10.8242 15.2528 2.37034
414 2 2.2208 10.854 20.8758 2.50035
415 1 -1.1104 12.1739 16.6718 3.88933
416 1 -1.1104 9.35596 13.9908 0.905611
418 1 -1.1104 9.52246 19.4677 0.854432
420 2 2.2208 8.2185 17.9104 2.36195
421 1 -1.1104 9.52505 13.7643 3.65618
422 1 -1.1104 9.51932 19.2688 3.69622
423 2 2.2208 8.10301 15.2204 5.30349
424 1 -1.1104 9.49381 16.6683 0.949689
426 1 -1.1104 9.33174 16.5436 3.81399
371 1 -1.1104 6.57247 16.6504 6.59025
349 1 -1.1104 6.92068 11.1997 6.34817
400 1 -1.1104 9.62365 10.9329 6.61424
417 1 -1.1104 9.43123 13.6601 6.46547
476 2 2.2208 10.902 20.9104 8.06694
408 1 -1.1104 12.3764 19.4056 6.56828
406 1 -1.1104 12.2477 13.761 6.549
425 1 -1.1104 9.55217 16.5367 6.54139
394 1 -1.1104 12.37 10.9376 6.67888
471 1 -1.1104 9.4747 13.7696 9.23377
368 2 2.2208 -0.442859 18.0966 5.26841
472 2 2.2208 8.08141 18.172 7.89394
347 1 -1.1104 0.872706 11.0542 6.62101
9247 2 2.2208 -0.256536 12.5966 10.8828
9273 2 2.2208 -0.515186 9.73578 2.4356
487 1 -1.1104 12.1883 13.7959 11.897
377 1 -1.1104 3.79024 13.7666 6.68949
364 1 -1.1104 6.49966 19.4805 6.44818
429 1 -1.1104 3.74514 19.4895 12.1561
430 1 -1.1104 4.02651 13.8672 12.2046
434 1 -1.1104 1.1165 19.4688 9.41124
435 1 -1.1104 1.04919 16.7238 9.41768
436 2 2.2208 5.37422 20.8831 7.88815
437 1 -1.1104 0.896921 13.7678 9.15692
438 2 2.2208 5.11281 15.2653 8.09541
441 1 -1.1104 1.15063 19.5205 12.2221
442 1 -1.1104 1.08155 14.0529 12.225
443 2 2.2208 5.27762 18.2286 10.8178
444 1 -1.1104 3.87111 19.5915 9.39535
446 2 2.2208 2.48207 18.2426 8.11026
447 1 -1.1104 3.90642 16.7705 9.46247
448 1 -1.1104 3.53504 13.9088 9.54227
450 1 -1.1104 1.11599 16.8189 12.1972
451 1 -1.1104 3.77375 16.6137 12.233
452 2 2.2208 2.5024 21.005 10.8803
453 2 2.2208 5.31284 12.4675 10.778
454 1 -1.1104 1.16283 11.1456 12.3675
456 2 2.2208 2.51006 15.2806 10.8957
457 1 -1.1104 0.921782 10.9327 9.60131
459 2 2.2208 2.47136 12.4185 7.97626
460 2 2.2208 2.45406 9.88675 10.8908
461 1 -1.1104 3.86107 11.223 12.3007
462 1 -1.1104 3.74436 10.9529 9.36525
431 1 -1.1104 6.72787 19.564 9.37844
439 1 -1.1104 6.57496 19.6063 12.21
498 2 2.2208 5.28161 20.9273 13.6585
389 2 2.2208 10.8633 9.59018 8.0616
455 1 -1.1104 6.57682 10.8997 12.1468
449 1 -1.1104 6.60543 16.7596 12.1806
491 2 2.2208 13.7402 9.61132 5.21066
486 1 -1.1104 12.174 19.6615 12.1651
9272 2 2.2208 -0.442514 15.3421 2.33068
478 2 2.2208 10.8329 15.1805 7.96477
483 2 2.2208 7.95156 9.51211 10.7538
500 2 2.2208 10.8509 21.0041 13.5879
469 2 2.2208 8.06218 15.3928 10.6682
466 1 -1.1104 9.65235 16.6653 9.26162
412 1 -1.1104 12.2125 16.761 6.79715
470 1 -1.1104 9.43775 19.5942 9.43533
363 1 -1.1104 6.64161 13.9418 6.81523
440 1 -1.1104 6.62664 13.9626 12.2458
419 1 -1.1104 9.61096 19.3819 6.76735
559 2 2.2208 -0.403631 15.2377 13.6253
458 1 -1.1104 6.75257 11.2423 9.55155
388 1 -1.1104 12.2834 10.9649 9.54174
485 2 2.2208 13.6287 15.39 10.7754
482 1 -1.1104 12.1989 13.8878 9.27448
502 2 2.2208 8.03315 18.0603 13.6227
467 1 -1.1104 9.3367 16.8462 12.1356
463 2 2.2208 10.8252 12.4117 10.7652
432 1 -1.1104 6.83038 16.8207 9.26928
477 1 -1.1104 9.52019 10.9899 9.38731
468 2 2.2208 8.00305 20.987 10.8732
479 1 -1.1104 12.2818 16.7613 12.1422
484 2 2.2208 7.9651 12.3199 7.95825
473 1 -1.1104 9.2745 19.5546 12.3913
488 2 2.2208 10.7415 18.2005 10.6895
480 1 -1.1104 9.33758 11.0729 12.0268
390 1 -1.1104 12.1529 11.118 12.2735
474 1 -1.1104 9.40476 13.9098 11.9737
475 1 -1.1104 12.2802 16.7881 9.48262
492 2 2.2208 13.5479 15.3113 5.11953
495 2 2.2208 13.5578 9.62724 10.7852
464 2 2.2208 -0.219965 18.1714 10.8285
506 2 2.2208 7.88755 12.5005 13.5582
9331 2 2.2208 13.5698 9.74621 -0.467141
497 2 2.2208 2.59626 18.194 13.664
499 2 2.2208 5.29798 15.2963 13.583
638 2 2.2208 -0.402127 12.4688 -0.432668
509 2 2.2208 5.25264 12.4708 16.4231
510 1 -1.1104 1.21332 11.2779 17.7045
512 2 2.2208 5.11909 9.64855 19.2271
513 1 -1.1104 1.14851 10.9321 14.9494
517 2 2.2208 2.39323 12.6249 19.2638
518 2 2.2208 2.47486 9.71522 16.4832
519 1 -1.1104 3.92934 11.0825 17.7419
520 1 -1.1104 3.82509 11.0616 15.0645
522 2 2.2208 5.22316 18.0353 16.3682
523 1 -1.1104 0.891057 13.9091 17.8499
524 1 -1.1104 1.01162 19.491 17.7276
527 1 -1.1104 0.884835 13.7916 15.008
529 1 -1.1104 1.05905 19.3872 14.9025
535 1 -1.1104 0.916252 16.5923 17.5758
537 2 2.2208 5.22486 15.2213 19.2287
538 2 2.2208 5.28264 20.8764 19.3923
539 1 -1.1104 1.08674 16.5961 14.849
543 1 -1.1104 3.83393 13.799 17.9434
544 1 -1.1104 3.83972 19.3005 17.8297
545 2 2.2208 2.39991 17.9669 19.1769
546 1 -1.1104 3.65297 14.0977 14.9391
548 1 -1.1104 3.88604 19.6868 14.9866
550 2 2.2208 2.32741 15.3172 16.3931
551 2 2.2208 2.404 20.9919 16.5075
552 1 -1.1104 3.77979 16.5694 17.8935
553 1 -1.1104 4.02219 16.8549 15.0102
672 2 2.2208 13.6663 20.9344 27.6097
536 1 -1.1104 6.71479 16.653 17.8241
525 1 -1.1104 6.59913 13.9136 17.8612
531 1 -1.1104 6.5858 13.8126 15.0109
547 1 -1.1104 3.79215 13.8317 20.6514
542 1 -1.1104 6.65737 16.5868 20.6073
511 1 -1.1104 6.69069 11.0038 17.7071
532 1 -1.1104 6.64116 13.6324 20.6509
534 1 -1.1104 6.65995 19.4593 20.8027
540 1 -1.1104 0.946859 16.6505 20.4519
554 1 -1.1104 3.80442 16.7159 20.635
530 1 -1.1104 1.03825 19.4982 20.5051
549 1 -1.1104 3.83841 19.484 20.7421
640 2 2.2208 13.5365 15.5781 22.1107
9429 2 2.2208 -0.355853 20.8609 19.325
558 2 2.2208 2.45971 12.5484 13.7483
526 1 -1.1104 6.57958 19.5582 17.9315
533 1 -1.1104 6.60205 19.4822 14.9559
541 1 -1.1104 6.73939 16.6548 14.9348
635 2 2.2208 2.32339 15.2732 27.6185
515 1 -1.1104 6.62646 11.0011 14.8898
560 2 2.2208 10.8754 12.421 16.1403
561 1 -1.1104 12.2428 11.0934 17.7644
562 2 2.2208 10.9361 9.68639 19.1013
563 1 -1.1104 12.267 11.1228 15.1023
565 2 2.2208 7.9106 12.5327 19.1456
566 2 2.2208 8.0565 9.67466 16.3354
567 1 -1.1104 9.40871 11.1997 17.6639
568 1 -1.1104 9.34252 11.0958 14.9281
570 2 2.2208 10.829 18.3178 16.2918
571 1 -1.1104 12.1078 13.957 17.6588
572 1 -1.1104 12.2355 19.5624 17.7562
573 1 -1.1104 12.1266 14.0363 14.6834
575 1 -1.1104 12.2789 19.5904 14.8902
577 1 -1.1104 12.2521 16.7062 17.7546
578 2 2.2208 10.7781 15.2928 19.0549
579 2 2.2208 10.9359 20.9101 19.2263
580 1 -1.1104 12.274 16.8887 14.961
582 1 -1.1104 9.37711 13.9954 17.7847
583 1 -1.1104 9.46958 19.6742 17.7101
584 2 2.2208 8.06007 18.0775 19.2483
585 1 -1.1104 9.39609 13.8367 14.8627
587 1 -1.1104 9.41024 19.5717 15.0092
589 2 2.2208 8.15516 15.3002 16.3728
590 2 2.2208 8.00379 20.954 16.4673
591 1 -1.1104 9.45929 16.8059 17.7198
592 1 -1.1104 9.50013 16.5571 14.8621
569 1 -1.1104 9.29644 10.9834 20.4938
586 1 -1.1104 9.43794 13.8821 20.6067
588 1 -1.1104 9.49903 19.5238 20.6101
599 2 2.2208 13.5827 20.9213 16.3862
516 1 -1.1104 6.63434 11.0942 20.5385
581 1 -1.1104 12.1496 16.7434 20.4897
564 1 -1.1104 12.2592 11.2477 20.6431
576 1 -1.1104 12.2642 19.5216 20.6602
593 1 -1.1104 9.44073 16.6616 20.5901
528 1 -1.1104 1.02949 14.0647 20.6625
521 1 -1.1104 3.86869 10.9574 20.6019
514 1 -1.1104 1.13742 11.2735 20.7319
600 1 -1.1104 3.71838 19.5371 23.4667
602 1 -1.1104 3.77968 13.9756 23.559
604 1 -1.1104 0.971928 19.3839 26.0902
605 1 -1.1104 0.948764 16.7652 26.4033
606 1 -1.1104 1.06086 13.7135 26.225
608 2 2.2208 5.1404 20.906 24.9232
609 2 2.2208 5.24486 15.2267 24.81
611 1 -1.1104 1.00639 19.4909 23.4825
612 1 -1.1104 1.08009 13.9147 23.5591
613 2 2.2208 5.14472 18.0538 22.1344
614 1 -1.1104 3.7587 19.4643 26.308
615 2 2.2208 2.48109 18.0381 24.8623
616 1 -1.1104 3.7423 16.746 26.3269
617 1 -1.1104 3.7208 13.9688 26.2489
619 1 -1.1104 1.1174 16.7825 23.3671
620 1 -1.1104 3.91079 16.6428 23.459
621 2 2.2208 2.4789 20.859 21.9744
622 2 2.2208 5.21007 12.3714 22.0144
623 1 -1.1104 0.9765 11.1174 23.4292
625 2 2.2208 2.34017 15.3416 22.0318
626 2 2.2208 5.23207 9.70988 24.7917
627 1 -1.1104 1.00686 10.9865 26.2017
629 2 2.2208 2.43861 12.4952 24.8325
630 2 2.2208 2.33456 9.71514 21.9966
631 1 -1.1104 3.83781 11.0217 23.3968
632 1 -1.1104 3.78996 11.066 26.225
610 1 -1.1104 6.60505 13.8009 23.4688
643 2 2.2208 -0.480021 9.73544 24.8749
651 1 -1.1104 6.49601 19.4971 26.482
9393 2 2.2208 -0.342996 12.5498 21.9777
594 2 2.2208 -0.293554 18.0404 16.3368
645 1 -1.1104 9.49179 16.7104 26.2315
603 1 -1.1104 6.58119 16.6075 26.1926
628 1 -1.1104 6.67289 11.0903 26.1644
670 2 2.2208 10.827 9.71294 24.729
637 2 2.2208 5.1284 12.4179 27.5721
665 1 -1.1104 12.0762 19.5123 23.414
607 1 -1.1104 6.56294 19.5784 23.6825
666 1 -1.1104 12.2054 14.0501 23.2284
644 2 2.2208 7.99027 9.74268 27.5795
574 1 -1.1104 12.1717 13.9887 20.5137
646 1 -1.1104 9.2995 16.814 23.3704
671 1 -1.1104 12.3106 11.2089 26.06
642 2 2.2208 -0.343897 18.1168 21.9859
624 1 -1.1104 6.56183 11.1436 23.4834
618 1 -1.1104 6.51126 16.7436 23.4183
601 1 -1.1104 6.71762 13.8852 26.3942
669 1 -1.1104 12.1653 11.2443 23.3734
9332 2 2.2208 -0.367873 18.1446 27.573
656 1 -1.1104 9.49806 11.014 26.0447
663 2 2.2208 8.01328 9.71928 21.8964
662 1 -1.1104 9.49674 11.113 23.2485
555 2 2.2208 13.5913 20.8109 22.0979
557 2 2.2208 5.20693 9.62198 13.5584
660 1 -1.1104 12.1886 19.6331 26.2993
664 2 2.2208 8.0924 12.5118 24.8007
655 1 -1.1104 12.1667 16.7779 26.1962
649 1 -1.1104 9.34436 19.5336 26.1535
657 2 2.2208 10.8121 20.9164 24.8888
658 2 2.2208 10.7988 15.3632 24.8136
653 1 -1.1104 9.26079 19.542 23.446
648 2 2.2208 8.07275 15.2717 21.9793
652 2 2.2208 7.95296 18.0929 24.8689
647 2 2.2208 8.05353 20.9807 21.9949
667 2 2.2208 10.7285 18.0859 22.0205
661 1 -1.1104 12.1419 13.9836 26.0954
650 1 -1.1104 9.49969 13.8804 26.1679
654 1 -1.1104 9.4155 14.0107 23.4831
659 1 -1.1104 12.1404 16.7629 23.503
668 2 2.2208 10.8092 12.5756 21.9439
9327 2 2.2208 -0.352425 20.8911 24.6848
507 2 2.2208 5.1581 18.0149 27.714
633 2 2.2208 2.46914 21.0168 27.5645
490 2 2.2208 10.8625 12.4477 27.4351
597 2 2.2208 13.4905 15.3925 16.2682
598 2 2.2208 13.53 12.5278 19.1159
9426 2 2.2208 13.5461 9.80218 22.0502
636 2 2.2208 10.8812 18.0578 27.6657
428 2 2.2208 7.99491 20.8325 27.6568
508 2 2.2208 2.35538 9.68261 27.7201
596 2 2.2208 8.07369 15.2346 27.6314
556 2 2.2208 -0.409968 20.831 13.7458
504 2 2.2208 10.8538 9.68565 13.5028
503 2 2.2208 13.6024 18.1904 13.5408
673 2 2.2208 5.09073 23.8975 5.41284
674 2 2.2208 5.19118 29.2262 5.42934
675 1 -1.1104 1.12124 25.2198 1.04288
676 1 -1.1104 0.919379 25.2618 3.7377
677 1 -1.1104 1.18459 22.5229 0.926078
678 1 -1.1104 1.03583 28.0382 0.990478
679 2 2.2208 5.23188 26.5118 2.46878
680 1 -1.1104 1.17286 22.4481 3.68554
681 1 -1.1104 0.881693 27.9566 3.75701
683 1 -1.1104 3.86894 25.2041 0.939537
684 2 2.2208 2.45642 23.8817 2.33939
685 2 2.2208 2.3282 29.3797 2.38218
686 1 -1.1104 3.71992 25.135 3.84495
687 2 2.2208 2.33407 26.5845 5.28621
688 1 -1.1104 3.95212 22.1957 0.935956
689 1 -1.1104 3.86334 27.98 1.0934
690 1 -1.1104 4.09572 22.3413 3.78287
691 1 -1.1104 3.78523 27.8128 3.90591
692 1 -1.1104 0.947986 30.7057 1.01463
693 1 -1.1104 0.868775 30.8052 3.87591
694 1 -1.1104 0.997205 33.7396 0.800564
695 2 2.2208 5.08615 32.0094 2.36097
696 1 -1.1104 0.996007 33.5578 3.65358
698 1 -1.1104 3.68916 30.7503 1.10079
699 1 -1.1104 3.65207 30.6146 3.77959
700 2 2.2208 2.32635 32.0569 5.22762
701 1 -1.1104 3.77074 33.5394 0.945372
702 1 -1.1104 3.64463 33.4367 3.86614
758 1 -1.1104 3.85007 30.7672 6.37721
729 1 -1.1104 6.44752 30.5804 1.17288
747 1 -1.1104 0.872766 22.2535 6.52672
752 1 -1.1104 3.65292 22.4095 6.54659
708 1 -1.1104 6.66822 22.2878 1.37639
754 1 -1.1104 1.14939 30.8268 6.72701
751 1 -1.1104 3.69697 25.2166 6.68763
837 2 2.2208 13.6083 29.466 13.7237
838 2 2.2208 8.04369 23.7405 13.7035
730 1 -1.1104 6.50825 30.596 4.069
742 2 2.2208 13.651 23.8208 2.3757
748 1 -1.1104 0.92091 28.0134 6.61124
745 1 -1.1104 0.932369 25.0673 6.59838
806 2 2.2208 10.731 23.8146 10.8771
746 1 -1.1104 6.663 25.2718 6.68477
731 1 -1.1104 6.55419 33.5036 1.01962
709 1 -1.1104 6.57366 27.8837 1.11938
707 1 -1.1104 6.50332 24.7962 3.78881
710 1 -1.1104 6.57363 27.7854 3.89552
706 1 -1.1104 6.70712 25.0103 1.02644
697 1 -1.1104 6.49055 33.4592 3.73413
711 2 2.2208 10.8678 23.7894 5.25469
712 2 2.2208 10.8654 29.3975 5.18373
713 1 -1.1104 12.1484 25.1774 1.03144
714 1 -1.1104 12.4133 25.2232 3.8001
715 1 -1.1104 12.0746 22.237 1.04193
716 1 -1.1104 12.0593 28.0154 1.08912
717 2 2.2208 10.7932 26.684 2.41983
718 1 -1.1104 12.2679 22.4331 3.85567
719 1 -1.1104 12.3189 28.0425 3.85142
720 1 -1.1104 9.36943 25.2316 1.03191
721 2 2.2208 8.07103 23.7573 2.37981
722 2 2.2208 8.03874 29.289 2.40443
723 1 -1.1104 9.41458 25.3359 3.70338
724 2 2.2208 8.13378 26.5843 5.22151
725 1 -1.1104 9.29547 22.499 0.760375
726 1 -1.1104 9.27713 27.9777 0.820831
727 1 -1.1104 9.56172 22.4805 3.61267
728 1 -1.1104 9.39719 28.0591 3.82839
732 1 -1.1104 12.2292 30.782 1.14446
733 1 -1.1104 12.2244 30.8078 3.79858
734 1 -1.1104 12.2874 33.5732 0.888261
735 2 2.2208 10.7955 32.2803 2.33458
736 1 -1.1104 12.2109 33.7348 3.72407
737 1 -1.1104 9.27176 30.797 1.07131
738 1 -1.1104 9.39706 30.7435 3.83342
739 2 2.2208 7.98885 32.1017 5.02028
740 1 -1.1104 9.43612 33.589 0.859106
741 1 -1.1104 9.26751 33.5261 3.6639
805 1 -1.1104 9.27747 33.5571 6.43692
801 1 -1.1104 9.39597 27.8942 6.60831
803 1 -1.1104 11.946 33.5934 6.44755
797 1 -1.1104 12.4175 22.3287 6.86599
840 2 2.2208 -0.416605 32.3755 7.91693
820 1 -1.1104 9.31638 22.3672 12.41
682 1 -1.1104 9.35691 33.866 9.3664
827 2 2.2208 10.7673 32.1893 8.12572
818 1 -1.1104 9.44936 25.0635 9.4325
817 2 2.2208 8.15674 29.2642 8.00784
759 1 -1.1104 3.63302 33.6223 6.58434
753 1 -1.1104 3.74161 27.847 6.77218
749 1 -1.1104 6.42536 22.5142 6.74146
809 1 -1.1104 12.2332 25.2093 9.44272
833 2 2.2208 2.388 23.702 13.769
814 1 -1.1104 12.2114 28.0497 9.50902
756 1 -1.1104 0.846933 33.4666 6.46527
834 2 2.2208 5.1367 32.0906 13.5973
760 2 2.2208 5.33711 23.7697 10.8909
761 2 2.2208 5.05933 29.2 10.9914
762 1 -1.1104 1.03129 25.0375 12.3519
764 1 -1.1104 1.24575 25.1595 9.55353
766 1 -1.1104 0.953429 22.2854 12.3306
767 1 -1.1104 0.970466 27.7764 12.1954
770 2 2.2208 5.25856 26.5211 8.20279
771 1 -1.1104 0.918316 22.4388 9.43199
772 1 -1.1104 0.999431 27.9451 9.44545
775 1 -1.1104 3.98109 25.0663 12.2683
776 2 2.2208 2.45282 23.8138 7.99577
777 2 2.2208 2.39543 29.2501 8.15177
778 1 -1.1104 4.02703 25.1216 9.38325
779 2 2.2208 2.39429 26.5112 10.9201