ITEM: TIMESTEP
80000
ITEM: NUMBER OF ATOMS
17820
ITEM: BOX BOUNDS pp pp pp
-3.6292731772422671e-01 2.7702927317724495e+01
-4.3808264141408229e+00 3.3246082641414210e+02
-3.6722127101068353e-01 2.7707221271010948e+01
ITEM: ATOMS id type q x y z
1 2 2.2208 5.28786 1.12981 5.29759
2 1 -1.1104 1.2522 -3.16754 1.03889
3 1 -1.1104 1.0991 2.42923 1.06779
6 1 -1.1104 1.14676 -2.97581 3.92223
7 1 -1.1104 1.16297 2.59798 3.84002
10 1 -1.1104 1.27025 -0.315527 1.04122
12 2 2.2208 5.46195 -1.78594 2.39713
13 2 2.2208 5.29123 4.06471 2.62351
14 1 -1.1104 1.05256 -0.100911 3.80382
16 1 -1.1104 4.06974 -2.94822 0.912883
17 1 -1.1104 3.83343 2.64565 1.27446
18 2 2.2208 2.50802 1.13494 2.49895
19 1 -1.1104 4.02784 -3.0361 3.76089
20 1 -1.1104 4.08175 2.47028 3.89281
21 2 2.2208 2.45151 -1.58541 5.31026
22 2 2.2208 2.5218 3.86559 5.17517
23 1 -1.1104 3.96032 -0.249377 1.10327
24 1 -1.1104 3.76736 -0.236706 3.90375
25 2 2.2208 5.46779 6.68951 5.30705
26 1 -1.1104 1.17705 8.14195 1.11176
28 1 -1.1104 1.05708 8.20193 3.87572
30 1 -1.1104 1.17448 5.42258 1.17302
32 1 -1.1104 1.1282 5.32524 3.87112
34 1 -1.1104 4.00012 8.09736 1.21897
35 2 2.2208 2.51674 6.8048 2.59918
36 1 -1.1104 3.928 8.30028 4.32048
37 1 -1.1104 3.80075 5.34788 1.25179
38 1 -1.1104 4.19012 5.30177 4.14718
8 1 -1.1104 6.91142 -3.03151 3.8363
86 1 -1.1104 4.00458 -3.10335 6.65426
80 1 -1.1104 1.27706 -3.08015 6.59045
15 1 -1.1104 6.71757 -0.308326 3.91213
11 1 -1.1104 6.82849 -0.299386 1.14541
31 1 -1.1104 6.61223 5.42089 1.15513
29 1 -1.1104 6.65219 8.07654 3.68637
9 1 -1.1104 6.73644 2.49947 3.95358
89 1 -1.1104 1.19378 8.31103 6.69601
92 1 -1.1104 6.77883 5.18305 6.86069
27 1 -1.1104 6.65843 8.06461 0.926383
8606 2 2.2208 5.50118 -4.36222 -0.310525
84 1 -1.1104 1.02834 -0.147627 6.68919
75 2 2.2208 8.28327 -1.51983 -0.252767
151 2 2.2208 10.8737 1.32844 10.8258
8850 2 2.2208 -0.289704 3.88001 8.09564
4 1 -1.1104 7.0455 -3.11868 0.985912
5 1 -1.1104 6.67198 2.53549 1.17909
33 1 -1.1104 6.94138 5.38406 3.85479
90 1 -1.1104 6.78368 7.99418 6.582
83 1 -1.1104 6.83926 2.54176 6.53194
344 2 2.2208 -0.166094 -1.59302 13.7614
154 1 -1.1104 12.3225 -2.99403 9.59664
46 2 2.2208 10.9833 1.09054 5.33474
47 1 -1.1104 12.5704 -2.76871 1.10101
48 1 -1.1104 12.3231 2.79452 0.93089
49 1 -1.1104 12.4975 -2.99508 3.81484
50 1 -1.1104 12.3739 2.52191 3.84814
51 1 -1.1104 12.3173 -0.0595574 1.05336
52 2 2.2208 11.0409 -1.54367 2.50317
53 2 2.2208 10.9454 3.99054 2.41552
54 1 -1.1104 12.3648 -0.204304 3.77019
55 1 -1.1104 9.72083 -2.95813 1.12207
56 1 -1.1104 9.62987 2.55289 1.05529
57 2 2.2208 8.05748 1.1048 2.56158
58 1 -1.1104 9.69519 -2.97987 3.83296
59 1 -1.1104 9.6213 2.61836 3.85181
60 2 2.2208 8.17335 -1.62409 5.31897
61 2 2.2208 8.1997 3.9131 5.2609
62 1 -1.1104 9.6213 -0.0899588 1.14213
63 1 -1.1104 9.55557 -0.260953 3.91632
65 2 2.2208 10.8099 6.86892 5.36757
68 1 -1.1104 12.3249 5.56896 1.17834
69 1 -1.1104 12.4995 5.45163 4.04597
70 1 -1.1104 9.55913 7.92632 1.23496
71 2 2.2208 8.11654 6.72507 2.5628
72 1 -1.1104 9.47478 8.18788 4.06976
73 1 -1.1104 9.4421 5.4088 1.07956
74 1 -1.1104 9.79674 5.38786 3.83686
66 1 -1.1104 12.2942 8.32614 1.12105
139 1 -1.1104 9.46111 -2.94904 6.70728
142 1 -1.1104 12.3527 8.211 6.76251
137 1 -1.1104 12.3549 2.75004 6.58825
136 1 -1.1104 12.543 -3.07709 6.65059
133 1 -1.1104 12.3774 8.23595 12.3596
141 1 -1.1104 9.50322 -0.177052 6.63318
67 1 -1.1104 12.3685 8.08048 3.98105
140 1 -1.1104 9.54328 2.50547 6.66552
138 1 -1.1104 12.3119 -0.350709 6.62157
144 1 -1.1104 9.48428 8.32517 6.77267
233 2 2.2208 2.45336 1.25864 13.7234
148 1 -1.1104 9.7228 8.23067 9.56972
81 1 -1.1104 1.13233 2.52368 6.8048
87 1 -1.1104 3.94212 2.63535 6.64954
91 1 -1.1104 1.31212 5.43136 6.59415
85 1 -1.1104 6.71781 -0.105727 6.73099
88 1 -1.1104 3.9581 -0.202305 6.62042
93 1 -1.1104 3.93778 5.68302 6.91806
82 1 -1.1104 6.79964 -3.03174 6.74105
100 1 -1.1104 6.59669 -2.963 9.57645
94 2 2.2208 5.23113 1.26999 10.9048
95 1 -1.1104 1.27907 -2.92046 12.2261
96 1 -1.1104 1.11615 2.68195 12.4731
98 1 -1.1104 1.25838 -3.06105 9.37486
99 1 -1.1104 1.03913 2.66776 9.53998
102 1 -1.1104 1.18175 -0.0871033 12.3083
104 2 2.2208 5.36971 -1.63116 8.14176
105 2 2.2208 5.38479 3.87173 8.04743
106 1 -1.1104 1.15193 -0.115253 9.42947
108 1 -1.1104 4.27352 -3.08752 12.4785
109 1 -1.1104 3.82293 2.47998 12.314
110 2 2.2208 2.49929 1.26369 8.10513
111 1 -1.1104 3.91219 -3.06996 9.50972
112 1 -1.1104 3.78892 2.75879 9.54895
113 2 2.2208 2.44867 -1.49225 10.7817
114 2 2.2208 2.40483 4.10299 11.0135
115 1 -1.1104 3.88715 -0.243781 12.1766
116 1 -1.1104 3.81025 -0.214647 9.37485
117 2 2.2208 5.38852 6.85123 11.2021
118 1 -1.1104 1.00903 8.17506 12.349
120 1 -1.1104 1.40268 8.2706 9.45381
122 1 -1.1104 1.00643 5.39422 12.3484
124 1 -1.1104 0.88772 5.35383 9.53318
126 1 -1.1104 3.86274 8.17838 12.3156
127 2 2.2208 2.34409 6.75717 8.17982
129 1 -1.1104 3.92695 5.34763 12.3575
130 1 -1.1104 3.70008 5.89433 9.65751
107 1 -1.1104 6.62568 -0.350615 9.59919
101 1 -1.1104 6.60575 2.45377 9.32029
103 1 -1.1104 6.73822 -0.482484 12.3282
121 1 -1.1104 6.91414 7.89658 9.77803
149 2 2.2208 7.9992 6.9047 8.11324
157 2 2.2208 10.8674 -1.72148 8.11132
134 1 -1.1104 9.54225 -2.9333 9.49481
155 1 -1.1104 12.3512 2.78071 9.40814
8947 2 2.2208 -0.209012 6.67473 5.29361
97 1 -1.1104 6.80474 2.49481 12.4332
78 2 2.2208 8.19514 -1.57165 10.8307
119 1 -1.1104 6.66739 8.29373 12.412
125 1 -1.1104 6.51695 5.13066 9.6661
123 1 -1.1104 6.71222 5.26065 12.4471
159 1 -1.1104 12.2517 -0.0233469 9.4107
143 1 -1.1104 12.3308 5.55829 6.64938
146 1 -1.1104 9.52019 5.39934 6.51539
135 2 2.2208 8.12905 1.16106 7.97948
153 1 -1.1104 12.4054 2.64385 12.0795
43 1 -1.1104 9.47691 -0.0791128 9.41676
45 1 -1.1104 9.35885 8.08573 12.4496
42 2 2.2208 13.7649 1.35585 7.95873
156 1 -1.1104 12.1861 -0.134778 12.4068
79 1 -1.1104 9.4708 2.67055 9.45133
64 2 2.2208 8.11878 4.05795 10.8754
158 2 2.2208 10.9043 4.185 8.01334
132 1 -1.1104 12.4011 8.39705 9.61334
160 1 -1.1104 9.57421 -2.81284 12.2294
40 2 2.2208 10.9191 6.77945 10.9842
131 1 -1.1104 12.4142 5.33797 12.3656
152 1 -1.1104 12.4353 -3.02242 12.2951
147 1 -1.1104 9.50006 5.28906 12.3448
44 1 -1.1104 9.48969 -0.0475762 12.3652
128 1 -1.1104 12.3631 5.59934 9.4594
145 1 -1.1104 9.45714 5.45641 9.45112
150 1 -1.1104 9.51258 2.59784 12.2488
8787 2 2.2208 -0.209427 1.17675 10.873
162 2 2.2208 13.8117 -1.56808 -0.293321
165 2 2.2208 10.9748 1.21118 -0.290784
161 2 2.2208 13.7295 4.18018 -0.332263
8913 2 2.2208 -0.434336 6.85084 10.9741
163 2 2.2208 2.47251 6.81343 13.7073
8810 2 2.2208 13.7862 4.16634 5.3071
8886 2 2.2208 -0.283655 4.00787 2.51561
234 2 2.2208 5.22404 3.85769 13.709
321 2 2.2208 5.34821 1.08131 -0.201709
331 2 2.2208 10.9272 6.86598 -0.238502
8985 2 2.2208 -0.33063 6.77332 -0.330431
172 2 2.2208 5.2487 1.22982 16.6282
173 1 -1.1104 1.15487 -3.01126 17.9153
174 1 -1.1104 1.22647 2.45122 18.0145
177 1 -1.1104 1.21128 -3.01791 15.077
179 1 -1.1104 1.11205 2.48359 15.1819
184 1 -1.1104 1.23965 -0.253459 17.7814
186 2 2.2208 5.4743 -1.74515 19.2611
187 2 2.2208 5.32869 3.95387 19.3323
188 1 -1.1104 1.08835 -0.22242 14.9854
192 1 -1.1104 3.90944 -3.15185 18.0451
193 1 -1.1104 4.0011 2.66086 18.0006
194 2 2.2208 2.62939 1.12824 19.3005
195 1 -1.1104 4.16501 -2.90309 15.3784
197 1 -1.1104 3.95887 2.59209 15.2402
199 2 2.2208 2.50119 -1.68303 16.51
200 2 2.2208 2.43632 3.96117 16.562
201 1 -1.1104 3.89542 -0.277502 17.9275
202 1 -1.1104 3.83739 -0.0556054 15.1012
204 2 2.2208 5.31589 6.75786 16.5525
205 1 -1.1104 1.1466 7.968 17.7996
207 1 -1.1104 0.980304 8.15649 15.0549
211 1 -1.1104 1.08637 5.27812 17.8838
213 1 -1.1104 1.15096 5.34774 14.9831
218 2 2.2208 2.60972 6.89421 19.2664
219 1 -1.1104 3.92436 8.03192 15.1296
221 1 -1.1104 3.76518 5.54385 17.8955
222 1 -1.1104 3.88607 5.16872 15.1517
217 1 -1.1104 3.98075 8.21055 17.8564
220 1 -1.1104 4.01357 8.16244 20.613
196 1 -1.1104 3.95512 -2.99687 20.6984
185 1 -1.1104 6.72145 -0.0753354 17.9029
180 1 -1.1104 1.32746 2.52693 20.7129
182 1 -1.1104 6.68335 2.52329 15.222
210 1 -1.1104 6.74135 8.08348 20.6751
183 1 -1.1104 6.85459 2.44568 20.7393
209 1 -1.1104 6.5556 8.18751 15.1349
181 1 -1.1104 6.78167 -3.03283 20.599
203 1 -1.1104 3.98169 -0.376819 20.7654
223 1 -1.1104 4.11665 5.28239 20.8206
215 1 -1.1104 6.93577 5.32761 15.1426
191 1 -1.1104 6.85912 -0.344953 20.7134
9001 2 2.2208 13.7594 1.25218 19.3803
342 2 2.2208 8.16603 1.15709 13.7066
279 1 -1.1104 9.84512 2.63361 23.3934
8780 2 2.2208 2.69601 -4.41121 24.9088
168 2 2.2208 10.8963 3.90656 13.6425
212 1 -1.1104 6.65535 5.31142 17.9089
190 1 -1.1104 6.71599 -0.472714 15.1702
175 1 -1.1104 6.80515 -2.90386 17.5587
206 1 -1.1104 6.72227 8.31976 17.9989
176 1 -1.1104 6.86242 2.49107 17.9554
278 2 2.2208 8.14624 6.77458 13.8236
261 1 -1.1104 12.4164 8.30063 15.0691
268 1 -1.1104 9.53047 8.30694 15.1648
235 2 2.2208 11.0901 1.26875 16.517
236 1 -1.1104 12.2972 -2.94749 18.0387
237 1 -1.1104 12.4751 2.68811 17.8728
238 1 -1.1104 12.4109 -2.91743 15.298
240 1 -1.1104 12.2664 2.64508 14.9498
242 1 -1.1104 12.4528 -0.0362458 17.9206
243 2 2.2208 10.9885 -1.56497 19.2905
244 2 2.2208 11.0116 4.02404 19.2812
245 1 -1.1104 12.4946 -0.406949 15.1019
247 1 -1.1104 9.50532 -2.73016 18.0986
248 1 -1.1104 9.67906 2.78283 17.8995
249 2 2.2208 8.175 1.29366 19.358
250 1 -1.1104 9.61515 -2.85123 15.3427
252 1 -1.1104 9.43823 2.57228 15.0974
254 2 2.2208 8.26953 -1.38407 16.6413
255 2 2.2208 8.16325 3.91633 16.5086
256 1 -1.1104 9.56585 -0.0253681 18.0903
257 1 -1.1104 9.69117 0.0193816 15.2461
259 2 2.2208 10.9678 6.90311 16.4946
260 1 -1.1104 12.3082 8.2781 17.9973
263 1 -1.1104 12.4048 5.35575 17.9512
264 1 -1.1104 12.4173 5.55816 15.2344
266 1 -1.1104 9.52501 8.19179 17.9116
267 2 2.2208 8.21398 6.67427 19.2478
270 1 -1.1104 9.45044 5.37718 17.9157
271 1 -1.1104 9.66479 5.34248 15.046
258 1 -1.1104 9.50209 -0.278166 20.7355
262 1 -1.1104 12.2673 8.31527 20.6754
340 1 -1.1104 12.6442 2.74082 23.4838
231 2 2.2208 -0.144699 3.93387 24.9453
334 1 -1.1104 9.40189 5.29986 26.4288
216 1 -1.1104 6.86337 5.30377 20.6965
8778 2 2.2208 11.0677 -4.34002 16.4729
253 1 -1.1104 9.70984 2.51897 20.6593
343 2 2.2208 8.08707 4.01746 27.9597
189 1 -1.1104 1.23692 -0.0699676 20.7273
214 1 -1.1104 1.14374 5.48115 20.7885
280 1 -1.1104 9.72824 -2.86541 23.6647
329 1 -1.1104 9.62563 -0.124604 26.4336
330 1 -1.1104 9.61358 -0.0840169 23.6179
178 1 -1.1104 1.2132 -2.87925 20.641
198 1 -1.1104 4.15625 2.53647 20.7619
208 1 -1.1104 1.33472 8.02093 20.7966
273 2 2.2208 -0.176134 6.85815 22.2611
316 1 -1.1104 3.81061 8.14949 23.6474
283 2 2.2208 5.4402 1.00558 22.1226
284 1 -1.1104 1.17976 -3.02928 23.4012
285 1 -1.1104 1.19079 2.67819 23.6053
288 1 -1.1104 1.15052 -3.09694 26.344
289 1 -1.1104 1.31011 2.49602 26.3714
292 1 -1.1104 1.18294 -0.245937 23.6164
294 2 2.2208 5.5123 -1.53074 25.0998
295 2 2.2208 5.34068 3.84047 24.9888
296 1 -1.1104 1.27875 -0.227407 26.2748
298 1 -1.1104 4.01229 -3.03808 23.4663
299 1 -1.1104 4.07794 2.44437 23.5528
300 2 2.2208 2.58945 1.27466 24.9694
301 1 -1.1104 3.98379 -2.99772 26.2323
302 1 -1.1104 4.09627 2.5296 26.5087
303 2 2.2208 2.62758 -1.58459 22.1903
304 2 2.2208 2.81246 3.86574 22.1155
305 1 -1.1104 4.1143 -0.292949 23.7327
306 1 -1.1104 4.0935 -0.287285 26.4531
307 2 2.2208 5.47931 6.57608 22.1341
308 1 -1.1104 1.01906 8.21734 23.6138
312 1 -1.1104 1.21354 5.35166 23.5375
314 1 -1.1104 1.07067 5.40273 26.5454
317 2 2.2208 2.39988 6.81633 25.0726
318 1 -1.1104 3.74756 8.15996 26.4036
319 1 -1.1104 3.98637 5.28722 23.5585
320 1 -1.1104 3.84807 5.35423 26.3823
310 1 -1.1104 0.981748 8.11515 26.3147
311 1 -1.1104 6.61838 8.08633 26.2691
286 1 -1.1104 6.89657 -3.06602 23.551
313 1 -1.1104 6.72828 5.3185 23.5422
167 2 2.2208 11.0141 -1.64305 13.8187
265 1 -1.1104 12.5168 5.59369 20.6374
272 1 -1.1104 9.70024 5.24055 20.8027
246 1 -1.1104 12.3803 -0.159003 20.7871
239 1 -1.1104 12.5205 -2.93608 20.7273
241 1 -1.1104 12.4745 2.67973 20.6199
332 2 2.2208 10.975 4.04335 24.8633
287 1 -1.1104 6.83117 2.50106 23.4678
315 1 -1.1104 6.55246 5.25968 26.3677
293 1 -1.1104 6.81755 -0.303084 23.5047
309 1 -1.1104 6.75206 8.00258 23.5118
297 1 -1.1104 6.86162 -0.140821 26.4128
339 1 -1.1104 12.5599 -3.05823 23.5725
290 1 -1.1104 6.79077 -2.8435 26.3972
291 1 -1.1104 6.8987 2.60838 26.3155
281 1 -1.1104 12.6426 -0.228946 26.2274
324 1 -1.1104 12.8339 2.66109 26.2441
251 1 -1.1104 9.56185 -2.90361 20.8432
282 1 -1.1104 12.2966 5.36453 26.4564
337 2 2.2208 8.15259 6.7215 25.1201
269 1 -1.1104 9.50002 8.24533 20.7755
326 1 -1.1104 12.3089 8.33186 26.2989
333 2 2.2208 10.9775 -1.51277 24.9107
335 1 -1.1104 9.4716 5.38078 23.5519
225 2 2.2208 13.7974 4.20593 22.023
327 1 -1.1104 12.4005 8.24241 23.4784
230 2 2.2208 -0.175552 6.71043 16.4776
338 2 2.2208 10.9696 1.2411 22.037
328 2 2.2208 10.9468 6.82561 22.0383
325 1 -1.1104 12.3643 5.44217 23.5236
277 1 -1.1104 9.59899 8.08719 23.6184
229 2 2.2208 8.28191 -1.65758 22.1115
323 1 -1.1104 12.4278 -0.245663 23.5778
227 2 2.2208 13.807 1.28234 24.8368
336 1 -1.1104 9.48477 8.05805 26.513
224 2 2.2208 8.16756 3.90653 22.1689
232 1 -1.1104 9.86968 2.4866 26.2656
275 2 2.2208 8.27606 1.24892 24.9965
341 1 -1.1104 12.415 -3.03271 26.3354
274 1 -1.1104 9.55736 -2.95281 26.328
322 2 2.2208 2.67454 -1.63988 27.7251
226 2 2.2208 -0.0859333 3.97602 19.4181
228 2 2.2208 13.8634 -1.57336 22.2207
9002 2 2.2208 -0.172675 1.31497 22.1581
9073 2 2.2208 -0.142599 -1.5086 19.399
9008 2 2.2208 13.7744 4.08912 16.3591
171 2 2.2208 5.17234 6.76249 27.667
170 2 2.2208 2.50366 3.88662 27.8785
169 2 2.2208 5.12707 -1.34551 13.8282
345 2 2.2208 5.31691 12.2945 5.2859
346 1 -1.1104 1.01457 10.9101 1.05131
350 2 2.2208 5.25206 9.52053 2.52097
351 1 -1.1104 0.98743 11.2063 3.86148
353 2 2.2208 2.4403 12.4306 2.42627
354 2 2.2208 2.3167 9.74441 5.18349
355 1 -1.1104 3.83323 11.0132 0.870365
357 1 -1.1104 3.69032 10.9683 3.70525
358 2 2.2208 5.20907 17.9883 5.26671
359 1 -1.1104 1.06582 13.6567 1.11912
361 1 -1.1104 1.01511 19.2521 1.0798
365 1 -1.1104 1.09824 13.8799 3.79449
366 1 -1.1104 1.17472 19.6068 3.82243
369 1 -1.1104 0.857495 16.5531 0.957577
372 2 2.2208 5.29264 15.1212 2.4803
373 2 2.2208 5.02689 20.8521 2.27463
374 1 -1.1104 0.99542 16.772 3.82316
376 1 -1.1104 3.84186 13.7722 1.01566
378 1 -1.1104 3.75884 19.3654 1.12731
380 2 2.2208 2.42766 17.953 2.48075
381 1 -1.1104 3.98417 13.6444 3.84506
382 1 -1.1104 4.1165 19.4747 3.84473
383 2 2.2208 2.55238 15.1274 5.23051
384 2 2.2208 2.56305 20.9521 5.25543
385 1 -1.1104 3.83945 16.4415 1.12775
387 1 -1.1104 3.87664 16.574 3.88599
356 1 -1.1104 3.78074 10.9859 6.43747
347 1 -1.1104 1.11966 11.0172 6.73008
360 1 -1.1104 1.08748 13.7825 6.61172
352 1 -1.1104 6.70864 10.7969 3.83338
402 1 -1.1104 6.71121 19.2525 1.28433
386 1 -1.1104 3.77044 16.5365 6.64545
370 1 -1.1104 1.11255 16.5447 6.8622
445 1 -1.1104 1.09045 19.5098 6.5723
9331 2 2.2208 13.7226 9.56705 -0.299964
495 2 2.2208 13.8059 9.48217 11.0374
368 2 2.2208 -0.229465 17.9853 5.41926
391 2 2.2208 -0.28737 20.839 2.50264
492 2 2.2208 13.7423 15.2147 5.25489
9273 2 2.2208 -0.473419 9.63654 2.42205
348 1 -1.1104 6.73454 11.0465 1.0078
362 1 -1.1104 6.60236 13.7633 1.13003
375 1 -1.1104 6.70981 16.648 3.77662
403 1 -1.1104 6.60992 16.5152 1.09167
364 1 -1.1104 6.48868 19.316 6.56216
367 1 -1.1104 6.63644 13.8968 3.75961
349 1 -1.1104 6.76909 11.1715 6.47699
481 1 -1.1104 12.2645 19.5164 9.7337
392 2 2.2208 10.9074 12.4711 5.29317
393 1 -1.1104 12.2712 10.9792 1.12571
395 2 2.2208 10.8611 9.52287 2.41598
396 1 -1.1104 12.1474 11.0264 3.82083
397 2 2.2208 8.06849 12.3231 2.53597
398 2 2.2208 8.16248 9.62045 5.41643
399 1 -1.1104 9.39448 10.8141 1.14832
401 1 -1.1104 9.44647 10.9384 4.07107
404 2 2.2208 10.8586 18.0181 5.39702
405 1 -1.1104 12.3453 13.6417 1.00327
407 1 -1.1104 12.3877 19.3538 1.11544
409 1 -1.1104 12.4937 13.807 3.87269
410 1 -1.1104 12.2435 19.2403 3.83739
411 1 -1.1104 12.4983 16.6026 1.13193
413 2 2.2208 11.0728 15.1534 2.4645
414 2 2.2208 10.9175 20.7384 2.63834
415 1 -1.1104 12.4354 16.6202 3.87716
416 1 -1.1104 9.44059 13.7845 1.09941
418 1 -1.1104 9.46156 19.3399 0.996538
420 2 2.2208 8.31708 17.8469 2.48307
421 1 -1.1104 9.64682 13.7297 3.84323
422 1 -1.1104 9.63558 19.4056 3.75779
423 2 2.2208 8.17383 15.2891 5.17368
424 1 -1.1104 9.5817 16.4394 1.06538
426 1 -1.1104 9.6728 16.4746 3.79746
408 1 -1.1104 12.5111 19.4919 6.79924
406 1 -1.1104 12.2408 13.8657 6.59362
412 1 -1.1104 12.2587 16.5991 6.72556
417 1 -1.1104 9.49322 13.9292 6.80295
400 1 -1.1104 9.53704 11.0587 6.8913
394 1 -1.1104 12.3083 10.8298 6.69628
484 2 2.2208 8.10836 12.4579 8.15004
470 1 -1.1104 9.47021 19.4829 9.60693
472 2 2.2208 8.22761 18.1779 8.1221
482 1 -1.1104 12.354 13.7302 9.48821
379 1 -1.1104 3.90358 19.6276 6.62279
363 1 -1.1104 6.65708 13.8753 6.67839
377 1 -1.1104 3.72712 13.7354 6.49642
475 1 -1.1104 12.3762 16.726 9.62612
389 2 2.2208 10.9452 9.60501 8.06614
494 2 2.2208 13.5228 12.3444 8.07662
429 1 -1.1104 3.86176 19.4234 12.4022
430 1 -1.1104 4.06855 13.8098 12.2088
434 1 -1.1104 1.11274 19.3909 9.4983
435 1 -1.1104 1.26126 16.5982 9.54725
436 2 2.2208 5.45096 20.7953 7.92799
437 1 -1.1104 0.947914 13.67 9.48971
438 2 2.2208 5.40416 15.2525 8.01825
441 1 -1.1104 1.27577 19.4139 12.4022
442 1 -1.1104 1.20522 13.8116 12.3552
443 2 2.2208 5.30829 18.0477 10.8902
444 1 -1.1104 4.05662 19.3647 9.48588
446 2 2.2208 2.58185 18.0251 8.1097
447 1 -1.1104 4.10145 16.6496 9.42448
448 1 -1.1104 3.95632 13.8064 9.29446
450 1 -1.1104 1.04871 16.6171 12.3767
451 1 -1.1104 3.81657 16.5313 12.1839
452 2 2.2208 2.5707 20.7473 10.7676
453 2 2.2208 5.32735 12.3437 10.7453
454 1 -1.1104 0.988053 11.0297 12.54
456 2 2.2208 2.5643 15.1468 10.8435
457 1 -1.1104 0.79994 10.8636 9.65814
459 2 2.2208 2.59958 12.3173 7.91315
460 2 2.2208 2.38192 9.69326 11.0314
461 1 -1.1104 3.88892 11.0326 12.3909
462 1 -1.1104 3.70494 11.0303 9.5815
469 2 2.2208 8.13518 15.3024 11.0023
449 1 -1.1104 6.64015 16.6297 12.243
455 1 -1.1104 6.6859 11.0687 12.3735
480 1 -1.1104 9.54782 10.8699 12.4724
9247 2 2.2208 -0.300302 12.4033 10.9354
478 2 2.2208 10.8888 15.2517 8.12344
466 1 -1.1104 9.73645 16.6413 9.67795
464 2 2.2208 -0.171307 17.9746 10.962
479 1 -1.1104 12.3191 16.6045 12.3225
499 2 2.2208 5.40752 15.1177 13.7092
9278 2 2.2208 13.7327 20.736 5.29395
488 2 2.2208 10.7783 18.0267 11.0569
425 1 -1.1104 9.39142 16.6691 6.74374
473 1 -1.1104 9.36696 19.4385 12.3815
390 1 -1.1104 12.5052 11.1371 12.3126
477 1 -1.1104 9.55076 11.2524 9.59385
419 1 -1.1104 9.82428 19.314 6.94704
463 2 2.2208 10.9339 12.5106 10.8276
371 1 -1.1104 6.62257 16.4374 6.36397
433 1 -1.1104 6.64747 13.819 9.51035
432 1 -1.1104 6.88945 16.8478 9.32967
439 1 -1.1104 6.62446 19.3987 12.3333
431 1 -1.1104 6.65606 19.4919 9.49719
440 1 -1.1104 6.88411 13.9213 12.3065
388 1 -1.1104 12.3117 11.0451 9.50978
458 1 -1.1104 6.89873 11.0807 9.69236
474 1 -1.1104 9.52888 13.7743 12.3098
467 1 -1.1104 9.42963 16.5156 12.4152
483 2 2.2208 8.13654 9.58501 10.9117
471 1 -1.1104 9.48081 13.9473 9.44711
476 2 2.2208 10.9199 21.0072 8.18996
487 1 -1.1104 12.4131 13.9102 12.3741
486 1 -1.1104 12.1428 19.5561 12.5368
468 2 2.2208 7.95989 20.8538 10.881
496 2 2.2208 -0.375337 9.53164 7.99477
500 2 2.2208 10.7987 20.9488 13.6908
491 2 2.2208 13.6144 9.60413 5.32519
465 2 2.2208 -0.333376 15.129 8.1263
485 2 2.2208 13.8076 15.2317 10.8824
490 2 2.2208 10.8616 12.433 -0.341589
638 2 2.2208 -0.289141 12.3693 -0.259988
633 2 2.2208 2.31984 20.8235 -0.432839
637 2 2.2208 5.22189 12.2806 -0.464087
503 2 2.2208 13.6229 17.9736 13.7685
501 2 2.2208 10.8775 15.2457 13.8472
504 2 2.2208 11.0441 9.73854 13.6796
559 2 2.2208 -0.310625 15.2409 13.7255
506 2 2.2208 8.15215 12.4722 13.6436
507 2 2.2208 5.24851 17.911 -0.295054
557 2 2.2208 5.35586 9.73886 13.8426
596 2 2.2208 8.07071 15.1049 -0.317152
509 2 2.2208 5.33698 12.4168 16.5596
510 1 -1.1104 1.14662 11.1068 17.9683
512 2 2.2208 5.28088 9.57952 19.3058
513 1 -1.1104 1.1206 11.0004 15.2365
517 2 2.2208 2.55743 12.3854 19.2905
518 2 2.2208 2.44779 9.70486 16.6606
519 1 -1.1104 3.98021 11.0599 17.8858
520 1 -1.1104 3.83847 10.943 15.0847
522 2 2.2208 5.31417 18.1263 16.5624
523 1 -1.1104 1.19523 13.9277 18.0852
524 1 -1.1104 1.17008 19.5552 18.0165
527 1 -1.1104 1.01234 13.8348 15.2808
529 1 -1.1104 1.17355 19.3425 15.0745
535 1 -1.1104 1.03522 16.7787 17.9626
537 2 2.2208 5.21763 15.3293 19.278
538 2 2.2208 5.23504 20.8781 19.2864
539 1 -1.1104 0.982282 16.6386 15.2093
543 1 -1.1104 3.8748 13.7633 17.8802
544 1 -1.1104 3.85112 19.5354 17.969
545 2 2.2208 2.53995 18.0527 19.328
546 1 -1.1104 3.97052 13.6733 15.1424
548 1 -1.1104 3.83278 19.599 15.1759
550 2 2.2208 2.42847 15.2665 16.556
551 2 2.2208 2.39761 20.8639 16.5243
552 1 -1.1104 3.77838 16.6805 17.7926
553 1 -1.1104 3.94851 16.655 15.0207
533 1 -1.1104 6.43026 19.5799 15.0918
528 1 -1.1104 0.990867 13.9998 20.7561
536 1 -1.1104 6.57497 16.7319 17.9986
549 1 -1.1104 3.86964 19.5142 20.7446
516 1 -1.1104 6.77739 10.9109 20.6308
531 1 -1.1104 6.64255 13.9167 15.1576
511 1 -1.1104 6.69881 11.0668 17.8849
530 1 -1.1104 1.19966 19.4614 20.7779
540 1 -1.1104 1.0193 16.5757 20.8146
554 1 -1.1104 3.91619 16.6494 20.6157
595 2 2.2208 -0.316702 15.2563 19.4032
668 2 2.2208 10.8696 12.4439 22.1577
534 1 -1.1104 6.67953 19.4302 20.5666
9428 2 2.2208 -0.301059 12.3014 16.6703
556 2 2.2208 -0.267465 20.8514 13.6557
541 1 -1.1104 6.75677 16.5509 15.1233
526 1 -1.1104 6.6603 19.5804 17.8633
525 1 -1.1104 6.64676 13.913 18.0023
515 1 -1.1104 6.8182 11.1264 15.1254
560 2 2.2208 10.9079 12.6556 16.4408
561 1 -1.1104 12.3093 11.1372 17.8178
562 2 2.2208 10.7864 9.65387 19.3152
563 1 -1.1104 12.48 11.0468 15.1401
565 2 2.2208 8.16437 12.3689 19.3887
566 2 2.2208 8.17611 9.56445 16.4342
567 1 -1.1104 9.53003 11.2482 17.9847
568 1 -1.1104 9.63199 11.1158 15.1206
570 2 2.2208 10.8575 18.1063 16.5487
571 1 -1.1104 12.1907 13.8857 18.0753
572 1 -1.1104 12.2399 19.6092 17.9184
573 1 -1.1104 12.3309 13.9371 15.1803
575 1 -1.1104 12.1701 19.4783 15.2546
577 1 -1.1104 12.2839 16.7417 17.9344
578 2 2.2208 10.7629 15.2629 19.3424
579 2 2.2208 10.9363 20.9624 19.3128
580 1 -1.1104 12.178 16.609 15.1945
582 1 -1.1104 9.5362 13.9787 17.8946
583 1 -1.1104 9.42652 19.5337 17.7986
584 2 2.2208 8.04864 18.1476 19.2019
585 1 -1.1104 9.44514 13.8806 15.0633
587 1 -1.1104 9.29182 19.4967 15.0253
589 2 2.2208 7.99823 15.1863 16.6011
590 2 2.2208 7.91579 20.8633 16.4295
591 1 -1.1104 9.42117 16.6162 17.9747
592 1 -1.1104 9.47013 16.6311 15.1916
569 1 -1.1104 9.46552 11.0216 20.908
574 1 -1.1104 12.3273 13.7163 20.9539
581 1 -1.1104 12.4232 16.6061 20.5699
586 1 -1.1104 9.57674 13.7958 20.7074
564 1 -1.1104 12.1135 11.1344 20.7195
532 1 -1.1104 6.71755 13.7881 20.6546
593 1 -1.1104 9.49251 16.6905 20.7722
576 1 -1.1104 12.1642 19.4776 20.7787
666 1 -1.1104 12.3546 14.0213 23.6914
9429 2 2.2208 -0.302021 20.8535 19.4673
547 1 -1.1104 3.84751 13.8019 20.6961
646 1 -1.1104 9.42853 16.6331 23.547
642 2 2.2208 -0.298193 18.0437 22.0849
653 1 -1.1104 9.28858 19.528 23.4818
521 1 -1.1104 4.14481 11.0382 20.7471
514 1 -1.1104 1.47496 11.1764 20.9868
600 1 -1.1104 3.86326 19.5375 23.5256
602 1 -1.1104 3.95456 13.7954 23.5403
604 1 -1.1104 0.963176 19.5226 26.1121
605 1 -1.1104 1.11249 16.6178 26.2363
606 1 -1.1104 1.05047 13.821 26.4033
608 2 2.2208 5.21754 20.7613 25.0228
609 2 2.2208 5.25394 15.0911 24.9867
611 1 -1.1104 1.16928 19.3082 23.4842
612 1 -1.1104 1.0609 13.6539 23.6286
613 2 2.2208 5.31509 18.064 22.0381
614 1 -1.1104 3.74414 19.415 26.4303
615 2 2.2208 2.51513 17.9402 24.8656
616 1 -1.1104 3.83577 16.5375 26.3905
617 1 -1.1104 3.84536 13.7112 26.3437
619 1 -1.1104 1.16774 16.3675 23.5669
620 1 -1.1104 3.91384 16.5318 23.6176
621 2 2.2208 2.44185 20.9244 21.9555
622 2 2.2208 5.37178 12.3389 22.1083
623 1 -1.1104 1.06753 10.9445 23.6342
625 2 2.2208 2.52001 15.1004 22.1224
626 2 2.2208 5.27789 9.48835 24.8886
627 1 -1.1104 0.996958 10.9606 26.5284
629 2 2.2208 2.48199 12.3754 24.8819
630 2 2.2208 2.55883 9.49139 22.0756
631 1 -1.1104 3.85637 10.8189 23.5522
632 1 -1.1104 3.75839 10.8937 26.2506
601 1 -1.1104 6.76147 13.5131 26.3766
618 1 -1.1104 6.727 16.6715 23.4793
643 2 2.2208 -0.358883 9.6879 24.929
599 2 2.2208 13.7427 21.0274 16.4819
598 2 2.2208 13.6329 12.5023 19.3062
594 2 2.2208 -0.326774 18.1197 16.4898
9327 2 2.2208 -0.330368 20.8836 24.7776
542 1 -1.1104 6.70844 16.6972 20.8305
670 2 2.2208 10.8388 9.5144 24.9914
628 1 -1.1104 6.60569 10.7387 26.3561
607 1 -1.1104 6.56287 19.2838 23.8757
647 2 2.2208 7.9235 20.9038 22.128
651 1 -1.1104 6.70892 19.3344 26.5325
610 1 -1.1104 6.76002 13.8853 23.6042
603 1 -1.1104 6.74384 16.5172 26.4103
663 2 2.2208 7.98861 9.55551 22.1417
645 1 -1.1104 9.62162 16.6198 26.493
588 1 -1.1104 9.39396 19.5129 20.7685
428 2 2.2208 8.09172 20.7133 27.9167
656 1 -1.1104 9.30847 10.9159 26.3859
667 2 2.2208 10.8076 18.1513 22.1234
555 2 2.2208 13.6748 20.8991 22.3383
658 2 2.2208 10.8982 15.3631 24.9717
660 1 -1.1104 12.2861 19.5226 26.3981
671 1 -1.1104 12.1198 11.0179 26.3699
624 1 -1.1104 6.66706 11.0477 23.437
652 2 2.2208 8.03347 17.9037 24.9036
657 2 2.2208 10.7901 20.7853 24.9322
662 1 -1.1104 9.53212 10.9719 23.699
649 1 -1.1104 9.37923 19.3174 26.3521
650 1 -1.1104 9.56045 13.8969 26.2052
665 1 -1.1104 12.1075 19.3776 23.686
655 1 -1.1104 12.3269 16.6673 26.3334
659 1 -1.1104 12.1957 16.6009 23.4832
661 1 -1.1104 12.3314 13.8071 26.4251
664 2 2.2208 8.11433 12.3423 24.9458
648 2 2.2208 8.07488 15.2534 22.1249
669 1 -1.1104 12.2803 11.0245 23.5941
654 1 -1.1104 9.50222 13.7896 23.4916
502 2 2.2208 7.9449 18.0011 13.7513
508 2 2.2208 2.38432 9.5787 27.8303
644 2 2.2208 8.0213 9.54247 27.7379
498 2 2.2208 5.11017 20.8542 13.6212
672 2 2.2208 13.6404 20.8445 27.7695
636 2 2.2208 11.0796 17.9721 27.7544
9332 2 2.2208 -0.367421 17.9572 27.7247
497 2 2.2208 2.48752 17.9762 13.7719
558 2 2.2208 2.43373 12.3927 13.749
635 2 2.2208 2.39401 15.19 27.6564
673 2 2.2208 5.23262 23.8354 5.3055
674 2 2.2208 5.15214 28.9948 5.35081
675 1 -1.1104 1.171 25.128 1.06734
676 1 -1.1104 0.99335 25.0309 4.03038
677 1 -1.1104 1.00276 22.2337 1.09021
678 1 -1.1104 1.08734 27.9942 1.11116
679 2 2.2208 5.31337 26.3814 2.40693
680 1 -1.1104 1.10573 22.2759 3.82348
681 1 -1.1104 1.20374 28.0049 3.90533
683 1 -1.1104 3.88266 25.0838 1.24386
684 2 2.2208 2.31307 23.6712 2.43592
685 2 2.2208 2.49334 29.2785 2.53357
686 1 -1.1104 3.68673 24.946 3.8186
687 2 2.2208 2.35782 26.4559 5.33935
688 1 -1.1104 3.84109 22.3341 0.968125
689 1 -1.1104 3.81499 27.9157 1.19631
690 1 -1.1104 4.01213 22.2243 3.81428
691 1 -1.1104 3.78142 27.7867 3.95393
692 1 -1.1104 1.07933 30.6733 1.11508
693 1 -1.1104 1.02521 30.7193 3.7758
694 1 -1.1104 0.949996 33.3835 1.10998
695 2 2.2208 5.25493 32.0574 2.41392
696 1 -1.1104 1.06859 33.49 3.81608
698 1 -1.1104 3.91163 30.662 1.08193
699 1 -1.1104 3.95068 30.5913 3.78902
700 2 2.2208 2.49644 31.9848 5.24064
701 1 -1.1104 3.86229 33.3985 0.842774
702 1 -1.1104 3.81981 33.5296 3.75775
747 1 -1.1104 1.13595 22.2541 6.62381
756 1 -1.1104 0.894845 33.5158 6.87396
697 1 -1.1104 6.65127 33.2238 4.09321
754 1 -1.1104 1.14211 30.7734 6.70573
748 1 -1.1104 1.06537 27.8333 6.73835
708 1 -1.1104 6.60895 22.1868 1.39413
745 1 -1.1104 0.97272 25.0604 6.72671
807 2 2.2208 10.9077 29.4247 10.9081
820 1 -1.1104 9.40741 22.3384 12.3536
9610 2 2.2208 -0.286018 29.2535 5.26624
9608 2 2.2208 -0.239528 26.4779 2.53326
731 1 -1.1104 6.7739 33.3381 1.32201
710 1 -1.1104 6.5719 27.566 3.97172
707 1 -1.1104 6.5859 24.8146 3.65889
729 1 -1.1104 6.78787 30.5208 1.16626
730 1 -1.1104 6.7479 30.409 4.17175
746 1 -1.1104 6.67759 25.1446 6.59576
750 1 -1.1104 6.68159 27.7798 6.71679
706 1 -1.1104 6.73494 25.0023 0.938806
709 1 -1.1104 6.5818 27.8964 1.02746
711 2 2.2208 10.7837 23.6899 5.29837
712 2 2.2208 11.0007 29.3221 5.24441
713 1 -1.1104 12.2349 25.0184 1.10398
714 1 -1.1104 12.154 25.1462 3.93433
715 1 -1.1104 12.2112 22.1865 1.15658
716 1 -1.1104 12.2087 27.912 0.918844
717 2 2.2208 10.9432 26.3993 2.43363
718 1 -1.1104 12.3846 22.1637 3.85999
719 1 -1.1104 12.2197 27.8769 3.65208
720 1 -1.1104 9.53005 25.0649 0.928216
721 2 2.2208 8.2937 23.7091 2.34718
722 2 2.2208 8.10324 29.1942 2.50539
723 1 -1.1104 9.34629 25.1735 3.77741
724 2 2.2208 8.05572 26.3206 5.24323
725 1 -1.1104 9.52371 22.143 1.09212
726 1 -1.1104 9.33228 27.8209 0.933803
727 1 -1.1104 9.53204 22.4499 3.66565
728 1 -1.1104 9.56429 27.8583 4.02501
732 1 -1.1104 12.3696 30.686 1.09924
733 1 -1.1104 12.4644 30.6839 3.89416
734 1 -1.1104 12.5174 33.4801 1.08555
735 2 2.2208 11.0141 31.9846 2.35149
736 1 -1.1104 12.275 33.3315 3.87522
737 1 -1.1104 9.548 30.5801 1.00712
738 1 -1.1104 9.53811 30.5832 3.72189
739 2 2.2208 8.13225 31.933 5.34707
740 1 -1.1104 9.67372 33.382 1.18011
741 1 -1.1104 9.50363 33.4261 3.89741
804 1 -1.1104 9.59294 30.5307 6.57658
803 1 -1.1104 12.3697 33.4218 6.54968
799 1 -1.1104 9.44178 25.2203 6.714
797 1 -1.1104 12.3928 22.2246 6.49975
805 1 -1.1104 9.48779 33.4072 6.54391
796 1 -1.1104 12.3223 24.9859 6.6643
798 1 -1.1104 12.1808 27.928 6.59943
802 1 -1.1104 12.4737 30.723 6.65732
811 1 -1.1104 12.3137 27.8587 12.157
801 1 -1.1104 9.32827 27.7677 6.61287
808 1 -1.1104 12.2175 25.1849 12.2886
822 1 -1.1104 9.45371 22.3076 9.66057
758 1 -1.1104 3.87519 30.6549 6.57274
749 1 -1.1104 6.52836 22.4543 6.50609
751 1 -1.1104 3.87401 25.1731 6.76794
752 1 -1.1104 3.88726 22.479 6.64476
759 1 -1.1104 3.74661 33.3723 6.55193
753 1 -1.1104 3.81847 27.8206 6.84813
760 2 2.2208 5.30098 23.5821 10.9195
761 2 2.2208 5.14162 29.1101 10.9896
762 1 -1.1104 1.01162 25.0151 12.3493
764 1 -1.1104 1.16514 24.9235 9.65912
766 1 -1.1104 1.0197 22.2889 12.2633
767 1 -1.1104 1.0403 27.9529 12.2358
770 2 2.2208 5.2804 26.4319 8.08835
771 1 -1.1104 0.986561 22.0661 9.39445
772 1 -1.1104 1.01625 27.9738 9.53217
775 1 -1.1104 3.98598 25.0729 12.4288
776 2 2.2208 2.35092 23.5039 8.14496
777 2 2.2208 2.52874 29.2897 8.12004
778 1 -1.1104 3.90738 25.0495 9.56731
779 2 2.2208 2.36514 26.4181 10.8898
780 1 -1.1104 3.69946 22.2882 12.1479
781 1 -1.1104 3.87291 27.7792 12.4971
782 1 -1.1104 3.94832 22.034 9.22247