ITEM: TIMESTEP
100000
ITEM: NUMBER OF ATOMS
17820
ITEM: BOX BOUNDS pp pp pp
-3.6298618551902040e-01 2.7702986185519229e+01
-4.4166176176903740e+00 3.3249661761769596e+02
-3.6177117115741098e-01 2.7701771171157677e+01
ITEM: ATOMS id type q x y z
1 2 2.2208 5.15921 1.15796 5.23223
2 1 -1.1104 1.15703 -2.94444 0.900818
3 1 -1.1104 1.07399 2.71142 0.992871
6 1 -1.1104 1.18625 -2.99091 3.86184
7 1 -1.1104 1.13658 2.61912 3.69678
10 1 -1.1104 1.05786 0.000461909 1.07797
12 2 2.2208 5.30535 -1.44197 2.44036
13 2 2.2208 5.25304 3.97797 2.46608
14 1 -1.1104 1.12013 -0.240621 3.78602
16 1 -1.1104 3.90054 -3.01145 1.02952
17 1 -1.1104 3.86024 2.53103 1.08303
18 2 2.2208 2.53143 1.13148 2.49231
19 1 -1.1104 3.944 -3.03993 3.84081
20 1 -1.1104 3.9941 2.65999 3.9022
21 2 2.2208 2.48953 -1.58112 5.28803
22 2 2.2208 2.42787 4.13999 5.29353
23 1 -1.1104 3.83047 -0.221698 1.02271
24 1 -1.1104 3.91204 -0.194258 3.79066
25 2 2.2208 5.32161 6.89315 5.27819
28 1 -1.1104 0.87794 8.37963 3.83357
30 1 -1.1104 1.03775 5.48323 0.899658
32 1 -1.1104 1.16048 5.50779 3.91574
34 1 -1.1104 3.98681 8.16031 1.28313
35 2 2.2208 2.32849 6.77376 2.48037
36 1 -1.1104 3.59459 8.18418 4.436
37 1 -1.1104 3.85535 5.24229 0.982195
38 1 -1.1104 3.92132 5.31051 3.94398
76 2 2.2208 13.6798 -1.47943 5.24376
26 1 -1.1104 1.05233 8.17833 1.08457
80 1 -1.1104 1.12779 -2.97741 6.56142
87 1 -1.1104 3.84404 2.66785 6.64502
8948 2 2.2208 -0.395384 -1.55756 2.27593
81 1 -1.1104 0.982445 2.64018 6.57625
93 1 -1.1104 3.74236 5.59586 6.80177
29 1 -1.1104 6.53457 8.26374 3.62344
11 1 -1.1104 6.67274 -0.0969813 1.03856
88 1 -1.1104 3.61971 -0.133981 6.57063
86 1 -1.1104 3.95408 -2.94939 6.55519
84 1 -1.1104 0.920652 -0.126681 6.53068
8 1 -1.1104 6.71321 -2.94676 3.82798
15 1 -1.1104 6.69994 -0.22352 3.75859
83 1 -1.1104 6.56757 2.56416 6.70396
92 1 -1.1104 6.7408 5.37252 6.58505
90 1 -1.1104 6.74325 8.04449 6.57929
91 1 -1.1104 1.00594 5.45088 6.56516
8892 2 2.2208 -0.365976 1.2999 5.23155
17623 2 2.2208 13.6437 -4.3205 2.42784
41 2 2.2208 13.5481 -1.47127 10.831
42 2 2.2208 13.5942 1.38889 8.03255
31 1 -1.1104 6.61247 5.29173 1.099
4 1 -1.1104 6.72562 -2.9506 1.12931
5 1 -1.1104 6.64236 2.63066 0.989842
9 1 -1.1104 6.78389 2.56885 3.76416
27 1 -1.1104 6.69368 8.13337 0.932745
33 1 -1.1104 6.80196 5.36435 3.77776
46 2 2.2208 10.8307 1.25492 5.25079
47 1 -1.1104 12.2096 -2.89924 1.12872
48 1 -1.1104 12.1958 2.77134 0.948873
49 1 -1.1104 12.229 -2.91544 3.98109
50 1 -1.1104 12.4224 2.63327 3.68921
51 1 -1.1104 12.335 -0.0514862 1.04089
52 2 2.2208 10.8533 -1.68116 2.49708
53 2 2.2208 10.9256 4.08582 2.45575
54 1 -1.1104 12.3263 -0.130808 3.88955
55 1 -1.1104 9.52916 -2.94063 1.06886
56 1 -1.1104 9.4336 2.57615 0.988407
57 2 2.2208 8.1542 1.31531 2.37082
58 1 -1.1104 9.41258 -2.89328 3.79964
59 1 -1.1104 9.54326 2.74598 3.83171
60 2 2.2208 8.06696 -1.63968 5.29283
61 2 2.2208 8.13245 3.99381 5.19077
62 1 -1.1104 9.55024 -0.137567 1.10734
63 1 -1.1104 9.55919 -0.162383 3.79768
65 2 2.2208 10.8398 6.93604 5.19587
68 1 -1.1104 12.2829 5.57846 0.963163
69 1 -1.1104 12.3047 5.40366 3.83834
70 1 -1.1104 9.48638 8.22268 0.981106
71 2 2.2208 8.02111 6.76925 2.3412
72 1 -1.1104 9.35836 8.2806 3.71257
73 1 -1.1104 9.51839 5.28546 0.910473
74 1 -1.1104 9.4044 5.48549 3.83328
66 1 -1.1104 12.2086 8.48796 1.06061
67 1 -1.1104 12.3066 8.19911 3.77797
139 1 -1.1104 9.42259 -3.06135 6.54818
140 1 -1.1104 9.38321 2.48065 6.59946
143 1 -1.1104 12.2368 5.45536 6.67329
142 1 -1.1104 12.2691 8.22916 6.59052
39 2 2.2208 13.4738 6.90498 8.04983
141 1 -1.1104 9.36749 -0.138523 6.75477
137 1 -1.1104 12.1415 2.70452 6.7099
138 1 -1.1104 12.2177 -0.0457218 6.57891
146 1 -1.1104 9.52437 5.46835 6.66471
278 2 2.2208 7.9681 6.81107 13.699
8951 2 2.2208 13.598 6.88391 13.7694
234 2 2.2208 5.12016 3.98655 13.7403
89 1 -1.1104 1.31854 8.21284 6.62116
119 1 -1.1104 6.55284 8.14443 12.2824
85 1 -1.1104 6.64831 -0.368036 6.55059
147 1 -1.1104 9.37246 5.42659 12.3401
101 1 -1.1104 6.73559 2.63422 9.50201
94 2 2.2208 5.14037 1.15466 10.7336
95 1 -1.1104 1.10197 -2.87161 12.124
96 1 -1.1104 0.944412 2.75577 12.2188
98 1 -1.1104 1.02694 -2.86583 9.39029
99 1 -1.1104 0.934821 2.83829 9.40793
102 1 -1.1104 0.986029 -0.052304 12.0978
104 2 2.2208 5.18347 -1.6568 8.08346
105 2 2.2208 5.25463 4.16201 7.96297
106 1 -1.1104 1.03898 -0.0900555 9.32507
108 1 -1.1104 4.06543 -3.03508 12.2624
109 1 -1.1104 3.7847 2.71244 12.1351
110 2 2.2208 2.38983 1.41464 7.9112
111 1 -1.1104 3.63627 -2.91369 9.38599
112 1 -1.1104 3.86819 2.74928 9.47357
113 2 2.2208 2.29679 -1.48968 10.7556
114 2 2.2208 2.30021 4.15319 10.7041
115 1 -1.1104 3.83961 -0.112455 12.1189
116 1 -1.1104 3.914 -0.03379 9.24417
117 2 2.2208 5.27506 6.72529 10.9185
118 1 -1.1104 0.881282 8.40148 12.0051
120 1 -1.1104 1.27871 8.39053 9.41729
122 1 -1.1104 0.987512 5.51411 12.1591
124 1 -1.1104 0.992665 5.58578 9.34926
126 1 -1.1104 3.71636 8.26662 12.0019
127 2 2.2208 2.38734 6.92714 8.06663
129 1 -1.1104 3.78834 5.50543 12.3132
130 1 -1.1104 3.72408 5.7593 9.54956
163 2 2.2208 2.39333 6.94497 13.5299
133 1 -1.1104 12.2027 8.32655 12.3201
152 1 -1.1104 12.1589 -3.03333 12.3042
97 1 -1.1104 6.47622 2.44386 12.2743
82 1 -1.1104 6.65342 -3.097 6.87919
100 1 -1.1104 6.46296 -3.0124 9.86286
103 1 -1.1104 6.60411 -0.555888 12.3787
125 1 -1.1104 6.60435 5.39996 9.37894
154 1 -1.1104 12.0076 -2.96199 9.56476
158 2 2.2208 10.8676 4.00133 7.9889
8582 2 2.2208 8.03287 -4.42757 2.36933
149 2 2.2208 8.10562 6.86846 8.00679
123 1 -1.1104 6.61902 5.18308 12.2943
136 1 -1.1104 12.1806 -2.8219 6.62931
144 1 -1.1104 9.54889 8.37795 6.48405
145 1 -1.1104 9.49763 5.51904 9.48216
121 1 -1.1104 6.35484 8.12461 9.45568
134 1 -1.1104 9.20689 -2.87302 9.18618
44 1 -1.1104 9.39603 -0.0105248 12.2998
8835 2 2.2208 13.6998 1.17759 2.44435
157 2 2.2208 10.8324 -1.56675 8.02813
128 1 -1.1104 12.2538 5.37771 9.49903
135 2 2.2208 7.9836 1.15237 8.10188
40 2 2.2208 10.9053 6.90715 10.9
159 1 -1.1104 12.1928 -0.224332 9.30809
166 2 2.2208 10.8105 -4.35994 10.9357
131 1 -1.1104 12.0808 5.37377 12.2403
43 1 -1.1104 9.47678 -0.126712 9.49462
160 1 -1.1104 9.51833 -2.78178 12.1101
78 2 2.2208 8.04841 -1.42397 10.7377
107 1 -1.1104 6.56904 -0.240128 9.42914
132 1 -1.1104 12.1801 8.38596 9.55229
151 2 2.2208 10.8474 1.22743 10.8275
153 1 -1.1104 12.3621 2.69194 12.3541
79 1 -1.1104 9.45595 2.68876 9.35304
64 2 2.2208 8.03773 4.05076 10.8803
156 1 -1.1104 12.1308 -0.174032 12.0987
155 1 -1.1104 12.2478 2.59339 9.64352
45 1 -1.1104 9.29157 8.26595 12.3683
148 1 -1.1104 9.44381 8.22364 9.21909
150 1 -1.1104 9.38209 2.62431 12.1524
171 2 2.2208 5.25585 6.80308 -0.393576
331 2 2.2208 10.7758 6.94731 -0.443096
321 2 2.2208 5.33028 1.30231 -0.378081
172 2 2.2208 5.31416 1.10211 16.5307
173 1 -1.1104 0.87466 -3.09084 17.7215
174 1 -1.1104 1.19952 2.60828 17.8091
177 1 -1.1104 1.0041 -3.03484 15.0027
179 1 -1.1104 0.93529 2.6613 15.0734
184 1 -1.1104 1.01164 -0.334447 17.7574
186 2 2.2208 5.22057 -1.59147 19.2795
187 2 2.2208 5.12049 3.98027 19.3007
188 1 -1.1104 0.958186 -0.196398 14.806
192 1 -1.1104 3.62238 -2.9598 17.8367
193 1 -1.1104 3.90469 2.58622 17.8963
194 2 2.2208 2.42486 1.05418 19.2398
195 1 -1.1104 3.85245 -3.05186 15.028
197 1 -1.1104 3.60811 2.41442 15.0795
199 2 2.2208 2.41504 -1.6597 16.359
200 2 2.2208 2.52675 3.95177 16.504
201 1 -1.1104 3.84118 -0.213335 17.6831
202 1 -1.1104 3.77605 -0.0946441 14.8204
204 2 2.2208 5.12496 6.9285 16.4168
205 1 -1.1104 1.22403 8.10118 17.4794
207 1 -1.1104 0.944134 8.22105 14.8051
211 1 -1.1104 1.02596 5.34858 17.8685
213 1 -1.1104 1.03739 5.4988 15.0205
218 2 2.2208 2.3873 7.02779 19.1852
221 1 -1.1104 3.74832 5.51327 17.7982
222 1 -1.1104 3.8719 5.32259 15.0695
217 1 -1.1104 3.81324 8.35767 17.9357
219 1 -1.1104 3.6944 8.1881 14.9753
276 2 2.2208 13.7157 -1.63165 16.5674
203 1 -1.1104 3.90698 -0.21384 20.5546
220 1 -1.1104 3.80472 8.32181 20.6645
214 1 -1.1104 0.909965 5.1269 20.761
180 1 -1.1104 1.11481 2.33415 20.5568
190 1 -1.1104 6.49879 -0.623046 15.2277
196 1 -1.1104 3.82192 -2.95423 20.6153
273 2 2.2208 -0.190326 6.65201 22.1832
215 1 -1.1104 6.60183 5.44635 15.0392
175 1 -1.1104 6.59861 -3.02795 17.4394
176 1 -1.1104 6.64865 2.58605 17.941
181 1 -1.1104 6.55249 -3.13063 20.5137
183 1 -1.1104 6.65637 2.5981 20.7707
223 1 -1.1104 3.77518 5.39873 20.6141
8955 2 2.2208 -0.352964 1.19213 27.641
210 1 -1.1104 6.7323 8.28548 20.6483
209 1 -1.1104 6.43642 8.2459 15.1413
182 1 -1.1104 6.46222 2.50431 15.1086
212 1 -1.1104 6.505 5.40234 17.8266
206 1 -1.1104 6.59061 8.39607 17.7908
185 1 -1.1104 6.78438 -0.293292 18.0764
261 1 -1.1104 12.2329 8.40358 15.0336
268 1 -1.1104 9.34048 8.28169 14.9994
235 2 2.2208 10.7125 1.44711 16.439
236 1 -1.1104 12.1845 -2.99701 17.9651
237 1 -1.1104 12.1323 2.52978 17.8763
238 1 -1.1104 12.405 -2.90824 15.053
240 1 -1.1104 12.084 2.75073 15.1543
242 1 -1.1104 12.4816 -0.139588 17.8783
243 2 2.2208 10.7499 -1.46685 19.2558
244 2 2.2208 10.7346 3.98412 19.3969
245 1 -1.1104 12.0839 -0.00907924 14.99
247 1 -1.1104 9.44775 -3.06992 17.9245
248 1 -1.1104 9.47279 2.64508 17.9345
249 2 2.2208 8.04672 1.27308 19.4245
250 1 -1.1104 9.44698 -2.88587 15.1012
252 1 -1.1104 9.20643 2.63928 15.0254
254 2 2.2208 8.26437 -1.60159 16.602
255 2 2.2208 7.91048 4.00901 16.5193
256 1 -1.1104 9.53739 -0.140302 17.8777
257 1 -1.1104 9.33548 -0.110756 15.2303
259 2 2.2208 10.7955 6.82205 16.4076
260 1 -1.1104 12.5312 8.29361 17.8148
263 1 -1.1104 12.2852 5.42029 17.8712
264 1 -1.1104 12.3564 5.50946 15.1326
266 1 -1.1104 9.58921 8.17524 17.8429
267 2 2.2208 7.90479 6.79966 19.1842
270 1 -1.1104 9.25905 5.36018 17.9555
271 1 -1.1104 9.47489 5.38908 15.1297
8695 2 2.2208 10.8242 -4.35981 22.1047
265 1 -1.1104 12.0757 5.45201 20.5869
258 1 -1.1104 9.51727 -0.0650095 20.5905
216 1 -1.1104 6.49396 5.43522 20.6033
253 1 -1.1104 9.38829 2.53767 20.7789
262 1 -1.1104 12.3508 8.26041 20.7751
337 2 2.2208 7.9595 6.9029 24.7816
8781 2 2.2208 8.00871 -4.32987 24.833
9008 2 2.2208 13.6224 4.0547 16.5572
332 2 2.2208 10.8768 4.03979 24.8462
239 1 -1.1104 11.976 -2.83842 20.7568
269 1 -1.1104 9.54683 8.30232 20.6454
189 1 -1.1104 1.06845 -0.248927 20.516
198 1 -1.1104 3.77209 2.56864 20.5596
191 1 -1.1104 6.74853 -0.155114 20.8444
161 2 2.2208 13.5497 4.22139 27.7239
178 1 -1.1104 1.00359 -3.12521 20.6239
324 1 -1.1104 12.5314 2.59363 26.2307
208 1 -1.1104 1.19799 8.00982 20.8061
316 1 -1.1104 3.90862 8.09085 23.5066
283 2 2.2208 5.14327 1.18746 21.9948
284 1 -1.1104 1.05502 -2.97445 23.4242
285 1 -1.1104 1.15152 2.42794 23.3586
288 1 -1.1104 1.14905 -3.1948 26.2712
289 1 -1.1104 1.02558 2.71303 26.2164
292 1 -1.1104 1.11484 -0.317749 23.3857
294 2 2.2208 5.25801 -1.71343 24.9379
295 2 2.2208 5.22441 3.97029 24.8987
296 1 -1.1104 1.0963 -0.127496 26.3273
298 1 -1.1104 3.81512 -3.1145 23.4679
299 1 -1.1104 3.87018 2.66734 23.4042
300 2 2.2208 2.56423 1.16533 24.7944
301 1 -1.1104 3.80309 -3.06751 26.2998
302 1 -1.1104 3.72537 2.5559 26.2846
303 2 2.2208 2.46959 -1.75807 21.9935
304 2 2.2208 2.44506 4.00079 22.0593
305 1 -1.1104 4.01838 -0.250674 23.3383
306 1 -1.1104 3.79226 -0.383418 26.1755
307 2 2.2208 5.23289 6.87385 21.9716
308 1 -1.1104 1.03352 8.19478 23.5221
312 1 -1.1104 1.1308 5.33221 23.5309
314 1 -1.1104 1.01783 5.54125 26.316
317 2 2.2208 2.45873 6.83206 24.9671
318 1 -1.1104 3.70114 8.33768 26.3456
319 1 -1.1104 3.93331 5.42297 23.3606
320 1 -1.1104 3.80586 5.43679 26.1625
310 1 -1.1104 0.829945 8.4533 26.299
241 1 -1.1104 12.3497 2.78997 20.6547
9002 2 2.2208 -0.437342 1.19024 22.0366
322 2 2.2208 2.43542 -1.65997 27.6153
297 1 -1.1104 6.57425 -0.0896312 26.2859
309 1 -1.1104 6.79438 8.26908 23.4309
226 2 2.2208 -0.326971 4.02753 19.0838
313 1 -1.1104 6.64653 5.5492 23.425
290 1 -1.1104 6.6872 -3.0534 26.3149
287 1 -1.1104 6.55506 2.59097 23.4509
9106 2 2.2208 13.6805 6.74851 24.9816
280 1 -1.1104 9.5431 -2.8536 23.4824
9007 2 2.2208 13.7544 6.8427 19.2119
272 1 -1.1104 9.26556 5.30874 20.829
251 1 -1.1104 9.21328 -3.01475 20.8032
246 1 -1.1104 12.1215 0.0344803 20.7457
232 1 -1.1104 9.57563 2.55532 26.3364
293 1 -1.1104 6.74878 -0.198523 23.7001
323 1 -1.1104 12.294 -0.17476 23.4412
311 1 -1.1104 6.46464 8.22023 26.2413
8606 2 2.2208 5.28347 -4.39342 27.6261
340 1 -1.1104 12.6049 2.66766 23.4202
335 1 -1.1104 9.4061 5.32181 23.5339
279 1 -1.1104 9.62341 2.60203 23.5396
330 1 -1.1104 9.53007 -0.109626 23.3827
281 1 -1.1104 12.176 -0.129848 26.3252
315 1 -1.1104 6.63236 5.54611 26.4463
291 1 -1.1104 6.77161 2.83845 26.2939
333 2 2.2208 10.7673 -1.6027 24.8348
286 1 -1.1104 6.5704 -2.93361 23.4074
339 1 -1.1104 12.4338 -3.01763 23.396
338 2 2.2208 11.0075 1.33987 22.0827
325 1 -1.1104 12.2106 5.40878 23.4922
275 2 2.2208 8.02801 1.24632 24.8964
224 2 2.2208 8.00235 4.04409 22.0745
328 2 2.2208 10.8668 6.87574 22.1033
277 1 -1.1104 9.54088 8.14112 23.635
282 1 -1.1104 12.2425 5.39523 26.1897
327 1 -1.1104 12.1629 8.02274 23.6016
334 1 -1.1104 9.54708 5.40111 26.2373
336 1 -1.1104 9.38286 8.26465 26.3511
229 2 2.2208 8.09264 -1.48934 22.0972
341 1 -1.1104 12.2938 -2.92902 26.2586
274 1 -1.1104 9.55055 -2.93082 26.3671
326 1 -1.1104 12.2494 8.24962 26.4163
329 1 -1.1104 9.41911 -0.312859 26.2873
230 2 2.2208 -0.241548 6.80204 16.3909
225 2 2.2208 13.6779 4.19897 22.0248
227 2 2.2208 13.4887 1.0662 24.8509
165 2 2.2208 10.916 1.22139 27.7935
9001 2 2.2208 13.5868 1.28453 19.2591
9108 2 2.2208 -0.414143 1.24319 16.3814
343 2 2.2208 8.02912 4.06023 27.6986
162 2 2.2208 13.548 -1.64359 27.7075
75 2 2.2208 7.98592 -1.54169 27.7201
167 2 2.2208 10.8441 -1.6244 13.643
169 2 2.2208 5.1364 -1.54979 13.7011
342 2 2.2208 7.9616 1.16133 13.6989
170 2 2.2208 2.4123 3.9022 27.755
164 2 2.2208 13.5652 1.12539 13.6091
233 2 2.2208 2.38124 1.40835 13.4673
168 2 2.2208 10.8786 4.0458 13.6196
345 2 2.2208 5.14588 12.5082 5.06511
346 1 -1.1104 0.882307 11.0076 1.07933
350 2 2.2208 5.2755 9.7341 2.17638
351 1 -1.1104 0.939806 11.2414 3.79499
353 2 2.2208 2.40448 12.5589 2.27528
354 2 2.2208 2.2055 9.88433 5.10477
355 1 -1.1104 3.75575 11.2491 0.823002
357 1 -1.1104 3.81003 11.0115 3.52924
358 2 2.2208 5.06319 18.0831 5.37237
359 1 -1.1104 1.02667 13.8281 0.737235
361 1 -1.1104 0.807989 19.4692 1.02906
365 1 -1.1104 1.14245 13.9567 3.73343
366 1 -1.1104 0.982208 19.3614 3.79088
369 1 -1.1104 0.922341 16.6332 0.94629
372 2 2.2208 5.19813 15.3722 2.35347
373 2 2.2208 5.10721 20.8941 2.33031
374 1 -1.1104 0.823678 16.587 3.71008
376 1 -1.1104 3.73742 13.9013 0.916402
378 1 -1.1104 3.71338 19.3156 1.02551
380 2 2.2208 2.1982 18.0331 2.33973
381 1 -1.1104 3.85991 13.9736 3.72405
382 1 -1.1104 4.03744 19.5221 3.84374
383 2 2.2208 2.42421 15.2364 5.19196
384 2 2.2208 2.20584 20.9425 5.14808
385 1 -1.1104 3.74435 16.6569 0.991583
387 1 -1.1104 3.58379 16.6586 3.79558
364 1 -1.1104 6.35615 19.5872 6.42428
503 2 2.2208 13.4774 18.1828 13.5796
402 1 -1.1104 6.45884 19.5394 1.28072
356 1 -1.1104 3.40364 11.1447 6.48259
360 1 -1.1104 1.06391 13.8091 6.77374
427 2 2.2208 13.5944 18.2264 2.41007
375 1 -1.1104 6.51015 17.1421 3.64893
403 1 -1.1104 6.50643 16.6005 0.944043
348 1 -1.1104 6.55154 11.0636 0.74048
367 1 -1.1104 6.62 14.0304 3.60498
379 1 -1.1104 3.57354 19.638 6.52358
347 1 -1.1104 0.76039 11.0655 6.67697
370 1 -1.1104 0.877055 16.5865 6.66612
363 1 -1.1104 6.67251 13.8386 6.55944
377 1 -1.1104 3.80937 13.9522 6.55413
386 1 -1.1104 3.58124 16.8062 6.60977
371 1 -1.1104 6.56508 16.6973 6.41609
352 1 -1.1104 6.65551 11.0049 3.58481
495 2 2.2208 13.6736 9.65128 10.9703
362 1 -1.1104 6.48874 13.7966 0.893254
392 2 2.2208 10.8564 12.3485 5.30465
393 1 -1.1104 12.1692 11.3394 1.23544
395 2 2.2208 10.7338 9.70015 2.53403
396 1 -1.1104 12.1851 10.9426 3.91857
397 2 2.2208 7.93272 12.5459 2.34849
398 2 2.2208 8.03173 9.62847 5.22185
399 1 -1.1104 9.31688 11.0695 0.949472
401 1 -1.1104 9.43654 11.0278 3.90916
404 2 2.2208 10.7185 18.2056 5.24608
405 1 -1.1104 12.2501 14.0227 1.02862
407 1 -1.1104 12.0337 19.4741 0.896917
409 1 -1.1104 12.2689 13.9991 3.84062
410 1 -1.1104 12.3017 19.5125 3.88052
411 1 -1.1104 12.0655 16.71 1.00149
413 2 2.2208 10.7868 15.2961 2.45203
414 2 2.2208 10.6998 20.9633 2.52837
415 1 -1.1104 12.2009 16.7471 3.85954
416 1 -1.1104 9.38291 13.8535 1.08364
418 1 -1.1104 9.32867 19.5041 0.929181
420 2 2.2208 8.07834 17.9695 2.29723
421 1 -1.1104 9.47963 13.7259 3.81731
422 1 -1.1104 9.45763 19.2428 3.62788
423 2 2.2208 8.0882 15.2361 5.12693
424 1 -1.1104 9.13172 16.5108 0.976082
426 1 -1.1104 9.35867 16.4552 3.71817
417 1 -1.1104 9.45373 13.9165 6.59238
425 1 -1.1104 9.23458 16.6305 6.57499
9278 2 2.2208 13.5916 21.0393 5.18363
408 1 -1.1104 12.3164 19.6614 6.56632
349 1 -1.1104 6.69581 11.2103 6.27553
400 1 -1.1104 9.51089 11.0923 6.71639
419 1 -1.1104 9.44509 19.3467 6.77281
494 2 2.2208 13.6625 12.4679 8.04741
445 1 -1.1104 0.819746 19.3872 6.72429
9323 2 2.2208 -0.458144 9.7333 13.5963
429 1 -1.1104 3.7625 19.6153 12.1435
430 1 -1.1104 3.64601 13.9218 12.2334
434 1 -1.1104 1.143 19.5889 9.40847
435 1 -1.1104 0.898151 16.7337 9.45341
436 2 2.2208 5.12549 21.0476 7.76241
437 1 -1.1104 0.879962 13.8665 9.50147
438 2 2.2208 5.06881 15.2673 7.99143
441 1 -1.1104 0.944217 19.5954 12.3052
442 1 -1.1104 0.887133 14.0392 12.1169
443 2 2.2208 5.14779 18.1183 10.7322
444 1 -1.1104 3.80673 19.5302 9.36094
446 2 2.2208 2.22674 18.0958 7.92083
447 1 -1.1104 3.69704 16.7653 9.32157
448 1 -1.1104 3.67117 13.9746 9.34144
450 1 -1.1104 1.07463 16.7673 12.1698
451 1 -1.1104 3.83216 16.6673 12.1518
452 2 2.2208 2.43253 21.0471 10.7547
453 2 2.2208 5.15589 12.4139 10.7053
454 1 -1.1104 1.04 11.2095 12.2774
456 2 2.2208 2.42931 15.3536 10.842
457 1 -1.1104 0.902642 11.1322 9.36182
459 2 2.2208 2.29655 12.4775 8.05715
460 2 2.2208 2.32096 9.89257 10.9247
461 1 -1.1104 3.78888 11.1123 12.2509
462 1 -1.1104 3.60574 11.0405 9.4489
439 1 -1.1104 6.65169 19.4249 12.0875
449 1 -1.1104 6.5065 16.6269 12.2235
455 1 -1.1104 6.52685 11.0099 12.256
498 2 2.2208 5.16385 20.9613 13.6071
505 2 2.2208 13.5761 12.5263 13.6222
431 1 -1.1104 6.5556 19.5093 9.34047
432 1 -1.1104 6.46288 16.7948 9.34317
433 1 -1.1104 6.40413 14.0277 9.42903
491 2 2.2208 13.6278 9.67788 5.25788
506 2 2.2208 7.99623 12.4937 13.5668
484 2 2.2208 7.92926 12.5381 7.88275
474 1 -1.1104 9.36008 13.9475 12.1808
412 1 -1.1104 12.0346 16.7437 6.64316
468 2 2.2208 7.89382 20.9607 10.8146
493 2 2.2208 13.4881 21.0023 10.7088
463 2 2.2208 10.7661 12.4589 10.7896
440 1 -1.1104 6.55921 13.6835 12.2002
500 2 2.2208 10.6916 20.9049 13.548
485 2 2.2208 13.4159 15.3826 10.8058
489 2 2.2208 13.4967 18.1823 8.02179
504 2 2.2208 10.6889 9.76256 13.546
406 1 -1.1104 12.2697 13.7294 6.5211
394 1 -1.1104 12.2952 11.0169 6.73951
469 2 2.2208 7.83168 15.2509 10.8483
472 2 2.2208 7.86376 18.2273 7.86929
481 1 -1.1104 12.1055 19.3963 9.50597
389 2 2.2208 10.7841 9.69232 8.09247
471 1 -1.1104 9.26815 13.7349 9.35737
488 2 2.2208 10.6091 18.2303 10.861
466 1 -1.1104 9.22666 16.6213 9.4735
458 1 -1.1104 6.59697 11.2283 9.43749
487 1 -1.1104 12.0665 13.859 12.195
390 1 -1.1104 12.1625 11.1141 12.2876
483 2 2.2208 7.79374 9.63419 10.6191
479 1 -1.1104 12.0834 16.845 12.1922
480 1 -1.1104 9.3858 11.1454 12.2466
473 1 -1.1104 9.35647 19.3797 12.3372
470 1 -1.1104 9.38054 19.5329 9.48081
477 1 -1.1104 9.32775 11.0289 9.39674
478 2 2.2208 10.5971 15.4588 8.04274
486 1 -1.1104 12.2335 19.7021 12.2705
475 1 -1.1104 12.0301 16.8408 9.46422
467 1 -1.1104 9.35156 16.7305 12.182
388 1 -1.1104 12.324 11.1638 9.52887
482 1 -1.1104 12.0259 14.108 9.24724
476 2 2.2208 10.6938 20.9031 8.04113
492 2 2.2208 13.4548 15.3392 5.42939
502 2 2.2208 7.91138 17.9901 13.5054
490 2 2.2208 10.6836 12.4222 -0.448117
636 2 2.2208 10.7065 17.9519 -0.335642
499 2 2.2208 5.16461 15.273 13.6251
9331 2 2.2208 13.5527 9.85413 -0.303978
497 2 2.2208 2.32098 18.1775 13.599
557 2 2.2208 5.13274 9.63641 13.6701
509 2 2.2208 5.33353 12.476 16.267
510 1 -1.1104 1.05758 11.4131 17.7485
512 2 2.2208 5.27705 9.78005 19.2639
513 1 -1.1104 0.960839 11.2192 15.1046
517 2 2.2208 2.35718 12.5915 19.1369
518 2 2.2208 2.38615 9.83898 16.5214
519 1 -1.1104 3.97619 11.1797 17.7523
520 1 -1.1104 3.83059 11.0743 15.0357
522 2 2.2208 5.16781 18.1616 16.3542
523 1 -1.1104 0.802343 14.0186 17.7788
524 1 -1.1104 0.909995 19.3671 17.9026
527 1 -1.1104 0.873754 14.0663 14.8934
529 1 -1.1104 0.939861 19.7032 15.115
535 1 -1.1104 0.9858 16.7479 17.6899
537 2 2.2208 5.15302 15.3105 19.1176
538 2 2.2208 5.12097 20.8366 19.1342
539 1 -1.1104 0.910092 16.8509 14.9846
543 1 -1.1104 3.57538 14.1039 17.95
544 1 -1.1104 3.69674 19.6301 17.6036
545 2 2.2208 2.33983 18.1496 19.1672
546 1 -1.1104 3.83609 13.8877 15.1195
548 1 -1.1104 3.6666 19.4267 14.9174
550 2 2.2208 2.28218 15.4252 16.4782
551 2 2.2208 2.28904 21.063 16.4869
552 1 -1.1104 3.70653 16.8518 17.9078
553 1 -1.1104 3.75083 16.751 14.9889
637 2 2.2208 5.16689 12.4672 27.4838
541 1 -1.1104 6.36757 16.7078 15.1067
540 1 -1.1104 1.14686 16.8953 20.6151
528 1 -1.1104 1.0412 13.9029 20.4723
554 1 -1.1104 3.86658 16.8652 20.6407
531 1 -1.1104 6.67137 13.865 14.8843
515 1 -1.1104 6.67671 10.9978 15.0007
526 1 -1.1104 6.62362 19.5038 17.97
536 1 -1.1104 6.52087 16.7476 17.7829
525 1 -1.1104 6.60335 13.9669 17.826
521 1 -1.1104 3.79583 11.1781 20.4328
549 1 -1.1104 3.76174 19.5984 20.4593
534 1 -1.1104 6.4741 19.4797 20.6272
542 1 -1.1104 6.61512 16.7376 20.7739
533 1 -1.1104 6.46313 19.578 15.0229
644 2 2.2208 8.0088 9.58861 27.6985
511 1 -1.1104 6.74608 11.2744 17.7336
560 2 2.2208 10.778 12.5884 16.4435
561 1 -1.1104 12.2389 11.1838 17.7598
562 2 2.2208 10.8947 9.56716 19.2547
563 1 -1.1104 12.0644 11.1069 15.177
565 2 2.2208 8.06254 12.5824 19.183
566 2 2.2208 8.11824 9.69784 16.4326
567 1 -1.1104 9.56667 11.036 17.7747
568 1 -1.1104 9.32404 11.2449 15.02
570 2 2.2208 10.7517 18.1339 16.4504
571 1 -1.1104 12.0749 13.9356 17.8598
572 1 -1.1104 12.234 19.5623 17.9864
573 1 -1.1104 12.0124 13.9392 14.9945
575 1 -1.1104 12.1239 19.5617 15.0292
577 1 -1.1104 12.1258 16.7206 17.8165
578 2 2.2208 10.7595 15.2694 19.1524
579 2 2.2208 10.8033 20.9678 19.39
580 1 -1.1104 12.2312 16.6971 15.0029
582 1 -1.1104 9.33916 13.92 17.6693
583 1 -1.1104 9.63164 19.6177 17.7257
584 2 2.2208 7.95208 18.0604 19.1597
585 1 -1.1104 9.33226 14.1033 14.9883
587 1 -1.1104 9.17658 19.6376 14.9919
589 2 2.2208 7.96067 15.4496 16.366
590 2 2.2208 8.0317 21.0414 16.5815
591 1 -1.1104 9.38863 16.7034 17.7038
592 1 -1.1104 9.33016 16.6861 14.8994
641 2 2.2208 13.4763 18.1085 19.277
597 2 2.2208 13.578 15.2447 16.3812
593 1 -1.1104 9.40319 16.8319 20.5369
564 1 -1.1104 12.1918 11.0552 20.6523
586 1 -1.1104 9.5541 13.9312 20.5894
646 1 -1.1104 9.35177 16.6561 23.3697
574 1 -1.1104 12.2124 13.8539 20.6306
576 1 -1.1104 12.1688 19.4254 20.8166
588 1 -1.1104 9.30962 19.5644 20.6981
581 1 -1.1104 12.1496 16.6092 20.6353
530 1 -1.1104 0.815085 19.6219 20.6798
514 1 -1.1104 1.18582 11.1703 20.7581
547 1 -1.1104 3.89364 14.0624 20.6582
660 1 -1.1104 12.0717 19.4154 26.2922
618 1 -1.1104 6.45045 16.6277 23.3831
600 1 -1.1104 3.67563 19.5526 23.4592
602 1 -1.1104 3.78131 13.8196 23.4748
604 1 -1.1104 0.915995 19.5297 26.2811
605 1 -1.1104 0.937785 16.7332 26.1728
606 1 -1.1104 1.11119 14.0375 25.9665
608 2 2.2208 5.32451 20.8675 24.9104
609 2 2.2208 5.11395 15.2844 24.6807
611 1 -1.1104 0.903363 19.6001 23.5032
612 1 -1.1104 0.894322 13.6979 23.2161
613 2 2.2208 5.0508 18.1005 22.0731
614 1 -1.1104 3.68693 19.535 26.2896
615 2 2.2208 2.36319 18.1316 24.8009
616 1 -1.1104 3.75593 16.7259 26.1887
617 1 -1.1104 3.83449 13.9153 26.0614
619 1 -1.1104 0.848369 16.6508 23.5244
620 1 -1.1104 3.53789 16.7125 23.3632
621 2 2.2208 2.27957 20.99 22.1136
622 2 2.2208 5.21837 12.4603 22.0446
623 1 -1.1104 1.06143 11.0601 23.4627
625 2 2.2208 2.31506 15.1803 22.076
626 2 2.2208 5.23763 9.58196 24.782
627 1 -1.1104 0.954048 11.2645 26.2983
629 2 2.2208 2.36203 12.6108 24.6885
630 2 2.2208 2.40364 9.6918 21.9421
631 1 -1.1104 3.93378 10.9938 23.1684
632 1 -1.1104 3.92898 11.0043 26.0384
668 2 2.2208 10.8137 12.4504 21.9344
603 1 -1.1104 6.66894 16.6458 26.2473
558 2 2.2208 2.44544 12.5988 13.741
671 1 -1.1104 12.1159 10.9183 26.2568
634 2 2.2208 13.4735 12.4854 24.8626
669 1 -1.1104 12.0948 10.8973 23.3418
651 1 -1.1104 6.46955 19.5709 26.4139
640 2 2.2208 13.4761 15.3093 22.106
610 1 -1.1104 6.58212 13.8916 23.3426
598 2 2.2208 13.6875 12.512 19.2756
569 1 -1.1104 9.47261 11.1283 20.622
9429 2 2.2208 -0.485418 20.8434 19.2191
596 2 2.2208 7.92865 15.2847 27.5714
9325 2 2.2208 13.6878 9.66915 16.3944
9276 2 2.2208 13.5509 15.4259 27.7161
650 1 -1.1104 9.44933 13.8365 26.2997
516 1 -1.1104 6.66531 11.1279 20.5688
555 2 2.2208 13.5361 20.9596 22.1488
532 1 -1.1104 6.66639 13.878 20.4824
653 1 -1.1104 9.32292 19.6011 23.4314
647 2 2.2208 7.886 20.9356 22.0337
624 1 -1.1104 6.72218 11.0172 23.3944
607 1 -1.1104 6.46727 19.4684 23.4225
649 1 -1.1104 9.25048 19.2413 26.3115
666 1 -1.1104 12.112 13.7694 23.4308
658 2 2.2208 10.7594 15.1899 24.8829
667 2 2.2208 10.7092 18.1301 22.1174
652 2 2.2208 7.90216 18.029 24.7743
656 1 -1.1104 9.43362 11.0536 26.2958
628 1 -1.1104 6.65696 11.0062 26.1405
664 2 2.2208 7.97549 12.3719 24.8773
601 1 -1.1104 6.60446 13.7885 26.074
645 1 -1.1104 9.49803 16.5927 26.2707
662 1 -1.1104 9.4085 11.0448 23.4185
659 1 -1.1104 12.1782 16.8462 23.449
663 2 2.2208 8.09171 9.65783 21.9056
657 2 2.2208 10.759 20.8308 24.9341
661 1 -1.1104 12.3049 13.7658 26.4436
670 2 2.2208 10.8269 9.64971 24.8788
648 2 2.2208 7.96241 15.4068 21.9294
655 1 -1.1104 12.0949 16.587 26.2597
654 1 -1.1104 9.32914 13.9162 23.4575
665 1 -1.1104 12.0997 19.6944 23.5466
507 2 2.2208 5.07246 18.0717 27.7888
9324 2 2.2208 13.4334 18.1494 24.8738
599 2 2.2208 13.4422 20.8493 16.444
508 2 2.2208 2.27153 9.79423 27.7155
501 2 2.2208 10.7432 15.3883 13.5246
633 2 2.2208 2.25855 20.9632 27.5681
672 2 2.2208 13.4581 20.891 27.7264
428 2 2.2208 8.05682 20.9724 27.7398
638 2 2.2208 -0.468637 12.4864 27.6314
635 2 2.2208 2.41817 15.224 27.5436
673 2 2.2208 4.94859 23.8426 5.27054
674 2 2.2208 5.15974 29.4016 5.2127
675 1 -1.1104 0.853292 25.1635 1.02437
676 1 -1.1104 0.867605 25.1056 3.73947
677 1 -1.1104 0.994689 22.381 0.836405
678 1 -1.1104 0.887887 27.8546 0.794791
679 2 2.2208 4.99608 26.5349 2.48983
680 1 -1.1104 0.919825 22.1422 3.57636
681 1 -1.1104 1.10553 27.8877 3.88297
683 1 -1.1104 3.74065 25.1691 1.0809
684 2 2.2208 2.1969 23.7188 2.38742
685 2 2.2208 2.41216 29.361 2.34089
686 1 -1.1104 3.61346 25.1307 3.88341
687 2 2.2208 2.23288 26.5931 5.31104
688 1 -1.1104 3.58094 22.3316 0.921388
689 1 -1.1104 3.67524 27.9849 0.955666
690 1 -1.1104 3.97376 22.283 3.63869
691 1 -1.1104 3.78135 27.9857 3.79323
692 1 -1.1104 0.953587 30.716 1.02719
693 1 -1.1104 0.908578 30.764 3.88004
694 1 -1.1104 1.02976 33.624 1.03262
695 2 2.2208 5.17038 32.2654 2.51484
696 1 -1.1104 0.949793 33.5038 3.71961
698 1 -1.1104 3.67783 30.7516 1.1308
699 1 -1.1104 3.69595 30.824 3.83796
700 2 2.2208 2.30373 32.1762 5.19233
701 1 -1.1104 3.83823 33.7234 1.10234
702 1 -1.1104 3.85153 33.7099 3.87203
697 1 -1.1104 6.5827 33.6928 4.00525
831 2 2.2208 13.4766 23.819 13.6714
749 1 -1.1104 6.32176 22.6076 6.49822
752 1 -1.1104 3.57096 22.3845 6.51763
708 1 -1.1104 6.45871 22.4511 1.26208
707 1 -1.1104 6.27299 24.9527 3.63238
709 1 -1.1104 6.48625 28.0127 1.03808
706 1 -1.1104 6.52314 25.2805 0.857679
758 1 -1.1104 3.75034 30.8951 6.65744
748 1 -1.1104 0.842675 27.9275 6.81411
730 1 -1.1104 6.64096 30.8768 3.84382
751 1 -1.1104 3.54545 25.2949 6.66254
753 1 -1.1104 3.82017 27.9854 6.54095
745 1 -1.1104 0.832866 25.1529 6.67799
747 1 -1.1104 1.01556 22.3729 6.54315
750 1 -1.1104 6.57213 28.057 6.47592
815 1 -1.1104 9.44986 25.2124 12.2649
822 1 -1.1104 9.33174 22.4011 9.52333
731 1 -1.1104 6.614 33.6665 1.07765
710 1 -1.1104 6.46458 28.0023 3.8927
829 2 2.2208 13.5302 23.7185 7.89677
729 1 -1.1104 6.53971 30.9711 0.979816
711 2 2.2208 10.5734 23.8185 5.17248
712 2 2.2208 10.7943 29.3532 5.07894
713 1 -1.1104 12.1683 25.2623 0.803329
714 1 -1.1104 11.9074 25.0264 3.7487
715 1 -1.1104 11.9541 22.4506 1.01686
716 1 -1.1104 12.0505 28.0574 0.993236
717 2 2.2208 10.6358 26.6213 2.315
718 1 -1.1104 11.9982 22.2915 3.72922
719 1 -1.1104 12.121 27.9174 3.72909
720 1 -1.1104 9.2813 25.0587 0.817716
721 2 2.2208 8.08884 23.8862 2.21899
722 2 2.2208 7.9633 29.458 2.3507
723 1 -1.1104 9.21614 25.3179 3.66744
724 2 2.2208 7.8558 26.5607 5.23201
725 1 -1.1104 9.22418 22.2583 0.916997
726 1 -1.1104 9.16067 28.029 0.957821
727 1 -1.1104 9.24708 22.563 3.62066
728 1 -1.1104 9.31352 28.037 3.68237
732 1 -1.1104 12.112 30.7501 0.959781
733 1 -1.1104 12.2163 30.8603 3.75275
734 1 -1.1104 12.1328 33.5527 1.06112
735 2 2.2208 10.6724 32.0692 2.3282
736 1 -1.1104 12.1059 33.6872 3.78988
737 1 -1.1104 9.32023 30.856 0.916438
738 1 -1.1104 9.36976 30.683 3.69555
739 2 2.2208 8.01816 32.2108 5.37635
740 1 -1.1104 9.28247 33.5163 1.00511
741 1 -1.1104 9.40804 33.5984 3.75948
804 1 -1.1104 9.53142 30.681 6.49833
805 1 -1.1104 9.37004 33.6593 6.53992
798 1 -1.1104 12.2319 27.9897 6.56182
802 1 -1.1104 12.3104 30.7999 6.67786
703 1 -1.1104 9.58024 33.8882 12.3636
797 1 -1.1104 12.119 22.4589 6.51162
803 1 -1.1104 12.252 33.5345 6.70548
796 1 -1.1104 12.1173 25.2896 6.55665
746 1 -1.1104 6.31166 25.2219 6.59243
799 1 -1.1104 9.16115 25.2511 6.531
800 1 -1.1104 9.44748 22.6103 6.79833
828 2 2.2208 13.5983 32.2521 5.19519
811 1 -1.1104 12.2359 27.8845 12.24
9614 2 2.2208 13.6374 32.1651 10.7731
759 1 -1.1104 3.71333 33.5622 6.65009
754 1 -1.1104 0.991733 30.6914 6.64785
756 1 -1.1104 0.690899 33.4803 6.51924
897 2 2.2208 2.23136 29.4916 13.5665
760 2 2.2208 5.03357 23.7588 10.8253
761 2 2.2208 5.19543 29.3765 10.791
762 1 -1.1104 0.77128 25.2218 12.3085
764 1 -1.1104 0.967087 25.1996 9.62228
766 1 -1.1104 0.938142 22.3307 12.1029
767 1 -1.1104 0.894765 28.0034 12.2418
770 2 2.2208 5.19444 26.6786 8.03137
771 1 -1.1104 0.982976 22.4687 9.30563
772 1 -1.1104 0.835497 28.0175 9.49581
775 1 -1.1104 3.69065 25.1537 12.1639
776 2 2.2208 2.25692 23.8482 8.03548
777 2 2.2208 2.27726 29.346 7.97828
778 1 -1.1104 3.75609 25.3536 9.52167
779 2 2.2208 2.25551 26.5347 10.8199
780 1 -1.1104 3.67956 22.3591 12.1362