ITEM: TIMESTEP
30000
ITEM: NUMBER OF ATOMS
17820
ITEM: BOX BOUNDS pp pp pp
-3.7168094416042624e-01 2.7711680944160687e+01
-4.4436113076388883e+00 3.3252361130763677e+02
-3.6402839648785523e-01 2.7704028396487704e+01
ITEM: ATOMS id type q x y z
1 2 2.2208 5.29867 1.04606 5.46753
2 1 -1.1104 1.22226 -3.14032 1.16793
3 1 -1.1104 1.09382 2.56421 1.20445
6 1 -1.1104 1.20573 -2.97985 3.98177
7 1 -1.1104 1.24222 2.41786 3.94645
10 1 -1.1104 1.18259 -0.330055 1.00208
12 2 2.2208 5.38252 -1.7042 2.61564
13 2 2.2208 5.41197 3.92957 2.50252
14 1 -1.1104 1.18415 -0.336756 3.79331
16 1 -1.1104 4.12366 -3.01053 1.11401
17 1 -1.1104 3.97603 2.51188 1.17368
18 2 2.2208 2.54192 1.04533 2.30631
19 1 -1.1104 4.01391 -2.91249 4.02212
20 1 -1.1104 4.00767 2.46565 3.86413
21 2 2.2208 2.53181 -1.63954 5.4343
22 2 2.2208 2.58657 3.9352 5.1459
23 1 -1.1104 3.87051 -0.321798 1.0736
24 1 -1.1104 3.83572 -0.222519 4.00944
25 2 2.2208 5.4982 6.69284 5.23678
26 1 -1.1104 1.11743 8.40582 1.09916
28 1 -1.1104 1.20926 8.26076 3.79432
30 1 -1.1104 1.09514 5.3779 1.21337
32 1 -1.1104 1.08944 5.22436 3.98513
34 1 -1.1104 3.93599 8.07046 1.25416
35 2 2.2208 2.54339 6.64416 2.53908
36 1 -1.1104 3.94146 8.14663 4.21272
37 1 -1.1104 3.93946 5.33383 1.07545
38 1 -1.1104 3.94102 5.38954 3.80374
8948 2 2.2208 -0.256674 -1.71441 2.59169
8947 2 2.2208 -0.328112 6.84713 5.27437
8892 2 2.2208 -0.334695 1.19424 5.28086
8606 2 2.2208 5.41621 -4.44972 -0.155952
170 2 2.2208 2.34846 4.05073 -0.37113
8886 2 2.2208 -0.323676 3.80575 2.51873
8955 2 2.2208 -0.287241 1.09746 -0.240065
8985 2 2.2208 -0.394307 6.90131 -0.207145
8580 2 2.2208 5.43196 -4.43727 5.35922
8958 2 2.2208 -0.184063 -4.5634 5.27691
321 2 2.2208 5.37507 1.17383 -0.269687
322 2 2.2208 2.6242 -1.65564 -0.342886
29 1 -1.1104 6.7542 7.99431 3.75815
5 1 -1.1104 6.84089 2.55594 1.08794
15 1 -1.1104 6.71612 -0.291241 4.05486
4 1 -1.1104 6.93011 -3.12856 1.232
331 2 2.2208 10.8842 6.85507 -0.247601
27 1 -1.1104 6.70697 8.25518 1.04218
31 1 -1.1104 6.96514 5.23869 1.0202
8 1 -1.1104 6.74684 -3.10855 4.00309
9 1 -1.1104 6.85287 2.36046 3.88119
90 1 -1.1104 6.72409 7.99076 6.52424
11 1 -1.1104 6.66463 -0.317095 1.1809
33 1 -1.1104 6.8355 5.27928 3.8917
92 1 -1.1104 6.70877 5.24225 6.65841
67 1 -1.1104 12.3414 8.16572 3.99749
46 2 2.2208 10.9953 1.16088 5.38076
47 1 -1.1104 12.3256 -3.07542 1.11979
48 1 -1.1104 12.4295 2.60439 1.2369
49 1 -1.1104 12.4721 -3.09514 3.92133
50 1 -1.1104 12.5796 2.56216 3.85258
51 1 -1.1104 12.4896 -0.181475 1.09976
52 2 2.2208 11.0201 -1.65736 2.58895
53 2 2.2208 10.9255 3.92764 2.48466
54 1 -1.1104 12.2739 -0.240299 3.91904
55 1 -1.1104 9.73905 -2.98989 0.987792
56 1 -1.1104 9.66714 2.50029 1.09415
57 2 2.2208 8.1766 1.05581 2.50434
58 1 -1.1104 9.64274 -3.15781 3.85849
59 1 -1.1104 9.55513 2.54166 3.78829
60 2 2.2208 8.10383 -1.72269 5.3217
61 2 2.2208 8.26905 3.94107 5.26899
62 1 -1.1104 9.59993 -0.212952 1.19002
63 1 -1.1104 9.47541 -0.27279 3.96946
65 2 2.2208 11.0162 6.78492 5.38039
66 1 -1.1104 12.2101 8.28221 1.10084
68 1 -1.1104 12.2795 5.45893 1.04543
69 1 -1.1104 12.7427 5.36986 3.87378
70 1 -1.1104 9.43851 8.12234 1.05211
71 2 2.2208 8.15782 6.72 2.41696
72 1 -1.1104 9.57754 8.15347 4.01685
73 1 -1.1104 9.61307 5.27313 1.08495
74 1 -1.1104 9.78015 5.36056 3.84332
140 1 -1.1104 9.47768 2.42336 6.83575
137 1 -1.1104 12.2919 2.70782 6.76835
138 1 -1.1104 12.2526 -0.179698 6.76329
136 1 -1.1104 12.4607 -3.06492 6.58686
8583 2 2.2208 11.0513 -4.44053 5.23757
142 1 -1.1104 12.2964 8.10324 6.65264
144 1 -1.1104 9.51504 8.09192 6.61831
8582 2 2.2208 8.2911 -4.42806 2.54166
165 2 2.2208 10.8444 1.26862 -0.250243
75 2 2.2208 8.16535 -1.69049 -0.322396
343 2 2.2208 8.21408 3.88674 -0.339236
8850 2 2.2208 -0.310976 4.02089 8.03633
8584 2 2.2208 2.49675 -4.541 8.06668
81 1 -1.1104 1.02018 2.7047 6.57991
80 1 -1.1104 1.23458 -3.06817 6.66063
89 1 -1.1104 1.49753 8.35815 6.6323
88 1 -1.1104 3.85853 -0.163102 6.83453
93 1 -1.1104 3.99426 5.69823 6.61547
91 1 -1.1104 1.12539 5.38918 6.64824
8787 2 2.2208 -0.359985 1.27312 11.0301
8798 2 2.2208 -0.190054 -1.60956 8.10627
86 1 -1.1104 3.94288 -3.00236 6.73774
87 1 -1.1104 3.84114 2.67839 6.75351
84 1 -1.1104 1.02563 -0.219766 6.70593
94 2 2.2208 5.30475 1.1597 10.8464
95 1 -1.1104 1.23261 -3.09891 12.5174
96 1 -1.1104 1.11743 2.55649 12.3266
98 1 -1.1104 1.3259 -3.0191 9.49444
99 1 -1.1104 1.12935 2.8186 9.50746
102 1 -1.1104 1.24265 -0.193129 12.2105
104 2 2.2208 5.33353 -1.58234 8.23983
105 2 2.2208 5.30566 3.99405 8.13024
106 1 -1.1104 1.20705 -0.0392169 9.49568
108 1 -1.1104 4.07988 -3.06376 12.4218
109 1 -1.1104 4.05022 2.56674 12.2418
110 2 2.2208 2.50253 1.28828 8.14945
111 1 -1.1104 3.94728 -3.11084 9.54448
112 1 -1.1104 3.86718 2.89972 9.55117
113 2 2.2208 2.42648 -1.59184 10.8823
114 2 2.2208 2.5206 4.08886 10.9027
115 1 -1.1104 3.95048 -0.28792 12.4919
116 1 -1.1104 3.92917 -0.100668 9.61549
117 2 2.2208 5.44752 6.72831 11.0255
118 1 -1.1104 1.01951 8.24755 12.2648
120 1 -1.1104 1.41608 8.20717 9.5047
122 1 -1.1104 1.07487 5.4229 12.3054
124 1 -1.1104 1.086 5.39562 9.49114
126 1 -1.1104 3.87482 8.13408 12.0077
127 2 2.2208 2.43243 6.64293 7.96582
129 1 -1.1104 4.04477 5.35156 12.3596
130 1 -1.1104 3.98502 5.76888 9.46637
8913 2 2.2208 -0.272457 6.82299 10.9278
8960 2 2.2208 -0.111158 -4.5253 10.913
163 2 2.2208 2.60215 6.77037 13.6159
128 1 -1.1104 12.3984 5.47295 9.62988
64 2 2.2208 8.13719 4.04654 10.8674
141 1 -1.1104 9.56278 -0.249805 6.6381
143 1 -1.1104 12.3587 5.42087 6.81729
139 1 -1.1104 9.6194 -3.05829 6.65745
82 1 -1.1104 6.75774 -3.13361 7.02255
146 1 -1.1104 9.56902 5.36676 6.63091
119 1 -1.1104 6.61265 8.12551 12.4044
166 2 2.2208 10.9485 -4.54391 11.0212
44 1 -1.1104 9.62795 -0.233139 12.4569
85 1 -1.1104 6.66995 -0.371246 6.92242
134 1 -1.1104 9.7521 -3.17664 9.40835
155 1 -1.1104 12.3411 2.55046 9.66132
45 1 -1.1104 9.48088 8.34326 12.2487
40 2 2.2208 10.9419 6.77609 10.9154
153 1 -1.1104 12.191 2.68885 12.3398
103 1 -1.1104 6.72636 -0.421656 12.2008
125 1 -1.1104 6.75299 5.26533 9.44839
101 1 -1.1104 6.70946 2.50387 9.38646
97 1 -1.1104 6.69232 2.6312 12.2638
159 1 -1.1104 12.3759 -0.222648 9.42144
78 2 2.2208 8.24745 -1.63106 10.9061
83 1 -1.1104 6.61893 2.51779 6.62424
154 1 -1.1104 12.4433 -3.06457 9.62953
145 1 -1.1104 9.59954 5.40193 9.41641
131 1 -1.1104 12.3782 5.30158 12.5186
158 2 2.2208 10.9723 3.99144 8.13304
160 1 -1.1104 9.61413 -2.90208 12.2349
100 1 -1.1104 6.71423 -2.89109 10.0341
107 1 -1.1104 6.82172 -0.142934 9.48396
121 1 -1.1104 6.76464 7.95891 9.70003
123 1 -1.1104 6.76738 5.34163 12.4012
150 1 -1.1104 9.50053 2.56121 12.3728
148 1 -1.1104 9.46471 8.20797 9.43861
132 1 -1.1104 12.3726 8.24457 9.42467
79 1 -1.1104 9.60411 2.59842 9.59488
147 1 -1.1104 9.47186 5.36369 12.2468
156 1 -1.1104 12.44 -0.211391 12.2694
149 2 2.2208 8.05224 6.89625 7.96443
151 2 2.2208 10.9352 1.21194 10.9621
135 2 2.2208 8.18265 1.11636 8.11617
157 2 2.2208 10.9615 -1.70621 8.01393
43 1 -1.1104 9.70338 -0.282596 9.39811
133 1 -1.1104 12.1818 8.17677 12.3125
152 1 -1.1104 12.3616 -3.31263 12.4307
8578 2 2.2208 8.23261 -4.47793 8.14389
167 2 2.2208 10.8887 -1.82757 13.7951
168 2 2.2208 10.8553 3.92977 13.6935
172 2 2.2208 5.39393 1.19093 16.4068
173 1 -1.1104 1.00033 -3.04205 17.9892
174 1 -1.1104 1.17304 2.45016 17.9581
177 1 -1.1104 1.58976 -3.22128 15.248
179 1 -1.1104 0.956767 2.65723 15.1844
184 1 -1.1104 1.3142 -0.359025 17.9777
186 2 2.2208 5.38715 -1.66669 19.3578
187 2 2.2208 5.34507 3.92762 19.2651
188 1 -1.1104 1.27184 -0.264019 15.0327
192 1 -1.1104 3.84256 -3.16123 18.1118
193 1 -1.1104 3.98617 2.55746 17.8892
194 2 2.2208 2.57438 1.1291 19.2834
195 1 -1.1104 4.36011 -3.0116 15.2458
197 1 -1.1104 3.81006 2.44828 15.0787
199 2 2.2208 2.77071 -1.66065 16.5873
200 2 2.2208 2.56948 3.97893 16.5126
201 1 -1.1104 4.12349 -0.146054 17.9919
202 1 -1.1104 3.94727 -0.305988 15.1762
204 2 2.2208 5.45195 6.75711 16.4321
205 1 -1.1104 1.09138 8.06546 17.8082
207 1 -1.1104 1.11679 8.16196 15.0758
211 1 -1.1104 1.1175 5.1824 18.0537
213 1 -1.1104 1.28432 5.49789 15.1217
218 2 2.2208 2.42788 6.72229 19.3873
219 1 -1.1104 4.08274 7.97545 14.9729
221 1 -1.1104 3.98901 5.35491 17.8908
222 1 -1.1104 3.98153 5.12347 15.1874
217 1 -1.1104 3.90737 8.07551 17.7917
9108 2 2.2208 -0.186348 1.21298 16.5315
226 2 2.2208 -0.269747 3.89821 19.4009
230 2 2.2208 -0.185522 6.63897 16.4984
234 2 2.2208 5.3956 3.85053 13.6762
9073 2 2.2208 -0.255683 -1.5348 19.2832
175 1 -1.1104 6.78687 -3.05945 17.7275
212 1 -1.1104 6.79202 5.314 17.8346
8954 2 2.2208 -0.39813 4.02122 13.7828
198 1 -1.1104 4.0295 2.6231 20.6829
9128 2 2.2208 -0.313425 -4.46533 16.5679
233 2 2.2208 2.44184 1.05897 13.6575
344 2 2.2208 -0.139799 -1.63154 13.7682
169 2 2.2208 5.22769 -1.60179 13.7684
342 2 2.2208 8.17916 1.16851 13.678
176 1 -1.1104 6.72194 2.42603 17.9388
181 1 -1.1104 6.60121 -2.96062 20.6026
182 1 -1.1104 6.82227 2.46408 15.0759
209 1 -1.1104 7.02262 8.11775 15.1069
215 1 -1.1104 6.92104 5.21674 15.1271
185 1 -1.1104 6.85821 -0.242726 17.8746
190 1 -1.1104 6.67799 -0.488821 15.0104
206 1 -1.1104 6.61762 8.19294 17.8863
268 1 -1.1104 9.6189 8.16487 15.0127
235 2 2.2208 10.9987 1.08291 16.6886
236 1 -1.1104 12.4864 -2.97184 18.0241
237 1 -1.1104 12.3258 2.53848 18.0964
238 1 -1.1104 12.5203 -3.0072 15.2318
240 1 -1.1104 12.3813 2.33609 15.2527
242 1 -1.1104 12.3428 -0.305929 17.9551
243 2 2.2208 10.9816 -1.79269 19.5788
244 2 2.2208 10.7951 4.1388 19.2682
245 1 -1.1104 12.2739 -0.405552 15.1522
247 1 -1.1104 9.51533 -3.06072 18.0456
248 1 -1.1104 9.49378 2.60101 17.8765
249 2 2.2208 8.16793 1.04883 19.4706
250 1 -1.1104 9.77498 -2.91423 15.5117
252 1 -1.1104 9.54658 2.50054 15.2343
254 2 2.2208 8.30288 -1.57462 16.6803
255 2 2.2208 8.19067 3.89802 16.4924
256 1 -1.1104 9.72547 -0.120236 18.0396
257 1 -1.1104 9.49697 -0.22842 15.1206
259 2 2.2208 10.9355 6.88509 16.4801
260 1 -1.1104 12.2354 8.26115 17.9759
263 1 -1.1104 12.2655 5.3773 17.944
264 1 -1.1104 12.1939 5.32235 15.1321
266 1 -1.1104 9.50058 8.28917 17.8991
267 2 2.2208 8.15038 6.81482 19.3131
270 1 -1.1104 9.49132 5.55604 17.851
271 1 -1.1104 9.55851 5.48426 15.0759
278 2 2.2208 8.12723 6.80746 13.6962
183 1 -1.1104 6.709 2.46962 20.8046
265 1 -1.1104 12.0648 5.43784 20.7954
239 1 -1.1104 12.3102 -3.04349 20.7879
272 1 -1.1104 9.35465 5.5111 20.8189
8778 2 2.2208 11.1401 -4.51462 16.5107
8779 2 2.2208 8.12089 -4.45609 19.2826
269 1 -1.1104 9.63524 8.35215 20.7217
251 1 -1.1104 9.59043 -3.266 20.8378
223 1 -1.1104 3.83443 5.34326 20.6478
196 1 -1.1104 3.7453 -3.05395 20.7897
189 1 -1.1104 1.05395 -0.404865 20.6886
180 1 -1.1104 1.24838 2.36506 20.8563
8773 2 2.2208 5.35616 -4.4053 22.1163
220 1 -1.1104 3.82929 8.05972 20.7179
178 1 -1.1104 1.01429 -3.14967 20.7056
214 1 -1.1104 1.07015 5.09297 20.8157
203 1 -1.1104 3.99873 -0.309211 20.7143
9002 2 2.2208 -0.282658 1.20072 22.1634
8994 2 2.2208 -0.242627 -1.72861 25.0058
273 2 2.2208 -0.263522 6.60217 22.3227
208 1 -1.1104 0.849363 7.75335 20.7921
283 2 2.2208 5.23388 1.12827 22.0294
284 1 -1.1104 1.00064 -3.02719 23.5598
285 1 -1.1104 1.06714 2.48589 23.5582
288 1 -1.1104 1.28047 -3.11404 26.4359
289 1 -1.1104 1.02837 2.49793 26.475
292 1 -1.1104 1.10561 -0.184773 23.5232
294 2 2.2208 5.35947 -1.65703 25.0049
295 2 2.2208 5.34855 3.97585 25.0019
296 1 -1.1104 1.31264 -0.395448 26.3012
298 1 -1.1104 3.9648 -3.07453 23.7097
299 1 -1.1104 3.93669 2.58839 23.6303
300 2 2.2208 2.62165 1.14599 25.028
301 1 -1.1104 4.11521 -3.03136 26.3991
302 1 -1.1104 3.78108 2.63335 26.4172
303 2 2.2208 2.52247 -1.68324 22.1573
304 2 2.2208 2.52966 3.84074 22.1671
305 1 -1.1104 4.03657 -0.22407 23.6
306 1 -1.1104 4.01731 -0.248553 26.3348
307 2 2.2208 5.32596 6.81557 22.0485
308 1 -1.1104 1.07169 8.2195 23.4891
312 1 -1.1104 1.05357 5.38816 23.6243
314 1 -1.1104 0.944793 5.25207 26.4182
316 1 -1.1104 3.8283 8.13691 23.5732
317 2 2.2208 2.45662 6.83079 24.9649
318 1 -1.1104 3.81714 8.16528 26.4855
319 1 -1.1104 3.76224 5.32903 23.4479
320 1 -1.1104 3.87837 5.47746 26.1878
310 1 -1.1104 0.987599 8.15763 26.3328
231 2 2.2208 -0.400446 3.95844 24.9936
171 2 2.2208 5.39652 6.81709 27.6866
277 1 -1.1104 9.41426 8.13451 23.5134
8781 2 2.2208 8.20487 -4.48899 24.967
8695 2 2.2208 10.9406 -4.51668 22.2045
258 1 -1.1104 9.59023 -0.281465 20.8606
191 1 -1.1104 6.8043 -0.306149 20.6952
323 1 -1.1104 12.3102 -0.461883 23.5636
253 1 -1.1104 9.47297 2.53294 20.6717
327 1 -1.1104 12.3903 8.29227 23.6794
332 2 2.2208 10.9843 4.03838 24.9173
335 1 -1.1104 9.5486 5.52103 23.599
313 1 -1.1104 6.67123 5.15692 23.6573
274 1 -1.1104 9.61977 -3.00017 26.3185
281 1 -1.1104 12.3784 -0.240289 26.3573
339 1 -1.1104 12.2497 -3.24945 23.7913
275 2 2.2208 8.16156 1.07218 24.9492
224 2 2.2208 8.00783 3.96949 22.2432
216 1 -1.1104 6.7903 5.31306 20.8583
340 1 -1.1104 12.4917 2.41651 23.5424
337 2 2.2208 8.1464 6.81675 24.9523
279 1 -1.1104 9.62465 2.61638 23.5306
341 1 -1.1104 12.4278 -3.00416 26.4652
241 1 -1.1104 12.2145 2.55348 20.8322
315 1 -1.1104 6.79349 5.35779 26.4166
309 1 -1.1104 6.71469 8.08257 23.3863
297 1 -1.1104 6.76224 -0.378951 26.4162
210 1 -1.1104 6.69985 8.16608 20.7567
232 1 -1.1104 9.51396 2.57856 26.5162
262 1 -1.1104 12.4446 8.14702 20.8624
311 1 -1.1104 6.79031 8.1708 26.2896
290 1 -1.1104 6.81723 -3.0743 26.4233
286 1 -1.1104 6.75994 -3.08289 23.6398
291 1 -1.1104 6.72735 2.5323 26.3533
293 1 -1.1104 6.80667 -0.350235 23.6545
287 1 -1.1104 6.62288 2.45213 23.588
280 1 -1.1104 9.50958 -3.08537 23.6222
324 1 -1.1104 12.3943 2.54945 26.4723
246 1 -1.1104 12.4837 -0.234289 20.9482
282 1 -1.1104 12.3697 5.34795 26.2507
325 1 -1.1104 12.1881 5.3759 23.4601
328 2 2.2208 10.8498 6.84408 22.1836
329 1 -1.1104 9.63893 -0.138933 26.4196
336 1 -1.1104 9.48202 8.16699 26.1871
326 1 -1.1104 12.3328 8.06241 26.4146
333 2 2.2208 10.9212 -1.6523 25.0087
334 1 -1.1104 9.57619 5.31494 26.3991
330 1 -1.1104 9.60143 -0.108581 23.5836
229 2 2.2208 8.1179 -1.71239 22.189
338 2 2.2208 10.873 1.22029 22.0584
345 2 2.2208 5.28783 12.3403 5.41227
346 1 -1.1104 1.1023 11.1034 1.10719
350 2 2.2208 5.29283 9.6385 2.53361
351 1 -1.1104 0.912014 10.993 3.78845
353 2 2.2208 2.45163 12.5486 2.45955
354 2 2.2208 2.43423 9.7958 5.11625
355 1 -1.1104 3.91919 11.1465 1.00393
357 1 -1.1104 3.63955 10.9194 3.72576
358 2 2.2208 5.29907 17.9573 5.30742
359 1 -1.1104 1.07697 13.8274 1.05889
361 1 -1.1104 1.01476 19.3041 0.974247
365 1 -1.1104 1.07434 13.8461 3.89291
366 1 -1.1104 1.15535 19.4741 3.95356
369 1 -1.1104 0.902679 16.5595 1.01175
372 2 2.2208 5.23081 15.3302 2.51914
373 2 2.2208 4.87735 20.6936 2.35089
374 1 -1.1104 1.0868 16.5843 3.86737
376 1 -1.1104 3.79617 13.9435 1.02614
378 1 -1.1104 3.75182 19.3787 0.946367
380 2 2.2208 2.23726 17.984 2.49029
381 1 -1.1104 3.84176 13.7665 3.91131
382 1 -1.1104 4.07963 19.4353 4.04356
383 2 2.2208 2.40623 15.1929 5.30921
384 2 2.2208 2.41175 20.9377 5.36375
385 1 -1.1104 3.86668 16.6742 1.14039
387 1 -1.1104 3.75544 16.6273 3.84965
391 2 2.2208 -0.247797 20.8109 2.35234
508 2 2.2208 2.40178 9.71988 -0.300214
633 2 2.2208 2.42808 20.756 -0.557451
638 2 2.2208 -0.308282 12.4625 -0.329343
356 1 -1.1104 3.67886 11.1731 6.42601
9272 2 2.2208 -0.416572 15.2235 2.41473
507 2 2.2208 5.22327 17.9772 -0.316956
402 1 -1.1104 6.54692 19.4046 1.65103
9332 2 2.2208 -0.363718 17.9575 -0.468937
368 2 2.2208 -0.277711 18.0531 5.1803
635 2 2.2208 2.4708 15.2763 -0.35845
9274 2 2.2208 -0.4414 12.4096 5.26898
9273 2 2.2208 -0.299523 9.77904 2.40808
375 1 -1.1104 6.74887 16.7373 3.74917
352 1 -1.1104 6.62398 10.9257 3.80469
362 1 -1.1104 6.52317 13.8016 1.23482
367 1 -1.1104 6.7491 13.9187 3.95698
403 1 -1.1104 6.78323 16.6867 0.981672
348 1 -1.1104 6.67984 10.9179 1.02877
392 2 2.2208 10.851 12.3905 5.25485
393 1 -1.1104 12.4796 10.911 1.11912
395 2 2.2208 10.7998 9.62437 2.48103
396 1 -1.1104 12.281 10.8803 3.91166
397 2 2.2208 7.99481 12.2795 2.57828
398 2 2.2208 8.02359 9.44337 5.32316
399 1 -1.1104 9.38558 10.8969 1.03394
401 1 -1.1104 9.4578 10.9889 3.90731
404 2 2.2208 10.7504 18.0972 5.37625
405 1 -1.1104 12.1076 13.7105 0.989584
407 1 -1.1104 12.1814 19.3939 1.12049
409 1 -1.1104 12.2965 13.7602 3.77514
410 1 -1.1104 12.1638 19.453 3.93648
411 1 -1.1104 12.3818 16.5735 1.08829
413 2 2.2208 10.8815 15.2287 2.45092
414 2 2.2208 10.7356 20.8313 2.63091
415 1 -1.1104 12.2184 16.659 3.92345
416 1 -1.1104 9.31682 13.7701 1.02422
418 1 -1.1104 9.38008 19.3446 0.975362
420 2 2.2208 8.1237 17.8582 2.40548
421 1 -1.1104 9.48059 13.6121 3.84167
422 1 -1.1104 9.15811 19.191 3.86076
423 2 2.2208 8.17602 15.1191 5.31876
424 1 -1.1104 9.50635 16.5231 1.00934
426 1 -1.1104 9.55693 16.4452 3.83243
349 1 -1.1104 6.74225 10.9439 6.5369
400 1 -1.1104 9.48189 10.8668 6.61517
490 2 2.2208 10.8844 12.3657 -0.385563
363 1 -1.1104 6.74347 13.654 6.63235
408 1 -1.1104 12.483 19.6029 6.57431
636 2 2.2208 10.8966 18.0169 -0.267484
644 2 2.2208 8.10636 9.59999 -0.403908
428 2 2.2208 8.04764 20.87 -0.16968
364 1 -1.1104 6.49372 19.283 6.52985
370 1 -1.1104 0.962599 16.618 6.65645
347 1 -1.1104 0.98511 11.0227 6.5613
464 2 2.2208 -0.345156 17.927 10.8412
9247 2 2.2208 -0.309068 12.5402 10.9785
9275 2 2.2208 -0.468309 20.9644 8.08833
377 1 -1.1104 3.83482 13.8754 6.71919
379 1 -1.1104 3.61954 19.5177 6.89532
496 2 2.2208 -0.208404 9.67939 8.08865
360 1 -1.1104 1.0211 13.7217 6.62318
445 1 -1.1104 0.764963 19.4897 6.76529
386 1 -1.1104 3.78204 16.623 6.79171
429 1 -1.1104 3.92844 19.4555 12.5344
430 1 -1.1104 3.81943 13.5716 12.4497
434 1 -1.1104 1.03083 19.3564 9.58206
435 1 -1.1104 0.887504 16.5154 9.3581
436 2 2.2208 5.23398 20.9771 8.00845
437 1 -1.1104 1.05294 13.8142 9.43398
438 2 2.2208 5.21939 15.2274 8.09004
441 1 -1.1104 1.19619 19.5504 12.2754
442 1 -1.1104 1.02253 13.9406 12.344
443 2 2.2208 5.36028 17.9558 10.9387
444 1 -1.1104 3.8094 19.2477 9.70488
446 2 2.2208 2.37107 18.0452 8.16428
447 1 -1.1104 3.7113 16.4796 9.48752
448 1 -1.1104 3.87695 13.844 9.59118
450 1 -1.1104 1.1328 16.7852 12.2539
451 1 -1.1104 4.04399 16.5504 12.3298
452 2 2.2208 2.38465 20.8796 10.9327
453 2 2.2208 5.25329 12.3326 10.8462
454 1 -1.1104 1.14241 11.0671 12.3269
456 2 2.2208 2.60001 15.1744 10.9942
457 1 -1.1104 1.14389 11.1228 9.49462
459 2 2.2208 2.557 12.3646 8.0987
460 2 2.2208 2.60197 9.62829 10.969
461 1 -1.1104 3.89591 10.8177 12.3812
462 1 -1.1104 3.90789 10.9511 9.59275
499 2 2.2208 5.36321 15.1344 13.8584
371 1 -1.1104 6.64777 16.4753 6.58219
478 2 2.2208 10.9504 15.2538 8.18885
468 2 2.2208 8.01355 20.7415 10.7435
390 1 -1.1104 12.2571 10.8205 12.131
479 1 -1.1104 12.2312 16.529 12.3342
433 1 -1.1104 6.60224 14.0539 9.51753
449 1 -1.1104 6.80724 16.5385 12.3602
432 1 -1.1104 6.62429 16.8661 9.31685
440 1 -1.1104 6.5638 13.6886 12.2256
476 2 2.2208 10.9435 20.9043 8.02795
483 2 2.2208 8.14486 9.54328 10.8682
425 1 -1.1104 9.35196 16.7173 6.65553
470 1 -1.1104 9.49693 19.2902 9.42143
412 1 -1.1104 12.2194 16.6765 6.6887
417 1 -1.1104 9.5546 13.7484 6.7367
394 1 -1.1104 12.2148 10.9926 6.71154
484 2 2.2208 8.23428 12.2542 8.0419
439 1 -1.1104 6.65323 19.4099 12.2514
431 1 -1.1104 6.55547 19.5083 9.41469
466 1 -1.1104 9.49888 16.7736 9.36329
477 1 -1.1104 9.70152 10.9214 9.44197
406 1 -1.1104 12.2794 13.8286 6.56171
419 1 -1.1104 9.72876 19.3923 6.90455
455 1 -1.1104 6.9016 10.9089 12.3614
389 2 2.2208 10.738 9.54181 8.04132
481 1 -1.1104 12.3383 19.4325 9.48586
475 1 -1.1104 12.2765 16.5719 9.43008
472 2 2.2208 7.96657 18.255 7.96431
474 1 -1.1104 9.44043 13.8329 12.2853
458 1 -1.1104 6.99715 11.2338 9.66269
486 1 -1.1104 12.3999 19.4047 12.3076
469 2 2.2208 8.13722 15.3568 10.834
471 1 -1.1104 9.59219 13.9055 9.5465
388 1 -1.1104 12.2634 10.9448 9.46537
487 1 -1.1104 12.3736 13.5879 12.3958
482 1 -1.1104 12.3671 13.8045 9.60333
473 1 -1.1104 9.57952 19.4668 12.3431
463 2 2.2208 10.9495 12.3076 10.889
480 1 -1.1104 9.5405 11.0265 12.2166
488 2 2.2208 10.9608 17.9518 10.8111
467 1 -1.1104 9.51944 16.6404 12.2684
509 2 2.2208 5.38061 12.3394 16.4358
510 1 -1.1104 1.3277 11.0661 17.8599
512 2 2.2208 5.24207 9.48597 19.2711
513 1 -1.1104 1.16698 10.9481 15.0814
517 2 2.2208 2.44324 12.4094 19.329
518 2 2.2208 2.43576 9.49886 16.5714
519 1 -1.1104 3.99479 10.8243 17.9295
520 1 -1.1104 3.92047 10.8226 15.16
522 2 2.2208 5.37448 18.0045 16.5073
523 1 -1.1104 1.09081 13.9079 17.8925
524 1 -1.1104 0.997579 19.418 17.7449
527 1 -1.1104 1.05397 13.6658 15.0431
529 1 -1.1104 1.04174 19.0632 15.0448
535 1 -1.1104 1.21725 16.6844 18.0455
537 2 2.2208 5.24908 15.2902 19.3143
538 2 2.2208 5.2845 20.7998 19.372
539 1 -1.1104 1.15173 16.4055 15.1914
543 1 -1.1104 3.79978 13.7137 17.9821
544 1 -1.1104 3.83636 19.4968 17.9038
545 2 2.2208 2.53374 18.0558 19.3492
546 1 -1.1104 3.87429 13.7125 15.3086
548 1 -1.1104 3.82696 19.4023 15.1908
550 2 2.2208 2.56627 15.1461 16.5154
551 2 2.2208 2.44395 20.8354 16.4336
552 1 -1.1104 3.91983 16.5767 17.7929
553 1 -1.1104 3.94829 16.6032 15.0163
9429 2 2.2208 -0.320684 20.9532 19.1088
558 2 2.2208 2.55912 12.1885 13.8079
557 2 2.2208 5.45854 9.57821 13.8027
525 1 -1.1104 6.59265 13.8115 17.8457
556 2 2.2208 -0.26767 20.6882 13.7527
559 2 2.2208 -0.328657 15.1603 13.7674
594 2 2.2208 -0.285813 17.8921 16.4706
498 2 2.2208 5.32965 20.7452 13.7969
497 2 2.2208 2.5389 17.9846 13.7951
9428 2 2.2208 -0.254952 12.3613 16.6547
595 2 2.2208 -0.280335 15.2678 19.2888
9323 2 2.2208 -0.217173 9.6761 13.7905
515 1 -1.1104 6.89197 10.846 15.2016
533 1 -1.1104 6.81593 19.3261 15.0932
536 1 -1.1104 6.66621 16.598 18.0174
506 2 2.2208 8.0319 12.4692 13.6232
526 1 -1.1104 6.83302 19.4013 17.9011
511 1 -1.1104 6.75369 11.0569 17.8501
541 1 -1.1104 6.70206 16.6229 15.2699
531 1 -1.1104 6.6933 13.8046 15.0234
560 2 2.2208 10.9722 12.404 16.4985
561 1 -1.1104 12.4576 11.0037 17.8504
562 2 2.2208 11.032 9.57443 19.4159
563 1 -1.1104 12.253 11.0003 15.0873
565 2 2.2208 8.14258 12.3597 19.2379
566 2 2.2208 8.23695 9.54702 16.4508
567 1 -1.1104 9.60248 11.0792 18.0263
568 1 -1.1104 9.54057 11.0741 15.2939
570 2 2.2208 10.9474 17.9911 16.4473
571 1 -1.1104 12.3327 13.8196 17.9653
572 1 -1.1104 12.3845 19.3927 17.8465
573 1 -1.1104 12.4543 13.6285 15.2849
575 1 -1.1104 12.3435 19.4464 15.1175
577 1 -1.1104 12.3195 16.6093 17.9628
578 2 2.2208 10.9539 15.1904 19.3176
579 2 2.2208 10.8125 20.8257 19.2865
580 1 -1.1104 12.3366 16.4655 15.0976
582 1 -1.1104 9.54672 13.8891 17.8971
583 1 -1.1104 9.6295 19.4236 17.8024
584 2 2.2208 8.16305 18.0369 19.1714
585 1 -1.1104 9.50035 13.9847 15.059
587 1 -1.1104 9.53143 19.3699 15.035
589 2 2.2208 8.16445 15.2312 16.4867
590 2 2.2208 8.21458 20.7768 16.3993
591 1 -1.1104 9.54831 16.5926 17.7858
592 1 -1.1104 9.49889 16.6202 14.8301
564 1 -1.1104 12.557 10.9369 20.6989
502 2 2.2208 8.17823 18.0468 13.6638
261 1 -1.1104 12.3806 8.15944 15.1819
593 1 -1.1104 9.4678 16.6517 20.5243
581 1 -1.1104 12.2417 16.595 20.8151
504 2 2.2208 10.8612 9.59671 13.6339
501 2 2.2208 10.9712 15.0606 13.6398
500 2 2.2208 10.9639 20.8749 13.606
528 1 -1.1104 1.07173 13.8239 20.6226
554 1 -1.1104 3.94159 16.5824 20.706
530 1 -1.1104 0.976811 19.6018 20.7678
540 1 -1.1104 1.13457 16.6821 20.7917
9327 2 2.2208 -0.393975 20.9253 24.9153
9393 2 2.2208 -0.424902 12.3554 22.0037
547 1 -1.1104 3.90318 13.8511 20.7308
639 2 2.2208 -0.391576 15.1561 24.8352
549 1 -1.1104 3.90011 19.436 20.5971
521 1 -1.1104 4.2041 10.9037 20.7943
514 1 -1.1104 1.30422 11.2609 21.0274
600 1 -1.1104 3.82254 19.5249 23.4885
602 1 -1.1104 3.83261 13.9367 23.4615
604 1 -1.1104 0.95481 19.3079 26.3012
605 1 -1.1104 0.970856 16.4903 26.2896
606 1 -1.1104 1.02307 13.7426 26.3028
608 2 2.2208 5.25529 20.8706 24.94
609 2 2.2208 5.13534 15.1535 24.8058
611 1 -1.1104 1.11548 19.5739 23.6067
612 1 -1.1104 0.953117 13.7819 23.436
613 2 2.2208 5.27906 17.9962 22.0634
614 1 -1.1104 3.91743 19.4264 26.1676
615 2 2.2208 2.4785 17.9684 24.8539
616 1 -1.1104 3.80833 16.6248 26.3797
617 1 -1.1104 3.86541 13.7259 26.2965
619 1 -1.1104 0.982406 16.6373 23.5975
620 1 -1.1104 3.90993 16.6404 23.465
621 2 2.2208 2.30203 20.9876 22.1074
622 2 2.2208 5.43111 12.3344 22.1462
623 1 -1.1104 1.05598 10.9485 23.5949
625 2 2.2208 2.48462 15.0979 22.0476
626 2 2.2208 5.22224 9.6274 24.9863
627 1 -1.1104 0.987676 10.9055 26.3761
629 2 2.2208 2.39344 12.3704 24.8666
630 2 2.2208 2.36239 9.57547 22.0968
631 1 -1.1104 3.78004 10.8952 23.6432
632 1 -1.1104 3.8043 10.9495 26.3739
643 2 2.2208 -0.275806 9.6759 24.8817
642 2 2.2208 -0.275474 18.031 22.0618
637 2 2.2208 5.22914 12.4889 27.7262
667 2 2.2208 10.7579 17.9313 22.0708
660 1 -1.1104 12.259 19.3886 26.3508
569 1 -1.1104 9.76561 10.9012 20.7738
574 1 -1.1104 12.3261 13.8859 20.974
576 1 -1.1104 12.1813 19.4405 20.8064
661 1 -1.1104 12.287 13.7424 26.4159
651 1 -1.1104 6.64667 19.4808 26.4969
628 1 -1.1104 6.6704 11.0158 26.3698
607 1 -1.1104 6.77485 19.3297 23.688
534 1 -1.1104 6.66365 19.5002 20.7849
650 1 -1.1104 9.45107 13.6878 26.3417
655 1 -1.1104 12.2593 16.6305 26.4424
648 2 2.2208 7.99459 15.2266 22.0453
588 1 -1.1104 9.51313 19.5109 20.6325
649 1 -1.1104 9.34779 19.5001 26.2221
658 2 2.2208 10.797 15.1707 24.9916
666 1 -1.1104 12.2836 13.7992 23.6728
542 1 -1.1104 6.71659 16.897 20.6958
645 1 -1.1104 9.3048 16.5519 26.3327
532 1 -1.1104 6.64493 13.9794 20.7154
603 1 -1.1104 6.52277 16.5476 26.3698
662 1 -1.1104 9.36273 11.102 23.5688
618 1 -1.1104 6.51313 16.5672 23.5538
646 1 -1.1104 9.37842 16.6226 23.4824
657 2 2.2208 10.7949 20.8133 24.8673
586 1 -1.1104 9.50943 13.7585 20.6803
516 1 -1.1104 6.99215 10.9552 20.6512
610 1 -1.1104 6.62649 13.8112 23.5145
671 1 -1.1104 12.3853 10.94 26.2333
601 1 -1.1104 6.6437 13.8093 26.3865
624 1 -1.1104 6.56947 10.9346 23.5599
663 2 2.2208 8.11753 9.61257 22.125
654 1 -1.1104 9.40443 13.8347 23.5025
665 1 -1.1104 12.2066 19.3148 23.4964
668 2 2.2208 10.9125 12.4356 22.185
656 1 -1.1104 9.54435 10.8773 26.326
669 1 -1.1104 12.3005 11.1267 23.6002
664 2 2.2208 8.01043 12.4139 24.997
653 1 -1.1104 9.38679 19.3739 23.4115
652 2 2.2208 8.02431 17.9985 25.0313
670 2 2.2208 10.8513 9.51722 24.9228
659 1 -1.1104 12.2605 16.4762 23.5536
647 2 2.2208 8.10123 20.8105 22.0643
596 2 2.2208 8.03758 15.0856 27.7222
673 2 2.2208 5.11597 23.8344 5.32696
674 2 2.2208 5.31408 29.2983 5.20923
675 1 -1.1104 1.07796 24.9967 1.11553
676 1 -1.1104 0.953016 24.9418 3.90297
677 1 -1.1104 1.17951 22.1653 0.980098
678 1 -1.1104 1.08929 27.7715 1.17459
679 2 2.2208 5.30588 26.3577 2.33967
680 1 -1.1104 0.973589 22.2268 3.79211
681 1 -1.1104 0.829568 27.7369 3.94439
683 1 -1.1104 3.72099 24.8691 0.956705
684 2 2.2208 2.4151 23.5615 2.43387
685 2 2.2208 2.32326 29.095 2.56213
686 1 -1.1104 3.75276 25.0655 3.77718
687 2 2.2208 2.33701 26.4369 5.26462
688 1 -1.1104 3.82286 22.1049 0.906736
689 1 -1.1104 3.99324 27.6573 1.01986
690 1 -1.1104 3.88064 22.1951 3.76878
691 1 -1.1104 3.76715 27.8196 3.85922
692 1 -1.1104 0.995592 30.6673 1.01479
693 1 -1.1104 1.08789 30.7308 3.77656
694 1 -1.1104 1.09253 33.5687 0.936678
695 2 2.2208 5.29513 32.0134 2.47304
696 1 -1.1104 0.975544 33.3981 3.57274
698 1 -1.1104 3.86366 30.5382 1.11415
699 1 -1.1104 3.86072 30.7465 3.878
700 2 2.2208 2.36066 32.1109 5.14298
701 1 -1.1104 3.94083 33.3525 1.05686
702 1 -1.1104 3.86003 33.4942 3.80994
707 1 -1.1104 6.51614 24.7271 3.77152
729 1 -1.1104 6.70325 30.6927 1.1054
9608 2 2.2208 -0.486466 26.4438 2.47387
759 1 -1.1104 3.78891 33.5333 6.41601
710 1 -1.1104 6.52975 27.7336 3.61946
975 2 2.2208 2.36003 26.4296 -0.283319
731 1 -1.1104 6.73426 33.4451 1.12629
749 1 -1.1104 6.60213 22.5302 6.58369
747 1 -1.1104 1.09517 22.2392 6.70808
9660 2 2.2208 -0.392788 23.7106 -0.338708
9663 2 2.2208 -0.423497 29.2313 -0.412043
842 2 2.2208 5.18683 29.2837 -0.291729
976 2 2.2208 2.42091 32.0384 -0.314131
708 1 -1.1104 6.57799 22.1958 1.39984
709 1 -1.1104 6.80964 27.8198 0.966085
706 1 -1.1104 6.69389 24.9544 1.10009
843 2 2.2208 8.14756 32.1305 -0.349475
730 1 -1.1104 6.65004 30.6512 3.97229
697 1 -1.1104 6.58973 33.4047 3.9238
980 2 2.2208 10.9539 23.5901 -0.411024
711 2 2.2208 11.0133 23.6116 5.33935
712 2 2.2208 10.8883 29.1336 5.15212
713 1 -1.1104 12.282 24.9493 0.872748
714 1 -1.1104 12.2779 25.0522 3.96821
715 1 -1.1104 12.2007 22.2319 1.14597
716 1 -1.1104 12.3102 27.8563 1.0769
717 2 2.2208 10.8885 26.4945 2.40216
718 1 -1.1104 12.2402 22.1602 4.04711
719 1 -1.1104 12.2612 27.791 3.85564
720 1 -1.1104 9.44729 25.062 0.908908
721 2 2.2208 8.25272 23.6919 2.32181
722 2 2.2208 8.11894 29.2348 2.38371
723 1 -1.1104 9.62859 25.1125 3.75848
724 2 2.2208 8.0685 26.25 5.11499
725 1 -1.1104 9.3775 22.3408 0.937219
726 1 -1.1104 9.62262 27.8693 1.04217
727 1 -1.1104 9.47563 22.3708 3.7498
728 1 -1.1104 9.32737 27.9373 3.83205
732 1 -1.1104 12.2449 30.7154 0.864791
733 1 -1.1104 12.2621 30.5494 3.66865
734 1 -1.1104 12.3574 33.674 1.06211
735 2 2.2208 10.875 32.1307 2.50151
736 1 -1.1104 12.2319 33.4301 3.81681
737 1 -1.1104 9.4652 30.5878 0.913179
738 1 -1.1104 9.48773 30.6309 3.75527
739 2 2.2208 8.14855 31.9639 5.17819
740 1 -1.1104 9.54223 33.4399 0.91397
741 1 -1.1104 9.37278 33.5959 3.70438
828 2 2.2208 13.5851 32.0222 5.19818
942 2 2.2208 10.8119 29.1724 -0.559547
799 1 -1.1104 9.44324 25.1101 6.49765
805 1 -1.1104 9.33458 33.328 6.37585
802 1 -1.1104 12.4396 30.506 6.51744
979 2 2.2208 8.21456 26.4296 -0.417721
758 1 -1.1104 3.62454 30.7494 6.63968
9562 2 2.2208 -0.31175 23.8016 10.8772
9544 2 2.2208 -0.30031 29.151 10.813
840 2 2.2208 -0.390885 32.1068 7.88256
752 1 -1.1104 3.80403 22.3268 6.60315
754 1 -1.1104 1.04027 30.6259 6.50735
756 1 -1.1104 1.02414 33.5939 6.45145
753 1 -1.1104 3.89902 28.0358 6.65899
751 1 -1.1104 3.78417 25.2386 6.68277
748 1 -1.1104 0.94279 27.8332 6.57218
745 1 -1.1104 1.07195 25.0632 6.75511
760 2 2.2208 5.37279 23.648 10.8749
761 2 2.2208 5.08638 29.2432 11.0082
762 1 -1.1104 1.05158 25.2387 12.2749
764 1 -1.1104 1.25431 25.0681 9.61841
766 1 -1.1104 1.04798 22.2709 12.4658
767 1 -1.1104 1.10487 27.8315 12.2513
770 2 2.2208 5.30962 26.5936 8.00525
771 1 -1.1104 1.10519 22.183 9.54367
772 1 -1.1104 1.02571 27.9811 9.37732
775 1 -1.1104 3.85205 24.9562 12.427
776 2 2.2208 2.43742 23.6004 8.11874
777 2 2.2208 2.41545 29.2507 8.02313
778 1 -1.1104 3.95326 25.1 9.56177