ITEM: TIMESTEP
70000
ITEM: NUMBER OF ATOMS
17820
ITEM: BOX BOUNDS pp pp pp
-3.6912134222984300e-01 2.7709121342229949e+01
-4.3511587872658328e+00 3.3243115878726559e+02
-3.6567858586760671e-01 2.7705678585867680e+01
ITEM: ATOMS id type q x y z
1 2 2.2208 5.51407 1.33407 5.27505
2 1 -1.1104 1.16579 -3.12198 1.03223
3 1 -1.1104 1.07831 2.65035 1.23941
6 1 -1.1104 0.912407 -2.92617 3.76483
7 1 -1.1104 1.22868 2.7428 3.90374
10 1 -1.1104 1.09956 -0.240901 1.01142
12 2 2.2208 5.33666 -1.51926 2.52428
13 2 2.2208 5.34761 4.04412 2.50439
14 1 -1.1104 1.31576 -0.0249844 3.84969
16 1 -1.1104 3.96924 -2.8123 1.13607
17 1 -1.1104 3.88531 2.81585 0.911146
18 2 2.2208 2.51582 1.31144 2.4284
19 1 -1.1104 3.89827 -3.03728 3.95055
20 1 -1.1104 4.06866 2.51345 3.71668
21 2 2.2208 2.54987 -1.45866 5.23628
22 2 2.2208 2.42751 4.06518 5.30611
23 1 -1.1104 3.83391 -0.0497939 1.2561
24 1 -1.1104 4.08801 -0.202774 3.87775
25 2 2.2208 5.51195 6.83673 5.05158
26 1 -1.1104 0.930523 8.26307 1.12418
28 1 -1.1104 1.04576 8.42794 3.7625
30 1 -1.1104 1.09933 5.46751 1.21932
32 1 -1.1104 1.08779 5.56422 4.09289
34 1 -1.1104 3.65926 8.51079 1.19585
35 2 2.2208 2.36827 6.93836 2.54096
36 1 -1.1104 3.91401 8.35603 4.07048
37 1 -1.1104 3.96153 5.40395 1.05245
38 1 -1.1104 3.9695 5.23015 3.82413
80 1 -1.1104 1.15969 -2.82541 6.59898
8948 2 2.2208 -0.358756 -1.54917 2.28987
8892 2 2.2208 -0.306603 1.26597 5.21694
8947 2 2.2208 -0.354352 6.9486 5.30796
8886 2 2.2208 -0.385689 4.25785 2.48715
81 1 -1.1104 1.12457 2.71649 6.82458
8583 2 2.2208 10.8051 -4.27535 5.39902
322 2 2.2208 2.53935 -1.59045 -0.24872
8580 2 2.2208 5.246 -4.43867 5.30307
92 1 -1.1104 6.76025 5.29215 6.64848
93 1 -1.1104 3.9089 5.83185 6.66218
84 1 -1.1104 1.18834 -0.0278559 6.70867
87 1 -1.1104 4.0411 2.95888 6.51442
8579 2 2.2208 2.5633 -4.41422 2.39244
8958 2 2.2208 -0.268999 -4.41522 5.18642
8955 2 2.2208 -0.361898 1.41108 -0.292875
8578 2 2.2208 8.03371 -4.30125 8.0292
321 2 2.2208 5.26433 1.2706 -0.288849
170 2 2.2208 2.51486 4.02647 -0.310372
29 1 -1.1104 6.52785 8.16219 3.58541
11 1 -1.1104 6.79273 -0.119957 1.07167
90 1 -1.1104 6.6629 8.18078 6.52149
8 1 -1.1104 6.55929 -2.92836 3.99719
31 1 -1.1104 6.71133 5.46511 1.00712
15 1 -1.1104 6.72435 0.000720995 3.79668
5 1 -1.1104 6.78032 2.68034 1.13601
27 1 -1.1104 6.54394 8.24096 0.87403
33 1 -1.1104 6.83799 5.41045 3.79712
9 1 -1.1104 6.78221 2.72658 3.88715
4 1 -1.1104 6.66372 -2.93918 0.980531
67 1 -1.1104 12.4253 8.27602 3.7554
46 2 2.2208 10.9485 1.27635 5.3149
47 1 -1.1104 12.3109 -2.76912 1.09472
48 1 -1.1104 12.4985 2.79147 1.2289
49 1 -1.1104 12.1911 -2.97522 4.05407
50 1 -1.1104 12.5127 2.62595 3.86532
51 1 -1.1104 12.1724 -0.0449711 1.21914
52 2 2.2208 10.735 -1.55726 2.55615
53 2 2.2208 11.0705 4.0842 2.46548
54 1 -1.1104 12.2573 -0.195856 3.91782
55 1 -1.1104 9.65685 -3.00621 1.07681
56 1 -1.1104 9.50776 2.6451 1.11163
57 2 2.2208 8.14308 1.36883 2.63561
58 1 -1.1104 9.42128 -2.94249 3.9523
59 1 -1.1104 9.73756 2.96898 3.95856
60 2 2.2208 8.11736 -1.51922 5.3849
61 2 2.2208 8.13578 4.18185 5.28429
62 1 -1.1104 9.35284 -0.197105 1.13448
63 1 -1.1104 9.57903 -0.147708 3.98728
65 2 2.2208 10.899 6.99918 5.30422
68 1 -1.1104 12.2576 5.73141 1.05618
69 1 -1.1104 12.4603 5.43269 3.7471
70 1 -1.1104 9.40058 8.22493 0.895524
71 2 2.2208 8.19426 6.75932 2.28672
72 1 -1.1104 9.49514 8.37306 3.70799
73 1 -1.1104 9.52852 5.39702 1.09165
74 1 -1.1104 9.58903 5.55805 3.82999
66 1 -1.1104 12.2781 8.43948 0.951196
343 2 2.2208 8.14516 4.13339 -0.361974
166 2 2.2208 10.9082 -4.32152 11.0559
8584 2 2.2208 2.49785 -4.31996 8.189
146 1 -1.1104 9.54933 5.67208 6.61026
142 1 -1.1104 12.1964 8.60394 6.68247
138 1 -1.1104 12.2405 -0.0882697 6.59456
143 1 -1.1104 12.326 5.75752 6.8053
144 1 -1.1104 9.42003 8.39081 6.7484
75 2 2.2208 8.15127 -1.55047 -0.282986
149 2 2.2208 7.9725 7.0552 8.00281
150 1 -1.1104 9.59031 2.77985 12.4126
331 2 2.2208 10.8492 7.0791 -0.445837
91 1 -1.1104 1.13819 5.4795 6.62073
86 1 -1.1104 4.07806 -2.80574 6.8396
8798 2 2.2208 -0.34523 -1.5241 7.94161
89 1 -1.1104 1.46165 8.37601 6.7494
8850 2 2.2208 -0.321713 4.10867 8.09966
88 1 -1.1104 3.96226 0.0633556 6.82709
8913 2 2.2208 -0.207796 6.86245 10.8285
165 2 2.2208 10.9309 1.22558 -0.33321
94 2 2.2208 5.47151 1.28971 10.8334
95 1 -1.1104 1.14728 -3.03126 12.4189
96 1 -1.1104 0.969093 2.66764 12.2725
98 1 -1.1104 1.06573 -2.88523 9.55304
99 1 -1.1104 1.1143 2.71136 9.56475
102 1 -1.1104 1.05683 -0.0991676 12.3044
104 2 2.2208 5.31357 -1.51235 8.25522
105 2 2.2208 5.32315 4.17094 8.0675
106 1 -1.1104 0.966898 -0.0376225 9.4561
108 1 -1.1104 4.08986 -2.98804 12.3321
109 1 -1.1104 4.13417 2.49165 12.1721
110 2 2.2208 2.41747 1.36408 8.32329
111 1 -1.1104 3.88531 -2.88506 9.51102
112 1 -1.1104 4.06526 2.96991 9.45062
113 2 2.2208 2.39054 -1.62604 10.9113
114 2 2.2208 2.55033 4.11759 11.0111
115 1 -1.1104 3.82848 -0.279074 12.423
116 1 -1.1104 3.88534 -0.193591 9.60347
117 2 2.2208 5.52325 6.55351 11.0568
118 1 -1.1104 1.16314 8.36589 12.2181
120 1 -1.1104 1.28077 8.26597 9.32287
122 1 -1.1104 1.09676 5.45765 12.3904
124 1 -1.1104 1.09417 5.22827 9.55064
126 1 -1.1104 3.82313 7.8912 11.706
127 2 2.2208 2.34247 6.67183 8.07
129 1 -1.1104 3.96748 5.2137 12.3196
130 1 -1.1104 3.81294 5.59963 9.58126
44 1 -1.1104 9.41154 -0.104489 12.3186
8581 2 2.2208 11.0288 -4.37171 -0.334714
152 1 -1.1104 12.4135 -2.86826 12.4023
78 2 2.2208 8.11828 -1.56588 10.8706
134 1 -1.1104 9.47315 -2.88924 9.25489
159 1 -1.1104 12.307 -0.152848 9.32216
43 1 -1.1104 9.55534 -0.210595 9.54131
132 1 -1.1104 12.3509 8.34631 9.37936
155 1 -1.1104 12.3504 2.59487 9.5489
160 1 -1.1104 9.50061 -2.82183 12.1741
151 2 2.2208 10.8416 1.22835 10.956
154 1 -1.1104 12.1701 -2.90823 9.56407
133 1 -1.1104 12.2867 8.30606 12.2784
85 1 -1.1104 6.75411 -0.0377381 6.65931
83 1 -1.1104 6.75632 2.71407 6.66193
139 1 -1.1104 9.56162 -2.86046 6.6927
137 1 -1.1104 12.3425 2.66348 6.73453
40 2 2.2208 10.9986 6.95666 10.7668
136 1 -1.1104 12.341 -2.86755 6.61687
64 2 2.2208 8.19623 4.05832 10.7768
145 1 -1.1104 9.61355 5.59016 9.49388
153 1 -1.1104 12.3976 2.70338 12.3005
119 1 -1.1104 6.58033 8.19494 12.3689
101 1 -1.1104 6.80331 2.60812 9.45366
45 1 -1.1104 9.42606 8.2706 12.2908
148 1 -1.1104 9.4844 8.26522 9.50261
157 2 2.2208 10.8766 -1.50726 8.09733
135 2 2.2208 8.15859 1.42322 8.11175
82 1 -1.1104 6.81243 -2.89336 6.80715
103 1 -1.1104 6.6801 -0.450035 12.3712
97 1 -1.1104 6.8365 2.34813 12.3008
121 1 -1.1104 6.72067 8.02696 9.67077
156 1 -1.1104 12.1963 -0.0299762 12.2422
107 1 -1.1104 6.85506 -0.05418 9.40754
125 1 -1.1104 6.61253 5.33602 9.45994
128 1 -1.1104 12.2972 5.58158 9.56789
123 1 -1.1104 6.88194 5.2028 12.3181
131 1 -1.1104 12.1803 5.49625 12.2742
140 1 -1.1104 9.45424 2.84874 6.70723
141 1 -1.1104 9.48193 -0.0515076 6.68382
158 2 2.2208 10.955 4.14673 8.06019
79 1 -1.1104 9.54587 2.69196 9.54637
100 1 -1.1104 6.66626 -2.93394 9.865
147 1 -1.1104 9.39885 5.58549 12.1417
8606 2 2.2208 5.30491 -4.32044 -0.423835
171 2 2.2208 5.25857 6.80366 -0.353007
77 2 2.2208 13.7368 6.99527 2.45005
161 2 2.2208 13.6133 4.37208 -0.355501
168 2 2.2208 10.9047 4.10803 13.6456
172 2 2.2208 5.33099 1.28115 16.5527
173 1 -1.1104 1.11301 -2.90716 17.856
174 1 -1.1104 0.997053 2.65597 17.8732
177 1 -1.1104 1.16612 -3.01978 15.0789
179 1 -1.1104 1.29879 2.5937 15.0409
184 1 -1.1104 1.20449 -0.158062 17.8253
186 2 2.2208 5.40752 -1.53084 19.2919
187 2 2.2208 5.27448 4.25423 19.1333
188 1 -1.1104 1.2032 -0.165661 15.0997
192 1 -1.1104 3.95218 -3.01411 17.8058
193 1 -1.1104 3.83504 2.70726 17.8418
194 2 2.2208 2.45989 1.15274 19.2527
195 1 -1.1104 4.11564 -3.07732 15.0488
197 1 -1.1104 3.95452 2.66944 15.0721
199 2 2.2208 2.5538 -1.60232 16.5038
200 2 2.2208 2.5662 3.99314 16.5048
201 1 -1.1104 3.95637 -0.0463727 17.9448
202 1 -1.1104 4.06028 -0.177696 15.2394
204 2 2.2208 5.37259 6.96746 16.4032
205 1 -1.1104 1.12309 8.01084 17.5782
207 1 -1.1104 1.17225 8.19525 14.8208
211 1 -1.1104 1.12114 5.3222 17.8663
213 1 -1.1104 1.23963 5.36947 14.9288
218 2 2.2208 2.62652 7.08291 19.2298
219 1 -1.1104 4.08479 8.26135 15.0977
221 1 -1.1104 3.94006 5.42069 17.672
222 1 -1.1104 3.97969 5.47861 15.043
217 1 -1.1104 3.81024 8.31811 17.8059
226 2 2.2208 -0.421475 4.15562 19.2814
9108 2 2.2208 -0.266064 1.17874 16.5128
9073 2 2.2208 -0.227057 -1.64504 19.2949
230 2 2.2208 -0.0751908 6.74533 16.2935
234 2 2.2208 5.42857 3.86587 13.6893
233 2 2.2208 2.46105 1.3301 13.5277
344 2 2.2208 -0.301156 -1.62433 13.7006
220 1 -1.1104 4.02223 8.36392 20.5594
178 1 -1.1104 1.2853 -2.91594 20.6726
198 1 -1.1104 3.84262 2.79026 20.7538
8954 2 2.2208 -0.305079 3.99231 13.7326
175 1 -1.1104 6.42621 -2.84033 17.541
182 1 -1.1104 6.70417 2.46616 15.0139
215 1 -1.1104 6.81021 5.28788 15.11
206 1 -1.1104 6.66664 8.33141 17.9403
209 1 -1.1104 6.82072 8.20528 15.1384
176 1 -1.1104 6.59981 2.89019 17.7891
212 1 -1.1104 6.66473 5.55281 17.8778
185 1 -1.1104 6.73318 -0.086629 18.0185
190 1 -1.1104 6.72129 -0.560655 15.1104
261 1 -1.1104 12.4113 8.33393 15.0842
268 1 -1.1104 9.63726 8.53232 15.1838
235 2 2.2208 10.9442 1.26965 16.6039
236 1 -1.1104 12.3471 -2.97163 17.7996
237 1 -1.1104 12.3119 2.68768 17.8846
238 1 -1.1104 12.3982 -2.85894 15.005
240 1 -1.1104 12.398 2.67882 15.0314
242 1 -1.1104 12.3663 -0.0756647 17.987
243 2 2.2208 10.8775 -1.50222 19.3172
244 2 2.2208 10.9301 4.087 19.3375
245 1 -1.1104 12.2649 -0.0956239 15.0673
247 1 -1.1104 9.31683 -2.85312 18.12
248 1 -1.1104 9.53757 2.66294 17.9451
249 2 2.2208 8.22824 1.3938 19.3426
250 1 -1.1104 9.65176 -2.85969 15.2374
252 1 -1.1104 9.49626 2.72701 15.2103
254 2 2.2208 8.21652 -1.49573 16.5739
255 2 2.2208 8.11323 4.08639 16.5185
256 1 -1.1104 9.67304 -0.114101 17.8099
257 1 -1.1104 9.56006 -0.0259422 15.1352
259 2 2.2208 10.8909 7.0057 16.4447
260 1 -1.1104 12.4772 8.42109 17.9171
263 1 -1.1104 12.2696 5.4305 17.9014
264 1 -1.1104 12.1847 5.47517 15.1077
266 1 -1.1104 9.71495 8.3482 17.9479
267 2 2.2208 8.05238 6.90975 19.1835
270 1 -1.1104 9.46007 5.53313 17.8564
271 1 -1.1104 9.56325 5.54777 14.9792
167 2 2.2208 10.8626 -1.54123 13.585
8780 2 2.2208 2.60371 -4.35301 24.8823
169 2 2.2208 5.15568 -1.52077 13.6944
269 1 -1.1104 9.68505 8.42609 20.7121
181 1 -1.1104 6.82955 -2.84905 20.5481
262 1 -1.1104 12.365 8.39091 20.7463
210 1 -1.1104 6.98637 8.50836 20.417
189 1 -1.1104 1.2238 -0.202011 20.8446
223 1 -1.1104 3.83369 5.48535 20.5562
203 1 -1.1104 3.99439 -0.161565 20.6348
196 1 -1.1104 3.91944 -3.04531 20.7249
342 2 2.2208 8.14725 1.12631 13.806
163 2 2.2208 2.53893 6.82364 13.6094
214 1 -1.1104 0.999562 5.47956 20.7386
9002 2 2.2208 -0.194789 1.28401 22.1103
8994 2 2.2208 -0.151024 -1.56271 24.9417
231 2 2.2208 -0.335307 4.07851 24.9511
180 1 -1.1104 1.01726 2.69876 20.5916
273 2 2.2208 -0.104108 6.88128 22.2156
208 1 -1.1104 1.3415 8.06938 20.8013
283 2 2.2208 5.20855 1.37551 22.085
284 1 -1.1104 1.01208 -2.98541 23.548
285 1 -1.1104 1.17265 2.69887 23.5072
288 1 -1.1104 1.19484 -3.00562 26.3632
289 1 -1.1104 1.10954 2.73682 26.499
292 1 -1.1104 1.17908 -0.0649629 23.693
294 2 2.2208 5.35263 -1.48421 24.8686
295 2 2.2208 5.25417 4.11279 24.8335
296 1 -1.1104 1.14474 0.0338872 26.3564
298 1 -1.1104 3.96338 -2.83779 23.557
299 1 -1.1104 3.82302 2.67858 23.5708
300 2 2.2208 2.60909 1.42519 25.1069
301 1 -1.1104 3.99511 -2.90465 26.3469
302 1 -1.1104 3.96052 2.77525 26.2651
303 2 2.2208 2.50526 -1.47617 22.1632
304 2 2.2208 2.47322 4.20166 22.0153
305 1 -1.1104 3.94227 -0.105703 23.6164
306 1 -1.1104 4.00242 0.0177518 26.3078
307 2 2.2208 5.24117 7.02426 22.184
308 1 -1.1104 1.04455 8.26468 23.6717
312 1 -1.1104 1.23967 5.44755 23.5949
314 1 -1.1104 1.13876 5.51188 26.3485
316 1 -1.1104 3.7959 8.38105 23.4049
317 2 2.2208 2.49285 6.93745 24.9894
318 1 -1.1104 3.86668 8.2475 26.465
319 1 -1.1104 3.8731 5.59132 23.4862
320 1 -1.1104 3.91416 5.47934 26.2482
310 1 -1.1104 1.07621 8.29436 26.2848
8778 2 2.2208 11.0598 -4.27341 16.4316
9128 2 2.2208 -0.291638 -4.28394 16.4633
191 1 -1.1104 6.7076 -0.0420857 20.7942
265 1 -1.1104 12.1251 5.64654 20.7052
327 1 -1.1104 12.3814 8.52056 23.4969
324 1 -1.1104 12.4591 2.61673 26.5616
183 1 -1.1104 6.62554 2.82337 20.6007
239 1 -1.1104 12.452 -2.67313 20.5139
334 1 -1.1104 9.55307 5.57313 26.2648
329 1 -1.1104 9.56322 -0.203915 26.2961
246 1 -1.1104 12.263 0.101955 20.7858
253 1 -1.1104 9.47103 2.64858 20.6908
330 1 -1.1104 9.48791 -0.0247149 23.5637
311 1 -1.1104 6.76796 8.35084 26.294
274 1 -1.1104 9.61084 -2.90549 26.4798
280 1 -1.1104 9.44115 -2.91119 23.5396
258 1 -1.1104 9.45998 -0.187916 20.6593
216 1 -1.1104 6.50932 5.80168 20.6604
309 1 -1.1104 6.71723 8.49567 23.4583
293 1 -1.1104 6.80903 -0.0307834 23.5693
313 1 -1.1104 6.6634 5.65632 23.4518
290 1 -1.1104 6.68575 -2.98167 26.2981
286 1 -1.1104 6.71289 -2.89006 23.4363
297 1 -1.1104 6.73093 -0.0516872 26.4074
315 1 -1.1104 6.74294 5.49139 26.2015
291 1 -1.1104 6.71861 2.73589 26.2747
241 1 -1.1104 12.3528 2.83506 20.6473
272 1 -1.1104 9.39563 5.5145 20.6565
340 1 -1.1104 12.4831 2.71749 23.6293
224 2 2.2208 7.99455 4.3046 22.0623
251 1 -1.1104 9.61634 -2.9798 20.7465
281 1 -1.1104 12.4213 -0.111136 26.3439
279 1 -1.1104 9.50591 2.75788 23.5898
326 1 -1.1104 12.4472 8.43422 26.2993
323 1 -1.1104 12.1881 -0.0857804 23.6308
287 1 -1.1104 6.86324 2.87293 23.4806
337 2 2.2208 8.13923 7.10735 24.8502
335 1 -1.1104 9.50446 5.67533 23.3808
282 1 -1.1104 12.2085 5.55491 26.2188
332 2 2.2208 10.8049 4.16828 24.9345
339 1 -1.1104 12.3316 -2.95047 23.3242
338 2 2.2208 10.8763 1.36439 22.1837
328 2 2.2208 11.0232 7.06879 22.0889
277 1 -1.1104 9.66459 8.36949 23.532
232 1 -1.1104 9.70796 2.52198 26.2449
341 1 -1.1104 12.3572 -2.87898 26.361
325 1 -1.1104 12.1705 5.53767 23.6271
229 2 2.2208 8.11441 -1.43889 21.9702
336 1 -1.1104 9.60979 8.4315 26.2508
275 2 2.2208 8.04796 1.32592 24.969
333 2 2.2208 10.9553 -1.38863 24.9275
8775 2 2.2208 2.49631 -4.48431 19.4587
278 2 2.2208 8.04139 6.89057 13.7382
8951 2 2.2208 13.698 6.92562 13.7824
8773 2 2.2208 5.35173 -4.36877 22.1615
164 2 2.2208 13.6974 1.28163 13.7448
8781 2 2.2208 8.10588 -4.37505 25.0398
227 2 2.2208 13.5917 1.18695 25.0108
8774 2 2.2208 5.2538 -4.47439 16.5917
8777 2 2.2208 13.6659 -4.30915 19.2578
17820 2 2.2208 -0.309183 -4.28913 22.0596
8985 2 2.2208 -0.261176 6.9423 27.653
345 2 2.2208 5.30674 12.7366 5.25107
346 1 -1.1104 1.14991 11.1253 0.871166
350 2 2.2208 5.18682 9.7523 2.51601
351 1 -1.1104 1.149 11.3561 3.70786
353 2 2.2208 2.63628 12.6173 2.43521
354 2 2.2208 2.53732 9.93062 5.31318
355 1 -1.1104 3.98191 11.3001 0.991722
357 1 -1.1104 3.96874 11.0692 3.90946
358 2 2.2208 5.18911 18.1042 5.33541
359 1 -1.1104 1.09236 14.0443 0.939046
361 1 -1.1104 1.1508 19.6485 1.04048
365 1 -1.1104 1.14424 14.107 3.78677
366 1 -1.1104 1.26454 19.8453 3.72996
369 1 -1.1104 1.05059 16.8586 1.18583
372 2 2.2208 5.27249 15.5974 2.4231
373 2 2.2208 5.06272 21.0642 2.23068
374 1 -1.1104 1.09657 16.8816 3.92629
376 1 -1.1104 3.95435 14.0556 1.08031
378 1 -1.1104 3.87629 19.6478 0.77822
380 2 2.2208 2.51169 18.3227 2.33331
381 1 -1.1104 3.85478 14.1321 3.74445
382 1 -1.1104 4.26372 19.7064 3.72564
383 2 2.2208 2.47499 15.404 5.19639
384 2 2.2208 2.53755 21.0834 5.25828
385 1 -1.1104 3.83518 16.9521 0.996209
387 1 -1.1104 3.92271 16.8784 3.85246
356 1 -1.1104 3.6247 11.4672 6.67212
368 2 2.2208 -0.31564 18.1884 5.33805
508 2 2.2208 2.57441 9.78763 -0.382979
9273 2 2.2208 -0.380046 9.74244 2.41698
391 2 2.2208 -0.328627 20.9884 2.32838
493 2 2.2208 13.7239 20.9063 10.9401
428 2 2.2208 7.98407 21.0882 -0.338191
371 1 -1.1104 6.77652 16.7896 6.61996
637 2 2.2208 5.39435 12.5953 -0.366378
468 2 2.2208 7.9724 20.9243 10.954
403 1 -1.1104 6.77444 16.7617 0.93779
367 1 -1.1104 6.60277 14.3042 4.1316
375 1 -1.1104 6.56827 17.3201 3.78334
352 1 -1.1104 6.70513 11.4279 3.71899
348 1 -1.1104 6.87317 11.1219 1.13677
402 1 -1.1104 6.598 19.7567 1.22178
362 1 -1.1104 6.71568 13.9938 1.04341
349 1 -1.1104 6.80623 11.2876 6.33154
392 2 2.2208 10.9117 12.658 5.23199
393 1 -1.1104 12.5056 11.0785 1.10258
395 2 2.2208 10.9164 9.82377 2.42161
396 1 -1.1104 12.307 11.1358 3.96219
397 2 2.2208 8.11056 12.6423 2.42159
398 2 2.2208 8.08491 9.85951 5.17512
399 1 -1.1104 9.74963 11.0492 0.822997
401 1 -1.1104 9.52451 11.3043 3.76718
404 2 2.2208 10.7583 18.3012 5.2334
405 1 -1.1104 12.195 13.99 1.02437
407 1 -1.1104 12.3095 19.5943 1.0146
409 1 -1.1104 12.3627 14.1234 3.86513
410 1 -1.1104 12.1124 19.7516 3.78281
411 1 -1.1104 12.264 16.6793 1.03869
413 2 2.2208 10.8928 15.3527 2.48832
414 2 2.2208 10.6321 21.0515 2.53742
415 1 -1.1104 12.1459 16.8998 3.94055
416 1 -1.1104 9.39001 14.0713 1.08295
418 1 -1.1104 9.4722 19.6628 0.950333
420 2 2.2208 8.18071 18.1183 2.34039
421 1 -1.1104 9.5326 13.9513 3.86015
422 1 -1.1104 9.17375 19.507 3.7338
423 2 2.2208 8.18528 15.3353 5.30915
424 1 -1.1104 9.5836 16.7578 0.999198
426 1 -1.1104 9.33892 16.755 3.68182
394 1 -1.1104 12.3023 11.2305 6.64338
412 1 -1.1104 12.2969 16.7377 6.65474
425 1 -1.1104 9.5603 16.7315 6.40749
363 1 -1.1104 6.79496 14.0393 6.73687
408 1 -1.1104 12.3223 19.5679 6.66372
419 1 -1.1104 9.64725 19.4824 6.79589
644 2 2.2208 8.1557 9.70718 -0.342563
479 1 -1.1104 12.224 16.7381 12.4419
472 2 2.2208 8.03382 18.2943 8.09507
347 1 -1.1104 1.01352 11.0737 6.61081
475 1 -1.1104 12.297 16.8374 9.53111
484 2 2.2208 8.0968 12.4648 8.03438
495 2 2.2208 13.6966 9.64974 11.051
464 2 2.2208 -0.415911 18.1636 10.9499
370 1 -1.1104 0.948068 16.8224 6.70109
379 1 -1.1104 3.84774 19.7165 6.74953
445 1 -1.1104 1.03402 19.5697 6.52999
377 1 -1.1104 3.81524 14.1213 6.63928
483 2 2.2208 8.02869 9.67595 10.9121
360 1 -1.1104 1.06399 14.1427 6.67518
386 1 -1.1104 3.88373 16.7763 6.75568
463 2 2.2208 10.8148 12.4458 10.8294
429 1 -1.1104 3.83824 19.5687 12.3124
430 1 -1.1104 3.8418 13.6389 12.2473
434 1 -1.1104 1.05019 19.6263 9.40699
435 1 -1.1104 0.990654 16.844 9.49073
436 2 2.2208 5.16477 20.9318 8.10034
437 1 -1.1104 0.951763 13.9976 9.53623
438 2 2.2208 5.3374 15.4748 8.00908
441 1 -1.1104 1.08136 19.5757 12.2444
442 1 -1.1104 1.01854 13.955 12.2741
443 2 2.2208 5.19374 18.0894 10.8461
444 1 -1.1104 3.84434 19.4961 9.56205
446 2 2.2208 2.46317 18.1684 8.10308
447 1 -1.1104 3.76693 16.714 9.49293
448 1 -1.1104 3.86956 13.9906 9.45481
450 1 -1.1104 1.09352 16.917 12.3941
451 1 -1.1104 3.83373 16.6916 12.2674
452 2 2.2208 2.42607 20.9738 10.9065
453 2 2.2208 5.25116 12.4913 10.8021
454 1 -1.1104 1.02074 11.121 12.2445
456 2 2.2208 2.47568 15.3262 10.884
457 1 -1.1104 0.89815 11.1534 9.4294
459 2 2.2208 2.36112 12.6193 8.16567
460 2 2.2208 2.46283 9.74444 10.9226
461 1 -1.1104 3.64434 10.8808 12.4703
462 1 -1.1104 3.67184 11.2541 9.84832
364 1 -1.1104 6.54517 19.5042 6.69317
455 1 -1.1104 6.63257 11.156 12.3345
449 1 -1.1104 6.59655 16.6488 12.2384
388 1 -1.1104 12.2623 11.1528 9.41111
477 1 -1.1104 9.54037 11.0669 9.37832
488 2 2.2208 10.925 18.2465 10.922
467 1 -1.1104 9.40396 16.7676 12.2272
480 1 -1.1104 9.46383 11.1173 12.1613
473 1 -1.1104 9.47596 19.7003 12.3745
390 1 -1.1104 12.2489 11.1193 12.1605
478 2 2.2208 10.909 15.5485 8.01104
471 1 -1.1104 9.46039 14.0587 9.52022
400 1 -1.1104 9.43415 11.1728 6.64887
481 1 -1.1104 12.3384 19.5525 9.58394
476 2 2.2208 10.7925 20.9192 8.22037
431 1 -1.1104 6.62702 19.6953 9.60088
417 1 -1.1104 9.50622 13.9716 6.63778
433 1 -1.1104 6.57199 13.998 9.48123
486 1 -1.1104 12.3057 19.5486 12.3533
440 1 -1.1104 6.75301 14.0217 12.2638
439 1 -1.1104 6.49649 19.4343 12.4309
389 2 2.2208 10.82 9.7009 8.10473
487 1 -1.1104 12.152 13.9417 12.0757
406 1 -1.1104 12.3423 14.0177 6.64679
470 1 -1.1104 9.4719 19.514 9.61522
466 1 -1.1104 9.43733 16.9183 9.41928
469 2 2.2208 7.94014 15.3543 10.7158
458 1 -1.1104 6.9311 11.2487 9.64727
432 1 -1.1104 6.6726 16.8248 9.38632
474 1 -1.1104 9.437 13.9031 12.3471
482 1 -1.1104 12.3999 13.9932 9.47234
489 2 2.2208 13.6443 18.2102 8.13473
636 2 2.2208 10.921 18.2775 -0.410485
9285 2 2.2208 13.732 12.6257 2.49107
507 2 2.2208 5.30505 18.2233 -0.489707
490 2 2.2208 10.894 12.6617 -0.281585
500 2 2.2208 10.9317 21.1149 13.6622
506 2 2.2208 8.14876 12.6357 13.6194
635 2 2.2208 2.37604 15.3682 -0.377837
596 2 2.2208 8.07618 15.4203 -0.337549
9331 2 2.2208 13.7989 9.84698 -0.355903
509 2 2.2208 5.46673 12.5416 16.5675
510 1 -1.1104 1.1859 11.26 17.8333
512 2 2.2208 5.33129 9.72617 19.2396
513 1 -1.1104 1.07753 11.0428 15.0839
517 2 2.2208 2.50718 12.5333 19.3107
518 2 2.2208 2.48649 9.71294 16.5503
519 1 -1.1104 3.94623 11.0423 17.8484
520 1 -1.1104 3.90834 11.1163 15.0462
522 2 2.2208 5.21909 18.122 16.521
523 1 -1.1104 1.14029 14.0139 18.0107
524 1 -1.1104 1.0017 19.6753 17.9542
527 1 -1.1104 0.850784 13.8038 15.0736
529 1 -1.1104 1.20149 19.5946 15.0199
535 1 -1.1104 0.886726 16.7938 18.1659
537 2 2.2208 5.25422 15.479 19.2619
538 2 2.2208 5.27384 21.0672 19.3007
539 1 -1.1104 0.962461 16.7197 15.4472
543 1 -1.1104 3.91922 14.071 17.8718
544 1 -1.1104 3.78203 19.8056 18.044
545 2 2.2208 2.46125 18.2523 19.3645
546 1 -1.1104 3.78676 13.9638 15.0486
548 1 -1.1104 3.91244 19.6285 15.1469
550 2 2.2208 2.42203 15.2899 16.5698
551 2 2.2208 2.41727 21.0671 16.6738
552 1 -1.1104 3.72302 17.0241 17.8199
553 1 -1.1104 3.73021 16.8263 15.1265
498 2 2.2208 5.20626 21.0009 13.8214
640 2 2.2208 13.8285 15.4135 22.152
499 2 2.2208 5.18075 15.2876 13.7199
634 2 2.2208 13.6762 12.5719 24.8695
557 2 2.2208 5.36181 9.6666 13.7906
9323 2 2.2208 -0.214004 9.73239 13.6749
521 1 -1.1104 3.95659 11.0784 20.6381
599 2 2.2208 13.5231 21.1551 16.4095
639 2 2.2208 -0.364286 15.3374 24.8661
533 1 -1.1104 6.62694 19.5479 15.18
541 1 -1.1104 6.5115 16.7724 15.056
525 1 -1.1104 6.60573 14.1469 17.9076
642 2 2.2208 -0.411784 18.1401 22.0881
549 1 -1.1104 3.66894 19.7502 20.79
530 1 -1.1104 0.955081 19.6387 20.606
547 1 -1.1104 4.07697 13.9741 20.714
528 1 -1.1104 1.12531 13.8928 20.75
540 1 -1.1104 1.09034 16.8249 20.753
554 1 -1.1104 3.85136 16.9405 20.6236
542 1 -1.1104 6.71457 16.8471 20.6985
649 1 -1.1104 9.31912 19.6343 26.2384
526 1 -1.1104 6.56236 19.5544 17.8289
536 1 -1.1104 6.64122 16.8806 17.9299
531 1 -1.1104 6.7126 13.8492 15.1455
511 1 -1.1104 6.79407 11.2021 17.8909
515 1 -1.1104 6.89975 11.0331 15.1847
560 2 2.2208 10.8062 12.5945 16.3627
561 1 -1.1104 12.3253 11.269 17.8671
562 2 2.2208 10.9674 9.84547 19.2645
563 1 -1.1104 12.274 11.1831 15.0846
565 2 2.2208 8.09823 12.6335 19.3348
566 2 2.2208 8.15243 9.79768 16.6397
567 1 -1.1104 9.43818 11.2559 17.9622
568 1 -1.1104 9.62384 11.2366 15.1331
570 2 2.2208 10.7243 18.3209 16.4115
571 1 -1.1104 12.1877 14.0051 17.7478
572 1 -1.1104 12.1132 19.7799 17.8411
573 1 -1.1104 12.3846 14.1008 14.9265
575 1 -1.1104 12.2547 19.7096 15.0844
577 1 -1.1104 12.257 16.9616 17.936
578 2 2.2208 10.8841 15.3668 19.1392
579 2 2.2208 10.8543 21.0708 19.3351
580 1 -1.1104 12.2265 16.8615 15.2599
582 1 -1.1104 9.33938 14.0731 17.7448
583 1 -1.1104 9.34864 19.6918 17.7809
584 2 2.2208 7.97419 18.3034 19.1778
585 1 -1.1104 9.49738 13.9845 15.0613
587 1 -1.1104 9.42592 19.7173 15.0417
589 2 2.2208 8.06576 15.4241 16.3338
590 2 2.2208 8.06901 21.0819 16.4152
591 1 -1.1104 9.5432 16.8858 17.8947
592 1 -1.1104 9.38224 16.8217 15.0442
581 1 -1.1104 12.4553 16.8594 20.8493
569 1 -1.1104 9.68482 11.3907 20.5904
516 1 -1.1104 6.72932 11.1233 20.6985
574 1 -1.1104 12.3624 14.0142 20.5358
657 2 2.2208 10.7258 21.0194 24.8973
556 2 2.2208 -0.243469 20.9742 13.8486
501 2 2.2208 10.7166 15.4267 13.6738
633 2 2.2208 2.36678 21.0262 27.4967
652 2 2.2208 8.01776 18.3336 24.8312
514 1 -1.1104 1.18471 11.2042 20.8659
597 2 2.2208 13.7435 15.4227 16.4463
600 1 -1.1104 3.70575 19.5952 23.4628
602 1 -1.1104 3.82338 13.949 23.3932
604 1 -1.1104 0.900202 19.5927 26.2596
605 1 -1.1104 1.08438 16.7793 26.4356
606 1 -1.1104 1.26849 14.0262 26.1883
608 2 2.2208 5.26449 21.1028 24.8804
609 2 2.2208 5.32435 15.5014 24.8295
611 1 -1.1104 0.936398 19.4716 23.4293
612 1 -1.1104 1.06485 13.8301 23.5763
613 2 2.2208 5.23595 18.1989 22.0488
614 1 -1.1104 3.78312 19.6545 26.1008
615 2 2.2208 2.38432 18.1746 24.9532
616 1 -1.1104 3.9171 16.916 26.1942
617 1 -1.1104 3.93688 14.1112 26.2399
619 1 -1.1104 1.10844 16.7125 23.6146
620 1 -1.1104 3.86973 16.7734 23.4401
621 2 2.2208 2.36366 21.0504 22.1845
622 2 2.2208 5.27864 12.6549 22.1662
623 1 -1.1104 1.15228 11.0849 23.5678
625 2 2.2208 2.35128 15.366 22.1205
626 2 2.2208 5.26169 9.81099 24.9176
627 1 -1.1104 1.22399 11.126 26.2625
629 2 2.2208 2.53856 12.533 24.8684
630 2 2.2208 2.46893 9.71494 22.005
631 1 -1.1104 3.88481 11.2344 23.3794
632 1 -1.1104 3.93593 11.2817 26.3742
502 2 2.2208 8.03333 18.2058 13.6608
671 1 -1.1104 12.322 11.1735 26.5119
651 1 -1.1104 6.59394 19.6137 26.3874
607 1 -1.1104 6.56769 19.7282 23.4345
669 1 -1.1104 12.1594 11.3575 23.5464
659 1 -1.1104 12.4148 16.9235 23.4953
655 1 -1.1104 12.2629 16.8412 26.3621
555 2 2.2208 13.5111 20.9637 22.2493
650 1 -1.1104 9.47075 14.1033 26.4528
564 1 -1.1104 12.3629 11.2782 20.7447
586 1 -1.1104 9.45308 14.0639 20.6112
662 1 -1.1104 9.66522 11.0944 23.3496
653 1 -1.1104 9.31572 19.5676 23.4936
648 2 2.2208 8.09613 15.4532 22.0401
664 2 2.2208 8.16402 12.555 24.9772
661 1 -1.1104 12.1682 13.9058 26.4285
666 1 -1.1104 12.2859 14.1043 23.567
665 1 -1.1104 12.1982 19.6645 23.5549
646 1 -1.1104 9.62332 16.8307 23.4964
670 2 2.2208 10.9907 9.81662 24.8089
654 1 -1.1104 9.44341 13.9281 23.5769
645 1 -1.1104 9.40164 16.9678 26.1702
658 2 2.2208 10.9344 15.4364 24.9144
668 2 2.2208 10.9418 12.78 22.1652
647 2 2.2208 7.97213 21.0379 22.0342
532 1 -1.1104 6.7253 14.0711 20.5872
593 1 -1.1104 9.47362 16.8921 20.6096
588 1 -1.1104 9.34034 19.7453 20.5657
576 1 -1.1104 12.2969 19.5958 20.767
534 1 -1.1104 6.64349 19.6491 20.5897
603 1 -1.1104 6.57473 16.7543 26.242
624 1 -1.1104 6.63583 11.3292 23.6048
601 1 -1.1104 6.80829 13.9531 26.3722
610 1 -1.1104 6.62624 14.1052 23.3623
656 1 -1.1104 9.4819 11.1713 26.2513
667 2 2.2208 10.8515 18.1073 22.0599
660 1 -1.1104 12.1271 19.851 26.3805
618 1 -1.1104 6.76399 16.8066 23.5023
628 1 -1.1104 6.70275 11.0665 26.2579
663 2 2.2208 8.02727 9.87576 22.078
641 2 2.2208 13.5614 18.2958 19.2541
504 2 2.2208 10.857 9.69815 13.6408
594 2 2.2208 -0.446878 18.1464 16.7274
558 2 2.2208 2.35464 12.3906 13.6544
595 2 2.2208 -0.329679 15.3546 19.3645
643 2 2.2208 -0.263139 9.87046 24.9029
503 2 2.2208 13.6768 18.1082 13.7725
9324 2 2.2208 13.6957 18.3285 24.9897
505 2 2.2208 13.704 12.6124 13.7886
559 2 2.2208 -0.420613 15.3864 13.7413
497 2 2.2208 2.4269 18.1763 13.8432
673 2 2.2208 5.12818 23.7653 5.40207
674 2 2.2208 5.29243 29.5065 5.13074
675 1 -1.1104 1.09812 25.2484 0.755399
676 1 -1.1104 1.01731 25.2318 3.80025
677 1 -1.1104 0.908922 22.4817 0.795661
678 1 -1.1104 0.818649 28.139 1.15431
679 2 2.2208 5.13417 26.7535 2.437
680 1 -1.1104 1.24363 22.4913 3.74421
681 1 -1.1104 0.979479 28.0693 3.93913
683 1 -1.1104 3.86695 25.2884 1.13
684 2 2.2208 2.33975 23.9405 2.33438
685 2 2.2208 2.27645 29.4895 2.47475
686 1 -1.1104 3.74256 25.3054 3.84971
687 2 2.2208 2.40878 26.5557 5.29382
688 1 -1.1104 3.67915 22.5122 0.975173
689 1 -1.1104 3.64864 28.1149 0.878644
690 1 -1.1104 3.98756 22.3911 3.79603
691 1 -1.1104 3.81175 28.0675 3.835
692 1 -1.1104 0.836841 30.9831 0.962823
693 1 -1.1104 0.849599 30.9218 3.87121
694 1 -1.1104 0.88766 33.7128 1.03777
695 2 2.2208 5.18273 32.2504 2.47188
696 1 -1.1104 1.1272 33.6173 3.90822
698 1 -1.1104 3.7092 30.844 1.14343
699 1 -1.1104 3.79135 30.8832 3.87061
700 2 2.2208 2.49919 32.1516 5.24617
701 1 -1.1104 3.72666 33.6062 0.965861
702 1 -1.1104 3.97203 33.8432 3.79276
756 1 -1.1104 1.1375 33.7023 6.52005
829 2 2.2208 13.6087 23.8882 8.09878
832 2 2.2208 13.6142 26.733 10.838
759 1 -1.1104 3.80498 33.6228 6.57454
9610 2 2.2208 -0.47295 29.3743 5.24233
9609 2 2.2208 -0.294635 23.7594 5.37199
838 2 2.2208 7.94023 23.8008 13.6607
840 2 2.2208 -0.252629 32.3195 7.95549
708 1 -1.1104 6.49067 22.4791 1.29649
710 1 -1.1104 6.57781 27.9261 3.79092
753 1 -1.1104 4.04332 28.1054 6.57666
758 1 -1.1104 3.86179 30.9247 6.56104
749 1 -1.1104 6.48099 22.5851 6.76336
815 1 -1.1104 9.43019 25.0628 12.3348
823 1 -1.1104 9.43134 28.0391 9.56792
707 1 -1.1104 6.59792 25.055 3.87589
709 1 -1.1104 6.28235 28.1498 1.01383
697 1 -1.1104 6.79088 33.6788 3.98841
731 1 -1.1104 6.66294 33.6826 1.16046
729 1 -1.1104 6.41742 31.0271 0.946052
730 1 -1.1104 6.67196 31.0045 3.85401
706 1 -1.1104 6.64983 25.3797 1.06947
711 2 2.2208 10.8608 23.7757 5.35378
712 2 2.2208 10.925 29.5626 5.30035
713 1 -1.1104 12.2482 25.447 1.21868
714 1 -1.1104 12.1861 25.4156 3.97934
715 1 -1.1104 12.2509 22.6487 1.06528
716 1 -1.1104 12.0306 28.0658 1.07267
717 2 2.2208 10.6783 26.6868 2.53566
718 1 -1.1104 12.2368 22.3922 3.80459
719 1 -1.1104 12.1836 28.1828 3.83553
720 1 -1.1104 9.33487 25.2334 0.932112
721 2 2.2208 8.04482 24.0212 2.38974
722 2 2.2208 8.09329 29.4424 2.45231
723 1 -1.1104 9.25726 25.2695 3.89946
724 2 2.2208 8.09119 26.7635 5.30108
725 1 -1.1104 9.43473 22.4543 1.00467
726 1 -1.1104 9.15731 27.9566 1.16154
727 1 -1.1104 9.4041 22.6183 3.64805
728 1 -1.1104 9.41156 28.1941 4.09988
732 1 -1.1104 12.0592 30.9225 1.06442
733 1 -1.1104 12.1883 31.0086 3.78782
734 1 -1.1104 12.1363 33.7666 1.19809
735 2 2.2208 10.7731 32.3717 2.53564
736 1 -1.1104 12.3646 33.6659 4.00661
737 1 -1.1104 9.22634 30.878 0.957242
738 1 -1.1104 9.47372 30.8541 3.90246
739 2 2.2208 8.09934 32.4105 5.28353
740 1 -1.1104 9.39266 33.6722 1.1484
741 1 -1.1104 9.40856 33.7422 3.92525
801 1 -1.1104 9.55759 28.1421 6.71626
804 1 -1.1104 9.45333 30.8455 6.58537
703 1 -1.1104 9.74474 33.9669 12.4114
803 1 -1.1104 12.2619 33.6123 6.78698
798 1 -1.1104 12.1572 28.0032 6.64352
813 1 -1.1104 12.3193 22.3819 9.6617
812 2 2.2208 10.8203 26.645 8.14819
808 1 -1.1104 12.2548 25.2573 12.2983
822 1 -1.1104 9.45 22.2438 9.62669
745 1 -1.1104 1.21278 25.0462 6.60655
821 1 -1.1104 9.5294 28.0054 12.2986
754 1 -1.1104 1.11573 30.7485 6.58662
836 2 2.2208 8.10115 29.5386 13.5692
748 1 -1.1104 1.10142 27.9108 6.69018
752 1 -1.1104 3.81016 22.4133 6.59179
751 1 -1.1104 3.94151 25.1918 6.73622
747 1 -1.1104 1.07578 22.2617 6.73672
760 2 2.2208 5.31012 23.8124 10.9196
761 2 2.2208 5.13989 29.3922 10.9933