ITEM: TIMESTEP
0
ITEM: NUMBER OF ATOMS
18000
ITEM: BOX BOUNDS xy xz yz pp pp pp
-1.7839655020020409e-01 2.8072396550200160e+01 0.0000000000000000e+00
2.6272011792393701e-01 3.3446527988207697e+02 0.0000000000000000e+00
-1.8348794277401476e-01 2.8077487942774045e+01 0.0000000000000000e+00
ITEM: ATOMS id type q mass x y z
1 2 2.2208 232.038 13.7666 20.0061 11.11
2 1 -1.1104 15.9994 6.88029 23.8135 12.5168
3 2 2.2208 232.038 2.54225 0.715472 2.51592
4 2 2.2208 232.038 5.41079 25.4623 13.9244
5 2 2.2208 232.038 2.61563 19.9511 -0.132296
6 2 2.2208 232.038 13.8677 3.41942 10.9558
7 2 2.2208 232.038 8.19599 0.579149 2.69487
8 2 2.2208 232.038 5.48586 3.3767 2.66013
9 2 2.2208 232.038 13.9182 8.90539 -0.167549
10 2 2.2208 232.038 11.09 3.39564 2.52141
11 2 2.2208 232.038 13.923 22.7858 8.27985
12 2 2.2208 232.038 13.9379 6.10345 2.61967
13 2 2.2208 232.038 2.70187 6.01643 2.65943
14 2 2.2208 232.038 -0.105043 8.86462 2.39069
15 2 2.2208 232.038 8.22042 25.5193 -0.147894
16 2 2.2208 232.038 13.8795 19.956 5.53558
17 2 2.2208 232.038 8.31195 6.17501 2.62613
18 2 2.2208 232.038 5.38726 8.85311 2.66578
19 2 2.2208 232.038 11.1227 6.1777 -0.171826
20 2 2.2208 232.038 11.1808 8.86982 2.68408
21 2 2.2208 232.038 13.7727 11.7595 8.2605
22 2 2.2208 232.038 13.9439 14.452 5.42
23 2 2.2208 232.038 2.7026 11.7639 2.57952
24 2 2.2208 232.038 -0.0292394 14.3747 2.63496
25 2 2.2208 232.038 13.9182 6.17971 8.23924
26 2 2.2208 232.038 13.6842 3.38088 -0.124223
27 2 2.2208 232.038 8.31249 11.7191 2.48027
28 2 2.2208 232.038 5.51377 14.4878 2.61614
29 4 -1.1104 15.9994 8.35216 19.7263 2.66139
30 2 2.2208 232.038 11.1617 14.4712 2.64534
31 2 2.2208 232.038 2.62833 8.92917 -0.151764
32 2 2.2208 232.038 13.8854 0.79234 8.31525
33 2 2.2208 232.038 2.69484 17.1883 2.66239
34 2 2.2208 232.038 -0.146032 20.0964 2.47015
35 2 2.2208 232.038 2.70329 22.7026 13.8813
36 2 2.2208 232.038 8.2809 20.0338 -0.0613592
37 2 2.2208 232.038 8.27518 17.4298 2.63167
38 2 2.2208 232.038 5.61219 20.0147 2.62822
39 2 2.2208 232.038 11.0778 3.34445 13.9398
40 2 2.2208 232.038 10.8924 19.9895 2.67686
41 2 2.2208 232.038 13.877 3.37768 5.61331
42 2 2.2208 232.038 13.8343 22.548 2.7446
43 2 2.2208 232.038 2.64935 22.775 2.63265
44 1 -1.1104 15.9994 12.5507 23.885 12.526
45 4 -1.1104 15.9994 11.1472 11.4071 8.28752
46 2 2.2208 232.038 13.8203 17.2686 2.75484
47 2 2.2208 232.038 8.29544 22.7191 2.64335
48 2 2.2208 232.038 5.48975 25.4605 2.67576
49 2 2.2208 232.038 13.9008 11.6692 2.60444
50 2 2.2208 232.038 11.0489 25.595 2.69464
51 1 -1.1104 15.9994 9.725 23.8891 12.5211
52 2 2.2208 232.038 2.63107 3.33962 5.47362
53 2 2.2208 232.038 2.45555 0.657677 8.29826
54 2 2.2208 232.038 -0.162752 3.40239 8.24731
55 2 2.2208 232.038 5.43232 0.624343 5.48829
56 2 2.2208 232.038 8.30434 3.37073 5.48385
57 2 2.2208 232.038 8.3334 0.519168 8.28534
58 2 2.2208 232.038 5.48533 3.3649 8.34924
59 2 2.2208 232.038 11.0516 0.552598 5.41825
60 2 2.2208 232.038 11.2326 3.38418 8.28079
61 2 2.2208 232.038 2.69642 11.6684 13.8981
62 2 2.2208 232.038 2.56036 8.89399 5.36057
63 2 2.2208 232.038 2.55566 6.18148 8.2445
64 2 2.2208 232.038 11.1421 25.4849 13.8771
65 2 2.2208 232.038 5.4633 6.11501 5.45859
66 2 2.2208 232.038 8.24354 8.88628 5.39086
67 2 2.2208 232.038 8.34114 6.16151 8.23764
68 2 2.2208 232.038 5.43857 8.9702 8.25283
69 2 2.2208 232.038 11.1403 6.12455 5.44818
70 2 2.2208 232.038 11.162 9.1433 8.25105
71 2 2.2208 232.038 -0.0803931 11.723 5.70825
72 2 2.2208 232.038 2.68519 14.4626 5.49838
73 2 2.2208 232.038 2.59655 11.6693 8.26746
74 2 2.2208 232.038 -0.134896 14.5268 8.27883
75 2 2.2208 232.038 5.505 11.6695 5.4377
76 2 2.2208 232.038 8.30239 14.4417 5.45269
77 2 2.2208 232.038 8.45641 11.7115 8.25609
78 2 2.2208 232.038 5.48061 14.3665 8.2884
79 2 2.2208 232.038 11.1122 11.7134 5.56112
80 2 2.2208 232.038 11.1103 14.4554 8.27635
81 2 2.2208 232.038 -0.149401 17.2453 5.48698
82 2 2.2208 232.038 2.69237 19.9577 5.38837
83 2 2.2208 232.038 2.62571 17.2467 8.30043
84 2 2.2208 232.038 -0.125201 20.144 8.28375
85 2 2.2208 232.038 5.43012 17.1593 5.51676
86 2 2.2208 232.038 8.29482 20.0089 5.36228
87 2 2.2208 232.038 8.24684 17.19 8.23662
88 2 2.2208 232.038 5.49834 19.9857 8.27567
89 2 2.2208 232.038 11.1341 17.1811 5.57742
90 2 2.2208 232.038 11.0838 20.0139 8.41711
91 2 2.2208 232.038 11.0916 20.0095 13.8126
92 2 2.2208 232.038 2.64738 25.552 5.4662
93 2 2.2208 232.038 2.54442 22.7728 8.2582
94 2 2.2208 232.038 -0.100194 25.5288 8.31323
95 2 2.2208 232.038 5.4467 22.7455 5.47225
96 2 2.2208 232.038 8.23867 25.4726 5.44552
97 2 2.2208 232.038 8.29231 22.768 8.29074
98 2 2.2208 232.038 5.45282 25.5186 8.29707
99 2 2.2208 232.038 11.0782 22.7709 5.51509
100 2 2.2208 232.038 11.075 25.7275 8.32595
101 3 -1.1104 15.9994 8.3334 11.3785 -0.173748
102 2 2.2208 232.038 2.61074 3.44659 11.0523
103 2 2.2208 232.038 5.6295 0.689257 11.0328
104 2 2.2208 232.038 8.34468 3.3002 11.0889
105 2 2.2208 232.038 11.0818 0.476978 11.1923
106 2 2.2208 232.038 11.117 14.4184 13.9314
107 2 2.2208 232.038 2.62891 8.87366 11.1259
108 2 2.2208 232.038 5.36856 6.19899 10.9714
109 2 2.2208 232.038 8.31543 8.84816 11.0855
110 2 2.2208 232.038 11.1507 6.23192 11.0793
111 2 2.2208 232.038 -0.0813141 11.7587 10.8481
112 2 2.2208 232.038 2.64828 14.4883 11.109
113 2 2.2208 232.038 5.49344 11.6538 11.049
114 2 2.2208 232.038 8.31072 14.494 11.0881
115 2 2.2208 232.038 11.1169 11.7282 10.9478
116 2 2.2208 232.038 -0.15959 17.2025 11.0979
117 2 2.2208 232.038 2.69912 19.939 11.1497
118 2 2.2208 232.038 5.48031 17.2109 11.1103
119 2 2.2208 232.038 8.41737 20.0047 11.1115
120 2 2.2208 232.038 11.1107 17.4333 11.0868
121 2 2.2208 232.038 -0.121459 22.7781 10.9681
122 2 2.2208 232.038 2.65168 25.5365 11.1197
123 2 2.2208 232.038 5.4834 22.6985 11.0868
124 2 2.2208 232.038 8.25238 25.4786 11.1723
125 2 2.2208 232.038 11.0919 22.7279 11.1021
126 1 -1.1104 15.9994 1.02912 1.64431 1.29439
127 1 -1.1104 15.9994 4.34869 1.53705 1.598
128 1 -1.1104 15.9994 1.17314 1.45476 4.04644
129 1 -1.1104 15.9994 3.86876 1.43757 4.19527
130 1 -1.1104 15.9994 1.26898 4.31245 1.30904
131 1 -1.1104 15.9994 4.03061 4.26019 1.23057
132 1 -1.1104 15.9994 1.20563 4.25363 4.09202
133 1 -1.1104 15.9994 4.04578 4.29442 4.05494
134 1 -1.1104 15.9994 6.92103 1.34424 1.12549
135 1 -1.1104 15.9994 9.68374 1.42774 1.36635
136 1 -1.1104 15.9994 6.76738 1.59869 4.03715
137 1 -1.1104 15.9994 9.59674 1.49416 4.10255
138 1 -1.1104 15.9994 6.86732 4.17065 1.1957
139 1 -1.1104 15.9994 9.53154 4.45552 1.39739
140 1 -1.1104 15.9994 6.8622 4.32551 4.11407
141 1 -1.1104 15.9994 9.79161 4.256 4.12773
142 1 -1.1104 15.9994 12.5918 1.47844 1.2592
143 1 -1.1104 15.9994 12.564 1.40791 4.07336
144 1 -1.1104 15.9994 12.6513 4.52269 1.4069
145 1 -1.1104 15.9994 12.5391 4.1731 4.04044
146 1 -1.1104 15.9994 1.32499 7.03169 1.29671
147 1 -1.1104 15.9994 4.07408 7.05629 1.26871
148 1 -1.1104 15.9994 1.31827 7.00938 4.05411
149 1 -1.1104 15.9994 4.07339 7.10987 4.05656
150 1 -1.1104 15.9994 1.52158 9.98851 1.49728
151 1 -1.1104 15.9994 4.14863 9.87628 1.18154
152 1 -1.1104 15.9994 0.707057 9.63247 4.28669
153 1 -1.1104 15.9994 3.8761 9.9239 3.95084
154 1 -1.1104 15.9994 6.8324 6.99356 1.27804
155 1 -1.1104 15.9994 9.77725 7.12051 1.26801
156 1 -1.1104 15.9994 6.91298 7.07319 4.09274
157 1 -1.1104 15.9994 9.72719 7.05576 4.05228
158 1 -1.1104 15.9994 6.89859 9.7587 1.37279
159 1 -1.1104 15.9994 9.85953 9.82915 1.26494
160 1 -1.1104 15.9994 6.72672 9.84726 4.12227
161 1 -1.1104 15.9994 9.73941 9.80101 4.06274
162 1 -1.1104 15.9994 12.5975 7.16658 1.19335
163 1 -1.1104 15.9994 12.5616 7.07355 4.03101
164 1 -1.1104 15.9994 12.6124 9.88935 1.27856
165 1 -1.1104 15.9994 12.6392 9.88409 4.00686
166 1 -1.1104 15.9994 1.19916 12.6916 1.22488
167 1 -1.1104 15.9994 4.06248 12.6932 1.15072
168 1 -1.1104 15.9994 1.22693 12.5646 4.06985
169 1 -1.1104 15.9994 4.06934 12.7035 4.06806
170 1 -1.1104 15.9994 1.34317 15.4151 1.29816
171 1 -1.1104 15.9994 4.11542 15.4661 1.21528
172 1 -1.1104 15.9994 1.24679 15.4296 4.11636
173 1 -1.1104 15.9994 4.06163 15.4562 4.05092
174 1 -1.1104 15.9994 6.73657 12.8245 1.36362
175 1 -1.1104 15.9994 9.90014 12.8524 1.38038
176 1 -1.1104 15.9994 6.97042 12.6245 4.08199
177 1 -1.1104 15.9994 9.72269 12.5501 4.03886
178 1 -1.1104 15.9994 6.99953 15.5146 1.26331
179 1 -1.1104 15.9994 9.93892 15.4665 1.07846
180 1 -1.1104 15.9994 6.85129 15.4294 4.10736
181 1 -1.1104 15.9994 9.73502 15.3908 4.04959
182 1 -1.1104 15.9994 12.5994 12.6066 1.0761
183 1 -1.1104 15.9994 12.5051 12.6933 3.9869
184 1 -1.1104 15.9994 12.9392 15.3591 1.40987
185 1 -1.1104 15.9994 12.5225 15.5388 4.09274
186 1 -1.1104 15.9994 1.31136 18.1704 1.28765
187 1 -1.1104 15.9994 4.09076 18.211 1.24517
188 1 -1.1104 15.9994 1.25566 18.2167 4.08478
189 1 -1.1104 15.9994 4.03521 18.2373 4.12117
190 1 -1.1104 15.9994 1.42754 21.1864 1.36335
191 1 -1.1104 15.9994 4.10061 20.9833 1.26749
192 1 -1.1104 15.9994 1.15255 20.9943 4.10251
193 1 -1.1104 15.9994 4.06101 21.052 4.00675
194 1 -1.1104 15.9994 6.83063 18.2364 1.1269
195 1 -1.1104 15.9994 9.85278 18.1934 1.18691
196 1 -1.1104 15.9994 6.81253 18.1835 4.15195
197 1 -1.1104 15.9994 9.82332 18.1424 4.11485
198 1 -1.1104 15.9994 6.81172 21.2461 1.13686
199 1 -1.1104 15.9994 9.88226 21.2091 1.08375
200 1 -1.1104 15.9994 6.77087 21.202 4.18958
201 1 -1.1104 15.9994 9.83323 21.2379 4.19957
202 1 -1.1104 15.9994 12.6247 18.1722 1.13535
203 1 -1.1104 15.9994 12.5436 18.3046 4.16671
204 1 -1.1104 15.9994 12.5899 20.9225 1.35395
205 1 -1.1104 15.9994 12.557 21.0005 4.02718
206 1 -1.1104 15.9994 1.11472 23.8309 1.31104
207 1 -1.1104 15.9994 4.10029 23.8186 1.27617
208 1 -1.1104 15.9994 1.19082 23.7808 4.08669
209 1 -1.1104 15.9994 4.03552 23.855 4.09272
210 1 -1.1104 15.9994 6.94678 23.9003 1.23842
211 1 -1.1104 15.9994 9.8672 23.8649 1.34643
212 1 -1.1104 15.9994 6.89165 23.889 4.05468
213 1 -1.1104 15.9994 9.71018 23.9061 4.0643
214 1 -1.1104 15.9994 12.9548 23.6694 1.07427
215 1 -1.1104 15.9994 12.5802 23.8197 4.06587
216 1 -1.1104 15.9994 1.31616 1.71007 6.74383
217 1 -1.1104 15.9994 4.07385 1.43593 6.99731
218 1 -1.1104 15.9994 1.39413 1.74903 9.88316
219 1 -1.1104 15.9994 4.09263 1.42612 9.67274
220 1 -1.1104 15.9994 1.27156 4.39818 6.90524
221 1 -1.1104 15.9994 4.11499 4.22429 6.84536
222 1 -1.1104 15.9994 1.15603 4.39706 9.71811
223 1 -1.1104 15.9994 3.96266 4.37463 9.61396
224 1 -1.1104 15.9994 6.88704 1.46725 6.89489
225 1 -1.1104 15.9994 9.69564 1.45802 6.87812
226 1 -1.1104 15.9994 6.99256 1.62931 9.65786
227 1 -1.1104 15.9994 9.68514 1.44117 9.76456
228 1 -1.1104 15.9994 6.94915 4.28605 7.01767
229 1 -1.1104 15.9994 9.67196 4.24776 6.95698
230 1 -1.1104 15.9994 6.6107 4.20088 10.1332
231 1 -1.1104 15.9994 9.6359 4.25374 9.65425
232 1 -1.1104 15.9994 12.4649 1.48138 6.78073
233 1 -1.1104 15.9994 12.4358 1.46455 9.81045
234 1 -1.1104 15.9994 12.3803 4.51438 6.75355
235 1 -1.1104 15.9994 12.3218 4.49721 9.84665
236 1 -1.1104 15.9994 1.15356 7.14911 6.87037
237 1 -1.1104 15.9994 4.04173 7.02287 6.87128
238 1 -1.1104 15.9994 1.21566 7.09414 9.75925
239 1 -1.1104 15.9994 3.96399 7.16637 9.6551
240 1 -1.1104 15.9994 1.39477 9.92509 6.89964
241 1 -1.1104 15.9994 4.05362 9.81614 6.7865
242 1 -1.1104 15.9994 1.39462 9.89053 9.66735
243 1 -1.1104 15.9994 4.12139 9.86633 9.80395
244 1 -1.1104 15.9994 6.8507 7.05924 6.89136
245 1 -1.1104 15.9994 9.73492 7.05267 6.84513
246 1 -1.1104 15.9994 6.90079 7.03336 9.69244
247 1 -1.1104 15.9994 9.66197 7.06333 9.7363
248 1 -1.1104 15.9994 6.88197 9.84983 6.8715
249 1 -1.1104 15.9994 9.61525 9.80456 6.8189
250 1 -1.1104 15.9994 6.83797 9.80867 9.75962
251 1 -1.1104 15.9994 9.684 9.82217 9.77405
252 1 -1.1104 15.9994 12.581 7.16077 6.81272
253 1 -1.1104 15.9994 12.6087 7.14403 9.71589
254 1 -1.1104 15.9994 12.6609 9.86984 6.78878
255 1 -1.1104 15.9994 12.6108 9.84325 9.80814
256 1 -1.1104 15.9994 1.39305 12.8985 6.83599
257 1 -1.1104 15.9994 4.10413 12.6193 6.89417
258 1 -1.1104 15.9994 1.41581 12.904 9.72957
259 1 -1.1104 15.9994 4.10042 12.6242 9.64529
260 1 -1.1104 15.9994 1.25948 15.566 6.89291
261 1 -1.1104 15.9994 4.09152 15.4591 6.89766
262 1 -1.1104 15.9994 1.2212 15.5724 9.72737
263 1 -1.1104 15.9994 4.07436 15.4394 9.70564
264 1 -1.1104 15.9994 6.86627 12.6217 6.9276
265 1 -1.1104 15.9994 9.59818 12.8716 6.74202
266 1 -1.1104 15.9994 6.89392 12.6106 9.65191
267 1 -1.1104 15.9994 9.54962 12.8412 9.85091
268 1 -1.1104 15.9994 6.89804 15.4367 6.90682
269 1 -1.1104 15.9994 9.72495 15.5316 6.86996
270 1 -1.1104 15.9994 6.85106 15.44 9.7069
271 1 -1.1104 15.9994 9.71551 15.5102 9.67555
272 1 -1.1104 15.9994 12.663 12.8664 6.68479
273 1 -1.1104 15.9994 12.6967 12.8551 9.86941
274 1 -1.1104 15.9994 12.5649 15.518 6.88045
275 1 -1.1104 15.9994 12.5385 15.5045 9.66287
276 1 -1.1104 15.9994 1.20181 18.2892 6.92646
277 1 -1.1104 15.9994 4.03794 18.2515 6.90827
278 1 -1.1104 15.9994 1.2207 18.29 9.72885
279 1 -1.1104 15.9994 4.02504 18.229 9.74179
280 1 -1.1104 15.9994 1.3522 21.0218 6.82632
281 1 -1.1104 15.9994 4.1085 21.0322 6.83812
282 1 -1.1104 15.9994 1.29373 21.0319 9.81925
283 1 -1.1104 15.9994 4.08036 21.0067 9.71766
284 1 -1.1104 15.9994 6.82572 18.2546 6.8987
285 1 -1.1104 15.9994 9.70887 18.2702 6.8976
286 1 -1.1104 15.9994 6.85095 18.2291 9.68555
287 1 -1.1104 15.9994 9.60819 18.2312 9.62406
288 1 -1.1104 15.9994 6.95678 21.0435 6.9223
289 1 -1.1104 15.9994 9.72944 21.0142 6.87418
290 1 -1.1104 15.9994 6.8683 21.0226 9.7452
291 1 -1.1104 15.9994 9.59661 21.2292 9.60698
292 1 -1.1104 15.9994 12.6174 18.2656 6.87954
293 1 -1.1104 15.9994 12.6742 18.2069 9.63825
294 1 -1.1104 15.9994 12.4994 21.0652 6.87567
295 1 -1.1104 15.9994 12.6786 21.1985 9.5457
296 1 -1.1104 15.9994 1.25783 24.0129 6.79406
297 1 -1.1104 15.9994 4.05431 23.8234 6.90528
298 1 -1.1104 15.9994 1.33311 24.0089 9.76062
299 1 -1.1104 15.9994 4.07032 23.783 9.67327
300 1 -1.1104 15.9994 6.87804 23.8377 6.86716
301 1 -1.1104 15.9994 9.71174 23.8558 6.90306
302 1 -1.1104 15.9994 6.88945 23.8384 9.71132
303 1 -1.1104 15.9994 9.7341 23.9011 9.70515
304 1 -1.1104 15.9994 12.6041 23.8319 6.81605
305 1 -1.1104 15.9994 12.5836 23.864 9.75711
306 1 -1.1104 15.9994 1.13644 1.38027 12.5791
307 1 -1.1104 15.9994 4.1323 0.685991 12.5648
308 1 -1.1104 15.9994 1.29585 4.19215 12.594
309 1 -1.1104 15.9994 4.34276 3.8665 12.3563
310 1 -1.1104 15.9994 6.8857 1.78069 12.5526
311 1 -1.1104 15.9994 9.65151 1.54815 12.4887
312 3 -1.1104 15.9994 11.163 19.7238 11.1329
313 1 -1.1104 15.9994 9.4034 4.23514 12.7256
314 1 -1.1104 15.9994 12.5242 1.52046 12.5444
315 1 -1.1104 15.9994 12.4767 4.26508 12.5244
316 1 -1.1104 15.9994 1.18546 7.01605 12.5877
317 1 -1.1104 15.9994 3.99914 6.92492 12.5081
318 1 -1.1104 15.9994 0.996389 9.74347 12.3741
319 1 -1.1104 15.9994 3.921 9.79496 12.6717
320 1 -1.1104 15.9994 6.88005 6.1118 12.5218
321 1 -1.1104 15.9994 9.70565 7.06122 12.5227
322 1 -1.1104 15.9994 6.78178 9.45987 12.5177
323 1 -1.1104 15.9994 9.64098 9.79309 12.5867
324 1 -1.1104 15.9994 12.5586 7.05983 12.5443
325 1 -1.1104 15.9994 12.6183 9.81001 12.633
326 1 -1.1104 15.9994 1.22287 12.5631 12.4853
327 1 -1.1104 15.9994 4.08601 12.6498 12.4721
328 1 -1.1104 15.9994 1.1717 15.3907 12.5265
329 1 -1.1104 15.9994 4.02195 15.4632 12.5735
330 1 -1.1104 15.9994 6.89388 12.4999 12.5386
331 1 -1.1104 15.9994 9.76534 12.5666 12.5662
332 1 -1.1104 15.9994 6.84589 15.3883 12.5161
333 1 -1.1104 15.9994 9.69319 15.4004 12.5527
334 1 -1.1104 15.9994 12.4634 12.5772 12.5689
335 1 -1.1104 15.9994 12.6157 15.3831 12.6009
336 1 -1.1104 15.9994 1.1894 18.2177 12.5494
337 1 -1.1104 15.9994 4.02573 18.2481 12.5092
338 1 -1.1104 15.9994 1.26929 20.9852 12.591
339 1 -1.1104 15.9994 4.06739 21.05 12.564
340 1 -1.1104 15.9994 6.83828 18.2017 12.5685
341 1 -1.1104 15.9994 9.61676 18.1695 12.5997
342 1 -1.1104 15.9994 6.85559 20.9992 12.4824
343 1 -1.1104 15.9994 9.58638 21.2181 12.635
344 1 -1.1104 15.9994 12.6559 18.1476 12.5865
345 1 -1.1104 15.9994 12.6848 21.1976 12.6848
346 1 -1.1104 15.9994 1.24905 23.7729 12.4984
347 1 -1.1104 15.9994 4.07785 23.8553 12.4857
348 2 2.2208 232.038 13.9426 0.588259 2.61602
349 2 2.2208 232.038 2.55599 0.526815 14.0201
350 2 2.2208 232.038 -0.170996 3.35451 14.1017
351 2 2.2208 232.038 8.29859 0.626589 13.9617
352 2 2.2208 232.038 5.50412 3.24465 14.0515
353 2 2.2208 232.038 -0.144172 22.7728 27.9609
354 2 2.2208 232.038 2.58748 6.15236 14.0226
355 2 2.2208 232.038 -0.153223 8.87985 13.9735
356 2 2.2208 232.038 8.40631 6.25036 14.078
357 2 2.2208 232.038 5.39548 8.92457 14.1029
358 2 2.2208 232.038 13.8338 14.2499 28.0183
359 2 2.2208 232.038 11.124 17.1993 27.9906
360 2 2.2208 232.038 -0.0932885 14.4816 14.1719
361 2 2.2208 232.038 8.34587 11.6396 13.9836
362 2 2.2208 232.038 5.45352 14.4169 13.9576
363 2 2.2208 232.038 11.123 22.8158 28.0679
364 2 2.2208 232.038 2.63678 17.2506 13.9523
365 2 2.2208 232.038 13.9098 17.2351 25.2291
366 2 2.2208 232.038 13.8938 19.9863 22.4122
367 2 2.2208 232.038 5.50972 19.9692 13.9682
368 2 2.2208 232.038 13.917 11.6129 25.2339
369 2 2.2208 232.038 8.24654 17.1796 14.0061
370 2 2.2208 232.038 -0.126806 25.5254 14.0881
371 2 2.2208 232.038 8.2897 22.7511 13.9586
372 2 2.2208 232.038 2.62111 25.7823 28.0341
373 2 2.2208 232.038 5.44425 22.7529 28.0771
374 2 2.2208 232.038 11.1224 8.96313 14.0018
375 2 2.2208 232.038 2.42205 3.35072 16.7843
376 2 2.2208 232.038 2.63829 0.537936 19.6893
377 2 2.2208 232.038 -0.176377 3.34031 19.4936
378 2 2.2208 232.038 5.51239 0.60955 16.8244
379 2 2.2208 232.038 8.35482 3.4486 16.7295
380 2 2.2208 232.038 8.53675 0.659951 19.5215
381 2 2.2208 232.038 5.3484 3.40371 19.4944
382 2 2.2208 232.038 11.1269 0.572469 16.8599
383 2 2.2208 232.038 11.1144 3.41835 19.5843
384 2 2.2208 232.038 -0.172376 6.10969 16.8403
385 2 2.2208 232.038 2.61132 8.94164 16.8347
386 2 2.2208 232.038 2.60533 6.17799 19.6013
387 2 2.2208 232.038 -0.176095 8.96326 19.5927
388 2 2.2208 232.038 5.36324 6.0773 16.7484
389 2 2.2208 232.038 8.33008 8.97968 16.9664
390 2 2.2208 232.038 8.39513 6.36071 19.5836
391 2 2.2208 232.038 5.62596 8.93867 19.6071
392 2 2.2208 232.038 11.2228 6.0887 16.7447
393 2 2.2208 232.038 10.991 8.94799 19.6186
394 2 2.2208 232.038 -0.112805 11.9189 16.8526
395 2 2.2208 232.038 2.53446 14.4713 16.8144
396 2 2.2208 232.038 2.69744 11.6069 19.7082
397 2 2.2208 232.038 -0.145459 14.4513 19.4993
398 2 2.2208 232.038 5.46984 11.7462 16.8136
399 2 2.2208 232.038 8.29763 14.4664 16.7985
400 2 2.2208 232.038 8.30008 11.7058 19.6307
401 2 2.2208 232.038 5.47774 14.4679 19.6131
402 2 2.2208 232.038 11.1195 11.7247 16.8008
403 2 2.2208 232.038 11.0928 14.4756 19.6101
404 2 2.2208 232.038 -0.116239 17.176 16.8055
405 2 2.2208 232.038 2.62834 20.0227 16.7919
406 2 2.2208 232.038 2.64388 17.2517 19.6024
407 2 2.2208 232.038 -0.143567 20.0105 19.6218
408 2 2.2208 232.038 5.3969 17.1498 16.7463
409 2 2.2208 232.038 8.30014 20.0149 16.8977
410 2 2.2208 232.038 8.28344 17.4357 19.5985
411 2 2.2208 232.038 5.61825 20.0111 19.5935
412 2 2.2208 232.038 11.1611 17.1831 16.7071
413 2 2.2208 232.038 10.9439 20.0152 19.5951
414 2 2.2208 232.038 -0.10976 22.986 16.8248
415 2 2.2208 232.038 2.54748 25.56 16.7893
416 2 2.2208 232.038 2.69369 22.6904 19.6856
417 2 2.2208 232.038 -0.126971 25.5148 19.5218
418 2 2.2208 232.038 5.47906 22.8063 16.785
419 2 2.2208 232.038 8.28477 25.7236 16.7925
420 2 2.2208 232.038 8.28137 22.741 19.586
421 2 2.2208 232.038 5.40963 25.4776 19.6241
422 2 2.2208 232.038 11.0962 22.7764 16.7576
423 2 2.2208 232.038 11.1324 25.4885 19.6507
424 2 2.2208 232.038 13.8729 25.5231 28.0212
425 2 2.2208 232.038 2.61558 3.38113 22.4448
426 2 2.2208 232.038 2.44877 0.656265 25.3074
427 2 2.2208 232.038 -0.157037 3.42401 25.2986
428 2 2.2208 232.038 5.39501 0.672756 22.4749
429 2 2.2208 232.038 8.38049 3.47898 22.5054
430 2 2.2208 232.038 8.23978 0.567734 25.1263
431 2 2.2208 232.038 5.44012 3.37895 25.249
432 2 2.2208 232.038 11.1246 0.706166 22.2436
433 2 2.2208 232.038 11.1275 3.36981 25.4059
434 2 2.2208 232.038 -0.174209 6.13893 22.435
435 2 2.2208 232.038 2.67557 8.85461 22.4064
436 2 2.2208 232.038 2.64609 6.14273 25.239
437 2 2.2208 232.038 13.9318 22.75 13.9555
438 2 2.2208 232.038 5.38373 6.07375 22.508
439 2 2.2208 232.038 8.31909 8.96524 22.3106
440 2 2.2208 232.038 8.32052 6.22544 25.2741
441 2 2.2208 232.038 5.41649 8.88174 25.1955
442 2 2.2208 232.038 11.1833 6.0597 22.4813
443 2 2.2208 232.038 11.1675 8.84985 25.1896
444 2 2.2208 232.038 13.9349 6.08716 13.951
445 2 2.2208 232.038 2.65836 14.4559 22.4096
446 2 2.2208 232.038 2.59219 11.7252 25.244
447 2 2.2208 232.038 -0.0589975 14.4693 25.2242
448 2 2.2208 232.038 5.49963 11.6855 22.4684
449 2 2.2208 232.038 8.27947 14.4408 22.4321
450 2 2.2208 232.038 8.29801 11.6781 25.4017
451 2 2.2208 232.038 5.48229 14.4252 25.2625
452 2 2.2208 232.038 11.0995 11.6993 22.4502
453 2 2.2208 232.038 11.0913 14.4479 25.2414
454 2 2.2208 232.038 -0.156484 17.2302 22.4323
455 2 2.2208 232.038 2.70489 19.9424 22.4269
456 2 2.2208 232.038 2.6559 17.2149 25.2187
457 2 2.2208 232.038 -0.162612 20.2775 25.4384
458 2 2.2208 232.038 5.4371 17.1661 22.4688
459 2 2.2208 232.038 8.27412 20.0179 22.2908
460 2 2.2208 232.038 8.27583 17.2529 25.2593
461 2 2.2208 232.038 5.48673 19.9975 25.2685
462 2 2.2208 232.038 11.1364 17.1657 22.4706
463 2 2.2208 232.038 11.0631 19.9963 25.2452
464 2 2.2208 232.038 -0.142222 22.7518 22.6008
465 2 2.2208 232.038 2.63512 25.5637 22.435
466 2 2.2208 232.038 2.54584 22.8456 25.2766
467 2 2.2208 232.038 13.8707 19.9738 28.0701
468 2 2.2208 232.038 5.46496 22.7453 22.4538
469 2 2.2208 232.038 8.23098 25.4883 22.345
470 2 2.2208 232.038 8.28744 22.7257 25.2623
471 2 2.2208 232.038 5.49431 25.4788 25.2063
472 2 2.2208 232.038 11.0874 22.7895 22.4421
473 2 2.2208 232.038 11.0437 25.772 25.2358
474 1 -1.1104 15.9994 1.28688 1.57319 15.3575
475 1 -1.1104 15.9994 4.12569 1.43261 15.3048
476 1 -1.1104 15.9994 1.37621 4.49547 15.2249
477 1 -1.1104 15.9994 4.07981 4.23637 15.3635
478 1 -1.1104 15.9994 6.87821 1.53772 15.3633
479 1 -1.1104 15.9994 9.7951 1.54027 15.2747
480 1 -1.1104 15.9994 7.14414 4.22905 15.0049
481 1 -1.1104 15.9994 9.84417 4.41539 15.4323
482 1 -1.1104 15.9994 12.489 1.57543 15.3792
483 1 -1.1104 15.9994 12.5655 4.33014 15.315
484 1 -1.1104 15.9994 1.17979 7.15407 15.3877
485 1 -1.1104 15.9994 4.03249 7.13808 15.3284
486 1 -1.1104 15.9994 1.22972 9.86917 15.3258
487 1 -1.1104 15.9994 4.0341 9.93482 15.4497
488 1 -1.1104 15.9994 6.76952 7.01214 15.2942
489 1 -1.1104 15.9994 9.85364 7.17964 15.3709
490 1 -1.1104 15.9994 6.9828 9.78031 15.3279
491 1 -1.1104 15.9994 9.66359 9.88688 15.3701
492 1 -1.1104 15.9994 12.6232 7.13385 15.3754
493 1 -1.1104 15.9994 12.5295 9.94171 15.4166
494 1 -1.1104 15.9994 1.32191 12.6273 15.28
495 1 -1.1104 15.9994 4.11713 12.6553 15.3015
496 1 -1.1104 15.9994 1.41265 15.6615 15.2638
497 1 -1.1104 15.9994 4.08796 15.4107 15.4123
498 1 -1.1104 15.9994 6.89575 12.6258 15.3503
499 1 -1.1104 15.9994 9.73068 12.6805 15.3714
500 1 -1.1104 15.9994 6.90601 15.4302 15.327
501 1 -1.1104 15.9994 9.72682 15.4295 15.3634
502 1 -1.1104 15.9994 12.5683 12.7028 15.4073
503 1 -1.1104 15.9994 12.5413 15.4589 15.3709
504 1 -1.1104 15.9994 1.17119 18.3199 15.3378
505 1 -1.1104 15.9994 4.0227 18.2615 15.3434
506 1 -1.1104 15.9994 1.08701 21.0568 15.4343
507 1 -1.1104 15.9994 4.02936 21.0348 15.3385
508 1 -1.1104 15.9994 6.8033 18.2232 15.3418
509 1 -1.1104 15.9994 9.72089 18.2013 15.3466
510 1 -1.1104 15.9994 6.94895 21.0212 15.3202
511 1 -1.1104 15.9994 9.72846 20.9675 15.3595
512 1 -1.1104 15.9994 12.6344 18.245 15.382
513 1 -1.1104 15.9994 12.5213 21.0468 15.3662
514 1 -1.1104 15.9994 1.31329 23.7804 15.2447
515 1 -1.1104 15.9994 4.07485 23.8097 15.3186
516 1 -1.1104 15.9994 6.87327 23.8211 15.3353
517 1 -1.1104 15.9994 9.75359 23.8111 15.3076
518 1 -1.1104 15.9994 12.5872 23.852 15.3798
519 1 -1.1104 15.9994 1.31607 1.46149 18.2376
520 1 -1.1104 15.9994 4.04837 1.41683 18.216
521 1 -1.1104 15.9994 1.10639 1.41357 20.9855
522 1 -1.1104 15.9994 4.08137 1.58833 20.9903
523 1 -1.1104 15.9994 1.33529 4.50764 18.3371
524 1 -1.1104 15.9994 3.999 4.25761 18.0494
525 1 -1.1104 15.9994 1.17679 4.23658 21.0357
526 1 -1.1104 15.9994 4.01688 4.31581 20.9853
527 1 -1.1104 15.9994 6.8944 1.46914 18.2749
528 1 -1.1104 15.9994 9.62023 1.75319 17.9551
529 2 2.2208 232.038 13.9072 11.6744 13.9558
530 1 -1.1104 15.9994 9.45166 1.74601 21.1854
531 1 -1.1104 15.9994 6.72006 4.1815 17.9535
532 1 -1.1104 15.9994 9.69923 4.38855 18.2057
533 1 -1.1104 15.9994 6.85625 3.69913 20.9931
534 1 -1.1104 15.9994 9.74013 4.39163 21.011
535 1 -1.1104 15.9994 12.6703 1.67306 18.0414
536 1 -1.1104 15.9994 12.7683 1.7123 21.152
537 1 -1.1104 15.9994 12.5378 4.39517 18.1883
538 1 -1.1104 15.9994 12.5709 4.37945 20.9654
539 1 -1.1104 15.9994 1.21673 7.20021 18.1653
540 1 -1.1104 15.9994 4.00497 7.04933 18.1527
541 1 -1.1104 15.9994 1.15883 7.08541 20.9509
542 1 -1.1104 15.9994 4.01281 7.04393 21.0592
543 1 -1.1104 15.9994 1.19321 9.95586 18.1567
544 1 -1.1104 15.9994 4.04464 9.80459 18.2572
545 1 -1.1104 15.9994 1.28135 9.83902 20.9709
546 1 -1.1104 15.9994 4.05236 9.8224 20.95
547 1 -1.1104 15.9994 6.86072 6.92039 18.0698
548 1 -1.1104 15.9994 9.84994 7.07845 18.1021
549 1 -1.1104 15.9994 6.80274 6.76336 21.0292
550 1 -1.1104 15.9994 9.8555 7.08481 21.0843
551 1 -1.1104 15.9994 6.71644 10.0563 18.0209
552 1 -1.1104 15.9994 9.90113 10.0762 18.0562
553 1 -1.1104 15.9994 6.75917 10.0457 21.1504
554 1 -1.1104 15.9994 9.85407 10.0796 21.1395
555 1 -1.1104 15.9994 12.6171 7.11776 18.1424
556 1 -1.1104 15.9994 12.6223 7.09187 21.1134
557 1 -1.1104 15.9994 12.5917 9.86842 18.2826
558 1 -1.1104 15.9994 12.5901 9.84974 20.9506
559 1 -1.1104 15.9994 1.36608 12.6792 18.2991
560 1 -1.1104 15.9994 4.0825 12.6285 18.2543
561 1 -1.1104 15.9994 1.19684 12.5835 21.0362
562 1 -1.1104 15.9994 4.07199 12.6919 21.0774
563 1 -1.1104 15.9994 1.3419 15.6575 18.3024
564 1 -1.1104 15.9994 4.08064 15.4072 18.1437
565 1 -1.1104 15.9994 1.19723 15.4154 21.0201
566 1 -1.1104 15.9994 4.03329 15.4797 20.9828
567 1 -1.1104 15.9994 6.93767 12.7321 18.1823
568 1 -1.1104 15.9994 9.7197 12.7342 18.2196
569 1 -1.1104 15.9994 6.88419 12.7298 21.0056
570 1 -1.1104 15.9994 9.74061 12.742 20.9959
571 1 -1.1104 15.9994 6.868 15.4576 18.1697
572 1 -1.1104 15.9994 9.75976 15.458 18.1475
573 1 -1.1104 15.9994 6.87574 15.461 21.0314
574 1 -1.1104 15.9994 9.74891 15.4537 21.0683
575 1 -1.1104 15.9994 12.5765 12.6777 18.191
576 1 -1.1104 15.9994 12.5668 12.664 21.06
577 1 -1.1104 15.9994 12.5821 15.445 18.2215
578 1 -1.1104 15.9994 12.5739 15.4468 21.006
579 1 -1.1104 15.9994 1.2133 18.343 18.1723
580 1 -1.1104 15.9994 3.99689 18.22 18.1343
581 1 -1.1104 15.9994 1.18795 18.2474 20.9555
582 1 -1.1104 15.9994 4.02354 18.2321 21.0427
583 1 -1.1104 15.9994 1.18414 21.0935 18.1671
584 1 -1.1104 15.9994 4.03838 21.0009 18.2238
585 1 -1.1104 15.9994 1.28371 21.0236 20.9912
586 1 -1.1104 15.9994 4.06015 21.0183 20.9628
587 1 -1.1104 15.9994 6.79176 18.1894 18.0893
588 1 -1.1104 15.9994 9.83415 18.1824 18.1303
589 1 -1.1104 15.9994 6.78781 18.2057 21.0839
590 1 -1.1104 15.9994 9.8249 18.1986 21.0738
591 1 -1.1104 15.9994 6.75381 21.2075 18.0405
592 1 -1.1104 15.9994 9.85193 21.2091 18.0447
593 1 -1.1104 15.9994 6.76614 21.223 21.1213
594 1 -1.1104 15.9994 9.85041 21.2071 21.1529
595 1 -1.1104 15.9994 12.6045 18.2261 18.127
596 1 -1.1104 15.9994 12.6157 18.2119 21.0923
597 1 -1.1104 15.9994 12.5868 21.0065 18.2543
598 1 -1.1104 15.9994 12.5704 21.0126 20.9526
599 1 -1.1104 15.9994 1.3535 23.8309 18.294
600 1 -1.1104 15.9994 4.07457 23.8062 18.223
601 1 -1.1104 15.9994 1.18993 23.7839 21.0104
602 1 -1.1104 15.9994 4.07016 23.8651 21.0405
603 1 -1.1104 15.9994 6.9097 23.8908 18.1879
604 1 -1.1104 15.9994 9.74244 23.8715 18.2186
605 1 -1.1104 15.9994 6.88376 23.8854 21.0075
606 1 -1.1104 15.9994 9.70552 23.8821 20.9989
607 1 -1.1104 15.9994 12.5838 23.8254 18.1525
608 1 -1.1104 15.9994 12.5495 23.8274 20.9971
609 1 -1.1104 15.9994 1.38649 1.71706 23.6754
610 1 -1.1104 15.9994 3.98509 1.51209 23.8603
611 1 -1.1104 15.9994 1.28466 1.90892 26.7232
612 1 -1.1104 15.9994 4.10163 1.6776 26.433
613 1 -1.1104 15.9994 1.23411 4.36403 23.8654
614 1 -1.1104 15.9994 4.08091 4.341 23.7975
615 1 -1.1104 15.9994 1.19702 4.54422 26.6663
616 1 -1.1104 15.9994 4.04409 4.36301 26.6636
617 1 -1.1104 15.9994 6.89895 1.60748 23.7349
618 1 -1.1104 15.9994 9.76025 1.42312 23.8282
619 1 -1.1104 15.9994 6.86191 1.3721 26.6173
620 1 -1.1104 15.9994 9.62416 1.44401 26.5584
621 1 -1.1104 15.9994 6.8796 4.3225 23.8514
622 1 -1.1104 15.9994 9.85569 4.26742 23.8295
623 1 -1.1104 15.9994 6.83585 4.17509 26.725
624 1 -1.1104 15.9994 9.54628 4.48028 26.4968
625 1 -1.1104 15.9994 12.4883 1.59002 23.7921
626 1 -1.1104 15.9994 12.6814 1.38579 26.6322
627 1 -1.1104 15.9994 12.5063 4.33069 23.8283
628 1 -1.1104 15.9994 12.7445 4.46129 26.4696
629 1 -1.1104 15.9994 1.32851 7.03206 23.7286
630 1 -1.1104 15.9994 4.07339 7.15457 23.8705
631 1 -1.1104 15.9994 1.32087 7.21356 26.591
632 1 -1.1104 15.9994 4.09167 7.05924 26.6352
633 1 -1.1104 15.9994 1.22806 9.77777 23.7484
634 1 -1.1104 15.9994 4.0712 9.92764 23.7718
635 1 -1.1104 15.9994 1.47662 10.0583 26.6374
636 1 -1.1104 15.9994 4.15077 9.80047 26.7194
637 1 -1.1104 15.9994 6.8881 7.02774 23.8146
638 1 -1.1104 15.9994 9.78108 7.04218 23.8606
639 1 -1.1104 15.9994 6.904 7.02612 26.6975
640 1 -1.1104 15.9994 9.79036 7.14767 26.6475
641 1 -1.1104 15.9994 6.91112 9.78387 23.8227
642 1 -1.1104 15.9994 9.73983 9.8142 23.8138
643 1 -1.1104 15.9994 6.88638 9.79727 26.5347
644 1 -1.1104 15.9994 9.87266 9.85343 26.6112
645 1 -1.1104 15.9994 12.5775 7.15529 23.8439
646 1 -1.1104 15.9994 12.5892 7.13069 26.7031
647 1 -1.1104 15.9994 12.5695 9.94551 23.8098
648 1 -1.1104 15.9994 12.6516 9.84772 26.5531
649 1 -1.1104 15.9994 1.39892 12.8536 23.7167
650 1 -1.1104 15.9994 4.13467 12.6823 23.9005
651 1 -1.1104 15.9994 1.41251 12.9231 26.7287
652 1 -1.1104 15.9994 4.1012 12.5975 26.648
653 1 -1.1104 15.9994 1.2644 15.5368 23.7934
654 1 -1.1104 15.9994 4.0887 15.4608 23.8174
655 1 -1.1104 15.9994 1.30753 15.5137 26.61