LAMMPS (29 Oct 2020)
OMP_NUM_THREADS environment is not set. Defaulting to 1 thread. (../comm.cpp:94)
  using 1 OpenMP thread(s) per MPI task
#-------------------------------
#
#This input script is used to simulate the defected configuration generated by overlapping cascades initiated at
#different energies
#Ziqiang Wang on 01/24/2022
#
#-------------------------------

clear
OMP_NUM_THREADS environment is not set. Defaulting to 1 thread. (../comm.cpp:94)
  using 1 OpenMP thread(s) per MPI task
units                    metal
dimension                    3
boundary                 p p p
atom_style               full
atom_modify              map  array

read_data               perfect_relaxed.dat
Reading data file ...
  triclinic box = (0.0000000 0.0000000 0.0000000) to (27.894000 334.72800 27.894000) with tilt (0.0000000 0.0000000 0.0000000)
  2 by 13 by 2 MPI processor grid
  reading atoms ...
  24000 atoms
  reading velocities ...
  24000 velocities
Finding 1-2 1-3 1-4 neighbors ...
  special bond factors lj:    0.0      0.0      0.0     
  special bond factors coul:  0.0      0.0      0.0     
     0 = max # of 1-2 neighbors
     0 = max # of 1-3 neighbors
     0 = max # of 1-4 neighbors
     1 = max # of special neighbors
  special bonds CPU = 0.005 seconds
  read_data CPU = 0.085 seconds

variable                ratio    equal   0.01
group                   vac_Th   id      246 3108 4290 3302 4357  573 1267 1241 1452  590  584 5826 2722 3197                                          622 1344 5217  751 5586 5369 4284 3907 3044 1127 1012 2991 3205 1666                                          2985 2132 2432 4577 1889 2997 4439 2898  848 3992 5550 1239 2660 3361                                          3177 3275 2572 3551 5474 2868 1841 3345 1449 4687 4612 5902 3763 4554                                          2602 5094 3683 5990
60 atoms in group vac_Th

group                   vac_O    id      12279 10217 14224 11031  9288  7271 17670  9595 11387 17784 10130 15268                                          13163  6383 13657  8718 12097 15921 15664 10364 17029 16134 11557  9000                                          7317 15057 15691 14022 14625 16268 11372 13752 12739 14650 11002 16544                                          8724  6826 14871 11049 13412 11871 11814 15417  7403 14433 17429 14422                                          10542  7000 12001 14540 16519  8683 17193 10500 10239 12674 15944 10775                                          14297 10055 15050  9910  8806 17132 15165 10429 13636  7744 11545  8108                                          14634 10926 12516 10464 15807  7799 17723  7280  6395 13794 11758  8701                                          9530 15175 11501 15718 12804 17714 10712 17814 13848 14751 16259 10179                                          17154  9696 13094  9997 16329 15184 13429 10684 14742 13655 10099 11451                                          8790 13138 15793  9463 14543 17910 14407 16210 15533 14208 15545 12206
120 atoms in group vac_O

group                   oct_Th   id      18003 18018 18034 18054 18074 18080 18093 18126 18135 18145 18160 18224                                          18238 18244 18260 18294 18309 18329 18340 18368 18378 18403 18427 18460                                          18463 18468 18543 18563 18591 18604 18649 18668 18684 18690 18698 18727                                          18745 18763 18783 18826 18862 18883 18894 18908 18924 18950 18990 19004                                          19059 19083 19097 19122 19125 19134 19168 19213 19218 19249 19296 19303
60 atoms in group oct_Th

group                   oct_O    id      18005 18011 18022 18029 18042 18045 18059 18062 18085 18096 18103 18109                                          18119 18125 18156 18162 18175 18181 18192 18195 18201 18215 18229 18232                                          18256 18262 18269 18276 18282 18289 18297 18310 18317 18324 18341 18350                                          18354 18391 18406 18414 18421 18439 18442 18456 18481 18489 18492 18505                                          18511 18521 18530 18536 18547 18554 18567 18573 18579 18626 18634 18637                                          18654 18661 18672 18705 18711 18719 18722 18735 18741 18757 18774 18776                                          18792 18795 18801 18807 18850 18857 18876 18889 18911 18932 18935 18946                                          18952 18959 18966 18976 18986 18992 19005 19019 19027 19030 19036 19045                                          19085 19099 19102 19116 19139 19142 19155 19161 19176 19180 19186 19192                                          19199 19206 19223 19227 19234 19254 19269 19276 19285 19286 19320 19337
120 atoms in group oct_O

group                   tot_oct_Th   type   4
3000 atoms in group tot_oct_Th
group                   tot_oct_O    type   3
3000 atoms in group tot_oct_O

group                   delete_oct_Th   subtract   tot_oct_Th  oct_Th
2940 atoms in group delete_oct_Th
group                   delete_oct_O    subtract   tot_oct_O   oct_O
2880 atoms in group delete_oct_O

delete_atoms            group  vac_Th
WARNING: Ignoring 'compress yes' for molecular system (../delete_atoms.cpp:125)
Deleted 60 atoms, new total = 23940
delete_atoms            group  vac_O
WARNING: Ignoring 'compress yes' for molecular system (../delete_atoms.cpp:125)
Deleted 120 atoms, new total = 23820
delete_atoms            group  delete_oct_Th
WARNING: Ignoring 'compress yes' for molecular system (../delete_atoms.cpp:125)
Deleted 2940 atoms, new total = 20880
delete_atoms            group  delete_oct_O
WARNING: Ignoring 'compress yes' for molecular system (../delete_atoms.cpp:125)
Deleted 2880 atoms, new total = 18000

kspace_style                   pppm            1.0e-5
pair_style                     hybrid/overlay     coul/long    11.0   eam/alloy
pair_coeff                     * * coul/long
pair_coeff                     * * eam/alloy CeThUNpPuAmCmO.eam.alloy O Th O Th
neighbor                 2.0  bin
neigh_modify             delay  0  every  1  check   yes

set                      type      1      charge    -1.1104
Setting atom values ...
  11880 settings made for charge
set                      type      2      charge     2.2208
Setting atom values ...
  5940 settings made for charge
set                      type      3      charge    -1.1104
Setting atom values ...
  120 settings made for charge
set                      type      4      charge     2.2208
Setting atom values ...
  60 settings made for charge

# Minimize the defected configuration at 0K
min_style                cg
fix                      relax   all  box/relax  aniso 0.0 vmax 0.001
minimize                 1.0e-30 1.0e-30 10000 10000
PPPM initialization ...
  using 12-bit tables for long-range coulomb (../kspace.cpp:328)
  G vector (1/distance) = 0.29916851
  grid = 40 240 40
  stencil order = 5
  estimated absolute RMS force accuracy = 0.00015502622
  estimated relative force accuracy = 1.0765975e-05
  using single precision MKL FFT
  3d grid and FFT values/proc = 18225 7600
Neighbor list info ...
  update every 1 steps, delay 0 steps, check yes
  max neighbors/atom: 2000, page size: 100000
  master list distance cutoff = 13
  ghost atom cutoff = 13
  binsize = 6.5, bins = 5 52 5
  2 neighbor lists, perpetual/occasional/extra = 2 0 0
  (1) pair coul/long, perpetual
      attributes: half, newton on
      pair build: half/bin/newton/tri
      stencil: half/bin/3d/newton/tri
      bin: standard
  (2) pair eam/alloy, perpetual, copy from (1)
      attributes: half, newton on
      pair build: copy
      stencil: none
      bin: none
Per MPI rank memory allocation (min/avg/max) = 10.44 | 10.47 | 10.50 Mbytes
Step Temp E_pair E_mol TotEng Press Volume 
       0            0   -229811.44            0   -229811.44    25207.781    260443.57 
    1426            0   -234569.77            0   -234569.77    40.403578    267126.92 
Loop time of 23.8619 on 52 procs for 1426 steps with 18000 atoms

99.7% CPU use with 52 MPI tasks x 1 OpenMP threads

Minimization stats:
  Stopping criterion = linesearch alpha is zero
  Energy initial, next-to-last, final = 
     -229811.442086565  -234569.772015576  -234569.772015576
  Force two-norm initial, final = 8485.6794 18.583881
  Force max component initial, final = 6065.9824 13.538249
  Final line search alpha, max atom move = 2.0063998e-11 2.7163140e-10
  Iterations, force evaluations = 1426 1973

MPI task timing breakdown:
Section |  min time  |  avg time  |  max time  |%varavg| %total
---------------------------------------------------------------
Pair    | 12.772     | 13.399     | 14.24      |  10.7 | 56.15
Bond    | 0.00017499 | 0.00027424 | 0.00045342 |   0.0 |  0.00
Kspace  | 3.9626     | 4.808      | 5.4301     |  17.9 | 20.15
Neigh   | 0.028426   | 0.032175   | 0.035419   |   1.0 |  0.13
Comm    | 0.45459    | 0.46316    | 0.47499    |   0.8 |  1.94
Output  | 0          | 0          | 0          |   0.0 |  0.00
Modify  | 0          | 0          | 0          |   0.0 |  0.00
Other   |            | 5.16       |            |       | 21.62

Nlocal:        346.154 ave         387 max         311 min
Histogram: 1 4 9 8 10 6 7 3 0 4
Nghost:        5612.83 ave        5792 max        5436 min
Histogram: 5 5 6 2 5 10 5 7 5 2
Neighs:       110520.0 ave      124043 max       98631 min
Histogram: 2 2 8 10 9 7 8 2 1 3

Total # of neighbors = 5747056
Ave neighs/atom = 319.28089
Ave special neighs/atom = 0.0000000
Neighbor list builds = 8
Dangerous builds = 0
unfix                    relax
reset_timestep           0

# Apply the temperature to the system and relax the configurations
reset_atom_ids
Resetting atom IDs ...
PPPM initialization ...
  using 12-bit tables for long-range coulomb (../kspace.cpp:328)
  G vector (1/distance) = 0.29876511
  grid = 40 240 40
  stencil order = 5
  estimated absolute RMS force accuracy = 0.00015797288
  estimated relative force accuracy = 1.0970609e-05
  using single precision MKL FFT
  3d grid and FFT values/proc = 18225 7600
Finding 1-2 1-3 1-4 neighbors ...
  special bond factors lj:    0.0      0.0      0.0     
  special bond factors coul:  0.0      0.0      0.0     
     0 = max # of 1-2 neighbors
     0 = max # of 1-3 neighbors
     0 = max # of 1-4 neighbors
     1 = max # of special neighbors
  special bonds CPU = 0.001 seconds
variable                 latt  equal  (lx/5+ly/60+lz/5)/3
variable                 temp  index  1500
velocity                 all  create  ${temp}  4526826  rot  yes  mom  yes  dist  gaussian
velocity                 all  create  1500  4526826  rot  yes  mom  yes  dist  gaussian
fix                      npt  all  npt  temp  ${temp}  ${temp}  $(100*dt)  aniso  0.0  0.0  $(1000*dt)
fix                      npt  all  npt  temp  1500  ${temp}  $(100*dt)  aniso  0.0  0.0  $(1000*dt)
fix                      npt  all  npt  temp  1500  1500  $(100*dt)  aniso  0.0  0.0  $(1000*dt)
fix                      npt  all  npt  temp  1500  1500  0.10000000000000000555  aniso  0.0  0.0  $(1000*dt)
fix                      npt  all  npt  temp  1500  1500  0.10000000000000000555  aniso  0.0  0.0  1
timestep                 0.001
thermo                   100000
thermo_style             custom  step  temp  ke  pe  press  v_latt

shell                    mkdir   Frenkel_${ratio}_relax
shell                    mkdir   Frenkel_0.01_relax
dump                     1  all  custom  100000  ./Frenkel_${ratio}_relax/dump_relax.atom.*  id type q mass x y z
dump                     1  all  custom  100000  ./Frenkel_0.01_relax/dump_relax.atom.*  id type q mass x y z
dump_modify              1  element  O Th O Th

run                      300000
PPPM initialization ...
  using 12-bit tables for long-range coulomb (../kspace.cpp:328)
  G vector (1/distance) = 0.29876511
  grid = 40 240 40
  stencil order = 5
  estimated absolute RMS force accuracy = 0.00015797288
  estimated relative force accuracy = 1.0970609e-05
  using single precision MKL FFT
  3d grid and FFT values/proc = 18225 7600
Per MPI rank memory allocation (min/avg/max) = 10.59 | 10.62 | 10.64 Mbytes
Step Temp KinEng PotEng Press v_latt 
       0         1500      3489.83   -234569.78    13994.191    5.6261579 
  100000     1508.412    3509.4009   -232413.65    1315.3054    5.6787216 
  200000    1501.7049    3493.7966   -232443.41    87.299241    5.6786276 
  300000    1494.7661    3477.6531    -232379.6   -1446.6575    5.6819076 
Loop time of 2845.33 on 52 procs for 300000 steps with 18000 atoms

Performance: 9.110 ns/day, 2.635 hours/ns, 105.436 timesteps/s
99.8% CPU use with 52 MPI tasks x 1 OpenMP threads

MPI task timing breakdown:
Section |  min time  |  avg time  |  max time  |%varavg| %total
---------------------------------------------------------------
Pair    | 1640.8     | 1677.8     | 1734.4     |  60.4 | 58.97
Bond    | 0.031058   | 0.04227    | 0.059388   |   3.4 |  0.00
Kspace  | 591.5      | 650.32     | 689.43     | 101.8 | 22.86
Neigh   | 39.248     | 41.075     | 43.79      |  18.3 |  1.44
Comm    | 80.404     | 83.638     | 86.962     |  18.0 |  2.94
Output  | 0.016271   | 0.016284   | 0.016769   |   0.1 |  0.00
Modify  | 341.33     | 363.17     | 379.44     |  48.2 | 12.76
Other   |            | 29.23      |            |       |  1.03

Nlocal:        346.154 ave         365 max         331 min
Histogram: 3 7 6 9 4 9 5 3 4 2
Nghost:        5361.75 ave        5470 max        5174 min
Histogram: 1 1 1 1 10 10 9 5 8 6
Neighs:       105297.0 ave      111294 max       99959 min
Histogram: 3 3 9 10 4 5 8 4 3 3

Total # of neighbors = 5475432
Ave neighs/atom = 304.19067
Ave special neighs/atom = 0.0000000
Neighbor list builds = 10146
Dangerous builds = 0
shell                    mkdir  thermal_condu
write_data               ./thermal_condu/Frenkel_${ratio}_relaxed.dat
write_data               ./thermal_condu/Frenkel_0.01_relaxed.dat
System init for write_data ...
PPPM initialization ...
  using 12-bit tables for long-range coulomb (../kspace.cpp:328)
  G vector (1/distance) = 0.29814167
  grid = 40 240 40
  stencil order = 5
  estimated absolute RMS force accuracy = 0.00016343339
  estimated relative force accuracy = 1.134982e-05
  using single precision MKL FFT
  3d grid and FFT values/proc = 18225 7600

Total wall time: 0:47:49
