LAMMPS (29 Oct 2020)
OMP_NUM_THREADS environment is not set. Defaulting to 1 thread. (../comm.cpp:94)
  using 1 OpenMP thread(s) per MPI task
OMP_NUM_THREADS environment is not set. Defaulting to 1 thread. (../comm.cpp:94)
  using 1 OpenMP thread(s) per MPI task
Reading data file ...
  triclinic box = (-0.24554927 -3.0616407 -0.26724116) to (28.139549 337.78964 28.161241) with tilt (0.0000000 0.0000000 0.0000000)
  2 by 13 by 2 MPI processor grid
  reading atoms ...
  18001 atoms
  reading velocities ...
  18001 velocities
Finding 1-2 1-3 1-4 neighbors ...
  special bond factors lj:    0.0      0.0      0.0     
  special bond factors coul:  0.0      0.0      0.0     
     0 = max # of 1-2 neighbors
     0 = max # of 1-3 neighbors
     0 = max # of 1-4 neighbors
     1 = max # of special neighbors
  special bonds CPU = 0.004 seconds
  read_data CPU = 0.095 seconds
Setting atom values ...
  12000 settings made for charge
Setting atom values ...
  6001 settings made for charge
PPPM initialization ...
WARNING: System is not charge neutral, net charge = 2.2208000 (../kspace.cpp:313)
  using 12-bit tables for long-range coulomb (../kspace.cpp:328)
  G vector (1/distance) = 0.29815117
  grid = 40 240 40
  stencil order = 5
  estimated absolute RMS force accuracy = 0.00016335834
  estimated relative force accuracy = 1.1344609e-05
  using single precision MKL FFT
  3d grid and FFT values/proc = 15000 7600
Neighbor list info ...
  update every 1 steps, delay 0 steps, check yes
  max neighbors/atom: 2000, page size: 100000
  master list distance cutoff = 11.3
  ghost atom cutoff = 11.3
  binsize = 5.65, bins = 6 61 6
  2 neighbor lists, perpetual/occasional/extra = 2 0 0
  (1) pair coul/long, perpetual
      attributes: half, newton on
      pair build: half/bin/newton/tri
      stencil: half/bin/3d/newton/tri
      bin: standard
  (2) pair eam/alloy, perpetual, copy from (1)
      attributes: half, newton on
      pair build: copy
      stencil: none
      bin: none
Setting up Verlet run ...
  Unit style    : metal
  Current step  : 0
  Time step     : 0.001
Per MPI rank memory allocation (min/avg/max) = 8.310 | 8.339 | 8.357 Mbytes
Step Temp E_pair E_mol TotEng Press 
       0         1500   -232416.99            0   -228926.97   -966.77442 
  100000    1497.7415   -232456.21            0   -228971.44    -1230.763 
Loop time of 686.961 on 52 procs for 100000 steps with 18001 atoms

Performance: 12.577 ns/day, 1.908 hours/ns, 145.569 timesteps/s
99.8% CPU use with 52 MPI tasks x 1 OpenMP threads

MPI task timing breakdown:
Section |  min time  |  avg time  |  max time  |%varavg| %total
---------------------------------------------------------------
Pair    | 450.08     | 459.18     | 472.46     |  21.5 | 66.84
Bond    | 0.0068119  | 0.01046    | 0.015976   |   2.0 |  0.00
Kspace  | 127.9      | 143.06     | 153.92     |  50.0 | 20.82
Neigh   | 60.46      | 63.392     | 67.445     |  23.5 |  9.23
Comm    | 15.812     | 16.787     | 19.089     |  22.6 |  2.44
Output  | 5.72e-05   | 6.2531e-05 | 0.00027014 |   0.0 |  0.00
Modify  | 1.8382     | 3.2055     | 5.2245     |  63.2 |  0.47
Other   |            | 1.328      |            |       |  0.19

Nlocal:        346.173 ave         369 max         332 min
Histogram: 4 9 8 11 6 5 2 3 3 1
Nghost:        3946.67 ave        4026 max        3876 min
Histogram: 4 5 4 11 3 11 2 5 4 3
Neighs:        69334.6 ave       74021 max       66002 min
Histogram: 5 4 9 11 5 7 4 3 2 2

Total # of neighbors = 3605398
Ave neighs/atom = 200.28876
Ave special neighs/atom = 0.0000000
Neighbor list builds = 24996
Dangerous builds = 0
12000 atoms in group oxygen
PPPM initialization ...
  using 12-bit tables for long-range coulomb (../kspace.cpp:328)
  G vector (1/distance) = 0.29815117
  grid = 40 240 40
  stencil order = 5
  estimated absolute RMS force accuracy = 0.00016335834
  estimated relative force accuracy = 1.1344609e-05
  using single precision MKL FFT
  3d grid and FFT values/proc = 15000 7600
Setting up Verlet run ...
  Unit style    : metal
  Current step  : 0
  Time step     : 0.001
Per MPI rank memory allocation (min/avg/max) = 8.561 | 8.589 | 8.607 Mbytes
Step f_2 Temp v_Tdiff v_deltaT 
       0            0    1497.7415            0            0 
  100000    1557.4434    1489.2383  0.070514382    818.66542 
  200000     2972.645    1496.7474  0.090424445    1049.8194 
  300000    4390.5936    1491.2371  0.088854194    1031.5889 
  400000    5803.8779    1505.8796  0.089275159    1036.4763 
  500000    7216.9175    1491.2848  0.092979416    1079.4824 
  600000    8641.5364     1496.589  0.090336681    1048.8005 
  700000    10057.585    1507.8025  0.089424317     1038.208 
  800000    11466.862    1501.7983  0.090126591    1046.3614 
  900000    12889.371    1499.7019  0.089909478    1043.8407 
 1000000    14300.789    1508.5031  0.091576026    1063.1892 
 1100000    15715.055     1497.539  0.091010647    1056.6252 
 1200000    17128.278     1509.539  0.090433093    1049.9198 
 1300000    18551.836    1499.1565  0.088694925    1029.7398 
 1400000     19972.36    1504.5885  0.091149818    1058.2409 
 1500000     21390.93    1505.6282  0.091464174    1061.8906 
Loop time of 10165.9 on 52 procs for 1500000 steps with 18001 atoms

Performance: 12.749 ns/day, 1.883 hours/ns, 147.552 timesteps/s
99.8% CPU use with 52 MPI tasks x 1 OpenMP threads

MPI task timing breakdown:
Section |  min time  |  avg time  |  max time  |%varavg| %total
---------------------------------------------------------------
Pair    | 6624.7     | 6763       | 6892.8     |  74.8 | 66.53
Bond    | 0.10592    | 0.1591     | 0.26948    |   8.7 |  0.00
Kspace  | 1963.6     | 2124.9     | 2264.9     | 146.6 | 20.90
Neigh   | 927        | 967.08     | 1015.1     |  73.6 |  9.51
Comm    | 236.52     | 254.35     | 305.21     | 118.9 |  2.50
Output  | 0.0015541  | 0.0016532  | 0.0034847  |   0.6 |  0.00
Modify  | 8.0853     | 8.842      | 9.601      |  12.9 |  0.09
Other   |            | 47.52      |            |       |  0.47

Nlocal:        346.173 ave         370 max         329 min
Histogram: 3 5 4 10 18 5 2 2 2 1
Nghost:        3949.48 ave        4058 max        3871 min
Histogram: 3 6 10 5 10 8 2 5 1 2
Neighs:        69297.2 ave       75440 max       65116 min
Histogram: 3 4 3 18 14 5 1 2 1 1

Total # of neighbors = 3603457
Ave neighs/atom = 200.18093
Ave special neighs/atom = 0.0000000
Neighbor list builds = 381056
Dangerous builds = 0
Total wall time: 3:00:53
