LAMMPS (29 Oct 2020)
OMP_NUM_THREADS environment is not set. Defaulting to 1 thread. (../comm.cpp:94)
  using 1 OpenMP thread(s) per MPI task
OMP_NUM_THREADS environment is not set. Defaulting to 1 thread. (../comm.cpp:94)
  using 1 OpenMP thread(s) per MPI task
Reading data file ...
  orthogonal box = (-0.27717828 -3.4472206 -0.27717828) to (27.617178 331.52722 27.617178)
  2 by 13 by 2 MPI processor grid
  reading atoms ...
  18000 atoms
  reading velocities ...
  18000 velocities
Finding 1-2 1-3 1-4 neighbors ...
  special bond factors lj:    0.0      0.0      0.0     
  special bond factors coul:  0.0      0.0      0.0     
     0 = max # of 1-2 neighbors
     0 = max # of 1-3 neighbors
     0 = max # of 1-4 neighbors
     1 = max # of special neighbors
  special bonds CPU = 0.004 seconds
  read_data CPU = 0.074 seconds
90 atoms in group Th
90 atoms in group O
Setting atom values ...
  90 settings made for type
Setting atom values ...
  90 settings made for type
Setting atom values ...
  12000 settings made for charge
Setting atom values ...
  6000 settings made for charge
PPPM initialization ...
  using 12-bit tables for long-range coulomb (../kspace.cpp:328)
  G vector (1/distance) = 0.2991486
  grid = 40 240 40
  stencil order = 5
  estimated absolute RMS force accuracy = 0.00015521489
  estimated relative force accuracy = 1.0779078e-05
  using single precision MKL FFT
  3d grid and FFT values/proc = 18225 7600
Neighbor list info ...
  update every 1 steps, delay 0 steps, check yes
  max neighbors/atom: 2000, page size: 100000
  master list distance cutoff = 13
  ghost atom cutoff = 13
  binsize = 6.5, bins = 5 52 5
  2 neighbor lists, perpetual/occasional/extra = 2 0 0
  (1) pair coul/long, perpetual
      attributes: half, newton on
      pair build: half/bin/newton
      stencil: half/bin/3d/newton
      bin: standard
  (2) pair eam/alloy, perpetual, copy from (1)
      attributes: half, newton on
      pair build: copy
      stencil: none
      bin: none
Setting up cg style minimization ...
  Unit style    : metal
  Current step  : 0
WARNING: Energy due to 3 extra global DOFs will be included in minimizer energies
Per MPI rank memory allocation (min/avg/max) = 9.513 | 10.22 | 10.28 Mbytes
Step Temp E_pair E_mol TotEng Press Volume 
       0            0   -223404.58            0   -223404.58    42412.933    260641.98 
    2280            0   -233823.48            0   -233823.48    105.65732    268728.24 
Loop time of 35.7651 on 52 procs for 2280 steps with 18000 atoms

99.8% CPU use with 52 MPI tasks x 1 OpenMP threads

Minimization stats:
  Stopping criterion = linesearch alpha is zero
  Energy initial, next-to-last, final = 
     -223404.575643803  -233823.482933581  -233823.482933581
  Force two-norm initial, final = 13098.711 41.933406
  Force max component initial, final = 10141.283 23.339802
  Final line search alpha, max atom move = 5.1075535e-12 1.1920929e-10
  Iterations, force evaluations = 2280 3212

MPI task timing breakdown:
Section |  min time  |  avg time  |  max time  |%varavg| %total
---------------------------------------------------------------
Pair    | 20.433     | 21.349     | 22.148     |   9.2 | 59.69
Bond    | 0.00029162 | 0.00043191 | 0.0006599  |   0.0 |  0.00
Kspace  | 6.09       | 6.9026     | 7.847      |  16.5 | 19.30
Neigh   | 0.069302   | 0.079195   | 0.09083    |   2.1 |  0.22
Comm    | 0.69306    | 0.71886    | 0.74436    |   1.3 |  2.01
Output  | 0          | 0          | 0          |   0.0 |  0.00
Modify  | 0          | 0          | 0          |   0.0 |  0.00
Other   |            | 6.715      |            |       | 18.78

Nlocal:        346.154 ave         392 max         306 min
Histogram: 4 6 8 6 2 7 7 7 2 3
Nghost:        5596.48 ave        5699 max        5479 min
Histogram: 1 9 5 8 0 1 6 10 10 2
Neighs:       109443.0 ave      124465 max       97193 min
Histogram: 5 6 6 7 4 8 7 4 3 2

Total # of neighbors = 5691040
Ave neighs/atom = 316.16889
Ave special neighs/atom = 0.0000000
Neighbor list builds = 27
Dangerous builds = 0
PPPM initialization ...
  using 12-bit tables for long-range coulomb (../kspace.cpp:328)
  G vector (1/distance) = 0.29864975
  grid = 40 240 40
  stencil order = 5
  estimated absolute RMS force accuracy = 0.00015893325
  estimated relative force accuracy = 1.1037303e-05
  using single precision MKL FFT
  3d grid and FFT values/proc = 18225 7600
Setting up Verlet run ...
  Unit style    : metal
  Current step  : 0
  Time step     : 0.001
Per MPI rank memory allocation (min/avg/max) = 10.38 | 10.41 | 10.42 Mbytes
Step Dt Time Atoms Temp PotEng KinEng Press Volume v_latt 
       0        0.001            0    18000          900   -233823.49     2093.898    8427.9662    268728.24    5.6373768 
   10000        0.001           10    18000    895.16398   -233753.47    2082.6467    193.22133    270464.11    5.6494495 
   20000        0.001           20    18000    896.50765   -233771.81    2085.7729    207.01348    270298.61    5.6482981 
   30000        0.001           30    18000    899.23059   -233794.39     2092.108   -8.0922167    270276.03    5.6481402 
   40000        0.001           40    18000    902.97467   -233800.56    2100.8187    283.73004    270282.89    5.6481881 
   50000        0.001           50    18000    900.19494   -233797.76    2094.3516    1200.9103    270122.47      5.64707 
   60000        0.001           60    18000    903.77199   -233797.75    2102.6737   -449.58918    270369.01    5.6487874 
   70000        0.001           70    18000    908.69314   -233806.55    2114.1231    57.374322    270286.64    5.6482139 
   80000        0.001           80    18000    896.25466   -233828.08    2085.1843    808.04092    269994.74    5.6461797 
   90000        0.001           90    18000    904.84932   -233827.42    2105.1802    12.882417    270185.76    5.6475114 
  100000        0.001          100    18000    900.80604   -233841.73    2095.7733    1167.5731    269913.06    5.6456101 
Loop time of 878.345 on 52 procs for 100000 steps with 18000 atoms

Performance: 9.837 ns/day, 2.440 hours/ns, 113.850 timesteps/s
99.8% CPU use with 52 MPI tasks x 1 OpenMP threads

MPI task timing breakdown:
Section |  min time  |  avg time  |  max time  |%varavg| %total
---------------------------------------------------------------
Pair    | 534.04     | 544.35     | 557.71     |  24.2 | 61.97
Bond    | 0.0098307  | 0.014203   | 0.018749   |   1.9 |  0.00
Kspace  | 181.7      | 195.64     | 206.37     |  41.6 | 22.27
Neigh   | 5.5638     | 5.7671     | 6.1077     |   5.9 |  0.66
Comm    | 24.989     | 25.632     | 26.541     |   8.9 |  2.92
Output  | 0.011178   | 0.011232   | 0.01324    |   0.3 |  0.00
Modify  | 92.213     | 98.289     | 103.4      |  26.3 | 11.19
Other   |            | 8.643      |            |       |  0.98

Nlocal:        346.154 ave         378 max         327 min
Histogram: 3 8 14 6 4 10 4 1 1 1
Nghost:        5575.23 ave        5706 max        5457 min
Histogram: 6 4 8 7 1 6 6 5 6 3
Neighs:       108167.0 ave      119622 max      100375 min
Histogram: 1 3 14 13 7 6 5 1 1 1

Total # of neighbors = 5624660
Ave neighs/atom = 312.48111
Ave special neighs/atom = 0.0000000
Neighbor list builds = 1967
Dangerous builds = 0
System init for write_data ...
PPPM initialization ...
  using 12-bit tables for long-range coulomb (../kspace.cpp:328)
  G vector (1/distance) = 0.29850371
  grid = 40 240 40
  stencil order = 5
  estimated absolute RMS force accuracy = 0.00016043882
  estimated relative force accuracy = 1.1141859e-05
  using single precision MKL FFT
  3d grid and FFT values/proc = 18225 7600
Total wall time: 0:15:14
