ITEM: TIMESTEP
30000
ITEM: NUMBER OF ATOMS
17910
ITEM: BOX BOUNDS pp pp pp
-3.4846425441491996e-01 2.7688464254415464e+01
-4.2626228692362345e+00 3.3234262286924030e+02
-3.6003093610309106e-01 2.7700030936102866e+01
ITEM: ATOMS id type q x y z
1 2 2.2208 5.35035 1.32295 5.24343
2 1 -1.1104 1.12565 -2.86815 1.02959
3 1 -1.1104 1.29379 2.67249 0.927964
6 1 -1.1104 1.04917 -2.74087 3.70616
7 1 -1.1104 1.00726 2.77225 3.72011
10 1 -1.1104 1.13665 -0.0443992 0.839272
12 2 2.2208 5.23658 -1.44911 2.4469
13 2 2.2208 5.39711 4.29396 2.46045
14 1 -1.1104 1.12061 0.0177365 3.71485
16 1 -1.1104 4.11255 -2.96775 0.997317
17 1 -1.1104 3.94727 2.83697 1.00569
18 2 2.2208 2.49011 1.34707 2.35097
19 1 -1.1104 3.88541 -2.91124 3.76247
20 1 -1.1104 3.95819 2.85147 3.66795
21 2 2.2208 2.56783 -1.43582 5.08564
22 2 2.2208 2.47405 4.02421 5.16047
23 1 -1.1104 3.92564 -0.0262967 1.0818
24 1 -1.1104 3.87344 -0.0872607 3.82575
174 1 -1.1104 3.99068 -0.0156806 6.67422
423 2 2.2208 5.30335 9.83876 13.5628
173 1 -1.1104 3.95283 2.69703 6.6944
29 2 2.2208 5.31856 -4.17536 5.16186
166 1 -1.1104 1.08123 -2.80974 6.54114
513 2 2.2208 10.8957 15.5612 13.6336
9076 2 2.2208 -0.275662 21.054 2.42648
15 1 -1.1104 6.68496 0.0355389 3.68639
4 1 -1.1104 6.83149 -2.85645 0.957345
170 1 -1.1104 1.20422 -0.0512082 6.5696
9072 2 2.2208 -0.329204 12.6971 5.27582
9 1 -1.1104 6.84784 2.97362 3.65906
8 1 -1.1104 6.67646 -2.69406 3.75888
11 1 -1.1104 6.63385 0.000336887 1.05002
5 1 -1.1104 6.75963 2.86998 0.909966
31 2 2.2208 10.9528 1.42286 5.27444
32 1 -1.1104 12.2622 -2.76997 1.03081
33 1 -1.1104 12.3044 2.90194 1.0274
34 1 -1.1104 12.2869 -2.82679 3.97367
35 1 -1.1104 12.2806 2.80313 3.72703
36 1 -1.1104 12.0105 0.124801 1.18028
37 2 2.2208 10.8818 -1.26557 2.50592
38 2 2.2208 10.8956 4.19047 2.34424
39 1 -1.1104 12.3707 0.0734943 3.99322
40 1 -1.1104 9.53742 -2.86825 1.04973
41 1 -1.1104 9.64135 2.70917 1.11004
42 2 2.2208 8.06286 1.45586 2.42456
43 1 -1.1104 9.50321 -2.65104 3.80827
44 1 -1.1104 9.48097 2.76699 3.77022
45 2 2.2208 8.15939 -1.32382 5.24861
46 2 2.2208 8.14258 4.16447 5.10762
47 1 -1.1104 9.30357 0.0319112 1.0071
48 1 -1.1104 9.44637 0.0538061 3.93748
169 1 -1.1104 6.76125 2.71553 6.49922
209 1 -1.1104 9.58612 2.96601 6.58719
52 2 2.2208 10.9334 -4.29994 5.18355
9078 2 2.2208 13.6278 18.1149 2.36695
207 1 -1.1104 12.3886 0.0679075 6.74597
210 1 -1.1104 9.64632 -0.053872 6.59024
208 1 -1.1104 9.62603 -2.86321 6.52739
205 1 -1.1104 12.4869 -2.76935 6.70317
206 1 -1.1104 12.3977 2.97781 6.56806
354 2 2.2208 2.66893 1.34172 13.5427
9066 2 2.2208 -0.360326 -4.22958 5.09255
9476 2 2.2208 -0.17809 -1.54275 13.6102
54 2 2.2208 5.3622 6.94057 5.11697
55 2 2.2208 5.26103 12.4918 5.20473
56 1 -1.1104 1.05981 8.4136 0.809134
58 1 -1.1104 1.04995 8.31054 3.54362
60 1 -1.1104 1.17037 5.69684 0.956045
61 1 -1.1104 1.07151 11.069 0.966126
66 2 2.2208 5.21849 9.73306 2.25756
67 1 -1.1104 0.998848 5.37936 3.74153
68 1 -1.1104 1.13884 11.1838 3.64028
71 1 -1.1104 3.85863 8.51983 0.908721
72 2 2.2208 2.46377 6.94039 2.28858
73 2 2.2208 2.46591 12.5589 2.31407
74 1 -1.1104 3.85719 8.15324 3.54555
75 2 2.2208 2.43496 9.79318 5.02205
76 1 -1.1104 3.97617 5.72207 0.871464
77 1 -1.1104 4.04446 11.2811 0.940512
79 1 -1.1104 3.87004 5.48078 3.80573
80 1 -1.1104 3.83878 11.0786 3.7671
487 2 2.2208 5.21909 15.4491 13.5847
9070 2 2.2208 -0.290241 6.90876 5.13314
62 1 -1.1104 1.01158 11.2217 6.4471
239 1 -1.1104 3.83238 5.25424 6.51788
236 1 -1.1104 0.992999 5.55624 6.52732
238 1 -1.1104 3.89743 8.17277 6.47001
78 1 -1.1104 3.83146 11.078 6.47707
308 2 2.2208 2.43162 18.2401 13.6177
64 1 -1.1104 6.82177 11.0129 0.917531
70 1 -1.1104 6.53287 11.1046 3.75625
63 1 -1.1104 6.75291 5.64489 0.873458
57 1 -1.1104 6.87581 8.39044 1.05084
59 1 -1.1104 6.70401 8.31629 3.84912
69 1 -1.1104 6.82997 5.63637 3.69788
84 2 2.2208 10.9357 6.98049 5.32776
85 2 2.2208 10.9348 12.6724 5.10848
86 1 -1.1104 12.3434 8.40151 1.18722
87 1 -1.1104 12.3942 8.35471 4.02507
88 1 -1.1104 12.2584 5.65927 0.994696
89 1 -1.1104 12.3156 11.2401 1.05821
91 2 2.2208 10.9065 9.82799 2.43957
92 1 -1.1104 12.3835 5.61821 3.97749
93 1 -1.1104 12.2788 11.2419 3.80123
94 1 -1.1104 9.65743 8.35573 1.0811
95 2 2.2208 8.28602 6.92878 2.46916
96 2 2.2208 8.11507 12.5695 2.3097
97 1 -1.1104 9.55504 8.43247 3.83114
98 2 2.2208 8.18196 9.77213 5.18987
99 1 -1.1104 9.5436 5.5053 0.865814
100 1 -1.1104 9.64646 11.149 0.974707
102 1 -1.1104 9.52683 5.57034 3.85179
103 1 -1.1104 9.49147 11.2107 3.8018
90 1 -1.1104 12.2429 11.2214 6.66359
235 1 -1.1104 6.81936 8.47435 6.59736
237 1 -1.1104 6.69377 5.62706 6.7147
266 1 -1.1104 12.4395 5.70674 6.7764
265 1 -1.1104 12.3067 8.45159 6.58813
50 1 -1.1104 12.2682 17.2076 12.2617
9077 2 2.2208 -0.38616 18.2238 5.17432
106 2 2.2208 5.28803 18.0424 5.27956
107 1 -1.1104 1.13686 14.1112 0.815705
109 1 -1.1104 1.21945 19.589 0.979998
113 1 -1.1104 1.21336 14.0582 3.8217
114 1 -1.1104 0.989499 19.551 3.91013
116 1 -1.1104 1.15526 16.8518 0.960991
119 2 2.2208 5.25849 15.363 2.38554
120 2 2.2208 5.35866 20.9863 2.44592
121 1 -1.1104 1.03448 16.8474 3.85211
123 1 -1.1104 3.93892 14.0529 0.950554
125 1 -1.1104 4.04613 19.5854 0.946093
127 2 2.2208 2.48194 18.3299 2.48841
128 1 -1.1104 3.85238 13.8776 3.79559
129 1 -1.1104 3.76367 19.4868 3.94053
130 2 2.2208 2.46213 15.4004 5.17302
131 2 2.2208 2.54771 20.8633 5.28682
132 1 -1.1104 3.90301 16.7949 1.12856
134 1 -1.1104 3.93362 16.6449 3.83228
126 1 -1.1104 3.93765 19.5443 6.65586
133 1 -1.1104 3.8148 16.786 6.64171
9075 2 2.2208 -0.232362 15.4084 2.36436
108 1 -1.1104 1.06709 14.0565 6.65148
117 1 -1.1104 1.08023 16.8432 6.48802
115 1 -1.1104 6.62922 13.8799 3.74236
124 1 -1.1104 3.98883 13.833 6.53699
302 1 -1.1104 1.14143 19.5249 6.52789
387 2 2.2208 11.0758 -1.4268 13.5434
163 1 -1.1104 9.61127 16.8951 6.56414
111 1 -1.1104 6.69392 13.889 6.58118
139 1 -1.1104 6.50971 19.5664 3.84012
138 1 -1.1104 6.79829 19.6193 1.03327
122 1 -1.1104 6.71862 16.7702 3.79379
110 1 -1.1104 6.86907 13.9747 0.930719
140 1 -1.1104 6.62828 16.74 0.913407
141 2 2.2208 10.8351 18.1694 5.27779
142 1 -1.1104 12.2777 13.9689 0.959456
144 1 -1.1104 12.2844 19.5555 0.893425
146 1 -1.1104 12.2156 14.0741 3.7838
147 1 -1.1104 12.3229 19.5991 3.75945
148 1 -1.1104 12.1183 16.8247 0.874475
150 2 2.2208 10.9428 15.3808 2.31178
151 2 2.2208 10.8758 21.0468 2.38534
152 1 -1.1104 12.3607 16.8065 3.74139
153 1 -1.1104 9.71307 14.0214 0.823211
155 1 -1.1104 9.5686 19.5356 1.02821
157 2 2.2208 8.06616 18.1218 2.33075
158 1 -1.1104 9.47682 13.8793 3.77123
159 1 -1.1104 9.28572 19.5793 3.82551
160 2 2.2208 7.98901 15.3101 5.0926
161 2 2.2208 8.12512 20.9849 5.24643
162 1 -1.1104 9.33946 16.7087 0.89638
164 1 -1.1104 9.51185 16.7408 3.7874
118 1 -1.1104 6.88163 16.7327 6.54713
143 1 -1.1104 12.4171 13.9624 6.53388
156 1 -1.1104 9.4061 19.5989 6.66967
112 1 -1.1104 6.65752 19.5624 6.69253
167 1 -1.1104 1.12828 2.79628 6.66313
172 1 -1.1104 3.9999 -2.84813 6.62371
202 2 2.2208 2.59447 -4.23532 7.97347
8984 2 2.2208 -0.320245 12.6642 10.629
9080 2 2.2208 -0.217823 -1.48309 7.96055
175 2 2.2208 5.41063 1.49061 10.7508
176 1 -1.1104 1.25754 -2.92607 12.0398
177 1 -1.1104 1.17724 2.83605 12.1318
180 1 -1.1104 1.21307 -2.94413 9.27072
181 1 -1.1104 0.953754 2.84825 9.38044
184 1 -1.1104 1.1015 -0.118275 12.0565
186 2 2.2208 5.31585 -1.34977 8.05757
187 2 2.2208 5.30372 4.09616 8.08239
188 1 -1.1104 1.10706 0.077769 9.38964
190 1 -1.1104 3.98887 -2.66125 12.1636
191 1 -1.1104 3.89809 2.82696 12.3494
192 2 2.2208 2.36821 1.48199 7.96972
193 1 -1.1104 3.96239 -2.7962 9.43913
194 1 -1.1104 3.81113 2.89642 9.52519
195 2 2.2208 2.63339 -1.3827 10.7437
197 1 -1.1104 4.20385 0.0173013 12.104
198 1 -1.1104 3.89681 0.0855113 9.32769
196 2 2.2208 2.50587 4.22121 10.817
9081 2 2.2208 -0.300317 1.35758 10.842
353 2 2.2208 5.38174 -1.36189 13.6815
309 2 2.2208 5.19969 21.0515 13.5884
168 1 -1.1104 6.7723 -2.8137 6.61672
178 1 -1.1104 6.87778 -2.75078 12.0796
203 2 2.2208 5.42578 -4.21003 10.786
83 1 -1.1104 9.56473 14.0665 12.1625
450 2 2.2208 10.9605 9.84475 13.5553
296 1 -1.1104 6.64981 19.6308 12.3248
232 2 2.2208 11.0355 -4.13566 10.8068
171 1 -1.1104 6.85749 0.0241761 6.57899
8991 2 2.2208 -0.241319 9.88213 8.10743
185 1 -1.1104 7.02105 0.00642037 12.165
189 1 -1.1104 6.79749 0.178778 9.4118
183 1 -1.1104 6.75438 2.77695 9.40854
179 1 -1.1104 6.64031 2.78212 12.3138
182 1 -1.1104 6.7231 -2.7912 9.40511
211 2 2.2208 10.9863 1.40864 10.7583
212 1 -1.1104 12.6401 -2.72539 12.2056
213 1 -1.1104 12.3812 2.76335 12.0514
214 1 -1.1104 12.3877 -2.75909 9.52889
215 1 -1.1104 12.4262 2.89016 9.3448
216 1 -1.1104 12.4903 -0.0735684 12.2458
217 2 2.2208 10.8974 -1.42578 7.98667
218 2 2.2208 10.9935 4.34503 8.00828
219 1 -1.1104 12.365 0.0233465 9.41682
220 1 -1.1104 9.76094 -2.78394 12.2318
221 1 -1.1104 9.64131 2.82523 12.1626
222 2 2.2208 8.1475 1.4695 7.94745
223 1 -1.1104 9.52554 -2.87203 9.33599
224 1 -1.1104 9.72376 2.84733 9.33763
225 2 2.2208 8.16827 -1.32811 10.8364
226 2 2.2208 8.17353 4.19901 10.9191
227 1 -1.1104 9.83612 -0.129983 12.0767
228 1 -1.1104 9.50972 -0.0954341 9.3908
9084 2 2.2208 -0.221758 20.9944 7.99384
53 2 2.2208 11.0213 15.4327 7.99652
49 1 -1.1104 12.3786 19.5699 9.41929
383 2 2.2208 8.21875 -4.11497 13.4829
234 1 -1.1104 1.33574 8.30467 6.56429
136 1 -1.1104 9.41188 19.6388 9.50379
8992 2 2.2208 -0.268987 7.06707 10.8259
289 1 -1.1104 6.72386 16.8169 9.48636
240 2 2.2208 5.277 7.03376 10.8779
241 2 2.2208 5.34355 12.5554 10.7162
242 1 -1.1104 1.10713 8.46615 12.1964
244 1 -1.1104 1.05716 8.42966 9.31917
246 1 -1.1104 1.1803 5.67219 12.1824
247 1 -1.1104 1.1155 11.4471 12.0801
250 2 2.2208 5.29302 9.81721 7.85764
251 1 -1.1104 1.17237 5.58857 9.32086
252 1 -1.1104 1.23223 11.3035 9.42438
255 1 -1.1104 4.0599 8.46052 12.1181
256 2 2.2208 2.5619 6.89728 7.94523
257 2 2.2208 2.45057 12.6642 7.83293
258 1 -1.1104 3.97409 8.38418 9.23685
259 2 2.2208 2.55737 9.8391 10.626
260 1 -1.1104 3.86041 5.54696 12.1688
261 1 -1.1104 3.79849 11.137 12.1925
262 1 -1.1104 4.04095 5.71906 9.36105
263 1 -1.1104 3.99744 11.2176 9.22817
248 1 -1.1104 6.70742 5.54711 12.1764
424 2 2.2208 2.43259 12.6644 13.5332
26 1 -1.1104 12.4206 14.3245 12.172
352 2 2.2208 2.48578 -4.21853 13.6074
101 1 -1.1104 9.5318 11.2936 6.51115
65 1 -1.1104 6.83734 11.1671 6.55184
253 1 -1.1104 6.70593 5.55413 9.41536
243 1 -1.1104 6.80604 8.29786 12.0456
245 1 -1.1104 6.70137 8.35597 9.30674
249 1 -1.1104 6.55268 11.2526 12.0909
254 1 -1.1104 6.73464 11.143 9.34768
267 1 -1.1104 9.56268 8.36733 6.61118
269 1 -1.1104 9.4916 5.64 6.49991
264 1 -1.1104 9.57793 11.2215 9.37864
268 1 -1.1104 9.61994 5.61734 9.39361
270 1 -1.1104 9.4738 11.2051 12.1789
271 1 -1.1104 9.55084 5.64843 12.1475
272 2 2.2208 8.09358 9.77394 10.7804
273 1 -1.1104 9.5708 8.46344 9.42651
274 2 2.2208 8.11162 12.5799 8.03372
275 2 2.2208 8.13073 6.97978 7.97397
276 2 2.2208 10.8797 6.99781 10.7675
277 2 2.2208 10.9468 12.581 10.7737
278 1 -1.1104 12.3633 8.37614 12.2047
279 1 -1.1104 12.3496 8.60322 9.38328
280 1 -1.1104 12.3028 5.67488 12.2346
281 1 -1.1104 12.2024 11.2855 12.1112
282 2 2.2208 10.9735 9.81893 7.95425
283 1 -1.1104 12.3247 5.7763 9.44622
284 1 -1.1104 12.4424 11.3209 9.3747
285 1 -1.1104 9.47541 8.40305 12.2718
297 1 -1.1104 6.72607 13.9846 12.1801
449 2 2.2208 8.12419 7.09899 13.5754
165 2 2.2208 7.85807 20.9854 10.8675
9061 2 2.2208 -0.399931 -1.41455 2.34315
388 2 2.2208 10.9077 4.25084 13.558
81 2 2.2208 10.8351 20.9927 7.92779
9083 2 2.2208 -0.342012 18.4026 10.775
201 2 2.2208 2.38881 15.4081 10.7785
204 2 2.2208 2.47177 20.9787 10.8617
229 1 -1.1104 3.8443 16.8449 12.2033
230 1 -1.1104 1.11108 16.8554 12.1761
286 1 -1.1104 3.79211 19.5587 12.3156
287 1 -1.1104 3.80822 14.0852 12.2025
291 1 -1.1104 1.07808 19.6114 9.45095
292 1 -1.1104 1.11785 16.8889 9.37274
293 2 2.2208 5.21262 21.017 8.02244
294 1 -1.1104 1.06282 13.9766 9.20334
295 2 2.2208 5.15852 15.4038 7.93205
298 1 -1.1104 0.955421 19.6926 12.2031
299 1 -1.1104 1.06289 14.1183 12.1165
300 2 2.2208 5.30299 18.1965 10.8458
301 1 -1.1104 3.82958 19.5924 9.4317
303 2 2.2208 2.47663 18.1107 7.88723
304 1 -1.1104 3.85571 16.8053 9.36823
305 1 -1.1104 3.79186 13.9191 9.45476
233 1 -1.1104 6.63604 16.9355 12.3145
9312 2 2.2208 -0.311716 15.53 13.5274
199 1 -1.1104 9.47436 16.8863 12.0823
137 2 2.2208 8.07892 15.4341 10.8087
30 1 -1.1104 12.4357 14.1536 9.41072
149 1 -1.1104 12.4129 16.7532 6.551
145 1 -1.1104 12.2238 19.7743 6.5823
154 1 -1.1104 9.54712 14.1488 6.59173
200 1 -1.1104 9.41928 16.8788 9.26142
82 1 -1.1104 12.2506 16.9379 9.27126
104 1 -1.1104 9.4656 19.7807 12.3186
25 2 2.2208 10.9039 18.267 10.8164
288 1 -1.1104 6.47808 19.6271 9.64156
135 1 -1.1104 9.54871 14.0248 9.44724
290 1 -1.1104 6.6197 14.0433 9.48488
105 2 2.2208 8.09824 18.1684 7.95655
27 1 -1.1104 12.325 19.8724 12.1108
451 2 2.2208 8.1704 12.7731 13.4253
9064 2 2.2208 -0.151215 1.37536 5.18529
311 2 2.2208 8.03038 18.2696 13.662
9074 2 2.2208 13.7179 6.94357 2.46759
8791 2 2.2208 13.7377 9.88358 5.24539
9067 2 2.2208 13.6305 1.53151 2.4276
310 2 2.2208 10.8496 21.099 13.4045
9481 2 2.2208 -0.295354 -4.13243 -0.43316
306 2 2.2208 10.7644 18.2649 -0.45034
631 2 2.2208 8.33171 9.82331 -0.432221
307 2 2.2208 8.16765 21.0668 -0.352658
540 2 2.2208 5.36442 1.45485 -0.311761
9488 2 2.2208 13.6416 -1.18823 -0.288193
312 2 2.2208 2.51546 21.0923 -0.383343
313 2 2.2208 5.4705 1.35406 16.4702
314 1 -1.1104 1.13508 -2.72506 17.8012
315 1 -1.1104 1.29688 2.93616 17.6651
318 1 -1.1104 1.11083 -2.77763 15.0699
320 1 -1.1104 1.32634 2.96587 15.023
326 1 -1.1104 1.18041 0.129923 17.8381
328 2 2.2208 5.44409 -1.44137 19.1345
330 1 -1.1104 1.11364 0.0410244 14.8778
334 1 -1.1104 4.02944 -2.73019 17.7283
335 1 -1.1104 4.08641 2.78722 17.8194
336 2 2.2208 2.58899 1.47445 19.1727
337 1 -1.1104 3.79861 -2.74978 14.9515
339 1 -1.1104 4.09874 2.70414 15.064
341 2 2.2208 2.5318 -1.22612 16.4518
342 2 2.2208 2.65277 4.32265 16.4158
343 1 -1.1104 3.96007 0.0707798 17.9301
344 1 -1.1104 4.01289 -0.0199712 15.0398
329 2 2.2208 5.33737 4.2786 19.2716
9474 2 2.2208 -0.107695 1.50925 16.3913
338 1 -1.1104 3.98819 -2.82909 20.5552
9475 2 2.2208 -0.193597 -1.37833 19.1694
319 1 -1.1104 1.27275 -2.83221 20.621
9167 2 2.2208 -0.20441 4.25329 19.2808
317 1 -1.1104 6.76991 2.80355 17.7927
327 1 -1.1104 6.85413 -0.0212984 17.7816
348 2 2.2208 2.64727 -4.16754 19.2514
345 1 -1.1104 3.909 -0.0122437 20.6246
340 1 -1.1104 3.81124 2.88057 20.614
9468 2 2.2208 -0.256991 -4.13421 16.4153
347 2 2.2208 5.39656 -4.1852 16.3309
382 2 2.2208 8.14209 -4.22583 19.1672
316 1 -1.1104 6.79638 -2.73474 17.7548
332 1 -1.1104 6.86859 0.00368646 14.9564
322 1 -1.1104 6.84035 -2.70778 14.8568
324 1 -1.1104 6.83828 2.93213 15.0466
356 2 2.2208 10.8965 1.44971 16.4483
357 1 -1.1104 12.4486 -2.81842 17.7505
358 1 -1.1104 12.2626 2.90232 17.7364
359 1 -1.1104 12.3368 -2.90741 14.8542
361 1 -1.1104 12.1731 2.80734 14.7876
363 1 -1.1104 12.2966 0.0671602 17.8409
364 2 2.2208 10.8747 -1.4506 19.2804
366 1 -1.1104 12.4095 -0.0943793 15.1803
368 1 -1.1104 9.52495 -2.87139 17.7033
369 1 -1.1104 9.47469 2.75872 17.7828
370 2 2.2208 8.19366 1.50308 19.2122
371 1 -1.1104 9.51081 -2.71745 14.9402
373 1 -1.1104 9.56579 2.88211 14.967
375 2 2.2208 8.19216 -1.39418 16.3401
377 1 -1.1104 9.58138 -0.0327144 17.8611
378 1 -1.1104 9.68234 -0.0311675 15.037
365 2 2.2208 10.9714 4.2383 19.3031
376 2 2.2208 8.13645 4.29327 16.454
379 1 -1.1104 9.40458 0.188763 20.6675
542 2 2.2208 2.58416 4.21461 27.602
381 2 2.2208 10.91 -4.20916 16.3245
9485 2 2.2208 -0.147909 1.34729 21.9293
323 1 -1.1104 6.83811 -2.72194 20.54
325 1 -1.1104 6.68455 2.85119 20.6057
360 1 -1.1104 12.316 -2.92702 20.4817
333 1 -1.1104 6.65975 0.0427689 20.5203
9239 2 2.2208 -0.246789 10.0344 19.1725
9240 2 2.2208 -0.332269 7.17309 16.416
389 2 2.2208 5.40237 7.23388 16.5018
390 2 2.2208 5.17678 12.6257 16.2859
391 1 -1.1104 1.00674 8.43407 17.7395
393 1 -1.1104 1.03481 8.5365 15.0057
397 1 -1.1104 1.23424 5.61739 17.8618
398 1 -1.1104 1.16681 11.1967 17.5253
401 2 2.2208 5.35159 9.80816 19.2251
402 1 -1.1104 1.11785 5.64766 15.1005
404 1 -1.1104 0.973688 11.4167 14.7964
410 1 -1.1104 3.91755 8.47402 17.9324
411 2 2.2208 2.41761 6.97162 19.2991
412 2 2.2208 2.66414 12.6335 19.0531
413 1 -1.1104 3.75569 8.56705 15.014
415 2 2.2208 2.41264 9.8309 16.335
416 1 -1.1104 4.05596 5.67096 17.9026
417 1 -1.1104 3.99271 11.1465 17.6635
418 1 -1.1104 3.92414 5.75678 15.0471
420 1 -1.1104 3.82088 11.3839 14.9237
403 1 -1.1104 1.10735 5.60756 20.6074
421 1 -1.1104 3.89734 11.2531 20.6591
9171 2 2.2208 -0.186667 4.2623 13.4996
419 1 -1.1104 3.99766 5.65507 20.5941
414 1 -1.1104 3.87212 8.44151 20.6484
9275 2 2.2208 -0.239352 15.5696 24.7974
405 1 -1.1104 1.19143 11.3304 20.4684
399 1 -1.1104 6.80137 5.67613 17.9196
395 1 -1.1104 6.69553 8.51617 14.985
406 1 -1.1104 6.84704 5.64678 15.105
408 1 -1.1104 6.83697 11.2537 14.851
392 1 -1.1104 6.76492 8.50882 17.8139
400 1 -1.1104 6.70105 11.4206 17.829
425 2 2.2208 11.0252 7.12708 16.3886
426 2 2.2208 10.8912 12.6007 16.3156
427 1 -1.1104 12.262 8.49164 17.9134
428 1 -1.1104 12.316 8.50674 15.0466
430 1 -1.1104 12.2756 5.68623 17.8311
431 1 -1.1104 12.1879 11.2177 17.6188
432 2 2.2208 10.9134 9.87442 19.2246
433 1 -1.1104 12.3513 5.64953 15.0315
435 1 -1.1104 12.366 11.2296 14.8762
437 1 -1.1104 9.53768 8.45516 17.7136
438 2 2.2208 8.08602 7.03167 19.185
439 2 2.2208 8.14548 12.6312 19.2345
440 1 -1.1104 9.65346 8.47809 14.9365
442 2 2.2208 8.23768 9.97713 16.3945
443 1 -1.1104 9.47724 5.53776 17.9806
444 1 -1.1104 9.42884 11.3854 17.7665
445 1 -1.1104 9.52684 5.72226 15.0194
447 1 -1.1104 9.5296 11.1937 14.9737
434 1 -1.1104 12.2517 5.5499 20.7034
396 1 -1.1104 6.64712 8.33055 20.6087
409 1 -1.1104 6.8716 11.1132 20.6104
429 1 -1.1104 12.5204 8.4653 20.6114
407 1 -1.1104 6.80612 5.60996 20.5696
436 1 -1.1104 12.3342 11.3076 20.4239
448 1 -1.1104 9.65569 11.2004 20.7209
9310 2 2.2208 -0.219056 15.4798 19.2831
541 2 2.2208 2.5684 -1.40484 27.6285
452 2 2.2208 5.27334 18.2596 16.398
453 1 -1.1104 1.1883 14.0241 17.782
454 1 -1.1104 1.1139 19.5914 17.872
457 1 -1.1104 1.13123 14.2092 14.9384
459 1 -1.1104 0.925353 19.6632 15.0422
465 1 -1.1104 1.02295 16.8756 17.9129
467 2 2.2208 5.4006 15.524 19.2447
468 2 2.2208 5.37605 21.0602 19.2887
469 1 -1.1104 1.15226 16.9701 15.1198
473 1 -1.1104 3.9965 14.0669 17.7541
474 1 -1.1104 4.07168 19.7728 17.8087
475 2 2.2208 2.44407 18.3124 19.228
476 1 -1.1104 3.94035 14.1252 15.0259
478 1 -1.1104 3.83285 19.7957 15.049
480 2 2.2208 2.50496 15.534 16.4607
481 2 2.2208 2.36818 21.0385 16.4284
482 1 -1.1104 3.77573 17.0543 17.6235
483 1 -1.1104 3.88224 16.8398 14.9955
477 1 -1.1104 3.8978 14.1136 20.5178
458 1 -1.1104 0.967118 13.9646 20.6424
460 1 -1.1104 1.02695 19.5847 20.5838
479 1 -1.1104 3.88593 19.5916 20.5537
470 1 -1.1104 1.16789 16.7565 20.623
545 2 2.2208 5.38007 -4.21369 27.5855
608 2 2.2208 8.16769 20.9179 22.0487
463 1 -1.1104 6.75365 19.6468 15.0653
471 1 -1.1104 6.66612 16.775 14.9811
455 1 -1.1104 6.69722 14.0602 17.8445
461 1 -1.1104 6.68735 14.0338 14.9859
456 1 -1.1104 6.83962 19.5859 17.9443
466 1 -1.1104 6.57219 16.9323 17.7611
488 2 2.2208 10.9409 18.201 16.3747
489 1 -1.1104 12.2719 14.0257 17.777
490 1 -1.1104 12.3335 19.7799 17.8507
491 1 -1.1104 12.2042 13.8649 14.8934
493 1 -1.1104 12.3049 19.3907 15.0646
495 1 -1.1104 12.2388 16.8706 17.6746
496 2 2.2208 10.7664 15.545 19.1923
497 2 2.2208 11.0398 21.1092 19.1405
498 1 -1.1104 12.4674 16.7045 14.9835
500 1 -1.1104 9.46741 14.0641 17.845
501 1 -1.1104 9.58739 19.696 17.6896
502 2 2.2208 8.14369 18.2537 19.3048
503 1 -1.1104 9.53522 13.9459 14.9995
505 1 -1.1104 9.55344 19.6257 14.8542
507 2 2.2208 7.99077 15.3745 16.3889
508 2 2.2208 8.1214 20.9987 16.4162
509 1 -1.1104 9.34603 16.8549 17.7891
510 1 -1.1104 9.54568 16.7473 14.9632
504 1 -1.1104 9.45657 14.0917 20.6017
472 1 -1.1104 6.86291 16.7013 20.5905
464 1 -1.1104 6.819 19.5599 20.7897
506 1 -1.1104 9.63853 19.6414 20.5198
511 1 -1.1104 9.4897 16.9365 20.6771
494 1 -1.1104 12.4587 19.5196 20.5747
492 1 -1.1104 12.1838 13.9767 20.5315
321 1 -1.1104 1.22375 2.80018 20.4673
331 1 -1.1104 1.20644 0.0393415 20.5887
9483 2 2.2208 -0.219245 1.46685 27.5493
547 2 2.2208 2.49701 -4.15288 24.7958
9482 2 2.2208 -0.227732 -4.25946 22.0727
606 2 2.2208 2.50892 9.76006 27.5315
546 2 2.2208 5.25181 -4.23518 21.9865
9205 2 2.2208 -0.28746 12.7586 16.2714
9096 2 2.2208 13.629 21.078 27.6167
516 2 2.2208 5.3386 1.36675 21.8669
517 1 -1.1104 1.11738 -2.79916 23.524
518 1 -1.1104 1.22258 2.8999 23.4528
521 1 -1.1104 1.165 -2.82384 26.4951
522 1 -1.1104 1.09736 2.81516 26.22
525 1 -1.1104 1.23425 -0.00692748 23.4239
527 2 2.2208 5.40731 -1.30255 24.8816
528 2 2.2208 5.44683 4.11646 24.7019
529 1 -1.1104 1.23565 -0.03391 26.193
531 1 -1.1104 3.83921 -2.87961 23.4806
532 1 -1.1104 3.92263 2.6993 23.3356
533 2 2.2208 2.67826 1.35083 24.8623
534 1 -1.1104 3.96292 -2.83781 26.3248
535 1 -1.1104 3.93725 2.97465 26.1724
536 2 2.2208 2.5198 -1.37123 22.103
537 2 2.2208 2.52726 4.313 22.0926
538 1 -1.1104 4.03345 -0.0228488 23.3951
539 1 -1.1104 3.98659 0.0567696 26.3164
570 2 2.2208 10.7675 1.4936 27.6674
611 2 2.2208 2.51816 15.5486 27.6164
9490 2 2.2208 13.6454 1.48791 24.9416
637 1 -1.1104 6.7339 13.902 26.2075
384 1 -1.1104 12.4286 19.7346 23.4733
571 2 2.2208 8.10243 -1.50185 27.7603
374 1 -1.1104 9.60388 2.88162 20.6057
372 1 -1.1104 9.48192 -2.70328 20.5388
367 1 -1.1104 12.3233 -0.106261 20.6098
362 1 -1.1104 12.3869 2.67743 20.6208
576 2 2.2208 8.1311 -4.21325 24.7045
526 1 -1.1104 6.75737 0.067683 23.3819
519 1 -1.1104 6.81808 -2.67612 23.3907
520 1 -1.1104 6.66355 2.75879 23.3466
523 1 -1.1104 6.87012 -2.9146 26.2375
524 1 -1.1104 6.66267 2.6024 26.1291
530 1 -1.1104 6.69362 -0.154952 26.2709
552 2 2.2208 10.9542 1.35185 21.8986
553 1 -1.1104 12.2932 -2.72216 23.432
554 1 -1.1104 12.1166 2.91524 23.489
555 1 -1.1104 12.2422 -2.61167 26.2867
556 1 -1.1104 12.216 2.85437 26.4491
557 1 -1.1104 12.2242 0.116934 23.4856
558 2 2.2208 10.9422 -1.33166 24.797
560 1 -1.1104 12.22 -0.00480696 26.2607
561 1 -1.1104 9.65372 -2.61603 23.2617
562 1 -1.1104 9.40234 2.88703 23.4426
563 2 2.2208 8.10436 1.3865 24.6891
564 1 -1.1104 9.49286 -2.77653 26.2161
565 1 -1.1104 9.46624 3.03571 26.2563
566 2 2.2208 8.05961 -1.24653 21.9821
568 1 -1.1104 9.56432 0.0317982 23.555
569 1 -1.1104 9.45364 0.208565 26.3403
559 2 2.2208 10.85 4.1942 24.8595
567 2 2.2208 8.1107 4.25835 22.0607
575 2 2.2208 10.8795 -4.22207 21.9813
578 1 -1.1104 9.55401 13.9687 26.1421
394 1 -1.1104 1.10935 8.55439 20.5659
346 2 2.2208 8.14417 15.3511 27.6216
9418 2 2.2208 -0.387099 6.96522 22.0028
607 2 2.2208 5.46463 12.5621 27.7018
581 2 2.2208 5.26922 7.15675 22.0872
582 2 2.2208 5.24396 12.6532 22.0357
583 1 -1.1104 1.00092 8.41725 23.355
585 1 -1.1104 1.12246 8.43293 26.0527
587 1 -1.1104 0.921028 5.81201 23.4439
588 1 -1.1104 0.921583 11.239 23.4204
591 2 2.2208 5.24673 9.90189 24.771
592 1 -1.1104 1.04684 5.64643 26.1922
593 1 -1.1104 1.1427 11.2781 26.2182
596 1 -1.1104 3.94006 8.47835 23.4664
597 2 2.2208 2.57974 7.02451 24.8355
598 2 2.2208 2.57014 12.6437 24.8533
599 1 -1.1104 4.07254 8.47305 26.1029
600 2 2.2208 2.45937 9.8677 22.0211
601 1 -1.1104 3.78582 5.61661 23.3291
602 1 -1.1104 3.80035 11.2188 23.5135
603 1 -1.1104 3.95233 5.67118 26.1748
604 1 -1.1104 3.97656 11.1947 26.2279
605 2 2.2208 5.39735 7.15588 27.619
579 1 -1.1104 9.64394 19.7158 26.1543
544 2 2.2208 11.0385 15.5349 24.7451
630 2 2.2208 10.9743 7.06077 27.5962
441 1 -1.1104 9.43226 8.42445 20.6567
632 2 2.2208 10.9358 12.6879 27.4875
586 1 -1.1104 6.83401 8.43891 26.3289
584 1 -1.1104 6.64587 8.59971 23.4858
446 1 -1.1104 9.58619 5.5816 20.5735
595 1 -1.1104 6.70574 11.1864 26.1571
589 1 -1.1104 6.63453 5.63987 23.3759
594 1 -1.1104 6.86309 5.60106 26.1423
590 1 -1.1104 6.75181 11.49 23.3182
612 1 -1.1104 9.65272 11.2211 26.2116
613 1 -1.1104 9.56458 5.72326 26.1831
614 1 -1.1104 9.38071 11.125 23.6279
615 1 -1.1104 9.3685 5.619 23.4917
616 2 2.2208 8.12817 9.85604 22.04
617 1 -1.1104 9.60478 8.51667 26.2163
618 2 2.2208 8.09151 12.5927 24.9273
619 2 2.2208 8.12349 7.02308 24.9175
620 2 2.2208 10.902 6.9875 22.0052
621 2 2.2208 10.915 12.7167 21.9704
622 1 -1.1104 12.4287 8.37167 23.3551
623 1 -1.1104 12.4644 8.43526 26.3095
624 1 -1.1104 12.2675 5.64811 23.4637
625 1 -1.1104 12.3921 11.1729 23.301
626 2 2.2208 10.9604 9.81559 24.7688
627 1 -1.1104 12.3187 5.61866 26.1913
628 1 -1.1104 12.2608 11.2067 26.1458
629 1 -1.1104 9.61935 8.2995 23.4193
573 2 2.2208 8.12147 18.2283 24.9012
486 1 -1.1104 6.75758 16.7904 23.433
484 1 -1.1104 3.92379 16.9931 20.5865
9271 2 2.2208 13.6259 21.0167 16.3654
9467 2 2.2208 -0.305469 18.1567 21.9309
9486 2 2.2208 -0.248128 4.24455 24.9109
9433 2 2.2208 -0.248249 20.9563 24.7374
349 2 2.2208 2.47748 21.0575 21.9334
350 1 -1.1104 3.94182 16.8554 23.335
485 1 -1.1104 1.20188 16.9121 23.4112
512 1 -1.1104 3.84745 14.1185 26.2675
514 1 -1.1104 3.87311 16.997 26.1686
634 2 2.2208 2.53538 18.2667 24.7981
635 2 2.2208 2.45518 15.3952 22.0197
636 1 -1.1104 3.87811 19.6267 23.481
638 1 -1.1104 3.842 14.0261 23.3844
640 1 -1.1104 1.0875 19.6152 26.1714
641 1 -1.1104 1.16841 16.9115 26.1843
642 1 -1.1104 1.25918 14.0628 26.1824
644 2 2.2208 5.41026 21.0943 24.7716
645 2 2.2208 5.21614 15.466 24.8382
647 1 -1.1104 1.07409 19.6366 23.3859
648 1 -1.1104 1.055 14.0433 23.5333
649 2 2.2208 5.27729 18.2615 22.1164
650 1 -1.1104 3.93304 19.7897 26.0928
515 1 -1.1104 12.3497 19.9839 25.9869
574 2 2.2208 10.851 -4.17465 27.6739
577 1 -1.1104 6.75218 19.7044 26.2627
643 1 -1.1104 6.7296 19.7195 23.5338
462 1 -1.1104 6.59349 13.9794 20.5827
639 1 -1.1104 6.61478 16.8865 26.1223
646 1 -1.1104 6.57389 14.0989 23.4676
609 1 -1.1104 9.56588 16.6733 23.5173
550 1 -1.1104 9.44217 13.9456 23.4389
551 1 -1.1104 9.47114 19.4517 23.322
610 1 -1.1104 9.38589 16.7061 26.2891
499 1 -1.1104 12.2409 16.7436 20.4742
543 1 -1.1104 12.4082 16.8217 23.5011
380 1 -1.1104 12.393 14.0235 23.2357
351 2 2.2208 11.0682 18.1861 22.0218
549 1 -1.1104 12.2955 16.9019 26.3218
385 1 -1.1104 12.3388 14.0089 26.0983
548 2 2.2208 11.0075 21.2259 24.7611
580 2 2.2208 8.10235 15.4578 22.1168
9124 2 2.2208 13.6988 4.23707 16.4593
9478 2 2.2208 13.6864 -1.36615 16.3979
9492 2 2.2208 -0.18693 12.6623 27.5669
9268 2 2.2208 13.6042 15.2844 16.3086
572 2 2.2208 8.1165 4.21238 27.5916
633 2 2.2208 5.32561 18.2417 27.5989
386 2 2.2208 8.22956 1.40827 13.6619
422 2 2.2208 2.44404 7.05582 13.6581
355 2 2.2208 5.2616 4.22574 13.685
9313 2 2.2208 -0.275956 18.3368 27.5873
651 2 2.2208 5.53047 23.8244 5.10684
652 2 2.2208 5.32046 29.5033 5.31583
653 1 -1.1104 1.213 25.0957 1.13595
654 1 -1.1104 1.13002 25.1395 3.9203
655 1 -1.1104 1.07751 22.4142 1.13356
656 1 -1.1104 1.15604 27.8091 1.13653
657 2 2.2208 5.35308 26.6773 2.50049
658 1 -1.1104 1.24991 22.2653 3.83
659 1 -1.1104 1.18917 27.9606 4.00165
660 1 -1.1104 3.99498 25.034 1.02582
661 2 2.2208 2.64419 23.6451 2.4433
662 2 2.2208 2.37293 29.4962 2.41814
663 1 -1.1104 4.02353 24.9403 3.85023
664 2 2.2208 2.41117 26.5915 5.2684
665 1 -1.1104 3.93463 22.3058 0.975766
666 1 -1.1104 3.98196 28.0084 1.03156
667 1 -1.1104 3.99232 22.2508 3.77591
668 1 -1.1104 4.04518 27.8564 3.9396
794 1 -1.1104 1.19546 22.3389 6.7408
9818 2 2.2208 -0.232421 43.4761 2.5896
9814 2 2.2208 -0.198876 37.8396 2.31443
799 1 -1.1104 3.93358 22.3903 6.5064
798 1 -1.1104 3.78063 25.3423 6.72052
9819 2 2.2208 -0.230199 46.3889 5.37972
795 1 -1.1104 1.14078 28.0797 6.68309
800 1 -1.1104 3.97459 28.1448 6.72054
942 1 -1.1104 9.56504 41.9818 9.3817
797 1 -1.1104 6.83113 28.127 6.67753
677 1 -1.1104 6.69281 28.1533 3.89648
675 1 -1.1104 6.67356 28.0393 0.934161
673 1 -1.1104 6.82491 25.2108 3.87654
676 1 -1.1104 6.82336 22.4722 3.84269
674 1 -1.1104 6.67581 22.5739 1.06348
793 1 -1.1104 6.8653 25.2478 6.68397
672 1 -1.1104 6.67948 25.3546 1.10924
678 2 2.2208 10.9588 23.8371 5.26204
679 2 2.2208 10.9306 29.5169 5.23309
680 1 -1.1104 12.2444 25.1852 0.920715
681 1 -1.1104 12.3511 24.9375 3.7761
682 1 -1.1104 12.347 22.5393 0.830138
683 1 -1.1104 12.2601 27.9992 1.0671
684 2 2.2208 11.0328 26.5371 2.412
685 1 -1.1104 12.4059 22.2075 3.70941
686 1 -1.1104 12.2602 28.1118 3.75257
687 1 -1.1104 9.40136 25.3364 1.00088
688 2 2.2208 8.08064 23.9743 2.32871
689 2 2.2208 8.10811 29.4284 2.46218
690 1 -1.1104 9.56404 25.3479 3.84732
691 2 2.2208 8.33018 26.6652 5.32909
692 1 -1.1104 9.49921 22.4254 0.949499
693 1 -1.1104 9.37585 28.1376 1.03968
694 1 -1.1104 9.5077 22.4863 3.65681
695 1 -1.1104 9.54944 28.1868 3.86516
828 1 -1.1104 9.58516 25.1639 6.55609
830 1 -1.1104 9.58956 28.0957 6.73546
826 1 -1.1104 12.4742 22.5917 6.51861
829 1 -1.1104 9.56515 22.3324 6.45848
796 1 -1.1104 6.78441 22.5524 6.62228
827 1 -1.1104 12.2142 28.0501 6.53279
9807 2 2.2208 -0.289661 29.5255 5.32751
1518 1 -1.1104 12.5075 47.6392 12.1305
9815 2 2.2208 -0.234725 32.2612 2.30502
699 2 2.2208 5.39052 35.0726 5.16622
700 1 -1.1104 1.15776 30.8764 0.967508
701 1 -1.1104 1.1378 36.5273 0.951101
703 1 -1.1104 1.09588 30.7931 3.82218
704 1 -1.1104 1.1951 36.4114 3.86495
706 1 -1.1104 1.12874 33.6152 0.982248
707 2 2.2208 5.36363 32.2493 2.50631
708 2 2.2208 5.32848 37.8757 2.3902
709 1 -1.1104 1.19281 33.6383 3.74261
711 1 -1.1104 3.95152 30.9761 1.08787
712 1 -1.1104 3.84672 36.5344 1.11876
713 2 2.2208 2.57046 34.9916 2.47001
714 1 -1.1104 3.87854 30.7266 3.79681
715 1 -1.1104 3.90054 36.482 3.94078
716 2 2.2208 2.53741 32.202 5.25059
717 2 2.2208 2.49268 37.9643 5.08783
718 1 -1.1104 3.86897 33.7314 1.07418
719 1 -1.1104 4.00955 33.5308 3.91434
911 1 -1.1104 6.83176 44.8636 9.36039
856 1 -1.1104 3.97689 36.5258 6.59154
710 1 -1.1104 6.75492 33.7185 3.93483
849 1 -1.1104 1.146 30.8841 6.47854
850 1 -1.1104 1.20509 36.4899 6.64995
853 1 -1.1104 1.0288 33.7684 6.55644
855 1 -1.1104 3.8396 31.0335 6.71096
852 1 -1.1104 6.76371 36.4922 6.53831
705 1 -1.1104 6.75851 36.4308 3.84967
723 1 -1.1104 6.71977 30.9618 1.16042
725 1 -1.1104 6.57115 33.7356 1.11024
724 1 -1.1104 6.81926 30.8611 4.03025
702 1 -1.1104 6.68185 36.498 1.06525
726 2 2.2208 10.9297 35.1507 5.13004