ITEM: TIMESTEP
90000
ITEM: NUMBER OF ATOMS
17910
ITEM: BOX BOUNDS pp pp pp
-3.5196885818546381e-01 2.7691968858185877e+01
-4.3183217515987122e+00 3.3239832175160245e+02
-3.5355151380539340e-01 2.7693551513805161e+01
ITEM: ATOMS id type q x y z
1 2 2.2208 5.0752 1.22118 5.37577
2 1 -1.1104 0.819785 -2.87868 0.899319
3 1 -1.1104 0.821272 2.47359 1.06017
6 1 -1.1104 0.895318 -2.85675 3.71998
7 1 -1.1104 1.0518 2.72444 3.95698
10 1 -1.1104 0.914248 -0.220817 1.04424
12 2 2.2208 5.1054 -1.52603 2.47747
14 1 -1.1104 0.936789 -0.102779 3.81538
16 1 -1.1104 3.58787 -2.8349 1.0724
17 1 -1.1104 3.64828 2.61674 0.956318
18 2 2.2208 2.35469 1.25389 2.52718
19 1 -1.1104 3.66926 -3.02343 3.84587
20 1 -1.1104 3.7066 2.81088 3.94322
21 2 2.2208 2.28538 -1.55549 5.24746
23 1 -1.1104 3.70127 -0.0953349 1.17156
24 1 -1.1104 3.70383 -0.114207 3.90544
13 2 2.2208 5.20128 4.08819 2.58521
22 2 2.2208 2.23601 4.14604 5.40677
166 1 -1.1104 0.753197 -2.8081 6.60943
8 1 -1.1104 6.56434 -2.80527 3.87969
15 1 -1.1104 6.377 -0.0604277 3.90612
5 1 -1.1104 6.56678 2.6524 1.05988
9 1 -1.1104 6.54543 2.73091 3.8205
29 2 2.2208 5.09412 -4.28436 5.2216
9097 2 2.2208 13.5156 18.1518 13.605
173 1 -1.1104 3.69106 2.71966 6.76081
11 1 -1.1104 6.49734 -0.140367 1.00003
4 1 -1.1104 6.36685 -2.9606 1.10649
9063 2 2.2208 13.5386 18.0872 8.02142
171 1 -1.1104 6.57364 -0.0607788 6.62979
167 1 -1.1104 0.816317 2.65997 6.63833
172 1 -1.1104 3.72285 -2.87686 6.70682
168 1 -1.1104 6.63067 -2.80558 6.63134
545 2 2.2208 5.02182 -4.32293 -0.339938
50 1 -1.1104 12.1323 16.7646 12.2945
26 1 -1.1104 12.0619 13.8275 12.2749
31 2 2.2208 10.6219 1.41119 5.24018
32 1 -1.1104 12.0591 -2.9234 1.14901
33 1 -1.1104 12.0548 2.8694 0.958782
34 1 -1.1104 12.179 -2.81465 3.83173
35 1 -1.1104 12.2134 2.89098 3.83868
36 1 -1.1104 12.1838 -0.112468 1.12814
37 2 2.2208 10.6661 -1.53664 2.42104
39 1 -1.1104 12.1432 0.049997 3.8619
40 1 -1.1104 9.13758 -2.88673 1.13836
41 1 -1.1104 9.27064 2.67991 0.996744
42 2 2.2208 7.87245 1.30807 2.44488
43 1 -1.1104 9.36198 -2.81674 3.772
44 1 -1.1104 9.33137 2.68547 3.93894
45 2 2.2208 7.96436 -1.4437 5.32253
47 1 -1.1104 9.39895 -0.100069 1.03536
48 1 -1.1104 9.25226 -0.0114267 3.88377
46 2 2.2208 7.84625 4.18746 5.30486
38 2 2.2208 10.6352 4.21195 2.439
52 2 2.2208 10.8326 -4.32955 5.40932
9067 2 2.2208 13.497 1.33716 2.44729
9068 2 2.2208 13.6576 -1.55255 5.39355
206 1 -1.1104 12.0057 2.73083 6.53417
208 1 -1.1104 9.30744 -2.73238 6.62231
207 1 -1.1104 12.1244 -0.0241545 6.59667
210 1 -1.1104 9.32295 0.0474275 6.80469
200 1 -1.1104 9.14364 16.7762 9.43027
136 1 -1.1104 9.23272 19.6448 9.47321
49 1 -1.1104 12.0536 19.4608 9.3417
54 2 2.2208 5.14213 6.91017 5.21701
55 2 2.2208 5.09643 12.6128 5.28532
56 1 -1.1104 0.698216 8.20113 1.07252
58 1 -1.1104 0.796748 8.35625 3.7645
60 1 -1.1104 0.951427 5.29303 0.947973
61 1 -1.1104 0.802212 11.177 1.06139
66 2 2.2208 5.01895 9.79732 2.40721
67 1 -1.1104 0.940417 5.51722 3.90882
68 1 -1.1104 0.925864 11.1564 4.23752
71 1 -1.1104 3.48471 8.12722 0.997346
72 2 2.2208 2.17694 6.88644 2.57484
73 2 2.2208 2.11359 12.541 2.55932
74 1 -1.1104 3.60409 8.44969 3.94799
75 2 2.2208 2.33759 9.67264 5.43079
76 1 -1.1104 3.55612 5.50393 1.13537
77 1 -1.1104 3.53524 11.0895 1.10936
79 1 -1.1104 3.68254 5.65736 3.98742
80 1 -1.1104 3.63661 11.1385 3.86581
63 1 -1.1104 6.50633 5.5322 1.0769
69 1 -1.1104 6.61225 5.41707 3.76445
235 1 -1.1104 6.48442 8.43554 6.50498
57 1 -1.1104 6.17069 8.40257 0.910543
64 1 -1.1104 6.37296 11.1679 0.999948
59 1 -1.1104 6.40601 8.35191 3.67639
70 1 -1.1104 6.47638 11.1141 3.71781
238 1 -1.1104 3.61014 8.32354 6.77052
234 1 -1.1104 0.936764 8.32247 6.71322
239 1 -1.1104 3.6998 5.49445 6.74312
237 1 -1.1104 6.43224 5.78685 6.66794
78 1 -1.1104 3.66536 11.1982 6.69157
62 1 -1.1104 0.950538 11.0886 7.04015
8762 2 2.2208 13.4811 4.11928 5.28101
8791 2 2.2208 13.4914 9.63133 5.24041
9073 2 2.2208 13.5143 12.54 2.53826
84 2 2.2208 10.6464 7.0132 5.27261
85 2 2.2208 10.7724 12.6111 5.32252
86 1 -1.1104 11.9742 8.38286 1.01599
87 1 -1.1104 12.1341 8.32494 3.78071
88 1 -1.1104 12.0557 5.54285 0.931414
89 1 -1.1104 11.9493 11.2188 1.14374
91 2 2.2208 10.67 9.7503 2.47225
92 1 -1.1104 11.9629 5.6812 3.80559
93 1 -1.1104 12.0561 11.2098 3.91582
94 1 -1.1104 9.09202 8.44282 0.944387
95 2 2.2208 7.82452 6.99115 2.50781
96 2 2.2208 7.86964 12.5633 2.37693
97 1 -1.1104 9.22407 8.2727 3.79671
98 2 2.2208 7.87677 9.81807 5.25328
99 1 -1.1104 9.20667 5.58733 1.19687
100 1 -1.1104 9.17324 11.174 0.943241
102 1 -1.1104 9.34384 5.47715 4.02745
103 1 -1.1104 9.31082 11.1562 3.81666
267 1 -1.1104 9.25371 8.42108 6.7308
90 1 -1.1104 12.1136 11.0211 6.66689
9074 2 2.2208 13.4278 6.94738 2.36963
269 1 -1.1104 9.13937 5.64608 6.78149
266 1 -1.1104 12.055 5.67985 6.67089
82 1 -1.1104 12.1718 16.7502 9.48148
25 2 2.2208 10.6867 18.2033 10.9699
106 2 2.2208 4.91588 18.2102 5.34257
107 1 -1.1104 0.872291 13.8453 1.10845
109 1 -1.1104 0.732796 19.521 1.05114
113 1 -1.1104 0.735756 14.107 3.8126
114 1 -1.1104 0.862278 19.7091 3.90887
116 1 -1.1104 0.958984 16.704 1.26108
119 2 2.2208 4.99755 15.3272 2.51263
120 2 2.2208 4.99862 21.0408 2.32089
121 1 -1.1104 1.08399 16.8967 4.00245
123 1 -1.1104 3.56422 13.8331 1.17337
125 1 -1.1104 3.68075 19.6624 1.02593
127 2 2.2208 2.3775 18.2193 2.44415
128 1 -1.1104 3.54438 14.0014 4.00661
129 1 -1.1104 3.5932 19.675 3.96381
130 2 2.2208 2.29558 15.4863 5.27413
131 2 2.2208 2.26968 21.0324 5.38605
132 1 -1.1104 3.70777 16.72 1.06058
134 1 -1.1104 3.83517 16.9232 3.84752
117 1 -1.1104 0.802131 16.866 6.70966
115 1 -1.1104 6.3578 14.013 3.93524
140 1 -1.1104 6.47661 16.7424 1.03344
110 1 -1.1104 6.38241 13.8652 1.09979
124 1 -1.1104 3.87711 13.9246 6.96487
126 1 -1.1104 3.75881 19.5488 6.84534
108 1 -1.1104 0.926724 13.9628 6.68584
112 1 -1.1104 6.57375 19.718 6.66548
139 1 -1.1104 6.44564 19.519 3.91813
138 1 -1.1104 6.33919 19.5942 1.09374
111 1 -1.1104 6.55708 13.8253 6.67598
118 1 -1.1104 6.40592 16.8451 6.62447
133 1 -1.1104 3.61582 16.8785 6.67444
302 1 -1.1104 0.775665 19.6131 6.56272
8839 2 2.2208 13.4685 20.912 5.12815
9078 2 2.2208 13.4347 18.1751 2.52573
122 1 -1.1104 6.67571 16.6559 3.85554
141 2 2.2208 10.626 18.2637 5.30326
142 1 -1.1104 12.0577 14.1023 1.08592
144 1 -1.1104 12.0238 19.4999 1.13756
146 1 -1.1104 12.0399 14.0485 3.83538
147 1 -1.1104 12.1552 19.4751 3.8504
148 1 -1.1104 12.0386 16.8142 1.18174
150 2 2.2208 10.6074 15.4072 2.46839
151 2 2.2208 10.5899 20.9641 2.46583
152 1 -1.1104 12.1109 16.7709 3.87582
153 1 -1.1104 9.23034 13.9566 1.05126
155 1 -1.1104 9.17536 19.6573 1.11046
157 2 2.2208 7.78857 18.1381 2.45272
158 1 -1.1104 9.10064 13.883 3.95549
159 1 -1.1104 9.13779 19.5699 4.01242
160 2 2.2208 7.84516 15.3533 5.27471
161 2 2.2208 7.76319 20.9373 5.28784
162 1 -1.1104 9.24129 16.7961 1.0421
164 1 -1.1104 9.29516 16.7477 3.83276
149 1 -1.1104 12.0909 16.6173 6.63836
163 1 -1.1104 9.34636 16.805 6.68584
154 1 -1.1104 9.30365 14.0072 6.72574
8860 2 2.2208 13.519 15.4572 5.28673
143 1 -1.1104 12.1277 13.9157 6.6651
9096 2 2.2208 13.5296 20.9533 -0.376367
53 2 2.2208 10.6425 15.3941 8.03769
174 1 -1.1104 3.60618 -0.180435 6.63912
170 1 -1.1104 0.831498 -0.137247 6.67581
202 2 2.2208 2.39166 -4.20983 8.09852
203 2 2.2208 5.11977 -4.2178 10.8336
175 2 2.2208 4.99974 1.27605 10.8217
176 1 -1.1104 0.998813 -2.91047 12.2987
177 1 -1.1104 0.881925 2.87963 12.2325
180 1 -1.1104 1.03241 -2.88784 9.49298
181 1 -1.1104 0.901501 2.80552 9.52513
184 1 -1.1104 0.993426 0.109047 12.239
186 2 2.2208 5.22825 -1.51324 7.97063
188 1 -1.1104 0.742624 -0.00482988 9.46339
190 1 -1.1104 3.73006 -2.97223 12.4056
191 1 -1.1104 3.73692 2.67827 12.2145
192 2 2.2208 2.23473 1.22366 8.03567
193 1 -1.1104 3.81303 -2.80963 9.46573
194 1 -1.1104 3.53498 2.61583 9.41719
195 2 2.2208 2.36961 -1.52584 10.9432
197 1 -1.1104 3.75698 -0.229821 12.2697
198 1 -1.1104 3.71369 0.0165394 9.3961
187 2 2.2208 5.02907 4.10531 8.10224
196 2 2.2208 2.3021 4.07632 10.9067
179 1 -1.1104 6.53882 2.63602 12.1267
178 1 -1.1104 6.33963 -2.92761 12.2375
169 1 -1.1104 6.39352 2.86588 6.66934
182 1 -1.1104 6.47175 -2.89317 9.39135
185 1 -1.1104 6.40541 -0.0329843 12.3237
189 1 -1.1104 6.37557 -0.0798805 9.54317
183 1 -1.1104 6.47816 2.68622 9.38004
30 1 -1.1104 11.9204 13.927 9.43472
9087 2 2.2208 13.5322 -1.33747 10.819
231 2 2.2208 8.02523 -4.12425 8.07687
9088 2 2.2208 13.4641 -4.10969 8.25123
232 2 2.2208 10.5744 -4.10985 10.9131
209 1 -1.1104 9.22386 2.8951 6.69478
205 1 -1.1104 12.0791 -2.79355 6.76912
211 2 2.2208 10.6807 1.41216 11.035
212 1 -1.1104 12.0749 -2.81627 12.3253
213 1 -1.1104 12.1163 2.76516 12.3765
214 1 -1.1104 12.0895 -2.83078 9.62687
215 1 -1.1104 12.005 2.67673 9.4572
216 1 -1.1104 12.0347 -0.0852012 12.2546
217 2 2.2208 10.7454 -1.36476 8.15699
219 1 -1.1104 12.2318 0.075222 9.403
220 1 -1.1104 9.19117 -2.76476 12.3177
221 1 -1.1104 9.33909 2.73313 12.2663
222 2 2.2208 7.86471 1.40143 8.06285
223 1 -1.1104 9.32357 -2.778 9.52602
224 1 -1.1104 9.21384 2.72431 9.34149
225 2 2.2208 7.84131 -1.51216 10.9975
227 1 -1.1104 9.24126 -0.0248864 12.4056
228 1 -1.1104 9.43197 -0.101224 9.60615
218 2 2.2208 10.6642 4.14663 8.04666
226 2 2.2208 7.82016 4.13461 10.7788
9128 2 2.2208 13.5079 1.43998 13.6561
9086 2 2.2208 13.4885 1.44167 7.98958
83 1 -1.1104 9.18373 13.9855 12.2443
386 2 2.2208 7.85284 1.26766 13.6938
383 2 2.2208 7.87165 -4.30731 13.8037
236 1 -1.1104 0.662831 5.61373 6.72545
65 1 -1.1104 6.51784 11.2052 6.52069
240 2 2.2208 5.05686 6.97176 10.8567
241 2 2.2208 4.98533 12.4914 11.0429
242 1 -1.1104 1.05346 8.38576 12.4937
244 1 -1.1104 0.941074 8.35687 9.5081
246 1 -1.1104 0.854182 5.43789 12.2467
247 1 -1.1104 0.684628 11.1966 12.3282
250 2 2.2208 5.03769 9.75605 7.89287
251 1 -1.1104 0.885281 5.54877 9.30562
252 1 -1.1104 0.95121 11.1594 9.78899
255 1 -1.1104 3.83287 8.4624 12.2547
256 2 2.2208 2.25132 6.88583 8.11382
257 2 2.2208 2.27835 12.5367 8.22153
258 1 -1.1104 3.59369 8.34717 9.49084
259 2 2.2208 2.25593 9.79742 10.9467
260 1 -1.1104 3.70576 5.50459 12.3335
261 1 -1.1104 3.67609 11.2663 12.4364
262 1 -1.1104 3.68978 5.36692 9.51951
263 1 -1.1104 3.86785 11.1662 9.47838
243 1 -1.1104 6.64104 8.33954 12.3336
249 1 -1.1104 6.31571 11.1503 12.3447
245 1 -1.1104 6.26274 8.30619 9.37706
248 1 -1.1104 6.43983 5.38986 12.3091
254 1 -1.1104 6.67887 11.1907 9.34036
253 1 -1.1104 6.52521 5.55339 9.58091
423 2 2.2208 5.20993 9.81108 13.6819
422 2 2.2208 2.31295 6.78576 13.6356
424 2 2.2208 2.12848 12.5673 13.7227
8974 2 2.2208 13.4689 12.4441 7.93995
449 2 2.2208 7.87198 6.95055 13.7019
8973 2 2.2208 13.4652 6.8964 8.14295
8897 2 2.2208 13.4157 4.07013 10.8056
8978 2 2.2208 13.4806 9.70257 10.8276
101 1 -1.1104 9.2656 11.1654 6.63648
265 1 -1.1104 12.0652 8.42646 6.56223
264 1 -1.1104 9.54114 11.1645 9.42421
268 1 -1.1104 9.22238 5.47414 9.47694
270 1 -1.1104 9.11334 11.1495 12.3479
271 1 -1.1104 9.39351 5.5726 12.2699
272 2 2.2208 7.9016 9.78795 10.8349
273 1 -1.1104 9.11851 8.3136 9.48192
274 2 2.2208 7.87599 12.5845 8.04706
275 2 2.2208 7.84654 7.06079 8.0056
276 2 2.2208 10.6258 6.93657 10.7874
277 2 2.2208 10.6951 12.5358 10.9227
278 1 -1.1104 12.0565 8.35424 12.2711
279 1 -1.1104 12.1032 8.23974 9.5217
280 1 -1.1104 12.1139 5.55068 12.3458
281 1 -1.1104 12.0137 11.0914 12.3009
282 2 2.2208 10.7775 9.65217 8.11082
283 1 -1.1104 12.0166 5.4729 9.53501
284 1 -1.1104 12.2405 11.0378 9.41161
285 1 -1.1104 9.26219 8.4115 12.1278
451 2 2.2208 7.99512 12.6162 13.7927
9202 2 2.2208 13.5076 12.472 13.6743
388 2 2.2208 10.7403 4.1583 13.6721
450 2 2.2208 10.7793 9.72902 13.7289
290 1 -1.1104 6.16333 13.9346 9.56679
297 1 -1.1104 6.51435 14.0393 12.3497
201 2 2.2208 2.22079 15.3549 10.9462
204 2 2.2208 2.09828 20.9204 10.772
229 1 -1.1104 3.61013 16.6599 12.4049
230 1 -1.1104 0.545885 16.762 12.1709
286 1 -1.1104 3.60556 19.628 12.2406
287 1 -1.1104 3.70128 13.9525 12.3114
291 1 -1.1104 0.758726 19.5752 9.38726
292 1 -1.1104 0.808741 16.7875 9.4481
293 2 2.2208 5.02738 21.0627 8.10258
294 1 -1.1104 0.80782 13.9507 9.43848
295 2 2.2208 4.89043 15.4395 8.25252
298 1 -1.1104 0.921824 19.5074 12.3035
299 1 -1.1104 0.79081 13.9574 12.2511
300 2 2.2208 5.04018 18.1499 10.9788
301 1 -1.1104 3.60548 19.4178 9.48654
303 2 2.2208 2.2784 18.1756 8.06086
304 1 -1.1104 3.59188 16.8216 9.58101
305 1 -1.1104 3.47863 14.0626 9.69721
289 1 -1.1104 6.29466 16.7355 9.35322
296 1 -1.1104 6.47263 19.6938 12.3328
233 1 -1.1104 6.44538 16.8398 12.2361
288 1 -1.1104 6.53272 19.4586 9.57633
9062 2 2.2208 13.5222 15.4092 10.7366
308 2 2.2208 2.14452 18.1084 13.6662
487 2 2.2208 5.01541 15.2436 13.7866
9024 2 2.2208 13.5966 21.0125 10.8986
137 2 2.2208 7.84929 15.3631 10.7394
199 1 -1.1104 9.31842 16.832 12.256
156 1 -1.1104 9.30695 19.5597 6.71308
145 1 -1.1104 12.1085 19.5288 6.57881
81 2 2.2208 10.6704 20.9778 8.0187
105 2 2.2208 7.85797 18.178 7.89071
104 1 -1.1104 9.23161 19.6975 12.2483
165 2 2.2208 7.94777 20.9629 10.8902
27 1 -1.1104 12.2266 19.6592 12.3418
135 1 -1.1104 9.26766 13.9708 9.40873
352 2 2.2208 2.38946 -4.38783 13.6861
354 2 2.2208 2.3575 1.40803 13.7068
353 2 2.2208 5.085 -1.60069 13.7277
355 2 2.2208 5.07368 4.0523 13.6427
9197 2 2.2208 13.5463 6.8847 13.7789
513 2 2.2208 10.7928 15.3896 13.5302
540 2 2.2208 5.2125 1.24176 -0.237711
632 2 2.2208 10.6323 12.6383 -0.381062
9269 2 2.2208 13.5346 9.80966 -0.377645
313 2 2.2208 5.14823 1.45975 16.5709
314 1 -1.1104 0.717194 -2.9378 17.8128
315 1 -1.1104 0.956502 2.87806 17.9496
318 1 -1.1104 0.886913 -3.02207 15.0148
320 1 -1.1104 0.972584 2.79488 15.1449
326 1 -1.1104 0.758589 0.0652048 17.9802
328 2 2.2208 5.03895 -1.43001 19.3478
330 1 -1.1104 1.00426 -0.117064 15.1363
334 1 -1.1104 3.62615 -2.89912 18.0787
335 1 -1.1104 3.68323 2.66888 17.9301
336 2 2.2208 2.23958 1.42541 19.2695
337 1 -1.1104 3.66645 -2.91022 15.1696
339 1 -1.1104 3.74935 2.71286 15.1323
341 2 2.2208 2.38237 -1.52495 16.5803
343 1 -1.1104 3.7436 -0.117932 17.7814
344 1 -1.1104 3.73852 -0.115436 15.0001
345 1 -1.1104 3.78602 0.0626776 20.5735
324 1 -1.1104 6.51974 2.65153 15.0456
321 1 -1.1104 0.829987 2.81032 20.735
317 1 -1.1104 6.50775 2.7365 17.9036
316 1 -1.1104 6.53999 -2.87049 17.8523
332 1 -1.1104 6.50821 -0.213682 15.1998
322 1 -1.1104 6.50196 -2.87524 15.0039
348 2 2.2208 2.44582 -4.42447 19.3451
338 1 -1.1104 3.60283 -2.82504 20.7384
327 1 -1.1104 6.45798 -0.0850346 17.9657
319 1 -1.1104 0.91677 -2.76089 20.7113
325 1 -1.1104 6.51352 2.79367 20.6502
307 2 2.2208 7.67793 21.0268 27.6362
340 1 -1.1104 3.51131 2.7252 20.6543
331 1 -1.1104 0.954 -0.0809155 20.69
323 1 -1.1104 6.45327 -2.95331 20.6271
333 1 -1.1104 6.45261 -0.103856 20.9114
546 2 2.2208 5.02363 -4.20241 22.1819
492 1 -1.1104 12.2123 13.9676 20.4946
385 1 -1.1104 11.9597 13.9841 26.2608
351 2 2.2208 10.5877 18.2218 22.0984
356 2 2.2208 10.6739 1.28777 16.4581
357 1 -1.1104 11.9986 -2.94908 18.0422
358 1 -1.1104 12.0678 2.68481 17.8037
359 1 -1.1104 12.1028 -2.89958 15.0898
361 1 -1.1104 12.0805 2.71816 15.1415
363 1 -1.1104 11.8651 -0.212033 17.9033
364 2 2.2208 10.5828 -1.47069 19.2917
366 1 -1.1104 11.9021 -0.0760227 15.1202
368 1 -1.1104 9.24378 -3.05542 17.8324
369 1 -1.1104 9.35017 2.6829 17.799
370 2 2.2208 7.84185 1.30385 19.3493
371 1 -1.1104 9.303 -2.75594 15.2034
373 1 -1.1104 9.16326 2.78277 14.8412
375 2 2.2208 7.80984 -1.43125 16.5214
377 1 -1.1104 9.16387 -0.175308 17.9693
378 1 -1.1104 9.26721 -0.0247297 15.1691
376 2 2.2208 7.9501 4.09096 16.5042
365 2 2.2208 10.7728 4.0033 19.3426
549 1 -1.1104 12.2073 16.7575 26.3263
381 2 2.2208 10.7055 -4.3594 16.586
374 1 -1.1104 9.38247 2.74232 20.6608
9130 2 2.2208 13.3861 1.27772 19.3088
9124 2 2.2208 13.5379 4.13069 16.5753
9477 2 2.2208 13.5065 -4.30731 19.2802
9478 2 2.2208 13.3262 -1.50584 16.5738
367 1 -1.1104 11.9711 0.0686038 20.7033
372 1 -1.1104 9.3505 -2.91071 20.7511
329 2 2.2208 5.07476 4.13749 19.3587
342 2 2.2208 2.2876 4.08706 16.5308
389 2 2.2208 5.04862 6.97667 16.5754
390 2 2.2208 4.9377 12.5437 16.5402
391 1 -1.1104 1.02215 8.34236 18.0006
393 1 -1.1104 0.726591 8.32235 15.1791
397 1 -1.1104 0.923806 5.63383 17.8585
398 1 -1.1104 0.956165 11.2048 17.9499
401 2 2.2208 5.08153 9.69847 19.4671
402 1 -1.1104 0.887558 5.5251 15.0539
404 1 -1.1104 0.815874 11.1783 15.1053
410 1 -1.1104 3.79643 8.34649 18.0106
411 2 2.2208 2.25782 6.89093 19.3953
412 2 2.2208 2.25424 12.4948 19.3649
413 1 -1.1104 3.54061 8.19219 15.1545
415 2 2.2208 2.27914 9.72421 16.5761
416 1 -1.1104 3.62867 5.51192 17.8626
417 1 -1.1104 3.66299 11.1381 18.0204
418 1 -1.1104 3.81188 5.42952 15.0697
420 1 -1.1104 3.58441 11.1725 15.2204
400 1 -1.1104 6.58266 11.0439 17.9219
408 1 -1.1104 6.5002 11.2801 15.0963
406 1 -1.1104 6.49594 5.37557 15.0836
419 1 -1.1104 3.72747 5.53741 20.7714
414 1 -1.1104 3.74813 8.26718 20.8651
396 1 -1.1104 6.40206 8.30334 20.7786
399 1 -1.1104 6.47254 5.43028 17.9207
395 1 -1.1104 6.40416 8.35242 15.182
403 1 -1.1104 0.827435 5.55402 20.6306
405 1 -1.1104 0.885452 11.294 20.772
394 1 -1.1104 0.961305 8.42357 20.6701
392 1 -1.1104 6.53303 8.31029 18.0199
421 1 -1.1104 3.63101 11.0536 20.7381
409 1 -1.1104 6.42878 11.0027 20.7489
407 1 -1.1104 6.59688 5.55861 20.7906
9200 2 2.2208 13.4639 12.66 19.1869
425 2 2.2208 10.6154 6.93733 16.5051
426 2 2.2208 10.7052 12.5265 16.5707
427 1 -1.1104 11.9972 8.35337 18.0398
428 1 -1.1104 12.0378 8.22953 15.182
430 1 -1.1104 12.1483 5.4497 17.8516
431 1 -1.1104 12.0124 11.0881 17.8885
432 2 2.2208 10.7529 9.69168 19.3702
433 1 -1.1104 12.2584 5.55685 15.0983
435 1 -1.1104 12.1924 11.0228 15.0962
437 1 -1.1104 9.27104 8.24913 18.029
438 2 2.2208 8.00691 6.92368 19.4003
439 2 2.2208 7.8086 12.5466 19.3594
440 1 -1.1104 9.22655 8.32164 15.0707
442 2 2.2208 7.86315 9.69995 16.5334
443 1 -1.1104 9.35638 5.43969 18.0922
444 1 -1.1104 9.30314 11.1782 17.9401
445 1 -1.1104 9.2699 5.52962 15.0776
447 1 -1.1104 9.31116 11.037 15.0293
436 1 -1.1104 12.1553 11.0787 20.7195
448 1 -1.1104 9.3051 11.2374 20.6432
9199 2 2.2208 13.4444 6.93893 19.2506
446 1 -1.1104 9.43558 5.50668 20.7994
441 1 -1.1104 9.22691 8.34366 20.7905
429 1 -1.1104 12.1058 8.25871 20.7998
9198 2 2.2208 13.4953 9.57446 16.4922
551 1 -1.1104 9.18703 19.4978 23.5325
452 2 2.2208 5.17495 18.1122 16.5314
453 1 -1.1104 0.68045 13.9683 17.8222
454 1 -1.1104 0.826555 19.5356 18.0004
457 1 -1.1104 0.787736 14.0546 15.064
459 1 -1.1104 0.899198 19.6653 15.1517
465 1 -1.1104 0.995582 16.7085 18.011
467 2 2.2208 5.06789 15.3939 19.3759
468 2 2.2208 5.0705 20.7941 19.3605
469 1 -1.1104 0.771262 16.8224 15.0966
473 1 -1.1104 3.45477 13.9039 17.7924
474 1 -1.1104 3.80774 19.5763 17.844
475 2 2.2208 2.22066 18.1166 19.3967
476 1 -1.1104 3.54292 14.0082 15.0724
478 1 -1.1104 3.74357 19.4542 15.0986
480 2 2.2208 2.21104 15.4445 16.5271
481 2 2.2208 2.34109 20.8723 16.4451
482 1 -1.1104 3.76233 16.8097 17.9568
483 1 -1.1104 3.7521 16.7738 15.2538
456 1 -1.1104 6.5988 19.5566 18.0442
458 1 -1.1104 0.971606 14.1155 20.6415
471 1 -1.1104 6.54081 16.6981 15.0619
455 1 -1.1104 6.32656 13.9502 17.9441
484 1 -1.1104 3.74581 16.6009 20.7384
460 1 -1.1104 0.742274 19.6199 20.7775
463 1 -1.1104 6.55823 19.4673 15.2093
461 1 -1.1104 6.44108 13.9076 15.1936
472 1 -1.1104 6.49083 16.7546 20.778
462 1 -1.1104 6.59218 14.0205 20.8059
470 1 -1.1104 0.795132 16.6732 20.7082
477 1 -1.1104 3.82973 13.833 20.7355
479 1 -1.1104 3.66857 19.3037 20.7705
9268 2 2.2208 13.4498 15.404 16.4646
9270 2 2.2208 13.3866 18.1832 19.346
573 2 2.2208 7.99481 18.1835 24.983
466 1 -1.1104 6.49211 16.722 17.9504
488 2 2.2208 10.5958 18.2165 16.4871
489 1 -1.1104 12.0448 13.9149 17.8203
490 1 -1.1104 12.0772 19.6096 18.0043
491 1 -1.1104 12.1392 13.7073 15.1309
493 1 -1.1104 12.066 19.6106 15.1064
495 1 -1.1104 12.0221 16.8188 17.8755
496 2 2.2208 10.626 15.4029 19.2492
497 2 2.2208 10.5879 20.9309 19.3624
498 1 -1.1104 12.0484 16.7206 15.1073
500 1 -1.1104 9.19597 13.951 17.8914
501 1 -1.1104 9.38178 19.6754 17.8496
502 2 2.2208 7.85207 18.1439 19.3683
503 1 -1.1104 9.29453 13.8186 15.0969
505 1 -1.1104 9.21846 19.5147 15.01
507 2 2.2208 7.81465 15.3336 16.4023
508 2 2.2208 7.7912 21.0084 16.3721
509 1 -1.1104 9.23111 16.7703 17.8684
510 1 -1.1104 9.23156 16.6507 14.9542
506 1 -1.1104 9.1148 19.6563 20.6413
499 1 -1.1104 12.1655 16.737 20.7282
494 1 -1.1104 11.8259 19.5643 20.6792
504 1 -1.1104 9.30054 14.0143 20.8446
511 1 -1.1104 9.30028 16.8442 20.6905
9271 2 2.2208 13.4325 20.9957 16.5239
579 1 -1.1104 9.28967 19.531 26.3563
542 2 2.2208 2.36609 4.01033 27.6545
547 2 2.2208 2.23527 -4.1658 24.8995
516 2 2.2208 5.13522 1.35325 22.1477
517 1 -1.1104 0.806923 -2.82353 23.4269
518 1 -1.1104 0.816083 2.91634 23.5161
521 1 -1.1104 0.730274 -2.87948 26.2595
522 1 -1.1104 0.876893 2.54221 26.3085
525 1 -1.1104 0.773091 0.0771674 23.509
527 2 2.2208 4.96815 -1.47257 24.8463
528 2 2.2208 5.23758 4.08526 24.9342
529 1 -1.1104 0.815155 -0.178091 26.2525
531 1 -1.1104 3.62939 -2.72561 23.5458
532 1 -1.1104 3.66987 2.72932 23.588
533 2 2.2208 2.26805 1.42772 24.9027
534 1 -1.1104 3.70316 -2.88277 26.3018
535 1 -1.1104 3.89953 2.51817 26.2076
536 2 2.2208 2.16821 -1.37429 22.1326
538 1 -1.1104 3.77758 0.0815038 23.3558
539 1 -1.1104 3.52097 -0.160959 26.4267
519 1 -1.1104 6.42436 -2.93139 23.499
524 1 -1.1104 6.72511 2.65903 26.3455
530 1 -1.1104 6.29003 -0.0881054 26.2783
523 1 -1.1104 6.51672 -2.83085 26.3563
526 1 -1.1104 6.57251 -0.176724 23.5682
537 2 2.2208 2.2637 4.05874 22.1123
572 2 2.2208 7.92684 4.21063 27.7785
362 1 -1.1104 12.2455 2.83212 20.8193
9331 2 2.2208 13.6168 4.23063 22.0562
571 2 2.2208 7.81552 -1.52196 27.6767
520 1 -1.1104 6.57842 2.62787 23.5693
576 2 2.2208 7.77215 -4.22439 24.9382
575 2 2.2208 10.7445 -4.25248 22.1073
9487 2 2.2208 13.6428 -4.2482 24.8222
379 1 -1.1104 9.17854 -0.103134 20.8037
9490 2 2.2208 13.4905 1.39275 24.8849
9489 2 2.2208 13.4806 -1.43235 22.0554
360 1 -1.1104 12.0998 -2.77717 20.7112
552 2 2.2208 10.8769 1.49197 22.0884
553 1 -1.1104 12.1621 -2.90349 23.4383
554 1 -1.1104 12.1674 2.66601 23.6145
555 1 -1.1104 12.3163 -3.00461 26.308
556 1 -1.1104 12.1624 2.81251 26.3188
557 1 -1.1104 12.1573 -0.0713398 23.5317
558 2 2.2208 10.6736 -1.42882 24.862
560 1 -1.1104 12.1193 -0.00746319 26.3146
561 1 -1.1104 9.23237 -2.80704 23.645
562 1 -1.1104 9.3422 2.86335 23.4653
563 2 2.2208 8.00514 1.37651 24.9118
564 1 -1.1104 9.49505 -2.83952 26.3227
565 1 -1.1104 9.47254 2.72449 26.2678
566 2 2.2208 7.9157 -1.50476 22.1167
568 1 -1.1104 9.59663 0.0277815 23.5261
569 1 -1.1104 9.23462 0.0152505 26.3669
559 2 2.2208 10.6487 4.29483 24.8067
567 2 2.2208 7.95818 4.18943 22.1539
9491 2 2.2208 13.4349 4.16334 27.7177
605 2 2.2208 5.04231 6.85087 27.8199
581 2 2.2208 5.12379 6.90826 22.1785
582 2 2.2208 5.12602 12.4931 22.1896
583 1 -1.1104 0.909166 8.3374 23.3706
585 1 -1.1104 0.987403 8.41053 26.2458
587 1 -1.1104 0.92326 5.49484 23.4003
588 1 -1.1104 0.72729 11.2624 23.5758
591 2 2.2208 4.91592 9.66448 24.8944
592 1 -1.1104 0.970404 5.42507 26.187
593 1 -1.1104 0.750596 11.1939 26.4007
596 1 -1.1104 3.66232 8.30386 23.4802
597 2 2.2208 2.4803 6.80084 24.8095
598 2 2.2208 2.2441 12.5198 24.917
599 1 -1.1104 3.69092 8.27621 26.2664
600 2 2.2208 2.20387 9.74122 22.1976
601 1 -1.1104 3.72896 5.45534 23.642
602 1 -1.1104 3.66527 11.2203 23.5512
603 1 -1.1104 3.8941 5.30107 26.3986
604 1 -1.1104 3.42662 11.0444 26.2137
594 1 -1.1104 6.59404 5.46769 26.4686
590 1 -1.1104 6.54205 11.0839 23.3787
586 1 -1.1104 6.34821 8.19427 26.2498
584 1 -1.1104 6.34717 8.33001 23.497
589 1 -1.1104 6.57521 5.51591 23.4997
595 1 -1.1104 6.25459 10.964 26.2192
607 2 2.2208 4.97319 12.5381 27.7357
606 2 2.2208 2.20619 9.69658 27.7771
9274 2 2.2208 13.4018 12.6325 24.9149
9390 2 2.2208 13.5607 9.79299 22.0658
434 1 -1.1104 12.1555 5.55656 20.6666
646 1 -1.1104 6.52725 13.9282 23.5445
578 1 -1.1104 9.32696 14.0294 26.3128
9267 2 2.2208 13.6821 6.93641 24.8742
612 1 -1.1104 9.11241 11.3182 26.1227
613 1 -1.1104 9.37359 5.62486 26.4157
614 1 -1.1104 9.24693 11.0922 23.3982
615 1 -1.1104 9.28059 5.71218 23.5562
616 2 2.2208 7.85707 9.69986 22.1713
617 1 -1.1104 9.22806 8.38794 26.2281
618 2 2.2208 7.83881 12.5974 24.8002
619 2 2.2208 7.95394 7.06845 24.9516
620 2 2.2208 10.7969 6.93111 22.0552
621 2 2.2208 10.6677 12.5941 22.1787
622 1 -1.1104 12.2822 8.44107 23.5278
623 1 -1.1104 12.3651 8.36486 26.3799
624 1 -1.1104 12.203 5.50466 23.4024
625 1 -1.1104 12.1402 11.2328 23.5614
626 2 2.2208 10.7281 9.67033 24.8368
627 1 -1.1104 12.1091 5.71646 26.2102
628 1 -1.1104 11.9685 11.1033 26.3665
629 1 -1.1104 9.26344 8.43547 23.4767
630 2 2.2208 10.7213 7.0086 27.7264
464 1 -1.1104 6.28462 19.4695 20.7799
637 1 -1.1104 6.51868 13.9554 26.351
486 1 -1.1104 6.49059 16.6603 23.5708
349 2 2.2208 2.26948 20.9289 22.206
350 1 -1.1104 3.68864 16.7892 23.6129
485 1 -1.1104 0.978343 16.7531 23.5007
512 1 -1.1104 3.75249 13.8865 26.4763
514 1 -1.1104 3.74906 16.7557 26.4255
634 2 2.2208 2.33282 18.1132 24.9079
635 2 2.2208 2.26118 15.3316 22.1819
636 1 -1.1104 3.67035 19.5835 23.5973
638 1 -1.1104 3.71124 13.8879 23.6246
640 1 -1.1104 0.887229 19.6444 26.267
641 1 -1.1104 1.02077 16.8596 26.3892
642 1 -1.1104 0.934643 13.9987 26.2907
644 2 2.2208 5.11925 20.979 24.9179
645 2 2.2208 5.16528 15.3998 25.0058
647 1 -1.1104 0.844065 19.4129 23.6236
648 1 -1.1104 0.924237 13.8983 23.5949
649 2 2.2208 5.11194 18.0505 22.1829
650 1 -1.1104 3.82655 19.6622 26.3554
577 1 -1.1104 6.53224 19.5132 26.2848
643 1 -1.1104 6.50308 19.6257 23.5051
312 2 2.2208 2.13826 21.013 27.6864
639 1 -1.1104 6.65694 16.6596 26.211
611 2 2.2208 2.35904 15.2904 27.8201
9469 2 2.2208 13.5101 15.4022 22.1527
9471 2 2.2208 13.5117 15.379 27.7568
9470 2 2.2208 13.4457 18.1914 24.8351
9473 2 2.2208 13.3709 21.1395 22.1692
380 1 -1.1104 12.0985 13.9864 23.4546
609 1 -1.1104 9.36472 16.7599 23.4274
548 2 2.2208 10.6108 20.8685 24.8163
515 1 -1.1104 12.0873 19.5402 26.2502
384 1 -1.1104 12.0094 19.6143 23.4182
550 1 -1.1104 9.31038 14.0177 23.4997
610 1 -1.1104 9.42002 16.8119 26.3418
580 2 2.2208 7.8842 15.4164 22.122
608 2 2.2208 7.80401 20.938 22.1176
544 2 2.2208 10.6592 15.3913 24.905
306 2 2.2208 10.6946 18.3109 27.7014
543 1 -1.1104 12.0721 16.7356 23.429
541 2 2.2208 2.287 -1.61399 27.7018
311 2 2.2208 7.76982 18.0883 13.6792
310 2 2.2208 10.6364 21.0357 13.618
570 2 2.2208 10.6663 1.35365 27.7353
9488 2 2.2208 13.4406 -1.39272 27.7269
574 2 2.2208 10.816 -4.33552 27.6901
631 2 2.2208 7.6747 9.68721 27.5317
633 2 2.2208 5.10497 18.1147 27.6785
346 2 2.2208 7.90038 15.3999 27.6602
9479 2 2.2208 13.4406 -4.28437 13.6494
387 2 2.2208 10.6482 -1.41321 13.711
309 2 2.2208 5.03154 20.9776 13.6712
651 2 2.2208 5.17105 23.7631 5.19247
652 2 2.2208 5.12966 29.3607 5.24068
653 1 -1.1104 0.846043 25.2112 1.10031
654 1 -1.1104 0.955685 25.1423 4.00191
655 1 -1.1104 0.942585 22.4659 0.939231
656 1 -1.1104 1.00285 28.0353 1.04596
657 2 2.2208 5.09355 26.7053 2.40105
658 1 -1.1104 0.90662 22.4436 3.95225
659 1 -1.1104 0.904509 28.0023 3.87799
660 1 -1.1104 3.65733 25.3051 1.00266
661 2 2.2208 2.22401 23.7458 2.42308
662 2 2.2208 2.3624 29.4468 2.43166
663 1 -1.1104 3.7154 25.2296 3.87747
664 2 2.2208 2.32116 26.5385 5.2807
665 1 -1.1104 3.719 22.5313 1.00539
666 1 -1.1104 3.78398 28.184 1.06816
667 1 -1.1104 3.66315 22.3424 3.729
668 1 -1.1104 3.78291 28.1692 3.84159
792 1 -1.1104 0.930441 25.3214 6.81346
798 1 -1.1104 3.77714 25.3274 6.52597
794 1 -1.1104 0.862072 22.4575 6.66804
674 1 -1.1104 6.51252 22.3169 1.07106
675 1 -1.1104 6.5506 28.1338 0.781489
796 1 -1.1104 6.47526 22.4343 6.58085
672 1 -1.1104 6.50514 25.2288 0.998522
677 1 -1.1104 6.47613 27.9772 3.81212
676 1 -1.1104 6.48307 22.218 3.87471
673 1 -1.1104 6.37064 25.2793 3.74156
1518 1 -1.1104 12.2773 47.5699 12.2646
793 1 -1.1104 6.46723 25.1744 6.65092
1302 1 -1.1104 3.86127 47.7058 0.914878
678 2 2.2208 10.7353 23.7694 5.19748
679 2 2.2208 10.7674 29.3755 5.23292
680 1 -1.1104 12.0792 25.2485 1.04657
681 1 -1.1104 12.0454 25.0684 3.8686
682 1 -1.1104 12.0193 22.3881 1.00886
683 1 -1.1104 12.2046 27.927 1.01554
684 2 2.2208 10.6327 26.6761 2.34317
685 1 -1.1104 12.2331 22.2899 3.86402
686 1 -1.1104 12.0986 27.9091 3.80735
687 1 -1.1104 9.33399 25.3292 0.866894
688 2 2.2208 7.87627 23.8626 2.5021
689 2 2.2208 7.92159 29.4873 2.43943
690 1 -1.1104 9.2138 25.1999 3.81415
691 2 2.2208 7.85361 26.6689 5.11607
692 1 -1.1104 9.41573 22.6468 1.18963
693 1 -1.1104 9.36256 28.0364 0.945137
694 1 -1.1104 9.22076 22.4055 3.8893
695 1 -1.1104 9.1793 28.0249 3.78025
828 1 -1.1104 9.26152 25.2616 6.65867
976 2 2.2208 7.96556 26.6111 -0.461309
830 1 -1.1104 9.40266 28.0761 6.54831
9813 2 2.2208 13.5786 26.5767 5.14935
769 1 -1.1104 12.0868 39.2354 12.3153
977 2 2.2208 10.6991 29.3607 -0.543724
9649 2 2.2208 13.5467 23.6957 7.9585
699 2 2.2208 5.19855 35.1867 5.20152
700 1 -1.1104 0.86805 30.9797 1.09622
701 1 -1.1104 0.863028 36.356 1.02709
703 1 -1.1104 0.957795 30.8153 3.87882
704 1 -1.1104 0.836126 36.4165 3.8571
706 1 -1.1104 0.87449 33.6333 0.967842
707 2 2.2208 5.13856 32.2631 2.43962
708 2 2.2208 5.1609 37.8808 2.3825
709 1 -1.1104 0.742821 33.6329 3.76452
711 1 -1.1104 3.69834 30.8192 1.0347
712 1 -1.1104 3.87798 36.4407 0.946058
713 2 2.2208 2.30136 35.0405 2.44296
714 1 -1.1104 3.70171 30.9674 3.95746
715 1 -1.1104 3.62172 36.7138 3.68602
716 2 2.2208 2.29968 32.3354 5.18987
717 2 2.2208 2.32098 37.9727 5.29355
718 1 -1.1104 3.59574 33.6217 1.11994
719 1 -1.1104 3.69376 33.9364 3.84929
723 1 -1.1104 6.33247 30.8342 1.10175
702 1 -1.1104 6.73775 36.5556 1.08889
9824 2 2.2208 -0.515682 43.4622 8.1907
849 1 -1.1104 0.862266 30.8321 6.60517
705 1 -1.1104 6.46672 36.4684 3.79858
724 1 -1.1104 6.58672 30.8272 4.02717
851 1 -1.1104 6.61791 30.8128 6.84665
9555 2 2.2208 13.4606 32.1808 5.15908
855 1 -1.1104 3.83988 30.8792 6.70915
9817 2 2.2208 13.5585 34.8866 2.45921
710 1 -1.1104 6.49541 33.687 3.77577
725 1 -1.1104 6.67015 33.7853 0.967657
726 2 2.2208 10.7705 35.1142 5.21462
727 1 -1.1104 12.2204 30.8802 1.05844
728 1 -1.1104 12.1914 36.4059 1.13643
729 1 -1.1104 12.1187 30.7116 3.87124
730 1 -1.1104 12.183 36.4234 4.01065
731 1 -1.1104 12.1652 33.6259 1.0862
732 2 2.2208 10.7845 32.2291 2.43734