ITEM: TIMESTEP
100000
ITEM: NUMBER OF ATOMS
17910
ITEM: BOX BOUNDS pp pp pp
-3.5660430098491835e-01 2.7696604300985161e+01
-4.2000398822906790e+00 3.3228003988229489e+02
-3.5358176350430187e-01 2.7693581763503911e+01
ITEM: ATOMS id type q x y z
1 2 2.2208 5.22561 1.54416 5.35707
2 1 -1.1104 1.07689 -2.75547 1.07555
3 1 -1.1104 1.28328 2.99889 1.17937
6 1 -1.1104 0.978575 -2.77545 3.79822
7 1 -1.1104 1.00034 2.99347 3.87259
10 1 -1.1104 1.10762 0.157434 0.946901
12 2 2.2208 5.24076 -1.21546 2.42855
14 1 -1.1104 1.23748 0.184949 3.83168
16 1 -1.1104 3.76827 -2.7834 1.08036
17 1 -1.1104 3.99298 2.91312 1.22442
18 2 2.2208 2.51378 1.53802 2.46429
19 1 -1.1104 3.78948 -2.78863 3.91886
20 1 -1.1104 3.89001 2.90113 4.01781
21 2 2.2208 2.55412 -1.333 5.20369
23 1 -1.1104 3.99038 0.0267646 1.06304
24 1 -1.1104 3.93013 0.056653 4.03236
13 2 2.2208 5.34445 4.30437 2.38684
22 2 2.2208 2.67261 4.42313 5.3526
15 1 -1.1104 6.58746 0.0905325 3.84587
545 2 2.2208 5.21895 -4.17798 -0.32768
9066 2 2.2208 -0.337989 -4.0363 5.18515
9 1 -1.1104 6.62391 2.76087 3.96968
4 1 -1.1104 6.61409 -2.78617 0.996957
169 1 -1.1104 6.60479 3.13792 6.65307
28 2 2.2208 2.38414 -4.11121 2.42065
29 2 2.2208 5.2517 -4.14746 5.21928
9064 2 2.2208 -0.247121 1.46714 5.39606
167 1 -1.1104 1.05969 2.98688 6.61095
166 1 -1.1104 1.0454 -2.81927 6.58561
542 2 2.2208 2.5595 4.35855 -0.221179
9065 2 2.2208 -0.191307 4.25686 2.45547
9061 2 2.2208 -0.285273 -1.23084 2.50052
51 2 2.2208 8.04965 -4.16532 2.60012
52 2 2.2208 10.9823 -4.02061 5.38555
5 1 -1.1104 6.65773 2.92318 1.06509
11 1 -1.1104 6.792 0.180083 0.925599
8 1 -1.1104 6.67165 -2.66371 3.61301
31 2 2.2208 10.8271 1.4888 5.32582
32 1 -1.1104 12.2536 -2.72918 1.12674
33 1 -1.1104 12.2621 2.83371 1.17781
34 1 -1.1104 12.3062 -2.62988 4.06024
35 1 -1.1104 12.1998 2.92366 4.04254
36 1 -1.1104 12.4695 0.00212292 1.19839
37 2 2.2208 10.7679 -1.42332 2.5832
39 1 -1.1104 12.15 0.134578 3.89171
40 1 -1.1104 9.34046 -2.76561 1.19259
41 1 -1.1104 9.49993 2.87713 1.10513
42 2 2.2208 8.14489 1.47695 2.4483
43 1 -1.1104 9.32795 -2.7395 3.9943
44 1 -1.1104 9.48404 2.83253 3.90374
45 2 2.2208 8.0503 -1.26039 5.24749
47 1 -1.1104 9.50911 -0.174269 1.03679
48 1 -1.1104 9.36695 0.0216864 3.89224
46 2 2.2208 7.98567 4.31627 5.39951
38 2 2.2208 10.8746 4.27 2.59575
210 1 -1.1104 9.36354 0.189927 6.52328
168 1 -1.1104 6.71922 -2.63289 6.53925
570 2 2.2208 10.9219 1.38676 -0.168052
9067 2 2.2208 13.6522 1.49842 2.56987
8762 2 2.2208 13.6282 4.33026 5.26311
606 2 2.2208 2.4793 9.9025 -0.293463
54 2 2.2208 5.28812 7.01356 5.41073
55 2 2.2208 5.24868 12.6907 5.41096
56 1 -1.1104 1.19673 8.56017 1.11949
58 1 -1.1104 1.10924 8.46086 3.85304
60 1 -1.1104 1.24605 5.73004 1.22246
61 1 -1.1104 1.16622 11.3364 0.978926
66 2 2.2208 5.29214 9.87621 2.55352
67 1 -1.1104 1.17943 5.74323 4.06178
68 1 -1.1104 1.0446 11.283 3.83485
71 1 -1.1104 4.02255 8.5656 1.26416
72 2 2.2208 2.56052 7.15387 2.64188
73 2 2.2208 2.60451 12.6861 2.54195
74 1 -1.1104 4.02018 8.42889 4.05319
75 2 2.2208 2.60001 9.69449 5.37237
76 1 -1.1104 3.92048 5.80641 1.22484
77 1 -1.1104 3.98313 11.2944 1.12258
79 1 -1.1104 3.95433 5.73296 3.98222
80 1 -1.1104 3.90442 11.3803 4.00479
9072 2 2.2208 -0.278587 12.5529 5.23772
69 1 -1.1104 6.62236 5.56704 3.92256
9071 2 2.2208 -0.332043 9.98951 2.45276
9472 2 2.2208 -0.209675 7.09842 -0.262112
62 1 -1.1104 1.07535 11.1227 6.55561
605 2 2.2208 5.20699 7.10088 -0.194789
607 2 2.2208 5.42561 12.5776 -0.213795
70 1 -1.1104 6.67366 11.2146 3.99114
64 1 -1.1104 6.74829 11.258 1.2305
63 1 -1.1104 6.72649 5.74262 1.11662
57 1 -1.1104 6.78886 8.5941 1.13883
59 1 -1.1104 6.66718 8.58429 3.87015
84 2 2.2208 10.9286 7.14505 5.31029
85 2 2.2208 10.9638 12.7055 5.20176
86 1 -1.1104 12.1281 8.57442 0.972911
87 1 -1.1104 12.3067 8.5436 3.73722
88 1 -1.1104 12.3192 5.63598 1.19509
89 1 -1.1104 12.2918 11.3726 0.930687
91 2 2.2208 10.8558 10.0152 2.46512
92 1 -1.1104 12.1652 5.72406 3.93966
93 1 -1.1104 12.3487 11.3274 3.86401
94 1 -1.1104 9.40852 8.45739 0.98763
95 2 2.2208 8.09215 7.14619 2.54474
96 2 2.2208 8.03656 12.7167 2.42494
97 1 -1.1104 9.47773 8.49929 3.89883
98 2 2.2208 8.0652 9.98179 5.36543
99 1 -1.1104 9.53359 5.74827 1.13768
100 1 -1.1104 9.3983 11.3734 1.05069
102 1 -1.1104 9.4171 5.57197 3.97921
103 1 -1.1104 9.38099 11.3255 3.9245
630 2 2.2208 10.9305 7.00837 -0.322417
631 2 2.2208 8.10748 9.89644 -0.303079
9074 2 2.2208 13.6616 7.16589 2.41488
9269 2 2.2208 13.628 9.86602 -0.343195
632 2 2.2208 10.9344 12.7518 -0.337832
312 2 2.2208 2.35179 21.0723 -0.233619
9075 2 2.2208 -0.314357 15.4262 2.46905
9076 2 2.2208 -0.249434 21.2547 2.42755
106 2 2.2208 5.29401 18.236 5.19188
107 1 -1.1104 1.12169 14.0272 1.15416
109 1 -1.1104 1.11198 19.6608 1.12658
113 1 -1.1104 1.12127 14.0502 3.89522
114 1 -1.1104 1.05541 19.6607 3.95713
116 1 -1.1104 1.04834 16.78 0.940105
119 2 2.2208 5.22389 15.5871 2.53023
120 2 2.2208 5.2402 21.1367 2.44034
121 1 -1.1104 0.984696 16.8595 3.92399
123 1 -1.1104 3.9189 14.0608 1.04907
125 1 -1.1104 3.79875 19.8693 1.12325
127 2 2.2208 2.37867 18.3197 2.43468
128 1 -1.1104 3.9547 14.1262 3.88159
129 1 -1.1104 3.92971 19.6422 3.97833
130 2 2.2208 2.4763 15.4845 5.35454
131 2 2.2208 2.4553 20.9111 5.29578
132 1 -1.1104 3.83426 17.0212 1.10916
134 1 -1.1104 3.76606 16.8453 3.83849
124 1 -1.1104 3.77672 14.0364 6.62039
126 1 -1.1104 3.96206 19.5238 6.65626
138 1 -1.1104 6.49558 19.6381 1.06942
108 1 -1.1104 0.968215 14.0219 6.64193
346 2 2.2208 8.01973 15.4691 -0.224739
139 1 -1.1104 6.71938 19.8233 3.81824
122 1 -1.1104 6.80402 16.8057 3.92943
140 1 -1.1104 6.74624 16.9083 1.11727
115 1 -1.1104 6.73671 13.9075 3.89679
110 1 -1.1104 6.6617 13.9787 1.15309
141 2 2.2208 10.9162 18.1963 5.32157
142 1 -1.1104 12.2194 14.0183 0.98007
144 1 -1.1104 12.3399 19.5669 1.06309
146 1 -1.1104 12.3686 14.0957 3.89408
147 1 -1.1104 12.2983 19.6018 3.98231
148 1 -1.1104 12.315 16.7666 0.991237
150 2 2.2208 10.8678 15.458 2.44154
151 2 2.2208 10.9538 20.9188 2.50521
152 1 -1.1104 12.2954 16.8119 3.86542
153 1 -1.1104 9.44717 14.1379 1.09268
155 1 -1.1104 9.4139 19.5399 0.958821
157 2 2.2208 8.12763 18.3193 2.49577
158 1 -1.1104 9.48885 14.016 3.83297
159 1 -1.1104 9.35921 19.7067 3.89319
160 2 2.2208 8.10862 15.4877 5.22651
161 2 2.2208 8.07887 21.0918 5.21645
162 1 -1.1104 9.55649 16.8412 1.20688
164 1 -1.1104 9.63776 16.8923 3.88692
112 1 -1.1104 6.69797 19.6504 6.59454
9471 2 2.2208 13.67 15.4844 -0.251479
143 1 -1.1104 12.3678 14.0903 6.56283
171 1 -1.1104 6.58242 0.214659 6.76695
9081 2 2.2208 -0.313838 1.47617 10.9052
9080 2 2.2208 -0.230016 -1.39993 8.02285
202 2 2.2208 2.41143 -4.07621 7.95348
203 2 2.2208 5.23475 -3.97224 10.9322
174 1 -1.1104 3.91829 0.0315819 6.80447
173 1 -1.1104 3.90183 2.88731 6.87982
172 1 -1.1104 3.92441 -2.77001 6.6774
170 1 -1.1104 1.10456 -0.0292465 6.71555
175 2 2.2208 5.17882 1.49641 10.9786
176 1 -1.1104 1.04771 -2.84046 12.3277
177 1 -1.1104 1.12239 2.95145 12.1839
180 1 -1.1104 1.13405 -2.75889 9.43735
181 1 -1.1104 0.989586 3.07602 9.4704
184 1 -1.1104 0.965974 -0.0132296 12.2818
186 2 2.2208 5.37654 -1.28931 8.07651
188 1 -1.1104 1.05538 0.108534 9.58994
190 1 -1.1104 3.7813 -2.60945 12.3175
191 1 -1.1104 3.84023 2.87205 12.4974
192 2 2.2208 2.46323 1.42529 8.18157
193 1 -1.1104 3.77101 -2.69342 9.56664
194 1 -1.1104 3.87763 2.9544 9.70079
195 2 2.2208 2.39459 -1.27823 10.9189
197 1 -1.1104 3.8786 0.153696 12.4397
198 1 -1.1104 3.94308 0.0642523 9.46427
187 2 2.2208 5.20702 4.37512 8.23517
196 2 2.2208 2.49133 4.36714 10.9838
182 1 -1.1104 6.65351 -2.63855 9.48854
189 1 -1.1104 6.62484 0.116292 9.4767
178 1 -1.1104 6.57889 -2.54992 12.3118
179 1 -1.1104 6.69381 2.89563 12.2953
231 2 2.2208 8.04932 -4.01488 8.06095
207 1 -1.1104 12.2887 0.0491956 6.76238
209 1 -1.1104 9.41801 2.83338 6.6597
206 1 -1.1104 12.2204 2.86025 6.86529
205 1 -1.1104 12.2983 -2.69288 6.74095
183 1 -1.1104 6.73926 2.92148 9.43042
232 2 2.2208 10.9476 -4.12739 10.9112
208 1 -1.1104 9.40516 -2.49465 6.74072
185 1 -1.1104 6.75565 0.210001 12.2845
211 2 2.2208 10.8513 1.57882 10.9552
212 1 -1.1104 12.2336 -2.70844 12.4274
213 1 -1.1104 12.2385 2.90313 12.343
214 1 -1.1104 12.3686 -2.69108 9.51525
215 1 -1.1104 12.2799 2.95193 9.60043
216 1 -1.1104 12.2987 -0.0351904 12.3423
217 2 2.2208 10.8286 -1.24482 8.07263
219 1 -1.1104 12.2825 0.283843 9.62166
220 1 -1.1104 9.41669 -2.71954 12.2369
221 1 -1.1104 9.43241 2.83178 12.3937
222 2 2.2208 7.91821 1.60045 7.99782
223 1 -1.1104 9.48049 -2.56737 9.46536
224 1 -1.1104 9.42688 3.07198 9.64895
225 2 2.2208 8.02236 -1.20863 10.9197
227 1 -1.1104 9.49239 0.0877548 12.2168
228 1 -1.1104 9.35116 0.177277 9.45166
218 2 2.2208 10.9325 4.30913 8.2175
226 2 2.2208 8.16654 4.27546 11.0277
383 2 2.2208 8.07066 -4.10215 13.6217
9087 2 2.2208 13.6262 -1.24386 10.8393
9086 2 2.2208 13.6462 1.48097 8.09355
388 2 2.2208 10.9087 4.31091 13.6527
234 1 -1.1104 1.07124 8.39785 6.8439
238 1 -1.1104 3.85643 8.58477 6.88607
65 1 -1.1104 6.61062 11.32 6.7755
78 1 -1.1104 3.71229 11.3231 6.84239
239 1 -1.1104 3.84985 5.6811 6.85689
236 1 -1.1104 0.991394 5.65557 6.78316
240 2 2.2208 5.2755 7.04582 10.9455
241 2 2.2208 5.31406 12.8075 10.9794
242 1 -1.1104 1.01871 8.58519 12.4063
244 1 -1.1104 0.917555 8.46702 9.5651
246 1 -1.1104 1.09546 5.83373 12.3526
247 1 -1.1104 0.964643 11.283 12.4432
250 2 2.2208 5.19361 9.93482 8.28448
251 1 -1.1104 1.0798 5.8268 9.55633
252 1 -1.1104 0.881603 11.2231 9.46716
255 1 -1.1104 3.80082 8.49803 12.4491
256 2 2.2208 2.44604 7.10209 8.22196
257 2 2.2208 2.30864 12.6484 7.96551
258 1 -1.1104 3.67364 8.31708 9.71718
259 2 2.2208 2.36105 9.9361 11.0209
260 1 -1.1104 3.93647 5.70578 12.4114
261 1 -1.1104 3.74596 11.4675 12.211
262 1 -1.1104 3.8898 5.69784 9.5562
263 1 -1.1104 3.80391 11.1274 9.57542
235 1 -1.1104 6.64892 8.45918 6.70902
254 1 -1.1104 6.50259 11.4244 9.41181
237 1 -1.1104 6.62052 5.72997 6.71522
245 1 -1.1104 6.55582 8.60483 9.51795
243 1 -1.1104 6.60981 8.52079 12.1682
253 1 -1.1104 6.63801 5.77907 9.47679
423 2 2.2208 5.26457 9.9042 13.635
265 1 -1.1104 12.1758 8.56593 6.67439
9202 2 2.2208 13.6522 12.6173 13.6222
90 1 -1.1104 12.4009 11.3494 6.66572
266 1 -1.1104 12.1677 5.80664 6.93933
267 1 -1.1104 9.50092 8.51167 6.83344
101 1 -1.1104 9.51551 11.4088 6.70837
249 1 -1.1104 6.72917 11.3761 12.2423
269 1 -1.1104 9.46465 5.67883 6.72281
248 1 -1.1104 6.90051 5.67991 12.3255
264 1 -1.1104 9.51466 11.3764 9.61017
268 1 -1.1104 9.38783 5.70345 9.64283
270 1 -1.1104 9.44039 11.3384 12.3
271 1 -1.1104 9.62512 5.70288 12.4602
272 2 2.2208 8.06087 10.0121 10.902
273 1 -1.1104 9.3734 8.43744 9.58815
274 2 2.2208 8.11869 12.7985 8.13138
275 2 2.2208 8.0559 7.13886 8.06077
276 2 2.2208 10.9783 7.11054 10.8716
277 2 2.2208 10.8023 12.8176 10.8954
278 1 -1.1104 12.2642 8.52175 12.317
279 1 -1.1104 12.2633 8.54547 9.43614
280 1 -1.1104 12.4084 5.7897 12.2399
281 1 -1.1104 12.3669 11.2099 12.3318
282 2 2.2208 10.7565 9.92836 8.20022
283 1 -1.1104 12.254 5.75571 9.55325
284 1 -1.1104 12.1362 11.308 9.5664
285 1 -1.1104 9.54992 8.62807 12.3479
8973 2 2.2208 13.6488 7.25936 8.16231
8974 2 2.2208 13.6435 12.6573 8.12721
450 2 2.2208 10.8131 9.90325 13.6285
451 2 2.2208 8.08398 12.7224 13.658
302 1 -1.1104 1.02367 19.7726 6.81868
111 1 -1.1104 6.61933 14.1245 6.71218
297 1 -1.1104 6.57778 14.1247 12.4422
133 1 -1.1104 3.93687 16.8591 6.70131
117 1 -1.1104 1.06689 16.9819 6.67734
201 2 2.2208 2.39249 15.5701 10.9055
204 2 2.2208 2.51387 21.0429 10.8176
229 1 -1.1104 3.74563 16.9906 12.2608
230 1 -1.1104 0.949747 16.9342 12.3612
286 1 -1.1104 3.96717 19.6787 12.2513
287 1 -1.1104 3.83865 14.3126 12.3904
291 1 -1.1104 1.1498 19.5008 9.56265
292 1 -1.1104 0.995027 16.7521 9.52771
293 2 2.2208 5.30519 21.0053 7.91251
294 1 -1.1104 1.0472 14.0651 9.27503
295 2 2.2208 5.29454 15.4637 8.11632
298 1 -1.1104 1.08102 19.7773 12.2559
299 1 -1.1104 0.959898 14.0542 12.1163
300 2 2.2208 5.262 18.1777 10.8879
301 1 -1.1104 4.02349 19.6016 9.33213
303 2 2.2208 2.50255 18.2332 8.07863
304 1 -1.1104 3.96019 16.7531 9.55652
305 1 -1.1104 4.00638 13.947 9.44925
83 1 -1.1104 9.34962 14.1962 12.2741
154 1 -1.1104 9.4536 14.175 6.67033
27 1 -1.1104 12.3262 19.6462 12.4575
136 1 -1.1104 9.56201 19.647 9.38658
50 1 -1.1104 12.159 16.8588 12.3926
311 2 2.2208 8.16325 18.2445 13.5802
105 2 2.2208 8.13185 18.3008 8.08586
200 1 -1.1104 9.60533 16.8774 9.48853
135 1 -1.1104 9.51048 14.0864 9.47491
49 1 -1.1104 12.3261 19.6549 9.6234
25 2 2.2208 11.0019 18.3054 11.0222
9062 2 2.2208 13.6468 15.4573 10.9527
53 2 2.2208 10.9874 15.5432 8.10654
296 1 -1.1104 6.77955 19.6023 12.2252
290 1 -1.1104 6.76343 14.115 9.57069
104 1 -1.1104 9.57061 19.7425 12.2051
30 1 -1.1104 12.3429 14.0849 9.46366
289 1 -1.1104 6.76683 16.8714 9.45079
163 1 -1.1104 9.51076 16.9276 6.67243
118 1 -1.1104 6.7748 16.7322 6.70343
145 1 -1.1104 12.3873 19.5258 6.77638
26 1 -1.1104 12.2828 14.0631 12.1823
233 1 -1.1104 6.71994 16.8506 12.2087
82 1 -1.1104 12.3171 16.886 9.55347
81 2 2.2208 11.0615 21.0185 7.98597
156 1 -1.1104 9.47836 19.7121 6.67012
149 1 -1.1104 12.4031 16.8358 6.66773
288 1 -1.1104 6.77101 19.6311 9.42853
165 2 2.2208 7.96305 21.0262 10.8119
137 2 2.2208 8.14159 15.5759 10.9091
199 1 -1.1104 9.59943 16.8607 12.2813
313 2 2.2208 5.19404 1.6222 16.4768
314 1 -1.1104 1.02644 -2.85325 17.9624
315 1 -1.1104 1.16021 3.11639 18.011
318 1 -1.1104 1.076 -2.7061 15.0291
320 1 -1.1104 1.15134 3.05415 15.2003
326 1 -1.1104 1.25157 0.251795 17.8384
328 2 2.2208 5.3389 -1.32379 19.1796
330 1 -1.1104 1.01187 0.193248 15.0335
334 1 -1.1104 3.83007 -2.74105 17.9641
335 1 -1.1104 3.95234 3.05528 17.9223
336 2 2.2208 2.52041 1.60254 19.3611
337 1 -1.1104 3.96034 -2.6348 15.1881
339 1 -1.1104 3.80305 2.86696 15.1887
341 2 2.2208 2.42306 -1.33904 16.5904
343 1 -1.1104 4.0275 0.205491 17.8657
344 1 -1.1104 3.81848 0.0608978 15.2197
329 2 2.2208 5.38407 4.3141 19.3423
342 2 2.2208 2.55472 4.36351 16.5508
9475 2 2.2208 -0.216998 -1.23529 19.2343
352 2 2.2208 2.6526 -4.07466 13.6953
9167 2 2.2208 -0.28528 4.39206 19.401
353 2 2.2208 5.22351 -1.20359 13.8659
340 1 -1.1104 3.81205 2.94288 20.6382
332 1 -1.1104 6.55664 0.25745 15.0398
9468 2 2.2208 -0.250895 -4.14123 16.5141
347 2 2.2208 5.29308 -4.12136 16.5733
345 1 -1.1104 3.96445 -0.0325048 20.5924
348 2 2.2208 2.45379 -4.11484 19.329
354 2 2.2208 2.44882 1.52904 13.6871
9474 2 2.2208 -0.230389 1.53679 16.5735
355 2 2.2208 5.36316 4.2671 13.706
9171 2 2.2208 -0.350835 4.36737 13.7869
322 1 -1.1104 6.75671 -2.55646 15.1999
324 1 -1.1104 6.68585 3.10538 15.0506
317 1 -1.1104 6.84177 2.95806 17.938
316 1 -1.1104 6.69434 -2.75021 17.9347
327 1 -1.1104 6.82713 0.162793 17.8972
356 2 2.2208 11.0358 1.52138 16.5342
357 1 -1.1104 12.1906 -2.85858 17.8748
358 1 -1.1104 12.2838 3.0236 18.0111
359 1 -1.1104 12.3121 -2.86479 15.1509
361 1 -1.1104 12.3067 2.81322 15.1
363 1 -1.1104 12.3327 -0.00369716 17.8493
364 2 2.2208 10.883 -1.38128 19.4106
366 1 -1.1104 12.3346 0.0486191 15.0659
368 1 -1.1104 9.49295 -2.65895 17.834
369 1 -1.1104 9.58133 2.92933 18.0006
370 2 2.2208 8.27049 1.5344 19.2787
371 1 -1.1104 9.56596 -2.71936 15.0261
373 1 -1.1104 9.43867 2.77613 15.356
375 2 2.2208 8.22137 -1.14378 16.4919
377 1 -1.1104 9.61699 0.0496463 17.8534
378 1 -1.1104 9.39886 0.0975243 15.0036
376 2 2.2208 8.07686 4.30267 16.5703
365 2 2.2208 10.9119 4.31497 19.3919
386 2 2.2208 8.02332 1.56522 13.7422
382 2 2.2208 8.05726 -4.08731 19.2955
387 2 2.2208 10.8203 -1.24519 13.7343
367 1 -1.1104 12.2768 0.0247482 20.6623
9130 2 2.2208 13.6532 1.60449 19.3341
9243 2 2.2208 -0.257182 10.025 13.8287
9240 2 2.2208 -0.257344 7.19012 16.5598
389 2 2.2208 5.28613 7.20228 16.5813
390 2 2.2208 5.33492 12.6305 16.4968
391 1 -1.1104 1.14079 8.68411 18.0891
393 1 -1.1104 1.18231 8.76356 15.2081
397 1 -1.1104 1.04565 5.85297 17.9899
398 1 -1.1104 1.01513 11.3842 18.104
401 2 2.2208 5.28657 9.87398 19.3259
402 1 -1.1104 1.1412 5.83261 15.1303
404 1 -1.1104 1.09394 11.4301 15.2221
410 1 -1.1104 3.90255 8.66453 17.8245
411 2 2.2208 2.58935 7.09208 19.4849
412 2 2.2208 2.42002 12.8841 19.2776
413 1 -1.1104 3.9756 8.58529 15.1151
415 2 2.2208 2.5205 10.04 16.6187
416 1 -1.1104 3.87155 5.76045 18.148
417 1 -1.1104 3.91871 11.3497 17.8724
418 1 -1.1104 3.90805 5.78156 15.2292
420 1 -1.1104 3.77536 11.4509 15.0669
408 1 -1.1104 6.51766 11.2435 15.0157
424 2 2.2208 2.39949 12.7358 13.6836
422 2 2.2208 2.40163 7.2539 13.8506
399 1 -1.1104 6.70622 5.72242 18.0759
400 1 -1.1104 6.76202 11.1967 17.8358
406 1 -1.1104 6.68058 5.89157 15.2554
395 1 -1.1104 6.90313 8.55843 15.0336
392 1 -1.1104 6.74479 8.45451 17.9068
425 2 2.2208 11.0528 7.18133 16.533
426 2 2.2208 10.9772 12.7617 16.5693
427 1 -1.1104 12.185 8.58097 18.0008
428 1 -1.1104 12.2996 8.48241 15.1396
430 1 -1.1104 12.3826 5.85789 17.8706
431 1 -1.1104 12.1584 11.2999 17.8225
432 2 2.2208 10.9627 9.91869 19.3274
433 1 -1.1104 12.2473 5.69594 15.0041
435 1 -1.1104 12.2771 11.3914 15.141
437 1 -1.1104 9.56036 8.50434 17.9814
438 2 2.2208 8.13718 7.16219 19.2479
439 2 2.2208 8.12154 12.6464 19.3451
440 1 -1.1104 9.71507 8.54323 15.2713
442 2 2.2208 8.21474 9.96911 16.5156
443 1 -1.1104 9.63016 5.81 17.9886
444 1 -1.1104 9.57809 11.2209 17.9448
445 1 -1.1104 9.48443 5.54636 15.1246
447 1 -1.1104 9.40512 11.3663 15.0664
436 1 -1.1104 12.1594 11.4229 20.6729
449 2 2.2208 8.12143 7.14731 13.7678
9200 2 2.2208 13.6639 12.7917 19.3683
487 2 2.2208 5.32642 15.6142 13.7535
308 2 2.2208 2.44107 18.2095 13.6925
452 2 2.2208 5.3075 18.3504 16.5043
453 1 -1.1104 1.03295 14.2787 17.8953
454 1 -1.1104 1.15056 19.826 17.9624
457 1 -1.1104 0.972197 14.1816 15.0117
459 1 -1.1104 1.18412 19.7258 15.1366
465 1 -1.1104 1.20637 17.022 17.9464
467 2 2.2208 5.35894 15.5276 19.2869
468 2 2.2208 5.23034 21.0931 19.3034
469 1 -1.1104 1.04871 16.8889 15.2032
473 1 -1.1104 3.86812 14.2403 17.9057
474 1 -1.1104 3.95731 19.8001 17.9224
475 2 2.2208 2.47914 18.3538 19.3651
476 1 -1.1104 3.90791 14.2393 15.133
478 1 -1.1104 3.94885 19.8 15.1142
480 2 2.2208 2.56793 15.5219 16.4844
481 2 2.2208 2.52982 21.1294 16.4738
482 1 -1.1104 3.9301 17.0692 18.0521
483 1 -1.1104 3.76787 17.063 15.1379
9312 2 2.2208 -0.353157 15.4875 13.6967
9310 2 2.2208 -0.320443 15.5675 19.3847
9311 2 2.2208 -0.291803 18.3622 16.485
309 2 2.2208 5.34317 21.1259 13.7299
9270 2 2.2208 13.6212 18.4123 19.2017
466 1 -1.1104 6.70638 16.8079 17.7783
456 1 -1.1104 6.76522 19.69 18.0648
461 1 -1.1104 6.68957 14.0655 15.1734
471 1 -1.1104 6.81759 16.9446 14.976
455 1 -1.1104 6.69078 14.0561 17.9101
463 1 -1.1104 6.74427 19.6508 15.0994
488 2 2.2208 10.8809 18.2678 16.5904
489 1 -1.1104 12.4576 14.1958 17.9233
490 1 -1.1104 12.2238 19.9443 17.7283
491 1 -1.1104 12.1948 14.0521 15.1353
493 1 -1.1104 12.3201 19.7744 15.0187
495 1 -1.1104 12.2644 16.9872 17.86
496 2 2.2208 10.8827 15.4746 19.3342
497 2 2.2208 10.7998 21.193 19.2288
498 1 -1.1104 12.3229 16.8972 15.2201
500 1 -1.1104 9.70568 14.0517 18.0379
501 1 -1.1104 9.52933 19.5138 17.8082
502 2 2.2208 8.14319 18.2181 19.3846
503 1 -1.1104 9.52106 14.1074 15.2029
505 1 -1.1104 9.51996 19.789 14.9844
507 2 2.2208 8.14563 15.3741 16.5459
508 2 2.2208 8.04339 21.0358 16.5203
509 1 -1.1104 9.40139 16.7902 18.058
510 1 -1.1104 9.44367 16.805 15.2212
494 1 -1.1104 12.1548 19.6741 20.5485
504 1 -1.1104 9.46196 14.0477 20.5617
499 1 -1.1104 12.3575 16.9685 20.5362
506 1 -1.1104 9.37756 19.7202 20.5821
513 2 2.2208 10.8613 15.4743 13.7484
310 2 2.2208 10.9067 21.1415 13.7
546 2 2.2208 5.21034 -4.15017 21.9886
319 1 -1.1104 1.02372 -2.52846 20.8331
321 1 -1.1104 0.981804 2.94345 20.8394
325 1 -1.1104 6.57448 2.94789 20.695
9484 2 2.2208 -0.273658 -1.42352 24.8721
338 1 -1.1104 3.89475 -2.72379 20.7909
331 1 -1.1104 1.18391 0.169317 20.7578
516 2 2.2208 5.28444 1.40158 22.062
517 1 -1.1104 1.11249 -2.73281 23.5295
518 1 -1.1104 0.99599 2.89693 23.613
521 1 -1.1104 1.16435 -2.75346 26.1911
522 1 -1.1104 1.21714 2.82749 26.3172
525 1 -1.1104 1.08842 0.0766001 23.4981
527 2 2.2208 5.3021 -1.40163 24.8743
528 2 2.2208 5.18927 4.31703 24.8175
529 1 -1.1104 1.10019 0.0857634 26.1142
531 1 -1.1104 3.97351 -2.80182 23.4246
532 1 -1.1104 3.79741 2.82327 23.5172
533 2 2.2208 2.59193 1.45853 24.9533
534 1 -1.1104 3.89739 -2.79324 26.2977
535 1 -1.1104 3.88385 2.97327 26.4304
536 2 2.2208 2.52004 -1.31766 22.1001
538 1 -1.1104 3.91197 -0.0132998 23.5882
539 1 -1.1104 3.82892 0.119953 26.3992
537 2 2.2208 2.35574 4.23958 22.1199
323 1 -1.1104 6.5519 -2.57862 20.7151
524 1 -1.1104 6.62053 2.81637 26.256
520 1 -1.1104 6.59078 2.88735 23.4489
9486 2 2.2208 -0.343694 4.31396 24.8716
9483 2 2.2208 -0.170459 1.54 27.6126
9482 2 2.2208 -0.309106 -4.04119 22.0339
540 2 2.2208 5.38236 1.42828 27.6163
541 2 2.2208 2.54654 -1.37052 27.6326
9481 2 2.2208 -0.289156 -4.09447 27.6702
575 2 2.2208 10.9264 -4.12044 22.1703
374 1 -1.1104 9.45523 2.73228 20.7448
333 1 -1.1104 6.90105 0.0550104 20.7842
362 1 -1.1104 12.1922 2.91351 20.796
9491 2 2.2208 13.6272 4.25487 27.6499
526 1 -1.1104 6.70922 -0.040767 23.5344
360 1 -1.1104 12.4139 -2.79628 20.748
379 1 -1.1104 9.59798 0.0547867 20.7831
372 1 -1.1104 9.57164 -2.77509 20.7218
530 1 -1.1104 6.74035 0.0418874 26.2323
523 1 -1.1104 6.80359 -2.71671 26.2303
519 1 -1.1104 6.66724 -2.78455 23.4954
552 2 2.2208 10.8645 1.40275 22.2217
553 1 -1.1104 12.4477 -2.73545 23.4864
554 1 -1.1104 12.1978 2.82951 23.7208
555 1 -1.1104 12.3306 -2.79216 26.2534
556 1 -1.1104 12.2016 2.86309 26.4991
557 1 -1.1104 12.2881 0.03709 23.5576
558 2 2.2208 10.9642 -1.30007 24.8453
560 1 -1.1104 12.3002 -0.00507221 26.4803
561 1 -1.1104 9.58583 -2.75183 23.6687
562 1 -1.1104 9.38724 2.88732 23.4868
563 2 2.2208 8.1246 1.63873 24.7767
564 1 -1.1104 9.47643 -2.72445 26.2688
565 1 -1.1104 9.48153 2.82331 26.2676
566 2 2.2208 8.08788 -1.3495 22.1131
568 1 -1.1104 9.42688 -0.0327266 23.5847
569 1 -1.1104 9.65071 -0.116916 26.2829
559 2 2.2208 10.9012 4.26087 24.9671
567 2 2.2208 7.93662 4.29368 22.1478
576 2 2.2208 8.08307 -4.09674 24.9092
9331 2 2.2208 13.6089 4.16058 22.1476
9490 2 2.2208 13.6293 1.44222 24.9827
571 2 2.2208 8.13956 -1.45979 27.593
574 2 2.2208 10.7452 -4.04729 27.6368
572 2 2.2208 7.99827 4.26302 27.6285
9488 2 2.2208 13.6519 -1.29354 27.6826
403 1 -1.1104 1.19587 5.70647 20.7694
414 1 -1.1104 3.82237 8.68583 20.8242
419 1 -1.1104 4.13214 5.82742 20.7588
409 1 -1.1104 6.53407 11.1459 20.7071
421 1 -1.1104 3.74973 11.3569 20.6848
405 1 -1.1104 0.9419 11.3708 20.7782
396 1 -1.1104 6.53862 8.3562 20.7198
394 1 -1.1104 1.11855 8.48771 20.7571
9418 2 2.2208 -0.319299 7.16602 22.0693
9480 2 2.2208 -0.353825 12.7419 22.1105
581 2 2.2208 5.30266 7.19035 22.0745
582 2 2.2208 5.29782 12.6603 22.1272
583 1 -1.1104 1.07114 8.49063 23.5458
585 1 -1.1104 0.915552 8.3857 26.2891
587 1 -1.1104 0.992194 5.77008 23.5538
588 1 -1.1104 1.11157 11.3142 23.5533
591 2 2.2208 5.2466 9.87862 25.0359
592 1 -1.1104 1.33952 5.74094 26.2622
593 1 -1.1104 1.02108 11.1471 26.4051
596 1 -1.1104 3.99528 8.45765 23.6692
597 2 2.2208 2.49326 7.11784 24.9033
598 2 2.2208 2.48287 12.6553 24.9182
599 1 -1.1104 3.76913 8.49196 26.4489
600 2 2.2208 2.43152 10.001 22.1433
601 1 -1.1104 3.74332 5.56697 23.2892
602 1 -1.1104 3.98912 11.3271 23.6433
603 1 -1.1104 4.03302 5.70658 26.42
604 1 -1.1104 3.93636 11.3312 26.4483
594 1 -1.1104 6.58506 5.57356 26.3191
589 1 -1.1104 6.52115 5.75784 23.5798
586 1 -1.1104 6.5848 8.51568 26.3517
446 1 -1.1104 9.60481 5.54847 20.7938
441 1 -1.1104 9.3779 8.51053 20.7634
407 1 -1.1104 6.75431 5.79079 20.8469
9274 2 2.2208 13.5768 12.8323 24.83
434 1 -1.1104 12.183 5.79689 20.8451
448 1 -1.1104 9.33039 11.2874 20.7889
584 1 -1.1104 6.67725 8.40805 23.5499
590 1 -1.1104 6.73955 11.1621 23.4092
429 1 -1.1104 12.2517 8.54785 20.6937
595 1 -1.1104 6.65825 11.2774 26.3365
612 1 -1.1104 9.4366 11.2429 26.3384
613 1 -1.1104 9.46919 5.63335 26.3355
614 1 -1.1104 9.32697 11.3849 23.5841
615 1 -1.1104 9.42993 5.64834 23.5464
616 2 2.2208 8.051 9.82984 22.0863
617 1 -1.1104 9.4579 8.49778 26.2274
618 2 2.2208 7.90778 12.701 25.0104
619 2 2.2208 8.05049 6.97762 24.9203
620 2 2.2208 10.8701 7.09962 22.2322
621 2 2.2208 10.7266 12.661 22.1242
622 1 -1.1104 12.2745 8.54438 23.43
623 1 -1.1104 12.224 8.47022 26.2783
624 1 -1.1104 12.2817 5.74183 23.4785
625 1 -1.1104 12.1041 11.3175 23.4421
626 2 2.2208 10.7939 9.90848 24.975
627 1 -1.1104 12.2912 5.63907 26.2487
628 1 -1.1104 12.2201 11.321 26.2907
629 1 -1.1104 9.54943 8.45034 23.4725
9390 2 2.2208 13.5664 9.99251 22.1269
486 1 -1.1104 6.61194 16.9542 23.6046
479 1 -1.1104 3.82658 19.6785 20.8265
458 1 -1.1104 1.09046 14.2955 20.6958
484 1 -1.1104 3.85519 16.85 20.7718
462 1 -1.1104 6.63589 14.146 20.7808
643 1 -1.1104 6.5955 19.6573 23.6542
460 1 -1.1104 1.08662 19.8969 20.7139
477 1 -1.1104 3.86414 14.2192 20.7218
470 1 -1.1104 1.02204 17.0083 20.8079
9467 2 2.2208 -0.262542 18.2686 22.2393
349 2 2.2208 2.56422 21.1828 22.1699
350 1 -1.1104 3.84684 16.8889 23.5943
485 1 -1.1104 0.993851 16.8386 23.5564
512 1 -1.1104 3.75912 14.0284 26.2795
514 1 -1.1104 3.88432 16.7278 26.3219
634 2 2.2208 2.44462 18.3297 24.96
635 2 2.2208 2.53182 15.5765 22.2522
636 1 -1.1104 3.84807 19.6264 23.5563
638 1 -1.1104 3.81861 14.1136 23.4987
640 1 -1.1104 0.985945 19.6778 26.35
641 1 -1.1104 1.06924 16.9056 26.2759
642 1 -1.1104 1.07326 14.1145 26.3897
644 2 2.2208 5.19978 21.0217 25.0274
645 2 2.2208 5.24386 15.4381 25.0194
647 1 -1.1104 1.12786 19.7547 23.5502
648 1 -1.1104 0.997457 14.091 23.5714
649 2 2.2208 5.16587 18.213 22.1026
650 1 -1.1104 3.68864 19.6643 26.4378
637 1 -1.1104 6.5486 14.0734 26.3882
464 1 -1.1104 6.5429 19.5839 20.7478
646 1 -1.1104 6.58632 14.0731 23.6194
639 1 -1.1104 6.6433 16.856 26.323
611 2 2.2208 2.51729 15.3098 27.6551
633 2 2.2208 5.23395 18.3266 27.5754
9473 2 2.2208 13.631 21.2249 22.0387
9469 2 2.2208 13.6563 15.5619 22.1697
9470 2 2.2208 13.5928 18.3544 24.8513
579 1 -1.1104 9.48389 19.6645 26.298
384 1 -1.1104 12.1687 19.765 23.4401
351 2 2.2208 10.9302 18.3927 22.0608
511 1 -1.1104 9.55042 16.8066 20.9323
492 1 -1.1104 12.2303 14.1638 20.7008
543 1 -1.1104 12.1556 16.9436 23.4384
385 1 -1.1104 12.3804 14.2099 26.2735
551 1 -1.1104 9.42007 19.6311 23.4175
573 2 2.2208 8.08515 18.2136 25.0182
380 1 -1.1104 12.2978 14.1406 23.5269
610 1 -1.1104 9.41223 16.8152 26.4202
548 2 2.2208 10.8606 21.0403 24.7608
609 1 -1.1104 9.40001 16.9648 23.656
9096 2 2.2208 13.6425 21.0331 27.6774
472 1 -1.1104 6.68669 16.8993 20.8294
577 1 -1.1104 6.68204 19.7839 26.427
544 2 2.2208 10.8678 15.4272 24.8717
550 1 -1.1104 9.50479 14.1415 23.5217
515 1 -1.1104 12.2321 19.6338 26.3004
549 1 -1.1104 12.2203 16.8033 26.4089
578 1 -1.1104 9.58356 13.9733 26.2457
608 2 2.2208 8.04661 20.9946 22.1293
580 2 2.2208 8.14519 15.4353 22.2274
307 2 2.2208 8.09859 21.116 27.6472
306 2 2.2208 10.9304 18.2128 27.6563
651 2 2.2208 5.16049 23.923 5.2301
652 2 2.2208 5.30256 29.5044 5.22094
653 1 -1.1104 1.16414 25.279 1.0791
654 1 -1.1104 1.07783 25.382 3.96616
655 1 -1.1104 0.98191 22.4992 0.962402
656 1 -1.1104 0.914536 28.1616 0.903315
657 2 2.2208 5.259 26.7417 2.45607
658 1 -1.1104 1.104 22.6335 3.66463
659 1 -1.1104 1.11967 28.0511 3.88344
660 1 -1.1104 3.9486 25.3337 1.05888
661 2 2.2208 2.43291 23.9423 2.39756
662 2 2.2208 2.52186 29.549 2.5034
663 1 -1.1104 3.93725 25.2763 3.77052
664 2 2.2208 2.50125 26.7262 5.29253
665 1 -1.1104 3.89154 22.7807 0.931042
666 1 -1.1104 3.82979 28.2232 1.08377
667 1 -1.1104 3.70184 22.3869 3.7765
668 1 -1.1104 3.89018 28.0849 3.89735
800 1 -1.1104 3.93683 27.9879 6.56921
794 1 -1.1104 1.12262 22.5043 6.37856
676 1 -1.1104 6.65141 22.6637 3.66106
672 1 -1.1104 6.64394 25.3553 1.04039
796 1 -1.1104 6.63198 22.5019 6.4404
677 1 -1.1104 6.54905 28.1872 3.8186
9809 2 2.2208 -0.26033 23.9844 5.12099
799 1 -1.1104 3.93488 22.2688 6.60899
9810 2 2.2208 -0.324459 26.7722 2.52642
9807 2 2.2208 -0.277773 29.536 5.32113
974 2 2.2208 5.25892 29.6161 -0.262384
972 2 2.2208 5.31767 23.9079 -0.342971
976 2 2.2208 7.99878 26.6798 -0.341687
9812 2 2.2208 13.476 29.5366 2.30081
675 1 -1.1104 6.69452 28.2383 1.15199
673 1 -1.1104 6.65857 25.4558 3.90974
674 1 -1.1104 6.67903 22.3603 0.977117
678 2 2.2208 10.8208 23.9165 5.1004
679 2 2.2208 10.9994 29.4733 5.22908
680 1 -1.1104 12.405 25.2558 0.815568
681 1 -1.1104 12.1256 25.2507 3.74321
682 1 -1.1104 12.0756 22.4132 1.25483
683 1 -1.1104 12.193 28.0405 1.00901
684 2 2.2208 10.8068 26.6725 2.44286
685 1 -1.1104 12.3602 22.3915 3.96358
686 1 -1.1104 12.3196 28.1241 3.74971
687 1 -1.1104 9.48953 25.2947 0.879001
688 2 2.2208 8.00455 23.9105 2.3212
689 2 2.2208 7.96723 29.6132 2.39939
690 1 -1.1104 9.40723 25.2695 3.84359
691 2 2.2208 8.05236 26.6897 5.33554
692 1 -1.1104 9.51693 22.4103 1.1141
693 1 -1.1104 9.50115 28.1721 0.929418
694 1 -1.1104 9.44012 22.4964 3.83337
695 1 -1.1104 9.45165 28.0557 3.89512
829 1 -1.1104 9.41469 22.4227 6.61869
825 1 -1.1104 12.2531 25.2837 6.60151
9813 2 2.2208 13.6027 26.6224 5.12031
9811 2 2.2208 13.5758 23.9501 2.30649
9815 2 2.2208 -0.252055 32.2164 2.35107
699 2 2.2208 5.38897 35.0479 5.27614
700 1 -1.1104 1.06309 30.7761 1.01549
701 1 -1.1104 1.1344 36.3726 1.04737
703 1 -1.1104 1.02823 30.8438 3.79661
704 1 -1.1104 1.07551 36.447 3.77011
706 1 -1.1104 1.1144 33.7419 1.05196
707 2 2.2208 5.27891 32.3906 2.47164
708 2 2.2208 5.30535 37.7492 2.42348
709 1 -1.1104 1.11348 33.624 3.72299
711 1 -1.1104 3.93477 30.9756 1.20225
712 1 -1.1104 3.89573 36.5986 1.06635
713 2 2.2208 2.49018 35.1255 2.39477
714 1 -1.1104 3.79517 30.9996 3.83021
715 1 -1.1104 3.98608 36.3203 3.87428
716 2 2.2208 2.46552 32.2879 5.17173
717 2 2.2208 2.61547 37.908 5.29716
718 1 -1.1104 4.01687 33.8445 1.14746
719 1 -1.1104 3.95308 33.7011 3.95148
849 1 -1.1104 1.20158 30.8883 6.54772
856 1 -1.1104 3.97359 36.4058 6.50415
850 1 -1.1104 1.25243 36.4303 6.57032
723 1 -1.1104 6.57473 30.9563 0.961272
853 1 -1.1104 1.03201 33.6223 6.5846
855 1 -1.1104 3.99681 30.6988 6.54918
702 1 -1.1104 6.62466 36.5338 0.88207
9814 2 2.2208 -0.261378 37.7807 2.46127
983 2 2.2208 5.20806 35.1369 -0.352607
982 2 2.2208 2.46761 32.349 -0.275954
724 1 -1.1104 6.72795 31.0062 3.71886
710 1 -1.1104 6.84376 33.7 3.85453