ITEM: TIMESTEP
70000
ITEM: NUMBER OF ATOMS
17910
ITEM: BOX BOUNDS pp pp pp
-3.5133344343077494e-01 2.7691333443431397e+01
-4.3623733641092874e+00 3.3244237336411186e+02
-3.5088019747177474e-01 2.7690880197471653e+01
ITEM: ATOMS id type q x y z
1 2 2.2208 5.3226 1.3067 5.16168
2 1 -1.1104 1.01359 -2.87006 0.949696
3 1 -1.1104 1.14316 2.64903 1.01295
6 1 -1.1104 1.14074 -2.84158 3.64582
7 1 -1.1104 1.20806 2.66013 3.82363
10 1 -1.1104 1.28428 -0.248758 1.11291
12 2 2.2208 5.44756 -1.40966 2.39898
13 2 2.2208 5.38526 4.1384 2.25071
14 1 -1.1104 1.17576 -0.042037 3.95945
16 1 -1.1104 4.00779 -2.68989 1.0735
17 1 -1.1104 4.05591 2.77466 0.989509
18 2 2.2208 2.56151 1.26092 2.3483
19 1 -1.1104 3.93551 -2.92272 3.72715
20 1 -1.1104 3.8669 2.608 3.85725
21 2 2.2208 2.49431 -1.47093 5.2587
22 2 2.2208 2.56089 4.04565 5.17187
23 1 -1.1104 3.96553 -0.0262951 1.0716
24 1 -1.1104 4.04158 -0.168057 3.9517
166 1 -1.1104 1.10915 -2.75002 6.52488
170 1 -1.1104 1.15212 0.0431143 6.70921
171 1 -1.1104 6.66147 -0.0957631 6.64844
174 1 -1.1104 3.92814 -0.0851084 6.71735
352 2 2.2208 2.64061 -4.24339 13.4758
9065 2 2.2208 -0.0306739 4.12231 2.32808
172 1 -1.1104 3.82668 -2.97378 6.48878
15 1 -1.1104 6.87803 -0.00346156 3.85096
4 1 -1.1104 6.76869 -2.9029 0.993822
11 1 -1.1104 6.89707 -0.00218302 0.858876
9 1 -1.1104 6.59605 2.77935 3.69612
8 1 -1.1104 6.78242 -2.76497 3.74542
5 1 -1.1104 6.75559 2.69939 0.983125
31 2 2.2208 11.002 1.37716 5.15443
32 1 -1.1104 12.3393 -2.9154 0.817612
33 1 -1.1104 12.4187 2.66248 1.08165
34 1 -1.1104 12.3131 -2.8463 3.69703
35 1 -1.1104 12.3414 2.65909 3.74438
36 1 -1.1104 12.2843 -0.0539747 0.801546
37 2 2.2208 10.8988 -1.59673 2.25943
39 1 -1.1104 12.4304 -0.154817 3.59793
40 1 -1.1104 9.53947 -2.85468 0.938988
41 1 -1.1104 9.67869 2.6408 1.09656
42 2 2.2208 8.13796 1.35592 2.31999
43 1 -1.1104 9.59563 -2.95511 3.71982
44 1 -1.1104 9.4538 2.62795 3.87469
45 2 2.2208 8.13036 -1.49992 5.20103
47 1 -1.1104 9.64705 -0.210655 0.879941
48 1 -1.1104 9.57179 -0.130516 3.7568
38 2 2.2208 11.0216 4.13825 2.32568
46 2 2.2208 8.20434 4.1655 5.0857
169 1 -1.1104 6.78168 2.64546 6.59471
210 1 -1.1104 9.60224 0.0188432 6.45713
207 1 -1.1104 12.36 -0.0521079 6.47798
209 1 -1.1104 9.5808 2.70364 6.6576
205 1 -1.1104 12.2717 -2.82889 6.5127
168 1 -1.1104 6.65865 -2.89651 6.66161
208 1 -1.1104 9.49092 -2.76858 6.45395
206 1 -1.1104 12.3904 2.74953 6.58062
54 2 2.2208 5.3602 6.90608 5.03604
55 2 2.2208 5.33252 12.3379 5.12128
56 1 -1.1104 1.22532 8.26263 1.10953
58 1 -1.1104 1.04473 8.23361 4.01857
60 1 -1.1104 1.22007 5.38888 1.05757
61 1 -1.1104 0.991501 10.9343 1.02742
66 2 2.2208 5.27599 9.63518 2.327
67 1 -1.1104 1.11369 5.50974 3.8417
68 1 -1.1104 1.27398 11.126 3.86082
71 1 -1.1104 3.95321 8.32226 0.951728
72 2 2.2208 2.43253 6.88489 2.451
73 2 2.2208 2.50742 12.4945 2.45984
74 1 -1.1104 3.84772 8.2257 3.88043
75 2 2.2208 2.43105 9.57882 5.34
76 1 -1.1104 3.93314 5.52522 0.914194
77 1 -1.1104 3.86272 11.1036 0.773115
79 1 -1.1104 3.8639 5.5781 3.73226
80 1 -1.1104 4.05074 11.0145 3.60395
52 2 2.2208 10.8951 -4.31672 5.23736
239 1 -1.1104 3.96855 5.47048 6.53052
236 1 -1.1104 1.02781 5.60014 6.74073
78 1 -1.1104 4.03489 10.9838 6.59547
62 1 -1.1104 1.16441 11.2078 6.57384
64 1 -1.1104 6.66237 11.0645 0.927775
8992 2 2.2208 -0.118261 6.94825 10.7469
238 1 -1.1104 3.82938 8.3498 6.6089
234 1 -1.1104 1.07822 8.25518 6.68784
9072 2 2.2208 -0.436608 12.5547 5.30374
69 1 -1.1104 6.66931 5.57444 3.75601
235 1 -1.1104 6.69407 8.18693 6.52442
65 1 -1.1104 6.8511 11.0728 6.4751
63 1 -1.1104 6.76008 5.56313 0.822265
70 1 -1.1104 6.78926 11.0309 3.72546
59 1 -1.1104 6.77878 8.27333 3.66153
57 1 -1.1104 6.70846 8.23236 0.901673
84 2 2.2208 10.9301 6.87458 5.1716
85 2 2.2208 11.0774 12.5888 5.13335
86 1 -1.1104 12.3507 8.42746 1.02158
87 1 -1.1104 12.41 8.23034 3.79096
88 1 -1.1104 12.4134 5.5702 1.07412
89 1 -1.1104 12.3932 11.1651 1.0803
91 2 2.2208 11.0353 9.669 2.4988
92 1 -1.1104 12.4232 5.45599 3.83061
93 1 -1.1104 12.4673 11.1516 3.76887
94 1 -1.1104 9.45965 8.37777 1.02619
95 2 2.2208 8.21125 6.94364 2.43183
96 2 2.2208 8.14417 12.4933 2.33149
97 1 -1.1104 9.55112 8.42389 3.75209
98 2 2.2208 8.24819 9.84192 5.12039
99 1 -1.1104 9.58357 5.42998 0.996646
100 1 -1.1104 9.50602 11.2073 0.955985
102 1 -1.1104 9.61429 5.55854 3.83897
103 1 -1.1104 9.83381 11.2195 3.82777
265 1 -1.1104 12.4382 8.3938 6.5762
90 1 -1.1104 12.2943 11.1403 6.75295
266 1 -1.1104 12.4813 5.6062 6.56627
237 1 -1.1104 6.90859 5.4876 6.60898
267 1 -1.1104 9.66995 8.3465 6.53688
106 2 2.2208 5.32349 18.1755 5.18114
107 1 -1.1104 1.15905 13.8217 1.10815
109 1 -1.1104 1.17966 19.4662 1.09787
113 1 -1.1104 1.22804 13.8875 3.87559
114 1 -1.1104 1.08918 19.402 3.8307
116 1 -1.1104 1.25265 16.4719 0.930648
119 2 2.2208 5.41159 15.3364 2.48701
120 2 2.2208 5.33293 20.9751 2.46204
121 1 -1.1104 1.0441 16.6308 3.81988
123 1 -1.1104 4.02083 13.7901 1.0947
125 1 -1.1104 3.91889 19.5107 1.04692
127 2 2.2208 2.49329 18.0124 2.43027
128 1 -1.1104 3.99726 13.8219 3.81113
129 1 -1.1104 3.88944 19.5024 3.79645
130 2 2.2208 2.48645 15.397 5.17793
131 2 2.2208 2.51735 20.9219 5.17614
132 1 -1.1104 3.97264 16.6825 1.05588
134 1 -1.1104 3.9856 16.7219 3.89782
9085 2 2.2208 -0.119364 -4.14743 10.74
124 1 -1.1104 3.77711 14.0187 6.55261
126 1 -1.1104 3.91512 19.5871 6.64612
302 1 -1.1104 1.09812 19.5817 6.62349
117 1 -1.1104 0.926532 16.7843 6.50373
133 1 -1.1104 3.81764 16.8615 6.56837
513 2 2.2208 10.934 15.3487 13.7848
110 1 -1.1104 6.7822 14.0795 0.971104
108 1 -1.1104 1.01644 13.9283 6.67558
112 1 -1.1104 6.79786 19.4584 6.63411
122 1 -1.1104 6.73492 16.7386 3.75396
138 1 -1.1104 6.75962 19.5312 1.13342
115 1 -1.1104 6.85971 13.8711 3.75679
140 1 -1.1104 6.90338 16.6815 1.055
139 1 -1.1104 6.70608 19.6624 3.86607
141 2 2.2208 10.9375 18.1962 5.07758
142 1 -1.1104 12.3852 14.0539 1.06781
144 1 -1.1104 12.4317 19.3931 0.922755
146 1 -1.1104 12.4723 13.8795 3.83387
147 1 -1.1104 12.4706 19.5017 3.74384
148 1 -1.1104 12.4033 16.8066 0.955987
150 2 2.2208 10.9281 15.266 2.54189
151 2 2.2208 10.9162 20.8048 2.42372
152 1 -1.1104 12.2621 16.6909 3.83706
153 1 -1.1104 9.50509 13.9728 1.08721
155 1 -1.1104 9.61891 19.4948 1.02537
157 2 2.2208 8.10015 18.1268 2.37116
158 1 -1.1104 9.62796 13.9008 3.9307
159 1 -1.1104 9.49051 19.5056 3.84404
160 2 2.2208 8.13871 15.3517 5.20199
161 2 2.2208 8.11543 20.9757 5.2576
162 1 -1.1104 9.63714 16.744 0.972871
164 1 -1.1104 9.42549 16.701 3.89126
156 1 -1.1104 9.53205 19.5848 6.50578
111 1 -1.1104 6.76493 13.7966 6.47991
154 1 -1.1104 9.58669 13.925 6.72625
149 1 -1.1104 12.3707 16.6242 6.54534
163 1 -1.1104 9.52189 16.718 6.59061
118 1 -1.1104 6.69473 16.7061 6.70967
9066 2 2.2208 -0.122698 -4.22997 5.23467
53 2 2.2208 10.8946 15.3795 8.03552
232 2 2.2208 11.0189 -4.29203 10.6714
355 2 2.2208 5.20258 4.18676 13.5665
167 1 -1.1104 1.16128 2.97543 6.68493
173 1 -1.1104 3.85068 2.78954 6.59503
310 2 2.2208 10.9 21.0157 13.5563
9093 2 2.2208 -0.458287 20.8747 13.6165
175 2 2.2208 5.24139 1.3915 10.7367
176 1 -1.1104 1.20342 -2.65347 12.1255
177 1 -1.1104 1.14032 2.77549 12.2674
180 1 -1.1104 1.25228 -2.7027 9.41114
181 1 -1.1104 1.33444 2.88656 9.30482
184 1 -1.1104 1.01644 -0.0205248 12.1822
186 2 2.2208 5.29049 -1.42864 7.97029
188 1 -1.1104 1.18439 0.0615946 9.44441
190 1 -1.1104 4.03449 -2.91797 12.1882
191 1 -1.1104 3.87682 2.8842 12.1631
192 2 2.2208 2.59304 1.50704 8.02857
193 1 -1.1104 4.0153 -2.86171 9.38834
194 1 -1.1104 3.87787 2.8163 9.51809
195 2 2.2208 2.58294 -1.39065 10.8278
197 1 -1.1104 3.6596 -0.0429438 12.2317
198 1 -1.1104 3.98219 -0.027767 9.44897
187 2 2.2208 5.46358 4.24601 8.00144
196 2 2.2208 2.52535 4.25046 10.8133
354 2 2.2208 2.40081 1.33937 13.6276
353 2 2.2208 5.3584 -1.50062 13.634
9073 2 2.2208 13.8531 12.4727 2.37588
9476 2 2.2208 -0.320565 -1.53716 13.5165
189 1 -1.1104 6.60064 -0.0313372 9.44097
178 1 -1.1104 6.65581 -2.88542 12.2415
179 1 -1.1104 6.64425 2.85085 12.1702
182 1 -1.1104 6.81015 -2.82091 9.44299
183 1 -1.1104 6.78049 2.80548 9.34257
185 1 -1.1104 6.60217 -0.0968855 12.1674
211 2 2.2208 10.9291 1.2846 10.7128
212 1 -1.1104 12.4102 -2.98133 12.0606
213 1 -1.1104 12.4219 2.60175 12.1212
214 1 -1.1104 12.3998 -2.94296 9.23582
215 1 -1.1104 12.3162 2.70665 9.38621
216 1 -1.1104 12.3696 -0.0498517 12.041
217 2 2.2208 10.8607 -1.41055 7.79076
219 1 -1.1104 12.4704 0.0351586 9.34374
220 1 -1.1104 9.55333 -2.92361 12.1708
221 1 -1.1104 9.57961 2.82133 12.1964
222 2 2.2208 8.15061 1.42117 7.95275
223 1 -1.1104 9.48209 -2.79463 9.24707
224 1 -1.1104 9.60979 2.79802 9.43192
225 2 2.2208 8.14908 -1.45431 10.8469
226 2 2.2208 8.14918 4.24598 10.8746
227 1 -1.1104 9.49866 -0.154036 12.289
228 1 -1.1104 9.56302 -0.123111 9.29715
218 2 2.2208 10.9812 4.1699 7.88163
388 2 2.2208 10.934 4.07877 13.5496
631 2 2.2208 8.1892 9.78699 -0.383703
8984 2 2.2208 -0.169285 12.45 10.8438
422 2 2.2208 2.58091 6.94997 13.6112
9077 2 2.2208 -0.326747 18.1397 5.09863
200 1 -1.1104 9.48136 16.7396 9.32111
30 1 -1.1104 12.4191 14.0466 9.45442
9083 2 2.2208 -0.32607 18.1756 10.7437
231 2 2.2208 8.10773 -4.26828 7.94744
240 2 2.2208 5.41988 7.11478 10.7095
241 2 2.2208 5.36425 12.4825 10.7987
242 1 -1.1104 1.22831 8.41428 12.3071
244 1 -1.1104 1.13285 8.42096 9.42018
246 1 -1.1104 1.15671 5.56286 12.2259
247 1 -1.1104 1.05347 11.1453 12.3274
250 2 2.2208 5.41064 9.6385 7.95386
251 1 -1.1104 1.18132 5.70339 9.41782
252 1 -1.1104 1.21364 11.136 9.33994
255 1 -1.1104 4.15367 8.48973 12.1999
256 2 2.2208 2.61522 6.86477 7.97081
257 2 2.2208 2.57252 12.5315 7.93027
258 1 -1.1104 3.94883 8.38806 9.40867
259 2 2.2208 2.57208 9.80158 10.7538
260 1 -1.1104 4.05324 5.59857 12.112
261 1 -1.1104 3.79005 11.1005 12.1702
262 1 -1.1104 3.93849 5.62242 9.22728
263 1 -1.1104 3.96047 11.1209 9.21694
9082 2 2.2208 -0.284408 15.3433 8.01519
243 1 -1.1104 6.89093 8.30867 12.1954
254 1 -1.1104 6.75106 11.0252 9.58698
165 2 2.2208 8.15977 20.8057 10.8241
101 1 -1.1104 9.57482 11.2254 6.56527
245 1 -1.1104 6.82494 8.41826 9.34165
248 1 -1.1104 6.71381 5.61837 12.2716
249 1 -1.1104 6.6976 11.111 12.3772
253 1 -1.1104 6.77596 5.63054 9.4801
269 1 -1.1104 9.62817 5.62195 6.50409
264 1 -1.1104 9.55114 11.2222 9.48724
268 1 -1.1104 9.56864 5.52699 9.24072
270 1 -1.1104 9.50775 11.1156 12.1523
271 1 -1.1104 9.54381 5.63157 12.2278
272 2 2.2208 8.1373 9.73438 10.8923
273 1 -1.1104 9.58067 8.25388 9.35833
274 2 2.2208 8.14631 12.6493 8.02174
275 2 2.2208 8.26387 7.01425 7.97476
276 2 2.2208 10.9156 7.00671 10.9729
277 2 2.2208 11.033 12.5241 10.9441
278 1 -1.1104 12.2972 8.41422 12.2727
279 1 -1.1104 12.2313 8.17618 9.57222
280 1 -1.1104 12.403 5.54264 12.1707
281 1 -1.1104 12.355 11.0884 12.3178
282 2 2.2208 10.8818 9.71097 8.0278
283 1 -1.1104 12.5171 5.5232 9.42584
284 1 -1.1104 12.2803 10.992 9.47325
285 1 -1.1104 9.53229 8.36078 12.3765
9084 2 2.2208 -0.32164 20.9309 7.88315
450 2 2.2208 10.8107 9.65071 13.721
26 1 -1.1104 12.4456 13.898 12.2039
50 1 -1.1104 12.3923 16.6266 12.3899
290 1 -1.1104 6.82619 13.8563 9.41277
9075 2 2.2208 -0.126078 15.2397 2.38404
137 2 2.2208 8.14823 15.39 10.8795
311 2 2.2208 8.1388 18.1618 13.6996
203 2 2.2208 5.3719 -4.31603 10.8018
296 1 -1.1104 6.72155 19.522 12.2217
201 2 2.2208 2.52858 15.3713 10.854
204 2 2.2208 2.52285 20.9483 10.829
229 1 -1.1104 3.89572 16.8565 12.2829
230 1 -1.1104 1.10299 16.7733 12.1357
286 1 -1.1104 3.84645 19.5121 12.2219
287 1 -1.1104 3.91203 13.9599 12.1287
291 1 -1.1104 1.09189 19.6727 9.44105
292 1 -1.1104 1.10496 16.6678 9.44706
293 2 2.2208 5.33993 20.977 8.01116
294 1 -1.1104 1.27512 13.9762 9.47982
295 2 2.2208 5.28859 15.3597 7.96512
298 1 -1.1104 1.00284 19.5557 12.1467
299 1 -1.1104 1.08954 13.9548 12.4914
300 2 2.2208 5.15492 18.1666 10.8817
301 1 -1.1104 3.89213 19.5783 9.55903
303 2 2.2208 2.48514 18.2075 7.89271
304 1 -1.1104 3.83012 16.8539 9.40988
305 1 -1.1104 4.10554 13.8675 9.30602
81 2 2.2208 10.9675 20.9523 7.98477
288 1 -1.1104 6.70068 19.5176 9.40745
233 1 -1.1104 6.77605 16.7892 12.3183
104 1 -1.1104 9.66189 19.6189 12.1957
28 2 2.2208 2.53476 -4.27903 2.30561
199 1 -1.1104 9.48424 16.7655 12.2245
136 1 -1.1104 9.59782 19.5172 9.37924
297 1 -1.1104 6.80226 14.0476 12.2871
25 2 2.2208 10.9838 18.1597 10.7983
82 1 -1.1104 12.3688 16.9014 9.41935
289 1 -1.1104 6.67348 16.695 9.46479
143 1 -1.1104 12.5015 13.9292 6.60025
145 1 -1.1104 12.2849 19.4379 6.52477
27 1 -1.1104 12.3424 19.497 12.2023
135 1 -1.1104 9.60081 14.0691 9.4611
49 1 -1.1104 12.385 19.5724 9.32703
105 2 2.2208 8.20989 18.0675 8.01654
83 1 -1.1104 9.74646 13.8373 12.3359
9171 2 2.2208 -0.268668 4.13187 13.6471
9076 2 2.2208 -0.323741 20.9052 2.32727
9312 2 2.2208 -0.369615 15.3838 13.6301
9064 2 2.2208 -0.223189 1.31015 5.19315
9071 2 2.2208 -0.338407 9.72418 2.43779
451 2 2.2208 8.23193 12.6036 13.6817
9086 2 2.2208 13.7834 1.37888 8.06402
9081 2 2.2208 -0.0948739 1.3545 10.8497
9061 2 2.2208 -0.229234 -1.45818 2.44477
8762 2 2.2208 13.802 4.16992 5.33
8791 2 2.2208 13.8054 9.85831 5.21
9067 2 2.2208 13.6821 1.30892 2.356
8860 2 2.2208 13.7301 15.3796 5.29283
9097 2 2.2208 13.7878 18.0647 13.7222
487 2 2.2208 5.29527 15.399 13.6042
449 2 2.2208 8.13573 6.92877 13.6046
423 2 2.2208 5.27066 9.82294 13.6275
9128 2 2.2208 13.8607 1.20836 13.5213
572 2 2.2208 8.15158 4.21013 -0.463588
309 2 2.2208 5.38199 20.8231 13.6191
306 2 2.2208 10.9414 18.1853 -0.4083
386 2 2.2208 8.11356 1.44069 13.5727
313 2 2.2208 5.42396 1.34202 16.3039
314 1 -1.1104 1.11118 -3.04171 17.6738
315 1 -1.1104 1.0696 2.67333 17.8849
318 1 -1.1104 1.14074 -2.92862 14.8734
320 1 -1.1104 0.969963 2.85554 15.1634
326 1 -1.1104 1.23531 -0.117087 17.7814
328 2 2.2208 5.45878 -1.57473 19.1879
330 1 -1.1104 1.20763 0.0304652 15.0728
334 1 -1.1104 4.08989 -2.84397 17.7792
335 1 -1.1104 4.03 2.70399 17.8015
336 2 2.2208 2.65212 1.2881 19.1574
337 1 -1.1104 3.89296 -2.97218 15.0431
339 1 -1.1104 3.90014 2.64712 15.0894
341 2 2.2208 2.54636 -1.55325 16.2977
343 1 -1.1104 4.019 -0.147945 17.7177
344 1 -1.1104 3.95184 -0.203572 14.9107
329 2 2.2208 5.29563 4.15288 19.252
342 2 2.2208 2.51564 4.17886 16.4674
332 1 -1.1104 6.79363 -0.0950676 14.9482
321 1 -1.1104 1.11694 2.6519 20.5334
9269 2 2.2208 13.8252 9.68702 27.7593
546 2 2.2208 5.35632 -4.33027 21.9187
9205 2 2.2208 -0.189204 12.623 16.4894
338 1 -1.1104 3.97184 -3.04712 20.5346
345 1 -1.1104 4.06251 -0.116038 20.5259
340 1 -1.1104 3.84862 2.63056 20.6372
319 1 -1.1104 1.13787 -2.72444 20.494
331 1 -1.1104 1.32116 -0.0292461 20.4767
9474 2 2.2208 -0.334192 1.33777 16.3272
325 1 -1.1104 6.70599 2.64976 20.5433
324 1 -1.1104 6.81488 2.78635 14.8569
322 1 -1.1104 6.72483 -2.79376 14.9216
316 1 -1.1104 6.77795 -2.92836 17.7583
327 1 -1.1104 6.83191 -0.113813 17.7796
317 1 -1.1104 6.73371 2.77297 17.8805
356 2 2.2208 11.0454 1.16611 16.4081
357 1 -1.1104 12.4148 -2.85566 17.8027
358 1 -1.1104 12.2746 2.68027 17.7981
359 1 -1.1104 12.356 -2.98739 14.8078
361 1 -1.1104 12.437 2.59681 14.9501
363 1 -1.1104 12.4108 -0.0360158 17.9063
364 2 2.2208 10.9161 -1.40174 19.201
366 1 -1.1104 12.5289 -0.307196 14.8574
368 1 -1.1104 9.55618 -2.73743 17.6369
369 1 -1.1104 9.56981 2.78088 17.8553
370 2 2.2208 8.25323 1.32933 19.1985
371 1 -1.1104 9.62077 -2.81938 14.9582
373 1 -1.1104 9.5609 2.71674 14.9324
375 2 2.2208 8.20434 -1.46839 16.2897
377 1 -1.1104 9.67005 -0.0548107 17.7561
378 1 -1.1104 9.57408 -0.0155453 14.9496
365 2 2.2208 10.9514 4.1336 19.2125
376 2 2.2208 8.20495 4.04243 16.5094
323 1 -1.1104 6.86286 -2.92386 20.5656
372 1 -1.1104 9.54142 -2.74827 20.5366
360 1 -1.1104 12.3332 -2.8137 20.545
333 1 -1.1104 6.79889 -0.132005 20.653
379 1 -1.1104 9.59955 0.0529494 20.4819
362 1 -1.1104 12.4331 2.85412 20.5101
374 1 -1.1104 9.61181 2.78067 20.6756
367 1 -1.1104 12.2915 -0.0600747 20.609
547 2 2.2208 2.54387 -4.44844 24.7673
389 2 2.2208 5.34723 6.85372 16.4789
390 2 2.2208 5.31064 12.6393 16.4008
391 1 -1.1104 1.16171 8.52596 17.8992
393 1 -1.1104 1.12794 8.40389 15.0208
397 1 -1.1104 1.18955 5.6398 17.9346
398 1 -1.1104 1.16283 11.2711 17.8958
401 2 2.2208 5.24528 9.60497 19.2329
402 1 -1.1104 1.23959 5.70077 15.0251
404 1 -1.1104 1.15745 11.1654 15.082
410 1 -1.1104 3.91156 8.39483 17.8294
411 2 2.2208 2.51636 7.15885 19.2273
412 2 2.2208 2.57598 12.6015 19.1751
413 1 -1.1104 3.91847 8.22294 15.0125
415 2 2.2208 2.5549 9.75054 16.4189
416 1 -1.1104 3.91975 5.65435 17.9664
417 1 -1.1104 3.93909 11.1824 17.612
418 1 -1.1104 3.87451 5.53915 15.0439
420 1 -1.1104 3.91948 11.1546 14.9247
348 2 2.2208 2.51435 -4.37765 19.1569
421 1 -1.1104 3.73909 10.8112 20.3985
394 1 -1.1104 1.00063 8.39497 20.6847
405 1 -1.1104 1.1527 11.1497 20.6756
395 1 -1.1104 6.76459 8.14145 15.0238
406 1 -1.1104 6.80016 5.45804 14.9528
407 1 -1.1104 6.60398 5.4071 20.5563
396 1 -1.1104 6.69212 8.37757 20.6954
409 1 -1.1104 6.65073 11.1356 20.5581
403 1 -1.1104 1.11014 5.51506 20.6252
414 1 -1.1104 3.93088 8.2366 20.6515
419 1 -1.1104 3.84974 5.40526 20.6908
399 1 -1.1104 6.82603 5.65013 17.8583
400 1 -1.1104 6.7681 11.1061 17.813
408 1 -1.1104 6.68376 11.0256 15.1582
392 1 -1.1104 6.7199 8.26405 17.8602
425 2 2.2208 10.9609 6.86631 16.4996
426 2 2.2208 10.9044 12.4696 16.5363
427 1 -1.1104 12.1802 8.47455 17.9315
428 1 -1.1104 12.3237 8.09931 15.1958
430 1 -1.1104 12.5003 5.65076 17.7804
431 1 -1.1104 12.2783 11.2312 17.912
432 2 2.2208 10.8766 9.76427 19.4429
433 1 -1.1104 12.3095 5.35539 15.024
435 1 -1.1104 12.2588 11.0971 15.1274
437 1 -1.1104 9.53189 8.33454 18.0415
438 2 2.2208 8.14321 6.94777 19.2943
439 2 2.2208 8.10288 12.449 19.3598
440 1 -1.1104 9.59591 8.39794 15.3108
442 2 2.2208 8.23241 9.66889 16.5596
443 1 -1.1104 9.55613 5.5158 17.7272
444 1 -1.1104 9.40467 11.1309 18.0132
445 1 -1.1104 9.58876 5.54891 14.9851
447 1 -1.1104 9.52086 11.2329 14.9381
436 1 -1.1104 12.3444 11.2782 20.7665
448 1 -1.1104 9.49178 11.1322 20.762
429 1 -1.1104 12.2763 8.39178 20.685
434 1 -1.1104 12.3772 5.4364 20.5767
446 1 -1.1104 9.42066 5.48493 20.5643
441 1 -1.1104 9.48856 8.30473 20.8318
384 1 -1.1104 12.3521 19.4065 23.3789
452 2 2.2208 5.25524 18.1631 16.4144
453 1 -1.1104 0.995437 14.0233 17.9557
454 1 -1.1104 1.16308 19.5119 17.8945
457 1 -1.1104 1.15805 13.9669 15.0792
459 1 -1.1104 1.05869 19.5094 15.1341
465 1 -1.1104 1.06505 16.7997 17.9391
467 2 2.2208 5.33878 15.339 19.3477
468 2 2.2208 5.2987 21.0212 19.0596
469 1 -1.1104 1.10393 16.7757 15.0332
473 1 -1.1104 3.81595 13.9358 17.9505
474 1 -1.1104 3.78794 19.4796 17.874
475 2 2.2208 2.44674 18.0502 19.359
476 1 -1.1104 3.98719 13.9918 15.0337
478 1 -1.1104 3.94634 19.5542 15.0358
480 2 2.2208 2.38975 15.3797 16.4433
481 2 2.2208 2.37424 20.8828 16.4197
482 1 -1.1104 3.83464 16.7489 17.7887
483 1 -1.1104 3.82545 16.792 15.0558
479 1 -1.1104 3.95319 19.5479 20.5981
458 1 -1.1104 1.34074 14.0057 20.6166
477 1 -1.1104 3.98448 13.7912 20.6915
463 1 -1.1104 6.69602 19.5156 15.0013
456 1 -1.1104 6.68603 19.4778 17.6704
462 1 -1.1104 6.71342 13.9525 20.7078
470 1 -1.1104 0.990384 16.7842 20.7764
579 1 -1.1104 9.51085 19.5349 26.2934
461 1 -1.1104 6.67003 13.9342 14.994
472 1 -1.1104 6.87324 16.7799 20.6752
455 1 -1.1104 6.62303 13.9561 17.8679
466 1 -1.1104 6.69324 16.6399 17.8198
471 1 -1.1104 6.60793 16.7515 15.118
499 1 -1.1104 12.421 16.7562 20.7952
488 2 2.2208 11.0782 18.1864 16.4805
489 1 -1.1104 12.3235 14.0201 17.8965
490 1 -1.1104 12.3346 19.5557 17.9425
491 1 -1.1104 12.3584 13.9672 15.065
493 1 -1.1104 12.4105 19.4949 15.1167
495 1 -1.1104 12.4013 16.8114 17.923
496 2 2.2208 10.8406 15.32 19.1319
497 2 2.2208 10.94 20.9249 19.3448
498 1 -1.1104 12.381 16.7608 15.1678
500 1 -1.1104 9.44078 13.999 17.8921
501 1 -1.1104 9.52519 19.5063 17.7705
502 2 2.2208 8.0884 18.1037 19.1618
503 1 -1.1104 9.43533 13.9108 15.1067
505 1 -1.1104 9.65747 19.5255 15.0535
507 2 2.2208 8.19727 15.3906 16.5341
508 2 2.2208 8.35635 20.8405 16.3377
509 1 -1.1104 9.52972 16.8334 17.7538
510 1 -1.1104 9.57972 16.7399 15.0138
494 1 -1.1104 12.244 19.291 20.6866
464 1 -1.1104 6.70703 19.4453 20.5513
506 1 -1.1104 9.52333 19.425 20.6398
511 1 -1.1104 9.66951 16.7392 20.6615
492 1 -1.1104 12.3897 14.0167 20.5807
387 2 2.2208 11.0982 -1.47022 13.4626
9480 2 2.2208 -0.347255 12.5453 22.0509
551 1 -1.1104 9.47535 19.522 23.355
516 2 2.2208 5.35672 1.31956 21.968
517 1 -1.1104 1.20037 -2.96403 23.3215
518 1 -1.1104 1.14451 2.67242 23.368
521 1 -1.1104 1.28991 -2.94645 26.2472
522 1 -1.1104 1.1276 2.58905 26.2653
525 1 -1.1104 1.14044 -0.105737 23.275
527 2 2.2208 5.34981 -1.54286 24.749
528 2 2.2208 5.25711 4.0118 24.8986
529 1 -1.1104 1.21557 -0.1685 26.1122
531 1 -1.1104 3.97607 -2.93683 23.3191
532 1 -1.1104 3.80198 2.73678 23.4501
533 2 2.2208 2.44702 1.24466 24.8093
534 1 -1.1104 4.11934 -2.97104 26.1139
535 1 -1.1104 3.79217 2.56981 26.3213
536 2 2.2208 2.56438 -1.48434 21.8968
538 1 -1.1104 3.97655 -0.212092 23.2878
539 1 -1.1104 3.98485 -0.11704 26.1712
537 2 2.2208 2.53701 4.15051 21.9225
9485 2 2.2208 -0.262859 1.4112 21.9289
9309 2 2.2208 -0.258955 20.9692 19.3627
9482 2 2.2208 -0.296843 -4.14629 21.9963
543 1 -1.1104 12.3341 16.686 23.4532
9433 2 2.2208 -0.258655 20.9282 24.7921
9468 2 2.2208 -0.131583 -4.38075 16.3155
380 1 -1.1104 12.5502 13.8551 23.5189
530 1 -1.1104 6.77035 -0.239058 26.075
524 1 -1.1104 6.71362 2.55808 26.0938
526 1 -1.1104 6.83944 -0.0668085 23.3446
520 1 -1.1104 6.71308 2.71265 23.3041
523 1 -1.1104 6.79923 -2.95426 26.1476
519 1 -1.1104 6.74204 -2.89507 23.3499
552 2 2.2208 10.9706 1.41929 21.9862
553 1 -1.1104 12.3974 -2.83646 23.247
554 1 -1.1104 12.3308 2.69177 23.3713
555 1 -1.1104 12.4195 -2.77762 25.968
556 1 -1.1104 12.4866 2.70214 26.28
557 1 -1.1104 12.4595 0.0209424 23.398
558 2 2.2208 11.0455 -1.50451 24.689
560 1 -1.1104 12.4553 0.0344238 26.1295
561 1 -1.1104 9.59357 -2.70929 23.2574
562 1 -1.1104 9.43503 2.54351 23.3995
563 2 2.2208 8.15006 1.2698 24.694
564 1 -1.1104 9.76534 -2.94612 26.1297
565 1 -1.1104 9.62423 2.64251 26.2206
566 2 2.2208 8.16829 -1.49856 21.9475
568 1 -1.1104 9.6369 -0.034767 23.2087
569 1 -1.1104 9.60303 -0.15984 26.0684
567 2 2.2208 8.02135 4.07758 21.9743
559 2 2.2208 10.8538 4.02324 24.8455
570 2 2.2208 11.034 1.28968 27.4969
346 2 2.2208 8.19123 15.2781 27.562
9475 2 2.2208 -0.253084 -1.49977 19.1577
381 2 2.2208 10.9976 -4.25249 16.3843
9331 2 2.2208 13.7639 4.03569 22.1221
9311 2 2.2208 -0.33357 18.106 16.5468
607 2 2.2208 5.25935 12.4265 27.5045
9418 2 2.2208 -0.358372 6.8984 22.0241
486 1 -1.1104 6.66673 16.803 23.4124
581 2 2.2208 5.21861 6.81967 22.0335
582 2 2.2208 5.33389 12.3659 22.0949
583 1 -1.1104 1.0744 8.38042 23.3297
585 1 -1.1104 1.08721 8.36922 26.4003
587 1 -1.1104 0.828895 5.46202 23.5556
588 1 -1.1104 1.09096 11.1301 23.4965
591 2 2.2208 5.35453 9.60525 24.8956
592 1 -1.1104 1.17695 5.53882 26.2793
593 1 -1.1104 1.07622 11.2172 26.2058
596 1 -1.1104 4.07266 8.17266 23.5169
597 2 2.2208 2.40743 6.83121 24.789
598 2 2.2208 2.53422 12.5101 24.8141
599 1 -1.1104 3.80724 8.12316 26.1381
600 2 2.2208 2.44006 9.70877 22.0149
601 1 -1.1104 3.76393 5.52651 23.4468
602 1 -1.1104 3.91003 10.9739 23.3419
603 1 -1.1104 3.92781 5.18811 26.1844
604 1 -1.1104 3.82669 11.0617 26.0765
586 1 -1.1104 6.7517 8.14724 26.3056
595 1 -1.1104 6.63354 11.1172 26.1529
9167 2 2.2208 -0.286211 4.09687 19.1256
9472 2 2.2208 -0.246186 6.98283 27.6509
9274 2 2.2208 13.7699 12.4617 24.9478
550 1 -1.1104 9.60538 14.0331 23.4066
9492 2 2.2208 -0.203534 12.5595 27.5634
594 1 -1.1104 6.69915 5.30522 26.2114
590 1 -1.1104 6.73755 11.1776 23.4673
584 1 -1.1104 6.77797 8.31636 23.5076
589 1 -1.1104 6.44641 5.41628 23.5199
612 1 -1.1104 9.43979 11.1622 26.237
613 1 -1.1104 9.56278 5.51127 26.278
614 1 -1.1104 9.55774 11.0884 23.4409
615 1 -1.1104 9.30471 5.46804 23.4979
616 2 2.2208 8.12545 9.78081 22.0264
617 1 -1.1104 9.49977 8.26046 26.2505
618 2 2.2208 8.22103 12.506 24.7681
619 2 2.2208 8.02549 6.9257 24.8356
620 2 2.2208 10.7443 6.85634 22.1752
621 2 2.2208 10.973 12.6228 22.0978
622 1 -1.1104 12.3118 8.26678 23.519
623 1 -1.1104 12.3096 8.21054 26.3029
624 1 -1.1104 12.0583 5.48747 23.4732
625 1 -1.1104 12.3824 11.0748 23.5636
626 2 2.2208 10.9029 9.6026 24.9774
627 1 -1.1104 12.3236 5.53599 26.4058
628 1 -1.1104 12.3167 10.9448 26.2938
629 1 -1.1104 9.4294 8.2449 23.5972
541 2 2.2208 2.59621 -1.61277 27.6253
9484 2 2.2208 -0.132025 -1.42755 24.737
637 1 -1.1104 6.73254 13.8097 26.173
606 2 2.2208 2.4642 9.7026 27.609
460 1 -1.1104 1.16224 19.4228 20.7222
484 1 -1.1104 3.96485 16.6592 20.6405
312 2 2.2208 2.5848 20.856 27.6903
349 2 2.2208 2.50271 20.9137 22.0301
350 1 -1.1104 3.88504 16.7554 23.4114
485 1 -1.1104 1.1686 16.7776 23.6495
512 1 -1.1104 4.07706 13.9683 26.3541
514 1 -1.1104 4.0244 16.7874 26.2526
634 2 2.2208 2.56234 18.1534 24.8601
635 2 2.2208 2.59706 15.2691 22.0666
636 1 -1.1104 4.03248 19.5614 23.4365
638 1 -1.1104 3.96186 13.9034 23.5062
640 1 -1.1104 1.12232 19.5136 26.2719
641 1 -1.1104 1.20791 16.7548 26.2879
642 1 -1.1104 1.12785 13.9888 26.2672
644 2 2.2208 5.24982 20.9661 24.8224
645 2 2.2208 5.40073 15.29 24.8524
647 1 -1.1104 1.10931 19.5642 23.4462
648 1 -1.1104 1.06936 14.0004 23.3071
649 2 2.2208 5.38664 18.2507 22.1232
650 1 -1.1104 3.93787 19.5571 26.2587
577 1 -1.1104 6.74457 19.53 26.3517
632 2 2.2208 10.9852 12.6175 27.7114
611 2 2.2208 2.70359 15.2448 27.6978
544 2 2.2208 11.0152 15.2364 24.7075
385 1 -1.1104 12.4508 13.8592 26.3017
646 1 -1.1104 6.8099 13.8699 23.3804
504 1 -1.1104 9.552 13.9583 20.7073
608 2 2.2208 8.15055 20.8788 21.995
351 2 2.2208 10.8795 18.0162 22.0945
573 2 2.2208 8.12845 18.1986 24.8376
610 1 -1.1104 9.633 16.7686 26.2115
515 1 -1.1104 12.2084 19.5908 26.1428
639 1 -1.1104 6.85514 16.7162 26.2465
580 2 2.2208 8.1185 15.3357 22.0775
549 1 -1.1104 12.4738 16.641 26.2876
643 1 -1.1104 6.79078 19.6416 23.512
548 2 2.2208 10.9051 20.9776 24.7578
609 1 -1.1104 9.50225 16.72 23.5518
578 1 -1.1104 9.5752 13.8549 26.1565
9240 2 2.2208 -0.164486 6.93212 16.4197
9493 2 2.2208 -0.28648 9.74902 24.8816
571 2 2.2208 8.16049 -1.57381 27.6166
9486 2 2.2208 -0.246927 4.01388 24.81
9239 2 2.2208 -0.312137 9.74362 19.2877
424 2 2.2208 2.44308 12.5773 13.6595
633 2 2.2208 5.45719 18.1268 27.665
605 2 2.2208 5.30371 6.81848 27.4359
307 2 2.2208 8.16365 20.9253 27.7074
540 2 2.2208 5.35254 1.34833 27.596
542 2 2.2208 2.45777 4.02534 27.6875
630 2 2.2208 10.8351 6.87242 27.6861
9471 2 2.2208 13.8208 15.3685 27.6338
308 2 2.2208 2.40819 18.1607 13.6052
574 2 2.2208 10.9338 -4.38872 27.5505
651 2 2.2208 5.37368 23.7852 5.05065
652 2 2.2208 5.37968 29.3339 5.06626
653 1 -1.1104 1.18152 25.121 0.968091
654 1 -1.1104 1.27242 25.0776 3.69486
655 1 -1.1104 1.17976 22.2719 0.916385
656 1 -1.1104 1.16653 28.0218 0.919295
657 2 2.2208 5.29265 26.5426 2.26884
658 1 -1.1104 1.06252 22.1659 3.72739
659 1 -1.1104 1.16575 28.0687 3.96058
660 1 -1.1104 3.81194 25.0995 0.912597
661 2 2.2208 2.50587 23.7191 2.2658
662 2 2.2208 2.60749 29.3335 2.38163
663 1 -1.1104 3.97835 25.1105 3.74807
664 2 2.2208 2.57515 26.5449 5.25956
665 1 -1.1104 4.06856 22.2815 0.951706
666 1 -1.1104 3.9014 27.968 0.839172
667 1 -1.1104 3.87637 22.2156 3.71321
668 1 -1.1104 3.92311 27.8487 3.74473
798 1 -1.1104 4.0122 25.1608 6.56532
795 1 -1.1104 1.18599 27.8741 6.78077
794 1 -1.1104 1.15334 22.2898 6.74265
800 1 -1.1104 4.05926 27.9842 6.51185
9809 2 2.2208 -0.150391 23.6761 5.11878
9839 2 2.2208 -0.30864 26.4985 13.607
677 1 -1.1104 6.78957 27.9656 3.859
797 1 -1.1104 6.88812 27.9801 6.67881
958 2 2.2208 5.40385 32.0899 13.5516
792 1 -1.1104 1.29497 25.0827 6.48941
9820 2 2.2208 -0.284443 40.6449 5.34039
673 1 -1.1104 6.73891 25.0379 3.58764
675 1 -1.1104 6.56971 28.0577 1.06009
672 1 -1.1104 6.54228 25.0941 0.855873
676 1 -1.1104 6.7571 22.2904 3.78828
674 1 -1.1104 6.81123 22.3683 0.910685
678 2 2.2208 10.9236 23.7378 5.22905
679 2 2.2208 10.9166 29.3346 5.09328
680 1 -1.1104 12.322 25.112 0.938467
681 1 -1.1104 12.2604 25.1896 3.95221
682 1 -1.1104 12.3369 22.2254 1.06829
683 1 -1.1104 12.3522 27.9843 1.14308
684 2 2.2208 10.9019 26.4312 2.31936
685 1 -1.1104 12.2456 22.3384 3.90351
686 1 -1.1104 12.409 27.9101 3.83243
687 1 -1.1104 9.5269 25.163 0.934876
688 2 2.2208 8.12644 23.6633 2.25296
689 2 2.2208 8.17807 29.4066 2.36928
690 1 -1.1104 9.55579 25.1447 3.76416
691 2 2.2208 8.09856 26.5479 5.16681
692 1 -1.1104 9.48955 22.3065 0.952594
693 1 -1.1104 9.28256 27.9051 0.849926
694 1 -1.1104 9.52194 22.2216 3.7406
695 1 -1.1104 9.50525 27.8971 3.66302
828 1 -1.1104 9.50296 25.1296 6.45486
830 1 -1.1104 9.67895 27.9457 6.48654
829 1 -1.1104 9.55393 22.339 6.60266
793 1 -1.1104 6.7673 25.2529 6.48351
826 1 -1.1104 12.3066 22.2581 6.68066
796 1 -1.1104 6.652 22.4308 6.65271
9814 2 2.2208 -0.259384 37.7106 2.47253
699 2 2.2208 5.38895 35.0503 5.22475
700 1 -1.1104 1.31453 30.8834 1.05966
701 1 -1.1104 1.20869 36.5367 1.05236
703 1 -1.1104 1.14119 30.7794 3.69944
704 1 -1.1104 1.20304 36.2772 3.79606
706 1 -1.1104 0.954695 33.6068 1.03893
707 2 2.2208 5.32726 32.2771 2.22815
708 2 2.2208 5.35688 37.9016 2.28203
709 1 -1.1104 1.1093 33.5295 3.86945
711 1 -1.1104 3.8832 30.7081 0.935892
712 1 -1.1104 4.15394 36.423 0.942566
713 2 2.2208 2.57541 34.8946 2.46776
714 1 -1.1104 4.10824 30.6636 3.70482
715 1 -1.1104 3.91029 36.431 3.78832
716 2 2.2208 2.53299 32.2305 5.34152
717 2 2.2208 2.61897 37.8344 5.1505
718 1 -1.1104 4.02342 33.7251 0.942697
719 1 -1.1104 3.97788 33.5209 3.86577
9815 2 2.2208 -0.27202 32.1526 2.40844
855 1 -1.1104 3.88683 30.6617 6.62136
856 1 -1.1104 4.06041 36.4984 6.36344
725 1 -1.1104 6.86787 33.7562 0.943991
710 1 -1.1104 6.60402 33.6864 3.57676
857 1 -1.1104 3.92899 33.5523 6.69653
9836 2 2.2208 13.637 37.8049 -0.30355
723 1 -1.1104 6.726 30.9695 0.984533
854 1 -1.1104 6.70856 33.6667 6.5291
724 1 -1.1104 6.91492 30.7685 3.7812
702 1 -1.1104 6.69709 36.333 0.904366
705 1 -1.1104 6.66789 36.4646 3.77503
726 2 2.2208 10.8915 35.0945 5.17797
727 1 -1.1104 12.1492 30.7185 0.866427
728 1 -1.1104 12.277 36.4512 1.11236
729 1 -1.1104 12.3691 30.7658 3.78208
730 1 -1.1104 12.2252 36.3514 3.81556
731 1 -1.1104 12.0982 33.5031 0.917718
732 2 2.2208 10.8355 32.1463 2.36812
733 2 2.2208 10.9362 37.8688 2.3991