ITEM: TIMESTEP
50000
ITEM: NUMBER OF ATOMS
17910
ITEM: BOX BOUNDS pp pp pp
-3.5023345434706965e-01 2.7690233454347982e+01
-4.3503287374892672e+00 3.3243032873749513e+02
-3.4744135462360043e-01 2.7687441354623218e+01
ITEM: ATOMS id type q x y z
1 2 2.2208 5.15903 1.20107 5.19769
2 1 -1.1104 0.759446 -3.10165 1.10828
3 1 -1.1104 0.910507 2.7032 1.2047
6 1 -1.1104 0.966354 -3.00991 3.85348
7 1 -1.1104 0.672106 2.41943 3.87122
10 1 -1.1104 0.950439 -0.226149 0.910288
12 2 2.2208 4.90499 -1.71189 2.47789
13 2 2.2208 5.03503 4.05902 2.41127
14 1 -1.1104 0.860956 -0.277167 3.697
16 1 -1.1104 3.69552 -3.06384 0.948895
17 1 -1.1104 3.73548 2.58635 1.11621
18 2 2.2208 2.2308 1.17887 2.5029
19 1 -1.1104 3.71617 -3.19568 3.81362
20 1 -1.1104 3.63447 2.41893 3.86272
21 2 2.2208 2.34865 -1.64669 5.19853
22 2 2.2208 2.30572 3.96562 5.34927
23 1 -1.1104 3.73091 -0.213286 0.977782
24 1 -1.1104 3.59951 -0.371946 3.77492
5 1 -1.1104 6.46681 2.57108 1.15018
306 2 2.2208 10.6839 18.1157 -0.360067
9 1 -1.1104 6.67875 2.5923 3.78768
8 1 -1.1104 6.33896 -3.06213 3.73594
4 1 -1.1104 6.41092 -3.17929 0.937796
15 1 -1.1104 6.59104 -0.296748 3.96878
170 1 -1.1104 0.969554 -0.296933 6.62903
11 1 -1.1104 6.63512 -0.317624 0.956183
9471 2 2.2208 13.5545 15.1155 -0.332779
168 1 -1.1104 6.38768 -3.11535 6.6689
173 1 -1.1104 3.70527 2.66137 6.64952
169 1 -1.1104 6.53114 2.54456 6.54795
171 1 -1.1104 6.58803 -0.288395 6.81311
8897 2 2.2208 13.436 3.89751 10.8666
8762 2 2.2208 13.5216 3.83715 5.3403
9068 2 2.2208 13.5107 -1.80463 5.30499
31 2 2.2208 10.6715 1.10004 5.41329
32 1 -1.1104 11.9888 -3.15492 1.30964
33 1 -1.1104 12.1373 2.46944 1.00997
34 1 -1.1104 12.0805 -2.98111 3.93993
35 1 -1.1104 12.1616 2.44175 3.96742
36 1 -1.1104 12.163 -0.337046 1.0823
37 2 2.2208 10.6619 -1.71213 2.49804
39 1 -1.1104 12.177 -0.268717 3.94883
40 1 -1.1104 9.344 -3.13931 0.956072
41 1 -1.1104 9.30195 2.40098 1.05835
42 2 2.2208 7.99369 1.09995 2.55317
43 1 -1.1104 9.24568 -3.15462 3.85564
44 1 -1.1104 9.4449 2.68158 3.94186
45 2 2.2208 8.00099 -1.57937 5.27421
47 1 -1.1104 9.46505 -0.255274 1.18664
48 1 -1.1104 9.52344 -0.238056 3.97616
46 2 2.2208 7.89383 4.06611 5.21297
9491 2 2.2208 13.5243 3.8162 -0.314251
9067 2 2.2208 13.4765 1.02885 2.48772
38 2 2.2208 10.8055 3.97701 2.51173
9074 2 2.2208 13.6233 6.7003 2.42041
208 1 -1.1104 9.16874 -3.06672 6.71115
206 1 -1.1104 12.0247 2.56384 6.59816
607 2 2.2208 5.23289 12.3963 -0.351452
54 2 2.2208 5.14361 6.78638 5.21538
55 2 2.2208 5.17105 12.3557 5.30897
56 1 -1.1104 0.931661 8.18243 1.08473
58 1 -1.1104 0.814455 8.12786 3.76125
60 1 -1.1104 0.909632 5.39594 1.0197
61 1 -1.1104 0.875752 10.8597 1.13192
66 2 2.2208 5.21309 9.6034 2.45031
67 1 -1.1104 0.899699 5.24171 3.9912
68 1 -1.1104 0.983312 11.0026 3.97384
71 1 -1.1104 3.69115 8.15604 1.14455
72 2 2.2208 2.27078 6.7578 2.50173
73 2 2.2208 2.29029 12.3868 2.49702
74 1 -1.1104 3.70711 8.11017 3.96172
75 2 2.2208 2.36562 9.51298 5.07494
76 1 -1.1104 3.74604 5.51673 1.1047
77 1 -1.1104 3.76752 11.0888 1.02108
79 1 -1.1104 3.59978 5.27796 3.82268
80 1 -1.1104 3.74171 10.7925 3.77063
57 1 -1.1104 6.50488 8.16555 1.01229
59 1 -1.1104 6.50556 8.22832 3.75677
63 1 -1.1104 6.74045 5.346 1.13803
70 1 -1.1104 6.54406 11.0867 3.84473
69 1 -1.1104 6.45949 5.46525 3.88095
64 1 -1.1104 6.56417 11.0696 1.02735
62 1 -1.1104 0.979426 10.9931 6.57477
236 1 -1.1104 0.938069 5.20123 6.63396
238 1 -1.1104 3.77024 8.14851 6.60011
78 1 -1.1104 3.88113 10.9091 6.60457
235 1 -1.1104 6.60845 8.27741 6.6038
237 1 -1.1104 6.54045 5.48637 6.51509
53 2 2.2208 10.7695 15.2555 8.05007
84 2 2.2208 10.774 6.75763 5.31229
85 2 2.2208 10.8545 12.4367 5.29614
86 1 -1.1104 12.1955 8.13026 1.10323
87 1 -1.1104 12.1492 8.01135 4.02968
88 1 -1.1104 12.2461 5.29368 1.13984
89 1 -1.1104 12.3242 10.958 1.08767
91 2 2.2208 10.7969 9.5095 2.47388
92 1 -1.1104 12.187 5.33897 3.75272
93 1 -1.1104 12.3015 10.922 3.84956
94 1 -1.1104 9.30907 8.18771 0.921461
95 2 2.2208 8.15372 6.78529 2.3888
96 2 2.2208 8.1102 12.4002 2.41425
97 1 -1.1104 9.36581 8.15435 3.63265
98 2 2.2208 8.06831 9.69998 5.16059
99 1 -1.1104 9.45722 5.31523 1.0028
100 1 -1.1104 9.34142 10.9721 1.18095
102 1 -1.1104 9.42225 5.37461 3.83183
103 1 -1.1104 9.63932 11.0262 4.03176
8791 2 2.2208 13.5251 9.59855 5.33213
8839 2 2.2208 13.4993 20.9171 5.35259
101 1 -1.1104 9.45333 11.2125 6.71616
8978 2 2.2208 13.6682 9.57327 10.9217
312 2 2.2208 2.22963 20.7442 -0.232183
267 1 -1.1104 9.35911 8.42807 6.47145
90 1 -1.1104 12.1403 11.1085 6.71425
143 1 -1.1104 12.2431 13.7183 6.68703
26 1 -1.1104 12.1719 13.9489 12.2681
9024 2 2.2208 13.5666 20.9014 11.0271
106 2 2.2208 5.10122 17.9561 5.33768
107 1 -1.1104 0.90733 13.7058 1.10144
109 1 -1.1104 0.937463 19.2875 1.2277
113 1 -1.1104 0.811594 13.7822 3.93796
114 1 -1.1104 0.781814 19.4204 4.07645
116 1 -1.1104 1.0103 16.5842 1.16649
119 2 2.2208 5.14944 15.2291 2.55595
120 2 2.2208 5.09099 20.8375 2.535
121 1 -1.1104 0.880484 16.6523 3.94841
123 1 -1.1104 3.79687 13.751 1.29861
125 1 -1.1104 3.61552 19.3784 1.12177
127 2 2.2208 2.34481 18.0238 2.54377
128 1 -1.1104 3.73814 13.7265 4.00015
129 1 -1.1104 3.7664 19.3963 3.91976
130 2 2.2208 2.28797 15.157 5.23984
131 2 2.2208 2.40193 20.7304 5.20707
132 1 -1.1104 3.94101 16.6194 1.27569
134 1 -1.1104 3.80697 16.6141 3.97052
138 1 -1.1104 6.55234 19.368 1.01587
115 1 -1.1104 6.57033 13.7134 3.95037
110 1 -1.1104 6.65906 13.8831 1.13233
122 1 -1.1104 6.53856 16.5016 4.0518
140 1 -1.1104 6.67073 16.5967 1.13388
118 1 -1.1104 6.41474 16.7404 6.67867
9062 2 2.2208 13.5389 15.2942 10.8456
124 1 -1.1104 3.78146 13.7732 6.57714
126 1 -1.1104 3.76184 19.2906 6.75597
8860 2 2.2208 13.6589 15.1745 5.28357
9078 2 2.2208 13.5563 18.0172 2.57846
145 1 -1.1104 12.2839 19.3983 6.66254
139 1 -1.1104 6.52587 19.2984 3.77598
141 2 2.2208 10.7792 18.0123 5.2493
142 1 -1.1104 12.2591 13.7037 1.03527
144 1 -1.1104 12.0319 19.5069 1.05142
146 1 -1.1104 12.3818 13.8483 3.80503
147 1 -1.1104 12.171 19.5171 3.96945
148 1 -1.1104 12.3165 16.6299 1.1343
150 2 2.2208 10.8174 15.1247 2.43889
151 2 2.2208 10.6699 20.9196 2.4025
152 1 -1.1104 12.1513 16.6227 3.97866
153 1 -1.1104 9.51931 13.9275 0.916881
155 1 -1.1104 9.2212 19.5409 1.09666
157 2 2.2208 7.97615 17.881 2.54513
158 1 -1.1104 9.39035 13.9089 4.01007
159 1 -1.1104 9.39473 19.3462 3.83986
160 2 2.2208 8.01159 15.2077 5.29218
161 2 2.2208 7.8745 20.7705 5.33291
162 1 -1.1104 9.44482 16.5826 1.15722
164 1 -1.1104 9.41737 16.5885 3.90366
149 1 -1.1104 12.2243 16.6709 6.68592
81 2 2.2208 10.755 20.9215 8.0686
199 1 -1.1104 9.4177 16.5262 12.2553
83 1 -1.1104 9.43819 13.8493 12.4342
9082 2 2.2208 -0.330841 15.1496 8.05434
571 2 2.2208 7.86534 -1.8133 -0.313641
163 1 -1.1104 9.35498 16.7149 6.59371
166 1 -1.1104 0.914467 -3.08714 6.72565
174 1 -1.1104 3.75531 -0.307106 6.54298
167 1 -1.1104 0.797927 2.37487 6.66068
172 1 -1.1104 3.63333 -3.13261 6.56933
175 2 2.2208 5.07025 1.29644 10.8985
176 1 -1.1104 1.06571 -3.01671 12.1816
177 1 -1.1104 0.967435 2.43484 12.2141
180 1 -1.1104 0.812701 -3.06236 9.50322
181 1 -1.1104 0.938722 2.49144 9.3501
184 1 -1.1104 0.783277 -0.255097 12.2258
186 2 2.2208 5.11814 -1.73098 8.05794
187 2 2.2208 5.08731 4.04339 7.9206
188 1 -1.1104 0.694244 -0.266338 9.47422
190 1 -1.1104 3.69598 -2.94019 12.2244
191 1 -1.1104 3.72255 2.59489 12.2394
192 2 2.2208 2.27808 1.0551 8.08594
193 1 -1.1104 3.64996 -3.18236 9.46237
194 1 -1.1104 3.59862 2.49232 9.54888
195 2 2.2208 2.36285 -1.63099 10.8465
197 1 -1.1104 3.71012 -0.241881 12.2454
198 1 -1.1104 3.71021 -0.364321 9.37172
196 2 2.2208 2.30264 3.91552 10.984
179 1 -1.1104 6.42187 2.77329 12.2406
178 1 -1.1104 6.49123 -3.10921 12.1828
189 1 -1.1104 6.3573 -0.12096 9.48323
183 1 -1.1104 6.3759 2.65149 9.31588
185 1 -1.1104 6.36691 -0.213374 12.3403
182 1 -1.1104 6.49249 -2.99303 9.49106
136 1 -1.1104 9.35358 19.5041 9.41895
137 2 2.2208 8.06795 15.1451 10.9964
9086 2 2.2208 13.5299 1.22188 8.02634
570 2 2.2208 10.7069 1.14298 -0.392561
9087 2 2.2208 13.3306 -1.66116 10.8208
207 1 -1.1104 12.1697 -0.427117 6.65116
205 1 -1.1104 11.9249 -3.15879 6.7359
209 1 -1.1104 9.23926 2.61361 6.61831
210 1 -1.1104 9.30276 -0.197658 6.75397
211 2 2.2208 10.6189 1.20487 10.7663
212 1 -1.1104 11.9108 -3.16066 12.174
213 1 -1.1104 12.0441 2.55295 12.2597
214 1 -1.1104 11.9976 -3.22624 9.45289
215 1 -1.1104 12.1169 2.47894 9.48223
216 1 -1.1104 12.0878 -0.189263 12.285
217 2 2.2208 10.7179 -1.69637 7.96541
218 2 2.2208 10.6269 4.02851 8.05371
219 1 -1.1104 12.0803 -0.3408 9.42389
220 1 -1.1104 9.21874 -3.10664 12.2812
221 1 -1.1104 9.23546 2.55571 12.1499
222 2 2.2208 7.82724 1.2377 8.06348
223 1 -1.1104 9.2223 -3.05235 9.38538
224 1 -1.1104 9.16085 2.63322 9.49729
225 2 2.2208 7.88873 -1.66627 10.9284
226 2 2.2208 7.85422 4.01262 10.8198
227 1 -1.1104 9.18573 -0.166875 12.1277
228 1 -1.1104 9.28538 -0.257053 9.48393
30 1 -1.1104 12.3478 13.8811 9.47309
25 2 2.2208 10.7148 18.0559 10.815
82 1 -1.1104 12.0474 16.6059 9.55811
386 2 2.2208 7.80072 1.18145 13.5701
239 1 -1.1104 3.78641 5.38818 6.66521
234 1 -1.1104 0.951944 8.23439 6.56153
240 2 2.2208 5.21311 6.78232 10.965
241 2 2.2208 5.11954 12.287 10.8748
242 1 -1.1104 0.933532 8.1277 12.2319
244 1 -1.1104 0.938751 8.2424 9.46238
246 1 -1.1104 0.805207 5.19255 12.2916
247 1 -1.1104 0.794814 10.8209 12.244
250 2 2.2208 5.22305 9.63738 8.02114
251 1 -1.1104 0.928732 5.46823 9.47472
252 1 -1.1104 1.0055 11.0694 9.57762
255 1 -1.1104 3.64727 8.27907 12.291
256 2 2.2208 2.32939 6.71892 7.96499
257 2 2.2208 2.47408 12.4208 7.98414
258 1 -1.1104 3.81714 8.24792 9.42414
259 2 2.2208 2.35325 9.60923 10.8273
260 1 -1.1104 3.60683 5.39791 12.3143
261 1 -1.1104 3.6977 10.9803 12.2122
262 1 -1.1104 3.70933 5.28267 9.48444
263 1 -1.1104 3.84807 10.9772 9.42136
243 1 -1.1104 6.71242 8.09531 12.3539
245 1 -1.1104 6.56452 8.1845 9.41961
248 1 -1.1104 6.45192 5.34299 12.3104
253 1 -1.1104 6.47173 5.39246 9.40627
290 1 -1.1104 6.6315 13.883 9.5552
65 1 -1.1104 6.67228 11.1185 6.65385
289 1 -1.1104 6.6265 16.5811 9.39552
49 1 -1.1104 12.3911 19.2961 9.49873
9096 2 2.2208 13.4683 20.7096 -0.354838
105 2 2.2208 7.97289 18.0118 8.05418
104 1 -1.1104 9.45854 19.4355 12.2118
8973 2 2.2208 13.4941 6.72381 8.06704
269 1 -1.1104 9.40656 5.53434 6.69739
249 1 -1.1104 6.43547 11.0531 12.2427
254 1 -1.1104 6.59037 11.0234 9.4474
266 1 -1.1104 12.0928 5.36921 6.63767
265 1 -1.1104 12.1514 8.22554 6.85015
264 1 -1.1104 9.45066 10.9975 9.71632
268 1 -1.1104 9.09956 5.39961 9.3983
270 1 -1.1104 9.48294 10.9908 12.3253
271 1 -1.1104 9.32563 5.27524 12.3476
272 2 2.2208 7.97001 9.55999 11.0053
273 1 -1.1104 9.31881 8.24546 9.44097
274 2 2.2208 7.87059 12.4614 8.11745
275 2 2.2208 7.77636 6.90459 8.10289
276 2 2.2208 10.7921 6.72511 11.0513
277 2 2.2208 10.8674 12.4776 10.8883
278 1 -1.1104 12.2956 8.0714 12.4337
279 1 -1.1104 12.1292 8.19781 9.67266
280 1 -1.1104 12.1447 5.32497 12.3969
281 1 -1.1104 12.1222 10.9253 12.2767
282 2 2.2208 10.8213 9.72019 8.18013
283 1 -1.1104 12.0462 5.32689 9.44882
284 1 -1.1104 12.3696 11.026 9.5398
285 1 -1.1104 9.50916 8.24072 12.3292
233 1 -1.1104 6.60999 16.5656 12.2271
111 1 -1.1104 6.47944 13.7864 6.87322
135 1 -1.1104 9.50854 13.7328 9.48914
156 1 -1.1104 9.26162 19.4497 6.65742
297 1 -1.1104 6.6062 13.7055 12.2863
133 1 -1.1104 3.83264 16.4229 6.53943
117 1 -1.1104 0.968328 16.4671 6.64806
302 1 -1.1104 0.92371 19.3137 6.67674
108 1 -1.1104 0.967391 13.7959 6.77294
201 2 2.2208 2.36109 15.1808 10.8628
204 2 2.2208 2.22831 20.8049 10.8065
229 1 -1.1104 3.891 16.5916 12.3479
230 1 -1.1104 1.02529 16.6993 12.3227
286 1 -1.1104 3.71394 19.3895 12.5039
287 1 -1.1104 3.70093 13.7805 12.2671
291 1 -1.1104 0.895024 19.394 9.38611
292 1 -1.1104 1.00499 16.605 9.49314
293 2 2.2208 5.1351 20.7304 8.03399
294 1 -1.1104 0.906951 13.8513 9.52802
295 2 2.2208 5.15 15.1907 8.11984
298 1 -1.1104 0.864957 19.3846 12.1733
299 1 -1.1104 0.935232 13.6574 12.2657
300 2 2.2208 5.2886 18.0607 10.9029
301 1 -1.1104 3.74807 19.2782 9.64619
303 2 2.2208 2.40853 17.8913 8.01225
304 1 -1.1104 3.81774 16.6207 9.40886
305 1 -1.1104 3.64768 13.7637 9.54188
112 1 -1.1104 6.51279 19.5527 6.61451
288 1 -1.1104 6.6091 19.3279 9.43544
296 1 -1.1104 6.54992 19.4587 12.4745
27 1 -1.1104 12.1573 19.4876 12.3412
154 1 -1.1104 9.36115 13.8994 6.76875
200 1 -1.1104 9.3723 16.6619 9.48015
50 1 -1.1104 12.2979 16.7424 12.3714
387 2 2.2208 10.5931 -1.70263 13.6351
165 2 2.2208 7.9117 20.8421 10.8909
632 2 2.2208 10.7583 12.3579 -0.298829
9097 2 2.2208 13.6208 18.1476 13.7469
424 2 2.2208 2.32676 12.2578 13.6817
611 2 2.2208 2.38312 15.0675 -0.104721
540 2 2.2208 5.15689 1.09384 -0.248144
9202 2 2.2208 13.6232 12.4096 13.6657
572 2 2.2208 7.82964 3.84013 -0.331564
606 2 2.2208 2.29135 9.57674 -0.250171
633 2 2.2208 5.14006 18.0205 -0.282423
605 2 2.2208 5.2361 6.78545 -0.264728
308 2 2.2208 2.27803 17.9801 13.5961
307 2 2.2208 7.8703 20.8236 -0.161492
9488 2 2.2208 13.4727 -1.6544 -0.219461
313 2 2.2208 4.98511 1.12323 16.4
314 1 -1.1104 0.824717 -2.93442 17.7667
315 1 -1.1104 0.802236 2.53311 18.0063
318 1 -1.1104 0.781676 -3.15334 15.1221
320 1 -1.1104 0.845516 2.65583 15.0151
326 1 -1.1104 0.943317 -0.254346 17.9047
328 2 2.2208 4.9075 -1.62284 19.1677
330 1 -1.1104 0.865091 -0.252778 15.102
334 1 -1.1104 3.61684 -3.12742 17.7865
335 1 -1.1104 3.63109 2.55721 17.7943
336 2 2.2208 2.30944 1.252 19.222
337 1 -1.1104 3.74249 -3.09665 15.0364
339 1 -1.1104 3.61989 2.46222 15.0431
341 2 2.2208 2.14602 -1.6456 16.3176
343 1 -1.1104 3.59093 -0.145014 17.811
344 1 -1.1104 3.61266 -0.352703 14.9944
329 2 2.2208 5.09948 3.95887 19.3123
342 2 2.2208 2.17041 4.04154 16.6195
324 1 -1.1104 6.47981 2.49511 15.0985
327 1 -1.1104 6.38283 -0.233989 17.9584
317 1 -1.1104 6.52019 2.50693 17.9842
316 1 -1.1104 6.33975 -3.05074 17.9872
332 1 -1.1104 6.42573 -0.362088 15.1422
322 1 -1.1104 6.57859 -3.05939 15.0826
9469 2 2.2208 13.6047 15.1143 22.036
338 1 -1.1104 3.59412 -2.96563 20.5915
355 2 2.2208 4.99587 3.88255 13.701
340 1 -1.1104 3.66574 2.5842 20.6757
321 1 -1.1104 0.806289 2.60539 20.7932
333 1 -1.1104 6.28233 -0.171125 20.6089
325 1 -1.1104 6.48759 2.57117 20.697
311 2 2.2208 7.93558 18.0142 13.7081
9270 2 2.2208 13.5353 18.1033 19.1767
356 2 2.2208 10.6093 1.12735 16.4407
357 1 -1.1104 12.1554 -3.02309 17.8218
358 1 -1.1104 12.0838 2.55774 18.0199
359 1 -1.1104 12.138 -3.058 14.985
361 1 -1.1104 11.9404 2.69022 15.2866
363 1 -1.1104 12.0874 -0.328142 17.8057
364 2 2.2208 10.6098 -1.67053 19.1665
366 1 -1.1104 12.0277 -0.253484 14.9892
368 1 -1.1104 9.38799 -3.1726 17.8739
369 1 -1.1104 9.3142 2.53579 17.8224
370 2 2.2208 7.81004 1.14161 19.2
371 1 -1.1104 9.34786 -2.99144 15.1029
373 1 -1.1104 9.16618 2.38562 14.9598
375 2 2.2208 7.91354 -1.60859 16.4421
377 1 -1.1104 9.29144 -0.199084 17.7796
378 1 -1.1104 9.17244 -0.290364 14.9759
365 2 2.2208 10.7863 3.94872 19.2906
376 2 2.2208 7.82774 3.75805 16.5122
9130 2 2.2208 13.505 1.14704 19.2409
9478 2 2.2208 13.3887 -1.58342 16.4128
9124 2 2.2208 13.4067 3.96936 16.5113
360 1 -1.1104 12.022 -3.12061 20.7896
362 1 -1.1104 12.1358 2.58683 20.678
379 1 -1.1104 9.14848 -0.199762 20.7793
372 1 -1.1104 9.23378 -2.89927 20.4542
374 1 -1.1104 9.34409 2.68409 20.6689
608 2 2.2208 7.95575 20.8312 22.0601
389 2 2.2208 5.20032 6.70264 16.6347
390 2 2.2208 5.14652 12.3555 16.5613
391 1 -1.1104 0.984358 8.17134 17.966
393 1 -1.1104 0.854975 8.1095 15.014
397 1 -1.1104 0.778418 5.45291 17.9489
398 1 -1.1104 1.05313 10.8675 17.8817
401 2 2.2208 5.01786 9.58457 19.3343
402 1 -1.1104 0.864523 5.37204 15.2266
404 1 -1.1104 0.879172 10.938 15.2323
410 1 -1.1104 3.74169 8.22068 17.9388
411 2 2.2208 2.2995 6.80376 19.4114
412 2 2.2208 2.20296 12.3258 19.2529
413 1 -1.1104 3.52989 8.14246 15.292
415 2 2.2208 2.11706 9.43913 16.4337
416 1 -1.1104 3.52302 5.30219 18.0126
417 1 -1.1104 3.77537 11.0274 17.8882
418 1 -1.1104 3.85106 5.38672 15.0684
420 1 -1.1104 3.69727 10.9126 15.0287
395 1 -1.1104 6.39069 8.09523 15.1212
406 1 -1.1104 6.58147 5.39622 15.4016
408 1 -1.1104 6.51797 10.9504 15.0473
399 1 -1.1104 6.57685 5.26053 18.0078
392 1 -1.1104 6.64749 7.9933 18.0132
421 1 -1.1104 3.54435 10.9903 20.7682
414 1 -1.1104 3.58726 8.27582 20.6341
396 1 -1.1104 6.62577 8.06995 20.8235
419 1 -1.1104 3.68696 5.38023 20.6441
407 1 -1.1104 6.53116 5.34543 20.7343
348 2 2.2208 2.2402 -4.35177 19.1543
400 1 -1.1104 6.49818 10.942 17.7571
425 2 2.2208 10.7779 6.6509 16.5671
426 2 2.2208 10.7333 12.3997 16.4815
427 1 -1.1104 12.1388 8.18824 17.9631
428 1 -1.1104 12.0862 8.2099 15.2348
430 1 -1.1104 12.0633 5.37277 18.0149
431 1 -1.1104 12.2313 11.0967 17.8569
432 2 2.2208 10.7568 9.50552 19.4045
433 1 -1.1104 12.1551 5.38388 14.9989
435 1 -1.1104 12.3779 11.0528 15.1218
437 1 -1.1104 9.40996 8.16727 17.9788
438 2 2.2208 8.14041 6.64348 19.2856
439 2 2.2208 7.9127 12.3235 19.3753
440 1 -1.1104 9.22048 8.1018 15.277
442 2 2.2208 8.00936 9.60969 16.585
443 1 -1.1104 9.35834 5.22182 17.8115
444 1 -1.1104 9.46027 11.1109 18.0748
445 1 -1.1104 9.37017 5.31272 15.1755
447 1 -1.1104 9.25183 10.8569 15.089
441 1 -1.1104 9.48262 8.11577 20.8072
9198 2 2.2208 13.5414 9.57899 16.5744
9199 2 2.2208 13.6016 6.70862 19.2016
429 1 -1.1104 12.1583 8.13881 20.701
446 1 -1.1104 9.48627 5.40359 20.709
9197 2 2.2208 13.5659 6.67204 13.7987
513 2 2.2208 10.8286 15.1577 13.7105
452 2 2.2208 5.09033 18.1341 16.613
453 1 -1.1104 0.838242 13.7995 17.7076
454 1 -1.1104 1.09733 19.412 17.779
457 1 -1.1104 1.00303 13.7461 14.8863
459 1 -1.1104 0.979998 19.1651 15.0165
465 1 -1.1104 0.947993 16.559 17.833
467 2 2.2208 5.12899 15.2713 19.2985
468 2 2.2208 5.11045 20.8798 19.2294
469 1 -1.1104 0.924502 16.4472 15.0557
473 1 -1.1104 3.76112 13.8985 17.7228
474 1 -1.1104 3.86796 19.4051 18.0092
475 2 2.2208 2.40345 18.0149 19.2972
476 1 -1.1104 3.70355 13.8313 15.158
478 1 -1.1104 3.85308 19.4437 15.2342
480 2 2.2208 2.35005 15.1714 16.3973
481 2 2.2208 2.33498 20.7897 16.4285
482 1 -1.1104 3.68572 16.6265 17.9677
483 1 -1.1104 3.7338 16.7309 15.175
463 1 -1.1104 6.62236 19.4581 15.1335
450 2 2.2208 10.7745 9.57057 13.7234
471 1 -1.1104 6.50852 16.6904 14.9335
455 1 -1.1104 6.56785 14.0022 17.8707
461 1 -1.1104 6.51436 13.833 14.9953
470 1 -1.1104 0.942066 16.4521 20.7445
550 1 -1.1104 9.42309 13.8732 23.3996
9271 2 2.2208 13.4728 20.8969 16.3869
466 1 -1.1104 6.57059 16.8135 17.9415
9268 2 2.2208 13.4592 15.239 16.4986
456 1 -1.1104 6.56116 19.6457 17.8565
488 2 2.2208 10.7134 18.0262 16.5073
489 1 -1.1104 12.0326 13.7913 17.8768
490 1 -1.1104 12.0824 19.4231 17.8927
491 1 -1.1104 12.0907 13.6385 15.0487
493 1 -1.1104 12.0933 19.5311 15.0864
495 1 -1.1104 12.2855 16.6089 18.075
496 2 2.2208 10.7169 15.2118 19.2687
497 2 2.2208 10.6121 20.8729 19.2084
498 1 -1.1104 12.1079 16.6739 15.1431
500 1 -1.1104 9.2452 13.8668 17.7875
501 1 -1.1104 9.36305 19.4714 17.7555
502 2 2.2208 7.89679 18.0243 19.3425
503 1 -1.1104 9.34852 13.6635 14.9944
505 1 -1.1104 9.31086 19.4902 15.0345
507 2 2.2208 7.94881 15.1595 16.3702
508 2 2.2208 7.84995 20.8516 16.4297
509 1 -1.1104 9.41136 16.667 17.961
510 1 -1.1104 9.33554 16.5914 15.0615
551 1 -1.1104 9.27793 19.4234 23.3234
331 1 -1.1104 0.798742 -0.209046 20.5058
319 1 -1.1104 1.0478 -3.00279 20.7193
345 1 -1.1104 3.49493 -0.175951 20.7962
323 1 -1.1104 6.44621 -2.9291 20.7324
516 2 2.2208 4.94221 1.14575 21.9934
517 1 -1.1104 0.6772 -2.98179 23.5152
518 1 -1.1104 0.861986 2.57207 23.5749
521 1 -1.1104 0.88168 -3.09511 26.2203
522 1 -1.1104 0.818698 2.70186 26.367
525 1 -1.1104 0.801481 -0.11345 23.5575
527 2 2.2208 4.99969 -1.60341 24.765
528 2 2.2208 5.10654 3.96069 24.8976
529 1 -1.1104 0.652354 -0.301395 26.2728
531 1 -1.1104 3.45422 -3.11373 23.3787
532 1 -1.1104 3.79877 2.69211 23.4534
533 2 2.2208 2.17534 1.28699 24.8606
534 1 -1.1104 3.66724 -2.9684 26.2022
535 1 -1.1104 3.55807 2.59049 26.2212
536 2 2.2208 2.24346 -1.62892 22.0813
537 2 2.2208 2.3131 4.03541 22.1348
538 1 -1.1104 3.50002 -0.146047 23.4826
539 1 -1.1104 3.75254 -0.198888 26.2384
524 1 -1.1104 6.38561 2.44345 26.3816
519 1 -1.1104 6.30959 -3.11734 23.3777
526 1 -1.1104 6.36536 -0.127419 23.4031
530 1 -1.1104 6.4586 -0.28261 26.1572
523 1 -1.1104 6.37204 -3.05756 26.2072
9200 2 2.2208 13.531 12.3458 19.2493
472 1 -1.1104 6.46528 16.6267 20.8599
382 2 2.2208 7.77101 -4.24542 19.3075
9331 2 2.2208 13.5383 3.81594 22.0488
520 1 -1.1104 6.54432 2.72889 23.4681
367 1 -1.1104 12.1431 -0.205333 20.5288
552 2 2.2208 10.6528 1.07473 22.1549
553 1 -1.1104 11.9066 -3.22778 23.6234
554 1 -1.1104 12.1563 2.37216 23.5532
555 1 -1.1104 12.0443 -3.12316 26.4241
556 1 -1.1104 12.2383 2.52334 26.3192
557 1 -1.1104 12.0142 -0.430686 23.4055
558 2 2.2208 10.6692 -1.74474 25.0078
560 1 -1.1104 12.1545 -0.240002 26.2009
561 1 -1.1104 9.12223 -3.18177 23.4364
562 1 -1.1104 9.36891 2.48454 23.4894
563 2 2.2208 7.91057 1.19608 24.9321
564 1 -1.1104 9.26891 -3.26084 26.2708
565 1 -1.1104 9.40179 2.52303 26.2725
566 2 2.2208 7.8596 -1.60228 22.1099
568 1 -1.1104 9.23122 -0.328123 23.6183
569 1 -1.1104 9.29244 -0.320246 26.4859
559 2 2.2208 10.9326 3.95279 25.0387
567 2 2.2208 8.04696 3.92601 22.1612
9489 2 2.2208 13.4623 -1.6936 22.0644
573 2 2.2208 8.06255 18.1215 24.8701
9312 2 2.2208 -0.342867 15.1696 13.6654
609 1 -1.1104 9.44363 16.6573 23.5279
405 1 -1.1104 0.850125 10.9513 20.7674
394 1 -1.1104 0.870149 8.15918 20.7681
403 1 -1.1104 0.908244 5.37153 20.6469
581 2 2.2208 5.2263 6.73689 22.0632
582 2 2.2208 5.10487 12.3956 22.0304
583 1 -1.1104 0.889547 8.0834 23.4344
585 1 -1.1104 0.909464 8.27131 26.2809
587 1 -1.1104 1.05725 5.40332 23.4764
588 1 -1.1104 0.865366 10.9514 23.4353
591 2 2.2208 5.20074 9.45558 24.9245
592 1 -1.1104 0.903633 5.40338 26.3354
593 1 -1.1104 1.01287 11.0195 26.2886
596 1 -1.1104 3.7292 8.17714 23.3468
597 2 2.2208 2.34647 6.65746 24.8562
598 2 2.2208 2.35308 12.2753 24.9141
599 1 -1.1104 3.79196 8.09765 26.2326
600 2 2.2208 2.3094 9.64531 22.1472
601 1 -1.1104 3.79109 5.41846 23.4532
602 1 -1.1104 3.77423 10.9458 23.5583
603 1 -1.1104 3.79075 5.32017 26.1966
604 1 -1.1104 3.79594 11.0237 26.2399
589 1 -1.1104 6.6784 5.28058 23.6056
595 1 -1.1104 6.76264 10.949 26.1277
590 1 -1.1104 6.52707 11.0543 23.3493
584 1 -1.1104 6.63742 8.16843 23.5934
409 1 -1.1104 6.35449 11.0164 20.5058
594 1 -1.1104 6.60436 5.32251 26.4258
586 1 -1.1104 6.58647 8.20867 26.322
494 1 -1.1104 12.0362 19.3404 20.5745
9267 2 2.2208 13.6395 6.67777 24.9613
380 1 -1.1104 12.2101 13.6337 23.4775
436 1 -1.1104 11.9843 10.8597 20.7603
9274 2 2.2208 13.5237 12.3109 24.9115
580 2 2.2208 8.00135 15.3425 22.0723
434 1 -1.1104 12.2187 5.30459 20.8611
448 1 -1.1104 9.28198 10.9336 20.7071
612 1 -1.1104 9.3701 10.7854 26.3795
613 1 -1.1104 9.49227 5.27453 26.2896
614 1 -1.1104 9.41082 11.1725 23.5118
615 1 -1.1104 9.4963 5.24638 23.5722
616 2 2.2208 7.97473 9.55884 22.1345
617 1 -1.1104 9.3698 8.01867 26.298
618 2 2.2208 7.8498 12.5565 24.7946
619 2 2.2208 8.01672 6.919 24.8726
620 2 2.2208 10.8426 6.6675 22.1548
621 2 2.2208 10.7027 12.4237 22.0448
622 1 -1.1104 12.2348 8.08627 23.4998
623 1 -1.1104 12.1616 8.24465 26.1791
624 1 -1.1104 12.1923 5.39748 23.7272
625 1 -1.1104 12.139 10.8634 23.5293
626 2 2.2208 10.8122 9.58347 24.8234
627 1 -1.1104 12.2526 5.34251 26.429
628 1 -1.1104 12.1118 10.9382 26.3281
629 1 -1.1104 9.41645 8.22493 23.5371
515 1 -1.1104 12.0652 19.3177 26.3013
351 2 2.2208 10.8068 17.8773 22.0919
610 1 -1.1104 9.27461 16.6481 26.2899
637 1 -1.1104 6.56079 13.851 26.3659
639 1 -1.1104 6.60066 16.7419 26.3345
577 1 -1.1104 6.39102 19.5333 26.3571
486 1 -1.1104 6.75629 16.712 23.5519
479 1 -1.1104 3.70124 19.3318 20.8287
477 1 -1.1104 3.59421 13.7759 20.6318
484 1 -1.1104 3.68156 16.6104 20.9249
460 1 -1.1104 0.880939 19.2803 20.5543
458 1 -1.1104 0.860899 13.7338 20.6283
349 2 2.2208 2.26582 20.7294 22.1158
350 1 -1.1104 3.93848 16.802 23.6514
485 1 -1.1104 1.01947 16.6054 23.5435
512 1 -1.1104 3.66057 13.7707 26.4657
514 1 -1.1104 3.72253 16.6492 26.4577
634 2 2.2208 2.32263 18.0585 25.0927
635 2 2.2208 2.36595 15.1566 22.1157
636 1 -1.1104 3.72426 19.5895 23.6415
638 1 -1.1104 3.77885 13.7609 23.4513
640 1 -1.1104 0.716157 19.3795 26.2626
641 1 -1.1104 0.929929 16.7164 26.4539
642 1 -1.1104 0.777339 13.8944 26.345
644 2 2.2208 5.08165 20.8764 24.9043
645 2 2.2208 5.19296 15.3507 24.95
647 1 -1.1104 0.925191 19.2666 23.4569
648 1 -1.1104 0.931532 13.7572 23.483
649 2 2.2208 5.09803 18.1344 22.2097
650 1 -1.1104 3.53256 19.3228 26.3862
643 1 -1.1104 6.43532 19.5106 23.5302
646 1 -1.1104 6.53315 13.9978 23.5082
462 1 -1.1104 6.49652 13.8293 20.5935
9473 2 2.2208 13.5006 20.8231 21.9805
423 2 2.2208 5.16711 9.5284 13.6946
579 1 -1.1104 9.24338 19.4312 26.2385
543 1 -1.1104 12.123 16.4679 23.5592
549 1 -1.1104 12.0401 16.5086 26.4488
548 2 2.2208 10.762 20.8909 24.9143
385 1 -1.1104 12.1631 13.7824 26.357
384 1 -1.1104 12.1769 19.3862 23.351
544 2 2.2208 10.7352 15.1758 24.9122
499 1 -1.1104 12.2033 16.5229 20.7485
506 1 -1.1104 9.21678 19.4586 20.5234
511 1 -1.1104 9.35868 16.6778 20.6273
492 1 -1.1104 12.1558 13.6846 20.6188
578 1 -1.1104 9.28035 13.7418 26.2195
464 1 -1.1104 6.54997 19.3242 20.8174
504 1 -1.1104 9.38847 13.7666 20.6851
9470 2 2.2208 13.4541 18.0077 24.8727
9390 2 2.2208 13.526 9.43442 22.1088
9128 2 2.2208 13.332 1.16071 13.6701
353 2 2.2208 5.03486 -1.78651 13.6641
310 2 2.2208 10.6752 20.8636 13.6884
451 2 2.2208 7.92562 12.3251 13.678
388 2 2.2208 10.6845 3.91495 13.7045
541 2 2.2208 2.25149 -1.5485 27.4941
309 2 2.2208 5.15567 20.8222 13.7337
630 2 2.2208 10.7574 6.72316 27.6447
346 2 2.2208 7.9617 15.2665 27.6546
542 2 2.2208 2.41297 4.03447 27.6446
422 2 2.2208 2.30891 6.63927 13.7829
449 2 2.2208 8.0246 6.75734 13.8165
9269 2 2.2208 13.5207 9.5796 27.6816
631 2 2.2208 8.00073 9.50903 27.6058
354 2 2.2208 2.23604 1.20404 13.7369
487 2 2.2208 4.97896 15.2306 13.8003
651 2 2.2208 5.16993 23.6881 5.27722
652 2 2.2208 5.04649 29.2401 5.41889
653 1 -1.1104 0.815923 25.0306 1.05264
654 1 -1.1104 0.790913 24.8765 3.87138
655 1 -1.1104 0.944265 22.1678 1.12463
656 1 -1.1104 0.858472 27.7591 1.2114
657 2 2.2208 4.98891 26.4434 2.50861
658 1 -1.1104 1.04148 21.9727 3.78495
659 1 -1.1104 0.947442 27.786 4.03974
660 1 -1.1104 3.63184 25.1309 1.1593
661 2 2.2208 2.17314 23.6803 2.49183
662 2 2.2208 2.274 29.1588 2.53938
663 1 -1.1104 3.50696 25.092 3.84059
664 2 2.2208 2.26871 26.3431 5.30449
665 1 -1.1104 3.73581 22.2226 1.15497
666 1 -1.1104 3.6445 27.7981 1.09939
667 1 -1.1104 3.80971 22.3756 3.87561
668 1 -1.1104 3.72298 27.9637 3.89755
676 1 -1.1104 6.60603 22.253 3.94291
677 1 -1.1104 6.56304 27.8277 3.99098
792 1 -1.1104 0.944994 25.037 6.68277
672 1 -1.1104 6.34252 25.2576 1.14867
799 1 -1.1104 3.77909 22.1117 6.64425
957 2 2.2208 10.94 45.9989 -0.344743
944 1 -1.1104 9.32075 38.9885 9.54725
1302 1 -1.1104 3.79679 47.6039 1.09895
1324 1 -1.1104 12.3419 47.4416 1.08443
673 1 -1.1104 6.53167 25.0676 3.91881
675 1 -1.1104 6.48199 28.0509 1.23935
674 1 -1.1104 6.45409 22.2753 1.00788
678 2 2.2208 10.6942 23.6127 5.29184
679 2 2.2208 10.6069 29.3375 5.32864
680 1 -1.1104 12.2504 24.9566 1.14828
681 1 -1.1104 12.0655 24.9237 3.91529
682 1 -1.1104 12.0614 22.2482 1.00178
683 1 -1.1104 12.2696 27.6782 1.10517
684 2 2.2208 10.7679 26.3604 2.53194
685 1 -1.1104 11.9959 22.1813 3.844
686 1 -1.1104 12.2221 27.8264 3.90376
687 1 -1.1104 9.35405 25.1758 1.22939
688 2 2.2208 7.71857 23.7919 2.36004
689 2 2.2208 7.84092 29.2349 2.554
690 1 -1.1104 9.28593 25.0345 3.92623
691 2 2.2208 7.91877 26.412 5.35089
692 1 -1.1104 9.12802 22.3321 1.14454
693 1 -1.1104 9.39771 27.8874 1.17223
694 1 -1.1104 9.13801 22.168 3.8414
695 1 -1.1104 9.32548 27.811 3.89501
827 1 -1.1104 12.0497 27.8863 6.7364
796 1 -1.1104 6.48276 22.2313 6.5778
828 1 -1.1104 9.3007 24.9163 6.77553
825 1 -1.1104 12.0183 25.1374 6.66733
826 1 -1.1104 12.0577 22.3249 6.66211
771 2 2.2208 10.8009 43.3581 8.00832
9821 2 2.2208 13.5233 46.1466 2.52183
951 2 2.2208 2.45141 43.3379 -0.306173
1341 1 -1.1104 9.45967 47.4118 4.06351
699 2 2.2208 5.11902 34.7873 5.21935
700 1 -1.1104 0.81624 30.5175 1.2224
701 1 -1.1104 1.00712 36.4368 1.19653
703 1 -1.1104 0.809038 30.595 3.94758
704 1 -1.1104 1.08963 36.3399 3.92383
706 1 -1.1104 1.05308 33.3388 1.12228
707 2 2.2208 5.15697 31.9766 2.60589
708 2 2.2208 5.1156 37.7563 2.50174
709 1 -1.1104 1.01994 33.4483 3.97305
711 1 -1.1104 3.76152 30.4802 1.21011
712 1 -1.1104 3.63295 36.3585 1.09258
713 2 2.2208 2.32992 34.8856 2.55091
714 1 -1.1104 3.70126 30.5723 4.08235
715 1 -1.1104 3.73077 36.1441 3.93161
716 2 2.2208 2.33848 31.9876 5.45181
717 2 2.2208 2.4228 37.6334 5.35336
718 1 -1.1104 3.93384 33.5791 1.23391
719 1 -1.1104 3.72585 33.3319 3.90113
725 1 -1.1104 6.65948 33.5984 1.12169
723 1 -1.1104 6.49482 30.7144 1.2436
849 1 -1.1104 1.04168 30.6272 6.83213
979 2 2.2208 8.01083 32.1227 -0.217227
945 1 -1.1104 9.42371 44.6264 12.4294
724 1 -1.1104 6.62041 30.5829 3.96928
705 1 -1.1104 6.58231 36.324 3.82275
710 1 -1.1104 6.5835 33.3954 3.91085
702 1 -1.1104 6.44501 36.3627 1.23475
946 1 -1.1104 9.36107 39.1194 12.2945
9773 2 2.2208 13.5434 46.1136 8.09767
9649 2 2.2208 13.5198 23.6101 8.15035
943 1 -1.1104 9.56036 44.8646 9.46082
726 2 2.2208 10.7347 34.8295 5.32167
727 1 -1.1104 11.9593 30.7135 1.11897
728 1 -1.1104 12.3626 36.1898 1.11342
729 1 -1.1104 12.1412 30.5817 3.91501
730 1 -1.1104 12.2932 36.1364 3.91912
731 1 -1.1104 12.209 33.4301 1.1446
732 2 2.2208 10.6877 32.0465 2.43568
733 2 2.2208 10.858 37.6101 2.51768
734 1 -1.1104 12.1037 33.4222 3.94978
735 1 -1.1104 9.23196 30.5983 1.02998
736 1 -1.1104 9.46081 36.2483 1.15468
737 2 2.2208 8.03225 34.902 2.47049
738 1 -1.1104 9.27113 30.6762 3.81147
739 1 -1.1104 9.3627 36.3381 3.77616
740 2 2.2208 7.95428 32.0157 5.30097
741 2 2.2208 8.06567 37.6889 5.26136
742 1 -1.1104 9.46467 33.4534 1.16571
743 1 -1.1104 9.3008 33.5003 3.89696
9550 2 2.2208 13.7311 37.6265 5.22645
852 1 -1.1104 6.4955 36.2812 6.60183
9813 2 2.2208 13.4912 26.4131 5.26823
1337 1 -1.1104 9.52959 47.3613 1.10145
669 2 2.2208 10.8252 40.5175 11.0082
790 1 -1.1104 12.1598 39.0499 9.41821
1480 1 -1.1104 3.81891 47.5927 6.54616
1510 1 -1.1104 12.1701 47.476 6.62902