ITEM: TIMESTEP
60000
ITEM: NUMBER OF ATOMS
17910
ITEM: BOX BOUNDS pp pp pp
-3.5374886585238324e-01 2.7693748865853070e+01
-4.3440993647101847e+00 3.3242409936471665e+02
-3.5302159637451941e-01 2.7693021596374169e+01
ITEM: ATOMS id type q x y z
1 2 2.2208 5.39074 1.37384 5.35736
2 1 -1.1104 1.19077 -2.89961 1.14079
3 1 -1.1104 0.929211 2.81384 1.02053
6 1 -1.1104 0.977574 -2.99924 3.85586
7 1 -1.1104 1.10099 2.80744 3.9614
10 1 -1.1104 0.896582 0.0932116 1.1192
12 2 2.2208 5.25899 -1.48971 2.54793
13 2 2.2208 5.27393 4.19171 2.53929
14 1 -1.1104 1.12776 -0.0919417 3.82016
16 1 -1.1104 3.89866 -3.01464 1.12998
17 1 -1.1104 3.76864 2.72012 1.13469
18 2 2.2208 2.51548 1.27497 2.4196
19 1 -1.1104 3.75766 -2.94073 3.92572
20 1 -1.1104 3.91035 2.90915 4.03224
21 2 2.2208 2.40781 -1.39585 5.28871
22 2 2.2208 2.57305 4.09197 5.30032
23 1 -1.1104 3.72182 -0.105913 0.98181
24 1 -1.1104 3.89428 -0.000579099 3.91383
166 1 -1.1104 1.1625 -2.83012 6.61599
172 1 -1.1104 3.93015 -2.86197 6.82395
167 1 -1.1104 1.0895 2.7469 6.67065
9064 2 2.2208 -0.220434 1.27167 5.16555
173 1 -1.1104 4.12884 2.68944 6.83549
170 1 -1.1104 1.19012 -0.075264 6.8209
174 1 -1.1104 3.83567 0.00560592 6.57068
9061 2 2.2208 -0.370609 -1.50774 2.41739
9093 2 2.2208 -0.275621 21.043 13.5985
4 1 -1.1104 6.74261 -2.945 1.13919
169 1 -1.1104 6.90001 2.76068 6.81705
9066 2 2.2208 -0.406905 -4.29121 5.28225
28 2 2.2208 2.45588 -4.54745 2.58737
8 1 -1.1104 6.60027 -2.92554 3.93034
9 1 -1.1104 6.73681 2.61859 3.87099
15 1 -1.1104 6.61119 -0.0735285 3.93581
11 1 -1.1104 6.59266 -0.121634 1.13998
5 1 -1.1104 6.77291 2.78975 1.14729
31 2 2.2208 10.8902 1.37542 5.4182
32 1 -1.1104 12.2266 -2.844 1.30944
33 1 -1.1104 12.3494 2.80874 1.33502
34 1 -1.1104 12.2569 -2.87121 4.02131
35 1 -1.1104 12.2797 2.79584 4.04771
36 1 -1.1104 12.2995 0.0681675 0.862878
37 2 2.2208 10.9677 -1.48963 2.52698
39 1 -1.1104 12.2812 -0.231163 3.84462
40 1 -1.1104 9.47582 -2.80001 1.07889
41 1 -1.1104 9.43094 2.74823 1.36812
42 2 2.2208 8.0997 1.29548 2.55651
43 1 -1.1104 9.38864 -2.79991 3.91399
44 1 -1.1104 9.55459 2.72687 4.0096
45 2 2.2208 8.14282 -1.51026 5.26159
47 1 -1.1104 9.56586 -0.111005 1.17331
48 1 -1.1104 9.44443 -0.0518549 4.03099
38 2 2.2208 10.8858 4.13441 2.52983
46 2 2.2208 8.26656 4.08414 5.37528
206 1 -1.1104 12.3776 2.68527 6.86442
205 1 -1.1104 12.2031 -2.8297 6.85199
207 1 -1.1104 12.2445 0.013483 6.7138
209 1 -1.1104 9.59375 2.68675 6.86489
51 2 2.2208 8.07614 -4.33599 2.61848
52 2 2.2208 10.819 -4.23836 5.39974
171 1 -1.1104 6.74326 -0.139611 6.65812
208 1 -1.1104 9.42098 -2.8015 6.73841
210 1 -1.1104 9.60588 -0.103346 6.98653
168 1 -1.1104 6.58804 -2.89995 6.61495
9065 2 2.2208 -0.204577 4.18542 2.55282
54 2 2.2208 5.23421 6.97095 5.27145
55 2 2.2208 5.17545 12.4823 5.32488
56 1 -1.1104 1.04414 8.38829 1.13195
58 1 -1.1104 0.820714 8.20426 3.87276
60 1 -1.1104 1.03608 5.59351 1.08024
61 1 -1.1104 1.14389 11.308 1.0492
66 2 2.2208 5.30513 9.67671 2.4983
67 1 -1.1104 1.1893 5.63866 3.8232
68 1 -1.1104 1.09228 11.0254 3.87796
71 1 -1.1104 3.86395 8.20655 1.06848
72 2 2.2208 2.46524 7.07581 2.46223
73 2 2.2208 2.42854 12.536 2.5772
74 1 -1.1104 3.75055 8.42533 3.82564
75 2 2.2208 2.33036 9.62945 5.39174
76 1 -1.1104 3.94625 5.46452 1.3007
77 1 -1.1104 3.81741 10.9456 1.06706
79 1 -1.1104 3.98874 5.62669 3.86183
80 1 -1.1104 3.87523 11.0421 3.98377
62 1 -1.1104 1.01389 10.9459 6.79057
9070 2 2.2208 -0.300548 6.82873 5.31677
238 1 -1.1104 3.86507 8.13304 6.76903
236 1 -1.1104 0.930468 5.45815 6.70899
234 1 -1.1104 0.912895 8.28846 6.71754
78 1 -1.1104 3.82086 11.1599 6.61527
239 1 -1.1104 3.72012 5.40538 6.82578
296 1 -1.1104 6.63389 19.6462 12.096
9071 2 2.2208 -0.31743 9.63095 2.39832
64 1 -1.1104 6.65917 11.2847 1.2546
69 1 -1.1104 6.80836 5.52024 4.02437
57 1 -1.1104 6.68039 8.34306 1.2099
235 1 -1.1104 6.65675 8.24786 6.85512
63 1 -1.1104 6.86274 5.52898 1.17292
59 1 -1.1104 6.6031 8.45179 3.93737
70 1 -1.1104 6.72356 11.2787 3.93681
84 2 2.2208 10.8795 6.90466 5.32125
85 2 2.2208 10.9199 12.4812 5.25862
86 1 -1.1104 12.2885 8.43286 1.14505
87 1 -1.1104 12.301 8.3453 3.93629
88 1 -1.1104 12.2972 5.54654 1.03871
89 1 -1.1104 12.0895 11.1162 1.32276
91 2 2.2208 10.8857 9.79416 2.70858
92 1 -1.1104 12.3146 5.525 3.78909
93 1 -1.1104 12.4339 11.1633 3.9987
94 1 -1.1104 9.40864 8.381 1.22569
95 2 2.2208 8.20864 6.98474 2.65616
96 2 2.2208 8.17193 12.6849 2.57089
97 1 -1.1104 9.50852 8.31743 3.92355
98 2 2.2208 7.98136 9.75786 5.35358
99 1 -1.1104 9.46142 5.48007 1.10767
100 1 -1.1104 9.34984 11.1915 1.15652
102 1 -1.1104 9.55984 5.52565 4.02074
103 1 -1.1104 9.505 11.0976 3.95551
265 1 -1.1104 12.3706 8.34696 6.71441
90 1 -1.1104 12.3709 11.0519 6.70948
269 1 -1.1104 9.57801 5.47706 6.71202
267 1 -1.1104 9.5889 8.29558 6.60993
101 1 -1.1104 9.41922 11.1418 6.64629
266 1 -1.1104 12.3493 5.4712 6.64925
65 1 -1.1104 6.52478 11.0912 6.66419
237 1 -1.1104 6.64588 5.624 6.62487
106 2 2.2208 5.27986 18.1076 5.29286
107 1 -1.1104 1.03839 14.0408 1.17042
109 1 -1.1104 1.18098 19.5896 1.01582
113 1 -1.1104 1.02481 13.9148 3.96471
114 1 -1.1104 0.960601 19.5216 3.87441
116 1 -1.1104 1.01221 16.7886 1.31202
119 2 2.2208 5.23178 15.318 2.52394
120 2 2.2208 5.26713 21.0052 2.56615
121 1 -1.1104 1.14287 16.6829 4.01018
123 1 -1.1104 3.8987 13.9013 1.1786
125 1 -1.1104 3.84455 19.5718 1.092
127 2 2.2208 2.52103 18.144 2.47459
128 1 -1.1104 3.77932 13.8548 3.95774
129 1 -1.1104 3.84143 19.4879 3.90303
130 2 2.2208 2.46023 15.2803 5.36513
131 2 2.2208 2.32904 20.9304 5.31321
132 1 -1.1104 3.86043 16.6328 1.14144
134 1 -1.1104 3.99717 16.594 3.9643
124 1 -1.1104 3.85902 13.8103 6.77601
133 1 -1.1104 3.85836 16.5739 6.69038
117 1 -1.1104 1.05932 16.7125 6.74744
311 2 2.2208 8.01881 18.1508 13.6177
302 1 -1.1104 0.939114 19.4756 6.67438
9312 2 2.2208 -0.213842 15.472 13.7439
115 1 -1.1104 6.68476 14.1195 3.87
110 1 -1.1104 6.61308 14.0112 0.965554
122 1 -1.1104 6.68194 16.826 3.87848
138 1 -1.1104 6.76695 19.6432 1.0839
140 1 -1.1104 6.63974 16.7339 1.09008
139 1 -1.1104 6.71954 19.5279 3.75329
141 2 2.2208 10.9704 18.158 5.19489
142 1 -1.1104 12.5035 13.9238 0.982782
144 1 -1.1104 12.1872 19.4543 1.03954
146 1 -1.1104 12.3216 14.0892 3.81339
147 1 -1.1104 12.3819 19.676 3.81371
148 1 -1.1104 12.3271 16.8201 1.01036
150 2 2.2208 10.9031 15.3701 2.41703
151 2 2.2208 10.8657 21.0318 2.35591
152 1 -1.1104 12.2746 16.8735 3.75302
153 1 -1.1104 9.52101 13.9791 1.14334
155 1 -1.1104 9.51977 19.6095 1.04097
157 2 2.2208 8.04644 18.1079 2.4301
158 1 -1.1104 9.58755 14.0051 3.90449
159 1 -1.1104 9.51109 19.5972 3.84537
160 2 2.2208 8.11248 15.4259 5.26698
161 2 2.2208 8.15794 20.907 5.22114
162 1 -1.1104 9.5222 16.756 1.00627
164 1 -1.1104 9.49912 16.6423 3.75526
154 1 -1.1104 9.52804 13.9955 6.72162
112 1 -1.1104 6.56735 19.5515 6.50433
149 1 -1.1104 12.3138 16.7393 6.54079
143 1 -1.1104 12.2728 14.008 6.6409
118 1 -1.1104 6.71359 16.7661 6.66769
156 1 -1.1104 9.40825 19.6712 6.66633
111 1 -1.1104 6.62556 13.9424 6.71335
145 1 -1.1104 12.3427 19.6373 6.62903
202 2 2.2208 2.49436 -4.12137 8.12591
203 2 2.2208 5.19105 -4.27712 10.9768
9080 2 2.2208 -0.348776 -1.46593 8.02118
175 2 2.2208 5.14636 1.30106 10.8225
176 1 -1.1104 1.15677 -2.81728 12.3288
177 1 -1.1104 1.12406 2.74611 12.3092
180 1 -1.1104 1.16089 -2.88981 9.47486
181 1 -1.1104 0.974679 2.76712 9.5501
184 1 -1.1104 1.05687 -0.0362811 12.4046
186 2 2.2208 5.32745 -1.42753 8.04034
188 1 -1.1104 0.964509 -0.0777121 9.6532
190 1 -1.1104 3.95409 -2.80958 12.4792
191 1 -1.1104 3.87587 2.77941 12.3043
192 2 2.2208 2.4172 1.40893 8.20747
193 1 -1.1104 3.83014 -2.68053 9.75144
194 1 -1.1104 3.82149 2.79548 9.59406
195 2 2.2208 2.36951 -1.35815 10.8902
197 1 -1.1104 3.81071 -0.139405 12.3387
198 1 -1.1104 3.83209 0.0369605 9.43624
187 2 2.2208 5.17137 4.2552 8.25955
196 2 2.2208 2.60133 4.17689 11.0333
9085 2 2.2208 -0.295087 -4.3157 10.8656
29 2 2.2208 5.19407 -4.24193 5.25305
136 1 -1.1104 9.52239 19.5194 9.53614
9476 2 2.2208 -0.289741 -1.56636 13.6337
352 2 2.2208 2.5008 -4.20976 13.8072
231 2 2.2208 7.98404 -4.28654 8.04505
383 2 2.2208 8.10813 -4.20734 13.7569
232 2 2.2208 10.8898 -4.18737 10.9786
9075 2 2.2208 -0.31927 15.3156 2.60294
183 1 -1.1104 6.54597 2.8227 9.49426
179 1 -1.1104 6.7822 2.63163 12.3055
9072 2 2.2208 -0.354544 12.4168 5.35294
182 1 -1.1104 6.70695 -2.8596 9.50661
189 1 -1.1104 6.58158 -0.218403 9.4895
178 1 -1.1104 6.80928 -2.93592 12.354
185 1 -1.1104 6.69601 -0.112317 12.3899
211 2 2.2208 10.9111 1.3187 11.1283
212 1 -1.1104 12.3371 -2.79683 12.5845
213 1 -1.1104 12.4245 2.69042 12.3841
214 1 -1.1104 12.2383 -2.86449 9.7368
215 1 -1.1104 12.5257 2.75873 9.62
216 1 -1.1104 12.3142 -0.227447 12.3589
217 2 2.2208 10.9344 -1.45624 8.18136
219 1 -1.1104 12.3304 -0.126634 9.59532
220 1 -1.1104 9.52928 -2.8172 12.3362
221 1 -1.1104 9.50617 2.76174 12.4381
222 2 2.2208 8.09278 1.3675 8.24636
223 1 -1.1104 9.51127 -2.8735 9.53105
224 1 -1.1104 9.45366 2.73895 9.64339
225 2 2.2208 8.18987 -1.54716 10.9025
226 2 2.2208 8.13692 4.10165 11.0539
227 1 -1.1104 9.39531 -0.0394571 12.3992
228 1 -1.1104 9.55939 0.0524982 9.63326
218 2 2.2208 11.0125 4.15095 8.09426
388 2 2.2208 10.8521 4.14272 13.6865
49 1 -1.1104 12.1695 19.6077 9.38659
25 2 2.2208 11.0093 18.092 10.9417
422 2 2.2208 2.49768 6.91102 13.6914
8991 2 2.2208 -0.418981 9.79986 8.13832
8992 2 2.2208 -0.292323 6.93072 10.8968
240 2 2.2208 5.3156 7.04284 10.9641
241 2 2.2208 5.3191 12.5702 10.8563
242 1 -1.1104 1.04944 8.3813 12.3222
244 1 -1.1104 1.07954 8.35125 9.55976
246 1 -1.1104 1.16872 5.5006 12.2694
247 1 -1.1104 1.17996 11.1916 12.285
250 2 2.2208 5.21168 9.7168 8.16439
251 1 -1.1104 1.18101 5.57532 9.51114
252 1 -1.1104 1.04258 11.0997 9.55279
255 1 -1.1104 3.82687 8.50643 12.4747
256 2 2.2208 2.42199 6.86804 8.12283
257 2 2.2208 2.30974 12.3797 8.10277
258 1 -1.1104 3.78516 8.35806 9.61846
259 2 2.2208 2.4544 9.80688 10.9234
260 1 -1.1104 3.93989 5.59002 12.3597
261 1 -1.1104 3.88232 11.1855 12.2669
262 1 -1.1104 3.94342 5.64172 9.66368
263 1 -1.1104 3.78457 11.201 9.44015
9079 2 2.2208 -0.385261 4.179 8.10609
9073 2 2.2208 13.6626 12.6011 2.53972
424 2 2.2208 2.56908 12.4756 13.7429
423 2 2.2208 5.2845 9.82676 13.6889
249 1 -1.1104 6.71741 11.1409 12.1928
137 2 2.2208 8.05743 15.4152 10.8189
50 1 -1.1104 12.3442 16.7347 12.3344
248 1 -1.1104 6.66554 5.45778 12.3693
243 1 -1.1104 6.5723 8.3831 12.4358
245 1 -1.1104 6.71438 8.49867 9.67549
253 1 -1.1104 6.70031 5.75326 9.5228
254 1 -1.1104 6.6971 11.2813 9.45265
264 1 -1.1104 9.62795 11.1645 9.596
268 1 -1.1104 9.74373 5.59304 9.47293
270 1 -1.1104 9.50412 11.2651 12.3952
271 1 -1.1104 9.48942 5.66511 12.4064
272 2 2.2208 8.13619 9.74575 10.8748
273 1 -1.1104 9.44824 8.29545 9.45235
274 2 2.2208 8.01575 12.6485 8.13714
275 2 2.2208 8.15152 6.96729 8.10995
276 2 2.2208 10.9532 7.04244 10.8959
277 2 2.2208 10.9503 12.655 11.0099
278 1 -1.1104 12.2192 8.42664 12.2851
279 1 -1.1104 12.3362 8.30953 9.51927
280 1 -1.1104 12.3665 5.54443 12.3791
281 1 -1.1104 12.3209 11.356 12.474
282 2 2.2208 10.9962 9.70552 8.07279
283 1 -1.1104 12.382 5.46559 9.52557
284 1 -1.1104 12.3672 11.1465 9.51152
285 1 -1.1104 9.4526 8.28931 12.3115
449 2 2.2208 8.1277 6.97617 13.783
450 2 2.2208 10.7656 9.79699 13.6048
451 2 2.2208 8.12491 12.6273 13.6798
108 1 -1.1104 0.863235 13.867 6.743
126 1 -1.1104 3.89363 19.5633 6.67797
487 2 2.2208 5.1879 15.3811 13.7504
105 2 2.2208 8.07381 18.1717 8.09004
9077 2 2.2208 -0.383467 18.0968 5.30118
9084 2 2.2208 -0.311382 20.8463 7.98724
201 2 2.2208 2.60128 15.3209 10.9691
204 2 2.2208 2.45573 20.9334 10.8944
229 1 -1.1104 4.0409 16.8763 12.2658
230 1 -1.1104 1.2118 16.7866 12.2707
286 1 -1.1104 3.87293 19.6914 12.3154
287 1 -1.1104 3.9451 14.0826 12.4072
291 1 -1.1104 1.26677 19.5157 9.4301
292 1 -1.1104 1.15369 16.6836 9.52766
293 2 2.2208 5.37908 21.0083 7.96206
294 1 -1.1104 1.15684 13.8848 9.5453
295 2 2.2208 5.22844 15.3611 8.13135
298 1 -1.1104 1.208 19.4981 12.2443
299 1 -1.1104 1.25098 14.04 12.3966
300 2 2.2208 5.39726 18.097 10.831
301 1 -1.1104 3.96176 19.5472 9.49817
303 2 2.2208 2.5174 18.0624 8.0828
304 1 -1.1104 4.02648 16.6568 9.5062
305 1 -1.1104 3.93701 13.9388 9.53407
308 2 2.2208 2.45194 18.2213 13.6276
289 1 -1.1104 6.75201 16.7959 9.4496
290 1 -1.1104 6.7731 14.0264 9.53007
309 2 2.2208 5.24642 20.9662 13.7739
30 1 -1.1104 12.4059 13.9748 9.44828
200 1 -1.1104 9.58487 16.7804 9.54396
53 2 2.2208 10.9458 15.3546 7.97652
233 1 -1.1104 6.7824 16.7894 12.2602
199 1 -1.1104 9.50298 16.8678 12.3022
81 2 2.2208 10.925 20.9643 8.05341
26 1 -1.1104 12.3101 14.005 12.1401
165 2 2.2208 8.11498 20.9517 10.8669
288 1 -1.1104 6.79791 19.6478 9.21156
297 1 -1.1104 6.66205 13.8877 12.291
82 1 -1.1104 12.2414 16.6699 9.38179
104 1 -1.1104 9.57299 19.5586 12.2263
27 1 -1.1104 12.2956 19.5251 12.2081
135 1 -1.1104 9.44494 13.9781 9.60452
83 1 -1.1104 9.46717 14.1205 12.2042
163 1 -1.1104 9.51639 16.8294 6.62398
387 2 2.2208 10.9339 -1.41241 13.8142
354 2 2.2208 2.46194 1.29336 13.7715
310 2 2.2208 10.8424 20.9512 13.5931
9481 2 2.2208 -0.376715 -4.24672 -0.284009
542 2 2.2208 2.467 4.25311 -0.176622
570 2 2.2208 10.8961 1.28917 -0.313698
353 2 2.2208 5.38537 -1.55879 13.7324
606 2 2.2208 2.51936 9.77635 -0.250266
607 2 2.2208 5.23506 12.4707 -0.20809
9171 2 2.2208 -0.266468 4.11109 13.5365
313 2 2.2208 5.32256 1.21761 16.5718
314 1 -1.1104 1.22468 -2.90252 17.9079
315 1 -1.1104 1.15143 2.7578 17.8765
318 1 -1.1104 0.88941 -2.86633 15.2329
320 1 -1.1104 1.13259 2.97294 15.0971
326 1 -1.1104 1.1544 -0.0989748 17.9588
328 2 2.2208 5.25174 -1.3178 19.2958
330 1 -1.1104 1.08398 -0.0193615 15.0166
334 1 -1.1104 3.85255 -2.96653 18.0154
335 1 -1.1104 4.00145 2.76844 18.0213
336 2 2.2208 2.4126 1.34476 19.3285
337 1 -1.1104 3.77419 -2.8416 15.1111
339 1 -1.1104 3.79882 2.60681 15.0747
341 2 2.2208 2.50188 -1.42568 16.593
343 1 -1.1104 3.87008 0.098097 17.9028
344 1 -1.1104 3.97765 -0.0529205 15.2718
329 2 2.2208 5.26931 4.06871 19.2421
342 2 2.2208 2.47933 4.09191 16.4287
9474 2 2.2208 -0.284014 1.35058 16.4149
319 1 -1.1104 1.05494 -3.09472 20.7635
331 1 -1.1104 1.13053 -0.0438365 20.8791
321 1 -1.1104 1.00455 2.6686 20.6242
9475 2 2.2208 -0.213841 -1.57548 19.22
347 2 2.2208 5.12312 -4.39029 16.5544
9269 2 2.2208 13.5675 9.76763 27.7475
9468 2 2.2208 -0.388773 -4.32053 16.4859
345 1 -1.1104 3.81518 -0.0834 20.6269
340 1 -1.1104 3.88207 2.68899 20.8066
332 1 -1.1104 6.56509 -0.135056 15.0158
327 1 -1.1104 6.8334 0.0168285 18.1278
317 1 -1.1104 6.74305 2.65942 17.881
324 1 -1.1104 6.68642 2.75572 15.1602
322 1 -1.1104 6.5813 -2.8358 15.2394
316 1 -1.1104 6.59232 -2.64167 17.8374
356 2 2.2208 10.9728 1.32429 16.6032
357 1 -1.1104 12.3028 -2.96068 18.0759
358 1 -1.1104 12.3341 2.7903 18.0248
359 1 -1.1104 12.151 -2.93663 15.261
361 1 -1.1104 12.2336 2.69294 15.1579
363 1 -1.1104 12.353 -0.0934201 17.994
364 2 2.2208 10.9407 -1.55144 19.4108
366 1 -1.1104 12.4419 -0.028062 15.1579
368 1 -1.1104 9.46137 -3.0221 17.9595
369 1 -1.1104 9.73098 2.64911 18.0121
370 2 2.2208 8.15219 1.33331 19.5619
371 1 -1.1104 9.47564 -2.83989 15.1967
373 1 -1.1104 9.47882 2.77172 15.2034
375 2 2.2208 8.08566 -1.40245 16.543
377 1 -1.1104 9.4936 -0.163242 18.0748
378 1 -1.1104 9.51099 0.0127313 15.2251
365 2 2.2208 10.8392 4.09645 19.3854
376 2 2.2208 8.20463 4.02572 16.5896
362 1 -1.1104 12.3603 2.83507 20.7816
325 1 -1.1104 6.61279 2.84338 20.6828
360 1 -1.1104 12.3189 -2.96389 20.8797
372 1 -1.1104 9.49157 -2.95363 20.5971
323 1 -1.1104 6.75474 -2.87975 20.5217
374 1 -1.1104 9.43342 2.70022 20.9149
367 1 -1.1104 12.4349 -0.214663 20.6451
379 1 -1.1104 9.58209 -0.0856122 20.9003
381 2 2.2208 10.8538 -4.36627 16.7176
333 1 -1.1104 6.65218 -0.0970069 20.815
382 2 2.2208 7.992 -4.20745 19.322
389 2 2.2208 5.29104 6.96537 16.4913
390 2 2.2208 5.32772 12.5097 16.5541
391 1 -1.1104 0.84932 8.44759 17.8429
393 1 -1.1104 1.32781 8.44007 14.9414
397 1 -1.1104 1.14954 5.7321 17.7
398 1 -1.1104 1.19078 11.1314 17.8071
401 2 2.2208 5.26614 9.81624 19.1849
402 1 -1.1104 1.04783 5.56555 14.9832
404 1 -1.1104 1.11427 11.2283 15.0253
410 1 -1.1104 3.84494 8.39709 17.9573
411 2 2.2208 2.43286 6.96632 19.2459
412 2 2.2208 2.43876 12.5285 19.3832
413 1 -1.1104 3.95504 8.25353 15.1052
415 2 2.2208 2.55207 9.68729 16.4399
416 1 -1.1104 3.97279 5.5406 18.0302
417 1 -1.1104 3.86046 11.2036 17.9704
418 1 -1.1104 3.94449 5.43699 15.135
420 1 -1.1104 3.92802 11.1585 15.102
421 1 -1.1104 3.81725 11.0985 20.7553
414 1 -1.1104 3.90203 8.28381 20.6642
543 1 -1.1104 12.3418 16.7852 23.5074
403 1 -1.1104 1.16839 5.46758 20.5627
419 1 -1.1104 3.89113 5.48685 20.6817
394 1 -1.1104 1.14639 8.2618 20.6246
395 1 -1.1104 6.72693 8.33271 15.181
392 1 -1.1104 6.72645 8.39176 18.0231
9240 2 2.2208 -0.362284 6.98219 16.54
405 1 -1.1104 1.08665 11.1239 20.7909
399 1 -1.1104 6.69876 5.57735 17.8466
406 1 -1.1104 6.69138 5.59199 15.1831
400 1 -1.1104 6.65321 11.2197 17.9161
407 1 -1.1104 6.68737 5.68824 20.7712
408 1 -1.1104 6.63649 11.0623 15.0634
425 2 2.2208 10.8709 6.92441 16.6127
426 2 2.2208 10.9121 12.6845 16.4585
427 1 -1.1104 12.3195 8.25196 17.9565
428 1 -1.1104 12.2493 8.38053 15.2222
430 1 -1.1104 12.2723 5.53072 17.9108
431 1 -1.1104 12.2094 11.2138 17.9354
432 2 2.2208 10.8648 9.7596 19.4004
433 1 -1.1104 12.1772 5.57625 15.1629
435 1 -1.1104 12.1682 11.1433 15.0961
437 1 -1.1104 9.4368 8.24017 18.0213
438 2 2.2208 7.94315 7.04156 19.3605
439 2 2.2208 7.95448 12.6006 19.3571
440 1 -1.1104 9.48178 8.34845 15.231
442 2 2.2208 8.11726 9.73371 16.4991
443 1 -1.1104 9.55097 5.38134 18.0197
444 1 -1.1104 9.40731 11.1092 17.8894
445 1 -1.1104 9.47202 5.6521 15.198
447 1 -1.1104 9.53505 11.0566 15.2577
434 1 -1.1104 12.1828 5.58191 20.8194
446 1 -1.1104 9.40657 5.62803 20.7576
436 1 -1.1104 12.155 11.1335 20.7091
441 1 -1.1104 9.43595 8.40669 20.7957
396 1 -1.1104 6.55299 8.49228 20.8583
429 1 -1.1104 12.1522 8.32363 20.705
448 1 -1.1104 9.36477 11.2113 20.7105
409 1 -1.1104 6.58941 11.2073 20.635
9239 2 2.2208 -0.263639 9.78889 19.3155
452 2 2.2208 5.20186 18.0785 16.6362
453 1 -1.1104 1.11497 14.0471 17.8821
454 1 -1.1104 0.913006 19.5551 17.7955
457 1 -1.1104 0.983521 14.0042 15.1462
459 1 -1.1104 1.05733 19.6295 15.0486
465 1 -1.1104 1.11601 16.7301 17.9139
467 2 2.2208 5.23748 15.3428 19.4131
468 2 2.2208 5.29606 21.04 19.372
469 1 -1.1104 1.1638 16.8713 15.0496
473 1 -1.1104 3.93497 13.8944 18.1867
474 1 -1.1104 3.97946 19.5311 17.9155
475 2 2.2208 2.43021 18.121 19.3299
476 1 -1.1104 3.97699 13.903 15.1638
478 1 -1.1104 3.8897 19.4368 15.1869
480 2 2.2208 2.40359 15.4057 16.5551
481 2 2.2208 2.52331 20.9389 16.5988
482 1 -1.1104 3.84789 16.7471 17.9294
483 1 -1.1104 3.80657 16.7226 15.0966
484 1 -1.1104 3.91196 16.8081 20.7089
9311 2 2.2208 -0.467419 18.1835 16.4125
460 1 -1.1104 0.981953 19.4979 20.7175
470 1 -1.1104 1.0338 16.6584 20.7813
544 2 2.2208 10.7306 15.3042 24.8881
456 1 -1.1104 6.76195 19.6534 17.8193
461 1 -1.1104 6.72636 13.8863 15.1231
458 1 -1.1104 0.985446 13.8756 20.7258
466 1 -1.1104 6.75795 16.6763 17.8578
499 1 -1.1104 12.3192 16.8169 20.725
455 1 -1.1104 6.63035 13.9695 17.9654
463 1 -1.1104 6.60411 19.6335 15.034
471 1 -1.1104 6.62034 16.7046 15.0546
488 2 2.2208 10.8141 18.1783 16.4607
489 1 -1.1104 12.2109 13.9422 17.8881
490 1 -1.1104 12.3488 19.4911 17.7557
491 1 -1.1104 12.321 13.8614 15.0583
493 1 -1.1104 12.2535 19.3952 14.8908
495 1 -1.1104 12.2395 16.7583 17.8694
496 2 2.2208 10.813 15.2949 19.3198
497 2 2.2208 10.7486 20.9489 19.176
498 1 -1.1104 12.2665 16.6799 15.0922
500 1 -1.1104 9.41437 13.9723 17.7882
501 1 -1.1104 9.38638 19.4997 17.7906
502 2 2.2208 8.02268 18.0866 19.0847
503 1 -1.1104 9.5431 13.9726 15.0376
505 1 -1.1104 9.42359 19.7005 15.0298
507 2 2.2208 8.11447 15.1976 16.4249
508 2 2.2208 8.01754 20.9427 16.3803
509 1 -1.1104 9.55918 16.6448 17.9087
510 1 -1.1104 9.41832 16.77 15.0464
494 1 -1.1104 12.1777 19.5515 20.5106
492 1 -1.1104 12.3113 13.9667 20.7293
462 1 -1.1104 6.68253 14.105 20.8091
511 1 -1.1104 9.53331 16.8211 20.6896
506 1 -1.1104 9.35921 19.5338 20.5719
384 1 -1.1104 12.2328 19.5457 23.3382
9473 2 2.2208 13.5564 20.9726 22.0185
338 1 -1.1104 3.88553 -2.86465 20.762
541 2 2.2208 2.40509 -1.387 27.754
9310 2 2.2208 -0.416191 15.3971 19.3696
9485 2 2.2208 -0.304115 1.24372 22.1694
9484 2 2.2208 -0.395116 -1.53749 24.8636
9486 2 2.2208 -0.337872 4.15095 24.9142
516 2 2.2208 5.25117 1.27962 22.3028
517 1 -1.1104 1.18273 -3.10747 23.4969
518 1 -1.1104 1.06047 2.77095 23.4653
521 1 -1.1104 1.01754 -2.87362 26.3616
522 1 -1.1104 0.958071 2.76394 26.3863
525 1 -1.1104 0.958271 -0.156905 23.5057
527 2 2.2208 5.23207 -1.47962 24.9362
528 2 2.2208 5.213 4.20001 24.9234
529 1 -1.1104 0.883247 -0.118438 26.2759
531 1 -1.1104 3.86115 -2.99964 23.6828
532 1 -1.1104 3.8213 2.58652 23.6888
533 2 2.2208 2.42421 1.31063 25.02
534 1 -1.1104 3.84537 -2.79395 26.4852
535 1 -1.1104 3.89424 2.7782 26.3345
536 2 2.2208 2.52621 -1.62642 22.0645
538 1 -1.1104 3.9873 -0.246467 23.535
539 1 -1.1104 3.74905 -0.120736 26.3732
537 2 2.2208 2.45187 4.15358 22.1455
546 2 2.2208 5.22995 -4.28087 22.1124
9331 2 2.2208 13.7237 4.17212 22.059
540 2 2.2208 5.26737 1.41012 27.7828
9482 2 2.2208 -0.25864 -4.31046 22.1098
9470 2 2.2208 13.6742 18.0979 24.809
545 2 2.2208 5.28066 -4.30168 27.9498
576 2 2.2208 8.07282 -4.1597 24.967
575 2 2.2208 10.8727 -4.35117 22.2778
519 1 -1.1104 6.64523 -2.87277 23.4907
574 2 2.2208 10.7878 -4.19334 27.8755
526 1 -1.1104 6.72164 -0.00441154 23.6615
530 1 -1.1104 6.60146 0.0391902 26.3285
524 1 -1.1104 6.7081 2.78863 26.4232
520 1 -1.1104 6.52418 2.78141 23.5519
523 1 -1.1104 6.80576 -2.81156 26.5234
552 2 2.2208 10.9601 1.3807 22.2146
553 1 -1.1104 12.2693 -2.86155 23.6493
554 1 -1.1104 12.2626 2.7186 23.6287
555 1 -1.1104 12.4692 -2.85149 26.4731
556 1 -1.1104 12.4859 2.75789 26.4969
557 1 -1.1104 12.2572 -0.0144017 23.5722
558 2 2.2208 10.912 -1.51906 24.961
560 1 -1.1104 12.306 -0.141181 26.2971
561 1 -1.1104 9.43857 -2.97965 23.5297
562 1 -1.1104 9.49464 2.84408 23.6022
563 2 2.2208 8.04961 1.4821 25.064
564 1 -1.1104 9.59385 -2.87227 26.3273
565 1 -1.1104 9.50351 2.76377 26.4592
566 2 2.2208 8.1256 -1.40392 22.1837
568 1 -1.1104 9.45693 -0.0619758 23.6908
569 1 -1.1104 9.3457 -0.0105443 26.3801
559 2 2.2208 10.7975 4.20109 24.9579
567 2 2.2208 7.95022 4.24699 22.172
9467 2 2.2208 -0.398752 18.1405 22.1526
348 2 2.2208 2.46169 -4.41474 19.3162
9477 2 2.2208 13.6784 -4.30116 19.3641
9472 2 2.2208 -0.319049 6.80925 27.8077
9480 2 2.2208 -0.380251 12.524 22.095
581 2 2.2208 5.22541 6.94336 22.1742
582 2 2.2208 5.3138 12.5073 22.1569
583 1 -1.1104 0.99116 8.25799 23.6316
585 1 -1.1104 1.09829 8.25269 26.4616
587 1 -1.1104 1.04038 5.48582 23.4415
588 1 -1.1104 1.03768 10.9446 23.5605
591 2 2.2208 5.2987 9.69669 25.0374
592 1 -1.1104 0.956803 5.52244 26.3669
593 1 -1.1104 1.00035 11.1704 26.3544
596 1 -1.1104 3.93165 8.34693 23.5273
597 2 2.2208 2.50231 6.8886 25.0032
598 2 2.2208 2.50072 12.4217 24.9403
599 1 -1.1104 3.88643 8.3795 26.3724
600 2 2.2208 2.58684 9.74005 22.0681
601 1 -1.1104 3.79776 5.48791 23.5527
602 1 -1.1104 3.96199 11.0277 23.4947
603 1 -1.1104 3.8031 5.48182 26.4665
604 1 -1.1104 3.7971 11.2627 26.3254
605 2 2.2208 5.38036 6.88145 27.7041
9205 2 2.2208 -0.408223 12.7143 16.3866
595 1 -1.1104 6.63715 11.0245 26.38
9199 2 2.2208 13.5969 6.93423 19.3169
632 2 2.2208 10.8456 12.5903 27.7827
572 2 2.2208 8.1237 4.12691 27.8382
586 1 -1.1104 6.80465 8.27551 26.3587
631 2 2.2208 8.13896 9.71993 27.7951
584 1 -1.1104 6.67696 8.23899 23.6042
589 1 -1.1104 6.57452 5.55215 23.6685
590 1 -1.1104 6.70133 11.045 23.5122
594 1 -1.1104 6.56573 5.45006 26.3252
612 1 -1.1104 9.44526 11.193 26.4766
613 1 -1.1104 9.38393 5.56075 26.2502
614 1 -1.1104 9.4516 11.2228 23.5657
615 1 -1.1104 9.32404 5.6308 23.5547
616 2 2.2208 8.07943 9.77112 22.0647
617 1 -1.1104 9.54879 8.38763 26.3106
618 2 2.2208 8.02488 12.5659 24.9328
619 2 2.2208 8.07009 7.00566 24.9618
620 2 2.2208 10.7401 6.99901 22.0942
621 2 2.2208 10.8649 12.5976 22.1626
622 1 -1.1104 12.2296 8.46189 23.4428
623 1 -1.1104 12.2847 8.36854 26.325
624 1 -1.1104 12.2261 5.67875 23.6326
625 1 -1.1104 12.2969 11.1511 23.4862
626 2 2.2208 10.8706 9.7408 25.0209
627 1 -1.1104 12.2025 5.65064 26.3337
628 1 -1.1104 12.3137 11.2668 26.3858
629 1 -1.1104 9.41921 8.3109 23.5931
9096 2 2.2208 13.6652 20.8786 27.7026
479 1 -1.1104 3.79212 19.5793 20.6038
477 1 -1.1104 3.78997 13.8913 20.9202
346 2 2.2208 7.92027 15.3634 27.6399
633 2 2.2208 5.24361 18.3017 27.8031
385 1 -1.1104 12.1601 14.0631 26.2293
349 2 2.2208 2.50577 21.135 22.1926
350 1 -1.1104 3.74469 16.8019 23.562
485 1 -1.1104 0.876256 16.6322 23.5202
512 1 -1.1104 3.85955 14.1285 26.4312
514 1 -1.1104 3.819 16.8679 26.4572
634 2 2.2208 2.50591 18.2101 24.9122
635 2 2.2208 2.43871 15.2882 22.2054
636 1 -1.1104 3.87397 19.5471 23.4677
638 1 -1.1104 3.87102 13.9101 23.5326
640 1 -1.1104 1.19873 19.5025 26.4053
641 1 -1.1104 1.14177 16.7644 26.1453
642 1 -1.1104 1.01882 13.87 26.4371
644 2 2.2208 5.36854 20.9677 24.8291
645 2 2.2208 5.16621 15.4919 25.0432
647 1 -1.1104 1.21739 19.5869 23.5138
648 1 -1.1104 1.07197 13.7338 23.5215
649 2 2.2208 5.19008 18.2255 22.0318
650 1 -1.1104 3.99159 19.5958 26.3113
9478 2 2.2208 13.6191 -1.55851 16.6191
9418 2 2.2208 -0.34654 6.96144 22.0827
312 2 2.2208 2.5248 20.9618 27.7227
637 1 -1.1104 6.54005 13.8077 26.3246
639 1 -1.1104 6.60633 16.8027 26.2696
472 1 -1.1104 6.72897 16.7731 20.5867
504 1 -1.1104 9.49917 14.0951 20.7646
464 1 -1.1104 6.54619 19.5048 20.632
306 2 2.2208 10.9257 18.1442 27.6033
610 1 -1.1104 9.42117 16.8112 26.2534
550 1 -1.1104 9.4995 13.8251 23.4957
548 2 2.2208 10.8877 20.8807 24.866
646 1 -1.1104 6.69091 14.0901 23.6127
351 2 2.2208 10.8014 18.2171 21.9037
307 2 2.2208 8.09373 20.9755 27.6638
573 2 2.2208 7.99823 18.2928 24.9327
515 1 -1.1104 12.4858 19.4698 26.1479
580 2 2.2208 8.1458 15.3853 22.1627
380 1 -1.1104 12.3161 13.9906 23.3476
609 1 -1.1104 9.34696 16.8317 23.4613
579 1 -1.1104 9.62117 19.5661 26.3878
577 1 -1.1104 6.66344 19.6163 26.2923
551 1 -1.1104 9.37641 19.4014 23.573
578 1 -1.1104 9.28577 13.9851 26.2807
486 1 -1.1104 6.61065 16.894 23.3997
643 1 -1.1104 6.69582 19.7111 23.4411
608 2 2.2208 8.1312 20.9554 21.9916
549 1 -1.1104 12.231 16.7291 26.4609
9267 2 2.2208 13.6898 7.00224 24.8532
611 2 2.2208 2.38787 15.4051 27.7698
355 2 2.2208 5.3774 4.12514 13.6739
9097 2 2.2208 13.7454 18.1558 13.5413
386 2 2.2208 7.92591 1.25304 13.8539
9313 2 2.2208 -0.289114 18.1743 27.7528
9491 2 2.2208 13.6687 4.14635 27.7379
630 2 2.2208 10.8209 7.00758 27.7605
9243 2 2.2208 -0.22553 9.74058 13.7145
571 2 2.2208 8.10801 -1.50996 27.7526
9471 2 2.2208 13.8064 15.3437 27.5291
9483 2 2.2208 -0.34253 1.27144 27.7944
513 2 2.2208 10.897 15.4731 13.7309
651 2 2.2208 5.27017 23.7641 5.29629
652 2 2.2208 5.33814 29.3059 5.12005
653 1 -1.1104 1.15886 25.2139 1.12524
654 1 -1.1104 1.03082 25.1654 3.81246
655 1 -1.1104 1.05987 22.4439 1.01854
656 1 -1.1104 1.01439 28.0161 0.969165
657 2 2.2208 5.3976 26.56 2.44421
658 1 -1.1104 1.06611 22.2953 3.93441
659 1 -1.1104 1.04392 27.938 3.9291
660 1 -1.1104 3.98778 25.0005 1.04399
661 2 2.2208 2.43777 23.6774 2.51589
662 2 2.2208 2.54476 29.4886 2.48435
663 1 -1.1104 3.8264 25.1754 3.84683
664 2 2.2208 2.55483 26.6526 5.28541
665 1 -1.1104 3.89856 22.2248 1.14305
666 1 -1.1104 3.9595 27.9681 1.06402
667 1 -1.1104 3.87667 22.414 3.98034
668 1 -1.1104 3.99121 27.9576 3.82484
971 2 2.2208 10.8475 43.3515 13.5178
1484 1 -1.1104 6.61819 47.5231 12.1257
799 1 -1.1104 3.96603 22.2715 6.7511
9807 2 2.2208 -0.253651 29.455 5.16235
800 1 -1.1104 3.99479 27.8853 6.67269
795 1 -1.1104 1.24543 27.9735 6.81788
794 1 -1.1104 1.17515 22.2251 6.83174
798 1 -1.1104 3.98683 25.2777 6.69226
9823 2 2.2208 -0.320298 37.8085 8.05583
669 2 2.2208 10.9605 40.4823 10.8506
676 1 -1.1104 6.66304 22.4197 3.85796
677 1 -1.1104 6.93671 27.9466 3.73786
672 1 -1.1104 6.76639 25.2685 1.08591
673 1 -1.1104 6.85278 25.1487 3.98732
675 1 -1.1104 6.66789 28.0223 1.0469
674 1 -1.1104 6.75391 22.5396 1.08152
678 2 2.2208 10.9256 23.6911 5.31571
679 2 2.2208 10.9145 29.2902 5.17293
680 1 -1.1104 12.381 25.0592 0.970679
681 1 -1.1104 12.4409 25.2383 3.77643
682 1 -1.1104 12.4296 22.2506 1.11454
683 1 -1.1104 12.274 27.924 1.1116
684 2 2.2208 10.9078 26.5838 2.34915
685 1 -1.1104 12.2909 22.5886 3.84524
686 1 -1.1104 12.414 28.0576 3.88028
687 1 -1.1104 9.50936 25.1912 0.92774
688 2 2.2208 8.18293 23.8224 2.43848
689 2 2.2208 8.12234 29.3679 2.42184
690 1 -1.1104 9.60641 25.0449 3.91632
691 2 2.2208 8.15014 26.3855 5.30653
692 1 -1.1104 9.50695 22.5186 1.04176
693 1 -1.1104 9.40967 27.9685 0.97911
694 1 -1.1104 9.5966 22.3358 3.7941
695 1 -1.1104 9.63308 27.8985 3.79641
826 1 -1.1104 12.4462 22.3851 6.62825
828 1 -1.1104 9.56248 25.0811 6.61745
825 1 -1.1104 12.3787 25.1217 6.68871
827 1 -1.1104 12.3974 27.9223 6.53982
699 2 2.2208 5.26025 34.953 5.25481
700 1 -1.1104 1.15338 30.8184 0.955508
701 1 -1.1104 1.14962 36.4146 1.063
703 1 -1.1104 1.17273 30.8663 3.77009
704 1 -1.1104 0.908499 36.3991 3.82982
706 1 -1.1104 1.01772 33.4714 0.886794
707 2 2.2208 5.32694 32.2997 2.49896
708 2 2.2208 5.36407 37.833 2.40838
709 1 -1.1104 1.03402 33.6394 3.72224
711 1 -1.1104 3.93043 30.8848 1.07466
712 1 -1.1104 4.02002 36.3013 1.05617
713 2 2.2208 2.47908 34.8976 2.37471
714 1 -1.1104 3.99177 30.8968 3.8078
715 1 -1.1104 3.81438 36.4297 3.87499
716 2 2.2208 2.65283 32.1771 5.22301
717 2 2.2208 2.52602 37.761 5.09152
718 1 -1.1104 3.91825 33.7292 0.955453
719 1 -1.1104 3.85997 33.6471 3.84505
856 1 -1.1104 3.96597 36.2917 6.53806
849 1 -1.1104 1.17077 30.8336 6.61538
853 1 -1.1104 1.07544 33.6105 6.44489
855 1 -1.1104 4.01594 30.8314 6.68231
9825 2 2.2208 -0.334921 46.1736 10.6732
9816 2 2.2208 -0.326693 35.0431 5.23998
9712 2 2.2208 13.743 32.1394 10.7981
850 1 -1.1104 1.1779 36.3123 6.54339
9815 2 2.2208 -0.330465 32.2877 2.4069
9649 2 2.2208 13.7297 23.7102 8.06119
852 1 -1.1104 6.67692 36.3074 6.59544
724 1 -1.1104 6.66587 30.7185 3.8458
705 1 -1.1104 6.51625 36.4573 3.9742
725 1 -1.1104 6.75322 33.6603 1.00092
723 1 -1.1104 6.71868 30.9452 1.20423