ITEM: TIMESTEP
80000
ITEM: NUMBER OF ATOMS
17910
ITEM: BOX BOUNDS pp pp pp
-3.5391891200825520e-01 2.7693918912008744e+01
-4.3264823873690519e+00 3.3240648238737458e+02
-3.5396788821757935e-01 2.7693967888217422e+01
ITEM: ATOMS id type q x y z
1 2 2.2208 5.39846 1.01815 5.33188
2 1 -1.1104 1.13579 -3.19158 1.0595
3 1 -1.1104 1.03276 2.46795 1.01923
6 1 -1.1104 1.11622 -3.01169 3.84756
7 1 -1.1104 1.14356 2.44175 3.76139
10 1 -1.1104 1.17351 -0.346411 0.970944
12 2 2.2208 5.2445 -1.72679 2.48145
14 1 -1.1104 1.06081 -0.238298 3.74895
16 1 -1.1104 3.91025 -3.18933 1.03003
17 1 -1.1104 3.87537 2.36491 1.04936
18 2 2.2208 2.45807 1.06935 2.31768
19 1 -1.1104 3.88963 -3.07171 3.79729
20 1 -1.1104 3.97923 2.40626 3.76825
21 2 2.2208 2.60911 -1.78234 5.22022
23 1 -1.1104 3.87783 -0.441834 0.902346
24 1 -1.1104 3.90443 -0.299277 3.70444
13 2 2.2208 5.30598 3.88158 2.41974
8 1 -1.1104 6.69196 -3.18436 3.82425
11 1 -1.1104 6.71455 -0.335491 1.00642
5 1 -1.1104 6.63497 2.49994 1.11006
9077 2 2.2208 -0.173461 18.1083 5.37335
22 2 2.2208 2.64484 3.90204 5.11731
354 2 2.2208 2.49157 1.08644 13.7168
9065 2 2.2208 -0.453612 3.81147 2.3778
9483 2 2.2208 -0.194713 1.066 -0.374615
570 2 2.2208 10.9536 1.13635 -0.532903
9 1 -1.1104 6.66174 2.55194 3.98807
15 1 -1.1104 6.63135 -0.280366 3.88684
4 1 -1.1104 6.65715 -3.11317 0.99653
31 2 2.2208 11.0307 1.07186 5.0888
32 1 -1.1104 12.3618 -3.12018 0.979761
33 1 -1.1104 12.3715 2.44706 0.979288
34 1 -1.1104 12.3325 -3.09934 3.76289
35 1 -1.1104 12.3409 2.4707 3.64786
36 1 -1.1104 12.2568 -0.379073 0.960189
37 2 2.2208 11.0545 -1.76928 2.31988
39 1 -1.1104 12.3253 -0.359204 3.83207
40 1 -1.1104 9.41943 -3.07756 1.00849
41 1 -1.1104 9.45619 2.44545 1.01566
42 2 2.2208 8.01326 1.21076 2.48083
43 1 -1.1104 9.48318 -3.22334 3.7595
44 1 -1.1104 9.43234 2.42861 3.82633
45 2 2.2208 8.17967 -1.74051 5.25948
47 1 -1.1104 9.49514 -0.251407 0.972004
48 1 -1.1104 9.43446 -0.373004 3.81866
38 2 2.2208 10.8246 3.82179 2.4448
9082 2 2.2208 -0.209289 15.1847 8.15348
9081 2 2.2208 -0.287386 1.14988 10.8411
46 2 2.2208 8.00096 3.8453 5.28731
9072 2 2.2208 -0.322899 12.4343 5.29193
9061 2 2.2208 -0.277873 -1.67018 2.38708
9083 2 2.2208 -0.250456 18.098 11.0471
346 2 2.2208 8.16748 15.3116 -0.419823
54 2 2.2208 5.3188 6.77768 5.14455
55 2 2.2208 5.39475 12.4767 5.32959
56 1 -1.1104 1.25968 8.17833 1.16672
58 1 -1.1104 1.2192 8.35372 3.79944
60 1 -1.1104 1.1134 5.23841 0.975998
61 1 -1.1104 1.11065 10.9737 0.959478
66 2 2.2208 5.39229 9.67909 2.31191
67 1 -1.1104 1.16318 5.39355 3.82545
68 1 -1.1104 1.23357 11.0958 3.79247
71 1 -1.1104 3.95322 8.17605 0.80963
72 2 2.2208 2.53433 6.59988 2.35873
73 2 2.2208 2.47139 12.5345 2.47313
74 1 -1.1104 3.87337 8.14979 3.79719
75 2 2.2208 2.58765 9.63272 5.22164
76 1 -1.1104 3.85668 5.22193 0.89682
77 1 -1.1104 4.00929 11.0982 1.13173
79 1 -1.1104 4.02257 5.28251 3.81145
80 1 -1.1104 4.00444 11.0401 3.89493
63 1 -1.1104 6.58071 5.35073 0.974402
64 1 -1.1104 6.85251 11.0182 0.997683
70 1 -1.1104 6.82083 11.2322 3.78361
9080 2 2.2208 -0.252789 -1.76897 8.08637
78 1 -1.1104 3.91703 10.8922 6.73588
8984 2 2.2208 -0.294468 12.3627 10.8591
308 2 2.2208 2.55805 17.9496 13.7345
59 1 -1.1104 6.88632 8.26418 3.73721
69 1 -1.1104 6.82076 5.28587 3.79658
57 1 -1.1104 6.79708 8.09425 1.06373
84 2 2.2208 10.8869 6.73936 5.2846
85 2 2.2208 11.0404 12.3564 5.16299
86 1 -1.1104 12.3116 8.03048 1.11315
87 1 -1.1104 12.3515 8.14616 3.87019
88 1 -1.1104 12.32 5.19357 1.03099
89 1 -1.1104 12.3043 11.0032 1.05552
91 2 2.2208 11.0052 9.61908 2.49077
92 1 -1.1104 12.4602 5.26319 3.76349
93 1 -1.1104 12.3621 10.894 3.71281
94 1 -1.1104 9.66354 8.20381 0.98289
95 2 2.2208 8.25026 6.77462 2.40571
96 2 2.2208 8.04067 12.4448 2.42096
97 1 -1.1104 9.56574 8.20922 3.83978
98 2 2.2208 8.21065 9.63784 5.30817
99 1 -1.1104 9.50196 5.3464 0.91247
100 1 -1.1104 9.65501 10.9188 1.16897
102 1 -1.1104 9.58596 5.47452 3.80666
103 1 -1.1104 9.59218 11.015 3.89196
633 2 2.2208 5.36833 18.1108 -0.538495
200 1 -1.1104 9.62757 16.627 9.55095
9075 2 2.2208 -0.270517 15.1862 2.65785
135 1 -1.1104 9.53275 13.845 9.46074
235 1 -1.1104 6.63427 8.13124 6.52611
101 1 -1.1104 9.55512 10.9535 6.6762
307 2 2.2208 8.23497 20.756 -0.44166
53 2 2.2208 10.8997 15.0865 7.98941
106 2 2.2208 5.34991 18.1096 5.2123
107 1 -1.1104 0.989997 13.9152 1.00997
109 1 -1.1104 1.09797 19.4871 1.15499
113 1 -1.1104 1.05054 13.8292 3.9394
114 1 -1.1104 1.28504 19.4873 3.83862
116 1 -1.1104 1.10868 16.6745 1.1667
119 2 2.2208 5.44442 15.3175 2.31967
120 2 2.2208 5.28378 20.8254 2.43412
121 1 -1.1104 1.07149 16.6281 3.90292
123 1 -1.1104 3.80828 13.8472 1.07431
125 1 -1.1104 3.94126 19.4058 0.892822
127 2 2.2208 2.40781 18.0439 2.54662
128 1 -1.1104 3.86284 13.9531 3.67709
129 1 -1.1104 3.90549 19.4277 3.835
130 2 2.2208 2.57838 15.2522 5.24972
131 2 2.2208 2.58922 20.8217 5.26067
132 1 -1.1104 3.96186 16.6167 1.06087
134 1 -1.1104 4.05407 16.7081 3.89416
140 1 -1.1104 6.74674 16.634 0.99704
139 1 -1.1104 6.74587 19.6064 3.77287
110 1 -1.1104 6.80911 13.8359 0.987109
138 1 -1.1104 6.85519 19.4523 0.907261
124 1 -1.1104 4.03849 13.8157 6.68674
133 1 -1.1104 3.81062 16.7398 6.65432
8762 2 2.2208 13.8016 3.86648 5.24127
104 1 -1.1104 9.65638 19.4822 12.2078
25 2 2.2208 10.9005 17.9486 10.9604
115 1 -1.1104 6.77882 13.9088 3.93846
122 1 -1.1104 6.70789 16.6601 3.87534
141 2 2.2208 10.8631 17.9981 5.30082
142 1 -1.1104 12.3943 13.9114 0.985807
144 1 -1.1104 12.2363 19.4427 0.922629
146 1 -1.1104 12.3421 13.7724 3.80507
147 1 -1.1104 12.3296 19.4044 3.87467
148 1 -1.1104 12.2935 16.6487 1.12238
150 2 2.2208 10.9198 15.1891 2.38835
151 2 2.2208 10.8489 20.7768 2.43903
152 1 -1.1104 12.2298 16.6011 3.8324
153 1 -1.1104 9.48701 13.7599 0.995353
155 1 -1.1104 9.58597 19.2337 1.05101
157 2 2.2208 8.14497 17.9501 2.50324
158 1 -1.1104 9.55666 13.8497 3.87796
159 1 -1.1104 9.48243 19.5406 3.88604
160 2 2.2208 8.06691 15.1557 5.30704
161 2 2.2208 8.07151 20.877 5.24186
162 1 -1.1104 9.49255 16.3715 1.19203
164 1 -1.1104 9.62064 16.5519 3.88358
145 1 -1.1104 12.1955 19.2823 6.82797
156 1 -1.1104 9.42645 19.4655 6.63954
111 1 -1.1104 6.68395 13.7149 6.79572
149 1 -1.1104 12.1792 16.5561 6.62544
163 1 -1.1104 9.41841 16.5712 6.64947
173 1 -1.1104 4.15248 2.51509 6.57206
166 1 -1.1104 1.16583 -3.07008 6.59499
167 1 -1.1104 1.34234 2.51675 6.67808
168 1 -1.1104 6.65773 -3.15268 6.64461
172 1 -1.1104 3.94093 -3.09784 6.67556
170 1 -1.1104 1.23434 -0.18813 6.59413
174 1 -1.1104 3.97324 -0.307738 6.62134
171 1 -1.1104 6.71112 -0.353115 6.71323
175 2 2.2208 5.41248 1.20786 10.8133
176 1 -1.1104 1.11999 -3.04721 12.2542
177 1 -1.1104 1.23848 2.56377 12.3054
180 1 -1.1104 1.05632 -3.12308 9.51359
181 1 -1.1104 1.1717 2.48551 9.43475
184 1 -1.1104 1.14647 -0.302965 12.3386
186 2 2.2208 5.31592 -1.73541 8.06684
188 1 -1.1104 1.24297 -0.313339 9.47244
190 1 -1.1104 3.94997 -3.04257 12.2031
191 1 -1.1104 4.08252 2.5952 12.2944
192 2 2.2208 2.62264 1.06606 8.05206
193 1 -1.1104 3.87517 -2.94912 9.31144
194 1 -1.1104 3.98084 2.55599 9.47456
195 2 2.2208 2.51754 -1.65944 10.9016
197 1 -1.1104 3.88814 -0.210059 12.2174
198 1 -1.1104 3.94275 -0.198277 9.32867
187 2 2.2208 5.39643 3.97177 8.05169
196 2 2.2208 2.53481 4.00283 10.9575
182 1 -1.1104 6.75874 -3.18801 9.41341
183 1 -1.1104 6.66858 2.48154 9.50653
185 1 -1.1104 6.75229 -0.285862 12.1886
178 1 -1.1104 6.81925 -3.06285 12.2732
165 2 2.2208 8.24601 20.7942 10.8872
9079 2 2.2208 -0.32714 3.92189 8.03576
207 1 -1.1104 12.4997 -0.166912 6.56507
205 1 -1.1104 12.3269 -2.90162 6.68703
27 1 -1.1104 12.3053 19.5684 12.3579
169 1 -1.1104 6.90827 2.50396 6.61399
189 1 -1.1104 6.75736 -0.140011 9.35947
179 1 -1.1104 6.87495 2.57606 12.3055
209 1 -1.1104 9.67746 2.46753 6.49338
206 1 -1.1104 12.502 2.47447 6.47841
208 1 -1.1104 9.51055 -3.14583 6.78285
210 1 -1.1104 9.47448 -0.318348 6.6251
211 2 2.2208 10.8397 1.13437 10.7707
212 1 -1.1104 12.4381 -3.12569 12.1957
213 1 -1.1104 12.4462 2.40511 12.2361
214 1 -1.1104 12.2965 -3.09639 9.57069
215 1 -1.1104 12.2815 2.66893 9.3306
216 1 -1.1104 12.3253 -0.27342 12.2243
217 2 2.2208 10.8862 -1.66456 8.15714
219 1 -1.1104 12.2546 -0.144175 9.27648
220 1 -1.1104 9.6053 -3.10553 12.2766
221 1 -1.1104 9.63608 2.66012 12.1967
222 2 2.2208 8.16206 1.08502 7.9671
223 1 -1.1104 9.69803 -3.14582 9.48185
224 1 -1.1104 9.49461 2.41769 9.35179
225 2 2.2208 8.14967 -1.79426 10.8295
227 1 -1.1104 9.5861 -0.36235 12.2667
228 1 -1.1104 9.51845 -0.300438 9.60347
218 2 2.2208 10.8784 3.92438 8.00997
226 2 2.2208 8.05304 4.07693 10.85
118 1 -1.1104 6.72444 16.5727 6.5748
238 1 -1.1104 3.9939 8.19886 6.61605
234 1 -1.1104 1.10058 8.21644 6.59313
236 1 -1.1104 1.03856 5.40529 6.76046
62 1 -1.1104 1.16004 11.0574 6.61704
65 1 -1.1104 6.71137 10.893 6.60109
239 1 -1.1104 3.79904 5.25596 6.6494
240 2 2.2208 5.24439 6.71463 10.8294
241 2 2.2208 5.33672 12.2999 10.8683
242 1 -1.1104 1.19014 8.39846 12.2987
244 1 -1.1104 1.07674 8.08723 9.55604
246 1 -1.1104 1.0647 5.56648 12.3397
247 1 -1.1104 1.09491 11.0449 12.4559
250 2 2.2208 5.16929 9.52646 7.97102
251 1 -1.1104 1.03977 5.2778 9.57773
252 1 -1.1104 1.02505 10.8263 9.45608
255 1 -1.1104 3.93281 8.24768 12.2598
256 2 2.2208 2.44369 6.73129 8.06957
257 2 2.2208 2.57841 12.3359 8.08407
258 1 -1.1104 3.85935 8.05222 9.39588
259 2 2.2208 2.51821 9.68616 10.9572
260 1 -1.1104 3.97484 5.31795 12.292
261 1 -1.1104 3.88749 11.1804 12.2565
262 1 -1.1104 3.85611 5.28157 9.44951
263 1 -1.1104 3.89191 10.8619 9.58044
248 1 -1.1104 6.71514 5.36557 12.1241
249 1 -1.1104 6.77995 10.9802 12.2676
253 1 -1.1104 6.63586 5.37115 9.38097
243 1 -1.1104 6.53349 8.14021 12.1843
245 1 -1.1104 6.65286 8.3358 9.40165
237 1 -1.1104 6.64881 5.45827 6.55905
8991 2 2.2208 -0.332287 9.46366 8.07054
8992 2 2.2208 -0.399702 6.74636 10.8795
267 1 -1.1104 9.53754 8.138 6.54986
266 1 -1.1104 12.274 5.33208 6.46764
9078 2 2.2208 13.6836 17.9598 2.49699
254 1 -1.1104 6.67037 10.9991 9.22449
265 1 -1.1104 12.367 8.01673 6.72195
269 1 -1.1104 9.45797 5.27765 6.58576
90 1 -1.1104 12.3947 10.9309 6.63901
9070 2 2.2208 -0.278342 6.72636 5.24678
264 1 -1.1104 9.46796 10.886 9.44603
268 1 -1.1104 9.50762 5.23648 9.48106
270 1 -1.1104 9.49103 10.9299 12.1829
271 1 -1.1104 9.4431 5.42443 12.291
272 2 2.2208 8.20408 9.563 10.9003
273 1 -1.1104 9.52699 8.05411 9.43637
274 2 2.2208 8.18749 12.3692 8.04816
275 2 2.2208 8.01124 6.86615 7.96576
276 2 2.2208 10.9681 6.64944 10.7931
277 2 2.2208 10.8979 12.4001 10.8162
278 1 -1.1104 12.3148 8.13168 12.2378
279 1 -1.1104 12.3682 8.15937 9.57745
280 1 -1.1104 12.3715 5.20753 12.1086
281 1 -1.1104 12.1885 10.8899 12.072
282 2 2.2208 10.8796 9.59701 8.02892
283 1 -1.1104 12.323 5.41846 9.33898
284 1 -1.1104 12.3076 11.0111 9.34491
285 1 -1.1104 9.45887 8.23793 12.3245
154 1 -1.1104 9.58622 13.7174 6.66889
26 1 -1.1104 12.2503 13.7801 12.2352
108 1 -1.1104 1.16632 13.7738 6.79771
126 1 -1.1104 3.99428 19.5647 6.6517
302 1 -1.1104 1.15864 19.4676 6.74029
112 1 -1.1104 6.72659 19.3558 6.70848
117 1 -1.1104 1.07236 16.5928 6.60786
288 1 -1.1104 6.82009 19.3888 9.49398
289 1 -1.1104 6.67241 16.4458 9.59035
290 1 -1.1104 6.81486 13.6497 9.55855
233 1 -1.1104 6.76384 16.6543 12.358
201 2 2.2208 2.50229 15.3077 10.9463
204 2 2.2208 2.44547 20.8043 10.9099
229 1 -1.1104 3.93606 16.5943 12.2634
230 1 -1.1104 1.20907 16.7341 12.2636
286 1 -1.1104 3.93035 19.3765 12.178
287 1 -1.1104 3.7799 13.9262 12.3807
291 1 -1.1104 1.08494 19.3281 9.58889
292 1 -1.1104 1.15805 16.6571 9.50874
293 2 2.2208 5.32599 20.754 8.24308
294 1 -1.1104 1.2144 13.7641 9.57874
295 2 2.2208 5.41629 15.1472 8.13657
298 1 -1.1104 1.18326 19.3933 12.274
299 1 -1.1104 0.857855 13.8292 12.326
300 2 2.2208 5.46351 17.9956 10.9418
301 1 -1.1104 3.9494 19.4288 9.43472
303 2 2.2208 2.5674 18.0687 8.07583
304 1 -1.1104 3.99074 16.5763 9.46134
305 1 -1.1104 3.9685 13.6747 9.56282
297 1 -1.1104 6.62838 13.9491 12.2298
296 1 -1.1104 6.89286 19.3802 12.3347
30 1 -1.1104 12.2152 13.7016 9.44963
136 1 -1.1104 9.59388 19.1976 9.41419
137 2 2.2208 8.19301 15.2409 10.9421
50 1 -1.1104 12.2599 16.6872 12.3014
81 2 2.2208 10.908 20.7378 8.01237
83 1 -1.1104 9.53278 13.8472 12.3194
143 1 -1.1104 12.4564 13.7521 6.68963
49 1 -1.1104 12.4403 19.2155 9.60039
105 2 2.2208 8.11141 18.0208 8.0266
82 1 -1.1104 12.4132 16.496 9.44854
199 1 -1.1104 9.43888 16.7506 12.1824
353 2 2.2208 5.30234 -1.55747 13.6532
9084 2 2.2208 -0.298753 20.8093 8.05909
422 2 2.2208 2.4438 6.81147 13.7447
386 2 2.2208 8.2344 1.21995 13.5901
449 2 2.2208 8.05966 6.7226 13.6456
424 2 2.2208 2.43033 12.3973 13.7565
605 2 2.2208 5.24619 6.66889 -0.424163
9197 2 2.2208 13.8662 6.75121 13.7217
9492 2 2.2208 -0.26549 12.4439 -0.352115
630 2 2.2208 11.0463 6.73197 -0.44752
9171 2 2.2208 -0.340887 3.99671 13.768
312 2 2.2208 2.50686 20.9007 -0.278435
632 2 2.2208 10.9043 12.432 -0.39317
450 2 2.2208 10.9354 9.56679 13.7364
388 2 2.2208 10.9391 4.02136 13.5611
9476 2 2.2208 -0.29598 -1.74074 13.6939
572 2 2.2208 8.16661 4.08539 -0.426435
541 2 2.2208 2.52536 -1.76494 -0.434377
313 2 2.2208 5.30007 1.04893 16.5594
314 1 -1.1104 1.13759 -3.01326 17.7589
315 1 -1.1104 1.16365 2.53626 17.9851
318 1 -1.1104 1.12054 -2.93089 15.0183
320 1 -1.1104 0.872804 2.54329 15.1306
326 1 -1.1104 0.949497 -0.250974 17.854
328 2 2.2208 5.31889 -1.69641 19.1847
330 1 -1.1104 1.07932 -0.45621 15.176
334 1 -1.1104 3.99835 -3.05981 17.801
335 1 -1.1104 3.88016 2.55076 17.7603
336 2 2.2208 2.51473 1.0258 19.275
337 1 -1.1104 3.90761 -3.05482 14.8812
339 1 -1.1104 3.63456 2.48204 15.1005
341 2 2.2208 2.49105 -1.64381 16.4229
343 1 -1.1104 4.0374 -0.246857 17.8204
344 1 -1.1104 3.96633 -0.313667 15.026
329 2 2.2208 5.35778 3.93217 19.46
342 2 2.2208 2.40455 3.85524 16.5061
317 1 -1.1104 6.67556 2.45499 18.0103
316 1 -1.1104 6.7058 -2.99452 17.7741
324 1 -1.1104 6.59784 2.60663 15.1476
9467 2 2.2208 -0.329465 18.0724 22.0829
9418 2 2.2208 -0.184985 6.81322 22.0782
9486 2 2.2208 -0.223608 3.86562 24.8776
9485 2 2.2208 -0.241768 1.13838 22.0876
340 1 -1.1104 3.77495 2.42976 20.6017
345 1 -1.1104 4.11287 -0.400582 20.5941
9433 2 2.2208 -0.435682 20.9557 25.0097
332 1 -1.1104 6.79331 -0.170582 14.9968
327 1 -1.1104 6.86125 -0.252565 17.6694
9275 2 2.2208 -0.344301 15.2565 24.8813
322 1 -1.1104 6.79201 -3.06868 15.0691
9239 2 2.2208 -0.175226 9.61387 19.1995
356 2 2.2208 11.097 1.17861 16.3272
357 1 -1.1104 12.316 -3.07851 17.8453
358 1 -1.1104 12.3643 2.60888 18.0072
359 1 -1.1104 12.2926 -3.13666 14.9272
361 1 -1.1104 12.3228 2.57883 14.9906
363 1 -1.1104 12.5084 -0.112793 17.6505
364 2 2.2208 10.9118 -1.59754 19.2351
366 1 -1.1104 12.5301 -0.307299 15.1346
368 1 -1.1104 9.54171 -3.0099 17.6745
369 1 -1.1104 9.58177 2.57006 17.7593
370 2 2.2208 8.2853 1.15935 19.2131
371 1 -1.1104 9.48766 -2.90129 14.9811
373 1 -1.1104 9.53068 2.51209 15.0567
375 2 2.2208 8.2934 -1.51337 16.2755
377 1 -1.1104 9.68303 -0.311327 17.9425
378 1 -1.1104 9.71842 -0.125928 15.0058
365 2 2.2208 10.9702 4.02294 19.2688
376 2 2.2208 8.11081 3.82559 16.435
9167 2 2.2208 -0.245056 3.9271 19.2432
311 2 2.2208 8.13586 18.0633 13.6116
9312 2 2.2208 -0.318409 15.3145 13.7066
608 2 2.2208 8.09091 20.7803 22.0642
609 1 -1.1104 9.54596 16.7004 23.6979
325 1 -1.1104 6.77515 2.55483 20.7655
360 1 -1.1104 12.4557 -3.11028 20.6388
9475 2 2.2208 -0.285849 -1.72199 19.3123
389 2 2.2208 5.26313 6.78074 16.5304
390 2 2.2208 5.3965 12.4074 16.3674
391 1 -1.1104 1.26345 7.98792 17.8262
393 1 -1.1104 1.13367 8.10233 15.1068
397 1 -1.1104 1.19128 5.33741 17.8285
398 1 -1.1104 1.28184 10.8831 17.8594
401 2 2.2208 5.37437 9.62859 19.241
402 1 -1.1104 1.04105 5.32032 15.1541
404 1 -1.1104 1.25331 10.975 15.1111
410 1 -1.1104 3.98521 8.2793 17.8739
411 2 2.2208 2.59453 6.80582 19.2547
412 2 2.2208 2.54329 12.364 19.36
413 1 -1.1104 3.93686 8.12724 14.9992
415 2 2.2208 2.60122 9.58772 16.4225
416 1 -1.1104 3.91783 5.46431 17.8304
417 1 -1.1104 3.96848 11.2098 17.974
418 1 -1.1104 3.87374 5.30274 15.0449
420 1 -1.1104 4.00829 10.9146 15.1162
408 1 -1.1104 6.74199 11.058 15.0115
400 1 -1.1104 6.7466 11.0189 17.8626
392 1 -1.1104 6.73771 8.19872 17.9276
395 1 -1.1104 6.73307 8.07863 15.0136
9311 2 2.2208 -0.374421 17.9918 16.439
406 1 -1.1104 6.70956 5.36444 14.9922
403 1 -1.1104 1.05048 5.48141 20.5779
414 1 -1.1104 3.99895 8.02807 20.6432
578 1 -1.1104 9.47818 13.8384 26.2032
387 2 2.2208 11.0008 -1.71883 13.5305
399 1 -1.1104 6.65067 5.32926 17.8083
549 1 -1.1104 12.3463 16.4563 26.3131
425 2 2.2208 10.9805 6.7505 16.5608
426 2 2.2208 11.0008 12.4509 16.5889
427 1 -1.1104 12.3681 8.12793 17.9506
428 1 -1.1104 12.5732 8.13348 15.1831
430 1 -1.1104 12.4175 5.24707 17.8704
431 1 -1.1104 12.3803 11.0294 17.8947
432 2 2.2208 10.866 9.59897 19.3252
433 1 -1.1104 12.4709 5.34984 15.1096
435 1 -1.1104 12.278 10.9218 15.019
437 1 -1.1104 9.46618 7.96976 17.7908
438 2 2.2208 8.15569 6.64394 19.3582
439 2 2.2208 8.08472 12.2649 19.3422
440 1 -1.1104 9.53626 8.11743 14.9156
442 2 2.2208 8.02187 9.51649 16.4247
443 1 -1.1104 9.44113 5.15126 17.9597
444 1 -1.1104 9.39762 10.7346 17.8193
445 1 -1.1104 9.63009 5.44821 15.1874
447 1 -1.1104 9.47829 10.9377 15.0879
511 1 -1.1104 9.60362 16.6571 20.7105
543 1 -1.1104 12.3281 16.8306 23.4858
607 2 2.2208 5.34439 12.5863 27.7772
441 1 -1.1104 9.5391 8.15593 20.699
436 1 -1.1104 12.2673 10.9412 20.7598
384 1 -1.1104 12.3479 19.4593 23.243
9243 2 2.2208 -0.274921 9.78237 13.6638
452 2 2.2208 5.33605 18.0281 16.4606
453 1 -1.1104 1.10918 13.7341 17.8909
454 1 -1.1104 0.979852 19.4227 17.8982
457 1 -1.1104 0.932108 13.836 15.2106
459 1 -1.1104 1.06894 19.6036 15.0328
465 1 -1.1104 1.14953 16.65 17.8068
467 2 2.2208 5.09804 15.1916 19.3458
468 2 2.2208 5.42218 20.7391 19.2986
469 1 -1.1104 1.07328 16.6733 14.9744
473 1 -1.1104 4.00234 13.9646 17.829
474 1 -1.1104 3.90514 19.364 17.9673
475 2 2.2208 2.51741 18.023 19.2592
476 1 -1.1104 3.87133 13.7117 15.0004
478 1 -1.1104 3.79736 19.3114 15.1668
480 2 2.2208 2.52657 15.2472 16.4213
481 2 2.2208 2.5144 20.9379 16.6014
482 1 -1.1104 3.95038 16.8097 17.9284
483 1 -1.1104 3.94893 16.4361 15.1836
466 1 -1.1104 6.81569 16.6171 17.9102
456 1 -1.1104 6.82289 19.1328 17.779
461 1 -1.1104 6.70673 13.7979 15.0779
463 1 -1.1104 6.65455 19.3664 14.9822
471 1 -1.1104 6.72975 16.6319 15.11
310 2 2.2208 10.9812 20.831 13.7024
464 1 -1.1104 6.89892 19.4714 20.701
540 2 2.2208 5.26148 1.12238 27.6847
513 2 2.2208 10.8425 15.2797 13.6508
455 1 -1.1104 6.83857 13.586 17.81
9205 2 2.2208 -0.317367 12.4001 16.5293
488 2 2.2208 10.9883 18.0093 16.4098
489 1 -1.1104 12.4661 13.8104 18.0751
490 1 -1.1104 12.2974 19.4764 17.8214
491 1 -1.1104 12.2619 13.7253 15.0463
493 1 -1.1104 12.2472 19.4029 15.0681
495 1 -1.1104 12.2976 16.697 17.8951
496 2 2.2208 10.9515 15.1855 19.3409
497 2 2.2208 10.9086 20.8676 19.4108
498 1 -1.1104 12.3591 16.562 15.0904
500 1 -1.1104 9.57472 13.7801 18.0272
501 1 -1.1104 9.51988 19.3956 17.9891
502 2 2.2208 8.16302 17.8379 19.2879
503 1 -1.1104 9.44771 13.7163 15.0656
505 1 -1.1104 9.40616 19.3239 14.9843
507 2 2.2208 8.15404 15.1214 16.5663
508 2 2.2208 8.14652 20.6974 16.5323
509 1 -1.1104 9.58264 16.4698 17.8328
510 1 -1.1104 9.43747 16.5444 14.9237
351 2 2.2208 10.9509 18.0445 22.1153
9093 2 2.2208 -0.256095 20.8876 13.6787
9310 2 2.2208 -0.236455 15.2598 19.2595
499 1 -1.1104 12.4685 16.53 20.6879
355 2 2.2208 5.34788 4.02582 13.6827
610 1 -1.1104 9.78116 16.5058 26.514
323 1 -1.1104 6.73146 -3.09513 20.5697
331 1 -1.1104 1.23754 -0.255087 20.7077
338 1 -1.1104 3.78635 -2.94635 20.6472
333 1 -1.1104 6.845 -0.220515 20.4708
319 1 -1.1104 1.11842 -3.05868 20.6619
321 1 -1.1104 1.05942 2.51667 20.7173
516 2 2.2208 5.43306 1.03699 22.0031
517 1 -1.1104 1.11922 -3.01511 23.4008
518 1 -1.1104 1.25788 2.58477 23.5042
521 1 -1.1104 1.19357 -3.16556 26.2869
522 1 -1.1104 1.06184 2.46594 26.2878
525 1 -1.1104 1.15922 -0.189623 23.4943
527 2 2.2208 5.32919 -1.66435 24.9212
528 2 2.2208 5.40161 3.92641 24.9169
529 1 -1.1104 1.14195 -0.291521 26.3035
531 1 -1.1104 3.84637 -3.22476 23.358
532 1 -1.1104 4.09694 2.45701 23.436
533 2 2.2208 2.53419 1.13094 24.9069
534 1 -1.1104 4.01087 -3.11026 26.1444
535 1 -1.1104 3.84368 2.53654 26.2943
536 2 2.2208 2.60537 -1.65694 22.0717
538 1 -1.1104 3.99936 -0.254124 23.4654
539 1 -1.1104 3.9484 -0.285767 26.2576
537 2 2.2208 2.69624 3.98107 21.9883
526 1 -1.1104 6.76602 -0.27755 23.336
9484 2 2.2208 -0.253744 -1.6993 24.7961
9474 2 2.2208 -0.346798 1.08383 16.472
548 2 2.2208 10.9444 20.8134 24.7632
506 1 -1.1104 9.58276 19.4435 20.7248
504 1 -1.1104 9.45373 13.8065 20.8299
523 1 -1.1104 6.92328 -3.21822 26.2693
519 1 -1.1104 6.666 -3.10213 23.4426
520 1 -1.1104 6.72609 2.61378 23.411
524 1 -1.1104 6.64805 2.50297 26.1877
530 1 -1.1104 6.71796 -0.261793 26.286
374 1 -1.1104 9.507 2.4838 20.6631
372 1 -1.1104 9.57383 -3.09141 20.5592
379 1 -1.1104 9.6335 -0.267368 20.7896
367 1 -1.1104 12.4096 -0.351246 20.4486
362 1 -1.1104 12.3707 2.52323 20.6712
552 2 2.2208 10.8624 1.06056 22.1337
553 1 -1.1104 12.3474 -2.99027 23.2477
554 1 -1.1104 12.5526 2.38308 23.4656
555 1 -1.1104 12.2833 -3.04253 26.2416
556 1 -1.1104 12.4558 2.52205 26.3991
557 1 -1.1104 12.3524 -0.268011 23.4
558 2 2.2208 10.9337 -1.59556 24.7997
560 1 -1.1104 12.324 -0.180221 26.0582
561 1 -1.1104 9.43374 -2.93763 23.4066
562 1 -1.1104 9.67571 2.63391 23.4904
563 2 2.2208 8.06048 1.2226 24.866
564 1 -1.1104 9.54649 -2.93136 26.2957
565 1 -1.1104 9.43239 2.7128 26.2385
566 2 2.2208 8.15983 -1.68323 21.9474
568 1 -1.1104 9.51554 -0.171772 23.5915
569 1 -1.1104 9.52932 -0.0967744 26.2501
559 2 2.2208 11.0731 3.93331 24.8661
567 2 2.2208 8.22573 3.98425 22.2403
396 1 -1.1104 6.85487 8.20845 20.731
421 1 -1.1104 3.84626 10.8579 20.6543
394 1 -1.1104 1.09815 8.26112 20.7661
419 1 -1.1104 4.00409 5.33607 20.6844
405 1 -1.1104 1.16794 11.0791 20.7087
407 1 -1.1104 6.71827 5.42291 20.7387
581 2 2.2208 5.41221 6.79031 22.1123
582 2 2.2208 5.28495 12.3609 22.0447
583 1 -1.1104 1.13895 8.23371 23.5504
585 1 -1.1104 1.18669 8.10008 26.3283
587 1 -1.1104 1.32075 5.24754 23.3239
588 1 -1.1104 1.08561 11.0699 23.5306
591 2 2.2208 5.41671 9.48408 24.9201
592 1 -1.1104 1.04588 5.34238 26.1681
593 1 -1.1104 1.09141 11.1108 26.1724
596 1 -1.1104 3.87044 8.16723 23.3558
597 2 2.2208 2.6223 6.69473 24.7429
598 2 2.2208 2.60047 12.4243 24.9533
599 1 -1.1104 4.00257 8.0565 26.1302
600 2 2.2208 2.46195 9.55828 22.1253
601 1 -1.1104 4.01793 5.21256 23.4874
602 1 -1.1104 3.84783 10.9176 23.5189
603 1 -1.1104 3.85351 5.23317 26.3025
604 1 -1.1104 3.80299 10.9458 26.4935
590 1 -1.1104 6.71753 11.1197 23.6438
586 1 -1.1104 6.84981 8.19753 26.419
409 1 -1.1104 6.69634 10.9924 20.821
594 1 -1.1104 6.69495 5.26854 26.26
589 1 -1.1104 6.86599 5.48555 23.495
595 1 -1.1104 6.77189 11.0535 26.3082
584 1 -1.1104 6.74229 8.24913 23.4173
551 1 -1.1104 9.61176 19.4123 23.5147
429 1 -1.1104 12.3415 8.22603 20.5905
434 1 -1.1104 12.5244 5.40867 20.8826
448 1 -1.1104 9.38671 11.0227 20.6043
446 1 -1.1104 9.68713 5.32099 20.731
612 1 -1.1104 9.59618 10.9877 26.4029
613 1 -1.1104 9.61692 5.52921 26.2275
614 1 -1.1104 9.50884 11.0003 23.4367
615 1 -1.1104 9.77938 5.42456 23.4594
616 2 2.2208 8.0676 9.61158 22.0025
617 1 -1.1104 9.63573 8.27147 26.2324
618 2 2.2208 8.18927 12.3854 24.9751
619 2 2.2208 8.36248 6.8218 24.8506
620 2 2.2208 11.0614 6.66866 22.0391
621 2 2.2208 10.8853 12.3815 22.1276
622 1 -1.1104 12.3732 8.16873 23.465
623 1 -1.1104 12.1666 8.25055 26.1595
624 1 -1.1104 12.554 5.35701 23.5783
625 1 -1.1104 12.4511 11.0166 23.4398
626 2 2.2208 11.0289 9.61374 24.9555
627 1 -1.1104 12.4851 5.25432 26.2464
628 1 -1.1104 12.3936 11.1192 26.338
629 1 -1.1104 9.72692 8.21753 23.5011
385 1 -1.1104 12.3627 13.7552 26.2284
458 1 -1.1104 1.21784 13.9109 20.5579
484 1 -1.1104 3.79433 16.6526 20.7591
477 1 -1.1104 3.86391 13.8292 20.6039
460 1 -1.1104 0.996357 19.5011 20.5719
472 1 -1.1104 6.58615 16.6277 20.6728
462 1 -1.1104 6.54824 13.6823 20.5224
470 1 -1.1104 1.15925 16.659 20.7004
577 1 -1.1104 6.73133 19.5721 26.2791
486 1 -1.1104 6.88801 16.669 23.4017
479 1 -1.1104 3.91961 19.5759 20.6492
637 1 -1.1104 6.63064 13.8923 26.2057
349 2 2.2208 2.53849 20.8411 22.0237
350 1 -1.1104 4.00046 16.7537 23.3551
485 1 -1.1104 1.19552 16.5452 23.397
512 1 -1.1104 4.01431 13.9226 26.3224
514 1 -1.1104 4.02772 16.6661 26.2577
634 2 2.2208 2.60887 18.1524 24.8367
635 2 2.2208 2.53958 15.245 22.1576
636 1 -1.1104 3.91154 19.4673 23.451
638 1 -1.1104 3.96487 13.8279 23.4031
640 1 -1.1104 1.20121 19.4865 26.3695
641 1 -1.1104 1.13183 16.5138 26.2215
642 1 -1.1104 1.07936 13.8155 26.248
644 2 2.2208 5.30569 20.8333 24.9081
645 2 2.2208 5.36347 15.2146 24.848
647 1 -1.1104 1.15787 19.4575 23.3846
648 1 -1.1104 1.17479 13.8011 23.4942
649 2 2.2208 5.22969 18.0275 22.0545
650 1 -1.1104 3.91037 19.4373 26.2054
646 1 -1.1104 6.79579 13.9749 23.3646
643 1 -1.1104 6.65487 19.3233 23.511
639 1 -1.1104 6.87507 16.7404 26.2579
579 1 -1.1104 9.58131 19.4193 26.2803
573 2 2.2208 8.21551 18.1503 24.8592
515 1 -1.1104 12.3097 19.2801 26.2387
550 1 -1.1104 9.65015 13.7849 23.6022
494 1 -1.1104 12.4071 19.3942 20.5598
380 1 -1.1104 12.3974 13.8389 23.5489
580 2 2.2208 8.13755 15.2775 22.1695
492 1 -1.1104 12.3808 13.6 20.9079
544 2 2.2208 10.9678 15.222 24.9467
542 2 2.2208 2.42017 3.86785 27.5937
571 2 2.2208 8.10825 -1.60474 27.7361
606 2 2.2208 2.5339 9.49872 27.7037
631 2 2.2208 8.172 9.56235 27.7477
306 2 2.2208 10.9452 17.9416 27.7764
309 2 2.2208 5.30726 20.8372 13.6355
487 2 2.2208 5.35098 15.2527 13.617
451 2 2.2208 8.05838 12.4241 13.6178
423 2 2.2208 5.36779 9.56533 13.6119
611 2 2.2208 2.52038 15.3168 27.6394
651 2 2.2208 5.33483 23.6144 5.26486
652 2 2.2208 5.23094 29.1861 5.3279
653 1 -1.1104 0.958811 25.0979 1.06572
654 1 -1.1104 1.08247 24.999 3.84028
655 1 -1.1104 1.09959 22.2804 1.09372
656 1 -1.1104 1.03354 27.8451 1.04458
657 2 2.2208 5.28912 26.4247 2.57772
658 1 -1.1104 1.09061 22.1349 3.85807
659 1 -1.1104 1.12166 27.7604 3.91093
660 1 -1.1104 3.65388 25.0597 1.10855
661 2 2.2208 2.47799 23.6216 2.47189
662 2 2.2208 2.4529 29.2704 2.5004
663 1 -1.1104 3.79755 25.0728 3.88607
664 2 2.2208 2.52376 26.4849 5.21153
665 1 -1.1104 3.94655 22.1979 0.971953
666 1 -1.1104 3.76769 27.8543 1.00988
667 1 -1.1104 3.90776 22.1755 3.78832
668 1 -1.1104 3.90535 27.8711 3.90873
676 1 -1.1104 6.60736 22.2784 3.9247
677 1 -1.1104 6.66967 27.9087 3.80145
672 1 -1.1104 6.45239 24.9637 1.19118
673 1 -1.1104 6.69056 25.0336 3.92518
675 1 -1.1104 6.64764 27.7076 1.09214
795 1 -1.1104 1.06938 27.9273 6.66455
800 1 -1.1104 3.76794 27.8599 6.81162
9817 2 2.2208 13.466 34.8178 2.54071
1482 1 -1.1104 0.962927 47.4677 12.2093
983 2 2.2208 5.16439 34.9457 -0.29614
1287 1 -1.1104 0.841331 47.5368 3.76399
793 1 -1.1104 6.73726 24.9569 6.6095
979 2 2.2208 8.05018 31.9826 -0.382925
674 1 -1.1104 6.79432 22.2206 1.12974
678 2 2.2208 11.0321 23.5643 5.26057
679 2 2.2208 10.8729 29.2258 5.29279
680 1 -1.1104 12.1766 25.1174 1.0483
681 1 -1.1104 12.3352 24.9841 3.9724
682 1 -1.1104 12.3513 22.2511 1.0365
683 1 -1.1104 12.3393 27.8433 1.08586
684 2 2.2208 10.8692 26.431 2.56593
685 1 -1.1104 12.3994 22.0035 3.81545
686 1 -1.1104 12.2211 27.7792 3.92667
687 1 -1.1104 9.47781 25.0843 1.14347
688 2 2.2208 8.13527 23.5758 2.47349
689 2 2.2208 8.04695 29.2883 2.49602
690 1 -1.1104 9.65031 24.9926 4.05525
691 2 2.2208 8.13104 26.4275 5.38709
692 1 -1.1104 9.53162 22.2637 0.906462
693 1 -1.1104 9.36505 27.9069 1.03159
694 1 -1.1104 9.4152 22.2055 3.80967
695 1 -1.1104 9.49818 27.9047 3.83288
9773 2 2.2208 13.5685 46.2077 8.02467
829 1 -1.1104 9.65361 22.149 6.67211
828 1 -1.1104 9.48602 24.9289 6.81139
696 1 -1.1104 12.1392 41.7849 9.63554
951 2 2.2208 2.5061 43.378 -0.235628
1518 1 -1.1104 12.2707 47.3219 12.3286
976 2 2.2208 8.07655 26.3477 -0.299803
699 2 2.2208 5.17771 34.7947 5.30748
700 1 -1.1104 1.13631 30.6559 1.05157
701 1 -1.1104 1.24066 36.1622 0.973781
703 1 -1.1104 0.981686 30.7125 3.86666
704 1 -1.1104 0.956296 36.3174 3.71843
706 1 -1.1104 0.94633 33.3924 1.17802
707 2 2.2208 5.20244 32.0669 2.31377
708 2 2.2208 5.19538 37.6664 2.44637
709 1 -1.1104 1.07506 33.5944 3.92617
711 1 -1.1104 3.88201 30.6339 0.908247
712 1 -1.1104 3.93942 36.2739 1.11946
713 2 2.2208 2.34131 34.8589 2.43602
714 1 -1.1104 3.61486 30.693 3.68442
715 1 -1.1104 3.77771 36.0933 3.96239
716 2 2.2208 2.53157 31.9834 5.24695
717 2 2.2208 2.36849 37.6347 5.23291
718 1 -1.1104 3.8356 33.2877 0.968184
719 1 -1.1104 3.83337 33.4015 3.76585
710 1 -1.1104 6.70379 33.3565 3.77324
723 1 -1.1104 6.69726 30.6362 1.03849
702 1 -1.1104 6.52775 36.242 1.13586
853 1 -1.1104 0.994537 33.5701 6.69925
947 2 2.2208 8.00748 43.3783 10.9565
974 2 2.2208 5.2173 29.1732 -0.313877
671 1 -1.1104 12.2412 41.9564 12.3791
9550 2 2.2208 13.5758 37.6037 5.24503
946 1 -1.1104 9.29772 39.0703 12.3736
790 1 -1.1104 12.1331 39.1036 9.52874
9703 2 2.2208 13.5859 34.9152 8.06555
9854 2 2.2208 13.5551 43.4512 -0.336509
941 2 2.2208 7.98925 46.0765 8.03868
705 1 -1.1104 6.52472 36.2588 3.92413
724 1 -1.1104 6.41918 30.5604 3.87643
725 1 -1.1104 6.64255 33.4578 1.09655
726 2 2.2208 10.7983 34.768 5.42707
727 1 -1.1104 12.2269 30.6295 1.23185
728 1 -1.1104 12.176 36.1723 1.07365
729 1 -1.1104 12.2243 30.5551 4.0185
730 1 -1.1104 12.0545 36.266 3.81524
731 1 -1.1104 12.0825 33.4351 1.06685
732 2 2.2208 10.7717 31.9997 2.59656
733 2 2.2208 10.7492 37.8282 2.40234
734 1 -1.1104 12.1964 33.3411 3.81121
735 1 -1.1104 9.39637 30.6542 1.05091
736 1 -1.1104 9.31817 36.4996 1.07727
737 2 2.2208 7.99843 34.8042 2.56093
738 1 -1.1104 9.32245 30.6588 3.881
739 1 -1.1104 9.40172 36.1439 3.94856
740 2 2.2208 7.89801 32.0289 5.27615
741 2 2.2208 7.91219 37.7157 5.09109
742 1 -1.1104 9.39846 33.5355 1.04273
743 1 -1.1104 9.43218 33.3345 4.02362
884 1 -1.1104 12.1249 36.3476 6.62973
851 1 -1.1104 6.60605 30.6355 6.74496
883 1 -1.1104 12.2168 30.6746 6.76489
885 1 -1.1104 12.2109 33.4659 6.59796
9844 2 2.2208 13.8442 26.38 -0.279634
978 2 2.2208 10.874 34.8726 -0.33636
9648 2 2.2208 13.8774 29.3299 8.0759
9555 2 2.2208 13.613 32.058 5.27613
765 1 -1.1104 3.84157 39.0883 1.06959
756 1 -1.1104 0.945252 39.026 3.94053