ITEM: TIMESTEP
40000
ITEM: NUMBER OF ATOMS
17910
ITEM: BOX BOUNDS pp pp pp
-3.5351666521765340e-01 2.7693516665218411e+01
-4.2652786968027421e+00 3.3234527869680642e+02
-3.5588430774154667e-01 2.7695884307741114e+01
ITEM: ATOMS id type q x y z
1 2 2.2208 5.31251 1.42219 5.22292
2 1 -1.1104 1.2058 -2.84288 1.05804
3 1 -1.1104 1.07761 2.80957 1.02163
6 1 -1.1104 1.14338 -2.8824 3.79617
7 1 -1.1104 1.02912 2.74708 3.86087
10 1 -1.1104 0.912829 -0.0836523 1.06833
12 2 2.2208 5.44134 -1.54542 2.47755
13 2 2.2208 5.33141 4.12219 2.4968
14 1 -1.1104 1.15892 -0.0510661 3.94827
16 1 -1.1104 3.99806 -3.03579 1.16703
17 1 -1.1104 3.88215 2.87135 1.02627
18 2 2.2208 2.49889 1.45301 2.45257
19 1 -1.1104 3.90265 -2.79869 3.9949
20 1 -1.1104 3.85411 2.7449 3.88231
21 2 2.2208 2.41085 -1.49895 5.2298
22 2 2.2208 2.51702 4.28235 5.25724
23 1 -1.1104 3.90766 0.0429778 1.07983
24 1 -1.1104 4.11342 -0.071371 3.89676
5 1 -1.1104 6.63877 2.61713 1.0843
11 1 -1.1104 6.69352 -0.103918 1.1452
9 1 -1.1104 6.58604 2.89789 3.92335
15 1 -1.1104 6.87857 -0.00554014 3.79703
8 1 -1.1104 6.74533 -2.81888 3.83884
4 1 -1.1104 6.81267 -2.8791 1.00427
167 1 -1.1104 1.09644 2.87799 6.74574
541 2 2.2208 2.5975 -1.4259 -0.345724
542 2 2.2208 2.61207 4.23995 -0.38433
9076 2 2.2208 -0.289927 21.0114 2.55846
31 2 2.2208 11.031 1.51896 5.35119
32 1 -1.1104 12.3378 -2.87495 1.09608
33 1 -1.1104 12.3043 2.86089 1.1851
34 1 -1.1104 12.4014 -2.87049 4.06778
35 1 -1.1104 12.4127 2.78691 3.94317
36 1 -1.1104 12.4581 -0.0570644 0.923822
37 2 2.2208 10.9538 -1.44706 2.51885
38 2 2.2208 10.9719 4.1179 2.48498
39 1 -1.1104 12.3228 -0.0601637 3.79815
40 1 -1.1104 9.59051 -2.76715 1.0977
41 1 -1.1104 9.53618 2.6971 0.919455
42 2 2.2208 8.28905 1.37332 2.44934
43 1 -1.1104 9.49277 -2.88588 3.72962
44 1 -1.1104 9.58637 2.80392 3.79715
45 2 2.2208 8.11931 -1.4339 5.2866
47 1 -1.1104 9.71974 -0.0447706 1.06311
48 1 -1.1104 9.6919 0.0106819 4.00532
9067 2 2.2208 13.6851 1.30656 2.50618
46 2 2.2208 8.13965 4.14243 5.3003
205 1 -1.1104 12.3042 -2.98725 6.84666
9068 2 2.2208 13.7414 -1.53402 5.34968
8762 2 2.2208 13.7758 4.18557 5.33298
572 2 2.2208 8.12971 4.16141 -0.376098
9062 2 2.2208 13.7447 15.3095 10.9051
571 2 2.2208 8.22778 -1.40861 -0.341191
630 2 2.2208 10.9076 6.92079 -0.359898
54 2 2.2208 5.40799 7.06739 5.29777
55 2 2.2208 5.34487 12.6845 5.35286
56 1 -1.1104 1.12616 8.38756 1.0096
58 1 -1.1104 1.12224 8.4965 3.80392
60 1 -1.1104 1.10397 5.55255 1.17559
61 1 -1.1104 1.04587 11.3569 0.933491
66 2 2.2208 5.30528 9.72967 2.5097
67 1 -1.1104 1.14858 5.70678 3.90951
68 1 -1.1104 1.18197 11.1809 3.76704
71 1 -1.1104 3.92884 8.36595 1.09696
72 2 2.2208 2.50974 7.00729 2.48561
73 2 2.2208 2.53249 12.5724 2.48205
74 1 -1.1104 3.94142 8.44604 3.86994
75 2 2.2208 2.49098 9.93143 5.20606
76 1 -1.1104 4.04217 5.45239 1.14854
77 1 -1.1104 3.79411 11.0309 1.03941
79 1 -1.1104 3.85243 5.56262 3.88921
80 1 -1.1104 3.86693 11.1863 3.79208
57 1 -1.1104 6.70318 8.35371 1.03089
64 1 -1.1104 6.5781 11.1165 1.27165
63 1 -1.1104 6.82851 5.46751 1.03737
70 1 -1.1104 6.8084 11.1813 4.12278
59 1 -1.1104 6.88292 8.37641 3.78479
62 1 -1.1104 1.14703 11.3091 6.63765
69 1 -1.1104 6.73242 5.53793 3.83993
234 1 -1.1104 0.842468 8.52686 6.54288
65 1 -1.1104 6.63884 11.1438 6.80007
605 2 2.2208 5.38604 6.83341 -0.354263
606 2 2.2208 2.43303 9.71315 -0.350437
607 2 2.2208 5.31204 12.6133 -0.322084
84 2 2.2208 11.1062 6.91973 5.34595
85 2 2.2208 10.8049 12.625 5.29605
86 1 -1.1104 12.3469 8.44519 1.0797
87 1 -1.1104 12.4787 8.32271 3.9078
88 1 -1.1104 12.2813 5.64891 1.12867
89 1 -1.1104 12.1871 11.0597 1.097
91 2 2.2208 10.9058 9.68477 2.43046
92 1 -1.1104 12.296 5.55932 3.86634
93 1 -1.1104 12.2849 11.0266 3.82208
94 1 -1.1104 9.53142 8.33324 1.09812
95 2 2.2208 8.19436 6.87287 2.47455
96 2 2.2208 8.10777 12.5523 2.5864
97 1 -1.1104 9.63902 8.26183 3.86286
98 2 2.2208 8.22749 9.81463 5.27236
99 1 -1.1104 9.54784 5.58306 1.19089
100 1 -1.1104 9.46647 11.1207 1.01771
102 1 -1.1104 9.47331 5.40642 3.9214
103 1 -1.1104 9.55801 11.1991 3.8046
9074 2 2.2208 13.6844 6.87832 2.44008
9073 2 2.2208 13.6616 12.5396 2.41856
8791 2 2.2208 13.7788 9.73729 5.2431
101 1 -1.1104 9.52049 11.1974 6.82576
267 1 -1.1104 9.56405 8.47489 6.71662
9269 2 2.2208 13.6413 9.75869 -0.408797
570 2 2.2208 11.0527 1.35372 -0.322934
312 2 2.2208 2.61249 20.9029 -0.236244
106 2 2.2208 5.33971 18.103 5.42153
107 1 -1.1104 1.08906 14.1643 1.05348
109 1 -1.1104 1.06188 19.6347 1.27429
113 1 -1.1104 1.1355 14.017 3.87492
114 1 -1.1104 1.13034 19.5788 3.90478
116 1 -1.1104 1.06817 16.8587 0.986843
119 2 2.2208 5.36159 15.3839 2.51516
120 2 2.2208 5.27033 20.9357 2.41263
121 1 -1.1104 0.953137 16.9041 3.7369
123 1 -1.1104 3.9392 13.9743 1.14
125 1 -1.1104 3.87678 19.3557 0.980254
127 2 2.2208 2.43206 18.2249 2.43481
128 1 -1.1104 3.92162 13.9518 3.98706
129 1 -1.1104 3.89241 19.5689 3.88766
130 2 2.2208 2.34445 15.2609 5.4853
131 2 2.2208 2.3812 20.9305 5.22334
132 1 -1.1104 3.98496 16.699 1.07494
134 1 -1.1104 3.86236 16.7723 3.87704
117 1 -1.1104 1.05342 16.9083 6.64448
115 1 -1.1104 6.63146 14.0988 3.90562
110 1 -1.1104 6.77944 13.8387 1.13263
111 1 -1.1104 6.68556 13.8896 6.9087
133 1 -1.1104 3.80963 16.805 6.80573
138 1 -1.1104 6.8043 19.4979 0.945733
140 1 -1.1104 6.61535 16.6688 1.06691
126 1 -1.1104 3.83884 19.6958 6.68693
124 1 -1.1104 3.87037 14.1986 6.85264
122 1 -1.1104 6.56268 16.8055 3.89508
302 1 -1.1104 0.978179 19.5874 6.69292
139 1 -1.1104 6.81418 19.5982 3.71341
108 1 -1.1104 1.03838 14.0379 6.78151
163 1 -1.1104 9.60876 16.8247 6.73223
8860 2 2.2208 13.6457 15.3467 5.29732
9078 2 2.2208 13.6509 18.129 2.55636
8839 2 2.2208 13.6598 21.0359 5.41165
149 1 -1.1104 12.3695 16.6418 6.613
141 2 2.2208 10.9472 18.2 5.24987
142 1 -1.1104 12.3483 13.8052 1.00312
144 1 -1.1104 12.3355 19.5141 1.14316
146 1 -1.1104 12.328 13.897 3.83064
147 1 -1.1104 12.2852 19.5749 3.95899
148 1 -1.1104 12.1923 16.7116 1.02557
150 2 2.2208 10.8862 15.2937 2.4533
151 2 2.2208 10.9627 21.0227 2.45739
152 1 -1.1104 12.2365 16.618 3.71332
153 1 -1.1104 9.57924 13.9541 1.15611
155 1 -1.1104 9.48835 19.4918 0.988511
157 2 2.2208 8.13155 18.2009 2.39698
158 1 -1.1104 9.50977 14.1455 3.96368
159 1 -1.1104 9.68626 19.5836 3.76027
160 2 2.2208 8.0629 15.3692 5.2615
161 2 2.2208 8.04553 20.8521 5.15063
162 1 -1.1104 9.40721 16.6777 1.09796
164 1 -1.1104 9.4592 16.7939 3.74479
143 1 -1.1104 12.3472 13.8935 6.80517
156 1 -1.1104 9.50792 19.6771 6.6593
9471 2 2.2208 13.6144 15.3632 -0.435312
145 1 -1.1104 12.363 19.6614 6.62421
154 1 -1.1104 9.53651 14.0126 6.67385
9096 2 2.2208 13.7255 20.8599 -0.311074
174 1 -1.1104 3.93862 0.011337 6.71911
173 1 -1.1104 3.92131 2.87836 6.70104
166 1 -1.1104 1.21841 -2.91037 6.68295
169 1 -1.1104 6.96063 2.8714 6.85443
172 1 -1.1104 4.0786 -2.8934 6.82194
170 1 -1.1104 1.17543 -0.0635103 6.64943
171 1 -1.1104 6.81493 0.120358 6.56827
168 1 -1.1104 6.7763 -2.80878 6.65053
175 2 2.2208 5.29284 1.37133 10.8346
176 1 -1.1104 0.963763 -2.8177 12.3433
177 1 -1.1104 1.22058 2.80003 12.3875
180 1 -1.1104 1.13709 -2.95262 9.70717
181 1 -1.1104 1.21129 2.80976 9.48044
184 1 -1.1104 1.17023 -0.123811 12.503
186 2 2.2208 5.34461 -1.34185 7.96425
187 2 2.2208 5.47017 4.33659 8.11023
188 1 -1.1104 1.08604 0.0257563 9.5642
190 1 -1.1104 3.85224 -2.8875 12.4381
191 1 -1.1104 3.99567 2.764 12.3272
192 2 2.2208 2.60357 1.43459 8.03228
193 1 -1.1104 4.03442 -2.88058 9.74761
194 1 -1.1104 4.00672 2.83474 9.54463
195 2 2.2208 2.5403 -1.45191 11.0034
197 1 -1.1104 3.9439 0.0356257 12.2992
198 1 -1.1104 3.734 0.0277375 9.49043
196 2 2.2208 2.6124 4.16965 10.9028
185 1 -1.1104 6.69715 -0.195481 12.3063
179 1 -1.1104 6.69806 2.68015 12.2687
178 1 -1.1104 6.8447 -2.82787 12.378
189 1 -1.1104 6.63448 -0.0696293 9.44251
182 1 -1.1104 6.83853 -2.71487 9.45964
210 1 -1.1104 9.68246 0.0568164 6.76782
183 1 -1.1104 6.8898 2.75661 9.56967
208 1 -1.1104 9.52903 -2.73109 6.58789
8897 2 2.2208 13.6822 4.15822 10.8049
9086 2 2.2208 13.7115 1.45749 8.12948
9087 2 2.2208 13.8114 -1.58662 10.7797
206 1 -1.1104 12.4294 2.75675 6.75235
209 1 -1.1104 9.68604 2.80763 6.67578
207 1 -1.1104 12.3483 0.0581049 6.78863
211 2 2.2208 10.9669 1.36092 11.0529
212 1 -1.1104 12.3446 -3.08512 12.2973
213 1 -1.1104 12.3435 2.6922 12.2806
214 1 -1.1104 12.4105 -2.8788 9.53271
215 1 -1.1104 12.4797 2.72788 9.47896
216 1 -1.1104 12.3258 -0.0358011 12.37
217 2 2.2208 10.9998 -1.30034 8.1458
218 2 2.2208 11.0599 4.33807 8.14853
219 1 -1.1104 12.1289 -0.183085 9.77707
220 1 -1.1104 9.56247 -3.02336 12.2653
221 1 -1.1104 9.56452 2.79979 12.2288
222 2 2.2208 8.20402 1.33875 8.07619
223 1 -1.1104 9.6322 -2.88589 9.40346
224 1 -1.1104 9.59821 2.79496 9.5689
225 2 2.2208 8.22118 -1.51668 10.9185
226 2 2.2208 8.22402 4.05584 10.8746
227 1 -1.1104 9.52142 -0.160534 12.2563
228 1 -1.1104 9.47338 -0.131158 9.47566
311 2 2.2208 8.164 18.1805 13.7069
237 1 -1.1104 6.74863 5.69249 6.52168
236 1 -1.1104 1.32484 5.74105 6.73322
238 1 -1.1104 3.88788 8.45802 6.73973
239 1 -1.1104 4.03213 5.71355 6.80428
78 1 -1.1104 3.78478 11.3764 6.71665
240 2 2.2208 5.44347 7.00442 10.9827
241 2 2.2208 5.20737 12.6186 10.9539
242 1 -1.1104 1.08556 8.38503 12.2282
244 1 -1.1104 1.12192 8.51895 9.49875
246 1 -1.1104 1.17793 5.5892 12.3096
247 1 -1.1104 1.16343 11.2583 12.2649
250 2 2.2208 5.34593 9.81636 8.15731
251 1 -1.1104 1.20829 5.73354 9.52437
252 1 -1.1104 1.09958 11.2911 9.55592
255 1 -1.1104 3.92084 8.34982 12.2713
256 2 2.2208 2.5756 7.06521 8.14736
257 2 2.2208 2.49353 12.5771 8.1403
258 1 -1.1104 3.94651 8.36888 9.47368
259 2 2.2208 2.57806 9.77422 10.841
260 1 -1.1104 3.9527 5.58256 12.3439
261 1 -1.1104 3.97679 11.136 12.3522
262 1 -1.1104 3.99748 5.66728 9.55636
263 1 -1.1104 3.91424 11.247 9.53672
245 1 -1.1104 6.84261 8.48713 9.43183
248 1 -1.1104 6.83723 5.44931 12.3323
243 1 -1.1104 6.76446 8.26622 12.3842
253 1 -1.1104 6.80658 5.55092 9.54034
254 1 -1.1104 6.78143 11.3011 9.40617
249 1 -1.1104 6.68029 11.0883 12.2371
235 1 -1.1104 6.78089 8.38276 6.6905
90 1 -1.1104 12.3343 11.288 6.61654
8973 2 2.2208 13.7885 7.02984 8.05195
8978 2 2.2208 13.6537 9.69445 10.9218
8974 2 2.2208 13.7354 12.6173 7.99539
266 1 -1.1104 12.3997 5.60551 6.63903
269 1 -1.1104 9.6246 5.74004 6.5454
265 1 -1.1104 12.3955 8.39496 6.85867
264 1 -1.1104 9.50837 11.2833 9.57439
268 1 -1.1104 9.51722 5.51003 9.27192
270 1 -1.1104 9.51682 11.1811 12.3622
271 1 -1.1104 9.60773 5.5193 12.238
272 2 2.2208 8.26549 9.82733 10.9069
273 1 -1.1104 9.63207 8.35556 9.54845
274 2 2.2208 8.08358 12.7077 8.18885
275 2 2.2208 8.1306 6.99987 8.08307
276 2 2.2208 11.0529 7.00226 10.8417
277 2 2.2208 10.8389 12.6245 10.9534
278 1 -1.1104 12.326 8.29257 12.3717
279 1 -1.1104 12.3843 8.25399 9.55187
280 1 -1.1104 12.4165 5.42992 12.1895
281 1 -1.1104 12.3329 10.976 12.472
282 2 2.2208 10.8187 9.77733 8.13169
283 1 -1.1104 12.3726 5.55231 9.58146
284 1 -1.1104 12.2816 11.1092 9.48256
285 1 -1.1104 9.52379 8.23962 12.309
118 1 -1.1104 6.75485 16.6098 6.70382
112 1 -1.1104 6.83097 19.4176 6.58206
288 1 -1.1104 6.70396 19.7337 9.36888
233 1 -1.1104 6.75556 16.9188 12.429
296 1 -1.1104 6.71969 19.6267 12.3681
289 1 -1.1104 6.61854 16.7219 9.53823
201 2 2.2208 2.39099 15.452 10.8794
204 2 2.2208 2.4837 21.0299 10.9663
229 1 -1.1104 3.83575 16.9635 12.474
230 1 -1.1104 1.12163 16.9714 12.281
286 1 -1.1104 3.79202 19.7001 12.4003
287 1 -1.1104 3.62008 14.134 12.3158
291 1 -1.1104 1.04711 19.6372 9.55935
292 1 -1.1104 1.08621 16.8488 9.43439
293 2 2.2208 5.4245 21.0744 8.01228
294 1 -1.1104 1.00331 14.1217 9.51441
295 2 2.2208 5.18464 15.468 8.19793
298 1 -1.1104 1.06078 19.6649 12.2658
299 1 -1.1104 1.10071 14.0431 12.2437
300 2 2.2208 5.26326 18.2603 11.0849
301 1 -1.1104 3.92519 19.6876 9.66093
303 2 2.2208 2.51367 18.3849 8.19093
304 1 -1.1104 3.91214 16.8299 9.55869
305 1 -1.1104 3.78126 14.0079 9.61984
290 1 -1.1104 6.66108 13.9948 9.7246
297 1 -1.1104 6.51684 13.8248 12.489
540 2 2.2208 5.15896 1.368 -0.317168
611 2 2.2208 2.47578 15.4955 -0.291691
83 1 -1.1104 9.34459 14.1562 12.3479
200 1 -1.1104 9.47046 16.6753 9.53063
82 1 -1.1104 12.2861 16.6262 9.379
199 1 -1.1104 9.54635 16.8933 12.3413
105 2 2.2208 8.10216 18.0725 8.00938
49 1 -1.1104 12.5615 19.5185 9.3479
81 2 2.2208 10.9165 20.8875 8.13937
53 2 2.2208 10.8499 15.3181 8.14069
9024 2 2.2208 13.642 20.815 10.7294
306 2 2.2208 10.805 18.0596 -0.363377
26 1 -1.1104 12.186 13.9181 12.3492
135 1 -1.1104 9.43962 13.9645 9.46439
30 1 -1.1104 12.1549 13.9082 9.46984
104 1 -1.1104 9.476 19.5874 12.0944
25 2 2.2208 10.9423 18.0716 10.8227
137 2 2.2208 7.99236 15.4499 11.0838
165 2 2.2208 8.07071 20.9883 10.8077
27 1 -1.1104 12.3395 19.5663 12.2406
136 1 -1.1104 9.60808 19.4598 9.49956
50 1 -1.1104 12.3954 16.7644 12.1073
309 2 2.2208 5.28038 21.0635 13.7789
9202 2 2.2208 13.6575 12.3981 13.7887
310 2 2.2208 10.9642 21.0064 13.6679
9097 2 2.2208 13.6525 18.1049 13.6221
633 2 2.2208 5.42308 18.0862 -0.416767
632 2 2.2208 10.8448 12.4603 -0.225577
313 2 2.2208 5.35924 1.43892 16.441
314 1 -1.1104 1.24121 -2.86944 17.8974
315 1 -1.1104 1.10297 2.77216 17.9304
318 1 -1.1104 1.06952 -2.73118 15.1961
320 1 -1.1104 1.15529 2.6843 15.1444
326 1 -1.1104 1.11362 0.0426331 17.9694
328 2 2.2208 5.30646 -1.48016 19.3147
330 1 -1.1104 1.03683 -0.101401 15.2024
334 1 -1.1104 3.9455 -3.06473 18.0553
335 1 -1.1104 3.89373 2.8332 17.8574
336 2 2.2208 2.45423 1.41038 19.4082
337 1 -1.1104 3.84991 -2.83235 15.2683
339 1 -1.1104 3.95562 2.78356 15.0724
341 2 2.2208 2.55413 -1.33005 16.5707
342 2 2.2208 2.6333 4.15249 16.5585
343 1 -1.1104 3.95079 -0.0742438 17.8962
344 1 -1.1104 3.8987 -0.0236357 15.1325
329 2 2.2208 5.36121 4.1919 19.3576
317 1 -1.1104 6.63813 2.7043 17.818
327 1 -1.1104 6.7564 -0.0393828 17.8126
324 1 -1.1104 6.87896 2.7835 15.0971
332 1 -1.1104 6.79664 -0.0966672 15.1321
316 1 -1.1104 6.67243 -2.90849 17.9653
322 1 -1.1104 6.67073 -2.90589 15.098
355 2 2.2208 5.34205 4.08203 13.6294
576 2 2.2208 8.22191 -4.26607 24.9701
338 1 -1.1104 4.01035 -2.78008 20.8399
333 1 -1.1104 6.83149 -0.0994439 20.7496
353 2 2.2208 5.28946 -1.47232 13.8014
387 2 2.2208 10.9776 -1.64961 13.6682
9130 2 2.2208 13.7891 1.28034 19.1461
9478 2 2.2208 13.7581 -1.52224 16.5382
356 2 2.2208 10.8581 1.25707 16.5047
357 1 -1.1104 12.2704 -2.99353 17.837
358 1 -1.1104 12.3934 2.61699 17.7774
359 1 -1.1104 12.2996 -2.89803 15.0654
361 1 -1.1104 12.219 2.66832 14.9823
363 1 -1.1104 12.3503 -0.127631 17.9328
364 2 2.2208 10.9856 -1.58839 19.327
366 1 -1.1104 12.3974 -0.124264 15.0617
368 1 -1.1104 9.39336 -2.81316 17.9879
369 1 -1.1104 9.5664 2.68868 17.8957
370 2 2.2208 8.25556 1.20769 19.3933
371 1 -1.1104 9.41347 -3.04996 15.3247
373 1 -1.1104 9.50626 2.68198 15.1319
375 2 2.2208 8.10111 -1.55885 16.5553
377 1 -1.1104 9.5844 -0.230178 17.7961
378 1 -1.1104 9.68689 -0.198692 15.073
365 2 2.2208 10.8804 4.22304 19.2084
376 2 2.2208 8.06822 4.08902 16.5871
9124 2 2.2208 13.674 4.09704 16.477
362 1 -1.1104 12.3206 2.89885 20.6354
374 1 -1.1104 9.56552 2.67784 20.5826
388 2 2.2208 10.8711 4.09017 13.5969
386 2 2.2208 8.20717 1.24437 13.6743
389 2 2.2208 5.26647 6.84183 16.6316
390 2 2.2208 5.18667 12.5846 16.4756
391 1 -1.1104 1.11933 8.35734 17.9201
393 1 -1.1104 1.02071 8.2997 15.1935
397 1 -1.1104 1.08229 5.57564 17.968
398 1 -1.1104 0.938094 11.2977 17.7781
401 2 2.2208 5.33136 9.72987 19.356
402 1 -1.1104 1.29845 5.34634 15.0571
404 1 -1.1104 1.12861 11.2648 15.1033
410 1 -1.1104 3.90689 8.39424 17.9082
411 2 2.2208 2.54879 6.96727 19.386
412 2 2.2208 2.51226 12.5134 19.3107
413 1 -1.1104 3.83502 8.32625 15.1246
415 2 2.2208 2.31314 9.79055 16.5502
416 1 -1.1104 3.96988 5.62345 18.0532
417 1 -1.1104 3.8059 11.0779 17.8545
418 1 -1.1104 4.02998 5.57056 15.1694
420 1 -1.1104 3.88159 11.1968 15.0905
395 1 -1.1104 6.67207 8.22692 15.114
406 1 -1.1104 6.62051 5.58145 15.1632
408 1 -1.1104 6.64227 11.083 15.148
400 1 -1.1104 6.66548 11.1502 17.9696
394 1 -1.1104 0.98087 8.46297 20.8118
421 1 -1.1104 4.09711 11.1119 20.5628
399 1 -1.1104 6.73651 5.50548 17.9224
403 1 -1.1104 1.18438 5.60582 20.8259
419 1 -1.1104 4.02573 5.49619 20.6701
9473 2 2.2208 13.6847 21.0543 22.2689
515 1 -1.1104 12.2549 19.3742 26.2473
422 2 2.2208 2.55098 6.84978 13.8114
450 2 2.2208 10.8099 9.66589 13.772
392 1 -1.1104 6.5475 8.48301 17.8586
9198 2 2.2208 13.6535 9.75502 16.4969
9199 2 2.2208 13.8098 6.89619 19.3566
9200 2 2.2208 13.6223 12.6813 19.3197
425 2 2.2208 10.9211 6.82937 16.5613
426 2 2.2208 10.8426 12.5241 16.5474
427 1 -1.1104 12.2972 8.19104 18.1177
428 1 -1.1104 12.2226 8.40961 15.1596
430 1 -1.1104 12.3302 5.46753 17.8731
431 1 -1.1104 12.2912 11.0673 17.9766
432 2 2.2208 11.02 9.69608 19.3091
433 1 -1.1104 12.2191 5.52234 15.0241
435 1 -1.1104 12.2392 11.1359 15.1326
437 1 -1.1104 9.52383 8.34435 18.073
438 2 2.2208 8.15627 6.97829 19.4492
439 2 2.2208 8.26574 12.5454 19.3611
440 1 -1.1104 9.48375 8.09814 15.137
442 2 2.2208 8.0428 9.68084 16.4648
443 1 -1.1104 9.30514 5.54571 17.9701
444 1 -1.1104 9.55933 11.2235 17.9281
445 1 -1.1104 9.61583 5.43308 15.1812
447 1 -1.1104 9.3413 10.9271 15.1381
434 1 -1.1104 12.2164 5.60025 20.6743
449 2 2.2208 8.16791 6.80985 13.7057
9275 2 2.2208 -0.226363 15.4659 24.797
547 2 2.2208 2.54362 -4.30587 25.0715
9197 2 2.2208 13.6336 6.90901 13.5897
452 2 2.2208 5.27355 18.2172 16.57
453 1 -1.1104 1.06355 14.0333 17.7824
454 1 -1.1104 1.16987 19.6053 18.0699
457 1 -1.1104 1.02782 13.9516 14.9999
459 1 -1.1104 1.21222 19.6265 15.2022
465 1 -1.1104 1.15733 16.8998 18.0212
467 2 2.2208 5.29777 15.4539 19.3181
468 2 2.2208 5.27872 21.036 19.4247
469 1 -1.1104 1.04331 16.7373 15.1399
473 1 -1.1104 3.96546 13.945 17.8947
474 1 -1.1104 3.94669 19.661 18.0334
475 2 2.2208 2.55214 18.3464 19.3432
476 1 -1.1104 3.77639 14.0304 15.1477
478 1 -1.1104 3.93504 19.5596 15.1568
480 2 2.2208 2.57783 15.3752 16.5017
481 2 2.2208 2.51212 21.0892 16.657
482 1 -1.1104 3.94707 16.8878 17.921
483 1 -1.1104 3.88381 16.8205 15.1573
456 1 -1.1104 6.80872 19.6648 17.9518
463 1 -1.1104 6.74684 19.6149 15.1703
471 1 -1.1104 6.7882 16.6362 15.1694
461 1 -1.1104 6.59056 13.8421 15.1451
466 1 -1.1104 6.5411 17.0046 18.1187
455 1 -1.1104 6.61972 14.0801 17.867
460 1 -1.1104 0.984844 19.6023 20.8338
470 1 -1.1104 1.16404 16.9031 20.816
458 1 -1.1104 1.36637 14.0773 20.6111
479 1 -1.1104 3.79784 19.6039 20.8055
462 1 -1.1104 6.77186 13.9857 20.6406
464 1 -1.1104 6.57081 19.6332 20.7448
484 1 -1.1104 4.0428 16.855 20.5598
9268 2 2.2208 13.6702 15.2855 16.3861
579 1 -1.1104 9.55326 19.5996 26.3165
506 1 -1.1104 9.57568 19.4143 20.7555
488 2 2.2208 10.8795 18.271 16.4165
489 1 -1.1104 12.1757 14.1342 17.9084
490 1 -1.1104 12.3351 19.6523 17.9124
491 1 -1.1104 12.2313 13.9298 15.1381
493 1 -1.1104 12.2487 19.3946 14.9573
495 1 -1.1104 12.4101 16.8849 17.567
496 2 2.2208 10.9321 15.4923 19.3383
497 2 2.2208 10.8837 20.9117 19.3148
498 1 -1.1104 12.2341 16.687 14.8872
500 1 -1.1104 9.40293 13.9011 17.9124
501 1 -1.1104 9.52884 19.5089 17.9042
502 2 2.2208 8.14119 18.2341 19.4186
503 1 -1.1104 9.44663 13.8019 15.1358
505 1 -1.1104 9.53933 19.6527 14.9245
507 2 2.2208 8.04756 15.3998 16.6107
508 2 2.2208 8.08846 21.02 16.4557
509 1 -1.1104 9.43774 16.7519 17.831
510 1 -1.1104 9.55726 16.8314 15.1081
9270 2 2.2208 13.6873 18.2889 19.2739
511 1 -1.1104 9.54426 16.7145 20.7775
504 1 -1.1104 9.68186 14.018 20.7152
494 1 -1.1104 12.3472 19.7388 20.8068
9310 2 2.2208 -0.269293 15.3993 19.3167
340 1 -1.1104 3.89742 2.73911 20.8164
345 1 -1.1104 3.96988 0.0250964 20.675
323 1 -1.1104 6.78223 -2.93086 20.6948
321 1 -1.1104 1.06153 2.62365 20.7698
325 1 -1.1104 6.75227 2.71105 20.5423
319 1 -1.1104 1.14807 -2.94932 20.6507
331 1 -1.1104 1.16647 -0.129419 20.7376
516 2 2.2208 5.40194 1.42049 22.142
517 1 -1.1104 1.23767 -2.86637 23.5766
518 1 -1.1104 0.971468 2.71272 23.5486
521 1 -1.1104 1.18789 -2.88124 26.4483
522 1 -1.1104 1.00132 2.65251 26.4453
525 1 -1.1104 0.986674 -0.0212814 23.5163
527 2 2.2208 5.35187 -1.42073 25.0009
528 2 2.2208 5.33424 4.12869 24.8233
529 1 -1.1104 1.14952 -0.160613 26.2687
531 1 -1.1104 3.95118 -2.85565 23.6847
532 1 -1.1104 3.85002 2.82965 23.5585
533 2 2.2208 2.3543 1.32197 24.8139
534 1 -1.1104 3.89684 -2.84892 26.4315
535 1 -1.1104 3.9475 2.75627 26.3056
536 2 2.2208 2.60772 -1.5616 22.1801
537 2 2.2208 2.53672 4.08387 22.1471
538 1 -1.1104 3.9757 -0.018372 23.4889
539 1 -1.1104 3.91593 0.0826841 26.2855
526 1 -1.1104 6.67891 -0.00958063 23.6755
519 1 -1.1104 6.79905 -2.76094 23.445
524 1 -1.1104 6.75704 2.53476 26.3483
523 1 -1.1104 6.64492 -2.9622 26.1684
520 1 -1.1104 6.7609 2.78776 23.56
578 1 -1.1104 9.54281 13.948 26.4302
9490 2 2.2208 13.8276 1.35443 24.8419
360 1 -1.1104 12.4107 -2.90431 20.7994
530 1 -1.1104 6.75721 -0.111328 26.4546
379 1 -1.1104 9.62595 -0.1581 20.5599
9489 2 2.2208 13.8363 -1.54642 22.171
9331 2 2.2208 13.6895 4.09496 22.0246
367 1 -1.1104 12.4884 -0.0199165 20.6828
372 1 -1.1104 9.66239 -2.79865 20.8612
552 2 2.2208 11.0578 1.32741 22.1009
553 1 -1.1104 12.2885 -2.83571 23.522
554 1 -1.1104 12.3744 2.82792 23.4775
555 1 -1.1104 12.6523 -2.96196 26.3255
556 1 -1.1104 12.4528 2.68613 26.2904
557 1 -1.1104 12.5461 0.000236113 23.5378
558 2 2.2208 11.0549 -1.37457 24.8963
560 1 -1.1104 12.4278 -0.187757 26.4509
561 1 -1.1104 9.47022 -2.73844 23.6856
562 1 -1.1104 9.46598 2.64837 23.4437
563 2 2.2208 8.11943 1.25137 24.9426
564 1 -1.1104 9.76542 -2.75222 26.4502
565 1 -1.1104 9.68863 2.85451 26.2361
566 2 2.2208 8.12799 -1.51002 22.1892
568 1 -1.1104 9.66978 -0.0883967 23.3591
569 1 -1.1104 9.53894 -0.0190316 26.2676
559 2 2.2208 10.9432 4.10166 24.8987
567 2 2.2208 8.03387 4.11255 22.0416
384 1 -1.1104 12.3332 19.5762 23.6573
407 1 -1.1104 6.80913 5.59874 20.7343
409 1 -1.1104 6.82644 11.255 20.7427
414 1 -1.1104 3.93478 8.38747 20.6995
405 1 -1.1104 1.08016 11.3238 20.7242
581 2 2.2208 5.31207 6.94393 22.0335
582 2 2.2208 5.28606 12.5697 22.1188
583 1 -1.1104 1.107 8.286 23.4495
585 1 -1.1104 1.11463 8.39482 26.2009
587 1 -1.1104 1.1727 5.4992 23.6966
588 1 -1.1104 1.21111 11.1719 23.478
591 2 2.2208 5.42489 9.69744 25.0365
592 1 -1.1104 1.09299 5.60594 26.447
593 1 -1.1104 1.08594 11.286 26.3383
596 1 -1.1104 3.81329 8.43633 23.5268
597 2 2.2208 2.4758 6.91436 24.8652
598 2 2.2208 2.51989 12.6632 24.9879
599 1 -1.1104 3.84447 8.25669 26.292
600 2 2.2208 2.60475 9.72558 22.0409
601 1 -1.1104 3.93709 5.56664 23.4431
602 1 -1.1104 3.98386 11.212 23.3976
603 1 -1.1104 3.97237 5.55171 26.2957
604 1 -1.1104 3.87071 11.2305 26.3156
589 1 -1.1104 6.76149 5.554 23.3628
590 1 -1.1104 6.78435 11.217 23.7435
595 1 -1.1104 6.77463 11.0874 26.5081
586 1 -1.1104 6.83336 8.20609 26.2096
594 1 -1.1104 6.76263 5.41129 26.2226
584 1 -1.1104 6.62205 8.47721 23.5308
396 1 -1.1104 6.62828 8.3429 20.7454
441 1 -1.1104 9.46592 8.28204 20.897
436 1 -1.1104 12.3122 11.1539 20.8426
448 1 -1.1104 9.62939 11.2357 20.8577
9390 2 2.2208 13.7518 9.77569 22.1587
9267 2 2.2208 13.7614 6.94099 24.9731
424 2 2.2208 2.44871 12.5955 13.6679
429 1 -1.1104 12.4699 8.41043 20.7077
446 1 -1.1104 9.47826 5.54735 20.7223
612 1 -1.1104 9.4368 11.1624 26.3432
613 1 -1.1104 9.54934 5.48515 26.278
614 1 -1.1104 9.56039 11.1569 23.6378
615 1 -1.1104 9.53737 5.50618 23.4872
616 2 2.2208 8.19941 9.75569 22.1425
617 1 -1.1104 9.48056 8.18455 26.2411
618 2 2.2208 8.1966 12.5214 24.9231
619 2 2.2208 8.12993 6.83406 24.9068
620 2 2.2208 11.0491 6.91335 22.0697
621 2 2.2208 10.8961 12.591 22.0377
622 1 -1.1104 12.2307 8.4796 23.4109
623 1 -1.1104 12.2672 8.32566 26.2088
624 1 -1.1104 12.3839 5.56619 23.6074
625 1 -1.1104 12.2502 11.2281 23.4155
626 2 2.2208 10.8433 9.69027 24.9067
627 1 -1.1104 12.354 5.49834 26.2683
628 1 -1.1104 12.3018 11.0968 26.3306
629 1 -1.1104 9.52203 8.36972 23.49
492 1 -1.1104 12.3162 14.0326 20.7595
472 1 -1.1104 6.76712 16.8017 20.7844
477 1 -1.1104 4.07485 13.999 20.7986
577 1 -1.1104 6.79143 19.5723 26.2242
486 1 -1.1104 6.68165 16.8066 23.4856
349 2 2.2208 2.50664 21.0393 22.0541
350 1 -1.1104 3.87005 16.7359 23.4712
485 1 -1.1104 1.12999 16.9775 23.5349
512 1 -1.1104 3.88453 14.1047 26.4023
514 1 -1.1104 3.98464 16.8775 26.2898
634 2 2.2208 2.38532 18.267 24.9246
635 2 2.2208 2.54326 15.5312 22.0752
636 1 -1.1104 3.73559 19.6631 23.4366
638 1 -1.1104 3.97374 14.0162 23.6193
640 1 -1.1104 1.2387 19.4654 26.5189
641 1 -1.1104 1.06691 16.8153 26.2836
642 1 -1.1104 1.02841 13.9721 26.1852
644 2 2.2208 5.33566 20.919 24.9643
645 2 2.2208 5.34259 15.4124 24.9677
647 1 -1.1104 0.984491 19.6942 23.5955
648 1 -1.1104 1.18964 14.0412 23.4588
649 2 2.2208 5.30001 18.1701 22.0736
650 1 -1.1104 3.96623 19.6669 26.2531
646 1 -1.1104 6.66214 14.0496 23.3869
637 1 -1.1104 6.69028 13.8644 26.2838
639 1 -1.1104 6.68807 16.7525 26.2384
643 1 -1.1104 6.65207 19.6582 23.4795
548 2 2.2208 10.9232 20.9666 24.9692
385 1 -1.1104 12.3988 13.9445 26.3536
546 2 2.2208 5.30804 -4.25859 22.2893
549 1 -1.1104 12.2902 16.6492 26.2973
544 2 2.2208 10.9253 15.396 24.9362
380 1 -1.1104 12.2727 13.86 23.5855
551 1 -1.1104 9.55512 19.5862 23.6517
550 1 -1.1104 9.43912 13.9486 23.4127
573 2 2.2208 8.1189 18.1285 24.7433
9470 2 2.2208 13.8281 18.2233 24.8707
580 2 2.2208 7.96798 15.3471 22.0812
351 2 2.2208 10.8673 18.1935 22.1507
499 1 -1.1104 12.2993 16.8177 20.4204
543 1 -1.1104 12.5006 16.7572 23.4408
608 2 2.2208 8.00928 21.1602 22.1393
610 1 -1.1104 9.47145 16.7886 26.284
609 1 -1.1104 9.55019 16.7808 23.3869
308 2 2.2208 2.36327 18.3021 13.6883
9433 2 2.2208 -0.297029 21.1576 24.8869
423 2 2.2208 5.29881 9.7319 13.6601
346 2 2.2208 8.10425 15.2626 27.7102
9488 2 2.2208 13.7979 -1.57229 27.7791
9469 2 2.2208 13.76 15.3889 22.1859
9491 2 2.2208 13.7328 4.14474 27.8349
354 2 2.2208 2.51918 1.44205 13.7883
487 2 2.2208 5.24365 15.3687 13.7959
631 2 2.2208 8.16955 9.80932 27.8059
513 2 2.2208 10.7694 15.3163 13.7561
9128 2 2.2208 13.6813 1.25496 13.6663
451 2 2.2208 7.96347 12.5025 13.615
307 2 2.2208 8.16755 20.8961 27.7388
651 2 2.2208 5.26241 23.7702 5.22909
652 2 2.2208 5.24472 29.371 5.317
653 1 -1.1104 1.00612 25.1211 1.09226
654 1 -1.1104 1.12458 25.2641 3.91422
655 1 -1.1104 1.24479 22.4237 0.994199
656 1 -1.1104 0.949135 27.9493 1.05437
657 2 2.2208 5.07113 26.5211 2.39979
658 1 -1.1104 1.07972 22.4192 3.95904
659 1 -1.1104 1.10777 28.0166 3.87121
660 1 -1.1104 3.89079 25.1279 1.12009
661 2 2.2208 2.46015 23.7771 2.43658
662 2 2.2208 2.57165 29.3759 2.33057
663 1 -1.1104 3.8029 25.1074 3.7917
664 2 2.2208 2.41592 26.5747 5.28784
665 1 -1.1104 3.8904 22.3694 1.06467
666 1 -1.1104 3.7474 28.0003 0.956787
667 1 -1.1104 3.82961 22.2961 3.63739
668 1 -1.1104 3.86883 27.9801 3.74754
672 1 -1.1104 6.77782 25.1708 1.0265
675 1 -1.1104 6.62977 28.0036 0.970137
677 1 -1.1104 6.68622 28.0138 3.9453
673 1 -1.1104 6.69934 25.1809 3.91278
674 1 -1.1104 6.79254 22.4463 1.0571
676 1 -1.1104 6.61464 22.4083 3.67796
795 1 -1.1104 0.963355 28.2665 6.75693
793 1 -1.1104 6.62932 25.2516 6.75557
796 1 -1.1104 6.67728 22.2441 6.58758
1518 1 -1.1104 12.316 47.6577 12.3565
972 2 2.2208 5.25544 23.7262 -0.310453
9812 2 2.2208 13.586 29.3739 2.54175
9813 2 2.2208 13.5142 26.6104 5.28874
678 2 2.2208 10.79 23.7703 5.11999
679 2 2.2208 10.6866 29.4077 5.37779
680 1 -1.1104 12.2891 25.2111 1.0418
681 1 -1.1104 12.279 25.169 3.91012
682 1 -1.1104 12.5019 22.3716 1.0357
683 1 -1.1104 12.2375 28.0104 1.15204
684 2 2.2208 10.8943 26.6866 2.50296
685 1 -1.1104 12.2562 22.4467 3.86028
686 1 -1.1104 12.2563 27.9352 3.96763
687 1 -1.1104 9.61768 25.2263 0.943652
688 2 2.2208 7.99955 23.8161 2.45613
689 2 2.2208 8.00534 29.4525 2.42544
690 1 -1.1104 9.48645 25.2609 3.60659
691 2 2.2208 8.02196 26.6854 5.21158
692 1 -1.1104 9.62005 22.2844 0.996336
693 1 -1.1104 9.54132 28.0633 1.05892
694 1 -1.1104 9.51344 22.5232 3.67179
695 1 -1.1104 9.34169 28.0741 3.79571
1499 1 -1.1104 3.77108 47.5907 9.45078
828 1 -1.1104 9.34623 25.1542 6.48124
827 1 -1.1104 12.1228 28.06 6.78201
829 1 -1.1104 9.46369 22.3835 6.46785
826 1 -1.1104 12.2253 22.3366 6.72204
830 1 -1.1104 9.43187 27.9653 6.63238
825 1 -1.1104 12.2836 25.3289 6.51232
1528 1 -1.1104 9.55331 47.84 12.2257
9707 2 2.2208 13.7519 37.9035 10.918
1510 1 -1.1104 12.3332 47.6223 6.54729
9808 2 2.2208 13.7584 43.5353 11.0432
983 2 2.2208 5.15343 35.0108 -0.286045
971 2 2.2208 10.8891 43.4444 13.7661
699 2 2.2208 5.20813 35.0193 5.33671
700 1 -1.1104 1.21534 30.6826 0.982111
701 1 -1.1104 1.05198 36.2997 0.961033
703 1 -1.1104 1.08997 30.829 3.89133
704 1 -1.1104 1.05095 36.4747 3.84586
706 1 -1.1104 0.983312 33.4699 1.25284
707 2 2.2208 5.27675 32.1912 2.49567
708 2 2.2208 5.19819 37.9046 2.51348
709 1 -1.1104 1.01869 33.6893 3.96415
711 1 -1.1104 3.94778 30.8701 1.05521
712 1 -1.1104 3.73574 36.6199 1.19811
713 2 2.2208 2.38611 34.905 2.4858
714 1 -1.1104 3.81603 30.7238 3.98153
715 1 -1.1104 3.86219 36.5001 3.99591
716 2 2.2208 2.41934 32.1455 5.33553
717 2 2.2208 2.46615 37.7938 5.24606
718 1 -1.1104 3.84504 33.6495 1.09865
719 1 -1.1104 3.81043 33.6575 3.89334
725 1 -1.1104 6.64417 33.6202 1.03383
723 1 -1.1104 6.63163 30.6585 1.10583
710 1 -1.1104 6.54557 33.5686 3.83765
705 1 -1.1104 6.64265 36.472 3.91389
724 1 -1.1104 6.61427 30.8227 3.9031
852 1 -1.1104 6.53489 36.4436 6.81664
855 1 -1.1104 3.60601 30.9472 6.8156
966 2 2.2208 2.46592 40.6658 13.7562
850 1 -1.1104 0.93408 36.3369 6.71461
965 2 2.2208 5.2855 43.5364 13.6864
702 1 -1.1104 6.52192 36.4774 1.06756
726 2 2.2208 10.8586 35.1099 5.42856
727 1 -1.1104 12.1678 30.7401 0.992773
728 1 -1.1104 12.0828 36.3595 1.16726
729 1 -1.1104 12.1155 30.7479 3.85983
730 1 -1.1104 12.107 36.5554 3.92515
731 1 -1.1104 12.1652 33.6391 1.25432
732 2 2.2208 10.7752 32.1976 2.47478
733 2 2.2208 10.7601 37.8356 2.45896
734 1 -1.1104 12.3653 33.6884 3.96972
735 1 -1.1104 9.41171 30.8452 1.09487
736 1 -1.1104 9.27105 36.503 1.09439
737 2 2.2208 7.95001 35.0961 2.52096
738 1 -1.1104 9.42169 30.8929 3.81446
739 1 -1.1104 9.4469 36.4654 4.06929
740 2 2.2208 8.00964 32.2893 5.34505
741 2 2.2208 7.95223 37.9162 5.37954
742 1 -1.1104 9.47794 33.6849 1.14667
743 1 -1.1104 9.39005 33.7021 3.89845
9555 2 2.2208 13.5006 32.0789 5.25498
883 1 -1.1104 12.1256 30.8097 6.62816
942 1 -1.1104 9.36859 42.0012 9.62325