ITEM: TIMESTEP
10000
ITEM: NUMBER OF ATOMS
17910
ITEM: BOX BOUNDS pp pp pp
-3.5408965690524269e-01 2.7694089656905437e+01
-4.1991646492911183e+00 3.3227916464929274e+02
-3.5718587513113026e-01 2.7697185875130998e+01
ITEM: ATOMS id type q x y z
1 2 2.2208 5.25605 1.34522 5.20284
2 1 -1.1104 0.839422 -2.76511 1.08688
3 1 -1.1104 1.01598 2.74978 0.956251
6 1 -1.1104 0.807312 -2.91187 3.7365
7 1 -1.1104 0.893493 2.69983 3.67603
10 1 -1.1104 1.02245 -0.118426 1.02291
12 2 2.2208 5.17867 -1.47631 2.46586
13 2 2.2208 5.10515 4.07505 2.35781
14 1 -1.1104 0.94232 -0.0696003 3.82641
16 1 -1.1104 3.68435 -2.85464 0.956241
17 1 -1.1104 3.76986 2.69053 1.15927
18 2 2.2208 2.38693 1.26108 2.51424
19 1 -1.1104 3.81655 -2.90453 3.94014
20 1 -1.1104 3.77432 2.6633 4.00424
21 2 2.2208 2.30836 -1.5183 5.24144
22 2 2.2208 2.33012 4.1774 5.1879
23 1 -1.1104 3.7846 -0.152691 1.07004
24 1 -1.1104 3.6888 -0.0812275 3.94943
15 1 -1.1104 6.61362 -0.0399529 3.79936
9 1 -1.1104 6.53524 2.81485 3.73289
8 1 -1.1104 6.44456 -2.88526 3.83703
5 1 -1.1104 6.35755 2.68972 0.864654
309 2 2.2208 5.26891 20.9732 13.6585
11 1 -1.1104 6.46456 -0.0628624 0.951224
312 2 2.2208 2.36004 21.0882 -0.365111
9069 2 2.2208 13.4819 -4.11838 2.36725
170 1 -1.1104 0.938849 -0.0508066 6.71116
169 1 -1.1104 6.49111 2.62407 6.59112
4 1 -1.1104 6.5276 -2.87875 1.24771
31 2 2.2208 10.5891 1.28686 5.24486
32 1 -1.1104 12.032 -2.82205 1.02488
33 1 -1.1104 11.9586 2.94015 1.22071
34 1 -1.1104 12.14 -2.78247 3.84486
35 1 -1.1104 12.0207 2.7305 3.95524
36 1 -1.1104 12.0945 -0.0472509 1.01969
37 2 2.2208 10.7099 -1.42021 2.41437
38 2 2.2208 10.6406 4.23864 2.53984
39 1 -1.1104 12.0208 -0.000469418 3.83825
40 1 -1.1104 9.29307 -2.96847 1.02387
41 1 -1.1104 9.21721 2.75864 0.975728
42 2 2.2208 7.85802 1.37949 2.3024
43 1 -1.1104 9.23628 -2.89805 3.74633
44 1 -1.1104 9.14884 2.77144 3.71596
45 2 2.2208 7.9338 -1.52706 5.32168
46 2 2.2208 7.7705 4.16486 5.23593
47 1 -1.1104 9.2073 -0.129251 1.05754
48 1 -1.1104 9.25476 -0.120776 3.86915
27 1 -1.1104 12.1861 19.6185 12.2241
9068 2 2.2208 13.4661 -1.30685 5.30894
9073 2 2.2208 13.6641 12.6251 2.55926
540 2 2.2208 5.06075 1.31239 -0.371796
231 2 2.2208 7.93139 -4.23882 8.13713
207 1 -1.1104 12.2277 0.0884715 6.59034
206 1 -1.1104 12.0745 2.79439 6.65982
9024 2 2.2208 13.5825 20.9777 10.8729
8762 2 2.2208 13.4639 4.23454 5.28686
52 2 2.2208 10.7119 -4.17587 5.29268
605 2 2.2208 5.06962 7.03811 -0.363401
9086 2 2.2208 13.5997 1.47544 7.96696
54 2 2.2208 5.05368 6.8929 5.19686
55 2 2.2208 5.08757 12.5412 5.23782
56 1 -1.1104 0.800536 8.34899 1.27825
58 1 -1.1104 0.894864 8.47319 4.07382
60 1 -1.1104 0.852125 5.56474 0.998329
61 1 -1.1104 0.916508 11.1021 1.04548
66 2 2.2208 5.02817 9.8129 2.50294
67 1 -1.1104 0.941824 5.57542 3.90287
68 1 -1.1104 1.03816 11.2764 3.98871
71 1 -1.1104 3.5694 8.44289 1.08951
72 2 2.2208 2.28693 6.90455 2.43103
73 2 2.2208 2.40928 12.5801 2.48414
74 1 -1.1104 3.57035 8.32521 3.86746
75 2 2.2208 2.3861 9.8057 5.39727
76 1 -1.1104 3.68333 5.57993 1.05047
77 1 -1.1104 3.7231 11.2362 1.2352
79 1 -1.1104 3.6602 5.40538 3.70827
80 1 -1.1104 3.84297 11.2146 3.86353
57 1 -1.1104 6.53547 8.43492 1.11008
63 1 -1.1104 6.52706 5.54158 1.04685
237 1 -1.1104 6.51481 5.57198 6.60106
9076 2 2.2208 -0.417739 20.8859 2.29904
62 1 -1.1104 0.919825 11.2057 6.74628
235 1 -1.1104 6.64604 8.34092 6.76782
136 1 -1.1104 9.37495 19.5513 9.45857
104 1 -1.1104 9.43452 19.6287 12.2308
69 1 -1.1104 6.37553 5.59435 3.80693
53 2 2.2208 10.8309 15.5122 8.09481
8978 2 2.2208 13.6188 9.74927 10.948
64 1 -1.1104 6.47887 11.1766 1.0149
70 1 -1.1104 6.68296 11.0563 3.87965
59 1 -1.1104 6.41536 8.32124 3.93387
84 2 2.2208 10.612 6.97004 5.389
85 2 2.2208 10.8773 12.6127 5.30167
86 1 -1.1104 12.266 8.40297 0.907745
87 1 -1.1104 12.1363 8.33512 3.8533
88 1 -1.1104 12.0875 5.55078 1.15323
89 1 -1.1104 12.1082 11.215 1.11011
91 2 2.2208 10.7796 9.83851 2.57507
92 1 -1.1104 11.9227 5.58237 3.96663
93 1 -1.1104 12.1643 11.272 3.87119
94 1 -1.1104 9.50407 8.31233 1.15088
95 2 2.2208 7.93656 6.91895 2.4645
96 2 2.2208 8.06587 12.6095 2.46887
97 1 -1.1104 9.17454 8.24257 3.90909
98 2 2.2208 7.81488 9.74185 5.34358
99 1 -1.1104 9.29564 5.59638 1.17348
100 1 -1.1104 9.28468 11.1457 1.25775
102 1 -1.1104 9.17024 5.43009 3.92344
103 1 -1.1104 9.44724 11.1565 3.85741
65 1 -1.1104 6.40638 11.0352 6.67108
90 1 -1.1104 12.1712 11.3814 6.80744
101 1 -1.1104 9.21195 11.212 6.7662
9074 2 2.2208 13.4925 6.94964 2.5085
611 2 2.2208 2.37732 15.3911 -0.310859
106 2 2.2208 5.26571 18.2653 5.25027
107 1 -1.1104 1.00199 13.9557 1.06574
109 1 -1.1104 0.969455 19.5233 0.958527
113 1 -1.1104 1.05191 13.9259 3.84246
114 1 -1.1104 0.929032 19.616 3.89002
116 1 -1.1104 0.929868 16.72 1.12918
119 2 2.2208 5.31191 15.4424 2.57078
120 2 2.2208 5.06137 20.9826 2.5314
121 1 -1.1104 1.05663 16.8122 3.96757
123 1 -1.1104 3.96399 13.9388 1.00519
125 1 -1.1104 3.6134 19.7128 1.21875
127 2 2.2208 2.37902 18.2051 2.55224
128 1 -1.1104 3.76846 14.0263 3.92531
129 1 -1.1104 3.74432 19.6505 3.99639
130 2 2.2208 2.28987 15.2893 5.36054
131 2 2.2208 2.31857 20.9753 5.30904
132 1 -1.1104 3.72526 16.792 1.18027
134 1 -1.1104 3.99028 16.8356 3.90871
140 1 -1.1104 6.63424 16.8021 1.12774
122 1 -1.1104 6.68365 16.6789 3.95006
139 1 -1.1104 6.60743 19.553 3.88452
126 1 -1.1104 3.90335 19.5814 6.7248
133 1 -1.1104 3.73035 16.8521 6.56596
117 1 -1.1104 0.960021 16.7549 6.76144
81 2 2.2208 10.7739 21.029 8.07948
8897 2 2.2208 13.4798 4.09677 10.8055
145 1 -1.1104 12.3061 19.5138 6.7363
143 1 -1.1104 12.3924 14.1299 6.74535
115 1 -1.1104 6.65093 13.8038 3.87941
138 1 -1.1104 6.51827 19.5444 1.04452
110 1 -1.1104 6.61578 14.0076 1.04174
141 2 2.2208 10.7515 18.1614 5.36188
142 1 -1.1104 12.2322 14.0241 1.13435
144 1 -1.1104 12.3392 19.6064 1.20951
146 1 -1.1104 12.4132 14.098 3.96485
147 1 -1.1104 12.218 19.7517 3.9889
148 1 -1.1104 12.0549 16.6823 0.968022
150 2 2.2208 10.8831 15.3551 2.54611
151 2 2.2208 10.8209 20.9717 2.62373
152 1 -1.1104 12.1547 16.7662 3.97539
153 1 -1.1104 9.55348 13.9896 1.0322
155 1 -1.1104 9.36157 19.6711 1.19719
157 2 2.2208 8.11509 18.1751 2.55404
158 1 -1.1104 9.45813 14.0633 3.9695
159 1 -1.1104 9.32513 19.5675 3.88019
160 2 2.2208 7.99079 15.4108 5.27499
161 2 2.2208 7.90346 21.0699 5.35702
162 1 -1.1104 9.39535 16.67 1.14045
164 1 -1.1104 9.58065 16.9191 3.908
26 1 -1.1104 12.1522 13.8499 12.2458
9062 2 2.2208 13.487 15.4631 10.8349
9078 2 2.2208 13.566 18.2109 2.56506
118 1 -1.1104 6.60605 16.9252 6.75457
112 1 -1.1104 6.55637 19.6058 6.60821
154 1 -1.1104 9.37817 13.9202 6.75964
163 1 -1.1104 9.3687 16.9365 6.71297
149 1 -1.1104 12.2421 16.8235 6.80464
156 1 -1.1104 9.41383 19.574 6.63238
174 1 -1.1104 3.81818 0.00784584 6.72409
167 1 -1.1104 0.874059 2.7377 6.59698
168 1 -1.1104 6.52718 -2.90469 6.62598
172 1 -1.1104 3.7354 -2.85552 6.719
166 1 -1.1104 0.968596 -2.69539 6.56441
173 1 -1.1104 3.69282 2.85795 6.67403
175 2 2.2208 5.14483 1.27294 10.9318
176 1 -1.1104 0.783093 -2.66915 12.4701
177 1 -1.1104 1.04792 2.81292 12.3279
180 1 -1.1104 0.949788 -2.79337 9.40677
181 1 -1.1104 0.985992 2.74131 9.51641
184 1 -1.1104 1.10447 0.045113 12.1935
186 2 2.2208 5.12669 -1.45141 7.98609
187 2 2.2208 5.16346 4.10779 8.09602
188 1 -1.1104 0.798992 -0.016067 9.5517
190 1 -1.1104 3.63791 -2.84112 12.2597
191 1 -1.1104 3.90318 2.63079 12.2719
192 2 2.2208 2.16082 1.31535 8.05486
193 1 -1.1104 3.79809 -2.85314 9.41315
194 1 -1.1104 3.75888 2.61733 9.5175
195 2 2.2208 2.30553 -1.49202 10.911
196 2 2.2208 2.38799 4.1206 10.8493
197 1 -1.1104 3.71514 -0.0657303 12.4327
198 1 -1.1104 3.72713 -0.133282 9.51471
185 1 -1.1104 6.54593 -0.158713 12.2088
178 1 -1.1104 6.48607 -2.95539 12.3084
179 1 -1.1104 6.68069 2.71464 12.3111
182 1 -1.1104 6.54825 -3.02377 9.4019
189 1 -1.1104 6.58839 -0.238855 9.36826
9087 2 2.2208 13.5002 -1.43527 10.8633
353 2 2.2208 5.11467 -1.44562 13.765
137 2 2.2208 8.01726 15.299 10.9111
171 1 -1.1104 6.60578 -0.0658844 6.54829
205 1 -1.1104 12.1187 -2.79718 6.59224
209 1 -1.1104 9.15356 2.65071 6.55847
210 1 -1.1104 9.33606 -0.0660638 6.68255
208 1 -1.1104 9.35469 -2.70721 6.71606
183 1 -1.1104 6.42787 2.63336 9.48811
211 2 2.2208 10.5871 1.42616 10.9339
212 1 -1.1104 12.0555 -2.90263 12.3051
213 1 -1.1104 12.058 2.75738 12.2563
214 1 -1.1104 12.1611 -2.81944 9.4686
215 1 -1.1104 11.9906 2.9165 9.50601
216 1 -1.1104 12.0834 -0.00237292 12.284
217 2 2.2208 10.6723 -1.34371 8.09988
218 2 2.2208 10.6145 4.1344 7.99722
219 1 -1.1104 12.1771 -0.0702009 9.3295
220 1 -1.1104 9.2601 -2.86531 12.3399
221 1 -1.1104 9.32535 2.79856 12.3388
222 2 2.2208 7.80871 1.25043 8.02116
223 1 -1.1104 9.3565 -2.84907 9.51832
224 1 -1.1104 9.27339 2.87315 9.54836
225 2 2.2208 7.90851 -1.47868 10.8759
226 2 2.2208 7.86914 4.09341 10.866
227 1 -1.1104 9.24063 -0.141369 12.2551
228 1 -1.1104 9.32295 -0.0429468 9.45165
105 2 2.2208 7.90654 18.3697 8.01105
311 2 2.2208 8.08121 18.0806 13.6681
606 2 2.2208 2.42846 9.79869 -0.294778
630 2 2.2208 10.7886 6.91813 -0.336527
234 1 -1.1104 0.884341 8.41385 6.76829
78 1 -1.1104 3.72853 11.123 6.66407
239 1 -1.1104 3.57701 5.56905 6.63534
238 1 -1.1104 3.80128 8.31542 6.64141
236 1 -1.1104 0.875403 5.4669 6.68957
240 2 2.2208 5.03762 6.87161 10.8421
241 2 2.2208 5.21203 12.4772 10.8893
242 1 -1.1104 0.919355 8.37839 12.3561
244 1 -1.1104 0.93098 8.35684 9.60302
246 1 -1.1104 0.956443 5.59394 12.3807
247 1 -1.1104 1.05223 11.1262 12.4127
250 2 2.2208 5.12834 9.70026 8.1317
251 1 -1.1104 0.936359 5.45564 9.44069
252 1 -1.1104 0.978886 11.1891 9.51069
255 1 -1.1104 3.62426 8.36012 12.3927
256 2 2.2208 2.31265 6.97251 8.18938
257 2 2.2208 2.32054 12.6077 8.02815
258 1 -1.1104 3.70254 8.46308 9.49695
259 2 2.2208 2.34923 9.7863 10.9306
260 1 -1.1104 3.68004 5.50985 12.276
261 1 -1.1104 3.79013 11.0723 12.2983
262 1 -1.1104 3.78105 5.50697 9.45023
263 1 -1.1104 3.71842 11.1122 9.6086
248 1 -1.1104 6.45412 5.43349 12.2468
254 1 -1.1104 6.59432 11.1376 9.27218
249 1 -1.1104 6.54444 11.0657 12.2545
245 1 -1.1104 6.44387 8.30019 9.46166
82 1 -1.1104 12.2343 16.8163 9.48158
265 1 -1.1104 12.2482 8.45474 6.67491
269 1 -1.1104 9.29103 5.43774 6.73728
135 1 -1.1104 9.3903 13.995 9.51905
253 1 -1.1104 6.52948 5.4992 9.37589
243 1 -1.1104 6.56033 8.17061 12.3292
266 1 -1.1104 12.1002 5.65022 6.75795
267 1 -1.1104 9.53662 8.37912 6.80649
264 1 -1.1104 9.43357 11.1244 9.41758
268 1 -1.1104 9.28263 5.54435 9.48275
270 1 -1.1104 9.32383 11.044 12.2797
271 1 -1.1104 9.21871 5.61086 12.2746
272 2 2.2208 7.91743 9.71044 10.9064
273 1 -1.1104 9.17976 8.29807 9.60896
274 2 2.2208 7.93319 12.6312 7.97694
275 2 2.2208 7.94641 6.92575 7.99411
276 2 2.2208 10.7151 6.959 10.9154
277 2 2.2208 10.7759 12.4537 10.7699
278 1 -1.1104 12.3788 8.31683 12.2925
279 1 -1.1104 12.0345 8.41778 9.50428
280 1 -1.1104 11.9293 5.49021 12.3714
281 1 -1.1104 12.1319 11.0131 12.3496
282 2 2.2208 10.8235 9.76172 8.08632
283 1 -1.1104 12.0648 5.62546 9.32098
284 1 -1.1104 12.3473 11.1891 9.52068
285 1 -1.1104 9.39115 8.34495 12.3239
8973 2 2.2208 13.4457 7.01321 8.05149
8791 2 2.2208 13.6153 9.75255 5.26388
9067 2 2.2208 13.4275 1.42305 2.38693
297 1 -1.1104 6.52535 13.7889 12.3
572 2 2.2208 7.85814 4.12857 -0.360244
290 1 -1.1104 6.48107 14.0188 9.53706
302 1 -1.1104 0.927045 19.6932 6.7675
124 1 -1.1104 3.64125 14.0646 6.71161
288 1 -1.1104 6.56922 19.579 9.47417
233 1 -1.1104 6.62924 16.7462 12.0429
108 1 -1.1104 0.77999 14.0839 6.67343
296 1 -1.1104 6.61497 19.5842 12.2883
201 2 2.2208 2.31011 15.3292 10.8214
204 2 2.2208 2.43842 20.9418 10.816
229 1 -1.1104 3.81164 16.8287 12.3009
230 1 -1.1104 0.951724 16.6183 12.3247
286 1 -1.1104 3.67319 19.7189 12.4136
287 1 -1.1104 3.70065 13.8986 12.2826
291 1 -1.1104 0.980783 19.5367 9.48536
292 1 -1.1104 0.836468 16.7017 9.50397
293 2 2.2208 5.05752 21.0987 7.9968
294 1 -1.1104 0.804722 14.0506 9.51038
295 2 2.2208 5.07518 15.4558 8.17999
298 1 -1.1104 0.972959 19.4942 12.3732
299 1 -1.1104 0.824391 13.8969 12.3474
300 2 2.2208 5.13618 18.2342 10.8161
301 1 -1.1104 3.85241 19.7154 9.48826
303 2 2.2208 2.21893 18.1799 7.95306
304 1 -1.1104 3.66672 16.8146 9.37971
305 1 -1.1104 3.6962 14.0344 9.5559
111 1 -1.1104 6.42843 13.9686 6.68658
289 1 -1.1104 6.56328 16.861 9.50353
388 2 2.2208 10.7618 4.08523 13.6762
83 1 -1.1104 9.36875 13.9729 12.1928
165 2 2.2208 7.96777 20.9123 10.9692
49 1 -1.1104 12.1714 19.6101 9.48899
199 1 -1.1104 9.42855 16.7397 12.2761
200 1 -1.1104 9.32471 16.7649 9.52009
30 1 -1.1104 12.0544 13.8513 9.61764
50 1 -1.1104 12.1527 16.724 12.1988
25 2 2.2208 10.7432 18.1697 10.8529
449 2 2.2208 7.96935 6.82974 13.6988
9096 2 2.2208 13.6083 21.0754 -0.278489
9269 2 2.2208 13.5476 9.83842 -0.302557
307 2 2.2208 7.92957 20.9432 -0.232389
487 2 2.2208 5.28832 15.3333 13.6584
386 2 2.2208 7.90826 1.26335 13.6368
308 2 2.2208 2.43255 18.1685 13.6386
633 2 2.2208 5.18703 18.3546 -0.253588
542 2 2.2208 2.31337 4.19741 -0.354093
9097 2 2.2208 13.5131 18.121 13.6272
9202 2 2.2208 13.5887 12.4587 13.5443
571 2 2.2208 7.90551 -1.5009 -0.263238
631 2 2.2208 7.99247 9.72022 -0.171677
313 2 2.2208 5.15227 1.35301 16.526
314 1 -1.1104 1.07601 -2.93038 18.0879
315 1 -1.1104 0.942543 2.78607 17.8742
318 1 -1.1104 0.88373 -2.87715 15.1236
320 1 -1.1104 0.894094 2.7659 15.1982
326 1 -1.1104 0.922685 -0.0169672 17.9187
328 2 2.2208 5.12573 -1.57415 19.3619
330 1 -1.1104 0.868888 -0.0985255 15.0855
334 1 -1.1104 3.64582 -2.8508 17.8717
335 1 -1.1104 3.81974 2.82396 17.937
336 2 2.2208 2.40557 1.32988 19.2408
337 1 -1.1104 3.80596 -2.81167 15.008
339 1 -1.1104 3.66359 2.77122 15.2495
341 2 2.2208 2.4338 -1.44343 16.4666
342 2 2.2208 2.3094 4.13841 16.4805
343 1 -1.1104 3.74336 -0.0402817 18.0327
344 1 -1.1104 3.75493 -0.0405557 15.174
322 1 -1.1104 6.53753 -2.90905 15.1299
324 1 -1.1104 6.5524 2.70004 15.0943
329 2 2.2208 5.09842 4.1713 19.3729
9493 2 2.2208 -0.439948 9.866 24.84
332 1 -1.1104 6.48482 -0.137639 15.0849
317 1 -1.1104 6.59548 2.72845 17.7716
338 1 -1.1104 3.7162 -2.86946 20.7048
9470 2 2.2208 13.6776 18.0396 24.7896
355 2 2.2208 5.19793 4.0985 13.7532
423 2 2.2208 5.26409 9.60144 13.7151
576 2 2.2208 8.02782 -4.21959 24.851
316 1 -1.1104 6.46738 -2.80901 18.002
327 1 -1.1104 6.55663 -0.0314186 17.9138
9331 2 2.2208 13.5201 4.06722 22.1479
356 2 2.2208 10.6714 1.33623 16.364
357 1 -1.1104 11.9975 -2.82774 17.9281
358 1 -1.1104 12.0645 2.84344 17.8182
359 1 -1.1104 11.9663 -2.91288 15.1545
361 1 -1.1104 12.0888 2.70525 15.0346
363 1 -1.1104 12.0963 -0.115947 17.8252
364 2 2.2208 10.7206 -1.5748 19.3279
365 2 2.2208 10.6016 4.18126 19.2625
366 1 -1.1104 12.1242 -0.133343 15.0927
368 1 -1.1104 9.29449 -2.80621 17.8853
369 1 -1.1104 9.32222 2.76929 17.9125
370 2 2.2208 8.02619 1.29382 19.2944
371 1 -1.1104 9.25188 -2.83564 15.2335
373 1 -1.1104 9.22342 2.74185 15.0426
375 2 2.2208 7.98125 -1.37926 16.4604
376 2 2.2208 7.90829 4.07509 16.517
377 1 -1.1104 9.38496 -0.112084 17.7871
378 1 -1.1104 9.30691 -0.0272567 15.0607
9199 2 2.2208 13.5346 6.98524 19.2427
362 1 -1.1104 12.01 2.65573 20.5962
9267 2 2.2208 13.491 7.02899 24.8413
422 2 2.2208 2.29192 6.96759 13.7531
9130 2 2.2208 13.4491 1.35383 19.2357
9124 2 2.2208 13.49 4.17509 16.4084
9471 2 2.2208 13.6814 15.2744 27.6513
389 2 2.2208 5.16339 6.91796 16.5433
390 2 2.2208 5.25485 12.5586 16.5056
391 1 -1.1104 0.806409 8.47119 17.9679
393 1 -1.1104 0.940772 8.41588 15.1234
397 1 -1.1104 0.814243 5.57249 18.0091
398 1 -1.1104 0.777535 11.2632 18.0506
401 2 2.2208 5.09637 9.75629 19.381
402 1 -1.1104 1.02839 5.68288 15.2291
404 1 -1.1104 1.09397 11.2323 15.1767
410 1 -1.1104 3.70413 8.39303 17.987
411 2 2.2208 2.35202 6.93222 19.4143
412 2 2.2208 2.37372 12.5212 19.1817
413 1 -1.1104 3.77259 8.25604 15.0327
415 2 2.2208 2.23239 9.84955 16.4961
416 1 -1.1104 3.72398 5.64837 17.979
417 1 -1.1104 3.65663 11.1127 17.9291
418 1 -1.1104 3.71642 5.48608 15.1666
420 1 -1.1104 3.99693 11.13 15.1715
399 1 -1.1104 6.37394 5.46669 18.0418
400 1 -1.1104 6.49902 11.0683 17.8615
406 1 -1.1104 6.49422 5.48603 14.8988
392 1 -1.1104 6.62267 8.2204 17.978
9268 2 2.2208 13.6504 15.2864 16.3767
421 1 -1.1104 3.68585 11.098 20.7005
578 1 -1.1104 9.50407 14.0876 26.3504
408 1 -1.1104 6.72111 11.122 15.0525
395 1 -1.1104 6.58723 8.16963 15.1131
425 2 2.2208 10.8448 6.94018 16.4261
426 2 2.2208 10.8302 12.4267 16.4228
427 1 -1.1104 12.1419 8.30208 17.9743
428 1 -1.1104 12.1581 8.39864 15.2427
430 1 -1.1104 12.065 5.54603 17.9213
431 1 -1.1104 12.2807 11.1685 17.9085
432 2 2.2208 10.7859 9.79512 19.3027
433 1 -1.1104 12.1366 5.55987 15.0428
435 1 -1.1104 12.1362 10.9741 15.0453
437 1 -1.1104 9.31422 8.3824 17.9872
438 2 2.2208 7.81109 6.97551 19.4184
439 2 2.2208 8.12712 12.6108 19.2973
440 1 -1.1104 9.31809 8.3561 15.1185
442 2 2.2208 7.9817 9.7083 16.4938
443 1 -1.1104 9.09867 5.59687 17.8706
444 1 -1.1104 9.28687 11.1804 17.8913
445 1 -1.1104 9.45204 5.46372 15.0815
447 1 -1.1104 9.38661 11.1343 15.1274
380 1 -1.1104 12.2461 13.9342 23.4588
9128 2 2.2208 13.5946 1.26881 13.6167
9390 2 2.2208 13.5245 9.88129 22.1211
513 2 2.2208 10.929 15.3162 13.5797
348 2 2.2208 2.34988 -4.11422 19.3866
452 2 2.2208 5.15243 18.1903 16.4451
453 1 -1.1104 0.955418 13.9802 17.9876
454 1 -1.1104 0.851466 19.5084 17.8807
457 1 -1.1104 1.05122 14.0032 15.0673
459 1 -1.1104 1.05909 19.5666 15.0757
465 1 -1.1104 1.16979 16.7257 17.9171
467 2 2.2208 5.43792 15.4711 19.3609
468 2 2.2208 5.24707 21.0509 19.3663
469 1 -1.1104 0.904026 16.8667 15.1061
473 1 -1.1104 3.71057 14.019 17.8148
474 1 -1.1104 3.88141 19.6036 17.8577
475 2 2.2208 2.42643 18.2636 19.1798
476 1 -1.1104 3.71569 13.8959 15.089
478 1 -1.1104 3.85515 19.5684 15.1685
480 2 2.2208 2.35247 15.4075 16.527
481 2 2.2208 2.38045 20.9421 16.5595
482 1 -1.1104 3.85867 16.8103 17.7742
483 1 -1.1104 3.89699 16.7379 15.0517
456 1 -1.1104 6.58735 19.6217 17.819
466 1 -1.1104 6.73161 16.7564 17.7618
9271 2 2.2208 13.5282 20.9199 16.3084
458 1 -1.1104 1.0346 13.9791 20.7948
463 1 -1.1104 6.65377 19.5468 15.0013
351 2 2.2208 10.7583 18.1989 22.143
484 1 -1.1104 3.99273 16.6636 20.6441
479 1 -1.1104 3.67491 19.3498 20.7733
472 1 -1.1104 6.64337 16.8565 20.7707
460 1 -1.1104 0.889992 19.7074 20.6741
573 2 2.2208 7.92169 18.3373 24.8843
499 1 -1.1104 12.2044 16.8432 20.5561
506 1 -1.1104 9.35699 19.6263 20.7983
471 1 -1.1104 6.77661 16.854 15.114
455 1 -1.1104 6.5891 14.0103 17.9325
461 1 -1.1104 6.81098 14.0149 15.009
488 2 2.2208 10.6911 18.1862 16.3939
489 1 -1.1104 12.1967 14.0866 17.8281
490 1 -1.1104 12.3216 19.6697 17.8688
491 1 -1.1104 12.3771 13.7681 15.0218
493 1 -1.1104 12.0921 19.4557 15.0952
495 1 -1.1104 12.1567 16.9153 17.8159
496 2 2.2208 10.855 15.5418 19.2313
497 2 2.2208 10.8637 21.0019 19.2643
498 1 -1.1104 12.1399 16.6683 15.0329
500 1 -1.1104 9.56054 14.1516 17.9007
501 1 -1.1104 9.46731 19.6752 17.9732
502 2 2.2208 8.07922 18.2759 19.1557
503 1 -1.1104 9.52061 14.028 14.9885
505 1 -1.1104 9.28429 19.7128 15.1051
507 2 2.2208 8.10826 15.4738 16.443
508 2 2.2208 7.93991 21.0306 16.4758
509 1 -1.1104 9.39227 16.9782 17.7587
510 1 -1.1104 9.52829 16.8272 14.9593
494 1 -1.1104 12.0745 19.4666 20.6222
511 1 -1.1104 9.39641 16.779 20.5754
9310 2 2.2208 -0.386943 15.3736 19.2522
424 2 2.2208 2.40207 12.6323 13.6675
9478 2 2.2208 13.5144 -1.55128 16.5788
345 1 -1.1104 3.58453 -0.026986 20.7894
325 1 -1.1104 6.49365 2.7148 20.6991
549 1 -1.1104 12.3352 16.7335 26.3278
323 1 -1.1104 6.60581 -2.88417 20.8037
321 1 -1.1104 0.775363 2.73568 20.7918
340 1 -1.1104 3.64955 2.9 20.6039
319 1 -1.1104 0.954477 -2.74257 20.9538
331 1 -1.1104 0.765818 0.0204155 20.7064
516 2 2.2208 4.98242 1.32001 22.0685
517 1 -1.1104 0.887482 -2.92715 23.6349
518 1 -1.1104 0.971346 2.67234 23.5988
521 1 -1.1104 0.820356 -2.95944 26.2004
522 1 -1.1104 0.931377 2.72416 26.3395
525 1 -1.1104 0.82585 -0.0309398 23.4126
527 2 2.2208 5.13551 -1.45433 24.9455
528 2 2.2208 5.07917 4.17023 24.8501
529 1 -1.1104 1.03551 -0.188382 26.1676
531 1 -1.1104 3.66131 -2.74931 23.4439
532 1 -1.1104 3.58583 2.73876 23.507
533 2 2.2208 2.30183 1.4513 24.9071
534 1 -1.1104 3.7501 -2.94748 26.1911
535 1 -1.1104 3.66809 2.90558 26.2169
536 2 2.2208 2.23475 -1.30842 22.1325
537 2 2.2208 2.31031 4.19959 22.1467
538 1 -1.1104 3.58286 -0.161566 23.4541
539 1 -1.1104 3.76902 -0.0532488 26.1824
526 1 -1.1104 6.54627 -0.0203676 23.4122
523 1 -1.1104 6.64389 -2.80355 26.3284
524 1 -1.1104 6.53752 2.71619 26.1559
333 1 -1.1104 6.38147 -0.110897 20.583
519 1 -1.1104 6.58151 -2.82063 23.7018
579 1 -1.1104 9.28195 19.4646 26.4078
379 1 -1.1104 9.27805 -0.204124 20.6127
492 1 -1.1104 12.1115 14.1032 20.6198
520 1 -1.1104 6.46337 2.68042 23.4877
530 1 -1.1104 6.53714 -0.0528004 26.3499
360 1 -1.1104 11.9653 -2.96926 20.7391
374 1 -1.1104 9.39224 2.64821 20.6558
367 1 -1.1104 12.1351 -0.127482 20.6669
372 1 -1.1104 9.17105 -2.84581 20.631
552 2 2.2208 10.7943 1.23393 22.0689
553 1 -1.1104 12.0447 -3.08174 23.467
554 1 -1.1104 12.1042 2.7689 23.5669
555 1 -1.1104 12.2621 -2.69517 26.1855
556 1 -1.1104 12.1004 2.75618 26.3223
557 1 -1.1104 12.0409 -0.169979 23.5979
558 2 2.2208 10.638 -1.56227 24.8159
560 1 -1.1104 11.9921 0.0514691 26.2074
561 1 -1.1104 9.29209 -2.79256 23.4516
562 1 -1.1104 9.41407 2.84884 23.3121
563 2 2.2208 7.93883 1.34433 24.847
564 1 -1.1104 9.47015 -2.99151 26.1995
565 1 -1.1104 9.22609 2.74869 26.2949
566 2 2.2208 7.85633 -1.49582 22.0699
568 1 -1.1104 9.30304 0.0419289 23.3591
569 1 -1.1104 9.24946 -0.0224868 26.2162
559 2 2.2208 10.5453 4.16238 24.925
567 2 2.2208 7.89551 4.09375 21.9804
9490 2 2.2208 13.5263 1.37567 24.9031
384 1 -1.1104 12.1987 19.5214 23.4985
394 1 -1.1104 0.91798 8.30549 20.7384
414 1 -1.1104 3.65798 8.33502 20.7674
405 1 -1.1104 0.780026 10.9544 20.8162
403 1 -1.1104 0.933848 5.47307 20.8042
419 1 -1.1104 3.79492 5.57622 20.7688
407 1 -1.1104 6.59246 5.44752 20.6996
581 2 2.2208 5.06661 7.05569 22.0786
582 2 2.2208 5.31466 12.6159 22.1725
583 1 -1.1104 0.852547 8.5338 23.4917
585 1 -1.1104 0.937603 8.41914 26.2772
587 1 -1.1104 1.01254 5.53522 23.6722
588 1 -1.1104 1.12726 11.3589 23.5088
591 2 2.2208 5.16086 9.76213 24.9083
592 1 -1.1104 0.920412 5.57758 26.3957
593 1 -1.1104 0.960671 11.0732 26.4025
596 1 -1.1104 3.71908 8.48635 23.5369
597 2 2.2208 2.22018 6.98086 24.9742
598 2 2.2208 2.42747 12.6066 24.9506
599 1 -1.1104 3.75617 8.4724 26.2414
600 2 2.2208 2.36699 9.88367 22.1706
601 1 -1.1104 3.6887 5.79219 23.4675
602 1 -1.1104 3.87617 11.4324 23.5722
603 1 -1.1104 3.55039 5.60864 26.3037
604 1 -1.1104 3.88776 11.2762 26.5135
589 1 -1.1104 6.43902 5.59154 23.4144
584 1 -1.1104 6.59849 8.28415 23.6394
594 1 -1.1104 6.51231 5.42547 26.2859
409 1 -1.1104 6.65112 11.0604 20.6313
586 1 -1.1104 6.48321 8.31937 26.3727
396 1 -1.1104 6.46566 8.32045 20.7967
590 1 -1.1104 6.61315 11.2267 23.4373
595 1 -1.1104 6.55962 11.0225 26.1659
354 2 2.2208 2.31312 1.3508 13.7132
446 1 -1.1104 9.31664 5.42982 20.7509
436 1 -1.1104 12.2398 11.3485 20.6895
429 1 -1.1104 12.1262 8.48657 20.7649
448 1 -1.1104 9.45177 11.2831 20.6703
434 1 -1.1104 11.9324 5.55011 20.6357
441 1 -1.1104 9.3681 8.35615 20.7612
612 1 -1.1104 9.3884 11.2214 26.5497
613 1 -1.1104 9.20722 5.49476 26.2179
614 1 -1.1104 9.39175 11.1358 23.5508
615 1 -1.1104 9.14192 5.69176 23.4283
616 2 2.2208 7.92999 9.86637 22.1165
617 1 -1.1104 9.37966 8.47871 26.4618
618 2 2.2208 7.92624 12.5651 24.8465
619 2 2.2208 7.81168 6.94807 24.9261
620 2 2.2208 10.6751 6.92169 22.0973
621 2 2.2208 10.8167 12.5645 22.0653
622 1 -1.1104 12.1431 8.40919 23.5523
623 1 -1.1104 12.1836 8.41263 26.298
624 1 -1.1104 12.0233 5.43319 23.6583
625 1 -1.1104 12.3037 11.2719 23.4783
626 2 2.2208 10.68 9.77999 25.0019
627 1 -1.1104 12.0771 5.56489 26.2868
628 1 -1.1104 12.2354 11.193 26.3547
629 1 -1.1104 9.31289 8.38793 23.6195
385 1 -1.1104 12.1899 13.8963 26.2357
9489 2 2.2208 13.4552 -1.46708 22.0064
637 1 -1.1104 6.61883 13.9625 26.2228
9275 2 2.2208 -0.291326 15.3849 24.8131
464 1 -1.1104 6.42331 19.6816 20.6402
643 1 -1.1104 6.6399 19.8234 23.4177
639 1 -1.1104 6.6011 16.7185 26.2411
477 1 -1.1104 4.00204 13.8675 20.7725
646 1 -1.1104 6.70354 14.0407 23.421
470 1 -1.1104 1.07869 16.7424 20.8172
349 2 2.2208 2.42753 21.0084 22.1939
350 1 -1.1104 3.79271 16.9092 23.4575
485 1 -1.1104 0.956001 16.8998 23.5301
512 1 -1.1104 3.89579 13.8599 26.2279
514 1 -1.1104 3.65316 16.8074 26.2846
634 2 2.2208 2.50066 18.3136 24.8309
635 2 2.2208 2.51078 15.4418 22.0459
636 1 -1.1104 3.974 19.6415 23.6834
638 1 -1.1104 3.73928 14.1153 23.4407
640 1 -1.1104 1.03249 19.6825 26.2875
641 1 -1.1104 1.00166 16.7707 26.2986
642 1 -1.1104 1.03853 13.9134 26.3786
644 2 2.2208 5.18972 21.1157 25.0024
645 2 2.2208 5.03902 15.4947 24.8446
647 1 -1.1104 1.01855 19.705 23.5056
648 1 -1.1104 1.02926 14.1506 23.4018
649 2 2.2208 5.25946 18.2115 22.1813
650 1 -1.1104 3.86382 19.8138 26.417
486 1 -1.1104 6.56775 16.9458 23.6055
462 1 -1.1104 6.67035 13.9703 20.7502
550 1 -1.1104 9.4439 13.9929 23.6444
9469 2 2.2208 13.5681 15.4575 21.9721
9200 2 2.2208 13.7005 12.6034 19.3313
548 2 2.2208 10.7388 21.0225 24.9145
577 1 -1.1104 6.56269 19.6291 26.3413
610 1 -1.1104 9.46616 16.7925 26.0567
543 1 -1.1104 12.2575 16.8061 23.4367
544 2 2.2208 10.8765 15.3287 24.8608
9473 2 2.2208 13.5512 20.8627 22.1345
515 1 -1.1104 11.9989 19.7055 26.447
551 1 -1.1104 9.48877 19.5745 23.5654
609 1 -1.1104 9.2809 16.8663 23.4661
608 2 2.2208 7.95386 21.0841 22.1849
580 2 2.2208 8.10298 15.3992 22.1543
504 1 -1.1104 9.41986 14.0464 20.7989
632 2 2.2208 10.8389 12.5679 27.7458
9483 2 2.2208 -0.288642 1.22483 27.5852
574 2 2.2208 10.7604 -4.18643 27.6975
9488 2 2.2208 13.5106 -1.37215 27.6285
541 2 2.2208 2.33289 -1.50007 27.5601
570 2 2.2208 10.6709 1.32338 27.6341
9491 2 2.2208 13.3766 4.12194 27.5829
451 2 2.2208 8.02219 12.4844 13.703
9197 2 2.2208 13.526 6.98554 13.7588
607 2 2.2208 5.26584 12.5319 27.7163
387 2 2.2208 10.7551 -1.4881 13.8417
306 2 2.2208 10.7311 18.1633 27.6364
346 2 2.2208 8.06809 15.4255 27.6893
310 2 2.2208 10.7173 21.0128 13.6538
450 2 2.2208 10.6874 9.73603 13.7859
651 2 2.2208 5.14554 23.8392 5.31588
652 2 2.2208 5.33757 29.4742 5.25649
653 1 -1.1104 0.970837 25.2156 1.05929
654 1 -1.1104 0.996478 25.3431 3.8508
655 1 -1.1104 0.945465 22.446 0.965446
656 1 -1.1104 0.998988 27.908 1.07656
657 2 2.2208 5.17508 26.6534 2.51103
658 1 -1.1104 0.959632 22.43 3.9211
659 1 -1.1104 0.97208 28.029 3.86211
660 1 -1.1104 3.72251 25.1837 1.17365
661 2 2.2208 2.37499 23.8911 2.55428
662 2 2.2208 2.27378 29.3633 2.5332
663 1 -1.1104 3.75082 25.109 3.94656
664 2 2.2208 2.4711 26.5966 5.2739
665 1 -1.1104 3.63427 22.389 1.10459
666 1 -1.1104 3.8163 28.0272 1.07104
667 1 -1.1104 3.82003 22.517 3.7883
668 1 -1.1104 3.78651 28.0126 3.82534
672 1 -1.1104 6.60603 25.2032 1.08026
675 1 -1.1104 6.59576 27.8856 1.17244
673 1 -1.1104 6.67776 25.1301 3.92796
9762 2 2.2208 13.6264 40.5296 8.07092
794 1 -1.1104 0.931386 22.4263 6.66758
797 1 -1.1104 6.7494 28.195 6.7954
795 1 -1.1104 1.23487 27.9274 6.64522
798 1 -1.1104 3.80797 25.3559 6.62147
972 2 2.2208 5.19024 23.7361 -0.304192
941 2 2.2208 8.00377 46.3351 8.09465
9813 2 2.2208 13.6026 26.5605 5.27528
676 1 -1.1104 6.71819 22.3137 3.8079
677 1 -1.1104 6.62598 27.9576 3.95839
674 1 -1.1104 6.34519 22.2548 1.00097
928 1 -1.1104 6.5289 42.0582 9.50112
678 2 2.2208 10.8147 23.8082 5.24835
679 2 2.2208 10.9134 29.4501 5.28173
680 1 -1.1104 12.2454 25.149 1.13917
681 1 -1.1104 12.2105 25.2015 4.00611
682 1 -1.1104 12.112 22.2382 1.01557
683 1 -1.1104 12.367 28.0524 1.33532
684 2 2.2208 10.8191 26.6431 2.65173
685 1 -1.1104 12.3143 22.3881 3.97889
686 1 -1.1104 12.2378 27.9717 3.97261
687 1 -1.1104 9.39608 25.1786 0.939861
688 2 2.2208 8.01228 23.7987 2.39688
689 2 2.2208 7.95752 29.3394 2.42997
690 1 -1.1104 9.53126 25.1273 3.72831
691 2 2.2208 8.01135 26.5575 5.24302
692 1 -1.1104 9.32213 22.4949 1.20795
693 1 -1.1104 9.38131 27.9761 1.13467
694 1 -1.1104 9.36618 22.525 3.85739
695 1 -1.1104 9.34029 27.9918 3.92762
830 1 -1.1104 9.42761 27.923 6.68253
9649 2 2.2208 13.5596 23.8561 8.12464
828 1 -1.1104 9.31362 25.2139 6.61987
826 1 -1.1104 12.2383 22.363 6.6335
827 1 -1.1104 12.2083 28.2475 6.88804
9822 2 2.2208 13.6138 40.6242 2.52254
699 2 2.2208 5.24957 35.0007 5.24237
700 1 -1.1104 0.867995 30.7148 1.25226
701 1 -1.1104 0.956064 36.503 1.0415
703 1 -1.1104 1.09145 30.8167 3.95149
704 1 -1.1104 0.95965 36.4927 3.81861
706 1 -1.1104 1.00393 33.6224 1.08105
707 2 2.2208 5.10066 32.1693 2.49919
708 2 2.2208 5.22052 37.7304 2.50729
709 1 -1.1104 0.946246 33.72 3.85553
711 1 -1.1104 3.66683 30.8744 1.157
712 1 -1.1104 3.78529 36.4434 1.10948
713 2 2.2208 2.41267 35.064 2.50752
714 1 -1.1104 3.87073 30.8761 3.9843
715 1 -1.1104 3.73665 36.3568 3.828
716 2 2.2208 2.449 32.1814 5.36152
717 2 2.2208 2.26436 37.8353 5.22761
718 1 -1.1104 3.87652 33.5992 1.12374
719 1 -1.1104 3.82912 33.6426 3.81376
723 1 -1.1104 6.51776 30.7058 1.06528
1531 1 -1.1104 9.29361 47.7955 9.38044
710 1 -1.1104 6.70482 33.559 3.8543
724 1 -1.1104 6.66132 30.8509 3.8041
857 1 -1.1104 3.91791 33.7639 6.71306
851 1 -1.1104 6.78273 30.8837 6.64346
9808 2 2.2208 13.6127 43.4856 10.862
949 2 2.2208 5.25386 46.2808 -0.378465
9854 2 2.2208 13.6597 43.4834 -0.341264
705 1 -1.1104 6.74974 36.3818 3.75683
725 1 -1.1104 6.46754 33.7011 1.15905
702 1 -1.1104 6.65707 36.4186 1.03145
726 2 2.2208 10.8742 35.0764 5.20228
727 1 -1.1104 12.3356 30.9262 0.963707
728 1 -1.1104 12.3184 36.3047 1.12791
729 1 -1.1104 12.2447 30.7934 3.76204
730 1 -1.1104 12.2376 36.5716 3.9193
731 1 -1.1104 12.2727 33.5527 1.18018
732 2 2.2208 10.7962 32.1262 2.42958
733 2 2.2208 10.8737 37.8365 2.39685
734 1 -1.1104 12.2415 33.6386 3.95346
735 1 -1.1104 9.38434 30.8894 1.05444
736 1 -1.1104 9.4194 36.3176 0.783815
737 2 2.2208 8.12682 35.0797 2.27006
738 1 -1.1104 9.48353 30.729 3.86785
739 1 -1.1104 9.33974 36.3659 3.57413
740 2 2.2208 8.16425 32.2932 5.23362
741 2 2.2208 8.04852 37.8827 5.09178
742 1 -1.1104 9.4812 33.698 1.04873
743 1 -1.1104 9.48692 33.5539 3.81774
887 1 -1.1104 9.49393 36.4793 6.48786
886 1 -1.1104 9.5923 30.83 6.72743
888 1 -1.1104 9.34419 33.7038 6.64033
885 1 -1.1104 12.2786 33.7463 6.7105
918 1 -1.1104 6.52592 39.1974 12.1064