ITEM: TIMESTEP
20000
ITEM: NUMBER OF ATOMS
17910
ITEM: BOX BOUNDS pp pp pp
-3.5017195512936677e-01 2.7690171955129781e+01
-4.2437916896327676e+00 3.3232379168963575e+02
-3.5829386026542953e-01 2.7698293860265402e+01
ITEM: ATOMS id type q x y z
1 2 2.2208 5.40974 1.27647 5.35642
2 1 -1.1104 1.10301 -3.06851 0.982193
3 1 -1.1104 1.18637 2.53199 1.02451
6 1 -1.1104 1.04591 -2.99858 3.90456
7 1 -1.1104 1.15103 2.5917 3.8078
10 1 -1.1104 1.05929 -0.302642 1.06626
12 2 2.2208 5.29557 -1.55582 2.43433
13 2 2.2208 5.20418 4.02626 2.47712
14 1 -1.1104 1.22408 -0.266521 3.91283
16 1 -1.1104 3.85143 -3.10407 0.964331
17 1 -1.1104 3.8117 2.5889 0.991529
18 2 2.2208 2.5248 1.04389 2.56862
19 1 -1.1104 3.77992 -3.00486 3.81462
20 1 -1.1104 3.91486 2.5574 3.89518
21 2 2.2208 2.57918 -1.64395 5.20788
22 2 2.2208 2.43346 3.96954 5.29138
23 1 -1.1104 3.81134 -0.14274 1.10736
24 1 -1.1104 3.99386 -0.353359 3.95854
170 1 -1.1104 1.24152 -0.186209 6.59427
172 1 -1.1104 3.93078 -2.93028 6.65437
173 1 -1.1104 3.93092 2.60065 6.64968
167 1 -1.1104 1.13087 2.58427 6.83923
607 2 2.2208 5.24223 12.3858 -0.258262
309 2 2.2208 5.33392 20.6653 13.6804
174 1 -1.1104 4.03957 -0.0672652 6.75307
171 1 -1.1104 6.74944 -0.195207 6.6935
9472 2 2.2208 -0.271255 6.8622 -0.343774
28 2 2.2208 2.45067 -4.29265 2.45711
166 1 -1.1104 1.11338 -3.09571 6.63712
387 2 2.2208 10.8505 -1.60867 13.6771
8 1 -1.1104 6.67524 -2.98376 3.86801
168 1 -1.1104 6.71633 -2.91813 6.61056
9 1 -1.1104 6.7654 2.70663 3.70889
15 1 -1.1104 6.6741 -0.228162 3.84302
5 1 -1.1104 6.61848 2.53643 1.03228
4 1 -1.1104 6.65164 -3.02311 1.02938
11 1 -1.1104 6.70706 -0.319239 0.947985
31 2 2.2208 10.9177 1.20613 5.20416
32 1 -1.1104 12.2576 -3.16873 0.946699
33 1 -1.1104 12.2072 2.72745 1.01184
34 1 -1.1104 12.1413 -3.21188 3.85753
35 1 -1.1104 12.1686 2.53961 3.89345
36 1 -1.1104 12.17 -0.216045 1.07326
37 2 2.2208 10.7763 -1.70895 2.57169
38 2 2.2208 10.8587 4.00981 2.50968
39 1 -1.1104 12.3421 -0.408949 3.73903
40 1 -1.1104 9.37736 -3.01006 1.00023
41 1 -1.1104 9.41982 2.56573 1.11446
42 2 2.2208 7.9549 1.20395 2.49326
43 1 -1.1104 9.41381 -3.17924 3.80257
44 1 -1.1104 9.46499 2.60131 3.94149
45 2 2.2208 8.14065 -1.57084 5.34948
46 2 2.2208 8.24331 4.06882 5.3168
47 1 -1.1104 9.48943 -0.303439 1.04595
48 1 -1.1104 9.57522 -0.235815 4.02386
205 1 -1.1104 12.1945 -3.0793 6.65272
207 1 -1.1104 12.3424 -0.241927 6.58508
8992 2 2.2208 -0.252674 6.67242 10.843
210 1 -1.1104 9.4388 -0.145168 6.72018
208 1 -1.1104 9.52396 -2.92477 6.58264
209 1 -1.1104 9.72071 2.57633 6.81581
169 1 -1.1104 6.73806 2.75524 6.568
206 1 -1.1104 12.548 2.73318 6.64088
54 2 2.2208 5.2232 6.7804 5.38947
55 2 2.2208 5.25572 12.412 5.31819
56 1 -1.1104 1.26302 8.20167 1.02711
58 1 -1.1104 1.03323 8.1334 3.85949
60 1 -1.1104 1.16768 5.50094 1.09659
61 1 -1.1104 1.18012 11.003 1.25348
66 2 2.2208 5.37513 9.59051 2.53865
67 1 -1.1104 1.07074 5.37362 3.85238
68 1 -1.1104 1.08215 10.9859 3.94621
71 1 -1.1104 4.08251 8.26354 1.25067
72 2 2.2208 2.56019 6.78422 2.4351
73 2 2.2208 2.48397 12.4127 2.54826
74 1 -1.1104 3.94416 8.22407 3.91642
75 2 2.2208 2.40252 9.57954 5.39319
76 1 -1.1104 3.934 5.43414 0.923148
77 1 -1.1104 4.0282 10.9472 1.08931
79 1 -1.1104 3.75236 5.45163 3.88132
80 1 -1.1104 3.8375 10.9789 3.98639
62 1 -1.1104 1.02571 11.0186 6.68064
239 1 -1.1104 3.90907 5.42331 6.73809
78 1 -1.1104 3.86653 10.901 6.68216
234 1 -1.1104 1.14413 8.14826 6.82264
9082 2 2.2208 -0.311202 15.1142 8.03652
572 2 2.2208 8.06164 3.99921 -0.286039
9070 2 2.2208 -0.307076 6.74941 5.3223
9072 2 2.2208 -0.29483 12.5711 5.15756
570 2 2.2208 10.7528 1.10535 -0.340925
63 1 -1.1104 6.65378 5.51355 1.01192
69 1 -1.1104 6.73245 5.45182 3.84062
57 1 -1.1104 6.73219 8.31636 1.0788
64 1 -1.1104 6.76676 11.1772 1.14859
59 1 -1.1104 6.70964 8.14432 3.9307
70 1 -1.1104 6.57347 11.0271 3.9403
84 2 2.2208 10.9194 6.8928 5.23845
85 2 2.2208 10.8629 12.389 5.39014
86 1 -1.1104 12.3185 8.25065 1.12504
87 1 -1.1104 12.2344 8.31533 4.10735
88 1 -1.1104 12.3374 5.44678 1.07443
89 1 -1.1104 12.4968 10.9779 1.1463
91 2 2.2208 10.931 9.64364 2.46504
92 1 -1.1104 12.3422 5.47195 3.89133
93 1 -1.1104 12.3546 11.1476 3.93633
94 1 -1.1104 9.5355 8.19694 1.09962
95 2 2.2208 8.06339 6.83661 2.56931
96 2 2.2208 8.24357 12.4255 2.53471
97 1 -1.1104 9.591 8.28815 3.94943
98 2 2.2208 8.21501 9.59449 5.43649
99 1 -1.1104 9.49943 5.38765 1.04692
100 1 -1.1104 9.65291 11.112 1.14714
102 1 -1.1104 9.50944 5.46665 3.84882
103 1 -1.1104 9.49942 11.1133 3.90535
235 1 -1.1104 6.76391 8.20492 6.83021
266 1 -1.1104 12.235 5.49399 6.87612
269 1 -1.1104 9.45434 5.38183 6.63459
267 1 -1.1104 9.48171 8.17962 6.86184
9071 2 2.2208 -0.154299 9.53364 2.38792
101 1 -1.1104 9.43248 10.9787 6.84729
265 1 -1.1104 12.31 8.16979 6.81286
106 2 2.2208 5.14656 18.0926 5.25642
107 1 -1.1104 1.11143 13.8157 0.927207
109 1 -1.1104 1.0082 19.502 1.02158
113 1 -1.1104 0.954633 13.8042 3.6705
114 1 -1.1104 0.967384 19.4011 3.78157
116 1 -1.1104 1.14612 16.6827 1.04835
119 2 2.2208 5.19661 15.136 2.48029
120 2 2.2208 5.06507 20.8592 2.31573
121 1 -1.1104 1.0844 16.6186 3.93847
123 1 -1.1104 3.80179 13.8048 1.03742
125 1 -1.1104 3.73732 19.4502 0.981954
127 2 2.2208 2.40467 18.0291 2.38686
128 1 -1.1104 3.90357 13.747 3.86609
129 1 -1.1104 3.88771 19.4556 3.99885
130 2 2.2208 2.33419 15.0977 5.15418
131 2 2.2208 2.41989 20.8126 5.20229
132 1 -1.1104 3.87883 16.5978 1.01814
134 1 -1.1104 3.83307 16.6804 3.77507
124 1 -1.1104 3.78203 13.791 6.67232
126 1 -1.1104 3.91577 19.5816 6.62168
111 1 -1.1104 6.53814 14.0603 6.65762
133 1 -1.1104 3.75029 16.6887 6.54873
8839 2 2.2208 13.6314 20.763 5.26067
140 1 -1.1104 6.78544 16.6062 1.08616
9079 2 2.2208 -0.314274 3.92771 7.97062
108 1 -1.1104 1.09879 13.756 6.59213
8791 2 2.2208 13.5554 9.69551 5.41859
110 1 -1.1104 6.68405 13.7459 1.06678
139 1 -1.1104 6.62772 19.5316 3.75207
112 1 -1.1104 6.6751 19.4883 6.67445
154 1 -1.1104 9.52581 13.6511 6.65775
122 1 -1.1104 6.67124 16.7325 3.84416
115 1 -1.1104 6.76191 13.8506 3.8423
138 1 -1.1104 6.514 19.458 0.981905
141 2 2.2208 10.8445 18.0208 5.27353
142 1 -1.1104 12.2599 13.8616 0.977589
144 1 -1.1104 12.2728 19.4898 1.24067
146 1 -1.1104 12.3579 13.8663 4.03893
147 1 -1.1104 12.1371 19.3109 3.86383
148 1 -1.1104 12.3124 16.8314 1.03325
150 2 2.2208 10.9612 15.2862 2.39606
151 2 2.2208 10.7337 20.7465 2.46594
152 1 -1.1104 12.3429 16.5574 3.82866
153 1 -1.1104 9.53844 13.8673 1.07246
155 1 -1.1104 9.32492 19.3131 0.989212
157 2 2.2208 7.96043 17.9502 2.54379
158 1 -1.1104 9.5583 13.7838 3.8903
159 1 -1.1104 9.46853 19.4374 3.88267
160 2 2.2208 8.02841 15.2484 5.25374
161 2 2.2208 7.99401 20.8931 5.1532
162 1 -1.1104 9.48315 16.637 1.12097
164 1 -1.1104 9.50421 16.7206 3.95253
149 1 -1.1104 12.2609 16.6237 6.69103
143 1 -1.1104 12.2032 13.7975 6.77189
163 1 -1.1104 9.32823 16.5675 6.71149
118 1 -1.1104 6.52668 16.7814 6.55051
156 1 -1.1104 9.46456 19.4265 6.61711
145 1 -1.1104 12.192 19.4458 6.72445
8897 2 2.2208 13.756 3.97857 11.0264
9080 2 2.2208 -0.371702 -1.64293 7.97314
175 2 2.2208 5.25422 1.25709 10.9492
176 1 -1.1104 0.943174 -3.05432 12.2634
177 1 -1.1104 1.20739 2.58847 12.2816
180 1 -1.1104 1.1267 -2.98359 9.39142
181 1 -1.1104 1.0711 2.60262 9.56272
184 1 -1.1104 0.888203 -0.276425 12.1631
186 2 2.2208 5.27772 -1.62845 8.17682
187 2 2.2208 5.23785 4.08401 8.12418
188 1 -1.1104 1.01477 -0.343688 9.47139
190 1 -1.1104 3.90971 -2.91589 12.2365
191 1 -1.1104 4.05874 2.58164 12.337
192 2 2.2208 2.55066 1.12562 8.23133
193 1 -1.1104 3.8917 -3.08674 9.45704
194 1 -1.1104 3.8357 2.48254 9.55691
195 2 2.2208 2.46615 -1.62959 10.8482
197 1 -1.1104 3.82693 -0.167838 12.3738
198 1 -1.1104 3.93497 -0.299584 9.64095
196 2 2.2208 2.4688 4.00853 11.0778
9084 2 2.2208 -0.293826 20.7755 8.04289
9063 2 2.2208 13.627 17.9963 8.07543
185 1 -1.1104 6.81152 -0.0947989 12.1148
311 2 2.2208 8.12583 18.0604 13.5852
49 1 -1.1104 12.1903 19.5271 9.40852
178 1 -1.1104 6.52698 -2.90749 12.1735
183 1 -1.1104 6.60216 2.70163 9.44786
179 1 -1.1104 6.74419 2.79005 12.2176
182 1 -1.1104 6.64061 -2.99328 9.42386
189 1 -1.1104 6.57954 -0.101839 9.46336
211 2 2.2208 10.7896 1.29741 10.9087
212 1 -1.1104 12.3375 -2.93465 12.3542
213 1 -1.1104 12.3088 2.47246 12.2951
214 1 -1.1104 12.3466 -2.93747 9.57296
215 1 -1.1104 12.2576 2.63817 9.31642
216 1 -1.1104 12.4265 -0.386689 12.1883
217 2 2.2208 11.0042 -1.52907 8.04224
218 2 2.2208 10.8131 4.02749 8.07401
219 1 -1.1104 12.2168 -0.269862 9.50719
220 1 -1.1104 9.38513 -2.92855 12.3707
221 1 -1.1104 9.53281 2.59312 12.245
222 2 2.2208 8.08883 1.29237 8.07905
223 1 -1.1104 9.51084 -2.8542 9.40673
224 1 -1.1104 9.43392 2.69472 9.49989
225 2 2.2208 7.97375 -1.45494 10.7148
226 2 2.2208 8.18145 4.07256 10.9119
227 1 -1.1104 9.4836 -0.0060866 12.1609
228 1 -1.1104 9.43305 -0.170808 9.4648
9075 2 2.2208 -0.318032 15.1406 2.38207
289 1 -1.1104 6.66247 16.6583 9.42215
165 2 2.2208 8.09197 20.9315 10.8917
238 1 -1.1104 3.95495 8.1618 6.65601
236 1 -1.1104 1.06845 5.3288 6.5548
487 2 2.2208 5.37547 15.2542 13.6859
240 2 2.2208 5.35405 6.87352 10.8482
241 2 2.2208 5.25126 12.5405 10.8543
242 1 -1.1104 1.11933 8.09579 12.3085
244 1 -1.1104 1.14206 8.2296 9.46112
246 1 -1.1104 1.00981 5.31113 12.1872
247 1 -1.1104 1.23599 10.903 12.215
250 2 2.2208 5.36537 9.61782 8.08341
251 1 -1.1104 1.11532 5.36846 9.31834
252 1 -1.1104 1.14777 10.9378 9.38708
255 1 -1.1104 3.82633 8.20139 12.2231
256 2 2.2208 2.47816 6.78149 8.11391
257 2 2.2208 2.4203 12.3907 8.07028
258 1 -1.1104 4.0978 8.29196 9.42608
259 2 2.2208 2.41299 9.5663 10.8676
260 1 -1.1104 3.94518 5.41944 12.3264
261 1 -1.1104 3.97281 11.1204 12.3826
262 1 -1.1104 3.98154 5.45419 9.49163
263 1 -1.1104 3.86454 11.0236 9.55438
26 1 -1.1104 12.351 13.9855 12.2217
9064 2 2.2208 -0.29541 1.30801 5.27144
245 1 -1.1104 6.87482 8.3281 9.57152
248 1 -1.1104 6.85036 5.5941 12.2868
90 1 -1.1104 12.1755 10.9617 6.8218
65 1 -1.1104 6.65945 11.0466 6.6468
237 1 -1.1104 6.68074 5.49429 6.8304
233 1 -1.1104 6.64058 16.6621 12.1675
25 2 2.2208 10.8555 18.1203 10.8456
249 1 -1.1104 6.74687 11.0539 12.3205
254 1 -1.1104 6.595 11.165 9.46251
243 1 -1.1104 6.79168 8.22492 12.2827
253 1 -1.1104 6.76081 5.41702 9.43452
264 1 -1.1104 9.32098 11.02 9.53445
268 1 -1.1104 9.46909 5.29318 9.53937
270 1 -1.1104 9.47437 11.1617 12.2782
271 1 -1.1104 9.64112 5.44729 12.3006
272 2 2.2208 8.1481 9.58911 10.9323
273 1 -1.1104 9.67978 8.17259 9.67063
274 2 2.2208 8.04805 12.4835 8.11036
275 2 2.2208 8.10399 6.73664 8.15584
276 2 2.2208 10.9526 6.89409 10.9992
277 2 2.2208 10.9899 12.4934 10.9279
278 1 -1.1104 12.2261 8.22773 12.2673
279 1 -1.1104 12.4581 8.3468 9.70162
280 1 -1.1104 12.3581 5.33029 12.2892
281 1 -1.1104 12.3058 11.1559 12.3443
282 2 2.2208 10.9387 9.60715 8.28051
283 1 -1.1104 12.2699 5.42024 9.68924
284 1 -1.1104 12.2876 11.1046 9.55706
285 1 -1.1104 9.53097 8.30324 12.4268
200 1 -1.1104 9.43532 16.7211 9.57178
30 1 -1.1104 12.466 13.8961 9.51412
53 2 2.2208 10.9595 15.2623 8.07678
513 2 2.2208 10.7839 15.324 13.5836
302 1 -1.1104 1.12016 19.3166 6.6084
117 1 -1.1104 1.06059 16.4422 6.70134
9065 2 2.2208 -0.218016 4.04345 2.40523
201 2 2.2208 2.56675 15.1908 10.9114
204 2 2.2208 2.4119 20.6494 10.9052
229 1 -1.1104 3.96651 16.6138 12.1816
230 1 -1.1104 1.27844 16.4882 12.3375
286 1 -1.1104 4.09442 19.2601 12.4653
287 1 -1.1104 3.95274 13.8637 12.3956
291 1 -1.1104 1.01524 19.2433 9.46829
292 1 -1.1104 1.103 16.4136 9.45889
293 2 2.2208 5.35197 20.8876 8.0997
294 1 -1.1104 0.992329 13.6954 9.35928
295 2 2.2208 5.09945 15.2728 8.00959
298 1 -1.1104 1.22247 19.2264 12.231
299 1 -1.1104 1.2135 13.6852 12.3139
300 2 2.2208 5.32881 18.014 10.8577
301 1 -1.1104 3.79131 19.4045 9.59561
303 2 2.2208 2.5356 17.9772 8.11343
304 1 -1.1104 3.92998 16.6409 9.43248
305 1 -1.1104 3.76424 13.8512 9.53489
290 1 -1.1104 6.57115 13.8959 9.46998
9062 2 2.2208 13.6186 15.3067 10.8162
9024 2 2.2208 13.6331 20.931 10.8271
135 1 -1.1104 9.40924 13.763 9.62328
297 1 -1.1104 6.72655 13.9181 12.24
81 2 2.2208 10.7808 20.8457 7.95438
296 1 -1.1104 6.7375 19.3483 12.2998
83 1 -1.1104 9.52025 13.9537 12.2875
137 2 2.2208 8.02224 15.3482 10.8075
288 1 -1.1104 6.65888 19.4053 9.44719
82 1 -1.1104 12.1198 16.7816 9.36031
50 1 -1.1104 12.3653 16.6723 12.1451
105 2 2.2208 8.08031 18.0688 8.11849
104 1 -1.1104 9.45548 19.4623 12.198
27 1 -1.1104 12.1697 19.4177 12.3144
199 1 -1.1104 9.44776 16.6369 12.2713
136 1 -1.1104 9.41882 19.6603 9.42192
9068 2 2.2208 13.6945 -1.68293 5.1593
9083 2 2.2208 -0.248988 17.7834 10.8964
9476 2 2.2208 -0.374409 -1.67059 13.6416
9086 2 2.2208 13.6547 1.08547 8.05708
9312 2 2.2208 -0.260873 15.0046 13.6532
306 2 2.2208 10.8344 18.0728 -0.295457
450 2 2.2208 10.9505 9.68555 13.6134
9096 2 2.2208 13.6858 20.6127 -0.348586
353 2 2.2208 5.23913 -1.5634 13.6099
633 2 2.2208 5.22498 18.0999 -0.348792
542 2 2.2208 2.58278 3.93915 -0.350687
9269 2 2.2208 13.6323 9.64649 -0.338758
346 2 2.2208 8.0882 15.2398 -0.294478
632 2 2.2208 10.9274 12.419 -0.388581
611 2 2.2208 2.56531 15.1877 -0.338124
605 2 2.2208 5.39311 6.87729 -0.405286
307 2 2.2208 7.95274 20.8167 -0.354879
606 2 2.2208 2.62088 9.6509 -0.282554
9483 2 2.2208 -0.33987 1.34601 -0.375844
313 2 2.2208 5.47114 1.29275 16.617
314 1 -1.1104 1.07073 -2.91788 17.8135
315 1 -1.1104 1.20535 2.62827 17.8677
318 1 -1.1104 0.919542 -3.09855 15.1035
320 1 -1.1104 1.15137 2.50929 15.0903
326 1 -1.1104 0.988804 -0.251665 17.9113
328 2 2.2208 5.25123 -1.61355 19.2518
330 1 -1.1104 1.1566 -0.373808 14.9046
334 1 -1.1104 3.76852 -2.96409 17.7888
335 1 -1.1104 3.96939 2.59302 17.9095
336 2 2.2208 2.35376 1.13162 19.3212
337 1 -1.1104 3.66297 -3.0834 14.8852
339 1 -1.1104 3.92056 2.53951 15.1124
341 2 2.2208 2.39981 -1.74113 16.4573
342 2 2.2208 2.58538 3.99 16.4423
343 1 -1.1104 3.90934 -0.138733 17.8846
344 1 -1.1104 4.03068 -0.198352 15.0189
329 2 2.2208 5.2829 4.06133 19.2965
321 1 -1.1104 0.937247 2.41693 20.7286
331 1 -1.1104 1.02338 -0.344664 20.8385
345 1 -1.1104 3.66335 -0.147776 20.7369
319 1 -1.1104 1.06172 -3.14158 20.784
340 1 -1.1104 3.80562 2.61481 20.719
338 1 -1.1104 3.81364 -2.9695 20.5006
325 1 -1.1104 6.54339 2.68598 20.7272
9474 2 2.2208 -0.232351 1.25604 16.5047
9491 2 2.2208 13.645 4.07222 27.6686
9267 2 2.2208 13.5875 6.75804 24.8201
549 1 -1.1104 12.1753 16.5867 26.3391
9167 2 2.2208 -0.29254 3.92292 19.2183
449 2 2.2208 8.26351 6.74916 13.7026
9471 2 2.2208 13.6192 15.2884 27.691
9205 2 2.2208 -0.31213 12.468 16.5804
322 1 -1.1104 6.49071 -2.7271 15.1211
327 1 -1.1104 6.67241 -0.180553 17.8933
324 1 -1.1104 6.73316 2.65856 15.1355
333 1 -1.1104 6.4353 -0.0661413 20.465
332 1 -1.1104 6.86798 -0.142912 15.0654
317 1 -1.1104 6.74431 2.67408 17.8679
316 1 -1.1104 6.58914 -3.02363 17.7838
356 2 2.2208 10.8515 1.15224 16.4998
357 1 -1.1104 12.0828 -3.06984 17.9762
358 1 -1.1104 12.182 2.50369 17.9991
359 1 -1.1104 12.2631 -3.08769 15.2145
361 1 -1.1104 12.2868 2.64663 15.0742
363 1 -1.1104 12.299 -0.300302 17.9606
364 2 2.2208 10.8828 -1.68613 19.4736
366 1 -1.1104 12.4024 -0.332877 15.0134
368 1 -1.1104 9.45678 -3.06483 17.8641
369 1 -1.1104 9.51507 2.51901 17.776
370 2 2.2208 8.01719 1.19669 19.3027
371 1 -1.1104 9.48615 -2.96723 15.1536
373 1 -1.1104 9.5599 2.60974 15.0867
375 2 2.2208 8.23776 -1.53846 16.5794
377 1 -1.1104 9.48982 -0.297548 18.1417
378 1 -1.1104 9.537 -0.186834 15.2099
365 2 2.2208 10.8356 4.11495 19.3812
376 2 2.2208 8.20276 3.94851 16.5346
374 1 -1.1104 9.51345 2.60972 20.7933
372 1 -1.1104 9.34067 -3.07721 20.7878
367 1 -1.1104 12.2 -0.170371 20.7645
379 1 -1.1104 9.39053 -0.140305 20.7851
360 1 -1.1104 12.2026 -3.08056 20.7781
362 1 -1.1104 12.2062 2.57856 20.7982
389 2 2.2208 5.3736 6.88058 16.5969
390 2 2.2208 5.32289 12.4178 16.4621
391 1 -1.1104 1.02021 8.20497 17.8001
393 1 -1.1104 1.12069 8.12678 15.0008
397 1 -1.1104 1.04141 5.40405 17.7249
398 1 -1.1104 1.02373 11.0305 17.892
401 2 2.2208 5.24261 9.53537 19.3509
402 1 -1.1104 1.30651 5.39546 14.995
404 1 -1.1104 1.09223 10.9544 15.0979
410 1 -1.1104 3.80157 8.11529 17.8112
411 2 2.2208 2.41682 6.75713 19.2685
412 2 2.2208 2.49833 12.4552 19.3693
413 1 -1.1104 4.09817 8.23489 15.0589
415 2 2.2208 2.45485 9.62364 16.6539
416 1 -1.1104 3.75297 5.47225 17.8527
417 1 -1.1104 3.86483 11.0196 17.8495
418 1 -1.1104 4.08283 5.27497 15.1105
420 1 -1.1104 3.82948 10.9878 15.173
403 1 -1.1104 1.07485 5.36746 20.6795
405 1 -1.1104 1.04913 11.1701 20.799
414 1 -1.1104 3.68736 8.21493 20.7306
354 2 2.2208 2.51185 1.17226 13.688
419 1 -1.1104 3.84826 5.35396 20.5631
394 1 -1.1104 1.10381 8.22522 20.6868
400 1 -1.1104 6.6645 10.9834 18.0232
9493 2 2.2208 -0.346115 9.5928 24.9055
9418 2 2.2208 -0.33328 6.68931 22.1242
9311 2 2.2208 -0.215768 18.0374 16.415
9486 2 2.2208 -0.260911 4.05034 24.9159
408 1 -1.1104 6.71938 11.1162 15.1694
392 1 -1.1104 6.70531 8.22881 17.8197
395 1 -1.1104 6.85235 8.23217 15.0809
399 1 -1.1104 6.68901 5.42012 17.9804
406 1 -1.1104 6.85499 5.39057 15.0878
425 2 2.2208 11.0439 6.75348 16.5837
426 2 2.2208 10.9218 12.5672 16.4408
427 1 -1.1104 12.4731 8.14274 17.9304
428 1 -1.1104 12.4781 8.10653 15.1017
430 1 -1.1104 12.369 5.37709 17.9769
431 1 -1.1104 12.1991 11.0764 17.7884
432 2 2.2208 10.9744 9.65561 19.2139
433 1 -1.1104 12.4343 5.34386 15.165
435 1 -1.1104 12.2703 10.9605 14.9486
437 1 -1.1104 9.58904 8.1695 17.895
438 2 2.2208 8.00288 6.88292 19.3299
439 2 2.2208 8.16783 12.3617 19.2467
440 1 -1.1104 9.6076 8.25456 15.1188
442 2 2.2208 8.23421 9.61047 16.4072
443 1 -1.1104 9.50096 5.37888 18.0302
444 1 -1.1104 9.52483 11.0191 17.8309
445 1 -1.1104 9.73484 5.44307 15.1526
447 1 -1.1104 9.49242 11.1458 15.0833
407 1 -1.1104 6.62932 5.42646 20.7487
434 1 -1.1104 12.1295 5.54537 20.6635
441 1 -1.1104 9.50107 8.16174 20.7183
429 1 -1.1104 12.2512 8.37493 20.8373
446 1 -1.1104 9.38308 5.28137 20.8114
436 1 -1.1104 12.3313 11.0265 20.5774
578 1 -1.1104 9.43187 13.9584 26.339
579 1 -1.1104 9.61078 19.5814 26.3186
452 2 2.2208 5.21123 17.9612 16.45
453 1 -1.1104 1.1674 13.7841 17.9175
454 1 -1.1104 0.998166 19.3884 17.8239
457 1 -1.1104 1.20648 13.6078 15.1103
459 1 -1.1104 1.11975 19.4627 15.0001
465 1 -1.1104 1.11864 16.5431 17.8299
467 2 2.2208 5.41756 15.1451 19.4328
468 2 2.2208 5.29287 20.8821 19.1881
469 1 -1.1104 1.13292 16.5082 15.1562
473 1 -1.1104 3.89285 13.8276 18.0629
474 1 -1.1104 3.91788 19.274 18.0846
475 2 2.2208 2.36825 18.0246 19.1749
476 1 -1.1104 4.06801 13.755 15.2226
478 1 -1.1104 3.79324 19.2719 15.335
480 2 2.2208 2.63787 15.1693 16.4832
481 2 2.2208 2.41573 20.8254 16.3964
482 1 -1.1104 3.86243 16.6787 17.8937
483 1 -1.1104 3.93997 16.6169 15.0183
484 1 -1.1104 3.94432 16.6162 20.6796
458 1 -1.1104 1.19485 13.9821 20.762
477 1 -1.1104 3.94702 13.7811 20.7013
506 1 -1.1104 9.60316 19.3732 20.6269
470 1 -1.1104 1.09984 16.6517 20.586
9490 2 2.2208 13.614 1.23737 24.9577
9480 2 2.2208 -0.252523 12.553 22.1138
456 1 -1.1104 6.8721 19.4429 17.789
464 1 -1.1104 6.66014 19.2503 20.5229
462 1 -1.1104 6.77292 13.7184 20.7045
466 1 -1.1104 6.62937 16.5811 17.8288
471 1 -1.1104 6.75152 16.6623 14.931
455 1 -1.1104 6.78125 13.8057 17.907
461 1 -1.1104 6.83538 13.9295 15.1481
463 1 -1.1104 6.56402 19.3972 15.045
488 2 2.2208 10.8241 18.0654 16.4108
489 1 -1.1104 12.4573 13.7805 17.8926
490 1 -1.1104 12.2626 19.4466 17.8587
491 1 -1.1104 12.3549 13.8149 15.107
493 1 -1.1104 12.2547 19.4317 15.0686
495 1 -1.1104 12.3088 16.6721 17.9205
496 2 2.2208 10.9262 15.1947 19.3083
497 2 2.2208 10.8656 20.7074 19.1018
498 1 -1.1104 12.092 16.6835 15.0388
500 1 -1.1104 9.44488 13.9043 17.7101
501 1 -1.1104 9.52016 19.3701 17.7629
502 2 2.2208 8.05618 17.9841 19.1279
503 1 -1.1104 9.57832 13.8797 15.067
505 1 -1.1104 9.55046 19.6624 15.0031
507 2 2.2208 8.05698 15.229 16.4512
508 2 2.2208 8.16308 20.8289 16.4472
509 1 -1.1104 9.516 16.6134 17.7499
510 1 -1.1104 9.48206 16.8148 15.0229
494 1 -1.1104 12.3528 19.4247 20.6217
499 1 -1.1104 12.2343 16.681 20.636
511 1 -1.1104 9.50036 16.4801 20.6744
472 1 -1.1104 6.83521 16.49 20.7202
504 1 -1.1104 9.67985 13.7189 20.5609
608 2 2.2208 8.03698 20.7478 22.0463
384 1 -1.1104 12.2013 19.2444 23.5754
351 2 2.2208 10.953 18.0073 22.0273
386 2 2.2208 8.10241 1.18447 13.7025
9271 2 2.2208 13.6439 20.75 16.4303
544 2 2.2208 11.0862 15.2824 24.7835
631 2 2.2208 8.17417 9.72046 27.6691
543 1 -1.1104 12.4463 16.5017 23.3722
323 1 -1.1104 6.78806 -2.86163 20.7851
639 1 -1.1104 6.59845 16.6855 26.3423
541 2 2.2208 2.45345 -1.67122 27.7398
643 1 -1.1104 6.5565 19.3912 23.4343
516 2 2.2208 5.07094 1.15557 21.9452
517 1 -1.1104 0.937958 -3.1568 23.5357
518 1 -1.1104 0.986013 2.50845 23.5078
521 1 -1.1104 1.02539 -2.97728 26.2008
522 1 -1.1104 1.05425 2.73726 26.2906
525 1 -1.1104 0.898747 -0.257375 23.6362
527 2 2.2208 5.12752 -1.58488 24.8506
528 2 2.2208 5.28631 3.99708 25.0184
529 1 -1.1104 0.954329 -0.196714 26.3252
531 1 -1.1104 3.7343 -3.12185 23.5151
532 1 -1.1104 3.81922 2.63591 23.5342
533 2 2.2208 2.3086 1.22574 24.8699
534 1 -1.1104 3.85782 -2.9813 26.3599
535 1 -1.1104 3.76106 2.59365 26.2985
536 2 2.2208 2.46069 -1.64426 22.1529
537 2 2.2208 2.44531 3.89528 21.9658
538 1 -1.1104 3.76643 -0.179293 23.4663
539 1 -1.1104 3.79418 -0.132442 26.2404
9478 2 2.2208 13.6442 -1.63693 16.5712
548 2 2.2208 10.866 20.8133 24.878
9239 2 2.2208 -0.327616 9.71264 19.3116
523 1 -1.1104 6.50486 -3.03591 26.2592
519 1 -1.1104 6.56107 -3.01191 23.5787
526 1 -1.1104 6.49469 -0.241652 23.4148
524 1 -1.1104 6.66979 2.57958 26.2811
520 1 -1.1104 6.47174 2.55596 23.3817
530 1 -1.1104 6.60227 -0.279837 26.2081
552 2 2.2208 10.8191 1.19202 22.1163
553 1 -1.1104 12.2829 -2.97809 23.5571
554 1 -1.1104 12.2784 2.60424 23.529
555 1 -1.1104 12.2126 -2.97209 26.2052
556 1 -1.1104 12.0898 2.5791 26.3587
557 1 -1.1104 12.2079 -0.247713 23.5639
558 2 2.2208 10.778 -1.70177 24.8601
560 1 -1.1104 12.1942 -0.25074 26.3574
561 1 -1.1104 9.35578 -3.33068 23.6566
562 1 -1.1104 9.37713 2.32591 23.6375
563 2 2.2208 7.96391 0.999373 24.8459
564 1 -1.1104 9.40624 -3.00438 26.3408
565 1 -1.1104 9.41807 2.47449 26.407
566 2 2.2208 7.91859 -1.5472 22.14
568 1 -1.1104 9.35382 -0.322709 23.6023
569 1 -1.1104 9.43053 -0.289124 26.3582
559 2 2.2208 10.7808 3.9439 24.8373
567 2 2.2208 7.88666 3.93516 22.1018
9473 2 2.2208 13.66 20.8697 22.1037
308 2 2.2208 2.47163 17.9528 13.711
486 1 -1.1104 6.63755 16.4851 23.5957
609 1 -1.1104 9.54385 16.7706 23.5585
421 1 -1.1104 3.82056 11.0101 20.7006
409 1 -1.1104 6.66195 10.9392 20.8017
551 1 -1.1104 9.43328 19.3788 23.4174
610 1 -1.1104 9.43652 16.8355 26.4219
581 2 2.2208 5.29521 6.73899 22.0386
582 2 2.2208 5.20928 12.3739 22.0828
583 1 -1.1104 0.917893 8.18962 23.5124
585 1 -1.1104 1.0574 8.23842 26.4007
587 1 -1.1104 1.22327 5.32245 23.4273
588 1 -1.1104 1.11887 11.0253 23.682
591 2 2.2208 5.33965 9.79212 24.8839
592 1 -1.1104 1.15695 5.30153 26.3755
593 1 -1.1104 1.20245 11.0453 26.4693
596 1 -1.1104 3.65348 8.25186 23.5741
597 2 2.2208 2.37472 6.73606 24.8427
598 2 2.2208 2.4478 12.4942 25.0029
599 1 -1.1104 3.97014 8.31816 26.4834
600 2 2.2208 2.39673 9.64279 22.1964
601 1 -1.1104 3.94292 5.44371 23.4588
602 1 -1.1104 3.86615 10.95 23.5795
603 1 -1.1104 3.85818 5.24277 26.2001
604 1 -1.1104 3.82857 11.1179 26.3556
9313 2 2.2208 -0.218698 17.9537 27.6377
396 1 -1.1104 6.61799 8.22001 20.6428
595 1 -1.1104 6.69303 11.1882 26.2562
380 1 -1.1104 12.3991 13.8314 23.3179
589 1 -1.1104 6.77898 5.3024 23.5922
448 1 -1.1104 9.52385 10.9882 20.627
492 1 -1.1104 12.399 13.7796 20.609
584 1 -1.1104 6.53948 8.23295 23.5196
586 1 -1.1104 6.74164 8.36618 26.3691
594 1 -1.1104 6.77964 5.6056 26.3061
590 1 -1.1104 6.72232 11.1314 23.4346
612 1 -1.1104 9.46685 11.1833 26.3461
613 1 -1.1104 9.52453 5.33998 26.3274
614 1 -1.1104 9.40636 11.0191 23.4077
615 1 -1.1104 9.49339 5.29998 23.5731
616 2 2.2208 8.18214 9.76322 22.0134
617 1 -1.1104 9.47873 8.27199 26.3007
618 2 2.2208 8.03772 12.5397 24.9693
619 2 2.2208 8.05188 6.91875 24.965
620 2 2.2208 10.797 6.79289 22.2358
621 2 2.2208 10.8896 12.4633 22.0774
622 1 -1.1104 12.1898 8.22137 23.681
623 1 -1.1104 12.3627 8.16847 26.2818
624 1 -1.1104 12.3535 5.27839 23.5047
625 1 -1.1104 12.2471 11.0185 23.39
626 2 2.2208 10.808 9.63463 24.9133
627 1 -1.1104 12.1424 5.47233 26.278
628 1 -1.1104 12.2676 11.1381 26.2533
629 1 -1.1104 9.37737 8.20836 23.622
577 1 -1.1104 6.7569 19.4258 26.3454
550 1 -1.1104 9.62566 13.8434 23.3582
580 2 2.2208 8.16124 15.1825 22.123
571 2 2.2208 7.99269 -1.68378 27.6054
637 1 -1.1104 6.6645 13.9697 26.4169
460 1 -1.1104 0.847743 19.4924 20.6639
479 1 -1.1104 3.7705 19.4246 20.7487
349 2 2.2208 2.40813 20.8889 22.019
350 1 -1.1104 3.95906 16.567 23.6086
485 1 -1.1104 0.981216 16.4578 23.5
512 1 -1.1104 3.94333 13.8152 26.2765
514 1 -1.1104 3.8422 16.5576 26.2795
634 2 2.2208 2.44072 17.8871 24.8321
635 2 2.2208 2.50365 15.2479 22.1514
636 1 -1.1104 3.88179 19.4331 23.4688
638 1 -1.1104 3.84303 13.8125 23.4987
640 1 -1.1104 0.971815 19.4378 26.2838
641 1 -1.1104 1.08139 16.6654 26.1638
642 1 -1.1104 1.15275 13.9218 26.309
644 2 2.2208 5.13206 20.8136 24.9378
645 2 2.2208 5.27591 15.198 24.8822
647 1 -1.1104 1.09481 19.248 23.4549
648 1 -1.1104 1.09208 13.7897 23.4138
649 2 2.2208 5.34828 18.0015 21.967
650 1 -1.1104 3.88303 19.4429 26.2759
646 1 -1.1104 6.60868 13.8923 23.5781
385 1 -1.1104 12.3381 13.8087 26.1972
9492 2 2.2208 -0.123396 12.4283 27.6623
573 2 2.2208 8.18838 17.9866 24.911
388 2 2.2208 11.0231 3.88143 13.6899
515 1 -1.1104 12.308 19.3365 26.2768
9310 2 2.2208 -0.307539 15.2511 19.186
9433 2 2.2208 -0.293777 20.8479 24.7321
9270 2 2.2208 13.6583 17.9977 19.2423
9124 2 2.2208 13.6676 3.93577 16.5789
9130 2 2.2208 13.5708 1.23431 19.3764
310 2 2.2208 10.8267 20.8896 13.6313
540 2 2.2208 5.24771 1.22483 27.6402
383 2 2.2208 7.94794 -4.17942 13.7781
424 2 2.2208 2.49534 12.3079 13.7274
9171 2 2.2208 -0.209228 4.06227 13.7021
451 2 2.2208 8.12699 12.4371 13.7037
355 2 2.2208 5.31919 4.14482 13.6834
423 2 2.2208 5.2788 9.78125 13.6774
9243 2 2.2208 -0.312326 9.63046 13.6673
9488 2 2.2208 13.5979 -1.66731 27.646
422 2 2.2208 2.50674 6.91457 13.7518
312 2 2.2208 2.38569 20.8944 27.6669
630 2 2.2208 10.8925 6.81797 27.6693
651 2 2.2208 5.20902 23.5952 5.30793
652 2 2.2208 5.24259 29.3368 5.25572
653 1 -1.1104 1.06084 24.9576 0.893765
654 1 -1.1104 1.04964 25.2483 3.73049
655 1 -1.1104 1.006 22.1766 1.00528
656 1 -1.1104 0.912329 27.7491 0.976222
657 2 2.2208 5.22734 26.5297 2.49455
658 1 -1.1104 1.05389 22.315 4.03278
659 1 -1.1104 0.973064 27.9175 3.71384
660 1 -1.1104 3.73623 25.058 0.98648
661 2 2.2208 2.43643 23.714 2.4
662 2 2.2208 2.42258 29.2875 2.45004
663 1 -1.1104 3.93997 25.0878 3.76656
664 2 2.2208 2.39703 26.3053 5.2131
665 1 -1.1104 3.76611 22.2952 0.930366
666 1 -1.1104 3.77536 27.8893 1.18202
667 1 -1.1104 3.80074 22.2666 3.79607
668 1 -1.1104 3.79311 27.873 3.99046
800 1 -1.1104 3.69551 27.8499 6.81228
798 1 -1.1104 3.7545 24.9531 6.55943
673 1 -1.1104 6.63118 25.0821 4.07078
674 1 -1.1104 6.46933 22.2452 0.986615
675 1 -1.1104 6.45595 27.882 0.951402
1282 1 -1.1104 1.09388 47.4826 1.23591
967 2 2.2208 2.54944 46.184 13.6629
9773 2 2.2208 13.5885 46.3182 8.03962
981 2 2.2208 2.40214 37.7461 -0.273067
9746 2 2.2208 -0.328346 32.262 8.10738
1528 1 -1.1104 9.59713 47.4468 12.2034
677 1 -1.1104 6.57305 27.8256 3.73831
676 1 -1.1104 6.67846 22.389 3.91565
796 1 -1.1104 6.52375 22.389 6.65755
672 1 -1.1104 6.66555 25.0823 0.948663
678 2 2.2208 10.8467 23.6399 5.08909
679 2 2.2208 10.7727 29.3469 5.13836
680 1 -1.1104 11.9769 25.2169 0.957254
681 1 -1.1104 12.2832 25.0911 3.79466
682 1 -1.1104 12.1736 22.3027 1.16021
683 1 -1.1104 12.2615 27.8834 0.888564
684 2 2.2208 10.8088 26.5292 2.4192
685 1 -1.1104 12.1919 22.235 3.87249
686 1 -1.1104 12.2574 27.8303 3.70767
687 1 -1.1104 9.41905 24.9558 1.07757
688 2 2.2208 8.01546 23.75 2.42653
689 2 2.2208 8.04789 29.3196 2.27328
690 1 -1.1104 9.37799 25.1898 3.86153
691 2 2.2208 7.96931 26.4397 5.28457
692 1 -1.1104 9.38772 22.1208 0.989401
693 1 -1.1104 9.46529 27.7583 0.979246
694 1 -1.1104 9.40499 22.1968 3.90874
695 1 -1.1104 9.43366 27.9868 3.65704
825 1 -1.1104 12.1532 25.1834 6.51082
826 1 -1.1104 12.1742 22.4115 6.57028
828 1 -1.1104 9.39641 25.0062 6.57461
827 1 -1.1104 12.1277 28.0266 6.40139
9555 2 2.2208 13.5971 32.2092 5.17775
1482 1 -1.1104 1.24598 47.4288 12.3033
9747 2 2.2208 -0.284183 34.8435 10.9164
699 2 2.2208 5.34047 34.9131 5.39863
700 1 -1.1104 1.07845 30.7544 1.03703
701 1 -1.1104 0.957858 36.3217 1.19818
703 1 -1.1104 1.09307 30.8422 3.87183
704 1 -1.1104 1.02119 36.245 3.8642
706 1 -1.1104 0.969469 33.4288 1.05597
707 2 2.2208 5.22472 32.1351 2.47873
708 2 2.2208 5.21556 37.7971 2.52815
709 1 -1.1104 1.1235 33.4747 3.9388
711 1 -1.1104 3.83971 30.6303 0.954144
712 1 -1.1104 3.81707 36.152 1.17301
713 2 2.2208 2.46501 34.8459 2.61816
714 1 -1.1104 3.80536 30.7749 3.92588
715 1 -1.1104 3.89498 36.5052 3.99439
716 2 2.2208 2.40114 32.0954 5.34159
717 2 2.2208 2.51636 37.7039 5.30445
718 1 -1.1104 3.9098 33.4395 1.12231
719 1 -1.1104 3.83393 33.4682 3.9866
849 1 -1.1104 0.917848 30.8218 6.73916
702 1 -1.1104 6.6158 36.418 0.999921
725 1 -1.1104 6.68421 33.5073 1.07859
705 1 -1.1104 6.65997 36.251 4.00554
855 1 -1.1104 3.82073 30.7163 6.74633
9826 2 2.2208 -0.118419 40.4326 10.8948
1485 1 -1.1104 1.0845 47.4975 9.48859
9648 2 2.2208 13.5196 29.4953 7.97474
9707 2 2.2208 13.5373 37.6649 10.7683
724 1 -1.1104 6.64143 30.614 3.8394
710 1 -1.1104 6.60132 33.4928 3.86875
723 1 -1.1104 6.513 30.7346 1.06821
726 2 2.2208 10.7631 34.8858 5.29756
727 1 -1.1104 12.1978 30.6287 0.868501
728 1 -1.1104 12.1011 36.4411 0.889743
729 1 -1.1104 12.2453 30.8267 3.69199
730 1 -1.1104 12.2258 36.3522 3.72691
731 1 -1.1104 12.2619 33.5434 1.05906
732 2 2.2208 10.748 32.1228 2.28567
733 2 2.2208 10.949 37.8246 2.39551
734 1 -1.1104 12.0525 33.392 3.89261
735 1 -1.1104 9.42776 30.693 0.94766
736 1 -1.1104 9.38561 36.3038 1.07671
737 2 2.2208 8.13493 34.9558 2.46603
738 1 -1.1104 9.49669 30.7278 3.72221
739 1 -1.1104 9.36958 36.2744 3.97444
740 2 2.2208 7.95777 32.0917 5.23424
741 2 2.2208 8.01942 37.7221 5.32452
742 1 -1.1104 9.38266 33.4482 0.960531
743 1 -1.1104 9.2455 33.5297 3.74929