LAMMPS (29 Oct 2020)
OMP_NUM_THREADS environment is not set. Defaulting to 1 thread. (../comm.cpp:94)
  using 1 OpenMP thread(s) per MPI task
OMP_NUM_THREADS environment is not set. Defaulting to 1 thread. (../comm.cpp:94)
  using 1 OpenMP thread(s) per MPI task
Lattice spacing in x,y,z = 5.5788000 5.5788000 5.5788000
Created orthogonal box = (0.0000000 0.0000000 0.0000000) to (27.894000 334.72800 27.894000)
  2 by 13 by 2 MPI processor grid
Changing box ...
  triclinic box = (0.0000000 0.0000000 0.0000000) to (27.894000 334.72800 27.894000) with tilt (0.0000000 0.0000000 0.0000000)
Created 6000 atoms
  create_atoms CPU = 0.006 seconds
Lattice spacing in x,y,z = 5.5788000 5.5788000 5.5788000
Created 12000 atoms
  create_atoms CPU = 0.002 seconds
Lattice spacing in x,y,z = 5.5788000 5.5788000 5.5788000
Created 6000 atoms
  create_atoms CPU = 0.002 seconds
12000 atoms in group oxygen
6000 atoms in group uranium
3000 atoms in group octoxygen
3000 atoms in group octuran
Setting atom values ...
  30 settings made for type/ratio
Setting atom values ...
  15 settings made for type/ratio
Setting atom values ...
  2970 settings made for type/ratio
Setting atom values ...
  2985 settings made for type/ratio
30 atoms in group odel
15 atoms in group udel
2970 atoms in group octOdel
2985 atoms in group octUdel
WARNING: Ignoring 'compress yes' for molecular system (../delete_atoms.cpp:125)
Deleted 30 atoms, new total = 23970
WARNING: Ignoring 'compress yes' for molecular system (../delete_atoms.cpp:125)
Deleted 15 atoms, new total = 23955
WARNING: Ignoring 'compress yes' for molecular system (../delete_atoms.cpp:125)
Deleted 2970 atoms, new total = 20985
WARNING: Ignoring 'compress yes' for molecular system (../delete_atoms.cpp:125)
Deleted 2985 atoms, new total = 18000
12000 atoms in group 1
6000 atoms in group 2
Setting atom values ...
  12000 settings made for type
Setting atom values ...
  6000 settings made for type
Setting atom values ...
  12000 settings made for charge
Setting atom values ...
  6000 settings made for charge
PPPM initialization ...
  using 12-bit tables for long-range coulomb (../kspace.cpp:328)
  G vector (1/distance) = 0.29916851
  grid = 40 240 40
  stencil order = 5
  estimated absolute RMS force accuracy = 0.00015502622
  estimated relative force accuracy = 1.0765975e-05
  using single precision MKL FFT
  3d grid and FFT values/proc = 18225 7600
Neighbor list info ...
  update every 1 steps, delay 0 steps, check yes
  max neighbors/atom: 2000, page size: 100000
  master list distance cutoff = 13
  ghost atom cutoff = 13
  binsize = 6.5, bins = 5 52 5
  2 neighbor lists, perpetual/occasional/extra = 2 0 0
  (1) pair coul/long, perpetual
      attributes: half, newton on
      pair build: half/bin/newton/tri
      stencil: half/bin/3d/newton/tri
      bin: standard
  (2) pair eam/alloy, perpetual, copy from (1)
      attributes: half, newton on
      pair build: copy
      stencil: none
      bin: none
Setting up cg style minimization ...
  Unit style    : metal
  Current step  : 0
WARNING: Energy due to 3 extra global DOFs will be included in minimizer energies
Per MPI rank memory allocation (min/avg/max) = 10.44 | 10.47 | 10.49 Mbytes
Step Temp E_pair E_mol TotEng Press Volume 
       0            0   -234876.63            0   -234876.63    7945.6869    260443.57 
     183            0   -236179.05            0   -236179.05    63.749164    262391.09 
Loop time of 3.42634 on 52 procs for 183 steps with 18000 atoms

99.3% CPU use with 52 MPI tasks x 1 OpenMP threads

Minimization stats:
  Stopping criterion = linesearch alpha is zero
  Energy initial, next-to-last, final = 
     -234876.631450708  -236179.046650198  -236179.046650198
  Force two-norm initial, final = 2720.2903 44.470449
  Force max component initial, final = 1924.9946 31.206047
  Final line search alpha, max atom move = 4.1738634e-12 1.3024978e-10
  Iterations, force evaluations = 183 281

MPI task timing breakdown:
Section |  min time  |  avg time  |  max time  |%varavg| %total
---------------------------------------------------------------
Pair    | 1.8246     | 1.9296     | 2.042      |   3.2 | 56.32
Bond    | 2.2544e-05 | 3.772e-05  | 7.8285e-05 |   0.0 |  0.00
Kspace  | 0.57734    | 0.68993    | 0.79658    |   5.4 | 20.14
Neigh   | 0.0069458  | 0.0080633  | 0.0090837  |   0.6 |  0.24
Comm    | 0.066495   | 0.068578   | 0.070918   |   0.4 |  2.00
Output  | 0          | 0          | 0          |   0.0 |  0.00
Modify  | 0          | 0          | 0          |   0.0 |  0.00
Other   |            | 0.7302     |            |       | 21.31

Nlocal:        346.154 ave         392 max         299 min
Histogram: 4 1 5 7 14 5 2 4 6 4
Nghost:        5656.98 ave        5808 max        5520 min
Histogram: 7 8 5 0 3 9 8 3 1 8
Neighs:       111712.0 ave      127431 max       96661 min
Histogram: 4 0 8 7 15 2 2 6 5 3

Total # of neighbors = 5809007
Ave neighs/atom = 322.72261
Ave special neighs/atom = 0.0000000
Neighbor list builds = 2
Dangerous builds = 0
Resetting atom IDs ...
PPPM initialization ...
  using 12-bit tables for long-range coulomb (../kspace.cpp:328)
  G vector (1/distance) = 0.29905291
  grid = 40 240 40
  stencil order = 5
  estimated absolute RMS force accuracy = 0.00015585195
  estimated relative force accuracy = 1.0823319e-05
  using single precision MKL FFT
  3d grid and FFT values/proc = 18225 7600
Finding 1-2 1-3 1-4 neighbors ...
  special bond factors lj:    0.0      0.0      0.0     
  special bond factors coul:  0.0      0.0      0.0     
     0 = max # of 1-2 neighbors
     0 = max # of 1-3 neighbors
     0 = max # of 1-4 neighbors
     1 = max # of special neighbors
  special bonds CPU = 0.002 seconds
PPPM initialization ...
  using 12-bit tables for long-range coulomb (../kspace.cpp:328)
  G vector (1/distance) = 0.29905291
  grid = 40 240 40
  stencil order = 5
  estimated absolute RMS force accuracy = 0.00015585195
  estimated relative force accuracy = 1.0823319e-05
  using single precision MKL FFT
  3d grid and FFT values/proc = 18225 7600
Setting up Verlet run ...
  Unit style    : metal
  Current step  : 0
  Time step     : 0.001
Per MPI rank memory allocation (min/avg/max) = 10.59 | 10.62 | 10.64 Mbytes
Step Temp KinEng PotEng Press v_latt 
       0         1200     2791.864   -236179.05    11428.355    5.5926754 
   10000    1203.8651    2800.8565   -233569.82   -951.03199    5.6540379 
   20000    1204.5126    2802.3629   -233648.43   -632.22388    5.6517395 
   30000    1193.8924    2777.6544   -233605.38     434.7906    5.6512723 
   40000    1198.8428    2789.1718   -233683.43     567.5801    5.6499477 
   50000    1186.1071    2759.5414   -233649.09      157.955    5.6499317 
   60000    1191.3524     2771.745   -233679.63   -1815.6251    5.6517801 
   70000    1200.5814    2793.2166    -233685.7   -273.96331    5.6501787 
   80000    1206.4741    2806.9264   -233696.66    510.33225    5.6487808 
   90000    1208.0003    2810.4772   -233680.03    825.05382    5.6493172 
  100000    1205.0237    2803.5519   -233688.88    1987.4309    5.6485132 
  110000    1191.6891    2772.5283   -233680.44    908.57364    5.6488967 
  120000     1204.359    2802.0055   -233671.32   -393.03642    5.6503132 
  130000    1196.9989    2784.8818   -233670.86     749.7859    5.6496428 
  140000    1208.7174    2812.1456   -233686.95    732.70353    5.6494205 
  150000    1201.4803    2795.3081   -233685.66    1041.2512    5.6491365 
  160000     1214.269    2825.0615   -233678.69    1039.4129    5.6493382 
  170000    1199.1651    2789.9217   -233676.33    1188.2474    5.6488116 
  180000    1205.3464    2804.3027   -233703.07   -437.79098    5.6496734 
  190000    1202.5414    2797.7767   -233673.49   -1005.8865    5.6512705 
  200000    1206.3001    2806.5215   -233670.65    128.69578     5.649964 
  210000     1209.893    2814.8807   -233705.35    243.20207      5.64964 
  220000    1205.7292    2805.1932    -233687.2    1589.8673    5.6481642 
  230000    1196.7041     2784.196   -233687.77    930.70684    5.6487964 
  240000    1194.3495    2778.7177   -233725.34    836.90963    5.6483553 
  250000    1198.9484    2789.4174   -233673.69    530.90858    5.6495892 
  260000     1193.686    2777.1743      -233664   -730.62769    5.6510192 
  270000    1211.6558    2818.9819   -233628.88    1815.2772    5.6488977 
  280000    1211.0419    2817.5535   -233669.37   -758.84981    5.6507324 
  290000    1185.8635    2758.9748    -233672.4   -31.905065    5.6503481 
  300000    1211.8824    2819.5091   -233687.99   -454.29452     5.650576 
Loop time of 2826.79 on 52 procs for 300000 steps with 18000 atoms

Performance: 9.169 ns/day, 2.617 hours/ns, 106.127 timesteps/s
99.8% CPU use with 52 MPI tasks x 1 OpenMP threads

MPI task timing breakdown:
Section |  min time  |  avg time  |  max time  |%varavg| %total
---------------------------------------------------------------
Pair    | 1663.2     | 1685.5     | 1722.8     |  36.8 | 59.63
Bond    | 0.025458   | 0.044819   | 0.057154   |   3.4 |  0.00
Kspace  | 590.22     | 630.26     | 654.27     |  63.7 | 22.30
Neigh   | 31.036     | 32.184     | 34.058     |  15.3 |  1.14
Comm    | 82.03      | 84.497     | 86.9       |  16.7 |  2.99
Output  | 0.17218    | 0.17231    | 0.17742    |   0.2 |  0.01
Modify  | 343.74     | 365.47     | 385.65     |  49.9 | 12.93
Other   |            | 28.65      |            |       |  1.01

Nlocal:        346.154 ave         364 max         333 min
Histogram: 8 4 9 5 5 7 4 4 5 1
Nghost:        5547.69 ave        5675 max        5436 min
Histogram: 5 10 5 8 4 3 1 1 7 8
Neighs:       107719.0 ave      113009 max      103484 min
Histogram: 3 7 8 7 5 6 8 1 5 2

Total # of neighbors = 5601381
Ave neighs/atom = 311.18783
Ave special neighs/atom = 0.0000000
Neighbor list builds = 7981
Dangerous builds = 0
System init for write_data ...
PPPM initialization ...
  using 12-bit tables for long-range coulomb (../kspace.cpp:328)
  G vector (1/distance) = 0.29845784
  grid = 40 240 40
  stencil order = 5
  estimated absolute RMS force accuracy = 0.00016079893
  estimated relative force accuracy = 1.1166868e-05
  using single precision MKL FFT
  3d grid and FFT values/proc = 18225 7600
Total wall time: 0:47:10
