ITEM: TIMESTEP
50000
ITEM: NUMBER OF ATOMS
18000
ITEM: BOX BOUNDS pp pp pp
-4.8998765827540586e-01 2.7829987658274668e+01
-5.7926312435454870e+00 3.3387263124354934e+02
-4.8431149652279210e-01 2.7824311496522611e+01
ITEM: ATOMS id type q x y z
1 2 2.2208 5.15429 -0.0287609 5.16264
3 1 -1.1104 1.04046 -4.27995 0.748825
15 1 -1.1104 0.736664 -4.36028 3.75644
21 2 2.2208 5.0584 -2.63839 2.46535
23 1 -1.1104 0.59151 -1.50435 1.19598
31 1 -1.1104 0.992782 -1.43789 3.86991
35 2 2.2208 2.32393 -0.0225139 2.38289
37 1 -1.1104 3.5915 -4.31206 0.94496
43 1 -1.1104 3.61918 -4.31626 3.78911
46 2 2.2208 2.15095 -3.06252 5.14961
48 1 -1.1104 3.74258 -1.29476 0.889534
52 1 -1.1104 3.63376 -1.51055 3.74266
9 1 -1.1104 6.49204 -4.23492 0.95086
118 2 2.2208 7.99395 -5.80048 2.13332
107 2 2.2208 8.03112 2.91638 -0.455172
59 2 2.2208 -0.362382 2.69873 2.28439
113 2 2.2208 13.584 -2.85184 5.0445
24 1 -1.1104 0.925108 -1.67398 6.60375
28 1 -1.1104 6.50589 -1.38847 6.37526
33 1 -1.1104 6.51918 -1.22546 3.52949
27 1 -1.1104 6.5068 -1.38645 0.989232
18 1 -1.1104 6.65918 -4.09045 3.70027
69 2 2.2208 10.925 0.0393093 5.18747
71 1 -1.1104 12.0249 -4.43797 0.877322
77 1 -1.1104 12.4255 -4.4819 3.92038
80 2 2.2208 10.6974 -2.80748 2.42096
82 1 -1.1104 12.1341 -1.37797 1.06484
86 1 -1.1104 12.2907 -1.40782 3.79589
88 2 2.2208 7.88752 -0.0010074 2.35654
90 1 -1.1104 9.29035 -4.40312 0.996573
96 1 -1.1104 9.3689 -4.49748 3.77445
99 2 2.2208 7.921 -2.89638 5.17772
101 1 -1.1104 9.20327 -1.22653 0.879215
105 1 -1.1104 9.42165 -1.6413 3.81569
10 1 -1.1104 6.34958 -4.2236 6.57105
91 1 -1.1104 9.38401 -4.44846 6.51399
72 1 -1.1104 12.0513 -4.21638 6.74101
164 2 2.2208 -0.483718 -3.05935 7.91807
117 2 2.2208 13.5005 -5.78195 2.43489
2 2 2.2208 5.17628 5.57047 5.0901
5 1 -1.1104 0.852291 1.37082 0.793199
16 1 -1.1104 1.10979 1.49748 3.78408
22 2 2.2208 5.24511 2.7458 2.29055
25 1 -1.1104 0.673848 3.98923 0.624002
32 1 -1.1104 0.886364 4.4005 3.41628
36 2 2.2208 2.38156 5.62903 2.27983
39 1 -1.1104 3.55078 1.69705 1.12991
44 1 -1.1104 3.93866 1.39436 3.87698
47 2 2.2208 2.45481 2.87782 5.18372
50 1 -1.1104 3.69199 4.41129 0.829877
53 1 -1.1104 3.86986 4.27685 3.60123
41 1 -1.1104 3.72176 7.03454 1.01003
150 1 -1.1104 3.79065 6.90971 12.2616
19 1 -1.1104 6.47567 1.263 3.71319
29 1 -1.1104 6.51105 4.19613 0.995523
8 1 -1.1104 0.876768 6.64556 6.45707
17 1 -1.1104 0.986315 6.95842 3.60474
51 1 -1.1104 3.79883 4.29857 6.41887
65 2 2.2208 5.1386 -5.69955 5.12362
119 2 2.2208 10.818 -5.73727 5.12092
252 2 2.2208 2.36859 -5.68943 13.5714
94 1 -1.1104 9.63948 6.86877 1.09635
11 1 -1.1104 6.8357 1.58512 0.868293
12 1 -1.1104 6.58444 1.26035 6.61842
13 1 -1.1104 6.59551 7.06389 0.753762
34 1 -1.1104 6.52827 4.19707 3.71547
70 2 2.2208 11.0141 5.49326 5.18094
73 1 -1.1104 12.1985 1.4721 0.990363
78 1 -1.1104 12.2563 1.4449 3.73101
81 2 2.2208 10.9036 2.85983 2.18655
84 1 -1.1104 12.4981 4.12202 0.709894
87 1 -1.1104 12.1844 4.08824 3.59992
89 2 2.2208 8.07864 5.47549 2.25874
92 1 -1.1104 9.41912 1.3214 0.723027
97 1 -1.1104 9.40545 1.42462 3.59526
100 2 2.2208 7.76423 2.68435 5.24093
103 1 -1.1104 9.5331 4.19615 0.932213
106 1 -1.1104 9.32282 4.26939 3.61574
75 1 -1.1104 12.3421 6.94865 0.968987
202 2 2.2208 10.7984 2.74051 13.7483
30 1 -1.1104 6.64695 4.1432 6.46318
14 1 -1.1104 6.68005 6.90014 6.50632
79 1 -1.1104 12.5347 6.96219 3.7074
20 1 -1.1104 6.84818 6.9631 3.71242
201 2 2.2208 8.11215 -0.0709166 13.6153
208 2 2.2208 13.6577 -2.76932 10.8854
49 1 -1.1104 3.74511 -1.46361 6.62062
4 1 -1.1104 0.803042 -4.54237 6.61584
38 1 -1.1104 3.39305 -4.72676 6.52222
122 2 2.2208 5.41498 -0.154583 10.5992
124 1 -1.1104 0.880455 -4.4381 12.1959
130 1 -1.1104 0.777685 -4.34773 9.47374
136 2 2.2208 5.1051 -2.87615 7.87254
138 1 -1.1104 0.814548 -1.52716 12.0748
142 1 -1.1104 1.00239 -1.69516 9.31966
146 2 2.2208 2.1442 0.00512798 7.91675
148 1 -1.1104 3.58362 -4.45205 12.1969
151 1 -1.1104 3.89767 -4.49956 9.2732
154 2 2.2208 2.29857 -2.96502 10.6312
156 1 -1.1104 3.70098 -1.57971 12.3148
158 1 -1.1104 3.66214 -1.7077 9.41448
140 1 -1.1104 6.75153 -1.49119 12.1259
144 1 -1.1104 6.58508 -1.40202 9.21207
127 1 -1.1104 6.42264 -4.18872 12.2049
129 1 -1.1104 6.59376 6.90702 12.0968
189 2 2.2208 10.8014 5.35977 10.8819
108 2 2.2208 7.99386 -2.85844 -0.485933
169 2 2.2208 5.33829 -5.64953 10.7933
102 1 -1.1104 9.43376 -1.37042 6.53566
176 2 2.2208 8.11603 2.7158 10.8804
133 1 -1.1104 6.93273 -4.21911 9.42981
83 1 -1.1104 11.9983 -1.3071 6.57876
190 2 2.2208 11.0258 -0.142063 10.5826
178 2 2.2208 7.94601 -0.255311 7.82992
177 2 2.2208 7.94196 -2.8836 10.9733
197 1 -1.1104 9.46039 -4.2757 12.0786
196 2 2.2208 10.7636 -2.86773 8.03134
188 1 -1.1104 12.4499 -1.18731 12.1266
175 1 -1.1104 9.50742 -1.32402 12.2733
186 1 -1.1104 12.2219 -4.0181 12.3543
180 1 -1.1104 12.3298 -4.14132 9.44309
193 1 -1.1104 9.56843 -4.4463 9.31956
184 1 -1.1104 12.331 -1.38025 9.30454
173 1 -1.1104 9.12182 -1.58508 9.24901
191 2 2.2208 10.667 2.84896 7.93156
135 1 -1.1104 6.75319 7.45475 9.24555
167 2 2.2208 -0.496487 -0.145894 10.7991
40 1 -1.1104 3.71869 1.28692 6.55398
95 1 -1.1104 9.4665 6.89308 6.75599
6 1 -1.1104 0.961512 1.29133 6.59485
26 1 -1.1104 0.766834 3.92226 6.35859
98 1 -1.1104 9.71086 6.69426 3.87233
42 1 -1.1104 3.88472 6.93803 6.66592
182 1 -1.1104 9.41728 6.8659 9.66288
153 1 -1.1104 3.84919 7.02085 9.32736
121 1 -1.1104 3.75827 4.08759 9.25541
123 2 2.2208 5.05505 5.39361 10.7391
125 1 -1.1104 1.17239 1.13574 12.3462
131 1 -1.1104 0.964919 1.41286 9.54239
137 2 2.2208 5.06678 2.76359 7.87134
139 1 -1.1104 1.11845 4.05804 12.0741
143 1 -1.1104 0.830888 4.30826 9.08339
147 2 2.2208 2.31691 5.44267 7.87404
149 1 -1.1104 4.01178 1.20522 12.1121
152 1 -1.1104 3.61625 1.43986 9.33904
155 2 2.2208 2.51446 2.39166 10.8569
157 1 -1.1104 3.67703 4.18095 12.0751
209 2 2.2208 13.545 2.88669 10.734
134 1 -1.1104 6.60013 1.40074 9.36149
126 1 -1.1104 0.827126 6.81128 12.1911
145 1 -1.1104 6.36428 4.14665 9.06603
128 1 -1.1104 6.64636 1.27067 12.279
141 1 -1.1104 6.50787 4.02816 11.8585
181 1 -1.1104 12.5693 7.02067 12.4174
104 1 -1.1104 9.4294 4.02527 6.51172
198 2 2.2208 7.76065 5.63074 7.99868
115 2 2.2208 13.5851 -2.91488 -0.354106
192 1 -1.1104 12.415 1.23877 9.40335
174 1 -1.1104 9.41323 4.13062 12.2103
93 1 -1.1104 9.51641 1.36532 6.502
85 1 -1.1104 12.2219 4.2062 6.84129
76 1 -1.1104 12.2287 6.98634 6.5469
185 1 -1.1104 12.3652 1.44707 12.1487
213 2 2.2208 8.05334 -5.85743 13.5748
183 1 -1.1104 9.40198 1.46061 9.476
212 2 2.2208 8.08149 -5.71193 7.92223
199 1 -1.1104 12.3914 6.86721 9.42972
74 1 -1.1104 12.3543 1.45527 6.46969
194 1 -1.1104 9.46884 7.03574 12.1532
179 1 -1.1104 12.2318 4.06148 9.53524
187 1 -1.1104 12.4826 4.24183 12.3007
195 1 -1.1104 9.67696 1.35926 12.2673
172 1 -1.1104 9.24934 4.17704 9.41012
7 1 -1.1104 1.16018 6.96224 0.702765
165 2 2.2208 -0.374299 5.43934 10.7779
62 2 2.2208 -0.312711 -0.144745 5.15886
132 1 -1.1104 0.989218 6.90529 9.40808
45 1 -1.1104 3.84352 6.67134 3.72366
162 2 2.2208 2.44403 5.5384 13.5433
57 2 2.2208 5.32514 0.0613911 -0.466075
161 2 2.2208 2.35332 -0.431848 13.6111
160 2 2.2208 5.33594 2.49388 13.5257
293 2 2.2208 13.6268 -5.56432 13.6478
200 2 2.2208 10.76 -2.79645 13.4543
109 2 2.2208 10.8894 5.63747 -0.500339
214 2 2.2208 5.04326 -0.101856 16.3366
216 1 -1.1104 1.11207 -4.27616 17.7823
222 1 -1.1104 0.827161 -4.31955 15.2596
228 2 2.2208 5.37749 -2.86311 19.1166
230 1 -1.1104 0.847169 -1.4473 17.6443
234 1 -1.1104 0.803168 -1.75996 15.0368
238 2 2.2208 2.40816 -0.163705 19.1803
240 1 -1.1104 3.73897 -4.22419 17.9756
243 1 -1.1104 3.70804 -4.38688 15.1743
246 2 2.2208 2.29875 -2.90985 16.4545
248 1 -1.1104 3.76522 -1.46884 17.6276
250 1 -1.1104 3.71822 -1.76434 14.8857
232 1 -1.1104 6.83323 -1.37224 17.5705
300 1 -1.1104 1.10186 -1.86692 20.6319
376 1 -1.1104 12.0231 3.75361 23.349
367 2 2.2208 10.9305 5.33594 22.0439
67 2 2.2208 4.99935 -5.57818 27.7388
307 1 -1.1104 3.93423 -1.74351 20.7166
219 1 -1.1104 6.86311 -4.47384 17.789
225 1 -1.1104 6.66483 -4.27269 14.95
291 2 2.2208 8.13812 -5.78162 19.3989
236 1 -1.1104 6.33303 -1.14284 14.8044
260 2 2.2208 10.835 -0.0346691 16.4115
262 1 -1.1104 12.3641 -4.41588 17.865
265 1 -1.1104 12.4467 -4.35447 15.0915
268 2 2.2208 10.9916 -2.87169 19.2625
270 1 -1.1104 12.5063 -1.57801 17.9293
272 1 -1.1104 12.1051 -1.36498 15.0724
274 2 2.2208 8.03236 -0.0307064 19.343
276 1 -1.1104 9.5154 -4.38071 17.8111
279 1 -1.1104 9.52377 -4.21178 14.8887
282 2 2.2208 8.23092 -2.98588 16.6214
284 1 -1.1104 9.51678 -1.57749 17.7719
286 1 -1.1104 9.34914 -1.4778 14.9417
380 1 -1.1104 9.69725 -4.24875 20.5654
369 1 -1.1104 12.2734 -4.47465 20.823
371 1 -1.1104 12.2832 7.0916 20.706
242 1 -1.1104 3.91419 6.77666 17.9071
397 2 2.2208 8.08841 -5.71257 24.9485
159 2 2.2208 5.2417 -2.93706 13.9045
353 2 2.2208 2.44543 -5.65038 24.8415
218 1 -1.1104 1.11252 6.92257 17.5985
116 2 2.2208 13.6929 2.62541 27.6883
215 2 2.2208 5.06471 5.24643 16.5211
217 1 -1.1104 1.01357 1.36869 17.6324
223 1 -1.1104 0.8613 1.08665 15.1133
229 2 2.2208 5.04935 2.76015 19.2372
231 1 -1.1104 0.594978 4.04639 17.7108
235 1 -1.1104 1.10989 3.82614 15.033
239 2 2.2208 2.39733 5.48966 19.2148
241 1 -1.1104 3.88752 1.36249 17.7616
244 1 -1.1104 3.79851 1.06126 14.8212
247 2 2.2208 2.5729 2.55477 16.2562
249 1 -1.1104 3.4617 3.99262 17.9245
251 1 -1.1104 3.92635 3.82291 14.9633
226 1 -1.1104 6.33422 1.38686 15.374
220 1 -1.1104 6.64519 1.11419 18.2847
224 1 -1.1104 0.836796 6.72687 14.8636
237 1 -1.1104 6.7486 3.88791 14.6642
301 1 -1.1104 0.926923 3.9686 20.493
305 1 -1.1104 3.62226 1.3432 20.8152
110 2 2.2208 10.676 -0.00494503 27.7232
388 2 2.2208 10.9523 2.47426 24.8048
308 1 -1.1104 3.81074 4.15483 20.6384
296 1 -1.1104 0.981954 6.95759 20.4451
303 1 -1.1104 6.58126 4.19181 20.5191
221 1 -1.1104 6.58729 6.67416 18.0535
233 1 -1.1104 6.37137 3.86509 17.6951
281 1 -1.1104 9.53131 6.69705 14.882
264 1 -1.1104 11.9612 6.94203 17.9944
278 1 -1.1104 9.21374 6.72534 17.8281
261 2 2.2208 10.7479 5.43269 16.5468
263 1 -1.1104 12.433 1.39284 18.0622
266 1 -1.1104 12.082 1.30621 15.155
269 2 2.2208 10.8571 2.54648 19.2566
271 1 -1.1104 12.2261 4.12183 17.9138
273 1 -1.1104 11.978 3.85544 15.2276
275 2 2.2208 8.15333 5.2723 19.243
277 1 -1.1104 9.48889 1.29276 17.8754
280 1 -1.1104 9.28998 1.25537 15.1481
283 2 2.2208 8.13536 2.65535 16.5021
285 1 -1.1104 9.40739 3.89381 17.9358
287 1 -1.1104 9.27018 4.15141 15.048
351 2 2.2208 5.17693 -5.88954 22.0655
375 1 -1.1104 12.362 4.0592 20.4716
337 1 -1.1104 3.79226 7.05458 23.586
304 1 -1.1104 3.71905 -4.59043 20.9413
290 2 2.2208 13.5908 2.80407 16.6284
245 1 -1.1104 3.6288 6.84477 14.8945
294 1 -1.1104 0.757939 -4.50824 20.7259
309 2 2.2208 5.25266 -0.200372 22.18
311 1 -1.1104 0.873889 -4.27738 23.5133
317 1 -1.1104 0.901494 -4.00017 26.3503
323 2 2.2208 5.21127 -2.86947 24.892
325 1 -1.1104 1.00815 -1.66249 23.4257
329 1 -1.1104 1.17414 -1.42929 26.3977
333 2 2.2208 2.46696 -0.275354 24.9197
335 1 -1.1104 3.66289 -4.29898 23.4826
338 1 -1.1104 3.83286 -4.26658 26.3802
341 2 2.2208 2.38659 -3.02265 21.9907
343 1 -1.1104 3.7265 -1.51698 23.3149
345 1 -1.1104 3.61326 -1.60192 26.5157
314 1 -1.1104 6.58391 -4.3548 23.8841
302 1 -1.1104 6.68118 -1.58726 20.4504
331 1 -1.1104 6.39956 -1.21324 26.3975
320 1 -1.1104 6.78965 -4.32208 26.4382
321 1 -1.1104 6.63871 1.49122 26.4147
359 2 2.2208 7.91193 2.76299 22.1751
396 2 2.2208 10.7949 -5.72249 22.214
292 2 2.2208 10.9189 -5.63689 16.5722
327 1 -1.1104 6.52862 -1.47526 23.5621
297 1 -1.1104 6.63176 -4.06244 20.9365
383 1 -1.1104 9.68238 -1.36595 20.6817
374 1 -1.1104 12.4203 -1.75748 20.7779
386 1 -1.1104 9.46462 -4.52292 26.4522
391 2 2.2208 11.027 -2.94358 25.0874
390 1 -1.1104 9.2429 -4.27077 23.2606
355 1 -1.1104 9.28738 -1.63182 26.4948
358 1 -1.1104 9.31681 -1.46269 23.6614
360 2 2.2208 8.03762 -2.78212 22.0761
364 2 2.2208 7.65124 0.0863795 24.9826
366 1 -1.1104 12.0159 -4.30438 23.6906
368 1 -1.1104 12.0889 -1.68319 26.5611
372 1 -1.1104 12.3745 -4.24619 26.4673
373 2 2.2208 10.8237 -0.393159 22.3996
377 1 -1.1104 12.2951 -1.60573 23.7482
64 2 2.2208 -0.467266 0.0834787 27.7209
227 1 -1.1104 6.6631 6.68913 14.9903
267 1 -1.1104 12.6299 6.65453 15.2409
348 2 2.2208 -0.322333 -2.92974 24.7657
382 1 -1.1104 9.55027 6.73207 20.6464
385 1 -1.1104 9.2468 1.66138 26.3889
9616 2 2.2208 13.4621 5.73544 19.2829
316 1 -1.1104 6.55543 6.7079 23.6125
319 1 -1.1104 0.752137 7.19758 26.0809
298 1 -1.1104 6.54092 1.25245 20.8121
340 1 -1.1104 3.8322 6.81991 26.3046
361 1 -1.1104 9.60845 7.09693 26.5952
295 1 -1.1104 0.645393 0.692866 20.3808
310 2 2.2208 5.19138 5.43758 22.2481
312 1 -1.1104 0.992147 1.29407 23.1503
318 1 -1.1104 0.764796 1.37983 26.0836
324 2 2.2208 5.16194 2.73393 24.9984
326 1 -1.1104 0.898942 4.35807 23.5989
330 1 -1.1104 1.04466 4.07647 26.2205
334 2 2.2208 2.30385 5.59133 24.7404
336 1 -1.1104 3.74897 0.970499 23.5578
339 1 -1.1104 3.5231 1.17611 26.7084
342 2 2.2208 2.37005 2.66333 22.0208
344 1 -1.1104 3.76463 4.09833 23.7073
346 1 -1.1104 3.86201 4.02539 26.3978
315 1 -1.1104 6.42973 1.33603 23.6925
322 1 -1.1104 6.79446 6.95349 26.3254
313 1 -1.1104 0.971015 6.86995 23.3008
332 1 -1.1104 6.95211 4.20121 26.4351
55 2 2.2208 2.32063 -2.77477 27.899
387 1 -1.1104 9.3257 6.61977 23.4007
365 1 -1.1104 12.3518 3.77662 26.0153
357 2 2.2208 8.1932 5.45529 25.0174
299 1 -1.1104 6.41586 6.83103 20.9579
363 1 -1.1104 12.0854 0.923573 23.733
381 1 -1.1104 9.2651 1.36317 20.8843
370 1 -1.1104 12.2857 1.07425 20.8624
362 1 -1.1104 12.1639 0.936828 26.3521
328 1 -1.1104 6.44124 4.02548 23.5034
356 1 -1.1104 9.3621 4.03618 23.5394
389 1 -1.1104 9.27745 1.17977 23.584
354 1 -1.1104 9.47467 4.09549 26.588
379 1 -1.1104 12.2211 6.62895 26.3476
384 1 -1.1104 9.67806 3.96006 20.6342
306 1 -1.1104 3.80732 6.80011 20.6414
378 1 -1.1104 12.4133 6.7202 23.49
166 2 2.2208 -0.343659 2.6799 13.6877
68 2 2.2208 -0.558622 -5.80545 27.7929
56 2 2.2208 5.15957 5.53632 27.7856
63 2 2.2208 -0.38518 5.56844 27.6608
255 2 2.2208 -0.367651 5.47602 16.2461
347 2 2.2208 -0.393918 2.60276 24.7518
205 2 2.2208 13.6145 -0.000184845 13.6558
203 2 2.2208 7.97253 5.48531 13.6506
350 2 2.2208 -0.454393 -0.336756 22.0475
257 2 2.2208 2.25211 -5.68979 19.302
120 2 2.2208 10.8394 -5.77547 27.7298
54 2 2.2208 2.22632 2.94667 27.701
398 2 2.2208 5.34819 11.1691 4.89361
400 1 -1.1104 0.87569 12.2576 1.17129
406 1 -1.1104 0.825018 12.798 3.83621
410 2 2.2208 5.23379 8.20708 2.32097
413 1 -1.1104 0.918498 9.55858 0.942373
421 1 -1.1104 0.87934 9.86866 3.66507
425 2 2.2208 2.43578 11.0452 2.36385
427 1 -1.1104 3.77617 12.6011 0.813267
430 1 -1.1104 3.90076 12.5758 3.61844
432 2 2.2208 2.55244 8.06809 5.17742
435 1 -1.1104 3.68092 9.91585 0.627519
439 1 -1.1104 3.66204 9.56967 3.49324
403 1 -1.1104 6.65337 12.7617 0.917302
401 1 -1.1104 1.21877 12.7458 6.56175
418 1 -1.1104 6.61997 9.65019 6.21906
495 2 2.2208 13.6341 19.6787 5.19638
436 1 -1.1104 3.80034 9.62412 6.34778
584 2 2.2208 13.5664 11.144 8.04296
408 1 -1.1104 6.73931 12.8546 3.7568
423 1 -1.1104 6.46907 9.683 3.42993
417 1 -1.1104 6.71481 9.92099 0.771254
546 1 -1.1104 9.80374 15.5262 9.41171
453 2 2.2208 10.8151 11.0967 5.04784
455 1 -1.1104 12.1038 12.5025 0.852836
458 1 -1.1104 12.5169 12.7912 3.74405
460 2 2.2208 11.1699 8.45362 2.21099
463 1 -1.1104 12.3718 9.59649 1.04401
467 1 -1.1104 12.3067 9.81011 3.67853
469 2 2.2208 8.08168 11.2969 2.20664
471 1 -1.1104 9.60909 12.5728 0.830781
474 1 -1.1104 9.53206 12.4412 3.59742
476 2 2.2208 8.13956 8.19648 4.9911
479 1 -1.1104 9.56171 9.90878 0.76334
483 1 -1.1104 9.41692 9.7097 3.45466
533 2 2.2208 2.32001 16.8436 13.5819
464 1 -1.1104 12.3278 9.57406 6.5731
472 1 -1.1104 9.2806 12.7964 6.50479
411 2 2.2208 5.2083 14.0153 2.20509
433 2 2.2208 2.40215 13.914 4.99946
399 2 2.2208 5.18028 16.6714 5.11965
402 1 -1.1104 1.08866 17.9694 0.739527
407 1 -1.1104 0.782008 18.268 3.5972
412 2 2.2208 5.06997 19.5741 2.33822
415 1 -1.1104 0.730249 15.0188 0.559964
422 1 -1.1104 1.2413 15.4187 3.64796
426 2 2.2208 2.40137 16.6779 2.2833
429 1 -1.1104 3.73069 18.253 0.82319
431 1 -1.1104 3.55585 18.0795 3.44682
434 2 2.2208 2.46311 19.4335 5.24025
437 1 -1.1104 3.6856 15.4473 0.955309
440 1 -1.1104 3.95239 15.2788 3.69508
424 1 -1.1104 6.74931 15.217 3.53848
405 1 -1.1104 6.44586 18.2219 0.799204
420 1 -1.1104 6.77463 15.1069 6.38887
416 1 -1.1104 0.839341 15.2902 6.35312
438 1 -1.1104 3.80638 15.4043 6.53866
419 1 -1.1104 6.6648 15.4175 0.64211
569 2 2.2208 8.3649 16.7799 8.04724
577 2 2.2208 10.915 13.912 13.5916
536 2 2.2208 2.79556 11.1874 13.5327
477 2 2.2208 8.15413 13.8882 5.12798
409 1 -1.1104 6.32996 18.2826 4.23099
461 2 2.2208 11.062 14.0223 2.34613
454 2 2.2208 11.0261 16.7186 5.36147
457 1 -1.1104 12.0786 17.9951 1.21144
459 1 -1.1104 12.2253 18.2857 3.83833
462 2 2.2208 10.7076 19.3764 2.46461
465 1 -1.1104 12.3266 15.2561 1.05749
468 1 -1.1104 12.5072 15.485 3.9784
470 2 2.2208 7.9677 16.6073 2.13914
473 1 -1.1104 9.40532 18.3298 0.948028
475 1 -1.1104 9.28533 18.0057 3.86418
478 2 2.2208 7.87105 19.7279 5.20835
481 1 -1.1104 9.60603 15.4312 0.824838
484 1 -1.1104 9.52242 15.217 3.72917
561 1 -1.1104 9.43126 18.4474 6.50285
442 2 2.2208 2.41579 13.9131 -0.512517
539 2 2.2208 -0.432653 8.255 13.4624
482 1 -1.1104 9.59296 15.3 6.58328
535 2 2.2208 5.21673 8.26432 13.4811
542 2 2.2208 -0.525923 16.8746 10.6538
448 2 2.2208 -0.417025 8.46658 2.34241
404 1 -1.1104 6.7196 12.535 6.53856
414 1 -1.1104 1.23609 9.52002 6.33382
428 1 -1.1104 3.99383 12.3712 6.33116
499 2 2.2208 5.37912 11.2557 10.5455
501 1 -1.1104 0.911717 12.6061 12.1298
505 1 -1.1104 1.09652 12.5164 9.43948
509 2 2.2208 5.05314 8.56093 7.76612
512 1 -1.1104 1.09514 9.73231 12.2142
516 1 -1.1104 1.15116 9.60696 9.00302
520 2 2.2208 2.59342 11.0936 7.97333
522 1 -1.1104 3.62761 12.7095 12.2823
524 1 -1.1104 3.84313 12.6119 9.4915
526 2 2.2208 2.3711 8.30465 10.5033
529 1 -1.1104 3.91598 9.77564 12.2658
531 1 -1.1104 3.80838 9.91588 9.36327
514 1 -1.1104 6.56876 9.67484 12.0223
527 2 2.2208 2.37743 14.062 10.7552
553 2 2.2208 7.94738 14.1336 10.7799
578 2 2.2208 10.9235 8.32818 13.3957
560 1 -1.1104 12.2728 18.1053 6.50802
558 2 2.2208 10.9819 19.686 7.93764
507 1 -1.1104 6.62142 12.8173 9.33449
503 1 -1.1104 6.43797 12.5901 12.1885
518 1 -1.1104 6.50404 9.9091 9.16352
456 1 -1.1104 12.196 12.3455 6.58594
480 1 -1.1104 9.63926 9.73864 6.54121
572 1 -1.1104 12.4312 12.6542 12.241
570 2 2.2208 10.8297 11.343 10.8322
568 1 -1.1104 9.52073 12.7776 12.2621
557 1 -1.1104 12.2491 9.90518 12.3263
550 2 2.2208 8.0043 11.2708 7.80685
566 1 -1.1104 9.24387 12.6484 9.44929
549 1 -1.1104 9.30039 9.70486 12.1339
562 2 2.2208 10.9812 8.17946 8.17325
555 1 -1.1104 12.1839 9.64581 9.60766
554 2 2.2208 7.96306 8.48999 10.7159
564 1 -1.1104 12.0645 12.475 9.42145
547 1 -1.1104 9.40311 9.98614 9.39032
508 1 -1.1104 6.48102 18.2545 9.6418
556 1 -1.1104 12.344 15.5503 12.4783
447 2 2.2208 -0.488656 14.1268 2.27655
466 1 -1.1104 12.369 15.3331 6.91756
567 1 -1.1104 9.48974 18.1764 12.2341
496 1 -1.1104 0.761738 18.3946 6.49079
498 1 -1.1104 3.70888 18.1049 6.5676
510 2 2.2208 5.36503 14.2366 8.06494
500 2 2.2208 5.17605 16.9257 10.9804
502 1 -1.1104 0.814031 18.0961 12.1641
506 1 -1.1104 1.00827 18.0764 8.99331
511 2 2.2208 5.22966 19.7205 7.94896
513 1 -1.1104 1.26786 15.5034 12.1022
517 1 -1.1104 1.13568 15.4067 9.0771
521 2 2.2208 2.57078 16.7064 7.79475
523 1 -1.1104 3.66969 18.2941 12.3804
525 1 -1.1104 3.65435 18.3906 9.25531
528 2 2.2208 2.28859 19.4795 10.6547
530 1 -1.1104 3.95351 15.6004 12.477
532 1 -1.1104 4.08362 15.8124 9.45188
504 1 -1.1104 6.76258 18.4637 12.4167
515 1 -1.1104 6.79285 15.462 12.1495
551 1 -1.1104 12.2743 15.2516 9.65685
497 1 -1.1104 6.42586 18.1818 6.78898
565 1 -1.1104 9.52446 18.2973 9.34702
563 1 -1.1104 12.4419 18.1552 9.44141
559 2 2.2208 10.9255 13.8812 8.06733
571 2 2.2208 10.9104 16.6728 10.8523
519 1 -1.1104 6.88395 15.3991 9.24888
573 1 -1.1104 12.0649 18.1931 12.2964
446 2 2.2208 -0.535411 19.7269 2.3811
552 2 2.2208 8.06008 19.6784 10.584
548 1 -1.1104 9.40415 15.3801 12.1225
452 2 2.2208 -0.422413 11.3891 5.05546
538 2 2.2208 -0.490418 14.0984 7.88912
537 2 2.2208 -0.542457 19.7885 8.02849
541 2 2.2208 -0.512425 13.9827 13.4429
543 2 2.2208 -0.338348 10.9754 10.9146
540 2 2.2208 -0.315837 8.34505 7.7038
585 2 2.2208 10.7916 19.6488 13.4127
545 2 2.2208 -0.339688 19.5744 13.6413
441 2 2.2208 2.29132 19.5708 -0.48759
451 2 2.2208 -0.437149 11.1533 -0.461017
579 2 2.2208 7.92212 11.1425 13.5753
586 2 2.2208 5.32042 11.1107 16.4506
588 1 -1.1104 1.0811 12.395 17.8114
592 1 -1.1104 0.890093 12.6421 15.2134
596 2 2.2208 5.10072 8.30925 19.1316
599 1 -1.1104 0.85764 9.64112 17.7947
603 1 -1.1104 0.9397 9.8158 15.0092
607 2 2.2208 2.38518 10.9942 19.1753
609 1 -1.1104 3.93108 12.4592 17.8542
611 1 -1.1104 3.99768 12.5262 15.1527
613 2 2.2208 2.16753 8.35998 16.399
616 1 -1.1104 3.89296 9.63935 17.7535
618 1 -1.1104 3.73547 9.66267 15.016
654 2 2.2208 13.656 16.909 19.5131
594 1 -1.1104 6.72057 12.411 14.8669
620 2 2.2208 -0.361856 16.8492 16.5265
666 1 -1.1104 3.78984 12.3431 20.9727
662 1 -1.1104 0.876547 9.4631 20.481
487 2 2.2208 8.03807 8.53343 27.7159
601 1 -1.1104 6.80092 9.65196 17.7249
660 1 -1.1104 6.51716 12.5669 20.8143
605 1 -1.1104 6.65203 9.53265 14.8815
590 1 -1.1104 6.65601 12.4416 17.7374
625 2 2.2208 10.8347 11.0088 16.2558
627 1 -1.1104 12.2194 12.7466 17.8623
629 1 -1.1104 12.4155 12.3866 14.9325
632 2 2.2208 10.7836 8.47769 19.4408
635 1 -1.1104 12.2185 9.78878 18.0172
637 1 -1.1104 12.5058 9.58069 14.9222
639 2 2.2208 7.90463 11.0915 19.1704
641 1 -1.1104 9.46938 12.4391 18.0707
643 1 -1.1104 9.51758 12.4506 15.0583
646 2 2.2208 8.0787 8.11097 16.3362
649 1 -1.1104 9.44079 9.66739 18.0721
651 1 -1.1104 9.56802 9.54076 14.9341
444 2 2.2208 5.0052 16.7068 27.7891
722 1 -1.1104 12.4649 12.5661 20.7008
657 2 2.2208 13.6486 19.7184 16.1693
614 2 2.2208 2.38637 13.9517 16.4417
597 2 2.2208 4.85459 13.7771 19.2621
587 2 2.2208 5.06624 16.8355 16.4275
589 1 -1.1104 1.02416 18.2731 17.9079
593 1 -1.1104 0.97979 18.0145 15.1124
598 2 2.2208 5.1946 19.4118 19.4876
600 1 -1.1104 0.971981 15.2067 17.8098
604 1 -1.1104 1.11849 15.4325 14.9431
608 2 2.2208 2.21855 16.511 19.3115
610 1 -1.1104 3.94233 18.0976 18.0032
612 1 -1.1104 3.71656 18.0669 15.3094
615 2 2.2208 2.60636 19.6239 16.6197
617 1 -1.1104 3.78068 15.2864 18.0645
619 1 -1.1104 4.064 15.3588 15.4233
591 1 -1.1104 6.89994 18.6153 18.3986
669 1 -1.1104 3.63858 15.2902 20.6198
659 1 -1.1104 0.889146 18.2336 20.5878
667 1 -1.1104 3.67109 18.2122 20.6669
602 1 -1.1104 6.64969 15.7237 17.6095
661 1 -1.1104 6.54798 18.3186 21.157
706 2 2.2208 -0.433942 8.45726 24.7682
450 2 2.2208 -0.385748 16.8244 27.5648
606 1 -1.1104 6.88777 15.1365 15.108
595 1 -1.1104 6.48411 17.8843 15.1022
633 2 2.2208 11.2085 13.9744 19.5107
647 2 2.2208 8.15214 13.82 16.6128
626 2 2.2208 11.0027 16.6662 16.5183
628 1 -1.1104 12.4798 18.5332 17.914
630 1 -1.1104 12.1628 18.2878 15.1536
634 2 2.2208 10.8681 19.6832 19.1848
636 1 -1.1104 12.0105 15.5296 18.276
638 1 -1.1104 12.2824 15.1788 15.2968
640 2 2.2208 8.0912 16.7408 19.5326
642 1 -1.1104 9.71885 18.2112 17.75
644 1 -1.1104 9.52039 18.1251 14.9715
648 2 2.2208 8.02183 19.5912 16.6436
650 1 -1.1104 9.4886 15.3171 17.8491
652 1 -1.1104 9.67124 15.3223 15.1002
631 1 -1.1104 12.411 18.1614 20.8567
734 1 -1.1104 9.31232 18.2351 23.3498
727 1 -1.1104 12.2115 15.5012 20.89
645 1 -1.1104 9.72771 17.9695 20.5674
489 2 2.2208 10.9165 11.3665 27.6356
445 2 2.2208 5.24739 11.1902 27.6933
658 1 -1.1104 0.88616 12.5534 20.3959
679 1 -1.1104 6.48944 18.1521 26.2793
534 2 2.2208 5.35039 14.0196 13.6651
713 2 2.2208 7.85519 19.8276 22.2235
668 1 -1.1104 3.76589 9.59865 20.4016
576 2 2.2208 8.24591 16.6962 13.7189
670 2 2.2208 5.4834 11.0861 22.0514
672 1 -1.1104 0.737994 12.3475 23.4523
676 1 -1.1104 1.00481 12.4272 26.5211
680 2 2.2208 5.30183 8.38361 24.8321
683 1 -1.1104 1.28136 9.67225 23.3935
687 1 -1.1104 0.970786 9.7515 26.3273
691 2 2.2208 2.36466 11.0658 24.8455
693 1 -1.1104 3.811 12.5838 23.7186
695 1 -1.1104 3.57729 12.3044 26.4352
697 2 2.2208 2.49399 8.19436 22.0865
700 1 -1.1104 3.88751 9.87377 23.3878
702 1 -1.1104 3.52957 9.72891 26.1935
674 1 -1.1104 6.64894 12.4525 23.5984
678 1 -1.1104 6.47689 12.484 26.4075
685 1 -1.1104 6.88975 9.67049 23.3975
705 2 2.2208 -0.369892 14.0399 24.8843
621 2 2.2208 -0.266986 19.6428 19.275
664 1 -1.1104 6.63796 9.74553 20.6146
731 1 -1.1104 9.33968 9.57604 20.7512
726 1 -1.1104 12.3323 9.86534 20.8367
714 2 2.2208 8.06326 13.9451 22.1664
689 1 -1.1104 6.57194 9.81502 26.3433
730 1 -1.1104 9.21956 12.4441 20.8854
740 1 -1.1104 12.472 12.6912 23.4882
738 2 2.2208 10.9382 11.0225 22.1311
737 2 2.2208 8.29658 11.1294 24.7256
710 1 -1.1104 9.68733 9.64604 26.1145
712 1 -1.1104 9.66549 9.59965 23.3952
715 2 2.2208 7.9671 8.03886 22.0876
717 2 2.2208 10.99 8.2133 24.783
721 1 -1.1104 12.4469 9.70352 26.4667
723 1 -1.1104 12.3517 12.5896 26.2908
729 1 -1.1104 12.1929 9.96264 23.7181
733 1 -1.1104 9.58279 12.5708 26.3395
735 1 -1.1104 9.76015 12.5485 23.4906
675 1 -1.1104 6.47902 17.9399 23.5138
663 1 -1.1104 0.804852 15.104 20.6596
681 2 2.2208 5.2058 13.9438 24.9597
698 2 2.2208 2.24329 13.9086 22.0118
671 2 2.2208 5.11314 16.8364 22.0962
673 1 -1.1104 0.930494 18.051 23.4401
677 1 -1.1104 0.910075 18.3087 26.3434
682 2 2.2208 5.17569 19.5334 24.9392
684 1 -1.1104 0.967379 15.1609 23.4897
688 1 -1.1104 1.02526 15.3284 26.244
692 2 2.2208 2.27506 16.8529 24.7805
694 1 -1.1104 3.81756 18.2695 23.5351
696 1 -1.1104 3.59083 18.1239 26.3526
699 2 2.2208 2.33568 19.6569 22.2869
701 1 -1.1104 3.75668 15.5341 23.5091
703 1 -1.1104 3.79427 15.3634 26.4823
665 1 -1.1104 6.39071 15.4738 20.6022
686 1 -1.1104 6.51744 15.2131 23.2451
653 2 2.2208 13.6778 11.1243 19.3928
719 1 -1.1104 12.5415 15.6263 26.4735
728 1 -1.1104 12.1204 18.3367 23.6782
720 1 -1.1104 12.3724 18.1636 26.6787
732 1 -1.1104 9.57889 15.1632 20.7642
690 1 -1.1104 6.49438 15.4843 26.4063
718 2 2.2208 10.8796 19.7895 25.0638
724 2 2.2208 11.0288 14.0364 25.0638
709 1 -1.1104 9.55823 15.282 26.3965
736 2 2.2208 7.91045 16.7724 24.8478
711 1 -1.1104 9.5416 15.3498 23.6923
739 2 2.2208 10.8955 16.9742 22.2967
716 1 -1.1104 9.44121 18.1356 26.1805
725 1 -1.1104 12.3784 15.5502 23.6881
488 2 2.2208 10.9971 16.8419 27.7129
743 2 2.2208 13.7841 8.42934 22.2147
443 2 2.2208 2.24342 8.47862 27.7649
485 2 2.2208 7.70606 19.6794 27.7121
544 2 2.2208 5.27691 19.5829 13.8107
486 2 2.2208 7.95716 14.0989 27.7006
746 2 2.2208 5.10656 22.311 5.17215
749 1 -1.1104 0.883678 23.417 1.1238
753 1 -1.1104 0.94881 23.9349 3.98945
757 2 2.2208 5.10285 25.202 2.25018
759 1 -1.1104 0.791796 20.8479 0.936196
765 1 -1.1104 0.78835 21.0298 4.0857
771 2 2.2208 2.25264 22.3319 2.40271
773 1 -1.1104 3.80767 23.9565 0.940427
775 1 -1.1104 3.46004 23.7533 3.41414
778 2 2.2208 2.33216 25.2596 5.19443
780 1 -1.1104 3.65473 21.0746 0.875679
783 1 -1.1104 3.77567 20.893 3.65502
760 1 -1.1104 0.602389 26.2432 1.12845
781 1 -1.1104 3.71335 26.6741 0.935355
766 1 -1.1104 1.02362 27.1112 3.61547
755 1 -1.1104 6.43507 23.8058 3.64587
751 1 -1.1104 6.53809 23.7755 1.02044
763 1 -1.1104 6.4979 26.6862 0.85316
840 1 -1.1104 3.5987 21.072 6.43834
832 1 -1.1104 1.14678 21.1345 6.89829
833 1 -1.1104 0.779702 26.4787 6.52111
838 1 -1.1104 3.99368 24.0094 6.58204
828 1 -1.1104 0.924723 23.8827 6.78303
830 1 -1.1104 6.87606 23.8717 6.631
768 1 -1.1104 6.66706 20.9547 3.59881
762 1 -1.1104 6.17548 21.0628 0.970702
835 1 -1.1104 6.42329 21.2048 6.57
793 2 2.2208 10.9124 22.5798 5.11736
795 1 -1.1104 12.2413 23.7469 0.915847
797 1 -1.1104 12.2885 23.8652 3.68622
799 2 2.2208 10.8045 25.2774 2.3134
801 1 -1.1104 11.949 21.2145 0.933321
804 1 -1.1104 12.2971 20.9961 3.66879
807 2 2.2208 8.03809 22.421 2.34579
809 1 -1.1104 9.24365 23.7716 0.913455
811 1 -1.1104 9.28888 24.0591 3.56816
814 2 2.2208 7.8443 25.2703 5.02081
816 1 -1.1104 9.14875 20.9107 0.833403
819 1 -1.1104 9.52986 20.9187 3.62464
805 1 -1.1104 12.3144 26.375 3.62053
769 1 -1.1104 6.55319 26.7523 3.42954
802 1 -1.1104 12.3759 26.7994 0.413619
817 1 -1.1104 9.33543 26.5183 0.828778
904 1 -1.1104 9.26654 26.7872 6.3873
985 2 2.2208 5.29131 25.3301 13.4678
923 1 -1.1104 12.4014 32.4301 9.31699
784 1 -1.1104 3.722 26.5816 3.95128
748 2 2.2208 5.17835 28.1895 5.01114
750 1 -1.1104 1.11092 29.6294 0.814149
754 1 -1.1104 0.906187 29.7994 3.70302
758 2 2.2208 5.19201 30.9638 2.4104
761 1 -1.1104 1.03318 32.0894 0.655043
767 1 -1.1104 1.13493 32.5238 3.97101
772 2 2.2208 2.55114 28.077 2.28949
774 1 -1.1104 3.97219 29.519 0.84959
776 1 -1.1104 3.64486 29.3003 3.81419
779 2 2.2208 2.18488 30.9047 5.05377
782 1 -1.1104 3.53953 32.3567 1.18078
785 1 -1.1104 3.70493 32.1339 3.71778
752 1 -1.1104 6.59799 29.5017 0.684136
756 1 -1.1104 6.5594 29.3845 3.74974
770 1 -1.1104 6.55775 32.4888 3.80056
831 1 -1.1104 6.53167 29.4609 6.3587
842 1 -1.1104 4.01189 32.3696 6.91177
829 1 -1.1104 0.683987 29.4281 6.65261
787 2 2.2208 -0.292111 22.346 5.38664
882 2 2.2208 -0.317309 22.4644 10.9512
820 1 -1.1104 9.30644 26.7924 3.7809
764 1 -1.1104 6.33573 32.4505 1.07817
905 1 -1.1104 9.57218 32.2256 6.52227
794 2 2.2208 10.8082 27.8857 4.96946
796 1 -1.1104 11.9091 29.2074 1.09531
798 1 -1.1104 12.1215 29.5993 3.79844
800 2 2.2208 10.9418 30.9624 2.38188
803 1 -1.1104 12.174 32.1832 1.09361
806 1 -1.1104 12.2833 32.5027 3.79839
808 2 2.2208 7.90768 28.0644 2.08949
810 1 -1.1104 9.35244 29.3597 0.804412
812 1 -1.1104 9.59565 29.6966 3.46806
815 2 2.2208 8.22603 31.0249 4.90512
818 1 -1.1104 9.48062 32.5444 0.937221
821 1 -1.1104 9.44446 32.6152 3.84784
899 1 -1.1104 12.1119 32.4232 6.59407
837 1 -1.1104 6.58496 32.1746 6.54792
896 1 -1.1104 12.1706 29.4667 6.31533
890 1 -1.1104 9.73041 29.5855 12.0198
825 2 2.2208 13.4646 22.4601 2.28724
913 1 -1.1104 12.5978 29.3496 12.2552
1033 2 2.2208 11.0899 30.8906 13.6211
844 2 2.2208 5.32303 22.6053 10.8174
846 1 -1.1104 0.89442 23.6992 12.3277
850 1 -1.1104 1.00246 23.9986 9.60367
854 2 2.2208 5.25888 25.3014 7.9884
856 1 -1.1104 1.29987 21.1698 12.1642
862 1 -1.1104 0.811976 20.9361 9.64227