ITEM: TIMESTEP
10000
ITEM: NUMBER OF ATOMS
13500
ITEM: BOX BOUNDS pp pp pp
-4.3922752419894739e-01 2.7779227524198877e+01
-4.0169733644892451e+00 2.5007697336448979e+02
-4.4268320079169393e-01 2.7782683200791791e+01
ITEM: ATOMS id type q x y z
2 2 2.2208 5.13211 1.61214 5.33302
3 1 -1.1104 0.985113 -2.65396 1.30519
11 1 -1.1104 0.951726 -2.76752 4.00144
15 1 -1.1104 1.00317 0.17542 0.851633
19 2 2.2208 5.12337 -1.03547 2.6633
21 1 -1.1104 0.834126 0.172198 3.93983
23 1 -1.1104 3.90638 -2.52907 1.14328
28 2 2.2208 2.44166 1.66794 2.30478
29 1 -1.1104 3.75778 -2.56027 3.80165
31 2 2.2208 2.2351 -1.36524 5.32539
33 1 -1.1104 3.84912 0.247746 1.05127
35 1 -1.1104 3.67478 0.30083 3.84231
253 2 2.2208 7.89097 12.9819 13.6213
6750 2 2.2208 -0.406065 -1.26394 8.15572
322 2 2.2208 7.94034 -3.71919 13.678
13 1 -1.1104 6.66899 -2.452 3.75024
246 1 -1.1104 12.4801 11.7802 9.64029
16 1 -1.1104 1.07455 0.0522017 6.74382
97 2 2.2208 5.08045 7.39484 -0.387492
256 2 2.2208 13.6201 7.29691 7.7761
7 1 -1.1104 6.82321 -2.57184 1.06989
22 1 -1.1104 6.56088 0.291032 3.88203
17 1 -1.1104 6.48016 0.35222 1.02033
36 2 2.2208 10.7826 1.622 5.23947
37 1 -1.1104 12.4714 -2.6899 0.813109
41 1 -1.1104 12.5563 -2.52007 3.47526
43 1 -1.1104 12.3596 0.145823 1.08002
45 2 2.2208 11.0658 -1.32658 2.30795
47 1 -1.1104 12.5418 0.449264 3.9117
48 1 -1.1104 9.56224 -2.69666 1.0961
52 2 2.2208 8.00692 1.86092 2.30066
53 1 -1.1104 9.37288 -2.60935 3.83696
55 2 2.2208 8.06175 -1.01236 5.30211
57 1 -1.1104 9.74266 0.084688 1.08
59 1 -1.1104 9.50716 0.308706 3.82613
435 2 2.2208 10.944 1.64047 -0.384872
58 1 -1.1104 9.41489 0.329979 6.77026
173 2 2.2208 5.11083 -3.95646 10.9266
254 2 2.2208 10.8819 10.1825 13.651
5 1 -1.1104 0.818767 2.8983 0.838286
12 1 -1.1104 0.927337 2.85507 3.68952
20 2 2.2208 5.13467 4.58541 2.4394
25 1 -1.1104 3.64551 3.04608 1.10203
30 1 -1.1104 3.90103 2.92884 3.84563
32 2 2.2208 2.44588 4.36601 5.14224
63 2 2.2208 5.23294 7.22286 5.39718
70 1 -1.1104 1.05421 8.63119 3.79823
72 1 -1.1104 0.984184 5.82444 1.05672
78 1 -1.1104 1.17942 5.82927 3.84913
80 1 -1.1104 3.6441 8.85916 1.11808
84 2 2.2208 2.29459 7.31708 2.44184
86 1 -1.1104 3.74942 8.56969 3.97837
89 1 -1.1104 3.81939 6.01005 0.960661
93 1 -1.1104 3.76434 5.76101 3.90053
65 1 -1.1104 0.896196 8.63034 0.926317
197 2 2.2208 10.7575 -3.74341 10.8735
81 1 -1.1104 3.72722 8.57005 6.82981
1 2 2.2208 5.08958 -3.86549 5.09211
9 1 -1.1104 6.61645 3.0934 0.917672
104 1 -1.1104 6.65918 5.90993 0.708235
221 1 -1.1104 6.54397 11.5943 12.3735
174 2 2.2208 8.01094 1.70598 13.3814
241 2 2.2208 8.0445 12.9167 8.13235
143 2 2.2208 7.78177 10.2533 -0.357637
60 2 2.2208 10.8939 -3.91038 5.15378
107 1 -1.1104 6.60427 5.89556 3.57665
99 1 -1.1104 6.41255 8.65182 1.18545
102 1 -1.1104 6.49269 8.41373 3.96341
14 1 -1.1104 6.68692 3.20988 3.6152
39 1 -1.1104 12.3667 3.07967 0.938962
42 1 -1.1104 12.1638 3.02768 3.74042
46 2 2.2208 10.9201 4.65276 2.30522
50 1 -1.1104 9.49727 3.03126 0.934255
54 1 -1.1104 9.47315 3.14917 3.77738
56 2 2.2208 8.0821 4.39812 5.24592
109 2 2.2208 10.845 7.29955 5.22667
111 1 -1.1104 12.3234 8.81911 0.895802
115 1 -1.1104 12.4409 8.8696 3.63289
117 1 -1.1104 12.4015 6.05592 1.08589
122 1 -1.1104 12.2024 5.94925 3.75735
124 1 -1.1104 9.56476 8.8116 0.852348
128 2 2.2208 8.01911 7.17565 2.32929
130 1 -1.1104 9.54402 8.65687 3.66151
133 1 -1.1104 9.4325 5.85773 0.676984
137 1 -1.1104 9.20476 5.8147 3.84605
112 1 -1.1104 12.2019 8.77885 6.5109
248 1 -1.1104 12.2209 14.6535 9.45455
134 1 -1.1104 9.51802 5.78597 6.80181
196 2 2.2208 7.90029 -3.87729 8.01747
64 2 2.2208 5.04435 13.0067 5.25483
67 1 -1.1104 0.678708 14.2613 1.13881
71 1 -1.1104 1.02859 14.3548 3.75518
74 1 -1.1104 0.843552 11.485 1.13339
77 2 2.2208 4.97228 10.0471 2.54811
79 1 -1.1104 1.18359 11.4292 3.81517
82 1 -1.1104 3.53302 14.4205 0.990113
83 1 -1.1104 3.59495 14.3482 6.71425
85 2 2.2208 2.2521 12.9247 2.37883
87 1 -1.1104 3.6599 14.264 3.82415
88 2 2.2208 2.34298 10.0018 5.25989
91 1 -1.1104 3.6405 11.4624 1.02911
94 1 -1.1104 3.7156 11.6496 3.66358
237 2 2.2208 10.8839 13.2766 10.8224
61 2 2.2208 8.08238 -3.90761 2.55694
6601 2 2.2208 -0.41478 1.6139 5.22802
68 1 -1.1104 0.923496 14.1267 6.59994
142 2 2.2208 10.825 12.8015 -0.328936
100 1 -1.1104 6.27707 14.3109 0.903779
105 1 -1.1104 6.41933 11.5427 1.12598
108 1 -1.1104 6.52755 11.3585 3.85386
103 1 -1.1104 6.5691 14.273 3.84222
110 2 2.2208 10.7611 12.88 5.10954
113 1 -1.1104 12.5435 14.3211 0.851236
116 1 -1.1104 12.2792 14.4139 3.77562
119 1 -1.1104 12.2777 11.5111 1.16228
121 2 2.2208 10.8711 10.2125 2.39963
123 1 -1.1104 12.2481 11.5845 3.88124
126 1 -1.1104 9.36645 14.2779 0.932333
129 2 2.2208 7.75124 12.9458 2.47772
131 1 -1.1104 9.28516 14.3106 3.80451
132 2 2.2208 7.88319 9.98959 5.22869
135 1 -1.1104 9.47885 11.6125 1.04734
138 1 -1.1104 9.38781 11.291 4.06226
114 1 -1.1104 12.1325 14.181 6.76753
386 2 2.2208 5.40849 -3.91346 -0.286332
235 1 -1.1104 9.50529 14.4043 9.40734
34 1 -1.1104 3.8481 0.164103 6.54749
24 1 -1.1104 3.63783 -2.69997 6.73678
4 1 -1.1104 0.842058 -2.67559 6.64636
146 2 2.2208 5.23593 1.64487 10.7602
147 1 -1.1104 1.14388 -2.56312 12.4493
150 1 -1.1104 1.06964 -2.59129 9.55828
154 1 -1.1104 1.2251 0.207755 12.3819
156 2 2.2208 5.18991 -1.23507 7.93886
158 1 -1.1104 0.898616 0.117984 9.46272
160 1 -1.1104 3.78659 -2.57804 12.135
162 2 2.2208 2.32921 1.59586 8.07653
163 1 -1.1104 3.92103 -2.69757 9.35902
165 2 2.2208 2.45707 -1.23279 10.8275
167 1 -1.1104 3.96186 0.488852 12.1001
168 1 -1.1104 3.62674 0.133609 9.2911
152 1 -1.1104 6.61859 -2.63414 9.3691
18 1 -1.1104 6.64596 0.305747 6.62646
8 1 -1.1104 6.58774 -2.45344 6.54953
159 1 -1.1104 6.29858 0.160969 9.50106
149 1 -1.1104 6.49638 -2.39073 12.3166
415 2 2.2208 2.3246 -1.22873 -0.361574
444 2 2.2208 8.19954 -1.12814 -0.424406
44 1 -1.1104 12.2513 0.244037 6.67384
38 1 -1.1104 12.0324 -2.36011 6.36991
155 1 -1.1104 6.7476 0.224919 12.2666
49 1 -1.1104 9.42617 -2.62255 6.59236
177 2 2.2208 10.9914 1.59193 10.8305
178 1 -1.1104 12.1525 -2.50992 12.2832
180 1 -1.1104 12.2395 -2.50691 9.47507
182 1 -1.1104 12.1217 0.362811 12.3384
183 2 2.2208 10.8272 -1.08801 8.0232
185 1 -1.1104 12.4054 0.271694 9.65794
186 1 -1.1104 9.36189 -2.49293 12.2645
188 2 2.2208 7.89897 1.67719 8.01251
189 1 -1.1104 9.37605 -2.4674 9.37379
191 2 2.2208 7.95006 -1.24686 10.7296
193 1 -1.1104 9.47501 0.103199 12.1793
194 1 -1.1104 9.63913 0.147409 9.47466
40 1 -1.1104 12.1334 3.12543 6.64206
66 1 -1.1104 0.914174 8.72794 6.64466
6 1 -1.1104 1.09691 2.97706 6.40693
90 1 -1.1104 3.99145 5.73573 6.69618
26 1 -1.1104 3.87114 2.95971 6.6684
73 1 -1.1104 1.04966 5.91457 6.62886
148 1 -1.1104 0.971666 3.16313 12.2074
151 1 -1.1104 0.919441 2.8964 9.34803
157 2 2.2208 5.28156 4.29746 8.12985
161 1 -1.1104 3.81799 3.31101 12.2748
164 1 -1.1104 3.95577 3.00275 9.52801
166 2 2.2208 2.36849 4.41811 10.734
201 1 -1.1104 4.00077 5.87201 9.54986
203 1 -1.1104 3.86242 5.96408 12.4087
206 1 -1.1104 3.74818 8.60611 9.68967
208 2 2.2208 2.37446 7.48701 8.15177
210 2 2.2208 5.3092 7.28391 10.8745
212 1 -1.1104 0.941774 8.73887 12.3373
215 1 -1.1104 1.00566 8.55138 9.59206
218 1 -1.1104 0.966045 5.88618 12.2161
223 1 -1.1104 0.986337 5.74763 9.51652
176 1 -1.1104 6.74355 3.18812 12.1281
220 1 -1.1104 6.50238 5.91474 12.1949
198 1 -1.1104 3.88935 8.885 12.3822
6627 2 2.2208 -0.36178 4.44777 2.61102
76 1 -1.1104 6.68028 5.75418 6.47396
118 1 -1.1104 12.1561 5.96477 6.54363
69 1 -1.1104 6.6185 8.84469 6.73222
127 1 -1.1104 9.4129 14.304 6.49808
10 1 -1.1104 6.75858 2.92405 6.48249
153 1 -1.1104 6.68451 2.98769 9.32222
125 1 -1.1104 9.14845 8.50615 6.4525
51 1 -1.1104 9.32682 2.99675 6.69215
214 1 -1.1104 6.66938 8.73906 12.3092
225 1 -1.1104 6.94619 5.7233 9.21829
217 1 -1.1104 6.5654 8.77956 9.42752
245 1 -1.1104 9.64835 8.63281 12.3682
250 1 -1.1104 12.3844 5.88587 9.17643
249 1 -1.1104 12.2911 8.86413 9.38454
179 1 -1.1104 12.4099 3.10334 12.096
181 1 -1.1104 12.1033 3.18565 9.43557
184 2 2.2208 10.8442 4.39272 8.03957
187 1 -1.1104 9.63915 3.01982 12.1799
190 1 -1.1104 9.1954 2.94951 9.36916
192 2 2.2208 8.13219 4.56867 10.8362
247 1 -1.1104 12.1336 5.8314 12.3605
230 1 -1.1104 9.8174 5.89679 9.66857
232 1 -1.1104 9.10136 5.70017 12.6291
236 1 -1.1104 12.2708 8.54729 12.2647
238 2 2.2208 11.3007 7.31378 10.7528
240 1 -1.1104 9.41353 8.64769 9.58916
242 2 2.2208 8.02803 7.28376 8.00788
75 1 -1.1104 0.868952 11.598 6.65358
92 1 -1.1104 3.72433 11.3797 6.40226
200 1 -1.1104 3.8053 11.498 9.28319
202 1 -1.1104 3.74031 11.5887 12.3645
204 2 2.2208 2.40662 10.0966 10.8471
205 1 -1.1104 3.72737 14.4272 9.42166
207 2 2.2208 2.30896 12.9972 8.05063
209 1 -1.1104 3.9284 14.2598 12.2845
211 2 2.2208 5.1245 12.8107 10.8062
213 1 -1.1104 0.894817 14.2877 12.4499
216 1 -1.1104 0.952054 14.2651 9.34715
219 1 -1.1104 1.07704 11.5563 11.9893
222 2 2.2208 5.2218 10.0964 8.15108
224 1 -1.1104 1.30243 11.3782 9.3428
6751 2 2.2208 -0.362535 1.59292 10.9412
234 2 2.2208 8.19841 10.0884 10.9601
233 1 -1.1104 12.2958 14.2926 12.2522
243 1 -1.1104 9.5473 14.3007 12.3415
244 1 -1.1104 12.5005 11.3991 12.4906
101 1 -1.1104 6.50717 14.4692 6.63962
199 1 -1.1104 6.88798 11.4334 9.49462
120 1 -1.1104 12.4128 11.3792 6.79217
251 1 -1.1104 6.5567 14.3851 12.0598
231 1 -1.1104 9.24204 11.432 12.3833
229 1 -1.1104 9.80133 11.4692 9.40544
239 2 2.2208 10.8307 10.0118 8.03107
136 1 -1.1104 9.35701 11.346 6.74344
252 1 -1.1104 6.49292 14.067 9.17196
106 1 -1.1104 6.55092 11.6099 6.65701
27 2 2.2208 2.46615 -4.02734 2.57232
6752 2 2.2208 -0.42625 4.61738 8.09239
6677 2 2.2208 -0.38305 12.859 5.29964
6771 2 2.2208 -0.408075 4.32206 13.5137
95 2 2.2208 4.96841 13.0077 -0.257699
6708 2 2.2208 -0.34212 10.1214 2.57357
6836 2 2.2208 -0.387799 10.1083 8.23666
6749 2 2.2208 -0.371584 -4.00896 11.0487
6715 2 2.2208 13.5248 1.86498 8.00672
6594 2 2.2208 13.6538 4.39165 4.92744
6709 2 2.2208 -0.203219 7.16932 5.24462
62 2 2.2208 13.5934 4.55305 -0.313539
387 2 2.2208 2.41464 4.46397 -0.417906
259 2 2.2208 13.6232 12.9557 13.5067
171 2 2.2208 5.24258 4.56588 13.5388
411 2 2.2208 5.24378 1.57188 -0.347971
228 2 2.2208 2.27489 12.9215 13.6442
96 2 2.2208 2.35775 10.2262 -0.278605
260 2 2.2208 5.11518 1.93142 16.5059
261 1 -1.1104 0.87435 -2.49398 18.0514
263 1 -1.1104 1.11639 -2.64291 15.4713
268 1 -1.1104 1.12629 0.344465 17.8993
269 2 2.2208 5.37044 -1.05363 19.4321
271 1 -1.1104 1.16015 0.0500834 15.2805
273 1 -1.1104 3.76009 -2.36082 18.1123
276 2 2.2208 2.45944 1.79496 19.2931
277 1 -1.1104 3.83415 -2.15925 15.0189
281 2 2.2208 2.53032 -1.22801 16.5089
283 1 -1.1104 4.08022 0.502337 18.0954
284 1 -1.1104 4.10986 0.368065 15.0695
288 1 -1.1104 6.8012 -2.46811 18.0046
293 1 -1.1104 6.78148 0.264505 17.9851
294 1 -1.1104 6.7982 0.457956 15.0223
437 2 2.2208 10.98 -3.92569 22.0502
295 1 -1.1104 6.84447 0.498988 20.6239
291 1 -1.1104 6.56985 -2.43509 20.7543
412 2 2.2208 5.28365 -3.99929 22.1524
6841 2 2.2208 13.6107 4.36823 16.4166
290 1 -1.1104 6.64443 -2.43383 15.1986
296 2 2.2208 10.7452 1.73638 16.3178
297 1 -1.1104 12.2036 -2.706 17.9064
299 1 -1.1104 12.1003 -2.51859 14.9932
303 1 -1.1104 12.2789 0.111979 17.8977
304 2 2.2208 10.8706 -1.06181 19.3066
306 1 -1.1104 12.3946 0.275949 15.1883
308 1 -1.1104 9.42467 -2.36122 17.8294
310 2 2.2208 8.27425 1.70046 19.3237
311 1 -1.1104 9.28521 -2.42825 15.1219
315 2 2.2208 7.97919 -1.04777 16.5344
317 1 -1.1104 9.62606 0.30285 17.9894
318 1 -1.1104 9.36624 0.235159 15.0266
439 2 2.2208 8.15322 -3.94728 24.9928
275 2 2.2208 2.41974 -3.72128 19.4113
504 1 -1.1104 12.343 14.392 23.5233
145 2 2.2208 13.3991 10.1458 27.7198
6873 2 2.2208 13.4968 -1.17466 16.513
307 1 -1.1104 12.191 0.333955 20.609
300 1 -1.1104 12.1297 -2.40446 20.6947
509 1 -1.1104 6.18892 14.5028 26.5902
320 2 2.2208 10.7934 -3.83681 16.3643
383 2 2.2208 13.5233 10.2177 16.479
226 2 2.2208 5.10901 10.1435 13.7584
321 2 2.2208 8.05587 -3.95197 19.3007
262 1 -1.1104 1.11308 3.12023 17.8662
265 1 -1.1104 0.83447 2.7778 15.0953
270 2 2.2208 5.52275 4.59863 19.1271
274 1 -1.1104 3.81615 3.34154 17.6607
279 1 -1.1104 3.67202 3.21533 15.0398
282 2 2.2208 2.35505 4.71136 16.4929
323 2 2.2208 5.25558 7.31505 16.4536
325 1 -1.1104 0.837522 8.55252 18.0586
328 1 -1.1104 0.955143 8.76234 15.3237
331 1 -1.1104 0.951302 5.8536 18.0048
335 1 -1.1104 0.87631 5.85124 14.9114
340 1 -1.1104 3.76179 8.76606 17.9787
342 2 2.2208 2.4889 7.29854 19.431
344 1 -1.1104 3.6754 8.65654 15.1417
348 1 -1.1104 3.94098 5.97868 17.6615
350 1 -1.1104 3.74313 5.96031 15.2227
351 1 -1.1104 4.02037 5.96568 20.777
330 1 -1.1104 6.61362 8.75745 15.1232
292 1 -1.1104 6.48059 3.10184 14.9749
497 1 -1.1104 9.64479 11.6289 20.7109
286 2 2.2208 4.95431 -3.6862 16.5309
280 1 -1.1104 3.87786 3.23302 20.6205
267 1 -1.1104 6.7924 3.14852 20.622
144 2 2.2208 10.6568 7.40479 27.6571
327 1 -1.1104 6.34269 8.75609 17.8887
338 1 -1.1104 6.69799 5.95935 14.9199
333 1 -1.1104 6.88868 5.87801 17.7489
289 1 -1.1104 6.58587 3.04673 17.7272
298 1 -1.1104 12.2378 2.96862 17.9363
301 1 -1.1104 12.212 3.13937 14.8235
305 2 2.2208 10.8939 4.66331 19.2873
309 1 -1.1104 9.478 3.18904 17.7562
313 1 -1.1104 9.37362 3.01348 15.0209
316 2 2.2208 7.9553 4.34818 16.2622
358 2 2.2208 10.7723 7.42572 16.5756
360 1 -1.1104 12.0529 8.4514 18.1706
362 1 -1.1104 12.1434 8.73123 15.3417
364 1 -1.1104 12.2344 5.85533 17.8823
367 1 -1.1104 12.2763 5.92719 15.0358
370 1 -1.1104 9.26045 9.08003 17.9776
372 2 2.2208 8.21878 7.38551 19.2673
374 1 -1.1104 9.57117 8.75526 15.2461
378 1 -1.1104 9.49946 5.82473 18.0275
380 1 -1.1104 9.62899 5.8157 15.1649
496 1 -1.1104 9.77358 8.60241 20.8266
339 1 -1.1104 6.68096 6.04426 20.6346
476 2 2.2208 -0.443285 7.30157 22.0241
227 2 2.2208 2.48274 7.29477 13.8699
7001 2 2.2208 -0.424551 -1.14883 25.0764
506 1 -1.1104 12.4928 11.5851 26.4811
6907 2 2.2208 -0.414969 1.51474 16.5213
324 2 2.2208 5.11744 13.0484 16.5133
326 1 -1.1104 1.0124 14.2553 18.1163
329 1 -1.1104 1.13044 14.5158 15.3093
332 1 -1.1104 0.689849 11.4148 17.9986
334 2 2.2208 5.39547 10.2123 19.5229
337 1 -1.1104 0.743423 11.5337 14.9855
341 1 -1.1104 3.88373 14.3084 17.8701
343 2 2.2208 2.48463 13.0963 19.3323
345 1 -1.1104 4.02662 14.6932 15.3395
347 2 2.2208 2.2596 10.1719 16.8178
349 1 -1.1104 3.63392 11.6502 17.8973
352 1 -1.1104 3.45172 11.5354 15.1221
346 1 -1.1104 3.93175 14.4774 20.8298
354 1 -1.1104 6.43431 14.3976 14.7344
7002 2 2.2208 -0.246705 1.71874 22.3104
477 1 -1.1104 9.48794 11.3762 26.4348
357 1 -1.1104 6.24983 11.6563 15.1543
353 1 -1.1104 6.5589 14.56 18.0209
356 1 -1.1104 6.62952 11.6367 18.0564
359 2 2.2208 10.8371 13.0043 16.5196
361 1 -1.1104 12.0928 14.2865 17.8999
363 1 -1.1104 12.3244 14.2818 14.9228
365 1 -1.1104 12.2112 11.5144 17.9146
366 2 2.2208 10.9087 10.1626 19.364
369 1 -1.1104 12.1246 11.5408 15.1406
371 1 -1.1104 9.40736 14.7472 17.8321
373 2 2.2208 7.98969 13.1167 19.2569
375 1 -1.1104 9.45507 14.6123 15.1406
377 2 2.2208 7.93947 10.2805 16.605
379 1 -1.1104 9.41341 11.6044 17.8422
382 1 -1.1104 9.23045 11.8811 15.2988
376 1 -1.1104 9.17944 14.4655 20.8679
911 2 2.2208 4.91203 15.5725 25.0578
494 1 -1.1104 12.4488 11.5637 20.7308
264 1 -1.1104 0.967267 -2.61548 20.6046
285 1 -1.1104 3.96135 0.313125 20.8895
6904 2 2.2208 -0.384682 -1.06496 19.4078
6879 2 2.2208 -0.45069 4.37488 19.3783
278 1 -1.1104 3.85128 -2.62397 20.7548
272 1 -1.1104 1.03691 0.255966 20.8838
388 2 2.2208 5.28151 1.77022 22.1336
389 1 -1.1104 1.16887 -2.67858 23.5368
392 1 -1.1104 0.898236 -2.59522 26.5511
396 1 -1.1104 1.04464 0.184972 23.7927
398 2 2.2208 5.14546 -1.09931 24.9523
400 1 -1.1104 1.05308 0.0569028 26.3092
402 1 -1.1104 3.94452 -2.51174 23.6644
404 2 2.2208 2.50953 1.6857 24.9853
405 1 -1.1104 3.83639 -2.52538 26.4207
407 2 2.2208 2.63685 -1.17876 22.1751
409 1 -1.1104 3.85178 0.34745 23.4849
410 1 -1.1104 3.74486 0.296771 26.5234
397 1 -1.1104 6.61821 0.159761 23.3989
416 1 -1.1104 6.91029 -2.73612 23.5203
479 1 -1.1104 9.41478 11.5594 23.6844
436 2 2.2208 7.98361 4.6247 27.5524
481 2 2.2208 8.1854 9.96952 22.0827
492 1 -1.1104 12.1425 14.4045 20.5741
312 1 -1.1104 9.33446 -2.52396 20.7643
394 1 -1.1104 6.42735 -2.5496 26.402
319 1 -1.1104 9.42887 0.289073 20.7482
401 1 -1.1104 6.66883 0.0925245 26.2119
417 2 2.2208 10.946 1.60424 22.2468
418 1 -1.1104 12.4121 -2.70819 23.596
420 1 -1.1104 12.2813 -2.52437 26.3344
422 1 -1.1104 12.3679 0.349177 23.5144
423 2 2.2208 10.9349 -1.22279 24.8559
425 1 -1.1104 12.2817 0.424602 26.3961
426 1 -1.1104 9.67803 -2.76256 23.6671
428 2 2.2208 8.02171 1.54015 24.8541
429 1 -1.1104 9.55742 -2.57589 26.5792
431 2 2.2208 8.21872 -1.10231 22.0476
433 1 -1.1104 9.54841 0.0839423 23.6255
434 1 -1.1104 9.50146 0.217257 26.4007
485 2 2.2208 10.7434 10.1087 24.8167
484 2 2.2208 10.8658 13.0033 22.1321
501 1 -1.1104 9.54029 14.2927 23.7077
458 1 -1.1104 3.86838 8.87016 20.8116
449 1 -1.1104 1.21173 8.55414 20.592
266 1 -1.1104 1.02706 2.9226 20.5629
336 1 -1.1104 1.16963 5.73092 20.8186
390 1 -1.1104 1.16616 3.09066 23.5991
393 1 -1.1104 0.989674 3.02892 26.4591
399 2 2.2208 5.16969 4.55126 25.0571
403 1 -1.1104 4.09786 3.03908 23.6884
406 1 -1.1104 4.08921 3.11492 26.4542
408 2 2.2208 2.43617 4.65602 22.1765
445 1 -1.1104 3.64179 8.70226 26.5769
448 1 -1.1104 3.67043 5.96066 26.3325
453 1 -1.1104 3.64121 5.88428 23.5823
454 2 2.2208 2.2227 7.44688 25.0001
457 1 -1.1104 3.70665 8.7387 23.6499
462 2 2.2208 5.24518 7.29217 22.175
464 1 -1.1104 0.991215 8.99551 23.4622
467 1 -1.1104 0.887575 8.90767 26.1075
469 1 -1.1104 0.948529 5.89682 23.4571
474 1 -1.1104 0.866255 5.96401 26.3539
508 1 -1.1104 6.41554 8.6466 26.2211
451 1 -1.1104 6.70337 8.7375 20.7168
466 1 -1.1104 6.69255 8.87894 23.4566
471 1 -1.1104 6.63414 5.81807 23.5363
6772 2 2.2208 -0.230078 -1.14338 13.7445
498 2 2.2208 8.07103 12.8721 25.0099
491 1 -1.1104 12.5537 8.5131 21.0621
314 1 -1.1104 9.67373 2.98613 20.5525
368 1 -1.1104 12.323 6.06956 20.5812
381 1 -1.1104 9.47576 5.99637 20.4742
302 1 -1.1104 12.4346 3.23998 20.7147
395 1 -1.1104 6.88275 3.23589 26.1916
391 1 -1.1104 6.63754 2.95334 23.6376
495 1 -1.1104 6.48308 5.96286 26.3366
505 1 -1.1104 12.2466 8.62027 23.7129
503 1 -1.1104 11.9306 8.78097 26.2962
419 1 -1.1104 12.3601 3.21475 23.3966
421 1 -1.1104 12.2467 3.09133 26.3065
424 2 2.2208 10.8866 4.44609 24.9132
427 1 -1.1104 9.4881 3.0811 23.555
430 1 -1.1104 9.43853 3.18899 26.2264
432 2 2.2208 8.05178 4.45 22.1327
502 1 -1.1104 9.30992 8.56702 23.451
478 1 -1.1104 9.50371 5.91395 26.2005
480 1 -1.1104 9.42414 5.8867 23.5227
483 1 -1.1104 12.4266 5.98542 26.3539
486 2 2.2208 10.9552 7.24462 22.2955
488 1 -1.1104 12.3977 5.91076 23.4303
489 1 -1.1104 8.95366 8.62344 26.4656
499 2 2.2208 8.00141 7.38966 24.8859
255 2 2.2208 8.14195 7.14493 13.8443
487 1 -1.1104 12.0125 11.4636 23.6352
511 2 2.2208 13.6448 7.35789 24.9773
493 1 -1.1104 6.57209 11.6472 26.557
455 1 -1.1104 0.962436 11.5788 20.5908
450 1 -1.1104 0.97412 14.3866 20.7198
459 1 -1.1104 3.84307 11.594 20.8001
446 2 2.2208 2.19495 12.781 25.0106
447 1 -1.1104 3.89059 11.5732 26.3656
452 1 -1.1104 3.73134 11.6041 23.5116
456 1 -1.1104 3.86984 14.3082 23.6248
460 1 -1.1104 0.953035 11.4349 26.6964
461 2 2.2208 2.42983 10.1779 21.991
463 2 2.2208 5.30965 12.9852 22.2804
465 1 -1.1104 0.900415 14.2301 23.4329
468 1 -1.1104 0.869337 14.1534 26.4729
470 1 -1.1104 0.888262 11.5202 23.5502
472 1 -1.1104 3.59384 14.2711 26.6238
473 2 2.2208 5.09078 10.1042 24.8066
490 1 -1.1104 6.73519 11.7032 20.7052
510 1 -1.1104 6.66069 11.2713 23.4564
482 1 -1.1104 9.19345 14.2694 26.4499
500 1 -1.1104 11.9424 14.0726 26.2654
355 1 -1.1104 6.53262 14.3416 20.8382
507 1 -1.1104 6.73285 14.3541 23.5686
195 2 2.2208 10.8775 4.58566 13.7324
287 2 2.2208 2.30289 -3.94172 13.7629
6941 2 2.2208 -0.281991 7.12319 16.5289
414 2 2.2208 -0.250311 4.45952 24.9747
175 2 2.2208 10.6879 -1.10191 13.7728
170 2 2.2208 5.18436 -1.15282 13.6969
169 2 2.2208 2.51481 1.75581 13.7506
514 2 2.2208 5.29518 18.5969 5.06079
516 1 -1.1104 1.28799 19.8411 0.753654
518 1 -1.1104 1.11428 19.8654 3.77723
519 1 -1.1104 0.928679 17.2323 0.960233
523 2 2.2208 5.33313 21.4739 2.28892
524 1 -1.1104 0.989799 17.2703 3.75019
526 1 -1.1104 3.98392 19.9722 0.818007
528 2 2.2208 2.47657 18.4283 2.34506
530 1 -1.1104 3.97602 19.6937 3.61128
532 2 2.2208 2.34612 21.3558 5.05949
533 1 -1.1104 3.93287 16.9433 0.876039
536 1 -1.1104 3.70752 16.8757 3.81089
541 1 -1.1104 6.52 16.9836 0.808132
858 2 2.2208 2.38253 29.8141 13.6325
730 2 2.2208 10.8029 29.9095 11.1554
531 2 2.2208 2.41327 15.7365 5.25722
755 1 -1.1104 6.50055 31.2596 9.4453
927 2 2.2208 8.23076 21.294 -0.39212
7281 2 2.2208 -0.417287 15.8468 8.08782
7219 2 2.2208 -0.197676 26.8405 2.52923
904 2 2.2208 5.26755 18.4517 -0.363414
7113 2 2.2208 13.6921 24.1377 2.43223
540 1 -1.1104 6.74588 20.0805 3.79903
539 1 -1.1104 6.72372 19.7557 1.11058
544 1 -1.1104 6.64018 17.0816 3.67502
561 2 2.2208 8.05617 15.595 5.21614
546 2 2.2208 10.9023 18.6214 5.13395
548 1 -1.1104 12.1122 19.8606 1.11091
549 1 -1.1104 12.2254 20.1316 3.79839
550 1 -1.1104 12.4067 17.0003 1.07071
554 2 2.2208 10.7773 21.3124 2.36584
555 1 -1.1104 12.2192 17.3291 3.69157
557 1 -1.1104 9.61394 19.8506 1.01109
558 2 2.2208 8.07459 18.3667 2.33346
560 1 -1.1104 9.34641 19.7924 3.98807
562 2 2.2208 8.21686 21.4602 5.36061
563 1 -1.1104 9.53822 16.9559 0.885667
566 1 -1.1104 9.56474 17.014 3.70416
553 2 2.2208 10.873 15.7349 2.33829
688 2 2.2208 -0.410399 26.9768 8.04581
591 2 2.2208 2.2891 32.469 -0.407736
7161 2 2.2208 -0.433617 15.7033 2.43051
515 2 2.2208 5.5246 24.233 5.43977
521 1 -1.1104 1.19439 22.7262 0.985663
525 1 -1.1104 0.916253 22.9503 4.05381
529 2 2.2208 2.5405 24.1692 2.39547
535 1 -1.1104 3.96865 22.652 1.01564
537 1 -1.1104 3.59614 22.451 3.57261
570 1 -1.1104 1.04999 25.4161 0.890184
572 1 -1.1104 1.23687 25.763 3.78139
576 2 2.2208 5.33133 26.9208 2.40958
580 1 -1.1104 4.04574 25.383 1.20249
583 1 -1.1104 4.04941 25.445 3.84033
585 2 2.2208 2.44636 27.128 5.13939
578 1 -1.1104 1.26206 28.5 3.76667
859 2 2.2208 5.21335 26.8544 13.5327
589 1 -1.1104 3.96145 28.5592 3.65358
587 1 -1.1104 3.48875 28.4943 0.964072
7132 2 2.2208 13.5817 21.3956 5.32173
742 1 -1.1104 12.3501 34.0831 6.91461
698 1 -1.1104 3.97662 28.4214 6.50841
7279 2 2.2208 -0.275899 18.475 10.9221
737 2 2.2208 8.0554 29.9031 8.11952
736 1 -1.1104 6.59528 34.1938 6.54688
543 1 -1.1104 6.78476 22.6642 0.929244
596 1 -1.1104 6.80848 25.7311 3.79573
545 1 -1.1104 6.63956 22.8394 3.72869
594 1 -1.1104 6.78618 25.5709 0.751267
547 2 2.2208 10.8482 24.2552 4.98938
552 1 -1.1104 12.2025 22.6142 0.873259
556 1 -1.1104 12.1848 22.7022 3.72125
559 2 2.2208 7.94098 24.1887 2.49985
565 1 -1.1104 9.59618 22.7734 1.04844
567 1 -1.1104 9.41289 22.8142 3.94679
603 1 -1.1104 12.1405 25.5532 0.853414
605 1 -1.1104 12.3314 25.5184 3.78976
607 1 -1.1104 12.428 28.3537 0.906928
609 2 2.2208 11.0429 27.0576 2.47094
613 1 -1.1104 9.45042 25.5403 0.998331
616 1 -1.1104 9.41856 25.6957 3.90141
618 2 2.2208 8.18057 27.076 5.25945
620 1 -1.1104 9.63214 28.3354 1.08898
622 1 -1.1104 9.48084 28.5388 3.89513
598 1 -1.1104 6.46711 28.3436 1.12966
600 1 -1.1104 6.68007 28.5206 4.01403
745 1 -1.1104 9.65348 28.1603 6.61686
655 1 -1.1104 12.372 23.1156 6.54311
626 2 2.2208 11.0538 29.7104 -0.261151
574 1 -1.1104 0.85415 28.1647 0.931471
954 2 2.2208 2.40444 26.9269 -0.38185
7282 2 2.2208 -0.391263 21.3843 8.00238
722 1 -1.1104 9.43894 34.1126 12.5254
569 2 2.2208 5.25545 29.9741 5.18872
571 1 -1.1104 1.03846 31.1328 1.06381
573 1 -1.1104 0.788522 31.2607 3.77957
575 1 -1.1104 0.90911 33.928 0.725425
577 2 2.2208 5.15989 32.7225 2.42902
579 1 -1.1104 1.06363 34.1077 3.77146
581 1 -1.1104 3.86591 31.2195 1.03792
582 2 2.2208 2.36938 29.9623 2.44885
584 1 -1.1104 3.77464 31.4013 3.89684
586 2 2.2208 2.29686 32.6239 5.2472
588 1 -1.1104 3.61396 33.9434 0.883375
590 1 -1.1104 3.97451 34.2911 3.6432
597 1 -1.1104 6.59011 31.5366 3.80128
691 1 -1.1104 0.787553 31.5218 6.40281
7517 2 2.2208 -0.210084 26.9136 13.4678
522 2 2.2208 5.24596 15.6515 2.3981
611 1 -1.1104 12.272 28.4918 3.81138
595 1 -1.1104 6.68982 31.4426 1.00212
601 1 -1.1104 6.67901 34.1832 3.80329
599 1 -1.1104 6.35634 34.0475 0.674344
602 2 2.2208 10.8596 29.8278 5.3016
604 1 -1.1104 12.2366 31.085 1.12808
606 1 -1.1104 12.2309 31.2939 3.95106
608 1 -1.1104 12.1837 33.94 1.06777
610 2 2.2208 10.6952 32.5953 2.36153
612 1 -1.1104 12.1349 34.0801 3.79412
614 1 -1.1104 9.24589 31.0032 0.830826
615 2 2.2208 8.09901 29.8276 2.28266
617 1 -1.1104 9.37921 31.366 3.80573
619 2 2.2208 8.02736 32.6623 5.29962
621 1 -1.1104 9.2752 33.9063 0.969782
623 1 -1.1104 9.29337 33.9721 4.03733
744 1 -1.1104 9.34433 31.3676 6.72488
740 1 -1.1104 12.1208 31.1237 6.79499
527 1 -1.1104 3.83749 19.9726 6.424
517 1 -1.1104 1.06773 19.9077 6.70387
520 1 -1.1104 0.979861 16.9767 6.68301
534 1 -1.1104 3.78783 17.2903 6.65234
7328 2 2.2208 13.5034 32.5565 10.8513
643 2 2.2208 2.59303 15.778 10.9573
629 2 2.2208 5.20658 18.5518 10.964
631 1 -1.1104 0.873025 19.9492 12.3675
632 1 -1.1104 1.03005 20.0556 9.6026
633 1 -1.1104 1.10748 17.0202 12.4664
636 2 2.2208 5.27413 21.2116 7.96762
637 1 -1.1104 1.27714 17.0479 9.55342
639 1 -1.1104 3.73113 19.9004 12.2035
640 2 2.2208 2.448 18.5641 8.0073
642 1 -1.1104 3.6581 19.9968 9.36033
644 2 2.2208 2.46547 21.3928 10.9332
645 1 -1.1104 3.84179 17.375 12.4505
647 1 -1.1104 4.01081 17.0252 9.61869
635 2 2.2208 5.08504 15.8472 7.98796
720 1 -1.1104 9.458 34.1789 9.56154
652 1 -1.1104 6.69152 19.9324 6.649
7160 2 2.2208 -0.195829 21.3427 2.46721
542 1 -1.1104 6.62587 17.186 6.49602
679 2 2.2208 8.08857 15.8764 10.8484
654 1 -1.1104 12.2164 20.062 6.62473
656 1 -1.1104 9.63553 19.8569 6.57189
564 1 -1.1104 9.38318 17.0006 6.58506
659 1 -1.1104 6.63411 19.9027 12.3389
660 1 -1.1104 6.6772 19.7544 9.57186
551 1 -1.1104 12.1901 17.0794 6.64653
661 1 -1.1104 6.74242 17.3139 12.2254
663 1 -1.1104 6.45153 17.1329 9.47323
665 2 2.2208 10.8659 18.5791 10.8826
667 1 -1.1104 12.2466 19.9706 12.1608
668 1 -1.1104 12.4359 20.0939 9.56111
669 1 -1.1104 12.449 17.2195 12.353
671 2 2.2208 10.753 15.7569 7.90482
672 2 2.2208 11.0513 21.3446 8.17666
673 1 -1.1104 12.4199 17.4003 9.31229
675 1 -1.1104 9.42458 20.0393 12.2069
676 2 2.2208 7.93776 18.5181 8.01742
678 1 -1.1104 9.35556 19.8845 9.3403
680 2 2.2208 8.07087 21.3623 10.7385
681 1 -1.1104 9.61355 17.1951 12.1145
683 1 -1.1104 9.40306 17.2847 9.36403
724 1 -1.1104 12.1583 31.3586 9.47207
627 1 -1.1104 1.10904 22.6166 6.74003
628 1 -1.1104 3.88873 22.7701 6.72455
690 1 -1.1104 0.99166 25.5469 6.50384
692 1 -1.1104 1.17409 28.4601 6.63382
694 1 -1.1104 3.88457 25.5885 6.68614
630 2 2.2208 5.37986 24.2844 10.8019
634 1 -1.1104 1.21351 22.6253 12.4797
638 1 -1.1104 1.15469 22.6061 9.48598
641 2 2.2208 2.49771 24.1031 8.08861
646 1 -1.1104 4.09109 22.797 12.3884
648 1 -1.1104 3.85713 22.7208 9.54095
702 2 2.2208 2.39249 26.9242 10.7382
704 1 -1.1104 1.01916 25.4688 12.285
706 1 -1.1104 1.00313 25.4324 9.50079
710 2 2.2208 5.25866 27.1071 7.95358
714 1 -1.1104 3.78168 25.3579 12.2663
717 1 -1.1104 4.05317 25.8125 9.48956
696 1 -1.1104 3.73336 28.6444 9.37332
700 1 -1.1104 3.5578 28.1245 12.447
712 1 -1.1104 0.772666 28.2194 9.49601
760 1 -1.1104 6.58869 28.5903 9.38062
624 2 2.2208 13.5111 32.6785 5.38817
708 1 -1.1104 0.971548 28.4281 12.2523
761 1 -1.1104 7.02601 34.0883 9.40708
735 1 -1.1104 6.62184 28.7262 6.62914
741 1 -1.1104 12.5043 28.482 6.59028
733 1 -1.1104 6.57672 25.672 6.67739
662 1 -1.1104 6.67981 22.9116 12.5125
664 1 -1.1104 6.62091 22.5396 9.39334
653 1 -1.1104 6.78888 22.8339 6.58712
739 1 -1.1104 12.1884 25.7416 6.5575
658 1 -1.1104 9.65537 22.777 6.74512
752 1 -1.1104 6.50844 25.6014 12.3701
743 1 -1.1104 9.39315 25.5344 6.82426
754 1 -1.1104 6.74242 25.5659 9.65445
749 1 -1.1104 12.3788 28.459 9.40746
666 2 2.2208 10.8276 24.2819 10.7249
670 1 -1.1104 12.3851 22.8573 12.2204
674 1 -1.1104 12.3086 22.9125 9.31229
677 2 2.2208 8.13516 24.2324 8.11107
682 1 -1.1104 9.47348 22.9689 12.3966
684 1 -1.1104 9.61016 22.8057 9.52644
725 1 -1.1104 12.4089 25.6968 9.46823
727 2 2.2208 8.06019 26.9362 11.0325
729 1 -1.1104 12.1713 25.6373 12.1819
732 1 -1.1104 9.48808 25.6496 9.44376
747 1 -1.1104 9.49995 25.6956 12.261
751 2 2.2208 10.8812 26.9219 8.11263
756 1 -1.1104 6.54246 28.4166 12.0085
856 2 2.2208 -0.268882 32.7561 13.6877
734 1 -1.1104 6.68411 31.4051 6.6418
693 1 -1.1104 0.707661 34.2245 6.83537
695 1 -1.1104 3.49351 31.4443 6.63998
699 1 -1.1104 3.70529 34.0623 6.54453
689 1 -1.1104 4.09942 34.2704 9.36017
697 1 -1.1104 3.81257 33.9771 12.2452
701 2 2.2208 2.43064 32.5336 10.948
703 2 2.2208 5.40869 30.0227 10.947
705 1 -1.1104 1.19156 31.2856 12.3827
707 1 -1.1104 1.11718 31.2027 9.43144
709 1 -1.1104 1.06113 34.0805 12.1399
711 2 2.2208 5.14544 32.6355 8.07425
713 1 -1.1104 1.19905 34.1025 9.67775
715 1 -1.1104 3.8995 31.0667 12.2847
716 2 2.2208 2.42195 30.0244 8.09546
718 1 -1.1104 3.84354 31.2971 9.46494
757 1 -1.1104 6.81826 34.0926 12.5642
7648 2 2.2208 -0.372801 29.636 -0.321052
731 1 -1.1104 9.43262 31.31 9.65216
738 1 -1.1104 9.51919 31.4321 12.5187
723 1 -1.1104 9.38986 28.6935 12.3516
758 1 -1.1104 12.171 34.0712 12.3245
748 1 -1.1104 12.3608 34.2521 9.50866
746 1 -1.1104 9.51898 34.1015 6.72572
726 2 2.2208 8.29959 32.7963 11.0279
728 1 -1.1104 12.2454 31.3229 12.3936
750 2 2.2208 10.7371 32.8843 8.20286
759 1 -1.1104 12.2986 28.512 12.3938
721 1 -1.1104 9.44205 28.469 9.62562
753 1 -1.1104 6.7441 31.447 12.2859
7326 2 2.2208 13.5641 29.8453 8.07445
7131 2 2.2208 13.603 18.6066 2.48085
7280 2 2.2208 -0.392225 23.9773 10.8218
687 2 2.2208 -0.256826 29.8752 10.9672
955 2 2.2208 5.12184 29.9158 -0.447192
651 2 2.2208 5.39928 15.998 13.5601
903 2 2.2208 5.41163 24.0847 -0.419241
538 2 2.2208 2.24075 15.7081 -0.317649
762 2 2.2208 5.35177 18.6258 16.5793
764 1 -1.1104 1.1269 19.8567 17.9499
765 1 -1.1104 0.884096 20.0877 15.2119
767 1 -1.1104 0.916536 17.1624 17.9535
770 2 2.2208 5.35765 21.4453 19.2774
771 1 -1.1104 0.931135 17.2335 15.4013
775 1 -1.1104 3.86215 19.8837 17.7954
776 2 2.2208 2.35704 18.5555 19.2574
778 1 -1.1104 3.86698 20.1868 14.9566
781 2 2.2208 2.47064 21.4194 16.539
782 1 -1.1104 3.81866 17.1076 18.1138