ITEM: TIMESTEP
100000
ITEM: NUMBER OF ATOMS
13500
ITEM: BOX BOUNDS pp pp pp
-4.3856794026978113e-01 2.7778567940269692e+01
-3.7889060813989244e+00 2.4984890608140128e+02
-4.3876426364063309e-01 2.7778764263641126e+01
ITEM: ATOMS id type q x y z
2 2 2.2208 5.32402 2.03781 5.46725
3 1 -1.1104 1.14861 -2.32212 0.974039
11 1 -1.1104 1.07955 -2.26675 3.95707
15 1 -1.1104 1.17601 0.429338 1.14024
19 2 2.2208 5.29462 -0.978277 2.65083
21 1 -1.1104 1.19773 0.463678 3.86487
23 1 -1.1104 3.97923 -2.29134 1.02849
28 2 2.2208 2.66002 1.93852 2.44461
29 1 -1.1104 3.91278 -2.4489 3.86594
31 2 2.2208 2.54843 -0.96268 5.25111
33 1 -1.1104 3.91776 0.526987 1.01021
35 1 -1.1104 3.82626 0.454327 4.04718
34 1 -1.1104 3.84511 0.604455 6.72511
6752 2 2.2208 -0.400571 4.60716 8.13925
61 2 2.2208 8.12234 -3.70847 2.52989
195 2 2.2208 10.997 4.79336 13.6145
237 2 2.2208 10.9979 13.2582 10.8691
239 2 2.2208 10.9124 10.4761 7.96586
257 2 2.2208 13.5062 13.2876 8.06817
95 2 2.2208 5.31192 13.1615 -0.26796
231 1 -1.1104 9.65696 11.6794 12.1932
241 2 2.2208 8.19081 13.2239 8.06349
22 1 -1.1104 6.51239 0.531625 3.9076
17 1 -1.1104 6.84164 0.499981 1.09343
13 1 -1.1104 6.65258 -2.23513 3.80494
7 1 -1.1104 6.63292 -2.36636 1.11947
36 2 2.2208 10.9087 1.72079 5.3131
37 1 -1.1104 12.3617 -2.30506 0.942222
41 1 -1.1104 12.4351 -2.24007 3.71726
43 1 -1.1104 12.2738 0.47852 1.09453
45 2 2.2208 10.8899 -0.910888 2.37208
47 1 -1.1104 12.2088 0.342457 4.16404
48 1 -1.1104 9.55409 -2.24295 1.10924
52 2 2.2208 8.18174 1.82958 2.45396
53 1 -1.1104 9.61224 -2.37994 3.78773
55 2 2.2208 8.10884 -0.936705 5.40205
57 1 -1.1104 9.45047 0.462076 1.09891
59 1 -1.1104 9.31105 0.434799 3.94809
18 1 -1.1104 6.72146 0.626915 6.80203
8 1 -1.1104 6.89138 -2.22343 6.60894
49 1 -1.1104 9.43244 -2.28599 6.80263
44 1 -1.1104 12.266 0.420421 6.85242
221 1 -1.1104 6.98127 11.735 12.4168
234 2 2.2208 8.15818 10.4947 10.9676
243 1 -1.1104 9.67049 14.6304 12.2912
6837 2 2.2208 -0.28669 7.57165 10.8433
6750 2 2.2208 -0.272379 -1.04683 8.24743
5 1 -1.1104 1.19894 3.42968 1.25327
12 1 -1.1104 1.07195 3.2738 4.1055
20 2 2.2208 5.43242 4.82183 2.36655
25 1 -1.1104 4.09557 3.26925 1.1526
30 1 -1.1104 4.11102 3.5165 4.0496
32 2 2.2208 2.58406 4.8357 5.35663
63 2 2.2208 5.39636 7.48053 5.32332
70 1 -1.1104 1.15439 8.75384 3.67195
72 1 -1.1104 1.2374 6.08856 1.12599
78 1 -1.1104 1.06697 5.90477 3.9969
84 2 2.2208 2.56821 7.3784 2.47654
86 1 -1.1104 4.00408 8.75856 3.63783
89 1 -1.1104 4.02158 6.04406 1.02856
93 1 -1.1104 4.14208 6.17124 3.84371
65 1 -1.1104 1.35646 9.00794 1.10562
80 1 -1.1104 4.11233 8.74216 1.04345
6627 2 2.2208 -0.390072 4.62698 2.59342
1 2 2.2208 5.39102 -3.77336 5.23427
6708 2 2.2208 -0.270549 10.2091 2.28515
26 1 -1.1104 3.80216 3.28433 6.87602
73 1 -1.1104 0.971823 6.42306 6.97164
6677 2 2.2208 -0.268389 13.1305 5.3717
6628 2 2.2208 -0.381022 -3.71952 5.30377
6626 2 2.2208 -0.332996 -0.938474 2.48157
9 1 -1.1104 6.82175 3.15021 1.04427
99 1 -1.1104 6.80905 8.66763 1.025
14 1 -1.1104 6.78527 3.56172 4.0668
102 1 -1.1104 6.84836 9.15436 3.78115
107 1 -1.1104 7.06779 6.30929 3.96463
104 1 -1.1104 6.76916 5.90646 0.863763
39 1 -1.1104 12.3152 3.30648 1.14338
42 1 -1.1104 12.4003 2.97122 3.84367
46 2 2.2208 11.0235 4.54036 2.60274
50 1 -1.1104 9.58958 3.09543 0.951883
54 1 -1.1104 9.56672 3.1749 3.93192
56 2 2.2208 8.17561 4.91447 5.28123
109 2 2.2208 11.122 7.371 5.31695
117 1 -1.1104 12.5815 6.16684 0.762025
122 1 -1.1104 12.5714 5.89783 3.76122
128 2 2.2208 8.17693 7.6086 2.39654
133 1 -1.1104 9.58512 6.19259 1.04983
137 1 -1.1104 9.58347 6.10865 3.83991
111 1 -1.1104 12.3216 8.9995 1.04354
124 1 -1.1104 9.66924 8.9351 0.952841
130 1 -1.1104 9.62732 9.08887 3.86733
115 1 -1.1104 12.3492 8.84078 3.80591
112 1 -1.1104 12.2775 8.74173 6.53316
118 1 -1.1104 12.5864 6.00479 6.75111
51 1 -1.1104 9.68243 3.3205 6.63472
442 2 2.2208 11.0446 -3.77274 -0.331834
142 2 2.2208 10.8395 12.9698 -0.411552
64 2 2.2208 5.18033 13.1924 5.44239
67 1 -1.1104 1.12202 14.3967 1.06196
71 1 -1.1104 0.986752 14.4827 3.65608
74 1 -1.1104 1.11598 11.7072 1.10893
77 2 2.2208 5.39411 10.2632 2.35621
79 1 -1.1104 1.06637 11.6625 4.02525
82 1 -1.1104 3.86493 14.5705 1.02318
85 2 2.2208 2.45731 13.1543 2.36822
87 1 -1.1104 3.70268 14.7699 3.82541
88 2 2.2208 2.40922 10.3873 5.26825
91 1 -1.1104 4.15313 11.7651 1.06165
94 1 -1.1104 3.8259 11.8782 3.73612
144 2 2.2208 11.1274 7.51676 -0.306466
436 2 2.2208 8.19173 4.70551 -0.390033
6601 2 2.2208 -0.261187 1.81138 5.37901
100 1 -1.1104 6.75134 14.5957 0.890297
103 1 -1.1104 6.6668 14.5116 3.78761
108 1 -1.1104 6.81107 11.8941 4.2535
105 1 -1.1104 6.65989 11.7075 0.962864
110 2 2.2208 11.0623 13.161 5.12956
113 1 -1.1104 12.4905 14.6422 0.978819
116 1 -1.1104 12.2428 14.5492 3.70895
119 1 -1.1104 12.4495 11.8481 0.80448
121 2 2.2208 11.1441 10.3357 2.44814
123 1 -1.1104 12.4622 11.759 3.77758
126 1 -1.1104 9.66813 14.3795 0.970146
129 2 2.2208 8.2523 13.0521 2.49612
131 1 -1.1104 9.50518 14.6916 3.71806
132 2 2.2208 8.15825 10.4849 5.34191
135 1 -1.1104 9.63076 11.7118 1.16957
138 1 -1.1104 9.66796 11.7854 3.88392
101 1 -1.1104 6.52911 14.6264 6.63385
114 1 -1.1104 12.1168 14.5894 6.59607
24 1 -1.1104 4.0315 -2.35144 6.77353
4 1 -1.1104 1.34221 -2.50289 6.68715
16 1 -1.1104 1.02524 0.385819 6.73311
146 2 2.2208 5.31265 1.69604 11.0105
147 1 -1.1104 0.909278 -2.47008 12.6423
150 1 -1.1104 1.30184 -2.4605 9.65314
154 1 -1.1104 1.09279 0.289108 12.213
156 2 2.2208 5.31402 -0.92773 8.02053
158 1 -1.1104 1.14806 0.169254 9.37806
160 1 -1.1104 3.64951 -2.5277 12.0715
162 2 2.2208 2.47751 1.71939 7.96477
163 1 -1.1104 3.93604 -2.45967 9.55576
165 2 2.2208 2.50779 -0.94293 10.8714
167 1 -1.1104 3.95239 0.417334 12.1679
168 1 -1.1104 3.69719 0.350725 9.29405
6751 2 2.2208 -0.0624105 1.6758 10.8423
251 1 -1.1104 6.77013 14.5477 12.3346
141 2 2.2208 13.5953 10.4152 5.37148
229 1 -1.1104 9.56342 11.9221 9.39894
233 1 -1.1104 12.3982 14.4656 12.1523
159 1 -1.1104 6.61532 0.240002 9.6808
152 1 -1.1104 6.48678 -2.48906 9.25716
155 1 -1.1104 6.66589 0.342142 12.3426
38 1 -1.1104 12.2701 -2.60359 6.65454
58 1 -1.1104 9.63089 0.373763 6.86571
149 1 -1.1104 6.68919 -2.48082 12.0927
177 2 2.2208 10.9323 1.77388 10.9005
178 1 -1.1104 12.4624 -2.15191 12.2681
180 1 -1.1104 12.5426 -2.60229 9.57765
182 1 -1.1104 12.3621 0.474827 12.1793
183 2 2.2208 10.8266 -0.828084 8.25387
185 1 -1.1104 12.4293 0.167279 9.60081
186 1 -1.1104 9.40675 -2.45045 12.2164
188 2 2.2208 8.32656 1.89114 8.09261
189 1 -1.1104 9.58854 -2.50914 9.48117
191 2 2.2208 7.97593 -0.980478 10.9633
193 1 -1.1104 9.45386 0.383545 12.364
194 1 -1.1104 9.61243 0.32571 9.73592
235 1 -1.1104 9.22109 14.6656 9.44734
6835 2 2.2208 -0.241126 13.1433 10.957
255 2 2.2208 8.30276 7.60606 13.5637
66 1 -1.1104 1.1053 9.13483 6.67527
90 1 -1.1104 3.7691 6.10649 6.7036
246 1 -1.1104 12.2039 11.7934 9.60699
81 1 -1.1104 3.83359 8.88812 6.64804
6 1 -1.1104 1.23362 3.42172 6.75514
148 1 -1.1104 1.3209 3.01858 12.1447
151 1 -1.1104 1.0102 3.05756 9.35644
157 2 2.2208 5.22335 4.54371 8.23362
161 1 -1.1104 4.02338 3.23131 12.4302
164 1 -1.1104 4.08829 3.16541 9.64798
166 2 2.2208 2.50091 4.62712 10.9543
201 1 -1.1104 3.91479 6.05687 9.50964
203 1 -1.1104 3.7972 6.07343 12.264
208 2 2.2208 2.45094 7.55926 8.20672
210 2 2.2208 5.23714 7.58185 10.8949
212 1 -1.1104 0.920758 8.79885 12.5301
218 1 -1.1104 0.987643 6.08054 12.4112
223 1 -1.1104 1.12721 6.02058 9.61508
206 1 -1.1104 3.77057 9.09647 9.43581
198 1 -1.1104 4.00801 8.81207 12.2733
215 1 -1.1104 0.97842 8.87275 9.57214
40 1 -1.1104 12.451 3.21047 6.60004
69 1 -1.1104 6.93672 8.82355 6.69621
134 1 -1.1104 9.58526 6.07882 6.6712
76 1 -1.1104 6.62137 6.13357 6.7045
153 1 -1.1104 6.92763 3.2315 9.56484
220 1 -1.1104 6.77397 6.28557 12.1873
10 1 -1.1104 6.76711 3.39031 6.73359
125 1 -1.1104 9.73469 8.92092 6.70644
225 1 -1.1104 6.52894 6.11887 9.24177
214 1 -1.1104 6.76606 9.16157 12.1705
176 1 -1.1104 6.94185 3.36246 12.2557
217 1 -1.1104 6.57712 8.94197 9.49095
245 1 -1.1104 9.90387 8.84101 12.2098
250 1 -1.1104 12.1856 6.10013 9.27902
249 1 -1.1104 12.3469 9.1086 9.4346
179 1 -1.1104 12.4805 3.38043 12.0488
181 1 -1.1104 12.5645 3.1087 9.35962
184 2 2.2208 11.0129 4.58692 7.94157
187 1 -1.1104 9.59426 3.22216 12.5024
190 1 -1.1104 9.69788 3.17804 9.5994
192 2 2.2208 8.14824 4.65711 10.8423
247 1 -1.1104 12.5795 6.27761 12.2586
230 1 -1.1104 9.37833 5.76749 9.39905
232 1 -1.1104 9.90533 6.0394 11.9605
236 1 -1.1104 12.658 8.94922 12.1503
238 2 2.2208 11.1654 7.53116 10.8772
240 1 -1.1104 9.42752 8.95718 9.65303
242 2 2.2208 8.15724 7.41246 8.14717
199 1 -1.1104 6.76833 11.8659 9.47982
252 1 -1.1104 6.4369 14.3175 9.42736
68 1 -1.1104 1.1334 14.5962 6.55841
92 1 -1.1104 3.97315 11.6648 6.63995
75 1 -1.1104 1.30424 11.8008 6.81511
83 1 -1.1104 3.82875 14.651 6.66214
200 1 -1.1104 3.81704 11.9256 9.53661
202 1 -1.1104 4.00433 11.7183 12.4017
204 2 2.2208 2.666 10.4882 10.9771
205 1 -1.1104 3.80508 14.7499 9.45556
207 2 2.2208 2.39739 13.2004 8.22312
209 1 -1.1104 3.83656 14.5369 12.2647
211 2 2.2208 5.36579 13.2032 11.0511
213 1 -1.1104 1.10275 14.6036 12.5238
216 1 -1.1104 0.846692 14.7632 9.59025
219 1 -1.1104 1.22014 11.8026 12.264
222 2 2.2208 5.24657 10.4534 8.11885
224 1 -1.1104 1.17158 11.8987 9.55707
7003 2 2.2208 -0.0535455 1.98234 -0.157326
6836 2 2.2208 -0.385504 10.4102 8.1271
120 1 -1.1104 12.1755 11.6448 6.54405
106 1 -1.1104 6.68269 11.9637 6.86605
248 1 -1.1104 12.1387 14.609 9.49259
127 1 -1.1104 9.49246 14.7677 6.74785
136 1 -1.1104 9.57051 11.8476 6.58605
244 1 -1.1104 12.4394 11.6909 12.4751
6709 2 2.2208 -0.315363 7.46189 5.32999
196 2 2.2208 8.16438 -3.66588 8.07646
415 2 2.2208 2.52968 -0.914178 -0.412166
444 2 2.2208 8.26766 -0.833167 -0.418357
27 2 2.2208 2.54186 -3.70409 2.3646
96 2 2.2208 2.56929 10.2343 -0.323165
411 2 2.2208 5.30843 1.81111 -0.283903
175 2 2.2208 11.1166 -0.932589 13.6306
98 2 2.2208 -0.28106 7.41423 -0.38368
6840 2 2.2208 -0.220238 10.3608 13.5771
387 2 2.2208 2.61897 4.69414 -0.327088
260 2 2.2208 5.5444 1.86191 16.6033
261 1 -1.1104 1.17377 -2.37594 18.0597
263 1 -1.1104 1.15721 -2.25913 15.2746
268 1 -1.1104 0.995888 0.277869 17.8803
269 2 2.2208 5.45789 -0.956981 19.5474
271 1 -1.1104 1.16172 0.550024 15.2143
273 1 -1.1104 4.0272 -2.3457 18.0318
276 2 2.2208 2.56366 1.79654 19.4603
277 1 -1.1104 3.98056 -2.43305 15.0506
281 2 2.2208 2.56716 -0.967049 16.5313
283 1 -1.1104 4.0703 0.350664 17.7765
284 1 -1.1104 4.33438 0.462445 15.063
264 1 -1.1104 1.12389 -2.32981 20.7497
253 2 2.2208 8.3209 13.1989 13.852
6904 2 2.2208 -0.205478 -1.00243 19.483
320 2 2.2208 11.0847 -3.70874 16.5327
278 1 -1.1104 3.96646 -2.30313 20.9635
6907 2 2.2208 -0.342003 1.8475 16.5791
322 2 2.2208 8.02464 -3.80352 13.6798
97 2 2.2208 5.40363 7.34649 27.783
170 2 2.2208 5.29978 -0.988527 13.6296
6940 2 2.2208 -0.355811 10.1439 19.362
290 1 -1.1104 6.84272 -2.25126 15.0503
293 1 -1.1104 6.87443 0.634327 17.7871
294 1 -1.1104 6.86047 0.326936 15.0856
288 1 -1.1104 6.89918 -2.27132 17.9739
296 2 2.2208 11.0182 1.91309 16.342
297 1 -1.1104 12.4517 -2.39749 17.9334
299 1 -1.1104 12.4125 -2.24263 15.3568
303 1 -1.1104 12.5393 0.444388 17.7485
304 2 2.2208 11.0475 -0.976202 19.5235
306 1 -1.1104 12.3883 0.841145 14.9131
308 1 -1.1104 9.58901 -2.08734 18.2749
310 2 2.2208 8.32885 1.95318 19.4061
311 1 -1.1104 9.54735 -2.41774 15.3481
315 2 2.2208 8.05726 -0.808445 16.5941
317 1 -1.1104 9.77823 0.533628 17.875
318 1 -1.1104 9.5526 0.440967 14.9716
6772 2 2.2208 -0.254275 -0.877362 13.8242
479 1 -1.1104 9.50347 11.6199 23.5841
6941 2 2.2208 -0.406179 7.50479 16.5457
262 1 -1.1104 0.891758 2.87115 18.2284
265 1 -1.1104 1.11553 3.34848 15.1927
270 2 2.2208 5.26129 4.66973 19.2353
274 1 -1.1104 3.87899 3.18129 17.7452
279 1 -1.1104 3.83539 3.32916 15.1702
282 2 2.2208 2.64684 4.59658 16.5846
323 2 2.2208 5.34804 7.38982 16.481
325 1 -1.1104 1.30517 8.93926 17.9118
328 1 -1.1104 1.24235 8.91268 15.2705
331 1 -1.1104 1.29514 5.5947 17.9923
335 1 -1.1104 1.35219 6.05534 15.1756
342 2 2.2208 2.57999 7.60301 19.2094
344 1 -1.1104 4.05294 8.86725 15.0984
348 1 -1.1104 3.94722 5.88938 17.8519
350 1 -1.1104 3.98407 6.25175 15.1522
340 1 -1.1104 4.07209 8.89018 17.827
386 2 2.2208 5.31835 -3.74033 27.8
458 1 -1.1104 3.93175 9.063 20.4324
266 1 -1.1104 1.25402 3.28961 20.9543
485 2 2.2208 10.9509 10.3249 24.9647
439 2 2.2208 8.1823 -3.64442 25.0258
6957 2 2.2208 -0.358426 13.0913 16.5543
6771 2 2.2208 -0.16497 4.51643 13.7458
338 1 -1.1104 6.65911 6.12824 15.2354
327 1 -1.1104 6.8402 8.97897 17.9692
289 1 -1.1104 6.55261 3.37185 17.8095
292 1 -1.1104 6.62954 3.32428 15.2018
333 1 -1.1104 6.71591 6.1347 17.9234
330 1 -1.1104 6.7073 8.99099 15.2012
298 1 -1.1104 12.1963 3.45499 17.7399
301 1 -1.1104 12.5089 3.49756 14.8732
305 2 2.2208 11.0205 4.69639 19.4173
309 1 -1.1104 9.33541 3.48855 18.0565
313 1 -1.1104 9.36504 3.35042 15.3089
316 2 2.2208 8.06418 4.73818 16.5236
358 2 2.2208 10.9091 7.52538 16.4798
360 1 -1.1104 12.2671 8.96797 17.9508
364 1 -1.1104 12.4626 6.30638 18.0564
367 1 -1.1104 12.0611 6.10487 15.0612
370 1 -1.1104 9.73421 9.11334 17.6588
372 2 2.2208 8.28391 7.57943 19.2669
378 1 -1.1104 9.59387 6.21339 17.6495
380 1 -1.1104 9.37476 6.26006 14.9133
374 1 -1.1104 9.56405 8.91524 15.0028
362 1 -1.1104 12.3726 8.7407 15.1137
451 1 -1.1104 6.73345 8.89956 20.5274
437 2 2.2208 11.2784 -3.78909 22.3026
324 2 2.2208 5.34357 13.1639 16.3943
326 1 -1.1104 1.05124 14.4448 17.9029
329 1 -1.1104 0.934603 14.5037 15.0694
332 1 -1.1104 1.21423 11.634 17.8349
334 2 2.2208 5.34051 10.3913 19.1924
337 1 -1.1104 1.03287 11.711 15.0771
341 1 -1.1104 3.74314 14.4071 17.8859
343 2 2.2208 2.57739 13.051 19.4178
345 1 -1.1104 3.8028 14.6563 15.0876
347 2 2.2208 2.44987 10.3786 16.4422
349 1 -1.1104 3.851 11.5011 17.8773
352 1 -1.1104 3.91275 11.8464 14.9625
506 1 -1.1104 12.4108 11.6384 26.4476
275 2 2.2208 2.63372 -3.75286 19.4793
476 2 2.2208 -0.270153 7.59932 22.315
6879 2 2.2208 -0.198192 4.6979 19.4026
254 2 2.2208 10.9928 10.2494 13.7498
286 2 2.2208 5.4071 -3.54286 16.5453
7089 2 2.2208 -0.281715 13.1457 22.0689
357 1 -1.1104 6.7208 11.7552 15.051
353 1 -1.1104 6.49516 14.6108 17.6883
354 1 -1.1104 6.6438 14.678 14.9103
356 1 -1.1104 6.78256 11.8028 18.0061
359 2 2.2208 10.9789 13.313 16.5342
361 1 -1.1104 12.3646 14.4649 17.8921
363 1 -1.1104 12.3494 14.7196 15.0436
365 1 -1.1104 12.2143 11.6521 17.887
366 2 2.2208 10.9538 10.3771 19.3129
369 1 -1.1104 12.5833 11.7923 15.1805
371 1 -1.1104 9.42851 14.7036 18.0799
373 2 2.2208 8.09939 13.0975 19.382
375 1 -1.1104 9.30749 14.3114 15.5842
377 2 2.2208 8.22411 10.5434 16.457
379 1 -1.1104 9.62598 11.9655 17.9929
382 1 -1.1104 9.60414 11.6905 15.0774
492 1 -1.1104 12.1821 14.5333 20.7033
376 1 -1.1104 9.40814 14.5083 21.0164
497 1 -1.1104 9.87622 11.6918 20.7446
228 2 2.2208 2.49073 13.225 13.8363
272 1 -1.1104 1.35916 0.279223 20.939
285 1 -1.1104 3.98624 0.538129 20.9372
7001 2 2.2208 -0.356848 -1.01641 25.0093
7002 2 2.2208 -0.0710671 1.97916 22.3209
388 2 2.2208 5.4722 2.03388 22.2545
389 1 -1.1104 1.05331 -2.21773 23.4999
392 1 -1.1104 1.04659 -2.59308 26.3466
396 1 -1.1104 1.28005 0.653639 23.6053
398 2 2.2208 5.40889 -1.08907 25.0821
400 1 -1.1104 1.18777 0.341068 26.591
402 1 -1.1104 3.82314 -2.46712 23.709
404 2 2.2208 2.6245 1.8315 25.1808
405 1 -1.1104 3.9734 -2.38643 26.4294
407 2 2.2208 2.85299 -0.794736 22.3143
409 1 -1.1104 4.00108 0.680621 23.5462
410 1 -1.1104 4.07468 0.419636 26.4691
6906 2 2.2208 -0.3313 -3.78149 16.6584
477 1 -1.1104 9.42426 11.8396 26.4345
501 1 -1.1104 9.52742 14.4029 23.7325
307 1 -1.1104 12.3859 0.688078 20.6521
295 1 -1.1104 6.90689 0.477438 20.7021
401 1 -1.1104 6.87289 0.363063 26.4276
291 1 -1.1104 6.87116 -2.34091 20.8264
319 1 -1.1104 9.85365 0.461744 20.8322
300 1 -1.1104 12.5583 -2.17076 20.8756
394 1 -1.1104 6.74486 -2.35457 26.4514
312 1 -1.1104 9.77275 -2.39815 20.906
416 1 -1.1104 6.732 -2.36073 23.5779
397 1 -1.1104 6.66812 0.308671 23.561
417 2 2.2208 11.1109 2.00791 22.1597
418 1 -1.1104 12.5693 -2.45213 23.6517
420 1 -1.1104 12.3556 -2.30929 26.3017
422 1 -1.1104 12.5875 0.273236 23.5021
423 2 2.2208 11.1915 -0.890421 24.9148
425 1 -1.1104 12.4541 0.336095 26.4699
426 1 -1.1104 9.75364 -2.33059 23.6663
428 2 2.2208 8.07864 1.97418 25.0456
429 1 -1.1104 9.56583 -2.37005 26.5648
431 2 2.2208 8.19218 -0.998817 22.1438
433 1 -1.1104 9.73331 0.664741 23.7698
434 1 -1.1104 9.59513 0.663394 26.483
449 1 -1.1104 1.01541 8.90599 20.6893
267 1 -1.1104 7.08783 3.25649 20.7413
280 1 -1.1104 4.02874 3.26026 20.881
336 1 -1.1104 1.0716 6.13857 20.7399
351 1 -1.1104 3.98944 6.00158 20.5757
390 1 -1.1104 1.15699 3.43094 23.8978
393 1 -1.1104 1.21401 3.30005 26.6617
399 2 2.2208 5.27454 4.65506 25.038
403 1 -1.1104 3.91119 3.2691 23.5585
406 1 -1.1104 3.93269 3.22061 26.466
408 2 2.2208 2.55373 4.59686 22.1767
445 1 -1.1104 3.95072 8.70098 26.5508
448 1 -1.1104 3.97309 5.94571 26.4411
453 1 -1.1104 4.01468 5.99937 23.5996
454 2 2.2208 2.47915 7.52884 25.1363
462 2 2.2208 5.49409 7.43299 22.0854
469 1 -1.1104 1.09461 6.14947 23.7373
474 1 -1.1104 1.10672 5.92719 26.5476
464 1 -1.1104 1.26149 8.96915 23.5772
457 1 -1.1104 3.93682 8.83375 23.7272
467 1 -1.1104 1.13307 8.85213 26.5326
226 2 2.2208 5.48494 10.3845 13.8196
414 2 2.2208 -0.309215 4.70634 24.9057
368 1 -1.1104 12.3283 6.10305 20.7466
381 1 -1.1104 9.50406 6.182 20.6387
496 1 -1.1104 9.65935 8.98574 20.4892
391 1 -1.1104 6.65578 3.23395 23.7425
339 1 -1.1104 6.86249 6.10676 20.87
302 1 -1.1104 12.3724 3.22701 20.7901
395 1 -1.1104 6.67208 3.33784 26.4494
466 1 -1.1104 6.73824 9.00654 23.6268
495 1 -1.1104 6.77863 6.14311 26.3391
508 1 -1.1104 6.68275 8.98001 26.4863
314 1 -1.1104 9.73908 3.43136 20.7368
491 1 -1.1104 12.4566 8.94807 20.7328
471 1 -1.1104 6.95957 6.11431 23.5935
505 1 -1.1104 12.4013 8.904 23.5814
419 1 -1.1104 12.4374 3.11641 23.7105
421 1 -1.1104 12.3601 3.34978 26.326
424 2 2.2208 10.983 4.63058 25.0408
427 1 -1.1104 9.47883 3.24769 23.5117
430 1 -1.1104 9.6075 3.51048 26.2273
432 2 2.2208 8.21555 4.66337 22.2972
478 1 -1.1104 9.59358 6.13068 26.4579
480 1 -1.1104 9.60011 6.30947 23.6721
483 1 -1.1104 12.3671 6.11329 26.4053
486 2 2.2208 10.9478 7.4225 22.1527
488 1 -1.1104 12.2416 6.00845 23.6652
499 2 2.2208 8.2294 7.53875 25.0114
502 1 -1.1104 9.61908 9.02615 23.5973
489 1 -1.1104 9.59855 8.99963 26.476
503 1 -1.1104 12.7157 8.95357 26.5486
475 2 2.2208 -0.367621 10.2653 24.9737
346 1 -1.1104 3.99966 14.3102 20.8171
490 1 -1.1104 6.91059 11.6943 20.782
472 1 -1.1104 3.72854 14.5013 26.5536
470 1 -1.1104 0.938605 11.6073 23.4819
459 1 -1.1104 4.21408 11.634 20.8883
455 1 -1.1104 1.29107 11.6031 20.6488
450 1 -1.1104 1.20368 14.5477 20.6409
473 2 2.2208 5.17503 10.3278 25.0713
446 2 2.2208 2.61049 13.0992 25.1266
447 1 -1.1104 3.91631 11.6284 26.5335
452 1 -1.1104 3.84183 11.6763 23.6265
456 1 -1.1104 3.75802 14.5723 23.6339
460 1 -1.1104 1.06933 11.7032 26.2219
461 2 2.2208 2.58642 10.2384 22.1057
463 2 2.2208 5.29647 13.1287 22.1749
465 1 -1.1104 1.12877 14.1164 23.4513
468 1 -1.1104 1.07687 14.5377 26.5163
510 1 -1.1104 6.72294 11.8383 23.6788
500 1 -1.1104 12.2905 14.3704 26.3893
494 1 -1.1104 12.3604 11.7649 20.8087
355 1 -1.1104 6.64529 14.5126 20.5602
493 1 -1.1104 6.46724 11.8564 26.4288
481 2 2.2208 8.10566 10.239 22.1849
498 2 2.2208 7.87975 13.1865 25.0105
482 1 -1.1104 9.26724 14.4199 26.5602
504 1 -1.1104 12.152 14.6844 23.3902
507 1 -1.1104 6.68163 14.5212 23.4061
487 1 -1.1104 12.2487 11.8579 23.7471
509 1 -1.1104 6.5851 14.6397 26.4146
484 2 2.2208 10.8834 13.1773 22.3236
174 2 2.2208 8.18474 1.83823 13.9643
7023 2 2.2208 -0.298805 -3.67009 22.2161
227 2 2.2208 2.53538 7.41457 13.7792
940 2 2.2208 10.7529 15.6708 25.0641
169 2 2.2208 2.63081 1.76989 13.836
171 2 2.2208 5.45649 4.69377 13.86
435 2 2.2208 11.181 2.03108 27.7725
143 2 2.2208 8.14839 10.3155 27.7285
6712 2 2.2208 -0.256643 12.9063 27.7088
514 2 2.2208 5.1255 18.7983 5.33483
516 1 -1.1104 0.997855 20.1269 1.19239
518 1 -1.1104 0.80873 20.1705 3.97724
519 1 -1.1104 0.939462 17.1976 0.984467
523 2 2.2208 5.14093 21.5289 2.61821
524 1 -1.1104 1.01355 17.3352 3.76252
526 1 -1.1104 3.77899 19.9472 0.879399
528 2 2.2208 2.36907 18.7073 2.44534
530 1 -1.1104 3.69394 20.348 4.03074
532 2 2.2208 2.48718 21.526 5.44762
533 1 -1.1104 3.8437 17.1542 0.976362
536 1 -1.1104 3.80406 17.5973 3.82134
522 2 2.2208 5.34774 15.9913 2.33593
527 1 -1.1104 3.82073 20.1033 6.67131
540 1 -1.1104 6.61997 20.1387 4.08245
7619 2 2.2208 13.5423 27.1734 -0.390279
539 1 -1.1104 6.50996 20.0318 1.12419
624 2 2.2208 13.6442 32.8523 5.2171
926 2 2.2208 10.6207 24.4538 -0.357981
568 2 2.2208 8.06254 15.9281 -0.324692
517 1 -1.1104 1.02154 20.0156 6.75651
650 2 2.2208 5.29735 21.4676 13.6433
903 2 2.2208 4.98955 24.2643 -0.364374
7159 2 2.2208 -0.307691 24.1605 5.23406
541 1 -1.1104 6.90334 17.3472 0.976666
544 1 -1.1104 6.50512 17.2008 3.85759
542 1 -1.1104 6.48977 17.3946 6.72601
686 2 2.2208 11.0317 16.1924 13.6152
652 1 -1.1104 6.45366 20.0201 6.81362
546 2 2.2208 10.7575 18.7689 5.29616
548 1 -1.1104 12.357 20.1602 1.02799
549 1 -1.1104 12.4293 20.2609 3.65467
550 1 -1.1104 12.3461 17.4786 1.0107
554 2 2.2208 10.8112 21.6289 2.45347
555 1 -1.1104 12.1734 17.4296 3.8363
557 1 -1.1104 9.37616 19.8123 1.11092
558 2 2.2208 7.99508 18.8241 2.63132
560 1 -1.1104 9.4775 20.3315 3.91791
562 2 2.2208 8.07708 21.6214 5.40816
563 1 -1.1104 9.53252 17.0574 1.01663
566 1 -1.1104 9.49239 17.4206 3.79759
553 2 2.2208 10.8446 15.9397 2.35847
561 2 2.2208 7.9215 15.9075 5.24569
902 2 2.2208 2.28189 21.5301 -0.358068
7648 2 2.2208 -0.406407 30.2509 -0.454769
515 2 2.2208 5.1324 24.4474 5.35851
521 1 -1.1104 0.999348 22.9225 1.05883
525 1 -1.1104 1.00809 22.915 3.83713
529 2 2.2208 2.31901 24.3751 2.44752
535 1 -1.1104 3.71642 23.0037 1.13914
537 1 -1.1104 3.82322 22.9081 3.97365
570 1 -1.1104 0.72767 25.8723 0.996404
572 1 -1.1104 0.983267 25.7588 3.93393
576 2 2.2208 5.18587 27.1042 2.45809
580 1 -1.1104 3.55839 25.8428 1.15936
583 1 -1.1104 3.68973 25.5318 3.9596
585 2 2.2208 2.33184 27.0356 5.26002
589 1 -1.1104 3.81023 28.4852 3.67698
587 1 -1.1104 3.85682 28.7819 0.850583
627 1 -1.1104 1.15774 23.1243 6.61822
545 1 -1.1104 6.5782 22.9294 4.21982
596 1 -1.1104 6.64664 25.9534 4.06569
543 1 -1.1104 6.70335 22.6597 1.31316
692 1 -1.1104 0.715384 28.5055 6.82198
574 1 -1.1104 0.713519 28.805 1.30701
628 1 -1.1104 3.93633 22.9763 6.72853
531 2 2.2208 2.33748 16.0151 5.20476
591 2 2.2208 2.36072 32.8787 -0.211208
594 1 -1.1104 6.1559 25.4343 1.03426
600 1 -1.1104 6.59496 28.6026 3.9699
547 2 2.2208 10.8638 24.3123 5.29681
552 1 -1.1104 12.2541 23.1491 0.94827
556 1 -1.1104 12.352 22.9925 3.67059
559 2 2.2208 7.88191 24.2575 2.75814
565 1 -1.1104 9.38183 22.7045 0.908759
567 1 -1.1104 9.53857 22.9915 3.95153
603 1 -1.1104 12.0131 25.7641 0.938092
605 1 -1.1104 12.2858 25.8854 3.86015
609 2 2.2208 10.8035 27.1185 2.50763
613 1 -1.1104 9.04173 25.6772 0.870737
616 1 -1.1104 9.38 25.8424 3.85947
618 2 2.2208 7.97968 27.2795 5.43355
743 1 -1.1104 9.44905 25.7785 6.7692
620 1 -1.1104 9.54784 28.4331 0.9234
745 1 -1.1104 9.41148 28.7747 6.60855
7283 2 2.2208 -0.416552 21.3742 13.5476
578 1 -1.1104 1.08644 28.6313 4.09574
598 1 -1.1104 6.70535 28.1008 1.1195
569 2 2.2208 5.08267 30.0105 5.22964
571 1 -1.1104 1.06223 31.4685 1.08361
573 1 -1.1104 0.983602 31.2995 3.92831
575 1 -1.1104 0.920996 34.3332 1.08254
577 2 2.2208 5.32268 32.8187 2.37181
579 1 -1.1104 0.972806 34.1983 3.62943
581 1 -1.1104 3.81909 31.2541 1.02619
582 2 2.2208 2.40766 30.0694 2.37121
584 1 -1.1104 3.64407 31.3715 3.9619
586 2 2.2208 2.18635 32.7021 5.25275
588 1 -1.1104 3.96651 34.1018 1.02934
590 1 -1.1104 3.85691 34.3196 3.87914
693 1 -1.1104 0.737875 34.193 6.44435
595 1 -1.1104 6.7139 31.3573 0.999604
597 1 -1.1104 6.66569 31.3093 3.80941
601 1 -1.1104 6.58598 34.1304 3.76759
736 1 -1.1104 6.34069 34.5337 6.65628
691 1 -1.1104 0.995332 31.2872 6.61518
748 1 -1.1104 12.1579 34.4793 9.59979
538 2 2.2208 2.49314 15.9491 -0.367631
611 1 -1.1104 12.3454 28.6302 3.82687
607 1 -1.1104 12.3755 28.4184 1.0598
746 1 -1.1104 9.16415 34.339 6.55434
622 1 -1.1104 9.39631 28.6166 3.68789
599 1 -1.1104 6.78418 34.4108 1.10853
602 2 2.2208 10.7634 30.1041 5.1538
604 1 -1.1104 12.1424 31.1853 0.951368
606 1 -1.1104 12.4237 31.3672 3.90264
608 1 -1.1104 12.3342 34.1792 1.06424
610 2 2.2208 10.7688 32.8456 2.26842
612 1 -1.1104 12.4387 34.2324 3.75772
614 1 -1.1104 9.46595 31.249 0.81373
615 2 2.2208 8.22148 29.9205 2.32669
617 1 -1.1104 9.55995 31.493 3.92029
619 2 2.2208 7.89947 32.8333 5.18357
621 1 -1.1104 9.65787 34.0938 0.928459
623 1 -1.1104 9.5541 34.3622 3.65281
744 1 -1.1104 9.22526 31.7507 6.54091
7282 2 2.2208 -0.310167 21.5245 8.08535
534 1 -1.1104 3.73236 17.4203 6.63073
927 2 2.2208 7.92532 21.3758 -0.385785
7161 2 2.2208 -0.33979 15.78 2.37043
635 2 2.2208 5.18734 15.9573 8.01032
7118 2 2.2208 13.6383 15.9847 5.29506
643 2 2.2208 2.47316 15.9468 10.9554
520 1 -1.1104 0.83725 17.2083 6.59486
629 2 2.2208 5.24917 18.6628 10.7964
631 1 -1.1104 1.02804 19.9662 12.3763
632 1 -1.1104 1.07637 20.4415 9.6797
633 1 -1.1104 0.849616 17.3518 12.329
636 2 2.2208 5.23949 21.6033 7.97085
637 1 -1.1104 1.22871 17.4497 9.44452
639 1 -1.1104 3.79112 19.8718 12.3423
640 2 2.2208 2.44854 18.6068 7.97134
642 1 -1.1104 3.99136 20.236 9.5174
644 2 2.2208 2.58516 21.4268 10.9202
645 1 -1.1104 3.7029 17.2295 12.3563
647 1 -1.1104 3.92432 17.35 9.37249
663 1 -1.1104 6.71594 17.2414 9.36417
724 1 -1.1104 12.3759 31.7182 9.33968
731 1 -1.1104 9.63415 31.5107 9.48859
654 1 -1.1104 12.3342 19.9477 6.50324
551 1 -1.1104 12.2273 17.1546 6.70604
564 1 -1.1104 9.30027 17.5537 6.73023
661 1 -1.1104 6.46904 17.3255 12.2349
660 1 -1.1104 7.01169 19.9831 9.6663
7196 2 2.2208 13.5644 27.3744 5.25412
656 1 -1.1104 9.56087 20.4543 6.8884
679 2 2.2208 7.90738 16.0369 10.8434
659 1 -1.1104 6.57781 20.1327 12.2918
671 2 2.2208 10.6756 16.038 8.02
665 2 2.2208 10.7487 18.7557 10.9467
667 1 -1.1104 12.1947 20.1895 12.273
668 1 -1.1104 12.234 20.167 9.29777
669 1 -1.1104 12.55 17.4245 12.1857
672 2 2.2208 11.1129 21.677 7.85051
673 1 -1.1104 12.3156 17.4302 9.36569
675 1 -1.1104 9.56924 20.1303 12.2352
676 2 2.2208 8.04792 18.824 8.0872
678 1 -1.1104 9.53623 20.3156 9.50988
680 2 2.2208 8.023 21.6177 10.9745
681 1 -1.1104 9.45138 17.1975 12.1013
683 1 -1.1104 9.2896 17.5005 9.55977
698 1 -1.1104 3.62094 28.5609 6.74306
690 1 -1.1104 0.931127 25.8817 6.77988
694 1 -1.1104 3.84049 25.8235 6.94186
630 2 2.2208 5.33176 24.4036 10.8566
634 1 -1.1104 1.0616 22.6808 12.1435
638 1 -1.1104 1.04511 23.1906 9.39764
641 2 2.2208 2.46415 24.5154 8.01195
646 1 -1.1104 3.78955 22.9961 12.1721
648 1 -1.1104 3.86452 23.2034 9.4302
702 2 2.2208 2.53166 27.2711 10.9352
704 1 -1.1104 1.03281 25.8418 12.3019
706 1 -1.1104 0.922213 25.9005 9.58047
710 2 2.2208 5.1632 27.1668 8.30405
714 1 -1.1104 3.84423 25.7258 12.2965
717 1 -1.1104 3.95272 25.6955 9.63586
708 1 -1.1104 1.19614 28.3666 12.651
700 1 -1.1104 3.92103 28.5814 12.2141
712 1 -1.1104 0.726213 29.0902 9.70496
696 1 -1.1104 3.68254 28.7582 9.5222
750 2 2.2208 10.8671 32.9811 8.0913
653 1 -1.1104 6.68078 22.9664 6.77805
662 1 -1.1104 6.53192 22.7864 12.1073
730 2 2.2208 10.9714 30.1764 10.8563
726 2 2.2208 8.10973 32.8221 11.0174
733 1 -1.1104 6.62605 25.6487 6.87126
735 1 -1.1104 6.59064 28.532 6.98769
655 1 -1.1104 12.4237 22.9335 6.4482
723 1 -1.1104 9.58241 28.7809 12.299
856 2 2.2208 -0.389968 33.0513 13.5038
754 1 -1.1104 6.72494 25.8104 9.62455
658 1 -1.1104 9.44343 23.0933 6.84793
664 1 -1.1104 6.91351 22.8843 9.46892
760 1 -1.1104 6.59567 28.644 9.63687
739 1 -1.1104 12.2735 25.8537 6.9125
752 1 -1.1104 6.68048 25.8019 12.3403
666 2 2.2208 10.8511 24.412 10.9416
670 1 -1.1104 12.1612 22.9062 12.1245
674 1 -1.1104 12.6623 23.227 9.44748
677 2 2.2208 8.1664 24.2917 8.32431
682 1 -1.1104 9.33554 22.9979 12.3346
684 1 -1.1104 9.78805 23.0623 9.38859
725 1 -1.1104 12.2146 25.9847 9.55065
727 2 2.2208 8.03939 27.3857 11.0773
729 1 -1.1104 12.1276 25.7636 12.3329
732 1 -1.1104 9.30627 25.9339 9.67853
747 1 -1.1104 9.28285 25.9608 12.4379
751 2 2.2208 10.7964 27.1728 8.03461
721 1 -1.1104 9.5089 28.6251 9.41707
749 1 -1.1104 12.3287 28.9206 9.68634
755 1 -1.1104 6.7187 31.6386 9.36635
757 1 -1.1104 6.56921 34.3332 12.5328
756 1 -1.1104 6.8896 28.6008 12.3212
761 1 -1.1104 6.45079 34.5382 9.60417
699 1 -1.1104 3.60782 34.1791 6.86956
753 1 -1.1104 6.56312 31.5316 12.124
695 1 -1.1104 3.72883 31.2818 6.84108
718 1 -1.1104 3.91931 31.3961 9.8784
689 1 -1.1104 3.64699 34.3168 9.59137
697 1 -1.1104 3.79391 34.2807 12.4025
701 2 2.2208 2.45351 32.7278 10.9291
703 2 2.2208 5.33734 30.0047 11.0279
705 1 -1.1104 0.997079 31.3742 12.153
707 1 -1.1104 1.04954 31.55 9.41501
709 1 -1.1104 0.985287 34.1946 12.0667
711 2 2.2208 5.23798 32.9645 8.14172
713 1 -1.1104 0.919299 34.1931 9.29459
715 1 -1.1104 4.04776 31.3205 12.6458
716 2 2.2208 2.36579 30.1396 8.22428
740 1 -1.1104 11.9602 31.5835 6.47802
741 1 -1.1104 12.2966 28.6863 6.61548
728 1 -1.1104 12.1968 31.2874 12.1979
722 1 -1.1104 9.39248 34.172 12.4125
734 1 -1.1104 6.56891 31.5717 6.711
742 1 -1.1104 12.1589 34.2269 6.48426
737 2 2.2208 8.15101 30.0598 8.27886
720 1 -1.1104 9.44725 34.2924 9.54936
758 1 -1.1104 12.4137 34.1229 12.5131
738 1 -1.1104 9.28784 31.3144 12.2598
759 1 -1.1104 12.1195 28.5777 12.372
7195 2 2.2208 13.4968 30.0639 2.34207
657 2 2.2208 13.5833 15.9422 10.7301
592 2 2.2208 -0.388882 32.9006 2.31685
955 2 2.2208 5.24861 29.9358 -0.377773
685 2 2.2208 8.0985 18.6752 13.6112
925 2 2.2208 10.8143 18.6172 -0.31806
859 2 2.2208 5.29811 27.1068 13.6279
651 2 2.2208 5.20645 16.042 13.639
762 2 2.2208 5.29509 18.6291 16.5639
764 1 -1.1104 1.11157 20.1099 17.9698
765 1 -1.1104 0.948341 20.1447 15.2256
767 1 -1.1104 1.06218 17.2473 18.1572
770 2 2.2208 5.23649 21.58 19.3225
771 1 -1.1104 1.17194 17.4182 15.3214
775 1 -1.1104 3.95321 19.8506 18.1383
776 2 2.2208 2.43667 18.5917 19.5027
778 1 -1.1104 3.96625 20.1902 15.1593
781 2 2.2208 2.45227 21.4947 16.5924
782 1 -1.1104 3.83415 17.1915 17.99
784 1 -1.1104 3.82523 17.408 14.997
785 1 -1.1104 3.92245 17.121 20.749