ITEM: TIMESTEP
40000
ITEM: NUMBER OF ATOMS
13500
ITEM: BOX BOUNDS pp pp pp
-4.3358333627375684e-01 2.7773583336273607e+01
-3.9400986871732897e+00 2.5000009868717419e+02
-4.4011461489233961e-01 2.7780114614892895e+01
ITEM: ATOMS id type q x y z
2 2 2.2208 5.14951 1.79733 5.45822
3 1 -1.1104 1.29973 -2.45199 1.26952
11 1 -1.1104 1.15096 -2.83656 4.08579
15 1 -1.1104 0.975975 0.215998 1.24735
19 2 2.2208 5.12786 -1.22657 2.57843
21 1 -1.1104 0.987998 0.246524 3.97315
23 1 -1.1104 3.9796 -2.62072 1.31008
28 2 2.2208 2.31649 1.50027 2.57434
29 1 -1.1104 3.80509 -2.6065 3.98435
31 2 2.2208 2.28524 -1.14835 5.49394
33 1 -1.1104 3.76408 0.110102 1.02116
35 1 -1.1104 3.73758 0.160177 3.74064
233 1 -1.1104 12.2431 14.4219 12.3475
172 2 2.2208 2.34752 -3.80637 8.10563
6715 2 2.2208 13.5722 1.77864 8.22946
4 1 -1.1104 0.860339 -2.47109 6.95143
143 2 2.2208 8.18861 10.2833 -0.352398
436 2 2.2208 8.01371 4.54713 -0.289393
6595 2 2.2208 13.5493 -1.07131 5.58309
22 1 -1.1104 6.5587 0.164145 4.03555
7 1 -1.1104 6.77325 -2.52773 1.11211
17 1 -1.1104 6.57792 0.22256 1.1036
13 1 -1.1104 6.55051 -2.62002 4.15299
36 2 2.2208 10.8739 1.67225 5.30171
37 1 -1.1104 12.2748 -2.67883 1.17683
41 1 -1.1104 12.314 -2.42386 4.06128
43 1 -1.1104 12.2238 0.313427 0.920136
45 2 2.2208 10.7462 -1.32549 2.67089
47 1 -1.1104 12.0693 0.448914 3.77849
48 1 -1.1104 9.54105 -2.67643 1.22949
52 2 2.2208 8.00568 1.4883 2.49207
53 1 -1.1104 9.22631 -2.57103 4.03832
55 2 2.2208 7.78842 -1.1588 5.50889
57 1 -1.1104 9.3888 0.164029 0.922376
59 1 -1.1104 9.50853 0.206365 3.77501
58 1 -1.1104 9.39151 0.056499 6.52953
44 1 -1.1104 12.2156 0.282211 6.76157
49 1 -1.1104 9.08725 -2.67104 6.91134
415 2 2.2208 2.43248 -1.10605 -0.221894
174 2 2.2208 8.05427 1.75311 13.5991
5 1 -1.1104 0.821775 2.94103 0.943709
12 1 -1.1104 0.877231 3.04533 3.78533
20 2 2.2208 5.26018 4.46801 2.44767
25 1 -1.1104 3.54555 3.08596 1.43301
30 1 -1.1104 3.85673 3.1497 4.09326
32 2 2.2208 2.50723 4.50038 5.32283
63 2 2.2208 5.1652 7.34879 5.31486
70 1 -1.1104 1.13294 8.76558 4.03961
72 1 -1.1104 1.17079 5.96993 1.03566
78 1 -1.1104 1.11125 5.95233 4.0433
80 1 -1.1104 3.89439 8.81959 0.93622
84 2 2.2208 2.53282 7.50647 2.41969
86 1 -1.1104 3.81172 8.92578 3.96096
89 1 -1.1104 3.76965 6.12956 1.1046
93 1 -1.1104 3.89379 6.19324 3.84588
65 1 -1.1104 1.12252 8.75901 1.14248
243 1 -1.1104 9.5462 14.3881 12.3254
99 1 -1.1104 6.56136 8.78944 0.907079
104 1 -1.1104 6.60178 5.94255 0.895998
14 1 -1.1104 6.48088 2.9767 3.68462
444 2 2.2208 8.02647 -1.28476 -0.416766
73 1 -1.1104 1.23406 5.81982 6.78031
6677 2 2.2208 -0.208343 12.9945 5.24145
120 1 -1.1104 12.4248 11.5841 6.54375
6835 2 2.2208 -0.272961 13.1521 10.983
173 2 2.2208 5.21454 -3.92334 11.1052
252 1 -1.1104 6.70305 14.3082 9.63772
9 1 -1.1104 6.63526 3.15438 1.19624
102 1 -1.1104 6.61101 8.54975 3.73772
107 1 -1.1104 6.60797 5.81247 3.94962
39 1 -1.1104 12.2446 3.27553 1.07863
42 1 -1.1104 12.2232 3.17346 3.8418
46 2 2.2208 10.8714 4.58709 2.40223
50 1 -1.1104 9.36881 2.94135 1.47012
54 1 -1.1104 9.3355 3.03595 4.03365
56 2 2.2208 8.05941 4.56818 5.18006
109 2 2.2208 10.8326 7.36594 5.10902
115 1 -1.1104 12.2568 8.78535 3.58911
117 1 -1.1104 12.2575 5.9257 0.889212
122 1 -1.1104 12.2537 5.97487 3.86482
128 2 2.2208 7.99112 7.51855 2.3802
133 1 -1.1104 9.5497 5.87367 1.21158
137 1 -1.1104 9.3941 6.12671 3.95345
111 1 -1.1104 12.1441 8.76849 1.0824
124 1 -1.1104 9.32491 8.67445 1.17945
130 1 -1.1104 9.47974 9.1326 3.73161
40 1 -1.1104 12.2804 3.16667 6.66889
6626 2 2.2208 -0.369956 -1.30232 2.52478
10 1 -1.1104 6.63796 3.21421 6.65893
95 2 2.2208 5.12051 13.0177 -0.331745
141 2 2.2208 13.6203 10.1078 5.14761
64 2 2.2208 5.29276 13.0877 5.34831
67 1 -1.1104 1.10717 14.4148 1.05822
71 1 -1.1104 1.05755 14.3885 3.71465
74 1 -1.1104 0.665761 11.6199 1.16876
77 2 2.2208 5.40647 10.2041 2.63661
79 1 -1.1104 1.04827 11.4943 4.04881
82 1 -1.1104 3.6561 14.6142 1.06898
85 2 2.2208 2.52981 13.0481 2.38423
87 1 -1.1104 3.98979 14.4039 3.91184
88 2 2.2208 2.5719 10.2655 5.37127
91 1 -1.1104 3.69553 11.7225 1.00173
94 1 -1.1104 3.81139 11.6162 3.8504
83 1 -1.1104 4.12817 14.2013 6.74409
105 1 -1.1104 6.48934 11.5352 1.0038
108 1 -1.1104 6.74042 11.5106 3.7873
92 1 -1.1104 4.00746 11.5372 6.70901
106 1 -1.1104 6.70854 11.7019 6.54959
248 1 -1.1104 12.3631 14.5376 9.50475
100 1 -1.1104 6.62108 14.212 0.92336
103 1 -1.1104 6.66211 14.2863 4.01443
110 2 2.2208 11.0136 13.2443 5.25489
113 1 -1.1104 12.1916 14.625 0.909592
116 1 -1.1104 12.5673 14.4407 3.62791
119 1 -1.1104 12.2143 11.7215 1.02394
121 2 2.2208 10.7616 10.2844 2.3369
123 1 -1.1104 12.3457 11.7366 3.6536
126 1 -1.1104 9.37216 14.2997 0.718039
129 2 2.2208 8.13549 12.9589 2.38806
131 1 -1.1104 9.43065 14.7258 3.73384
132 2 2.2208 8.12996 10.2818 5.26443
135 1 -1.1104 9.22297 11.5306 1.10799
138 1 -1.1104 9.50442 11.8571 3.99287
34 1 -1.1104 3.76621 0.284577 6.73979
6601 2 2.2208 -0.357625 1.74694 5.37414
98 2 2.2208 -0.291368 7.23383 -0.245669
24 1 -1.1104 3.75734 -2.61639 6.94229
140 2 2.2208 13.6175 7.25608 2.38349
16 1 -1.1104 1.0201 0.350909 6.90081
146 2 2.2208 5.28979 1.68046 11.0287
147 1 -1.1104 0.973634 -2.57233 12.4686
150 1 -1.1104 0.71675 -2.50335 9.70771
154 1 -1.1104 0.912694 0.331477 12.346
156 2 2.2208 5.17708 -1.09972 8.3224
158 1 -1.1104 0.94419 0.312325 9.77302
160 1 -1.1104 3.74866 -2.56311 12.5061
162 2 2.2208 2.35267 1.84764 8.36956
163 1 -1.1104 3.5878 -2.24098 9.69719
165 2 2.2208 2.31002 -1.11114 11.1834
167 1 -1.1104 3.82875 0.204628 12.3941
168 1 -1.1104 3.72843 0.33765 9.74728
155 1 -1.1104 6.52076 0.154135 12.4377
246 1 -1.1104 12.3874 11.5689 9.3652
237 2 2.2208 10.8585 13.0607 10.9176
38 1 -1.1104 12.0732 -2.49445 6.78294
6743 2 2.2208 13.6122 -1.09122 10.9495
18 1 -1.1104 6.58412 0.258552 6.82498
152 1 -1.1104 6.5045 -2.6086 9.73004
8 1 -1.1104 6.51714 -2.77546 6.95395
149 1 -1.1104 6.49941 -2.48998 12.3229
159 1 -1.1104 6.62233 0.27001 9.62805
177 2 2.2208 10.8642 1.70743 10.9237
178 1 -1.1104 12.1394 -2.48161 12.2192
180 1 -1.1104 12.1157 -2.57797 9.54517
182 1 -1.1104 12.1189 0.512448 12.181
183 2 2.2208 10.6447 -1.27626 8.19012
185 1 -1.1104 12.045 0.215555 9.27764
186 1 -1.1104 9.32325 -2.56308 12.4348
188 2 2.2208 7.94386 1.70231 8.16486
189 1 -1.1104 9.17259 -2.62467 9.74101
191 2 2.2208 7.91067 -1.15806 11.0418
193 1 -1.1104 9.55848 0.516715 12.3536
194 1 -1.1104 9.34736 0.251403 9.55695
244 1 -1.1104 12.2622 11.6097 12.3467
101 1 -1.1104 6.86878 14.444 6.81921
90 1 -1.1104 3.91786 5.949 6.74567
81 1 -1.1104 3.97875 8.79529 6.57684
26 1 -1.1104 3.84918 3.0744 6.79598
66 1 -1.1104 1.21353 8.76709 6.72171
6627 2 2.2208 -0.263264 4.65053 2.37823
6 1 -1.1104 1.14876 3.14521 6.81802
148 1 -1.1104 1.06576 3.01404 12.4876
151 1 -1.1104 0.729031 3.24835 9.68032
157 2 2.2208 5.14939 4.5664 8.06402
161 1 -1.1104 3.89947 2.91865 12.5952
164 1 -1.1104 3.83203 2.97491 9.76191
166 2 2.2208 2.25404 4.5681 10.8946
201 1 -1.1104 3.68116 5.80896 9.37892
203 1 -1.1104 3.72775 5.95334 12.4355
208 2 2.2208 2.35796 7.35688 8.06185
210 2 2.2208 5.16006 7.41017 10.8427
212 1 -1.1104 1.10051 8.79081 12.4667
215 1 -1.1104 1.02256 8.82937 9.58724
218 1 -1.1104 0.892268 5.86957 12.315
223 1 -1.1104 0.988829 6.11023 9.51346
198 1 -1.1104 3.7551 8.81002 12.3357
206 1 -1.1104 3.92171 8.92929 9.60797
217 1 -1.1104 6.67117 8.75221 9.3546
76 1 -1.1104 6.6878 5.87417 6.65303
225 1 -1.1104 6.47132 5.87782 9.62404
220 1 -1.1104 6.43858 5.83969 12.4371
176 1 -1.1104 6.81855 3.10249 12.2374
112 1 -1.1104 12.2137 8.97316 6.51325
134 1 -1.1104 9.49928 5.74392 6.64871
69 1 -1.1104 6.80516 8.89284 6.64377
51 1 -1.1104 9.30038 3.06484 6.85721
214 1 -1.1104 6.78795 8.55434 12.2944
118 1 -1.1104 12.1958 6.07222 6.52808
125 1 -1.1104 9.51454 8.87922 6.65963
153 1 -1.1104 6.58976 3.01804 9.46243
245 1 -1.1104 9.55976 8.80925 12.2993
250 1 -1.1104 12.4412 6.06064 9.26534
249 1 -1.1104 12.1561 8.80138 9.57684
179 1 -1.1104 12.1554 3.10954 12.5324
181 1 -1.1104 12.2125 3.11758 9.6159
184 2 2.2208 10.8483 4.60025 8.02411
187 1 -1.1104 9.6263 3.28415 12.4077
190 1 -1.1104 9.41968 3.16698 9.57723
192 2 2.2208 8.11969 4.54183 10.8825
247 1 -1.1104 12.331 5.84735 12.1037
230 1 -1.1104 9.56375 5.88519 9.43069
232 1 -1.1104 9.5203 6.16896 12.1763
236 1 -1.1104 12.3315 8.78502 12.2743
238 2 2.2208 10.8735 7.44209 10.8315
240 1 -1.1104 9.47107 8.82098 9.50103
242 2 2.2208 8.0063 7.3108 8.14678
6580 2 2.2208 13.4961 1.55717 2.33545
234 2 2.2208 8.12907 10.1866 10.8082
6709 2 2.2208 -0.198447 7.27046 5.35171
68 1 -1.1104 1.19039 14.4385 6.3412
75 1 -1.1104 1.25105 11.6507 6.76133
200 1 -1.1104 4.0443 11.6874 9.60938
202 1 -1.1104 3.92777 11.6049 12.5139
204 2 2.2208 2.44645 10.1019 10.8398
205 1 -1.1104 3.76587 14.5861 9.48514
207 2 2.2208 2.56448 13.1261 8.22253
209 1 -1.1104 3.82203 14.5276 12.4005
211 2 2.2208 5.25494 12.8633 11.1338
213 1 -1.1104 1.07524 14.5676 12.1568
216 1 -1.1104 1.10444 14.497 9.31892
219 1 -1.1104 1.02039 11.8749 12.28
222 2 2.2208 5.34956 10.2678 8.0569
224 1 -1.1104 1.18425 11.7694 9.70935
251 1 -1.1104 6.66401 14.373 12.4343
199 1 -1.1104 6.66163 11.6084 9.3987
235 1 -1.1104 9.63305 14.4851 9.37038
221 1 -1.1104 6.8245 11.3498 12.3847
229 1 -1.1104 9.35689 11.7439 9.51305
239 2 2.2208 10.7312 10.2867 8.14501
241 2 2.2208 8.11456 13.1213 8.06508
127 1 -1.1104 9.61667 14.5624 6.77495
114 1 -1.1104 12.2673 14.6656 6.61414
136 1 -1.1104 9.53245 11.7463 6.84443
231 1 -1.1104 9.4674 11.5841 12.2094
6712 2 2.2208 -0.435526 12.7581 -0.312273
144 2 2.2208 10.8868 7.3767 -0.295246
6708 2 2.2208 -0.273312 10.0793 2.74582
387 2 2.2208 2.32863 4.48429 -0.208394
435 2 2.2208 10.8232 1.7252 -0.218342
6840 2 2.2208 -0.246564 10.2093 13.6481
259 2 2.2208 13.621 12.9564 13.6676
411 2 2.2208 5.288 1.63382 -0.394553
260 2 2.2208 5.19416 1.49977 16.7228
261 1 -1.1104 0.912381 -2.56514 18.2167
263 1 -1.1104 0.94901 -2.38511 15.1635
268 1 -1.1104 1.04246 0.197167 18.1057
269 2 2.2208 5.30918 -1.09042 19.3805
271 1 -1.1104 0.754168 0.248029 15.2923
273 1 -1.1104 3.66446 -2.54045 18.158
276 2 2.2208 2.50241 1.68978 19.3407
277 1 -1.1104 3.76984 -2.30101 15.2155
281 2 2.2208 2.21254 -1.18751 16.5728
283 1 -1.1104 3.88164 0.206095 17.9935
284 1 -1.1104 3.57628 0.221775 15.2526
413 2 2.2208 2.50427 -3.88402 25.2231
497 1 -1.1104 9.36707 11.6336 20.9301
171 2 2.2208 5.2371 4.54515 13.8079
294 1 -1.1104 6.61836 0.338388 15.3759
509 1 -1.1104 6.66631 14.3098 26.4172
6811 2 2.2208 13.5647 7.36403 13.68
291 1 -1.1104 6.54071 -2.4836 20.7236
96 2 2.2208 2.57625 10.1485 27.748
288 1 -1.1104 6.68498 -2.30547 17.9809
290 1 -1.1104 6.64399 -2.65147 15.373
293 1 -1.1104 6.67951 0.354692 18.1129
296 2 2.2208 11.1014 1.82816 16.3621
297 1 -1.1104 12.2459 -2.49005 18.0411
299 1 -1.1104 12.2446 -2.79678 15.366
303 1 -1.1104 12.3177 0.425223 18.0075
304 2 2.2208 10.8271 -1.13525 19.5174
306 1 -1.1104 12.2992 0.19775 15.0098
308 1 -1.1104 9.29797 -2.56068 18.0004
310 2 2.2208 8.03138 1.75487 19.3753
311 1 -1.1104 9.39195 -2.50923 15.2359
315 2 2.2208 8.08939 -1.09903 16.4221
317 1 -1.1104 9.55704 0.426134 17.9265
318 1 -1.1104 9.67387 0.481212 15.1998
307 1 -1.1104 12.3761 0.166279 21.0125
255 2 2.2208 7.96226 7.43585 13.8328
6940 2 2.2208 -0.408139 10.1783 19.3251
295 1 -1.1104 6.8545 0.49307 20.9113
7089 2 2.2208 -0.400661 12.8546 22.0357
262 1 -1.1104 1.00862 3.00799 18.1005
265 1 -1.1104 1.21631 2.85434 15.2921
270 2 2.2208 5.31993 4.59589 19.33
274 1 -1.1104 3.85373 3.02953 17.8866
279 1 -1.1104 4.07232 3.0869 15.2995
282 2 2.2208 2.48709 4.35319 16.6547
323 2 2.2208 5.16936 7.31588 16.517
325 1 -1.1104 0.978654 8.65918 18.0277
328 1 -1.1104 1.02438 8.53017 15.236
331 1 -1.1104 1.272 5.84606 18.226
335 1 -1.1104 0.993855 5.64342 15.3368
340 1 -1.1104 3.6043 8.58833 18.0278
342 2 2.2208 2.39406 7.29566 19.4914
344 1 -1.1104 3.85254 8.57037 15.2236
348 1 -1.1104 3.86908 5.82336 18.1314
350 1 -1.1104 3.81203 5.79538 15.1046
458 1 -1.1104 3.84912 8.73493 21.0202
333 1 -1.1104 6.69469 5.9936 17.8351
266 1 -1.1104 1.02116 2.94707 20.8876
6941 2 2.2208 -0.278135 7.24738 16.6058
6771 2 2.2208 -0.313497 4.43384 13.7319
6904 2 2.2208 -0.330827 -1.28084 19.5615
482 1 -1.1104 9.6248 14.4304 26.1817
338 1 -1.1104 6.65732 5.94857 15.0191
330 1 -1.1104 6.54219 8.78886 15.2929
289 1 -1.1104 6.64567 3.27998 17.8501
339 1 -1.1104 6.68021 5.90758 20.9527
327 1 -1.1104 6.69772 8.54164 17.9914
292 1 -1.1104 6.74682 2.9247 15.0928
298 1 -1.1104 12.4648 3.13595 17.8985
301 1 -1.1104 12.309 3.01821 15.1367
305 2 2.2208 10.9563 4.57993 19.2882
309 1 -1.1104 9.67651 3.16936 17.7387
313 1 -1.1104 9.40088 3.24944 15.0712
316 2 2.2208 7.98839 4.38199 16.6772
358 2 2.2208 10.9482 7.24174 16.7338
360 1 -1.1104 12.4215 8.75791 18.2445
364 1 -1.1104 12.4914 6.09803 17.9144
367 1 -1.1104 12.3465 5.91744 14.9407
370 1 -1.1104 9.70876 8.76689 17.9615
372 2 2.2208 8.05357 7.4703 19.4154
378 1 -1.1104 9.40852 5.98313 17.9692
380 1 -1.1104 9.52888 6.05043 15.2921
374 1 -1.1104 9.50542 8.77022 15.169
362 1 -1.1104 12.1883 8.83299 15.2161
368 1 -1.1104 12.3753 5.62078 20.8766
302 1 -1.1104 12.2681 2.88154 20.7854
169 2 2.2208 2.39128 1.52333 13.7022
476 2 2.2208 -0.241903 7.19499 22.1882
227 2 2.2208 2.48575 7.33094 13.7058
498 2 2.2208 7.94766 12.8797 25.0143
324 2 2.2208 5.12056 12.9396 16.4354
326 1 -1.1104 1.38355 14.2948 18.0928
329 1 -1.1104 0.724128 14.2548 15.0753
332 1 -1.1104 0.76109 11.4938 18.0102
334 2 2.2208 4.93838 10.1623 19.513
337 1 -1.1104 1.0618 11.3211 15.1508
341 1 -1.1104 3.96177 14.2344 17.8249
343 2 2.2208 2.33175 12.7457 19.5193
345 1 -1.1104 3.88567 14.4563 15.0621
347 2 2.2208 2.25961 9.93886 16.5494
349 1 -1.1104 3.57191 11.5287 17.9101
352 1 -1.1104 3.82954 11.2099 15.459
356 1 -1.1104 6.44624 11.7148 18.0387
353 1 -1.1104 6.89887 14.4776 17.9196
6873 2 2.2208 13.571 -1.08587 16.6737
412 2 2.2208 5.026 -3.90791 22.2408
376 1 -1.1104 9.2446 14.3984 20.6472
504 1 -1.1104 12.4682 14.4874 23.7148
195 2 2.2208 10.8517 4.58307 13.6983
357 1 -1.1104 6.65294 11.9037 15.2165
354 1 -1.1104 6.74999 14.5109 14.8963
359 2 2.2208 10.7626 12.8987 16.638
361 1 -1.1104 12.2653 14.2917 18.0322
363 1 -1.1104 12.5158 14.4176 15.002
365 1 -1.1104 12.3977 11.509 17.8924
366 2 2.2208 10.8271 10.181 19.4921
369 1 -1.1104 12.0577 11.6094 15.2307
371 1 -1.1104 9.4906 14.4933 17.9053
373 2 2.2208 8.11191 12.8806 19.2768
375 1 -1.1104 9.60373 14.1873 15.0401
377 2 2.2208 8.07075 10.0615 16.7076
379 1 -1.1104 9.46918 11.5405 18.1505
382 1 -1.1104 9.3062 11.3087 15.2537
285 1 -1.1104 3.99082 0.0757071 20.8421
264 1 -1.1104 0.997946 -2.51261 21.0644
500 1 -1.1104 12.4874 14.4487 26.4632
272 1 -1.1104 0.718424 0.3953 20.9146
278 1 -1.1104 3.61642 -2.52528 20.9832
388 2 2.2208 5.39456 1.75369 22.2719
389 1 -1.1104 0.90705 -2.67799 23.813
392 1 -1.1104 0.898491 -2.61647 26.5781
396 1 -1.1104 1.16739 0.382789 23.6183
398 2 2.2208 5.20215 -1.19731 25.2785
400 1 -1.1104 1.30522 0.265849 26.3995
402 1 -1.1104 3.81619 -2.67917 23.8163
404 2 2.2208 2.43728 1.7523 25.1235
405 1 -1.1104 3.85906 -2.42032 26.7884
407 2 2.2208 2.45075 -1.01696 22.2329
409 1 -1.1104 3.87232 0.422948 23.5692
410 1 -1.1104 4.12029 0.487715 26.4362
401 1 -1.1104 6.92971 0.175618 26.5243
416 1 -1.1104 6.36171 -2.50391 23.4683
175 2 2.2208 10.954 -1.15705 13.7725
226 2 2.2208 5.3352 10.0467 13.9242
319 1 -1.1104 9.75653 0.298173 20.9164
300 1 -1.1104 12.316 -2.66386 20.7974
493 1 -1.1104 6.71033 11.5554 26.5729
312 1 -1.1104 9.31419 -2.3434 20.8282
397 1 -1.1104 6.56436 0.374505 23.7055
394 1 -1.1104 6.62228 -2.75932 26.5465
417 2 2.2208 10.8816 1.71523 22.3309
418 1 -1.1104 12.1158 -2.56273 23.5919
420 1 -1.1104 12.1456 -2.73321 26.5441
422 1 -1.1104 12.1792 0.357776 23.6614
423 2 2.2208 10.6645 -1.09257 24.9741
425 1 -1.1104 12.232 0.0429231 26.339
426 1 -1.1104 9.25794 -2.46556 23.675
428 2 2.2208 8.0212 1.6069 25.0327
429 1 -1.1104 9.35362 -2.76647 26.3859
431 2 2.2208 8.02175 -1.09781 22.1419
433 1 -1.1104 9.39624 0.251447 23.7765
434 1 -1.1104 9.54057 0.101527 26.6605
490 1 -1.1104 6.47822 11.3552 20.8051
336 1 -1.1104 1.06708 5.82769 20.9445
351 1 -1.1104 3.88894 5.82146 20.9601
280 1 -1.1104 3.72212 3.03515 21.04
449 1 -1.1104 0.885454 8.56999 20.7916
390 1 -1.1104 1.01575 3.13554 23.8233
393 1 -1.1104 1.0679 3.12216 26.5509
399 2 2.2208 5.11979 4.58959 25.0373
403 1 -1.1104 3.77038 3.14042 23.7313
406 1 -1.1104 3.79371 3.0062 26.723
408 2 2.2208 2.4168 4.53762 22.4525
445 1 -1.1104 4.02826 8.79445 26.3189
448 1 -1.1104 4.06489 5.91174 26.4259
453 1 -1.1104 3.87818 6.02494 23.5786
454 2 2.2208 2.49671 7.12278 25.0132
457 1 -1.1104 3.77512 8.68604 23.4789
462 2 2.2208 5.27886 7.41732 22.3347
467 1 -1.1104 0.89438 8.72137 26.5937
469 1 -1.1104 1.07018 5.8597 23.7481
474 1 -1.1104 0.971376 5.90374 26.4755
464 1 -1.1104 1.16252 8.64141 23.5625
267 1 -1.1104 6.50152 3.23328 20.543
466 1 -1.1104 6.78293 8.87494 23.8132
485 2 2.2208 10.871 10.022 25.0263
451 1 -1.1104 6.73957 8.65976 20.7544
314 1 -1.1104 9.31739 3.04656 20.7375
381 1 -1.1104 9.38468 6.03239 20.7484
496 1 -1.1104 9.56185 8.7109 20.7068
507 1 -1.1104 6.74579 14.2126 23.4542
391 1 -1.1104 6.48218 3.12948 23.7788
508 1 -1.1104 6.68032 8.79171 26.43
491 1 -1.1104 12.4146 8.40231 20.926
395 1 -1.1104 6.59146 3.16652 26.4601
495 1 -1.1104 7.04327 6.04431 26.2941
471 1 -1.1104 6.51435 6.04669 23.7197
502 1 -1.1104 9.58728 8.6005 23.6838
505 1 -1.1104 12.4309 8.82513 23.9462
419 1 -1.1104 12.5132 3.3584 23.7313
421 1 -1.1104 12.1198 3.02039 26.5524
424 2 2.2208 10.8133 4.41944 25.0947
427 1 -1.1104 9.34584 3.16312 23.6087
430 1 -1.1104 9.30321 3.13078 26.6345
432 2 2.2208 8.0375 4.66026 22.2282
478 1 -1.1104 9.6495 5.88236 26.4481
480 1 -1.1104 9.51246 5.82973 23.7229
483 1 -1.1104 12.293 5.80091 26.4807
486 2 2.2208 10.8534 7.22728 22.292
488 1 -1.1104 12.2377 6.10044 23.8031
489 1 -1.1104 9.71399 8.69967 26.4789
499 2 2.2208 8.24769 7.43273 25.1717
503 1 -1.1104 12.2154 8.79235 26.6303
455 1 -1.1104 0.942192 11.4647 20.8064
450 1 -1.1104 0.977832 14.4049 20.6404
459 1 -1.1104 3.64045 11.4465 20.8193
228 2 2.2208 2.26107 12.9325 13.7347
346 1 -1.1104 3.57688 14.2423 20.5746
473 2 2.2208 5.11069 10.131 25.095
446 2 2.2208 2.2441 13.1162 24.9762
447 1 -1.1104 3.77918 11.5762 26.4371
452 1 -1.1104 3.68808 11.5239 23.4975
456 1 -1.1104 3.98977 14.279 23.3391
460 1 -1.1104 1.22019 11.3035 26.304
461 2 2.2208 2.33172 10.1354 22.3264
463 2 2.2208 5.19665 12.7319 22.1189
465 1 -1.1104 1.03239 14.305 23.4242
468 1 -1.1104 1.00753 14.3265 26.4112
470 1 -1.1104 0.966014 11.2802 23.509
472 1 -1.1104 3.72805 14.4966 26.3977
170 2 2.2208 5.12184 -1.06888 13.7855
145 2 2.2208 13.6692 10.2509 27.6545
494 1 -1.1104 12.1227 11.3549 21.0416
253 2 2.2208 8.0561 12.9193 13.7581
481 2 2.2208 7.89567 10.0656 22.2226
487 1 -1.1104 11.9048 11.5878 23.6819
501 1 -1.1104 9.84676 14.552 23.3463
479 1 -1.1104 9.35455 11.551 23.5384
492 1 -1.1104 12.2481 14.0358 20.6818
355 1 -1.1104 6.17503 14.237 20.5783
477 1 -1.1104 9.61117 11.6041 26.5247
510 1 -1.1104 6.51588 11.4783 23.5502
484 2 2.2208 10.799 12.8877 22.2148
506 1 -1.1104 12.2426 11.6361 26.312
414 2 2.2208 -0.452382 4.2938 25.1361
6744 2 2.2208 13.565 1.75903 13.7244
6879 2 2.2208 -0.334222 4.52421 19.5492
475 2 2.2208 -0.445638 9.88849 25.0439
6907 2 2.2208 -0.448898 1.71158 16.513
438 2 2.2208 13.5777 -1.28786 27.7952
7002 2 2.2208 -0.338915 1.62122 22.276
254 2 2.2208 10.7767 10.3012 13.6887
7001 2 2.2208 -0.211181 -1.15185 25.2763
440 2 2.2208 13.5766 1.61302 25.0769
383 2 2.2208 13.4994 10.214 16.5107
911 2 2.2208 5.40387 15.5799 24.9849
286 2 2.2208 5.10049 -3.86817 16.5634
321 2 2.2208 7.91061 -3.91911 19.4127
97 2 2.2208 5.39608 7.3287 27.7402
142 2 2.2208 10.9313 13.1359 27.5963
514 2 2.2208 5.30538 18.5575 5.15903
516 1 -1.1104 1.05029 19.9155 0.989063
518 1 -1.1104 1.38162 19.7917 3.90815
519 1 -1.1104 1.03846 17.1411 0.996833
523 2 2.2208 5.36216 21.3411 2.4142
524 1 -1.1104 1.08555 17.1562 3.83403
526 1 -1.1104 3.88135 20.0323 0.754905
528 2 2.2208 2.58732 18.6263 2.28551
530 1 -1.1104 4.06147 19.8248 3.88547
532 2 2.2208 2.7044 21.2837 5.18792
533 1 -1.1104 3.90991 17.2022 0.959059
536 1 -1.1104 3.96555 17.1493 3.70968
902 2 2.2208 2.50809 21.4862 -0.28218
544 1 -1.1104 6.69463 17.3068 3.81028
522 2 2.2208 5.19923 15.6892 2.37619
671 2 2.2208 10.9738 16.0281 8.07822
527 1 -1.1104 4.10905 19.9814 6.8524
635 2 2.2208 5.39236 15.893 8.10717
904 2 2.2208 5.33681 18.5316 -0.437199
7282 2 2.2208 -0.208965 21.4952 8.16923
531 2 2.2208 2.46971 15.8855 5.08578
7219 2 2.2208 -0.27047 27.2262 2.5505
538 2 2.2208 2.41825 15.9568 -0.414149
652 1 -1.1104 7.04978 20.1918 6.59397
540 1 -1.1104 6.75589 20.1278 3.72738
539 1 -1.1104 6.73282 19.9861 1.03479
541 1 -1.1104 6.58507 17.1054 0.916434
546 2 2.2208 10.9368 18.6501 5.10776
548 1 -1.1104 12.2338 20.0965 0.839322
549 1 -1.1104 12.5403 20.1968 3.55979
550 1 -1.1104 12.6322 17.2494 1.16118
554 2 2.2208 11.0518 21.5586 2.32858
555 1 -1.1104 12.3868 17.0578 3.7723
557 1 -1.1104 9.467 20.037 1.27054
558 2 2.2208 8.01698 18.6833 2.45668
560 1 -1.1104 9.65107 19.9778 3.87697
562 2 2.2208 8.34332 21.3982 5.28411
563 1 -1.1104 9.85882 17.1805 0.969936
566 1 -1.1104 9.62232 17.3027 3.8165
553 2 2.2208 11.1208 15.9801 2.38979
561 2 2.2208 8.28403 15.7386 5.2772
927 2 2.2208 8.18973 21.4327 -0.323442
564 1 -1.1104 9.69295 17.286 6.6645
654 1 -1.1104 12.3439 20.1661 6.54288
687 2 2.2208 -0.248945 30.1294 10.8623
759 1 -1.1104 12.3416 28.6672 12.2099
591 2 2.2208 2.62957 32.7993 -0.368416
515 2 2.2208 5.33258 24.1332 5.12917
521 1 -1.1104 1.35061 22.8106 1.16578
525 1 -1.1104 1.06615 22.9356 4.23428
529 2 2.2208 2.54477 24.3072 2.67514
535 1 -1.1104 4.05855 22.8147 0.956748
537 1 -1.1104 3.87185 22.5798 3.63037
570 1 -1.1104 1.20162 25.6944 1.17226
572 1 -1.1104 1.1166 25.8299 3.82372
576 2 2.2208 5.48172 27.2082 2.51686
580 1 -1.1104 3.8494 25.9545 1.10627
583 1 -1.1104 3.82801 25.4882 4.10433
585 2 2.2208 2.44721 27.1492 5.42696
574 1 -1.1104 0.964939 28.5914 0.92387
587 1 -1.1104 3.79861 28.663 1.15091
596 1 -1.1104 6.60921 25.7278 3.85612
627 1 -1.1104 1.21152 22.7306 6.7435
600 1 -1.1104 6.88078 28.4327 3.97285
589 1 -1.1104 4.00268 28.3148 3.84217
578 1 -1.1104 1.27568 28.5179 3.82015
657 2 2.2208 13.6537 15.9235 10.8654
903 2 2.2208 5.30858 24.2466 -0.398105
545 1 -1.1104 6.97655 22.7182 4.02992
594 1 -1.1104 6.59358 25.7225 0.928961
543 1 -1.1104 6.92633 22.803 1.01877
547 2 2.2208 11.1374 24.3695 5.27752
552 1 -1.1104 12.313 23.1217 0.950119
556 1 -1.1104 12.5401 22.8887 3.81232
559 2 2.2208 8.24897 24.0301 2.4067
565 1 -1.1104 9.6663 22.8967 0.876865
567 1 -1.1104 9.62619 22.5723 3.6392
603 1 -1.1104 12.473 25.8766 0.905982
605 1 -1.1104 12.691 25.7054 3.72106
609 2 2.2208 11.1292 27.055 2.32889
613 1 -1.1104 9.76347 25.4983 1.14874
616 1 -1.1104 9.73259 25.6629 3.96685
618 2 2.2208 8.28162 26.9102 5.18515
611 1 -1.1104 12.4375 28.3923 3.74294
733 1 -1.1104 6.88674 25.6303 6.71878
607 1 -1.1104 12.227 28.6636 1.04866
735 1 -1.1104 6.70373 28.5359 6.78939
745 1 -1.1104 9.44716 28.5455 6.62706
741 1 -1.1104 12.1233 28.7087 6.64546
7162 2 2.2208 -0.235457 18.6079 5.29392
598 1 -1.1104 6.59045 28.731 1.14647
569 2 2.2208 5.42985 29.8282 5.20881
571 1 -1.1104 1.07989 31.3052 1.10196
573 1 -1.1104 0.960687 31.3093 3.81522
575 1 -1.1104 1.06943 33.8871 1.10018
577 2 2.2208 5.2171 32.6795 2.48556
579 1 -1.1104 0.825798 34.2525 3.69421
581 1 -1.1104 3.89683 31.3047 1.3003
582 2 2.2208 2.54691 29.9009 2.48342
584 1 -1.1104 3.69811 31.2419 4.04827
586 2 2.2208 2.40421 32.6947 5.42377
588 1 -1.1104 3.6649 34.3514 0.944406
590 1 -1.1104 3.88521 34.0599 3.74111
699 1 -1.1104 3.80973 33.9326 6.61249
691 1 -1.1104 0.882915 31.3514 6.6201
738 1 -1.1104 9.57435 31.4443 12.4174
985 2 2.2208 7.99931 27.2045 -0.427689
601 1 -1.1104 6.68635 33.9711 3.72821
7648 2 2.2208 -0.325214 30.2151 -0.414227
692 1 -1.1104 1.02291 28.5591 6.68846
744 1 -1.1104 9.46011 31.5371 6.81755
620 1 -1.1104 9.47129 28.543 0.87281
622 1 -1.1104 9.56794 28.4265 3.54803
595 1 -1.1104 6.667 31.4922 1.10207
597 1 -1.1104 6.64633 31.1028 3.88612
734 1 -1.1104 6.73258 31.3453 6.72642
599 1 -1.1104 6.80402 34.327 0.88837
602 2 2.2208 10.8751 30.0625 5.29974
604 1 -1.1104 12.3038 31.4294 1.04529
606 1 -1.1104 12.4702 31.4027 3.76055
608 1 -1.1104 12.5168 34.4059 1.08919
610 2 2.2208 11.0809 32.8359 2.37586
612 1 -1.1104 12.1379 34.0404 3.9477
614 1 -1.1104 9.45422 31.3564 0.976011
615 2 2.2208 8.16845 30.0882 2.33894
617 1 -1.1104 9.64593 31.3018 3.78481
619 2 2.2208 8.08857 32.788 5.38882
621 1 -1.1104 9.4622 34.2359 1.10377
623 1 -1.1104 9.33669 33.9463 3.89159
740 1 -1.1104 12.2081 31.3711 6.7156
955 2 2.2208 5.3424 29.9133 -0.39211
742 1 -1.1104 12.286 34.0767 6.68085
643 2 2.2208 2.47316 15.8536 10.9125
719 2 2.2208 -0.335104 32.7478 8.0514
542 1 -1.1104 6.79377 17.3287 6.76622
534 1 -1.1104 3.87639 17.2583 6.54142
520 1 -1.1104 1.21784 17.2242 6.87902
517 1 -1.1104 1.03388 20.0039 6.64134
629 2 2.2208 5.37806 18.4866 10.9844
631 1 -1.1104 1.07645 20.1138 12.2516
632 1 -1.1104 1.20193 19.9414 9.48497
633 1 -1.1104 0.998574 17.1954 12.5227
636 2 2.2208 5.44244 21.5621 8.16189
637 1 -1.1104 1.26993 17.4688 9.74499
639 1 -1.1104 3.85202 19.7027 12.3142
640 2 2.2208 2.68462 18.5293 8.19913
642 1 -1.1104 3.68115 20.1495 9.39583
644 2 2.2208 2.47411 21.3144 10.8651
645 1 -1.1104 3.80807 17.2019 12.161
647 1 -1.1104 4.15556 17.174 9.44994
663 1 -1.1104 7.01188 17.2416 9.46982
660 1 -1.1104 6.57498 20.0854 9.54992
7195 2 2.2208 13.5588 29.9108 2.32738
656 1 -1.1104 9.7222 19.9825 6.79945
551 1 -1.1104 12.5018 17.5067 6.81957
679 2 2.2208 8.23036 15.8037 10.9454
7280 2 2.2208 -0.274628 24.2549 11.0977
661 1 -1.1104 6.77989 17.3271 12.2462
659 1 -1.1104 6.61932 20.2902 12.4455
665 2 2.2208 11.0405 18.7258 10.816
667 1 -1.1104 12.2421 20.2799 12.3613
668 1 -1.1104 12.5069 20.2083 9.60931
669 1 -1.1104 12.3103 17.3684 12.4562
672 2 2.2208 10.8419 21.5101 8.02704
673 1 -1.1104 12.3351 17.4033 9.6364
675 1 -1.1104 9.49595 20.2049 12.3618
676 2 2.2208 8.2271 18.7646 8.0223
678 1 -1.1104 9.39381 20.0361 9.46089
680 2 2.2208 7.94612 21.5235 10.9286
681 1 -1.1104 9.71921 17.2566 12.3412
683 1 -1.1104 9.82339 17.1811 9.56804
7580 2 2.2208 -0.281537 24.4169 -0.284692
694 1 -1.1104 3.87748 25.5032 6.87551
690 1 -1.1104 0.946427 25.5885 6.77318
628 1 -1.1104 4.1782 22.6785 6.53734
630 2 2.2208 5.15475 24.5075 10.928
634 1 -1.1104 1.05856 22.9464 12.316
638 1 -1.1104 0.814384 22.8571 9.56943
641 2 2.2208 2.47988 24.1442 8.1064
646 1 -1.1104 3.91406 22.9327 12.2642
648 1 -1.1104 3.83622 23.1013 9.52622
702 2 2.2208 2.4915 27.2594 10.9047
704 1 -1.1104 1.12998 25.8562 12.4183
706 1 -1.1104 0.971352 25.8951 9.69247
710 2 2.2208 5.20855 27.0526 8.1025
714 1 -1.1104 3.91597 25.8987 12.2957
717 1 -1.1104 3.72945 25.856 9.57657
708 1 -1.1104 1.12582 28.7524 12.1703
700 1 -1.1104 4.02024 28.6531 12.37
752 1 -1.1104 6.64985 25.8074 12.5414
712 1 -1.1104 1.15346 28.5727 9.39867
696 1 -1.1104 3.97643 28.7335 9.52688
7160 2 2.2208 -0.242295 21.4533 2.48964
653 1 -1.1104 6.95786 22.9338 6.80586
658 1 -1.1104 9.56916 22.8791 6.62632
954 2 2.2208 2.19547 27.1395 -0.299875
756 1 -1.1104 6.59334 28.4381 12.1236
743 1 -1.1104 9.86662 25.7417 6.69238
655 1 -1.1104 12.5784 22.7964 6.77873
664 1 -1.1104 6.82808 23.1524 9.62067
739 1 -1.1104 12.4091 25.8573 6.62881
749 1 -1.1104 12.4704 28.6692 9.39479
662 1 -1.1104 6.56211 22.947 12.2956
754 1 -1.1104 6.46466 26.0354 9.64981
666 2 2.2208 10.9939 24.4433 10.7548
670 1 -1.1104 12.2462 23.1195 12.3767
674 1 -1.1104 12.3948 23.1984 9.44939
677 2 2.2208 8.17066 24.3344 8.07188
682 1 -1.1104 9.34852 22.8154 12.2192
684 1 -1.1104 9.62498 22.7663 9.36231
725 1 -1.1104 12.5168 25.94 9.43662
727 2 2.2208 8.04235 27.2749 10.9647
729 1 -1.1104 12.4788 25.9919 12.1685
732 1 -1.1104 9.42585 25.5668 9.49905
747 1 -1.1104 9.73181 25.5741 12.5993
751 2 2.2208 10.9771 27.2531 8.00342
723 1 -1.1104 9.54578 28.4395 12.4137
760 1 -1.1104 6.81246 28.7444 9.34177
721 1 -1.1104 9.51731 28.5803 9.68903
695 1 -1.1104 3.83877 31.2606 6.6215
720 1 -1.1104 9.55283 34.225 9.57723
750 2 2.2208 10.9021 32.8565 8.23037
698 1 -1.1104 3.826 28.4498 6.75259
693 1 -1.1104 1.0099 34.0857 6.7133
718 1 -1.1104 3.86835 31.5006 9.43078
689 1 -1.1104 3.91197 34.153 9.76509
697 1 -1.1104 3.73161 34.0113 12.6081
701 2 2.2208 2.50197 32.8203 11.0825
703 2 2.2208 5.24068 30.0469 10.8726
705 1 -1.1104 1.12495 31.4232 12.2798
707 1 -1.1104 1.00929 31.3863 9.37204
709 1 -1.1104 1.10505 34.3473 12.4135
711 2 2.2208 5.14673 32.6558 8.01678
713 1 -1.1104 1.13525 34.2084 9.72294
715 1 -1.1104 4.1281 31.4736 12.5172
716 2 2.2208 2.39076 29.9352 8.07591
7159 2 2.2208 -0.352647 24.3095 5.327
731 1 -1.1104 9.49412 31.2749 9.55438
724 1 -1.1104 12.5061 31.2856 9.76028
728 1 -1.1104 12.3357 31.7243 12.6209
761 1 -1.1104 6.65424 34.3449 9.43172
726 2 2.2208 7.98185 32.8005 11.1106
746 1 -1.1104 9.47065 34.2812 6.65143
736 1 -1.1104 6.50741 34.1233 6.60791
758 1 -1.1104 12.371 34.3641 12.2517
748 1 -1.1104 12.3702 34.1484 9.49974
737 2 2.2208 8.31456 29.8796 8.11775
757 1 -1.1104 6.65366 34.1168 12.4135
722 1 -1.1104 9.23095 34.3252 12.3901
753 1 -1.1104 6.87276 31.1582 12.3529
755 1 -1.1104 6.5493 31.5393 9.84215
730 2 2.2208 10.9219 29.9927 10.909
7281 2 2.2208 -0.347103 15.9638 8.15476
7556 2 2.2208 -0.360806 18.7288 -0.281951
688 2 2.2208 -0.409001 27.0886 8.01162
7161 2 2.2208 -0.358929 15.822 2.34341
856 2 2.2208 -0.374578 32.8393 13.6526
762 2 2.2208 5.11647 18.6484 16.4418
764 1 -1.1104 0.945118 20.1377 17.9122
765 1 -1.1104 0.721921 19.7695 14.782
767 1 -1.1104 0.910287 17.1563 18.0323
770 2 2.2208 5.1854 21.4343 19.3601
771 1 -1.1104 0.935126 17.124 15.2496
775 1 -1.1104 3.87818 19.9883 17.9859
776 2 2.2208 2.47189 18.6498 19.5182
778 1 -1.1104 3.88103 20.286 15.2271
781 2 2.2208 2.41264 21.5699 16.5693
782 1 -1.1104 3.86221 17.2672 18.1749
784 1 -1.1104 3.63554 17.3315 15.1351
7578 2 2.2208 -0.362842 18.8045 22.1036
769 2 2.2208 5.26035 15.718 19.439
794 1 -1.1104 6.37597 17.3279 14.9969
790 1 -1.1104 6.72487 20.1836 15.3311
859 2 2.2208 5.34268 27.1012 13.7742
7582 2 2.2208 -0.434486 24.3387 22.2507
651 2 2.2208 5.06304 15.8381 13.7566