LAMMPS (29 Oct 2020)
OMP_NUM_THREADS environment is not set. Defaulting to 1 thread. (../comm.cpp:94)
  using 1 OpenMP thread(s) per MPI task
OMP_NUM_THREADS environment is not set. Defaulting to 1 thread. (../comm.cpp:94)
  using 1 OpenMP thread(s) per MPI task
Reading data file ...
  orthogonal box = (-0.40325506 -4.6640384 -0.39829456) to (27.743255 332.74404 27.738295)
  2 by 13 by 2 MPI processor grid
  reading atoms ...
  17640 atoms
  reading velocities ...
  17640 velocities
Finding 1-2 1-3 1-4 neighbors ...
  special bond factors lj:    0.0      0.0      0.0     
  special bond factors coul:  0.0      0.0      0.0     
     0 = max # of 1-2 neighbors
     0 = max # of 1-3 neighbors
     0 = max # of 1-4 neighbors
     1 = max # of special neighbors
  special bonds CPU = 0.003 seconds
  read_data CPU = 0.062 seconds
Setting atom values ...
  11760 settings made for charge
Setting atom values ...
  5880 settings made for charge
PPPM initialization ...
  using 12-bit tables for long-range coulomb (../kspace.cpp:328)
  G vector (1/distance) = 0.29867681
  grid = 40 240 40
  stencil order = 5
  estimated absolute RMS force accuracy = 0.00015727946
  estimated relative force accuracy = 1.0922454e-05
  using single precision MKL FFT
  3d grid and FFT values/proc = 15000 7600
Neighbor list info ...
  update every 1 steps, delay 0 steps, check yes
  max neighbors/atom: 2000, page size: 100000
  master list distance cutoff = 11.3
  ghost atom cutoff = 11.3
  binsize = 5.65, bins = 5 60 5
  2 neighbor lists, perpetual/occasional/extra = 2 0 0
  (1) pair coul/long, perpetual
      attributes: half, newton on
      pair build: half/bin/newton
      stencil: half/bin/3d/newton
      bin: standard
  (2) pair eam/alloy, perpetual, copy from (1)
      attributes: half, newton on
      pair build: copy
      stencil: none
      bin: none
Setting up Verlet run ...
  Unit style    : metal
  Current step  : 0
  Time step     : 0.001
Per MPI rank memory allocation (min/avg/max) = 8.137 | 8.173 | 8.196 Mbytes
Step Temp E_pair E_mol TotEng Press 
       0          900   -229829.23            0   -227777.22   -548.15755 
   50000    891.84664   -229820.25            0   -227786.82   -1214.7309 
Loop time of 334.422 on 52 procs for 50000 steps with 17640 atoms

Performance: 12.918 ns/day, 1.858 hours/ns, 149.512 timesteps/s
99.8% CPU use with 52 MPI tasks x 1 OpenMP threads

MPI task timing breakdown:
Section |  min time  |  avg time  |  max time  |%varavg| %total
---------------------------------------------------------------
Pair    | 212.43     | 224.16     | 231.37     |  28.6 | 67.03
Bond    | 0.0035131  | 0.0051259  | 0.0074777  |   1.1 |  0.00
Kspace  | 69.199     | 78.068     | 93.813     |  63.4 | 23.34
Neigh   | 15.732     | 20.398     | 22.484     |  37.4 |  6.10
Comm    | 8.8629     | 9.4616     | 9.9641     |  10.3 |  2.83
Output  | 5.5455e-05 | 6.1654e-05 | 0.00028256 |   0.0 |  0.00
Modify  | 1.1241     | 1.6123     | 2.5969     |  36.9 |  0.48
Other   |            | 0.7171     |            |       |  0.21

Nlocal:        339.231 ave         365 max         299 min
Histogram: 2 5 1 0 2 13 13 4 3 9
Nghost:        4008.96 ave        4175 max        3766 min
Histogram: 4 2 6 4 4 0 7 10 3 12
Neighs:        67563.3 ave       73759 max       50863 min
Histogram: 2 2 0 1 3 0 5 18 9 12

Total # of neighbors = 3513294
Ave neighs/atom = 199.16633
Ave special neighs/atom = 0.0000000
Neighbor list builds = 9887
Dangerous builds = 0
11760 atoms in group oxygen
PPPM initialization ...
  using 12-bit tables for long-range coulomb (../kspace.cpp:328)
  G vector (1/distance) = 0.29867681
  grid = 40 240 40
  stencil order = 5
  estimated absolute RMS force accuracy = 0.00015727946
  estimated relative force accuracy = 1.0922454e-05
  using single precision MKL FFT
  3d grid and FFT values/proc = 15000 7600
Setting up Verlet run ...
  Unit style    : metal
  Current step  : 0
  Time step     : 0.001
Per MPI rank memory allocation (min/avg/max) = 8.388 | 8.423 | 8.446 Mbytes
Step f_2 Temp v_Tdiff v_deltaT 
       0            0    891.84664            0            0 
  100000    1021.9447    896.32745  0.031805879     369.2633 
  200000     2002.623    903.30712  0.036250332    420.86298 
  300000    2993.6887    897.66515  0.037182173    431.68158 
  400000    3977.6035    899.80848   0.03750695     435.4522 
  500000    4956.8278    904.16443  0.038271827    444.33236 
  600000    5939.4425     892.8897  0.038110648    442.46109 
  700000    6928.5275    894.87638   0.03707378    430.42315 
  800000    7922.5958    901.01856  0.037214758    432.05988 
  900000    8904.8488    896.73637  0.037299448    433.04312 
 1000000    9905.9193    896.35734   0.03451859    400.75762 
Loop time of 6647.68 on 52 procs for 1000000 steps with 17640 atoms

Performance: 12.997 ns/day, 1.847 hours/ns, 150.428 timesteps/s
99.8% CPU use with 52 MPI tasks x 1 OpenMP threads

MPI task timing breakdown:
Section |  min time  |  avg time  |  max time  |%varavg| %total
---------------------------------------------------------------
Pair    | 4235       | 4461.7     | 4622.6     | 119.6 | 67.12
Bond    | 0.064815   | 0.09983    | 0.142      |   5.2 |  0.00
Kspace  | 1355.2     | 1542.5     | 1859.5     | 267.0 | 23.20
Neigh   | 320.91     | 417.38     | 461.72     | 169.8 |  6.28
Comm    | 174.7      | 189.75     | 206.11     |  57.9 |  2.85
Output  | 0.0011473  | 0.0012097  | 0.0024201  |   0.5 |  0.00
Modify  | 5.6114     | 6.101      | 6.7725     |  11.3 |  0.09
Other   |            | 30.13      |            |       |  0.45

Nlocal:        339.231 ave         364 max         299 min
Histogram: 5 3 0 0 3 6 11 12 6 6
Nghost:        4033.15 ave        4181 max        3762 min
Histogram: 4 0 9 2 1 4 1 10 5 16
Neighs:        67577.4 ave       73656 max       51996 min
Histogram: 4 0 1 2 1 0 5 15 18 6

Total # of neighbors = 3514027
Ave neighs/atom = 199.20788
Ave special neighs/atom = 0.0000000
Neighbor list builds = 201894
Dangerous builds = 0
Total wall time: 1:56:22
