ITEM: TIMESTEP
60000
ITEM: NUMBER OF ATOMS
17640
ITEM: BOX BOUNDS pp pp pp
-3.6656599737610873e-01 2.7706565997376334e+01
-4.2362140486528777e+00 3.3231621404864501e+02
-3.6110740850375528e-01 2.7701107408504019e+01
ITEM: ATOMS id type q x y z
1 2 2.2208 5.51088 1.38685 5.11032
2 1 -1.1104 1.31208 -2.85541 1.02922
3 1 -1.1104 1.24428 2.78285 1.06164
6 1 -1.1104 1.07249 -2.77867 3.71838
7 1 -1.1104 1.17427 2.85531 3.97578
10 1 -1.1104 1.19738 -0.0153492 1.13517
12 2 2.2208 5.31747 -1.4229 2.47373
13 2 2.2208 5.58097 4.36286 2.46144
14 1 -1.1104 1.16544 0.0737433 3.86208
16 1 -1.1104 4.01682 -2.60769 1.14152
17 1 -1.1104 3.99369 2.76547 1.13266
18 2 2.2208 2.62277 1.54446 2.46066
19 1 -1.1104 3.88208 -2.8547 3.9975
20 1 -1.1104 4.06426 2.91702 3.79266
21 2 2.2208 2.52816 -1.40119 5.21443
22 2 2.2208 2.69926 4.16367 5.16185
23 1 -1.1104 4.07489 0.14286 0.966232
24 1 -1.1104 4.02907 0.0537226 3.78918
26 2 2.2208 -0.274967 1.36579 5.2572
27 2 2.2208 -0.280321 4.3367 2.53731
8896 2 2.2208 -0.251167 -1.31669 2.47336
166 1 -1.1104 1.0805 -2.76718 6.53621
167 1 -1.1104 1.12602 2.70265 6.62502
8 1 -1.1104 6.85143 -2.99333 3.90456
333 2 2.2208 5.45227 4.08838 13.5533
172 1 -1.1104 3.99744 -2.96897 6.70192
170 1 -1.1104 1.17162 -0.0625382 6.64265
173 1 -1.1104 4.19278 2.84493 6.3998
174 1 -1.1104 4.06648 0.0176137 6.51778
8490 2 2.2208 8.15281 -4.26659 8.01097
15 1 -1.1104 6.83399 -0.164104 3.83948
4 1 -1.1104 6.73545 -2.99886 1.13915
11 1 -1.1104 6.86512 -0.0177324 1.19433
9 1 -1.1104 6.94296 2.66427 3.72201
5 1 -1.1104 6.8906 2.96717 0.895017
31 2 2.2208 11.0956 1.30401 5.27254
32 1 -1.1104 12.3168 -2.88489 1.05905
33 1 -1.1104 12.4631 2.75902 1.09345
34 1 -1.1104 12.3853 -3.01211 3.9377
35 1 -1.1104 12.3353 2.71805 3.82854
36 1 -1.1104 12.3801 -0.000341484 0.927553
37 2 2.2208 11.1763 -1.45933 2.48464
38 2 2.2208 10.9502 4.19224 2.47634
39 1 -1.1104 12.4568 -0.0568734 3.84092
40 1 -1.1104 9.57949 -3.01108 1.01607
41 1 -1.1104 9.67231 2.79977 1.03053
42 2 2.2208 8.20896 1.32621 2.30025
43 1 -1.1104 9.58319 -2.92778 3.93729
44 1 -1.1104 9.68133 2.78096 3.88895
45 2 2.2208 8.23218 -1.39941 5.20482
46 2 2.2208 8.30764 4.03824 5.39459
47 1 -1.1104 9.69716 -0.114955 0.885845
48 1 -1.1104 9.66456 -0.107398 3.68359
206 1 -1.1104 12.5229 2.70028 6.68906
207 1 -1.1104 12.3171 -0.179649 6.64763
208 1 -1.1104 9.55535 -2.78148 6.82858
526 2 2.2208 5.261 15.3814 13.731
169 1 -1.1104 6.92143 2.90313 6.80968
171 1 -1.1104 6.77651 0.107369 6.55511
205 1 -1.1104 12.3572 -2.84787 6.64191
209 1 -1.1104 9.75486 2.60514 6.70383
168 1 -1.1104 6.71805 -2.87574 6.56347
81 2 2.2208 -0.0778095 6.90709 5.26314
83 2 2.2208 -0.335539 12.7019 5.17924
82 2 2.2208 -0.121654 9.73133 2.51882
54 2 2.2208 5.53552 6.90545 5.16685
55 2 2.2208 5.40074 12.6462 5.29362
56 1 -1.1104 1.19339 8.41435 1.08674
58 1 -1.1104 1.29208 8.42816 3.8426
60 1 -1.1104 1.16025 5.47058 1.1101
61 1 -1.1104 1.28738 11.1487 1.20404
66 2 2.2208 5.37287 9.83137 2.48578
67 1 -1.1104 1.27982 5.66821 3.82214
68 1 -1.1104 1.12812 11.2687 3.97672
71 1 -1.1104 4.07829 8.52155 1.14893
72 2 2.2208 2.72884 7.03508 2.49547
73 2 2.2208 2.62149 12.5911 2.55553
74 1 -1.1104 4.16397 8.51365 3.9193
75 2 2.2208 2.62528 9.89719 5.23172
76 1 -1.1104 3.98528 5.65874 1.08802
77 1 -1.1104 3.89177 11.1906 1.10232
79 1 -1.1104 4.0477 5.62578 3.75431
80 1 -1.1104 4.05182 11.2487 3.79643
239 1 -1.1104 4.0877 5.50366 6.54545
238 1 -1.1104 3.99273 8.4087 6.61986
236 1 -1.1104 1.34089 5.60683 6.67873
8486 2 2.2208 8.15903 -4.38568 2.3911
65 1 -1.1104 6.94273 11.0924 6.70611
70 1 -1.1104 6.80507 11.1818 3.95124
59 1 -1.1104 6.8354 8.48525 3.89201
69 1 -1.1104 6.93308 5.51317 3.89671
64 1 -1.1104 6.6459 11.1805 1.0987
57 1 -1.1104 6.86752 8.37998 1.10121
63 1 -1.1104 6.88782 5.67113 0.999402
84 2 2.2208 11.0043 6.91857 5.29948
85 2 2.2208 10.9676 12.5783 5.25164
86 1 -1.1104 12.3234 8.41241 1.21043
87 1 -1.1104 12.215 8.45102 3.93844
88 1 -1.1104 12.4445 5.63627 1.04701
89 1 -1.1104 12.5393 11.2714 1.0412
91 2 2.2208 10.8563 9.80905 2.49061
92 1 -1.1104 12.4213 5.57461 3.91202
93 1 -1.1104 12.3331 11.2214 3.86532
94 1 -1.1104 9.5984 8.32962 0.904296
95 2 2.2208 8.26106 6.99493 2.38259
96 2 2.2208 8.20976 12.6273 2.42829
97 1 -1.1104 9.54857 8.30446 3.80961
98 2 2.2208 8.22765 9.73238 5.26187
99 1 -1.1104 9.66873 5.48304 0.999685
100 1 -1.1104 9.59152 11.2051 0.885921
102 1 -1.1104 9.68141 5.57711 3.86262
103 1 -1.1104 9.56092 11.2209 3.85674
237 1 -1.1104 6.84711 5.68192 6.71486
265 1 -1.1104 12.2171 8.2827 6.70112
90 1 -1.1104 12.3723 11.1076 6.69006
267 1 -1.1104 9.50512 8.35696 6.63791
269 1 -1.1104 9.64981 5.46231 6.57428
101 1 -1.1104 9.68064 11.1308 6.77565
235 1 -1.1104 6.94131 8.35877 6.64179
266 1 -1.1104 12.4625 5.46412 6.76117
135 2 2.2208 -0.367911 15.3641 2.49206
53 1 -1.1104 12.2996 13.8143 12.237
106 2 2.2208 5.22233 18.1905 5.19358
107 1 -1.1104 1.16399 13.9164 1.06646
109 1 -1.1104 1.02382 19.4998 1.13834
113 1 -1.1104 1.3094 14.1436 3.84413
114 1 -1.1104 0.93191 19.6073 3.78833
116 1 -1.1104 1.09876 16.8055 0.945365
119 2 2.2208 5.36405 15.3882 2.3421
120 2 2.2208 5.25831 20.971 2.41862
121 1 -1.1104 1.23439 17.0097 3.89657
123 1 -1.1104 3.96099 14.0499 1.16983
125 1 -1.1104 3.9093 19.5422 0.860714
127 2 2.2208 2.52498 18.1919 2.35619
128 1 -1.1104 4.04954 14.0656 3.96063
129 1 -1.1104 3.84479 19.5976 3.82105
130 2 2.2208 2.62609 15.534 5.22909
131 2 2.2208 2.41228 20.9452 5.23011
132 1 -1.1104 3.97101 16.749 0.999993
134 1 -1.1104 3.91598 16.8537 3.72012
124 1 -1.1104 3.91373 13.9465 6.75522
108 1 -1.1104 1.06341 14.092 6.53548
122 1 -1.1104 6.68105 16.7926 3.88821
115 1 -1.1104 6.85351 14.037 3.84809
138 1 -1.1104 6.67551 19.6541 1.11012
133 1 -1.1104 3.91901 16.8649 6.67914
344 2 2.2208 5.43112 21.0674 13.6234
110 1 -1.1104 6.85778 13.9333 1.01306
140 1 -1.1104 6.77677 16.779 1.09454
139 1 -1.1104 6.64505 19.6169 3.86404
141 2 2.2208 10.9913 18.3847 4.9835
142 1 -1.1104 12.3201 14.0351 1.01471
144 1 -1.1104 12.3357 19.7656 0.929767
146 1 -1.1104 12.5405 14.0999 3.80288
147 1 -1.1104 12.3132 19.8291 3.63625
148 1 -1.1104 12.3313 16.8701 1.07692
150 2 2.2208 10.9457 15.4721 2.37215
151 2 2.2208 10.9584 21.104 2.29804
152 1 -1.1104 12.319 16.9009 3.73765
153 1 -1.1104 9.67674 13.9173 1.09216
155 1 -1.1104 9.55862 19.6027 0.966547
157 2 2.2208 8.06585 18.2238 2.51464
158 1 -1.1104 9.53026 14.0156 3.695
159 1 -1.1104 9.51442 19.7159 3.60711
160 2 2.2208 8.22055 15.4298 5.22539
161 2 2.2208 8.02565 21.0621 5.26983
162 1 -1.1104 9.46539 16.8611 1.08162
164 1 -1.1104 9.53341 16.8218 3.93958
149 1 -1.1104 12.2774 16.7111 6.51183
156 1 -1.1104 9.61522 19.5727 6.54441
112 1 -1.1104 6.71548 19.5995 6.57736
163 1 -1.1104 9.57358 16.7888 6.70186
154 1 -1.1104 9.67113 13.9374 6.46158
357 2 2.2208 2.48561 12.4547 13.7437
296 1 -1.1104 6.79394 19.6623 12.2427
320 2 2.2208 8.11151 18.2356 7.86651
25 2 2.2208 13.8806 15.3993 10.7546
201 2 2.2208 -0.190005 1.26228 10.8748
8869 2 2.2208 -0.246499 -1.50033 8.12545
175 2 2.2208 5.41286 1.35124 10.8134
176 1 -1.1104 1.17329 -2.79459 12.1787
177 1 -1.1104 1.1307 2.57789 12.3244
180 1 -1.1104 1.02716 -2.91718 9.49298
181 1 -1.1104 1.14728 2.64999 9.54098
184 1 -1.1104 1.11038 -0.155363 12.3174
186 2 2.2208 5.53036 -1.3534 7.982
187 2 2.2208 5.47071 4.14852 8.05342
188 1 -1.1104 1.18603 -0.281701 9.51867
190 1 -1.1104 4.08086 -2.69388 12.1884
191 1 -1.1104 4.06539 2.88526 12.1011
192 2 2.2208 2.6476 1.29323 7.92981
193 1 -1.1104 3.98586 -2.76094 9.45175
194 1 -1.1104 3.84699 2.66689 9.33728
195 2 2.2208 2.71642 -1.38064 10.762
197 1 -1.1104 3.91282 0.00176099 12.2111
198 1 -1.1104 4.12004 -0.0726283 9.33113
196 2 2.2208 2.60219 4.05045 10.7301
199 2 2.2208 -0.157297 4.19102 8.09038
145 1 -1.1104 12.3206 19.6848 6.54844
559 2 2.2208 10.8481 15.4253 13.6504
472 2 2.2208 5.39995 9.80869 13.7467
210 1 -1.1104 9.51209 -0.0703403 6.71417
143 1 -1.1104 12.2959 13.8388 6.64881
337 2 2.2208 8.21247 1.38739 13.5788
339 2 2.2208 11.0282 -1.45704 13.6318
185 1 -1.1104 6.83723 0.0115263 12.1898
179 1 -1.1104 6.84896 2.85117 12.1833
183 1 -1.1104 6.82133 2.70508 9.5423
178 1 -1.1104 6.97765 -2.97012 12.1876
189 1 -1.1104 6.83901 -0.0652301 9.45174
182 1 -1.1104 6.72251 -2.8029 9.39155
211 2 2.2208 10.9621 1.43339 10.8128
212 1 -1.1104 12.4157 -2.88391 12.249
213 1 -1.1104 12.4297 2.71721 12.3384
214 1 -1.1104 12.4262 -2.7294 9.40334
215 1 -1.1104 12.4868 2.68714 9.41351
216 1 -1.1104 12.3686 -0.00902171 12.3186
217 2 2.2208 11.0045 -1.46714 8.01748
218 2 2.2208 11.1219 4.13373 7.97758
219 1 -1.1104 12.5064 0.0459989 9.41343
220 1 -1.1104 9.78627 -2.80463 12.1686
221 1 -1.1104 9.59907 2.77893 12.1738
222 2 2.2208 8.23559 1.31049 8.14826
223 1 -1.1104 9.53671 -2.97477 9.5172
224 1 -1.1104 9.56294 2.71735 9.46735
225 2 2.2208 8.15788 -1.58845 10.772
226 2 2.2208 8.30083 4.23144 10.8935
227 1 -1.1104 9.72215 -0.0122667 12.242
228 1 -1.1104 9.72708 -0.233033 9.49116
136 2 2.2208 -0.374541 20.9179 2.34998
532 2 2.2208 2.6197 18.2004 13.5682
234 1 -1.1104 1.17378 8.40649 6.57809
62 1 -1.1104 1.03607 11.2237 6.75273
78 1 -1.1104 4.08438 11.1941 6.64353
28 2 2.2208 -0.0540726 6.93512 10.8741
51 2 2.2208 -0.321778 12.5361 10.836
240 2 2.2208 5.47092 6.95305 10.8891
241 2 2.2208 5.38024 12.4213 10.801
242 1 -1.1104 1.13464 8.34826 12.2674
244 1 -1.1104 1.36714 8.38472 9.33333
246 1 -1.1104 1.21615 5.43069 12.1996
247 1 -1.1104 1.23083 11.2925 12.2709
250 2 2.2208 5.48565 9.7026 8.00017
251 1 -1.1104 1.143 5.47917 9.41862
252 1 -1.1104 1.06786 11.1121 9.54497
255 1 -1.1104 3.96926 8.27916 12.4336
256 2 2.2208 2.73449 6.99257 8.01186
257 2 2.2208 2.56328 12.5842 8.09439
258 1 -1.1104 4.07817 8.41473 9.39964
259 2 2.2208 2.6055 9.79716 10.8175
260 1 -1.1104 3.95639 5.48733 12.1371
261 1 -1.1104 3.98903 11.0025 12.1687
262 1 -1.1104 4.09722 5.74411 9.37028
263 1 -1.1104 4.01446 11.1318 9.39073
29 2 2.2208 -0.232223 9.74531 8.07084
254 1 -1.1104 6.85231 11.0422 9.60438
111 1 -1.1104 6.82288 13.9846 6.58435
200 1 -1.1104 12.2362 19.652 12.1771
352 2 2.2208 -0.179783 9.71059 13.5729
248 1 -1.1104 6.95501 5.62677 12.2131
249 1 -1.1104 6.92099 11.1525 12.3377
243 1 -1.1104 6.79061 8.51762 12.351
253 1 -1.1104 6.79985 5.59326 9.62859
245 1 -1.1104 6.80459 8.31458 9.46642
264 1 -1.1104 9.63246 11.1476 9.52152
268 1 -1.1104 9.61808 5.61675 9.44559
270 1 -1.1104 9.66424 11.0461 12.2337
271 1 -1.1104 9.62604 5.56889 12.3184
272 2 2.2208 8.2653 9.68113 10.8316
273 1 -1.1104 9.58324 8.40051 9.51371
274 2 2.2208 8.23894 12.5968 7.98114
275 2 2.2208 8.29294 6.89893 8.08208
276 2 2.2208 11.0123 7.03225 10.951
277 2 2.2208 11.1068 12.5187 10.7198
278 1 -1.1104 12.3767 8.33369 12.2573
279 1 -1.1104 12.3046 8.38717 9.47645
280 1 -1.1104 12.4087 5.63258 12.1856
281 1 -1.1104 12.4538 11.1369 12.2418
282 2 2.2208 10.8357 9.6999 8.08176
283 1 -1.1104 12.3628 5.60978 9.44922
284 1 -1.1104 12.4446 11.1986 9.34754
285 1 -1.1104 9.6097 8.33846 12.305
288 1 -1.1104 6.70515 19.6443 9.35533
306 1 -1.1104 6.82462 16.7759 12.1673
8484 2 2.2208 2.56256 -4.23705 2.2929
315 1 -1.1104 9.56983 16.7764 12.0869
297 1 -1.1104 6.84851 13.9849 12.17
126 1 -1.1104 3.70491 19.6154 6.69309
302 1 -1.1104 1.04638 19.6968 6.65289
117 1 -1.1104 0.948028 16.8387 6.66538
313 2 2.2208 -0.284401 15.3308 7.90695
312 2 2.2208 -0.0881828 18.0556 10.801
286 1 -1.1104 4.01464 19.631 12.094
287 1 -1.1104 3.85732 13.7803 12.414
291 1 -1.1104 1.14045 19.4691 9.3549
292 1 -1.1104 1.15212 16.603 9.41041
293 2 2.2208 5.17371 20.9935 8.02919
294 1 -1.1104 1.18442 13.8492 9.33058
295 2 2.2208 5.39706 15.3609 8.04631
298 1 -1.1104 1.1352 19.4683 12.0937
299 1 -1.1104 1.19329 14.0144 12.162
300 2 2.2208 5.45664 18.2511 10.8637
301 1 -1.1104 3.81689 19.5951 9.48037
303 2 2.2208 2.50938 18.1704 8.11731
304 1 -1.1104 4.03115 16.8477 9.61982
305 1 -1.1104 3.9307 13.915 9.58669
307 1 -1.1104 1.32377 16.7145 12.1892
308 1 -1.1104 4.09581 16.7447 12.329
309 2 2.2208 2.4064 20.9337 10.8889
310 2 2.2208 2.64657 15.3057 10.8268
311 2 2.2208 -0.322376 21.0643 8.21463
316 2 2.2208 8.09237 21.0542 10.7843
8488 2 2.2208 2.49913 -4.27568 7.99791
325 2 2.2208 10.9478 15.3699 8.00868
314 1 -1.1104 9.67653 16.7132 9.39497
137 2 2.2208 -0.370225 18.2471 5.24494
324 2 2.2208 10.9144 21.0896 7.99057
289 1 -1.1104 6.61988 16.7441 9.39873
118 1 -1.1104 6.71853 16.7551 6.55126
326 1 -1.1104 12.4102 16.7341 12.1779
233 1 -1.1104 12.3548 19.4535 9.46266
322 1 -1.1104 9.66058 13.8955 12.1174
319 1 -1.1104 9.45285 14.1036 9.34961
204 1 -1.1104 12.5196 13.9219 9.41126
317 2 2.2208 8.16263 15.3132 10.8467
318 1 -1.1104 9.59624 19.7435 9.2694
321 1 -1.1104 9.51701 19.6186 12.1053
323 1 -1.1104 12.5032 16.7985 9.35024
50 2 2.2208 10.9914 18.2311 10.7329
290 1 -1.1104 6.71859 13.8677 9.23756
8489 2 2.2208 5.28445 -4.21659 10.8257
343 2 2.2208 2.6362 6.86444 13.6567
558 2 2.2208 10.9192 21.0568 13.5962
560 2 2.2208 8.06156 18.325 13.4542
17261 2 2.2208 -0.306419 -4.28208 10.8626
330 2 2.2208 -0.331527 -1.41137 13.6867
342 2 2.2208 10.9175 9.76193 13.6789
17265 2 2.2208 -0.157751 -4.13288 5.18635
8491 2 2.2208 10.9957 -4.29095 10.8492
9161 2 2.2208 13.7318 21.1504 5.24157
349 2 2.2208 10.991 1.44156 -0.338069
8485 2 2.2208 5.32935 -4.19105 5.24439
165 2 2.2208 13.7421 18.3705 2.34476
331 2 2.2208 5.38337 -1.48001 13.6296
338 2 2.2208 -0.175532 4.02756 13.6748
329 2 2.2208 11.0882 12.4649 -0.463694
595 2 2.2208 8.27916 6.93851 13.669
362 2 2.2208 5.36573 1.33032 16.4232
363 1 -1.1104 1.15957 -2.7399 17.9776
364 1 -1.1104 1.1656 2.88662 18.0248
367 1 -1.1104 1.06397 -2.83537 15.107
369 1 -1.1104 1.13913 2.76841 15.1699
375 1 -1.1104 1.11744 0.0535309 17.7825
377 2 2.2208 5.444 -1.44695 19.3017
378 2 2.2208 5.40679 4.20056 19.2203
379 1 -1.1104 1.1819 0.0173497 15.2268
383 1 -1.1104 3.93198 -2.74825 17.8892
384 1 -1.1104 4.14253 2.84915 17.815
385 2 2.2208 2.61348 1.39005 19.215
386 1 -1.1104 4.09557 -2.79818 15.2133
388 1 -1.1104 4.02816 2.69869 15.0225
390 2 2.2208 2.50778 -1.4568 16.509
391 2 2.2208 2.65008 4.123 16.4628
392 1 -1.1104 3.99868 -0.0914084 17.8242
393 1 -1.1104 4.02284 -0.145261 15.0098
398 2 2.2208 -0.206737 1.38848 16.5508
434 2 2.2208 13.7273 21.0675 27.6159
9374 2 2.2208 -0.306924 -1.3809 19.1897
389 1 -1.1104 4.07485 2.65361 20.6556
370 1 -1.1104 1.32606 2.82023 20.6786
368 1 -1.1104 1.13695 -2.83634 20.8415
387 1 -1.1104 4.06177 -2.86928 20.8299
9203 2 2.2208 -0.276417 18.199 27.6479
361 2 2.2208 10.9164 18.2901 27.712
371 1 -1.1104 6.70206 -2.86883 14.9779
381 1 -1.1104 6.79516 -0.049413 15.0885
365 1 -1.1104 6.81872 -2.79833 17.8519
373 1 -1.1104 6.76604 2.75838 14.9284
376 1 -1.1104 6.88335 0.0380823 17.9652
366 1 -1.1104 6.89486 2.94462 17.9837
405 2 2.2208 11.0751 1.42228 16.4089
406 1 -1.1104 12.4528 -2.9573 17.929
407 1 -1.1104 12.4472 2.99486 17.9324
408 1 -1.1104 12.4559 -2.73173 15.0862
410 1 -1.1104 12.4835 2.72734 15.0452
412 1 -1.1104 12.6389 0.0189245 17.9297
413 2 2.2208 11.1066 -1.46855 19.3016
414 2 2.2208 11.0736 4.24024 19.2812
415 1 -1.1104 12.3602 -0.0983497 15.0696
417 1 -1.1104 9.60759 -2.82293 17.7955
418 1 -1.1104 9.71401 2.58721 17.9026
419 2 2.2208 8.31426 1.28927 19.2938
420 1 -1.1104 9.59072 -2.89393 14.9891
422 1 -1.1104 9.73291 2.75896 15.0512
424 2 2.2208 8.19563 -1.42467 16.4373
425 2 2.2208 8.16816 4.10726 16.4713
426 1 -1.1104 9.72825 -0.130433 17.6869
427 1 -1.1104 9.39736 -0.121656 14.8314
374 1 -1.1104 6.80282 2.73248 20.6559
372 1 -1.1104 6.83473 -3.02467 20.5782
411 1 -1.1104 12.4982 2.7836 20.6517
416 1 -1.1104 12.4339 -0.0649377 20.7071
423 1 -1.1104 9.64321 2.81225 20.6949
382 1 -1.1104 6.84287 -0.156814 20.7605
421 1 -1.1104 9.6568 -2.82334 20.6115
428 1 -1.1104 9.61467 -0.0348683 20.523
9401 2 2.2208 -0.157236 9.8507 19.2831
438 2 2.2208 5.3145 6.96353 16.4122
439 2 2.2208 5.25834 12.6013 16.4972
440 1 -1.1104 1.28671 8.46207 17.8409
442 1 -1.1104 1.18123 8.29139 15.0864
446 1 -1.1104 1.09093 5.57113 17.9611
447 1 -1.1104 1.21172 11.2271 17.9622
450 2 2.2208 5.29611 9.94861 19.2975
451 1 -1.1104 1.17745 5.49863 15.0573
453 1 -1.1104 1.30353 11.0667 15.0572
459 1 -1.1104 3.98247 8.38428 17.9325
460 2 2.2208 2.64629 6.8893 19.228
461 2 2.2208 2.36131 12.6341 19.3753
462 1 -1.1104 4.01017 8.25924 15.0904
464 2 2.2208 2.65745 9.73908 16.5032
465 1 -1.1104 3.87415 5.54348 17.7487
466 1 -1.1104 4.02469 11.1546 17.8279
467 1 -1.1104 3.9244 5.33581 14.9799
469 1 -1.1104 3.85574 11.184 15.0347
400 2 2.2208 -0.160043 12.544 16.4438
620 2 2.2208 -0.0471918 6.98648 16.4777
441 1 -1.1104 6.86142 8.52894 17.9796
452 1 -1.1104 1.23234 5.54894 20.6644
470 1 -1.1104 3.90085 11.1608 20.7134
443 1 -1.1104 1.24501 8.43409 20.7832
457 1 -1.1104 6.58828 11.1309 15.2219
444 1 -1.1104 6.76896 8.3462 15.1137
455 1 -1.1104 6.78879 5.59681 15.0454
449 1 -1.1104 6.79862 11.1853 17.9978
448 1 -1.1104 6.76255 5.66895 17.7892
474 2 2.2208 10.8993 6.98464 16.4132
475 2 2.2208 10.8935 12.5261 16.4421
476 1 -1.1104 12.4133 8.44826 18.0031
477 1 -1.1104 12.3876 8.34755 15.1115
479 1 -1.1104 12.2521 5.70365 17.8474
480 1 -1.1104 12.5048 11.1705 17.8848
481 2 2.2208 11.0199 9.85446 19.351
482 1 -1.1104 12.4651 5.47515 14.8118
484 1 -1.1104 12.3248 11.0875 15.1294
486 1 -1.1104 9.65531 8.41235 17.8312
487 2 2.2208 8.25419 6.96957 19.1719
488 2 2.2208 8.25699 12.5801 19.2898
489 1 -1.1104 9.54986 8.29936 15.1287
491 2 2.2208 8.03736 9.76979 16.4984
492 1 -1.1104 9.49146 5.45629 17.9631
493 1 -1.1104 9.67384 11.1652 17.9566
494 1 -1.1104 9.6973 5.5525 14.9919
496 1 -1.1104 9.50607 11.198 15.013
483 1 -1.1104 12.4276 5.58139 20.6827
485 1 -1.1104 12.4681 11.1735 20.703
495 1 -1.1104 9.60832 5.54656 20.5675
497 1 -1.1104 9.62197 11.2992 20.6696
490 1 -1.1104 9.64907 8.37178 20.6812
456 1 -1.1104 6.79685 5.56025 20.6296
8498 2 2.2208 5.37019 -4.15674 27.7158
9478 2 2.2208 -0.111063 18.4206 16.348
503 1 -1.1104 1.1931 20.1762 17.7762
397 1 -1.1104 3.86948 19.5889 17.3916
501 2 2.2208 5.28914 18.1787 16.3216
502 1 -1.1104 1.00602 13.8097 17.7428
506 1 -1.1104 0.960815 13.9466 14.9933
508 1 -1.1104 1.3122 19.4832 15.0566
514 1 -1.1104 1.16273 17.0466 17.7785
516 2 2.2208 5.31337 15.3709 19.1471
517 1 -1.1104 1.22499 16.8284 15.0853
521 1 -1.1104 3.70383 13.9979 17.9764
522 2 2.2208 2.68428 18.4931 18.9275
523 1 -1.1104 3.85398 14.0559 15.1723
525 1 -1.1104 3.98447 19.5377 14.6962
527 2 2.2208 2.38875 15.4495 16.5316
528 2 2.2208 2.63465 21.0962 16.1753
529 1 -1.1104 3.88049 16.6765 17.8316
530 1 -1.1104 3.95825 16.8146 15.0582
518 1 -1.1104 0.969446 19.0895 20.5568
531 1 -1.1104 3.93205 16.7706 20.6568
510 1 -1.1104 6.70641 13.8664 14.9569
524 1 -1.1104 4.17819 13.9067 20.6392
552 1 -1.1104 9.6193 19.5045 20.5417
515 1 -1.1104 6.67763 16.7204 17.7888
519 1 -1.1104 6.74196 16.7092 15.0609
504 1 -1.1104 6.62579 14.0353 17.6873
512 1 -1.1104 6.76863 19.4636 14.8447
505 1 -1.1104 6.79385 19.5038 17.4265
534 2 2.2208 10.9085 18.266 16.3063
535 1 -1.1104 12.2395 13.9925 17.8858
536 1 -1.1104 12.2132 19.5269 17.9125
537 1 -1.1104 12.3037 13.9702 15.0355
539 1 -1.1104 12.4563 19.4504 15.0308
541 1 -1.1104 12.3536 16.8132 17.6154
542 2 2.2208 10.8501 15.4732 18.9973
543 2 2.2208 10.8259 21.0667 19.2626
544 1 -1.1104 12.3493 16.7639 14.9431
546 1 -1.1104 9.57567 13.9354 17.7801
547 1 -1.1104 9.51057 19.6403 17.5983
548 2 2.2208 8.06715 18.3221 19.1156
549 1 -1.1104 9.56073 14.0894 14.9671
551 1 -1.1104 9.50477 19.6356 14.8223
553 2 2.2208 8.07955 15.3242 16.4361
554 2 2.2208 8.0955 21.0125 16.3071
555 1 -1.1104 9.54157 16.8131 17.5443
556 1 -1.1104 9.54349 16.8182 14.8648
557 1 -1.1104 9.54869 16.8604 20.3583
538 1 -1.1104 12.4761 14.0504 20.7515
511 1 -1.1104 6.83748 13.9581 20.5958
8581 2 2.2208 2.64345 -4.23759 24.842
8544 2 2.2208 8.25978 -4.45174 24.9359
9376 2 2.2208 -0.15166 -1.51199 24.8621
597 2 2.2208 -0.215178 4.11656 24.9996
9201 2 2.2208 -0.243522 21.0582 24.6819
360 2 2.2208 8.12845 15.2417 27.7546
394 1 -1.1104 3.76261 -0.0920671 20.5604
380 1 -1.1104 1.08813 0.0676243 20.6699
619 2 2.2208 8.1229 20.9413 27.6322
562 2 2.2208 5.35241 1.35302 22.1362
563 1 -1.1104 1.25037 -2.80901 23.6665
564 1 -1.1104 1.30084 2.75297 23.6074
567 1 -1.1104 1.17993 -2.63353 26.433
568 1 -1.1104 1.2022 2.6302 26.3537
571 1 -1.1104 1.24924 -0.0583695 23.5617
573 2 2.2208 5.38775 -1.43659 25.0562
574 2 2.2208 5.4475 4.21914 24.7784
575 1 -1.1104 1.37136 0.0539691 26.5095
577 1 -1.1104 4.08584 -2.74201 23.6624
578 1 -1.1104 3.95098 2.71462 23.4191
579 2 2.2208 2.59734 1.41357 24.9107
580 1 -1.1104 4.00802 -2.82952 26.3281
581 1 -1.1104 3.94701 2.786 26.3087
582 2 2.2208 2.58556 -1.54486 22.0234
583 2 2.2208 2.66024 4.16076 22.0687
584 1 -1.1104 4.03553 -0.0157209 23.4482
585 1 -1.1104 4.17584 0.161794 26.3481
576 1 -1.1104 6.85339 -0.0986883 26.5067
9242 2 2.2208 -0.358958 15.2747 24.8084
348 2 2.2208 -0.186506 1.28017 27.7998
8612 2 2.2208 5.39932 -4.25733 16.4079
17330 2 2.2208 -0.150491 -4.26927 16.5556
409 1 -1.1104 12.388 -2.85963 20.7779
596 2 2.2208 -0.135436 1.36219 22.1425
565 1 -1.1104 6.95887 -2.92316 23.5352
570 1 -1.1104 6.83988 2.71823 26.2456
566 1 -1.1104 6.85129 2.81207 23.3861
569 1 -1.1104 6.94598 -2.91059 26.3906
572 1 -1.1104 6.79638 -0.0650469 23.5787
598 2 2.2208 11.0788 1.26641 22.0995
599 1 -1.1104 12.4385 -2.73943 23.4112
600 1 -1.1104 12.4539 2.78937 23.3898
601 1 -1.1104 12.4564 -2.77744 26.2741
602 1 -1.1104 12.3517 2.82712 26.3015
603 1 -1.1104 12.6239 0.134128 23.3799
604 2 2.2208 11.0982 -1.5165 24.923
605 2 2.2208 10.9676 4.31223 24.9229
606 1 -1.1104 12.4561 -0.030676 26.1983
607 1 -1.1104 9.71999 -3.04297 23.4358
608 1 -1.1104 9.58353 2.75503 23.2707
609 2 2.2208 8.19572 1.38831 24.811
610 1 -1.1104 9.62506 -2.90303 26.3408
611 1 -1.1104 9.52204 2.7663 26.2011
612 2 2.2208 8.26926 -1.52536 22.1624
613 2 2.2208 8.11725 4.11316 21.9348
614 1 -1.1104 9.76279 -0.203656 23.3723
615 1 -1.1104 9.60602 -0.0676538 26.1609
653 2 2.2208 5.42624 12.5369 27.7673
533 2 2.2208 8.00556 18.0965 24.8832
351 2 2.2208 8.20402 4.15624 27.6552
677 2 2.2208 8.15175 9.77868 27.6828
396 2 2.2208 -0.189638 7.03646 22.1273
468 1 -1.1104 4.09137 5.47648 20.6491
463 1 -1.1104 3.97467 8.35608 20.4993
454 1 -1.1104 1.08778 11.1912 20.7786
429 2 2.2208 -0.198741 4.23027 19.3169
655 2 2.2208 -0.147158 9.75857 25.0005
627 2 2.2208 5.43525 6.92934 22.0845
628 2 2.2208 5.48686 12.4946 22.0101
629 1 -1.1104 1.32779 8.36653 23.4848
631 1 -1.1104 1.22421 8.30596 26.4199
633 1 -1.1104 1.23142 5.5245 23.6035
634 1 -1.1104 1.3044 11.042 23.6718
637 2 2.2208 5.512 9.88753 24.8235
638 1 -1.1104 1.11614 5.52896 26.4422
639 1 -1.1104 1.23742 11.1476 26.2831
642 1 -1.1104 4.04833 8.36411 23.4528
643 2 2.2208 2.59277 6.88651 25.0068
644 2 2.2208 2.70874 12.4332 24.8169
645 1 -1.1104 3.99874 8.27568 26.1789
646 2 2.2208 2.61 9.75391 22.1479
647 1 -1.1104 4.00508 5.56333 23.3621
648 1 -1.1104 4.1121 11.1458 23.4925
649 1 -1.1104 4.06557 5.55679 26.2928
650 1 -1.1104 4.00579 11.1765 26.3429
404 2 2.2208 -0.237162 12.6048 22.0033
356 2 2.2208 2.56287 4.09701 27.7229
586 1 -1.1104 6.66484 19.5468 26.4351
657 1 -1.1104 12.4663 16.6292 23.4971
458 1 -1.1104 6.89058 11.121 20.7232
445 1 -1.1104 6.72745 8.28833 20.7207
478 1 -1.1104 12.5789 8.45402 20.7205
632 1 -1.1104 6.80091 8.38836 26.3216
630 1 -1.1104 6.84914 8.47407 23.4492
635 1 -1.1104 6.6756 5.52699 23.4773
636 1 -1.1104 6.88155 11.2318 23.507
641 1 -1.1104 6.74517 11.1375 26.2164
640 1 -1.1104 6.8288 5.5696 26.4026
658 1 -1.1104 9.56705 11.0487 26.2962
659 1 -1.1104 9.52349 5.53929 26.2513
660 1 -1.1104 9.79956 11.1373 23.3699
661 1 -1.1104 9.60838 5.68157 23.383
662 2 2.2208 8.18561 9.71995 22.0427
663 1 -1.1104 9.57553 8.30893 26.2947
664 2 2.2208 8.27872 12.5204 24.7545
665 2 2.2208 8.17861 6.96191 24.8249
666 2 2.2208 11.1718 6.91607 22.0593
667 2 2.2208 10.898 12.6132 21.8627
668 1 -1.1104 12.2865 8.27293 23.526
669 1 -1.1104 12.4824 8.35077 26.3048
670 1 -1.1104 12.4981 5.61678 23.5257
671 1 -1.1104 12.4985 11.0571 23.5047
672 2 2.2208 10.9855 9.68976 24.8456
673 1 -1.1104 12.5141 5.69035 26.3188
674 1 -1.1104 12.4464 11.2288 26.2055
675 1 -1.1104 9.39726 8.37031 23.495
678 2 2.2208 5.19469 18.0826 27.7858
588 1 -1.1104 9.46112 19.4242 26.1494
9247 2 2.2208 -0.150067 12.4776 27.6713
594 2 2.2208 8.05346 15.4047 21.9814
685 1 -1.1104 6.66571 16.7378 26.4561
689 1 -1.1104 6.65566 19.513 23.4738
682 1 -1.1104 3.74785 19.581 20.7045
507 1 -1.1104 1.13983 13.9658 20.9319
1200 1 -1.1104 3.68008 19.7337 23.4803
430 2 2.2208 2.21081 20.7973 21.8923
431 1 -1.1104 3.9547 16.8019 23.3876
473 1 -1.1104 0.992169 16.6163 23.1724
621 2 2.2208 2.60552 15.2818 22.103
684 1 -1.1104 4.04579 13.9458 23.3815
686 1 -1.1104 1.19568 19.6192 26.2789
687 1 -1.1104 0.964943 16.7793 26.0283
688 1 -1.1104 1.3271 13.8515 26.269
690 2 2.2208 5.38832 20.9497 24.6993
691 2 2.2208 5.31495 15.2863 24.8432
693 1 -1.1104 0.895334 19.5004 23.4148
694 1 -1.1104 1.37415 13.7876 23.5678
695 2 2.2208 5.35216 18.2182 21.9574
696 1 -1.1104 3.86102 19.5293 26.0328
697 2 2.2208 2.39559 18.2623 24.9043
698 1 -1.1104 3.81829 16.7571 26.3023
699 1 -1.1104 4.1395 13.9613 26.3989
680 2 2.2208 2.54434 15.3767 27.6683
432 2 2.2208 2.61425 21.044 27.4834
656 1 -1.1104 12.3033 13.9867 26.2656
692 1 -1.1104 6.75665 13.8738 23.3984
499 1 -1.1104 9.46591 13.8959 23.3292
624 1 -1.1104 12.3556 13.8733 23.447
616 2 2.2208 8.36631 20.8043 22.1296
540 1 -1.1104 12.5546 19.3973 20.7994
550 1 -1.1104 9.68378 14.0999 20.5337
545 1 -1.1104 12.2349 16.7634 20.6577
623 2 2.2208 11.0278 18.078 21.9385
676 1 -1.1104 12.3585 19.6208 26.3034
652 1 -1.1104 6.65286 16.808 23.3949
683 1 -1.1104 6.97351 13.9077 26.3852
622 2 2.2208 10.8851 20.9344 24.8097
520 1 -1.1104 6.62718 16.7238 20.5709
587 1 -1.1104 9.76234 13.9708 26.1257
654 1 -1.1104 12.2865 19.4997 23.4192
626 2 2.2208 10.9349 15.4114 24.7976
437 1 -1.1104 12.1883 16.7518 26.2829
500 1 -1.1104 9.51135 19.4705 23.5302
513 1 -1.1104 6.9763 19.4439 20.7721
618 1 -1.1104 9.46071 16.6915 26.192
617 1 -1.1104 9.42386 16.7352 23.3571
355 2 2.2208 -0.219495 6.962 27.8449
651 2 2.2208 5.48895 7.03744 27.6236
358 2 2.2208 2.53016 9.77483 27.666
498 2 2.2208 8.29339 12.5999 13.5599
332 2 2.2208 2.58198 1.49243 13.5738
345 2 2.2208 5.48827 1.39348 27.6882
346 2 2.2208 2.70212 -1.26655 27.8183
350 2 2.2208 8.14618 -1.61143 27.7789
341 2 2.2208 11.1461 4.11439 13.6006
347 2 2.2208 11.0407 6.99408 27.7522
700 2 2.2208 5.1023 23.7188 5.17543
701 2 2.2208 5.17709 29.3733 5.1397
702 1 -1.1104 1.02995 25.1718 0.89516
703 1 -1.1104 1.0716 25.2579 3.74167
704 1 -1.1104 0.960346 22.2494 0.873294
705 1 -1.1104 1.00772 28.0113 0.785806
706 2 2.2208 5.2936 26.6837 2.33929
707 1 -1.1104 1.01448 22.2917 3.68131
708 1 -1.1104 0.982066 28.0125 3.64377
709 1 -1.1104 3.66095 25.3103 1.04352
710 2 2.2208 2.39882 23.7587 2.32712
711 2 2.2208 2.35404 29.5463 2.25726
712 1 -1.1104 3.73488 25.1218 3.7435
713 2 2.2208 2.24492 26.7059 5.07312
714 1 -1.1104 3.75523 22.3668 0.829501
715 1 -1.1104 3.7762 28.1135 0.916264
716 1 -1.1104 3.85934 22.3772 3.7834
717 1 -1.1104 3.71715 28.1924 3.73626
771 2 2.2208 -0.396731 37.8579 2.40727
720 2 2.2208 -0.341132 23.8487 5.11236
845 1 -1.1104 3.7415 27.8377 6.58255
721 1 -1.1104 6.61976 25.4261 1.03919
1156 2 2.2208 13.6907 35.0949 13.533
844 1 -1.1104 3.86582 22.3689 6.55112
990 1 -1.1104 9.54671 42.2515 12.0324
818 2 2.2208 -0.416797 40.6196 5.15108
1001 2 2.2208 13.6625 35.0371 7.87236
1322 2 2.2208 2.40673 43.4353 -0.408309
722 1 -1.1104 6.53364 25.2351 3.70539
726 1 -1.1104 6.52403 27.8781 3.73052
725 1 -1.1104 6.59003 22.4884 3.79656
724 1 -1.1104 6.75829 28.0482 0.929483
723 1 -1.1104 6.46093 22.4168 1.08949
727 2 2.2208 10.9018 23.9705 5.31528
728 2 2.2208 10.7464 29.4358 5.16859
729 1 -1.1104 12.1715 25.146 0.910677
730 1 -1.1104 12.3337 25.4986 3.77826
731 1 -1.1104 12.3623 22.4167 1.04515
732 1 -1.1104 12.21 27.9456 0.974418
733 2 2.2208 10.7868 26.655 2.25717
734 1 -1.1104 12.3591 22.6078 3.92946
735 1 -1.1104 12.2349 28.1309 3.65887
736 1 -1.1104 9.37756 25.1745 1.11121
737 2 2.2208 7.99509 23.9279 2.44095
738 2 2.2208 8.07235 29.4176 2.33323
739 1 -1.1104 9.46636 25.3689 3.92112
740 2 2.2208 7.96137 26.5568 5.24199
741 1 -1.1104 9.54494 22.3205 0.92027
742 1 -1.1104 9.4916 27.9647 0.880445
743 1 -1.1104 9.48935 22.5637 3.81024
744 1 -1.1104 9.38881 28.062 3.6655
871 1 -1.1104 12.1382 27.9911 6.54943
870 1 -1.1104 12.4638 22.3991 6.69923
1053 2 2.2208 8.1234 23.7954 13.5422
1205 2 2.2208 2.45998 26.6691 -0.532096
9728 2 2.2208 13.6322 46.4537 8.23422
748 2 2.2208 5.36219 34.9878 5.18314
749 1 -1.1104 1.07571 30.8344 0.92521
750 1 -1.1104 1.1198 36.6317 0.914727
752 1 -1.1104 0.983766 30.8824 3.79805
753 1 -1.1104 0.952234 36.3735 3.71527
755 1 -1.1104 1.14635 33.7986 0.9487
756 2 2.2208 5.1373 32.2854 2.32047
757 2 2.2208 5.27159 37.8568 2.35777
758 1 -1.1104 0.940696 33.7373 3.65584
760 1 -1.1104 3.88072 30.8397 0.996835
761 1 -1.1104 3.85119 36.4709 0.872075
762 2 2.2208 2.43579 35.0987 2.43175
763 1 -1.1104 3.65266 30.9419 3.68535
764 1 -1.1104 4.01316 36.4217 3.81946
765 2 2.2208 2.39896 32.278 5.1949
766 2 2.2208 2.41947 37.7805 5.22204
767 1 -1.1104 3.86054 33.6129 1.03394
768 1 -1.1104 3.93243 33.6446 3.86271
820 1 -1.1104 12.0991 42.1858 12.0468
892 1 -1.1104 0.923467 33.5385 6.45445
888 1 -1.1104 0.966911 30.8133 6.55806
889 1 -1.1104 1.0373 36.2307 6.38689
1347 2 2.2208 2.81632 29.0923 13.7112
893 1 -1.1104 6.78712 33.5522 6.52604
895 1 -1.1104 3.98659 36.3783 6.59266
891 1 -1.1104 6.72218 36.2944 6.59344
793 2 2.2208 13.7671 40.9041 2.29598
772 1 -1.1104 6.4617 30.8929 0.848271
751 1 -1.1104 6.44635 36.3613 1.14446
774 1 -1.1104 6.79944 33.6151 1.06594
759 1 -1.1104 6.68056 33.5766 3.75429
773 1 -1.1104 6.57645 30.7539 3.6695
754 1 -1.1104 6.96455 36.4941 3.80176
775 2 2.2208 10.6195 34.9313 5.39442
776 1 -1.1104 12.2508 30.89 0.868909
777 1 -1.1104 12.2084 36.4731 1.04338
778 1 -1.1104 12.1897 30.9954 3.73334
780 1 -1.1104 12.2937 33.6234 0.973518
781 2 2.2208 10.8361 32.1841 2.41343
782 2 2.2208 10.7987 37.8973 2.18332
783 1 -1.1104 12.1654 33.9693 3.83875
784 1 -1.1104 9.39481 30.7603 1.03784
785 1 -1.1104 9.38453 36.4127 0.994069
786 2 2.2208 8.03783 34.9953 2.526
787 1 -1.1104 9.36892 30.7835 3.71052
788 1 -1.1104 9.97943 36.3852 3.71999