ITEM: TIMESTEP
40000
ITEM: NUMBER OF ATOMS
17640
ITEM: BOX BOUNDS pp pp pp
-3.6342312144049943e-01 2.7703423121440927e+01
-4.2500304436694325e+00 3.3233003044366649e+02
-3.6856730526772208e-01 2.7708567305267664e+01
ITEM: ATOMS id type q x y z
1 2 2.2208 5.15211 1.34671 5.30789
2 1 -1.1104 0.825288 -2.71887 1.05936
3 1 -1.1104 0.847939 2.66529 1.19281
6 1 -1.1104 0.896147 -2.93333 3.97277
7 1 -1.1104 1.1115 2.662 3.94619
10 1 -1.1104 0.777434 -0.0165051 1.16627
12 2 2.2208 5.04633 -1.5186 2.58205
13 2 2.2208 5.22001 4.07659 2.53316
14 1 -1.1104 0.891023 -0.237651 3.96946
16 1 -1.1104 3.77772 -3.08005 1.1988
17 1 -1.1104 3.66164 2.64526 1.04391
18 2 2.2208 2.36517 1.21804 2.47686
19 1 -1.1104 3.71833 -2.82824 3.85183
20 1 -1.1104 3.92348 2.70342 3.77995
21 2 2.2208 2.19918 -1.52732 5.28419
22 2 2.2208 2.48596 4.12658 5.34928
23 1 -1.1104 3.67257 -0.223549 1.09374
24 1 -1.1104 3.60453 -0.0160869 4.00028
11 1 -1.1104 6.51698 -0.165752 1.09674
15 1 -1.1104 6.40161 0.0343515 3.79359
9 1 -1.1104 6.5404 2.76876 4.01861
172 1 -1.1104 3.6922 -2.85753 6.69417
4 1 -1.1104 6.55283 -2.92137 1.08879
8 1 -1.1104 6.50067 -2.83944 3.8582
5 1 -1.1104 6.5997 2.64024 1.14186
328 2 2.2208 13.559 9.75638 5.23939
354 2 2.2208 13.5191 15.3252 -0.416042
173 1 -1.1104 3.82321 2.74014 6.89062
174 1 -1.1104 3.74772 -0.112086 6.77462
169 1 -1.1104 6.51944 2.66726 6.68066
166 1 -1.1104 0.960448 -2.88492 6.6874
170 1 -1.1104 0.998573 -0.00214438 6.63244
8870 2 2.2208 13.5494 -1.29266 5.30623
31 2 2.2208 10.6649 1.44537 5.25494
32 1 -1.1104 12.0629 -2.81825 1.22242
33 1 -1.1104 12.2721 2.89125 1.03211
34 1 -1.1104 12.1793 -2.85045 3.9983
35 1 -1.1104 12.1359 2.83335 3.99046
36 1 -1.1104 12.2438 0.0703631 1.1216
37 2 2.2208 10.6577 -1.57559 2.6335
38 2 2.2208 10.8906 4.27649 2.49154
39 1 -1.1104 12.0675 -0.056417 3.93406
40 1 -1.1104 9.37889 -2.92325 1.2007
41 1 -1.1104 9.40566 2.75296 1.05926
42 2 2.2208 7.95032 1.23865 2.4932
43 1 -1.1104 9.39971 -2.86776 4.16908
44 1 -1.1104 9.35699 2.68813 3.74161
45 2 2.2208 7.90837 -1.60894 5.3878
46 2 2.2208 8.08464 4.21835 5.44342
47 1 -1.1104 9.42789 -0.225068 1.00381
48 1 -1.1104 9.24893 -0.0808095 3.97648
327 2 2.2208 13.4412 4.13627 5.36336
49 2 2.2208 13.6 1.39785 2.46889
312 2 2.2208 -0.385991 18.0256 10.7281
322 1 -1.1104 9.36301 13.8343 12.3994
317 2 2.2208 7.97523 15.3845 11.0041
9164 2 2.2208 13.5529 -1.40723 -0.249832
210 1 -1.1104 9.27524 0.00852205 6.82854
54 2 2.2208 5.25946 6.89623 5.30543
55 2 2.2208 5.15877 12.6254 5.26735
56 1 -1.1104 1.03875 8.39685 1.15479
58 1 -1.1104 0.932752 8.30226 4.09619
60 1 -1.1104 1.00936 5.50488 1.12838
61 1 -1.1104 0.886853 11.0165 1.02275
66 2 2.2208 5.21631 9.76562 2.50052
67 1 -1.1104 0.891778 5.44849 4.07001
68 1 -1.1104 1.13419 11.2151 3.75889
71 1 -1.1104 3.83483 8.36102 1.03396
72 2 2.2208 2.3594 6.88343 2.45926
73 2 2.2208 2.42594 12.5097 2.41494
74 1 -1.1104 3.62596 8.23201 3.8465
75 2 2.2208 2.37244 9.65976 5.2769
76 1 -1.1104 3.80215 5.34567 1.08942
77 1 -1.1104 3.69572 11.1433 1.16775
79 1 -1.1104 3.90084 5.51687 3.95427
80 1 -1.1104 3.88091 11.0778 3.8404
234 1 -1.1104 0.887772 8.38695 6.76304
63 1 -1.1104 6.59046 5.56555 1.11836
57 1 -1.1104 6.64078 8.23943 1.00581
64 1 -1.1104 6.58794 11.0659 1.01627
69 1 -1.1104 6.68278 5.6139 3.93348
70 1 -1.1104 6.54396 11.1671 3.9875
59 1 -1.1104 6.61495 8.28498 3.92765
239 1 -1.1104 3.82732 5.48501 6.71064
78 1 -1.1104 3.93455 11.0352 6.61187
238 1 -1.1104 3.62427 8.30195 6.62467
62 1 -1.1104 1.16985 11.1273 6.77372
8498 2 2.2208 5.20575 -4.19714 -0.322503
358 2 2.2208 2.42231 9.76671 -0.366076
651 2 2.2208 5.16717 6.88604 -0.276879
199 2 2.2208 -0.378268 4.11233 8.10917
8495 2 2.2208 10.8321 -4.34471 -0.193738
325 2 2.2208 10.7571 15.3775 8.14373
104 2 2.2208 13.6915 12.5726 2.37598
84 2 2.2208 10.706 6.9773 5.30234
85 2 2.2208 10.914 12.7058 5.30742
86 1 -1.1104 12.271 8.47043 1.05495
87 1 -1.1104 12.268 8.48673 3.79552
88 1 -1.1104 12.2376 5.6708 1.05146
89 1 -1.1104 12.1549 11.1814 1.13238
91 2 2.2208 10.8468 9.80575 2.4975
92 1 -1.1104 12.1284 5.58809 3.90271
93 1 -1.1104 12.2346 11.2986 3.78838
94 1 -1.1104 9.545 8.25672 1.06505
95 2 2.2208 8.03194 6.87197 2.50814
96 2 2.2208 8.11636 12.5602 2.47984
97 1 -1.1104 9.38434 8.37206 3.84333
98 2 2.2208 7.90675 9.81802 5.2252
99 1 -1.1104 9.45529 5.54969 1.1437
100 1 -1.1104 9.34657 11.1398 0.988078
102 1 -1.1104 9.35544 5.53997 4.02234
103 1 -1.1104 9.49411 11.2484 3.6974
678 2 2.2208 5.22532 18.2272 -0.415513
266 1 -1.1104 12.2018 5.69408 6.72951
345 2 2.2208 5.19263 1.31044 -0.285843
677 2 2.2208 8.01508 9.72304 -0.269699
81 2 2.2208 -0.346299 6.88724 5.45139
106 2 2.2208 5.25972 18.2312 5.31428
107 1 -1.1104 0.969144 13.8278 1.0052
109 1 -1.1104 0.824288 19.4347 0.990858
113 1 -1.1104 0.979937 13.9692 3.74092
114 1 -1.1104 1.09876 19.6183 3.8756
116 1 -1.1104 0.983982 16.6319 1.07966
119 2 2.2208 5.14432 15.3057 2.28847
120 2 2.2208 5.20135 21.0691 2.42418
121 1 -1.1104 1.11776 16.7735 3.87661
123 1 -1.1104 3.79677 13.9124 1.00693
125 1 -1.1104 3.80963 19.4421 0.913258
127 2 2.2208 2.43704 18.128 2.3711
128 1 -1.1104 3.78563 13.9579 3.86187
129 1 -1.1104 3.86315 19.5119 3.89015
130 2 2.2208 2.53794 15.4002 5.16167
131 2 2.2208 2.47731 20.8899 5.32505
132 1 -1.1104 3.86463 16.6606 0.826111
134 1 -1.1104 3.96155 16.8005 3.71159
122 1 -1.1104 6.60157 16.9238 3.91565
140 1 -1.1104 6.66575 16.8224 1.04253
139 1 -1.1104 6.63579 19.7675 3.93119
115 1 -1.1104 6.59887 14.0513 3.87052
138 1 -1.1104 6.43887 19.5757 1.09577
110 1 -1.1104 6.66079 13.8778 1.10995
302 1 -1.1104 1.0495 19.6922 6.65011
124 1 -1.1104 3.79609 13.825 6.65856
112 1 -1.1104 6.63958 19.5703 6.83096
133 1 -1.1104 3.81472 16.7064 6.49923
118 1 -1.1104 6.56058 16.7079 6.76069
355 2 2.2208 -0.388229 7.00717 -0.242829
318 1 -1.1104 9.49131 19.7748 9.45623
233 1 -1.1104 12.2345 19.5724 9.43308
316 2 2.2208 8.01083 21.0244 10.8602
141 2 2.2208 10.7632 18.1838 5.10869
142 1 -1.1104 12.3255 13.9344 1.08069
144 1 -1.1104 12.1649 19.5866 0.955007
146 1 -1.1104 12.2371 13.9929 3.92917
147 1 -1.1104 12.1025 19.4852 3.83152
148 1 -1.1104 12.2275 16.7962 1.06668
150 2 2.2208 10.8036 15.2371 2.36789
151 2 2.2208 10.7889 20.8586 2.26828
152 1 -1.1104 12.2535 16.6382 3.83962
153 1 -1.1104 9.40227 13.9529 1.17228
155 1 -1.1104 9.39733 19.5878 0.940386
157 2 2.2208 7.93713 18.1761 2.39934
158 1 -1.1104 9.37016 13.9854 3.93782
159 1 -1.1104 9.24431 19.3442 3.8002
160 2 2.2208 7.98198 15.4335 5.20357
161 2 2.2208 8.06665 20.9541 5.19317
162 1 -1.1104 9.39667 16.8234 0.87092
164 1 -1.1104 9.42489 16.7045 3.6804
9161 2 2.2208 13.6124 20.9744 5.15004
82 2 2.2208 -0.384304 9.72598 2.54359
165 2 2.2208 13.5955 18.1785 2.41354
154 1 -1.1104 9.4415 13.9996 6.72657
149 1 -1.1104 12.198 16.6774 6.65443
360 2 2.2208 7.94965 15.3595 -0.319697
156 1 -1.1104 9.4366 19.5734 6.5553
619 2 2.2208 8.03609 20.9323 -0.346381
315 1 -1.1104 9.42948 16.8228 12.172
171 1 -1.1104 6.39855 -0.177341 6.79786
167 1 -1.1104 1.13262 2.6383 6.7006
168 1 -1.1104 6.64522 -2.96931 6.63373
175 2 2.2208 5.13418 1.2958 10.9381
176 1 -1.1104 0.712251 -2.93564 12.4251
177 1 -1.1104 0.996449 2.65217 12.4323
180 1 -1.1104 0.886043 -2.8213 9.61687
181 1 -1.1104 0.941421 2.56629 9.54643
184 1 -1.1104 0.981311 -0.130634 12.283
186 2 2.2208 5.02597 -1.39574 8.13835
187 2 2.2208 5.29942 4.09315 8.10968
188 1 -1.1104 1.02941 -0.13534 9.33254
190 1 -1.1104 3.77352 -2.81888 12.313
191 1 -1.1104 3.73764 2.6663 12.4908
192 2 2.2208 2.48967 1.27951 8.09085
193 1 -1.1104 3.58881 -2.79886 9.37706
194 1 -1.1104 3.77426 2.67338 9.52448
195 2 2.2208 2.32911 -1.51487 10.8827
197 1 -1.1104 3.62223 0.0394972 12.2536
198 1 -1.1104 3.84887 -0.0523067 9.58996
189 1 -1.1104 6.5983 -0.191519 9.498
178 1 -1.1104 6.46422 -2.81116 12.227
185 1 -1.1104 6.63225 -0.117514 12.3415
182 1 -1.1104 6.57948 -3.02365 9.45354
183 1 -1.1104 6.5128 2.61551 9.30215
196 2 2.2208 2.38074 4.04867 10.9867
137 2 2.2208 -0.408131 18.2002 5.30504
9131 2 2.2208 13.7767 21.0157 10.807
351 2 2.2208 7.95175 4.07564 -0.411475
179 1 -1.1104 6.69231 2.63858 12.2069
230 2 2.2208 13.4952 -1.39619 10.9128
207 1 -1.1104 12.1037 0.0922426 6.67447
205 1 -1.1104 12.1131 -2.72833 6.7894
231 2 2.2208 13.5867 4.30814 11.0089
229 2 2.2208 13.4842 1.34376 8.15143
209 1 -1.1104 9.30382 2.88696 6.90349
206 1 -1.1104 12.2095 2.80504 6.8719
208 1 -1.1104 9.37823 -2.81864 6.91423
211 2 2.2208 10.9015 1.39011 10.956
212 1 -1.1104 12.208 -2.78247 12.3018
213 1 -1.1104 12.2538 2.6786 12.3727
214 1 -1.1104 12.2292 -2.81379 9.56131
215 1 -1.1104 12.1699 2.85739 9.69459
216 1 -1.1104 12.1012 -0.0915265 12.2598
217 2 2.2208 10.7192 -1.37268 8.09078
218 2 2.2208 10.8096 4.24219 8.13191
219 1 -1.1104 12.1566 -0.216595 9.39267
220 1 -1.1104 9.34154 -2.78143 12.4825
221 1 -1.1104 9.4071 2.81682 12.3812
222 2 2.2208 7.81556 1.3488 8.15729
223 1 -1.1104 9.35693 -2.79586 9.65999
224 1 -1.1104 9.39143 2.81128 9.51484
225 2 2.2208 7.9598 -1.48822 11.0058
226 2 2.2208 8.05862 4.26636 10.8719
227 1 -1.1104 9.42506 -0.0368009 12.3584
228 1 -1.1104 9.49166 0.0544752 9.51247
232 2 2.2208 13.5548 15.4973 5.33982
25 2 2.2208 13.5441 15.3988 10.8561
237 1 -1.1104 6.73559 5.4809 6.77837
235 1 -1.1104 6.40649 8.26404 6.83662
65 1 -1.1104 6.5298 11.2288 6.81863
236 1 -1.1104 1.08203 5.45516 6.82247
240 2 2.2208 5.16191 6.82724 10.983
241 2 2.2208 5.15611 12.4092 10.8678
242 1 -1.1104 0.878132 8.21009 12.4358
244 1 -1.1104 1.02829 8.13369 9.59224
246 1 -1.1104 0.936618 5.40837 12.3797
247 1 -1.1104 0.962411 10.9684 12.2299
250 2 2.2208 5.12807 9.75319 8.16088
251 1 -1.1104 1.06442 5.36678 9.737
252 1 -1.1104 0.943529 11.0106 9.51155
255 1 -1.1104 3.85103 8.21168 12.0878
256 2 2.2208 2.33001 7.01699 8.18376
257 2 2.2208 2.39032 12.4817 8.01747
258 1 -1.1104 3.75495 8.44741 9.42711
259 2 2.2208 2.3829 9.61299 10.9494
260 1 -1.1104 3.72841 5.49669 12.375
261 1 -1.1104 3.80414 10.8942 12.4023
262 1 -1.1104 3.73786 5.58626 9.55162
263 1 -1.1104 3.76021 11.1316 9.49064
253 1 -1.1104 6.53087 5.54489 9.57875
248 1 -1.1104 6.61 5.42897 12.3467
254 1 -1.1104 6.51856 10.939 9.58725
249 1 -1.1104 6.48137 11.0074 12.4525
245 1 -1.1104 6.59488 8.26298 9.65047
243 1 -1.1104 6.5133 8.21429 12.4513
143 1 -1.1104 12.1938 14.0325 6.61196
90 1 -1.1104 12.0741 11.0869 6.65382
265 1 -1.1104 11.9238 8.39191 6.68341
145 1 -1.1104 12.1042 19.667 6.62296
52 2 2.2208 13.5999 9.78066 10.8721
203 2 2.2208 13.4076 7.07906 8.12031
202 2 2.2208 13.411 12.6095 8.04371
101 1 -1.1104 9.30247 11.145 6.66577
267 1 -1.1104 9.23353 8.38896 6.65124
269 1 -1.1104 9.36103 5.45561 6.77523
264 1 -1.1104 9.2725 11.3578 9.3835
268 1 -1.1104 9.35432 5.73763 9.57135
270 1 -1.1104 9.35581 11.0226 12.4581
271 1 -1.1104 9.50548 5.43233 12.5034
272 2 2.2208 7.91688 9.7039 11.0243
273 1 -1.1104 9.27937 8.52391 9.52782
274 2 2.2208 8.02488 12.6861 8.11434
275 2 2.2208 7.91484 6.97706 8.15047
276 2 2.2208 10.748 7.13233 10.9239
277 2 2.2208 10.6473 12.613 10.9035
278 1 -1.1104 12.1397 8.44917 12.3005
279 1 -1.1104 12.0067 8.46083 9.55251
280 1 -1.1104 12.2569 5.58413 12.3148
281 1 -1.1104 12.4294 11.3565 12.2016
282 2 2.2208 10.6483 9.77158 8.05619
283 1 -1.1104 12.0532 5.82262 9.6365
284 1 -1.1104 12.0015 11.2727 9.5265
285 1 -1.1104 9.29267 8.29845 12.4354
30 2 2.2208 13.5288 18.1057 8.22168
324 2 2.2208 10.8109 21.0517 8.04176
111 1 -1.1104 6.69595 13.9118 6.46862
126 1 -1.1104 3.92428 19.6318 6.71483
117 1 -1.1104 1.05062 16.7364 6.66751
108 1 -1.1104 1.15323 13.9136 6.57528
288 1 -1.1104 6.6692 19.6032 9.54046
297 1 -1.1104 6.64914 13.9651 12.2246
290 1 -1.1104 6.55457 13.9111 9.51559
289 1 -1.1104 6.56122 16.6499 9.6183
286 1 -1.1104 3.86828 19.551 12.1906
287 1 -1.1104 3.6719 13.8877 12.406
291 1 -1.1104 0.736915 19.4847 9.20529
292 1 -1.1104 1.17674 16.6397 9.33408
293 2 2.2208 5.30755 21.0345 8.09824
294 1 -1.1104 1.00926 13.8252 9.43721
295 2 2.2208 5.19376 15.2298 8.10712
298 1 -1.1104 1.14619 19.2705 11.9772
299 1 -1.1104 0.946565 13.8315 12.252
300 2 2.2208 5.27056 18.1455 10.909
301 1 -1.1104 3.7552 19.5339 9.44248
303 2 2.2208 2.37801 18.1651 8.05541
304 1 -1.1104 3.85434 16.7219 9.37043
305 1 -1.1104 3.65095 13.8374 9.51917
307 1 -1.1104 0.979418 16.6145 12.0589
308 1 -1.1104 3.77384 16.712 12.2609
309 2 2.2208 2.3644 20.9743 10.8014
310 2 2.2208 2.44502 15.2238 10.7958
296 1 -1.1104 6.63971 19.697 12.2203
532 2 2.2208 2.50394 18.2879 13.5185
319 1 -1.1104 9.42087 13.9905 9.50128
200 1 -1.1104 12.1429 19.641 12.2816
50 2 2.2208 10.7997 18.2357 10.9283
204 1 -1.1104 12.1434 14.0819 9.53837
321 1 -1.1104 9.46227 19.4948 12.2833
53 1 -1.1104 12.1324 14.0256 12.4486
163 1 -1.1104 9.37631 16.8066 6.58284
326 1 -1.1104 12.3315 16.8608 12.262
314 1 -1.1104 9.39532 16.8822 9.38548
320 2 2.2208 7.90752 18.1792 8.11723
323 1 -1.1104 12.1924 16.7299 9.42161
306 1 -1.1104 6.63814 16.8434 12.3744
350 2 2.2208 8.0277 -1.52772 -0.266587
8488 2 2.2208 2.31398 -4.30045 8.12928
356 2 2.2208 2.38804 3.96286 -0.196697
346 2 2.2208 2.28523 -1.48683 -0.335331
653 2 2.2208 5.20879 12.466 -0.368504
344 2 2.2208 5.26932 21.3008 13.5608
8501 2 2.2208 2.21391 -4.22088 13.8466
558 2 2.2208 10.8779 21.0591 13.7141
472 2 2.2208 5.1749 9.69964 13.8045
341 2 2.2208 10.7054 4.15941 13.8202
353 2 2.2208 13.6737 4.05348 -0.437153
347 2 2.2208 10.8947 6.99978 -0.345578
349 2 2.2208 10.8493 1.36741 -0.327959
362 2 2.2208 5.21093 1.317 16.6061
363 1 -1.1104 0.709959 -2.80745 17.9221
364 1 -1.1104 0.980739 2.69339 18.0888
367 1 -1.1104 0.82826 -2.86016 15.0932
369 1 -1.1104 1.02801 2.7896 15.2861
375 1 -1.1104 1.09922 -0.0911718 18.0314
377 2 2.2208 5.08823 -1.4457 19.2689
378 2 2.2208 5.17551 4.08559 19.3862
379 1 -1.1104 0.750165 0.0539144 15.155
383 1 -1.1104 3.5269 -2.80512 17.8332
384 1 -1.1104 3.75236 2.71715 18.0088
385 2 2.2208 2.37142 1.42942 19.3549
386 1 -1.1104 3.54026 -2.78122 15.0655
388 1 -1.1104 3.86958 2.81273 15.237
390 2 2.2208 2.11682 -1.54999 16.4562
391 2 2.2208 2.37533 4.05166 16.5791
392 1 -1.1104 3.88468 0.00161442 17.8926
393 1 -1.1104 3.63782 -0.208618 15.1556
365 1 -1.1104 6.35867 -2.76311 17.808
381 1 -1.1104 6.57188 -0.087649 15.1805
370 1 -1.1104 0.880599 2.74211 20.7422
371 1 -1.1104 6.53638 -2.89457 14.9632
366 1 -1.1104 6.53264 2.67667 18.0335
373 1 -1.1104 6.6219 2.63286 15.1754
376 1 -1.1104 6.54357 -0.0379709 18.0201
387 1 -1.1104 3.88074 -2.88467 20.6774
372 1 -1.1104 6.6701 -3.04725 20.7719
374 1 -1.1104 6.38818 2.76514 20.7719
382 1 -1.1104 6.63258 -0.26319 20.8031
389 1 -1.1104 3.59241 2.74252 20.8765
333 2 2.2208 5.20644 4.0432 13.7345
681 2 2.2208 13.6766 7.01707 24.9463
436 2 2.2208 13.5699 1.39313 19.4112
405 2 2.2208 10.7368 1.28753 16.5364
406 1 -1.1104 12.1697 -2.85904 18.1062
407 1 -1.1104 12.1011 2.84013 17.9842
408 1 -1.1104 12.256 -2.90925 15.2489
410 1 -1.1104 12.1473 2.72932 15.1179
412 1 -1.1104 12.2501 0.0746886 18.0286
413 2 2.2208 10.7839 -1.55555 19.3821
414 2 2.2208 10.6911 4.04087 19.4116
415 1 -1.1104 12.1056 -0.0664295 15.1265
417 1 -1.1104 9.21178 -2.75572 18.0395
418 1 -1.1104 9.27557 2.68484 17.9846
419 2 2.2208 7.94887 1.24575 19.317
420 1 -1.1104 9.41973 -2.84525 15.2325
422 1 -1.1104 9.43825 2.77742 15.2245
424 2 2.2208 7.89392 -1.57611 16.5429
425 2 2.2208 7.99941 4.00189 16.6133
426 1 -1.1104 9.38647 -0.178788 17.8774
427 1 -1.1104 9.33564 -0.107152 15.1045
435 2 2.2208 13.4856 4.18706 16.5648
433 2 2.2208 13.4541 -1.54894 16.7428
8600 2 2.2208 7.89839 -4.3515 19.302
428 1 -1.1104 9.37957 -0.200611 20.7402
339 2 2.2208 10.7432 -1.48622 13.6588
438 2 2.2208 5.06062 6.89071 16.6147
439 2 2.2208 5.23033 12.6066 16.6265
440 1 -1.1104 0.912692 8.25489 17.8088
442 1 -1.1104 0.896487 8.32252 15.1067
446 1 -1.1104 0.773031 5.45611 17.9793
447 1 -1.1104 0.831032 10.9676 17.8778
450 2 2.2208 5.14027 9.74165 19.294
451 1 -1.1104 1.02141 5.52959 15.2594
453 1 -1.1104 1.14495 11.058 15.0239
459 1 -1.1104 3.70035 8.30916 18.0203
460 2 2.2208 2.23207 6.96214 19.3381
461 2 2.2208 2.19714 12.7642 19.4083
462 1 -1.1104 3.7663 8.41065 15.1332
464 2 2.2208 2.33295 9.73938 16.5673
465 1 -1.1104 3.718 5.53508 18.012
466 1 -1.1104 3.72477 11.1218 17.7937
467 1 -1.1104 3.80096 5.54909 15.2975
469 1 -1.1104 3.84328 11.2376 14.9855
448 1 -1.1104 6.47017 5.4896 17.9153
457 1 -1.1104 6.57415 11.0586 15.1965
444 1 -1.1104 6.48614 8.17163 15.1853
449 1 -1.1104 6.58184 11.1253 18.0213
357 2 2.2208 2.40644 12.4228 13.8128
463 1 -1.1104 3.69006 8.17959 20.8054
452 1 -1.1104 0.881667 5.55648 20.7226
458 1 -1.1104 6.61853 11.1 20.7704
343 2 2.2208 2.39372 6.8536 13.7351
9480 2 2.2208 13.6823 12.5755 19.2289
441 1 -1.1104 6.55086 8.25772 17.9873
455 1 -1.1104 6.52377 5.3012 15.231
403 2 2.2208 13.5851 9.72845 16.5998
474 2 2.2208 10.784 6.92166 16.6478
475 2 2.2208 10.7568 12.5038 16.5072
476 1 -1.1104 12.278 8.26489 17.9795
477 1 -1.1104 12.2439 8.35912 15.2154
479 1 -1.1104 12.2744 5.62853 18.1273
480 1 -1.1104 12.2187 11.1587 17.8629
481 2 2.2208 10.8227 9.65149 19.2946
482 1 -1.1104 12.019 5.48827 15.3169
484 1 -1.1104 12.1298 11.0817 15.0392
486 1 -1.1104 9.33248 8.31743 17.8605
487 2 2.2208 7.91055 6.83169 19.3114
488 2 2.2208 8.08187 12.4887 19.4092
489 1 -1.1104 9.30781 8.37011 15.175
491 2 2.2208 7.91107 9.64049 16.4497
492 1 -1.1104 9.33296 5.41109 18.0497
493 1 -1.1104 9.37552 11.0542 17.9541
494 1 -1.1104 9.35627 5.64262 15.3931
496 1 -1.1104 9.29824 11.2056 15.1528
402 2 2.2208 13.6635 6.86579 19.4006
626 2 2.2208 10.6885 15.4775 24.9094
497 1 -1.1104 9.34941 11.1694 20.7252
483 1 -1.1104 12.1601 5.37017 20.7342
498 2 2.2208 7.90374 12.5859 13.7694
676 1 -1.1104 12.1785 19.3049 26.2493
503 1 -1.1104 0.467755 20.6923 17.2119
397 1 -1.1104 3.41355 19.2789 17.5761
501 2 2.2208 5.23771 18.2548 16.4675
502 1 -1.1104 0.907598 13.8539 17.7576
506 1 -1.1104 0.793828 13.7966 14.8666
508 1 -1.1104 1.12224 19.4776 14.8752
514 1 -1.1104 1.14535 17.2353 17.5833
516 2 2.2208 5.30387 15.307 19.3039
517 1 -1.1104 1.09289 16.6975 14.7164
521 1 -1.1104 3.73421 13.9032 18.0439
522 2 2.2208 2.52721 18.0584 19.31
523 1 -1.1104 3.65728 14.1048 15.2785
525 1 -1.1104 4.12937 19.6595 14.835
527 2 2.2208 2.36526 15.5591 16.4321
528 2 2.2208 2.42099 20.7538 16.2427
529 1 -1.1104 3.95577 16.7025 17.9043
530 1 -1.1104 3.79325 16.7711 15.1766
509 1 -1.1104 1.18102 20.0304 19.9604
519 1 -1.1104 6.73363 17.054 15.15
510 1 -1.1104 6.43974 13.9516 15.0302
504 1 -1.1104 6.79573 13.8587 17.8901
515 1 -1.1104 6.75022 16.8171 17.8479
526 2 2.2208 5.1541 15.5194 13.7267
531 1 -1.1104 3.92495 16.5653 20.6681
588 1 -1.1104 9.36563 19.5632 26.22
560 2 2.2208 8.03755 18.3938 13.7817
505 1 -1.1104 6.84115 19.5876 17.6447
591 2 2.2208 13.6775 15.4201 16.3715
512 1 -1.1104 6.80156 20.2819 14.8516
592 2 2.2208 13.659 18.0312 19.2764
534 2 2.2208 10.8277 18.2891 16.5923
535 1 -1.1104 12.3105 13.9361 17.9828
536 1 -1.1104 12.2742 19.542 17.9167
537 1 -1.1104 12.1635 13.8369 15.1686
539 1 -1.1104 12.2387 19.5494 15.0391
541 1 -1.1104 12.2515 16.8256 17.73
542 2 2.2208 10.9021 15.2428 19.2056
543 2 2.2208 10.8136 20.9819 19.4162
544 1 -1.1104 12.2504 16.6895 15.0196
546 1 -1.1104 9.52981 13.9442 17.909
547 1 -1.1104 9.4554 19.4777 17.8981
548 2 2.2208 7.96813 18.2631 19.3568
549 1 -1.1104 9.29157 14.0185 15.1613
551 1 -1.1104 9.51439 19.7195 15.2077
553 2 2.2208 7.94108 15.4214 16.5361
554 2 2.2208 8.32223 21.1515 16.4622
555 1 -1.1104 9.53317 16.6744 17.8577
556 1 -1.1104 9.48648 16.8257 15.0315
545 1 -1.1104 12.3947 16.5689 20.6129
538 1 -1.1104 12.1517 13.8188 20.7879
550 1 -1.1104 9.47342 13.8206 20.707
520 1 -1.1104 6.79281 16.7072 20.7089
340 2 2.2208 13.4786 1.29561 13.7465
342 2 2.2208 10.6836 9.74878 13.8191
380 1 -1.1104 0.972498 -0.220351 20.7683
334 2 2.2208 13.6394 6.95419 13.7253
394 1 -1.1104 3.60995 -0.127107 20.6659
368 1 -1.1104 1.02045 -2.82465 20.7548
562 2 2.2208 5.07683 1.34292 22.1911
563 1 -1.1104 0.988092 -2.86036 23.6378
564 1 -1.1104 0.838586 2.73832 23.4751
567 1 -1.1104 0.874738 -2.87377 26.3426
568 1 -1.1104 1.03037 2.69555 26.2951
571 1 -1.1104 0.801944 -0.054347 23.524
573 2 2.2208 5.05741 -1.46486 25.0206
574 2 2.2208 5.08386 4.23588 24.9908
575 1 -1.1104 0.882871 -0.130282 26.29
577 1 -1.1104 3.64021 -2.86583 23.5998
578 1 -1.1104 3.70308 2.73571 23.4902
579 2 2.2208 2.23294 1.32648 24.9489
580 1 -1.1104 3.78153 -2.86747 26.4429
581 1 -1.1104 3.74104 2.75917 26.3211
582 2 2.2208 2.26685 -1.54057 22.194
583 2 2.2208 2.29997 4.25607 22.1135
584 1 -1.1104 3.73235 -0.109814 23.4005
585 1 -1.1104 3.686 -0.0554651 26.41
565 1 -1.1104 6.39287 -3.01493 23.6485
576 1 -1.1104 6.52958 -0.030234 26.3433
569 1 -1.1104 6.69088 -2.68756 26.3661
566 1 -1.1104 6.41915 2.71027 23.6391
570 1 -1.1104 6.41645 2.75554 26.4487
572 1 -1.1104 6.63337 -0.220468 23.5031
533 2 2.2208 7.94302 18.1424 24.7494
656 1 -1.1104 12.1949 13.9752 26.4025
359 2 2.2208 13.6084 18.2557 13.6168
590 2 2.2208 13.6822 -1.49106 22.2288
625 2 2.2208 13.5787 1.19736 24.9499
409 1 -1.1104 12.0342 -2.90813 20.8522
416 1 -1.1104 12.334 -0.113814 20.7514
423 1 -1.1104 9.29435 2.54837 20.8189
411 1 -1.1104 12.1691 2.55054 20.7793
421 1 -1.1104 9.3669 -2.98188 20.6977
598 2 2.2208 10.8154 1.19977 22.142
599 1 -1.1104 12.1652 -2.95481 23.698
600 1 -1.1104 12.1759 2.70463 23.7556
601 1 -1.1104 12.2751 -2.89786 26.5113
602 1 -1.1104 12.3397 2.7091 26.3297
603 1 -1.1104 12.0746 -0.123731 23.6395
604 2 2.2208 10.7185 -1.55849 25.0113
605 2 2.2208 10.8223 4.12257 25.0326
606 1 -1.1104 12.0651 -0.0455869 26.4482
607 1 -1.1104 9.34935 -3.02803 23.4926
608 1 -1.1104 9.31358 2.64768 23.4624
609 2 2.2208 7.97538 1.24054 24.9696
610 1 -1.1104 9.41386 -2.962 26.5104
611 1 -1.1104 9.35968 2.72351 26.3467
612 2 2.2208 7.94772 -1.54962 22.0962
613 2 2.2208 7.8892 4.17921 22.2399
614 1 -1.1104 9.33349 -0.172876 23.4766
615 1 -1.1104 9.43006 0.00167775 26.394
401 2 2.2208 13.5487 4.03648 22.2326
437 1 -1.1104 12.2565 16.6794 26.2631
587 1 -1.1104 9.49511 14.1308 26.5051
594 2 2.2208 8.05714 15.299 22.066
337 2 2.2208 7.95989 1.33682 13.7251
445 1 -1.1104 6.61416 8.29116 20.7674
470 1 -1.1104 3.79755 11.1004 20.5984
468 1 -1.1104 3.76238 5.57006 20.7462
443 1 -1.1104 0.847764 8.34665 20.6295
454 1 -1.1104 0.901644 11.1114 20.6167
456 1 -1.1104 6.48282 5.57685 20.8871
627 2 2.2208 5.17894 6.9931 22.2256
628 2 2.2208 5.12788 12.4454 22.0869
629 1 -1.1104 1.12846 8.23278 23.4767
631 1 -1.1104 1.04269 8.22901 26.3751
633 1 -1.1104 0.917727 5.44115 23.6104
634 1 -1.1104 0.966587 11.0625 23.5271
637 2 2.2208 5.10491 9.78218 25.0107
638 1 -1.1104 0.901245 5.48997 26.3805
639 1 -1.1104 1.18428 11.1096 26.3319
642 1 -1.1104 3.75079 8.3935 23.6182
643 2 2.2208 2.34717 6.91132 24.9637
644 2 2.2208 2.45884 12.5232 24.9312
645 1 -1.1104 3.76355 8.25521 26.4165
646 2 2.2208 2.35842 9.72615 22.0084
647 1 -1.1104 3.74855 5.62057 23.6335
648 1 -1.1104 3.82035 11.1709 23.5929
649 1 -1.1104 3.76813 5.57492 26.3571
650 1 -1.1104 3.7707 11.0543 26.2683
635 1 -1.1104 6.65048 5.60723 23.6971
640 1 -1.1104 6.61416 5.44737 26.3925
636 1 -1.1104 6.64812 11.157 23.5468
641 1 -1.1104 6.71696 11.0197 26.3199
632 1 -1.1104 6.61813 8.27318 26.454
618 1 -1.1104 9.34747 16.7938 26.1575
485 1 -1.1104 12.1942 11.0116 20.7023
478 1 -1.1104 12.2496 8.20095 20.8683
495 1 -1.1104 9.37629 5.50815 20.812
630 1 -1.1104 6.59935 8.40251 23.5582
490 1 -1.1104 9.35235 8.3627 20.7456
17546 2 2.2208 13.6037 -4.31193 19.4672
658 1 -1.1104 9.51838 11.1567 26.4511
659 1 -1.1104 9.47543 5.57864 26.3447
660 1 -1.1104 9.3287 11.1111 23.6397
661 1 -1.1104 9.43552 5.27912 23.5381
662 2 2.2208 7.96918 9.67548 22.1367
663 1 -1.1104 9.45658 8.41262 26.3121
664 2 2.2208 8.00285 12.6294 25.0323
665 2 2.2208 7.92738 7.05491 25.033
666 2 2.2208 10.8149 6.88144 22.2257
667 2 2.2208 10.8322 12.5159 22.1677
668 1 -1.1104 12.1031 8.56993 23.629
669 1 -1.1104 12.2039 8.32236 26.2808
670 1 -1.1104 12.2342 5.6838 23.664
671 1 -1.1104 12.089 11.2857 23.5744
672 2 2.2208 10.7049 9.79009 24.9374
673 1 -1.1104 12.2264 5.54909 26.4027
674 1 -1.1104 12.2052 11.175 26.4158
675 1 -1.1104 9.33763 8.28877 23.5689
679 2 2.2208 13.5335 12.6951 24.8899
689 1 -1.1104 6.51498 19.3823 23.5064
511 1 -1.1104 6.56224 13.9068 20.7961
513 1 -1.1104 6.71562 19.4644 20.875
652 1 -1.1104 6.58446 16.6325 23.414
683 1 -1.1104 6.60654 13.9701 26.3715
524 1 -1.1104 3.58191 13.883 20.7895
518 1 -1.1104 1.31336 17.2866 21.0673
692 1 -1.1104 6.53414 13.8583 23.6803
685 1 -1.1104 6.42471 16.7438 26.368
682 1 -1.1104 3.7123 19.2098 20.7364
507 1 -1.1104 0.659755 14.0832 20.8216
1200 1 -1.1104 3.6887 19.665 23.4643
430 2 2.2208 2.30934 20.5761 21.8267
431 1 -1.1104 3.84001 16.8303 23.4633
473 1 -1.1104 0.981672 16.563 23.5855
621 2 2.2208 2.32827 15.4272 22.1826
684 1 -1.1104 3.86127 14.0904 23.4901
686 1 -1.1104 1.05764 19.6244 26.1791
687 1 -1.1104 0.911075 16.74 26.2864
688 1 -1.1104 0.781163 14.0318 26.3768
690 2 2.2208 5.21868 20.7859 24.8946
691 2 2.2208 5.17864 15.3903 24.8564
693 1 -1.1104 0.818832 19.4972 23.2737
694 1 -1.1104 1.08032 13.9124 23.6818
695 2 2.2208 5.37622 18.1205 21.9964
696 1 -1.1104 3.82035 19.5301 26.2459
697 2 2.2208 2.32647 18.0994 24.7288
698 1 -1.1104 3.60836 16.6443 26.112
699 1 -1.1104 3.85831 13.7566 26.34
586 1 -1.1104 6.57835 19.4253 26.3028
624 1 -1.1104 12.1654 14.0349 23.5581
395 2 2.2208 13.5516 15.3609 22.0966
623 2 2.2208 10.8067 18.2152 22.1754
500 1 -1.1104 9.49764 19.421 23.5361
589 2 2.2208 13.5964 20.9119 22.011
616 2 2.2208 7.96215 20.8637 22.0936
617 1 -1.1104 9.3449 16.7343 23.5561
622 2 2.2208 10.8336 20.9566 24.9543
657 1 -1.1104 12.1842 16.7833 23.4345
540 1 -1.1104 12.3074 19.4147 20.6486
552 1 -1.1104 9.49666 19.466 20.6435
654 1 -1.1104 12.2582 19.6533 23.4027
499 1 -1.1104 9.33239 13.9133 23.5486
557 1 -1.1104 9.57434 16.5872 20.7518
396 2 2.2208 -0.398425 6.99159 22.3286
8611 2 2.2208 2.20763 -4.22041 19.2409
8612 2 2.2208 4.93882 -4.21648 16.4524
559 2 2.2208 10.8007 15.4213 13.7374
332 2 2.2208 2.25203 1.22891 13.851
8499 2 2.2208 8.01015 -4.30916 13.7699
595 2 2.2208 7.94736 6.85082 13.8775
17275 2 2.2208 13.5336 -4.27076 13.7901
9478 2 2.2208 -0.331565 18.2267 16.0928
432 2 2.2208 2.39591 20.8523 27.5732
331 2 2.2208 5.24023 -1.424 13.6895
9205 2 2.2208 13.5386 9.78067 22.1796
400 2 2.2208 -0.348287 12.4018 16.3834
680 2 2.2208 2.31277 15.3448 27.7227
361 2 2.2208 10.7646 18.1738 27.6555
335 2 2.2208 13.5937 9.75967 27.6258
434 2 2.2208 13.7214 20.7923 27.6579
329 2 2.2208 10.794 12.5942 27.7702
336 2 2.2208 13.5749 12.5515 13.6958
700 2 2.2208 5.23585 23.7228 5.26352
701 2 2.2208 5.37117 29.2546 5.27005
702 1 -1.1104 1.04407 25.1272 0.994349
703 1 -1.1104 0.9789 25.2151 3.76836
704 1 -1.1104 1.01933 22.2855 0.927263
705 1 -1.1104 1.13946 27.9827 1.02472
706 2 2.2208 5.30919 26.5266 2.45648
707 1 -1.1104 1.01525 22.3922 3.77461
708 1 -1.1104 0.882694 27.9012 3.85194
709 1 -1.1104 3.80706 25.0089 0.992986
710 2 2.2208 2.38848 23.7285 2.37353
711 2 2.2208 2.46392 29.4417 2.39982
712 1 -1.1104 3.8332 25.2088 3.79248
713 2 2.2208 2.3576 26.6035 5.10677
714 1 -1.1104 3.87371 22.2494 0.694117
715 1 -1.1104 3.8435 27.9083 1.12865
716 1 -1.1104 3.78592 22.2845 3.88573
717 1 -1.1104 3.87987 28.0387 3.8316
722 1 -1.1104 6.52517 25.195 3.89939
723 1 -1.1104 6.63357 22.3717 0.977618
721 1 -1.1104 6.46099 24.9946 1.078
725 1 -1.1104 6.56837 22.5048 3.7063
724 1 -1.1104 6.63761 27.8611 1.1642
726 1 -1.1104 6.62289 27.8116 4.00755
844 1 -1.1104 3.89133 22.433 6.67047
837 1 -1.1104 0.863006 25.0921 6.56885
1001 2 2.2208 13.754 34.8982 8.07779
727 2 2.2208 10.8108 23.7502 5.04464
728 2 2.2208 10.7536 29.4759 5.2095
729 1 -1.1104 12.166 25.0948 0.971585
730 1 -1.1104 12.3925 25.2567 3.70469
731 1 -1.1104 12.2694 22.4177 1.15068
732 1 -1.1104 12.1718 28.0686 0.910879
733 2 2.2208 10.9426 26.6219 2.42549
734 1 -1.1104 12.1458 22.2704 3.84634
735 1 -1.1104 12.2566 27.9773 3.81914
736 1 -1.1104 9.30809 25.1173 0.987125
737 2 2.2208 8.04299 23.8348 2.45475
738 2 2.2208 8.05543 29.318 2.42972
739 1 -1.1104 9.44677 25.1197 3.83895
740 2 2.2208 8.01204 26.5735 5.20215
741 1 -1.1104 9.48235 22.3395 1.10338
742 1 -1.1104 9.36797 27.8755 1.15507
743 1 -1.1104 9.28503 22.2871 3.78344
744 1 -1.1104 9.38552 28.0622 4.11885
745 2 2.2208 13.7113 23.6855 2.41723
1347 2 2.2208 2.80879 29.0609 13.5038
1584 1 -1.1104 9.45994 47.4512 9.40149
871 1 -1.1104 12.2554 28.0802 6.59769
869 1 -1.1104 12.3106 25.3244 6.47931
872 1 -1.1104 9.44116 25.0523 6.64156
870 1 -1.1104 12.2893 22.4983 6.6851
9609 2 2.2208 13.5965 23.6834 8.06998
748 2 2.2208 5.27795 35.0724 5.14658
749 1 -1.1104 1.00367 30.8046 0.961941
750 1 -1.1104 0.892511 36.3074 1.04255
752 1 -1.1104 1.08583 30.7644 3.75208
753 1 -1.1104 1.05007 36.4722 3.85029
755 1 -1.1104 0.937014 33.4824 0.990654
756 2 2.2208 5.24378 32.2313 2.4388
757 2 2.2208 5.23639 37.8135 2.35718
758 1 -1.1104 1.08174 33.5071 3.81237
760 1 -1.1104 3.83125 30.8131 1.04267
761 1 -1.1104 3.71183 36.4015 0.852735
762 2 2.2208 2.41301 34.9575 2.37445
763 1 -1.1104 3.90605 30.8225 3.80386
764 1 -1.1104 3.83917 36.2933 3.68224
765 2 2.2208 2.5071 32.1841 5.24119
766 2 2.2208 2.37633 37.8255 5.20461
767 1 -1.1104 3.87292 33.6187 1.01975
768 1 -1.1104 3.85808 33.6233 3.84071
773 1 -1.1104 6.79711 30.6061 3.81463
772 1 -1.1104 6.69023 30.7654 0.96193
774 1 -1.1104 6.6321 33.5056 1.07432
891 1 -1.1104 6.62574 36.2405 6.59436
751 1 -1.1104 6.53606 36.3401 0.883927
754 1 -1.1104 6.78909 36.4716 3.55067
896 1 -1.1104 3.74257 33.557 6.61797
888 1 -1.1104 1.019 30.7303 6.62458
889 1 -1.1104 1.02789 36.4217 6.54089
893 1 -1.1104 6.43846 33.6038 6.6943
9780 2 2.2208 -0.27608 26.4638 13.6764
759 1 -1.1104 6.68729 33.5981 3.89346
890 1 -1.1104 6.80433 30.6728 6.49328
1090 2 2.2208 5.17658 31.9665 13.6947
775 2 2.2208 10.68 34.9571 5.37141
776 1 -1.1104 12.3535 30.7078 1.01316
777 1 -1.1104 12.1655 36.314 1.14458
778 1 -1.1104 12.1663 31.0557 3.77943
780 1 -1.1104 12.4167 33.5695 0.9176
781 2 2.2208 10.9318 32.2285 2.33226
782 2 2.2208 10.6668 37.8543 2.25916
783 1 -1.1104 12.127 33.8013 3.90575
784 1 -1.1104 9.56824 30.7615 0.979559
785 1 -1.1104 9.34366 36.2819 1.02505
786 2 2.2208 8.03924 34.9919 2.33667
787 1 -1.1104 9.47983 30.8317 3.68154
788 1 -1.1104 9.87951 36.4181 3.7388
789 2 2.2208 8.0652 32.106 5.23321