LAMMPS (29 Oct 2020)
OMP_NUM_THREADS environment is not set. Defaulting to 1 thread. (../comm.cpp:94)
  using 1 OpenMP thread(s) per MPI task
OMP_NUM_THREADS environment is not set. Defaulting to 1 thread. (../comm.cpp:94)
  using 1 OpenMP thread(s) per MPI task
Reading data file ...
  triclinic box = (0.0000000 0.0000000 0.0000000) to (27.894000 334.72800 27.894000) with tilt (0.0000000 0.0000000 0.0000000)
  2 by 13 by 2 MPI processor grid
  reading atoms ...
  24000 atoms
  reading velocities ...
  24000 velocities
Finding 1-2 1-3 1-4 neighbors ...
  special bond factors lj:    0.0      0.0      0.0     
  special bond factors coul:  0.0      0.0      0.0     
     0 = max # of 1-2 neighbors
     0 = max # of 1-3 neighbors
     0 = max # of 1-4 neighbors
     1 = max # of special neighbors
  special bonds CPU = 0.015 seconds
  read_data CPU = 0.106 seconds
60 atoms in group vac_Th
120 atoms in group vac_O
60 atoms in group oct_Th
120 atoms in group oct_O
3000 atoms in group tot_oct_Th
3000 atoms in group tot_oct_O
2940 atoms in group delete_oct_Th
2880 atoms in group delete_oct_O
WARNING: Ignoring 'compress yes' for molecular system (../delete_atoms.cpp:125)
Deleted 60 atoms, new total = 23940
WARNING: Ignoring 'compress yes' for molecular system (../delete_atoms.cpp:125)
Deleted 120 atoms, new total = 23820
WARNING: Ignoring 'compress yes' for molecular system (../delete_atoms.cpp:125)
Deleted 2940 atoms, new total = 20880
WARNING: Ignoring 'compress yes' for molecular system (../delete_atoms.cpp:125)
Deleted 2880 atoms, new total = 18000
Setting atom values ...
  11880 settings made for charge
Setting atom values ...
  5940 settings made for charge
Setting atom values ...
  120 settings made for charge
Setting atom values ...
  60 settings made for charge
PPPM initialization ...
  using 12-bit tables for long-range coulomb (../kspace.cpp:328)
  G vector (1/distance) = 0.29916851
  grid = 40 240 40
  stencil order = 5
  estimated absolute RMS force accuracy = 0.00015502622
  estimated relative force accuracy = 1.0765975e-05
  using single precision MKL FFT
  3d grid and FFT values/proc = 18225 7600
Neighbor list info ...
  update every 1 steps, delay 0 steps, check yes
  max neighbors/atom: 2000, page size: 100000
  master list distance cutoff = 13
  ghost atom cutoff = 13
  binsize = 6.5, bins = 5 52 5
  2 neighbor lists, perpetual/occasional/extra = 2 0 0
  (1) pair coul/long, perpetual
      attributes: half, newton on
      pair build: half/bin/newton/tri
      stencil: half/bin/3d/newton/tri
      bin: standard
  (2) pair eam/alloy, perpetual, copy from (1)
      attributes: half, newton on
      pair build: copy
      stencil: none
      bin: none
Setting up cg style minimization ...
  Unit style    : metal
  Current step  : 0
WARNING: Energy due to 3 extra global DOFs will be included in minimizer energies
Per MPI rank memory allocation (min/avg/max) = 10.44 | 10.47 | 10.50 Mbytes
Step Temp E_pair E_mol TotEng Press Volume 
       0            0   -229811.44            0   -229811.44    25207.781    260443.57 
    1426            0   -234569.77            0   -234569.77    40.403578    267126.92 
Loop time of 22.4441 on 52 procs for 1426 steps with 18000 atoms

99.7% CPU use with 52 MPI tasks x 1 OpenMP threads

Minimization stats:
  Stopping criterion = linesearch alpha is zero
  Energy initial, next-to-last, final = 
     -229811.442086565  -234569.772015576  -234569.772015576
  Force two-norm initial, final = 8485.6794 18.583881
  Force max component initial, final = 6065.9824 13.538249
  Final line search alpha, max atom move = 2.0063998e-11 2.7163140e-10
  Iterations, force evaluations = 1426 1973

MPI task timing breakdown:
Section |  min time  |  avg time  |  max time  |%varavg| %total
---------------------------------------------------------------
Pair    | 12.551     | 13.257     | 14.012     |   9.6 | 59.07
Bond    | 0.00018287 | 0.00025263 | 0.00038722 |   0.0 |  0.00
Kspace  | 3.0119     | 3.7665     | 4.4727     |  18.1 | 16.78
Neigh   | 0.028176   | 0.032064   | 0.035491   |   1.0 |  0.14
Comm    | 0.30552    | 0.31794    | 0.32817    |   0.9 |  1.42
Output  | 0          | 0          | 0          |   0.0 |  0.00
Modify  | 0          | 0          | 0          |   0.0 |  0.00
Other   |            | 5.07       |            |       | 22.59

Nlocal:        346.154 ave         387 max         311 min
Histogram: 1 4 9 8 10 6 7 3 0 4
Nghost:        5612.83 ave        5792 max        5436 min
Histogram: 5 5 6 2 5 10 5 7 5 2
Neighs:       110520.0 ave      124043 max       98631 min
Histogram: 2 2 8 10 9 7 8 2 1 3

Total # of neighbors = 5747056
Ave neighs/atom = 319.28089
Ave special neighs/atom = 0.0000000
Neighbor list builds = 8
Dangerous builds = 0
Resetting atom IDs ...
PPPM initialization ...
  using 12-bit tables for long-range coulomb (../kspace.cpp:328)
  G vector (1/distance) = 0.29876511
  grid = 40 240 40
  stencil order = 5
  estimated absolute RMS force accuracy = 0.00015797288
  estimated relative force accuracy = 1.0970609e-05
  using single precision MKL FFT
  3d grid and FFT values/proc = 18225 7600
Finding 1-2 1-3 1-4 neighbors ...
  special bond factors lj:    0.0      0.0      0.0     
  special bond factors coul:  0.0      0.0      0.0     
     0 = max # of 1-2 neighbors
     0 = max # of 1-3 neighbors
     0 = max # of 1-4 neighbors
     1 = max # of special neighbors
  special bonds CPU = 0.001 seconds
PPPM initialization ...
  using 12-bit tables for long-range coulomb (../kspace.cpp:328)
  G vector (1/distance) = 0.29876511
  grid = 40 240 40
  stencil order = 5
  estimated absolute RMS force accuracy = 0.00015797288
  estimated relative force accuracy = 1.0970609e-05
  using single precision MKL FFT
  3d grid and FFT values/proc = 18225 7600
Setting up Verlet run ...
  Unit style    : metal
  Current step  : 0
  Time step     : 0.001
Per MPI rank memory allocation (min/avg/max) = 10.59 | 10.62 | 10.64 Mbytes
Step Temp KinEng PotEng Press 
       0          900     2093.898   -234569.78    8412.5016 
  100000     884.6525    2058.1912   -233876.03   -143.43488 
  200000    896.72173    2086.2709   -233887.55     726.2343 
  300000    901.30823    2096.9417   -233911.68    261.94977 
Loop time of 2629.58 on 52 procs for 300000 steps with 18000 atoms

Performance: 9.857 ns/day, 2.435 hours/ns, 114.086 timesteps/s
99.8% CPU use with 52 MPI tasks x 1 OpenMP threads

MPI task timing breakdown:
Section |  min time  |  avg time  |  max time  |%varavg| %total
---------------------------------------------------------------
Pair    | 1629.9     | 1672.5     | 1715.1     |  52.4 | 63.60
Bond    | 0.031798   | 0.042757   | 0.060355   |   3.4 |  0.00
Kspace  | 456.28     | 500.2      | 543.97     |  97.7 | 19.02
Neigh   | 21.559     | 22.673     | 24.381     |  13.2 |  0.86
Comm    | 51.445     | 52.722     | 54.053     |   8.7 |  2.00
Output  | 0.019731   | 0.019747   | 0.020229   |   0.0 |  0.00
Modify  | 336.86     | 356.44     | 368.64     |  44.0 | 13.55
Other   |            | 24.96      |            |       |  0.95

Nlocal:        346.154 ave         369 max         330 min
Histogram: 4 8 6 7 9 7 3 5 1 2
Nghost:        5566.58 ave        5706 max        5456 min
Histogram: 3 9 4 7 7 8 6 4 0 4
Neighs:       108250.0 ave      115249 max      102617 min
Histogram: 4 5 8 8 5 7 5 6 1 3

Total # of neighbors = 5629003
Ave neighs/atom = 312.72239
Ave special neighs/atom = 0.0000000
Neighbor list builds = 5556
Dangerous builds = 0
WARNING: Shell command 'mkdir' failed with error 'File exists' (../input.cpp:1197)
System init for write_data ...
PPPM initialization ...
  using 12-bit tables for long-range coulomb (../kspace.cpp:328)
  G vector (1/distance) = 0.2985123
  grid = 40 240 40
  stencil order = 5
  estimated absolute RMS force accuracy = 0.00016035596
  estimated relative force accuracy = 1.1136105e-05
  using single precision MKL FFT
  3d grid and FFT values/proc = 18225 7600
Total wall time: 0:44:12
