ITEM: TIMESTEP
100000
ITEM: NUMBER OF ATOMS
18000
ITEM: BOX BOUNDS pp pp pp
-4.0626433283547658e-01 2.7746264332835427e+01
-4.9971620732615269e+00 3.3307716207326467e+02
-4.1693555864080722e-01 2.7756935558640254e+01
ITEM: ATOMS id type x y z
3673 2 5.30185 0.56485 5.30405
6 1 2.26064 -1.80375 1.97064
14 2 4.96977 -2.05672 2.15555
8 1 1.21268 -0.7882 4.14859
9 1 3.98802 0.241854 1.23332
63 2 2.49397 0.642038 2.98457
10 1 3.96425 -3.65253 3.76268
3604 2 2.55976 -2.2724 5.47343
12 1 3.92303 -0.741504 3.96536
3551 1 3.90845 -3.94367 0.905813
3548 1 1.17898 -3.5099 4.11855
14406 1 0.664305 0.71154 1.61204
2 2 0.00839751 -2.06346 2.66578
3747 2 13.6143 6.26635 7.79217
27 2 13.494 -4.98848 2.14055
3601 2 -0.275496 -4.95368 5.23798
7456 2 8.23102 20.5204 11.0357
18 1 6.66059 -3.70535 3.94955
66 1 1.18448 2.12805 4.11367
74 2 5.17966 3.4332 2.2626
69 1 2.76437 2.44226 1.5516
70 1 4.05518 2.02465 3.98447
3664 2 2.63232 3.58378 5.29053
77 1 6.70569 2.08738 0.929661
82 1 6.67376 2.08062 3.71661
14518 1 0.699255 2.56733 -0.308355
265 2 11.073 17.772 -0.373113
3866 2 10.991 20.5887 8.20446
3611 1 4.0446 -0.886189 6.58922
3627 2 13.6588 -4.99223 8.09681
7381 2 -0.124813 11.9509 11.002
3692 1 13.5742 4.4972 9.17636
3797 1 6.60163 13.0381 7.03309
3806 2 11.0683 14.9962 8.20211
20 1 6.78119 -0.662619 3.95708
17 1 6.80948 -3.5963 0.95178
19 1 6.82391 -0.787852 1.08596
3685 2 10.8342 0.862345 5.21269
29 2 10.95 -2.1622 1.98941
30 1 12.3911 -0.95479 3.77985
26 2 10.8122 -2.31195 5.3425
21 1 9.39785 -0.779889 0.915373
75 2 8.12434 0.590389 2.39317
3616 2 7.71094 -2.16294 5.35795
24 1 9.79373 -0.848818 3.87223
3571 1 9.60917 -3.69769 1.19346
35 1 12.1877 -0.701505 0.984841
3572 1 12.0246 -3.53072 3.63292
3569 1 12.2877 -3.54094 0.650365
3564 1 9.43027 -3.66241 4.27295
3623 1 9.41653 -0.676789 6.43901
31 1 9.38521 2.12452 3.7808
89 1 12.3072 2.08837 0.959343
90 1 12.2793 1.96473 3.77185
23 1 9.49088 2.1069 1.10462
3676 2 8.06883 3.30835 5.12724
86 2 10.9661 3.58357 2.23832
3629 1 12.1385 -3.79702 6.47017
3681 1 9.5004 2.23604 6.5831
7465 2 11.0175 17.6527 10.9309
3790 1 6.92413 13.2626 9.71209
3857 1 6.87214 18.9409 6.86984
65 1 1.15258 4.99342 1.10881
3733 2 5.3138 6.32619 5.23908
67 1 1.20372 7.84108 0.991503
68 1 1.14284 4.9011 3.89649
123 2 2.53109 6.54943 2.47283
71 1 3.9459 5.20654 1.21293
72 1 3.89438 4.84612 3.8362
130 1 3.94758 7.69984 3.78603
126 1 1.0542 7.92027 3.70782
129 1 4.00513 7.90908 0.800743
62 2 -0.028049 3.57969 2.39702
3858 1 6.85878 19.0129 9.68517
3793 2 5.25046 11.8758 5.39018
125 1 1.22791 10.6649 1.2814
134 2 5.39953 9.05632 2.44467
128 1 1.25095 10.6951 3.97337
183 2 2.72623 12.0879 2.52856
3724 2 2.47077 9.11532 5.19932
131 1 3.96833 10.4237 1.18067
132 1 4.07926 10.3745 4.04314
7321 2 -0.35832 6.46099 10.8996
122 2 -0.221763 9.29653 2.40351
3781 2 -0.206344 12.0186 5.29891
3671 1 3.92319 4.99071 6.75818
17948 1 1.1172 -0.89833 -0.396449
3800 1 6.84668 16.118 9.48226
3731 1 3.89939 10.6181 6.75816
3739 1 6.47724 10.0729 6.66947
179 2 -0.265742 11.9551 -0.0118615
83 1 6.70267 7.69758 0.949892
80 1 6.71729 4.81097 0.8183
78 1 6.73925 4.75797 3.87601
137 1 6.67366 7.53765 3.773
81 1 9.42158 4.94015 0.988012
138 1 9.54316 7.7062 3.72709
3745 2 10.9988 6.32918 5.17169
91 1 12.4576 4.97016 0.969604
92 1 12.3662 4.7982 3.70217
135 2 8.06029 6.27836 2.37524
84 1 9.58352 4.86684 3.77055
142 1 9.68395 7.74422 0.981962
150 1 12.312 7.69558 3.84723
14492 1 12.5427 7.83897 1.11713
3749 1 12.3233 7.85305 6.47873
3691 1 12.3141 4.80819 6.48732
140 1 6.8624 10.5205 3.80668
139 1 7.18999 10.5672 0.91429
3805 2 10.9538 11.9573 5.19933
151 1 12.5432 10.6461 1.09076
146 2 11.0759 9.13434 2.37354
152 1 12.2066 10.5145 3.82608
141 1 9.73919 10.6113 1.00295
3736 2 8.12649 9.07188 4.93673
3743 1 9.56262 10.5905 3.65894
195 2 8.30661 12.1297 2.33169
3801 1 9.1263 10.6216 6.53607
7457 1 6.84459 18.8103 12.4559
182 2 -0.348753 14.9754 2.44105
197 1 5.31911 12.924 1.61319
127 1 1.0407 13.4866 1.11678
186 1 1.25786 13.4607 3.83939
190 1 3.85413 13.442 4.08881
184 2 5.2799 14.5979 -0.138394
194 2 5.41478 14.819 2.90364
3784 2 2.48207 14.7406 5.35224
189 1 3.62583 15.3677 1.37359
3853 2 5.42957 17.5887 5.44478
245 1 1.25231 19.0449 1.05467
246 1 1.13889 19.0237 3.83769
187 1 1.02111 16.3646 1.06056
254 2 5.22232 20.3551 2.58026
188 1 1.16033 16.3143 3.89769
249 1 3.92437 19.003 1.26517
243 2 2.48359 17.6543 2.51323
250 1 3.92894 18.9587 3.97616
3844 2 2.6672 20.3687 5.38193
192 1 3.96449 16.256 3.96472
3849 1 4.13502 19.0505 6.85701
242 2 -0.239728 20.5517 2.57618
3841 2 -0.175686 17.6341 5.36759
3547 1 0.374045 -3.77652 1.2897
244 2 2.39658 20.6515 -0.273877
198 1 6.69132 13.3982 4.30572
144 1 9.82487 13.3377 1.13231
213 1 12.4519 13.4617 1.13055
210 1 12.4655 13.5356 3.72764
202 1 9.57207 13.4761 3.99203
201 1 7.57922 14.3998 1.79288
191 1 6.10427 16.3665 1.03593
258 1 6.60148 18.953 4.04085
257 1 6.74162 19.1158 1.3457
200 1 6.73982 16.2268 4.11581
196 2 8.58334 15.0053 -0.226146
206 2 11.0672 14.9675 2.58616
259 2 8.23364 20.4163 0.169018
3796 2 8.30782 14.77 5.28898
3865 2 10.9869 17.8129 5.46093
269 1 12.4266 18.9668 1.0531
270 1 12.4124 19.1101 4.08106
211 1 12.4276 16.2257 1.02112
266 2 11.1571 20.3985 2.64332
212 1 12.4523 16.3707 3.93271
255 2 8.06474 17.5546 2.51838
262 1 9.54022 19.0483 3.97542
3856 2 8.10725 20.391 5.19839
203 1 9.71602 16.3298 1.19823
204 1 9.61547 16.3222 3.95726
261 1 9.64157 19.1228 1.25579
3869 1 12.4492 19.1954 6.83189
7409 1 12.3362 13.59 12.265
3861 1 9.626 19.0881 6.76421
193 2 5.48718 11.3991 -0.227184
3804 1 9.75998 16.2134 9.60749
3619 1 6.69355 -0.737918 6.90564
3609 1 3.83522 -3.69976 6.67452
3605 1 1.01527 -3.53119 6.80429
3607 1 1.16308 -0.66509 6.75389
7148 1 1.15861 -3.7697 9.49479
7273 2 5.29362 0.662309 10.8872
7205 1 1.03914 -3.62973 12.2865
3606 1 0.878764 -0.677538 9.53066
7207 1 1.12841 -0.804203 12.2903
3614 2 5.28861 -2.20587 8.2785
7209 1 3.87561 -3.53707 12.4363
3663 2 2.43924 0.781083 8.13399
3610 1 3.89873 -3.51989 9.52534
7204 2 2.49772 -2.27296 10.9523
7211 1 4.03869 -0.76072 12.2388
3612 1 3.67037 -0.665796 9.46172
3618 1 6.62492 -3.59247 9.70417
7217 1 6.71656 -3.76835 12.4047
3669 1 3.81856 1.96693 6.65632
3665 1 1.06501 2.19849 6.72315
7265 1 0.993503 1.96731 12.3186
3674 2 5.29336 3.42777 8.04544
3608 1 1.00123 2.1848 9.4614
7269 1 3.80154 2.02665 12.3124
3670 1 3.94057 1.99159 9.42804
7264 2 2.43826 3.4292 10.9843
3678 1 6.71996 2.02736 9.45904
3677 1 6.70294 1.99073 6.60419
4 2 2.3972 1.07398 -0.334475
3802 1 9.71895 13.4492 9.49699
14528 1 3.36192 13.0029 -0.239111
22 1 9.3543 -3.23183 7.04681
7461 1 9.52992 18.8923 12.3759
3721 2 -0.391145 6.21714 5.13928
7219 1 6.89534 -0.649913 12.3644
3617 1 6.62299 -3.50653 6.82339
3620 1 6.59407 -0.845765 9.62041
32 1 11.9597 -0.799449 6.57612
3621 1 9.51255 -3.56555 9.7722
7285 2 10.931 0.674868 10.8078
7229 1 12.3549 -3.89089 12.1748
7231 1 12.392 -0.83006 12.2576
3626 2 10.7918 -2.13607 8.4021
3632 1 12.4169 -0.770834 9.48083
7221 1 9.48485 -3.59374 12.2919
3675 2 8.04998 0.723887 8.03493
3622 1 12.3288 -3.48539 9.25387
7216 2 8.01259 -2.14489 11.0513
7223 1 9.50066 -0.774454 12.4064
3624 1 9.40931 -0.720555 9.47468
7277 1 6.66913 2.04983 12.1173
3689 1 12.2739 2.04025 6.64929
7289 1 12.4764 1.85237 12.3399
3690 1 12.3819 2.0655 9.47237
3686 2 11.0878 3.62184 8.02175
7281 1 9.63288 2.1346 12.3888
3682 1 9.57893 1.96192 9.47654
7276 2 8.07736 3.32686 10.8989
3602 2 -0.248499 -2.03296 8.08539
3722 2 -0.334666 9.11012 7.95602
3729 1 4.0486 7.67879 6.68157
7401 1 9.50596 13.1422 12.1755
15 2 8.07022 -4.94631 2.48549
3725 1 1.14503 7.48228 6.57196
3667 1 1.10791 4.85157 6.61703
3666 1 3.88574 4.76633 9.47723
7333 2 5.15435 6.26298 10.9047
7325 1 1.06752 7.80698 12.3243
7267 1 0.979734 4.96892 12.3506
3668 1 0.998144 7.84237 9.4878
7329 1 3.9203 7.73465 12.2921
3723 2 2.42311 6.28568 7.95885
7271 1 3.75934 4.8204 12.3205
3672 1 3.84434 7.66588 9.56934
7261 1 1.054 5.01564 9.56512
7279 1 6.61284 4.795 12.1752
3727 1 1.19361 10.5648 6.87511
7393 2 5.40764 11.969 10.9179
3726 1 1.13475 10.6885 9.57952
7327 1 1.16693 10.5617 12.4896
3734 2 4.90701 9.16182 8.09449
3783 2 2.52145 12.0274 8.09739
7324 2 2.58774 9.24005 11.0515
7331 1 4.00789 10.504 12.3538
3732 1 3.81605 10.6755 9.55392
3798 2 8.37712 12.2978 8.14148
3810 1 12.4914 13.506 9.50598
3811 1 12.3445 16.3457 6.7764
3679 1 6.74154 4.77167 6.65658
3737 1 6.99435 7.66418 6.55252
7337 1 6.65491 7.55994 12.1741
3683 1 9.43292 4.93462 6.54714
3730 1 6.62843 7.79375 9.2373
3680 1 6.89875 4.68555 9.29176
3741 1 9.54116 7.68798 6.88049
3684 1 9.56636 4.70425 9.51615
7283 1 9.33413 4.98107 12.2592
3742 1 11.4632 6.40321 8.69971
3735 2 8.29407 5.96731 8.14032
7345 2 10.76 6.35077 10.9615
7291 1 12.0937 4.76452 11.8637
7341 1 9.54652 7.80006 12.2963
3738 1 9.3135 7.83781 9.57818
7349 1 12.0748 8.20104 11.2951
7339 1 6.67625 10.485 12.4275
3740 1 6.75805 10.3721 9.52916
3751 1 11.8636 10.5482 6.92846
3744 1 9.33345 10.538 9.29511
7343 1 9.53223 10.5735 12.2002
7336 2 8.18762 9.20566 11.2376
3795 2 8.05074 9.12161 8.01404
7405 2 11.0188 12.0762 10.9115
7351 1 12.3695 10.7862 12.3432
3746 2 11.333 8.88294 8.42537
3752 1 12.1053 10.63 9.61263
3807 2 13.6117 11.8691 7.87228
7441 2 -0.280344 17.6382 10.9205
3842 2 -0.261784 20.4891 8.09736
3785 1 1.16216 13.381 6.70415
3789 1 4.02028 13.329 6.82867
3728 1 1.33232 13.4946 9.4319
7389 1 4.03188 13.4889 12.3573
7385 1 1.24494 13.4343 12.3422
3786 1 4.04225 13.4292 9.51862
3794 2 5.34934 14.801 8.17752
3845 1 1.37056 19.0857 6.72335
3787 1 1.25654 16.2086 6.69539
3791 1 4.00283 16.165 6.72864
7384 2 2.56154 14.8739 10.9776
7391 1 3.91586 16.1902 12.2756
7387 1 1.09008 16.1578 12.2541
3792 1 4.09213 16.2938 9.5003
3843 2 2.68843 17.6227 8.20694
3850 1 3.88737 19.0481 9.73918
7453 2 5.28046 17.5739 11.0282
7444 2 2.5559 20.3558 11.112
7449 1 4.04074 19.0641 12.5019
3846 1 1.12374 18.9877 9.53205
3788 1 1.1885 16.2347 9.57381
3854 2 5.55662 20.4599 8.23637
7445 1 1.03076 19.1287 12.2918
7399 1 6.70523 16.0037 12.2877
3782 2 -0.222439 14.8247 8.11674
3814 1 12.353 13.663 6.72306
3812 1 12.5174 16.392 9.55415
7469 1 12.4378 19.0321 12.4678
7403 1 9.53212 16.0406 12.4002
3809 1 9.65767 13.5487 6.74854
7411 1 12.297 16.2846 12.3761
3799 1 6.82582 16.0411 6.79042
3862 1 9.52318 19.1753 9.58074
7396 2 8.18545 14.6946 10.9736
3803 1 9.65021 16.381 6.82405
3870 1 12.4109 19.0721 9.567
3855 2 8.14757 17.6669 8.33788
7397 1 6.75957 13.2471 12.3663
17952 1 4.99387 -1.80126 -0.242303
3615 2 8.00568 -4.92152 8.07858
3661 2 -0.249595 0.741182 5.26967
3662 2 -0.285795 3.56625 8.10588
87 2 13.6199 0.796332 2.33099
7262 2 -0.37389 3.52447 13.6435
7263 2 2.51956 0.66685 13.6741
7274 2 5.34361 3.57025 13.6258
64 2 2.55467 3.99471 -0.382447
7286 2 11.0201 3.49182 13.6326
121 2 -0.192682 6.34436 -0.3538
7346 2 10.9777 9.13191 13.6503
209 2 10.993 12.0237 -0.339077
10873 2 5.38072 0.735092 16.5816
10805 1 1.19742 -3.64246 17.7722
7206 1 1.26522 -3.5048 15.1164
10807 1 1.14017 -0.686038 17.8972
10814 2 5.38158 -2.24311 19.3498
7208 1 1.13626 -0.699956 15.1057
10809 1 3.9269 -3.51341 17.8111
10863 2 2.56014 0.718935 19.1974
7210 1 3.92061 -3.73909 15.1509
10804 2 2.50651 -2.12475 16.4733
10811 1 4.04095 -0.647501 17.866
7212 1 3.9408 -0.733416 15.1247
10806 1 0.997655 -3.56609 20.5061
11068 2 13.5963 20.4525 16.5073
10817 1 6.70829 -3.67613 17.9571
7220 1 6.71674 -0.820668 15.0618
10865 1 1.16635 2.13077 17.8422
7266 1 1.00681 2.16011 14.9587
10874 2 5.27448 3.48082 19.1988
10869 1 3.97182 2.20406 17.7602
7270 1 3.91538 2.26825 14.8944
10864 2 2.52304 3.51526 16.4129
10866 1 1.16127 2.1482 20.7492
10801 2 -0.35716 -4.93713 16.4359
11070 1 12.4033 19.176 20.9008
7394 2 5.27459 14.8513 13.8861
10861 2 -0.381432 0.757633 16.3692
10810 1 3.82823 -3.73525 20.5599
14522 2 -0.257615 8.79625 24.9338
10870 1 3.97834 1.95887 20.7322
7275 2 8.13543 0.663185 13.7496
14461 2 -0.347399 0.637289 21.9083
10819 1 6.79923 -0.654116 17.9098
7218 1 6.65302 -3.56408 15.2096
10885 2 10.955 0.56224 16.591
10829 1 12.3791 -3.67353 17.8782
7230 1 12.3298 -3.67264 15.1551
10831 1 12.2667 -0.883153 17.9206
10826 2 10.8871 -2.25689 19.3956
7232 1 12.2627 -0.940782 15.0478
10821 1 9.51598 -3.78051 18.0011
10875 2 8.16251 0.646964 19.2312
7222 1 9.48366 -3.67071 15.1111
10816 2 8.07681 -2.32284 16.5656
10823 1 9.46676 -0.97916 17.9575
7224 1 9.44619 -0.902439 15.132
10824 1 9.35639 -0.911482 20.7046
10830 1 12.256 -3.73491 20.6918
124 2 2.4993 9.31651 27.7677
7278 1 6.71441 2.0512 15.0814
10877 1 6.87694 2.08777 17.823
10889 1 12.3515 2.03917 18.0272
7290 1 12.371 1.94829 15.2744
10886 2 10.9626 3.53851 19.2175
10881 1 9.71096 1.95484 18.0277
7282 1 9.5468 1.88588 15.0995
10876 2 8.16041 3.49935 16.4484
10882 1 9.69945 2.11792 20.6666
199 1 7.91982 17.7732 27.5013
14609 1 12.3912 13.4617 23.6135
10818 1 6.5466 -3.74662 20.734
10820 1 6.54065 -0.739925 20.681
10832 1 12.2614 -0.85848 20.8304
10878 1 6.8257 2.07702 20.5924
7226 2 10.8513 -2.19234 13.8146
145 2 11.0189 6.26605 27.7155
7455 2 8.16038 17.5215 13.8351
11004 1 9.59214 16.171 20.9227
14655 2 8.06899 17.2658 25.1055
14598 1 6.86471 15.5383 26.3638
10933 2 5.2754 6.3397 16.5323
10925 1 0.911052 7.64009 17.8964
7326 1 1.00647 7.73551 15.0037
10867 1 0.917867 4.75206 17.7766
7268 1 1.10161 4.90835 15.0537
10929 1 3.79104 7.75386 17.8259
10923 2 2.49495 6.3645 19.2114
10871 1 3.80252 4.93478 17.964
7272 1 3.93706 5.02389 15.12
7330 1 3.95514 7.81137 15.05
10981 2 -0.339886 11.8549 16.6457
7280 1 6.7613 4.88992 15.0305
7334 2 5.33311 9.13889 13.7783
10993 2 5.31625 11.8939 16.6306
10927 1 0.934369 10.3902 18.017
10934 2 5.18441 9.17237 19.3273
7328 1 1.14018 10.6079 15.1715
10983 2 2.50439 11.9079 19.3014
10924 2 2.33628 9.1019 16.4936
10931 1 3.81022 10.648 17.9225
7332 1 4.03699 10.5981 15.2209
7340 1 6.70425 10.6102 15.2518
10868 1 1.15536 5.08681 20.5541
10928 1 1.19619 10.5422 20.676
7406 2 10.9972 14.7974 13.6805
7382 2 -0.196811 14.6351 13.7525
7383 2 2.64741 12.0576 13.8089
7338 1 6.62982 7.61731 14.9564
10937 1 6.73251 7.78441 17.718
10879 1 6.65197 4.88308 17.7225
10945 2 11.0421 6.31204 16.5182
10949 1 12.3272 7.85789 18.0683
10891 1 12.3288 5.06067 18.0026
7292 1 12.2552 4.71698 15.2431
10941 1 9.6234 7.88643 17.8422
10935 2 8.10359 6.40191 19.1864
7342 1 9.43757 7.48462 15.0528
10883 1 9.42505 4.93672 17.9253
7284 1 9.51151 4.7351 15.1023
7350 1 12.3465 7.84803 15.1205
7335 2 8.03836 6.19532 13.7211
10939 1 6.70334 10.4998 17.9606
11005 2 10.9468 12.0907 16.6607
10951 1 12.317 10.7334 17.988
10946 2 11.0459 9.23421 19.3496
7352 1 12.1376 10.6823 15.1821
10995 2 8.06329 11.9945 19.3694
10936 2 8.12109 9.20714 16.3918
10943 1 9.57294 10.6399 17.8828
7344 1 9.37314 10.5163 15.0253
7395 2 8.08118 11.981 13.8088
14612 1 12.4594 16.3337 26.5088
10938 1 6.62007 7.64746 20.7541
10952 1 12.5142 10.5219 20.8971
14596 2 8.14735 14.8914 22.0961
14604 1 9.82469 19.869 26.5959
10985 1 1.25127 13.3261 17.9417
7386 1 1.16924 13.4326 15.2633
10989 1 4.07658 13.3488 18.024
7390 1 3.87148 13.3284 15.1587
10986 1 1.05922 13.3826 20.6722
14602 1 9.66629 13.4815 26.3769
10984 2 2.67947 14.7378 16.5984
10994 2 5.44681 14.934 19.5008
11053 2 5.31912 17.6232 16.566
11045 1 1.17803 19.0872 17.9331
7446 1 1.14162 19.1228 15.1461
10987 1 1.22471 16.1677 17.8672
11054 2 5.27819 20.5282 19.3814
7388 1 1.03303 16.3271 14.9779
11049 1 3.83542 19.0154 18.0297
11043 2 2.506 17.6486 19.2782
7450 1 3.92626 18.9313 15.1252
11044 2 2.56857 20.4456 16.5146
10991 1 3.98835 16.2844 17.8249
7392 1 3.87133 16.2763 15.0263
11050 1 3.96764 19.0477 20.6983
10988 1 1.02396 16.098 20.7307
7443 2 2.40207 17.605 13.6735
10990 1 3.79942 13.406 20.8
10982 2 -0.196062 14.7949 19.275
11041 2 -0.32822 17.5004 16.5272
14611 1 12.3946 16.1844 23.6175
14662 1 12.6006 19.0531 26.2881
14669 1 12.5182 19.0246 23.6406
5 2 2.86935 -2.38935 27.5386
7398 1 6.81815 13.4881 15.2735
10997 1 6.77221 13.3163 17.9965
11009 1 12.4205 13.4159 17.8002
7410 1 12.3209 13.5232 15.1279
11001 1 9.43135 13.5798 18.0089
7402 1 9.56473 13.2369 15.165
11057 1 6.62732 19.0705 17.9562
7458 1 6.74379 18.9625 15.2363
10999 1 6.81062 16.2248 17.9986
7400 1 6.59257 16.2131 15.158
11000 1 6.73131 16.4535 20.7766
11006 2 10.9671 14.8373 19.4957
11065 2 10.9469 17.501 16.5896
11069 1 12.2435 19.0696 18.1424
7470 1 12.1849 18.8587 15.3353
11011 1 12.4679 16.2001 18.0361
11066 2 10.9437 20.5034 19.3091
7412 1 12.4737 16.2818 15.152
11061 1 9.45522 19.1677 18.0161
11055 2 8.06631 17.8019 19.2547
7462 1 9.48708 18.9512 15.2096
10996 2 8.16956 14.9552 16.5076
11056 2 8.14187 20.5706 16.4578
11003 1 9.64638 16.3416 17.8735
7404 1 9.60012 16.0888 15.1426
52 2 -0.215629 -2.68224 27.5205
10998 1 6.52089 13.3362 20.7587
11002 1 9.44583 13.4266 20.685
10922 2 -0.363711 9.11954 19.5151
14665 2 11.0088 17.7618 22.263
10862 2 -0.236654 3.50006 19.2589
14402 2 -0.287368 -2.16429 24.3942
11 1 4.46938 2.50295 27.5681
10808 1 0.924654 -0.789315 20.506
10812 1 3.83902 -0.831087 20.5761
14473 2 5.29461 0.616911 22.3093
14405 1 0.979988 -3.61957 23.3474
14407 1 1.06599 -0.83452 23.0538
14414 2 5.18656 -2.19138 24.818
14409 1 3.87155 -3.75744 23.4624
14463 2 2.29712 0.544043 24.5295
14410 1 1.66297 -2.24244 25.5429
14404 2 2.39945 -2.28786 21.8387
14411 1 3.86765 -0.945535 23.4154
14412 1 3.57025 -0.242203 26.4372
17960 1 4.05797 -3.7068 26.1363
14408 1 0.392567 0.560268 25.7011
14462 2 -0.182194 3.23159 25.0789
7 1 2.18915 2.42912 25.8623
14465 1 0.972076 2.14646 23.341
14474 2 5.40271 3.45357 24.9345
14469 1 4.01588 1.88944 23.7699
14464 2 2.53567 3.43853 22.1283
14599 1 6.77435 16.3569 23.396
14641 2 -0.395116 17.7158 22.155
14657 1 6.82847 19.8898 23.5223
10890 1 12.4317 1.96647 20.792
7466 2 10.8937 20.4707 13.8358
14420 1 6.64975 -0.724281 26.1413
14419 1 6.57797 -0.723489 23.3729
10822 1 9.37576 -3.69031 20.9286
14417 1 6.75374 -3.55489 23.4259
14418 1 6.83664 -3.62449 26.3197
14485 2 10.9739 0.76797 22.0967
14429 1 12.2717 -3.68219 23.2938
14431 1 12.3701 -0.72637 23.5192
14426 2 10.8977 -2.20601 24.7821
14432 1 12.3079 -0.936258 26.2903
14421 1 9.46441 -3.48338 23.7121
14475 2 8.16725 0.615341 24.8203
14422 1 9.51638 -3.5058 26.3449
14416 2 8.0705 -2.27712 22.0568
14423 1 9.57955 -0.702921 23.4352
14424 1 9.4634 -0.657674 26.3933
14430 1 12.1023 -3.80967 26.1408
14478 1 6.72486 1.91242 26.2337
14477 1 6.87326 2.10112 23.4635
14489 1 12.3432 2.1687 23.5143
14490 1 12.2752 1.89682 26.5277
14481 1 9.62246 2.18363 23.586
14482 1 9.41874 2.16059 26.3397
14476 2 8.16678 3.49366 22.0329
76 2 10.9864 3.47535 24.9429
14581 2 -0.22113 12.0141 21.8736
10930 1 3.90362 7.591 20.728
11010 1 12.3831 13.4043 20.7476
10872 1 3.85119 4.82583 20.6149
10926 1 1.13192 7.73338 20.6846
10880 1 6.61043 4.90191 20.4997
14466 1 1.20189 5.10293 26.4305
14470 1 4.00497 4.85897 26.4537
14533 2 5.28682 6.21108 22.0734
14525 1 1.06462 7.51734 23.5699
14467 1 1.1356 4.98222 23.3714
14529 1 3.96056 7.66818 23.5125
14523 2 2.58653 6.22935 24.9366
14471 1 3.81268 4.78143 23.5421
14472 1 1.38386 7.94285 26.3287
14530 1 4.11537 7.64835 26.0835
14479 1 6.66685 4.92877 23.3268
14527 1 0.429671 10.4729 23.5876
10932 1 3.94831 10.5847 20.6687
14593 2 5.33177 12.0259 22.1587
14526 1 1.29415 11.1906 26.2081
14534 2 5.44507 9.07794 24.9292
14524 2 2.50677 9.08469 22.1287
14531 1 3.74804 10.5765 23.476
14532 1 4.02165 10.4221 26.4236
14583 2 3.10978 12.2874 25.1957
256 2 8.10982 20.9208 25.0756
17946 1 1.45511 -4.23664 27.2121
10950 1 12.323 7.79777 20.7338
10892 1 12.3156 4.81573 20.7471
10944 1 9.69947 10.6535 20.8834
14537 1 7.04831 7.79927 23.5611
10942 1 9.49643 7.80785 20.6572
14538 1 6.95712 7.75683 26.2864
14480 1 6.61604 4.96699 26.104
10884 1 9.42945 4.83125 20.6785
14542 1 9.61733 7.60575 26.3699
14486 1 12.471 4.79969 26.3538
14484 1 9.62376 4.85724 26.42
14483 1 9.48329 4.78699 23.5384
14535 2 8.26629 6.3254 24.8639
14545 2 11.0296 6.32187 21.9247
14549 1 12.4087 7.74525 23.5174
14550 1 12.4092 7.68441 26.3636
14491 1 12.4064 5.08478 23.5763
14541 1 9.69252 7.71521 23.4472
14539 1 6.70287 10.7872 23.656
10940 1 6.806 10.422 20.7502
14544 1 6.90684 10.6077 26.3102
14543 1 9.56774 10.6555 23.5515
14536 2 8.27534 9.20196 22.2283
14595 2 8.10514 12.1335 25.1194
14605 2 11.0632 11.9765 22.2634
14551 1 12.4729 10.5403 23.8096
14546 2 10.9015 9.10003 24.9886
14552 1 12.3069 10.4685 26.4979
149 1 9.60236 10.5802 26.3871
14658 1 9.52125 18.9295 24.1864
14521 2 -0.271454 6.22901 22.1062
73 2 5.63671 0.536781 27.7528
85 2 10.8857 0.749207 27.7146
10992 1 3.8883 16.287 20.677
11046 1 1.08797 19.0603 20.7833
14638 1 0.266501 13.692 26.6436
11042 2 -0.340514 20.5174 19.2707
14582 2 -0.284334 15.371 24.883
14586 1 1.31881 12.9699 23.7565
14540 1 5.10572 13.0173 25.9678
14589 1 4.03881 13.4515 23.3044
14590 1 2.92415 14.7061 25.5313
14584 2 2.42933 14.8829 22.2732
253 2 5.51586 18.0714 27.6606
14643 2 2.6076 17.8229 25.0222
14650 1 3.71911 19.2551 26.5086
14653 2 5.31701 17.847 22.1562
14645 1 1.09105 19.113 23.5133
14654 2 4.92765 20.5705 24.9411
14588 1 1.07189 16.5476 26.294
251 1 6.61869 20.0167 26.5791
14592 1 4.03157 16.39 27.1832
14594 2 5.20546 15.0571 24.7454
14587 1 1.31998 16.4076 23.5554
14600 1 5.74052 17.942 25.331
14591 1 4.04705 16.3864 23.3702
14644 2 2.34004 20.4732 22.1494
14649 1 3.98469 19.1772 23.546
14646 1 0.87947 19.3801 26.4335
11058 1 6.81901 19.1718 20.5633
185 2 2.06854 15.0059 27.7434
14606 1 9.84109 16.2271 26.3215
14666 2 11.3702 20.5192 24.9584
11062 1 9.56227 19.1234 20.74
14603 1 9.69603 16.34 23.5865
11012 1 12.4794 16.2924 20.8826
205 2 11.0432 14.8284 24.9343
14656 2 8.18161 20.6385 21.738
14610 1 12.4173 13.2434 26.3935
14601 1 9.67246 13.584 23.5626
14597 1 6.98704 13.623 23.6592
79 2 7.97212 3.45886 27.6625
16 2 8.01036 -2.27676 27.6719
143 1 7.0723 13.169 27.6429
241 2 -0.37433 17.8794 27.7345
7323 2 2.44845 6.32723 13.7348
136 2 8.33596 9.09819 27.6628
7202 2 -0.252338 -2.13931 13.7609
7442 2 -0.270987 20.4542 13.8121
7454 2 5.34644 20.4877 13.8577
133 2 5.40695 6.35481 27.713
7214 2 5.2567 -2.28128 13.8434
3913 2 5.35045 23.2622 5.51567
305 1 1.17001 24.5792 0.911049
306 1 1.10369 24.7642 3.91925
247 1 4.03334 21.8827 0.984411
314 2 5.42258 25.9032 2.68488
248 1 1.23233 22.0556 4.07287
309 1 4.3688 24.5316 0.948541
303 2 2.53352 23.4164 2.58
310 1 4.05236 24.5689 4.00611
3904 2 2.58174 25.9203 5.37771
252 1 3.87928 21.7281 3.84761
299 1 1.21817 21.8844 1.26585
311 1 2.72456 26.1 2.3205
308 1 1.21576 27.5924 4.0894
312 1 4.23021 27.5521 4.12711
304 2 2.80882 25.7242 -0.183562
3911 1 3.95007 27.3059 6.85915
319 1 8.17328 28.8355 -0.259571
14720 1 4.04086 27.5655 0.739783
14708 1 1.16647 27.8032 1.00027
3973 2 5.58861 28.9767 5.37995
363 2 2.73091 28.6557 2.89272
364 2 2.50108 32.1143 -0.366388
3907 1 1.3135 27.5264 6.83878
3851 1 4.01311 21.7517 6.79201
3847 1 1.11939 21.806 6.7452
3901 2 -0.276616 23.3554 5.36964
318 1 6.92506 24.5315 3.99973
370 1 6.6926 27.4077 1.32637
14718 1 6.70017 21.8549 1.19311
260 1 6.61417 21.8633 4.09539
317 1 6.93112 24.689 1.00745
3925 2 10.9902 23.2622 5.27731
329 1 12.451 24.4788 0.955416
330 1 12.4484 24.7195 3.77833
271 1 12.5149 21.7371 1.17417
326 2 11.1771 26.0814 2.46097
272 1 12.46 21.8784 4.11954
321 1 9.53713 24.7412 1.13898
315 2 8.24554 23.1623 2.46289
322 1 9.75386 24.8022 3.97674
3916 2 8.23577 26.0515 5.31678
263 1 9.65356 21.9703 1.11902
264 1 9.49466 21.7017 3.86629
323 1 9.78471 27.5662 1.30598
324 1 9.71044 27.4638 4.18534
332 1 12.4446 27.5679 4.03908
3863 1 9.60472 21.9371 6.68482
320 1 6.91038 27.4248 3.99495
331 1 12.4082 27.5038 1.01704
3985 2 10.899 28.9778 5.44575
375 2 8.12914 28.8677 2.4945
3929 1 12.4196 24.6863 6.59922
3931 1 12.3163 27.5274 6.84263
4155 2 7.99851 46.0226 7.98026
7701 1 9.52977 41.8438 12.1414
302 2 0.00150445 26.2865 2.38592
316 2 8.1496 26.3519 -0.261971
362 2 -0.232435 31.8092 2.54269
307 1 1.17082 30.5318 0.764396
369 1 3.8973 30.2262 1.09383
426 1 1.25774 33.0282 3.93218
367 1 1.13241 33.3275 1.14517
374 2 5.34558 31.7901 2.61426
368 1 3.95246 30.3857 3.96609
3964 2 2.55784 31.7787 5.34379
371 1 3.98884 33.3131 1.13389
372 1 4.02204 33.2103 4.12942
3967 1 1.11367 30.338 3.82906
377 1 6.65342 30.4398 1.235
4025 1 1.15959 33.0616 6.73
445 2 10.8207 34.6876 -0.325832
4033 2 5.44897 34.6196 5.32904
425 1 1.10542 36.0136 1.16172
434 2 5.21924 37.5482 2.56381
429 1 3.94335 36.1651 1.1673
423 2 2.65718 34.6245 2.56391
430 1 4.07005 36.0825 3.94156
4024 2 2.52208 37.3882 5.38887
428 1 1.24532 35.9368 4.04259
438 1 6.86451 35.9411 3.7821
539 2 -0.405993 43.0154 2.5494
3962 2 -0.278973 31.8066 7.99442
433 2 5.4074 34.6664 -0.159926
422 2 -0.344262 37.3296 2.46424
484 2 2.61637 43.0549 -0.315699
378 1 6.84005 30.2384 3.95132
379 1 6.69021 33.1827 1.17023
380 1 6.90466 33.18 3.90781
390 1 12.4263 30.2007 1.1265
391 1 12.3798 33.2685 1.09948
386 2 10.9787 31.8405 2.42541
392 1 12.5239 33.1987 3.85259
381 1 9.60177 30.499 1.13991
382 1 9.44524 30.3735 3.89459
3976 2 8.22751 31.7923 5.33481
383 1 9.52361 33.1318 1.08608
384 1 9.64185 33.1821 3.77136
3989 1 12.3424 30.4931 4.0202
3983 1 9.70698 33.271 6.7163
3991 1 12.3714 33.3067 6.67739
437 1 6.83767 36.0234 1.09267
4045 2 10.9608 34.6675 5.35822
449 1 12.5653 35.9896 1.10702
450 1 12.4395 36.0581 3.98019
446 2 10.9319 37.4714 2.55625
441 1 9.56112 36.0146 1.14175
435 2 8.22286 34.6434 2.47293
442 1 9.62531 36.1319 3.98597
4036 2 8.19444 37.5092 5.40131
4041 1 9.47867 36.0696 6.69754
4049 1 12.3321 36.0146 6.67795
385 2 10.5242 28.9204 -0.315256
376 2 8.19898 31.8772 -0.387014
566 2 10.9451 45.8094 -0.269476
427 1 1.20895 38.8369 1.02069
486 1 0.906832 38.635 3.98708
431 1 3.88273 38.9941 1.14491
432 1 3.75026 38.8604 4.14913
483 2 2.40951 40.2356 2.57566
4093 2 5.17013 40.3174 5.38402
439 1 6.58422 38.8634 1.2741
3961 2 -0.283312 29.046 5.28702
3902 2 -0.15864 26.1646 8.1097
4153 2 5.02163 45.8311 5.18518
485 1 0.973878 41.6404 1.23501
487 1 1.07156 44.4638 1.22257
494 2 5.34248 42.944 2.4518
488 1 0.918084 44.5123 3.87087
489 1 3.93105 41.598 1.24482
543 2 2.43578 45.8578 2.46311
490 1 4.09989 41.7683 4.06546
491 1 3.89505 44.4276 0.950199
492 1 3.83723 44.4386 3.8432
482 2 2.38309 43.0874 5.31616
538 1 1.13085 41.4934 3.91849
4089 1 3.81505 41.6795 6.833
499 1 6.84883 44.4698 1.19803
4099 1 6.51512 44.5621 6.74014
4087 1 0.988823 44.5647 6.75702
4097 1 6.679 41.8304 6.8242
4112 2 10.9943 42.9899 10.7835
7709 1 12.2951 41.8168 12.2437
505 2 11.0741 40.2387 -0.373584
493 2 5.26078 40.3114 -0.274018
436 2 8.0308 37.5751 -0.207004
7705 2 10.9421 39.8711 10.9888
440 1 6.6349 38.8165 3.9414
7703 1 9.60823 44.5359 12.2376
509 1 12.4177 38.7387 1.02684
452 1 12.2008 38.8044 3.98616
443 1 9.55332 38.7879 1.05446
444 1 9.56544 38.8245 3.87868
4105 2 10.862 40.2656 5.19084
495 2 8.10322 40.2429 2.49924
500 1 6.58646 44.441 3.91081
497 1 6.74979 41.768 1.11258
498 1 6.77098 41.5764 4.15384
4165 2 10.9055 45.9655 5.25219
510 1 12.4441 41.6432 3.68284
511 1 12.2971 41.5836 1.09956
506 2 10.8541 43.0339 2.47569
501 1 9.55261 41.5159 1.11592
555 2 8.11651 45.8021 2.45668
502 1 9.53468 41.7563 3.8282
4096 2 7.91387 43.1027 5.28662
503 1 9.53301 44.4598 0.967577
504 1 9.4561 44.3641 4.01256
565 1 12.1753 44.4635 3.95794
569 1 12.2307 44.4983 1.10445
4103 1 9.47062 44.6181 6.85094
4109 1 12.3606 41.6656 6.52798
496 2 8.18081 42.9997 -0.328229
4101 1 9.53274 41.7623 6.52114
3909 1 3.8714 24.5727 6.86431
3905 1 1.10588 24.5976 6.74112
7513 2 5.23827 23.1808 10.9926
7505 1 1.11931 24.8044 12.5335
3906 1 1.17386 24.6869 9.65212
7447 1 1.08193 21.8333 12.5093
3914 2 5.45189 26.1488 8.1577
3860 1 3.95198 21.822 9.49081
7509 1 3.69984 24.6725 12.4231
3903 2 2.59479 23.1345 8.10336
3910 1 3.87433 24.6974 9.61833
7504 2 2.58252 26.1918 10.8768
7451 1 3.77119 22.0376 12.3683
3852 1 1.21614 21.716 9.67905
7501 2 0.150184 23.3657 11.1101
7517 1 6.38718 24.8749 12.3181
7459 1 6.53304 21.6709 12.2385
7507 1 1.09297 27.5391 12.3616
3908 1 1.06061 27.6361 9.55257
3912 1 4.0438 27.4384 9.4717
7519 1 6.79774 27.6148 12.198
7511 1 3.98112 27.708 12.2394
7573 2 5.38559 29.0533 10.9497
3963 2 2.552 28.9376 8.07562
7643 1 9.46667 39.0917 12.5009
4022 2 -0.327626 37.408 8.25622
4052 1 12.3153 38.8738 9.55904
3921 1 9.59594 24.7427 6.65044
3871 1 12.2774 21.9125 6.84065
3917 1 6.58412 24.6751 6.7525
3918 1 6.60423 24.7752 9.59846
3864 1 6.71936 22.0047 9.52758
3919 1 6.81675 27.5591 6.59109
3859 1 6.88947 21.8082 6.84766
7525 2 10.8742 23.3262 10.9393
7529 1 12.2979 24.5619 12.4809
3930 1 12.4293 24.7203 9.52992
7471 1 12.6375 21.8657 12.3016
3926 2 10.9786 26.0354 7.98413
3872 1 12.3771 21.9994 9.63154
7521 1 9.70069 24.7645 12.1387
3915 2 8.25482 23.2789 8.06874
3922 1 9.39728 25.2412 9.30324
7516 2 7.96267 25.914 11.0694
7463 1 9.65785 22.1632 9.43434
7515 1 9.8578 21.6301 12.0747
3923 1 9.55435 27.6164 7.05351
7531 1 12.3115 27.4438 12.4122
7523 1 9.44905 27.6092 12.1407
3920 1 7.14521 27.5607 9.40638
3924 1 12.0064 27.4995 9.60244
4044 1 9.45598 38.7337 9.56485
7585 2 10.9833 28.9589 11.1876
3975 2 8.12936 29.2626 8.0804
4102 1 9.76451 41.6171 9.49091
7651 1 12.3844 38.9012 12.4416
3965 1 1.02804 30.4024 6.53675
3969 1 3.92365 30.3437 6.69265
3979 1 6.90172 33.1427 6.69027
7621 2 -0.169054 34.7576 10.9885
4029 1 4.15651 35.9392 6.89241
3971 1 4.03088 33.1078 6.76187
3977 1 6.78271 30.458 6.75164
7565 1 1.18581 30.273 12.0199
7567 1 1.0563 33.2171 9.36338
7579 1 6.07381 33.0637 12.1502
3974 2 5.40363 31.8168 8.13004
3968 1 0.998276 30.4314 9.26182
7569 1 3.91602 30.6107 12.3655
3970 1 3.91313 30.1514 9.61532
7564 2 2.2649 31.766 10.8082
7571 1 1.78099 33.505 12.0096
3972 1 3.7817 33.1228 9.61232
3980 1 6.60329 33.3555 9.51798
7577 1 6.78904 30.3713 12.3311
4027 1 1.21414 35.9316 6.74252
7633 2 5.29083 34.6946 10.8562
7625 1 1.08905 36.1869 12.3936
4026 1 1.12572 36.0607 9.63552
4034 2 5.24077 37.4734 8.17774
7629 1 3.74582 35.9257 12.341
4023 2 2.49992 34.6541 8.21166
4030 1 3.9452 36.1808 9.60385
7624 2 2.41694 37.5221 10.9798
7637 1 6.48281 36.2109 12.2126
424 2 2.52838 37.4154 -0.218442
3990 1 12.5142 30.3592 6.85643
3981 1 9.66179 30.4539 6.64823
4037 1 6.84328 36.0258 6.69476
3978 1 6.75205 30.5247 9.49006
3982 1 9.59866 29.9652 9.49719