ITEM: TIMESTEP
50000
ITEM: NUMBER OF ATOMS
18000
ITEM: BOX BOUNDS pp pp pp
-4.1749983767894810e-01 2.7757499837678978e+01
-4.8994423624118486e+00 3.3297944236240960e+02
-4.0959289851757585e-01 2.7749592898517228e+01
ITEM: ATOMS id type x y z
3673 2 5.20289 0.818301 5.25264
6 1 2.1461 -1.78468 2.15911
14 2 4.93424 -2.19602 2.31471
8 1 0.993949 -0.554375 4.27809
9 1 3.84615 -0.0361196 1.04075
63 2 2.34021 0.604846 2.88899
10 1 3.79451 -3.62538 3.84465
3604 2 2.42825 -2.19484 5.20401
12 1 3.78306 -0.749466 3.93535
3551 1 3.83184 -3.73161 0.999118
3548 1 0.817824 -3.5417 4.04645
14406 1 0.445941 0.590013 1.69107
3855 2 8.07016 17.6978 8.12319
7213 2 5.17526 -4.95067 10.8878
17 1 6.5732 -3.75081 0.954883
18 1 6.60681 -3.54006 3.79901
3619 1 6.57748 -0.713815 6.82837
184 2 5.38635 14.5332 -0.317963
62 2 -0.374192 3.32516 2.22407
3547 1 0.183563 -3.94828 1.34686
20 1 6.62604 -0.626616 4.12939
19 1 6.92462 -0.728584 1.32387
3685 2 10.7029 1.17549 5.20399
29 2 10.8924 -1.9363 2.0183
30 1 12.3283 -0.724167 3.90119
26 2 10.8741 -2.0229 5.31877
21 1 9.50793 -0.508011 0.991109
75 2 8.01736 0.691593 2.66233
3616 2 7.60691 -2.24977 5.40653
24 1 9.84656 -0.755114 3.92627
3571 1 9.37099 -3.42557 1.16157
35 1 12.1786 -0.364409 1.12759
3572 1 11.9645 -3.30884 3.76578
3569 1 12.281 -3.49807 0.871552
3564 1 9.38462 -3.37145 4.14348
32 1 11.9975 -0.810739 6.82547
3623 1 9.42507 -0.699579 6.50165
3629 1 11.9081 -3.48499 6.59154
22 1 9.30584 -3.34998 6.79016
87 2 13.6284 0.893712 2.38719
66 1 0.94763 2.37732 4.03469
74 2 5.03612 3.48037 2.42099
69 1 2.66785 2.54698 1.53484
70 1 3.8604 2.05735 3.90824
3664 2 2.37377 3.63733 5.18892
65 1 1.04793 5.05348 0.995353
3733 2 5.12392 6.44966 5.30982
67 1 0.9638 7.82626 1.06865
68 1 0.990677 5.04752 3.74908
123 2 2.41586 6.48868 2.44383
71 1 3.9023 5.21149 1.17214
72 1 3.86223 5.02826 3.82696
130 1 3.85269 7.92127 3.97721
126 1 0.993043 7.83719 3.90848
129 1 3.62006 8.0095 1.02017
137 1 6.68997 7.78813 3.78952
82 1 6.59435 2.26122 3.80826
83 1 6.64564 7.73681 0.931192
78 1 6.49991 5.03474 3.94834
3669 1 3.81204 2.23152 6.58666
3667 1 1.04369 4.94947 6.66712
80 1 6.46631 4.87333 1.19189
265 2 11.0447 17.8407 -0.32755
3615 2 7.92761 -5.00848 7.98937
3862 1 9.44354 18.9877 9.34906
77 1 6.60259 1.97222 1.12351
3677 1 6.79674 2.13863 6.65766
31 1 9.25932 2.29681 3.83451
89 1 12.2095 2.27044 0.996829
90 1 12.1441 2.20278 3.74298
23 1 9.43543 2.36705 0.972844
3676 2 7.96857 3.74659 5.35393
86 2 10.9049 3.60718 2.41786
81 1 9.37038 5.00857 1.02989
138 1 9.44806 7.82121 3.84448
3745 2 10.8947 6.43592 5.11167
91 1 12.2369 5.14835 1.1154
92 1 12.2371 4.95967 3.81937
135 2 7.90469 6.34627 2.38974
84 1 9.41617 4.92309 3.9821
142 1 9.33721 7.85078 1.08449
150 1 12.1552 7.82002 3.92387
14492 1 12.1058 7.81058 1.02733
3749 1 12.2929 7.67965 6.56628
3691 1 12.2868 4.89216 6.57424
3683 1 9.57767 5.07023 6.72721
3679 1 6.59723 5.01804 6.6664
3689 1 12.2099 2.21786 6.54335
3781 2 -0.312526 12.1206 5.37961
3793 2 5.17579 12.0393 5.36911
125 1 1.03984 10.5847 1.15377
134 2 5.16955 9.25408 2.55931
128 1 1.05659 10.7813 3.91122
183 2 2.61851 12.0227 2.47578
3724 2 2.39554 9.28562 5.33683
131 1 3.88357 10.5452 1.22103
132 1 3.93553 10.604 3.93964
140 1 6.58281 10.7466 3.75015
197 1 5.00329 13.0568 1.44556
127 1 1.0265 13.3627 1.22895
186 1 1.00006 13.5236 4.0389
190 1 3.66801 13.5685 4.00997
198 1 6.55868 13.5645 4.26118
3785 1 0.994037 13.3959 6.72566
3739 1 6.44847 10.5327 6.81283
7403 1 9.42465 16.2535 12.429
7441 2 -0.392544 17.5869 11.0529
3782 2 -0.485108 14.8789 8.13468
139 1 6.88923 10.4183 1.13567
3805 2 11.019 12.052 4.92695
151 1 12.3712 10.6353 1.02656
146 2 10.9042 9.22942 2.45469
152 1 12.3014 10.6088 3.68602
141 1 9.54517 10.7183 1.03271
3736 2 7.96106 9.41358 4.88747
3743 1 9.36287 10.7025 3.89404
195 2 8.03185 12.1248 2.36037
144 1 9.93032 13.4623 0.983118
213 1 12.4879 13.618 0.876967
210 1 12.4282 13.669 3.71589
202 1 9.71869 13.4612 3.7945
3751 1 11.8663 10.55 6.48102
3809 1 9.33817 13.4997 6.65523
3841 2 -0.342465 17.6227 5.37637
143 1 7.10358 12.9638 -0.45458
194 2 5.32887 14.928 2.88322
2 2 -0.150164 -1.83522 2.66828
3784 2 2.356 14.8911 5.39319
189 1 3.68787 15.5249 1.39186
3853 2 5.30187 17.6663 5.38397
245 1 1.1741 19.0833 1.09689
246 1 0.90494 19.0413 4.00796
187 1 1.05252 16.2498 1.10502
254 2 5.18323 20.516 2.49536
188 1 0.951445 16.2371 4.09724
249 1 3.8795 18.8724 1.14508
243 2 2.38743 17.5037 2.52706
250 1 3.60213 18.9765 3.92494
3844 2 2.38095 20.4674 5.4175
191 1 6.33059 16.3849 0.758573
192 1 3.73249 16.3012 3.91548
200 1 6.6077 16.4423 3.85709
257 1 6.62713 19.0709 1.32419
3849 1 3.8101 19.0467 6.68249
3799 1 6.70975 16.2021 6.64057
7411 1 12.3458 16.2134 12.2327
258 1 6.60028 18.9933 3.97454
201 1 7.32387 14.3547 1.85669
17948 1 1.04391 -0.937665 -0.120373
206 2 11.1001 14.9752 2.4252
259 2 8.07094 20.3998 0.155807
3796 2 8.23139 14.9644 5.39727
3865 2 10.8787 17.6343 5.31622
269 1 12.4314 19.0501 1.13708
270 1 12.291 19.1021 3.94563
211 1 12.3811 16.1921 1.00386
266 2 10.9512 20.4926 2.52704
212 1 12.2817 16.2718 3.76313
255 2 8.06003 17.6065 2.5104
262 1 9.4247 19.2171 3.82354
3856 2 8.07547 20.5156 5.23464
203 1 9.56887 16.3138 1.16401
204 1 9.4709 16.3399 3.97734
261 1 9.63317 19.1507 1.17824
196 2 8.57612 14.9299 -0.377676
244 2 2.35542 20.417 -0.282491
3605 1 0.986134 -3.66751 6.68942
3609 1 3.7391 -3.56294 6.61941
3617 1 6.41285 -3.67933 6.62356
14518 1 0.436863 2.73953 -0.0841836
3607 1 0.993661 -0.863328 6.81655
3611 1 3.681 -0.71278 6.59757
7148 1 0.953142 -3.41853 9.69603
7273 2 5.3681 0.722457 10.899
7205 1 0.921874 -3.50744 12.3122
3606 1 1.07365 -0.673796 9.5635
7207 1 1.23215 -0.537653 12.2501
3614 2 5.06625 -2.05639 7.96564
7209 1 3.80028 -3.63398 12.2639
3663 2 2.34455 0.73336 8.03299
3610 1 3.87618 -3.5503 9.4212
7204 2 2.34547 -2.0701 10.8975
7211 1 3.97152 -0.624694 12.2995
3612 1 3.93976 -0.641238 9.54532
7217 1 6.48815 -3.42923 12.3906
7348 2 13.5492 9.44226 10.7375
7465 2 10.8947 17.6107 10.9756
7219 1 6.74498 -0.612424 12.2204
3618 1 6.63963 -3.52639 9.48573
3620 1 6.57957 -0.616814 9.45496
3621 1 9.32056 -3.31957 9.64762
7285 2 11.0237 0.747582 10.9116
7229 1 12.1563 -3.66229 12.3651
7231 1 12.2965 -0.862419 12.3194
3626 2 10.8384 -2.10932 8.398
3632 1 12.3729 -0.850896 9.61358
7221 1 9.39213 -3.77598 12.3166
3675 2 8.03057 0.796389 8.15081
3622 1 12.1811 -3.58033 9.62015
7216 2 7.87616 -2.15927 10.942
7223 1 9.48131 -0.808237 12.1913
3624 1 9.47078 -0.625404 9.37453
3804 1 9.46992 16.349 9.52239
7456 2 8.1008 20.5734 10.8347
7457 1 6.78448 19.2112 12.3241
3725 1 0.917216 7.69067 6.81659
3671 1 3.74001 4.7847 6.73073
3665 1 0.990532 2.16263 6.64809
3729 1 3.64471 7.93609 6.69168
7265 1 1.2743 2.17334 12.2092
3674 2 5.16308 3.43144 8.13363
3608 1 1.02253 2.20156 9.37336
7269 1 3.9924 2.01744 12.3137
3670 1 3.79094 2.11577 9.39375
7264 2 2.57567 3.4071 10.8623
3666 1 3.88092 4.89395 9.50837
7333 2 5.19407 6.31747 10.7984
7325 1 1.06257 7.7517 12.303
7267 1 1.06403 4.99981 12.2624
3668 1 1.08464 7.77908 9.59465
7329 1 3.79297 7.74959 12.226
3723 2 2.43053 6.32196 8.2522
7271 1 4.00296 4.78749 12.3243
3672 1 3.80753 7.81795 9.37827
7261 1 1.14766 4.86857 9.46993
7337 1 6.64244 7.90374 12.2958
3680 1 6.67748 5.05844 9.53513
3730 1 6.58473 7.79979 9.40813
3812 1 12.2842 16.3908 9.36652
7469 1 12.3745 19.0444 12.3818
3869 1 12.2982 19.1121 6.76553
3721 2 -0.329726 6.37031 5.31575
3737 1 6.58692 7.98158 6.67391
3681 1 9.37505 2.40177 6.70878
7277 1 6.80812 2.1553 12.2204
3678 1 6.73498 2.27939 9.42367
7279 1 6.74104 5.09949 12.264
7289 1 12.4624 2.067 12.1616
3690 1 12.3981 2.02649 9.41529
3686 2 10.9662 3.6699 8.14034
7281 1 9.60788 2.18934 12.2769
3682 1 9.6644 2.1538 9.49933
7276 2 8.26517 3.55495 11.0305
3741 1 9.30292 7.84474 6.84507
3692 1 12.3333 4.97176 9.39853
3684 1 9.42267 5.02401 9.64971
7283 1 9.39952 4.98002 12.445
3742 1 12.2835 7.61254 9.40647
3735 2 8.20431 6.10656 8.11279
7345 2 10.9304 6.38984 10.9648
7291 1 12.0682 4.70352 12.0032
7341 1 9.40682 7.68485 12.2712
3738 1 9.26149 8.08 9.42221
7349 1 12.1386 8.13059 11.9829
7399 1 6.63859 16.3528 12.3015
3866 2 10.8878 20.3791 8.05638
3870 1 12.4093 19.1283 9.60514
3789 1 3.8097 13.5104 6.72895
3731 1 3.8475 10.6294 6.61431
3727 1 0.930467 10.488 6.71475
7393 2 5.22322 11.9706 10.9717
3726 1 0.984384 10.6282 9.50162
7327 1 0.929125 10.635 12.3342
3734 2 4.84132 9.345 8.05966
3783 2 2.41577 12.0879 8.18938
7324 2 2.40954 9.22338 10.946
7331 1 3.98696 10.5485 12.2847
3732 1 3.81622 10.7227 9.49436
7339 1 6.72522 10.7315 12.3741
3797 1 6.58952 13.3785 6.91526
3728 1 0.933325 13.4989 9.56022
7389 1 3.86713 13.3976 12.3913
7385 1 0.974385 13.3962 12.4269
3786 1 3.85558 13.3398 9.61714
3790 1 6.63281 13.4216 9.57102
7384 2 2.49529 14.8138 10.913
3814 1 12.0029 13.4586 6.68685
3740 1 6.51061 10.3721 9.62343
7397 1 6.56222 13.4295 12.2595
193 2 5.2673 11.4844 -0.296471
3801 1 9.13027 10.6306 6.78801
7401 1 9.37932 13.6845 12.4183
3744 1 9.03833 10.7327 9.4787
7343 1 9.55406 10.7011 12.3474
7336 2 8.179 9.23164 11.2233
3795 2 7.907 9.23371 8.07217
7405 2 10.8042 12.167 11.0792
7351 1 12.4524 10.8214 12.3469
3746 2 11.1096 9.05326 7.97409
3752 1 11.7707 10.7066 9.48168
3807 2 13.1771 11.9583 8.01119
3798 2 8.09191 12.3781 8.22815
7409 1 12.1463 13.3951 12.4291
3802 1 9.51127 13.572 9.65807
3810 1 12.3356 13.4874 9.59446
3861 1 9.5011 19.0947 6.58757
7396 2 7.99659 14.9479 10.982
3845 1 0.98902 19.1504 6.69593
3787 1 0.999565 16.3682 6.82554
3857 1 6.7085 19.0008 6.75778
3800 1 6.73259 16.2954 9.51031
7391 1 3.91533 16.2846 12.467
7387 1 1.04924 16.3243 12.3929
3792 1 3.91324 16.2408 9.63682
3843 2 2.46824 17.6833 8.23651
3791 1 3.84295 16.1941 6.77873
3850 1 3.86531 19.0211 9.4004
7453 2 5.37846 17.79 11.0995
7444 2 2.39785 20.3815 10.8867
7449 1 3.82106 19.0536 12.2727
3846 1 1.1069 19.0268 9.59283
3788 1 1.05115 16.2061 9.56393
3854 2 5.17771 20.4822 8.11697
3794 2 5.38341 14.9146 8.06919
7445 1 0.911797 19.201 12.3141
3858 1 6.72978 19.1209 9.62667
3811 1 12.3231 16.1963 6.67404
3803 1 9.47239 16.3135 6.77017
3806 2 10.9522 14.9176 8.12081
7461 1 9.5231 19.0115 12.3722
179 2 -0.296126 11.9185 -0.0557016
3842 2 -0.299932 20.4202 8.24685
3747 2 13.6059 6.31926 8.06317
7312 2 -0.342279 0.764746 10.741
7214 2 5.13778 -2.11029 13.6462
4 2 2.16174 1.12098 -0.208199
7202 2 -0.302922 -2.0054 13.5932
241 2 -0.428755 17.7773 -0.172263
3602 2 -0.443237 -2.21509 7.98302
3662 2 -0.305623 3.66259 8.01267
7321 2 -0.287452 6.34851 10.9764
3722 2 -0.303957 9.16286 8.21527
182 2 -0.417431 14.8046 2.51467
7381 2 -0.430862 12.0985 11.0081
7228 2 13.5629 -2.21466 10.9348
7275 2 8.105 0.742504 13.6999
124 2 2.16598 9.27106 -0.394411
7334 2 5.22885 9.18137 13.6561
16 2 7.78365 -2.16199 -0.339956
145 2 10.9005 6.4113 -0.323098
88 2 13.6338 3.61269 -0.339841
85 2 10.5904 0.840887 -0.376092
79 2 7.90717 3.49383 -0.365061
185 2 2.13653 14.9208 -0.414597
133 2 5.31751 6.46851 -0.295251
7262 2 -0.427745 3.50367 13.6767
209 2 10.9641 12.0651 -0.458827
17952 1 5.22495 -1.90618 -0.221328
7323 2 2.45272 6.37761 13.6602
10873 2 5.23995 0.788234 16.4954
10805 1 0.824273 -3.6248 17.939
7206 1 0.952291 -3.52842 15.1078
10807 1 1.01695 -0.65308 17.7375
10814 2 5.08043 -2.08392 19.2437
7208 1 1.15222 -0.757679 14.9821
10809 1 3.68351 -3.54448 17.9107
10863 2 2.37619 0.852577 19.3104
7210 1 3.75653 -3.43783 15.1307
10804 2 2.3748 -2.1839 16.4787
10811 1 3.86614 -0.580469 17.7943
7212 1 4.00994 -0.622025 15.0611
10808 1 0.891015 -0.617568 20.4117
10810 1 3.84296 -3.72944 20.6486
10806 1 1.01092 -3.50664 20.6612
7218 1 6.45523 -3.58152 14.964
7220 1 6.66767 -0.559204 14.9769
10819 1 6.68784 -0.572751 17.7342
10818 1 6.61899 -3.37123 20.5676
10812 1 3.74776 -0.725351 20.6352
7466 2 10.9131 20.4807 13.77
10817 1 6.47992 -3.48498 17.7016
10820 1 6.54264 -0.529081 20.6366
10885 2 10.8401 0.775221 16.5363
10829 1 12.1143 -3.51988 17.961
7230 1 12.0957 -3.6875 15.1445
10831 1 12.1545 -0.703981 17.9212
10826 2 10.7536 -1.98266 19.2669
7232 1 12.2174 -0.834596 15.0461
10821 1 9.1933 -3.47903 17.7034
10875 2 7.94986 0.783738 19.2108
7222 1 9.32488 -3.41989 15.0132
10816 2 7.8852 -2.05488 16.4176
10823 1 9.49578 -0.740997 17.802
7224 1 9.51583 -0.71179 15.1208
14427 2 13.5095 -4.92019 24.8719
7395 2 8.04989 12.1969 13.7575
10830 1 12.0937 -3.42065 20.679
10824 1 9.34361 -0.653543 20.5693
10832 1 12.1169 -0.533881 20.6344
7383 2 2.41862 11.9839 13.8847
10827 2 13.5509 -4.93458 19.1305
10865 1 0.907316 2.09288 17.9143
7266 1 0.882119 2.01857 15.0858
10874 2 5.25533 3.65468 19.2926
10869 1 3.7313 2.39254 18.0071
7270 1 3.8871 2.37411 14.9839
10864 2 2.34928 3.64603 16.5587
10877 1 6.64119 2.08786 17.8094
10933 2 5.27162 6.46716 16.5112
10925 1 0.981374 7.92911 17.8551
7326 1 1.0394 7.65133 15.1833
10867 1 1.00013 4.99341 18.0232
7268 1 1.03406 4.85754 15.0526
10929 1 3.83463 7.76824 18.0458
10923 2 2.42574 6.35821 19.3552
10871 1 3.76749 5.11455 17.8689
7272 1 3.78631 4.99955 15.0701
7330 1 3.7567 7.73886 15.1731
10868 1 1.02218 4.84846 20.7065
10866 1 0.98328 2.00772 20.7076
10870 1 3.75093 2.12336 20.7955
17946 1 1.53215 -4.18487 27.3368
10930 1 3.83954 7.87307 20.8015
10872 1 3.91522 4.96552 20.6142
7338 1 6.51575 7.88435 15.0685
10879 1 6.63498 5.01592 17.9451
10937 1 6.53848 7.89371 17.8167
7278 1 6.62742 2.10438 14.9234
7280 1 6.60223 5.01862 15.131
10878 1 6.56584 2.27938 20.8044
10889 1 12.2543 2.08439 17.8228
7290 1 12.1305 2.10644 14.9563
10886 2 10.8747 3.5636 19.32
10881 1 9.40994 2.14884 17.9093
7282 1 9.49737 2.20372 15.1481
10876 2 8.14183 3.59619 16.5412
10945 2 10.9678 6.31348 16.5358
10949 1 12.1504 7.88847 17.8672
10891 1 12.2636 4.93019 18.0811
7292 1 12.279 4.70339 15.3504
10941 1 9.31894 7.8211 18.0182
10935 2 8.21418 6.33997 19.3394
7342 1 9.27599 7.85724 15.2531
10883 1 9.44879 4.93685 18.0379
7284 1 9.43943 5.03047 15.281
7350 1 12.167 7.84856 15.1583
10884 1 9.53543 4.8021 20.8976
10890 1 12.0832 2.29714 20.6906
10942 1 9.55628 7.75747 20.8721
14488 2 13.4719 3.65918 22.2274
10882 1 9.40358 2.10043 20.6394
14603 1 9.5472 16.348 23.5815
10993 2 5.20583 11.9809 16.5484
10927 1 1.09891 10.7402 18.0336
10934 2 5.17972 9.14511 19.3278
7328 1 1.01607 10.5021 15.3204
10983 2 2.47035 11.9535 19.3149
10924 2 2.39138 9.13789 16.5621
10931 1 4.03048 10.4314 17.8258
7332 1 3.82717 10.5157 15.0002
10985 1 1.11076 13.4915 17.913
7386 1 1.08391 13.2219 15.2053
10989 1 3.89791 13.1882 17.912
7390 1 3.79741 13.4427 15.0909
10986 1 1.12259 13.5119 20.6474
10990 1 3.79907 13.3901 20.5587
7398 1 6.65078 13.4727 15.2221
10932 1 3.81537 10.6327 20.737
7340 1 6.55342 10.7066 15.1885
10940 1 6.53773 10.546 20.7559
10939 1 6.81975 10.6957 17.8607
10928 1 1.09194 10.6539 20.8293
10815 2 7.93985 -4.81685 19.1512
10825 2 10.7806 -4.97192 16.3707
14611 1 12.192 16.2376 23.5572
10997 1 6.63137 13.4618 17.9648
11005 2 10.9052 12.0936 16.5816
10951 1 12.3367 10.5759 18.0463
10946 2 10.8607 9.32558 19.2233
7352 1 12.362 10.6192 15.151
10995 2 8.06153 12.069 19.2445
10936 2 7.9595 9.25578 16.4767
10943 1 9.48536 10.665 17.9126
7344 1 9.41199 10.6202 15.1149
11009 1 12.1591 13.2903 18.1095
7410 1 12.304 13.5831 15.2891
11001 1 9.42821 13.5195 17.9509
7402 1 9.43994 13.456 15.1802
11002 1 9.53444 13.3612 20.6294
10952 1 12.1531 10.5423 20.8311
10944 1 9.26681 10.5838 20.6458
7346 2 10.9269 9.19728 13.8132
10828 2 13.4174 -2.08544 16.4224
7407 2 13.6159 12.0602 13.9576
10984 2 2.43575 14.7606 16.5493
10994 2 5.28402 14.8518 19.3798
11053 2 5.04425 17.6891 16.6368
11045 1 0.950715 19.1801 17.9248
7446 1 1.19206 19.0392 15.0817
10987 1 1.00377 16.3879 17.9412
11054 2 5.20064 20.4505 19.474
7388 1 1.10761 16.2094 15.1458
11049 1 3.69659 19.0904 18.003
11043 2 2.36251 17.6666 19.5008
7450 1 3.84861 19.2468 15.1939
11044 2 2.41727 20.4633 16.5429
10991 1 3.67793 16.1799 18.1301
7392 1 3.87692 16.3094 15.2025
7400 1 6.5807 16.3256 15.1323
10999 1 6.62352 16.2259 18.0351
11050 1 3.84283 19.0594 20.7726
11046 1 0.810407 19.0352 20.7698
10922 2 -0.394278 9.14514 19.3315
14612 1 12.3441 16.2939 26.3722
7406 2 10.8613 14.8764 13.7575
11041 2 -0.412081 17.6556 16.5422
14428 2 13.4882 -2.07479 22.0066
11000 1 6.78352 16.2096 20.7143
11057 1 6.61444 18.9119 17.7775
7458 1 6.56453 19.0319 15.1213
11058 1 6.67476 18.9876 20.7054
11006 2 10.9107 14.8058 19.4335
11065 2 10.9159 17.5909 16.4984
11069 1 12.265 19.0427 17.8168
7470 1 12.2705 19.2133 15.1497
11011 1 12.3816 16.147 17.8914
11066 2 10.8568 20.4842 19.493
7412 1 12.3819 16.3444 15.1959
11061 1 9.40033 19.1823 17.9665
11055 2 8.06951 17.7631 19.2535
7462 1 9.57766 19.0733 15.1155
10996 2 8.0477 14.8004 16.6182
11056 2 8.15001 20.5472 16.4946
11003 1 9.51861 16.365 17.8782
7404 1 9.40648 16.3511 15.2749
11004 1 9.66726 16.2237 20.7542
11070 1 12.4437 19.0611 20.6639
7286 2 10.9712 3.64086 13.7297
11067 2 13.7306 17.6286 19.2504
14473 2 5.29898 0.821034 22.0223
14405 1 0.942399 -3.56162 23.4145
14407 1 0.949011 -0.650062 23.1907
14414 2 5.20922 -2.14409 24.8385
14409 1 3.71782 -3.54484 23.3892
14463 2 2.27055 0.705178 24.5836
14410 1 1.61163 -1.92005 25.6734
14404 2 2.49114 -2.10469 21.9366
14411 1 3.65404 -0.760932 23.5133
14412 1 3.66849 -0.132995 26.3364
17960 1 3.97952 -3.65031 26.1219
14408 1 0.516681 0.781062 25.976
14417 1 6.45997 -3.51937 23.4419
14596 2 8.20716 14.8127 22.0888
14419 1 6.3945 -0.757369 23.3227
14418 1 6.56709 -3.70577 26.3522
73 2 5.4797 0.482147 27.8017
14658 1 9.08553 19.088 24.1184
7394 2 5.32502 14.958 13.8199
14604 1 9.69725 20.0226 26.5654
5 2 3.00003 -2.17671 27.5653
7454 2 5.37602 20.5987 13.6603
14420 1 6.55789 -0.854885 26.1779
10822 1 9.40032 -3.40816 20.6879
14485 2 10.7199 0.808294 22.0538
14429 1 12.0568 -3.36274 23.4436
14431 1 12.0874 -0.526933 23.4958
14426 2 10.7992 -2.0269 24.8807
14432 1 11.9191 -0.736322 26.4498
14421 1 9.24935 -3.69181 23.4623
14475 2 7.93513 0.793161 24.9149
14422 1 9.35881 -3.48805 26.497
14416 2 7.9563 -2.04471 22.0763
14423 1 9.15355 -0.707012 23.5834
14424 1 9.16732 -0.518059 26.458
14430 1 12.0146 -3.39286 26.3741
7442 2 -0.362615 20.4312 13.8836
14528 1 3.35114 13.0882 27.5865
10926 1 0.997827 7.82701 20.6939
14402 2 -0.42617 -2.02719 24.3906
28 2 13.4772 -2.17249 27.538
14666 2 11.2485 20.6181 24.8123
10938 1 6.64916 7.79651 20.7107
7 1 2.39038 2.61564 25.9304
14465 1 1.04094 2.12561 23.3154
14474 2 5.16221 3.57773 25.0218
14469 1 3.89985 2.11628 23.4614
14464 2 2.51627 3.53442 22.1125
14466 1 1.06396 5.08669 26.2044
14470 1 3.94786 5.00039 26.4311
14533 2 5.2661 6.43035 22.0651
14525 1 1.19087 7.76833 23.6875
14467 1 1.18332 5.05364 23.4815
14529 1 3.88507 7.87035 23.4305
14523 2 2.52792 6.35627 24.9929
14471 1 3.86401 5.0133 23.4643
14472 1 1.09483 7.7051 26.4382
14530 1 3.86594 7.63867 26.3927
14478 1 6.54497 2.00305 26.4158
14462 2 -0.376728 3.42032 25.0557
7443 2 2.52468 17.6658 13.776
11012 1 12.3384 16.3284 20.8548
10880 1 6.89903 4.98778 20.7339
14480 1 6.66995 4.8386 26.3181
14479 1 6.60143 5.02054 23.4946
14537 1 6.71371 7.82253 23.4306
14477 1 6.61375 2.16676 23.6425
14489 1 12.1569 2.26192 23.5662
14490 1 12.1856 2.27553 26.3419
14481 1 9.49415 2.01995 23.5816
14482 1 9.38186 2.1603 26.3925
14476 2 7.98995 3.52358 22.2224
76 2 10.7125 3.56276 24.9936
10950 1 12.3074 7.75666 20.6945
10892 1 12.2758 5.18474 20.8121
14538 1 6.6235 7.68569 26.2319
14542 1 9.54859 8.06155 26.3789
14486 1 12.2892 5.11493 26.4536
14484 1 9.36448 5.01616 26.473
14483 1 9.40796 4.8412 23.5723
14535 2 8.00196 6.33567 24.9554
14545 2 10.882 6.33815 22.2597
14549 1 12.432 7.8874 23.5988
14550 1 12.2749 7.85056 26.3859
14491 1 12.2646 5.12182 23.7037
14541 1 9.55046 7.74436 23.714
10887 2 13.6558 0.79947 19.1956
11 1 4.16608 2.50088 27.8938
14661 1 10.2898 20.9239 22.7564
14606 1 9.58662 16.3678 26.4299
14638 1 0.426522 13.5827 26.6115
14593 2 5.14798 11.9662 22.1356
14526 1 1.40362 10.9682 26.2991
14534 2 5.33298 9.07222 24.8543
14583 2 2.93374 12.359 25.3601
14524 2 2.33178 9.30158 22.2496
14531 1 3.90809 10.7387 23.6285
14532 1 3.89987 10.2591 26.3266
14586 1 1.01311 12.9116 23.9877
14540 1 5.14002 13.1528 25.9539
14589 1 3.85807 13.56 23.2799
14590 1 2.74663 14.7758 25.2702
14584 2 2.4474 14.9121 22.21
14656 2 8.19258 20.5487 21.9165
14527 1 0.111618 10.5169 23.5134
14665 2 11.0205 17.6569 22.1476
11010 1 12.257 13.4377 20.8236
14548 2 13.5831 9.26689 22.2197
11062 1 9.51042 19.0872 20.8592
14539 1 6.70713 10.6227 23.539
10998 1 6.74224 13.3678 20.7354
14544 1 6.73068 10.341 26.3079
14598 1 6.90992 15.4256 26.1161
14602 1 9.58305 13.4388 26.2576
14597 1 6.71365 13.4691 23.5212
14601 1 9.68537 13.4096 23.4716
14543 1 9.475 10.5606 23.4669
14536 2 8.08563 9.2471 22.093
14595 2 8.12067 11.9832 25.0485
14605 2 10.8679 12.0344 22.1821
14551 1 12.2922 10.7416 23.6467
14546 2 11.0098 9.19694 24.9232
14552 1 12.3653 10.7215 26.2983
149 1 9.56092 10.7138 26.2828
14610 1 12.1976 13.4274 26.2662
14609 1 12.4072 13.4006 23.4744
199 1 7.81822 18.3718 27.2087
10921 2 -0.382255 6.25972 16.4527
10988 1 0.895125 16.2169 20.7654
10992 1 3.81576 16.2741 20.8606
14662 1 12.2696 19.1236 26.2676
205 2 10.9869 14.83 24.982
14643 2 2.56137 17.5166 25.0323
14650 1 3.67126 19.1622 26.4275
14653 2 5.34924 17.7852 22.1651
14645 1 0.998354 19.1339 23.6435
14654 2 4.78829 20.567 25.0287
14588 1 1.09074 16.4747 26.3862
251 1 6.2517 20.4981 26.7341
14592 1 4.1234 16.1159 26.8328
14594 2 5.17093 14.9918 24.5187
14587 1 1.15266 16.501 23.5697
14600 1 5.74371 17.9934 25.2814
14591 1 3.96996 16.4331 23.417
14644 2 2.30599 20.4217 21.9918
14649 1 3.85036 19.2287 23.371
14646 1 0.943302 19.1475 26.4715
253 2 5.43586 18.1018 27.7193
14657 1 6.53957 19.9352 23.4723
14655 2 7.9879 17.2992 25.0588
14669 1 12.4322 19.083 23.453
256 2 8.07766 20.8638 25.1362
14599 1 6.86151 16.3912 23.2701
64 2 2.44986 4.08004 27.6443
10947 2 13.6802 6.46235 19.3425
14582 2 -0.312578 15.1318 24.8229
14581 2 -0.262931 12.1116 21.8948
14667 2 13.7051 17.7516 24.8821
14487 2 13.5749 0.870163 24.7575
10861 2 -0.406677 0.721208 16.4947
7455 2 8.08777 17.8245 13.8355
52 2 -0.246455 -2.73859 27.5456
7335 2 8.05889 6.38111 13.7501
10802 2 -0.47124 -2.13754 19.2201
14607 2 13.7263 12.0389 25.0045
7382 2 -0.291573 14.7874 13.8488
136 2 8.24137 9.18982 27.7643
7226 2 10.6987 -2.11324 13.6978
7263 2 2.60331 0.726815 13.7917
7274 2 5.41738 3.61801 13.7307
3913 2 5.16008 23.1424 5.3328
305 1 0.878952 24.6193 1.02008
306 1 0.968918 24.7535 4.03639
247 1 3.66384 21.5428 1.20608
314 2 5.16391 25.9393 2.51665
248 1 1.14647 22.0127 3.919
309 1 3.96466 24.3289 1.01041
303 2 2.46352 23.295 2.47221
310 1 3.75044 24.5058 3.87578
3904 2 2.45047 26.0086 5.21164
252 1 3.91214 21.8081 3.98258
299 1 0.957045 21.7214 1.11227
311 1 2.46982 26.3211 2.13468
14718 1 6.55678 21.9294 1.24286
308 1 0.986107 27.5396 3.9313
370 1 6.53467 27.4243 1.26037
312 1 4.01314 27.6189 3.90995
320 1 6.82496 27.434 3.92254
3859 1 6.72417 21.8657 6.62091
304 2 2.4997 25.725 -0.133906
302 2 -0.283488 26.1103 2.51833
3907 1 1.01332 27.6033 6.54077
318 1 6.66257 24.7224 4.01137
260 1 6.76702 21.7807 3.83347
317 1 6.70353 24.6509 1.02803
3925 2 10.8692 23.2297 5.20278
329 1 12.1533 24.7017 1.01726
330 1 12.2662 24.822 3.83275
271 1 12.2196 21.7896 0.986756
326 2 10.8073 26.063 2.57563
272 1 12.3093 22.0971 3.816
321 1 9.53199 24.6324 1.11596
315 2 8.05215 23.3466 2.56889
322 1 9.46421 24.7315 3.85942
3916 2 8.01345 26.1398 5.31827
263 1 9.52058 21.8463 1.195
264 1 9.47758 21.9484 3.82964
324 1 9.60665 27.3967 4.09932
323 1 9.41318 27.3259 1.0763
332 1 12.2967 27.5672 4.01554
331 1 12.4364 27.6339 1.08838
3871 1 12.2014 21.8017 6.61704
3863 1 9.52605 21.916 6.77971
3929 1 12.2922 24.6229 6.46792
316 2 7.88699 26.1829 -0.294169
14720 1 4.13736 27.6721 0.610005
14708 1 0.976509 27.6863 0.786749
3973 2 5.26202 28.8947 5.34529
363 2 2.42953 28.618 2.68226
307 1 1.21512 30.4439 1.00423
369 1 3.90881 30.3249 0.80122
426 1 1.03434 32.8489 3.7337
367 1 1.14294 33.2269 0.938233
374 2 5.27366 31.8188 2.32998
368 1 3.89252 30.2943 3.58389
3964 2 2.51678 31.8122 5.1364
371 1 3.96434 33.1156 0.974614
372 1 3.93459 33.199 3.79001
3967 1 1.01625 30.2385 3.82178
377 1 6.65823 30.5303 1.09865
3965 1 1.08647 30.3292 6.6077
3971 1 3.76655 33.1459 6.44847
3969 1 3.84739 30.2673 6.55283
380 1 6.66913 33.1757 3.86202
378 1 6.61781 30.3463 3.77568
373 2 5.79236 28.9792 -0.319609
7769 1 12.4815 47.207 12.0901
3979 1 6.82846 33.1389 6.68412
379 1 6.68164 33.3334 0.993199
3985 2 10.8729 28.9112 5.39828
375 2 8.06675 28.9604 2.39344
390 1 12.1333 30.1446 1.02235
391 1 12.3455 32.9478 1.09442
386 2 10.8367 31.7209 2.44546
392 1 12.3556 33.1479 3.79659
381 1 9.5183 30.3422 1.06341
382 1 9.52048 30.1883 3.99697
3976 2 8.07893 31.7817 5.23708
383 1 9.52236 33.2556 1.08241
384 1 9.41726 32.9494 3.81362
3989 1 12.3689 30.4056 3.9134
3983 1 9.64269 33.0717 6.55844
387 2 13.6274 28.9111 2.74396
4033 2 5.27021 34.5832 5.26436
425 1 0.966326 35.887 1.14534
434 2 5.18721 37.4665 2.41241
429 1 3.85526 36.0577 1.03811
423 2 2.5929 34.5584 2.36147
430 1 3.84337 36.0956 3.7225
4024 2 2.30111 37.3356 5.16614
428 1 1.01329 35.8409 3.88236
486 1 0.89567 38.8117 3.70915
427 1 0.802366 38.7375 0.908352
431 1 3.8277 38.8772 1.02089
432 1 3.73102 38.8709 3.75082
483 2 2.40744 40.2987 2.37188
4093 2 5.18911 40.1485 5.19505
4085 1 0.992441 38.7394 6.55076
4039 1 6.60225 38.8523 6.39423
4031 1 3.7322 38.9631 6.61025
4029 1 3.67345 35.9805 6.62367
437 1 6.75332 35.9241 1.05034
440 1 6.69543 38.7197 3.72023
438 1 6.72744 35.9474 3.782
439 1 6.61501 38.6652 0.981936
3927 2 13.5885 23.1966 7.99761
4048 2 13.7274 37.4103 5.15864
7703 1 9.52801 44.5956 11.9385
4045 2 10.9114 34.4739 5.2484
449 1 12.2452 35.9602 0.992546
450 1 12.2792 36.019 3.88285
446 2 10.8788 37.2954 2.4638
441 1 9.56985 36.0162 0.871668
435 2 8.03427 34.506 2.40774
442 1 9.57279 35.7011 3.71845
4036 2 8.0212 37.4163 5.19253
509 1 12.2373 38.8263 1.00304
452 1 12.1636 38.6619 3.79579
443 1 9.47481 38.7077 0.931086
444 1 9.47737 38.725 3.80466
4105 2 10.8833 40.1185 5.16618
495 2 8.07656 40.1754 2.33197
4043 1 9.42457 38.7371 6.73373
4041 1 9.51238 35.7427 6.42735
4049 1 12.1967 35.8484 6.5869
4107 2 13.6886 40.062 8.02807
4037 1 6.53232 36.053 6.60055
4051 1 12.236 38.7174 6.58674
319 1 8.05164 28.9157 -0.443398
7588 2 13.6181 31.8154 10.9672
7682 2 -0.387043 42.9614 13.5808
541 2 -0.32401 45.8243 -0.471592
3987 2 13.6268 28.9795 8.12516
4106 2 10.8396 43.0032 7.71717
4153 2 5.17232 45.7833 5.1613
485 1 1.02073 41.4916 1.00532
487 1 0.933199 44.3256 0.946669
494 2 5.31999 43.0619 2.32709
488 1 1.02024 44.3617 3.66675
489 1 3.92755 41.6543 1.01929
543 2 2.33416 45.8441 2.30129
490 1 3.8647 41.6199 3.8412
491 1 3.80851 44.4558 1.09199
492 1 3.99401 44.2933 3.88919
482 2 2.33467 42.9576 5.07208
538 1 1.04592 41.5072 3.71727
497 1 6.77378 41.5309 0.977126
4162 1 9.33559 47.2197 9.37233
4091 1 3.79162 44.4127 6.65138
3962 2 -0.386091 31.762 8.03864
4112 2 10.9964 42.9465 10.8124
4102 1 9.50233 41.6147 9.60177
500 1 6.72812 44.2735 3.77553
499 1 6.79106 44.2258 0.918718
4099 1 6.68039 44.4363 6.62856
498 1 6.70282 41.4495 3.64954
4109 1 12.1828 41.4797 6.69599
4165 2 10.8058 45.8353 5.26906
510 1 12.4272 41.6148 3.69328
511 1 12.3424 41.5261 0.957361
506 2 10.9398 42.9387 2.42548
501 1 9.50231 41.4374 1.04768
555 2 8.12519 45.6557 2.35687
502 1 9.50938 41.4672 3.83207
4096 2 7.98988 42.877 5.11729
503 1 9.61577 44.1951 0.902632
504 1 9.60949 44.2461 3.89485
565 1 12.3482 44.2477 3.80108
569 1 12.379 44.4593 0.96492
4103 1 9.36517 44.3265 6.71765
4021 2 -0.429542 34.4598 5.20957
507 2 13.6291 40.1306 2.42417
7561 2 -0.291831 29.0077 11.0048
3911 1 3.93762 27.3372 6.6107
3917 1 6.46905 24.6336 6.68867
3909 1 3.84171 24.5758 6.57149
3851 1 3.84456 21.856 6.76384
3847 1 1.08841 21.8591 6.72718
3905 1 1.02361 24.8115 6.87991
7514 2 5.12098 26.2078 13.7632
7513 2 5.27609 23.3102 11.0146
7505 1 1.00028 24.8378 12.2332
3906 1 1.20128 24.7153 9.50256
7447 1 0.853119 21.9909 12.3716
3914 2 5.28609 26.07 8.01108
3860 1 3.75057 21.7684 9.6633
7509 1 3.6782 24.5966 12.2391
3903 2 2.56117 23.3568 8.19039
3910 1 3.99981 24.7758 9.53662
7504 2 2.50793 26.1154 10.962
7451 1 3.7707 21.7623 12.3719
3852 1 1.12863 21.795 9.47795
7501 2 -0.0110943 23.258 10.8277
7459 1 6.45824 21.7993 12.09
7517 1 6.39421 24.8093 12.4253
3908 1 1.28545 27.6076 9.42257
3918 1 6.67605 24.8178 9.52095
3912 1 3.91559 27.5828 9.39284
7511 1 3.99261 27.5412 12.302
7519 1 6.70538 27.5502 12.4344
3864 1 6.44626 22.076 9.27529
7507 1 1.23032 27.5287 12.279
3902 2 -0.127415 26.2774 8.10467
4098 1 6.52505 41.5872 9.37946
3921 1 9.43201 24.7449 6.77308
3919 1 6.75299 27.6094 6.65701
3901 2 -0.346818 23.3496 5.36265
3931 1 12.3203 27.4992 6.67401
7525 2 11.0412 23.0716 11.0063
7529 1 12.5047 24.8724 12.3379
3930 1 12.2758 24.5646 9.40318
7471 1 12.6807 21.9991 12.2016
3926 2 10.9057 26.0333 7.98293
3872 1 12.2274 21.7965 9.39503
7521 1 9.73048 24.7343 12.0461
3915 2 8.06546 23.4148 8.12508
3922 1 9.31869 24.8724 9.3844
7516 2 7.94262 25.8833 11.0921
7463 1 9.35402 21.9669 9.53616
7515 1 9.76134 21.5892 12.1884
3924 1 11.9167 27.3966 9.53955
3920 1 7.17212 27.5647 9.66671
7531 1 12.3894 27.6488 12.2609
3923 1 9.54576 27.5646 6.90192
7523 1 9.57672 27.5216 11.812
7696 2 7.78938 42.983 10.7451
4025 1 0.972833 33.1886 6.62122
7573 2 5.45166 28.862 10.9248
3963 2 2.36769 29.017 7.99524
7565 1 1.21283 30.2203 12.1229
7567 1 1.02171 33.1455 9.77846
7579 1 6.11138 32.9224 12.0644
3974 2 5.27419 31.6992 8.03777
3968 1 0.886091 30.3949 9.36996
7569 1 3.94617 30.4064 12.3241
3970 1 3.79564 30.4057 9.31833
7564 2 2.50855 31.6473 10.8189
7571 1 3.40797 33.306 12.0843
3972 1 3.91549 33.1698 9.24913
7577 1 6.7303 30.2343 12.2672
7765 2 10.8816 46.1308 10.7353
7711 1 12.2492 44.0382 12.4292
3977 1 6.54031 30.3188 6.51846
3991 1 12.4461 33.0201 6.69177
3981 1 9.49261 30.4211 6.66154
3990 1 12.292 30.169 6.71884
3978 1 6.60198 30.4183 9.44362
3980 1 6.65661 33.2641 9.34253
7585 2 10.9341 29.1074 11.095
3975 2 8.13481 28.9935 7.96896
3982 1 9.55708 29.9812 9.53688
7589 1 12.2795 30.461 12.3601
7591 1 12.3158 33.3004 12.2931
3986 2 10.978 31.7917 8.06833
3992 1 12.2288 33.1382 9.38996
7581 1 9.35048 30.3972 12.2934
7576 2 7.91456 31.8823 10.9923