LAMMPS data file via write_data, version 29 Oct 2020, timestep = 100268

17730 atoms
2 atom types

-0.35016800637132595 27.690168006372144 xlo xhi
-4.4393253317766925 332.51932533178905 ylo yhi
-0.3623930490336076 27.70239304903394 zlo zhi

Masses

1 15.9994
2 232.0381

Atoms # full

1 0 2 2.2208 5.08625448867558 1.1036135921558334 5.194043975375212 0 0 0
2 0 1 -1.1104 1.2056472112364678 -3.2711953417818256 0.9531049657078507 0 0 0
3 0 1 -1.1104 0.9353862105449027 2.3833262067091496 1.101218610383349 0 0 0
6 0 1 -1.1104 0.9564120717872383 -3.2503384371830197 3.8521451414086725 0 0 0
7 0 1 -1.1104 0.9980212258487977 2.5421734878363256 3.845703391365096 0 0 0
10 0 1 -1.1104 1.0406225593580323 -0.38231122302146786 1.0129950769058695 0 0 0
12 0 2 2.2208 5.253776093934032 -1.6868318374483178 2.258219887677753 0 0 0
13 0 2 2.2208 5.207956291448835 3.858798291319666 2.394386500929154 0 0 0
14 0 1 -1.1104 1.0148634902549085 -0.40166000164112947 3.7279337704609303 0 0 0
16 0 1 -1.1104 3.9587789503965625 -3.163191384966412 1.0280459287670216 0 0 0
17 0 1 -1.1104 3.813324854519401 2.5564223133920274 0.9777645894119219 0 0 0
18 0 2 2.2208 2.4156130586267075 1.0998825387763 2.3986523096472108 0 0 0
19 0 1 -1.1104 3.803101880472246 -3.1026276915622577 3.7685105845545537 0 0 0
20 0 1 -1.1104 3.774864672629222 2.503969957311426 3.7249963137341147 0 0 0
21 0 2 2.2208 2.4361919672665673 -1.6715316791586146 5.267331290575718 0 0 0
22 0 2 2.2208 2.3629778557899734 3.9793325065654614 5.310696291164735 0 0 0
23 0 1 -1.1104 3.7984436795966507 -0.30921477723188456 0.9148802424009537 0 0 0
24 0 1 -1.1104 3.5807765965242226 -0.27891882188760614 3.6998544720138895 0 0 0
163 0 1 -1.1104 1.033776846038683 2.4658899026573478 6.751855009555742 0 0 0
5 0 1 -1.1104 6.614404452313586 2.4707275911870736 0.974152501191731 0 0 0
166 0 1 -1.1104 0.9110091800195291 -0.2996303245507435 6.78563887167316 0 0 0
9 0 1 -1.1104 6.570404470713916 2.3264244272493793 3.7125038887554633 0 0 0
162 0 1 -1.1104 1.0344355110492318 -3.0635250192070513 6.534319889300365 0 0 0
11 0 1 -1.1104 6.528298487455001 -0.09649217503134816 0.9929653715260245 0 0 0
8 0 1 -1.1104 6.463030665523071 -3.311176572766236 3.5564490879697734 0 0 0
310 0 2 2.2208 10.881105243427243 12.465154809386462 -0.29666112857909516 0 0 0
170 0 1 -1.1104 3.833693663871018 -0.28664844084379615 6.642015503791188 0 0 0
165 0 1 -1.1104 6.602920156192714 2.604425906958179 6.491215596454418 0 0 0
169 0 1 -1.1104 3.857520540297373 2.52168576446225 6.561442203812321 0 0 0
168 0 1 -1.1104 3.8844697802895327 -3.0371197953421696 6.6958934186053405 0 0 0
167 0 1 -1.1104 6.719545682084015 -0.279291674122241 6.631197079476085 0 0 0
559 0 2 2.2208 2.42351418092941 3.902397570958848 -0.3439870244095042 0 0 0
15 0 1 -1.1104 6.5097065073981035 -0.42563159070133 3.894895584900922 0 0 0
4 0 1 -1.1104 6.785362027748408 -2.9657898216203487 0.9824808407363 0 0 0
31 0 2 2.2208 10.8048141894646 1.174097533743109 5.140606218091632 0 0 0
32 0 1 -1.1104 12.204111313554169 -3.072749693209264 1.0017608541031526 0 0 0
33 0 1 -1.1104 12.153336878995399 2.652718153366307 1.1286422147444983 0 0 0
34 0 1 -1.1104 12.196640949628948 -3.2149841792946448 3.879195978578862 0 0 0
36 0 1 -1.1104 12.229356546772227 -0.3718395787291044 1.0922241516275908 0 0 0
37 0 2 2.2208 10.84036582339923 -1.7997340298267466 2.388016859075606 0 0 0
38 0 2 2.2208 10.850543143276656 3.913734488562848 2.455437658656119 0 0 0
39 0 1 -1.1104 12.083650509103798 -0.37294640266297185 3.9426254878640736 0 0 0
40 0 1 -1.1104 9.453351675014716 -3.081488290711127 1.0427619350130308 0 0 0
41 0 1 -1.1104 9.401943602530418 2.493242981394573 0.8783593788944651 0 0 0
42 0 2 2.2208 7.954263922187371 1.0023581706214282 2.3522856517241264 0 0 0
43 0 1 -1.1104 9.374621344921819 -3.2413351374220447 3.8406184739501676 0 0 0
44 0 1 -1.1104 9.337356684683376 2.398116958054351 3.5523628908255445 0 0 0
45 0 2 2.2208 7.900713635813965 -1.740338375124223 5.157014483198526 0 0 0
46 0 2 2.2208 8.06366500624483 3.8536887991294924 5.123285914058947 0 0 0
47 0 1 -1.1104 9.4495237362147 -0.18898441688481124 0.8273971086186532 0 0 0
48 0 1 -1.1104 9.332278644716528 -0.35766267888542636 3.701378718550194 0 0 0
257 0 1 -1.1104 12.064036831308602 2.4570619308400268 3.7723647973226697 0 0 0
204 0 1 -1.1104 9.160828638463268 -2.9656612668043283 6.678569701161837 0 0 0
8792 0 2 2.2208 13.531708332078614 1.0855528788699687 2.35986807583176 0 0 0
201 0 1 -1.1104 12.10598646825308 -2.957442340976851 6.485898102967458 0 0 0
206 0 1 -1.1104 9.383433495598938 -0.2160889249693137 6.510324864805114 0 0 0
8793 0 2 2.2208 13.517564807697646 -1.7805514530708608 5.318394175049057 0 0 0
325 0 2 2.2208 7.94168728481742 -4.269700243645875 8.11850304060125 0 0 0
8134 0 2 2.2208 2.360573464883705 -4.408928963870267 8.045931274875839 0 0 0
8787 0 2 2.2208 -0.3077144350140967 9.584260603629263 2.383449298861169 0 0 0
53 0 2 2.2208 5.306924238261755 6.782283420987657 5.227644556486018 0 0 0
54 0 2 2.2208 5.29950146593281 12.328852933049506 5.272385678102001 0 0 0
55 0 1 -1.1104 1.2443515537301624 8.136593858887254 1.0720875736231137 0 0 0
57 0 1 -1.1104 0.9737437277946963 8.195791884567026 3.910341895475095 0 0 0
59 0 1 -1.1104 1.1398911781609544 5.262739316127707 1.0634531662059872 0 0 0
60 0 1 -1.1104 1.0419303408392884 10.952360546915884 0.9484819671874031 0 0 0
65 0 2 2.2208 5.221332213125436 9.656103653010797 2.3136368299203722 0 0 0
66 0 1 -1.1104 0.9815333846141054 5.307538469492312 3.8128150410842525 0 0 0
67 0 1 -1.1104 1.0982891303927425 11.043875912763212 3.928636817566784 0 0 0
70 0 1 -1.1104 3.9012545387629545 8.18262676024018 0.8579103504831247 0 0 0
71 0 2 2.2208 2.561460415201478 6.796105560409794 2.451947032745991 0 0 0
72 0 2 2.2208 2.4286956031151457 12.457579909014612 2.3503879241523014 0 0 0
73 0 1 -1.1104 3.7128899616442004 8.246037334152245 3.742460002006806 0 0 0
74 0 2 2.2208 2.4217308969988096 9.46427931269652 5.276439328019157 0 0 0
75 0 1 -1.1104 3.836479693233406 5.353435232813724 1.0816469150565509 0 0 0
76 0 1 -1.1104 3.8181897559287545 10.976642690389934 0.9417739336440843 0 0 0
78 0 1 -1.1104 3.6694486844916274 5.284340563219638 3.9538325338701252 0 0 0
79 0 1 -1.1104 3.7948448178858136 11.166672554355078 3.6491001964614638 0 0 0
94 0 1 -1.1104 6.525342054661813 8.10272525967133 3.74151354270968 0 0 0
77 0 1 -1.1104 4.155917703261355 10.863568619785616 6.5063419311410495 0 0 0
227 0 1 -1.1104 0.9616453544153072 8.0499589347478 6.780344988144355 0 0 0
58 0 1 -1.1104 6.534246789434281 5.236000009357209 3.7770885247299693 0 0 0
63 0 1 -1.1104 6.664698192705129 10.907926898983792 0.9470696684147808 0 0 0
69 0 1 -1.1104 6.557054896268291 10.940364633232841 3.6200402694326947 0 0 0
49 0 2 2.2208 13.541826517912844 9.614856869393574 10.89263843075226 0 0 0
302 0 2 2.2208 13.46321762095211 9.540455710084872 5.247576279007397 0 0 0
56 0 1 -1.1104 6.688700667760214 8.190713649510844 1.0238972851696706 0 0 0
62 0 1 -1.1104 6.6725980417822 5.3954769068173585 1.1141044505430326 0 0 0
68 0 1 -1.1104 9.469937918213674 5.105712639685454 3.850840111021062 0 0 0
83 0 2 2.2208 10.90552065794077 12.609458268539584 5.188247338576834 0 0 0
84 0 1 -1.1104 12.276057291726572 8.128298949419827 0.8732706306394856 0 0 0
85 0 1 -1.1104 12.43373773997817 8.442613398845007 3.5870632348188245 0 0 0
86 0 1 -1.1104 12.262257579378774 5.3296572724580855 1.2994610370991062 0 0 0
87 0 1 -1.1104 12.314975390017949 10.957731116554173 0.9984197219370595 0 0 0
89 0 2 2.2208 10.725915419309631 9.566893377285961 2.4959362029385703 0 0 0
90 0 1 -1.1104 12.06957377664284 11.26553225700014 3.6553867509500835 0 0 0
91 0 1 -1.1104 9.5434743827288 8.050653052569313 0.852672374792143 0 0 0
92 0 2 2.2208 8.085938899858997 6.680756427301578 2.5274258889059444 0 0 0
93 0 2 2.2208 8.014881518631602 12.394637629130306 2.4294298512822268 0 0 0
95 0 2 2.2208 7.9488888269251055 9.56279660909945 5.123465286157648 0 0 0
96 0 1 -1.1104 9.480916881604443 5.275641021361312 0.9708887249197966 0 0 0
97 0 1 -1.1104 9.56728115988314 11.04291436334859 1.232201207690017 0 0 0
99 0 1 -1.1104 9.296861117546335 8.060539613882948 3.807918393881344 0 0 0
98 0 1 -1.1104 9.403175233824385 10.938736806535607 4.000376536629716 0 0 0
88 0 1 -1.1104 12.254450618632777 11.161701729757317 6.313377191133915 0 0 0
132 0 1 -1.1104 12.302143874545326 16.57331529730358 9.369036344466814 0 0 0
228 0 1 -1.1104 6.558984543708457 8.338932166072698 6.4286318408798815 0 0 0
256 0 1 -1.1104 12.484893420713835 7.972309042334792 6.6024486372831985 0 0 0
8499 0 2 2.2208 -0.29841856468960964 1.1438188519407553 10.945723495666266 0 0 0
466 0 2 2.2208 8.21693760734344 9.458249051621276 -0.3171260406384935 0 0 0
277 0 1 -1.1104 6.67679849914068 13.843809089182207 9.58946929883265 0 0 0
8798 0 2 2.2208 -0.2573077657250656 6.754760891606028 -0.2828399636483997 0 0 0
102 0 2 2.2208 5.33191300193387 18.038766552330443 5.226197323856153 0 0 0
103 0 1 -1.1104 1.0116851103249247 13.783085473675449 0.8388613474720648 0 0 0
105 0 1 -1.1104 0.9071943709380477 19.603573885438433 0.9912703222160422 0 0 0
109 0 1 -1.1104 1.0327584591171735 13.896225418747195 3.5947094329595486 0 0 0
110 0 1 -1.1104 0.9331662252656548 19.41288663380933 4.050867601553276 0 0 0
112 0 1 -1.1104 0.8881392203570048 16.649224414282784 0.9759827323393218 0 0 0
115 0 2 2.2208 5.300438382997783 15.227466545349332 2.3267736065908933 0 0 0
116 0 2 2.2208 5.208910521824134 20.91135148572989 2.5513130822710623 0 0 0
117 0 1 -1.1104 1.1252173312405918 16.708731798430104 3.880439410942923 0 0 0
119 0 1 -1.1104 3.789070261336941 13.892564102950764 0.9717423902669919 0 0 0
121 0 1 -1.1104 3.734677564198664 19.427713319303496 1.1544922182599338 0 0 0
123 0 2 2.2208 2.4011876711908005 18.070512202664343 2.3470940963669205 0 0 0
124 0 1 -1.1104 3.9160956332367736 14.005515196099037 3.765178626619333 0 0 0
125 0 1 -1.1104 3.8256226339467263 19.619785809047638 3.929741394862829 0 0 0
126 0 2 2.2208 2.4552801237968107 15.272232524279806 5.16313312699802 0 0 0
127 0 2 2.2208 2.4462858558551286 20.8209249069715 5.302385669883499 0 0 0
128 0 1 -1.1104 4.010306541304928 16.60782848135272 0.9896625187422701 0 0 0
130 0 1 -1.1104 3.811207045871371 16.672181168701886 3.795947520933442 0 0 0
104 0 1 -1.1104 0.9970705834165926 13.713581885742064 6.688620955219223 0 0 0
113 0 1 -1.1104 1.0873603671656487 16.549145611064215 6.600106410348465 0 0 0
30 0 1 -1.1104 12.480030736583064 13.82772821227728 12.416257010173297 0 0 0
108 0 1 -1.1104 6.698800147091477 19.46316806753338 6.622434579352902 0 0 0
106 0 1 -1.1104 6.546477995018745 13.718214029568633 1.1880560224251584 0 0 0
134 0 1 -1.1104 6.627854511040028 19.585715935210423 1.048187791562157 0 0 0
322 0 2 2.2208 -0.25869682958344126 4.0585803030613485 8.137089718422859 0 0 0
441 0 2 2.2208 2.3637210291135946 20.82084007577671 -0.3459309526318976 0 0 0
161 0 1 -1.1104 9.589994837456661 19.44087183785483 12.144760064273571 0 0 0
289 0 1 -1.1104 1.058234132161128 19.37804848184155 6.741273324354171 0 0 0
224 0 2 2.2208 8.170629255513113 20.798180344358546 -0.3153781014271835 0 0 0
81 0 2 2.2208 10.847721520278679 15.291676035076405 8.106602165741776 0 0 0
136 0 1 -1.1104 6.801032467939914 16.78525559347756 0.9370138949166766 0 0 0
118 0 1 -1.1104 6.627697445230647 16.536618351950594 3.860574161820744 0 0 0
135 0 1 -1.1104 6.68835349456208 19.431916896525195 3.8056749723957823 0 0 0
111 0 1 -1.1104 6.683508360309969 13.689594961151064 3.928990701592427 0 0 0
137 0 2 2.2208 10.995535185322417 17.99860033657367 5.205159134704604 0 0 0
138 0 1 -1.1104 12.185299740414886 13.85209188157286 1.1418250790827766 0 0 0
140 0 1 -1.1104 12.428895519170235 19.579126661828674 0.9731735278683782 0 0 0
142 0 1 -1.1104 12.413365806733815 13.952430354418057 3.8677846538705807 0 0 0
143 0 1 -1.1104 12.510877470187532 19.3146369654079 3.7046610247746616 0 0 0
144 0 1 -1.1104 12.188323208854296 16.819104665005437 1.0042376880882018 0 0 0
146 0 2 2.2208 10.8849682763101 15.327791136436025 2.4567579875045755 0 0 0
147 0 2 2.2208 11.187154431363266 20.861975369766515 2.4504599632238175 0 0 0
148 0 1 -1.1104 12.344100113101508 16.61013043482325 3.7835058858081902 0 0 0
149 0 1 -1.1104 9.391035790471932 14.06876977999098 0.96544396443257 0 0 0
151 0 1 -1.1104 9.493819087967884 19.44723087341672 1.0934628822697365 0 0 0
153 0 2 2.2208 8.186304075787465 18.054693508631395 2.551652419575927 0 0 0
154 0 1 -1.1104 9.389989939634514 13.957243986890223 3.8115233198001395 0 0 0
155 0 1 -1.1104 9.714510324634222 19.448587445843458 3.770841299622609 0 0 0
156 0 2 2.2208 8.059704123893878 15.25788691831419 5.252790637226186 0 0 0
157 0 2 2.2208 8.136469416177912 20.901668319783774 5.20807100353893 0 0 0
158 0 1 -1.1104 9.515931729343782 16.613773089817172 1.055304230229825 0 0 0
160 0 1 -1.1104 9.509096732275783 16.67592607753275 3.910499349132405 0 0 0
159 0 1 -1.1104 9.568380063062094 16.423022025997547 6.725469077518736 0 0 0
107 0 1 -1.1104 6.680087478574622 13.768423911662358 6.655203622726838 0 0 0
8494 0 2 2.2208 13.649400593077042 -1.7893805117950232 10.826328547117829 0 0 0
152 0 1 -1.1104 9.446593202574734 19.474807593297463 6.634856570901696 0 0 0
300 0 2 2.2208 -0.31054244948116505 15.186672688276417 7.934589757260761 0 0 0
80 0 1 -1.1104 12.29168103769415 16.731070702589584 12.144769181263317 0 0 0
8525 0 2 2.2208 13.605873406059603 4.043042228333187 -0.2525274761674828 0 0 0
164 0 1 -1.1104 6.438279040728865 -2.9412217728856533 6.494767207486424 0 0 0
404 0 2 2.2208 10.863283462556492 -1.875308559992815 13.591410840374067 0 0 0
173 0 2 2.2208 5.1736475237925506 1.1839181326452712 10.967885871658336 0 0 0
174 0 1 -1.1104 0.9710173963059248 -2.9728793350220424 12.336027055393428 0 0 0
175 0 1 -1.1104 1.121960803086121 2.4757068126350186 12.266010524603434 0 0 0
178 0 1 -1.1104 0.9866266859937664 -2.9307020505166648 9.3266053285064 0 0 0
179 0 1 -1.1104 1.1669362849713645 2.567122633828773 9.563379715217282 0 0 0
182 0 1 -1.1104 1.0034929046973722 -0.26476851532370627 12.33069312121956 0 0 0
184 0 2 2.2208 5.215256237864177 -1.599086157895721 8.084842185117333 0 0 0
185 0 2 2.2208 5.1970249978112495 4.023793058457883 7.9812658241101655 0 0 0
186 0 1 -1.1104 0.9151841030775302 -0.1665628524385088 9.573282566897927 0 0 0
188 0 1 -1.1104 3.8241782851731574 -3.201186971280951 12.50388393052189 0 0 0
189 0 1 -1.1104 3.9183287738536468 2.7132695635713677 12.21869414231345 0 0 0
190 0 2 2.2208 2.3702857170860945 1.1302785945337592 8.074690228999218 0 0 0
191 0 1 -1.1104 3.7361728613714607 -3.039550069442403 9.608910479527378 0 0 0
192 0 1 -1.1104 3.9595267170841004 2.541946004008698 9.408183908937268 0 0 0
193 0 2 2.2208 2.3824210711909672 -1.6863128297904255 10.865607707904228 0 0 0
194 0 2 2.2208 2.498798852748223 3.9103737832186205 10.9936262648594 0 0 0
195 0 1 -1.1104 3.901431264580358 -0.3551386547422713 12.242825343456595 0 0 0
196 0 1 -1.1104 3.817744525323047 -0.2876279469247623 9.53409882700785 0 0 0
275 0 1 -1.1104 6.646363781222295 19.428180733701215 9.49620326269571 0 0 0
177 0 1 -1.1104 6.671881219626149 2.640759768165706 12.349480328465754 0 0 0
197 0 2 2.2208 13.626608601285753 3.9619594759568164 10.587942242319965 0 0 0
180 0 1 -1.1104 6.484588568787451 -2.991153184246813 9.506222244335266 0 0 0
203 0 1 -1.1104 12.240150854514436 0.07812317216452633 6.586553596656211 0 0 0
202 0 1 -1.1104 9.50068111382035 2.5313423745279997 6.383474704360611 0 0 0
183 0 1 -1.1104 6.704496054973003 -0.29806397530284845 12.208016439577706 0 0 0
187 0 1 -1.1104 6.623967902255092 -0.00047128874560351577 9.413519930461097 0 0 0
176 0 1 -1.1104 6.65083797975847 -2.9894706298960383 12.268987656870717 0 0 0
181 0 1 -1.1104 6.8282439710436975 2.8988138938486534 9.332866005455937 0 0 0
207 0 2 2.2208 11.005437079758343 0.9756877897937607 10.887578332097979 0 0 0
208 0 1 -1.1104 12.406624493507474 -3.2443757708720637 12.205742733801731 0 0 0
209 0 1 -1.1104 12.148699268612269 2.2214233949200732 12.368333721597978 0 0 0
210 0 1 -1.1104 12.092658344184104 -3.147259452864955 9.369916715863246 0 0 0
211 0 1 -1.1104 12.393717840909398 2.252569086393356 9.575895579898717 0 0 0
212 0 1 -1.1104 12.147753460330469 -0.4544469399934504 12.275243770818165 0 0 0
213 0 2 2.2208 10.719285048751662 -1.6065762575512987 7.992749887167908 0 0 0
214 0 1 -1.1104 12.291293011582972 -0.42159507944915897 9.478818722745647 0 0 0
215 0 1 -1.1104 9.476650958990996 -2.8849524232462906 12.055356774483792 0 0 0
216 0 1 -1.1104 9.352592552051007 2.4268566588909506 11.76450021056625 0 0 0
217 0 2 2.2208 7.906853002337978 1.2529201053375487 7.779899619609239 0 0 0
218 0 1 -1.1104 9.293762514385755 -2.793944671665969 9.34888829934824 0 0 0
220 0 2 2.2208 7.885134783595626 -1.4936896636846022 10.7649640172099 0 0 0
222 0 1 -1.1104 9.376037959890684 -0.23323693804205145 12.228594561036854 0 0 0
223 0 1 -1.1104 9.421036968061605 0.2256138769487856 9.183268925329633 0 0 0
221 0 2 2.2208 8.041532456524077 4.023456738866018 10.919936976632911 0 0 0
403 0 2 2.2208 8.089234356965063 1.092010255172374 13.526219453585199 0 0 0
229 0 1 -1.1104 1.0693111665227397 5.423565497388172 6.655343459574299 0 0 0
61 0 1 -1.1104 1.3040248149882157 10.942947768900835 6.795179657711026 0 0 0
198 0 1 -1.1104 9.462908829818346 13.93130858059768 9.485878794202554 0 0 0
311 0 2 2.2208 2.3922878239638488 12.428518482207519 13.659684344300912 0 0 0
231 0 1 -1.1104 3.814905554255736 5.360455832456452 6.729994540908971 0 0 0
230 0 1 -1.1104 3.8517172987856263 8.070533277752505 6.667132521121662 0 0 0
232 0 2 2.2208 5.191835615508991 7.003698127125963 10.990360761635118 0 0 0
233 0 2 2.2208 5.300892822091747 12.286944661402009 10.84975048745759 0 0 0
234 0 1 -1.1104 1.01751680555846 8.142541260021249 12.17789035743115 0 0 0
236 0 1 -1.1104 1.1673020082389522 8.18711077162196 9.635950809444799 0 0 0
238 0 1 -1.1104 1.1220831252934562 5.331763492692748 12.34142737413201 0 0 0
239 0 1 -1.1104 0.9070262757099707 11.110370993102443 12.317262700721395 0 0 0
242 0 2 2.2208 5.379831309430311 9.474758817844176 8.07901298748038 0 0 0
243 0 1 -1.1104 1.1594599964231485 5.393358059741513 9.428703495842733 0 0 0
244 0 1 -1.1104 0.98529642355594 11.050248325519174 9.51786717905272 0 0 0
246 0 1 -1.1104 3.753996936420926 8.257007502546974 12.299757436871149 0 0 0
247 0 2 2.2208 2.523586813479359 6.867518874379933 8.051076333116168 0 0 0
248 0 2 2.2208 2.525139892917924 12.397385167601398 8.00577477683083 0 0 0
249 0 1 -1.1104 3.930347537949763 8.256834609869243 9.462917661437364 0 0 0
250 0 2 2.2208 2.3669596030560482 9.692057646268939 10.870165106583409 0 0 0
251 0 1 -1.1104 3.817742044696782 5.460044551564866 12.383684319596275 0 0 0
252 0 1 -1.1104 3.7752269514192887 10.969373787015256 12.240473086073704 0 0 0
253 0 1 -1.1104 4.116689255395144 5.416155008702853 9.646278188946004 0 0 0
254 0 1 -1.1104 3.958470842207567 11.126107593706134 9.465553355387327 0 0 0
237 0 1 -1.1104 6.656614157599521 8.260169938701827 9.66828878767138 0 0 0
245 0 1 -1.1104 6.703175746669103 11.063046512028802 9.35705833841204 0 0 0
241 0 1 -1.1104 6.489309245564083 10.950369152864337 12.19734087376465 0 0 0
240 0 1 -1.1104 6.618839152976123 5.383922791860064 12.124298857922861 0 0 0
259 0 1 -1.1104 6.640053191677278 5.201149501988904 6.539738512160643 0 0 0
235 0 1 -1.1104 6.616052054974689 8.172025185897706 12.499209866845192 0 0 0
8788 0 2 2.2208 -0.3386967197190528 -1.814468729241521 2.451774384379336 0 0 0
370 0 2 2.2208 5.226750576942505 -1.6681545390127657 13.637190040261753 0 0 0
172 0 2 2.2208 13.635867350769306 6.907189358489992 7.99179240926945 0 0 0
64 0 1 -1.1104 7.322919242206629 11.0627646636206 6.542019270034596 0 0 0
283 0 1 -1.1104 6.758532737840016 19.435113943684787 12.151406019182653 0 0 0
301 0 1 -1.1104 9.498751742288503 16.639820756542115 9.64093810741369 0 0 0
255 0 1 -1.1104 9.363936150620356 11.17002407694799 9.63903979100627 0 0 0
258 0 1 -1.1104 8.882704511291697 5.769967434590851 10.021629984649941 0 0 0
260 0 1 -1.1104 9.187975771272935 10.810642247220931 12.462250534831833 0 0 0
261 0 1 -1.1104 9.482560867892298 5.058274740780153 12.543682757875816 0 0 0
262 0 2 2.2208 8.084981962375062 9.565058710142393 10.921622700168502 0 0 0
263 0 2 2.2208 8.031203615806204 12.647167178465704 8.15149737494823 0 0 0
264 0 2 2.2208 10.837994827835278 6.551487332966579 10.902533639994516 0 0 0
265 0 2 2.2208 10.993606397145774 12.436327832596914 10.735279017745732 0 0 0
266 0 1 -1.1104 12.122445498814242 8.070642935045582 12.403173929846336 0 0 0
267 0 1 -1.1104 12.382059585880018 8.006936135743596 9.620135488150225 0 0 0
268 0 1 -1.1104 12.261528425681124 5.094019377247784 12.153194893182963 0 0 0
269 0 1 -1.1104 12.102191020046577 11.032436841022491 12.398929887313328 0 0 0
270 0 1 -1.1104 12.246911212130335 5.487783734474515 9.37982822007576 0 0 0
271 0 1 -1.1104 12.451232002749373 11.115100947658036 9.489082404856813 0 0 0
272 0 1 -1.1104 9.425726470038072 8.00433442671721 12.222211514729594 0 0 0
298 0 2 2.2208 -0.29427451332549803 20.89766006712586 7.92448679123167 0 0 0
120 0 1 -1.1104 3.7859391019852233 13.53022873892726 6.564299076923602 0 0 0
122 0 1 -1.1104 3.948539437560097 19.324172055016213 6.718835047541629 0 0 0
129 0 1 -1.1104 4.012333278787592 16.554203986699633 6.6017789439004035 0 0 0
328 0 2 2.2208 -0.3378006203711865 21.0655914572638 13.58148390650818 0 0 0
51 0 1 -1.1104 12.04979100748588 13.97548385680658 9.589854902080535 0 0 0
315 0 2 2.2208 5.163510102901301 15.272024796387871 13.659545369009956 0 0 0
314 0 2 2.2208 2.5191385326432547 18.06886888032678 13.463257417326963 0 0 0
273 0 1 -1.1104 4.007555054713241 19.421540703940504 12.203073210963487 0 0 0
274 0 1 -1.1104 4.021671041033894 13.752298155287614 12.24715602928062 0 0 0
278 0 1 -1.1104 1.1480457549326113 19.45536345054807 9.468264520714543 0 0 0
279 0 1 -1.1104 1.0707922568412145 16.571637619215775 9.351987259014903 0 0 0
280 0 2 2.2208 5.296520333861761 20.736595138217908 8.087226168421351 0 0 0
281 0 1 -1.1104 1.0744911241015371 13.885650900495014 9.430186270979844 0 0 0
282 0 2 2.2208 5.2371997334544105 15.126895098711499 8.054412321729059 0 0 0
285 0 1 -1.1104 1.0840705433439795 19.445422558639045 12.113501688374567 0 0 0
286 0 1 -1.1104 0.9265960108511543 14.028755959371363 12.326839647509622 0 0 0
287 0 2 2.2208 5.307725727682565 18.004585479885172 10.765883154152185 0 0 0
288 0 1 -1.1104 3.825543278970016 19.430866793958582 9.44156648422398 0 0 0
290 0 2 2.2208 2.520882229221722 17.994807171518477 8.03815228517904 0 0 0
291 0 1 -1.1104 3.7869410454284314 16.624359597627002 9.408674263384839 0 0 0
292 0 1 -1.1104 3.7641587897562707 13.850826077305896 9.297980484474783 0 0 0
294 0 1 -1.1104 1.026167123862182 16.743887590182926 12.202166335871395 0 0 0
295 0 1 -1.1104 3.8185082487944904 16.672278672571803 12.188020623896938 0 0 0
296 0 2 2.2208 2.5003513786608766 20.812588520717938 10.892349469947865 0 0 0
297 0 2 2.2208 2.4211640018665426 15.221425568138478 10.794421722869235 0 0 0
326 0 2 2.2208 5.405092223681641 20.817445165210263 13.66548906277858 0 0 0
226 0 1 -1.1104 9.387852619496533 16.59889506988139 12.5073242532904 0 0 0
114 0 1 -1.1104 6.8407205508011 16.69293356875915 6.596256925233913 0 0 0
150 0 1 -1.1104 9.470443370028825 13.63677956713758 6.743173254573314 0 0 0
145 0 1 -1.1104 12.359634493303016 16.8593695227629 6.669860394051902 0 0 0
171 0 2 2.2208 8.125684395200526 17.992466364421052 8.056048972561738 0 0 0
205 0 2 2.2208 8.126755399188038 20.827111425386995 10.936300620638267 0 0 0
52 0 1 -1.1104 12.348095909887522 19.396282142089934 9.477741970879242 0 0 0
199 0 1 -1.1104 9.624377823949288 19.43741233432774 9.34032800529695 0 0 0
29 0 2 2.2208 10.931034729514836 18.137820728679564 10.920393299222711 0 0 0
284 0 1 -1.1104 6.873573574666875 13.746633023854766 12.400335357268643 0 0 0
200 0 2 2.2208 8.275516666301256 15.153322521751008 11.00412722317659 0 0 0
141 0 1 -1.1104 12.286981271960705 19.52074243282852 6.6097094385302055 0 0 0
133 0 1 -1.1104 9.685482140380323 13.731046892804176 12.308444006050358 0 0 0
293 0 1 -1.1104 6.6921687900701405 16.64281884068022 12.196472407135168 0 0 0
101 0 2 2.2208 10.96725374243761 20.783254434186933 8.088043307669682 0 0 0
35 0 1 -1.1104 12.350359003045538 19.503898429428105 12.308727582706352 0 0 0
139 0 1 -1.1104 12.119954513825343 13.962528011473587 6.594566768670894 0 0 0
276 0 1 -1.1104 6.623177058612339 16.545901186984246 9.377272285714103 0 0 0
8797 0 2 2.2208 -0.3114056343867304 12.502042828955002 5.092540317805001 0 0 0
308 0 2 2.2208 13.656050798914102 12.285133262925607 13.643975663222395 0 0 0
82 0 2 2.2208 8.08288973101936 6.648925537992958 13.606811264051952 0 0 0
318 0 2 2.2208 8.101446926149094 17.992645875318615 13.626617057834858 0 0 0
305 0 2 2.2208 13.663799094292994 15.213204623158223 -0.3395655677855771 0 0 0
304 0 2 2.2208 10.8175207449889 18.047741343330156 -0.35990613880666444 0 0 0
330 0 2 2.2208 5.265032193494983 1.1433115923915171 16.377472946925987 0 0 0
331 0 1 -1.1104 0.9374090901249614 -3.0736896313149478 18.012190194467408 0 0 0
332 0 1 -1.1104 0.9816197490519102 2.554854672190127 17.906732701050828 0 0 0
335 0 1 -1.1104 0.9806805405967385 -2.9993271623655224 15.087413383481282 0 0 0
337 0 1 -1.1104 1.1725540037149704 2.6052806367683563 15.143683124602175 0 0 0
343 0 1 -1.1104 1.086684612009373 -0.4495946661349719 17.912343526539424 0 0 0
345 0 2 2.2208 5.2992200145410875 -1.5678604090288204 19.249695853707774 0 0 0
346 0 2 2.2208 5.233389623439768 3.9742330648293476 19.21519888069223 0 0 0
347 0 1 -1.1104 1.1363750078570223 -0.2001542056055037 15.076144160352406 0 0 0
351 0 1 -1.1104 3.9007581332349726 -3.048127652658542 17.996370934733598 0 0 0
352 0 1 -1.1104 3.7432991737219306 2.5595793548321075 17.712766139799854 0 0 0
353 0 2 2.2208 2.460636389591106 1.227142411415518 19.205170938582196 0 0 0
354 0 1 -1.1104 3.779749574367231 -3.000582827947478 15.088868044242066 0 0 0
356 0 1 -1.1104 3.9366027943618285 2.6673875078988725 14.869131267306512 0 0 0
358 0 2 2.2208 2.486588722454532 -1.6845304484370291 16.5904607843397 0 0 0
359 0 2 2.2208 2.3924333260850488 4.0753775088541735 16.507307197635868 0 0 0
360 0 1 -1.1104 3.9431110795023794 -0.1451140374399517 17.78517854649862 0 0 0
361 0 1 -1.1104 3.8834184826363103 -0.3095522619870762 15.08782668035228 0 0 0
652 0 1 -1.1104 9.501236683247757 16.59484927874243 23.56776882012078 0 0 0
348 0 1 -1.1104 1.1356498308947158 -0.251017733254565 20.7737308856813 0 0 0
334 0 1 -1.1104 6.738796126099604 2.4986424895001615 17.867826740480965 0 0 0
333 0 1 -1.1104 6.696907496682727 -3.076246987819286 17.798684849904557 0 0 0
344 0 1 -1.1104 6.785717481580827 -0.33714845753131867 17.893714358393016 0 0 0
339 0 1 -1.1104 6.543974498703953 -2.941881887649984 15.000090147490187 0 0 0
560 0 1 -1.1104 12.226871437557298 13.865022121477763 26.39076308027423 0 0 0
338 0 1 -1.1104 1.1220483227259832 2.495452056006362 20.612286197855436 0 0 0
357 0 1 -1.1104 3.896639238233747 2.654087334503487 20.55642026313644 0 0 0
362 0 1 -1.1104 3.8863863718742273 -0.3145036257319158 20.472176738508658 0 0 0
350 0 1 -1.1104 6.695503478012412 -0.32789726145864173 20.759932829728495 0 0 0
342 0 1 -1.1104 6.727439496069683 2.5973326555381075 20.677090966144462 0 0 0
371 0 2 2.2208 2.525775992424989 1.216093860295022 13.687068696988433 0 0 0
8480 0 2 2.2208 8.123574621158664 -4.431847001632165 24.90676140624929 0 0 0
316 0 2 2.2208 10.960589577889479 20.803001157127138 13.79907011543094 0 0 0
8473 0 2 2.2208 8.09335896074771 -4.3938219792996565 19.13945154936468 0 0 0
317 0 2 2.2208 10.915107132108309 15.209011492500341 13.83977959005837 0 0 0
349 0 1 -1.1104 6.648482067625296 -0.07556923737646566 15.009374158975072 0 0 0
341 0 1 -1.1104 6.6916135267353285 2.7215878807697185 15.082566344872053 0 0 0
373 0 2 2.2208 10.624342508654982 1.1089863426935054 16.368869957212656 0 0 0
374 0 1 -1.1104 12.27303354276105 -3.066001055471474 17.908676433462634 0 0 0
375 0 1 -1.1104 12.154138593413254 2.5008674435044704 17.976309281649765 0 0 0
376 0 1 -1.1104 12.287794796335273 -3.163289747637931 15.111109414132624 0 0 0
378 0 1 -1.1104 12.293137921639666 2.502210399614841 15.070303964831112 0 0 0
380 0 1 -1.1104 12.181049628519329 -0.16976185115515208 17.724642504530824 0 0 0
381 0 2 2.2208 10.926491488207533 -1.5895179738138425 19.229141701378005 0 0 0
382 0 2 2.2208 10.9030835357161 3.9767578506165933 19.231333365017626 0 0 0
383 0 1 -1.1104 12.121113316846474 -0.38653828769230814 15.062612501356831 0 0 0
385 0 1 -1.1104 9.444854813407616 -3.0583549744233856 17.903245637799845 0 0 0
386 0 1 -1.1104 9.46245485425071 2.6240131767941426 17.81971530130938 0 0 0
387 0 2 2.2208 8.061949470852388 1.191848291315494 19.292397984298134 0 0 0
388 0 1 -1.1104 9.439083858916833 -3.192285941913806 14.933264905857241 0 0 0
390 0 1 -1.1104 9.444681359605962 2.364133291556141 14.795148993811235 0 0 0
392 0 2 2.2208 8.017330020900703 -1.6981292236328793 16.416588646833997 0 0 0
393 0 2 2.2208 8.061225150706512 3.9118792613811335 16.47682769820252 0 0 0
394 0 1 -1.1104 9.319695465660546 -0.16329247864263413 17.9642669490471 0 0 0
395 0 1 -1.1104 9.371986554287439 -0.3792053640652829 14.996789433197318 0 0 0
389 0 1 -1.1104 9.47263920182104 -3.1792321429205552 20.697644325029515 0 0 0
396 0 1 -1.1104 9.505447686759744 -0.25347959764136474 20.69049653156905 0 0 0
384 0 1 -1.1104 12.344661205803048 -0.2917623292670205 20.47483204482321 0 0 0
379 0 1 -1.1104 12.311060728402522 2.497204863074398 20.82030526746763 0 0 0
8845 0 2 2.2208 13.629051504304979 1.161544020031246 19.237225520911498 0 0 0
521 0 1 -1.1104 9.395228333549033 13.734381115225434 20.736855387817666 0 0 0
400 0 2 2.2208 10.929257954016323 3.855932755191603 13.761352732024415 0 0 0
8469 0 2 2.2208 5.241099246195169 -4.363703141151835 16.383662707739237 0 0 0
593 0 2 2.2208 -0.27815710725950243 12.340187437775265 16.548686177507562 0 0 0