LAMMPS (29 Oct 2020)
OMP_NUM_THREADS environment is not set. Defaulting to 1 thread. (../comm.cpp:94)
  using 1 OpenMP thread(s) per MPI task
OMP_NUM_THREADS environment is not set. Defaulting to 1 thread. (../comm.cpp:94)
  using 1 OpenMP thread(s) per MPI task
Lattice spacing in x,y,z = 5.5788000 5.5788000 5.5788000
Created orthogonal box = (0.0000000 0.0000000 0.0000000) to (27.894000 334.72800 27.894000)
  2 by 13 by 2 MPI processor grid
Changing box ...
  triclinic box = (0.0000000 0.0000000 0.0000000) to (27.894000 334.72800 27.894000) with tilt (0.0000000 0.0000000 0.0000000)
Created 12000 atoms
  create_atoms CPU = 0.007 seconds
Lattice spacing in x,y,z = 5.5788000 5.5788000 5.5788000
Created 6000 atoms
  create_atoms CPU = 0.002 seconds
12000 atoms in group oxygen
6000 atoms in group uranium
Setting atom values ...
  22 settings made for type/ratio
Setting atom values ...
  22 settings made for type/ratio
22 atoms in group anti_oxygen
22 atoms in group anti_uranium
Setting atom values ...
  22 settings made for type
Setting atom values ...
  22 settings made for type
Setting atom values ...
  12000 settings made for charge
Setting atom values ...
  6000 settings made for charge
PPPM initialization ...
  using 12-bit tables for long-range coulomb (../kspace.cpp:328)
  G vector (1/distance) = 0.29916851
  grid = 40 240 40
  stencil order = 5
  estimated absolute RMS force accuracy = 0.00015502622
  estimated relative force accuracy = 1.0765975e-05
  using single precision MKL FFT
  3d grid and FFT values/proc = 18225 7600
Neighbor list info ...
  update every 1 steps, delay 0 steps, check yes
  max neighbors/atom: 2000, page size: 100000
  master list distance cutoff = 13
  ghost atom cutoff = 13
  binsize = 6.5, bins = 5 52 5
  2 neighbor lists, perpetual/occasional/extra = 2 0 0
  (1) pair coul/long, perpetual
      attributes: half, newton on
      pair build: half/bin/newton/tri
      stencil: half/bin/3d/newton/tri
      bin: standard
  (2) pair eam/alloy, perpetual, copy from (1)
      attributes: half, newton on
      pair build: copy
      stencil: none
      bin: none
Setting up cg style minimization ...
  Unit style    : metal
  Current step  : 0
WARNING: Energy due to 3 extra global DOFs will be included in minimizer energies
Per MPI rank memory allocation (min/avg/max) = 10.42 | 10.45 | 10.47 Mbytes
Step Temp E_pair E_mol TotEng Press Volume 
       0            0   -232429.76            0   -232429.76    14303.058    260443.57 
     829            0   -235528.01            0   -235528.01    138.17647    263794.26 
Loop time of 14.1362 on 52 procs for 829 steps with 18000 atoms

99.5% CPU use with 52 MPI tasks x 1 OpenMP threads

Minimization stats:
  Stopping criterion = linesearch alpha is zero
  Energy initial, next-to-last, final = 
     -232429.763555041  -235528.010984748  -235528.010984748
  Force two-norm initial, final = 5386.2722 45.547724
  Force max component initial, final = 3798.0178 23.180158
  Final line search alpha, max atom move = 4.4688628e-12 1.0358894e-10
  Iterations, force evaluations = 829 1162

MPI task timing breakdown:
Section |  min time  |  avg time  |  max time  |%varavg| %total
---------------------------------------------------------------
Pair    | 7.4782     | 7.9015     | 8.4671     |   8.1 | 55.90
Bond    | 0.00010651 | 0.0001441  | 0.00020364 |   0.0 |  0.00
Kspace  | 2.3495     | 2.9198     | 3.3516     |  13.2 | 20.66
Neigh   | 0.020875   | 0.02347    | 0.027687   |   1.0 |  0.17
Comm    | 0.26939    | 0.27763    | 0.29357    |   1.0 |  1.96
Output  | 0          | 0          | 0          |   0.0 |  0.00
Modify  | 0          | 0          | 0          |   0.0 |  0.00
Other   |            | 3.014      |            |       | 21.32

Nlocal:        346.154 ave         412 max         300 min
Histogram: 4 9 5 5 10 8 8 1 1 1
Nghost:        5656.83 ave        5820 max        5500 min
Histogram: 2 10 7 1 1 11 9 3 5 3
Neighs:       111624.0 ave      132960 max       96226 min
Histogram: 2 9 7 4 10 9 8 1 1 1

Total # of neighbors = 5804426
Ave neighs/atom = 322.46811
Ave special neighs/atom = 0.0000000
Neighbor list builds = 6
Dangerous builds = 0
PPPM initialization ...
  using 12-bit tables for long-range coulomb (../kspace.cpp:328)
  G vector (1/distance) = 0.29898277
  grid = 40 240 40
  stencil order = 5
  estimated absolute RMS force accuracy = 0.00015628065
  estimated relative force accuracy = 1.0853091e-05
  using single precision MKL FFT
  3d grid and FFT values/proc = 18225 7600
Setting up Verlet run ...
  Unit style    : metal
  Current step  : 0
  Time step     : 0.001
Per MPI rank memory allocation (min/avg/max) = 10.56 | 10.59 | 10.61 Mbytes
Step Dt Time Atoms Temp PotEng KinEng Press Volume v_latt 
       0        0.001            0    18000         1500   -235528.02      3489.83    14268.317    263794.26    5.6026464 
   50000        0.001           50    18000    1504.2242   -232787.51    3499.6579    40.451836    273481.71    5.6703826 
  100000        0.001          100    18000    1479.3846   -232865.18    3441.8671   -1990.3974    273504.59    5.6705406 
Loop time of 944.597 on 52 procs for 100000 steps with 18000 atoms

Performance: 9.147 ns/day, 2.624 hours/ns, 105.865 timesteps/s
99.8% CPU use with 52 MPI tasks x 1 OpenMP threads

MPI task timing breakdown:
Section |  min time  |  avg time  |  max time  |%varavg| %total
---------------------------------------------------------------
Pair    | 546.47     | 559.25     | 574.63     |  25.4 | 59.21
Bond    | 0.0086222  | 0.014083   | 0.018448   |   1.8 |  0.00
Kspace  | 196.28     | 213.07     | 226.47     |  43.8 | 22.56
Neigh   | 12.942     | 13.387     | 14.203     |   9.8 |  1.42
Comm    | 27.193     | 27.94      | 28.634     |   8.0 |  2.96
Output  | 0.0076286  | 0.007639   | 0.007963   |   0.1 |  0.00
Modify  | 114.88     | 121.42     | 126.94     |  26.4 | 12.85
Other   |            | 9.507      |            |       |  1.01

Nlocal:        346.154 ave         371 max         324 min
Histogram: 2 1 8 6 14 9 5 3 1 3
Nghost:        5488.54 ave        5605 max        5360 min
Histogram: 2 3 3 10 8 6 4 10 2 4
Neighs:       106165.0 ave      113499 max       99146 min
Histogram: 2 1 5 11 12 7 3 6 1 4

Total # of neighbors = 5520601
Ave neighs/atom = 306.70006
Ave special neighs/atom = 0.0000000
Neighbor list builds = 3368
Dangerous builds = 0
System init for write_data ...
PPPM initialization ...
  using 12-bit tables for long-range coulomb (../kspace.cpp:328)
  G vector (1/distance) = 0.29825675
  grid = 40 240 40
  stencil order = 5
  estimated absolute RMS force accuracy = 0.00016247002
  estimated relative force accuracy = 1.1282919e-05
  using single precision MKL FFT
  3d grid and FFT values/proc = 18225 7600
Total wall time: 0:15:59
