LAMMPS data file via write_data, version 29 Oct 2020, timestep = 100018

17640 atoms
2 atom types

-0.4068144450920576 27.746814445092646 xlo xhi
-4.727049886626688 332.80704988662063 ylo yhi
-0.39475085939317506 27.734750859393156 zlo zhi

Masses

1 15.9994
2 232.0381

Atoms # full

1 0 2 2.2208 5.358854736787853 0.8588508504865126 5.135618973041944 0 0 0
2 0 1 -1.1104 1.2657310795030736 -3.3965757781633337 1.0302994001239507 0 0 0
3 0 1 -1.1104 1.0918524061756438 2.1926728435299743 0.9439213055441855 0 0 0
6 0 1 -1.1104 1.2447327813504392 -3.50600935529044 3.843228028454048 0 0 0
7 0 1 -1.1104 1.2102064926248501 2.082225092058508 3.988742374214939 0 0 0
10 0 1 -1.1104 1.2961115574792437 -0.6198239568422237 0.8982526026889969 0 0 0
12 0 2 2.2208 5.334945600284395 -2.0594996032719766 2.4945365669541846 0 0 0
14 0 1 -1.1104 1.0978634275988035 -0.5678809011743716 3.5930959030477156 0 0 0
16 0 1 -1.1104 4.015917175186099 -3.4727033555007862 0.9714829411244994 0 0 0
17 0 1 -1.1104 3.9762593044790537 2.1502211049066147 0.9592971321645966 0 0 0
18 0 2 2.2208 2.5609913251578478 0.7709229014275862 2.3040159017554744 0 0 0
19 0 1 -1.1104 3.9756144532537836 -3.3260170941243072 3.809894727380684 0 0 0
20 0 1 -1.1104 4.161318357593115 2.3085318707188685 3.791474734909207 0 0 0
21 0 2 2.2208 2.541237803064964 -1.9284441765791493 5.080985877704796 0 0 0
23 0 1 -1.1104 4.016355630861458 -0.6502186051386606 1.0218391200209478 0 0 0
24 0 1 -1.1104 3.848742350822269 -0.4965086700918821 3.8242991762741063 0 0 0
22 0 2 2.2208 2.5616280801076265 3.665629283614564 5.263204761883222 0 0 0
13 0 2 2.2208 5.6890626247774225 3.590774762176962 2.4131516130914354 0 0 0
82 0 2 2.2208 -0.21694481917316696 9.18950514870336 2.4914394095853565 0 0 0
26 0 2 2.2208 -0.30532790439120366 0.6937053551162297 5.057433992083115 0 0 0
25 0 2 2.2208 -0.20330814440158979 -2.0461899176260703 2.3064929572749833 0 0 0
340 0 2 2.2208 5.573205580826438 3.6653994535326615 13.641496542528497 0 0 0
15 0 1 -1.1104 6.833957894523644 -0.5428640240458595 3.719502419887393 0 0 0
9454 0 2 2.2208 -0.23625403336891054 20.54962915220553 13.421460976066237 0 0 0
27 0 2 2.2208 -0.20458067071291197 3.7817109531185755 2.4958607599010527 0 0 0
333 0 2 2.2208 0.06669733248128933 9.399951375784104 8.103722867941109 0 0 0
372 0 2 2.2208 0.07946365591441724 17.703113243218088 -0.1241786511739519 0 0 0
202 0 2 2.2208 2.5932158114545603 -4.688491220548166 8.189593634642227 0 0 0
9 0 1 -1.1104 6.88876673548812 2.2720290083879005 4.069586627612051 0 0 0
11 0 1 -1.1104 6.815129193756532 -0.8038634460904185 1.0164319606090364 0 0 0
8 0 1 -1.1104 6.617809530966019 -3.2005734058881443 4.041833395337527 0 0 0
4 0 1 -1.1104 6.96526643458767 -3.5403321518483986 1.1849900919091112 0 0 0
5 0 1 -1.1104 6.713702273584333 2.046123683520121 1.098766873289026 0 0 0
31 0 2 2.2208 11.063306217136908 0.854427835220403 5.255043427098613 0 0 0
32 0 1 -1.1104 12.447755056120373 -3.410679445088938 0.9042797419942814 0 0 0
33 0 1 -1.1104 12.351117869854349 2.214104361685488 0.9326969439689797 0 0 0
34 0 1 -1.1104 12.46909484725019 -3.433509503927724 3.914410350630887 0 0 0
35 0 1 -1.1104 12.488881721652687 2.1800491911396302 3.6074034706807856 0 0 0
36 0 1 -1.1104 12.427947259416724 -0.6608812873690569 0.8899221965512636 0 0 0
37 0 2 2.2208 11.021091596940778 -2.0792235400657315 2.420249520853527 0 0 0
39 0 1 -1.1104 12.506120918589176 -0.4300414207492825 3.7112585535377094 0 0 0
40 0 1 -1.1104 9.706355179038932 -3.469606793971 1.0369213567363615 0 0 0
41 0 1 -1.1104 9.362104649075711 2.3593479672381235 1.1088796024154293 0 0 0
42 0 2 2.2208 8.248385039659077 0.6851001611556147 2.3436325051140883 0 0 0
43 0 1 -1.1104 9.647809889513258 -3.4784619159816734 3.882124383004794 0 0 0
44 0 1 -1.1104 9.582094720027028 2.0276639257219182 3.81346024410039 0 0 0
45 0 2 2.2208 8.10991076648706 -1.979553980508127 5.211703766548835 0 0 0
47 0 1 -1.1104 9.70606754685279 -0.6263053032029753 0.9154891252511989 0 0 0
48 0 1 -1.1104 9.566193290294237 -0.7927389758348728 3.6948070299758857 0 0 0
206 0 1 -1.1104 12.657154278250134 2.1669726258415762 6.348325658148553 0 0 0
200 0 2 2.2208 -0.20007800223653083 -1.9369348930864163 8.008378479635656 0 0 0
332 0 2 2.2208 -0.1504516405241851 12.132197358908861 10.738676322292514 0 0 0
38 0 2 2.2208 10.938337440602766 3.6062348904810437 2.4003513551605242 0 0 0
46 0 2 2.2208 8.304711891730461 3.671067729335528 5.327491663346786 0 0 0
171 0 1 -1.1104 6.820852536478193 -0.5736578987940393 6.642768397402604 0 0 0
168 0 1 -1.1104 6.939022601030872 -3.3193779999558584 6.746324689973603 0 0 0
210 0 1 -1.1104 9.669297795991431 -0.6359380527754354 6.481542289657381 0 0 0
379 0 2 2.2208 5.562640357970126 6.417986889754413 -0.38409028077025104 0 0 0
374 0 2 2.2208 2.884390702477427 14.831539780606299 -0.37975289828908304 0 0 0
204 0 2 2.2208 -0.13284582110684198 -4.692674178790626 10.939795449474357 0 0 0
54 0 2 2.2208 5.427121843248969 6.534525875564163 5.135259023949135 0 0 0
55 0 2 2.2208 5.495405296367549 12.045767828510867 5.308911470966439 0 0 0
56 0 1 -1.1104 1.2625218085428682 7.879332531657396 1.0994471802186006 0 0 0
58 0 1 -1.1104 1.2680154356865088 7.9516092205335385 3.842598751591326 0 0 0
60 0 1 -1.1104 1.4907211038508024 4.978960132483917 0.9575584333394508 0 0 0
61 0 1 -1.1104 1.655916656950335 10.72480082013388 1.1147181742136036 0 0 0
66 0 2 2.2208 5.544991260428532 9.31523497364235 2.4651654508358445 0 0 0
67 0 1 -1.1104 1.337806905231332 5.170752476167629 3.7913366599172407 0 0 0
68 0 1 -1.1104 1.1914799568606704 10.604725603730449 3.8259987936768627 0 0 0
71 0 1 -1.1104 4.028055769138507 7.647106711862724 0.8469792437519236 0 0 0
72 0 2 2.2208 2.8703990191962894 6.351524866554416 2.3179042115421655 0 0 0
74 0 1 -1.1104 4.100058537439147 7.901203071545734 3.9009378837829236 0 0 0
75 0 2 2.2208 2.7471585118669015 9.133150007736363 5.260789709736505 0 0 0
76 0 1 -1.1104 4.317640185870912 4.899292485065772 1.1917089893844965 0 0 0
77 0 1 -1.1104 4.300822842130233 10.626226738507532 0.937328501239164 0 0 0
79 0 1 -1.1104 4.159838808697836 5.008627713347099 3.8536199419183927 0 0 0
80 0 1 -1.1104 4.064391493571273 10.816904613326564 3.986225763583056 0 0 0
73 0 2 2.2208 2.667988736603911 12.16288058989298 2.593814835314423 0 0 0
81 0 2 2.2208 -0.20528976075419822 6.484134393809943 5.327915264882362 0 0 0
383 0 2 2.2208 -0.07352105839706535 6.4635928569958025 -0.38484033026354403 0 0 0
380 0 2 2.2208 2.6264901758599652 9.194338559065304 -0.2815510723764629 0 0 0
143 0 1 -1.1104 12.627778086301188 13.640889413091779 6.714941310694488 0 0 0
306 0 1 -1.1104 6.9568517331567765 16.290870031971163 12.316968588811905 0 0 0
234 0 1 -1.1104 1.1867491139734923 7.839676608200976 6.7149553473829195 0 0 0
350 0 2 2.2208 8.173929217528533 20.493807347255213 -0.15763945785629177 0 0 0
360 0 2 2.2208 2.617959147970136 17.647735295006626 13.59187082293721 0 0 0
63 0 1 -1.1104 7.119894597444492 4.912523671686316 0.7514492068404102 0 0 0
59 0 1 -1.1104 6.846086253283047 7.862283919400662 3.760172111928401 0 0 0
64 0 1 -1.1104 7.0680272290761215 10.663405747000509 1.2399946686045409 0 0 0
69 0 1 -1.1104 6.91692793582078 5.074304911040695 3.8112094012978073 0 0 0
70 0 1 -1.1104 6.874721859692821 10.762805754984953 4.084850029211845 0 0 0
57 0 1 -1.1104 6.7237987899008935 7.956684397944282 1.1294191420794226 0 0 0
84 0 2 2.2208 11.188053759807087 6.369632506650067 5.168805294550255 0 0 0
85 0 2 2.2208 11.196377730569527 12.106142296795634 5.2650103945238484 0 0 0
86 0 1 -1.1104 12.496463977653212 7.953329144517927 1.0207053498789431 0 0 0
87 0 1 -1.1104 12.458373928945104 7.856350380955523 3.841665163640403 0 0 0
88 0 1 -1.1104 12.513252115966178 5.124034237687196 0.9696732150774583 0 0 0
89 0 1 -1.1104 12.403509876887178 10.654317240356226 1.0360013409564406 0 0 0
91 0 2 2.2208 11.050570704542757 9.308636364161735 2.3841209987619645 0 0 0
92 0 1 -1.1104 12.348293852085142 4.96380283485103 3.8462364808091896 0 0 0
93 0 1 -1.1104 12.580239347188792 10.74823472769197 4.015283169009164 0 0 0
94 0 1 -1.1104 9.56309655778604 8.000366827009929 1.1194684309224565 0 0 0
95 0 2 2.2208 8.367365089899574 6.564091298441097 2.438435918881888 0 0 0
96 0 2 2.2208 8.28935891309778 12.172069550035726 2.5117684050314626 0 0 0
97 0 1 -1.1104 9.720776812834588 7.788116541173757 3.8277558688803524 0 0 0
98 0 2 2.2208 8.129720456729295 9.291733627904964 5.215467452951914 0 0 0
99 0 1 -1.1104 9.792206916456813 5.124874905886159 0.9543935376253402 0 0 0
100 0 1 -1.1104 9.57254314269286 10.62627243903785 0.9935702207337267 0 0 0
102 0 1 -1.1104 9.3802710121092 4.8323170162744145 3.729060212931452 0 0 0
103 0 1 -1.1104 9.702516926788062 10.714149842949581 3.916862353776572 0 0 0
266 0 1 -1.1104 12.399391107165105 5.053312763820727 6.684351657155359 0 0 0
235 0 1 -1.1104 6.80253643669626 7.995196011461881 6.480098465946076 0 0 0
349 0 2 2.2208 11.086773991119058 17.73404641162993 -0.37281790499905126 0 0 0
137 0 2 2.2208 -0.16290961716504157 17.636032533768642 5.158345155462485 0 0 0
136 0 2 2.2208 -0.13258693914631572 20.552039339712337 2.303464853232149 0 0 0
106 0 2 2.2208 5.513980334333689 17.539827610010022 5.275121248167428 0 0 0
107 0 1 -1.1104 1.2683165836983152 13.518989160513204 1.0314371130332007 0 0 0
109 0 1 -1.1104 1.3122150205510608 19.162722750558938 1.157818336608212 0 0 0
113 0 1 -1.1104 1.2456703751606717 13.518844693491916 3.9672811830906958 0 0 0
114 0 1 -1.1104 1.3300450848869312 19.028263031342487 3.774679964117261 0 0 0
116 0 1 -1.1104 1.451899623195747 16.39138604977076 1.174570460012015 0 0 0
119 0 2 2.2208 5.5598293453156975 14.910506603228765 2.535832305405804 0 0 0
120 0 2 2.2208 5.49548525004411 20.506677303792497 2.415342647409641 0 0 0
121 0 1 -1.1104 1.4560001803467346 16.231389976972697 4.005832443266507 0 0 0
123 0 1 -1.1104 4.1314459506565315 13.55439116061817 1.1959285070502703 0 0 0
125 0 1 -1.1104 3.9814105131327846 19.217976155301336 0.9787677823412713 0 0 0
127 0 2 2.2208 2.803589549672741 17.79245649703528 2.4870188750109574 0 0 0
128 0 1 -1.1104 3.978886411980433 13.51310071128019 3.9834560044609977 0 0 0
129 0 1 -1.1104 4.261262339005585 19.172976211954772 3.913832147243198 0 0 0
130 0 2 2.2208 2.8290377200501484 14.800580487553972 5.331885396903198 0 0 0
131 0 2 2.2208 2.7110188579161183 20.48801313483323 5.095031072966176 0 0 0
132 0 1 -1.1104 4.291835793552345 16.400591811198655 1.2226358384752403 0 0 0
134 0 1 -1.1104 4.1749525779624035 16.3357846410215 3.8378264136539366 0 0 0
135 0 2 2.2208 0.05425863870227498 14.95154419413375 2.4883555951672216 0 0 0
327 0 1 -1.1104 12.6768188463503 19.049340484646052 9.449574069337569 0 0 0
133 0 1 -1.1104 4.004791772864346 16.297864255354853 6.60686217975125 0 0 0
156 0 1 -1.1104 9.714048971604424 19.33127290945716 6.547154406892585 0 0 0
325 0 2 2.2208 11.073476921662893 14.966166538579866 8.133103415413986 0 0 0
314 0 1 -1.1104 9.728043392336176 16.403177922162975 9.44206863767043 0 0 0
322 0 1 -1.1104 9.581624373662253 13.3814113030085 12.403610436846906 0 0 0
115 0 1 -1.1104 6.856367869117514 13.397105385987192 4.0419708908302265 0 0 0
122 0 1 -1.1104 6.9297036415359905 16.217308102842164 3.980993245562659 0 0 0
110 0 1 -1.1104 6.804008918088868 13.445414464504593 1.2735136952900452 0 0 0
139 0 1 -1.1104 6.922112679101996 18.864589249936998 3.77364646429222 0 0 0
138 0 1 -1.1104 6.804440239755158 19.06150944750895 1.1502721015912085 0 0 0
140 0 1 -1.1104 7.213247104245432 16.202991687462028 1.1766738189463513 0 0 0
141 0 2 2.2208 11.219933057249229 17.694762237975326 5.155361363951108 0 0 0
142 0 1 -1.1104 12.315869095302963 13.343309544346141 1.0253163006159893 0 0 0
144 0 1 -1.1104 12.589850110415416 19.331417945348576 1.116625367522499 0 0 0
146 0 1 -1.1104 12.67595059330987 13.436830625764204 3.8091583736435926 0 0 0
147 0 1 -1.1104 12.442893405275653 19.0356168935168 3.874733818359016 0 0 0
148 0 1 -1.1104 12.592728259606819 16.31698421496239 0.962672812315067 0 0 0
150 0 2 2.2208 11.13663090050213 14.779557064004171 2.4165712300266526 0 0 0
151 0 2 2.2208 11.08335814386124 20.53064143827804 2.4672403016406976 0 0 0
152 0 1 -1.1104 12.63467143210218 16.086596343049855 3.650633743509492 0 0 0
153 0 1 -1.1104 9.605893307735744 13.513850629813604 0.8705684357686252 0 0 0
155 0 1 -1.1104 9.765542954763546 19.122682272208685 1.048609537466444 0 0 0
157 0 2 2.2208 8.398234848655594 17.60274792965033 2.5279270500773734 0 0 0
158 0 1 -1.1104 9.677256428267647 13.499072798348122 3.808949681150309 0 0 0
159 0 1 -1.1104 9.596633393415757 19.088977014462 3.7641764771005812 0 0 0
160 0 2 2.2208 8.258107923558486 14.946469266863742 5.225748934554611 0 0 0
161 0 2 2.2208 8.140781635320803 20.563753496042306 5.135065788720292 0 0 0
162 0 1 -1.1104 9.827069384933198 16.280395275717474 1.0985381021170602 0 0 0
164 0 1 -1.1104 9.77537722660434 16.176440509929776 3.934453924350017 0 0 0
163 0 1 -1.1104 9.66539990840725 16.327789498469652 6.682521557748661 0 0 0
361 0 2 2.2208 5.332969705157709 20.520523866975168 13.557060351595235 0 0 0
145 0 1 -1.1104 12.419147806194722 19.055326935881574 6.694464042821669 0 0 0
111 0 1 -1.1104 6.712144374525909 13.562006545142124 6.84275512075855 0 0 0
172 0 1 -1.1104 3.982118081166145 -3.2525155974933297 6.815841040108536 0 0 0
83 0 2 2.2208 -0.0405817364516607 12.084456371245448 5.120566104782284 0 0 0
364 0 2 2.2208 11.193029923340458 14.939144920737741 13.635721160646732 0 0 0
199 0 2 2.2208 -0.1664976242159104 3.654918215210184 8.005053255963206 0 0 0
167 0 1 -1.1104 1.3040536017346702 2.3417443839209047 6.726271396307398 0 0 0
329 0 1 -1.1104 12.493643645430192 19.071565964116314 12.270184040094001 0 0 0
166 0 1 -1.1104 1.239643522992523 -3.5539532373150506 6.558153909583226 0 0 0
170 0 1 -1.1104 1.1768269616289244 -0.7237936331028808 6.547615473478948 0 0 0
173 0 1 -1.1104 4.041629718317091 2.1932349852469804 6.690804981806829 0 0 0
174 0 1 -1.1104 3.9238907173107593 -0.47772616655700784 6.610513967720805 0 0 0
201 0 2 2.2208 -0.18847309454669484 0.724662858636197 11.054056411669945 0 0 0
175 0 2 2.2208 5.518518376969288 0.7841371795185743 10.731159176157323 0 0 0
176 0 1 -1.1104 1.1862035455804472 -3.305222287259017 12.311890950822361 0 0 0
177 0 1 -1.1104 1.3242826571858044 2.222853961349221 12.37008062342532 0 0 0
180 0 1 -1.1104 1.4114889749817132 -3.232513380062643 9.449077808143137 0 0 0
181 0 1 -1.1104 1.236376883468334 2.1804299292574316 9.570403697266155 0 0 0
184 0 1 -1.1104 1.350504559599295 -0.49011770872622445 12.287586502298067 0 0 0
186 0 2 2.2208 5.441837725659515 -1.9240345705878201 7.965519054283754 0 0 0
188 0 1 -1.1104 0.9595406486239969 -0.4215027416718959 9.506163816997278 0 0 0
190 0 1 -1.1104 3.954370654465 -3.2087514411538365 12.307886993888955 0 0 0
191 0 1 -1.1104 4.117467550083598 2.2029675852404185 12.429257899113745 0 0 0
192 0 2 2.2208 2.4434384050102005 0.7332667727932681 8.097040661511345 0 0 0
193 0 1 -1.1104 4.082286916377617 -3.3047611980884226 9.505091831595518 0 0 0
194 0 1 -1.1104 4.10865927255039 2.391228876550162 9.517610538164227 0 0 0
195 0 2 2.2208 2.6988918509717275 -1.8302908745540805 10.931144208041403 0 0 0
197 0 1 -1.1104 4.135479902886105 -0.5487070912573293 12.27229854832889 0 0 0
198 0 1 -1.1104 3.87828339049104 -0.5624422192762245 9.354377284681178 0 0 0
187 0 2 2.2208 5.3173485199385 3.6317802164842363 8.069331289498813 0 0 0
289 0 1 -1.1104 6.955343500527285 16.26791618298717 9.572298880663737 0 0 0
196 0 2 2.2208 2.4874447158706103 3.6073952839511354 10.851381938530187 0 0 0
321 0 1 -1.1104 9.696067108638358 19.19498935176871 12.221651819788601 0 0 0
205 0 1 -1.1104 12.434567410431761 -3.253689689060122 6.630645163067849 0 0 0
207 0 1 -1.1104 12.316943162722193 -0.495725671299124 6.552103955951874 0 0 0
112 0 1 -1.1104 6.960117095577218 19.075571063154932 6.326547068271911 0 0 0
208 0 1 -1.1104 9.617059973108464 -3.4965822713622217 6.747009848897197 0 0 0
169 0 1 -1.1104 6.871799647029987 2.2746583244432648 6.529796693804739 0 0 0
154 0 1 -1.1104 9.68442916271382 13.501945316007324 6.649074883400303 0 0 0
209 0 1 -1.1104 9.828744295628796 2.37384371648135 6.626657074205392 0 0 0
179 0 1 -1.1104 6.962822693308766 2.080012005000936 12.270735193372753 0 0 0
183 0 1 -1.1104 6.909584703741885 2.1492100454800447 9.450743427801298 0 0 0
185 0 1 -1.1104 6.961572388845968 -0.6421731516643846 12.29780134754811 0 0 0
178 0 1 -1.1104 6.8968455259308685 -3.4846013905990154 12.266113619558784 0 0 0
182 0 1 -1.1104 6.914179158197675 -3.3274378793157666 9.513676158178068 0 0 0
189 0 1 -1.1104 6.765779121200797 -0.49292133412247 9.359159628091765 0 0 0
211 0 2 2.2208 11.039035276798568 0.7532355827995727 10.744545344151097 0 0 0
212 0 1 -1.1104 12.373578558091971 -3.368749792629869 12.43664014353252 0 0 0
213 0 1 -1.1104 12.423536779406781 2.206993587499761 11.951832368016877 0 0 0
214 0 1 -1.1104 12.600792950679553 -3.3749185896129377 9.36669247125335 0 0 0
215 0 1 -1.1104 12.447540449900695 2.3118611325091027 9.046986448086972 0 0 0
216 0 1 -1.1104 12.576453403650188 -0.5597661400871474 12.1537729051617 0 0 0
217 0 2 2.2208 11.147877903878594 -1.9758984383170874 8.091367826137724 0 0 0
219 0 1 -1.1104 12.433725648841136 -0.5790426894152151 9.392464973146563 0 0 0
220 0 1 -1.1104 9.684321352296196 -3.4783370789056827 12.210957980419327 0 0 0
221 0 1 -1.1104 9.852570143942659 2.2460757073243904 12.135887533125592 0 0 0
222 0 2 2.2208 8.24534750301506 0.7225692085911608 8.046260004394595 0 0 0
223 0 1 -1.1104 9.861570986389783 -3.3279270074903495 9.46651343960866 0 0 0
224 0 1 -1.1104 9.766135601856389 2.346635190160213 9.358129231480499 0 0 0
225 0 2 2.2208 8.327343741093818 -2.0780497293989146 10.938762845665606 0 0 0
227 0 1 -1.1104 9.639119019923145 -0.5120608908002988 12.23997087680954 0 0 0
228 0 1 -1.1104 9.657130033257811 -0.4954338805795901 9.548894458385664 0 0 0
226 0 2 2.2208 8.34572957107379 3.594758604064209 10.84385472111088 0 0 0
218 0 2 2.2208 10.977050930138358 3.853263487818971 7.937270387567301 0 0 0
296 0 1 -1.1104 7.028845614821006 19.22348664449468 12.364862237376943 0 0 0
62 0 1 -1.1104 1.5614803462446234 10.625432439578915 6.679757265182674 0 0 0
238 0 1 -1.1104 4.040348567895967 7.708337185615526 6.594851411045364 0 0 0
78 0 1 -1.1104 4.067585048855488 10.479509858241807 6.7203630330627675 0 0 0
239 0 1 -1.1104 4.109808041505518 5.040092783479453 6.609139992882111 0 0 0
236 0 1 -1.1104 1.2098975511866283 4.992724088586501 6.494903721204392 0 0 0
334 0 2 2.2208 -0.2289842291346095 6.488896546803758 10.941342384945814 0 0 0
240 0 2 2.2208 5.453934062265425 6.440616317105919 10.818900155477193 0 0 0
241 0 2 2.2208 5.4888694325274106 12.075014599322529 10.932716193547801 0 0 0
242 0 1 -1.1104 1.227392105634166 7.788904502241809 12.181138157687535 0 0 0
244 0 1 -1.1104 1.1329252995314174 7.840046021601387 9.310075693254193 0 0 0
246 0 1 -1.1104 1.0725941127380165 4.963574970294038 12.244690164956177 0 0 0
247 0 1 -1.1104 1.3271950199321583 10.75114579286744 12.259688541167169 0 0 0
250 0 2 2.2208 5.49083342813125 9.197009819002922 8.038992355215138 0 0 0
251 0 1 -1.1104 1.1147106078401876 5.115091434655675 9.394713323008421 0 0 0
252 0 1 -1.1104 1.2402023170097691 10.746828426252396 9.501512440263072 0 0 0
255 0 1 -1.1104 4.1217986297712725 7.712891548363588 12.295323407581437 0 0 0
256 0 2 2.2208 2.5833067713004234 6.449763165205824 8.0851533232622 0 0 0
257 0 2 2.2208 2.7616888788351 12.09687880510096 8.181148439373017 0 0 0
258 0 1 -1.1104 4.099549373594876 7.921760954482812 9.446876225917583 0 0 0
259 0 2 2.2208 2.699650542233648 9.25827658721683 11.024365101816278 0 0 0
260 0 1 -1.1104 4.218379499835401 5.0066638419908625 12.472297178795735 0 0 0
261 0 1 -1.1104 4.168913113170819 10.735539624975933 12.363836557034883 0 0 0
262 0 1 -1.1104 3.7525392638865513 5.120535172442451 9.622011076411193 0 0 0
263 0 1 -1.1104 3.9577064851806014 10.708716678967747 9.687303683958351 0 0 0
318 0 1 -1.1104 9.62974276878471 19.094616973542763 9.377730103603472 0 0 0
243 0 1 -1.1104 6.85607350845406 7.813317911967721 12.238109134284128 0 0 0
245 0 1 -1.1104 6.9387954284954505 7.726935578996131 9.26525069672242 0 0 0
165 0 1 -1.1104 12.54037163135722 13.425991805564982 12.086547465597516 0 0 0
326 0 1 -1.1104 12.538261259176604 16.35304375686875 12.31665463686715 0 0 0
317 0 2 2.2208 8.257938073520627 14.880476590595261 10.940217884653446 0 0 0
237 0 1 -1.1104 6.943135564882638 5.163650687135391 6.590781703785294 0 0 0
269 0 1 -1.1104 9.657704345051336 5.205889448529371 6.437409332706124 0 0 0
90 0 1 -1.1104 12.483696505380522 10.791363842957118 6.623322115322138 0 0 0
65 0 1 -1.1104 6.903989921952804 10.730804516638592 6.693019182156891 0 0 0
101 0 1 -1.1104 9.652451627355086 10.725582769891862 6.615516934306149 0 0 0
265 0 1 -1.1104 12.513257383472544 7.721175166556004 6.644223584623009 0 0 0
267 0 1 -1.1104 9.692307756362453 7.878455086667885 6.512216451154733 0 0 0
248 0 1 -1.1104 6.920748622183079 4.954082886410619 12.120122250390748 0 0 0
254 0 1 -1.1104 6.612393950848414 10.631251575757508 9.650577054308433 0 0 0
253 0 1 -1.1104 6.754866363357069 5.079066852884059 9.295792414743778 0 0 0
249 0 1 -1.1104 6.841046251762531 10.562828285557721 12.533103209934142 0 0 0
264 0 1 -1.1104 9.410532595869041 10.606455779786165 9.511634983035568 0 0 0
268 0 1 -1.1104 9.488154461768858 4.943695857119989 9.399000797067032 0 0 0
270 0 1 -1.1104 9.557962905670772 10.557092836900102 12.110211001200904 0 0 0
271 0 1 -1.1104 9.82590113578101 4.8706810335209685 12.123903816520324 0 0 0
272 0 2 2.2208 8.275699165699379 9.185606154499036 10.803054469396594 0 0 0
273 0 1 -1.1104 9.689636561307204 7.900874609236975 9.389300096993429 0 0 0
274 0 2 2.2208 8.268391029202412 12.136882872221022 8.035239484548397 0 0 0
275 0 2 2.2208 8.214798291149632 6.542328316226735 7.856027394636965 0 0 0
276 0 2 2.2208 11.128101616638425 6.414982448431015 10.750117521054776 0 0 0
277 0 2 2.2208 11.000831272815926 11.93370145490547 10.889312709090268 0 0 0
278 0 1 -1.1104 12.501216208346985 7.833944505179482 12.332785002046338 0 0 0
279 0 1 -1.1104 12.598400061993331 7.892200449177377 9.46432341071576 0 0 0
280 0 1 -1.1104 12.503236929112221 5.0625098316939 12.237186836105183 0 0 0
281 0 1 -1.1104 12.416362634157721 10.59633899538921 12.32090876425562 0 0 0
282 0 2 2.2208 11.083928282464607 9.207656922855811 7.873109546712128 0 0 0
283 0 1 -1.1104 12.53201098679098 5.14154471557064 9.405521384809413 0 0 0
284 0 1 -1.1104 12.25906322459148 10.79245941827168 9.465873471452607 0 0 0
285 0 1 -1.1104 9.820946608071758 7.807539362087171 12.120699161415285 0 0 0
328 0 1 -1.1104 12.33314986102142 13.45001448728698 9.37965194348232 0 0 0
302 0 1 -1.1104 1.15415273632324 19.134889176933537 6.563685973070999 0 0 0
117 0 1 -1.1104 1.0088198661022825 16.48436885340983 6.701048977224331 0 0 0
108 0 1 -1.1104 1.3541075660175363 13.427618877575716 6.46923576551842 0 0 0
124 0 1 -1.1104 4.0733336320359035 13.38902849974571 6.668615224438796 0 0 0
126 0 1 -1.1104 4.0315281125243825 19.1160345187244 6.791722921931113 0 0 0
313 0 2 2.2208 -0.12792788243717956 14.968222361778666 7.884637775486428 0 0 0
311 0 2 2.2208 -0.19707438979351224 20.596038606841905 7.926330528044788 0 0 0
312 0 2 2.2208 -0.19284391414947258 17.83298038313714 10.765905268027776 0 0 0
294 0 1 -1.1104 1.1448095093806405 13.540363916888975 9.34066021398653 0 0 0
298 0 1 -1.1104 1.1294834542370455 19.233920803741515 12.100312553504732 0 0 0
293 0 2 2.2208 5.419578997003492 20.613922050091233 7.949254424230756 0 0 0
295 0 2 2.2208 5.511340820514424 14.99157443681122 8.16171126751086 0 0 0
292 0 1 -1.1104 1.3609212861604587 16.31461454992237 9.536719841844164 0 0 0
310 0 2 2.2208 2.6270577265897495 14.929621056774632 10.839689188672 0 0 0
309 0 2 2.2208 2.5246592104645758 20.725834419727438 10.82890538262908 0 0 0
308 0 1 -1.1104 4.156781887932313 16.45263901977101 12.189180583400816 0 0 0
307 0 1 -1.1104 1.124414503976286 16.474648905246987 12.366862130441387 0 0 0
305 0 1 -1.1104 3.9508723525523375 13.638780800621676 9.391877072719529 0 0 0
304 0 1 -1.1104 4.087254037746304 16.31841554642424 9.374879369141984 0 0 0
291 0 1 -1.1104 1.0052720541182454 19.228584003348104 9.389414408607399 0 0 0
303 0 2 2.2208 2.6023538309662304 17.760083165901666 8.053089920879689 0 0 0
301 0 1 -1.1104 3.787139234075866 19.181575931357347 9.623211155809965 0 0 0
287 0 1 -1.1104 4.120533314930449 13.46899046916704 12.248632280933403 0 0 0
286 0 1 -1.1104 3.984806173873255 19.14806440424084 12.353107041679689 0 0 0
300 0 2 2.2208 5.542558268895168 17.79775441018799 10.801755895310205 0 0 0
299 0 1 -1.1104 1.2664844300545879 13.595628257708615 12.076348105369746 0 0 0
315 0 1 -1.1104 9.655894296321835 16.318498461931636 12.175778650738568 0 0 0
297 0 1 -1.1104 6.734641250963542 13.486307207403089 12.499109665426513 0 0 0
324 0 2 2.2208 11.09943130573191 20.473401486990358 7.996624949791394 0 0 0
288 0 1 -1.1104 6.691851806272452 19.15080155418718 9.31895887606868 0 0 0
319 0 1 -1.1104 9.621407358379445 13.621667085810563 9.498690069322064 0 0 0
290 0 1 -1.1104 6.939403362972349 13.500317821330155 9.582305000509965 0 0 0
118 0 1 -1.1104 7.002451594503291 16.449741658730076 6.788523166283894 0 0 0
149 0 1 -1.1104 12.558450047513979 16.361880213890444 6.551948485544728 0 0 0
105 0 2 2.2208 11.26523250496167 17.7786658034682 10.735132250308412 0 0 0
320 0 2 2.2208 8.441699410027745 17.67012281305326 7.950979512647133 0 0 0
323 0 1 -1.1104 12.509877742919917 16.32060767185474 9.590432322335328 0 0 0
316 0 2 2.2208 8.296844124245974 20.54880389674673 10.847484113614946 0 0 0
357 0 2 2.2208 8.212883647115705 6.487246902533083 13.554228338118081 0 0 0
385 0 2 2.2208 8.211842888128361 9.342705394855892 -0.24754462271854655 0 0 0
353 0 2 2.2208 11.167385004783561 3.588245303024726 13.576085998965258 0 0 0
358 0 2 2.2208 10.934007011428315 9.293354971657827 13.525507089886725 0 0 0
368 0 2 2.2208 2.5377958336448447 3.495988258558913 -0.28222135861622666 0 0 0
375 0 2 2.2208 5.4985324702631795 17.77416862560519 -0.37698843173095464 0 0 0
382 0 2 2.2208 0.018300335681130542 12.23225710019385 -0.2984982759720247 0 0 0
381 0 2 2.2208 5.670649770364562 12.180244031043266 -0.2905752725982767 0 0 0
9453 0 2 2.2208 -0.3067658526417358 14.9322179456848 13.569989703057539 0 0 0
335 0 2 2.2208 -0.13645388115976345 -2.0617664848125465 13.621768100893991 0 0 0
370 0 2 2.2208 11.041165463495132 0.8036718502724458 -0.39401023408030156 0 0 0
351 0 2 2.2208 8.47520020941292 0.9061748529876131 13.661222618980892 0 0 0
338 0 2 2.2208 -0.29224139225492257 9.254839434639488 13.632028578706805 0 0 0
352 0 2 2.2208 11.009532613054821 -1.8963618078662958 13.648541796476747 0 0 0
366 0 2 2.2208 5.4364707122431035 0.6605775964627422 -0.34121743777946634 0 0 0
356 0 2 2.2208 2.62091050929252 12.126185576012496 13.581809850036622 0 0 0
371 0 2 2.2208 8.150983684947875 -2.0196194071258984 -0.3704738075992964 0 0 0
388 0 2 2.2208 5.3793511574244235 0.8061327747920107 16.471302268439622 0 0 0
389 0 1 -1.1104 1.297297554122135 -3.3778919854187555 18.008838103619404 0 0 0
390 0 1 -1.1104 1.427090103283014 2.441656686369418 18.068808238672826 0 0 0
393 0 1 -1.1104 1.26655259531222 -3.494100943466929 15.148777045689538 0 0 0
395 0 1 -1.1104 1.2363494963376933 2.184845508357192 15.223141910866556 0 0 0
401 0 1 -1.1104 1.5363477225561182 -0.5797717064925896 18.102254903405274 0 0 0
403 0 2 2.2208 5.55400521014574 -1.9538141002836296 19.269549226307166 0 0 0
405 0 1 -1.1104 1.2788437933801018 -0.6615055030630876 15.198039769588735 0 0 0
409 0 1 -1.1104 4.18170904287669 -3.332988544803022 17.827238920867707 0 0 0
410 0 1 -1.1104 4.024522049838763 2.365873943472593 17.853338813749854 0 0 0
411 0 2 2.2208 2.593738967555884 0.8763575068964033 19.394012110828246 0 0 0
412 0 1 -1.1104 4.383721929504271 -3.596811592584271 14.987167402165431 0 0 0
414 0 1 -1.1104 4.150234426570529 2.3803013913323556 15.292735733205255 0 0 0
416 0 2 2.2208 2.7603263952581893 -2.018505167045235 16.539350291445583 0 0 0
418 0 1 -1.1104 4.146503425904441 -0.5717986819268687 17.811082569627143 0 0 0
419 0 1 -1.1104 4.1688583978269795 -0.5251441865842094 15.161727150856802 0 0 0
417 0 2 2.2208 2.7517507080252144 3.816476274789287 16.406792987593594 0 0 0
348 0 2 2.2208 8.476258471747242 15.004721623674483 27.70448216390312 0 0 -1
413 0 1 -1.1104 4.079002244458156 -3.5154192774817514 20.598462784678656 0 0 0
425 0 2 2.2208 -0.20487265474373212 -1.972360004835211 19.283964589083386 0 0 0
424 0 2 2.2208 -0.09562009545805117 0.9109501128560916 16.49444077414474 0 0 0
430 0 2 2.2208 -0.1898792316050187 3.610263685461869 19.432284933170266 0 0 0
399 0 1 -1.1104 7.05875936996452 2.356136536521453 14.901912302742797 0 0 0
392 0 1 -1.1104 6.847459955331017 2.120682911733681 17.813981373177235 0 0 0
359 0 2 2.2208 8.083425878750553 12.075328439229153 13.69614929447579 0 0 0
404 0 2 2.2208 5.367754737438103 3.6415545009366435 19.301173526757207 0 0 0
623 0 2 2.2208 -0.21626757713086972 17.814115727269364 22.064023655236188 0 0 0
367 0 2 2.2208 2.842733491857567 -2.0581041093845442 27.594925974503454 0 0 -1
363 0 2 2.2208 11.014072106583173 20.524651407954778 13.746078748855243 0 0 0
336 0 2 2.2208 2.773756033679075 -4.652868643271496 13.838193718810828 0 0 0
394 0 1 -1.1104 1.2063053849006098 -3.4230073527562372 20.919303545788768 0 0 0
420 0 1 -1.1104 4.123681685843923 -0.5617651895689943 20.76693969159129 0 0 0
645 0 2 2.2208 -0.18322798378263783 20.478458722998646 24.84912060430368 0 0 0
562 0 1 -1.1104 7.0694870917047306 18.972637050172654 26.55072251193512 0 0 0
391 0 1 -1.1104 7.067265305640136 -3.538541656729979 17.80944974886061 0 0 0
9681 0 2 2.2208 -0.050025109593696895 20.358121250861213 19.276460052800196 0 0 0
407 0 1 -1.1104 6.954655247971608 -0.6654250991867818 14.984166626588204 0 0 0
397 0 1 -1.1104 7.070338402087261 -3.34997489121654 15.080384881135705 0 0 0
402 0 1 -1.1104 7.002768168218007 -0.6558616475124134 17.683842462641923 0 0 0