LAMMPS (29 Oct 2020)
OMP_NUM_THREADS environment is not set. Defaulting to 1 thread. (../comm.cpp:94)
  using 1 OpenMP thread(s) per MPI task
OMP_NUM_THREADS environment is not set. Defaulting to 1 thread. (../comm.cpp:94)
  using 1 OpenMP thread(s) per MPI task
Reading data file ...
  orthogonal box = (-0.36051681 -4.3372562 -0.37358815) to (27.700517 332.41726 27.713588)
  2 by 13 by 2 MPI processor grid
  reading atoms ...
  17820 atoms
  reading velocities ...
  17820 velocities
Finding 1-2 1-3 1-4 neighbors ...
  special bond factors lj:    0.0      0.0      0.0     
  special bond factors coul:  0.0      0.0      0.0     
     0 = max # of 1-2 neighbors
     0 = max # of 1-3 neighbors
     0 = max # of 1-4 neighbors
     1 = max # of special neighbors
  special bonds CPU = 0.004 seconds
  read_data CPU = 0.061 seconds
Setting atom values ...
  11880 settings made for charge
Setting atom values ...
  5940 settings made for charge
PPPM initialization ...
  using 12-bit tables for long-range coulomb (../kspace.cpp:328)
  G vector (1/distance) = 0.29881046
  grid = 40 240 40
  stencil order = 5
  estimated absolute RMS force accuracy = 0.00015706262
  estimated relative force accuracy = 1.0907395e-05
  using single precision MKL FFT
  3d grid and FFT values/proc = 15000 7600
Neighbor list info ...
  update every 1 steps, delay 0 steps, check yes
  max neighbors/atom: 2000, page size: 100000
  master list distance cutoff = 11.3
  ghost atom cutoff = 11.3
  binsize = 5.65, bins = 5 60 5
  2 neighbor lists, perpetual/occasional/extra = 2 0 0
  (1) pair coul/long, perpetual
      attributes: half, newton on
      pair build: half/bin/newton
      stencil: half/bin/3d/newton
      bin: standard
  (2) pair eam/alloy, perpetual, copy from (1)
      attributes: half, newton on
      pair build: copy
      stencil: none
      bin: none
Setting up Verlet run ...
  Unit style    : metal
  Current step  : 0
  Time step     : 0.001
Per MPI rank memory allocation (min/avg/max) = 8.156 | 8.180 | 8.192 Mbytes
Step Temp E_pair E_mol TotEng Press 
       0          600   -232755.97            0      -231374    -1111.016 
  100000    606.37372   -232756.86            0   -231360.21   -1070.3868 
Loop time of 638.031 on 52 procs for 100000 steps with 17820 atoms

Performance: 13.542 ns/day, 1.772 hours/ns, 156.732 timesteps/s
99.8% CPU use with 52 MPI tasks x 1 OpenMP threads

MPI task timing breakdown:
Section |  min time  |  avg time  |  max time  |%varavg| %total
---------------------------------------------------------------
Pair    | 437.72     | 444.44     | 455.9      |  21.0 | 69.66
Bond    | 0.006754   | 0.010523   | 0.014619   |   1.8 |  0.00
Kspace  | 127.35     | 139.59     | 147.19     |  44.4 | 21.88
Neigh   | 32.842     | 34.635     | 36.68      |  18.2 |  5.43
Comm    | 13.881     | 14.799     | 17.167     |  23.0 |  2.32
Output  | 5.2727e-05 | 5.7546e-05 | 0.00025944 |   0.0 |  0.00
Modify  | 1.7355     | 3.2874     | 5.2484     |  63.8 |  0.52
Other   |            | 1.264      |            |       |  0.20

Nlocal:        342.692 ave         368 max         323 min
Histogram: 3 3 13 4 10 7 4 2 4 2
Nghost:        4105.50 ave        4237 max        4007 min
Histogram: 3 12 3 8 8 6 0 6 4 2
Neighs:        68602.4 ave       73135 max       64431 min
Histogram: 3 4 6 8 8 8 2 5 4 4

Total # of neighbors = 3567323
Ave neighs/atom = 200.18648
Ave special neighs/atom = 0.0000000
Neighbor list builds = 16230
Dangerous builds = 0
11880 atoms in group oxygen
PPPM initialization ...
  using 12-bit tables for long-range coulomb (../kspace.cpp:328)
  G vector (1/distance) = 0.29881046
  grid = 40 240 40
  stencil order = 5
  estimated absolute RMS force accuracy = 0.00015706262
  estimated relative force accuracy = 1.0907395e-05
  using single precision MKL FFT
  3d grid and FFT values/proc = 15000 7600
Setting up Verlet run ...
  Unit style    : metal
  Current step  : 0
  Time step     : 0.001
Per MPI rank memory allocation (min/avg/max) = 8.407 | 8.431 | 8.443 Mbytes
Step f_2 Temp v_Tdiff v_deltaT 
       0            0    606.37372            0            0 
  100000    692.44866    605.19961  0.019064367    221.33554 
  200000    1354.9271    602.85711   0.02284526    265.23135 
  300000    2017.2488    597.17269   0.02240522    260.12252 
  400000    2676.0354    608.62064  0.022680318    263.31638 
  500000    3341.1053    600.58299  0.021922776    254.52139 
  600000    4007.0242    603.42908  0.022404981    260.11975 
  700000    4678.2531    604.90782  0.022515018    261.39727 
  800000    5348.8772    602.38289  0.021776686    252.82531 
  900000    6014.2212    599.50673  0.022730287    263.89652 
 1000000    6680.2235     605.8718  0.021995963    255.37108 
Loop time of 6324.01 on 52 procs for 1000000 steps with 17820 atoms

Performance: 13.662 ns/day, 1.757 hours/ns, 158.128 timesteps/s
99.8% CPU use with 52 MPI tasks x 1 OpenMP threads

MPI task timing breakdown:
Section |  min time  |  avg time  |  max time  |%varavg| %total
---------------------------------------------------------------
Pair    | 4313.2     | 4388.9     | 4506.8     |  67.9 | 69.40
Bond    | 0.069509   | 0.10318    | 0.13943    |   5.6 |  0.00
Kspace  | 1267.9     | 1394.9     | 1496.1     | 138.7 | 22.06
Neigh   | 339.33     | 356.22     | 377.46     |  54.0 |  5.63
Comm    | 138.14     | 147.88     | 175        |  75.3 |  2.34
Output  | 0.0010665  | 0.001124   | 0.0022776  |   0.5 |  0.00
Modify  | 5.1548     | 5.7952     | 6.2976     |  12.0 |  0.09
Other   |            | 30.22      |            |       |  0.48

Nlocal:        342.692 ave         363 max         324 min
Histogram: 2 1 7 8 13 5 9 4 1 2
Nghost:        4127.87 ave        4233 max        3997 min
Histogram: 2 3 3 5 10 7 4 10 6 2
Neighs:        68592.0 ave       72487 max       64748 min
Histogram: 3 5 2 6 10 10 6 4 3 3

Total # of neighbors = 3566784
Ave neighs/atom = 200.15623
Ave special neighs/atom = 0.0000000
Neighbor list builds = 167094
Dangerous builds = 0
Total wall time: 1:56:02
