ITEM: TIMESTEP
100000
ITEM: NUMBER OF ATOMS
18000
ITEM: BOX BOUNDS xy xz yz pp pp pp
-1.8340637784252264e-01 2.8077406377842340e+01 0.0000000000000000e+00
-2.1932682177514060e+00 3.3692126821773991e+02 0.0000000000000000e+00
-2.0491638069958032e-01 2.8098916380699567e+01 0.0000000000000000e+00
ITEM: ATOMS id type x y z
1 1 1.17669 -0.70076 0.990852
2 1 4.08873 -1.0267 1.22484
3 1 3.91247 -0.51265 3.89607
4 1 1.25019 -0.8195 3.87581
5 1 1.31211 2.20007 1.04018
6 1 3.9771 2.03679 1.30982
7 1 4.2403 2.13075 3.99214
8 1 1.59698 2.23458 3.96392
9 1 6.91269 -0.891746 1.26741
10 1 9.70746 -0.690242 1.19429
11 1 9.48764 -0.325204 4.03944
12 1 6.86876 -0.616853 4.03077
13 1 6.80386 1.98521 1.12205
14 1 9.60721 2.27587 1.21399
15 1 9.72985 2.29484 4.14492
16 1 6.9488 2.16126 3.77522
17 1 12.5136 -0.764167 1.08782
18 1 12.408 -0.656793 3.85159
19 1 12.4893 2.10126 0.996765
20 1 12.5909 1.98758 3.75408
21 1 1.11385 4.92038 1.13582
22 1 3.99832 4.94849 1.48268
23 1 4.34082 5.06361 4.22972
24 1 1.40181 5.07869 3.99554
25 1 1.35965 7.7127 1.27619
26 1 4.22692 7.61646 1.1499
27 1 4.18251 8.01942 4.09476
28 1 1.57764 7.84561 4.05285
29 1 6.8606 5.10362 0.866286
30 1 9.74154 4.89533 1.2425
31 1 10.005 5.09192 4.03026
32 1 7.29718 5.06075 3.99714
33 1 7.14363 7.88601 1.03435
34 1 9.65656 7.83297 1.10009
35 1 9.76977 7.74372 3.91102
36 1 6.90732 7.93807 4.01344
37 1 12.3082 4.94087 1.02348
38 1 12.5289 7.4588 4.14548
39 1 12.6413 7.62061 1.27747
12105 2 11.2299 -2.12469 10.9568
41 1 1.42352 10.4265 1.02178
42 1 4.34863 10.6145 1.15883
43 1 4.30195 10.6432 4.22627
44 1 1.55992 10.4654 4.01699
45 1 1.42939 13.2145 1.14227
46 1 4.0019 13.2727 1.09854
47 1 4.26636 13.2841 3.79122
48 1 1.48658 13.3077 4.29082
49 1 7.41418 10.6576 1.20895
50 1 10.0421 10.4744 1.23255
51 1 9.99515 10.5165 4.10389
52 1 7.18746 10.5275 4.02451
53 1 6.7617 13.4082 1.15022
54 1 9.72139 13.2789 1.43993
55 1 9.8702 13.1754 4.12456
56 1 7.04482 13.3515 4.30433
57 1 12.5391 10.6245 1.25746
58 1 12.679 10.1606 4.16004
59 1 12.6531 13.4324 1.33572
60 1 12.6565 13.0684 4.00314
61 1 1.23967 15.9871 1.11537
62 1 4.19365 16.2954 1.2994
63 1 4.23644 16.108 4.22556
64 1 1.33254 16.3061 3.91676
65 1 1.36807 18.9355 1.20964
66 1 3.90732 19.1819 0.874652
67 1 4.07791 19.0581 3.55365
68 1 1.28091 18.9613 3.89312
69 1 7.12434 16.1031 1.53505
70 1 9.67029 16.0778 1.30126
71 1 9.80587 16.0774 4.16983
72 1 6.85051 15.9477 4.3319
73 1 6.61513 19.1604 1.4029
74 1 9.56498 18.7721 1.17512
75 1 9.72423 18.9127 3.84051
76 1 6.89593 18.7376 3.95691
77 1 12.633 18.9165 1.14005
78 1 12.4478 16.1761 4.1237
79 1 12.5766 21.7037 1.09564
80 1 12.5814 19.1004 3.87402
81 1 1.21004 21.9923 1.22327
82 1 4.15912 21.773 1.23344
83 1 4.02337 21.6075 4.20456
84 1 0.939695 21.6902 4.02094
85 1 7.05873 22.008 1.18883
86 1 9.69467 21.4919 0.83672
87 1 9.61906 22.0676 3.75742
88 1 6.86456 21.5935 3.91491
12004 2 -0.0565827 0.683345 2.38928
90 1 12.3847 21.651 4.11007
91 1 1.27868 -0.845536 6.76414
92 1 4.20181 -0.556756 6.61095
93 1 4.46931 -0.905067 9.39918
94 1 1.47682 -0.711439 9.59052
95 1 1.12653 1.97751 6.92134
96 1 3.87682 2.17549 6.72858
97 1 4.14861 2.43435 9.5564
98 1 1.34542 2.03777 9.72934
99 1 6.94627 -0.584701 6.87802
100 1 9.69669 -0.998388 6.99382
101 1 9.89391 -0.685969 9.65063
102 1 6.88804 -0.851106 9.56678
103 1 7.2271 2.25334 6.76324
104 1 10.0995 2.27501 7.20274
105 1 9.72348 1.88002 9.78007
106 1 6.89812 1.8324 9.7086
107 1 12.5421 -0.572695 6.59665
108 1 12.7673 -0.86617 9.48409
109 1 12.7493 2.20922 6.77408
110 1 12.8322 2.11742 9.75336
111 1 1.48838 4.81231 6.83619
112 1 4.07252 4.9736 7.02913
113 1 4.04391 5.13265 9.78872
114 1 1.4454 4.80799 9.60527
115 1 1.37508 7.58184 6.92809
116 1 4.28009 7.65337 7.05434
117 1 4.30939 7.81797 9.66001
118 1 1.20031 7.79536 9.89297
119 1 7.01088 5.14073 6.88541
120 1 9.78563 4.70825 6.82197
121 1 9.95009 4.81237 9.72752
122 1 7.12239 4.78649 9.72456
123 1 6.88496 7.61803 6.79586
124 1 9.67677 7.74756 6.952
125 1 9.85063 7.56725 9.79683
126 1 7.07657 7.65728 9.9079
127 1 12.7032 4.95753 6.98804
128 1 12.6394 4.88756 9.57119
129 1 12.6236 7.726 6.96765
130 1 12.6617 7.74202 9.60097
131 1 1.67068 10.5213 6.8465
132 1 4.27679 10.454 7.02299
133 1 4.18993 10.6315 9.7478
134 1 1.3757 10.7258 9.62383
135 1 1.29342 13.3377 6.93344
136 1 4.07767 13.4361 6.68436
137 1 4.15755 13.3456 9.77069
138 1 1.45259 13.6947 9.71853
139 1 7.06273 10.4773 7.01929
140 1 9.691 10.6576 6.74213
141 1 9.87567 10.4153 9.64444
142 1 7.04007 10.2293 9.61573
143 1 6.96199 13.266 7.0859
144 1 9.69528 13.4897 6.80562
145 1 9.60104 13.2664 9.6348
146 1 6.93231 13.1376 9.96802
147 1 12.719 10.3901 6.98211
148 1 12.59 10.6112 9.72917
149 1 12.4701 13.1423 6.74446
150 1 12.6758 13.2812 9.62562
151 1 1.4102 16.172 6.57704
152 1 4.06919 16.0938 6.94385
153 1 3.83038 16.1698 9.81483
154 1 1.07662 16.3614 9.76996
155 1 1.17546 19.0735 6.85052
156 1 3.98317 19.0825 6.79113
157 1 3.96473 18.9883 9.89898
158 1 1.28106 19.1857 9.8431
159 1 6.89208 16.1993 7.08179
160 1 9.86284 16.25 6.93692
161 1 9.61801 16.0351 9.6413
162 1 6.78435 15.8797 9.59387
163 1 6.99146 18.8685 6.97337
164 1 9.74062 18.9746 6.82023
165 1 9.59903 18.9173 9.65832
166 1 7.01182 18.7498 9.69427
167 1 12.7562 15.8455 6.80842
168 1 12.5773 16.095 9.6763
169 1 12.4321 18.9381 6.80288
170 1 12.4705 18.8792 9.73214
171 1 1.43933 21.8105 6.97907
172 1 4.12317 21.9878 6.79754
173 1 4.13359 21.5684 9.48002
174 1 1.49807 21.9042 9.91901
175 1 7.03927 21.6135 6.91718
176 1 9.73649 21.7929 6.77692
177 1 9.64969 21.8334 9.5086
178 1 6.77616 21.8974 9.59804
179 1 12.6593 21.7677 6.81147
180 1 12.5354 21.809 9.49391
181 1 1.35236 -0.780934 12.1076
182 1 4.28386 -0.608308 12.4078
183 1 1.31349 1.95421 12.4842
184 1 4.07629 2.15804 12.4511
185 1 6.99805 -0.660474 12.4157
186 1 9.91867 -0.923835 12.6246
187 1 6.77874 2.16719 12.2907
188 1 9.62097 1.92019 12.4863
189 1 12.6425 -0.895178 12.438
190 1 12.5065 1.85963 12.4882
191 1 1.1866 4.78782 12.8282
192 1 4.02915 5.03184 12.5655
193 1 1.18414 7.60011 12.5276
194 1 4.10163 7.73406 12.6675
195 1 7.01501 5.06418 12.4255
196 1 9.92947 4.63097 12.5854
197 1 7.06422 7.63248 12.5999
198 1 9.75283 7.43794 12.5033
199 1 12.6011 4.75695 12.3756
200 1 12.8305 7.69125 12.5371
201 1 1.42435 10.5296 12.2714
202 1 3.93002 10.7225 12.7242
203 1 1.40247 13.5681 12.4505
204 1 4.2667 13.4495 12.5859
205 1 6.97096 10.6498 12.5597
206 1 9.80494 10.4265 12.4692
207 1 6.91903 13.3608 12.6037
208 1 9.78086 13.1384 12.4128
209 1 12.6138 10.6639 12.5784
210 1 12.4901 13.257 12.4046
211 1 1.4004 16.3543 12.7572
212 1 4.55376 16.3179 12.4041
213 1 1.22506 19.06 12.6098
214 1 4.07428 18.9512 12.5833
215 1 7.31307 16.2903 12.5131
216 1 10.0019 16.3666 12.5666
217 1 6.99742 19.1085 12.5797
218 1 9.85929 19.258 12.2961
219 1 12.7601 15.8812 12.4137
220 1 12.5877 18.9125 12.4316
221 1 1.16956 22.1326 12.6834
222 1 3.97425 21.7144 12.6657
223 1 6.78266 22.1183 12.3009
224 1 9.52987 21.8156 12.3049
225 1 12.5917 21.7439 12.354
12103 2 5.38363 -2.09932 10.9772
12036 2 8.21609 17.54 -0.172252
12106 2 -0.111946 3.34536 11.0317
12059 2 11.1873 -1.92628 5.3564
12034 2 -0.109158 17.6144 2.44439
15121 2 13.8571 23.4379 11.3082
12094 2 -0.0289608 23.1715 8.39347
12008 2 5.70743 0.488296 2.64367
12044 2 -0.148557 23.2848 2.64775
12010 2 11.1368 0.69053 2.4459
12125 2 10.9586 20.4707 10.9449
12111 2 -0.171246 9.15097 11.1345
12013 2 2.82003 3.48961 2.66208
12124 2 8.09036 23.1546 10.9447
12024 2 0.587417 11.8261 2.57346
12053 2 2.8283 -2.13562 8.00743
12017 2 8.4483 3.58814 2.65081
12018 2 5.56818 6.40907 2.55803
6061 1 12.8501 16.0986 1.21859
12020 2 11.2578 6.37971 2.45761
12113 2 5.72021 9.12696 11.2786
12104 2 8.24549 0.603879 11.0045
12023 2 3.01902 9.20434 2.61369
12121 2 -0.0715018 20.4504 11.32
12074 2 0.143174 12.0675 8.32498
12107 2 2.75894 6.28922 11.2536
12027 2 8.51532 9.12947 2.44513
12028 2 5.87016 11.9453 2.60621
12116 2 -0.0734625 14.8519 11.1591
12030 2 11.3526 11.827 2.72504
12102 2 2.69839 0.755362 10.9893
12114 2 8.56444 11.8104 11.0026
12033 2 2.69972 14.8162 2.68553
12131 2 2.6372 3.43791 13.761
12100 2 11.266 23.2061 8.37547
12099 2 11.2442 20.2147 5.48245
12037 2 8.46122 14.6237 2.77878
12038 2 5.66505 17.4804 2.60754
12098 2 5.6054 23.1127 8.16967
12040 2 11.2389 17.4462 2.36938
12097 2 8.38068 20.2199 8.27216
12054 2 -0.188344 0.293401 8.35387
12043 2 2.49156 20.2586 2.44115
12123 2 5.57425 20.1541 11.238
12096 2 8.2615 23.1856 5.33592
12095 2 5.49722 20.3358 5.47453
12047 2 8.32281 20.3379 2.52621
12048 2 5.35941 23.0051 2.59295
12115 2 11.438 8.93717 11.0722
12050 2 10.9959 23.2682 2.41757
12148 2 8.31995 20.4623 13.9489
12052 2 2.54849 0.562375 5.40323
12112 2 2.82322 11.9507 11.0578
12122 2 2.85199 23.1129 11.137
12110 2 11.2181 3.24045 11.1115
12056 2 8.38862 0.894438 5.37224
12109 2 8.45987 6.23652 11.0926
12058 2 5.54114 0.633833 8.14115
12108 2 5.60916 3.60386 11.0559
12060 2 11.2509 0.571305 8.30034
12120 2 11.1266 14.4833 11.0708
12062 2 2.75364 6.50639 5.47767
12063 2 2.62158 3.56122 8.23888
12119 2 8.3436 17.5673 10.9805
12065 2 5.50285 3.56234 5.57587
12066 2 8.42149 6.34942 5.35074
12067 2 8.47509 3.52061 8.42055
12068 2 5.61946 6.25374 8.28089
12069 2 11.3775 3.53051 5.50061
12070 2 11.1453 6.24916 8.23279
12133 2 8.46236 3.23975 13.7233
12072 2 2.80695 12.0022 5.59799
12073 2 2.81853 9.04118 8.41085
12118 2 5.60954 14.5685 11.0802
12075 2 5.67045 9.25794 5.59529
12076 2 8.34155 12.0147 5.48377
12077 2 8.3212 8.96942 8.28364
12078 2 5.7167 11.8821 8.41611
12079 2 11.2285 9.10846 5.55056
12080 2 11.0831 12.0031 8.17221
12014 2 0.0123751 6.2103 2.57794
12082 2 2.81642 17.5384 5.19428
12083 2 2.8162 14.8151 8.32171
12117 2 2.56876 17.5596 11.2782
12085 2 5.57037 14.7573 5.65846
12086 2 8.30443 17.5689 5.43417
12087 2 8.42848 14.8543 8.2627
12088 2 5.35452 17.3818 8.38188
12089 2 11.1777 14.6773 5.4203
12090 2 11.202 17.4648 8.13931
12136 2 2.71591 9.13716 13.8068
12092 2 2.70806 23.2275 5.38265
12093 2 2.63296 20.2698 8.28251
12061 2 0.0492579 3.44865 5.38805
12144 2 5.77362 17.3625 13.8568
6022 1 13.0419 4.8577 4.1055
12081 2 0.0757061 14.7939 5.45981
15061 2 13.9554 6.53036 5.49032
12015 2 5.52017 3.36297 -0.0972961
15146 2 13.8075 20.6277 13.8997
12071 2 0.162202 9.04102 5.69497
12064 2 -0.0700349 6.07733 8.10126
12091 2 -0.0555432 20.4461 5.44572
12143 2 8.46192 14.8496 13.8858
12039 2 11.2144 14.6179 -0.0855564
12084 2 -0.0734628 17.6447 8.45809
15042 2 13.8447 20.3068 2.58676
12042 2 2.75498 23.2635 -0.0821975
12140 2 11.2209 11.9256 13.8779
12149 2 5.44619 23.4257 13.8227
12129 2 5.5614 0.784645 13.7112
12021 2 0.110581 8.98558 -0.217773
12126 2 2.61609 -2.09733 13.6958
12045 2 5.51648 20.5135 -0.0954709
12127 2 0.0386167 0.643022 13.7187
12137 2 0.0611433 11.9765 13.8293
12145 2 11.3943 17.5198 13.7768
12002 2 2.76693 0.646967 0.0335589
15001 2 13.8678 0.647326 -0.197813
12138 2 8.42188 8.92195 13.9006
15031 2 13.9158 17.5108 -0.148598
226 1 4.09628 -0.892936 15.1243
227 1 1.29062 -0.808 15.2406
228 1 4.22336 1.94307 15.1787
229 1 1.39557 2.07948 15.1122
230 1 9.63342 -0.978422 15.2118
231 1 6.98761 -0.75586 15.0757
232 1 9.83439 2.02152 15.4199
233 1 7.09598 1.91995 15.094
234 1 12.5619 -1.01394 15.2808
235 1 12.5448 2.11565 15.3153
236 1 3.76209 5.01561 15.2206
237 1 1.06417 4.94143 15.3975
238 1 4.10112 7.87542 15.25
239 1 1.33579 7.78759 15.4555
240 1 9.62627 4.92766 15.2407
241 1 6.84289 4.7505 15.2622
242 1 9.8204 7.79115 15.5081
243 1 6.99795 7.5312 15.4916
244 1 12.5066 4.79614 15.3408
245 1 12.7336 7.53072 15.3186
246 1 4.30395 10.6274 15.5167
247 1 1.06419 10.6068 15.1734
248 1 4.17081 13.3851 15.4621
12171 2 -0.0777774 9.19888 16.8402
250 1 9.8733 10.5401 15.1921
251 1 6.96829 10.5141 15.0792
252 1 9.77148 13.5252 15.1736
253 1 7.08698 13.25 15.2222
254 1 12.8088 10.5406 15.4279
255 1 12.4702 13.3229 15.19
256 1 4.25514 16.0647 15.1876
257 1 1.13095 16.2624 15.2749
258 1 4.19885 18.9229 15.2687
259 1 1.39636 19.0013 15.4347
260 1 9.88781 16.3139 15.4382
261 1 7.11632 16.2574 15.269
262 1 9.60843 19.1285 15.2669
263 1 6.93887 19.0278 15.3929
264 1 12.6434 16.2697 15.1224
265 1 12.593 19.0124 15.3891
266 1 3.98629 21.8716 15.4312
267 1 1.1944 21.8982 15.389
268 1 9.72074 21.881 15.1523
269 1 6.96799 21.8103 15.2668
270 1 12.5807 21.9767 15.337
271 1 1.39805 -0.904977 18.0046
272 1 4.27161 -0.803315 18.0222
273 1 3.97373 1.96613 21.0688
274 1 1.18441 -0.931889 21.1018
275 1 1.40591 2.22946 17.9741
276 1 4.22351 2.11692 18.3943
277 1 4.16848 4.73412 21.0857
278 1 1.51009 1.78782 20.5308
279 1 6.87776 -1.01032 18.2644
280 1 9.61236 -0.870212 17.7828
281 1 9.75569 -0.905945 20.7258
282 1 7.04904 -0.937427 21.069
283 1 6.88685 1.77668 18.0351
284 1 9.62257 1.99849 18.1454
285 1 9.76275 1.91875 20.9037
286 1 7.03701 1.85085 20.8639
287 1 12.2935 -1.0145 18.2364
288 1 12.4333 -0.652453 20.9396
289 1 12.531 1.83607 18.1228
290 1 12.4003 2.12771 20.8333
291 1 1.18738 5.0146 17.8786
292 1 4.27238 4.75276 18.2861
293 1 3.87247 7.33579 20.171
294 1 1.2987 4.78736 20.7251
295 1 1.57225 7.95948 18.077
296 1 4.64098 7.5237 17.8452
297 2 5.46248 8.87283 19.5619
298 1 0.905277 7.71643 20.8374
299 1 6.83235 4.74369 17.9291
300 1 9.64802 4.7328 18.2134
301 1 9.69561 4.92651 20.8146
302 1 7.03054 4.70034 20.8581
303 1 7.16766 7.65576 18.4254
304 1 9.8031 7.97403 18.0178
305 1 9.46282 7.71306 20.8159
306 1 6.4363 7.56055 21.1439
307 1 12.4446 5.00987 18.3175
308 1 12.4317 5.11089 21.1604
309 1 12.5913 7.68613 17.9829
310 1 12.4291 7.72702 20.9485
311 1 1.08784 10.6558 18.0497
312 1 3.94556 10.3018 18.2546
313 1 3.19693 8.61477 22.0395
314 1 0.827342 10.5442 20.9593
315 1 1.4239 13.3123 18.3853
316 1 4.21945 13.4429 18.2864
317 1 3.99723 13.3859 20.9679
318 1 1.32927 13.6097 20.9666
319 1 6.737 10.3916 18.1219
320 1 9.84308 10.7171 17.8444
321 1 9.48385 13.1852 20.868
322 1 9.9111 10.4603 20.8098
323 1 7.10688 13.3125 18.1998
324 1 9.80321 13.4525 18.0283
325 1 4.40552 10.5014 20.796
326 1 7.12066 10.4455 20.7878
327 1 12.6874 10.5363 18.2849
328 1 12.7117 10.3156 21.2582
329 1 12.6789 13.3279 17.9761
330 1 12.802 13.1343 20.7251
331 1 1.29926 16.1819 18.0979
332 1 4.3048 16.3844 18.1165
333 1 4.0142 16.1179 20.9181
334 1 1.34606 16.339 21.046
335 1 1.12755 18.796 18.1313
336 1 4.17015 19.1662 18.0688
337 1 4.19275 18.934 20.9298
338 1 1.52709 19.2775 20.9975
339 1 7.23834 16.1484 18.0056
340 1 10.024 16.0337 18.2567
341 1 9.47427 16.4248 21.0059
342 1 6.79578 13.4999 20.9917
343 1 7.0234 19.0881 18.0948
344 1 9.93201 19.0119 18.332
345 1 10.0354 19.3419 21.2275
346 1 7.11894 19.0596 20.8555
347 1 12.672 16.2043 18.0164
348 1 12.7403 16.3403 21.0096
349 1 12.7346 19.3139 18.217
350 1 12.7059 19.0494 21.0269
351 1 1.2229 21.8728 18.2582
352 1 4.01481 21.722 18.1074
353 1 3.98726 21.7344 20.8077
354 1 1.20222 22.0627 20.9859
355 1 6.98712 21.9803 18.0589
356 1 9.75479 21.7354 18.0275
357 1 9.55402 22.1453 20.6551
358 1 6.73652 21.7214 20.782
359 1 12.7204 21.9958 18.0957
360 1 12.4837 22.3062 21.1994
361 1 1.09927 -0.695767 23.7152
362 1 4.13187 -0.989757 23.9037
363 1 3.95799 -0.833328 26.6459
364 1 1.1377 -0.948812 26.3693
365 1 1.40717 2.18761 23.4576
366 1 4.1549 1.90528 23.7282
367 1 4.0923 2.13198 26.7642
368 1 1.56462 2.1174 26.4509
369 1 7.02602 -0.675769 23.8435
370 1 9.74738 -0.745084 23.6972
371 1 9.57175 -0.765957 26.5585
372 1 6.80358 -0.905435 26.6661
373 1 7.05667 1.99749 23.5889
374 1 9.78632 2.07699 23.782
375 1 9.67922 2.15429 26.6674
376 1 6.86503 1.90768 26.4032
377 1 12.5317 -0.738948 23.8254
378 1 12.4149 -0.854332 26.5523
379 1 12.4064 2.14271 23.6998
380 1 12.6083 1.9276 26.4583
381 1 1.28883 4.83294 23.627
382 1 4.2129 4.55295 23.9223
383 1 4.31678 4.77385 27.0104
384 1 1.56559 4.82303 26.469
385 1 1.30856 7.75262 23.6947
386 1 4.2052 7.54628 24.2027
387 1 4.1824 7.7653 26.8476
388 1 1.35296 7.56549 26.6517
389 1 6.95178 4.85923 23.7349
390 1 9.79795 4.89245 23.871
391 1 9.93654 4.9234 26.6436
392 1 7.0682 4.7459 26.6216
393 1 7.05821 7.59691 24.0173
394 1 9.90518 7.74408 23.7217
395 1 9.68778 7.65564 26.6493
396 1 6.9631 7.73477 26.5957
397 1 12.8269 4.81817 23.8097
398 1 12.6017 4.61393 26.6988
399 1 12.7278 7.6159 23.7814
400 1 12.5002 7.47682 26.6562
401 1 1.34737 10.4703 23.511
402 1 4.11565 10.4482 23.7792
403 1 4.18032 10.6154 26.54
404 1 1.55554 10.4853 26.3903
405 1 1.28974 13.3687 23.7417
406 1 4.12533 13.2537 23.7895
407 1 4.01532 13.2743 26.4704
408 1 1.26696 13.3376 26.6865
409 1 6.98784 10.6876 23.6511
410 1 9.68934 10.5819 23.7024
411 1 9.70626 10.4394 26.5961
412 1 6.9153 10.5786 26.4379
413 1 6.85783 13.3661 24.002
414 1 9.59978 13.2574 24.3572
415 1 10.0051 13.1499 26.8687
416 1 7.05056 13.4107 26.796
417 1 12.4382 10.2589 23.8494
418 1 12.4408 10.2476 26.7509
419 1 12.9982 12.9967 23.9152
420 1 12.4595 13.2769 26.9684
421 1 1.24214 16.3717 23.8872
422 1 4.12623 16.2892 23.818
423 1 3.8439 15.8907 26.6657
424 1 1.1592 16.0175 26.756
425 1 0.920548 18.9733 23.8909
426 1 3.90581 19.0423 23.8993
427 1 4.0259 18.8625 26.4663
428 1 1.30201 19.129 26.7675
429 1 6.90093 16.2167 20.7723
430 1 6.86496 16.0947 23.9707
431 1 9.68344 15.9609 26.9056
432 1 6.83219 16.2226 26.8423
433 1 6.83897 18.867 23.8663
434 1 9.98492 19.4166 24.1742
435 1 9.45274 19.0339 26.8344
436 1 6.78024 19.1408 26.6648
437 1 12.8633 16.4153 24.1339
438 1 12.3782 16.2315 26.9647
439 1 12.5859 18.9651 23.6383
440 1 12.3561 19.1507 26.5947
441 1 1.2587 22.1008 23.9716
442 1 4.27233 21.7639 23.6057
443 1 3.95419 21.996 26.718
444 1 1.20849 21.7542 26.7206
445 1 7.01894 21.7262 23.7137
446 1 9.93772 22.2322 23.4356
447 1 9.59322 22.0169 26.202
448 1 6.71518 21.7973 26.6311
449 1 12.6288 21.8983 23.9103
450 1 12.3634 21.7312 26.519
12009 2 11.0266 -2.12781 27.9588
12250 2 11.1211 23.3585 25.0127
15201 2 13.7799 0.64099 22.2853
12049 2 11.2285 20.4243 27.9237
12012 2 2.7359 6.28279 28.0104
12227 2 8.57429 9.15901 25.2194
12249 2 11.3319 20.5535 22.6174
12226 2 8.32992 12.1293 22.5191
12225 2 5.34951 8.94214 22.9155
12035 2 5.42721 14.5616 28.0708
12223 2 2.64293 9.18684 24.9319
12248 2 5.50366 23.198 25.3584
12222 2 2.94815 11.8659 22.3075
12228 2 5.55195 11.8926 25.2308
12207 2 8.33359 -2.20007 25.0233
12220 2 11.2817 6.29258 25.1506
12247 2 8.30312 20.3822 25.3431
15242 2 13.7312 20.3203 25.0784
5897 1 4.19461 -0.931112 21.0865
12041 2 -0.150762 20.3227 27.964
12219 2 11.1882 3.53452 22.3799
12246 2 8.13659 23.1629 22.1854
12026 2 8.55063 11.963 28.0659
12218 2 5.75747 6.12839 25.449
12134 2 5.47623 6.18116 13.9532
12245 2 5.51406 20.3344 22.4058
12152 2 2.81313 0.597346 16.805
15241 2 13.898 23.3395 22.3897
12243 2 2.76923 20.3413 25.3349
12022 2 2.87402 11.8842 27.9261
12156 2 8.28442 0.62237 16.6354
12231 2 -0.130905 14.8652 22.5193
12158 2 5.69354 0.384498 19.651
12244 2 -0.149389 23.5788 25.3096
12160 2 11.196 0.679577 19.4573
12242 2 2.71337 23.2577 22.4636
12162 2 2.78343 6.26646 16.8746
12163 2 2.77945 3.44985 19.6897
12240 2 11.1003 17.4997 25.2717
12165 2 5.43459 3.41371 16.5931
12166 2 8.44071 6.10965 16.8095
12167 2 8.34263 3.21458 19.4665
12168 2 5.743 5.91523 19.4736
12169 2 11.2166 3.4468 16.7291
12170 2 11.103 6.31319 19.5046
12239 1 9.41745 16.6309 24.2095
12172 2 2.74589 11.879 16.7719
12173 2 2.22732 9.21042 19.7111
12238 2 5.4223 17.6103 25.1779
12175 2 5.70707 8.92557 16.4551
12176 2 8.38219 11.9573 16.5906
12177 2 8.73916 9.35695 19.3937
12178 2 5.4977 12.2183 19.5345
12179 2 11.4221 9.27419 16.6315
12180 2 11.2745 12.081 19.5324
12237 2 8.30012 14.6747 25.4375
12182 2 2.76567 17.5212 16.7217
12183 2 2.72301 14.7982 19.5485
12236 2 8.24242 17.6416 22.3403
12185 2 5.58241 14.8723 16.6887
12186 2 8.4726 17.6201 16.7754
12187 2 8.49535 14.9579 19.6753
12188 2 5.75521 17.7216 19.4007
12189 2 11.2739 14.63 16.5918
12190 2 11.2732 17.5885 19.7084
12235 2 5.45261 14.8521 22.4548
12192 2 2.58308 23.2965 16.8259
12193 2 2.64809 20.3512 19.4334
12209 2 11.1176 -2.12581 22.2077
12195 2 5.55577 20.3428 16.5233
12196 2 8.33125 23.1919 16.7673
12197 2 8.60391 20.3613 19.6566
12198 2 5.33188 23.0692 19.4136
12199 2 11.147 20.3914 16.8781
12200 2 11.1441 23.46 19.4672
12233 2 2.44084 14.6416 25.1238
12202 2 2.62534 0.475386 22.2897
15202 2 13.8838 -2.10162 25.1069
12232 2 2.78281 17.5759 22.402
12046 2 8.55545 23.3309 27.9391
12206 2 8.22544 0.603519 22.3638
12214 2 0.0197999 6.15121 25.1053
12208 2 5.35162 0.558176 25.0822
12224 2 0.0545741 11.8352 25.2097
12210 2 11.1176 0.507777 25.1509
12230 2 11.1343 11.8255 25.2217
12212 2 2.7687 6.33491 22.4008
12213 2 2.85508 3.38133 25.2235
12229 2 11.0707 9.10353 22.397
12215 2 5.61112 3.36273 22.4878
12216 2 8.49276 6.11657 22.5193
12217 2 8.36012 3.4761 25.2444
249 1 1.37402 13.5323 15.3253
12141 2 2.673 14.7354 13.9404
12164 2 -0.0297126 6.13368 19.451
12139 2 5.62947 12.015 14.0168
12184 2 -0.138897 17.7327 19.7209
12234 2 -0.122756 17.5887 25.3833
15041 2 13.8183 23.1555 27.9193
12011 2 -0.058654 3.53369 28.0748
12181 2 -0.118239 14.7844 16.621
12161 2 -0.122917 3.37294 16.6139
15182 2 13.9581 14.8433 19.6108
12241 2 -0.122975 20.5747 22.5523
12006 2 8.16924 0.683191 27.905
12029 2 11.2618 9.01583 28.0769
12016 2 8.38891 6.18924 28.0674
12025 2 5.70092 9.13222 28.0282
12150 2 10.982 23.2993 13.9467
12019 2 11.0808 3.51406 28.0345
12146 2 2.72518 20.4111 14.1367
15151 2 13.9146 0.458037 16.693
15181 2 13.868 17.6072 16.5731
15021 2 13.9424 11.9401 28.0768
12154 2 -0.0848623 0.52823 19.5435
12135 2 11.1628 6.27742 14.0139
12032 2 2.63877 17.5142 28.0195
12130 2 11.2227 0.465485 14.0016
451 1 1.36828 24.6713 1.17614
452 1 4.1298 24.6049 1.16984
453 1 3.92257 24.5277 3.8804
454 1 1.31613 24.6004 3.7819
455 1 7.04429 24.8107 1.23552
456 1 9.92271 24.779 0.969978
457 1 9.49618 24.6084 3.84508
458 1 6.54812 24.5828 3.83772
459 1 12.6545 27.627 1.17028
460 1 9.58465 27.3519 3.97123
461 1 1.39926 27.3191 0.928709
462 1 4.04311 27.3449 1.3317
463 1 4.08976 27.5107 4.12521
464 1 1.0958 30.1115 3.97297
465 1 1.26394 30.3404 1.15694
466 1 4.42499 30.2967 1.20787
467 1 4.12066 30.2843 3.87452
468 1 1.25444 32.9115 0.950175
469 1 6.99885 27.5969 1.1687
470 1 9.60538 27.7308 1.22451
471 1 6.89476 35.8061 3.95267
472 1 6.82281 27.3529 4.06452
473 1 7.10978 30.2995 1.15005
474 1 10.0529 30.542 0.966105
475 1 9.68861 33.3637 1.33274
476 1 7.06497 30.1771 3.88472
477 1 12.5667 30.8149 1.0131
478 1 9.84602 30.6515 3.93031
479 2 11.355 31.8638 2.54684
12295 2 11.0193 48.872 0.061944
15336 2 13.7025 48.8304 8.30994
482 1 4.07348 32.8976 1.25891
483 1 4.172 33.0454 3.89209
12374 2 2.68637 37.404 13.9181
12272 2 2.38232 40.1078 0.0876905
486 1 4.4284 35.8004 1.27472
487 1 3.94472 35.8797 4.1108
12296 2 -0.175273 26.2623 5.3595
489 1 6.88085 33.0129 1.12722
490 1 12.538 33.5038 1.52593
491 1 9.96923 36.072 1.14379
492 1 6.97652 33.1212 3.89444
493 1 6.90624 36.0171 1.27879
6514 1 1.34666 38.2477 1.25588
495 1 9.58173 38.6331 1.32791
496 1 6.87525 38.9024 4.01361
504 1 1.18771 38.8947 3.83637
498 1 9.95154 33.0775 3.89814
499 1 12.9502 36.1704 1.10559
500 1 12.1322 35.9705 4.07527
15326 2 13.6138 46.0414 5.54317
502 1 4.00879 38.9051 1.2948
503 1 4.15277 38.816 4.00197
484 1 1.32961 36.271 4.11397
505 1 1.34709 41.618 1.41276
506 1 4.08863 41.8052 1.50811
507 1 4.07118 41.969 4.11014
508 1 0.982705 41.3918 3.99068
509 1 6.64606 38.8312 1.5673
12368 2 11.0471 28.9755 13.841
511 1 9.50816 35.7836 3.98398
512 1 9.58974 38.7826 4.04376
513 1 7.02463 41.8055 1.28901
514 1 9.6218 41.503 1.3353
515 1 9.7731 41.5805 4.16261
516 1 7.00891 42.0004 4.15101
517 1 12.1828 38.9429 1.15573
518 1 12.623 38.817 4.05611
519 1 12.4737 41.6999 1.6479
520 1 12.6742 42.0173 4.34073
521 1 0.797297 44.3612 1.55332
522 1 3.82943 44.5072 1.42106
523 1 4.17762 44.5981 4.35945
524 1 1.10193 44.3611 4.15137
525 1 1.24784 47.4878 1.15625
526 1 3.78399 47.2307 1.27615
527 1 3.87311 47.6404 4.11254
528 1 1.01353 47.2372 4.17594
529 1 6.85727 44.587 1.42234
530 1 9.56211 44.731 1.29093
531 1 9.59035 44.544 4.28781
532 1 6.91582 44.9335 3.96109
533 1 6.59956 47.5634 1.04123
534 1 9.5661 47.5652 1.40682
535 1 9.53415 47.462 4.17561
536 1 6.61965 47.552 4.22809
537 1 12.377 44.4971 1.64339
538 1 12.2994 44.8278 4.28554
539 1 12.3964 47.3995 1.10552
540 1 12.1717 47.6364 3.94189
541 1 1.36809 27.4417 6.47795
542 1 4.22106 24.7349 6.77163
543 1 3.91032 24.5212 9.48249
544 1 1.5069 24.5317 6.84069
545 1 7.03861 24.5318 6.60068
546 1 9.72536 24.6615 6.8998
547 1 9.66895 24.625 9.74069
548 1 7.07189 24.6942 9.37805
549 1 12.8112 24.5488 6.97903
550 1 12.3776 24.723 9.82153
551 1 1.18964 27.5093 3.77965
552 1 4.18395 27.4189 6.95309
553 1 3.84263 27.4208 9.70256
554 1 1.27256 25.255 9.6489
555 1 1.35213 33.1618 4.21477
556 1 4.22361 30.2129 6.85237
557 1 3.97371 30.2179 9.55098
558 1 1.13086 33.2476 9.88967
559 1 7.07734 27.4614 7.00265
560 1 9.8699 27.3316 6.88806
561 1 9.55312 27.3934 9.77015
562 1 6.69469 27.6091 9.80791
563 1 6.80759 30.3251 6.92877
564 1 9.73379 30.0612 6.63789
565 1 9.82702 30.3858 9.32161
566 1 6.88256 30.3998 9.67978
567 1 12.7547 27.6145 6.92426
568 1 12.4805 27.405 9.76052
569 1 12.4606 30.2483 6.63425
570 1 12.6464 30.4172 9.65005
571 1 1.23455 36.1789 7.00975
572 1 3.82729 33.0815 6.71254
573 1 4.04961 33.0551 9.78628
574 1 1.38579 33.489 7.27676
15346 2 13.8198 34.645 11.1099
576 1 3.69342 35.8709 7.2919
577 1 3.55708 36.2672 10.1
578 1 0.943419 35.9301 9.7657
579 1 6.72062 32.8969 6.93307
580 1 9.3863 32.9704 6.75831
581 1 9.6025 33.1964 9.56669
582 1 6.69064 33.0383 9.74694
583 1 6.25567 35.4199 6.49462
584 1 9.85274 35.7017 6.7351
585 1 9.79776 35.928 10.0057
586 1 6.49503 35.8109 9.51503
587 1 12.586 32.9203 6.95884
588 1 12.566 33.3054 9.68277
589 1 12.5261 35.9301 6.92072
590 1 12.5578 36.1336 9.95519
591 1 1.05728 39.0194 6.95095
592 1 3.69853 38.6382 6.70897
593 1 3.5623 38.9346 9.65937
594 1 0.86793 38.6303 9.73342
595 1 1.27237 41.6664 7.02356
596 1 3.82517 41.8417 6.78793
597 1 4.00869 41.7187 9.69583
598 1 1.19709 41.6651 9.64608
599 1 6.89503 41.8132 7.04484
600 1 9.93579 39.1416 6.64894
601 1 9.69149 38.9357 9.83481
602 1 6.40324 39.0305 9.86083
603 1 9.57229 41.7879 7.03224
604 1 9.46094 44.6678 7.05504
605 1 9.6262 41.7233 9.84746
606 1 6.71114 42.0222 9.80591
607 1 12.5498 38.9734 6.86229
608 1 12.3858 38.895 9.6237
609 1 12.4182 41.7484 7.05983
610 1 12.4813 41.8005 9.7533
611 1 0.952699 44.4683 7.06486
612 1 4.07033 44.4782 7.03681
613 1 4.14955 44.7414 9.87505
614 1 1.00532 44.5001 9.78182
615 1 1.20627 47.1067 7.06682
616 1 3.97421 47.4543 6.86434
617 1 4.19126 47.5741 9.45811
618 1 1.2613 47.3669 9.91379
619 1 6.82427 44.7718 6.72577
620 1 9.53168 47.6153 7.21575
621 1 9.74087 44.5421 9.74124
622 1 6.80082 44.686 9.63829
623 1 6.84119 47.518 6.88976
15341 2 13.8125 28.941 11.133
625 1 9.65442 47.4185 9.71236
626 1 6.82179 47.5228 9.8616
627 1 12.278 44.5165 7.17395
628 1 12.5878 44.4585 9.97126
629 1 12.3728 47.457 6.91057
630 1 12.5204 47.5796 9.92929
631 1 1.48094 24.8547 12.715
632 1 4.11273 24.8134 12.3908
633 1 6.80319 24.6654 12.2269
634 1 9.46923 24.7357 12.3844
635 1 12.4939 24.8557 12.6091
636 1 1.14489 27.6957 12.1534
637 1 4.04061 27.501 12.573
638 1 1.09901 30.3263 9.89874
639 1 4.03112 30.3096 12.6109
640 1 6.812 27.5231 12.486
641 1 9.83766 27.4855 12.5315
642 1 6.75355 30.403 12.6305
643 1 9.53392 30.3781 12.3072
644 1 12.3991 27.6585 12.4216
645 1 12.6358 30.4983 12.6174
646 1 1.36306 33.2032 12.7733
647 1 4.19624 33.1612 12.6209
648 1 1.31892 36.0529 12.3434
649 1 4.25282 36.1045 12.7157
650 1 6.9152 33.186 12.6048
651 1 9.58647 33.069 12.6416
652 1 7.10774 36.0621 12.3749
653 1 9.93956 36.0003 12.755
654 1 12.2617 33.1832 12.3846
655 1 12.5946 36.037 12.6139
656 1 1.12603 38.9885 12.3875
657 1 3.92225 38.859 12.6199
658 1 1.40608 41.8147 12.7
659 1 3.9739 41.7599 12.5439
660 1 6.79798 38.8937 12.7661
661 1 9.5244 38.6954 12.7473
662 1 6.93622 41.6422 12.5988
663 1 9.8003 41.8016 12.6271
664 1 12.3709 38.8071 12.6889
665 1 12.4567 41.5975 12.6556
666 1 1.1068 44.5716 12.5698
667 1 4.05376 44.548 12.6247
668 1 1.10303 47.3638 12.7092
669 1 3.94489 47.3641 12.4184
670 1 7.0317 44.607 12.6126
671 1 9.74034 44.6553 12.5247
672 1 6.85547 47.2282 12.5318
673 1 9.69411 47.3281 12.5188
674 1 12.6208 44.5448 12.6477
675 1 12.5646 47.4723 12.9319
12363 2 11.0805 48.849 11.3278
89 1 12.4562 24.7311 1.36762
12253 2 2.64621 26.0847 2.74644
12362 2 5.35983 48.7951 11.206
12367 2 5.37065 28.8878 13.8556
12289 2 10.9867 43.0049 0.604771
12257 2 8.15508 26.0841 2.62513
12258 2 5.52126 28.7177 2.63864
15291 2 13.7443 48.8776 2.61056
12260 2 11.194 28.4367 2.67777
480 1 12.6761 30.1044 3.52318
12316 2 -0.157474 37.5679 5.64606
12263 2 2.92272 31.6471 2.70714
12360 2 11.0111 43.1912 11.285
485 2 -0.120584 37.183 2.52756
12366 2 8.22871 26.1073 13.7818
12267 2 8.13992 31.707 2.50064
12268 2 5.43783 34.5206 2.6391
497 1 12.6521 32.9023 4.06289
12270 2 11.094 34.9704 2.67094
12359 2 8.34428 45.9263 11.1721
12285 2 5.40769 43.199 -0.0527358
12273 2 3.03491 37.4148 2.60301
12358 2 5.44786 43.307 11.2618
12347 2 2.61301 34.5546 11.0925
501 1 1.50316 35.5627 1.6777
12277 2 8.29064 37.3648 2.61294
12278 2 5.41257 40.5239 2.79425
12349 2 8.1018 34.5443 10.9895
12280 2 11.0745 40.1279 2.70345
12291 2 -0.0552138 48.9383 -0.0150588
12343 2 5.35461 25.9965 10.8098
12283 2 2.55314 42.9802 2.91338
15316 2 13.7657 40.5339 5.51088
12384 2 2.54172 48.6977 13.9394
12286 2 8.23051 46.0274 -0.0674672
12287 2 8.11264 43.432 2.81043
12288 2 5.20076 45.9937 2.67192
12276 2 8.1758 40.49 -0.156492
12290 2 10.8291 46.0788 2.67095
12350 2 10.9615 31.68 11.0866
12292 2 2.5633 48.8239 2.62927
12352 2 2.51701 40.3318 11.099
12294 2 7.9763 48.8363 2.77689
6452 1 12.6473 24.526 4.23635
12357 2 2.5205 45.9773 11.047
12297 2 2.7135 28.9007 5.51563
12298 2 2.78621 25.8691 8.10163
12299 1 1.24193 30.4751 6.78321
12300 2 5.51348 25.802 5.40497
12301 2 8.28933 28.7482 5.54336
12302 2 8.37538 26.0421 8.26912
12303 2 5.44108 28.7588 8.28425
12304 2 11.2412 25.9756 5.44466
12305 2 11.4123 28.8622 8.32595
6645 1 1.37043 30.2941 12.7367
12307 2 2.75459 34.6068 5.57174
12308 2 2.66658 31.7053 8.2179
12355 2 10.7762 37.4803 11.2168
12310 2 5.38064 31.65 5.41095
12311 2 8.07913 34.5313 5.55565