ITEM: TIMESTEP
10000
ITEM: NUMBER OF ATOMS
18000
ITEM: BOX BOUNDS pp pp pp
-3.5670712409951333e-01 2.7696707124099365e+01
-4.3179300583230820e+00 3.3239793005832814e+02
-3.5179574771469246e-01 2.7691795747714664e+01
ITEM: ATOMS id type q x y z
1 2 2.2208 5.25745 1.35148 5.38703
2 2 2.2208 5.20855 6.90761 5.44409
3 1 -1.1104 1.03772 -2.74048 1.04404
5 1 -1.1104 1.16814 2.6824 1.09854
7 1 -1.1104 1.09304 8.34113 1.16888
8 1 -1.1104 1.11873 8.31662 6.8494
15 1 -1.1104 1.07366 -2.68675 3.9732
16 1 -1.1104 0.979743 2.68894 3.91389
17 1 -1.1104 1.0811 8.32982 4.01177
21 2 2.2208 5.40459 -1.54427 2.5532
22 2 2.2208 5.19272 4.09572 2.5758
23 1 -1.1104 0.97771 -0.0810556 1.31657
25 1 -1.1104 1.15509 5.42738 1.15641
31 1 -1.1104 1.16092 0.00904583 4.06942
32 1 -1.1104 1.02949 5.59714 4.02359
35 2 2.2208 2.47681 1.37491 2.63697
36 2 2.2208 2.47309 6.80969 2.46234
37 1 -1.1104 3.8935 -2.91946 1.16152
39 1 -1.1104 3.8986 2.77051 1.14349
40 1 -1.1104 3.72486 2.72445 6.67883
41 1 -1.1104 3.97338 8.23029 1.24501
43 1 -1.1104 3.81984 -2.99066 3.98077
44 1 -1.1104 3.80114 2.69739 3.93838
45 1 -1.1104 3.83288 8.31206 4.10059
46 2 2.2208 2.47231 -1.46142 5.43611
47 2 2.2208 2.41635 4.2047 5.38335
48 1 -1.1104 3.88298 -0.0896925 1.27308
49 1 -1.1104 3.83176 -0.107458 6.98033
50 1 -1.1104 3.87687 5.50305 1.22294
51 1 -1.1104 3.92424 5.64107 6.72696
52 1 -1.1104 3.85193 -0.156946 4.23002
53 1 -1.1104 3.71227 5.45707 3.9804
58 2 2.2208 -0.200793 -4.19888 5.40903
57 2 2.2208 5.21833 1.37553 -0.172484
61 2 2.2208 -0.270188 6.90709 5.36321
60 2 2.2208 -0.327245 -1.44673 2.71868
65 2 2.2208 5.36806 -4.29413 5.39284
66 2 2.2208 2.54898 -4.26228 2.44455
64 2 2.2208 -0.364926 1.2247 -0.216557
59 2 2.2208 -0.477333 4.10859 2.51612
54 2 2.2208 2.50728 4.11068 -0.220559
9 1 -1.1104 6.71472 -2.88722 1.28451
10 1 -1.1104 6.72934 -2.8308 6.81036
11 1 -1.1104 6.71018 2.75659 1.17785
13 1 -1.1104 6.7395 8.38575 1.23308
14 1 -1.1104 6.6374 8.31148 6.96966
18 1 -1.1104 6.69442 -2.74067 4.08421
19 1 -1.1104 6.65866 2.81898 3.99506
20 1 -1.1104 6.78705 8.18846 4.05286
27 1 -1.1104 6.737 -0.014754 1.24752
29 1 -1.1104 6.67882 5.48271 1.04377
33 1 -1.1104 6.72595 0.0809883 3.98663
34 1 -1.1104 6.52557 5.4608 3.95792
118 2 2.2208 8.11994 -4.33285 2.6525
69 2 2.2208 10.9731 1.29278 5.41028
70 2 2.2208 10.8744 6.95737 5.41396
71 1 -1.1104 12.4439 -2.98482 1.24062
73 1 -1.1104 12.3308 2.73031 1.31217
75 1 -1.1104 12.2599 8.3395 1.22222
77 1 -1.1104 12.3774 -2.7831 3.94221
78 1 -1.1104 12.4033 2.68345 4.06415
79 1 -1.1104 12.2497 8.32026 4.02663
80 2 2.2208 11.0001 -1.43923 2.58933
81 2 2.2208 10.9403 4.2 2.5493
82 1 -1.1104 12.3679 -0.0530703 1.04597
84 1 -1.1104 12.3848 5.54646 1.2239
86 1 -1.1104 12.3008 -0.00427438 3.85189
87 1 -1.1104 12.4475 5.55549 4.02627
88 2 2.2208 8.10274 1.41503 2.53524
89 2 2.2208 8.03561 6.79423 2.52834
90 1 -1.1104 9.52422 -2.88539 1.20073
92 1 -1.1104 9.57938 2.8276 1.15134
94 1 -1.1104 9.48952 8.32036 1.34568
96 1 -1.1104 9.65136 -2.94179 3.98401
97 1 -1.1104 9.43347 2.72974 3.89804
98 1 -1.1104 9.54037 8.38179 4.03515
99 2 2.2208 8.12344 -1.35475 5.41485
100 2 2.2208 8.07141 4.17433 5.31453
101 1 -1.1104 9.55515 -0.0499432 1.08719
103 1 -1.1104 9.49467 5.54299 1.13352
105 1 -1.1104 9.54026 -0.111968 4.00114
106 1 -1.1104 9.50404 5.61129 3.91291
111 2 2.2208 13.8776 1.3794 2.54701
110 2 2.2208 10.948 1.34773 -0.192895
108 2 2.2208 8.20204 -1.49007 -0.264407
109 2 2.2208 10.8875 6.93034 -0.129865
107 2 2.2208 8.15941 4.17633 -0.333331
115 2 2.2208 13.8108 -1.52881 -0.291046
4 1 -1.1104 1.18653 -2.81972 6.75282
6 1 -1.1104 0.993562 2.70994 6.76801
24 1 -1.1104 1.09642 -0.0983893 6.75109
26 1 -1.1104 1.06256 5.62141 6.82851
38 1 -1.1104 4.0525 -2.84281 6.73293
42 1 -1.1104 3.94306 8.35159 6.8082
163 2 2.2208 -0.327724 4.13897 8.22363
168 2 2.2208 2.58072 -4.26176 8.21918
164 2 2.2208 -0.273199 -1.47193 8.16422
121 1 -1.1104 3.70068 5.5962 9.57377
122 2 2.2208 5.35691 1.31147 10.9178
123 2 2.2208 5.36745 6.8544 11.0916
124 1 -1.1104 1.142 -2.76151 12.448
125 1 -1.1104 1.15196 2.75967 12.4286
126 1 -1.1104 1.17273 8.25162 12.3995
130 1 -1.1104 1.15155 -2.92991 9.65916
131 1 -1.1104 1.05392 2.82048 9.67997
132 1 -1.1104 1.116 8.45419 9.52769
135 1 -1.1104 6.74883 8.25457 9.71358
136 2 2.2208 5.34784 -1.45021 8.11729
137 2 2.2208 5.30525 4.07316 8.19504
138 1 -1.1104 1.10531 -0.0145872 12.3642
139 1 -1.1104 1.13328 5.52442 12.5281
142 1 -1.1104 0.978544 0.0307481 9.44764
143 1 -1.1104 1.05427 5.66985 9.69477
145 1 -1.1104 6.58493 5.46329 9.78121
146 2 2.2208 2.4886 1.301 8.16881
147 2 2.2208 2.47883 6.94888 8.14195
148 1 -1.1104 3.90979 -2.84153 12.2435
149 1 -1.1104 3.88335 2.77115 12.3467
150 1 -1.1104 3.82363 8.28686 12.3293
151 1 -1.1104 3.8392 -2.79316 9.48529
152 1 -1.1104 3.94113 2.78141 9.60075
153 1 -1.1104 3.84728 8.22895 9.63007
154 2 2.2208 2.47909 -1.43389 10.9532
155 2 2.2208 2.48976 4.3322 11.0962
156 1 -1.1104 3.99792 -0.0698594 12.4299
157 1 -1.1104 3.87735 5.45767 12.5231
158 1 -1.1104 3.69834 0.0902563 9.72461
167 2 2.2208 -0.361665 1.25904 10.9655
165 2 2.2208 -0.281526 6.96985 10.9548
12 1 -1.1104 6.62004 2.6149 6.78299
28 1 -1.1104 6.75748 -0.128478 6.86193
30 1 -1.1104 6.76991 5.54959 6.93817
188 1 -1.1104 12.4806 -0.0457157 12.4325
187 1 -1.1104 12.3145 5.56374 12.4171
195 1 -1.1104 9.52469 2.71319 12.3184
179 1 -1.1104 12.426 5.56678 9.56923
194 1 -1.1104 9.54386 8.42198 12.4559
193 1 -1.1104 9.48955 -2.69608 9.54339
192 1 -1.1104 12.3506 2.74205 9.47914
209 2 2.2208 13.7188 4.1316 10.8998
72 1 -1.1104 12.4617 -2.84011 6.76551
74 1 -1.1104 12.4378 2.74275 6.66976
76 1 -1.1104 12.2811 8.28933 6.83986
83 1 -1.1104 12.3582 -0.0388996 6.6811
85 1 -1.1104 12.3422 5.50089 6.84295
91 1 -1.1104 9.62282 -2.81879 6.80807
93 1 -1.1104 9.39857 2.86412 6.57395
95 1 -1.1104 9.41132 8.30274 6.60982
102 1 -1.1104 9.42829 0.0631816 6.76538
104 1 -1.1104 9.52419 5.55764 6.79999
186 1 -1.1104 12.1777 -2.7938 12.1822
212 2 2.2208 8.05091 -4.24275 8.07371
185 1 -1.1104 12.4004 2.79925 12.3829
178 2 2.2208 8.06357 1.41101 8.17911
184 1 -1.1104 12.2033 -0.0534463 9.70757
183 1 -1.1104 9.70531 2.90012 9.5722
182 1 -1.1104 9.51513 8.31913 9.59811
199 1 -1.1104 12.4024 8.24014 9.55086
191 2 2.2208 11.0378 4.18261 8.0557
127 1 -1.1104 6.63271 -2.8869 12.2923
128 1 -1.1104 6.73846 2.73155 12.3682
129 1 -1.1104 6.679 8.21357 12.511
133 1 -1.1104 6.57613 -2.8597 9.57406
134 1 -1.1104 6.69364 2.8457 9.47703
140 1 -1.1104 6.93186 -0.122807 12.4323
141 1 -1.1104 6.76665 5.43236 12.4915
144 1 -1.1104 6.64919 -0.0933703 9.63795
181 1 -1.1104 12.373 8.27517 12.564
180 1 -1.1104 12.4286 -2.80594 9.57113
198 2 2.2208 8.02706 6.97085 8.182
197 1 -1.1104 9.36153 -2.78863 12.4039
177 2 2.2208 8.27802 -1.4321 10.9443
196 2 2.2208 11.014 -1.50053 8.09326
190 2 2.2208 11.0049 1.47568 10.8833
207 2 2.2208 13.7186 6.91981 8.17591
189 2 2.2208 10.9749 6.90588 11.0385
176 2 2.2208 8.14452 4.18269 11.0089
172 1 -1.1104 9.49281 5.71177 9.61832
173 1 -1.1104 9.39669 0.0361361 9.61938
174 1 -1.1104 9.59503 5.48503 12.3163
175 1 -1.1104 9.73143 -0.0174447 12.4032
214 2 2.2208 5.4128 1.40091 16.6379
215 2 2.2208 5.39627 6.9514 16.5029
216 1 -1.1104 1.17232 -2.74577 18.0407
217 1 -1.1104 1.26101 2.73553 18.038
218 1 -1.1104 1.12285 8.40396 17.9428
222 1 -1.1104 1.26634 -2.79834 15.26
223 1 -1.1104 1.20516 2.70793 15.2614
224 1 -1.1104 1.14495 8.42641 15.12
225 1 -1.1104 6.91825 -2.90422 15.1064
228 2 2.2208 5.46575 -1.45474 19.464
229 2 2.2208 5.46154 4.24684 19.5512
230 1 -1.1104 1.27421 -0.0373736 17.9683
231 1 -1.1104 1.24706 5.60897 18.0193
233 1 -1.1104 6.83466 5.49782 18.0128
234 1 -1.1104 1.09156 0.00958334 15.3638
235 1 -1.1104 1.17571 5.52011 15.3175
238 2 2.2208 2.75938 1.18618 19.2907
239 2 2.2208 2.63865 6.96236 19.3144
240 1 -1.1104 3.94691 -2.92898 18.011
241 1 -1.1104 4.07038 2.61334 18.023
242 1 -1.1104 4.04677 8.33683 17.9529
243 1 -1.1104 3.9948 -2.80544 14.9948
244 1 -1.1104 4.03324 2.70822 15.346
245 1 -1.1104 3.93361 8.29247 15.1395
246 2 2.2208 2.62135 -1.38948 16.6396
247 2 2.2208 2.65471 4.16526 16.7512
248 1 -1.1104 4.06459 -0.187874 18.0453
249 1 -1.1104 4.04595 5.52812 18.0099
250 1 -1.1104 3.99684 -0.0444073 15.2672
251 1 -1.1104 4.09188 5.53539 15.2183
257 2 2.2208 2.57384 -4.35216 19.4937
161 2 2.2208 2.63319 1.37541 13.8387
171 2 2.2208 -0.242778 -1.39115 13.7583
166 2 2.2208 -0.27268 4.12491 13.7588
259 2 2.2208 5.3023 -4.35266 16.6565
253 2 2.2208 -0.217674 4.09966 19.4415
296 1 -1.1104 1.28044 8.30697 20.8626
256 2 2.2208 -0.114472 1.34454 16.7067
159 2 2.2208 5.43185 -1.45817 13.6633
162 2 2.2208 2.67457 6.86644 13.8394
160 2 2.2208 5.34595 4.10227 13.8288
219 1 -1.1104 6.86609 -3.05113 17.9458
220 1 -1.1104 6.78562 2.67984 18.0813
221 1 -1.1104 6.80155 8.3487 17.952
226 1 -1.1104 6.70926 2.85213 15.2266
227 1 -1.1104 6.71061 8.47678 15.2531
232 1 -1.1104 6.81681 -0.159595 18.0838
236 1 -1.1104 6.81925 -0.0421682 15.2726
237 1 -1.1104 6.81548 5.61703 15.2111
291 2 2.2208 8.23728 -4.38313 19.4281
260 2 2.2208 11.1001 1.24868 16.6867
261 2 2.2208 10.9954 6.96508 16.6006
262 1 -1.1104 12.37 -2.94121 17.9563
263 1 -1.1104 12.3727 2.73985 17.9818
264 1 -1.1104 12.5127 8.29847 17.9165
265 1 -1.1104 12.4122 -2.95832 15.1059
266 1 -1.1104 12.4847 2.69637 15.2623
267 1 -1.1104 12.3763 8.30458 15.1906
268 2 2.2208 10.9428 -1.50121 19.3806
269 2 2.2208 11.0824 4.15086 19.4148
270 1 -1.1104 12.4459 -0.180956 17.9387
271 1 -1.1104 12.4904 5.46797 18.0773
272 1 -1.1104 12.3927 -0.134236 15.1478
273 1 -1.1104 12.3724 5.40264 15.344
274 2 2.2208 8.16582 1.33409 19.3691
275 2 2.2208 8.12618 6.96393 19.495
276 1 -1.1104 9.55677 -2.97879 18.1298
277 1 -1.1104 9.62219 2.79749 18.0682
278 1 -1.1104 9.70692 8.34268 18.0068
279 1 -1.1104 9.68807 -2.89716 15.1821
280 1 -1.1104 9.6986 2.69481 15.221
281 1 -1.1104 9.4403 8.204 15.2407
282 2 2.2208 8.15636 -1.55456 16.5957
283 2 2.2208 8.22573 4.17002 16.6548
284 1 -1.1104 9.67395 -0.0613656 18.0312
285 1 -1.1104 9.60863 5.69017 18.0575
286 1 -1.1104 9.67969 -0.131122 15.2825
287 1 -1.1104 9.65322 5.51402 14.9878
288 2 2.2208 13.7142 1.3087 19.3617
200 2 2.2208 10.9452 -1.46916 13.7934
381 1 -1.1104 9.57694 2.72105 20.7186
202 2 2.2208 10.9792 4.09377 13.7687
203 2 2.2208 8.2727 6.94439 13.7202
201 2 2.2208 8.18583 1.35569 13.88
347 2 2.2208 -0.337273 4.02906 25.0834
349 2 2.2208 -0.170834 6.83959 22.3124
294 1 -1.1104 1.21044 -2.90372 20.9222
295 1 -1.1104 1.21672 2.70393 20.7295
297 1 -1.1104 6.63402 -2.85274 20.8971
298 1 -1.1104 6.79943 2.74781 20.915
300 1 -1.1104 1.27831 -0.0691527 20.8004
301 1 -1.1104 1.19099 5.48644 20.7889
302 1 -1.1104 6.83849 -0.026949 20.9321
304 1 -1.1104 3.9346 -2.9419 20.8189
305 1 -1.1104 4.14501 2.90883 20.8788
306 1 -1.1104 4.0125 8.44673 20.6555
307 1 -1.1104 4.07117 -0.0788186 20.7853
308 1 -1.1104 3.85458 5.67565 20.8027
309 2 2.2208 5.44294 1.35605 22.2031
310 2 2.2208 5.25071 7.00748 22.2584
311 1 -1.1104 1.28524 -2.87245 23.6552
312 1 -1.1104 1.20007 2.85346 23.6141
313 1 -1.1104 1.17602 8.1843 23.7142
315 1 -1.1104 6.79 2.78738 23.6001
317 1 -1.1104 1.19371 -2.84583 26.3681
318 1 -1.1104 1.13839 2.5349 26.3575
319 1 -1.1104 0.978302 8.35115 26.5244
322 1 -1.1104 6.62031 8.46398 26.5312
323 2 2.2208 5.39514 -1.45934 24.9696
324 2 2.2208 5.21856 4.17958 25.0449
325 1 -1.1104 1.00096 0.0738697 23.6387
326 1 -1.1104 1.18973 5.3973 23.5907
328 1 -1.1104 6.62091 5.49677 23.6001
329 1 -1.1104 1.10483 -0.0962329 26.4447
330 1 -1.1104 1.08365 5.37859 26.462
332 1 -1.1104 6.74868 5.6232 26.3807
333 2 2.2208 2.55428 1.39333 24.9264
334 2 2.2208 2.463 6.98337 25.0148
335 1 -1.1104 3.98048 -2.83768 23.6684
336 1 -1.1104 3.90586 2.68213 23.5465
337 1 -1.1104 4.03566 8.25942 23.6355
338 1 -1.1104 3.94701 -2.77845 26.4049
339 1 -1.1104 4.00152 2.70292 26.4121
340 1 -1.1104 3.76519 8.41105 26.3012
341 2 2.2208 2.59421 -1.52948 22.2046
342 2 2.2208 2.53348 4.13423 22.2095
343 1 -1.1104 4.04524 -0.111055 23.6056
344 1 -1.1104 3.86593 5.49223 23.5547
345 1 -1.1104 3.92764 -0.00749055 26.5148
346 1 -1.1104 3.86742 5.4578 26.5121
56 2 2.2208 5.33369 6.90198 27.8527
348 2 2.2208 -0.234284 -1.45297 25.0494
55 2 2.2208 2.45965 -1.49064 27.7453
68 2 2.2208 -0.256758 -4.26384 27.889
390 1 -1.1104 9.56379 -2.9205 23.5785
389 1 -1.1104 9.73867 2.6664 23.6062
388 2 2.2208 10.9415 4.05301 25.0014
387 1 -1.1104 9.58828 8.32951 23.7577
299 1 -1.1104 6.77921 8.25217 20.912
303 1 -1.1104 6.81693 5.56677 20.8787
314 1 -1.1104 6.88041 -2.85343 23.7576
316 1 -1.1104 6.76846 8.33613 23.7459
320 1 -1.1104 6.73209 -2.8723 26.5671
321 1 -1.1104 6.75612 2.70358 26.2918
327 1 -1.1104 6.9348 -0.114627 23.6336
331 1 -1.1104 6.79812 0.0123221 26.4726
385 1 -1.1104 9.58043 2.67322 26.5101
386 1 -1.1104 9.532 -2.78688 26.3786
391 2 2.2208 11.0361 -1.54063 25.0503
354 1 -1.1104 9.71987 5.49939 26.3562
355 1 -1.1104 9.69354 -0.039853 26.3593
356 1 -1.1104 9.4407 5.46844 23.5062
357 2 2.2208 8.23111 6.93424 25.0282
358 1 -1.1104 9.68428 -0.24005 23.6452
359 2 2.2208 8.23582 4.13563 22.2774
360 2 2.2208 8.24094 -1.48454 22.3156
361 1 -1.1104 9.36166 8.33125 26.6065
362 1 -1.1104 12.3704 2.62763 26.4083
363 1 -1.1104 12.4127 2.81223 23.5368
364 2 2.2208 8.24186 1.24333 25.0236
365 1 -1.1104 12.31 5.53119 26.6476
366 1 -1.1104 12.406 -2.81778 23.6313
367 2 2.2208 10.9529 6.98078 22.2563
368 1 -1.1104 12.4793 -0.0998448 26.2916
369 1 -1.1104 12.4175 -3.02035 20.8957
370 1 -1.1104 12.3744 2.74352 20.9575
371 1 -1.1104 12.4074 8.3314 20.8136
372 1 -1.1104 12.364 -2.95296 26.4438
373 2 2.2208 11.1619 1.25565 22.0986
374 1 -1.1104 12.3892 -0.311121 20.5539
375 1 -1.1104 12.3978 5.56617 20.8983
376 1 -1.1104 12.3378 5.58174 23.7683
377 1 -1.1104 12.5588 -0.0403867 23.5165
378 1 -1.1104 12.4939 8.20687 23.6221
379 1 -1.1104 12.155 8.35877 26.4474
380 1 -1.1104 9.562 -3.03222 20.9178
382 1 -1.1104 9.55097 8.24943 21.0375
383 1 -1.1104 9.65985 -0.136607 20.7497
384 1 -1.1104 9.62472 5.44904 20.7332
398 2 2.2208 5.09931 12.5789 5.52272
399 2 2.2208 5.33195 18.1147 5.27655
400 1 -1.1104 0.899254 13.8807 1.20173
402 1 -1.1104 1.04897 19.5109 1.14892
406 1 -1.1104 0.908022 13.9537 3.96431
407 1 -1.1104 0.852183 19.4559 4.0439
408 1 -1.1104 6.45608 13.9475 3.95908
410 2 2.2208 5.27951 9.70454 2.67875
411 2 2.2208 5.1824 15.3275 2.59693
412 2 2.2208 5.1787 21.0343 2.70951
413 1 -1.1104 1.05844 11.1255 1.26613
415 1 -1.1104 0.879337 16.8367 1.31262
416 1 -1.1104 1.13462 16.7706 6.80472
421 1 -1.1104 1.05656 11.1029 3.95847
422 1 -1.1104 1.03484 16.7656 4.15257
425 2 2.2208 2.39665 12.4678 2.54204
426 2 2.2208 2.36974 18.1921 2.62229
427 1 -1.1104 3.75081 13.8116 1.25491
429 1 -1.1104 3.79746 19.6011 1.25026
430 1 -1.1104 3.77227 13.9247 3.93595
431 1 -1.1104 3.79441 19.6196 3.97239
432 2 2.2208 2.51865 9.75807 5.44282
433 2 2.2208 2.50592 15.3579 5.34982
434 2 2.2208 2.48665 20.9769 5.52845
435 1 -1.1104 3.95844 11.0638 1.2472
437 1 -1.1104 3.80813 16.8243 1.2166
439 1 -1.1104 3.80106 11.2107 4.13147
440 1 -1.1104 3.88429 16.7707 3.89412
452 2 2.2208 -0.330635 12.5937 5.36881
441 2 2.2208 2.42574 20.8866 -0.203316
447 2 2.2208 -0.44633 15.4105 2.65638
449 2 2.2208 -0.399369 18.2416 5.54039
448 2 2.2208 -0.337431 9.66892 2.65919
443 2 2.2208 2.4033 9.7695 -0.1853
450 2 2.2208 -0.44921 18.1041 -0.158228
442 2 2.2208 2.44948 15.2924 -0.17203
444 2 2.2208 5.36154 18.2591 -0.131576
403 1 -1.1104 6.60733 13.9798 1.07122
405 1 -1.1104 6.66508 19.5536 1.13329
409 1 -1.1104 6.65831 19.5992 4.00232
417 1 -1.1104 6.62957 11.1443 1.14252
418 1 -1.1104 6.72682 11.3185 6.69457
419 1 -1.1104 6.68649 16.8752 1.22202
423 1 -1.1104 6.64973 11.0746 3.88916
424 1 -1.1104 6.66265 16.7169 4.06853
488 2 2.2208 10.9154 18.0873 -0.185094
453 2 2.2208 10.8873 12.5834 5.39206
454 2 2.2208 10.9259 18.2733 5.41166
455 1 -1.1104 12.2488 14.0528 1.26525
457 1 -1.1104 12.3359 19.6419 1.22488
458 1 -1.1104 12.2941 14.0623 4.00217
459 1 -1.1104 12.333 19.6612 3.95577
460 2 2.2208 10.8743 9.7589 2.67071
461 2 2.2208 11.0497 15.4829 2.58197
462 2 2.2208 10.9636 20.95 2.47688
463 1 -1.1104 12.165 11.2176 1.20405
465 1 -1.1104 12.2888 16.8068 1.17697
467 1 -1.1104 12.2847 11.3171 4.0878
468 1 -1.1104 12.4398 16.8338 4.18598
469 2 2.2208 8.08989 12.4846 2.64025
470 2 2.2208 8.10404 18.2481 2.5777
471 1 -1.1104 9.3159 13.8353 1.21295
473 1 -1.1104 9.50784 19.6305 1.14906
474 1 -1.1104 9.51356 13.8523 3.93769
475 1 -1.1104 9.46685 19.5588 3.90022
476 2 2.2208 8.00968 9.76235 5.39819
477 2 2.2208 8.17674 15.3623 5.37576
478 2 2.2208 8.04903 21.0533 5.33837
479 1 -1.1104 9.49434 11.1228 1.28999
481 1 -1.1104 9.41841 16.94 1.22758
483 1 -1.1104 9.52085 11.163 4.09854
484 1 -1.1104 9.552 16.7593 3.88095
485 2 2.2208 8.0405 21.0252 -0.285049
487 2 2.2208 7.99274 9.80155 -0.0682256
489 2 2.2208 10.8993 12.6334 -0.0608274
486 2 2.2208 7.99844 15.4299 -0.187371
401 1 -1.1104 1.11416 13.8458 6.69504
414 1 -1.1104 1.08229 11.0729 6.86518
428 1 -1.1104 3.75868 13.9358 6.81014
436 1 -1.1104 3.90913 11.0618 6.96322
438 1 -1.1104 3.97632 16.6905 6.75314
538 2 2.2208 -0.387624 15.3009 8.05107
539 2 2.2208 -0.21802 9.65668 13.7251
540 2 2.2208 -0.256851 9.70739 8.24463
536 2 2.2208 2.5299 12.5092 13.7408
537 2 2.2208 -0.316618 20.9512 8.31104
496 1 -1.1104 1.29594 19.5328 6.88737
498 1 -1.1104 3.99451 19.5077 6.74626
499 2 2.2208 5.30228 12.4641 11.0283
500 2 2.2208 5.33068 18.1345 11.0151
501 1 -1.1104 1.00567 14.0234 12.2141
502 1 -1.1104 1.14141 19.4745 12.3962
503 1 -1.1104 6.6841 13.8054 12.3516
504 1 -1.1104 6.54933 19.6607 12.4415
505 1 -1.1104 1.09772 14.0137 9.46449
506 1 -1.1104 1.09026 19.5364 9.67719
507 1 -1.1104 6.72126 13.788 9.65712
509 2 2.2208 5.2588 9.68692 8.25922
510 2 2.2208 5.32525 15.264 8.16051
511 2 2.2208 5.27195 20.9797 8.1822
512 1 -1.1104 1.04569 11.1884 12.4088
513 1 -1.1104 1.20295 16.7296 12.3994
515 1 -1.1104 6.72146 16.775 12.3551
516 1 -1.1104 1.173 11.149 9.73489
517 1 -1.1104 0.990779 16.6988 9.50802
519 1 -1.1104 6.71402 16.6724 9.61086
520 2 2.2208 2.40151 12.4959 8.24383
521 2 2.2208 2.57347 18.0112 8.23735
522 1 -1.1104 3.76912 13.8516 12.3659
523 1 -1.1104 3.81151 19.472 12.4845
524 1 -1.1104 3.8833 13.7849 9.61951
525 1 -1.1104 3.79834 19.4704 9.60043
526 2 2.2208 2.54552 9.68272 11.0028
527 2 2.2208 2.40419 15.178 10.8715
528 2 2.2208 2.48186 20.9986 11.1546
529 1 -1.1104 3.85932 11.1024 12.56
530 1 -1.1104 3.91635 16.539 12.3204
531 1 -1.1104 4.08097 11.001 9.68752
532 1 -1.1104 3.83854 16.5194 9.59885
543 2 2.2208 -0.48582 12.6566 10.9708
542 2 2.2208 -0.158557 18.1509 10.9708
404 1 -1.1104 6.66287 13.9131 6.8127
420 1 -1.1104 6.73245 16.7529 6.77356
565 1 -1.1104 9.59783 19.7008 9.64138
573 1 -1.1104 12.3794 19.7118 12.3844
564 1 -1.1104 12.2342 13.8576 9.61673
563 1 -1.1104 12.489 19.5305 9.55691
456 1 -1.1104 12.187 13.9708 6.70082
464 1 -1.1104 12.17 11.0827 6.80409
466 1 -1.1104 12.1642 16.6875 6.83407
472 1 -1.1104 9.43958 14.0218 6.72195
480 1 -1.1104 9.38314 11.0224 6.89381
482 1 -1.1104 9.39024 16.8246 6.81511
572 1 -1.1104 12.2694 14.0092 12.5029
571 2 2.2208 10.9075 18.3905 11.0024
570 2 2.2208 10.9734 12.4714 10.9069
562 2 2.2208 10.7679 9.69742 8.15081
561 1 -1.1104 9.54794 19.5529 6.90743
569 2 2.2208 8.09224 18.2805 8.26076
560 1 -1.1104 12.2302 19.5338 6.85152
497 1 -1.1104 6.74519 19.479 6.84721
508 1 -1.1104 6.74094 19.6608 9.69328
514 1 -1.1104 6.66276 11.0411 12.4296
518 1 -1.1104 6.72766 11.0143 9.52816
554 2 2.2208 8.09966 9.70951 11.0795
568 1 -1.1104 9.55201 13.9947 12.3315
567 1 -1.1104 9.48057 19.6281 12.4508
559 2 2.2208 10.6592 15.3921 8.27374
558 2 2.2208 10.9325 21.0134 8.14116
566 1 -1.1104 9.4707 13.977 9.63438
557 1 -1.1104 12.3622 11.1562 12.2641
556 1 -1.1104 12.3079 16.8526 12.3794
555 1 -1.1104 12.2374 11.0298 9.51709
553 2 2.2208 8.12485 15.2945 11.0943
552 2 2.2208 8.00796 21.0823 11.1039
546 1 -1.1104 9.49837 16.9477 9.61886
547 1 -1.1104 9.46547 11.0374 9.67495
548 1 -1.1104 9.43824 16.7435 12.3415
549 1 -1.1104 9.62541 11.2432 12.5084
550 2 2.2208 8.13977 12.6231 8.16094
551 1 -1.1104 12.3531 16.7476 9.57302
586 2 2.2208 5.27924 12.4797 16.5296
587 2 2.2208 5.36421 18.2746 16.5072
588 1 -1.1104 1.25772 14.0532 17.9119
589 1 -1.1104 1.02982 19.4868 18.1355
592 1 -1.1104 1.21389 13.8864 15.1193
593 1 -1.1104 1.24328 19.6441 15.2865
596 2 2.2208 5.42009 9.75214 19.4188
597 2 2.2208 5.36536 15.4301 19.296
598 2 2.2208 5.30513 20.7992 19.3582
599 1 -1.1104 1.18524 11.2822 18.0199
600 1 -1.1104 1.12734 16.8411 18.073
602 1 -1.1104 6.70121 16.8992 18.0353
603 1 -1.1104 1.06276 11.1156 15.0774
604 1 -1.1104 1.12646 16.636 15.1886
607 2 2.2208 2.57319 12.5236 19.4532
608 2 2.2208 2.5582 18.1667 19.3677
609 1 -1.1104 3.97909 13.9479 17.9404
610 1 -1.1104 3.87783 19.5366 17.8833
611 1 -1.1104 3.97436 13.8607 15.0788
612 1 -1.1104 4.01688 19.5931 15.2234
613 2 2.2208 2.57808 9.71278 16.5574
614 2 2.2208 2.58171 15.3733 16.5084
615 2 2.2208 2.50352 20.8808 16.6742
616 1 -1.1104 4.18224 11.0339 17.9877
617 1 -1.1104 4.00236 16.7938 17.8769
618 1 -1.1104 3.92578 11.0572 15.2769
619 1 -1.1104 3.85612 16.8095 15.0446
544 2 2.2208 5.20515 21.0706 13.8946
622 2 2.2208 -0.292514 15.3127 19.4289
541 2 2.2208 -0.257569 15.3057 13.8529
667 1 -1.1104 3.83937 19.5716 20.637
623 2 2.2208 -0.150803 12.5361 16.6387
535 2 2.2208 5.27289 9.65839 13.8257
545 2 2.2208 -0.250643 20.9256 13.8381
533 2 2.2208 2.49729 18.0233 13.7349
534 2 2.2208 5.35884 15.2462 13.7042
590 1 -1.1104 6.63548 14.0666 17.8264
591 1 -1.1104 6.67885 19.7333 17.9156
594 1 -1.1104 6.79282 13.9049 15.142
595 1 -1.1104 6.77391 19.5969 15.14
601 1 -1.1104 6.86943 11.2114 18.1068
605 1 -1.1104 6.86087 11.1942 15.2315
606 1 -1.1104 6.80182 16.5491 15.0779
655 2 2.2208 13.7606 9.80277 16.5031
625 2 2.2208 10.8661 12.5904 16.7069
626 2 2.2208 10.8088 18.2104 16.4843
627 1 -1.1104 12.1742 14.0207 18.0693
628 1 -1.1104 12.3144 19.6202 18.0085
629 1 -1.1104 12.3405 13.9537 15.2705
630 1 -1.1104 12.2906 19.4147 15.124
632 2 2.2208 10.8904 9.70122 19.4715
633 2 2.2208 10.8275 15.4215 19.4547
634 2 2.2208 10.8757 20.9475 19.4625
635 1 -1.1104 12.3901 11.1629 17.9979
636 1 -1.1104 12.2224 16.8991 18.048
637 1 -1.1104 12.4601 11.1009 15.2001
638 1 -1.1104 12.34 16.6808 15.1703
639 2 2.2208 8.06059 12.6046 19.5028
640 2 2.2208 8.12371 18.1987 19.3845
641 1 -1.1104 9.3988 13.9975 18.0728
642 1 -1.1104 9.53201 19.6347 18.0611
643 1 -1.1104 9.59298 13.9271 15.1763
644 1 -1.1104 9.48191 19.7145 15.2236
646 2 2.2208 8.21363 9.70207 16.6296
647 2 2.2208 8.20267 15.3881 16.5252
648 2 2.2208 8.10839 21.211 16.6559
649 1 -1.1104 9.54324 11.1392 18.1961
650 1 -1.1104 9.4673 16.7707 17.9656
651 1 -1.1104 9.63761 10.9932 15.2754
652 1 -1.1104 9.44001 16.7872 15.1843
653 2 2.2208 13.7554 12.6174 19.4179
585 2 2.2208 10.9179 20.9905 13.7976
665 1 -1.1104 6.62663 16.7168 20.921
657 2 2.2208 13.6954 20.8551 16.565
722 1 -1.1104 12.2984 13.9965 20.9501
576 2 2.2208 8.0059 18.1304 13.7472
656 2 2.2208 13.6869 15.3285 16.4866
578 2 2.2208 10.9611 9.72155 13.8464
577 2 2.2208 10.8385 15.2747 13.7543
581 2 2.2208 13.6366 12.5371 13.8091
579 2 2.2208 8.25869 12.5735 13.8105
707 2 2.2208 -0.22973 18.1361 22.3517
704 2 2.2208 -0.370093 20.8919 25.0806
705 2 2.2208 -0.319168 15.2459 25.0966
658 1 -1.1104 1.13214 13.7801 20.8029
659 1 -1.1104 1.31017 19.5214 20.8951
660 1 -1.1104 6.78828 14.0326 20.7339
661 1 -1.1104 6.58667 19.5972 20.8299
662 1 -1.1104 1.21568 11.0654 20.7796
663 1 -1.1104 1.09314 16.7596 20.9622
666 1 -1.1104 3.95665 13.9607 20.7884
668 1 -1.1104 3.95165 11.1959 20.9176
669 1 -1.1104 3.86333 16.8043 20.8107
670 2 2.2208 5.44936 12.6014 22.2496
671 2 2.2208 5.25692 18.1036 22.3173
672 1 -1.1104 1.11286 13.9923 23.5878
673 1 -1.1104 1.15208 19.5956 23.7289
676 1 -1.1104 1.02722 13.9794 26.4425
677 1 -1.1104 0.977081 19.4626 26.4265
680 2 2.2208 5.26699 9.69412 25.102
681 2 2.2208 5.40252 15.5012 24.9611
682 2 2.2208 5.25271 20.9094 25.0834
683 1 -1.1104 1.33272 11.1051 23.6034
684 1 -1.1104 1.22172 16.7737 23.7861
685 1 -1.1104 6.8433 11.2134 23.7197
687 1 -1.1104 1.03131 11.2929 26.2909
688 1 -1.1104 1.10737 16.6779 26.6428
691 2 2.2208 2.58576 12.6081 24.9916
692 2 2.2208 2.45233 18.1194 25.1267
693 1 -1.1104 3.96648 14.1174 23.5529
694 1 -1.1104 3.89286 19.6792 23.5809
695 1 -1.1104 3.88525 14.1848 26.441
696 1 -1.1104 3.78336 19.6107 26.3208
697 2 2.2208 2.62621 9.77525 22.306
698 2 2.2208 2.4545 15.375 22.1121
699 2 2.2208 2.52704 20.9871 22.3118
700 1 -1.1104 4.07371 11.2227 23.5961
701 1 -1.1104 3.99784 16.8185 23.7683
702 1 -1.1104 3.73009 11.1444 26.5471
703 1 -1.1104 3.98911 16.8679 26.4248
706 2 2.2208 -0.291089 9.84678 25.0952
445 2 2.2208 5.2182 12.5835 27.8092
631 1 -1.1104 12.1894 19.5705 20.6945
645 1 -1.1104 9.41962 19.5691 20.883
740 1 -1.1104 12.4706 14.0198 23.681
664 1 -1.1104 6.79004 11.1871 20.858
674 1 -1.1104 6.82806 14.1147 23.7162
675 1 -1.1104 6.69439 19.6263 23.4906
678 1 -1.1104 6.66406 13.9233 26.5378
679 1 -1.1104 6.63207 19.6035 26.4444
686 1 -1.1104 6.82575 16.9869 23.7196
689 1 -1.1104 6.52306 11.2834 26.2911
690 1 -1.1104 6.8253 16.8643 26.4414
739 2 2.2208 10.9122 18.1409 22.1616
738 2 2.2208 11.0348 12.5072 22.2276
737 2 2.2208 8.1452 12.5233 25.0922
736 2 2.2208 8.21133 18.1592 25.0151
709 1 -1.1104 9.60427 16.6611 26.5366
710 1 -1.1104 9.51131 11.0514 26.5912
711 1 -1.1104 9.67101 16.9803 23.6281
712 1 -1.1104 9.61285 11.164 23.6071
713 2 2.2208 8.07135 21.0112 22.2292
714 2 2.2208 8.20383 15.4941 22.2933
715 2 2.2208 8.17541 9.75727 22.2455
716 1 -1.1104 9.55878 19.5863 26.4069
717 2 2.2208 10.8983 9.82051 25.211
718 2 2.2208 10.9159 21.0799 25.0008
719 1 -1.1104 12.3146 16.7481 26.4682
720 1 -1.1104 12.2579 19.598 26.5077
721 1 -1.1104 12.2242 11.2032 26.4742
723 1 -1.1104 12.4127 14.0163 26.5608
724 2 2.2208 10.9833 15.3337 25.1576
725 1 -1.1104 12.3788 16.7827 23.7182
726 1 -1.1104 12.3667 11.13 20.7176
727 1 -1.1104 12.2391 16.6984 20.888
728 1 -1.1104 12.224 19.6468 23.6231
729 1 -1.1104 12.2746 11.0374 23.545
730 1 -1.1104 9.47702 13.8699 20.9897
731 1 -1.1104 9.71597 11.0889 20.9681
732 1 -1.1104 9.45997 16.8787 20.6854
733 1 -1.1104 9.48493 13.8929 26.5228
734 1 -1.1104 9.45625 19.7921 23.7905
735 1 -1.1104 9.68463 14.018 23.6436
746 2 2.2208 5.19618 23.8706 5.37664
748 2 2.2208 5.4701 29.3873 5.40242
749 1 -1.1104 1.10371 25.0779 1.27941
750 1 -1.1104 0.997485 30.6918 1.19523
753 1 -1.1104 1.09298 25.1554 4.11852
754 1 -1.1104 1.21156 30.6873 3.97442
757 2 2.2208 5.32509 26.4404 2.62336
758 2 2.2208 5.37205 32.1163 2.54016
759 1 -1.1104 1.07464 22.2771 1.09511
760 1 -1.1104 1.06982 27.9101 1.28105
761 1 -1.1104 1.16422 33.5135 1.33209
763 1 -1.1104 6.80725 27.7801 1.03262
765 1 -1.1104 1.06427 22.3711 3.89864
766 1 -1.1104 1.20182 27.8772 4.08172
767 1 -1.1104 1.13139 33.5069 4.11769
771 2 2.2208 2.50028 23.7652 2.61244
772 2 2.2208 2.57824 29.3986 2.64937
773 1 -1.1104 3.88036 25.1944 1.23279
774 1 -1.1104 3.93524 30.8561 1.11257
775 1 -1.1104 3.93582 25.0784 3.99665
776 1 -1.1104 4.04759 30.8597 3.96515
777 2 2.2208 2.48581 26.5759 -0.129448
778 2 2.2208 2.5704 26.5753 5.43103
779 2 2.2208 2.58659 32.147 5.37241
780 1 -1.1104 3.9295 22.3752 1.30834
781 1 -1.1104 3.88083 28.0353 1.35936
782 1 -1.1104 3.9512 33.5873 1.26343
783 1 -1.1104 3.76165 22.3167 4.04434
784 1 -1.1104 4.03251 27.9372 4.11207
785 1 -1.1104 3.92129 33.6633 4.06175
787 2 2.2208 -0.302352 23.7674 5.52833
789 2 2.2208 -0.326155 29.2987 5.41149
792 2 2.2208 -0.299226 23.7398 -0.141977
788 2 2.2208 -0.335127 29.2961 -0.125586
1080 2 2.2208 2.55276 32.1649 -0.237938
747 2 2.2208 5.35139 29.3494 -0.353754
791 2 2.2208 5.24598 23.7804 -0.167544
751 1 -1.1104 6.80076 25.0783 1.18462
752 1 -1.1104 6.85398 30.6987 1.36835
755 1 -1.1104 6.74878 25.1368 4.00776
756 1 -1.1104 6.76444 30.723 4.06448
762 1 -1.1104 6.67194 22.404 1.16218
764 1 -1.1104 6.7991 33.467 1.29678
768 1 -1.1104 6.65077 22.4994 3.89768
769 1 -1.1104 6.78383 27.9567 3.91467
770 1 -1.1104 6.72835 33.5658 4.04662
823 2 2.2208 13.8098 26.5976 -0.247166
793 2 2.2208 11.0681 23.9137 5.33618
794 2 2.2208 10.8865 29.4158 5.37144
795 1 -1.1104 12.3037 25.2831 1.03504
796 1 -1.1104 12.4561 30.8974 1.10045
797 1 -1.1104 12.4152 25.3274 3.95861
798 1 -1.1104 12.3507 30.8884 3.87068
799 2 2.2208 10.9491 26.6369 2.50159
800 2 2.2208 10.9243 32.2392 2.47907
801 1 -1.1104 12.1397 22.5222 1.12954
802 1 -1.1104 12.2753 28.1249 1.26738
803 1 -1.1104 12.2262 33.6724 1.06385
804 1 -1.1104 12.4218 22.5313 3.97296
805 1 -1.1104 12.3232 28.0513 4.08764
806 1 -1.1104 12.3025 33.5748 3.87684
807 2 2.2208 8.13128 23.8285 2.60738
808 2 2.2208 8.25594 29.4422 2.54182
809 1 -1.1104 9.50018 25.2151 1.20659
810 1 -1.1104 9.63582 30.8309 1.20624
811 1 -1.1104 9.50733 25.2013 4.02632
812 1 -1.1104 9.53861 30.8307 4.03098
814 2 2.2208 8.1981 26.5362 5.31392
815 2 2.2208 8.05086 32.2394 5.29326
816 1 -1.1104 9.41895 22.4828 1.10093
817 1 -1.1104 9.52741 28.0283 1.16687
818 1 -1.1104 9.49578 33.5734 1.12191
819 1 -1.1104 9.49326 22.4575 3.97231
820 1 -1.1104 9.53321 27.993 3.90882
821 1 -1.1104 9.58349 33.6678 3.98626
1113 2 2.2208 8.12275 32.1821 -0.121213
813 2 2.2208 8.05599 26.5177 -0.275537
822 2 2.2208 10.7564 23.7558 -0.326612
1115 2 2.2208 10.9264 29.3634 -0.207474
883 2 2.2208 -0.274573 32.1402 8.25481
843 2 2.2208 -0.433341 29.3586 10.9954
884 2 2.2208 -0.324975 26.5962 8.31908
828 1 -1.1104 1.14811 25.3426 6.83225
829 1 -1.1104 0.950656 30.8386 6.81939
832 1 -1.1104 1.05436 22.3168 6.82465
833 1 -1.1104 1.12874 28.0725 6.88853
834 1 -1.1104 1.06555 33.6154 6.73092
837 1 -1.1104 6.84278 33.5837 6.80369
838 1 -1.1104 3.94698 25.2496 6.80363
839 1 -1.1104 3.88429 30.695 6.68192
840 1 -1.1104 3.93912 22.3359 6.86324
841 1 -1.1104 3.93027 27.9881 6.72397
842 1 -1.1104 3.92031 33.4462 6.9046
844 2 2.2208 5.28942 23.7787 11.0185
845 2 2.2208 5.28852 29.4055 11.0817
846 1 -1.1104 1.16202 25.1354 12.4304
847 1 -1.1104 0.926358 30.7321 12.4517
849 1 -1.1104 6.76571 30.7433 12.453
850 1 -1.1104 0.873425 25.027 9.77682
851 1 -1.1104 1.11897 30.7221 9.67142
852 1 -1.1104 6.65184 25.054 9.49824
853 1 -1.1104 6.62512 30.8546 9.6898
854 2 2.2208 5.33995 26.69 8.11022
855 2 2.2208 5.3236 32.2144 8.27658
856 1 -1.1104 1.08231 22.3507 12.5752