ITEM: TIMESTEP
90000
ITEM: NUMBER OF ATOMS
18000
ITEM: BOX BOUNDS pp pp pp
-3.5781191253694367e-01 2.7697811912536309e+01
-4.3174886289036456e+00 3.3239748862891656e+02
-3.4821931177759818e-01 2.7688219311778155e+01
ITEM: ATOMS id type q x y z
1 2 2.2208 5.17122 1.24692 5.3195
2 2 2.2208 5.26208 6.84521 5.28925
3 1 -1.1104 1.16206 -2.94717 1.08756
5 1 -1.1104 1.20523 2.46148 0.936356
7 1 -1.1104 0.967338 8.31 1.1436
15 1 -1.1104 1.12961 -2.74726 3.95154
16 1 -1.1104 1.1344 2.8194 3.80108
17 1 -1.1104 1.0866 8.29822 3.86514
21 2 2.2208 5.26624 -1.49229 2.44066
22 2 2.2208 5.43359 4.11632 2.66535
23 1 -1.1104 1.22457 -0.172673 1.17801
25 1 -1.1104 1.24517 5.34451 1.18824
31 1 -1.1104 0.948546 0.152056 3.71078
32 1 -1.1104 0.93651 5.51843 3.86563
35 2 2.2208 2.51956 1.38595 2.54914
36 2 2.2208 2.46858 6.89822 2.44163
37 1 -1.1104 4.00215 -2.84835 1.08974
39 1 -1.1104 3.95172 2.84504 1.18308
41 1 -1.1104 3.76218 8.30001 1.12051
43 1 -1.1104 3.8486 -2.99532 3.93641
44 1 -1.1104 4.0032 2.76642 3.94812
45 1 -1.1104 3.81114 8.20785 3.87969
46 2 2.2208 2.46863 -1.5383 5.41975
47 2 2.2208 2.51285 4.24813 5.23316
48 1 -1.1104 4.03123 0.0231455 1.04417
50 1 -1.1104 3.91807 5.56366 1.02724
52 1 -1.1104 3.81252 -0.204927 3.97295
53 1 -1.1104 3.93185 5.54157 3.75836
9 1 -1.1104 6.67898 -2.86951 1.08683
49 1 -1.1104 3.8658 -0.236317 6.72544
54 2 2.2208 2.52283 3.94558 -0.318977
55 2 2.2208 2.58799 -1.50018 -0.231099
68 2 2.2208 -0.331911 -4.38892 -0.188051
58 2 2.2208 -0.285169 -4.27387 5.39231
66 2 2.2208 2.49111 -4.37469 2.47041
62 2 2.2208 -0.322989 1.41531 5.31379
64 2 2.2208 -0.242312 1.19458 -0.320582
60 2 2.2208 -0.204965 -1.47857 2.47403
59 2 2.2208 -0.188984 4.06391 2.45221
61 2 2.2208 -0.29392 6.95664 5.27444
56 2 2.2208 5.28014 6.94539 -0.262184
57 2 2.2208 5.43643 1.36276 -0.171233
63 2 2.2208 -0.258904 6.93107 -0.338639
13 1 -1.1104 6.55307 8.32609 1.1516
19 1 -1.1104 6.82785 2.77496 4.0622
33 1 -1.1104 6.58225 -0.042753 3.99755
27 1 -1.1104 6.84346 -0.0995946 1.31163
11 1 -1.1104 6.69313 2.78958 1.21246
20 1 -1.1104 6.66569 8.1735 4.01533
29 1 -1.1104 6.71999 5.61354 1.09175
34 1 -1.1104 6.8293 5.54859 3.93594
18 1 -1.1104 6.5548 -2.8971 3.89805
69 2 2.2208 10.7843 1.29686 5.4758
70 2 2.2208 10.9246 6.85817 5.31751
71 1 -1.1104 12.308 -2.93969 1.18578
73 1 -1.1104 12.3117 2.61615 1.1688
75 1 -1.1104 12.3531 8.51428 1.21296
77 1 -1.1104 12.2589 -2.99867 3.94262
78 1 -1.1104 12.3512 2.69098 3.97947
79 1 -1.1104 12.3276 8.24222 4.02628
80 2 2.2208 10.9261 -1.55567 2.47687
81 2 2.2208 10.9675 4.01879 2.47231
82 1 -1.1104 12.3774 -0.263132 1.09774
84 1 -1.1104 12.3365 5.52544 1.16515
86 1 -1.1104 12.3258 -0.108094 3.85531
87 1 -1.1104 12.2587 5.39011 4.0056
88 2 2.2208 8.22686 1.29387 2.5658
89 2 2.2208 8.0802 6.86544 2.46558
90 1 -1.1104 9.54258 -2.93023 1.15362
92 1 -1.1104 9.41683 2.69189 1.05045
94 1 -1.1104 9.50349 8.35191 1.11341
96 1 -1.1104 9.30169 -2.9515 4.04269
97 1 -1.1104 9.51087 2.63973 3.99408
98 1 -1.1104 9.501 8.31847 3.87478
99 2 2.2208 7.99768 -1.52907 5.41036
100 2 2.2208 8.12597 4.21753 5.39726
101 1 -1.1104 9.59135 -0.116007 1.10485
103 1 -1.1104 9.67717 5.52843 1.22247
105 1 -1.1104 9.50263 -0.110432 3.83746
106 1 -1.1104 9.5347 5.44894 3.83501
111 2 2.2208 13.5678 1.26385 2.57774
113 2 2.2208 13.6823 -1.70452 5.34413
118 2 2.2208 8.00914 -4.36162 2.50947
72 1 -1.1104 12.497 -3.04054 6.76898
109 2 2.2208 10.9054 6.97062 -0.335032
120 2 2.2208 10.9713 -4.25161 -0.159921
108 2 2.2208 8.067 -1.46351 -0.273814
107 2 2.2208 8.20474 4.10629 -0.23977
110 2 2.2208 10.9338 1.22363 -0.306587
40 1 -1.1104 3.83109 2.63497 6.55932
51 1 -1.1104 3.73855 5.47897 6.67995
26 1 -1.1104 0.976885 5.53191 6.70672
8 1 -1.1104 1.13044 8.25688 6.71647
24 1 -1.1104 0.99094 -0.0702415 6.63
167 2 2.2208 -0.382273 1.30096 10.9754
38 1 -1.1104 3.85767 -3.0007 6.72613
42 1 -1.1104 3.80989 8.33083 6.70534
6 1 -1.1104 1.12031 2.921 6.66975
4 1 -1.1104 0.999011 -2.85145 6.8161
121 1 -1.1104 3.83524 5.65027 9.39465
122 2 2.2208 5.29041 1.53752 11.1276
123 2 2.2208 5.20479 6.90805 11.0202
124 1 -1.1104 1.13408 -2.85031 12.3133
125 1 -1.1104 1.08102 2.7127 12.3444
126 1 -1.1104 0.9796 8.25371 12.2988
130 1 -1.1104 0.986775 -2.93139 9.54263
131 1 -1.1104 1.03656 2.69144 9.53333
132 1 -1.1104 1.12246 8.30741 9.70882
136 2 2.2208 5.49119 -1.46668 8.20034
137 2 2.2208 5.36533 4.30279 8.11343
138 1 -1.1104 1.07218 -0.157859 12.3734
139 1 -1.1104 1.00436 5.57605 12.3923
142 1 -1.1104 1.09964 -0.129905 9.43071
143 1 -1.1104 1.00749 5.54939 9.50869
146 2 2.2208 2.57488 1.3652 8.07098
147 2 2.2208 2.41133 6.97979 8.15318
148 1 -1.1104 3.75761 -2.77927 12.2988
149 1 -1.1104 3.88113 2.76269 12.5366
150 1 -1.1104 3.71647 8.28779 12.4008
151 1 -1.1104 4.08258 -2.85745 9.57916
152 1 -1.1104 3.88711 2.7821 9.62364
153 1 -1.1104 3.94016 8.39419 9.61364
154 2 2.2208 2.37244 -1.43271 10.8834
155 2 2.2208 2.41921 3.98899 10.9367
156 1 -1.1104 3.87698 0.0171516 12.3279
157 1 -1.1104 3.89611 5.35932 12.3559
158 1 -1.1104 3.96066 0.0188559 9.5537
169 2 2.2208 5.32634 -4.16313 11.0031
168 2 2.2208 2.50277 -4.24418 8.27218
170 2 2.2208 -0.232553 -4.36036 10.9809
165 2 2.2208 -0.395294 6.88712 10.9784
164 2 2.2208 -0.496123 -1.47546 8.12972
163 2 2.2208 -0.309471 4.18503 8.17978
30 1 -1.1104 6.63085 5.62868 6.77883
14 1 -1.1104 6.6002 8.39786 6.78442
12 1 -1.1104 6.60019 2.88284 6.88992
213 2 2.2208 8.09391 -4.29014 13.8749
91 1 -1.1104 9.49303 -2.74876 6.82668
104 1 -1.1104 9.53723 5.47648 6.85413
95 1 -1.1104 9.57535 8.17801 6.62589
85 1 -1.1104 12.3625 5.40104 6.71141
74 1 -1.1104 12.2206 2.64215 6.82451
93 1 -1.1104 9.41231 2.74001 6.71936
83 1 -1.1104 12.3753 -0.264371 6.5754
208 2 2.2208 13.858 -1.51154 10.9498
28 1 -1.1104 6.62049 -0.0789222 6.80138
10 1 -1.1104 6.68505 -2.90416 6.82336
129 1 -1.1104 6.71669 8.34996 12.3903
141 1 -1.1104 6.65563 5.50046 12.3043
135 1 -1.1104 6.66798 8.34448 9.61348
133 1 -1.1104 6.79659 -2.83556 9.61756
134 1 -1.1104 6.78342 2.80964 9.62952
210 2 2.2208 11.0426 -4.3685 10.9925
140 1 -1.1104 6.87712 -0.225287 12.4972
144 1 -1.1104 6.78628 0.0851829 9.73694
145 1 -1.1104 6.75451 5.55014 9.59528
127 1 -1.1104 6.63234 -2.94594 12.5028
76 1 -1.1104 12.4596 8.26747 6.91864
102 1 -1.1104 9.36333 0.0255601 6.73593
192 1 -1.1104 12.3403 2.74388 9.48291
173 1 -1.1104 9.57175 -0.0243187 9.54641
193 1 -1.1104 9.53483 -2.97605 9.59621
191 2 2.2208 10.957 4.05951 8.18546
172 1 -1.1104 9.63951 5.60666 9.58691
181 1 -1.1104 12.2136 8.30926 12.5613
186 1 -1.1104 12.3838 -2.87373 12.3646
185 1 -1.1104 12.4179 2.59062 12.3277
178 2 2.2208 8.05354 1.47865 8.2873
195 1 -1.1104 9.75794 2.68035 12.4702
179 1 -1.1104 12.3818 5.59913 9.50946
175 1 -1.1104 9.54686 -0.132283 12.3387
188 1 -1.1104 12.207 -0.406686 12.3112
183 1 -1.1104 9.56352 2.81362 9.64566
128 1 -1.1104 6.94447 2.65809 12.4837
196 2 2.2208 11.09 -1.48901 8.29659
180 1 -1.1104 12.4749 -2.90354 9.47912
190 2 2.2208 10.9588 1.17435 10.8562
198 2 2.2208 8.1254 6.98148 8.12108
199 1 -1.1104 12.2315 8.4446 9.63327
182 1 -1.1104 9.43724 8.34436 9.54322
184 1 -1.1104 12.3626 -0.144282 9.54645
197 1 -1.1104 9.57738 -2.92817 12.3902
177 2 2.2208 8.20043 -1.49098 10.9912
189 2 2.2208 10.9743 6.94755 10.9945
176 2 2.2208 8.25536 4.12011 11.0293
187 1 -1.1104 12.2576 5.43162 12.3318
174 1 -1.1104 9.46139 5.5557 12.2821
194 1 -1.1104 9.50993 8.21987 12.2845
214 2 2.2208 5.28995 1.3387 16.6936
215 2 2.2208 5.42634 6.89813 16.6106
216 1 -1.1104 1.06292 -2.95725 17.8261
217 1 -1.1104 0.935562 2.69194 18.0098
218 1 -1.1104 1.01547 8.41471 17.9319
222 1 -1.1104 1.02922 -2.90788 15.1378
223 1 -1.1104 0.990477 2.69076 15.1218
224 1 -1.1104 0.983823 8.39177 15.0839
228 2 2.2208 5.26448 -1.58623 19.4098
229 2 2.2208 5.3204 4.01538 19.5091
230 1 -1.1104 0.883181 -0.062216 17.9488
231 1 -1.1104 1.13852 5.499 18.0526
234 1 -1.1104 1.07645 -0.0383632 15.2147
235 1 -1.1104 1.01101 5.46529 15.2981
238 2 2.2208 2.33168 1.2377 19.2945
239 2 2.2208 2.53914 6.85817 19.3898
240 1 -1.1104 3.93908 -2.96724 17.9914
241 1 -1.1104 3.92696 2.59143 17.9935
242 1 -1.1104 3.92125 8.51755 17.9436
243 1 -1.1104 3.92337 -2.89323 15.1507
244 1 -1.1104 3.75534 2.82026 15.1623
245 1 -1.1104 3.83844 8.43895 15.1238
246 2 2.2208 2.38494 -1.48821 16.4935
247 2 2.2208 2.48691 4.03118 16.651
248 1 -1.1104 3.76254 -0.192346 18.0808
249 1 -1.1104 3.96316 5.585 18.0954
250 1 -1.1104 3.90358 -0.0336236 15.1852
251 1 -1.1104 4.00984 5.7808 15.2079
257 2 2.2208 2.46415 -4.28947 19.4202
236 1 -1.1104 6.6073 -0.1316 15.2332
159 2 2.2208 5.3273 -1.54239 13.7609
252 2 2.2208 2.40705 -4.29471 13.9295
253 2 2.2208 -0.322597 4.22375 19.4316
256 2 2.2208 -0.459478 1.23113 16.6356
258 2 2.2208 -0.40015 -4.32686 16.6075
161 2 2.2208 2.42395 1.2585 13.8762
160 2 2.2208 5.27004 4.13166 13.8016
162 2 2.2208 2.30246 6.96717 13.8324
166 2 2.2208 -0.359265 4.0751 13.8074
171 2 2.2208 -0.391771 -1.49907 13.7573
232 1 -1.1104 6.58873 -0.171571 17.8759
219 1 -1.1104 6.6942 -2.9745 18.1747
225 1 -1.1104 6.72945 -2.94471 15.3875
233 1 -1.1104 6.67722 5.37473 18.0227
237 1 -1.1104 6.90572 5.35953 15.1388
227 1 -1.1104 6.79848 8.10688 15.136
221 1 -1.1104 6.78221 8.22657 18.0408
220 1 -1.1104 6.62243 2.55699 18.119
226 1 -1.1104 6.66684 2.68537 15.2985
370 1 -1.1104 12.1734 2.80369 20.7907
260 2 2.2208 10.8065 1.21195 16.4597
261 2 2.2208 11.0675 7.00341 16.5559
262 1 -1.1104 12.0467 -2.91971 17.8356
263 1 -1.1104 12.2643 2.67262 17.9755
264 1 -1.1104 12.2792 8.3931 18.0581
265 1 -1.1104 12.3749 -2.83132 15.1131
266 1 -1.1104 12.2122 2.62126 15.1822
267 1 -1.1104 12.327 8.45311 15.2538
268 2 2.2208 10.8091 -1.54957 19.391
269 2 2.2208 10.8365 4.0344 19.3636
270 1 -1.1104 12.2858 -0.119527 17.8848
271 1 -1.1104 12.3642 5.46518 17.9287
272 1 -1.1104 12.2009 -0.0610682 15.0641
273 1 -1.1104 12.4815 5.61936 15.1498
274 2 2.2208 8.04272 1.29514 19.3004
275 2 2.2208 8.18707 6.82025 19.358
276 1 -1.1104 9.48742 -2.95376 17.9694
277 1 -1.1104 9.57185 2.7041 17.9245
278 1 -1.1104 9.41443 8.2413 17.988
279 1 -1.1104 9.47536 -3.09025 15.1975
280 1 -1.1104 9.42248 2.63734 15.1694
281 1 -1.1104 9.5385 8.29284 15.1444
282 2 2.2208 8.11171 -1.51389 16.6244
283 2 2.2208 8.20961 4.03305 16.5257
284 1 -1.1104 9.43267 -0.163973 18.1466
285 1 -1.1104 9.58766 5.49845 17.9109
286 1 -1.1104 9.4638 -0.314112 15.2573
287 1 -1.1104 9.73225 5.49861 15.193
291 2 2.2208 8.00187 -4.30773 19.4108
9616 2 2.2208 13.6015 6.95036 19.3012
9617 2 2.2208 13.6694 -4.43494 19.4328
289 2 2.2208 13.5327 -1.54458 16.6
204 2 2.2208 13.6834 6.84692 13.7689
201 2 2.2208 8.1803 1.24723 13.8036
203 2 2.2208 8.12296 6.85031 13.7134
202 2 2.2208 10.8671 4.20621 13.59
200 2 2.2208 10.8892 -1.64909 13.7829
296 1 -1.1104 1.1876 8.31138 20.8237
300 1 -1.1104 0.977921 -0.188739 20.6938
301 1 -1.1104 1.18753 5.48509 20.7707
295 1 -1.1104 1.19338 2.60963 20.6167
294 1 -1.1104 1.13159 -2.90483 20.5943
307 1 -1.1104 3.74044 -0.12616 20.792
305 1 -1.1104 3.86577 2.65744 20.7744
298 1 -1.1104 6.59568 2.59396 21.0218
348 2 2.2208 -0.327622 -1.53715 24.9652
304 1 -1.1104 3.86018 -3.02019 20.844
308 1 -1.1104 4.0118 5.37726 20.8665
352 2 2.2208 -0.265721 -4.41219 22.1413
353 2 2.2208 2.51624 -4.44239 24.9532
306 1 -1.1104 3.96518 8.20724 20.8155
309 2 2.2208 5.2131 1.24729 22.1912
310 2 2.2208 5.32035 6.86283 22.2373
311 1 -1.1104 1.11315 -2.96834 23.3553
312 1 -1.1104 1.16127 2.7329 23.5312
313 1 -1.1104 1.03409 8.53626 23.5912
317 1 -1.1104 0.932499 -3.06133 26.2989
318 1 -1.1104 1.04189 2.74259 26.182
319 1 -1.1104 1.21195 8.37797 26.4333
323 2 2.2208 5.26172 -1.50887 25.0099
324 2 2.2208 5.31373 4.24075 25.0696
325 1 -1.1104 1.10593 -0.211099 23.5878
326 1 -1.1104 0.947067 5.64913 23.6442
329 1 -1.1104 1.01911 -0.232853 26.3956
330 1 -1.1104 1.15292 5.43637 26.3982
333 2 2.2208 2.41364 1.27483 24.9304
334 2 2.2208 2.5061 6.95066 24.9559
335 1 -1.1104 3.99624 -2.8709 23.6786
336 1 -1.1104 3.92867 2.68295 23.7695
337 1 -1.1104 3.966 8.27474 23.7244
338 1 -1.1104 3.82615 -3.0912 26.2541
339 1 -1.1104 3.81675 2.5754 26.5114
340 1 -1.1104 4.02716 8.36527 26.4079
341 2 2.2208 2.49109 -1.53634 22.0701
342 2 2.2208 2.40551 3.99044 22.1413
343 1 -1.1104 3.88916 -0.132767 23.6059
344 1 -1.1104 3.72521 5.50307 23.5883
345 1 -1.1104 3.83513 -0.0695423 26.4017
346 1 -1.1104 3.89268 5.5804 26.339
320 1 -1.1104 6.55061 -2.79626 26.3851
351 2 2.2208 5.19289 -4.3825 22.2136
314 1 -1.1104 6.78829 -2.91667 23.629
347 2 2.2208 -0.287518 4.12588 24.942
350 2 2.2208 -0.271252 1.23681 22.2375
299 1 -1.1104 6.83117 8.24701 20.8735
297 1 -1.1104 6.62354 -2.72847 20.9605
302 1 -1.1104 6.6737 -0.145924 20.7221
397 2 2.2208 8.02249 -4.33008 24.9992
396 2 2.2208 10.8681 -4.2178 22.1634
380 1 -1.1104 9.31069 -2.87025 20.8572
381 1 -1.1104 9.44603 2.65073 20.7349
375 1 -1.1104 12.2457 5.57963 20.8473
303 1 -1.1104 6.78365 5.53094 20.8015
383 1 -1.1104 9.50221 -0.077782 20.8468
384 1 -1.1104 9.47621 5.51555 20.8386
374 1 -1.1104 12.2992 -0.0109262 20.6339
371 1 -1.1104 12.2973 8.47623 20.6427
369 1 -1.1104 12.2339 -2.90097 20.8986
382 1 -1.1104 9.57696 8.29745 20.7849
332 1 -1.1104 6.73072 5.34043 26.4036
321 1 -1.1104 6.75757 2.61797 26.4974
316 1 -1.1104 6.60139 8.39706 23.4961
322 1 -1.1104 6.84799 8.19995 26.3113
377 1 -1.1104 12.2655 -0.114681 23.569
328 1 -1.1104 6.77436 5.57807 23.7981
331 1 -1.1104 6.64117 0.037233 26.5431
364 2 2.2208 8.1022 1.32333 25.0261
357 2 2.2208 8.20354 6.85096 24.9119
376 1 -1.1104 12.1886 5.43163 23.6733
358 1 -1.1104 9.56963 0.082692 23.6014
359 2 2.2208 8.1645 4.13674 22.2563
393 2 2.2208 13.7322 6.9017 25.0553
360 2 2.2208 8.04617 -1.47162 22.2815
389 1 -1.1104 9.58859 2.68247 23.5999
361 1 -1.1104 9.5775 8.28872 26.4359
388 2 2.2208 10.9229 4.04121 24.9831
395 2 2.2208 13.5944 4.1216 22.2256
367 2 2.2208 10.8914 6.96046 22.1481
365 1 -1.1104 12.4386 5.61694 26.406
366 1 -1.1104 12.424 -2.81863 23.5737
327 1 -1.1104 6.73452 -0.0589921 23.7269
315 1 -1.1104 6.74079 2.65341 23.7736
378 1 -1.1104 12.2729 8.21963 23.6693
372 1 -1.1104 12.4544 -2.82302 26.33
356 1 -1.1104 9.50904 5.51379 23.5416
362 1 -1.1104 12.4967 2.69984 26.5503
363 1 -1.1104 12.2858 2.75871 23.5777
368 1 -1.1104 12.2996 -0.131973 26.3296
390 1 -1.1104 9.51757 -2.84023 23.7921
373 2 2.2208 10.8335 1.42059 22.1731
379 1 -1.1104 12.2529 8.49326 26.4727
354 1 -1.1104 9.56721 5.59329 26.2989
391 2 2.2208 10.8048 -1.44118 24.9138
355 1 -1.1104 9.40441 -0.0714857 26.3547
386 1 -1.1104 9.44827 -2.79013 26.433
385 1 -1.1104 9.53364 2.70122 26.4788
387 1 -1.1104 9.63343 8.3107 23.5459
398 2 2.2208 5.39169 12.642 5.57679
399 2 2.2208 5.31573 18.1263 5.53673
400 1 -1.1104 0.949448 13.9912 1.1579
402 1 -1.1104 1.02469 19.6007 1.13221
406 1 -1.1104 0.994491 13.883 4.0124
407 1 -1.1104 1.10439 19.4954 3.81862
410 2 2.2208 5.26779 9.58979 2.68174
411 2 2.2208 5.36101 15.2929 2.59844
412 2 2.2208 5.27368 20.9136 2.6829
413 1 -1.1104 1.09835 11.2172 1.09158
415 1 -1.1104 1.18138 16.7768 1.21324
421 1 -1.1104 1.09989 10.96 3.86053
422 1 -1.1104 1.11154 16.8054 4.12391
425 2 2.2208 2.4548 12.5243 2.54362
426 2 2.2208 2.54753 18.15 2.65448
427 1 -1.1104 4.03884 13.8693 1.29895
429 1 -1.1104 3.8883 19.5402 1.38991
430 1 -1.1104 3.90066 14.0488 4.07862
431 1 -1.1104 4.02211 19.579 4.07783
432 2 2.2208 2.38446 9.64373 5.25189
433 2 2.2208 2.52185 15.32 5.39798
434 2 2.2208 2.5412 20.8036 5.30897
435 1 -1.1104 3.9457 11.1649 1.24336
437 1 -1.1104 3.93185 16.7506 1.22299
439 1 -1.1104 4.00993 11.1813 4.02587
440 1 -1.1104 3.89352 16.7619 3.98275
446 2 2.2208 -0.464051 21.0411 2.53532
424 1 -1.1104 6.7454 16.7087 3.86786
449 2 2.2208 -0.444815 18.1984 5.3161
414 1 -1.1104 0.956203 11.0437 6.67755
452 2 2.2208 -0.396006 12.5209 5.34009
447 2 2.2208 -0.276958 15.3559 2.51923
448 2 2.2208 -0.281462 9.68987 2.46104
443 2 2.2208 2.57218 9.73202 -0.328701
445 2 2.2208 5.40588 12.561 -0.0211532
442 2 2.2208 2.47663 15.27 -0.229049
444 2 2.2208 5.25917 18.0848 -0.265399
441 2 2.2208 2.49866 20.9084 -0.198132
450 2 2.2208 -0.385648 18.2857 -0.15853
451 2 2.2208 -0.246732 12.6076 -0.296358
403 1 -1.1104 6.89284 13.9879 1.40603
408 1 -1.1104 6.76716 13.872 4.2291
417 1 -1.1104 6.75432 11.0759 1.28117
419 1 -1.1104 6.77577 16.6806 1.0586
409 1 -1.1104 6.82979 19.7267 3.95341
405 1 -1.1104 6.685 19.4667 1.16471
423 1 -1.1104 6.74965 11.143 4.24218
453 2 2.2208 10.8942 12.4271 5.2874
454 2 2.2208 10.9621 18.2088 5.29334
455 1 -1.1104 12.4537 14.1282 1.09397
457 1 -1.1104 12.2168 19.6246 1.23659
458 1 -1.1104 12.3526 13.9634 3.99129
459 1 -1.1104 12.301 19.7271 3.99421
460 2 2.2208 10.9281 9.74497 2.50861
461 2 2.2208 10.8544 15.3029 2.46442
462 2 2.2208 10.8496 21.0209 2.60931
463 1 -1.1104 12.2963 11.2081 1.17012
465 1 -1.1104 12.3144 16.8676 1.15352
467 1 -1.1104 12.3115 11.0783 3.89523
468 1 -1.1104 12.1174 16.9005 3.95261
469 2 2.2208 8.03867 12.523 2.75665
470 2 2.2208 8.08185 18.108 2.61596
471 1 -1.1104 9.58155 13.9373 1.22426
473 1 -1.1104 9.44203 19.4563 1.20678
474 1 -1.1104 9.424 13.8775 3.9771
475 1 -1.1104 9.55057 19.4365 3.99157
476 2 2.2208 8.17643 9.63102 5.41735
477 2 2.2208 8.23114 15.3519 5.37543
478 2 2.2208 8.10192 21.082 5.44583
479 1 -1.1104 9.43885 11.2371 1.2068
481 1 -1.1104 9.53939 16.717 1.15261
483 1 -1.1104 9.39614 11.0833 4.04377
484 1 -1.1104 9.41184 16.5617 3.87686
495 2 2.2208 13.6958 20.9936 5.3098
491 2 2.2208 13.6467 9.72578 5.40191
561 1 -1.1104 9.47963 19.6488 6.7414
489 2 2.2208 10.9077 12.572 -0.195218
488 2 2.2208 10.8056 18.1606 -0.188436
486 2 2.2208 8.09569 15.3449 -0.252201
9794 2 2.2208 13.5019 20.9229 -0.320999
485 2 2.2208 8.14655 20.9596 -0.252269
487 2 2.2208 8.12419 9.69124 -0.25492
401 1 -1.1104 1.11636 14.0069 6.89389
428 1 -1.1104 4.01137 13.9423 6.95296
436 1 -1.1104 3.87311 11.1302 6.82321
416 1 -1.1104 1.04311 16.8449 6.77518
496 1 -1.1104 0.976943 19.6158 6.75009
498 1 -1.1104 3.8632 19.5383 6.77221
497 1 -1.1104 6.69779 19.603 6.71804
418 1 -1.1104 6.63987 11.2584 6.99535
537 2 2.2208 -0.348286 20.9424 8.34571
543 2 2.2208 -0.343746 12.6537 10.975
438 1 -1.1104 3.83454 16.7713 6.83626
499 2 2.2208 5.22197 12.4339 11.0038
500 2 2.2208 5.24423 18.0799 10.9173
501 1 -1.1104 1.08549 14.0525 12.4285
502 1 -1.1104 1.1065 19.6548 12.5141
505 1 -1.1104 1.20141 13.7895 9.70818
506 1 -1.1104 1.02432 19.5116 9.60776
509 2 2.2208 5.28994 9.7265 8.27243
510 2 2.2208 5.29829 15.2355 8.22322
511 2 2.2208 5.26176 21.0212 8.22552
512 1 -1.1104 1.10635 11.3102 12.4229
513 1 -1.1104 0.949294 16.6819 12.3283
516 1 -1.1104 0.946018 10.9803 9.52966
517 1 -1.1104 1.11227 16.7533 9.60424
520 2 2.2208 2.49761 12.5169 8.2007
521 2 2.2208 2.40509 18.1883 8.2142
522 1 -1.1104 3.9778 13.806 12.4542
523 1 -1.1104 3.82964 19.5268 12.4639
524 1 -1.1104 3.86029 13.77 9.68915
525 1 -1.1104 3.86098 19.5149 9.68907
526 2 2.2208 2.37413 9.79665 10.9422
527 2 2.2208 2.36152 15.3867 10.8698
528 2 2.2208 2.45855 20.9303 11.0372
529 1 -1.1104 3.77758 11.1457 12.3943
530 1 -1.1104 3.83288 16.8447 12.4355
531 1 -1.1104 3.77802 11.1091 9.65583
532 1 -1.1104 3.77347 16.7233 9.62478
504 1 -1.1104 6.69289 19.4822 12.3845
514 1 -1.1104 6.65232 11.0151 12.3917
420 1 -1.1104 6.82407 16.6732 6.86596
404 1 -1.1104 6.71786 14.0027 6.91915
466 1 -1.1104 12.372 16.8839 6.7151
456 1 -1.1104 12.4596 13.9117 6.82763
464 1 -1.1104 12.3111 11.0996 6.71179
472 1 -1.1104 9.71088 13.6976 6.85588
560 1 -1.1104 12.2206 19.7193 6.7265
480 1 -1.1104 9.40798 11.067 6.94751
482 1 -1.1104 9.55091 16.7388 6.75649
518 1 -1.1104 6.51592 11.1086 9.63555
567 1 -1.1104 9.50407 19.5457 12.2674
554 2 2.2208 8.08048 9.73134 10.973
508 1 -1.1104 6.63857 19.5289 9.6062
519 1 -1.1104 6.79384 16.6762 9.5524
515 1 -1.1104 6.49654 16.6324 12.342
507 1 -1.1104 6.61427 13.8673 9.66277
571 2 2.2208 10.9627 18.1216 10.9003
572 1 -1.1104 12.412 13.8582 12.2971
563 1 -1.1104 12.2975 19.648 9.65777
557 1 -1.1104 12.1995 11.1092 12.3794
549 1 -1.1104 9.3389 10.9294 12.432
550 2 2.2208 8.0282 12.5997 8.26374
565 1 -1.1104 9.50556 19.5635 9.53159
582 2 2.2208 13.7174 18.1751 8.19486
573 1 -1.1104 12.3972 19.555 12.4089
556 1 -1.1104 12.0801 16.6382 12.3412
503 1 -1.1104 6.77233 13.8204 12.4806
553 2 2.2208 8.18882 15.2322 11.1492
547 1 -1.1104 9.45463 11.0861 9.75662
555 1 -1.1104 12.207 11.1814 9.59837
546 1 -1.1104 9.55983 16.8515 9.58858
551 1 -1.1104 12.4019 16.7751 9.61124
552 2 2.2208 8.15839 20.9028 10.9224
580 2 2.2208 13.6412 9.72309 10.9448
569 2 2.2208 8.1264 18.1754 8.16061
559 2 2.2208 10.9916 15.2864 8.22449
558 2 2.2208 10.9556 20.953 8.1433
566 1 -1.1104 9.47265 13.8415 9.62024
568 1 -1.1104 9.58902 13.8143 12.4541
570 2 2.2208 10.8975 12.4632 11.0203
562 2 2.2208 10.8435 9.63637 8.23522
548 1 -1.1104 9.35407 16.7082 12.3758
564 1 -1.1104 12.3547 13.9848 9.59291
586 2 2.2208 5.28346 12.5521 16.6388
587 2 2.2208 5.19315 18.1926 16.489
588 1 -1.1104 1.1058 14.0021 17.9126
589 1 -1.1104 1.07684 19.476 18.0199
592 1 -1.1104 1.0835 13.9307 15.0895
593 1 -1.1104 1.10997 19.642 15.2041
596 2 2.2208 5.29215 9.6738 19.373
597 2 2.2208 5.22588 15.374 19.3095
598 2 2.2208 5.38275 20.854 19.3466
599 1 -1.1104 0.965945 11.101 17.9192
600 1 -1.1104 1.089 16.785 18.0014
603 1 -1.1104 0.972198 11.1139 15.0835
604 1 -1.1104 1.09793 16.6272 15.2153
607 2 2.2208 2.32019 12.4726 19.3695
608 2 2.2208 2.50569 18.1095 19.4602
609 1 -1.1104 3.90339 14.027 17.9311
610 1 -1.1104 3.8832 19.6546 17.9755
611 1 -1.1104 3.88278 14.0949 15.2286
612 1 -1.1104 3.86739 19.5991 15.077
613 2 2.2208 2.46446 9.98047 16.5561
614 2 2.2208 2.45438 15.3123 16.5834
615 2 2.2208 2.55992 21.048 16.6006
616 1 -1.1104 3.88232 11.2061 18.0358
617 1 -1.1104 3.80867 16.8442 18.0447
618 1 -1.1104 3.94268 11.2262 15.1595
619 1 -1.1104 3.87128 16.8106 15.1969
605 1 -1.1104 6.83122 11.1787 15.0902
590 1 -1.1104 6.50146 13.9532 18.0372
606 1 -1.1104 6.77272 16.8794 15.1138
601 1 -1.1104 6.72005 11.0355 17.8195
620 2 2.2208 -0.232576 18.1705 16.5388
622 2 2.2208 -0.321087 15.4644 19.4244
621 2 2.2208 -0.257365 20.9648 19.4051
623 2 2.2208 -0.367864 12.5056 16.4873
545 2 2.2208 -0.147862 21.1312 13.8824
539 2 2.2208 -0.374064 9.73746 13.7324
533 2 2.2208 2.45501 18.2016 13.8848
541 2 2.2208 -0.361957 15.3961 13.8801
535 2 2.2208 5.2724 9.84783 13.6435
536 2 2.2208 2.49307 12.5225 13.7969
534 2 2.2208 5.12396 15.4365 13.7688
544 2 2.2208 5.19654 20.9664 13.7039
602 1 -1.1104 6.73498 16.6633 17.9238
591 1 -1.1104 6.66613 19.3491 18.0125
594 1 -1.1104 6.56927 13.9858 15.191
595 1 -1.1104 6.5934 19.5781 15.1667
625 2 2.2208 10.9352 12.5234 16.4873
626 2 2.2208 10.9149 18.1507 16.4736
627 1 -1.1104 12.2147 13.8983 17.9001
628 1 -1.1104 12.3479 19.5558 17.9686
629 1 -1.1104 12.148 14.038 15.1414
630 1 -1.1104 12.3851 19.7184 15.1895
632 2 2.2208 10.79 9.69997 19.4137
633 2 2.2208 10.9263 15.3755 19.1632
634 2 2.2208 10.9079 20.9094 19.2559
635 1 -1.1104 12.1992 11.0051 17.9475
636 1 -1.1104 12.2556 16.7072 17.8416
637 1 -1.1104 12.3156 11.2952 15.2339
638 1 -1.1104 12.4403 16.7416 15.1538
639 2 2.2208 8.0697 12.4042 19.3607
640 2 2.2208 8.10968 17.9793 19.3298
641 1 -1.1104 9.36269 13.9002 18.007
642 1 -1.1104 9.58225 19.5754 17.7732
643 1 -1.1104 9.37873 13.9514 15.0806
644 1 -1.1104 9.43453 19.6411 15.0928
646 2 2.2208 8.03428 9.5876 16.4816
647 2 2.2208 7.93981 15.2612 16.5557
648 2 2.2208 8.09673 20.8516 16.521
649 1 -1.1104 9.498 11.1065 18.1279
650 1 -1.1104 9.56479 16.7414 17.9103
651 1 -1.1104 9.51106 10.9802 15.1635
652 1 -1.1104 9.54303 16.8129 15.1205
656 2 2.2208 13.7034 15.3074 16.5935
653 2 2.2208 13.628 12.3904 19.4554
727 1 -1.1104 12.3672 16.6495 20.7107
655 2 2.2208 13.6662 9.82037 16.6292
585 2 2.2208 10.8553 20.9562 13.7901
578 2 2.2208 10.9172 9.7351 13.7896
576 2 2.2208 7.97807 18.1449 13.6978
577 2 2.2208 10.765 15.3034 13.8081
579 2 2.2208 8.11745 12.4633 13.7565
669 1 -1.1104 3.92071 16.7006 20.7455
658 1 -1.1104 0.949012 13.9649 20.7512
666 1 -1.1104 3.76308 13.9826 20.6986
664 1 -1.1104 6.69585 11.0027 20.6292
668 1 -1.1104 3.98754 11.0123 20.7727
659 1 -1.1104 1.11007 19.5187 20.8676
662 1 -1.1104 1.08486 10.9425 20.7295
667 1 -1.1104 3.85453 19.4871 20.6317
663 1 -1.1104 1.05492 16.6839 20.7708
660 1 -1.1104 6.69366 13.875 20.7254
661 1 -1.1104 6.67055 19.4485 20.7696
708 2 2.2208 -0.409177 12.4129 22.23
705 2 2.2208 -0.319343 15.3706 25.0888
670 2 2.2208 5.24983 12.5618 22.0477
671 2 2.2208 5.30351 18.0387 22.0374
672 1 -1.1104 1.17322 13.8544 23.6695
673 1 -1.1104 1.1607 19.4756 23.5783
676 1 -1.1104 1.14085 13.9894 26.3621
677 1 -1.1104 1.14199 19.6254 26.4011
680 2 2.2208 5.3309 9.79724 24.976
681 2 2.2208 5.24024 15.2626 24.9268
682 2 2.2208 5.27279 20.8734 25.0112
683 1 -1.1104 0.988249 11.0791 23.5357
684 1 -1.1104 1.03239 16.7824 23.5292
687 1 -1.1104 1.06742 11.1562 26.4369
688 1 -1.1104 0.986311 16.9667 26.5144
691 2 2.2208 2.51303 12.5662 24.982
692 2 2.2208 2.44514 18.1371 24.9155
693 1 -1.1104 3.96674 13.844 23.4684
694 1 -1.1104 3.98826 19.351 23.4408
695 1 -1.1104 3.83962 13.9013 26.4212
696 1 -1.1104 3.77873 19.524 26.5291
697 2 2.2208 2.53244 9.70164 22.1132
698 2 2.2208 2.45705 15.3511 22.1647
699 2 2.2208 2.55054 20.8726 22.1444
700 1 -1.1104 3.83831 11.1786 23.4633
701 1 -1.1104 3.85398 16.6897 23.704
702 1 -1.1104 3.76977 11.1001 26.3303
703 1 -1.1104 3.7964 16.5879 26.3387
704 2 2.2208 -0.303255 20.9142 25.0013
706 2 2.2208 -0.243595 9.74319 25.0187
665 1 -1.1104 6.76988 16.6569 20.6921
731 1 -1.1104 9.43974 11.0785 20.9185
726 1 -1.1104 12.2694 11.0716 20.8258
645 1 -1.1104 9.40506 19.6338 20.6229
722 1 -1.1104 12.3402 13.8469 20.7485
730 1 -1.1104 9.4789 13.8343 20.767
631 1 -1.1104 12.2645 19.503 20.7446
732 1 -1.1104 9.51629 16.7913 20.6943
685 1 -1.1104 6.62333 11.1298 23.5068
689 1 -1.1104 6.69037 11.1591 26.5017
690 1 -1.1104 6.55837 16.6978 26.3433
678 1 -1.1104 6.72127 13.8835 26.5569
679 1 -1.1104 6.57241 19.5718 26.4166
675 1 -1.1104 6.68672 19.4952 23.6702
709 1 -1.1104 9.45623 16.719 26.3474
729 1 -1.1104 12.1486 11.0501 23.5994
720 1 -1.1104 12.0343 19.5422 26.3198
735 1 -1.1104 9.37139 13.7308 23.5376
738 2 2.2208 10.8301 12.4197 22.1982
737 2 2.2208 7.97867 12.5517 25.0335
674 1 -1.1104 6.76146 13.9609 23.522
736 2 2.2208 8.03341 18.0383 24.961
717 2 2.2208 10.8998 9.6963 24.9979
714 2 2.2208 8.21462 15.1938 22.1426
743 2 2.2208 13.6829 9.74576 22.1389
718 2 2.2208 10.8783 20.8793 24.897
710 1 -1.1104 9.55721 11.1192 26.5479
740 1 -1.1104 12.3094 14.0506 23.514
712 1 -1.1104 9.34641 10.9961 23.7297
728 1 -1.1104 12.4547 19.5123 23.4701
733 1 -1.1104 9.38825 13.9483 26.4984
713 2 2.2208 8.20919 20.8803 22.1155
686 1 -1.1104 6.50909 16.6193 23.5816
719 1 -1.1104 12.2617 16.7213 26.3564
711 1 -1.1104 9.4004 16.6648 23.6698
723 1 -1.1104 12.1531 13.9753 26.3863
739 2 2.2208 10.8601 18.1222 22.1962
724 2 2.2208 10.9253 15.3659 25.01
721 1 -1.1104 12.3579 11.3174 26.3753
716 1 -1.1104 9.53341 19.577 26.3501
725 1 -1.1104 12.2664 16.6791 23.6157
715 2 2.2208 8.11538 9.70076 22.1643
734 1 -1.1104 9.51465 19.4121 23.5591
746 2 2.2208 5.28166 23.729 5.50805
748 2 2.2208 5.37673 29.4119 5.33617
749 1 -1.1104 1.01991 25.0228 1.12087
750 1 -1.1104 1.16099 30.4829 1.13069
753 1 -1.1104 1.1075 25.1492 3.79024
754 1 -1.1104 1.05905 30.9184 4.01869
757 2 2.2208 5.31581 26.4633 2.59785
758 2 2.2208 5.23788 32.1167 2.49849
759 1 -1.1104 0.976635 22.345 1.16994
760 1 -1.1104 1.07908 27.7501 1.13401
761 1 -1.1104 1.16479 33.3871 1.1699
765 1 -1.1104 1.01969 22.2777 3.94558
766 1 -1.1104 1.03139 28.0762 3.92772
767 1 -1.1104 1.01146 33.5757 4.15233
771 2 2.2208 2.4622 23.6325 2.60893
772 2 2.2208 2.55328 29.2363 2.55953
773 1 -1.1104 3.81498 25.1493 1.14536
774 1 -1.1104 3.944 30.7644 1.11525
775 1 -1.1104 3.84439 25.113 4.0002
776 1 -1.1104 4.03381 30.5614 3.93378
778 2 2.2208 2.46083 26.5494 5.33239
779 2 2.2208 2.44386 32.1998 5.40778
780 1 -1.1104 3.64976 22.3369 1.2159
781 1 -1.1104 3.95362 27.8781 1.07806
782 1 -1.1104 3.92728 33.6299 1.07682
783 1 -1.1104 3.88101 22.3606 4.02985
784 1 -1.1104 3.85651 27.7758 3.87198
785 1 -1.1104 3.88146 33.345 3.87924
755 1 -1.1104 6.60634 25.1826 4.03122
756 1 -1.1104 6.73676 30.8177 3.76979
763 1 -1.1104 6.72042 27.9719 1.18252
768 1 -1.1104 6.65178 22.5408 4.03975
792 2 2.2208 -0.415685 23.7476 -0.234217
747 2 2.2208 5.30721 29.3282 -0.153654
787 2 2.2208 -0.309032 23.7266 5.3253
786 2 2.2208 -0.223021 26.5334 2.60761
1080 2 2.2208 2.5237 32.1501 -0.210682
777 2 2.2208 2.48174 26.6143 -0.313817
791 2 2.2208 5.20243 23.7353 -0.247142
788 2 2.2208 -0.314138 29.2968 -0.0666149
752 1 -1.1104 6.80158 30.7543 1.09156
770 1 -1.1104 6.71241 33.4659 4.00247
769 1 -1.1104 6.75123 27.9951 3.93046
762 1 -1.1104 6.64273 22.3071 1.21723
764 1 -1.1104 6.73912 33.5594 1.07855
751 1 -1.1104 6.58075 25.08 1.28768
793 2 2.2208 10.9627 23.874 5.31575
794 2 2.2208 10.9498 29.4564 5.25415
795 1 -1.1104 12.2265 25.1878 1.02154
796 1 -1.1104 12.4169 30.738 0.89966
797 1 -1.1104 12.3846 25.2196 3.86841
798 1 -1.1104 12.1951 30.7113 3.9155
799 2 2.2208 10.9612 26.56 2.41353
800 2 2.2208 10.8579 32.1411 2.47191
801 1 -1.1104 12.2528 22.4658 1.20668
802 1 -1.1104 12.2926 27.9775 0.905551
803 1 -1.1104 12.3509 33.6052 1.08534
804 1 -1.1104 12.2464 22.476 3.99508
805 1 -1.1104 12.3884 27.9459 3.8297
806 1 -1.1104 12.3577 33.6436 3.73949
807 2 2.2208 7.95276 23.7432 2.53165
808 2 2.2208 8.22677 29.3513 2.51247
809 1 -1.1104 9.33652 25.2438 1.14424
810 1 -1.1104 9.50804 30.7733 1.0773
811 1 -1.1104 9.48598 25.2256 4.04929
812 1 -1.1104 9.63817 30.8003 3.88316
814 2 2.2208 8.02261 26.4781 5.18153
815 2 2.2208 8.20566 32.2627 5.36712
816 1 -1.1104 9.50923 22.4284 1.10801
817 1 -1.1104 9.52696 28.0152 1.11891
818 1 -1.1104 9.50091 33.6944 1.18028
819 1 -1.1104 9.39024 22.4785 3.98571
820 1 -1.1104 9.5972 28.0172 3.68567
821 1 -1.1104 9.54779 33.6721 3.94714
813 2 2.2208 8.11473 26.5071 -0.222058
824 2 2.2208 13.701 32.0797 5.22721
896 1 -1.1104 12.3584 30.7195 6.62074
825 2 2.2208 13.6086 23.7572 2.43842
1113 2 2.2208 8.07913 32.1341 -0.339828
1114 2 2.2208 13.813 32.1983 -0.332832
822 2 2.2208 10.7941 23.7892 -0.348897
829 1 -1.1104 1.06644 30.7357 6.73955
833 1 -1.1104 1.04354 27.9661 6.75038
838 1 -1.1104 3.9967 25.1939 6.83227
839 1 -1.1104 3.80439 30.8183 6.71005
834 1 -1.1104 1.01823 33.5351 6.849