ITEM: TIMESTEP
20000
ITEM: NUMBER OF ATOMS
17730
ITEM: BOX BOUNDS pp pp pp
-4.4511177830362481e-01 2.7785111778303488e+01
-5.3629394296734789e+00 3.3344293942966732e+02
-4.5349222179093868e-01 2.7793492221790657e+01
ITEM: ATOMS id type q x y z
1 2 2.2208 5.32899 0.313301 4.92128
2 1 -1.1104 1.10439 -3.90583 0.718594
6 1 -1.1104 1.11186 -3.96253 3.55383
10 1 -1.1104 1.06673 -1.11348 1.06302
12 2 2.2208 5.3384 -2.59534 2.08887
14 1 -1.1104 1.06873 -1.22516 3.73916
16 1 -1.1104 3.87183 -3.86069 0.838068
18 2 2.2208 2.32256 0.228745 2.32373
19 1 -1.1104 3.93418 -3.87769 3.71016
21 2 2.2208 2.52862 -2.62181 5.02519
23 1 -1.1104 3.97282 -1.03594 0.879498
24 1 -1.1104 3.73924 -1.20017 3.63423
170 1 -1.1104 4.03155 -1.0577 6.50764
8116 2 2.2208 11.0533 -5.28023 5.03994
299 2 2.2208 -0.364889 17.3301 10.7252
8118 2 2.2208 5.31318 -5.21959 10.5957
8775 2 2.2208 -0.313556 0.231668 5.23312
168 1 -1.1104 3.92623 -4.03515 6.57976
8774 2 2.2208 -0.289205 -2.59933 2.17716
80 1 -1.1104 12.4242 15.7904 12.0318
52 1 -1.1104 12.4813 18.5518 9.46834
4 1 -1.1104 6.69432 -3.65928 0.813963
15 1 -1.1104 6.54816 -1.13185 3.37332
11 1 -1.1104 6.76366 -1.15064 0.74362
8 1 -1.1104 6.77679 -4.08032 3.56372
31 2 2.2208 10.9919 0.168132 4.8383
32 1 -1.1104 12.5977 -3.99629 0.660492
34 1 -1.1104 12.3877 -4.10601 3.4971
36 1 -1.1104 12.6862 -1.30677 0.657471
37 2 2.2208 11.1253 -2.69706 2.20829
39 1 -1.1104 12.4264 -1.22473 3.60255
40 1 -1.1104 9.58158 -3.91803 0.916687
42 2 2.2208 8.0983 0.16273 2.02304
43 1 -1.1104 9.71658 -4.07848 3.62083
45 2 2.2208 8.2134 -2.68615 4.91123
47 1 -1.1104 9.61799 -1.22004 0.660027
48 1 -1.1104 9.60999 -1.2008 3.46285
167 1 -1.1104 6.80577 -1.13694 6.12059
367 2 2.2208 5.36739 -2.53628 13.3719
206 1 -1.1104 9.63995 -1.04679 6.21921
204 1 -1.1104 9.77318 -3.84471 6.399
201 1 -1.1104 12.4226 -3.81503 6.27366
164 1 -1.1104 6.73275 -3.93004 6.5903
8874 2 2.2208 -0.229084 2.79978 13.6362
8115 2 2.2208 2.51026 -5.2973 2.14836
3 1 -1.1104 1.16742 1.82046 1.01419
7 1 -1.1104 1.21306 1.77482 3.70573
13 2 2.2208 5.33745 3.15815 2.33924
17 1 -1.1104 3.95092 1.66911 0.698079
20 1 -1.1104 3.90904 1.7024 3.55066
22 2 2.2208 2.52182 3.17165 4.94809
53 2 2.2208 5.23256 5.86782 5.30241
55 1 -1.1104 1.1378 7.28123 1.05406
57 1 -1.1104 1.15786 7.1895 4.1053
59 1 -1.1104 1.06026 4.58775 1.07289
66 1 -1.1104 1.23063 4.46261 3.77519
70 1 -1.1104 4.07884 7.14717 0.689479
71 2 2.2208 2.64516 5.78982 2.43171
75 1 -1.1104 3.67504 4.26491 0.988555
78 1 -1.1104 4.29983 4.42755 3.80202
73 1 -1.1104 3.91577 7.25574 3.69581
229 1 -1.1104 0.990736 4.68272 6.57653
259 1 -1.1104 6.55237 4.04117 6.1795
62 1 -1.1104 6.90458 4.51251 1.07508
49 2 2.2208 13.6259 8.54066 10.6812
227 1 -1.1104 1.42916 7.44422 6.64831
293 1 -1.1104 6.74733 15.9056 12.3706
298 2 2.2208 -0.411437 20.2346 7.76894
5 1 -1.1104 6.76473 1.64153 0.954189
9 1 -1.1104 6.73187 1.70316 3.60485
58 1 -1.1104 6.59432 6.62363 3.68571
228 1 -1.1104 6.63907 7.15301 6.46528
56 1 -1.1104 7.01317 7.19765 0.726359
33 1 -1.1104 12.1985 1.43507 3.32966
38 2 2.2208 11.039 2.88075 2.13432
41 1 -1.1104 9.49545 1.53121 0.767106
44 1 -1.1104 9.44064 1.55276 3.63192
46 2 2.2208 8.15005 2.89426 5.09057
68 1 -1.1104 8.69309 4.31902 3.61985
84 1 -1.1104 12.4813 7.27537 0.979612
86 1 -1.1104 12.2712 1.65615 0.448757
91 1 -1.1104 9.72737 7.30991 0.723437
92 2 2.2208 8.36153 5.97701 2.14565
96 1 -1.1104 9.75897 4.57851 1.11675
257 1 -1.1104 12.4527 4.26866 1.06452
165 1 -1.1104 6.82159 1.41687 6.36314
94 1 -1.1104 9.33836 7.39332 3.6253
256 1 -1.1104 12.7209 7.16661 3.85949
27 2 2.2208 -0.328217 11.5602 10.8853
54 2 2.2208 5.19309 11.5139 5.12775
60 1 -1.1104 0.973525 10.1095 1.04388
65 2 2.2208 5.56073 8.56662 2.29587
67 1 -1.1104 1.07487 9.94612 3.60587
72 2 2.2208 2.45756 11.6152 2.08857
74 2 2.2208 2.47142 8.81797 5.068
76 1 -1.1104 3.93377 10.1669 0.919725
79 1 -1.1104 3.81313 10.1872 3.76483
103 1 -1.1104 1.01805 13.1301 0.846916
109 1 -1.1104 1.23636 12.7613 3.73278
119 1 -1.1104 3.81357 12.8873 0.794086
124 1 -1.1104 4.03465 12.9378 3.44875
77 1 -1.1104 3.96268 10.2357 6.42895
120 1 -1.1104 3.99714 13.1586 6.46618
106 1 -1.1104 6.8519 12.8723 0.702914
63 1 -1.1104 6.72773 10.0252 0.728541
556 2 2.2208 2.52017 3.1745 -0.432818
104 1 -1.1104 1.31448 12.8351 6.52898
61 1 -1.1104 1.16338 10.2111 6.39576
313 2 2.2208 8.08168 11.3774 13.687
69 1 -1.1104 6.63438 9.93475 3.74049
111 1 -1.1104 6.8247 12.7971 3.74038
83 2 2.2208 11.0069 11.4299 5.00851
87 1 -1.1104 12.4273 10.0199 0.803317
89 2 2.2208 10.8452 8.58772 2.18148
90 1 -1.1104 12.4003 10.077 3.48957
93 2 2.2208 8.17747 11.5412 2.21854
95 2 2.2208 7.97548 8.77238 5.11933
97 1 -1.1104 9.62526 10.1194 0.750633
99 1 -1.1104 9.51879 10.0749 3.47538
138 1 -1.1104 12.3974 12.729 0.873466
142 1 -1.1104 12.5424 12.9777 3.87234
149 1 -1.1104 9.48053 12.9373 0.891327
154 1 -1.1104 9.58945 12.9161 3.90528
88 1 -1.1104 12.4811 10.1715 6.31803
98 1 -1.1104 9.28798 9.90818 6.24097
107 1 -1.1104 6.7319 12.7818 6.68836
150 1 -1.1104 9.52213 12.8474 6.53178
8712 2 2.2208 -0.301715 8.73402 7.93274
171 2 2.2208 8.04558 17.2235 7.96717
126 2 2.2208 2.38489 14.385 5.13919
115 2 2.2208 5.36522 14.3935 2.10921
102 2 2.2208 5.15332 17.2376 5.27569
105 1 -1.1104 1.2214 18.4806 0.987525
110 1 -1.1104 1.15192 18.4995 3.7234
112 1 -1.1104 1.22959 15.7342 0.971098
116 2 2.2208 5.41405 20.0079 2.21348
117 1 -1.1104 1.07027 15.8079 3.78559
121 1 -1.1104 4.01732 18.514 0.930344
123 2 2.2208 2.72353 17.2021 2.29465
125 1 -1.1104 4.22927 18.6589 3.74182
127 2 2.2208 2.5115 20.0915 5.16267
128 1 -1.1104 4.01965 15.8808 0.970519
130 1 -1.1104 3.8608 15.8026 3.79475
135 1 -1.1104 6.62695 18.4867 3.63751
289 1 -1.1104 0.929919 18.7941 6.40876
113 1 -1.1104 1.16046 15.8971 6.52949
8776 2 2.2208 -0.323802 3.1417 2.32793
114 1 -1.1104 6.43707 15.9641 6.75969
136 1 -1.1104 6.61497 15.6745 0.662653
118 1 -1.1104 6.74417 15.6206 3.56181
134 1 -1.1104 6.93899 18.4917 0.889942
146 2 2.2208 10.9187 14.2275 2.4091
137 2 2.2208 10.9004 17.1155 5.2366
140 1 -1.1104 12.4076 18.4404 1.00805
143 1 -1.1104 12.2658 18.3901 3.65882
144 1 -1.1104 12.2521 15.5743 0.900583
147 2 2.2208 10.8683 20.0287 2.27936
148 1 -1.1104 12.4228 15.5718 3.68424
151 1 -1.1104 9.63194 18.856 0.835626
153 2 2.2208 8.10745 17.1658 2.34593
155 1 -1.1104 9.51245 18.7313 3.70295
156 2 2.2208 8.162 14.2402 5.18133
157 2 2.2208 8.04267 20.0826 5.1046
158 1 -1.1104 9.49061 15.7037 1.06156
160 1 -1.1104 9.57194 15.7843 3.73409
141 1 -1.1104 12.3104 18.7232 6.51142
159 1 -1.1104 9.48698 15.8483 6.44478
108 1 -1.1104 6.88534 18.6002 6.56676
436 2 2.2208 2.42865 6.15384 13.6222
200 2 2.2208 8.28866 14.3356 10.7135
162 1 -1.1104 1.05577 -4.03693 6.50247
166 1 -1.1104 1.16335 -1.10894 6.3929
8121 2 2.2208 8.21625 -5.25739 7.94528
8875 2 2.2208 -0.279198 -2.53629 13.4565
8833 2 2.2208 -0.197166 17.0933 -0.467259
320 2 2.2208 -0.30913 8.64288 13.4459
173 2 2.2208 5.45933 0.419565 10.5743
174 1 -1.1104 1.23879 -4.09187 12.126
178 1 -1.1104 1.28265 -3.97237 9.29827
182 1 -1.1104 1.06563 -1.25856 11.9522
184 2 2.2208 5.32346 -2.44455 7.91128
186 1 -1.1104 1.21048 -1.29988 9.00464
188 1 -1.1104 3.90614 -3.9204 12.2272
190 2 2.2208 2.5752 0.468686 7.85309
191 1 -1.1104 4.02532 -3.7472 9.25902
193 2 2.2208 2.45691 -2.6528 10.6042
195 1 -1.1104 3.90267 -1.21232 12.0284
196 1 -1.1104 3.98823 -0.997093 9.46589
8510 2 2.2208 -0.198833 -2.69331 7.90991
183 1 -1.1104 6.88302 -1.06221 11.8986
8485 2 2.2208 -0.267749 0.213935 10.7403
82 2 2.2208 -0.145945 11.4571 5.11775
203 1 -1.1104 12.5354 -0.834498 6.43256
187 1 -1.1104 6.66123 -1.22783 9.40444
176 1 -1.1104 6.79796 -3.72068 12.0281
180 1 -1.1104 6.92704 -3.89456 9.26426
207 2 2.2208 11.3801 0.278985 10.5385
208 1 -1.1104 12.7574 -4.19179 11.9137
210 1 -1.1104 12.4294 -3.49955 9.45381
212 1 -1.1104 12.6319 -1.18443 12.0813
213 2 2.2208 11.0048 -2.35939 8.00271
214 1 -1.1104 12.5947 -1.11255 9.24055
215 1 -1.1104 9.51302 -3.99185 12.1296
217 2 2.2208 8.21564 0.0124065 7.69904
218 1 -1.1104 9.8355 -3.77308 9.3233
220 2 2.2208 8.33666 -2.36943 10.6538
222 1 -1.1104 10.0383 -1.05407 12.1185
223 1 -1.1104 9.47748 -0.852602 9.23158
400 2 2.2208 8.42991 0.3111 13.2319
145 1 -1.1104 12.4243 15.7529 6.69201
283 1 -1.1104 6.84587 18.4537 12.234
300 2 2.2208 -0.230954 14.4632 7.95624
163 1 -1.1104 1.39424 1.77821 6.41445
169 1 -1.1104 3.99843 1.88647 6.2763
231 1 -1.1104 3.9366 4.57271 6.71918
369 2 2.2208 5.41461 2.9059 13.2887
230 1 -1.1104 4.10881 7.47368 6.42735
175 1 -1.1104 0.980953 1.71618 12.1768
179 1 -1.1104 1.11565 1.46803 9.40526
185 2 2.2208 5.48523 2.94128 7.8962
189 1 -1.1104 3.83277 1.61597 12.0364
192 1 -1.1104 4.01674 1.88425 9.5595
194 2 2.2208 2.42695 3.02017 10.7955
232 2 2.2208 5.20142 5.94543 10.9651
234 1 -1.1104 1.06177 7.41875 12.225
236 1 -1.1104 1.1177 7.14951 9.34492
238 1 -1.1104 1.39989 4.69273 12.0426
243 1 -1.1104 1.262 4.12419 9.13986
246 1 -1.1104 3.87403 7.2266 12.2706
247 2 2.2208 2.32723 5.90466 7.90756
249 1 -1.1104 3.62954 7.027 9.40537
251 1 -1.1104 3.96129 4.37572 12.0284
253 1 -1.1104 5.86412 4.22065 9.6309
17324 2 2.2208 -0.149234 -5.3294 4.99692
659 2 2.2208 5.43978 8.70818 13.7077
368 2 2.2208 2.57926 0.127104 13.4859
202 1 -1.1104 9.57981 1.58236 6.73177
131 2 2.2208 -0.35279 17.2809 5.14047
101 2 2.2208 10.9002 20.1372 7.84112
211 1 -1.1104 12.7551 1.36426 9.2178
237 1 -1.1104 6.6909 7.29435 9.70253
240 1 -1.1104 6.72574 4.3811 12.1713
235 1 -1.1104 6.67237 7.33443 12.4167
177 1 -1.1104 6.84873 1.74529 11.9671
181 1 -1.1104 7.12058 1.36641 9.17116
209 1 -1.1104 12.7011 1.61799 11.9837
216 1 -1.1104 9.82571 1.5595 11.8219
221 2 2.2208 8.18637 3.20963 10.4944
258 1 -1.1104 9.19073 4.51269 9.11974
261 1 -1.1104 9.3902 4.16327 12.1169
264 2 2.2208 11.1299 5.64148 10.5083
266 1 -1.1104 11.9599 7.40512 11.8856
267 1 -1.1104 12.4328 6.92318 9.25663
268 1 -1.1104 12.6148 4.43863 11.9667
270 1 -1.1104 12.6122 4.19414 9.29126
272 1 -1.1104 9.26884 6.8842 11.4995
64 1 -1.1104 6.7858 10.0092 6.66292
275 1 -1.1104 6.68939 18.5361 9.37252
233 2 2.2208 5.40555 11.4961 10.6452
239 1 -1.1104 0.826094 10.1553 12.1074
242 2 2.2208 5.4567 8.59811 7.94637
244 1 -1.1104 1.20206 9.99399 9.19901
248 2 2.2208 2.6345 11.5529 7.90991
250 2 2.2208 2.48745 8.66963 10.6706
252 1 -1.1104 3.72107 9.98432 12.1085
254 1 -1.1104 3.85459 10.096 9.20741
274 1 -1.1104 4.11524 12.6415 12.0633
281 1 -1.1104 1.06921 12.8789 9.42073
286 1 -1.1104 1.1692 12.8353 12.1717
292 1 -1.1104 4.05723 12.9095 9.1963
245 1 -1.1104 6.66321 10.1422 9.4026
297 2 2.2208 2.58318 14.2092 10.7645
161 1 -1.1104 9.63255 18.6064 12.1341
315 2 2.2208 5.38523 14.1374 13.6137
152 1 -1.1104 9.61633 18.5767 6.33819
199 1 -1.1104 9.4908 18.5657 9.06271
139 1 -1.1104 12.2969 13.0552 6.47963
241 1 -1.1104 6.89647 9.96312 12.3198
284 1 -1.1104 6.76376 12.9287 12.0431
277 1 -1.1104 6.9274 12.8492 9.4173
255 1 -1.1104 9.4822 10.2785 9.66619
260 1 -1.1104 9.45182 9.97048 12.3327
262 2 2.2208 8.14601 8.61825 10.8047
263 2 2.2208 8.33663 11.359 7.92831
265 2 2.2208 11.0738 11.4721 10.7066
269 1 -1.1104 12.3891 10.128 12.2112
271 1 -1.1104 12.5461 10.1024 9.36932
198 1 -1.1104 9.56715 12.9896 9.31912
30 1 -1.1104 12.3516 12.9725 12.145
51 1 -1.1104 12.3139 12.8701 9.21002
133 1 -1.1104 9.49638 12.9768 12.2185
8777 2 2.2208 -0.366241 5.89134 5.08494
25 2 2.2208 13.5896 14.1533 10.5114
132 1 -1.1104 12.3286 15.6324 9.24565
301 1 -1.1104 9.6598 15.769 9.27747
129 1 -1.1104 3.62039 15.8851 6.54745
122 1 -1.1104 4.05978 18.5074 6.73428
35 1 -1.1104 12.303 18.6284 12.3664
282 2 2.2208 5.40739 14.1526 8.06278
273 1 -1.1104 4.04695 18.5867 12.2271
278 1 -1.1104 1.08681 18.4747 9.21009
279 1 -1.1104 0.985459 15.5528 9.34683
280 2 2.2208 5.3842 19.9796 8.06388
285 1 -1.1104 1.05566 18.4669 12.2965
287 2 2.2208 5.54517 17.2737 10.8486
288 1 -1.1104 3.82779 18.3916 9.48918
290 2 2.2208 2.57916 17.1702 8.01291
291 1 -1.1104 3.95898 15.6386 9.40663
294 1 -1.1104 1.22241 15.7645 12.0779
295 1 -1.1104 3.90941 15.5869 12.155
296 2 2.2208 2.42445 19.9348 10.9369
276 1 -1.1104 6.93279 15.7834 9.65584
317 2 2.2208 11.1114 14.4049 13.6218
500 2 2.2208 5.38965 19.8845 13.5122
226 1 -1.1104 9.67145 15.7956 12.3451
205 2 2.2208 8.12125 20.002 10.5875
81 2 2.2208 10.8701 14.2591 7.80701
29 2 2.2208 10.9815 17.0382 10.8617
401 2 2.2208 11.3359 -2.31829 13.5264
8114 2 2.2208 5.16738 -5.3011 5.03012
311 2 2.2208 2.54935 11.281 13.5797
326 2 2.2208 8.24803 5.82903 13.4189
8117 2 2.2208 8.17007 -5.27473 2.29036
8678 2 2.2208 -0.155271 14.5296 2.30994
8460 2 2.2208 8.18083 -5.36907 13.4365
8644 2 2.2208 -0.288241 19.9587 2.40089
309 2 2.2208 11.1435 3.07358 13.3523
307 2 2.2208 -0.0503996 14.241 13.3968
321 2 2.2208 2.40217 8.67087 -0.411853
438 2 2.2208 2.46804 19.8813 -0.401994
8713 2 2.2208 -0.162051 5.91854 10.7494
303 2 2.2208 7.98634 14.2857 -0.443305
314 2 2.2208 2.71631 17.0184 13.3477
8643 2 2.2208 13.6601 17.0452 2.41706
302 2 2.2208 13.6421 8.87878 5.08257
8835 2 2.2208 -0.373038 0.346758 -0.348985
555 2 2.2208 2.57124 -2.46873 -0.443187
327 2 2.2208 5.48216 0.38125 16.2737
328 1 -1.1104 1.44378 -3.97494 17.7942
332 1 -1.1104 1.13504 -4.10912 15.0967
340 1 -1.1104 1.21631 -1.19092 17.8405
342 2 2.2208 5.43326 -2.42715 18.891
344 1 -1.1104 1.09752 -1.39652 14.9147
348 1 -1.1104 4.19473 -3.81647 17.6157
350 2 2.2208 2.67781 0.177348 19.0254
351 1 -1.1104 4.04555 -4.13217 14.7854
355 2 2.2208 2.54884 -2.54259 16.3863
357 1 -1.1104 4.10333 -0.970508 17.6233
358 1 -1.1104 3.84031 -1.4147 14.7248
352 1 -1.1104 3.90013 -3.84673 20.5698
8878 2 2.2208 -0.127007 -2.62958 19.2854
8906 2 2.2208 -0.208383 0.156133 16.3764
333 1 -1.1104 1.21684 -4.03285 20.6638
324 2 2.2208 10.8917 11.7148 27.6624
345 1 -1.1104 1.39179 -1.26143 20.5989
359 1 -1.1104 4.17968 -1.21749 20.61
9005 2 2.2208 -0.437408 20.1298 19.2855
585 2 2.2208 8.07985 -2.56868 27.4651
330 1 -1.1104 6.87291 -3.86492 17.6272
341 1 -1.1104 6.89038 -1.19613 17.6488
346 1 -1.1104 6.78314 -0.993327 14.7295
336 1 -1.1104 6.86184 -3.82524 14.7769
370 2 2.2208 11.0873 0.24291 16.1806
371 1 -1.1104 12.5093 -4.01965 17.7319
373 1 -1.1104 12.5089 -3.64452 14.7374
377 1 -1.1104 12.4221 -1.14886 17.8021
378 2 2.2208 10.9677 -2.44579 19.1076
380 1 -1.1104 12.6364 -1.19123 15.0631
382 1 -1.1104 9.59647 -3.82583 17.7033
384 2 2.2208 8.32786 0.230531 19.0502
385 1 -1.1104 10.0024 -3.68493 14.9969
389 2 2.2208 8.15671 -2.42876 16.1671
391 1 -1.1104 9.80772 -0.868022 17.6829
392 1 -1.1104 9.58403 -1.22749 14.8851
381 1 -1.1104 12.5035 -1.16551 20.5266
374 1 -1.1104 12.3996 -4.09559 20.4158
347 1 -1.1104 6.89609 -1.13671 20.3157
9010 2 2.2208 -0.376792 11.6546 27.7936
337 1 -1.1104 6.86702 -3.96395 20.5396
393 1 -1.1104 9.67412 -1.26554 20.6048
386 1 -1.1104 9.67959 -4.06427 20.5935
329 1 -1.1104 1.22062 1.53261 17.5631
334 1 -1.1104 1.11691 1.38844 14.9449
343 2 2.2208 5.51073 3.09395 18.9257
349 1 -1.1104 3.90373 1.6606 17.859
353 1 -1.1104 3.96804 1.55992 15.0204
356 2 2.2208 2.79858 3.12747 16.5158
403 2 2.2208 5.50845 6.09818 16.1709
405 1 -1.1104 1.1491 7.3387 17.8827
407 1 -1.1104 0.980607 7.25575 15.0259
411 1 -1.1104 1.21757 4.40119 17.8159
416 1 -1.1104 1.27883 4.27977 15.1694
424 1 -1.1104 3.9302 7.191 17.5871
425 2 2.2208 2.60662 5.91262 19.1762
427 1 -1.1104 4.25597 7.16685 14.7815
430 1 -1.1104 4.21518 4.47996 17.4473
432 1 -1.1104 4.04395 4.28662 14.7098
354 1 -1.1104 4.04369 1.67796 20.7318
433 1 -1.1104 4.11557 4.37566 20.1754
413 1 -1.1104 6.89948 4.61983 17.7285
8464 2 2.2208 11.1056 -5.2951 27.6025
463 2 2.2208 -0.0626344 2.96482 19.1545
8462 2 2.2208 5.46378 -5.10426 21.9582
331 1 -1.1104 6.95228 1.72279 17.5609
409 1 -1.1104 7.14671 7.54935 14.9168
406 1 -1.1104 6.60028 7.46896 17.9043
338 1 -1.1104 6.71272 1.90765 14.8626
420 1 -1.1104 6.98713 4.82281 15.0923
372 1 -1.1104 12.5033 1.62445 17.4445
375 1 -1.1104 12.5334 1.56962 14.6567
379 2 2.2208 11.0542 3.22194 19.2307
383 1 -1.1104 9.86985 1.76273 17.7358
387 1 -1.1104 9.73517 1.57809 14.8767
390 2 2.2208 8.48458 3.13252 16.2457
439 2 2.2208 11.0983 5.90816 16.3677
441 1 -1.1104 12.6588 7.31538 17.6671
442 1 -1.1104 12.4443 7.22418 14.8944
444 1 -1.1104 12.3594 4.62219 17.7349
447 1 -1.1104 12.4719 4.52131 14.8538
451 1 -1.1104 9.51249 7.19036 17.7134
452 2 2.2208 8.24011 6.00458 19.1583
454 1 -1.1104 9.89127 7.18803 14.6879
457 1 -1.1104 9.71018 4.29545 17.8006
459 1 -1.1104 9.81845 4.49036 14.9777
460 1 -1.1104 9.9469 4.3011 20.777
443 1 -1.1104 12.5471 7.50677 20.511
339 1 -1.1104 6.91296 1.8121 20.4016
448 1 -1.1104 12.658 4.49046 20.5324
388 1 -1.1104 9.78835 1.59283 20.583
376 1 -1.1104 12.5582 1.74077 20.2284
455 1 -1.1104 9.65521 7.02162 20.7044
404 2 2.2208 5.24396 11.4309 16.4647
412 1 -1.1104 1.20127 10.3974 17.7735
415 2 2.2208 5.4304 8.65356 19.3341
418 1 -1.1104 1.08784 10.0032 14.9932
426 2 2.2208 2.72735 11.5676 19.213
429 2 2.2208 2.57534 8.75444 16.5075
431 1 -1.1104 4.01101 9.96282 17.8958
434 1 -1.1104 3.82129 9.87635 15.1017
467 1 -1.1104 1.10824 13.2464 17.8231
471 1 -1.1104 1.35788 12.942 15.0866
487 1 -1.1104 3.80233 12.7939 17.6904
490 1 -1.1104 3.93615 12.708 14.9115
472 1 -1.1104 1.09923 13.1771 20.5042
469 1 -1.1104 6.7322 12.986 17.8478
491 1 -1.1104 3.84802 12.747 20.8247
475 1 -1.1104 6.81763 12.7785 15.073
414 1 -1.1104 6.69362 10.1845 18.1103
422 1 -1.1104 6.72349 10.2593 15.266
440 2 2.2208 10.9793 11.521 16.3507
445 1 -1.1104 12.3703 10.0909 17.717
446 2 2.2208 11.2176 8.72818 19.1465
449 1 -1.1104 12.4258 10.0221 15.068
453 2 2.2208 7.99029 11.6291 19.4152
456 2 2.2208 8.20017 8.69198 16.4777
458 1 -1.1104 9.43159 9.88894 17.8938
461 1 -1.1104 9.52693 10.0494 15.1325
503 1 -1.1104 12.5286 12.884 17.6291
505 1 -1.1104 12.4144 12.9456 14.964
514 1 -1.1104 9.72082 12.7348 17.9015
517 1 -1.1104 9.58815 12.7669 14.9206
644 2 2.2208 11.1429 6.00034 27.6992
518 1 -1.1104 9.42974 13.0292 21.0536
561 2 2.2208 -0.0957928 5.85792 16.348
399 1 -1.1104 12.3426 18.5454 23.466
396 2 2.2208 -0.371954 14.5711 19.0758
481 2 2.2208 5.18056 14.3812 19.262
494 2 2.2208 2.52404 14.4395 16.4364
466 2 2.2208 5.32715 17.0062 16.4524
468 1 -1.1104 0.6827 18.6041 17.8866
473 1 -1.1104 0.667257 18.6789 15.0683
479 1 -1.1104 1.31218 15.9995 17.7731
482 2 2.2208 5.23352 19.9011 19.32
483 1 -1.1104 1.07394 15.683 14.8005
488 1 -1.1104 3.96344 18.2674 17.9152
489 2 2.2208 2.40828 17.3064 19.1952
492 1 -1.1104 3.4956 18.407 15.0066
495 2 2.2208 2.16978 19.8309 16.3204
496 1 -1.1104 3.90838 15.6637 17.6489
497 1 -1.1104 4.09716 15.4992 14.8462
484 1 -1.1104 0.646099 15.8789 20.6565
480 1 -1.1104 6.65266 15.8643 17.9735
485 1 -1.1104 6.75458 15.532 15.147
498 1 -1.1104 3.69318 15.5346 20.5294
510 2 2.2208 11.1703 14.454 19.1075
470 1 -1.1104 6.79317 18.6476 17.9136
477 1 -1.1104 6.63878 18.4716 15.1405
521 2 2.2208 8.26266 14.0967 16.3765
502 2 2.2208 10.6759 17.1101 16.3929
504 1 -1.1104 12.4109 18.7411 17.7614
507 1 -1.1104 11.9805 18.5331 14.9564
509 1 -1.1104 12.4355 15.7179 17.9657
511 2 2.2208 10.7597 19.9592 19.2194
512 1 -1.1104 12.2921 15.726 15.0542
515 1 -1.1104 9.51789 18.4056 17.8172
516 2 2.2208 8.15471 17.2343 19.3836
519 1 -1.1104 9.18022 18.6536 15.096
522 2 2.2208 8.11394 19.9418 16.6256
523 1 -1.1104 9.69827 15.3074 17.6844
524 1 -1.1104 9.57012 15.5972 14.8655
525 1 -1.1104 9.42272 15.6334 20.5889
513 1 -1.1104 12.3267 15.6767 20.582
478 1 -1.1104 6.91304 18.5327 20.7561
619 2 2.2208 5.50475 6.05306 27.674
437 2 2.2208 5.16931 17.1946 27.5869
8461 2 2.2208 5.38126 -5.22996 27.5663
8908 2 2.2208 -0.257226 3.19914 24.797
530 2 2.2208 5.50086 0.332105 22.0127
531 1 -1.1104 1.17774 -3.98397 23.5091
535 1 -1.1104 1.19177 -3.99718 26.1461
539 1 -1.1104 1.18237 -1.23608 23.5673
541 2 2.2208 5.26507 -2.46896 24.6736
543 1 -1.1104 1.10821 -1.10166 26.4662
545 1 -1.1104 4.18563 -4.02512 23.5722
547 2 2.2208 2.59477 0.254304 24.9502
548 1 -1.1104 3.96127 -3.72775 26.2584
550 2 2.2208 2.61955 -2.51512 21.9728
552 1 -1.1104 3.84193 -1.23308 23.4486
553 1 -1.1104 3.7797 -1.05141 26.5214
8463 2 2.2208 2.68378 -5.32955 24.9195
8458 2 2.2208 11.1377 -5.22787 16.0217
590 2 2.2208 -0.213601 11.6799 16.4076
316 2 2.2208 10.8521 20.1458 13.6466
8830 2 2.2208 -0.264334 19.9972 25.0307
323 2 2.2208 8.33166 8.72353 27.6598
584 2 2.2208 11.0966 0.0635816 27.5985
533 1 -1.1104 6.96255 -3.71906 23.3398
544 1 -1.1104 6.66263 -1.06746 26.1567
540 1 -1.1104 6.84069 -0.955776 23.3098
537 1 -1.1104 6.76254 -3.9478 25.9901
566 2 2.2208 11.1788 0.276289 21.943
567 1 -1.1104 12.6988 -4.16384 23.2883
569 1 -1.1104 12.358 -3.98849 26.1333
571 1 -1.1104 12.5575 -1.25353 23.3722
572 2 2.2208 11.1912 -2.57476 24.8121
574 1 -1.1104 12.4274 -1.051 26.2372
575 1 -1.1104 9.72293 -3.86662 23.2832
577 2 2.2208 8.15427 0.303406 24.7047
578 1 -1.1104 9.67823 -3.82617 26.1988
580 2 2.2208 8.19839 -2.44769 21.9148
582 1 -1.1104 9.76957 -1.05725 23.3639
583 1 -1.1104 9.43713 -1.21527 26.0527
305 2 2.2208 7.99165 19.9834 27.6398
361 2 2.2208 -0.230491 5.95349 22.163
428 1 -1.1104 3.89195 7.44754 20.617
417 1 -1.1104 1.17215 4.46793 20.7888
335 1 -1.1104 1.34108 1.49799 20.6551
532 1 -1.1104 1.1088 1.74846 23.4149
536 1 -1.1104 1.14059 1.8764 26.1938
542 2 2.2208 5.33535 3.2026 24.7219
546 1 -1.1104 4.10218 1.70761 23.4784
549 1 -1.1104 3.87177 1.46894 26.2142
551 2 2.2208 2.66496 3.16263 22.0314
595 2 2.2208 5.4209 5.91956 22.0231
599 1 -1.1104 1.22276 7.46448 26.3271
601 1 -1.1104 1.3853 4.64989 23.469
606 1 -1.1104 1.04831 4.74805 26.1512
611 2 2.2208 2.55156 6.00174 25.0613
613 1 -1.1104 4.14417 7.28506 26.261
615 1 -1.1104 3.96474 4.57082 23.2628
617 1 -1.1104 3.91483 4.42147 26.4505
610 1 -1.1104 4.05606 7.4903 23.3073
622 1 -1.1104 9.27771 18.5334 26.4053
8466 2 2.2208 8.47268 -5.35463 24.5623
421 1 -1.1104 6.95824 4.61272 20.6288
586 2 2.2208 8.18461 3.10731 27.71
608 1 -1.1104 6.60797 4.60012 26.3498
410 1 -1.1104 6.77935 7.22325 20.7351
600 1 -1.1104 7.02358 7.22772 26.2685
603 1 -1.1104 6.84524 4.63847 23.492
538 1 -1.1104 6.68958 1.93298 26.3045
534 1 -1.1104 6.84705 1.88248 23.274
598 1 -1.1104 6.94425 7.29001 23.4858
568 1 -1.1104 12.5307 1.84016 23.1642
570 1 -1.1104 12.6763 1.63793 25.9532
573 2 2.2208 11.1261 3.20513 24.7181
576 1 -1.1104 9.65577 1.69488 23.5415
579 1 -1.1104 9.47833 1.66309 26.2045
581 2 2.2208 8.25395 3.11517 21.9493
627 1 -1.1104 9.67622 4.60668 26.5495
629 1 -1.1104 9.67815 4.43304 23.4912
631 1 -1.1104 9.88129 7.42238 26.294
633 2 2.2208 8.23874 5.81254 24.8458
634 2 2.2208 11.1458 5.97384 22.0565
636 1 -1.1104 12.5694 7.44916 23.3796
637 1 -1.1104 12.4723 7.54575 26.3298
638 1 -1.1104 12.5364 4.61431 23.4441
641 1 -1.1104 12.224 4.58145 26.2627
643 1 -1.1104 9.76508 7.27078 23.4357
408 1 -1.1104 1.16808 7.26055 20.6875
419 1 -1.1104 1.06451 10.3717 20.64
8879 2 2.2208 13.5908 19.9638 22.3506
435 1 -1.1104 4.07097 10.1042 20.6521
402 2 2.2208 2.46271 14.2813 27.6634
395 2 2.2208 -0.37592 17.0884 16.4689
597 1 -1.1104 1.15902 7.30376 23.6016
9009 2 2.2208 -0.248189 8.84641 24.8672
596 2 2.2208 5.4605 11.4833 22.0862
602 1 -1.1104 1.28044 10.2209 23.4106
605 2 2.2208 5.4615 8.70946 24.8551
607 1 -1.1104 0.903083 10.0406 26.37
612 2 2.2208 2.39937 11.5637 24.9314
614 2 2.2208 2.50271 8.82438 21.9912
616 1 -1.1104 3.92947 10.3306 23.5216
618 1 -1.1104 3.71555 10.1036 26.3944
527 1 -1.1104 3.98498 12.9277 26.441
621 1 -1.1104 1.1543 12.9958 23.447
652 1 -1.1104 3.60186 13.0523 23.4999
656 1 -1.1104 0.965433 12.8218 26.4209
648 2 2.2208 5.16637 14.2234 24.9145
476 1 -1.1104 6.66544 12.952 20.6617
450 1 -1.1104 12.3623 10.0353 20.6584
462 1 -1.1104 9.61352 9.96072 20.8143
624 2 2.2208 -0.340464 11.7917 21.9856
563 2 2.2208 11.016 14.3458 25.0344
506 1 -1.1104 12.2838 12.8861 20.4241
423 1 -1.1104 6.83419 10.086 20.7779
604 1 -1.1104 6.84526 10.0344 23.5277
646 1 -1.1104 6.53398 12.8721 23.5457
651 1 -1.1104 6.69469 12.9493 26.269
609 1 -1.1104 6.69913 10.1373 26.2991
626 1 -1.1104 9.7926 10.2014 26.2285
628 1 -1.1104 9.6498 9.78056 23.4831
630 2 2.2208 8.18959 8.55379 22.0434
632 2 2.2208 8.11659 11.4221 24.9123
635 2 2.2208 10.9118 11.4868 22.1603
639 1 -1.1104 12.485 10.2265 23.2371
640 2 2.2208 11.1196 8.80137 24.8492
642 1 -1.1104 12.5163 10.3939 26.2189
398 1 -1.1104 12.4874 13.031 23.6645
557 1 -1.1104 12.2907 12.971 26.3275
587 1 -1.1104 9.40105 12.8362 23.7109
594 1 -1.1104 9.2224 12.9282 26.36
8838 2 2.2208 -0.240009 0.146143 22.109
474 1 -1.1104 1.27851 18.794 20.6479
558 1 -1.1104 12.4125 18.5184 26.3169
493 1 -1.1104 4.0999 18.2614 20.5737
658 2 2.2208 5.25981 19.7638 25.0292
655 1 -1.1104 0.73824 15.6514 26.2002
654 1 -1.1104 1.05148 18.4373 26.5098
650 1 -1.1104 3.7747 18.4944 23.4919
645 1 -1.1104 1.09508 18.5055 23.6466
620 2 2.2208 5.40236 17.121 22.1375
589 1 -1.1104 3.67128 18.542 26.3921
464 2 2.2208 2.4052 14.4338 22.0263
465 2 2.2208 2.4014 19.9392 22.2458
499 1 -1.1104 3.81044 15.8121 23.4252
501 1 -1.1104 1.04436 15.7266 23.5155
528 1 -1.1104 3.67491 15.8265 26.4097
529 2 2.2208 2.34878 17.2413 24.891
653 1 -1.1104 6.53387 15.7063 26.268
486 1 -1.1104 6.75317 15.8431 20.8703
657 1 -1.1104 6.62742 18.2577 23.7492
8459 2 2.2208 8.31393 -5.27589 19.0495
649 1 -1.1104 9.52273 15.6691 23.5608
366 1 -1.1104 9.5371 15.6815 26.3094
8836 2 2.2208 -0.0480436 -2.52156 24.8347
520 1 -1.1104 9.49853 18.5677 20.5642
591 1 -1.1104 9.33458 18.5468 23.528
592 2 2.2208 8.08022 16.973 25.0378
322 2 2.2208 5.34936 11.4585 27.5686
394 2 2.2208 10.8587 17.1191 22.1289
562 1 -1.1104 12.4987 15.9014 23.1584
593 1 -1.1104 6.55238 18.7402 26.3521
565 1 -1.1104 12.3421 15.886 26.2309
564 2 2.2208 10.713 19.8421 24.9937
526 1 -1.1104 6.8 15.4712 23.5431
625 2 2.2208 8.12149 19.9838 22.0345
623 2 2.2208 8.06552 14.3668 22.2334
508 1 -1.1104 12.3186 18.2406 20.7416
588 2 2.2208 -0.22302 8.77759 19.2758
17726 2 2.2208 -0.28209 -5.3144 16.3167
304 2 2.2208 11.0614 16.9441 27.8219
554 2 2.2208 5.42488 0.306865 27.7206
318 2 2.2208 8.20714 17.1291 13.7419
312 2 2.2208 10.9695 8.76818 13.6813
8784 2 2.2208 -0.182778 5.88971 27.7272
660 2 2.2208 5.3774 22.8536 5.30446
662 1 -1.1104 1.02084 24.2312 0.83431
663 1 -1.1104 1.0394 24.4263 3.69727
664 1 -1.1104 1.09095 21.2353 0.998354
666 2 2.2208 5.28535 25.6539 2.36951
667 1 -1.1104 1.10778 21.4197 3.67148
669 1 -1.1104 3.86162 24.5054 0.926305
670 2 2.2208 2.48282 22.8238 2.44862
672 1 -1.1104 3.83865 24.0727 4.01095
673 2 2.2208 2.30472 25.6933 5.22896
674 1 -1.1104 3.77679 21.5393 0.977117
676 1 -1.1104 4.01801 21.4349 3.85092
665 1 -1.1104 0.78318 27.1141 0.939172
668 1 -1.1104 0.873737 27.1725 3.59943
1020 2 2.2208 10.7065 45.2998 -0.272832
677 1 -1.1104 3.76971 26.8955 3.65088
9407 2 2.2208 13.6604 45.3058 8.03902
807 1 -1.1104 3.51008 24.3439 6.48089
808 1 -1.1104 3.933 21.5785 6.7288
801 1 -1.1104 0.67962 24.0434 6.54638
805 1 -1.1104 6.72804 21.4739 6.62488
681 1 -1.1104 6.44745 24.2112 1.08261
683 1 -1.1104 6.55667 21.3374 1.04671
685 1 -1.1104 6.711 21.5058 3.97629
682 1 -1.1104 6.74782 24.1556 3.77712
687 2 2.2208 10.9203 22.6556 5.16482
689 1 -1.1104 12.3604 24.058 0.963217
690 1 -1.1104 12.4133 24.2015 3.8393
691 1 -1.1104 12.2899 21.3518 0.794389
693 2 2.2208 10.7693 25.6494 2.4623
694 1 -1.1104 12.1738 21.3202 3.85433
696 1 -1.1104 9.41923 24.1544 0.861455
697 2 2.2208 8.06986 22.846 2.32615
699 1 -1.1104 9.53824 24.1904 3.72539
700 2 2.2208 7.99998 25.5828 5.22885
701 1 -1.1104 9.46285 21.4976 0.863302
703 1 -1.1104 9.42993 21.3686 3.73439
836 1 -1.1104 12.2786 26.9745 6.37679
9341 2 2.2208 13.5155 36.8712 10.9982
686 1 -1.1104 6.59883 27.1152 3.83095
692 1 -1.1104 12.3551 26.955 1.12153
684 1 -1.1104 6.54023 27.1977 1.10286
838 1 -1.1104 9.53555 21.4264 6.48291
9452 2 2.2208 -0.277387 45.3516 5.43817
675 1 -1.1104 3.72473 27.1725 0.844058
1019 2 2.2208 7.89745 22.8603 13.6225
661 2 2.2208 5.12089 28.4421 5.15397
671 2 2.2208 2.65849 28.5383 2.22081
709 1 -1.1104 1.08401 29.8988 1.02414
712 1 -1.1104 1.42884 30.0536 3.54465
715 1 -1.1104 0.840403 32.7803 0.922328
716 2 2.2208 5.17388 31.4625 2.344
718 1 -1.1104 1.06316 32.8178 3.93488
720 1 -1.1104 3.8519 29.8908 0.816329
723 1 -1.1104 4.11094 29.8589 3.78895
725 2 2.2208 2.48799 31.213 5.36621
727 1 -1.1104 3.54446 32.813 1.07857
728 1 -1.1104 3.83551 32.7783 3.85444
1315 1 -1.1104 3.69403 46.8067 4.02699
9492 2 2.2208 13.6122 22.7117 13.5577
858 1 -1.1104 0.926651 29.8357 6.43768
866 1 -1.1104 3.75103 32.6494 6.78359
809 1 -1.1104 3.80282 26.9943 6.43447
862 1 -1.1104 0.742021 32.7072 6.58418
702 1 -1.1104 9.76992 26.9171 0.886497
704 1 -1.1104 9.20936 26.8828 3.62575
695 1 -1.1104 12.2716 26.8838 3.62913
732 1 -1.1104 6.48492 30.0295 1.23752
733 1 -1.1104 6.7568 29.88 3.99677
734 1 -1.1104 6.73544 32.644 1.02817
719 1 -1.1104 6.52391 32.6162 3.95206
688 2 2.2208 10.8916 28.5177 5.25243
698 2 2.2208 7.93252 28.454 2.4751
736 1 -1.1104 12.3219 29.7187 1.02661
738 1 -1.1104 12.3664 29.7555 3.84258
740 1 -1.1104 12.4201 32.4224 1.13071
741 2 2.2208 10.9301 30.968 2.38888
743 1 -1.1104 12.4482 32.6787 3.94691
744 1 -1.1104 9.35919 29.6518 1.02872
747 1 -1.1104 9.5801 29.919 3.76665
749 2 2.2208 8.01055 31.1041 5.4318
751 1 -1.1104 9.64914 32.142 0.830064
752 1 -1.1104 9.46828 32.559 3.86641
897 1 -1.1104 9.37917 32.7262 6.50153
1259 2 2.2208 7.83592 31.2246 -0.325936
839 1 -1.1104 9.3957 27.0278 6.584
895 1 -1.1104 9.43874 29.8844 6.78998
1230 2 2.2208 5.15039 34.0308 -0.173416
937 1 -1.1104 6.3888 41.0801 9.59549
1523 1 -1.1104 9.48376 46.4826 12.1723
1017 2 2.2208 10.6837 25.5867 13.5781
708 2 2.2208 5.13473 34.2303 5.2117
710 1 -1.1104 0.761367 35.4326 1.1739
713 1 -1.1104 0.964712 35.4351 4.01624
717 2 2.2208 5.09359 36.8867 2.30275
721 1 -1.1104 3.55065 35.5293 1.17188
722 2 2.2208 2.08536 34.1319 2.42188
724 1 -1.1104 3.85205 35.5448 3.93369
726 2 2.2208 2.44103 37.0011 5.2731
754 2 2.2208 5.05093 39.8552 5.27556
760 1 -1.1104 0.950749 38.1564 1.02961
765 1 -1.1104 0.830971 38.5724 3.95336
770 2 2.2208 2.26903 39.6922 2.3944
774 1 -1.1104 3.76868 38.2605 1.09483
776 1 -1.1104 3.63061 38.1491 3.75854
941 1 -1.1104 6.43253 41.0339 12.3645
1145 2 2.2208 7.96329 42.5139 -0.412659
1287 2 2.2208 2.16293 42.5442 -0.330839
1147 2 2.2208 7.99737 45.3052 13.6228
938 1 -1.1104 3.82481 38.2792 6.62574
800 1 -1.1104 12.3605 43.9184 9.55741