LAMMPS (29 Oct 2020)
OMP_NUM_THREADS environment is not set. Defaulting to 1 thread. (../comm.cpp:94)
  using 1 OpenMP thread(s) per MPI task
OMP_NUM_THREADS environment is not set. Defaulting to 1 thread. (../comm.cpp:94)
  using 1 OpenMP thread(s) per MPI task
Reading data file ...
  triclinic box = (0.0000000 0.0000000 0.0000000) to (27.894000 334.72800 27.894000) with tilt (0.0000000 0.0000000 0.0000000)
  2 by 13 by 2 MPI processor grid
  reading atoms ...
  24000 atoms
  reading velocities ...
  24000 velocities
Finding 1-2 1-3 1-4 neighbors ...
  special bond factors lj:    0.0      0.0      0.0     
  special bond factors coul:  0.0      0.0      0.0     
     0 = max # of 1-2 neighbors
     0 = max # of 1-3 neighbors
     0 = max # of 1-4 neighbors
     1 = max # of special neighbors
  special bonds CPU = 0.004 seconds
  read_data CPU = 0.067 seconds
30 atoms in group vac_Th
60 atoms in group vac_O
30 atoms in group oct_Th
60 atoms in group oct_O
3000 atoms in group tot_oct_Th
3000 atoms in group tot_oct_O
2970 atoms in group delete_oct_Th
2940 atoms in group delete_oct_O
WARNING: Ignoring 'compress yes' for molecular system (../delete_atoms.cpp:125)
Deleted 30 atoms, new total = 23970
WARNING: Ignoring 'compress yes' for molecular system (../delete_atoms.cpp:125)
Deleted 60 atoms, new total = 23910
WARNING: Ignoring 'compress yes' for molecular system (../delete_atoms.cpp:125)
Deleted 2970 atoms, new total = 20940
WARNING: Ignoring 'compress yes' for molecular system (../delete_atoms.cpp:125)
Deleted 2940 atoms, new total = 18000
Setting atom values ...
  11940 settings made for charge
Setting atom values ...
  5970 settings made for charge
Setting atom values ...
  60 settings made for charge
Setting atom values ...
  30 settings made for charge
PPPM initialization ...
  using 12-bit tables for long-range coulomb (../kspace.cpp:328)
  G vector (1/distance) = 0.29916851
  grid = 40 240 40
  stencil order = 5
  estimated absolute RMS force accuracy = 0.00015502622
  estimated relative force accuracy = 1.0765975e-05
  using single precision MKL FFT
  3d grid and FFT values/proc = 18225 7600
Neighbor list info ...
  update every 1 steps, delay 0 steps, check yes
  max neighbors/atom: 2000, page size: 100000
  master list distance cutoff = 13
  ghost atom cutoff = 13
  binsize = 6.5, bins = 5 52 5
  2 neighbor lists, perpetual/occasional/extra = 2 0 0
  (1) pair coul/long, perpetual
      attributes: half, newton on
      pair build: half/bin/newton/tri
      stencil: half/bin/3d/newton/tri
      bin: standard
  (2) pair eam/alloy, perpetual, copy from (1)
      attributes: half, newton on
      pair build: copy
      stencil: none
      bin: none
Setting up cg style minimization ...
  Unit style    : metal
  Current step  : 0
WARNING: Energy due to 3 extra global DOFs will be included in minimizer energies
Per MPI rank memory allocation (min/avg/max) = 10.44 | 10.47 | 10.49 Mbytes
Step Temp E_pair E_mol TotEng Press Volume 
       0            0   -234008.24            0   -234008.24    12030.814    260443.57 
     395            0      -235878            0      -235878    98.949241    263125.33 
Loop time of 6.02597 on 52 procs for 395 steps with 18000 atoms

99.6% CPU use with 52 MPI tasks x 1 OpenMP threads

Minimization stats:
  Stopping criterion = linesearch alpha is zero
  Energy initial, next-to-last, final = 
     -234008.238924892  -235878.000482268  -235878.000482269
  Force two-norm initial, final = 3596.9644 45.677239
  Force max component initial, final = 2435.7222 32.285890
  Final line search alpha, max atom move = 5.6590171e-12 1.8270641e-10
  Iterations, force evaluations = 395 539

MPI task timing breakdown:
Section |  min time  |  avg time  |  max time  |%varavg| %total
---------------------------------------------------------------
Pair    | 3.4828     | 3.5694     | 3.6949     |   2.5 | 59.23
Bond    | 5.3702e-05 | 7.3493e-05 | 0.00010866 |   0.0 |  0.00
Kspace  | 0.86746    | 0.99229    | 1.083      |   4.8 | 16.47
Neigh   | 0.010627   | 0.011833   | 0.013773   |   0.6 |  0.20
Comm    | 0.093919   | 0.098608   | 0.10752    |   1.3 |  1.64
Output  | 0          | 0          | 0          |   0.0 |  0.00
Modify  | 0          | 0          | 0          |   0.0 |  0.00
Other   |            | 1.354      |            |       | 22.46

Nlocal:        346.154 ave         390 max         308 min
Histogram: 5 3 3 6 10 12 7 3 0 3
Nghost:        5637.25 ave        5753 max        5494 min
Histogram: 3 8 3 2 5 2 7 11 7 4
Neighs:       111788.0 ave      125170 max       98568 min
Histogram: 3 3 3 5 12 10 8 4 1 3

Total # of neighbors = 5812961
Ave neighs/atom = 322.94228
Ave special neighs/atom = 0.0000000
Neighbor list builds = 3
Dangerous builds = 0
Resetting atom IDs ...
PPPM initialization ...
  using 12-bit tables for long-range coulomb (../kspace.cpp:328)
  G vector (1/distance) = 0.29899621
  grid = 40 240 40
  stencil order = 5
  estimated absolute RMS force accuracy = 0.00015633441
  estimated relative force accuracy = 1.0856824e-05
  using single precision MKL FFT
  3d grid and FFT values/proc = 18225 7600
Finding 1-2 1-3 1-4 neighbors ...
  special bond factors lj:    0.0      0.0      0.0     
  special bond factors coul:  0.0      0.0      0.0     
     0 = max # of 1-2 neighbors
     0 = max # of 1-3 neighbors
     0 = max # of 1-4 neighbors
     1 = max # of special neighbors
  special bonds CPU = 0.001 seconds
PPPM initialization ...
  using 12-bit tables for long-range coulomb (../kspace.cpp:328)
  G vector (1/distance) = 0.29899621
  grid = 40 240 40
  stencil order = 5
  estimated absolute RMS force accuracy = 0.00015633441
  estimated relative force accuracy = 1.0856824e-05
  using single precision MKL FFT
  3d grid and FFT values/proc = 18225 7600
Setting up Verlet run ...
  Unit style    : metal
  Current step  : 0
  Time step     : 0.001
Per MPI rank memory allocation (min/avg/max) = 10.59 | 10.62 | 10.64 Mbytes
Step Temp KinEng Dt Time Atoms TotEng PotEng Press v_latt 
       0         1200     2791.864        0.001            0    18000   -233086.14   -235878.01    11431.732    5.5978852 
   50000     1201.012    2794.2186        0.001           50    18000   -230649.76   -233443.97    1258.9718    5.6543713 
  100000    1208.6715    2812.0386        0.001          100    18000   -230654.96      -233467   -615.95728    5.6556182 
Loop time of 873.928 on 52 procs for 100000 steps with 18000 atoms

Performance: 9.886 ns/day, 2.428 hours/ns, 114.426 timesteps/s
99.8% CPU use with 52 MPI tasks x 1 OpenMP threads

MPI task timing breakdown:
Section |  min time  |  avg time  |  max time  |%varavg| %total
---------------------------------------------------------------
Pair    | 542.01     | 552.34     | 566.86     |  24.7 | 63.20
Bond    | 0.010154   | 0.014135   | 0.019791   |   1.9 |  0.00
Kspace  | 149.68     | 164.92     | 175.55     |  46.8 | 18.87
Neigh   | 10.497     | 10.964     | 11.571     |   8.6 |  1.25
Comm    | 17.297     | 17.725     | 18.461     |   6.1 |  2.03
Output  | 0.011211   | 0.011239   | 0.011547   |   0.0 |  0.00
Modify  | 112.97     | 118.36     | 124.49     |  26.2 | 13.54
Other   |            | 9.584      |            |       |  1.10

Nlocal:        346.154 ave         364 max         333 min
Histogram: 3 10 6 7 5 10 3 3 1 4
Nghost:        5545.23 ave        5678 max        5447 min
Histogram: 9 8 6 4 5 3 4 4 5 4
Neighs:       107376.0 ave      113750 max      102507 min
Histogram: 2 7 9 6 9 7 4 3 3 2

Total # of neighbors = 5583530
Ave neighs/atom = 310.19611
Ave special neighs/atom = 0.0000000
Neighbor list builds = 2719
Dangerous builds = 0
System init for write_data ...
PPPM initialization ...
  using 12-bit tables for long-range coulomb (../kspace.cpp:328)
  G vector (1/distance) = 0.29841105
  grid = 40 240 40
  stencil order = 5
  estimated absolute RMS force accuracy = 0.00016116781
  estimated relative force accuracy = 1.1192485e-05
  using single precision MKL FFT
  3d grid and FFT values/proc = 18225 7600
Total wall time: 0:14:40
