LAMMPS (29 Oct 2020)
OMP_NUM_THREADS environment is not set. Defaulting to 1 thread. (../comm.cpp:94)
  using 1 OpenMP thread(s) per MPI task
OMP_NUM_THREADS environment is not set. Defaulting to 1 thread. (../comm.cpp:94)
  using 1 OpenMP thread(s) per MPI task
Reading data file ...
  orthogonal box = (-0.48992072 -5.8777852 -0.49246707) to (27.829921 333.95779 27.832467)
  2 by 13 by 2 MPI processor grid
  reading atoms ...
  17640 atoms
  reading velocities ...
  17640 velocities
Finding 1-2 1-3 1-4 neighbors ...
  special bond factors lj:    0.0      0.0      0.0     
  special bond factors coul:  0.0      0.0      0.0     
     0 = max # of 1-2 neighbors
     0 = max # of 1-3 neighbors
     0 = max # of 1-4 neighbors
     1 = max # of special neighbors
  special bonds CPU = 0.005 seconds
  read_data CPU = 0.064 seconds
Setting atom values ...
  11760 settings made for charge
Setting atom values ...
  5880 settings made for charge
PPPM initialization ...
  using 12-bit tables for long-range coulomb (../kspace.cpp:328)
  G vector (1/distance) = 0.29829751
  grid = 40 240 40
  stencil order = 5
  estimated absolute RMS force accuracy = 0.00016040732
  estimated relative force accuracy = 1.1139672e-05
  using single precision MKL FFT
  3d grid and FFT values/proc = 15000 7600
Neighbor list info ...
  update every 1 steps, delay 0 steps, check yes
  max neighbors/atom: 2000, page size: 100000
  master list distance cutoff = 11.3
  ghost atom cutoff = 11.3
  binsize = 5.65, bins = 6 61 6
  2 neighbor lists, perpetual/occasional/extra = 2 0 0
  (1) pair coul/long, perpetual
      attributes: half, newton on
      pair build: half/bin/newton
      stencil: half/bin/3d/newton
      bin: standard
  (2) pair eam/alloy, perpetual, copy from (1)
      attributes: half, newton on
      pair build: copy
      stencil: none
      bin: none
Setting up Verlet run ...
  Unit style    : metal
  Current step  : 0
  Time step     : 0.001
Per MPI rank memory allocation (min/avg/max) = 8.140 | 8.164 | 8.179 Mbytes
Step Temp E_pair E_mol TotEng Press 
       0         1500   -227960.56            0   -224540.53   -417.92804 
   50000    1489.3668   -227932.82            0   -224537.03    93.252709 
Loop time of 341.804 on 52 procs for 50000 steps with 17640 atoms

Performance: 12.639 ns/day, 1.899 hours/ns, 146.283 timesteps/s
99.8% CPU use with 52 MPI tasks x 1 OpenMP threads

MPI task timing breakdown:
Section |  min time  |  avg time  |  max time  |%varavg| %total
---------------------------------------------------------------
Pair    | 218.27     | 226.79     | 237.18     |  28.6 | 66.35
Bond    | 0.0034307  | 0.0051745  | 0.0067203  |   1.1 |  0.00
Kspace  | 68.022     | 79.916     | 89.845     |  54.6 | 23.38
Neigh   | 20.868     | 22.777     | 25.178     |  18.2 |  6.66
Comm    | 9.386      | 10.079     | 11.053     |  11.6 |  2.95
Output  | 5.8075e-05 | 6.3381e-05 | 0.00027064 |   0.0 |  0.00
Modify  | 1.1066     | 1.4643     | 2.419      |  30.2 |  0.43
Other   |            | 0.7769     |            |       |  0.23

Nlocal:        339.231 ave         368 max         317 min
Histogram: 6 4 5 12 6 4 8 2 1 4
Nghost:        3910.17 ave        4059 max        3788 min
Histogram: 3 5 7 11 9 4 2 5 4 2
Neighs:        66902.1 ave       76171 max       59073 min
Histogram: 2 2 8 8 9 14 3 2 2 2

Total # of neighbors = 3478910
Ave neighs/atom = 197.21712
Ave special neighs/atom = 0.0000000
Neighbor list builds = 12491
Dangerous builds = 0
11760 atoms in group oxygen
PPPM initialization ...
  using 12-bit tables for long-range coulomb (../kspace.cpp:328)
  G vector (1/distance) = 0.29829751
  grid = 40 240 40
  stencil order = 5
  estimated absolute RMS force accuracy = 0.00016040732
  estimated relative force accuracy = 1.1139672e-05
  using single precision MKL FFT
  3d grid and FFT values/proc = 15000 7600
Setting up Verlet run ...
  Unit style    : metal
  Current step  : 0
  Time step     : 0.001
Per MPI rank memory allocation (min/avg/max) = 8.392 | 8.414 | 8.429 Mbytes
Step f_2 Temp v_Tdiff v_deltaT 
       0            0    1489.3668            0            0 
  100000    1556.7829    1480.6649   0.06841335    794.27264 
  200000    2969.5941    1498.3083  0.089448474    1038.4885 
  300000    4390.4433     1502.672  0.087502408    1015.8948 
  400000     5827.884    1492.8039   0.08678232    1007.5347 
  500000    7260.1782    1502.3505  0.087177472    1012.1224 
  600000    8694.8124    1501.9019  0.087671689    1017.8602 
  700000    10125.165    1485.6248  0.088652673    1029.2493 
  800000    11555.341    1494.2548  0.087113522    1011.3799 
  900000    12996.004    1490.6295  0.088600249    1028.6407 
 1000000    14428.719    1503.9619  0.089091748    1034.3469 
Loop time of 6767.23 on 52 procs for 1000000 steps with 17640 atoms

Performance: 12.767 ns/day, 1.880 hours/ns, 147.771 timesteps/s
99.8% CPU use with 52 MPI tasks x 1 OpenMP threads

MPI task timing breakdown:
Section |  min time  |  avg time  |  max time  |%varavg| %total
---------------------------------------------------------------
Pair    | 4339.2     | 4503.4     | 4671.5     | 103.4 | 66.55
Bond    | 0.068602   | 0.10353    | 0.13907    |   5.3 |  0.00
Kspace  | 1374.6     | 1565.3     | 1737.1     | 201.4 | 23.13
Neigh   | 425.42     | 461.14     | 500.61     |  75.9 |  6.81
Comm    | 186.82     | 201.98     | 216.34     |  50.9 |  2.98
Output  | 0.0010987  | 0.0011723  | 0.0023059  |   0.5 |  0.00
Modify  | 5.6041     | 6.1691     | 6.6691     |  10.2 |  0.09
Other   |            | 29.14      |            |       |  0.43

Nlocal:        339.231 ave         362 max         308 min
Histogram: 1 0 5 5 8 8 9 7 6 3
Nghost:        3905.83 ave        4002 max        3797 min
Histogram: 4 1 6 6 8 5 5 9 3 5
Neighs:        66880.6 ave       73132 max       59267 min
Histogram: 4 2 2 4 6 13 10 2 3 6

Total # of neighbors = 3477791
Ave neighs/atom = 197.15368
Ave special neighs/atom = 0.0000000
Neighbor list builds = 253778
Dangerous builds = 0
Total wall time: 1:58:29
