LAMMPS (29 Oct 2020)
OMP_NUM_THREADS environment is not set. Defaulting to 1 thread. (../comm.cpp:94)
  using 1 OpenMP thread(s) per MPI task
OMP_NUM_THREADS environment is not set. Defaulting to 1 thread. (../comm.cpp:94)
  using 1 OpenMP thread(s) per MPI task
Reading data file ...
  orthogonal box = (-0.45035253 -5.1850093 -0.44240925) to (27.790353 333.26501 27.782409)
  2 by 13 by 2 MPI processor grid
  reading atoms ...
  17730 atoms
  reading velocities ...
  17730 velocities
Finding 1-2 1-3 1-4 neighbors ...
  special bond factors lj:    0.0      0.0      0.0     
  special bond factors coul:  0.0      0.0      0.0     
     0 = max # of 1-2 neighbors
     0 = max # of 1-3 neighbors
     0 = max # of 1-4 neighbors
     1 = max # of special neighbors
  special bonds CPU = 0.005 seconds
  read_data CPU = 0.058 seconds
Setting atom values ...
  11820 settings made for charge
Setting atom values ...
  5910 settings made for charge
PPPM initialization ...
  using 12-bit tables for long-range coulomb (../kspace.cpp:328)
  G vector (1/distance) = 0.29850654
  grid = 40 240 40
  stencil order = 5
  estimated absolute RMS force accuracy = 0.00015908575
  estimated relative force accuracy = 1.1047894e-05
  using single precision MKL FFT
  3d grid and FFT values/proc = 15000 7600
Neighbor list info ...
  update every 1 steps, delay 0 steps, check yes
  max neighbors/atom: 2000, page size: 100000
  master list distance cutoff = 11.3
  ghost atom cutoff = 11.3
  binsize = 5.65, bins = 5 60 5
  2 neighbor lists, perpetual/occasional/extra = 2 0 0
  (1) pair coul/long, perpetual
      attributes: half, newton on
      pair build: half/bin/newton
      stencil: half/bin/3d/newton
      bin: standard
  (2) pair eam/alloy, perpetual, copy from (1)
      attributes: half, newton on
      pair build: copy
      stencil: none
      bin: none
Setting up Verlet run ...
  Unit style    : metal
  Current step  : 0
  Time step     : 0.001
Per MPI rank memory allocation (min/avg/max) = 8.148 | 8.169 | 8.183 Mbytes
Step Temp E_pair E_mol TotEng Press 
       0         1200   -230036.76            0   -227286.78    1369.2668 
   50000    1193.7461    -230042.6            0   -227306.95     1278.009 
Loop time of 326.313 on 52 procs for 50000 steps with 17730 atoms

Performance: 13.239 ns/day, 1.813 hours/ns, 153.227 timesteps/s
99.8% CPU use with 52 MPI tasks x 1 OpenMP threads

MPI task timing breakdown:
Section |  min time  |  avg time  |  max time  |%varavg| %total
---------------------------------------------------------------
Pair    | 217.33     | 222.25     | 228.21     |  17.7 | 68.11
Bond    | 0.0033211  | 0.0049837  | 0.0072227  |   1.3 |  0.00
Kspace  | 63.731     | 70.931     | 77.817     |  39.8 | 21.74
Neigh   | 21.698     | 23.05      | 25.043     |  17.3 |  7.06
Comm    | 7.3814     | 7.8417     | 8.885      |  13.3 |  2.40
Output  | 5.4615e-05 | 5.9441e-05 | 0.0002607  |   0.0 |  0.00
Modify  | 0.90161    | 1.5685     | 2.5277     |  39.8 |  0.48
Other   |            | 0.664      |            |       |  0.20

Nlocal:        340.962 ave         361 max         322 min
Histogram: 4 3 6 6 9 6 9 2 3 4
Nghost:        3973.87 ave        4103 max        3887 min
Histogram: 4 6 6 10 11 7 3 2 0 3
Neighs:        67795.5 ave       72964 max       63189 min
Histogram: 3 8 5 5 5 8 10 2 3 3

Total # of neighbors = 3525364
Ave neighs/atom = 198.83610
Ave special neighs/atom = 0.0000000
Neighbor list builds = 10993
Dangerous builds = 0
11820 atoms in group oxygen
PPPM initialization ...
  using 12-bit tables for long-range coulomb (../kspace.cpp:328)
  G vector (1/distance) = 0.29850654
  grid = 40 240 40
  stencil order = 5
  estimated absolute RMS force accuracy = 0.00015908575
  estimated relative force accuracy = 1.1047894e-05
  using single precision MKL FFT
  3d grid and FFT values/proc = 15000 7600
Setting up Verlet run ...
  Unit style    : metal
  Current step  : 0
  Time step     : 0.001
Per MPI rank memory allocation (min/avg/max) = 8.398 | 8.419 | 8.434 Mbytes
Step f_2 Temp v_Tdiff v_deltaT 
       0            0    1193.7461            0            0 
  100000    1285.1092    1201.3809  0.048406193    561.99141 
  200000    2492.4313    1188.9477  0.058701324    681.51692 
  300000    3687.8977    1198.5443  0.060529398    702.74069 
  400000    4891.2958    1195.7461   0.06094286    707.54094 
  500000    6099.5871    1197.5627   0.05940772    689.71811 
  600000    7300.5339    1194.0387  0.060227783    699.23896 
  700000    8504.3278    1199.8082  0.059375224    689.34083 
  800000    9711.1051    1201.7895  0.060427673    701.55967 
  900000    10911.959     1191.161  0.061923995    718.93184 
 1000000    12119.796    1212.0118  0.058826561    682.97091 
Loop time of 6512.89 on 52 procs for 1000000 steps with 17730 atoms

Performance: 13.266 ns/day, 1.809 hours/ns, 153.542 timesteps/s
99.8% CPU use with 52 MPI tasks x 1 OpenMP threads

MPI task timing breakdown:
Section |  min time  |  avg time  |  max time  |%varavg| %total
---------------------------------------------------------------
Pair    | 4258.7     | 4380       | 4527       |  91.8 | 67.25
Bond    | 0.071269   | 0.099456   | 0.14427    |   5.3 |  0.00
Kspace  | 1265.7     | 1438.7     | 1556.1     | 180.1 | 22.09
Neigh   | 467.06     | 497.69     | 535.56     |  69.1 |  7.64
Comm    | 150.21     | 160.54     | 188.05     |  73.8 |  2.47
Output  | 0.0010512  | 0.0011031  | 0.0023079  |   0.5 |  0.00
Modify  | 5.3318     | 5.7767     | 6.24       |   9.3 |  0.09
Other   |            | 30.03      |            |       |  0.46

Nlocal:        340.962 ave         367 max         318 min
Histogram: 2 1 6 12 9 9 7 4 1 1
Nghost:        3972.23 ave        4052 max        3894 min
Histogram: 3 4 7 6 4 9 8 5 3 3
Neighs:        67787.9 ave       73273 max       62205 min
Histogram: 2 3 5 6 6 12 9 6 1 2

Total # of neighbors = 3524969
Ave neighs/atom = 198.81382
Ave special neighs/atom = 0.0000000
Neighbor list builds = 236972
Dangerous builds = 0
Total wall time: 1:53:59
