LAMMPS (29 Oct 2020)
OMP_NUM_THREADS environment is not set. Defaulting to 1 thread. (../comm.cpp:94)
  using 1 OpenMP thread(s) per MPI task
OMP_NUM_THREADS environment is not set. Defaulting to 1 thread. (../comm.cpp:94)
  using 1 OpenMP thread(s) per MPI task
Reading data file ...
  triclinic box = (-0.083202556 -1.0368296 -0.092329646) to (27.977203 335.76483 27.986330) with tilt (0.0000000 0.0000000 0.0000000)
  2 by 13 by 2 MPI processor grid
  reading atoms ...
  18000 atoms
  reading velocities ...
  18000 velocities
Finding 1-2 1-3 1-4 neighbors ...
  special bond factors lj:    0.0      0.0      0.0     
  special bond factors coul:  0.0      0.0      0.0     
     0 = max # of 1-2 neighbors
     0 = max # of 1-3 neighbors
     0 = max # of 1-4 neighbors
     1 = max # of special neighbors
  special bonds CPU = 0.004 seconds
  read_data CPU = 0.059 seconds
Setting atom values ...
  11820 settings made for charge
Setting atom values ...
  6000 settings made for charge
Setting atom values ...
  180 settings made for charge
Setting atom values ...
  0 settings made for charge
PPPM initialization ...
  using 12-bit tables for long-range coulomb (../kspace.cpp:328)
  G vector (1/distance) = 0.29882385
  grid = 40 240 40
  stencil order = 5
  estimated absolute RMS force accuracy = 0.00015780591
  estimated relative force accuracy = 1.0959014e-05
  using single precision MKL FFT
  3d grid and FFT values/proc = 15000 7600
Neighbor list info ...
  update every 1 steps, delay 0 steps, check yes
  max neighbors/atom: 2000, page size: 100000
  master list distance cutoff = 11.3
  ghost atom cutoff = 11.3
  binsize = 5.65, bins = 5 60 5
  2 neighbor lists, perpetual/occasional/extra = 2 0 0
  (1) pair coul/long, perpetual
      attributes: half, newton on
      pair build: half/bin/newton/tri
      stencil: half/bin/3d/newton/tri
      bin: standard
  (2) pair eam/alloy, perpetual, copy from (1)
      attributes: half, newton on
      pair build: copy
      stencil: none
      bin: none
Setting up Verlet run ...
  Unit style    : metal
  Current step  : 0
  Time step     : 0.001
Per MPI rank memory allocation (min/avg/max) = 8.327 | 8.357 | 8.381 Mbytes
Step Temp E_pair E_mol TotEng Press 
       0          600   -235323.97            0   -233928.04   -850.18541 
  100000    602.14861   -235357.06            0   -233956.13   -1030.7287 
Loop time of 679.154 on 52 procs for 100000 steps with 18000 atoms

Performance: 12.722 ns/day, 1.887 hours/ns, 147.242 timesteps/s
99.8% CPU use with 52 MPI tasks x 1 OpenMP threads

MPI task timing breakdown:
Section |  min time  |  avg time  |  max time  |%varavg| %total
---------------------------------------------------------------
Pair    | 458.05     | 466.27     | 473.95     |  16.9 | 68.65
Bond    | 0.0069977  | 0.011075   | 0.020242   |   2.7 |  0.00
Kspace  | 130.31     | 141.28     | 149.34     |  41.8 | 20.80
Neigh   | 48.083     | 51.279     | 54.531     |  21.3 |  7.55
Comm    | 14.415     | 15.508     | 17.427     |  18.0 |  2.28
Output  | 5.6399e-05 | 6.1486e-05 | 0.00027485 |   0.0 |  0.00
Modify  | 1.7575     | 3.5972     | 5.7112     |  63.0 |  0.53
Other   |            | 1.216      |            |       |  0.18

Nlocal:        346.154 ave         368 max         329 min
Histogram: 5 8 7 5 7 2 8 4 2 4
Nghost:        4151.60 ave        4252 max        4057 min
Histogram: 4 4 8 5 7 6 5 4 4 5
Neighs:        69935.9 ave       74719 max       66502 min
Histogram: 6 8 9 4 4 5 8 2 4 2

Total # of neighbors = 3636665
Ave neighs/atom = 202.03694
Ave special neighs/atom = 0.0000000
Neighbor list builds = 16218
Dangerous builds = 0
11820 atoms in group oxygen
PPPM initialization ...
  using 12-bit tables for long-range coulomb (../kspace.cpp:328)
  G vector (1/distance) = 0.29882385
  grid = 40 240 40
  stencil order = 5
  estimated absolute RMS force accuracy = 0.00015780591
  estimated relative force accuracy = 1.0959014e-05
  using single precision MKL FFT
  3d grid and FFT values/proc = 15000 7600
Setting up Verlet run ...
  Unit style    : metal
  Current step  : 0
  Time step     : 0.001
Per MPI rank memory allocation (min/avg/max) = 8.578 | 8.608 | 8.631 Mbytes
Step f_2 Temp v_Tdiff v_deltaT 
       0            0    602.14861            0            0 
  100000    680.16488    604.85209  0.017064704    198.11962 
  200000    1353.4325    604.56505  0.019727452    229.03388 
  300000    2035.8385    607.74189   0.01913411    222.14524 
  400000    2725.4144    604.68066  0.019404428    225.28361 
  500000    3414.5067    610.09464  0.018943272    219.92963 
  600000    4102.7357    610.33256  0.019152741    222.36154 
  700000    4791.9246    612.91139  0.018609909    216.05931 
  800000    5483.9364    616.29498  0.019013259    220.74217 
  900000    6176.9764    612.61394  0.018643799    216.45277 
 1000000    6871.9192    612.69343  0.018725095    217.39661 
Loop time of 6717.97 on 52 procs for 1000000 steps with 18000 atoms

Performance: 12.861 ns/day, 1.866 hours/ns, 148.855 timesteps/s
99.8% CPU use with 52 MPI tasks x 1 OpenMP threads

MPI task timing breakdown:
Section |  min time  |  avg time  |  max time  |%varavg| %total
---------------------------------------------------------------
Pair    | 4518.5     | 4592.1     | 4675.2     |  61.7 | 68.36
Bond    | 0.077157   | 0.11146    | 0.18616    |   6.7 |  0.00
Kspace  | 1293       | 1406.6     | 1518.5     | 145.6 | 20.94
Neigh   | 492.13     | 525.91     | 554.88     |  71.2 |  7.83
Comm    | 143.53     | 154.37     | 172.44     |  57.3 |  2.30
Output  | 0.0010275  | 0.0010924  | 0.002326   |   0.5 |  0.00
Modify  | 5.4034     | 5.9579     | 6.4898     |  12.0 |  0.09
Other   |            | 32.9       |            |       |  0.49

Nlocal:        346.154 ave         370 max         326 min
Histogram: 3 4 9 9 7 5 4 5 2 4
Nghost:        4162.62 ave        4264 max        4093 min
Histogram: 10 15 1 3 4 1 6 1 4 7
Neighs:        69927.8 ave       75154 max       65752 min
Histogram: 2 6 9 8 7 8 1 6 3 2

Total # of neighbors = 3636246
Ave neighs/atom = 202.01367
Ave special neighs/atom = 0.0000000
Neighbor list builds = 166604
Dangerous builds = 0
Total wall time: 2:03:17
