ITEM: TIMESTEP
80000
ITEM: NUMBER OF ATOMS
17820
ITEM: BOX BOUNDS pp pp pp
-3.5876680456647930e-01 2.7698766804567001e+01
-4.4973112643606461e+00 3.3257731126435567e+02
-3.6077342084291042e-01 2.7700773420842726e+01
ITEM: ATOMS id type q x y z
1 2 2.2208 5.25567 1.23075 5.16925
2 1 -1.1104 1.03758 -3.08971 0.97055
3 1 -1.1104 1.01107 2.54276 0.944108
6 1 -1.1104 1.12224 -3.19049 3.72761
7 1 -1.1104 0.942194 2.46382 3.82929
10 1 -1.1104 1.16639 -0.201415 0.753733
12 2 2.2208 5.3485 -1.7355 2.51472
13 2 2.2208 5.18655 4.03852 2.2675
14 1 -1.1104 1.10211 -0.234408 3.77329
16 1 -1.1104 3.95627 -3.27874 0.995834
17 1 -1.1104 3.74621 2.4333 1.07055
18 2 2.2208 2.51164 1.05832 2.32149
19 1 -1.1104 3.82073 -3.32056 3.86804
20 1 -1.1104 3.76922 2.39964 3.99032
21 2 2.2208 2.58514 -1.76609 5.14048
22 2 2.2208 2.49964 3.94973 5.19905
23 1 -1.1104 3.9146 -0.525976 1.0108
24 1 -1.1104 3.94751 -0.435522 3.79203
25 2 2.2208 5.22515 6.94016 5.24348
30 1 -1.1104 0.965577 5.48048 0.941785
32 1 -1.1104 0.908595 5.11603 3.82289
34 1 -1.1104 3.77298 8.02391 1.00311
35 2 2.2208 2.30812 6.72615 2.32146
36 1 -1.1104 3.64117 8.00222 3.69645
37 1 -1.1104 3.75559 5.29535 0.794762
38 1 -1.1104 3.81563 5.34201 3.76952
28 1 -1.1104 0.764842 7.95306 3.72291
4 1 -1.1104 6.76384 -3.08515 1.08555
5 1 -1.1104 6.62494 2.42067 0.904006
9 1 -1.1104 6.5535 2.57555 3.61958
11 1 -1.1104 6.58434 -0.376523 0.959046
87 1 -1.1104 3.95231 2.56349 6.69243
86 1 -1.1104 3.93055 -3.14671 6.63141
82 1 -1.1104 6.64405 -3.0863 6.65513
83 1 -1.1104 6.70303 2.5906 6.58794
15 1 -1.1104 6.63655 -0.395699 3.86618
92 1 -1.1104 6.68566 5.25622 6.67911
8 1 -1.1104 6.67013 -3.20325 3.81917
85 1 -1.1104 6.7429 -0.346147 6.5134
31 1 -1.1104 6.52241 5.39825 0.877984
27 1 -1.1104 6.77609 8.08612 0.941579
90 1 -1.1104 6.59243 8.23026 6.64294
8977 2 2.2208 -0.309162 6.72888 10.6829
177 2 2.2208 2.50336 3.85144 -0.351421
78 2 2.2208 13.708 3.90501 10.7217
75 1 -1.1104 12.2545 5.23434 9.26445
93 1 -1.1104 3.74565 8.33271 6.57617
91 1 -1.1104 1.12202 5.32272 6.518
80 1 -1.1104 1.09494 -3.28438 6.52705
9028 2 2.2208 13.7827 -4.43493 13.5913
33 1 -1.1104 6.63583 5.38583 3.71289
29 1 -1.1104 6.69919 8.18963 3.77256
71 1 -1.1104 9.5946 8.12133 3.66376
46 2 2.2208 10.9689 1.02967 5.04234
47 1 -1.1104 12.2099 -3.40121 0.884304
48 1 -1.1104 12.2876 2.49227 0.926588
49 1 -1.1104 12.2292 -3.13991 3.74394
50 1 -1.1104 12.3832 2.4996 3.74683
51 1 -1.1104 12.3741 -0.384361 1.06027
52 2 2.2208 10.7895 -1.75312 2.46767
53 2 2.2208 10.7979 3.75645 2.29596
54 1 -1.1104 12.3859 -0.306094 3.79405
55 1 -1.1104 9.53692 -3.11938 1.01994
56 1 -1.1104 9.34319 2.35896 1.0621
57 2 2.2208 7.97022 1.0216 2.3782
58 1 -1.1104 9.44714 -3.14827 3.7666
59 1 -1.1104 9.39725 2.45629 3.69496
60 2 2.2208 8.05621 -1.7123 5.22149
61 2 2.2208 8.10529 3.91782 5.14211
62 1 -1.1104 9.3816 -0.350184 0.962558
63 1 -1.1104 9.4371 -0.405188 3.83986
64 2 2.2208 10.8592 6.66925 5.13064
66 1 -1.1104 12.6008 8.00195 3.75755
67 1 -1.1104 12.0372 5.16626 0.727521
68 1 -1.1104 12.2565 5.0992 3.72908
69 1 -1.1104 9.62732 8.02172 0.842729
70 2 2.2208 8.13698 6.68891 2.28799
72 1 -1.1104 9.4352 5.20303 0.947813
73 1 -1.1104 9.4318 5.22229 3.74353
76 2 2.2208 13.5801 6.47312 2.28591
65 1 -1.1104 12.6197 7.99714 0.806974
8965 2 2.2208 13.7719 1.06768 2.27506
171 2 2.2208 10.8969 6.63277 10.7119
143 1 -1.1104 9.584 2.556 6.53888
142 1 -1.1104 9.38398 -3.22686 6.5681
147 1 -1.1104 9.38614 8.00111 6.44448
144 1 -1.1104 9.40649 -0.313915 6.57476
139 1 -1.1104 12.2668 -3.1826 6.62615
146 1 -1.1104 12.2826 5.34174 6.60622
141 1 -1.1104 12.3075 -0.367055 6.56069
145 1 -1.1104 12.1745 8.05318 6.6018
167 2 2.2208 8.11505 -1.79006 10.7008
170 1 -1.1104 9.51295 -0.381534 9.46228
140 1 -1.1104 12.3714 2.51017 6.58272
41 2 2.2208 10.9693 -4.61291 10.7394
88 1 -1.1104 3.78252 -0.216582 6.47596
84 1 -1.1104 0.889359 -0.425593 6.52817
89 1 -1.1104 0.95645 8.10238 6.51405
153 2 2.2208 10.8894 1.03954 10.6381
81 1 -1.1104 1.03694 2.45313 6.60087
94 1 -1.1104 3.93499 5.40012 6.58567
155 1 -1.1104 12.2592 2.47795 12.1061
98 1 -1.1104 6.81011 -3.32878 12.1992
95 2 2.2208 5.24174 1.13835 10.7398
96 1 -1.1104 1.1925 -3.17042 12.2686
97 1 -1.1104 0.999673 2.34874 12.391
100 1 -1.1104 1.19376 -3.08567 9.26139
101 1 -1.1104 1.05557 2.63736 9.56441
104 1 -1.1104 1.09487 -0.284999 12.1352
106 2 2.2208 5.30792 -1.77225 7.98327
107 2 2.2208 5.35871 3.95029 8.10339
108 1 -1.1104 1.05474 -0.207498 9.21445
110 1 -1.1104 4.15782 -3.1702 12.0714
111 1 -1.1104 3.94516 2.44651 12.2018
112 2 2.2208 2.49663 1.08565 7.87121
113 1 -1.1104 3.97166 -3.08622 9.39613
114 1 -1.1104 3.9018 2.49799 9.37848
115 2 2.2208 2.57744 -1.65921 10.7424
116 2 2.2208 2.44775 3.89007 10.8327
117 1 -1.1104 3.97431 -0.509352 12.1407
118 1 -1.1104 3.90033 -0.20526 9.33896
119 2 2.2208 5.36397 6.68074 10.7783
120 1 -1.1104 1.06514 8.04278 12.1596
122 1 -1.1104 1.09762 8.10303 9.28064
124 1 -1.1104 1.16938 5.26779 12.064
126 1 -1.1104 1.10305 5.32462 9.29263
128 1 -1.1104 3.85601 8.10166 12.0374
129 2 2.2208 2.43513 6.82101 7.99925
130 1 -1.1104 3.7829 8.08627 9.36105
131 1 -1.1104 3.92799 5.34003 12.1766
132 1 -1.1104 3.98777 5.37486 9.38045
123 1 -1.1104 6.67428 8.10798 9.38401
109 1 -1.1104 6.57775 -0.383855 9.2835
125 1 -1.1104 6.68194 5.24068 12.2246
121 1 -1.1104 6.61448 8.15169 12.2294
99 1 -1.1104 6.59903 2.45136 12.2739
102 1 -1.1104 6.7552 -3.27832 9.37133
105 1 -1.1104 6.65673 -0.429605 12.1551
174 2 2.2208 5.27389 4.04037 13.5641
284 2 2.2208 8.13865 -4.59472 13.6476
149 1 -1.1104 9.43222 5.2694 6.53066
103 1 -1.1104 6.76467 2.47959 9.40081
127 1 -1.1104 6.72501 5.24708 9.43183
165 1 -1.1104 9.52027 -3.21347 9.40546
135 1 -1.1104 12.3532 8.17881 12.1784
169 1 -1.1104 9.39309 -0.435273 12.2035
79 1 -1.1104 12.3345 5.1857 12.0732
162 1 -1.1104 9.38504 -3.35724 12.1297
154 1 -1.1104 12.2629 -3.14581 12.2389
164 2 2.2208 8.07805 1.10279 7.9871
74 1 -1.1104 9.66123 8.12928 12.024
159 2 2.2208 10.8559 -1.80768 7.97274
163 1 -1.1104 9.37681 2.32437 12.0361
161 1 -1.1104 12.3105 -0.495268 9.14956
158 1 -1.1104 12.2291 -0.204065 11.9563
152 2 2.2208 8.07534 6.71816 7.86137
290 2 2.2208 10.8652 3.78478 13.5336
151 1 -1.1104 9.61357 8.16779 9.298
9011 2 2.2208 13.6838 -1.7451 10.8213
156 1 -1.1104 12.2728 -3.3043 9.40461
176 2 2.2208 13.6412 6.77458 13.4768
26 2 2.2208 13.7172 6.64895 7.99061
133 1 -1.1104 12.3531 8.03367 9.42741
175 2 2.2208 8.04768 6.63124 13.5859
288 2 2.2208 7.92944 1.0583 13.5168
150 1 -1.1104 9.38944 5.21115 12.1774
166 1 -1.1104 9.46837 2.46801 9.23177
157 1 -1.1104 12.2269 2.3993 9.25218
168 2 2.2208 8.18221 3.84715 10.772
148 1 -1.1104 9.55394 5.25575 9.28373
160 2 2.2208 10.8634 3.92292 7.96311
9009 2 2.2208 -0.486463 3.91392 2.4226
40 2 2.2208 -0.252253 -1.47063 2.39167
9007 2 2.2208 -0.447276 6.61123 5.12762
8843 2 2.2208 2.51779 -4.47882 13.5798
9010 2 2.2208 -0.327951 -4.49196 5.14243
137 2 2.2208 5.35188 -4.56879 10.8524
8655 2 2.2208 2.55607 -4.59733 7.89201
173 2 2.2208 2.42795 6.69536 13.5709
241 2 2.2208 2.41595 0.988517 13.6402
289 2 2.2208 10.8574 -1.70291 13.5468
330 2 2.2208 2.60846 -1.89146 -0.334063
179 2 2.2208 5.18048 1.02394 16.3072
180 1 -1.1104 0.999749 -3.22632 17.9778
181 1 -1.1104 1.09343 2.67608 17.9034
184 1 -1.1104 1.0274 -3.08952 15.0398
186 1 -1.1104 0.956276 2.53019 15.132
192 1 -1.1104 0.865394 -0.368135 17.8174
194 2 2.2208 5.23411 -1.67371 19.2605
195 2 2.2208 5.27245 3.95932 19.2051
196 1 -1.1104 1.03849 -0.170612 15.1158
200 1 -1.1104 3.79215 -3.11107 17.8949
201 1 -1.1104 3.9079 2.59729 17.7794
202 2 2.2208 2.43046 1.17209 19.2123
203 1 -1.1104 3.83673 -3.26801 15.103
205 1 -1.1104 3.75225 2.47837 14.9763
207 2 2.2208 2.37944 -1.82562 16.5414
208 2 2.2208 2.45867 3.92595 16.3649
209 1 -1.1104 3.81588 -0.34933 17.7916
210 1 -1.1104 3.83195 -0.533145 15.1039
212 2 2.2208 5.35346 6.73299 16.3998
213 1 -1.1104 1.16255 8.00347 17.6904
215 1 -1.1104 1.06894 7.94131 14.9888
219 1 -1.1104 1.06515 5.31928 17.8551
221 1 -1.1104 1.05064 5.16774 15.0229
225 1 -1.1104 4.02675 8.25694 17.6382
226 2 2.2208 2.59185 6.75721 19.279
229 1 -1.1104 3.76973 5.34958 17.8765
230 1 -1.1104 3.84058 5.40666 14.9279
227 1 -1.1104 3.82985 8.04052 14.848
228 1 -1.1104 3.90797 8.2314 20.4948
182 1 -1.1104 6.63045 -3.04887 17.9083
189 1 -1.1104 6.82837 -3.11585 20.5947
185 1 -1.1104 1.12289 -3.0882 20.6711
206 1 -1.1104 3.96104 2.47849 20.6865
187 1 -1.1104 1.01562 2.49285 20.631
211 1 -1.1104 3.75074 -0.276731 20.7171
231 1 -1.1104 4.05606 5.25944 20.5881
214 1 -1.1104 6.85369 8.16425 17.597
223 1 -1.1104 6.55895 5.31871 15.0012
198 1 -1.1104 6.54097 -0.251087 14.8849
217 1 -1.1104 6.70979 8.17104 14.9738
197 1 -1.1104 1.04043 -0.254918 20.482
188 1 -1.1104 6.66147 -3.19855 15.2182
218 1 -1.1104 6.81643 8.14214 20.401
193 1 -1.1104 6.48015 -0.299719 17.76
190 1 -1.1104 6.55879 2.61872 15.0369
224 1 -1.1104 6.72194 5.31398 20.7351
333 2 2.2208 13.6501 -1.77653 27.4944
8761 2 2.2208 8.18147 -4.47797 24.8382
220 1 -1.1104 6.64381 5.39544 17.7847
204 1 -1.1104 4.00512 -3.11588 20.5933
199 1 -1.1104 6.54223 -0.135442 20.6025
8760 2 2.2208 10.922 -4.57224 22.0554
183 1 -1.1104 6.71529 2.51186 17.7832
283 2 2.2208 13.8202 6.66235 19.245
9078 2 2.2208 13.695 1.13016 19.1142
243 2 2.2208 10.7661 1.0572 16.2731
244 1 -1.1104 12.2391 -2.92218 17.9349
245 1 -1.1104 12.2996 2.40671 17.5762
246 1 -1.1104 12.2182 -3.31107 15.0816
248 1 -1.1104 12.3 2.35145 14.8525
250 1 -1.1104 12.3133 -0.213507 17.7113
251 2 2.2208 10.8221 -1.64579 19.1493
252 2 2.2208 10.8312 3.85978 19.1907
253 1 -1.1104 12.2515 -0.364124 14.9408
255 1 -1.1104 9.41099 -2.99031 17.7603
256 1 -1.1104 9.4578 2.4512 17.6749
257 2 2.2208 8.00939 1.10819 19.1186
258 1 -1.1104 9.54157 -3.13863 14.9644
260 1 -1.1104 9.34101 2.47705 14.8135
262 2 2.2208 7.88736 -1.66811 16.375
263 2 2.2208 8.05886 3.81843 16.3273
264 1 -1.1104 9.28448 -0.366916 17.8215
265 1 -1.1104 9.38894 -0.307722 15.0263
267 2 2.2208 10.9652 6.65027 16.2881
268 1 -1.1104 12.5776 7.90839 17.7424
269 1 -1.1104 12.2769 8.02295 14.8658
271 1 -1.1104 12.3474 5.14711 17.7785
272 1 -1.1104 12.1829 5.03515 14.8452
274 1 -1.1104 9.73081 7.9752 17.8485
275 2 2.2208 8.12226 6.76995 19.109
276 1 -1.1104 9.47951 8.18656 14.8512
278 1 -1.1104 9.54183 5.35032 17.6875
279 1 -1.1104 9.37268 5.36838 14.9555
261 1 -1.1104 9.35949 2.44506 20.5241
281 2 2.2208 13.5846 3.89303 16.339
280 1 -1.1104 9.44457 5.09923 20.7146
249 1 -1.1104 12.2255 2.66578 20.5407
273 1 -1.1104 12.2901 5.50197 20.628
254 1 -1.1104 12.1386 -0.0776381 20.3282
266 1 -1.1104 9.46837 -0.472569 20.6647
277 1 -1.1104 9.57416 8.0777 20.4753
235 2 2.2208 -0.374203 1.22509 16.5172
247 1 -1.1104 12.3574 -3.17965 20.7181
337 2 2.2208 2.55906 -4.55852 24.8363
216 1 -1.1104 0.97564 8.01508 20.8084
191 1 -1.1104 6.65602 2.67995 20.4784
9183 2 2.2208 13.7253 -1.52197 16.3581
339 1 -1.1104 9.49359 8.11724 23.1699
222 1 -1.1104 1.17147 5.32045 20.8197
301 1 -1.1104 6.72493 -0.399674 23.4132
291 2 2.2208 5.26988 1.0335 22.0808
292 1 -1.1104 1.02815 -3.14594 23.5892
293 1 -1.1104 0.972686 2.546 23.4914
296 1 -1.1104 1.12728 -2.97068 26.2769
297 1 -1.1104 0.99431 2.9607 26.2448
300 1 -1.1104 1.08509 -0.24196 23.2098
302 2 2.2208 5.35167 -1.88612 24.7831
303 2 2.2208 5.21849 3.84731 24.7685
304 1 -1.1104 0.846771 -0.0885223 26.0647
306 1 -1.1104 3.79803 -3.05999 23.3237
307 1 -1.1104 3.81771 2.4294 23.4486
308 2 2.2208 2.5098 1.03805 24.7401
309 1 -1.1104 4.0455 -3.26602 26.133
310 1 -1.1104 3.76417 2.30971 26.3261
311 2 2.2208 2.49851 -1.71551 21.9674
312 2 2.2208 2.48374 3.85109 21.9499
313 1 -1.1104 4.02293 -0.354161 23.4908
314 1 -1.1104 3.70347 -0.546995 26.1345
315 2 2.2208 5.46997 6.75554 21.8738
320 1 -1.1104 0.933629 5.41355 23.6416
322 1 -1.1104 0.969284 7.56176 26.2078
324 1 -1.1104 4.00169 8.07462 23.1755
325 2 2.2208 2.59158 6.90821 24.5851
326 1 -1.1104 3.82152 8.18544 26.0609
327 1 -1.1104 3.84639 5.20786 23.4255
328 1 -1.1104 3.40501 5.20192 26.1513
323 1 -1.1104 6.43372 5.26873 26.3396
294 1 -1.1104 6.68318 -3.2685 23.4561
295 1 -1.1104 6.61436 2.37428 23.3693
329 2 2.2208 5.27876 1.08844 27.6323
8845 2 2.2208 8.14086 -4.58337 19.2754
178 2 2.2208 5.1291 6.80737 27.4645
321 1 -1.1104 6.67607 5.35919 23.4468
317 1 -1.1104 6.73661 8.17902 23.2568
299 1 -1.1104 6.63747 2.49496 26.2346
298 1 -1.1104 6.80632 -3.08503 26.2029
319 1 -1.1104 6.51344 8.08158 26.1438
242 2 2.2208 10.9062 6.70877 21.9288
335 2 2.2208 7.97974 3.95132 27.5309
270 1 -1.1104 12.2529 8.25592 20.5814
259 1 -1.1104 9.59331 -3.1361 20.5218
340 1 -1.1104 12.2162 5.2017 26.0159
356 1 -1.1104 9.5117 -3.03057 23.4489
305 1 -1.1104 6.55614 -0.177325 26.1843
346 2 2.2208 8.02204 6.78367 24.7966
360 1 -1.1104 9.39402 2.31825 26.2327
285 2 2.2208 13.6724 1.09359 24.6891
332 2 2.2208 8.1114 -1.73946 21.9782
287 1 -1.1104 9.34028 -0.407731 26.305
355 1 -1.1104 12.0721 -0.470615 26.3221
237 1 -1.1104 12.3095 7.98526 26.1474
344 1 -1.1104 9.5248 5.43943 23.4528
233 2 2.2208 13.5917 3.97772 21.9044
343 1 -1.1104 9.40117 5.25684 26.2637
232 2 2.2208 13.6509 3.95297 27.3962
236 2 2.2208 13.6462 6.65029 24.7388
334 2 2.2208 10.859 6.66466 27.506
331 2 2.2208 7.99761 3.87448 21.9474
358 2 2.2208 7.99561 1.02617 24.9388
359 1 -1.1104 9.60433 -3.03715 26.2865
353 2 2.2208 10.7353 -1.70704 24.7542
240 1 -1.1104 12.2826 8.08937 23.2932
286 2 2.2208 13.7601 -1.72411 21.9548
336 2 2.2208 8.06712 -1.70283 27.7688
350 1 -1.1104 12.4256 -3.23008 26.1385
357 1 -1.1104 9.26614 2.57818 23.3455
318 1 -1.1104 9.44666 -0.256938 23.5209
354 2 2.2208 10.8104 3.90349 24.5183
351 1 -1.1104 12.3617 2.45863 26.16
349 1 -1.1104 12.2054 2.42549 23.2802
348 1 -1.1104 12.221 -3.27316 23.4049
342 1 -1.1104 12.2941 5.18723 23.2478
345 1 -1.1104 9.45004 8.02424 26.1199
352 1 -1.1104 12.2325 -0.364769 23.1208
347 2 2.2208 10.7435 1.0367 21.9478
8841 2 2.2208 5.38266 -4.65714 16.5549
338 2 2.2208 10.8777 1.13949 27.7958
239 2 2.2208 5.24657 -1.84593 13.6555
361 2 2.2208 5.38662 12.3365 5.14987
363 1 -1.1104 0.924422 10.8367 3.79328
366 2 2.2208 5.07444 9.47189 2.40735
368 2 2.2208 2.32875 9.62099 5.18084
369 1 -1.1104 3.86797 10.6741 0.888617
371 1 -1.1104 4.12335 10.7067 4.18736
372 2 2.2208 5.20046 17.9488 5.14093
373 1 -1.1104 0.773328 13.6116 1.00034
375 1 -1.1104 1.12454 19.4512 1.12314
380 1 -1.1104 1.0445 19.2046 3.76738
382 1 -1.1104 0.795293 16.5645 1.33203
385 2 2.2208 5.12738 15.1942 2.41501
386 2 2.2208 5.29439 20.654 2.3924
389 1 -1.1104 4.053 14.024 0.353819
391 1 -1.1104 3.93549 19.4473 0.822355
393 2 2.2208 2.53458 18.0577 2.40149
394 1 -1.1104 4.15061 13.7802 3.93786
395 1 -1.1104 3.78579 19.3573 3.76246
397 2 2.2208 2.3168 20.8121 5.22577
398 1 -1.1104 3.55381 16.5937 0.932503
400 1 -1.1104 3.56803 16.6965 3.82013
388 1 -1.1104 6.61268 16.4875 3.83703
376 1 -1.1104 6.76032 13.713 1.13025
414 1 -1.1104 6.52235 16.5068 1.07766
413 1 -1.1104 6.60777 19.1281 3.73919
412 1 -1.1104 6.68128 19.2531 0.858525
457 1 -1.1104 0.778098 19.4186 6.82031
392 1 -1.1104 3.68688 19.389 6.45985
364 1 -1.1104 6.53864 10.7838 1.02556
378 1 -1.1104 6.44512 19.3927 6.56236
374 1 -1.1104 1.02184 13.6251 6.87995
518 2 2.2208 2.30792 15.1309 -0.420129
367 1 -1.1104 6.79969 11.0226 3.8079
384 1 -1.1104 6.80439 16.4091 6.57097
381 1 -1.1104 6.99687 13.7108 3.73878
499 2 2.2208 13.7088 20.7821 5.09983
402 2 2.2208 10.9164 12.3553 5.11264
403 1 -1.1104 12.2535 10.8033 0.873724
405 2 2.2208 10.9749 9.54526 2.3311
406 1 -1.1104 12.2271 10.858 3.66473
407 2 2.2208 8.15267 12.3439 2.3857
408 2 2.2208 8.09008 9.54252 5.15808
409 1 -1.1104 9.50161 10.8604 0.97498
411 1 -1.1104 9.52191 10.8443 3.68023
415 2 2.2208 10.7546 17.9371 5.31913
416 1 -1.1104 12.2939 13.462 0.93182
418 1 -1.1104 12.4553 19.2808 0.851627
420 1 -1.1104 12.327 13.6087 3.64704
421 1 -1.1104 12.2876 19.426 3.75894
422 1 -1.1104 12.2707 16.4871 0.918434
424 2 2.2208 10.9521 15.0439 2.25608
425 2 2.2208 10.9741 20.7138 2.31739
426 1 -1.1104 12.1335 16.6228 3.70352
427 1 -1.1104 9.57281 13.6719 0.901444
429 1 -1.1104 9.53472 19.4468 1.00983
431 2 2.2208 8.09874 17.8425 2.4002
432 1 -1.1104 9.60934 13.757 3.85358
433 1 -1.1104 9.32121 19.2912 3.82936
434 2 2.2208 8.11402 15.1221 5.16841
435 2 2.2208 8.09637 20.8028 5.04423
436 1 -1.1104 9.54857 16.6137 1.03755
438 1 -1.1104 9.45295 16.425 3.95967
500 2 2.2208 13.5671 9.57725 5.225
437 1 -1.1104 9.49374 16.6 6.63132
501 2 2.2208 13.7494 15.2021 5.20411
9343 2 2.2208 13.7361 12.2191 2.33838
439 2 2.2208 13.6447 17.8797 2.32785
410 1 -1.1104 9.62456 10.9284 6.62686
423 1 -1.1104 12.3546 16.4495 6.52046
506 1 -1.1104 0.870885 8.41891 0.857594
515 2 2.2208 8.00646 17.9855 13.5246
383 1 -1.1104 0.92293 16.7144 6.72214
365 1 -1.1104 6.62596 10.8234 6.60304
390 1 -1.1104 3.87388 11.2609 6.68925
399 1 -1.1104 4.0676 16.6485 6.78772
370 1 -1.1104 1.05529 10.8383 6.72337
377 1 -1.1104 6.56549 13.6409 6.6961
488 1 -1.1104 12.2979 16.5559 9.39798
441 1 -1.1104 3.77855 19.2727 12.0518
442 1 -1.1104 3.7932 13.6232 12.1216
446 1 -1.1104 1.03153 19.4477 9.42523
447 1 -1.1104 0.908199 16.411 9.48311
448 2 2.2208 5.27784 20.8011 8.10544
449 1 -1.1104 1.18504 13.67 9.57066
450 2 2.2208 5.31598 15.309 8.01866
453 1 -1.1104 1.10558 19.2172 12.0797
454 1 -1.1104 1.03404 13.7287 12.3124
455 2 2.2208 5.3394 17.9105 10.8816
456 1 -1.1104 4.05248 19.249 9.40351
458 2 2.2208 2.40611 17.8982 8.14973
459 1 -1.1104 3.80839 16.5218 9.48232
460 1 -1.1104 3.80941 13.8325 9.15344
462 1 -1.1104 1.11799 16.533 12.2656
463 1 -1.1104 3.98765 16.4302 12.2123
464 2 2.2208 2.53616 20.7255 10.6686
465 2 2.2208 5.37234 12.4655 10.7476
466 1 -1.1104 1.11551 10.8704 12.3544
468 2 2.2208 2.47028 15.1 10.8642
469 2 2.2208 5.13469 9.64968 7.88449
470 1 -1.1104 1.09079 10.876 9.45699
472 2 2.2208 2.47127 12.3431 8.02673
473 2 2.2208 2.54371 9.556 10.8096
474 1 -1.1104 4.01105 10.8645 12.0672
475 1 -1.1104 3.81453 10.9585 9.295
467 1 -1.1104 6.84375 10.9334 12.044
461 1 -1.1104 6.77036 16.5363 12.0823
508 2 2.2208 5.38859 9.44655 13.5854
443 1 -1.1104 6.67768 19.477 9.42364
575 2 2.2208 2.56773 17.866 13.5809
573 2 2.2208 5.4108 15.1624 13.6038
445 1 -1.1104 6.5953 13.9089 9.45129
444 1 -1.1104 6.77447 16.682 9.37371
452 1 -1.1104 6.66209 13.9052 12.2316
451 1 -1.1104 6.71275 19.4684 12.1021
471 1 -1.1104 6.70363 10.982 9.3693
404 1 -1.1104 12.3398 10.9743 6.57615
417 1 -1.1104 12.2041 13.6244 6.53953
419 1 -1.1104 12.1785 19.308 6.64685
430 1 -1.1104 9.2901 19.3557 6.52693
387 1 -1.1104 12.1849 10.898 11.9766
498 2 2.2208 8.11929 9.56929 10.6994
480 1 -1.1104 9.47742 16.6456 12.1503
428 1 -1.1104 9.3743 13.6951 6.547
396 2 2.2208 10.9328 12.2985 10.6667
504 2 2.2208 13.6592 9.52325 10.6769
494 1 -1.1104 12.287 16.6816 12.1258
517 2 2.2208 10.9296 15.2445 13.4327
521 2 2.2208 13.7745 12.4332 13.5004
484 1 -1.1104 9.4857 13.8627 9.36337
503 2 2.2208 13.6434 12.3929 8.0363
512 2 2.2208 10.8142 9.68865 13.4158
379 2 2.2208 10.9246 9.57417 7.9451
491 2 2.2208 8.07548 12.3057 7.93079
509 2 2.2208 8.11249 12.4342 13.3865
9345 2 2.2208 13.6647 18.0349 8.04329
440 1 -1.1104 12.1969 13.7484 12.0427
493 2 2.2208 10.8901 15.26 7.93406
489 2 2.2208 10.7876 20.7757 7.94613
481 2 2.2208 8.10797 20.8227 10.7552
490 2 2.2208 13.6519 15.2337 10.8751
497 1 -1.1104 12.2297 13.8047 9.35842
401 2 2.2208 10.7127 18.0095 10.7264
502 2 2.2208 13.7313 20.8102 10.8925
476 1 -1.1104 12.3474 19.4918 12.2164
487 1 -1.1104 9.53714 13.8579 12.1178
483 1 -1.1104 9.48377 19.4269 9.23555
486 1 -1.1104 9.43964 19.3475 12.2319
479 1 -1.1104 9.31764 16.6707 9.39445
495 1 -1.1104 9.56773 11.0345 12.0888
362 1 -1.1104 12.3051 10.9714 9.3521
496 1 -1.1104 12.2273 19.4498 9.40943
492 1 -1.1104 9.39125 11.0485 9.3249
482 2 2.2208 8.23744 15.1171 10.7092
485 2 2.2208 7.94521 18.0938 7.91187
507 2 2.2208 5.33023 20.7379 13.4688
514 2 2.2208 13.7252 18.0118 13.637
520 2 2.2208 5.37398 12.2435 -0.224792
523 2 2.2208 10.7778 12.3166 -0.567899
525 2 2.2208 10.8143 18.0835 -0.378622
527 2 2.2208 5.27833 12.2739 16.415
528 1 -1.1104 0.982185 10.9484 17.9106
530 2 2.2208 5.30172 9.58697 19.0424
531 1 -1.1104 1.04779 10.8542 15.064
535 2 2.2208 2.55216 12.4552 19.19
536 2 2.2208 2.50349 9.48224 16.3407
537 1 -1.1104 3.79271 10.9995 17.7197
538 1 -1.1104 3.88037 10.9485 14.9762
540 2 2.2208 5.34697 17.9798 16.3267
541 1 -1.1104 1.11292 13.8186 17.6761
542 1 -1.1104 1.15731 19.5337 17.7497
545 1 -1.1104 1.21579 13.5927 14.9395
547 1 -1.1104 1.23738 19.1742 14.984
553 1 -1.1104 1.08767 16.6788 17.8628
555 2 2.2208 5.21656 15.1257 19.0795
556 2 2.2208 5.38628 20.8246 19.3207
557 1 -1.1104 1.04771 16.5957 15.0195
561 1 -1.1104 3.97276 13.704 17.8362
562 1 -1.1104 4.02715 19.2192 17.7634
563 2 2.2208 2.41701 18.0753 19.1188
564 1 -1.1104 3.9463 13.8641 14.9077
566 1 -1.1104 3.91813 19.3179 14.9517
568 2 2.2208 2.47397 15.1801 16.2567
569 2 2.2208 2.5277 20.787 16.4074
570 1 -1.1104 3.91717 16.4136 17.5611
571 1 -1.1104 3.97259 16.6593 14.9086
544 1 -1.1104 6.81105 19.2794 17.8108
549 1 -1.1104 6.84722 13.841 14.8752
546 1 -1.1104 1.08963 13.8331 20.3415
559 1 -1.1104 6.71192 16.6613 14.9727
551 1 -1.1104 6.7161 19.5464 14.9607
554 1 -1.1104 6.65775 16.5334 17.7495
539 1 -1.1104 3.92329 11.0733 20.4387
550 1 -1.1104 6.71264 13.7043 20.3981
567 1 -1.1104 3.92644 19.4529 20.5016
572 1 -1.1104 3.85226 16.5155 20.4134
560 1 -1.1104 6.68032 16.5063 20.4336
534 1 -1.1104 6.70014 10.9432 20.4996
533 1 -1.1104 6.68 10.984 14.7711
543 1 -1.1104 6.90782 13.6119 17.787
548 1 -1.1104 1.21938 19.5227 20.4748
552 1 -1.1104 6.66416 19.3043 20.6984
316 1 -1.1104 1.25883 8.69038 23.6132
529 1 -1.1104 6.71741 10.837 17.6341
608 1 -1.1104 9.29221 19.3978 20.5931
580 2 2.2208 11.0363 12.5435 16.383
581 1 -1.1104 12.3048 10.8784 17.6899
582 2 2.2208 10.9249 9.56276 19.1465
583 1 -1.1104 12.3517 10.9932 14.9304
585 2 2.2208 8.20619 12.3094 19.144
586 2 2.2208 8.17019 9.60321 16.2353
587 1 -1.1104 9.55135 10.9922 17.777
588 1 -1.1104 9.56016 10.9695 14.9373
590 2 2.2208 10.7415 18.0376 16.3481
591 1 -1.1104 12.3768 13.8602 17.7424
592 1 -1.1104 12.2677 19.4851 17.655
593 1 -1.1104 12.4046 13.8336 14.7559
595 1 -1.1104 12.2912 19.4618 14.9355
597 1 -1.1104 12.3761 16.6029 17.7019
598 2 2.2208 10.9279 15.2798 19.1608
599 2 2.2208 10.7133 20.8006 19.1645
600 1 -1.1104 12.1979 16.6613 15.0106
602 1 -1.1104 9.67119 13.9632 17.6723
603 1 -1.1104 9.5868 19.4049 17.7503
604 2 2.2208 7.93734 18.0267 19.2302
605 1 -1.1104 9.55786 13.7568 14.8382
607 1 -1.1104 9.43983 19.5581 14.9307
609 2 2.2208 8.10192 15.2192 16.4011
610 2 2.2208 8.17008 20.7838 16.4246
611 1 -1.1104 9.41534 16.7253 17.875
612 1 -1.1104 9.54922 16.6706 14.8823
617 2 2.2208 13.6193 18.1335 19.0094
616 2 2.2208 13.633 20.8624 16.2625
613 1 -1.1104 9.40026 16.6395 20.7064
606 1 -1.1104 9.624 13.6188 20.3535
589 1 -1.1104 9.51647 10.8471 20.5347
648 2 2.2208 13.752 15.1995 16.3542
596 1 -1.1104 12.0526 19.2979 20.5327
584 1 -1.1104 12.3064 11.0683 20.4761
594 1 -1.1104 12.2894 13.7867 20.5241
601 1 -1.1104 12.8348 16.5774 20.383
614 2 2.2208 -0.319042 12.3612 16.3731
558 1 -1.1104 1.02633 16.7397 20.4936
532 1 -1.1104 1.03142 10.8916 20.9652
565 1 -1.1104 3.90345 13.8046 20.7641
618 1 -1.1104 3.76966 19.1844 23.4437
621 1 -1.1104 1.04095 19.4052 26.21
622 1 -1.1104 0.874149 16.7106 26.4179
623 1 -1.1104 0.973243 13.7746 26.3047
625 2 2.2208 5.3185 20.7407 24.8792
627 1 -1.1104 0.908256 19.3085 23.3382
628 1 -1.1104 1.12328 13.7101 23.1551
629 2 2.2208 5.2821 17.8853 22.073
630 1 -1.1104 3.98457 19.2645 26.2034
631 2 2.2208 2.45061 17.9078 24.8635
632 1 -1.1104 3.73727 16.4 26.1503
634 1 -1.1104 0.895304 16.6113 23.3627
635 1 -1.1104 3.63425 16.5642 23.1514
636 2 2.2208 2.50403 20.7242 22.0083
637 2 2.2208 5.30408 12.2124 21.9111
639 2 2.2208 2.3421 15.3807 21.7898
640 2 2.2208 5.31393 9.68264 24.8357
642 2 2.2208 2.54137 9.53205 21.9283
643 1 -1.1104 4.05288 10.8973 23.2423
644 1 -1.1104 4.008 10.8772 26.3715
576 1 -1.1104 0.868746 10.3654 26.6244
624 1 -1.1104 6.72169 19.4391 23.4736
641 1 -1.1104 6.69776 10.7477 26.2546
646 2 2.2208 5.15746 17.7902 27.5896
663 1 -1.1104 6.70831 19.4295 26.1997
638 1 -1.1104 6.91589 10.9531 23.3611
645 2 2.2208 2.49683 20.8244 27.6801
519 2 2.2208 2.48171 9.44439 27.541
615 2 2.2208 13.7324 12.4529 19.2397
619 1 -1.1104 6.79937 13.428 26.5296
669 2 2.2208 10.8537 20.7587 24.7713
680 2 2.2208 10.8458 12.4073 21.8739
673 1 -1.1104 12.2337 13.6368 26.149
661 1 -1.1104 9.37388 19.4687 26.3126
633 1 -1.1104 6.95504 16.7186 23.1817
620 1 -1.1104 6.90248 16.5284 26.4205
626 1 -1.1104 6.56455 13.6096 23.1632
650 2 2.2208 13.6607 9.49854 27.3929
676 2 2.2208 7.87352 12.4357 24.8386
670 2 2.2208 10.919 15.171 24.7845
577 2 2.2208 13.6586 9.52075 21.8281
682 2 2.2208 10.7743 9.55277 24.6757
668 1 -1.1104 9.41951 10.9066 26.1445
649 2 2.2208 8.05189 20.7587 27.593
667 1 -1.1104 12.6178 16.4157 25.8835
656 2 2.2208 13.6864 20.6725 27.6179
647 2 2.2208 13.7331 9.49343 16.4361
664 2 2.2208 8.05413 17.9022 24.8776
657 1 -1.1104 9.67207 16.6456 26.2708
524 2 2.2208 8.09881 9.49263 27.6453
666 1 -1.1104 9.46175 13.8124 23.2615
660 2 2.2208 8.08662 15.0816 21.9858
9382 2 2.2208 13.8052 20.6302 21.9766
655 1 -1.1104 12.1641 10.8173 26.0267
671 1 -1.1104 12.1798 16.4309 23.1209
9399 2 2.2208 13.9952 18.0189 24.7577
659 2 2.2208 7.9472 20.8918 22.0877
654 2 2.2208 13.5601 12.2488 24.6073
662 1 -1.1104 9.45651 13.8271 26.0722
665 1 -1.1104 9.47899 19.5136 23.5057
675 2 2.2208 8.16469 9.55082 21.9507
674 1 -1.1104 9.49131 10.9348 23.3977
672 1 -1.1104 12.1338 19.4001 26.2502
678 1 -1.1104 12.1974 13.6521 23.3331
658 1 -1.1104 9.59579 16.5229 23.4576
677 1 -1.1104 12.4649 19.2521 23.4393
652 2 2.2208 13.7348 15.2087 22.075
681 1 -1.1104 12.3712 10.8268 23.0242
679 2 2.2208 10.7663 18.0471 21.9765
526 2 2.2208 13.6836 15.1232 27.5982
522 2 2.2208 8.11569 15.1094 27.6234
574 2 2.2208 2.49061 12.2349 13.6563
516 2 2.2208 10.8853 20.8569 13.6899
683 2 2.2208 5.20688 23.5221 5.12205
684 2 2.2208 5.25562 29.2667 5.27525
685 1 -1.1104 0.94554 25.0566 1.02722
686 1 -1.1104 1.0594 24.9384 3.93
687 1 -1.1104 1.15305 22.2222 1.05682
688 1 -1.1104 1.05717 27.7828 0.960129
689 2 2.2208 5.29555 26.3825 2.45288
690 1 -1.1104 0.998049 22.1763 3.93777
691 1 -1.1104 1.0887 27.6754 3.86026
692 1 -1.1104 3.83937 25.118 0.974364
693 2 2.2208 2.46098 23.5178 2.47848
694 2 2.2208 2.50336 29.2907 2.5072
695 1 -1.1104 3.83912 24.8704 3.75077
696 2 2.2208 2.42342 26.3768 5.11876
697 1 -1.1104 3.87782 22.2438 1.00668
698 1 -1.1104 3.90989 27.98 1.16984
699 1 -1.1104 3.88597 22.1236 3.83795
700 1 -1.1104 3.86706 27.8042 3.83739
701 1 -1.1104 1.123 30.5986 1.11644
702 1 -1.1104 1.0667 30.6233 3.99157
703 1 -1.1104 1.29247 33.5071 1.19809
704 2 2.2208 5.24921 31.9873 2.46798
705 1 -1.1104 1.14034 33.3909 3.93111
707 1 -1.1104 3.90472 30.656 1.01393
708 1 -1.1104 3.79082 30.5964 3.82296
709 2 2.2208 2.47383 31.9576 5.35484
710 1 -1.1104 3.91062 33.4591 1.06242
711 1 -1.1104 3.74236 33.3997 3.99801
717 1 -1.1104 6.4899 24.9023 3.71029
721 1 -1.1104 6.74586 27.8432 3.88045
720 1 -1.1104 6.59204 22.0713 3.73361
716 1 -1.1104 6.61717 24.9857 0.908746
740 1 -1.1104 6.78318 30.5081 1.03052
719 1 -1.1104 6.61902 27.689 1.04793
765 1 -1.1104 1.12193 30.5783 6.64175
706 1 -1.1104 6.67204 33.4014 3.98839
767 1 -1.1104 1.0009 33.5817 6.68108
718 1 -1.1104 6.73246 22.1526 1.00365
764 1 -1.1104 3.84115 27.9474 6.61338
763 1 -1.1104 3.96127 22.1017 6.71244
762 1 -1.1104 3.94723 25.0573 6.54051
759 1 -1.1104 1.05652 27.8079 6.61686
769 1 -1.1104 3.83773 30.6969 6.76017
761 1 -1.1104 6.65915 27.929 6.70204
742 1 -1.1104 6.60809 33.3975 1.28635
756 1 -1.1104 1.01754 25.05 6.62826
757 1 -1.1104 6.65103 24.9686 6.69386
770 1 -1.1104 3.96102 33.4282 6.75369
760 1 -1.1104 6.74348 22.1964 6.52082
768 1 -1.1104 6.70105 33.3137 6.65532
741 1 -1.1104 6.73393 30.6022 3.89911
766 1 -1.1104 6.58587 30.5528 6.65727
9542 2 2.2208 13.8177 32.1857 5.22734
9676 2 2.2208 13.6666 26.5154 5.16016
818 1 -1.1104 9.67671 33.5648 6.74875
753 2 2.2208 13.7173 23.5839 2.32253
722 2 2.2208 10.8464 23.5863 5.15803
723 2 2.2208 10.9355 29.3861 5.14224
724 1 -1.1104 12.4662 24.8603 0.87833
725 1 -1.1104 12.1201 25.0601 3.69365
726 1 -1.1104 12.5016 22.093 1.04458
727 1 -1.1104 12.3217 27.9152 0.926099
728 2 2.2208 10.7474 26.3133 2.44442
729 1 -1.1104 12.3512 22.1818 3.86727
730 1 -1.1104 12.3685 27.8351 3.63761
731 1 -1.1104 9.491 24.9752 1.00615
732 2 2.2208 7.99682 23.574 2.36721
733 2 2.2208 8.06282 29.1832 2.35696
734 1 -1.1104 9.29097 24.9967 3.92722
735 2 2.2208 7.96171 26.4498 5.30429
736 1 -1.1104 9.62005 22.1725 1.01006
737 1 -1.1104 9.43023 27.9013 0.817172
738 1 -1.1104 9.65205 22.1092 3.70204
739 1 -1.1104 9.5463 27.7437 3.72734
743 1 -1.1104 12.5259 30.7054 1.12402
744 1 -1.1104 12.3667 30.7681 3.86374
745 1 -1.1104 12.3 33.5581 0.988319
746 2 2.2208 10.9713 32.0956 2.34747
747 1 -1.1104 12.2622 33.4977 3.75664
748 1 -1.1104 9.61565 30.7825 1.01567
749 1 -1.1104 9.45257 30.49 3.84736
750 2 2.2208 8.13595 31.9495 5.23294
751 1 -1.1104 9.43795 33.5543 1.1121
752 1 -1.1104 9.47186 33.4245 3.81756
816 1 -1.1104 12.4406 33.5977 6.64838
811 1 -1.1104 12.299 28.0448 6.52886
817 1 -1.1104 9.40143 30.6576 6.69543
814 1 -1.1104 9.45377 27.8395 6.62367
809 1 -1.1104 12.3435 25.0513 6.53063
815 1 -1.1104 12.3779 30.8366 6.79233
812 1 -1.1104 9.51645 25.0846 6.62292
810 1 -1.1104 12.4461 22.1757 6.64388
813 1 -1.1104 9.61863 22.1805 6.56208
758 1 -1.1104 1.1214 22.3427 6.71749
848 2 2.2208 5.31477 26.3907 13.7994
915 2 2.2208 5.31714 31.9721 13.7761
771 2 2.2208 5.35959 23.6066 10.7664
772 2 2.2208 5.19084 29.3523 10.8517
773 1 -1.1104 1.08745 24.9422 12.328
775 1 -1.1104 1.12709 24.9529 9.37454
777 1 -1.1104 1.19621 22.1907 12.1506
778 1 -1.1104 1.10013 27.7463 12.1557
781 2 2.2208 5.2498 26.503 7.93696
782 1 -1.1104 1.08439 22.2865 9.35554
783 1 -1.1104 1.15914 27.7923 9.41486
786 1 -1.1104 4.00744 24.9444 12.2097
787 2 2.2208 2.55757 23.6396 7.95872
788 2 2.2208 2.58972 29.2756 8.04547
789 1 -1.1104 4.01359 24.9321 9.24314
790 2 2.2208 2.55109 26.308 10.7436
791 1 -1.1104 3.84044 21.9587 12.2195
792 1 -1.1104 3.71787 27.8864 12.1652
793 1 -1.1104 3.95083 22.2468 9.49396
794 1 -1.1104 3.84768 27.92 9.42745