ITEM: TIMESTEP
20000
ITEM: NUMBER OF ATOMS
17820
ITEM: BOX BOUNDS pp pp pp
-3.5739730133719705e-01 2.7697397301337393e+01
-4.3205721755371744e+00 3.3240057217554101e+02
-3.6715434795257695e-01 2.7707154347952709e+01
ITEM: ATOMS id type q x y z
1 2 2.2208 5.38192 1.23199 5.33371
2 1 -1.1104 1.20952 -3.13169 0.938826
3 1 -1.1104 0.998185 2.62279 1.01165
6 1 -1.1104 1.13847 -2.87633 3.68009
7 1 -1.1104 1.05025 2.59663 3.82537
10 1 -1.1104 1.01119 -0.327811 1.16645
12 2 2.2208 5.28475 -1.51303 2.56107
13 2 2.2208 5.27807 4.04782 2.55549
14 1 -1.1104 1.05817 -0.140825 4.06518
16 1 -1.1104 4.03672 -3.06735 1.09611
17 1 -1.1104 3.95158 2.56404 1.21087
18 2 2.2208 2.35442 1.27644 2.55547
19 1 -1.1104 3.93706 -2.96385 4.00353
20 1 -1.1104 3.88715 2.61591 3.94372
21 2 2.2208 2.46431 -1.64666 5.33045
22 2 2.2208 2.43316 3.88784 5.30051
23 1 -1.1104 3.81364 -0.123479 1.17669
24 1 -1.1104 3.97819 -0.168238 3.90877
25 2 2.2208 5.29855 6.86824 5.30283
30 1 -1.1104 0.947734 5.42712 1.11039
32 1 -1.1104 1.09191 5.41388 4.03728
34 1 -1.1104 3.91597 8.26271 1.12299
35 2 2.2208 2.44384 6.81329 2.49716
36 1 -1.1104 4.00759 8.25708 3.80721
37 1 -1.1104 3.85507 5.40505 1.05256
38 1 -1.1104 3.92251 5.40506 4.01287
28 1 -1.1104 1.10598 8.24009 3.60665
329 2 2.2208 5.28972 1.1503 -0.214605
40 2 2.2208 -0.332446 -1.60065 2.52519
9008 2 2.2208 -0.41109 1.24232 5.33592
166 1 -1.1104 9.46827 2.52136 9.42051
41 2 2.2208 10.9495 -4.26754 10.9774
178 2 2.2208 5.24049 6.77118 -0.325205
506 1 -1.1104 0.963749 8.6833 0.997106
165 1 -1.1104 9.45305 -2.98254 9.56476
330 2 2.2208 2.5393 -1.54707 -0.28765
79 1 -1.1104 12.1944 5.38768 12.2938
87 1 -1.1104 3.78709 2.60393 6.7501
9023 2 2.2208 -0.356191 1.2241 -0.333683
8654 2 2.2208 11.0229 -4.28147 5.23391
102 1 -1.1104 6.75544 -2.93528 9.56882
9009 2 2.2208 -0.421791 4.06543 2.52579
138 2 2.2208 -0.256271 -4.38187 10.7319
33 1 -1.1104 6.64101 5.60749 3.82972
335 2 2.2208 8.04121 4.08405 -0.275243
11 1 -1.1104 6.69813 -0.285167 1.23118
9 1 -1.1104 6.7906 2.70184 4.03026
137 2 2.2208 5.45927 -4.38542 10.8703
15 1 -1.1104 6.85405 -0.175714 3.99605
4 1 -1.1104 6.89431 -2.90647 1.01347
27 1 -1.1104 6.6405 7.96399 1.05522
5 1 -1.1104 6.81959 2.56114 1.10981
31 1 -1.1104 6.48586 5.17532 0.992698
8 1 -1.1104 6.73458 -2.9766 3.79114
29 1 -1.1104 6.6874 8.45423 3.93028
71 1 -1.1104 9.77933 8.20414 3.85622
46 2 2.2208 10.8941 1.14983 5.4344
47 1 -1.1104 12.3621 -2.86329 1.10945
48 1 -1.1104 12.2909 2.77198 1.19068
49 1 -1.1104 12.4405 -3.12979 3.85914
50 1 -1.1104 12.371 2.65162 3.94792
51 1 -1.1104 12.3349 0.00779912 1.09538
52 2 2.2208 10.945 -1.5485 2.46602
53 2 2.2208 10.8256 3.9904 2.56503
54 1 -1.1104 12.3307 -0.275869 3.9404
55 1 -1.1104 9.7232 -3.12261 1.13928
56 1 -1.1104 9.5556 2.52744 1.16207
57 2 2.2208 8.16771 1.21664 2.59859
58 1 -1.1104 9.53969 -3.07939 3.84698
59 1 -1.1104 9.50152 2.63829 3.98865
60 2 2.2208 8.11397 -1.59205 5.29191
61 2 2.2208 8.1415 4.0907 5.48087
62 1 -1.1104 9.61086 -0.157853 0.966694
63 1 -1.1104 9.51118 -0.197686 4.0051
64 2 2.2208 10.8341 6.79245 5.39039
65 1 -1.1104 12.549 8.32261 0.916765
66 1 -1.1104 12.599 8.22799 3.91455
67 1 -1.1104 11.9454 5.59281 1.19648
68 1 -1.1104 12.3018 5.42411 4.01808
69 1 -1.1104 9.38128 8.31036 0.97503
70 2 2.2208 8.05438 6.84561 2.49166
72 1 -1.1104 9.31496 5.45025 1.07746
73 1 -1.1104 9.50603 5.41324 4.07463
44 2 2.2208 5.46751 -4.41612 5.35062
83 1 -1.1104 6.78162 2.69129 6.86337
43 2 2.2208 2.56838 -4.38545 2.40059
336 2 2.2208 8.2249 -1.5077 -0.324722
8977 2 2.2208 -0.364707 6.91448 10.9247
134 2 2.2208 -0.321836 -1.60035 8.11462
9018 2 2.2208 -0.559876 6.85664 -0.161095
93 1 -1.1104 3.9329 8.35796 6.65422
86 1 -1.1104 3.981 -3.12317 6.79888
89 1 -1.1104 1.2203 7.93866 6.35835
94 1 -1.1104 4.06457 5.60403 6.82326
91 1 -1.1104 1.12677 5.32765 6.73598
81 1 -1.1104 1.05403 2.45772 6.64024
88 1 -1.1104 3.89697 -0.241595 6.74191
8852 2 2.2208 -0.198068 1.18372 10.8929
84 1 -1.1104 1.14102 -0.246799 6.7948
80 1 -1.1104 1.14725 -3.11206 6.59841
95 2 2.2208 5.32547 1.16502 11.0207
96 1 -1.1104 1.09395 -2.88366 12.2892
97 1 -1.1104 1.02301 2.60189 12.2601
100 1 -1.1104 1.10061 -3.02399 9.42241
101 1 -1.1104 1.21926 2.61161 9.53279
104 1 -1.1104 1.33039 -0.141688 12.3989
106 2 2.2208 5.29106 -1.67754 8.13438
107 2 2.2208 5.29315 3.98541 8.11163
108 1 -1.1104 1.04361 -0.384365 9.68396
110 1 -1.1104 3.96434 -3.10717 12.3456
111 1 -1.1104 3.85867 2.62723 12.2852
112 2 2.2208 2.55588 1.11678 8.06557
113 1 -1.1104 3.92868 -2.93318 9.49784
114 1 -1.1104 3.98168 2.53141 9.46985
115 2 2.2208 2.65851 -1.58886 10.856
116 2 2.2208 2.4295 3.97894 10.9647
117 1 -1.1104 3.97361 -0.261398 12.393
118 1 -1.1104 4.03094 -0.106857 9.62823
119 2 2.2208 5.13216 6.75518 10.9419
120 1 -1.1104 1.07515 8.20116 12.326
122 1 -1.1104 1.0967 8.18462 9.32183
124 1 -1.1104 1.03355 5.33328 12.499
126 1 -1.1104 1.12604 5.49744 9.6839
128 1 -1.1104 3.77411 8.21094 12.3765
129 2 2.2208 2.4881 6.86705 8.04692
130 1 -1.1104 3.85365 8.26151 9.54596
131 1 -1.1104 3.83314 5.42158 12.4895
132 1 -1.1104 3.8235 5.34483 9.58763
8847 2 2.2208 5.40002 -4.39056 -0.36155
8857 2 2.2208 -0.327541 4.071 8.17544
158 1 -1.1104 12.4208 -0.197347 12.384
153 2 2.2208 10.8252 1.2171 10.9525
75 1 -1.1104 12.1551 5.46318 9.59245
9010 2 2.2208 -0.23095 -4.26583 5.20225
85 1 -1.1104 6.70781 -0.227585 6.79627
141 1 -1.1104 12.443 -0.0999941 6.66774
163 1 -1.1104 9.60234 2.6177 12.3784
154 1 -1.1104 12.4378 -2.94074 12.2481
155 1 -1.1104 12.3317 2.68236 12.4413
123 1 -1.1104 6.61803 8.23145 9.57876
105 1 -1.1104 6.7103 -0.234281 12.433
156 1 -1.1104 12.4184 -3.08366 9.51342
167 2 2.2208 8.12923 -1.61683 11.0103
169 1 -1.1104 9.54769 -0.123904 12.3268
133 1 -1.1104 12.2412 8.26962 9.62489
171 2 2.2208 10.8091 6.92069 11.0263
74 1 -1.1104 9.30498 8.30138 12.2541
147 1 -1.1104 9.49744 8.45338 6.64308
148 1 -1.1104 9.42498 5.53369 9.74109
135 1 -1.1104 12.18 8.1629 12.3746
109 1 -1.1104 6.74635 -0.247064 9.61184
157 1 -1.1104 12.304 2.53731 9.53727
144 1 -1.1104 9.59555 -0.202988 6.8056
92 1 -1.1104 6.64044 5.40718 6.67938
90 1 -1.1104 6.74581 8.15927 6.76777
82 1 -1.1104 6.80008 -2.94846 6.6904
139 1 -1.1104 12.2952 -2.84311 6.64511
142 1 -1.1104 9.65162 -3.02192 6.80024
149 1 -1.1104 9.49086 5.64096 6.88289
150 1 -1.1104 9.54642 5.43799 12.4224
143 1 -1.1104 9.56224 2.56032 6.76997
140 1 -1.1104 12.2862 2.67198 6.83268
146 1 -1.1104 12.3069 5.49691 6.82327
145 1 -1.1104 12.1863 8.29011 6.69895
152 2 2.2208 7.92155 6.80607 8.29514
151 1 -1.1104 9.52749 8.4139 9.46933
125 1 -1.1104 6.72571 5.28692 12.3693
99 1 -1.1104 6.68707 2.46233 12.3237
103 1 -1.1104 6.61199 2.50904 9.53761
98 1 -1.1104 6.80428 -3.08569 12.3829
121 1 -1.1104 6.5222 8.06584 12.3092
127 1 -1.1104 6.77327 5.32379 9.62829
162 1 -1.1104 9.58244 -2.93667 12.3316
159 2 2.2208 10.931 -1.42229 8.20437
168 2 2.2208 8.04768 3.91209 10.942
164 2 2.2208 8.09288 1.17915 8.2133
161 1 -1.1104 12.318 -0.178747 9.4235
160 2 2.2208 10.8361 4.08709 8.2637
170 1 -1.1104 9.51298 -0.244022 9.57444
9007 2 2.2208 -0.411025 6.79597 5.27635
42 2 2.2208 8.17469 -4.3302 8.14302
173 2 2.2208 2.30562 6.85137 13.7798
179 2 2.2208 5.29313 1.24658 16.5955
180 1 -1.1104 0.982324 -3.07088 17.9049
181 1 -1.1104 1.0233 2.59452 18.0448
184 1 -1.1104 1.08929 -2.99949 15.0505
186 1 -1.1104 1.06793 2.59137 15.1018
192 1 -1.1104 1.25902 -0.311632 18.1087
194 2 2.2208 5.32127 -1.57292 19.4153
195 2 2.2208 5.18642 4.11649 19.4071
196 1 -1.1104 0.956488 -0.297284 15.1653
200 1 -1.1104 3.90043 -3.02803 17.8316
201 1 -1.1104 3.84296 2.79367 18.1192
202 2 2.2208 2.57855 1.17913 19.4222
203 1 -1.1104 3.98566 -3.0244 15.0522
205 1 -1.1104 3.81581 2.46537 15.1907
207 2 2.2208 2.39319 -1.71475 16.5243
208 2 2.2208 2.38429 4.10546 16.5957
209 1 -1.1104 4.00775 -0.120764 17.9308
210 1 -1.1104 3.78905 -0.172167 15.1378
212 2 2.2208 5.27142 6.89955 16.5189
213 1 -1.1104 1.08601 8.1298 18.0163
215 1 -1.1104 0.877951 8.27962 15.3337
219 1 -1.1104 1.03257 5.29651 18.1039
221 1 -1.1104 0.930201 5.46458 15.3276
225 1 -1.1104 3.92805 8.26041 17.8852
226 2 2.2208 2.44441 6.81986 19.3867
8842 2 2.2208 2.46172 -4.28926 19.2921
229 1 -1.1104 3.97453 5.74824 18.1368
230 1 -1.1104 3.90791 5.37206 15.3032
235 2 2.2208 -0.26759 1.30726 16.4999
8846 2 2.2208 -0.303909 -4.42055 22.0139
234 2 2.2208 -0.349348 4.05083 19.4916
8843 2 2.2208 2.50724 -4.29671 13.7285
227 1 -1.1104 3.81622 8.41376 15.1551
187 1 -1.1104 1.15958 2.64367 20.6979
206 1 -1.1104 4.10847 2.55275 21.0036
228 1 -1.1104 4.04288 8.1848 20.6805
239 2 2.2208 5.20873 -1.62576 13.7683
8760 2 2.2208 10.9586 -4.26018 22.2269
9186 2 2.2208 -0.26589 -1.59614 19.2789
282 2 2.2208 10.8824 -4.26911 16.7177
174 2 2.2208 5.2146 3.94663 13.7873
172 2 2.2208 -0.213848 -1.68338 13.6899
214 1 -1.1104 6.67654 8.28927 17.9041
188 1 -1.1104 6.83741 -2.81824 15.1948
182 1 -1.1104 6.7466 -3.00491 18.0051
217 1 -1.1104 6.78044 8.28523 15.1852
301 1 -1.1104 6.72695 -0.0817377 23.6502
190 1 -1.1104 6.74452 2.56976 15.1596
183 1 -1.1104 6.52695 2.73207 17.9037
193 1 -1.1104 6.68176 -0.207395 18.0033
220 1 -1.1104 6.67835 5.45405 17.9342
223 1 -1.1104 6.69955 5.53895 15.2391
198 1 -1.1104 6.58538 -0.173027 15.2441
243 2 2.2208 10.9304 1.17189 16.5928
244 1 -1.1104 12.2749 -2.92173 17.9116
245 1 -1.1104 12.3333 2.69564 17.8728
246 1 -1.1104 12.4323 -3.22626 15.2029
248 1 -1.1104 12.3093 2.62909 15.1447
250 1 -1.1104 12.421 -0.190046 17.9284
251 2 2.2208 10.9414 -1.56919 19.3847
252 2 2.2208 10.9083 4.05109 19.4059
253 1 -1.1104 12.304 -0.124821 15.2359
255 1 -1.1104 9.5361 -2.73698 18.078
256 1 -1.1104 9.50393 2.72264 17.9576
257 2 2.2208 8.11946 1.29111 19.393
258 1 -1.1104 9.66258 -2.878 15.2473
260 1 -1.1104 9.49958 2.53649 15.1423
262 2 2.2208 8.20433 -1.44201 16.6304
263 2 2.2208 8.12164 4.01328 16.6189
264 1 -1.1104 9.61452 -0.0464023 18.0249
265 1 -1.1104 9.49518 -0.251353 15.0548
267 2 2.2208 10.8961 6.94058 16.5203
268 1 -1.1104 12.1476 8.22522 17.9405
269 1 -1.1104 12.2843 8.15398 15.2522
271 1 -1.1104 12.3599 5.50477 17.9299
272 1 -1.1104 12.2241 5.46027 15.2045
274 1 -1.1104 9.38883 8.36645 18.0116
275 2 2.2208 7.97724 6.82363 19.3552
276 1 -1.1104 9.31815 8.26494 15.1678
278 1 -1.1104 9.48005 5.41646 17.9209
279 1 -1.1104 9.5126 5.40725 15.1565
288 2 2.2208 8.12317 1.06393 13.7775
199 1 -1.1104 6.52342 -0.172337 20.7547
218 1 -1.1104 6.68011 8.25503 20.7229
349 1 -1.1104 12.2787 2.64443 23.6379
289 2 2.2208 11.0809 -1.63651 13.8059
9143 2 2.2208 -0.336192 -1.54852 25.0438
238 2 2.2208 -0.426154 6.8981 16.6054
346 2 2.2208 8.08184 6.93624 24.9853
323 1 -1.1104 6.55115 5.56975 26.3121
8844 2 2.2208 13.7041 -4.43491 19.2759
8841 2 2.2208 5.35023 -4.25934 16.543
341 2 2.2208 -0.309806 1.31921 22.1619
231 1 -1.1104 3.77203 5.3724 20.8004
211 1 -1.1104 3.80943 -0.213967 20.9166
185 1 -1.1104 1.10065 -3.00081 20.7938
204 1 -1.1104 3.80511 -3.15736 20.7349
216 1 -1.1104 1.09652 8.26933 20.8859
197 1 -1.1104 1.13054 -0.0799733 20.865
222 1 -1.1104 1.07908 5.55581 20.8891
291 2 2.2208 5.37475 1.21939 22.2311
292 1 -1.1104 1.08842 -3.05643 23.5576
293 1 -1.1104 0.973219 2.82072 23.5762
296 1 -1.1104 1.09469 -2.83588 26.278
297 1 -1.1104 0.95604 2.77055 26.435
300 1 -1.1104 1.11278 0.0241695 23.7099
302 2 2.2208 5.34334 -1.45453 24.9909
303 2 2.2208 5.31814 4.0597 24.9684
304 1 -1.1104 1.32145 0.0637873 26.4481
306 1 -1.1104 4.0204 -3.12211 23.5593
307 1 -1.1104 3.88174 2.59861 23.765
308 2 2.2208 2.45038 1.329 24.9997
309 1 -1.1104 3.89921 -2.93593 26.4297
310 1 -1.1104 3.90171 2.61704 26.5657
311 2 2.2208 2.40896 -1.67285 22.2629
312 2 2.2208 2.42212 3.95725 22.2222
313 1 -1.1104 3.78371 -0.297301 23.6569
314 1 -1.1104 3.94183 -0.115521 26.3865
315 2 2.2208 5.34858 6.8614 22.1825
320 1 -1.1104 1.07067 5.54297 23.5605
322 1 -1.1104 0.953641 5.91268 26.3274
324 1 -1.1104 3.87636 8.13332 23.4596
325 2 2.2208 2.59187 6.76308 24.8306
326 1 -1.1104 3.58738 8.15617 26.3637
327 1 -1.1104 3.92354 5.27667 23.4752
328 1 -1.1104 3.81152 5.41474 26.2705
319 1 -1.1104 6.4622 8.27694 26.3366
294 1 -1.1104 6.94706 -2.99814 23.5417
345 1 -1.1104 9.53174 8.31201 26.2901
284 2 2.2208 8.19678 -4.27782 13.8342
241 2 2.2208 2.52489 1.22182 13.6965
247 1 -1.1104 12.3053 -3.04585 20.6369
287 1 -1.1104 9.45442 0.00300824 26.1978
339 1 -1.1104 9.40501 8.31676 23.4736
360 1 -1.1104 9.60334 3.00571 26.4526
353 2 2.2208 10.8286 -1.38012 24.9152
261 1 -1.1104 9.52016 2.78672 20.7504
295 1 -1.1104 6.64826 2.69395 23.5561
299 1 -1.1104 6.77338 2.67051 26.4282
321 1 -1.1104 6.70677 5.41721 23.5597
347 2 2.2208 10.8919 1.29764 22.2111
266 1 -1.1104 9.39737 -0.125741 20.7679
191 1 -1.1104 6.82372 2.59363 20.7911
350 1 -1.1104 12.408 -2.7763 26.4083
305 1 -1.1104 6.8121 -0.179336 26.4123
356 1 -1.1104 9.54891 -2.77538 23.5765
358 2 2.2208 8.09874 1.40048 25.0207
318 1 -1.1104 9.59556 0.062633 23.537
240 1 -1.1104 12.379 8.37625 23.3628
359 1 -1.1104 9.61668 -2.78689 26.3619
357 1 -1.1104 9.50404 2.5417 23.6409
343 1 -1.1104 9.446 5.57217 26.1401
254 1 -1.1104 12.2219 -0.16658 20.7687
224 1 -1.1104 6.72906 5.39795 20.7582
273 1 -1.1104 12.0654 5.44644 20.7189
277 1 -1.1104 9.57565 8.4244 20.6992
249 1 -1.1104 12.4783 2.6855 20.7687
280 1 -1.1104 9.46061 5.44394 20.6674
332 2 2.2208 8.11823 -1.62801 22.1364
298 1 -1.1104 6.78279 -2.95597 26.2747
317 1 -1.1104 6.72403 8.24919 23.5073
342 1 -1.1104 12.2847 5.50501 23.5805
331 2 2.2208 8.05862 4.1023 22.1703
354 2 2.2208 10.9327 4.15091 25.0055
189 1 -1.1104 6.55634 -2.88779 20.796
242 2 2.2208 10.773 6.82872 22.2081
259 1 -1.1104 9.40469 -3.1421 20.8872
270 1 -1.1104 12.27 8.2561 20.7983
340 1 -1.1104 12.3272 5.49115 26.3487
237 1 -1.1104 12.3295 8.25291 26.1923
351 1 -1.1104 12.3885 2.7952 26.3799
355 1 -1.1104 12.3702 -0.0730311 26.4331
348 1 -1.1104 12.22 -2.85593 23.5955
352 1 -1.1104 12.4644 -0.0401538 23.5847
344 1 -1.1104 9.44238 5.41227 23.4529
290 2 2.2208 10.8773 3.9792 13.7346
9070 2 2.2208 -0.194688 6.93609 22.1882
177 2 2.2208 2.58003 4.00418 27.8055
337 2 2.2208 2.64519 -4.53994 24.9443
8845 2 2.2208 8.00702 -4.2616 19.4341
338 2 2.2208 10.891 1.35628 27.7382
334 2 2.2208 10.8199 6.96706 27.6696
175 2 2.2208 8.07432 6.88146 13.7753
361 2 2.2208 5.23751 12.5201 5.24855
363 1 -1.1104 0.864573 11.0257 3.98113
366 2 2.2208 5.23161 9.74275 2.63674
368 2 2.2208 2.55895 9.61713 5.21164
369 1 -1.1104 4.11312 10.9946 1.1258
371 1 -1.1104 3.96361 10.8554 4.21856
372 2 2.2208 5.28224 18.0894 5.27568
373 1 -1.1104 1.01642 13.8245 1.08656
375 1 -1.1104 1.11249 19.5264 1.13705
380 1 -1.1104 1.0244 19.4554 3.80178
382 1 -1.1104 1.06525 16.7898 1.56376
385 2 2.2208 5.07021 15.2671 2.69087
386 2 2.2208 5.30619 20.8755 2.43706
389 1 -1.1104 4.04602 14.1037 0.484174
391 1 -1.1104 3.95652 19.6386 0.992794
393 2 2.2208 2.60795 18.2907 2.35689
394 1 -1.1104 3.85057 13.8866 4.07982
395 1 -1.1104 3.70708 19.5272 3.90467
397 2 2.2208 2.52397 20.9423 5.2924
398 1 -1.1104 3.84518 16.7575 1.1686
400 1 -1.1104 3.87099 16.8974 3.87386
520 2 2.2208 5.38242 12.3977 -0.242795
414 1 -1.1104 6.68431 16.5927 1.18433
383 1 -1.1104 0.820175 16.766 6.78627
413 1 -1.1104 6.66095 19.4633 3.91297
388 1 -1.1104 6.80972 16.7508 3.97884
501 2 2.2208 13.6501 15.2758 5.11961
519 2 2.2208 2.67942 9.86778 -0.210512
439 2 2.2208 13.766 18.0751 2.46217
9340 2 2.2208 -0.265037 12.3613 5.48392
499 2 2.2208 13.7891 20.8306 5.16611
9344 2 2.2208 -0.480588 20.8353 7.99748
502 2 2.2208 13.5855 20.9417 10.8712
491 2 2.2208 8.03769 12.4533 8.14329
412 1 -1.1104 6.4568 19.4284 1.01162
376 1 -1.1104 6.65645 13.7674 1.26328
367 1 -1.1104 6.64122 11.0956 3.88611
381 1 -1.1104 6.62296 13.9105 4.02225
364 1 -1.1104 6.80003 11.0463 1.11391
402 2 2.2208 10.7689 12.4057 5.2272
403 1 -1.1104 12.2299 11.0139 1.21304
405 2 2.2208 10.8436 9.75558 2.45328
406 1 -1.1104 12.2271 11.0206 3.89788
407 2 2.2208 8.06576 12.5647 2.497
408 2 2.2208 7.95668 9.75789 5.42334
409 1 -1.1104 9.47612 11.2485 1.10344
411 1 -1.1104 9.3936 11.0665 3.81391
415 2 2.2208 10.7807 18.0663 5.32087
416 1 -1.1104 12.3076 13.7395 1.07568
418 1 -1.1104 12.33 19.5649 0.960312
420 1 -1.1104 12.291 13.8982 3.8978
421 1 -1.1104 12.196 19.4767 3.81765
422 1 -1.1104 12.3186 16.6269 1.12026
424 2 2.2208 10.9535 15.1895 2.29135
425 2 2.2208 10.9139 20.8459 2.44948
426 1 -1.1104 12.4443 16.7491 3.8726
427 1 -1.1104 9.53726 13.8774 1.01263
429 1 -1.1104 9.42959 19.498 1.04266
431 2 2.2208 8.06615 18.0506 2.4074
432 1 -1.1104 9.54488 13.8594 3.81783
433 1 -1.1104 9.42792 19.4066 3.89804
434 2 2.2208 8.03854 15.3009 5.32145
435 2 2.2208 8.12803 20.8713 5.13084
436 1 -1.1104 9.69353 16.7065 1.10543
438 1 -1.1104 9.55941 16.5622 3.77272
487 1 -1.1104 9.46651 13.8148 12.3273
437 1 -1.1104 9.47538 16.5915 6.59254
484 1 -1.1104 9.47256 14.0726 9.40607
404 1 -1.1104 12.2466 11.2245 6.64063
417 1 -1.1104 12.1873 13.9311 6.71983
490 2 2.2208 13.6219 15.2877 10.9234
510 2 2.2208 -0.288925 20.9167 13.555
365 1 -1.1104 6.62672 11.1518 6.63941
497 1 -1.1104 12.2116 13.7453 9.57921
392 1 -1.1104 3.83832 19.6825 6.76115
377 1 -1.1104 6.32368 13.9413 6.75161
457 1 -1.1104 1.06048 19.647 6.62563
370 1 -1.1104 1.10833 10.7799 6.61736
374 1 -1.1104 0.986634 13.5601 6.90763
390 1 -1.1104 3.85889 11.3817 6.81195
399 1 -1.1104 3.96668 16.7743 6.76721
441 1 -1.1104 3.81784 19.5419 12.2507
442 1 -1.1104 3.74684 13.816 12.0618
446 1 -1.1104 0.945081 19.365 9.37357
447 1 -1.1104 0.946575 16.5061 9.52873
448 2 2.2208 5.31292 20.8692 8.09931
449 1 -1.1104 1.04333 13.8028 9.58376
450 2 2.2208 5.33805 15.4346 8.2299
453 1 -1.1104 0.920365 19.2722 12.2896
454 1 -1.1104 0.859895 13.7363 12.2774
455 2 2.2208 5.22786 18.088 10.9239
456 1 -1.1104 3.76867 19.5264 9.45902
458 2 2.2208 2.53356 18.1185 7.96121
459 1 -1.1104 3.82676 16.6308 9.51105
460 1 -1.1104 3.92955 13.7988 9.06016
462 1 -1.1104 1.12369 16.5599 12.2893
463 1 -1.1104 3.85172 16.6367 12.2103
464 2 2.2208 2.46672 20.8942 10.7675
465 2 2.2208 5.32209 12.3865 10.9083
466 1 -1.1104 0.898563 10.7855 12.2216
468 2 2.2208 2.36153 15.3377 10.8393
469 2 2.2208 5.1718 9.80178 8.10576
470 1 -1.1104 0.867008 11.0039 9.49393
472 2 2.2208 2.33418 12.3998 8.19103
473 2 2.2208 2.38794 9.58785 10.9907
474 1 -1.1104 3.74504 11.0462 12.4179
475 1 -1.1104 3.81817 11.0529 9.70672
452 1 -1.1104 6.68642 13.7175 12.2434
378 1 -1.1104 6.54934 19.5517 6.69574
444 1 -1.1104 6.64247 16.7772 9.5298
443 1 -1.1104 6.609 19.4621 9.5577
524 2 2.2208 8.12713 9.83903 -0.311401
481 2 2.2208 7.96196 20.7337 10.9346
488 1 -1.1104 12.1788 16.5705 9.57055
492 1 -1.1104 9.4282 11.2214 9.45604
379 2 2.2208 10.9677 9.78416 8.05785
410 1 -1.1104 9.34174 11.0195 6.77641
461 1 -1.1104 6.64906 16.6676 12.329
451 1 -1.1104 6.60754 19.4964 12.3339
430 1 -1.1104 9.39837 19.5242 6.67279
486 1 -1.1104 9.2817 19.3013 12.1604
494 1 -1.1104 12.4002 16.7572 12.3092
471 1 -1.1104 6.62265 11.0181 9.53547
445 1 -1.1104 6.70021 13.9267 9.48849
495 1 -1.1104 9.5094 10.9192 12.165
496 1 -1.1104 12.264 19.4767 9.52416
489 2 2.2208 10.9405 20.9591 7.94218
493 2 2.2208 10.9412 15.3392 8.07913
476 1 -1.1104 12.1713 19.5692 12.3843
387 1 -1.1104 12.2894 11.1473 12.5137
428 1 -1.1104 9.3022 13.6409 6.57696
384 1 -1.1104 6.82323 16.7862 6.84978
396 2 2.2208 10.8573 12.5139 10.9926
440 1 -1.1104 12.1881 13.9423 12.3807
479 1 -1.1104 9.50052 16.8913 9.47119
498 2 2.2208 8.02928 9.60229 10.8597
480 1 -1.1104 9.59006 16.5823 12.2693
419 1 -1.1104 12.2005 19.4718 6.59764
482 2 2.2208 8.13784 15.4288 10.7533
362 1 -1.1104 12.1816 11.0281 9.58727
401 2 2.2208 10.8756 18.1178 10.8295
423 1 -1.1104 12.1967 16.7821 6.67627
483 1 -1.1104 9.43027 19.6183 9.34646
485 2 2.2208 8.0645 18.2026 8.14599
467 1 -1.1104 6.67247 10.9806 12.2967
507 2 2.2208 5.21203 20.8101 13.6613
503 2 2.2208 13.5982 12.5027 8.00063
477 2 2.2208 -0.469866 18.0904 10.8493
505 2 2.2208 -0.451872 12.3837 10.8172
575 2 2.2208 2.40769 17.9506 13.7034
516 2 2.2208 10.8847 21.0273 13.7433
523 2 2.2208 10.7607 12.3959 -0.403611
9353 2 2.2208 -0.441152 12.5399 -0.471633
573 2 2.2208 5.27914 15.1753 13.5275
522 2 2.2208 7.89567 15.3181 -0.191029
527 2 2.2208 5.2907 12.5107 16.4464
528 1 -1.1104 0.964196 11.014 17.9651
530 2 2.2208 5.34094 9.65487 19.2082
531 1 -1.1104 1.0719 10.964 15.1321
535 2 2.2208 2.48786 12.3685 19.3085
536 2 2.2208 2.39518 9.64805 16.5567
537 1 -1.1104 3.74259 11.1174 17.9289
538 1 -1.1104 3.85331 10.9933 15.1628
540 2 2.2208 5.14313 18.0744 16.5119
541 1 -1.1104 1.03229 13.6524 17.7676
542 1 -1.1104 1.04536 19.6481 17.8438
545 1 -1.1104 1.14884 13.7095 14.9639
547 1 -1.1104 1.2071 19.4498 15.115
553 1 -1.1104 0.908295 16.5639 17.8242
555 2 2.2208 5.16184 15.1556 19.3121
556 2 2.2208 5.21426 20.7231 19.3744
557 1 -1.1104 1.11976 16.4663 15.0504
561 1 -1.1104 3.82252 13.7584 18.0625
562 1 -1.1104 3.74057 19.4755 17.8777
563 2 2.2208 2.43621 18.0422 19.3039
564 1 -1.1104 3.91006 13.7607 14.8498
566 1 -1.1104 3.8107 19.3339 14.9969
568 2 2.2208 2.48892 15.2129 16.3871
569 2 2.2208 2.44132 20.8784 16.5403
570 1 -1.1104 3.48918 16.7397 17.7558
571 1 -1.1104 3.91148 16.5245 15.0529
316 1 -1.1104 1.12514 8.31226 23.7597
656 2 2.2208 13.7247 21.0374 27.6133
518 2 2.2208 2.34425 15.3099 27.9392
551 1 -1.1104 6.5118 19.3942 15.1539
533 1 -1.1104 6.67265 11.0545 15.0551
549 1 -1.1104 6.5428 13.8605 15.0848
546 1 -1.1104 1.20969 13.9105 20.6401
567 1 -1.1104 3.92977 19.3993 20.75
579 2 2.2208 -0.35016 20.8216 19.3644
9455 2 2.2208 -0.210264 15.2993 19.3929
654 2 2.2208 13.6166 12.5149 24.8782
508 2 2.2208 5.2003 9.57919 13.7118
574 2 2.2208 2.42336 12.4277 13.6664
529 1 -1.1104 6.59938 11.1002 17.8607
554 1 -1.1104 6.43106 16.556 17.9418
615 2 2.2208 13.5923 12.589 19.2382
559 1 -1.1104 6.52603 16.6529 15.0251
544 1 -1.1104 6.62043 19.3301 17.8221
543 1 -1.1104 6.47804 13.8793 17.7966
580 2 2.2208 10.7967 12.431 16.559
581 1 -1.1104 12.2336 11.0656 17.9419
582 2 2.2208 10.7447 9.72697 19.2516
583 1 -1.1104 12.0407 10.8633 15.1017
585 2 2.2208 7.99784 12.5783 19.2415
586 2 2.2208 8.05087 9.67885 16.5683
587 1 -1.1104 9.41374 11.1652 17.9264
588 1 -1.1104 9.45148 11.128 14.9406
590 2 2.2208 10.8115 18.0972 16.3957
591 1 -1.1104 12.2527 13.7815 17.7665
592 1 -1.1104 12.1854 19.4764 17.8518
593 1 -1.1104 12.3189 13.8131 15.1899
595 1 -1.1104 12.206 19.482 15.2313
597 1 -1.1104 12.2719 16.5368 17.8252
598 2 2.2208 10.796 15.2761 19.1887
599 2 2.2208 10.7559 20.8597 19.276
600 1 -1.1104 12.207 16.6677 15.1358
602 1 -1.1104 9.3967 14.0161 17.8718
603 1 -1.1104 9.39664 19.34 17.8934
604 2 2.2208 8.00249 17.9626 19.2266
605 1 -1.1104 9.42649 13.944 15.1049
607 1 -1.1104 9.36444 19.5192 14.9617
609 2 2.2208 7.92388 15.2757 16.3983
610 2 2.2208 7.93775 20.7946 16.5381
611 1 -1.1104 9.35104 16.6474 17.7943
612 1 -1.1104 9.45648 16.6165 15.0545
617 2 2.2208 13.6805 18.1961 19.1616
596 1 -1.1104 12.0604 19.3059 20.5524
645 2 2.2208 2.65094 20.8826 27.7193
560 1 -1.1104 6.59646 16.4921 20.6629
550 1 -1.1104 6.57454 13.697 20.6934
613 1 -1.1104 9.48343 16.6345 20.7284
646 2 2.2208 5.24678 17.9352 27.6241
652 2 2.2208 13.6603 15.3592 22.1749
616 2 2.2208 13.5863 20.9193 16.4588
648 2 2.2208 13.6829 15.1818 16.4145
539 1 -1.1104 3.85243 10.979 20.66
619 1 -1.1104 6.83639 13.644 26.5357
572 1 -1.1104 3.71279 16.6076 20.5787
558 1 -1.1104 0.989049 16.6256 20.7693
548 1 -1.1104 1.04882 19.4719 20.7598
565 1 -1.1104 3.85841 13.6921 21.1051
532 1 -1.1104 1.06171 11.0555 21.127
618 1 -1.1104 3.68357 19.5146 23.5304
621 1 -1.1104 1.19638 19.494 26.395
622 1 -1.1104 0.868642 16.5778 26.6748
623 1 -1.1104 0.965359 13.8329 26.5203
625 2 2.2208 5.27055 20.8034 24.8858
627 1 -1.1104 0.952399 19.4639 23.4192
628 1 -1.1104 1.03623 13.9999 23.3319
629 2 2.2208 5.24577 17.9702 22.1309
630 1 -1.1104 3.95208 19.5285 26.2282
631 2 2.2208 2.55016 18.0417 25.0096
632 1 -1.1104 3.52014 16.6221 26.5202
634 1 -1.1104 0.988114 16.8268 23.7522
635 1 -1.1104 3.754 16.7966 23.2073
636 2 2.2208 2.53945 20.8174 22.0734
637 2 2.2208 5.30448 12.3189 22.138
639 2 2.2208 2.42998 15.3922 22.1493
640 2 2.2208 5.24284 9.76294 24.9553
642 2 2.2208 2.59552 9.59804 22.0415
643 1 -1.1104 3.57623 10.7614 23.591
644 1 -1.1104 3.90404 11.2103 26.4266
576 1 -1.1104 0.750922 10.4195 26.7629
552 1 -1.1104 6.55504 19.2429 20.6179
663 1 -1.1104 6.75965 19.6519 26.2969
513 2 2.2208 -0.498935 9.66249 13.7053
670 2 2.2208 10.8509 15.2769 24.9643
664 2 2.2208 8.11967 18.1829 25.0536
659 2 2.2208 8.07626 20.7923 22.0388
673 1 -1.1104 12.3579 13.7792 26.3082
534 1 -1.1104 6.72308 10.9755 20.5757
601 1 -1.1104 12.595 16.7176 20.6695
677 1 -1.1104 12.2037 19.4664 23.4455
666 1 -1.1104 9.62646 13.9314 23.4269
624 1 -1.1104 6.45141 19.5073 23.4284
682 2 2.2208 10.8471 9.82451 24.7166
641 1 -1.1104 6.52464 11.0604 26.3572
662 1 -1.1104 9.473 13.8744 26.3129
679 2 2.2208 10.8882 18.2065 22.0367
675 2 2.2208 8.11665 9.75706 22.0496
668 1 -1.1104 9.29731 11.0946 26.1932
633 1 -1.1104 6.93743 16.8753 23.4231
620 1 -1.1104 6.84714 16.8789 26.526
665 1 -1.1104 9.34287 19.4219 23.525
638 1 -1.1104 6.61743 11.1308 23.5891
626 1 -1.1104 6.62264 13.7382 23.3622
672 1 -1.1104 12.3562 19.6102 26.2436
669 2 2.2208 10.8996 20.997 24.9457
608 1 -1.1104 9.3632 19.4861 20.5972
657 1 -1.1104 9.53748 16.6997 26.508
674 1 -1.1104 9.39262 11.0781 23.404
680 2 2.2208 10.837 12.6206 22.0966
658 1 -1.1104 9.67793 16.6499 23.4667
678 1 -1.1104 12.3695 13.9191 23.4775
660 2 2.2208 8.05064 15.3004 22.2099
681 1 -1.1104 12.3281 11.1293 23.4699
661 1 -1.1104 9.52502 19.4956 26.3033
655 1 -1.1104 12.1017 11.1366 26.2091
584 1 -1.1104 12.2777 11.155 20.7093
667 1 -1.1104 12.3547 16.6971 26.3707
676 2 2.2208 7.99361 12.5283 24.8542
594 1 -1.1104 12.1167 13.8655 20.7182
606 1 -1.1104 9.43551 13.9498 20.6861
589 1 -1.1104 9.46258 11.206 20.7657
671 1 -1.1104 12.4185 16.8523 23.4798
509 2 2.2208 8.10004 12.3988 13.6298
525 2 2.2208 10.9709 18.1138 27.7176
517 2 2.2208 10.838 15.2567 13.7637
649 2 2.2208 8.03268 20.9075 27.7158
512 2 2.2208 10.8117 9.66302 13.7073
515 2 2.2208 7.99897 18.0207 13.6379
683 2 2.2208 5.27571 23.8184 5.07446
684 2 2.2208 5.10457 29.4526 5.04782
685 1 -1.1104 1.02877 25.1951 1.21549
686 1 -1.1104 1.07578 25.0988 3.9671
687 1 -1.1104 1.08662 22.3501 1.02834
688 1 -1.1104 0.902037 27.979 1.08548
689 2 2.2208 5.19055 26.5882 2.43728
690 1 -1.1104 1.28802 22.3564 3.75087
691 1 -1.1104 0.955593 27.9324 3.87359
692 1 -1.1104 3.98252 25.2076 1.11863
693 2 2.2208 2.42434 23.7748 2.37108
694 2 2.2208 2.30216 29.3558 2.49895
695 1 -1.1104 3.86971 25.2755 3.81675
696 2 2.2208 2.42841 26.4971 5.2934
697 1 -1.1104 3.88878 22.3964 1.04683
698 1 -1.1104 3.71587 28.0886 1.05698
699 1 -1.1104 3.90563 22.3856 3.79961
700 1 -1.1104 3.89109 28.1283 3.77581
701 1 -1.1104 0.786459 30.7793 0.978205
702 1 -1.1104 0.746124 30.7906 3.76869
703 1 -1.1104 0.854383 33.598 1.04781
704 2 2.2208 4.97962 32.223 2.37887
705 1 -1.1104 0.932458 33.5492 3.89207
707 1 -1.1104 3.60015 30.7703 1.07527
708 1 -1.1104 3.56473 30.8078 3.92154
709 2 2.2208 2.27711 32.1578 5.25267
710 1 -1.1104 3.54915 33.4884 0.930155
711 1 -1.1104 3.67911 33.6581 3.75911
9673 2 2.2208 -0.344821 26.56 2.52358
843 2 2.2208 13.6655 23.8018 8.17357
842 2 2.2208 -0.425513 23.6625 10.7499
716 1 -1.1104 6.62742 25.2935 0.997977
718 1 -1.1104 6.75454 22.4726 1.06233
720 1 -1.1104 6.84053 22.1999 3.72197
717 1 -1.1104 6.56269 25.2289 3.73776
758 1 -1.1104 1.08208 22.3892 6.61221
756 1 -1.1104 1.08337 25.2544 6.66544
765 1 -1.1104 0.955908 30.8452 6.60081
770 1 -1.1104 3.7877 33.3664 6.49835
767 1 -1.1104 1.00224 33.6223 6.64751
761 1 -1.1104 6.63823 27.7843 6.61375
766 1 -1.1104 6.68731 30.565 6.41043
760 1 -1.1104 6.61623 22.3652 6.56871
9672 2 2.2208 -0.271316 23.7098 5.23875
9671 2 2.2208 -0.488815 29.3348 5.22126
706 1 -1.1104 6.50856 33.6428 3.65684
719 1 -1.1104 6.46032 27.9154 0.851423
741 1 -1.1104 6.27866 30.8449 3.68004
740 1 -1.1104 6.47671 30.7242 1.1367
742 1 -1.1104 6.52195 33.5099 0.908565
721 1 -1.1104 6.7218 27.975 3.80875
722 2 2.2208 10.9063 23.7593 5.36325
723 2 2.2208 10.8381 29.3078 5.17467
724 1 -1.1104 12.3431 25.1013 1.06638
725 1 -1.1104 12.2738 25.0612 3.79673
726 1 -1.1104 12.3075 22.2763 1.01526
727 1 -1.1104 12.1074 27.837 1.08192
728 2 2.2208 10.7536 26.563 2.41514
729 1 -1.1104 12.3206 22.3309 3.81882
730 1 -1.1104 12.2149 27.8232 3.82256
731 1 -1.1104 9.51948 25.2602 0.926784
732 2 2.2208 8.07942 23.7297 2.44398
733 2 2.2208 7.78491 29.2376 2.31012
734 1 -1.1104 9.34463 25.2401 3.90712
735 2 2.2208 7.92578 26.5852 5.24662
736 1 -1.1104 9.53597 22.3869 1.12336
737 1 -1.1104 9.23438 27.914 1.00244
738 1 -1.1104 9.58707 22.2906 3.90334
739 1 -1.1104 9.33271 28.1251 3.67905
743 1 -1.1104 12.0917 30.6794 0.908965
744 1 -1.1104 12.1826 30.6562 3.8085
745 1 -1.1104 12.2159 33.5101 0.887956
746 2 2.2208 10.5941 32.1425 2.32027
747 1 -1.1104 12.319 33.6 3.84013
748 1 -1.1104 9.3281 30.8324 0.834857
749 1 -1.1104 9.09288 30.7872 3.53092
750 2 2.2208 7.96578 32.0841 5.00514
751 1 -1.1104 9.17168 33.6176 1.06818
752 1 -1.1104 9.31414 33.4242 3.7518
712 1 -1.1104 9.34883 33.5279 9.31287
811 1 -1.1104 12.3345 27.9476 6.46926
810 1 -1.1104 12.3307 22.3479 6.6084
812 1 -1.1104 9.47492 25.2675 6.55198
809 1 -1.1104 12.39 25.1895 6.69397
817 1 -1.1104 9.46334 30.7973 6.56767
9675 2 2.2208 13.7024 29.3362 2.42919
857 2 2.2208 2.23194 32.1148 -0.339382
9542 2 2.2208 13.6399 32.045 5.15219
834 1 -1.1104 9.53256 28.0626 12.3128
759 1 -1.1104 0.863487 28.0328 6.76963
851 2 2.2208 7.97748 29.3711 13.548
785 1 -1.1104 6.64321 27.683 9.45047
779 1 -1.1104 6.46796 22.2014 12.2514
762 1 -1.1104 3.74953 25.1689 6.46809
764 1 -1.1104 3.78824 27.8419 6.54476
769 1 -1.1104 3.88934 30.4777 6.62669
763 1 -1.1104 3.89269 22.4121 6.69672
771 2 2.2208 5.27441 23.7712 10.8584
772 2 2.2208 5.28701 29.3117 10.8036
773 1 -1.1104 0.993326 24.9762 12.2676
775 1 -1.1104 1.10687 24.955 9.39281
777 1 -1.1104 1.03438 22.1159 12.0777
778 1 -1.1104 1.09202 27.7883 12.1039
781 2 2.2208 5.23323 26.4999 8.00248
782 1 -1.1104 1.01426 22.1836 9.34794
783 1 -1.1104 1.03274 27.7688 9.50199
786 1 -1.1104 3.76469 25.2375 12.1896
787 2 2.2208 2.51812 23.7248 8.0104
788 2 2.2208 2.40169 29.2821 8.08808
789 1 -1.1104 3.96819 24.9609 9.4065
790 2 2.2208 2.42305 26.39 10.6939
791 1 -1.1104 3.73314 22.2901 12.2495