ITEM: TIMESTEP
30000
ITEM: NUMBER OF ATOMS
17820
ITEM: BOX BOUNDS pp pp pp
-3.6289241655099280e-01 2.7702892416551396e+01
-4.3837489665140739e+00 3.3246374896651918e+02
-3.6366648936537482e-01 2.7703666489365453e+01
ITEM: ATOMS id type q x y z
1 2 2.2208 5.37785 1.23703 5.44017
2 1 -1.1104 1.12866 -2.95508 1.24
3 1 -1.1104 0.98884 2.78566 1.30296
6 1 -1.1104 1.1203 -2.99939 4.15904
7 1 -1.1104 1.209 2.54992 4.10589
10 1 -1.1104 1.14667 -0.112215 1.31736
12 2 2.2208 5.31423 -1.53175 2.5267
13 2 2.2208 5.30208 3.97214 2.57762
14 1 -1.1104 1.21922 -0.01139 4.17848
16 1 -1.1104 3.94965 -2.73349 1.13164
17 1 -1.1104 3.99082 2.77789 1.09451
18 2 2.2208 2.49304 1.16227 2.6452
19 1 -1.1104 4.06305 -2.98136 3.93502
20 1 -1.1104 3.99804 2.50001 3.96667
21 2 2.2208 2.40249 -1.50983 5.56398
22 2 2.2208 2.56188 3.95781 5.41768
23 1 -1.1104 3.89198 -0.0801433 1.2872
24 1 -1.1104 3.90149 -0.30612 4.02714
25 2 2.2208 5.30746 6.73117 5.53445
30 1 -1.1104 1.23429 5.6085 1.09687
32 1 -1.1104 1.28145 5.42523 4.08823
34 1 -1.1104 4.19216 8.03167 1.1743
35 2 2.2208 2.61766 6.87512 2.6046
36 1 -1.1104 3.88385 8.08764 4.01331
37 1 -1.1104 3.98773 5.38949 1.32022
38 1 -1.1104 3.98402 5.2508 4.15928
28 1 -1.1104 1.1564 8.27838 4.05126
9008 2 2.2208 -0.226106 1.32482 5.50577
40 2 2.2208 -0.207285 -1.61726 2.74879
329 2 2.2208 5.46643 1.28598 -0.183478
178 2 2.2208 5.50575 6.74312 -0.215904
9023 2 2.2208 -0.358335 1.30123 -0.147029
9018 2 2.2208 -0.322039 6.76067 0.00341545
338 2 2.2208 10.9826 1.26924 -0.216877
9007 2 2.2208 -0.241681 6.93521 5.50987
137 2 2.2208 5.47572 -4.38766 10.9251
334 2 2.2208 10.9671 6.97845 -0.3459
43 2 2.2208 2.52094 -4.36524 2.63463
330 2 2.2208 2.53751 -1.47083 -0.217259
76 2 2.2208 13.6698 6.82553 2.62551
336 2 2.2208 8.16842 -1.65361 -0.255662
138 2 2.2208 -0.189601 -4.44732 11.0103
9 1 -1.1104 6.95526 2.54752 3.91748
5 1 -1.1104 6.57738 2.59415 1.20512
11 1 -1.1104 6.79724 -0.131239 1.17802
4 1 -1.1104 6.7292 -3.11105 1.23256
8 1 -1.1104 6.88585 -2.98853 3.93189
15 1 -1.1104 6.68789 -0.180526 3.92982
33 1 -1.1104 6.64772 5.4948 4.05744
31 1 -1.1104 6.71354 5.33539 1.30821
29 1 -1.1104 6.96884 8.19805 4.15795
27 1 -1.1104 7.01606 8.02517 1.15648
71 1 -1.1104 9.88412 8.04221 3.81816
46 2 2.2208 10.8809 1.17483 5.50281
47 1 -1.1104 12.49 -2.91186 1.19037
48 1 -1.1104 12.4715 2.70696 1.14222
49 1 -1.1104 12.5224 -2.81293 3.99223
50 1 -1.1104 12.3192 2.67078 4.16321
51 1 -1.1104 12.3937 -0.165816 1.19841
52 2 2.2208 10.981 -1.60136 2.5613
53 2 2.2208 11.0539 4.107 2.68618
54 1 -1.1104 12.3466 -0.134903 3.9033
55 1 -1.1104 9.6118 -2.85704 1.10674
56 1 -1.1104 9.54478 2.77468 1.31846
57 2 2.2208 8.11995 1.1171 2.56627
58 1 -1.1104 9.79454 -3.00855 4.00819
59 1 -1.1104 9.81082 2.64881 4.12295
60 2 2.2208 8.16532 -1.6079 5.42746
61 2 2.2208 8.23569 4.01201 5.38967
62 1 -1.1104 9.49718 -0.0611157 1.17209
63 1 -1.1104 9.49631 -0.351201 4.02935
64 2 2.2208 10.9749 6.83265 5.48535
65 1 -1.1104 12.6984 8.23828 1.09625
66 1 -1.1104 12.8273 8.54146 3.88975
67 1 -1.1104 12.3409 5.52996 1.0737
68 1 -1.1104 12.4676 5.50752 3.90931
69 1 -1.1104 9.84358 8.2811 1.19107
70 2 2.2208 8.29686 6.78267 2.59656
72 1 -1.1104 9.52685 5.41593 1.07163
73 1 -1.1104 9.6443 5.54603 4.01915
143 1 -1.1104 9.53855 2.78289 6.76844
139 1 -1.1104 12.2778 -3.04364 6.88996
335 2 2.2208 8.08778 3.97454 -0.234397
147 1 -1.1104 9.4163 8.11633 6.67465
83 1 -1.1104 7.00807 2.47834 6.8301
85 1 -1.1104 6.8518 -0.279612 6.80871
8965 2 2.2208 13.5779 1.2706 2.61153
177 2 2.2208 2.60207 4.10463 -0.176748
88 1 -1.1104 4.02101 -0.083611 6.7804
89 1 -1.1104 0.930352 8.20791 6.89774
87 1 -1.1104 4.04183 2.61573 6.85538
9010 2 2.2208 -0.345233 -4.52135 5.48178
80 1 -1.1104 1.04241 -3.15976 6.75632
86 1 -1.1104 4.01505 -2.82582 6.84935
94 1 -1.1104 4.05101 5.40854 7.06925
8852 2 2.2208 -0.256796 1.19825 11.0677
134 2 2.2208 -0.277535 -1.59128 8.26285
93 1 -1.1104 3.91048 8.47385 6.90069
91 1 -1.1104 1.08828 5.43846 7.02523
81 1 -1.1104 1.11795 2.57393 6.82804
84 1 -1.1104 1.25569 -0.178721 6.89095
95 2 2.2208 5.35735 1.22561 11.0108
96 1 -1.1104 1.2428 -3.10026 12.2111
97 1 -1.1104 1.18316 2.65182 12.4107
100 1 -1.1104 1.29654 -2.98124 9.44961
101 1 -1.1104 1.07227 2.67925 9.81423
104 1 -1.1104 1.39186 -0.222652 12.4716
106 2 2.2208 5.47602 -1.69848 8.14683
107 2 2.2208 5.48213 3.94642 8.34669
108 1 -1.1104 1.18655 -0.102237 9.87769
110 1 -1.1104 4.09034 -3.0116 12.4918
111 1 -1.1104 3.98618 2.68284 12.3571
112 2 2.2208 2.44569 1.21571 8.31251
113 1 -1.1104 4.22912 -3.15396 9.56107
114 1 -1.1104 4.01735 2.61026 9.69655
115 2 2.2208 2.68169 -1.65477 11.0697
116 2 2.2208 2.50978 4.10089 11.2077
117 1 -1.1104 4.02759 -0.254817 12.3836
118 1 -1.1104 3.94552 -0.0569969 9.57329
119 2 2.2208 5.37224 6.72694 11.1152
120 1 -1.1104 1.24025 8.1563 12.4861
122 1 -1.1104 1.12796 8.33824 9.65223
124 1 -1.1104 1.10578 5.55546 12.5867
126 1 -1.1104 1.18915 5.45494 9.8348
128 1 -1.1104 4.0318 8.13019 12.6084
129 2 2.2208 2.62542 6.83174 8.38016
130 1 -1.1104 4.06005 8.11945 9.73594
131 1 -1.1104 3.97818 5.47437 12.507
132 1 -1.1104 3.84014 5.33156 9.5949
9024 2 2.2208 -0.245042 -4.32282 -0.154058
8857 2 2.2208 -0.264622 4.09495 8.36636
157 1 -1.1104 12.3693 2.70972 9.71176
150 1 -1.1104 9.55995 5.14717 12.6176
166 1 -1.1104 9.68676 2.57581 9.60784
164 2 2.2208 8.16253 1.13328 8.29194
161 1 -1.1104 12.5224 -0.132631 9.61021
162 1 -1.1104 9.67883 -2.78372 12.5593
168 2 2.2208 8.16157 3.9908 11.0818
140 1 -1.1104 12.4386 2.59357 6.97446
79 1 -1.1104 12.2156 5.45199 12.5536
170 1 -1.1104 9.64843 -0.198356 9.44765
103 1 -1.1104 6.92521 2.57073 9.64212
90 1 -1.1104 6.65655 8.02098 6.90245
154 1 -1.1104 12.4111 -2.89822 12.4395
171 2 2.2208 11.0087 6.68961 11.0884
149 1 -1.1104 9.61177 5.49826 6.88506
145 1 -1.1104 12.4004 8.35976 6.76443
165 1 -1.1104 9.78428 -3.00676 9.65462
163 1 -1.1104 9.44 2.60903 12.3763
92 1 -1.1104 6.89014 5.18783 6.91789
125 1 -1.1104 6.79434 5.32103 12.4943
121 1 -1.1104 6.88855 8.16423 12.332
127 1 -1.1104 6.71176 5.68479 9.61479
109 1 -1.1104 6.84001 -0.262132 9.69431
99 1 -1.1104 6.80047 2.58859 12.4087
123 1 -1.1104 6.96498 8.35727 9.64965
82 1 -1.1104 6.85725 -3.15704 6.79269
169 1 -1.1104 9.51324 -0.140304 12.2892
159 2 2.2208 11.0702 -1.51249 8.17822
141 1 -1.1104 12.3649 -0.200236 6.63117
142 1 -1.1104 9.57555 -3.02422 6.88962
146 1 -1.1104 12.422 5.45202 6.79184
167 2 2.2208 8.28435 -1.59745 10.9521
144 1 -1.1104 9.52775 -0.122678 6.77153
102 1 -1.1104 6.89405 -2.99391 9.66688
75 1 -1.1104 12.4647 5.57192 9.6156
98 1 -1.1104 6.81553 -3.08867 12.3754
153 2 2.2208 10.9632 1.25456 10.9134
105 1 -1.1104 6.72313 -0.133018 12.4766
155 1 -1.1104 12.3317 2.722 12.4646
158 1 -1.1104 12.6305 -0.144417 12.2668
148 1 -1.1104 9.70652 5.20516 9.84427
135 1 -1.1104 12.3799 8.21932 12.2206
156 1 -1.1104 12.5943 -3.12004 9.84778
160 2 2.2208 11.0198 3.99846 8.20454
133 1 -1.1104 12.5776 8.1954 9.56269
74 1 -1.1104 9.70651 8.09899 12.4098
151 1 -1.1104 9.69201 8.11174 9.67678
152 2 2.2208 8.25761 6.88229 8.25476
44 2 2.2208 5.36649 -4.41608 5.35123
77 2 2.2208 8.25281 -4.30387 2.61262
8847 2 2.2208 5.32766 -4.29034 -0.316082
8654 2 2.2208 11.2003 -4.36141 5.35843
41 2 2.2208 11.0777 -4.3437 11.1227
9009 2 2.2208 -0.185477 4.05414 2.79729
506 1 -1.1104 1.27311 8.40164 1.00811
179 2 2.2208 5.42317 1.25201 16.7161
180 1 -1.1104 1.02783 -2.80845 17.9795
181 1 -1.1104 1.14721 2.71772 18.1163
184 1 -1.1104 1.24421 -2.91903 15.1023
186 1 -1.1104 1.1611 2.4961 15.255
192 1 -1.1104 1.08526 -0.0298058 18.117
194 2 2.2208 5.35105 -1.51584 19.4851
195 2 2.2208 5.33078 4.05002 19.5393
196 1 -1.1104 1.19663 -0.0898149 15.2696
200 1 -1.1104 3.87879 -2.94884 18.2013
201 1 -1.1104 4.03798 2.62307 18.0823
202 2 2.2208 2.59697 1.28881 19.5018
203 1 -1.1104 4.03827 -3.09701 15.2847
205 1 -1.1104 3.94065 2.57772 15.2041
207 2 2.2208 2.61101 -1.605 16.666
208 2 2.2208 2.58187 3.98315 16.6503
209 1 -1.1104 3.96178 -0.105949 18.0823
210 1 -1.1104 4.0646 -0.324291 15.2118
212 2 2.2208 5.42553 6.69057 16.6919
213 1 -1.1104 1.23098 8.29508 18.106
215 1 -1.1104 1.17314 8.08576 15.3273
219 1 -1.1104 1.20617 5.48776 18.1748
221 1 -1.1104 1.2713 5.28634 15.3892
225 1 -1.1104 3.99255 7.97876 18.3786
226 2 2.2208 2.60532 6.72375 19.6367
229 1 -1.1104 3.89476 5.36323 18.1042
230 1 -1.1104 4.04888 5.38297 15.2636
227 1 -1.1104 4.14002 8.09411 15.3758
9186 2 2.2208 -0.251163 -1.50028 19.4622
238 2 2.2208 -0.196467 6.81505 16.7001
235 2 2.2208 -0.20289 1.22544 16.7628
234 2 2.2208 -0.187208 4.03076 19.5138
241 2 2.2208 2.5431 1.21453 13.8575
9022 2 2.2208 -0.187062 4.02637 13.8045
173 2 2.2208 2.60419 6.81775 13.9771
172 2 2.2208 -0.16501 -1.62304 13.7551
348 1 -1.1104 12.4002 -2.80526 23.6866
174 2 2.2208 5.55882 3.81078 13.7936
187 1 -1.1104 1.27182 2.60566 20.9694
198 1 -1.1104 6.86145 -0.199464 15.3322
188 1 -1.1104 6.73254 -2.93851 15.3898
214 1 -1.1104 6.77056 8.16335 17.9013
217 1 -1.1104 6.84855 8.15685 15.1159
220 1 -1.1104 6.76112 5.33378 18.148
182 1 -1.1104 6.87462 -2.9698 18.1721
190 1 -1.1104 6.86048 2.49113 15.193
183 1 -1.1104 6.80366 2.71132 17.9908
193 1 -1.1104 6.66272 -0.168248 18.0304
223 1 -1.1104 7.00115 5.33492 15.318
199 1 -1.1104 6.85978 -0.178377 20.9352
243 2 2.2208 11.0413 1.22017 16.6351
244 1 -1.1104 12.4357 -2.95799 17.8262
245 1 -1.1104 12.3447 2.5749 17.9386
246 1 -1.1104 12.2859 -3.23608 15.2167
248 1 -1.1104 12.3276 2.51463 15.1383
250 1 -1.1104 12.276 -0.189188 18.0311
251 2 2.2208 10.9286 -1.56421 19.4791
252 2 2.2208 11.0358 4.09725 19.3351
253 1 -1.1104 12.3198 -0.269379 15.0914
255 1 -1.1104 9.59152 -2.96485 18.1335
256 1 -1.1104 9.67923 2.66888 18.0919
257 2 2.2208 8.07109 1.1932 19.3189
258 1 -1.1104 9.4517 -3.11123 15.3001
260 1 -1.1104 9.55839 2.53307 15.2547
262 2 2.2208 8.19252 -1.61398 16.6978
263 2 2.2208 8.29143 4.0567 16.6481
264 1 -1.1104 9.53906 -0.0410069 17.9799
265 1 -1.1104 9.6488 -0.171942 15.1257
267 2 2.2208 11.1168 6.82347 16.4857
268 1 -1.1104 12.4551 8.32171 18.0581
269 1 -1.1104 12.3471 8.08209 15.0862
271 1 -1.1104 12.3134 5.60239 17.9961
272 1 -1.1104 12.4282 5.40895 15.1161
274 1 -1.1104 9.76115 8.16213 18.0375
275 2 2.2208 8.23005 6.65547 19.4579
276 1 -1.1104 9.75128 8.17918 15.2418
278 1 -1.1104 9.61813 5.3734 18.0829
279 1 -1.1104 9.7371 5.35563 15.2488
254 1 -1.1104 12.3414 -0.0960431 20.8953
270 1 -1.1104 12.3265 8.18622 20.9249
282 2 2.2208 10.824 -4.29139 16.8055
289 2 2.2208 11.0574 -1.52135 13.8376
352 1 -1.1104 12.2754 0.188666 23.6438
249 1 -1.1104 12.3251 2.65577 20.7117
247 1 -1.1104 12.4499 -2.74252 20.7165
277 1 -1.1104 9.63736 8.13885 20.8329
273 1 -1.1104 12.3682 5.43389 20.7273
185 1 -1.1104 1.14772 -2.88872 20.8617
211 1 -1.1104 3.9432 -0.0430062 20.9757
237 1 -1.1104 12.4556 8.15256 26.4775
231 1 -1.1104 3.78058 5.49302 21.0688
228 1 -1.1104 3.99199 8.20936 20.95
206 1 -1.1104 3.966 2.71904 20.8412
197 1 -1.1104 1.09459 -0.110229 20.9647
341 2 2.2208 -0.246402 1.29571 22.2581
204 1 -1.1104 3.86736 -2.88894 20.8487
222 1 -1.1104 1.10623 5.34164 21.0472
9053 2 2.2208 -0.333696 4.08442 25.2402
9143 2 2.2208 -0.338254 -1.53988 25.0688
216 1 -1.1104 1.24337 8.30214 21.1021
291 2 2.2208 5.49691 1.16357 22.3853
292 1 -1.1104 1.23059 -2.94999 23.7793
293 1 -1.1104 1.17045 2.76517 23.8967
296 1 -1.1104 0.917237 -2.85167 26.4946
297 1 -1.1104 0.94821 2.83286 26.697
300 1 -1.1104 1.20428 -0.063911 23.7447
302 2 2.2208 5.41629 -1.46861 25.0277
303 2 2.2208 5.47678 3.97166 25.0167
304 1 -1.1104 1.1026 0.0612815 26.6027
306 1 -1.1104 3.99401 -2.96703 23.7036
307 1 -1.1104 4.01615 2.65132 23.6412
308 2 2.2208 2.58637 1.30013 25.1797
309 1 -1.1104 3.89901 -2.94166 26.4196
310 1 -1.1104 4.0431 2.5746 26.402
311 2 2.2208 2.69191 -1.39235 22.2919
312 2 2.2208 2.53167 3.9629 22.4249
313 1 -1.1104 4.02828 -0.156196 23.757
314 1 -1.1104 4.00798 -0.0720812 26.5254
315 2 2.2208 5.28853 6.82137 22.2788
320 1 -1.1104 1.22688 5.63432 23.7663
322 1 -1.1104 1.13205 5.7357 26.457
324 1 -1.1104 4.04848 8.15806 23.5716
325 2 2.2208 2.67796 6.82082 25.0554
326 1 -1.1104 3.74545 8.13808 26.4929
327 1 -1.1104 3.97287 5.32896 23.8087
328 1 -1.1104 4.05428 5.41887 26.5963
9070 2 2.2208 -0.0953568 6.90411 22.3926
239 2 2.2208 5.50704 -1.54702 13.8731
290 2 2.2208 10.9434 3.95813 13.8725
340 1 -1.1104 12.4517 5.47913 26.3153
191 1 -1.1104 6.73452 2.53176 20.785
224 1 -1.1104 6.675 5.38856 20.8324
218 1 -1.1104 6.79475 8.08116 20.9438
280 1 -1.1104 9.6408 5.23631 20.7487
261 1 -1.1104 9.40693 2.54506 20.9942
346 2 2.2208 8.22258 6.82213 25.0397
355 1 -1.1104 12.4744 -0.0842152 26.5172
349 1 -1.1104 12.4283 2.86141 23.5137
350 1 -1.1104 12.549 -2.85772 26.5458
189 1 -1.1104 6.60383 -2.93785 20.9162
339 1 -1.1104 9.67565 8.19722 23.4862
294 1 -1.1104 6.65173 -3.03752 23.7003
301 1 -1.1104 6.82491 -0.264131 23.711
305 1 -1.1104 6.81698 -0.206881 26.4227
298 1 -1.1104 6.82513 -3.03961 26.4926
319 1 -1.1104 6.6836 8.11673 26.4437
295 1 -1.1104 6.93517 2.4931 23.6069
287 1 -1.1104 9.55324 -0.249333 26.3946
358 2 2.2208 8.23204 1.12443 25.147
318 1 -1.1104 9.54208 -0.179012 23.7711
266 1 -1.1104 9.64584 -0.190936 20.9572
259 1 -1.1104 9.55695 -2.87081 20.918
323 1 -1.1104 6.86175 5.45131 26.4244
299 1 -1.1104 6.71315 2.55595 26.4178
317 1 -1.1104 6.79002 8.07776 23.6579
321 1 -1.1104 6.76222 5.44601 23.642
359 1 -1.1104 9.67304 -2.95589 26.2721
347 2 2.2208 10.9761 1.40377 22.1833
240 1 -1.1104 12.4982 8.17985 23.7053
343 1 -1.1104 9.63418 5.39249 26.339
357 1 -1.1104 9.68887 2.4226 23.7915
332 2 2.2208 8.27975 -1.4707 22.284
353 2 2.2208 11.0642 -1.50318 25.141
344 1 -1.1104 9.55238 5.24864 23.6664
351 1 -1.1104 12.503 2.60324 26.3186
345 1 -1.1104 9.61977 8.26695 26.3207
242 2 2.2208 10.9364 6.72106 22.2084
354 2 2.2208 11.0075 4.02517 24.9946
356 1 -1.1104 9.54782 -2.98701 23.6961
331 2 2.2208 8.12886 3.99683 22.2381
342 1 -1.1104 12.2745 5.44092 23.5102
360 1 -1.1104 9.52019 2.73682 26.5397
8843 2 2.2208 2.64025 -4.36522 13.7574
288 2 2.2208 8.22786 1.09813 13.8431
8846 2 2.2208 -0.131425 -4.35686 22.1862
175 2 2.2208 8.2343 6.74344 13.8946
8760 2 2.2208 10.996 -4.44748 22.2759
8761 2 2.2208 8.27486 -4.36497 25.1184
316 1 -1.1104 1.1777 8.51618 24.2447
8848 2 2.2208 5.30374 -4.41195 22.2566
8842 2 2.2208 2.48247 -4.29236 19.5123
8845 2 2.2208 8.19391 -4.3402 19.5711
361 2 2.2208 5.54053 12.3022 5.35768
363 1 -1.1104 1.22904 10.9754 4.03005
366 2 2.2208 5.45347 9.46371 2.70646
368 2 2.2208 2.49235 9.52672 5.47763
369 1 -1.1104 4.11784 10.8737 1.26569
371 1 -1.1104 4.29997 10.5994 4.45032
372 2 2.2208 5.32041 17.9737 5.27615
373 1 -1.1104 0.916608 13.8621 0.94736
375 1 -1.1104 1.01127 19.5732 1.1107
380 1 -1.1104 1.07256 19.3084 3.80851
382 1 -1.1104 1.1807 16.6526 1.29716
385 2 2.2208 5.2296 15.2835 2.4625
386 2 2.2208 5.4024 20.9182 2.45405
389 1 -1.1104 4.14605 13.9191 0.243334
391 1 -1.1104 3.76659 19.4721 0.868731
393 2 2.2208 2.60933 18.2111 2.38396
394 1 -1.1104 4.43212 13.7975 3.95769
395 1 -1.1104 3.92092 19.8307 3.76711
397 2 2.2208 2.38603 20.9558 5.34076
398 1 -1.1104 3.88663 16.6235 1.06515
400 1 -1.1104 3.88628 16.9186 3.67726
9341 2 2.2208 -0.221464 9.58434 2.73417
9339 2 2.2208 -0.305215 20.8636 2.57474
520 2 2.2208 5.59289 12.2864 -0.102276
519 2 2.2208 2.93773 9.75213 -0.108934
9338 2 2.2208 -0.257099 18.0342 5.5055
505 2 2.2208 -0.249962 12.3343 11.0277
9340 2 2.2208 -0.220071 12.2338 5.45868
523 2 2.2208 11.0272 12.3926 -0.219133
392 1 -1.1104 3.97177 19.5345 6.71858
370 1 -1.1104 1.13644 10.8739 6.95092
401 2 2.2208 10.9392 18.0193 10.9773
388 1 -1.1104 6.64745 16.6292 3.88529
414 1 -1.1104 6.71103 16.6053 1.09106
413 1 -1.1104 6.63974 19.4663 3.867
412 1 -1.1104 6.76207 19.4824 1.13393
376 1 -1.1104 6.80596 13.7314 1.42497
364 1 -1.1104 6.9126 10.8833 1.14363
381 1 -1.1104 7.07573 13.681 4.19593
367 1 -1.1104 7.05037 10.9646 4.05884
402 2 2.2208 10.9296 12.5089 5.48773
403 1 -1.1104 12.6202 11.1066 1.2996
405 2 2.2208 10.9824 9.80885 2.78192
406 1 -1.1104 12.3753 11.2308 4.12946
407 2 2.2208 8.29881 12.3753 2.63507
408 2 2.2208 8.15899 9.62988 5.54316
409 1 -1.1104 9.68341 10.9126 1.26301
411 1 -1.1104 9.64278 11.0092 4.21586
415 2 2.2208 11.1419 17.9708 5.25209
416 1 -1.1104 12.4823 13.9096 1.03522
418 1 -1.1104 12.2852 19.4853 1.12768
420 1 -1.1104 12.4834 13.9714 3.82663
421 1 -1.1104 12.4033 19.4463 3.86923
422 1 -1.1104 12.4168 16.7056 1.00749
424 2 2.2208 11.0071 15.3032 2.55804
425 2 2.2208 10.8727 20.7313 2.50214
426 1 -1.1104 12.4421 16.7196 3.69819
427 1 -1.1104 9.52725 13.6238 0.993591
429 1 -1.1104 9.56452 19.3298 1.13462
431 2 2.2208 8.15076 18.0183 2.47665
432 1 -1.1104 9.803 13.8906 3.83282
433 1 -1.1104 9.66967 19.3621 3.95171
434 2 2.2208 8.22152 15.2611 5.40934
435 2 2.2208 8.20704 20.8384 5.2011
436 1 -1.1104 9.69033 16.4471 1.06136
438 1 -1.1104 9.60164 16.6905 3.78971
518 2 2.2208 2.45843 15.273 -0.466217
524 2 2.2208 8.29234 9.61056 -0.189481
365 1 -1.1104 6.65677 10.8348 6.86468
423 1 -1.1104 12.5494 16.6976 6.63907
378 1 -1.1104 6.87445 19.4138 6.63951
9342 2 2.2208 -0.312705 15.1705 2.3049
9344 2 2.2208 -0.281189 20.8939 8.03915
377 1 -1.1104 6.74778 13.6635 6.88847
383 1 -1.1104 1.10842 16.6447 6.66311
390 1 -1.1104 4.04715 11.4121 7.06214
478 2 2.2208 -0.251089 15.2439 7.9836
477 2 2.2208 -0.211817 17.9714 10.9898
457 1 -1.1104 1.18012 19.5459 6.82234
374 1 -1.1104 1.05445 13.577 6.7851
9326 2 2.2208 -0.332939 9.60387 8.39011
399 1 -1.1104 4.26267 16.7503 6.80006
441 1 -1.1104 4.07751 19.5857 12.2367
442 1 -1.1104 3.91766 13.7845 12.338
446 1 -1.1104 1.30864 19.4057 9.49478
447 1 -1.1104 0.998635 16.6277 9.42635
448 2 2.2208 5.24872 20.9737 8.13159
449 1 -1.1104 1.12023 13.7076 9.64303
450 2 2.2208 5.59469 15.4055 8.24019
453 1 -1.1104 1.30438 19.3064 12.344
454 1 -1.1104 1.10729 13.7817 12.3923
455 2 2.2208 5.43559 18.0541 10.8758
456 1 -1.1104 3.9717 19.4479 9.51751
458 2 2.2208 2.6002 17.9303 8.02801
459 1 -1.1104 3.91087 16.6257 9.55642
460 1 -1.1104 4.09121 13.7978 9.26595
462 1 -1.1104 1.21929 16.4565 12.1543
463 1 -1.1104 3.91036 16.6258 12.351
464 2 2.2208 2.46535 20.743 10.9436
465 2 2.2208 5.3901 12.3632 10.919
466 1 -1.1104 1.20548 10.905 12.5595
468 2 2.2208 2.52791 15.2421 10.7993
469 2 2.2208 5.31628 9.66876 8.26663
470 1 -1.1104 1.27933 10.995 9.86131
472 2 2.2208 2.36491 12.3692 8.26666
473 2 2.2208 2.58243 9.53927 11.1343
474 1 -1.1104 4.15226 10.9651 12.3722
475 1 -1.1104 4.01733 10.8423 9.70086
515 2 2.2208 8.23267 18.0075 13.7208
482 2 2.2208 8.21509 15.2459 10.9968
488 1 -1.1104 12.4037 16.7725 9.53784
493 2 2.2208 11.04 15.331 8.15198
489 2 2.2208 11.0147 20.9649 8.24539
384 1 -1.1104 6.94209 16.6399 6.79401
428 1 -1.1104 9.47465 13.8313 6.85061
417 1 -1.1104 12.404 13.8554 6.73095
404 1 -1.1104 12.4327 11.185 6.82268
419 1 -1.1104 12.5346 19.428 6.85539
481 2 2.2208 8.13685 20.8241 10.7874
362 1 -1.1104 12.4729 10.9798 9.5536
497 1 -1.1104 12.5837 13.8585 9.62371
443 1 -1.1104 6.86863 19.4538 9.49093
451 1 -1.1104 6.87761 19.381 12.1947
452 1 -1.1104 6.6563 13.811 12.3805
471 1 -1.1104 6.89392 11.0505 9.6083
467 1 -1.1104 6.94198 10.918 12.3345
445 1 -1.1104 6.83333 13.816 9.53063
483 1 -1.1104 9.6167 19.3372 9.56618
485 2 2.2208 8.25723 18.0236 8.08983
484 1 -1.1104 9.66654 13.9393 9.62491
487 1 -1.1104 9.56146 13.7715 12.4177
430 1 -1.1104 9.64798 19.4456 6.66834
437 1 -1.1104 9.76647 16.5619 6.62262
410 1 -1.1104 9.65962 10.8558 6.91024
396 2 2.2208 11.0954 12.502 10.932
496 1 -1.1104 12.407 19.4539 9.63282
387 1 -1.1104 12.492 10.9726 12.4388
495 1 -1.1104 9.64561 11.103 12.3975
494 1 -1.1104 12.4776 16.6929 12.22
486 1 -1.1104 9.56186 19.4398 12.319
461 1 -1.1104 6.68762 16.7451 12.274
444 1 -1.1104 6.87366 16.6426 9.59131
379 2 2.2208 11.1304 9.59899 8.33478
479 1 -1.1104 9.71405 16.7286 9.39526
440 1 -1.1104 12.3843 13.9159 12.3721
498 2 2.2208 8.23081 9.64646 11.1448
492 1 -1.1104 9.73173 11.0422 9.63718
476 1 -1.1104 12.2495 19.3531 12.4608
480 1 -1.1104 9.67835 16.5527 12.2937
491 2 2.2208 8.07914 12.4151 8.26479
649 2 2.2208 8.17375 20.9315 -0.412336
507 2 2.2208 5.34604 20.932 13.7889
645 2 2.2208 2.36429 21.0362 -0.382425
9353 2 2.2208 -0.18993 12.4659 -0.382318
527 2 2.2208 5.42649 12.398 16.6248
528 1 -1.1104 1.21217 10.9511 18.2592
530 2 2.2208 5.3325 9.54887 19.5621
531 1 -1.1104 1.23811 10.9398 15.2927
535 2 2.2208 2.64866 12.392 19.4344
536 2 2.2208 2.59643 9.51711 16.6374
537 1 -1.1104 4.0153 10.9196 18.0765
538 1 -1.1104 3.93836 10.8472 15.2455
540 2 2.2208 5.40352 18.0207 16.5549
541 1 -1.1104 1.25433 13.7349 17.9212
542 1 -1.1104 1.17919 19.4216 17.9334
545 1 -1.1104 1.23009 13.8296 15.1994
547 1 -1.1104 0.959437 19.3333 15.1015
553 1 -1.1104 1.18849 16.591 17.9554
555 2 2.2208 5.38633 15.3263 19.3921
556 2 2.2208 5.25795 20.9044 19.3917
557 1 -1.1104 1.11484 16.5639 15.1973
561 1 -1.1104 4.07498 13.748 18.2767
562 1 -1.1104 3.8809 19.3123 17.9542
563 2 2.2208 2.5623 18.1136 19.3386
564 1 -1.1104 4.04162 13.6901 15.1517
566 1 -1.1104 3.7764 19.5206 15.2672
568 2 2.2208 2.56 15.2016 16.7178
569 2 2.2208 2.48343 20.8668 16.6062
570 1 -1.1104 3.94742 16.5925 17.7502
571 1 -1.1104 3.88994 16.5252 15.0681
539 1 -1.1104 3.89192 10.881 20.8572
572 1 -1.1104 3.72473 16.4274 20.4473
578 2 2.2208 -0.0918309 9.62048 19.4869
614 2 2.2208 -0.0968958 12.3661 16.6029
9455 2 2.2208 -0.129132 15.3619 19.4201
510 2 2.2208 -0.31417 20.892 13.7913
512 2 2.2208 11.13 9.53923 13.7419
522 2 2.2208 8.05775 15.2095 27.8489
9405 2 2.2208 -0.36747 18.1132 22.3851
573 2 2.2208 5.34991 15.189 13.739
508 2 2.2208 5.44512 9.49663 13.7703
554 1 -1.1104 6.75084 16.6997 17.816
544 1 -1.1104 6.60461 19.5548 17.9293
533 1 -1.1104 6.65585 10.9551 15.2863
559 1 -1.1104 6.8498 16.5336 14.8905
543 1 -1.1104 6.90223 13.8785 17.8863
549 1 -1.1104 6.84881 13.8019 15.0867
529 1 -1.1104 6.82011 10.9377 18.153
551 1 -1.1104 6.74005 19.2993 15.0606
580 2 2.2208 11.0231 12.4271 16.6587
581 1 -1.1104 12.5477 11.0625 18.035
582 2 2.2208 11.0174 9.60951 19.3552
583 1 -1.1104 12.4544 11.0062 15.162
585 2 2.2208 8.22079 12.5053 19.5114
586 2 2.2208 8.23264 9.58224 16.6168
587 1 -1.1104 9.52317 11.011 17.9454
588 1 -1.1104 9.56978 10.8824 15.225
590 2 2.2208 10.8956 18.0255 16.5571
591 1 -1.1104 12.4382 13.8256 18.0361
592 1 -1.1104 12.2268 19.4848 17.898
593 1 -1.1104 12.3374 13.9811 15.3691
595 1 -1.1104 12.1873 19.4731 15.1159
597 1 -1.1104 12.2838 16.7449 18.0239
598 2 2.2208 11.0165 15.2643 19.3823
599 2 2.2208 10.8999 20.9268 19.3284
600 1 -1.1104 12.4842 16.6751 15.0584
602 1 -1.1104 9.67688 13.7936 18.1673
603 1 -1.1104 9.51209 19.4667 17.9915
604 2 2.2208 8.25502 18.0654 19.3778
605 1 -1.1104 9.65186 13.6023 15.1908
607 1 -1.1104 9.3779 19.3701 15.1893
609 2 2.2208 8.15885 15.1581 16.5159
610 2 2.2208 8.1492 20.8826 16.6069
611 1 -1.1104 9.44152 16.6084 17.9887
612 1 -1.1104 9.59782 16.5821 15.1113
517 2 2.2208 10.9909 15.1913 13.7865
550 1 -1.1104 6.73529 13.7625 20.683
560 1 -1.1104 6.64997 16.7608 20.6492
589 1 -1.1104 9.56144 10.8749 20.7183
601 1 -1.1104 12.502 16.5969 20.5982
9460 2 2.2208 -0.335076 18.0792 16.6172
620 1 -1.1104 6.89939 16.8826 26.5809
9396 2 2.2208 -0.398565 9.65631 25.2154
574 2 2.2208 2.74881 12.4367 13.7105
546 1 -1.1104 1.22091 13.8115 20.5642
567 1 -1.1104 3.8225 19.4815 20.736
646 2 2.2208 5.2869 18.1237 27.7261
651 2 2.2208 -0.290064 15.1954 24.9435
513 2 2.2208 -0.256306 9.55125 13.7545
558 1 -1.1104 1.09453 16.911 20.7741
548 1 -1.1104 1.0178 19.6372 20.8792
668 1 -1.1104 9.81377 10.8973 26.5182
532 1 -1.1104 1.22435 10.9828 21.2682
565 1 -1.1104 3.914 13.6984 21.5637
618 1 -1.1104 3.90117 19.6319 23.5186
621 1 -1.1104 0.957494 19.4759 26.4003
622 1 -1.1104 0.846029 16.6007 26.5958
623 1 -1.1104 1.07554 13.8032 26.3889
625 2 2.2208 5.31061 20.7661 24.9438
627 1 -1.1104 1.16861 19.4467 23.5184
628 1 -1.1104 1.09115 13.9384 23.4531
629 2 2.2208 5.2818 18.132 22.1958
630 1 -1.1104 3.64544 19.6268 26.186
631 2 2.2208 2.58479 18.1718 24.8296
632 1 -1.1104 3.63177 16.8985 26.4091
634 1 -1.1104 0.979749 16.7134 23.7072
635 1 -1.1104 3.68279 16.8858 23.1941
636 2 2.2208 2.49191 20.9685 22.2523
637 2 2.2208 5.40567 12.242 22.3649
639 2 2.2208 2.39431 15.3613 22.1959
640 2 2.2208 5.40101 9.60938 25.1195
642 2 2.2208 2.62859 9.5484 22.3461
643 1 -1.1104 3.86124 10.867 23.6928
644 1 -1.1104 4.30819 10.9319 26.5766
576 1 -1.1104 0.93246 10.4757 27.0994
653 2 2.2208 -0.480281 20.9323 24.9813
511 2 2.2208 -0.231852 15.1427 13.7746
575 2 2.2208 2.57104 18.056 13.7335
633 1 -1.1104 6.83565 16.8191 23.2665
660 2 2.2208 8.02116 15.1761 22.2556
658 1 -1.1104 9.58759 16.5575 23.4775
675 2 2.2208 8.22396 9.53229 22.1389
676 2 2.2208 8.16978 12.5351 25.0468
681 1 -1.1104 12.5002 10.981 23.6965
608 1 -1.1104 9.51083 19.5272 20.8627
606 1 -1.1104 9.71271 13.9278 20.8232
552 1 -1.1104 6.75721 19.4657 20.667
596 1 -1.1104 12.1476 19.4339 20.7177
674 1 -1.1104 9.54777 10.9245 23.5758
671 1 -1.1104 12.4504 16.6859 23.3715
667 1 -1.1104 12.6831 16.7294 26.176
661 1 -1.1104 9.49451 19.5097 26.3623
666 1 -1.1104 9.62946 13.7314 23.5204
657 1 -1.1104 9.72873 16.7475 26.2759
682 2 2.2208 11.0756 9.75877 24.9387
672 1 -1.1104 12.307 19.4628 26.38
665 1 -1.1104 9.47805 19.4063 23.6035
678 1 -1.1104 12.4493 13.778 23.6297
659 2 2.2208 8.1471 20.8675 22.1303
534 1 -1.1104 6.6301 10.9243 21.0169
670 2 2.2208 11.043 15.2555 25.0397
613 1 -1.1104 9.75841 16.7657 20.7473
594 1 -1.1104 12.5589 13.765 20.8355
680 2 2.2208 10.9855 12.6219 22.1548
677 1 -1.1104 12.2807 19.5034 23.6105
679 2 2.2208 10.8877 18.0196 22.2257
663 1 -1.1104 6.63577 19.6503 26.4006
664 2 2.2208 8.06188 18.0377 24.893
638 1 -1.1104 6.70163 10.8074 23.8272
655 1 -1.1104 12.4702 10.9814 26.4623
673 1 -1.1104 12.4141 13.8393 26.4402
584 1 -1.1104 12.3189 11.0637 20.8664
624 1 -1.1104 6.64997 19.5681 23.5654
641 1 -1.1104 6.93335 10.954 26.608
619 1 -1.1104 6.9836 13.6874 26.6045
662 1 -1.1104 9.65972 13.8967 26.4111
669 2 2.2208 10.8729 20.8671 24.8835
626 1 -1.1104 6.88054 13.6163 23.4361
579 2 2.2208 -0.152709 20.9072 19.3772
525 2 2.2208 10.9507 18.0197 27.6427
516 2 2.2208 10.9016 20.9233 13.8647
509 2 2.2208 8.17089 12.4028 13.8308
683 2 2.2208 5.3928 23.6936 5.25879
684 2 2.2208 5.42444 29.3011 5.25938
685 1 -1.1104 1.10347 25.2838 1.08879
686 1 -1.1104 1.14431 25.0599 3.8405
687 1 -1.1104 0.905867 22.3815 1.23235
688 1 -1.1104 1.27936 28.026 0.935989
689 2 2.2208 5.38287 26.4788 2.4787
690 1 -1.1104 1.04139 22.246 3.97781
691 1 -1.1104 1.25144 27.8886 3.88298
692 1 -1.1104 4.04103 25.0179 1.08112
693 2 2.2208 2.51289 23.5831 2.49217
694 2 2.2208 2.56339 29.2921 2.45681
695 1 -1.1104 3.89345 25.2907 3.74828
696 2 2.2208 2.55669 26.4459 5.31185
697 1 -1.1104 3.80691 22.2459 1.07577
698 1 -1.1104 4.12173 27.9162 1.01023
699 1 -1.1104 3.89761 22.4119 3.73105
700 1 -1.1104 4.0521 28.0234 3.95815
701 1 -1.1104 1.31409 30.945 1.18405
702 1 -1.1104 1.15191 30.5412 3.92074
703 1 -1.1104 1.21273 33.7077 0.966695
704 2 2.2208 5.46705 32.1236 2.62711
705 1 -1.1104 1.17407 33.4713 3.8388
707 1 -1.1104 4.06296 30.6832 1.13668
708 1 -1.1104 3.97701 30.8413 3.93776
709 2 2.2208 2.66318 32.0976 5.17087
710 1 -1.1104 3.92559 33.5162 1.1457
711 1 -1.1104 3.95964 33.6328 3.90902
740 1 -1.1104 6.92618 30.8404 0.985867
9674 2 2.2208 -0.395803 32.0865 2.46056
9673 2 2.2208 -0.184556 26.5074 2.46929
9672 2 2.2208 -0.332631 23.7453 5.25797
762 1 -1.1104 3.90788 25.242 6.6356
9834 2 2.2208 -0.227754 23.657 -0.300001
9671 2 2.2208 -0.226417 29.3103 5.36723
721 1 -1.1104 6.8004 27.8472 3.85182
849 2 2.2208 8.20365 26.4548 -0.349027
858 2 2.2208 5.43175 29.2661 -0.235735
914 2 2.2208 10.9139 23.6855 -0.298054
990 2 2.2208 5.32499 23.7134 -0.341767
856 2 2.2208 2.56893 26.4768 -0.30052
706 1 -1.1104 6.90503 33.4318 3.95582
716 1 -1.1104 6.89046 25.1198 1.004
719 1 -1.1104 6.84605 28.0027 1.05327
720 1 -1.1104 6.68052 22.2089 3.88934
742 1 -1.1104 6.77032 33.6998 1.35532
718 1 -1.1104 6.90915 22.2757 1.11863
741 1 -1.1104 6.89212 30.5869 3.9392
717 1 -1.1104 6.69436 25.008 3.8251
722 2 2.2208 11.0043 23.7111 5.31343
723 2 2.2208 11.1623 29.2389 5.24261
724 1 -1.1104 12.4147 25.0509 1.09596
725 1 -1.1104 12.3283 25.113 3.93465
726 1 -1.1104 12.4377 22.3658 1.27479
727 1 -1.1104 12.4859 27.8471 1.17543
728 2 2.2208 11.2051 26.5219 2.34217
729 1 -1.1104 12.4511 22.2702 4.01708
730 1 -1.1104 12.4226 27.9251 3.9482
731 1 -1.1104 9.6413 25.1055 1.12809
732 2 2.2208 8.20872 23.7068 2.57016
733 2 2.2208 8.20495 29.4318 2.4382
734 1 -1.1104 9.53304 25.0498 4.0909
735 2 2.2208 8.21248 26.5905 5.15271
736 1 -1.1104 9.67177 22.091 1.08459
737 1 -1.1104 9.68379 28.0234 1.12578
738 1 -1.1104 9.42308 22.3306 3.80482
739 1 -1.1104 9.64935 27.9286 3.89884
743 1 -1.1104 12.3917 30.7261 1.15448
744 1 -1.1104 12.411 30.7248 3.91143
745 1 -1.1104 12.5547 33.464 1.19396
746 2 2.2208 11.0153 32.2132 2.53679
747 1 -1.1104 12.4432 33.5052 3.98561
748 1 -1.1104 9.62348 30.8587 1.02743
749 1 -1.1104 9.63568 30.649 3.74699
750 2 2.2208 8.34989 32.1185 5.29003
751 1 -1.1104 9.48492 33.6577 1.14441
752 1 -1.1104 9.77688 33.4848 3.9356
810 1 -1.1104 12.1905 22.0481 6.68476
814 1 -1.1104 9.75946 27.9518 6.63827
855 2 2.2208 8.34361 32.2899 -0.424793
712 1 -1.1104 9.56743 33.6478 9.52223
837 1 -1.1104 12.3652 30.7192 12.4697
761 1 -1.1104 6.95667 27.9026 6.73221
754 1 -1.1104 9.5025 30.6342 12.3827
759 1 -1.1104 1.10839 27.8761 6.75279
763 1 -1.1104 3.9524 22.377 6.69988
767 1 -1.1104 1.1938 33.6005 6.74728
765 1 -1.1104 1.16888 30.6428 6.70001
770 1 -1.1104 3.96638 33.628 6.72439
758 1 -1.1104 1.09488 22.3703 6.67384
756 1 -1.1104 1.16573 25.0214 6.67619
840 2 2.2208 10.9979 32.165 8.07414
764 1 -1.1104 4.15089 27.919 6.72295
769 1 -1.1104 3.97862 30.7468 6.77927
771 2 2.2208 5.36243 23.6824 10.9542
772 2 2.2208 5.4078 29.2803 10.8875
773 1 -1.1104 1.08645 25.0965 12.425
775 1 -1.1104 1.37634 25.0997 9.50587
777 1 -1.1104 1.04545 22.0957 12.3876
778 1 -1.1104 1.31436 27.8279 12.4013
781 2 2.2208 5.42968 26.5479 8.11781
782 1 -1.1104 0.922845 22.0884 9.55183
783 1 -1.1104 1.27683 27.8517 9.59748
786 1 -1.1104 3.78751 25.0481 12.3247
787 2 2.2208 2.58065 23.7057 8.1384
788 2 2.2208 2.61626 29.1623 8.16559
789 1 -1.1104 3.98365 25.0983 9.65116
790 2 2.2208 2.58814 26.4858 10.9662
791 1 -1.1104 3.8798 22.2213 12.2514