ITEM: TIMESTEP
100000
ITEM: NUMBER OF ATOMS
17820
ITEM: BOX BOUNDS pp pp pp
-3.6155369805422133e-01 2.7701553698054450e+01
-4.2257740268164294e+00 3.3230577402681092e+02
-3.6949667565171224e-01 2.7709496675651366e+01
ITEM: ATOMS id type q x y z
1 2 2.2208 5.10701 1.46533 5.30177
2 1 -1.1104 0.964846 -2.83501 1.04567
3 1 -1.1104 1.05243 2.97132 1.17601
6 1 -1.1104 1.15505 -2.61627 3.82442
7 1 -1.1104 0.855119 2.8371 3.95724
10 1 -1.1104 0.93736 0.239681 1.1718
12 2 2.2208 5.16059 -1.26336 2.55338
13 2 2.2208 5.31745 4.1881 2.4701
14 1 -1.1104 0.946045 -0.0409242 3.94686
16 1 -1.1104 3.78174 -2.74694 1.06001
17 1 -1.1104 3.88777 2.83613 1.12235
18 2 2.2208 2.30394 1.4651 2.54498
19 1 -1.1104 3.87329 -2.61577 3.85543
20 1 -1.1104 3.51116 2.77769 3.95724
21 2 2.2208 2.36022 -1.35783 5.28774
22 2 2.2208 2.29298 4.24428 5.37452
23 1 -1.1104 3.78576 -0.0330692 0.94638
24 1 -1.1104 3.73007 0.0166458 3.86743
25 2 2.2208 5.09277 7.06146 5.26684
30 1 -1.1104 1.01155 5.73934 0.482865
32 1 -1.1104 0.977916 5.55711 3.60528
34 1 -1.1104 3.8184 8.22977 0.941326
35 2 2.2208 2.4587 6.9801 2.35131
36 1 -1.1104 3.78439 8.23194 3.85096
37 1 -1.1104 3.81406 5.64321 1.07119
38 1 -1.1104 3.74083 5.45989 3.95497
28 1 -1.1104 0.986752 8.42489 3.8314
178 2 2.2208 5.13368 6.98488 -0.518696
330 2 2.2208 2.41371 -1.40722 -0.360172
506 1 -1.1104 0.973266 8.62655 1.05776
177 2 2.2208 2.55119 4.17639 -0.2782
8655 2 2.2208 2.45307 -4.19251 8.0141
44 2 2.2208 5.18231 -4.21698 5.1281
11 1 -1.1104 6.32604 0.14102 1.05961
15 1 -1.1104 6.58146 -0.134477 3.96001
9 1 -1.1104 6.49944 2.81081 3.93522
27 1 -1.1104 6.62554 8.39811 0.806213
31 1 -1.1104 6.57334 5.42125 1.06668
5 1 -1.1104 6.55891 2.76979 1.06057
29 1 -1.1104 6.67425 8.33737 3.76084
86 1 -1.1104 3.79957 -2.72063 6.62746
91 1 -1.1104 1.05937 5.54869 6.78128
81 1 -1.1104 0.956132 2.87222 6.75259
8654 2 2.2208 10.9207 -4.35119 5.19383
8875 2 2.2208 13.6238 -1.35892 5.19241
9011 2 2.2208 13.7001 -1.309 10.8654
76 2 2.2208 13.4385 6.92252 2.47298
4 1 -1.1104 6.68781 -2.80658 1.15702
136 2 2.2208 13.4697 4.08715 5.35454
8 1 -1.1104 6.60649 -2.87626 3.8881
33 1 -1.1104 6.70802 5.66606 3.84587
71 1 -1.1104 9.48476 8.27567 3.95239
46 2 2.2208 10.7292 1.36525 5.16565
47 1 -1.1104 12.3233 -2.70405 1.18257
48 1 -1.1104 12.2381 2.78464 0.96654
49 1 -1.1104 12.1481 -2.76737 3.80412
50 1 -1.1104 12.0426 3.02219 3.75519
51 1 -1.1104 12.1063 0.0700611 1.02946
52 2 2.2208 10.7989 -1.38089 2.37021
53 2 2.2208 10.6501 4.22538 2.31948
54 1 -1.1104 12.2521 0.0501284 3.80782
55 1 -1.1104 9.4349 -2.84844 1.18431
56 1 -1.1104 9.41359 2.8168 0.87222
57 2 2.2208 7.8952 1.48784 2.39358
58 1 -1.1104 9.33994 -2.81087 3.83401
59 1 -1.1104 9.3098 2.90603 3.72639
60 2 2.2208 7.93036 -1.49219 5.27726
61 2 2.2208 8.06979 4.22935 5.32393
62 1 -1.1104 9.28979 0.000520792 1.05108
63 1 -1.1104 9.26042 0.0395224 3.82912
64 2 2.2208 10.727 7.06847 5.27412
66 1 -1.1104 12.4521 8.41445 3.86712
67 1 -1.1104 12.143 5.64533 1.02401
68 1 -1.1104 12.1304 5.69037 3.92888
69 1 -1.1104 9.49535 8.48545 1.11027
70 2 2.2208 8.03195 7.01873 2.44446
72 1 -1.1104 9.41413 5.67695 1.01333
73 1 -1.1104 9.42439 5.70953 3.73098
65 1 -1.1104 12.5839 8.47282 0.946202
335 2 2.2208 8.0068 4.33716 -0.3741
8759 2 2.2208 10.839 -4.22771 -0.247285
77 2 2.2208 7.99956 -4.15672 2.55479
153 2 2.2208 10.7788 1.46831 10.9229
145 1 -1.1104 12.0461 8.39408 6.75041
84 1 -1.1104 1.01899 0.160455 6.75966
80 1 -1.1104 1.04378 -2.79055 6.56395
87 1 -1.1104 3.89834 2.93851 6.57475
92 1 -1.1104 6.55572 5.87829 6.75229
94 1 -1.1104 3.69875 5.76861 6.75688
93 1 -1.1104 3.65848 8.51968 6.63818
88 1 -1.1104 3.86985 0.0395285 6.68466
89 1 -1.1104 0.801865 8.37561 6.62341
95 2 2.2208 5.09997 1.55891 10.8851
96 1 -1.1104 0.994694 -2.78573 12.2224
97 1 -1.1104 1.09146 2.86759 12.3341
100 1 -1.1104 1.15056 -2.70469 9.47954
101 1 -1.1104 0.86673 2.8391 9.53527
104 1 -1.1104 0.970564 0.0156415 12.4361
106 2 2.2208 5.24443 -1.49487 8.04063
107 2 2.2208 5.23165 4.40707 8.044
108 1 -1.1104 0.956341 0.0628506 9.57185
110 1 -1.1104 3.86854 -2.81284 12.3934
111 1 -1.1104 3.84094 2.89355 12.2788
112 2 2.2208 2.4777 1.48623 8.13205
113 1 -1.1104 3.85718 -2.83684 9.53267
114 1 -1.1104 3.82087 2.93556 9.40756
115 2 2.2208 2.42676 -1.49902 11.0024
116 2 2.2208 2.32458 4.25221 10.9512
117 1 -1.1104 3.84021 0.0494583 12.403
118 1 -1.1104 3.84223 -0.0110339 9.47327
119 2 2.2208 5.00258 7.05299 10.9511
120 1 -1.1104 0.766745 8.36092 12.331
122 1 -1.1104 0.815821 8.54981 9.511
124 1 -1.1104 0.877777 5.70126 12.1654
126 1 -1.1104 0.930924 5.79771 9.51582
128 1 -1.1104 3.53426 8.45876 12.2819
129 2 2.2208 2.36558 7.01097 8.0828
130 1 -1.1104 3.55163 8.3918 9.51757
131 1 -1.1104 3.74413 5.71146 12.4926
132 1 -1.1104 3.73955 5.57175 9.57244
125 1 -1.1104 6.52598 5.66088 12.318
8977 2 2.2208 -0.534544 6.99024 10.8966
137 2 2.2208 5.28857 -4.21945 10.8239
127 1 -1.1104 6.61998 5.71041 9.49847
85 1 -1.1104 6.51904 -0.00364756 6.70348
83 1 -1.1104 6.71973 3.06384 6.77458
102 1 -1.1104 6.6592 -2.72881 9.57993
123 1 -1.1104 6.47206 8.46009 9.50384
90 1 -1.1104 6.40482 8.61759 6.61201
109 1 -1.1104 6.53066 0.223603 9.44031
169 1 -1.1104 9.43964 0.0807367 12.3671
42 2 2.2208 7.95752 -4.22225 8.01877
8857 2 2.2208 -0.548388 4.27068 8.22085
26 2 2.2208 13.7079 7.12556 7.99327
78 2 2.2208 13.5645 4.22639 10.8896
165 1 -1.1104 9.29783 -2.71282 9.46695
82 1 -1.1104 6.58981 -2.86412 6.74826
98 1 -1.1104 6.54673 -2.6811 12.3332
105 1 -1.1104 6.4419 0.0438193 12.3599
135 1 -1.1104 12.1887 8.2203 12.1847
133 1 -1.1104 12.3381 8.27318 9.49568
150 1 -1.1104 9.30694 5.67844 12.3367
156 1 -1.1104 12.2952 -2.74104 9.4143
121 1 -1.1104 6.30961 8.57209 12.2301
155 1 -1.1104 12.256 2.78306 12.3323
158 1 -1.1104 12.2665 -0.0435241 12.3397
166 1 -1.1104 9.42044 2.74116 9.4413
140 1 -1.1104 12.22 2.74599 6.80877
161 1 -1.1104 12.2171 0.0240893 9.52081
103 1 -1.1104 6.68848 2.94265 9.56712
163 1 -1.1104 9.31259 2.90188 12.2496
152 2 2.2208 7.9337 7.2552 8.06915
162 1 -1.1104 9.4057 -2.97572 12.3262
171 2 2.2208 10.7212 7.04153 10.8265
148 1 -1.1104 9.45785 5.67937 9.43232
99 1 -1.1104 6.6249 2.8474 12.4568
170 1 -1.1104 9.47547 -0.0278929 9.46308
154 1 -1.1104 12.3291 -2.81499 12.2141
75 1 -1.1104 12.2168 5.51332 9.29193
160 2 2.2208 10.9069 4.12375 7.99711
159 2 2.2208 10.765 -1.42877 8.11685
142 1 -1.1104 9.42815 -2.83336 6.55307
143 1 -1.1104 9.48556 2.73712 6.53362
74 1 -1.1104 9.24512 8.33113 12.1216
164 2 2.2208 7.97235 1.51123 8.02192
151 1 -1.1104 9.44684 8.50181 9.29145
168 2 2.2208 8.10046 4.32501 10.8836
79 1 -1.1104 12.113 5.57428 12.3375
157 1 -1.1104 12.3097 2.79902 9.5409
167 2 2.2208 7.90853 -1.16533 10.8421
147 1 -1.1104 9.29732 8.40262 6.63546
144 1 -1.1104 9.39396 -0.0370375 6.62127
146 1 -1.1104 12.1243 5.69317 6.59308
141 1 -1.1104 12.1161 0.0230523 6.6628
139 1 -1.1104 12.2154 -2.97535 6.57818
149 1 -1.1104 9.38436 5.59636 6.67738
8965 2 2.2208 13.5075 1.56338 2.41712
45 2 2.2208 13.7041 1.39648 8.05153
9008 2 2.2208 -0.474603 1.49575 5.3509
39 2 2.2208 13.7423 -4.22784 8.04552
338 2 2.2208 10.6751 1.28183 -0.363248
241 2 2.2208 2.30837 1.40592 13.7375
290 2 2.2208 10.819 4.14837 13.7213
334 2 2.2208 10.8289 7.11371 -0.413584
329 2 2.2208 5.0748 1.36022 -0.400222
179 2 2.2208 5.14401 1.35458 16.5405
180 1 -1.1104 0.928921 -2.96328 17.9635
181 1 -1.1104 0.978213 2.75916 17.994
184 1 -1.1104 1.1109 -2.78576 15.0404
186 1 -1.1104 1.0002 2.83224 15.14
192 1 -1.1104 1.04362 -0.0703259 18.0752
194 2 2.2208 4.98546 -1.45926 19.325
195 2 2.2208 5.22831 4.13615 19.3094
196 1 -1.1104 1.04008 -0.0391565 15.292
200 1 -1.1104 3.71889 -2.8529 17.9241
201 1 -1.1104 3.76001 2.74008 18.112
202 2 2.2208 2.32323 1.31528 19.4016
203 1 -1.1104 3.83907 -2.7309 15.2328
205 1 -1.1104 3.72023 2.97106 15.1845
207 2 2.2208 2.3138 -1.40088 16.6033
208 2 2.2208 2.38123 4.29649 16.5062
209 1 -1.1104 3.63915 -0.0671518 17.9025
210 1 -1.1104 3.76493 0.100008 15.1292
212 2 2.2208 5.16344 7.03764 16.2692
213 1 -1.1104 0.925694 8.57306 17.8034
215 1 -1.1104 0.962079 8.30884 15.0194
219 1 -1.1104 1.02936 5.67791 17.8512
221 1 -1.1104 0.980752 5.47994 15.0211
225 1 -1.1104 3.90565 8.40559 17.7448
226 2 2.2208 2.41639 7.15037 19.1608
229 1 -1.1104 3.69654 5.61224 17.8617
230 1 -1.1104 3.80757 5.60315 15.2697
227 1 -1.1104 3.66813 8.38673 14.9524
8848 2 2.2208 5.19452 -4.28203 22.2227
173 2 2.2208 2.34442 7.059 13.6851
174 2 2.2208 5.18622 4.25191 13.6811
223 1 -1.1104 6.579 5.59316 15.103
232 2 2.2208 13.5268 4.23974 27.6708
190 1 -1.1104 6.56094 2.74105 15.1172
182 1 -1.1104 6.40208 -2.75329 18.0024
214 1 -1.1104 6.64126 8.35958 17.8782
220 1 -1.1104 6.5616 5.62394 17.9001
193 1 -1.1104 6.43454 -0.061182 17.9295
217 1 -1.1104 6.41274 8.369 14.9163
183 1 -1.1104 6.55994 2.706 17.9142
198 1 -1.1104 6.52134 -0.0487203 15.1713
187 1 -1.1104 0.943097 2.74453 20.7638
206 1 -1.1104 3.77772 2.74801 20.8828
185 1 -1.1104 0.995457 -2.85597 20.7873
216 1 -1.1104 1.10355 8.48124 20.5399
239 2 2.2208 5.19256 -1.33805 13.7305
8842 2 2.2208 2.32021 -4.3587 19.4007
9183 2 2.2208 13.5547 -1.35768 16.4904
188 1 -1.1104 6.58294 -2.97197 15.107
243 2 2.2208 10.8405 1.29278 16.6127
244 1 -1.1104 11.9959 -2.69901 17.9179
245 1 -1.1104 12.2305 2.82075 17.8107
246 1 -1.1104 12.3934 -3.11089 15.1523
248 1 -1.1104 12.2504 2.68779 15.0883
250 1 -1.1104 12.239 0.0733481 17.9509
251 2 2.2208 10.7198 -1.33743 19.2759
252 2 2.2208 10.6764 4.25354 19.3544
253 1 -1.1104 12.0401 -0.155686 15.0872
255 1 -1.1104 9.29842 -2.73021 17.9714
256 1 -1.1104 9.37868 2.68278 17.9246
257 2 2.2208 7.96286 1.3968 19.3037
258 1 -1.1104 9.40953 -2.83571 15.0251
260 1 -1.1104 9.35782 2.67117 15.1221
262 2 2.2208 7.79106 -1.50016 16.4269
263 2 2.2208 7.87382 4.19198 16.4864
264 1 -1.1104 9.31933 0.0187096 17.9164
265 1 -1.1104 9.19396 -0.132664 15.1077
267 2 2.2208 10.7803 6.92352 16.4335
268 1 -1.1104 12.219 8.42429 17.9194
269 1 -1.1104 12.0632 8.3487 15.1066
271 1 -1.1104 12.1867 5.444 17.948
272 1 -1.1104 12.1526 5.58636 15.1165
274 1 -1.1104 9.49825 8.36722 17.9209
275 2 2.2208 8.04454 7.02125 19.2356
276 1 -1.1104 9.21618 8.30975 14.9845
278 1 -1.1104 9.4148 5.52207 17.9138
279 1 -1.1104 9.36922 5.50706 15.1124
288 2 2.2208 7.98611 1.4602 13.7489
175 2 2.2208 7.90687 6.98434 13.6173
318 1 -1.1104 9.42277 -0.0823453 23.552
282 2 2.2208 10.7199 -4.1354 16.628
242 2 2.2208 10.8958 6.95642 21.9512
199 1 -1.1104 6.49528 -0.116444 20.695
270 1 -1.1104 12.3115 8.43849 20.703
281 2 2.2208 13.6109 4.21334 16.4801
283 2 2.2208 13.6146 6.93564 19.3615
289 2 2.2208 10.7592 -1.33201 13.6369
9015 2 2.2208 13.5562 1.44835 13.664
189 1 -1.1104 6.55682 -3.08462 20.7567
204 1 -1.1104 3.79072 -2.77124 20.7452
228 1 -1.1104 3.76107 8.49529 20.4938
197 1 -1.1104 0.86918 -0.0757893 20.8106
337 2 2.2208 2.40913 -4.20996 25.0361
231 1 -1.1104 3.63095 5.52556 20.7107
211 1 -1.1104 3.73745 -0.0772561 20.7974
222 1 -1.1104 0.924159 5.8381 20.8357
291 2 2.2208 5.16434 1.33696 22.0301
292 1 -1.1104 0.866179 -2.71982 23.5822
293 1 -1.1104 0.818334 2.91146 23.5082
296 1 -1.1104 0.784805 -2.77449 26.3449
297 1 -1.1104 1.00835 3.09755 26.4062
300 1 -1.1104 0.890037 0.185487 23.4652
302 2 2.2208 5.1772 -1.33259 24.823
303 2 2.2208 5.14033 4.18309 24.7086
304 1 -1.1104 0.855738 0.163616 26.3436
306 1 -1.1104 3.73284 -2.83294 23.5031
307 1 -1.1104 3.76986 2.73481 23.5867
308 2 2.2208 2.31075 1.41808 24.9141
309 1 -1.1104 3.79764 -2.64386 26.3957
310 1 -1.1104 3.79465 2.91716 26.4252
311 2 2.2208 2.33398 -1.44263 22.1775
312 2 2.2208 2.34457 4.18714 22.0964
313 1 -1.1104 3.61389 -0.0854198 23.4947
314 1 -1.1104 3.78693 0.11845 26.1667
315 2 2.2208 5.11064 6.91919 22.0172
320 1 -1.1104 0.948897 5.81581 23.717
322 1 -1.1104 0.943752 8.13217 26.2656
324 1 -1.1104 3.81936 8.55753 23.3739
325 2 2.2208 2.43745 7.21086 24.7642
326 1 -1.1104 3.91324 8.4265 26.1132
327 1 -1.1104 3.68867 5.66889 23.4381
328 1 -1.1104 3.37705 5.73031 26.2509
301 1 -1.1104 6.54061 0.0301949 23.4367
323 1 -1.1104 6.51681 5.66526 26.2014
317 1 -1.1104 6.61398 8.37081 23.205
295 1 -1.1104 6.59794 2.822 23.4811
321 1 -1.1104 6.38556 5.58244 23.3875
319 1 -1.1104 6.6585 8.35912 26.099
218 1 -1.1104 6.49768 8.38309 20.5565
224 1 -1.1104 6.55552 5.45056 20.6671
191 1 -1.1104 6.67303 2.7808 20.7416
332 2 2.2208 8.02441 -1.4255 22.0604
316 1 -1.1104 1.06153 8.66834 23.4571
299 1 -1.1104 6.48608 2.7712 26.2249
286 2 2.2208 13.5295 -1.36331 22.0884
346 2 2.2208 8.02427 7.06774 24.7872
355 1 -1.1104 12.2167 0.031635 26.4542
351 1 -1.1104 12.2364 2.83203 26.2509
277 1 -1.1104 9.54115 8.37776 20.5796
261 1 -1.1104 9.48065 2.71353 20.8154
280 1 -1.1104 9.36791 5.54253 20.7665
240 1 -1.1104 12.1115 8.40047 23.5776
344 1 -1.1104 9.09861 5.56257 23.5836
247 1 -1.1104 12.1434 -2.6338 20.7682
305 1 -1.1104 6.63205 0.00151439 26.2948
298 1 -1.1104 6.54975 -2.84332 26.3211
343 1 -1.1104 9.34856 5.63626 26.2838
285 2 2.2208 13.5995 1.44382 24.8818
360 1 -1.1104 9.37141 2.74408 26.2308
8760 2 2.2208 10.8825 -4.22422 22.1795
273 1 -1.1104 12.1302 5.65788 20.6262
236 2 2.2208 13.6363 7.10975 25.0006
294 1 -1.1104 6.52539 -2.84457 23.6115
358 2 2.2208 8.00904 1.41542 24.8467
352 1 -1.1104 12.0891 0.0467605 23.5326
357 1 -1.1104 9.42678 2.73884 23.4942
354 2 2.2208 10.6726 4.23865 24.9992
237 1 -1.1104 12.2366 8.4748 26.2974
347 2 2.2208 10.7447 1.3663 22.1049
350 1 -1.1104 12.2156 -2.82596 26.5197
339 1 -1.1104 9.27398 8.37063 23.3581
342 1 -1.1104 11.9855 5.61622 23.6409
348 1 -1.1104 12.3354 -2.75005 23.7475
345 1 -1.1104 9.41142 8.40917 26.2296
353 2 2.2208 10.7686 -1.43661 24.8938
359 1 -1.1104 9.27019 -2.69045 26.4284
349 1 -1.1104 12.2977 2.83192 23.4967
249 1 -1.1104 12.2387 2.86768 20.7129
331 2 2.2208 7.96321 4.15416 22.0859
340 1 -1.1104 12.1376 5.66684 26.4064
356 1 -1.1104 9.36441 -2.82038 23.6179
287 1 -1.1104 9.31233 -0.0732008 26.3555
266 1 -1.1104 9.3687 -0.00699566 20.721
254 1 -1.1104 12.1816 0.0555747 20.678
259 1 -1.1104 9.44049 -2.81491 20.7776
176 2 2.2208 13.6743 6.94481 13.8095
284 2 2.2208 8.00085 -4.26735 13.6421
336 2 2.2208 7.92515 -1.44292 27.7466
333 2 2.2208 13.6495 -1.29869 27.6619
361 2 2.2208 5.10107 12.6053 5.03526
363 1 -1.1104 0.910854 11.3491 3.93419
366 2 2.2208 5.2356 9.75234 2.36453
368 2 2.2208 2.44662 9.90179 5.09793
369 1 -1.1104 3.81738 10.9267 0.938026
371 1 -1.1104 4.12087 10.8544 3.93639
372 2 2.2208 4.94518 18.1533 5.24093
373 1 -1.1104 0.85309 13.9778 1.03427
375 1 -1.1104 0.686285 19.752 1.16138
380 1 -1.1104 0.853824 19.4269 3.83438
382 1 -1.1104 0.880378 16.8657 1.3928
385 2 2.2208 4.9905 15.2625 2.51445
386 2 2.2208 5.00074 21.1196 2.3791
389 1 -1.1104 3.84453 13.9799 0.217916
391 1 -1.1104 3.70028 19.6338 0.974561
393 2 2.2208 2.41473 18.2542 2.30892
394 1 -1.1104 3.69907 13.7487 3.81301
395 1 -1.1104 3.61911 19.73 3.71988
397 2 2.2208 2.26704 21.019 5.18743
398 1 -1.1104 3.70855 16.8236 1.02988
400 1 -1.1104 3.6992 16.8324 3.62499
518 2 2.2208 2.21956 15.4564 -0.231095
520 2 2.2208 5.29227 12.5287 -0.361709
414 1 -1.1104 6.33891 16.7752 1.01663
413 1 -1.1104 6.32403 19.6562 3.92744
412 1 -1.1104 6.54711 19.6213 1.01998
388 1 -1.1104 6.46142 16.7805 3.87476
376 1 -1.1104 6.48564 13.8038 1.26789
491 2 2.2208 7.80632 12.6076 8.09195
364 1 -1.1104 6.82785 11.2215 1.03449
392 1 -1.1104 3.62918 19.8277 6.74017
457 1 -1.1104 0.935496 19.8852 6.72995
367 1 -1.1104 6.88093 11.1206 3.85378
381 1 -1.1104 6.58047 14.1138 3.85342
402 2 2.2208 10.8606 12.7685 5.36812
403 1 -1.1104 12.3772 11.3168 1.07942
405 2 2.2208 10.867 9.92781 2.4625
406 1 -1.1104 12.2541 11.2682 4.014
407 2 2.2208 7.96986 12.6836 2.50418
408 2 2.2208 7.97666 9.92658 5.30345
409 1 -1.1104 9.6723 11.2661 1.0578
411 1 -1.1104 9.62172 11.3311 3.71114
415 2 2.2208 10.6122 18.3541 5.30281
416 1 -1.1104 12.1502 14.1224 1.04103
418 1 -1.1104 11.9707 19.6845 1.21777
420 1 -1.1104 12.0372 14.0642 3.80539
421 1 -1.1104 12.1917 19.8104 3.80583
422 1 -1.1104 11.9841 16.9983 1.18203
424 2 2.2208 10.697 15.5587 2.50675
425 2 2.2208 10.5842 21.1163 2.46329
426 1 -1.1104 12.0332 17.0318 3.89557
427 1 -1.1104 9.25608 14.0259 0.969682
429 1 -1.1104 9.2766 19.7402 1.02819
431 2 2.2208 7.64618 18.215 2.4618
432 1 -1.1104 9.34494 14.0182 3.97842
433 1 -1.1104 9.2225 19.6577 3.85913
434 2 2.2208 7.83919 15.4918 5.2354
435 2 2.2208 7.80089 21.0573 5.17366
436 1 -1.1104 9.26507 16.9084 1.21645
438 1 -1.1104 9.15237 16.9111 3.93203
493 2 2.2208 10.6808 15.4372 8.06946
496 1 -1.1104 12.0714 19.748 9.31027
492 1 -1.1104 9.34838 11.1694 9.47984
499 2 2.2208 13.501 21.0931 5.21355
423 1 -1.1104 12.0207 16.9183 6.51828
501 2 2.2208 13.503 15.5184 5.24756
439 2 2.2208 13.4335 18.2449 2.62984
417 1 -1.1104 12.2046 14.042 6.62669
428 1 -1.1104 9.14756 14.1127 6.74091
437 1 -1.1104 9.27467 16.9054 6.70268
9343 2 2.2208 13.6009 12.6257 2.53034
500 2 2.2208 13.5463 9.92093 5.37428
481 2 2.2208 7.93062 21.1288 10.7165
377 1 -1.1104 6.12754 14.1318 6.59523
383 1 -1.1104 0.644922 16.952 6.60743
374 1 -1.1104 0.904109 13.7781 6.75615
390 1 -1.1104 3.66653 11.4001 6.62853
370 1 -1.1104 0.900402 11.1179 6.57997
399 1 -1.1104 3.64138 17.0159 6.86906
441 1 -1.1104 3.72633 19.6785 12.1551
442 1 -1.1104 3.60723 14.1419 12.2417
446 1 -1.1104 0.942621 19.6772 9.47885
447 1 -1.1104 0.880923 16.8045 9.38887
448 2 2.2208 5.03619 20.9344 8.07209
449 1 -1.1104 0.942518 14.1028 9.44947
450 2 2.2208 5.18248 15.6656 8.09536
453 1 -1.1104 0.85968 19.5436 12.3341
454 1 -1.1104 0.910567 14.1122 12.243
455 2 2.2208 5.0732 18.3357 10.9221
456 1 -1.1104 3.64801 19.6166 9.39713
458 2 2.2208 2.24882 18.364 7.94964
459 1 -1.1104 3.74496 16.7923 9.57551
460 1 -1.1104 3.8363 13.9941 9.1454
462 1 -1.1104 0.912787 16.7233 12.4236
463 1 -1.1104 3.6682 17.0255 12.396
464 2 2.2208 2.29099 21.0055 10.7986
465 2 2.2208 5.1199 12.6326 10.7904
466 1 -1.1104 0.80321 11.2786 12.4274
468 2 2.2208 2.16538 15.4335 10.8602
469 2 2.2208 4.92504 9.80156 7.97131
470 1 -1.1104 0.940428 11.3513 9.60922
472 2 2.2208 2.24649 12.6211 8.18731
473 2 2.2208 2.22039 9.80066 10.9291
474 1 -1.1104 3.71517 11.2402 12.2382
475 1 -1.1104 3.6848 11.2623 9.51527
471 1 -1.1104 6.6456 11.3836 9.52675
378 1 -1.1104 6.5464 19.6323 6.65181
384 1 -1.1104 6.47867 16.9055 6.63168
365 1 -1.1104 6.59869 11.414 6.47871
445 1 -1.1104 6.45095 14.0897 9.3774
461 1 -1.1104 6.4195 16.9126 12.2169
467 1 -1.1104 6.46881 11.2105 12.3201
444 1 -1.1104 6.76488 17.0181 9.51868
452 1 -1.1104 6.44435 14.0332 12.1069
451 1 -1.1104 6.55697 19.7765 12.254
487 1 -1.1104 9.25976 14.0957 12.4444
503 2 2.2208 13.4311 12.74 8.14451
490 2 2.2208 13.4111 15.5076 10.9527
504 2 2.2208 13.6753 9.85558 10.903
430 1 -1.1104 9.18678 19.685 6.69189
410 1 -1.1104 9.33941 11.1835 6.68882
443 1 -1.1104 6.44505 19.6897 9.32893
9345 2 2.2208 13.4397 18.2646 8.12603
502 2 2.2208 13.5521 21.2541 10.8444
396 2 2.2208 10.7593 12.589 10.8732
480 1 -1.1104 9.23191 16.9923 12.1939
488 1 -1.1104 12.1323 16.8178 9.44284
401 2 2.2208 10.6289 18.2751 10.7971
404 1 -1.1104 12.2678 11.2617 6.83089
483 1 -1.1104 9.24523 19.6109 9.38228
484 1 -1.1104 9.32165 14.0227 9.47984
497 1 -1.1104 12.0934 14.0231 9.5477
362 1 -1.1104 12.1099 11.1584 9.67338
387 1 -1.1104 12.063 11.0683 12.3576
440 1 -1.1104 12.1214 13.9604 12.3789
379 2 2.2208 10.8256 9.86231 8.05429
485 2 2.2208 7.91594 18.2227 8.02216
494 1 -1.1104 12.1138 16.9214 12.3564
498 2 2.2208 7.79894 9.84246 10.8953
489 2 2.2208 10.7285 21.1234 7.95728
482 2 2.2208 7.9067 15.5709 10.9809
495 1 -1.1104 9.29286 11.2285 12.2139
476 1 -1.1104 12.0642 19.7469 12.1568
486 1 -1.1104 9.37929 19.6964 12.3281
479 1 -1.1104 9.48095 16.797 9.47549
419 1 -1.1104 12.0808 19.6572 6.651
575 2 2.2208 2.23716 18.2664 13.7874
508 2 2.2208 4.97449 9.83144 13.524
507 2 2.2208 5.0256 21.2232 13.5411
509 2 2.2208 7.94381 12.5133 13.5915
521 2 2.2208 13.5216 12.5264 13.6747
517 2 2.2208 10.5584 15.4728 13.6016
523 2 2.2208 10.8492 12.792 -0.443627
645 2 2.2208 2.25393 21.0462 -0.470942
649 2 2.2208 8.0142 21.0754 -0.302548
527 2 2.2208 5.08955 12.6098 16.527
528 1 -1.1104 0.992503 11.2766 17.9965
530 2 2.2208 5.18614 9.78506 19.1037
531 1 -1.1104 0.749218 11.1702 15.1834
535 2 2.2208 2.35711 12.7466 19.3235
536 2 2.2208 2.33971 9.89584 16.4882
537 1 -1.1104 3.77667 11.2149 17.8658
538 1 -1.1104 3.54607 11.2398 15.1137
540 2 2.2208 5.14815 18.315 16.4694
541 1 -1.1104 0.926686 14.1861 17.8422
542 1 -1.1104 0.92886 19.6386 17.9448
545 1 -1.1104 0.842236 13.9512 15.1846
547 1 -1.1104 0.77639 19.7154 15.1258
553 1 -1.1104 0.898802 16.9698 17.885
555 2 2.2208 5.21301 15.456 19.3025
556 2 2.2208 4.85946 21.2281 19.2862
557 1 -1.1104 0.915218 16.8154 15.1117
561 1 -1.1104 3.71439 13.9757 18.005
562 1 -1.1104 3.71099 19.5779 17.9053
563 2 2.2208 2.28531 18.2377 19.2653
564 1 -1.1104 3.7655 13.9327 15.1852
566 1 -1.1104 3.48781 19.8476 14.9932
568 2 2.2208 2.3508 15.4985 16.5367
569 2 2.2208 2.21248 21.1088 16.4695
570 1 -1.1104 3.71505 16.9147 17.6942
571 1 -1.1104 3.67456 16.9244 15.0527
9399 2 2.2208 13.6606 18.242 25.0324
513 2 2.2208 -0.608451 9.87271 13.8133
574 2 2.2208 2.17044 12.7113 13.7557
616 2 2.2208 13.4749 21.0818 16.4379
544 1 -1.1104 6.31963 19.6683 17.8476
549 1 -1.1104 6.54254 14.0453 15.0228
572 1 -1.1104 3.68315 16.6037 20.6093
550 1 -1.1104 6.44141 14.0798 20.469
551 1 -1.1104 6.48695 19.6597 15.0482
529 1 -1.1104 6.58238 11.2346 17.6249
534 1 -1.1104 6.53449 11.0973 20.4982
539 1 -1.1104 3.79213 11.358 20.4903
546 1 -1.1104 0.766538 13.9728 20.6079
558 1 -1.1104 1.06814 16.9002 20.6236
548 1 -1.1104 0.82151 19.6701 20.7289
533 1 -1.1104 6.57935 11.1075 14.8163
554 1 -1.1104 6.42745 16.9423 17.8464
559 1 -1.1104 6.54837 16.9268 15.1023
543 1 -1.1104 6.57303 13.9723 17.7495
580 2 2.2208 10.7767 12.5386 16.4631
581 1 -1.1104 12.13 11.293 17.8003
582 2 2.2208 10.8614 9.78894 19.1599
583 1 -1.1104 12.2003 11.006 14.9889
585 2 2.2208 7.89598 12.5811 19.1946
586 2 2.2208 7.92233 9.76015 16.35
587 1 -1.1104 9.3118 11.0332 17.7679
588 1 -1.1104 9.41259 11.1078 14.9687
590 2 2.2208 10.6334 18.3635 16.4569
591 1 -1.1104 12.14 14.0552 17.9021
592 1 -1.1104 12.0892 19.6454 17.8082
593 1 -1.1104 11.9513 13.9272 15.0531
595 1 -1.1104 12.1833 19.6274 15.1048
597 1 -1.1104 12.0446 16.9018 17.8945
598 2 2.2208 10.729 15.4299 19.2292
599 2 2.2208 10.4851 21.1503 19.2451
600 1 -1.1104 12.0561 16.7204 15.0307
602 1 -1.1104 9.36693 13.9623 17.8673
603 1 -1.1104 9.0776 19.7259 17.9013
604 2 2.2208 7.73077 18.3198 19.2514
605 1 -1.1104 9.28496 14.0005 15.0251
607 1 -1.1104 9.39936 19.8241 15.2116
609 2 2.2208 7.93113 15.4133 16.3781
610 2 2.2208 7.81832 21.2215 16.5453
611 1 -1.1104 9.29845 16.8661 17.8035
612 1 -1.1104 9.2727 17.0243 15.0225
648 2 2.2208 13.4176 15.5111 16.4447
560 1 -1.1104 6.4606 16.9357 20.6222
617 2 2.2208 13.3229 18.3932 19.2536
608 1 -1.1104 9.26341 19.7183 20.6808
596 1 -1.1104 11.8826 19.6908 20.6823
615 2 2.2208 13.4077 12.688 19.2709
647 2 2.2208 13.6305 9.8602 16.5422
512 2 2.2208 10.7637 9.7 13.6751
515 2 2.2208 7.85494 18.4624 13.6776
584 1 -1.1104 12.1322 11.126 20.5922
619 1 -1.1104 6.59858 13.7994 26.4646
638 1 -1.1104 6.50792 11.2156 23.3553
567 1 -1.1104 3.6649 19.666 20.6833
565 1 -1.1104 3.55422 13.9181 20.8806
532 1 -1.1104 0.692334 11.1317 21.0806
618 1 -1.1104 3.72351 19.6868 23.5443
621 1 -1.1104 0.861919 19.6902 26.3257
622 1 -1.1104 0.711804 16.9933 26.5778
623 1 -1.1104 0.804523 14.2994 26.4257
625 2 2.2208 5.0503 21.1196 24.8269
627 1 -1.1104 1.01381 19.7377 23.5657
628 1 -1.1104 0.777798 14.3359 23.3607
629 2 2.2208 5.04707 18.269 22.2287
630 1 -1.1104 3.75556 19.7776 26.2115
631 2 2.2208 2.30786 18.2129 24.9714
632 1 -1.1104 3.42362 16.8323 26.552
634 1 -1.1104 0.82387 16.9317 23.5345
635 1 -1.1104 3.44425 16.8923 23.3296
636 2 2.2208 2.36835 21.0312 22.2363
637 2 2.2208 5.26118 12.5536 22.0186
639 2 2.2208 2.2284 15.49 22.0728
640 2 2.2208 5.19305 9.86984 24.7781
642 2 2.2208 2.44705 10.0236 21.9774
643 1 -1.1104 3.7344 11.2819 23.2868
644 1 -1.1104 3.83199 11.0723 26.1975
576 1 -1.1104 0.707352 10.8086 26.8692
663 1 -1.1104 6.48879 19.7499 26.3092
667 1 -1.1104 12.1947 16.8861 26.2995
624 1 -1.1104 6.57761 19.8052 23.6289
641 1 -1.1104 6.74906 11.0672 26.18
552 1 -1.1104 6.42829 19.7799 20.7514
646 2 2.2208 5.13089 18.1255 27.5231
9382 2 2.2208 13.6375 20.9035 22.1103
656 2 2.2208 13.5631 21.0202 27.7443
675 2 2.2208 7.91169 9.7522 21.8698
672 1 -1.1104 12.1665 19.6328 26.3788
679 2 2.2208 10.7105 18.3058 22.0768
681 1 -1.1104 12.238 11.2024 23.3665
658 1 -1.1104 9.41689 16.9355 23.5714
601 1 -1.1104 12.5078 16.8217 20.5307
654 2 2.2208 13.564 12.636 24.8947
669 2 2.2208 10.7815 20.9196 24.8285
682 2 2.2208 10.6821 9.89653 24.8162
666 1 -1.1104 9.2955 14.1091 23.4436
650 2 2.2208 13.6368 10.0548 27.624
674 1 -1.1104 9.3133 11.2216 23.3311
670 2 2.2208 10.7204 15.4887 24.8828
594 1 -1.1104 12.0504 14.0078 20.6959
613 1 -1.1104 9.49333 16.8691 20.7171
652 2 2.2208 13.3946 15.3531 22.1956
671 1 -1.1104 12.1162 16.7779 23.4365
620 1 -1.1104 6.76621 17.0725 26.3846
633 1 -1.1104 6.67814 17.0998 23.3194
662 1 -1.1104 9.52017 14.0724 26.2378
678 1 -1.1104 12.0453 13.9159 23.447
668 1 -1.1104 9.54322 11.2579 26.2727
665 1 -1.1104 9.26395 19.6325 23.4317
673 1 -1.1104 12.1326 14.1295 26.3169
664 2 2.2208 7.94326 18.4024 24.8457
659 2 2.2208 7.83759 21.1028 22.1058
660 2 2.2208 7.84196 15.5868 22.2377
589 1 -1.1104 9.34869 11.1808 20.5918
677 1 -1.1104 12.0531 19.5144 23.5494
655 1 -1.1104 12.2022 11.2321 26.258
680 2 2.2208 10.6069 12.5477 22.0174
626 1 -1.1104 6.55246 13.9253 23.2805
606 1 -1.1104 9.35884 13.9352 20.5174
661 1 -1.1104 9.39547 19.6993 26.329
676 2 2.2208 7.96357 12.5544 24.9145
657 1 -1.1104 9.47998 17.0101 26.3893
519 2 2.2208 2.50442 9.73494 27.656
514 2 2.2208 13.5193 18.3585 13.699
516 2 2.2208 10.7137 21.1259 13.6339
524 2 2.2208 8.19606 9.90989 27.7564
522 2 2.2208 7.87289 15.5603 27.8132
525 2 2.2208 10.6177 18.2979 27.7823
526 2 2.2208 13.565 15.4766 27.8593
573 2 2.2208 4.97235 15.4567 13.5726
683 2 2.2208 5.12051 23.8718 5.13392
684 2 2.2208 5.13233 29.4736 5.30179
685 1 -1.1104 0.930967 25.2042 1.03371
686 1 -1.1104 0.798413 25.2475 3.65558
687 1 -1.1104 0.845821 22.4776 1.12128
688 1 -1.1104 0.845776 28.0879 1.03278
689 2 2.2208 5.18346 26.6973 2.37446
690 1 -1.1104 0.826433 22.3731 3.87437
691 1 -1.1104 0.876909 28.0686 3.80935
692 1 -1.1104 3.78103 25.1888 0.940169
693 2 2.2208 2.212 23.7852 2.45437
694 2 2.2208 2.2244 29.5413 2.32069
695 1 -1.1104 3.7836 25.3283 3.76956
696 2 2.2208 2.3213 26.7006 5.12227
697 1 -1.1104 3.80548 22.3321 0.884655
698 1 -1.1104 3.59386 28.1313 1.03829
699 1 -1.1104 3.67261 22.4605 3.80309
700 1 -1.1104 3.91787 28.1552 3.86547
701 1 -1.1104 0.869909 31.1542 1.18108
702 1 -1.1104 0.791005 30.9414 3.9642
703 1 -1.1104 0.879381 33.8261 0.976549
704 2 2.2208 4.87354 32.1534 2.37235
705 1 -1.1104 0.987692 33.6443 3.9262
707 1 -1.1104 3.51853 30.86 0.946774
708 1 -1.1104 3.66762 30.7967 3.7058
709 2 2.2208 2.38773 32.0754 5.25214
710 1 -1.1104 3.68322 33.6116 1.13074
711 1 -1.1104 3.76718 33.6812 3.63634
847 2 2.2208 -0.435401 32.152 13.6338
718 1 -1.1104 6.505 22.4672 1.02277
741 1 -1.1104 6.25325 30.89 3.80152
858 2 2.2208 5.06577 29.5187 -0.372129
716 1 -1.1104 6.57144 25.2489 0.964113
740 1 -1.1104 6.28996 30.8652 0.953334
770 1 -1.1104 3.75811 33.5323 6.49988
764 1 -1.1104 3.90572 27.8351 6.58284
765 1 -1.1104 0.94467 30.8826 6.73516
769 1 -1.1104 3.74819 30.7846 6.62428
766 1 -1.1104 6.56282 30.7649 6.60129
768 1 -1.1104 6.51278 33.7465 6.66088
9674 2 2.2208 -0.555523 32.4205 2.39114
706 1 -1.1104 6.5766 33.8001 3.88211
721 1 -1.1104 6.61376 28.0053 3.60918
719 1 -1.1104 6.35007 28.1048 0.970398
717 1 -1.1104 6.50866 25.1403 3.84755
720 1 -1.1104 6.41923 22.4778 3.68687
742 1 -1.1104 6.54094 33.6571 1.28045
831 1 -1.1104 9.34696 25.3313 9.5198
722 2 2.2208 10.6394 23.875 5.39001
723 2 2.2208 10.7094 29.5575 5.22363
724 1 -1.1104 12.1644 25.3871 1.1372
725 1 -1.1104 12.1366 25.4301 3.89657
726 1 -1.1104 12.25 22.5917 1.08425
727 1 -1.1104 12.1801 28.0952 1.08029
728 2 2.2208 10.738 26.6472 2.50005
729 1 -1.1104 12.1337 22.4734 3.97151
730 1 -1.1104 12.1943 28.3287 3.78881
731 1 -1.1104 9.38193 25.2719 1.00983
732 2 2.2208 7.87864 24.0173 2.31321
733 2 2.2208 7.76295 29.4926 2.3951
734 1 -1.1104 9.24935 25.2958 3.87747
735 2 2.2208 7.88015 26.7368 5.19862
736 1 -1.1104 9.31139 22.4795 1.07504
737 1 -1.1104 9.22683 28.023 1.05772
738 1 -1.1104 9.19803 22.3933 3.82441
739 1 -1.1104 9.30186 28.0916 3.73328
743 1 -1.1104 12.3133 30.853 1.00656
744 1 -1.1104 12.0277 30.9621 3.70429
745 1 -1.1104 11.9256 33.6346 0.858899
746 2 2.2208 10.6575 32.3322 2.36247
747 1 -1.1104 12.32 33.7165 3.70103
748 1 -1.1104 9.24396 30.9307 1.12916
749 1 -1.1104 9.22163 30.9018 3.901
750 2 2.2208 7.80444 32.3159 5.26075
751 1 -1.1104 9.25021 33.6982 0.928601
752 1 -1.1104 9.36669 33.8268 3.73691
811 1 -1.1104 12.2317 28.1124 6.66783
813 1 -1.1104 9.22761 22.4942 6.57557
814 1 -1.1104 9.36788 28.1264 6.5348
817 1 -1.1104 9.33878 30.8622 6.78365
753 2 2.2208 13.584 23.8388 2.52325
816 1 -1.1104 12.0319 33.6611 6.59622
818 1 -1.1104 9.22438 33.811 6.65356
809 1 -1.1104 12.0474 25.3577 6.72664
810 1 -1.1104 12.1222 22.6196 6.77891
9542 2 2.2208 13.5525 32.3549 5.18317
758 1 -1.1104 0.786045 22.6168 6.73848
767 1 -1.1104 0.982355 33.7608 6.64304
759 1 -1.1104 1.06096 28.0431 6.5758
762 1 -1.1104 3.76334 25.2443 6.52933
757 1 -1.1104 6.52762 25.3157 6.54485
761 1 -1.1104 6.62976 27.9706 6.60412
820 2 2.2208 10.8447 29.5707 10.8139
803 1 -1.1104 6.62273 33.6608 9.35275
756 1 -1.1104 0.838938 25.3835 6.42105
763 1 -1.1104 3.6623 22.4626 6.59099
771 2 2.2208 5.14926 23.8924 10.7478
772 2 2.2208 5.16553 29.6204 10.9016
773 1 -1.1104 0.761726 25.1854 12.0952
775 1 -1.1104 1.04863 25.3158 9.31358
777 1 -1.1104 0.883507 22.4168 12.1685
778 1 -1.1104 1.0012 28.0545 12.3362
781 2 2.2208 5.15824 26.5311 7.99037
782 1 -1.1104 0.854134 22.4429 9.33499
783 1 -1.1104 1.14007 28.1196 9.44191
786 1 -1.1104 3.78039 25.2125 12.1792
787 2 2.2208 2.28941 23.9198 7.96128
788 2 2.2208 2.41706 29.3883 8.04636
789 1 -1.1104 3.69866 25.3608 9.37865
790 2 2.2208 2.30934 26.7207 10.8285
791 1 -1.1104 3.7026 22.4741 12.1975
792 1 -1.1104 3.79154 28.1312 12.3132