ITEM: TIMESTEP
50000
ITEM: NUMBER OF ATOMS
17820
ITEM: BOX BOUNDS pp pp pp
-3.5495794704577943e-01 2.7694957947046092e+01
-4.3810392442332793e+00 3.3246103924423005e+02
-3.5900171047104940e-01 2.7699001710471173e+01
ITEM: ATOMS id type q x y z
1 2 2.2208 5.10109 1.10537 5.18391
2 1 -1.1104 0.859864 -2.93349 0.856617
3 1 -1.1104 0.974889 2.67297 0.772515
6 1 -1.1104 1.01991 -3.05565 3.70815
7 1 -1.1104 0.803804 2.49701 3.70187
10 1 -1.1104 1.04603 -0.166324 0.769147
12 2 2.2208 5.12617 -1.58539 2.3287
13 2 2.2208 5.23513 3.82684 2.18366
14 1 -1.1104 0.87273 -0.357433 3.62526
16 1 -1.1104 3.59767 -3.03251 0.859368
17 1 -1.1104 3.77052 2.32032 0.933093
18 2 2.2208 2.33311 1.08133 2.38785
19 1 -1.1104 3.62586 -3.18049 3.71258
20 1 -1.1104 3.58044 2.57328 3.84206
21 2 2.2208 2.32572 -1.70764 5.14221
22 2 2.2208 2.19312 3.93907 5.05768
23 1 -1.1104 3.69353 -0.31195 0.909196
24 1 -1.1104 3.77755 -0.217054 3.76642
25 2 2.2208 5.19502 6.69431 5.03725
30 1 -1.1104 1.0016 5.54664 0.534203
32 1 -1.1104 0.964184 5.23417 3.45449
34 1 -1.1104 3.94863 7.91531 0.903155
35 2 2.2208 2.39225 6.71462 2.28187
36 1 -1.1104 3.79039 8.01113 3.66413
37 1 -1.1104 3.80523 5.2079 0.800588
38 1 -1.1104 3.84603 5.2901 3.63249
28 1 -1.1104 0.901688 8.03827 3.61326
8 1 -1.1104 6.48451 -2.96546 3.85322
11 1 -1.1104 6.51249 -0.215327 0.760804
31 1 -1.1104 6.62837 5.46282 0.726035
4 1 -1.1104 6.36071 -3.08237 1.06821
87 1 -1.1104 3.63907 2.54286 6.44848
81 1 -1.1104 0.808164 2.4808 6.49779
89 1 -1.1104 0.820185 8.15078 6.42701
80 1 -1.1104 0.883184 -3.10577 6.45151
93 1 -1.1104 3.60933 8.11663 6.47153
5 1 -1.1104 6.51217 2.59146 0.66403
15 1 -1.1104 6.63348 -0.23546 3.72819
27 1 -1.1104 6.68561 8.15217 0.628593
88 1 -1.1104 3.71293 -0.414685 6.59681
91 1 -1.1104 0.699132 5.34843 6.52138
84 1 -1.1104 0.987002 -0.175542 6.49856
94 1 -1.1104 3.61184 5.31008 6.46117
92 1 -1.1104 6.49424 5.36812 6.54758
85 1 -1.1104 6.50983 -0.148707 6.71158
82 1 -1.1104 6.42407 -2.98652 6.51949
506 1 -1.1104 0.977842 8.4924 1.00566
43 2 2.2208 2.33303 -4.51474 2.30093
33 1 -1.1104 6.55339 5.26534 3.60239
9 1 -1.1104 6.49729 2.39969 3.73505
29 1 -1.1104 6.63125 8.08297 3.48402
76 2 2.2208 13.5259 6.49736 2.23899
8965 2 2.2208 13.4396 1.18846 2.21229
71 1 -1.1104 9.41329 8.18222 3.47058
46 2 2.2208 10.7021 1.07992 5.07616
47 1 -1.1104 12.1501 -3.03972 0.895938
48 1 -1.1104 12.1791 2.52318 0.77222
49 1 -1.1104 12.1792 -3.07321 3.67533
50 1 -1.1104 12.0718 2.52802 3.52966
51 1 -1.1104 12.103 -0.247546 0.869805
52 2 2.2208 10.794 -1.73602 2.24477
53 2 2.2208 10.7334 3.83123 2.14619
54 1 -1.1104 12.085 -0.236 3.50974
55 1 -1.1104 9.32844 -2.96603 0.912103
56 1 -1.1104 9.36891 2.60655 0.86895
57 2 2.2208 7.95406 1.16717 2.28657
58 1 -1.1104 9.34244 -3.07751 3.74347
59 1 -1.1104 9.31342 2.53553 3.65718
60 2 2.2208 7.81646 -1.54781 5.1527
61 2 2.2208 7.90015 4.04034 5.05439
62 1 -1.1104 9.45461 -0.12419 1.03956
63 1 -1.1104 9.25449 -0.223032 3.73447
64 2 2.2208 10.7571 6.81363 4.99812
65 1 -1.1104 12.4812 8.03271 0.753038
66 1 -1.1104 12.2625 8.03202 3.69232
67 1 -1.1104 12.1787 5.29274 0.808854
68 1 -1.1104 12.2514 5.17732 3.48444
69 1 -1.1104 9.46909 8.21555 0.792128
70 2 2.2208 8.01358 6.84452 2.0819
72 1 -1.1104 9.44785 5.2427 0.683466
73 1 -1.1104 9.47808 5.40107 3.4052
139 1 -1.1104 12.0582 -2.9647 6.62455
136 2 2.2208 13.5301 3.77027 5.00778
141 1 -1.1104 12.1177 -0.260917 6.26591
143 1 -1.1104 9.36643 2.74697 6.5165
149 1 -1.1104 9.35713 5.40957 6.41037
146 1 -1.1104 12.2583 5.34115 6.17613
145 1 -1.1104 12.1443 8.12962 6.4267
144 1 -1.1104 9.3592 -0.00208349 6.65953
140 1 -1.1104 12.2327 2.64836 6.5312
142 1 -1.1104 9.15257 -2.98746 6.66041
83 1 -1.1104 6.44684 2.62168 6.43183
147 1 -1.1104 9.3787 8.22104 6.37427
8875 2 2.2208 13.5404 -1.64976 4.99618
90 1 -1.1104 6.59156 8.13204 6.47255
174 2 2.2208 5.00365 3.9412 13.5729
176 2 2.2208 13.5562 6.77505 13.5359
86 1 -1.1104 3.7041 -3.09954 6.45473
95 2 2.2208 5.10747 1.15645 10.6736
96 1 -1.1104 0.923878 -3.10418 11.9426
97 1 -1.1104 0.818394 2.4902 12.132
100 1 -1.1104 0.859713 -2.89267 9.18729
101 1 -1.1104 0.905987 2.62801 9.1825
104 1 -1.1104 0.865149 -0.30671 12.0815
106 2 2.2208 5.01373 -1.68346 8.01227
107 2 2.2208 4.91663 3.99181 7.84685
108 1 -1.1104 1.08709 -0.277306 9.31144
110 1 -1.1104 3.80859 -3.01262 12.2451
111 1 -1.1104 3.52202 2.49106 11.9167
112 2 2.2208 2.31508 1.19457 8.02142
113 1 -1.1104 3.60735 -3.17824 9.35441
114 1 -1.1104 3.75034 2.52519 9.2418
115 2 2.2208 2.32389 -1.63453 10.7737
116 2 2.2208 2.31085 3.97239 10.592
117 1 -1.1104 3.69832 -0.203538 12.1834
118 1 -1.1104 3.7655 -0.247082 9.44642
119 2 2.2208 4.94681 6.91036 10.6221
120 1 -1.1104 0.865441 8.1368 12.1694
122 1 -1.1104 0.771817 8.34553 9.47604
124 1 -1.1104 0.914462 5.49476 12.1595
126 1 -1.1104 0.859626 5.34317 9.2742
128 1 -1.1104 3.54947 8.33975 12.3187
129 2 2.2208 2.15643 6.83948 7.86093
130 1 -1.1104 3.49894 8.17635 9.30305
131 1 -1.1104 3.71221 5.41216 12.2136
132 1 -1.1104 3.55293 5.45889 9.25107
125 1 -1.1104 6.41447 5.44327 11.9879
103 1 -1.1104 6.34875 2.78156 9.21716
102 1 -1.1104 6.46437 -2.99704 9.38998
105 1 -1.1104 6.43988 -0.240913 12.1405
109 1 -1.1104 6.46669 -0.185438 9.52679
99 1 -1.1104 6.46243 2.63956 12.2415
241 2 2.2208 2.26276 1.14297 13.4903
123 1 -1.1104 6.46744 8.20922 9.20018
121 1 -1.1104 6.32117 8.16523 12.1715
137 2 2.2208 5.00339 -4.63676 10.6945
173 2 2.2208 2.25645 6.79308 13.5312
9015 2 2.2208 13.5026 1.03007 13.4963
79 1 -1.1104 12.2145 5.3099 12.1194
290 2 2.2208 10.6507 4.00227 13.4537
8655 2 2.2208 2.23889 -4.40538 7.81355
239 2 2.2208 5.15042 -1.64003 13.6279
9011 2 2.2208 13.465 -1.72091 10.6208
75 1 -1.1104 12.1795 5.30587 9.27327
171 2 2.2208 10.74 6.73498 10.6805
289 2 2.2208 10.7954 -1.59869 13.4351
154 1 -1.1104 11.9825 -3.00961 11.9377
153 2 2.2208 10.7367 1.16884 10.7069
127 1 -1.1104 6.46128 5.54835 9.34747
288 2 2.2208 7.83739 1.22663 13.5012
175 2 2.2208 7.78258 6.86567 13.3712
45 2 2.2208 13.5838 1.12779 7.83173
78 2 2.2208 13.5108 3.99734 10.6545
165 1 -1.1104 9.25625 -2.98425 9.3726
169 1 -1.1104 9.39974 -0.210498 12.2216
161 1 -1.1104 12.0842 -0.419496 9.25014
151 1 -1.1104 9.3913 8.16726 9.30453
74 1 -1.1104 9.16293 8.27471 12.0255
162 1 -1.1104 9.27545 -3.05532 12.0842
167 2 2.2208 7.88842 -1.63558 10.8498
159 2 2.2208 10.7783 -1.74656 7.91604
168 2 2.2208 7.85609 4.11404 10.6199
170 1 -1.1104 9.369 -0.0739586 9.42121
156 1 -1.1104 12.0035 -3.2339 9.29092
98 1 -1.1104 6.54625 -2.97913 12.2069
133 1 -1.1104 12.0656 7.95832 9.26552
148 1 -1.1104 9.27567 5.52759 9.10132
158 1 -1.1104 12.1385 -0.229394 12.0705
135 1 -1.1104 12.1228 8.10682 11.9592
166 1 -1.1104 9.22773 2.66575 9.31911
155 1 -1.1104 12.1407 2.58965 12.0036
164 2 2.2208 7.94119 1.1792 7.9413
163 1 -1.1104 9.39088 2.55221 12.2317
157 1 -1.1104 12.1745 2.4359 9.30921
150 1 -1.1104 9.36466 5.34211 11.9524
160 2 2.2208 10.77 3.9961 7.86486
152 2 2.2208 7.8818 6.8087 7.75954
8857 2 2.2208 -0.554674 3.83929 7.96476
44 2 2.2208 5.1158 -4.52058 5.13235
42 2 2.2208 7.80997 -4.37449 7.8422
41 2 2.2208 10.6085 -4.52304 10.6902
284 2 2.2208 7.98776 -4.34527 13.5286
179 2 2.2208 5.18801 1.13392 16.398
180 1 -1.1104 0.926855 -2.98051 17.7796
181 1 -1.1104 0.864222 2.57489 17.7391
184 1 -1.1104 0.643745 -3.18486 14.8637
186 1 -1.1104 0.937667 2.45668 15.0252
192 1 -1.1104 0.916397 -0.225735 17.7295
194 2 2.2208 5.11097 -1.63957 19.2387
195 2 2.2208 5.13117 4.08516 19.0971
196 1 -1.1104 1.02822 -0.338655 14.9056
200 1 -1.1104 3.68861 -2.90242 17.6822
201 1 -1.1104 3.6281 2.55677 17.6909
202 2 2.2208 2.34083 1.14316 19.0668
203 1 -1.1104 3.57408 -3.08285 14.9494
205 1 -1.1104 3.65556 2.60269 14.8378
207 2 2.2208 2.34137 -1.63215 16.3936
208 2 2.2208 2.28463 3.97482 16.4102
209 1 -1.1104 3.69719 -0.131915 17.71
210 1 -1.1104 3.95058 -0.263946 15.1483
212 2 2.2208 5.10907 6.87088 16.3042
213 1 -1.1104 0.999246 8.39762 17.7714
215 1 -1.1104 1.0482 8.25346 14.9358
219 1 -1.1104 0.969752 5.54834 17.7342
221 1 -1.1104 0.878309 5.4282 14.9862
225 1 -1.1104 3.71643 8.13825 17.7106
226 2 2.2208 2.32356 6.95593 19.0821
229 1 -1.1104 3.70476 5.4768 17.7575
230 1 -1.1104 3.6901 5.43485 14.9045
227 1 -1.1104 3.78568 8.27716 14.942
190 1 -1.1104 6.59178 2.52389 15.0565
182 1 -1.1104 6.44917 -2.93897 17.7206
223 1 -1.1104 6.50395 5.21869 14.9715
220 1 -1.1104 6.50886 5.436 17.6611
193 1 -1.1104 6.64655 -0.209955 17.8667
231 1 -1.1104 3.83573 5.45488 20.5331
206 1 -1.1104 3.73754 2.6956 20.5187
228 1 -1.1104 3.57968 8.27667 20.4514
211 1 -1.1104 3.59333 -0.11595 20.5609
217 1 -1.1104 6.49458 8.12052 14.83
214 1 -1.1104 6.60751 8.20935 17.5933
204 1 -1.1104 3.74888 -2.99817 20.4889
191 1 -1.1104 6.57005 2.58882 20.5
189 1 -1.1104 6.44783 -3.03679 20.5198
334 2 2.2208 10.8554 6.76901 27.4018
237 1 -1.1104 12.1851 8.17465 26.1005
183 1 -1.1104 6.46282 2.64412 17.7834
185 1 -1.1104 0.723366 -2.98822 20.6775
197 1 -1.1104 0.904948 -0.147086 20.5753
187 1 -1.1104 0.94251 2.49586 20.4763
216 1 -1.1104 0.945423 8.32719 20.5693
224 1 -1.1104 6.53339 5.42028 20.4321
188 1 -1.1104 6.52573 -3.04995 15.0216
198 1 -1.1104 6.62114 -0.260278 15.0228
199 1 -1.1104 6.39211 -0.277518 20.5324
282 2 2.2208 10.5088 -4.33877 16.4885
285 2 2.2208 13.6836 1.18206 24.7013
283 2 2.2208 13.5407 6.81655 19.0625
9183 2 2.2208 13.4902 -1.60979 16.4231
243 2 2.2208 10.6697 1.08517 16.2658
244 1 -1.1104 12.053 -3.053 17.6367
245 1 -1.1104 12.1 2.50319 17.7046
246 1 -1.1104 11.9281 -3.33232 14.8695
248 1 -1.1104 12.1021 2.58363 14.8239
250 1 -1.1104 12.0749 -0.131129 17.6993
251 2 2.2208 10.732 -1.60466 19.2499
252 2 2.2208 10.7759 3.90764 18.9588
253 1 -1.1104 12.2864 -0.331971 15.0195
255 1 -1.1104 9.27051 -2.86344 18.0296
256 1 -1.1104 9.21902 2.54008 17.6394
257 2 2.2208 7.90327 1.1983 19.1564
258 1 -1.1104 9.19171 -2.97013 14.9972
260 1 -1.1104 9.32602 2.5579 14.9186
262 2 2.2208 7.93462 -1.55388 16.4279
263 2 2.2208 8.02273 4.01668 16.3039
264 1 -1.1104 9.44702 -0.163967 17.7725
265 1 -1.1104 9.38805 -0.36679 14.9703
267 2 2.2208 10.8498 6.78276 16.3413
268 1 -1.1104 12.186 8.24549 17.6874
269 1 -1.1104 12.2484 8.25442 14.7976
271 1 -1.1104 12.1973 5.4238 17.6581
272 1 -1.1104 12.0885 5.42657 14.9864
274 1 -1.1104 9.37862 8.24474 17.5329
275 2 2.2208 7.9959 6.73927 18.9647
276 1 -1.1104 9.51426 8.11219 14.8156
278 1 -1.1104 9.33987 5.43878 17.4742
279 1 -1.1104 9.20058 5.40366 14.7795
249 1 -1.1104 12.1588 2.57151 20.5387
277 1 -1.1104 9.38923 8.05381 20.4062
9078 2 2.2208 13.5243 1.17964 19.181
247 1 -1.1104 12.0663 -3.08714 20.4033
266 1 -1.1104 9.25573 -0.21071 20.7403
218 1 -1.1104 6.53052 8.25819 20.4091
261 1 -1.1104 9.39539 2.59323 20.4554
259 1 -1.1104 9.32158 -2.95341 20.6451
254 1 -1.1104 12.0934 -0.290072 20.5424
270 1 -1.1104 12.1425 8.227 20.4803
280 1 -1.1104 9.4852 5.34857 20.1567
273 1 -1.1104 12.1798 5.39877 20.3486
238 2 2.2208 -0.478732 6.89192 16.4015
337 2 2.2208 2.26072 -4.51253 24.6912
295 1 -1.1104 6.4716 2.48948 23.17
298 1 -1.1104 6.48964 -3.09317 26.2798
222 1 -1.1104 1.01956 5.51626 20.564
291 2 2.2208 5.13591 1.23241 21.7945
292 1 -1.1104 0.808419 -2.87707 23.3911
293 1 -1.1104 0.880296 2.73619 23.2997
296 1 -1.1104 0.845773 -3.02805 26.0718
297 1 -1.1104 1.10277 2.83996 26.1257
300 1 -1.1104 1.0164 -0.108442 23.3864
302 2 2.2208 5.04996 -1.59656 24.6839
303 2 2.2208 5.03116 3.97401 24.7406
304 1 -1.1104 0.78373 -0.122865 25.9902
306 1 -1.1104 3.77213 -3.07185 23.2472
307 1 -1.1104 3.62648 2.62565 23.4792
308 2 2.2208 2.35547 1.09886 24.7155
309 1 -1.1104 3.72512 -3.07885 26.0357
310 1 -1.1104 3.6629 2.56364 26.2161
311 2 2.2208 2.23974 -1.63583 21.8562
312 2 2.2208 2.37515 4.0981 21.973
313 1 -1.1104 3.85451 -0.186489 23.3249
314 1 -1.1104 3.6784 -0.268829 26.1269
315 2 2.2208 5.20381 6.74875 21.7518
320 1 -1.1104 0.9488 5.43736 23.5638
322 1 -1.1104 1.05203 7.87552 26.2388
324 1 -1.1104 3.68326 8.23265 23.0804
325 2 2.2208 2.48702 6.95904 24.6222
326 1 -1.1104 3.91129 7.99405 26.0788
327 1 -1.1104 3.75827 5.46906 23.2158
328 1 -1.1104 3.34126 5.31812 26.0327
321 1 -1.1104 6.4988 5.12245 23.322
319 1 -1.1104 6.53416 8.11075 25.9002
323 1 -1.1104 6.45569 5.34388 25.9196
299 1 -1.1104 6.50248 2.47658 25.9885
330 2 2.2208 2.24127 -1.60151 27.392
178 2 2.2208 5.1717 6.65264 27.4218
329 2 2.2208 5.04021 1.20823 27.4879
316 1 -1.1104 1.18251 8.96532 23.4963
281 2 2.2208 13.5181 3.73849 16.1755
331 2 2.2208 8.01417 3.91457 21.8093
177 2 2.2208 2.33153 3.92878 27.6925
232 2 2.2208 13.5954 4.11247 27.4831
356 1 -1.1104 9.43857 -3.13605 23.4104
8760 2 2.2208 10.6086 -4.37555 21.9282
242 2 2.2208 10.8258 6.79092 21.8777
347 2 2.2208 10.6296 1.19699 22.0162
301 1 -1.1104 6.54099 -0.213433 23.4127
317 1 -1.1104 6.51012 8.08366 23.0349
294 1 -1.1104 6.55193 -2.97519 23.418
305 1 -1.1104 6.48694 -0.311979 25.9693
340 1 -1.1104 12.1542 5.35694 26.0282
233 2 2.2208 13.3994 3.98183 21.8377
336 2 2.2208 7.8947 -1.66146 27.4895
335 2 2.2208 7.96504 4.02415 27.447
287 1 -1.1104 9.24443 -0.330631 26.2882
349 1 -1.1104 12.1256 2.58372 23.1677
338 2 2.2208 10.6328 1.18566 27.4542
346 2 2.2208 7.93261 6.7654 24.497
286 2 2.2208 13.4546 -1.56938 21.9455
348 1 -1.1104 12.0964 -2.97936 23.3205
332 2 2.2208 7.89759 -1.67218 22.1382
318 1 -1.1104 9.5033 -0.292963 23.5235
339 1 -1.1104 9.2942 8.17047 23.1939
333 2 2.2208 13.4346 -1.60699 27.5084
358 2 2.2208 7.80923 1.15567 24.7871
355 1 -1.1104 12.1703 -0.253498 25.9562
236 2 2.2208 13.5081 6.88677 24.6276
357 1 -1.1104 9.26656 2.62975 23.4446
343 1 -1.1104 9.33476 5.34352 25.8804
352 1 -1.1104 12.0864 -0.147526 23.3671
240 1 -1.1104 12.0015 8.15929 23.3062
351 1 -1.1104 12.1594 2.52007 26.1198
359 1 -1.1104 9.40472 -3.12816 26.139
345 1 -1.1104 9.26183 8.16522 26.0658
350 1 -1.1104 12.2985 -3.21874 26.22
353 2 2.2208 10.8083 -1.66817 24.8449
354 2 2.2208 10.7894 4.05352 24.7487
344 1 -1.1104 9.40884 5.33633 23.0944
360 1 -1.1104 9.25893 2.54759 26.1795
342 1 -1.1104 12.1276 5.49174 23.2899
8759 2 2.2208 10.7581 -4.451 27.4912
8842 2 2.2208 2.22644 -4.39764 19.131
8845 2 2.2208 7.83595 -4.30201 19.0417
361 2 2.2208 5.16166 12.3585 4.77063
363 1 -1.1104 0.859114 10.8393 3.79317
366 2 2.2208 5.1318 9.51157 2.27156
368 2 2.2208 2.28996 9.50212 5.10624
369 1 -1.1104 3.73238 10.7735 0.854594
371 1 -1.1104 3.87453 10.6692 3.99774
372 2 2.2208 5.00679 18.0217 5.01695
373 1 -1.1104 0.747414 13.9369 0.791814
375 1 -1.1104 0.878042 19.5932 0.659459
380 1 -1.1104 0.937665 19.0188 3.59304
382 1 -1.1104 0.945109 16.8864 1.14871
385 2 2.2208 4.99188 15.2524 2.2464
386 2 2.2208 5.25114 20.9978 2.02213
389 1 -1.1104 3.74747 13.9401 0.00881547
391 1 -1.1104 3.80683 19.5284 0.71509
393 2 2.2208 2.54928 18.2437 2.10353
394 1 -1.1104 3.99539 13.83 3.52972
395 1 -1.1104 3.53749 19.7125 3.45472
397 2 2.2208 2.22933 20.8826 5.07965
398 1 -1.1104 3.62296 16.5897 0.816291
400 1 -1.1104 3.75717 16.9981 3.53455
414 1 -1.1104 6.36988 16.5937 0.759693
388 1 -1.1104 6.51598 16.6254 3.58608
412 1 -1.1104 6.51539 19.3737 0.667572
392 1 -1.1104 3.57735 19.442 6.51279
377 1 -1.1104 5.91034 13.8015 6.38454
364 1 -1.1104 6.45939 10.9178 0.710918
384 1 -1.1104 6.59115 16.5776 6.4473
365 1 -1.1104 6.65271 10.9768 6.32248
376 1 -1.1104 6.3923 13.578 0.99857
367 1 -1.1104 6.71601 10.7743 3.49041
378 1 -1.1104 6.34215 19.4592 6.36501
383 1 -1.1104 0.653962 16.9803 6.61384
374 1 -1.1104 0.872284 13.5076 6.52855
457 1 -1.1104 0.675809 19.7954 6.33703
370 1 -1.1104 0.934317 10.7269 6.47631
390 1 -1.1104 3.77882 11.3583 6.55802
518 2 2.2208 2.18401 15.3073 -0.582669
413 1 -1.1104 6.34184 19.2574 3.49229
9343 2 2.2208 13.532 12.4203 2.23187
381 1 -1.1104 6.5723 13.8216 3.67911
500 2 2.2208 13.391 9.80146 5.12473
501 2 2.2208 13.4378 15.1214 5.09692
402 2 2.2208 10.5782 12.617 4.92107
403 1 -1.1104 12.1303 10.9305 0.856199
405 2 2.2208 10.7907 9.59377 2.18783
406 1 -1.1104 12.1107 11.0094 3.51133
407 2 2.2208 7.90227 12.3092 2.08447
408 2 2.2208 8.07688 9.65441 4.96278
409 1 -1.1104 9.37367 10.8466 0.791143
411 1 -1.1104 9.37722 11.0838 3.59786
415 2 2.2208 10.6489 18.0807 5.01398
416 1 -1.1104 12.1772 13.8415 0.882694
418 1 -1.1104 12.1126 19.4532 0.979762
420 1 -1.1104 12.0332 13.7662 3.60606
421 1 -1.1104 12.0984 19.3786 3.71478
422 1 -1.1104 12.0062 16.6678 0.929437
424 2 2.2208 10.6946 15.2381 2.27052
425 2 2.2208 10.6499 20.7964 2.22505
426 1 -1.1104 12.0548 16.4514 3.7142
427 1 -1.1104 9.29237 13.6116 0.79697
429 1 -1.1104 9.32132 19.3919 0.880668
431 2 2.2208 7.83284 17.9902 2.20199
432 1 -1.1104 9.30433 13.862 3.52008
433 1 -1.1104 9.17747 19.4831 3.66106
434 2 2.2208 7.91019 15.3042 4.99019
435 2 2.2208 7.76595 20.7874 4.9288
436 1 -1.1104 9.27843 16.4518 0.850624
438 1 -1.1104 9.36222 16.5899 3.62944
439 2 2.2208 13.4999 17.8903 2.34892
499 2 2.2208 13.5054 20.7006 5.00135
428 1 -1.1104 9.06183 14.0006 6.41934
404 1 -1.1104 12.0046 11.0013 6.40718
410 1 -1.1104 9.31411 11.0358 6.36648
423 1 -1.1104 11.9987 16.5548 6.45312
437 1 -1.1104 9.39789 16.6528 6.41035
417 1 -1.1104 11.9462 13.9087 6.47994
419 1 -1.1104 12.1156 19.392 6.31898
515 2 2.2208 7.91647 18.0869 13.3046
574 2 2.2208 2.3405 12.4205 13.4187
467 1 -1.1104 6.65585 10.9765 11.9817
471 1 -1.1104 6.56333 10.9107 9.08931
399 1 -1.1104 3.82149 16.7591 6.69967
441 1 -1.1104 3.73591 19.423 12.0801
442 1 -1.1104 3.84738 13.7704 11.9758
446 1 -1.1104 0.832815 19.3964 9.13118
447 1 -1.1104 0.929669 16.5056 9.29867
448 2 2.2208 5.11198 20.9317 7.75465
449 1 -1.1104 0.894356 13.803 9.40266
450 2 2.2208 5.11306 15.4116 7.94319
453 1 -1.1104 0.921065 19.3462 11.8927
454 1 -1.1104 0.938176 13.7733 12.082
455 2 2.2208 5.20593 17.9531 10.7581
456 1 -1.1104 3.69614 19.3992 9.28586
458 2 2.2208 2.29902 17.9893 8.00514
459 1 -1.1104 3.63495 16.6637 9.41455
460 1 -1.1104 3.83187 13.8908 9.04039
462 1 -1.1104 0.764983 16.505 12.0556
463 1 -1.1104 3.59331 16.4542 12.1677
464 2 2.2208 2.21209 20.9182 10.574
465 2 2.2208 5.24963 12.5209 10.6031
466 1 -1.1104 0.800977 11.0505 12.1032
468 2 2.2208 2.3291 15.2062 10.6168
469 2 2.2208 5.04318 9.69594 7.83747
470 1 -1.1104 0.943738 11.1724 9.28503
472 2 2.2208 2.23803 12.3922 7.93094
473 2 2.2208 2.27617 9.62188 10.8996
474 1 -1.1104 3.69497 11.0383 12.0391
475 1 -1.1104 3.69789 10.9946 9.36673
461 1 -1.1104 6.5454 16.5617 12.1436
452 1 -1.1104 6.55367 13.7687 12.1032
451 1 -1.1104 6.52874 19.421 11.9558
508 2 2.2208 5.1241 9.70371 13.6069
444 1 -1.1104 6.48929 16.7244 9.21782
443 1 -1.1104 6.53528 19.4533 9.14485
445 1 -1.1104 6.62529 13.8018 9.31167
507 2 2.2208 5.10635 20.8772 13.3776
575 2 2.2208 2.31872 17.9811 13.2654
573 2 2.2208 5.22054 15.3042 13.4445
512 2 2.2208 10.8234 9.61096 13.5228
509 2 2.2208 8.03499 12.4707 13.3835
517 2 2.2208 10.7576 15.2698 13.4103
503 2 2.2208 13.3791 12.4413 7.81763
430 1 -1.1104 9.32442 19.4548 6.51496
516 2 2.2208 10.729 20.9996 13.4251
502 2 2.2208 13.6261 20.7821 10.6588
504 2 2.2208 13.6114 9.51871 10.6808
387 1 -1.1104 12.172 11.0646 11.9683
484 1 -1.1104 9.34759 13.8567 9.11951
514 2 2.2208 13.5293 18.061 13.4089
494 1 -1.1104 12.113 16.4928 11.9915
490 2 2.2208 13.476 15.1805 10.5989
495 1 -1.1104 9.4792 11.067 11.9898
9345 2 2.2208 13.5002 17.9499 7.7842
488 1 -1.1104 12.1474 16.5822 9.05934
476 1 -1.1104 12.0672 19.3894 12.0369
498 2 2.2208 7.97038 9.56684 10.6399
480 1 -1.1104 9.31164 16.5099 11.9887
491 2 2.2208 7.78864 12.4163 7.80662
492 1 -1.1104 9.2345 10.9664 9.19389
482 2 2.2208 8.04889 15.2312 10.4878
479 1 -1.1104 9.35529 16.6595 9.131
493 2 2.2208 10.7838 15.2201 7.84451
362 1 -1.1104 12.198 10.8217 9.12241
483 1 -1.1104 9.35447 19.5289 9.28522
401 2 2.2208 10.7142 18.0325 10.6499
489 2 2.2208 10.8117 20.7129 7.8695
440 1 -1.1104 12.1781 13.8291 12.073
487 1 -1.1104 9.29394 13.8174 11.9328
396 2 2.2208 10.7981 12.3609 10.4885
497 1 -1.1104 12.0729 13.7493 9.11875
496 1 -1.1104 12.1566 19.3823 9.24072
379 2 2.2208 10.6276 9.62216 7.71974
481 2 2.2208 7.86775 20.8008 10.646
486 1 -1.1104 9.17224 19.3726 11.9531
485 2 2.2208 7.91791 18.0397 7.79979
521 2 2.2208 13.4553 12.4154 13.4434
527 2 2.2208 5.07846 12.4613 16.1551
528 1 -1.1104 0.923631 11.056 17.8126
530 2 2.2208 5.21967 9.6775 18.9505
531 1 -1.1104 0.953689 10.9262 14.8137
535 2 2.2208 2.3878 12.3956 19.0161
536 2 2.2208 2.34155 9.67004 16.3097
537 1 -1.1104 3.78328 11.0841 17.5084
538 1 -1.1104 3.75388 11.1714 14.8019
540 2 2.2208 5.18769 18.0496 16.2401
541 1 -1.1104 0.890428 13.8441 17.6939
542 1 -1.1104 0.947938 19.5725 17.6772
545 1 -1.1104 1.04745 13.7821 14.9774
547 1 -1.1104 1.21203 19.4436 14.9362
553 1 -1.1104 1.03007 16.6913 17.802
555 2 2.2208 5.17443 15.2344 19.0807
556 2 2.2208 5.08368 20.9234 19.0364
557 1 -1.1104 1.04703 16.5923 14.8423
561 1 -1.1104 3.65079 13.7782 17.7991
562 1 -1.1104 3.73705 19.5316 17.624
563 2 2.2208 2.36615 18.0805 19.0249
564 1 -1.1104 3.80222 13.983 14.986
566 1 -1.1104 3.82534 19.5276 14.888
568 2 2.2208 2.45018 15.2879 16.327
569 2 2.2208 2.45265 20.9018 16.2667
570 1 -1.1104 3.8471 16.6899 17.5583
571 1 -1.1104 3.86316 16.6689 14.6842
572 1 -1.1104 3.63591 16.6262 20.2374
544 1 -1.1104 6.56011 19.5789 17.5942
550 1 -1.1104 6.6215 13.8466 20.3088
546 1 -1.1104 0.96169 13.9734 20.3692
559 1 -1.1104 6.63799 16.6803 14.8296
533 1 -1.1104 6.48465 10.9518 14.7617
543 1 -1.1104 6.49382 13.8177 17.5416
554 1 -1.1104 6.33852 16.5808 17.5945
539 1 -1.1104 3.81449 11.0615 20.3737
560 1 -1.1104 6.55768 16.644 20.2995
551 1 -1.1104 6.5122 19.3764 14.6384
552 1 -1.1104 6.51842 19.5743 20.3055
558 1 -1.1104 0.772577 16.744 20.5559
548 1 -1.1104 0.840226 19.5212 20.4043
648 2 2.2208 13.4618 15.233 16.3034
649 2 2.2208 7.98887 20.9015 27.4603
567 1 -1.1104 3.65111 19.4774 20.3326
529 1 -1.1104 6.63374 10.9209 17.5773
549 1 -1.1104 6.61056 13.7826 14.877
534 1 -1.1104 6.62863 11.0048 20.2593
616 2 2.2208 13.6526 20.8939 16.0813
580 2 2.2208 10.7677 12.575 16.3588
581 1 -1.1104 12.1285 10.9994 17.6926
582 2 2.2208 10.709 9.58148 19.0054
583 1 -1.1104 12.0977 11.0995 14.9232
585 2 2.2208 8.00693 12.4983 18.9139
586 2 2.2208 7.95047 9.5912 16.0958
587 1 -1.1104 9.34932 11.0335 17.6356
588 1 -1.1104 9.38332 11.0643 14.7367
590 2 2.2208 10.6978 18.225 16.3469
591 1 -1.1104 12.0352 13.8455 17.7516
592 1 -1.1104 12.1439 19.5797 17.6536
593 1 -1.1104 12.2591 13.9023 14.9525
595 1 -1.1104 12.2599 19.4862 14.7587
597 1 -1.1104 12.0575 16.6473 17.7773
598 2 2.2208 10.7917 15.1907 19.1148
599 2 2.2208 10.728 20.8735 19.032
600 1 -1.1104 12.2044 16.8245 14.9516
602 1 -1.1104 9.3782 13.9285 17.569
603 1 -1.1104 9.30744 19.5723 17.6899
604 2 2.2208 7.86579 17.9991 19.044
605 1 -1.1104 9.45227 13.9211 14.8589
607 1 -1.1104 9.35173 19.5634 14.9259
609 2 2.2208 8.00401 15.327 16.2459
610 2 2.2208 7.92848 20.9331 16.2992
611 1 -1.1104 9.28859 16.5502 17.7854
612 1 -1.1104 9.17413 16.7067 14.638
606 1 -1.1104 9.28816 13.8379 20.4699
608 1 -1.1104 9.27089 19.4639 20.4945
601 1 -1.1104 12.4903 16.5494 20.6072
584 1 -1.1104 12.0064 10.9602 20.5379
613 1 -1.1104 9.42168 16.6937 20.5154
596 1 -1.1104 11.9244 19.228 20.3839
617 2 2.2208 13.4354 18.0899 19.1115
615 2 2.2208 13.5297 12.5674 19.0616
589 1 -1.1104 9.27038 11.1197 20.4548
647 2 2.2208 13.5086 9.63613 16.2744
594 1 -1.1104 12.0263 13.7669 20.5469
524 2 2.2208 8.00537 9.55649 27.406
645 2 2.2208 2.22842 20.7574 27.4907
641 1 -1.1104 6.60648 10.789 26.0426
532 1 -1.1104 1.08062 11.2099 20.788
565 1 -1.1104 3.7675 13.7185 20.7552
618 1 -1.1104 3.66102 19.4613 23.2049
621 1 -1.1104 0.851332 19.4821 25.9814
622 1 -1.1104 0.663484 16.6369 26.0527
623 1 -1.1104 0.776272 13.8795 26.2294
625 2 2.2208 5.06798 20.8951 24.6533
627 1 -1.1104 0.867012 19.6898 23.2665
628 1 -1.1104 0.779712 13.9501 23.1263
629 2 2.2208 5.04601 18.127 21.9216
630 1 -1.1104 3.84497 19.325 26.029
631 2 2.2208 2.44403 18.0064 24.6115
632 1 -1.1104 3.43183 16.6331 26.0672
634 1 -1.1104 0.764403 16.7927 23.3711
635 1 -1.1104 3.54575 16.6457 22.9644
636 2 2.2208 2.39959 20.9681 21.8181
637 2 2.2208 5.41904 12.4817 21.7347
639 2 2.2208 2.21185 15.2373 21.7955
640 2 2.2208 5.29659 9.47157 24.5757
642 2 2.2208 2.62529 9.83779 21.9044
643 1 -1.1104 4.05322 11.1233 23.0742
644 1 -1.1104 3.86695 10.6148 26.1105
576 1 -1.1104 0.662812 10.6789 26.5077
663 1 -1.1104 6.4945 19.6218 26.0513
624 1 -1.1104 6.50484 19.545 23.12
638 1 -1.1104 6.72332 11.0219 23.1594
646 2 2.2208 5.07033 17.8982 27.3764
519 2 2.2208 2.5314 9.47742 27.5489
619 1 -1.1104 6.23361 13.4417 26.1695
633 1 -1.1104 6.61283 16.9148 23.0882
626 1 -1.1104 6.70229 13.7328 23.1266
656 2 2.2208 13.43 20.8529 27.6602
657 1 -1.1104 9.48633 16.556 26.1666
526 2 2.2208 13.4517 15.2981 27.5988
577 2 2.2208 13.4975 9.6096 21.9011
679 2 2.2208 10.706 18.0955 21.9895
652 2 2.2208 13.4221 15.1 22.0503
9382 2 2.2208 13.6539 20.8345 22.0479
665 1 -1.1104 9.33915 19.4184 23.3441
522 2 2.2208 7.79497 15.1452 27.5365
9399 2 2.2208 13.7736 18.1355 24.8027
682 2 2.2208 10.6058 9.52523 24.7337
525 2 2.2208 10.8089 18.0405 27.4379
650 2 2.2208 13.5724 9.65538 27.4339
673 1 -1.1104 12.057 13.9071 26.221
669 2 2.2208 10.724 20.8545 24.6218
675 2 2.2208 7.91733 9.68478 21.714
672 1 -1.1104 12.2411 19.3507 26.1046
664 2 2.2208 7.86132 18.0481 24.6692
654 2 2.2208 13.3315 12.4866 24.7531
659 2 2.2208 8.00841 20.8523 21.8826
662 1 -1.1104 9.14961 13.7702 26.1959
674 1 -1.1104 9.46143 10.8944 23.2819
670 2 2.2208 10.6922 15.3271 24.7566
658 1 -1.1104 9.38867 16.6103 23.2996
660 2 2.2208 7.93742 15.2851 21.9096
655 1 -1.1104 12.1172 11.141 26.1537
620 1 -1.1104 6.66937 16.7572 26.2012
676 2 2.2208 7.86214 12.4236 24.687
681 1 -1.1104 12.2813 10.9679 23.4057
671 1 -1.1104 12.1005 16.6333 23.4418
680 2 2.2208 10.5992 12.395 21.9644
666 1 -1.1104 9.36974 13.8175 23.3905
667 1 -1.1104 12.2974 16.6306 26.058
661 1 -1.1104 9.4276 19.5513 26.146
668 1 -1.1104 9.35069 11.0465 26.1019
677 1 -1.1104 11.9792 19.4444 23.4109
678 1 -1.1104 11.9699 13.7457 23.3482
523 2 2.2208 10.7315 12.4467 27.4731
9353 2 2.2208 -0.511207 12.5713 27.5116
651 2 2.2208 -0.569393 15.2677 24.7347
520 2 2.2208 4.92564 12.2365 27.5326
683 2 2.2208 5.1525 23.7041 4.99085
684 2 2.2208 5.13165 29.2351 5.05857
685 1 -1.1104 0.930437 25.1927 0.770498
686 1 -1.1104 0.800583 25.0213 3.50412
687 1 -1.1104 0.707408 22.5519 0.616216
688 1 -1.1104 0.91049 27.9117 0.753193
689 2 2.2208 5.11939 26.5302 2.33739
690 1 -1.1104 0.871333 22.2017 3.55979
691 1 -1.1104 0.967025 27.7837 3.56295
692 1 -1.1104 3.73356 25.068 0.879495
693 2 2.2208 2.31404 23.7076 2.06221
694 2 2.2208 2.38179 29.254 2.14329
695 1 -1.1104 3.79908 25.0833 3.6759
696 2 2.2208 2.33124 26.5043 4.95198
697 1 -1.1104 3.74304 22.2901 0.811129
698 1 -1.1104 3.76223 27.8871 0.777111
699 1 -1.1104 3.61006 22.3741 3.60766
700 1 -1.1104 3.71044 27.7655 3.64127
701 1 -1.1104 0.954183 30.6119 0.89092
702 1 -1.1104 0.890909 30.6576 3.73077
703 1 -1.1104 0.908004 33.3884 0.870826
704 2 2.2208 5.1173 32.1067 2.26833
705 1 -1.1104 0.947098 33.4227 3.61559
707 1 -1.1104 4.05617 30.7365 0.78699
708 1 -1.1104 3.65333 30.5031 3.64204
709 2 2.2208 2.25215 32.0536 5.0363
710 1 -1.1104 3.72224 33.5993 0.95033
711 1 -1.1104 3.64775 33.316 3.73043
740 1 -1.1104 6.60699 30.7667 0.826129
719 1 -1.1104 6.60423 27.9216 1.0272
741 1 -1.1104 6.55388 30.8051 3.65669
720 1 -1.1104 6.5109 22.2771 3.56514
716 1 -1.1104 6.53971 25.1009 0.872183
717 1 -1.1104 6.42999 25.1818 3.68004
763 1 -1.1104 3.80408 22.3969 6.31993
758 1 -1.1104 0.899706 22.4847 6.56001
756 1 -1.1104 0.825623 25.1869 6.31729
721 1 -1.1104 6.50991 28.018 3.71025
718 1 -1.1104 6.62012 22.3764 0.791201
742 1 -1.1104 6.5494 33.5708 1.06648
764 1 -1.1104 3.73558 27.9084 6.41123
766 1 -1.1104 6.42803 30.6371 6.58503
765 1 -1.1104 0.849902 30.7677 6.51748
759 1 -1.1104 1.01906 27.9385 6.32554
761 1 -1.1104 6.59742 27.9277 6.40773
768 1 -1.1104 6.43533 33.4228 6.61687
757 1 -1.1104 6.49971 25.1413 6.4832
760 1 -1.1104 6.59413 22.2304 6.26589
767 1 -1.1104 0.844469 33.504 6.41383
762 1 -1.1104 3.66137 25.2566 6.42447
770 1 -1.1104 3.63628 33.6537 6.44221
706 1 -1.1104 6.53376 33.6495 3.73359
9675 2 2.2208 13.5735 29.3322 2.26114
9676 2 2.2208 13.5528 26.4404 5.05955
9542 2 2.2208 13.6413 32.219 5.26607
722 2 2.2208 10.7921 23.584 5.02845
723 2 2.2208 10.7103 29.2493 4.99245
724 1 -1.1104 12.0881 24.9222 0.957267
725 1 -1.1104 12.1167 25.0507 3.7772
726 1 -1.1104 12.0689 22.236 0.822635
727 1 -1.1104 12.0892 27.7791 0.932433
728 2 2.2208 10.7113 26.5077 2.35454
729 1 -1.1104 12.3391 22.1946 3.62836
730 1 -1.1104 12.0496 27.9476 3.66879
731 1 -1.1104 9.33318 25.1371 0.87003
732 2 2.2208 7.99001 23.7197 2.2183
733 2 2.2208 7.87114 29.3818 2.28877
734 1 -1.1104 9.28765 25.0464 3.76862
735 2 2.2208 7.94401 26.3963 5.12595
736 1 -1.1104 9.35874 22.3293 0.797974
737 1 -1.1104 9.324 27.7893 0.899691
738 1 -1.1104 9.47344 22.1665 3.74065
739 1 -1.1104 9.28431 27.9348 3.67127
743 1 -1.1104 12.133 30.6351 0.832586
744 1 -1.1104 12.1772 30.8553 3.65463
745 1 -1.1104 11.9666 33.515 0.901507
746 2 2.2208 10.7971 32.0642 2.28629
747 1 -1.1104 12.1747 33.4926 3.67203
748 1 -1.1104 9.32924 30.7556 0.829138
749 1 -1.1104 9.33211 30.7728 3.87438
750 2 2.2208 7.96405 32.0439 5.1705
751 1 -1.1104 9.2424 33.4961 1.00317
752 1 -1.1104 9.37596 33.4218 3.85457
809 1 -1.1104 12.2541 24.9598 6.50419
810 1 -1.1104 12.2306 22.2353 6.38635
814 1 -1.1104 9.33865 27.8653 6.43661
811 1 -1.1104 12.1085 27.7773 6.38407
812 1 -1.1104 9.37507 25.0045 6.41064
816 1 -1.1104 11.9282 33.4529 6.42473
815 1 -1.1104 12.1123 30.5384 6.43268
813 1 -1.1104 9.41136 22.0799 6.54444
817 1 -1.1104 9.23219 30.7034 6.66048
9678 2 2.2208 13.4851 23.6688 13.5112
818 1 -1.1104 9.20525 33.5098 6.49223
769 1 -1.1104 3.68507 30.865 6.48607
848 2 2.2208 5.01586 26.3361 13.4799
771 2 2.2208 5.13438 23.6849 10.6946
772 2 2.2208 5.23066 29.1817 10.7828
773 1 -1.1104 0.999632 25.04 11.9492
775 1 -1.1104 0.941498 25.0949 9.0489
777 1 -1.1104 0.877235 22.1994 12.0646
778 1 -1.1104 0.906069 27.8461 11.9316
781 2 2.2208 5.18781 26.5837 7.79166
782 1 -1.1104 1.07666 22.2659 9.20518
783 1 -1.1104 0.985706 27.8675 9.2823
786 1 -1.1104 3.76654 24.9713 12.0075
787 2 2.2208 2.32255 23.8431 7.76491
788 2 2.2208 2.3374 29.2444 7.79724
789 1 -1.1104 3.7577 25.1081 9.16597
790 2 2.2208 2.31056 26.415 10.6166