ITEM: TIMESTEP
70000
ITEM: NUMBER OF ATOMS
17820
ITEM: BOX BOUNDS pp pp pp
-3.5701084255010290e-01 2.7697010842550430e+01
-4.3186688397962572e+00 3.3239866883979431e+02
-3.6545569504904857e-01 2.7705455695048780e+01
ITEM: ATOMS id type q x y z
1 2 2.2208 5.33006 1.28429 5.38584
2 1 -1.1104 1.32556 -2.88907 1.07682
3 1 -1.1104 1.149 2.76804 0.982011
6 1 -1.1104 1.19324 -2.8835 3.99305
7 1 -1.1104 1.10437 2.73738 3.88343
10 1 -1.1104 1.07791 -0.157696 1.18074
12 2 2.2208 5.40402 -1.57617 2.57244
13 2 2.2208 5.27137 4.11626 2.53971
14 1 -1.1104 1.30906 -0.0804874 4.14556
16 1 -1.1104 3.97787 -2.91099 1.336
17 1 -1.1104 4.00534 2.6725 1.22636
18 2 2.2208 2.66607 1.17785 2.67585
19 1 -1.1104 4.04918 -3.05112 4.19508
20 1 -1.1104 3.94006 2.46536 3.95703
21 2 2.2208 2.58208 -1.53102 5.46979
22 2 2.2208 2.49231 3.92232 5.28476
23 1 -1.1104 3.94485 -0.129151 1.151
24 1 -1.1104 4.02984 -0.254612 3.98609
25 2 2.2208 5.19914 6.77196 5.39981
30 1 -1.1104 1.19777 5.64162 0.61119
32 1 -1.1104 1.21565 5.38423 3.55056
34 1 -1.1104 3.99269 8.27627 1.20618
35 2 2.2208 2.58937 6.95852 2.41148
36 1 -1.1104 3.95835 8.00204 4.02113
37 1 -1.1104 3.94678 5.48702 1.18943
38 1 -1.1104 3.95613 5.29927 4.11008
28 1 -1.1104 1.06032 8.16805 3.86504
9008 2 2.2208 -0.329864 1.19616 5.39955
9007 2 2.2208 -0.267014 7.03204 5.47715
40 2 2.2208 -0.222027 -1.51089 2.6373
9009 2 2.2208 -0.353934 4.05014 2.56823
330 2 2.2208 2.70697 -1.58814 -0.200503
9023 2 2.2208 -0.263491 1.22813 -0.27632
178 2 2.2208 5.48446 7.04289 -0.240864
177 2 2.2208 2.63726 3.96893 -0.17207
43 2 2.2208 2.66594 -4.37259 2.54103
329 2 2.2208 5.27768 1.31926 -0.11517
150 1 -1.1104 9.45557 5.6579 12.5153
8847 2 2.2208 5.33005 -4.48409 -0.132136
164 2 2.2208 8.08476 1.2724 8.2568
9018 2 2.2208 -0.397118 7.01895 -0.0623739
76 2 2.2208 13.7335 6.73041 2.66381
169 1 -1.1104 9.64729 -0.0279256 12.5598
335 2 2.2208 8.20592 4.12902 -0.17815
5 1 -1.1104 6.69105 2.69569 1.15888
4 1 -1.1104 6.81247 -2.93559 1.10184
31 1 -1.1104 6.60487 5.48513 1.26476
15 1 -1.1104 6.73209 0.0463647 4.01328
33 1 -1.1104 6.70974 5.60609 3.94235
9 1 -1.1104 6.91576 2.7366 3.9586
8 1 -1.1104 6.79851 -2.9393 3.97741
27 1 -1.1104 6.79411 8.26465 1.03927
11 1 -1.1104 6.70128 -0.0750714 1.29145
29 1 -1.1104 6.75141 8.3438 3.90801
71 1 -1.1104 9.71305 8.24999 3.92251
46 2 2.2208 10.9248 1.25595 5.49353
47 1 -1.1104 12.2414 -2.81228 1.1304
48 1 -1.1104 12.3134 2.73701 1.27178
49 1 -1.1104 12.5565 -2.81034 3.97167
50 1 -1.1104 12.2782 2.5372 4.11762
51 1 -1.1104 12.3764 -0.0759608 1.12541
52 2 2.2208 10.9754 -1.40837 2.64974
53 2 2.2208 10.8973 4.08465 2.58936
54 1 -1.1104 12.4465 -0.262375 4.04907
55 1 -1.1104 9.57296 -2.84062 1.25082
56 1 -1.1104 9.41789 2.82841 1.3063
57 2 2.2208 8.14987 1.34988 2.66905
58 1 -1.1104 9.41435 -2.8203 4.06365
59 1 -1.1104 9.66169 2.65141 4.16717
60 2 2.2208 8.0677 -1.4341 5.4094
61 2 2.2208 8.25611 4.12933 5.45997
62 1 -1.1104 9.50229 -0.0462867 1.27634
63 1 -1.1104 9.6949 0.0868386 4.07665
64 2 2.2208 11.0713 6.9386 5.49232
66 1 -1.1104 12.755 8.35086 4.04062
67 1 -1.1104 12.3332 5.30374 1.29231
68 1 -1.1104 12.4265 5.43147 3.97126
69 1 -1.1104 9.75265 8.30227 1.19411
70 2 2.2208 8.25067 6.95972 2.52653
72 1 -1.1104 9.51511 5.55956 1.2674
73 1 -1.1104 9.5457 5.63242 4.0396
159 2 2.2208 10.9638 -1.4532 8.33139
338 2 2.2208 10.8249 1.17545 -0.112702
336 2 2.2208 8.19877 -1.43635 -0.061099
142 1 -1.1104 9.72053 -2.94213 6.91052
74 1 -1.1104 9.4455 8.38497 12.3895
334 2 2.2208 10.9593 6.99602 -0.247524
86 1 -1.1104 4.02281 -2.86054 6.86961
84 1 -1.1104 0.974904 -0.0312188 6.91386
91 1 -1.1104 1.00757 5.29107 6.45169
89 1 -1.1104 1.13698 8.29109 6.71842
80 1 -1.1104 1.33263 -2.77017 7.00063
94 1 -1.1104 3.86888 5.3489 6.8286
81 1 -1.1104 1.23601 2.64968 6.81092
93 1 -1.1104 3.93267 8.30802 6.82537
134 2 2.2208 -0.208598 -1.47375 8.30825
88 1 -1.1104 3.88292 -0.249564 6.86073
87 1 -1.1104 3.92736 2.53676 6.78307
77 2 2.2208 8.19203 -4.27332 2.71547
95 2 2.2208 5.26309 1.28611 11.0746
96 1 -1.1104 1.18966 -2.83785 12.5779
97 1 -1.1104 1.01269 2.82675 12.5007
100 1 -1.1104 1.11155 -2.8556 9.74018
101 1 -1.1104 1.28629 2.79262 9.61145
104 1 -1.1104 1.25698 -0.107026 12.5036
106 2 2.2208 5.42829 -1.53513 8.31128
107 2 2.2208 5.39113 4.08761 8.22939
108 1 -1.1104 1.15483 -0.0650798 9.72434
110 1 -1.1104 3.84598 -3.03173 12.4868
111 1 -1.1104 3.85065 2.81968 12.4383
112 2 2.2208 2.52505 1.24793 8.24051
113 1 -1.1104 3.8819 -2.89563 9.54336
114 1 -1.1104 4.01584 2.81465 9.72271
115 2 2.2208 2.56628 -1.47674 11.2066
116 2 2.2208 2.66029 4.21461 11.0404
117 1 -1.1104 3.87846 -0.0247364 12.4726
118 1 -1.1104 3.93167 -0.160039 9.70871
119 2 2.2208 5.24782 7.11214 11.037
120 1 -1.1104 1.17596 8.45259 12.6065
122 1 -1.1104 1.08119 8.36873 9.55705
124 1 -1.1104 1.24439 5.66263 12.3325
126 1 -1.1104 1.06207 5.58593 9.49472
128 1 -1.1104 3.89484 8.49631 12.3351
129 2 2.2208 2.62445 6.9892 8.08425
130 1 -1.1104 3.95144 8.53379 9.60621
131 1 -1.1104 3.95701 5.72827 12.4646
132 1 -1.1104 3.82236 5.68469 9.70028
8977 2 2.2208 -0.229117 6.96153 10.9607
8857 2 2.2208 -0.146085 4.0418 8.22794
137 2 2.2208 5.40587 -4.25982 11.0282
138 2 2.2208 -0.18063 -4.1911 11.0383
8655 2 2.2208 2.36627 -4.32187 8.30396
158 1 -1.1104 12.4527 -0.104536 12.5819
161 1 -1.1104 12.2699 -0.104114 9.69661
141 1 -1.1104 12.2509 -0.238207 6.79977
92 1 -1.1104 6.75017 5.42159 6.77377
82 1 -1.1104 6.83441 -2.79876 6.89623
145 1 -1.1104 12.3215 8.36068 6.72058
163 1 -1.1104 9.48394 2.61314 12.3692
85 1 -1.1104 6.76875 -0.147837 6.81817
83 1 -1.1104 6.79684 2.61849 6.87777
144 1 -1.1104 9.51497 -0.186925 6.8773
140 1 -1.1104 12.2786 2.60207 6.912
139 1 -1.1104 12.5358 -3.04593 6.88218
156 1 -1.1104 12.4581 -2.86011 9.69956
133 1 -1.1104 12.3265 8.28904 9.47733
151 1 -1.1104 9.55507 8.55936 9.71406
90 1 -1.1104 6.79214 8.28353 6.96993
166 1 -1.1104 9.40943 2.80928 9.56711
148 1 -1.1104 9.46766 5.62672 9.66752
102 1 -1.1104 6.71401 -2.7554 9.77682
121 1 -1.1104 6.67175 8.28999 12.4084
98 1 -1.1104 6.68126 -2.89075 12.5568
109 1 -1.1104 6.72345 0.0213089 9.69648
105 1 -1.1104 6.74213 -0.0222983 12.5002
127 1 -1.1104 6.61673 5.54242 9.63814
125 1 -1.1104 6.88891 5.42515 12.5721
103 1 -1.1104 6.69534 2.60458 9.57855
99 1 -1.1104 6.68544 2.73483 12.3295
157 1 -1.1104 12.2344 2.65215 9.73323
146 1 -1.1104 12.4455 5.45102 6.60876
149 1 -1.1104 9.69892 5.55911 6.85859
143 1 -1.1104 9.43173 2.6779 6.87747
147 1 -1.1104 9.60539 8.32424 6.85252
153 2 2.2208 10.9213 1.27514 11.2417
160 2 2.2208 10.8718 4.09069 8.30854
123 1 -1.1104 6.77857 8.35574 9.69701
170 1 -1.1104 9.58899 0.0186171 9.75917
155 1 -1.1104 12.3813 2.72403 12.499
168 2 2.2208 7.98885 4.06119 11.013
165 1 -1.1104 9.48069 -2.75054 9.87884
135 1 -1.1104 12.343 8.33678 12.3462
154 1 -1.1104 12.4012 -2.8297 12.4718
75 1 -1.1104 12.2829 5.48682 9.58337
171 2 2.2208 10.8838 6.90963 10.9919
162 1 -1.1104 9.6383 -2.90764 12.6163
167 2 2.2208 8.19412 -1.40577 11.1979
152 2 2.2208 8.08363 7.02489 8.30452
79 1 -1.1104 12.3329 5.61285 12.5874
8759 2 2.2208 10.8895 -4.32612 -0.171029
179 2 2.2208 5.34632 1.3417 16.5936
180 1 -1.1104 1.12269 -2.89207 18.0947
181 1 -1.1104 1.25772 2.85276 18.086
184 1 -1.1104 1.19857 -2.91012 15.3796
186 1 -1.1104 1.2676 2.75177 15.3241
192 1 -1.1104 1.29608 0.0114391 18.0313
194 2 2.2208 5.38209 -1.42298 19.4405
195 2 2.2208 5.47754 3.97357 19.3995
196 1 -1.1104 1.19728 -0.0835026 15.3679
200 1 -1.1104 3.92658 -2.92715 18.1039
201 1 -1.1104 3.9978 2.76127 18.0952
202 2 2.2208 2.60958 1.4262 19.4495
203 1 -1.1104 4.16039 -2.81822 15.3097
205 1 -1.1104 3.98791 2.88086 15.2317
207 2 2.2208 2.62515 -1.48032 16.7546
208 2 2.2208 2.54283 4.18424 16.6458
209 1 -1.1104 3.93754 -0.0866655 18.0336
210 1 -1.1104 4.12241 0.0362367 15.1956
212 2 2.2208 5.19833 7.03838 16.646
213 1 -1.1104 1.11974 8.2374 18.2314
215 1 -1.1104 1.1351 8.41922 15.3671
219 1 -1.1104 1.05872 5.47776 18.0519
221 1 -1.1104 1.0912 5.5768 15.1681
225 1 -1.1104 3.95454 8.47658 18.0093
226 2 2.2208 2.51697 6.95328 19.5089
229 1 -1.1104 3.86783 5.60829 17.986
230 1 -1.1104 3.86496 5.64746 15.3399
227 1 -1.1104 3.92567 8.49466 15.1476
8761 2 2.2208 8.15569 -4.32324 25.0525
238 2 2.2208 -0.242195 6.88743 16.7758
234 2 2.2208 -0.248281 4.1891 19.4739
9186 2 2.2208 -0.323721 -1.49248 19.3685
235 2 2.2208 -0.083413 1.28472 16.7667
174 2 2.2208 5.39952 4.27789 13.9041
173 2 2.2208 2.51592 7.02473 13.9858
241 2 2.2208 2.53892 1.43963 13.8565
220 1 -1.1104 6.80843 5.52822 18.0372
193 1 -1.1104 6.70122 -0.157768 17.9281
9022 2 2.2208 -0.253242 4.27225 13.8555
8843 2 2.2208 2.63661 -4.28045 13.9513
8842 2 2.2208 2.46636 -4.20874 19.4557
239 2 2.2208 5.30684 -1.53257 13.7988
290 2 2.2208 11.0317 4.16985 13.9059
217 1 -1.1104 6.72558 8.48852 15.1646
190 1 -1.1104 6.94828 2.90802 15.2018
214 1 -1.1104 6.89024 8.366 18.0106
182 1 -1.1104 6.67421 -2.87644 18.0089
223 1 -1.1104 6.63915 5.73792 15.2035
198 1 -1.1104 6.82642 -0.176007 15.1745
188 1 -1.1104 6.87063 -2.98635 15.3205
183 1 -1.1104 6.8451 2.53823 18.0684
243 2 2.2208 11.0778 1.2711 16.6869
244 1 -1.1104 12.3152 -2.94693 18.2481
245 1 -1.1104 12.5271 2.56462 18.1281
246 1 -1.1104 12.3804 -3.06384 15.3332
248 1 -1.1104 12.4633 2.81038 15.3267
250 1 -1.1104 12.4685 -0.121383 18.2121
251 2 2.2208 10.9854 -1.42613 19.5509
252 2 2.2208 11.0538 4.1551 19.3011
253 1 -1.1104 12.3437 -0.146978 15.442
255 1 -1.1104 9.3986 -2.75179 18.1429
256 1 -1.1104 9.71521 2.73941 17.9275
257 2 2.2208 8.17129 1.30527 19.3896
258 1 -1.1104 9.70957 -2.70736 15.4917
260 1 -1.1104 9.60341 2.83957 15.1533
262 2 2.2208 8.14575 -1.45009 16.6674
263 2 2.2208 8.28616 4.22991 16.5777
264 1 -1.1104 9.54538 -0.00405538 17.8541
265 1 -1.1104 9.56722 0.0760021 15.2055
267 2 2.2208 11.0092 6.95789 16.5414
268 1 -1.1104 12.3652 8.34365 17.9683
269 1 -1.1104 12.3113 8.45794 15.0575
271 1 -1.1104 12.387 5.48646 18.0974
272 1 -1.1104 12.5554 5.51761 15.2917
274 1 -1.1104 9.5327 8.38202 18.0335
275 2 2.2208 8.29007 6.97108 19.327
276 1 -1.1104 9.56434 8.52588 15.1946
278 1 -1.1104 9.65428 5.43572 17.9221
279 1 -1.1104 9.59312 5.6327 15.2636
282 2 2.2208 10.8454 -4.15848 16.9433
289 2 2.2208 11.0629 -1.5216 14.0033
261 1 -1.1104 9.63316 2.69215 20.876
288 2 2.2208 8.15062 1.3865 13.9338
344 1 -1.1104 9.54601 5.62869 23.5929
175 2 2.2208 8.19502 6.98156 13.9649
8845 2 2.2208 8.12128 -4.14566 19.5034
355 1 -1.1104 12.458 -0.0767621 26.4808
197 1 -1.1104 0.889745 -0.0768279 20.8729
228 1 -1.1104 4.00669 8.37255 20.8101
204 1 -1.1104 3.96108 -2.8322 20.9239
206 1 -1.1104 3.89906 2.86708 20.863
185 1 -1.1104 1.07596 -2.82634 20.9369
187 1 -1.1104 1.17196 2.70842 21.0949
211 1 -1.1104 3.8304 -0.0357694 20.8263
231 1 -1.1104 4.077 5.55682 20.7817
9070 2 2.2208 -0.220509 7.13022 22.3533
332 2 2.2208 8.17923 -1.31942 22.2002
216 1 -1.1104 1.24261 8.34053 20.9768
222 1 -1.1104 1.1625 5.44925 21.0727
291 2 2.2208 5.25054 1.18665 22.447
292 1 -1.1104 0.973296 -2.88879 23.7288
293 1 -1.1104 1.24612 2.8568 23.7365
296 1 -1.1104 1.06581 -2.80338 26.4937
297 1 -1.1104 1.14869 2.91683 26.4801
300 1 -1.1104 1.11895 -0.127865 23.7033
302 2 2.2208 5.29447 -1.61197 25.0062
303 2 2.2208 5.38761 4.05677 25.0961
304 1 -1.1104 1.18653 0.00569642 26.4969
306 1 -1.1104 3.8409 -2.74689 23.6635
307 1 -1.1104 3.87674 2.68032 23.7038
308 2 2.2208 2.38131 1.27851 25.0467
309 1 -1.1104 3.9272 -3.0123 26.5056
310 1 -1.1104 4.00914 2.70851 26.443
311 2 2.2208 2.4202 -1.40529 22.3367
312 2 2.2208 2.61154 4.17336 22.3223
313 1 -1.1104 4.01202 -0.153828 23.6482
314 1 -1.1104 3.92115 -0.307973 26.4651
315 2 2.2208 5.48676 6.87364 22.3117
320 1 -1.1104 1.14689 5.71169 23.9473
322 1 -1.1104 1.12047 7.90663 26.4318
324 1 -1.1104 4.1166 8.44274 23.6372
325 2 2.2208 2.79266 7.12803 24.9722
326 1 -1.1104 4.01817 8.39886 26.4302
327 1 -1.1104 4.01617 5.57271 23.6146
328 1 -1.1104 3.70561 5.54655 26.3199
9143 2 2.2208 -0.358299 -1.56784 25.0516
341 2 2.2208 -0.249024 1.25581 22.1962
199 1 -1.1104 6.66147 0.0225075 20.8699
323 1 -1.1104 6.66885 5.45833 26.4895
321 1 -1.1104 6.82752 5.57659 23.7683
9078 2 2.2208 13.8845 1.3075 19.495
337 2 2.2208 2.44013 -4.27476 24.9913
281 2 2.2208 13.8225 4.16278 16.7196
189 1 -1.1104 6.87415 -2.73374 20.8457
247 1 -1.1104 12.4439 -2.83796 21.0794
277 1 -1.1104 9.72087 8.35311 20.8331
280 1 -1.1104 9.71406 5.52052 20.7822
254 1 -1.1104 12.3091 -0.0811083 20.925
358 2 2.2208 8.09799 1.21548 25.0258
348 1 -1.1104 12.1406 -2.8863 23.897
218 1 -1.1104 6.84336 8.25271 20.711
224 1 -1.1104 6.94536 5.44447 20.7053
270 1 -1.1104 12.4662 8.33747 20.7223
266 1 -1.1104 9.49405 0.0777352 20.7964
259 1 -1.1104 9.5656 -2.77535 20.8451
240 1 -1.1104 12.5059 8.41595 23.4775
353 2 2.2208 10.8995 -1.50304 25.0927
191 1 -1.1104 6.63269 2.63761 20.9249
359 1 -1.1104 9.68284 -2.79798 26.6655
318 1 -1.1104 9.53193 0.00954638 23.59
305 1 -1.1104 6.72982 -0.191225 26.4685
294 1 -1.1104 6.68479 -2.86902 23.644
299 1 -1.1104 6.7536 2.76568 26.3941
319 1 -1.1104 6.77084 8.43471 26.3407
301 1 -1.1104 6.77196 -0.238566 23.7809
317 1 -1.1104 6.77748 8.33777 23.5711
295 1 -1.1104 6.65181 2.69699 23.5778
298 1 -1.1104 6.81677 -2.8431 26.4494
350 1 -1.1104 12.3977 -2.988 26.5448
249 1 -1.1104 12.3093 2.79247 21.0273
273 1 -1.1104 12.4382 5.53034 20.7481
342 1 -1.1104 12.4245 5.63793 23.6189
349 1 -1.1104 12.2411 2.86998 23.6859
351 1 -1.1104 12.3008 2.65527 26.6265
354 2 2.2208 10.924 4.10964 25.0631
352 1 -1.1104 12.4148 0.0639164 23.631
347 2 2.2208 10.9924 1.34991 22.2814
339 1 -1.1104 9.70425 8.45966 23.588
340 1 -1.1104 12.4214 5.42547 26.3821
242 2 2.2208 11.1655 6.94961 22.1834
345 1 -1.1104 9.6001 8.31364 26.3859
237 1 -1.1104 12.4918 8.46782 26.4235
343 1 -1.1104 9.61026 5.53812 26.4845
360 1 -1.1104 9.4614 2.64952 26.5992
331 2 2.2208 8.12984 4.11869 22.2412
356 1 -1.1104 9.44439 -2.86673 23.7916
346 2 2.2208 8.14041 7.00402 24.9751
287 1 -1.1104 9.54508 -0.0562934 26.3913
357 1 -1.1104 9.47486 2.83884 23.8036
8841 2 2.2208 5.30904 -4.2841 16.805
17720 2 2.2208 -0.400954 -4.2851 16.5727
8846 2 2.2208 -0.345309 -4.20359 22.1616
316 1 -1.1104 1.21544 8.64317 23.7596
8848 2 2.2208 5.39076 -4.19021 22.2557
8760 2 2.2208 10.8756 -4.28292 22.3144
361 2 2.2208 5.34901 12.5381 5.19656
363 1 -1.1104 0.810566 10.9278 4.16462
366 2 2.2208 5.45575 9.80711 2.56513
368 2 2.2208 2.47429 9.76023 5.28659
369 1 -1.1104 3.90213 11.2266 1.18481
371 1 -1.1104 4.16701 10.7998 4.11589
372 2 2.2208 5.12705 18.1989 5.27795
373 1 -1.1104 0.995539 14.1697 1.17852
375 1 -1.1104 1.09845 19.6848 1.14608
380 1 -1.1104 0.956958 19.3673 3.85753
382 1 -1.1104 1.00612 16.8027 1.13554
385 2 2.2208 5.19732 15.4157 2.56824
386 2 2.2208 5.43623 21.0456 2.51004
389 1 -1.1104 4.00595 14.2411 0.605109
391 1 -1.1104 4.03354 19.8134 1.08434
393 2 2.2208 2.48392 18.3851 2.36016
394 1 -1.1104 4.37895 14.0479 4.03215
395 1 -1.1104 3.91417 19.7634 3.75915
397 2 2.2208 2.51948 21.1135 5.31163
398 1 -1.1104 3.80179 16.9445 1.00332
400 1 -1.1104 3.59764 16.8468 3.80614
388 1 -1.1104 6.63873 16.8312 3.95847
9341 2 2.2208 -0.318857 9.68579 2.74315
9340 2 2.2208 -0.367764 12.4313 5.47832
519 2 2.2208 2.82594 9.74773 -0.278193
520 2 2.2208 5.35787 12.6557 -0.117829
482 2 2.2208 8.13871 15.4239 11.0715
414 1 -1.1104 6.71255 16.7434 1.21235
413 1 -1.1104 6.60634 19.6298 3.82682
525 2 2.2208 10.7943 18.2361 -0.361743
518 2 2.2208 2.4829 15.5551 -0.269195
65 1 -1.1104 12.6481 8.09821 1.09955
646 2 2.2208 5.28927 18.1023 -0.438847
9353 2 2.2208 -0.155997 12.6992 -0.25858
523 2 2.2208 10.7556 12.5283 -0.190732
376 1 -1.1104 6.74849 14.0662 1.37076
412 1 -1.1104 6.72202 19.548 0.961221
367 1 -1.1104 6.80263 11.2305 3.84786
364 1 -1.1104 6.8066 11.1189 1.18728
381 1 -1.1104 6.88977 14.0417 4.02112
402 2 2.2208 10.9071 12.6873 5.42721
403 1 -1.1104 12.2577 11.0486 1.19992
405 2 2.2208 11.0783 9.67416 2.70203
406 1 -1.1104 12.2704 11.1834 4.16664
407 2 2.2208 8.16758 12.5664 2.52574
408 2 2.2208 8.15034 9.75068 5.50963
409 1 -1.1104 9.53991 11.1687 1.2615
411 1 -1.1104 9.52195 11.0842 4.02247
415 2 2.2208 10.8 18.2433 5.37694
416 1 -1.1104 12.3072 13.7522 1.17968
418 1 -1.1104 12.2554 19.6056 1.22287
420 1 -1.1104 12.3711 14.1029 3.92762
421 1 -1.1104 12.1773 19.601 4.06674
422 1 -1.1104 12.3438 16.7235 1.19926
424 2 2.2208 10.8402 15.369 2.578
425 2 2.2208 10.8264 21.0883 2.54787
426 1 -1.1104 12.1289 16.6822 4.0428
427 1 -1.1104 9.52328 14.0289 1.17893
429 1 -1.1104 9.53074 19.7231 1.11855
431 2 2.2208 8.07245 18.2022 2.59456
432 1 -1.1104 9.55704 13.8742 3.89854
433 1 -1.1104 9.30826 19.7172 3.99974
434 2 2.2208 8.04238 15.6099 5.35419
435 2 2.2208 8.13671 21.0039 5.35761
436 1 -1.1104 9.57549 16.8068 1.13535
438 1 -1.1104 9.47974 16.8319 4.08052
649 2 2.2208 8.04525 21.0793 -0.395799
522 2 2.2208 8.05375 15.4585 -0.206841
524 2 2.2208 8.22756 9.88744 -0.279084
457 1 -1.1104 1.10206 19.7884 6.72278
392 1 -1.1104 3.84916 19.7976 6.60119
370 1 -1.1104 1.226 11.2287 6.88875
383 1 -1.1104 1.02513 16.8906 6.62893
390 1 -1.1104 4.00045 11.5648 6.7755
9344 2 2.2208 -0.302445 21.0251 8.1032
477 2 2.2208 -0.316046 18.1947 10.9355
9326 2 2.2208 -0.378158 9.72036 8.24038
478 2 2.2208 -0.129143 15.4116 8.06038
374 1 -1.1104 0.964566 13.8274 6.93069
377 1 -1.1104 6.3018 13.8927 6.87461
399 1 -1.1104 4.13932 16.9516 7.04344
441 1 -1.1104 3.95671 19.5042 12.3537
442 1 -1.1104 3.96246 13.9371 12.173
446 1 -1.1104 1.00445 19.7658 9.65096
447 1 -1.1104 1.13993 17.0372 9.40238
448 2 2.2208 5.30598 21.0178 8.13108
449 1 -1.1104 1.05503 14.1253 9.70835
450 2 2.2208 5.57942 15.5447 8.2454
453 1 -1.1104 1.17305 19.6759 12.4438
454 1 -1.1104 1.1861 14.0329 12.5214
455 2 2.2208 5.41292 18.3175 10.955
456 1 -1.1104 3.72651 19.5622 9.4634
458 2 2.2208 2.46947 18.2916 8.06689
459 1 -1.1104 4.04642 16.8247 9.77476
460 1 -1.1104 4.06775 13.9383 9.16127
462 1 -1.1104 1.0688 16.7659 12.3064
463 1 -1.1104 3.86735 16.7134 12.4552
464 2 2.2208 2.52293 21.0514 11.0984
465 2 2.2208 5.17335 12.709 10.9257
466 1 -1.1104 1.16113 11.1888 12.4674
468 2 2.2208 2.51194 15.6138 10.9317
469 2 2.2208 5.20872 9.8371 8.11893
470 1 -1.1104 1.11431 11.0219 9.58569
472 2 2.2208 2.48088 12.629 8.1642
473 2 2.2208 2.56477 9.79924 11.1138
474 1 -1.1104 3.91961 11.2129 12.4461
475 1 -1.1104 3.89296 11.2912 9.67696
467 1 -1.1104 6.58532 11.3031 12.3645
505 2 2.2208 -0.295227 12.5205 10.9357
440 1 -1.1104 12.4808 13.8243 12.4975
365 1 -1.1104 6.72986 11.0175 6.77811
396 2 2.2208 10.9099 12.4837 11.0068
480 1 -1.1104 9.49466 16.7638 12.4303
498 2 2.2208 8.02737 9.90406 10.8548
494 1 -1.1104 12.3293 16.6817 12.417
493 2 2.2208 10.8826 15.4871 8.24276
491 2 2.2208 8.09969 12.6111 8.09817
417 1 -1.1104 12.2952 13.9965 6.7886
430 1 -1.1104 9.60523 19.7129 6.77919
404 1 -1.1104 12.3022 11.3497 6.7856
410 1 -1.1104 9.56443 11.2161 6.66651
419 1 -1.1104 12.2343 19.5599 6.86314
481 2 2.2208 8.16604 21.0765 10.9723
378 1 -1.1104 6.622 19.6202 6.65404
451 1 -1.1104 6.74199 19.666 12.288
461 1 -1.1104 6.73973 16.8902 12.4622
443 1 -1.1104 6.61244 19.6945 9.45003
471 1 -1.1104 6.72417 11.2859 9.43906
452 1 -1.1104 6.78726 14.0474 12.4469
445 1 -1.1104 6.76358 14.1172 9.67846
487 1 -1.1104 9.62252 14.0342 12.3834
444 1 -1.1104 6.84149 16.8893 9.59978
384 1 -1.1104 6.7711 16.9414 6.80233
401 2 2.2208 10.9306 18.18 10.9792
497 1 -1.1104 12.2643 13.9845 9.73753
428 1 -1.1104 9.29625 13.9262 6.65749
423 1 -1.1104 12.0967 16.7877 6.77183
437 1 -1.1104 9.46432 16.9283 6.89055
489 2 2.2208 10.8726 21.0407 8.35531
492 1 -1.1104 9.46237 11.2924 9.55175
485 2 2.2208 8.17793 18.3383 8.06977
496 1 -1.1104 12.1875 19.6879 9.75016
495 1 -1.1104 9.43275 11.358 12.422
479 1 -1.1104 9.65833 16.9354 9.55777
379 2 2.2208 10.8938 9.8579 8.15498
362 1 -1.1104 12.3338 11.093 9.57261
486 1 -1.1104 9.68467 19.5233 12.436
483 1 -1.1104 9.42146 19.5824 9.75935
476 1 -1.1104 12.4477 19.5783 12.5258
387 1 -1.1104 12.3515 11.1556 12.2326
484 1 -1.1104 9.64091 14.0058 9.51721
488 1 -1.1104 12.4283 16.8054 9.57511
9352 2 2.2208 -0.437793 18.2717 -0.323875
9339 2 2.2208 -0.361118 21.0653 2.62922
506 1 -1.1104 1.14699 8.428 1.15699
527 2 2.2208 5.33361 12.6513 16.5201
528 1 -1.1104 1.06959 11.0839 18.1869
530 2 2.2208 5.37167 9.66205 19.4131
531 1 -1.1104 1.21611 11.1553 15.3048
535 2 2.2208 2.54861 12.8179 19.4233
536 2 2.2208 2.59517 9.90017 16.6671
537 1 -1.1104 3.84018 11.2071 18.1094
538 1 -1.1104 3.96595 11.3145 15.2311
540 2 2.2208 5.43127 18.2526 16.5487
541 1 -1.1104 1.09868 13.9064 17.9584
542 1 -1.1104 1.25676 19.6877 17.9498
545 1 -1.1104 1.19859 13.9677 15.1826
547 1 -1.1104 1.39239 19.4509 15.2171
553 1 -1.1104 1.19939 16.6412 18.0607
555 2 2.2208 5.17499 15.4281 19.2699
556 2 2.2208 5.36156 21.0476 19.3499
557 1 -1.1104 0.976073 16.7982 15.2079
561 1 -1.1104 3.83688 14.0569 18.0178
562 1 -1.1104 4.09747 19.6529 17.9485
563 2 2.2208 2.63282 18.3254 19.3516
564 1 -1.1104 3.9529 14.1417 15.2228
566 1 -1.1104 3.97781 19.5934 14.969
568 2 2.2208 2.51226 15.4305 16.557
569 2 2.2208 2.61987 21.0487 16.6202
570 1 -1.1104 3.91551 16.8404 17.8402
571 1 -1.1104 4.02326 16.9052 15.1062
572 1 -1.1104 3.83483 16.7335 20.6459
507 2 2.2208 5.36496 20.9117 13.6758
508 2 2.2208 5.31546 9.88569 13.776
510 2 2.2208 -0.315391 21.0067 13.7897
614 2 2.2208 -0.223319 12.605 16.6644
513 2 2.2208 -0.203056 9.77687 13.9223
559 1 -1.1104 6.81506 16.8062 15.1279
544 1 -1.1104 6.77889 19.5174 17.9534
573 2 2.2208 5.34682 15.4633 13.8901
653 2 2.2208 -0.317682 21.1475 24.9948
9460 2 2.2208 -0.188041 18.2884 16.6299
511 2 2.2208 -0.236728 15.2951 13.867
9455 2 2.2208 -0.292617 15.5235 19.3493
574 2 2.2208 2.52261 12.4771 13.7348
575 2 2.2208 2.55819 18.1288 13.7979
554 1 -1.1104 6.85626 16.7396 17.8392
551 1 -1.1104 6.68644 19.651 15.1059
549 1 -1.1104 6.78706 14.085 15.2022
533 1 -1.1104 6.75735 11.3994 15.1833
543 1 -1.1104 6.91582 14.0043 17.771
529 1 -1.1104 6.57938 11.0876 17.9262
560 1 -1.1104 6.69129 16.707 20.6392
580 2 2.2208 11.0285 12.6129 16.5953
581 1 -1.1104 12.4253 11.2343 17.8529
582 2 2.2208 10.981 9.75282 19.4638
583 1 -1.1104 12.2728 11.2862 15.0919
585 2 2.2208 8.23321 12.6385 19.3499
586 2 2.2208 8.13234 9.92415 16.6042
587 1 -1.1104 9.67881 11.3326 18.0661
588 1 -1.1104 9.56826 11.1255 15.1999
590 2 2.2208 10.8656 18.1289 16.5136
591 1 -1.1104 12.5398 14.0846 18.0609
592 1 -1.1104 12.3096 19.7337 18.0278
593 1 -1.1104 12.3945 14.0136 15.2495
595 1 -1.1104 12.3803 19.6879 15.249
597 1 -1.1104 12.3421 16.8882 18.0579
598 2 2.2208 10.9836 15.4493 19.4371
599 2 2.2208 10.8872 21.0092 19.4302
600 1 -1.1104 12.3076 16.8548 15.2923
602 1 -1.1104 9.82096 14.0624 17.9292
603 1 -1.1104 9.53943 19.4722 18.0404
604 2 2.2208 8.21459 18.2227 19.4361
605 1 -1.1104 9.43687 14.0331 15.1526
607 1 -1.1104 9.49986 19.6474 15.2343
609 2 2.2208 8.26244 15.4889 16.5348
610 2 2.2208 8.17391 20.9885 16.5474
611 1 -1.1104 9.74663 16.7606 17.926
612 1 -1.1104 9.52018 16.854 15.0808
584 1 -1.1104 12.418 11.2629 20.7002
515 2 2.2208 8.08685 18.2758 13.781
517 2 2.2208 10.9208 15.3324 13.8283
512 2 2.2208 10.8835 9.81575 13.7259
516 2 2.2208 10.992 21.0946 13.7395
509 2 2.2208 8.03639 12.7489 13.8159
652 2 2.2208 13.6361 15.3958 22.3586
539 1 -1.1104 3.92552 11.186 20.6918
577 2 2.2208 13.7734 9.9712 22.0792
9382 2 2.2208 13.8273 20.9405 22.2245
546 1 -1.1104 1.09517 14.039 20.6414
558 1 -1.1104 1.09693 16.8528 20.7318
567 1 -1.1104 4.03227 19.5597 20.7284
548 1 -1.1104 1.2358 19.7886 20.7815
532 1 -1.1104 0.967409 11.1461 21.1187
565 1 -1.1104 3.76396 13.9583 21.0459
618 1 -1.1104 3.85565 19.7156 23.5389
621 1 -1.1104 1.01253 19.5232 26.2346
622 1 -1.1104 1.00281 16.8478 26.4058
623 1 -1.1104 1.19358 14.0142 26.4572
625 2 2.2208 5.18059 20.9457 24.9101
627 1 -1.1104 0.843644 19.867 23.5647
628 1 -1.1104 1.14107 14.2133 23.3902
629 2 2.2208 5.35399 18.221 22.1549
630 1 -1.1104 3.77362 19.5384 26.5134
631 2 2.2208 2.48553 18.0727 24.9751
632 1 -1.1104 3.93415 16.7427 26.1532
634 1 -1.1104 0.775902 16.844 23.6599
635 1 -1.1104 3.73983 17.1143 23.265
636 2 2.2208 2.58799 21.0549 22.1805
637 2 2.2208 5.4749 12.4978 22.0954
639 2 2.2208 2.41257 15.7839 22.0748
640 2 2.2208 5.44015 10.0049 25.0842
642 2 2.2208 2.70973 9.83098 22.1556
643 1 -1.1104 3.95619 11.1394 23.4415
644 1 -1.1104 4.01743 11.2791 26.619
576 1 -1.1104 0.958216 10.8685 26.9849
651 2 2.2208 -0.276096 15.245 24.9588
9396 2 2.2208 -0.322763 9.68135 25.3724
624 1 -1.1104 6.61969 19.7415 23.4379
9405 2 2.2208 -0.467395 18.371 22.3514
661 1 -1.1104 9.37775 19.7984 26.3477
673 1 -1.1104 12.2729 14.1564 26.4461
680 2 2.2208 10.968 12.7157 22.213
669 2 2.2208 10.8979 21.0117 24.8786
552 1 -1.1104 6.93025 19.6123 20.6485
550 1 -1.1104 6.63217 13.8596 20.5289
589 1 -1.1104 9.67191 11.2857 20.7365
682 2 2.2208 11.0076 9.77308 24.9449
670 2 2.2208 10.8981 15.4556 25.0029
668 1 -1.1104 9.55336 11.1282 26.3327
660 2 2.2208 8.09212 15.4016 22.1219
666 1 -1.1104 9.62181 14.0534 23.4724
657 1 -1.1104 9.64186 16.9378 26.3501
534 1 -1.1104 6.82267 10.9209 20.8408
596 1 -1.1104 12.2459 19.4618 20.7994
594 1 -1.1104 12.5017 14.0689 20.7979
601 1 -1.1104 12.6332 16.7626 20.8089
608 1 -1.1104 9.47861 19.6872 20.7713
606 1 -1.1104 9.53992 14.0984 20.7062
613 1 -1.1104 9.46004 16.8933 20.665
671 1 -1.1104 12.1615 16.8944 23.6201
663 1 -1.1104 6.50861 19.6676 26.156
626 1 -1.1104 6.80716 13.7893 23.2461
638 1 -1.1104 6.93711 11.2268 23.6658
664 2 2.2208 7.95909 18.2674 24.988
641 1 -1.1104 6.771 11.1487 26.5722
619 1 -1.1104 6.80008 13.8218 26.6014
620 1 -1.1104 7.00029 17.0479 26.5436
633 1 -1.1104 6.70108 16.9996 23.4109
655 1 -1.1104 12.2331 11.2281 26.4294
665 1 -1.1104 9.41687 19.6989 23.689
662 1 -1.1104 9.50353 14.1772 26.4708
659 2 2.2208 8.09134 21.1183 22.2293
675 2 2.2208 8.24027 9.74409 22.2982
674 1 -1.1104 9.64644 11.2667 23.5428
672 1 -1.1104 12.2268 19.6197 26.4211
676 2 2.2208 8.06931 12.748 25.0147
667 1 -1.1104 12.5612 16.8976 26.5025
679 2 2.2208 10.869 18.2654 22.296
681 1 -1.1104 12.3674 11.2151 23.4504
677 1 -1.1104 12.2513 19.6682 23.5128
658 1 -1.1104 9.38304 16.916 23.6357
678 1 -1.1104 12.3438 14.125 23.7068
578 2 2.2208 -0.181663 9.83621 19.5999
645 2 2.2208 2.55714 21.0596 27.8445
683 2 2.2208 5.49242 23.799 5.2333
684 2 2.2208 5.09077 29.3095 5.31027
685 1 -1.1104 1.32744 25.1321 0.912166
686 1 -1.1104 1.095 25.2318 3.8612
687 1 -1.1104 1.00172 22.4377 1.12082
688 1 -1.1104 0.959041 27.9352 1.00902
689 2 2.2208 5.27696 26.6053 2.36661
690 1 -1.1104 1.24462 22.3125 3.78094
691 1 -1.1104 1.10288 27.9447 4.26648
692 1 -1.1104 4.02739 25.1549 0.905252
693 2 2.2208 2.61514 23.9077 2.41889
694 2 2.2208 2.45498 29.4322 2.51345
695 1 -1.1104 3.8756 25.1957 3.80073
696 2 2.2208 2.47632 26.5935 5.47604
697 1 -1.1104 3.81805 22.4413 1.10116
698 1 -1.1104 3.65352 28.2809 0.959188
699 1 -1.1104 4.05706 22.4068 3.89806
700 1 -1.1104 3.76822 27.9665 3.685
701 1 -1.1104 1.17373 30.7742 1.10335
702 1 -1.1104 1.06072 30.7827 3.95468
703 1 -1.1104 0.887164 33.3908 1.36926
704 2 2.2208 5.17092 32.2733 2.57952
705 1 -1.1104 1.0382 33.5211 3.99468
707 1 -1.1104 3.90798 30.9439 1.0893
708 1 -1.1104 3.77995 30.8282 3.92534
709 2 2.2208 2.42422 32.1468 5.37567
710 1 -1.1104 3.79945 33.61 1.13008
711 1 -1.1104 3.83009 33.5697 4.00448
767 1 -1.1104 1.05477 33.7358 6.78873
858 2 2.2208 5.20475 29.5814 -0.466601
914 2 2.2208 10.8327 23.7524 -0.281652
857 2 2.2208 2.50028 32.3026 -0.30679
741 1 -1.1104 6.58075 30.9237 3.96799
716 1 -1.1104 6.75885 25.3878 1.03872
765 1 -1.1104 1.09137 30.8686 6.79578
762 1 -1.1104 3.95932 25.2319 6.73457
759 1 -1.1104 0.989857 27.9276 6.81148
766 1 -1.1104 6.64434 30.7863 6.8604
840 2 2.2208 10.9816 32.1825 8.17788
856 2 2.2208 2.4804 26.75 -0.440606
830 2 2.2208 8.11954 29.4338 8.13101
9671 2 2.2208 -0.313309 29.3636 5.47967
990 2 2.2208 5.38171 23.8797 -0.408326
715 1 -1.1104 9.41369 30.7779 9.65393
836 1 -1.1104 9.39001 28.1204 9.56755
9672 2 2.2208 -0.378056 23.7845 5.36691
822 1 -1.1104 12.431 25.2079 9.58366
740 1 -1.1104 6.70827 30.7491 1.14811
717 1 -1.1104 6.79472 25.2485 3.90795
721 1 -1.1104 6.57572 27.9595 3.87364
742 1 -1.1104 6.73981 33.5483 1.27029
718 1 -1.1104 6.76737 22.5232 1.05242
706 1 -1.1104 6.60586 33.7233 3.84332
720 1 -1.1104 6.89563 22.3691 3.87381
719 1 -1.1104 6.59558 28.1597 1.0619
722 2 2.2208 11.0311 23.811 5.34596
723 2 2.2208 10.9149 29.4662 5.36919
724 1 -1.1104 12.2865 25.1653 1.12197
725 1 -1.1104 12.4361 25.2866 3.89761
726 1 -1.1104 12.4286 22.405 1.08352
727 1 -1.1104 12.3574 27.9677 1.14975
728 2 2.2208 10.9137 26.6174 2.44478
729 1 -1.1104 12.207 22.4361 3.8838
730 1 -1.1104 12.2926 27.9904 4.05076
731 1 -1.1104 9.42523 25.1988 0.921045
732 2 2.2208 8.15632 23.8743 2.49503
733 2 2.2208 7.99375 29.3999 2.55871
734 1 -1.1104 9.67107 25.2564 3.79043
735 2 2.2208 8.11964 26.5804 5.39176
736 1 -1.1104 9.47684 22.5699 1.18141
737 1 -1.1104 9.46028 28.0298 1.03947
738 1 -1.1104 9.57325 22.5062 3.99758
739 1 -1.1104 9.443 27.9969 3.86324
743 1 -1.1104 12.2996 30.751 1.14546
744 1 -1.1104 12.1893 30.8009 3.96382
745 1 -1.1104 12.2207 33.6032 1.06231
746 2 2.2208 10.9068 32.1768 2.37777
747 1 -1.1104 12.2382 33.6303 3.93168
748 1 -1.1104 9.56587 30.7223 1.30637
749 1 -1.1104 9.38317 30.7305 4.05234
750 2 2.2208 7.91819 32.2191 5.27827
751 1 -1.1104 9.45376 33.664 1.14953
752 1 -1.1104 9.43653 33.4382 3.94665
814 1 -1.1104 9.59348 27.9917 6.66027
849 2 2.2208 8.04088 26.7376 -0.326616
821 1 -1.1104 12.2848 25.2237 12.3428
758 1 -1.1104 1.0494 22.5185 6.7087
769 1 -1.1104 3.87442 30.7938 6.85912
764 1 -1.1104 3.87573 27.9494 6.72742
756 1 -1.1104 1.05796 25.3757 6.87074
763 1 -1.1104 3.95143 22.4587 6.68236
770 1 -1.1104 3.80546 33.441 6.84147
838 1 -1.1104 12.4252 30.7685 9.57611
842 2 2.2208 -0.321086 23.8805 10.967
9614 2 2.2208 -0.336524 26.5315 8.14176
771 2 2.2208 5.30671 23.8418 10.98
772 2 2.2208 5.33637 29.4855 11.0021
773 1 -1.1104 1.13064 25.2839 12.304
775 1 -1.1104 1.33899 25.1322 9.64664
777 1 -1.1104 1.02441 22.4938 12.4862
778 1 -1.1104 1.23474 28.0533 12.4936
781 2 2.2208 5.32261 26.6625 8.12801
782 1 -1.1104 1.10652 22.4553 9.58242
783 1 -1.1104 0.884329 27.7181 9.68628
786 1 -1.1104 4.01737 25.2201 12.38
787 2 2.2208 2.49607 23.7082 8.17424
788 2 2.2208 2.44928 29.4565 8.30463
789 1 -1.1104 3.89737 25.2259 9.52077