ITEM: TIMESTEP
90000
ITEM: NUMBER OF ATOMS
17820
ITEM: BOX BOUNDS pp pp pp
-3.6061465035525686e-01 2.7700614650355735e+01
-4.2799035221647301e+00 3.3235990352215936e+02
-3.7191714043190860e-01 2.7711917140431563e+01
ITEM: ATOMS id type q x y z
1 2 2.2208 5.01281 1.28099 5.06326
2 1 -1.1104 0.993246 -2.92795 0.821098
3 1 -1.1104 0.693148 2.94075 0.708147
6 1 -1.1104 0.657726 -2.73825 3.87649
7 1 -1.1104 0.740068 2.72724 3.5469
10 1 -1.1104 0.952693 0.130105 0.780628
12 2 2.2208 5.05549 -1.32604 2.29728
13 2 2.2208 5.16928 4.09288 2.26382
14 1 -1.1104 0.809417 0.0688858 3.64373
16 1 -1.1104 3.61162 -2.77055 0.885885
17 1 -1.1104 3.50147 2.78699 1.03617
18 2 2.2208 2.1295 1.32404 2.23734
19 1 -1.1104 3.75033 -2.83895 3.61083
20 1 -1.1104 3.6156 2.69438 3.80567
21 2 2.2208 2.27471 -1.48152 5.09517
22 2 2.2208 2.24848 4.18983 4.97249
23 1 -1.1104 3.73423 0.0603912 0.911896
24 1 -1.1104 3.66076 -0.144002 3.62834
25 2 2.2208 4.93334 6.82434 5.04325
30 1 -1.1104 0.963855 5.85834 0.505904
32 1 -1.1104 0.945963 5.51585 3.40947
34 1 -1.1104 3.64664 8.40908 0.904038
35 2 2.2208 2.28265 6.981 2.2029
36 1 -1.1104 3.39394 8.13559 3.73996
37 1 -1.1104 3.74586 5.59789 0.750299
38 1 -1.1104 3.6412 5.56781 3.56832
28 1 -1.1104 0.673832 8.20477 3.69907
176 2 2.2208 13.3433 6.87441 13.5707
81 1 -1.1104 0.915452 2.68612 6.51384
5 1 -1.1104 6.41806 2.87018 0.798016
91 1 -1.1104 0.56845 5.3708 6.16372
80 1 -1.1104 0.667786 -2.94717 6.57532
87 1 -1.1104 3.61557 2.73704 6.47054
84 1 -1.1104 0.940045 -0.11417 6.38826
15 1 -1.1104 6.50945 -0.0595595 3.63394
11 1 -1.1104 6.50142 0.00212296 0.653913
8 1 -1.1104 6.53084 -2.8694 3.66102
27 1 -1.1104 6.57371 8.22596 0.647685
33 1 -1.1104 6.52043 5.46759 3.65224
94 1 -1.1104 3.49082 5.44374 6.37046
86 1 -1.1104 3.66898 -2.79392 6.49197
88 1 -1.1104 3.68161 -0.0505954 6.44436
89 1 -1.1104 0.742114 8.2136 6.67089
90 1 -1.1104 6.55934 8.35579 6.3809
92 1 -1.1104 6.3161 5.47122 6.50032
93 1 -1.1104 3.60624 8.42334 6.33582
82 1 -1.1104 6.32439 -2.9048 6.43716
9 1 -1.1104 6.53138 2.70364 3.58133
29 1 -1.1104 6.34599 8.27078 3.48506
4 1 -1.1104 6.35714 -2.74 0.918842
85 1 -1.1104 6.4538 -0.133926 6.65064
83 1 -1.1104 6.41527 2.71281 6.51009
31 1 -1.1104 6.48499 5.6299 0.753876
76 2 2.2208 13.2997 6.77642 2.18015
8965 2 2.2208 13.4328 1.24681 2.23973
136 2 2.2208 13.3916 4.11764 4.91157
71 1 -1.1104 9.26785 8.27652 3.56213
46 2 2.2208 10.6509 1.32858 5.14811
47 1 -1.1104 12.1021 -2.73275 0.88247
48 1 -1.1104 12.0171 2.69395 0.821557
49 1 -1.1104 12.2709 -2.70589 3.65506
50 1 -1.1104 12.0196 2.73252 3.59813
51 1 -1.1104 11.9567 -0.0420335 0.748736
52 2 2.2208 10.7233 -1.55773 2.22834
53 2 2.2208 10.6276 4.0902 2.1884
54 1 -1.1104 12.1944 -0.007215 3.69556
55 1 -1.1104 9.11946 -2.99512 0.879003
56 1 -1.1104 9.12523 2.75536 0.765265
57 2 2.2208 7.93953 1.36648 2.24534
58 1 -1.1104 9.40788 -2.95765 3.63064
59 1 -1.1104 9.28057 2.54677 3.69348
60 2 2.2208 7.82344 -1.46622 4.97358
61 2 2.2208 7.78206 4.05219 5.12478
62 1 -1.1104 9.28955 -0.175978 1.00357
63 1 -1.1104 9.31975 -0.194134 3.66981
64 2 2.2208 10.4982 6.81297 4.97054
66 1 -1.1104 12.1643 8.19235 3.68329
67 1 -1.1104 11.9905 5.38904 0.702309
68 1 -1.1104 12.0404 5.40493 3.52975
69 1 -1.1104 9.52364 8.19512 0.818159
70 2 2.2208 7.71659 6.94969 2.17868
72 1 -1.1104 9.2876 5.50547 0.823571
73 1 -1.1104 9.26996 5.3867 3.8176
65 1 -1.1104 12.4494 8.32947 0.937091
142 1 -1.1104 9.05994 -2.95439 6.32268
146 1 -1.1104 12.0275 5.5895 6.43739
141 1 -1.1104 11.916 -0.0404023 6.59323
8875 2 2.2208 13.3799 -1.45818 5.11298
147 1 -1.1104 9.37912 8.4256 6.22465
144 1 -1.1104 9.08614 -0.049599 6.50777
143 1 -1.1104 9.3218 2.8045 6.48496
139 1 -1.1104 11.8883 -2.8774 6.41147
145 1 -1.1104 12.1558 8.46563 6.57389
140 1 -1.1104 12.1041 2.88155 6.33076
149 1 -1.1104 9.1364 5.59377 6.54161
9028 2 2.2208 13.513 -4.18081 13.308
173 2 2.2208 2.16357 6.98049 13.457
26 2 2.2208 13.3667 6.9414 7.89305
98 1 -1.1104 6.36519 -2.92508 12.1423
103 1 -1.1104 6.28617 2.81583 9.27614
121 1 -1.1104 6.57568 8.36051 12.0755
109 1 -1.1104 6.4142 -0.0174279 9.3685
95 2 2.2208 5.02894 1.35365 10.6622
96 1 -1.1104 0.779458 -2.64689 12.2274
97 1 -1.1104 0.809787 2.84865 11.943
100 1 -1.1104 0.973576 -2.77895 9.36935
101 1 -1.1104 0.707997 2.77072 9.2393
104 1 -1.1104 0.756932 0.163612 11.9893
106 2 2.2208 5.03641 -1.45559 7.89838
107 2 2.2208 5.0348 4.20587 7.92756
108 1 -1.1104 0.777605 -0.00872929 9.15375
110 1 -1.1104 3.62022 -2.94548 12.1784
111 1 -1.1104 3.68726 2.823 11.9798
112 2 2.2208 2.287 1.30991 7.77385
113 1 -1.1104 3.60981 -2.75725 9.39652
114 1 -1.1104 3.63044 2.87501 9.17218
115 2 2.2208 2.2012 -1.31298 10.718
116 2 2.2208 2.22333 4.22749 10.5718
117 1 -1.1104 3.68381 -0.00136724 12.1312
118 1 -1.1104 3.62592 0.056255 9.18573
119 2 2.2208 5.08963 6.93186 10.726
120 1 -1.1104 0.702225 8.42899 12.1668
122 1 -1.1104 0.8274 8.38546 9.40791
124 1 -1.1104 0.865557 5.70136 11.9955
126 1 -1.1104 0.771643 5.57945 9.19867
128 1 -1.1104 3.64002 8.25084 12.1551
129 2 2.2208 2.21312 6.96545 7.8766
130 1 -1.1104 3.6596 8.33068 9.02219
131 1 -1.1104 3.75905 5.65061 12.2127
132 1 -1.1104 3.60386 5.60741 9.30777
127 1 -1.1104 6.36546 5.64895 9.32576
125 1 -1.1104 6.4849 5.52887 12.0023
123 1 -1.1104 6.29075 8.41306 9.18144
105 1 -1.1104 6.22054 -0.160053 12.1003
174 2 2.2208 5.06816 4.07303 13.5186
239 2 2.2208 4.94734 -1.45342 13.5277
102 1 -1.1104 6.32642 -2.78382 9.47007
241 2 2.2208 2.24663 1.38517 13.5419
17632 2 2.2208 13.4659 -4.1149 2.15877
8654 2 2.2208 10.5508 -4.35723 4.95662
42 2 2.2208 7.70028 -4.13874 7.90323
9015 2 2.2208 13.4225 1.30223 13.5467
290 2 2.2208 10.7094 3.96287 13.4086
99 1 -1.1104 6.46618 2.5642 12.1161
45 2 2.2208 13.3987 1.34884 7.70856
289 2 2.2208 10.6801 -1.52688 13.4038
9011 2 2.2208 13.5174 -1.47489 10.6513
175 2 2.2208 7.84028 6.80455 13.5147
288 2 2.2208 7.80345 1.26606 13.5046
170 1 -1.1104 9.3089 0.0146249 9.19337
167 2 2.2208 7.87335 -1.45062 10.5986
157 1 -1.1104 12.0149 2.72397 9.17932
78 2 2.2208 13.5121 4.20436 10.6841
166 1 -1.1104 9.21199 2.71468 9.27257
155 1 -1.1104 12.1441 2.65298 11.8672
153 2 2.2208 10.6486 1.3504 10.5437
169 1 -1.1104 9.27624 -0.114968 11.9485
135 1 -1.1104 12.0968 8.33002 12.1368
165 1 -1.1104 9.12246 -2.91478 9.2549
74 1 -1.1104 9.4019 8.1637 12.0356
164 2 2.2208 7.74018 1.31818 7.99216
154 1 -1.1104 11.9445 -2.79568 12.0277
159 2 2.2208 10.5448 -1.45873 7.88506
162 1 -1.1104 9.32378 -2.83599 12.1694
79 1 -1.1104 12.0583 5.38597 12.0949
151 1 -1.1104 9.21131 8.39143 9.20942
152 2 2.2208 7.70624 7.00287 7.8859
158 1 -1.1104 12.0233 -0.104241 12.0562
161 1 -1.1104 12.1597 -0.0736128 9.2494
133 1 -1.1104 11.9511 8.34395 9.40899
150 1 -1.1104 9.25374 5.4171 12.0673
156 1 -1.1104 11.8833 -2.93039 9.26189
163 1 -1.1104 9.35578 2.64329 12.1938
160 2 2.2208 10.6528 4.23653 7.88734
148 1 -1.1104 9.151 5.50386 9.27788
168 2 2.2208 7.89372 4.07313 10.7156
75 1 -1.1104 11.9994 5.59947 9.19435
171 2 2.2208 10.5404 6.95448 10.6868
41 2 2.2208 10.4756 -4.30167 10.6597
506 1 -1.1104 0.950649 8.86536 0.972942
39 2 2.2208 13.255 -4.32644 7.80856
137 2 2.2208 4.97444 -4.26742 10.7886
8843 2 2.2208 2.20086 -4.22466 13.5227
8655 2 2.2208 2.21051 -4.21135 7.92316
77 2 2.2208 7.7408 -4.27955 2.15738
43 2 2.2208 2.3852 -4.27532 2.27809
44 2 2.2208 5.12913 -4.20436 5.04757
177 2 2.2208 2.38789 4.22226 -0.477423
179 2 2.2208 4.97207 1.19059 16.2191
180 1 -1.1104 0.781663 -2.9082 17.7631
181 1 -1.1104 0.695026 2.8147 17.763
184 1 -1.1104 0.815863 -2.72612 14.9571
186 1 -1.1104 0.966364 2.77246 14.8343
192 1 -1.1104 0.868123 -0.020881 17.7099
194 2 2.2208 5.04616 -1.46322 19.1538
195 2 2.2208 4.95054 4.16814 19.0836
196 1 -1.1104 0.668107 -0.0206451 14.922
200 1 -1.1104 3.69293 -2.8363 17.8075
201 1 -1.1104 3.44833 2.71328 17.6923
202 2 2.2208 2.22086 1.42343 19.1319
203 1 -1.1104 3.65368 -2.78138 15.048
205 1 -1.1104 3.7654 2.77976 14.824
207 2 2.2208 2.12731 -1.42826 16.3367
208 2 2.2208 2.15142 4.21563 16.393
209 1 -1.1104 3.61383 -0.120813 17.6099
210 1 -1.1104 3.43519 -0.081734 14.7636
212 2 2.2208 5.03275 6.93839 16.2943
213 1 -1.1104 0.875904 8.48962 17.7526
215 1 -1.1104 0.731374 8.47694 15.0523
219 1 -1.1104 0.825267 5.61452 17.6514
221 1 -1.1104 0.845202 5.4768 14.7653
225 1 -1.1104 3.54694 8.26267 17.7304
226 2 2.2208 2.25998 6.97004 18.9998
229 1 -1.1104 3.63099 5.51083 17.6558
230 1 -1.1104 3.541 5.48409 14.8733
227 1 -1.1104 3.51734 8.23814 14.9352
228 1 -1.1104 3.67785 8.34476 20.5375
220 1 -1.1104 6.47541 5.4505 17.6121
188 1 -1.1104 6.29721 -2.69427 14.9079
231 1 -1.1104 3.58341 5.55973 20.4361
187 1 -1.1104 0.75002 2.74776 20.4743
193 1 -1.1104 6.45724 -0.146152 17.6854
182 1 -1.1104 6.45356 -2.82588 17.6818
214 1 -1.1104 6.35524 8.24357 17.8627
223 1 -1.1104 6.34323 5.51203 14.8545
217 1 -1.1104 6.41884 8.29554 14.818
183 1 -1.1104 6.32976 2.66913 17.6443
189 1 -1.1104 6.4839 -2.76908 20.4311
191 1 -1.1104 6.35818 2.81016 20.3894
199 1 -1.1104 6.41823 0.0513449 20.4776
198 1 -1.1104 6.4296 -0.0464446 14.9428
185 1 -1.1104 1.05462 -2.83232 20.355
197 1 -1.1104 0.821394 -0.00125617 20.5045
216 1 -1.1104 0.82922 8.20282 20.45
224 1 -1.1104 6.43662 5.46815 20.5355
190 1 -1.1104 6.48834 2.56767 14.9228
204 1 -1.1104 3.84304 -2.77879 20.5795
211 1 -1.1104 3.52021 0.114177 20.441
281 2 2.2208 13.4246 4.04632 16.365
218 1 -1.1104 6.42601 8.3535 20.4194
243 2 2.2208 10.6231 1.30899 16.134
244 1 -1.1104 11.9737 -2.92027 17.7129
245 1 -1.1104 12.1072 2.6503 17.5414
246 1 -1.1104 12.0134 -3.30477 14.8263
248 1 -1.1104 11.9578 2.74318 14.7433
250 1 -1.1104 12.0776 -0.0509111 17.6564
251 2 2.2208 10.621 -1.43761 18.959
252 2 2.2208 10.6083 4.09232 19.0382
253 1 -1.1104 12.0866 -0.190788 14.9043
255 1 -1.1104 9.21529 -2.71693 17.7295
256 1 -1.1104 9.20634 2.77536 17.6709
257 2 2.2208 7.82599 1.31621 18.9932
258 1 -1.1104 9.16411 -2.95449 14.8779
260 1 -1.1104 9.20445 2.60895 14.9441
262 2 2.2208 7.81677 -1.47131 16.2033
263 2 2.2208 7.79643 4.15766 16.3552
264 1 -1.1104 9.24823 0.0465655 17.5088
265 1 -1.1104 9.42589 -0.14509 14.788
267 2 2.2208 10.559 6.76528 16.2488
268 1 -1.1104 11.9353 8.18795 17.8509
269 1 -1.1104 12.0388 8.20467 14.9996
271 1 -1.1104 11.9728 5.34295 17.6728
272 1 -1.1104 11.9149 5.38865 14.8571
274 1 -1.1104 9.22153 8.27475 17.6425
275 2 2.2208 7.81313 6.93757 19.1385
276 1 -1.1104 9.11605 8.23966 14.8463
278 1 -1.1104 9.2782 5.52008 17.6457
279 1 -1.1104 9.1406 5.35178 14.7741
261 1 -1.1104 9.10934 2.61298 20.7146
249 1 -1.1104 11.9416 2.76452 20.4051
254 1 -1.1104 11.9455 -0.0107842 20.3813
259 1 -1.1104 9.24192 -2.73736 20.5239
9078 2 2.2208 13.4009 1.45402 19.0608
9183 2 2.2208 13.5099 -1.43529 16.2724
283 2 2.2208 13.4444 6.91792 19.1
266 1 -1.1104 9.1071 -0.123936 20.3617
280 1 -1.1104 9.26187 5.55039 20.4996
273 1 -1.1104 11.9805 5.60703 20.5102
277 1 -1.1104 9.18307 8.38595 20.6509
270 1 -1.1104 12.0405 8.30941 20.5834
247 1 -1.1104 12.0171 -2.74836 20.4034
282 2 2.2208 10.565 -4.19944 16.348
348 1 -1.1104 12.0264 -2.83428 23.2922
206 1 -1.1104 3.62648 2.82065 20.5824
222 1 -1.1104 0.671145 5.34248 20.6983
342 1 -1.1104 11.9316 5.5402 23.4296
305 1 -1.1104 6.4648 -0.0941181 26.1331
291 2 2.2208 4.98253 1.3204 21.7708
292 1 -1.1104 0.707625 -2.85433 23.2043
293 1 -1.1104 0.741642 2.85007 23.3752
296 1 -1.1104 1.02784 -2.82085 26.0719
297 1 -1.1104 0.894994 3.19076 25.9399
300 1 -1.1104 0.882694 -0.071056 23.2327
302 2 2.2208 4.92601 -1.53271 24.7497
303 2 2.2208 4.94185 4.14945 24.7408
304 1 -1.1104 0.701471 0.057247 26.1187
306 1 -1.1104 3.63475 -2.83536 23.4224
307 1 -1.1104 3.55967 2.93463 23.416
308 2 2.2208 2.11601 1.46481 24.6845
309 1 -1.1104 3.67613 -2.83334 26.2521
310 1 -1.1104 3.61405 2.8081 26.3966
311 2 2.2208 2.21222 -1.48522 21.8141
312 2 2.2208 2.15971 4.10448 21.8886
313 1 -1.1104 3.52616 0.0898596 23.3342
314 1 -1.1104 3.54022 0.060852 26.1276
315 2 2.2208 5.01846 6.90848 21.9223
320 1 -1.1104 0.632502 5.73248 23.4104
322 1 -1.1104 0.558188 7.73994 26.0813
324 1 -1.1104 3.78352 8.28547 23.3377
325 2 2.2208 2.20026 7.08434 24.6572
326 1 -1.1104 3.50836 8.27556 26.1714
327 1 -1.1104 3.38364 5.61196 23.1801
328 1 -1.1104 3.33772 5.60481 25.989
321 1 -1.1104 6.3337 5.47605 23.1603
294 1 -1.1104 6.37723 -2.93764 23.3034
323 1 -1.1104 6.25405 5.53059 26.1247
298 1 -1.1104 6.47014 -2.81909 26.2434
299 1 -1.1104 6.45212 2.64805 26.0009
301 1 -1.1104 6.41252 -0.0957204 23.3458
329 2 2.2208 5.10209 1.34449 27.4558
178 2 2.2208 5.02723 7.01958 27.4508
337 2 2.2208 2.27675 -4.27173 24.5802
330 2 2.2208 2.22142 -1.45148 27.5849
319 1 -1.1104 6.31442 8.391 26.0842
8761 2 2.2208 7.94694 -4.3568 24.799
333 2 2.2208 13.4988 -1.4152 27.3814
335 2 2.2208 7.71431 4.15653 27.4512
336 2 2.2208 7.84514 -1.50956 27.5921
334 2 2.2208 10.7442 6.94698 27.4579
295 1 -1.1104 6.37203 2.58851 23.2721
350 1 -1.1104 12.155 -2.7846 26.0605
349 1 -1.1104 12.037 2.72763 23.2517
345 1 -1.1104 9.09536 8.33394 26.2349
338 2 2.2208 10.5834 1.33523 27.4287
232 2 2.2208 13.3333 4.08075 27.436
339 1 -1.1104 9.17057 8.25501 23.3731
317 1 -1.1104 6.44934 8.28907 23.255
318 1 -1.1104 9.33584 -0.172168 23.2649
353 2 2.2208 10.6787 -1.46257 24.656
354 2 2.2208 10.5624 4.15603 24.6313
240 1 -1.1104 12.1304 8.2209 23.4141
242 2 2.2208 10.638 6.9204 21.9187
236 2 2.2208 13.4362 6.89384 24.8086
286 2 2.2208 13.4415 -1.48314 21.8938
285 2 2.2208 13.4354 1.3692 24.677
287 1 -1.1104 9.28603 -0.120932 26.0878
233 2 2.2208 13.3842 4.14035 21.8611
356 1 -1.1104 9.19729 -2.85898 23.3412
340 1 -1.1104 11.9838 5.4513 26.0799
332 2 2.2208 7.88055 -1.46608 21.833
360 1 -1.1104 9.12997 2.75936 26.0622
346 2 2.2208 7.665 6.86556 24.8115
355 1 -1.1104 11.9713 -0.0704004 26.0527
343 1 -1.1104 9.1164 5.55278 26.056
347 2 2.2208 10.6185 1.38644 21.9551
237 1 -1.1104 11.9622 8.32414 26.0814
344 1 -1.1104 9.20505 5.42864 23.3121
351 1 -1.1104 11.9156 2.73581 26.0484
359 1 -1.1104 9.31342 -2.90656 26.0888
331 2 2.2208 7.79702 4.09351 21.8808
357 1 -1.1104 9.22432 2.59748 23.3509
352 1 -1.1104 12.0717 0.0111672 23.2206
358 2 2.2208 7.83153 1.33535 24.6516
8759 2 2.2208 10.8121 -4.27887 27.4603
8842 2 2.2208 2.22745 -4.27814 19.0815
361 2 2.2208 5.28323 12.3938 4.82114
363 1 -1.1104 0.706951 10.9799 3.81527
366 2 2.2208 5.00068 9.83647 2.21208
368 2 2.2208 2.28159 9.8156 5.09922
369 1 -1.1104 3.7832 11.0426 0.682221
371 1 -1.1104 3.92355 10.8675 3.89976
372 2 2.2208 4.9601 17.9556 4.99473
373 1 -1.1104 0.696668 14.1529 0.797356
375 1 -1.1104 0.592168 19.7883 0.704264
380 1 -1.1104 0.736927 19.3264 3.77773
382 1 -1.1104 0.544693 16.9974 1.16539
385 2 2.2208 4.67936 15.2199 2.19267
386 2 2.2208 4.95321 20.9703 2.23348
389 1 -1.1104 3.63452 14.0774 0.0969084
391 1 -1.1104 3.50702 19.5217 0.767292
393 2 2.2208 2.27195 18.2468 2.16182
394 1 -1.1104 3.93575 13.9267 3.95126
395 1 -1.1104 3.5902 19.7006 3.46424
397 2 2.2208 2.30784 20.9657 5.11813
398 1 -1.1104 3.2332 16.7646 0.628567
400 1 -1.1104 3.4882 16.9396 3.50396
388 1 -1.1104 6.2337 16.6919 3.5286
414 1 -1.1104 6.21017 16.631 0.727781
413 1 -1.1104 6.25214 19.4555 3.62595
412 1 -1.1104 6.34534 19.4603 0.795391
392 1 -1.1104 3.66237 19.667 6.44314
370 1 -1.1104 0.956122 10.9647 6.526
378 1 -1.1104 6.40985 19.5399 6.5374
383 1 -1.1104 0.381195 16.8224 6.46637
377 1 -1.1104 6.31699 13.9236 6.59538
374 1 -1.1104 0.755994 13.5693 6.53406
399 1 -1.1104 3.75824 16.7997 6.68297
365 1 -1.1104 6.41536 11.1325 6.39531
376 1 -1.1104 6.39469 13.7389 0.841495
457 1 -1.1104 0.81071 19.6387 6.63057
390 1 -1.1104 3.63413 11.4588 6.76247
501 2 2.2208 13.3723 15.2796 4.92272
384 1 -1.1104 6.61127 16.6724 6.43438
9343 2 2.2208 13.5399 12.4209 2.28833
490 2 2.2208 13.426 15.3893 10.7781
500 2 2.2208 13.3886 9.89321 5.1013
439 2 2.2208 13.3269 18.1467 2.29959
364 1 -1.1104 6.46278 11.1333 0.778988
367 1 -1.1104 6.65445 10.9263 3.44868
381 1 -1.1104 6.58644 13.7309 3.56077
402 2 2.2208 10.5645 12.579 5.11734
403 1 -1.1104 12.0958 11.1587 0.754966
405 2 2.2208 10.6405 9.72362 2.21671
406 1 -1.1104 12.2308 10.9522 3.4834
407 2 2.2208 7.915 12.5338 2.14002
408 2 2.2208 7.8457 9.6635 4.89938
409 1 -1.1104 9.42149 11.0614 0.694214
411 1 -1.1104 9.36512 11.1937 3.58087
415 2 2.2208 10.7239 18.2357 5.0024
416 1 -1.1104 12.0615 13.9231 1.05495
418 1 -1.1104 12.0107 19.4601 0.702848
420 1 -1.1104 12.0843 13.7689 3.79441
421 1 -1.1104 12.0202 19.6485 3.69745
422 1 -1.1104 11.883 16.6307 0.829685
424 2 2.2208 10.54 15.2304 2.25073
425 2 2.2208 10.7166 20.9438 2.21889
426 1 -1.1104 11.9328 16.7694 3.67937
427 1 -1.1104 9.30243 13.9527 0.762797
429 1 -1.1104 9.1742 19.5025 0.738038
431 2 2.2208 7.72879 18.0474 2.1312
432 1 -1.1104 9.31136 13.8817 3.60993
433 1 -1.1104 9.1971 19.5883 3.65453
434 2 2.2208 7.92706 15.3441 5.07276
435 2 2.2208 7.75981 20.9358 4.87238
436 1 -1.1104 9.07427 16.609 0.745845
438 1 -1.1104 9.08968 16.8486 3.72645
410 1 -1.1104 9.16898 11.1166 6.55928
417 1 -1.1104 11.897 13.9225 6.42374
419 1 -1.1104 12.1342 19.5152 6.55671
430 1 -1.1104 9.28773 19.6121 6.39975
499 2 2.2208 13.5137 20.8912 5.11323
428 1 -1.1104 9.07341 13.8595 6.44353
437 1 -1.1104 9.23355 16.7921 6.39452
423 1 -1.1104 12.1042 16.6742 6.30312
404 1 -1.1104 12.0367 11.2119 6.4367
573 2 2.2208 5.0089 15.4138 13.6975
441 1 -1.1104 3.62696 19.6355 12.023
442 1 -1.1104 3.52561 13.9754 12.1325
446 1 -1.1104 0.874213 19.4858 9.32103
447 1 -1.1104 0.917295 16.5822 9.27437
448 2 2.2208 4.97866 20.9548 7.71129
449 1 -1.1104 0.785829 13.8858 9.42995
450 2 2.2208 5.15118 15.4233 7.96324
453 1 -1.1104 0.691797 19.6527 12.0502
454 1 -1.1104 0.667521 14.0131 11.9604
455 2 2.2208 5.02933 18.2067 10.676
456 1 -1.1104 3.77468 19.5168 9.27821
458 2 2.2208 2.17673 18.0368 7.83813
459 1 -1.1104 3.7359 16.6106 9.44778
460 1 -1.1104 3.57286 13.9398 9.12734
462 1 -1.1104 0.616611 16.8401 12.0918
463 1 -1.1104 3.47508 16.8264 12.1982
464 2 2.2208 2.24687 20.9822 10.7809
465 2 2.2208 5.04579 12.5903 10.6801
466 1 -1.1104 0.902073 11.3127 12.1418
468 2 2.2208 2.18155 15.3405 10.7062
469 2 2.2208 4.97782 9.88642 7.82811
470 1 -1.1104 0.661967 11.0625 9.456
472 2 2.2208 2.03046 12.4481 8.02985
473 2 2.2208 2.13205 9.74391 10.6471
474 1 -1.1104 3.6657 11.0602 12.042
475 1 -1.1104 3.66126 11.0746 9.40521
445 1 -1.1104 6.45853 13.9798 9.36007
467 1 -1.1104 6.56273 11.1896 12.1154
444 1 -1.1104 6.4211 16.7057 9.21936
471 1 -1.1104 6.45655 11.209 9.34833
443 1 -1.1104 6.58898 19.5352 9.20922
452 1 -1.1104 6.40013 13.8763 11.9191
574 2 2.2208 2.31764 12.5641 13.5075
508 2 2.2208 5.06935 9.7367 13.3837
575 2 2.2208 2.19784 18.1883 13.5091
507 2 2.2208 5.05537 21.0624 13.488
451 1 -1.1104 6.27353 19.5359 12.0059
514 2 2.2208 13.4285 18.1224 13.4966
516 2 2.2208 10.514 20.9336 13.502
521 2 2.2208 13.5046 12.6305 13.3826
461 1 -1.1104 6.26182 16.6347 12.1464
512 2 2.2208 10.7334 9.70935 13.5291
509 2 2.2208 7.82823 12.5583 13.3929
503 2 2.2208 13.2984 12.6143 7.9803
515 2 2.2208 7.67876 18.1151 13.4103
517 2 2.2208 10.5773 15.3625 13.5828
9345 2 2.2208 13.3933 17.9301 7.94992
485 2 2.2208 7.87596 18.1508 7.72682
379 2 2.2208 10.5796 9.7623 7.79963
502 2 2.2208 13.5068 20.9079 10.6862
494 1 -1.1104 11.9209 16.7875 12.0921
495 1 -1.1104 9.38854 11.0411 12.0732
482 2 2.2208 7.80402 15.4016 10.6393
489 2 2.2208 10.6777 20.8771 7.85483
491 2 2.2208 7.76496 12.6316 7.83942
493 2 2.2208 10.6466 15.3936 7.7506
440 1 -1.1104 12.1277 14.0631 12.3126
492 1 -1.1104 9.27503 11.3554 9.20438
484 1 -1.1104 9.3106 14.0514 9.28746
497 1 -1.1104 12.0831 13.8829 9.40465
496 1 -1.1104 12.1483 19.4522 9.38095
481 2 2.2208 7.88859 20.9182 10.5743
487 1 -1.1104 9.21369 13.869 11.9724
479 1 -1.1104 9.37981 16.7616 9.28359
486 1 -1.1104 9.09227 19.4758 12.0653
476 1 -1.1104 11.9336 19.5708 11.9821
362 1 -1.1104 11.9907 11.1215 9.11387
401 2 2.2208 10.5646 18.1917 10.677
483 1 -1.1104 9.29862 19.6071 9.187
488 1 -1.1104 12.1161 16.6661 9.34416
387 1 -1.1104 12.1578 11.2223 12.0388
498 2 2.2208 7.91733 9.87183 10.6476
480 1 -1.1104 9.13796 16.7347 12.1464
396 2 2.2208 10.607 12.5401 10.6982
504 2 2.2208 13.4796 9.87058 10.5824
527 2 2.2208 5.07804 12.4762 16.155
528 1 -1.1104 0.970415 11.161 17.8663
530 2 2.2208 5.05695 9.68646 19.0418
531 1 -1.1104 0.823641 11.1191 14.8748
535 2 2.2208 2.17616 12.6101 19.0776
536 2 2.2208 2.23944 9.68629 16.3594
537 1 -1.1104 3.69168 11.0701 17.4692
538 1 -1.1104 3.6662 10.927 14.8482
540 2 2.2208 5.01081 18.1537 16.43
541 1 -1.1104 0.809085 13.8922 17.5732
542 1 -1.1104 0.76429 19.4489 17.6581
545 1 -1.1104 0.837867 13.9762 14.7271
547 1 -1.1104 0.816743 19.5354 14.8083
553 1 -1.1104 0.810077 16.6826 17.7109
555 2 2.2208 5.05538 15.415 19.0615
556 2 2.2208 5.16376 20.8269 19.1691
557 1 -1.1104 0.716041 16.6825 14.9341
561 1 -1.1104 3.54689 13.8185 17.7712
562 1 -1.1104 3.62266 19.3637 17.8136
563 2 2.2208 2.17296 18.0157 19.0349
564 1 -1.1104 3.6466 13.9577 14.9256
566 1 -1.1104 3.76444 19.496 14.8169
568 2 2.2208 2.21163 15.3248 16.2847
569 2 2.2208 2.24844 20.863 16.4217
570 1 -1.1104 3.6606 16.6504 17.6352
571 1 -1.1104 3.56665 16.8637 14.9862
559 1 -1.1104 6.43753 16.7454 14.9759
549 1 -1.1104 6.42438 14.0791 14.8702
551 1 -1.1104 6.36061 19.5949 14.9675
533 1 -1.1104 6.50916 11.0786 14.9217
539 1 -1.1104 3.619 11.104 20.207
544 1 -1.1104 6.50497 19.54 17.7961
554 1 -1.1104 6.59875 16.6623 17.7877
529 1 -1.1104 6.54115 11.0477 17.634
572 1 -1.1104 3.60428 16.6347 20.4195
567 1 -1.1104 3.6619 19.543 20.526
546 1 -1.1104 0.609091 13.7867 20.3305
558 1 -1.1104 0.766252 16.6606 20.5971
552 1 -1.1104 6.54163 19.4665 20.5298
550 1 -1.1104 6.24071 13.8264 20.3476
560 1 -1.1104 6.47949 16.6065 20.4027
548 1 -1.1104 0.917053 19.4193 20.4035
532 1 -1.1104 0.764864 10.9873 20.7697
543 1 -1.1104 6.43307 13.7991 17.6459
534 1 -1.1104 6.4042 11.0169 20.3936
648 2 2.2208 13.5016 15.2594 16.3915
616 2 2.2208 13.5193 20.9094 16.2363
580 2 2.2208 10.5614 12.5821 16.2502
581 1 -1.1104 12.0819 11.1538 17.605
582 2 2.2208 10.5149 9.7221 19.134
583 1 -1.1104 11.9304 11.1064 14.9129
585 2 2.2208 7.7565 12.4636 19.0873
586 2 2.2208 7.84133 9.71038 16.3342
587 1 -1.1104 9.38196 11.2298 17.7034
588 1 -1.1104 9.1855 11.0659 14.9432
590 2 2.2208 10.6979 18.1848 16.3654
591 1 -1.1104 12.0089 13.9103 17.7713
592 1 -1.1104 12.2439 19.6977 17.6727
593 1 -1.1104 11.9828 13.891 14.9057
595 1 -1.1104 12.0348 19.3568 14.7708
597 1 -1.1104 11.9914 16.7355 17.8229
598 2 2.2208 10.6033 15.3326 19.1266
599 2 2.2208 10.7786 20.9234 19.2286
600 1 -1.1104 11.9829 16.6554 15.0067
602 1 -1.1104 9.37465 13.9994 17.7252
603 1 -1.1104 9.42489 19.7819 17.8435
604 2 2.2208 7.95533 18.2175 19.17
605 1 -1.1104 9.04644 13.8454 14.9154
607 1 -1.1104 9.07272 19.4787 14.9933
609 2 2.2208 7.91466 15.3292 16.3541
610 2 2.2208 7.78664 20.959 16.2309
611 1 -1.1104 9.31365 16.7672 17.6904
612 1 -1.1104 9.2018 16.7334 14.9575
647 2 2.2208 13.3367 9.61055 16.3265
617 2 2.2208 13.5063 18.1918 19.0507
596 1 -1.1104 12.0753 19.4083 20.4934
601 1 -1.1104 12.2444 16.5746 20.5043
608 1 -1.1104 9.34766 19.4436 20.5195
613 1 -1.1104 9.20013 16.7474 20.4989
606 1 -1.1104 9.07111 13.9111 20.5908
589 1 -1.1104 9.16009 11.0936 20.5088
584 1 -1.1104 12.1147 11.07 20.5166
594 1 -1.1104 12.0468 13.8642 20.6273
615 2 2.2208 13.2918 12.5127 19.0773
9399 2 2.2208 13.552 18.0834 24.6433
645 2 2.2208 2.19817 20.9015 27.4441
565 1 -1.1104 3.44864 13.8684 20.6731
618 1 -1.1104 3.64747 19.4943 23.2552
621 1 -1.1104 0.752317 19.4753 26.062
622 1 -1.1104 0.544947 16.793 26.2695
623 1 -1.1104 0.90475 13.9544 26.1442
625 2 2.2208 4.96524 20.9398 24.6513
627 1 -1.1104 0.781609 19.452 23.2798
628 1 -1.1104 0.73663 14.0741 22.9952
629 2 2.2208 4.98045 18.0796 21.9318
630 1 -1.1104 3.69061 19.637 26.0135
631 2 2.2208 2.26644 18.1858 24.6126
632 1 -1.1104 3.21463 16.9438 26.117
634 1 -1.1104 0.703828 16.8149 23.3393
635 1 -1.1104 3.36899 16.6218 23.2359
636 2 2.2208 2.25656 20.8609 21.944
637 2 2.2208 5.097 12.4359 21.6704
639 2 2.2208 2.12885 15.336 21.9179
640 2 2.2208 5.03711 9.90358 24.6181
642 2 2.2208 2.3443 9.72008 21.7801
643 1 -1.1104 3.44389 11.1729 23.0217
644 1 -1.1104 3.79132 11.0536 26.133
576 1 -1.1104 0.516488 10.7678 26.6229
663 1 -1.1104 6.35456 19.7822 25.9697
619 1 -1.1104 6.36994 13.773 26.1513
624 1 -1.1104 6.40547 19.3667 23.3534
646 2 2.2208 4.86349 18.1808 27.2928
650 2 2.2208 13.3546 9.76824 27.386
626 1 -1.1104 6.40971 13.8845 23.0957
9382 2 2.2208 13.6572 21.0054 21.8601
519 2 2.2208 2.48406 9.79672 27.5709
641 1 -1.1104 6.53091 11.1234 26.0507
638 1 -1.1104 6.38852 10.9895 23.1199
523 2 2.2208 10.5807 12.4631 27.477
633 1 -1.1104 6.47067 16.8461 23.2179
656 2 2.2208 13.3992 20.8966 27.4897
673 1 -1.1104 12.0422 13.888 26.1959
680 2 2.2208 10.563 12.5503 21.9931
652 2 2.2208 13.3366 15.201 22.0034
669 2 2.2208 10.5691 20.8971 24.6659
577 2 2.2208 13.4767 9.68726 21.9244
676 2 2.2208 7.68391 12.5481 24.6539
661 1 -1.1104 9.23293 19.5616 26.0049
316 1 -1.1104 0.89083 8.57518 23.396
672 1 -1.1104 11.9398 19.3809 26.0522
620 1 -1.1104 6.63171 17.1532 26.3173
682 2 2.2208 10.4666 9.80759 24.5996
666 1 -1.1104 9.23084 13.9871 23.3012
657 1 -1.1104 9.38348 16.7683 26.0059
664 2 2.2208 7.84006 18.1688 24.5732
679 2 2.2208 10.5944 18.0566 21.8794
681 1 -1.1104 11.9041 10.9266 23.2013
674 1 -1.1104 9.16597 11.2168 23.3182
670 2 2.2208 10.5496 15.2943 24.7325
667 1 -1.1104 12.3134 16.5137 25.9519
654 2 2.2208 13.4003 12.427 24.6101
658 1 -1.1104 9.21393 16.6576 23.3669
660 2 2.2208 7.75239 15.339 21.892
671 1 -1.1104 11.9569 16.6259 23.2985
655 1 -1.1104 12.0364 11.0246 25.9212
668 1 -1.1104 9.24441 11.0915 26.0983
665 1 -1.1104 9.23985 19.4344 23.2023
662 1 -1.1104 9.19389 13.7772 26.0527
675 2 2.2208 7.79943 9.71813 21.8626
659 2 2.2208 7.873 20.8941 21.8735
677 1 -1.1104 12.0702 19.7162 23.1329
678 1 -1.1104 11.8885 13.7513 23.3328
524 2 2.2208 7.80741 9.82887 27.3441
525 2 2.2208 10.6721 18.0822 27.4403
522 2 2.2208 7.58468 15.2946 27.3996
526 2 2.2208 13.3628 15.2514 27.6405
649 2 2.2208 7.73325 20.9426 27.4308
520 2 2.2208 4.99032 12.4961 27.4092
518 2 2.2208 2.03407 15.4501 27.4804
683 2 2.2208 5.14898 23.7347 4.95195
684 2 2.2208 5.21587 29.229 5.02155
685 1 -1.1104 0.754824 25.2138 0.881881
686 1 -1.1104 0.911011 25.2143 3.69139
687 1 -1.1104 0.61274 22.5246 0.892586
688 1 -1.1104 0.894596 28.0425 0.764154
689 2 2.2208 5.13991 26.6556 2.30882
690 1 -1.1104 0.924359 22.3419 3.69474
691 1 -1.1104 0.812962 28.0449 3.64065
692 1 -1.1104 3.69214 25.1539 0.775815
693 2 2.2208 2.23437 23.7352 2.33562
694 2 2.2208 2.3128 29.4071 2.28712
695 1 -1.1104 3.64211 25.2691 3.55053
696 2 2.2208 2.29982 26.5955 5.04708
697 1 -1.1104 3.63254 22.2561 0.839001
698 1 -1.1104 3.72631 27.9551 0.945073
699 1 -1.1104 3.76846 22.4012 3.55477
700 1 -1.1104 3.63781 28.0445 3.67828
701 1 -1.1104 0.965762 30.8682 0.943107
702 1 -1.1104 0.921141 30.8732 3.76076
703 1 -1.1104 0.845854 33.6055 0.980235
704 2 2.2208 5.124 32.0264 2.31082
705 1 -1.1104 0.829525 33.5684 3.78443
707 1 -1.1104 3.7852 30.6819 0.893089
708 1 -1.1104 3.67085 30.7612 3.74732
709 2 2.2208 2.22598 32.2256 5.1641
710 1 -1.1104 3.71158 33.3745 1.15179
711 1 -1.1104 3.75485 33.6212 3.84465
706 1 -1.1104 6.6682 33.5474 3.69511
716 1 -1.1104 6.5756 25.1964 0.898647
721 1 -1.1104 6.64808 27.9349 3.70027
719 1 -1.1104 6.57232 28.081 1.04416
717 1 -1.1104 6.40319 25.0662 3.71156
720 1 -1.1104 6.59049 22.3601 3.58491
764 1 -1.1104 3.92675 27.8268 6.35267
766 1 -1.1104 6.37082 30.6596 6.54878
741 1 -1.1104 6.44952 30.7591 3.73331
740 1 -1.1104 6.62936 30.9011 0.833038
718 1 -1.1104 6.41595 22.4585 0.840602
765 1 -1.1104 0.906574 30.7474 6.51548
769 1 -1.1104 3.62806 30.7483 6.5377
759 1 -1.1104 1.11728 27.9142 6.43854
756 1 -1.1104 1.006 25.1482 6.57061
758 1 -1.1104 0.850832 22.4027 6.52947
770 1 -1.1104 3.66045 33.5922 6.58989
767 1 -1.1104 0.900743 33.6231 6.69036
763 1 -1.1104 3.69986 22.3637 6.24629
762 1 -1.1104 3.66585 25.116 6.42691
757 1 -1.1104 6.31715 25.1341 6.42003
742 1 -1.1104 6.55562 33.5529 0.977301
760 1 -1.1104 6.49316 22.3341 6.19355
768 1 -1.1104 6.42863 33.4967 6.44797
761 1 -1.1104 6.68681 27.8301 6.33654
753 2 2.2208 13.4589 23.6175 2.3271
9676 2 2.2208 13.7184 26.386 5.04423
9542 2 2.2208 13.5456 32.089 5.20339
9675 2 2.2208 13.5746 29.3244 2.1972
722 2 2.2208 10.7588 23.7159 4.97925
723 2 2.2208 10.8491 29.2045 5.12795
724 1 -1.1104 12.0631 25.1562 0.720804
725 1 -1.1104 12.2664 25.029 3.49914
726 1 -1.1104 11.9583 22.259 0.870203
727 1 -1.1104 12.2744 28.0189 0.797158
728 2 2.2208 10.7959 26.6268 2.28153
729 1 -1.1104 12.057 22.2133 3.64617
730 1 -1.1104 12.3883 27.8964 3.67835
731 1 -1.1104 9.476 25.1936 0.940848
732 2 2.2208 7.90013 23.7741 2.19112
733 2 2.2208 8.0576 29.4254 2.35647
734 1 -1.1104 9.2931 25.1277 3.74922
735 2 2.2208 8.06681 26.4162 5.07366
736 1 -1.1104 9.18712 22.305 0.711956
737 1 -1.1104 9.39953 27.8767 0.765268
738 1 -1.1104 9.20703 22.3646 3.51487
739 1 -1.1104 9.49691 27.8791 3.57438
743 1 -1.1104 12.1313 30.8808 0.877078
744 1 -1.1104 12.1498 30.716 3.68302
745 1 -1.1104 11.9968 33.6436 0.857674
746 2 2.2208 10.789 32.0846 2.28589
747 1 -1.1104 12.2583 33.4295 3.69624
748 1 -1.1104 9.45763 30.5151 0.843926
749 1 -1.1104 9.23337 30.72 3.70707
750 2 2.2208 7.90412 32.1121 5.15016
751 1 -1.1104 9.30144 33.4583 0.821495
752 1 -1.1104 9.42495 33.5348 3.77968
810 1 -1.1104 12.0338 22.4424 6.44657
816 1 -1.1104 12.1233 33.3584 6.52528
817 1 -1.1104 9.33871 30.6503 6.55554
811 1 -1.1104 12.4118 28 6.39902
814 1 -1.1104 9.53317 27.8487 6.35422
812 1 -1.1104 9.34222 24.9873 6.52472
818 1 -1.1104 9.44695 33.4785 6.65588
809 1 -1.1104 12.1454 25.1082 6.32678
813 1 -1.1104 9.43888 22.2366 6.41883
815 1 -1.1104 12.0394 30.6704 6.78524
771 2 2.2208 5.08128 23.6865 10.6172
772 2 2.2208 5.25763 29.2489 10.7915
773 1 -1.1104 1.02197 25.1971 12.2269
775 1 -1.1104 0.872599 25.0955 9.50481
777 1 -1.1104 0.678573 22.4131 12.2612
778 1 -1.1104 0.858702 27.9604 11.9746
781 2 2.2208 5.09963 26.4779 7.8157
782 1 -1.1104 0.955773 22.3268 9.2474
783 1 -1.1104 0.859216 27.939 9.27194
786 1 -1.1104 3.76034 25.1707 11.8647
787 2 2.2208 2.36185 23.7404 7.93658
788 2 2.2208 2.43167 29.2868 7.89011
789 1 -1.1104 3.74954 25.1132 9.15911
790 2 2.2208 2.27512 26.5813 10.5579
791 1 -1.1104 3.74039 22.45 12.2441