ITEM: TIMESTEP
10000
ITEM: NUMBER OF ATOMS
17820
ITEM: BOX BOUNDS pp pp pp
-3.5406294904633073e-01 2.7694062949046440e+01
-4.3719245624701948e+00 3.3245192456247281e+02
-3.6328095003263272e-01 2.7703280950032774e+01
ITEM: ATOMS id type q x y z
1 2 2.2208 5.32526 1.27898 5.01019
2 1 -1.1104 0.925768 -2.89179 0.869324
3 1 -1.1104 0.956357 2.79222 0.866705
6 1 -1.1104 1.04135 -2.92871 3.46758
7 1 -1.1104 0.995928 2.65548 3.8066
10 1 -1.1104 1.10467 -0.0511628 0.667723
12 2 2.2208 5.24229 -1.58424 2.32114
13 2 2.2208 5.32439 4.20313 2.39475
14 1 -1.1104 1.07198 -0.0658432 3.49731
16 1 -1.1104 3.73427 -3.03022 0.778375
17 1 -1.1104 3.80348 2.70447 0.87813
18 2 2.2208 2.58062 1.33835 2.21619
19 1 -1.1104 3.992 -2.88183 3.735
20 1 -1.1104 3.90906 2.65945 3.67977
21 2 2.2208 2.30084 -1.51011 5.02644
22 2 2.2208 2.46444 4.04619 5.11677
23 1 -1.1104 3.91983 -0.290061 0.785893
24 1 -1.1104 3.98276 -0.0766986 3.78396
25 2 2.2208 5.27896 6.8154 5.16462
30 1 -1.1104 1.08995 5.54501 0.841396
32 1 -1.1104 1.12658 5.41586 3.54641
34 1 -1.1104 3.90795 8.03165 1.05729
35 2 2.2208 2.56033 6.80469 2.42289
36 1 -1.1104 3.90536 8.10303 3.83221
37 1 -1.1104 3.97468 5.43695 0.927268
38 1 -1.1104 3.82303 5.45596 3.88734
28 1 -1.1104 1.04764 8.26138 3.60747
81 1 -1.1104 1.06323 2.75323 6.51396
33 1 -1.1104 6.80717 5.57969 3.75857
27 1 -1.1104 6.74768 8.30108 0.940591
82 1 -1.1104 6.68754 -2.97745 6.49739
89 1 -1.1104 1.24837 8.24388 6.37536
88 1 -1.1104 3.88353 -0.123444 6.60159
94 1 -1.1104 4.04549 5.40055 6.4721
5 1 -1.1104 6.78231 2.61834 0.749067
9 1 -1.1104 6.64094 2.82927 3.52761
11 1 -1.1104 6.60814 -0.178116 0.814116
92 1 -1.1104 6.80005 5.31342 6.42504
86 1 -1.1104 3.91346 -2.92348 6.53559
84 1 -1.1104 1.08904 -0.127795 6.35849
8843 2 2.2208 2.35732 -4.13264 13.4955
90 1 -1.1104 6.72708 8.17441 6.44291
284 2 2.2208 7.89477 -4.17216 13.556
133 1 -1.1104 12.4475 8.3912 9.17274
9015 2 2.2208 13.5265 1.27931 13.5301
4 1 -1.1104 6.62582 -2.92577 0.835965
15 1 -1.1104 6.77412 -0.141388 3.64883
31 1 -1.1104 6.86631 5.54916 0.94585
71 1 -1.1104 9.65206 8.17075 3.70308
8 1 -1.1104 6.69816 -2.99406 3.69608
29 1 -1.1104 6.82714 8.40389 3.61961
46 2 2.2208 10.8028 1.22667 5.11293
47 1 -1.1104 12.3014 -2.90892 0.89957
48 1 -1.1104 12.1382 2.74054 0.83478
49 1 -1.1104 12.376 -2.90674 3.65474
50 1 -1.1104 12.1876 2.76492 3.77032
51 1 -1.1104 12.3579 -0.1995 0.962273
52 2 2.2208 10.8229 -1.557 2.11243
53 2 2.2208 10.8038 3.93889 2.23428
54 1 -1.1104 12.2141 -0.146894 3.82915
55 1 -1.1104 9.31792 -2.97635 0.757422
56 1 -1.1104 9.47043 2.61998 0.79482
57 2 2.2208 8.06898 1.14542 2.15698
58 1 -1.1104 9.59562 -2.97887 3.52883
59 1 -1.1104 9.45994 2.61325 3.64035
60 2 2.2208 8.02149 -1.66836 5.20339
61 2 2.2208 8.26664 3.97036 5.19401
62 1 -1.1104 9.37652 -0.237316 0.735931
63 1 -1.1104 9.49606 -0.142251 3.70286
64 2 2.2208 10.8415 6.75724 5.1048
65 1 -1.1104 12.5898 8.22949 0.846403
66 1 -1.1104 12.4403 8.31255 3.56161
67 1 -1.1104 12.3094 5.44902 0.983409
68 1 -1.1104 12.4587 5.46657 3.78784
69 1 -1.1104 9.77611 8.36632 0.984314
70 2 2.2208 8.16454 6.90512 2.39164
72 1 -1.1104 9.6915 5.52486 1.02051
73 1 -1.1104 9.58794 5.42227 3.76813
147 1 -1.1104 9.57593 8.31325 6.50486
149 1 -1.1104 9.67807 5.37569 6.50298
144 1 -1.1104 9.37129 -0.22422 6.50705
139 1 -1.1104 12.1267 -2.76763 6.52628
142 1 -1.1104 9.3944 -3.15331 6.57641
141 1 -1.1104 12.0719 -0.0124215 6.62588
143 1 -1.1104 9.56591 2.57013 6.51871
140 1 -1.1104 12.3274 2.57618 6.52734
146 1 -1.1104 12.4685 5.50808 6.62231
145 1 -1.1104 12.3385 8.43422 6.47235
175 2 2.2208 8.05178 6.82458 13.4636
76 2 2.2208 13.5245 6.79858 2.2917
39 2 2.2208 13.511 -4.11596 8.04264
91 1 -1.1104 1.1583 5.40734 6.42066
9009 2 2.2208 -0.365281 4.09602 2.31745
148 1 -1.1104 9.39605 5.43265 9.26824
83 1 -1.1104 6.70366 2.5325 6.41655
80 1 -1.1104 0.94678 -2.82451 6.36419
506 1 -1.1104 1.10615 8.61147 0.729924
135 1 -1.1104 12.2669 8.17795 12.1688
8654 2 2.2208 10.7932 -4.39526 5.13488
241 2 2.2208 2.43166 1.28178 13.5949
87 1 -1.1104 3.81109 2.70597 6.61946
95 2 2.2208 5.21097 1.42992 10.7567
96 1 -1.1104 1.0121 -2.94813 12.0435
97 1 -1.1104 0.921286 2.69508 12.1174
100 1 -1.1104 0.872551 -2.93794 9.34915
101 1 -1.1104 1.16853 2.67377 9.27734
104 1 -1.1104 0.889263 -0.0405669 12.2257
106 2 2.2208 5.24348 -1.44085 7.91569
107 2 2.2208 5.30549 4.02297 7.88612
108 1 -1.1104 0.892293 -0.111747 9.28799
110 1 -1.1104 3.75913 -2.85894 12.0719
111 1 -1.1104 3.72961 2.62076 12.2824
112 2 2.2208 2.40002 1.35025 7.87347
113 1 -1.1104 3.61116 -2.81945 9.33105
114 1 -1.1104 3.95838 2.78941 9.40805
115 2 2.2208 2.31296 -1.48476 10.684
116 2 2.2208 2.54255 4.11688 10.6348
117 1 -1.1104 3.73255 -0.121928 12.0459
118 1 -1.1104 3.69067 0.108585 9.20649
119 2 2.2208 5.29221 6.88195 10.7016
120 1 -1.1104 1.14336 8.17596 12.2014
122 1 -1.1104 0.99451 8.21215 9.3425
124 1 -1.1104 0.957154 5.55385 12.0407
126 1 -1.1104 1.11418 5.43103 9.20004
128 1 -1.1104 3.77601 8.20972 12.1022
129 2 2.2208 2.5049 6.83833 7.73842
130 1 -1.1104 3.8665 8.55608 9.33908
131 1 -1.1104 3.84329 5.39439 12.1004
132 1 -1.1104 3.76227 5.59557 9.23917
102 1 -1.1104 6.43284 -3.01147 9.29581
103 1 -1.1104 6.60427 2.70626 9.31956
125 1 -1.1104 6.665 5.56498 12.1326
99 1 -1.1104 6.58959 2.91296 12.142
127 1 -1.1104 6.72649 5.574 9.22124
173 2 2.2208 2.49356 6.91843 13.5121
98 1 -1.1104 6.53051 -2.80548 11.9054
85 1 -1.1104 6.7398 -0.239233 6.4105
239 2 2.2208 5.11647 -1.51078 13.576
290 2 2.2208 10.7495 4.05208 13.5595
137 2 2.2208 5.05236 -4.2215 10.6781
157 1 -1.1104 12.2995 2.68797 9.29583
152 2 2.2208 8.10514 6.92411 7.85858
150 1 -1.1104 9.42493 5.50893 12.0612
121 1 -1.1104 6.69763 8.34256 11.9783
109 1 -1.1104 6.43285 -0.185619 9.34004
105 1 -1.1104 6.53789 0.0291245 12.1395
151 1 -1.1104 9.61275 8.18912 9.24664
156 1 -1.1104 12.1549 -2.81506 9.37144
154 1 -1.1104 12.1628 -2.94374 12.0275
289 2 2.2208 10.7348 -1.52614 13.5701
155 1 -1.1104 12.3302 2.68616 12.1419
158 1 -1.1104 12.3261 0.0243625 12.027
161 1 -1.1104 12.1433 -0.187081 9.31891
288 2 2.2208 7.96349 1.24233 13.4758
164 2 2.2208 8.03993 1.20163 7.87884
159 2 2.2208 10.8234 -1.48597 7.91999
162 1 -1.1104 9.3293 -2.8572 12.3446
160 2 2.2208 10.8767 3.97316 8.03726
168 2 2.2208 8.06786 4.18783 10.6419
171 2 2.2208 10.9694 6.867 10.7252
163 1 -1.1104 9.52406 2.91944 12.0457
165 1 -1.1104 9.15486 -3.07578 9.27523
153 2 2.2208 10.8277 1.2419 10.851
166 1 -1.1104 9.48477 2.60491 9.20364
79 1 -1.1104 12.2384 5.44817 12.1497
170 1 -1.1104 9.30196 -0.258657 9.40541
75 1 -1.1104 12.2596 5.56917 9.45157
169 1 -1.1104 9.35627 -0.0159861 12.0963
74 1 -1.1104 9.51714 8.48028 12.1933
123 1 -1.1104 6.76927 8.29563 9.18122
167 2 2.2208 7.93714 -1.36494 10.7401
8875 2 2.2208 13.4671 -1.5279 5.15986
45 2 2.2208 13.5409 1.2356 7.81941
8965 2 2.2208 13.6185 1.33192 2.50115
44 2 2.2208 5.25198 -4.24285 5.09787
41 2 2.2208 10.6788 -4.33601 10.8317
9011 2 2.2208 13.6639 -1.42851 10.6775
93 1 -1.1104 3.87563 8.31757 6.6824
8655 2 2.2208 2.30655 -4.3348 7.84392
8977 2 2.2208 -0.34697 6.82711 10.7296
8857 2 2.2208 -0.291454 3.99128 7.93736
9007 2 2.2208 -0.325155 6.82832 5.00694
9028 2 2.2208 13.6984 -4.21407 13.3827
179 2 2.2208 5.18215 1.22163 16.4126
180 1 -1.1104 0.83186 -2.86327 17.7198
181 1 -1.1104 1.04482 2.60467 17.7657
184 1 -1.1104 1.05503 -2.96745 14.9761
186 1 -1.1104 0.997805 2.72594 14.9237
192 1 -1.1104 1.15451 -0.0551588 17.9317
194 2 2.2208 5.22785 -1.61139 19.3096
195 2 2.2208 5.32057 4.16991 19.1521
196 1 -1.1104 0.934452 -0.230999 15.0778
200 1 -1.1104 3.72837 -3.07847 17.7726
201 1 -1.1104 3.77742 2.76032 17.7896
202 2 2.2208 2.50513 1.29634 19.2072
203 1 -1.1104 3.74291 -2.82286 14.9773
205 1 -1.1104 3.72837 2.64701 15.1593
207 2 2.2208 2.33991 -1.49598 16.3964
208 2 2.2208 2.35657 4.03355 16.4614
209 1 -1.1104 3.81244 -0.143747 17.7963
210 1 -1.1104 3.82976 -0.155101 15.0513
212 2 2.2208 5.26565 6.97966 16.2155
213 1 -1.1104 1.09225 8.35901 17.7465
215 1 -1.1104 1.07787 8.36769 14.9173
219 1 -1.1104 0.982899 5.54636 17.8272
221 1 -1.1104 0.977919 5.5609 15.0384
225 1 -1.1104 3.96953 8.2813 17.7409
226 2 2.2208 2.41756 6.95716 19.1787
227 1 -1.1104 3.89434 8.39158 14.8202
229 1 -1.1104 3.88964 5.58048 17.6577
230 1 -1.1104 3.83478 5.52181 14.951
188 1 -1.1104 6.54257 -2.97126 14.9155
193 1 -1.1104 6.51852 -0.165937 17.7644
228 1 -1.1104 3.76362 8.35758 20.4861
216 1 -1.1104 0.970227 8.28861 20.4646
211 1 -1.1104 3.85635 -0.2616 20.5027
197 1 -1.1104 1.1332 -0.103135 20.6966
189 1 -1.1104 6.56292 -2.9272 20.6431
220 1 -1.1104 6.63942 5.5494 17.6424
182 1 -1.1104 6.64568 -3.10629 17.7288
190 1 -1.1104 6.50268 2.64103 14.9455
214 1 -1.1104 6.64244 8.35242 17.5516
217 1 -1.1104 6.60783 8.28948 14.7832
223 1 -1.1104 6.64191 5.4371 14.904
191 1 -1.1104 6.62341 2.78104 20.5212
231 1 -1.1104 3.81937 5.48067 20.4874
204 1 -1.1104 3.68624 -3.10593 20.6297
187 1 -1.1104 0.923206 2.82213 20.6896
222 1 -1.1104 1.05394 5.53918 20.5374
185 1 -1.1104 0.975428 -2.88672 20.4375
199 1 -1.1104 6.54936 -0.115626 20.4862
183 1 -1.1104 6.43521 2.71125 17.7967
198 1 -1.1104 6.54654 -0.202868 15.007
8761 2 2.2208 8.03886 -4.35533 24.6974
243 2 2.2208 10.6809 1.36553 16.2914
244 1 -1.1104 12.1816 -2.78501 17.7366
245 1 -1.1104 12.2344 2.70766 17.6991
246 1 -1.1104 11.9217 -3.23675 14.7415
248 1 -1.1104 12.1124 2.59957 14.9296
250 1 -1.1104 12.1186 -0.145265 17.7
251 2 2.2208 10.748 -1.43086 19.1771
252 2 2.2208 10.8148 4.06942 19.0855
253 1 -1.1104 12.0625 -0.231014 14.8499
255 1 -1.1104 9.2186 -2.87568 17.8661
256 1 -1.1104 9.33589 2.80406 17.6552
257 2 2.2208 7.94774 1.34938 19.1809
258 1 -1.1104 9.31667 -2.78316 14.9685
260 1 -1.1104 9.27108 2.70625 14.914
262 2 2.2208 7.90902 -1.49598 16.441
263 2 2.2208 7.89654 4.11039 16.2858
264 1 -1.1104 9.42276 0.078009 17.6405
265 1 -1.1104 9.27599 -0.0648319 14.9252
267 2 2.2208 10.8958 6.90912 16.328
268 1 -1.1104 12.2214 8.30701 17.7637
269 1 -1.1104 12.3306 8.15595 14.9374
271 1 -1.1104 12.2601 5.4359 17.7246
272 1 -1.1104 12.2091 5.35654 14.8468
274 1 -1.1104 9.38971 8.29255 17.5833
275 2 2.2208 8.07696 6.86946 19.0178
276 1 -1.1104 9.36043 8.25988 15.0182
278 1 -1.1104 9.42252 5.53216 17.7087
279 1 -1.1104 9.44769 5.37153 14.7484
282 2 2.2208 10.5591 -4.27688 16.3132
273 1 -1.1104 12.1735 5.49556 20.592
247 1 -1.1104 12.1078 -2.93513 20.421
335 2 2.2208 8.12178 4.1521 27.5187
277 1 -1.1104 9.33783 8.28751 20.473
270 1 -1.1104 12.1495 8.12399 20.4688
178 2 2.2208 5.25713 6.7601 27.5377
249 1 -1.1104 12.1167 2.55991 20.5221
266 1 -1.1104 9.29445 -0.14926 20.4617
259 1 -1.1104 9.46522 -3.00176 20.5496
233 2 2.2208 13.5513 4.04617 21.8066
206 1 -1.1104 3.85291 2.64971 20.6156
218 1 -1.1104 6.54161 8.25394 20.4046
235 2 2.2208 -0.294173 1.22763 16.4578
323 1 -1.1104 6.5427 5.49441 26.0816
298 1 -1.1104 6.59635 -2.90704 26.1324
291 2 2.2208 5.28751 1.2023 21.9959
292 1 -1.1104 0.903383 -3.02972 23.2756
293 1 -1.1104 1.1302 2.86499 23.5271
296 1 -1.1104 0.910688 -2.89048 26.1209
297 1 -1.1104 0.944939 2.7923 26.1671
300 1 -1.1104 0.926446 -0.109341 23.394
302 2 2.2208 5.20291 -1.5767 24.7318
303 2 2.2208 5.24542 4.15388 24.7015
304 1 -1.1104 1.05699 -0.144365 26.1526
306 1 -1.1104 3.76094 -2.94815 23.4148
307 1 -1.1104 3.8239 2.6596 23.3153
308 2 2.2208 2.35111 1.30641 24.8092
309 1 -1.1104 3.73922 -2.8156 26.0186
310 1 -1.1104 3.72022 2.902 26.0516
311 2 2.2208 2.33279 -1.509 21.9655
312 2 2.2208 2.35682 4.15872 21.9224
313 1 -1.1104 3.73468 -0.21635 23.42
314 1 -1.1104 3.80114 -0.0104245 26.1982
315 2 2.2208 5.19861 6.95188 21.909
320 1 -1.1104 1.10177 5.95601 23.2454
322 1 -1.1104 0.956931 5.78813 26.0495
324 1 -1.1104 3.84626 8.3005 23.3499
325 2 2.2208 2.40799 6.99701 24.7353
326 1 -1.1104 3.8346 8.17561 26.2101
327 1 -1.1104 3.75564 5.55181 23.3021
328 1 -1.1104 3.68163 5.58488 26.0954
294 1 -1.1104 6.57175 -3.03468 23.3513
299 1 -1.1104 6.64954 2.84053 26.1362
319 1 -1.1104 6.56986 8.15406 26.0366
301 1 -1.1104 6.52725 -0.105749 23.4337
336 2 2.2208 7.9899 -1.47037 27.4797
224 1 -1.1104 6.64634 5.52008 20.394
321 1 -1.1104 6.6781 5.43925 23.3502
295 1 -1.1104 6.56855 2.65047 23.1635
317 1 -1.1104 6.6371 8.14402 23.1465
232 2 2.2208 13.6444 4.1004 27.5467
330 2 2.2208 2.34571 -1.53993 27.5503
356 1 -1.1104 9.42156 -2.97561 23.4224
177 2 2.2208 2.41506 4.22524 27.5391
9078 2 2.2208 13.4528 1.12668 19.0268
354 2 2.2208 10.976 4.15975 24.7194
329 2 2.2208 5.32643 1.23141 27.4897
331 2 2.2208 7.9722 4.07275 21.7952
337 2 2.2208 2.31038 -4.38253 24.7958
342 1 -1.1104 12.1958 5.38159 23.308
261 1 -1.1104 9.35432 2.67194 20.6889
280 1 -1.1104 9.31931 5.48574 20.3837
332 2 2.2208 8.14448 -1.56876 22.013
318 1 -1.1104 9.49865 -0.133994 23.3112
305 1 -1.1104 6.6939 -0.0703912 26.0799
240 1 -1.1104 12.1996 8.34765 23.1971
358 2 2.2208 8.01944 1.4634 24.7718
287 1 -1.1104 9.46814 -0.0964628 25.8852
353 2 2.2208 10.9944 -1.52246 24.7817
334 2 2.2208 10.923 6.88402 27.6293
8847 2 2.2208 5.19281 -4.21971 27.5096
338 2 2.2208 10.9872 1.27423 27.5181
254 1 -1.1104 11.9978 -0.272226 20.5952
355 1 -1.1104 12.3419 -0.0799156 26.1683
237 1 -1.1104 12.2844 8.2098 26.059
340 1 -1.1104 12.1763 5.45978 26.1665
242 2 2.2208 10.5825 6.88614 21.7952
339 1 -1.1104 9.38414 8.35488 23.2866
349 1 -1.1104 12.202 2.74163 23.2692
9024 2 2.2208 -0.357304 -4.36953 27.671
346 2 2.2208 7.9459 6.86595 24.7278
345 1 -1.1104 9.54626 8.27644 26.3661
344 1 -1.1104 9.43813 5.50425 23.2338
352 1 -1.1104 12.3646 -0.0504471 23.2747
347 2 2.2208 10.7995 1.3775 22.033
360 1 -1.1104 9.56356 2.72749 26.0778
348 1 -1.1104 12.3378 -2.84283 23.3062
343 1 -1.1104 9.36064 5.50194 26.1108
359 1 -1.1104 9.39583 -2.86422 26.0633
357 1 -1.1104 9.41349 2.79368 23.2859
351 1 -1.1104 12.3232 2.74749 26.1099
350 1 -1.1104 12.3572 -2.91506 26.1394
8848 2 2.2208 5.18539 -4.33775 21.9499
9183 2 2.2208 13.5981 -1.65311 16.2956
9186 2 2.2208 -0.349931 -1.46561 19.1714
236 2 2.2208 13.5949 6.95124 24.8349
283 2 2.2208 13.5801 6.77869 19.2203
8845 2 2.2208 8.0361 -4.29362 19.2259
8759 2 2.2208 10.8915 -4.28517 27.5649
8842 2 2.2208 2.38589 -4.3522 19.1428
174 2 2.2208 5.20259 4.07787 13.7224
361 2 2.2208 5.33053 12.529 4.87244
363 1 -1.1104 1.11428 11.0786 3.84459
366 2 2.2208 5.47761 9.75073 2.35354
368 2 2.2208 2.51717 9.75072 5.19333
369 1 -1.1104 4.07755 10.8256 0.944776
371 1 -1.1104 4.27497 10.7865 4.06111
372 2 2.2208 5.14233 18.1101 4.96919
373 1 -1.1104 0.907348 13.8989 0.805659
375 1 -1.1104 0.970053 19.6418 0.745741
380 1 -1.1104 1.00564 19.0902 3.57928
382 1 -1.1104 1.06123 16.7136 0.855244
385 2 2.2208 5.1325 15.492 2.31275
386 2 2.2208 5.21861 20.9117 2.22741
389 1 -1.1104 3.93014 13.9665 0.207673
391 1 -1.1104 3.83565 19.5792 0.920047
393 2 2.2208 2.49455 18.1398 2.12895
394 1 -1.1104 4.09512 13.98 3.71778
395 1 -1.1104 3.77205 19.5302 3.6303
397 2 2.2208 2.33476 20.8192 4.91879
398 1 -1.1104 3.85009 16.6264 0.828475
400 1 -1.1104 3.65837 16.8885 3.51731
413 1 -1.1104 6.61121 19.6154 3.63496
412 1 -1.1104 6.59726 19.5271 0.734286
414 1 -1.1104 6.63024 16.7472 0.959533
388 1 -1.1104 6.50303 16.6915 3.7431
378 1 -1.1104 6.55368 19.6037 6.45101
383 1 -1.1104 0.909066 16.8587 6.60359
477 2 2.2208 -0.218988 18.0425 10.7557
392 1 -1.1104 3.7049 19.5063 6.34275
457 1 -1.1104 0.918188 19.6051 6.31509
376 1 -1.1104 6.60951 13.9479 1.0053
370 1 -1.1104 1.06303 11.0113 6.71081
507 2 2.2208 5.15386 20.9649 13.4467
478 2 2.2208 -0.308192 15.2844 7.74046
364 1 -1.1104 6.90094 11.1422 0.99802
365 1 -1.1104 6.73231 11.0793 6.61859
439 2 2.2208 13.6358 18.1638 2.27649
367 1 -1.1104 6.88926 11.1356 3.75589
381 1 -1.1104 6.85831 13.9115 3.62658
402 2 2.2208 10.8778 12.6044 5.06645
403 1 -1.1104 12.2029 11.0713 0.837491
405 2 2.2208 10.9026 9.70785 2.35332
406 1 -1.1104 12.2184 11.1108 3.60414
407 2 2.2208 8.1714 12.5601 2.24581
408 2 2.2208 8.16384 9.72245 5.1597
409 1 -1.1104 9.54629 11.0914 0.933648
411 1 -1.1104 9.46361 11.0186 3.81955
415 2 2.2208 10.8589 18.0587 4.97985
416 1 -1.1104 12.188 13.8425 0.906057
418 1 -1.1104 12.1373 19.4328 0.703702
420 1 -1.1104 12.3617 13.8184 3.7075
421 1 -1.1104 12.2442 19.4238 3.53868
422 1 -1.1104 12.2309 16.7284 0.892486
424 2 2.2208 10.8638 15.4377 2.17876
425 2 2.2208 10.8445 20.8095 2.2546
426 1 -1.1104 12.3107 16.7149 3.65679
427 1 -1.1104 9.38689 13.9174 0.727248
429 1 -1.1104 9.38404 19.5301 0.787432
431 2 2.2208 7.97256 18.1581 2.08312
432 1 -1.1104 9.60198 13.9244 3.58083
433 1 -1.1104 9.29083 19.3079 3.58513
434 2 2.2208 7.96418 15.335 5.09259
435 2 2.2208 7.95186 20.8552 4.99096
436 1 -1.1104 9.41088 16.856 0.778737
438 1 -1.1104 9.41149 16.52 3.61093
423 1 -1.1104 12.2906 16.7033 6.37833
417 1 -1.1104 12.216 13.9359 6.478
419 1 -1.1104 12.15 19.5234 6.54672
410 1 -1.1104 9.48795 11.1592 6.61094
499 2 2.2208 13.6479 20.8781 5.02448
428 1 -1.1104 9.40248 14.0014 6.30752
430 1 -1.1104 9.4703 19.5844 6.34632
404 1 -1.1104 12.2668 11.1463 6.54834
9341 2 2.2208 -0.304616 9.61843 2.35847
509 2 2.2208 7.95767 12.5814 13.5359
377 1 -1.1104 6.46664 13.9326 6.51067
502 2 2.2208 13.5679 21.0071 10.6548
9340 2 2.2208 -0.288163 12.3599 5.18033
514 2 2.2208 13.5692 18.1676 13.59
374 1 -1.1104 0.99626 13.7054 6.52273
390 1 -1.1104 3.83235 11.3071 6.58849
399 1 -1.1104 4.10551 16.7725 6.58481
441 1 -1.1104 3.77483 19.7285 12.1023
442 1 -1.1104 3.94419 13.8888 11.8896
446 1 -1.1104 1.31195 19.5767 9.23559
447 1 -1.1104 0.940759 16.5557 9.35983
448 2 2.2208 5.23884 20.8489 7.81969
449 1 -1.1104 1.11026 13.8327 9.38238
450 2 2.2208 5.3283 15.4183 7.95314
453 1 -1.1104 1.05831 19.4711 12.0498
454 1 -1.1104 0.962005 13.8027 12.0955
455 2 2.2208 5.15398 18.1421 10.6316
456 1 -1.1104 3.93651 19.4197 9.20358
458 2 2.2208 2.51182 17.987 7.70061
459 1 -1.1104 3.88075 16.6405 9.26683
460 1 -1.1104 3.88945 14.0195 8.96692
462 1 -1.1104 0.994267 16.7614 12.218
463 1 -1.1104 3.8719 16.6946 12.068
464 2 2.2208 2.38047 20.9996 10.5648
465 2 2.2208 5.32849 12.6036 10.6513
466 1 -1.1104 0.973609 11.0207 12.0723
468 2 2.2208 2.52624 15.2349 10.6585
469 2 2.2208 5.23588 9.86823 7.86827
470 1 -1.1104 0.779651 11.1205 9.40682
472 2 2.2208 2.2664 12.4113 8.09412
473 2 2.2208 2.46068 9.70646 10.6404
474 1 -1.1104 3.86644 11.0706 12.1797
475 1 -1.1104 3.73046 11.2688 9.44487
445 1 -1.1104 6.83363 13.8944 9.26963
452 1 -1.1104 6.75999 13.9071 12.1148
451 1 -1.1104 6.5661 19.5076 12.1046
467 1 -1.1104 6.63393 11.1114 12.0133
487 1 -1.1104 9.50112 13.9923 12.0435
443 1 -1.1104 6.64487 19.5316 9.18895
471 1 -1.1104 6.58491 11.1775 9.35734
508 2 2.2208 5.33313 9.82764 13.4842
575 2 2.2208 2.43173 18.1952 13.5091
484 1 -1.1104 9.47906 13.9135 9.24521
481 2 2.2208 8.00394 20.7882 10.65
485 2 2.2208 8.11843 18.2276 7.83744
491 2 2.2208 8.06889 12.5325 7.85204
516 2 2.2208 10.8949 20.9954 13.403
483 1 -1.1104 9.54181 19.6004 9.19062
444 1 -1.1104 6.54619 16.7552 9.40312
461 1 -1.1104 6.75805 16.6877 12.1819
515 2 2.2208 8.14957 18.1288 13.4562
9326 2 2.2208 -0.214066 9.7145 8.04585
496 1 -1.1104 12.2617 19.503 9.46438
384 1 -1.1104 6.81994 16.765 6.47046
574 2 2.2208 2.3901 12.5869 13.3944
437 1 -1.1104 9.50638 16.8414 6.53922
494 1 -1.1104 12.161 16.7098 12.0723
488 1 -1.1104 12.2255 16.8174 9.17037
493 2 2.2208 10.8213 15.3776 7.82762
486 1 -1.1104 9.55405 19.5421 12.0372
497 1 -1.1104 12.3047 13.9389 9.15876
495 1 -1.1104 9.56094 11.2032 12.2588
498 2 2.2208 8.11882 9.84539 10.8096
489 2 2.2208 10.6941 20.9771 7.7806
492 1 -1.1104 9.37596 10.9704 9.42662
387 1 -1.1104 12.2866 10.8744 12.3208
379 2 2.2208 10.8398 9.69142 7.95175
362 1 -1.1104 12.1802 11.0747 9.34283
401 2 2.2208 10.8221 18.1458 10.7957
396 2 2.2208 10.7637 12.4605 10.8403
476 1 -1.1104 12.3607 19.5939 12.1864
440 1 -1.1104 12.2653 13.8326 11.9967
479 1 -1.1104 9.46227 16.8309 9.33797
480 1 -1.1104 9.43657 16.6316 12.0618
482 2 2.2208 8.05552 15.4049 10.6959
517 2 2.2208 10.7633 15.269 13.519
9344 2 2.2208 -0.146467 20.918 7.91828
9345 2 2.2208 13.5108 18.1483 7.90129
510 2 2.2208 -0.34759 20.9176 13.4732
504 2 2.2208 13.6773 9.67031 10.729
503 2 2.2208 13.6594 12.5384 7.87106
500 2 2.2208 13.5634 9.87373 5.19985
490 2 2.2208 13.59 15.3481 10.576
513 2 2.2208 -0.293516 9.64686 13.51
520 2 2.2208 5.2596 12.3293 -0.332304
573 2 2.2208 5.25899 15.2773 13.4859
527 2 2.2208 5.13808 12.6235 16.3474
528 1 -1.1104 0.956473 11.2307 18.0937
530 2 2.2208 5.34996 9.76987 18.9201
531 1 -1.1104 0.927459 11.202 15.1095
535 2 2.2208 2.44549 12.694 19.1565
536 2 2.2208 2.34669 9.80476 16.3625
537 1 -1.1104 3.79895 11.1971 17.7163
538 1 -1.1104 3.87297 11.2487 14.7884
540 2 2.2208 5.25703 18.2561 16.2248
541 1 -1.1104 0.755127 14.0327 17.5951
542 1 -1.1104 0.973589 19.4214 17.7072
545 1 -1.1104 1.10535 14.1165 14.8357
546 1 -1.1104 0.917679 13.9864 20.3493
547 1 -1.1104 0.969253 19.5653 14.9674
553 1 -1.1104 0.998041 16.6791 17.566
555 2 2.2208 5.22574 15.4214 18.9498
556 2 2.2208 5.23257 20.8521 19.1629
557 1 -1.1104 0.94282 16.7828 14.8479
561 1 -1.1104 3.6478 14.0554 17.8024
562 1 -1.1104 3.72406 19.6237 17.8539
563 2 2.2208 2.31713 18.1642 19.1525
564 1 -1.1104 3.85267 13.9517 14.7968
566 1 -1.1104 3.73462 19.5766 14.8496
568 2 2.2208 2.38481 15.475 16.2083
569 2 2.2208 2.36781 20.8957 16.4033
570 1 -1.1104 3.80206 16.8619 17.4767
571 1 -1.1104 3.91704 16.7717 14.8286
539 1 -1.1104 3.9027 11.1812 20.3064
554 1 -1.1104 6.6382 16.8691 17.4908
572 1 -1.1104 3.62334 16.5432 20.2853
558 1 -1.1104 0.838817 16.8488 20.4851
559 1 -1.1104 6.59818 16.518 14.9479
543 1 -1.1104 6.61923 13.9655 17.6015
567 1 -1.1104 3.66273 19.4976 20.6303
550 1 -1.1104 6.51377 14.0182 20.4488
533 1 -1.1104 6.59597 11.1412 14.9261
544 1 -1.1104 6.5055 19.677 17.6142
551 1 -1.1104 6.58257 19.4167 14.8158
529 1 -1.1104 6.63051 11.1213 17.601
534 1 -1.1104 6.77935 11.0328 20.4959
552 1 -1.1104 6.55211 19.5121 20.4234
548 1 -1.1104 0.869511 19.5087 20.605
524 2 2.2208 8.12463 9.73839 27.6057
523 2 2.2208 10.7956 12.5498 27.5123
649 2 2.2208 7.86722 20.8125 27.4402
560 1 -1.1104 6.49049 16.6275 20.4323
549 1 -1.1104 6.70507 13.8605 14.9725
518 2 2.2208 2.39312 15.2779 27.5477
616 2 2.2208 13.5696 21.0541 16.327
617 2 2.2208 13.4661 18.2632 18.9644
576 1 -1.1104 1.05807 8.89678 26.0666
580 2 2.2208 10.8598 12.5623 16.3688
581 1 -1.1104 12.2616 11.1906 17.6806
582 2 2.2208 10.7355 9.8104 18.9608
583 1 -1.1104 12.1182 10.99 15.0331
585 2 2.2208 7.97162 12.6663 18.9819
586 2 2.2208 7.97415 9.85202 16.2589
587 1 -1.1104 9.37784 11.2068 17.6259
588 1 -1.1104 9.31391 11.1001 14.8776
590 2 2.2208 10.817 18.1497 16.2033
591 1 -1.1104 12.2857 14.0566 17.6253
592 1 -1.1104 12.1507 19.6269 17.575
593 1 -1.1104 12.3456 13.8076 14.8546
595 1 -1.1104 12.0764 19.6766 14.9298
597 1 -1.1104 12.2192 16.7533 17.5879
598 2 2.2208 10.8014 15.3507 19.0549
599 2 2.2208 10.741 20.9283 19.159
600 1 -1.1104 12.1247 16.8215 14.8301
602 1 -1.1104 9.43516 13.874 17.6803
603 1 -1.1104 9.30861 19.5018 17.6262
604 2 2.2208 7.98234 18.235 19.1235
605 1 -1.1104 9.49072 13.8902 14.9618
607 1 -1.1104 9.46341 19.5738 14.8321
609 2 2.2208 7.99669 15.2735 16.26
610 2 2.2208 7.95782 20.9855 16.2046
611 1 -1.1104 9.43654 16.7256 17.773
612 1 -1.1104 9.39995 16.672 14.9808
601 1 -1.1104 12.3206 16.642 20.4623
596 1 -1.1104 12.0989 19.4545 20.3271
594 1 -1.1104 12.0982 13.9378 20.4096
589 1 -1.1104 9.434 11.0438 20.4453
606 1 -1.1104 9.20404 13.7984 20.4937
584 1 -1.1104 12.2071 11.132 20.4258
613 1 -1.1104 9.36662 16.773 20.4172
608 1 -1.1104 9.39762 19.5786 20.4946
9399 2 2.2208 13.6333 18.1179 24.7299
532 1 -1.1104 0.969359 11.1463 20.9426
565 1 -1.1104 3.74069 13.9701 20.7103
618 1 -1.1104 3.68492 19.5451 23.4807
621 1 -1.1104 1.04817 19.4802 26.1643
622 1 -1.1104 0.696331 16.7065 26.1839
623 1 -1.1104 0.845783 13.9407 26.0392
625 2 2.2208 5.08428 21.0925 24.8616
627 1 -1.1104 0.861886 19.5085 23.4073
628 1 -1.1104 0.893307 13.9648 23.117
629 2 2.2208 5.10782 18.0624 21.8963
630 1 -1.1104 3.66842 19.613 26.1995
631 2 2.2208 2.30572 18.1001 24.7245
632 1 -1.1104 3.5799 16.6985 26.1352
634 1 -1.1104 0.834742 16.7738 23.2648
635 1 -1.1104 3.54065 16.8069 23.1061
636 2 2.2208 2.37838 20.9033 21.9301
637 2 2.2208 5.15984 12.4995 21.8216
639 2 2.2208 2.23919 15.4226 21.8611
640 2 2.2208 5.15277 9.65155 24.7554
642 2 2.2208 2.50991 9.73379 21.826
643 1 -1.1104 3.58354 11.2101 23.152
644 1 -1.1104 3.71708 11.0002 26.1895
626 1 -1.1104 6.48227 13.7845 23.2127
663 1 -1.1104 6.49469 19.5105 26.063
624 1 -1.1104 6.46036 19.8199 23.1501
638 1 -1.1104 6.60214 10.8158 23.2827
641 1 -1.1104 6.547 10.9369 26.2388
645 2 2.2208 2.41501 20.9946 27.5561
646 2 2.2208 5.05903 18.0525 27.3588
633 1 -1.1104 6.86529 16.9351 23.0376
519 2 2.2208 2.69457 9.54357 27.6515
525 2 2.2208 10.5862 18.1511 27.4263
650 2 2.2208 13.5723 9.83393 27.4422
522 2 2.2208 7.80471 15.2415 27.4915
681 1 -1.1104 12.155 11.186 23.1184
678 1 -1.1104 12.1039 13.8271 23.2861
658 1 -1.1104 9.48357 16.5359 23.1929
680 2 2.2208 10.746 12.4761 21.8502
654 2 2.2208 13.5644 12.3629 24.5562
619 1 -1.1104 6.56129 13.5922 26.2812
671 1 -1.1104 12.3112 16.5865 23.4703
673 1 -1.1104 12.0667 13.9256 26.0714
620 1 -1.1104 6.59661 16.7489 26.0908
682 2 2.2208 10.654 9.68229 24.6697
667 1 -1.1104 12.2293 16.8571 26.1773
657 1 -1.1104 9.32651 16.6797 26.1513
679 2 2.2208 10.6605 18.0919 21.8498
666 1 -1.1104 9.33434 13.8467 23.3848
662 1 -1.1104 9.30552 13.8329 26.0684
664 2 2.2208 7.83068 17.9891 24.6711
659 2 2.2208 7.89856 20.9267 21.8515
670 2 2.2208 10.697 15.3176 24.7748
677 1 -1.1104 11.9712 19.4022 23.2787
655 1 -1.1104 12.2376 11.2063 26.1964
660 2 2.2208 7.91224 15.3172 21.8803
652 2 2.2208 13.4098 15.2334 21.983
661 1 -1.1104 9.25171 19.4757 25.9175
665 1 -1.1104 9.15856 19.4141 23.2089
676 2 2.2208 7.84337 12.4985 24.7193
675 2 2.2208 8.05044 9.73534 21.8021
674 1 -1.1104 9.44425 11.0072 23.3191
668 1 -1.1104 9.3902 11.0415 26.1035
669 2 2.2208 10.6458 20.8535 24.691
672 1 -1.1104 12.096 19.6662 26.064
578 2 2.2208 -0.400087 9.72537 19.2348
526 2 2.2208 13.6039 15.3618 27.644
577 2 2.2208 13.5013 9.76152 21.7876
648 2 2.2208 13.5576 15.3235 16.3338
9382 2 2.2208 13.5272 20.9047 21.9443
656 2 2.2208 13.5326 20.9248 27.4758
316 1 -1.1104 0.99405 8.73238 23.3167
647 2 2.2208 13.6167 9.75842 16.4088
512 2 2.2208 10.8958 9.61588 13.7274
683 2 2.2208 5.05625 23.6993 5.13306
684 2 2.2208 5.08278 29.3729 5.0905
685 1 -1.1104 1.03964 25.0723 1.03888
686 1 -1.1104 1.11805 25.0154 3.68098
687 1 -1.1104 0.939018 22.382 0.902924
688 1 -1.1104 1.0014 27.8003 0.833935
689 2 2.2208 5.14575 26.6404 2.17249
690 1 -1.1104 1.05828 22.0942 3.70454
691 1 -1.1104 0.784504 27.9123 3.67144
692 1 -1.1104 3.83936 25.1643 0.936657
693 2 2.2208 2.39851 23.7401 2.20578
694 2 2.2208 2.30332 29.2165 2.46639
695 1 -1.1104 3.85265 25.1522 3.71114
696 2 2.2208 2.33071 26.5453 5.07912
697 1 -1.1104 3.73507 22.3372 0.879539
698 1 -1.1104 3.62741 27.9766 0.951836
699 1 -1.1104 3.8589 22.2753 3.65788
700 1 -1.1104 3.6312 27.7743 3.75412
701 1 -1.1104 0.939492 30.6617 1.09374
702 1 -1.1104 1.05737 30.6984 3.84293
703 1 -1.1104 0.943227 33.6181 1.10176
704 2 2.2208 5.2056 32.0522 2.39075
705 1 -1.1104 0.774194 33.4678 3.85929
707 1 -1.1104 3.72396 30.6985 0.987491
708 1 -1.1104 3.74983 30.6758 3.82034
709 2 2.2208 2.26844 32.1246 5.16221
710 1 -1.1104 3.7887 33.5212 1.10611
711 1 -1.1104 3.74718 33.4281 3.86123
721 1 -1.1104 6.47012 28.0346 3.68137
756 1 -1.1104 0.809329 25.1092 6.46656
720 1 -1.1104 6.69596 22.3365 3.72214
718 1 -1.1104 6.46077 22.1457 0.807229
742 1 -1.1104 6.5291 33.4756 1.07523
762 1 -1.1104 3.65534 25.1632 6.44031
740 1 -1.1104 6.63268 30.7462 0.971467
741 1 -1.1104 6.61771 30.8095 3.63234
764 1 -1.1104 3.81585 28.0128 6.54788
759 1 -1.1104 0.892229 27.828 6.42546
767 1 -1.1104 0.789117 33.6379 6.63483
716 1 -1.1104 6.49903 25.13 0.889041
717 1 -1.1104 6.48398 25.1891 3.62183
761 1 -1.1104 6.55433 27.8735 6.3457
765 1 -1.1104 0.904569 30.6735 6.60909
758 1 -1.1104 0.9677 22.3344 6.38606
770 1 -1.1104 3.60682 33.6895 6.57149
766 1 -1.1104 6.58103 30.7079 6.60566
760 1 -1.1104 6.50549 22.3544 6.48856
706 1 -1.1104 6.4897 33.5835 3.81094
719 1 -1.1104 6.54395 27.9796 0.892621
9675 2 2.2208 13.6232 29.3284 2.3399
9676 2 2.2208 13.5445 26.6014 5.05653
722 2 2.2208 10.8138 23.695 4.98969
723 2 2.2208 10.6892 29.3876 5.01014
724 1 -1.1104 12.0961 25.2827 0.726444
725 1 -1.1104 12.2156 25.025 3.64507
726 1 -1.1104 12.3216 22.3343 0.869047
727 1 -1.1104 12.4014 28.058 0.995948
728 2 2.2208 10.773 26.4716 2.44551
729 1 -1.1104 12.1429 22.1815 3.52945
730 1 -1.1104 12.2927 27.86 3.72246
731 1 -1.1104 9.17367 25.0597 0.952097
732 2 2.2208 7.78036 23.6907 2.34773
733 2 2.2208 7.98741 29.3264 2.35887
734 1 -1.1104 9.36017 25.1249 3.73267
735 2 2.2208 7.87777 26.4705 5.08745
736 1 -1.1104 9.2858 22.3856 0.686519
737 1 -1.1104 9.40831 27.8642 0.980204
738 1 -1.1104 9.38053 22.1848 3.66036
739 1 -1.1104 9.39294 27.7524 3.69706
743 1 -1.1104 12.1983 30.8445 1.0349
744 1 -1.1104 12.1573 30.8256 3.78913
745 1 -1.1104 12.1974 33.7432 1.00322
746 2 2.2208 10.8271 32.1746 2.39922
747 1 -1.1104 12.1081 33.694 3.71032
748 1 -1.1104 9.37344 30.6634 1.00297
749 1 -1.1104 9.4298 30.8639 3.81876
750 2 2.2208 7.95387 32.1453 5.22492
751 1 -1.1104 9.24766 33.5039 1.18298
752 1 -1.1104 9.34116 33.6958 3.9052
810 1 -1.1104 12.354 22.2715 6.39348
813 1 -1.1104 9.29528 22.3691 6.3428
809 1 -1.1104 12.1767 24.9999 6.54984
814 1 -1.1104 9.19762 27.8225 6.53878
815 1 -1.1104 12.049 30.6671 6.68496
817 1 -1.1104 9.37437 30.7326 6.52874
9542 2 2.2208 13.5507 32.2851 5.11226
9678 2 2.2208 13.6541 23.7847 13.4573
811 1 -1.1104 11.9866 27.8738 6.39909
816 1 -1.1104 12.2543 33.4939 6.68005
812 1 -1.1104 9.45324 25.0892 6.4532
818 1 -1.1104 9.26918 33.3927 6.69157
763 1 -1.1104 3.64328 22.2252 6.54105
769 1 -1.1104 3.8 30.6596 6.60407
757 1 -1.1104 6.56298 25.1904 6.49996
771 2 2.2208 5.14701 23.7938 10.4905
772 2 2.2208 5.06914 29.1405 10.6989
773 1 -1.1104 1.13775 24.9444 12.0597
775 1 -1.1104 0.949601 25.1624 9.33212
777 1 -1.1104 0.94401 22.2409 12.0866
778 1 -1.1104 1.05196 27.9028 12.2121
781 2 2.2208 5.09508 26.5637 7.83818
782 1 -1.1104 1.09341 22.4613 9.27836
783 1 -1.1104 0.982066 27.8291 9.21279
786 1 -1.1104 3.85247 25.2538 11.9208
787 2 2.2208 2.28009 23.7307 7.85488