ITEM: TIMESTEP
60000
ITEM: NUMBER OF ATOMS
17820
ITEM: BOX BOUNDS pp pp pp
-3.6690721300179657e-01 2.7706907213002211e+01
-4.2714678149428584e+00 3.3235146781494205e+02
-3.5859847224025099e-01 2.7698598472240363e+01
ITEM: ATOMS id type q x y z
1 2 2.2208 5.26432 1.26001 5.12775
2 1 -1.1104 0.962462 -2.91599 0.986234
3 1 -1.1104 0.951781 2.65085 0.979802
6 1 -1.1104 0.992649 -2.86474 3.8508
7 1 -1.1104 0.893923 2.86111 3.73223
10 1 -1.1104 0.966795 -0.154773 1.01805
12 2 2.2208 5.2605 -1.61017 2.44565
13 2 2.2208 5.10677 4.13944 2.49895
14 1 -1.1104 1.14828 -0.0147464 3.87837
16 1 -1.1104 3.80383 -2.8017 1.1064
17 1 -1.1104 3.72514 2.67868 1.11547
18 2 2.2208 2.42766 1.26437 2.45736
19 1 -1.1104 3.87121 -2.91743 3.8983
20 1 -1.1104 3.78953 2.70906 3.83917
21 2 2.2208 2.39153 -1.56139 5.31256
22 2 2.2208 2.40027 4.19531 5.31779
23 1 -1.1104 3.76156 -0.0433681 0.988039
24 1 -1.1104 3.83942 -0.143103 3.89054
25 2 2.2208 5.16829 6.88506 5.22841
30 1 -1.1104 0.912429 5.55412 0.859468
32 1 -1.1104 0.986327 5.53691 3.72437
34 1 -1.1104 3.91613 8.21264 1.0687
35 2 2.2208 2.3334 6.94693 2.34228
36 1 -1.1104 3.49528 8.0776 3.84553
37 1 -1.1104 3.75939 5.48393 0.928538
38 1 -1.1104 3.91291 5.46973 3.92911
28 1 -1.1104 0.866339 8.29113 3.83224
9010 2 2.2208 -0.363723 -4.28454 5.26822
177 2 2.2208 2.37852 3.99771 -0.27891
329 2 2.2208 5.1707 1.36023 -0.309777
9009 2 2.2208 -0.483879 4.12127 2.49444
8857 2 2.2208 -0.418455 4.02385 8.09917
40 2 2.2208 -0.516024 -1.55413 2.5349
27 1 -1.1104 6.67701 8.30085 1.04352
5 1 -1.1104 6.50577 2.71544 0.804839
33 1 -1.1104 6.64574 5.53122 3.98713
8977 2 2.2208 -0.359176 6.88152 10.8924
81 1 -1.1104 1.29568 2.58685 6.62614
9008 2 2.2208 -0.268013 1.30271 5.21835
289 2 2.2208 10.9431 -1.4868 13.6455
9 1 -1.1104 6.58705 2.75301 3.88506
4 1 -1.1104 6.66799 -2.78071 1.04542
43 2 2.2208 2.43932 -4.24944 2.64965
8 1 -1.1104 6.60629 -3.08622 4.01529
11 1 -1.1104 6.5397 -0.113065 1.08629
31 1 -1.1104 6.67332 5.57052 1.24964
15 1 -1.1104 6.50531 -0.252471 3.87315
29 1 -1.1104 6.57184 8.34614 3.92146
333 2 2.2208 13.4802 -1.45339 -0.283541
71 1 -1.1104 9.64223 8.41407 3.98306
46 2 2.2208 11.0069 1.41556 5.36002
47 1 -1.1104 12.2636 -3.04641 0.89381
48 1 -1.1104 12.2268 2.78478 0.941635
49 1 -1.1104 12.4514 -2.83483 3.65718
50 1 -1.1104 12.1417 2.88427 3.85793
51 1 -1.1104 12.0446 -0.0837599 1.06725
52 2 2.2208 10.7738 -1.54241 2.38176
53 2 2.2208 10.6913 4.13501 2.43045
54 1 -1.1104 12.0727 0.0331737 3.96378
55 1 -1.1104 9.44523 -3.02645 1.12034
56 1 -1.1104 9.34868 2.74296 0.970196
57 2 2.2208 7.97493 1.32675 2.39539
58 1 -1.1104 9.4122 -2.95315 3.88577
59 1 -1.1104 9.37509 2.69593 3.82195
60 2 2.2208 8.09558 -1.50681 5.30844
61 2 2.2208 8.09088 4.0666 5.24565
62 1 -1.1104 9.43634 -0.0393592 0.885915
63 1 -1.1104 9.42615 -0.102613 3.72088
64 2 2.2208 10.8496 6.84163 5.37213
169 1 -1.1104 9.50133 -0.00948573 12.2867
66 1 -1.1104 12.6233 8.40648 3.76719
67 1 -1.1104 12.2232 5.40153 1.22709
68 1 -1.1104 12.227 5.59253 3.9149
69 1 -1.1104 9.57733 8.3709 1.10409
70 2 2.2208 8.07975 6.96408 2.46894
72 1 -1.1104 9.43969 5.58032 0.844707
73 1 -1.1104 9.42269 5.51978 3.76622
42 2 2.2208 8.01094 -4.18399 8.04518
9018 2 2.2208 -0.50767 7.08936 -0.0551918
65 1 -1.1104 12.5133 8.1914 0.967567
146 1 -1.1104 12.3099 5.47503 6.69042
44 2 2.2208 5.16996 -4.39809 5.2962
123 1 -1.1104 6.62104 8.24705 9.55327
76 2 2.2208 13.565 6.79963 2.40011
150 1 -1.1104 9.37358 5.47759 12.3541
338 2 2.2208 10.757 1.30002 -0.426523
89 1 -1.1104 0.944832 8.21987 6.63132
330 2 2.2208 2.33061 -1.51038 -0.342393
87 1 -1.1104 4.03167 2.78104 6.74035
86 1 -1.1104 3.82812 -3.12825 6.68646
80 1 -1.1104 1.06467 -2.87818 6.67717
91 1 -1.1104 1.01174 5.33509 6.61882
84 1 -1.1104 1.09416 -0.10939 6.71005
93 1 -1.1104 3.92021 8.57865 6.68139
88 1 -1.1104 3.95575 -0.189489 6.62901
94 1 -1.1104 3.81983 5.59397 6.71098
134 2 2.2208 -0.361035 -1.47428 8.00903
95 2 2.2208 5.16372 1.35436 10.895
96 1 -1.1104 1.0605 -2.82733 12.3089
97 1 -1.1104 0.848462 2.84769 12.2627
100 1 -1.1104 0.913808 -2.90791 9.58885
101 1 -1.1104 1.0997 2.68597 9.44203
104 1 -1.1104 1.01422 1.22957e-05 12.2668
106 2 2.2208 5.17072 -1.50477 8.11876
107 2 2.2208 5.31794 4.03924 8.04772
108 1 -1.1104 0.975975 -0.19741 9.46233
110 1 -1.1104 3.883 -2.75464 12.174
111 1 -1.1104 3.92938 2.74006 12.2592
112 2 2.2208 2.60959 1.24436 8.02342
113 1 -1.1104 3.9296 -2.90677 9.38953
114 1 -1.1104 3.83127 2.67675 9.47607
115 2 2.2208 2.43953 -1.50032 10.7467
116 2 2.2208 2.43143 4.0289 10.8885
117 1 -1.1104 3.83236 0.0812953 12.3962
118 1 -1.1104 3.90844 -0.17972 9.45503
119 2 2.2208 5.19855 6.99129 10.7646
120 1 -1.1104 1.07785 8.38972 12.1975
122 1 -1.1104 1.11996 8.30158 9.24129
124 1 -1.1104 1.05002 5.58351 12.1905
126 1 -1.1104 1.05296 5.51327 9.41108
128 1 -1.1104 3.9267 8.45324 12.2319
129 2 2.2208 2.49381 6.89123 8.0903
130 1 -1.1104 3.94888 8.34328 9.39074
131 1 -1.1104 3.73599 5.58032 12.2588
132 1 -1.1104 3.94563 5.51266 9.48667
103 1 -1.1104 6.7596 2.65046 9.53989
170 1 -1.1104 9.47977 0.0993818 9.44915
90 1 -1.1104 6.54142 8.30511 6.69898
92 1 -1.1104 6.66614 5.45328 6.72917
8852 2 2.2208 -0.462004 1.22353 10.9351
160 2 2.2208 10.8174 4.08858 8.07998
137 2 2.2208 5.30626 -4.17502 10.8241
79 1 -1.1104 12.2921 5.59142 12.4122
83 1 -1.1104 6.78174 2.65511 6.59405
127 1 -1.1104 6.70054 5.43714 9.55343
98 1 -1.1104 6.79484 -2.75001 12.2769
152 2 2.2208 7.98826 6.83535 8.20197
155 1 -1.1104 12.2845 2.83167 12.4016
153 2 2.2208 11.0041 1.3352 10.861
171 2 2.2208 10.8525 6.96517 10.9408
75 1 -1.1104 12.3136 5.50294 9.4673
154 1 -1.1104 12.238 -2.80808 12.4375
135 1 -1.1104 12.2455 8.37389 12.2546
149 1 -1.1104 9.53671 5.33114 6.63845
141 1 -1.1104 12.3722 -0.0346937 6.56465
165 1 -1.1104 9.48381 -2.72522 9.53779
168 2 2.2208 8.11913 4.04761 10.8184
82 1 -1.1104 6.64411 -2.9422 6.69702
85 1 -1.1104 6.68966 -0.0213709 6.62014
139 1 -1.1104 12.2276 -2.97614 6.55103
143 1 -1.1104 9.42819 2.71043 6.6146
144 1 -1.1104 9.59851 0.00613494 6.67347
147 1 -1.1104 9.38764 8.18018 6.81439
159 2 2.2208 10.898 -1.46595 8.04296
167 2 2.2208 8.05414 -1.40906 10.9506
162 1 -1.1104 9.44826 -2.76708 12.5082
151 1 -1.1104 9.44229 8.45396 9.60844
145 1 -1.1104 12.0737 8.31637 6.6237
140 1 -1.1104 12.4068 2.71766 6.56889
74 1 -1.1104 9.37682 8.20072 12.3704
102 1 -1.1104 6.65503 -2.77634 9.44127
105 1 -1.1104 6.73768 -0.0174789 12.3855
109 1 -1.1104 6.55295 -0.0898493 9.39292
161 1 -1.1104 12.2996 -0.293448 9.42936
158 1 -1.1104 12.359 0.0101248 12.3274
133 1 -1.1104 12.3493 8.26078 9.50354
166 1 -1.1104 9.6511 2.81185 9.499
157 1 -1.1104 12.549 2.61585 9.45666
142 1 -1.1104 9.46183 -2.78421 6.81051
148 1 -1.1104 9.53787 5.5625 9.50957
163 1 -1.1104 9.5146 2.62018 12.2184
125 1 -1.1104 6.70073 5.55064 12.2995
99 1 -1.1104 6.63449 2.86559 12.4244
121 1 -1.1104 6.56016 8.306 12.3052
156 1 -1.1104 12.1601 -2.88547 9.52456
164 2 2.2208 8.14879 1.35365 8.05729
8654 2 2.2208 10.8376 -4.22918 5.26992
506 1 -1.1104 1.03561 8.51311 1.05489
8847 2 2.2208 5.13575 -4.34989 -0.322322
241 2 2.2208 2.33411 1.38943 13.6512
179 2 2.2208 5.1632 1.446 16.4943
180 1 -1.1104 0.861955 -2.81646 17.7684
181 1 -1.1104 1.00203 2.72481 17.9329
184 1 -1.1104 1.10264 -2.60922 15.074
186 1 -1.1104 1.04265 2.80698 15.1377
192 1 -1.1104 1.10269 -0.0208329 18.092
194 2 2.2208 5.20304 -1.32958 19.3288
195 2 2.2208 5.19789 4.19744 19.2604
196 1 -1.1104 0.890251 0.0314676 15.1649
200 1 -1.1104 3.7802 -2.76418 18.052
201 1 -1.1104 3.83972 2.89518 17.9449
202 2 2.2208 2.42295 1.45664 19.2655
203 1 -1.1104 3.8565 -2.82439 15.282
205 1 -1.1104 3.82595 2.88522 15.0842
207 2 2.2208 2.4542 -1.44606 16.5687
208 2 2.2208 2.34017 4.25301 16.4968
209 1 -1.1104 3.73187 0.0513515 17.8681
210 1 -1.1104 3.79272 0.145252 15.1301
212 2 2.2208 5.12892 6.97302 16.5335
213 1 -1.1104 1.18274 8.33763 17.7951
215 1 -1.1104 0.946481 8.3988 14.9679
219 1 -1.1104 0.932313 5.48972 17.9917
221 1 -1.1104 0.963606 5.5605 15.0474
225 1 -1.1104 3.8351 8.33554 17.8161
226 2 2.2208 2.40791 6.88974 19.3176
229 1 -1.1104 3.69469 5.51174 17.8938
230 1 -1.1104 3.77489 5.62297 15.0702
227 1 -1.1104 3.74101 8.44956 14.9891
238 2 2.2208 -0.269183 6.99633 16.5031
290 2 2.2208 10.786 4.09281 13.6311
8841 2 2.2208 5.22818 -4.25895 16.6343
239 2 2.2208 5.1877 -1.4631 13.617
176 2 2.2208 13.7613 7.02711 13.6882
172 2 2.2208 -0.342662 -1.47481 13.6591
9022 2 2.2208 -0.392809 4.17288 13.6871
9053 2 2.2208 -0.412565 4.12813 24.7605
235 2 2.2208 -0.354577 1.37621 16.6074
197 1 -1.1104 0.995274 0.0724526 20.7893
8846 2 2.2208 -0.298598 -4.16983 22.0013
9070 2 2.2208 -0.419735 7.07134 22.1394
9186 2 2.2208 -0.391934 -1.44622 19.0995
282 2 2.2208 10.705 -4.02039 16.6931
8842 2 2.2208 2.39434 -4.3457 19.1284
182 1 -1.1104 6.58004 -2.81048 18.0448
193 1 -1.1104 6.60149 0.00300699 18.0866
188 1 -1.1104 6.43986 -2.81233 15.1888
223 1 -1.1104 6.68563 5.45153 15.1135
220 1 -1.1104 6.61837 5.78982 17.8139
217 1 -1.1104 6.67318 8.39839 14.9592
183 1 -1.1104 6.67378 2.80565 17.9129
198 1 -1.1104 6.60981 -0.21136 15.284
190 1 -1.1104 6.60323 2.67194 15.153
214 1 -1.1104 6.70411 8.48538 17.7664
243 2 2.2208 10.5911 1.2631 16.5042
244 1 -1.1104 12.2432 -2.7218 17.9577
245 1 -1.1104 12.2624 2.77745 17.9909
246 1 -1.1104 12.2978 -3.40743 15.1508
248 1 -1.1104 12.2809 2.5377 15.2229
250 1 -1.1104 12.1473 0.0776163 17.8799
251 2 2.2208 10.8881 -1.34201 19.3646
252 2 2.2208 10.8414 4.33568 19.2688
253 1 -1.1104 12.119 -0.23023 15.1653
255 1 -1.1104 9.43865 -2.69485 17.9504
256 1 -1.1104 9.48904 2.9221 17.954
257 2 2.2208 7.97 1.37252 19.4184
258 1 -1.1104 9.31601 -2.75358 15.2241
260 1 -1.1104 9.34223 2.76248 15.1429
262 2 2.2208 7.91514 -1.46988 16.6468
263 2 2.2208 7.98111 4.21021 16.5067
264 1 -1.1104 9.37227 0.0550401 18.0218
265 1 -1.1104 9.38281 -0.126792 15.2015
267 2 2.2208 10.8842 6.97544 16.4393
268 1 -1.1104 12.4484 8.46205 17.8
269 1 -1.1104 12.2839 8.33564 15.036
271 1 -1.1104 12.3187 5.64154 17.9024
272 1 -1.1104 12.2485 5.36186 15.1114
274 1 -1.1104 9.51819 8.33536 17.935
275 2 2.2208 7.98182 7.0047 19.2684
276 1 -1.1104 9.51888 8.42216 15.003
278 1 -1.1104 9.45487 5.74941 17.9127
279 1 -1.1104 9.5224 5.43261 15.1959
355 1 -1.1104 12.2045 -0.0665445 26.2755
234 2 2.2208 -0.440741 4.18433 19.4069
341 2 2.2208 -0.420074 1.3429 22.0857
191 1 -1.1104 6.56283 2.97568 20.6114
9143 2 2.2208 -0.357688 -1.50167 24.8131
288 2 2.2208 8.13175 1.38509 13.7088
305 1 -1.1104 6.68303 -0.103948 26.3855
339 1 -1.1104 9.40625 8.34561 23.5428
231 1 -1.1104 3.80539 5.46575 20.6122
211 1 -1.1104 3.84914 -0.101513 20.7004
204 1 -1.1104 3.79422 -2.87891 20.7839
206 1 -1.1104 3.83603 2.80047 20.5646
228 1 -1.1104 3.71754 8.29391 20.631
185 1 -1.1104 0.930487 -2.84907 20.4867
187 1 -1.1104 1.08966 2.8175 20.6471
216 1 -1.1104 1.00771 8.43577 20.54
222 1 -1.1104 0.968163 5.60881 20.8456
291 2 2.2208 5.21567 1.4768 22.067
292 1 -1.1104 1.01048 -2.6624 23.5191
293 1 -1.1104 0.897321 2.81369 23.3463
296 1 -1.1104 1.0681 -2.87051 26.2771
297 1 -1.1104 0.98882 2.76485 26.2597
300 1 -1.1104 0.953322 -0.0834603 23.4174
302 2 2.2208 5.26045 -1.44649 24.9283
303 2 2.2208 5.17112 4.3451 24.812
304 1 -1.1104 1.09388 -0.114909 26.3009
306 1 -1.1104 3.70533 -2.91474 23.6212
307 1 -1.1104 3.69083 2.85915 23.3787
308 2 2.2208 2.33934 1.28551 24.7478
309 1 -1.1104 3.95678 -2.95517 26.2433
310 1 -1.1104 3.6991 2.84593 26.3271
311 2 2.2208 2.39996 -1.4433 22.0044
312 2 2.2208 2.48726 4.13374 21.9854
313 1 -1.1104 3.73978 -0.0787059 23.4047
314 1 -1.1104 3.91258 -0.0511171 26.2328
315 2 2.2208 5.24702 6.99691 21.982
320 1 -1.1104 1.02895 5.734 23.6765
322 1 -1.1104 0.854228 7.88028 26.1517
324 1 -1.1104 3.78494 8.36923 23.27
325 2 2.2208 2.55276 7.14976 24.7639
326 1 -1.1104 3.79145 8.487 26.2801
327 1 -1.1104 3.87254 5.61918 23.2798
328 1 -1.1104 3.37227 5.6003 26.1507
294 1 -1.1104 6.65361 -2.85778 23.4497
224 1 -1.1104 6.4283 5.65637 20.5297
323 1 -1.1104 6.46943 5.5238 26.3135
295 1 -1.1104 6.65032 2.77949 23.552
298 1 -1.1104 6.66204 -2.95847 26.3255
321 1 -1.1104 6.56463 5.5876 23.4152
319 1 -1.1104 6.48681 8.27193 26.311
270 1 -1.1104 12.3763 8.24335 20.9621
358 2 2.2208 8.05055 1.29847 24.9825
348 1 -1.1104 12.2857 -2.93857 23.49
332 2 2.2208 8.00408 -1.35673 22.1712
317 1 -1.1104 6.55556 8.29514 23.3475
273 1 -1.1104 12.23 5.57095 20.7639
318 1 -1.1104 9.50948 -0.0461339 23.384
359 1 -1.1104 9.41466 -2.86237 26.4158
189 1 -1.1104 6.56661 -2.75384 20.7335
247 1 -1.1104 12.2249 -3.08714 20.7469
301 1 -1.1104 6.64185 0.0105815 23.4477
299 1 -1.1104 6.47733 2.78449 26.2086
345 1 -1.1104 9.49248 8.29753 26.1518
342 1 -1.1104 12.3224 5.36353 23.669
350 1 -1.1104 12.2086 -2.81423 26.2746
353 2 2.2208 10.9388 -1.46737 24.8395
199 1 -1.1104 6.61904 0.127272 20.726
354 2 2.2208 10.82 4.09201 24.8434
352 1 -1.1104 12.1705 -0.106528 23.3049
240 1 -1.1104 12.3277 8.37798 23.5464
351 1 -1.1104 12.1963 2.6466 26.2958
349 1 -1.1104 12.2997 2.66414 23.5392
287 1 -1.1104 9.43518 -0.155739 26.1848
340 1 -1.1104 12.198 5.47858 26.423
249 1 -1.1104 12.3463 2.82512 20.7488
277 1 -1.1104 9.52226 8.40889 20.7225
266 1 -1.1104 9.47914 -0.129141 20.6889
259 1 -1.1104 9.39437 -2.77852 20.855
254 1 -1.1104 12.4992 -0.115758 20.6375
280 1 -1.1104 9.44174 5.61176 20.7231
218 1 -1.1104 6.73353 8.47015 20.4917
347 2 2.2208 10.8335 1.44802 22.0188
261 1 -1.1104 9.5315 2.81659 20.5915
242 2 2.2208 10.9296 6.94111 22.1006
344 1 -1.1104 9.54051 5.50859 23.5048
237 1 -1.1104 12.1802 8.35726 26.2205
346 2 2.2208 8.00297 7.01579 24.8819
356 1 -1.1104 9.47313 -2.74409 23.6375
331 2 2.2208 8.07693 4.24318 22.0692
360 1 -1.1104 9.24851 2.70097 26.3644
343 1 -1.1104 9.36683 5.51155 26.2059
357 1 -1.1104 9.39605 2.66028 23.57
336 2 2.2208 7.97768 -1.4589 27.7666
175 2 2.2208 8.05896 6.8063 13.793
174 2 2.2208 5.12788 4.22829 13.6738
173 2 2.2208 2.37355 7.00845 13.6606
334 2 2.2208 10.8463 7.03622 27.5452
8848 2 2.2208 5.18549 -4.24057 22.1156
8761 2 2.2208 8.05329 -4.26974 24.8475
8845 2 2.2208 8.03744 -4.19699 19.3692
284 2 2.2208 8.03451 -4.16063 13.7845
8843 2 2.2208 2.41421 -4.17943 13.7345
178 2 2.2208 5.31007 6.93822 27.7732
9024 2 2.2208 -0.33819 -4.33608 27.7346
335 2 2.2208 7.98757 4.2099 27.6663
9023 2 2.2208 -0.303917 1.26391 27.6794
361 2 2.2208 5.18756 12.3059 5.20556
363 1 -1.1104 0.944844 11.0596 4.06552
366 2 2.2208 5.21311 9.75026 2.52834
368 2 2.2208 2.35765 9.78406 5.29616
369 1 -1.1104 3.85843 11.0686 1.07206
371 1 -1.1104 3.932 10.7353 4.08858
372 2 2.2208 5.05312 18.1431 5.22263
373 1 -1.1104 0.913047 13.9777 1.05378
375 1 -1.1104 0.862611 19.4602 1.21329
380 1 -1.1104 1.01578 19.2769 3.88033
382 1 -1.1104 0.840119 16.8676 1.49725
385 2 2.2208 4.9661 15.1752 2.48751
386 2 2.2208 5.10892 20.9528 2.42626
389 1 -1.1104 4.00339 14.1409 0.397104
391 1 -1.1104 3.56767 19.4146 0.838584
393 2 2.2208 2.45557 18.2435 2.4287
394 1 -1.1104 3.98412 13.8769 4.05767
395 1 -1.1104 3.71719 19.7121 3.80331
397 2 2.2208 2.2533 21.0777 5.24446
398 1 -1.1104 3.54867 16.6957 1.17616
400 1 -1.1104 3.59815 16.991 3.98083
520 2 2.2208 5.29954 12.4932 -0.262575
516 2 2.2208 10.7896 21.1097 13.6624
501 2 2.2208 13.6153 15.3747 5.10454
414 1 -1.1104 6.43782 16.5974 0.897138
364 1 -1.1104 6.60113 11.1014 1.21872
525 2 2.2208 10.8334 18.0955 -0.40686
515 2 2.2208 7.96627 18.1589 13.6714
451 1 -1.1104 6.66354 19.583 12.3241
521 2 2.2208 13.7058 12.673 13.6063
388 1 -1.1104 6.43487 16.712 3.75749
440 1 -1.1104 12.3712 13.9707 12.3087
412 1 -1.1104 6.41303 19.5438 1.04183
413 1 -1.1104 6.57317 19.509 3.76552
376 1 -1.1104 6.77665 13.7531 1.02991
396 2 2.2208 10.7525 12.496 10.7918
367 1 -1.1104 6.70256 11.0216 3.9653
381 1 -1.1104 6.66131 13.8492 3.95377
402 2 2.2208 10.6973 12.5546 5.3069
403 1 -1.1104 12.1678 11.0931 0.997579
405 2 2.2208 10.8176 9.76091 2.41642
406 1 -1.1104 12.0888 11.2142 3.91544
407 2 2.2208 8.0314 12.6138 2.60999
408 2 2.2208 8.07488 9.68771 5.28151
409 1 -1.1104 9.43955 10.9056 0.989835
411 1 -1.1104 9.42052 11.1829 3.75076
415 2 2.2208 10.694 18.103 5.158
416 1 -1.1104 12.3057 13.9943 0.910141
418 1 -1.1104 12.0984 19.6264 0.956453
420 1 -1.1104 12.3009 13.8964 3.83228
421 1 -1.1104 12.1199 19.5141 3.77948
422 1 -1.1104 12.2047 16.7428 0.975955
424 2 2.2208 10.7124 15.5592 2.40548
425 2 2.2208 10.7169 20.9614 2.50431
426 1 -1.1104 12.0898 16.8006 3.6729
427 1 -1.1104 9.42599 13.8437 0.978097
429 1 -1.1104 9.20602 19.4672 0.923504
431 2 2.2208 7.70452 18.159 2.35135
432 1 -1.1104 9.55685 14.1084 3.8434
433 1 -1.1104 9.1931 19.4306 3.82127
434 2 2.2208 8.00355 15.349 5.10974
435 2 2.2208 7.87424 21.0076 5.25455
436 1 -1.1104 9.34993 16.6835 0.967231
438 1 -1.1104 9.29819 16.8091 3.82004
417 1 -1.1104 12.1289 13.8693 6.60969
645 2 2.2208 2.40383 20.9843 -0.351445
485 2 2.2208 7.96434 18.1021 8.06813
481 2 2.2208 7.99817 21.0501 10.9113
526 2 2.2208 13.6442 15.4625 -0.33576
423 1 -1.1104 12.1026 16.7265 6.51863
491 2 2.2208 7.98581 12.6479 8.03047
482 2 2.2208 7.95485 15.3936 10.9675
439 2 2.2208 13.4923 18.1896 2.41751
410 1 -1.1104 9.44539 11.0501 6.53006
452 1 -1.1104 6.59847 14.0078 12.2857
487 1 -1.1104 9.38981 14.121 12.2508
479 1 -1.1104 9.39682 16.7823 9.24576
486 1 -1.1104 9.37256 19.6818 12.1668
457 1 -1.1104 0.996759 19.7612 6.6489
370 1 -1.1104 0.898866 11.0125 6.73366
392 1 -1.1104 3.70151 19.5454 6.66107
390 1 -1.1104 3.78203 11.2754 6.75209
374 1 -1.1104 1.06252 13.7142 6.60457
377 1 -1.1104 6.22705 13.8621 6.74071
383 1 -1.1104 0.925737 16.8946 6.8461
399 1 -1.1104 3.82291 16.6141 7.06073
441 1 -1.1104 3.8322 19.5264 12.4371
442 1 -1.1104 3.92862 14.0448 12.3906
446 1 -1.1104 0.815825 19.5588 9.48692
447 1 -1.1104 0.990402 16.7452 9.57457
448 2 2.2208 5.09317 20.9942 8.17929
449 1 -1.1104 1.06598 13.8567 9.3644
450 2 2.2208 5.25911 15.4521 8.07923
453 1 -1.1104 0.960781 19.596 12.4851
454 1 -1.1104 1.07764 13.9302 12.2504
455 2 2.2208 5.19623 18.2336 10.9725
456 1 -1.1104 3.65649 19.6633 9.57218
458 2 2.2208 2.30345 18.16 8.14922
459 1 -1.1104 3.85687 16.7695 9.71821
460 1 -1.1104 3.97147 13.8711 9.30627
462 1 -1.1104 0.871215 16.8123 12.3397
463 1 -1.1104 3.61072 16.8625 12.3814
464 2 2.2208 2.36822 21.0626 10.9927
465 2 2.2208 5.08401 12.6151 10.9202
466 1 -1.1104 1.04585 11.2619 12.3076
468 2 2.2208 2.45885 15.4989 10.9146
469 2 2.2208 5.29352 9.82783 8.12202
470 1 -1.1104 1.002 11.0736 9.41865
472 2 2.2208 2.3886 12.4936 7.9716
473 2 2.2208 2.42584 9.69065 10.8317
474 1 -1.1104 3.78192 11.1732 12.3971
475 1 -1.1104 3.8206 11.1317 9.57628
378 1 -1.1104 6.56678 19.5157 6.76323
461 1 -1.1104 6.57958 16.8272 12.2967
467 1 -1.1104 6.43533 11.0863 12.2133
471 1 -1.1104 6.74779 11.2251 9.51762
443 1 -1.1104 6.41505 19.6177 9.5166
404 1 -1.1104 12.1036 11.1445 6.67825
519 2 2.2208 2.66335 9.91848 -0.242035
512 2 2.2208 10.9051 9.86884 13.6208
379 2 2.2208 10.8511 9.75183 8.15327
419 1 -1.1104 12.17 19.5156 6.63464
497 1 -1.1104 12.2341 13.9405 9.44773
445 1 -1.1104 6.66677 13.9253 9.44707
444 1 -1.1104 6.59074 16.7604 9.50458
401 2 2.2208 10.7857 18.2193 10.8331
362 1 -1.1104 12.3237 11.1289 9.52331
492 1 -1.1104 9.44402 11.1413 9.38051
489 2 2.2208 10.7461 21.0124 7.98197
480 1 -1.1104 9.47085 16.7834 12.1373
495 1 -1.1104 9.48782 11.2696 12.2551
496 1 -1.1104 11.9992 19.634 9.48209
494 1 -1.1104 12.0962 16.6822 12.2108
498 2 2.2208 7.90435 9.84317 10.9426
476 1 -1.1104 12.1261 19.569 12.4344
428 1 -1.1104 9.20635 13.9576 6.74475
483 1 -1.1104 9.28777 19.5233 9.49343
488 1 -1.1104 12.3046 16.9035 9.44197
484 1 -1.1104 9.41838 13.7764 9.36393
387 1 -1.1104 12.2837 11.2295 12.2853
384 1 -1.1104 6.64009 16.7866 6.64892
437 1 -1.1104 9.34134 16.5578 6.51031
430 1 -1.1104 9.34558 19.5647 6.59024
365 1 -1.1104 6.72618 11.0752 6.78557
493 2 2.2208 10.7371 15.3159 7.87781
509 2 2.2208 8.03331 12.6136 13.5913
523 2 2.2208 10.8056 12.6011 -0.43132
646 2 2.2208 4.97974 17.9988 -0.542971
524 2 2.2208 7.98921 9.77366 -0.235907
649 2 2.2208 7.92613 20.905 -0.413428
527 2 2.2208 5.22939 12.4984 16.4464
528 1 -1.1104 0.843762 11.204 17.9685
530 2 2.2208 5.39801 9.79086 19.2511
531 1 -1.1104 0.878312 11.0178 15.1339
535 2 2.2208 2.33302 12.7102 19.2918
536 2 2.2208 2.47213 9.87593 16.5495
537 1 -1.1104 3.97427 11.0026 17.774
538 1 -1.1104 3.72986 11.2572 15.038
540 2 2.2208 5.1794 18.1463 16.4756
541 1 -1.1104 0.835279 13.9014 17.8207
542 1 -1.1104 1.02482 19.7032 17.8699
545 1 -1.1104 1.00158 13.8373 15.0883
547 1 -1.1104 1.09841 19.6273 15.1257
553 1 -1.1104 0.828701 16.6701 17.8957
555 2 2.2208 5.30234 15.3959 19.2927
556 2 2.2208 5.20913 20.9012 19.3848
557 1 -1.1104 0.935721 16.7577 15.0179
561 1 -1.1104 3.90044 13.8145 18.0535
562 1 -1.1104 3.7764 19.5169 17.9459
563 2 2.2208 2.38254 18.1888 19.1344
564 1 -1.1104 3.92508 14.1404 15.2807
566 1 -1.1104 3.84942 19.6378 15.1999
568 2 2.2208 2.35505 15.3778 16.486
569 2 2.2208 2.43462 21.0057 16.517
570 1 -1.1104 3.76136 16.7315 17.7242
571 1 -1.1104 3.69061 16.8817 15.1029
517 2 2.2208 10.8469 15.4761 13.6382
316 1 -1.1104 0.996893 8.52614 23.5624
9460 2 2.2208 -0.396665 18.1496 16.46
652 2 2.2208 13.5741 15.3104 22.1472
578 2 2.2208 -0.362294 9.82686 19.3127
573 2 2.2208 5.25173 15.4528 13.8339
554 1 -1.1104 6.72806 16.6746 17.928
559 1 -1.1104 6.5922 16.7638 15.1632
551 1 -1.1104 6.519 19.4901 15.1203
549 1 -1.1104 6.62477 13.9334 15.0787
543 1 -1.1104 6.69541 13.9643 17.9788
550 1 -1.1104 6.54356 13.984 20.5225
654 2 2.2208 13.5269 12.4908 24.8715
507 2 2.2208 5.29462 20.8984 13.5639
9396 2 2.2208 -0.564204 9.60602 25.338
518 2 2.2208 2.35535 15.3548 27.6508
677 1 -1.1104 12.0771 19.4731 23.395
577 2 2.2208 13.6865 9.72116 22.1475
650 2 2.2208 13.5746 9.78644 27.6304
533 1 -1.1104 6.76571 11.174 15.0549
544 1 -1.1104 6.6427 19.6089 17.9524
529 1 -1.1104 6.73514 11.1332 17.9151
580 2 2.2208 10.8225 12.4906 16.4145
581 1 -1.1104 12.1953 11.2398 17.9324
582 2 2.2208 10.8387 9.82594 19.3298
583 1 -1.1104 12.3001 11.1698 15.0188
585 2 2.2208 8.01927 12.666 19.3512
586 2 2.2208 8.15208 9.87461 16.5243
587 1 -1.1104 9.46484 11.1142 17.8999
588 1 -1.1104 9.48411 11.2623 15.1154
590 2 2.2208 10.8223 18.2567 16.4619
591 1 -1.1104 12.2425 14.0496 17.7858
592 1 -1.1104 12.0774 19.6224 17.9002
593 1 -1.1104 12.1763 13.9514 15.0966
595 1 -1.1104 12.0779 19.6558 15.0386
597 1 -1.1104 12.2452 16.8191 17.6369
598 2 2.2208 10.9233 15.5322 19.2625
599 2 2.2208 10.7538 20.8865 19.3024
600 1 -1.1104 12.2761 16.8573 14.9337
602 1 -1.1104 9.3251 14.134 17.9028
603 1 -1.1104 9.50136 19.6522 17.8584
604 2 2.2208 8.06807 18.2391 19.2701
605 1 -1.1104 9.35552 14.0463 14.9743
607 1 -1.1104 9.39355 19.6476 15.0319
609 2 2.2208 8.03316 15.3999 16.5309
610 2 2.2208 7.95808 21.109 16.4548
611 1 -1.1104 9.53774 16.849 17.8932
612 1 -1.1104 9.40649 16.8744 15.0086
658 1 -1.1104 9.43564 16.6939 23.5539
678 1 -1.1104 12.2156 13.9276 23.5198
633 1 -1.1104 6.61129 16.875 23.3386
552 1 -1.1104 6.55329 19.6474 20.5887
560 1 -1.1104 6.49889 16.8181 20.6436
608 1 -1.1104 9.35674 19.5273 20.7325
596 1 -1.1104 12.0957 19.5276 20.6256
617 2 2.2208 13.6848 18.3274 19.1567
661 1 -1.1104 9.43422 19.5139 26.33
657 1 -1.1104 9.5216 16.7934 26.2743
620 1 -1.1104 6.75864 16.7244 26.4054
666 1 -1.1104 9.40949 13.918 23.5063
511 2 2.2208 -0.367926 15.3661 13.7345
567 1 -1.1104 3.72002 19.3909 20.6464
539 1 -1.1104 3.7833 11.1235 20.5047
558 1 -1.1104 0.836983 16.9142 20.5993
546 1 -1.1104 0.836191 14.1017 20.6132
572 1 -1.1104 3.60268 16.6874 20.5075
548 1 -1.1104 1.05167 19.5505 20.652
532 1 -1.1104 0.929572 11.2297 21.1052
565 1 -1.1104 3.6137 13.8007 20.9583
618 1 -1.1104 3.71323 19.5008 23.3053
621 1 -1.1104 0.947094 19.5733 26.3299
622 1 -1.1104 0.922843 16.7839 26.5162
623 1 -1.1104 1.04483 14.0284 26.4231
625 2 2.2208 5.15256 20.8745 24.8066
627 1 -1.1104 0.755843 19.5517 23.2926
628 1 -1.1104 1.06333 13.8446 23.3583
629 2 2.2208 5.07728 18.0859 22.1924
630 1 -1.1104 3.6863 19.5904 26.1506
631 2 2.2208 2.41548 18.1798 24.8258
632 1 -1.1104 3.47116 16.8233 26.3
634 1 -1.1104 0.744773 16.8117 23.5252
635 1 -1.1104 3.48643 16.8485 23.3287
636 2 2.2208 2.27603 20.897 22.0824
637 2 2.2208 5.13563 12.4092 22.0421
639 2 2.2208 2.20038 15.5766 21.9696
640 2 2.2208 5.21285 9.89204 24.9091
642 2 2.2208 2.38377 9.73595 22.0631
643 1 -1.1104 3.72137 11.0732 23.3924
644 1 -1.1104 4.02025 11.1538 26.3881
576 1 -1.1104 0.73102 10.5888 27.011
663 1 -1.1104 6.45459 19.6765 26.3624
624 1 -1.1104 6.59832 19.4625 23.5157
638 1 -1.1104 6.61893 11.0924 23.5533
626 1 -1.1104 6.5464 13.6795 23.3094
641 1 -1.1104 6.74558 10.9786 26.3941
619 1 -1.1104 6.62745 13.6158 26.4317
670 2 2.2208 10.8639 15.3095 24.9021
682 2 2.2208 10.804 9.82837 24.7926
669 2 2.2208 10.8162 20.9685 24.9809
680 2 2.2208 10.6969 12.6364 22.1079
673 1 -1.1104 12.2863 14.081 26.2411
594 1 -1.1104 12.1509 13.8721 20.6582
668 1 -1.1104 9.61569 11.2464 26.2204
681 1 -1.1104 12.2046 11.1455 23.4687
676 2 2.2208 7.9238 12.669 24.9129
665 1 -1.1104 9.37511 19.6528 23.5963
671 1 -1.1104 12.1157 16.7316 23.2464
679 2 2.2208 10.6812 18.1098 22.1292
655 1 -1.1104 12.286 11.0943 26.3479
664 2 2.2208 7.90557 17.9624 24.9258
672 1 -1.1104 12.297 19.625 26.2011
674 1 -1.1104 9.35725 11.1728 23.4939
601 1 -1.1104 12.458 16.6592 20.4956
589 1 -1.1104 9.30992 11.3877 20.6354
675 2 2.2208 7.94439 9.80383 22.02
659 2 2.2208 7.91383 21.0153 22.1587
662 1 -1.1104 9.45144 14.0439 26.2346
534 1 -1.1104 6.58684 11.1113 20.7954
613 1 -1.1104 9.51591 16.8943 20.6026
606 1 -1.1104 9.42432 14.1358 20.7699
584 1 -1.1104 12.1575 11.1165 20.8429
667 1 -1.1104 12.4319 16.7347 26.1368
660 2 2.2208 7.83 15.3336 22.156
574 2 2.2208 2.37727 12.5688 13.7301
510 2 2.2208 -0.353158 21.0487 13.7112
508 2 2.2208 5.32223 9.82247 13.8177
522 2 2.2208 7.94204 15.2075 27.7075
575 2 2.2208 2.27533 18.1414 13.7958
683 2 2.2208 5.21568 23.8334 5.24065
684 2 2.2208 5.09138 29.2553 5.30968
685 1 -1.1104 0.999238 25.2418 1.12058
686 1 -1.1104 1.09016 25.1972 3.84891
687 1 -1.1104 0.87221 22.4209 1.04813
688 1 -1.1104 0.867325 27.8959 1.02292
689 2 2.2208 5.11695 26.5891 2.5171
690 1 -1.1104 0.957318 22.3136 3.80265
691 1 -1.1104 0.971209 27.8906 3.94216
692 1 -1.1104 3.72824 25.1317 1.10264
693 2 2.2208 2.33257 23.8585 2.44079
694 2 2.2208 2.34736 29.3134 2.50518
695 1 -1.1104 3.80746 25.1673 3.87947
696 2 2.2208 2.40423 26.5388 5.20978
697 1 -1.1104 3.8182 22.4071 1.14241
698 1 -1.1104 3.82328 27.8949 1.01038
699 1 -1.1104 3.60218 22.499 4.02885
700 1 -1.1104 3.70226 27.9389 3.81251
701 1 -1.1104 0.981486 30.7008 1.08538
702 1 -1.1104 1.15624 30.6959 3.88434
703 1 -1.1104 0.914272 33.5595 1.04414
704 2 2.2208 5.17371 32.0387 2.54947
705 1 -1.1104 0.994079 33.5341 3.75583
707 1 -1.1104 3.72307 30.7299 1.03077
708 1 -1.1104 3.87231 30.7785 3.94591
709 2 2.2208 2.52738 32.2736 5.32502
710 1 -1.1104 3.68957 33.4732 1.05021
711 1 -1.1104 3.79676 33.5596 3.85466
9680 2 2.2208 -0.407351 26.5109 13.6775
706 1 -1.1104 6.71158 33.4928 3.91133
857 2 2.2208 2.22222 32.1996 -0.291174
841 2 2.2208 13.4897 32.0827 10.879
740 1 -1.1104 6.59234 30.7072 0.903378
741 1 -1.1104 6.60621 30.7143 3.87241
765 1 -1.1104 1.08508 30.7997 6.71716
9672 2 2.2208 -0.430068 23.8301 5.183
720 1 -1.1104 6.51243 22.4356 3.85593
716 1 -1.1104 6.50989 25.2899 1.088
717 1 -1.1104 6.54128 25.147 3.94257
719 1 -1.1104 6.55095 28.1164 0.963779
721 1 -1.1104 6.47457 27.9241 3.95152
718 1 -1.1104 6.61103 22.3736 1.13151
742 1 -1.1104 6.65085 33.4778 1.19848
762 1 -1.1104 3.82234 24.9501 6.76584
9675 2 2.2208 13.6144 29.4853 2.33794
722 2 2.2208 10.804 23.8149 5.16391
723 2 2.2208 10.8333 29.4293 5.28194
724 1 -1.1104 12.0672 25.1625 0.930276
725 1 -1.1104 12.1766 25.2995 3.68019
726 1 -1.1104 12.3022 22.2649 1.12402
727 1 -1.1104 12.2476 28.0351 1.00194
728 2 2.2208 10.7218 26.6323 2.36144
729 1 -1.1104 12.1821 22.3614 3.8198
730 1 -1.1104 12.175 28.1507 3.67586
731 1 -1.1104 9.27283 25.0438 0.88352
732 2 2.2208 7.99084 23.7918 2.45804
733 2 2.2208 7.99552 29.3507 2.51117
734 1 -1.1104 9.38087 25.0283 3.72344
735 2 2.2208 7.99815 26.6248 5.28409
736 1 -1.1104 9.47242 22.4024 0.991196
737 1 -1.1104 9.43133 27.8649 0.981559
738 1 -1.1104 9.30607 22.2838 3.96765
739 1 -1.1104 9.52226 28.0254 3.81622
743 1 -1.1104 12.0992 30.7833 1.13948
744 1 -1.1104 12.1085 30.9408 4.03683
745 1 -1.1104 12.0359 33.6876 1.05939
746 2 2.2208 10.7786 32.2315 2.6032
747 1 -1.1104 12.3671 33.5747 4.04521
748 1 -1.1104 9.3892 30.6828 1.03925
749 1 -1.1104 9.32669 30.8055 3.80091
750 2 2.2208 8.04342 32.1171 5.2654
751 1 -1.1104 9.2624 33.5222 1.05841
752 1 -1.1104 9.54838 33.6253 4.03576
854 2 2.2208 10.8719 29.4826 -0.32102
848 2 2.2208 5.38999 26.5907 13.6683
957 2 2.2208 13.6249 32.2385 -0.312974
815 1 -1.1104 12.1312 30.6502 6.71221
816 1 -1.1104 12.1554 33.4973 6.74641
855 2 2.2208 7.88979 32.0766 -0.382009
9676 2 2.2208 13.6954 26.5618 5.18928
9542 2 2.2208 13.5975 32.1639 5.3536
769 1 -1.1104 3.86223 30.6281 6.71807
766 1 -1.1104 6.64329 30.741 6.60254
764 1 -1.1104 3.78111 27.8466 6.63877
756 1 -1.1104 0.957283 25.0996 6.64759
759 1 -1.1104 1.01704 28.0296 6.70656
763 1 -1.1104 3.72444 22.2468 6.83126
770 1 -1.1104 3.96751 33.4455 6.69482
758 1 -1.1104 0.776415 22.4507 6.71161
767 1 -1.1104 1.1143 33.7428 6.63808
771 2 2.2208 5.14941 23.7944 10.7704
772 2 2.2208 5.28684 29.3844 10.8071
773 1 -1.1104 0.990226 25.1298 12.2217
775 1 -1.1104 0.890411 25.3271 9.37499
777 1 -1.1104 0.892057 22.3787 12.2769
778 1 -1.1104 1.11696 27.9041 12.2046
781 2 2.2208 5.19212 26.4614 8.05203
782 1 -1.1104 1.09978 22.3569 9.54176
783 1 -1.1104 1.02023 28.0962 9.48514
786 1 -1.1104 3.81555 25.1316 12.2394
787 2 2.2208 2.29276 23.666 8.0294
788 2 2.2208 2.33756 29.3579 8.13509
789 1 -1.1104 3.75537 25.1977 9.52687
790 2 2.2208 2.38649 26.6265 10.837
791 1 -1.1104 3.81296 22.3822 12.2729
792 1 -1.1104 3.83435 27.9484 12.181
793 1 -1.1104 3.74796 22.3977 9.53969
794 1 -1.1104 3.90563 28.0814 9.46351
795 1 -1.1104 0.922445 30.8226 12.2538
797 1 -1.1104 0.907382 30.7505 9.56901
799 1 -1.1104 0.898391 33.6646 12.3136
801 2 2.2208 5.10121 32.0863 8.09067
802 1 -1.1104 1.0626 33.5714 9.44731
804 1 -1.1104 3.86183 30.7118 12.1467
805 1 -1.1104 3.74153 30.8374 9.42688
806 2 2.2208 2.3226 32.1416 11.0118
807 1 -1.1104 3.82199 33.5087 12.2481