ITEM: TIMESTEP
40000
ITEM: NUMBER OF ATOMS
17820
ITEM: BOX BOUNDS pp pp pp
-3.6192329313563615e-01 2.7701923293135938e+01
-4.3457797385906343e+00 3.3242577973859119e+02
-3.5917523651087718e-01 2.7699175236511255e+01
ITEM: ATOMS id type q x y z
1 2 2.2208 5.10955 1.14661 5.2554
2 1 -1.1104 1.04578 -2.86718 0.827516
3 1 -1.1104 1.17031 2.83526 1.00199
6 1 -1.1104 0.933867 -2.92628 3.66886
7 1 -1.1104 0.995684 2.62351 3.83411
10 1 -1.1104 1.13977 -0.0416855 1.01436
12 2 2.2208 5.3212 -1.62156 2.32369
13 2 2.2208 5.28803 3.89705 2.41997
14 1 -1.1104 0.992831 -0.163626 3.84486
16 1 -1.1104 3.80231 -2.9374 0.880399
17 1 -1.1104 3.89333 2.62216 0.948952
18 2 2.2208 2.47271 1.2967 2.42479
19 1 -1.1104 4.01848 -3.07417 3.82055
20 1 -1.1104 3.77982 2.6191 3.82631
21 2 2.2208 2.35885 -1.5982 5.21625
22 2 2.2208 2.52751 3.97944 5.20582
23 1 -1.1104 4.0041 -0.154414 0.950504
24 1 -1.1104 3.70363 -0.412353 3.77368
25 2 2.2208 5.2492 6.89782 5.16396
30 1 -1.1104 1.12068 5.46442 0.882052
32 1 -1.1104 1.15445 5.49406 3.77272
34 1 -1.1104 3.84168 7.99485 1.11512
35 2 2.2208 2.36271 6.79143 2.40719
36 1 -1.1104 3.72185 8.08464 3.80032
37 1 -1.1104 3.83559 5.34284 1.16141
38 1 -1.1104 3.98538 5.30829 3.90225
28 1 -1.1104 1.01139 8.24248 3.77314
5 1 -1.1104 6.67928 2.58812 1.16229
11 1 -1.1104 6.59351 -0.107201 1.06671
8 1 -1.1104 6.71674 -2.84462 3.8237
33 1 -1.1104 6.70664 5.49158 3.78019
89 1 -1.1104 0.999515 8.28564 6.56539
86 1 -1.1104 3.87526 -2.92868 6.67888
15 1 -1.1104 6.63716 -0.178817 3.92215
90 1 -1.1104 6.71987 8.3762 6.66641
93 1 -1.1104 3.87606 8.21871 6.59111
87 1 -1.1104 3.96879 2.49309 6.56378
94 1 -1.1104 3.74984 5.39822 6.69741
82 1 -1.1104 6.65871 -2.95525 6.64642
91 1 -1.1104 1.07966 5.62931 6.53988
88 1 -1.1104 3.67399 -0.338401 6.62803
84 1 -1.1104 0.957068 -0.14825 6.60581
83 1 -1.1104 6.60395 2.70457 6.67608
4 1 -1.1104 6.64408 -2.90481 0.88441
31 1 -1.1104 6.71607 5.53822 0.979176
92 1 -1.1104 6.58668 5.39596 6.58868
85 1 -1.1104 6.56717 -0.085816 6.68136
43 2 2.2208 2.33645 -4.28521 2.32385
8977 2 2.2208 -0.351497 6.80802 10.8233
137 2 2.2208 5.15678 -4.2231 10.8179
172 2 2.2208 -0.294975 -1.4919 13.4748
9 1 -1.1104 6.60469 2.53462 3.84697
27 1 -1.1104 6.75121 8.17884 0.854879
29 1 -1.1104 6.73247 8.21721 3.899
76 2 2.2208 13.5799 6.82674 2.34898
71 1 -1.1104 9.56669 8.22138 3.75237
46 2 2.2208 10.8708 1.19199 5.22149
47 1 -1.1104 12.2117 -3.17982 1.36159
48 1 -1.1104 12.208 2.64321 0.873771
49 1 -1.1104 12.2933 -2.98967 4.00287
50 1 -1.1104 12.3559 2.5739 3.8299
51 1 -1.1104 12.1081 -0.125071 1.06983
52 2 2.2208 10.7611 -1.65181 2.3807
53 2 2.2208 10.784 4.13172 2.42113
54 1 -1.1104 12.2251 -0.201485 3.86057
55 1 -1.1104 9.42662 -2.95417 1.07126
56 1 -1.1104 9.47693 2.70327 1.06032
57 2 2.2208 8.04363 1.19063 2.48026
58 1 -1.1104 9.43881 -2.94068 3.93926
59 1 -1.1104 9.39038 2.78522 3.79567
60 2 2.2208 8.14288 -1.46093 5.39415
61 2 2.2208 8.02578 4.1274 5.19255
62 1 -1.1104 9.31746 -0.158721 1.01706
63 1 -1.1104 9.48256 -0.151859 3.83823
64 2 2.2208 10.9263 7.01397 5.29691
65 1 -1.1104 12.7075 8.27657 0.920592
66 1 -1.1104 12.3783 8.30922 3.65175
67 1 -1.1104 12.2269 5.46706 1.05225
68 1 -1.1104 12.4056 5.45278 3.90529
69 1 -1.1104 9.72144 8.26946 1.16595
70 2 2.2208 8.00321 6.929 2.46992
72 1 -1.1104 9.46855 5.58862 1.07585
73 1 -1.1104 9.53169 5.41597 3.8009
8965 2 2.2208 13.5569 1.29945 2.28819
143 1 -1.1104 9.49028 2.5828 6.60313
147 1 -1.1104 9.5348 8.42799 6.51295
149 1 -1.1104 9.50284 5.51391 6.63249
144 1 -1.1104 9.37583 -0.0372046 6.63792
142 1 -1.1104 9.34937 -2.86978 6.66369
139 1 -1.1104 12.0838 -2.96008 6.75081
136 2 2.2208 13.6054 3.91502 5.14967
173 2 2.2208 2.29693 6.87194 13.6295
146 1 -1.1104 12.2801 5.42967 6.66687
39 2 2.2208 13.5549 -4.27622 8.08405
506 1 -1.1104 1.02344 8.54306 0.816257
80 1 -1.1104 1.04199 -3.10464 6.48772
81 1 -1.1104 1.04612 2.79712 6.47749
241 2 2.2208 2.48399 1.38054 13.6384
174 2 2.2208 5.17921 4.08416 13.6252
99 1 -1.1104 6.55033 2.68778 12.2951
95 2 2.2208 5.18619 1.38579 10.8248
96 1 -1.1104 1.26856 -2.77468 12.2211
97 1 -1.1104 1.05567 2.64943 12.2694
100 1 -1.1104 0.928664 -2.83049 9.46066
101 1 -1.1104 0.938586 2.68162 9.45813
104 1 -1.1104 1.08735 -0.0734346 12.1018
106 2 2.2208 5.2603 -1.53075 8.17119
107 2 2.2208 5.24814 4.06792 7.97573
108 1 -1.1104 1.08195 -0.16421 9.26675
110 1 -1.1104 4.05332 -2.94128 12.2861
111 1 -1.1104 3.83937 2.73872 12.1885
112 2 2.2208 2.33053 1.24624 7.87565
113 1 -1.1104 3.77501 -2.83815 9.41084
114 1 -1.1104 3.70874 2.69469 9.35337
115 2 2.2208 2.42497 -1.36872 10.7635
116 2 2.2208 2.37939 4.07474 10.7409
117 1 -1.1104 3.80912 -0.0577749 12.3126
118 1 -1.1104 4.01239 -0.0153562 9.46535
119 2 2.2208 5.2427 6.97461 10.7803
120 1 -1.1104 0.885041 8.24186 12.184
122 1 -1.1104 0.979894 8.25554 9.2595
124 1 -1.1104 0.982296 5.47758 12.2255
126 1 -1.1104 0.95132 5.4505 9.40688
128 1 -1.1104 3.9735 8.52523 12.0411
129 2 2.2208 2.44048 6.87374 7.90714
130 1 -1.1104 3.72358 8.28821 9.25436
131 1 -1.1104 3.80788 5.57851 12.2294
132 1 -1.1104 3.83717 5.4416 9.35769
102 1 -1.1104 6.61271 -2.72602 9.45566
105 1 -1.1104 6.57186 -0.0418926 12.2754
103 1 -1.1104 6.54876 2.9456 9.41076
127 1 -1.1104 6.69697 5.58969 9.40824
125 1 -1.1104 6.4742 5.5142 12.2603
158 1 -1.1104 12.1678 0.152484 12.3545
148 1 -1.1104 9.43377 5.69857 9.34182
121 1 -1.1104 6.69392 8.34281 12.1827
123 1 -1.1104 6.39109 8.45099 9.35345
109 1 -1.1104 6.68675 0.00277697 9.49059
42 2 2.2208 7.98725 -4.32739 7.9441
8654 2 2.2208 10.8093 -4.24048 5.31473
330 2 2.2208 2.26478 -1.4047 -0.301518
133 1 -1.1104 12.1043 8.30155 9.36553
8843 2 2.2208 2.58263 -4.21565 13.5477
140 1 -1.1104 12.2683 2.62209 6.53658
141 1 -1.1104 12.1576 -0.12592 6.74354
145 1 -1.1104 12.126 8.37149 6.70291
98 1 -1.1104 6.69383 -2.80946 12.2882
74 1 -1.1104 9.38229 8.21036 12.2003
151 1 -1.1104 9.18822 8.49301 9.3893
160 2 2.2208 10.8584 4.08946 7.96643
26 2 2.2208 13.5477 6.83509 7.98689
164 2 2.2208 8.02124 1.3492 8.09067
166 1 -1.1104 9.4514 2.89349 9.40064
150 1 -1.1104 9.31821 5.42495 12.1718
157 1 -1.1104 12.2782 2.6885 9.42136
163 1 -1.1104 9.39914 2.68291 12.2409
155 1 -1.1104 12.1019 2.93379 12.2443
78 2 2.2208 13.4923 4.22668 10.8465
41 2 2.2208 10.8011 -4.33694 10.9921
135 1 -1.1104 12.259 8.44929 12.1607
165 1 -1.1104 9.39242 -2.79007 9.50466
45 2 2.2208 13.6592 1.28451 8.08642
152 2 2.2208 8.01429 6.9673 7.97415
161 1 -1.1104 12.2774 -0.0721272 9.63142
171 2 2.2208 10.8269 7.11574 10.8818
154 1 -1.1104 12.3662 -3.10038 12.3421
79 1 -1.1104 12.2093 5.66269 12.3547
168 2 2.2208 8.05628 4.17078 10.805
162 1 -1.1104 9.51002 -2.83224 12.3683
153 2 2.2208 10.8362 1.4541 10.9443
75 1 -1.1104 12.1496 5.57137 9.54361
156 1 -1.1104 12.1282 -2.76946 9.5935
167 2 2.2208 8.03458 -1.42495 10.9387
159 2 2.2208 10.705 -1.48122 8.11577
169 1 -1.1104 9.42051 0.0157049 12.2351
170 1 -1.1104 9.45067 0.0611091 9.53155
8857 2 2.2208 -0.346702 4.1005 7.97313
178 2 2.2208 5.26494 6.75126 -0.358745
40 2 2.2208 -0.332801 -1.48945 2.41148
9009 2 2.2208 -0.324048 4.07188 2.39877
9007 2 2.2208 -0.334961 6.86811 5.16601
336 2 2.2208 8.03494 -1.48142 -0.353893
239 2 2.2208 5.2016 -1.54233 13.6522
175 2 2.2208 7.9077 6.85592 13.5637
289 2 2.2208 10.8348 -1.47149 13.5653
335 2 2.2208 8.12997 4.08502 -0.297677
179 2 2.2208 5.16361 1.36927 16.4206
180 1 -1.1104 0.832188 -2.93869 17.9596
181 1 -1.1104 0.986511 2.76002 17.8644
184 1 -1.1104 0.924358 -2.89151 15.1078
186 1 -1.1104 1.03171 2.73605 15.0936
192 1 -1.1104 1.077 -0.00338151 17.7786
194 2 2.2208 5.02082 -1.54205 19.2688
195 2 2.2208 5.08515 4.08895 19.2142
196 1 -1.1104 1.05391 -0.0788901 14.9412
200 1 -1.1104 3.60209 -2.91577 17.7181
201 1 -1.1104 3.72576 2.77788 17.8257
202 2 2.2208 2.43096 1.3281 19.2118
203 1 -1.1104 3.82371 -2.81048 15.0699
205 1 -1.1104 3.79533 2.75327 14.9461
207 2 2.2208 2.28774 -1.42718 16.4178
208 2 2.2208 2.38986 4.11725 16.3775
209 1 -1.1104 3.74296 -0.172263 17.8664
210 1 -1.1104 3.75327 0.0854613 15.0402
212 2 2.2208 5.03469 6.90564 16.355
213 1 -1.1104 0.991486 8.26021 18.0612
215 1 -1.1104 0.890779 8.32287 15.1544
219 1 -1.1104 0.993172 5.53584 17.7705
221 1 -1.1104 1.01732 5.49688 14.966
225 1 -1.1104 3.74415 8.39512 17.7984
226 2 2.2208 2.35614 6.88284 19.1929
229 1 -1.1104 3.67039 5.5963 17.652
230 1 -1.1104 3.70659 5.41987 14.9969
227 1 -1.1104 3.54568 8.24414 14.9753
217 1 -1.1104 6.33422 8.18786 14.8743
198 1 -1.1104 6.46986 -0.12254 15.0665
231 1 -1.1104 3.81133 5.57807 20.5947
224 1 -1.1104 6.49635 5.44375 20.6382
188 1 -1.1104 6.51657 -3.0024 15.0099
182 1 -1.1104 6.39071 -2.84075 17.9218
193 1 -1.1104 6.44691 -0.172908 17.89
191 1 -1.1104 6.51922 2.63925 20.7554
183 1 -1.1104 6.352 2.73263 17.8698
204 1 -1.1104 3.7745 -2.87496 20.6574
199 1 -1.1104 6.41454 -0.225434 20.6509
228 1 -1.1104 3.77688 8.23454 20.4892
189 1 -1.1104 6.52551 -2.88901 20.6887
214 1 -1.1104 6.59456 8.39104 17.7958
190 1 -1.1104 6.58993 2.793 15.2188
223 1 -1.1104 6.63421 5.44781 15.0909
220 1 -1.1104 6.3618 5.49029 17.8745
197 1 -1.1104 0.790056 -0.0859522 20.7522
222 1 -1.1104 0.900848 5.79088 20.6745
233 2 2.2208 13.5846 4.24809 22.0431
9023 2 2.2208 -0.323076 1.52173 27.6714
8841 2 2.2208 5.14794 -4.32976 16.361
353 2 2.2208 10.7735 -1.45633 24.9495
218 1 -1.1104 6.62304 8.18346 20.7257
282 2 2.2208 10.7063 -4.14796 16.6489
259 1 -1.1104 9.33564 -2.58528 20.7358
243 2 2.2208 10.726 1.48814 16.3683
244 1 -1.1104 12.1201 -2.64805 17.9003
245 1 -1.1104 12.1448 2.89928 17.9634
246 1 -1.1104 12.1148 -3.15403 15.1244
248 1 -1.1104 12.1819 2.72506 15.0304
250 1 -1.1104 12.1179 0.112629 17.9472
251 2 2.2208 10.6373 -1.23895 19.3613
252 2 2.2208 10.8945 4.30033 19.3869
253 1 -1.1104 12.152 -0.142993 15.0565
255 1 -1.1104 9.31122 -2.87046 18.0444
256 1 -1.1104 9.31748 2.87212 17.8336
257 2 2.2208 7.83881 1.36488 19.2805
258 1 -1.1104 9.33301 -2.85622 15.2043
260 1 -1.1104 9.33778 2.90085 15.0957
262 2 2.2208 8.01686 -1.47059 16.4999
263 2 2.2208 7.94855 4.21814 16.4987
264 1 -1.1104 9.26775 -0.00778291 17.9169
265 1 -1.1104 9.32059 -0.0724508 15.0413
267 2 2.2208 10.7686 6.89084 16.5106
268 1 -1.1104 12.2248 8.43359 17.724
269 1 -1.1104 11.9817 8.31356 15.033
271 1 -1.1104 12.207 5.68515 17.9637
272 1 -1.1104 12.2654 5.48512 15.1006
274 1 -1.1104 9.44435 8.28321 17.8068
275 2 2.2208 7.85813 6.90952 19.2903
276 1 -1.1104 9.2 8.49797 14.9515
278 1 -1.1104 9.29753 5.69567 17.8608
279 1 -1.1104 9.39719 5.69318 15.0424
266 1 -1.1104 9.29902 0.0490153 20.7409
254 1 -1.1104 12.2245 -0.0186487 20.7326
270 1 -1.1104 12.1358 8.45457 20.6578
249 1 -1.1104 12.2474 2.90552 20.6372
280 1 -1.1104 9.32109 5.61223 20.574
9183 2 2.2208 13.555 -1.41652 16.4049
273 1 -1.1104 12.3141 5.60671 20.6629
281 2 2.2208 13.6244 4.19944 16.4859
9078 2 2.2208 13.615 1.39722 19.2444
8845 2 2.2208 7.83966 -4.23373 19.293
8717 2 2.2208 13.614 -4.27339 24.9857
8848 2 2.2208 5.08719 -4.23841 22.1437
211 1 -1.1104 3.67519 0.0860047 20.7382
185 1 -1.1104 0.941398 -2.95332 20.6865
206 1 -1.1104 3.66777 2.8028 20.6523
187 1 -1.1104 0.967624 2.75262 20.6494
216 1 -1.1104 0.969804 8.52813 20.8562
350 1 -1.1104 12.2416 -2.93218 26.6139
283 2 2.2208 13.5673 7.04422 19.2397
323 1 -1.1104 6.67617 5.42388 26.2642
291 2 2.2208 5.02658 1.27255 22.1856
292 1 -1.1104 0.957704 -2.87508 23.4834
293 1 -1.1104 1.08872 3.02444 23.421
296 1 -1.1104 0.77982 -2.87776 26.2043
297 1 -1.1104 1.036 2.86192 26.3444
300 1 -1.1104 1.0228 0.0607555 23.5924
302 2 2.2208 5.21891 -1.49818 24.9282
303 2 2.2208 5.14373 4.11025 24.8536
304 1 -1.1104 1.0042 0.0302957 26.3412
306 1 -1.1104 3.71855 -2.84469 23.4347
307 1 -1.1104 3.81457 2.76393 23.3619
308 2 2.2208 2.35842 1.34297 24.8726
309 1 -1.1104 3.74154 -2.82288 26.2298
310 1 -1.1104 3.89543 2.68897 26.2846
311 2 2.2208 2.34698 -1.47137 22.0806
312 2 2.2208 2.35375 4.30271 21.9441
313 1 -1.1104 3.71125 -0.0841933 23.5889
314 1 -1.1104 3.77127 -0.031229 26.3429
315 2 2.2208 5.26202 6.92394 22.0086
320 1 -1.1104 1.04635 5.74657 23.4526
322 1 -1.1104 1.05689 6.0341 26.2263
324 1 -1.1104 3.90926 8.29361 23.3791
325 2 2.2208 2.55428 6.91375 24.7956
326 1 -1.1104 3.5572 8.27332 26.4184
327 1 -1.1104 3.79305 5.43945 23.4001
328 1 -1.1104 3.8262 5.56544 26.3335
319 1 -1.1104 6.283 8.31964 26.2631
305 1 -1.1104 6.60977 -0.240853 26.2353
294 1 -1.1104 6.49696 -2.78645 23.4472
298 1 -1.1104 6.60961 -2.8773 26.1505
295 1 -1.1104 6.3497 2.66183 23.6935
301 1 -1.1104 6.51283 -0.0292749 23.4784
8760 2 2.2208 10.7417 -4.19538 22.1611
337 2 2.2208 2.36458 -4.31056 24.8026
317 1 -1.1104 6.68396 8.37364 23.43
299 1 -1.1104 6.87429 2.7341 26.3711
351 1 -1.1104 12.2524 2.62496 26.2269
344 1 -1.1104 9.39637 5.56503 23.3533
247 1 -1.1104 12.1247 -2.92644 20.7157
277 1 -1.1104 9.32358 8.37608 20.4747
261 1 -1.1104 9.3114 2.77997 20.6919
342 1 -1.1104 12.2452 5.5318 23.5228
360 1 -1.1104 9.55006 2.58839 26.3529
354 2 2.2208 10.879 4.17353 24.8141
321 1 -1.1104 6.52365 5.58579 23.4591
331 2 2.2208 7.91371 4.13094 22.0532
356 1 -1.1104 9.51396 -2.80956 23.5246
333 2 2.2208 13.5891 -1.4583 27.6987
236 2 2.2208 13.5026 6.99974 24.9196
340 1 -1.1104 12.0727 5.4549 26.2929
237 1 -1.1104 12.1558 8.51403 26.2667
352 1 -1.1104 12.1143 -0.137326 23.3448
357 1 -1.1104 9.33271 2.73856 23.5103
286 2 2.2208 13.6078 -1.54348 22.1342
348 1 -1.1104 12.298 -2.95507 23.6335
177 2 2.2208 2.61658 4.07736 27.6842
334 2 2.2208 10.7898 6.94942 27.667
8844 2 2.2208 13.5622 -4.22049 19.2945
332 2 2.2208 7.99338 -1.36784 22.0705
318 1 -1.1104 9.36444 0.0382333 23.6456
339 1 -1.1104 9.45534 8.38472 23.3792
358 2 2.2208 8.05967 1.3955 25.0047
287 1 -1.1104 9.31612 -0.114899 26.3257
349 1 -1.1104 12.2102 2.70253 23.4354
355 1 -1.1104 12.0934 -0.151716 26.2539
288 2 2.2208 7.90861 1.37358 13.705
343 1 -1.1104 9.43025 5.52903 26.2842
240 1 -1.1104 12.2497 8.50201 23.485
346 2 2.2208 7.91809 7.07105 24.8875
347 2 2.2208 10.6752 1.29022 22.1334
359 1 -1.1104 9.49734 -2.91298 26.363
242 2 2.2208 10.823 6.98865 22.0348
345 1 -1.1104 9.38491 8.3749 26.3003
8847 2 2.2208 5.12526 -4.31797 27.6441
9053 2 2.2208 -0.35593 4.12008 24.776
285 2 2.2208 13.5891 1.25126 24.7299
290 2 2.2208 10.7707 4.22859 13.6818
9015 2 2.2208 13.6082 1.32818 13.6956
232 2 2.2208 13.6029 4.17427 27.5794
338 2 2.2208 10.7666 1.24779 27.6469
284 2 2.2208 7.99803 -4.22831 13.6784
176 2 2.2208 13.6093 7.01987 13.7141
329 2 2.2208 5.31075 1.26862 27.6595
361 2 2.2208 5.10412 12.4671 5.14816
363 1 -1.1104 0.904938 10.972 4.07469
366 2 2.2208 5.24795 9.64871 2.50704
368 2 2.2208 2.40068 9.72383 5.28461
369 1 -1.1104 3.93906 10.8843 1.09983
371 1 -1.1104 3.98913 10.63 4.07892
372 2 2.2208 5.12668 18.2218 5.11314
373 1 -1.1104 0.817805 13.8458 1.22067
375 1 -1.1104 1.19808 19.5499 0.976343
380 1 -1.1104 1.13213 19.1185 3.82943
382 1 -1.1104 0.915325 16.7981 1.47964
385 2 2.2208 5.15718 15.3769 2.3518
386 2 2.2208 5.20328 21.0689 2.36359
389 1 -1.1104 3.8301 14.0323 0.491104
391 1 -1.1104 3.9495 19.65 0.801323
393 2 2.2208 2.54701 18.2127 2.35876
394 1 -1.1104 3.98125 13.6752 3.60236
395 1 -1.1104 3.77376 19.7537 3.70023
397 2 2.2208 2.28419 20.9433 5.24519
398 1 -1.1104 3.75732 16.8436 1.07233
400 1 -1.1104 3.95701 16.831 3.6458
388 1 -1.1104 6.76738 16.7841 3.76062
414 1 -1.1104 6.55746 16.9829 0.991325
412 1 -1.1104 6.65838 19.6334 0.889624
392 1 -1.1104 3.8229 19.6024 6.42904
383 1 -1.1104 0.986799 16.8352 6.73564
457 1 -1.1104 0.958343 19.7516 6.57574
376 1 -1.1104 6.72983 14.218 1.21459
365 1 -1.1104 6.59528 11.1277 6.52147
378 1 -1.1104 6.59867 19.6383 6.79532
413 1 -1.1104 6.66756 19.6689 3.94697
364 1 -1.1104 6.79799 11.1827 1.13506
374 1 -1.1104 1.03328 13.5998 6.72498
478 2 2.2208 -0.3019 15.1793 8.08435
519 2 2.2208 2.57873 9.72653 -0.249424
367 1 -1.1104 6.78829 11.0271 3.84042
381 1 -1.1104 6.89272 13.7751 4.03479
499 2 2.2208 13.5395 21.0301 5.12849
402 2 2.2208 10.959 12.6764 5.2273
403 1 -1.1104 12.2996 11.288 0.998434
405 2 2.2208 10.9322 9.7259 2.41035
406 1 -1.1104 12.2779 11.1045 3.86886
407 2 2.2208 8.08571 12.5561 2.45358
408 2 2.2208 8.128 9.82657 5.18941
409 1 -1.1104 9.54789 10.911 1.0815
411 1 -1.1104 9.68252 11.0971 3.79922
415 2 2.2208 10.7328 18.2127 4.97855
416 1 -1.1104 12.1395 14.0412 1.07867
418 1 -1.1104 12.3638 19.7384 0.802506
420 1 -1.1104 12.2144 14.0942 3.77529
421 1 -1.1104 12.2776 19.6759 3.51444
422 1 -1.1104 12.2634 16.9258 1.01632
424 2 2.2208 10.7334 15.464 2.4229
425 2 2.2208 10.8733 20.9222 2.26708
426 1 -1.1104 12.226 16.7368 3.76857
427 1 -1.1104 9.38764 13.8973 0.928542
429 1 -1.1104 9.55649 19.5959 0.950467
431 2 2.2208 7.91401 18.2471 2.34269
432 1 -1.1104 9.71449 13.9581 3.73871
433 1 -1.1104 9.40359 19.5925 3.63794
434 2 2.2208 8.08504 15.3578 5.26543
435 2 2.2208 7.95618 20.9671 5.20863
436 1 -1.1104 9.46808 16.7469 1.02776
438 1 -1.1104 9.52237 16.7229 3.89317
514 2 2.2208 13.5625 18.321 13.5413
423 1 -1.1104 12.255 16.9482 6.56559
410 1 -1.1104 9.41703 11.2238 6.51427
417 1 -1.1104 12.2447 14.0539 6.62995
404 1 -1.1104 12.263 11.3237 6.72394
518 2 2.2208 2.14143 15.3957 -0.117335
524 2 2.2208 8.10023 9.81277 -0.256105
437 1 -1.1104 9.42928 16.6064 6.62805
482 2 2.2208 7.90295 15.5263 10.802
491 2 2.2208 7.98424 12.6519 7.90772
377 1 -1.1104 6.29881 13.9307 6.64904
384 1 -1.1104 6.60954 16.8286 6.68378
399 1 -1.1104 4.07081 16.7431 6.54301
370 1 -1.1104 1.10124 10.9244 6.83811
390 1 -1.1104 3.93367 11.4764 6.79853
401 2 2.2208 10.8003 18.2069 10.7674
444 1 -1.1104 6.59804 16.846 9.36158
441 1 -1.1104 3.67078 19.5039 12.1277
442 1 -1.1104 3.83918 13.9185 12.014
446 1 -1.1104 0.923642 19.564 9.28869
447 1 -1.1104 0.968831 16.7609 9.30003
448 2 2.2208 5.13746 20.9939 7.89751
449 1 -1.1104 0.889918 13.7908 9.45403
450 2 2.2208 5.32099 15.5139 7.99536
453 1 -1.1104 0.878762 19.6327 12.1668
454 1 -1.1104 0.889549 14.0546 12.2303
455 2 2.2208 5.14212 18.2792 10.7824
456 1 -1.1104 3.87774 19.5376 9.31309
458 2 2.2208 2.62758 18.0766 7.71376
459 1 -1.1104 3.77023 16.7295 9.46233
460 1 -1.1104 3.86996 14.0034 9.00714
462 1 -1.1104 1.04458 16.7229 12.2521
463 1 -1.1104 3.87261 16.7083 12.0937
464 2 2.2208 2.32126 21.0606 10.6637
465 2 2.2208 5.31815 12.4625 10.6698
466 1 -1.1104 0.932303 11.1361 12.3684
468 2 2.2208 2.40739 15.3051 10.7857
469 2 2.2208 5.23642 9.7654 7.89156
470 1 -1.1104 0.884201 11.0057 9.52495
472 2 2.2208 2.35298 12.4013 8.22651
473 2 2.2208 2.33557 9.57638 10.7623
474 1 -1.1104 3.78351 11.2823 12.2568
475 1 -1.1104 3.81867 11.077 9.44162
443 1 -1.1104 6.54616 19.5833 9.48172
461 1 -1.1104 6.58039 16.8295 12.1316
451 1 -1.1104 6.53052 19.7083 12.1959
452 1 -1.1104 6.58387 14.038 12.2422
445 1 -1.1104 6.57716 14.068 9.39284
471 1 -1.1104 6.71759 11.2048 9.20806
467 1 -1.1104 6.51706 11.0878 12.1574
507 2 2.2208 5.21214 21.0437 13.4975
573 2 2.2208 5.15738 15.3987 13.5228
575 2 2.2208 2.33901 18.1551 13.5657
574 2 2.2208 2.37871 12.6099 13.62
521 2 2.2208 13.5757 12.6529 13.647
430 1 -1.1104 9.49955 19.4936 6.51018
419 1 -1.1104 12.2576 19.6189 6.4078
428 1 -1.1104 9.49301 13.9011 6.54344
515 2 2.2208 8.00713 18.144 13.5596
489 2 2.2208 10.8075 21.0034 7.81911
483 1 -1.1104 9.51929 19.6259 9.30166
362 1 -1.1104 12.1994 11.057 9.49332
493 2 2.2208 10.9107 15.4441 7.97196
9345 2 2.2208 13.6082 18.2855 7.89076
500 2 2.2208 13.4732 9.86079 5.3786
497 1 -1.1104 12.138 13.9268 9.277
485 2 2.2208 7.99779 18.2791 8.00886
501 2 2.2208 13.6478 15.4359 5.24827
481 2 2.2208 8.1188 21.0372 10.8018
512 2 2.2208 10.6923 9.69757 13.574
496 1 -1.1104 12.0833 19.6341 9.3908
396 2 2.2208 10.6703 12.5008 10.7585
487 1 -1.1104 9.29379 13.9266 12.3167
484 1 -1.1104 9.28107 14.1407 9.30635
503 2 2.2208 13.5621 12.5765 8.08136
504 2 2.2208 13.6521 9.75379 10.8566
488 1 -1.1104 12.2322 16.7957 9.42494
498 2 2.2208 7.95214 9.69017 10.7105
495 1 -1.1104 9.20826 11.0426 12.1263
387 1 -1.1104 12.0966 11.2123 12.0974
486 1 -1.1104 9.43059 19.601 12.1878
494 1 -1.1104 12.2684 16.8842 12.1969
479 1 -1.1104 9.39764 16.8589 9.39919
379 2 2.2208 10.8675 9.80049 7.97486
440 1 -1.1104 12.0655 14.1591 12.0818
480 1 -1.1104 9.42958 16.8107 12.215
476 1 -1.1104 12.1918 19.7022 12.313
492 1 -1.1104 9.43593 11.0938 9.30963
490 2 2.2208 13.5907 15.4829 10.7522
477 2 2.2208 -0.28427 18.1705 10.7531
520 2 2.2208 5.24924 12.5146 -0.174979
502 2 2.2208 13.5593 21.0405 10.8132
517 2 2.2208 10.9202 15.3553 13.5874
525 2 2.2208 10.7918 18.0778 -0.329258
527 2 2.2208 5.09368 12.6676 16.3416
528 1 -1.1104 0.952726 11.0936 18.1161
530 2 2.2208 5.19154 9.64308 19.1783
531 1 -1.1104 1.07981 11.0418 15.2527
535 2 2.2208 2.46975 12.6711 19.258
536 2 2.2208 2.28634 9.64231 16.5317
537 1 -1.1104 3.63886 11.2233 17.7967
538 1 -1.1104 3.81029 11.034 15.0454
540 2 2.2208 5.25696 18.2183 16.31
541 1 -1.1104 1.15824 14.1314 17.8817
542 1 -1.1104 0.899721 19.6217 17.8603
545 1 -1.1104 1.00083 14.0506 15.0509
547 1 -1.1104 0.7689 19.6295 14.9238
553 1 -1.1104 0.932806 16.8752 17.9388
555 2 2.2208 5.19797 15.4418 19.1494
556 2 2.2208 5.17731 21.007 19.2428
557 1 -1.1104 1.02047 16.7822 15.0077
561 1 -1.1104 3.77108 14.0037 17.8845
562 1 -1.1104 3.61366 19.6082 17.8041
563 2 2.2208 2.42067 18.199 19.2585
564 1 -1.1104 3.68265 13.8979 14.9862
566 1 -1.1104 3.81629 19.4422 15.0301
568 2 2.2208 2.26323 15.4215 16.4673
569 2 2.2208 2.43256 20.9021 16.295
570 1 -1.1104 3.85462 16.8714 17.7867
571 1 -1.1104 3.92509 16.6755 15.0105
572 1 -1.1104 3.74943 16.7002 20.5808
546 1 -1.1104 1.03685 14.0047 20.6097
551 1 -1.1104 6.7254 19.4862 14.955
549 1 -1.1104 6.49153 14.0022 15.0885
558 1 -1.1104 1.03321 16.8931 20.6059
550 1 -1.1104 6.52813 13.7801 20.496
559 1 -1.1104 6.68471 16.6778 14.8934
539 1 -1.1104 3.82855 11.0808 20.4798
567 1 -1.1104 3.7815 19.5352 20.6507
548 1 -1.1104 0.926233 19.5248 20.7156
534 1 -1.1104 6.52423 10.9793 20.7914
544 1 -1.1104 6.59679 19.5455 17.7736
543 1 -1.1104 6.59316 14.0187 17.7163
560 1 -1.1104 6.5423 16.5775 20.6644
533 1 -1.1104 6.8155 11.1646 14.892
529 1 -1.1104 6.70674 11.2029 17.9737
552 1 -1.1104 6.52254 19.591 20.5194
554 1 -1.1104 6.61587 16.7949 17.7109
647 2 2.2208 13.5222 9.85422 16.4196
616 2 2.2208 13.6306 21.008 16.3071
617 2 2.2208 13.5325 18.3893 19.2131
580 2 2.2208 10.9353 12.6491 16.4502
581 1 -1.1104 12.3231 11.1622 17.7927
582 2 2.2208 10.7768 9.79849 19.1524
583 1 -1.1104 12.1341 11.2829 14.9689
585 2 2.2208 7.9942 12.52 19.2812
586 2 2.2208 8.14072 9.90694 16.407
587 1 -1.1104 9.58263 11.2904 17.805
588 1 -1.1104 9.58853 11.2391 15.0565
590 2 2.2208 10.6775 18.0591 16.4003
591 1 -1.1104 12.2456 14.0488 17.7705
592 1 -1.1104 12.1302 19.6394 17.7135
593 1 -1.1104 12.2281 14.065 14.9796
595 1 -1.1104 12.2275 19.5699 15.1325
597 1 -1.1104 12.1291 16.8211 17.8393
598 2 2.2208 10.8255 15.3925 19.2459
599 2 2.2208 10.7131 20.9336 19.1843
600 1 -1.1104 12.1454 16.8033 15.066
602 1 -1.1104 9.48285 13.9126 17.7639
603 1 -1.1104 9.4741 19.5422 17.7592
604 2 2.2208 7.98542 18.165 19.276
605 1 -1.1104 9.47255 13.9448 15.0433
607 1 -1.1104 9.45553 19.5551 15.0587
609 2 2.2208 8.02222 15.3378 16.3686
610 2 2.2208 7.95221 20.9266 16.3304
611 1 -1.1104 9.38157 16.7919 17.875
612 1 -1.1104 9.43393 16.6922 14.9472
584 1 -1.1104 12.1341 11.1895 20.5702
613 1 -1.1104 9.45197 16.7561 20.5213
601 1 -1.1104 12.3388 16.8515 20.5568
596 1 -1.1104 12.0722 19.5414 20.6073
589 1 -1.1104 9.16883 11.0741 20.5804
653 2 2.2208 -0.284543 20.9386 24.8418
615 2 2.2208 13.6645 12.7323 19.2255
594 1 -1.1104 12.1667 13.9294 20.7167
316 1 -1.1104 1.1383 8.63943 23.9596
675 2 2.2208 7.99011 9.74148 22.0004
663 1 -1.1104 6.70698 19.6285 26.08
624 1 -1.1104 6.6317 19.7069 23.4551
532 1 -1.1104 0.845933 11.1909 21.1977
565 1 -1.1104 3.80835 13.8928 20.8747
618 1 -1.1104 3.7201 19.5733 23.4086
621 1 -1.1104 1.22873 19.5221 26.2341
622 1 -1.1104 0.889942 16.6932 26.5227
623 1 -1.1104 0.847347 14.0557 26.5286
625 2 2.2208 5.14357 20.9819 24.7377
627 1 -1.1104 0.980683 19.424 23.3664
628 1 -1.1104 1.01253 13.97 23.5013
629 2 2.2208 5.11597 18.1147 22.1102
630 1 -1.1104 3.95981 19.5586 26.1592
631 2 2.2208 2.45201 18.0249 24.8551
632 1 -1.1104 3.47638 16.7711 26.481
634 1 -1.1104 0.993232 16.7487 23.5577
635 1 -1.1104 3.68555 16.662 23.2087
636 2 2.2208 2.39257 20.9768 22.053
637 2 2.2208 5.24896 12.4653 22.0868
639 2 2.2208 2.31348 15.3465 22.0914
640 2 2.2208 5.15616 9.86912 24.8928
642 2 2.2208 2.49396 9.7405 22.0073
643 1 -1.1104 3.78143 10.9419 23.2858
644 1 -1.1104 3.91175 11.1818 26.4198
576 1 -1.1104 0.851932 10.698 26.809
645 2 2.2208 2.47849 21.0657 27.457
646 2 2.2208 5.18255 18.1072 27.5064
641 1 -1.1104 6.71378 11.0803 26.5099
648 2 2.2208 13.5927 15.4632 16.4855
619 1 -1.1104 6.7035 13.87 26.5579
626 1 -1.1104 6.57363 13.7668 23.3546
608 1 -1.1104 9.37729 19.3701 20.5699
606 1 -1.1104 9.38779 13.846 20.6514
638 1 -1.1104 6.42417 11.0836 23.528
633 1 -1.1104 6.78543 16.96 23.292
671 1 -1.1104 12.2566 16.7567 23.4027
620 1 -1.1104 6.87067 16.8376 26.2886
658 1 -1.1104 9.46397 16.7551 23.4748
674 1 -1.1104 9.33999 11.1694 23.6064
681 1 -1.1104 12.0994 11.2018 23.3778
676 2 2.2208 7.89406 12.6462 24.9119
577 2 2.2208 13.5617 9.89903 21.9855
651 2 2.2208 -0.257768 15.3409 24.9363
660 2 2.2208 7.9619 15.3097 22.1079
668 1 -1.1104 9.5196 11.1497 26.4422
666 1 -1.1104 9.33278 13.8777 23.4287
649 2 2.2208 8.00118 20.8824 27.4054
661 1 -1.1104 9.49761 19.5868 26.1987
667 1 -1.1104 12.3643 16.8282 26.2668
523 2 2.2208 10.8594 12.6023 27.6905
682 2 2.2208 10.6732 9.82418 24.9037
657 1 -1.1104 9.56988 16.8388 26.2423
654 2 2.2208 13.5205 12.5867 24.9028
522 2 2.2208 7.88687 15.4494 27.674
678 1 -1.1104 12.0723 13.9241 23.4882
680 2 2.2208 10.6556 12.5197 22.0402
665 1 -1.1104 9.42517 19.5476 23.4043
672 1 -1.1104 12.2718 19.5934 26.1957
670 2 2.2208 10.7707 15.3071 24.8626
664 2 2.2208 7.99743 18.1428 24.7753
679 2 2.2208 10.7998 18.2326 22.0341
677 1 -1.1104 12.2849 19.5595 23.3122
659 2 2.2208 7.97222 20.8918 22.0217
652 2 2.2208 13.446 15.3081 22.1595
673 1 -1.1104 12.3027 14.0298 26.2601
655 1 -1.1104 12.2584 11.2379 26.1981
662 1 -1.1104 9.46572 14.0484 26.2064
669 2 2.2208 10.8862 20.9409 24.8781
9399 2 2.2208 13.666 18.168 24.7776
9395 2 2.2208 -0.348888 12.795 22.0565
509 2 2.2208 8.09689 12.6119 13.7041
516 2 2.2208 10.795 20.876 13.7178
508 2 2.2208 5.23551 9.78095 13.683
683 2 2.2208 5.14552 23.8257 5.08966
684 2 2.2208 5.27347 29.3612 5.15653
685 1 -1.1104 0.91792 25.1229 0.979977
686 1 -1.1104 0.905337 25.1193 3.81353
687 1 -1.1104 0.951059 22.3896 0.921834
688 1 -1.1104 0.985241 27.972 1.05054
689 2 2.2208 5.26449 26.6013 2.29379
690 1 -1.1104 0.864067 22.2285 3.69656
691 1 -1.1104 1.00741 28.0191 3.81145
692 1 -1.1104 3.80825 25.2116 1.08751
693 2 2.2208 2.35192 23.774 2.40518
694 2 2.2208 2.44568 29.2308 2.39896
695 1 -1.1104 3.76452 25.1566 3.79657
696 2 2.2208 2.34742 26.6725 5.17025
697 1 -1.1104 3.80821 22.5027 1.0476
698 1 -1.1104 3.81617 27.8536 0.854512
699 1 -1.1104 3.6991 22.3803 3.78928
700 1 -1.1104 3.82012 28.0192 3.80058
701 1 -1.1104 0.917825 30.9509 1.02356
702 1 -1.1104 0.988267 30.6697 3.74464
703 1 -1.1104 1.1406 33.8078 1.03982
704 2 2.2208 5.1561 32.1045 2.46914
705 1 -1.1104 0.967332 33.5873 3.66792
707 1 -1.1104 3.87778 30.6501 1.09477
708 1 -1.1104 3.82234 30.7793 3.93
709 2 2.2208 2.48005 32.2146 5.13044
710 1 -1.1104 3.96274 33.4352 0.953507
711 1 -1.1104 3.75689 33.5917 3.74943
719 1 -1.1104 6.529 27.9557 0.888376
717 1 -1.1104 6.62199 25.1739 3.69312
740 1 -1.1104 6.67861 30.7781 0.836594
721 1 -1.1104 6.69132 28.0132 3.6462
720 1 -1.1104 6.54396 22.5289 3.8193
767 1 -1.1104 0.835004 33.6738 6.57021
718 1 -1.1104 6.48145 22.5072 0.837926
758 1 -1.1104 0.8597 22.3498 6.5968
706 1 -1.1104 6.70513 33.6177 3.89784
741 1 -1.1104 6.60709 30.6344 3.70345
769 1 -1.1104 4.0516 30.7127 6.6801
765 1 -1.1104 1.08115 30.829 6.57854
770 1 -1.1104 3.67738 33.6389 6.4834
756 1 -1.1104 0.997934 25.058 6.57917
742 1 -1.1104 6.70948 33.4226 1.16016
768 1 -1.1104 6.56092 33.6755 6.62702
759 1 -1.1104 0.943363 28.0473 6.66876
764 1 -1.1104 3.82673 28.1082 6.49606
762 1 -1.1104 3.7376 25.165 6.56419
757 1 -1.1104 6.60139 25.3244 6.56673
766 1 -1.1104 6.81704 30.7578 6.59278
716 1 -1.1104 6.61198 25.1416 0.899673
760 1 -1.1104 6.59077 22.2654 6.61702
722 2 2.2208 10.7245 23.7434 5.04824
723 2 2.2208 10.8756 29.2962 5.03041
724 1 -1.1104 12.2992 25.1698 0.887828
725 1 -1.1104 12.3013 25.1662 3.81205
726 1 -1.1104 12.1957 22.4702 1.2281
727 1 -1.1104 12.4094 28.0375 0.848009
728 2 2.2208 10.8977 26.5014 2.35176
729 1 -1.1104 12.1683 22.3422 3.84105
730 1 -1.1104 12.4277 27.8427 3.66466
731 1 -1.1104 9.50229 25.1496 0.93231
732 2 2.2208 7.90863 23.709 2.21302
733 2 2.2208 7.98165 29.2819 2.36059
734 1 -1.1104 9.40228 25.1977 3.63877
735 2 2.2208 8.06661 26.5982 5.12144
736 1 -1.1104 9.378 22.3841 0.849496
737 1 -1.1104 9.44083 28.0131 1.05478
738 1 -1.1104 9.27476 22.3412 3.69956
739 1 -1.1104 9.40363 27.9249 3.77682
743 1 -1.1104 12.3968 30.7829 0.826611
744 1 -1.1104 12.2461 30.8239 3.72257
745 1 -1.1104 12.182 33.5835 0.961101
746 2 2.2208 11.0481 32.1019 2.32919
747 1 -1.1104 12.3011 33.5863 3.77006
748 1 -1.1104 9.55699 30.8424 0.852965
749 1 -1.1104 9.39711 30.7148 3.70908
750 2 2.2208 8.14974 32.1516 5.00912
751 1 -1.1104 9.46264 33.5889 0.99246
752 1 -1.1104 9.58814 33.6186 3.81821
915 2 2.2208 5.21313 32.1663 13.4475
815 1 -1.1104 12.2607 30.8525 6.58886
810 1 -1.1104 12.2648 22.3843 6.54742
814 1 -1.1104 9.47514 27.9539 6.56065
813 1 -1.1104 9.34906 22.4722 6.40966
818 1 -1.1104 9.40857 33.6338 6.56019
9728 2 2.2208 13.5858 29.4179 13.4737
811 1 -1.1104 12.1753 28.0039 6.443
857 2 2.2208 2.36323 32.151 -0.285751
9676 2 2.2208 13.5977 26.4049 5.22541
816 1 -1.1104 12.4607 33.5891 6.58126
852 2 2.2208 8.04369 23.7754 13.5338
761 1 -1.1104 6.68503 28.1056 6.59381
763 1 -1.1104 3.73168 22.3158 6.69162
851 2 2.2208 7.98305 29.5013 13.6093
771 2 2.2208 5.1751 23.8095 10.7001
772 2 2.2208 5.16295 29.3932 10.8119
773 1 -1.1104 0.979858 25.2183 12.2292
775 1 -1.1104 0.813256 25.2303 9.36608
777 1 -1.1104 1.13268 22.4074 12.2982
778 1 -1.1104 0.874753 27.8662 12.2723
781 2 2.2208 5.225 26.6435 8.05841
782 1 -1.1104 1.0442 22.5148 9.34377
783 1 -1.1104 0.911674 28.0127 9.53198
786 1 -1.1104 3.7337 25.1779 12.2783
787 2 2.2208 2.30512 23.7651 7.9612