LAMMPS data file via write_data, version 29 Oct 2020, timestep = 100000

18000 atoms
4 atom types

-0.3530052521134669 27.69300525211388 xlo xhi
-4.274751030549292 332.3547510305566 ylo yhi
-0.36507874784795563 27.705078747847597 zlo zhi

Masses

1 15.9994
2 232.0381
3 232.0381
4 15.9994

Atoms # full

1 0 2 2.2208 5.5024199734772585 1.307815477414014 5.2393987261289965 0 0 0
2 0 2 2.2208 5.390261646946483 6.969335194373372 5.258794456355032 0 0 0
3 0 1 -1.1104 1.133480280898308 -3.038695995065961 1.0053547657593116 0 0 0
5 0 1 -1.1104 1.2423636670928278 2.7221790926577536 1.042531637884917 0 0 0
7 0 1 -1.1104 0.927785361309121 8.317595424968042 1.0376551187175371 0 0 0
15 0 1 -1.1104 0.9234212828520089 -2.864629051994384 3.799943791897368 0 0 0
16 0 1 -1.1104 1.3082618108927744 2.8466066996941946 3.6561930664069453 0 0 0
17 0 1 -1.1104 1.0074069384295863 8.271779449364542 3.7976250627366515 0 0 0
21 0 2 2.2208 5.2314692176704485 -1.6186157178085736 2.398579882365736 0 0 0
22 0 2 2.2208 5.387094974641763 3.9951353946933983 2.444324641138295 0 0 0
23 0 1 -1.1104 1.1080061844178275 -0.20156667509991485 0.9953535702224204 0 0 0
25 0 1 -1.1104 1.076623238813784 5.6130736355222375 0.9920913972949705 0 0 0
31 0 1 -1.1104 1.1721560364739214 -0.1367278159475087 3.795829256429021 0 0 0
32 0 1 -1.1104 1.2532386836686749 5.494988224427866 3.7632071237461293 0 0 0
35 0 2 2.2208 2.579576011110439 1.2422422328437803 2.3613790271978994 0 0 0
36 0 2 2.2208 2.4154468520962022 6.8657220297833526 2.4336419114937016 0 0 0
37 0 1 -1.1104 3.8937241001038525 -2.927412310605231 0.9560929561978507 0 0 0
39 0 1 -1.1104 4.022321291524908 2.7273962719542895 0.9495454942708232 0 0 0
41 0 1 -1.1104 3.930410318477227 8.226193772365141 1.1125881730145937 0 0 0
43 0 1 -1.1104 3.7906759226711237 -2.886184802792529 3.782895853236051 0 0 0
44 0 1 -1.1104 3.9864319378922484 2.541737903035152 3.781911152738749 0 0 0
45 0 1 -1.1104 3.8054243608429648 8.276274857107369 3.8443518231023486 0 0 0
46 0 2 2.2208 2.540789860369037 -1.5090682805851918 5.29393236570561 0 0 0
47 0 2 2.2208 2.544680619619513 4.047533743044752 5.225472783989514 0 0 0
48 0 1 -1.1104 3.927020447651706 -0.10555753249754213 1.0636533942716804 0 0 0
50 0 1 -1.1104 3.851686153385516 5.575532276544588 1.0236140788822365 0 0 0
52 0 1 -1.1104 4.046768643744341 -0.1981231035861619 3.883129083912017 0 0 0
53 0 1 -1.1104 4.006871247399407 5.504033555928977 3.82655530701829 0 0 0
13 0 1 -1.1104 6.73276452497558 8.121196683336466 1.253649429149558 0 0 0
62 0 2 2.2208 -0.17959688099663168 1.2929185315036604 5.218105238208629 0 0 0
49 0 1 -1.1104 3.932571867851324 -0.13065184898143353 6.7220367273841495 0 0 0
14 0 1 -1.1104 6.843302811144524 8.305428828878396 6.5675545827067054 0 0 0
8 0 1 -1.1104 1.1036869455554696 8.22366593877231 6.70319417478341 0 0 0
40 0 1 -1.1104 3.9741759610208507 2.8245435089063307 6.653488826954946 0 0 0
59 0 2 2.2208 -0.17656563062551353 4.207350833336029 2.388477366697828 0 0 0
171 0 2 2.2208 -0.3169712546263135 -1.4172585526586872 13.631628586470024 0 0 0
20 0 1 -1.1104 6.7226504235253355 8.36584189075489 3.8528489087751323 0 0 0
60 0 2 2.2208 -0.2942454328121982 -1.4715076109256413 2.451642908362918 0 0 0
61 0 2 2.2208 -0.3266745058049047 6.826213446945092 5.239292098687877 0 0 0
38 0 1 -1.1104 3.9905204316574823 -2.9360593400201793 6.781557956993259 0 0 0
113 0 2 2.2208 13.650317587319936 -1.6500205550808265 5.215927475096881 0 0 0
212 0 2 2.2208 8.210285146177915 -4.271750873071767 8.077779364165163 0 0 0
34 0 1 -1.1104 6.803788070799164 5.375573833222032 3.841499603098531 0 0 0
33 0 1 -1.1104 6.786324288402738 -0.1874134207835911 3.9335197512878626 0 0 0
18 0 1 -1.1104 6.694895781815978 -2.921748768316035 4.040750326757408 0 0 0
27 0 1 -1.1104 6.756241762917693 -0.2721855020310072 1.0014151416507424 0 0 0
9 0 1 -1.1104 6.522756970816454 -2.953463387358955 1.0649508733441206 0 0 0
11 0 1 -1.1104 6.790353224473446 2.4991750580054015 0.9462428116146363 0 0 0
29 0 1 -1.1104 6.83849728397959 5.291531608019103 1.0948735841382689 0 0 0
19 0 1 -1.1104 6.839111747981968 2.6689132187330804 3.822191452216371 0 0 0
108 0 2 2.2208 8.073555209878329 -1.4364371614535465 -0.26641022585016294 0 0 0
69 0 2 2.2208 10.95365122252933 1.1984818014124423 5.277577599734572 0 0 0
70 0 2 2.2208 10.980617887263747 6.81619481780814 5.268059711579225 0 0 0
71 0 1 -1.1104 12.12556922561469 -2.9772235288732123 0.9663832897688318 0 0 0
73 0 1 -1.1104 12.442298781760952 2.5295806049568346 1.0623987215294581 0 0 0
75 0 1 -1.1104 12.321823698812837 8.158056832988054 1.239469122685972 0 0 0
77 0 1 -1.1104 12.376890236823511 -2.9199586353551847 3.748970242836593 0 0 0
78 0 1 -1.1104 12.26625538219023 2.6513783968440015 3.8144388444732504 0 0 0
79 0 1 -1.1104 12.179717252081522 8.31322623336287 4.076550791543315 0 0 0
80 0 2 2.2208 11.015903785368446 -1.5424392363996051 2.3685165884885837 0 0 0
81 0 2 2.2208 10.977975947042076 3.9639489495789757 2.516986353981196 0 0 0
82 0 1 -1.1104 12.408292750692738 -0.16379495781951975 0.9024114866746249 0 0 0
84 0 1 -1.1104 12.464531695961306 5.387351085385199 1.1363243885062655 0 0 0
86 0 1 -1.1104 12.42347436371308 -0.2448324927189283 3.728993939257834 0 0 0
87 0 1 -1.1104 12.385702722551377 5.530836063762603 3.8839284125815126 0 0 0
88 0 2 2.2208 8.089066244361883 1.1934546369275636 2.4707247746967353 0 0 0
89 0 2 2.2208 8.248134928042296 6.709381505734889 2.446040283700411 0 0 0
90 0 1 -1.1104 9.406520673872436 -2.8802284636905373 1.0925689860631207 0 0 0
92 0 1 -1.1104 9.656552934458018 2.685145077184416 1.1544438105253696 0 0 0
94 0 1 -1.1104 9.409427253362924 8.172727950314561 0.9797076600311906 0 0 0
96 0 1 -1.1104 9.473891769356795 -2.9952974609773424 3.911897119623836 0 0 0
97 0 1 -1.1104 9.506688908953125 2.5521244438507518 3.995350616840007 0 0 0
98 0 1 -1.1104 9.505115530833962 8.238611944542605 3.8949460743396216 0 0 0
99 0 2 2.2208 8.22166410965988 -1.4688270721981727 5.414873102340779 0 0 0
100 0 2 2.2208 8.173475994521123 4.140429820458336 5.271736156514301 0 0 0
101 0 1 -1.1104 9.52646124728873 -0.05405021637087343 1.0161419980614823 0 0 0
103 0 1 -1.1104 9.635702847708325 5.389218792494961 1.1469143345115835 0 0 0
105 0 1 -1.1104 9.555588211055996 -0.1430024592147928 3.9745548622019746 0 0 0
106 0 1 -1.1104 9.636578895677923 5.430818151576337 3.88839523130627 0 0 0
83 0 1 -1.1104 12.411446956917125 -0.31070400488488165 6.59711360061598 0 0 0
179 0 1 -1.1104 12.19314275658453 5.447899572987207 9.542653808237668 0 0 0
170 0 2 2.2208 -0.24004741940295204 -4.2621265245275595 10.822041131995768 0 0 0
10 0 1 -1.1104 6.689562408908528 -2.8873727362234254 6.763485138029368 0 0 0
76 0 1 -1.1104 12.278787971715856 8.20411555602966 6.678805567565341 0 0 0
95 0 1 -1.1104 9.557962045035739 8.254034723615272 6.6726503549956675 0 0 0
12 0 1 -1.1104 6.803831965327653 2.741295639760774 6.651753133324282 0 0 0
72 0 1 -1.1104 12.3257194761252 -2.9715597396616618 6.548551458132116 0 0 0
85 0 1 -1.1104 12.35056912468094 5.398631073542898 6.752712206195717 0 0 0
74 0 1 -1.1104 12.236513364668438 2.624567696092736 6.774156978502456 0 0 0
109 0 2 2.2208 10.863766374342385 6.839600515293051 -0.15480217100779653 0 0 0
107 0 2 2.2208 8.193046296663962 3.955209241678164 -0.22236510415575325 0 0 0
51 0 1 -1.1104 3.978257186617851 5.66199421652758 6.693528084671458 0 0 0
42 0 1 -1.1104 3.954545008928286 8.434109529161054 6.72850596989032 0 0 0
6 0 1 -1.1104 1.167358774081169 2.6562104308790424 6.694164137314026 0 0 0
4 0 1 -1.1104 1.1347518511092705 -2.946639391266805 6.605263975967759 0 0 0
26 0 1 -1.1104 1.1212820068519984 5.3865050101037095 6.536464274145014 0 0 0
169 0 2 2.2208 5.482676300404396 -4.238773667145722 10.82361122169429 0 0 0
163 0 2 2.2208 -0.2585584228912009 4.119923691857349 8.00070202445622 0 0 0
30 0 1 -1.1104 6.693131222516007 5.474889335838316 6.628122720866605 0 0 0
191 0 2 2.2208 10.856382966090788 4.081204528918206 8.173525488240069 0 0 0
164 0 2 2.2208 -0.29824455368850933 -1.4997213912621703 8.002473804022959 0 0 0
24 0 1 -1.1104 1.2328740295480958 0.013892115784642488 6.664677179217817 0 0 0
121 0 1 -1.1104 3.8190235149491962 5.307570436349652 9.515699579768604 0 0 0
122 0 2 2.2208 5.348189768090292 1.34647273700001 10.864068377261413 0 0 0
123 0 2 2.2208 5.242832480022174 7.036717754185926 10.831166976489847 0 0 0
124 0 1 -1.1104 1.143027981725615 -2.904550135595188 12.268305922325863 0 0 0
125 0 1 -1.1104 1.100621948926729 2.7240827054805963 12.31250372035062 0 0 0
130 0 1 -1.1104 1.3929345258436405 -2.6941529884367927 9.414255886324556 0 0 0
131 0 1 -1.1104 1.1585090480289228 2.661492292525179 9.598714674694898 0 0 0
132 0 1 -1.1104 0.9980315260393526 8.324039925960982 9.471909108983033 0 0 0
136 0 2 2.2208 5.247198509754679 -1.5248321206159872 8.159333252671969 0 0 0
137 0 2 2.2208 5.274560433114125 4.264505667107499 8.018569568105372 0 0 0
138 0 1 -1.1104 1.0896287264298097 -0.1944287606157734 12.158350663714538 0 0 0
139 0 1 -1.1104 1.037832095613255 5.570977661432629 12.2181152386826 0 0 0
142 0 1 -1.1104 1.0990410736729355 -0.012671407505523336 9.444391852942989 0 0 0
143 0 1 -1.1104 1.2138170090068203 5.525506607847484 9.418083629107464 0 0 0
146 0 2 2.2208 2.5634114127978047 1.2402637419422027 8.22733764649773 0 0 0
147 0 2 2.2208 2.4480094731560884 7.008550776068357 8.13204836584539 0 0 0
148 0 1 -1.1104 4.007640890755699 -2.8623837217960504 12.283433478598942 0 0 0
149 0 1 -1.1104 3.826446048702734 2.808077843504913 12.202516529012014 0 0 0
150 0 1 -1.1104 3.8497784278433156 8.374919923835163 12.418820309918683 0 0 0
151 0 1 -1.1104 4.054334685625639 -2.9232367256826794 9.572860765987627 0 0 0
152 0 1 -1.1104 3.9729146922980214 2.5212514262490786 9.408346122827256 0 0 0
153 0 1 -1.1104 3.7934516093642148 8.293347914557515 9.58566120902291 0 0 0
154 0 2 2.2208 2.4708984249938992 -1.481059339407179 10.896934164793208 0 0 0
155 0 2 2.2208 2.441994222366122 4.178427446591498 10.924388289854445 0 0 0
156 0 1 -1.1104 3.955873212014516 -0.03746540030631488 12.321060318112885 0 0 0
157 0 1 -1.1104 3.874988866827025 5.725934058780798 12.267695010232938 0 0 0
158 0 1 -1.1104 3.8168171882513873 -0.13049351860424313 9.61223982750066 0 0 0
144 0 1 -1.1104 6.692819206963475 -0.016914517875165343 9.49443173754383 0 0 0
166 0 2 2.2208 -0.3476105354295632 4.1215948598448415 13.630487032626144 0 0 0
161 0 2 2.2208 2.6164503859836867 1.3023199224445032 13.562780213481723 0 0 0
28 0 1 -1.1104 6.810079878575217 -0.08977251395806352 6.770724138376579 0 0 0
102 0 1 -1.1104 9.458166488142448 0.012386230676805988 6.704811405763976 0 0 0
104 0 1 -1.1104 9.54820272351213 5.53424496228753 6.71339474616629 0 0 0
93 0 1 -1.1104 9.545035039970136 2.7051995144365244 6.842064528434578 0 0 0
194 0 1 -1.1104 9.428076805314037 8.18068507299596 12.292300926103303 0 0 0
209 0 2 2.2208 13.602458700647686 3.9453686255834692 11.051101036103208 0 0 0
145 0 1 -1.1104 6.620761398503137 5.519641276116268 9.456784261011322 0 0 0
140 0 1 -1.1104 6.662729104744876 -0.041004094233202 12.351453272618025 0 0 0
133 0 1 -1.1104 6.787694641728202 -2.8401848468346786 9.539443921667349 0 0 0
128 0 1 -1.1104 6.657796277620774 2.653837566213528 12.171606365454133 0 0 0
135 0 1 -1.1104 6.6412130355711465 8.232397834657858 9.375635166948651 0 0 0
129 0 1 -1.1104 6.727686965571248 8.285061493782024 12.227742702011765 0 0 0
91 0 1 -1.1104 9.607633906001425 -2.7732001980272845 6.666393480196661 0 0 0
177 0 2 2.2208 8.137862986921334 -1.3223760035292 10.919753467462488 0 0 0
175 0 1 -1.1104 9.55382840779768 -0.1612474470779533 12.339466547284726 0 0 0
184 0 1 -1.1104 12.395004471289264 -0.21803060995811202 9.41060738673052 0 0 0
182 0 1 -1.1104 9.509204641143299 8.291240926933936 9.507161720011288 0 0 0
181 0 1 -1.1104 12.364322751263066 8.222678138691686 12.221013905279241 0 0 0
196 0 2 2.2208 10.99118517507526 -1.5658666636455771 8.126502546392636 0 0 0
134 0 1 -1.1104 6.737509583990708 2.8741168277828804 9.285481021577908 0 0 0
141 0 1 -1.1104 6.708476985612309 5.462104092139222 12.286341455892337 0 0 0
178 0 2 2.2208 8.015368701466077 1.2919910137837567 8.091017288698126 0 0 0
127 0 1 -1.1104 6.8536363535238065 -2.852913804539204 12.107849476461178 0 0 0
172 0 1 -1.1104 9.407342605749603 5.6217072828910295 9.678939203266006 0 0 0
180 0 1 -1.1104 12.36290573819249 -2.9927182083216417 9.449164484366072 0 0 0
207 0 2 2.2208 13.625796728496827 6.878881314205633 8.158170923719068 0 0 0
176 0 2 2.2208 8.110121916426305 4.148913990746243 10.884371460176473 0 0 0
199 0 1 -1.1104 12.261195316673879 8.247741706022916 9.362870952732994 0 0 0
190 0 2 2.2208 10.880749899271366 1.2447589672295496 10.82097774010546 0 0 0
183 0 1 -1.1104 9.544525883260189 2.8109281320236246 9.605342736388016 0 0 0
168 0 2 2.2208 2.67157210285436 -4.242532861514746 8.14919772106705 0 0 0
173 0 1 -1.1104 9.422379055481445 -0.004785752737927059 9.458812071380121 0 0 0
185 0 1 -1.1104 12.221702722095198 2.6190114978005163 12.365119886976272 0 0 0
195 0 1 -1.1104 9.312229808635157 2.7344178427158643 12.445246966058685 0 0 0
189 0 2 2.2208 10.874508363784509 6.850141078757999 10.89734107943558 0 0 0
187 0 1 -1.1104 12.212717640251748 5.525496268993255 12.295233063347807 0 0 0
198 0 2 2.2208 8.098509109709099 6.849609631492157 8.116041817281744 0 0 0
186 0 1 -1.1104 12.448246987308472 -2.9658394991714614 12.139592238961628 0 0 0
192 0 1 -1.1104 12.42903168186813 2.6100507449954704 9.47668290656446 0 0 0
188 0 1 -1.1104 12.333050065590784 -0.13956760285752648 12.137926378774322 0 0 0
197 0 1 -1.1104 9.68893423030745 -2.9757671596038096 12.396800783331523 0 0 0
193 0 1 -1.1104 9.54414648253405 -2.780035576251355 9.498046283490527 0 0 0
174 0 1 -1.1104 9.512165411380442 5.472779812124925 12.326656580745137 0 0 0
126 0 1 -1.1104 0.9208188950273527 8.386601961708426 12.116267467826145 0 0 0
160 0 2 2.2208 5.256174938680527 4.112631818369672 13.484814459421754 0 0 0
159 0 2 2.2208 5.288147929432485 -1.5061023649440302 13.634881999684216 0 0 0
203 0 2 2.2208 8.013623704229195 6.825464351142198 13.609966984598046 0 0 0
56 0 2 2.2208 5.341862804960557 6.842723968146833 -0.22679693406337265 0 0 0
57 0 2 2.2208 5.306038275847186 1.191721377930669 -0.3647680122928243 0 0 0
110 0 2 2.2208 11.027407293003261 1.236614555284469 -0.3084357140563796 0 0 0
214 0 2 2.2208 5.356219265686721 1.4216790084708273 16.420384393098367 0 0 0
215 0 2 2.2208 5.304972694466375 7.1301132190525935 16.516202612988454 0 0 0
216 0 1 -1.1104 1.2345555150288123 -2.920480298562772 17.902349329401275 0 0 0
217 0 1 -1.1104 1.1449837143303485 2.566790662200854 17.936173334477317 0 0 0
218 0 1 -1.1104 1.1363725438679977 8.239999797266659 17.98205580199789 0 0 0
222 0 1 -1.1104 1.0692911469497566 -2.885777214715881 14.983959457616802 0 0 0
223 0 1 -1.1104 1.206299131191476 2.666037920408062 15.101543661793395 0 0 0
224 0 1 -1.1104 1.034643901694741 8.287290166012633 15.015027257061945 0 0 0
228 0 2 2.2208 5.210825417071525 -1.5218591531655092 19.290270664594956 0 0 0
229 0 2 2.2208 5.275073155590506 4.058636343607987 19.318215153097658 0 0 0
230 0 1 -1.1104 1.0443713356253819 -0.050418702867565474 17.869829492310743 0 0 0
231 0 1 -1.1104 1.0965316366172362 5.279770148845082 17.87064552900345 0 0 0
234 0 1 -1.1104 1.006945552654111 0.01657424427601599 14.967735092156731 0 0 0
235 0 1 -1.1104 1.1396025479185086 5.529164714757397 15.01120013819193 0 0 0
238 0 2 2.2208 2.5614358990799597 1.1731012055047207 19.37085280375086 0 0 0
239 0 2 2.2208 2.546094369280873 6.884794507442568 19.337140450243407 0 0 0
240 0 1 -1.1104 3.8994669415551835 -2.8454015708149325 17.9606521632695 0 0 0
241 0 1 -1.1104 3.9258792472529818 2.7436881517311824 17.913879866545116 0 0 0
242 0 1 -1.1104 3.9038521329701625 8.32420473504837 17.99728278125228 0 0 0
243 0 1 -1.1104 3.80920748793293 -2.8112225374814903 15.108662104657657 0 0 0
244 0 1 -1.1104 3.9442478688774 2.682654351118733 15.020062776308569 0 0 0
245 0 1 -1.1104 3.834792597620636 8.511545881580746 15.098825792475333 0 0 0
246 0 2 2.2208 2.487620344590133 -1.4598036890214172 16.451888331557093 0 0 0
247 0 2 2.2208 2.447863653766439 4.117640714274539 16.55819427328706 0 0 0
248 0 1 -1.1104 3.8278430073733074 0.04462406182159431 17.792398366484026 0 0 0
249 0 1 -1.1104 3.930533971178594 5.592480791357696 17.964384022632828 0 0 0
250 0 1 -1.1104 3.937218043331137 -0.18271942410675732 15.072194165648837 0 0 0
251 0 1 -1.1104 3.777045764852866 5.749906817092365 15.14189119784143 0 0 0
233 0 1 -1.1104 6.656513480417714 5.641296609805826 17.815088691768995 0 0 0
221 0 1 -1.1104 6.670860621028051 8.434909672941142 17.83054914172667 0 0 0
253 0 2 2.2208 -0.3461941114297399 4.042479584063411 19.282471632003197 0 0 0
305 0 1 -1.1104 3.8679119894015344 2.6435985093088563 20.706206333131732 0 0 0
304 0 1 -1.1104 3.813229031344453 -2.963196299093293 20.755585756913746 0 0 0
303 0 1 -1.1104 6.724888374849543 5.458228493293781 20.841326704767855 0 0 0
255 0 2 2.2208 -0.3493688256426375 6.899653420204296 16.58914545288227 0 0 0
219 0 1 -1.1104 6.725491057674561 -2.908402630145158 17.805679974410285 0 0 0
395 0 2 2.2208 13.667603883010262 4.033060367400791 22.20246079137733 0 0 0
227 0 1 -1.1104 6.654804839730481 8.338868904275019 15.008682499501964 0 0 0
256 0 2 2.2208 -0.2936701182835952 1.3400336533135875 16.508477765393586 0 0 0
294 0 1 -1.1104 1.0083686069716444 -2.8208647868577255 20.695492423841145 0 0 0
307 0 1 -1.1104 3.842181706204693 -0.20951441284832265 20.66883490728089 0 0 0
300 0 1 -1.1104 0.9733807393828372 -0.12835729879713537 20.766073274469267 0 0 0
254 0 2 2.2208 -0.28176987800254205 -1.4228904993571565 19.288960139338275 0 0 0
258 0 2 2.2208 -0.16196646363104483 -4.231614411800649 16.37471843860153 0 0 0
162 0 2 2.2208 2.4268954002740597 6.978916828854511 13.68210376519821 0 0 0
259 0 2 2.2208 5.282988216977209 -4.221361989352943 16.47147920745948 0 0 0
236 0 1 -1.1104 6.659993629560585 -0.029948247654996506 15.228735497325351 0 0 0
225 0 1 -1.1104 6.6847880537551205 -2.8240552350876693 14.977400462233028 0 0 0
226 0 1 -1.1104 6.8123321816496905 2.8029387604868132 15.070656859349143 0 0 0
232 0 1 -1.1104 6.675777082661074 -0.19827059385787266 17.942781778928932 0 0 0
359 0 2 2.2208 8.024186674430785 4.0880770286426715 22.08750625472877 0 0 0
237 0 1 -1.1104 6.5374465385727465 5.430041616976903 14.906941198474836 0 0 0
220 0 1 -1.1104 6.653615025139809 2.7235793147680334 17.868686748985457 0 0 0
302 0 1 -1.1104 6.688457333452956 -0.16301463118121443 20.74712781917694 0 0 0
260 0 2 2.2208 10.790269760162706 1.2776003877972513 16.485486037753713 0 0 0
261 0 2 2.2208 10.897576675610894 6.949798844312171 16.626050488083344 0 0 0
262 0 1 -1.1104 12.429262904061229 -2.9873475212824148 18.07243098490216 0 0 0
263 0 1 -1.1104 12.287276234856181 2.677290857122631 18.130124409889522 0 0 0
264 0 1 -1.1104 12.250355951870914 8.196339026941038 18.07402442681599 0 0 0
265 0 1 -1.1104 12.392636615664516 -2.966218681629505 15.091133751715418 0 0 0
266 0 1 -1.1104 12.16920629294788 2.6689542120183143 15.154478049120828 0 0 0
267 0 1 -1.1104 12.329517419962285 8.267251404172276 15.119695671716292 0 0 0
268 0 2 2.2208 11.059073403680017 -1.5309473900182304 19.33931021312238 0 0 0
269 0 2 2.2208 10.921695411071024 4.1113790932911005 19.277515486253748 0 0 0
270 0 1 -1.1104 12.359649160101899 -0.09907522080358133 17.77920826345717 0 0 0
271 0 1 -1.1104 12.240258178726565 5.629713949491685 17.891138782969477 0 0 0
272 0 1 -1.1104 12.20996767880426 -0.1355355101094333 15.09952146013176 0 0 0
273 0 1 -1.1104 12.300771415922968 5.426837404566684 15.17725856457151 0 0 0
274 0 2 2.2208 8.034495076221532 1.2608452656694642 19.305867362784838 0 0 0
275 0 2 2.2208 8.034756812383666 6.902513860672368 19.434693138755147 0 0 0
276 0 1 -1.1104 9.600729493000264 -2.8768302381908466 17.825825320339035 0 0 0
277 0 1 -1.1104 9.461178128513673 2.881974438011816 18.033587951350476 0 0 0
278 0 1 -1.1104 9.408123047939267 8.542526297649998 17.887581049921867 0 0 0
279 0 1 -1.1104 9.510637125151847 -3.028482111288907 15.14867778990493 0 0 0
280 0 1 -1.1104 9.530712268516751 2.641950989976575 15.158659955543353 0 0 0
281 0 1 -1.1104 9.480220179614923 8.37135813608656 15.069859462791408 0 0 0
282 0 2 2.2208 8.071924352634644 -1.612150017456014 16.448192870485034 0 0 0
283 0 2 2.2208 8.018870443540125 4.212821728195113 16.472179861462063 0 0 0
284 0 1 -1.1104 9.402539336615572 -0.10155673097983035 17.806742860637478 0 0 0
285 0 1 -1.1104 9.380317108395907 5.626037886526693 18.044516819601068 0 0 0
286 0 1 -1.1104 9.550070086393772 -0.07625691716174618 14.965857011604992 0 0 0
287 0 1 -1.1104 9.488270134200999 5.54437456588294 15.18189606464856 0 0 0
393 0 2 2.2208 13.61016456688182 6.8379551944354775 24.947604313820428 0 0 0
363 0 1 -1.1104 12.309088916186056 2.712316684021332 23.57832124592664 0 0 0
9616 0 2 2.2208 13.651349041523828 6.918604763047316 19.374763778436403 0 0 0
290 0 2 2.2208 13.639098837868989 4.023024503704552 16.460665842136073 0 0 0
379 0 1 -1.1104 12.339704204093897 8.153655050757113 26.327684512567696 0 0 0
298 0 1 -1.1104 6.696891170490491 2.499166088582416 20.657890892418255 0 0 0
380 0 1 -1.1104 9.538198043826435 -3.062919392718292 20.55846367107579 0 0 0
383 0 1 -1.1104 9.622940343688533 -0.3222123397340476 20.831910793258423 0 0 0
370 0 1 -1.1104 12.262301567425846 2.699954693809475 20.835478528583504 0 0 0
369 0 1 -1.1104 12.391123941576023 -2.8749799707956996 20.754593110980764 0 0 0
374 0 1 -1.1104 12.386182313261564 -0.09020522493301636 20.784332621718896 0 0 0
384 0 1 -1.1104 9.491075684515744 5.346038986324803 20.822993772190024 0 0 0
375 0 1 -1.1104 12.175595637872505 5.50458024949034 20.805729176370225 0 0 0
371 0 1 -1.1104 12.290239808778223 8.256977566041291 20.820672073113773 0 0 0
390 0 1 -1.1104 9.470763976415263 -3.0037688754390826 23.59201986718753 0 0 0
201 0 2 2.2208 8.08249027865703 1.2398574145889574 13.754840848644745 0 0 0
348 0 2 2.2208 -0.2586142724921248 -1.556310607042106 24.835261617 0 0 0
295 0 1 -1.1104 1.091328081805209 2.766588629884894 20.7672088133821 0 0 0
299 0 1 -1.1104 6.737279382699173 8.206625556178352 20.78152543949508 0 0 0
308 0 1 -1.1104 3.977593100691433 5.3791852471239245 20.779582657213993 0 0 0
301 0 1 -1.1104 1.100613221029337 5.597378483746936 20.62541249951443 0 0 0
347 0 2 2.2208 -0.2927521115696586 4.162519760335759 25.045354146256663 0 0 0
368 0 1 -1.1104 12.24315062188301 -0.3278250346692784 26.205107640696056 0 0 0
385 0 1 -1.1104 9.580274591013355 2.55254332544797 26.373575809314936 0 0 0
306 0 1 -1.1104 3.8530577974696603 8.297171561549881 20.803267192226567 0 0 0
296 0 1 -1.1104 0.9196686727862021 8.34473355055576 20.792459433558463 0 0 0
309 0 2 2.2208 5.235047970402711 1.3396960578385502 22.13603442347647 0 0 0
310 0 2 2.2208 5.396157062080813 6.9915363427893205 22.18305579328252 0 0 0
311 0 1 -1.1104 1.0713888305480692 -3.0672889401408443 23.48015406103825 0 0 0
312 0 1 -1.1104 0.9426068667743029 2.5393078806241607 23.670465529299058 0 0 0
313 0 1 -1.1104 1.018010868481044 8.207128542044284 23.533001255462977 0 0 0
317 0 1 -1.1104 1.0805439863022552 -2.893807110200051 26.341660465454318 0 0 0
318 0 1 -1.1104 1.0969276184779633 2.864452877444028 26.459781463624626 0 0 0
319 0 1 -1.1104 0.949497748380325 8.303999509711575 26.34519600817009 0 0 0
323 0 2 2.2208 5.384728394812197 -1.5536579744098484 24.94165448350341 0 0 0
324 0 2 2.2208 5.246949063722441 4.18602893394214 25.008642973988024 0 0 0
325 0 1 -1.1104 1.1056066396572957 -0.14925874270026904 23.61456049497703 0 0 0
326 0 1 -1.1104 1.018821872560683 5.486245743865092 23.44049692210517 0 0 0
329 0 1 -1.1104 1.1282925589270583 -0.03406718448735788 26.394978989947955 0 0 0
330 0 1 -1.1104 1.0400518697788037 5.693405018192434 26.36087454574953 0 0 0
333 0 2 2.2208 2.420090390290404 1.4167589646249672 24.957239885839098 0 0 0
334 0 2 2.2208 2.4994600923302444 6.993964106672587 24.881750437773487 0 0 0
335 0 1 -1.1104 3.776026821115562 -2.9033746198327006 23.596148095508877 0 0 0
336 0 1 -1.1104 3.83075612038133 2.7022067493881416 23.505648179069368 0 0 0
337 0 1 -1.1104 3.8688600876843595 8.40395058719267 23.538227075704068 0 0 0
338 0 1 -1.1104 3.9366427515281575 -2.934956442845809 26.271991435295796 0 0 0
339 0 1 -1.1104 3.8338878719744827 2.860688797214997 26.249582128311022 0 0 0
340 0 1 -1.1104 3.858515899320919 8.38553868086783 26.268882973700634 0 0 0
341 0 2 2.2208 2.406668964461974 -1.5593582964766655 22.14486461434465 0 0 0
342 0 2 2.2208 2.472997025294295 4.121133562013186 22.17812536157728 0 0 0
343 0 1 -1.1104 3.9862279664940483 0.03083319975687282 23.554666085268746 0 0 0
344 0 1 -1.1104 3.808585855535214 5.543252521755772 23.60447645262241 0 0 0
345 0 1 -1.1104 3.8611106229096164 -0.10931189439363238 26.254509736440298 0 0 0
346 0 1 -1.1104 3.9819191714008997 5.665175882701666 26.189011097903702 0 0 0
328 0 1 -1.1104 6.688748595833944 5.461623215597856 23.579065201615535 0 0 0
297 0 1 -1.1104 6.7378821929512585 -2.911103031741352 20.575358289518594 0 0 0
315 0 1 -1.1104 6.533541710586184 2.6973051953659617 23.459637746947212 0 0 0
322 0 1 -1.1104 6.596139570460218 8.208151027070866 26.385281826078874 0 0 0
367 0 2 2.2208 10.857433050284689 6.828059901787734 22.11294754169103 0 0 0
372 0 1 -1.1104 12.312606046903607 -3.0950354252914365 26.33108949066225 0 0 0
54 0 2 2.2208 2.5163235763562626 4.235616895123246 27.6326568229334 0 0 -1
316 0 1 -1.1104 6.782597020565501 8.259167550755047 23.52630882462605 0 0 0
55 0 2 2.2208 2.41647274527049 -1.4709879132411146 27.643391888865953 0 0 -1
64 0 2 2.2208 -0.27876109091997786 1.3585659084981918 27.688503309620835 0 0 -1
382 0 1 -1.1104 9.43118909234829 8.319481894572336 20.730590158874456 0 0 0
377 0 1 -1.1104 12.342930152147506 -0.15000003081900387 23.311584370735844 0 0 0
332 0 1 -1.1104 6.719167052442114 5.412239692323196 26.49316421375509 0 0 0
331 0 1 -1.1104 6.712657648336563 -0.12731934008835952 26.2626193086547 0 0 0
321 0 1 -1.1104 6.7553106514058054 2.7269465145241734 26.138306238324887 0 0 0
314 0 1 -1.1104 6.677451176185612 -2.95625581728499 23.49018659348696 0 0 0
327 0 1 -1.1104 6.773753703344432 -0.20185482385396314 23.47905517383864 0 0 0
376 0 1 -1.1104 12.251249687034024 5.493061292830143 23.547290936655934 0 0 0
356 0 1 -1.1104 9.486815192468264 5.502047509469573 23.50212883449914 0 0 0
373 0 2 2.2208 10.94288066094877 1.2776920463743977 22.05075940895123 0 0 0
362 0 1 -1.1104 12.37713870514311 2.4871842595996623 26.377457233311794 0 0 0
389 0 1 -1.1104 9.528200218612545 2.589212874951188 23.621165541229008 0 0 0
386 0 1 -1.1104 9.4645985376035 -2.938041412673046 26.33813411786777 0 0 0
364 0 2 2.2208 8.080014105027917 1.2583371261323246 24.939856344878148 0 0 0
355 0 1 -1.1104 9.426268966741475 -0.047462989639714064 26.33684223316272 0 0 0
378 0 1 -1.1104 12.326028931457007 8.315009182147062 23.6700708493676 0 0 0
391 0 2 2.2208 10.879641715063972 -1.4783816604317002 24.839407709729798 0 0 0
388 0 2 2.2208 10.949387147938177 3.98891023858604 24.941754081311338 0 0 0
358 0 1 -1.1104 9.52579547453236 -0.12208067983244722 23.390343002257683 0 0 0
357 0 2 2.2208 8.102701771597893 6.826472769416428 24.97015010236325 0 0 0
381 0 1 -1.1104 9.462373124617095 2.625995089605554 20.634503732889577 0 0 0
320 0 1 -1.1104 6.681326303540663 -2.886634685179583 26.336913685857013 0 0 0
365 0 1 -1.1104 12.32093313482763 5.317920252658834 26.47166149544469 0 0 0
366 0 1 -1.1104 12.388921773540721 -3.065240569996332 23.54033469163461 0 0 0
360 0 2 2.2208 8.12190369496525 -1.6017345805568572 22.127953492102833 0 0 0
361 0 1 -1.1104 9.421028580078397 8.207998323573081 26.25063419190626 0 0 0
387 0 1 -1.1104 9.50157303478323 8.273321837880095 23.495859120048884 0 0 0
354 0 1 -1.1104 9.54264402353537 5.308387055302095 26.315867240541323 0 0 0
200 0 2 2.2208 11.038301870433203 -1.5351697698954856 13.712031961192125 0 0 0
202 0 2 2.2208 10.799694412700086 4.123322216298355 13.842716071537543 0 0 0
252 0 2 2.2208 2.4787008119037037 -4.259304611329185 13.71854986364246 0 0 0
205 0 2 2.2208 13.590016102562123 1.1925351137837792 13.673610382590498 0 0 0
204 0 2 2.2208 13.643799725909721 6.860386892142886 13.683179314314915 0 0 0
398 0 2 2.2208 5.297756825086051 12.407413655711647 5.257424395416578 0 0 0
399 0 2 2.2208 5.426293608793649 18.152816479471934 5.3033267304591565 0 0 0
400 0 1 -1.1104 1.0286698939176315 13.893963622217026 1.0572494331557367 0 0 0
402 0 1 -1.1104 1.0895888793229325 19.48053506910438 1.0858777079589665 0 0 0
406 0 1 -1.1104 0.942853091508031 13.849008311819388 3.879279852182415 0 0 0
407 0 1 -1.1104 1.0348474157942116 19.54595419178318 3.8973881281763503 0 0 0
410 0 2 2.2208 5.322428888575997 9.692224159637771 2.4865045661729814 0 0 0
411 0 2 2.2208 5.3358873378266125 15.221500348779532 2.5634472736644516 0 0 0
412 0 2 2.2208 5.264836005445159 20.808929755857193 2.5480971493518276 0 0 0
413 0 1 -1.1104 1.0545934788956026 11.079851544656691 1.1138417769634674 0 0 0
415 0 1 -1.1104 1.0163267651781356 16.71592533935313 1.2968949503000062 0 0 0
421 0 1 -1.1104 0.9939741279304639 11.007246305892261 3.927882732107555 0 0 0
422 0 1 -1.1104 1.1232329375688836 16.730133746600714 3.9529286915605666 0 0 0
425 0 2 2.2208 2.404258592000932 12.461491153487597 2.4477362895551895 0 0 0
426 0 2 2.2208 2.49408769935367 18.20501953277894 2.6031034220527367 0 0 0
427 0 1 -1.1104 3.9650278377583663 13.877817913544654 1.1602212666839802 0 0 0
429 0 1 -1.1104 3.890292521889316 19.42659446205252 1.1272355332953605 0 0 0
430 0 1 -1.1104 3.9192828321943827 13.9809453297438 3.915339982280489 0 0 0
431 0 1 -1.1104 3.8210199734893036 19.542786295160322 3.889179524552967 0 0 0
432 0 2 2.2208 2.402522624717225 9.760611357156462 5.4555891078774525 0 0 0
433 0 2 2.2208 2.4216223973790667 15.350585943976197 5.247119106202597 0 0 0
434 0 2 2.2208 2.6495179199114838 20.955714824041998 5.390297120098135 0 0 0
435 0 1 -1.1104 3.986136654422942 11.059953198480283 1.2045575222243912 0 0 0