LAMMPS (29 Oct 2020)
OMP_NUM_THREADS environment is not set. Defaulting to 1 thread. (../comm.cpp:94)
  using 1 OpenMP thread(s) per MPI task
#---------------------------------------
#
# This script is used to calculate the thermal conuctivity of UO2 using Muller-Plathe method
# By Ziqiang Wang on 03/18/2022 on Jilin university
#
#---------------------------------------

variable     Nevery    equal   10
variable     T         equal   600

clear
OMP_NUM_THREADS environment is not set. Defaulting to 1 thread. (../comm.cpp:94)
  using 1 OpenMP thread(s) per MPI task
units          metal
boundary       p p p
atom_style     full

read_data vac_0.02_relaxed.dat
Reading data file ...
  orthogonal box = (-0.037391793 -0.58385786 -0.047751287) to (27.377392 328.66386 27.387751)
  2 by 13 by 2 MPI processor grid
  reading atoms ...
  17640 atoms
  reading velocities ...
  17640 velocities
Finding 1-2 1-3 1-4 neighbors ...
  special bond factors lj:    0.0      0.0      0.0     
  special bond factors coul:  0.0      0.0      0.0     
     0 = max # of 1-2 neighbors
     0 = max # of 1-3 neighbors
     0 = max # of 1-4 neighbors
     1 = max # of special neighbors
  special bonds CPU = 0.029 seconds
  read_data CPU = 0.099 seconds

set           type     1    charge     -1.1104
Setting atom values ...
  11760 settings made for charge
set           type     2    charge      2.2208
Setting atom values ...
  5880 settings made for charge

kspace_style    pppm   1.0e-05
pair_style      hybrid/overlay  coul/long  11.0  eam/alloy
pair_coeff      * * coul/long
pair_coeff      * * eam/alloy CeThUNpPuAmCmO.eam.alloy O U
newton          on
neighbor        0.3 bin
neigh_modify    delay 0 check yes every 1

#The first equilation
velocity        all create $T 10001 mom yes rot yes dist gaussian
velocity        all create 600 10001 mom yes rot yes dist gaussian
fix             nvt  all  nvt  temp  $T $T  0.1
fix             nvt  all  nvt  temp  600 $T  0.1
fix             nvt  all  nvt  temp  600 600  0.1

run             100000
PPPM initialization ...
  using 12-bit tables for long-range coulomb (../kspace.cpp:328)
  G vector (1/distance) = 0.30004351
  grid = 40 240 40
  stencil order = 5
  estimated absolute RMS force accuracy = 0.00014653672
  estimated relative force accuracy = 1.0176412e-05
  using single precision MKL FFT
  3d grid and FFT values/proc = 15000 7600
Neighbor list info ...
  update every 1 steps, delay 0 steps, check yes
  max neighbors/atom: 2000, page size: 100000
  master list distance cutoff = 11.3
  ghost atom cutoff = 11.3
  binsize = 5.65, bins = 5 59 5
  2 neighbor lists, perpetual/occasional/extra = 2 0 0
  (1) pair coul/long, perpetual
      attributes: half, newton on
      pair build: half/bin/newton
      stencil: half/bin/3d/newton
      bin: standard
  (2) pair eam/alloy, perpetual, copy from (1)
      attributes: half, newton on
      pair build: copy
      stencil: none
      bin: none
Per MPI rank memory allocation (min/avg/max) = 8.165 | 8.189 | 8.214 Mbytes
Step Temp E_pair E_mol TotEng Press 
       0          600   -237574.27            0   -236206.26   -163.12006 
  100000    595.82777   -237592.06            0   -236233.56   -468.54265 
Loop time of 658.226 on 52 procs for 100000 steps with 17640 atoms

Performance: 13.126 ns/day, 1.828 hours/ns, 151.924 timesteps/s
99.8% CPU use with 52 MPI tasks x 1 OpenMP threads

MPI task timing breakdown:
Section |  min time  |  avg time  |  max time  |%varavg| %total
---------------------------------------------------------------
Pair    | 410.44     | 440.77     | 456.69     |  53.7 | 66.96
Bond    | 0.0057215  | 0.010831   | 0.018921   |   2.5 |  0.00
Kspace  | 143.9      | 160.95     | 195.17     |  98.8 | 24.45
Neigh   | 27.766     | 35.126     | 38.078     |  41.9 |  5.34
Comm    | 14.802     | 15.823     | 17.864     |  22.2 |  2.40
Output  | 5.9132e-05 | 6.601e-05  | 0.00032101 |   0.0 |  0.00
Modify  | 2.5836     | 4.1004     | 6.2209     |  58.1 |  0.62
Other   |            | 1.451      |            |       |  0.22

Nlocal:        339.231 ave         370 max         295 min
Histogram: 1 2 3 1 3 14 16 5 4 3
Nghost:        4233.13 ave        4369 max        4013 min
Histogram: 7 7 2 0 0 0 0 19 5 12
Neighs:        72037.1 ave       79524 max       56079 min
Histogram: 2 1 2 0 3 1 12 18 7 6

Total # of neighbors = 3745931
Ave neighs/atom = 212.35437
Ave special neighs/atom = 0.0000000
Neighbor list builds = 16172
Dangerous builds = 0
unfix           nvt
reset_timestep  0

# the second run
fix             1 all nve

group           oxygen type 1
11760 atoms in group oxygen
fix             2 oxygen thermal/conductivity ${Nevery} y 20
fix             2 oxygen thermal/conductivity 10 y 20

compute         ke all ke/atom
variable        temp atom c_ke/1.5
compute         layers all chunk/atom bin/1d y lower 0.05 units reduced
fix             3      all ave/chunk  2000 50 100000 layers v_temp file profile_${T}K.mp
fix             3      all ave/chunk  2000 50 100000 layers v_temp file profile_600K.mp

variable        Tdiff    equal     f_3[11][3]-f_3[1][3]
variable        deltaT   equal     v_Tdiff*1.5/0.0001292

timestep        0.001
thermo_style    custom step f_2 temp v_Tdiff v_deltaT
thermo          100000

run             1200000
PPPM initialization ...
  using 12-bit tables for long-range coulomb (../kspace.cpp:328)
  G vector (1/distance) = 0.30004351
  grid = 40 240 40
  stencil order = 5
  estimated absolute RMS force accuracy = 0.00014653672
  estimated relative force accuracy = 1.0176412e-05
  using single precision MKL FFT
  3d grid and FFT values/proc = 15000 7600
Per MPI rank memory allocation (min/avg/max) = 8.415 | 8.440 | 8.464 Mbytes
Step f_2 Temp v_Tdiff v_deltaT 
       0            0    595.82777            0            0 
  100000    2071.1894    593.18734  0.053491819    621.03505 
  200000    3992.3877    592.30203  0.057201273    664.10147 
  300000    5931.4319    592.61383  0.056585714    656.95488 
  400000    7853.0481    594.20416  0.056557584     656.6283 
  500000    9788.8393    593.36457  0.056258806    653.15951 
  600000     11716.33    599.23647  0.057008976    661.86892 
  700000    13648.701    594.81192  0.056991446     661.6654 
  800000    15577.791    592.52579  0.056729996    658.62998 
  900000     17511.41    595.15363   0.05672391    658.55932 
 1000000    19437.004    592.96577  0.056357656    654.30715 
 1100000    21375.581    599.57038   0.05712818    663.25286 
 1200000    23319.227    594.98603  0.057220318    664.32258 
Loop time of 8065.32 on 52 procs for 1200000 steps with 17640 atoms

Performance: 12.855 ns/day, 1.867 hours/ns, 148.785 timesteps/s
99.8% CPU use with 52 MPI tasks x 1 OpenMP threads

MPI task timing breakdown:
Section |  min time  |  avg time  |  max time  |%varavg| %total
---------------------------------------------------------------
Pair    | 4923.9     | 5311.6     | 5483.4     | 196.7 | 65.86
Bond    | 0.070527   | 0.131      | 0.2144     |   8.7 |  0.00
Kspace  | 1833.2     | 2017.5     | 2465.9     | 364.6 | 25.01
Neigh   | 365.54     | 474.39     | 521.64     | 172.9 |  5.88
Comm    | 178.23     | 197.65     | 231.67     | 100.3 |  2.45
Output  | 0.001315   | 0.0014044  | 0.0028526  |   0.5 |  0.00
Modify  | 10.788     | 12.958     | 15.977     |  42.8 |  0.16
Other   |            | 51.08      |            |       |  0.63

Nlocal:        339.231 ave         363 max         288 min
Histogram: 2 3 3 0 0 2 7 19 11 5
Nghost:        4233.15 ave        4364 max        4014 min
Histogram: 7 5 4 0 0 0 3 10 11 12
Neighs:        72079.2 ave       78278 max       55653 min
Histogram: 2 2 3 1 0 0 2 17 17 8

Total # of neighbors = 3748120
Ave neighs/atom = 212.47846
Ave special neighs/atom = 0.0000000
Neighbor list builds = 217864
Dangerous builds = 0

Total wall time: 2:25:23
