LAMMPS (29 Oct 2020)
OMP_NUM_THREADS environment is not set. Defaulting to 1 thread. (../comm.cpp:94)
  using 1 OpenMP thread(s) per MPI task
#---------------------------------------
#
# This script is used to calculate the thermal conuctivity of UO2 using Muller-Plathe method
# By Ziqiang Wang on 03/18/2022 on Jilin university
#
#---------------------------------------

variable     Nevery    equal   50
variable     T         equal   1200

clear
OMP_NUM_THREADS environment is not set. Defaulting to 1 thread. (../comm.cpp:94)
  using 1 OpenMP thread(s) per MPI task
units          metal
boundary       p p p
atom_style     full

read_data vac_0.02_relaxed.dat
Reading data file ...
  orthogonal box = (-0.43528536 -5.2344580 -0.44055408) to (27.775285 333.31446 27.780554)
  2 by 13 by 2 MPI processor grid
  reading atoms ...
  17640 atoms
  reading velocities ...
  17640 velocities
Finding 1-2 1-3 1-4 neighbors ...
  special bond factors lj:    0.0      0.0      0.0     
  special bond factors coul:  0.0      0.0      0.0     
     0 = max # of 1-2 neighbors
     0 = max # of 1-3 neighbors
     0 = max # of 1-4 neighbors
     1 = max # of special neighbors
  special bonds CPU = 0.015 seconds
  read_data CPU = 0.091 seconds

set           type     1    charge     -1.1104
Setting atom values ...
  11760 settings made for charge
set           type     2    charge      2.2208
Setting atom values ...
  5880 settings made for charge

kspace_style    pppm   1.0e-05
pair_style      hybrid/overlay  coul/long  11.0  eam/alloy
pair_coeff      * * coul/long
pair_coeff      * * eam/alloy CeThUNpPuAmCmO.eam.alloy O Th
newton          on
neighbor        0.3 bin
neigh_modify    delay 0 check yes every 1

#The first equilation
velocity        all create $T 10001 mom yes rot yes dist gaussian
velocity        all create 1200 10001 mom yes rot yes dist gaussian
fix             nvt  all  nvt  temp  $T $T  0.1
fix             nvt  all  nvt  temp  1200 $T  0.1
fix             nvt  all  nvt  temp  1200 1200  0.1

run             50000
PPPM initialization ...
  using 12-bit tables for long-range coulomb (../kspace.cpp:328)
  G vector (1/distance) = 0.29850978
  grid = 40 240 40
  stencil order = 5
  estimated absolute RMS force accuracy = 0.00015866781
  estimated relative force accuracy = 1.1018869e-05
  using single precision MKL FFT
  3d grid and FFT values/proc = 15000 7600
Neighbor list info ...
  update every 1 steps, delay 0 steps, check yes
  max neighbors/atom: 2000, page size: 100000
  master list distance cutoff = 11.3
  ghost atom cutoff = 11.3
  binsize = 5.65, bins = 5 60 5
  2 neighbor lists, perpetual/occasional/extra = 2 0 0
  (1) pair coul/long, perpetual
      attributes: half, newton on
      pair build: half/bin/newton
      stencil: half/bin/3d/newton
      bin: standard
  (2) pair eam/alloy, perpetual, copy from (1)
      attributes: half, newton on
      pair build: copy
      stencil: none
      bin: none
Per MPI rank memory allocation (min/avg/max) = 8.135 | 8.168 | 8.190 Mbytes
Step Temp E_pair E_mol TotEng Press 
       0         1200    -229087.4            0   -226351.38    68.142745 
   50000    1190.2227   -229064.68            0   -226350.95    205.43258 
Loop time of 335.479 on 52 procs for 50000 steps with 17640 atoms

Performance: 12.877 ns/day, 1.864 hours/ns, 149.041 timesteps/s
99.8% CPU use with 52 MPI tasks x 1 OpenMP threads

MPI task timing breakdown:
Section |  min time  |  avg time  |  max time  |%varavg| %total
---------------------------------------------------------------
Pair    | 213.58     | 224.47     | 231.7      |  25.3 | 66.91
Bond    | 0.0032846  | 0.0049689  | 0.0077202  |   1.3 |  0.00
Kspace  | 67.611     | 76.543     | 91.85      |  60.6 | 22.82
Neigh   | 17.606     | 22.657     | 25.07      |  38.5 |  6.75
Comm    | 9.0011     | 9.5847     | 10.289     |   9.9 |  2.86
Output  | 5.7581e-05 | 6.4197e-05 | 0.00030921 |   0.0 |  0.00
Modify  | 1.0801     | 1.4769     | 2.4304     |  34.0 |  0.44
Other   |            | 0.738      |            |       |  0.22

Nlocal:        339.231 ave         363 max         294 min
Histogram: 3 1 2 2 1 5 13 15 2 8
Nghost:        3969.81 ave        4136 max        3725 min
Histogram: 4 4 3 5 0 4 4 15 3 10
Neighs:        67509.8 ave       73849 max       50707 min
Histogram: 3 1 0 2 2 0 3 16 16 9

Total # of neighbors = 3510511
Ave neighs/atom = 199.00856
Ave special neighs/atom = 0.0000000
Neighbor list builds = 11000
Dangerous builds = 0
unfix           nvt
reset_timestep  0

# the second run
fix             1 all nve

group           oxygen type 1
11760 atoms in group oxygen
fix             2 oxygen thermal/conductivity ${Nevery} y 20
fix             2 oxygen thermal/conductivity 50 y 20

compute         ke all ke/atom
variable        temp atom c_ke/1.5
compute         layers all chunk/atom bin/1d y lower 0.05 units reduced
fix             3      all ave/chunk  2000 50 100000 layers v_temp file profile_${T}K.mp
fix             3      all ave/chunk  2000 50 100000 layers v_temp file profile_1200K.mp

variable        Tdiff    equal     f_3[11][3]-f_3[1][3]
variable        deltaT   equal     v_Tdiff*1.5/0.0001292

timestep        0.001
thermo_style    custom step f_2 temp v_Tdiff v_deltaT
thermo          100000

run             1000000
PPPM initialization ...
  using 12-bit tables for long-range coulomb (../kspace.cpp:328)
  G vector (1/distance) = 0.29850978
  grid = 40 240 40
  stencil order = 5
  estimated absolute RMS force accuracy = 0.00015866781
  estimated relative force accuracy = 1.1018869e-05
  using single precision MKL FFT
  3d grid and FFT values/proc = 15000 7600
Per MPI rank memory allocation (min/avg/max) = 8.385 | 8.419 | 8.440 Mbytes
Step f_2 Temp v_Tdiff v_deltaT 
       0            0    1190.2227            0            0 
  100000    1320.7096    1198.1825  0.049431484    573.89494 
  200000    2572.2028    1189.8108  0.059358461    689.14622 
  300000    3827.9131    1200.1254  0.057199034    664.07547 
  400000    5089.3039     1183.725  0.058125532    674.83203 
  500000    6348.4708    1186.1363  0.057131755    663.29437 
  600000    7610.9218    1200.8631  0.057617416    668.93285 
  700000    8882.1433    1208.3027  0.058609197    680.44733 
  800000    10142.417    1202.8429  0.057672271    669.56971 
  900000    11402.761    1206.9151  0.059296339    688.42499 
 1000000    12663.745    1196.7321  0.058871736    683.49539 
Loop time of 6738.37 on 52 procs for 1000000 steps with 17640 atoms

Performance: 12.822 ns/day, 1.872 hours/ns, 148.404 timesteps/s
99.9% CPU use with 52 MPI tasks x 1 OpenMP threads

MPI task timing breakdown:
Section |  min time  |  avg time  |  max time  |%varavg| %total
---------------------------------------------------------------
Pair    | 4237.7     | 4488.7     | 4629.1     | 116.6 | 66.61
Bond    | 0.070826   | 0.099799   | 0.1455     |   5.6 |  0.00
Kspace  | 1356.2     | 1525       | 1879.3     | 281.3 | 22.63
Neigh   | 372.29     | 489.33     | 538.91     | 186.9 |  7.26
Comm    | 185.61     | 199.8      | 220.55     |  60.1 |  2.97
Output  | 0.0011307  | 0.0011989  | 0.0024304  |   0.5 |  0.00
Modify  | 5.3549     | 5.8764     | 6.5735     |   9.1 |  0.09
Other   |            | 29.6       |            |       |  0.44

Nlocal:        339.231 ave         362 max         293 min
Histogram: 4 4 0 0 0 3 11 13 6 11
Nghost:        3976.77 ave        4110 max        3724 min
Histogram: 3 5 4 3 1 1 3 5 12 15
Neighs:        67495.3 ave       73771 max       50582 min
Histogram: 4 0 1 3 0 0 3 16 14 11

Total # of neighbors = 3509756
Ave neighs/atom = 198.96576
Ave special neighs/atom = 0.0000000
Neighbor list builds = 237051
Dangerous builds = 0

Total wall time: 1:57:54
