LAMMPS (29 Oct 2020)
OMP_NUM_THREADS environment is not set. Defaulting to 1 thread. (../comm.cpp:94)
  using 1 OpenMP thread(s) per MPI task
#---------------------------------------
#
# This script is used to calculate the thermal conuctivity of UO2 using Muller-Plathe method
# By Ziqiang Wang on 03/18/2022 on Jilin university
#
#---------------------------------------

variable     Nevery    equal   50
variable     T         equal   900

clear
OMP_NUM_THREADS environment is not set. Defaulting to 1 thread. (../comm.cpp:94)
  using 1 OpenMP thread(s) per MPI task
units          metal
boundary       p p p
atom_style     full

read_data vac_0_relaxed.dat
Reading data file ...
  orthogonal box = (-0.39288849 -5.8882415 -0.3945407) to (27.732888 415.98824 27.734541)
  1 by 26 by 2 MPI processor grid
  reading atoms ...
  22500 atoms
  reading velocities ...
  22500 velocities
Finding 1-2 1-3 1-4 neighbors ...
  special bond factors lj:    0.0      0.0      0.0     
  special bond factors coul:  0.0      0.0      0.0     
     0 = max # of 1-2 neighbors
     0 = max # of 1-3 neighbors
     0 = max # of 1-4 neighbors
     1 = max # of special neighbors
  special bonds CPU = 0.003 seconds
  read_data CPU = 0.071 seconds

set           type     1    charge     -1.1104
Setting atom values ...
  15000 settings made for charge
set           type     2    charge      2.2208
Setting atom values ...
  7500 settings made for charge

kspace_style    pppm   1.0e-05
pair_style      hybrid/overlay  coul/long  11.0  eam/alloy
pair_coeff      * * coul/long
pair_coeff      * * eam/alloy CeThUNpPuAmCmO.eam.alloy O Th Th O
newton          on
neighbor        0.3 bin
neigh_modify    delay 0 check yes every 1

#The first equilation
velocity        all create $T 10004 mom yes rot yes dist gaussian
velocity        all create 900 10004 mom yes rot yes dist gaussian
fix             nvt  all  nvt  temp  $T $T  0.1
fix             nvt  all  nvt  temp  900 $T  0.1
fix             nvt  all  nvt  temp  900 900  0.1

run             100000
PPPM initialization ...
  using 12-bit tables for long-range coulomb (../kspace.cpp:328)
  G vector (1/distance) = 0.29800923
  grid = 40 288 40
  stencil order = 5
  estimated absolute RMS force accuracy = 0.00016793423
  estimated relative force accuracy = 1.1662387e-05
  using single precision MKL FFT
  3d grid and FFT values/proc = 19125 9600
Neighbor list info ...
  update every 1 steps, delay 0 steps, check yes
  max neighbors/atom: 2000, page size: 100000
  master list distance cutoff = 11.3
  ghost atom cutoff = 11.3
  binsize = 5.65, bins = 5 75 5
  2 neighbor lists, perpetual/occasional/extra = 2 0 0
  (1) pair coul/long, perpetual
      attributes: half, newton on
      pair build: half/bin/newton
      stencil: half/bin/3d/newton
      bin: standard
  (2) pair eam/alloy, perpetual, copy from (1)
      attributes: half, newton on
      pair build: copy
      stencil: none
      bin: none
Per MPI rank memory allocation (min/avg/max) = 8.386 | 8.417 | 8.479 Mbytes
Step Temp E_pair E_mol TotEng Press 
       0          900   -293435.01            0   -290817.61    1282.6834 
  100000    900.42953   -293446.96            0   -290828.31    1015.2093 
Loop time of 826.666 on 52 procs for 100000 steps with 22500 atoms

Performance: 10.452 ns/day, 2.296 hours/ns, 120.968 timesteps/s
99.8% CPU use with 52 MPI tasks x 1 OpenMP threads

MPI task timing breakdown:
Section |  min time  |  avg time  |  max time  |%varavg| %total
---------------------------------------------------------------
Pair    | 538.13     | 553.57     | 568.14     |  30.7 | 66.96
Bond    | 0.0072566  | 0.011915   | 0.016059   |   1.8 |  0.00
Kspace  | 176.52     | 192.41     | 209.12     |  60.2 | 23.28
Neigh   | 49.491     | 53.139     | 55.868     |  26.8 |  6.43
Comm    | 17.642     | 20.348     | 24.142     |  33.0 |  2.46
Output  | 5.4051e-05 | 5.9362e-05 | 0.00026773 |   0.0 |  0.00
Modify  | 2.1807     | 5.2098     | 8.9512     |  77.5 |  0.63
Other   |            | 1.974      |            |       |  0.24

Nlocal:        432.692 ave         455 max         398 min
Histogram: 5 4 0 2 6 7 4 5 12 7
Nghost:        4493.21 ave        4567 max        4357 min
Histogram: 4 1 2 2 10 1 2 7 13 10
Neighs:        87388.0 ave       91719 max       80802 min
Histogram: 3 6 1 2 6 4 6 7 7 10

Total # of neighbors = 4544175
Ave neighs/atom = 201.96333
Ave special neighs/atom = 0.0000000
Neighbor list builds = 19918
Dangerous builds = 0
unfix           nvt
reset_timestep  0

# the second run
fix             1 all nve

group           oxygen type 1
15000 atoms in group oxygen
fix             2 oxygen thermal/conductivity ${Nevery} y 20
fix             2 oxygen thermal/conductivity 50 y 20

compute         ke all ke/atom
variable        temp atom c_ke/1.5
compute         layers all chunk/atom bin/1d y lower 0.05 units reduced
fix             3      all ave/chunk  2000 50 100000 layers v_temp file profile_${T}K.mp
fix             3      all ave/chunk  2000 50 100000 layers v_temp file profile_900K.mp

variable        Tdiff    equal     f_3[11][3]-f_3[1][3]
variable        deltaT   equal     v_Tdiff*1.5/0.0001292

timestep        0.001
thermo_style    custom step f_2 temp v_Tdiff v_deltaT
thermo          100000

run             1500000
PPPM initialization ...
  using 12-bit tables for long-range coulomb (../kspace.cpp:328)
  G vector (1/distance) = 0.29800923
  grid = 40 288 40
  stencil order = 5
  estimated absolute RMS force accuracy = 0.00016793423
  estimated relative force accuracy = 1.1662387e-05
  using single precision MKL FFT
  3d grid and FFT values/proc = 19125 9600
Per MPI rank memory allocation (min/avg/max) = 8.643 | 8.671 | 8.730 Mbytes
Step f_2 Temp v_Tdiff v_deltaT 
       0            0    900.42953            0            0 
  100000    1035.9398    901.40541  0.032212506    373.98421 
  200000    2031.9434     899.8064  0.037873198    439.70431 
  300000    3024.9747    901.76946  0.037593163    436.45313 
  400000    4024.7178    899.10996  0.037126135    431.03097 
  500000    5025.0599    901.68464  0.037387825    434.06917 
  600000    6024.6238    898.32921  0.037619627    436.76038 
  700000    7032.2549    897.68658  0.036649748    425.50017 
  800000     8033.963    902.39258  0.037522859    435.63691 
  900000     9043.457    894.47074  0.036181886    420.06833 
 1000000    10035.876    898.36307  0.037586787     436.3791 
 1100000    11026.949    904.32653  0.037730294     438.0452 
 1200000    12025.992    904.30122  0.036962996    429.13695 
 1300000    13036.354    897.08034  0.037203945    431.93434 
 1400000    14032.553    898.05609  0.037575629    436.24956 
 1500000     15025.65    899.41617  0.038123966     442.6157 
Loop time of 12220.1 on 52 procs for 1500000 steps with 22500 atoms

Performance: 10.605 ns/day, 2.263 hours/ns, 122.748 timesteps/s
99.8% CPU use with 52 MPI tasks x 1 OpenMP threads

MPI task timing breakdown:
Section |  min time  |  avg time  |  max time  |%varavg| %total
---------------------------------------------------------------
Pair    | 7982.3     | 8166.9     | 8312.2     |  96.8 | 66.83
Bond    | 0.12361    | 0.18001    | 0.22349    |   6.1 |  0.00
Kspace  | 2684.2     | 2857.9     | 3049.4     | 199.6 | 23.39
Neigh   | 740.34     | 807.86     | 855.87     |  98.4 |  6.61
Comm    | 258.61     | 296.32     | 335.2      | 114.7 |  2.42
Output  | 0.0017828  | 0.0018832  | 0.0036709  |   0.6 |  0.00
Modify  | 10.12      | 12.351     | 14.318     |  29.8 |  0.10
Other   |            | 78.66      |            |       |  0.64

Nlocal:        432.692 ave         454 max         399 min
Histogram: 3 5 0 2 6 8 5 4 8 11
Nghost:        4484.38 ave        4573 max        4341 min
Histogram: 2 2 4 4 5 6 4 8 9 8
Neighs:        87395.0 ave       91767 max       80536 min
Histogram: 4 4 0 1 6 9 6 4 7 11

Total # of neighbors = 4544540
Ave neighs/atom = 201.97956
Ave special neighs/atom = 0.0000000
Neighbor list builds = 303805
Dangerous builds = 0

Total wall time: 3:37:27
