ITEM: TIMESTEP
100000
ITEM: NUMBER OF ATOMS
17640
ITEM: BOX BOUNDS pp pp pp
-3.6514771888668057e-01 2.7705147718887101e+01
-4.3903676898957231e+00 3.3247036768989437e+02
-3.5750558682497868e-01 2.7697505586825116e+01
ITEM: ATOMS id type q x y z
1 2 2.2208 5.34786 1.3683 5.15183
2 1 -1.1104 1.09971 -2.84785 1.11146
3 1 -1.1104 1.13776 2.56401 0.94116
6 1 -1.1104 1.10252 -2.82572 3.90706
7 1 -1.1104 1.06029 2.70558 3.95624
10 1 -1.1104 1.14246 -0.134875 1.02503
12 2 2.2208 5.45419 -1.49345 2.48467
13 2 2.2208 5.40189 4.09327 2.33779
14 1 -1.1104 1.15603 -0.00798227 4.00252
16 1 -1.1104 3.88499 -3.00526 1.09061
17 1 -1.1104 3.91207 2.53231 0.880666
18 2 2.2208 2.61274 1.29924 2.53026
19 1 -1.1104 3.9206 -2.79542 3.88115
20 1 -1.1104 3.94586 2.79745 3.73391
21 2 2.2208 2.50517 -1.4311 5.29075
22 2 2.2208 2.50436 4.0342 5.2411
23 1 -1.1104 3.9937 -0.198999 1.14917
24 1 -1.1104 3.99375 0.0406034 3.90609
27 2 2.2208 -0.241316 3.90363 2.39064
26 2 2.2208 -0.294562 1.19067 5.33621
167 1 -1.1104 1.24324 2.55802 6.63653
173 1 -1.1104 4.05948 2.76543 6.54497
170 1 -1.1104 1.1486 -0.16706 6.63307
11 1 -1.1104 6.8779 -0.00824713 0.850368
8 1 -1.1104 6.78839 -2.88931 3.80029
8896 2 2.2208 -0.318819 -1.52058 2.51473
8490 2 2.2208 8.08408 -4.41032 8.03912
104 2 2.2208 13.6247 12.4773 2.3767
8487 2 2.2208 10.9129 -4.35285 5.16285
199 2 2.2208 -0.215761 3.99064 7.91035
49 2 2.2208 13.679 1.28677 2.44048
15 1 -1.1104 6.79248 -0.0185648 3.72735
9 1 -1.1104 6.69235 2.71036 3.9035
4 1 -1.1104 6.68469 -2.87099 0.9832
5 1 -1.1104 6.7325 2.68054 0.997344
31 2 2.2208 11.054 1.16459 5.33021
32 1 -1.1104 12.2966 -2.86118 1.04453
33 1 -1.1104 12.364 2.76778 1.0434
34 1 -1.1104 12.4698 -3.25417 3.94347
35 1 -1.1104 12.3432 2.6486 4.0203
36 1 -1.1104 12.2732 -0.114716 0.995018
37 2 2.2208 10.9132 -1.51827 2.50321
38 2 2.2208 11.061 4.15247 2.3353
39 1 -1.1104 12.5339 -0.225602 3.82359
40 1 -1.1104 9.63809 -2.96085 1.17572
41 1 -1.1104 9.65908 2.74156 0.990064
42 2 2.2208 8.13331 1.27372 2.42988
43 1 -1.1104 9.6011 -2.94763 3.8965
44 1 -1.1104 9.50997 2.56282 3.60191
45 2 2.2208 8.1915 -1.511 5.22699
46 2 2.2208 8.19356 3.9781 5.25217
47 1 -1.1104 9.51364 -0.0889257 1.08575
48 1 -1.1104 9.71082 -0.303386 4.03602
171 1 -1.1104 6.60278 -0.20578 6.41247
206 1 -1.1104 12.3995 2.45138 6.74828
208 1 -1.1104 9.69006 -2.88926 6.6683
210 1 -1.1104 9.31936 -0.147111 6.67617
168 1 -1.1104 6.80473 -2.96558 6.76584
209 1 -1.1104 9.6056 2.65954 6.57567
205 1 -1.1104 12.4806 -3.0095 6.76789
351 2 2.2208 8.15618 3.96929 -0.345196
83 2 2.2208 -0.276477 12.4895 5.04596
82 2 2.2208 -0.190675 9.66203 2.46619
54 2 2.2208 5.33248 6.91494 5.30286
55 2 2.2208 5.35956 12.3775 4.96061
56 1 -1.1104 1.23458 8.20297 0.908574
58 1 -1.1104 1.16407 8.20926 3.58375
60 1 -1.1104 1.13904 5.42697 0.955012
61 1 -1.1104 1.13016 11.1098 1.08724
66 2 2.2208 5.35888 9.61804 2.28709
67 1 -1.1104 1.10416 5.43141 3.66369
68 1 -1.1104 1.17966 10.9731 3.80813
71 1 -1.1104 3.9772 8.27063 0.760161
72 2 2.2208 2.57594 6.85259 2.33742
73 2 2.2208 2.59508 12.4863 2.41697
74 1 -1.1104 3.98552 8.21602 3.71836
75 2 2.2208 2.58583 9.62477 5.19626
76 1 -1.1104 4.03039 5.44482 0.963378
77 1 -1.1104 3.89596 11.0942 0.921799
79 1 -1.1104 3.81469 5.41117 3.77619
80 1 -1.1104 3.81534 11.0422 3.80426
81 2 2.2208 -0.135354 6.77178 5.17917
236 1 -1.1104 1.03286 5.31314 6.63842
234 1 -1.1104 1.25989 8.15057 6.5848
78 1 -1.1104 4.13342 11.1467 6.6441
239 1 -1.1104 3.83955 5.5885 6.59973
8489 2 2.2208 5.47639 -4.2629 10.8511
235 1 -1.1104 6.84825 8.15314 6.63233
59 1 -1.1104 6.78796 8.15541 3.84079
64 1 -1.1104 6.67495 10.9206 0.990837
70 1 -1.1104 6.64712 10.8929 3.69109
57 1 -1.1104 6.76848 8.22769 1.05455
63 1 -1.1104 6.81628 5.44986 1.05475
69 1 -1.1104 6.73184 5.39477 3.9552
84 2 2.2208 11.0705 6.8346 5.09145
85 2 2.2208 10.9742 12.4991 5.1882
86 1 -1.1104 12.3206 8.1883 1.0179
87 1 -1.1104 12.4111 8.31209 3.74124
88 1 -1.1104 12.4134 5.45929 0.897002
89 1 -1.1104 12.453 10.9829 0.975137
91 2 2.2208 10.928 9.68656 2.36532
92 1 -1.1104 12.5815 5.47882 3.63806
93 1 -1.1104 12.2773 11.1291 3.78805
94 1 -1.1104 9.48912 8.39986 1.00269
95 2 2.2208 8.15439 6.91585 2.48196
96 2 2.2208 8.06538 12.3113 2.27951
97 1 -1.1104 9.60253 8.44213 3.73596
98 2 2.2208 8.10418 9.69897 5.1701
99 1 -1.1104 9.66117 5.57975 0.979913
100 1 -1.1104 9.60338 11.0378 0.994745
102 1 -1.1104 9.64132 5.59654 3.83206
103 1 -1.1104 9.30579 11.2695 3.86941
265 1 -1.1104 12.3399 8.20715 6.54259
237 1 -1.1104 6.75016 5.4354 6.73542
101 1 -1.1104 9.77141 11.0629 6.63048
90 1 -1.1104 12.4494 11.0343 6.52481
267 1 -1.1104 9.55975 8.24093 6.49724
266 1 -1.1104 12.4708 5.50734 6.58459
135 2 2.2208 -0.239388 15.2653 2.32652
136 2 2.2208 -0.358914 20.8376 2.4837
106 2 2.2208 5.31145 18.0887 5.14502
107 1 -1.1104 1.23214 13.8511 1.01903
109 1 -1.1104 0.882892 19.2968 1.15958
113 1 -1.1104 1.15318 13.9068 3.64334
114 1 -1.1104 1.0333 19.5251 3.92431
116 1 -1.1104 1.15406 16.5173 0.972233
119 2 2.2208 5.2708 15.2965 2.3293
120 2 2.2208 5.22737 20.849 2.21869
121 1 -1.1104 1.01 16.5917 3.94817
123 1 -1.1104 4.04682 13.866 0.903011
125 1 -1.1104 3.77655 19.3973 0.818424
127 2 2.2208 2.42279 18.1343 2.47969
128 1 -1.1104 4.04343 13.8336 3.71459
129 1 -1.1104 3.76791 19.5086 3.71027
130 2 2.2208 2.59696 15.2518 5.15788
131 2 2.2208 2.43184 20.8545 5.18095
132 1 -1.1104 3.86195 16.6236 0.844046
134 1 -1.1104 3.83323 16.7396 3.70789
108 1 -1.1104 1.14359 13.9497 6.59959
133 1 -1.1104 4.02719 16.7555 6.53497
117 1 -1.1104 1.14589 16.7242 6.68478
126 1 -1.1104 4.02306 19.4641 6.56496
140 1 -1.1104 6.61789 16.5334 0.948031
138 1 -1.1104 6.64926 19.3952 0.854995
137 2 2.2208 -0.300572 18.0756 5.40868
122 1 -1.1104 6.66572 16.7325 3.76162
110 1 -1.1104 6.74358 13.7288 0.776203
115 1 -1.1104 6.74727 13.8198 3.63423
139 1 -1.1104 6.68051 19.4296 3.67716
141 2 2.2208 10.9169 18.0808 5.11846
142 1 -1.1104 12.3926 13.862 0.920102
144 1 -1.1104 12.3545 19.4869 0.969338
146 1 -1.1104 12.3801 13.8867 3.79951
147 1 -1.1104 12.3549 19.4497 3.79384
148 1 -1.1104 12.4004 16.6986 1.05544
150 2 2.2208 11.055 15.1506 2.36862
151 2 2.2208 10.9359 20.8578 2.35225
152 1 -1.1104 12.3371 16.71 3.79924
153 1 -1.1104 9.52673 13.8365 1.11059
155 1 -1.1104 9.45524 19.4827 0.976943
157 2 2.2208 8.02204 18.1004 2.26444
158 1 -1.1104 9.74188 13.8879 3.86273
159 1 -1.1104 9.56248 19.4985 3.65718
160 2 2.2208 8.06321 15.2506 5.07785
161 2 2.2208 8.1123 20.8081 5.01093
162 1 -1.1104 9.56014 16.6345 1.12624
164 1 -1.1104 9.30128 16.7025 3.87473
112 1 -1.1104 6.95179 19.5055 6.46738
145 1 -1.1104 12.3322 19.3683 6.58094
156 1 -1.1104 9.63544 19.5172 6.41707
163 1 -1.1104 9.50026 16.5482 6.59275
154 1 -1.1104 9.45445 13.8771 6.70395
149 1 -1.1104 12.3305 16.6256 6.51437
111 1 -1.1104 6.71643 13.8445 6.5014
174 1 -1.1104 3.94537 -0.103947 6.84913
344 2 2.2208 5.48586 20.9956 13.5173
204 1 -1.1104 12.5712 13.773 9.32963
8484 2 2.2208 2.35938 -4.33508 2.43773
8485 2 2.2208 5.24436 -4.27523 5.22122
53 1 -1.1104 12.4047 13.8563 12.112
166 1 -1.1104 1.06266 -3.14087 6.71949
172 1 -1.1104 3.92196 -2.93905 6.63814
201 2 2.2208 -0.296731 1.17773 10.8457
175 2 2.2208 5.41253 1.15626 10.8931
176 1 -1.1104 1.07013 -2.94896 12.3119
177 1 -1.1104 1.0623 2.58707 12.1946
180 1 -1.1104 1.10611 -3.08523 9.43112
181 1 -1.1104 1.22998 2.67897 9.3663
184 1 -1.1104 1.14514 -0.130158 12.2329
186 2 2.2208 5.3276 -1.62461 8.19344
187 2 2.2208 5.28158 4.0709 8.01207
188 1 -1.1104 1.07583 -0.167153 9.40971
190 1 -1.1104 3.9106 -2.97117 12.1824
191 1 -1.1104 3.85108 2.56645 12.0791
192 2 2.2208 2.60198 1.1918 8.0773
193 1 -1.1104 3.83701 -2.97492 9.38292
194 1 -1.1104 3.84443 2.66311 9.29046
195 2 2.2208 2.44354 -1.58212 10.8316
197 1 -1.1104 4.04419 -0.242909 12.2881
198 1 -1.1104 3.94907 -0.19103 9.54078
196 2 2.2208 2.44575 4.03033 10.7923
8869 2 2.2208 -0.24647 -1.71281 8.12129
326 1 -1.1104 12.5192 16.5766 12.0783
532 2 2.2208 2.51977 18.2142 13.5993
169 1 -1.1104 6.71408 2.65966 6.53631
207 1 -1.1104 12.4185 -0.285882 6.55649
189 1 -1.1104 6.85533 -0.218954 9.30296
178 1 -1.1104 6.687 -2.86453 12.2654
182 1 -1.1104 6.69716 -2.75907 9.54838
179 1 -1.1104 6.70545 2.56041 12.294
183 1 -1.1104 6.65515 2.59161 9.51963
185 1 -1.1104 6.87871 -0.0979833 12.1874
211 2 2.2208 11.0834 1.25709 10.9399
212 1 -1.1104 12.2525 -2.92622 12.2819
213 1 -1.1104 12.3716 2.61774 12.4825
214 1 -1.1104 12.1685 -3.10204 9.4287
215 1 -1.1104 12.489 2.75288 9.58186
216 1 -1.1104 12.1934 -0.258353 12.1962
217 2 2.2208 10.9212 -1.5139 8.05395
218 2 2.2208 11.0834 4.1116 8.03302
219 1 -1.1104 12.3822 -0.0644246 9.37727
220 1 -1.1104 9.45652 -2.86343 12.2303
221 1 -1.1104 9.57162 2.65808 12.4236
222 2 2.2208 8.16951 1.22954 8.04402
223 1 -1.1104 9.49988 -2.98339 9.56938
224 1 -1.1104 9.56992 2.57717 9.71084
225 2 2.2208 8.25352 -1.42442 10.8754
226 2 2.2208 8.20034 4.01044 10.8293
227 1 -1.1104 9.58101 -0.127625 12.2874
228 1 -1.1104 9.60147 -0.0622158 9.28678
526 2 2.2208 5.35903 15.2467 13.6632
325 2 2.2208 11.0129 15.0998 7.98235
316 2 2.2208 8.22637 20.7952 10.682
62 1 -1.1104 1.15055 11.1246 6.54078
343 2 2.2208 2.57657 6.77292 13.6862
314 1 -1.1104 9.66352 16.6078 9.25637
238 1 -1.1104 4.07108 8.4627 6.62867
51 2 2.2208 -0.216303 12.4774 10.8694
29 2 2.2208 -0.27081 9.64172 7.98372
28 2 2.2208 -0.224852 6.84825 10.8584
240 2 2.2208 5.31931 6.81833 10.8376
241 2 2.2208 5.41105 12.3226 10.8568
242 1 -1.1104 1.25639 8.25545 12.1861
244 1 -1.1104 1.12999 8.289 9.31121
246 1 -1.1104 1.15353 5.42219 12.3339
247 1 -1.1104 1.08647 10.9334 12.1764
250 2 2.2208 5.51753 9.69615 8.15765
251 1 -1.1104 1.11966 5.52099 9.57084
252 1 -1.1104 1.14379 11.0688 9.36971
255 1 -1.1104 4.03042 8.12355 12.3295
256 2 2.2208 2.65525 6.91125 7.90892
257 2 2.2208 2.60251 12.4331 7.89988
258 1 -1.1104 3.90396 8.28209 9.45819
259 2 2.2208 2.5347 9.56025 10.8556
260 1 -1.1104 3.90614 5.30674 12.1799
261 1 -1.1104 4.03301 11.0017 12.107
262 1 -1.1104 3.92258 5.44057 9.38811
263 1 -1.1104 3.96752 10.8835 9.46223
352 2 2.2208 -0.139277 9.64222 13.566
319 1 -1.1104 9.72787 13.6953 9.50936
65 1 -1.1104 6.91347 11.0078 6.54051
322 1 -1.1104 9.5181 13.8825 12.2075
269 1 -1.1104 9.74126 5.37221 6.62722
249 1 -1.1104 6.81717 11.0093 12.3071
245 1 -1.1104 6.74078 8.26906 9.37414
248 1 -1.1104 6.842 5.35059 12.2252
243 1 -1.1104 6.79966 8.12966 12.1718
254 1 -1.1104 6.77415 11.0665 9.44958
253 1 -1.1104 6.90939 5.45249 9.46645
264 1 -1.1104 9.55432 11.0308 9.40348
268 1 -1.1104 9.74058 5.38606 9.47008
270 1 -1.1104 9.64908 11.0795 12.263
271 1 -1.1104 9.51643 5.36536 12.2424
272 2 2.2208 8.25471 9.54679 10.9146
273 1 -1.1104 9.51821 8.22088 9.4195
274 2 2.2208 8.27541 12.3634 7.99029
275 2 2.2208 8.22058 6.84776 8.1023
276 2 2.2208 11.0104 6.86245 10.8875
277 2 2.2208 11.042 12.3611 10.7859
278 1 -1.1104 12.516 8.35287 12.4017
279 1 -1.1104 12.222 8.2615 9.41412
280 1 -1.1104 12.3843 5.51314 12.233
281 1 -1.1104 12.3789 11.1609 12.3315
282 2 2.2208 10.9757 9.58239 7.98904
283 1 -1.1104 12.5086 5.625 9.49208
284 1 -1.1104 12.3546 11.0539 9.42742
285 1 -1.1104 9.66886 8.16633 12.2131
349 2 2.2208 10.9001 1.22043 -0.254155
124 1 -1.1104 3.94423 13.8323 6.48741
302 1 -1.1104 1.20661 19.376 6.65849
311 2 2.2208 -0.298045 20.9014 8.02032
312 2 2.2208 -0.0872985 17.9508 10.8926
313 2 2.2208 -0.294454 15.0908 8.01835
286 1 -1.1104 3.90235 19.4157 12.0436
287 1 -1.1104 3.95494 13.7998 12.289
291 1 -1.1104 1.08919 19.3408 9.38653
292 1 -1.1104 1.02853 16.5628 9.40645
293 2 2.2208 5.40211 20.805 7.89866
294 1 -1.1104 1.27887 13.7836 9.4377
295 2 2.2208 5.42906 15.2082 7.92189
298 1 -1.1104 1.16984 19.4007 12.0983
299 1 -1.1104 1.20525 13.8573 12.2186
300 2 2.2208 5.42135 17.9732 10.773
301 1 -1.1104 3.84569 19.5264 9.33081
303 2 2.2208 2.57954 18.0696 8.00408
304 1 -1.1104 3.90947 16.754 9.29507
305 1 -1.1104 3.99779 13.8057 9.43376
307 1 -1.1104 1.24326 16.5976 12.2288
308 1 -1.1104 4.00993 16.6399 12.1461
309 2 2.2208 2.38334 20.7817 10.7452
310 2 2.2208 2.6151 15.1559 10.8578
318 1 -1.1104 9.60308 19.4392 9.32642
321 1 -1.1104 9.52778 19.3107 12.1187
200 1 -1.1104 12.2187 19.2496 12.2184
323 1 -1.1104 12.4607 16.6112 9.30184
320 2 2.2208 8.15379 17.9303 7.92821
118 1 -1.1104 6.69777 16.7416 6.58185
143 1 -1.1104 12.4341 13.7567 6.46971
315 1 -1.1104 9.59142 16.6052 12.0207
324 2 2.2208 10.9913 20.9344 7.95807
290 1 -1.1104 6.8015 13.6585 9.49355
317 2 2.2208 8.2387 15.1476 10.7824
296 1 -1.1104 6.89313 19.3673 12.0422
289 1 -1.1104 6.90899 16.5999 9.39388
50 2 2.2208 10.9618 18.0385 10.7248
233 1 -1.1104 12.2942 19.2775 9.20848
306 1 -1.1104 6.84165 16.4925 12.1777
297 1 -1.1104 6.76482 13.6969 12.2529
288 1 -1.1104 6.81324 19.4928 9.26694
559 2 2.2208 10.9329 15.2212 13.4835
558 2 2.2208 10.8563 20.7665 13.6161
357 2 2.2208 2.65696 12.3742 13.5601
560 2 2.2208 8.22355 18.0355 13.5018
434 2 2.2208 13.6225 20.8407 -0.359937
8498 2 2.2208 5.18892 -4.32647 -0.381765
8499 2 2.2208 8.12009 -4.30886 13.6777
333 2 2.2208 5.38617 3.99764 13.6258
9247 2 2.2208 -0.35666 12.4591 -0.252235
346 2 2.2208 2.5463 -1.55774 -0.293807
348 2 2.2208 -0.288635 1.19876 -0.364465
330 2 2.2208 -0.223826 -1.51789 13.5912
341 2 2.2208 10.9113 4.09428 13.6006
332 2 2.2208 2.60659 1.20753 13.5458
9203 2 2.2208 -0.255918 18.0728 -0.327985
677 2 2.2208 8.08124 9.68045 -0.361605
8501 2 2.2208 2.47915 -4.35138 13.5769
355 2 2.2208 -0.155496 6.79549 -0.320701
361 2 2.2208 10.915 18.106 -0.342781
362 2 2.2208 5.25014 1.14006 16.572
363 1 -1.1104 1.18725 -2.95527 17.7308
364 1 -1.1104 1.0894 2.66135 17.8124
367 1 -1.1104 1.09509 -3.00247 15.02
369 1 -1.1104 1.09908 2.61501 14.9521
375 1 -1.1104 1.15024 -0.178109 17.8717
377 2 2.2208 5.39727 -1.70137 19.3367
378 2 2.2208 5.4206 3.94189 19.3794
379 1 -1.1104 1.16209 -0.161312 15.0237
383 1 -1.1104 3.87383 -3.04829 17.786
384 1 -1.1104 3.87061 2.65949 17.7503
385 2 2.2208 2.53779 1.23418 19.3249
386 1 -1.1104 3.82744 -3.09111 15.0366
388 1 -1.1104 3.86429 2.64138 14.9829
390 2 2.2208 2.5378 -1.49379 16.3542
392 1 -1.1104 4.02201 -0.224683 17.975
393 1 -1.1104 3.94361 -0.243306 15.0436
398 2 2.2208 -0.204941 1.21049 16.4324
429 2 2.2208 -0.354183 4.09975 19.2747
9374 2 2.2208 -0.177901 -1.68568 19.2533
391 2 2.2208 2.65005 3.89947 16.3362
380 1 -1.1104 1.20821 -0.349505 20.6624
368 1 -1.1104 1.22573 -3.09761 20.6088
370 1 -1.1104 1.2472 2.47306 20.7241
8583 2 2.2208 5.46991 -4.37367 22.1496
9401 2 2.2208 -0.259067 9.73254 19.2852
17330 2 2.2208 -0.237698 -4.27496 16.4761
373 1 -1.1104 6.62063 2.57951 15.1099
366 1 -1.1104 6.72527 2.60819 17.9697
381 1 -1.1104 6.86366 -0.252645 14.9736
371 1 -1.1104 6.64957 -2.93314 15.2071
365 1 -1.1104 6.73146 -3.07839 17.9735
376 1 -1.1104 6.64219 -0.194575 17.8779
405 2 2.2208 10.8401 1.25128 16.4792
406 1 -1.1104 12.3688 -2.82771 18.0015
407 1 -1.1104 12.2886 2.51604 17.85
408 1 -1.1104 12.2686 -3.00243 15.1496
410 1 -1.1104 12.2852 2.51218 15.1274
412 1 -1.1104 12.3613 -0.107393 17.9418
413 2 2.2208 10.8772 -1.62517 19.3845
414 2 2.2208 10.8924 3.97408 19.3284
415 1 -1.1104 12.4102 -0.120053 15.1413
417 1 -1.1104 9.47075 -3.00376 17.8265
418 1 -1.1104 9.55024 2.6605 17.9337
419 2 2.2208 8.16039 1.1733 19.3766
420 1 -1.1104 9.48285 -2.95638 14.9921
422 1 -1.1104 9.41921 2.67543 15.1212
424 2 2.2208 8.16292 -1.60696 16.5371
425 2 2.2208 7.97396 3.93794 16.5102
426 1 -1.1104 9.4982 -0.159777 17.9569
427 1 -1.1104 9.52992 -0.124877 15.2058
416 1 -1.1104 12.4465 -0.273105 20.5088
372 1 -1.1104 6.80379 -3.04134 20.7795
421 1 -1.1104 9.52684 -3.01246 20.6638
411 1 -1.1104 12.4217 2.55021 20.6873
438 2 2.2208 5.32728 6.85923 16.4225
439 2 2.2208 5.31728 12.4628 16.5
440 1 -1.1104 1.1735 8.27636 17.8017
442 1 -1.1104 1.21047 8.19937 14.9288
446 1 -1.1104 0.961196 5.42019 17.9791
447 1 -1.1104 1.12944 11.0249 17.9665
450 2 2.2208 5.29781 9.55566 19.1627
451 1 -1.1104 1.33556 5.41578 15.2073
453 1 -1.1104 1.14534 10.8947 15.0915
459 1 -1.1104 3.88867 8.20408 17.8212
460 2 2.2208 2.64393 6.88097 19.256
461 2 2.2208 2.29082 12.6758 19.2563
462 1 -1.1104 4.01899 8.27828 15.1467
464 2 2.2208 2.56921 9.69184 16.4866
465 1 -1.1104 3.9261 5.49909 17.7167
466 1 -1.1104 3.89803 11.139 17.8152
467 1 -1.1104 3.95719 5.35994 14.8757
469 1 -1.1104 3.95024 10.9459 14.868
400 2 2.2208 -0.206071 12.5106 16.4347
443 1 -1.1104 1.05979 8.24396 20.7444
463 1 -1.1104 3.83791 8.3112 20.6651
468 1 -1.1104 3.883 5.43285 20.6587
456 1 -1.1104 6.9328 5.3538 20.6289
620 2 2.2208 -0.192477 6.86965 16.4352
360 2 2.2208 8.10356 15.2146 27.6812
396 2 2.2208 -0.157134 6.80321 22.0187
448 1 -1.1104 6.654 5.41458 17.8788
441 1 -1.1104 6.79792 8.18761 17.7218
449 1 -1.1104 6.70948 11.0917 17.8369
457 1 -1.1104 6.59138 10.955 15.0848
444 1 -1.1104 6.72137 8.15009 14.9814
455 1 -1.1104 6.73714 5.42343 15.1929
474 2 2.2208 10.8108 6.95121 16.4039
475 2 2.2208 10.9249 12.4408 16.4686
476 1 -1.1104 12.3877 8.15372 17.8087
477 1 -1.1104 12.2131 8.15253 14.9792
479 1 -1.1104 12.38 5.31703 17.9601
480 1 -1.1104 12.4372 11.1123 17.9533
481 2 2.2208 10.8472 9.64441 19.331
482 1 -1.1104 12.3123 5.34922 15.2472
484 1 -1.1104 12.4218 10.9886 15.0999
486 1 -1.1104 9.5207 8.31973 17.8582
487 2 2.2208 8.19519 6.70734 19.2099
488 2 2.2208 8.21378 12.5563 19.1436
489 1 -1.1104 9.57653 8.46728 15.0883
491 2 2.2208 8.0212 9.75645 16.5524
492 1 -1.1104 9.51945 5.4634 17.8376
493 1 -1.1104 9.48709 11.088 17.7523
494 1 -1.1104 9.42326 5.41438 15.0058
496 1 -1.1104 9.49747 11.1358 14.9929
483 1 -1.1104 12.3774 5.34654 20.8849
445 1 -1.1104 6.67591 8.15572 20.6828
478 1 -1.1104 12.2799 8.17767 20.6402
485 1 -1.1104 12.3514 11.0684 20.7378
497 1 -1.1104 9.45046 11.003 20.4801
490 1 -1.1104 9.43374 8.0898 20.5252
458 1 -1.1104 6.59583 10.9125 20.7331
9478 2 2.2208 0.0182367 18.2466 16.3374
503 1 -1.1104 1.25906 20.0827 17.87
397 1 -1.1104 3.98634 19.7503 17.5984
501 2 2.2208 5.38692 18.1976 16.2832
502 1 -1.1104 0.932292 14.0184 17.7528
506 1 -1.1104 1.14344 13.6448 15.0896
508 1 -1.1104 1.16656 19.5263 15.1085
514 1 -1.1104 1.25563 17.0194 17.7843
516 2 2.2208 5.27276 15.2655 19.2027
517 1 -1.1104 1.22347 16.7709 14.9516
521 1 -1.1104 3.82187 13.952 17.9204
522 2 2.2208 2.80463 18.4145 19.021
523 1 -1.1104 3.91459 13.8341 15.012
525 1 -1.1104 3.94162 19.614 14.876
527 2 2.2208 2.40119 15.3485 16.4313
528 2 2.2208 2.6545 21.0887 16.2113
529 1 -1.1104 4.03627 16.7321 17.7554
530 1 -1.1104 3.94494 16.5847 15.0458
518 1 -1.1104 1.07891 19.0164 20.7398
531 1 -1.1104 3.54234 16.8159 20.7403
524 1 -1.1104 3.84571 14.0148 20.7569
504 1 -1.1104 6.67979 14.0215 17.8803
682 1 -1.1104 3.85739 19.6422 20.6663
520 1 -1.1104 6.48932 16.7083 20.5436
657 1 -1.1104 12.515 16.5684 23.4437
545 1 -1.1104 12.3082 16.6907 20.6296
538 1 -1.1104 12.5195 13.9103 20.5676
510 1 -1.1104 6.65467 13.7709 15.0289
512 1 -1.1104 6.8083 19.418 14.8476
515 1 -1.1104 6.78682 16.68 17.7432
519 1 -1.1104 6.82839 16.6935 15.0275
505 1 -1.1104 6.91014 19.4365 17.5116
534 2 2.2208 10.9469 18.1502 16.3633
535 1 -1.1104 12.354 13.9414 17.9112
536 1 -1.1104 12.4341 19.4935 17.8498
537 1 -1.1104 12.2491 13.8713 15.0094
539 1 -1.1104 12.312 19.462 14.9027
541 1 -1.1104 12.3464 16.6379 17.7156
542 2 2.2208 10.8912 15.3981 19.1257
543 2 2.2208 10.7008 20.915 19.1901
544 1 -1.1104 12.3886 16.6877 14.847
546 1 -1.1104 9.51119 13.7717 17.7752
547 1 -1.1104 9.67211 19.4452 17.8241
548 2 2.2208 8.11029 18.0244 19.2246
549 1 -1.1104 9.5178 13.7663 15.0238
551 1 -1.1104 9.49539 19.3641 14.9323
553 2 2.2208 8.0836 15.41 16.5029
554 2 2.2208 8.11414 20.8243 16.3475
555 1 -1.1104 9.50389 16.7734 17.7377
556 1 -1.1104 9.60269 16.5569 14.9052
557 1 -1.1104 9.33578 16.4588 20.4931
552 1 -1.1104 9.61961 19.2448 20.7191
511 1 -1.1104 6.6617 13.8692 20.5152
399 2 2.2208 13.7141 18.093 24.7521
387 1 -1.1104 4.04567 -2.94617 20.8095
596 2 2.2208 -0.242193 1.18233 22.1695
389 1 -1.1104 4.05745 2.5153 20.5276
394 1 -1.1104 3.96186 -0.213576 20.7363
597 2 2.2208 -0.223656 3.93421 24.8781
562 2 2.2208 5.32166 1.2128 22.0805
563 1 -1.1104 1.08134 -3.1688 23.4766
564 1 -1.1104 1.07558 2.53108 23.5213
567 1 -1.1104 1.27946 -2.88491 26.3153
568 1 -1.1104 1.06523 2.52394 26.3702
571 1 -1.1104 1.18842 -0.253323 23.4556
573 2 2.2208 5.3319 -1.58574 24.8867
574 2 2.2208 5.24751 3.9281 24.9168
575 1 -1.1104 0.95573 -0.172134 26.173
577 1 -1.1104 3.98444 -2.96897 23.6702
578 1 -1.1104 3.94978 2.72223 23.436
579 2 2.2208 2.46955 1.10764 24.8382
580 1 -1.1104 3.86661 -2.89163 26.4229
581 1 -1.1104 3.80654 2.62579 26.2931
582 2 2.2208 2.54467 -1.62284 22.1307
583 2 2.2208 2.4531 4.00276 22.1483
584 1 -1.1104 3.95678 -0.182986 23.568
585 1 -1.1104 3.78734 -0.216934 26.233
9376 2 2.2208 -0.277447 -1.69763 25.0282
402 2 2.2208 13.6722 6.76334 19.3156
8611 2 2.2208 2.66074 -4.33748 19.2918
423 1 -1.1104 9.69584 2.50008 20.7374
588 1 -1.1104 9.54363 19.4282 26.248
339 2 2.2208 10.9417 -1.50467 13.7763
565 1 -1.1104 6.91926 -3.05417 23.5562
569 1 -1.1104 6.6744 -2.98889 26.2898
428 1 -1.1104 9.63477 -0.261027 20.8845
374 1 -1.1104 6.74702 2.57532 20.692
382 1 -1.1104 6.79486 -0.333071 20.7778
570 1 -1.1104 6.70025 2.56248 26.2828
566 1 -1.1104 6.59778 2.64689 23.6712
576 1 -1.1104 6.77661 -0.174367 26.1149
572 1 -1.1104 6.8034 -0.0639873 23.4273
409 1 -1.1104 12.4159 -2.96585 20.7404
598 2 2.2208 11.0591 1.14201 22.1162
599 1 -1.1104 12.4497 -2.88698 23.5758
600 1 -1.1104 12.3453 2.63132 23.5361
601 1 -1.1104 12.3169 -2.77154 26.3354
602 1 -1.1104 12.4265 2.60559 26.4578
603 1 -1.1104 12.3507 -0.170706 23.466
604 2 2.2208 11.0741 -1.51243 24.9692
605 2 2.2208 10.9856 4.06359 24.9153
606 1 -1.1104 12.3865 0.0266828 26.2806
607 1 -1.1104 9.67886 -3.10245 23.5457
608 1 -1.1104 9.47892 2.49759 23.6312
609 2 2.2208 8.16824 1.12215 24.856
610 1 -1.1104 9.46059 -2.878 26.3285
611 1 -1.1104 9.40165 2.55652 26.2872
612 2 2.2208 8.21098 -1.57341 22.2201
613 2 2.2208 8.21606 3.93749 22.1555
614 1 -1.1104 9.54138 -0.172808 23.5524
615 1 -1.1104 9.67224 -0.303906 26.4209
435 2 2.2208 13.6317 3.93158 16.4706
452 1 -1.1104 1.19562 5.40513 20.6557
470 1 -1.1104 3.68468 11.0244 20.6261
454 1 -1.1104 0.967141 11.1416 20.5918
595 2 2.2208 8.21639 6.82277 13.6804
655 2 2.2208 -0.222032 9.71384 24.8233
652 1 -1.1104 6.7008 16.6207 23.4472
627 2 2.2208 5.25255 6.81677 22.0717
628 2 2.2208 5.18143 12.442 21.9459
629 1 -1.1104 1.14449 8.23849 23.3831
631 1 -1.1104 1.17165 8.43871 26.1232
633 1 -1.1104 0.955465 5.36484 23.3958
634 1 -1.1104 1.06962 11.0831 23.4834
637 2 2.2208 5.33591 9.67933 24.7364
638 1 -1.1104 1.09094 5.52756 26.1791
639 1 -1.1104 1.08202 11.1125 26.2503
642 1 -1.1104 3.9554 8.36513 23.257
643 2 2.2208 2.48726 6.97043 24.7948
644 2 2.2208 2.41767 12.4678 24.8619
645 1 -1.1104 3.83601 8.19576 26.091
646 2 2.2208 2.42391 9.7102 21.9718
647 1 -1.1104 3.69587 5.40781 23.4497
648 1 -1.1104 3.8884 11.1956 23.52
649 1 -1.1104 4.08505 5.13443 26.3397
650 1 -1.1104 4.02062 11.0317 26.2606
358 2 2.2208 2.57897 9.66349 27.4732
623 2 2.2208 10.9623 18.0167 22.0006
500 1 -1.1104 9.67915 19.3258 23.4813
676 1 -1.1104 12.2827 19.4684 26.2539
495 1 -1.1104 9.64184 5.37774 20.7496
630 1 -1.1104 6.82045 8.28433 23.4974
636 1 -1.1104 6.71981 10.9973 23.3518
640 1 -1.1104 6.88961 5.31175 26.2666
641 1 -1.1104 6.8105 10.9719 26.2044
632 1 -1.1104 6.56822 8.18015 26.2086
635 1 -1.1104 6.6313 5.42754 23.504
658 1 -1.1104 9.56092 11.1817 26.243
659 1 -1.1104 9.75148 5.46393 26.3021
660 1 -1.1104 9.59707 10.9169 23.398
661 1 -1.1104 9.71155 5.23674 23.4671
662 2 2.2208 8.03707 9.51365 22.091
663 1 -1.1104 9.3084 8.25646 26.3083
664 2 2.2208 8.09489 12.356 24.7782
665 2 2.2208 8.216 6.72417 24.8329
666 2 2.2208 11.1095 6.80544 22.0926
667 2 2.2208 10.8881 12.3779 21.9914
668 1 -1.1104 12.359 8.23407 23.4083
669 1 -1.1104 12.2063 8.3735 26.2615
670 1 -1.1104 12.4465 5.45059 23.4775
671 1 -1.1104 12.3702 10.9895 23.5121
672 2 2.2208 10.8238 9.73437 24.8998
673 1 -1.1104 12.4015 5.60288 26.1649
674 1 -1.1104 12.3942 11.1908 26.2232
675 1 -1.1104 9.48832 8.15147 23.4466
9242 2 2.2208 -0.353295 15.2722 24.8364
692 1 -1.1104 6.67138 13.8529 23.3088
680 2 2.2208 2.46304 15.1821 27.6322
9201 2 2.2208 -0.341961 20.7029 24.9172
329 2 2.2208 10.9494 12.57 27.641
654 1 -1.1104 12.273 19.4896 23.4629
507 1 -1.1104 1.08962 13.7413 20.9124
1200 1 -1.1104 3.82641 19.7297 23.389
430 2 2.2208 2.21168 20.6728 21.8411
431 1 -1.1104 4.04812 16.8821 23.2966
473 1 -1.1104 1.20886 16.7319 23.1933
621 2 2.2208 2.60702 15.1652 22.2507
684 1 -1.1104 3.79977 13.8827 23.5761
686 1 -1.1104 1.11254 19.3671 26.1659
687 1 -1.1104 1.10588 16.7321 26.2256
688 1 -1.1104 0.957046 13.9583 26.2525
690 2 2.2208 5.36878 20.7515 24.8422
691 2 2.2208 5.35736 15.1962 24.8386
693 1 -1.1104 0.861288 19.3765 23.3904
694 1 -1.1104 1.09465 13.9591 23.5253
695 2 2.2208 5.32617 18.2341 22.0254
696 1 -1.1104 3.96076 19.3449 26.1178
697 2 2.2208 2.47716 18.0633 24.7196
698 1 -1.1104 3.70071 16.3971 25.9851
699 1 -1.1104 3.92373 13.7525 26.2701
689 1 -1.1104 6.75296 19.3261 23.421
683 1 -1.1104 6.60401 13.6772 26.0521
331 2 2.2208 5.34476 -1.65641 13.6958
593 2 2.2208 10.9627 -4.36656 22.0463
533 2 2.2208 8.17822 17.9973 24.9123
617 1 -1.1104 9.5441 16.7316 23.4971
685 1 -1.1104 6.6114 16.5222 26.2776
540 1 -1.1104 12.5511 19.3174 20.7497
499 1 -1.1104 9.54872 13.9434 23.483
550 1 -1.1104 9.51799 13.8199 20.683
513 1 -1.1104 6.89991 19.5076 20.7945
587 1 -1.1104 9.59589 13.9519 26.3
586 1 -1.1104 6.59862 19.3142 26.1967
624 1 -1.1104 12.3198 13.805 23.4462
437 1 -1.1104 12.1918 16.5412 26.3141
618 1 -1.1104 9.42411 16.6844 26.3287
616 2 2.2208 8.12072 20.7839 22.1027
656 1 -1.1104 12.3579 13.7953 26.2382
622 2 2.2208 10.9455 20.7889 24.8104
594 2 2.2208 8.08742 15.2959 22.0411
626 2 2.2208 10.9063 15.3175 24.8126
653 2 2.2208 5.35933 12.3981 27.5903
619 2 2.2208 8.0745 20.8862 27.605
342 2 2.2208 10.9563 9.76456 13.6853
347 2 2.2208 10.9484 6.89316 27.6951
9348 2 2.2208 -0.0681892 15.2985 13.7482
338 2 2.2208 -0.205049 4.03033 13.7065
432 2 2.2208 2.58799 20.8781 27.4063
356 2 2.2208 2.53405 3.99726 27.6278
337 2 2.2208 8.22409 1.08078 13.8127
678 2 2.2208 5.10241 17.9022 27.4619
651 2 2.2208 5.4357 6.84935 27.5151
350 2 2.2208 8.11405 -1.55881 27.5942
498 2 2.2208 8.08024 12.4792 13.7103
345 2 2.2208 5.29168 1.30017 27.6702
472 2 2.2208 5.35425 9.49373 13.6903
700 2 2.2208 5.31493 23.5419 5.20716
701 2 2.2208 5.32722 29.3246 5.19181
702 1 -1.1104 1.00224 25.0319 1.03123
703 1 -1.1104 0.990427 25.0102 3.75579
704 1 -1.1104 1.08019 22.0307 0.986539
705 1 -1.1104 1.05055 27.7331 1.07655
706 2 2.2208 5.25179 26.4653 2.53299
707 1 -1.1104 1.16026 22.2326 3.783
708 1 -1.1104 0.968776 27.8118 3.85158
709 1 -1.1104 3.83245 25.0207 1.0588
710 2 2.2208 2.46585 23.5638 2.35638
711 2 2.2208 2.40504 29.1828 2.47285
712 1 -1.1104 3.84263 25.0188 3.79162
713 2 2.2208 2.39218 26.3897 5.1265
714 1 -1.1104 3.9422 22.2054 0.793433
715 1 -1.1104 3.6775 27.8556 1.17234
716 1 -1.1104 3.92139 22.2187 3.54039
717 1 -1.1104 3.75566 27.8696 3.83753
1002 2 2.2208 13.6099 37.669 10.7483
718 2 2.2208 -0.355993 26.4394 2.43354
979 1 -1.1104 9.28237 44.6262 6.87975
839 1 -1.1104 1.00211 22.2528 6.6332
844 1 -1.1104 3.83343 22.2185 6.53544
721 1 -1.1104 6.61214 24.9773 1.08057
9785 2 2.2208 -0.271884 29.2006 5.26408
1006 2 2.2208 -0.36492 46.0544 5.14339
840 1 -1.1104 1.15619 27.6879 6.56636
845 1 -1.1104 3.92858 27.8448 6.61167
843 1 -1.1104 3.89009 24.9933 6.60127
1548 1 -1.1104 3.86837 47.4325 12.314
1001 2 2.2208 13.58 34.9247 7.92556
725 1 -1.1104 6.70407 22.2964 3.792
723 1 -1.1104 6.63577 22.2033 1.02051
722 1 -1.1104 6.73942 25.0315 3.89183
726 1 -1.1104 6.63819 27.8985 3.89777
724 1 -1.1104 6.57981 27.7213 1.11317
727 2 2.2208 10.9925 23.618 5.22463
728 2 2.2208 10.8442 29.3216 5.24668
729 1 -1.1104 12.3251 25.0948 0.919959
730 1 -1.1104 12.235 24.9688 3.85914
731 1 -1.1104 12.2616 22.3049 1.04441
732 1 -1.1104 12.3545 27.8867 0.84618
733 2 2.2208 10.8694 26.3978 2.43028
734 1 -1.1104 12.4097 22.2028 3.71393
735 1 -1.1104 12.3775 27.7194 3.73201
736 1 -1.1104 9.39114 24.965 1.10813
737 2 2.2208 8.12382 23.7058 2.41595
738 2 2.2208 8.19787 29.3152 2.35581
739 1 -1.1104 9.51972 25.1376 3.99401
740 2 2.2208 8.28798 26.5443 5.32458
741 1 -1.1104 9.53724 22.3663 1.00967
742 1 -1.1104 9.48736 27.7954 1.0949
743 1 -1.1104 9.59092 22.2997 3.84202
744 1 -1.1104 9.5469 27.9369 3.78562
841 1 -1.1104 6.64903 22.3598 6.68861
873 1 -1.1104 9.44372 22.273 6.56695
870 1 -1.1104 12.2689 22.1759 6.54486
1296 2 2.2208 5.15594 46.1278 -0.342165
869 1 -1.1104 12.356 25.0171 6.54823
871 1 -1.1104 12.2865 27.9857 6.57262
1551 1 -1.1104 3.75742 47.4624 9.56039
748 2 2.2208 5.19417 34.8621 5.21315
749 1 -1.1104 0.904633 30.5274 0.969084
750 1 -1.1104 0.896729 36.2328 0.986545
752 1 -1.1104 1.14051 30.6185 3.84358
753 1 -1.1104 1.11363 36.2691 3.77377
755 1 -1.1104 1.0531 33.4022 0.980606
756 2 2.2208 5.20787 31.996 2.21647
757 2 2.2208 5.22366 37.7294 2.35059
758 1 -1.1104 1.13523 33.4349 3.76464
760 1 -1.1104 3.82617 30.616 1.00652
761 1 -1.1104 3.73248 36.2125 1.12702
762 2 2.2208 2.48752 34.8644 2.45289
763 1 -1.1104 3.85016 30.595 3.89766
764 1 -1.1104 3.8222 36.3187 3.80218
765 2 2.2208 2.49705 32.0871 5.24302
766 2 2.2208 2.39482 37.6255 5.20679
767 1 -1.1104 3.76699 33.3607 1.12094
768 1 -1.1104 3.95801 33.3563 3.79057
993 2 2.2208 10.8154 43.4131 8.21478
888 1 -1.1104 1.17343 30.6222 6.58091
751 1 -1.1104 6.50465 36.252 0.914149
1584 1 -1.1104 9.3524 47.4676 9.52856
894 1 -1.1104 3.8841 30.7675 6.59189
9990 2 2.2208 13.6462 46.0954 13.6168
774 1 -1.1104 6.70726 33.357 0.854989
772 1 -1.1104 6.77055 30.614 0.826222
773 1 -1.1104 6.78325 30.685 3.6682
759 1 -1.1104 6.55092 33.4403 3.79306
754 1 -1.1104 6.66695 36.3173 3.81208
775 2 2.2208 10.7237 34.7617 5.27306
776 1 -1.1104 12.4875 30.6503 0.953469
777 1 -1.1104 12.2239 36.3561 1.21074
778 1 -1.1104 12.2351 30.506 3.88426
780 1 -1.1104 12.3383 33.5044 0.883158
781 2 2.2208 10.9942 32.0628 2.324
782 2 2.2208 10.6792 37.6883 2.06
783 1 -1.1104 12.1032 33.8037 3.80846
784 1 -1.1104 9.64349 30.7591 1.03567
785 1 -1.1104 9.23528 36.3152 0.824843
786 2 2.2208 8.01413 34.8098 2.3091
787 1 -1.1104 9.63256 30.7297 3.71262
788 1 -1.1104 9.81054 36.1836 3.66756