ITEM: TIMESTEP
20000
ITEM: NUMBER OF ATOMS
17640
ITEM: BOX BOUNDS pp pp pp
-3.6261002157651873e-01 2.7702610021576959e+01
-4.4120285279528790e+00 3.3249202852795088e+02
-3.6456625078457500e-01 2.7704566250784094e+01
ITEM: ATOMS id type q x y z
1 2 2.2208 5.45712 1.24631 5.22963
2 1 -1.1104 1.31047 -3.00793 1.04444
3 1 -1.1104 1.18146 2.56888 1.14396
6 1 -1.1104 1.3368 -3.07849 3.91307
7 1 -1.1104 1.20359 2.76637 4.08979
10 1 -1.1104 1.32135 -0.215373 1.14315
12 2 2.2208 5.42722 -1.65594 2.45888
13 2 2.2208 5.49946 3.8973 2.43339
14 1 -1.1104 1.20707 -0.183271 3.92855
16 1 -1.1104 4.05671 -3.00456 1.1564
17 1 -1.1104 4.12038 2.67427 1.00892
18 2 2.2208 2.55649 1.17337 2.52941
19 1 -1.1104 4.09991 -2.96455 3.82413
20 1 -1.1104 4.06787 2.53788 3.80314
21 2 2.2208 2.7368 -1.60513 5.39979
22 2 2.2208 2.51317 4.04196 5.38994
23 1 -1.1104 4.04353 -0.240379 1.18324
24 1 -1.1104 4.08908 -0.221048 3.9626
27 2 2.2208 -0.14083 4.00914 2.59937
17261 2 2.2208 -0.235333 -4.32839 10.8055
170 1 -1.1104 1.18943 -0.19632 6.78931
166 1 -1.1104 1.38903 -2.9122 6.66181
167 1 -1.1104 0.99504 2.72682 6.84716
173 1 -1.1104 3.91771 2.67898 6.67352
8896 2 2.2208 -0.155896 -1.54817 2.52772
26 2 2.2208 -0.284347 1.18581 5.47359
11 1 -1.1104 6.88677 -0.369817 1.00692
5 1 -1.1104 6.77379 2.4017 1.06077
8 1 -1.1104 6.83542 -3.10811 3.95414
9 1 -1.1104 6.93271 2.50614 3.89733
15 1 -1.1104 6.77604 -0.167964 3.86156
4 1 -1.1104 6.93887 -3.12338 1.04908
31 2 2.2208 11.1633 1.27027 5.25083
32 1 -1.1104 12.483 -2.907 1.14358
33 1 -1.1104 12.4397 2.63309 0.942921
34 1 -1.1104 12.5908 -2.99542 3.81348
35 1 -1.1104 12.5501 2.59535 3.82383
36 1 -1.1104 12.4718 -0.0584335 1.11778
37 2 2.2208 11.1844 -1.53915 2.48918
38 2 2.2208 11.0874 4.04322 2.36573
39 1 -1.1104 12.5825 -0.213454 3.93928
40 1 -1.1104 9.65264 -3.02786 1.09597
41 1 -1.1104 9.60257 2.64361 1.0292
42 2 2.2208 8.25615 1.10985 2.44124
43 1 -1.1104 9.77485 -2.86601 3.7616
44 1 -1.1104 9.7012 2.59311 3.73766
45 2 2.2208 8.28499 -1.53009 5.13201
46 2 2.2208 8.3127 4.04729 5.29569
47 1 -1.1104 9.61844 -0.188168 1.10017
48 1 -1.1104 9.68144 -0.145217 3.86751
208 1 -1.1104 9.64263 -2.91244 6.54804
209 1 -1.1104 9.56258 2.68427 6.64503
210 1 -1.1104 9.72401 -0.146091 6.68995
206 1 -1.1104 12.4268 2.61995 6.65183
169 1 -1.1104 6.62896 2.55353 6.77338
8484 2 2.2208 2.61441 -4.46616 2.57934
171 1 -1.1104 6.87972 -0.145759 6.69823
207 1 -1.1104 12.4992 -0.276651 6.56196
168 1 -1.1104 6.99986 -2.96415 6.63022
9161 2 2.2208 13.5965 20.794 5.19279
232 2 2.2208 13.6535 15.2285 5.04553
83 2 2.2208 -0.250835 12.4541 5.231
54 2 2.2208 5.43866 6.91966 5.18162
55 2 2.2208 5.394 12.3876 5.19362
56 1 -1.1104 1.27939 8.03776 0.92285
58 1 -1.1104 1.109 8.07255 3.71877
60 1 -1.1104 1.28835 5.32766 1.2174
61 1 -1.1104 1.0415 10.8571 1.10877
66 2 2.2208 5.35932 9.71197 2.33153
67 1 -1.1104 1.26701 5.44701 3.99008
68 1 -1.1104 1.14929 11.0668 3.87782
71 1 -1.1104 3.97602 8.2376 1.23105
72 2 2.2208 2.60009 6.7832 2.47032
73 2 2.2208 2.47618 12.3803 2.42532
74 1 -1.1104 3.93375 8.29492 3.96805
75 2 2.2208 2.48476 9.63896 5.31781
76 1 -1.1104 4.15056 5.42581 1.02309
77 1 -1.1104 3.8944 10.9808 0.995011
79 1 -1.1104 4.04944 5.25467 3.98075
80 1 -1.1104 3.94815 11.1876 3.77453
81 2 2.2208 -0.280928 6.93018 5.30674
82 2 2.2208 -0.228844 9.53821 2.44912
238 1 -1.1104 4.03008 8.28623 6.53773
78 1 -1.1104 3.97739 11.113 6.61455
62 1 -1.1104 1.12406 11.2061 6.69682
236 1 -1.1104 1.11029 5.58402 6.77932
239 1 -1.1104 3.98255 5.36111 6.7367
234 1 -1.1104 1.14677 8.41229 6.691
337 2 2.2208 8.26564 1.08314 13.6416
8487 2 2.2208 11.0314 -4.30064 5.26073
59 1 -1.1104 7.00078 8.187 3.80334
70 1 -1.1104 6.78986 11.0165 3.84083
63 1 -1.1104 7.00478 5.32474 0.932716
57 1 -1.1104 6.91703 8.03084 1.00143
64 1 -1.1104 6.80976 11.1243 1.11144
69 1 -1.1104 6.87359 5.36174 3.81251
84 2 2.2208 11.0344 6.86866 5.2096
85 2 2.2208 11.0747 12.5436 5.31324
86 1 -1.1104 12.4346 8.24936 1.11536
87 1 -1.1104 12.5416 8.19904 3.79789
88 1 -1.1104 12.5783 5.3429 1.22157
89 1 -1.1104 12.1955 11.2052 1.05107
91 2 2.2208 11.1047 9.69957 2.53082
92 1 -1.1104 12.4879 5.39242 3.77362
93 1 -1.1104 12.3672 11.1101 3.92343
94 1 -1.1104 9.7606 8.16733 1.04504
95 2 2.2208 8.36912 6.78931 2.40808
96 2 2.2208 8.19707 12.4663 2.43235
97 1 -1.1104 9.73757 8.42579 3.87797
98 2 2.2208 8.38172 9.76667 5.21634
99 1 -1.1104 9.80037 5.37916 1.0611
100 1 -1.1104 9.51743 10.9888 1.05743
102 1 -1.1104 9.6187 5.47397 3.76825
103 1 -1.1104 9.62399 11.148 3.78653
267 1 -1.1104 9.42576 8.35978 6.64519
266 1 -1.1104 12.5555 5.40745 6.63877
235 1 -1.1104 6.71148 8.41677 6.59479
101 1 -1.1104 9.66993 11.1827 6.62264
269 1 -1.1104 9.66768 5.62667 6.67728
65 1 -1.1104 6.90884 11.1993 6.57823
237 1 -1.1104 6.94785 5.49862 6.68523
135 2 2.2208 -0.34671 15.3409 2.41744
8491 2 2.2208 11.1193 -4.41465 10.7601
106 2 2.2208 5.26378 17.9809 5.16111
107 1 -1.1104 1.06938 13.7701 1.17806
109 1 -1.1104 0.94106 19.4494 0.997114
113 1 -1.1104 0.887739 13.9603 3.94578
114 1 -1.1104 1.04874 19.5016 3.74587
116 1 -1.1104 1.0152 16.6559 0.852472
119 2 2.2208 5.19587 15.09 2.33672
120 2 2.2208 5.31112 20.8072 2.21067
121 1 -1.1104 1.10636 16.7786 3.69959
123 1 -1.1104 3.99208 13.7219 0.835206
125 1 -1.1104 3.73501 19.2666 0.926254
127 2 2.2208 2.40404 18.0879 2.30753
128 1 -1.1104 3.75198 13.8718 3.76106
129 1 -1.1104 3.86889 19.5675 3.77447
130 2 2.2208 2.53216 15.3054 5.24836
131 2 2.2208 2.43642 20.9518 5.08136
132 1 -1.1104 3.82872 16.5802 0.996108
134 1 -1.1104 3.8021 16.6734 3.70181
137 2 2.2208 -0.324552 18.0999 5.17591
302 1 -1.1104 1.12829 19.6039 6.58884
122 1 -1.1104 6.68366 16.6584 3.89965
138 1 -1.1104 6.72508 19.3971 0.867115
117 1 -1.1104 1.12019 16.7808 6.40891
124 1 -1.1104 3.97822 13.8324 6.62621
352 2 2.2208 -0.189011 9.62752 13.6668
319 1 -1.1104 9.67116 13.7784 9.45471
233 1 -1.1104 12.2945 19.4256 9.34235
118 1 -1.1104 6.67611 16.7207 6.60724
143 1 -1.1104 12.3582 13.8599 6.5946
110 1 -1.1104 6.79857 13.9013 1.00451
139 1 -1.1104 6.80295 19.4446 3.64292
115 1 -1.1104 6.65351 13.8028 3.79476
140 1 -1.1104 6.63872 16.6324 1.07034
141 2 2.2208 10.8139 18.0979 5.25297
142 1 -1.1104 12.5081 13.8622 0.967947
144 1 -1.1104 12.1811 19.5475 0.990413
146 1 -1.1104 12.2472 13.7992 3.80181
147 1 -1.1104 12.348 19.3076 3.76653
148 1 -1.1104 12.412 16.7195 0.969366
150 2 2.2208 10.7793 15.2376 2.47024
151 2 2.2208 10.8069 20.8656 2.37724
152 1 -1.1104 12.1664 16.6551 3.73248
153 1 -1.1104 9.45789 13.8975 1.15647
155 1 -1.1104 9.3613 19.5501 1.03922
157 2 2.2208 8.12288 18.1202 2.43272
158 1 -1.1104 9.49938 13.7757 3.87891
159 1 -1.1104 9.69435 19.3426 3.76543
160 2 2.2208 8.13056 15.3566 5.26668
161 2 2.2208 8.08717 20.8112 5.19339
162 1 -1.1104 9.44108 16.7103 1.02474
164 1 -1.1104 9.40414 16.6055 3.84527
154 1 -1.1104 9.52479 13.9483 6.62878
163 1 -1.1104 9.4495 16.7723 6.64495
145 1 -1.1104 12.3305 19.4544 6.65629
156 1 -1.1104 9.58697 19.6486 6.61826
149 1 -1.1104 12.2487 16.5718 6.46479
17265 2 2.2208 -0.050203 -4.33322 5.24351
356 2 2.2208 2.71967 4.03858 -0.327044
199 2 2.2208 -0.187648 3.99404 8.21328
8485 2 2.2208 5.55796 -4.36781 5.29967
136 2 2.2208 -0.326578 20.8129 2.22427
296 1 -1.1104 6.8235 19.6422 11.9756
201 2 2.2208 -0.187565 1.12085 11.0109
174 1 -1.1104 4.04158 -0.202358 6.66361
8869 2 2.2208 -0.0571199 -1.56827 8.29069
172 1 -1.1104 4.2037 -3.04306 6.76325
175 2 2.2208 5.35898 1.18968 10.9811
176 1 -1.1104 1.05512 -2.93789 12.1666
177 1 -1.1104 1.29207 2.48238 12.4851
180 1 -1.1104 1.22177 -3.07296 9.44005
181 1 -1.1104 1.35697 2.66731 9.46418
184 1 -1.1104 1.25802 -0.338058 12.2922
186 2 2.2208 5.51168 -1.60058 8.13832
187 2 2.2208 5.49011 4.00596 8.1315
188 1 -1.1104 1.32893 -0.145931 9.49283
190 1 -1.1104 4.02594 -3.01236 12.3159
191 1 -1.1104 4.10491 2.62647 12.2445
192 2 2.2208 2.66154 1.12236 8.03707
193 1 -1.1104 3.97071 -3.10014 9.48172
194 1 -1.1104 4.11611 2.46295 9.35759
195 2 2.2208 2.6831 -1.71166 10.9986
196 2 2.2208 2.7057 3.96772 10.8047
197 1 -1.1104 3.99652 -0.275555 12.3115
198 1 -1.1104 4.21655 -0.439591 9.5105
351 2 2.2208 8.29757 3.98268 -0.414509
317 2 2.2208 8.21591 15.2688 10.8104
189 1 -1.1104 6.8841 -0.0714046 9.44878
183 1 -1.1104 6.86516 2.65209 9.57888
185 1 -1.1104 6.78061 -0.350652 12.313
182 1 -1.1104 6.89486 -3.04591 9.41515
178 1 -1.1104 6.97368 -2.93038 12.0386
179 1 -1.1104 6.79683 2.6306 12.4348
205 1 -1.1104 12.5295 -2.96849 6.56234
211 2 2.2208 11.0996 1.36618 10.7951
212 1 -1.1104 12.5467 -2.88871 12.2979
213 1 -1.1104 12.4385 2.64032 12.2981
214 1 -1.1104 12.5685 -2.89068 9.3683
215 1 -1.1104 12.3607 2.65316 9.51065
216 1 -1.1104 12.3214 -0.106413 12.1785
217 2 2.2208 11.0736 -1.50008 7.9964
218 2 2.2208 11.1286 4.07693 8.06727
219 1 -1.1104 12.615 -0.120135 9.37104
220 1 -1.1104 9.77226 -3.11946 12.2303
221 1 -1.1104 9.75232 2.59762 12.1433
222 2 2.2208 8.25414 1.30022 8.08999
223 1 -1.1104 9.80541 -2.80756 9.44908
224 1 -1.1104 9.65412 2.77719 9.38944
225 2 2.2208 8.36424 -1.56401 10.7778
226 2 2.2208 8.30763 4.14609 10.9111
227 1 -1.1104 9.54585 -0.225724 12.0992
228 1 -1.1104 9.8749 0.00219998 9.32651
559 2 2.2208 11.0687 15.2338 13.5932
316 2 2.2208 8.03619 20.9144 10.6681
28 2 2.2208 -0.235061 6.66591 10.9502
29 2 2.2208 -0.25917 9.69464 7.96391
240 2 2.2208 5.47309 6.92493 10.8991
241 2 2.2208 5.39209 12.5775 11.0118
242 1 -1.1104 1.23386 8.26133 12.4158
244 1 -1.1104 1.36115 8.12132 9.54595
246 1 -1.1104 1.23096 5.26118 12.2784
247 1 -1.1104 1.10901 10.9792 12.2396
250 2 2.2208 5.35204 9.71157 8.18656
251 1 -1.1104 1.31783 5.33095 9.54729
252 1 -1.1104 1.18132 11.1018 9.34135
255 1 -1.1104 3.87884 8.1818 12.2127
256 2 2.2208 2.67381 6.8279 8.09937
257 2 2.2208 2.54506 12.5431 8.13333
258 1 -1.1104 4.05117 8.16941 9.44452
259 2 2.2208 2.50117 9.57261 10.8518
260 1 -1.1104 4.08939 5.39893 12.3279
261 1 -1.1104 4.01325 11.1116 12.2691
262 1 -1.1104 4.21284 5.3528 9.63941
263 1 -1.1104 4.00608 11.1819 9.51877
347 2 2.2208 11.0866 6.85577 -0.30527
651 2 2.2208 5.5702 6.83529 -0.321321
51 2 2.2208 -0.303853 12.4433 10.9263
90 1 -1.1104 12.4059 10.9886 6.8496
349 2 2.2208 11.0525 1.13673 -0.346384
265 1 -1.1104 12.2486 8.23209 6.71197
253 1 -1.1104 7.10698 5.37835 9.33318
248 1 -1.1104 6.95232 5.48315 12.1143
243 1 -1.1104 6.66634 8.42804 12.2338
245 1 -1.1104 6.99456 8.29995 9.4008
254 1 -1.1104 6.82685 11.1949 9.37402
249 1 -1.1104 6.84862 11.1938 12.3071
264 1 -1.1104 9.5104 11.0807 9.55689
268 1 -1.1104 9.83608 5.58874 9.4273
270 1 -1.1104 9.6015 11.1087 12.3291
271 1 -1.1104 9.70808 5.48762 12.2038
272 2 2.2208 8.25603 9.74893 10.9534
273 1 -1.1104 9.59978 8.30773 9.41562
274 2 2.2208 8.17101 12.4623 7.97327
275 2 2.2208 8.19336 6.90434 8.01962
276 2 2.2208 11.0572 6.86072 10.8216
277 2 2.2208 10.9204 12.4867 10.9259
278 1 -1.1104 12.4154 8.27273 12.2198
279 1 -1.1104 12.5568 8.15298 9.54382
280 1 -1.1104 12.5676 5.50598 12.1334
281 1 -1.1104 12.6298 10.9483 12.4983
282 2 2.2208 10.9987 9.55809 8.12532
283 1 -1.1104 12.4499 5.34805 9.43027
284 1 -1.1104 12.304 10.9117 9.67021
285 1 -1.1104 9.39883 8.23682 12.2391
133 1 -1.1104 4.05389 16.5207 6.62158
108 1 -1.1104 1.13986 14.0451 6.67435
126 1 -1.1104 3.84736 19.2896 6.45436
311 2 2.2208 -0.27345 20.8896 7.96899
313 2 2.2208 -0.253829 15.2504 7.96999
312 2 2.2208 -0.189315 17.8427 10.7169
286 1 -1.1104 4.00503 19.7976 12.1097
287 1 -1.1104 4.05723 13.835 12.2568
291 1 -1.1104 1.05544 19.3436 9.26193
292 1 -1.1104 1.10115 16.4053 9.36609
293 2 2.2208 5.25446 20.8577 7.84806
294 1 -1.1104 1.06215 13.8258 9.41589
295 2 2.2208 5.44119 15.2736 8.09548
298 1 -1.1104 1.04531 19.2224 11.9283
299 1 -1.1104 1.20277 13.7492 12.1709
300 2 2.2208 5.49713 18.0913 10.8715
301 1 -1.1104 3.7122 19.3567 9.2702
303 2 2.2208 2.58546 17.9996 7.91829
304 1 -1.1104 3.95311 16.7326 9.40725
305 1 -1.1104 3.95113 13.9342 9.52259
307 1 -1.1104 1.18999 16.4402 12.1122
308 1 -1.1104 4.04321 16.6834 12.1816
309 2 2.2208 2.31617 20.8692 10.8245
310 2 2.2208 2.56781 15.1245 10.795
325 2 2.2208 10.9076 15.1912 7.95451
323 1 -1.1104 12.3648 16.6398 9.26746
324 2 2.2208 10.9569 21.0508 8.06026
320 2 2.2208 8.27158 18.2443 8.05409
326 1 -1.1104 12.5179 16.5882 12.1292
322 1 -1.1104 9.53887 13.9564 12.3658
315 1 -1.1104 9.61657 16.4804 12.0983
112 1 -1.1104 6.88518 19.5088 6.6245
289 1 -1.1104 6.7866 16.8788 9.41194
314 1 -1.1104 9.63637 16.6548 9.30714
111 1 -1.1104 6.71343 13.9001 6.67345
318 1 -1.1104 9.53742 19.6149 9.39154
288 1 -1.1104 6.70282 19.4955 9.25519
321 1 -1.1104 9.62511 19.2719 12.1419
50 2 2.2208 11.0711 17.9892 10.772
306 1 -1.1104 6.89477 16.6699 12.2136
53 1 -1.1104 12.4849 13.9765 12.3195
204 1 -1.1104 12.3372 13.8115 9.38644
200 1 -1.1104 12.4169 19.4002 12.2058
290 1 -1.1104 6.81006 13.9984 9.55661
297 1 -1.1104 6.91346 13.9695 12.4398
355 2 2.2208 -0.0849759 6.72333 -0.355944
532 2 2.2208 2.57609 17.9294 13.381
344 2 2.2208 5.15405 21.1968 13.6024
498 2 2.2208 8.10168 12.589 13.6709
348 2 2.2208 -0.241438 1.28276 -0.184907
8495 2 2.2208 11.0508 -4.41058 -0.27514
9348 2 2.2208 -0.302494 15.1313 13.5791
339 2 2.2208 11.0489 -1.53006 13.5904
350 2 2.2208 8.30037 -1.6475 -0.267366
677 2 2.2208 8.22178 9.68438 -0.235172
331 2 2.2208 5.46493 -1.68511 13.6671
472 2 2.2208 5.38026 9.64061 13.5679
341 2 2.2208 11.0076 4.13104 13.5606
346 2 2.2208 2.64867 -1.60715 -0.251873
17360 2 2.2208 -0.175113 -4.39736 -0.282702
360 2 2.2208 8.01751 15.2565 -0.252082
9247 2 2.2208 -0.25266 12.3797 -0.265782
8498 2 2.2208 5.3686 -4.38329 -0.293807
595 2 2.2208 8.15659 6.83476 13.6276
329 2 2.2208 11.0157 12.5514 -0.291289
357 2 2.2208 2.64058 12.4298 13.6614
680 2 2.2208 2.43884 15.2053 -0.335029
8499 2 2.2208 8.32092 -4.3615 13.5836
362 2 2.2208 5.39414 1.17929 16.4641
363 1 -1.1104 1.17324 -2.93571 17.8457
364 1 -1.1104 1.27847 2.60325 17.8566
367 1 -1.1104 1.06202 -3.19765 15.0786
369 1 -1.1104 1.19211 2.66678 15.1691
375 1 -1.1104 1.10472 -0.315139 17.7855
377 2 2.2208 5.3486 -1.61022 19.2888
378 2 2.2208 5.45148 4.02309 19.2032
379 1 -1.1104 1.15983 -0.245675 15.1297
383 1 -1.1104 3.97427 -3.01253 17.8928
384 1 -1.1104 4.03035 2.50491 17.9453
385 2 2.2208 2.61394 1.17269 19.2649
386 1 -1.1104 3.84556 -3.05914 15.1592
388 1 -1.1104 3.98613 2.52741 15.0102
390 2 2.2208 2.5608 -1.69818 16.5074
391 2 2.2208 2.74752 3.96166 16.4515
392 1 -1.1104 3.94933 -0.267396 17.9212
393 1 -1.1104 4.12634 -0.338635 15.1563
9374 2 2.2208 -0.18233 -1.61274 19.3153
398 2 2.2208 -0.257631 1.21839 16.4392
8600 2 2.2208 8.24742 -4.27877 19.384
387 1 -1.1104 3.99495 -2.99136 20.8368
389 1 -1.1104 4.02524 2.53698 20.6321
368 1 -1.1104 1.29928 -3.04706 20.6093
596 2 2.2208 -0.166879 1.19231 22.0445
395 2 2.2208 13.6739 15.3629 22.1004
17361 2 2.2208 -0.0985358 -4.35834 22.0894
370 1 -1.1104 1.1051 2.61612 20.5351
380 1 -1.1104 1.26056 -0.326815 20.6543
8544 2 2.2208 8.21645 -4.31163 24.9675
8583 2 2.2208 5.46833 -4.34771 22.0509
593 2 2.2208 11.0086 -4.35187 22.1526
365 1 -1.1104 6.73839 -2.78225 17.8605
376 1 -1.1104 6.69882 -0.144647 17.9076
381 1 -1.1104 6.89028 -0.186369 15.024
373 1 -1.1104 6.81031 2.59412 15.1665
371 1 -1.1104 6.83162 -2.94533 14.9084
366 1 -1.1104 6.74628 2.66945 17.9927
405 2 2.2208 11.0731 1.23891 16.4972
406 1 -1.1104 12.4042 -3.16676 17.8983
407 1 -1.1104 12.5276 2.4551 17.8289
408 1 -1.1104 12.553 -2.87353 15.0118
410 1 -1.1104 12.3536 2.75934 15.0325
412 1 -1.1104 12.5732 -0.344174 17.8846
413 2 2.2208 11.0217 -1.60224 19.3343
414 2 2.2208 10.9631 3.92133 19.2749
415 1 -1.1104 12.3255 -0.053314 14.921
417 1 -1.1104 9.57449 -2.85786 17.8745
418 1 -1.1104 9.64474 2.71682 17.6864
419 2 2.2208 8.09356 1.21755 19.3271
420 1 -1.1104 9.59366 -2.92338 15.1528
422 1 -1.1104 9.57537 2.57251 14.8936
424 2 2.2208 8.30604 -1.60944 16.5145
425 2 2.2208 8.24327 4.00585 16.5038
426 1 -1.1104 9.58867 -0.0309042 17.918
427 1 -1.1104 9.75532 -0.257304 15.1528
382 1 -1.1104 6.79363 -0.185879 20.7422
416 1 -1.1104 12.3339 -0.275645 20.6744
404 2 2.2208 -0.163833 12.4559 22.0943
372 1 -1.1104 6.77326 -2.89096 20.6856
423 1 -1.1104 9.59649 2.61126 20.7476
421 1 -1.1104 9.48665 -2.91359 20.7194
411 1 -1.1104 12.3584 2.65087 20.519
374 1 -1.1104 6.74873 2.56353 20.8463
428 1 -1.1104 9.60055 -0.0668497 20.7196
399 2 2.2208 13.5944 17.9873 24.9675
9401 2 2.2208 -0.171061 9.65948 19.3244
400 2 2.2208 -0.208791 12.2907 16.3031
438 2 2.2208 5.52432 6.91328 16.3291
439 2 2.2208 5.44569 12.4836 16.4322
440 1 -1.1104 1.21206 8.20349 17.8966
442 1 -1.1104 1.11289 8.13436 15.0385
446 1 -1.1104 1.04152 5.34547 17.9129
447 1 -1.1104 1.39033 11.0545 17.9134
450 2 2.2208 5.28794 9.51514 19.227
451 1 -1.1104 1.24618 5.32593 15.1444
453 1 -1.1104 1.22476 10.9411 15.1003
459 1 -1.1104 3.90277 8.14997 17.8077
460 2 2.2208 2.59555 6.79469 19.3991
461 2 2.2208 2.42963 12.5301 19.2033
462 1 -1.1104 4.13722 8.22991 15.0085
464 2 2.2208 2.63252 9.56684 16.4863
465 1 -1.1104 3.87911 5.39724 17.9576
466 1 -1.1104 4.23363 10.8681 17.5777
467 1 -1.1104 4.02914 5.36129 15.1068
469 1 -1.1104 3.89988 10.9632 14.9479
470 1 -1.1104 3.87606 10.8705 20.6168
452 1 -1.1104 1.18097 5.49495 20.7213
454 1 -1.1104 1.17226 10.9872 20.5115
340 2 2.2208 13.6452 1.37597 13.7271
443 1 -1.1104 1.13707 8.18459 20.4352
333 2 2.2208 5.49845 3.96298 13.6634
623 2 2.2208 10.8949 18.022 21.9585
441 1 -1.1104 6.72591 8.18407 17.849
455 1 -1.1104 6.72239 5.40545 15.0679
444 1 -1.1104 6.89083 8.22167 14.9778
449 1 -1.1104 6.8832 11.0128 17.9111
448 1 -1.1104 6.88432 5.3929 17.8346
457 1 -1.1104 6.75636 11.1657 15.1382
474 2 2.2208 10.9556 6.83963 16.3452
475 2 2.2208 10.9665 12.5685 16.5345
476 1 -1.1104 12.2832 8.21782 17.7625
477 1 -1.1104 12.385 8.23719 14.9428
479 1 -1.1104 12.2649 5.34689 17.9593
480 1 -1.1104 12.4473 10.9383 17.7414
481 2 2.2208 11.0085 9.58718 19.2024
482 1 -1.1104 12.4451 5.49701 14.9713
484 1 -1.1104 12.2722 11.1567 15.1344
486 1 -1.1104 9.55491 8.24269 17.7105
487 2 2.2208 8.25888 6.82132 19.2848
488 2 2.2208 8.20335 12.4312 19.333
489 1 -1.1104 9.5599 8.24199 15.0225
491 2 2.2208 8.1846 9.71206 16.4152
492 1 -1.1104 9.64182 5.44034 17.8471
493 1 -1.1104 9.59765 11.0376 18.044
494 1 -1.1104 9.63002 5.33325 15.1106
496 1 -1.1104 9.47032 11.0766 15.2298
497 1 -1.1104 9.79059 10.8303 20.9479
456 1 -1.1104 6.83039 5.30454 20.6211
478 1 -1.1104 12.2205 8.29926 20.6855
495 1 -1.1104 9.38612 5.40568 20.7766
485 1 -1.1104 12.4497 10.9577 20.5953
483 1 -1.1104 12.4865 5.36674 20.8557
458 1 -1.1104 6.77689 10.8493 20.6289
676 1 -1.1104 12.2698 19.4504 26.3506
616 2 2.2208 8.04371 20.8155 21.9929
9478 2 2.2208 -0.072016 18.0923 16.1156
397 1 -1.1104 3.6014 19.4347 17.8746
501 2 2.2208 5.2862 18.0247 16.643
502 1 -1.1104 0.962437 13.7553 17.6629
506 1 -1.1104 0.979258 13.7518 14.9926
508 1 -1.1104 1.50336 19.1578 14.8072
514 1 -1.1104 1.1981 17.1906 17.6548
516 2 2.2208 5.34762 15.19 19.2805
517 1 -1.1104 1.06737 16.5176 14.9
521 1 -1.1104 3.91324 13.8396 17.7996
522 2 2.2208 2.58375 17.8984 19.3037
523 1 -1.1104 3.96848 13.9686 15.0461
525 1 -1.1104 4.26999 19.445 14.92
527 2 2.2208 2.49576 15.3297 16.5477
528 2 2.2208 2.62251 20.633 16.1665
529 1 -1.1104 4.02089 16.6268 17.8749
530 1 -1.1104 3.87607 16.7713 14.9986
509 1 -1.1104 0.878278 19.6514 20.2329
524 1 -1.1104 4.07847 13.5692 20.5925
429 2 2.2208 -0.266728 3.95968 19.3419
503 1 -1.1104 0.508618 20.4311 17.0861
510 1 -1.1104 6.69712 14.1459 15.1731
519 1 -1.1104 6.84527 16.9961 15.0869
515 1 -1.1104 6.75915 16.587 17.8982
504 1 -1.1104 6.71511 13.7 17.92
512 1 -1.1104 7.12176 20.5445 14.6469
505 1 -1.1104 6.85791 19.3361 17.5327
534 2 2.2208 11.0019 18.118 16.4673
535 1 -1.1104 12.4669 13.9706 17.9354
536 1 -1.1104 12.4685 19.5248 17.8717
537 1 -1.1104 12.3086 13.8614 15.0254
539 1 -1.1104 12.404 19.4319 15.0089
541 1 -1.1104 12.3859 16.7617 17.9551
542 2 2.2208 10.9653 15.34 19.2753
543 2 2.2208 10.8237 21.0402 19.2763
544 1 -1.1104 12.3979 16.6222 14.8671
546 1 -1.1104 9.4799 13.9899 18.0007
547 1 -1.1104 9.59143 19.4583 17.8676
548 2 2.2208 8.10552 18.0491 19.1469
549 1 -1.1104 9.57317 13.8239 15.1092
551 1 -1.1104 9.63129 19.5935 15.088
553 2 2.2208 8.21423 15.3214 16.5141
554 2 2.2208 8.24148 21.0069 16.5567
555 1 -1.1104 9.63431 16.7096 17.7833
556 1 -1.1104 9.57285 16.5386 14.9655
557 1 -1.1104 9.43045 16.549 20.552
538 1 -1.1104 12.3877 13.7799 20.7698
520 1 -1.1104 6.59025 16.5064 20.6974
552 1 -1.1104 9.44789 19.4198 20.6565
513 1 -1.1104 6.66258 19.5574 20.6013
17330 2 2.2208 -0.262424 -4.38989 16.4255
432 2 2.2208 2.47573 20.6836 27.4817
597 2 2.2208 -0.12519 4.06667 25.0081
620 2 2.2208 -0.123324 6.86997 16.6262
9376 2 2.2208 -0.168456 -1.55017 24.9614
394 1 -1.1104 3.84968 -0.122293 20.8521
562 2 2.2208 5.34594 1.15628 22.1365
563 1 -1.1104 1.24552 -3.02817 23.5467
564 1 -1.1104 1.15334 2.70498 23.488
567 1 -1.1104 1.29484 -2.88863 26.3792
568 1 -1.1104 1.3747 2.64751 26.1998
571 1 -1.1104 1.13761 -0.136482 23.567
573 2 2.2208 5.40087 -1.63466 24.9177
574 2 2.2208 5.41192 3.89677 24.8969
575 1 -1.1104 1.23748 -0.210333 26.5164
577 1 -1.1104 4.00081 -3.03726 23.5752
578 1 -1.1104 3.85727 2.53448 23.5787
579 2 2.2208 2.5933 1.18362 24.8772
580 1 -1.1104 4.0201 -3.04681 26.342
581 1 -1.1104 4.1702 2.54256 26.4022
582 2 2.2208 2.65772 -1.6426 22.1738
583 2 2.2208 2.5718 4.04805 22.128
584 1 -1.1104 3.91526 -0.206568 23.6508
585 1 -1.1104 4.14541 -0.267464 26.3203
594 2 2.2208 8.0753 15.2885 22.139
332 2 2.2208 2.63319 1.17847 13.795
626 2 2.2208 10.8831 15.1461 24.7979
622 2 2.2208 10.8464 20.9331 24.7981
588 1 -1.1104 9.50562 19.4273 26.2012
409 1 -1.1104 12.2488 -3.01216 20.7219
8581 2 2.2208 2.53828 -4.40347 24.9596
566 1 -1.1104 6.72724 2.59267 23.6863
565 1 -1.1104 6.84761 -3.03768 23.5605
569 1 -1.1104 6.81768 -3.12057 26.4222
572 1 -1.1104 6.78124 -0.342186 23.4654
576 1 -1.1104 6.79678 -0.2912 26.2301
570 1 -1.1104 6.83583 2.60765 26.3378
598 2 2.2208 11.061 1.1332 22.114
599 1 -1.1104 12.5124 -3.08802 23.5341
600 1 -1.1104 12.3904 2.51523 23.3238
601 1 -1.1104 12.4757 -2.93199 26.4185
602 1 -1.1104 12.5888 2.68982 26.1765
603 1 -1.1104 12.3652 -0.307812 23.5119
604 2 2.2208 11.0996 -1.69497 24.976
605 2 2.2208 11.0481 3.97877 25.0326
606 1 -1.1104 12.521 -0.195074 26.3695
607 1 -1.1104 9.5597 -3.1188 23.594
608 1 -1.1104 9.65661 2.59756 23.4287
609 2 2.2208 8.24134 1.17557 25.0197
610 1 -1.1104 9.6249 -3.02248 26.4294
611 1 -1.1104 9.76245 2.45252 26.3185
612 2 2.2208 8.22356 -1.60229 22.2018
613 2 2.2208 8.17825 3.83399 22.1043
614 1 -1.1104 9.59326 -0.395647 23.6848
615 1 -1.1104 9.7107 -0.283192 26.3206
589 2 2.2208 13.641 20.8086 21.931
463 1 -1.1104 4.0008 8.18997 20.738
8612 2 2.2208 5.3323 -4.40648 16.4997
396 2 2.2208 -0.0943398 6.81989 22.0772
468 1 -1.1104 4.0164 5.25986 20.794
627 2 2.2208 5.54269 6.81004 22.0466
628 2 2.2208 5.22042 12.3084 22.0759
629 1 -1.1104 1.31109 8.17007 23.3628
631 1 -1.1104 1.29444 8.24976 26.2674
633 1 -1.1104 1.30018 5.60484 23.6613
634 1 -1.1104 1.21907 10.9915 23.4107
637 2 2.2208 5.53263 9.55903 24.8952
638 1 -1.1104 1.15354 5.48593 26.3828
639 1 -1.1104 1.13241 11.0706 26.4362
642 1 -1.1104 4.22147 8.24359 23.38
643 2 2.2208 2.8365 6.759 24.9195
644 2 2.2208 2.5169 12.4975 25.0486
645 1 -1.1104 4.1811 8.09062 26.3592
646 2 2.2208 2.64112 9.56556 22.0586
647 1 -1.1104 3.97572 5.29605 23.4445
648 1 -1.1104 3.85685 11.0475 23.4153
649 1 -1.1104 4.10326 5.38549 26.3625
650 1 -1.1104 3.94682 10.8181 26.2048
655 2 2.2208 -0.0318784 9.56761 24.88
540 1 -1.1104 12.2889 19.4867 20.5958
657 1 -1.1104 12.2889 16.5866 23.5179
445 1 -1.1104 6.7603 8.21254 20.5873
490 1 -1.1104 9.50362 8.09517 20.6569
656 1 -1.1104 12.305 13.6802 26.1779
635 1 -1.1104 6.93409 5.31261 23.382
640 1 -1.1104 6.87028 5.39695 26.1129
632 1 -1.1104 7.00448 8.29288 26.3997
630 1 -1.1104 6.92468 8.22045 23.5885
641 1 -1.1104 6.81721 11.0565 26.3736
636 1 -1.1104 6.69994 10.9722 23.5139
658 1 -1.1104 9.55313 11.09 26.4724
659 1 -1.1104 9.6439 5.47495 26.2721
660 1 -1.1104 9.63388 11.0036 23.5927
661 1 -1.1104 9.59818 5.15263 23.484
662 2 2.2208 8.15865 9.55568 22.0478
663 1 -1.1104 9.6791 8.24708 26.4245
664 2 2.2208 8.12426 12.5156 24.7481
665 2 2.2208 8.25787 6.73669 24.8254
666 2 2.2208 10.9464 6.70339 22.1209
667 2 2.2208 11.0391 12.3885 22.108
668 1 -1.1104 12.4157 8.19788 23.3682
669 1 -1.1104 12.5389 8.11029 26.3598
670 1 -1.1104 12.3312 5.40035 23.6962
671 1 -1.1104 12.4708 11.0272 23.5252
672 2 2.2208 10.9917 9.67507 24.9416
673 1 -1.1104 12.5155 5.39187 26.4916
674 1 -1.1104 12.3639 10.9484 26.2686
675 1 -1.1104 9.6426 8.09703 23.5319
586 1 -1.1104 6.74475 19.3873 26.1836
533 2 2.2208 8.10385 18.0687 24.9131
500 1 -1.1104 9.43634 19.4633 23.5645
531 1 -1.1104 3.77437 16.476 20.6171
511 1 -1.1104 6.79824 13.5568 20.7147
652 1 -1.1104 6.86668 16.6051 23.4767
507 1 -1.1104 1.20459 13.8546 20.6707
682 1 -1.1104 3.72167 19.3692 20.8179
1200 1 -1.1104 3.52006 19.7897 23.6225
518 1 -1.1104 1.25431 16.9263 20.8997
430 2 2.2208 2.09603 20.5418 21.8951
431 1 -1.1104 4.04793 16.7817 23.4266
473 1 -1.1104 1.20817 16.4107 23.5156
621 2 2.2208 2.50773 15.223 21.9989
684 1 -1.1104 3.87625 13.8788 23.51
686 1 -1.1104 1.1096 19.2037 26.2583
687 1 -1.1104 0.963022 16.6208 26.3245
688 1 -1.1104 0.995616 13.7757 26.416
690 2 2.2208 5.36047 20.6839 24.7854
691 2 2.2208 5.31719 15.2808 24.8144
693 1 -1.1104 0.732555 19.3436 23.4056
694 1 -1.1104 1.18283 13.6479 23.5039
695 2 2.2208 5.33997 18.0699 21.9321
696 1 -1.1104 4.09671 19.1717 26.2194
697 2 2.2208 2.46461 17.9042 24.8011
698 1 -1.1104 3.75191 16.4619 26.2922
699 1 -1.1104 3.98632 13.7142 26.1972
692 1 -1.1104 6.74008 13.7938 23.4819
689 1 -1.1104 6.70035 19.2467 23.3371
587 1 -1.1104 9.5334 14.0029 26.3382
550 1 -1.1104 9.53521 13.7281 20.8707
685 1 -1.1104 6.71798 16.7249 26.1909
617 1 -1.1104 9.66857 16.6367 23.4528
624 1 -1.1104 12.4421 13.7258 23.3828
499 1 -1.1104 9.54557 13.8623 23.5323
654 1 -1.1104 12.2575 19.3824 23.4451
618 1 -1.1104 9.50044 16.6787 26.3644
683 1 -1.1104 6.67155 13.8757 26.2405
437 1 -1.1104 12.215 16.5677 26.2459
545 1 -1.1104 12.334 16.5955 20.7257
619 2 2.2208 8.0144 20.8737 27.6214
342 2 2.2208 11.0356 9.80913 13.7316
678 2 2.2208 5.27067 17.9461 27.7029
343 2 2.2208 2.72814 6.75694 13.6749
434 2 2.2208 13.5993 20.9008 27.647
358 2 2.2208 2.64744 9.42391 27.5762
345 2 2.2208 5.45141 1.01909 27.682
338 2 2.2208 -0.122373 3.98064 13.7587
330 2 2.2208 -0.227938 -1.51082 13.7727
560 2 2.2208 8.23726 18.1969 13.6658
361 2 2.2208 10.8601 18.0194 27.6617
653 2 2.2208 5.33143 12.4134 27.6407
558 2 2.2208 10.9453 21.0023 13.6723
526 2 2.2208 5.43034 15.5181 13.7948
700 2 2.2208 5.19853 23.5199 5.1477
701 2 2.2208 5.19389 29.2963 5.07938
702 1 -1.1104 1.19641 25.1233 0.851383
703 1 -1.1104 1.1174 25.027 3.70519
704 1 -1.1104 1.04291 22.3255 0.834401
705 1 -1.1104 1.07408 27.8197 0.841204
706 2 2.2208 5.35969 26.4383 2.34888
707 1 -1.1104 1.12696 22.2743 3.82035
708 1 -1.1104 1.18433 27.7438 3.63114
709 1 -1.1104 3.92979 24.9062 1.0316
710 2 2.2208 2.40475 23.6343 2.1476
711 2 2.2208 2.42138 29.2449 2.28168
712 1 -1.1104 4.03199 25.0269 3.89274
713 2 2.2208 2.58615 26.3257 5.14243
714 1 -1.1104 3.93792 21.9021 0.459652
715 1 -1.1104 3.93844 27.7088 0.882713
716 1 -1.1104 3.95659 22.2944 3.43064
717 1 -1.1104 4.03842 27.7821 3.80802
845 1 -1.1104 3.86593 27.8247 6.57969
1156 2 2.2208 13.6097 34.8406 13.5815
1056 2 2.2208 5.25626 37.5812 13.6355
839 1 -1.1104 0.983881 22.2838 6.59916
837 1 -1.1104 0.977726 24.9054 6.46152
844 1 -1.1104 3.78563 22.3021 6.521
721 1 -1.1104 6.55228 25.0998 0.770345
725 1 -1.1104 6.71918 22.0811 3.7429
723 1 -1.1104 6.53747 22.2253 1.03969
840 1 -1.1104 1.01281 27.7567 6.5387
841 1 -1.1104 6.64198 22.2836 6.39753
724 1 -1.1104 6.81199 27.8678 0.854815
722 1 -1.1104 6.6057 25.0684 3.64701
726 1 -1.1104 6.78724 27.7667 3.85739
727 2 2.2208 10.855 23.5626 5.12537
728 2 2.2208 10.9755 29.1474 5.30153
729 1 -1.1104 12.2488 25.0912 1.02467
730 1 -1.1104 12.2889 25.1095 3.79516
731 1 -1.1104 12.154 22.3769 1.06748
732 1 -1.1104 12.4635 27.8351 0.916767
733 2 2.2208 10.8842 26.4935 2.34731
734 1 -1.1104 12.2455 22.1738 3.83856
735 1 -1.1104 12.2978 27.977 3.77397
736 1 -1.1104 9.26936 25.0643 0.910616
737 2 2.2208 7.95827 23.6367 2.3767
738 2 2.2208 8.13326 29.3498 2.34996
739 1 -1.1104 9.33931 24.9778 3.74876
740 2 2.2208 8.06323 26.3873 5.20194
741 1 -1.1104 9.33429 22.4058 0.879344
742 1 -1.1104 9.68835 27.6652 0.927578
743 1 -1.1104 9.43125 22.2573 3.75283
744 1 -1.1104 9.40876 27.9147 3.87595
1120 2 2.2208 5.24917 43.3152 13.6656
1584 1 -1.1104 9.43248 47.4546 9.59497
720 2 2.2208 -0.331584 23.6633 5.1063
718 2 2.2208 -0.206256 26.5071 2.33567
748 2 2.2208 5.2321 34.8419 5.10947
749 1 -1.1104 1.0815 30.5702 0.935188
750 1 -1.1104 1.05183 36.2084 0.884565
752 1 -1.1104 1.11321 30.6366 3.83551
753 1 -1.1104 1.11944 36.2645 3.82457
755 1 -1.1104 0.849792 33.4056 0.960865
756 2 2.2208 5.14651 32.0926 2.21135
757 2 2.2208 5.21961 37.7073 2.32336
758 1 -1.1104 0.988891 33.4069 3.77077
760 1 -1.1104 3.89158 30.5736 0.82033
761 1 -1.1104 3.94315 36.2828 0.941678
762 2 2.2208 2.47467 34.9159 2.36333
763 1 -1.1104 3.77747 30.6345 3.6796
764 1 -1.1104 3.97675 36.1129 3.74487
765 2 2.2208 2.51328 32.0464 5.1513
766 2 2.2208 2.39008 37.5528 5.17782
767 1 -1.1104 3.69566 33.5013 1.00497
768 1 -1.1104 3.71889 33.4175 3.8101
895 1 -1.1104 3.78879 36.2436 6.54917
889 1 -1.1104 1.01635 36.1576 6.52527
896 1 -1.1104 3.913 33.5061 6.53597
892 1 -1.1104 1.14637 33.3956 6.55384
772 1 -1.1104 6.79827 30.5801 0.888945
759 1 -1.1104 6.49271 33.4253 3.70532
751 1 -1.1104 6.65956 36.1416 1.06436
888 1 -1.1104 0.97339 30.7148 6.63786
769 2 2.2208 -0.353528 34.8598 5.29753
890 1 -1.1104 6.53252 30.6721 6.4718
773 1 -1.1104 6.49277 30.5619 3.74402
774 1 -1.1104 6.69906 33.4806 1.05088
754 1 -1.1104 6.88315 36.2309 3.66737
775 2 2.2208 10.7535 34.7356 5.26765
776 1 -1.1104 12.3093 30.645 1.14633
777 1 -1.1104 12.247 36.2954 1.14125
778 1 -1.1104 12.2361 30.7131 3.97055
780 1 -1.1104 12.1712 33.3829 0.848697
781 2 2.2208 10.8306 32.0985 2.47367
782 2 2.2208 10.5988 37.7504 2.17197
783 1 -1.1104 12.1489 33.855 3.63276
784 1 -1.1104 9.53194 30.6161 0.934733
785 1 -1.1104 9.3829 36.2332 0.911187
786 2 2.2208 8.12074 34.8246 2.41497