30000
Atoms. Timestep: 2000000
2 26.6862 23.0012 136.055
2 15.4784 14.6101 455.646
2 4.74008 16.7333 69.02
2 26.2267 10.244 69.8119
1 10.1028 29.1862 480.439
1 26.8989 3.42408 57.9353
1 13.8067 10.8498 178.899
1 29.6596 17.4089 67.6961
1 17.6274 22.8875 397.368
1 10.0244 29.4178 71.0808
1 16.5953 18.4454 123.301
1 2.29062 9.21155 83.7958
2 3.70115 6.6767 465.383
2 24.7293 15.825 168.279
2 22.2379 9.06154 72.4093
2 11.1742 1.18454 56.0405
1 24.7614 11.7213 460.54
1 24.5808 -1.73578 107.697
1 12.7831 14.4408 475.91
1 26.6877 27.6643 67.7229
1 11.2146 2.39614 344.202
1 26.6062 9.72932 440.407
1 27.3349 16.0063 464.222
1 -2.10847 -1.29195 492.74
2 24.2933 14.9488 59.6738
2 18.6084 16.2708 91.9056
2 12.1147 26.5814 80.4503
2 13.3577 26.8883 478.657
1 3.91695 22.1015 381.866
1 24.5541 26.097 136.112
1 23.8025 1.69394 130.122
1 17.5138 15.3561 462.291
1 24.7068 1.7083 473.6
1 20.567 12.5471 487.411
1 8.31968 13.4239 410.103
1 12.2728 0.455066 83.651
2 13.861 11.1703 56.5948
2 13.3899 23.2936 56.6261
2 24.3154 23.8087 59.1814
2 4.55128 0.497464 96.0336
1 22.3403 17.4353 396.354
1 1.72246 -1.20275 70.0997
1 -0.385076 -1.33778 438.283
1 1.65872 29.2089 147.407
1 5.07114 26.0008 142.657
1 26.6565 13.3922 159.63
1 23.9065 0.859864 487.952
1 0.413712 11.2972 156.873
2 5.13361 22.7019 87.2736
2 2.71312 9.57909 463.544
2 23.8681 11.5563 488.764
2 25.9236 8.57429 479.553
1 9.86793 13.7328 146.648
1 2.60726 15.1095 417.592
1 10.6239 25.1056 452.726
1 10.522 12.5013 160.104
1 12.3576 27.1345 77.2875
1 9.80213 -1.53361 441.321
1 6.87906 1.46348 99.0024
1 2.53786 21.0958 355.519
2 9.36086 11.2618 431.326
2 3.63302 1.63464 64.9425
2 16.5801 1.63669 73.5811
2 6.50039 -0.469134 103.108
1 14.0032 18.0354 327.332
1 15.8486 8.19859 451.523
1 1.20519 3.0532 441.989
1 0.419302 1.01997 105.092
1 2.39816 28.4211 417.986
1 18.8823 29.0076 120.738
1 14.0376 10.6694 437.462
1 3.36741 13.8581 60.745
2 25.0883 -0.406227 492.689
2 11.1875 1.12332 484.827
2 10.0774 14.1356 433.197
2 1.34487 14.7981 54.8272
1 10.8064 -1.27716 97.6853
1 6.10226 2.17343 470.918
1 10.7318 8.20861 80.3224
1 26.3979 17.7732 73.2783
1 9.16719 13.1588 181.1
1 27.4719 24.2119 417.662
1 22.6148 12.9309 445.424
1 15.9397 14.4507 128.699
2 8.15838 26.7951 470.437
2 9.57912 -0.140554 475.968
2 6.97777 2.98002 63.7946
2 2.36811 25.2722 114.671
1 20.0228 7.54336 464.004
1 17.1257 25.6081 56.9911
1 11.2759 7.39041 443.882
1 11.7777 25.0388 97.823
1 23.7308 26.7689 62.6306
1 27.0891 13.112 477.369
1 23.0564 17.7611 110.811
1 15.8328 -0.521444 55.8608
2 12.2948 28.4543 101.902
2 20.1976 17.0294 88.4877
2 16.7375 25.0843 468.334
2 0.413898 18.0284 429.664
1 27.0142 11.5932 473.752
1 15.2815 1.37903 491.198
1 9.33273 17.4177 482.182
1 18.4484 19.6849 68.4677
1 1.3325 15.1983 57.1196
1 2.32245 20.7352 107.951
1 3.74715 24.4433 158.689
1 10.2423 4.89904 86.9891
2 23.2546 4.85112 480.663
2 3.59169 -0.788347 479.494
2 19.6991 16.2952 462.182
2 3.39475 28.8206 446.994
1 0.942903 16.5993 97.8065
1 14.3387 17.3619 133.526
1 25.729 6.0748 442.658
1 18.7603 2.43103 481.764
1 23.5013 21.0614 81.2886
1 7.93179 0.594468 398.498
1 25.9338 23.4606 485.83
1 -1.20662 10.7532 55.0689
2 -1.79437 25.3411 486.421
2 8.11031 11.7342 492.685
2 13.9308 26.7077 474.47
2 1.84529 6.45542 69.2304
1 4.13213 11.2011 464.541
1 24.8951 7.60962 473.253
1 22.999 24.8753 57.5404
1 18.136 24.628 429.588
1 5.6391 2.00993 83.9224
1 10.4741 21.9542 117.592
1 -0.932982 2.27529 78.5191
1 21.8818 12.3863 474.137
2 0.550018 -0.508419 56.4132
2 7.39454 14.4327 446.384
2 19.2183 14.3047 446.84
2 23.4567 22.0124 54.0561
1 23.0995 26.8738 71.5366
1 22.5102 21.2667 384.548
1 0.990375 26.292 411.871
1 23.3341 5.0445 60.3576
1 3.05715 8.57466 441.203
1 27.5369 8.73551 397.859
1 15.4206 10.606 119.521
1 29.1679 27.0807 115.556
2 -2.04858 19.432 97.7437
2 -0.718044 21.9575 467.763
2 2.87886 15.5141 98.8724
2 14.924 -0.764307 450.473
1 1.54729 1.42694 124.589
1 8.51965 22.9363 64.4252
1 14.3562 24.607 446.866
1 17.7532 18.0857 186.186
1 24.0373 7.33277 153.458
1 13.1882 4.0148 80.5094
1 20.7704 3.32592 77.9756
1 2.90502 26.4747 61.3399
2 3.71951 7.51528 84.7068
2 26.6348 2.36481 73.9746
2 24.49 20.8797 66.4412
2 4.55298 12.8554 486.654
1 0.805513 17.0619 245.386
1 22.4207 13.051 113.727
1 24.0641 8.73383 206.131
1 17.1709 11.0309 171.794
1 25.6605 14.5156 71.1001
1 19.0449 28.5922 489.925
1 27.3507 0.557338 434.988
1 17.092 17.9197 57.1878
2 14.6702 2.24533 471.35
2 9.44523 22.2842 486.661
2 13.1425 12.5123 474.479
2 7.18862 25.8071 481.233
1 14.2521 21.7955 112.753
1 0.657148 28.3727 95.0416
1 19.4711 7.9642 139.749
1 14.0097 0.109777 124.3
1 2.36257 26.9244 445.923
1 5.0921 26.334 73.6756
1 6.98781 3.20092 482.22
1 1.41601 24.6463 154.011
2 16.9944 24.6334 89.2794
2 9.59414 8.44931 63.4646
2 27.4521 1.13706 468.047
2 10.8495 2.91687 91.5888
1 4.00858 26.1382 192.354
1 26.2462 0.317018 95.6592
1 4.5894 1.13996 487.219
1 9.74003 4.45451 64.713
1 25.8324 8.94308 67.8892
1 3.2244 9.67465 74.0875
1 5.43577 2.29166 458.742
1 12.1519 23.8109 491.175
2 1.4421 20.4649 437.149
2 1.78404 24.9504 57.2129
2 -1.2484 0.442961 72.5885
2 2.58403 29.3216 94.1077
1 13.1717 3.46893 464.217
1 29.5471 21.4924 449.406
1 24.1333 -0.43886 410.868
1 7.32942 21.8634 88.041
1 11.551 12.3292 477.259
1 21.4252 14.9244 457.766
1 10.2948 19.864 455.727
1 1.28728 11.908 57.1352
2 18.9788 10.3069 465.018
2 27.4524 17.3233 479.696
2 26.7012 15.2489 476.37
2 23.8668 1.81284 437.771
1 20.7163 6.8972 77.3975
1 -2.29262 28.5644 61.0877
1 24.6603 4.10743 106.241
1 7.40296 23.2275 458.511
1 11.462 7.67235 414.894
1 28.3656 27.9536 445.456
1 1.84018 19.5828 59.0438
1 8.78651 5.57085 55.1087
2 28.8678 13.0204 458.618
2 20.9407 25.1024 87.9172
2 18.7104 8.81755 428.304
2 2.24247 -1.03134 410.661
1 22.4989 27.9503 74.1999
1 19.4382 7.76342 84.5883
1 0.939749 23.5365 83.9283
1 26.6088 16.9839 191.912
1 16.7141 9.99601 88.6773
1 26.1581 27.3568 162.973
1 1.91921 14.7423 79.9959
1 -0.354554 16.9159 455.833
2 8.01011 17.6907 462.303
2 19.0918 2.78295 76.2236
2 23.7645 9.41039 82.0412
2 16.2915 24.5577 461.952
1 4.84548 8.86608 62.9046
1 4.01114 25.6164 454.249
1 27.8955 4.05029 64.7622
1 11.8584 7.88597 91.2676
1 25.9688 16.7332 179.285
1 15.1878 23.4303 85.7209
1 26.1764 20.3045 143.958
1 6.4583 2.66444 461.536
2 0.43997 7.52606 83.3695
2 17.2076 14.6332 88.7002
2 26.7486 18.9519 476.282
2 4.03114 13.8158 483.024
1 25.7152 9.14267 94.4062
1 18.3895 13.112 103.242
1 26.2571 21.8877 434.914
1 6.28934 16.2922 71.0262
1 5.99388 3.45567 67.5985
1 29.1043 13.3957 109.616
1 2.93178 4.97416 452.286
1 14.1273 28.2027 66.2178
2 20.7619 7.10698 82.6808
2 29.2225 -1.31265 78.7304
2 5.64624 10.8403 64.1307
2 4.71611 18.1823 400.179
1 18.02 17.7057 460.956
1 18.1751 28.8229 70.886
1 6.35827 0.800693 62.8046
1 4.19038 1.83913 122.941
1 11.8297 23.2996 61.4654
1 7.39561 22.2614 106.087
1 13.7204 12.6318 129.146
1 13.87 2.58962 61.0407
2 -0.0770883 8.43381 86.8659
2 -0.635368 -1.49972 418.302
2 14.6755 3.90577 484.161
2 2.50498 6.23535 486.893
1 11.7647 -1.79233 455.128
1 10.1738 9.17453 432.149
1 27.5788 6.74153 475.842
1 19.1497 -1.03119 457.789
1 26.0142 5.58071 59.258
1 -1.60363 2.09369 471.968
1 26.6826 17.1089 481.758
1 16.8623 23.0934 71.1545
2 8.46948 20.0021 465.079
2 9.89741 25.7265 414.262
2 4.03659 24.5948 441.485
2 10.6072 26.4449 447.836
1 8.16598 9.17159 84.2349
1 4.3549 7.65123 86.8985
1 3.22524 16.15 473.814
1 2.88586 16.4776 54.3376
1 23.6463 16.4931 108.264
1 22.5438 6.97172 461.931
1 7.58514 21.3733 437.055
1 10.7581 15.43 60.5549
2 26.4269 26.6468 465.412
2 3.58817 24.3657 90.4248
2 24.3146 1.33371 86.9807
2 1.37681 14.7705 443.532
1 7.87811 16.053 463.786
1 7.66621 16.9339 417.574
1 3.21839 25.008 467.507
1 27.746 9.29343 84.5138
1 21.534 21.4912 475.396
1 8.54759 27.5142 421.157
1 23.6525 25.0142 95.8179
1 8.01615 -1.21959 98.4747
2 -0.62823 27.2719 78.6132
2 23.4452 7.81811 144.015
2 19.962 26.2743 484.944
2 20.6728 -0.0693124 448.469
1 3.31137 0.1433 80.1491
1 -0.418778 22.6848 139.365
1 22.05 28.7011 377.104
1 6.50156 20.04 472.701
1 -1.11147 9.50904 486.268
1 1.28116 26.031 408.912
1 -0.777443 14.0503 462.165
1 0.363701 10.0856 451.264
2 29.0494 18.9467 114.985
2 3.36029 9.09799 104.15
2 14.868 14.6324 109.482
2 12.121 14.2517 464.445
1 4.0324 7.73213 94.1811
1 11.8331 2.92127 483.231
1 -0.988766 22.9899 447.879
1 9.29883 0.100853 426.302
1 -0.19026 9.334 445.25
1 11.9561 6.33674 85.1135
1 4.20234 8.58539 234.762
1 18.5944 6.12668 105.188
2 23.4861 -0.536902 473.634
2 1.97413 12.8417 125.044
2 21.9785 5.65089 455.941
2 22.5989 7.86113 472.607
1 9.09651 2.70712 215.165
1 26.3423 8.09703 86.5321
1 20.8031 12.5754 482.35
1 8.36886 14.3765 480.315
1 19.8396 -0.143324 429.153
1 6.32656 24.098 122.572
1 21.5824 24.1106 475.153
1 18.7917 -0.0513213 482.931
2 14.2565 22.8572 477.183
2 17.007 9.10948 83.441
2 11.7477 0.459553 462.661
2 2.92977 12.2239 157.115
1 17.0612 2.07995 92.2039
1 14.6185 6.23435 79.0508
1 16.8129 28.9347 97.601
1 18.94 19.8957 63.0229
1 23.313 26.0333 109.771
1 9.94238 17.2773 88.0214
1 -0.709952 18.7184 151.155
1 14.8185 6.46928 489.881
2 27.5575 21.1557 450.398
2 9.78934 16.0023 146.604
2 25.2407 -1.48562 74.1805
2 11.1429 5.02465 484.523
1 10.8185 24.3348 81.7253
1 20.0433 27.7943 476.309
1 23.1495 8.04487 167.174
1 18.6415 21.2631 454.837
1 15.4095 15.8064 469.527
1 4.63466 2.67611 71.5647
1 -1.22367 0.820557 391.251
1 2.48489 6.33785 91.4571
2 10.3261 29.1866 456.735
2 4.97636 -1.53909 80.2973
2 6.61652 -0.473562 132.651
2 1.0528 28.3634 107.311
1 25.9599 25.9431 450.428
1 27.7142 23.6979 123.935
1 13.9349 23.6018 451.649
1 3.08412 -1.84276 492.544
1 4.69032 24.1764 469.555
1 24.1261 2.24645 78.5757
1 28.505 3.35469 427.842
1 9.14322 14.6125 461.149
2 -0.362842 20.0429 112.075
2 0.153129 3.96122 484.479
2 19.5974 27.9722 61.3693
2 21.3136 6.10345 63.3608
1 23.5811 8.69751 65.8729
1 8.21024 9.67629 449.162
1 3.27857 21.5764 479.416
1 25.3344 -1.10779 98.2008
1 -0.445126 16.3489 79.3274
1 26.1328 5.55328 82.5267
1 3.84991 23.4231 117.667
1 11.1279 0.996581 66.608
2 0.86896 26.0044 125.397
2 10.3417 17.6631 475.925
2 -2.25033 23.0784 490.4
2 -1.47795 26.4503 60.3664
1 14.3075 3.87985 224.763
1 4.76688 20.5203 459.29
1 2.9419 22.9463 449.008
1 12.8068 -0.426135 468.783
1 24.3001 29.4235 61.5899
1 17.4862 11.3293 63.6082
1 3.11118 26.5906 65.6495
1 13.8626 -1.025 490.773
2 5.79876 17.6926 64.1828
2 11.05 10.4199 132.27
2 13.3297 0.669868 65.3916
2 10.8529 12.6634 490.195
1 11.0853 19.994 158.104
1 3.05643 2.11119 114.805
1 11.4939 25.5672 144.906
1 25.6924 28.9824 483.516
1 15.8794 13.5718 428.43
1 9.42049 15.9691 115.609
1 14.9911 2.96944 155.205
1 13.2212 4.50773 440.572
2 23.3017 0.243638 65.1957
2 19.2364 0.877595 435.183
2 17.9707 23.1043 455.869
2 28.4973 4.38507 71.5615
1 3.37029 24.1946 74.2286
1 18.1949 20.4739 451.596
1 19.7626 11.1458 86.934
1 -2.28751 22.9788 116.133
1 22.2867 1.51589 133.883
1 16.3566 18.716 118.944
1 8.78772 26.0773 402.446
1 -2.21953 6.55317 74.2934
2 17.3885 18.0154 67.4659
2 27.5887 10.8843 80.9449
2 23.4976 3.85469 158.214
2 27.5598 4.62668 474.821
1 16.2548 5.17655 134.782
1 1.36556 23.0039 55.7214
1 20.156 5.24657 72.2517
1 10.9764 27.8896 126.435
1 7.20972 8.32104 486.134
1 9.64494 7.1157 218.721
1 2.00921 10.5139 76.7325
1 -2.0533 18.631 448.493
2 25.7668 1.36203 79.8464
2 26.7977 10.9815 482.862
2 0.124892 12.6867 99.5445
2 5.49339 26.8787 82.4993
1 1.32705 26.2028 473.134
1 18.4772 7.03686 132.963
1 16.5775 17.5274 73.2669
1 6.49435 3.59764 89.4216
1 15.7559 6.96214 477.66
1 4.4309 0.430979 73.3067
1 10.4302 28.6744 138.84
1 6.69957 9.58254 121.079
2 25.6189 -1.87008 85.8298
2 8.49005 1.72317 113.966
2 7.63201 3.47511 70.7035
2 5.77166 12.639 441.018
1 24.3693 16.4043 434.563
1 19.3018 25.6271 490.699
1 22.0368 14.3607 485.7
1 15.2187 8.03438 96.7876
1 14.249 -1.27206 485.37
1 15.619 6.56608 141.115
1 29.5508 8.53016 57.1441
1 2.47471 26.9645 459.643
2 12.764 22.3163 459.348
2 10.7879 23.1465 84.1086
2 21.3342 19.6918 63.6583
2 23.5592 -0.352564 480.969
1 25.4724 15.4916 461.061
1 10.4362 -1.6531 113.016
1 16.1604 6.00951 449.928
1 21.5737 28.3635 136.164
1 21.3448 2.37778 103.473
1 10.9893 1.21849 417.582
1 2.28475 8.59012 438.704
1 4.11307 3.1592 55.0745
2 11.4664 2.76512 106.573
2 7.50079 19.1595 488.004
2 -1.69281 25.5501 86.4738
2 20.737 21.9038 71.8628
1 9.90356 -0.274667 79.8871
1 12.622 4.65725 68.1299
1 0.335352 -1.60319 89.2925
1 23.6775 1.2237 470.534
1 -1.78653 8.55696 72.3338
1 19.4258 12.9757 110.581
1 1.578 19.0356 470.361
1 11.0658 2.14825 117.858
2 8.36595 9.65611 489.531
2 25.3792 3.35699 478.04
2 12.5525 18.4254 63.2068
2 11.443 25.0131 443.813
1 10.8378 9.60925 119.564
1 -0.20232 22.0088 69.8493
1 21.694 5.25066 110.824
1 8.8337 26.0084 79.2933
1 17.6156 5.81963 438.33
1 8.76767 14.2732 415.137
1 6.01883 21.0318 102.967
1 3.16794 -2.08513 134.65
2 14.7655 4.10447 71.6553
2 7.75143 -0.150694 56.7049
2 19.0413 13.8454 152.058
2 13.6845 18.1914 67.3182
1 20.1136 1.46512 61.3914
1 22.8844 3.23468 69.3329
1 8.71097 15.611 421.25
1 2.8048 29.4779 461.818
1 13.6498 17.692 442.113
1 11.7169 18.8297 76.8333
1 17.4377 19.2963 95.9577
1 20.4041 27.0171 72.4524
2 8.42353 9.67926 388.678
2 20.4013 8.8805 117.712
2 17.0728 6.027 489.9
2 25.1118 5.99908 61.4386
1 14.5786 2.0771 447.142
1 29.5787 0.683543 466.938
1 6.2788 7.37463 456.615
1 14.2898 2.56196 375.344
1 17.6097 -0.624958 122.063
1 15.3443 24.4684 485.96
1 12.8438 -1.48494 103.129
1 21.6784 13.001 133.055
2 22.5455 1.44729 489.681
2 5.25806 25.012 54.5547
2 5.81778 29.3872 410.863
2 25.3199 12.5188 108.2
1 24.5327 20.3222 491.912
1 7.43949 14.7256 90.0163
1 18.7369 28.4039 479.145
1 12.1711 -0.317759 69.6951
1 0.396136 9.90478 121.089
1 7.47885 25.0629 461.205
1 8.42363 4.38054 109.071
1 4.57803 -1.8907 75.7277
2 7.24074 11.503 477.848
2 18.9795 3.47629 62.0925
2 27.6835 22.6182 65.0526
2 6.26167 29.2333 67.5642
1 5.24291 16.3835 103.528
1 15.7944 26.9476 468.867
1 5.82599 -1.15575 58.4509
1 26.4872 27.7046 59.0771
1 17.9052 3.25519 213.203
1 12.9107 17.0337 61.2697
1 27.8169 22.2809 107.246
1 13.7543 2.48349 381.43
2 9.16462 17.4253 113.724
2 7.54614 27.5 408.279
2 13.9374 1.08491 482.354
2 4.26015 24.8177 79.7058
1 3.52559 10.5042 56.136
1 0.0565808 3.47358 76.3189
1 23.9492 -0.99869 67.0196
1 13.5284 10.6094 68.8626
1 24.3305 16.2593 170.704
1 26.422 10.9092 87.0814
1 6.57847 10.4194 472.849
1 3.32652 3.52608 118.651
2 2.97247 21.8061 483.924
2 13.5164 28.3331 60.7433
2 17.0092 29.2222 477.742
2 20.5203 27.7738 80.3943
1 0.272802 7.81549 386.015
1 24.7141 17.0627 487.429
1 2.97955 3.89634 57.5746
1 25.6452 17.7611 159.611
1 25.3429 28.2711 75.598
1 12.3966 25.9165 150.952
1 -1.19381 3.53359 405.832
1 20.7874 12.4467 59.1353
2 17.4772 14.8712 61.4697
2 1.04393 17.9708 451.969
2 17.7056 16.7286 145.882
2 13.5422 15.4865 481.631
1 11.9785 1.63358 88.7616
1 15.8365 18.7252 338.119
1 2.73952 -1.37065 96.3849
1 19.6626 0.275048 399.557
1 8.09856 20.8836 57.5146
1 -1.09342 -1.6023 96.8996
1 8.4481 27.2703 125.515
1 10.2579 22.8331 140.703
2 12.1392 25.4004 62.9389
2 28.6444 14.8449 102.205
2 6.52247 9.11637 470.72
2 14.3 22.6024 142.683
1 5.46097 11.9437 482.7
1 29.2791 10.7103 429.498
1 4.02211 11.2367 458.046
1 2.09299 17.8396 487.623
1 14.8385 -1.46173 68.4405
1 2.93118 15.6451 67.9982
1 22.3904 17.1771 485.524
1 16.8454 25.7137 95.1018
2 14.0488 23.0732 473.376
2 7.5119 3.45956 97.3468
2 10.934 17.3421 55.7717
2 6.86177 8.07828 464.43
1 -0.299769 4.75382 140.941
1 28.0495 29.3029 136.721
1 25.8402 28.9206 477.242
1 13.3853 16.449 64.1358
1 15.1086 3.92328 92.8696
1 2.00352 9.69384 112.954
1 18.8411 26.4762 404.611
1 27.1269 19.3857 445.318
2 10.3617 20.2296 68.9518
2 7.21438 19.6833 474.877
2 7.46187 -0.990202 458.023
2 9.02862 28.029 444.463
1 6.74177 12.8133 444.723
1 11.1398 24.0292 92.0722
1 16.1142 21.874 101.236
1 13.3062 15.0309 462.549
1 8.24022 21.5504 492.575
1 4.66451 7.51265 103.204
1 23.7311 9.78884 450.488
1 8.1919 10.2205 155.216
2 -1.6324 9.51822 452.392
2 3.56733 8.31575 72.3361
2 15.5333 7.80925 101.909
2 21.9183 23.2239 80.8696
1 15.0814 -1.98304 61.3656
1 2.52335 8.24163 100.431
1 -1.0943 10.4374 421.254
1 4.5288 23.5394 96.9203
1 -0.626345 10.1451 116.49
1 6.8857 21.2444 129.047
1 16.9883 23.7332 104.913
1 21.2836 15.2893 463.628
2 3.35953 19.9455 62.5888
2 -0.921866 28.4047 465.419
2 15.1277 10.7356 66.9815
2 16.8045 -0.852575 129.28
1 3.44661 0.269506 470.051
1 8.00831 26.846 86.2342
1 13.2508 28.7362 70.2331
1 13.4261 23.2058 66.9015
1 3.21082 13.9372 435.37
1 24.2452 18.8411 120.643
1 -1.75141 22.4683 75.9927
1 3.30538 9.08741 465.669
2 10.5222 1.03939 82.0393
2 2.53774 12.0407 62.0676
2 1.56661 -0.0684586 462.349
2 8.18208 4.96717 66.5822
1 -0.12436 -1.75844 165.003
1 19.0346 10.4327 467.417
1 1.84952 14.7705 463.748
1 27.8208 14.4579 424.71
1 1.89992 22.0448 140.448
1 0.17546 20.5879 74.7137
1 23.0261 25.6595 113.211
1 10.5951 19.7335 105.985
2 6.95282 28.785 488.928
2 18.4982 25.0599 441.773
2 20.1273 22.7132 458.917
2 25.3513 19.0184 116.563
1 3.97596 4.68554 479.464
1 21.046 10.0062 89.3242
1 9.76857 -2.15633 492.16
1 23.8096 28.4246 77.9436
1 29.0126 27.5096 112.753
1 4.4122 10.7476 411.934
1 21.8799 5.15126 83.3402
1 29.0264 2.79652 93.4035
2 20.3359 12.675 112.905
2 3.77881 5.86631 416.131
2 9.73214 26.5594 65.9467
2 4.89628 17.3094 95.6724
1 19.3099 7.59771 430.544
1 1.36619 15.1637 150.434
1 12.4596 6.44519 57.8665
1 -0.53665 0.376445 453.711
1 10.5519 24.5058 66.3951
1 24.883 2.34702 59.784
1 15.1487 27.0097 103.877
1 22.0553 9.46452 116.131
2 1.25772 21.4253 480.556
2 0.59942 8.89861 101.476
2 9.54821 19.0254 65.498
2 23.4706 18.7737 60.8752
1 25.8196 17.569 112.306
1 1.97658 -1.90408 403.556
1 -2.22002 17.9923 486.332
1 11.2183 21.4749 101.724
1 10.3938 10.176 82.595
1 11.8085 22.6718 128.907
1 -1.31005 9.6642 406.191
1 25.2289 10.4437 137.24
2 1.90429 26.4343 63.4673
2 4.97998 9.13949 492.038
2 8.66503 5.21339 93.7534
2 14.4153 13.8926 451.982
1 2.66016 26.5872 441.122
1 7.49842 1.01604 175.431
1 20.3139 6.77197 80.178
1 20.8418 -0.227837 67.1838
1 12.3512 27.0413 471.95
1 12.6905 1.90744 100.489
1 23.7776 29.3857 211.653
1 16.8344 -0.158169 463.112
2 14.9061 13.2264 484.013
2 24.7913 10.8618 66.137
2 -2.19272 4.54556 97.1599
2 22.4258 -1.76621 68.5598
1 -1.87511 20.2836 108.399
1 23.8717 0.884775 91.4287
1 8.4244 21.2191 460.211
1 19.9312 -1.74929 100.794
1 2.26096 12.6056 106.557
1 9.96716 2.02953 423.841
1 -1.77681 7.89257 480.386
1 28.5868 17.5601 113.155
2 11.0711 6.51209 489.85
2 23.0471 13.1896 83.6605
2 6.08951 -0.881215 108.545
2 10.8905 5.49293 77.3405
1 19.8059 11.7961 170.628
1 22.912 13.4157 465.718
1 1.39595 1.61824 455.127
1 20.1722 8.65207 135.125
1 12.2381 -0.362558 483.236
1 21.1892 14.0693 103.554
1 29.5495 9.29446 75.426
1 11.1344 5.30298 446.725
2 12.7114 10.649 86.0492
2 16.6808 25.3816 70.0447
2 12.3165 -1.54398 71.8242
2 19.553 6.41366 111.404
1 -0.917788 12.9706 143.458
1 8.58495 25.396 96.4955
1 14.2919 14.6316 386.781
1 27.4656 12.1846 70.6111
1 17.3343 28.0336 464.997
1 24.2742 7.91488 60.5614
1 5.32841 18.1648 492.339
1 4.20802 8.33058 113.43
2 11.0546 17.5961 117.204
2 13.8464 0.158866 101.43
2 24.5315 28.1147 490.903
2 16.2986 15.3752 80.8213
1 0.377956 12.4013 138.473
1 6.86209 17.0441 483.427
1 20.8437 6.38132 94.4867
1 15.9869 7.28629 89.332
1 27.8562 22.6014 57.1881
1 21.82 14.5242 480.363
1 9.59927 19.3666 72.0442
1 21.6612 23.3989 59.48
2 10.0201 7.28494 474.398
2 21.0768 1.65122 68.745
2 20.4955 -0.339506 92.9232
2 5.6521 28.1963 57.6606
1 12.7314 10.0597 378.552
1 4.32287 8.52488 89.692
1 8.67934 19.2116 476.585
1 0.092206 25.219 109.718
1 15.4601 25.3464 90.7491
1 26.2494 16.6112 147.059
1 22.3974 19.458 473.85
1 15.0592 8.37258 487.108
2 -0.704058 15.5614 60.767
2 12.7006 14.7994 61.8599
2 9.12275 21.1567 107.11
2 -1.91441 13.7095 75.6586
1 25.4182 15.8933 233.932
1 26.1244 25.4696 407.309
1 7.37465 6.05376 102.562
1 6.71993 28.4506 108.901
1 15.4705 28.2116 56.3502
1 19.5137 24.8758 111.847
1 5.81332 0.534219 473.552
1 9.81925 26.008 442.549
2 16.87 6.33946 61.8658
2 20.582 22.1466 94.3418
2 12.7943 14.4969 65.4715
2 1.40845 4.46619 491.041
1 2.15538 16.0983 77.5936
1 21.2332 11.9512 128.163
1 13.8075 27.0673 194.772
1 12.4344 29.329 488.932
1 20.7205 20.7038 452.74
1 -0.329586 28.7863 155.345
1 21.321 2.8573 92.0795
1 19.0187 4.38816 492.77
2 -0.881464 6.5637 468.976
2 15.3301 10.9035 99.7011
2 28.5537 -0.229232 75.3771
2 -2.24223 2.73059 122
1 13.122 28.339 421.877
1 11.3725 21.6587 439.906
1 4.12178 -1.18344 440.27
1 25.1075 29.2385 418.128
1 24.457 13.0097 87.6657
1 19.9418 27.7223 122.883
1 21.9536 7.62289 70.5413
1 1.90234 16.9704 143.52
2 13.2181 3.68622 75.2375
2 7.4908 -0.764251 120.362
2 19.8581 -0.539074 78.7111
2 22.0461 28.8463 55.0075
1 24.7121 24.4826 441.283
1 9.14913 10.5987 182.577
1 21.2698 15.8989 437.968
1 24.7953 26.5254 98.2489
1 24.5947 11.5499 424.083
1 14.9652 8.46654 484.045
1 14.2428 6.54126 126.649
1 27.5608 17.6408 431.167
2 19.3751 28.7153 85.169
2 0.0216345 9.0165 67.2043
2 5.355 4.47022 91.282
2 18.502 6.17158 122.12
1 15.3786 13.2471 463.361
1 26.7681 0.0690204 106.579
1 7.19965 21.9202 464.414
1 2.63766 15.2474 137.667
1 13.6062 10.0162 98.8179
1 25.5758 19.2966 465.398
1 28.609 14.5821 92.1292
1 10.4959 -0.368036 75.2901
2 -1.17717 25.3238 99.4688
2 15.3993 25.3277 488.201
2 14.9225 12.6221 59.7435
2 -1.40736 25.0136 63.8429
1 13.7591 6.77283 442.31
1 27.125 24.9083 400.334
1 10.4457 -0.453611 490.015
1 28.4347 22.3453 478.796
1 28.6113 2.29169 136.402
1 18.491 27.4044 395.792
1 25.7955 3.182 437.403
1 -0.640327 2.2417 120.365
2 26.4625 15.0336 482.732
2 3.10843 21.5095 81.1578
2 0.350152 1.45941 80.2874
2 23.9872 21.3578 474.669
1 12.5326 15.3264 454.963
1 25.4388 16.5287 63.3587
1 22.2847 23.8352 454.51
1 -0.606616 19.3431 140.285
1 8.00033 29.4079 463.981
1 9.20275 18.0007 470.196
1 20.9911 15.7752 91.8875
1 20.3151 14.1159 455.324
2 20.0149 22.8081 97.9426
2 -0.261666 13.8161 64.1941
2 20.2988 11.7948 491.696
2 11.3283 20.6665 95.5916
1 8.91643 1.82593 91.2312
1 18.4608 12.2441 460.196
1 4.67541 0.889633 110.03
1 23.3452 -1.04618 86.3604
1 13.2781 12.1304 66.0344
1 27.4247 14.3871 179.462
1 16.7021 4.3135 62.9346
1 -0.368409 29.0822 92.5361
2 23.0616 18.8321 97.0839
2 11.0807 8.42611 486.381
2 28.0181 13.3034 98.5519
2 -0.765766 19.5794 70.8132
1 1.74303 17.9667 475.839
1 13.3677 0.866447 422.196
1 15.3425 -0.748554 131.41
1 3.43281 27.9422 433.549
1 8.72066 -1.68774 477.656
1 18.7346 26.6759 437.693
1 19.153 9.56803 77.8773
1 0.361166 19.3307 411.716
2 11.4001 29.2116 54.9637
2 1.98393 7.6196 107.456
2 9.34331 4.39327 81.0085
2 15.8719 29.0673 70.4614
1 27.1437 0.0399719 54.4247
1 2.87229 23.5928 88.1564
1 16.4626 6.86678 84.0699
1 13.0343 22.3128 412.405
1 19.2079 26.5993 457.202
1 19.0354 11.899 84.5827
1 23.2055 -1.91818 70.7271
1 29.4979 24.3117 65.6897
2 0.629362 12.0399 474.781
2 7.72775 5.81465 471.937
2 -2.21694 26.1521 477.397
2 4.28636 19.7518 91.7632
1 20.4648 5.74495 101.288
1 24.4346 9.00102 216.27
1 15.1974 19.9092 447.898
1 15.8673 18.7618 99.1889
1 28.5485 9.4609 68.8973
1 24.6952 23.8533 153.793
1 1.46545 28.1745 466.004
1 21.7504 6.09944 453.744
2 16.9355 1.469 84.2608
2 14.027 6.9377 84.1692
2 14.7918 29.3516 104.588
2 2.60539 26.6176 73.769
1 25.2464 19.3956 58.9778
1 14.9162 2.23972 79.1343
1 23.0934 15.8212 473.903
1 10.2956 9.42512 130.263
1 15.1373 27.704 152.539
1 16.6271 29.1258 438.743
1 -2.21898 29.3848 463.905
1 14.8171 6.10746 182.654
2 27.1183 29.3786 467.886
2 7.22692 20.7586 95.1992
2 2.65585 1.8832 154.62
2 -1.99764 3.00342 65.0259
1 28.9781 20.6289 99.5182
1 1.84762 24.2758 138.052
1 12.2963 19.1962 56.2343
1 0.256446 2.5246 60.9088
1 9.58118 11.5822 55.7803
1 22.865 5.42926 75.8287
1 25.9232 9.76332 212.737
1 5.25531 28.9579 99.2291
2 11.2371 13.7439 83.8638
2 13.6208 8.65572 105.721
2 0.305547 15.8589 81.4125
2 2.44721 16.7021 465.528
1 4.71974 -0.21209 60.8434
1 14.9133 5.5086 194.137
1 12.2414 13.4133 451.737
1 14.333 -2.21172 109.433
1 10.457 9.47226 127.255
1 15.1327 8.70667 475.136
1 27.483 11.0582 489.401
1 5.05572 25.3949 84.1182
2 8.97418 16.499 101.713
2 1.37102 25.8722 466.522
2 1.30356 11.3657 84.3723
2 9.61581 -0.356993 70.0966
1 15.7105 29.2293 462.668
1 14.4203 23.4726 489.22
1 4.38627 14.3551 469.696
1 25.7023 15.8411 472.35
1 -0.416315 21.571 405.798
1 17.6324 22.3793 139.104
1 14.7716 -1.07023 82.156
1 9.36356 13.7947 486.553
2 3.8168 10.9787 472.773
2 25.2681 9.40768 110.314
2 21.2179 25.5469 70.7654
2 28.9739 13.5014 484.882
1 4.54296 1.32264 117.126
1 3.58652 17.1263 401.869
1 18.7787 10.1419 144.992
1 28.463 4.56789 397.671
1 19.1008 12.5841 134.036
1 25.3744 20.7735 439.293
1 4.3942 26.7129 58.9414
1 4.26888 26.1884 88.1482
2 22.1171 5.27661 440.674
2 18.6739 23.6736 491.934
2 22.8937 7.99427 159.3
2 26.6728 24.6456 439.862
1 23.4841 6.18655 73.1727
1 -0.593496 3.17726 465.71
1 12.6285 20.9648 477.829
1 11.6463 18.0871 108.649
1 -0.865532 13.0477 90.7069
1 10.508 15.9841 435.013
1 26.1846 13.8739 143.222
1 18.2381 6.95335 113.265
2 25.1334 28.2418 70.1668
2 27.4734 22.144 446.633
2 12.989 25.652 103.913
2 14.1585 17.2443 83.143
1 -2.29012 7.97544 484.576
1 22.139 -0.178049 123.751
1 -1.53169 5.60134 91.1851
1 16.7741 28.7822 359.062
1 11.8739 15.095 95.9804
1 13.4324 20.7052 80.4237
1 -0.851633 1.5068 487.434
1 24.5486 15.5393 489.65
2 16.822 5.53096 92.7931
2 6.62132 6.87426 63.8506
2 29.111 0.467761 61.6244
2 25.1583 27.8488 92.9485
1 15.248 24.3974 419.964
1 6.66769 8.9338 141.804
1 -2.28114 22.8699 54.2652
1 8.42645 9.81138 110.145
1 0.824735 19.0756 480.267
1 3.25945 4.83722 115.737
1 13.6397 28.6328 89.2239
1 12.8561 12.5021 97.7849
2 22.0499 26.9492 58.3091
2 16.0813 25.7853 105.731
2 -1.35709 5.6084 68.0658
2 8.89327 7.96996 75.5784
1 15.5375 23.7038 137.62
1 -0.317528 6.8099 139.258
1 1.36333 22.9334 90.5438
1 11.789 14.4773 69.36
1 19.8663 -2.13978 147.279
1 17.067 9.25492 111.34
1 6.69024 28.5454 461.487
1 24.5272 8.33458 439.274
2 20.7461 21.8641 126.559
2 7.20878 22.8 103.888
2 -0.111076 11.5885 449.401
2 20.9784 21.3183 60.1359
1 24.1701 5.62957 70.4316
1 9.75253 20.1448 109.491
1 3.28628 14.387 480.875
1 20.7938 23.4701 169.478
1 -1.96998 0.576159 70.1842
1 16.4286 5.11795 491.977
1 23.1872 14.2119 124.471
1 29.2325 27.2693 58.7249
2 19.2278 24.4941 67.7076
2 13.7959 9.1855 489.311
2 3.72553 1.62381 78.3612
2 6.13864 14.099 63.0216
1 28.3894 18.1489 65.2329
1 22.9809 0.659709 88.9319
1 13.6959 12.9523 71.0449
1 27.3277 19.7092 75.3301
1 6.81856 0.769905 450.133
1 12.4979 8.83175 96.6573
1 17.9163 29.1994 455.401
1 28.0607 16.3844 408.901
2 12.7703 19.3036 106.858
2 1.7993 2.72885 104.614
2 22.6901 12.1989 69.0696
2 13.5552 1.24669 442.261
1 9.40678 27.2686 472.584
1 27.878 26.7078 73.8037
1 -1.87844 -1.50103 119.827
1 21.2169 -1.37948 75.6686
1 29.4848 -1.99215 481.473
1 21.7824 2.97585 59.4204
1 19.8346 12.5249 465.042
1 21.6104 11.9391 166.81
2 18.6855 28.2379 93.2482
2 14.2303 12.2659 491.845
2 14.6735 12.1067 121.126
2 3.31944 6.01217 135.404
1 16.1205 28.1644 130.045
1 23.1748 22.8238 472.918
1 23.7164 28.9504 113.694
1 -1.05239 -1.70824 65.212
1 11.8411 0.659909 60.4621
1 24.8068 17.1522 85.0379
1 -0.542889 11.6073 75.825
1 18.4705 21.7648 467.802
2 18.8238 11.9324 66.9544
2 0.489343 27.6456 488.858
2 -0.00478154 19.1221 128.27
2 5.43412 21.5074 74.222
1 -0.610519 12.2736 103.643
1 27.8584 19.9599 477.994
1 19.9238 21.4141 420.444
1 11.4164 0.545068 492.54
1 9.55034 29.3611 461.391
1 7.78694 15.6457 156.242
1 7.16777 1.89445 103.667
1 3.15673 28.4158 63.1177
2 -1.20042 10.4808 73.8199
2 14.5296 1.79616 92.7542
2 23.6103 10.3905 94.7511
2 14.7037 7.79552 73.2202
1 19.4758 4.77653 463.208
1 14.1326 18.2421 78.5038
1 14.9486 16.1571 118.133
1 6.37086 25.2083 81.055
1 6.69784 9.26714 95.4021
1 16.1611 23.8518 63.7299
1 6.25147 6.7594 433.721
1 20.6456 8.75703 446.137
2 21.6 11.5494 453.211
2 7.63336 24.7475 85.0563
2 11.6323 2.4596 68.4874
2 12.2634 17.0847 97.1542
1 10.19 23.4599 450.425
1 28.5976 24.4079 476.32
1 5.70544 20.176 123.135
1 22.6389 3.74814 114.569
1 29.3222 18.0396 483.009
1 9.63131 4.71446 140.24
1 -0.53033 -1.8454 486.933
1 5.40158 13.3984 70.7986
2 15.019 21.6382 75.7739
2 26.9285 13.7832 83.1471
2 20.3075 -1.97907 475.253
2 4.38749 13.7533 476.133
1 13.9749 -0.633816 87.6323
1 16.3028 25.9154 171.811
1 12.5901 6.28068 152.055
1 21.9534 15.8871 429.526
1 5.54636 19.2559 149.469
1 8.81434 0.97521 473.693
1 23.8617 20.6478 110.286
1 22.34 9.0283 150.758
2 10.7179 25.17 472.381
2 8.76655 19.2305 61.7953
2 19.8178 11.372 63.1697
2 29.4148 -1.02038 108.116
1 12.4791 24.0014 153.091
1 13.8723 28.0046 98.2044
1 19.653 4.77673 124.305
1 -2.21165 -0.607469 67.7151
1 22.8479 23.9865 470.283
1 3.77535 26.0184 103.329
1 0.855718 19.0608 132.653
1 -0.0899276 28.8404 458.575
2 10.3704 10.7433 476.266
2 1.70031 18.7182 483.307
2 8.3139 3.60184 489.757
2 20.7722 13.3517 56.7
1 -1.33177 17.8916 93.4217
1 -0.0328288 1.10403 89.882
1 9.93476 15.8313 122.602
1 10.2995 18.5234 123.312
1 19.838 22.4101 112.732
1 8.55452 20.481 91.026
1 8.43314 17.0941 479.199
1 2.10827 -1.72032 103.178
2 29.3889 18.8505 58.5228
2 -0.0261728 26.9528 96.5916
2 12.1111 10.9433 465.983
2 5.58312 2.44039 74.1019
1 28.5309 15.8575 72.8617
1 7.28962 28.6227 458.812
1 4.67417 1.36111 76.1033
1 6.19803 19.3419 74.6317
1 17.8926 17.2722 87.5251
1 1.49155 7.72829 135.07
1 0.0285408 26.668 76.2189
1 8.55317 0.583721 468.441
2 4.77115 24.4471 72.2435
2 7.72748 18.9255 53.9991
2 8.6699 4.47777 74.2245
2 8.40377 2.25376 462.529
1 9.1806 7.52767 479.464
1 14.6919 14.6986 147.908
1 14.9668 6.89172 109.925
1 18.7556 24.1789 75.0917
1 6.65113 9.00486 88.047
1 3.61946 26.7635 484.639
1 22.1756 5.55809 147.788
1 2.1766 4.18945 437.22
2 29.5196 18.6483 63.3847
2 28.1029 29.3449 59.6864
2 28.2111 7.96647 73.7356
2 26.1922 16.8992 78.6946
1 4.12623 13.0014 79.7975
1 23.9694 11.5247 426.807
1 19.3186 21.3248 484.973
1 10.3148 5.58324 82.6008
1 20.8144 21.4926 176.354
1 21.5621 17.507 161.148
1 17.298 21.539 65.2509
1 15.7221 28.359 174.74
2 18.2693 28.6845 104.565
2 25.1405 10.9179 74.2836