LAMMPS (29 Oct 2020)
OMP_NUM_THREADS environment is not set. Defaulting to 1 thread. (../comm.cpp:94)
  using 1 OpenMP thread(s) per MPI task
OMP_NUM_THREADS environment is not set. Defaulting to 1 thread. (../comm.cpp:94)
  using 1 OpenMP thread(s) per MPI task
Reading data file ...
  orthogonal box = (-2.3345989 -2.2190489 53.994672) to (29.674599 29.559049 492.80533)
  2 by 1 by 26 MPI processor grid
  reading atoms ...
  30000 atoms
Finding 1-2 1-3 1-4 neighbors ...
  special bond factors lj:    0.0      0.0      0.0     
  special bond factors coul:  0.0      0.0      0.0     
     0 = max # of 1-2 neighbors
     0 = max # of 1-3 neighbors
     0 = max # of 1-4 neighbors
     1 = max # of special neighbors
  special bonds CPU = 0.003 seconds
  read_data CPU = 0.042 seconds
Setting atom values ...
  20000 settings made for charge
Setting atom values ...
  10000 settings made for charge
PPPM initialization ...
  using 12-bit tables for long-range coulomb (../kspace.cpp:328)
  G vector (1/distance) = 0.29766214
  grid = 45 45 300
  stencil order = 5
  estimated absolute RMS force accuracy = 0.00017229813
  estimated relative force accuracy = 1.1965443e-05
  using single precision MKL FFT
  3d grid and FFT values/proc = 23800 12420
Neighbor list info ...
  update every 1 steps, delay 0 steps, check yes
  max neighbors/atom: 2000, page size: 100000
  master list distance cutoff = 11.3
  ghost atom cutoff = 11.3
  binsize = 5.65, bins = 6 6 78
  2 neighbor lists, perpetual/occasional/extra = 2 0 0
  (1) pair coul/long, perpetual
      attributes: half, newton on
      pair build: half/bin/newton
      stencil: half/bin/3d/newton
      bin: standard
  (2) pair eam/alloy, perpetual, copy from (1)
      attributes: half, newton on
      pair build: copy
      stencil: none
      bin: none
Setting up Verlet run ...
  Unit style    : metal
  Current step  : 0
  Time step     : 0.001
Per MPI rank memory allocation (min/avg/max) = 9.512 | 9.588 | 9.628 Mbytes
Step Temp E_pair E_mol TotEng Press 
       0          900   -385794.93            0   -382305.02   -66.490251 
  100000    899.67663    -385764.3            0   -382275.64   -622.28634 
  200000    893.23665   -385799.55            0   -382335.87   -419.00127 
  300000    899.73544    -385785.8            0   -382296.92    476.67467 
  400000    903.24701   -385794.17            0   -382291.67     516.8121 
  500000    888.14123   -385789.13            0    -382345.2   -382.49659 
Loop time of 5129.15 on 52 procs for 500000 steps with 30000 atoms

Performance: 8.422 ns/day, 2.850 hours/ns, 97.482 timesteps/s
100.0% CPU use with 52 MPI tasks x 1 OpenMP threads

MPI task timing breakdown:
Section |  min time  |  avg time  |  max time  |%varavg| %total
---------------------------------------------------------------
Pair    | 3325.7     | 3402.3     | 3511.8     |  71.8 | 66.33
Bond    | 0.058868   | 0.078674   | 0.1038     |   3.8 |  0.00
Kspace  | 1139.5     | 1252.2     | 1341.9     | 129.6 | 24.41
Neigh   | 325        | 332.85     | 343.65     |  24.6 |  6.49
Comm    | 93.984     | 102.14     | 120        |  73.8 |  1.99
Output  | 0.00035895 | 0.00038843 | 0.0013502  |   0.0 |  0.00
Modify  | 16.562     | 28.633     | 45.798     | 164.9 |  0.56
Other   |            | 10.92      |            |       |  0.21

Nlocal:        576.923 ave         593 max         567 min
Histogram: 3 8 8 11 7 4 8 2 0 1
Nghost:        4992.38 ave        5031 max        4938 min
Histogram: 2 1 2 1 9 10 13 7 4 3
Neighs:       116936.0 ave      121260 max      113559 min
Histogram: 1 3 6 14 13 6 3 5 0 1

Total # of neighbors = 6080672
Ave neighs/atom = 202.68907
Ave special neighs/atom = 0.0000000
Neighbor list builds = 100287
Dangerous builds = 0
20000 atoms in group Silicon
PPPM initialization ...
  using 12-bit tables for long-range coulomb (../kspace.cpp:328)
  G vector (1/distance) = 0.29766214
  grid = 45 45 300
  stencil order = 5
  estimated absolute RMS force accuracy = 0.00017229813
  estimated relative force accuracy = 1.1965443e-05
  using single precision MKL FFT
  3d grid and FFT values/proc = 23800 12420
Setting up Verlet run ...
  Unit style    : metal
  Current step  : 0
  Time step     : 0.001
Per MPI rank memory allocation (min/avg/max) = 9.763 | 9.839 | 9.879 Mbytes
Step f_2 Temp v_Tdiff v_deltaT 
       0            0          900            0            0 
  100000    304.36155    904.59638  0.015032674    174.52795 
  200000    584.92085    908.43387  0.026211701    304.31541 
  300000    857.92585    900.26599  0.030186334    350.46053 
  400000    1126.5153    904.10095  0.032559139    378.00858 
  500000    1393.6591    897.79864  0.032956818     382.6256 
  600000    1662.3193    905.43313  0.032395004    376.10299 
  700000    1930.8507    907.16232  0.032280484    374.77342 
  800000    2201.1307    904.33417  0.032305213    375.06052 
  900000    2464.8274    903.84416  0.032366235    375.76898 
 1000000    2730.9013     907.3823  0.031921569    370.60645 
 1100000    3003.2141    897.75195  0.032402986    376.19566 
 1200000    3271.2553    901.00342   0.03312443    384.57156 
 1300000    3539.2123    902.49881  0.033086502    384.13121 
 1400000      3810.81    903.37961  0.032502563    377.35173 
 1500000     4078.931    901.53201  0.032806767    380.88352 
 1600000    4347.3064    897.80088  0.032140648    373.14994 
 1700000    4612.8788     901.6118  0.032559046    378.00749 
 1800000    4885.2852     907.1038  0.032397924    376.13689 
 1900000    5152.9897    903.80761  0.031892853    370.27306 
 2000000    5419.0191     906.9826  0.032571638    378.15369 
Loop time of 19968.6 on 52 procs for 2000000 steps with 30000 atoms

Performance: 8.654 ns/day, 2.773 hours/ns, 100.157 timesteps/s
100.0% CPU use with 52 MPI tasks x 1 OpenMP threads

MPI task timing breakdown:
Section |  min time  |  avg time  |  max time  |%varavg| %total
---------------------------------------------------------------
Pair    | 13106      | 13292      | 13582      |  96.4 | 66.57
Bond    | 0.23482    | 0.30908    | 0.40837    |   6.7 |  0.00
Kspace  | 4482.1     | 4767.4     | 5005.3     | 172.0 | 23.87
Neigh   | 1307.5     | 1336.4     | 1375.2     |  42.2 |  6.69
Comm    | 368.15     | 398.76     | 510.15     | 167.1 |  2.00
Output  | 0.0019651  | 0.0020813  | 0.0044778  |   0.7 |  0.00
Modify  | 54.085     | 57.691     | 66.888     |  32.3 |  0.29
Other   |            | 115.8      |            |       |  0.58

Nlocal:        576.923 ave         588 max         565 min
Histogram: 2 3 3 10 7 5 9 9 2 2
Nghost:        4992.02 ave        5037 max        4937 min
Histogram: 1 2 4 4 7 12 11 7 1 3
Neighs:       116907.0 ave      120072 max      114025 min
Histogram: 5 4 3 8 7 11 5 2 4 3

Total # of neighbors = 6079172
Ave neighs/atom = 202.63907
Ave special neighs/atom = 0.0000000
Neighbor list builds = 405793
Dangerous builds = 0
PPPM initialization ...
  using 12-bit tables for long-range coulomb (../kspace.cpp:328)
  G vector (1/distance) = 0.29766214
  grid = 45 45 300
  stencil order = 5
  estimated absolute RMS force accuracy = 0.00017229813
  estimated relative force accuracy = 1.1965443e-05
  using single precision MKL FFT
  3d grid and FFT values/proc = 23800 12420
Setting up Verlet run ...
  Unit style    : metal
  Current step  : 2000000
  Time step     : 0.001
Per MPI rank memory allocation (min/avg/max) = 11.08 | 11.16 | 11.20 Mbytes
Step Temp E_pair TotEng f_2 v_Tdiff f_ave 
 2000000     906.9826   -385809.93   -382292.95            0  0.032571638            0 
 2200000    899.95927   -385782.16   -382292.41    533.14517  0.032436379  0.032499798 
 2400000    903.88771   -385796.99   -382292.01    1066.4323  0.031924764  0.032456783 
Loop time of 3989.88 on 52 procs for 400000 steps with 30000 atoms

Performance: 8.662 ns/day, 2.771 hours/ns, 100.254 timesteps/s
100.0% CPU use with 52 MPI tasks x 1 OpenMP threads

MPI task timing breakdown:
Section |  min time  |  avg time  |  max time  |%varavg| %total
---------------------------------------------------------------
Pair    | 2609.2     | 2656.8     | 2711.4     |  42.8 | 66.59
Bond    | 0.046704   | 0.062999   | 0.082803   |   3.4 |  0.00
Kspace  | 896.97     | 950.31     | 999.95     |  72.8 | 23.82
Neigh   | 260.28     | 267.55     | 275.24     |  19.2 |  6.71
Comm    | 73.125     | 79.78      | 103.34     |  75.0 |  2.00
Output  | 0.00018483 | 0.00019938 | 0.0004484  |   0.0 |  0.00
Modify  | 10.701     | 11.507     | 13.372     |  15.0 |  0.29
Other   |            | 23.88      |            |       |  0.60

Nlocal:        576.923 ave         588 max         565 min
Histogram: 3 0 2 11 7 11 9 5 1 3
Nghost:        4996.12 ave        5068 max        4943 min
Histogram: 1 5 8 12 9 8 4 3 1 1
Neighs:       116924.0 ave      120460 max      112873 min
Histogram: 1 1 4 4 11 14 8 5 1 3

Total # of neighbors = 6080058
Ave neighs/atom = 202.66860
Ave special neighs/atom = 0.0000000
Neighbor list builds = 81235
Dangerous builds = 0
Total wall time: 8:04:48
