LAMMPS (29 Oct 2020)
OMP_NUM_THREADS environment is not set. Defaulting to 1 thread. (../comm.cpp:94)
  using 1 OpenMP thread(s) per MPI task
OMP_NUM_THREADS environment is not set. Defaulting to 1 thread. (../comm.cpp:94)
  using 1 OpenMP thread(s) per MPI task
Reading data file ...
  triclinic box = (-0.090387172 -1.0271891 -0.087705534) to (27.984387 335.75519 27.981706) with tilt (0.0000000 0.0000000 0.0000000)
  2 by 13 by 2 MPI processor grid
  reading atoms ...
  18000 atoms
  reading velocities ...
  18000 velocities
Finding 1-2 1-3 1-4 neighbors ...
  special bond factors lj:    0.0      0.0      0.0     
  special bond factors coul:  0.0      0.0      0.0     
     0 = max # of 1-2 neighbors
     0 = max # of 1-3 neighbors
     0 = max # of 1-4 neighbors
     1 = max # of special neighbors
  special bonds CPU = 0.004 seconds
  read_data CPU = 0.058 seconds
Setting atom values ...
  11820 settings made for charge
Setting atom values ...
  6000 settings made for charge
Setting atom values ...
  180 settings made for charge
Setting atom values ...
  0 settings made for charge
PPPM initialization ...
  using 12-bit tables for long-range coulomb (../kspace.cpp:328)
  G vector (1/distance) = 0.29882278
  grid = 40 240 40
  stencil order = 5
  estimated absolute RMS force accuracy = 0.00015780854
  estimated relative force accuracy = 1.0959196e-05
  using single precision MKL FFT
  3d grid and FFT values/proc = 15000 7600
Neighbor list info ...
  update every 1 steps, delay 0 steps, check yes
  max neighbors/atom: 2000, page size: 100000
  master list distance cutoff = 11.3
  ghost atom cutoff = 11.3
  binsize = 5.65, bins = 5 60 5
  2 neighbor lists, perpetual/occasional/extra = 2 0 0
  (1) pair coul/long, perpetual
      attributes: half, newton on
      pair build: half/bin/newton/tri
      stencil: half/bin/3d/newton/tri
      bin: standard
  (2) pair eam/alloy, perpetual, copy from (1)
      attributes: half, newton on
      pair build: copy
      stencil: none
      bin: none
Setting up Verlet run ...
  Unit style    : metal
  Current step  : 0
  Time step     : 0.001
Per MPI rank memory allocation (min/avg/max) = 8.327 | 8.357 | 8.372 Mbytes
Step Temp E_pair E_mol TotEng Press 
       0          600   -235227.81            0   -233831.87    357.36594 
  100000    599.66282   -235257.28            0   -233862.13   -268.28979 
Loop time of 672.86 on 52 procs for 100000 steps with 18000 atoms

Performance: 12.841 ns/day, 1.869 hours/ns, 148.619 timesteps/s
99.8% CPU use with 52 MPI tasks x 1 OpenMP threads

MPI task timing breakdown:
Section |  min time  |  avg time  |  max time  |%varavg| %total
---------------------------------------------------------------
Pair    | 450.61     | 460.92     | 472.01     |  25.8 | 68.50
Bond    | 0.0072452  | 0.010687   | 0.014286   |   1.8 |  0.00
Kspace  | 127.58     | 141.9      | 151.62     |  56.1 | 21.09
Neigh   | 48.233     | 50.206     | 54.61      |  22.0 |  7.46
Comm    | 14.52      | 15.401     | 17.753     |  22.1 |  2.29
Output  | 5.2519e-05 | 5.7559e-05 | 0.00025826 |   0.0 |  0.00
Modify  | 1.8465     | 3.2163     | 5.1164     |  61.0 |  0.48
Other   |            | 1.21       |            |       |  0.18

Nlocal:        346.154 ave         368 max         329 min
Histogram: 3 7 7 9 7 6 4 3 2 4
Nghost:        4155.90 ave        4253 max        4076 min
Histogram: 8 8 6 1 7 3 6 3 5 5
Neighs:        69956.4 ave       74750 max       66358 min
Histogram: 5 7 8 5 7 8 2 5 1 4

Total # of neighbors = 3637732
Ave neighs/atom = 202.09622
Ave special neighs/atom = 0.0000000
Neighbor list builds = 16247
Dangerous builds = 0
11820 atoms in group oxygen
PPPM initialization ...
  using 12-bit tables for long-range coulomb (../kspace.cpp:328)
  G vector (1/distance) = 0.29882278
  grid = 40 240 40
  stencil order = 5
  estimated absolute RMS force accuracy = 0.00015780854
  estimated relative force accuracy = 1.0959196e-05
  using single precision MKL FFT
  3d grid and FFT values/proc = 15000 7600
Setting up Verlet run ...
  Unit style    : metal
  Current step  : 0
  Time step     : 0.001
Per MPI rank memory allocation (min/avg/max) = 8.577 | 8.607 | 8.623 Mbytes
Step f_2 Temp v_Tdiff v_deltaT 
       0            0    599.66282            0            0 
  100000    690.39673    603.68731  0.018842913    218.76447 
  200000    1370.5503    607.72341  0.021483501    249.42145 
  300000    2056.6959    615.12191  0.020724974    240.61503 
  400000    2742.6578    618.51214  0.021252681    246.74166 
  500000    3435.9561    617.72159  0.020465186    237.59891 
  600000    4135.2383    619.81357  0.019774622    229.58152 
  700000    4842.9855    622.03007  0.019816337    230.06583 
  800000     5553.007    626.94236  0.020576836    238.89516 
  900000    6265.9028    628.37093  0.019765147    229.47152 
 1000000    6989.4541    627.55557  0.019239317    223.36669 
Loop time of 6683.22 on 52 procs for 1000000 steps with 18000 atoms

Performance: 12.928 ns/day, 1.856 hours/ns, 149.629 timesteps/s
99.8% CPU use with 52 MPI tasks x 1 OpenMP threads

MPI task timing breakdown:
Section |  min time  |  avg time  |  max time  |%varavg| %total
---------------------------------------------------------------
Pair    | 4459.2     | 4555.3     | 4676.4     |  81.3 | 68.16
Bond    | 0.069761   | 0.10768    | 0.15689    |   6.3 |  0.00
Kspace  | 1273.1     | 1420.9     | 1508       | 172.3 | 21.26
Neigh   | 501.72     | 517.94     | 558.59     |  65.1 |  7.75
Comm    | 144        | 153.81     | 180.39     |  71.8 |  2.30
Output  | 0.001058   | 0.0011171  | 0.0023487  |   0.5 |  0.00
Modify  | 5.4067     | 5.9251     | 6.3245     |   9.5 |  0.09
Other   |            | 29.27      |            |       |  0.44

Nlocal:        346.154 ave         365 max         331 min
Histogram: 5 5 6 5 8 11 5 2 2 3
Nghost:        4164.19 ave        4236 max        4051 min
Histogram: 4 0 4 5 3 1 11 12 6 6
Neighs:        69934.5 ave       73318 max       66448 min
Histogram: 4 3 4 6 8 7 10 4 1 5

Total # of neighbors = 3636593
Ave neighs/atom = 202.03294
Ave special neighs/atom = 0.0000000
Neighbor list builds = 167756
Dangerous builds = 0
Total wall time: 2:02:36
