LAMMPS (29 Oct 2020)
OMP_NUM_THREADS environment is not set. Defaulting to 1 thread. (../comm.cpp:94)
  using 1 OpenMP thread(s) per MPI task
#---------------------------------------
#
# This script is used to calculate the thermal conuctivity of UO2 using Muller-Plathe method
# By Ziqiang Wang on 03/18/2022 on Jilin university
#
#---------------------------------------

variable     Nevery    equal   50
variable     T         equal   1500

clear
OMP_NUM_THREADS environment is not set. Defaulting to 1 thread. (../comm.cpp:94)
  using 1 OpenMP thread(s) per MPI task
units          metal
boundary       p p p
atom_style     full

read_data vac_0.02_relaxed.dat
Reading data file ...
  orthogonal box = (-0.48646978 -6.0274787 -0.49010547) to (27.826470 334.10748 27.830105)
  2 by 13 by 2 MPI processor grid
  reading atoms ...
  17640 atoms
  reading velocities ...
  17640 velocities
Finding 1-2 1-3 1-4 neighbors ...
  special bond factors lj:    0.0      0.0      0.0     
  special bond factors coul:  0.0      0.0      0.0     
     0 = max # of 1-2 neighbors
     0 = max # of 1-3 neighbors
     0 = max # of 1-4 neighbors
     1 = max # of special neighbors
  special bonds CPU = 0.004 seconds
  read_data CPU = 0.075 seconds

set           type     1    charge     -1.1104
Setting atom values ...
  11760 settings made for charge
set           type     2    charge      2.2208
Setting atom values ...
  5880 settings made for charge

kspace_style    pppm   1.0e-05
pair_style      hybrid/overlay  coul/long  11.0  eam/alloy
pair_coeff      * * coul/long
pair_coeff      * * eam/alloy CeThUNpPuAmCmO.eam.alloy O Th
newton          on
neighbor        0.3 bin
neigh_modify    delay 0 check yes every 1

#The first equilation
velocity        all create $T 10002 mom yes rot yes dist gaussian
velocity        all create 1500 10002 mom yes rot yes dist gaussian
fix             nvt  all  nvt  temp  $T $T  0.1
fix             nvt  all  nvt  temp  1500 $T  0.1
fix             nvt  all  nvt  temp  1500 1500  0.1

run             50000
PPPM initialization ...
  using 12-bit tables for long-range coulomb (../kspace.cpp:328)
  G vector (1/distance) = 0.29827915
  grid = 40 240 40
  stencil order = 5
  estimated absolute RMS force accuracy = 0.00016060426
  estimated relative force accuracy = 1.1153348e-05
  using single precision MKL FFT
  3d grid and FFT values/proc = 15000 7600
Neighbor list info ...
  update every 1 steps, delay 0 steps, check yes
  max neighbors/atom: 2000, page size: 100000
  master list distance cutoff = 11.3
  ghost atom cutoff = 11.3
  binsize = 5.65, bins = 6 61 6
  2 neighbor lists, perpetual/occasional/extra = 2 0 0
  (1) pair coul/long, perpetual
      attributes: half, newton on
      pair build: half/bin/newton
      stencil: half/bin/3d/newton
      bin: standard
  (2) pair eam/alloy, perpetual, copy from (1)
      attributes: half, newton on
      pair build: copy
      stencil: none
      bin: none
Per MPI rank memory allocation (min/avg/max) = 8.138 | 8.163 | 8.177 Mbytes
Step Temp E_pair E_mol TotEng Press 
       0         1500   -227978.53            0    -224558.5   -522.68475 
   50000    1490.7629    -227971.9            0   -224572.93   -465.18717 
Loop time of 340.221 on 52 procs for 50000 steps with 17640 atoms

Performance: 12.698 ns/day, 1.890 hours/ns, 146.963 timesteps/s
99.8% CPU use with 52 MPI tasks x 1 OpenMP threads

MPI task timing breakdown:
Section |  min time  |  avg time  |  max time  |%varavg| %total
---------------------------------------------------------------
Pair    | 217.8      | 226.65     | 234.66     |  25.8 | 66.62
Bond    | 0.0034524  | 0.0049889  | 0.0083671  |   1.5 |  0.00
Kspace  | 68.722     | 78.555     | 88.561     |  52.0 | 23.09
Neigh   | 20.433     | 22.705     | 24.769     |  20.0 |  6.67
Comm    | 9.07       | 9.9445     | 10.659     |  11.6 |  2.92
Output  | 5.6186e-05 | 6.2086e-05 | 0.00029343 |   0.0 |  0.00
Modify  | 1.0571     | 1.6062     | 2.7039     |  38.7 |  0.47
Other   |            | 0.751      |            |       |  0.22

Nlocal:        339.231 ave         364 max         303 min
Histogram: 1 0 4 5 9 11 6 3 3 10
Nghost:        3905.02 ave        4047 max        3766 min
Histogram: 2 3 9 4 9 11 3 4 3 4
Neighs:        66920.0 ave       74154 max       56735 min
Histogram: 1 3 2 5 9 7 12 3 3 7

Total # of neighbors = 3479842
Ave neighs/atom = 197.26995
Ave special neighs/atom = 0.0000000
Neighbor list builds = 12494
Dangerous builds = 0
unfix           nvt
reset_timestep  0

# the second run
fix             1 all nve

group           oxygen type 1
11760 atoms in group oxygen
fix             2 oxygen thermal/conductivity ${Nevery} y 20
fix             2 oxygen thermal/conductivity 50 y 20

compute         ke all ke/atom
variable        temp atom c_ke/1.5
compute         layers all chunk/atom bin/1d y lower 0.05 units reduced
fix             3      all ave/chunk  2000 50 100000 layers v_temp file profile_${T}K.mp
fix             3      all ave/chunk  2000 50 100000 layers v_temp file profile_1500K.mp

variable        Tdiff    equal     f_3[11][3]-f_3[1][3]
variable        deltaT   equal     v_Tdiff*1.5/0.0001292

timestep        0.001
thermo_style    custom step f_2 temp v_Tdiff v_deltaT
thermo          100000

run             1000000
PPPM initialization ...
  using 12-bit tables for long-range coulomb (../kspace.cpp:328)
  G vector (1/distance) = 0.29827915
  grid = 40 240 40
  stencil order = 5
  estimated absolute RMS force accuracy = 0.00016060426
  estimated relative force accuracy = 1.1153348e-05
  using single precision MKL FFT
  3d grid and FFT values/proc = 15000 7600
Per MPI rank memory allocation (min/avg/max) = 8.390 | 8.414 | 8.428 Mbytes
Step f_2 Temp v_Tdiff v_deltaT 
       0            0    1490.7629            0            0 
  100000     1576.464    1507.3686  0.069394099    805.65904 
  200000    3031.9366    1501.8229  0.085389637    991.36575 
  300000    4485.3784    1504.3986  0.086883867    1008.7136 
  400000    5938.4318    1495.4276  0.085502184    992.67241 
  500000     7385.369    1500.1778  0.082783078    961.10385 
  600000    8836.6992    1507.2018  0.085672555    994.65041 
  700000    10287.646    1498.1746  0.084691686    983.26261 
  800000    11745.231    1495.5863  0.084497416    981.00715 
  900000    13193.332    1501.9652  0.086192559    1000.6876 
 1000000    14651.147    1512.9228   0.08573581    995.38479 
Loop time of 6728.35 on 52 procs for 1000000 steps with 17640 atoms

Performance: 12.841 ns/day, 1.869 hours/ns, 148.625 timesteps/s
99.8% CPU use with 52 MPI tasks x 1 OpenMP threads

MPI task timing breakdown:
Section |  min time  |  avg time  |  max time  |%varavg| %total
---------------------------------------------------------------
Pair    | 4298.1     | 4458.4     | 4639.5     | 117.0 | 66.26
Bond    | 0.067597   | 0.10103    | 0.16403    |   6.0 |  0.00
Kspace  | 1381.8     | 1572.2     | 1743.7     | 213.8 | 23.37
Neigh   | 425.45     | 459.4      | 491.26     |  71.7 |  6.83
Comm    | 182.39     | 199.22     | 224.14     |  68.3 |  2.96
Output  | 0.001173   | 0.0012415  | 0.0024732  |   0.5 |  0.00
Modify  | 5.5177     | 6.0431     | 6.8324     |  12.4 |  0.09
Other   |            | 33.05      |            |       |  0.49

Nlocal:        339.231 ave         362 max         317 min
Histogram: 3 3 4 3 11 9 13 1 4 1
Nghost:        3913.02 ave        4041 max        3792 min
Histogram: 3 2 1 14 7 10 9 1 3 2
Neighs:        66888.0 ave       74118 max       58364 min
Histogram: 1 4 2 6 6 11 10 6 4 2

Total # of neighbors = 3478174
Ave neighs/atom = 197.17540
Ave special neighs/atom = 0.0000000
Neighbor list builds = 253445
Dangerous builds = 0

Total wall time: 1:57:49
