ITEM: TIMESTEP
50000
ITEM: NUMBER OF ATOMS
17910
ITEM: BOX BOUNDS pp pp pp
-3.5670784924958210e-01 2.7696707849250064e+01
-4.2911308443849361e+00 3.3237113084438488e+02
-3.6230234399655459e-01 2.7702302343996234e+01
ITEM: ATOMS id type q x y z
1 2 2.2208 5.12181 1.45963 5.19767
2 1 -1.1104 0.833145 -2.85492 0.893178
3 1 -1.1104 0.901909 2.74081 0.923307
6 1 -1.1104 0.717319 -2.73209 3.61815
7 1 -1.1104 0.928295 2.79857 3.71853
10 1 -1.1104 0.940355 -0.169292 0.941281
12 2 2.2208 5.01615 -1.41404 2.34545
14 1 -1.1104 0.885357 -0.00896808 3.65533
16 1 -1.1104 3.5632 -2.70775 0.942047
17 1 -1.1104 3.73831 2.60309 1.02984
18 2 2.2208 2.33182 1.30826 2.25739
19 1 -1.1104 3.67383 -2.76882 3.75889
20 1 -1.1104 3.64999 2.77513 3.78517
21 2 2.2208 2.21469 -1.35536 5.11738
22 2 2.2208 2.21664 4.09887 5.21218
23 1 -1.1104 3.60735 -0.149546 0.839367
24 1 -1.1104 3.66167 -0.0562049 3.65105
13 2 2.2208 5.21288 4.22262 2.4101
11 1 -1.1104 6.60247 -0.0476252 1.00785
15 1 -1.1104 6.48612 -0.0160552 3.77651
5 1 -1.1104 6.52451 2.60994 0.973515
169 1 -1.1104 6.36395 2.79954 6.6246
167 1 -1.1104 0.853137 2.66678 6.67277
173 1 -1.1104 3.67598 2.58719 6.67259
8432 2 2.2208 5.10527 -3.98086 5.13454
9 1 -1.1104 6.64811 2.77297 3.71272
8 1 -1.1104 6.4503 -2.8435 3.7332
4 1 -1.1104 6.36783 -2.74166 0.910189
168 1 -1.1104 6.447 -2.78967 6.5991
311 2 2.2208 -0.474391 20.862 7.94492
172 1 -1.1104 3.52739 -2.74921 6.65599
174 1 -1.1104 3.73033 -0.0284707 6.52432
166 1 -1.1104 0.827358 -2.84399 6.42036
170 1 -1.1104 0.995191 -0.142512 6.64949
8434 2 2.2208 7.90855 -4.26756 2.27545
288 1 -1.1104 6.5231 19.6825 9.48373
31 2 2.2208 10.801 1.2908 5.17999
32 1 -1.1104 12.1698 -2.99615 1.01101
33 1 -1.1104 12.1517 2.69545 1.13512
34 1 -1.1104 12.0201 -2.82814 3.77162
35 1 -1.1104 12.0521 2.68684 3.80926
36 1 -1.1104 12.1516 -0.144792 1.08675
37 2 2.2208 10.6726 -1.45005 2.25385
38 2 2.2208 10.736 4.05394 2.47086
39 1 -1.1104 12.1744 0.0615671 3.70855
40 1 -1.1104 9.35597 -2.85761 0.957911
41 1 -1.1104 9.36636 2.68817 1.10326
42 2 2.2208 7.8789 1.36492 2.4104
43 1 -1.1104 9.29819 -2.84185 3.68116
44 1 -1.1104 9.29326 2.91097 4.00294
45 2 2.2208 7.82125 -1.43891 5.11789
47 1 -1.1104 9.31779 -0.151537 0.93755
48 1 -1.1104 9.25456 -0.0795729 3.74028
46 2 2.2208 7.91818 4.24731 5.36512
233 2 2.2208 13.493 4.09885 5.21313
206 1 -1.1104 12.0727 2.60643 6.56219
52 2 2.2208 13.4336 9.71021 10.7837
200 2 2.2208 -0.488546 -1.58568 7.97126
209 1 -1.1104 9.18399 2.88646 6.66645
50 2 2.2208 13.443 -1.46563 5.17479
49 2 2.2208 13.5265 1.39972 2.457
329 1 -1.1104 12.0118 19.5563 12.2679
54 2 2.2208 5.01694 6.85771 5.27556
55 2 2.2208 5.00286 12.5981 5.19539
56 1 -1.1104 0.892989 8.44142 1.18979
58 1 -1.1104 1.00409 8.30281 3.82232
60 1 -1.1104 0.918069 5.60951 0.984084
61 1 -1.1104 0.882535 11.3522 1.06738
66 2 2.2208 5.06508 9.68488 2.51609
67 1 -1.1104 0.847349 5.48008 3.82171
68 1 -1.1104 0.923817 11.0878 3.89169
71 1 -1.1104 3.76376 8.32659 0.975816
72 2 2.2208 2.28971 6.987 2.51517
73 2 2.2208 2.30224 12.473 2.44142
74 1 -1.1104 3.77494 8.39932 3.90579
75 2 2.2208 2.37368 9.63039 5.26006
76 1 -1.1104 3.77188 5.48239 1.12996
77 1 -1.1104 3.737 11.0091 1.03021
79 1 -1.1104 3.72744 5.5082 3.94525
80 1 -1.1104 3.68898 11.0716 3.79836
64 1 -1.1104 6.60013 11.1894 1.0678
69 1 -1.1104 6.49873 5.55307 3.92
59 1 -1.1104 6.47119 8.34969 3.8638
63 1 -1.1104 6.66505 5.43523 1.00869
70 1 -1.1104 6.48774 11.1306 3.7548
236 1 -1.1104 0.74407 5.62472 6.70302
57 1 -1.1104 6.49315 8.25524 1.06123
238 1 -1.1104 3.72124 8.26844 6.74528
78 1 -1.1104 3.64407 11.1933 6.58786
62 1 -1.1104 1.02514 11.2042 6.54225
234 1 -1.1104 0.890608 8.54036 6.82626
239 1 -1.1104 3.47632 5.42486 6.68252
319 1 -1.1104 9.23247 14.0371 9.6074
84 2 2.2208 10.8767 6.97171 5.33653
85 2 2.2208 10.7183 12.6634 5.4301
86 1 -1.1104 12.1455 8.2383 1.01939
87 1 -1.1104 12.1639 8.39205 3.65432
88 1 -1.1104 12.0465 5.52815 0.901034
89 1 -1.1104 12.0808 11.165 1.22401
91 2 2.2208 10.7076 9.69724 2.50716
92 1 -1.1104 12.0815 5.56081 3.71998
93 1 -1.1104 12.2756 11.188 3.93623
94 1 -1.1104 9.4129 8.19072 1.14374
95 2 2.2208 8.01642 6.98553 2.47872
96 2 2.2208 7.9003 12.5929 2.43242
97 1 -1.1104 9.29619 8.34908 3.81982
98 2 2.2208 7.92726 9.75593 5.18458
99 1 -1.1104 9.37154 5.44938 1.05601
100 1 -1.1104 9.28692 11.0055 1.03748
102 1 -1.1104 9.25257 5.6642 3.89204
103 1 -1.1104 9.4823 11.1439 3.96591
90 1 -1.1104 12.1411 11.1698 6.65643
105 2 2.2208 13.3963 6.94834 2.44454
266 1 -1.1104 12.1815 5.71416 6.69336
269 1 -1.1104 9.35499 5.53162 6.66787
104 2 2.2208 13.6289 12.5817 2.5704
384 2 2.2208 10.6307 6.89958 -0.333087
322 1 -1.1104 9.26188 14.0871 12.2173
106 2 2.2208 5.04017 18.1793 5.23998
107 1 -1.1104 1.08976 13.964 0.988883
109 1 -1.1104 0.843017 19.5849 0.9355
113 1 -1.1104 0.782281 13.8966 3.83992
114 1 -1.1104 1.0148 19.7284 3.85754
116 1 -1.1104 0.959968 16.7674 1.08875
119 2 2.2208 5.01647 15.4183 2.43176
120 2 2.2208 5.03226 21.006 2.46275
121 1 -1.1104 0.84312 16.8463 3.8067
123 1 -1.1104 3.7291 13.8925 0.918954
125 1 -1.1104 3.55414 19.6108 1.17472
127 2 2.2208 2.30325 18.2236 2.41652
128 1 -1.1104 3.59229 14.0517 3.69718
129 1 -1.1104 3.80984 19.4768 4.026
130 2 2.2208 2.13934 15.3989 5.20179
131 2 2.2208 2.33727 20.9489 5.28761
132 1 -1.1104 3.73513 16.861 1.13068
134 1 -1.1104 3.57023 16.8222 3.84201
139 1 -1.1104 6.63759 19.6517 3.78843
110 1 -1.1104 6.50764 13.917 1.17008
140 1 -1.1104 6.50048 16.7799 1.08278
122 1 -1.1104 6.41153 16.8834 3.8599
115 1 -1.1104 6.36587 14.1111 4.01126
111 1 -1.1104 6.42907 13.8971 6.60546
126 1 -1.1104 3.65606 19.6871 6.6833
302 1 -1.1104 0.96797 19.5478 6.6292
108 1 -1.1104 0.89988 14.0832 6.7661
323 1 -1.1104 12.1843 16.8504 9.48677
318 1 -1.1104 9.28029 19.6059 9.34028
138 1 -1.1104 6.36105 19.6701 0.903748
112 1 -1.1104 6.42865 19.4944 6.65959
165 2 2.2208 13.4835 18.1825 2.31967
141 2 2.2208 10.8224 18.1714 5.26819
142 1 -1.1104 12.2416 13.8231 1.20403
144 1 -1.1104 11.9927 19.6507 1.13922
146 1 -1.1104 12.0354 14.0094 3.90484
147 1 -1.1104 12.253 19.4814 3.8989
148 1 -1.1104 12.0979 16.7729 1.03777
150 2 2.2208 10.6303 15.2913 2.44965
151 2 2.2208 10.611 20.9196 2.52604
152 1 -1.1104 12.1558 16.681 3.90871
153 1 -1.1104 9.37011 13.9609 1.09357
155 1 -1.1104 9.22885 19.5072 1.12004
157 2 2.2208 7.83854 18.1938 2.46958
158 1 -1.1104 9.20805 13.9014 3.94108
159 1 -1.1104 9.24591 19.5154 3.91032
160 2 2.2208 7.94532 15.3028 5.19983
161 2 2.2208 7.86532 20.856 5.34476
162 1 -1.1104 9.24123 16.631 0.943764
164 1 -1.1104 9.29346 16.763 3.74813
327 1 -1.1104 12.1386 19.6745 9.47011
145 1 -1.1104 12.1358 19.5583 6.67326
149 1 -1.1104 12.14 16.7574 6.76611
143 1 -1.1104 12.0882 14.0229 6.55238
231 2 2.2208 13.5651 20.964 5.33389
156 1 -1.1104 9.2045 19.5204 6.56938
349 2 2.2208 7.82871 20.9595 -0.234175
8437 2 2.2208 2.25885 -4.13198 7.95927
232 2 2.2208 13.5599 9.73471 5.30244
171 1 -1.1104 6.56807 -0.0153477 6.54076
175 2 2.2208 5.09348 1.14582 10.8333
176 1 -1.1104 0.827304 -2.77316 12.2727
177 1 -1.1104 0.897234 2.79402 12.2537
180 1 -1.1104 0.73062 -3.01796 9.49568
181 1 -1.1104 0.94227 2.73609 9.47624
184 1 -1.1104 0.917567 -0.167881 12.246
186 2 2.2208 5.10926 -1.41719 7.94091
188 1 -1.1104 0.885902 -0.129259 9.36922
190 1 -1.1104 3.59767 -2.87843 12.2357
191 1 -1.1104 3.66328 2.67607 12.1874
192 2 2.2208 2.42645 1.23084 8.10675
193 1 -1.1104 3.68798 -2.88687 9.30226
194 1 -1.1104 3.82088 2.68171 9.57823
195 2 2.2208 2.24502 -1.49028 10.875
197 1 -1.1104 3.65293 -0.054655 12.3213
198 1 -1.1104 3.5802 -0.122925 9.49379
187 2 2.2208 5.07663 4.16023 8.02545
182 1 -1.1104 6.44634 -2.80376 9.38116
189 1 -1.1104 6.44465 -0.2044 9.37059
183 1 -1.1104 6.61677 2.73822 9.38707
196 2 2.2208 2.24204 4.17363 10.853
178 1 -1.1104 6.49568 -2.89647 12.191
179 1 -1.1104 6.46534 2.62196 12.2217
185 1 -1.1104 6.56721 -0.149954 12.23
338 2 2.2208 5.05738 -1.54066 13.6904
330 1 -1.1104 12.0853 13.8828 12.3045
8440 2 2.2208 7.82301 -4.30246 7.85437
203 2 2.2208 13.5141 4.13341 10.8327
205 1 -1.1104 12.0737 -2.86905 6.51893
208 1 -1.1104 9.18858 -2.80132 6.51419
210 1 -1.1104 9.30549 -0.0336571 6.59745
321 1 -1.1104 9.1647 19.6448 12.2491
324 2 2.2208 10.6722 20.9666 8.10004
230 2 2.2208 13.5059 -1.43625 10.8336
207 1 -1.1104 12.1282 -0.238375 6.60989
211 2 2.2208 10.8229 1.19979 10.7689
212 1 -1.1104 12.1181 -2.71751 12.244
213 1 -1.1104 12.2543 2.58583 12.1455
214 1 -1.1104 11.9819 -3.09196 9.41078
215 1 -1.1104 12.1122 2.67898 9.319
216 1 -1.1104 12.2873 -0.103707 12.3676
217 2 2.2208 10.5233 -1.55549 7.89146
218 2 2.2208 10.6671 4.1215 8.05592
219 1 -1.1104 11.9673 -0.273108 9.36128
220 1 -1.1104 9.29882 -2.89428 12.1416
221 1 -1.1104 9.34088 2.71588 12.0831
222 2 2.2208 7.80291 1.3332 8.09727
223 1 -1.1104 9.23851 -2.85882 9.2043
224 1 -1.1104 9.37879 2.66792 9.34792
225 2 2.2208 7.92763 -1.5592 10.7574
226 2 2.2208 7.95678 4.08824 10.7447
227 1 -1.1104 9.18902 -0.0301153 12.207
228 1 -1.1104 9.29165 -0.151543 9.40161
229 2 2.2208 13.4432 1.20418 7.90047
65 1 -1.1104 6.53818 11.1304 6.75477
237 1 -1.1104 6.51028 5.53213 6.74251
154 1 -1.1104 9.2537 13.9727 6.7966
240 2 2.2208 5.08983 6.89572 10.772
241 2 2.2208 5.10011 12.5566 10.8299
242 1 -1.1104 0.845217 8.42812 12.1831
244 1 -1.1104 0.75701 8.40548 9.66497
246 1 -1.1104 0.852495 5.64831 12.0318
247 1 -1.1104 0.888078 11.2721 12.0628
250 2 2.2208 5.07596 9.6834 8.0836
251 1 -1.1104 0.919855 5.41431 9.40968
252 1 -1.1104 0.94077 11.3033 9.4087
255 1 -1.1104 3.78899 8.47292 12.2679
256 2 2.2208 2.28024 6.8419 8.16683
257 2 2.2208 2.28291 12.6122 7.93813
258 1 -1.1104 3.51353 8.32971 9.50131
259 2 2.2208 2.36627 9.74573 10.9099
260 1 -1.1104 3.811 5.71062 12.364
261 1 -1.1104 3.67418 11.2094 12.3051
262 1 -1.1104 3.60747 5.50205 9.46945
263 1 -1.1104 3.80123 11.0762 9.35038
254 1 -1.1104 6.64274 11.1103 9.52452
235 1 -1.1104 6.48619 8.30633 6.42286
248 1 -1.1104 6.60156 5.7597 12.1169
245 1 -1.1104 6.41402 8.23993 9.27657
253 1 -1.1104 6.48737 5.50787 9.4177
249 1 -1.1104 6.52951 11.3031 12.3132
243 1 -1.1104 6.54881 8.45331 12.1954
352 2 2.2208 5.17536 9.73078 13.7332
101 1 -1.1104 9.38128 11.1592 6.71831
267 1 -1.1104 9.31972 8.32984 6.72835
354 2 2.2208 7.98172 6.83611 13.5788
265 1 -1.1104 12.0733 8.35568 6.73354
264 1 -1.1104 9.34652 11.0988 9.47068
268 1 -1.1104 9.32102 5.44394 9.51789
270 1 -1.1104 9.34468 11.2575 12.2821
271 1 -1.1104 9.34852 5.60476 12.2913
272 2 2.2208 7.89612 9.77543 10.9596
273 1 -1.1104 9.22131 8.27884 9.60939
274 2 2.2208 7.77013 12.5822 8.05709
275 2 2.2208 7.98911 6.93015 7.99504
276 2 2.2208 10.7011 6.93272 10.9383
277 2 2.2208 10.7662 12.5433 10.8134
278 1 -1.1104 12.0657 8.30976 12.3086
279 1 -1.1104 12.1231 8.39725 9.47453
280 1 -1.1104 12.0529 5.54057 12.1446
281 1 -1.1104 12.1397 11.136 12.3441
282 2 2.2208 10.6464 9.68945 8.07033
283 1 -1.1104 11.9822 5.50456 9.51961
284 1 -1.1104 12.041 10.9715 9.41191
285 1 -1.1104 9.26419 8.47619 12.442
376 2 2.2208 13.477 12.6115 13.7106
202 2 2.2208 13.5451 7.06812 8.16157
53 2 2.2208 13.517 12.5941 7.9859
356 2 2.2208 7.87071 12.5502 13.6284
336 2 2.2208 13.5971 6.9044 13.5979
320 2 2.2208 7.82289 18.2207 8.03385
163 1 -1.1104 9.38508 16.72 6.52206
306 1 -1.1104 6.35459 16.8041 12.3338
290 1 -1.1104 6.43146 14.1147 9.3159
117 1 -1.1104 0.807498 16.8201 6.53848
124 1 -1.1104 3.62788 13.9436 6.61756
133 1 -1.1104 3.55368 16.7769 6.6919
297 1 -1.1104 6.35892 13.966 12.2281
289 1 -1.1104 6.50898 16.8946 9.30809
310 2 2.2208 2.39456 15.3566 10.89
309 2 2.2208 2.31043 20.9455 10.8085
286 1 -1.1104 3.65844 19.517 12.2431
300 2 2.2208 5.09635 18.1511 10.9019
299 1 -1.1104 0.861792 13.9564 12.3381
308 1 -1.1104 3.6717 16.8373 12.3292
298 1 -1.1104 0.940584 19.4822 12.1897
304 1 -1.1104 3.61918 16.7181 9.46686
303 2 2.2208 2.21932 18.1664 8.03165
292 1 -1.1104 0.884255 16.7527 9.36705
295 2 2.2208 4.98626 15.3587 7.91243
307 1 -1.1104 0.920191 16.6868 12.2953
301 1 -1.1104 3.73988 19.4312 9.36681
291 1 -1.1104 0.777272 19.4589 9.45258
305 1 -1.1104 3.86909 13.8074 9.27454
287 1 -1.1104 3.61992 14.0166 12.3634
294 1 -1.1104 0.980269 14.0006 9.5006
293 2 2.2208 5.1258 20.9159 8.01463
296 1 -1.1104 6.38424 19.5576 12.201
118 1 -1.1104 6.59648 16.6005 6.59161
357 2 2.2208 2.22624 18.1653 13.7043
358 2 2.2208 5.05459 20.9601 13.6112
28 2 2.2208 13.53 20.9703 10.9418
325 2 2.2208 10.6405 15.4017 8.00448
333 2 2.2208 13.463 15.4281 10.8626
332 2 2.2208 13.5081 18.1642 8.11175
315 1 -1.1104 9.0039 16.8193 12.1605
331 2 2.2208 10.5985 18.3086 10.8101
328 1 -1.1104 11.988 13.9354 9.32208
326 1 -1.1104 11.9503 16.6051 12.2822
314 1 -1.1104 9.40186 16.8863 9.46013
316 2 2.2208 7.85034 21.0779 10.9286
317 2 2.2208 7.79782 15.4055 10.7538
362 2 2.2208 7.81532 18.1448 13.6092
341 2 2.2208 5.08141 4.13104 13.6076
350 2 2.2208 10.7427 4.13933 13.6297
346 2 2.2208 10.7755 -1.50204 13.4635
343 2 2.2208 7.85261 1.27615 13.5906
340 2 2.2208 13.5951 1.41291 13.755
8454 2 2.2208 7.89121 -4.26249 13.4388
351 2 2.2208 2.36646 6.96961 13.5477
348 2 2.2208 10.6024 18.1111 -0.281997
347 2 2.2208 7.87482 15.4151 -0.295679
345 2 2.2208 13.4879 20.9682 -0.414596
355 2 2.2208 10.799 9.77361 13.7112
359 2 2.2208 4.94623 15.2768 13.6829
361 2 2.2208 10.6445 15.3012 13.6019
365 2 2.2208 2.13825 -1.43452 -0.561903
377 2 2.2208 13.5804 -1.49907 -0.329434
370 2 2.2208 7.77976 -1.45317 -0.384723
369 2 2.2208 10.8279 1.32583 -0.387725
379 2 2.2208 5.16036 6.89935 -0.4841
373 2 2.2208 2.41917 15.4731 -0.44296
344 2 2.2208 13.4725 15.3352 -0.315063
388 2 2.2208 5.20394 1.33761 16.4747
389 1 -1.1104 0.930611 -3.06582 17.6783
390 1 -1.1104 0.917492 2.71038 18.0356
393 1 -1.1104 0.740775 -2.76064 14.9202
395 1 -1.1104 0.990437 2.74516 15.036
401 1 -1.1104 0.96032 -0.0580054 17.7254
403 2 2.2208 5.24112 -1.57281 19.3102
404 2 2.2208 5.16781 4.05884 19.1973
405 1 -1.1104 1.06572 0.127647 15.0965
409 1 -1.1104 3.74544 -2.7085 17.8265
410 1 -1.1104 3.83721 2.80188 17.8644
411 2 2.2208 2.37491 1.35713 19.186
412 1 -1.1104 3.82521 -2.89123 15.0664
414 1 -1.1104 3.74083 2.80868 15.0287
416 2 2.2208 2.28209 -1.47712 16.4477
418 1 -1.1104 3.5902 0.176871 17.7082
419 1 -1.1104 3.75292 -0.0481657 14.9768
417 2 2.2208 2.34936 4.16479 16.3907
402 1 -1.1104 6.49573 -0.130788 17.8734
399 1 -1.1104 6.57149 2.79552 14.8871
391 1 -1.1104 6.53499 -2.89789 17.8872
392 1 -1.1104 6.56084 2.72307 17.6529
420 1 -1.1104 3.72713 -0.0970015 20.5642
396 1 -1.1104 1.01919 2.62245 20.6216
430 2 2.2208 13.5487 15.4511 22.0502
407 1 -1.1104 6.47507 0.0274495 15.0438
397 1 -1.1104 6.58841 -2.76774 15.0387
8518 2 2.2208 13.5276 -4.38474 24.7663
415 1 -1.1104 3.81297 2.77144 20.7095
413 1 -1.1104 3.71463 -3.01781 20.6512
398 1 -1.1104 6.34 -2.88008 20.6834
455 2 2.2208 13.4815 18.1972 24.9464
8516 2 2.2208 7.85408 -4.1976 24.9826
431 2 2.2208 10.6385 1.2653 16.3845
432 1 -1.1104 12.3332 -3.00572 17.7901
433 1 -1.1104 12.1928 2.5532 17.9972
434 1 -1.1104 12.1883 -2.85266 14.9136
436 1 -1.1104 12.0546 2.77764 15.0104
438 1 -1.1104 12.1197 -0.222926 17.8746
439 2 2.2208 10.6345 -1.47664 19.0961
440 2 2.2208 10.7224 4.2047 19.2989
441 1 -1.1104 12.1897 -0.0641588 15.107
443 1 -1.1104 9.40506 -2.9457 17.6719
444 1 -1.1104 9.42889 2.78533 17.7199
445 2 2.2208 8.07649 1.41276 19.1845
446 1 -1.1104 9.37439 -2.80956 14.8748
448 1 -1.1104 9.50688 2.75803 14.9644
450 2 2.2208 7.98511 -1.47057 16.4163
452 1 -1.1104 9.21258 -0.172271 17.908
453 1 -1.1104 9.34914 0.0267011 15.1501
451 2 2.2208 8.02016 4.19876 16.4614
459 2 2.2208 13.5115 -1.42356 16.3788
447 1 -1.1104 9.39198 -2.86777 20.6373
8517 2 2.2208 10.6363 -4.231 22.009
442 1 -1.1104 12.1477 0.00910604 20.6794
435 1 -1.1104 11.9634 -2.73471 20.6149
437 1 -1.1104 12.2762 2.79411 20.6909
429 2 2.2208 13.36 4.17889 16.5181
8553 2 2.2208 5.13141 -4.26243 22.1079
428 2 2.2208 13.5978 1.26937 19.2998
462 2 2.2208 10.7167 18.1606 22.1517
464 2 2.2208 5.26143 6.78117 16.4292
465 2 2.2208 4.98741 12.3974 16.4832
466 1 -1.1104 0.826688 8.31703 17.8525
468 1 -1.1104 0.973736 8.33179 15.0192
472 1 -1.1104 0.969392 5.45238 17.8346
473 1 -1.1104 0.837736 11.1372 17.9963
476 2 2.2208 5.09718 9.64511 19.3104
477 1 -1.1104 0.942039 5.6156 14.762
479 1 -1.1104 0.959218 11.0727 14.8774
485 1 -1.1104 3.77444 8.387 17.9377
486 2 2.2208 2.34865 6.96554 19.1605
487 2 2.2208 2.24205 12.3719 19.2422
488 1 -1.1104 3.77998 8.27921 15.1359
490 2 2.2208 2.23522 9.72303 16.3352
491 1 -1.1104 3.79595 5.60211 17.8313
492 1 -1.1104 3.69566 11.089 17.7811
493 1 -1.1104 3.74127 5.45264 15.0336
495 1 -1.1104 3.67452 11.0312 14.9698
474 1 -1.1104 6.60607 5.51826 17.8353
481 1 -1.1104 6.59494 5.60809 14.9485
470 1 -1.1104 6.64305 8.40426 15.0325
483 1 -1.1104 6.52873 11.2751 15.1401
482 1 -1.1104 6.55441 5.56219 20.6119
480 1 -1.1104 0.831676 11.1845 20.7914
489 1 -1.1104 3.64309 8.38817 20.6411
478 1 -1.1104 1.129 5.56861 20.8114
496 1 -1.1104 3.68844 11.1699 20.5362
620 1 -1.1104 9.31951 16.8394 26.1207
475 1 -1.1104 6.46593 11.0009 17.9014
467 1 -1.1104 6.62183 8.33809 17.6645
484 1 -1.1104 6.39445 11.1953 20.6058
469 1 -1.1104 1.04459 8.3218 20.5277
471 1 -1.1104 6.46885 8.34724 20.7168
650 2 2.2208 13.3905 12.5877 19.2429
500 2 2.2208 10.7256 6.89776 16.4072
501 2 2.2208 10.6597 12.6546 16.3502
502 1 -1.1104 12.1258 8.34641 17.9445
503 1 -1.1104 12.1831 8.51748 15.1138
505 1 -1.1104 11.9292 5.41643 17.9206
506 1 -1.1104 12.0999 11.0709 17.9074
507 2 2.2208 10.7079 9.73323 19.3328
508 1 -1.1104 12.0144 5.62146 15.0223
510 1 -1.1104 12.0856 11.2455 15.0743
512 1 -1.1104 9.29864 8.38871 17.9311
513 2 2.2208 7.87757 7.0129 19.2382
514 2 2.2208 8.0199 12.5184 19.2326
515 1 -1.1104 9.49513 8.1452 15.1862
517 2 2.2208 8.00684 9.76223 16.5141
518 1 -1.1104 9.2825 5.59789 17.9317
519 1 -1.1104 9.38829 11.1956 17.9269
520 1 -1.1104 9.31981 5.45867 15.0393
522 1 -1.1104 9.28285 11.1717 15.1846
651 2 2.2208 13.5122 6.93762 19.4072
426 2 2.2208 13.5645 9.69979 16.5285
516 1 -1.1104 9.38693 8.39366 20.7919
523 1 -1.1104 9.30874 11.1167 20.5431
511 1 -1.1104 12.1466 11.0654 20.664
498 1 -1.1104 11.997 13.9391 26.3395
527 2 2.2208 5.1093 18.0699 16.4406
528 1 -1.1104 0.925782 13.8302 17.8633
529 1 -1.1104 0.757552 19.5384 17.7841
532 1 -1.1104 0.851695 13.888 15.1082
534 1 -1.1104 0.765752 19.4563 15.056
540 1 -1.1104 0.857696 16.6761 17.9645
542 2 2.2208 5.03631 15.2417 19.2679
543 2 2.2208 5.1221 20.904 19.2559
544 1 -1.1104 0.89295 16.7071 15.201
548 1 -1.1104 3.70473 13.948 17.8704
549 1 -1.1104 3.57267 19.5243 17.8627
550 2 2.2208 2.28363 18.2076 19.3226
551 1 -1.1104 3.64884 13.8661 15.0707
553 1 -1.1104 3.60789 19.4874 14.9979
555 2 2.2208 2.18501 15.2883 16.5224
556 2 2.2208 2.11703 20.9106 16.4432
557 1 -1.1104 3.76568 16.7786 17.9656
558 1 -1.1104 3.62691 16.6701 15.1031
530 1 -1.1104 6.4436 13.8971 17.9509
546 1 -1.1104 6.34106 16.6628 15.0723
541 1 -1.1104 6.3976 16.6428 17.9603
531 1 -1.1104 6.32308 19.5554 17.7209
536 1 -1.1104 6.35323 13.8547 15.0984
547 1 -1.1104 6.38292 16.7134 20.7368
533 1 -1.1104 0.822326 14.0119 20.7025
559 1 -1.1104 3.63436 16.6666 20.6603
537 1 -1.1104 6.60023 13.887 20.8527
526 2 2.2208 10.6173 20.8779 24.976
460 2 2.2208 13.4396 20.9095 16.413
574 1 -1.1104 12.0946 16.8141 20.6666
538 1 -1.1104 6.64301 19.5695 15.0198
563 2 2.2208 10.5962 18.0522 16.3943
564 1 -1.1104 12.0094 13.9449 17.7762
565 1 -1.1104 12.0603 19.5524 17.8373
566 1 -1.1104 12.0016 14.0238 14.9901
568 1 -1.1104 12.0256 19.6155 15.077
570 1 -1.1104 12.0702 16.7579 17.7956
571 2 2.2208 10.5952 15.4406 19.2516
572 2 2.2208 10.6026 20.9408 19.1514
573 1 -1.1104 11.9315 16.7573 14.9692
575 1 -1.1104 9.31201 13.9984 17.7163
576 1 -1.1104 9.15739 19.5328 17.8787
577 2 2.2208 7.81949 17.9574 19.3846
578 1 -1.1104 9.26285 14.0192 14.9167
580 1 -1.1104 9.26855 19.4878 15.0127
582 2 2.2208 7.7132 15.1884 16.3892
583 2 2.2208 7.86705 20.9219 16.5325
584 1 -1.1104 9.10985 16.7531 17.9676
585 1 -1.1104 9.13989 16.7308 15.1318
569 1 -1.1104 12.0989 19.6206 20.748
579 1 -1.1104 9.38953 13.9777 20.593
618 2 2.2208 13.3769 18.2585 19.2577
586 1 -1.1104 9.22833 16.66 20.7054
567 1 -1.1104 12.0428 14.022 20.6787
581 1 -1.1104 9.22158 19.4616 20.7568
525 2 2.2208 10.7192 15.378 24.9773
394 1 -1.1104 0.953633 -2.85868 20.5177
406 1 -1.1104 0.918474 -0.171989 20.4936
591 2 2.2208 5.16439 1.25541 21.871
592 1 -1.1104 0.941778 -2.85394 23.3828
593 1 -1.1104 0.895672 2.69464 23.3645
596 1 -1.1104 0.825431 -2.83723 26.1604
597 1 -1.1104 1.00975 2.70508 26.2171
600 1 -1.1104 1.04175 -0.00443164 23.433
602 2 2.2208 5.08745 -1.48774 24.9053
604 1 -1.1104 0.785603 -0.0276177 26.0531
606 1 -1.1104 3.63037 -2.82419 23.5127
607 1 -1.1104 3.71248 2.78608 23.4516
608 2 2.2208 2.2363 1.36017 24.7498
609 1 -1.1104 3.67131 -2.82166 26.3083
610 1 -1.1104 3.83214 2.78886 26.2706
611 2 2.2208 2.34494 -1.50676 22.0574
612 2 2.2208 2.49283 4.10429 22.0954
613 1 -1.1104 3.73555 -0.128278 23.3964
614 1 -1.1104 3.58291 -0.052664 26.1732
603 2 2.2208 5.10265 3.98972 24.7853
408 1 -1.1104 6.47937 0.0214303 20.5288
594 1 -1.1104 6.45953 -2.80754 23.472
599 1 -1.1104 6.65253 2.75205 26.2491
595 1 -1.1104 6.60105 2.7544 23.3219
605 1 -1.1104 6.41968 -0.036818 26.2113
497 1 -1.1104 12.2331 19.5048 23.6243
601 1 -1.1104 6.65528 -0.0245475 23.4627
400 1 -1.1104 6.63784 2.75585 20.6277
587 2 2.2208 7.91373 18.1645 24.858
654 2 2.2208 13.5711 1.45607 25.0228
449 1 -1.1104 9.40358 2.7683 20.5827
423 2 2.2208 13.5468 4.18994 22.1145
653 2 2.2208 13.3816 -1.50501 22.0775
378 2 2.2208 13.471 4.18461 27.6718
598 1 -1.1104 6.52266 -2.76344 26.2612
454 1 -1.1104 9.29812 -0.0973943 20.6896
627 2 2.2208 10.7872 1.40285 22.1487
628 1 -1.1104 12.1571 -2.98148 23.4482
629 1 -1.1104 11.9684 2.74026 23.6134
630 1 -1.1104 12.1558 -2.99989 26.3707
631 1 -1.1104 12.1641 2.67993 26.3288
632 1 -1.1104 12.1772 0.00111219 23.5774
633 2 2.2208 10.8959 -1.36855 24.9748
634 2 2.2208 10.6668 4.11709 24.8698
635 1 -1.1104 12.1487 -0.0162474 26.3122
636 1 -1.1104 9.45902 -2.90589 23.4422
637 1 -1.1104 9.33583 2.76429 23.4344
638 2 2.2208 7.98999 1.40164 24.7271
639 1 -1.1104 9.34119 -2.80456 26.1575
640 1 -1.1104 9.39831 2.74461 26.3293
641 2 2.2208 8.02442 -1.3933 22.1019
643 1 -1.1104 9.45655 -0.132057 23.5141
644 1 -1.1104 9.22611 0.0359551 26.3392
642 2 2.2208 8.01253 4.22419 21.9963
619 2 2.2208 13.4162 15.3418 16.455
463 1 -1.1104 12.2287 13.951 23.446
524 1 -1.1104 12.027 16.8327 23.5638
380 2 2.2208 2.36454 9.78855 27.6366
616 2 2.2208 7.95259 20.8718 22.1027
494 1 -1.1104 3.85237 5.57907 20.5785
656 2 2.2208 5.03857 7.06404 22.0314
657 2 2.2208 5.10489 12.5368 22.0067
658 1 -1.1104 0.838356 8.48101 23.5137
660 1 -1.1104 0.887379 8.46015 26.2199
662 1 -1.1104 1.007 5.47452 23.5162
663 1 -1.1104 0.775172 11.2341 23.6333
666 2 2.2208 5.14004 9.7447 24.9064
667 1 -1.1104 0.754063 5.48771 26.4169
668 1 -1.1104 0.997843 11.2649 26.3962
671 1 -1.1104 3.59007 8.33128 23.3934
672 2 2.2208 2.28382 7.016 24.7988
673 2 2.2208 2.1411 12.6483 24.935
674 1 -1.1104 3.70572 8.33487 26.286
675 2 2.2208 2.23946 9.72164 22.0102
676 1 -1.1104 3.73953 5.45436 23.404
677 1 -1.1104 3.61983 11.241 23.4619
678 1 -1.1104 3.63272 5.60044 26.2056
679 1 -1.1104 3.76135 11.2099 26.2817
669 1 -1.1104 6.39134 5.50101 26.1591
665 1 -1.1104 6.55073 11.2451 23.513
664 1 -1.1104 6.60275 5.46062 23.4335
670 1 -1.1104 6.5017 11.0235 26.1458
661 1 -1.1104 6.42561 8.34862 26.4702
659 1 -1.1104 6.50142 8.41837 23.5966
422 2 2.2208 13.6214 9.74208 22.0456
521 1 -1.1104 9.32693 5.47137 20.6628
710 2 2.2208 13.4673 6.9313 24.9083
708 2 2.2208 13.5406 12.5467 24.823
504 1 -1.1104 12.2242 8.28957 20.6724
509 1 -1.1104 11.9788 5.5204 20.7746
687 1 -1.1104 9.3072 11.126 26.4073
688 1 -1.1104 9.3102 5.51723 26.2836
689 1 -1.1104 9.20423 11.2251 23.5141
690 1 -1.1104 9.23862 5.63672 23.4175
691 2 2.2208 7.94095 9.7731 22.143
692 1 -1.1104 9.27046 8.38925 26.3079
693 2 2.2208 7.90733 12.4863 24.9605
694 2 2.2208 7.98324 6.95219 24.9146
695 2 2.2208 10.8025 6.95656 22.0899
696 2 2.2208 10.7039 12.6233 22.0683
697 1 -1.1104 12.0931 8.29361 23.5252
698 1 -1.1104 12.1178 8.46306 26.3024
699 1 -1.1104 12.1863 5.44174 23.489
700 1 -1.1104 11.9091 11.0589 23.4708
701 2 2.2208 10.7246 9.73746 24.9372
702 1 -1.1104 11.9782 5.63743 26.3533
703 1 -1.1104 12.0725 11.24 26.4043
704 1 -1.1104 9.34296 8.44166 23.4919
385 2 2.2208 7.92962 9.73025 27.7152
386 2 2.2208 10.6532 12.5133 27.775
545 1 -1.1104 0.716891 16.7787 20.7134
718 1 -1.1104 6.55714 19.4508 23.3187
680 1 -1.1104 6.43905 16.6666 23.5773
374 2 2.2208 5.19392 18.2244 27.8286
712 1 -1.1104 6.37091 13.9259 26.3375
535 1 -1.1104 0.902527 19.5855 20.6283
554 1 -1.1104 3.6686 19.5885 20.678
552 1 -1.1104 3.61424 13.9712 20.5889
647 2 2.2208 2.18017 15.2534 22.0135
649 2 2.2208 2.26273 20.9924 21.9422
652 1 -1.1104 3.59687 16.7612 23.5111
655 1 -1.1104 0.920699 16.8601 23.54
681 1 -1.1104 3.61595 14.0183 26.1776
682 1 -1.1104 3.87259 16.8867 26.3861
683 2 2.2208 2.29935 18.1654 24.9431
686 1 -1.1104 3.89054 19.6103 26.2265
705 2 2.2208 4.93776 18.0351 22.1005
706 1 -1.1104 0.819959 14.0514 23.4652
707 1 -1.1104 0.985095 19.6155 23.3866
711 1 -1.1104 3.79716 19.6153 23.4418
713 1 -1.1104 3.55269 13.8926 23.4221
715 1 -1.1104 0.716344 19.5934 26.2135
716 1 -1.1104 0.926562 16.8866 26.2665
717 1 -1.1104 0.779556 14.0895 26.3507
719 2 2.2208 5.08848 20.9027 24.8256
720 2 2.2208 5.0071 15.3066 24.9956
709 1 -1.1104 6.38552 13.9748 23.6529
461 2 2.2208 13.5512 20.9003 22.0389
590 1 -1.1104 9.25019 19.561 26.3443
560 1 -1.1104 12.1327 16.7909 26.4152
539 1 -1.1104 6.51591 19.5988 20.5096
588 1 -1.1104 6.4207 19.463 26.1647
615 2 2.2208 7.89134 15.3806 22.1011
589 1 -1.1104 9.19727 13.9264 26.3602
617 1 -1.1104 9.35624 16.6872 23.37
562 1 -1.1104 9.24875 19.5711 23.4366
499 1 -1.1104 12.0088 19.5538 26.3905
561 1 -1.1104 9.3234 14.059 23.6264
714 1 -1.1104 6.56333 16.6587 26.4002
364 2 2.2208 5.13513 1.30012 27.5353
366 2 2.2208 2.35888 4.16661 27.5551
8453 2 2.2208 13.5057 -4.18189 13.7051
372 2 2.2208 7.98687 4.08639 27.8224
381 2 2.2208 4.95424 12.4678 27.6981
387 2 2.2208 13.4222 9.69803 27.7407
360 2 2.2208 10.6628 20.9686 13.6439
375 2 2.2208 2.15949 21.0286 27.7485
363 2 2.2208 13.4519 18.0461 13.562
339 2 2.2208 2.24814 1.39397 13.6828
368 2 2.2208 -0.464332 1.36782 27.5682
353 2 2.2208 2.28031 12.5998 13.6083
721 2 2.2208 4.98135 23.827 5.16089
722 2 2.2208 5.06988 29.3945 5.161
723 1 -1.1104 0.862333 25.2641 1.11028
724 1 -1.1104 0.764506 25.3836 3.85584
725 1 -1.1104 0.817297 22.3541 1.03059
726 1 -1.1104 0.94556 27.8816 1.12937
727 2 2.2208 5.20075 26.4952 2.31176
728 1 -1.1104 0.806776 22.594 3.82943
729 1 -1.1104 0.940348 28.1905 3.93156
730 1 -1.1104 3.5863 25.0755 1.09834
731 2 2.2208 2.1986 23.795 2.50433
732 2 2.2208 2.36795 29.5237 2.41168
733 1 -1.1104 3.58577 25.3558 3.87506
734 2 2.2208 2.32314 26.6323 5.26607
735 1 -1.1104 3.71878 22.2729 1.01939
736 1 -1.1104 3.87462 27.8723 1.14188
737 1 -1.1104 3.58279 22.33 3.75617
738 1 -1.1104 3.64947 28.0761 3.84157
744 1 -1.1104 6.37352 22.4312 1.12218
746 1 -1.1104 6.39355 22.4324 3.76083
747 1 -1.1104 6.4336 28.0429 3.86788
862 1 -1.1104 0.939229 25.098 6.70389
864 1 -1.1104 0.820032 22.348 6.56345
870 1 -1.1104 3.65222 28.025 6.8173
863 1 -1.1104 6.49724 25.2694 6.57946
743 1 -1.1104 6.39844 25.2533 3.76656
745 1 -1.1104 6.46982 27.9972 1.12283
742 1 -1.1104 6.53227 25.1136 1.03318
869 1 -1.1104 3.62836 22.3575 6.70051
1690 1 -1.1104 9.33709 47.6514 9.48254
748 2 2.2208 10.6732 23.7313 5.29171
749 2 2.2208 10.7405 29.3985 5.22166
750 1 -1.1104 12.262 25.2533 1.19382
751 1 -1.1104 12.1687 25.2018 3.9526
752 1 -1.1104 12.2231 22.2856 1.1111
753 1 -1.1104 12.0811 28.0556 1.17674
754 2 2.2208 10.6997 26.5993 2.42676
755 1 -1.1104 12.2476 22.4817 4.05537
756 1 -1.1104 12.0956 28.1384 3.89337
757 1 -1.1104 9.29725 25.2425 1.12567
758 2 2.2208 7.89166 23.7483 2.45644
759 2 2.2208 7.83493 29.4206 2.40525
760 1 -1.1104 9.20961 25.1242 3.89608
761 2 2.2208 7.8081 26.6629 5.26499
762 1 -1.1104 9.24753 22.3768 1.20653
763 1 -1.1104 9.22397 27.9783 1.07325
764 1 -1.1104 9.29233 22.402 3.98955
765 1 -1.1104 9.37283 27.9471 3.89897
896 1 -1.1104 12.0403 22.2922 6.83029
898 1 -1.1104 9.23747 25.2245 6.6412
767 2 2.2208 13.5282 29.3049 2.59715
766 2 2.2208 13.6211 23.7811 2.62701
1638 1 -1.1104 0.948934 47.5536 6.79711
895 1 -1.1104 12.1261 25.0317 6.73102
899 1 -1.1104 9.31109 22.4511 6.81034
768 2 2.2208 13.4286 26.6397 5.30103
1656 1 -1.1104 3.79087 47.4951 12.3031
1026 1 -1.1104 12.3832 39.0749 12.1163
1037 2 2.2208 13.5891 43.3992 10.832
769 2 2.2208 5.23703 35.1568 5.25508
770 1 -1.1104 0.933224 30.7593 0.926113
771 1 -1.1104 0.948124 36.5828 0.937847
773 1 -1.1104 0.945341 30.9394 3.67808
774 1 -1.1104 1.02554 36.4072 3.74886
776 1 -1.1104 1.0883 33.7377 1.0162
777 2 2.2208 5.07993 32.3408 2.44076
778 2 2.2208 5.14802 37.8322 2.33691
779 1 -1.1104 1.01662 33.753 3.83774
781 1 -1.1104 3.71248 30.8203 1.07077
782 1 -1.1104 3.78643 36.3539 0.914876
783 2 2.2208 2.36563 35.1611 2.3339
784 1 -1.1104 3.79812 30.891 3.67783
785 1 -1.1104 3.71698 36.4916 3.75249
786 2 2.2208 2.32636 32.3879 5.09877
787 2 2.2208 2.34739 37.6961 5.19849
788 1 -1.1104 3.70834 33.6078 0.923587
789 1 -1.1104 3.71091 33.8315 3.85177
775 1 -1.1104 6.55447 36.4204 3.81186
927 1 -1.1104 3.72222 33.4292 6.64226
794 1 -1.1104 6.57505 30.8359 3.89479
772 1 -1.1104 6.71665 36.5081 1.06717
780 1 -1.1104 6.49672 33.7403 3.9526
922 1 -1.1104 6.58614 36.5194 6.67437
793 1 -1.1104 6.39209 30.9234 1.14885
921 1 -1.1104 6.68409 30.7294 6.62057
920 1 -1.1104 0.949707 36.3765 6.62646
926 1 -1.1104 3.73232 36.3305 6.56292
919 1 -1.1104 0.871424 30.8803 6.60043
795 1 -1.1104 6.49703 33.7657 0.975913
924 1 -1.1104 6.51558 33.6223 6.74512
1020 2 2.2208 8.02401 40.6084 7.95959
1096 2 2.2208 5.17751 35.0991 -0.446577
796 2 2.2208 10.8149 35.0694 5.12878
797 1 -1.1104 12.2279 30.9748 1.16378
798 1 -1.1104 12.2897 36.5095 1.22411
799 1 -1.1104 12.1367 30.7932 3.88649
800 1 -1.1104 12.2672 36.3159 3.88847
801 1 -1.1104 12.1849 33.7653 1.03893
802 2 2.2208 10.7394 32.1712 2.51096
803 2 2.2208 10.8332 37.8538 2.43876
804 1 -1.1104 12.0186 33.4269 3.88526
805 1 -1.1104 9.27036 30.8361 1.06789