ITEM: TIMESTEP
60000
ITEM: NUMBER OF ATOMS
17910
ITEM: BOX BOUNDS pp pp pp
-3.5102642934907202e-01 2.7691026429349378e+01
-4.2075225792712292e+00 3.3228752257927209e+02
-3.5950951289930400e-01 2.7699509512899013e+01
ITEM: ATOMS id type q x y z
1 2 2.2208 5.22337 1.44097 5.39118
2 1 -1.1104 1.01357 -2.94766 1.14478
3 1 -1.1104 0.968495 2.69544 1.15476
6 1 -1.1104 0.945503 -2.91765 3.9711
7 1 -1.1104 0.917936 2.63695 3.91525
10 1 -1.1104 0.993884 -0.14866 0.973011
12 2 2.2208 5.12657 -1.29009 2.52717
14 1 -1.1104 0.995294 -0.275535 3.92386
16 1 -1.1104 3.83313 -2.78386 1.21476
17 1 -1.1104 3.82454 2.76984 1.03896
18 2 2.2208 2.43988 1.22214 2.48013
19 1 -1.1104 3.80735 -2.70349 3.92726
20 1 -1.1104 3.74542 2.67403 3.7526
21 2 2.2208 2.37391 -1.38522 5.37247
22 2 2.2208 2.38523 4.11798 5.18819
23 1 -1.1104 3.71222 0.0716835 1.05008
24 1 -1.1104 3.84881 0.0599474 3.98204
13 2 2.2208 5.11541 4.19567 2.46802
26 2 2.2208 -0.548341 1.2853 5.47079
363 2 2.2208 13.691 18.0382 13.5708
8440 2 2.2208 7.97642 -4.22274 8.11247
8432 2 2.2208 5.15766 -4.23211 5.23891
166 1 -1.1104 0.984222 -3.02148 6.76411
167 1 -1.1104 0.876922 2.55234 6.67565
5 1 -1.1104 6.5917 2.69526 1.12122
9 1 -1.1104 6.46965 2.93796 3.88149
168 1 -1.1104 6.4577 -2.85105 6.6994
8435 2 2.2208 10.7365 -4.20198 5.38058
4 1 -1.1104 6.63771 -2.82999 1.21235
15 1 -1.1104 6.45138 0.0795657 3.91618
11 1 -1.1104 6.53171 -0.183565 1.14323
8 1 -1.1104 6.63925 -2.83418 3.90659
31 2 2.2208 10.815 1.44326 5.25159
32 1 -1.1104 12.2044 -2.9828 1.10224
33 1 -1.1104 12.1608 2.64106 1.02108
34 1 -1.1104 12.3587 -2.94379 3.93895
35 1 -1.1104 12.1246 2.80492 3.96453
36 1 -1.1104 12.0582 -0.143008 1.2037
37 2 2.2208 10.7012 -1.36629 2.58224
38 2 2.2208 10.8097 4.09569 2.44297
39 1 -1.1104 12.142 0.018361 3.95162
40 1 -1.1104 9.47463 -2.7596 1.15763
41 1 -1.1104 9.33778 2.70326 1.00719
42 2 2.2208 8.02701 1.31962 2.39463
43 1 -1.1104 9.43451 -2.80902 3.92215
44 1 -1.1104 9.31497 2.72517 3.78277
45 2 2.2208 7.91618 -1.51826 5.33114
47 1 -1.1104 9.31662 -0.0658761 0.978397
48 1 -1.1104 9.29462 -0.0912401 3.94688
46 2 2.2208 7.93241 4.35278 5.11836
207 1 -1.1104 12.2663 -0.0176638 6.73701
210 1 -1.1104 9.46399 -0.110505 6.77655
205 1 -1.1104 12.1722 -2.80656 6.86372
208 1 -1.1104 9.36677 -2.72687 6.76572
209 1 -1.1104 9.34504 2.56538 6.55209
206 1 -1.1104 12.2057 2.66557 6.61062
361 2 2.2208 10.8621 15.3023 13.5734
8436 2 2.2208 13.6931 -4.27942 2.61087
316 2 2.2208 8.02037 20.9063 10.8441
83 2 2.2208 -0.342087 12.6091 5.2114
54 2 2.2208 5.22894 7.07869 5.30818
55 2 2.2208 5.29612 12.5648 5.32386
56 1 -1.1104 0.884332 8.41207 1.15656
58 1 -1.1104 0.919773 8.34617 3.85316
60 1 -1.1104 0.773247 5.68759 1.20017
61 1 -1.1104 1.15649 11.2918 1.12322
66 2 2.2208 5.25945 9.8028 2.44863
67 1 -1.1104 0.985247 5.54079 3.87916
68 1 -1.1104 1.05873 10.9644 3.77087
71 1 -1.1104 3.95625 8.44193 1.03796
72 2 2.2208 2.27325 6.93413 2.5694
73 2 2.2208 2.4841 12.6139 2.4005
74 1 -1.1104 3.87539 8.40562 3.89795
75 2 2.2208 2.5503 9.76005 5.27683
76 1 -1.1104 3.68469 5.61503 1.03463
77 1 -1.1104 3.96114 11.1982 0.962294
79 1 -1.1104 3.83634 5.49157 3.83666
80 1 -1.1104 3.87171 11.2406 3.85741
62 1 -1.1104 1.2592 11.1125 6.84648
289 1 -1.1104 6.83205 16.7284 9.42207
239 1 -1.1104 3.58358 5.59454 6.57031
380 2 2.2208 2.3948 9.76999 -0.307707
236 1 -1.1104 0.733982 5.53889 6.71708
63 1 -1.1104 6.69934 5.58182 0.99394
59 1 -1.1104 6.7137 8.55689 3.84437
8454 2 2.2208 7.93642 -4.16245 13.7294
65 1 -1.1104 6.84997 11.1776 6.64632
64 1 -1.1104 6.78574 11.1548 1.059
69 1 -1.1104 6.56082 5.74778 3.79034
57 1 -1.1104 6.88151 8.40837 1.17344
70 1 -1.1104 6.63081 11.2482 3.98265
84 2 2.2208 10.8176 6.94394 5.23586
85 2 2.2208 10.9035 12.6454 5.17127
86 1 -1.1104 12.2431 8.34355 1.06178
87 1 -1.1104 12.0802 8.30495 3.74649
88 1 -1.1104 12.0631 5.43408 1.00352
89 1 -1.1104 12.1516 11.0439 0.91328
91 2 2.2208 10.8509 9.79208 2.38675
92 1 -1.1104 12.2808 5.49845 3.76304
93 1 -1.1104 12.2422 11.1447 3.8252
94 1 -1.1104 9.466 8.41877 0.944101
95 2 2.2208 8.07851 6.96003 2.47366
96 2 2.2208 8.09781 12.5115 2.45286
97 1 -1.1104 9.54646 8.39027 3.79242
98 2 2.2208 8.17929 9.64754 5.21003
99 1 -1.1104 9.42791 5.55854 1.21696
100 1 -1.1104 9.56824 11.2263 1.07027
102 1 -1.1104 9.50839 5.50636 3.93711
103 1 -1.1104 9.45226 11.2709 3.63723
237 1 -1.1104 6.58132 5.68495 6.69138
235 1 -1.1104 6.62584 8.47802 6.74155
266 1 -1.1104 12.2085 5.59167 6.64447
104 2 2.2208 13.5053 12.5475 2.39551
106 2 2.2208 5.25973 18.163 5.25995
107 1 -1.1104 1.02203 14.0828 1.06099
109 1 -1.1104 1.12326 19.5898 1.09592
113 1 -1.1104 1.08826 13.9655 3.90095
114 1 -1.1104 1.06173 19.7173 3.82687
116 1 -1.1104 1.08125 16.8058 1.14282
119 2 2.2208 5.30995 15.5007 2.49813
120 2 2.2208 5.25317 21.0618 2.44826
121 1 -1.1104 1.15652 16.907 3.8674
123 1 -1.1104 3.80871 14.0215 0.993304
125 1 -1.1104 3.75483 19.8412 1.11758
127 2 2.2208 2.53371 18.3264 2.49705
128 1 -1.1104 3.88871 14.0095 3.78927
129 1 -1.1104 3.93544 19.5582 3.91268
130 2 2.2208 2.55929 15.3575 5.19897
131 2 2.2208 2.47486 21.0307 5.31993
132 1 -1.1104 3.88912 17.0667 1.01103
134 1 -1.1104 3.89881 16.7701 3.78994
137 2 2.2208 -0.316374 18.2355 5.28639
126 1 -1.1104 3.91332 19.4547 6.65314
139 1 -1.1104 6.65062 19.6021 3.96239
140 1 -1.1104 6.65912 16.6459 0.994256
138 1 -1.1104 6.63074 19.438 1.2558
323 1 -1.1104 12.4391 16.6447 9.55606
111 1 -1.1104 6.79695 14.0318 6.70938
8434 2 2.2208 7.99988 -4.24405 2.62843
373 2 2.2208 2.53305 15.5106 -0.303268
143 1 -1.1104 12.3175 14.099 6.50092
115 1 -1.1104 6.63174 13.9936 3.89823
110 1 -1.1104 6.62777 13.9262 0.936475
122 1 -1.1104 6.78772 16.7716 3.92476
141 2 2.2208 10.8485 18.1823 5.25125
142 1 -1.1104 12.2094 13.7817 1.04147
144 1 -1.1104 12.1171 19.531 1.10538
146 1 -1.1104 12.3889 14.0616 3.84664
147 1 -1.1104 12.2488 19.5533 3.89339
148 1 -1.1104 12.1993 16.6685 0.996948
150 2 2.2208 10.8863 15.36 2.41166
151 2 2.2208 10.8123 21.0415 2.39677
152 1 -1.1104 12.3843 16.8463 3.7849
153 1 -1.1104 9.41564 14.1254 1.08804
155 1 -1.1104 9.33341 19.6384 1.1002
157 2 2.2208 8.13419 18.1024 2.57566
158 1 -1.1104 9.43163 13.9632 3.81547
159 1 -1.1104 9.43854 19.6231 3.75518
160 2 2.2208 8.06613 15.3406 5.33634
161 2 2.2208 8.05689 21.0206 5.23841
162 1 -1.1104 9.52771 16.7954 1.09991
164 1 -1.1104 9.53908 16.8428 3.8568
112 1 -1.1104 6.83846 19.553 6.77501
154 1 -1.1104 9.66679 13.8647 6.69966
156 1 -1.1104 9.60413 19.4506 6.79078
118 1 -1.1104 6.59831 16.7618 6.73079
231 2 2.2208 13.6713 20.9085 5.28928
163 1 -1.1104 9.44464 16.5933 6.70157
8433 2 2.2208 -0.469462 -4.34073 5.36389
174 1 -1.1104 3.79773 0.0795127 6.73616
170 1 -1.1104 1.06109 -0.174542 6.79756
173 1 -1.1104 3.68258 2.75 6.61888
332 2 2.2208 13.6381 18.0723 8.06138
172 1 -1.1104 3.7382 -2.89938 6.72543
200 2 2.2208 -0.40452 -1.64514 8.0822
175 2 2.2208 5.13558 1.33426 10.9009
176 1 -1.1104 1.19545 -2.87227 12.2694
177 1 -1.1104 0.930207 2.7086 12.163
180 1 -1.1104 0.902245 -2.92024 9.54228
181 1 -1.1104 0.827074 2.57584 9.50605
184 1 -1.1104 0.976179 0.015111 12.4996
186 2 2.2208 5.09678 -1.52956 8.07719
188 1 -1.1104 0.841721 -0.178927 9.57233
190 1 -1.1104 3.77782 -2.78445 12.3445
191 1 -1.1104 3.77567 2.77909 12.2241
192 2 2.2208 2.32528 1.29125 8.12854
193 1 -1.1104 3.75493 -2.76485 9.46739
194 1 -1.1104 3.7265 2.58286 9.48342
195 2 2.2208 2.26131 -1.32029 10.9646
197 1 -1.1104 3.63177 0.0803528 12.3064
198 1 -1.1104 3.62603 -0.0748955 9.52921
187 2 2.2208 5.12013 3.97693 8.01781
196 2 2.2208 2.37259 4.00905 10.8124
201 2 2.2208 -0.542471 1.31776 10.9058
199 2 2.2208 -0.404792 4.09938 8.13662
178 1 -1.1104 6.61949 -2.84042 12.2994
53 2 2.2208 13.6776 12.4713 7.90948
341 2 2.2208 5.1238 4.20692 13.7183
171 1 -1.1104 6.74987 -0.0979502 6.69401
169 1 -1.1104 6.57807 2.76436 6.5899
8441 2 2.2208 10.7522 -4.19103 11.0694
185 1 -1.1104 6.41683 -0.0306475 12.3653
182 1 -1.1104 6.46731 -2.82552 9.42448
183 1 -1.1104 6.54106 2.73973 9.3405
179 1 -1.1104 6.54888 2.81523 12.2468
189 1 -1.1104 6.63056 0.0195055 9.4835
211 2 2.2208 10.8043 1.28949 10.8748
212 1 -1.1104 12.0602 -2.80804 12.5186
213 1 -1.1104 12.0507 2.81105 12.2641
214 1 -1.1104 12.0624 -2.91284 9.72378
215 1 -1.1104 12.0676 2.84035 9.37168
216 1 -1.1104 12.167 -0.0175244 12.2696
217 2 2.2208 10.7795 -1.43909 8.12673
218 2 2.2208 10.6683 4.16358 7.95002
219 1 -1.1104 12.3652 0.0436107 9.48586
220 1 -1.1104 9.38396 -2.82061 12.4778
221 1 -1.1104 9.27029 2.71127 12.1564
222 2 2.2208 8.05805 1.44179 7.99539
223 1 -1.1104 9.28634 -2.82524 9.64431
224 1 -1.1104 9.34901 2.75857 9.39667
225 2 2.2208 7.89808 -1.43037 10.8928
227 1 -1.1104 9.34218 -0.0342835 12.375
228 1 -1.1104 9.43007 -0.0414059 9.41912
226 2 2.2208 7.99496 4.2231 10.91
350 2 2.2208 10.7443 4.01553 13.6679
29 2 2.2208 -0.385179 6.95274 11.0612
346 2 2.2208 10.7755 -1.45976 13.7953
78 1 -1.1104 3.9597 11.3151 6.70714
234 1 -1.1104 1.04217 8.23563 6.64617
238 1 -1.1104 3.93273 8.39926 6.80225
328 1 -1.1104 12.3162 13.8621 9.35852
51 2 2.2208 -0.411825 12.3625 10.8912
240 2 2.2208 5.19196 6.95755 10.8488
241 2 2.2208 5.22231 12.6831 10.8852
242 1 -1.1104 0.963504 8.28246 12.2785
244 1 -1.1104 1.02728 8.28661 9.44111
246 1 -1.1104 1.03606 5.38099 12.553
247 1 -1.1104 0.98992 10.8704 12.3227
250 2 2.2208 5.25718 9.83458 7.99261
251 1 -1.1104 1.02677 5.49386 9.51699
252 1 -1.1104 0.982407 11.1132 9.54022
255 1 -1.1104 3.77745 8.35854 12.4467
256 2 2.2208 2.28859 7.03645 8.03705
257 2 2.2208 2.32697 12.6183 8.15254
258 1 -1.1104 3.74261 8.3028 9.51829
259 2 2.2208 2.39151 9.65039 10.8681
260 1 -1.1104 3.73023 5.63933 12.2764
261 1 -1.1104 3.9164 11.2398 12.1261
262 1 -1.1104 3.81196 5.35565 9.28729
263 1 -1.1104 3.86751 11.0609 9.46158
245 1 -1.1104 6.6152 8.4926 9.40267
249 1 -1.1104 6.67617 11.3428 12.2472
203 2 2.2208 13.4889 4.21323 10.8054
331 2 2.2208 10.9059 18.0663 10.9294
325 2 2.2208 11.0004 15.3678 8.06671
101 1 -1.1104 9.45686 11.0978 6.46098
269 1 -1.1104 9.33847 5.61471 6.63562
267 1 -1.1104 9.4558 8.19143 6.69727
376 2 2.2208 13.6702 12.6668 13.6902
254 1 -1.1104 6.65663 11.2656 9.39674
248 1 -1.1104 6.53347 5.59135 12.3283
90 1 -1.1104 12.2549 11.1895 6.59741
265 1 -1.1104 12.307 8.45156 6.59703
253 1 -1.1104 6.60229 5.58711 9.4152
243 1 -1.1104 6.56345 8.36168 12.215
264 1 -1.1104 9.48386 11.0177 9.4738
268 1 -1.1104 9.47112 5.53253 9.3127
270 1 -1.1104 9.46404 11.1306 12.3054
271 1 -1.1104 9.29766 5.66675 12.277
272 2 2.2208 7.98052 9.77707 10.8905
273 1 -1.1104 9.38549 8.31069 9.69032
274 2 2.2208 8.09822 12.5623 8.10664
275 2 2.2208 7.90472 7.00826 8.12962
276 2 2.2208 10.8142 6.87661 10.889
277 2 2.2208 10.833 12.4841 10.8758
278 1 -1.1104 12.0989 8.24371 12.3462
279 1 -1.1104 12.3279 8.34345 9.36819
280 1 -1.1104 12.3081 5.48919 12.2793
281 1 -1.1104 12.2266 10.8704 12.2493
282 2 2.2208 10.8916 9.7376 7.99837
283 1 -1.1104 12.2338 5.41954 9.4384
284 1 -1.1104 12.3009 11.1512 9.50295
285 1 -1.1104 9.23168 8.39155 12.4132
232 2 2.2208 13.7022 9.7121 5.22821
105 2 2.2208 13.4926 6.79294 2.36229
355 2 2.2208 10.7848 9.6887 13.7189
124 1 -1.1104 3.81394 14.0366 6.66654
342 2 2.2208 -0.299385 15.3455 13.8171
108 1 -1.1104 0.987958 13.8954 6.72633
117 1 -1.1104 1.11043 16.621 6.83494
315 1 -1.1104 9.4372 16.767 12.25
302 1 -1.1104 1.11642 19.5462 6.64966
133 1 -1.1104 3.83621 16.7718 6.62319
290 1 -1.1104 6.73826 14.0212 9.47239
326 1 -1.1104 12.3256 16.5768 12.3837
310 2 2.2208 2.4532 15.2932 10.9123
309 2 2.2208 2.43481 20.9742 10.9241
286 1 -1.1104 3.84691 19.6821 12.3809
300 2 2.2208 5.29381 18.2069 10.8634
299 1 -1.1104 1.22937 13.8013 12.2279
308 1 -1.1104 3.77038 16.8043 12.1352
298 1 -1.1104 1.06198 19.587 12.383
304 1 -1.1104 3.90467 16.8434 9.47769
303 2 2.2208 2.50573 18.042 8.1998
292 1 -1.1104 1.0175 16.5749 9.65373
295 2 2.2208 5.28483 15.3668 8.08339
307 1 -1.1104 0.953556 16.6956 12.5302
301 1 -1.1104 3.80472 19.6706 9.4992
291 1 -1.1104 1.03233 19.4045 9.5509
305 1 -1.1104 3.94405 14.0862 9.41553
287 1 -1.1104 3.83985 13.9655 12.3018
294 1 -1.1104 1.00548 13.9957 9.54268
293 2 2.2208 5.22144 20.9029 8.08396
357 2 2.2208 2.51401 18.1381 13.7085
297 1 -1.1104 6.54603 14.0685 12.218
322 1 -1.1104 9.43559 14.0109 12.2218
321 1 -1.1104 9.60259 19.5313 12.2255
333 2 2.2208 13.6931 15.2353 10.832
319 1 -1.1104 9.45107 13.7973 9.4168
314 1 -1.1104 9.52943 16.7429 9.52803
317 2 2.2208 8.08401 15.3758 10.8023
145 1 -1.1104 12.3785 19.5834 6.71018
329 1 -1.1104 12.38 19.4262 12.2058
306 1 -1.1104 6.75278 16.9074 12.1505
149 1 -1.1104 12.1961 16.7956 6.64867
324 2 2.2208 10.935 20.9243 8.11942
320 2 2.2208 8.14232 18.1152 8.14254
330 1 -1.1104 12.2801 13.7509 12.3015
327 1 -1.1104 12.1367 19.3555 9.47949
288 1 -1.1104 6.61384 19.467 9.43935
296 1 -1.1104 6.64951 19.651 12.2016
318 1 -1.1104 9.45731 19.6966 9.41174
49 2 2.2208 13.5635 1.2814 2.63253
25 2 2.2208 -0.475177 -1.66033 2.59212
347 2 2.2208 8.11665 15.3675 -0.318846
339 2 2.2208 2.40715 1.4207 13.8177
371 2 2.2208 -0.260365 18.1852 -0.294819
348 2 2.2208 10.9391 18.1552 -0.26681
351 2 2.2208 2.38923 6.98535 13.8594
359 2 2.2208 5.23797 15.3724 13.6231
362 2 2.2208 8.06284 18.1882 13.5688
368 2 2.2208 -0.439485 1.34532 -0.212243
366 2 2.2208 2.25317 4.24259 -0.25107
334 2 2.2208 -0.40486 -1.35652 13.8212
369 2 2.2208 10.5125 1.4442 -0.4866
370 2 2.2208 7.85624 -1.46897 -0.271699
381 2 2.2208 5.21095 12.5675 -0.305153
379 2 2.2208 5.26227 6.91389 -0.351923
384 2 2.2208 10.7939 6.88923 -0.343545
374 2 2.2208 5.29206 18.2363 -0.390174
349 2 2.2208 8.01075 20.9202 -0.265367
388 2 2.2208 5.27044 1.33082 16.7091
389 1 -1.1104 1.00906 -2.97519 17.9373
390 1 -1.1104 0.919474 2.64674 17.7635
393 1 -1.1104 1.02842 -2.75988 15.1633
395 1 -1.1104 0.938444 2.82098 14.9651
401 1 -1.1104 0.931913 -0.185517 17.9777
403 2 2.2208 5.20794 -1.39553 19.4519
404 2 2.2208 5.3217 4.18984 19.3543
405 1 -1.1104 1.00097 0.0496186 15.2565
409 1 -1.1104 3.66887 -2.80642 18.0076
410 1 -1.1104 3.88647 2.83481 17.9431
411 2 2.2208 2.23146 1.43118 19.3006
412 1 -1.1104 3.76103 -2.8706 15.0735
414 1 -1.1104 3.64054 2.95839 15.1565
416 2 2.2208 2.46622 -1.27896 16.6216
418 1 -1.1104 3.67947 0.0744463 18.1773
419 1 -1.1104 3.85613 0.0384431 15.1397
417 2 2.2208 2.43388 4.18752 16.565
425 2 2.2208 -0.463184 -1.52189 19.532
427 2 2.2208 -0.486467 4.21084 19.4447
8516 2 2.2208 7.91868 -4.27527 25.0202
413 1 -1.1104 3.68242 -2.82182 20.7684
415 1 -1.1104 3.78854 2.78619 20.7152
396 1 -1.1104 1.03367 2.77555 20.7288
407 1 -1.1104 6.41945 0.0499986 15.1554
402 1 -1.1104 6.51612 -0.130249 17.9242
392 1 -1.1104 6.66598 2.76347 17.9042
8622 2 2.2208 5.10299 -4.36225 16.6411
398 1 -1.1104 6.57359 -2.94258 20.763
8446 2 2.2208 10.6045 -4.31053 27.9071
646 2 2.2208 -0.169378 15.2702 25.0366
391 1 -1.1104 6.45111 -2.91062 17.8933
399 1 -1.1104 6.31327 2.81561 15.2176
397 1 -1.1104 6.55155 -2.73275 15.1131
431 2 2.2208 10.7136 1.1785 16.512
432 1 -1.1104 12.0454 -2.87914 18.1526
433 1 -1.1104 12.352 2.50777 17.7096
434 1 -1.1104 12.182 -2.89429 15.3116
436 1 -1.1104 12.0468 2.50926 15.0126
438 1 -1.1104 11.9958 -0.0824274 18.1041
439 2 2.2208 10.7336 -1.52323 19.5144
440 2 2.2208 10.8672 4.05842 19.2716
441 1 -1.1104 12.1382 -0.189446 15.2531
443 1 -1.1104 9.27841 -2.82263 17.9454
444 1 -1.1104 9.50285 2.60115 17.846
445 2 2.2208 7.91176 1.29153 19.2748
446 1 -1.1104 9.39269 -2.78101 15.1699
448 1 -1.1104 9.11001 2.77166 14.9278
450 2 2.2208 7.93243 -1.49577 16.5683
452 1 -1.1104 9.24473 -0.237695 18.0916
453 1 -1.1104 9.17261 -0.117995 15.0938
451 2 2.2208 8.07139 4.14581 16.4822
454 1 -1.1104 9.36182 -0.130877 20.8606
449 1 -1.1104 9.25957 2.79866 20.5156
8556 2 2.2208 7.90745 -4.3166 19.3563
684 2 2.2208 -0.46994 9.87099 24.9809
377 2 2.2208 13.4738 -1.52484 27.821
442 1 -1.1104 12.1799 -0.124844 20.8061
408 1 -1.1104 6.67009 -0.102616 20.6915
447 1 -1.1104 9.47959 -3.03017 20.7611
437 1 -1.1104 12.0077 2.64407 20.654
460 2 2.2208 13.7254 21.0467 16.4038
464 2 2.2208 5.17516 7.04528 16.5696
465 2 2.2208 5.23624 12.5837 16.4921
466 1 -1.1104 1.0583 8.11689 17.9741
468 1 -1.1104 1.0114 8.3788 15.0585
472 1 -1.1104 0.917723 5.36438 18.0128
473 1 -1.1104 0.96255 10.8978 17.9809
476 2 2.2208 5.31075 9.7723 19.3971
477 1 -1.1104 1.00581 5.58335 15.3078
479 1 -1.1104 1.04158 11.1176 15.1873
485 1 -1.1104 3.86373 8.33701 18.0811
486 2 2.2208 2.4941 6.8484 19.3832
487 2 2.2208 2.4903 12.5501 19.3376
488 1 -1.1104 3.79323 8.48763 15.3439
490 2 2.2208 2.38183 9.68018 16.6029
491 1 -1.1104 3.70024 5.57868 17.9324
492 1 -1.1104 3.6357 11.1065 17.9914
493 1 -1.1104 3.80145 5.71856 15.1248
495 1 -1.1104 3.74698 11.2107 15.0266
463 1 -1.1104 12.1822 14.0439 23.3548
478 1 -1.1104 1.04257 5.4832 20.8014
494 1 -1.1104 3.87234 5.66456 20.7527
475 1 -1.1104 6.46872 11.153 17.9326
469 1 -1.1104 0.877213 8.36797 20.8086
489 1 -1.1104 3.7534 8.4951 20.7067
353 2 2.2208 2.35738 12.584 13.7022
470 1 -1.1104 6.48655 8.42322 15.0874
483 1 -1.1104 6.5357 11.184 15.083
474 1 -1.1104 6.62374 5.58669 18.0207
481 1 -1.1104 6.65971 5.58742 15.146
467 1 -1.1104 6.77791 8.32532 17.9408
500 2 2.2208 10.8397 6.93279 16.5514
501 2 2.2208 10.8041 12.5883 16.4484
502 1 -1.1104 12.3332 8.22041 18.0489
503 1 -1.1104 12.1402 8.28258 15.1128
505 1 -1.1104 12.1339 5.44138 17.7901
506 1 -1.1104 12.0305 11.2019 17.9115
507 2 2.2208 10.9074 9.75787 19.3341
508 1 -1.1104 12.0522 5.4707 15.0155
510 1 -1.1104 12.1913 11.2016 15.0584
512 1 -1.1104 9.52245 8.27183 17.8736
513 2 2.2208 8.09501 7.0001 19.2476
514 2 2.2208 8.03905 12.496 19.3688
515 1 -1.1104 9.30903 8.38819 15.2288
517 2 2.2208 7.98033 9.86627 16.5344
518 1 -1.1104 9.46029 5.35536 17.9014
519 1 -1.1104 9.2332 11.1539 17.8511
520 1 -1.1104 9.34528 5.49296 15.1367
522 1 -1.1104 9.42296 11.2176 15.0818
521 1 -1.1104 9.59954 5.54658 20.6884
504 1 -1.1104 12.235 8.34427 20.6794
523 1 -1.1104 9.40844 11.0241 20.6212
511 1 -1.1104 12.3029 11.1031 20.7539
484 1 -1.1104 6.67396 11.1316 20.7103
456 2 2.2208 -0.433265 18.0797 16.5985
527 2 2.2208 5.25171 18.1523 16.5087
528 1 -1.1104 1.02229 13.774 17.9454
529 1 -1.1104 1.03819 19.4954 18.0788
532 1 -1.1104 0.995611 13.9642 15.1494
534 1 -1.1104 0.956549 19.5365 15.209
540 1 -1.1104 1.00358 16.6794 17.912
542 2 2.2208 5.23674 15.2462 19.2785
543 2 2.2208 5.27338 20.8857 19.3389
544 1 -1.1104 0.969468 16.705 15.2011
548 1 -1.1104 3.82291 13.8393 17.9352
549 1 -1.1104 3.83996 19.5328 17.9751
550 2 2.2208 2.42517 18.042 19.3381
551 1 -1.1104 3.82574 13.9941 15.1608
553 1 -1.1104 3.8379 19.4645 15.2126
555 2 2.2208 2.36175 15.3464 16.5316
556 2 2.2208 2.45264 20.9712 16.5378
557 1 -1.1104 3.86505 16.6253 17.8641
558 1 -1.1104 3.75487 16.7053 14.9003
615 2 2.2208 7.92286 15.1475 22.1962
457 2 2.2208 -0.31365 15.3295 19.3194
539 1 -1.1104 6.77568 19.5473 20.7104
559 1 -1.1104 3.86854 16.6403 20.7345
358 2 2.2208 5.28477 21.0881 13.6514
618 2 2.2208 13.6406 18.0918 19.1837
621 2 2.2208 -0.49571 6.90993 16.6011
569 1 -1.1104 12.3247 19.4883 20.5335
541 1 -1.1104 6.73572 16.7009 17.9921
546 1 -1.1104 6.5701 16.8103 15.1532
531 1 -1.1104 6.79545 19.5564 17.9274
536 1 -1.1104 6.55573 13.9764 14.9831
530 1 -1.1104 6.57124 13.9711 17.707
538 1 -1.1104 6.67753 19.5471 14.9641
563 2 2.2208 10.831 18.0371 16.3882
564 1 -1.1104 12.2471 14.0381 17.7883
565 1 -1.1104 12.2589 19.7256 17.7487
566 1 -1.1104 12.0738 13.9334 14.893
568 1 -1.1104 12.2655 19.5606 15.0567
570 1 -1.1104 12.2862 16.819 17.7304
571 2 2.2208 10.8467 15.3458 19.3588
572 2 2.2208 10.911 20.9943 19.2821
573 1 -1.1104 12.2547 16.8044 14.9959
575 1 -1.1104 9.36795 13.907 17.8954
576 1 -1.1104 9.54786 19.4853 18.0069
577 2 2.2208 7.97317 18.0944 19.3374
578 1 -1.1104 9.25898 13.9367 15.0766
580 1 -1.1104 9.37325 19.5885 15.005
582 2 2.2208 8.02082 15.3614 16.4472
583 2 2.2208 8.15661 20.8932 16.5463
584 1 -1.1104 9.62433 16.592 17.7612
585 1 -1.1104 9.41114 16.7918 14.9653
560 1 -1.1104 12.4023 16.7573 26.245
360 2 2.2208 10.9483 20.8987 13.7227
547 1 -1.1104 6.63825 16.6161 20.687
567 1 -1.1104 12.268 13.8731 20.5693
579 1 -1.1104 9.53104 13.9446 20.7755
420 1 -1.1104 3.91086 -0.0384731 20.8476
406 1 -1.1104 0.95242 -0.056874 20.8241
685 2 2.2208 -0.29186 12.6911 22.0223
394 1 -1.1104 0.836798 -2.89744 20.8634
625 2 2.2208 -0.514777 1.38741 22.1094
591 2 2.2208 5.2406 1.27776 22.2517
592 1 -1.1104 0.943512 -2.69364 23.65
593 1 -1.1104 0.973351 2.8224 23.4236
596 1 -1.1104 0.959617 -3.00021 26.391
597 1 -1.1104 0.753801 2.84987 26.4983
600 1 -1.1104 0.933971 0.136749 23.6023
602 2 2.2208 5.18579 -1.39789 24.8979
604 1 -1.1104 1.03339 0.0392518 26.3512
606 1 -1.1104 3.81707 -2.83799 23.686
607 1 -1.1104 3.791 2.81157 23.581
608 2 2.2208 2.31001 1.52419 24.9697
609 1 -1.1104 3.80338 -2.92404 26.5113
610 1 -1.1104 3.5792 2.96895 26.2571
611 2 2.2208 2.23666 -1.38936 22.1846
612 2 2.2208 2.47293 4.14084 22.2261
613 1 -1.1104 3.73588 -0.0173392 23.6031
614 1 -1.1104 3.7628 -0.0209239 26.2393
603 2 2.2208 5.09866 4.21919 24.9419
590 1 -1.1104 9.46617 19.6229 26.4095
626 2 2.2208 -0.507084 4.12545 24.9958
595 1 -1.1104 6.65431 2.7887 23.4932
651 2 2.2208 13.5959 6.89898 19.3562
525 2 2.2208 10.8135 15.4332 24.9403
364 2 2.2208 5.09803 1.40724 27.767
400 1 -1.1104 6.60236 2.73248 20.8146
601 1 -1.1104 6.57161 0.0402893 23.5568
435 1 -1.1104 12.2012 -2.82382 20.8183
594 1 -1.1104 6.67817 -2.80609 23.5305
605 1 -1.1104 6.4987 -0.0378563 26.546
599 1 -1.1104 6.35991 2.7258 26.3178
598 1 -1.1104 6.52117 -2.84254 26.3437
627 2 2.2208 10.7292 1.36628 22.1558
628 1 -1.1104 12.1476 -2.75324 23.5798
629 1 -1.1104 12.1964 2.71664 23.4617
630 1 -1.1104 12.1742 -2.85086 26.4846
631 1 -1.1104 12.1033 2.64612 26.2439
632 1 -1.1104 12.0788 0.0801146 23.6052
633 2 2.2208 10.7032 -1.48219 25.0732
634 2 2.2208 10.7879 4.17103 24.8526
635 1 -1.1104 12.1593 -0.203694 26.3807
636 1 -1.1104 9.3919 -2.8027 23.5916
637 1 -1.1104 9.42578 2.76596 23.4749
638 2 2.2208 7.91864 1.31188 24.8577
639 1 -1.1104 9.27744 -2.99019 26.4513
640 1 -1.1104 9.24731 2.86572 26.2389
641 2 2.2208 7.90135 -1.42899 22.1673
643 1 -1.1104 9.31917 0.0356823 23.5577
644 1 -1.1104 9.2713 -0.0554793 26.4101
642 2 2.2208 8.10602 4.21394 22.0407
574 1 -1.1104 12.2215 16.6269 20.6334
587 2 2.2208 8.03205 18.1976 24.9707
372 2 2.2208 7.88458 4.21739 27.6662
498 1 -1.1104 12.0764 13.7937 26.2719
496 1 -1.1104 3.94615 11.1182 20.7866
471 1 -1.1104 6.58455 8.5055 20.6702
421 2 2.2208 -0.446064 7.03163 22.2402
480 1 -1.1104 1.06548 11.1708 20.5778
656 2 2.2208 5.25932 6.98167 22.1075
657 2 2.2208 5.23662 12.5235 22.1354
658 1 -1.1104 1.07286 8.4343 23.6956
660 1 -1.1104 1.02756 8.41595 26.3858
662 1 -1.1104 0.89887 5.73285 23.6138
663 1 -1.1104 0.921905 11.2842 23.4727
666 2 2.2208 5.2289 9.67548 24.9492
667 1 -1.1104 0.959085 5.60104 26.2963
668 1 -1.1104 0.973432 11.2477 26.3595
671 1 -1.1104 3.90556 8.46497 23.4964
672 2 2.2208 2.39901 7.0482 25.0027
673 2 2.2208 2.34475 12.3611 24.8559
674 1 -1.1104 3.85919 8.33809 26.2826
675 2 2.2208 2.43858 9.72043 22.0863
676 1 -1.1104 3.82648 5.65797 23.5528
677 1 -1.1104 3.80233 11.1187 23.4746
678 1 -1.1104 3.77504 5.63008 26.3184
679 1 -1.1104 3.73565 10.8978 26.2246
709 1 -1.1104 6.59088 13.7967 23.4771
665 1 -1.1104 6.64736 11.073 23.5324
670 1 -1.1104 6.51655 11.2758 26.3477
661 1 -1.1104 6.69794 8.35018 26.3203
617 1 -1.1104 9.33615 16.7063 23.4371
482 1 -1.1104 6.66141 5.6314 20.7302
526 2 2.2208 10.9059 21.0386 24.8643
620 1 -1.1104 9.55619 16.831 26.2814
386 2 2.2208 10.7687 12.4287 27.6942
516 1 -1.1104 9.46746 8.29937 20.6786
509 1 -1.1104 12.1824 5.43503 20.7321
669 1 -1.1104 6.62341 5.57993 26.2522
659 1 -1.1104 6.62525 8.34515 23.5626
664 1 -1.1104 6.68795 5.5369 23.5506
687 1 -1.1104 9.31227 11.2386 26.3367
688 1 -1.1104 9.37889 5.57672 26.4213
689 1 -1.1104 9.43116 11.0962 23.4203
690 1 -1.1104 9.55894 5.54405 23.5111
691 2 2.2208 8.10095 9.71428 22.1963
692 1 -1.1104 9.44136 8.37378 26.2298
693 2 2.2208 7.98897 12.5087 24.9386
694 2 2.2208 7.97147 7.01944 24.9091
695 2 2.2208 10.8994 6.86485 22.1733
696 2 2.2208 10.8129 12.5156 22.0692
697 1 -1.1104 12.2157 8.46321 23.3987
698 1 -1.1104 12.343 8.2098 26.2918
699 1 -1.1104 12.1967 5.59491 23.485
700 1 -1.1104 12.1969 11.2502 23.5403
701 2 2.2208 10.8809 9.67904 24.8716
702 1 -1.1104 12.1949 5.45977 26.1872
703 1 -1.1104 12.1077 11.0317 26.2087
704 1 -1.1104 9.46346 8.33074 23.3661
561 1 -1.1104 9.3338 13.7663 23.4455
562 1 -1.1104 9.39146 19.5787 23.4941
385 2 2.2208 8.08517 9.77668 27.7947
589 1 -1.1104 9.48022 14.0705 26.3811
545 1 -1.1104 1.16037 16.8078 20.7191
535 1 -1.1104 1.07169 19.5442 20.814
554 1 -1.1104 3.88555 19.4158 20.6399
497 1 -1.1104 12.1337 19.6904 23.4464
533 1 -1.1104 1.11126 14.0562 20.8298
552 1 -1.1104 3.89265 13.9346 20.6961
647 2 2.2208 2.47852 15.2126 22.2241
649 2 2.2208 2.52044 20.849 22.0805
652 1 -1.1104 3.96349 16.7747 23.5272
655 1 -1.1104 1.19171 16.5664 23.6186
681 1 -1.1104 3.9198 13.7944 26.3125
682 1 -1.1104 3.99943 16.7695 26.3654
683 2 2.2208 2.38955 18.1734 24.9039
686 1 -1.1104 3.89432 19.733 26.3041
705 2 2.2208 5.26704 18.0052 22.1045
706 1 -1.1104 0.948952 13.8716 23.6159
707 1 -1.1104 0.988712 19.4058 23.4665
711 1 -1.1104 3.75832 19.4837 23.4285
713 1 -1.1104 3.77633 13.9504 23.5866
715 1 -1.1104 1.01816 19.6018 26.1659
716 1 -1.1104 1.06054 16.7117 26.3964
717 1 -1.1104 1.16437 13.9099 26.3305
719 2 2.2208 5.24496 21.0566 24.8875
720 2 2.2208 5.12024 15.223 25.0078
714 1 -1.1104 6.59398 16.6243 26.3793
718 1 -1.1104 6.5379 19.4389 23.4795
680 1 -1.1104 6.6605 16.5917 23.5612
588 1 -1.1104 6.66811 19.5024 26.4092
537 1 -1.1104 6.6765 13.928 20.5952
499 1 -1.1104 12.2754 19.6238 26.3981
455 2 2.2208 13.7617 18.1879 24.8692
461 2 2.2208 13.6311 20.9275 22.1
616 2 2.2208 8.0004 20.8486 22.1417
430 2 2.2208 13.7154 15.2272 22.0275
586 1 -1.1104 9.45601 16.7899 20.6331
462 2 2.2208 10.7633 18.117 22.0294
581 1 -1.1104 9.44335 19.5237 20.7589
524 1 -1.1104 12.2634 16.7307 23.4671
712 1 -1.1104 6.83663 13.9927 26.2346
365 2 2.2208 2.40911 -1.41358 27.8631
383 2 2.2208 -0.377806 7.02969 27.582
375 2 2.2208 2.47554 21.0789 27.7109
337 2 2.2208 -0.406904 4.14863 13.7843
338 2 2.2208 5.09447 -1.46255 13.8338
8450 2 2.2208 5.30619 -4.2541 27.9585
343 2 2.2208 7.84004 1.36612 13.7263
352 2 2.2208 5.05776 9.81897 13.7253
354 2 2.2208 7.9599 6.9311 13.7519
356 2 2.2208 8.12158 12.4954 13.6206
721 2 2.2208 5.23596 23.814 5.21332
722 2 2.2208 5.18266 29.473 5.20976
723 1 -1.1104 0.97231 25.2175 1.15625
724 1 -1.1104 1.03854 25.1192 3.95857
725 1 -1.1104 0.903091 22.4534 1.04257
726 1 -1.1104 1.10298 27.9881 1.12552
727 2 2.2208 5.20719 26.7363 2.40331
728 1 -1.1104 0.926858 22.3789 3.85386
729 1 -1.1104 0.957214 27.9384 4.0873
730 1 -1.1104 3.92372 25.3087 0.979474
731 2 2.2208 2.40267 23.8719 2.5478
732 2 2.2208 2.48339 29.3899 2.52071
733 1 -1.1104 3.776 25.3564 3.85675
734 2 2.2208 2.36654 26.6146 5.34087
735 1 -1.1104 3.85485 22.5977 1.04966
736 1 -1.1104 3.81225 28.1686 1.02237
737 1 -1.1104 3.84889 22.4713 3.83319
738 1 -1.1104 3.78721 28.0002 3.93387
747 1 -1.1104 6.66034 27.9173 3.86506
746 1 -1.1104 6.57638 22.5381 3.82632
744 1 -1.1104 6.53061 22.3811 0.963505
743 1 -1.1104 6.62563 25.2607 3.78741
742 1 -1.1104 6.73316 25.2147 1.01751
1087 2 2.2208 5.26323 29.4436 -0.363637
987 1 -1.1104 6.52851 44.7753 12.3631
1084 2 2.2208 2.42054 26.5502 -0.357424
869 1 -1.1104 3.73627 22.402 6.81566
1083 2 2.2208 5.1156 23.8516 -0.323179
1093 2 2.2208 10.8234 29.2248 -0.327731
745 1 -1.1104 6.63682 28.013 1.13311
748 2 2.2208 10.9114 23.7932 5.2935
749 2 2.2208 10.8636 29.3946 5.39286
750 1 -1.1104 12.2002 25.1186 1.20914
751 1 -1.1104 12.2585 25.203 3.86085
752 1 -1.1104 12.1862 22.4404 1.22379
753 1 -1.1104 12.271 27.9324 1.03682
754 2 2.2208 10.8925 26.6094 2.53199
755 1 -1.1104 12.3074 22.3827 3.94273
756 1 -1.1104 12.1667 27.9602 3.77953
757 1 -1.1104 9.45769 25.2417 0.930478
758 2 2.2208 8.03772 23.8935 2.42319
759 2 2.2208 8.09481 29.414 2.62866
760 1 -1.1104 9.45141 25.2994 3.93407
761 2 2.2208 7.99969 26.5711 5.21781
762 1 -1.1104 9.38143 22.4123 1.10279
763 1 -1.1104 9.41829 27.9769 1.04412
764 1 -1.1104 9.43604 22.5657 3.78466
765 1 -1.1104 9.49873 28.061 3.75072
900 1 -1.1104 9.31864 27.8888 6.57505
899 1 -1.1104 9.40078 22.3542 6.57326
896 1 -1.1104 12.2348 22.4302 6.75383
768 2 2.2208 13.6805 26.5383 5.23578
766 2 2.2208 13.6759 23.6994 2.49023
866 1 -1.1104 6.5046 22.3212 6.58878
1092 2 2.2208 13.7076 26.5785 -0.350128
767 2 2.2208 13.6677 29.3448 2.55585
769 2 2.2208 5.33387 34.9545 5.35358
770 1 -1.1104 1.10385 30.7141 1.15842
771 1 -1.1104 1.16149 36.3168 1.11635
773 1 -1.1104 1.13312 30.6661 3.85502
774 1 -1.1104 1.19775 36.1628 3.85017
776 1 -1.1104 1.01362 33.5559 0.944808
777 2 2.2208 5.29647 32.1537 2.42536
778 2 2.2208 5.49458 37.7815 2.55385
779 1 -1.1104 1.15879 33.2882 3.85627
781 1 -1.1104 3.88417 30.85 1.06433
782 1 -1.1104 4.00304 36.2504 1.20887
783 2 2.2208 2.68239 34.8861 2.50677
784 1 -1.1104 3.90236 30.805 3.84716
785 1 -1.1104 4.0329 36.2857 3.94243
786 2 2.2208 2.46515 32.0934 5.33682
787 2 2.2208 2.48449 37.7972 5.27507
788 1 -1.1104 3.83391 33.5936 0.997743
789 1 -1.1104 4.1058 33.4341 3.98601
791 2 2.2208 -0.33846 32.092 2.58613
926 1 -1.1104 3.97246 36.3735 6.77093
1096 2 2.2208 5.31762 35.0095 -0.410431
775 1 -1.1104 6.82393 36.3009 3.97103
794 1 -1.1104 6.62614 30.7796 3.95646
780 1 -1.1104 6.79935 33.555 3.80802
793 1 -1.1104 6.61163 30.8681 1.03097
795 1 -1.1104 6.65367 33.543 0.933394
925 1 -1.1104 3.83074 30.8087 6.75313
1094 2 2.2208 2.53299 37.695 -0.271579
1095 2 2.2208 2.47478 32.0896 -0.371268
1099 2 2.2208 8.15376 37.9012 -0.382316
1100 2 2.2208 8.14392 32.1565 -0.41272
772 1 -1.1104 6.76741 36.3284 1.10127
796 2 2.2208 11.0938 34.9119 5.23061
797 1 -1.1104 12.1635 30.7323 1.03072
798 1 -1.1104 12.4761 36.1797 1.05673
799 1 -1.1104 12.2782 30.6796 3.95293
800 1 -1.1104 12.4816 36.2904 3.99375
801 1 -1.1104 12.1211 33.538 1.211
802 2 2.2208 10.8274 32.1161 2.56054
803 2 2.2208 10.9536 37.787 2.48589
804 1 -1.1104 12.2844 33.5306 3.81447
805 1 -1.1104 9.49681 30.7038 1.09407
806 1 -1.1104 9.65563 36.2905 1.09019
807 2 2.2208 8.0803 34.9024 2.39755
808 1 -1.1104 9.49136 30.8344 4.03943
809 1 -1.1104 9.72816 36.4162 3.8285