ITEM: TIMESTEP
80000
ITEM: NUMBER OF ATOMS
17910
ITEM: BOX BOUNDS pp pp pp
-3.5961318785925789e-01 2.7699613187860027e+01
-4.3545076044298119e+00 3.3243450760443409e+02
-3.6487990746428306e-01 2.7704879907464505e+01
ITEM: ATOMS id type q x y z
1 2 2.2208 5.17351 1.27626 5.43756
2 1 -1.1104 1.17795 -2.92544 1.13341
3 1 -1.1104 1.15993 2.82024 1.13394
6 1 -1.1104 1.10268 -2.88899 3.92201
7 1 -1.1104 1.04613 2.83447 3.89299
10 1 -1.1104 1.11995 -0.113024 1.10644
12 2 2.2208 5.31237 -1.54093 2.40935
14 1 -1.1104 1.11558 -0.0290893 3.8644
16 1 -1.1104 4.01089 -2.83885 1.13821
17 1 -1.1104 3.93089 2.82213 0.981085
18 2 2.2208 2.55865 1.43827 2.378
19 1 -1.1104 3.95696 -2.73588 3.96637
20 1 -1.1104 3.83122 2.84482 3.75734
21 2 2.2208 2.57321 -1.43952 5.25954
22 2 2.2208 2.48847 4.23625 5.31947
23 1 -1.1104 4.00206 -0.00409174 1.11492
24 1 -1.1104 3.85305 0.0901284 3.9917
13 2 2.2208 5.26359 4.11362 2.47847
5 1 -1.1104 6.72881 2.81318 1.04373
168 1 -1.1104 6.56078 -2.95479 6.78251
171 1 -1.1104 6.58959 -0.0768594 6.71578
382 2 2.2208 -0.0873693 12.6539 -0.375401
26 2 2.2208 -0.217009 1.30599 5.29592
321 1 -1.1104 9.65782 19.58 12.333
375 2 2.2208 2.60158 21.0731 -0.250943
204 2 2.2208 13.8134 15.4256 5.42936
8441 2 2.2208 11.0291 -4.34384 10.8614
9 1 -1.1104 6.67397 2.82245 3.82023
11 1 -1.1104 6.77022 -0.0257367 1.08622
4 1 -1.1104 6.73216 -2.7733 1.07742
8 1 -1.1104 6.75403 -2.93429 3.97062
15 1 -1.1104 6.60059 -0.0413177 4.0793
380 2 2.2208 2.41545 9.63015 -0.406141
31 2 2.2208 10.9724 1.46191 5.27992
32 1 -1.1104 12.3314 -2.92249 1.06553
33 1 -1.1104 12.1625 2.67584 1.0387
34 1 -1.1104 12.3644 -2.89568 3.84384
35 1 -1.1104 12.4087 2.77184 3.87621
36 1 -1.1104 12.3396 0.059919 1.13751
37 2 2.2208 10.9591 -1.52904 2.56976
38 2 2.2208 10.9418 4.15905 2.50705
39 1 -1.1104 12.2204 0.0751598 3.86458
40 1 -1.1104 9.54348 -2.84724 1.20364
41 1 -1.1104 9.45674 2.81518 0.945625
42 2 2.2208 8.08574 1.32558 2.54585
43 1 -1.1104 9.50197 -2.96015 4.07429
44 1 -1.1104 9.54333 2.63704 3.76025
45 2 2.2208 7.986 -1.57048 5.33905
47 1 -1.1104 9.66287 -0.0798331 1.09292
48 1 -1.1104 9.46838 -0.217072 3.89598
46 2 2.2208 8.07613 4.15884 5.1812
325 2 2.2208 10.9877 15.387 8.26691
316 2 2.2208 8.16682 21.0007 10.7967
8431 2 2.2208 2.5549 -4.17604 2.50467
169 1 -1.1104 6.62749 2.77162 6.71396
8446 2 2.2208 10.8882 -4.34044 -0.470052
8434 2 2.2208 8.11029 -4.30567 2.48404
8435 2 2.2208 10.9713 -4.32022 5.13329
8450 2 2.2208 5.35425 -4.18734 -0.428179
369 2 2.2208 10.9271 1.42452 -0.430978
8438 2 2.2208 5.3626 -4.33828 10.8928
54 2 2.2208 5.37807 7.00108 5.22518
55 2 2.2208 5.36772 12.4958 5.2302
56 1 -1.1104 1.0025 8.35262 0.987762
58 1 -1.1104 1.09692 8.34919 3.79205
60 1 -1.1104 0.947485 5.69546 1.11216
61 1 -1.1104 1.23957 11.0846 1.03791
66 2 2.2208 5.28241 9.87849 2.45557
67 1 -1.1104 1.19759 5.62744 3.89838
68 1 -1.1104 1.15099 11.1256 3.82835
71 1 -1.1104 3.95839 8.38605 0.914831
72 2 2.2208 2.46203 7.0862 2.31856
73 2 2.2208 2.6441 12.5734 2.5077
74 1 -1.1104 3.85241 8.50125 3.76813
75 2 2.2208 2.53825 9.86896 5.29333
76 1 -1.1104 3.77839 5.51443 1.23003
77 1 -1.1104 3.87247 11.173 1.25275
79 1 -1.1104 4.01532 5.63951 3.8959
80 1 -1.1104 4.00301 11.217 3.94423
69 1 -1.1104 6.81141 5.61254 3.88804
64 1 -1.1104 6.80531 11.2741 1.12213
57 1 -1.1104 6.71355 8.43203 1.15886
236 1 -1.1104 1.09145 5.65668 6.78054
239 1 -1.1104 3.93502 5.74777 6.60594
238 1 -1.1104 4.06206 8.51431 6.5914
330 1 -1.1104 12.4442 13.9254 12.36
326 1 -1.1104 12.4546 16.7356 12.5141
344 2 2.2208 13.9898 15.3746 -0.126715
105 2 2.2208 13.8981 6.98979 2.56374
332 2 2.2208 13.8268 18.0872 8.18495
70 1 -1.1104 6.7894 11.1542 3.92951
63 1 -1.1104 6.70868 5.69288 1.03244
237 1 -1.1104 6.53704 5.57371 6.69846
59 1 -1.1104 6.77007 8.33169 3.93739
84 2 2.2208 10.8195 6.9698 5.22713
85 2 2.2208 11.0022 12.4839 5.24966
86 1 -1.1104 12.4971 8.34228 1.20385
87 1 -1.1104 12.2874 8.33829 3.87085
88 1 -1.1104 12.3783 5.53651 1.01328
89 1 -1.1104 12.5052 11.1646 1.19274
91 2 2.2208 10.9349 9.69265 2.43129
92 1 -1.1104 12.3963 5.67177 3.71406
93 1 -1.1104 12.3533 11.1486 3.88365
94 1 -1.1104 9.52919 8.31552 1.04859
95 2 2.2208 8.06815 6.97173 2.33512
96 2 2.2208 8.26307 12.7159 2.40677
97 1 -1.1104 9.48614 8.44937 3.75124
98 2 2.2208 8.15841 9.84967 5.31636
99 1 -1.1104 9.4731 5.4562 1.1469
100 1 -1.1104 9.7416 11.2883 1.08935
102 1 -1.1104 9.61395 5.60226 3.84955
103 1 -1.1104 9.5718 11.2346 3.86882
386 2 2.2208 11.0929 12.7144 -0.215746
83 2 2.2208 -0.308315 12.652 5.40567
266 1 -1.1104 12.1134 5.45506 6.54192
265 1 -1.1104 12.2195 8.17407 6.69335
373 2 2.2208 2.60831 15.5112 -0.220952
374 2 2.2208 5.43125 18.1492 -0.298648
106 2 2.2208 5.49493 18.2589 5.1946
107 1 -1.1104 1.22012 13.9302 1.0465
109 1 -1.1104 1.34705 19.5934 1.19014
113 1 -1.1104 1.13664 13.8836 3.97852
114 1 -1.1104 1.30321 19.6131 3.94883
116 1 -1.1104 1.20727 16.7843 1.19092
119 2 2.2208 5.35841 15.3936 2.57159
120 2 2.2208 5.51156 20.979 2.47373
121 1 -1.1104 1.21629 16.7337 4.10034
123 1 -1.1104 3.98386 14.1391 1.11644
125 1 -1.1104 4.16582 19.5586 1.03286
127 2 2.2208 2.60712 18.2552 2.46016
128 1 -1.1104 3.94513 14.0055 3.86009
129 1 -1.1104 4.09477 19.6441 3.85859
130 2 2.2208 2.6857 15.4095 5.20688
131 2 2.2208 2.56853 20.9359 5.35001
132 1 -1.1104 3.9278 16.8521 1.2359
134 1 -1.1104 4.02504 16.8015 3.93598
110 1 -1.1104 6.83671 14.1304 1.11718
133 1 -1.1104 4.17945 16.8292 6.63932
302 1 -1.1104 1.12529 19.7503 6.603
108 1 -1.1104 1.28227 14.1664 6.8074
126 1 -1.1104 3.84894 19.5787 6.73195
320 2 2.2208 8.2534 18.1611 8.10112
136 2 2.2208 -0.262664 20.9649 2.42206
348 2 2.2208 11.1216 18.2644 -0.315769
347 2 2.2208 8.25641 15.5179 -0.290512
139 1 -1.1104 6.84497 19.5261 3.99729
140 1 -1.1104 6.82979 16.9548 1.1099
122 1 -1.1104 6.97329 16.71 3.8106
115 1 -1.1104 6.83786 14.0774 3.91294
138 1 -1.1104 6.9661 19.6472 1.03772
322 1 -1.1104 9.65764 14.0179 12.3213
141 2 2.2208 11.0698 18.2731 5.36347
142 1 -1.1104 12.5467 13.9174 1.1726
144 1 -1.1104 12.4711 19.4788 1.29446
146 1 -1.1104 12.5401 13.9906 3.90731
147 1 -1.1104 12.5471 19.6056 4.10483
148 1 -1.1104 12.4376 16.8479 1.22098
150 2 2.2208 10.9296 15.4827 2.6685
151 2 2.2208 11.0965 20.9189 2.59326
152 1 -1.1104 12.2896 16.7036 4.04948
153 1 -1.1104 9.62085 13.9704 1.13962
155 1 -1.1104 9.7009 19.6178 1.12198
157 2 2.2208 8.18668 18.1646 2.32551
158 1 -1.1104 9.62657 14.1523 4.00757
159 1 -1.1104 9.69581 19.5875 3.87028
160 2 2.2208 8.32336 15.3974 5.28366
161 2 2.2208 8.23005 20.9865 5.29466
162 1 -1.1104 9.7891 16.8354 1.02364
164 1 -1.1104 9.55603 16.9441 3.93226
349 2 2.2208 8.3033 21.0944 -0.384239
315 1 -1.1104 9.6032 16.7719 12.365
170 1 -1.1104 1.14996 -0.193629 6.74577
166 1 -1.1104 1.02386 -3.02903 6.73046
200 2 2.2208 -0.240071 -1.47971 8.07847
314 1 -1.1104 9.61685 16.9715 9.55896
8437 2 2.2208 2.37806 -4.22253 8.14814
199 2 2.2208 -0.223258 4.17115 8.1218
174 1 -1.1104 3.86013 -0.270206 6.89019
167 1 -1.1104 1.14039 2.73392 6.60033
173 1 -1.1104 3.86912 2.79861 6.54427
172 1 -1.1104 3.83412 -3.05703 6.57388
175 2 2.2208 5.33798 1.30652 10.8946
176 1 -1.1104 1.30615 -2.85186 12.4341
177 1 -1.1104 1.15541 2.68634 12.3745
180 1 -1.1104 1.25138 -2.84356 9.60888
181 1 -1.1104 1.11455 2.76767 9.48456
184 1 -1.1104 1.31545 0.0381519 12.2408
186 2 2.2208 5.32006 -1.48509 8.24632
188 1 -1.1104 1.18192 0.167654 9.52195
190 1 -1.1104 4.01408 -2.97706 12.2267
191 1 -1.1104 3.95097 2.81589 12.1769
192 2 2.2208 2.58959 1.42089 8.16702
193 1 -1.1104 3.96119 -2.86986 9.48014
194 1 -1.1104 4.00446 2.84288 9.35009
195 2 2.2208 2.57945 -1.46915 10.8237
197 1 -1.1104 3.98923 -0.166262 12.3023
198 1 -1.1104 3.98873 0.0249661 9.53975
187 2 2.2208 5.30041 4.13511 7.97427
196 2 2.2208 2.53867 4.37676 10.8803
183 1 -1.1104 6.7038 2.71847 9.52898
182 1 -1.1104 6.81162 -2.91953 9.77392
179 1 -1.1104 6.7094 2.83315 12.2233
185 1 -1.1104 6.66996 -0.0633789 12.4296
189 1 -1.1104 6.67785 -0.123045 9.61909
229 2 2.2208 13.7098 1.31428 7.99354
327 1 -1.1104 12.4481 19.4567 9.7486
210 1 -1.1104 9.30468 -0.0789806 6.50636
209 1 -1.1104 9.51155 2.72895 6.67444
206 1 -1.1104 12.3184 2.83496 6.74864
27 2 2.2208 -0.304342 4.16318 2.44369
341 2 2.2208 5.26401 4.11006 13.5606
178 1 -1.1104 6.92963 -2.79343 12.5572
205 1 -1.1104 12.3403 -2.84705 6.67893
207 1 -1.1104 12.307 -0.00180665 6.72536
208 1 -1.1104 9.59502 -2.89724 6.78358
319 1 -1.1104 9.56236 14.0402 9.49551
324 2 2.2208 10.9588 20.981 8.34985
211 2 2.2208 10.8542 1.31957 10.7481
212 1 -1.1104 12.4108 -2.85079 12.3316
213 1 -1.1104 12.2226 2.83337 12.1878
214 1 -1.1104 12.2895 -2.87443 9.42544
215 1 -1.1104 12.2431 2.76151 9.50339
216 1 -1.1104 12.315 -0.0241022 12.2819
217 2 2.2208 10.9009 -1.51206 8.11087
218 2 2.2208 10.8972 4.17773 8.09347
219 1 -1.1104 12.3317 -0.0868417 9.3823
220 1 -1.1104 9.76873 -2.79807 12.2095
221 1 -1.1104 9.4182 2.79395 12.2372
222 2 2.2208 8.08183 1.35186 7.95971
223 1 -1.1104 9.46879 -2.88925 9.47076
224 1 -1.1104 9.47352 2.78605 9.38992
225 2 2.2208 8.19265 -1.45101 11.0083
227 1 -1.1104 9.6452 0.108483 12.2419
228 1 -1.1104 9.49671 -0.154166 9.43883
226 2 2.2208 8.22423 4.16509 10.7998
339 2 2.2208 2.62224 1.26218 13.7445
8452 2 2.2208 -0.213771 -4.19979 -0.390337
163 1 -1.1104 9.66484 16.7673 6.81872
235 1 -1.1104 6.66946 8.39002 6.85866
62 1 -1.1104 1.32036 11.266 6.73413
81 2 2.2208 -0.251048 6.94107 5.22403
52 2 2.2208 13.829 9.75655 10.8707
234 1 -1.1104 1.15774 8.38662 6.53277
78 1 -1.1104 3.94348 11.166 6.78967
240 2 2.2208 5.36623 6.81827 10.8916
241 2 2.2208 5.3646 12.5558 10.9234
242 1 -1.1104 1.18468 8.39739 12.1874
244 1 -1.1104 1.12545 8.27671 9.40749
246 1 -1.1104 1.22912 5.61684 12.3615
247 1 -1.1104 1.0735 11.1407 12.3511
250 2 2.2208 5.29963 9.81792 8.15541
251 1 -1.1104 1.07935 5.58727 9.51385
252 1 -1.1104 1.14973 11.0251 9.61484
255 1 -1.1104 3.98458 8.37911 12.1758
256 2 2.2208 2.59797 7.05333 8.06159
257 2 2.2208 2.71208 12.6686 8.14827
258 1 -1.1104 4.02792 8.34639 9.3921
259 2 2.2208 2.62188 9.67839 10.9551
260 1 -1.1104 3.92657 5.70269 12.3658
261 1 -1.1104 4.00266 11.3464 12.2561
262 1 -1.1104 3.91639 5.56749 9.40702
263 1 -1.1104 4.02667 11.2252 9.62671
245 1 -1.1104 6.78447 8.40967 9.58684
253 1 -1.1104 6.72276 5.5203 9.4811
29 2 2.2208 -0.330799 6.98624 10.8701
53 2 2.2208 13.7944 12.6123 8.07996
311 2 2.2208 -0.256626 20.9909 8.13804
267 1 -1.1104 9.47389 8.40392 6.61949
269 1 -1.1104 9.4256 5.59848 6.60286
90 1 -1.1104 12.4265 11.1646 6.62983
101 1 -1.1104 9.60992 11.224 6.65784
243 1 -1.1104 6.67847 8.40258 12.3742
249 1 -1.1104 6.83499 11.168 12.4324
254 1 -1.1104 6.74394 11.2822 9.56192
248 1 -1.1104 6.72507 5.62014 12.395
65 1 -1.1104 6.8225 11.3384 6.57902
328 1 -1.1104 12.3506 13.9952 9.62078
149 1 -1.1104 12.4418 16.8439 6.86113
143 1 -1.1104 12.4586 13.9939 6.74214
264 1 -1.1104 9.43408 11.1164 9.63152
268 1 -1.1104 9.51595 5.58322 9.5614
270 1 -1.1104 9.64602 11.0938 12.2959
271 1 -1.1104 9.66398 5.51583 12.2485
272 2 2.2208 8.15042 9.7805 10.9166
273 1 -1.1104 9.60373 8.27192 9.3963
274 2 2.2208 8.14698 12.6619 8.12237
275 2 2.2208 8.07455 6.98234 8.1567
276 2 2.2208 10.9788 7.06862 10.8429
277 2 2.2208 11.1165 12.5312 11.02
278 1 -1.1104 12.3724 8.42988 12.3025
279 1 -1.1104 12.4681 8.45207 9.42555
280 1 -1.1104 12.3624 5.61997 12.1742
281 1 -1.1104 12.5008 11.1726 12.389
282 2 2.2208 10.8785 9.77105 7.9456
283 1 -1.1104 12.302 5.52108 9.31187
284 1 -1.1104 12.278 11.2219 9.44578
285 1 -1.1104 9.51289 8.20911 12.4571
323 1 -1.1104 12.3864 16.6881 9.61058
111 1 -1.1104 6.65915 14.0425 6.75111
124 1 -1.1104 3.9871 14.0501 6.68137
117 1 -1.1104 1.31477 16.9846 6.82688
112 1 -1.1104 6.80406 19.5854 6.73928
296 1 -1.1104 6.66118 19.5974 12.2771
306 1 -1.1104 6.7919 16.7562 12.293
310 2 2.2208 2.63645 15.3027 10.871
309 2 2.2208 2.64147 21.109 10.8406
286 1 -1.1104 3.9821 19.714 12.3939
300 2 2.2208 5.35202 18.2528 10.88
299 1 -1.1104 1.22743 13.9897 12.2806
308 1 -1.1104 4.08343 16.7858 12.3679
298 1 -1.1104 1.12401 19.665 12.3215
304 1 -1.1104 4.04127 16.8014 9.6378
303 2 2.2208 2.62871 18.2525 8.22683
292 1 -1.1104 1.33763 16.8135 9.45936
295 2 2.2208 5.43948 15.4669 8.07699
307 1 -1.1104 1.21112 16.7916 12.3353
301 1 -1.1104 4.01871 19.66 9.56023
291 1 -1.1104 1.16922 19.721 9.48492
305 1 -1.1104 4.13673 13.9752 9.54432
287 1 -1.1104 4.01156 14.0428 12.4203
294 1 -1.1104 1.30097 13.9647 9.567
293 2 2.2208 5.39357 20.9131 8.03692
289 1 -1.1104 6.78587 16.8723 9.53213
145 1 -1.1104 12.462 19.5763 6.9155
25 2 2.2208 -0.130615 -1.46556 2.51222
331 2 2.2208 11.0407 18.1924 11.0043
154 1 -1.1104 9.47584 13.9675 6.77453
156 1 -1.1104 9.61325 19.6949 6.7342
118 1 -1.1104 6.88642 16.7907 6.76282
329 1 -1.1104 12.45 19.5859 12.4475
318 1 -1.1104 9.75825 19.538 9.51115
317 2 2.2208 8.16975 15.4737 10.9031
288 1 -1.1104 6.85067 19.5873 9.4991
290 1 -1.1104 6.82104 14.1823 9.50868
297 1 -1.1104 6.71819 13.9163 12.2976
8442 2 2.2208 13.6711 -4.22207 7.9845
336 2 2.2208 13.8815 6.8365 13.6899
28 2 2.2208 13.8384 20.9732 10.8756
312 2 2.2208 -0.209262 18.1266 10.9059
337 2 2.2208 -0.208606 4.09121 13.7671
350 2 2.2208 11.0123 4.17486 13.6194
351 2 2.2208 2.57359 7.03233 13.6456
354 2 2.2208 8.0279 6.96292 13.7656
343 2 2.2208 8.20248 1.4373 13.722
346 2 2.2208 10.9899 -1.34778 13.7459
379 2 2.2208 5.39273 6.99119 -0.293846
372 2 2.2208 8.06181 4.05503 -0.446151
365 2 2.2208 2.48968 -1.4824 -0.202995
334 2 2.2208 -0.18424 -1.51256 13.8044
8453 2 2.2208 13.7397 -4.25248 13.685
388 2 2.2208 5.33591 1.3474 16.48
389 1 -1.1104 1.10592 -2.84674 18.0342
390 1 -1.1104 1.07332 2.91551 17.9181
393 1 -1.1104 1.02933 -2.85463 15.3667
395 1 -1.1104 1.27648 2.66355 15.0488
401 1 -1.1104 1.16158 -0.111694 17.9651
403 2 2.2208 5.36958 -1.4177 19.3339
404 2 2.2208 5.30052 4.10813 19.302
405 1 -1.1104 1.1193 -0.0660336 15.0671
409 1 -1.1104 3.83408 -2.94925 17.8783
410 1 -1.1104 3.85033 2.68851 17.9323
411 2 2.2208 2.57424 1.36043 19.31
412 1 -1.1104 3.92031 -2.82576 15.0869
414 1 -1.1104 3.96556 2.70999 15.0015
416 2 2.2208 2.54417 -1.46096 16.551
418 1 -1.1104 3.83473 -0.108585 17.9365
419 1 -1.1104 3.94183 -0.157182 15.0494
417 2 2.2208 2.48588 4.0818 16.4974
391 1 -1.1104 6.76547 -2.94855 18.0044
400 1 -1.1104 6.79093 2.78167 20.5415
357 2 2.2208 2.5386 18.2503 13.6408
427 2 2.2208 -0.271299 4.17436 19.3967
424 2 2.2208 -0.254136 1.24396 16.4586
8519 2 2.2208 2.58498 -4.22962 24.9312
645 2 2.2208 -0.23144 20.9829 25.0517
621 2 2.2208 -0.26183 7.01733 16.7262
396 1 -1.1104 1.21449 2.69594 20.8441
420 1 -1.1104 3.96947 -0.106273 20.7084
8584 2 2.2208 10.9111 -4.22563 16.449
425 2 2.2208 -0.264975 -1.49235 19.3836
8458 2 2.2208 2.53174 -4.26953 13.7188
526 2 2.2208 11.1321 20.9131 24.838
402 1 -1.1104 6.67181 -0.0494156 17.9514
407 1 -1.1104 6.7009 -0.0796826 15.2885
399 1 -1.1104 6.70181 2.69592 15.087
392 1 -1.1104 6.57853 2.76793 17.8809
397 1 -1.1104 6.67663 -2.85814 15.1474
431 2 2.2208 11.0306 1.31975 16.4504
432 1 -1.1104 12.3332 -2.90908 17.9323
433 1 -1.1104 12.2809 2.82574 18.0253
434 1 -1.1104 12.4628 -2.84694 15.1645
436 1 -1.1104 12.3154 2.73708 15.1238
438 1 -1.1104 12.467 0.0513333 17.7549
439 2 2.2208 11.0513 -1.39372 19.1838
440 2 2.2208 11.0294 4.23805 19.1892
441 1 -1.1104 12.5425 -0.0912703 15.0382
443 1 -1.1104 9.49335 -2.79959 17.6629
444 1 -1.1104 9.41642 2.78598 17.81
445 2 2.2208 8.13962 1.39307 19.3451
446 1 -1.1104 9.60352 -2.80229 14.9532
448 1 -1.1104 9.58857 2.76779 15.0337
450 2 2.2208 8.10793 -1.40644 16.4342
452 1 -1.1104 9.62254 -0.0290226 17.8122
453 1 -1.1104 9.62037 0.11932 15.1211
451 2 2.2208 8.1239 4.18452 16.3881
437 1 -1.1104 12.4339 2.79049 20.7344
590 1 -1.1104 9.71821 19.5937 26.2321
8553 2 2.2208 5.39396 -4.31752 22.0778
447 1 -1.1104 9.68664 -3.06209 20.662
449 1 -1.1104 9.66556 2.68283 20.5776
497 1 -1.1104 12.5687 19.4823 23.6004
464 2 2.2208 5.31675 7.01518 16.5309
465 2 2.2208 5.35956 12.5361 16.6592
466 1 -1.1104 1.20665 8.27029 17.8104
468 1 -1.1104 1.14513 8.4155 15.1004
472 1 -1.1104 1.24234 5.63684 17.8479
473 1 -1.1104 1.05386 11.1086 17.8821
476 2 2.2208 5.48893 9.82858 19.4529
477 1 -1.1104 1.24536 5.44644 15.017
479 1 -1.1104 1.13764 11.2826 15.071
485 1 -1.1104 3.99421 8.35599 17.8459
486 2 2.2208 2.59593 6.9983 19.2999
487 2 2.2208 2.50356 12.5587 19.2791
488 1 -1.1104 3.7948 8.52649 14.9536
490 2 2.2208 2.52954 9.74747 16.489
491 1 -1.1104 4.11131 5.56729 17.9864
492 1 -1.1104 3.82454 11.1124 18.1103
493 1 -1.1104 3.86358 5.58786 15.2165
495 1 -1.1104 3.95623 11.1729 15.1686
475 1 -1.1104 6.7425 11.2595 18.0202
470 1 -1.1104 6.60228 8.42666 15.1405
467 1 -1.1104 6.87471 8.35923 17.8735
474 1 -1.1104 6.83036 5.64368 17.7912
489 1 -1.1104 3.99653 8.42529 20.6101
480 1 -1.1104 1.17466 11.1383 20.7183
484 1 -1.1104 6.78324 11.324 20.8217
561 1 -1.1104 9.48664 14.0806 23.4287
581 1 -1.1104 9.43944 19.692 20.734
579 1 -1.1104 9.53394 14.0574 20.6593
458 2 2.2208 -0.295817 21.008 19.1716
481 1 -1.1104 6.60307 5.63621 14.9867
483 1 -1.1104 6.81625 11.2486 15.2569
457 2 2.2208 -0.255489 15.3674 19.411
500 2 2.2208 10.8779 6.80864 16.4532
501 2 2.2208 11.0179 12.5439 16.4566
502 1 -1.1104 12.3192 8.28822 17.9994
503 1 -1.1104 12.2884 8.15833 15.0226
505 1 -1.1104 12.3819 5.60042 17.8162
506 1 -1.1104 12.4828 10.9908 18.0459
507 2 2.2208 11.0157 9.73796 19.3424
508 1 -1.1104 12.5661 5.44249 14.9673
510 1 -1.1104 12.4413 11.1101 15.1948
512 1 -1.1104 9.60536 8.37187 18.0161
513 2 2.2208 8.205 6.91853 19.2984
514 2 2.2208 8.14188 12.6453 19.3069
515 1 -1.1104 9.64624 8.26684 15.1713
517 2 2.2208 8.1605 9.76408 16.4551
518 1 -1.1104 9.53894 5.58523 17.9479
519 1 -1.1104 9.65574 11.162 17.7032
520 1 -1.1104 9.48289 5.44195 15.0766
522 1 -1.1104 9.64458 11.2347 14.9275
586 1 -1.1104 9.48296 16.8262 20.7579
482 1 -1.1104 6.78663 5.43315 20.7377
521 1 -1.1104 9.58611 5.45644 20.7363
516 1 -1.1104 9.456 8.25614 20.797
8556 2 2.2208 8.12896 -4.2984 19.3375
617 1 -1.1104 9.66337 16.7916 23.765
8622 2 2.2208 5.42474 -4.30756 16.6064
358 2 2.2208 5.28169 21.0699 13.6132
527 2 2.2208 5.28883 18.1837 16.5523
528 1 -1.1104 1.0295 14.0901 17.7713
529 1 -1.1104 1.23406 19.674 17.8894
532 1 -1.1104 1.01237 14.0182 15.0073
534 1 -1.1104 1.16507 19.7203 15.0713
540 1 -1.1104 1.2425 16.975 17.8367
542 2 2.2208 5.26762 15.3032 19.3289
543 2 2.2208 5.24578 20.9294 19.3387
544 1 -1.1104 1.24121 16.7205 15.1118
548 1 -1.1104 3.83397 14.0286 18.0428
549 1 -1.1104 3.90646 19.5983 17.8693
550 2 2.2208 2.56314 18.2867 19.4227
551 1 -1.1104 3.92748 14.0038 15.2732
553 1 -1.1104 4.12723 19.5939 15.2198
555 2 2.2208 2.53452 15.4198 16.4562
556 2 2.2208 2.46785 21.005 16.4711
557 1 -1.1104 3.96071 16.8649 17.9881
558 1 -1.1104 3.83805 16.7944 15.2224
538 1 -1.1104 6.85884 19.5566 15.2093
531 1 -1.1104 6.71567 19.534 17.9424
536 1 -1.1104 6.64415 14.0021 14.9903
530 1 -1.1104 6.75054 13.9147 17.9586
537 1 -1.1104 6.7718 14.0598 20.7292
359 2 2.2208 5.34911 15.4118 13.7157
525 2 2.2208 11.0728 15.4394 25.0357
562 1 -1.1104 9.66645 19.4756 23.6403
569 1 -1.1104 12.3268 19.437 20.8795
362 2 2.2208 8.08514 18.2116 13.7719
8586 2 2.2208 2.53997 -4.33233 19.3998
546 1 -1.1104 6.58054 16.8028 15.0822
541 1 -1.1104 6.68761 16.6635 17.8871
547 1 -1.1104 6.73726 16.8082 20.8371
353 2 2.2208 2.57289 12.7233 13.6633
563 2 2.2208 10.9042 18.0857 16.5711
564 1 -1.1104 12.483 13.8186 17.9117
565 1 -1.1104 12.2421 19.6349 17.9533
566 1 -1.1104 12.4121 14.0734 15.0766
568 1 -1.1104 12.3571 19.5363 15.1835
570 1 -1.1104 12.235 16.8151 17.9833
571 2 2.2208 10.8796 15.4305 19.2621
572 2 2.2208 10.9231 20.938 19.3918
573 1 -1.1104 12.4643 16.8239 15.3043
575 1 -1.1104 9.55443 13.8774 17.9523
576 1 -1.1104 9.52372 19.5006 17.8888
577 2 2.2208 8.08847 18.2087 19.2127
578 1 -1.1104 9.555 13.9281 15.1714
580 1 -1.1104 9.5693 19.5631 15.0518
582 2 2.2208 8.11687 15.2576 16.5502
583 2 2.2208 8.09308 20.9849 16.5123
584 1 -1.1104 9.30746 16.592 18.0733
585 1 -1.1104 9.71535 16.7482 15.1743
588 1 -1.1104 6.80408 19.6101 26.4507
413 1 -1.1104 3.85016 -2.82246 20.7375
680 1 -1.1104 6.92351 16.6984 23.5976
622 2 2.2208 -0.2276 9.81084 19.4039
406 1 -1.1104 1.23063 0.0620279 20.7994
394 1 -1.1104 0.989167 -2.84346 20.834
398 1 -1.1104 6.74273 -2.91968 20.7353
415 1 -1.1104 3.97488 2.7263 20.7476
591 2 2.2208 5.30647 1.39469 22.0403
592 1 -1.1104 0.937929 -2.88794 23.4781
593 1 -1.1104 1.07737 2.61137 23.6748
596 1 -1.1104 1.16867 -2.83537 26.4137
597 1 -1.1104 1.04271 2.62099 26.4591
600 1 -1.1104 1.10713 -0.193846 23.5681
602 2 2.2208 5.37704 -1.32992 24.9545
604 1 -1.1104 1.12665 -0.0212314 26.3959
606 1 -1.1104 3.84501 -2.72779 23.5442
607 1 -1.1104 3.9958 2.69701 23.5538
608 2 2.2208 2.49923 1.22737 24.9762
609 1 -1.1104 4.06911 -2.76083 26.256
610 1 -1.1104 3.77305 2.69644 26.392
611 2 2.2208 2.46383 -1.38863 22.1192
612 2 2.2208 2.54541 4.06324 22.1447
613 1 -1.1104 4.04284 -0.0738928 23.5508
614 1 -1.1104 3.90393 -0.0753585 26.4575
603 2 2.2208 5.31888 4.15181 25.041
605 1 -1.1104 6.67643 0.0463479 26.3775
599 1 -1.1104 6.60297 2.81119 26.3418
595 1 -1.1104 6.78749 2.77173 23.56
648 2 2.2208 -0.32424 12.5682 16.5242
428 2 2.2208 13.7709 1.33103 19.2836
625 2 2.2208 -0.275631 1.29372 22.1733
8516 2 2.2208 8.11621 -4.23174 24.85
408 1 -1.1104 6.8334 -0.0833729 20.6337
594 1 -1.1104 6.7388 -2.92633 23.5299
598 1 -1.1104 6.75843 -2.88554 26.3216
601 1 -1.1104 6.75032 -0.0454193 23.5235
442 1 -1.1104 12.3544 -0.000801986 20.5814
435 1 -1.1104 12.2817 -2.85371 20.6883
454 1 -1.1104 9.54864 -0.163315 20.7837
627 2 2.2208 10.9142 1.39198 22.0702
628 1 -1.1104 12.3765 -2.97887 23.4584
629 1 -1.1104 12.3933 2.72943 23.4651
630 1 -1.1104 12.3487 -2.98055 26.3418
631 1 -1.1104 12.2961 2.86407 26.2443
632 1 -1.1104 12.3606 -0.0717922 23.2081
633 2 2.2208 11.007 -1.51594 24.8683
634 2 2.2208 10.8601 4.1995 24.8429
635 1 -1.1104 12.3771 0.0799494 26.2109
636 1 -1.1104 9.58178 -2.71491 23.4902
637 1 -1.1104 9.66967 2.56162 23.4489
638 2 2.2208 8.11853 1.30696 25.0215
639 1 -1.1104 9.49719 -2.83732 26.4345
640 1 -1.1104 9.4497 2.63017 26.3031
641 2 2.2208 8.11395 -1.40086 22.1307
643 1 -1.1104 9.55421 0.0421345 23.5855
644 1 -1.1104 9.49836 -0.121259 26.5374
642 2 2.2208 8.21443 4.04499 22.1403
712 1 -1.1104 6.76264 14.0721 26.5296
560 1 -1.1104 12.5142 16.7475 26.6014
615 2 2.2208 8.09362 15.4065 22.1657
455 2 2.2208 13.9786 18.1728 25.135
8517 2 2.2208 10.9377 -4.33854 22.0674
646 2 2.2208 -0.11409 15.487 24.7821
469 1 -1.1104 1.17653 8.42497 20.6772
494 1 -1.1104 3.91843 5.55265 20.72
539 1 -1.1104 6.71899 19.5431 20.655
478 1 -1.1104 1.15933 5.53115 20.7907
496 1 -1.1104 3.97302 11.1528 20.8641
656 2 2.2208 5.34081 6.89976 22.1444
657 2 2.2208 5.27415 12.5639 22.1931
658 1 -1.1104 1.16615 8.21615 23.4114
660 1 -1.1104 1.01176 8.13573 26.2224
662 1 -1.1104 1.09314 5.45805 23.5478
663 1 -1.1104 1.12082 11.1962 23.5328
666 2 2.2208 5.31658 9.87509 25.0288
667 1 -1.1104 1.17996 5.40093 26.3575
668 1 -1.1104 1.08472 11.0335 26.4155
671 1 -1.1104 3.75573 8.37764 23.5833
672 2 2.2208 2.50061 6.8462 24.923
673 2 2.2208 2.41119 12.6254 25.0321
674 1 -1.1104 3.92747 8.36586 26.3433
675 2 2.2208 2.63678 9.81585 22.1761
676 1 -1.1104 4.00926 5.554 23.4957
677 1 -1.1104 3.90901 11.204 23.6725
678 1 -1.1104 3.91308 5.56488 26.4218
679 1 -1.1104 4.0177 11.1915 26.5202
669 1 -1.1104 6.78364 5.52187 26.3798
659 1 -1.1104 6.75457 8.47745 23.5851
498 1 -1.1104 12.4818 14.0888 26.2644
456 2 2.2208 -0.188309 18.278 16.5691
471 1 -1.1104 6.90257 8.48044 20.6801
665 1 -1.1104 6.8089 11.3095 23.7101
664 1 -1.1104 6.76769 5.47065 23.5641
670 1 -1.1104 6.80842 11.3331 26.4721
661 1 -1.1104 6.67937 8.36307 26.3406
509 1 -1.1104 12.337 5.56096 20.5863
523 1 -1.1104 9.59861 11.2078 20.6098
511 1 -1.1104 12.405 11.1368 20.9043
504 1 -1.1104 12.2119 8.36994 20.6743
687 1 -1.1104 9.46548 11.1727 26.3168
688 1 -1.1104 9.52039 5.58387 26.3825
689 1 -1.1104 9.6172 11.2397 23.4189
690 1 -1.1104 9.5355 5.51634 23.6445
691 2 2.2208 8.08574 9.74021 22.1564
692 1 -1.1104 9.47019 8.43063 26.4136
693 2 2.2208 8.26572 12.569 24.9601
694 2 2.2208 8.08175 7.03617 24.9985
695 2 2.2208 10.9098 6.92 21.9858
696 2 2.2208 10.9299 12.583 22.0585
697 1 -1.1104 12.2282 8.53361 23.494
698 1 -1.1104 12.3983 8.42959 26.301
699 1 -1.1104 12.3849 5.58744 23.4483
700 1 -1.1104 12.4338 11.4205 23.6321
701 2 2.2208 10.8524 9.75659 24.939
702 1 -1.1104 12.3192 5.61775 26.1445
703 1 -1.1104 12.2649 11.3007 26.3858
704 1 -1.1104 9.35016 8.31157 23.5337
554 1 -1.1104 4.09434 19.5616 20.778
552 1 -1.1104 3.94412 13.8569 20.7202
545 1 -1.1104 1.17874 16.9917 20.6136
535 1 -1.1104 1.19093 19.6739 20.7618
533 1 -1.1104 1.19208 14.0354 20.5884
559 1 -1.1104 3.88817 16.8244 20.8417
709 1 -1.1104 6.65903 14.0389 23.6144
714 1 -1.1104 6.889 16.8513 26.2748
647 2 2.2208 2.64678 15.396 22.0514
649 2 2.2208 2.47247 21.0278 22.2057
652 1 -1.1104 4.04552 16.7745 23.5797
655 1 -1.1104 1.24755 16.7764 23.4014
681 1 -1.1104 3.86151 14.1399 26.4143
682 1 -1.1104 4.04874 16.8237 26.3382
683 2 2.2208 2.6378 18.1776 24.8565
686 1 -1.1104 3.88255 19.5441 26.3762
705 2 2.2208 5.36086 18.3022 22.164
706 1 -1.1104 1.23259 14.0243 23.4356
707 1 -1.1104 1.12005 19.5373 23.548
711 1 -1.1104 3.93948 19.6235 23.5842
713 1 -1.1104 3.84549 13.8859 23.7118
715 1 -1.1104 1.10242 19.7429 26.498
716 1 -1.1104 1.28948 16.8299 26.385
717 1 -1.1104 1.19006 14.1265 26.2942
719 2 2.2208 5.45005 20.967 25.08
720 2 2.2208 5.37813 15.3533 24.9328
524 1 -1.1104 12.3827 16.8291 23.7145
366 2 2.2208 2.47588 4.08054 27.6993
589 1 -1.1104 9.6375 14.141 26.4421
620 1 -1.1104 9.84136 16.8623 26.458
574 1 -1.1104 12.2621 16.7404 20.6891
567 1 -1.1104 12.4443 13.9693 20.5878
463 1 -1.1104 12.2005 14.2104 23.4619
587 2 2.2208 8.32258 18.1412 25.0662
499 1 -1.1104 12.4112 19.5961 26.4453
616 2 2.2208 8.11906 20.9811 22.0886
718 1 -1.1104 6.77272 19.5831 23.6316
462 2 2.2208 10.8968 18.0872 22.2324
342 2 2.2208 -0.340943 15.3602 13.7463
8585 2 2.2208 13.6082 -4.22071 19.2666
685 2 2.2208 -0.116497 12.6026 22.1703
8518 2 2.2208 13.7693 -4.42731 24.9607
654 2 2.2208 13.6655 1.36793 24.7406
335 2 2.2208 -0.291529 21.0027 13.6515
623 2 2.2208 -0.309309 18.3327 22.0152
421 2 2.2208 -0.241507 6.91257 22.0995
624 2 2.2208 -0.299643 -1.53452 24.9459
461 2 2.2208 13.825 20.9317 22.1373
370 2 2.2208 8.22936 -1.36092 27.9297
364 2 2.2208 5.42406 1.39576 27.7841
360 2 2.2208 10.9578 20.8951 13.6676
381 2 2.2208 5.38732 12.7961 27.7431
384 2 2.2208 11.0299 6.86971 27.8377
385 2 2.2208 8.14858 9.95693 27.9093
361 2 2.2208 11.0189 15.4129 13.8166
355 2 2.2208 11.0606 9.62093 13.695
356 2 2.2208 8.19667 12.6189 13.6241
338 2 2.2208 5.48143 -1.47942 13.751
352 2 2.2208 5.35987 9.84016 13.6468
383 2 2.2208 -0.447759 6.8807 27.8484
721 2 2.2208 5.45264 23.7006 5.23396
722 2 2.2208 5.3212 29.4905 5.27529
723 1 -1.1104 1.15314 25.2323 1.0678
724 1 -1.1104 1.20294 25.2614 3.95416
725 1 -1.1104 1.05646 22.3744 1.07557
726 1 -1.1104 1.18023 28.039 1.111
727 2 2.2208 5.44204 26.5199 2.34818
728 1 -1.1104 1.15598 22.3923 3.91008
729 1 -1.1104 1.09753 27.9899 3.8524
730 1 -1.1104 3.85704 25.2059 0.945818
731 2 2.2208 2.56389 23.7478 2.52078
732 2 2.2208 2.55816 29.4637 2.50299
733 1 -1.1104 4.07614 25.3148 3.68562
734 2 2.2208 2.60749 26.7187 5.22223
735 1 -1.1104 3.98426 22.379 1.064
736 1 -1.1104 3.96141 28.074 0.889009
737 1 -1.1104 3.94664 22.4151 3.79587
738 1 -1.1104 3.87499 28.0431 3.99842
747 1 -1.1104 6.6861 27.8818 3.84872
746 1 -1.1104 6.66342 22.3878 3.91933
742 1 -1.1104 6.62916 25.1055 1.07811
864 1 -1.1104 1.25973 22.5682 6.61207
1088 2 2.2208 -0.296132 29.34 -0.399155
740 2 2.2208 -0.159225 23.8581 5.21134
1084 2 2.2208 2.52275 26.655 -0.313699
1083 2 2.2208 5.41811 23.7821 -0.426821
739 2 2.2208 -0.232906 29.3437 5.21373
1087 2 2.2208 5.33878 29.3595 -0.430108
743 1 -1.1104 6.81449 25.1433 3.86968
745 1 -1.1104 6.68397 28.0802 0.926166
744 1 -1.1104 6.90267 22.3694 1.12292
748 2 2.2208 11.0772 23.834 5.18284
749 2 2.2208 10.8617 29.4388 5.15073
750 1 -1.1104 12.3072 25.1062 0.942297
751 1 -1.1104 12.4075 25.2412 3.81891
752 1 -1.1104 12.3487 22.1641 1.1857
753 1 -1.1104 12.4142 27.9548 1.08891
754 2 2.2208 10.9867 26.6127 2.34757
755 1 -1.1104 12.427 22.5203 3.88627
756 1 -1.1104 12.4932 28.1211 3.97337
757 1 -1.1104 9.48862 25.2548 1.14144
758 2 2.2208 8.24351 23.8227 2.4646
759 2 2.2208 8.01988 29.4569 2.47062
760 1 -1.1104 9.54118 25.1988 3.78342
761 2 2.2208 8.11847 26.6346 5.22052
762 1 -1.1104 9.61048 22.4424 1.01569
763 1 -1.1104 9.46234 28.0741 1.15799
764 1 -1.1104 9.50951 22.4901 3.98786
765 1 -1.1104 9.58124 28.2174 3.8387
1033 1 -1.1104 12.5053 41.9347 9.55719
1091 2 2.2208 8.0442 26.5521 -0.315139
1016 1 -1.1104 9.53457 39.1801 12.3156
1501 1 -1.1104 9.56235 47.6499 3.95358
1090 2 2.2208 11.0288 23.7028 -0.333891
1094 2 2.2208 2.49643 37.7684 -0.358462
769 2 2.2208 5.37886 34.9618 5.30342
770 1 -1.1104 1.19845 30.7863 1.14672
771 1 -1.1104 1.12281 36.4705 1.09947
773 1 -1.1104 1.0875 30.7598 3.86827
774 1 -1.1104 1.1305 36.4068 3.96589
776 1 -1.1104 1.20706 33.6703 1.08136
777 2 2.2208 5.38516 32.2551 2.43794
778 2 2.2208 5.31087 37.6778 2.50348
779 1 -1.1104 1.01746 33.6417 3.77049
781 1 -1.1104 3.97876 30.7724 1.16876
782 1 -1.1104 3.98406 36.3888 1.0458
783 2 2.2208 2.559 34.9768 2.58866
784 1 -1.1104 3.93013 30.8415 3.82952
785 1 -1.1104 4.16306 36.4274 3.99087
786 2 2.2208 2.5478 32.299 5.29969
787 2 2.2208 2.58851 37.7641 5.29255
788 1 -1.1104 4.00063 33.6375 1.10687
789 1 -1.1104 4.03511 33.6386 3.88634
795 1 -1.1104 6.88559 33.4444 1.16764
923 1 -1.1104 1.11453 33.6688 6.59182
1095 2 2.2208 2.53057 32.1425 -0.153157
1097 2 2.2208 -0.395837 34.9981 -0.366597
790 2 2.2208 -0.309268 37.7945 2.4233
791 2 2.2208 -0.370579 32.1723 2.47114
1096 2 2.2208 5.34785 34.936 -0.251935
1101 2 2.2208 11.0737 35.0767 -0.396174
1100 2 2.2208 8.20781 32.2458 -0.341132
772 1 -1.1104 6.88448 36.3475 0.984272
775 1 -1.1104 6.95298 36.2934 3.76091
793 1 -1.1104 6.7433 30.8286 1.09835
780 1 -1.1104 6.77796 33.4589 3.90796
794 1 -1.1104 6.6725 30.8264 3.88309
987 1 -1.1104 6.72782 44.6967 12.1482
796 2 2.2208 11.0173 35.0162 5.33606
797 1 -1.1104 12.4413 30.7992 1.03204
798 1 -1.1104 12.3396 36.4804 0.983589