ITEM: TIMESTEP
10000
ITEM: NUMBER OF ATOMS
17910
ITEM: BOX BOUNDS pp pp pp
-3.5764608143854332e-01 2.7697646081438766e+01
-4.3143920910705429e+00 3.3239439209106877e+02
-3.5527839963383745e-01 2.7695278399633747e+01
ITEM: ATOMS id type q x y z
1 2 2.2208 5.17877 1.31162 5.30461
2 1 -1.1104 1.00792 -2.78049 0.879874
3 1 -1.1104 1.08292 2.77805 1.08471
6 1 -1.1104 0.881512 -2.68661 3.72884
7 1 -1.1104 1.10159 2.91184 3.90339
10 1 -1.1104 0.921614 0.127693 1.05796
12 2 2.2208 5.22392 -1.38804 2.42911
13 2 2.2208 5.26178 4.12685 2.40144
14 1 -1.1104 0.941163 0.0593809 3.88234
16 1 -1.1104 3.74667 -2.89172 1.00351
17 1 -1.1104 3.88406 2.69892 1.10033
18 2 2.2208 2.32011 1.33042 2.44352
19 1 -1.1104 3.79307 -2.76022 3.81143
20 1 -1.1104 3.92163 2.82242 3.87889
21 2 2.2208 2.31831 -1.40558 5.20039
22 2 2.2208 2.49816 4.22819 5.33764
23 1 -1.1104 3.74964 -0.0976669 1.05067
24 1 -1.1104 3.71552 0.0705882 3.81732
8 1 -1.1104 6.51158 -2.93624 3.79758
11 1 -1.1104 6.62718 -0.0571689 0.877526
15 1 -1.1104 6.54 -0.0572712 3.83045
170 1 -1.1104 0.884344 0.004302 6.67663
173 1 -1.1104 3.83791 2.71561 6.73825
8437 2 2.2208 2.41846 -4.30983 8.06358
172 1 -1.1104 3.83965 -2.79101 6.5497
167 1 -1.1104 1.06997 2.83931 6.6347
174 1 -1.1104 3.62926 0.097004 6.65088
8431 2 2.2208 2.38752 -4.08873 2.41543
28 2 2.2208 13.6192 20.991 10.923
375 2 2.2208 2.31654 21.0607 -0.424992
4 1 -1.1104 6.56368 -2.95255 1.03193
8434 2 2.2208 8.00185 -4.29492 2.46373
317 2 2.2208 8.02581 15.4825 10.7189
9 1 -1.1104 6.67924 2.71234 3.77392
5 1 -1.1104 6.60948 2.66145 1.03697
8438 2 2.2208 5.07076 -4.36103 10.7833
31 2 2.2208 10.9064 1.22579 5.29356
32 1 -1.1104 12.2671 -3.00959 1.10901
33 1 -1.1104 12.2845 2.71293 0.823423
34 1 -1.1104 12.1282 -2.98502 3.79439
35 1 -1.1104 12.2847 2.58378 3.83738
36 1 -1.1104 12.0386 -0.241897 0.925468
37 2 2.2208 10.832 -1.50404 2.50922
38 2 2.2208 10.8272 4.09409 2.33177
39 1 -1.1104 12.3809 -0.102046 3.76723
40 1 -1.1104 9.52404 -2.84557 1.00752
41 1 -1.1104 9.43364 2.73324 0.988128
42 2 2.2208 7.98658 1.34065 2.43331
43 1 -1.1104 9.39028 -2.67515 3.77291
44 1 -1.1104 9.40433 2.79896 3.97764
45 2 2.2208 7.96916 -1.46642 5.25559
46 2 2.2208 8.05204 4.17771 5.21882
47 1 -1.1104 9.3408 -0.246524 0.827261
48 1 -1.1104 9.48251 0.105632 3.67659
207 1 -1.1104 12.2918 -0.0707733 6.56165
319 1 -1.1104 9.61697 14.0347 9.31729
171 1 -1.1104 6.5771 -0.0801815 6.58291
81 2 2.2208 -0.508952 6.95962 5.24756
208 1 -1.1104 9.4196 -2.9283 6.67085
210 1 -1.1104 9.42339 -0.0592768 6.57206
206 1 -1.1104 12.2679 2.72735 6.59341
342 2 2.2208 -0.588992 15.2713 13.7187
54 2 2.2208 5.33426 7.01389 5.29341
55 2 2.2208 5.26255 12.6414 5.26654
56 1 -1.1104 1.01229 8.28287 0.846203
58 1 -1.1104 1.05041 8.31083 3.81521
60 1 -1.1104 0.880216 5.4966 1.07885
61 1 -1.1104 1.04846 11.1462 0.989526
66 2 2.2208 5.20853 9.73495 2.43005
67 1 -1.1104 0.989256 5.6051 3.86564
68 1 -1.1104 1.06942 11.2703 3.7412
71 1 -1.1104 3.73101 8.32832 1.04307
72 2 2.2208 2.41912 6.91723 2.55417
73 2 2.2208 2.46305 12.5887 2.39018
74 1 -1.1104 3.86823 8.41491 3.85217
75 2 2.2208 2.35919 9.86578 5.13077
76 1 -1.1104 3.70549 5.54941 1.17496
77 1 -1.1104 3.84426 11.1399 0.905057
79 1 -1.1104 3.7751 5.57918 3.89783
80 1 -1.1104 3.91182 11.1843 3.8205
238 1 -1.1104 3.82811 8.3829 6.53469
59 1 -1.1104 6.64858 8.53216 3.90643
70 1 -1.1104 6.66857 11.3274 3.59578
365 2 2.2208 2.40114 -1.45609 -0.359653
83 2 2.2208 -0.415816 12.5703 5.25066
239 1 -1.1104 3.86539 5.62561 6.7034
234 1 -1.1104 0.82952 8.33543 6.59687
78 1 -1.1104 3.83998 11.2388 6.61006
62 1 -1.1104 0.910841 11.3198 6.55716
236 1 -1.1104 1.10467 5.4861 6.62856
64 1 -1.1104 6.55117 11.001 0.904657
235 1 -1.1104 6.51123 8.42174 6.63454
57 1 -1.1104 6.6007 8.33541 1.06593
63 1 -1.1104 6.71727 5.47598 1.10368
69 1 -1.1104 6.53643 5.55608 3.81628
84 2 2.2208 10.7497 6.97065 5.11164
85 2 2.2208 10.7806 12.5051 5.29784
86 1 -1.1104 12.2036 8.42766 0.841653
87 1 -1.1104 12.129 8.4138 3.8483
88 1 -1.1104 12.2801 5.49813 1.01048
89 1 -1.1104 12.183 11.2277 0.882633
91 2 2.2208 10.7382 9.87081 2.42022
92 1 -1.1104 12.1624 5.53445 3.84453
93 1 -1.1104 12.1605 11.1848 3.79631
94 1 -1.1104 9.37805 8.38291 0.849206
95 2 2.2208 8.04787 6.92069 2.27119
96 2 2.2208 8.08303 12.5983 2.3402
97 1 -1.1104 9.28419 8.37815 3.6659
98 2 2.2208 7.97522 9.81363 5.13944
99 1 -1.1104 9.53676 5.54198 0.948588
100 1 -1.1104 9.35697 11.1771 1.11612
102 1 -1.1104 9.32133 5.57437 3.6324
103 1 -1.1104 9.43227 11.227 3.98252
269 1 -1.1104 9.46589 5.59718 6.4424
265 1 -1.1104 12.2801 8.40551 6.53219
101 1 -1.1104 9.36315 11.1573 6.78316
323 1 -1.1104 12.2213 16.7988 9.40201
8432 2 2.2208 5.19178 -4.29613 5.30186
331 2 2.2208 10.8254 18.2146 10.8059
106 2 2.2208 5.14209 18.3306 5.17355
107 1 -1.1104 0.992064 13.9335 0.963085
109 1 -1.1104 0.888152 19.6769 0.995276
113 1 -1.1104 0.972895 13.9686 3.79103
114 1 -1.1104 0.933281 19.6927 3.72346
116 1 -1.1104 1.08942 16.7571 1.1782
119 2 2.2208 5.20538 15.3303 2.42887
120 2 2.2208 5.25434 21.0528 2.44112
121 1 -1.1104 0.786872 16.8745 3.95197
123 1 -1.1104 3.82546 14.0061 0.883117
125 1 -1.1104 3.81943 19.5668 0.855775
127 2 2.2208 2.33227 18.3269 2.41401
128 1 -1.1104 3.90299 14.0276 3.75438
129 1 -1.1104 3.75624 19.7542 3.62873
130 2 2.2208 2.28747 15.5498 5.30081
131 2 2.2208 2.4302 21.0331 5.12921
132 1 -1.1104 3.75128 16.757 0.94402
134 1 -1.1104 3.78952 16.7818 3.79208
111 1 -1.1104 6.67277 13.9483 6.63347
138 1 -1.1104 6.56888 19.6519 1.07554
117 1 -1.1104 0.906092 16.8183 6.75247
122 1 -1.1104 6.6478 16.9691 3.90579
139 1 -1.1104 6.53799 19.5881 3.78904
140 1 -1.1104 6.48742 16.7815 1.03423
112 1 -1.1104 6.53256 19.6174 6.59006
126 1 -1.1104 3.85441 19.6562 6.5237
124 1 -1.1104 3.80775 14.1318 6.54233
321 1 -1.1104 9.57496 19.4802 12.3505
8433 2 2.2208 -0.557631 -4.23413 5.33874
322 1 -1.1104 9.45139 14.2036 12.0412
320 2 2.2208 8.05664 18.2418 7.98081
115 1 -1.1104 6.58899 14.0742 3.72355
110 1 -1.1104 6.57988 13.9018 0.941599
156 1 -1.1104 9.30942 19.739 6.72643
141 2 2.2208 10.7769 18.2653 5.15685
142 1 -1.1104 12.2133 13.963 1.13135
144 1 -1.1104 12.3535 19.5105 0.925727
146 1 -1.1104 12.2158 14.0313 3.93847
147 1 -1.1104 12.2387 19.8139 3.6295
148 1 -1.1104 12.0929 16.6733 0.892171
150 2 2.2208 10.7545 15.398 2.4705
151 2 2.2208 10.6824 21.0593 2.46736
152 1 -1.1104 12.2765 16.9794 3.81388
153 1 -1.1104 9.52877 14.0661 0.919455
155 1 -1.1104 9.3944 19.4352 1.07627
157 2 2.2208 7.89896 18.1948 2.46806
158 1 -1.1104 9.36779 13.8881 3.75284
159 1 -1.1104 9.32625 19.6348 3.80748
160 2 2.2208 8.0393 15.3352 5.17246
161 2 2.2208 7.95924 21.0817 5.2661
162 1 -1.1104 9.33252 16.8037 1.0412
164 1 -1.1104 9.47478 16.7939 3.8359
145 1 -1.1104 12.1423 19.4306 6.57116
8454 2 2.2208 7.79172 -4.26219 13.7041
149 1 -1.1104 12.1514 16.8509 6.57357
165 2 2.2208 13.7131 18.295 2.44618
315 1 -1.1104 9.37879 16.8386 12.2928
326 1 -1.1104 12.2102 16.9384 12.0671
328 1 -1.1104 12.3345 13.9006 9.47746
324 2 2.2208 10.959 20.9757 8.01421
199 2 2.2208 -0.463564 4.20949 8.04273
166 1 -1.1104 0.927773 -2.90415 6.59187
168 1 -1.1104 6.5426 -2.72357 6.57776
175 2 2.2208 5.19221 1.25528 10.7746
176 1 -1.1104 0.951128 -3.08835 12.2941
177 1 -1.1104 0.99531 2.53473 12.3553
180 1 -1.1104 0.987993 -2.82056 9.56387
181 1 -1.1104 0.943434 2.7016 9.45196
184 1 -1.1104 1.11728 -0.243186 12.4662
186 2 2.2208 5.19504 -1.3646 7.95587
187 2 2.2208 5.18634 4.24316 8.1082
188 1 -1.1104 0.919381 -0.0784884 9.39932
190 1 -1.1104 3.7965 -2.89832 12.2242
191 1 -1.1104 3.65127 2.83036 12.2582
192 2 2.2208 2.42614 1.31459 8.08216
193 1 -1.1104 3.57625 -2.98501 9.44313
194 1 -1.1104 3.80687 2.69826 9.69508
195 2 2.2208 2.45909 -1.61577 10.9467
196 2 2.2208 2.30285 4.17113 10.867
197 1 -1.1104 3.91115 0.0653555 12.2752
198 1 -1.1104 3.90221 -0.151632 9.46144
179 1 -1.1104 6.40585 2.73664 12.1841
169 1 -1.1104 6.70483 2.72932 6.60994
189 1 -1.1104 6.59065 -0.0564377 9.33103
185 1 -1.1104 6.55185 -0.13164 12.2212
182 1 -1.1104 6.4344 -2.90757 9.3144
143 1 -1.1104 12.1015 13.9802 6.68218
135 2 2.2208 -0.497916 15.3014 2.48148
341 2 2.2208 5.04808 4.15075 13.5527
343 2 2.2208 7.86962 1.2851 13.557
50 2 2.2208 13.7799 -1.437 5.14245
232 2 2.2208 13.5093 9.82656 5.17155
314 1 -1.1104 9.49303 16.9422 9.47628
183 1 -1.1104 6.63531 2.80712 9.41462
178 1 -1.1104 6.51515 -2.89717 12.2144
203 2 2.2208 13.6659 4.1573 10.8259
205 1 -1.1104 12.1359 -2.93981 6.45049
209 1 -1.1104 9.54419 2.72418 6.55755
211 2 2.2208 10.9447 1.36942 10.7896
212 1 -1.1104 11.9936 -2.89268 12.1735
213 1 -1.1104 12.2236 2.80557 12.3096
214 1 -1.1104 12.2304 -2.89096 9.36784
215 1 -1.1104 12.1708 2.84698 9.43398
216 1 -1.1104 12.0341 -0.135534 12.2361
217 2 2.2208 10.87 -1.42039 7.94146
218 2 2.2208 10.7204 4.17343 7.98518
219 1 -1.1104 12.2905 -0.056826 9.26926
220 1 -1.1104 9.36001 -2.93815 12.1551
221 1 -1.1104 9.31974 2.78788 12.1
222 2 2.2208 8.05238 1.32917 8.00905
223 1 -1.1104 9.27232 -2.95118 9.35938
224 1 -1.1104 9.44254 2.65683 9.40322
225 2 2.2208 7.89394 -1.48891 10.7631
226 2 2.2208 7.89973 4.11042 10.8399
227 1 -1.1104 9.32491 -0.0336999 12.036
228 1 -1.1104 9.43279 -0.101861 9.32127
318 1 -1.1104 9.52889 19.8145 9.54998
327 1 -1.1104 12.147 19.518 9.42123
325 2 2.2208 10.7732 15.4855 7.96962
154 1 -1.1104 9.41706 13.9165 6.5167
240 2 2.2208 5.16869 6.94004 10.8241
241 2 2.2208 5.144 12.6039 10.6767
242 1 -1.1104 0.969643 8.22078 12.1087
244 1 -1.1104 0.914281 8.36002 9.32367
246 1 -1.1104 0.876385 5.45664 12.3186
247 1 -1.1104 1.08502 11.0851 12.0089
250 2 2.2208 5.14042 9.86106 7.9182
251 1 -1.1104 1.07369 5.61633 9.47636
252 1 -1.1104 1.0028 11.2285 9.38029
255 1 -1.1104 3.71151 8.26107 12.0901
256 2 2.2208 2.42347 6.99485 7.91158
257 2 2.2208 2.31434 12.641 7.98851
258 1 -1.1104 3.72954 8.29924 9.35305
259 2 2.2208 2.48478 9.85486 10.6344
260 1 -1.1104 3.74205 5.61237 12.2218
261 1 -1.1104 3.88542 11.1819 11.9759
262 1 -1.1104 3.81379 5.52618 9.41058
263 1 -1.1104 3.87375 11.2641 9.29726
248 1 -1.1104 6.43616 5.50952 12.2939
29 2 2.2208 -0.385712 6.75901 10.7627
329 1 -1.1104 12.3488 19.5447 12.2787
8436 2 2.2208 13.484 -4.41183 2.36277
229 2 2.2208 13.7672 1.35021 7.95705
237 1 -1.1104 6.86847 5.70566 6.53805
243 1 -1.1104 6.4977 8.37178 12.2803
65 1 -1.1104 6.75946 11.2176 6.56977
254 1 -1.1104 6.62326 11.1672 9.41872
245 1 -1.1104 6.53102 8.3381 9.35276
253 1 -1.1104 6.72121 5.55407 9.42283
163 1 -1.1104 9.34818 16.8574 6.65477
267 1 -1.1104 9.51995 8.36018 6.48892
266 1 -1.1104 12.109 5.57505 6.56075
249 1 -1.1104 6.54091 11.1522 12.3005
90 1 -1.1104 12.2336 11.1639 6.71911
264 1 -1.1104 9.37329 11.2596 9.52904
268 1 -1.1104 9.3389 5.58879 9.32759
270 1 -1.1104 9.42163 11.3217 12.2313
271 1 -1.1104 9.34439 5.60369 12.1266
272 2 2.2208 7.90427 9.84592 10.9493
273 1 -1.1104 9.39254 8.4523 9.36216
274 2 2.2208 8.04139 12.5033 8.05711
275 2 2.2208 8.09948 7.0602 8.04285
276 2 2.2208 10.8608 7.03332 10.718
277 2 2.2208 10.7763 12.6451 10.8838
278 1 -1.1104 12.2386 8.46234 12.1324
279 1 -1.1104 12.2368 8.4132 9.38801
280 1 -1.1104 12.1667 5.56589 12.1802
281 1 -1.1104 12.0757 11.1606 12.2166
282 2 2.2208 10.8412 9.75779 8.03483
283 1 -1.1104 12.3565 5.62281 9.46879
284 1 -1.1104 12.1534 11.2287 9.39013
285 1 -1.1104 9.50692 8.47442 12.1247
354 2 2.2208 7.9851 6.99637 13.5586
118 1 -1.1104 6.58519 16.612 6.59989
133 1 -1.1104 3.8201 16.993 6.73182
302 1 -1.1104 1.151 19.5767 6.57416
330 1 -1.1104 12.1259 14.1144 12.2508
288 1 -1.1104 6.55879 19.7827 9.39927
108 1 -1.1104 0.911011 14.0844 6.54499
289 1 -1.1104 6.62012 16.9131 9.45449
296 1 -1.1104 6.87957 19.5802 12.2967
297 1 -1.1104 6.50847 13.8985 12.1894
290 1 -1.1104 6.64493 14.0812 9.40367
310 2 2.2208 2.35741 15.5364 10.893
309 2 2.2208 2.49522 21.0366 10.8003
286 1 -1.1104 4.03354 19.6083 12.1474
300 2 2.2208 5.35058 18.2857 10.9159
299 1 -1.1104 0.882479 13.9777 12.2623
308 1 -1.1104 3.78376 16.8145 12.3879
298 1 -1.1104 1.03363 19.6116 12.2217
304 1 -1.1104 3.84204 16.808 9.42667
303 2 2.2208 2.3154 18.2462 8.06765
292 1 -1.1104 1.10851 16.8882 9.42714
295 2 2.2208 5.13736 15.4634 8.07679
307 1 -1.1104 0.949687 16.8411 12.3166
301 1 -1.1104 3.66026 19.5374 9.38943
291 1 -1.1104 0.886361 19.6141 9.35994
305 1 -1.1104 3.6613 13.9939 9.35066
287 1 -1.1104 3.70963 14.064 11.9962
294 1 -1.1104 0.91355 14.0561 9.44737
293 2 2.2208 5.24663 21.1174 8.02808
306 1 -1.1104 6.7448 16.6881 12.2444
316 2 2.2208 8.1003 20.9983 10.8987
230 2 2.2208 13.4646 -1.46906 10.828
346 2 2.2208 10.6267 -1.66408 13.5271
8446 2 2.2208 10.8456 -4.2792 -0.322958
355 2 2.2208 10.7153 9.80935 13.5993
353 2 2.2208 2.24292 12.5165 13.4336
359 2 2.2208 5.09379 15.3975 13.5771
357 2 2.2208 2.20772 18.1055 13.6401
358 2 2.2208 5.22325 20.9905 13.6661
361 2 2.2208 10.7067 15.5164 13.6277
337 2 2.2208 -0.537777 3.99054 13.7037
378 2 2.2208 13.6342 4.04955 -0.319498
339 2 2.2208 2.27065 1.28021 13.8099
366 2 2.2208 2.39511 4.07229 -0.304548
364 2 2.2208 5.24348 1.33048 -0.406795
345 2 2.2208 13.5028 21.0362 -0.381676
374 2 2.2208 5.15572 18.152 -0.424398
372 2 2.2208 7.9748 4.23373 -0.404192
386 2 2.2208 10.7706 12.5636 -0.33809
380 2 2.2208 2.33187 9.78047 -0.389155
379 2 2.2208 5.04673 6.94184 -0.380764
381 2 2.2208 5.2073 12.5906 -0.474921
362 2 2.2208 7.96304 18.0732 13.6544
385 2 2.2208 7.92954 9.69918 -0.533172
384 2 2.2208 10.7639 6.89856 -0.448414
373 2 2.2208 2.40804 15.4224 -0.417537
388 2 2.2208 5.18085 1.30015 16.5218
389 1 -1.1104 0.871701 -2.85723 17.9027
390 1 -1.1104 0.975008 2.60599 17.9964
393 1 -1.1104 0.934417 -2.86389 15.0801
395 1 -1.1104 0.798038 2.65342 15.0999
401 1 -1.1104 0.875736 -0.0811919 17.9046
403 2 2.2208 5.18148 -1.64738 19.3826
404 2 2.2208 5.05102 4.0813 19.2811
405 1 -1.1104 0.927008 -0.0959349 15.1421
409 1 -1.1104 3.63012 -2.9293 17.9828
410 1 -1.1104 3.69991 2.58846 17.9324
411 2 2.2208 2.36032 1.22545 19.3611
412 1 -1.1104 3.73353 -2.90712 14.9995
414 1 -1.1104 3.71784 2.61085 15.2174
416 2 2.2208 2.32398 -1.42006 16.6376
417 2 2.2208 2.2834 4.02885 16.4868
418 1 -1.1104 3.78054 -0.166196 17.9555
419 1 -1.1104 3.67282 -0.0326248 15.2087
392 1 -1.1104 6.63375 2.76184 17.7867
407 1 -1.1104 6.36579 -0.17378 15.0503
399 1 -1.1104 6.44174 2.72795 15.0939
402 1 -1.1104 6.45109 -0.0197334 17.9215
420 1 -1.1104 3.74336 -0.146668 20.755
415 1 -1.1104 3.72754 2.62201 20.7549
8553 2 2.2208 5.20193 -4.38699 22.0835
382 2 2.2208 -0.307204 12.4933 27.6247
394 1 -1.1104 0.974107 -2.92121 20.8583
347 2 2.2208 8.04421 15.3929 27.5897
8519 2 2.2208 2.39345 -4.30975 24.8562
397 1 -1.1104 6.36155 -2.89505 14.9701
391 1 -1.1104 6.47784 -2.8151 17.7263
431 2 2.2208 10.6567 1.19014 16.2423
432 1 -1.1104 12.0864 -2.99733 17.9175
433 1 -1.1104 12.2162 2.44304 17.6713
434 1 -1.1104 11.959 -2.95513 15.0329
436 1 -1.1104 12.0059 2.81397 14.8718
438 1 -1.1104 12.1217 -0.10763 17.8911
439 2 2.2208 10.5756 -1.51105 19.2217
440 2 2.2208 10.7652 4.09694 19.1691
441 1 -1.1104 11.9425 -0.218444 14.9079
443 1 -1.1104 9.23567 -2.94925 17.7602
444 1 -1.1104 9.44688 2.67388 17.7695
445 2 2.2208 7.81173 1.31051 19.1979
446 1 -1.1104 9.19014 -2.82513 14.9355
448 1 -1.1104 9.25165 2.67729 14.9431
450 2 2.2208 7.76977 -1.56652 16.282
451 2 2.2208 7.86235 4.14715 16.385
452 1 -1.1104 9.19129 -0.0888401 17.6794
453 1 -1.1104 9.22321 -0.141587 14.835
459 2 2.2208 13.4867 -1.50661 16.5451
8584 2 2.2208 10.7153 -4.27971 16.4363
8516 2 2.2208 7.91707 -4.33806 24.8619
8556 2 2.2208 8.00743 -4.38037 19.2463
437 1 -1.1104 12.2645 2.71872 20.4762
442 1 -1.1104 12.1208 -0.0385604 20.6036
449 1 -1.1104 9.4497 2.55787 20.6326
454 1 -1.1104 9.37519 -0.136091 20.6173
461 2 2.2208 13.6548 20.9547 22.0552
8622 2 2.2208 5.06683 -4.30809 16.3562
464 2 2.2208 5.16241 6.91994 16.4643
465 2 2.2208 5.07954 12.5703 16.2647
466 1 -1.1104 1.0422 8.35644 17.6444
468 1 -1.1104 0.966388 8.29224 14.8782
472 1 -1.1104 0.899506 5.51783 17.7573
473 1 -1.1104 0.99994 11.0983 17.7662
476 2 2.2208 5.11474 9.7901 19.2758
477 1 -1.1104 1.00352 5.47764 15.0294
479 1 -1.1104 0.770349 11.1704 14.9083
485 1 -1.1104 3.75681 8.16092 18.059
486 2 2.2208 2.29707 6.80478 19.3538
487 2 2.2208 2.35976 12.6365 19.1753
488 1 -1.1104 3.7174 8.37151 15.0683
490 2 2.2208 2.33827 9.67141 16.3526
491 1 -1.1104 3.63134 5.3663 17.9643
492 1 -1.1104 3.70452 11.0753 17.8083
493 1 -1.1104 3.98353 5.49169 15.1195
495 1 -1.1104 3.55397 11.1845 14.9313
470 1 -1.1104 6.58027 8.39635 14.8717
481 1 -1.1104 6.64764 5.54918 14.9755
475 1 -1.1104 6.33401 11.0205 17.9196
483 1 -1.1104 6.39942 11.1671 15.0949
482 1 -1.1104 6.45239 5.50985 20.6056
489 1 -1.1104 3.68361 8.43768 20.713
469 1 -1.1104 0.943345 8.17168 20.4664
494 1 -1.1104 3.66815 5.49542 20.7288
478 1 -1.1104 0.953744 5.41339 20.4882
480 1 -1.1104 1.15062 10.912 20.5739
496 1 -1.1104 3.85243 11.2474 20.7013
560 1 -1.1104 12.2171 16.8571 26.2653
498 1 -1.1104 12.2035 14.1205 26.2872
8518 2 2.2208 13.5586 -4.4076 25.0096
474 1 -1.1104 6.56169 5.63432 17.8707
471 1 -1.1104 6.60491 8.36798 20.6418
467 1 -1.1104 6.51695 8.41018 17.6915
500 2 2.2208 10.8687 6.89276 16.441
501 2 2.2208 10.6243 12.6187 16.3322
502 1 -1.1104 12.0647 8.23328 17.8449
503 1 -1.1104 12.1589 8.27232 15.0633
505 1 -1.1104 12.0963 5.42134 17.8544
506 1 -1.1104 11.9272 11.0304 17.8309
507 2 2.2208 10.6938 9.73607 19.2105
508 1 -1.1104 12.3117 5.52135 15.006
510 1 -1.1104 12.0803 11.1631 15.0731
512 1 -1.1104 9.30381 8.40158 17.7935
513 2 2.2208 7.91556 7.00871 19.2566
514 2 2.2208 7.86048 12.4949 19.2629
515 1 -1.1104 9.41141 8.35012 14.911
517 2 2.2208 7.86271 9.73757 16.309
518 1 -1.1104 9.23766 5.4589 17.7261
519 1 -1.1104 9.1396 11.1399 17.7766
520 1 -1.1104 9.45987 5.55678 14.9791
522 1 -1.1104 9.1818 11.1349 14.9597
521 1 -1.1104 9.24699 5.44609 20.5816
516 1 -1.1104 9.42912 8.25064 20.6633
504 1 -1.1104 12.2836 8.28772 20.5243
509 1 -1.1104 12.0536 5.46675 20.6847
8586 2 2.2208 2.3697 -4.41083 19.3282
586 1 -1.1104 9.41264 16.6962 20.499
527 2 2.2208 5.04369 17.9909 16.3709
528 1 -1.1104 0.863861 13.991 17.8474
529 1 -1.1104 0.941293 19.5053 17.6882
532 1 -1.1104 0.87877 13.8905 15.1014
534 1 -1.1104 0.858075 19.5576 15.0172
540 1 -1.1104 1.10188 16.7588 17.8263
542 2 2.2208 5.11322 15.2302 19.2106
543 2 2.2208 5.23832 21.1221 19.2225
544 1 -1.1104 0.8317 16.6826 15.0991
548 1 -1.1104 3.64507 13.9399 17.6141
549 1 -1.1104 3.70719 19.6166 17.7028
550 2 2.2208 2.48418 18.2223 19.2244
551 1 -1.1104 3.76061 13.8334 14.6923
553 1 -1.1104 3.71654 19.702 14.9564
555 2 2.2208 2.32307 15.3284 16.398
556 2 2.2208 2.3379 21.0625 16.4613
557 1 -1.1104 3.68658 16.7338 17.8482
558 1 -1.1104 3.60419 16.6632 15.0154
535 1 -1.1104 1.17229 19.576 20.4977
545 1 -1.1104 0.884502 16.6904 20.807
530 1 -1.1104 6.52213 13.9891 17.7766
546 1 -1.1104 6.52675 16.5966 15.0077
541 1 -1.1104 6.74246 16.696 17.8413
539 1 -1.1104 6.61184 19.5021 20.6414
559 1 -1.1104 3.82725 16.7448 20.5919
552 1 -1.1104 3.75225 13.9826 20.5191
8517 2 2.2208 10.7 -4.3385 21.9711
685 2 2.2208 -0.307463 12.5465 21.9851
625 2 2.2208 -0.429651 1.40907 22.1179
590 1 -1.1104 9.39992 19.4915 26.434
460 2 2.2208 13.6212 21.0989 16.5806
618 2 2.2208 13.6508 18.0842 19.059
536 1 -1.1104 6.52314 13.9686 14.9666
531 1 -1.1104 6.43213 19.5083 17.7271
538 1 -1.1104 6.48289 19.4008 15.129
563 2 2.2208 10.8174 18.1571 16.3361
564 1 -1.1104 12.2238 13.8212 17.57
565 1 -1.1104 12.2267 19.4641 17.7421
566 1 -1.1104 12.0755 14.1234 14.9115
568 1 -1.1104 12.3103 19.7922 15.0719
570 1 -1.1104 12.2345 16.7731 17.7704
571 2 2.2208 10.7833 15.3286 19.0245
572 2 2.2208 10.8293 20.7767 19.1464
573 1 -1.1104 12.3063 16.9324 14.9185
575 1 -1.1104 9.31827 13.9827 17.8431
576 1 -1.1104 9.33665 19.6335 17.6758
577 2 2.2208 7.91453 18.0987 19.1267
578 1 -1.1104 9.18782 14.0941 14.9947
580 1 -1.1104 9.37932 19.6133 14.9371
582 2 2.2208 7.93871 15.2974 16.3795
583 2 2.2208 7.89816 20.958 16.4511
584 1 -1.1104 9.42252 16.7929 17.7885
585 1 -1.1104 9.33384 16.7759 15.0762
619 2 2.2208 13.6769 15.2901 16.2782
567 1 -1.1104 12.2797 14.0075 20.462
377 2 2.2208 13.5278 -1.56267 27.7095
406 1 -1.1104 0.983909 -0.138606 20.641
684 2 2.2208 -0.369175 9.76076 24.6642
400 1 -1.1104 6.45715 2.77319 20.6818
408 1 -1.1104 6.59556 -0.167211 20.6528
398 1 -1.1104 6.61071 -3.03948 20.6989
396 1 -1.1104 0.95167 2.67157 20.779
413 1 -1.1104 3.80031 -2.94788 20.8842
591 2 2.2208 5.19687 1.36262 22.1681
592 1 -1.1104 0.889254 -2.8363 23.6813
593 1 -1.1104 0.851083 2.68818 23.596
596 1 -1.1104 1.13971 -2.82942 26.2156
597 1 -1.1104 0.951014 2.72407 26.2433
600 1 -1.1104 0.926864 -0.19389 23.4538
602 2 2.2208 5.17471 -1.49026 24.7899
603 2 2.2208 5.05542 4.07584 24.8838
604 1 -1.1104 0.99246 0.0365638 26.3218
606 1 -1.1104 3.82586 -2.84062 23.6095
607 1 -1.1104 3.65013 2.61352 23.437
608 2 2.2208 2.35313 1.24088 24.9155
609 1 -1.1104 3.92674 -3.0647 26.2717
610 1 -1.1104 3.72706 2.63702 26.2755
611 2 2.2208 2.36287 -1.43764 22.2025
612 2 2.2208 2.21737 4.08703 22.0972
613 1 -1.1104 3.74339 -0.0940383 23.5761
614 1 -1.1104 3.83324 -0.236564 26.3581
594 1 -1.1104 6.54891 -3.0149 23.5211
605 1 -1.1104 6.60627 0.0608116 26.1347
424 2 2.2208 -0.446256 1.16374 16.4858
710 2 2.2208 13.5712 6.87932 24.9017
429 2 2.2208 13.5318 4.21316 16.3655
651 2 2.2208 13.5301 6.89553 19.2623
421 2 2.2208 -0.42277 6.80885 21.9221
708 2 2.2208 13.5675 12.5849 24.8524
598 1 -1.1104 6.60917 -2.81963 26.27
601 1 -1.1104 6.55091 -0.18518 23.4009
595 1 -1.1104 6.56439 2.64614 23.4239
599 1 -1.1104 6.58743 2.69161 26.2843
447 1 -1.1104 9.33528 -2.92678 20.6802
435 1 -1.1104 12.2278 -2.88535 20.831
627 2 2.2208 10.6882 1.32982 21.9926
628 1 -1.1104 12.2094 -2.90902 23.5196
629 1 -1.1104 12.2484 2.72227 23.2772
630 1 -1.1104 12.2042 -2.8524 26.3373
631 1 -1.1104 12.0124 2.72966 26.0835
632 1 -1.1104 12.0921 0.0047975 23.4258
633 2 2.2208 10.7189 -1.53493 24.8562
634 2 2.2208 10.7122 3.98453 24.9763
635 1 -1.1104 12.282 -0.103932 26.1943
636 1 -1.1104 9.29567 -2.80173 23.3893
637 1 -1.1104 9.37738 2.70758 23.481
638 2 2.2208 7.90966 1.28344 24.85
639 1 -1.1104 9.47738 -2.8516 26.2808
640 1 -1.1104 9.23875 2.73159 26.3094
641 2 2.2208 8.00268 -1.53466 22.0284
642 2 2.2208 7.98196 4.00378 22.0766
643 1 -1.1104 9.14089 -0.112729 23.4573
644 1 -1.1104 9.377 -0.107559 26.135
653 2 2.2208 13.5712 -1.43271 21.9542
376 2 2.2208 13.5064 12.5754 13.67
8554 2 2.2208 -0.385167 -4.33441 22.0905
425 2 2.2208 -0.543903 -1.4961 19.2516
8585 2 2.2208 13.5987 -4.23056 19.3878
484 1 -1.1104 6.6131 11.0478 20.5915
579 1 -1.1104 9.47092 13.9999 20.6476
656 2 2.2208 5.25735 6.96924 22.1302
657 2 2.2208 5.15802 12.6821 22.0596
658 1 -1.1104 0.904694 8.36865 23.2479
660 1 -1.1104 0.987323 8.24502 26.16
662 1 -1.1104 0.919242 5.56601 23.4715
663 1 -1.1104 1.11955 11.2723 23.3512
666 2 2.2208 4.99374 9.84895 24.886
667 1 -1.1104 0.998687 5.40436 26.2463
668 1 -1.1104 1.1412 11.0938 26.278
671 1 -1.1104 3.70052 8.40791 23.5813
672 2 2.2208 2.32311 6.91867 24.801
673 2 2.2208 2.36007 12.6386 24.8265
674 1 -1.1104 3.75122 8.38647 26.3616
675 2 2.2208 2.47773 9.87639 21.9972
676 1 -1.1104 3.69725 5.38271 23.5747
677 1 -1.1104 3.81847 11.178 23.3952
678 1 -1.1104 3.71573 5.44568 26.4569
679 1 -1.1104 3.89191 11.2354 26.2759
659 1 -1.1104 6.49064 8.34202 23.502
664 1 -1.1104 6.6209 5.49351 23.452
665 1 -1.1104 6.54401 11.2186 23.3942
661 1 -1.1104 6.41365 8.16869 26.3146
670 1 -1.1104 6.57194 11.231 26.2406
620 1 -1.1104 9.38998 16.8031 26.2524
561 1 -1.1104 9.31082 14.0259 23.4102
370 2 2.2208 7.98094 -1.57036 27.6095
525 2 2.2208 10.6788 15.449 24.8078
523 1 -1.1104 9.41638 11.2385 20.7273
588 1 -1.1104 6.46646 19.7847 26.3138
709 1 -1.1104 6.57406 14.0769 23.3046
669 1 -1.1104 6.57995 5.52401 26.3323
511 1 -1.1104 12.1415 11.0577 20.6201
687 1 -1.1104 9.52751 11.2112 26.3632
688 1 -1.1104 9.32298 5.57879 26.1583
689 1 -1.1104 9.40674 11.1827 23.5463
690 1 -1.1104 9.43262 5.42111 23.4883
691 2 2.2208 8.04047 9.7704 22.016
692 1 -1.1104 9.38293 8.38045 26.275
693 2 2.2208 7.95672 12.7481 24.6052
694 2 2.2208 7.96401 6.84911 24.8719
695 2 2.2208 10.7453 6.78136 22.0333
696 2 2.2208 10.8228 12.5771 21.9639
697 1 -1.1104 12.2191 8.34736 23.3562
698 1 -1.1104 12.2916 8.37295 26.1522
699 1 -1.1104 12.2181 5.56178 23.4854
700 1 -1.1104 12.288 11.3077 23.5017
701 2 2.2208 10.8685 9.82176 24.9305
702 1 -1.1104 12.0529 5.5273 26.2546
703 1 -1.1104 12.199 11.3025 26.3132
704 1 -1.1104 9.37235 8.25902 23.3865
547 1 -1.1104 6.51862 16.7094 20.5652
587 2 2.2208 8.00336 18.3214 24.9223
554 1 -1.1104 3.97301 19.5897 20.5322
533 1 -1.1104 0.936264 13.928 20.5234
647 2 2.2208 2.38768 15.3127 21.9641
649 2 2.2208 2.32346 21.0553 22.0113
652 1 -1.1104 3.61041 16.7244 23.373
655 1 -1.1104 0.917587 16.7745 23.6191
681 1 -1.1104 3.8372 14.1552 26.1179
682 1 -1.1104 3.83164 16.9091 26.0794
683 2 2.2208 2.29414 18.1477 24.8353
686 1 -1.1104 3.71473 19.6513 26.1677
705 2 2.2208 5.2119 18.2899 22.0481
706 1 -1.1104 0.90497 13.9024 23.3736
707 1 -1.1104 0.802199 19.6072 23.3819
711 1 -1.1104 3.67756 19.6524 23.313
713 1 -1.1104 3.74435 13.9999 23.4399
715 1 -1.1104 1.10354 19.5005 26.2602
716 1 -1.1104 0.858835 16.7965 26.4052
717 1 -1.1104 1.00037 14.068 26.3163
719 2 2.2208 5.11465 21.1184 24.8906
720 2 2.2208 5.18631 15.5264 24.7393
537 1 -1.1104 6.54982 13.8817 20.5904
714 1 -1.1104 6.56936 16.8458 26.2629
622 2 2.2208 -0.453361 9.81833 19.1616
430 2 2.2208 13.4889 15.3446 21.877
562 1 -1.1104 9.18463 19.634 23.4145
589 1 -1.1104 9.30173 13.9527 26.1749
574 1 -1.1104 12.2544 16.7479 20.4931
569 1 -1.1104 12.17 19.512 20.5604
581 1 -1.1104 9.28 19.4286 20.5974
621 2 2.2208 -0.48918 6.87763 16.4309
615 2 2.2208 8.00596 15.4959 22.006
463 1 -1.1104 12.127 14.0676 23.4053
680 1 -1.1104 6.54137 16.8946 23.3836
718 1 -1.1104 6.45527 19.6907 23.461
462 2 2.2208 10.8625 18.1531 21.9279
617 1 -1.1104 9.36785 16.9545 23.3303
497 1 -1.1104 12.1438 19.5569 23.3548
616 2 2.2208 7.97686 20.8658 21.9252
499 1 -1.1104 12.154 19.7239 26.2535
524 1 -1.1104 12.2127 16.7602 23.3655
526 2 2.2208 10.6947 20.9281 24.9431
712 1 -1.1104 6.60833 14.1192 26.1288
360 2 2.2208 10.7635 20.9833 13.7009
369 2 2.2208 10.6726 1.34061 27.6648
8458 2 2.2208 2.31743 -4.23989 13.6896
8450 2 2.2208 5.13263 -4.34844 27.6701
356 2 2.2208 7.87946 12.6294 13.5909
348 2 2.2208 10.9051 18.081 27.6887
338 2 2.2208 5.05254 -1.46287 13.6359
349 2 2.2208 8.00399 20.8911 27.8043
344 2 2.2208 13.6725 15.3573 27.6881
387 2 2.2208 13.5572 9.77715 27.658
350 2 2.2208 10.6591 4.08056 13.6402
352 2 2.2208 4.97842 9.68346 13.6114
351 2 2.2208 2.22264 6.89301 13.5122
721 2 2.2208 5.1424 23.9957 5.15071
722 2 2.2208 5.20894 29.4286 5.26727
723 1 -1.1104 0.941727 25.2152 1.01331
724 1 -1.1104 0.971467 25.104 3.98225
725 1 -1.1104 0.963312 22.5088 0.992874
726 1 -1.1104 0.959078 28.1717 1.01894
727 2 2.2208 5.11661 26.7551 2.46381
728 1 -1.1104 0.916144 22.3948 3.82267
729 1 -1.1104 0.903753 28.0009 3.82094
730 1 -1.1104 3.67249 25.3259 0.997715
731 2 2.2208 2.24675 23.8516 2.44718
732 2 2.2208 2.38835 29.4073 2.45188
733 1 -1.1104 3.77329 25.3164 3.7967
734 2 2.2208 2.3254 26.5865 5.19488
735 1 -1.1104 3.65327 22.4067 1.06366
736 1 -1.1104 3.7644 28.0658 1.07567
737 1 -1.1104 3.86723 22.5055 3.74876
738 1 -1.1104 3.63638 27.9963 3.81376
1687 1 -1.1104 9.45739 47.555 12.3727
865 1 -1.1104 1.0171 28.0096 6.65728
745 1 -1.1104 6.66001 27.9625 1.29956
1023 1 -1.1104 12.0429 39.2699 9.35626
744 1 -1.1104 6.68111 22.4487 1.1424
747 1 -1.1104 6.53197 28.0808 4.02262
742 1 -1.1104 6.48172 25.2758 1.02469
866 1 -1.1104 6.62455 22.4435 6.65624
814 2 2.2208 13.5829 34.9994 2.57781
792 2 2.2208 -0.432858 34.9797 5.2776
1647 1 -1.1104 6.59386 47.493 9.42846
743 1 -1.1104 6.57142 25.3546 3.78496
746 1 -1.1104 6.44928 22.4127 3.98764
748 2 2.2208 10.8814 23.8193 5.33704
749 2 2.2208 10.7598 29.5041 5.25144
750 1 -1.1104 12.2353 25.1026 0.963545
751 1 -1.1104 12.1689 25.1485 3.89331
752 1 -1.1104 12.1358 22.2992 1.10127
753 1 -1.1104 12.2426 27.9782 0.960143
754 2 2.2208 10.8744 26.5292 2.39369
755 1 -1.1104 12.2828 22.5032 3.91787
756 1 -1.1104 12.251 27.9472 3.78123
757 1 -1.1104 9.2346 25.29 1.1726
758 2 2.2208 7.89411 23.9078 2.50637
759 2 2.2208 8.10096 29.4433 2.5076
760 1 -1.1104 9.40738 25.0774 3.90726
761 2 2.2208 8.02224 26.5603 5.18224
762 1 -1.1104 9.38327 22.4005 1.0256
763 1 -1.1104 9.38466 28.1018 1.18149
764 1 -1.1104 9.39962 22.3803 3.91188
765 1 -1.1104 9.52282 27.873 3.76276
897 1 -1.1104 12.1445 27.9834 6.63009
896 1 -1.1104 12.3561 22.2893 6.76875
1043 2 2.2208 13.4975 23.8573 8.12785
840 2 2.2208 -0.327472 46.1787 5.39868
1047 2 2.2208 13.707 34.9666 8.00883
767 2 2.2208 13.5153 29.4674 2.32046
769 2 2.2208 5.25722 35.0005 5.34071
770 1 -1.1104 0.999368 30.8048 1.11425
771 1 -1.1104 0.994723 36.3048 1.22438
773 1 -1.1104 1.06119 30.8045 3.87664
774 1 -1.1104 0.954897 36.4049 4.09696
776 1 -1.1104 0.738314 33.5453 1.06935
777 2 2.2208 5.21015 32.2947 2.36986
778 2 2.2208 5.29377 37.9477 2.45422
779 1 -1.1104 1.06144 33.5952 3.95203
781 1 -1.1104 3.82857 30.9076 1.05035
782 1 -1.1104 3.7411 36.5219 1.12286
783 2 2.2208 2.46363 35.0366 2.61327
784 1 -1.1104 3.99429 30.7145 3.85858
785 1 -1.1104 3.78018 36.3907 3.82925
786 2 2.2208 2.46735 32.1895 5.26371
787 2 2.2208 2.45305 37.7405 5.27889
788 1 -1.1104 3.853 33.7268 1.03899
789 1 -1.1104 3.91291 33.545 3.87409
925 1 -1.1104 3.76842 30.7575 6.74452
780 1 -1.1104 6.63741 33.7085 3.82874
793 1 -1.1104 6.67949 30.7282 1.0328
794 1 -1.1104 6.63755 30.8615 3.76567
795 1 -1.1104 6.65116 33.739 1.17615
921 1 -1.1104 6.62957 30.8457 6.63685
981 1 -1.1104 6.62734 44.6999 9.39077
927 1 -1.1104 3.85918 33.4801 6.69634
919 1 -1.1104 0.974285 30.8033 6.66723
923 1 -1.1104 0.945762 33.5407 6.70809
920 1 -1.1104 1.09368 36.2462 6.7695
924 1 -1.1104 6.48715 33.5814 6.71829
1038 2 2.2208 13.6608 37.7871 5.25977
775 1 -1.1104 6.57401 36.4077 3.95454
772 1 -1.1104 6.58113 36.6697 1.0103
796 2 2.2208 10.8467 35.1027 5.31656
797 1 -1.1104 12.218 30.7989 1.03731
798 1 -1.1104 12.336 36.4437 1.00337
799 1 -1.1104 12.212 30.8067 3.76991
800 1 -1.1104 12.2334 36.4494 3.8034
801 1 -1.1104 12.2312 33.5302 0.995331
802 2 2.2208 10.8255 32.3264 2.4161
803 2 2.2208 10.8542 37.8394 2.38643