ITEM: TIMESTEP
40000
ITEM: NUMBER OF ATOMS
17910
ITEM: BOX BOUNDS pp pp pp
-3.6144626452457507e-01 2.7701446264525053e+01
-4.2417882368993105e+00 3.3232178823690043e+02
-3.5608997734310621e-01 2.7696089977342716e+01
ITEM: ATOMS id type q x y z
1 2 2.2208 5.15312 1.30024 5.35708
2 1 -1.1104 1.17128 -2.84266 1.00645
3 1 -1.1104 1.13849 2.88697 0.910966
6 1 -1.1104 1.20054 -2.75198 3.87476
7 1 -1.1104 0.944334 2.70837 3.78767
10 1 -1.1104 0.987412 0.0828594 0.931261
12 2 2.2208 5.19861 -1.37912 2.42246
14 1 -1.1104 1.14676 -0.158615 3.87404
16 1 -1.1104 3.98477 -2.87237 1.01702
17 1 -1.1104 3.87623 2.79686 0.957611
18 2 2.2208 2.47112 1.38179 2.42503
19 1 -1.1104 3.94855 -2.90452 3.8725
20 1 -1.1104 3.66679 2.80367 3.91976
21 2 2.2208 2.50372 -1.39381 5.38703
22 2 2.2208 2.39986 4.179 5.32896
23 1 -1.1104 3.78566 0.107363 0.918063
24 1 -1.1104 3.8156 -0.0852298 3.96885
13 2 2.2208 5.30087 4.21004 2.46254
15 1 -1.1104 6.65926 -0.0679622 3.9167
5 1 -1.1104 6.81586 2.84133 0.858536
8 1 -1.1104 6.6273 -2.74382 4.05771
4 1 -1.1104 6.81549 -2.6143 1.17606
11 1 -1.1104 6.55946 0.0354729 1.17932
174 1 -1.1104 3.86364 -0.0548597 6.72379
169 1 -1.1104 6.69158 2.57303 6.55964
172 1 -1.1104 3.92191 -2.83899 6.75964
9 1 -1.1104 6.73344 2.8239 3.64079
8439 2 2.2208 -0.284993 -4.30674 10.8386
384 2 2.2208 10.7738 6.95416 -0.468686
375 2 2.2208 2.47789 21.0154 -0.233351
311 2 2.2208 -0.293563 20.992 8.15394
8431 2 2.2208 2.60584 -4.21654 2.39153
51 2 2.2208 -0.34334 12.5371 10.7201
321 1 -1.1104 9.62823 19.7499 12.3234
323 1 -1.1104 12.3198 16.7975 9.64231
329 1 -1.1104 12.4079 19.4189 12.2355
314 1 -1.1104 9.51322 16.9065 9.62072
313 2 2.2208 -0.34003 15.4497 8.1373
347 2 2.2208 8.10658 15.3683 -0.328246
31 2 2.2208 10.9148 1.3438 5.37815
32 1 -1.1104 12.5562 -2.74768 1.18285
33 1 -1.1104 12.4125 2.74444 1.07629
34 1 -1.1104 12.2902 -2.78155 3.88057
35 1 -1.1104 12.1352 2.9432 4.02123
36 1 -1.1104 12.3549 0.0602577 0.997414
37 2 2.2208 11.0476 -1.3148 2.50965
38 2 2.2208 10.9071 4.18937 2.28543
39 1 -1.1104 12.3071 0.227464 3.79642
40 1 -1.1104 9.63759 -2.89451 0.863268
41 1 -1.1104 9.56689 2.76324 0.974858
42 2 2.2208 8.08102 1.36918 2.38573
43 1 -1.1104 9.47771 -2.63514 3.68999
44 1 -1.1104 9.45211 2.73525 3.87537
45 2 2.2208 8.04673 -1.35988 5.32741
46 2 2.2208 8.17609 4.07545 5.21974
47 1 -1.1104 9.4866 -0.0129236 1.05696
48 1 -1.1104 9.36493 0.0684496 4.15252
208 1 -1.1104 9.4078 -2.79067 6.6919
205 1 -1.1104 12.2035 -2.8433 6.61887
348 2 2.2208 10.8097 18.2815 -0.333643
374 2 2.2208 5.17511 18.2577 -0.374325
8435 2 2.2208 10.7806 -4.19804 5.20341
320 2 2.2208 8.1745 18.1171 8.18577
209 1 -1.1104 9.51405 2.74911 6.68833
207 1 -1.1104 12.2587 -0.00085244 6.57691
341 2 2.2208 5.31538 4.06021 13.7925
54 2 2.2208 5.33188 7.04163 5.19309
55 2 2.2208 5.25992 12.589 5.18741
56 1 -1.1104 1.04325 8.34093 1.04942
58 1 -1.1104 1.00321 8.45992 3.67197
60 1 -1.1104 1.05427 5.59763 0.96891
61 1 -1.1104 1.18726 11.169 1.07619
66 2 2.2208 5.38092 9.84576 2.37347
67 1 -1.1104 1.01493 5.73232 3.867
68 1 -1.1104 0.938155 11.3257 3.87191
71 1 -1.1104 3.83345 8.4701 1.11453
72 2 2.2208 2.4385 6.9945 2.48588
73 2 2.2208 2.42578 12.6027 2.47406
74 1 -1.1104 3.85592 8.48933 3.89729
75 2 2.2208 2.36961 9.72998 5.1257
76 1 -1.1104 3.85165 5.77352 0.953184
77 1 -1.1104 3.87797 11.3087 1.06406
79 1 -1.1104 3.85956 5.70151 3.84395
80 1 -1.1104 3.75344 11.1926 3.8007
69 1 -1.1104 6.67076 5.57051 3.76371
64 1 -1.1104 6.72546 11.3127 0.945617
238 1 -1.1104 3.76209 8.34578 6.62445
234 1 -1.1104 0.867843 8.2782 6.62115
70 1 -1.1104 6.65687 11.1347 3.7257
59 1 -1.1104 6.70916 8.32597 3.76719
62 1 -1.1104 1.14021 11.1568 6.58363
239 1 -1.1104 3.95819 5.54912 6.62776
78 1 -1.1104 3.83877 11.1587 6.64544
379 2 2.2208 5.31488 6.99581 -0.425318
57 1 -1.1104 6.68726 8.50387 1.0756
63 1 -1.1104 6.66589 5.64029 0.891237
84 2 2.2208 10.8491 6.94806 5.24108
85 2 2.2208 10.6971 12.6765 5.15483
86 1 -1.1104 12.1926 8.41623 0.981382
87 1 -1.1104 12.2553 8.38589 3.76149
88 1 -1.1104 12.3619 5.56277 0.972113
89 1 -1.1104 12.424 11.0958 1.06148
91 2 2.2208 10.8187 9.7182 2.4058
92 1 -1.1104 12.2163 5.54998 3.78841
93 1 -1.1104 12.3393 11.2442 3.84256
94 1 -1.1104 9.36357 8.29727 1.0902
95 2 2.2208 8.098 6.90215 2.37722
96 2 2.2208 7.97191 12.6992 2.40339
97 1 -1.1104 9.41201 8.36445 3.92473
98 2 2.2208 8.00983 9.71511 5.27029
99 1 -1.1104 9.48414 5.4582 0.960426
100 1 -1.1104 9.59708 11.1449 1.09987
102 1 -1.1104 9.55719 5.56719 3.6322
103 1 -1.1104 9.41287 11.2869 3.80437
339 2 2.2208 2.48548 1.29303 13.7635
330 1 -1.1104 12.3061 13.9806 12.2003
267 1 -1.1104 9.44141 8.27318 6.59469
101 1 -1.1104 9.46714 11.1797 6.58029
82 2 2.2208 -0.377414 9.83852 2.33583
104 2 2.2208 13.622 12.6214 2.51285
266 1 -1.1104 12.3035 5.54122 6.6936
265 1 -1.1104 12.2168 8.56163 6.60614
90 1 -1.1104 12.1749 11.5076 6.71216
354 2 2.2208 8.1294 6.97655 13.7068
106 2 2.2208 5.30478 18.309 5.27302
107 1 -1.1104 1.06166 13.9674 1.27647
109 1 -1.1104 1.00501 19.5723 1.00866
113 1 -1.1104 1.06301 14.1451 3.91358
114 1 -1.1104 1.06572 19.7436 3.88124
116 1 -1.1104 1.09365 16.7525 1.2817
119 2 2.2208 5.10722 15.495 2.42726
120 2 2.2208 5.27148 21.0333 2.54335
121 1 -1.1104 1.0881 16.9205 4.00823
123 1 -1.1104 3.83213 14.1182 1.10962
125 1 -1.1104 3.83032 19.7115 1.05163
127 2 2.2208 2.35934 18.3129 2.50869
128 1 -1.1104 3.93632 14.1511 4.02588
129 1 -1.1104 3.85299 19.6927 3.85865
130 2 2.2208 2.54826 15.4928 5.3104
131 2 2.2208 2.47764 21.0707 5.28923
132 1 -1.1104 3.86499 16.9674 1.05654
134 1 -1.1104 3.88172 16.9809 3.84668
110 1 -1.1104 6.67597 13.9938 1.12912
115 1 -1.1104 6.52549 14.2112 3.89869
122 1 -1.1104 6.61222 16.9468 3.93822
140 1 -1.1104 6.74224 16.7858 1.08341
139 1 -1.1104 6.79709 19.7593 3.87098
138 1 -1.1104 6.46772 19.5569 1.22006
118 1 -1.1104 6.70133 16.7511 6.70047
124 1 -1.1104 3.82864 13.9971 6.62574
126 1 -1.1104 3.95608 19.6165 6.72951
368 2 2.2208 -0.434398 1.50756 -0.445363
328 1 -1.1104 12.3523 13.9753 9.50745
380 2 2.2208 2.46975 9.76243 -0.399399
165 2 2.2208 13.6465 18.2722 2.56679
141 2 2.2208 10.8843 18.263 5.25884
142 1 -1.1104 12.254 14.0434 1.15907
144 1 -1.1104 12.3742 19.6103 1.14862
146 1 -1.1104 12.1629 14.0231 3.88231
147 1 -1.1104 12.2354 19.5575 3.931
148 1 -1.1104 12.0784 16.8615 1.17333
150 2 2.2208 10.8782 15.3972 2.59595
151 2 2.2208 10.8694 21.022 2.45175
152 1 -1.1104 12.3163 16.8003 3.87402
153 1 -1.1104 9.44827 14.0827 1.13906
155 1 -1.1104 9.37566 19.6148 1.07338
157 2 2.2208 8.03339 18.2771 2.35369
158 1 -1.1104 9.35417 14.0584 3.83185
159 1 -1.1104 9.49774 19.7104 3.85597
160 2 2.2208 8.0745 15.5229 5.20687
161 2 2.2208 8.0802 20.9928 5.34426
162 1 -1.1104 9.41909 16.9255 1.28151
164 1 -1.1104 9.40254 16.8616 3.92137
317 2 2.2208 8.13135 15.3974 11.0295
145 1 -1.1104 12.1534 19.7275 6.67174
154 1 -1.1104 9.43705 13.974 6.69895
163 1 -1.1104 9.55723 16.7275 6.77133
349 2 2.2208 8.11347 20.9779 -0.437697
326 1 -1.1104 12.5326 16.6655 12.3143
167 1 -1.1104 0.992246 2.66288 6.68018
173 1 -1.1104 3.73011 2.68567 6.72827
170 1 -1.1104 1.0468 -0.0294226 6.75081
166 1 -1.1104 1.1798 -2.92069 6.65894
8438 2 2.2208 5.42441 -4.37691 10.8212
8437 2 2.2208 2.45676 -4.29855 8.03492
319 1 -1.1104 9.53531 14.1319 9.51234
171 1 -1.1104 6.5709 0.0597474 6.70425
175 2 2.2208 5.20065 1.3622 10.7935
176 1 -1.1104 1.01831 -2.88825 12.1782
177 1 -1.1104 0.982085 2.91514 12.4482
180 1 -1.1104 1.09732 -2.89454 9.49065
181 1 -1.1104 0.988856 2.74419 9.51631
184 1 -1.1104 1.04924 -0.0837901 12.1901
186 2 2.2208 5.29665 -1.48112 8.08908
188 1 -1.1104 1.01446 -0.0167446 9.50847
190 1 -1.1104 4.02123 -2.85873 12.3557
191 1 -1.1104 3.96998 2.75363 12.3247
192 2 2.2208 2.39691 1.43649 8.06465
193 1 -1.1104 4.03419 -2.95384 9.52285
194 1 -1.1104 3.83418 2.86772 9.4714
195 2 2.2208 2.48557 -1.50436 10.9158
196 2 2.2208 2.49518 4.10412 10.8782
197 1 -1.1104 3.73576 -0.170572 12.356
198 1 -1.1104 3.67657 -0.0289596 9.61524
187 2 2.2208 5.27852 4.09534 8.08715
189 1 -1.1104 6.49452 0.0247098 9.57183
183 1 -1.1104 6.60362 2.68208 9.31882
185 1 -1.1104 6.58852 -0.00490593 12.3652
178 1 -1.1104 6.78849 -2.99712 12.1262
179 1 -1.1104 6.69405 2.64176 12.2508
168 1 -1.1104 6.70073 -2.81058 6.70752
333 2 2.2208 13.7888 15.4826 10.7772
290 1 -1.1104 6.49562 13.8919 9.43399
8440 2 2.2208 8.05525 -4.28448 8.09075
331 2 2.2208 11.0133 18.2006 10.9719
182 1 -1.1104 6.77199 -2.85232 9.41934
206 1 -1.1104 12.3725 2.76964 6.93803
210 1 -1.1104 9.34007 -0.114124 6.86487
8441 2 2.2208 10.8877 -4.3554 10.8549
8436 2 2.2208 13.7796 -4.27399 2.50104
211 2 2.2208 10.8949 1.28716 10.7628
212 1 -1.1104 12.337 -2.91359 12.1803
213 1 -1.1104 12.2968 2.79083 12.2722
214 1 -1.1104 12.2621 -2.83381 9.47356
215 1 -1.1104 12.4564 2.69175 9.46475
216 1 -1.1104 12.3037 -0.0963798 12.1584
217 2 2.2208 10.7742 -1.59332 7.97656
218 2 2.2208 10.9497 4.27596 8.07451
219 1 -1.1104 12.165 -0.0174681 9.28869
220 1 -1.1104 9.56758 -2.89919 12.2724
221 1 -1.1104 9.41518 2.82325 12.1764
222 2 2.2208 8.10099 1.44191 7.98367
223 1 -1.1104 9.49961 -3.03471 9.33915
224 1 -1.1104 9.47418 2.87718 9.38777
225 2 2.2208 8.08935 -1.48055 10.8087
226 2 2.2208 7.9917 4.15761 10.9134
227 1 -1.1104 9.44856 -0.102822 12.2701
228 1 -1.1104 9.32492 -0.122915 9.42389
203 2 2.2208 13.6848 4.18631 10.7361
325 2 2.2208 10.8226 15.396 8.12068
237 1 -1.1104 6.68198 5.56052 6.65591
65 1 -1.1104 6.66844 11.2124 6.52483
236 1 -1.1104 1.05158 5.47709 6.53115
240 2 2.2208 5.16621 7.02945 10.8183
241 2 2.2208 5.29743 12.5479 10.928
242 1 -1.1104 1.06722 8.25361 12.2158
244 1 -1.1104 1.02517 8.33024 9.32322
246 1 -1.1104 1.09277 5.64722 12.2583
247 1 -1.1104 0.919025 11.1668 12.2537
250 2 2.2208 5.18997 9.84678 8.01958
251 1 -1.1104 1.04197 5.39971 9.37388
252 1 -1.1104 1.02642 11.0783 9.45059
255 1 -1.1104 3.87395 8.33964 12.1869
256 2 2.2208 2.45046 6.93904 7.95275
257 2 2.2208 2.52797 12.6245 8.00781
258 1 -1.1104 3.87456 8.41209 9.43309
259 2 2.2208 2.29024 9.75652 10.8461
260 1 -1.1104 3.85834 5.53945 12.3118
261 1 -1.1104 3.93413 11.1735 12.215
262 1 -1.1104 3.75874 5.5988 9.40807
263 1 -1.1104 3.76644 11.3008 9.4178
245 1 -1.1104 6.61848 8.40708 9.55004
248 1 -1.1104 6.79204 5.59607 12.173
235 1 -1.1104 6.56643 8.4984 6.71784
29 2 2.2208 -0.301635 6.92906 10.8914
297 1 -1.1104 6.66039 13.8995 12.4051
269 1 -1.1104 9.54921 5.5278 6.52987
202 2 2.2208 13.6296 7.02193 7.9865
253 1 -1.1104 6.57613 5.47454 9.47147
254 1 -1.1104 6.73979 11.1732 9.36916
243 1 -1.1104 6.66546 8.35078 12.3459
249 1 -1.1104 6.70405 11.1169 12.3525
366 2 2.2208 2.51048 4.24458 -0.488466
264 1 -1.1104 9.55074 11.3232 9.50723
268 1 -1.1104 9.45196 5.55152 9.42282
270 1 -1.1104 9.52193 11.2437 12.3078
271 1 -1.1104 9.45728 5.53399 12.3684
272 2 2.2208 8.06375 9.74079 10.897
273 1 -1.1104 9.52678 8.40908 9.4956
274 2 2.2208 8.11112 12.5352 8.04682
275 2 2.2208 8.10948 6.9646 8.13036
276 2 2.2208 10.9018 7.00141 10.8177
277 2 2.2208 10.9909 12.7258 10.9439
278 1 -1.1104 12.2859 8.36146 12.0178
279 1 -1.1104 12.2295 8.38273 9.36128
280 1 -1.1104 12.2596 5.49019 12.0752
281 1 -1.1104 12.3825 11.0872 12.407
282 2 2.2208 10.8629 9.86357 7.9906
283 1 -1.1104 12.2899 5.65748 9.35791
284 1 -1.1104 12.3433 11.2144 9.40938
285 1 -1.1104 9.37857 8.49739 12.3158
356 2 2.2208 8.09124 12.6442 13.7811
117 1 -1.1104 1.03904 16.697 6.8534
108 1 -1.1104 0.998253 13.9329 6.58244
111 1 -1.1104 6.55948 14.0746 6.57759
302 1 -1.1104 1.16905 19.676 6.7423
112 1 -1.1104 6.6777 19.5939 6.6452
289 1 -1.1104 6.72686 16.7173 9.60016
133 1 -1.1104 3.87939 16.8026 6.71349
310 2 2.2208 2.40255 15.4777 10.8698
309 2 2.2208 2.63441 21.0626 10.8609
286 1 -1.1104 4.06804 19.6636 12.3354
300 2 2.2208 5.41587 18.27 10.8207
299 1 -1.1104 1.18009 13.9114 12.2677
308 1 -1.1104 3.94151 16.77 12.3059
298 1 -1.1104 1.27162 19.7003 12.1973
304 1 -1.1104 3.97772 16.856 9.52093
303 2 2.2208 2.50295 18.2606 8.08306
292 1 -1.1104 0.971613 16.9742 9.42105
295 2 2.2208 5.29243 15.3273 8.06864
307 1 -1.1104 1.21376 16.9039 12.2484
301 1 -1.1104 3.94967 19.5361 9.4371
291 1 -1.1104 1.08884 19.7003 9.4748
305 1 -1.1104 3.72573 13.8942 9.47027
287 1 -1.1104 3.92963 14.1426 12.2682
294 1 -1.1104 1.07416 13.9684 9.44553
293 2 2.2208 5.28393 21.0081 8.0271
296 1 -1.1104 6.7857 19.6577 12.2308
30 2 2.2208 -0.33718 9.80037 7.98978
322 1 -1.1104 9.51938 13.9632 12.3063
306 1 -1.1104 6.78132 16.7778 12.3285
345 2 2.2208 13.7176 21.1252 -0.19417
324 2 2.2208 11.0101 21.0763 8.14433
288 1 -1.1104 6.74661 19.6185 9.44998
315 1 -1.1104 9.65655 16.9013 12.3474
316 2 2.2208 8.20167 21.0351 10.9075
149 1 -1.1104 12.3141 16.9708 6.72273
156 1 -1.1104 9.48034 19.5959 6.75552
327 1 -1.1104 12.3674 19.6838 9.45687
143 1 -1.1104 12.3446 14.2397 6.67544
50 2 2.2208 13.7307 -1.40621 5.32461
318 1 -1.1104 9.46446 19.6497 9.61702
201 2 2.2208 -0.371162 1.35471 10.9601
8454 2 2.2208 8.22316 -4.25453 13.5818
81 2 2.2208 -0.489302 6.95223 5.09424
340 2 2.2208 13.7281 1.33795 13.7021
230 2 2.2208 13.7383 -1.3767 10.858
229 2 2.2208 13.796 1.42278 8.05743
204 2 2.2208 13.6254 15.5259 5.31173
231 2 2.2208 13.7344 21.1063 5.42924
8458 2 2.2208 2.49992 -4.34196 13.6454
373 2 2.2208 2.35518 15.4639 -0.289635
352 2 2.2208 5.31525 9.70972 13.7408
386 2 2.2208 10.8114 12.5615 -0.359943
351 2 2.2208 2.53747 6.9953 13.5836
364 2 2.2208 5.24057 1.60193 -0.411406
344 2 2.2208 13.479 15.4988 -0.297524
342 2 2.2208 -0.238754 15.4604 13.7988
337 2 2.2208 -0.382885 4.08215 13.8174
372 2 2.2208 8.13528 4.15616 -0.595536
365 2 2.2208 2.45803 -1.28306 -0.448786
388 2 2.2208 5.20549 1.2933 16.5624
389 1 -1.1104 1.02937 -2.67818 18.031
390 1 -1.1104 1.06858 2.87635 17.9445
393 1 -1.1104 1.09251 -2.80686 15.0983
395 1 -1.1104 1.13375 2.7586 15.0904
401 1 -1.1104 1.22207 0.119477 17.8941
403 2 2.2208 5.36214 -1.36467 19.2646
404 2 2.2208 5.18004 4.25906 19.2859
405 1 -1.1104 1.01511 -0.0940288 15.1322
409 1 -1.1104 3.81057 -2.81453 17.789
410 1 -1.1104 3.8282 2.9204 17.9505
411 2 2.2208 2.46643 1.39314 19.3076
412 1 -1.1104 3.85328 -2.81214 15.1419
414 1 -1.1104 3.87736 2.69037 15.0405
416 2 2.2208 2.42835 -1.39041 16.4716
418 1 -1.1104 4.02669 0.102592 18.0697
419 1 -1.1104 3.77578 -0.00771227 15.119
399 1 -1.1104 6.65987 2.70692 15.154
397 1 -1.1104 6.74619 -2.87254 14.8898
391 1 -1.1104 6.67927 -2.75802 17.8844
417 2 2.2208 2.3964 4.21835 16.547
392 1 -1.1104 6.67005 2.86852 17.8919
407 1 -1.1104 6.67618 -0.0583433 15.1626
420 1 -1.1104 3.81231 0.148128 20.8404
358 2 2.2208 5.35654 21.0971 13.7274
402 1 -1.1104 6.61475 0.0492115 18.0786
8450 2 2.2208 5.30585 -4.15587 27.59
394 1 -1.1104 1.09037 -2.90301 20.8474
408 1 -1.1104 6.70189 0.0862731 20.6633
455 2 2.2208 13.5978 18.166 24.9235
398 1 -1.1104 6.6977 -2.76345 20.719
463 1 -1.1104 12.1736 14.047 23.5463
367 2 2.2208 -0.321684 9.86728 13.5778
616 2 2.2208 8.18757 21.0506 22.1982
369 2 2.2208 10.9252 1.32391 27.7107
431 2 2.2208 10.9095 1.35235 16.4713
432 1 -1.1104 12.1079 -2.69815 17.9048
433 1 -1.1104 12.194 2.74266 17.8173
434 1 -1.1104 12.1754 -2.79694 15.1265
436 1 -1.1104 12.2976 2.83116 15.0013
438 1 -1.1104 12.3593 0.0977285 17.972
439 2 2.2208 10.9323 -1.4145 19.3357
440 2 2.2208 10.849 4.09155 19.2938
441 1 -1.1104 12.2122 -0.0596077 14.9926
443 1 -1.1104 9.34932 -2.82242 17.8833
444 1 -1.1104 9.53404 2.73638 17.8644
445 2 2.2208 8.01322 1.29066 19.3239
446 1 -1.1104 9.50186 -2.80598 15.0886
448 1 -1.1104 9.46528 2.64975 15.0626
450 2 2.2208 8.06822 -1.48544 16.4109
452 1 -1.1104 9.42734 -0.05696 17.945
453 1 -1.1104 9.50956 -0.0850401 15.1594
451 2 2.2208 8.07279 3.99964 16.4324
428 2 2.2208 13.6817 1.39506 19.2277
360 2 2.2208 10.9413 21.0195 13.7509
343 2 2.2208 8.09663 1.35488 13.6715
447 1 -1.1104 9.56659 -2.78892 20.6431
357 2 2.2208 2.69681 18.2259 13.6013
442 1 -1.1104 12.2644 -0.209094 20.7263
430 2 2.2208 13.5964 15.5174 22.1508
350 2 2.2208 10.9173 4.14598 13.6419
625 2 2.2208 -0.416889 1.39767 22.0103
8584 2 2.2208 10.7985 -4.2186 16.5021
423 2 2.2208 13.7225 4.23005 22.0513
464 2 2.2208 5.25777 6.91964 16.4652
465 2 2.2208 5.31209 12.6061 16.4576
466 1 -1.1104 0.921 8.41177 17.8469
468 1 -1.1104 1.19618 8.38929 15.0196
472 1 -1.1104 1.0264 5.6348 17.8894
473 1 -1.1104 0.890384 11.2863 17.8718
476 2 2.2208 5.1191 9.75261 19.2324
477 1 -1.1104 0.926675 5.59273 15.1294
479 1 -1.1104 1.08179 11.2203 15.0287
485 1 -1.1104 3.80226 8.37281 17.7422
486 2 2.2208 2.33855 7.09899 19.3318
487 2 2.2208 2.37379 12.6342 19.2744
488 1 -1.1104 4.01542 8.37489 15.0425
490 2 2.2208 2.38831 9.83928 16.4321
491 1 -1.1104 3.78194 5.67876 17.8921
492 1 -1.1104 3.82669 11.2875 17.8445
493 1 -1.1104 3.85677 5.50803 15.0476
495 1 -1.1104 3.8825 11.2705 15.0651
483 1 -1.1104 6.78665 11.1779 15.1145
481 1 -1.1104 6.72519 5.44022 15.0846
496 1 -1.1104 3.8114 11.1751 20.4463
470 1 -1.1104 6.83485 8.3226 15.1441
474 1 -1.1104 6.75383 5.70123 17.9334
480 1 -1.1104 1.05215 11.0927 20.6029
8516 2 2.2208 8.11586 -4.23571 24.9862
471 1 -1.1104 6.41341 8.65782 20.7797
494 1 -1.1104 3.7151 5.6095 20.5874
524 1 -1.1104 12.1658 16.8356 23.5588
587 2 2.2208 7.98649 18.1769 24.9567
498 1 -1.1104 12.0357 14.0668 26.3677
475 1 -1.1104 6.61647 11.2144 17.7397
467 1 -1.1104 6.72273 8.40409 18.0179
500 2 2.2208 10.8977 6.91791 16.5438
501 2 2.2208 10.7576 12.6093 16.4682
502 1 -1.1104 12.3083 8.27836 17.6425
503 1 -1.1104 12.3247 8.31154 14.9705
505 1 -1.1104 12.4341 5.61846 17.8792
506 1 -1.1104 12.2961 11.1926 17.8482
507 2 2.2208 11.0723 9.80685 19.2229
508 1 -1.1104 12.3298 5.64093 15.0702
510 1 -1.1104 12.367 11.1385 15.0545
512 1 -1.1104 9.56702 8.36998 17.7936
513 2 2.2208 8.12991 6.97628 19.2776
514 2 2.2208 8.01031 12.6365 19.2078
515 1 -1.1104 9.46992 8.31608 15.0529
517 2 2.2208 8.038 9.77141 16.4624
518 1 -1.1104 9.58878 5.54739 17.9658
519 1 -1.1104 9.47891 11.3066 17.7253
520 1 -1.1104 9.45436 5.45842 15.2108
522 1 -1.1104 9.45121 11.071 14.985
708 2 2.2208 13.583 12.5817 25.0193
376 2 2.2208 13.8681 12.4884 13.7095
523 1 -1.1104 9.3977 11.1752 20.4268
511 1 -1.1104 12.2008 11.2527 20.5126
650 2 2.2208 13.6665 12.6908 19.3221
335 2 2.2208 -0.261188 20.9231 13.7483
527 2 2.2208 5.33912 18.266 16.6295
528 1 -1.1104 1.15288 14.1163 17.8194
529 1 -1.1104 1.18698 19.559 17.9201
532 1 -1.1104 1.1881 14.1544 14.9236
534 1 -1.1104 1.26408 19.7802 15.2746
540 1 -1.1104 1.00581 16.7908 17.9938
542 2 2.2208 5.22854 15.2965 19.275
543 2 2.2208 5.38182 21.0288 19.4461
544 1 -1.1104 1.17583 16.9769 15.0154
548 1 -1.1104 3.77411 14.0074 17.9122
549 1 -1.1104 3.97753 19.6678 18.1157
550 2 2.2208 2.57028 18.2944 19.4637
551 1 -1.1104 3.89741 14.0519 15.1541
553 1 -1.1104 4.0096 19.6072 15.0835
555 2 2.2208 2.58373 15.4639 16.5299
556 2 2.2208 2.63355 21.0715 16.6277
557 1 -1.1104 3.85691 16.8326 18.0749
558 1 -1.1104 3.94223 16.8124 15.258
536 1 -1.1104 6.71758 14.0674 15.0169
541 1 -1.1104 6.63625 16.7469 17.9397
530 1 -1.1104 6.64062 13.9496 17.6986
547 1 -1.1104 6.63612 16.9242 20.776
552 1 -1.1104 3.88037 13.937 20.682
545 1 -1.1104 1.23266 16.7765 20.7428
539 1 -1.1104 6.77846 19.6956 20.8043
533 1 -1.1104 0.996288 13.971 20.7457
559 1 -1.1104 3.91479 16.7448 20.7593
538 1 -1.1104 6.76491 19.6673 15.1984
546 1 -1.1104 6.62606 16.8767 15.0379
531 1 -1.1104 6.75646 19.4386 18.0182
8446 2 2.2208 11.0213 -4.27895 27.7245
653 2 2.2208 13.8405 -1.52178 22.0834
563 2 2.2208 10.8795 18.1543 16.5634
564 1 -1.1104 12.3442 14.0795 17.8841
565 1 -1.1104 12.1666 19.9433 18.0002
566 1 -1.1104 12.3119 13.9374 15.1524
568 1 -1.1104 12.1573 19.4491 15.1467
570 1 -1.1104 12.395 16.9379 17.9147
571 2 2.2208 10.9099 15.5383 19.3345
572 2 2.2208 10.878 21.1509 19.4499
573 1 -1.1104 12.4012 16.7148 15.1462
575 1 -1.1104 9.54545 14.0607 18.0096
576 1 -1.1104 9.5411 19.5853 17.9556
577 2 2.2208 8.11447 18.1426 19.4353
578 1 -1.1104 9.38479 14.015 15.2115
580 1 -1.1104 9.38675 19.5882 15.0458
582 2 2.2208 8.09465 15.5099 16.5312
583 2 2.2208 8.11353 20.8177 16.5868
584 1 -1.1104 9.47031 16.8439 17.9374
585 1 -1.1104 9.43494 16.8976 15.1837
569 1 -1.1104 12.2847 19.6482 20.7901
579 1 -1.1104 9.34375 14.0395 20.9117
574 1 -1.1104 12.1861 16.8758 20.8381
370 2 2.2208 8.17976 -1.40126 27.6884
400 1 -1.1104 6.55358 2.84886 20.6992
651 2 2.2208 13.6427 7.03983 19.2078
413 1 -1.1104 3.90998 -2.7971 20.5448
406 1 -1.1104 0.900745 0.0520321 20.6846
415 1 -1.1104 3.87089 2.75692 20.6123
396 1 -1.1104 0.998188 2.88954 20.7383
591 2 2.2208 5.27675 1.48084 22.0594
592 1 -1.1104 1.15997 -2.68747 23.5936
593 1 -1.1104 1.09947 2.95278 23.4027
596 1 -1.1104 1.06398 -2.58762 26.3517
597 1 -1.1104 1.04188 2.83754 26.1486
600 1 -1.1104 1.00463 0.11502 23.5796
602 2 2.2208 5.26603 -1.35132 24.9519
603 2 2.2208 5.27372 4.20619 24.7665
604 1 -1.1104 1.01192 0.0824313 26.2679
606 1 -1.1104 3.78219 -2.6868 23.4207
607 1 -1.1104 3.84727 2.92364 23.3799
608 2 2.2208 2.45647 1.53747 24.739
609 1 -1.1104 3.85113 -2.66169 26.3187
610 1 -1.1104 3.87436 2.91871 26.261
611 2 2.2208 2.46478 -1.4036 22.081
612 2 2.2208 2.53383 4.24312 22.0539
613 1 -1.1104 3.78702 0.0936545 23.5616
614 1 -1.1104 3.97595 0.172375 26.2443
605 1 -1.1104 6.86509 0.023874 26.3877
601 1 -1.1104 6.79815 0.166719 23.4411
595 1 -1.1104 6.63731 2.83404 23.3744
598 1 -1.1104 6.59043 -2.81983 26.3615
594 1 -1.1104 6.5253 -2.6806 23.5423
626 2 2.2208 -0.301049 4.31807 24.8238
622 2 2.2208 -0.407732 9.83733 19.2672
454 1 -1.1104 9.43044 0.043427 20.6829
437 1 -1.1104 12.2495 2.77539 20.6706
449 1 -1.1104 9.421 2.76962 20.7215
561 1 -1.1104 9.40574 13.9808 23.5378
710 2 2.2208 13.7681 7.0289 24.8456
387 2 2.2208 13.6433 9.79213 27.6619
599 1 -1.1104 6.73828 2.71029 26.0463
435 1 -1.1104 12.3201 -2.99641 20.7511
457 2 2.2208 -0.357909 15.3403 19.2671
589 1 -1.1104 9.46616 13.801 26.2642
424 2 2.2208 -0.46644 1.41765 16.4968
627 2 2.2208 11.0077 1.36159 22.0384
628 1 -1.1104 12.2631 -2.79531 23.5886
629 1 -1.1104 12.3024 2.89658 23.4776
630 1 -1.1104 12.2465 -2.95835 26.3871
631 1 -1.1104 12.3401 2.60036 26.3584
632 1 -1.1104 12.4208 0.0237071 23.5411
633 2 2.2208 10.893 -1.49971 24.9158
634 2 2.2208 10.9521 4.19915 24.9105
635 1 -1.1104 12.2924 -0.150881 26.3605
636 1 -1.1104 9.33761 -2.96116 23.3955
637 1 -1.1104 9.58679 2.72514 23.5229
638 2 2.2208 8.17437 1.35375 24.8438
639 1 -1.1104 9.457 -2.81865 26.2772
640 1 -1.1104 9.40903 2.76547 26.3021
641 2 2.2208 8.06809 -1.30285 22.0736
643 1 -1.1104 9.56736 0.022948 23.42
644 1 -1.1104 9.6467 -0.0709856 26.2683
642 2 2.2208 8.12032 4.10972 22.0806
567 1 -1.1104 12.1743 14.0296 20.596
581 1 -1.1104 9.46928 19.5938 20.8093
421 2 2.2208 -0.452918 7.04339 22.0084
590 1 -1.1104 9.53803 19.5198 26.3052
469 1 -1.1104 0.951322 8.42954 20.7506
489 1 -1.1104 3.61295 8.47707 20.6295
478 1 -1.1104 0.982633 5.68299 20.6771
656 2 2.2208 5.36069 7.12081 22.0084
657 2 2.2208 5.23974 12.5692 22.1198
658 1 -1.1104 1.03292 8.43659 23.4487
660 1 -1.1104 1.11398 8.5159 26.2935
662 1 -1.1104 1.03263 5.73032 23.3647
663 1 -1.1104 1.00376 11.1772 23.5719
666 2 2.2208 5.29676 9.76927 24.8036
667 1 -1.1104 1.16045 5.63918 26.2471
668 1 -1.1104 1.10434 11.319 26.2021
671 1 -1.1104 3.85363 8.46518 23.4831
672 2 2.2208 2.39903 7.04808 24.7109
673 2 2.2208 2.36485 12.6303 24.8229
674 1 -1.1104 3.9832 8.29573 26.3172
675 2 2.2208 2.50281 9.78923 22.0448
676 1 -1.1104 3.98057 5.80293 23.392
677 1 -1.1104 3.76807 11.3444 23.3984
678 1 -1.1104 3.91843 5.60118 26.1134
679 1 -1.1104 3.84336 11.1879 26.2257
665 1 -1.1104 6.6346 11.1778 23.4905
664 1 -1.1104 6.85497 5.68351 23.1572
670 1 -1.1104 6.60201 11.2012 26.2176
497 1 -1.1104 12.4161 19.612 23.4964
560 1 -1.1104 12.1797 16.9104 26.2947
516 1 -1.1104 9.50441 8.34645 20.7444
504 1 -1.1104 12.2894 8.44745 20.4694
482 1 -1.1104 6.55877 5.74232 20.49
484 1 -1.1104 6.63581 11.3671 20.6498
661 1 -1.1104 6.68965 8.43532 26.2738
669 1 -1.1104 6.77531 5.49128 26.022
659 1 -1.1104 6.62203 8.39519 23.481
509 1 -1.1104 12.2907 5.51847 20.6021
521 1 -1.1104 9.54027 5.59428 20.6352
615 2 2.2208 8.10492 15.4027 22.2142
422 2 2.2208 13.6654 9.88535 22.1164
687 1 -1.1104 9.40942 11.0952 26.2584
688 1 -1.1104 9.4741 5.47276 26.1198
689 1 -1.1104 9.49043 11.2797 23.337
690 1 -1.1104 9.69237 5.43461 23.3619
691 2 2.2208 8.08433 9.88363 21.9051
692 1 -1.1104 9.47491 8.24962 26.3131
693 2 2.2208 7.8934 12.5609 24.8448
694 2 2.2208 8.10089 6.84147 24.7682
695 2 2.2208 10.8662 6.87501 21.9396
696 2 2.2208 10.8263 12.6474 21.9787
697 1 -1.1104 12.2503 8.49854 23.2839
698 1 -1.1104 12.3275 8.45991 26.155
699 1 -1.1104 12.3757 5.66889 23.3202
700 1 -1.1104 12.3192 11.3432 23.2318
701 2 2.2208 10.7954 9.71473 24.772
702 1 -1.1104 12.2414 5.56692 26.2303
703 1 -1.1104 12.2089 11.2566 26.2952
704 1 -1.1104 9.47182 8.35146 23.4066
620 1 -1.1104 9.32042 16.6798 26.2781
526 2 2.2208 10.9575 20.9118 24.9398
535 1 -1.1104 1.12311 19.6284 20.8032
648 2 2.2208 -0.379633 12.6441 16.4145
537 1 -1.1104 6.59383 14.2213 20.7144
554 1 -1.1104 3.84242 19.6389 20.8813
680 1 -1.1104 6.69455 16.8123 23.522
714 1 -1.1104 6.59234 16.8638 26.3109
709 1 -1.1104 6.61041 13.8583 23.4947
718 1 -1.1104 6.62564 19.7033 23.5395
588 1 -1.1104 6.69086 19.689 26.3633
647 2 2.2208 2.53644 15.4523 22.1086
649 2 2.2208 2.40988 21.2005 22.1759
652 1 -1.1104 3.97573 16.8334 23.5652
655 1 -1.1104 1.14149 16.8158 23.5288
681 1 -1.1104 3.74169 13.9164 26.3503
682 1 -1.1104 3.6972 16.6955 26.366
683 2 2.2208 2.37509 18.1743 24.9878
686 1 -1.1104 3.93688 19.5847 26.3622
705 2 2.2208 5.26959 18.2124 22.1707
706 1 -1.1104 0.939933 13.9713 23.4262
707 1 -1.1104 0.938434 19.6831 23.6413
711 1 -1.1104 3.76213 19.7885 23.553
713 1 -1.1104 3.84215 14.105 23.6821
715 1 -1.1104 1.14065 19.5223 26.3673
716 1 -1.1104 0.943737 16.7606 26.4537
717 1 -1.1104 0.982942 14.0694 26.3641
719 2 2.2208 5.05168 21.0926 24.9693
720 2 2.2208 5.30293 15.3259 24.9653
712 1 -1.1104 6.64542 14.1489 26.3915
462 2 2.2208 10.834 18.2818 22.2155
586 1 -1.1104 9.42992 16.8033 20.8657
525 2 2.2208 10.8144 15.4336 24.8518
499 1 -1.1104 12.2761 19.564 26.4797
617 1 -1.1104 9.4064 16.8399 23.6182
562 1 -1.1104 9.56274 19.576 23.6595
385 2 2.2208 8.07052 9.80798 27.6574
381 2 2.2208 5.15463 12.612 27.7289
8452 2 2.2208 -0.252456 -4.13448 27.6436
334 2 2.2208 -0.372932 -1.43816 13.6086
378 2 2.2208 13.7638 4.09734 27.673
355 2 2.2208 10.7898 9.73424 13.553
353 2 2.2208 2.54194 12.6041 13.6486
361 2 2.2208 10.9793 15.3764 13.7607
359 2 2.2208 5.28137 15.325 13.7148
362 2 2.2208 8.1145 18.3 13.7012
338 2 2.2208 5.21095 -1.50052 13.628
346 2 2.2208 10.896 -1.5556 13.5729
336 2 2.2208 13.7691 6.90907 13.6556
721 2 2.2208 5.20615 23.7852 5.2384
722 2 2.2208 5.38011 29.4256 5.24231
723 1 -1.1104 0.992254 25.401 1.25719
724 1 -1.1104 1.06853 25.3507 3.9571
725 1 -1.1104 1.04656 22.3792 1.10148
726 1 -1.1104 0.938656 28.2875 1.19866
727 2 2.2208 5.25635 26.7045 2.49579
728 1 -1.1104 1.08292 22.4884 3.86789
729 1 -1.1104 0.96004 28.0556 3.96257
730 1 -1.1104 3.74866 25.2249 1.06837
731 2 2.2208 2.36481 23.9725 2.56895
732 2 2.2208 2.50414 29.3345 2.48593
733 1 -1.1104 3.68879 25.3705 4.0595
734 2 2.2208 2.37904 26.666 5.31719
735 1 -1.1104 3.72772 22.5812 1.02661
736 1 -1.1104 3.83468 27.9894 1.05028
737 1 -1.1104 3.73829 22.5464 4.01213
738 1 -1.1104 4.00466 27.996 3.83033
742 1 -1.1104 6.69267 25.3539 1.15093
747 1 -1.1104 6.76572 27.939 3.80407
744 1 -1.1104 6.61636 22.4098 1.06251
746 1 -1.1104 6.76154 22.4825 4.01769
743 1 -1.1104 6.52602 25.1502 3.73628
745 1 -1.1104 6.62144 28.066 1.02754
865 1 -1.1104 1.13595 28.0221 6.77914
866 1 -1.1104 6.66069 22.5336 6.64682
863 1 -1.1104 6.6136 25.2187 6.69445
870 1 -1.1104 3.9074 28.236 6.69951
1012 2 2.2208 -0.279416 40.6543 10.861
867 1 -1.1104 6.5922 27.996 6.54182
1039 2 2.2208 13.7387 32.3318 5.37513
1645 1 -1.1104 1.07734 47.7652 9.45212
748 2 2.2208 10.859 23.972 5.25454
749 2 2.2208 10.7182 29.5307 5.30352
750 1 -1.1104 12.313 25.255 1.15557
751 1 -1.1104 12.419 25.2528 3.85689
752 1 -1.1104 12.3327 22.4119 1.04683
753 1 -1.1104 12.1976 28.0559 1.18136
754 2 2.2208 10.9253 26.7395 2.48594
755 1 -1.1104 12.4268 22.5314 3.96758
756 1 -1.1104 12.1357 28.0874 3.88921
757 1 -1.1104 9.48505 25.2137 1.00102
758 2 2.2208 8.1015 23.8604 2.44351
759 2 2.2208 8.19393 29.3436 2.34346
760 1 -1.1104 9.54384 25.2476 3.86912
761 2 2.2208 7.98038 26.5305 5.23933
762 1 -1.1104 9.46915 22.3691 1.00394
763 1 -1.1104 9.46145 27.9949 0.992746
764 1 -1.1104 9.53461 22.6052 3.87248
765 1 -1.1104 9.42369 28.1314 3.89346
1097 2 2.2208 -0.421091 35.0774 -0.309528
1105 2 2.2208 5.46692 46.4035 -0.304244
1107 2 2.2208 -0.369149 40.6397 -0.285639
895 1 -1.1104 12.171 25.4159 6.66287
1090 2 2.2208 10.9967 23.8031 -0.322475
1093 2 2.2208 10.9449 29.3614 -0.277943
1045 2 2.2208 -0.402697 26.6386 8.17648
1091 2 2.2208 8.07016 26.6288 -0.245314
769 2 2.2208 5.21797 35.0364 5.36253
770 1 -1.1104 1.01169 31.0371 1.13315
771 1 -1.1104 0.983313 36.5269 0.969206
773 1 -1.1104 1.0909 30.7456 3.93414
774 1 -1.1104 1.13454 36.4006 3.77946
776 1 -1.1104 1.09802 33.7603 1.14869
777 2 2.2208 5.37635 32.2484 2.40591
778 2 2.2208 5.23556 37.8242 2.60349
779 1 -1.1104 1.19757 33.5357 3.87384
781 1 -1.1104 3.96016 30.8343 0.902096
782 1 -1.1104 3.99456 36.462 1.11473
783 2 2.2208 2.4901 34.9212 2.45591
784 1 -1.1104 3.86364 30.794 3.83263
785 1 -1.1104 3.88781 36.4147 3.99058
786 2 2.2208 2.44415 32.2227 5.2258
787 2 2.2208 2.50112 37.7954 5.31178
788 1 -1.1104 3.77327 33.6703 0.995688
789 1 -1.1104 3.90608 33.5643 3.81091
920 1 -1.1104 1.09885 36.4927 6.67317
780 1 -1.1104 6.71312 33.6832 3.84189
775 1 -1.1104 6.58638 36.4646 4.16825
927 1 -1.1104 3.9013 33.6238 6.79482
794 1 -1.1104 6.70806 30.7759 3.83824
793 1 -1.1104 6.75659 30.9382 1.09008
795 1 -1.1104 6.72626 33.7659 1.00217
926 1 -1.1104 3.95252 36.521 6.75874
772 1 -1.1104 6.7524 36.4912 1.17424
919 1 -1.1104 1.11151 30.8321 6.58519
921 1 -1.1104 6.56702 30.8653 6.66423
1100 2 2.2208 8.17167 32.3258 -0.288885
924 1 -1.1104 6.70135 33.56 6.6952
796 2 2.2208 10.9162 35.1432 5.31813
797 1 -1.1104 12.2977 30.863 1.11755
798 1 -1.1104 12.2333 36.3941 1.21634
799 1 -1.1104 12.3214 30.9805 3.91391
800 1 -1.1104 12.3448 36.714 3.90699
801 1 -1.1104 12.4977 33.6822 1.1865
802 2 2.2208 10.916 32.2854 2.49465