ITEM: TIMESTEP
30000
ITEM: NUMBER OF ATOMS
17910
ITEM: BOX BOUNDS pp pp pp
-3.5850829278637081e-01 2.7698508292786762e+01
-4.2926249628126625e+00 3.3237262496281613e+02
-3.5531594886423290e-01 2.7695315948863964e+01
ITEM: ATOMS id type q x y z
1 2 2.2208 5.42902 1.31832 5.37464
2 1 -1.1104 0.967203 -2.77959 1.01399
3 1 -1.1104 1.01956 2.91341 1.17774
6 1 -1.1104 1.20188 -2.87138 3.97011
7 1 -1.1104 1.09495 2.69973 4.03482
10 1 -1.1104 1.12724 0.0754115 1.14057
12 2 2.2208 5.29988 -1.57711 2.45925
14 1 -1.1104 1.17317 -0.0953912 3.89858
16 1 -1.1104 3.86535 -2.73965 1.06535
17 1 -1.1104 3.81156 2.83052 1.17567
18 2 2.2208 2.58992 1.2526 2.5584
19 1 -1.1104 3.90641 -3.06805 3.84049
20 1 -1.1104 4.00059 2.60328 3.91094
21 2 2.2208 2.59485 -1.44258 5.44497
22 2 2.2208 2.5884 4.03305 5.33424
23 1 -1.1104 3.87712 -0.0255941 1.16582
24 1 -1.1104 3.99944 -0.226242 3.86065
13 2 2.2208 5.3721 4.18573 2.48317
173 1 -1.1104 4.09036 2.66368 6.79193
25 2 2.2208 -0.259272 -1.41187 2.42255
26 2 2.2208 -0.240803 1.43796 5.32423
8432 2 2.2208 5.31729 -4.31517 5.2841
8435 2 2.2208 10.9772 -4.40964 5.37927
27 2 2.2208 -0.394074 4.14996 2.51598
325 2 2.2208 10.8517 15.3141 8.17571
306 1 -1.1104 6.64182 16.8409 12.3837
329 1 -1.1104 12.2576 19.5301 12.3999
322 1 -1.1104 9.48972 13.8747 12.3405
11 1 -1.1104 6.71744 -0.221759 1.1839
171 1 -1.1104 6.75437 -0.040479 6.88689
15 1 -1.1104 6.8914 -0.0711583 3.99574
5 1 -1.1104 6.6163 2.56887 0.9876
296 1 -1.1104 6.80121 19.5075 12.3471
8 1 -1.1104 6.76921 -2.70505 3.93988
4 1 -1.1104 6.68733 -2.89149 1.12691
9 1 -1.1104 6.71672 2.55669 3.93959
31 2 2.2208 11.0471 1.33639 5.46399
32 1 -1.1104 12.4109 -2.85696 1.10348
33 1 -1.1104 12.3393 2.76197 1.01396
34 1 -1.1104 12.418 -2.89932 3.85263
35 1 -1.1104 12.4925 2.66741 3.89191
36 1 -1.1104 12.3822 0.0350602 1.09259
37 2 2.2208 10.975 -1.52368 2.57726
38 2 2.2208 11.0487 4.0943 2.50276
39 1 -1.1104 12.3521 -0.12792 4.03466
40 1 -1.1104 9.71515 -2.88812 1.04534
41 1 -1.1104 9.44424 2.66331 1.03876
42 2 2.2208 8.11019 1.30293 2.46335
43 1 -1.1104 9.56257 -2.9583 3.96498
44 1 -1.1104 9.64025 2.77545 3.87435
45 2 2.2208 8.01873 -1.52336 5.41527
46 2 2.2208 8.28335 4.02267 5.34202
47 1 -1.1104 9.59987 -0.218911 1.2082
48 1 -1.1104 9.70356 -0.105712 4.04701
209 1 -1.1104 9.65615 2.80122 6.8218
169 1 -1.1104 6.86031 2.75606 6.79811
206 1 -1.1104 12.4968 2.7673 6.69729
315 1 -1.1104 9.61665 16.7187 12.4528
205 1 -1.1104 12.2895 -3.01681 6.69265
208 1 -1.1104 9.60004 -2.84019 6.76432
316 2 2.2208 8.16172 20.8587 10.7631
8434 2 2.2208 8.12656 -4.17605 2.48754
54 2 2.2208 5.35149 6.77788 5.38274
55 2 2.2208 5.2575 12.4298 5.27236
56 1 -1.1104 0.898133 8.15365 1.05428
58 1 -1.1104 1.0861 8.29676 3.89486
60 1 -1.1104 1.06279 5.40243 0.968873
61 1 -1.1104 1.33024 10.9533 1.19768
66 2 2.2208 5.30955 9.58367 2.45861
67 1 -1.1104 1.07132 5.50627 3.83399
68 1 -1.1104 1.211 10.9694 3.81672
71 1 -1.1104 3.98792 8.1184 1.02775
72 2 2.2208 2.42255 6.81154 2.45362
73 2 2.2208 2.55566 12.455 2.40588
74 1 -1.1104 3.86313 8.31534 3.85763
75 2 2.2208 2.55887 9.57029 5.25289
76 1 -1.1104 3.87439 5.59587 1.02191
77 1 -1.1104 4.08511 11.0793 1.03682
79 1 -1.1104 4.02015 5.50056 3.8482
80 1 -1.1104 4.0009 11.1482 3.9273
82 2 2.2208 -0.273187 9.70804 2.50088
83 2 2.2208 -0.260265 12.399 5.33128
81 2 2.2208 -0.386665 6.92779 5.26642
78 1 -1.1104 3.98119 11.116 6.68614
238 1 -1.1104 3.97767 8.24452 6.7655
234 1 -1.1104 1.18621 8.21269 6.5277
317 2 2.2208 8.01989 15.2556 11.0018
70 1 -1.1104 6.75764 10.9357 3.88109
59 1 -1.1104 6.73701 8.2003 3.78829
57 1 -1.1104 6.6975 8.17543 1.02767
69 1 -1.1104 6.8729 5.28551 3.97161
64 1 -1.1104 6.74397 10.9666 0.965023
63 1 -1.1104 6.77441 5.41205 1.07483
84 2 2.2208 11.0462 6.94257 5.07259
85 2 2.2208 10.8463 12.6277 5.18707
86 1 -1.1104 12.3454 8.34953 0.969602
87 1 -1.1104 12.5192 8.41782 3.81639
88 1 -1.1104 12.265 5.44731 1.01811
89 1 -1.1104 12.4255 11.0817 1.1828
91 2 2.2208 10.9736 9.72968 2.4035
92 1 -1.1104 12.578 5.55008 3.89885
93 1 -1.1104 12.4782 11.2191 3.86828
94 1 -1.1104 9.51574 8.11208 0.943899
95 2 2.2208 8.18302 6.7946 2.50839
96 2 2.2208 8.06696 12.2897 2.4175
97 1 -1.1104 9.66842 8.38744 3.85649
98 2 2.2208 8.1798 9.47682 5.34959
99 1 -1.1104 9.48888 5.3699 1.15633
100 1 -1.1104 9.55873 10.9749 1.0177
102 1 -1.1104 9.79663 5.48753 3.79638
103 1 -1.1104 9.57941 11.0991 3.79625
101 1 -1.1104 9.51778 10.9776 6.68603
326 1 -1.1104 12.3607 16.6818 12.2129
237 1 -1.1104 6.88506 5.37751 6.78373
269 1 -1.1104 9.64291 5.46315 6.7615
266 1 -1.1104 12.4084 5.56783 6.77686
90 1 -1.1104 12.2368 11.3022 6.67316
267 1 -1.1104 9.4651 8.28539 6.63929
136 2 2.2208 -0.39264 20.844 2.44867
106 2 2.2208 5.31907 18.0531 5.31524
107 1 -1.1104 1.05115 13.867 1.12844
109 1 -1.1104 1.17731 19.4664 1.06562
113 1 -1.1104 1.10603 13.8432 3.9521
114 1 -1.1104 1.17127 19.4812 3.77059
116 1 -1.1104 1.28798 16.7282 1.08501
119 2 2.2208 5.36638 15.1746 2.4981
120 2 2.2208 5.42555 20.7789 2.60128
121 1 -1.1104 1.16735 16.7292 3.89233
123 1 -1.1104 3.88494 13.8223 1.04424
125 1 -1.1104 3.89893 19.4795 1.01861
127 2 2.2208 2.48183 18.0748 2.41491
128 1 -1.1104 3.92225 13.9727 4.03589
129 1 -1.1104 3.98868 19.3734 3.89838
130 2 2.2208 2.49496 15.363 5.34388
131 2 2.2208 2.43863 20.8946 5.34124
132 1 -1.1104 4.11333 16.6861 1.139
134 1 -1.1104 3.90708 16.5992 3.95019
302 1 -1.1104 1.01485 19.5787 6.54471
135 2 2.2208 -0.232953 15.287 2.57277
137 2 2.2208 -0.296821 17.9843 5.33855
375 2 2.2208 2.55208 20.9255 -0.169156
126 1 -1.1104 3.78371 19.3801 6.56921
371 2 2.2208 -0.277353 18.1752 -0.312217
149 1 -1.1104 12.2428 16.8215 6.65409
110 1 -1.1104 6.68638 13.7857 1.04158
115 1 -1.1104 6.69525 13.7904 3.84706
140 1 -1.1104 6.84845 16.4892 1.23389
122 1 -1.1104 6.73902 16.67 3.90039
139 1 -1.1104 6.70355 19.4287 4.0859
138 1 -1.1104 6.73859 19.3116 1.32384
141 2 2.2208 10.9027 18.1201 5.23535
142 1 -1.1104 12.289 13.9373 1.01667
144 1 -1.1104 12.366 19.5005 0.991994
146 1 -1.1104 12.3213 13.8937 3.88823
147 1 -1.1104 12.3954 19.6285 4.03263
148 1 -1.1104 12.2511 16.8805 1.17151
150 2 2.2208 10.9881 15.2788 2.51206
151 2 2.2208 10.9389 20.9816 2.48867
152 1 -1.1104 12.3384 16.7487 3.91163
153 1 -1.1104 9.55076 13.7362 1.05468
155 1 -1.1104 9.66844 19.5438 1.12866
157 2 2.2208 8.21646 17.9671 2.53061
158 1 -1.1104 9.38787 13.8516 3.92148
159 1 -1.1104 9.51532 19.4815 3.80614
160 2 2.2208 8.0608 15.1749 5.28445
161 2 2.2208 8.19442 20.831 5.34326
162 1 -1.1104 9.49795 16.687 1.02519
164 1 -1.1104 9.54209 16.7058 3.96657
156 1 -1.1104 9.42341 19.4624 6.73998
163 1 -1.1104 9.43175 16.5269 6.70632
145 1 -1.1104 12.274 19.47 6.70943
8440 2 2.2208 8.11597 -4.45386 8.24692
349 2 2.2208 8.14395 20.873 -0.347629
327 1 -1.1104 12.2677 19.6495 9.58522
174 1 -1.1104 3.96174 -0.128032 6.75155
167 1 -1.1104 1.24164 2.64618 6.72462
8438 2 2.2208 5.29688 -4.29984 10.9752
201 2 2.2208 -0.227134 1.35954 10.8858
199 2 2.2208 -0.215696 4.18645 8.21899
172 1 -1.1104 4.06116 -2.84681 6.46042
170 1 -1.1104 1.09871 0.0232248 6.81903
166 1 -1.1104 1.22148 -2.83585 6.80834
175 2 2.2208 5.33202 1.28568 10.9318
176 1 -1.1104 1.25538 -2.90251 12.301
177 1 -1.1104 1.07156 2.73594 12.2837
180 1 -1.1104 1.07464 -2.72942 9.57443
181 1 -1.1104 1.15519 2.86887 9.5264
184 1 -1.1104 1.03454 -0.160659 12.1986
186 2 2.2208 5.32082 -1.54912 8.19355
188 1 -1.1104 1.35088 0.194407 9.60487
190 1 -1.1104 4.06923 -2.79402 12.3582
191 1 -1.1104 3.86126 2.75328 12.3955
192 2 2.2208 2.74037 1.36967 8.17272
193 1 -1.1104 3.95431 -2.84085 9.61484
194 1 -1.1104 4.01702 2.7553 9.51277
195 2 2.2208 2.58678 -1.40751 11.016
196 2 2.2208 2.6615 4.16007 10.9463
197 1 -1.1104 3.93947 0.0556915 12.3569
198 1 -1.1104 4.01082 -0.0456787 9.57208
200 2 2.2208 -0.190354 -1.38041 8.01684
187 2 2.2208 5.40904 4.12798 8.18165
318 1 -1.1104 9.43961 19.4472 9.51806
330 1 -1.1104 12.2766 13.9241 12.276
328 1 -1.1104 12.1677 13.9712 9.56996
168 1 -1.1104 6.73311 -2.82207 6.80141
210 1 -1.1104 9.47728 -0.0795254 6.79815
182 1 -1.1104 6.54515 -2.98553 9.63153
207 1 -1.1104 12.4227 -0.168576 6.89596
179 1 -1.1104 6.81142 2.61411 12.405
178 1 -1.1104 6.85506 -3.04902 12.4076
189 1 -1.1104 6.762 -0.21109 9.6134
183 1 -1.1104 6.87387 2.57751 9.67194
185 1 -1.1104 6.55392 -0.292682 12.3315
323 1 -1.1104 12.338 16.7228 9.43461
211 2 2.2208 10.928 1.28838 10.9992
212 1 -1.1104 12.2451 -2.93466 12.4131
213 1 -1.1104 12.3005 2.5919 12.2731
214 1 -1.1104 12.2259 -2.9347 9.66436
215 1 -1.1104 12.3395 2.82102 9.51598
216 1 -1.1104 12.2489 -0.0742488 12.3021
217 2 2.2208 10.898 -1.49879 8.1465
218 2 2.2208 11 4.11141 8.17758
219 1 -1.1104 12.2677 -0.0612131 9.61058
220 1 -1.1104 9.57359 -2.95549 12.3424
221 1 -1.1104 9.40419 2.64621 12.5508
222 2 2.2208 8.1622 1.3906 8.15498
223 1 -1.1104 9.4085 -2.97932 9.51491
224 1 -1.1104 9.57296 2.69962 9.77334
225 2 2.2208 8.0213 -1.69156 10.9525
226 2 2.2208 8.17122 3.96067 11.1529
227 1 -1.1104 9.48663 -0.234228 12.2403
228 1 -1.1104 9.60028 -0.0802398 9.55996
319 1 -1.1104 9.40817 13.8408 9.69449
343 2 2.2208 8.07647 1.26042 13.7328
30 2 2.2208 -0.118166 9.71073 8.03161
236 1 -1.1104 1.25161 5.36109 6.78005
239 1 -1.1104 4.04814 5.43975 6.68021
62 1 -1.1104 1.12077 11.1046 6.66159
51 2 2.2208 -0.130266 12.415 10.8997
29 2 2.2208 -0.268323 6.97938 10.9545
240 2 2.2208 5.30733 7.02805 10.8838
241 2 2.2208 5.32098 12.4744 11.033
242 1 -1.1104 1.22036 8.29198 12.3764
244 1 -1.1104 1.40461 8.40607 9.38551
246 1 -1.1104 1.10568 5.53247 12.4437
247 1 -1.1104 1.17906 11.137 12.309
250 2 2.2208 5.46227 9.71821 8.14993
251 1 -1.1104 1.16282 5.56979 9.58115
252 1 -1.1104 1.17591 11.0707 9.54025
255 1 -1.1104 3.98361 8.30994 12.2885
256 2 2.2208 2.56194 6.81232 8.07644
257 2 2.2208 2.46638 12.46 8.08615
258 1 -1.1104 3.99688 8.15092 9.49427
259 2 2.2208 2.60256 9.67966 10.9519
260 1 -1.1104 4.00767 5.55671 12.3962
261 1 -1.1104 4.02049 11.1054 12.4863
262 1 -1.1104 3.98852 5.45907 9.43081
263 1 -1.1104 3.98845 11.2054 9.53528
372 2 2.2208 8.11355 4.03844 -0.384953
235 1 -1.1104 6.82748 8.1254 6.68073
265 1 -1.1104 12.3342 8.40528 6.55287
248 1 -1.1104 6.79394 5.43411 12.3872
65 1 -1.1104 6.7356 10.9377 6.66285
245 1 -1.1104 6.78854 8.17951 9.47094
243 1 -1.1104 6.83131 8.38096 12.3377
254 1 -1.1104 6.81432 11.0249 9.5042
253 1 -1.1104 7.02995 5.43342 9.63583
249 1 -1.1104 6.71799 11.2021 12.3464
264 1 -1.1104 9.5901 11.0093 9.60034
268 1 -1.1104 9.66427 5.4393 9.57634
270 1 -1.1104 9.4071 11.0157 12.4629
271 1 -1.1104 9.57826 5.54169 12.4206
272 2 2.2208 8.19735 9.64336 10.8273
273 1 -1.1104 9.63148 8.26416 9.43302
274 2 2.2208 8.0334 12.3679 8.07365
275 2 2.2208 8.25823 6.76778 8.12778
276 2 2.2208 11.0279 6.89487 10.9402
277 2 2.2208 10.815 12.4878 10.9755
278 1 -1.1104 12.4342 8.2831 12.3458
279 1 -1.1104 12.3528 8.45583 9.40548
280 1 -1.1104 12.4598 5.49018 12.324
281 1 -1.1104 12.4441 11.1504 12.3672
282 2 2.2208 10.9398 9.72721 8.10711
283 1 -1.1104 12.4298 5.66312 9.52876
284 1 -1.1104 12.3067 11.1309 9.53516
285 1 -1.1104 9.54942 8.29905 12.1573
366 2 2.2208 2.41005 4.16349 -0.272559
356 2 2.2208 8.24272 12.5611 13.8235
312 2 2.2208 -0.306104 18.0371 10.9075
117 1 -1.1104 1.10764 16.6793 6.84551
108 1 -1.1104 1.03553 13.9026 6.78146
133 1 -1.1104 3.86689 16.5629 6.85937
313 2 2.2208 -0.250669 15.2949 8.16977
311 2 2.2208 -0.284852 20.8167 8.06631
124 1 -1.1104 3.89536 13.8202 6.76082
310 2 2.2208 2.51122 15.3574 11.0168
309 2 2.2208 2.48536 20.8827 10.8484
286 1 -1.1104 3.88907 19.556 12.314
300 2 2.2208 5.31601 18.0373 11.0403
299 1 -1.1104 1.21033 13.8923 12.2862
308 1 -1.1104 3.96424 16.8129 12.5206
298 1 -1.1104 1.16957 19.5853 12.3141
304 1 -1.1104 3.88455 16.7573 9.53471
303 2 2.2208 2.52996 18.0366 8.06774
292 1 -1.1104 1.05748 16.7038 9.59511
295 2 2.2208 5.20662 15.2208 8.17165
307 1 -1.1104 1.11546 16.7314 12.3498
301 1 -1.1104 3.96731 19.5077 9.45414
291 1 -1.1104 1.14542 19.359 9.46256
305 1 -1.1104 3.69726 13.9673 9.65682
287 1 -1.1104 3.91093 13.9882 12.3631
294 1 -1.1104 1.04608 13.914 9.49331
293 2 2.2208 5.28352 20.8472 8.17961
314 1 -1.1104 9.45582 16.6537 9.50432
321 1 -1.1104 9.5555 19.6219 12.257
297 1 -1.1104 6.62973 13.9844 12.2993
331 2 2.2208 10.9194 18.1065 10.9719
288 1 -1.1104 6.6577 19.4002 9.75069
289 1 -1.1104 6.76949 16.6187 9.65228
112 1 -1.1104 6.67823 19.4141 6.90754
118 1 -1.1104 6.568 16.6416 6.68942
143 1 -1.1104 12.3467 14.1245 6.7809
290 1 -1.1104 6.55019 13.8991 9.50952
154 1 -1.1104 9.51074 13.638 6.80879
320 2 2.2208 8.03228 17.9374 8.25037
324 2 2.2208 10.9459 20.9003 8.012
111 1 -1.1104 6.71179 13.7302 6.77123
350 2 2.2208 10.9838 4.16262 13.7819
338 2 2.2208 5.42604 -1.59135 13.7972
362 2 2.2208 8.19285 18.1152 13.5979
382 2 2.2208 -0.202462 12.5414 -0.287317
342 2 2.2208 -0.213104 15.2498 13.5879
364 2 2.2208 5.13794 1.22284 -0.216487
357 2 2.2208 2.62264 18.1379 13.7641
369 2 2.2208 10.8771 1.34667 -0.197008
386 2 2.2208 10.9731 12.5379 -0.324082
348 2 2.2208 10.9497 18.1662 -0.374639
334 2 2.2208 -0.226161 -1.48168 13.7665
337 2 2.2208 -0.323667 4.096 13.7123
388 2 2.2208 5.40495 1.24599 16.6508
389 1 -1.1104 1.12403 -2.91476 18.0859
390 1 -1.1104 1.12113 2.80178 17.8161
393 1 -1.1104 1.09448 -2.88252 15.1409
395 1 -1.1104 1.04654 2.77842 15.1268
401 1 -1.1104 1.14118 -0.0315391 17.863
403 2 2.2208 5.35061 -1.55612 19.3123
404 2 2.2208 5.4184 4.11795 19.4039
405 1 -1.1104 1.14594 -0.0763015 15.1826
409 1 -1.1104 3.90402 -2.91595 18.0883
410 1 -1.1104 3.98862 2.74453 17.9507
411 2 2.2208 2.57192 1.41628 19.2879
412 1 -1.1104 3.93586 -2.92552 15.2424
414 1 -1.1104 3.80625 2.72133 15.1451
416 2 2.2208 2.58523 -1.43567 16.6438
417 2 2.2208 2.44781 4.12939 16.5204
418 1 -1.1104 4.10433 -0.0277509 18.0157
419 1 -1.1104 3.95056 -0.140679 15.153
427 2 2.2208 -0.206381 4.17028 19.3659
8516 2 2.2208 8.14758 -4.25976 25.0212
341 2 2.2208 5.26663 4.05101 13.7037
415 1 -1.1104 3.8407 2.83415 20.6756
424 2 2.2208 -0.318849 1.36624 16.5267
425 2 2.2208 -0.225688 -1.47428 19.2807
8553 2 2.2208 5.37049 -4.31347 22.1991
525 2 2.2208 10.8981 15.3288 24.9791
392 1 -1.1104 6.64984 2.80787 17.9396
402 1 -1.1104 6.81451 0.0024035 18.0097
407 1 -1.1104 6.75437 -0.159582 15.1471
399 1 -1.1104 6.63336 2.71545 15.0557
391 1 -1.1104 6.57723 -2.89504 17.8198
397 1 -1.1104 6.808 -2.87863 15.1517
431 2 2.2208 10.9282 1.27984 16.459
432 1 -1.1104 12.2982 -2.81968 17.9549
433 1 -1.1104 12.2978 2.7728 17.803
434 1 -1.1104 12.5074 -2.96901 15.1223
436 1 -1.1104 12.3733 2.59267 15.1356
438 1 -1.1104 12.2749 -0.00862197 17.959
439 2 2.2208 10.8999 -1.51221 19.3564
440 2 2.2208 10.9927 4.09516 19.2221
441 1 -1.1104 12.3218 -0.179226 15.0833
443 1 -1.1104 9.37787 -2.9148 17.9807
444 1 -1.1104 9.49796 2.82955 17.8756
445 2 2.2208 8.10318 1.3849 19.3814
446 1 -1.1104 9.58838 -2.91377 15.1736
448 1 -1.1104 9.55554 2.71943 15.2053
450 2 2.2208 8.0348 -1.45704 16.5963
452 1 -1.1104 9.54008 -0.083279 17.8663
453 1 -1.1104 9.52611 -0.234942 15.1116
451 2 2.2208 8.03349 4.19632 16.4454
454 1 -1.1104 9.45923 -0.0721238 20.8443
615 2 2.2208 8.17736 15.2292 22.1235
435 1 -1.1104 12.5281 -2.74383 20.6052
8454 2 2.2208 8.16982 -4.32135 13.8767
622 2 2.2208 -0.317592 9.81583 19.4423
464 2 2.2208 5.25432 6.92255 16.4881
465 2 2.2208 5.41983 12.4429 16.5194
466 1 -1.1104 1.03861 8.36527 17.9877
468 1 -1.1104 1.13503 8.30849 15.073
472 1 -1.1104 1.01879 5.55464 17.8416
473 1 -1.1104 1.29473 11.1478 17.972
476 2 2.2208 5.38755 9.74618 19.2478
477 1 -1.1104 1.10509 5.53628 15.1143
479 1 -1.1104 1.18312 11.105 15.1496
485 1 -1.1104 3.77776 8.13856 17.8188
486 2 2.2208 2.41589 6.79967 19.2746
487 2 2.2208 2.62137 12.5096 19.2611
488 1 -1.1104 3.90204 8.20537 15.0043
490 2 2.2208 2.58014 9.6305 16.5525
491 1 -1.1104 4.03441 5.57059 18.0242
492 1 -1.1104 4.0447 11.0264 17.8226
493 1 -1.1104 3.68088 5.41972 15.1805
495 1 -1.1104 3.90943 10.9282 15.2278
621 2 2.2208 -0.375798 6.92166 16.6666
8586 2 2.2208 2.54038 -4.2825 19.4356
648 2 2.2208 -0.162737 12.5854 16.3554
489 1 -1.1104 3.9211 8.29164 20.6319
480 1 -1.1104 1.06185 11.0545 20.8479
478 1 -1.1104 1.09729 5.53 20.8818
8622 2 2.2208 5.29409 -4.37559 16.6149
569 1 -1.1104 12.3559 19.5544 20.708
481 1 -1.1104 6.61235 5.49723 15.14
475 1 -1.1104 6.90076 11.0529 17.9337
470 1 -1.1104 6.80471 8.28992 15.0685
483 1 -1.1104 6.78814 11.1441 15.1621
474 1 -1.1104 6.68686 5.60069 18.0122
471 1 -1.1104 6.75974 8.26793 20.5586
467 1 -1.1104 6.70152 8.42253 17.7946
500 2 2.2208 10.9646 7.00357 16.4062
501 2 2.2208 10.9188 12.5836 16.5402
502 1 -1.1104 12.497 8.32621 18.0145
503 1 -1.1104 12.4587 8.33812 15.0497
505 1 -1.1104 12.3685 5.60315 17.823
506 1 -1.1104 12.3642 11.1045 17.9772
507 2 2.2208 10.9931 9.7402 19.2411
508 1 -1.1104 12.4334 5.48154 15.0975
510 1 -1.1104 12.2588 11.1628 15.1761
512 1 -1.1104 9.58241 8.42551 17.9055
513 2 2.2208 8.16227 6.97352 19.3962
514 2 2.2208 8.1511 12.5213 19.4147
515 1 -1.1104 9.67174 8.38642 15.0916
517 2 2.2208 8.20325 9.73298 16.59
518 1 -1.1104 9.54297 5.85081 17.8666
519 1 -1.1104 9.57943 11.1254 17.9403
520 1 -1.1104 9.44539 5.60099 15.0362
522 1 -1.1104 9.54798 11.1895 15.2626
509 1 -1.1104 12.334 5.57001 20.7401
516 1 -1.1104 9.55434 8.32122 20.7646
504 1 -1.1104 12.2765 8.30828 20.7704
511 1 -1.1104 12.3299 11.124 20.8421
523 1 -1.1104 9.46254 11.1793 20.7878
482 1 -1.1104 6.8769 5.48915 20.8166
620 1 -1.1104 9.44143 16.5286 26.3138
462 2 2.2208 11.0045 18.1066 22.2809
456 2 2.2208 -0.246059 18.1478 16.5917
527 2 2.2208 5.29635 18.0839 16.5892
528 1 -1.1104 1.19919 14.0134 17.9061
529 1 -1.1104 1.05434 19.602 17.7287
532 1 -1.1104 1.17881 13.9893 15.0936
534 1 -1.1104 1.20238 19.6301 15.0638
540 1 -1.1104 1.16573 16.7238 17.8943
542 2 2.2208 5.46737 15.264 19.4546
543 2 2.2208 5.30322 20.9342 19.4095
544 1 -1.1104 1.08877 16.7357 15.1726
548 1 -1.1104 4.02295 13.7814 17.9718
549 1 -1.1104 3.83419 19.4587 17.9228
550 2 2.2208 2.62825 18.0072 19.3363
551 1 -1.1104 3.98508 13.8895 15.1237
553 1 -1.1104 3.92042 19.594 15.175
555 2 2.2208 2.58113 15.354 16.6405
556 2 2.2208 2.63567 20.9236 16.4431
557 1 -1.1104 4.01184 16.6826 18.0939
558 1 -1.1104 3.84158 16.7699 15.2606
545 1 -1.1104 1.05043 16.6816 20.6864
552 1 -1.1104 3.81836 13.7148 20.8019
457 2 2.2208 -0.226758 15.225 19.2379
458 2 2.2208 -0.29335 20.9216 19.2084
533 1 -1.1104 1.2406 13.9117 20.7434
535 1 -1.1104 1.16154 19.6488 20.6428
554 1 -1.1104 3.92435 19.4662 20.872
463 1 -1.1104 12.2161 13.861 23.57
546 1 -1.1104 6.78087 16.6332 15.0583
530 1 -1.1104 6.78102 13.8795 18.022
541 1 -1.1104 6.69297 16.6444 17.904
538 1 -1.1104 6.65987 19.4901 15.1974
539 1 -1.1104 6.65388 19.4473 20.6977
531 1 -1.1104 6.78184 19.4704 17.9873
536 1 -1.1104 6.72638 13.8832 15.1279
579 1 -1.1104 9.61492 13.8863 20.6118
563 2 2.2208 10.9282 18.0579 16.4864
564 1 -1.1104 12.3888 13.8215 18.1215
565 1 -1.1104 12.4031 19.5119 17.9248
566 1 -1.1104 12.3935 13.9752 15.1584
568 1 -1.1104 12.3407 19.5768 15.1706
570 1 -1.1104 12.1217 16.6199 17.8074
571 2 2.2208 10.9157 15.2465 19.3257
572 2 2.2208 11.0218 20.8948 19.1489
573 1 -1.1104 12.3061 16.9535 14.9753
575 1 -1.1104 9.53566 13.9233 17.907
576 1 -1.1104 9.51901 19.5739 17.738
577 2 2.2208 8.24766 18.1562 19.3084
578 1 -1.1104 9.66002 13.8553 15.1882
580 1 -1.1104 9.44885 19.6422 14.947
582 2 2.2208 8.19811 15.3258 16.5308
583 2 2.2208 8.07801 20.871 16.5806
584 1 -1.1104 9.53903 16.7853 17.9744
585 1 -1.1104 9.57137 16.6464 15.2624
586 1 -1.1104 9.44534 16.661 20.8563
547 1 -1.1104 6.82436 16.6347 20.7956
8517 2 2.2208 11.095 -4.32136 22.1567
394 1 -1.1104 1.11764 -2.85077 20.6742
420 1 -1.1104 3.92135 -0.163623 20.4885
396 1 -1.1104 1.2498 2.71348 20.7425
413 1 -1.1104 4.0304 -2.83381 20.8969
406 1 -1.1104 1.03616 -0.0120826 20.7081
714 1 -1.1104 6.76273 16.6584 26.3575
626 2 2.2208 -0.400075 4.1317 25.0479
625 2 2.2208 -0.297702 1.39381 22.1129
591 2 2.2208 5.23898 1.24987 22.1377
592 1 -1.1104 0.847304 -2.67359 23.4583
593 1 -1.1104 1.03625 2.7667 23.5741
596 1 -1.1104 1.19557 -2.89443 26.2966
597 1 -1.1104 1.03313 2.77897 26.4151
600 1 -1.1104 1.1812 0.0533209 23.502
602 2 2.2208 5.3079 -1.59679 24.9941
603 2 2.2208 5.33961 4.07286 25.0705
604 1 -1.1104 1.08386 -0.0385039 26.4051
606 1 -1.1104 3.80572 -2.90887 23.5979
607 1 -1.1104 3.96296 2.74018 23.4072
608 2 2.2208 2.53586 1.38028 24.9053
609 1 -1.1104 4.01556 -3.0229 26.5148
610 1 -1.1104 3.82045 2.67305 26.2266
611 2 2.2208 2.46142 -1.38957 22.0844
612 2 2.2208 2.53048 4.19741 22.1758
613 1 -1.1104 3.91321 -0.163012 23.3913
614 1 -1.1104 3.83174 -0.11468 26.1457
624 2 2.2208 -0.269566 -1.33806 24.9452
617 1 -1.1104 9.49385 16.8124 23.5933
616 2 2.2208 8.1775 20.9176 22.0623
408 1 -1.1104 6.54816 -0.237792 20.7499
398 1 -1.1104 6.8537 -2.98892 20.6971
449 1 -1.1104 9.56248 2.69926 20.7141
400 1 -1.1104 6.73207 2.70854 20.7425
442 1 -1.1104 12.2382 0.0860196 20.6612
447 1 -1.1104 9.70363 -2.95978 20.6987
437 1 -1.1104 12.4015 2.90663 20.6772
594 1 -1.1104 6.76979 -2.88402 23.6203
599 1 -1.1104 6.53289 2.58468 26.2197
605 1 -1.1104 6.62464 -0.134041 26.4072
595 1 -1.1104 6.75638 2.75935 23.5724
598 1 -1.1104 6.68625 -2.97057 26.34
601 1 -1.1104 6.61516 -0.187489 23.573
627 2 2.2208 10.9689 1.34297 22.1316
628 1 -1.1104 12.2781 -2.93058 23.4901
629 1 -1.1104 12.4005 2.56011 23.5756
630 1 -1.1104 12.4254 -2.90141 26.3635
631 1 -1.1104 12.2965 2.68988 26.3813
632 1 -1.1104 12.3826 -0.206617 23.5075
633 2 2.2208 10.9039 -1.42885 24.9406
634 2 2.2208 11.0482 4.07724 24.962
635 1 -1.1104 12.4895 -0.00951309 26.2487
636 1 -1.1104 9.56314 -2.83526 23.5231
637 1 -1.1104 9.60029 2.76282 23.5337
638 2 2.2208 7.97542 1.29828 24.924
639 1 -1.1104 9.57632 -2.7323 26.3419
640 1 -1.1104 9.43838 2.72848 26.3492
641 2 2.2208 8.06455 -1.46551 22.2247
642 2 2.2208 8.31729 4.21708 22.2585
643 1 -1.1104 9.4804 -0.0310666 23.627
644 1 -1.1104 9.49899 0.0634107 26.4061
499 1 -1.1104 12.3063 19.5867 26.2329
8623 2 2.2208 -0.257836 -4.16515 16.4862
494 1 -1.1104 3.84774 5.67687 20.6244
469 1 -1.1104 1.14392 8.28649 20.7151
496 1 -1.1104 3.97508 11.068 20.666
685 2 2.2208 -0.172901 12.5879 22.1049
684 2 2.2208 -0.258802 9.68556 25.0137
656 2 2.2208 5.30736 6.94388 22.1128
657 2 2.2208 5.33169 12.4247 22.0464
658 1 -1.1104 1.02474 8.42387 23.5264
660 1 -1.1104 1.18275 8.38557 26.3159
662 1 -1.1104 1.07964 5.50098 23.6059
663 1 -1.1104 0.832564 11.2185 23.7197
666 2 2.2208 5.17323 9.65346 24.7825
667 1 -1.1104 1.0265 5.58038 26.3409
668 1 -1.1104 1.09541 11.2642 26.4486
671 1 -1.1104 4.00035 8.40121 23.4496
672 2 2.2208 2.41975 6.93362 24.8239
673 2 2.2208 2.43992 12.5973 24.9303
674 1 -1.1104 3.86489 8.34251 26.3233
675 2 2.2208 2.52173 9.73541 22.1076
676 1 -1.1104 3.81465 5.60648 23.5121
677 1 -1.1104 3.85561 11.0547 23.4255
678 1 -1.1104 3.93327 5.48388 26.278
679 1 -1.1104 3.77268 11.2737 26.2115
421 2 2.2208 -0.393331 6.92684 22.1926
379 2 2.2208 5.37664 6.88903 27.53
560 1 -1.1104 12.1493 16.818 26.3142
680 1 -1.1104 6.70463 16.7506 23.5151
484 1 -1.1104 6.73821 11.1934 20.569
521 1 -1.1104 9.52063 5.43738 20.7682
669 1 -1.1104 6.88641 5.35514 26.2789
664 1 -1.1104 6.79302 5.5793 23.5137
661 1 -1.1104 6.92836 8.3193 26.1918
659 1 -1.1104 6.72195 8.26781 23.4049
670 1 -1.1104 6.61109 11.1733 26.1289
665 1 -1.1104 6.67198 11.0837 23.4074
687 1 -1.1104 9.46388 10.9939 26.2954
688 1 -1.1104 9.67964 5.38387 26.0919
689 1 -1.1104 9.52337 11.1581 23.604
690 1 -1.1104 9.63764 5.51603 23.5186
691 2 2.2208 8.13779 9.749 22.1528
692 1 -1.1104 9.74037 8.08329 26.2265
693 2 2.2208 8.09128 12.545 24.8137
694 2 2.2208 8.18221 6.85254 24.8002
695 2 2.2208 10.9483 6.88233 22.0466
696 2 2.2208 11.035 12.4877 22.1466
697 1 -1.1104 12.4194 8.27952 23.4393
698 1 -1.1104 12.4039 8.38467 26.2057
699 1 -1.1104 12.342 5.44058 23.4134
700 1 -1.1104 12.306 11.0736 23.594
701 2 2.2208 10.9942 9.65956 24.9462
702 1 -1.1104 12.4214 5.62849 26.2987
703 1 -1.1104 12.3302 11.2473 26.3645
704 1 -1.1104 9.56013 8.26345 23.4485
709 1 -1.1104 6.77322 13.9926 23.4765
588 1 -1.1104 6.81244 19.3723 26.3035
590 1 -1.1104 9.48656 19.3455 26.3034
497 1 -1.1104 12.3988 19.3996 23.3833
645 2 2.2208 -0.188093 20.9627 24.9974
559 1 -1.1104 3.90959 16.6551 20.7516
646 2 2.2208 -0.276344 15.415 24.9861
647 2 2.2208 2.54026 15.3134 22.1137
649 2 2.2208 2.54222 20.9738 22.0793
652 1 -1.1104 4.00766 16.6278 23.4961
655 1 -1.1104 1.36427 16.5828 23.483
681 1 -1.1104 3.83596 13.9329 26.2161
682 1 -1.1104 3.82827 16.6751 26.4255
683 2 2.2208 2.52208 18.04 24.9513
686 1 -1.1104 4.00746 19.5335 26.4673
705 2 2.2208 5.34152 18.1559 22.1403
706 1 -1.1104 1.04723 13.9767 23.5658
707 1 -1.1104 1.17973 19.4933 23.4061
711 1 -1.1104 3.90893 19.3849 23.7392
713 1 -1.1104 3.90995 13.8166 23.5668
715 1 -1.1104 1.12472 19.5448 26.2619
716 1 -1.1104 1.13078 16.796 26.3732
717 1 -1.1104 1.12227 14.0166 26.4068
719 2 2.2208 5.34774 20.7904 24.9709
720 2 2.2208 5.32959 15.2708 24.8896
623 2 2.2208 -0.324764 18.2448 22.1231
562 1 -1.1104 9.58105 19.5734 23.4759
587 2 2.2208 8.11467 18.0415 24.9433
498 1 -1.1104 12.4614 14.0546 26.3408
718 1 -1.1104 6.80383 19.5544 23.4594
712 1 -1.1104 6.73159 13.9426 26.2621
526 2 2.2208 10.9844 20.8188 24.8363
567 1 -1.1104 12.3845 13.9498 20.69
581 1 -1.1104 9.47143 19.5181 20.7387
537 1 -1.1104 6.79228 13.8515 20.7351
561 1 -1.1104 9.54904 13.9997 23.5185
589 1 -1.1104 9.45833 13.773 26.3373
524 1 -1.1104 12.326 16.6474 23.5547
574 1 -1.1104 12.2524 16.6733 20.7405
368 2 2.2208 -0.335452 1.4186 27.7435
365 2 2.2208 2.49541 -1.38242 27.821
8554 2 2.2208 -0.199179 -4.22817 22.1604
360 2 2.2208 10.998 21.0011 13.7573
335 2 2.2208 -0.215377 20.919 13.7251
358 2 2.2208 5.46873 20.9541 13.6953
346 2 2.2208 10.9168 -1.62339 13.761
380 2 2.2208 2.6069 9.67803 27.7575
339 2 2.2208 2.47575 1.35489 13.7765
373 2 2.2208 2.49373 15.2606 27.7907
374 2 2.2208 5.37728 18.0149 27.7966
370 2 2.2208 8.21962 -1.50576 27.7702
347 2 2.2208 8.04534 15.1614 27.8196
352 2 2.2208 5.29407 9.68796 13.7793
384 2 2.2208 11.025 6.78825 27.7207
385 2 2.2208 8.30088 9.64969 27.6175
381 2 2.2208 5.26093 12.477 27.6251
383 2 2.2208 -0.385432 6.87263 27.7328
355 2 2.2208 10.9624 9.76692 13.6764
354 2 2.2208 8.17155 6.87144 13.6963
361 2 2.2208 10.9693 15.3165 13.7338
359 2 2.2208 5.23869 15.3404 13.7717
8458 2 2.2208 2.55423 -4.27289 13.7195
351 2 2.2208 2.45456 6.85212 13.7099
367 2 2.2208 -0.207774 9.729 13.665
353 2 2.2208 2.5089 12.5116 13.7983
721 2 2.2208 5.36967 23.6241 5.20567
722 2 2.2208 5.3807 29.3645 5.29992
723 1 -1.1104 1.13314 24.9952 1.1205
724 1 -1.1104 1.26046 25.1049 3.73232
725 1 -1.1104 1.09456 22.2873 1.11562
726 1 -1.1104 1.06259 27.8571 1.16567
727 2 2.2208 5.40182 26.4932 2.3589
728 1 -1.1104 1.14738 22.3505 3.95157
729 1 -1.1104 1.24449 27.9272 3.91169
730 1 -1.1104 3.90897 25.183 1.03565
731 2 2.2208 2.66243 23.6173 2.50877
732 2 2.2208 2.57445 29.2147 2.48887
733 1 -1.1104 4.06474 25.0189 3.84974
734 2 2.2208 2.57839 26.3774 5.20902
735 1 -1.1104 4.15944 22.1999 1.16161
736 1 -1.1104 3.89572 27.9113 1.0386
737 1 -1.1104 4.02889 22.0277 3.94367
738 1 -1.1104 4.01186 27.8048 3.89476
1052 2 2.2208 13.679 40.3925 8.07642
739 2 2.2208 -0.238845 29.3168 5.15929
741 2 2.2208 -0.139545 26.384 2.38826
740 2 2.2208 -0.286196 23.6508 5.29773
870 1 -1.1104 3.96354 28.0513 6.69853
868 1 -1.1104 3.99903 25.1753 6.74276
1088 2 2.2208 -0.220302 29.2891 -0.298766
839 2 2.2208 -0.301821 43.2214 2.44293
747 1 -1.1104 6.84128 27.9905 3.90001
746 1 -1.1104 6.88225 22.2797 3.79636
742 1 -1.1104 6.77417 25.1775 1.06352
744 1 -1.1104 6.72229 22.2723 0.960431
743 1 -1.1104 6.80523 25.0075 3.78647
745 1 -1.1104 6.71886 28.0009 1.13188
748 2 2.2208 10.9366 23.7326 5.23779
749 2 2.2208 11.055 29.4061 5.08222
750 1 -1.1104 12.4589 25.1843 1.03294
751 1 -1.1104 12.5404 25.29 3.76975
752 1 -1.1104 12.3093 22.4419 0.989764
753 1 -1.1104 12.4033 27.9618 0.85058
754 2 2.2208 11.0329 26.5474 2.45479
755 1 -1.1104 12.2665 22.3607 4.04217
756 1 -1.1104 12.4883 28.0553 3.64768
757 1 -1.1104 9.58945 25.1314 0.999579
758 2 2.2208 8.17857 23.6555 2.38949
759 2 2.2208 8.17345 29.3531 2.44688
760 1 -1.1104 9.48376 25.0921 3.79782
761 2 2.2208 8.15786 26.4713 5.24017
762 1 -1.1104 9.61257 22.3385 1.05437
763 1 -1.1104 9.58922 27.9602 1.0806
764 1 -1.1104 9.57648 22.3424 3.95457
765 1 -1.1104 9.56802 27.9871 3.77602
866 1 -1.1104 6.80209 22.3522 6.64365
896 1 -1.1104 12.4278 22.3266 6.62682
898 1 -1.1104 9.56352 25.157 6.71124
1090 2 2.2208 10.9724 23.7859 -0.403506
1024 2 2.2208 11.0143 43.3012 8.02367
769 2 2.2208 5.41586 34.9639 5.23823
770 1 -1.1104 1.19901 30.5189 0.845475
771 1 -1.1104 1.22024 36.3801 1.1439
773 1 -1.1104 1.11387 30.7959 3.73875
774 1 -1.1104 1.26885 36.3246 3.83937
776 1 -1.1104 1.02246 33.5272 0.880906
777 2 2.2208 5.36949 32.1929 2.33591
778 2 2.2208 5.34049 37.7907 2.36965
779 1 -1.1104 1.09818 33.563 3.75386
781 1 -1.1104 3.94518 30.6521 1.16925
782 1 -1.1104 3.88574 36.467 1.03193
783 2 2.2208 2.56173 34.9972 2.38833
784 1 -1.1104 3.91364 30.6626 3.74257
785 1 -1.1104 3.91253 36.3237 3.74287
786 2 2.2208 2.6151 32.1819 5.23847
787 2 2.2208 2.53115 37.6787 5.20397
788 1 -1.1104 3.90998 33.5783 1.03496
789 1 -1.1104 3.92451 33.533 3.78083
925 1 -1.1104 4.01926 30.9503 6.57811
791 2 2.2208 -0.221416 32.071 2.37987
1103 2 2.2208 2.47226 43.3946 -0.436986
772 1 -1.1104 6.81424 36.5412 0.886932
792 2 2.2208 -0.198169 34.9112 5.21184
1026 1 -1.1104 12.3548 39.0686 12.4673
794 1 -1.1104 6.64079 30.7954 3.90662
793 1 -1.1104 6.8171 30.773 1.15235
1101 2 2.2208 10.957 34.9427 -0.414754
775 1 -1.1104 6.86065 36.3969 3.82713
922 1 -1.1104 6.75637 36.3469 6.7613
780 1 -1.1104 6.74148 33.7141 3.67174
795 1 -1.1104 6.72176 33.4492 0.918944
796 2 2.2208 10.9447 34.934 5.20455
797 1 -1.1104 12.3484 30.5508 0.914918
798 1 -1.1104 12.2406 36.3393 0.957209
799 1 -1.1104 12.5045 30.7263 3.65817
800 1 -1.1104 12.282 36.2939 3.74869
801 1 -1.1104 12.4198 33.3213 1.11976
802 2 2.2208 10.9276 32.0874 2.34888
803 2 2.2208 10.8837 37.7715 2.49445
804 1 -1.1104 12.2954 33.5438 3.84163
805 1 -1.1104 9.57843 30.6545 0.963705
806 1 -1.1104 9.55893 36.4278 0.859535
807 2 2.2208 8.10717 34.9704 2.33747
808 1 -1.1104 9.53905 30.7724 3.83193
809 1 -1.1104 9.53029 36.4895 3.81288