ITEM: TIMESTEP
100000
ITEM: NUMBER OF ATOMS
17910
ITEM: BOX BOUNDS pp pp pp
-3.5560512652071530e-01 2.7695605126521624e+01
-4.3371359190207626e+00 3.3241713591902277e+02
-3.5574178531499367e-01 2.7695741785315217e+01
ITEM: ATOMS id type q x y z
1 2 2.2208 5.16115 1.21236 5.28503
2 1 -1.1104 0.889081 -3.06982 1.01593
3 1 -1.1104 0.942893 2.69801 1.01502
6 1 -1.1104 0.964908 -2.95544 3.84136
7 1 -1.1104 0.824743 2.65364 3.95243
10 1 -1.1104 1.01827 -0.153518 0.928692
12 2 2.2208 5.07719 -1.44951 2.41395
14 1 -1.1104 0.877481 -0.0498102 3.65495
16 1 -1.1104 3.64241 -2.94528 0.987912
17 1 -1.1104 3.79652 2.60588 1.11642
18 2 2.2208 2.329 1.35696 2.44606
19 1 -1.1104 3.76149 -3.05496 3.9144
20 1 -1.1104 3.74534 2.79744 3.96818
21 2 2.2208 2.3811 -1.61005 5.237
22 2 2.2208 2.30117 4.08887 5.33007
23 1 -1.1104 3.7422 -0.0764925 1.0568
24 1 -1.1104 3.63642 -0.0117473 3.93514
13 2 2.2208 5.11741 3.96667 2.56118
15 1 -1.1104 6.35879 -0.115401 3.74806
169 1 -1.1104 6.51311 2.70575 6.70675
8431 2 2.2208 2.27339 -4.4436 2.46007
4 1 -1.1104 6.61759 -2.91063 1.20802
365 2 2.2208 2.33989 -1.63158 -0.370474
11 1 -1.1104 6.66557 -0.132524 1.17968
8 1 -1.1104 6.49763 -2.92254 3.90967
9 1 -1.1104 6.55484 2.58868 3.7798
8438 2 2.2208 5.0505 -4.37337 10.7397
8432 2 2.2208 5.16413 -4.48516 5.15118
5 1 -1.1104 6.61298 2.57598 1.0788
336 2 2.2208 13.5338 6.88258 13.7881
31 2 2.2208 10.7458 1.29581 5.32804
32 1 -1.1104 12.2776 -2.88282 1.10673
33 1 -1.1104 12.0792 2.76901 0.990226
34 1 -1.1104 12.2408 -2.99932 4.01458
35 1 -1.1104 12.2312 2.69113 3.74973
36 1 -1.1104 12.074 -0.120064 1.08389
37 2 2.2208 10.7978 -1.52091 2.57345
39 1 -1.1104 11.9857 -0.0533562 3.87618
40 1 -1.1104 9.48172 -3.00145 1.19844
41 1 -1.1104 9.28506 2.60386 1.22281
42 2 2.2208 7.95393 1.2664 2.59337
43 1 -1.1104 9.40005 -2.95839 3.90043
44 1 -1.1104 9.25292 2.80359 3.99688
45 2 2.2208 7.88319 -1.72553 5.33169
47 1 -1.1104 9.52485 -0.287762 0.935467
48 1 -1.1104 9.09529 -0.202637 3.97236
46 2 2.2208 7.96841 4.10045 5.41754
210 1 -1.1104 9.37867 -0.199049 6.66345
135 2 2.2208 -0.336968 15.207 2.44418
208 1 -1.1104 9.46744 -3.06698 6.72284
369 2 2.2208 10.8187 1.28636 -0.322914
49 2 2.2208 13.5938 1.45495 2.45463
38 2 2.2208 10.7407 4.12745 2.47599
233 2 2.2208 13.5823 4.01676 5.26974
231 2 2.2208 13.8031 20.8956 5.16511
370 2 2.2208 8.04265 -1.64593 -0.240922
54 2 2.2208 5.19738 6.84236 5.3057
55 2 2.2208 5.22445 12.4669 5.33158
56 1 -1.1104 1.03146 8.20244 1.19279
58 1 -1.1104 0.776774 8.33458 3.90539
60 1 -1.1104 0.985906 5.41754 1.12476
61 1 -1.1104 0.859183 10.9436 0.973189
66 2 2.2208 5.14045 9.65536 2.59046
67 1 -1.1104 0.950716 5.48999 3.91229
68 1 -1.1104 0.9519 11.1484 3.83719
71 1 -1.1104 3.79355 8.19914 1.21983
72 2 2.2208 2.41414 6.83485 2.54383
73 2 2.2208 2.37994 12.531 2.55121
74 1 -1.1104 3.70999 8.3236 4.02393
75 2 2.2208 2.38774 9.745 5.32321
76 1 -1.1104 3.74822 5.424 1.01673
77 1 -1.1104 3.65092 10.9888 1.27091
79 1 -1.1104 3.72058 5.61442 3.85978
80 1 -1.1104 3.75713 11.1039 3.98114
69 1 -1.1104 6.45402 5.43071 4.03419
78 1 -1.1104 3.88049 10.9815 6.82968
64 1 -1.1104 6.60946 11.0315 1.00741
70 1 -1.1104 6.70586 11.2192 3.93602
380 2 2.2208 2.33066 9.53837 -0.198662
63 1 -1.1104 6.36865 5.30442 1.10671
59 1 -1.1104 6.64192 8.34578 3.92765
235 1 -1.1104 6.54134 8.26587 6.77289
237 1 -1.1104 6.55261 5.36246 6.79014
57 1 -1.1104 6.46955 8.25512 1.25698
84 2 2.2208 10.9002 6.73536 5.35034
85 2 2.2208 10.6833 12.6241 5.44175
86 1 -1.1104 12.2899 8.3062 1.14587
87 1 -1.1104 12.2745 8.39294 3.85348
88 1 -1.1104 12.0953 5.51063 1.28007
89 1 -1.1104 12.3016 11.0983 1.10485
91 2 2.2208 10.8823 9.72109 2.37961
92 1 -1.1104 12.2006 5.56443 3.98268
93 1 -1.1104 12.169 11.1847 3.88756
94 1 -1.1104 9.36104 8.32479 1.15864
95 2 2.2208 7.90087 6.82615 2.46995
96 2 2.2208 7.94141 12.6067 2.65775
97 1 -1.1104 9.41573 8.19746 3.89463
98 2 2.2208 8.01378 9.68279 5.29088
99 1 -1.1104 9.2897 5.40059 1.11381
100 1 -1.1104 9.45977 11.1184 1.09393
102 1 -1.1104 9.42439 5.33463 3.84542
103 1 -1.1104 9.26428 11.0878 4.03587
101 1 -1.1104 9.39951 11.058 6.83109
232 2 2.2208 13.5354 9.74375 5.32314
104 2 2.2208 13.6031 12.4615 2.55141
105 2 2.2208 13.5442 6.96935 2.54294
65 1 -1.1104 6.57408 11.115 6.76256
269 1 -1.1104 9.35018 5.34084 6.71604
90 1 -1.1104 12.1414 11.0879 6.80419
106 2 2.2208 5.12711 18.0668 5.34524
107 1 -1.1104 0.982925 13.8418 1.12268
109 1 -1.1104 0.985777 19.429 1.12557
113 1 -1.1104 0.889458 13.9269 4.03017
114 1 -1.1104 1.05367 19.4293 4.00165
116 1 -1.1104 0.931191 16.6592 0.964918
119 2 2.2208 5.05437 15.2013 2.68912
120 2 2.2208 5.44178 20.8873 2.5121
121 1 -1.1104 1.01728 16.7698 3.83431
123 1 -1.1104 3.82527 13.7221 1.11356
125 1 -1.1104 3.92652 19.4416 1.00648
127 2 2.2208 2.4838 18.1886 2.36259
128 1 -1.1104 3.71146 13.8783 4.04797
129 1 -1.1104 3.90697 19.4945 3.91304
130 2 2.2208 2.33139 15.3022 5.331
131 2 2.2208 2.61506 20.9168 5.22439
132 1 -1.1104 3.75726 16.5747 1.32607
134 1 -1.1104 3.69911 16.8442 3.99303
115 1 -1.1104 6.50234 13.8358 4.17357
110 1 -1.1104 6.49044 13.8751 1.31704
204 2 2.2208 13.5374 15.3171 5.22325
140 1 -1.1104 6.81091 16.7785 1.0967
112 1 -1.1104 6.60963 19.3792 6.7803
133 1 -1.1104 3.68131 16.4737 6.73581
117 1 -1.1104 0.925873 16.6935 6.74164
126 1 -1.1104 3.82769 19.3414 6.71222
302 1 -1.1104 1.0059 19.6113 6.65224
156 1 -1.1104 9.58405 19.4418 6.78019
139 1 -1.1104 6.97122 19.4182 4.04756
138 1 -1.1104 6.68415 19.5558 1.25375
145 1 -1.1104 12.5152 19.4998 6.68578
122 1 -1.1104 6.47466 16.5424 3.86888
141 2 2.2208 10.9033 18.1688 5.43652
142 1 -1.1104 12.0995 14.0858 1.08736
144 1 -1.1104 12.2426 19.4203 1.10298
146 1 -1.1104 12.0975 13.9076 3.8394
147 1 -1.1104 12.3673 19.4465 3.82361
148 1 -1.1104 12.3276 16.8384 1.04378
150 2 2.2208 10.6727 15.4017 2.47618
151 2 2.2208 10.9085 20.9797 2.60453
152 1 -1.1104 12.1346 16.8186 3.87506
153 1 -1.1104 9.2533 13.9781 1.16818
155 1 -1.1104 9.39022 19.4792 1.04062
157 2 2.2208 8.18723 18.1654 2.53719
158 1 -1.1104 9.29909 14.0024 4.04791
159 1 -1.1104 9.60276 19.5687 3.79157
160 2 2.2208 8.01997 15.3787 5.31974
161 2 2.2208 8.15318 20.8381 5.38367
162 1 -1.1104 9.51229 16.7219 1.06093
164 1 -1.1104 9.38131 16.7432 4.09282
154 1 -1.1104 9.402 14.0644 6.82001
378 2 2.2208 13.7303 4.08238 -0.355661
362 2 2.2208 8.06123 18.1154 13.7399
165 2 2.2208 13.5974 17.9845 2.49443
143 1 -1.1104 12.2675 13.8902 6.72306
118 1 -1.1104 6.51739 16.5561 6.70841
329 1 -1.1104 12.2588 19.5528 12.3194
347 2 2.2208 7.94517 15.2667 -0.262223
170 1 -1.1104 0.917585 -0.302342 6.44716
167 1 -1.1104 0.905477 2.51135 6.73231
173 1 -1.1104 3.68752 2.57627 6.79448
166 1 -1.1104 0.948863 -3.01779 6.62576
172 1 -1.1104 3.8459 -2.89747 6.78238
174 1 -1.1104 3.72871 -0.24574 6.8233
175 2 2.2208 5.14425 1.18668 10.8199
176 1 -1.1104 0.928129 -2.98116 12.2795
177 1 -1.1104 1.02158 2.35547 12.2864
180 1 -1.1104 0.918984 -3.04901 9.50769
181 1 -1.1104 0.828223 2.53451 9.45536
184 1 -1.1104 0.896665 -0.315789 12.2888
186 2 2.2208 5.19658 -1.51477 8.05968
188 1 -1.1104 0.940919 -0.225638 9.4312
190 1 -1.1104 3.70822 -3.02459 12.3671
191 1 -1.1104 3.66212 2.70831 12.2529
192 2 2.2208 2.27547 1.18991 8.05148
193 1 -1.1104 3.66868 -2.98321 9.56484
194 1 -1.1104 3.72868 2.57667 9.42538
195 2 2.2208 2.283 -1.57521 10.8894
197 1 -1.1104 3.73747 -0.215894 12.2252
198 1 -1.1104 3.70223 -0.220108 9.5478
187 2 2.2208 5.08479 4.11187 8.14365
196 2 2.2208 2.28639 3.92739 10.9205
168 1 -1.1104 6.61158 -2.96948 6.76532
185 1 -1.1104 6.59946 -0.326148 12.3532
178 1 -1.1104 6.61177 -3.03983 12.1792
183 1 -1.1104 6.60132 2.60702 9.48646
179 1 -1.1104 6.47366 2.48679 12.35
189 1 -1.1104 6.55012 -0.174984 9.55042
28 2 2.2208 13.6236 20.8552 10.9598
319 1 -1.1104 9.31081 13.9075 9.62592
8440 2 2.2208 7.99887 -4.35796 8.14222
171 1 -1.1104 6.46417 -0.192835 6.59791
207 1 -1.1104 12.1827 -0.0812813 6.78984
205 1 -1.1104 12.1837 -2.96231 6.72928
203 2 2.2208 13.6748 4.05184 10.948
206 1 -1.1104 12.1454 2.58213 6.55494
209 1 -1.1104 9.25151 2.55324 6.72044
230 2 2.2208 13.6174 -1.46557 10.8049
182 1 -1.1104 6.53161 -3.01666 9.51709
211 2 2.2208 10.8617 1.28538 10.8363
212 1 -1.1104 12.2143 -2.93284 12.0943
213 1 -1.1104 12.1384 2.63172 12.1843
214 1 -1.1104 12.2107 -3.05009 9.58626
215 1 -1.1104 12.1747 2.60815 9.30712
216 1 -1.1104 12.1743 -0.171866 12.2723
217 2 2.2208 10.8205 -1.60883 8.06621
218 2 2.2208 10.7111 4.07529 8.24656
219 1 -1.1104 12.1823 -0.171365 9.52111
220 1 -1.1104 9.37687 -2.76669 12.2113
221 1 -1.1104 9.43539 2.68297 12.3399
222 2 2.2208 7.85935 1.2638 8.03506
223 1 -1.1104 9.45706 -3.03348 9.44882
224 1 -1.1104 9.46979 2.61605 9.57544
225 2 2.2208 7.90267 -1.50952 10.8685
227 1 -1.1104 9.28251 -0.0494511 12.1771
228 1 -1.1104 9.31001 -0.261841 9.40963
226 2 2.2208 7.9316 3.99493 10.9304
229 2 2.2208 13.555 1.32727 8.02997
238 1 -1.1104 3.95568 8.10246 6.76119
236 1 -1.1104 0.993322 5.47926 6.62898
234 1 -1.1104 1.08522 8.11984 6.65918
239 1 -1.1104 3.73056 5.48447 6.69426
62 1 -1.1104 0.978206 10.9144 6.61606
240 2 2.2208 5.15981 6.8336 10.8783
241 2 2.2208 5.09886 12.4469 10.9364
242 1 -1.1104 0.857539 8.10906 12.2994
244 1 -1.1104 0.824868 8.2303 9.52991
246 1 -1.1104 0.944918 5.26762 12.37
247 1 -1.1104 0.944073 11.0529 12.3137
250 2 2.2208 5.15777 9.50745 8.1234
251 1 -1.1104 0.867647 5.4256 9.44645
252 1 -1.1104 0.863156 10.7879 9.57876
255 1 -1.1104 3.67344 8.18783 12.3961
256 2 2.2208 2.36032 6.73625 8.11826
257 2 2.2208 2.37658 12.552 8.0174
258 1 -1.1104 3.86062 8.21144 9.45567
259 2 2.2208 2.3848 9.64196 11.037
260 1 -1.1104 3.77739 5.53893 12.3753
261 1 -1.1104 3.8053 10.9406 12.4219
262 1 -1.1104 3.66238 5.35281 9.4209
263 1 -1.1104 3.56514 10.9337 9.4912
245 1 -1.1104 6.59786 8.19048 9.57849
30 2 2.2208 -0.45242 9.59352 8.05443
248 1 -1.1104 6.64536 5.34957 12.4256
253 1 -1.1104 6.47497 5.42097 9.57659
254 1 -1.1104 6.43857 11.0698 9.73469
324 2 2.2208 11.1289 20.9091 8.05271
323 1 -1.1104 12.3879 16.6587 9.48414
265 1 -1.1104 12.1745 8.24776 6.73699
243 1 -1.1104 6.54317 8.04486 12.4087
52 2 2.2208 13.4706 9.65866 10.9735
267 1 -1.1104 9.3039 8.17513 6.69157
249 1 -1.1104 6.5624 11.1809 12.4378
266 1 -1.1104 12.1924 5.39984 6.99164
264 1 -1.1104 9.27518 11.0575 9.53972
268 1 -1.1104 9.27301 5.36093 9.65323
270 1 -1.1104 9.24378 11.0188 12.4257
271 1 -1.1104 9.21609 5.3785 12.4074
272 2 2.2208 7.90749 9.5935 10.9901
273 1 -1.1104 9.30049 8.17135 9.66967
274 2 2.2208 7.93644 12.4757 8.22901
275 2 2.2208 7.87323 6.88484 8.0842
276 2 2.2208 10.6057 6.86456 11.0759
277 2 2.2208 10.7114 12.3967 10.9789
278 1 -1.1104 11.9981 8.26255 12.4066
279 1 -1.1104 11.9569 8.22285 9.68518
280 1 -1.1104 11.9967 5.52695 12.4389
281 1 -1.1104 12.1297 10.9817 12.4231
282 2 2.2208 10.8144 9.67198 8.15787
283 1 -1.1104 12.2327 5.30659 9.6243
284 1 -1.1104 12.152 11.0171 9.62316
285 1 -1.1104 9.27773 8.16871 12.3589
202 2 2.2208 13.6927 6.79812 8.11205
356 2 2.2208 7.93099 12.5314 13.6922
322 1 -1.1104 9.28057 14.0176 12.3813
290 1 -1.1104 6.56181 13.894 9.63894
124 1 -1.1104 3.69882 13.8078 6.75828
108 1 -1.1104 0.966858 13.724 6.61641
315 1 -1.1104 9.41008 16.7335 12.4044
310 2 2.2208 2.4271 15.2425 10.8983
309 2 2.2208 2.39891 20.8512 10.8907
286 1 -1.1104 3.83481 19.4978 12.207
300 2 2.2208 5.17916 18.0572 10.9807
299 1 -1.1104 0.894147 13.843 12.2774
308 1 -1.1104 3.70521 16.725 12.431
298 1 -1.1104 0.959579 19.541 12.3042
304 1 -1.1104 3.8212 16.6157 9.58712
303 2 2.2208 2.40641 18.0989 8.17241
292 1 -1.1104 1.10594 16.5216 9.44592
295 2 2.2208 5.2295 15.2023 8.13245
307 1 -1.1104 0.932662 16.8374 12.2835
301 1 -1.1104 3.68896 19.5324 9.51897
291 1 -1.1104 1.02757 19.3842 9.51403
305 1 -1.1104 3.69295 13.9238 9.40157
287 1 -1.1104 3.74722 13.9121 12.3247
294 1 -1.1104 1.01207 13.6673 9.53863
293 2 2.2208 5.27437 20.8296 8.06806
306 1 -1.1104 6.70979 16.861 12.4825
288 1 -1.1104 6.59546 19.4848 9.50475
289 1 -1.1104 6.48188 16.7531 9.73875
111 1 -1.1104 6.55022 13.8819 6.8541
327 1 -1.1104 12.3459 19.5221 9.44815
320 2 2.2208 8.10585 18.0657 8.18801
149 1 -1.1104 12.1224 16.7627 6.8025
330 1 -1.1104 12.1439 13.7734 12.3051
326 1 -1.1104 12.1861 16.7262 12.1965
297 1 -1.1104 6.39752 13.9519 12.4
314 1 -1.1104 9.46263 16.812 9.54453
318 1 -1.1104 9.46562 19.6069 9.58654
325 2 2.2208 10.7849 15.4007 8.26194
328 1 -1.1104 12.046 13.7818 9.51478
316 2 2.2208 7.98628 20.8631 10.9397
296 1 -1.1104 6.71083 19.5064 12.3687
321 1 -1.1104 9.46702 19.354 12.2464
317 2 2.2208 7.91124 15.2831 10.9257
331 2 2.2208 10.8613 18.043 10.7835
163 1 -1.1104 9.36002 16.8097 6.78731
338 2 2.2208 5.12851 -1.56817 13.7198
344 2 2.2208 13.6739 15.2031 -0.328895
340 2 2.2208 13.5591 1.28984 13.6404
354 2 2.2208 7.93943 6.81997 13.7451
361 2 2.2208 10.8596 15.4236 13.8085
377 2 2.2208 13.5177 -1.46641 -0.423706
381 2 2.2208 5.16103 12.3422 -0.309525
384 2 2.2208 10.8634 6.8872 -0.259473
386 2 2.2208 10.7936 12.668 -0.192323
385 2 2.2208 8.04909 9.6477 -0.0891927
374 2 2.2208 5.22248 18.155 -0.35145
388 2 2.2208 5.17392 1.27655 16.5396
389 1 -1.1104 0.98706 -2.7512 17.9649
390 1 -1.1104 1.00227 2.81872 17.9542
393 1 -1.1104 0.908724 -3.00007 15.1997
395 1 -1.1104 1.01369 2.84789 15.1708
401 1 -1.1104 1.00268 0.0302769 17.8754
403 2 2.2208 5.18365 -1.57838 19.3717
404 2 2.2208 5.24443 4.2085 19.3256
405 1 -1.1104 0.812733 -0.0183569 15.0512
409 1 -1.1104 3.86152 -2.8078 17.9179
410 1 -1.1104 3.89863 2.77908 18.0753
411 2 2.2208 2.45793 1.41047 19.3924
412 1 -1.1104 3.69265 -2.89198 15.0977
414 1 -1.1104 3.73883 2.59817 15.1103
416 2 2.2208 2.33399 -1.50456 16.5757
418 1 -1.1104 3.82145 -0.145339 17.7726
419 1 -1.1104 3.79491 -0.124822 15.0748
417 2 2.2208 2.29895 4.13924 16.7119
623 2 2.2208 -0.315237 18.1564 22.1819
420 1 -1.1104 3.81563 -0.0100379 20.7278
402 1 -1.1104 6.51369 -0.171163 17.8805
391 1 -1.1104 6.51682 -2.85002 17.7483
8586 2 2.2208 2.38945 -4.21159 19.4542
399 1 -1.1104 6.53532 2.72224 15.1061
397 1 -1.1104 6.58316 -2.84073 14.9523
408 1 -1.1104 6.78791 -0.155333 20.7238
396 1 -1.1104 1.0012 2.60771 20.6942
400 1 -1.1104 6.47238 2.78862 20.7254
429 2 2.2208 13.627 4.04824 16.5
407 1 -1.1104 6.6272 -0.259704 15.0808
646 2 2.2208 -0.467479 15.3308 24.9137
622 2 2.2208 -0.289249 9.67892 19.4004
392 1 -1.1104 6.66052 2.63814 17.8839
431 2 2.2208 10.7886 1.34745 16.4878
432 1 -1.1104 11.9432 -2.85749 17.7634
433 1 -1.1104 12.3691 2.75984 17.9019
434 1 -1.1104 12.1458 -2.91965 15.0243
436 1 -1.1104 12.0874 2.68003 15.1045
438 1 -1.1104 12.1278 -0.0362386 17.8662
439 2 2.2208 10.6589 -1.49525 19.1006
440 2 2.2208 10.9145 4.21811 19.4621
441 1 -1.1104 12.252 -0.130249 14.9909
443 1 -1.1104 9.33145 -3.08234 17.9901
444 1 -1.1104 9.43589 2.70914 17.9654
445 2 2.2208 7.97727 1.14781 19.3084
446 1 -1.1104 9.32133 -3.01356 15.0635
448 1 -1.1104 9.40598 2.69052 15.2641
450 2 2.2208 7.92385 -1.57343 16.4368
452 1 -1.1104 9.28436 -0.0926363 17.7799
453 1 -1.1104 9.39746 -0.0380902 15.0391
451 2 2.2208 8.04968 4.10504 16.5819
346 2 2.2208 10.6786 -1.45113 13.6191
343 2 2.2208 7.9357 1.19436 13.7114
449 1 -1.1104 9.35718 2.60627 20.8633
454 1 -1.1104 9.48111 -0.329607 20.7475
442 1 -1.1104 12.2382 -0.231844 20.5413
447 1 -1.1104 9.33172 -3.0185 20.6567
459 2 2.2208 13.5178 -1.56868 16.4248
428 2 2.2208 13.5022 1.32628 19.3709
680 1 -1.1104 6.65836 16.6989 23.5106
350 2 2.2208 10.6578 4.11774 13.8108
464 2 2.2208 5.2049 6.96138 16.4697
465 2 2.2208 5.07422 12.5835 16.5449
466 1 -1.1104 1.02119 8.40529 17.9352
468 1 -1.1104 0.93902 8.24534 15.0953
472 1 -1.1104 0.937134 5.60327 17.977
473 1 -1.1104 1.05084 11.2298 17.9026
476 2 2.2208 5.14843 9.73835 19.3787
477 1 -1.1104 1.22601 5.56086 15.0577
479 1 -1.1104 0.851906 11.1111 15.0381
485 1 -1.1104 3.86283 8.18007 18.0723
486 2 2.2208 2.43733 6.88976 19.3812
487 2 2.2208 2.32344 12.4784 19.3059
488 1 -1.1104 3.87474 8.32165 15.2237
490 2 2.2208 2.41207 9.63848 16.5089
491 1 -1.1104 3.6981 5.48384 18.0307
492 1 -1.1104 3.68541 10.986 17.8766
493 1 -1.1104 3.82325 5.51403 15.1264
495 1 -1.1104 3.73206 11.2695 15.2223
480 1 -1.1104 0.921682 11.0258 20.716
469 1 -1.1104 1.03647 8.25552 20.6633
467 1 -1.1104 6.60933 8.40435 17.9381
351 2 2.2208 2.30124 6.93527 13.6775
475 1 -1.1104 6.65882 11.2549 18.0155
482 1 -1.1104 6.62694 5.56318 20.9172
470 1 -1.1104 6.60704 8.36675 15.1721
483 1 -1.1104 6.49864 11.0484 15.2101
474 1 -1.1104 6.58467 5.64258 17.9659
494 1 -1.1104 3.84394 5.53822 20.8031
489 1 -1.1104 3.80006 8.41849 20.8315
496 1 -1.1104 3.74436 11.1419 20.7517
471 1 -1.1104 6.51134 8.281 20.896
484 1 -1.1104 6.48811 10.8933 20.8267
352 2 2.2208 5.20414 9.75285 13.7524
481 1 -1.1104 6.56144 5.42797 15.2029
500 2 2.2208 10.8209 6.85512 16.4981
501 2 2.2208 10.6635 12.5244 16.595
502 1 -1.1104 12.3552 8.38201 17.9929
503 1 -1.1104 12.218 8.29472 15.1889
505 1 -1.1104 12.1405 5.48851 17.9556
506 1 -1.1104 12.0898 11.302 18.0106
507 2 2.2208 10.9286 9.77396 19.3939
508 1 -1.1104 12.063 5.41784 15.2535
510 1 -1.1104 12.1725 11.162 15.1643
512 1 -1.1104 9.55891 8.19973 18.0133
513 2 2.2208 7.99452 6.97728 19.4311
514 2 2.2208 7.90026 12.4269 19.4604
515 1 -1.1104 9.52732 8.3247 15.1544
517 2 2.2208 8.07145 9.70603 16.5504
518 1 -1.1104 9.41441 5.51753 17.9286
519 1 -1.1104 9.46342 11.0286 17.9975
520 1 -1.1104 9.26285 5.45351 15.2402
522 1 -1.1104 9.38221 11.1332 15.0629
521 1 -1.1104 9.38641 5.55353 20.704
511 1 -1.1104 12.3476 11.1004 20.7485
651 2 2.2208 13.5857 6.92661 19.4086
615 2 2.2208 8.16952 15.3979 22.0988
376 2 2.2208 13.4544 12.5366 13.8004
426 2 2.2208 13.5577 9.66531 16.438
509 1 -1.1104 12.269 5.53047 20.7914
516 1 -1.1104 9.28472 8.31446 20.8043
523 1 -1.1104 9.35063 11.128 20.8374
504 1 -1.1104 12.162 8.29239 20.8511
456 2 2.2208 -0.26165 18.1335 16.6024
620 1 -1.1104 9.39647 16.6732 26.2981
527 2 2.2208 5.33082 18.0426 16.6266
528 1 -1.1104 1.10449 13.9099 17.7835
529 1 -1.1104 1.00284 19.5343 17.8832
532 1 -1.1104 0.995571 13.9099 15.0585
534 1 -1.1104 1.02426 19.6126 15.1598
540 1 -1.1104 0.883951 16.7858 18.0691
542 2 2.2208 5.25391 15.2522 19.443
543 2 2.2208 5.14791 20.9067 19.3896
544 1 -1.1104 1.10232 16.822 15.2793
548 1 -1.1104 3.838 13.8909 18.068
549 1 -1.1104 3.8643 19.4905 17.8698
550 2 2.2208 2.36399 18.0986 19.3996
551 1 -1.1104 3.68472 13.9605 15.1281
553 1 -1.1104 3.92756 19.6495 15.0468
555 2 2.2208 2.46435 15.3093 16.4764
556 2 2.2208 2.44556 20.9443 16.4942
557 1 -1.1104 3.92151 16.6706 17.9548
558 1 -1.1104 3.84102 16.7108 15.1036
530 1 -1.1104 6.57128 13.9119 17.9998
535 1 -1.1104 0.94568 19.4115 20.742
357 2 2.2208 2.44854 18.147 13.7566
359 2 2.2208 5.23725 15.4019 13.7717
531 1 -1.1104 6.62872 19.4222 17.916
554 1 -1.1104 3.64517 19.6406 20.8411
533 1 -1.1104 1.02604 13.8957 20.7347
539 1 -1.1104 6.55261 19.5562 20.7039
463 1 -1.1104 12.254 13.8649 23.4883
569 1 -1.1104 12.1417 19.5602 20.7546
541 1 -1.1104 6.71204 16.6035 17.9481
546 1 -1.1104 6.64646 16.7224 15.213
363 2 2.2208 13.5985 18.2008 13.7021
567 1 -1.1104 12.2181 13.8856 20.6348
538 1 -1.1104 6.73095 19.5482 15.1394
536 1 -1.1104 6.52609 13.7647 15.0652
563 2 2.2208 10.8973 18.1689 16.6689
564 1 -1.1104 12.0733 14.002 17.8436
565 1 -1.1104 12.1769 19.5928 18.0382
566 1 -1.1104 12.126 14.0033 15.1122
568 1 -1.1104 12.2301 19.5977 15.1627
570 1 -1.1104 12.2404 16.8021 17.933
571 2 2.2208 10.7645 15.3657 19.3086
572 2 2.2208 10.8721 20.9934 19.3186
573 1 -1.1104 12.2744 16.785 15.1245
575 1 -1.1104 9.23384 13.8152 18.01
576 1 -1.1104 9.37775 19.5116 18.0481
577 2 2.2208 8.00373 18.2192 19.3878
578 1 -1.1104 9.40505 14.0064 15.2499
580 1 -1.1104 9.52355 19.5317 15.0931
582 2 2.2208 7.9267 15.2344 16.594
583 2 2.2208 8.07088 20.8464 16.5345
584 1 -1.1104 9.45114 16.7915 17.9626
585 1 -1.1104 9.47931 16.6721 15.2237
581 1 -1.1104 9.51721 19.5259 20.7459
579 1 -1.1104 9.34273 13.924 20.8995
619 2 2.2208 13.707 15.4231 16.4994
586 1 -1.1104 9.37814 16.7343 20.7647
413 1 -1.1104 3.80157 -2.9082 20.8004
394 1 -1.1104 0.872356 -2.99634 20.7398
398 1 -1.1104 6.41905 -3.03482 20.8455
406 1 -1.1104 1.19817 -0.12055 20.5669
8519 2 2.2208 2.2734 -4.34367 25.025
415 1 -1.1104 3.79587 2.66981 20.9031
591 2 2.2208 5.10689 1.29626 22.1002
592 1 -1.1104 0.96759 -2.90359 23.5678
593 1 -1.1104 1.01155 2.84148 23.5046
596 1 -1.1104 0.799534 -3.00657 26.251
597 1 -1.1104 0.926761 2.58502 26.2756
600 1 -1.1104 0.898487 0.0459389 23.4791
602 2 2.2208 5.17076 -1.53444 24.9728
604 1 -1.1104 1.01334 -0.17437 26.1768
606 1 -1.1104 3.74104 -2.86165 23.5796
607 1 -1.1104 3.72923 2.72961 23.5244
608 2 2.2208 2.27603 1.33827 25.0004
609 1 -1.1104 3.74038 -2.81243 26.4201
610 1 -1.1104 3.64742 2.70648 26.3957
611 2 2.2208 2.41008 -1.44471 22.1469
612 2 2.2208 2.33635 4.1149 22.2148
613 1 -1.1104 3.69365 -0.0776278 23.449
614 1 -1.1104 3.78224 -0.0649267 26.3183
603 2 2.2208 5.08421 4.04813 24.8357
594 1 -1.1104 6.5713 -3.11416 23.556
595 1 -1.1104 6.61462 2.4022 23.5099
599 1 -1.1104 6.40625 2.73398 26.3116
601 1 -1.1104 6.50759 -0.279724 23.4886
605 1 -1.1104 6.62592 -0.110612 26.4823
574 1 -1.1104 12.353 16.7371 20.7557
8517 2 2.2208 10.6171 -4.26103 22.0615
712 1 -1.1104 6.59878 13.7876 26.5344
435 1 -1.1104 11.9886 -2.99324 20.5638
653 2 2.2208 13.4737 -1.6256 22.0722
654 2 2.2208 13.7206 1.3616 24.8247
650 2 2.2208 13.5224 12.5873 19.2646
437 1 -1.1104 11.9928 2.57906 20.5944
423 2 2.2208 13.5336 4.06639 22.1538
598 1 -1.1104 6.54514 -2.939 26.2783
627 2 2.2208 10.6459 1.02383 22.1546
628 1 -1.1104 12.0899 -2.87918 23.3848
629 1 -1.1104 12.2774 2.56684 23.3393
630 1 -1.1104 12.0811 -2.91516 26.1088
631 1 -1.1104 12.2962 2.64553 26.074
632 1 -1.1104 12.0824 -0.203022 23.479
633 2 2.2208 10.6297 -1.52566 24.8413
635 1 -1.1104 12.2038 -0.0965005 26.3386
636 1 -1.1104 9.30034 -3.01754 23.5172
637 1 -1.1104 9.51471 2.52326 23.6192
638 2 2.2208 7.95991 1.17961 24.9284
639 1 -1.1104 9.32098 -2.92017 26.3024
640 1 -1.1104 9.41454 2.69288 26.5598
641 2 2.2208 7.89028 -1.64474 22.1565
643 1 -1.1104 9.2408 -0.191167 23.5497
644 1 -1.1104 9.38345 -0.136464 26.2639
642 2 2.2208 7.99453 3.97694 22.1546
634 2 2.2208 10.7908 4.0326 24.8682
372 2 2.2208 7.91207 4.03495 27.8022
478 1 -1.1104 1.0549 5.50303 20.6573
656 2 2.2208 5.1279 6.91324 22.2782
657 2 2.2208 5.13102 12.4451 22.1972
658 1 -1.1104 1.07709 8.42255 23.5156
660 1 -1.1104 0.962688 8.18049 26.2517
662 1 -1.1104 0.934066 5.63689 23.6193
663 1 -1.1104 0.895539 11.1688 23.541
666 2 2.2208 5.20002 9.59392 25.0842
667 1 -1.1104 1.01644 5.4322 26.3888
668 1 -1.1104 1.04444 10.9291 26.3842
671 1 -1.1104 3.94006 8.27371 23.59
672 2 2.2208 2.37529 7.02634 24.895
673 2 2.2208 2.35778 12.498 24.8792
674 1 -1.1104 3.75632 8.26747 26.4215
675 2 2.2208 2.49749 9.77152 22.2029
676 1 -1.1104 3.78543 5.40579 23.5178
677 1 -1.1104 3.84421 11.1323 23.5943
678 1 -1.1104 3.746 5.63332 26.222
679 1 -1.1104 3.75367 11.0732 26.3343
659 1 -1.1104 6.58951 8.13663 23.7448
669 1 -1.1104 6.51407 5.53889 26.4051
661 1 -1.1104 6.65845 8.26187 26.5393
379 2 2.2208 5.04195 6.90291 27.7307
589 1 -1.1104 9.3764 13.9202 26.4495
587 2 2.2208 7.95331 18.0131 25.0065
708 2 2.2208 13.6374 12.4935 24.86
664 1 -1.1104 6.62257 5.33122 23.7103
670 1 -1.1104 6.53165 11.0279 26.4058
665 1 -1.1104 6.48341 11.0371 23.6558
710 2 2.2208 13.5127 6.9299 24.9047
498 1 -1.1104 12.2041 13.995 26.3913
687 1 -1.1104 9.52537 11.1226 26.4743
688 1 -1.1104 9.3762 5.40414 26.3552
689 1 -1.1104 9.25979 11.1734 23.5272
690 1 -1.1104 9.32112 5.34001 23.5094
691 2 2.2208 7.94809 9.67271 22.233
692 1 -1.1104 9.3287 8.35374 26.4703
693 2 2.2208 7.9111 12.3692 25.0611
694 2 2.2208 7.97807 6.81879 25.0972
695 2 2.2208 10.7325 6.9539 22.13
696 2 2.2208 10.9124 12.4694 22.1212
697 1 -1.1104 12.0249 8.28973 23.5454
698 1 -1.1104 12.1395 8.31359 26.3134
699 1 -1.1104 12.091 5.37092 23.5283
700 1 -1.1104 12.1558 11.0264 23.6036
701 2 2.2208 10.7218 9.8353 25.0068
702 1 -1.1104 12.2025 5.36512 26.4323
703 1 -1.1104 12.2313 11.1851 26.4545
704 1 -1.1104 9.36585 8.3985 23.5968
537 1 -1.1104 6.49566 13.7552 20.8254
588 1 -1.1104 6.51692 19.5519 26.3998
718 1 -1.1104 6.66175 19.44 23.5246
462 2 2.2208 10.8325 18.1301 22.1465
709 1 -1.1104 6.46136 13.7972 23.7302
545 1 -1.1104 1.00676 16.6878 20.8989
714 1 -1.1104 6.46183 16.6982 26.2851
552 1 -1.1104 3.80164 13.8388 20.9543
547 1 -1.1104 6.49791 16.7551 20.6557
559 1 -1.1104 3.76525 16.7302 20.6866
647 2 2.2208 2.34815 15.3112 22.1878
649 2 2.2208 2.42186 20.9222 22.1965
652 1 -1.1104 3.88113 16.6454 23.5275
655 1 -1.1104 1.08232 16.6697 23.6684
681 1 -1.1104 3.79676 13.8295 26.309
682 1 -1.1104 3.73251 16.5693 26.4837
683 2 2.2208 2.39863 18.0609 25.0968
686 1 -1.1104 3.74326 19.5842 26.4218
705 2 2.2208 5.17795 18.0647 22.1669
706 1 -1.1104 0.91699 13.9981 23.6035
707 1 -1.1104 1.00504 19.4827 23.5924
711 1 -1.1104 3.6891 19.4827 23.5086
713 1 -1.1104 3.71522 13.7936 23.605
715 1 -1.1104 0.877479 19.4555 26.4516
716 1 -1.1104 1.02709 16.4567 26.3578
717 1 -1.1104 1.01961 13.6152 26.3085
719 2 2.2208 5.31344 20.9662 24.9234
720 2 2.2208 5.17461 15.1885 25.0373
499 1 -1.1104 12.2683 19.5324 26.4782
373 2 2.2208 2.35155 15.1562 27.7782
617 1 -1.1104 9.33297 16.6569 23.4629
590 1 -1.1104 9.37061 19.4523 26.3258
526 2 2.2208 10.7694 20.9283 24.8894
616 2 2.2208 8.06134 20.8823 22.0945
497 1 -1.1104 12.2145 19.4537 23.6787
562 1 -1.1104 9.37728 19.4409 23.5666
525 2 2.2208 10.882 15.3337 24.9545
560 1 -1.1104 12.3386 16.6967 26.3708
524 1 -1.1104 12.1501 16.633 23.4779
561 1 -1.1104 9.43466 13.8716 23.7096
366 2 2.2208 2.36404 4.0646 27.8117
364 2 2.2208 5.22741 1.17884 27.7625
360 2 2.2208 10.9001 20.7635 13.7355
375 2 2.2208 2.33143 20.9073 27.7916
348 2 2.2208 10.832 18.1365 27.7386
349 2 2.2208 8.02583 20.8526 27.7111
339 2 2.2208 2.26592 1.20805 13.7025
341 2 2.2208 5.11782 4.05801 13.8088
353 2 2.2208 2.33073 12.4749 13.6912
355 2 2.2208 10.6813 9.68239 13.7869
358 2 2.2208 5.32099 20.9486 13.7607
721 2 2.2208 5.29261 23.6963 5.25809
722 2 2.2208 5.36437 29.2996 5.29385
723 1 -1.1104 0.865456 25.0359 0.966585
724 1 -1.1104 1.12333 25.1384 3.77267
725 1 -1.1104 1.02564 22.2569 1.12868
726 1 -1.1104 1.02818 27.9252 1.00322
727 2 2.2208 5.15965 26.461 2.46808
728 1 -1.1104 1.1173 22.3457 3.87242
729 1 -1.1104 1.16764 27.8444 3.76649
730 1 -1.1104 3.78477 25.113 0.957719
731 2 2.2208 2.30681 23.7952 2.38214
732 2 2.2208 2.45557 29.2883 2.42128
733 1 -1.1104 3.75501 24.964 3.83043
734 2 2.2208 2.57563 26.4211 5.45791
735 1 -1.1104 3.76324 22.2902 1.11816
736 1 -1.1104 3.87142 28.0354 1.06285
737 1 -1.1104 4.12514 22.1354 3.96407
738 1 -1.1104 3.76075 27.7157 3.88877
747 1 -1.1104 6.65784 27.9343 3.75715
744 1 -1.1104 6.66784 22.407 0.951998
742 1 -1.1104 6.51612 24.9259 1.20416
1083 2 2.2208 5.22012 23.6111 -0.269277
1670 1 -1.1104 12.4368 47.5559 6.73066
862 1 -1.1104 1.13893 25.1385 6.66803
868 1 -1.1104 3.8764 25.1212 6.68493
1028 1 -1.1104 12.467 39.1409 6.79617
739 2 2.2208 -0.184311 29.2468 5.16049
743 1 -1.1104 6.81504 24.9918 3.91243
745 1 -1.1104 6.65716 27.8016 0.95575
867 1 -1.1104 6.80098 27.8585 6.51627
746 1 -1.1104 6.78609 22.2481 3.83662
866 1 -1.1104 6.81078 22.301 6.68417
748 2 2.2208 10.8545 23.7533 5.28062
749 2 2.2208 10.9334 29.248 5.15679
750 1 -1.1104 12.1946 25.0582 1.05819
751 1 -1.1104 12.3039 25.1967 3.80197
752 1 -1.1104 12.2526 22.2372 0.873601
753 1 -1.1104 12.3525 27.9326 0.915411
754 2 2.2208 11.0041 26.5397 2.25356
755 1 -1.1104 12.289 22.3472 3.87066
756 1 -1.1104 12.4337 27.9226 3.65442
757 1 -1.1104 9.45445 24.9917 0.901638
758 2 2.2208 8.09497 23.5823 2.45051
759 2 2.2208 8.11766 29.3099 2.46268
760 1 -1.1104 9.57721 25.088 3.88984
761 2 2.2208 8.11775 26.5577 5.19198
762 1 -1.1104 9.37854 22.2063 1.02201
763 1 -1.1104 9.46052 27.893 1.00493
764 1 -1.1104 9.41101 22.3179 4.00041
765 1 -1.1104 9.60396 27.8183 3.85524
766 2 2.2208 13.6405 23.7648 2.31726
898 1 -1.1104 9.58295 25.2217 6.65988
895 1 -1.1104 12.4385 24.9581 6.64842
896 1 -1.1104 12.4346 22.2 6.64569
1091 2 2.2208 8.02336 26.4361 -0.424959
769 2 2.2208 5.49591 34.9393 5.17977
770 1 -1.1104 1.07614 30.6232 1.05111
771 1 -1.1104 1.30384 36.1504 1.22049
773 1 -1.1104 1.13586 30.6431 3.83815
774 1 -1.1104 1.23222 36.1581 3.94001
776 1 -1.1104 0.955929 33.368 0.969764
777 2 2.2208 5.40067 32.1661 2.47082
778 2 2.2208 5.28868 37.8256 2.49609
779 1 -1.1104 1.19265 33.3207 3.86355
781 1 -1.1104 3.78825 30.8394 1.1287
782 1 -1.1104 3.85519 36.4164 1.05398
783 2 2.2208 2.63518 34.7731 2.56186
784 1 -1.1104 3.99133 30.564 3.89716
785 1 -1.1104 4.09007 36.4225 3.84266
786 2 2.2208 2.75136 32.0114 5.30105
787 2 2.2208 2.63057 37.6584 5.35042
788 1 -1.1104 3.96247 33.5723 1.12424
789 1 -1.1104 3.99587 33.4801 3.89695
795 1 -1.1104 6.71768 33.7224 1.09604
794 1 -1.1104 6.8271 30.6298 3.84983
1645 1 -1.1104 0.999696 47.6968 9.52257
925 1 -1.1104 4.14596 30.6619 6.63791
923 1 -1.1104 1.37384 33.5096 6.56401
790 2 2.2208 -0.270419 37.6125 2.51222
1501 1 -1.1104 9.4518 47.3734 3.90397
1466 1 -1.1104 3.81865 47.6735 3.67791
780 1 -1.1104 6.75698 33.3812 3.98633
775 1 -1.1104 6.91616 36.2676 3.77217
793 1 -1.1104 6.76968 30.9078 1.06695
772 1 -1.1104 6.79162 36.4863 1.10956
796 2 2.2208 10.9213 34.8778 5.20632
797 1 -1.1104 12.449 30.7067 1.15944
798 1 -1.1104 12.4995 36.412 1.02621
799 1 -1.1104 12.2946 30.7299 3.88987
800 1 -1.1104 12.2755 36.3644 3.91075
801 1 -1.1104 12.3488 33.4789 0.921368
802 2 2.2208 10.9826 32.0332 2.51217
803 2 2.2208 11.1044 37.784 2.40911
804 1 -1.1104 12.34 33.7041 3.70333
805 1 -1.1104 9.63426 30.5485 1.15682
806 1 -1.1104 9.73411 36.2746 1.06472
807 2 2.2208 8.22212 35.0058 2.42522
808 1 -1.1104 9.46334 30.7466 3.82873
809 1 -1.1104 9.61181 36.4368 3.83228
810 2 2.2208 8.21641 32.0495 5.19541
811 2 2.2208 8.12865 37.6655 5.24863
812 1 -1.1104 9.60065 33.6554 1.10634
813 1 -1.1104 9.48003 33.5127 3.89089
954 1 -1.1104 12.4455 36.3493 6.67858
1033 1 -1.1104 12.336 42.0143 9.4124
955 1 -1.1104 12.3659 33.5241 6.54647
958 1 -1.1104 9.51796 33.5083 6.72838
1036 2 2.2208 11.003 40.453 10.8099
1099 2 2.2208 8.31985 37.7898 -0.316449
839 2 2.2208 -0.220242 43.187 2.28874
821 1 -1.1104 0.925854 38.974 1.03104
815 2 2.2208 5.31469 40.5962 5.2697
816 2 2.2208 5.25046 46.1501 5.17874
817 1 -1.1104 1.23928 41.816 0.965054