ITEM: TIMESTEP
70000
ITEM: NUMBER OF ATOMS
17910
ITEM: BOX BOUNDS pp pp pp
-3.5522400556914946e-01 2.7695224005569770e+01
-4.3470243607025090e+00 3.3242702436070539e+02
-3.5697788302819794e-01 2.7696977883028303e+01
ITEM: ATOMS id type q x y z
1 2 2.2208 5.36163 1.28358 5.32428
2 1 -1.1104 1.29088 -2.91897 0.868268
3 1 -1.1104 0.979421 2.59915 1.0753
6 1 -1.1104 1.16243 -3.1217 3.5832
7 1 -1.1104 1.20129 2.54503 3.96339
10 1 -1.1104 1.24549 -0.235282 0.988061
12 2 2.2208 5.3183 -1.4935 2.41754
14 1 -1.1104 1.13042 -0.185125 3.87451
16 1 -1.1104 3.93183 -3.1254 0.893751
17 1 -1.1104 3.82503 2.70976 1.21525
18 2 2.2208 2.47344 1.36952 2.49961
19 1 -1.1104 4.02754 -3.0009 3.6611
20 1 -1.1104 3.9864 2.62765 3.92984
21 2 2.2208 2.51302 -1.5069 5.27939
22 2 2.2208 2.52882 4.08833 5.39187
23 1 -1.1104 3.90808 0.0120777 1.04503
24 1 -1.1104 3.98191 -0.110662 3.97096
13 2 2.2208 5.39819 4.05905 2.45932
27 2 2.2208 -0.261011 4.1775 2.45931
25 2 2.2208 -0.156989 -1.69269 2.45212
28 2 2.2208 13.6578 20.8538 10.8055
26 2 2.2208 -0.317768 1.34042 5.2608
8446 2 2.2208 10.9137 -4.31993 -0.269593
30 2 2.2208 -0.281067 9.7556 7.97803
170 1 -1.1104 1.14653 -0.109185 6.66567
174 1 -1.1104 3.84809 -0.0503285 6.72289
325 2 2.2208 11.0572 15.3262 8.00062
8434 2 2.2208 8.20005 -4.41771 2.34352
8439 2 2.2208 -0.395249 -4.34524 10.8205
199 2 2.2208 -0.225347 4.01557 8.21499
15 1 -1.1104 6.7882 -0.0213113 3.77651
8437 2 2.2208 2.49939 -4.30036 7.98097
11 1 -1.1104 6.68596 -0.183818 1.01662
5 1 -1.1104 6.79014 2.70861 1.05655
9 1 -1.1104 6.79808 2.72673 3.87299
4 1 -1.1104 6.70106 -3.01732 1.09931
8 1 -1.1104 6.77624 -2.87147 3.8047
31 2 2.2208 11.0151 1.16955 5.17889
32 1 -1.1104 12.3471 -2.90362 0.92923
33 1 -1.1104 12.3836 2.67036 1.0781
34 1 -1.1104 12.4175 -2.97924 3.70191
35 1 -1.1104 12.3547 2.73552 3.73057
36 1 -1.1104 12.4587 -0.0878857 1.12278
37 2 2.2208 10.9873 -1.51271 2.35729
38 2 2.2208 10.8272 4.03299 2.40899
39 1 -1.1104 12.518 -0.104739 3.88638
40 1 -1.1104 9.55651 -2.95171 1.05142
41 1 -1.1104 9.59756 2.5451 0.975267
42 2 2.2208 8.11349 1.21151 2.42957
43 1 -1.1104 9.48446 -2.8806 3.72698
44 1 -1.1104 9.55286 2.58561 3.74488
45 2 2.2208 8.00565 -1.59151 5.19505
47 1 -1.1104 9.45217 -0.209547 1.04822
48 1 -1.1104 9.70143 -0.17769 3.96498
46 2 2.2208 8.1093 4.02788 5.1507
29 2 2.2208 -0.159924 6.89297 10.9415
169 1 -1.1104 6.86299 2.80307 6.7689
207 1 -1.1104 12.471 -0.441497 6.72111
326 1 -1.1104 12.3664 16.6245 12.1779
288 1 -1.1104 6.76026 19.6391 9.31559
362 2 2.2208 8.12933 18.2593 13.604
54 2 2.2208 5.35226 6.8441 5.28569
55 2 2.2208 5.38945 12.5059 5.34069
56 1 -1.1104 1.11437 8.17325 1.11241
58 1 -1.1104 1.16971 8.28971 3.83679
60 1 -1.1104 1.17783 5.42072 1.18494
61 1 -1.1104 1.28554 11.1428 1.07208
66 2 2.2208 5.28924 9.71962 2.3617
67 1 -1.1104 1.0391 5.61074 4.00156
68 1 -1.1104 1.15172 11.0643 3.99888
71 1 -1.1104 3.88234 8.28674 1.06929
72 2 2.2208 2.55629 6.81184 2.59737
73 2 2.2208 2.68991 12.438 2.63923
74 1 -1.1104 3.94301 8.1364 4.01125
75 2 2.2208 2.71727 9.73895 5.22396
76 1 -1.1104 3.89956 5.49742 1.14604
77 1 -1.1104 4.02154 11.1594 1.1296
79 1 -1.1104 3.79491 5.44252 3.8833
80 1 -1.1104 3.99107 11.0942 3.95017
81 2 2.2208 -0.126466 7.01615 5.40336
234 1 -1.1104 1.33573 8.47214 6.72879
105 2 2.2208 13.7262 6.92258 2.4009
69 1 -1.1104 6.75124 5.63809 3.83269
63 1 -1.1104 6.7047 5.52337 1.01496
323 1 -1.1104 12.4527 16.6847 9.49877
238 1 -1.1104 3.95082 8.36229 6.60994
62 1 -1.1104 1.20816 11.1504 6.60545
236 1 -1.1104 1.22913 5.60907 6.77014
235 1 -1.1104 6.72571 8.1866 6.80497
329 1 -1.1104 12.339 19.4668 12.2577
70 1 -1.1104 6.68704 11.1481 3.76115
57 1 -1.1104 6.86165 8.31094 1.05706
59 1 -1.1104 6.62092 8.43712 3.87357
64 1 -1.1104 6.78533 11.1367 0.910983
84 2 2.2208 11.106 6.97452 5.28204
85 2 2.2208 10.7929 12.4805 5.30962
86 1 -1.1104 12.3787 8.46634 1.07467
87 1 -1.1104 12.4748 8.29868 3.91925
88 1 -1.1104 12.3555 5.5065 0.953949
89 1 -1.1104 12.3214 11.2479 1.10815
91 2 2.2208 10.9997 9.76055 2.43493
92 1 -1.1104 12.4785 5.44526 3.66624
93 1 -1.1104 12.2364 11.1101 3.90226
94 1 -1.1104 9.64623 8.33036 0.855519
95 2 2.2208 8.06795 6.88057 2.3717
96 2 2.2208 8.07657 12.647 2.39177
97 1 -1.1104 9.60033 8.4715 3.67448
98 2 2.2208 8.07332 9.69825 5.24928
99 1 -1.1104 9.51202 5.4331 0.955577
100 1 -1.1104 9.49696 11.0731 0.952806
102 1 -1.1104 9.63288 5.49364 3.82578
103 1 -1.1104 9.46753 11.1485 3.86171
315 1 -1.1104 9.62756 16.7916 12.0507
65 1 -1.1104 6.66716 11.0254 6.54831
90 1 -1.1104 12.2326 11.1151 6.7281
316 2 2.2208 8.16917 21.0186 10.7864
135 2 2.2208 -0.28121 15.3853 2.48992
137 2 2.2208 -0.286988 18.2509 5.33476
317 2 2.2208 8.15438 15.3718 10.8181
106 2 2.2208 5.32061 18.195 5.25012
107 1 -1.1104 1.06453 13.8841 1.09345
109 1 -1.1104 1.0745 19.6609 1.04863
113 1 -1.1104 1.23772 13.9127 3.92595
114 1 -1.1104 1.13938 19.6012 3.89024
116 1 -1.1104 1.01816 16.8323 0.959278
119 2 2.2208 5.26301 15.355 2.45217
120 2 2.2208 5.25427 21.0119 2.3782
121 1 -1.1104 1.09572 16.7867 3.9966
123 1 -1.1104 3.97401 13.7007 1.14547
125 1 -1.1104 3.74871 19.5942 1.10697
127 2 2.2208 2.52524 18.1817 2.39908
128 1 -1.1104 3.89814 14.0061 3.90323
129 1 -1.1104 3.97054 19.4876 3.86589
130 2 2.2208 2.55925 15.3278 5.26638
131 2 2.2208 2.50348 20.8562 5.39355
132 1 -1.1104 3.84198 16.5057 1.04232
134 1 -1.1104 3.84405 16.8995 3.81497
133 1 -1.1104 4.02438 16.8187 6.57916
138 1 -1.1104 6.58973 19.4394 0.981289
108 1 -1.1104 1.0396 13.8978 6.76319
111 1 -1.1104 6.66152 13.907 6.72586
156 1 -1.1104 9.44846 19.5873 6.75569
321 1 -1.1104 9.62562 19.6773 12.1889
296 1 -1.1104 6.77862 19.5941 12.2408
290 1 -1.1104 6.80384 14.0473 9.36632
143 1 -1.1104 12.261 13.8859 6.64792
139 1 -1.1104 6.73215 19.5568 3.67199
115 1 -1.1104 6.68065 13.9484 3.89963
110 1 -1.1104 6.57977 13.9729 1.01513
122 1 -1.1104 6.84766 16.6473 3.63189
140 1 -1.1104 6.57714 16.6967 0.838109
141 2 2.2208 10.8946 18.2833 5.3088
142 1 -1.1104 12.1794 13.9776 0.949714
144 1 -1.1104 12.3068 19.7193 0.966298
146 1 -1.1104 12.3106 13.9137 3.96453
147 1 -1.1104 12.2795 19.6319 3.92871
148 1 -1.1104 12.2097 16.8777 1.15461
150 2 2.2208 10.8266 15.3884 2.41173
151 2 2.2208 10.9782 21.1161 2.45053
152 1 -1.1104 12.3336 16.7508 3.95763
153 1 -1.1104 9.44138 13.9193 0.914487
155 1 -1.1104 9.54904 19.5744 0.974964
157 2 2.2208 8.14644 18.1194 2.32138
158 1 -1.1104 9.45394 14.0228 3.75355
159 1 -1.1104 9.54346 19.7617 3.87722
160 2 2.2208 8.11405 15.4105 5.2291
161 2 2.2208 8.17238 21.1114 5.16209
162 1 -1.1104 9.48899 16.7002 0.98394
164 1 -1.1104 9.54487 16.9107 3.76649
149 1 -1.1104 12.453 16.6059 6.7135
154 1 -1.1104 9.3388 13.8457 6.68429
163 1 -1.1104 9.54557 16.8138 6.48532
118 1 -1.1104 6.6209 16.7051 6.73891
112 1 -1.1104 6.78336 19.5613 6.48509
167 1 -1.1104 1.09802 2.71533 6.78229
166 1 -1.1104 1.04731 -2.86102 6.40309
82 2 2.2208 -0.224313 9.65609 2.44193
173 1 -1.1104 4.00191 2.85702 6.70253
172 1 -1.1104 4.0102 -2.9065 6.5044
322 1 -1.1104 9.61466 13.9676 12.268
201 2 2.2208 -0.0993436 1.13715 10.9719
331 2 2.2208 10.9397 18.1126 10.7551
200 2 2.2208 -0.265062 -1.38148 8.05205
175 2 2.2208 5.38033 1.18023 11.0467
176 1 -1.1104 1.0008 -2.99615 12.2507
177 1 -1.1104 1.26277 2.62563 12.2821
180 1 -1.1104 1.19198 -2.91935 9.4135
181 1 -1.1104 1.12627 2.7035 9.58283
184 1 -1.1104 1.28587 -0.180914 12.2046
186 2 2.2208 5.38327 -1.56798 8.05954
188 1 -1.1104 1.22007 -0.11525 9.36964
190 1 -1.1104 3.85797 -2.86639 12.2901
191 1 -1.1104 4.07898 2.71624 12.4004
192 2 2.2208 2.50252 1.24831 8.12356
193 1 -1.1104 4.01153 -3.00701 9.35132
194 1 -1.1104 3.88412 2.53736 9.51526
195 2 2.2208 2.6223 -1.54042 10.8476
197 1 -1.1104 4.0538 0.0251244 12.3969
198 1 -1.1104 4.10072 -0.23467 9.50341
187 2 2.2208 5.34512 4.01051 8.26931
196 2 2.2208 2.64447 4.02581 10.8853
165 2 2.2208 13.654 18.2253 2.49031
297 1 -1.1104 6.7294 13.9466 12.0734
185 1 -1.1104 6.85022 -0.175882 12.3678
324 2 2.2208 10.9673 20.9582 8.0648
320 2 2.2208 7.98757 18.1464 7.99532
179 1 -1.1104 6.86144 2.66921 12.3556
83 2 2.2208 -0.213534 12.5813 5.32185
208 1 -1.1104 9.50909 -3.06341 6.55184
171 1 -1.1104 6.73367 0.0130134 6.65409
210 1 -1.1104 9.50386 -0.242652 6.63074
205 1 -1.1104 12.1519 -3.15475 6.65901
209 1 -1.1104 9.46983 2.50443 6.51846
206 1 -1.1104 12.3677 2.63058 6.58345
327 1 -1.1104 12.3713 19.54 9.44287
178 1 -1.1104 6.55766 -2.83344 11.9798
183 1 -1.1104 6.75248 2.47869 9.59219
168 1 -1.1104 6.74909 -2.90986 6.64714
189 1 -1.1104 6.94507 -0.161955 9.40526
182 1 -1.1104 6.88854 -3.03613 9.30937
211 2 2.2208 10.9495 1.27925 10.7036
212 1 -1.1104 12.2892 -2.92491 12.2421
213 1 -1.1104 12.4813 2.65497 12.3082
214 1 -1.1104 12.4259 -2.94395 9.47679
215 1 -1.1104 12.2726 2.76634 9.35477
216 1 -1.1104 12.5728 -0.0735284 12.0801
217 2 2.2208 10.8736 -1.58719 8.0843
218 2 2.2208 10.87 4.06449 7.81398
219 1 -1.1104 12.2964 -0.0915304 9.36568
220 1 -1.1104 9.66632 -2.87613 12.2884
221 1 -1.1104 9.57364 2.62435 12.1042
222 2 2.2208 8.15009 1.23857 7.93625
223 1 -1.1104 9.63856 -2.80936 9.60883
224 1 -1.1104 9.62589 2.73511 9.4623
225 2 2.2208 8.18139 -1.52673 10.8879
227 1 -1.1104 9.66362 -0.0571035 12.2316
228 1 -1.1104 9.54574 -0.0483821 9.35713
226 2 2.2208 8.22509 4.07002 10.7624
239 1 -1.1104 3.96619 5.50982 6.73852
319 1 -1.1104 9.66843 13.8496 9.54494
51 2 2.2208 -0.221924 12.6262 10.9676
78 1 -1.1104 3.96481 11.1602 6.66425
240 2 2.2208 5.39933 6.82571 10.8446
241 2 2.2208 5.41355 12.5308 10.8058
242 1 -1.1104 1.16701 8.24083 12.2346
244 1 -1.1104 1.06284 8.23953 9.40877
246 1 -1.1104 1.27912 5.53015 12.4245
247 1 -1.1104 1.19288 11.0675 12.3247
250 2 2.2208 5.3511 9.6682 8.03442
251 1 -1.1104 1.18462 5.37075 9.74191
252 1 -1.1104 1.17566 11.0307 9.42725
255 1 -1.1104 4.07052 8.21811 12.2255
256 2 2.2208 2.5598 6.91595 7.99142
257 2 2.2208 2.58563 12.4186 8.09283
258 1 -1.1104 3.88602 8.25542 9.36716
259 2 2.2208 2.54391 9.62247 10.8669
260 1 -1.1104 4.11505 5.41456 12.2779
261 1 -1.1104 4.01568 11.1711 12.3401
262 1 -1.1104 3.95036 5.57542 9.58725
263 1 -1.1104 4.03773 11.0603 9.49451
253 1 -1.1104 6.71564 5.35972 9.40815
249 1 -1.1104 6.79773 11.1665 12.1685
318 1 -1.1104 9.57614 19.6904 9.46179
328 1 -1.1104 12.4625 13.9336 9.41559
314 1 -1.1104 9.55519 16.8359 9.36955
266 1 -1.1104 12.4776 5.45558 6.48984
342 2 2.2208 -0.284223 15.2824 13.7125
243 1 -1.1104 6.80354 8.37081 12.2364
101 1 -1.1104 9.52648 11.1211 6.73871
237 1 -1.1104 6.77407 5.51602 6.62182
245 1 -1.1104 6.81332 8.34559 9.56214
254 1 -1.1104 6.61331 11.118 9.31598
248 1 -1.1104 6.85273 5.56143 12.1948
265 1 -1.1104 12.352 8.2768 6.74842
269 1 -1.1104 9.63743 5.44789 6.43368
267 1 -1.1104 9.53291 8.31312 6.66653
264 1 -1.1104 9.51523 11.0648 9.543
268 1 -1.1104 9.64138 5.54763 9.2782
270 1 -1.1104 9.59147 11.0963 12.259
271 1 -1.1104 9.65978 5.43535 12.1375
272 2 2.2208 8.09569 9.73007 10.9025
273 1 -1.1104 9.51119 8.15238 9.41987
274 2 2.2208 8.22755 12.4487 8.18291
275 2 2.2208 8.0004 6.89666 8.13229
276 2 2.2208 10.9778 6.84112 10.8389
277 2 2.2208 11.0176 12.5378 10.7958
278 1 -1.1104 12.4073 8.31494 12.2889
279 1 -1.1104 12.2257 8.21029 9.61703
280 1 -1.1104 12.4154 5.45966 12.2188
281 1 -1.1104 12.5136 11.0369 12.1719
282 2 2.2208 10.916 9.62645 8.05306
283 1 -1.1104 12.3655 5.51407 9.37887
284 1 -1.1104 12.3858 11.0063 9.48464
285 1 -1.1104 9.56698 8.24785 12.255
330 1 -1.1104 12.33 13.7827 12.124
289 1 -1.1104 6.76269 16.6167 9.5002
358 2 2.2208 5.25588 20.9683 13.6291
356 2 2.2208 8.19866 12.625 13.6555
306 1 -1.1104 6.83811 16.742 12.2487
302 1 -1.1104 1.12075 19.5086 6.74787
312 2 2.2208 -0.261977 18.0911 10.9269
313 2 2.2208 -0.279397 15.3935 8.0021
124 1 -1.1104 3.84786 13.9387 6.74411
117 1 -1.1104 1.26088 16.7243 6.79925
126 1 -1.1104 3.89972 19.4559 6.72024
310 2 2.2208 2.57662 15.28 10.8476
309 2 2.2208 2.47955 20.9242 10.9187
286 1 -1.1104 3.97002 19.4953 12.2475
300 2 2.2208 5.32635 18.1676 10.9271
299 1 -1.1104 1.12998 14.0155 12.3227
308 1 -1.1104 3.88862 16.8271 12.3834
298 1 -1.1104 1.16487 19.4787 12.2236
304 1 -1.1104 3.96303 16.7535 9.47079
303 2 2.2208 2.44259 18.1823 8.16063
292 1 -1.1104 1.14319 16.7047 9.61939
295 2 2.2208 5.29949 15.2975 7.96989
307 1 -1.1104 0.987806 16.697 12.269
301 1 -1.1104 3.89074 19.4205 9.45438
291 1 -1.1104 1.07476 19.4736 9.40392
305 1 -1.1104 4.06846 13.8924 9.42529
287 1 -1.1104 3.88536 13.8651 12.1476
294 1 -1.1104 1.07793 13.9051 9.52624
293 2 2.2208 5.34309 20.9116 7.98107
136 2 2.2208 -0.225627 20.9077 2.52055
343 2 2.2208 8.19821 1.2555 13.6939
145 1 -1.1104 12.311 19.6229 6.80023
360 2 2.2208 11.0371 20.8762 13.6315
351 2 2.2208 2.83844 6.86372 13.7134
352 2 2.2208 5.27383 9.83177 13.6449
344 2 2.2208 13.5343 15.3439 -0.230891
338 2 2.2208 5.43004 -1.52971 13.6451
348 2 2.2208 10.8748 18.2239 -0.312497
373 2 2.2208 2.44494 15.2669 -0.211803
355 2 2.2208 10.9957 9.72703 13.6014
350 2 2.2208 11.0478 4.05834 13.5456
379 2 2.2208 5.39537 6.87661 -0.33214
369 2 2.2208 11.0724 1.23723 -0.298525
386 2 2.2208 10.8576 12.5653 -0.368689
354 2 2.2208 8.14644 6.8333 13.5233
385 2 2.2208 8.19254 9.77773 -0.476739
383 2 2.2208 -0.223938 6.81888 -0.322167
361 2 2.2208 10.9173 15.4326 13.6609
368 2 2.2208 -0.25446 1.21757 -0.285852
381 2 2.2208 5.2657 12.4939 -0.418763
388 2 2.2208 5.38855 1.19871 16.4847
389 1 -1.1104 1.28437 -2.97443 17.8881
390 1 -1.1104 1.0345 2.50761 17.9173
393 1 -1.1104 0.99009 -2.86288 14.9874
395 1 -1.1104 1.26689 2.77328 15.1171
401 1 -1.1104 1.23592 -0.198716 17.714
403 2 2.2208 5.30468 -1.66781 19.2599
404 2 2.2208 5.35678 4.06217 19.3338
405 1 -1.1104 0.952506 -0.0635626 15.011
409 1 -1.1104 4.00074 -3.01538 17.8397
410 1 -1.1104 3.87039 2.64247 17.8068
411 2 2.2208 2.47787 1.21251 19.1677
412 1 -1.1104 3.94702 -3.08051 15.041
414 1 -1.1104 4.10378 2.75763 15.0104
416 2 2.2208 2.6251 -1.58157 16.4486
418 1 -1.1104 4.09824 -0.247763 17.7833
419 1 -1.1104 3.97835 -0.156458 15.1352
417 2 2.2208 2.70294 4.0598 16.4931
424 2 2.2208 -0.338 1.25952 16.4306
8553 2 2.2208 5.30506 -4.33826 21.9964
334 2 2.2208 -0.278903 -1.50273 13.6871
425 2 2.2208 -0.172864 -1.61072 19.2085
413 1 -1.1104 3.8933 -2.91398 20.8239
8584 2 2.2208 11.0512 -4.2875 16.4422
399 1 -1.1104 6.76801 2.55972 15.0541
402 1 -1.1104 6.77176 -0.174355 17.929
455 2 2.2208 13.7101 18.1479 24.8739
394 1 -1.1104 1.10995 -3.08667 20.8096
420 1 -1.1104 3.68248 -0.141159 20.6442
396 1 -1.1104 1.11926 2.59207 20.6693
384 2 2.2208 10.9133 6.94957 27.5405
407 1 -1.1104 6.85166 -0.105364 15.074
397 1 -1.1104 6.73468 -2.95979 14.9047
392 1 -1.1104 6.71088 2.55209 17.9417
622 2 2.2208 -0.252458 9.66033 19.2936
391 1 -1.1104 6.68403 -3.06634 17.7244
431 2 2.2208 10.9786 1.21037 16.5018
432 1 -1.1104 12.554 -2.8689 17.9051
433 1 -1.1104 12.2796 2.53926 17.8822
434 1 -1.1104 12.2558 -3.03115 15.0035
436 1 -1.1104 12.3716 2.61624 15.1151
438 1 -1.1104 12.525 -0.0564624 17.9359
439 2 2.2208 10.9814 -1.45424 19.3379
440 2 2.2208 10.9007 4.04949 19.1595
441 1 -1.1104 12.3252 -0.212768 15.0411
443 1 -1.1104 9.74568 -2.9245 17.9088
444 1 -1.1104 9.44737 2.63584 17.8195
445 2 2.2208 8.17378 1.34409 19.3012
446 1 -1.1104 9.35914 -2.92471 15.1601
448 1 -1.1104 9.65495 2.64158 15.0093
450 2 2.2208 8.16852 -1.62086 16.5772
452 1 -1.1104 9.68177 -0.248702 17.8847
453 1 -1.1104 9.5411 -0.248998 15.0983
451 2 2.2208 8.16373 4.00728 16.3043
353 2 2.2208 2.52878 12.5142 13.7945
435 1 -1.1104 12.4956 -2.77589 20.6765
398 1 -1.1104 6.72597 -2.93963 20.6198
442 1 -1.1104 12.3478 -0.0811289 20.7091
619 2 2.2208 13.6907 15.3613 16.4785
382 2 2.2208 -0.219123 12.4425 27.7313
621 2 2.2208 -0.228148 6.80594 16.4883
337 2 2.2208 -0.0507194 4.11508 13.7459
366 2 2.2208 2.45081 4.0593 27.6862
464 2 2.2208 5.27938 6.99429 16.3995
465 2 2.2208 5.32494 12.6308 16.3767
466 1 -1.1104 1.08343 8.28818 17.8502
468 1 -1.1104 1.25219 8.27421 15.0848
472 1 -1.1104 1.07928 5.35654 17.822
473 1 -1.1104 1.34422 11.1014 17.9144
476 2 2.2208 5.38576 9.74332 19.3017
477 1 -1.1104 1.3898 5.54065 15.0532
479 1 -1.1104 1.06588 10.9381 15.1759
485 1 -1.1104 3.94228 8.39813 17.932
486 2 2.2208 2.54681 6.78224 19.2196
487 2 2.2208 2.56843 12.6085 19.3393
488 1 -1.1104 3.97408 8.53116 15.1195
490 2 2.2208 2.56551 9.74179 16.5886
491 1 -1.1104 4.03776 5.64573 17.8653
492 1 -1.1104 4.0982 11.1565 18.0745
493 1 -1.1104 3.97823 5.49946 15.1143
495 1 -1.1104 4.01705 11.2344 15.1559
364 2 2.2208 5.30674 1.38924 27.644
648 2 2.2208 -0.169026 12.4528 16.4636
489 1 -1.1104 4.04738 8.4037 20.7204
481 1 -1.1104 6.77114 5.64297 14.996
483 1 -1.1104 6.8602 11.2167 15.1248
496 1 -1.1104 3.85486 11.098 20.7487
469 1 -1.1104 1.20209 8.24862 20.5001
478 1 -1.1104 1.08646 5.3921 20.72
475 1 -1.1104 6.60931 11.1659 17.8739
589 1 -1.1104 9.41944 13.9644 26.2123
470 1 -1.1104 6.74838 8.41472 15.0439
467 1 -1.1104 6.75428 8.37623 17.8429
474 1 -1.1104 6.81392 5.33229 17.6381
500 2 2.2208 10.982 6.84887 16.4111
501 2 2.2208 10.8748 12.5519 16.4266
502 1 -1.1104 12.3236 8.18693 17.8984
503 1 -1.1104 12.3852 8.33293 15.1099
505 1 -1.1104 12.3307 5.32194 17.9506
506 1 -1.1104 12.262 11.082 17.7471
507 2 2.2208 10.9301 9.74125 19.2198
508 1 -1.1104 12.3125 5.38854 14.9682
510 1 -1.1104 12.3862 11.1161 14.9281
512 1 -1.1104 9.49077 8.35382 17.72
513 2 2.2208 8.19267 6.98129 19.1063
514 2 2.2208 8.09434 12.5189 19.3529
515 1 -1.1104 9.56778 8.29432 15.0675
517 2 2.2208 8.30831 9.70136 16.4106
518 1 -1.1104 9.62793 5.5175 17.8412
519 1 -1.1104 9.44544 11.2341 17.8638
520 1 -1.1104 9.56508 5.47165 14.8974
522 1 -1.1104 9.62641 11.2921 14.9182
586 1 -1.1104 9.64237 16.7963 20.7172
504 1 -1.1104 12.4252 8.42269 20.6275
521 1 -1.1104 9.65103 5.19825 20.6513
527 2 2.2208 5.40699 18.2606 16.5148
528 1 -1.1104 1.06486 13.9264 17.9409
529 1 -1.1104 1.18835 19.572 17.9491
532 1 -1.1104 1.16437 13.8044 15.1139
534 1 -1.1104 1.09987 19.6145 15.1312
540 1 -1.1104 1.15508 16.8203 17.8808
542 2 2.2208 5.45394 15.4974 19.3053
543 2 2.2208 5.36339 21.0504 19.2815
544 1 -1.1104 1.15428 16.7345 15.1593
548 1 -1.1104 3.96404 13.8761 17.7827
549 1 -1.1104 4.09715 19.5219 17.8947
550 2 2.2208 2.62538 18.0831 19.2172
551 1 -1.1104 3.88548 14.1119 14.9869
553 1 -1.1104 3.99895 19.6568 15.0744
555 2 2.2208 2.48683 15.3152 16.5424
556 2 2.2208 2.54305 20.9824 16.4754
557 1 -1.1104 3.96983 16.7847 17.9106
558 1 -1.1104 3.97834 16.8345 15.1445
458 2 2.2208 -0.284997 20.9091 19.2515
456 2 2.2208 -0.314302 18.0983 16.3673
457 2 2.2208 -0.245483 15.2596 19.3885
617 1 -1.1104 9.43192 16.8968 23.4638
535 1 -1.1104 1.16895 19.5591 20.7111
536 1 -1.1104 6.73115 14.1631 14.9429
545 1 -1.1104 1.07057 16.7831 20.6651
533 1 -1.1104 1.11572 13.7645 20.6661
615 2 2.2208 8.05246 15.366 22.0693
530 1 -1.1104 6.75405 14.0605 17.9122
546 1 -1.1104 6.64899 16.9602 15.1081
538 1 -1.1104 6.69818 19.7451 15.0125
541 1 -1.1104 6.80089 16.9308 18.0732
531 1 -1.1104 6.73089 19.6358 17.8929
563 2 2.2208 10.9471 18.2213 16.5038
564 1 -1.1104 12.4437 13.8952 17.8797
565 1 -1.1104 12.2247 19.5439 17.9105
566 1 -1.1104 12.3673 14.0189 14.9148
568 1 -1.1104 12.3905 19.517 15.0559
570 1 -1.1104 12.2042 16.6353 17.8447
571 2 2.2208 10.8849 15.3288 19.2841
572 2 2.2208 10.9272 21.0255 19.2809
573 1 -1.1104 12.3334 16.7837 14.9208
575 1 -1.1104 9.46214 13.8452 17.9115
576 1 -1.1104 9.49655 19.5063 17.8391
577 2 2.2208 8.2411 18.2117 19.2826
578 1 -1.1104 9.48659 13.8081 15.2003
580 1 -1.1104 9.6696 19.6393 15.0867
582 2 2.2208 8.04322 15.3974 16.5321
583 2 2.2208 8.16967 20.9893 16.3566
584 1 -1.1104 9.58238 16.699 17.8459
585 1 -1.1104 9.43642 16.711 14.931
574 1 -1.1104 12.358 16.8043 20.6557
567 1 -1.1104 12.2535 14.0776 20.7039
581 1 -1.1104 9.7754 19.5352 20.6915
547 1 -1.1104 6.71147 17.0002 20.6599
624 2 2.2208 -0.355993 -1.45658 24.9694
626 2 2.2208 -0.152456 4.07381 25.0306
625 2 2.2208 -0.192871 1.29888 22.1204
560 1 -1.1104 12.1372 16.8199 26.356
406 1 -1.1104 1.08983 -0.235162 20.684
415 1 -1.1104 3.95027 2.71746 20.5922
591 2 2.2208 5.25168 1.23926 22.0001
592 1 -1.1104 1.19601 -2.8707 23.5255
593 1 -1.1104 1.03169 2.60943 23.4428
596 1 -1.1104 1.1898 -2.93212 26.3206
597 1 -1.1104 1.28157 2.67596 26.4153
600 1 -1.1104 1.08118 -0.155193 23.5589
602 2 2.2208 5.42545 -1.59436 24.8607
604 1 -1.1104 1.16783 -0.123224 26.2309
606 1 -1.1104 4.04153 -2.84943 23.507
607 1 -1.1104 3.74839 2.75523 23.5604
608 2 2.2208 2.45847 1.24628 24.9477
609 1 -1.1104 3.94858 -3.25337 26.3375
610 1 -1.1104 3.99306 2.77839 26.3168
611 2 2.2208 2.47848 -1.55292 22.062
612 2 2.2208 2.48656 3.90966 22.1748
613 1 -1.1104 3.85863 -0.125126 23.4416
614 1 -1.1104 4.03882 -0.168744 26.3506
603 2 2.2208 5.25582 4.09758 24.8528
539 1 -1.1104 7.00416 19.6722 20.7612
525 2 2.2208 10.9592 15.4957 24.9194
718 1 -1.1104 6.65137 19.6124 23.4968
579 1 -1.1104 9.496 13.9408 20.7464
454 1 -1.1104 9.41681 -0.279552 20.7231
447 1 -1.1104 9.6738 -3.0913 20.6181
437 1 -1.1104 12.4356 2.68764 20.603
449 1 -1.1104 9.6588 2.48475 20.6477
400 1 -1.1104 6.69119 2.70908 20.6774
601 1 -1.1104 6.73695 -0.221683 23.4354
594 1 -1.1104 6.71574 -3.02654 23.5057
598 1 -1.1104 6.78105 -2.90182 26.2319
595 1 -1.1104 6.57454 2.5582 23.5098
605 1 -1.1104 6.87478 0.0797778 26.245
408 1 -1.1104 6.65485 -0.110601 20.7059
599 1 -1.1104 6.75465 2.86924 26.2605
627 2 2.2208 11.026 1.38316 22.1408
628 1 -1.1104 12.4698 -2.84996 23.5691
629 1 -1.1104 12.2488 2.73643 23.5554
630 1 -1.1104 12.4144 -2.94002 26.2337
631 1 -1.1104 12.3606 2.60433 26.1892
632 1 -1.1104 12.4918 -0.0427262 23.5837
633 2 2.2208 10.9656 -1.55966 24.7571
634 2 2.2208 10.9877 4.05321 24.8985
635 1 -1.1104 12.4035 -0.211 26.3274
636 1 -1.1104 9.63912 -3.03828 23.4573
637 1 -1.1104 9.56072 2.65869 23.4522
638 2 2.2208 8.11783 1.26295 24.857
639 1 -1.1104 9.5944 -2.93636 26.2907
640 1 -1.1104 9.54826 2.69951 26.3724
641 2 2.2208 8.21305 -1.5367 22.2627
643 1 -1.1104 9.6807 -0.0782559 23.4707
644 1 -1.1104 9.53567 -0.161504 26.178
642 2 2.2208 8.09559 3.98919 22.1404
680 1 -1.1104 6.65965 16.7488 23.4385
480 1 -1.1104 1.06225 11.0785 20.7517
685 2 2.2208 -0.334736 12.5001 22.0569
421 2 2.2208 -0.232984 6.86544 22.0869
684 2 2.2208 -0.33885 9.67497 24.8458
494 1 -1.1104 4.03805 5.40835 20.6927
656 2 2.2208 5.38099 6.92803 22.0453
657 2 2.2208 5.24929 12.4472 21.9854
658 1 -1.1104 1.11282 8.23249 23.4954
660 1 -1.1104 1.05268 8.27451 26.2765
662 1 -1.1104 1.10066 5.40317 23.5814
663 1 -1.1104 1.02374 11.1638 23.4176
666 2 2.2208 5.31158 9.69392 24.9663
667 1 -1.1104 1.26063 5.4258 26.4601
668 1 -1.1104 1.22297 11.1233 26.2966
671 1 -1.1104 3.82335 8.2622 23.5614
672 2 2.2208 2.48828 6.82171 24.8551
673 2 2.2208 2.50799 12.5193 25.0292
674 1 -1.1104 3.99174 8.09764 26.3001
675 2 2.2208 2.40113 9.67794 22.1089
676 1 -1.1104 3.90813 5.50188 23.4525
677 1 -1.1104 3.94037 11.0325 23.7738
678 1 -1.1104 3.93206 5.44661 26.2591
679 1 -1.1104 3.84705 10.9907 26.3994
670 1 -1.1104 6.64822 11.1407 26.2146
462 2 2.2208 11.0284 18.1489 22.0293
712 1 -1.1104 6.75544 13.8579 26.2189
523 1 -1.1104 9.48033 11.1366 20.7972
616 2 2.2208 8.13429 21.0546 22.122
509 1 -1.1104 12.2732 5.53151 20.695
659 1 -1.1104 6.82911 8.35343 23.5115
665 1 -1.1104 6.78804 11.0961 23.5093
471 1 -1.1104 6.82429 8.28546 20.6043
482 1 -1.1104 6.74771 5.57085 20.4532
664 1 -1.1104 6.75837 5.42975 23.2218
661 1 -1.1104 6.6971 8.35037 26.4257
484 1 -1.1104 6.77549 11.1273 20.6509
669 1 -1.1104 6.7669 5.5642 26.1461
511 1 -1.1104 12.2541 11.2107 20.4548
516 1 -1.1104 9.6958 8.3086 20.5459
687 1 -1.1104 9.57384 11.173 26.227
688 1 -1.1104 9.54782 5.49508 26.2563
689 1 -1.1104 9.65428 11.2561 23.552
690 1 -1.1104 9.66575 5.52212 23.4984
691 2 2.2208 8.2149 9.76319 22.0624
692 1 -1.1104 9.49485 8.20695 26.1416
693 2 2.2208 8.17843 12.5648 24.783
694 2 2.2208 8.15162 6.95899 24.8237
695 2 2.2208 11.0698 6.95991 22.067
696 2 2.2208 10.9575 12.6437 22.0891
697 1 -1.1104 12.3467 8.46943 23.4121
698 1 -1.1104 12.3499 8.24047 26.2649
699 1 -1.1104 12.3804 5.60102 23.6085
700 1 -1.1104 12.342 11.2485 23.4238
701 2 2.2208 10.9749 9.74985 24.9405
702 1 -1.1104 12.3488 5.54955 26.343
703 1 -1.1104 12.2974 11.0834 26.4447
704 1 -1.1104 9.59771 8.46301 23.413
499 1 -1.1104 12.3061 19.6366 26.2726
497 1 -1.1104 12.3178 19.6554 23.6251
709 1 -1.1104 6.6361 13.8967 23.3455
559 1 -1.1104 3.79512 16.5644 20.7417
552 1 -1.1104 3.97767 13.8032 20.6992
554 1 -1.1104 4.03098 19.3737 20.6908
646 2 2.2208 -0.333566 15.4299 24.9224
623 2 2.2208 -0.26302 18.0913 22.1157
645 2 2.2208 -0.300492 20.94 24.8768
647 2 2.2208 2.47279 15.2116 22.1204
649 2 2.2208 2.49986 20.8945 22.0537
652 1 -1.1104 3.80358 16.7436 23.491
655 1 -1.1104 1.05269 16.7706 23.4155
681 1 -1.1104 3.94604 13.8893 26.267
682 1 -1.1104 3.90741 16.6275 26.2343
683 2 2.2208 2.43592 18.1754 24.856
686 1 -1.1104 3.68762 19.5955 26.2891
705 2 2.2208 5.26287 18.1721 22.1901
706 1 -1.1104 1.10445 13.8327 23.6268
707 1 -1.1104 1.05485 19.6593 23.5286
711 1 -1.1104 3.85851 19.5386 23.5829
713 1 -1.1104 3.85051 13.77 23.4462
715 1 -1.1104 0.922913 19.5707 26.3149
716 1 -1.1104 1.23135 16.7861 26.3373
717 1 -1.1104 0.975944 14.0373 26.3968
719 2 2.2208 5.27863 21.0607 24.8129
720 2 2.2208 5.23805 15.2847 24.7992
526 2 2.2208 10.9239 21.0202 24.8045
620 1 -1.1104 9.35226 16.9729 26.3152
561 1 -1.1104 9.41991 13.9435 23.4848
562 1 -1.1104 9.53853 19.5786 23.3764
463 1 -1.1104 12.3249 13.8958 23.4654
590 1 -1.1104 9.40117 19.6316 26.2154
569 1 -1.1104 12.4972 19.5289 20.7767
588 1 -1.1104 6.56669 19.6132 26.1947
524 1 -1.1104 12.3538 16.7871 23.4588
498 1 -1.1104 12.24 13.9702 26.2168
537 1 -1.1104 6.69559 14.0844 20.7114
587 2 2.2208 8.03544 18.2815 24.8949
714 1 -1.1104 6.57708 16.718 26.243
374 2 2.2208 5.18675 18.1129 27.6414
8454 2 2.2208 8.18437 -4.33991 13.7274
370 2 2.2208 8.05848 -1.55872 27.5101
375 2 2.2208 2.47076 20.9205 27.7169
372 2 2.2208 8.22808 4.08698 27.5627
380 2 2.2208 2.43307 9.67134 27.7486
347 2 2.2208 7.97735 15.3304 27.5725
367 2 2.2208 -0.201776 9.72965 13.6901
346 2 2.2208 10.9052 -1.50092 13.6464
357 2 2.2208 2.46211 18.1557 13.6937
335 2 2.2208 -0.357783 20.8647 13.7088
365 2 2.2208 2.62058 -1.56506 27.613
341 2 2.2208 5.56267 4.01938 13.6879
359 2 2.2208 5.27603 15.4527 13.7412
339 2 2.2208 2.52672 1.32661 13.7314
349 2 2.2208 8.16936 20.9066 27.6743
721 2 2.2208 5.27368 23.6949 5.16701
722 2 2.2208 5.30967 29.3933 5.18246
723 1 -1.1104 1.07804 25.2425 1.09048
724 1 -1.1104 1.22259 25.159 3.84166
725 1 -1.1104 1.1567 22.3592 1.18164
726 1 -1.1104 0.89721 28.0178 0.992349
727 2 2.2208 5.4413 26.6297 2.2411
728 1 -1.1104 1.22351 22.3335 3.82838
729 1 -1.1104 1.10219 27.8581 3.82806
730 1 -1.1104 3.96501 25.1481 1.00262
731 2 2.2208 2.46566 23.8015 2.39946
732 2 2.2208 2.53413 29.2459 2.33348
733 1 -1.1104 3.98194 25.1125 3.8137
734 2 2.2208 2.58109 26.5369 5.25095
735 1 -1.1104 3.79583 22.4449 0.907792
736 1 -1.1104 3.92378 27.8705 0.926665
737 1 -1.1104 3.92609 22.3125 3.88556
738 1 -1.1104 3.99964 27.949 3.54872
740 2 2.2208 -0.183741 23.7409 5.22332
747 1 -1.1104 6.78117 28.0584 3.70222
743 1 -1.1104 6.81326 25.2974 3.77925
1085 2 2.2208 10.9101 40.57 -0.366979
869 1 -1.1104 3.82385 22.4296 6.60101
865 1 -1.1104 1.12323 27.9076 6.51272
1047 2 2.2208 13.7299 35.162 8.05865
739 2 2.2208 -0.339858 29.2928 5.21488
1010 2 2.2208 -0.369479 43.4676 8.05651
742 1 -1.1104 6.75383 25.2223 1.10463
746 1 -1.1104 6.65509 22.3432 3.67658
744 1 -1.1104 6.63411 22.3165 0.853429
745 1 -1.1104 6.74714 28.0337 0.878687
748 2 2.2208 10.965 23.8577 5.10965
749 2 2.2208 10.8678 29.4836 5.1645
750 1 -1.1104 12.5276 25.2519 1.04483
751 1 -1.1104 12.4279 25.1985 3.90528
752 1 -1.1104 12.3782 22.4629 0.962556
753 1 -1.1104 12.2978 27.9856 0.916696
754 2 2.2208 10.9344 26.5526 2.30494
755 1 -1.1104 12.2568 22.4304 3.66526
756 1 -1.1104 12.2792 28.0277 3.70923
757 1 -1.1104 9.67272 25.1669 1.05851
758 2 2.2208 8.08861 23.8358 2.27752
759 2 2.2208 8.12433 29.3994 2.33424
760 1 -1.1104 9.62588 25.2532 3.6626
761 2 2.2208 8.14006 26.5877 5.16485
762 1 -1.1104 9.60832 22.3435 0.878737
763 1 -1.1104 9.48829 27.8698 0.880609
764 1 -1.1104 9.50209 22.6026 3.72508
765 1 -1.1104 9.55644 28.0448 3.74034
900 1 -1.1104 9.48998 28.176 6.57579
895 1 -1.1104 12.3081 25.3989 6.57223
866 1 -1.1104 6.6241 22.3977 6.62454
899 1 -1.1104 9.59463 22.2753 6.57278
1011 2 2.2208 -0.328757 46.1622 10.945
791 2 2.2208 -0.404029 32.2472 2.53978
769 2 2.2208 5.15284 35.0483 5.19273
770 1 -1.1104 1.19431 30.7884 1.02914
771 1 -1.1104 1.2107 36.3428 1.03557
773 1 -1.1104 1.09642 30.637 3.93021
774 1 -1.1104 1.23161 36.3086 3.88746
776 1 -1.1104 1.05122 33.511 1.10389
777 2 2.2208 5.21954 32.2246 2.39048
778 2 2.2208 5.31164 37.848 2.46408
779 1 -1.1104 1.03862 33.6107 3.75162
781 1 -1.1104 4.01734 30.7603 0.921029
782 1 -1.1104 3.92342 36.3694 1.09605
783 2 2.2208 2.48822 34.9889 2.36216
784 1 -1.1104 3.90779 30.5625 3.68351
785 1 -1.1104 3.84066 36.5511 3.99094
786 2 2.2208 2.45756 32.2035 5.14662
787 2 2.2208 2.46586 37.848 5.35691
788 1 -1.1104 3.80897 33.5171 1.10064
789 1 -1.1104 3.88209 33.5749 3.9381
1051 2 2.2208 -0.340808 34.919 10.8454
840 2 2.2208 -0.167497 46.1864 5.33545
790 2 2.2208 -0.334079 37.8483 2.62816
919 1 -1.1104 1.00049 30.7585 6.69252
1064 2 2.2208 -0.275778 31.9859 13.5248
794 1 -1.1104 6.81053 30.9638 3.77636
926 1 -1.1104 3.86752 36.2611 6.72714
927 1 -1.1104 4.0252 33.4691 6.63734
923 1 -1.1104 1.15353 33.5627 6.56749
952 2 2.2208 -0.292908 37.7634 8.1298
814 2 2.2208 13.5988 34.9319 2.4429
775 1 -1.1104 6.6385 36.491 3.74335
793 1 -1.1104 6.77646 30.8586 1.02755
780 1 -1.1104 6.54576 33.7766 3.65183
795 1 -1.1104 6.51049 33.57 0.979023
772 1 -1.1104 6.55453 36.556 1.01299
796 2 2.2208 10.8784 35.017 5.17238
797 1 -1.1104 12.3143 30.7488 0.942766
798 1 -1.1104 12.2066 36.4844 1.08982
799 1 -1.1104 12.5034 30.879 3.65464
800 1 -1.1104 12.2211 36.4104 3.83635
801 1 -1.1104 12.3352 33.6668 0.986814
802 2 2.2208 10.9564 32.2322 2.33932
803 2 2.2208 10.7942 37.7838 2.3505
804 1 -1.1104 12.3544 33.7097 3.88608
805 1 -1.1104 9.50944 30.8865 0.851219
806 1 -1.1104 9.40281 36.4032 0.976292
807 2 2.2208 8.02772 35.027 2.30664
808 1 -1.1104 9.5706 30.7489 3.62113
809 1 -1.1104 9.30048 36.5409 3.71377
810 2 2.2208 8.06595 32.2672 5.22799