ITEM: TIMESTEP
90000
ITEM: NUMBER OF ATOMS
17910
ITEM: BOX BOUNDS pp pp pp
-3.5161855184905660e-01 2.7691618551849825e+01
-4.3414545640735156e+00 3.3242145456407906e+02
-3.6026319720075139e-01 2.7700263197200922e+01
ITEM: ATOMS id type q x y z
1 2 2.2208 5.19255 1.24219 5.17668
2 1 -1.1104 0.861842 -3.1579 1.01932
3 1 -1.1104 0.978146 2.52815 0.997993
6 1 -1.1104 0.8732 -3.00259 3.55777
7 1 -1.1104 0.816032 2.47009 3.86359
10 1 -1.1104 0.828262 -0.244079 0.856518
12 2 2.2208 5.03308 -1.63973 2.31347
14 1 -1.1104 0.891224 -0.324755 3.71935
16 1 -1.1104 3.70952 -3.16422 0.998414
17 1 -1.1104 3.62225 2.53963 0.961988
18 2 2.2208 2.27092 1.16006 2.50663
19 1 -1.1104 3.61335 -3.13821 3.87376
20 1 -1.1104 3.76675 2.63403 3.69202
21 2 2.2208 2.32078 -1.53207 5.22321
22 2 2.2208 2.33339 4.01994 5.18697
23 1 -1.1104 3.50104 -0.333303 0.876632
24 1 -1.1104 3.68832 -0.224818 3.9274
13 2 2.2208 5.12026 3.88134 2.38767
8436 2 2.2208 13.5384 -4.44976 2.50885
8431 2 2.2208 2.24895 -4.46965 2.3819
312 2 2.2208 -0.622281 18.0416 10.7142
172 1 -1.1104 3.58262 -2.86261 6.71882
4 1 -1.1104 6.50679 -2.98146 0.894651
11 1 -1.1104 6.31562 -0.239116 0.997907
9 1 -1.1104 6.48036 2.67077 3.83405
173 1 -1.1104 3.63262 2.63534 6.48465
169 1 -1.1104 6.33075 2.66951 6.58295
8441 2 2.2208 10.5296 -4.43128 10.6691
8438 2 2.2208 4.94506 -4.34788 10.8955
5 1 -1.1104 6.37541 2.67803 0.829677
8 1 -1.1104 6.43745 -3.10269 3.7462
15 1 -1.1104 6.50737 -0.149805 3.74542
31 2 2.2208 10.7127 1.27049 5.22122
32 1 -1.1104 12.1366 -3.2039 1.11389
33 1 -1.1104 11.943 2.78797 0.989629
34 1 -1.1104 12.0923 -2.9158 3.88527
35 1 -1.1104 12.1232 2.66368 3.82786
36 1 -1.1104 12.1184 -0.131666 1.15474
37 2 2.2208 10.7004 -1.52268 2.38899
38 2 2.2208 10.6376 4.14252 2.45197
39 1 -1.1104 12.0843 -0.134013 3.83349
40 1 -1.1104 9.28246 -2.95755 0.740112
41 1 -1.1104 9.04473 2.52967 1.06692
42 2 2.2208 7.87369 1.16246 2.44806
43 1 -1.1104 9.248 -2.88252 3.69158
44 1 -1.1104 9.24567 2.68029 3.97098
45 2 2.2208 7.85871 -1.60586 5.24367
47 1 -1.1104 9.30239 -0.255785 1.00293
48 1 -1.1104 9.37789 -0.188419 3.85258
46 2 2.2208 7.95646 4.00778 5.31827
207 1 -1.1104 12.1813 -0.152265 6.63993
210 1 -1.1104 9.33688 -0.0619003 6.58234
206 1 -1.1104 12.0352 2.57305 6.51502
208 1 -1.1104 9.27328 -3.03295 6.55141
322 1 -1.1104 9.27573 13.9044 12.1355
329 1 -1.1104 12.2136 19.4474 12.2101
363 2 2.2208 13.5583 18.115 13.5897
332 2 2.2208 13.4918 18.1028 8.04397
49 2 2.2208 13.3494 1.30064 2.64333
201 2 2.2208 -0.420568 1.25184 10.8639
105 2 2.2208 13.403 6.89997 2.46477
54 2 2.2208 5.10665 6.8548 5.17848
55 2 2.2208 5.12028 12.4239 5.13737
56 1 -1.1104 0.953726 8.1394 1.02415
58 1 -1.1104 0.881162 8.23882 3.85277
60 1 -1.1104 0.707034 5.31711 1.02759
61 1 -1.1104 0.955032 10.9719 1.10687
66 2 2.2208 5.09343 9.57718 2.2147
67 1 -1.1104 0.926398 5.48019 3.87093
68 1 -1.1104 0.812965 10.9187 3.74611
71 1 -1.1104 3.62291 8.15895 0.967393
72 2 2.2208 2.25177 6.69189 2.4119
73 2 2.2208 2.22002 12.3778 2.41253
74 1 -1.1104 3.66497 8.28876 3.82202
75 2 2.2208 2.29485 9.651 5.19398
76 1 -1.1104 3.56534 5.28824 1.04238
77 1 -1.1104 3.55034 10.927 1.17848
79 1 -1.1104 3.6835 5.38295 3.76822
80 1 -1.1104 3.69509 11.0797 3.84624
64 1 -1.1104 6.41768 10.8846 0.999055
70 1 -1.1104 6.36997 10.9306 3.71652
69 1 -1.1104 6.51788 5.40349 3.81994
57 1 -1.1104 6.53317 8.01136 0.863454
381 2 2.2208 5.0784 12.3686 -0.350311
59 1 -1.1104 6.32432 8.15555 3.62792
63 1 -1.1104 6.45127 5.3276 1.07472
78 1 -1.1104 3.7544 11.0219 6.64267
237 1 -1.1104 6.40019 5.40544 6.63835
379 2 2.2208 5.05802 6.75765 -0.419623
385 2 2.2208 7.85453 9.51618 -0.34728
84 2 2.2208 10.6741 6.81456 5.15995
85 2 2.2208 10.8317 12.5735 5.13355
86 1 -1.1104 12.1547 8.318 1.00274
87 1 -1.1104 12.0816 8.2777 3.81757
88 1 -1.1104 12.1523 5.56451 1.14553
89 1 -1.1104 11.9431 10.9477 1.0193
91 2 2.2208 10.6517 9.66551 2.43065
92 1 -1.1104 11.9321 5.35319 3.86687
93 1 -1.1104 12.1122 11.1217 3.77617
94 1 -1.1104 9.25544 8.12701 1.04505
95 2 2.2208 7.83911 6.78191 2.34178
96 2 2.2208 7.84542 12.4035 2.43418
97 1 -1.1104 9.2591 8.16437 3.71246
98 2 2.2208 7.69611 9.50669 5.1157
99 1 -1.1104 9.32685 5.38034 1.05557
100 1 -1.1104 9.09559 11.0625 0.861128
102 1 -1.1104 9.27675 5.42934 3.88282
103 1 -1.1104 9.03705 10.8688 3.79586
90 1 -1.1104 12.0911 10.9995 6.6078
267 1 -1.1104 9.29175 8.20044 6.58911
324 2 2.2208 10.66 20.8329 8.03441
265 1 -1.1104 12.0251 8.26427 6.57528
165 2 2.2208 13.5599 18.1563 2.38015
319 1 -1.1104 9.21732 13.9136 9.31835
106 2 2.2208 5.16387 17.9866 5.26214
107 1 -1.1104 0.762573 13.6144 0.939565
109 1 -1.1104 0.732138 19.4703 0.962866
113 1 -1.1104 0.972122 13.8745 3.73776
114 1 -1.1104 0.914979 19.4042 3.87781
116 1 -1.1104 1.01693 16.6125 0.868622
119 2 2.2208 5.04674 15.2473 2.39761
120 2 2.2208 5.04936 20.8419 2.4393
121 1 -1.1104 0.773681 16.6457 3.6929
123 1 -1.1104 3.64133 13.8859 1.03202
125 1 -1.1104 3.78694 19.4564 1.09357
127 2 2.2208 2.20715 18.1013 2.42993
128 1 -1.1104 3.57987 13.806 3.69818
129 1 -1.1104 3.717 19.4543 3.81129
130 2 2.2208 2.16499 15.2464 5.15955
131 2 2.2208 2.40002 20.7828 5.19826
132 1 -1.1104 3.7471 16.5175 1.08495
134 1 -1.1104 3.62171 16.695 3.88837
136 2 2.2208 -0.580405 20.8779 2.24165
110 1 -1.1104 6.5453 13.8482 1.00963
373 2 2.2208 2.39633 15.15 -0.314011
122 1 -1.1104 6.56954 16.6177 3.66437
327 1 -1.1104 12.094 19.3949 9.4911
133 1 -1.1104 3.76126 16.6909 6.61118
108 1 -1.1104 0.75541 13.7677 6.34341
126 1 -1.1104 3.75963 19.4769 6.69747
156 1 -1.1104 9.33159 19.4286 6.79732
138 1 -1.1104 6.50816 19.511 1.15288
139 1 -1.1104 6.49172 19.4273 3.908
111 1 -1.1104 6.52047 13.766 6.46748
118 1 -1.1104 6.54509 16.6054 6.70133
115 1 -1.1104 6.49173 13.7318 3.74812
231 2 2.2208 13.6044 20.8941 5.27832
140 1 -1.1104 6.46188 16.5838 0.869103
141 2 2.2208 10.8298 18.058 5.22818
142 1 -1.1104 12.1603 13.911 0.940688
144 1 -1.1104 12.0808 19.4607 1.00853
146 1 -1.1104 12.1102 13.8482 3.71573
147 1 -1.1104 12.2441 19.6206 3.77153
148 1 -1.1104 12.0912 16.7477 0.963887
150 2 2.2208 10.7104 15.3016 2.40677
151 2 2.2208 10.7925 20.8686 2.44617
152 1 -1.1104 12.1489 16.7427 3.8081
153 1 -1.1104 9.37591 13.7959 1.02451
155 1 -1.1104 9.27186 19.5153 1.06475
157 2 2.2208 8.0231 18.0106 2.37486
158 1 -1.1104 9.30989 13.7907 3.79963
159 1 -1.1104 9.30813 19.4504 3.91973
160 2 2.2208 7.9818 15.2496 5.21977
161 2 2.2208 7.84248 20.7711 5.28978
162 1 -1.1104 9.20065 16.6144 0.84685
164 1 -1.1104 9.50612 16.6423 3.82871
143 1 -1.1104 12.0945 13.8751 6.39702
163 1 -1.1104 9.39209 16.6834 6.51731
154 1 -1.1104 9.35603 13.7104 6.50887
145 1 -1.1104 12.3035 19.3791 6.54486
112 1 -1.1104 6.53581 19.5047 6.66331
82 2 2.2208 -0.55468 9.51924 2.48913
52 2 2.2208 13.4676 9.50011 10.7592
167 1 -1.1104 0.799245 2.66074 6.74722
166 1 -1.1104 0.928043 -2.96021 6.41112
174 1 -1.1104 3.69606 -0.125552 6.69944
168 1 -1.1104 6.3175 -3.01187 6.53547
170 1 -1.1104 1.00186 -0.177482 6.58213
323 1 -1.1104 12.0535 16.7019 9.29334
28 2 2.2208 13.4153 20.8944 10.7413
175 2 2.2208 5.10591 1.28796 10.9622
176 1 -1.1104 0.868952 -3.06515 12.2244
177 1 -1.1104 0.947219 2.61364 12.2989
180 1 -1.1104 0.71404 -2.95755 9.24625
181 1 -1.1104 0.980983 2.76746 9.445
184 1 -1.1104 0.962563 -0.179225 12.2697
186 2 2.2208 5.08324 -1.50857 8.04629
188 1 -1.1104 0.90281 -0.0731337 9.39127
190 1 -1.1104 3.60936 -2.92121 12.1497
191 1 -1.1104 3.69157 2.68606 12.2149
192 2 2.2208 2.37861 1.20463 8.05059
193 1 -1.1104 3.5429 -3.08947 9.49562
194 1 -1.1104 3.73481 2.76694 9.4882
195 2 2.2208 2.23374 -1.63996 10.7931
197 1 -1.1104 3.74882 -0.162701 12.2203
198 1 -1.1104 3.78732 -0.244029 9.63705
187 2 2.2208 5.00647 3.99282 7.95851
196 2 2.2208 2.30264 4.02281 10.9548
183 1 -1.1104 6.42423 2.59966 9.44434
179 1 -1.1104 6.5826 2.64286 12.2073
178 1 -1.1104 6.49728 -3.05217 12.1773
171 1 -1.1104 6.47014 -0.223589 6.62204
185 1 -1.1104 6.51334 -0.203755 12.2519
182 1 -1.1104 6.41053 -2.95206 9.39432
204 2 2.2208 13.4629 15.2474 5.06115
209 1 -1.1104 9.19224 2.60853 6.77226
189 1 -1.1104 6.4062 -0.105532 9.46886
232 2 2.2208 13.5607 9.76184 5.16492
203 2 2.2208 13.4512 4.04582 10.8302
386 2 2.2208 10.6175 12.4934 -0.453104
306 1 -1.1104 6.54527 16.6707 12.1614
205 1 -1.1104 11.942 -2.92995 6.57689
211 2 2.2208 10.6847 1.16105 10.9825
212 1 -1.1104 12.2091 -3.02124 12.2102
213 1 -1.1104 12.1527 2.5771 12.1639
214 1 -1.1104 12.0378 -2.964 9.47246
215 1 -1.1104 12.0726 2.67501 9.36543
216 1 -1.1104 12.1566 -0.268473 12.3602
217 2 2.2208 10.6975 -1.59861 8.00691
218 2 2.2208 10.6299 3.98441 8.12595
219 1 -1.1104 12.0701 -0.173396 9.37416
220 1 -1.1104 9.24496 -2.8956 12.1614
221 1 -1.1104 9.43572 2.74896 12.442
222 2 2.2208 7.8465 1.21798 8.10601
223 1 -1.1104 9.15044 -3.0101 9.37308
224 1 -1.1104 9.29603 2.54119 9.61453
225 2 2.2208 7.8242 -1.63527 10.7287
227 1 -1.1104 9.35483 -0.340826 12.2096
228 1 -1.1104 9.21893 -0.103927 9.21044
226 2 2.2208 7.83329 4.04942 10.855
343 2 2.2208 8.03606 1.17148 13.64
314 1 -1.1104 9.27509 16.5609 9.40054
62 1 -1.1104 0.938605 10.9755 6.54622
238 1 -1.1104 3.7474 8.11507 6.65337
239 1 -1.1104 3.62581 5.43079 6.72504
234 1 -1.1104 0.814295 8.21683 6.67144
65 1 -1.1104 6.42925 11.0547 6.66348
236 1 -1.1104 0.860941 5.44468 6.57137
240 2 2.2208 5.10974 6.95214 10.805
241 2 2.2208 4.972 12.3441 10.7848
242 1 -1.1104 0.890565 8.3928 12.306
244 1 -1.1104 0.868635 8.27583 9.48449
246 1 -1.1104 0.861587 5.44661 12.018
247 1 -1.1104 0.713679 11.2514 12.2749
250 2 2.2208 5.10923 9.58942 8.01654
251 1 -1.1104 0.663191 5.66781 9.29821
252 1 -1.1104 0.842351 11.2169 9.28556
255 1 -1.1104 3.59229 8.37383 12.3326
256 2 2.2208 2.30949 6.81763 8.04887
257 2 2.2208 2.21144 12.3133 7.90197
258 1 -1.1104 3.64726 8.40611 9.51588
259 2 2.2208 2.30277 9.77777 10.8989
260 1 -1.1104 3.68522 5.51024 12.3988
261 1 -1.1104 3.6623 11.0135 12.2809
262 1 -1.1104 3.68116 5.61697 9.53967
263 1 -1.1104 3.60417 11.0115 9.31031
248 1 -1.1104 6.52257 5.54775 12.2235
245 1 -1.1104 6.51257 8.30199 9.39345
249 1 -1.1104 6.43493 11.059 12.163
235 1 -1.1104 6.5147 8.24475 6.58428
254 1 -1.1104 6.40943 11.0805 9.4038
253 1 -1.1104 6.44082 5.4937 9.32313
243 1 -1.1104 6.49736 8.35782 12.316
104 2 2.2208 13.4203 12.3416 2.26503
50 2 2.2208 13.5029 -1.58868 5.30245
202 2 2.2208 13.4749 6.93769 7.96749
320 2 2.2208 7.89793 18.0429 8.16135
266 1 -1.1104 11.986 5.41112 6.70221
101 1 -1.1104 9.26924 11.0533 6.45725
269 1 -1.1104 9.2703 5.49016 6.64158
326 1 -1.1104 12.2303 16.5596 12.2222
264 1 -1.1104 9.33375 11.0541 9.28196
268 1 -1.1104 9.35615 5.58411 9.40396
270 1 -1.1104 9.17673 11.1659 12.0075
271 1 -1.1104 9.3323 5.48485 12.0865
272 2 2.2208 7.88896 9.65827 10.8313
273 1 -1.1104 9.32918 8.31798 9.37119
274 2 2.2208 7.80817 12.4438 7.93036
275 2 2.2208 7.91454 6.8626 8.05135
276 2 2.2208 10.6389 6.82636 10.7959
277 2 2.2208 10.6892 12.5774 10.7099
278 1 -1.1104 12.1646 8.19107 12.23
279 1 -1.1104 12.1298 8.23864 9.45526
280 1 -1.1104 12.0767 5.38138 12.3319
281 1 -1.1104 12.0364 11.0021 12.0736
282 2 2.2208 10.723 9.58477 7.95933
283 1 -1.1104 12.1864 5.53827 9.5061
284 1 -1.1104 12.338 11.1554 9.37015
285 1 -1.1104 9.26437 8.33271 12.297
330 1 -1.1104 12.1181 13.7479 12.237
315 1 -1.1104 9.34486 16.8039 12.2546
318 1 -1.1104 9.21939 19.4366 9.48702
380 2 2.2208 2.32922 9.48052 -0.302001
124 1 -1.1104 3.61227 13.9213 6.54846
302 1 -1.1104 0.97206 19.5899 6.69215
149 1 -1.1104 12.2706 16.767 6.53619
288 1 -1.1104 6.4641 19.4862 9.40931
296 1 -1.1104 6.44084 19.5332 12.2948
290 1 -1.1104 6.35737 13.8648 9.43008
289 1 -1.1104 6.24552 16.7599 9.38338
117 1 -1.1104 0.848467 16.6187 6.36645
310 2 2.2208 2.2795 15.3296 10.861
309 2 2.2208 2.33219 21.0013 10.8455
286 1 -1.1104 3.60532 19.6166 12.2178
300 2 2.2208 5.14572 18.2015 10.7959
299 1 -1.1104 1.04798 13.9456 12.1727
308 1 -1.1104 3.76549 16.7773 12.2129
298 1 -1.1104 0.827381 19.509 12.4808
304 1 -1.1104 3.52672 16.6794 9.31114
303 2 2.2208 2.24637 18.235 8.13357
292 1 -1.1104 0.777521 16.6733 9.25911
295 2 2.2208 4.88734 15.133 8.00362
307 1 -1.1104 0.807216 16.8275 12.2673
301 1 -1.1104 3.55286 19.4945 9.55997
291 1 -1.1104 0.858525 19.4484 9.50439
305 1 -1.1104 3.61692 13.8733 9.50905
287 1 -1.1104 3.77965 13.7992 12.2851
294 1 -1.1104 0.750681 13.8555 9.23288
293 2 2.2208 5.01259 20.8196 7.96811
297 1 -1.1104 6.6288 13.8101 12.2843
317 2 2.2208 7.81432 15.2704 10.7396
361 2 2.2208 10.6396 15.186 13.5347
331 2 2.2208 10.6811 18.0077 10.8054
321 1 -1.1104 9.37016 19.5271 12.1664
328 1 -1.1104 12.0901 14.0165 9.3717
325 2 2.2208 10.6927 15.3072 7.90456
316 2 2.2208 7.86343 20.8421 10.9241
344 2 2.2208 13.5614 15.2332 -0.44837
346 2 2.2208 10.7731 -1.68971 13.6279
353 2 2.2208 2.35121 12.4749 13.5995
27 2 2.2208 -0.73285 3.91988 2.34964
359 2 2.2208 5.16166 15.1618 13.6806
340 2 2.2208 13.49 1.29591 13.69
8453 2 2.2208 13.4141 -4.48588 13.6002
8458 2 2.2208 2.15509 -4.34816 13.668
351 2 2.2208 2.30904 6.8219 13.7231
383 2 2.2208 -0.500045 6.69441 -0.348237
339 2 2.2208 2.33535 1.08358 13.6234
360 2 2.2208 10.7246 21.0026 13.5924
364 2 2.2208 4.96136 1.19064 -0.460289
348 2 2.2208 10.7861 18.1366 -0.444584
370 2 2.2208 7.89581 -1.53695 -0.406893
377 2 2.2208 13.4809 -1.59972 -0.289503
349 2 2.2208 7.84058 20.8296 -0.468283
388 2 2.2208 5.12753 1.10875 16.4152
389 1 -1.1104 0.86466 -2.89603 17.7876
390 1 -1.1104 0.839829 2.61766 17.7371
393 1 -1.1104 0.690321 -3.13728 14.9819
395 1 -1.1104 0.736896 2.64316 15.0063
401 1 -1.1104 0.979787 -0.143125 17.7332
403 2 2.2208 5.12772 -1.6029 19.2863
404 2 2.2208 5.16209 4.00216 19.2514
405 1 -1.1104 1.05283 -0.309744 15.007
409 1 -1.1104 3.78167 -2.91026 17.72
410 1 -1.1104 3.70494 2.67912 17.6641
411 2 2.2208 2.27793 1.21801 19.1255
412 1 -1.1104 3.71046 -3.09525 14.8776
414 1 -1.1104 3.57957 2.57352 15.0011
416 2 2.2208 2.391 -1.55286 16.3909
418 1 -1.1104 3.7761 -0.247383 17.8522
419 1 -1.1104 3.76803 -0.2261 15.0651
417 2 2.2208 2.31544 4.10526 16.4526
392 1 -1.1104 6.65867 2.55854 17.8349
8518 2 2.2208 13.4814 -4.44626 24.8747
402 1 -1.1104 6.5233 -0.259792 17.9376
408 1 -1.1104 6.54213 -0.16705 20.7153
341 2 2.2208 5.14071 4.00741 13.6911
397 1 -1.1104 6.4774 -3.00981 15.1399
399 1 -1.1104 6.49177 2.63799 15.0548
391 1 -1.1104 6.45982 -3.06917 17.948
407 1 -1.1104 6.5876 -0.260408 15.0313
338 2 2.2208 5.19132 -1.56784 13.5774
8585 2 2.2208 13.4847 -4.46594 19.1529
431 2 2.2208 10.7616 1.18903 16.4905
432 1 -1.1104 12.1212 -3.06103 17.767
433 1 -1.1104 12.204 2.55971 17.7942
434 1 -1.1104 12.0598 -3.09226 15.0462
436 1 -1.1104 12.0659 2.60203 15.053
438 1 -1.1104 12.111 -0.362627 17.924
439 2 2.2208 10.5932 -1.60594 19.2092
440 2 2.2208 10.7502 4.02262 19.1863
441 1 -1.1104 12.1378 -0.118664 15.1374
443 1 -1.1104 9.28581 -3.1525 17.7992
444 1 -1.1104 9.41828 2.70717 17.9465
445 2 2.2208 7.82962 1.24135 19.3887
446 1 -1.1104 9.26662 -3.08641 15.1367
448 1 -1.1104 9.15427 2.695 15.1409
450 2 2.2208 7.87601 -1.65491 16.4884
452 1 -1.1104 9.31988 -0.172595 17.8205
453 1 -1.1104 9.53987 -0.220533 15.0027
451 2 2.2208 7.93954 4.06717 16.5137
355 2 2.2208 10.7053 9.72609 13.5144
354 2 2.2208 7.79823 6.88967 13.6135
616 2 2.2208 7.81255 20.8514 22.0837
428 2 2.2208 13.4142 1.12962 19.3115
442 1 -1.1104 11.9983 -0.0811935 20.6855
335 2 2.2208 -0.600873 20.8315 13.6022
350 2 2.2208 10.7087 4.10793 13.7156
648 2 2.2208 -0.440288 12.4877 16.4862
464 2 2.2208 5.14834 6.79801 16.5498
465 2 2.2208 5.03425 12.4116 16.3842
466 1 -1.1104 0.872166 8.14498 17.7704
468 1 -1.1104 0.946907 8.16811 15.137
472 1 -1.1104 0.863784 5.35351 17.7836
473 1 -1.1104 1.01948 10.9896 17.8518
476 2 2.2208 5.06573 9.67608 19.4616
477 1 -1.1104 0.920467 5.3712 14.9285
479 1 -1.1104 0.919418 10.8887 15.0979
485 1 -1.1104 3.64414 8.13206 17.8465
486 2 2.2208 2.31487 6.81595 19.2693
487 2 2.2208 2.30434 12.4096 19.2895
488 1 -1.1104 3.80756 8.16186 15.0886
490 2 2.2208 2.30975 9.58545 16.4213
491 1 -1.1104 3.67943 5.41066 17.8209
492 1 -1.1104 3.67435 10.909 17.8753
493 1 -1.1104 3.79287 5.37627 15.1042
495 1 -1.1104 3.71288 11.1224 15.0592
470 1 -1.1104 6.68994 8.26167 15.1299
474 1 -1.1104 6.69255 5.36225 18.0648
483 1 -1.1104 6.54907 10.9676 14.9949
459 2 2.2208 13.5118 -1.68107 16.4226
467 1 -1.1104 6.49031 8.31007 17.8477
481 1 -1.1104 6.45177 5.46044 15.139
484 1 -1.1104 6.51556 11.0914 20.7355
478 1 -1.1104 0.853779 5.41121 20.6284
496 1 -1.1104 3.65215 11.0729 20.7112
482 1 -1.1104 6.66843 5.55888 20.7504
475 1 -1.1104 6.45751 11.0451 17.8778
500 2 2.2208 10.7558 6.94116 16.4083
501 2 2.2208 10.7541 12.416 16.3891
502 1 -1.1104 12.2269 8.30073 18.0569
503 1 -1.1104 12.156 8.24458 15.1195
505 1 -1.1104 12.0814 5.46853 17.7883
506 1 -1.1104 12.2201 11.0489 17.8195
507 2 2.2208 10.7217 9.68414 19.2415
508 1 -1.1104 12.1482 5.40873 15.1539
510 1 -1.1104 12.228 10.9554 15.0435
512 1 -1.1104 9.30522 8.25939 17.814
513 2 2.2208 7.99784 6.90931 19.1706
514 2 2.2208 8.00791 12.4555 19.14
515 1 -1.1104 9.40495 8.08486 15.0294
517 2 2.2208 7.91446 9.74518 16.4877
518 1 -1.1104 9.40628 5.55361 17.832
519 1 -1.1104 9.38081 11.0817 17.7462
520 1 -1.1104 9.3836 5.46027 15.0497
522 1 -1.1104 9.32949 10.918 14.8615
426 2 2.2208 13.612 9.72173 16.4647
516 1 -1.1104 9.4052 8.28565 20.7349
352 2 2.2208 5.09884 9.57102 13.8089
504 1 -1.1104 12.1826 8.40688 20.5754
511 1 -1.1104 12.1141 11.1117 20.7518
523 1 -1.1104 9.48431 11.0545 20.5339
499 1 -1.1104 12.1524 19.4198 26.291
471 1 -1.1104 6.45939 8.32238 20.6176
650 2 2.2208 13.4544 12.53 19.262
526 2 2.2208 10.719 20.8273 24.88
527 2 2.2208 5.04347 17.9497 16.44
528 1 -1.1104 0.893133 13.7825 17.8533
529 1 -1.1104 0.905872 19.4334 17.7858
532 1 -1.1104 1.03688 13.8867 15.0392
534 1 -1.1104 0.888992 19.5279 15.0285
540 1 -1.1104 0.954226 16.5709 17.8939
542 2 2.2208 5.12895 15.2158 19.2872
543 2 2.2208 5.19686 20.8318 19.1062
544 1 -1.1104 0.939326 16.7086 15.1567
548 1 -1.1104 3.65189 13.7455 17.8655
549 1 -1.1104 3.83839 19.4322 17.8101
550 2 2.2208 2.35338 18.0789 19.2795
551 1 -1.1104 3.73283 13.9609 15.2067
553 1 -1.1104 3.67166 19.4809 14.9948
555 2 2.2208 2.22565 15.2362 16.4374
556 2 2.2208 2.2665 20.831 16.4247
557 1 -1.1104 3.69485 16.5952 17.9217
558 1 -1.1104 3.65489 16.699 15.0657
552 1 -1.1104 3.65215 13.7205 20.5806
531 1 -1.1104 6.61572 19.4543 17.8369
530 1 -1.1104 6.64097 14.0372 17.9998
537 1 -1.1104 6.46026 13.8743 20.7486
357 2 2.2208 2.29847 18.1968 13.6572
358 2 2.2208 5.11783 20.9121 13.6773
546 1 -1.1104 6.51332 16.5772 14.9797
541 1 -1.1104 6.47297 16.5968 17.8077
559 1 -1.1104 3.58741 16.7874 20.6615
623 2 2.2208 -0.619531 18.0985 21.9414
536 1 -1.1104 6.56762 13.6271 15.0502
538 1 -1.1104 6.39419 19.5651 15.0523
563 2 2.2208 10.7005 18.1397 16.4112
564 1 -1.1104 12.0272 13.8403 17.7537
565 1 -1.1104 12.1407 19.6837 17.7837
566 1 -1.1104 11.9913 13.7653 15.0118
568 1 -1.1104 12.1884 19.5209 15.0226
570 1 -1.1104 12.1323 16.7485 17.8047
571 2 2.2208 10.695 15.2971 19.1167
572 2 2.2208 10.6953 20.9238 19.1567
573 1 -1.1104 12.0662 16.4998 14.965
575 1 -1.1104 9.3921 13.767 17.7119
576 1 -1.1104 9.35652 19.3093 17.9256
577 2 2.2208 7.92183 18.0641 19.2872
578 1 -1.1104 9.41629 13.726 14.858
580 1 -1.1104 9.31112 19.3767 14.7872
582 2 2.2208 7.95507 15.2085 16.3559
583 2 2.2208 7.86247 20.8442 16.3761
584 1 -1.1104 9.25766 16.6445 17.7331
585 1 -1.1104 9.2952 16.6066 14.9595
366 2 2.2208 2.26406 4.02277 27.8526
581 1 -1.1104 9.26327 19.4144 20.7504
579 1 -1.1104 9.24659 13.8364 20.6627
567 1 -1.1104 12.1509 13.9404 20.5576
547 1 -1.1104 6.37241 16.7553 20.5115
539 1 -1.1104 6.52405 19.5265 20.7265
362 2 2.2208 7.90257 18.054 13.6349
420 1 -1.1104 3.74213 -0.268447 20.6142
400 1 -1.1104 6.31907 2.71958 20.8592
398 1 -1.1104 6.38439 -2.85603 20.8172
396 1 -1.1104 0.844195 2.64729 20.6075
413 1 -1.1104 3.60286 -3.06121 20.5281
406 1 -1.1104 0.770027 -0.099628 20.6067
415 1 -1.1104 3.65863 2.48911 20.5385
394 1 -1.1104 0.875188 -2.77668 20.5094
591 2 2.2208 5.13228 1.189 22.0561
592 1 -1.1104 1.00232 -2.83933 23.3972
593 1 -1.1104 0.837549 2.61415 23.4377
596 1 -1.1104 0.87995 -3.01442 26.2012
597 1 -1.1104 0.917081 2.65171 26.3116
600 1 -1.1104 0.840525 -0.114677 23.3708
602 2 2.2208 5.06105 -1.584 24.8645
604 1 -1.1104 0.948328 -0.284023 26.1447
606 1 -1.1104 3.73435 -2.89032 23.3655
607 1 -1.1104 3.6254 2.62106 23.4782
608 2 2.2208 2.25975 1.17246 24.7663
609 1 -1.1104 3.64428 -3.0846 26.2016
610 1 -1.1104 3.76054 2.74688 26.1275
611 2 2.2208 2.34662 -1.55139 22.0179
612 2 2.2208 2.19387 3.96142 22.0624
613 1 -1.1104 3.72632 -0.110914 23.3796
614 1 -1.1104 3.57079 -0.267793 26.1379
603 2 2.2208 5.1118 4.01229 24.9064
595 1 -1.1104 6.35582 2.6313 23.466
605 1 -1.1104 6.38051 -0.295787 26.3039
599 1 -1.1104 6.48128 2.57819 26.1815
594 1 -1.1104 6.48431 -3.05298 23.4435
598 1 -1.1104 6.54226 -3.09347 26.1287
601 1 -1.1104 6.46206 -0.128479 23.6359
586 1 -1.1104 9.09646 16.5763 20.512
625 2 2.2208 -0.593937 1.21084 22.0104
375 2 2.2208 2.23774 20.833 27.7018
447 1 -1.1104 9.25337 -2.93921 20.5713
454 1 -1.1104 9.23634 -0.277635 20.6707
437 1 -1.1104 12.1317 2.69132 20.6556
449 1 -1.1104 9.21055 2.51626 20.711
653 2 2.2208 13.4061 -1.61043 22.0507
654 2 2.2208 13.4972 1.31739 24.9235
435 1 -1.1104 12.0969 -2.96731 20.5804
627 2 2.2208 10.7084 1.2254 22.0516
628 1 -1.1104 12.0261 -2.87096 23.5117
629 1 -1.1104 12.1486 2.58092 23.412
630 1 -1.1104 12.18 -2.89921 26.3659
631 1 -1.1104 12.1947 2.7403 26.2774
632 1 -1.1104 12.0575 -0.180298 23.4163
633 2 2.2208 10.7421 -1.60466 24.8841
634 2 2.2208 10.733 4.04995 24.9453
635 1 -1.1104 12.1 -0.173093 26.3584
636 1 -1.1104 9.30693 -2.91386 23.3202
637 1 -1.1104 9.25205 2.63144 23.6435
638 2 2.2208 7.80807 1.16427 25.0013
639 1 -1.1104 9.41765 -2.99194 26.1827
640 1 -1.1104 9.3775 2.66712 26.3545
641 2 2.2208 7.83358 -1.61206 22.1416
643 1 -1.1104 9.1291 -0.25356 23.6389
644 1 -1.1104 9.38914 -0.214164 26.3571
642 2 2.2208 7.81795 3.91166 22.0234
498 1 -1.1104 11.9113 13.87 26.3796
337 2 2.2208 -0.544887 4.098 13.5886
494 1 -1.1104 3.75296 5.47442 20.6155
480 1 -1.1104 0.926121 10.9421 20.7222
489 1 -1.1104 3.7124 8.18847 20.7248
469 1 -1.1104 0.922624 8.18989 20.8934
656 2 2.2208 5.12155 6.73117 22.0903
657 2 2.2208 5.02271 12.3787 22.2055
658 1 -1.1104 0.701019 8.27459 23.7261
660 1 -1.1104 0.904291 8.16977 26.3098
662 1 -1.1104 0.99504 5.65518 23.2922
663 1 -1.1104 0.684672 11.034 23.5099
666 2 2.2208 5.11886 9.64899 24.8686
667 1 -1.1104 0.791276 5.38016 26.1264
668 1 -1.1104 0.864806 10.9816 26.2497
671 1 -1.1104 3.54923 8.12389 23.4699
672 2 2.2208 2.34184 6.78217 24.9048
673 2 2.2208 2.27051 12.4147 24.7464
674 1 -1.1104 3.76914 8.13286 26.2373
675 2 2.2208 2.20953 9.64152 22.1578
676 1 -1.1104 3.83882 5.26541 23.3648
677 1 -1.1104 3.69714 10.9495 23.5194
678 1 -1.1104 3.64532 5.442 26.3349
679 1 -1.1104 3.52185 11.0803 26.293
669 1 -1.1104 6.53266 5.31767 26.3151
659 1 -1.1104 6.57659 8.11325 23.34
665 1 -1.1104 6.49521 11.0223 23.5853
664 1 -1.1104 6.60225 5.44513 23.5195
661 1 -1.1104 6.46143 8.29478 26.0964
427 2 2.2208 -0.622139 4.01077 19.2588
710 2 2.2208 13.4026 6.64533 24.8042
521 1 -1.1104 9.39803 5.3451 20.4883
680 1 -1.1104 6.46284 16.6732 23.304
422 2 2.2208 13.543 9.59305 22.0676
670 1 -1.1104 6.51502 10.9229 26.2567
509 1 -1.1104 12.2951 5.48342 20.6896
687 1 -1.1104 9.39633 11.1384 26.1006
688 1 -1.1104 9.32352 5.55334 26.2579
689 1 -1.1104 9.44461 11.0672 23.3102
690 1 -1.1104 9.44157 5.48833 23.518
691 2 2.2208 7.89367 9.65437 22.079
692 1 -1.1104 9.31625 8.42548 26.3296
693 2 2.2208 7.84423 12.4934 24.7782
694 2 2.2208 7.96075 6.88337 24.9165
695 2 2.2208 10.7859 6.86746 21.9413
696 2 2.2208 10.7388 12.4628 21.9798
697 1 -1.1104 12.1379 8.19406 23.3992
698 1 -1.1104 12.0928 8.2745 26.0983
699 1 -1.1104 12.0295 5.3349 23.5003
700 1 -1.1104 12.1372 11.0552 23.5426
701 2 2.2208 10.741 9.7001 24.8155
702 1 -1.1104 12.0848 5.49558 26.436
703 1 -1.1104 12.1621 11.1503 26.2684
704 1 -1.1104 9.27395 8.28553 23.501
615 2 2.2208 7.70554 15.2379 22.0908
620 1 -1.1104 9.32182 16.5679 26.1734
714 1 -1.1104 6.55779 16.4355 26.1147
718 1 -1.1104 6.54262 19.4286 23.453
554 1 -1.1104 3.66484 19.507 20.704
535 1 -1.1104 0.904528 19.4443 20.643
545 1 -1.1104 0.791742 16.6693 20.7863
562 1 -1.1104 9.25986 19.3619 23.5482
712 1 -1.1104 6.44911 13.6748 26.2027
533 1 -1.1104 0.803994 13.8016 20.5935
647 2 2.2208 2.22903 15.2494 22.0547
649 2 2.2208 2.37511 20.8887 22.0118
652 1 -1.1104 3.72577 16.6939 23.5116
655 1 -1.1104 0.787497 16.7358 23.4665
681 1 -1.1104 3.79968 13.8543 26.2773
682 1 -1.1104 3.76226 16.7621 26.223
683 2 2.2208 2.27909 18.1104 24.8889
686 1 -1.1104 3.69952 19.5122 26.4046
705 2 2.2208 5.04423 18.0366 22.1114
706 1 -1.1104 0.91441 13.8897 23.4419
707 1 -1.1104 0.914405 19.527 23.3253
711 1 -1.1104 3.79286 19.488 23.4913
713 1 -1.1104 3.67229 13.7696 23.4995
715 1 -1.1104 0.799905 19.4077 26.2612
716 1 -1.1104 0.919614 16.7081 26.1728
717 1 -1.1104 1.09609 13.8532 26.2465
719 2 2.2208 5.1991 20.9449 24.8313
720 2 2.2208 5.07304 15.2194 24.9552
588 1 -1.1104 6.41653 19.4029 26.2819
709 1 -1.1104 6.39231 13.8603 23.4648
497 1 -1.1104 12.1784 19.5006 23.4668
524 1 -1.1104 11.9865 16.7048 23.4168
617 1 -1.1104 9.24552 16.7038 23.3558
462 2 2.2208 10.6037 18.0849 22.0188
463 1 -1.1104 12.0392 13.7648 23.3949
589 1 -1.1104 9.18841 13.7997 26.2503
525 2 2.2208 10.5883 15.1445 24.9185
569 1 -1.1104 12.0358 19.4994 20.6997
587 2 2.2208 7.85178 17.9685 24.7978
574 1 -1.1104 11.976 16.7648 20.5529
561 1 -1.1104 9.20268 13.9233 23.4986
560 1 -1.1104 12.1699 16.5816 26.1772
590 1 -1.1104 9.23372 19.3505 26.3075
365 2 2.2208 2.18103 -1.74325 27.645
378 2 2.2208 13.6182 3.98288 27.8128
369 2 2.2208 10.7298 1.22371 27.5787
384 2 2.2208 10.7448 6.989 27.6563
347 2 2.2208 7.86413 15.149 27.6086
345 2 2.2208 13.5881 20.9794 27.7681
374 2 2.2208 5.09306 17.9926 27.6726
336 2 2.2208 13.4839 6.88536 13.6633
356 2 2.2208 7.86812 12.4908 13.606
372 2 2.2208 7.87196 3.9246 27.739
721 2 2.2208 5.05858 23.704 5.2038
722 2 2.2208 5.18389 29.2692 5.32193
723 1 -1.1104 0.829238 25.029 1.15752
724 1 -1.1104 0.850274 24.9499 3.83852
725 1 -1.1104 0.90196 22.2857 0.793397
726 1 -1.1104 0.896298 27.7634 1.17677
727 2 2.2208 5.14142 26.4238 2.38726
728 1 -1.1104 0.819742 22.1358 3.74517
729 1 -1.1104 0.819576 27.8247 3.90789
730 1 -1.1104 3.71138 24.96 1.01037
731 2 2.2208 2.24323 23.6154 2.37533
732 2 2.2208 2.20271 29.2001 2.45599
733 1 -1.1104 3.52002 24.9658 3.75417
734 2 2.2208 2.33418 26.4287 5.21613
735 1 -1.1104 3.61627 22.1932 0.984291
736 1 -1.1104 3.56441 27.7579 1.03122
737 1 -1.1104 3.62282 22.1764 3.78893
738 1 -1.1104 3.90504 27.7385 3.81709
747 1 -1.1104 6.62598 27.9837 3.72123
743 1 -1.1104 6.47815 25.1186 3.83053
739 2 2.2208 -0.451235 29.3079 5.28993
869 1 -1.1104 3.61055 22.335 6.55123
864 1 -1.1104 0.965662 22.2572 6.4339
1501 1 -1.1104 9.46858 47.5278 3.87835
1035 2 2.2208 10.8227 46.1198 10.9042
1023 1 -1.1104 12.2472 39.1275 9.48517
1015 1 -1.1104 9.437 44.7384 12.2551
746 1 -1.1104 6.43149 22.2821 3.85473
742 1 -1.1104 6.46559 25.1694 1.05082
745 1 -1.1104 6.63364 27.8727 0.909044
744 1 -1.1104 6.60494 22.1756 0.9752
867 1 -1.1104 6.55564 27.9026 6.69732
748 2 2.2208 10.6435 23.6938 5.31204
749 2 2.2208 10.6191 29.2689 5.30528
750 1 -1.1104 12.1462 24.936 1.12641
751 1 -1.1104 12.1693 25.1264 3.89489
752 1 -1.1104 12.3072 22.3099 1.12341
753 1 -1.1104 12.2914 27.6959 1.1207
754 2 2.2208 10.8469 26.3826 2.44312
755 1 -1.1104 12.1228 22.3877 3.93326
756 1 -1.1104 11.9517 28.1646 3.79433
757 1 -1.1104 9.35617 25.0155 0.938453
758 2 2.2208 7.96698 23.5278 2.37563
759 2 2.2208 8.01014 29.225 2.39736
760 1 -1.1104 9.29174 25.0627 3.8063
761 2 2.2208 7.83777 26.4526 5.21403
762 1 -1.1104 9.45757 22.2886 0.990736
763 1 -1.1104 9.54858 27.7518 1.0343
764 1 -1.1104 9.22532 22.1619 3.90841
765 1 -1.1104 9.28725 27.8919 3.92576
766 2 2.2208 13.5328 23.7305 2.51073
895 1 -1.1104 12.2313 25.1303 6.61851
866 1 -1.1104 6.53729 22.2075 6.56178
898 1 -1.1104 9.23764 24.9531 6.7067
900 1 -1.1104 9.31765 27.6931 6.65947
769 2 2.2208 5.07242 34.8579 5.16329
770 1 -1.1104 0.91384 30.6539 0.937607
771 1 -1.1104 0.873428 36.2906 0.928665
773 1 -1.1104 0.961446 30.6599 3.83855
774 1 -1.1104 1.00086 36.3108 3.88401
776 1 -1.1104 0.827326 33.4129 1.04875
777 2 2.2208 5.21182 32.102 2.4028
778 2 2.2208 5.10337 37.7667 2.37655
779 1 -1.1104 0.813827 33.6351 3.95403
781 1 -1.1104 3.66588 30.7224 1.2009
782 1 -1.1104 3.66986 36.3641 0.960204
783 2 2.2208 2.20653 34.9373 2.46666
784 1 -1.1104 3.69136 30.6229 4.02234
785 1 -1.1104 3.72555 36.3318 3.90817
786 2 2.2208 2.2179 32.1016 5.19452
787 2 2.2208 2.37194 37.8475 5.33515
788 1 -1.1104 3.63205 33.6148 0.875854
789 1 -1.1104 3.6725 33.5242 3.69693
925 1 -1.1104 3.56421 30.723 6.81376
926 1 -1.1104 3.83596 36.2913 6.61052
922 1 -1.1104 6.59439 36.1673 6.53673
1039 2 2.2208 13.5051 32.1755 5.23189
1047 2 2.2208 13.5124 34.9444 7.94218
794 1 -1.1104 6.50463 30.8495 3.79152
1072 2 2.2208 -0.388742 26.4905 13.6376
1011 2 2.2208 -0.481064 46.1328 10.8617
772 1 -1.1104 6.50434 36.3945 1.10088
793 1 -1.1104 6.46946 30.6344 1.03515
780 1 -1.1104 6.65736 33.5671 3.90128
795 1 -1.1104 6.70086 33.4456 1.02742
775 1 -1.1104 6.4646 36.5049 3.75914
796 2 2.2208 10.8818 34.9667 5.29109
797 1 -1.1104 11.9088 30.599 1.03042
798 1 -1.1104 12.2354 36.275 0.874495
799 1 -1.1104 12.167 30.8671 3.89422
800 1 -1.1104 12.2055 36.3947 3.77041
801 1 -1.1104 12.2367 33.324 1.13646
802 2 2.2208 10.7612 32.055 2.44595
803 2 2.2208 10.8166 37.8023 2.51125
804 1 -1.1104 12.1493 33.6887 3.89895
805 1 -1.1104 9.14975 30.732 1.09635
806 1 -1.1104 9.42817 36.3404 1.02657
807 2 2.2208 7.99317 35.0843 2.48241
808 1 -1.1104 9.34738 30.7857 3.93693
809 1 -1.1104 9.51752 36.5075 3.9286
810 2 2.2208 7.99893 32.1079 5.18619
811 2 2.2208 7.93596 37.8311 5.3038
812 1 -1.1104 9.36039 33.5711 0.983661
813 1 -1.1104 9.45991 33.6272 3.76435
957 1 -1.1104 9.38545 36.4031 6.66033
954 1 -1.1104 12.15 36.295 6.68578
1025 1 -1.1104 12.2135 44.6198 12.2798
958 1 -1.1104 9.33766 33.6024 6.57168
953 1 -1.1104 12.0121 30.7128 6.62738
924 1 -1.1104 6.53633 33.4009 6.63779
956 1 -1.1104 9.13216 30.5916 6.67766