ITEM: TIMESTEP
20000
ITEM: NUMBER OF ATOMS
17910
ITEM: BOX BOUNDS pp pp pp
-3.5650968986324422e-01 2.7696509689863596e+01
-4.3905313764668294e+00 3.3247053137646753e+02
-3.4765741611234730e-01 2.7687657416112149e+01
ITEM: ATOMS id type q x y z
1 2 2.2208 5.28762 1.18872 5.29082
2 1 -1.1104 0.952502 -3.18931 1.24099
3 1 -1.1104 1.09879 2.27858 0.867853
6 1 -1.1104 0.908416 -2.97659 4.0934
7 1 -1.1104 1.15206 2.58217 3.74921
10 1 -1.1104 1.06483 -0.423332 1.18251
12 2 2.2208 5.16471 -1.68767 2.51577
14 1 -1.1104 0.924603 -0.147905 3.91759
16 1 -1.1104 3.61014 -3.05277 1.04491
17 1 -1.1104 3.8712 2.4717 1.06763
18 2 2.2208 2.50368 1.13575 2.50317
19 1 -1.1104 3.80246 -2.94741 3.9266
20 1 -1.1104 3.7769 2.55273 3.98262
21 2 2.2208 2.33247 -1.62043 5.40403
22 2 2.2208 2.33884 4.05272 5.28191
23 1 -1.1104 3.76332 -0.229746 1.15994
24 1 -1.1104 3.76754 -0.200604 4.10042
13 2 2.2208 5.24214 3.84884 2.43934
8441 2 2.2208 10.9116 -4.42438 10.7226
333 2 2.2208 13.5293 15.2475 10.7835
8436 2 2.2208 13.6682 -4.40238 2.42049
167 1 -1.1104 0.938348 2.58269 6.73615
173 1 -1.1104 3.76845 2.62757 6.70752
11 1 -1.1104 6.48093 -0.245004 1.00345
5 1 -1.1104 6.60875 2.62247 0.970856
174 1 -1.1104 3.8145 -0.213486 6.76848
376 2 2.2208 13.675 12.3817 13.6833
169 1 -1.1104 6.7396 2.65251 6.64192
8 1 -1.1104 6.52915 -3.0545 3.91119
4 1 -1.1104 6.50869 -2.99473 0.922665
9 1 -1.1104 6.43415 2.3935 3.78016
15 1 -1.1104 6.64916 -0.264937 3.81766
31 2 2.2208 10.874 1.27249 5.16102
32 1 -1.1104 12.032 -2.98947 1.16613
33 1 -1.1104 12.1574 2.70779 0.812176
34 1 -1.1104 12.1832 -2.8548 3.80263
35 1 -1.1104 12.1495 2.56093 3.56275
36 1 -1.1104 12.1536 -0.184397 1.01146
37 2 2.2208 10.6241 -1.60291 2.40425
38 2 2.2208 10.7351 3.97153 2.49165
39 1 -1.1104 12.1669 -0.190704 3.70606
40 1 -1.1104 9.35332 -3.08728 1.0349
41 1 -1.1104 9.35913 2.60539 1.05094
42 2 2.2208 7.92841 1.15298 2.39918
43 1 -1.1104 9.39981 -2.89512 3.80725
44 1 -1.1104 9.4441 2.66299 3.86926
45 2 2.2208 7.91467 -1.57178 5.32944
46 2 2.2208 7.9612 3.96274 5.27875
47 1 -1.1104 9.33695 -0.201102 0.969575
48 1 -1.1104 9.42221 -0.13219 3.70753
206 1 -1.1104 12.1418 2.70416 6.41245
210 1 -1.1104 9.32687 -0.0114502 6.65551
208 1 -1.1104 9.23351 -2.89196 6.61228
205 1 -1.1104 12.2498 -3.05295 6.55041
8435 2 2.2208 10.9188 -4.38854 5.10027
54 2 2.2208 5.22963 6.835 5.16668
55 2 2.2208 5.24735 12.3441 5.31759
56 1 -1.1104 0.980984 8.19171 0.939824
58 1 -1.1104 0.95972 8.17694 3.77142
60 1 -1.1104 1.04137 5.1759 1.06279
61 1 -1.1104 1.18131 11.0893 1.05359
66 2 2.2208 5.24844 9.63638 2.46204
67 1 -1.1104 1.06603 5.537 4.03506
68 1 -1.1104 1.16805 11.0588 3.82725
71 1 -1.1104 3.71445 7.93791 0.927027
72 2 2.2208 2.39673 6.67384 2.51499
73 2 2.2208 2.52174 12.4096 2.45458
74 1 -1.1104 3.77228 8.34136 3.70876
75 2 2.2208 2.50136 9.65462 5.15622
76 1 -1.1104 3.79799 5.21101 1.12227
77 1 -1.1104 3.80483 10.9342 0.946755
79 1 -1.1104 3.85839 5.43766 3.80263
80 1 -1.1104 3.87608 10.9751 3.79561
149 1 -1.1104 12.2167 16.6051 6.61658
154 1 -1.1104 9.21855 13.8101 6.49169
363 2 2.2208 13.6531 18.0124 13.7678
234 1 -1.1104 1.06296 8.40246 6.60958
64 1 -1.1104 6.73258 11.0232 1.01825
238 1 -1.1104 3.71406 8.17973 6.56002
236 1 -1.1104 1.02037 5.44292 6.84997
65 1 -1.1104 6.57643 11.0028 6.72248
104 2 2.2208 13.6464 12.2914 2.57132
313 2 2.2208 -0.241737 15.3768 8.13122
143 1 -1.1104 12.1229 13.8953 6.51702
63 1 -1.1104 6.58123 5.33801 1.10423
202 2 2.2208 13.5621 6.88628 8.03282
59 1 -1.1104 6.51782 8.23781 3.7506
70 1 -1.1104 6.68301 10.9973 3.89916
57 1 -1.1104 6.74673 8.20251 1.12329
69 1 -1.1104 6.67687 5.28574 3.86386
84 2 2.2208 10.8658 7.00848 5.28385
85 2 2.2208 10.7347 12.5285 5.26762
86 1 -1.1104 12.1987 8.21398 1.06494
87 1 -1.1104 12.1656 8.23427 3.90072
88 1 -1.1104 12.2768 5.45925 1.03828
89 1 -1.1104 12.1686 10.8706 1.05907
91 2 2.2208 10.872 9.58451 2.51543
92 1 -1.1104 12.2056 5.30176 3.81602
93 1 -1.1104 12.3214 11.0929 3.91269
94 1 -1.1104 9.51962 8.15464 1.17721
95 2 2.2208 8.03812 6.77985 2.41625
96 2 2.2208 8.04831 12.3369 2.43122
97 1 -1.1104 9.42048 8.32255 4.03252
98 2 2.2208 8.0121 9.68579 5.36673
99 1 -1.1104 9.32116 5.39321 1.03508
100 1 -1.1104 9.4295 10.9671 1.10113
102 1 -1.1104 9.42931 5.43989 3.78883
103 1 -1.1104 9.63088 11.0096 3.89871
8437 2 2.2208 2.33299 -4.63796 8.07745
267 1 -1.1104 9.29346 8.29629 6.84459
318 1 -1.1104 9.39222 19.3764 9.35907
106 2 2.2208 5.26655 18.14 5.28263
107 1 -1.1104 1.00858 13.9029 1.06953
109 1 -1.1104 1.03769 19.489 1.16481
113 1 -1.1104 1.32686 13.7889 3.9057
114 1 -1.1104 0.999274 19.632 3.92518
116 1 -1.1104 0.955573 16.5624 1.08939
119 2 2.2208 5.44964 15.3448 2.40827
120 2 2.2208 5.22082 20.8414 2.52686
121 1 -1.1104 0.99837 16.5721 3.78681
123 1 -1.1104 3.96691 13.8675 1.01708
125 1 -1.1104 3.769 19.3649 0.917857
127 2 2.2208 2.45644 17.999 2.46639
128 1 -1.1104 4.07137 13.7934 3.87779
129 1 -1.1104 3.77424 19.4086 3.89845
130 2 2.2208 2.58082 15.3483 5.27961
131 2 2.2208 2.36469 20.8176 5.31231
132 1 -1.1104 3.7497 16.7197 1.06254
134 1 -1.1104 3.96036 16.7528 3.85825
302 1 -1.1104 1.05993 19.5224 6.71238
139 1 -1.1104 6.63082 19.4589 3.88585
140 1 -1.1104 6.62294 16.8582 1.10914
110 1 -1.1104 6.68841 13.8176 1.00114
122 1 -1.1104 6.75081 16.6207 3.88644
138 1 -1.1104 6.55491 19.5229 1.05748
115 1 -1.1104 6.8709 13.8874 3.83634
124 1 -1.1104 3.839 13.8563 6.65591
117 1 -1.1104 1.05097 16.7851 6.63952
8442 2 2.2208 13.65 -4.29916 8.05339
141 2 2.2208 11.0007 18.0702 5.22779
142 1 -1.1104 12.334 13.7205 0.917666
144 1 -1.1104 12.3212 19.6195 1.03343
146 1 -1.1104 12.192 13.895 3.71324
147 1 -1.1104 12.4026 19.5165 3.77786
148 1 -1.1104 12.3364 16.595 1.01706
150 2 2.2208 10.7432 15.2902 2.44274
151 2 2.2208 10.9365 20.7684 2.47445
152 1 -1.1104 12.2942 16.6434 3.75453
153 1 -1.1104 9.3901 13.8125 0.989928
155 1 -1.1104 9.48309 19.3167 0.897201
157 2 2.2208 8.10645 18.0536 2.51532
158 1 -1.1104 9.44983 13.8012 3.77959
159 1 -1.1104 9.54009 19.5405 3.68951
160 2 2.2208 7.99419 15.2329 5.2923
161 2 2.2208 8.09841 20.9067 5.18614
162 1 -1.1104 9.37344 16.5871 1.07847
164 1 -1.1104 9.51878 16.8081 3.78133
361 2 2.2208 10.8324 15.1747 13.7069
29 2 2.2208 -0.427606 6.8137 10.8571
349 2 2.2208 8.03907 20.676 -0.424385
8438 2 2.2208 5.1727 -4.35559 10.9216
52 2 2.2208 13.7424 9.71896 10.8689
170 1 -1.1104 0.981962 -0.242101 6.66922
172 1 -1.1104 3.72832 -3.18518 6.70106
365 2 2.2208 2.36442 -1.67061 -0.299169
327 1 -1.1104 12.2797 19.4464 9.58511
163 1 -1.1104 9.55376 16.7501 6.54144
166 1 -1.1104 0.966441 -3.17082 6.70898
175 2 2.2208 5.13672 1.26128 10.9411
176 1 -1.1104 1.11063 -2.90444 12.3623
177 1 -1.1104 1.10685 2.83875 12.3475
180 1 -1.1104 0.906781 -2.91785 9.60736
181 1 -1.1104 0.884969 2.61704 9.521
184 1 -1.1104 0.914244 -0.10893 12.2298
186 2 2.2208 5.12722 -1.68035 8.10987
187 2 2.2208 5.16736 3.9718 8.12298
188 1 -1.1104 0.822213 -0.05952 9.3977
190 1 -1.1104 4.0029 -3.03247 12.2441
191 1 -1.1104 3.80126 2.67437 12.3486
192 2 2.2208 2.42627 1.20553 8.08008
193 1 -1.1104 3.71092 -3.10313 9.44595
194 1 -1.1104 3.7952 2.58661 9.58152
195 2 2.2208 2.42501 -1.5571 10.9366
196 2 2.2208 2.36649 4.10947 10.8367
197 1 -1.1104 3.78958 -0.0621354 12.3452
198 1 -1.1104 3.64146 -0.19427 9.56549
135 2 2.2208 -0.460502 15.1658 2.24152
200 2 2.2208 -0.677152 -1.57949 8.12758
53 2 2.2208 13.6724 12.363 8.0444
230 2 2.2208 13.4566 -1.52803 10.9181
179 1 -1.1104 6.50297 2.68656 12.2458
49 2 2.2208 13.6334 1.27026 2.3925
229 2 2.2208 13.6276 1.23699 8.02632
316 2 2.2208 8.0686 20.7789 10.8877
209 1 -1.1104 9.46888 2.6046 6.73154
171 1 -1.1104 6.51861 -0.0552744 6.64954
168 1 -1.1104 6.46975 -2.9353 6.75676
207 1 -1.1104 12.0203 -0.230306 6.5383
185 1 -1.1104 6.55127 -0.104409 12.2197
183 1 -1.1104 6.57718 2.75519 9.55647
178 1 -1.1104 6.78601 -2.94603 12.4234
189 1 -1.1104 6.42877 -0.196725 9.51227
182 1 -1.1104 6.55301 -3.03782 9.60947
211 2 2.2208 10.7528 1.25094 10.9345
212 1 -1.1104 12.1707 -2.92788 12.2299
213 1 -1.1104 12.0589 2.68314 12.3099
214 1 -1.1104 12.1832 -2.88255 9.31238
215 1 -1.1104 12.2765 2.55681 9.42066
216 1 -1.1104 12.1677 -0.221282 12.3417
217 2 2.2208 10.7221 -1.55462 7.94159
218 2 2.2208 10.7815 4.05541 8.09796
219 1 -1.1104 12.0382 -0.13221 9.32324
220 1 -1.1104 9.4005 -3.06076 12.3455
221 1 -1.1104 9.36123 2.74646 12.3612
222 2 2.2208 8.06359 1.25597 8.11482
223 1 -1.1104 9.31132 -2.87545 9.45655
224 1 -1.1104 9.38574 2.58778 9.65184
225 2 2.2208 8.00788 -1.67013 11.0039
226 2 2.2208 7.97889 4.03143 10.9188
227 1 -1.1104 9.31162 -0.162682 12.2766
228 1 -1.1104 9.37219 -0.0620977 9.52838
50 2 2.2208 13.6246 -1.48471 5.07113
78 1 -1.1104 3.91319 10.8984 6.59011
239 1 -1.1104 3.79611 5.35285 6.71989
237 1 -1.1104 6.55882 5.47197 6.58354
62 1 -1.1104 1.06225 11.0781 6.54121
240 2 2.2208 5.1784 6.94957 10.851
241 2 2.2208 5.13806 12.5654 10.9173
242 1 -1.1104 1.02448 8.41497 12.3097
244 1 -1.1104 0.974338 8.29793 9.67392
246 1 -1.1104 0.899803 5.58834 12.2782
247 1 -1.1104 0.985058 11.1741 12.3577
250 2 2.2208 5.1395 9.65146 8.11991
251 1 -1.1104 1.07448 5.40841 9.44353
252 1 -1.1104 1.06118 11.04 9.399
255 1 -1.1104 3.97092 8.26454 12.2227
256 2 2.2208 2.43982 6.80985 8.18448
257 2 2.2208 2.37888 12.4889 8.0438
258 1 -1.1104 3.73927 8.32535 9.54317
259 2 2.2208 2.40505 9.73424 10.915
260 1 -1.1104 3.75725 5.50993 12.3019
261 1 -1.1104 3.8407 11.0386 12.3399
262 1 -1.1104 3.81324 5.36727 9.536
263 1 -1.1104 3.87494 11.1388 9.50826
346 2 2.2208 10.7141 -1.62354 13.7116
314 1 -1.1104 9.53547 16.5778 9.39673
330 1 -1.1104 12.3148 14.0755 12.4152
249 1 -1.1104 6.60145 11.0241 12.2191
245 1 -1.1104 6.5479 8.30016 9.52848
317 2 2.2208 8.10307 15.2603 10.8517
156 1 -1.1104 9.45146 19.4375 6.54728
90 1 -1.1104 12.251 10.9562 6.72746
235 1 -1.1104 6.49173 8.24091 6.57592
265 1 -1.1104 12.3084 8.35624 6.71185
269 1 -1.1104 9.39104 5.51242 6.76672
101 1 -1.1104 9.47043 11.1165 6.74015
266 1 -1.1104 12.0597 5.49136 6.70677
243 1 -1.1104 6.79284 8.25882 12.3882
254 1 -1.1104 6.59074 11.1229 9.3316
248 1 -1.1104 6.61717 5.40972 12.2736
253 1 -1.1104 6.65699 5.54353 9.49421
264 1 -1.1104 9.47338 11.1427 9.6403
268 1 -1.1104 9.46357 5.42752 9.46337
270 1 -1.1104 9.40243 11.0682 12.4407
271 1 -1.1104 9.49295 5.38958 12.2828
272 2 2.2208 8.15937 9.53812 11.0111
273 1 -1.1104 9.34175 8.28795 9.46173
274 2 2.2208 7.97056 12.4574 8.18011
275 2 2.2208 7.91703 6.91589 8.05394
276 2 2.2208 10.7911 6.79022 10.8677
277 2 2.2208 10.8759 12.4635 10.8828
278 1 -1.1104 12.348 8.34626 12.3364
279 1 -1.1104 12.0251 8.27224 9.55455
280 1 -1.1104 12.2776 5.50671 12.1744
281 1 -1.1104 12.2391 11.2773 12.2579
282 2 2.2208 10.7539 9.65188 8.17405
283 1 -1.1104 12.108 5.40175 9.41375
284 1 -1.1104 12.219 10.9736 9.3285
285 1 -1.1104 9.55805 8.18194 12.3592
350 2 2.2208 10.8304 4.00685 13.736
108 1 -1.1104 1.07103 13.9495 6.7005
290 1 -1.1104 6.55344 13.9016 9.67573
126 1 -1.1104 3.85707 19.5597 6.65465
296 1 -1.1104 6.788 19.5065 12.3913
118 1 -1.1104 6.5782 16.5789 6.674
306 1 -1.1104 6.51411 16.8162 12.2151
133 1 -1.1104 3.85582 16.7472 6.73131
310 2 2.2208 2.39517 15.2 10.9781
309 2 2.2208 2.48673 20.8566 10.9584
286 1 -1.1104 3.87948 19.4299 12.3011
300 2 2.2208 5.11686 18.0934 10.8996
299 1 -1.1104 0.948041 13.9084 12.2006
308 1 -1.1104 3.68682 16.6784 12.5019
298 1 -1.1104 1.01656 19.554 12.2753
304 1 -1.1104 3.70171 16.7299 9.46502
303 2 2.2208 2.41636 18.1556 8.04251
292 1 -1.1104 1.05185 16.6563 9.58167
295 2 2.2208 5.18358 15.258 8.10926
307 1 -1.1104 0.953773 16.6721 12.3596
301 1 -1.1104 3.78625 19.4555 9.57147
291 1 -1.1104 1.01213 19.3734 9.47315
305 1 -1.1104 3.80279 13.891 9.5076
287 1 -1.1104 3.72126 13.7715 12.42
294 1 -1.1104 1.08598 13.7827 9.5519
293 2 2.2208 5.27399 20.9327 8.12453
289 1 -1.1104 6.53796 16.6719 9.40647
203 2 2.2208 13.6466 4.03936 10.8132
297 1 -1.1104 6.6441 13.9758 12.4142
112 1 -1.1104 6.66274 19.4782 6.67615
232 2 2.2208 13.5503 9.57021 5.24325
233 2 2.2208 13.5689 3.99914 5.13981
331 2 2.2208 11.0189 18.0266 10.8234
320 2 2.2208 7.99707 18.0726 7.98151
323 1 -1.1104 12.2354 16.7755 9.4511
324 2 2.2208 10.9088 20.7953 8.07812
319 1 -1.1104 9.30473 13.9544 9.39808
288 1 -1.1104 6.62457 19.5077 9.55533
322 1 -1.1104 9.4326 13.7983 12.223
328 1 -1.1104 12.2273 13.8135 9.51108
325 2 2.2208 10.8079 15.3417 7.93097
326 1 -1.1104 12.2195 16.6084 12.2331
111 1 -1.1104 6.60757 13.8334 6.78596
321 1 -1.1104 9.48939 19.3499 12.1355
315 1 -1.1104 9.40975 16.6831 12.257
329 1 -1.1104 12.3364 19.3842 12.3029
145 1 -1.1104 12.391 19.5475 6.72431
373 2 2.2208 2.50084 15.1703 -0.348522
372 2 2.2208 8.0629 3.94585 -0.402312
341 2 2.2208 5.18536 4.11699 13.6502
386 2 2.2208 10.8572 12.4332 -0.458035
352 2 2.2208 5.31103 9.67554 13.7152
374 2 2.2208 5.25499 18.1237 -0.261059
375 2 2.2208 2.41249 20.9401 -0.255291
388 2 2.2208 5.06602 1.20634 16.4936
389 1 -1.1104 1.09529 -2.96525 17.8965
390 1 -1.1104 1.07925 2.50152 17.812
393 1 -1.1104 0.932209 -3.08929 15.0609
395 1 -1.1104 0.877881 2.7197 15.1749
401 1 -1.1104 0.853826 -0.322439 17.8761
403 2 2.2208 5.35288 -1.69216 19.3085
404 2 2.2208 5.02402 4.00257 19.247
405 1 -1.1104 0.771702 -0.0717347 14.9982
409 1 -1.1104 3.86911 -3.02126 17.7829
410 1 -1.1104 3.71375 2.7688 17.9868
411 2 2.2208 2.40925 1.16131 19.3564
412 1 -1.1104 3.78717 -3.1284 15.0163
414 1 -1.1104 3.69147 2.60414 15.1058
416 2 2.2208 2.32816 -1.6443 16.503
417 2 2.2208 2.4616 4.13927 16.5126
418 1 -1.1104 3.70604 -0.0776394 17.9061
419 1 -1.1104 3.68253 -0.184391 15.205
358 2 2.2208 5.24985 20.7625 13.6854
561 1 -1.1104 9.42223 13.846 23.4987
402 1 -1.1104 6.49745 -0.231158 18.0171
463 1 -1.1104 12.1782 13.8696 23.2478
420 1 -1.1104 3.80795 -0.363512 20.7423
396 1 -1.1104 0.86278 2.31237 20.7
415 1 -1.1104 3.76536 2.48285 20.7313
392 1 -1.1104 6.51614 2.58727 17.6622
399 1 -1.1104 6.57295 2.72713 14.8873
408 1 -1.1104 6.65611 -0.315649 20.6898
406 1 -1.1104 0.871632 -0.385498 20.7243
391 1 -1.1104 6.66263 -3.09672 17.9224
397 1 -1.1104 6.47659 -2.77834 15.1914
407 1 -1.1104 6.50457 -0.200263 15.1441
431 2 2.2208 10.6921 1.20781 16.4243
432 1 -1.1104 12.2852 -3.03765 17.8464
433 1 -1.1104 12.2626 2.5898 17.8667
434 1 -1.1104 12.3779 -3.12383 15.1307
436 1 -1.1104 12.3961 2.55796 15.0641
438 1 -1.1104 12.1236 -0.196446 17.808
439 2 2.2208 10.8358 -1.58399 19.2839
440 2 2.2208 10.7497 3.92714 19.0245
441 1 -1.1104 12.0686 -0.154969 15.0699
443 1 -1.1104 9.50329 -3.02592 17.8644
444 1 -1.1104 9.25264 2.57091 17.9412
445 2 2.2208 7.95606 1.14887 19.1342
446 1 -1.1104 9.43502 -3.0628 15.022
448 1 -1.1104 9.37373 2.60612 15.0893
450 2 2.2208 7.81305 -1.52663 16.3993
452 1 -1.1104 9.34076 -0.242796 17.735
453 1 -1.1104 9.33322 -0.135777 14.8948
449 1 -1.1104 9.24926 2.51004 20.6022
357 2 2.2208 2.41541 18.0781 13.784
653 2 2.2208 13.51 -1.68276 21.988
451 2 2.2208 7.90866 4.17534 16.2749
435 1 -1.1104 12.2411 -3.12571 20.6883
378 2 2.2208 13.6883 4.00155 27.7109
560 1 -1.1104 12.3827 16.5938 26.2404
567 1 -1.1104 12.2291 13.8611 20.5635
498 1 -1.1104 12.2829 13.7345 26.1226
400 1 -1.1104 6.50613 2.51231 20.4903
437 1 -1.1104 12.0706 2.68353 20.524
454 1 -1.1104 9.34311 -0.212854 20.6052
447 1 -1.1104 9.54566 -3.01506 20.6969
442 1 -1.1104 12.0779 -0.146147 20.6822
590 1 -1.1104 9.56227 19.1959 26.2519
464 2 2.2208 5.19877 6.86656 16.3686
465 2 2.2208 5.16489 12.5454 16.5938
466 1 -1.1104 1.09288 8.23554 17.8524
468 1 -1.1104 1.05493 8.27814 15.1478
472 1 -1.1104 0.978168 5.384 17.9417
473 1 -1.1104 1.03263 11.0812 17.8387
476 2 2.2208 5.28752 9.61254 19.2427
477 1 -1.1104 1.08621 5.48716 15.1701
479 1 -1.1104 1.01181 11.0131 15.1153
485 1 -1.1104 3.85487 8.26389 17.812
486 2 2.2208 2.33094 6.84775 19.2519
487 2 2.2208 2.51021 12.4066 19.4032
488 1 -1.1104 3.89461 8.25242 15.0226
490 2 2.2208 2.58948 9.7551 16.5066
491 1 -1.1104 3.71917 5.54986 17.8742
492 1 -1.1104 3.93655 11.1501 17.9753
493 1 -1.1104 3.93838 5.31452 15.1247
495 1 -1.1104 3.90764 11.1526 15.0965
480 1 -1.1104 1.06771 11.03 20.7681
474 1 -1.1104 6.64803 5.39035 17.6247
470 1 -1.1104 6.61777 8.19138 15.0101
481 1 -1.1104 6.76911 5.60832 14.9783
483 1 -1.1104 6.62938 11.0511 15.1611
484 1 -1.1104 6.61495 10.9981 20.77
478 1 -1.1104 1.08269 5.30402 20.8612
469 1 -1.1104 0.898717 8.16848 20.4791
622 2 2.2208 -0.363177 9.67396 19.181
8516 2 2.2208 8.02712 -4.5495 24.7671
362 2 2.2208 8.08073 17.9939 13.5644
467 1 -1.1104 6.53257 8.1303 17.7774
475 1 -1.1104 6.58127 11.0351 17.8422
482 1 -1.1104 6.68407 5.50884 20.5399
500 2 2.2208 10.8597 6.88502 16.437
501 2 2.2208 10.848 12.4659 16.5185
502 1 -1.1104 12.2337 8.2854 17.8844
503 1 -1.1104 12.2684 8.19017 15.117
505 1 -1.1104 12.23 5.41599 17.7781
506 1 -1.1104 12.3058 11.102 17.8189
507 2 2.2208 10.87 9.63052 19.3309
508 1 -1.1104 12.3941 5.32314 14.9665
510 1 -1.1104 12.304 10.8994 14.9476
512 1 -1.1104 9.52371 8.26562 17.955
513 2 2.2208 8.10384 6.84917 19.0398
514 2 2.2208 8.05466 12.5043 19.365
515 1 -1.1104 9.4315 8.29045 15.0884
517 2 2.2208 7.95782 9.70494 16.468
518 1 -1.1104 9.43507 5.5006 17.6804
519 1 -1.1104 9.41882 11.0752 17.9691
520 1 -1.1104 9.57785 5.54934 15.017
522 1 -1.1104 9.46968 10.9744 15.1482
619 2 2.2208 13.6426 15.2037 16.4065
516 1 -1.1104 9.40593 8.18197 20.6098
511 1 -1.1104 12.1496 10.9529 20.6262
471 1 -1.1104 6.56095 8.21862 20.6422
509 1 -1.1104 12.223 5.46459 20.5811
523 1 -1.1104 9.30491 11.1046 20.719
504 1 -1.1104 12.1271 8.21447 20.6604
339 2 2.2208 2.34652 1.27088 13.6789
527 2 2.2208 5.11568 18.1312 16.5291
528 1 -1.1104 1.05019 13.8476 17.8721
529 1 -1.1104 0.95178 19.541 17.76
532 1 -1.1104 0.965506 13.9374 15.1241
534 1 -1.1104 1.04338 19.5236 15.0213
540 1 -1.1104 0.940292 16.7233 17.898
542 2 2.2208 5.19881 15.2879 19.3937
543 2 2.2208 5.45216 20.8265 19.4218
544 1 -1.1104 1.06873 16.8252 15.1448
548 1 -1.1104 3.93956 14.0354 17.9517
549 1 -1.1104 3.95011 19.5553 17.9489
550 2 2.2208 2.41115 18.0594 19.3736
551 1 -1.1104 3.85909 13.9195 15.0922
553 1 -1.1104 3.78943 19.5251 15.1633
555 2 2.2208 2.34805 15.3439 16.5075
556 2 2.2208 2.40939 20.9659 16.6236
557 1 -1.1104 3.76301 16.8101 17.9658
558 1 -1.1104 3.95391 16.6862 15.2862
539 1 -1.1104 6.72827 19.4762 20.899
546 1 -1.1104 6.68768 16.6692 15.0314
538 1 -1.1104 6.49609 19.4667 15.0897
554 1 -1.1104 3.92169 19.5694 20.7244
545 1 -1.1104 1.14758 16.5989 20.6357
536 1 -1.1104 6.63995 13.8152 15.1742
531 1 -1.1104 6.85442 19.3192 17.919
530 1 -1.1104 6.76049 13.7925 18.0226
535 1 -1.1104 1.13664 19.5212 20.6899
552 1 -1.1104 3.71758 13.865 20.6759
559 1 -1.1104 3.91536 16.5584 20.869
385 2 2.2208 8.02894 9.57781 27.6494
650 2 2.2208 13.7366 12.49 19.1857
541 1 -1.1104 6.51934 16.5424 17.9363
574 1 -1.1104 12.4508 16.6254 20.5977
654 2 2.2208 13.6554 1.17277 24.7639
499 1 -1.1104 12.2307 19.4581 26.4309
8553 2 2.2208 5.36358 -4.54063 22.1048
563 2 2.2208 10.9141 17.971 16.4654
564 1 -1.1104 12.2234 13.9269 17.768
565 1 -1.1104 12.41 19.393 17.9891
566 1 -1.1104 12.0962 13.6655 15.0738
568 1 -1.1104 12.1382 19.4443 15.2024
570 1 -1.1104 12.2913 16.657 17.8907
571 2 2.2208 10.8875 15.2458 19.2004
572 2 2.2208 10.9749 20.8141 19.2466
573 1 -1.1104 12.1691 16.5707 15.1286
575 1 -1.1104 9.50799 13.7287 17.9108
576 1 -1.1104 9.6678 19.4071 17.7238
577 2 2.2208 8.13431 18.0325 19.307
578 1 -1.1104 9.37404 13.9132 15.0322
580 1 -1.1104 9.37023 19.4097 14.9844
582 2 2.2208 8.04587 15.302 16.4473
583 2 2.2208 7.98985 20.7715 16.3665
584 1 -1.1104 9.40389 16.5847 17.8709
585 1 -1.1104 9.46692 16.7209 14.9371
685 2 2.2208 -0.350849 12.3511 22.1637
348 2 2.2208 10.9436 17.8843 27.7102
394 1 -1.1104 1.14684 -3.09086 20.7328
413 1 -1.1104 3.88365 -3.1391 20.8328
356 2 2.2208 8.0832 12.4972 13.6861
562 1 -1.1104 9.41105 19.5531 23.4132
591 2 2.2208 5.18977 1.01747 22.026
592 1 -1.1104 0.94091 -3.09207 23.54
593 1 -1.1104 1.01078 2.57096 23.4033
596 1 -1.1104 1.01832 -3.04989 26.3003
597 1 -1.1104 1.03458 2.44302 26.2526
600 1 -1.1104 1.126 -0.290036 23.5792
602 2 2.2208 5.27547 -1.5824 24.9711
603 2 2.2208 5.32845 3.91917 24.7889
604 1 -1.1104 0.908825 -0.269436 26.3645
606 1 -1.1104 3.92082 -3.15684 23.563
607 1 -1.1104 3.8649 2.46959 23.3785
608 2 2.2208 2.45142 1.25448 24.8217
609 1 -1.1104 3.773 -2.94192 26.2741
610 1 -1.1104 3.90148 2.55499 26.2191
611 2 2.2208 2.41144 -1.66689 22.1759
612 2 2.2208 2.40431 3.86682 22.1438
613 1 -1.1104 3.76639 -0.322839 23.552
614 1 -1.1104 3.7849 -0.199086 26.2751
547 1 -1.1104 6.71632 16.717 20.6608
579 1 -1.1104 9.40436 13.9737 20.6852
377 2 2.2208 13.5327 -1.47004 27.6758
587 2 2.2208 8.0564 18.0237 24.9058
594 1 -1.1104 6.66529 -3.1045 23.4529
601 1 -1.1104 6.56283 -0.303621 23.52
605 1 -1.1104 6.59101 -0.296852 26.3033
620 1 -1.1104 9.53065 16.582 26.1724
586 1 -1.1104 9.60926 16.6486 20.6881
599 1 -1.1104 6.59795 2.56729 26.125
398 1 -1.1104 6.74628 -3.10672 20.5991
595 1 -1.1104 6.55257 2.49331 23.4318
598 1 -1.1104 6.64041 -2.99566 26.1978
627 2 2.2208 10.6483 1.1642 22.0593
628 1 -1.1104 12.1001 -3.08706 23.6349
629 1 -1.1104 12.1736 2.61347 23.2593
630 1 -1.1104 12.3401 -2.89496 26.363
631 1 -1.1104 12.1979 2.62541 26.1916
632 1 -1.1104 12.1984 -0.331853 23.5337
633 2 2.2208 10.9364 -1.64321 24.9409
634 2 2.2208 10.921 4.01276 24.8932
635 1 -1.1104 12.1987 -0.118003 26.1444
636 1 -1.1104 9.39002 -3.10315 23.4315
637 1 -1.1104 9.39882 2.66556 23.4298
638 2 2.2208 7.96594 1.31788 24.754
639 1 -1.1104 9.48497 -2.91844 26.3277
640 1 -1.1104 9.49649 2.71549 26.3538
641 2 2.2208 8.00372 -1.64674 22.1003
642 2 2.2208 8.04967 4.00387 21.9518
643 1 -1.1104 9.37106 -0.208993 23.417
644 1 -1.1104 9.45107 -0.0177602 26.2683
456 2 2.2208 -0.352709 18.1143 16.4652
8458 2 2.2208 2.41765 -4.43601 13.6762
489 1 -1.1104 3.79442 8.11762 20.6743
496 1 -1.1104 3.88241 10.9919 20.5374
497 1 -1.1104 12.1957 19.2967 23.5743
494 1 -1.1104 3.79111 5.27774 20.6282
656 2 2.2208 5.16308 6.72223 22.01
657 2 2.2208 5.24417 12.3165 22.0276
658 1 -1.1104 1.17609 8.12148 23.3391
660 1 -1.1104 1.05284 8.10084 26.2393
662 1 -1.1104 1.09053 5.19081 23.5804
663 1 -1.1104 1.21538 10.9697 23.5348
666 2 2.2208 5.31784 9.53557 24.9282
667 1 -1.1104 1.09562 5.3528 26.2255
668 1 -1.1104 0.954924 10.9385 26.3959
671 1 -1.1104 3.91799 8.26415 23.508
672 2 2.2208 2.52452 6.72934 24.7909
673 2 2.2208 2.48574 12.4572 24.9063
674 1 -1.1104 3.83162 8.15721 26.3614
675 2 2.2208 2.44179 9.72535 22.0995
676 1 -1.1104 3.90464 5.34221 23.3565
677 1 -1.1104 3.93611 10.9764 23.4568
678 1 -1.1104 3.84472 5.3117 26.1759
679 1 -1.1104 3.782 10.9745 26.3961
664 1 -1.1104 6.61021 5.21217 23.37
665 1 -1.1104 6.7161 11.0133 23.5427
661 1 -1.1104 6.5496 8.06397 26.4487
616 2 2.2208 8.25054 20.7947 22.1145
589 1 -1.1104 9.52895 13.7781 26.3477
359 2 2.2208 5.2817 15.2341 13.7949
525 2 2.2208 10.8506 15.2075 24.7712
521 1 -1.1104 9.48048 5.2797 20.5962
670 1 -1.1104 6.67569 10.9027 26.1078
669 1 -1.1104 6.74897 5.34001 26.2143
659 1 -1.1104 6.79731 8.15737 23.6316
687 1 -1.1104 9.3615 11.0318 26.2483
688 1 -1.1104 9.46094 5.53541 26.2169
689 1 -1.1104 9.61529 10.9936 23.457
690 1 -1.1104 9.40822 5.4364 23.4305
691 2 2.2208 8.08688 9.55919 22.0888
692 1 -1.1104 9.44697 8.32389 26.3974
693 2 2.2208 8.15272 12.3809 24.7857
694 2 2.2208 8.13622 6.83026 24.853
695 2 2.2208 10.9159 6.70081 22.0344
696 2 2.2208 10.9086 12.3854 21.9757
697 1 -1.1104 12.2291 8.08951 23.4676
698 1 -1.1104 12.2714 8.16697 26.0716
699 1 -1.1104 12.2703 5.25989 23.4346
700 1 -1.1104 12.3315 10.9068 23.3367
701 2 2.2208 10.8981 9.58032 24.8589
702 1 -1.1104 12.118 5.4596 26.4601
703 1 -1.1104 12.2623 10.8694 26.3074
704 1 -1.1104 9.46172 8.19585 23.3556
384 2 2.2208 10.8494 6.76007 27.8202
617 1 -1.1104 9.39434 16.713 23.4123
680 1 -1.1104 6.62735 16.6152 23.5502
533 1 -1.1104 1.00659 13.7022 20.7964
537 1 -1.1104 6.59055 13.973 20.8663
718 1 -1.1104 6.68218 19.3661 23.5494
647 2 2.2208 2.55324 15.2427 22.216
649 2 2.2208 2.47959 20.9787 22.1995
652 1 -1.1104 3.82831 16.6973 23.5696
655 1 -1.1104 1.18011 16.7577 23.4339
681 1 -1.1104 3.9373 13.7489 26.3113
682 1 -1.1104 4.00661 16.7233 26.2865
683 2 2.2208 2.47992 18.1546 24.9398
686 1 -1.1104 3.96198 19.431 26.0705
705 2 2.2208 5.33176 18.0772 22.1411
706 1 -1.1104 1.20794 13.7535 23.4315
707 1 -1.1104 0.970288 19.513 23.518
711 1 -1.1104 3.8625 19.4074 23.3521
713 1 -1.1104 3.82925 13.7475 23.4534
715 1 -1.1104 1.14224 19.4488 26.3138
716 1 -1.1104 1.00051 16.6634 26.3351
717 1 -1.1104 1.16639 13.9002 26.3015
719 2 2.2208 5.25783 20.7907 24.8539
720 2 2.2208 5.23266 15.218 24.8361
588 1 -1.1104 6.742 19.4952 26.2974
709 1 -1.1104 6.59599 13.6935 23.4952
714 1 -1.1104 6.69688 16.6454 26.3289
712 1 -1.1104 6.80621 13.7118 26.1549
526 2 2.2208 10.868 20.6367 24.9053
524 1 -1.1104 12.3839 16.5894 23.5201
351 2 2.2208 2.39639 6.88928 13.7258
8518 2 2.2208 13.5821 -4.41102 24.9247
462 2 2.2208 11.039 17.8681 22.0899
581 1 -1.1104 9.56928 19.4311 20.6403
615 2 2.2208 8.07504 15.2611 22.1189
569 1 -1.1104 12.3777 19.2857 20.8305
8519 2 2.2208 2.50245 -4.42389 24.9749
380 2 2.2208 2.53456 9.4929 27.7021
342 2 2.2208 -0.404839 15.2107 13.7348
458 2 2.2208 -0.524047 20.949 19.3166
366 2 2.2208 2.47454 3.82176 27.6577
459 2 2.2208 13.5878 -1.5695 16.4901
338 2 2.2208 5.21163 -1.50142 13.6309
651 2 2.2208 13.5845 6.92314 19.1474
422 2 2.2208 13.6825 9.69197 21.9911
379 2 2.2208 5.24068 6.67157 27.6106
429 2 2.2208 13.6996 4.0153 16.2936
364 2 2.2208 5.24827 1.12547 27.6888
421 2 2.2208 -0.388153 6.75281 22.1127
626 2 2.2208 -0.298042 3.86557 24.9147
708 2 2.2208 13.5512 12.2212 24.9086
383 2 2.2208 -0.230833 6.66024 27.7233
646 2 2.2208 -0.285278 15.2047 24.9216
428 2 2.2208 13.5845 1.16538 19.198
645 2 2.2208 -0.414425 20.8349 24.8581
424 2 2.2208 -0.428718 1.18253 16.5668
335 2 2.2208 -0.336543 20.7601 13.6397
710 2 2.2208 13.5855 6.75183 24.8501
334 2 2.2208 -0.517292 -1.58213 13.7452
360 2 2.2208 10.857 20.8123 13.699
340 2 2.2208 13.5886 1.18924 13.6494
381 2 2.2208 5.34134 12.425 27.6443
353 2 2.2208 2.40125 12.4613 13.7147
382 2 2.2208 -0.320279 12.482 27.7477
347 2 2.2208 8.09526 15.1736 27.5846
343 2 2.2208 7.96069 1.25138 13.6158
370 2 2.2208 7.99404 -1.62067 27.6811
355 2 2.2208 10.8727 9.65091 13.7011
354 2 2.2208 8.09356 6.88599 13.7162
369 2 2.2208 10.8287 1.23179 27.5353
721 2 2.2208 5.27315 23.7199 5.21674
722 2 2.2208 5.12988 29.3249 5.18856
723 1 -1.1104 0.981458 25.074 1.28514
724 1 -1.1104 0.957897 25.0979 3.8842
725 1 -1.1104 1.10154 22.1764 1.04755
726 1 -1.1104 1.17883 28.1622 1.00358
727 2 2.2208 5.18 26.4962 2.37195
728 1 -1.1104 0.928185 22.3351 3.79759
729 1 -1.1104 1.07911 27.884 3.85898
730 1 -1.1104 3.79024 25.1617 0.991558
731 2 2.2208 2.41834 23.6774 2.41433
732 2 2.2208 2.49936 29.3284 2.47272
733 1 -1.1104 3.73984 25.1008 3.8143
734 2 2.2208 2.50448 26.4994 5.35703
735 1 -1.1104 3.92215 22.249 1.12379
736 1 -1.1104 3.87223 27.8839 1.05214
737 1 -1.1104 3.90147 22.2913 3.90314
738 1 -1.1104 3.8055 27.8355 3.88326
743 1 -1.1104 6.59902 25.1066 3.77069
745 1 -1.1104 6.52516 27.9476 0.977027
742 1 -1.1104 6.75936 25.1783 1.1053
870 1 -1.1104 3.88096 27.8558 6.59877
867 1 -1.1104 6.69231 27.8247 6.61113
746 1 -1.1104 6.6239 22.246 3.84826
744 1 -1.1104 6.56742 22.3535 1.14446
869 1 -1.1104 3.96021 22.4411 6.69264
1677 1 -1.1104 12.2245 47.5135 12.3855
747 1 -1.1104 6.52199 27.9501 3.82131
748 2 2.2208 10.8543 23.6094 5.37593
749 2 2.2208 10.7991 29.2193 5.20697
750 1 -1.1104 12.34 25.1955 1.12507
751 1 -1.1104 12.2158 24.9097 4.03524
752 1 -1.1104 12.2652 22.4147 1.22857
753 1 -1.1104 12.2211 27.8475 1.15647
754 2 2.2208 10.8587 26.4276 2.48527
755 1 -1.1104 12.2368 22.2533 4.07633
756 1 -1.1104 12.1556 27.6862 3.97154
757 1 -1.1104 9.58613 24.9916 1.08627
758 2 2.2208 7.99891 23.6663 2.39217
759 2 2.2208 7.93404 29.3559 2.39189
760 1 -1.1104 9.44988 25.0708 3.99591
761 2 2.2208 8.01034 26.5005 5.12716
762 1 -1.1104 9.58163 22.157 0.963193
763 1 -1.1104 9.35854 27.9279 1.00212
764 1 -1.1104 9.41406 22.229 4.00549
765 1 -1.1104 9.41619 27.8918 3.87629
897 1 -1.1104 12.3441 27.8746 6.77181
896 1 -1.1104 12.3083 22.2461 6.69542
1011 2 2.2208 -0.350424 46.2197 10.6973
768 2 2.2208 13.6846 26.4028 5.27018
899 1 -1.1104 9.61166 22.1814 6.7319
900 1 -1.1104 9.45737 27.7644 6.54549
1442 1 -1.1104 0.954955 47.4987 1.03922
1042 2 2.2208 13.5605 29.3236 8.07372
1484 1 -1.1104 12.3061 47.5633 1.1365
769 2 2.2208 5.22069 34.9357 5.43764
770 1 -1.1104 1.0132 30.7847 1.00455
771 1 -1.1104 0.990392 36.2695 1.07693
773 1 -1.1104 0.906058 30.6993 3.93447
774 1 -1.1104 0.973181 36.2726 3.93275
776 1 -1.1104 0.826611 33.5033 1.0527
777 2 2.2208 5.17376 32.2348 2.46694
778 2 2.2208 5.21429 37.6343 2.46969
779 1 -1.1104 0.878442 33.3591 3.84564
781 1 -1.1104 3.82761 30.6589 1.13438
782 1 -1.1104 3.64435 36.2115 1.16488
783 2 2.2208 2.18749 34.8614 2.47601
784 1 -1.1104 3.67835 30.8367 3.97201
785 1 -1.1104 3.7802 36.2678 3.91049
786 2 2.2208 2.29088 32.1386 5.39904
787 2 2.2208 2.40654 37.6086 5.2634
788 1 -1.1104 3.64329 33.3363 1.15856
789 1 -1.1104 3.78938 33.5943 3.99825
780 1 -1.1104 6.82893 33.4171 3.77528
794 1 -1.1104 6.39534 30.7546 3.96516
775 1 -1.1104 6.59166 36.1425 3.80746
927 1 -1.1104 3.69857 33.4523 6.7708
1047 2 2.2208 13.5933 34.811 8.09548
925 1 -1.1104 3.72326 30.6444 6.75264
926 1 -1.1104 3.81611 36.1856 6.80854
920 1 -1.1104 0.914227 36.3097 6.66644
922 1 -1.1104 6.50136 36.3215 6.68277
1670 1 -1.1104 12.4489 47.6209 6.66718
1040 2 2.2208 13.589 43.2214 5.19984
772 1 -1.1104 6.60413 36.2183 0.958834
793 1 -1.1104 6.53396 30.6371 0.940426
795 1 -1.1104 6.67579 33.4367 1.08929
1099 2 2.2208 7.9535 37.5875 -0.376873
796 2 2.2208 10.8316 34.8432 5.29964
797 1 -1.1104 12.0949 30.7593 0.998909
798 1 -1.1104 12.184 36.283 1.14527
799 1 -1.1104 12.2551 30.5941 3.80104
800 1 -1.1104 12.1037 36.2563 4.02148
801 1 -1.1104 12.2735 33.5157 1.03507
802 2 2.2208 10.8563 31.9651 2.46118
803 2 2.2208 10.7509 37.6515 2.5624
804 1 -1.1104 12.297 33.3112 3.87109
805 1 -1.1104 9.52381 30.588 1.24494
806 1 -1.1104 9.32432 36.2829 1.14227
807 2 2.2208 8.0527 34.7628 2.47622
808 1 -1.1104 9.30632 30.5138 3.98834
809 1 -1.1104 9.40706 36.2374 4.03428
810 2 2.2208 8.03919 31.9918 5.34405
811 2 2.2208 7.96223 37.7551 5.26566