ITEM: TIMESTEP
80000
ITEM: NUMBER OF ATOMS
17730
ITEM: BOX BOUNDS pp pp pp
-3.5949568902071738e-01 2.7699495689021507e+01
-4.3760268838719494e+00 3.3245602688387015e+02
-3.6123077904761514e-01 2.7701230779047854e+01
ITEM: ATOMS id type q x y z
1 2 2.2208 5.17749 1.27759 5.25276
2 1 -1.1104 0.86726 -2.84641 1.00352
3 1 -1.1104 0.740154 2.56497 0.751749
6 1 -1.1104 0.958512 -2.82384 3.71133
7 1 -1.1104 0.792306 3.16404 3.55187
10 1 -1.1104 0.941764 0.015425 0.843507
12 2 2.2208 5.02641 -1.59999 2.27148
13 2 2.2208 5.05105 3.94128 2.46941
14 1 -1.1104 0.698408 0.146752 3.73764
16 1 -1.1104 3.72311 -2.81154 0.855054
17 1 -1.1104 3.501 3.15364 1.11409
18 2 2.2208 2.22885 1.328 2.23127
19 1 -1.1104 3.66063 -3.03948 3.52714
20 1 -1.1104 3.76662 2.48532 3.796
21 2 2.2208 2.20418 -1.52313 5.11114
22 2 2.2208 2.46142 3.94889 5.18073
23 1 -1.1104 3.60825 0.163494 0.764924
24 1 -1.1104 3.43857 -0.1918 3.6378
162 1 -1.1104 3.66036 -0.00526411 6.51158
5 1 -1.1104 6.33619 2.44763 1.04311
15 1 -1.1104 6.221 -0.220974 3.71757
155 1 -1.1104 1.0397 2.55102 6.42067
4 1 -1.1104 6.64262 -2.92528 1.04468
11 1 -1.1104 6.29911 -0.295508 0.868529
156 1 -1.1104 6.32697 -2.78871 6.53598
8 1 -1.1104 6.44163 -2.85187 3.92079
9 1 -1.1104 6.43352 2.57029 3.83824
26 2 2.2208 13.4605 20.8117 10.8642
327 2 2.2208 10.6713 20.7593 13.5634
154 1 -1.1104 0.668555 -2.93154 6.54753
161 1 -1.1104 3.77035 2.55282 6.55319
159 1 -1.1104 6.49204 -0.0479907 6.67109
157 1 -1.1104 6.50166 2.62119 6.75076
31 2 2.2208 10.7188 1.26069 5.17546
32 1 -1.1104 12.0787 -3.12877 1.03419
33 1 -1.1104 12.1277 2.55574 1.03383
34 1 -1.1104 12.0417 -2.93619 3.91669
35 1 -1.1104 12.1029 2.54291 3.73812
36 1 -1.1104 12.2041 -0.271514 0.91863
37 2 2.2208 10.7594 -1.66095 2.35518
38 2 2.2208 10.6436 4.01364 2.45288
39 1 -1.1104 11.9471 -0.137729 3.68444
40 1 -1.1104 9.40954 -3.07525 1.03469
41 1 -1.1104 9.29559 2.53862 0.945329
42 2 2.2208 7.79506 1.09974 2.39925
43 1 -1.1104 9.48404 -2.92477 3.74876
44 1 -1.1104 9.31308 2.70358 3.79333
45 2 2.2208 7.87166 -1.47535 5.18174
46 2 2.2208 7.86423 3.95276 5.25677
47 1 -1.1104 9.27152 -0.288168 1.01524
48 1 -1.1104 9.08582 -0.0920187 3.87671
198 1 -1.1104 9.21543 -0.329933 6.62871
9199 2 2.2208 13.4739 -1.65765 5.15417
52 2 2.2208 13.4706 1.13154 2.32388
301 2 2.2208 7.8404 -4.35979 2.43532
193 1 -1.1104 11.9631 -2.97227 6.71758
321 2 2.2208 13.5803 4.00543 5.27232
195 1 -1.1104 11.9871 -0.200383 6.45592
197 1 -1.1104 9.3909 2.47644 6.62435
194 1 -1.1104 12.2084 2.69867 6.63718
54 2 2.2208 4.99464 6.87406 5.14444
55 2 2.2208 5.21874 12.454 5.01929
56 1 -1.1104 0.505243 8.23033 0.900351
59 1 -1.1104 0.842986 11.0653 0.894042
64 2 2.2208 4.98142 9.61563 2.38979
65 1 -1.1104 0.909634 10.9132 3.9032
68 1 -1.1104 3.78274 8.2295 0.787023
69 2 2.2208 2.18535 12.3968 2.47695
70 1 -1.1104 3.67038 8.30215 3.93535
71 2 2.2208 2.57611 9.82254 5.35373
72 1 -1.1104 3.68688 11.2215 1.07774
74 1 -1.1104 3.81636 5.20847 3.87639
75 1 -1.1104 3.71451 11.1187 3.78297
8974 1 -1.1104 0.164897 5.14586 0.606824
61 1 -1.1104 6.22088 5.29658 0.987198
60 1 -1.1104 1.03376 11.1477 6.74029
224 1 -1.1104 1.02981 5.23672 6.51823
67 1 -1.1104 6.56009 10.9939 3.68806
62 1 -1.1104 6.38288 10.9138 0.934112
58 1 -1.1104 6.567 8.25889 3.89551
57 1 -1.1104 6.50068 8.11253 1.1122
226 1 -1.1104 3.93881 8.46261 6.68057
66 1 -1.1104 6.66103 5.23545 3.76176
223 1 -1.1104 6.55254 8.17501 6.62733
222 1 -1.1104 1.14063 8.36142 6.43831
227 1 -1.1104 3.74851 5.4132 6.65243
225 1 -1.1104 6.46027 5.43699 6.51269
78 2 2.2208 10.6937 6.78675 5.18357
79 2 2.2208 10.7932 12.3193 5.27461
80 1 -1.1104 12.0584 8.01738 1.09301
81 1 -1.1104 11.9902 8.16731 3.96169
82 1 -1.1104 11.9852 5.24557 0.986378
83 1 -1.1104 12.0826 10.7839 1.02753
85 2 2.2208 10.6522 9.56727 2.36012
86 1 -1.1104 12.2246 5.29748 3.77233
87 1 -1.1104 12.171 10.9009 3.88802
88 1 -1.1104 9.20965 8.25157 1.03816
89 2 2.2208 7.8786 6.81974 2.48625
90 2 2.2208 7.97238 12.4497 2.45433
91 1 -1.1104 9.28964 8.11671 3.85142
92 2 2.2208 7.96548 9.51756 5.16901
93 1 -1.1104 9.09619 5.53213 0.889152
94 1 -1.1104 9.40198 11.1396 1.03141
96 1 -1.1104 9.499 5.45385 3.6125
97 1 -1.1104 9.3108 10.9878 3.76127
255 1 -1.1104 9.23613 8.09306 6.51641
98 2 2.2208 13.5373 12.3449 2.44861
8931 2 2.2208 13.5288 9.61013 5.2135
324 2 2.2208 13.4375 6.68097 2.386
63 1 -1.1104 6.65134 10.9417 6.73451
253 1 -1.1104 12.1503 8.24074 6.69548
254 1 -1.1104 12.1039 5.51944 6.46909
257 1 -1.1104 9.22823 5.31059 6.5104
84 1 -1.1104 12.1374 11.0094 6.60607
100 1 -1.1104 0.878877 13.7813 1.15448
102 1 -1.1104 0.913734 19.5204 0.799587
106 1 -1.1104 0.821064 13.6965 3.97821
107 1 -1.1104 0.747418 19.3564 3.69066
109 1 -1.1104 0.686999 16.6132 1.00153
112 2 2.2208 5.16072 20.7392 2.47268
113 1 -1.1104 1.0282 16.4324 3.72797
114 1 -1.1104 3.4468 13.784 3.82249
115 1 -1.1104 3.74216 19.3883 0.993796
117 2 2.2208 2.19481 18.14 2.32298
118 1 -1.1104 3.45983 19.4029 3.5953
119 2 2.2208 2.19756 15.197 5.19702
120 2 2.2208 2.38894 20.6567 5.20756
121 1 -1.1104 3.55291 16.7236 1.05346
101 1 -1.1104 0.912796 13.8795 6.63517
126 1 -1.1104 6.53201 19.3931 1.01491
103 1 -1.1104 6.59635 13.6431 0.922533
127 1 -1.1104 6.50508 19.376 3.71288
111 1 -1.1104 6.57933 16.5409 6.54131
110 1 -1.1104 1.1023 16.6627 6.58766
318 2 2.2208 7.88543 15.2774 -0.266027
108 1 -1.1104 6.60347 13.8017 4.0279
128 1 -1.1104 6.6493 16.7139 1.19798
125 2 2.2208 5.20937 17.9111 -0.234076
164 2 2.2208 13.6878 15.3252 5.09424
137 1 -1.1104 12.2929 16.7763 6.44394
129 2 2.2208 10.7093 17.9985 5.20167
130 1 -1.1104 12.0875 13.8207 1.06446
132 1 -1.1104 12.1219 19.4781 0.89549
134 1 -1.1104 12.216 13.7482 3.82924
135 1 -1.1104 12.1639 19.6781 3.68954
136 1 -1.1104 12.142 16.5523 0.937765
138 2 2.2208 10.8261 15.2913 2.37703
139 2 2.2208 10.865 20.8863 2.44704
140 1 -1.1104 12.1438 16.7647 3.82683
141 1 -1.1104 9.35762 13.8231 0.997656
143 1 -1.1104 9.4078 19.6156 1.0126
145 2 2.2208 7.93201 18.1133 2.50933
146 1 -1.1104 9.40226 13.8498 3.91334
147 1 -1.1104 9.48306 19.4722 3.81766
148 2 2.2208 7.98265 15.1618 5.32601
149 2 2.2208 7.98702 20.8555 5.24589
150 1 -1.1104 9.42984 16.7494 0.890945
152 1 -1.1104 9.13817 16.5526 3.70368
151 1 -1.1104 9.37929 16.56 6.52003
133 1 -1.1104 12.2212 19.5399 6.56907
144 1 -1.1104 9.49737 19.2275 6.65314
153 2 2.2208 13.4558 18.0787 2.27893
17369 2 2.2208 13.3678 -4.33333 13.5715
8523 2 2.2208 7.80276 -4.22739 7.89597
160 1 -1.1104 3.56057 -2.79831 6.48757
307 2 2.2208 4.8505 4.06658 13.5315
30 1 -1.1104 12.1275 13.8498 12.178
316 2 2.2208 2.18927 -4.31587 2.32039
158 1 -1.1104 0.928995 -0.122236 6.64813
166 2 2.2208 5.00212 1.35543 10.7852
167 1 -1.1104 0.892307 -2.95555 12.3004
168 1 -1.1104 0.811634 2.54365 12.1168
171 1 -1.1104 0.639579 -3.03534 9.43735
172 1 -1.1104 0.887401 2.60486 9.38911
175 1 -1.1104 0.653343 -0.203837 12.0751
177 2 2.2208 5.09719 -1.47683 7.93607
178 2 2.2208 5.11867 4.06236 7.92815
179 1 -1.1104 0.837189 -0.113109 9.33328
181 1 -1.1104 3.64436 -3.21021 12.2023
182 1 -1.1104 3.61009 2.52552 12.2608
183 2 2.2208 2.30245 1.19676 7.983
184 1 -1.1104 3.424 -2.93712 9.3101
185 1 -1.1104 3.59075 2.55903 9.40257
186 2 2.2208 2.13555 -1.54843 10.725
187 2 2.2208 2.2176 4.04638 10.7946
188 1 -1.1104 3.57659 -0.239601 12.085
189 1 -1.1104 3.69542 -0.109905 9.34772
170 1 -1.1104 6.22582 2.66121 12.294
169 1 -1.1104 6.46413 -2.95146 12.0428
176 1 -1.1104 6.58343 -0.0158844 12.1797
180 1 -1.1104 6.54601 -0.0492928 9.46412
173 1 -1.1104 6.40029 -3.04522 9.25088
174 1 -1.1104 6.43425 2.74057 9.53211
305 2 2.2208 4.99576 -1.53415 13.5036
124 2 2.2208 7.85075 -4.3013 13.5311
196 1 -1.1104 9.20515 -3.02015 6.4894
8522 2 2.2208 10.6765 -4.3701 10.6982
76 1 -1.1104 12.1057 19.3363 9.47811
9203 2 2.2208 13.3818 1.26732 13.5636
8903 2 2.2208 13.3838 -1.56029 10.7266
9037 2 2.2208 13.3792 3.98258 10.8583
201 2 2.2208 10.6288 1.18673 10.8778
202 1 -1.1104 12.103 -3.05845 12.0916
203 1 -1.1104 11.9873 2.56615 12.2867
204 1 -1.1104 12.0561 -3.06266 9.35574
205 1 -1.1104 12.0204 2.56625 9.53532
206 1 -1.1104 12.1559 -0.226842 12.0513
207 2 2.2208 10.6186 -1.59089 7.99616
208 2 2.2208 10.725 4.00958 8.02557
209 1 -1.1104 12.0327 -0.125072 9.29539
210 1 -1.1104 9.35992 -3.10687 12.1654
211 1 -1.1104 9.25869 2.64644 12.2412
212 2 2.2208 7.95308 1.07624 8.05486
213 1 -1.1104 9.21112 -2.92643 9.31693
214 1 -1.1104 9.34248 2.69109 9.38974
215 2 2.2208 7.93099 -1.54697 10.8477
217 1 -1.1104 9.38157 -0.0963498 12.2894
218 1 -1.1104 9.19548 -0.258878 9.49963
216 2 2.2208 7.87006 4.11924 10.9049
8904 2 2.2208 13.5376 1.23828 8.05821
309 2 2.2208 7.85171 1.29073 13.5563
310 2 2.2208 10.7006 -1.55735 13.6287
654 2 2.2208 10.6512 4.11204 13.626
73 1 -1.1104 4.0772 11.3524 6.55409
228 2 2.2208 5.10733 6.85417 10.8689
229 2 2.2208 5.20379 12.3682 10.866
230 1 -1.1104 0.715175 8.14161 12.4062
232 1 -1.1104 0.831346 8.15415 9.4487
234 1 -1.1104 0.896498 5.37416 12.2749
235 1 -1.1104 1.01364 10.8356 12.2186
238 2 2.2208 5.21593 9.65244 7.99656
239 1 -1.1104 0.900812 5.37543 9.42468
240 1 -1.1104 0.930028 10.9671 9.51494
243 1 -1.1104 3.70681 8.25866 12.1825
244 2 2.2208 2.21175 6.7609 7.86813
245 2 2.2208 2.43902 12.4044 8.11718
246 1 -1.1104 3.70358 8.13014 9.45696
247 2 2.2208 2.36165 9.47688 10.8454
248 1 -1.1104 3.82912 5.25384 12.0939
249 1 -1.1104 3.66874 11.0088 12.1744
250 1 -1.1104 3.58856 5.30106 9.23156
251 1 -1.1104 3.75139 10.8237 9.26177
241 1 -1.1104 6.491 5.45791 9.53624
236 1 -1.1104 6.65663 5.47739 12.5396
231 1 -1.1104 6.41861 8.27902 12.287
237 1 -1.1104 6.49066 11.0193 12.3246
233 1 -1.1104 6.59206 8.20693 9.40085
242 1 -1.1104 6.45897 11.0751 9.4866
325 2 2.2208 2.3478 12.3686 13.5553
656 2 2.2208 7.86666 18.0653 13.639
317 2 2.2208 5.05814 -4.29975 5.16617
313 2 2.2208 7.96802 6.93309 13.5864
328 2 2.2208 13.5199 6.82066 13.5305
95 1 -1.1104 9.30766 10.9215 6.64648
9113 2 2.2208 13.517 6.93455 8.02128
9233 2 2.2208 13.4936 12.4393 7.90365
252 1 -1.1104 9.32188 10.8063 9.41216
256 1 -1.1104 9.36236 5.3811 9.36022
258 1 -1.1104 9.28498 10.8852 12.1649
259 1 -1.1104 9.42084 5.47745 12.1505
260 2 2.2208 7.98016 9.48909 10.8384
261 1 -1.1104 9.39727 8.02186 9.44613
262 2 2.2208 8.01466 12.3442 7.89076
263 2 2.2208 7.87131 6.72938 7.95542
264 2 2.2208 10.7809 6.78037 10.7487
265 2 2.2208 10.6568 12.4026 10.7642
266 1 -1.1104 12.2617 8.11126 12.0467
267 1 -1.1104 12.1236 8.35476 9.42162
268 1 -1.1104 12.1052 5.39273 12.2735
269 1 -1.1104 11.9933 11.0695 12.2994
270 2 2.2208 10.7008 9.52632 7.97411
271 1 -1.1104 12.0913 5.35745 9.35645
272 1 -1.1104 12.0805 11.11 9.3564
273 1 -1.1104 9.3269 8.16027 12.2238
9232 2 2.2208 13.5002 9.73632 10.8436
290 1 -1.1104 0.816628 19.5723 6.56123
122 1 -1.1104 3.78853 14.2832 6.67948
8521 2 2.2208 2.04107 -4.3032 8.02008
284 1 -1.1104 6.60586 19.5282 12.1757
278 1 -1.1104 6.48914 13.8023 9.46242
294 1 -1.1104 6.41261 16.7346 12.2101
285 1 -1.1104 6.70479 13.9805 12.2787
116 1 -1.1104 3.52781 19.2269 6.64213
274 1 -1.1104 3.77185 19.6025 12.0962
275 1 -1.1104 3.94798 13.7502 12.3408
279 1 -1.1104 0.857381 19.3581 9.39533
280 1 -1.1104 1.00712 16.657 9.52452
281 2 2.2208 5.08321 20.7921 7.88022
282 1 -1.1104 0.982917 13.7809 9.43146
283 2 2.2208 5.2647 15.1164 8.12906
286 1 -1.1104 0.976765 19.351 12.1764
287 1 -1.1104 1.03099 13.8405 12.3938
288 2 2.2208 5.13914 18.0789 10.8667
289 1 -1.1104 3.50879 19.2338 9.45261
291 2 2.2208 2.18591 18.1933 8.14263
292 1 -1.1104 3.84965 16.594 9.3087
293 1 -1.1104 3.69041 13.7636 9.44798
295 1 -1.1104 0.960426 16.608 12.1586
296 1 -1.1104 3.7693 16.6998 12.2076
297 2 2.2208 2.24777 20.7933 10.7693
298 2 2.2208 2.41187 15.2419 10.7891
277 1 -1.1104 6.52942 16.5313 9.45927
105 1 -1.1104 6.75399 19.666 6.72236
104 1 -1.1104 6.4191 13.7442 6.69991
499 2 2.2208 5.14071 20.8192 13.4862
29 2 2.2208 10.7684 17.9514 10.6469
123 2 2.2208 10.7465 20.7866 8.00599
199 1 -1.1104 9.40523 13.7635 9.31024
191 1 -1.1104 9.31316 19.5105 12.326
190 1 -1.1104 9.24907 13.8026 12.1575
142 1 -1.1104 9.44378 13.6782 6.6314
219 1 -1.1104 9.1117 16.8692 12.1046
200 2 2.2208 7.96988 20.7874 10.7552
221 2 2.2208 7.86789 15.1747 10.8132
163 1 -1.1104 12.1632 16.6645 9.25045
276 1 -1.1104 6.48152 19.4925 9.46096
25 2 2.2208 13.4887 15.2565 10.7515
131 1 -1.1104 12.2476 13.8123 6.49824
99 2 2.2208 10.7971 15.2661 7.88821
77 1 -1.1104 12.0577 16.6562 12.1331
192 2 2.2208 7.79575 18.0364 7.9626
53 1 -1.1104 12.0907 13.8591 9.29548
9231 2 2.2208 13.6079 18.0176 7.83638
220 1 -1.1104 9.36241 19.4462 9.46056
302 1 -1.1104 9.41861 16.5252 9.4494
49 1 -1.1104 12.1091 19.371 12.0981
9550 2 2.2208 13.4582 12.3979 13.6422
326 2 2.2208 10.7338 9.57786 13.5303
17356 2 2.2208 13.5048 -4.40004 8.07773
315 2 2.2208 2.43255 17.9372 13.5676
502 2 2.2208 10.6194 15.2033 13.596
562 2 2.2208 7.99107 20.887 -0.326579
655 2 2.2208 13.3355 17.9431 13.541
556 2 2.2208 2.0461 4.02729 -0.382194
331 2 2.2208 7.81716 4.02963 -0.346735
652 2 2.2208 10.7371 1.17029 -0.332742
643 2 2.2208 7.88384 9.67746 -0.332507
560 2 2.2208 2.23584 15.3832 -0.372759
306 2 2.2208 2.29854 1.24499 13.6106
333 2 2.2208 5.10533 1.51971 16.3138
334 1 -1.1104 0.849281 -3.00946 17.8167
335 1 -1.1104 0.763391 2.49194 17.788
338 1 -1.1104 0.735928 -3.17264 15.0292
340 1 -1.1104 0.742819 2.50516 15.0073
346 1 -1.1104 0.980596 -0.280679 17.8108
348 2 2.2208 5.0342 -1.54562 19.1508
349 2 2.2208 5.23559 4.14514 19.2367
350 1 -1.1104 0.852604 -0.218365 14.8562
354 1 -1.1104 3.63628 -2.83088 17.8454
355 1 -1.1104 3.69938 2.96152 17.6911
356 2 2.2208 2.30139 1.43221 19.1825
357 1 -1.1104 3.68221 -2.96319 15.0048
359 1 -1.1104 3.64622 2.55649 14.9363
361 2 2.2208 2.27108 -1.65074 16.3798
362 2 2.2208 2.00606 3.97783 16.3359
363 1 -1.1104 3.51344 0.1649 17.6405
364 1 -1.1104 3.77811 -0.190876 14.9549
351 1 -1.1104 0.8927 -0.00743923 20.5156
341 1 -1.1104 0.939091 2.8813 20.5381
342 1 -1.1104 6.41958 -2.86669 14.9142
358 1 -1.1104 3.70346 -2.90698 20.5982
344 1 -1.1104 6.48161 3.04258 14.9484
347 1 -1.1104 6.48337 -0.171507 17.7832
336 1 -1.1104 6.45011 -2.89474 17.7022
352 1 -1.1104 6.50119 0.116194 14.9696
337 1 -1.1104 6.51351 2.5838 17.7187
339 1 -1.1104 0.914303 -2.99096 20.6199
360 1 -1.1104 3.71781 2.79136 20.6304
353 1 -1.1104 6.39796 -0.214784 20.4633
343 1 -1.1104 6.42841 -3.03145 20.5772
8527 2 2.2208 10.7037 -4.34821 27.6686
376 2 2.2208 10.6744 1.23651 16.4051
377 1 -1.1104 12.0978 -3.04095 17.6682
378 1 -1.1104 12.1856 2.67503 17.9077
379 1 -1.1104 12.0486 -2.9937 15.0392
381 1 -1.1104 12.0009 2.66507 15.006
383 1 -1.1104 12.1396 -0.111917 17.6672
384 2 2.2208 10.6936 -1.61864 19.1466
385 2 2.2208 10.6142 3.95175 19.1862
386 1 -1.1104 11.984 -0.109689 14.8113
388 1 -1.1104 9.18377 -3.04386 17.8245
389 1 -1.1104 9.31077 2.5659 17.8124
390 2 2.2208 7.8508 1.23545 19.2055
391 1 -1.1104 9.27699 -2.81588 14.9644
393 1 -1.1104 9.27356 2.57673 15.02
395 2 2.2208 7.81961 -1.49432 16.3751
396 2 2.2208 8.02322 3.96051 16.4337
397 1 -1.1104 9.22729 -0.309193 17.7799
398 1 -1.1104 9.17722 -0.105904 15.0205
372 2 2.2208 13.4557 4.13506 16.3573
9543 2 2.2208 13.4704 1.21466 19.1159
466 2 2.2208 7.8911 15.2093 22.0395
9546 2 2.2208 13.5287 -1.59838 16.3031
374 2 2.2208 10.7645 20.8437 24.8686
399 1 -1.1104 9.40201 -0.016196 20.5667
387 1 -1.1104 12.0558 -0.342661 20.5524
380 1 -1.1104 12.0495 -3.03994 20.4834
382 1 -1.1104 12.0993 2.38288 20.733
409 2 2.2208 5.01483 12.4702 16.4038
410 1 -1.1104 0.821721 8.19787 15.1686
412 1 -1.1104 0.759201 5.42959 15.0429
416 1 -1.1104 0.906297 11.3345 17.7659
419 2 2.2208 5.18715 9.79744 19.3643
420 1 -1.1104 3.5481 5.2888 15.0009
421 1 -1.1104 0.865726 11.033 14.9318
426 1 -1.1104 0.873036 8.57078 17.8203
427 2 2.2208 2.22453 12.6399 19.1277
428 1 -1.1104 3.48954 8.36332 15.0389
430 2 2.2208 2.18065 9.73475 16.4226
431 1 -1.1104 0.700378 5.28672 17.8227
432 1 -1.1104 3.58533 11.0185 17.8417
435 1 -1.1104 3.63956 11.1411 15.1169
429 1 -1.1104 3.80262 8.48791 20.682
424 1 -1.1104 6.5047 11.11 14.9835
411 1 -1.1104 6.48468 8.42641 18.0353
423 1 -1.1104 6.60699 5.48745 20.7271
418 1 -1.1104 6.46733 11.1994 17.9616
414 1 -1.1104 6.63354 8.1756 14.9023
413 1 -1.1104 0.803932 8.31798 20.791
417 1 -1.1104 6.71371 5.20243 17.9456
436 1 -1.1104 3.65432 11.2448 20.5272
422 1 -1.1104 0.832193 11.215 20.5509
434 1 -1.1104 3.77354 5.38545 20.8304
415 1 -1.1104 6.56235 8.2868 20.794
9548 2 2.2208 13.4296 6.77135 19.2967
441 2 2.2208 10.6233 6.89185 16.4599
442 2 2.2208 10.8972 12.4054 16.3072
443 1 -1.1104 12.0918 8.22606 17.8505
444 1 -1.1104 12.1739 8.183 15.0487
446 1 -1.1104 12.1435 5.40919 17.8428
447 1 -1.1104 12.2729 11.1165 17.9157
448 2 2.2208 10.6895 9.61828 19.1079
449 1 -1.1104 12.0064 5.50594 14.9947
451 1 -1.1104 12.0735 10.8867 15.0665
453 1 -1.1104 9.12799 8.35037 17.8057
454 2 2.2208 7.83253 6.87209 19.3136
455 2 2.2208 8.04582 12.5436 19.1735
456 1 -1.1104 9.35826 8.13856 14.9567
458 2 2.2208 7.8517 9.608 16.4615
459 1 -1.1104 9.45071 5.57928 17.7914
460 1 -1.1104 9.40629 11.1409 17.6722
461 1 -1.1104 8.99229 5.41464 14.9764
463 1 -1.1104 9.29156 10.9924 14.9819
585 2 2.2208 13.564 12.4527 19.2446
9549 2 2.2208 13.5677 9.49833 16.3945
445 1 -1.1104 12.0381 8.138 20.7217
462 1 -1.1104 9.31466 5.33283 20.6386
457 1 -1.1104 9.29301 8.25281 20.6681
450 1 -1.1104 12.0508 5.39875 20.7976
452 1 -1.1104 12.2036 11.1161 20.7576
8667 2 2.2208 13.5776 -4.36069 19.0971
369 2 2.2208 13.61 18.0055 24.8039
465 1 -1.1104 9.33967 19.5337 26.2543
467 2 2.2208 5.18453 18.1421 16.4546
468 1 -1.1104 0.725025 13.9268 17.9323
472 1 -1.1104 1.05581 13.7268 15.1726
474 1 -1.1104 0.777487 19.3293 14.9149
479 1 -1.1104 0.7645 16.6454 17.9839
481 2 2.2208 5.07246 15.2103 19.1755
482 2 2.2208 5.12752 20.7844 19.4794
483 1 -1.1104 0.982761 16.7574 15.0544
486 1 -1.1104 3.76731 13.9783 17.7917
487 1 -1.1104 3.82348 19.5289 17.7869
488 2 2.2208 2.30123 18.1997 19.0621
489 1 -1.1104 3.6753 13.8589 15.1486
491 1 -1.1104 3.73847 19.3873 14.9216
493 2 2.2208 2.1418 15.302 16.4661
494 2 2.2208 2.42515 20.7429 16.2797
495 1 -1.1104 3.56749 16.7809 17.9009
496 1 -1.1104 3.8528 16.5825 15.1499
996 1 -1.1104 1.05453 19.459 17.6738
492 1 -1.1104 3.64351 19.3179 20.5707
484 1 -1.1104 6.54825 16.7312 15.1275
470 1 -1.1104 6.58489 13.9967 17.8882
475 1 -1.1104 6.54673 13.8739 14.9251
480 1 -1.1104 6.59082 16.7794 17.8015
473 1 -1.1104 0.718834 14.1757 20.6303
476 1 -1.1104 6.46374 13.9757 20.6829
471 1 -1.1104 6.56773 19.5109 17.9
478 1 -1.1104 6.52525 19.2995 20.6553
497 1 -1.1104 2.81175 16.5606 20.5275
498 2 2.2208 8.04324 20.8578 22.2218
477 1 -1.1104 6.51106 19.6052 15.0603
312 2 2.2208 2.17378 6.85826 13.8147
514 1 -1.1104 12.1991 16.722 20.6258
503 2 2.2208 10.6851 17.9857 16.3557
504 1 -1.1104 12.1901 13.8579 17.6601
505 1 -1.1104 12.2778 19.5168 17.6647
506 1 -1.1104 12.2197 13.6565 14.9031
508 1 -1.1104 12.1301 19.3485 14.9991
510 1 -1.1104 12.1779 16.6117 17.8314
511 2 2.2208 10.7882 15.2601 19.1907
512 2 2.2208 10.7636 20.9137 19.2201
513 1 -1.1104 12.1032 16.4906 14.9781
515 1 -1.1104 9.42436 13.8209 17.8859
516 1 -1.1104 9.30905 19.3694 17.8278
517 2 2.2208 7.87877 18.0967 19.3725
518 1 -1.1104 9.34953 13.8812 15.0242
520 1 -1.1104 9.29077 19.3857 15.0555
522 2 2.2208 7.95827 15.1907 16.4438
523 2 2.2208 7.91282 20.8142 16.5096
524 1 -1.1104 9.40865 16.6115 17.7628
525 1 -1.1104 9.41064 16.6626 14.8764
521 1 -1.1104 9.33889 19.6143 20.6526
558 2 2.2208 13.5684 15.1396 16.4665
403 2 2.2208 13.5776 18.0673 19.1597
373 2 2.2208 10.7621 15.133 24.8454
557 1 -1.1104 12.0846 19.4849 26.2402
8565 2 2.2208 13.5396 -4.36063 24.858
509 1 -1.1104 12.129 19.4811 20.7119
507 1 -1.1104 12.0748 13.8671 20.5202
365 1 -1.1104 3.70139 -0.0406907 20.5492
345 1 -1.1104 6.49169 2.68501 20.5007
528 2 2.2208 5.12635 1.3365 21.8924
529 1 -1.1104 0.842651 -2.81162 23.3651
530 1 -1.1104 0.99383 2.89911 23.3785
533 1 -1.1104 0.934444 -2.79912 26.1718
534 1 -1.1104 0.827352 2.68415 26.0687
537 1 -1.1104 0.860074 0.0876891 23.1637
539 2 2.2208 5.15386 -1.53508 24.8662
540 2 2.2208 5.08297 4.15814 25.0887
541 1 -1.1104 1.03271 -0.147609 26.0625
543 1 -1.1104 3.67063 -2.96645 23.3848
544 1 -1.1104 3.8209 2.68256 23.3732
545 2 2.2208 2.33555 1.33753 24.7109
546 1 -1.1104 3.73507 -2.92555 26.1753
547 1 -1.1104 3.72364 2.71252 26.3985
548 2 2.2208 2.25121 -1.38718 21.8681
549 2 2.2208 2.38158 4.0607 22.1114
550 1 -1.1104 3.59359 -0.175185 23.318
551 1 -1.1104 3.75548 0.0046567 26.0332
531 1 -1.1104 6.46455 -2.99189 23.2522
536 1 -1.1104 6.69042 2.65255 26.2011
542 1 -1.1104 6.57247 -0.129044 26.2392
532 1 -1.1104 6.51363 2.60026 23.3764
535 1 -1.1104 6.50222 -3.01406 26.0552
538 1 -1.1104 6.62375 -0.0705834 23.4475
329 2 2.2208 5.09554 1.32596 27.5623
440 2 2.2208 2.32073 -4.39936 19.2813
622 1 -1.1104 12.1981 19.4517 23.5361
319 2 2.2208 2.28817 -1.46942 27.5048
303 2 2.2208 13.5841 15.1274 27.5943
392 1 -1.1104 9.32611 -2.85793 20.6945
590 2 2.2208 13.5169 -1.57753 21.9798
394 1 -1.1104 9.24012 2.58229 20.5906
564 2 2.2208 10.7003 1.09134 22.0254
565 1 -1.1104 12.1699 -3.13108 23.387
566 1 -1.1104 12.14 2.65967 23.5866
567 1 -1.1104 12.0565 -2.9992 26.2371
568 1 -1.1104 12.1701 2.46698 26.4458
569 1 -1.1104 12.1823 -0.240516 23.427
570 2 2.2208 10.6613 -1.59967 24.9651
571 2 2.2208 10.7728 4.08222 24.9097
572 1 -1.1104 12.1042 -0.241202 26.2523
573 1 -1.1104 9.4501 -3.1635 23.4848
574 1 -1.1104 9.44041 2.62917 23.5182
575 2 2.2208 7.934 1.26156 24.9416
576 1 -1.1104 9.21143 -2.90617 26.354
577 1 -1.1104 9.33958 2.79811 26.2345
578 2 2.2208 7.89347 -1.5329 21.8903
579 2 2.2208 8.00671 3.99971 22.0999
580 1 -1.1104 9.3876 -0.250752 23.3723
581 1 -1.1104 9.25258 -0.128046 26.2838
9551 2 2.2208 13.5788 1.19175 24.7538
9542 2 2.2208 13.5505 3.94995 21.9847
366 2 2.2208 13.463 15.3619 22.0314
50 2 2.2208 13.5946 3.97006 27.6879
651 2 2.2208 7.80508 -1.58638 27.6328
8627 2 2.2208 7.81286 -4.34527 19.1921
8628 2 2.2208 10.7078 -4.33763 16.448
619 2 2.2208 5.25856 12.5096 27.7419
425 1 -1.1104 6.57047 11.1232 20.6775
615 1 -1.1104 3.77094 5.44818 26.627
593 2 2.2208 5.08228 6.92312 22.0302
594 2 2.2208 5.10113 12.4649 22.0463
595 1 -1.1104 0.875572 8.40315 23.5014
597 1 -1.1104 0.796467 8.40763 26.0884
599 1 -1.1104 1.04439 5.76212 22.936
600 1 -1.1104 0.8982 11.0617 23.3805
603 2 2.2208 5.07601 9.67421 24.882
604 1 -1.1104 1.0734 5.49825 25.9501
605 1 -1.1104 0.935849 11.1261 26.2946
608 1 -1.1104 3.74591 8.25785 23.4388
609 2 2.2208 2.38689 6.98181 24.7108
610 2 2.2208 2.28714 12.5311 25.062
611 1 -1.1104 3.8136 8.2293 26.1391
612 2 2.2208 2.28835 9.6635 21.9723
613 1 -1.1104 3.83381 5.44447 23.7162
614 1 -1.1104 3.77462 11.0183 23.476
616 1 -1.1104 3.77589 11.0011 26.308
602 1 -1.1104 6.66367 11.2054 23.2989
606 1 -1.1104 6.45569 5.48077 26.3539
601 1 -1.1104 6.54776 5.27551 23.6263
596 1 -1.1104 6.44557 8.33446 23.5581
598 1 -1.1104 6.6192 8.27535 26.1935
607 1 -1.1104 6.43691 11.1078 26.2574
617 2 2.2208 5.18248 7.00289 27.617
28 2 2.2208 2.26993 9.7012 27.6643
642 2 2.2208 10.6351 6.72764 27.7139
647 2 2.2208 13.5547 6.7714 24.926
367 2 2.2208 13.5523 9.58837 22.0187
464 1 -1.1104 9.43716 11.1495 20.5623
624 1 -1.1104 9.1961 11.0136 26.2183
625 1 -1.1104 9.35392 5.36171 26.3103
626 1 -1.1104 9.37726 10.9917 23.4683
627 1 -1.1104 9.37661 5.42538 23.5048
628 2 2.2208 7.99693 9.64551 22.1262
629 1 -1.1104 9.32771 8.30048 26.4703
630 2 2.2208 7.93023 12.4605 24.8422
631 2 2.2208 7.98985 6.81887 24.9675
632 2 2.2208 10.6646 6.91571 22.289
633 2 2.2208 10.67 12.457 22.0744
634 1 -1.1104 11.999 8.32688 23.514
635 1 -1.1104 11.8714 8.14703 26.2757
636 1 -1.1104 12.2127 5.57456 23.6299
637 1 -1.1104 12.1701 11.0917 23.463
638 2 2.2208 10.6792 9.65443 25.0091
639 1 -1.1104 12.1081 5.43871 26.3345
640 1 -1.1104 12.185 10.8597 26.2555
641 1 -1.1104 9.39468 8.29594 23.6452
645 2 2.2208 13.5573 12.3957 24.7843
433 2 2.2208 5.08784 -4.34462 16.528
332 2 2.2208 10.7622 12.4057 27.6823
519 1 -1.1104 9.29853 13.8398 20.7221
500 1 -1.1104 9.34265 16.6176 23.3146
485 1 -1.1104 6.14504 16.6115 20.6775
8566 2 2.2208 2.27038 -4.27655 24.6857
649 1 -1.1104 6.43054 13.9536 26.3947
490 1 -1.1104 3.69526 13.9956 20.7279
592 1 -1.1104 6.5566 16.7153 23.5879
408 1 -1.1104 6.57039 19.4777 26.3537
644 1 -1.1104 6.44734 16.7368 26.4237
371 2 2.2208 2.27756 18.0292 24.843
402 1 -1.1104 3.71241 19.4107 26.3807
404 2 2.2208 4.89824 18.1623 22.0508
552 1 -1.1104 0.886086 13.7573 23.6055
554 1 -1.1104 0.860416 13.9988 26.3973
582 1 -1.1104 0.850682 16.7882 26.3015
583 2 2.2208 2.35513 15.2263 22.2448
584 1 -1.1104 0.832937 19.5966 25.8815
586 1 -1.1104 0.944679 16.63 23.4905
588 2 2.2208 5.25343 15.3507 24.7861
589 1 -1.1104 3.83979 16.5885 23.3417
591 2 2.2208 5.13606 20.8469 24.9037
618 1 -1.1104 3.62353 13.7418 26.9414
646 1 -1.1104 3.72602 16.6284 26.2438
648 1 -1.1104 3.71898 19.3863 23.7231
650 1 -1.1104 3.57561 13.9429 23.7602
587 1 -1.1104 6.56461 13.9162 23.6993
527 1 -1.1104 6.49739 19.4449 23.4604
9547 2 2.2208 13.6714 20.8909 22.0051
438 1 -1.1104 9.41243 13.6548 26.1966
375 1 -1.1104 12.1048 16.6612 26.2094
621 1 -1.1104 12.2682 13.8133 23.3104
406 1 -1.1104 9.28012 19.5085 23.5463
501 1 -1.1104 9.21875 16.4898 26.106
620 2 2.2208 10.8181 18.1181 22.1262
407 2 2.2208 7.88719 18.0813 24.8426
555 1 -1.1104 12.2327 16.6012 23.5068
526 1 -1.1104 9.42336 16.8737 20.5785
401 1 -1.1104 9.41302 13.8098 23.4306
623 1 -1.1104 12.1029 13.7451 26.2279
657 2 2.2208 10.7275 18.0607 27.5252
51 2 2.2208 13.5391 -1.63793 27.5912
330 2 2.2208 2.33127 20.8559 27.6325
405 2 2.2208 13.4953 20.8878 27.6118
653 2 2.2208 13.3569 9.40492 27.643
437 2 2.2208 5.10495 9.70702 13.7481
314 2 2.2208 5.23555 15.1529 13.688
439 2 2.2208 7.94313 12.3707 13.707
658 2 2.2208 5.18347 23.5122 5.07444
659 2 2.2208 5.18535 29.1673 5.26243
660 1 -1.1104 0.887798 24.9445 1.09793
661 1 -1.1104 1.02298 24.9142 3.76375
662 1 -1.1104 0.785826 22.231 1.15563
663 1 -1.1104 1.04014 27.9 0.923016
664 2 2.2208 5.13016 26.3747 2.38111
665 1 -1.1104 0.93619 22.0961 3.83121
666 1 -1.1104 0.9926 27.9221 3.84725
667 1 -1.1104 3.66732 24.9099 0.940492
668 2 2.2208 2.44438 23.4613 2.46902
669 2 2.2208 2.34405 29.2216 2.39211
670 1 -1.1104 3.82948 24.9457 3.7856
671 2 2.2208 2.44085 26.3447 5.1785
672 1 -1.1104 3.7293 22.1124 0.940316
673 1 -1.1104 3.80569 27.7662 0.924332
674 1 -1.1104 3.81834 22.2362 3.74058
675 1 -1.1104 3.75189 27.7587 3.79221
681 1 -1.1104 6.55448 22.1546 1.09456
679 1 -1.1104 6.48249 25.01 0.938412
680 1 -1.1104 6.5569 25.0459 3.6951
683 1 -1.1104 6.75241 22.2406 3.94511
682 1 -1.1104 6.62119 27.7797 1.17133
684 1 -1.1104 6.5951 27.7835 3.8983
806 1 -1.1104 3.78469 22.0956 6.50154
799 1 -1.1104 0.987907 25.0952 6.5896
807 1 -1.1104 3.72229 27.7059 6.44266
801 1 -1.1104 1.02192 22.2705 6.46079
685 2 2.2208 10.7513 23.6304 5.30058
686 2 2.2208 10.9103 29.2269 5.08482
687 1 -1.1104 12.295 25.0439 0.911887
688 1 -1.1104 12.3166 25.0558 3.7739
689 1 -1.1104 12.0795 22.242 1.05488
690 1 -1.1104 12.3247 27.8125 0.889737
691 2 2.2208 10.9771 26.4474 2.24455
692 1 -1.1104 12.2543 22.3414 3.89784
693 1 -1.1104 12.1751 27.816 3.74006
694 1 -1.1104 9.30199 25.0177 0.904635
695 2 2.2208 7.98615 23.6673 2.41799
696 2 2.2208 7.99684 29.1179 2.37759
697 1 -1.1104 9.47153 24.9719 3.78683
698 2 2.2208 7.99738 26.2983 5.01978
699 1 -1.1104 9.26576 22.3066 1.09309
700 1 -1.1104 9.4479 27.7954 0.837255
701 1 -1.1104 9.47114 22.311 3.84382
702 1 -1.1104 9.51079 27.7506 3.64851
833 1 -1.1104 12.3066 27.8924 6.51541
836 1 -1.1104 9.40445 27.6591 6.43368
1287 2 2.2208 5.30412 46.0914 -0.208398
705 2 2.2208 13.652 26.444 5.1997
703 2 2.2208 13.6053 23.7191 2.40352
832 1 -1.1104 12.0708 22.1996 6.6524
831 1 -1.1104 12.1254 25.0366 6.57436
9863 2 2.2208 13.6815 34.8398 7.9475
9854 2 2.2208 -0.211082 40.1339 11.1237
1567 1 -1.1104 12.03 47.4774 9.45151
707 2 2.2208 5.24358 34.743 5.19162
708 1 -1.1104 1.05474 30.6981 1.05911
709 1 -1.1104 1.00544 36.1759 1.00716
711 1 -1.1104 0.966305 30.5376 3.82543
712 1 -1.1104 0.980898 36.2071 3.77227
714 1 -1.1104 0.889657 33.5196 1.12056
715 2 2.2208 5.25619 31.9402 2.34675
716 2 2.2208 5.2269 37.8092 2.63574
717 1 -1.1104 0.994324 33.292 3.88277
719 1 -1.1104 3.88487 30.5506 1.03162
720 1 -1.1104 3.78648 36.2461 1.03586
721 2 2.2208 2.40305 34.819 2.45515
722 1 -1.1104 3.88674 30.6511 3.79845
723 1 -1.1104 3.71811 36.2669 3.80658
724 2 2.2208 2.34815 31.9002 5.2466
725 2 2.2208 2.39665 37.6775 5.20555
726 1 -1.1104 3.80685 33.4414 1.05474
727 1 -1.1104 3.80973 33.2573 3.77443
859 1 -1.1104 0.966295 33.5549 6.53363
730 1 -1.1104 6.62111 30.5724 0.885239
718 1 -1.1104 6.62776 33.4032 3.82459
732 1 -1.1104 6.66598 33.6239 0.997538
731 1 -1.1104 6.64846 30.6342 3.59607
863 1 -1.1104 3.72266 33.4668 6.54693
861 1 -1.1104 3.67121 30.5863 6.56115
713 1 -1.1104 6.53754 36.1415 4.02443
860 1 -1.1104 6.59186 33.5674 6.66358
858 1 -1.1104 6.69639 36.2856 6.72791
856 1 -1.1104 1.07259 36.2797 6.47701
710 1 -1.1104 6.85065 36.3573 1.27132
857 1 -1.1104 6.54605 30.6422 6.6395
733 2 2.2208 10.7721 34.9937 5.26583
734 1 -1.1104 12.1853 30.5477 0.923142
735 1 -1.1104 12.3863 36.3607 0.895548
736 1 -1.1104 12.2033 30.6589 3.68522
737 1 -1.1104 12.2927 36.2222 3.75268
738 1 -1.1104 12.289 33.5806 0.976119
739 2 2.2208 10.8088 32.0678 2.2889
740 2 2.2208 10.8937 37.6849 2.39832
741 1 -1.1104 12.026 33.414 3.8011
742 1 -1.1104 9.51053 30.6386 0.888187
743 1 -1.1104 9.52948 36.2664 0.868747
744 2 2.2208 8.15574 34.7671 2.37349
745 1 -1.1104 9.36772 30.5063 3.7185
746 1 -1.1104 9.38881 36.1965 3.8257
747 2 2.2208 7.92792 32.0662 5.20985
748 2 2.2208 8.00434 37.5882 5.25609
749 1 -1.1104 9.41888 33.4582 0.900877
750 1 -1.1104 9.29942 33.416 3.78829
893 1 -1.1104 9.59118 36.4262 6.69248
889 1 -1.1104 12.2744 30.6776 6.68259
892 1 -1.1104 9.39938 30.5191 6.42183
1145 2 2.2208 13.5939 40.2211 13.5787
1540 1 -1.1104 0.820636 47.2873 12.7336
894 1 -1.1104 9.28924 33.5298 6.66515
891 1 -1.1104 12.2216 33.5054 6.63602
797 1 -1.1104 12.1973 41.8038 12.2083
890 1 -1.1104 12.305 36.3494 6.54276
955 1 -1.1104 9.37279 42.2235 12.299
752 2 2.2208 5.13591 40.4595 5.29978
753 2 2.2208 5.22444 46.1257 5.27755
754 1 -1.1104 0.997687 41.8793 1.03056
756 1 -1.1104 0.966465 41.9643 4.03482