ITEM: TIMESTEP
60000
ITEM: NUMBER OF ATOMS
17730
ITEM: BOX BOUNDS pp pp pp
-3.6330066382605780e-01 2.7703300663826475e+01
-4.4418018739216159e+00 3.3252180187391849e+02
-3.6424157742038094e-01 2.7704241577420206e+01
ITEM: ATOMS id type q x y z
1 2 2.2208 5.37265 1.10185 5.26944
2 1 -1.1104 1.16919 -3.17974 1.13552
3 1 -1.1104 1.27312 2.43958 0.976586
6 1 -1.1104 1.15234 -3.15304 3.84231
7 1 -1.1104 1.36028 2.93211 3.75504
10 1 -1.1104 1.26067 -0.33652 0.950791
12 2 2.2208 5.38846 -1.71973 2.4953
13 2 2.2208 5.57256 3.9993 2.77241
14 1 -1.1104 1.21819 -0.305987 3.85416
16 1 -1.1104 3.94748 -3.088 1.1049
17 1 -1.1104 3.92091 2.85856 1.21867
18 2 2.2208 2.68153 1.16825 2.44068
19 1 -1.1104 3.86378 -3.05244 3.8859
20 1 -1.1104 4.04501 2.46407 3.98463
21 2 2.2208 2.56032 -1.70569 5.27079
22 2 2.2208 2.83151 3.90877 5.48078
23 1 -1.1104 4.08386 -0.319551 1.08662
24 1 -1.1104 3.88332 -0.220988 4.04413
320 2 2.2208 -0.091387 -1.66658 2.42861
9197 2 2.2208 -0.125824 1.13686 5.39649
155 1 -1.1104 1.26585 2.42334 6.71589
154 1 -1.1104 1.16967 -2.96201 6.64663
164 2 2.2208 13.6296 15.2785 5.29007
17360 2 2.2208 -0.23449 -4.5912 10.9497
324 2 2.2208 13.7787 6.81538 2.53374
301 2 2.2208 8.12357 -4.46522 2.4829
158 1 -1.1104 1.10331 -0.285273 6.72679
162 1 -1.1104 3.90377 -0.325231 6.78561
9201 2 2.2208 -0.194229 -4.44424 5.32128
311 2 2.2208 11.0262 -4.52093 5.28849
8 1 -1.1104 6.75281 -3.11213 3.87503
4 1 -1.1104 6.67725 -3.1774 1.12973
15 1 -1.1104 6.79358 -0.24923 3.80558
5 1 -1.1104 6.82902 2.53182 1.18085
11 1 -1.1104 6.91745 -0.376226 1.14991
9 1 -1.1104 6.86066 2.63075 3.93671
31 2 2.2208 10.9223 1.09895 5.36583
32 1 -1.1104 12.2853 -3.01261 1.26891
33 1 -1.1104 12.5345 2.55172 1.24888
34 1 -1.1104 12.3319 -2.99707 3.98034
35 1 -1.1104 12.4669 2.49611 3.83732
36 1 -1.1104 12.5395 -0.231678 1.10387
37 2 2.2208 11.0424 -1.60663 2.5589
38 2 2.2208 11.0228 3.9279 2.42866
39 1 -1.1104 12.256 -0.207073 3.97173
40 1 -1.1104 9.50141 -3.2014 0.976247
41 1 -1.1104 9.69358 2.56635 1.13758
42 2 2.2208 8.19561 1.21307 2.55315
43 1 -1.1104 9.49336 -3.01296 3.90011
44 1 -1.1104 9.56435 2.70714 4.00391
45 2 2.2208 8.16047 -1.63018 5.27967
46 2 2.2208 8.3362 3.9632 5.39509
47 1 -1.1104 9.6958 -0.274785 1.09664
48 1 -1.1104 9.54325 -0.35107 3.85372
193 1 -1.1104 12.3976 -3.08719 6.81553
196 1 -1.1104 9.60317 -2.98915 6.66057
156 1 -1.1104 6.88163 -3.10265 6.63419
197 1 -1.1104 9.52353 2.52661 6.78608
8522 2 2.2208 11.0343 -4.50155 10.8944
54 2 2.2208 5.41576 6.69949 5.34095
55 2 2.2208 5.47837 12.4852 5.36292
56 1 -1.1104 0.818007 8.47888 0.923504
59 1 -1.1104 0.770189 11.0762 1.16944
64 2 2.2208 5.24144 9.57749 2.51477
65 1 -1.1104 1.16223 10.4383 3.90262
68 1 -1.1104 4.04724 8.29548 0.79277
69 2 2.2208 2.33154 12.1276 2.5967
70 1 -1.1104 4.00995 8.37246 4.09913
71 2 2.2208 2.68492 9.60268 5.43902
72 1 -1.1104 3.80768 11.0143 1.12113
74 1 -1.1104 4.07903 5.11204 4.07648
75 1 -1.1104 3.93733 11.0994 3.97744
8974 1 -1.1104 0.412272 4.97872 0.456988
61 1 -1.1104 6.59407 5.40749 1.12793
307 2 2.2208 5.14372 3.97994 13.7187
224 1 -1.1104 1.42982 5.24022 6.67337
58 1 -1.1104 6.85215 8.11172 3.96967
560 2 2.2208 2.50573 15.3299 -0.497966
60 1 -1.1104 1.06752 11.0493 6.74467
62 1 -1.1104 6.58652 10.9312 1.03535
67 1 -1.1104 6.7096 10.9978 3.86434
66 1 -1.1104 6.82309 5.45066 3.91991
57 1 -1.1104 6.78072 8.02685 1.19125
78 2 2.2208 10.9372 6.92662 5.33007
79 2 2.2208 11.0022 12.3863 5.14556
80 1 -1.1104 12.3637 8.21021 1.14291
81 1 -1.1104 12.3928 8.37468 3.92757
82 1 -1.1104 12.1348 5.46206 1.12095
83 1 -1.1104 12.3647 11.1498 1.0841
85 2 2.2208 11.0537 9.66925 2.50865
86 1 -1.1104 12.3398 5.40263 3.88422
87 1 -1.1104 12.3999 11.1333 3.86372
88 1 -1.1104 9.46746 8.12113 1.13956
89 2 2.2208 8.24426 6.86927 2.5679
90 2 2.2208 8.06705 12.549 2.48155
91 1 -1.1104 9.76776 8.41333 3.9116
92 2 2.2208 8.09199 9.76685 5.29068
93 1 -1.1104 9.37246 5.38783 1.15215
94 1 -1.1104 9.58491 10.9059 1.1853
96 1 -1.1104 9.71208 5.52942 4.00316
97 1 -1.1104 9.57435 11.0666 3.71127
253 1 -1.1104 12.3667 8.32024 6.68774
225 1 -1.1104 7.0192 5.13416 6.8356
220 1 -1.1104 9.43823 19.4461 9.3293
257 1 -1.1104 9.73395 5.45558 6.88219
125 2 2.2208 5.15236 18.0145 -0.366348
100 1 -1.1104 1.54083 13.8728 1.09599
102 1 -1.1104 1.0167 19.492 0.903404
106 1 -1.1104 1.02238 13.4998 3.89635
107 1 -1.1104 1.04318 19.3743 3.7722
109 1 -1.1104 0.914316 16.7637 0.836162
112 2 2.2208 5.31728 20.8531 2.43456
113 1 -1.1104 1.41562 16.5388 3.77889
114 1 -1.1104 3.77697 13.6381 3.84903
115 1 -1.1104 3.83228 19.4355 0.843945
117 2 2.2208 2.43166 18.2168 2.31107
118 1 -1.1104 3.84697 19.5693 3.67272
119 2 2.2208 2.5157 14.9999 5.14893
120 2 2.2208 2.68168 20.9049 5.27092
121 1 -1.1104 3.67294 16.7992 0.935611
323 2 2.2208 -0.181255 15.3266 2.32084
9234 2 2.2208 -0.263055 20.9431 2.60956
9228 2 2.2208 -0.196142 17.968 5.21974
290 1 -1.1104 0.915651 19.3439 6.66003
122 1 -1.1104 4.21061 14.3095 6.59846
126 1 -1.1104 6.51323 19.463 0.924378
103 1 -1.1104 6.81782 13.6791 0.95224
108 1 -1.1104 7.06845 13.9547 4.14169
128 1 -1.1104 6.68879 16.6432 0.992083
127 1 -1.1104 6.95547 19.5918 3.5491
129 2 2.2208 10.9551 18.1007 5.29021
130 1 -1.1104 12.2209 14.0412 1.10555
132 1 -1.1104 12.2133 19.5221 0.932857
134 1 -1.1104 12.3377 14.0189 3.91546
135 1 -1.1104 12.2866 19.4686 3.72398
136 1 -1.1104 12.4143 16.7345 1.14226
138 2 2.2208 10.7479 15.3848 2.52177
139 2 2.2208 10.9818 20.8799 2.49403
140 1 -1.1104 12.2199 16.8121 4.10692
141 1 -1.1104 9.47089 13.8156 1.11255
143 1 -1.1104 9.41998 19.3112 0.91109
145 2 2.2208 8.06969 18.1693 2.29482
146 1 -1.1104 9.62828 13.9018 3.96351
147 1 -1.1104 9.51609 19.3952 3.90111
148 2 2.2208 8.22775 15.3399 5.45338
149 2 2.2208 8.02665 20.8249 5.3017
150 1 -1.1104 9.47074 16.5673 1.04844
152 1 -1.1104 9.28251 16.7525 4.01495
318 2 2.2208 8.04722 15.2588 -0.276201
131 1 -1.1104 12.4421 13.6821 6.78458
137 1 -1.1104 12.3638 16.6349 6.78978
144 1 -1.1104 9.50596 19.3543 6.68943
133 1 -1.1104 12.381 19.6423 6.81562
142 1 -1.1104 9.7841 13.6405 6.95946
8930 2 2.2208 -0.151351 -1.57549 8.14886
9199 2 2.2208 13.7668 -1.6224 5.34055
190 1 -1.1104 9.62325 13.6791 12.5255
123 2 2.2208 10.8417 20.8197 7.95377
322 2 2.2208 -0.192112 3.9434 7.9772
8929 2 2.2208 -0.270205 1.15736 10.8416
160 1 -1.1104 4.1016 -3.08427 6.71788
161 1 -1.1104 3.96352 2.46452 6.87517
166 2 2.2208 5.34082 1.17101 11.0595
167 1 -1.1104 1.16067 -3.08582 12.2132
168 1 -1.1104 0.909604 2.41558 12.2789
171 1 -1.1104 1.32579 -3.0227 9.41195
172 1 -1.1104 1.0787 2.52955 9.35804
175 1 -1.1104 1.19395 -0.312093 12.3404
177 2 2.2208 5.42091 -1.69934 8.00232
178 2 2.2208 5.46509 3.80092 8.17634
179 1 -1.1104 1.2376 -0.221246 9.63145
181 1 -1.1104 4.17352 -3.08327 12.2932
182 1 -1.1104 3.77868 2.45769 12.1901
183 2 2.2208 2.61121 0.990678 8.17389
184 1 -1.1104 4.12152 -3.13224 9.43325
185 1 -1.1104 4.01446 2.47802 9.41695
186 2 2.2208 2.5923 -1.80691 10.9093
187 2 2.2208 2.54282 3.92223 10.8077
188 1 -1.1104 4.00358 -0.336402 12.2321
189 1 -1.1104 4.16008 -0.261706 9.52487
9204 2 2.2208 -0.169185 3.98027 13.6627
306 2 2.2208 2.49898 1.01909 13.7092
28 2 2.2208 2.3868 9.51909 -0.339548
194 1 -1.1104 12.4066 2.52429 6.78512
8523 2 2.2208 8.15535 -4.45767 7.99038
654 2 2.2208 10.8418 3.92633 13.7159
198 1 -1.1104 9.65237 -0.286983 6.71195
195 1 -1.1104 12.4894 -0.155801 6.78955
157 1 -1.1104 6.8365 2.45286 6.59686
170 1 -1.1104 6.55362 2.74952 12.3155
159 1 -1.1104 6.73437 -0.402221 6.53287
176 1 -1.1104 6.82856 -0.147547 12.3001
174 1 -1.1104 6.72014 2.45364 9.60556
169 1 -1.1104 6.83565 -3.02425 12.4363
180 1 -1.1104 6.96338 -0.433065 9.5454
173 1 -1.1104 6.86815 -3.00414 9.43946
201 2 2.2208 10.9384 1.19735 10.9615
202 1 -1.1104 12.5026 -3.01442 12.4958
203 1 -1.1104 12.1784 2.48505 12.4419
204 1 -1.1104 12.526 -3.07598 9.55403
205 1 -1.1104 12.2898 2.48429 9.49124
206 1 -1.1104 12.3452 -0.229925 12.4195
207 2 2.2208 11.0662 -1.65705 8.17919
208 2 2.2208 10.9798 4.08677 8.18081
209 1 -1.1104 12.4049 -0.183452 9.54459
210 1 -1.1104 9.69493 -2.96653 12.4346
211 1 -1.1104 9.48354 2.58043 12.3538
212 2 2.2208 8.15107 1.05754 8.25618
213 1 -1.1104 9.65079 -3.17329 9.56532
214 1 -1.1104 9.61965 2.4644 9.50766
215 2 2.2208 8.23213 -1.69805 11.0781
217 1 -1.1104 9.58254 -0.340263 12.4054
218 1 -1.1104 9.6559 -0.198761 9.51412
216 2 2.2208 8.17603 3.93912 10.8992
9198 2 2.2208 -0.230792 3.63176 2.27749
310 2 2.2208 11.0176 -1.64486 13.8301
222 1 -1.1104 1.35135 8.23023 6.80521
227 1 -1.1104 4.23882 5.35628 6.81676
9131 2 2.2208 -0.395657 9.66168 8.09994
73 1 -1.1104 3.90113 11.2295 6.80175
9132 2 2.2208 -0.133202 6.83996 10.9444
226 1 -1.1104 4.0707 8.23538 6.73786
228 2 2.2208 5.39725 6.67545 10.94
229 2 2.2208 5.32637 12.3481 10.9736
230 1 -1.1104 1.21229 8.22622 12.372
232 1 -1.1104 1.20126 8.19401 9.65973
234 1 -1.1104 1.15111 5.27626 12.3003
235 1 -1.1104 0.957198 11.1316 12.2841
238 2 2.2208 5.47291 9.41981 8.19025
239 1 -1.1104 1.26214 5.40754 9.51352
240 1 -1.1104 1.04222 10.9485 9.4988
243 1 -1.1104 3.97152 8.22315 12.2539
244 2 2.2208 2.64756 6.80927 8.17359
245 2 2.2208 2.43546 12.3854 8.2668
246 1 -1.1104 4.02159 8.05786 9.5021
247 2 2.2208 2.57007 9.60507 10.8389
248 1 -1.1104 3.89711 5.34699 12.3229
249 1 -1.1104 3.75719 10.9647 12.3789
250 1 -1.1104 3.98422 5.10115 9.58042
251 1 -1.1104 3.85598 10.8942 9.42969
27 2 2.2208 -0.475371 12.3163 10.8926
236 1 -1.1104 6.78898 5.47587 12.4835
219 1 -1.1104 9.73621 16.5787 12.1864
95 1 -1.1104 9.5265 11.0214 6.61937
84 1 -1.1104 12.2903 11.0107 6.72186
163 1 -1.1104 12.3677 16.616 9.56337
63 1 -1.1104 6.69868 10.8426 6.67251
254 1 -1.1104 12.4258 5.31515 6.85823
223 1 -1.1104 6.78301 8.04157 6.91415
255 1 -1.1104 9.39888 8.26749 6.76121
237 1 -1.1104 6.65312 11.0214 12.3718
242 1 -1.1104 6.89046 10.9154 9.54592
241 1 -1.1104 6.83433 5.29012 9.65114
233 1 -1.1104 6.74128 8.15086 9.71679
231 1 -1.1104 6.75277 8.28248 12.3602
252 1 -1.1104 9.66792 11.1023 9.56163
256 1 -1.1104 9.50049 5.34346 9.73271
258 1 -1.1104 9.54246 10.9489 12.2823
259 1 -1.1104 9.60806 5.36008 12.3728
260 2 2.2208 8.17173 9.59246 10.9263
261 1 -1.1104 9.59859 8.30407 9.57628
262 2 2.2208 8.24086 12.4194 8.25929
263 2 2.2208 8.25274 6.72844 8.13648
264 2 2.2208 10.9889 6.75424 10.9271
265 2 2.2208 10.9959 12.3023 10.9574
266 1 -1.1104 12.3962 8.1325 12.3651
267 1 -1.1104 12.3496 8.11976 9.46498
268 1 -1.1104 12.4631 5.3637 12.4427
269 1 -1.1104 12.4467 11.0473 12.2796
270 2 2.2208 10.9979 9.74306 8.09344
271 1 -1.1104 12.2062 5.30443 9.65704
272 1 -1.1104 12.5102 10.9844 9.48039
273 1 -1.1104 9.74416 8.11589 12.2975
77 1 -1.1104 12.3744 16.5992 12.4299
313 2 2.2208 8.19717 6.85026 13.7266
101 1 -1.1104 1.36164 13.7161 6.67081
110 1 -1.1104 1.41442 16.5955 6.71112
300 2 2.2208 -0.363568 18.0211 10.8426
299 2 2.2208 -0.330817 20.8379 7.83686
116 1 -1.1104 3.7455 19.4742 6.73659
274 1 -1.1104 3.96105 19.2437 12.358
275 1 -1.1104 3.81706 13.8054 12.1597
279 1 -1.1104 0.95155 19.4596 9.3275
280 1 -1.1104 1.12958 16.4393 9.45599
281 2 2.2208 5.12041 20.7925 8.04801
282 1 -1.1104 0.978388 13.639 9.51183
283 2 2.2208 5.47675 15.0806 8.25924
286 1 -1.1104 1.15812 19.2607 12.1513
287 1 -1.1104 1.0728 13.8318 12.2438
288 2 2.2208 5.37135 17.9011 11.029
289 1 -1.1104 3.91456 19.3636 9.63186
291 2 2.2208 2.41107 18.0881 8.13742
292 1 -1.1104 3.84652 16.5711 9.04772
293 1 -1.1104 3.8887 13.8154 9.44564
295 1 -1.1104 1.18898 16.5821 12.1891
296 1 -1.1104 4.00754 16.4608 12.1736
297 2 2.2208 2.45112 20.7128 10.795
298 2 2.2208 2.40667 15.0947 10.7695
8902 2 2.2208 -0.204624 15.1149 8.08434
105 1 -1.1104 6.64207 19.6909 6.87214
192 2 2.2208 7.8951 18.0424 8.13485
104 1 -1.1104 7.05926 13.7839 6.83028
151 1 -1.1104 9.67136 16.56 6.82533
221 2 2.2208 8.22571 15.2596 10.9184
191 1 -1.1104 9.53396 19.4246 12.214
111 1 -1.1104 6.69955 16.3894 6.73597
76 1 -1.1104 12.2373 19.2403 9.47086
302 1 -1.1104 9.35939 16.6528 9.46867
277 1 -1.1104 6.63344 16.4252 9.727
200 2 2.2208 8.06279 20.8162 10.7991
53 1 -1.1104 12.336 13.8843 9.63993
278 1 -1.1104 6.78369 13.675 9.59874
294 1 -1.1104 6.84603 16.6419 12.4426
276 1 -1.1104 6.71594 19.4814 9.57305
284 1 -1.1104 6.61241 19.3417 12.3523
29 2 2.2208 10.9503 18.0513 10.8525
30 1 -1.1104 12.5275 13.8104 12.4444
99 2 2.2208 11.0086 15.2704 8.31701
285 1 -1.1104 6.6918 13.8514 12.3757
49 1 -1.1104 12.4362 19.5308 12.3729
199 1 -1.1104 9.71936 13.917 9.81508
309 2 2.2208 8.23789 1.20828 13.7549
304 2 2.2208 -0.307059 15.0916 13.6908
9216 2 2.2208 -0.218821 9.45144 13.6926
308 2 2.2208 -0.321332 20.7124 13.6805
643 2 2.2208 8.13699 9.5081 -0.179484
9304 2 2.2208 -0.323299 6.91897 -0.586283
562 2 2.2208 8.02832 20.8294 -0.491313
330 2 2.2208 2.54595 20.9355 -0.453489
333 2 2.2208 5.26177 1.23817 16.4755
334 1 -1.1104 1.10622 -3.01217 17.9749
335 1 -1.1104 1.08386 2.37452 17.9053
338 1 -1.1104 1.24635 -3.08468 14.998
340 1 -1.1104 1.09749 2.51454 15.051
346 1 -1.1104 1.12197 -0.292528 17.9009
348 2 2.2208 5.44247 -1.63071 19.2043
349 2 2.2208 5.6778 3.9065 19.4172
350 1 -1.1104 1.30957 -0.398947 15.1856
354 1 -1.1104 3.96076 -3.08711 17.8933
355 1 -1.1104 3.82035 2.88545 17.7727
356 2 2.2208 2.56631 1.26674 19.2438
357 1 -1.1104 4.00508 -3.07949 15.0389
359 1 -1.1104 3.87977 2.5941 15.0866
361 2 2.2208 2.62273 -1.72678 16.5004
362 2 2.2208 2.44313 3.99938 16.3858
363 1 -1.1104 3.80689 -0.142972 17.8088
364 1 -1.1104 4.03864 -0.350178 15.1017
370 2 2.2208 -0.23085 -1.59728 19.2946
407 2 2.2208 8.10321 18.0584 25.0477
17439 2 2.2208 -0.155855 -4.51298 16.4881
341 1 -1.1104 1.37203 2.66748 20.6247
9478 2 2.2208 -0.242903 1.07482 16.3833
553 2 2.2208 -0.313221 21.0301 24.6787
587 1 -1.1104 6.79037 13.8485 23.5103
339 1 -1.1104 1.19812 -3.00096 20.7658
8563 2 2.2208 8.13187 -4.58922 24.9392
9268 2 2.2208 -0.219633 12.4659 22.0869
336 1 -1.1104 6.68534 -3.14131 17.9498
507 1 -1.1104 12.3222 13.7106 20.8582
344 1 -1.1104 6.79806 2.812 15.1167
342 1 -1.1104 6.86262 -2.89089 15.1119
347 1 -1.1104 6.67419 -0.233067 17.8365
337 1 -1.1104 6.79055 2.41198 18.1946
352 1 -1.1104 6.66361 -0.0282517 15.0062
376 2 2.2208 11.012 1.11227 16.5586
377 1 -1.1104 12.3573 -3.10857 17.9858
378 1 -1.1104 12.1956 2.43141 18.0477
379 1 -1.1104 12.28 -3.12949 15.209
381 1 -1.1104 12.2864 2.50288 15.1035
383 1 -1.1104 12.3892 -0.194495 17.8859
384 2 2.2208 10.9562 -1.69847 19.3092
385 2 2.2208 11.0051 3.95263 19.4299
386 1 -1.1104 12.3147 -0.391209 15.2507
388 1 -1.1104 9.52387 -3.02893 18.0406
389 1 -1.1104 9.55092 2.56012 18.0176
390 2 2.2208 8.17241 0.986948 19.4368
391 1 -1.1104 9.59238 -3.15719 15.2359
393 1 -1.1104 9.55091 2.60746 15.1887
395 2 2.2208 8.14322 -1.58668 16.605
396 2 2.2208 8.3021 3.88888 16.6357
397 1 -1.1104 9.55136 -0.47734 17.9067
398 1 -1.1104 9.56749 -0.235939 15.0048
380 1 -1.1104 12.4927 -3.01734 20.7951
392 1 -1.1104 9.55049 -3.1236 20.899
387 1 -1.1104 12.2568 -0.293376 20.6683
353 1 -1.1104 6.73625 -0.388827 20.8833
394 1 -1.1104 9.67379 2.47977 20.8739
399 1 -1.1104 9.53328 -0.427357 20.6964
8628 2 2.2208 10.9962 -4.44662 16.4743
409 2 2.2208 5.47558 12.3336 16.5097
410 1 -1.1104 1.10661 8.24032 15.1823
412 1 -1.1104 1.18876 5.40159 15.1226
416 1 -1.1104 0.994596 11.2054 17.951
419 2 2.2208 5.56428 9.48594 19.4712
420 1 -1.1104 3.91928 5.26882 14.9957
421 1 -1.1104 1.19758 10.9266 15.1038
426 1 -1.1104 1.09703 8.3699 17.7699
427 2 2.2208 2.64231 12.1521 19.2789
428 1 -1.1104 3.68671 8.20351 15.0136
430 2 2.2208 2.38579 9.63094 16.4311
431 1 -1.1104 1.18008 5.16225 18.0316
432 1 -1.1104 3.89099 10.5759 17.9209
435 1 -1.1104 3.94055 11.094 15.0475
9382 2 2.2208 -0.195225 6.8316 16.6525
559 2 2.2208 -0.300418 9.56157 19.1853
9452 2 2.2208 -0.373214 3.85724 24.8426
411 1 -1.1104 6.7862 8.22138 18.0906
424 1 -1.1104 6.86014 10.9373 15.0642
418 1 -1.1104 6.82218 11.0464 17.897
422 1 -1.1104 1.0322 11.2047 20.7077
9542 2 2.2208 13.6882 3.91614 22.3162
437 2 2.2208 5.3223 9.4589 13.7893
8603 2 2.2208 5.43724 -4.51917 22.0978
374 2 2.2208 10.9691 20.8184 24.8678
417 1 -1.1104 6.87458 5.15063 17.8108
414 1 -1.1104 6.84803 8.11276 15.084
441 2 2.2208 10.9907 6.79927 16.5628
442 2 2.2208 10.9335 12.4083 16.5447
443 1 -1.1104 12.4005 8.13974 18.0197
444 1 -1.1104 12.3498 8.11687 15.2223
446 1 -1.1104 12.4889 5.34587 17.9615
447 1 -1.1104 12.344 10.9515 17.9453
448 2 2.2208 11.0489 9.58489 19.3185
449 1 -1.1104 12.0399 5.11735 15.37
451 1 -1.1104 12.3682 10.9938 15.1444
453 1 -1.1104 9.66752 8.19152 17.7901
454 2 2.2208 8.01195 6.68848 19.1172
455 2 2.2208 8.28474 12.2561 19.2394
456 1 -1.1104 9.69479 8.21216 15.0252
458 2 2.2208 8.13767 9.4357 16.5393
459 1 -1.1104 9.56492 5.28785 17.988
460 1 -1.1104 9.67122 10.9276 17.847
461 1 -1.1104 9.21306 5.45164 15.1711
463 1 -1.1104 9.69888 10.9465 15.0722
452 1 -1.1104 12.4335 10.973 20.7117
439 2 2.2208 8.11894 12.3755 13.6985
457 1 -1.1104 9.72802 8.23886 20.6776
445 1 -1.1104 12.4469 8.1827 20.8196
464 1 -1.1104 9.75754 10.975 20.6953
450 1 -1.1104 12.4389 5.1997 21.0358
314 2 2.2208 5.40674 15.2025 13.7494
498 2 2.2208 8.20619 20.8746 22.0326
9544 2 2.2208 -0.325261 9.75699 24.8908
400 2 2.2208 -0.273541 18.1153 16.5145
467 2 2.2208 5.42613 18.0306 16.5488
468 1 -1.1104 1.16038 13.8888 17.9218
472 1 -1.1104 1.1211 13.8597 15.1441
474 1 -1.1104 0.992138 19.362 14.9193
479 1 -1.1104 1.09891 16.7195 18.1745
481 2 2.2208 5.3187 15.183 19.2063
482 2 2.2208 5.23824 20.8258 19.3481
483 1 -1.1104 1.09237 16.6287 15.3672
486 1 -1.1104 4.09688 13.5614 17.9895
487 1 -1.1104 3.94604 19.3381 17.9009
488 2 2.2208 2.61756 18.1063 19.1
489 1 -1.1104 4.09599 13.9895 15.2131
491 1 -1.1104 3.83704 19.3844 15.0863
493 2 2.2208 2.52401 15.2413 16.5365
494 2 2.2208 2.48594 20.7117 16.4328
495 1 -1.1104 3.95618 16.428 17.9579
496 1 -1.1104 3.94774 16.6419 15.0408
996 1 -1.1104 1.15448 19.4862 17.7908
492 1 -1.1104 4.04735 19.1535 20.5869
497 1 -1.1104 3.43359 16.5502 20.5905
473 1 -1.1104 1.12789 14.032 20.749
372 2 2.2208 13.6896 3.84867 16.4921
315 2 2.2208 2.63457 17.9491 13.6169
312 2 2.2208 2.63823 6.80284 13.7184
480 1 -1.1104 6.65542 16.5097 17.8238
470 1 -1.1104 6.84124 13.7342 17.9467
475 1 -1.1104 6.91463 13.9349 15.0845
484 1 -1.1104 6.84162 16.7213 15.0733
477 1 -1.1104 6.65289 19.4536 15.0503
471 1 -1.1104 6.75634 19.4253 18.0243
503 2 2.2208 11.0481 18.0532 16.483
504 1 -1.1104 12.2395 13.7698 18.0021
505 1 -1.1104 12.3906 19.3142 17.8731
506 1 -1.1104 12.3886 13.7588 15.1969
508 1 -1.1104 12.3842 19.4701 15.1842
510 1 -1.1104 12.4192 16.5576 17.9626
511 2 2.2208 10.9262 15.1535 19.293
512 2 2.2208 11.0186 20.8731 19.1844
513 1 -1.1104 12.3688 16.5776 15.1441
515 1 -1.1104 9.45148 13.8931 17.9987
516 1 -1.1104 9.52049 19.4327 17.8153
517 2 2.2208 8.17912 18.0924 19.3101
518 1 -1.1104 9.57063 13.6569 15.2644
520 1 -1.1104 9.68183 19.4847 15.0487
522 2 2.2208 8.18745 15.1747 16.5284
523 2 2.2208 8.10841 20.8183 16.5113
524 1 -1.1104 9.51882 16.7319 17.8413
525 1 -1.1104 9.68292 16.5171 15.0516
519 1 -1.1104 9.58095 13.7002 20.7546
476 1 -1.1104 6.72154 13.6623 20.818
509 1 -1.1104 12.5006 19.6739 20.6586
502 2 2.2208 11.1085 15.1899 13.6676
365 1 -1.1104 3.92345 -0.325594 20.7044
358 1 -1.1104 3.9947 -3.08701 20.636
124 2 2.2208 8.21858 -4.48957 13.7264
556 2 2.2208 2.28141 3.86505 27.6016
329 2 2.2208 5.33754 1.11291 27.7677
360 1 -1.1104 4.00598 2.38719 20.6655
351 1 -1.1104 1.17499 -0.303228 20.8256
528 2 2.2208 5.30471 0.99774 22.1927
529 1 -1.1104 1.14892 -3.0824 23.6795
530 1 -1.1104 1.19399 2.69133 23.4236
533 1 -1.1104 1.04195 -3.08357 26.4802
534 1 -1.1104 1.01791 2.41324 26.2001
537 1 -1.1104 1.13439 -0.282238 23.6839
539 2 2.2208 5.31052 -1.80185 24.9658
540 2 2.2208 5.38904 3.85316 25.0724
541 1 -1.1104 1.09682 -0.360274 26.3467
543 1 -1.1104 3.87918 -3.21041 23.524
544 1 -1.1104 3.83827 2.3942 23.6948
545 2 2.2208 2.45378 1.06005 25.0195
546 1 -1.1104 3.98897 -3.23916 26.256
547 1 -1.1104 4.05893 2.53477 26.4448
548 2 2.2208 2.64637 -1.72044 22.072
549 2 2.2208 2.92474 3.74787 22.1159
550 1 -1.1104 3.89143 -0.477686 23.5282
551 1 -1.1104 3.84528 -0.552434 26.2379
368 2 2.2208 -0.0730056 1.14068 22.2417
532 1 -1.1104 6.77476 2.4601 23.6776
538 1 -1.1104 6.81922 -0.363616 23.6178
536 1 -1.1104 6.90098 2.54042 26.5529
531 1 -1.1104 6.75194 -3.18893 23.5639
345 1 -1.1104 6.89349 2.32418 20.819
382 1 -1.1104 12.3365 2.45818 20.8617
649 1 -1.1104 6.74548 13.7098 26.3043
343 1 -1.1104 6.79358 -3.10786 20.7814
542 1 -1.1104 6.68305 -0.16331 26.3366
535 1 -1.1104 6.78501 -2.90915 26.3654
564 2 2.2208 10.9005 0.973145 22.2415
565 1 -1.1104 12.4993 -2.88185 23.7254
566 1 -1.1104 12.289 2.55275 23.7244
567 1 -1.1104 12.2929 -3.09853 26.5155
568 1 -1.1104 12.3091 2.61047 26.4493
569 1 -1.1104 12.394 -0.177252 23.5575
570 2 2.2208 11.0758 -1.57722 25.0303
571 2 2.2208 10.8963 3.96768 25.1432
572 1 -1.1104 12.6052 -0.282014 26.3972
573 1 -1.1104 9.54349 -3.18818 23.6601
574 1 -1.1104 9.46005 2.57346 23.6652
575 2 2.2208 8.23097 1.0285 25.0081
576 1 -1.1104 9.5897 -3.12861 26.1478
577 1 -1.1104 9.59384 2.46512 26.4066
578 2 2.2208 8.1754 -1.73346 22.2202
579 2 2.2208 8.28453 3.87661 22.092
580 1 -1.1104 9.60083 -0.353522 23.5053
581 1 -1.1104 9.66803 -0.304741 26.4848
401 1 -1.1104 9.51175 13.8635 23.6626
652 2 2.2208 11.0644 1.12331 27.764
466 2 2.2208 8.10064 15.1667 22.0509
647 2 2.2208 13.7288 6.79383 25.035
622 1 -1.1104 12.3742 19.2446 23.413
429 1 -1.1104 4.19153 8.19531 20.7105
619 2 2.2208 5.36083 12.2138 27.6281
413 1 -1.1104 1.09127 8.42019 20.7988
436 1 -1.1104 4.03426 10.9229 20.6917
617 2 2.2208 5.3894 6.86903 27.746
434 1 -1.1104 4.31672 5.10669 20.7796
615 1 -1.1104 3.63802 5.43071 26.9092
593 2 2.2208 5.31996 6.65306 22.0894
594 2 2.2208 5.45877 12.2932 22.2942
595 1 -1.1104 1.16409 8.36357 23.4934
597 1 -1.1104 1.04889 8.20245 26.3587
599 1 -1.1104 1.58804 5.80397 22.7552
600 1 -1.1104 1.18105 11.0314 23.5719
603 2 2.2208 5.29194 9.42251 24.9715
604 1 -1.1104 1.13631 5.35611 25.7687
605 1 -1.1104 1.14833 11.1181 26.3958
608 1 -1.1104 3.91454 8.20509 23.4639
609 2 2.2208 2.48034 6.83713 24.7121
610 2 2.2208 2.69245 12.3981 25.1234
611 1 -1.1104 3.96442 7.91968 26.1852
612 2 2.2208 2.64534 9.62555 22.028
613 1 -1.1104 3.97833 5.04397 23.7692
614 1 -1.1104 4.15459 10.9282 23.6043
616 1 -1.1104 3.94096 10.8907 26.3396
592 1 -1.1104 6.68008 16.6587 23.4734
425 1 -1.1104 7.02427 10.8923 20.7265
606 1 -1.1104 6.67089 5.28862 26.4124
602 1 -1.1104 6.81299 10.8719 23.5665
557 1 -1.1104 12.311 19.3453 26.239
621 1 -1.1104 12.3518 13.8109 23.6011
462 1 -1.1104 9.62741 5.35165 20.7054
601 1 -1.1104 6.71508 5.27115 23.5543
423 1 -1.1104 6.9794 5.15065 20.7222
415 1 -1.1104 6.91108 8.0659 20.7226
598 1 -1.1104 6.64158 8.09267 26.4583
596 1 -1.1104 6.74148 8.012 23.5921
607 1 -1.1104 6.68486 10.8547 26.2362
624 1 -1.1104 9.52798 11.0668 26.3279
625 1 -1.1104 9.54913 5.33307 26.3972
626 1 -1.1104 9.67011 11.0694 23.5073
627 1 -1.1104 9.65138 5.25137 23.4864
628 2 2.2208 8.27707 9.51259 22.0454
629 1 -1.1104 9.43257 8.13052 26.3016
630 2 2.2208 8.215 12.3333 24.9752
631 2 2.2208 8.19576 6.62033 24.87
632 2 2.2208 11.0691 6.6549 22.1177
633 2 2.2208 11.0191 12.3666 22.2273
634 1 -1.1104 12.418 8.157 23.5678
635 1 -1.1104 12.2591 8.15342 26.3964
636 1 -1.1104 12.3124 5.31908 23.771
637 1 -1.1104 12.4588 11.1395 23.7239
638 2 2.2208 11.002 9.65569 24.9763
639 1 -1.1104 12.264 5.39309 26.5205
640 1 -1.1104 12.3049 10.9877 26.3352
641 1 -1.1104 9.57751 8.12946 23.5795
642 2 2.2208 10.7486 6.81082 27.7323
332 2 2.2208 10.9101 12.4477 27.8145
644 1 -1.1104 6.72246 16.5945 26.2397
406 1 -1.1104 9.6261 19.3633 23.5874
9262 2 2.2208 -0.306368 15.1931 25.0581
490 1 -1.1104 3.98407 13.6864 20.9171
371 2 2.2208 2.65118 18.0177 24.8234
402 1 -1.1104 3.85016 19.4715 26.1951
404 2 2.2208 5.27432 18.0091 22.1987
552 1 -1.1104 1.17432 13.7717 23.7253
554 1 -1.1104 1.14378 13.7949 26.5091
582 1 -1.1104 1.17386 16.7764 26.2304
583 2 2.2208 2.66924 15.0841 22.2099
584 1 -1.1104 1.11162 19.5237 25.9851
586 1 -1.1104 1.19722 16.479 23.4712
588 2 2.2208 5.46223 15.1975 24.9752
589 1 -1.1104 4.03517 16.3767 23.4843
591 2 2.2208 5.2938 20.8808 24.7248
618 1 -1.1104 3.84997 13.7747 26.7162
646 1 -1.1104 3.83206 16.6308 26.19
648 1 -1.1104 3.83671 19.2652 23.5176
650 1 -1.1104 4.05237 13.6695 23.7685
485 1 -1.1104 6.63548 16.5946 20.5551
500 1 -1.1104 9.62163 16.5983 23.5964
408 1 -1.1104 6.72497 19.4045 26.2707
501 1 -1.1104 9.5027 16.6722 26.3642
521 1 -1.1104 9.74392 19.6249 20.769
555 1 -1.1104 12.2645 16.4598 23.5182
526 1 -1.1104 9.41694 16.5825 20.8259
527 1 -1.1104 6.76 19.4454 23.5759
478 1 -1.1104 6.76829 19.4437 20.8052
514 1 -1.1104 12.2262 16.7875 20.6168
438 1 -1.1104 9.49056 13.8179 26.498
623 1 -1.1104 12.2608 13.7897 26.3484
620 2 2.2208 10.9096 17.9598 22.1313
375 1 -1.1104 12.3828 16.5705 26.3627
373 2 2.2208 10.8642 15.2109 25.0815
465 1 -1.1104 9.60375 19.5053 26.4278
319 2 2.2208 2.59719 -1.7657 27.7294
656 2 2.2208 8.30066 17.9535 13.7019
657 2 2.2208 11.0327 18.0046 27.7366
499 2 2.2208 5.30824 20.8402 13.6655
325 2 2.2208 2.43725 12.3767 13.6588
327 2 2.2208 10.956 20.8175 13.6156
9261 2 2.2208 -0.32372 18.2264 27.5436
305 2 2.2208 5.42634 -1.61934 13.7042
9225 2 2.2208 -0.220998 -1.70137 13.7157
331 2 2.2208 8.09568 3.97181 27.8008
651 2 2.2208 8.20307 -1.70705 27.8848
326 2 2.2208 11.0534 9.59813 13.7821
658 2 2.2208 5.37738 23.7681 5.1358
659 2 2.2208 5.3655 29.3191 5.14343
660 1 -1.1104 1.18088 25.061 1.07731
661 1 -1.1104 1.25663 25.0148 3.87894
662 1 -1.1104 1.03875 22.2727 1.1289
663 1 -1.1104 0.944351 27.9015 1.03758
664 2 2.2208 5.27738 26.4779 2.27609
665 1 -1.1104 1.07107 22.1481 4.11333
666 1 -1.1104 1.0959 27.7901 3.78555
667 1 -1.1104 4.02721 25.0881 0.888346
668 2 2.2208 2.48507 23.6172 2.47466
669 2 2.2208 2.52544 29.2658 2.39764
670 1 -1.1104 3.93523 25.0503 3.71785
671 2 2.2208 2.68208 26.5918 5.19911
672 1 -1.1104 3.82426 22.3244 1.1024
673 1 -1.1104 3.85558 27.9758 1.00602
674 1 -1.1104 3.82 22.4348 3.95918
675 1 -1.1104 3.89389 27.9924 3.77076
676 2 2.2208 -0.5107 29.1589 5.15115
678 2 2.2208 -0.253501 26.3665 2.36621
677 2 2.2208 -0.308615 23.7073 5.26065
1196 2 2.2208 5.23347 29.3745 -0.303989
1194 2 2.2208 2.60126 26.4713 -0.444755
801 1 -1.1104 1.14749 22.1373 6.70507
1580 1 -1.1104 7.28119 47.4526 9.68996
1195 2 2.2208 -0.197639 23.6936 -0.403414
9865 2 2.2208 13.7933 40.4915 8.05148
683 1 -1.1104 6.58717 22.2556 3.82099
684 1 -1.1104 6.54008 27.8291 3.85709
681 1 -1.1104 6.66275 22.2993 0.881636
679 1 -1.1104 6.73274 25.1165 0.881681
680 1 -1.1104 6.74312 24.9888 3.74021
682 1 -1.1104 6.74016 27.8785 0.940333
685 2 2.2208 10.8694 23.605 5.37775
686 2 2.2208 10.8327 29.3156 5.17751
687 1 -1.1104 12.2487 24.959 0.824731
688 1 -1.1104 12.3604 25.0686 3.86627
689 1 -1.1104 12.1993 22.3237 1.07428
690 1 -1.1104 12.1887 27.8842 0.985196
691 2 2.2208 10.7391 26.4015 2.279
692 1 -1.1104 12.2237 22.2533 4.0236
693 1 -1.1104 12.1983 27.7959 3.64059
694 1 -1.1104 9.4911 25.0568 1.00719
695 2 2.2208 8.09212 23.5474 2.29495
696 2 2.2208 8.04907 29.3004 2.40053
697 1 -1.1104 9.5958 24.9848 3.86203
698 2 2.2208 8.17651 26.4506 5.19935
699 1 -1.1104 9.50873 22.2889 1.01811
700 1 -1.1104 9.39398 27.8823 0.896134
701 1 -1.1104 9.50385 22.3206 3.83068
702 1 -1.1104 9.40528 27.9649 3.77214
836 1 -1.1104 9.50493 27.9872 6.74968
835 1 -1.1104 9.39122 22.253 6.57036
1222 2 2.2208 10.8231 23.6141 -0.519802
1228 2 2.2208 10.7562 29.3269 -0.418379
979 2 2.2208 8.21129 35.1107 13.5509
707 2 2.2208 5.24827 35.0181 5.29075
708 1 -1.1104 1.13349 30.8238 1.1998
709 1 -1.1104 1.03577 36.2793 0.983918
711 1 -1.1104 1.09934 30.5134 3.9169
712 1 -1.1104 1.01636 36.1848 3.80336
714 1 -1.1104 0.998483 33.5499 0.972647
715 2 2.2208 5.37047 32.1331 2.45987
716 2 2.2208 5.16128 37.8199 2.33334
717 1 -1.1104 1.17406 33.3499 3.71602
719 1 -1.1104 4.07139 30.6809 0.97895
720 1 -1.1104 3.81448 36.4112 0.903831
721 2 2.2208 2.52143 34.9141 2.35334
722 1 -1.1104 3.99249 30.6878 3.78054
723 1 -1.1104 3.79823 36.2259 3.75988
724 2 2.2208 2.41689 32.0221 5.22074
725 2 2.2208 2.47921 37.6447 5.17442
726 1 -1.1104 3.84451 33.6285 1.1016
727 1 -1.1104 3.95077 33.533 3.84867
728 2 2.2208 -0.355633 32.1686 2.38569
706 2 2.2208 -0.285096 34.837 5.2724
729 2 2.2208 -0.472143 37.5906 2.54471
1253 2 2.2208 2.43065 32.1414 -0.388183
731 1 -1.1104 6.68384 30.7775 3.91756
732 1 -1.1104 6.58726 33.5693 0.837334
858 1 -1.1104 6.7785 36.5465 6.79248
859 1 -1.1104 1.15152 33.3848 6.50482
861 1 -1.1104 3.82367 30.6963 6.60476
10035 2 2.2208 -0.288212 34.9578 -0.407869
9852 2 2.2208 -0.337322 43.4634 8.05598
1145 2 2.2208 13.6388 40.2263 13.5453
713 1 -1.1104 6.59979 36.5416 3.80506
710 1 -1.1104 6.55951 36.4648 0.962298
730 1 -1.1104 6.63621 30.7169 0.949816
718 1 -1.1104 6.79709 33.5659 3.76675
733 2 2.2208 10.8433 35.1177 5.24768
734 1 -1.1104 12.2364 30.7125 1.02398
735 1 -1.1104 12.243 36.2672 1.01478
736 1 -1.1104 12.2379 30.5694 3.78277
737 1 -1.1104 12.3257 36.4629 3.98904
738 1 -1.1104 12.1653 33.4095 0.961453
739 2 2.2208 10.7755 32.1003 2.35825
740 2 2.2208 10.9043 37.7058 2.47561
741 1 -1.1104 12.2736 33.5662 3.70992
742 1 -1.1104 9.42476 30.7611 0.90978
743 1 -1.1104 9.45787 36.4373 0.923639
744 2 2.2208 7.92863 35.0364 2.33527
745 1 -1.1104 9.41344 30.7947 3.6841
746 1 -1.1104 9.43264 36.396 3.79942
747 2 2.2208 8.03176 32.2025 5.10446
748 2 2.2208 8.06632 37.9704 5.05765
749 1 -1.1104 9.34495 33.7084 1.02584
750 1 -1.1104 9.49738 33.6127 3.84357
1282 2 2.2208 7.9753 32.1368 -0.447937
948 1 -1.1104 9.44145 39.0967 9.53851
959 1 -1.1104 12.1333 38.8699 12.0997
892 1 -1.1104 9.48385 30.8956 6.45397
857 1 -1.1104 6.62615 30.8571 6.58255
1283 2 2.2208 10.7576 35.0113 -0.364373
776 2 2.2208 -0.482 40.4981 5.20884
752 2 2.2208 5.14033 40.5114 5.26458
753 2 2.2208 5.35382 46.044 5.33921
754 1 -1.1104 0.918878 41.9529 0.904037
756 1 -1.1104 0.959329 41.9308 3.7049
758 1 -1.1104 1.15525 39.1721 1.13566
759 1 -1.1104 1.03353 44.6632 1.07454
762 2 2.2208 5.1722 43.4681 2.3765
763 1 -1.1104 0.88654 39.0559 3.80601
764 1 -1.1104 1.01601 44.6519 3.84604
767 1 -1.1104 3.88324 41.9251 1.01669
768 2 2.2208 2.50357 40.5198 2.43131
769 2 2.2208 2.45724 46.1571 2.48189
770 1 -1.1104 3.83284 41.808 3.8637