ITEM: TIMESTEP
20000
ITEM: NUMBER OF ATOMS
17730
ITEM: BOX BOUNDS pp pp pp
-3.6921016742617141e-01 2.7709210167425987e+01
-4.3419126351311350e+00 3.3242191263513382e+02
-3.6548251978075469e-01 2.7705482519780585e+01
ITEM: ATOMS id type q x y z
1 2 2.2208 5.25328 1.2684 5.30298
2 1 -1.1104 1.18465 -3.18027 1.07629
3 1 -1.1104 1.14833 2.47771 1.01815
6 1 -1.1104 1.08695 -2.83744 3.82201
7 1 -1.1104 1.06711 3.09792 3.7751
10 1 -1.1104 1.11675 -0.272534 1.07044
12 2 2.2208 5.27958 -1.59323 2.49012
13 2 2.2208 5.49542 3.87455 2.62942
14 1 -1.1104 1.07815 -0.0890164 3.85879
16 1 -1.1104 3.81776 -3.14976 0.906009
17 1 -1.1104 4.03581 2.81635 1.12462
18 2 2.2208 2.48655 1.24438 2.49123
19 1 -1.1104 3.92752 -3.02275 3.74372
20 1 -1.1104 3.82639 2.60652 3.95784
21 2 2.2208 2.46051 -1.56061 5.13899
22 2 2.2208 2.53695 4.15449 5.22407
23 1 -1.1104 3.95866 -0.191493 0.984199
24 1 -1.1104 3.85826 -0.0850333 3.73783
155 1 -1.1104 1.07012 2.5025 6.62683
320 2 2.2208 -0.408106 -1.74765 2.57382
11 1 -1.1104 6.7356 -0.141119 1.10072
300 2 2.2208 -0.283917 18.021 10.8665
8521 2 2.2208 2.44519 -4.39843 8.03994
160 1 -1.1104 3.78537 -2.9949 6.5629
162 1 -1.1104 3.92121 -0.251426 6.54632
301 2 2.2208 8.26487 -4.43921 2.39893
161 1 -1.1104 3.85815 2.61776 6.56344
9197 2 2.2208 -0.357965 1.15722 5.27291
159 1 -1.1104 6.78436 -0.206837 6.73414
199 1 -1.1104 9.40749 13.705 9.5333
5 1 -1.1104 6.80357 2.55897 1.15571
15 1 -1.1104 6.63917 -0.221203 3.8998
4 1 -1.1104 6.59197 -2.95198 1.17751
8 1 -1.1104 6.5868 -3.01255 3.90059
9 1 -1.1104 6.79207 2.63233 4.0274
31 2 2.2208 10.9656 1.24822 5.41332
32 1 -1.1104 12.2535 -3.16239 1.18721
33 1 -1.1104 12.5141 2.67465 1.31383
34 1 -1.1104 12.2442 -3.02244 3.83226
35 1 -1.1104 12.2868 2.51752 4.03272
36 1 -1.1104 12.3992 -0.271341 1.11893
37 2 2.2208 10.9044 -1.59449 2.60112
38 2 2.2208 11.042 4.03771 2.56173
39 1 -1.1104 12.3256 -0.124129 3.93281
40 1 -1.1104 9.42728 -2.96158 1.12504
41 1 -1.1104 9.63913 2.60873 1.14585
42 2 2.2208 8.12242 1.19966 2.55014
43 1 -1.1104 9.50955 -3.2467 3.97065
44 1 -1.1104 9.5422 2.64679 3.93752
45 2 2.2208 7.95494 -1.63521 5.31663
46 2 2.2208 8.21191 3.96821 5.37303
47 1 -1.1104 9.53457 -0.0830423 1.05915
48 1 -1.1104 9.37427 -0.264706 3.89303
299 2 2.2208 -0.374934 20.6946 8.13921
220 1 -1.1104 9.65953 19.3619 9.5002
196 1 -1.1104 9.5744 -3.0312 6.67861
156 1 -1.1104 6.78169 -3.10513 6.6261
9201 2 2.2208 -0.427098 -4.494 5.24089
316 2 2.2208 2.51071 -4.55519 2.44619
54 2 2.2208 5.29459 6.95839 5.06832
55 2 2.2208 5.44979 12.3095 5.41826
56 1 -1.1104 0.824746 8.26446 0.872043
59 1 -1.1104 0.956861 11.0307 0.724555
64 2 2.2208 5.27354 9.59782 2.3701
65 1 -1.1104 1.26722 10.6279 3.59937
68 1 -1.1104 3.78353 8.38169 1.04229
69 2 2.2208 2.38985 12.1222 2.26106
70 1 -1.1104 4.06365 8.83834 4.03789
71 2 2.2208 2.5233 9.73004 5.38739
72 1 -1.1104 3.85566 11.111 0.955212
74 1 -1.1104 4.20261 5.43366 3.85734
75 1 -1.1104 3.87296 11.9153 3.91184
8974 1 -1.1104 0.474888 5.07794 0.490113
61 1 -1.1104 6.23297 5.25646 1.00443
67 1 -1.1104 6.80089 10.9929 3.83439
66 1 -1.1104 6.86679 5.36839 3.8852
642 2 2.2208 11.0268 6.82944 -0.344654
224 1 -1.1104 1.20119 5.37336 6.56958
317 2 2.2208 5.30201 -4.43146 5.18409
49 1 -1.1104 12.3615 19.3109 12.1825
219 1 -1.1104 9.71003 16.5807 12.4657
58 1 -1.1104 6.76058 8.17343 3.77178
62 1 -1.1104 6.62137 10.848 1.00392
57 1 -1.1104 6.78442 8.08838 0.959045
78 2 2.2208 11.0696 6.72403 5.45413
79 2 2.2208 10.9761 12.3389 5.14075
80 1 -1.1104 12.3934 8.31329 1.18156
81 1 -1.1104 12.4198 8.18356 3.91884
82 1 -1.1104 12.4571 5.39468 0.958805
83 1 -1.1104 12.2437 11.0848 1.06603
85 2 2.2208 10.8994 9.53597 2.49317
86 1 -1.1104 12.3534 5.47465 3.93662
87 1 -1.1104 12.33 10.8972 3.79328
88 1 -1.1104 9.599 8.18572 1.08316
89 2 2.2208 8.22512 6.77981 2.52366
90 2 2.2208 8.10232 12.4592 2.55524
91 1 -1.1104 9.63469 8.07862 3.98726
92 2 2.2208 8.20601 9.57715 5.26459
93 1 -1.1104 9.54842 5.45134 1.02169
94 1 -1.1104 9.43255 11.0454 0.938874
96 1 -1.1104 9.604 5.38523 3.9794
97 1 -1.1104 9.62347 10.984 3.76976
84 1 -1.1104 12.4102 10.933 6.58208
223 1 -1.1104 6.88913 8.11065 6.59692
254 1 -1.1104 12.4386 5.3703 6.75616
95 1 -1.1104 9.57346 11.0785 6.78923
332 2 2.2208 10.9176 12.5203 -0.488115
323 2 2.2208 -0.297925 15.2476 2.44284
100 1 -1.1104 1.43968 13.7859 0.972561
102 1 -1.1104 1.11704 19.3617 0.891276
106 1 -1.1104 1.46953 13.7658 3.81987
107 1 -1.1104 1.01843 19.2569 3.88725
109 1 -1.1104 0.944222 16.7548 1.0078
112 2 2.2208 5.28571 20.8314 2.56999
113 1 -1.1104 1.36928 16.4615 3.66354
114 1 -1.1104 3.93788 13.6578 6.32639
115 1 -1.1104 3.96057 19.4374 1.01486
117 2 2.2208 2.46671 18.0672 2.2905
118 1 -1.1104 3.63972 19.5658 3.59635
119 2 2.2208 2.56522 15.101 5.37925
120 2 2.2208 2.47947 20.7537 5.19915
121 1 -1.1104 3.73018 16.6217 0.724089
290 1 -1.1104 0.992028 19.2693 6.66731
125 2 2.2208 5.3633 17.9214 -0.211138
9234 2 2.2208 -0.172103 20.9517 2.4299
9228 2 2.2208 -0.34263 18.0333 5.21542
108 1 -1.1104 6.67352 13.9124 4.13125
110 1 -1.1104 1.10305 16.5846 6.52275
122 1 -1.1104 3.6802 16.1695 6.86583
29 2 2.2208 11.0024 17.8702 10.911
105 1 -1.1104 7.00867 19.6265 6.86584
126 1 -1.1104 6.71045 19.4987 0.990558
103 1 -1.1104 6.62868 13.6019 0.958507
128 1 -1.1104 6.85267 16.757 1.09981
127 1 -1.1104 6.88685 19.5723 3.62629
129 2 2.2208 11.0128 17.9799 5.19973
130 1 -1.1104 12.3693 13.8638 0.991569
132 1 -1.1104 12.2225 19.364 0.971696
134 1 -1.1104 12.2287 13.7762 3.79786
135 1 -1.1104 12.4014 19.4887 3.8072
136 1 -1.1104 12.4101 16.6831 1.1408
138 2 2.2208 10.9863 15.2197 2.43129
139 2 2.2208 11.0035 20.8978 2.52579
140 1 -1.1104 12.2052 16.4855 3.8483
141 1 -1.1104 9.65386 13.9032 0.9159
143 1 -1.1104 9.54538 19.5578 1.1973
145 2 2.2208 8.19697 18.2183 2.41972
146 1 -1.1104 9.50545 13.9602 3.92144
147 1 -1.1104 9.82004 19.4901 3.88253
148 2 2.2208 8.04643 15.1288 5.30155
149 2 2.2208 8.21155 20.8004 5.2687
150 1 -1.1104 9.56893 16.6165 1.10669
152 1 -1.1104 9.22099 16.6898 3.84088
151 1 -1.1104 9.55717 16.6673 6.63386
318 2 2.2208 8.13215 15.1257 -0.23301
137 1 -1.1104 12.2382 16.7093 6.747
131 1 -1.1104 12.2811 13.8557 6.67436
165 2 2.2208 5.35427 -4.43175 -0.444575
154 1 -1.1104 0.973395 -3.05848 6.62183
311 2 2.2208 10.975 -4.51516 5.22317
30 1 -1.1104 12.291 13.8877 12.3035
8930 2 2.2208 -0.26938 -1.59891 7.9738
322 2 2.2208 -0.13587 4.11343 7.93583
158 1 -1.1104 1.11883 -0.285698 6.4641
166 2 2.2208 5.30698 1.33399 10.8919
167 1 -1.1104 1.25394 -2.95007 12.157
168 1 -1.1104 1.02667 2.52956 12.1615
171 1 -1.1104 1.10209 -3.10725 9.30301
172 1 -1.1104 1.24328 2.73084 9.37966
175 1 -1.1104 1.25999 -0.17085 12.28
177 2 2.2208 5.30208 -1.66729 8.11176
178 2 2.2208 5.1993 4.10758 7.89128
179 1 -1.1104 1.29479 -0.292798 9.24939
181 1 -1.1104 4.05683 -2.96914 12.2718
182 1 -1.1104 3.73864 2.57912 12.0299
183 2 2.2208 2.60078 1.14509 7.99995
184 1 -1.1104 3.94861 -2.88434 9.5317
185 1 -1.1104 4.03488 2.68014 9.42502
186 2 2.2208 2.54655 -1.54338 10.8671
187 2 2.2208 2.56204 3.99728 10.7348
188 1 -1.1104 3.94826 -0.185854 12.2847
189 1 -1.1104 4.00634 -0.151312 9.46555
170 1 -1.1104 6.68893 2.50872 12.3419
174 1 -1.1104 6.79933 2.60928 9.54782
157 1 -1.1104 6.73729 2.53817 6.66766
173 1 -1.1104 6.82409 -2.93673 9.59091
123 2 2.2208 11.0267 20.8869 7.98258
200 2 2.2208 8.2158 20.7735 10.799
17360 2 2.2208 -0.260568 -4.35589 10.9128
193 1 -1.1104 12.333 -2.91787 6.58788
195 1 -1.1104 12.4744 -0.268095 6.72324
198 1 -1.1104 9.54627 -0.272117 6.76576
180 1 -1.1104 6.74211 -0.151317 9.53228
197 1 -1.1104 9.54937 2.51536 6.79637
169 1 -1.1104 6.96128 -2.97643 12.2899
194 1 -1.1104 12.3656 2.41011 6.69409
176 1 -1.1104 6.73744 -0.129576 12.219
201 2 2.2208 11.0679 1.13901 10.9448
202 1 -1.1104 12.4578 -2.94463 12.3506
203 1 -1.1104 12.6889 2.60851 12.2778
204 1 -1.1104 12.2685 -2.96525 9.55383
205 1 -1.1104 12.3346 2.676 9.58149
206 1 -1.1104 12.4576 -0.141525 12.406
207 2 2.2208 10.9531 -1.73801 8.04664
208 2 2.2208 10.9014 4.02902 8.20568
209 1 -1.1104 12.5903 -0.151252 9.6914
210 1 -1.1104 9.72978 -2.90653 12.282
211 1 -1.1104 9.7622 2.73384 12.3137
212 2 2.2208 8.22103 1.11625 8.13831
213 1 -1.1104 9.54995 -3.11639 9.31353
214 1 -1.1104 9.52525 2.49357 9.59354
215 2 2.2208 8.21373 -1.55147 10.9302
216 2 2.2208 8.15127 3.9503 10.9942
217 1 -1.1104 9.6455 -0.15434 12.3925
218 1 -1.1104 9.68196 -0.175343 9.41254
77 1 -1.1104 12.5444 16.5329 12.3001
285 1 -1.1104 6.57496 13.6993 12.4149
144 1 -1.1104 9.49695 19.4741 6.80941
60 1 -1.1104 1.20528 11.063 6.56057
227 1 -1.1104 3.94318 5.57271 6.43271
9131 2 2.2208 -0.28982 9.59585 8.00034
27 2 2.2208 -0.198369 12.4389 10.9122
222 1 -1.1104 1.22101 8.39297 6.61862
226 1 -1.1104 4.03657 8.35093 6.80647
73 1 -1.1104 4.10063 11.016 6.59592
228 2 2.2208 5.28704 6.75495 10.745
229 2 2.2208 5.2447 12.3606 10.9379
230 1 -1.1104 1.18439 8.23264 12.3664
232 1 -1.1104 1.10319 8.12242 9.44271
234 1 -1.1104 1.21533 5.38302 12.2923
235 1 -1.1104 1.18226 11.1267 12.1176
238 2 2.2208 5.3764 9.56744 8.12719
239 1 -1.1104 1.14706 5.38715 9.46779
240 1 -1.1104 1.08153 11.009 9.48831
243 1 -1.1104 3.81708 8.03555 12.1402
244 2 2.2208 2.42815 6.90168 7.8667
245 2 2.2208 2.65991 12.3735 7.92897
246 1 -1.1104 3.92441 8.16235 9.35732
247 2 2.2208 2.38262 9.59466 10.803
248 1 -1.1104 4.02266 5.33193 12.1684
249 1 -1.1104 3.86798 10.8029 12.3436
250 1 -1.1104 3.85291 5.36895 9.17638
251 1 -1.1104 3.91006 11.001 9.3414
237 1 -1.1104 6.73799 10.7799 12.179
242 1 -1.1104 6.7599 10.9211 9.49287
241 1 -1.1104 6.64672 5.29327 9.65749
63 1 -1.1104 6.95814 10.7763 6.70187
253 1 -1.1104 12.5344 8.25441 6.71978
255 1 -1.1104 9.73439 8.19148 6.64106
225 1 -1.1104 6.87197 5.33382 6.71201
231 1 -1.1104 6.60676 8.11581 12.2376
257 1 -1.1104 9.59279 5.36301 6.85457
236 1 -1.1104 6.7676 5.33405 12.6135
233 1 -1.1104 6.83149 8.05332 9.32094
252 1 -1.1104 9.53553 10.9345 9.4816
256 1 -1.1104 9.56953 5.39964 9.55258
258 1 -1.1104 9.40401 11.0799 12.2626
259 1 -1.1104 9.53678 5.44029 12.1761
260 2 2.2208 8.09728 9.50516 10.9
261 1 -1.1104 9.62497 8.13104 9.49934
262 2 2.2208 8.14588 12.3903 8.17246
263 2 2.2208 8.20402 6.82815 8.05769
264 2 2.2208 11.0618 6.65429 10.9041
265 2 2.2208 10.867 12.339 10.8523
266 1 -1.1104 12.3723 8.22318 12.3883
267 1 -1.1104 12.4752 8.02971 9.4806
268 1 -1.1104 12.3761 5.48189 12.3293
269 1 -1.1104 12.1665 10.9768 12.3574
270 2 2.2208 11.0155 9.62178 8.15183
271 1 -1.1104 12.4049 5.37138 9.57817
272 1 -1.1104 12.4355 10.9749 9.59405
273 1 -1.1104 9.49187 8.15273 12.2288
313 2 2.2208 8.20803 6.89775 13.7024
104 1 -1.1104 6.69051 13.4878 6.80965
111 1 -1.1104 6.90058 16.2884 6.8873
278 1 -1.1104 6.75433 13.7019 9.69584
101 1 -1.1104 1.19691 13.7954 6.59933
116 1 -1.1104 3.87241 19.5508 6.86995
274 1 -1.1104 3.80048 19.3578 12.2966
275 1 -1.1104 3.82594 13.7781 12.0821
279 1 -1.1104 1.15539 19.3664 9.48078
280 1 -1.1104 1.18393 16.5192 9.25428
281 2 2.2208 5.37572 20.7977 8.01733
282 1 -1.1104 1.09774 13.7789 9.4123
283 2 2.2208 5.46558 15.2275 8.21978
286 1 -1.1104 1.11625 19.2369 12.2578
287 1 -1.1104 1.0328 13.7229 12.2925
288 2 2.2208 5.19065 18.0415 10.8998
289 1 -1.1104 3.84612 19.4324 9.48335
291 2 2.2208 2.62191 18.082 8.03045
292 1 -1.1104 3.99052 16.6602 9.36045
293 1 -1.1104 4.02186 13.5884 9.28289
295 1 -1.1104 1.05731 16.523 12.1492
296 1 -1.1104 3.80388 16.5505 12.3816
297 2 2.2208 2.46848 20.8271 10.7828
298 2 2.2208 2.51548 15.2236 10.7268
284 1 -1.1104 6.72444 19.4749 12.3615
276 1 -1.1104 6.89539 19.2876 9.52182
499 2 2.2208 5.17335 20.8964 13.6844
304 2 2.2208 -0.378325 15.1608 13.5721
221 2 2.2208 8.07852 15.1542 10.9555
99 2 2.2208 10.7907 15.2053 8.0438
190 1 -1.1104 9.28374 13.8623 12.4317
191 1 -1.1104 9.56898 19.4555 12.2708
163 1 -1.1104 12.4095 16.5192 9.50675
192 2 2.2208 8.14026 17.9365 8.16739
277 1 -1.1104 6.66742 16.539 9.49663
294 1 -1.1104 6.70547 16.5553 12.1865
302 1 -1.1104 9.47848 16.4418 9.39353
53 1 -1.1104 12.2867 13.822 9.28984
76 1 -1.1104 12.3468 19.5511 9.56007
133 1 -1.1104 12.4491 19.4784 6.56291
142 1 -1.1104 9.40593 13.7892 6.75937
652 2 2.2208 10.9908 1.20303 -0.188308
51 2 2.2208 13.7616 -1.63658 -0.369883
153 2 2.2208 13.7257 18.1473 2.49387
315 2 2.2208 2.40663 17.9743 13.6546
656 2 2.2208 8.25546 17.8712 13.8041
8929 2 2.2208 -0.178816 1.17906 10.8917
9132 2 2.2208 -0.205702 6.69308 10.8421
8902 2 2.2208 -0.276151 15.1878 7.93393
9555 2 2.2208 -0.25313 1.02415 -0.486901
306 2 2.2208 2.50796 1.18659 13.7478
310 2 2.2208 11.0689 -1.44789 13.7857
312 2 2.2208 2.53072 6.78912 13.6714
437 2 2.2208 5.30067 9.36214 13.6584
325 2 2.2208 2.50597 12.3736 13.6088
617 2 2.2208 5.34576 6.92448 -0.409635
28 2 2.2208 2.52701 9.56917 -0.481981
331 2 2.2208 8.14542 4.07113 -0.424585
305 2 2.2208 5.35155 -1.46701 13.6352
502 2 2.2208 10.9867 15.1426 13.8186
329 2 2.2208 5.49559 1.16046 -0.350602
651 2 2.2208 8.20675 -1.65638 -0.295665
307 2 2.2208 5.13089 3.94641 13.6078
330 2 2.2208 2.53054 20.7853 -0.298949
333 2 2.2208 5.37399 1.34411 16.5145
334 1 -1.1104 1.19146 -2.91664 18.0727
335 1 -1.1104 1.08734 2.49224 17.8867
338 1 -1.1104 1.06328 -3.04066 15.0526
340 1 -1.1104 1.11598 2.56659 15.0486
346 1 -1.1104 1.16787 -0.196925 17.904
348 2 2.2208 5.5084 -1.49746 19.2751
349 2 2.2208 5.59186 3.90895 19.39
350 1 -1.1104 1.02279 -0.189644 15.1331
354 1 -1.1104 4.07833 -2.87691 17.8983
355 1 -1.1104 3.96454 3.08493 17.9778
356 2 2.2208 2.50216 1.21981 19.4055
357 1 -1.1104 3.80738 -3.02482 15.1536
359 1 -1.1104 3.92647 2.46873 15.1141
361 2 2.2208 2.54017 -1.72797 16.4972
362 2 2.2208 2.46238 4.05654 16.4419
363 1 -1.1104 4.0004 0.0104879 17.8967
364 1 -1.1104 4.02828 -0.224375 15.1401
341 1 -1.1104 1.10742 2.8392 20.7147
8566 2 2.2208 2.57506 -4.19525 24.9529
9268 2 2.2208 -0.308082 12.4175 22.0209
9520 2 2.2208 -0.302261 7.01838 22.0467
9452 2 2.2208 -0.337854 3.79126 24.8734
9478 2 2.2208 -0.341358 1.21591 16.4985
365 1 -1.1104 3.9504 -0.0894289 20.6681
358 1 -1.1104 4.13762 -2.91499 20.7765
343 1 -1.1104 6.91093 -2.87952 20.6655
9225 2 2.2208 -0.302563 -1.36021 13.6547
9204 2 2.2208 -0.335816 3.91534 13.5788
440 2 2.2208 2.77248 -4.32845 19.3601
8563 2 2.2208 8.18949 -4.37492 24.9802
344 1 -1.1104 6.68044 3.04178 15.1562
337 1 -1.1104 6.76243 2.46809 18.0595
342 1 -1.1104 6.78243 -2.637 15.0294
347 1 -1.1104 6.79655 -0.156836 17.8007
352 1 -1.1104 6.70961 0.194767 14.974
336 1 -1.1104 6.80561 -3.05946 18.0624
376 2 2.2208 10.989 1.26527 16.6326
377 1 -1.1104 12.4772 -2.91349 17.9894
378 1 -1.1104 12.3623 2.69763 18.0125
379 1 -1.1104 12.2864 -2.9772 15.1312
381 1 -1.1104 12.4721 2.66614 15.104
383 1 -1.1104 12.386 -0.126115 17.8529
384 2 2.2208 11.0808 -1.41313 19.4009
385 2 2.2208 11.0516 3.98523 19.3225
386 1 -1.1104 12.4355 -0.103748 15.2464
388 1 -1.1104 9.52245 -2.82845 17.8005
389 1 -1.1104 9.54073 2.72398 17.9073
390 2 2.2208 8.35178 1.30653 19.4083
391 1 -1.1104 9.64587 -2.97947 14.9934
393 1 -1.1104 9.61171 2.62268 15.1603
395 2 2.2208 8.18219 -1.45263 16.4104
396 2 2.2208 8.13095 4.0585 16.692
397 1 -1.1104 9.53541 -0.122634 18.164
398 1 -1.1104 9.63458 -0.129292 15.3032
654 2 2.2208 10.9595 4.13949 13.8116
8628 2 2.2208 10.9501 -4.30164 16.5941
309 2 2.2208 8.24529 1.36139 13.729
409 2 2.2208 5.36905 12.3811 16.3986
410 1 -1.1104 0.994831 8.16472 14.9522
412 1 -1.1104 1.20738 5.34819 14.9661
416 1 -1.1104 1.03636 11.1278 17.8313
419 2 2.2208 5.48679 9.75276 19.3547
420 1 -1.1104 3.94414 5.15541 15.0739
421 1 -1.1104 1.04846 11.0842 14.994
426 1 -1.1104 1.16243 8.47043 17.6204
427 2 2.2208 2.44733 12.4778 19.2292
428 1 -1.1104 3.71612 8.26951 15.1594
430 2 2.2208 2.42191 9.7024 16.2553
431 1 -1.1104 1.13839 5.30297 17.9705
432 1 -1.1104 3.95003 10.839 17.7896
435 1 -1.1104 3.9184 11.2856 15.0557
422 1 -1.1104 1.14681 11.04 20.4965
17439 2 2.2208 -0.130933 -4.36718 16.5233
9382 2 2.2208 -0.135801 6.92984 16.4986
561 2 2.2208 -0.330867 12.4378 16.4214
436 1 -1.1104 3.98251 11.2957 20.6139
434 1 -1.1104 4.18768 5.27151 20.8587
559 2 2.2208 -0.193707 9.63274 19.2826
553 2 2.2208 -0.406859 21.0429 24.9662
400 2 2.2208 -0.402634 18.0966 16.5134
417 1 -1.1104 6.97924 5.21576 18.1406
8603 2 2.2208 5.53547 -4.22868 22.0414
424 1 -1.1104 6.71236 10.9711 15.0795
418 1 -1.1104 6.7105 11.1645 17.8745
411 1 -1.1104 6.68071 8.40783 17.975
414 1 -1.1104 6.844 8.20835 15.0197
441 2 2.2208 10.9047 6.93915 16.5686
442 2 2.2208 10.9125 12.207 16.4531
443 1 -1.1104 12.3125 8.336 17.9502
444 1 -1.1104 12.3145 8.15358 15.1505
446 1 -1.1104 12.3484 5.56373 17.8646
447 1 -1.1104 12.4948 11.0844 18.0033
448 2 2.2208 11.0474 9.61884 19.4869
449 1 -1.1104 12.1557 5.51572 15.1812
451 1 -1.1104 12.3926 10.8785 15.1129
453 1 -1.1104 9.50411 8.27763 18.0201
454 2 2.2208 8.19089 6.91625 19.3247
455 2 2.2208 8.22362 12.3509 19.3352
456 1 -1.1104 9.63201 8.19932 15.2123
458 2 2.2208 8.09209 9.62125 16.4735
459 1 -1.1104 9.59236 5.44918 18.0285
460 1 -1.1104 9.53588 10.9408 17.8477
461 1 -1.1104 9.20361 5.32411 15.0597
463 1 -1.1104 9.51046 10.9593 14.9744
445 1 -1.1104 12.5299 8.26222 20.7806
439 2 2.2208 8.13117 12.398 13.6637
462 1 -1.1104 9.68413 5.43134 20.7337
9446 2 2.2208 -0.214443 15.4142 19.429
562 2 2.2208 8.1174 20.9459 27.8009
8627 2 2.2208 8.22354 -4.28785 19.319
467 2 2.2208 5.349 18.0953 16.4678
468 1 -1.1104 1.11297 13.8544 17.807
472 1 -1.1104 1.30765 13.9221 15.1234
474 1 -1.1104 1.02641 19.3171 15.1035
479 1 -1.1104 0.924469 16.6998 17.7825
481 2 2.2208 5.37764 15.1264 19.1961
482 2 2.2208 5.38233 20.7762 19.3988
483 1 -1.1104 1.03985 16.5935 15.0639
486 1 -1.1104 3.97227 13.5784 18.0335
487 1 -1.1104 4.00509 19.3625 17.8126
488 2 2.2208 2.46965 18.3045 19.0667
489 1 -1.1104 4.02412 13.9133 15.1243
491 1 -1.1104 3.76002 19.3837 14.97
492 1 -1.1104 4.00131 18.9831 20.5808
493 2 2.2208 2.51884 15.288 16.4689
494 2 2.2208 2.52187 20.7222 16.3224
495 1 -1.1104 3.78477 16.4459 18.0969
496 1 -1.1104 3.83049 16.6624 15.1764
497 1 -1.1104 2.01373 16.4461 20.3561
996 1 -1.1104 1.20177 19.5438 17.8148
475 1 -1.1104 6.91324 13.7103 14.9512
490 1 -1.1104 4.12564 14.1054 20.7785
620 2 2.2208 11.0009 18.0547 22.2162
314 2 2.2208 5.32947 15.2552 13.6677
519 1 -1.1104 9.80837 13.89 20.7948
471 1 -1.1104 6.76809 19.2843 17.9479
484 1 -1.1104 6.79302 16.5408 15.1395
470 1 -1.1104 6.71099 13.8376 17.7032
477 1 -1.1104 6.59485 19.3453 15.1349
480 1 -1.1104 6.67892 16.468 17.8273
503 2 2.2208 11.1737 17.9248 16.4662
504 1 -1.1104 12.3091 13.6982 18.0389
505 1 -1.1104 12.2622 19.4075 17.9635
506 1 -1.1104 12.2525 13.5022 15.1471
508 1 -1.1104 12.2926 19.2499 15.0178
510 1 -1.1104 12.4621 16.5598 18.0219
511 2 2.2208 11.0719 15.1921 19.296
512 2 2.2208 10.8675 20.8328 19.3395
513 1 -1.1104 12.3721 16.4476 15.1457
515 1 -1.1104 9.67568 13.7884 17.945
516 1 -1.1104 9.49957 19.5263 17.9832
517 2 2.2208 8.24217 17.9735 19.2842
518 1 -1.1104 9.58268 13.7845 15.2638
520 1 -1.1104 9.57034 19.4148 15.049
522 2 2.2208 8.14228 15.1185 16.4546
523 2 2.2208 8.12527 20.6561 16.4504
524 1 -1.1104 9.66654 16.6279 17.868
525 1 -1.1104 9.54622 16.5814 15.153
514 1 -1.1104 12.308 16.5845 20.746
521 1 -1.1104 9.58121 19.3295 20.7975
476 1 -1.1104 6.97378 13.9389 20.3647
526 1 -1.1104 9.46525 16.6251 20.7461
478 1 -1.1104 6.86049 19.3818 20.8006
351 1 -1.1104 1.19519 -0.177411 20.6895
509 1 -1.1104 12.4903 19.4943 20.8304
368 2 2.2208 -0.213519 1.24273 22.004
563 2 2.2208 -0.201823 -1.66831 24.838
360 1 -1.1104 4.15434 2.51194 20.8038
339 1 -1.1104 1.32583 -2.94885 20.8334
528 2 2.2208 5.45387 1.18439 22.1686
529 1 -1.1104 1.33788 -2.89685 23.5119
530 1 -1.1104 1.23246 2.57679 23.4302
533 1 -1.1104 1.03458 -3.01462 26.3418
534 1 -1.1104 1.12009 2.4386 26.2476
537 1 -1.1104 1.17158 -0.139418 23.4599
539 2 2.2208 5.40631 -1.64101 24.9472
540 2 2.2208 5.39821 4.06475 25.0401
541 1 -1.1104 1.3973 -0.321257 26.3472
543 1 -1.1104 3.94846 -3.07807 23.6122
544 1 -1.1104 4.1049 2.69569 23.7126
545 2 2.2208 2.66023 1.13817 24.8779
546 1 -1.1104 4.08233 -3.01578 26.2442
547 1 -1.1104 3.96943 2.52691 26.3831
548 2 2.2208 2.60393 -1.56135 22.1438
549 2 2.2208 2.79125 3.93276 22.1548
550 1 -1.1104 3.9407 -0.330125 23.5795
551 1 -1.1104 4.15825 -0.221733 26.3258
542 1 -1.1104 7.03873 -0.19028 26.4077
556 2 2.2208 2.39418 3.84454 27.5942
373 2 2.2208 10.9065 15.2579 25.0011
380 1 -1.1104 12.2992 -2.86264 20.8244
399 1 -1.1104 9.63253 -0.0686403 20.9388
353 1 -1.1104 6.90021 -0.130251 20.691
538 1 -1.1104 6.64743 -0.146965 23.5927
536 1 -1.1104 6.79782 2.60324 26.3662
532 1 -1.1104 6.90322 2.67532 23.6107
392 1 -1.1104 9.62204 -2.80124 20.6573
382 1 -1.1104 12.4253 2.58149 20.8029
387 1 -1.1104 12.4692 -0.0832891 20.7655
345 1 -1.1104 6.8805 2.63544 20.8044
531 1 -1.1104 6.78641 -2.98542 23.5696
394 1 -1.1104 9.68404 2.67285 20.7278
535 1 -1.1104 6.77519 -3.03464 26.2873
564 2 2.2208 11.0082 1.32708 22.0991
565 1 -1.1104 12.4445 -3.06663 23.6065
566 1 -1.1104 12.5622 2.45764 23.5112
567 1 -1.1104 12.489 -3.11531 26.3145
568 1 -1.1104 12.4892 2.45796 26.3444
569 1 -1.1104 12.3757 -0.362198 23.6799
570 2 2.2208 11.0152 -1.64618 25.0855
571 2 2.2208 10.9508 4.03494 24.9406
572 1 -1.1104 12.5119 -0.274713 26.3253
573 1 -1.1104 9.71023 -2.90703 23.528
574 1 -1.1104 9.63717 2.61964 23.523
575 2 2.2208 8.25038 1.24191 25.1012
576 1 -1.1104 9.64942 -2.93725 26.4202
577 1 -1.1104 9.51834 2.67905 26.3677
578 2 2.2208 8.32175 -1.57681 22.0966
579 2 2.2208 8.18708 4.05779 22.1917
580 1 -1.1104 9.52219 -0.154714 23.7393
581 1 -1.1104 9.8008 -0.230258 26.4337
622 1 -1.1104 12.3848 19.4354 23.6368
406 1 -1.1104 9.51658 19.3724 23.5188
429 1 -1.1104 4.18118 8.5456 20.825
9544 2 2.2208 -0.316231 9.71941 24.7357
527 1 -1.1104 6.57369 19.435 23.5948
375 1 -1.1104 12.3734 16.5642 26.3564
413 1 -1.1104 0.990958 8.36882 20.8007
593 2 2.2208 5.27857 6.9339 22.0456
594 2 2.2208 5.41284 12.5252 22.0914
595 1 -1.1104 1.16932 8.22733 23.4046
597 1 -1.1104 1.00839 8.2566 26.0471
599 1 -1.1104 1.32944 5.4752 22.7744
600 1 -1.1104 1.12548 11.0012 23.3879
603 2 2.2208 5.35436 9.60808 24.7484
604 1 -1.1104 1.32434 5.37168 25.8858
605 1 -1.1104 1.17445 11.152 26.0726
608 1 -1.1104 3.92709 8.1595 23.4609
609 2 2.2208 2.5284 6.94888 24.7731
610 2 2.2208 2.51928 12.417 24.8325
611 1 -1.1104 3.93777 8.15351 26.3511
612 2 2.2208 2.62081 9.69482 21.8983
613 1 -1.1104 3.93752 5.36034 23.7708
614 1 -1.1104 3.99247 11.1185 23.4648
616 1 -1.1104 3.87206 10.8835 26.254
615 1 -1.1104 3.88103 5.34215 26.7967
601 1 -1.1104 6.77374 5.46453 23.7041
498 2 2.2208 8.24697 20.7945 22.0295
450 1 -1.1104 12.4897 5.49817 20.705
423 1 -1.1104 6.90649 5.65273 20.8879
464 1 -1.1104 9.76047 11.1248 20.6739
452 1 -1.1104 12.4619 11.1865 20.5978
606 1 -1.1104 6.83495 5.52034 26.4526
425 1 -1.1104 6.80158 11.0169 20.603
415 1 -1.1104 6.94289 8.2201 20.7592
598 1 -1.1104 6.65825 8.11795 26.0064
602 1 -1.1104 6.88519 11.0885 23.405
457 1 -1.1104 9.69798 8.23019 20.8382
596 1 -1.1104 6.76484 8.43163 23.3899
607 1 -1.1104 6.81725 10.8923 26.2782
624 1 -1.1104 9.59279 11.0941 26.1624
625 1 -1.1104 9.69319 5.52043 26.332
626 1 -1.1104 9.57601 11.0388 23.4885
627 1 -1.1104 9.57173 5.39486 23.5466
628 2 2.2208 8.25482 9.70194 22.0519
629 1 -1.1104 9.56276 8.32748 26.2612
630 2 2.2208 8.15044 12.4066 24.8713
631 2 2.2208 8.14467 6.96983 24.8694
632 2 2.2208 11.0781 6.66651 22.0608
633 2 2.2208 11.1212 12.4479 22.1866
634 1 -1.1104 12.5035 8.17267 23.5276
635 1 -1.1104 12.4139 8.01798 26.4648
636 1 -1.1104 12.3601 5.24964 23.5767
637 1 -1.1104 12.5395 11.0082 23.5509
638 2 2.2208 11.0759 9.63454 24.9304
639 1 -1.1104 12.3097 5.33236 26.2324
640 1 -1.1104 12.3176 10.9174 26.4243
641 1 -1.1104 9.70035 8.14074 23.5192
401 1 -1.1104 9.66568 13.6907 23.5953
555 1 -1.1104 12.4261 16.625 23.6056
9261 2 2.2208 -0.449013 18.021 27.5769
465 1 -1.1104 9.58248 19.5084 26.3851
557 1 -1.1104 12.344 19.412 26.3627
473 1 -1.1104 1.14089 13.8696 20.6712
485 1 -1.1104 6.4512 16.7151 20.4872
657 2 2.2208 10.976 18.0277 27.8041
371 2 2.2208 2.51756 17.8309 24.8731
402 1 -1.1104 3.81754 19.2336 26.3861
404 2 2.2208 5.37928 18.0278 22.2403
552 1 -1.1104 1.10126 13.8124 23.3222
554 1 -1.1104 1.02241 14.005 26.2227
582 1 -1.1104 1.05053 16.766 26.2702
583 2 2.2208 2.63934 15.0725 22.1084
584 1 -1.1104 1.0044 19.3514 26.0022
586 1 -1.1104 1.49677 16.3567 23.6388
588 2 2.2208 5.50033 15.1532 24.8629
589 1 -1.1104 4.28794 16.3027 23.1452
591 2 2.2208 5.43979 20.7775 25.004
618 1 -1.1104 3.80493 13.6579 26.6666
646 1 -1.1104 4.06837 16.4002 25.968
648 1 -1.1104 3.90247 19.2182 23.6973
650 1 -1.1104 3.90698 13.7996 23.6438
621 1 -1.1104 12.4356 13.838 23.6035
649 1 -1.1104 6.6761 13.7069 26.121
507 1 -1.1104 12.5833 13.86 20.7098
466 2 2.2208 8.21789 15.2908 22.0006
408 1 -1.1104 6.76004 19.2368 26.329
438 1 -1.1104 9.5348 13.8301 26.3143
644 1 -1.1104 6.88888 16.4249 26.3173
587 1 -1.1104 6.82268 13.8762 23.3178
407 2 2.2208 8.1872 18.0649 25.0066
500 1 -1.1104 9.64989 16.594 23.5664
623 1 -1.1104 12.3994 13.8086 26.3371
592 1 -1.1104 7.02019 16.6071 23.4215
501 1 -1.1104 9.61208 16.7275 26.2823
374 2 2.2208 10.9588 20.8107 24.8745
328 2 2.2208 13.7786 6.74508 13.8107
560 2 2.2208 2.35458 15.3823 27.4828
8518 2 2.2208 -0.20412 -4.54481 27.8083
643 2 2.2208 8.19823 9.63739 27.6795
619 2 2.2208 5.44185 12.2034 27.5486
9550 2 2.2208 13.791 12.4172 13.7032
326 2 2.2208 11.0423 9.53666 13.7249
308 2 2.2208 -0.375632 20.7566 13.6574
327 2 2.2208 10.9152 20.7129 13.6065
319 2 2.2208 2.52092 -1.74475 27.8006
658 2 2.2208 5.32681 23.8296 5.29089
659 2 2.2208 5.23857 29.3327 5.21171
660 1 -1.1104 1.11175 25.0157 1.13689
661 1 -1.1104 1.0991 25.023 3.88107
662 1 -1.1104 0.957454 22.3663 1.15192
663 1 -1.1104 1.16713 28.0003 1.06319
664 2 2.2208 5.1916 26.5438 2.34677
665 1 -1.1104 1.10179 22.2 3.86478
666 1 -1.1104 1.02189 27.9102 3.67715
667 1 -1.1104 3.90267 25.1955 0.865741
668 2 2.2208 2.40494 23.7303 2.52097
669 2 2.2208 2.60709 29.3386 2.30826
670 1 -1.1104 3.93123 25.1931 3.73026
671 2 2.2208 2.46998 26.5446 5.20244
672 1 -1.1104 3.79584 22.2908 1.09983
673 1 -1.1104 3.87324 27.9167 1.0289
674 1 -1.1104 3.80116 22.4111 3.84688
675 1 -1.1104 3.81973 28.1575 3.92354
1559 1 -1.1104 9.76225 47.3135 6.88006
678 2 2.2208 -0.34453 26.4533 2.5195
680 1 -1.1104 6.67145 25.25 3.7667
681 1 -1.1104 6.67768 22.3466 0.982901
679 1 -1.1104 6.57606 25.192 0.938829
1197 2 2.2208 -0.2666 29.2174 -0.27287
677 2 2.2208 -0.411224 23.7013 5.33718
807 1 -1.1104 4.03613 27.7672 6.57415
801 1 -1.1104 0.946922 22.2587 6.66128
805 1 -1.1104 3.83536 25.0267 6.75187
1580 1 -1.1104 7.09516 47.2681 9.58474
682 1 -1.1104 6.70025 27.8952 0.907332
683 1 -1.1104 6.58508 22.1983 3.92081
684 1 -1.1104 6.54271 27.9549 3.87198
685 2 2.2208 10.9204 23.6146 5.05523
686 2 2.2208 10.7921 29.2522 5.21622
687 1 -1.1104 12.3955 25.1137 1.03738
688 1 -1.1104 12.3021 25.0205 3.7679
689 1 -1.1104 12.4897 22.2013 1.07046
690 1 -1.1104 12.2957 27.84 0.98782
691 2 2.2208 10.8847 26.5286 2.33533
692 1 -1.1104 12.4245 22.2506 3.73468
693 1 -1.1104 12.2011 27.8726 3.90025
694 1 -1.1104 9.36779 25.0169 0.990743
695 2 2.2208 7.94631 23.6955 2.4611
696 2 2.2208 8.0442 29.223 2.49864
697 1 -1.1104 9.48031 24.9671 3.79873
698 2 2.2208 8.11829 26.3682 5.22496
699 1 -1.1104 9.47588 22.2425 0.9061
700 1 -1.1104 9.44328 27.9002 1.06078
701 1 -1.1104 9.4947 22.2055 3.69748
702 1 -1.1104 9.42683 27.9095 3.91245
834 1 -1.1104 9.64764 25.005 6.52121
835 1 -1.1104 9.5923 22.1342 6.44322
832 1 -1.1104 12.3228 22.4555 6.57965
831 1 -1.1104 12.1545 25.058 6.71686
836 1 -1.1104 9.58264 27.8448 6.73534
833 1 -1.1104 12.3356 27.8384 6.55738
707 2 2.2208 5.38029 34.8529 5.22795
708 1 -1.1104 1.08449 30.7474 1.04591
709 1 -1.1104 1.08881 36.1824 1.00235
711 1 -1.1104 1.16201 30.696 3.847
712 1 -1.1104 0.988464 36.3495 3.89323
714 1 -1.1104 1.15271 33.4875 1.09165
715 2 2.2208 5.30356 32.1384 2.44863
716 2 2.2208 5.28897 37.748 2.42266
717 1 -1.1104 1.02444 33.4472 3.86866
719 1 -1.1104 3.88319 30.7928 1.00063
720 1 -1.1104 3.9125 36.3632 0.987191
721 2 2.2208 2.45365 34.9786 2.57584
722 1 -1.1104 3.96797 30.8103 3.82568
723 1 -1.1104 3.87516 36.3691 3.79608
724 2 2.2208 2.5572 32.1299 5.18021
725 2 2.2208 2.41632 37.7219 5.19805
726 1 -1.1104 4.00906 33.6311 1.10279
727 1 -1.1104 3.85733 33.5599 3.8657
728 2 2.2208 -0.283988 31.9139 2.54638
706 2 2.2208 -0.371567 34.9135 5.24656
1380 1 -1.1104 12.3578 47.5168 1.06697
1345 1 -1.1104 6.55105 47.4562 3.97308
729 2 2.2208 -0.314413 37.7593 2.48034
861 1 -1.1104 3.83026 30.64 6.61145
855 1 -1.1104 0.986017 30.7846 6.65593
777 2 2.2208 13.8143 43.0153 10.9942
1358 1 -1.1104 3.93988 47.6103 1.01052
732 1 -1.1104 6.71613 33.5496 0.967375
731 1 -1.1104 6.73683 30.7647 3.71032
710 1 -1.1104 6.59567 36.38 0.985723
718 1 -1.1104 6.67929 33.5035 3.9964
730 1 -1.1104 6.66735 30.6701 1.07582
713 1 -1.1104 6.68681 36.2122 3.79879
733 2 2.2208 10.8805 34.7516 5.19109
734 1 -1.1104 12.1295 30.6854 1.00157
735 1 -1.1104 12.3546 36.2736 0.957822
736 1 -1.1104 12.3172 30.562 3.6483
737 1 -1.1104 12.3159 36.3341 3.72359
738 1 -1.1104 12.2218 33.5423 0.914154
739 2 2.2208 10.9136 32.0988 2.36431
740 2 2.2208 10.8977 37.6611 2.33814
741 1 -1.1104 12.3035 33.5195 3.73437
742 1 -1.1104 9.43238 30.7594 1.02827
743 1 -1.1104 9.43876 36.3712 0.825651
744 2 2.2208 8.0364 34.8487 2.27947
745 1 -1.1104 9.52423 30.7435 3.81457
746 1 -1.1104 9.57395 36.3485 3.77329
747 2 2.2208 8.02098 32.0453 5.26876
748 2 2.2208 8.09344 37.5158 5.26814
749 1 -1.1104 9.43963 33.5976 0.863036
750 1 -1.1104 9.42284 33.6024 3.6958
1282 2 2.2208 8.15373 31.9815 -0.463454
857 1 -1.1104 6.77935 30.6848 6.61552
1281 2 2.2208 7.98816 37.709 -0.459082
894 1 -1.1104 9.58272 33.4044 6.49605
889 1 -1.1104 12.377 30.5901 6.46312
1283 2 2.2208 10.9273 34.9461 -0.476489
956 1 -1.1104 12.2625 39.1751 9.4095
9864 2 2.2208 13.7903 37.5884 10.7655
10007 2 2.2208 -0.283035 45.9901 -0.366997
964 2 2.2208 13.7376 32.0275 5.11015
923 1 -1.1104 6.7687 39.0021 12.1147
9849 2 2.2208 -0.477872 43.2962 2.36257
752 2 2.2208 5.21605 40.4331 5.11983
753 2 2.2208 5.23981 46.1187 5.20856
754 1 -1.1104 1.07054 41.6954 1.02426
756 1 -1.1104 0.863129 42.0087 3.81916
758 1 -1.1104 1.08358 38.962 0.951396
759 1 -1.1104 1.00501 44.6442 1.09529