LAMMPS (29 Oct 2020)
OMP_NUM_THREADS environment is not set. Defaulting to 1 thread. (../comm.cpp:94)
  using 1 OpenMP thread(s) per MPI task
OMP_NUM_THREADS environment is not set. Defaulting to 1 thread. (../comm.cpp:94)
  using 1 OpenMP thread(s) per MPI task
Reading data file ...
  orthogonal box = (-0.36528843 -4.3023158 -0.3561032) to (27.705288 332.38232 27.696103)
  2 by 13 by 2 MPI processor grid
  reading atoms ...
  17640 atoms
  reading velocities ...
  17640 velocities
Finding 1-2 1-3 1-4 neighbors ...
  special bond factors lj:    0.0      0.0      0.0     
  special bond factors coul:  0.0      0.0      0.0     
     0 = max # of 1-2 neighbors
     0 = max # of 1-3 neighbors
     0 = max # of 1-4 neighbors
     1 = max # of special neighbors
  special bonds CPU = 0.004 seconds
  read_data CPU = 0.057 seconds
Setting atom values ...
  11760 settings made for charge
Setting atom values ...
  5880 settings made for charge
PPPM initialization ...
  using 12-bit tables for long-range coulomb (../kspace.cpp:328)
  G vector (1/distance) = 0.29881614
  grid = 40 240 40
  stencil order = 5
  estimated absolute RMS force accuracy = 0.00015618178
  estimated relative force accuracy = 1.0846224e-05
  using single precision MKL FFT
  3d grid and FFT values/proc = 15000 7600
Neighbor list info ...
  update every 1 steps, delay 0 steps, check yes
  max neighbors/atom: 2000, page size: 100000
  master list distance cutoff = 11.3
  ghost atom cutoff = 11.3
  binsize = 5.65, bins = 5 60 5
  2 neighbor lists, perpetual/occasional/extra = 2 0 0
  (1) pair coul/long, perpetual
      attributes: half, newton on
      pair build: half/bin/newton
      stencil: half/bin/3d/newton
      bin: standard
  (2) pair eam/alloy, perpetual, copy from (1)
      attributes: half, newton on
      pair build: copy
      stencil: none
      bin: none
Setting up Verlet run ...
  Unit style    : metal
  Current step  : 0
  Time step     : 0.001
Per MPI rank memory allocation (min/avg/max) = 8.146 | 8.177 | 8.199 Mbytes
Step Temp E_pair E_mol TotEng Press 
       0          600   -230457.29            0   -229089.28   -631.41307 
  100000    601.64377   -230460.81            0   -229089.05     -1441.33 
Loop time of 638.874 on 52 procs for 100000 steps with 17640 atoms

Performance: 13.524 ns/day, 1.775 hours/ns, 156.525 timesteps/s
99.8% CPU use with 52 MPI tasks x 1 OpenMP threads

MPI task timing breakdown:
Section |  min time  |  avg time  |  max time  |%varavg| %total
---------------------------------------------------------------
Pair    | 424        | 439.91     | 458.15     |  37.7 | 68.86
Bond    | 0.0070506  | 0.0099642  | 0.015457   |   1.8 |  0.00
Kspace  | 126.1      | 145.98     | 162.31     |  66.4 | 22.85
Neigh   | 30.266     | 33.915     | 36.91      |  26.3 |  5.31
Comm    | 13.637     | 14.662     | 17.1       |  24.0 |  2.30
Output  | 5.5791e-05 | 6.1794e-05 | 0.00030331 |   0.0 |  0.00
Modify  | 1.8141     | 3.1688     | 5.2674     |  65.1 |  0.50
Other   |            | 1.233      |            |       |  0.19

Nlocal:        339.231 ave         368 max         321 min
Histogram: 5 3 9 11 12 6 2 0 3 1
Nghost:        4077.60 ave        4256 max        3950 min
Histogram: 11 1 4 8 11 5 5 3 0 4
Neighs:        67444.7 ave       73996 max       58830 min
Histogram: 4 0 4 1 5 10 15 7 3 3

Total # of neighbors = 3507126
Ave neighs/atom = 198.81667
Ave special neighs/atom = 0.0000000
Neighbor list builds = 16208
Dangerous builds = 0
11760 atoms in group oxygen
PPPM initialization ...
  using 12-bit tables for long-range coulomb (../kspace.cpp:328)
  G vector (1/distance) = 0.29881614
  grid = 40 240 40
  stencil order = 5
  estimated absolute RMS force accuracy = 0.00015618178
  estimated relative force accuracy = 1.0846224e-05
  using single precision MKL FFT
  3d grid and FFT values/proc = 15000 7600
Setting up Verlet run ...
  Unit style    : metal
  Current step  : 0
  Time step     : 0.001
Per MPI rank memory allocation (min/avg/max) = 8.397 | 8.427 | 8.450 Mbytes
Step f_2 Temp v_Tdiff v_deltaT 
       0            0    601.64377            0            0 
  100000    687.94623    601.27678  0.019197318    222.87908 
  200000    1356.9008    596.40166  0.020686046    240.16308 
  300000    2028.7656    594.18459  0.020476433    237.72949 
  400000     2700.623    598.52791   0.02122507     246.4211 
  500000    3374.3857    600.67729  0.021228166    246.45704 
  600000    4042.2778    601.27946   0.02180109    253.10863 
  700000    4713.1506    598.91631  0.021377867    248.19505 
  800000     5381.998    600.70598  0.021104977    245.02682 
  900000    6061.7548    601.97215  0.020414098    237.00578 
 1000000    6740.1331    601.12005  0.021505174    249.67307 
Loop time of 6367.6 on 52 procs for 1000000 steps with 17640 atoms

Performance: 13.569 ns/day, 1.769 hours/ns, 157.045 timesteps/s
99.9% CPU use with 52 MPI tasks x 1 OpenMP threads

MPI task timing breakdown:
Section |  min time  |  avg time  |  max time  |%varavg| %total
---------------------------------------------------------------
Pair    | 4178.4     | 4360.5     | 4565.7     | 129.9 | 68.48
Bond    | 0.063544   | 0.10222    | 0.16424    |   6.6 |  0.00
Kspace  | 1251.9     | 1475.5     | 1655.4     | 228.0 | 23.17
Neigh   | 308.64     | 349.07     | 380.91     |  86.6 |  5.48
Comm    | 136.81     | 147.52     | 177.16     |  83.8 |  2.32
Output  | 0.0010477  | 0.0011194  | 0.0023336  |   0.5 |  0.00
Modify  | 5.2962     | 5.7386     | 6.2128     |   9.8 |  0.09
Other   |            | 29.22      |            |       |  0.46

Nlocal:        339.231 ave         367 max         321 min
Histogram: 4 6 4 16 10 5 3 0 3 1
Nghost:        4070.42 ave        4242 max        3941 min
Histogram: 4 8 7 9 6 4 3 7 0 4
Neighs:        67443.4 ave       73245 max       59080 min
Histogram: 3 2 3 1 2 9 18 8 2 4

Total # of neighbors = 3507059
Ave neighs/atom = 198.81287
Ave special neighs/atom = 0.0000000
Neighbor list builds = 166464
Dangerous builds = 0
Total wall time: 1:56:47
