LAMMPS (29 Oct 2020)
OMP_NUM_THREADS environment is not set. Defaulting to 1 thread. (../comm.cpp:94)
  using 1 OpenMP thread(s) per MPI task
OMP_NUM_THREADS environment is not set. Defaulting to 1 thread. (../comm.cpp:94)
  using 1 OpenMP thread(s) per MPI task
Reading data file ...
  triclinic box = (-0.12971711 -1.5023644 -0.13026126) to (28.023717 336.23036 28.024261) with tilt (0.0000000 0.0000000 0.0000000)
  2 by 13 by 2 MPI processor grid
  reading atoms ...
  18000 atoms
  reading velocities ...
  18000 velocities
Finding 1-2 1-3 1-4 neighbors ...
  special bond factors lj:    0.0      0.0      0.0     
  special bond factors coul:  0.0      0.0      0.0     
     0 = max # of 1-2 neighbors
     0 = max # of 1-3 neighbors
     0 = max # of 1-4 neighbors
     1 = max # of special neighbors
  special bonds CPU = 0.003 seconds
  read_data CPU = 0.070 seconds
Setting atom values ...
  11880 settings made for charge
Setting atom values ...
  5940 settings made for charge
PPPM initialization ...
  using 12-bit tables for long-range coulomb (../kspace.cpp:328)
  G vector (1/distance) = 0.29866273
  grid = 40 240 40
  stencil order = 5
  estimated absolute RMS force accuracy = 0.00015910956
  estimated relative force accuracy = 1.1049548e-05
  using single precision MKL FFT
  3d grid and FFT values/proc = 15000 7600
Neighbor list info ...
  update every 1 steps, delay 0 steps, check yes
  max neighbors/atom: 2000, page size: 100000
  master list distance cutoff = 11.3
  ghost atom cutoff = 11.3
  binsize = 5.65, bins = 5 60 5
  2 neighbor lists, perpetual/occasional/extra = 2 0 0
  (1) pair coul/long, perpetual
      attributes: half, newton on
      pair build: half/bin/newton/tri
      stencil: half/bin/3d/newton/tri
      bin: standard
  (2) pair eam/alloy, perpetual, copy from (1)
      attributes: half, newton on
      pair build: copy
      stencil: none
      bin: none
Setting up Verlet run ...
  Unit style    : metal
  Current step  : 0
  Time step     : 0.001
Per MPI rank memory allocation (min/avg/max) = 8.321 | 8.352 | 8.370 Mbytes
Step Temp E_pair E_mol TotEng Press 
       0          600   -234602.67            0   -233206.74    -51.72761 
  100000     602.4945   -234597.89            0   -233196.15   -145.11751 
Loop time of 675.156 on 52 procs for 100000 steps with 18000 atoms

Performance: 12.797 ns/day, 1.875 hours/ns, 148.114 timesteps/s
99.8% CPU use with 52 MPI tasks x 1 OpenMP threads

MPI task timing breakdown:
Section |  min time  |  avg time  |  max time  |%varavg| %total
---------------------------------------------------------------
Pair    | 451.89     | 463.12     | 474.6      |  29.0 | 68.59
Bond    | 0.0065587  | 0.010934   | 0.014376   |   1.8 |  0.00
Kspace  | 126.78     | 142.04     | 155.65     |  63.0 | 21.04
Neigh   | 46.943     | 50.231     | 54.164     |  21.6 |  7.44
Comm    | 14.231     | 15.266     | 17.52      |  24.2 |  2.26
Output  | 5.2868e-05 | 5.8799e-05 | 0.00027415 |   0.0 |  0.00
Modify  | 1.7217     | 3.209      | 4.9434     |  59.4 |  0.48
Other   |            | 1.274      |            |       |  0.19

Nlocal:        346.154 ave         372 max         330 min
Histogram: 7 6 10 6 4 9 5 3 1 1
Nghost:        4080.40 ave        4215 max        3928 min
Histogram: 3 3 6 0 4 14 10 8 2 2
Neighs:        69854.7 ave       75207 max       65322 min
Histogram: 1 9 5 7 8 4 9 6 2 1

Total # of neighbors = 3632445
Ave neighs/atom = 201.80250
Ave special neighs/atom = 0.0000000
Neighbor list builds = 16215
Dangerous builds = 0
11880 atoms in group oxygen
PPPM initialization ...
  using 12-bit tables for long-range coulomb (../kspace.cpp:328)
  G vector (1/distance) = 0.29866273
  grid = 40 240 40
  stencil order = 5
  estimated absolute RMS force accuracy = 0.00015910956
  estimated relative force accuracy = 1.1049548e-05
  using single precision MKL FFT
  3d grid and FFT values/proc = 15000 7600
Setting up Verlet run ...
  Unit style    : metal
  Current step  : 0
  Time step     : 0.001
Per MPI rank memory allocation (min/avg/max) = 8.572 | 8.602 | 8.621 Mbytes
Step f_2 Temp v_Tdiff v_deltaT 
       0            0     602.4945            0            0 
  100000    655.49843    603.96489  0.022444648    260.58028 
  200000    1290.1351    609.37891  0.024876795    288.81728 
  300000    1922.3781     608.1831  0.025877477     300.4351 
  400000    2558.1946    608.25735  0.025029096    290.58548 
  500000    3197.2157     612.8817  0.025518288    296.26496 
  600000    3834.4095    611.80853  0.026358871    306.02404 
  700000    4474.4185    608.45292   0.02496163     289.8022 
  800000    5115.5784    603.25377   0.02527121    293.39641 
  900000    5753.3225    610.44223  0.024993499     290.1722 
 1000000    6391.3457    615.30937  0.026006848    301.93709 
Loop time of 6682.53 on 52 procs for 1000000 steps with 18000 atoms

Performance: 12.929 ns/day, 1.856 hours/ns, 149.644 timesteps/s
99.8% CPU use with 52 MPI tasks x 1 OpenMP threads

MPI task timing breakdown:
Section |  min time  |  avg time  |  max time  |%varavg| %total
---------------------------------------------------------------
Pair    | 4451.4     | 4564.9     | 4661.4     |  76.7 | 68.31
Bond    | 0.070367   | 0.10905    | 0.15847    |   5.6 |  0.00
Kspace  | 1288.5     | 1407.3     | 1537.6     | 163.8 | 21.06
Neigh   | 486.39     | 521.31     | 554.95     |  67.3 |  7.80
Comm    | 142.52     | 152.91     | 176.07     |  80.6 |  2.29
Output  | 0.0010322  | 0.0010917  | 0.0023902  |   0.6 |  0.00
Modify  | 5.4009     | 5.9104     | 6.4028     |  11.1 |  0.09
Other   |            | 30.06      |            |       |  0.45

Nlocal:        346.154 ave         373 max         328 min
Histogram: 4 3 11 5 16 3 6 1 0 3
Nghost:        4088.04 ave        4206 max        3930 min
Histogram: 1 2 2 9 4 8 9 9 5 3
Neighs:        69846.6 ave       75463 max       64895 min
Histogram: 2 2 7 7 12 9 8 1 3 1

Total # of neighbors = 3632021
Ave neighs/atom = 201.77894
Ave special neighs/atom = 0.0000000
Neighbor list builds = 168201
Dangerous builds = 0
Total wall time: 2:02:38
