LAMMPS (29 Oct 2020)
OMP_NUM_THREADS environment is not set. Defaulting to 1 thread. (../comm.cpp:94)
  using 1 OpenMP thread(s) per MPI task
OMP_NUM_THREADS environment is not set. Defaulting to 1 thread. (../comm.cpp:94)
  using 1 OpenMP thread(s) per MPI task
Reading data file ...
  orthogonal box = (-0.27717828 -3.4472206 -0.27717828) to (27.617178 331.52722 27.617178)
  2 by 13 by 2 MPI processor grid
  reading atoms ...
  18000 atoms
  reading velocities ...
  18000 velocities
Finding 1-2 1-3 1-4 neighbors ...
  special bond factors lj:    0.0      0.0      0.0     
  special bond factors coul:  0.0      0.0      0.0     
     0 = max # of 1-2 neighbors
     0 = max # of 1-3 neighbors
     0 = max # of 1-4 neighbors
     1 = max # of special neighbors
  special bonds CPU = 0.003 seconds
  read_data CPU = 0.090 seconds
75 atoms in group sphere
16 atoms in group oxygen
1 atoms in group thorium
59 atoms in group 1
60 atoms in group cluster
6000 atoms in group Th
12000 atoms in group O
20 atoms in group Th_group
40 atoms in group O_group
WARNING: Ignoring 'compress yes' for molecular system (../delete_atoms.cpp:125)
Deleted 60 atoms, new total = 17940
75 atoms in group sphere
1 atoms in group oxygen
16 atoms in group thorium
59 atoms in group 1
60 atoms in group cluster
5980 atoms in group Th
11960 atoms in group O
20 atoms in group Th_group
40 atoms in group O_group
WARNING: Ignoring 'compress yes' for molecular system (../delete_atoms.cpp:125)
Deleted 60 atoms, new total = 17880
75 atoms in group sphere
1 atoms in group oxygen
16 atoms in group thorium
59 atoms in group 1
60 atoms in group cluster
5960 atoms in group Th
11920 atoms in group O
20 atoms in group Th_group
40 atoms in group O_group
WARNING: Ignoring 'compress yes' for molecular system (../delete_atoms.cpp:125)
Deleted 60 atoms, new total = 17820
75 atoms in group sphere
1 atoms in group oxygen
16 atoms in group thorium
59 atoms in group 1
60 atoms in group cluster
5940 atoms in group Th
11880 atoms in group O
20 atoms in group Th_group
40 atoms in group O_group
WARNING: Ignoring 'compress yes' for molecular system (../delete_atoms.cpp:125)
Deleted 60 atoms, new total = 17760
75 atoms in group sphere
1 atoms in group oxygen
16 atoms in group thorium
59 atoms in group 1
60 atoms in group cluster
5920 atoms in group Th
11840 atoms in group O
20 atoms in group Th_group
40 atoms in group O_group
WARNING: Ignoring 'compress yes' for molecular system (../delete_atoms.cpp:125)
Deleted 60 atoms, new total = 17700
75 atoms in group sphere
1 atoms in group oxygen
16 atoms in group thorium
59 atoms in group 1
60 atoms in group cluster
5900 atoms in group Th
11800 atoms in group O
20 atoms in group Th_group
40 atoms in group O_group
WARNING: Ignoring 'compress yes' for molecular system (../delete_atoms.cpp:125)
Deleted 60 atoms, new total = 17640
Setting atom values ...
  11760 settings made for charge
Setting atom values ...
  5880 settings made for charge
PPPM initialization ...
  using 12-bit tables for long-range coulomb (../kspace.cpp:328)
  G vector (1/distance) = 0.29912164
  grid = 40 240 40
  stencil order = 5
  estimated absolute RMS force accuracy = 0.00015376724
  estimated relative force accuracy = 1.0678544e-05
  using single precision MKL FFT
  3d grid and FFT values/proc = 18225 7600
Neighbor list info ...
  update every 1 steps, delay 0 steps, check yes
  max neighbors/atom: 2000, page size: 100000
  master list distance cutoff = 13
  ghost atom cutoff = 13
  binsize = 6.5, bins = 5 52 5
  2 neighbor lists, perpetual/occasional/extra = 2 0 0
  (1) pair coul/long, perpetual
      attributes: half, newton on
      pair build: half/bin/newton
      stencil: half/bin/3d/newton
      bin: standard
  (2) pair eam/alloy, perpetual, copy from (1)
      attributes: half, newton on
      pair build: copy
      stencil: none
      bin: none
Setting up cg style minimization ...
  Unit style    : metal
  Current step  : 0
WARNING: Energy due to 3 extra global DOFs will be included in minimizer energies
Per MPI rank memory allocation (min/avg/max) = 9.471 | 10.07 | 10.27 Mbytes
Step Temp E_pair E_mol TotEng Press Volume 
       0            0   -230772.98            0   -230772.98   -783.59252    260641.98 
     403            0   -231571.05            0   -231571.05    40.897656    261312.46 
Loop time of 8.13623 on 52 procs for 403 steps with 17640 atoms

99.6% CPU use with 52 MPI tasks x 1 OpenMP threads

Minimization stats:
  Stopping criterion = linesearch alpha is zero
  Energy initial, next-to-last, final = 
     -230772.982646344  -231571.052124001  -231571.052124001
  Force two-norm initial, final = 718.83654 17.470752
  Force max component initial, final = 645.59917 12.282401
  Final line search alpha, max atom move = 2.4628401e-11 3.0249589e-10
  Iterations, force evaluations = 403 708

MPI task timing breakdown:
Section |  min time  |  avg time  |  max time  |%varavg| %total
---------------------------------------------------------------
Pair    | 4.6201     | 4.8089     | 5.0743     |   5.6 | 59.10
Bond    | 6.354e-05  | 8.8363e-05 | 0.00012562 |   0.0 |  0.00
Kspace  | 1.4217     | 1.6899     | 1.8822     |   9.6 | 20.77
Neigh   | 0.0098432  | 0.01179    | 0.014389   |   1.1 |  0.14
Comm    | 0.15249    | 0.15659    | 0.15961    |   0.4 |  1.92
Output  | 0          | 0          | 0          |   0.0 |  0.00
Modify  | 0          | 0          | 0          |   0.0 |  0.00
Other   |            | 1.469      |            |       | 18.06

Nlocal:        339.231 ave         409 max         283 min
Histogram: 6 4 6 11 3 6 9 0 2 5
Nghost:        5547.44 ave        5734 max        5378 min
Histogram: 2 6 7 7 6 5 7 8 2 2
Neighs:       107458.0 ave      131515 max       89904 min
Histogram: 6 1 14 4 10 5 5 0 4 3

Total # of neighbors = 5587820
Ave neighs/atom = 316.76984
Ave special neighs/atom = 0.0000000
Neighbor list builds = 4
Dangerous builds = 0
Resetting atom IDs ...
PPPM initialization ...
  using 12-bit tables for long-range coulomb (../kspace.cpp:328)
  G vector (1/distance) = 0.2990758
  grid = 40 240 40
  stencil order = 5
  estimated absolute RMS force accuracy = 0.00015412761
  estimated relative force accuracy = 1.070357e-05
  using single precision MKL FFT
  3d grid and FFT values/proc = 18225 7600
Finding 1-2 1-3 1-4 neighbors ...
  special bond factors lj:    0.0      0.0      0.0     
  special bond factors coul:  0.0      0.0      0.0     
     0 = max # of 1-2 neighbors
     0 = max # of 1-3 neighbors
     0 = max # of 1-4 neighbors
     1 = max # of special neighbors
  special bonds CPU = 0.001 seconds
PPPM initialization ...
  using 12-bit tables for long-range coulomb (../kspace.cpp:328)
  G vector (1/distance) = 0.2990758
  grid = 40 240 40
  stencil order = 5
  estimated absolute RMS force accuracy = 0.00015412761
  estimated relative force accuracy = 1.070357e-05
  using single precision MKL FFT
  3d grid and FFT values/proc = 18225 7600
Setting up Verlet run ...
  Unit style    : metal
  Current step  : 403
  Time step     : 0.001
Per MPI rank memory allocation (min/avg/max) = 9.109 | 9.135 | 9.148 Mbytes
Step Dt Time Atoms Temp PotEng KinEng Press Volume 
     403        0.001            0    17640         1500   -231571.05    3420.0295    14020.208    261312.46 
   10000        0.001        9.597    17640     1510.011   -228225.75    3442.8549   -499.65549    272301.91 
   20000        0.001       19.597    17640    1492.2102   -228173.14    3402.2687    407.34685    272308.91 
   30000        0.001       29.597    17640    1504.3497   -228178.29     3429.947   -1156.6678    272556.56 
   40000        0.001       39.597    17640    1499.0447   -228163.39    3417.8515    1296.7026     272135.2 
   50000        0.001       49.597    17640    1502.7158   -228162.07    3426.2217    1126.3771    272190.17 
   60000        0.001       59.597    17640    1500.7963   -228197.41    3421.8452    1708.8604    271971.85 
   70000        0.001       69.597    17640    1501.7611   -228174.19    3424.0448   -566.01231    272440.94 
   80000        0.001       79.597    17640    1489.5794   -228174.78    3396.2705   -226.50111    272308.51 
   90000        0.001       89.597    17640    1489.3579   -228180.78    3395.7653   -540.75635    272484.54 
  100000        0.001       99.597    17640    1487.1896   -228146.75    3390.8216   -1340.1708    272578.51 
  100403        0.001          100    17640    1490.7872   -228191.74    3399.0241    -289.6822     272291.4 
Loop time of 866.885 on 52 procs for 100000 steps with 17640 atoms

Performance: 9.967 ns/day, 2.408 hours/ns, 115.356 timesteps/s
99.8% CPU use with 52 MPI tasks x 1 OpenMP threads

MPI task timing breakdown:
Section |  min time  |  avg time  |  max time  |%varavg| %total
---------------------------------------------------------------
Pair    | 512.71     | 530        | 546.05     |  43.6 | 61.14
Bond    | 0.0086844  | 0.012979   | 0.018408   |   2.0 |  0.00
Kspace  | 180.34     | 197.07     | 215.34     |  75.4 | 22.73
Neigh   | 8.4962     | 9.3483     | 10.111     |  16.1 |  1.08
Comm    | 23.493     | 24.498     | 25.511     |  11.5 |  2.83
Output  | 0.05064    | 0.050681   | 0.052518   |   0.1 |  0.01
Modify  | 92.044     | 97.279     | 101.95     |  25.7 | 11.22
Other   |            | 8.624      |            |       |  0.99

Nlocal:        339.231 ave         364 max         316 min
Histogram: 4 8 8 4 1 6 3 7 6 5
Nghost:        5411.33 ave        5549 max        5339 min
Histogram: 12 12 5 4 2 7 2 4 3 1
Neighs:       102697.0 ave      113034 max       88906 min
Histogram: 2 4 5 5 6 2 8 3 13 4

Total # of neighbors = 5340226
Ave neighs/atom = 302.73390
Ave special neighs/atom = 0.0000000
Neighbor list builds = 3354
Dangerous builds = 0
WARNING: Shell command 'mkdir' failed with error 'File exists' (../input.cpp:1197)
System init for write_data ...
PPPM initialization ...
  using 12-bit tables for long-range coulomb (../kspace.cpp:328)
  G vector (1/distance) = 0.29831867
  grid = 40 240 40
  stencil order = 5
  estimated absolute RMS force accuracy = 0.00016023449
  estimated relative force accuracy = 1.112767e-05
  using single precision MKL FFT
  3d grid and FFT values/proc = 18225 7600
Total wall time: 0:14:35
