LAMMPS (29 Oct 2020)
OMP_NUM_THREADS environment is not set. Defaulting to 1 thread. (../comm.cpp:94)
  using 1 OpenMP thread(s) per MPI task
OMP_NUM_THREADS environment is not set. Defaulting to 1 thread. (../comm.cpp:94)
  using 1 OpenMP thread(s) per MPI task
Reading data file ...
  triclinic box = (0.0000000 0.0000000 0.0000000) to (27.894000 334.72800 27.894000) with tilt (0.0000000 0.0000000 0.0000000)
  2 by 13 by 2 MPI processor grid
  reading atoms ...
  24000 atoms
  reading velocities ...
  24000 velocities
Finding 1-2 1-3 1-4 neighbors ...
  special bond factors lj:    0.0      0.0      0.0     
  special bond factors coul:  0.0      0.0      0.0     
     0 = max # of 1-2 neighbors
     0 = max # of 1-3 neighbors
     0 = max # of 1-4 neighbors
     1 = max # of special neighbors
  special bonds CPU = 0.003 seconds
  read_data CPU = 0.048 seconds
15 atoms in group vac_Th
15 atoms in group oct_Th
30 atoms in group vac_O
30 atoms in group oct_O
3000 atoms in group tot_oct_Th
3000 atoms in group tot_oct_O
2985 atoms in group delete_oct_Th
2970 atoms in group delete_oct_O
WARNING: Ignoring 'compress yes' for molecular system (../delete_atoms.cpp:125)
Deleted 2985 atoms, new total = 21015
WARNING: Ignoring 'compress yes' for molecular system (../delete_atoms.cpp:125)
Deleted 2970 atoms, new total = 18045
WARNING: Ignoring 'compress yes' for molecular system (../delete_atoms.cpp:125)
Deleted 15 atoms, new total = 18030
WARNING: Ignoring 'compress yes' for molecular system (../delete_atoms.cpp:125)
Deleted 30 atoms, new total = 18000
Setting atom values ...
  11970 settings made for charge
Setting atom values ...
  5985 settings made for charge
Setting atom values ...
  30 settings made for charge
Setting atom values ...
  15 settings made for charge
PPPM initialization ...
  using 12-bit tables for long-range coulomb (../kspace.cpp:328)
  G vector (1/distance) = 0.29916851
  grid = 40 240 40
  stencil order = 5
  estimated absolute RMS force accuracy = 0.00015502622
  estimated relative force accuracy = 1.0765975e-05
  using single precision MKL FFT
  3d grid and FFT values/proc = 18225 7600
Neighbor list info ...
  update every 1 steps, delay 0 steps, check yes
  max neighbors/atom: 2000, page size: 100000
  master list distance cutoff = 13
  ghost atom cutoff = 13
  binsize = 6.5, bins = 5 52 5
  2 neighbor lists, perpetual/occasional/extra = 2 0 0
  (1) pair coul/long, perpetual
      attributes: half, newton on
      pair build: half/bin/newton/tri
      stencil: half/bin/3d/newton/tri
      bin: standard
  (2) pair eam/alloy, perpetual, copy from (1)
      attributes: half, newton on
      pair build: copy
      stencil: none
      bin: none
Setting up cg style minimization ...
  Unit style    : metal
  Current step  : 0
WARNING: Energy due to 3 extra global DOFs will be included in minimizer energies
Per MPI rank memory allocation (min/avg/max) = 10.44 | 10.47 | 10.50 Mbytes
Step Temp E_pair E_mol TotEng Press Volume 
       0            0    -235697.8            0    -235697.8    6271.6402    260443.57 
     165            0   -236416.57            0   -236416.57    212.02263    261680.99 
Loop time of 3.71907 on 52 procs for 165 steps with 18000 atoms

99.6% CPU use with 52 MPI tasks x 1 OpenMP threads

Minimization stats:
  Stopping criterion = linesearch alpha is zero
  Energy initial, next-to-last, final = 
     -235697.804061247  -236416.566080285  -236416.566080285
  Force two-norm initial, final = 1829.3532 72.401976
  Force max component initial, final = 1321.6461 53.673204
  Final line search alpha, max atom move = 1.9260330e-12 1.0337636e-10
  Iterations, force evaluations = 165 319

MPI task timing breakdown:
Section |  min time  |  avg time  |  max time  |%varavg| %total
---------------------------------------------------------------
Pair    | 1.9303     | 2.0448     | 2.2223     |   4.9 | 54.98
Bond    | 3.1586e-05 | 4.5171e-05 | 7.1698e-05 |   0.0 |  0.00
Kspace  | 0.65609    | 0.83623    | 0.95264    |   7.7 | 22.48
Neigh   | 0.0029711  | 0.0035243  | 0.0041832  |   0.5 |  0.09
Comm    | 0.073853   | 0.076526   | 0.079187   |   0.6 |  2.06
Output  | 0          | 0          | 0          |   0.0 |  0.00
Modify  | 0          | 0          | 0          |   0.0 |  0.00
Other   |            | 0.7579     |            |       | 20.38

Nlocal:        346.154 ave         401 max         299 min
Histogram: 2 9 1 7 11 9 3 2 6 2
Nghost:        5621.65 ave        5800 max        5493 min
Histogram: 6 9 10 2 2 5 11 3 3 1
Neighs:       111756.0 ave      132392 max       96411 min
Histogram: 5 7 0 10 13 7 3 5 1 1

Total # of neighbors = 5811306
Ave neighs/atom = 322.85033
Ave special neighs/atom = 0.0000000
Neighbor list builds = 1
Dangerous builds = 0
Resetting atom IDs ...
PPPM initialization ...
  using 12-bit tables for long-range coulomb (../kspace.cpp:328)
  G vector (1/distance) = 0.29908384
  grid = 40 240 40
  stencil order = 5
  estimated absolute RMS force accuracy = 0.00015569501
  estimated relative force accuracy = 1.081242e-05
  using single precision MKL FFT
  3d grid and FFT values/proc = 18225 7600
Finding 1-2 1-3 1-4 neighbors ...
  special bond factors lj:    0.0      0.0      0.0     
  special bond factors coul:  0.0      0.0      0.0     
     0 = max # of 1-2 neighbors
     0 = max # of 1-3 neighbors
     0 = max # of 1-4 neighbors
     1 = max # of special neighbors
  special bonds CPU = 0.001 seconds
PPPM initialization ...
  using 12-bit tables for long-range coulomb (../kspace.cpp:328)
  G vector (1/distance) = 0.29908384
  grid = 40 240 40
  stencil order = 5
  estimated absolute RMS force accuracy = 0.00015569501
  estimated relative force accuracy = 1.081242e-05
  using single precision MKL FFT
  3d grid and FFT values/proc = 18225 7600
Setting up Verlet run ...
  Unit style    : metal
  Current step  : 0
  Time step     : 0.001
Per MPI rank memory allocation (min/avg/max) = 10.59 | 10.62 | 10.64 Mbytes
Step Temp KinEng PotEng Press 
       0         1200     2791.864   -236416.57    11607.533 
   10000    1205.9489    2805.7044   -233689.43   -1678.2925 
   20000    1199.0286     2789.604    -233695.1    55.640461 
   30000    1195.8454    2782.1982   -233716.88    935.76741 
   40000    1198.3576    2788.0429   -233719.78   -1270.3768 
   50000    1198.8091    2789.0933   -233700.04   -193.79613 
   60000    1206.5114    2807.0133   -233725.26   -75.883842 
   70000     1205.474    2804.5996   -233687.35    532.67317 
   80000    1193.4479    2776.6203   -233744.63    250.83864 
   90000      1203.69    2800.4489   -233742.77    352.64904 
  100000    1200.3812     2792.751   -233728.09   -766.79757 
Loop time of 895.809 on 52 procs for 100000 steps with 18000 atoms

Performance: 9.645 ns/day, 2.488 hours/ns, 111.631 timesteps/s
100.0% CPU use with 52 MPI tasks x 1 OpenMP threads

MPI task timing breakdown:
Section |  min time  |  avg time  |  max time  |%varavg| %total
---------------------------------------------------------------
Pair    | 500.17     | 513.64     | 533.64     |  30.6 | 57.34
Bond    | 0.009142   | 0.015665   | 0.022251   |   2.6 |  0.00
Kspace  | 196.72     | 217.73     | 232.17     |  49.9 | 24.31
Neigh   | 9.3105     | 9.7017     | 10.371     |   9.9 |  1.08
Comm    | 27.022     | 28.28      | 29.735     |  16.8 |  3.16
Output  | 0.034224   | 0.034293   | 0.036109   |   0.1 |  0.00
Modify  | 105.09     | 111.55     | 118.81     |  31.1 | 12.45
Other   |            | 14.86      |            |       |  1.66

Nlocal:        346.154 ave         363 max         333 min
Histogram: 7 9 7 3 5 4 4 0 4 9
Nghost:        5503.62 ave        5660 max        5365 min
Histogram: 6 4 8 3 6 8 5 4 4 4
Neighs:       107667.0 ave      113467 max      102838 min
Histogram: 6 9 5 5 6 5 1 5 7 3

Total # of neighbors = 5598687
Ave neighs/atom = 311.03817
Ave special neighs/atom = 0.0000000
Neighbor list builds = 2644
Dangerous builds = 0
WARNING: Shell command 'mkdir' failed with error 'File exists' (../input.cpp:1197)
System init for write_data ...
PPPM initialization ...
  using 12-bit tables for long-range coulomb (../kspace.cpp:328)
  G vector (1/distance) = 0.2984483
  grid = 40 240 40
  stencil order = 5
  estimated absolute RMS force accuracy = 0.00016091325
  estimated relative force accuracy = 1.1174807e-05
  using single precision MKL FFT
  3d grid and FFT values/proc = 18225 7600
Total wall time: 0:15:00
