LAMMPS (29 Oct 2020)
OMP_NUM_THREADS environment is not set. Defaulting to 1 thread. (../comm.cpp:94)
  using 1 OpenMP thread(s) per MPI task
OMP_NUM_THREADS environment is not set. Defaulting to 1 thread. (../comm.cpp:94)
  using 1 OpenMP thread(s) per MPI task
Lattice spacing in x,y,z = 5.5788000 5.5788000 5.5788000
Created orthogonal box = (0.0000000 0.0000000 0.0000000) to (27.894000 334.72800 27.894000)
  2 by 13 by 2 MPI processor grid
Changing box ...
  triclinic box = (0.0000000 0.0000000 0.0000000) to (27.894000 334.72800 27.894000) with tilt (0.0000000 0.0000000 0.0000000)
Created 6000 atoms
  create_atoms CPU = 0.007 seconds
Lattice spacing in x,y,z = 5.5788000 5.5788000 5.5788000
Created 12000 atoms
  create_atoms CPU = 0.002 seconds
Lattice spacing in x,y,z = 5.5788000 5.5788000 5.5788000
Created 6000 atoms
  create_atoms CPU = 0.001 seconds
12000 atoms in group oxygen
6000 atoms in group uranium
3000 atoms in group octoxygen
3000 atoms in group octuran
Setting atom values ...
  30 settings made for type/ratio
Setting atom values ...
  15 settings made for type/ratio
Setting atom values ...
  2970 settings made for type/ratio
Setting atom values ...
  2985 settings made for type/ratio
30 atoms in group odel
15 atoms in group udel
2970 atoms in group octOdel
2985 atoms in group octUdel
WARNING: Ignoring 'compress yes' for molecular system (../delete_atoms.cpp:125)
Deleted 30 atoms, new total = 23970
WARNING: Ignoring 'compress yes' for molecular system (../delete_atoms.cpp:125)
Deleted 15 atoms, new total = 23955
WARNING: Ignoring 'compress yes' for molecular system (../delete_atoms.cpp:125)
Deleted 2970 atoms, new total = 20985
WARNING: Ignoring 'compress yes' for molecular system (../delete_atoms.cpp:125)
Deleted 2985 atoms, new total = 18000
12000 atoms in group 1
6000 atoms in group 2
Setting atom values ...
  12000 settings made for type
Setting atom values ...
  6000 settings made for type
Setting atom values ...
  12000 settings made for charge
Setting atom values ...
  6000 settings made for charge
PPPM initialization ...
  using 12-bit tables for long-range coulomb (../kspace.cpp:328)
  G vector (1/distance) = 0.29916851
  grid = 40 240 40
  stencil order = 5
  estimated absolute RMS force accuracy = 0.00015502622
  estimated relative force accuracy = 1.0765975e-05
  using single precision MKL FFT
  3d grid and FFT values/proc = 18225 7600
Neighbor list info ...
  update every 1 steps, delay 0 steps, check yes
  max neighbors/atom: 2000, page size: 100000
  master list distance cutoff = 13
  ghost atom cutoff = 13
  binsize = 6.5, bins = 5 52 5
  2 neighbor lists, perpetual/occasional/extra = 2 0 0
  (1) pair coul/long, perpetual
      attributes: half, newton on
      pair build: half/bin/newton/tri
      stencil: half/bin/3d/newton/tri
      bin: standard
  (2) pair eam/alloy, perpetual, copy from (1)
      attributes: half, newton on
      pair build: copy
      stencil: none
      bin: none
Setting up cg style minimization ...
  Unit style    : metal
  Current step  : 0
WARNING: Energy due to 3 extra global DOFs will be included in minimizer energies
Per MPI rank memory allocation (min/avg/max) = 10.44 | 10.47 | 10.49 Mbytes
Step Temp E_pair E_mol TotEng Press Volume 
       0            0   -234876.63            0   -234876.63    7945.6869    260443.57 
     183            0   -236179.05            0   -236179.05    63.749164    262391.09 
Loop time of 3.37169 on 52 procs for 183 steps with 18000 atoms

99.4% CPU use with 52 MPI tasks x 1 OpenMP threads

Minimization stats:
  Stopping criterion = linesearch alpha is zero
  Energy initial, next-to-last, final = 
     -234876.631450708  -236179.046650198  -236179.046650198
  Force two-norm initial, final = 2720.2903 44.470449
  Force max component initial, final = 1924.9946 31.206047
  Final line search alpha, max atom move = 4.1738634e-12 1.3024978e-10
  Iterations, force evaluations = 183 281

MPI task timing breakdown:
Section |  min time  |  avg time  |  max time  |%varavg| %total
---------------------------------------------------------------
Pair    | 1.808      | 1.9244     | 2.0261     |   3.3 | 57.08
Bond    | 2.7599e-05 | 3.8908e-05 | 5.8939e-05 |   0.0 |  0.00
Kspace  | 0.55782    | 0.66017    | 0.77814    |   5.6 | 19.58
Neigh   | 0.0069758  | 0.0080839  | 0.0092556  |   0.6 |  0.24
Comm    | 0.054699   | 0.056044   | 0.058233   |   0.3 |  1.66
Output  | 0          | 0          | 0          |   0.0 |  0.00
Modify  | 0          | 0          | 0          |   0.0 |  0.00
Other   |            | 0.723      |            |       | 21.44

Nlocal:        346.154 ave         392 max         299 min
Histogram: 4 1 5 7 14 5 2 4 6 4
Nghost:        5656.98 ave        5808 max        5520 min
Histogram: 7 8 5 0 3 9 8 3 1 8
Neighs:       111712.0 ave      127431 max       96661 min
Histogram: 4 0 8 7 15 2 2 6 5 3

Total # of neighbors = 5809007
Ave neighs/atom = 322.72261
Ave special neighs/atom = 0.0000000
Neighbor list builds = 2
Dangerous builds = 0
Resetting atom IDs ...
PPPM initialization ...
  using 12-bit tables for long-range coulomb (../kspace.cpp:328)
  G vector (1/distance) = 0.29905291
  grid = 40 240 40
  stencil order = 5
  estimated absolute RMS force accuracy = 0.00015585195
  estimated relative force accuracy = 1.0823319e-05
  using single precision MKL FFT
  3d grid and FFT values/proc = 18225 7600
Finding 1-2 1-3 1-4 neighbors ...
  special bond factors lj:    0.0      0.0      0.0     
  special bond factors coul:  0.0      0.0      0.0     
     0 = max # of 1-2 neighbors
     0 = max # of 1-3 neighbors
     0 = max # of 1-4 neighbors
     1 = max # of special neighbors
  special bonds CPU = 0.002 seconds
PPPM initialization ...
  using 12-bit tables for long-range coulomb (../kspace.cpp:328)
  G vector (1/distance) = 0.29905291
  grid = 40 240 40
  stencil order = 5
  estimated absolute RMS force accuracy = 0.00015585195
  estimated relative force accuracy = 1.0823319e-05
  using single precision MKL FFT
  3d grid and FFT values/proc = 18225 7600
Setting up Verlet run ...
  Unit style    : metal
  Current step  : 0
  Time step     : 0.001
Per MPI rank memory allocation (min/avg/max) = 10.59 | 10.62 | 10.64 Mbytes
Step Temp KinEng PotEng Press 
       0         1200     2791.864   -236179.05    11428.355 
   10000    1203.8651    2800.8565   -233569.82   -951.03199 
   20000    1204.5126    2802.3629   -233648.43   -632.22388 
   30000    1193.8924    2777.6544   -233605.38     434.7906 
   40000    1198.8428    2789.1718   -233683.43     567.5801 
   50000    1186.1071    2759.5414   -233649.09      157.955 
   60000    1191.3524     2771.745   -233679.63   -1815.6251 
   70000    1200.5814    2793.2166    -233685.7   -273.96331 
   80000    1206.4741    2806.9264   -233696.66    510.33225 
   90000    1208.0003    2810.4772   -233680.03    825.05382 
  100000    1205.0237    2803.5519   -233688.88    1987.4309 
  110000    1191.6891    2772.5283   -233680.44    908.57364 
  120000     1204.359    2802.0055   -233671.32   -393.03642 
  130000    1196.9989    2784.8818   -233670.86     749.7859 
  140000    1208.7174    2812.1456   -233686.95    732.70353 
  150000    1201.4803    2795.3081   -233685.66    1041.2512 
  160000     1214.269    2825.0615   -233678.69    1039.4129 
  170000    1199.1651    2789.9217   -233676.33    1188.2474 
  180000    1205.3464    2804.3027   -233703.07   -437.79098 
  190000    1202.5414    2797.7767   -233673.49   -1005.8865 
  200000    1206.3001    2806.5215   -233670.65    128.69578 
  210000     1209.893    2814.8807   -233705.35    243.20207 
  220000    1205.7292    2805.1932    -233687.2    1589.8673 
  230000    1196.7041     2784.196   -233687.77    930.70684 
  240000    1194.3495    2778.7177   -233725.34    836.90963 
  250000    1198.9484    2789.4174   -233673.69    530.90858 
  260000     1193.686    2777.1743      -233664   -730.62769 
  270000    1211.6558    2818.9819   -233628.88    1815.2772 
  280000    1211.0419    2817.5535   -233669.37   -758.84981 
  290000    1185.8635    2758.9748    -233672.4   -31.905065 
  300000    1211.8824    2819.5091   -233687.99   -454.29452 
  310000    1196.8635    2784.5667    -233700.5    2118.8038 
  320000     1189.975    2768.5404   -233705.66   -1691.4595 
  330000    1204.8356    2803.1144   -233691.58    929.11851 
  340000     1205.589     2804.867   -233683.58    969.51527 
  350000    1198.0253    2787.2698   -233694.29    2336.5615 
  360000    1187.7322    2763.3224    -233705.7    270.03963 
  370000    1195.8407    2782.1873   -233690.28   -135.72311 
  380000    1201.1161    2794.4608   -233670.37   -303.05314 
  390000     1208.438    2811.4955   -233710.72     598.0507 
  400000    1200.5466    2793.1358   -233656.19   -646.10888 
  410000    1192.0285    2773.3179   -233718.95   -1694.4188 
  420000    1199.5824    2790.8923   -233670.77   -1081.5553 
  430000    1208.8334    2812.4153    -233660.4    298.43463 
  440000    1201.4665    2795.2759   -233700.15   -673.82189 
  450000    1201.1477    2794.5342   -233701.82    1610.5964 
  460000    1184.1999    2755.1042   -233704.11   -1159.2725 
  470000    1191.8863    2772.9871   -233667.68    882.89472 
  480000    1190.7421    2770.3249   -233682.51   -741.41517 
  490000    1193.1457    2775.9172   -233683.03    27.582275 
  500000    1185.2413    2757.5271   -233687.65   -859.57557 
Loop time of 4591.4 on 52 procs for 500000 steps with 18000 atoms

Performance: 9.409 ns/day, 2.551 hours/ns, 108.899 timesteps/s
99.8% CPU use with 52 MPI tasks x 1 OpenMP threads

MPI task timing breakdown:
Section |  min time  |  avg time  |  max time  |%varavg| %total
---------------------------------------------------------------
Pair    | 2740.5     | 2781.4     | 2833.8     |  42.7 | 60.58
Bond    | 0.048773   | 0.07508    | 0.10855    |   4.5 |  0.00
Kspace  | 947.28     | 1000.1     | 1043.8     |  75.3 | 21.78
Neigh   | 51.496     | 53.445     | 56.208     |  20.0 |  1.16
Comm    | 99.159     | 103.85     | 108.11     |  24.1 |  2.26
Output  | 0.34287    | 0.34313    | 0.35185    |   0.2 |  0.01
Modify  | 584.61     | 608        | 634.98     |  58.5 | 13.24
Other   |            | 44.17      |            |       |  0.96

Nlocal:        346.154 ave         365 max         334 min
Histogram: 5 16 3 8 2 3 5 1 7 2
Nghost:        5561.77 ave        5662 max        5462 min
Histogram: 5 4 8 9 2 3 2 6 7 6
Neighs:       107759.0 ave      113091 max      103030 min
Histogram: 2 5 16 0 10 1 5 2 5 6

Total # of neighbors = 5603447
Ave neighs/atom = 311.30261
Ave special neighs/atom = 0.0000000
Neighbor list builds = 13263
Dangerous builds = 0
System init for write_data ...
PPPM initialization ...
  using 12-bit tables for long-range coulomb (../kspace.cpp:328)
  G vector (1/distance) = 0.2984651
  grid = 40 240 40
  stencil order = 5
  estimated absolute RMS force accuracy = 0.00016068616
  estimated relative force accuracy = 1.1159036e-05
  using single precision MKL FFT
  3d grid and FFT values/proc = 18225 7600
Total wall time: 1:16:35
