LAMMPS (29 Oct 2020)
OMP_NUM_THREADS environment is not set. Defaulting to 1 thread. (../comm.cpp:94)
  using 1 OpenMP thread(s) per MPI task
OMP_NUM_THREADS environment is not set. Defaulting to 1 thread. (../comm.cpp:94)
  using 1 OpenMP thread(s) per MPI task
Reading data file ...
  orthogonal box = (-0.40622506 -4.8109573 -0.40757049) to (27.746225 332.89096 27.747570)
  2 by 13 by 2 MPI processor grid
  reading atoms ...
  17910 atoms
  reading velocities ...
  17910 velocities
Finding 1-2 1-3 1-4 neighbors ...
  special bond factors lj:    0.0      0.0      0.0     
  special bond factors coul:  0.0      0.0      0.0     
     0 = max # of 1-2 neighbors
     0 = max # of 1-3 neighbors
     0 = max # of 1-4 neighbors
     1 = max # of special neighbors
  special bonds CPU = 0.007 seconds
  read_data CPU = 0.085 seconds
Setting atom values ...
  11940 settings made for charge
Setting atom values ...
  5970 settings made for charge
PPPM initialization ...
  using 12-bit tables for long-range coulomb (../kspace.cpp:328)
  G vector (1/distance) = 0.2986594
  grid = 40 240 40
  stencil order = 5
  estimated absolute RMS force accuracy = 0.00015871146
  estimated relative force accuracy = 1.1021901e-05
  using single precision MKL FFT
  3d grid and FFT values/proc = 15000 7600
Neighbor list info ...
  update every 1 steps, delay 0 steps, check yes
  max neighbors/atom: 2000, page size: 100000
  master list distance cutoff = 11.3
  ghost atom cutoff = 11.3
  binsize = 5.65, bins = 5 60 5
  2 neighbor lists, perpetual/occasional/extra = 2 0 0
  (1) pair coul/long, perpetual
      attributes: half, newton on
      pair build: half/bin/newton
      stencil: half/bin/3d/newton
      bin: standard
  (2) pair eam/alloy, perpetual, copy from (1)
      attributes: half, newton on
      pair build: copy
      stencil: none
      bin: none
Setting up Verlet run ...
  Unit style    : metal
  Current step  : 0
  Time step     : 0.001
Per MPI rank memory allocation (min/avg/max) = 8.154 | 8.177 | 8.189 Mbytes
Step Temp E_pair E_mol TotEng Press 
       0          900   -233358.55            0   -231275.12    -1483.055 
  100000    900.16031   -233366.48            0   -231282.68   -1985.4561 
Loop time of 665.58 on 52 procs for 100000 steps with 17910 atoms

Performance: 12.981 ns/day, 1.849 hours/ns, 150.245 timesteps/s
99.8% CPU use with 52 MPI tasks x 1 OpenMP threads

MPI task timing breakdown:
Section |  min time  |  avg time  |  max time  |%varavg| %total
---------------------------------------------------------------
Pair    | 444.56     | 450.71     | 461.64     |  20.0 | 67.72
Bond    | 0.0071891  | 0.0099854  | 0.014842   |   1.8 |  0.00
Kspace  | 135.97     | 149.16     | 156.7      |  42.6 | 22.41
Neigh   | 39.395     | 41.947     | 44.585     |  19.8 |  6.30
Comm    | 17.761     | 19.394     | 20.98      |  17.5 |  2.91
Output  | 5.6249e-05 | 6.0918e-05 | 0.00027108 |   0.0 |  0.00
Modify  | 2.1046     | 2.9203     | 5.1168     |  52.2 |  0.44
Other   |            | 1.443      |            |       |  0.22

Nlocal:        344.423 ave         363 max         325 min
Histogram: 1 4 6 10 8 4 5 5 3 6
Nghost:        4073.40 ave        4189 max        3988 min
Histogram: 5 8 7 9 7 3 1 3 5 4
Neighs:        69195.1 ave       74102 max       64582 min
Histogram: 1 2 12 4 10 5 7 7 2 2

Total # of neighbors = 3598146
Ave neighs/atom = 200.90151
Ave special neighs/atom = 0.0000000
Neighbor list builds = 19790
Dangerous builds = 0
11940 atoms in group oxygen
PPPM initialization ...
  using 12-bit tables for long-range coulomb (../kspace.cpp:328)
  G vector (1/distance) = 0.2986594
  grid = 40 240 40
  stencil order = 5
  estimated absolute RMS force accuracy = 0.00015871146
  estimated relative force accuracy = 1.1021901e-05
  using single precision MKL FFT
  3d grid and FFT values/proc = 15000 7600
Setting up Verlet run ...
  Unit style    : metal
  Current step  : 0
  Time step     : 0.001
Per MPI rank memory allocation (min/avg/max) = 8.404 | 8.427 | 8.440 Mbytes
Step f_2 Temp v_Tdiff v_deltaT 
       0            0    900.16031            0            0 
  100000    1007.1397    895.52867  0.031746836    368.57782 
  200000    1983.1888    902.35148  0.035267622    409.45382 
  300000    2964.6209    901.75373  0.035846208    416.17114 
  400000    3944.4271    907.48612  0.035456452    411.64612 
  500000    4921.8109     911.2299  0.037010151    429.68442 
  600000    5897.1287    898.66599  0.035569246    412.95565 
  700000    6867.6708     903.0983  0.036216495    420.47014 
  800000    7850.6037    908.28538  0.035923395    417.06728 
  900000     8825.253    904.15669  0.036188332    420.14317 
 1000000     9798.882    904.50834  0.035646332     413.8506 
 1100000    10779.409      907.029  0.035103227     407.5452 
 1200000    11752.222    902.23888  0.037255249    432.52998 
 1300000    12725.798    907.14148  0.036463662    423.33973 
 1400000    13695.862    896.26563  0.036275388    421.15388 
 1500000      14666.9    901.97115  0.036709306    426.19163 
Loop time of 9930.92 on 52 procs for 1500000 steps with 17910 atoms

Performance: 13.050 ns/day, 1.839 hours/ns, 151.043 timesteps/s
99.8% CPU use with 52 MPI tasks x 1 OpenMP threads

MPI task timing breakdown:
Section |  min time  |  avg time  |  max time  |%varavg| %total
---------------------------------------------------------------
Pair    | 6587.2     | 6718.1     | 6867.2     |  79.0 | 67.65
Bond    | 0.10033    | 0.15214    | 0.23764    |   7.2 |  0.00
Kspace  | 2065.3     | 2227.1     | 2346.7     | 145.6 | 22.43
Neigh   | 607.71     | 640.53     | 680.9      |  68.8 |  6.45
Comm    | 268.96     | 293.26     | 317.87     |  74.7 |  2.95
Output  | 0.0017877  | 0.0018737  | 0.0036127  |   0.6 |  0.00
Modify  | 8.926      | 9.6077     | 10.579     |  12.6 |  0.10
Other   |            | 42.21      |            |       |  0.43

Nlocal:        344.423 ave         366 max         327 min
Histogram: 2 5 5 10 8 8 8 3 2 1
Nghost:        4072.88 ave        4167 max        3986 min
Histogram: 4 8 5 2 6 8 9 4 2 4
Neighs:        69197.9 ave       73038 max       65622 min
Histogram: 2 5 6 4 10 7 9 6 1 2

Total # of neighbors = 3598290
Ave neighs/atom = 200.90955
Ave special neighs/atom = 0.0000000
Neighbor list builds = 302357
Dangerous builds = 0
Total wall time: 2:56:36
