LAMMPS (29 Oct 2020)
OMP_NUM_THREADS environment is not set. Defaulting to 1 thread. (../comm.cpp:94)
  using 1 OpenMP thread(s) per MPI task
OMP_NUM_THREADS environment is not set. Defaulting to 1 thread. (../comm.cpp:94)
  using 1 OpenMP thread(s) per MPI task
Reading data file ...
  triclinic box = (-0.22032999 -4.2907158 -0.23322894) to (28.114330 339.01872 28.127229) with tilt (0.0000000 0.0000000 0.0000000)
  2 by 13 by 2 MPI processor grid
  reading atoms ...
  18000 atoms
  reading velocities ...
  18000 velocities
Finding 1-2 1-3 1-4 neighbors ...
  special bond factors lj:    0.0      0.0      0.0     
  special bond factors coul:  0.0      0.0      0.0     
     0 = max # of 1-2 neighbors
     0 = max # of 1-3 neighbors
     0 = max # of 1-4 neighbors
     1 = max # of special neighbors
  special bonds CPU = 0.004 seconds
  read_data CPU = 0.058 seconds
Setting atom values ...
  11880 settings made for charge
Setting atom values ...
  5940 settings made for charge
PPPM initialization ...
  using 12-bit tables for long-range coulomb (../kspace.cpp:328)
  G vector (1/distance) = 0.2980062
  grid = 40 240 40
  stencil order = 5
  estimated absolute RMS force accuracy = 0.00016497699
  estimated relative force accuracy = 1.1457018e-05
  using single precision MKL FFT
  3d grid and FFT values/proc = 15000 7600
Neighbor list info ...
  update every 1 steps, delay 0 steps, check yes
  max neighbors/atom: 2000, page size: 100000
  master list distance cutoff = 11.3
  ghost atom cutoff = 11.3
  binsize = 5.65, bins = 6 61 6
  2 neighbor lists, perpetual/occasional/extra = 2 0 0
  (1) pair coul/long, perpetual
      attributes: half, newton on
      pair build: half/bin/newton/tri
      stencil: half/bin/3d/newton/tri
      bin: standard
  (2) pair eam/alloy, perpetual, copy from (1)
      attributes: half, newton on
      pair build: copy
      stencil: none
      bin: none
Setting up Verlet run ...
  Unit style    : metal
  Current step  : 0
  Time step     : 0.001
Per MPI rank memory allocation (min/avg/max) = 8.313 | 8.339 | 8.361 Mbytes
Step Temp E_pair E_mol TotEng Press 
       0         1500   -232705.06            0   -229215.23   -2532.2055 
  100000    1493.4344   -232688.04            0   -229213.48   -2121.5859 
Loop time of 723.537 on 52 procs for 100000 steps with 18000 atoms

Performance: 11.941 ns/day, 2.010 hours/ns, 138.210 timesteps/s
99.8% CPU use with 52 MPI tasks x 1 OpenMP threads

MPI task timing breakdown:
Section |  min time  |  avg time  |  max time  |%varavg| %total
---------------------------------------------------------------
Pair    | 454.75     | 467.07     | 482.73     |  33.1 | 64.55
Bond    | 0.0064729  | 0.010458   | 0.015319   |   1.8 |  0.00
Kspace  | 146.22     | 166.03     | 182.72     |  70.4 | 22.95
Neigh   | 58.864     | 63.225     | 69.853     |  33.3 |  8.74
Comm    | 19.62      | 21.825     | 26.028     |  29.5 |  3.02
Output  | 5.5832e-05 | 6.1389e-05 | 0.00026853 |   0.0 |  0.00
Modify  | 1.9234     | 3.8451     | 5.6641     |  63.7 |  0.53
Other   |            | 1.536      |            |       |  0.21

Nlocal:        346.154 ave         363 max         326 min
Histogram: 2 7 3 3 7 9 5 4 6 6
Nghost:        3952.40 ave        4061 max        3867 min
Histogram: 8 7 7 5 2 6 5 2 2 8
Neighs:        68961.0 ave       72941 max       64088 min
Histogram: 3 1 7 4 8 6 7 4 7 5

Total # of neighbors = 3585972
Ave neighs/atom = 199.22067
Ave special neighs/atom = 0.0000000
Neighbor list builds = 24996
Dangerous builds = 0
11880 atoms in group oxygen
PPPM initialization ...
  using 12-bit tables for long-range coulomb (../kspace.cpp:328)
  G vector (1/distance) = 0.2980062
  grid = 40 240 40
  stencil order = 5
  estimated absolute RMS force accuracy = 0.00016497699
  estimated relative force accuracy = 1.1457018e-05
  using single precision MKL FFT
  3d grid and FFT values/proc = 15000 7600
Setting up Verlet run ...
  Unit style    : metal
  Current step  : 0
  Time step     : 0.001
Per MPI rank memory allocation (min/avg/max) = 8.564 | 8.590 | 8.611 Mbytes
Step f_2 Temp v_Tdiff v_deltaT 
       0            0    1493.4344            0            0 
  100000    1563.5174     1503.083  0.067158808    779.70752 
  200000     3002.399    1501.5907  0.085057264    987.50693 
  300000    4449.0468    1493.6443  0.085697635    994.94159 
  400000    5899.5231    1492.6442  0.082433267    957.04257 
  500000     7345.185    1503.3858  0.084104101     976.4408 
  600000     8783.304    1495.9478  0.085719818    995.19913 
  700000    10230.449     1500.614  0.085388857     991.3567 
  800000    11679.632    1492.2509  0.084427122    980.19105 
  900000    13104.222    1507.4433  0.086217045    1000.9719 
 1000000    14538.378    1488.2259   0.08568002    994.73707 
Loop time of 7248.03 on 52 procs for 1000000 steps with 18000 atoms

Performance: 11.920 ns/day, 2.013 hours/ns, 137.968 timesteps/s
99.8% CPU use with 52 MPI tasks x 1 OpenMP threads

MPI task timing breakdown:
Section |  min time  |  avg time  |  max time  |%varavg| %total
---------------------------------------------------------------
Pair    | 4473.2     | 4652       | 4818.8     | 155.3 | 64.18
Bond    | 0.073608   | 0.1039     | 0.15293    |   5.9 |  0.00
Kspace  | 1467.2     | 1686.8     | 1896.7     | 293.0 | 23.27
Neigh   | 605.79     | 646.16     | 732.49     | 106.9 |  8.91
Comm    | 198.29     | 218.84     | 260.79     |  92.1 |  3.02
Output  | 0.0010616  | 0.0011257  | 0.0023395  |   0.5 |  0.00
Modify  | 5.539      | 6.3707     | 7.2221     |  15.9 |  0.09
Other   |            | 37.75      |            |       |  0.52

Nlocal:        346.154 ave         367 max         328 min
Histogram: 3 1 10 7 8 11 5 3 3 1
Nghost:        3966.75 ave        4075 max        3873 min
Histogram: 3 3 8 10 8 3 6 4 4 3
Neighs:        68939.2 ave       73842 max       65186 min
Histogram: 3 6 7 8 9 10 2 3 2 2

Total # of neighbors = 3584841
Ave neighs/atom = 199.15783
Ave special neighs/atom = 0.0000000
Neighbor list builds = 253395
Dangerous builds = 0
Total wall time: 2:12:52
