LAMMPS (29 Oct 2020)
OMP_NUM_THREADS environment is not set. Defaulting to 1 thread. (../comm.cpp:94)
  using 1 OpenMP thread(s) per MPI task
OMP_NUM_THREADS environment is not set. Defaulting to 1 thread. (../comm.cpp:94)
  using 1 OpenMP thread(s) per MPI task
Reading data file ...
  orthogonal box = (-0.38767471 -4.7241006 -0.40124735) to (27.727675 332.80410 27.741247)
  2 by 13 by 2 MPI processor grid
  reading atoms ...
  17640 atoms
  reading velocities ...
  17640 velocities
Finding 1-2 1-3 1-4 neighbors ...
  special bond factors lj:    0.0      0.0      0.0     
  special bond factors coul:  0.0      0.0      0.0     
     0 = max # of 1-2 neighbors
     0 = max # of 1-3 neighbors
     0 = max # of 1-4 neighbors
     1 = max # of special neighbors
  special bonds CPU = 0.003 seconds
  read_data CPU = 0.087 seconds
Setting atom values ...
  11760 settings made for charge
Setting atom values ...
  5880 settings made for charge
PPPM initialization ...
  using 12-bit tables for long-range coulomb (../kspace.cpp:328)
  G vector (1/distance) = 0.29868009
  grid = 40 240 40
  stencil order = 5
  estimated absolute RMS force accuracy = 0.00015728569
  estimated relative force accuracy = 1.0922886e-05
  using single precision MKL FFT
  3d grid and FFT values/proc = 15000 7600
Neighbor list info ...
  update every 1 steps, delay 0 steps, check yes
  max neighbors/atom: 2000, page size: 100000
  master list distance cutoff = 11.3
  ghost atom cutoff = 11.3
  binsize = 5.65, bins = 5 60 5
  2 neighbor lists, perpetual/occasional/extra = 2 0 0
  (1) pair coul/long, perpetual
      attributes: half, newton on
      pair build: half/bin/newton
      stencil: half/bin/3d/newton
      bin: standard
  (2) pair eam/alloy, perpetual, copy from (1)
      attributes: half, newton on
      pair build: copy
      stencil: none
      bin: none
Setting up Verlet run ...
  Unit style    : metal
  Current step  : 0
  Time step     : 0.001
Per MPI rank memory allocation (min/avg/max) = 8.152 | 8.174 | 8.190 Mbytes
Step Temp E_pair E_mol TotEng Press 
       0          900   -229699.16            0   -227647.14    1194.2397 
   50000    903.30432   -229693.01            0   -227633.46    1267.4276 
Loop time of 331.127 on 52 procs for 50000 steps with 17640 atoms

Performance: 13.046 ns/day, 1.840 hours/ns, 151.000 timesteps/s
99.8% CPU use with 52 MPI tasks x 1 OpenMP threads

MPI task timing breakdown:
Section |  min time  |  avg time  |  max time  |%varavg| %total
---------------------------------------------------------------
Pair    | 215.46     | 221.72     | 230.8      |  21.8 | 66.96
Bond    | 0.0030878  | 0.0051296  | 0.0074831  |   1.5 |  0.00
Kspace  | 66.757     | 77.251     | 84.588     |  40.5 | 23.33
Neigh   | 18.748     | 20.351     | 22.069     |  18.0 |  6.15
Comm    | 8.7354     | 9.6263     | 10.805     |  15.6 |  2.91
Output  | 4.9017e-05 | 5.4288e-05 | 0.00026453 |   0.0 |  0.00
Modify  | 1.0898     | 1.46       | 2.2517     |  29.6 |  0.44
Other   |            | 0.7124     |            |       |  0.22

Nlocal:        339.231 ave         362 max         321 min
Histogram: 7 4 4 8 7 9 4 3 2 4
Nghost:        4030.54 ave        4143 max        3936 min
Histogram: 5 7 7 6 7 4 3 5 2 6
Neighs:        67318.2 ave       73211 max       61094 min
Histogram: 2 4 4 5 10 10 6 5 2 4

Total # of neighbors = 3500545
Ave neighs/atom = 198.44359
Ave special neighs/atom = 0.0000000
Neighbor list builds = 9880
Dangerous builds = 0
11760 atoms in group oxygen
PPPM initialization ...
  using 12-bit tables for long-range coulomb (../kspace.cpp:328)
  G vector (1/distance) = 0.29868009
  grid = 40 240 40
  stencil order = 5
  estimated absolute RMS force accuracy = 0.00015728569
  estimated relative force accuracy = 1.0922886e-05
  using single precision MKL FFT
  3d grid and FFT values/proc = 15000 7600
Setting up Verlet run ...
  Unit style    : metal
  Current step  : 0
  Time step     : 0.001
Per MPI rank memory allocation (min/avg/max) = 8.402 | 8.425 | 8.440 Mbytes
Step f_2 Temp v_Tdiff v_deltaT 
       0            0    903.30432            0            0 
  100000      1007.75    909.99372  0.032555939    377.97143 
  200000    1990.8026    903.88588  0.035437391    411.42482 
  300000    2964.8669    912.45621  0.038494134    446.91332 
  400000    3924.9574    907.19684  0.039086037    453.78526 
  500000    4894.1846    913.76132  0.037607051    436.61437 
  600000     5868.969    910.47712  0.037582124    436.32497 
  700000    6840.4981    907.31083  0.038173208     443.1874 
  800000    7812.9452    901.48677  0.037749259    438.26539 
  900000    8783.8533    908.32074  0.039109451    454.05709 
 1000000    9754.1123    908.41618  0.037693288    437.61557 
Loop time of 6617.12 on 52 procs for 1000000 steps with 17640 atoms

Performance: 13.057 ns/day, 1.838 hours/ns, 151.123 timesteps/s
99.8% CPU use with 52 MPI tasks x 1 OpenMP threads

MPI task timing breakdown:
Section |  min time  |  avg time  |  max time  |%varavg| %total
---------------------------------------------------------------
Pair    | 4265.2     | 4412       | 4594.6     | 109.8 | 66.68
Bond    | 0.058799   | 0.10168    | 0.13442    |   5.7 |  0.00
Kspace  | 1353.8     | 1557.8     | 1687       | 188.3 | 23.54
Neigh   | 383.21     | 416.64     | 455.34     |  74.2 |  6.30
Comm    | 173.91     | 195.16     | 219.25     |  75.5 |  2.95
Output  | 0.0010923  | 0.0011752  | 0.0033528  |   0.9 |  0.00
Modify  | 5.5415     | 6.4414     | 7.3897     |  16.8 |  0.10
Other   |            | 28.92      |            |       |  0.44

Nlocal:        339.231 ave         366 max         323 min
Histogram: 5 4 11 9 11 6 3 0 1 2
Nghost:        4037.81 ave        4112 max        3939 min
Histogram: 2 6 6 2 2 11 3 3 7 10
Neighs:        67307.6 ave       74258 max       61873 min
Histogram: 4 2 7 8 10 9 7 3 1 1

Total # of neighbors = 3499993
Ave neighs/atom = 198.41230
Ave special neighs/atom = 0.0000000
Neighbor list builds = 201960
Dangerous builds = 0
Total wall time: 1:55:48
