LAMMPS (29 Oct 2020)
OMP_NUM_THREADS environment is not set. Defaulting to 1 thread. (../comm.cpp:94)
  using 1 OpenMP thread(s) per MPI task
#-------------------------
#
#This script is used to create different concentrations of vacancies in thorium dioxide
#By Ziqiang Wang on 07/03/2023
#
#-------------------------

clear
OMP_NUM_THREADS environment is not set. Defaulting to 1 thread. (../comm.cpp:94)
  using 1 OpenMP thread(s) per MPI task
units                        metal
dimension                        3
boundary                     p p p
atom_style                   full
atom_modify                  map array

read_data                   ThO2_unitcell.dat
Reading data file ...
  orthogonal box = (0.0000000 0.0000000 0.0000000) to (5.4680000 5.4680000 5.4680000)
  2 by 4 by 13 MPI processor grid
  reading atoms ...
  12 atoms
Finding 1-2 1-3 1-4 neighbors ...
  special bond factors lj:    0.0      0.0      0.0     
  special bond factors coul:  0.0      0.0      0.0     
     0 = max # of 1-2 neighbors
     0 = max # of 1-3 neighbors
     0 = max # of 1-4 neighbors
     1 = max # of special neighbors
  special bonds CPU = 0.108 seconds
  read_data CPU = 0.118 seconds
replicate                   5  60  5
Replicating atoms ...
  orthogonal box = (0.0000000 0.0000000 0.0000000) to (27.340000 328.08000 27.340000)
  2 by 26 by 2 MPI processor grid
  18000 atoms
Finding 1-2 1-3 1-4 neighbors ...
  special bond factors lj:    0.0      0.0      0.0     
  special bond factors coul:  0.0      0.0      0.0     
     0 = max # of 1-2 neighbors
     0 = max # of 1-3 neighbors
     0 = max # of 1-4 neighbors
     1 = max # of special neighbors
  special bonds CPU = 1.361 seconds
  replicate CPU = 1.372 seconds

set                         type    1      charge   -1.1104
Setting atom values ...
  12000 settings made for charge
set                         type    2      charge    2.2208
Setting atom values ...
  6000 settings made for charge

kspace_style                pppm     1.0e-05
pair_style                  hybrid/overlay    coul/long   11.0  eam/alloy
pair_coeff                  * * coul/long
pair_coeff                  * * eam/alloy CeThUNpPuAmCmO.eam.alloy O Th Th O
neighbor                    2.0  bin
neigh_modify                every  1  delay  0  check  yes

# Fully relaxing the perfect crystal at 0K
fix                         box_relax  all  box/relax  aniso  0.0  vmax  0.001
min_style                   cg
minimize                    1.0e-30 1.0e-30 10000 10000
PPPM initialization ...
  using 12-bit tables for long-range coulomb (../kspace.cpp:328)
  G vector (1/distance) = 0.30025168
  grid = 40 240 40
  stencil order = 5
  estimated absolute RMS force accuracy = 0.00014651476
  estimated relative force accuracy = 1.0174887e-05
  using single precision MKL FFT
  3d grid and FFT values/proc = 11664 4000
Neighbor list info ...
  update every 1 steps, delay 0 steps, check yes
  max neighbors/atom: 2000, page size: 100000
  master list distance cutoff = 13
  ghost atom cutoff = 13
  binsize = 6.5, bins = 5 51 5
  2 neighbor lists, perpetual/occasional/extra = 2 0 0
  (1) pair coul/long, perpetual
      attributes: half, newton on
      pair build: half/bin/newton
      stencil: half/bin/3d/newton
      bin: standard
  (2) pair eam/alloy, perpetual, copy from (1)
      attributes: half, newton on
      pair build: copy
      stencil: none
      bin: none
Per MPI rank memory allocation (min/avg/max) = 9.018 | 9.038 | 9.063 Mbytes
Step Temp E_pair E_mol TotEng Press Volume 
       0            0   -236328.77            0   -236328.77    136383.26    245231.79 
      24            0   -236946.21            0   -236946.21   -61.949296    260641.98 
Loop time of 1.00784 on 104 procs for 24 steps with 18000 atoms

99.0% CPU use with 104 MPI tasks x 1 OpenMP threads

Minimization stats:
  Stopping criterion = linesearch alpha is zero
  Energy initial, next-to-last, final = 
     -236328.767350111  -236946.208617833  -236946.208617833
  Force two-norm initial, final = 36156.645 224.47553
  Force max component initial, final = 20875.510 192.58659
  Final line search alpha, max atom move = 1.5474765e-13 2.9802322e-11
  Iterations, force evaluations = 24 100

MPI task timing breakdown:
Section |  min time  |  avg time  |  max time  |%varavg| %total
---------------------------------------------------------------
Pair    | 0.35675    | 0.38012    | 0.40919    |   1.7 | 37.72
Bond    | 6.8902e-06 | 1.077e-05  | 1.7702e-05 |   0.0 |  0.00
Kspace  | 0.42427    | 0.45512    | 0.47992    |   1.6 | 45.16
Neigh   | 0.0069698  | 0.0081043  | 0.0092928  |   0.7 |  0.80
Comm    | 0.027456   | 0.033574   | 0.037161   |   1.2 |  3.33
Output  | 0          | 0          | 0          |   0.0 |  0.00
Modify  | 0          | 0          | 0          |   0.0 |  0.00
Other   |            | 0.1309     |            |       | 12.99

Nlocal:        173.077 ave         213 max         140 min
Histogram: 7 6 14 16 21 10 15 10 2 3
Nghost:        4341.38 ave        4382 max        4238 min
Histogram: 2 4 1 1 3 4 22 30 26 11
Neighs:        55846.2 ave       69037 max       44453 min
Histogram: 6 6 14 16 20 14 13 9 2 4

Total # of neighbors = 5808000
Ave neighs/atom = 322.66667
Ave special neighs/atom = 0.0000000
Neighbor list builds = 5
Dangerous builds = 0
unfix                       box_relax
reset_timestep              0
# randomly create vacancies in the relaxed perfect crystal
group                       thorium     type  2
6000 atoms in group thorium
group                       oxygen      type  1
12000 atoms in group oxygen

variable           vac_ratio   equal    0
variable           tot         equal    count(all)
variable           tot_vac     equal    round(${tot}*${vac_ratio})
variable           tot_vac     equal    round(18000*${vac_ratio})
variable           tot_vac     equal    round(18000*0)
variable           th_vac      equal    round(${tot_vac}*0.333333)
variable           th_vac      equal    round(0*0.333333)
variable           oxy_vac     equal    2*${th_vac}
variable           oxy_vac     equal    2*0
set                group    thorium   type/subset  3   ${th_vac}  1252
set                group    thorium   type/subset  3   0  1252
Setting atom values ...
  0 settings made for type/subset
set                group    oxygen    type/subset  4   ${oxy_vac} 45558
set                group    oxygen    type/subset  4   0 45558
Setting atom values ...
  0 settings made for type/subset

group              delete     type    3 4
0 atoms in group delete
delete_atoms       group      delete
WARNING: Ignoring 'compress yes' for molecular system (../delete_atoms.cpp:125)
Deleted 0 atoms, new total = 18000

# fully relaxing the defect configuration at 0K
fix                box_relax  all  box/relax aniso 0.0 vmax 0.001
min_style          cg
minimize           1.0e-30 1.0e-30 10000 10000
PPPM initialization ...
  using 12-bit tables for long-range coulomb (../kspace.cpp:328)
  G vector (1/distance) = 0.2991486
  grid = 40 240 40
  stencil order = 5
  estimated absolute RMS force accuracy = 0.00015521489
  estimated relative force accuracy = 1.0779078e-05
  using single precision MKL FFT
  3d grid and FFT values/proc = 11664 4000
Per MPI rank memory allocation (min/avg/max) = 9.010 | 9.036 | 9.066 Mbytes
Step Temp E_pair E_mol TotEng Press Volume 
       0            0   -236946.26            0   -236946.26   -64.517414    260641.98 
       1            0   -236946.26            0   -236946.26   -64.517414    260641.98 
Loop time of 0.444036 on 104 procs for 1 steps with 18000 atoms

99.6% CPU use with 104 MPI tasks x 1 OpenMP threads

Minimization stats:
  Stopping criterion = linesearch alpha is zero
  Energy initial, next-to-last, final = 
     -236946.258403143  -236946.258403143  -236946.258403143
  Force two-norm initial, final = 229.28878 229.28878
  Force max component initial, final = 197.11985 197.11985
  Final line search alpha, max atom move = 1.5118884e-13 2.9802322e-11
  Iterations, force evaluations = 1 44

MPI task timing breakdown:
Section |  min time  |  avg time  |  max time  |%varavg| %total
---------------------------------------------------------------
Pair    | 0.15279    | 0.16312    | 0.17525    |   1.1 | 36.73
Bond    | 2.9062e-06 | 4.7957e-06 | 1.5256e-05 |   0.0 |  0.00
Kspace  | 0.20109    | 0.21348    | 0.22414    |   1.0 | 48.08
Neigh   | 0          | 0          | 0          |   0.0 |  0.00
Comm    | 0.010673   | 0.013595   | 0.015325   |   0.8 |  3.06
Output  | 0          | 0          | 0          |   0.0 |  0.00
Modify  | 0          | 0          | 0          |   0.0 |  0.00
Other   |            | 0.05384    |            |       | 12.12

Nlocal:        173.077 ave         213 max         140 min
Histogram: 6 4 16 14 20 19 15 6 1 3
Nghost:        4341.38 ave        4382 max        4242 min
Histogram: 1 6 1 0 1 3 23 37 23 9
Neighs:        55846.2 ave       68768 max       44361 min
Histogram: 5 4 9 21 18 19 15 8 2 3

Total # of neighbors = 5808000
Ave neighs/atom = 322.66667
Ave special neighs/atom = 0.0000000
Neighbor list builds = 0
Dangerous builds = 0
unfix              box_relax
reset_timestep     0

# apply the temperature into the system and relaxing system at the temperature of interest
reset_atom_ids
Resetting atom IDs ...
PPPM initialization ...
  using 12-bit tables for long-range coulomb (../kspace.cpp:328)
  G vector (1/distance) = 0.2991486
  grid = 40 240 40
  stencil order = 5
  estimated absolute RMS force accuracy = 0.00015521489
  estimated relative force accuracy = 1.0779078e-05
  using single precision MKL FFT
  3d grid and FFT values/proc = 11664 4000
Finding 1-2 1-3 1-4 neighbors ...
  special bond factors lj:    0.0      0.0      0.0     
  special bond factors coul:  0.0      0.0      0.0     
     0 = max # of 1-2 neighbors
     0 = max # of 1-3 neighbors
     0 = max # of 1-4 neighbors
     1 = max # of special neighbors
  special bonds CPU = 0.005 seconds
variable                    temp      equal    600
velocity                    all  create   ${temp}  402382  dist  gaussian  rot  yes  mom  yes
velocity                    all  create   600  402382  dist  gaussian  rot  yes  mom  yes
fix                         npt  all  npt  temp  ${temp}  ${temp}  $(100*dt) aniso  0.0  0.0  $(1000*dt)
fix                         npt  all  npt  temp  600  ${temp}  $(100*dt) aniso  0.0  0.0  $(1000*dt)
fix                         npt  all  npt  temp  600  600  $(100*dt) aniso  0.0  0.0  $(1000*dt)
fix                         npt  all  npt  temp  600  600  0.10000000000000000555 aniso  0.0  0.0  $(1000*dt)
fix                         npt  all  npt  temp  600  600  0.10000000000000000555 aniso  0.0  0.0  1

thermo                      10000
thermo_style                custom   step dt time atoms temp pe ke press vol

shell                       mkdir vac_${vac_ratio}_${temp}K
shell                       mkdir vac_0_${temp}K
shell                       mkdir vac_0_600K
dump                        1  all  custom  10000  ./vac_${vac_ratio}_${temp}K/dump_relax.atom.* id type q x y z
dump                        1  all  custom  10000  ./vac_0_${temp}K/dump_relax.atom.* id type q x y z
dump                        1  all  custom  10000  ./vac_0_600K/dump_relax.atom.* id type q x y z
dump_modify                 1  element  O  Th Th O

run                         100000
PPPM initialization ...
  using 12-bit tables for long-range coulomb (../kspace.cpp:328)
  G vector (1/distance) = 0.2991486
  grid = 40 240 40
  stencil order = 5
  estimated absolute RMS force accuracy = 0.00015521489
  estimated relative force accuracy = 1.0779078e-05
  using single precision MKL FFT
  3d grid and FFT values/proc = 11664 4000
Per MPI rank memory allocation (min/avg/max) = 9.145 | 9.170 | 9.200 Mbytes
Step Dt Time Atoms Temp PotEng KinEng Press Volume 
       0        0.001            0    18000          600   -236946.26     1395.932    5656.0485    260641.98 
   10000        0.001           10    18000    596.44467   -235514.54    1387.6603    221.46252    264816.57 
   20000        0.001           20    18000    600.42301   -235501.38    1396.9162   -678.05914    264949.18 
   30000        0.001           30    18000    597.68611   -235513.04    1390.5486    739.97426    264761.12 
   40000        0.001           40    18000    595.89973    -235503.4    1386.3925   -113.26467    264863.96 
   50000        0.001           50    18000    602.94793    -235501.3    1402.7905    1158.7894    264735.77 
   60000        0.001           60    18000    594.84568    -235506.5    1383.9402    484.19708    264806.17 
   70000        0.001           70    18000    598.47052   -235509.45    1392.3736   -1.1574468    264859.01 
   80000        0.001           80    18000    597.98495   -235486.53    1391.2439   -370.47573    264957.91 
   90000        0.001           90    18000    603.50773   -235510.87    1404.0929    84.404394    264832.63 
  100000        0.001          100    18000    603.42039    -235503.5    1403.8897    61.633316    264856.07 
Loop time of 846.394 on 104 procs for 100000 steps with 18000 atoms

Performance: 10.208 ns/day, 2.351 hours/ns, 118.148 timesteps/s
99.8% CPU use with 104 MPI tasks x 1 OpenMP threads

MPI task timing breakdown:
Section |  min time  |  avg time  |  max time  |%varavg| %total
---------------------------------------------------------------
Pair    | 296.32     | 306.84     | 319.38     |  28.8 | 36.25
Bond    | 0.007346   | 0.011829   | 0.017617   |   2.1 |  0.00
Kspace  | 429.41     | 440.75     | 451.26     |  24.2 | 52.07
Neigh   | 0.044674   | 0.048163   | 0.051762   |   0.9 |  0.01
Comm    | 26.667     | 31.622     | 36.252     |  40.9 |  3.74
Output  | 0.067139   | 0.067172   | 0.068896   |   0.1 |  0.01
Modify  | 52.856     | 58.714     | 66.405     |  37.2 |  6.94
Other   |            | 8.337      |            |       |  0.99

Nlocal:        173.077 ave         192 max         157 min
Histogram: 9 10 15 3 15 20 11 12 6 3
Nghost:        4311.41 ave        4362 max        4150 min
Histogram: 5 6 1 4 0 8 0 8 31 41
Neighs:        55531.8 ave       61349 max       50194 min
Histogram: 11 9 10 7 14 19 12 11 5 6

Total # of neighbors = 5775307
Ave neighs/atom = 320.85039
Ave special neighs/atom = 0.0000000
Neighbor list builds = 30
Dangerous builds = 0
write_data                  vac_${vac_ratio}_relaxed.dat
write_data                  vac_0_relaxed.dat
System init for write_data ...
PPPM initialization ...
  using 12-bit tables for long-range coulomb (../kspace.cpp:328)
  G vector (1/distance) = 0.2988629
  grid = 40 240 40
  stencil order = 5
  estimated absolute RMS force accuracy = 0.00015747221
  estimated relative force accuracy = 1.0935839e-05
  using single precision MKL FFT
  3d grid and FFT values/proc = 11664 4000
include                     in.mp
#---------------------------------------
#
# This script is used to calculate the thermal conuctivity of UO2 using Muller-Plathe method
# By Ziqiang Wang on 03/18/2022 on Jilin university
#
#---------------------------------------

variable     Nevery    equal   200
variable     T         equal   600

clear
OMP_NUM_THREADS environment is not set. Defaulting to 1 thread. (../comm.cpp:94)
  using 1 OpenMP thread(s) per MPI task
units          metal
boundary       p p p
atom_style     full

read_data      vac_0_relaxed.dat
Reading data file ...
  orthogonal box = (-0.35325172 -4.2073164 -0.36211307) to (27.693252 332.28732 27.702113)
  2 by 26 by 2 MPI processor grid
  reading atoms ...
  18000 atoms
  reading velocities ...
  18000 velocities
Finding 1-2 1-3 1-4 neighbors ...
  special bond factors lj:    0.0      0.0      0.0     
  special bond factors coul:  0.0      0.0      0.0     
     0 = max # of 1-2 neighbors
     0 = max # of 1-3 neighbors
     0 = max # of 1-4 neighbors
     1 = max # of special neighbors
  special bonds CPU = 0.004 seconds
  read_data CPU = 0.044 seconds

set           type     1    charge     -1.1104
Setting atom values ...
  12000 settings made for charge
set           type     2    charge      2.2208
Setting atom values ...
  6000 settings made for charge

kspace_style    pppm   1.0e-05
pair_style      hybrid/overlay  coul/long  11.0  eam/alloy
pair_coeff      * * coul/long
pair_coeff      * * eam/alloy CeThUNpPuAmCmO.eam.alloy O Th Th O
newton          on
neighbor        0.3 bin
neigh_modify    delay 0 check yes every 1

#The first equilation
#fix             nvt  all  nvt  temp  $T $T  0.1

#run             100000
#unfix           nvt
#reset_timestep  0

# the second run
fix             1 all nve

group           oxygen type 1
12000 atoms in group oxygen
fix             2 oxygen thermal/conductivity ${Nevery} y 20
fix             2 oxygen thermal/conductivity 200 y 20

compute         ke all ke/atom
variable        atom_temp atom c_ke/1.5
compute         layers all chunk/atom bin/1d y lower 0.05 units reduced
fix             3      all ave/chunk  2 50000 100000 layers v_atom_temp file profile_${T}K.mp
fix             3      all ave/chunk  2 50000 100000 layers v_atom_temp file profile_600K.mp

variable        Tdiff    equal     f_3[11][3]-f_3[1][3]
variable        deltaT   equal     v_Tdiff*1.5/0.0001292

timestep        0.001
thermo_style    custom step f_2 temp v_Tdiff v_deltaT
thermo          100000

run             1200000
PPPM initialization ...
  using 12-bit tables for long-range coulomb (../kspace.cpp:328)
  G vector (1/distance) = 0.2988629
  grid = 40 240 40
  stencil order = 5
  estimated absolute RMS force accuracy = 0.00015747221
  estimated relative force accuracy = 1.0935839e-05
  using single precision MKL FFT
  3d grid and FFT values/proc = 9375 4000
Neighbor list info ...
  update every 1 steps, delay 0 steps, check yes
  max neighbors/atom: 2000, page size: 100000
  master list distance cutoff = 11.3
  ghost atom cutoff = 11.3
  binsize = 5.65, bins = 5 60 5
  2 neighbor lists, perpetual/occasional/extra = 2 0 0
  (1) pair coul/long, perpetual
      attributes: half, newton on
      pair build: half/bin/newton
      stencil: half/bin/3d/newton
      bin: standard
  (2) pair eam/alloy, perpetual, copy from (1)
      attributes: half, newton on
      pair build: copy
      stencil: none
      bin: none
Per MPI rank memory allocation (min/avg/max) = 7.961 | 7.989 | 8.018 Mbytes
Step f_2 Temp v_Tdiff v_deltaT 
       0            0    603.42039            0            0 
  100000    200.83219    603.89032 0.0042581533    49.436764 
  200000    404.01798    596.50851 0.0046224675    53.666418 
  300000    607.73851    605.62981  0.004503429    52.284393 
  400000    808.43991    600.84025 0.0049500562    57.469692 
  500000    1008.4287    602.25485 0.0048256494    56.025342 
  600000    1212.9283    600.17542 0.0045660735     53.01169 
  700000    1416.5611    599.71495 0.0041564416    48.255901 
  800000    1618.1432     601.4194 0.0055304452    64.207955 
  900000    1821.6147    604.31661 0.0044088886    51.186787 
 1000000     2021.443     603.7941 0.0045100481     52.36124 
 1100000    2222.4029    601.89725  0.004894873    56.829021 
 1200000    2425.1167    602.19168 0.0049341374    57.284876 
Loop time of 8920.85 on 104 procs for 1200000 steps with 18000 atoms

Performance: 11.622 ns/day, 2.065 hours/ns, 134.516 timesteps/s
99.8% CPU use with 104 MPI tasks x 1 OpenMP threads

MPI task timing breakdown:
Section |  min time  |  avg time  |  max time  |%varavg| %total
---------------------------------------------------------------
Pair    | 2902.9     | 2978.7     | 3092.3     |  84.9 | 33.39
Bond    | 0.07181    | 0.10011    | 0.14845    |   5.3 |  0.00
Kspace  | 5060.7     | 5225.9     | 5374.2     |  86.7 | 58.58
Neigh   | 202.74     | 228.39     | 249.97     |  79.7 |  2.56
Comm    | 334.13     | 400.66     | 454.79     | 145.4 |  4.49
Output  | 0.0014731  | 0.0015692  | 0.0031088  |   0.4 |  0.00
Modify  | 13.707     | 15.203     | 20.264     |  23.1 |  0.17
Other   |            | 71.8       |            |       |  0.80

Nlocal:        173.077 ave         190 max         159 min
Histogram: 17 11 7 7 13 9 14 17 5 4
Nghost:        3145.50 ave        3239 max        3045 min
Histogram: 7 14 4 4 19 21 3 6 17 9
Neighs:        34968.4 ave       38815 max       31907 min
Histogram: 10 12 13 11 11 16 13 9 6 3

Total # of neighbors = 3636713
Ave neighs/atom = 202.03961
Ave special neighs/atom = 0.0000000
Neighbor list builds = 195453
Dangerous builds = 0

Total wall time: 2:42:51
