LAMMPS (29 Oct 2020)
OMP_NUM_THREADS environment is not set. Defaulting to 1 thread. (../comm.cpp:94)
  using 1 OpenMP thread(s) per MPI task
OMP_NUM_THREADS environment is not set. Defaulting to 1 thread. (../comm.cpp:94)
  using 1 OpenMP thread(s) per MPI task
Reading data file ...
  orthogonal box = (-0.35516565 -4.2468482 -0.35447675) to (27.695166 332.32685 27.694477)
  2 by 13 by 2 MPI processor grid
  reading atoms ...
  17640 atoms
  reading velocities ...
  17640 velocities
Finding 1-2 1-3 1-4 neighbors ...
  special bond factors lj:    0.0      0.0      0.0     
  special bond factors coul:  0.0      0.0      0.0     
     0 = max # of 1-2 neighbors
     0 = max # of 1-3 neighbors
     0 = max # of 1-4 neighbors
     1 = max # of special neighbors
  special bonds CPU = 0.005 seconds
  read_data CPU = 0.063 seconds
Setting atom values ...
  11760 settings made for charge
Setting atom values ...
  5880 settings made for charge
PPPM initialization ...
  using 12-bit tables for long-range coulomb (../kspace.cpp:328)
  G vector (1/distance) = 0.29883693
  grid = 40 240 40
  stencil order = 5
  estimated absolute RMS force accuracy = 0.00015601772
  estimated relative force accuracy = 1.0834831e-05
  using single precision MKL FFT
  3d grid and FFT values/proc = 15000 7600
Neighbor list info ...
  update every 1 steps, delay 0 steps, check yes
  max neighbors/atom: 2000, page size: 100000
  master list distance cutoff = 11.3
  ghost atom cutoff = 11.3
  binsize = 5.65, bins = 5 60 5
  2 neighbor lists, perpetual/occasional/extra = 2 0 0
  (1) pair coul/long, perpetual
      attributes: half, newton on
      pair build: half/bin/newton
      stencil: half/bin/3d/newton
      bin: standard
  (2) pair eam/alloy, perpetual, copy from (1)
      attributes: half, newton on
      pair build: copy
      stencil: none
      bin: none
Setting up Verlet run ...
  Unit style    : metal
  Current step  : 0
  Time step     : 0.001
Per MPI rank memory allocation (min/avg/max) = 8.142 | 8.178 | 8.198 Mbytes
Step Temp E_pair E_mol TotEng Press 
       0          600   -230565.12            0   -229197.11    96.489836 
  100000    602.32986    -230567.4            0   -229194.07   -238.45415 
Loop time of 655.666 on 52 procs for 100000 steps with 17640 atoms

Performance: 13.177 ns/day, 1.821 hours/ns, 152.517 timesteps/s
99.8% CPU use with 52 MPI tasks x 1 OpenMP threads

MPI task timing breakdown:
Section |  min time  |  avg time  |  max time  |%varavg| %total
---------------------------------------------------------------
Pair    | 419.17     | 447.18     | 458.74     |  42.2 | 68.20
Bond    | 0.0064753  | 0.010278   | 0.018532   |   2.3 |  0.00
Kspace  | 138.34     | 152.44     | 187        |  90.1 | 23.25
Neigh   | 25.682     | 33.523     | 36.869     |  48.3 |  5.11
Comm    | 16.865     | 18.094     | 19.265     |  14.5 |  2.76
Output  | 5.5847e-05 | 6.1431e-05 | 0.00026671 |   0.0 |  0.00
Modify  | 2.0763     | 3.0052     | 4.9203     |  53.4 |  0.46
Other   |            | 1.406      |            |       |  0.21

Nlocal:        339.231 ave         367 max         295 min
Histogram: 3 3 1 1 0 14 16 3 2 9
Nghost:        4092.37 ave        4278 max        3843 min
Histogram: 4 6 6 0 4 4 5 7 8 8
Neighs:        67625.2 ave       74201 max       51138 min
Histogram: 3 1 0 1 3 0 6 22 6 10

Total # of neighbors = 3516512
Ave neighs/atom = 199.34875
Ave special neighs/atom = 0.0000000
Neighbor list builds = 16207
Dangerous builds = 0
11760 atoms in group oxygen
PPPM initialization ...
  using 12-bit tables for long-range coulomb (../kspace.cpp:328)
  G vector (1/distance) = 0.29883693
  grid = 40 240 40
  stencil order = 5
  estimated absolute RMS force accuracy = 0.00015601772
  estimated relative force accuracy = 1.0834831e-05
  using single precision MKL FFT
  3d grid and FFT values/proc = 15000 7600
Setting up Verlet run ...
  Unit style    : metal
  Current step  : 0
  Time step     : 0.001
Per MPI rank memory allocation (min/avg/max) = 8.393 | 8.429 | 8.449 Mbytes
Step f_2 Temp v_Tdiff v_deltaT 
       0            0    602.32986            0            0 
  100000    2879.0341    601.85396  0.073307629    851.09476 
  200000    5579.4951    599.80849   0.07780034    903.25472 
  300000    8291.0368    601.51921  0.077642475    901.42192 
  400000     10993.21    605.27491  0.077468736    899.40482 
  500000    13699.258    603.65858  0.077736167    902.50968 
  600000    16421.919      606.912  0.077315114    897.62129 
  700000    19167.791    604.24922  0.077117456     895.3265 
  800000    21893.655    608.27823  0.077748399    902.65169 
  900000    24624.657    609.06984  0.077225897    896.58549 
 1000000    27344.113    606.90876  0.077983694    905.38344 
Loop time of 6658.47 on 52 procs for 1000000 steps with 17640 atoms

Performance: 12.976 ns/day, 1.850 hours/ns, 150.185 timesteps/s
99.8% CPU use with 52 MPI tasks x 1 OpenMP threads

MPI task timing breakdown:
Section |  min time  |  avg time  |  max time  |%varavg| %total
---------------------------------------------------------------
Pair    | 4183.6     | 4470       | 4620.6     | 134.4 | 67.13
Bond    | 0.063725   | 0.10135    | 0.17064    |   5.8 |  0.00
Kspace  | 1370.3     | 1541.3     | 1915       | 297.0 | 23.15
Neigh   | 306.41     | 411.24     | 454.78     | 183.3 |  6.18
Comm    | 176.58     | 194.92     | 218.47     |  72.1 |  2.93
Output  | 0.0011782  | 0.0012334  | 0.0024018  |   0.5 |  0.00
Modify  | 11.378     | 13.203     | 17.159     |  48.8 |  0.20
Other   |            | 27.71      |            |       |  0.42

Nlocal:        339.231 ave         365 max         288 min
Histogram: 5 3 0 0 0 1 15 10 10 8
Nghost:        4117.60 ave        4301 max        3823 min
Histogram: 7 5 1 3 0 0 4 11 10 11
Neighs:        67628.9 ave       74321 max       49340 min
Histogram: 4 0 0 3 1 0 3 16 13 12

Total # of neighbors = 3516702
Ave neighs/atom = 199.35952
Ave special neighs/atom = 0.0000000
Neighbor list builds = 197982
Dangerous builds = 0
Total wall time: 2:01:54
