LAMMPS (29 Oct 2020)
OMP_NUM_THREADS environment is not set. Defaulting to 1 thread. (../comm.cpp:94)
  using 1 OpenMP thread(s) per MPI task
OMP_NUM_THREADS environment is not set. Defaulting to 1 thread. (../comm.cpp:94)
  using 1 OpenMP thread(s) per MPI task
Reading data file ...
  orthogonal box = (-2.2497024 -2.1821134 54.284718) to (29.589702 29.522113 492.51528)
  2 by 1 by 26 MPI processor grid
  reading atoms ...
  30000 atoms
Finding 1-2 1-3 1-4 neighbors ...
  special bond factors lj:    0.0      0.0      0.0     
  special bond factors coul:  0.0      0.0      0.0     
     0 = max # of 1-2 neighbors
     0 = max # of 1-3 neighbors
     0 = max # of 1-4 neighbors
     1 = max # of special neighbors
  special bonds CPU = 0.003 seconds
  read_data CPU = 0.090 seconds
Setting atom values ...
  20000 settings made for charge
Setting atom values ...
  10000 settings made for charge
PPPM initialization ...
  using 12-bit tables for long-range coulomb (../kspace.cpp:328)
  G vector (1/distance) = 0.29781468
  grid = 45 45 300
  stencil order = 5
  estimated absolute RMS force accuracy = 0.00017108678
  estimated relative force accuracy = 1.188132e-05
  using single precision MKL FFT
  3d grid and FFT values/proc = 23800 12420
Neighbor list info ...
  update every 1 steps, delay 0 steps, check yes
  max neighbors/atom: 2000, page size: 100000
  master list distance cutoff = 11.3
  ghost atom cutoff = 11.3
  binsize = 5.65, bins = 6 6 78
  2 neighbor lists, perpetual/occasional/extra = 2 0 0
  (1) pair coul/long, perpetual
      attributes: half, newton on
      pair build: half/bin/newton
      stencil: half/bin/3d/newton
      bin: standard
  (2) pair eam/alloy, perpetual, copy from (1)
      attributes: half, newton on
      pair build: copy
      stencil: none
      bin: none
Setting up Verlet run ...
  Unit style    : metal
  Current step  : 0
  Time step     : 0.001
Per MPI rank memory allocation (min/avg/max) = 9.514 | 9.590 | 9.632 Mbytes
Step Temp E_pair E_mol TotEng Press 
       0          600   -387064.91            0    -384738.3    323.51597 
  100000    603.75065   -387075.49            0   -384734.34   -35.124062 
  200000    593.15822   -387075.41            0   -384775.33   -750.59558 
  300000    598.51381    -387034.4            0   -384713.56    220.14491 
  400000    596.70579   -387049.91            0   -384736.08    118.31696 
  500000    603.02169   -387061.34            0   -384723.02    241.66046 
Loop time of 5061.34 on 52 procs for 500000 steps with 30000 atoms

Performance: 8.535 ns/day, 2.812 hours/ns, 98.788 timesteps/s
100.0% CPU use with 52 MPI tasks x 1 OpenMP threads

MPI task timing breakdown:
Section |  min time  |  avg time  |  max time  |%varavg| %total
---------------------------------------------------------------
Pair    | 3354.2     | 3421.3     | 3525.2     |  64.9 | 67.60
Bond    | 0.070229   | 0.090351   | 0.1148     |   2.9 |  0.00
Kspace  | 1129.1     | 1228.6     | 1314.2     | 117.6 | 24.27
Neigh   | 268.94     | 275.59     | 284.54     |  22.3 |  5.44
Comm    | 89.999     | 97.942     | 120.91     |  76.7 |  1.94
Output  | 0.00035733 | 0.00038671 | 0.001313   |   0.0 |  0.00
Modify  | 17.722     | 27.381     | 47.218     | 142.0 |  0.54
Other   |            | 10.43      |            |       |  0.21

Nlocal:        576.923 ave         586 max         563 min
Histogram: 1 1 2 9 4 7 8 6 9 5
Nghost:        5017.60 ave        5068 max        4975 min
Histogram: 4 3 6 11 6 8 6 3 4 1
Neighs:       117968.0 ave      121514 max      114994 min
Histogram: 2 2 8 11 8 6 8 3 3 1

Total # of neighbors = 6134323
Ave neighs/atom = 204.47743
Ave special neighs/atom = 0.0000000
Neighbor list builds = 83070
Dangerous builds = 0
20000 atoms in group Silicon
PPPM initialization ...
  using 12-bit tables for long-range coulomb (../kspace.cpp:328)
  G vector (1/distance) = 0.29781468
  grid = 45 45 300
  stencil order = 5
  estimated absolute RMS force accuracy = 0.00017108678
  estimated relative force accuracy = 1.188132e-05
  using single precision MKL FFT
  3d grid and FFT values/proc = 23800 12420
Setting up Verlet run ...
  Unit style    : metal
  Current step  : 0
  Time step     : 0.001
Per MPI rank memory allocation (min/avg/max) = 9.765 | 9.841 | 9.882 Mbytes
Step f_2 Temp v_Tdiff v_deltaT 
       0            0          600            0            0 
  100000    201.64662    600.33277  0.010141559    117.74256 
  200000    386.64972    599.67388  0.017275647    200.56866 
  300000    569.58277    598.93067  0.019695322    228.66086 
  400000    748.51791    598.51057  0.021119692    245.19767 
  500000    925.64278    597.89716  0.021542002    250.10065 
  600000     1103.291    599.24213  0.021098928     244.9566 
  700000    1282.8792    601.19651  0.021388086    248.31369 
  800000    1458.8752    602.99956   0.02192319     254.5262 
  900000    1639.0026    597.15453  0.020938326    243.09203 
 1000000    1815.2374    601.71152  0.021664911     251.5276 
 1100000     1993.136    597.19247  0.021559753    250.30673 
 1200000    2172.5423    599.31628  0.021544264    250.12691 
 1300000     2350.228    599.06734  0.022186484    257.58301 
 1400000    2529.2682    601.60344  0.020943153    243.14806 
 1500000    2707.0779    596.87227  0.021610859    250.90006 
 1600000    2884.3749    596.74483  0.021369565    248.09867 
 1700000    3062.8142    598.19304  0.022116248    256.76759 
 1800000    3237.5016    599.43687  0.022012326    255.56106 
 1900000    3416.1252    600.20501  0.021002067    243.83205 
 2000000    3595.1285    596.67143  0.020934943    243.05275 
Loop time of 19837.8 on 52 procs for 2000000 steps with 30000 atoms

Performance: 8.711 ns/day, 2.755 hours/ns, 100.818 timesteps/s
100.0% CPU use with 52 MPI tasks x 1 OpenMP threads

MPI task timing breakdown:
Section |  min time  |  avg time  |  max time  |%varavg| %total
---------------------------------------------------------------
Pair    | 13236      | 13388      | 13624      |  72.1 | 67.49
Bond    | 0.25817    | 0.34836    | 0.41617    |   5.8 |  0.00
Kspace  | 4548.6     | 4778.1     | 4971.1     | 140.5 | 24.09
Neigh   | 1092.3     | 1115.4     | 1145.1     |  38.3 |  5.62
Comm    | 351.52     | 384.29     | 473.17     | 162.7 |  1.94
Output  | 0.0018486  | 0.0019697  | 0.0043123  |   0.7 |  0.00
Modify  | 53.95      | 58.085     | 65.824     |  30.6 |  0.29
Other   |            | 113.4      |            |       |  0.57

Nlocal:        576.923 ave         588 max         568 min
Histogram: 4 5 2 6 11 8 7 6 1 2
Nghost:        5022.60 ave        5084 max        4962 min
Histogram: 1 2 4 9 9 13 7 4 1 2
Neighs:       117974.0 ave      121138 max      115858 min
Histogram: 7 4 9 9 6 5 6 3 0 3

Total # of neighbors = 6134624
Ave neighs/atom = 204.48747
Ave special neighs/atom = 0.0000000
Neighbor list builds = 338338
Dangerous builds = 0
PPPM initialization ...
  using 12-bit tables for long-range coulomb (../kspace.cpp:328)
  G vector (1/distance) = 0.29781468
  grid = 45 45 300
  stencil order = 5
  estimated absolute RMS force accuracy = 0.00017108678
  estimated relative force accuracy = 1.188132e-05
  using single precision MKL FFT
  3d grid and FFT values/proc = 23800 12420
Setting up Verlet run ...
  Unit style    : metal
  Current step  : 2000000
  Time step     : 0.001
Per MPI rank memory allocation (min/avg/max) = 11.09 | 11.16 | 11.20 Mbytes
Step Temp E_pair TotEng f_2 v_Tdiff f_ave 
 2000000    596.67143   -387045.67   -384731.98            0  0.020934943            0 
 2200000    600.83426   -387061.79   -384731.95     354.3086  0.021506858  0.021363062 
 2400000     601.7468   -387065.04   -384731.66    709.92898  0.021958347   0.02163624 
Loop time of 3963.95 on 52 procs for 400000 steps with 30000 atoms

Performance: 8.719 ns/day, 2.753 hours/ns, 100.909 timesteps/s
100.0% CPU use with 52 MPI tasks x 1 OpenMP threads

MPI task timing breakdown:
Section |  min time  |  avg time  |  max time  |%varavg| %total
---------------------------------------------------------------
Pair    | 2644       | 2676       | 2717.7     |  31.5 | 67.51
Bond    | 0.050587   | 0.071125   | 0.08986    |   2.9 |  0.00
Kspace  | 910.04     | 952.24     | 992.8      |  63.2 | 24.02
Neigh   | 218.77     | 223.58     | 229.47     |  17.1 |  5.64
Comm    | 70.459     | 76.986     | 94.836     |  75.1 |  1.94
Output  | 0.00016727 | 0.0001875  | 0.00043579 |   0.0 |  0.00
Modify  | 10.701     | 11.557     | 12.926     |  13.6 |  0.29
Other   |            | 23.54      |            |       |  0.59

Nlocal:        576.923 ave         586 max         565 min
Histogram: 1 1 3 12 3 8 6 8 6 4
Nghost:        5020.60 ave        5068 max        4970 min
Histogram: 1 4 5 10 6 6 7 7 2 4
Neighs:       117964.0 ave      120794 max      115716 min
Histogram: 3 5 10 5 10 3 9 2 3 2

Total # of neighbors = 6134119
Ave neighs/atom = 204.47063
Ave special neighs/atom = 0.0000000
Neighbor list builds = 67778
Dangerous builds = 0
Total wall time: 8:01:04
