ITEM: TIMESTEP
50000
ITEM: NUMBER OF ATOMS
18000
ITEM: BOX BOUNDS xy xz yz pp pp pp
-1.9246062486843554e-01 2.8086460624868472e+01 0.0000000000000000e+00
-2.3828409843695670e+00 3.3711084098436805e+02 0.0000000000000000e+00
-2.0100103383496207e-01 2.8095001033835121e+01 0.0000000000000000e+00
ITEM: ATOMS id type x y z
1 1 1.36241 -1.12162 1.27649
2 1 4.26046 -1.08726 1.251
3 1 4.12561 -0.875889 3.98675
4 1 1.37099 -1.39772 4.05841
5 1 1.59724 1.71121 1.53567
6 1 4.28865 1.77155 1.34871
7 1 4.25776 1.87551 4.14744
8 1 1.28382 1.53484 4.46088
9 1 6.98908 -1.10196 1.31432
10 1 9.91054 -0.719606 1.06188
11 1 9.86853 -0.650596 3.93393
12 1 6.92676 -0.744638 4.16867
13 1 7.00134 1.7565 1.08701
14 1 9.8583 1.98815 1.32123
15 1 9.8558 1.80571 3.9337
16 1 6.98738 1.96455 3.77056
17 1 12.7839 -1.02363 1.0862
18 1 12.7184 -0.931778 3.89917
19 1 12.6534 1.8033 1.01796
20 1 12.5426 2.11755 3.89044
21 1 1.44061 4.63217 1.15245
22 1 4.30558 4.68519 1.35167
23 1 4.25768 4.80158 3.97605
24 1 1.50141 4.30722 3.80242
25 1 1.38767 7.30094 1.30466
26 1 4.15598 7.51541 1.18506
27 1 4.25624 7.38553 4.05688
28 1 1.46637 7.32666 4.13893
29 1 7.15203 4.39275 1.02873
30 1 9.92937 4.8206 1.18142
31 1 9.89957 4.62628 4.15937
32 1 7.13425 4.79043 4.04382
33 1 7.17865 7.81722 1.53633
34 1 10.0876 7.49759 1.28383
35 1 9.76757 7.58944 4.04794
36 1 7.17047 7.62269 4.27946
37 1 12.3731 4.71923 1.00074
38 1 12.5885 4.63257 4.16059
39 1 13.0912 7.65878 1.20406
40 1 12.6478 7.56888 4.03602
41 1 1.31888 10.2112 1.00942
42 1 4.22163 10.4774 1.30277
43 1 4.0246 10.1741 3.91938
44 1 1.27328 10.1514 3.95903
45 1 1.38621 13.2891 1.16219
46 1 4.28495 13.138 1.06325
47 1 3.90318 13.0403 4.33253
48 1 1.09569 12.8788 3.98213
49 1 6.86642 10.6984 1.12395
50 1 9.86128 10.4834 1.26823
51 1 9.92203 10.3588 3.9789
52 1 7.07358 10.5092 4.01018
53 1 7.07186 13.2885 1.4599
54 1 9.71512 13.1982 1.36551
55 1 9.7557 13.0078 4.02465
56 1 6.85844 13.1129 4.30965
57 1 12.7453 10.5747 1.23988
58 1 12.5844 10.2255 4.18089
59 1 12.3848 13.353 1.41832
60 1 12.8115 13.1294 4.26731
61 1 1.34507 16.0922 1.18435
62 1 4.11466 15.8371 1.59
63 1 4.08334 15.8727 4.36495
64 1 1.50902 16.0157 4.0632
65 1 1.19754 18.9825 1.25686
66 1 4.00152 18.764 1.23505
67 1 4.18491 18.776 4.09176
68 1 1.56941 18.9474 4.09724
69 1 6.74573 15.9848 1.29072
70 1 9.9126 15.9972 1.28672
71 1 9.79587 15.8395 4.28247
72 1 6.88149 15.9184 4.33136
73 1 6.84184 18.7117 1.58722
74 1 9.73435 18.73 1.33839
75 1 9.71784 18.8689 4.30817
76 1 6.99606 18.7735 4.25707
77 1 12.6743 16.2029 1.29894
78 1 12.4306 15.9635 4.02026
79 1 12.9398 21.6388 1.34411
80 1 12.5875 18.8461 3.95925
81 1 1.33991 21.6089 1.3077
82 1 4.19335 21.8395 1.15121
83 1 4.24516 21.4536 4.06419
84 1 1.39973 21.6679 4.11391
85 1 6.92333 21.4645 1.35538
86 1 9.89507 21.3364 1.19744
87 1 9.80416 21.3944 4.05013
88 1 6.99421 21.6807 4.07805
6178 1 1.64632 21.8519 7.01993
90 1 12.6483 21.7402 4.15627
91 1 1.20949 -1.01083 6.63258
92 1 4.19516 -1.03695 6.81443
93 1 4.0119 -1.21188 9.76092
94 1 1.33924 -1.08307 9.53671
95 1 1.42718 1.99516 7.14487
96 1 4.2966 1.76465 6.93561
97 1 4.23505 1.76667 9.93038
98 1 1.56921 2.05534 9.82222
99 1 6.98416 -0.629823 6.81871
100 1 9.72108 -0.70339 6.9276
101 1 9.88514 -0.82411 9.70934
102 1 6.92141 -0.907802 9.67952
103 1 7.11876 2.03831 6.73348
104 1 9.99841 1.94536 6.82106
105 1 9.93344 1.99509 9.58967
106 1 6.92922 1.91182 9.61922
107 1 12.8574 -1.03488 6.62928
108 1 12.8191 -1.00822 9.60878
109 1 12.7741 1.77158 6.82663
110 1 12.6324 1.82309 9.84743
111 1 1.42376 4.75943 6.98447
112 1 4.24184 4.54211 6.80907
113 1 4.27823 4.73772 9.95103
114 1 1.51281 4.84843 9.77357
115 1 1.29683 7.49904 6.91634
116 1 4.13708 7.30675 7.06554
117 1 4.38494 7.69385 9.62318
118 1 1.47618 7.45053 9.71653
119 1 6.94963 4.83245 6.84016
120 1 9.96437 4.67352 6.98871
121 1 10.1505 4.81063 9.70974
122 1 7.22392 4.77265 9.71005
123 1 7.22094 7.54124 7.13898
124 1 9.91116 7.57866 6.98938
125 1 9.93737 7.72342 9.71341
126 1 7.20161 7.46957 9.72651
127 1 12.7955 4.67728 6.99353
128 1 12.7913 4.64133 9.81148
129 1 12.9323 7.19501 6.85829
130 1 12.7226 7.50828 9.64928
131 1 1.27318 10.5805 7.14283
132 1 3.94403 10.4845 7.01673
133 1 4.1016 10.3424 9.75341
134 1 1.37438 10.1859 9.73013
135 1 1.26778 13.3425 6.81507
136 1 4.20819 13.0956 7.06655
137 1 4.44874 13.1353 9.90249
138 1 1.3976 13.1114 9.70668
139 1 6.7593 10.2703 6.73488
140 1 9.72777 10.2622 6.85781
141 1 10.0383 10.5401 9.68663
142 1 7.17201 10.5066 9.76839
143 1 7.01747 13.1016 7.04358
144 1 9.95629 13.3554 7.05938
145 1 9.90417 13.3763 9.90682
146 1 7.02736 13.2768 9.80853
147 1 12.5932 10.1448 6.84019
148 1 12.9214 10.4287 9.74854
149 1 12.7922 13.0564 7.05142
150 1 12.7768 13.1073 9.89933
151 1 1.25722 16.0418 6.9359
152 1 3.90054 16.2046 7.17495
153 1 4.16046 16.1799 9.83881
154 1 1.34556 15.9904 9.68246
155 1 1.58824 18.883 6.82767
156 1 4.30281 18.9011 7.11219
157 1 4.14289 18.93 10.0065
158 1 1.46969 18.9076 9.56878
159 1 6.84111 16.0953 7.23428
160 1 9.56623 16.094 6.96825
161 1 9.79893 16.1215 9.82951
162 1 7.02347 16.1709 9.98023
163 1 7.21082 18.8549 7.05619
164 1 9.88673 18.6863 7.04852
165 1 9.71722 18.9162 9.88548
166 1 6.83192 18.9442 9.99168
167 1 12.5033 15.8958 6.91292
168 1 12.6896 15.9027 9.73965
169 1 12.8348 18.7651 7.07132
170 1 12.449 18.7635 9.74418
12071 2 0.202292 8.8092 5.55989
172 1 4.50759 21.5984 6.91042
173 1 4.27118 21.671 9.84804
174 1 1.47446 21.6496 9.82341
175 1 7.18748 21.6167 6.919
176 1 9.98172 21.6188 6.72963
177 1 10.0139 21.6494 9.79944
178 1 7.12046 21.7272 9.90358
179 1 12.9098 21.6026 7.08258
180 1 12.8587 21.7204 9.94612
181 1 1.32608 -1.11758 12.3379
182 1 4.06406 -1.01475 12.7026
183 1 1.46866 1.75526 12.7844
184 1 4.10312 1.92574 12.6742
185 1 7.02301 -1.13206 12.6049
186 1 9.71101 -0.806006 12.3256
187 1 6.93872 1.52824 12.5944
188 1 9.80024 1.94647 12.4221
189 1 12.3111 -0.965425 12.5632
190 1 12.6038 2.04894 12.8106
191 1 1.39232 4.44076 12.5809
192 1 4.26393 4.6452 12.7259
193 1 1.20614 7.23814 12.4436
194 1 3.99869 7.68771 12.3586
195 1 7.21774 4.61475 12.5028
196 1 9.79542 4.62986 12.5264
197 1 7.1259 7.49449 12.4648
198 1 9.98797 7.57045 12.5418
199 1 12.6016 4.80901 12.5013
200 1 12.5788 7.40501 12.5733
201 1 1.17333 10.1782 12.5425
202 1 4.01571 10.3048 12.6074
203 1 1.49004 13.2813 12.6187
204 1 4.19213 13.1584 12.7429
205 1 7.09487 10.3629 12.5758
206 1 10.152 10.3856 12.4876
207 1 7.10525 13.041 12.4683
208 1 10.0038 13.1972 12.6748
209 1 13.0727 10.2249 12.5841
210 1 12.8455 13.0937 12.7238
211 1 1.33383 15.855 12.713
212 1 4.05999 15.9921 12.5377
213 1 1.54759 18.7734 12.4521
214 1 4.37696 18.9403 12.7024
215 1 6.96038 16.065 12.7099
216 1 9.98823 16.0803 12.5522
217 1 7.24869 18.9673 12.5801
218 1 10.0236 19.0396 12.9552
219 1 12.8276 15.7718 12.69
220 1 12.8308 18.7988 12.5293
221 1 1.34694 21.5968 12.6265
222 1 4.3181 21.765 12.6758
223 1 6.96245 21.5977 12.7589
224 1 9.85731 21.6835 12.5122
225 1 12.7699 21.6988 12.3636
12116 2 0.0183539 14.5205 11.1461
12007 2 8.57506 -2.09284 2.56594
12074 2 -0.143599 11.7053 8.55656
12057 2 8.41135 -2.26609 8.16377
12094 2 0.00709944 23.0592 8.42947
12061 2 0.0170333 3.19873 5.63219
12055 2 5.70735 -2.24555 5.40613
12008 2 5.7626 0.473333 2.62206
12105 2 11.2139 -2.36121 11.0102
12010 2 11.3666 0.545442 2.57695
12125 2 11.337 20.2291 11.2283
12081 2 -0.0988384 14.6322 5.67489
12013 2 3.12356 3.23592 2.6995
12124 2 8.72359 23.0545 11.0604
12064 2 -0.0736578 6.15651 8.36685
12024 2 -0.0471536 11.5269 2.60536
12017 2 8.41658 3.09645 2.60749
12018 2 5.82356 6.19336 2.66466
12133 2 8.46855 3.30264 13.929
12020 2 11.2363 5.99864 2.78594
12113 2 5.69918 8.85 11.062
12104 2 8.35989 0.592361 10.9431
12023 2 2.71823 8.70983 2.60523
440 1 12.8391 18.9543 1.1631
12011 2 0.258869 3.24647 -0.0584297
12107 2 2.76892 5.97553 11.2721
12027 2 8.52639 9.05432 2.72487
12028 2 5.60054 11.8615 2.63436
12149 2 5.88339 23.238 13.793
12030 2 11.3572 11.6835 2.81134
12102 2 2.71337 0.31848 11.1906
12114 2 8.51788 11.8448 11.1135
12033 2 2.68614 14.5169 2.87301
12004 2 0.0354394 0.388444 2.72206
12100 2 11.5361 22.8433 8.39764
12099 2 11.3258 20.1805 5.5292
12037 2 8.43389 14.5496 2.80717
12038 2 5.40265 17.3774 2.9124
12098 2 5.75186 22.9201 8.36065
12040 2 11.3245 17.4276 2.63289
12097 2 8.42604 20.2217 8.33203
12091 2 0.00232469 20.1794 5.4357
12043 2 2.88923 20.3163 2.51155
12123 2 5.73744 20.4392 11.2796
12096 2 8.60111 22.9567 5.39736
12095 2 5.67459 20.3657 5.47534
12047 2 8.32748 20.0976 2.79163
12048 2 5.78246 23.1213 2.56915
12115 2 11.436 8.96669 11.1332
12050 2 11.395 23.0188 2.53646
12054 2 -0.103841 0.0493033 8.31362
12052 2 2.82907 0.215319 5.47319
12112 2 2.80113 11.7836 11.0564
12122 2 2.90267 22.9942 11.3336
12110 2 11.2603 3.26638 11.1653
12056 2 8.45623 0.591503 5.47054
12109 2 8.55081 6.14954 10.9315
12058 2 5.57239 0.516829 8.33092
12108 2 5.70414 3.21044 11.2562
12060 2 11.2383 0.274731 8.22173
12120 2 11.4627 14.5436 11.3484
12062 2 2.83749 5.94493 5.40137
12063 2 2.94263 3.31626 8.43894
12119 2 8.36839 17.5354 11.2921
12065 2 5.46693 3.23957 5.41123
12066 2 8.48206 5.95623 5.63725
12067 2 8.57167 3.27203 8.21606
12068 2 5.61564 6.27399 8.20905
12069 2 11.2964 3.23427 5.41711
12070 2 11.5301 6.0139 8.40912
12036 2 8.48921 17.1986 -0.0484965
12072 2 2.73115 11.7795 5.66491
12073 2 2.88194 8.8272 8.37606
12118 2 5.64203 14.5473 11.287
12075 2 5.43962 9.02336 5.46226
12076 2 8.28275 11.6984 5.33416
12077 2 8.48578 8.94188 8.41342
12078 2 5.74658 11.7475 8.5162
12079 2 11.1809 8.85979 5.48701
12080 2 11.4441 11.6273 8.31442
12084 2 0.0858326 17.5345 8.18098
12082 2 2.89034 17.4881 5.52567
12083 2 2.79207 14.6513 8.37765
12117 2 2.80185 17.3619 11.0654
12085 2 5.54321 14.5216 5.62641
12086 2 8.456 17.4764 5.63314
12087 2 8.44107 14.7751 8.41663
12088 2 5.62735 17.4085 8.51767
12089 2 11.2794 14.426 5.56025
12090 2 11.2609 17.2353 8.27619
12139 2 5.65997 11.728 13.9019
12092 2 2.9236 22.9668 5.43771
12093 2 2.88901 20.3107 8.28824
12035 2 5.5085 14.421 -0.0595307
12134 2 5.61379 6.17097 13.9624
12111 2 0.0671718 8.91379 11.1549
12034 2 -0.0516991 17.4132 2.67741
12015 2 5.5721 3.17626 -0.169654
12039 2 11.1205 14.5416 -0.128868
12031 2 -0.00795637 14.5643 -0.184322
12025 2 5.72524 8.98417 -0.0660739
12044 2 -0.155243 22.886 2.61883
12014 2 0.104544 6.00262 2.73313
12142 2 -0.192521 17.2599 13.8736
12016 2 8.73695 6.06006 -0.104672
12106 2 0.114569 3.27757 10.9595
12121 2 0.0604856 20.0435 11.0622
12150 2 11.4054 22.8168 13.8971
12002 2 2.85419 0.308762 -0.030662
12138 2 8.45263 8.96216 13.7701
12026 2 8.49871 11.976 -0.0241621
12045 2 5.57146 20.0328 -0.169628
12049 2 11.3024 20.1836 -0.164622
12012 2 2.88912 5.94595 0.0146633
12006 2 8.50405 0.555426 -0.153008
12032 2 2.67941 17.3214 -0.050581
226 1 4.29571 -1.34866 15.4207
227 1 1.61692 -0.81899 15.2297
228 1 4.09874 1.68927 15.4021
229 1 1.10451 1.73526 15.4295
230 1 10.0082 -0.811886 15.365
231 1 7.00697 -0.994207 15.2292
232 1 9.80516 2.08867 15.4641
233 1 6.92115 1.9675 15.5087
234 1 12.7151 -0.783579 15.2232
235 1 12.7971 2.07402 15.5529
236 1 4.42564 4.61143 15.3002
237 1 1.36944 4.58415 15.4398
238 1 3.98533 7.34047 15.345
239 1 1.38117 7.50493 15.1643
240 1 9.82102 4.58341 15.4148
241 1 7.1513 4.93565 15.3835
242 1 10.0135 7.53626 15.5048
243 1 6.88226 7.62706 15.2943
244 1 12.5754 5.03663 15.3593
245 1 12.8865 7.83174 15.4582
246 1 4.64965 10.4319 15.5696
247 1 1.63193 10.0361 15.7156
248 1 4.59268 13.1727 15.4387
249 1 1.62784 13.1095 15.3346
250 1 10.1722 10.4476 15.3709
251 1 7.36369 10.5447 15.3123
252 1 9.98369 13.0517 15.6047
253 1 7.24492 13.1115 15.5369
254 1 12.849 10.4482 15.4809
255 1 12.7722 13.1412 15.6328
256 1 4.37767 16.0691 15.458
257 1 1.50732 15.8959 15.5649
258 1 4.3581 18.8363 15.6642
259 1 1.69906 18.7044 15.1711
260 1 9.88156 15.6541 15.3925
261 1 7.02829 16.1183 15.4661
262 1 10.2712 18.6614 15.5999
263 1 7.26398 18.9485 15.3981
264 1 12.9576 16.0612 15.325
265 1 12.8193 18.6121 15.3885
266 1 4.27454 21.6523 15.6259
267 1 1.32216 21.4434 15.5139
268 1 9.94234 21.6607 15.5237
269 1 7.0024 21.8603 15.4305
270 1 12.7879 21.4626 14.9512
271 1 1.36651 -1.21655 18.0216
272 1 4.2481 -0.798145 18.1525
273 1 4.35946 -0.895609 21.0738
274 1 1.50653 -1.0296 21.0554
275 1 1.19562 1.75398 18.3499
276 1 4.13485 1.84956 18.4322
277 1 4.08637 1.91663 21.1721
278 1 1.53268 1.65295 21.2038
279 1 7.09131 -0.965016 18.1374
280 1 9.69539 -0.900135 18.2538
281 1 10.1713 -1.05767 20.7737
282 1 7.09883 -0.962688 20.9152
283 1 7.03058 1.51986 18.24
284 1 9.93588 1.91553 18.1566
285 1 9.89862 1.79291 20.9412
286 1 7.00843 1.88136 20.868
287 1 12.7195 -1.05277 18.0672
288 1 12.9952 -0.897363 20.9039
289 1 12.6865 1.85684 18.1758
290 1 12.637 1.81537 20.9016
291 1 1.3908 4.65814 18.2952
292 1 4.08739 4.55759 18.0361
293 1 4.41281 4.64007 20.9598
294 1 1.34136 4.41962 21.0348
295 1 1.23865 7.44339 17.8191
296 1 4.27149 7.48102 18.2038
297 2 5.47158 8.63201 22.5496
298 1 4.49224 7.53738 20.7958
299 1 6.99223 4.45712 18.1097
300 1 9.92596 4.69628 18.2409
301 1 9.70709 4.56424 21.15
302 1 6.97797 4.57668 21.0762
303 1 7.27609 7.25313 18.262
304 1 9.98673 7.58478 18.1383
305 1 9.77579 7.54465 20.8972
306 1 7.33906 7.50791 21.3533
307 1 12.7042 4.61143 18.3673
308 1 12.6414 4.64125 21.2998
309 1 12.9609 7.35627 18.1812
310 1 12.5194 7.56568 20.848
311 1 1.42542 10.3509 18.4567
312 1 4.22249 10.2821 18.3848
313 1 4.1246 10.0007 21.3584
314 1 1.54236 9.98299 20.9718
315 1 1.60246 13.1771 18.1573
316 1 4.25895 13.0803 18.4654
317 1 4.39613 13.2179 21.0642
318 1 1.54094 13.0671 21.031
319 1 7.04391 10.1312 18.0021
320 1 9.99344 10.2989 18.4247
321 1 10.1294 10.2295 21.1857
322 1 7.32697 10.1682 20.7076
323 1 7.13757 12.8935 18.3751
324 1 9.81027 13.0514 18.0548
325 1 9.92572 13.0163 20.6654
326 1 7.37704 13.0846 21.0289
327 1 12.7578 10.2766 18.3041
328 1 12.8944 10.3193 21.1582
329 1 12.9059 13.204 18.2315
330 1 13.0796 12.8604 20.6989
331 1 1.58696 16.0345 18.4044
332 1 4.44519 15.8322 18.3451
333 1 4.35072 15.8818 21.1023
334 1 1.45362 15.8542 20.8883
335 1 1.47988 18.7805 18.2948
336 1 4.48627 18.7967 18.1591
337 1 4.47796 18.9362 21.0838
338 1 1.45328 18.6501 20.9449
339 1 7.24051 15.7538 18.0928
340 1 10.0477 15.7287 18.1743
341 1 9.5965 16.2975 20.9851
342 1 7.1697 15.8766 21.0304
343 1 7.42569 18.8219 18.222
344 1 10.3181 18.6481 18.1741
345 1 9.9589 19.0852 20.9687
346 1 7.24982 18.8077 21.0041
347 1 12.7393 16.0534 18.1481
348 1 12.9975 16.2849 20.9948
349 1 12.8866 18.8075 18.2476
350 1 12.5989 19.0009 21.0547
351 1 1.4687 21.7307 18.299
352 1 4.3099 21.749 18.2474
353 1 4.53584 21.624 21.0315
354 1 1.47986 21.631 21.2482
355 1 7.09021 21.6788 18.2657
356 1 10.1289 21.8144 18.0589
357 1 10.0251 21.7897 20.9464
358 1 7.31903 21.668 21.0595
359 1 12.9708 21.706 17.8648
360 1 12.7728 21.6508 20.8558
361 1 1.51081 -0.86636 23.8415
362 1 4.23377 -0.986311 23.7588
363 1 4.19047 -0.852055 26.559
364 1 1.36696 -0.930317 26.7798
365 1 1.42977 1.93187 23.8201
366 1 4.14452 1.64332 23.9843
367 1 4.04762 1.82577 26.6306
368 1 1.30281 1.73475 26.7391
369 1 7.15831 -1.02161 24.0087
370 1 9.93973 -0.980906 23.7502
371 1 9.78328 -0.955184 26.5822
372 1 7.12662 -0.884526 26.8196
373 1 6.78613 1.99755 23.7904
374 1 9.72086 1.85803 23.6706
375 1 9.779 1.93123 26.6783
376 1 7.05908 1.88039 26.6333
377 1 12.6369 -1.23194 23.9661
378 1 12.7255 -0.936774 26.5915
379 1 12.6811 1.77411 23.6802
380 1 12.5105 1.90146 26.5403
381 1 1.1094 4.78779 23.81
382 1 4.26421 4.60148 23.6645
383 1 4.24605 4.63287 26.6558
384 1 1.50292 4.45686 26.5092
385 1 1.79723 7.64552 23.7398
386 1 4.35683 7.22104 23.9704
387 1 4.47375 7.65977 26.7578
388 1 1.63044 7.17321 26.7416
389 1 7.13423 4.73294 24.158
390 1 9.75906 4.51289 23.903
391 1 9.76664 4.6689 26.6537
392 1 6.844 4.60526 26.7997
393 1 7.49293 7.71154 23.9168
394 1 10.0031 7.51851 23.5484
395 1 10.0779 7.36368 26.802
396 1 7.24777 7.56962 26.8849
397 1 12.7422 4.49307 23.9438
398 1 12.5354 4.64217 26.512
399 1 12.9427 7.2757 23.7363
400 1 12.8086 7.39484 26.5509
401 1 1.7452 10.5792 23.9576
402 1 4.60774 10.2575 23.8827
403 1 4.48328 10.494 26.6129
404 1 1.63711 10.2783 26.6147
405 1 1.3918 13.2355 23.8895
406 1 4.24046 13.2378 23.6101
407 1 4.19262 13.2872 26.4969
408 1 1.33174 13.0543 26.748
409 1 7.29954 10.318 23.5059
410 1 10.1287 10.1351 23.6961
411 1 10.1524 10.3718 26.5464
412 1 7.41384 10.1731 26.7881
413 1 7.11658 13.089 23.6486
414 1 10.0176 13.1792 24.092
415 1 9.60432 13.3337 26.7678
416 1 6.92433 12.9974 26.8411
417 1 13.0827 10.0922 23.9398
418 1 12.8313 10.0048 26.6897
419 1 13.2042 12.8599 24.2511
420 1 12.5392 12.8506 26.8514
421 1 1.44591 16.017 23.682
422 1 4.40813 15.8962 24.0151
423 1 4.06938 15.8971 26.8285
424 1 1.33677 15.8411 26.4714
425 1 1.60413 18.8986 23.6525
426 1 4.38982 18.877 24.1485
427 1 4.17271 18.5567 26.789
428 1 1.28099 18.6314 26.663
429 1 6.95854 16.0786 23.9471
430 1 10.018 18.833 26.7052
431 1 9.83511 16.0658 26.8399
432 1 7.04622 15.8259 26.8419
433 1 7.22766 18.9085 23.9031
434 1 10.0185 19.1074 23.9339
435 1 12.9003 18.8312 23.8329
436 1 6.90048 18.5445 26.8275
437 1 12.8413 15.8826 26.8262
438 1 12.8899 19.0748 26.8024
439 1 13.2133 16.1805 24.2066
12211 2 0.00688351 3.27097 22.4213
441 1 1.57161 21.9963 24.0159
442 1 4.27445 21.6683 23.7696
443 1 4.20116 21.5035 26.6704
444 1 1.5232 21.4459 26.619
445 1 7.17954 21.5643 23.9285
446 1 10.0311 21.8242 23.765
447 1 10.0021 21.5291 26.6402
448 1 7.02957 21.1605 26.687
449 1 12.9182 21.7817 23.9191
450 1 12.6078 21.8546 26.5356
12174 2 0.0165987 11.5523 19.6356
12250 2 11.2524 23.2362 25.2069
12046 2 8.52048 22.9181 28.0451
6053 1 -0.0234718 9.11824 25.2826
12132 2 -0.072019 5.93628 14.0601
12227 2 8.72348 8.93704 25.4832
12249 2 11.5328 20.3938 22.5713
12226 2 8.83374 12.1412 22.3939
12225 2 8.74399 8.94618 22.3273
12201 2 -0.027487 -2.27792 22.5654
12223 2 3.04518 8.95346 25.1975
12248 2 5.7236 22.8737 25.2348
12222 2 2.94331 11.6844 22.2092
12228 2 5.73844 11.878 25.1443
12151 2 0.0541925 -2.36451 16.6604
12220 2 11.2789 5.846 25.102
12247 2 8.48855 20.0524 25.3278
12127 2 -0.00675932 0.403756 13.9835
6309 1 1.70731 7.29597 20.8822
12171 2 -0.063626 8.82407 16.7026
12219 2 11.2902 3.24083 22.4774
12246 2 8.53986 22.9154 22.3903
12204 2 -0.0449823 0.393793 25.3795
12218 2 5.5907 5.97847 25.4549
12159 2 11.2415 -2.32374 16.7587
12245 2 5.64344 20.3119 22.3751
12152 2 2.75679 0.331692 16.7297
12164 2 -0.0276939 6.06905 19.5618
12243 2 2.82887 20.0242 25.2632
12157 2 8.52405 -2.28328 19.4916
12156 2 8.51526 0.518796 16.8665
12214 2 0.136392 5.93934 25.404
12158 2 5.58086 0.39146 19.5661
12181 2 0.163373 14.5718 16.7249
12160 2 11.3084 0.453468 19.5284
12242 2 2.92933 23.3248 22.3682
12162 2 2.82538 6.11861 16.7858
12163 2 2.74905 3.1818 19.6411
12240 2 11.3872 17.4852 25.2878
12165 2 5.46426 3.09137 16.7589
12166 2 8.50797 5.97784 16.7684
12167 2 8.49198 3.13365 19.3814
12168 2 5.65061 5.96872 19.4915
12169 2 11.325 3.23405 16.6436
12170 2 11.2496 6.1267 19.5287
12239 1 9.88192 16.2769 24.187
12172 2 3.0708 11.6984 16.8391
12173 2 3.00279 8.81892 19.5127
12238 2 5.6664 17.3315 25.3376
12175 2 5.51852 8.91267 16.8338
12176 2 8.485 11.6264 16.8626
12177 2 8.52431 8.79319 19.2643
12178 2 5.75611 11.5465 19.7585
12179 2 11.5902 8.89435 16.8763
12180 2 11.4851 11.603 19.7728
12237 2 8.53784 14.8563 25.3346
12182 2 3.02013 17.2942 16.8357
12183 2 2.91818 14.3758 19.7035
12236 2 8.60664 17.4051 22.478
12185 2 5.90583 14.5177 16.9939
12186 2 8.78296 17.1177 16.9536
12187 2 8.61854 14.4028 19.4747
12188 2 5.63243 17.2143 19.7019
12189 2 11.2773 14.3647 16.8273
12190 2 11.3261 17.3434 19.8226
12235 2 5.77687 14.5349 22.3241
12192 2 2.86908 22.858 16.7986
12193 2 3.08018 20.1986 19.5878
12194 2 -0.0936886 23.0722 19.6513
12195 2 5.74086 20.2962 16.9312
12196 2 8.56961 23.0759 16.7298
12197 2 8.63238 20.214 19.5028
12198 2 5.7157 23.1685 19.6447
12199 2 11.4582 20.2091 16.8681
12200 2 11.4148 23.1222 19.427
12233 2 2.81126 14.6337 25.2765
12202 2 2.78677 0.497102 22.482
12203 2 2.9102 -2.40298 25.2265
12232 2 2.98557 17.3146 22.4396
12221 2 0.33016 8.76435 22.5759
12206 2 8.53597 0.38684 22.4221
12205 2 5.65418 -2.3321 22.4332
12208 2 5.65057 0.308078 25.2566
12244 2 -0.0203676 23.0411 25.2776
12210 2 11.2858 0.230244 25.33
12230 2 11.4347 11.7799 25.2262
12212 2 2.94892 5.88454 22.4054
12213 2 2.82185 3.07997 25.1954
12229 2 11.9441 8.76876 22.4965
12215 2 5.42773 3.15656 22.3327
12216 2 8.31085 5.60564 22.5458
12217 2 8.38765 3.23125 25.3417
12161 2 -0.0429809 3.16617 16.9629
12141 2 2.87181 14.5331 14.1181
12148 2 8.63412 20.3387 14.1897
12019 2 11.1274 3.30874 28.0394
12241 2 -0.0649144 20.3741 22.379
12231 2 -0.0432723 14.6476 22.5047
12137 2 0.188714 11.7708 14.2428
12234 2 -0.0488012 17.2862 25.1099
12184 2 0.111132 17.3205 19.6629
12154 2 0.139902 0.151759 19.5691
12191 2 -0.0202558 20.0157 16.8545
12224 2 0.273852 11.6004 25.3233
12021 2 0.301259 8.46822 27.8075
12131 2 2.85596 3.32581 13.9914
12029 2 11.398 8.98825 28.153
12144 2 5.79135 17.5465 14.0917
12143 2 8.34631 14.4294 14.1481
12147 2 0.167178 22.9606 13.9122
12209 2 11.5229 -2.35918 22.3704
12135 2 11.2482 6.28273 14.0223
12146 2 2.8823 20.1969 13.9532
12145 2 11.2889 17.3512 14.0084
12005 2 5.51435 -2.31739 27.9187
12042 2 2.68661 23.0323 27.9825
12041 2 -0.00507839 20.2821 27.9746
12129 2 5.56003 0.214144 13.9965
12130 2 11.2321 0.568208 13.921
12136 2 2.818 8.85187 13.9742
12022 2 2.83096 11.7739 27.9677
12140 2 11.4979 11.8009 14.1239
15011 2 13.8481 5.83803 27.9222
451 1 1.45898 24.5542 0.995
452 1 4.47064 24.7296 1.40283
453 1 4.39313 24.5006 4.1209
454 1 1.36944 24.5519 4.04975
455 1 7.21136 24.4672 1.16082
456 1 9.90423 24.2472 1.17646
457 1 9.97324 24.5078 4.07288
458 1 7.11413 24.4895 3.84223
459 1 12.7183 27.1601 1.2248
460 1 12.7048 24.3806 4.11444
461 1 1.45513 30.1667 1.30694
462 1 4.24476 27.4398 1.52687
463 1 4.30099 27.3409 4.28278
464 1 1.31569 29.9703 3.79905
465 1 1.32284 33.0426 1.20598
466 1 4.22434 30.1767 1.07492
467 1 4.14839 30.0571 3.98712
468 1 1.2065 32.947 4.21389
469 1 7.22734 27.1738 1.12492
470 1 9.93993 27.2639 1.20381
471 1 9.80798 27.2831 4.04696
472 1 7.03177 27.2128 4.07384
473 1 7.05341 29.8405 1.0743
474 1 10.1967 30.4033 1.18256
475 1 9.95896 30.1362 4.03244
476 1 7.06057 30.1832 3.97047
477 1 12.8469 29.9412 1.63625
478 1 12.7768 27.3101 4.01914
479 2 11.4227 31.3389 2.78838
480 1 12.9391 30.1275 4.07568
481 1 1.06195 35.989 0.940036
482 1 4.15559 33.0545 1.05749
483 1 4.21209 33.1186 4.19258
484 1 3.91156 35.9758 1.43161
15261 2 13.9141 34.3907 0.452992
488 1 1.2584 38.48 1.31393
487 1 4.4024 36.0213 4.1216
1018 1 12.6329 49.8317 9.91057
489 1 6.96223 32.6834 1.14711
490 1 9.82414 32.9614 1.31134
491 1 9.79506 32.8286 4.07718
492 1 7.12072 32.8306 4.1434
12326 2 -0.0666298 42.787 5.56957
494 1 9.73568 35.9196 1.33018
495 1 6.89594 35.6251 4.11738
496 1 6.63588 38.3971 3.89426
497 1 12.6248 32.7085 1.49778
498 1 12.2072 32.9653 4.00806
499 1 12.7312 36.0032 1.43697
500 1 12.4132 35.8003 4.16054
12282 2 2.73815 45.8485 -0.0113948
502 1 7.00533 38.6629 1.37214
503 1 3.80718 38.754 6.96223
504 1 3.89783 39.0615 4.00353
505 1 1.17001 41.8727 1.5394
506 1 3.99207 41.6599 1.29764
507 1 4.24906 41.7402 4.0803
508 1 1.477 41.5137 4.23235
1109 1 12.6284 50.0336 12.5925
12336 2 -0.135033 48.516 5.56136
511 1 9.68803 35.8261 4.10207
512 1 9.76776 38.7285 1.11296
513 1 7.04976 41.5118 1.30447
514 1 10.0301 41.567 1.31743
515 1 9.66277 41.4379 4.04007
516 1 6.94043 41.427 4.24346
517 1 12.559 38.6657 1.07562
518 1 12.6726 38.664 3.94447
519 1 12.7901 41.4262 1.31808
520 1 12.682 41.3055 4.15887
521 1 1.30755 44.3762 1.20104
522 1 4.23604 44.4936 1.21466
523 1 4.09383 44.4432 4.27657
524 1 1.21941 44.3674 4.00988
525 1 1.07332 47.1251 1.39663
526 1 4.29096 47.1794 1.49903
527 1 4.24858 47.3286 4.20351
528 1 1.32545 47.3802 4.10771
529 1 7.32827 44.5626 1.46813
530 1 9.90677 44.2413 1.28273
531 1 9.71795 44.3532 4.0902
532 1 6.92559 44.3182 4.20083
533 1 7.30759 47.2271 1.32818
534 1 10.0189 47.0235 1.17708
535 1 9.76602 47.2138 3.83623
536 1 6.92488 47.3729 4.0301
537 1 12.5808 44.5945 1.12485
538 1 12.7662 44.1721 4.00664
539 1 12.7206 47.2082 1.46642
540 1 12.4648 46.9343 4.21173
541 1 1.43086 27.2395 4.26322
542 1 4.40325 24.4974 7.03326
543 1 4.40621 24.3823 9.66095
544 1 1.58727 24.2822 9.87183
545 1 7.20145 24.3042 6.5461
546 1 10.1018 24.3402 7.02753
547 1 9.87709 24.4591 9.78884
548 1 7.14392 24.5947 9.78764
549 1 12.8873 24.4946 7.05106
550 1 12.9043 24.2667 10.0278
551 1 1.49141 27.2584 1.28709
552 1 4.2148 27.1068 7.01991
553 1 4.23283 27.0413 10.0218
554 1 1.67576 27.3066 9.77364
555 1 1.74427 30.3262 6.53646
556 1 4.29775 29.9095 6.8647
557 1 4.38664 29.9503 9.63852
558 1 1.65703 32.9254 9.75753
559 1 6.92741 27.3384 6.98707
560 1 9.8839 27.1711 6.78937
561 1 10.0518 27.3219 9.66282
562 1 7.15943 27.3849 9.61231
563 1 7.25975 30.1957 6.77119
564 1 10.1382 29.9327 6.83336
565 1 10.0051 30.2196 9.67182
566 1 7.1516 30.2277 9.81623
567 1 12.527 27.3013 6.61925
568 1 12.9605 27.2651 9.45298
569 1 12.9599 30.2236 6.82705
570 1 12.7688 30.1115 9.5796
571 1 1.59695 35.7549 4.10445
572 1 3.94179 32.7086 6.86813
573 1 4.3472 32.8301 9.8118
574 1 1.46704 35.6307 6.95429
575 1 1.27856 38.5898 3.94241
576 1 4.3217 35.7751 7.00207
577 1 4.10839 35.8608 9.78592
578 1 1.45238 35.8353 9.7484
579 1 6.80164 32.966 6.87251
580 1 9.85305 32.9123 7.0951
581 1 9.94976 33.031 9.80506
582 1 7.19229 32.846 10.0151
583 1 6.90307 35.6283 6.77157
584 1 10.1815 35.5326 6.84976
585 1 10.2887 35.681 9.9779
586 1 6.69483 35.3986 10.1097
587 1 12.6737 32.95 6.92134
588 1 13.0082 33.1402 9.77417
589 1 12.6664 36.0052 6.82643
590 1 12.9712 35.9245 9.57934
591 1 1.10232 38.6204 6.66288
592 1 4.0725 38.5721 9.64499
593 1 6.85041 38.8249 9.85192
594 1 1.19066 38.6755 9.65862
595 1 1.16925 41.4874 6.97301
596 1 4.08701 41.5021 6.97609
597 1 4.08938 41.2139 9.66199
598 1 1.35289 41.8356 9.65242
599 1 6.56871 38.9222 6.6035
600 1 10.1145 39.0564 6.62212
601 1 10.2351 38.8219 9.875
602 1 6.87202 41.3875 9.78355
603 1 10.0429 41.844 7.0232
604 1 9.78698 44.5772 6.78236
605 1 9.8892 41.6387 9.99822
606 1 6.97937 41.6028 6.97987
607 1 12.8406 38.8603 6.93065
608 1 12.9451 38.798 9.63933
609 1 12.8791 41.711 6.98015
610 1 12.6637 41.6037 9.88663
611 1 1.31253 44.3048 6.73326
612 1 4.15489 44.3734 7.08563
613 1 4.12868 44.2134 9.86382
614 1 1.30197 44.5586 9.65475
615 1 1.17968 47.0731 6.96975
616 1 3.91762 47.1687 6.94395
617 1 4.16025 47.0607 9.71208
618 1 1.35531 47.2799 9.6294
619 1 6.92374 44.2993 6.91191
620 1 9.59367 47.2806 6.85187
621 1 9.78294 44.3532 9.63864
622 1 6.8628 44.2954 9.65783
623 1 6.76608 47.1471 6.96706
12306 2 0.0493032 31.444 5.42528
625 1 9.7751 47.0312 9.64021
626 1 6.74474 47.0971 9.77231
627 1 12.5353 44.4823 6.97645
628 1 12.8548 44.2554 9.86802
629 1 12.4887 47.2848 6.92117
630 1 12.7319 46.9227 9.69088
631 1 1.73536 24.485 12.6178
632 1 4.37463 24.3695 12.4732
633 1 7.29458 24.3766 12.4751
634 1 10.0529 24.3789 12.3874
635 1 12.9203 24.4961 12.666
636 1 1.47552 27.4357 12.5898
637 1 4.21853 27.4787 12.4907
638 1 1.47956 30.2438 9.89222
639 1 4.26732 30.2131 12.6945
640 1 6.99965 27.1499 12.5829
641 1 9.90801 27.2027 12.5709
642 1 7.10127 29.9267 12.6886
643 1 9.75371 30.148 12.3214
644 1 12.7827 27.2061 12.4698
645 1 12.7632 30.2739 12.3512
646 1 1.41717 33.0053 12.5039
647 1 4.3514 33.0928 12.5647
648 1 1.36155 35.7508 12.5874
649 1 4.14446 35.999 12.4845
650 1 6.99467 32.9659 12.6765
651 1 10.0143 32.8343 12.5934
652 1 7.15508 36.2211 12.6991
653 1 9.88753 35.6942 12.9703
654 1 12.6866 33.1293 12.6653
655 1 12.7482 35.9272 12.5577
656 1 1.47539 38.7351 12.6905
657 1 4.39683 38.579 12.5021
658 1 1.43752 41.2484 12.5809
659 1 4.29733 41.3738 12.4042
660 1 7.27694 38.8686 12.5966
661 1 9.832 38.6641 12.4701
662 1 7.15104 41.6181 12.6374
663 1 9.98982 41.4062 12.8283
664 1 12.6804 38.5049 12.5537
665 1 12.835 41.5685 12.6485
666 1 1.49603 44.2865 12.4531
667 1 4.25183 44.4182 12.5799
668 1 1.24628 47.36 12.6193
669 1 4.06291 47.2594 12.7579
670 1 6.87294 44.4911 12.5976
671 1 9.78504 44.5763 12.4207
672 1 6.64594 47.1652 12.9522
673 1 9.74648 47.2528 12.5745
674 1 12.4551 44.3162 12.6456
675 1 12.5143 47.1868 12.4054
12363 2 11.2016 48.5751 11.278
12341 2 0.333074 25.9045 11.0466
12253 2 2.8217 25.995 2.6716
12362 2 5.49708 48.4205 11.3101
6645 1 1.34576 30.2088 12.5904
12272 2 2.30606 40.4193 0.145271
12257 2 8.4111 25.8819 2.34782
12258 2 5.83442 28.611 2.70666
12316 2 -0.0643257 37.2013 5.5432
12260 2 11.2586 28.3452 2.65725
1105 1 7.1128 49.8318 12.5856
12351 2 0.0810462 37.17 11.1637
12263 2 2.81819 31.4248 2.75069
12360 2 11.2408 42.8978 11.3523
12309 2 0.0301483 34.4387 8.31851
12264 2 -0.0546811 34.3567 2.68987
12267 2 8.21113 31.6433 2.58101
12268 2 5.56907 34.5046 2.70189
12365 2 -0.0478657 28.6581 13.8758
12270 2 11.1285 34.5996 2.45743
12359 2 8.23817 45.6313 11.0332
485 2 2.76955 37.0542 -0.148799
12273 2 2.81874 37.418 3.12457
12358 2 5.56363 42.6435 11.3455
12348 2 5.69643 31.4987 11.2266
12368 2 11.3164 28.5489 13.708
12277 2 8.28794 36.9862 2.81417
12278 2 5.59592 40.185 2.67497
12254 2 -0.0928367 28.5288 2.59897
12280 2 11.3028 39.9998 2.471
89 1 12.6402 24.423 1.28737
12347 2 2.82973 34.4143 11.0804
12283 2 2.81491 42.9183 2.87583
486 1 3.91091 38.8172 1.13199
12350 2 11.1594 31.6539 11.1228
12346 2 -0.0835349 31.3281 11.1734
12287 2 8.43315 42.8764 2.71329
12288 2 5.59698 45.6666 2.84224
12286 2 8.46237 45.7333 -0.0982691
12290 2 11.2479 45.6225 2.68185
493 1 6.96915 35.7212 1.24449
12292 2 2.68598 48.5955 2.91544
12352 2 2.92531 40.0672 11.04
12294 2 8.38758 48.561 2.71039
917 1 12.3893 49.8921 1.35793
12357 2 2.68657 45.8265 11.2233
12297 2 2.71314 28.768 5.37353
12298 2 3.03901 25.8138 8.53581
12299 1 1.26609 33.0583 6.88861
12300 2 5.69228 25.6241 5.37729
12301 2 8.18345 28.4222 5.54728
12302 2 8.41192 25.7851 8.14252
12303 2 5.39349 28.5274 8.1668
12304 2 11.2706 25.6324 5.5377
12305 2 11.4168 28.6071 8.26869
171 1 1.42111 25.0291 6.9859
12307 2 2.74421 34.3751 5.62881
12308 2 2.84426 31.3963 8.46202